/*--------------------------------*- C++ -*----------------------------------*\
  =========                 |
  \\      /  F ield         | OpenFOAM: The Open Source CFD Toolbox
   \\    /   O peration     | Website:  https://openfoam.org
    \\  /    A nd           | Version:  8
     \\/     M anipulation  |
\*---------------------------------------------------------------------------*/
FoamFile
{
    version     2.0;
    format      ascii;
    class       volScalarField;
    location    "2.8";
    object      p;
}
// * * * * * * * * * * * * * * * * * * * * * * * * * * * * * * * * * * * * * //

dimensions      [0 2 -2 0 0 0 0];

internalField   nonuniform List<scalar> 
7843
(
2.60386e-06
7.62892e-06
8.15757e-06
1.0379e-05
1.93276e-06
1.02714e-05
9.66077e-06
1.54054e-06
9.9346e-06
2.38898e-06
5.90593e-06
2.53439e-06
9.93855e-06
6.18131e-06
4.6094e-06
5.65943e-06
5.80527e-06
4.69375e-06
9.95353e-06
9.76286e-06
9.91488e-06
9.72786e-06
6.00117e-06
9.02128e-06
4.90914e-06
9.91457e-06
4.01684e-07
9.75185e-06
1.09413e-06
1.02243e-05
1.00047e-05
3.09905e-06
1.00288e-05
1.71999e-06
5.52284e-06
5.35027e-06
4.2995e-06
9.84133e-06
1.01564e-05
8.34638e-06
4.51449e-06
6.57527e-06
2.00643e-06
7.51622e-06
9.93466e-06
9.66926e-06
6.09106e-06
9.48126e-06
8.15298e-06
9.94015e-06
9.94403e-06
7.40772e-06
3.50387e-06
9.68656e-06
2.19733e-06
9.94856e-06
9.60195e-06
9.9665e-06
9.68557e-07
9.91447e-06
1.80165e-06
9.70663e-06
9.55417e-06
1.00336e-05
5.78488e-07
5.6898e-06
5.67918e-06
9.9455e-06
9.68404e-06
1.6966e-06
9.94535e-06
3.27465e-06
8.57586e-06
9.9229e-06
9.94641e-06
5.38119e-06
2.10522e-06
1.90409e-06
2.72784e-06
1.05556e-05
9.98923e-06
8.23811e-07
6.2767e-06
9.88434e-06
2.40283e-06
2.53909e-06
9.80156e-06
1.18142e-06
9.89723e-06
9.66926e-06
9.91787e-06
6.89357e-06
9.94465e-06
1.00038e-05
9.8271e-06
3.02916e-06
9.9441e-06
3.40849e-07
9.93349e-06
5.49982e-06
4.32259e-07
3.76889e-07
9.75134e-06
7.78627e-07
9.89023e-06
8.90989e-06
9.94243e-06
9.92414e-06
8.87115e-06
7.09199e-06
1.05701e-06
9.55805e-06
9.72501e-06
2.84172e-06
9.83099e-06
8.69359e-06
9.89511e-06
1.62179e-06
9.89038e-06
7.20157e-06
2.03736e-06
1.64768e-06
6.35387e-06
1.74605e-06
9.96397e-06
9.54335e-06
6.63216e-06
9.1541e-06
8.90487e-06
1.02838e-05
6.99662e-06
9.75154e-06
9.90439e-06
2.08713e-06
8.40749e-06
4.1922e-06
1.03028e-05
9.40515e-06
4.40724e-06
1.28476e-06
9.95667e-06
9.0677e-06
9.91302e-06
9.97766e-06
9.94321e-06
1.00217e-05
6.46178e-06
8.52884e-06
9.28305e-06
9.21793e-06
2.51134e-06
9.63442e-06
9.97427e-06
7.49982e-06
5.98794e-06
5.78685e-06
9.86854e-06
9.74814e-06
7.91576e-06
3.62635e-06
9.93631e-06
5.99796e-06
9.53663e-06
6.20525e-06
7.57548e-06
1.43381e-06
9.89866e-06
1.69887e-07
3.42113e-06
6.41487e-06
1.2131e-06
7.25446e-06
6.6249e-06
9.80597e-06
6.94e-06
9.93717e-06
9.46498e-07
9.93869e-06
6.22017e-06
2.44325e-06
2.31323e-06
1.97949e-06
9.91315e-06
8.03492e-06
5.81136e-06
9.582e-06
9.94109e-06
9.51957e-06
2.959e-06
9.65119e-06
3.17329e-06
3.3813e-06
1.01124e-05
9.94915e-06
6.72369e-06
9.92927e-06
9.91803e-06
9.78743e-06
1.38624e-06
8.64174e-06
7.30198e-06
1.07604e-06
6.79161e-06
2.67951e-06
7.31004e-07
9.93147e-06
8.57707e-07
9.92907e-06
9.91307e-06
7.30178e-06
9.38712e-06
7.19701e-06
8.81019e-06
4.75613e-06
6.30043e-06
8.7463e-06
9.9232e-06
2.68884e-06
9.9328e-06
9.70236e-06
9.82373e-06
9.63906e-06
2.05573e-07
7.68614e-06
9.47066e-06
1.00132e-05
9.62118e-06
5.57992e-06
7.79976e-06
9.69514e-06
9.4518e-06
9.94168e-06
9.93953e-06
2.18643e-06
9.72888e-06
6.40534e-06
2.34523e-06
9.26203e-06
5.88442e-06
4.40775e-07
2.65243e-06
3.98348e-06
2.54663e-06
4.3596e-06
9.53375e-06
6.11625e-06
1.0107e-05
9.86149e-06
6.77676e-06
5.73799e-06
1.03026e-05
9.93789e-06
2.84853e-06
6.61517e-06
8.30176e-06
2.85916e-06
9.39194e-06
6.51006e-06
5.69093e-07
9.98217e-06
1.00313e-05
9.69404e-06
4.6494e-07
6.93032e-06
2.53883e-06
9.61265e-06
9.93295e-06
7.36016e-06
9.93869e-06
9.2361e-06
9.9672e-06
9.94051e-06
9.90252e-06
9.33555e-06
7.24725e-06
9.81432e-06
3.11187e-06
2.1418e-06
9.58798e-06
6.82335e-06
1.30706e-06
6.7202e-06
7.09929e-06
9.82434e-06
1.00856e-05
9.92682e-06
9.70028e-06
6.73878e-06
1.10438e-06
7.59593e-06
9.93712e-06
9.98072e-06
1.01285e-05
2.39813e-06
9.53733e-06
3.81018e-06
4.01404e-06
9.8164e-06
9.20627e-06
8.03051e-06
9.3352e-06
9.71899e-06
3.88417e-06
3.52149e-06
9.83453e-06
9.58247e-06
9.93638e-06
8.6206e-06
9.59859e-06
9.51121e-06
9.57923e-06
9.19953e-06
9.91913e-06
9.95644e-06
9.93831e-06
9.82352e-06
7.46717e-06
6.25326e-06
9.92683e-06
4.0524e-06
9.93112e-06
9.93677e-06
7.04477e-06
7.0352e-06
9.63158e-06
9.33017e-06
9.96917e-06
9.85319e-06
9.41197e-06
9.92799e-06
3.70359e-06
6.82525e-06
1.02127e-05
1.00529e-05
9.23015e-06
9.67362e-06
4.29864e-07
3.67601e-06
8.70293e-06
9.70502e-06
9.63808e-06
3.30331e-06
9.93312e-06
4.64036e-07
9.45584e-06
4.6993e-07
3.57148e-06
9.92157e-06
9.58159e-06
4.26402e-07
1.0196e-05
3.5471e-06
9.93459e-06
9.94971e-06
2.89214e-06
9.93293e-06
9.64253e-06
9.59667e-06
2.93045e-06
7.40148e-06
1.03258e-05
7.35449e-06
9.7308e-06
1.06734e-05
1.0193e-05
3.39708e-06
8.07501e-06
9.92202e-06
9.83162e-06
7.78524e-06
7.90497e-06
9.96672e-06
2.73908e-06
9.74962e-06
1.87762e-06
1.00825e-05
6.72997e-06
6.0042e-06
6.01322e-06
1.04996e-05
6.92975e-06
9.76355e-06
1.00915e-05
9.64435e-06
7.35644e-07
3.39205e-06
6.03071e-06
9.91762e-06
3.19103e-07
4.65509e-06
5.90981e-06
9.87159e-06
9.86105e-06
9.91784e-06
9.66175e-06
3.84675e-06
9.93608e-06
9.5129e-06
9.95949e-06
1.83644e-06
2.28948e-06
9.93496e-06
9.92159e-06
7.81048e-08
8.15584e-06
7.99517e-06
7.57047e-06
8.36627e-06
9.93305e-06
9.41305e-06
9.87439e-06
3.08497e-06
8.49335e-06
9.88278e-06
8.31659e-06
1.00037e-05
9.93443e-06
8.29273e-06
7.14095e-06
7.14978e-06
9.91301e-06
9.53147e-06
9.92427e-06
3.05144e-06
3.45394e-07
2.6856e-07
9.681e-06
4.1059e-07
1.00543e-05
9.58866e-06
9.94686e-06
9.93426e-06
3.32899e-06
9.94284e-06
8.9263e-06
9.3067e-06
9.86149e-06
7.78935e-06
4.17457e-06
9.93618e-06
2.63016e-06
9.86742e-06
9.96647e-06
9.93293e-06
8.35859e-06
9.89551e-06
9.55367e-06
8.84936e-06
9.95297e-06
8.22541e-06
1.3619e-06
1.3234e-06
9.75294e-06
9.86245e-06
9.75633e-06
3.83768e-06
3.49432e-06
9.84349e-06
8.49372e-06
9.93253e-06
9.759e-06
9.65994e-07
3.66416e-07
2.66717e-07
9.75988e-06
4.31955e-07
9.70553e-06
9.61727e-06
9.91324e-06
9.49865e-06
3.89964e-06
1.15438e-06
9.92526e-06
9.94084e-06
9.70194e-06
2.82259e-06
8.17942e-06
9.92968e-06
9.42819e-06
7.6897e-06
9.67766e-06
9.78947e-06
9.98246e-06
9.87689e-06
9.54943e-06
9.74971e-06
3.72666e-06
8.43253e-06
8.43056e-08
8.84453e-07
6.5148e-06
8.39882e-06
9.93321e-06
2.93735e-06
9.81134e-06
1.03996e-05
1.31473e-07
8.82166e-08
9.83824e-06
9.92883e-06
4.08612e-06
9.93052e-06
1.56762e-06
9.05384e-06
3.07044e-06
1.98113e-06
1.46492e-06
9.92929e-06
3.08966e-06
8.47808e-06
9.93836e-06
1.01956e-05
4.28474e-06
3.94426e-06
9.59634e-06
7.88978e-06
9.36674e-06
1.01368e-05
9.89713e-06
9.63464e-06
8.81553e-06
9.18402e-06
3.04456e-06
7.46198e-06
9.77259e-06
8.42061e-06
7.66864e-06
9.85527e-06
9.25096e-06
9.86742e-06
9.91259e-06
9.93081e-06
6.88141e-06
9.92544e-06
9.81119e-06
9.65179e-06
9.80504e-06
9.93263e-06
7.34047e-06
9.84886e-06
2.9665e-06
9.90623e-06
7.23072e-06
6.93019e-07
7.93589e-06
9.82449e-06
9.51417e-07
3.11227e-06
5.47438e-06
6.83516e-06
9.88092e-06
8.07914e-06
1.00739e-05
9.7504e-06
9.60477e-06
6.98619e-06
8.64781e-06
9.46465e-06
9.93864e-06
2.28533e-06
8.64687e-06
7.33248e-06
8.18754e-06
5.92838e-06
1.026e-05
1.67076e-06
9.91338e-06
2.32149e-06
4.81999e-06
9.45489e-06
7.91659e-06
3.3988e-06
1.0646e-06
1.01767e-05
9.4547e-06
8.45603e-06
6.73212e-06
9.82457e-06
9.86606e-06
8.47896e-07
9.90177e-06
1.01119e-05
1.7674e-06
1.00139e-05
9.9336e-06
9.74627e-06
9.71156e-06
7.72941e-06
9.84315e-06
9.90379e-06
9.69516e-06
9.80577e-06
9.91571e-06
4.61262e-06
9.42106e-06
2.35812e-06
9.91075e-06
8.31679e-06
9.91904e-06
9.94573e-06
9.67862e-06
9.93881e-06
2.35127e-06
1.09679e-07
1.69502e-07
8.1193e-06
7.532e-06
5.46354e-06
4.00089e-06
9.83265e-06
9.91005e-06
7.03232e-06
8.77157e-06
9.49236e-06
4.31719e-06
7.5807e-06
9.91406e-06
4.94231e-06
7.57038e-06
9.7921e-06
9.93836e-06
1.01416e-05
6.61814e-06
9.49527e-06
9.84646e-06
9.64446e-06
9.44095e-06
9.95847e-06
9.61313e-06
8.22519e-06
9.51242e-06
9.3968e-06
8.99969e-06
5.53684e-06
9.64872e-06
3.75394e-07
9.82234e-06
9.90114e-06
9.90362e-06
9.7668e-06
9.5071e-06
9.37163e-06
8.20429e-06
6.21784e-06
6.24333e-06
1.15035e-06
9.53165e-06
5.16254e-06
9.47909e-06
1.01003e-05
9.93256e-06
9.92585e-06
9.86616e-06
9.56576e-06
9.40805e-06
9.83371e-06
9.83884e-06
9.81242e-06
7.0115e-06
4.492e-06
8.18359e-06
9.8928e-06
9.9335e-06
9.79365e-06
1.25922e-06
9.94063e-06
9.61984e-06
9.75989e-06
3.73341e-06
2.29794e-06
9.45492e-06
8.51632e-06
4.65592e-06
9.52417e-06
9.93704e-06
9.42853e-06
8.12806e-06
9.90027e-06
9.65781e-06
7.79229e-06
9.93709e-06
5.90911e-06
9.91941e-06
6.91483e-06
9.61694e-06
1.00936e-05
1.71929e-06
9.71316e-06
1.00192e-05
9.43528e-06
6.10814e-06
3.52996e-06
7.90837e-06
5.03993e-06
9.31359e-06
9.53132e-06
9.87915e-06
9.86461e-06
5.06304e-06
9.67506e-06
9.45276e-06
1.6315e-06
1.01231e-05
8.68868e-06
2.43688e-06
9.95748e-06
9.93348e-06
9.89589e-06
9.60727e-06
9.92895e-06
4.71143e-06
9.92922e-06
9.3372e-07
9.79024e-06
5.78956e-07
9.91806e-06
1.03805e-05
6.52009e-06
9.9384e-06
8.14325e-06
1.00732e-05
9.92469e-06
9.95223e-06
5.28047e-06
2.071e-06
9.3791e-06
9.70051e-06
9.61136e-06
9.92147e-06
9.4703e-06
9.92431e-06
9.77822e-06
7.0057e-06
9.56443e-06
1.2704e-06
3.7388e-06
7.49207e-07
8.28468e-06
8.83437e-06
9.85558e-06
8.08291e-06
7.30418e-07
9.99327e-06
9.70536e-06
9.9301e-06
9.88212e-06
9.45269e-06
9.72209e-06
9.68643e-06
9.57711e-06
9.56338e-06
9.40385e-06
9.92111e-06
9.37349e-06
4.20749e-07
8.74602e-06
9.74471e-06
9.57636e-06
2.488e-06
9.70497e-06
9.78658e-06
9.81085e-06
9.44344e-06
2.86283e-06
9.9343e-06
1.01182e-05
9.74409e-06
9.69213e-06
9.60129e-06
9.78749e-06
8.37161e-07
9.93315e-06
9.90878e-06
5.24056e-06
1.48682e-06
3.50776e-06
1.42014e-06
1.04391e-05
9.42133e-06
9.94846e-06
8.30608e-06
1.00353e-05
1.20993e-06
8.82173e-06
9.32653e-07
9.93549e-06
9.67971e-06
9.92842e-06
1.15947e-06
9.65919e-06
9.58803e-06
1.00248e-05
9.07214e-06
9.81895e-06
9.24638e-06
9.62256e-06
9.91582e-06
9.98639e-06
9.75458e-06
9.70919e-06
9.92336e-06
9.76628e-06
8.52082e-06
4.50373e-06
9.60903e-06
3.63001e-06
9.94323e-06
9.91281e-06
9.55867e-06
6.79161e-06
9.73314e-06
2.89407e-06
9.92361e-06
9.17615e-06
1.75177e-06
7.945e-07
9.61316e-06
9.75582e-06
3.07157e-06
9.73945e-06
9.4638e-06
1.01907e-05
9.69625e-06
9.68545e-06
6.40804e-06
9.7367e-06
9.28273e-06
9.73204e-06
9.57826e-06
9.94679e-06
9.62547e-06
9.29628e-06
9.62842e-06
5.27186e-06
3.41216e-06
9.6341e-06
9.93935e-06
9.85745e-06
5.59262e-07
9.88211e-06
3.43787e-06
9.79885e-06
9.92888e-06
1.50983e-06
9.92272e-06
9.93618e-06
9.60515e-06
9.94334e-06
1.81095e-06
8.1221e-06
1.01406e-05
9.78292e-06
9.64184e-06
9.58275e-06
9.84094e-06
1.91978e-06
9.10413e-06
9.37118e-06
9.98797e-06
8.85376e-06
1.00441e-05
9.71853e-06
9.49138e-06
7.9726e-06
9.67501e-06
9.97293e-06
9.76616e-06
6.94413e-07
9.94417e-06
9.31311e-06
9.78426e-06
9.39616e-06
9.83573e-06
9.93033e-06
9.61885e-06
9.03554e-06
9.77245e-06
9.42622e-06
9.94038e-06
9.91629e-06
1.00245e-05
9.90553e-06
8.99068e-06
9.93561e-06
9.20915e-06
1.00066e-05
7.13364e-06
1.8714e-06
8.98879e-06
6.61668e-06
9.53668e-06
9.10967e-06
9.93306e-06
9.93081e-06
9.67794e-06
9.64203e-06
9.64208e-06
8.00248e-06
8.04464e-06
9.79355e-06
9.9723e-06
9.47482e-06
8.55676e-06
1.0002e-05
9.6663e-06
9.70367e-06
9.65879e-06
9.90478e-06
9.6363e-06
2.79528e-06
9.93521e-06
8.51366e-06
2.29479e-06
1.04209e-05
2.13816e-06
9.83662e-06
9.6792e-06
9.85519e-06
9.88362e-06
9.59619e-06
6.68148e-06
9.77093e-06
7.55963e-06
1.00405e-05
9.95274e-06
9.81079e-06
2.02905e-06
9.775e-06
5.69438e-06
9.85232e-06
9.76975e-06
7.76749e-06
9.68935e-06
5.31119e-06
8.85152e-06
9.63377e-06
9.77309e-06
1.00645e-05
1.04731e-06
1.17113e-06
9.71292e-06
9.60288e-06
9.78999e-06
9.78465e-06
5.3816e-06
9.51996e-06
2.81931e-07
7.3722e-07
9.72101e-06
9.9212e-06
9.95049e-06
8.70672e-06
9.81484e-06
9.99829e-06
2.68156e-06
9.99295e-06
1.0164e-05
9.93516e-06
1.6117e-06
9.75259e-06
9.81097e-06
1.64059e-06
9.89264e-06
9.8439e-06
9.63782e-06
8.72015e-06
1.00174e-05
6.59787e-07
9.78824e-06
9.93132e-06
9.86118e-06
9.93456e-06
3.01189e-06
2.8675e-06
9.43572e-06
9.9515e-06
9.92707e-06
9.80335e-06
9.93507e-06
9.65498e-06
8.64441e-06
9.96578e-06
9.84587e-06
9.74308e-06
1.00147e-05
8.88352e-06
9.90381e-06
9.62682e-06
9.74593e-06
2.13455e-06
9.9141e-06
9.82637e-06
9.81734e-06
9.89104e-06
9.82115e-06
9.97064e-06
9.83077e-06
6.13579e-06
3.00775e-06
9.94508e-06
9.92711e-06
8.57003e-06
8.69603e-06
9.99716e-06
9.91186e-06
9.8474e-06
9.57477e-06
9.80344e-06
9.62817e-06
9.84616e-06
9.87732e-06
1.00106e-05
9.02117e-06
8.74405e-06
9.77922e-06
9.74946e-06
1.00067e-05
7.81453e-06
9.7622e-06
9.87379e-06
9.53116e-06
9.73196e-06
9.85436e-06
9.89547e-06
1.00062e-05
9.90652e-06
8.46603e-06
9.63112e-06
9.94978e-06
9.92925e-06
9.86253e-06
2.57228e-06
9.82636e-06
9.82225e-06
9.81407e-06
9.79849e-06
9.94016e-06
9.96133e-06
8.61991e-06
9.81285e-06
8.55471e-06
9.55906e-06
9.64721e-06
8.36572e-06
8.87617e-07
9.87661e-06
9.80051e-06
9.64951e-06
1.01105e-05
9.89613e-06
1.0333e-05
8.65773e-06
1.00914e-05
9.84121e-06
9.58327e-06
8.10489e-06
3.33405e-06
1.01531e-05
1.13532e-06
1.01002e-05
9.93406e-06
9.95198e-06
9.91904e-06
8.41664e-06
9.94062e-06
1.0003e-05
9.90732e-06
8.49377e-06
9.90418e-06
9.14561e-06
9.93057e-06
8.00282e-06
9.2499e-06
9.92134e-06
9.37193e-06
7.86678e-06
9.90095e-06
7.80456e-06
1.03879e-05
1.0067e-05
1.00582e-05
9.94062e-06
8.60418e-06
1.03886e-05
9.92713e-06
7.12141e-06
9.7574e-06
1.03939e-05
9.93396e-06
9.93453e-06
9.90289e-06
9.60412e-06
9.88702e-06
9.79635e-06
9.48459e-06
7.88654e-06
9.90498e-06
9.90478e-06
7.90486e-06
1.00014e-05
9.83356e-06
8.4332e-06
6.30959e-06
1.00274e-05
3.66006e-06
9.89247e-06
9.93203e-06
9.93048e-06
1.00011e-05
1.01054e-05
9.93366e-06
9.8744e-06
9.94283e-06
8.03008e-06
7.89437e-06
4.39423e-06
9.86073e-06
9.14057e-06
7.49003e-06
9.90738e-06
9.77868e-06
9.90344e-06
9.94053e-06
9.88875e-06
8.87808e-06
9.94706e-06
9.90206e-06
1.00936e-05
9.93767e-06
8.99209e-07
9.60023e-06
9.94057e-06
2.46354e-06
6.4621e-06
8.36323e-06
5.44317e-07
9.84297e-06
9.83934e-06
9.90993e-06
8.51193e-06
9.94167e-06
9.93136e-06
2.17134e-06
5.0523e-06
8.67743e-06
9.94526e-06
9.88421e-06
9.87956e-06
8.51393e-06
9.63719e-06
9.96506e-06
9.99012e-06
9.93179e-06
8.00024e-06
9.87692e-06
8.34303e-06
6.57137e-06
9.72494e-06
9.613e-06
1.71362e-06
9.85745e-06
7.27449e-06
9.94219e-06
8.2818e-06
9.94915e-06
9.92309e-06
2.79514e-06
9.92167e-06
7.67615e-06
9.89621e-06
9.90849e-06
9.72213e-06
9.94008e-06
5.37703e-06
9.92375e-06
9.90099e-06
9.92194e-06
8.46531e-07
9.63813e-06
9.90165e-06
9.90167e-06
9.56133e-06
9.7965e-06
7.45001e-06
1.0354e-06
9.93433e-06
9.81014e-06
9.9868e-06
9.93821e-06
9.94146e-06
9.85997e-06
9.7253e-06
8.53485e-06
9.83384e-06
8.66507e-06
9.91993e-06
5.10289e-06
9.86183e-06
9.77341e-06
7.59648e-06
9.4941e-06
1.01322e-05
9.61484e-06
9.76669e-06
9.99579e-06
9.93219e-06
9.92128e-06
7.70151e-06
9.94031e-06
9.92718e-06
9.92629e-06
4.20334e-06
9.64753e-06
8.21006e-06
1.00981e-05
5.49149e-06
9.93881e-06
9.93971e-06
9.42691e-06
8.36614e-06
7.89344e-06
9.89639e-06
8.25999e-06
7.61625e-06
9.84095e-06
9.88622e-06
7.62815e-06
8.20104e-06
9.92807e-06
9.87251e-06
8.11263e-06
6.9484e-06
9.93908e-06
2.89872e-06
1.00394e-05
9.59931e-06
9.9126e-06
9.60879e-06
1.00686e-05
9.94068e-06
9.50105e-06
9.93971e-06
8.08855e-07
9.9298e-06
9.58944e-06
9.92451e-06
8.30297e-06
8.34665e-06
8.40885e-06
8.29494e-06
1.01091e-05
1.04141e-05
9.86427e-06
9.96002e-06
9.59048e-06
9.92886e-06
7.43148e-06
9.9305e-06
9.93566e-06
9.72478e-06
9.93678e-06
9.83275e-06
8.17008e-06
8.25968e-06
9.93087e-06
9.92996e-06
9.84432e-06
2.5722e-06
1.01002e-05
8.39927e-06
9.93636e-06
9.87232e-06
9.94019e-06
9.93964e-06
1.03467e-05
8.46969e-06
9.92702e-06
8.11083e-06
9.92426e-06
9.92951e-06
9.92856e-06
8.55014e-06
9.9305e-06
2.3548e-06
9.92769e-06
8.22162e-06
8.76483e-06
9.92628e-06
9.93032e-06
9.6224e-06
7.80185e-06
1.0136e-05
8.43844e-06
9.93277e-06
9.93339e-06
9.91596e-06
9.90638e-06
9.91449e-06
8.36056e-06
8.6111e-06
6.69221e-07
1.0168e-05
8.06841e-07
9.8294e-06
9.8613e-06
9.9086e-06
9.94084e-06
9.29705e-06
9.6181e-06
9.86425e-06
9.9368e-06
9.87722e-06
9.32492e-06
8.23136e-06
8.66767e-06
7.52689e-06
9.94271e-06
9.90873e-06
9.93008e-06
9.87838e-06
9.90567e-06
1.03593e-05
8.32025e-06
9.89464e-06
9.93272e-06
9.93152e-06
9.93104e-06
9.79525e-06
9.86177e-06
9.81787e-06
9.90207e-06
8.93936e-06
8.29333e-06
1.00526e-05
8.06462e-06
9.97066e-06
1.01016e-05
9.90643e-06
9.92884e-06
5.58326e-06
9.87868e-06
7.56436e-06
9.69398e-06
8.30278e-06
9.93578e-06
9.93435e-06
8.22635e-06
9.2726e-06
9.656e-06
8.25552e-06
9.76392e-06
9.93186e-06
9.94175e-06
7.72579e-06
8.17857e-06
1.0401e-05
9.8828e-06
8.49446e-06
9.90808e-06
9.92728e-06
1.03348e-05
8.80137e-06
9.89985e-06
9.91889e-06
9.93444e-06
9.93168e-06
9.90198e-06
9.66929e-06
9.92476e-06
9.93453e-06
9.96591e-06
9.91759e-06
1.01415e-05
9.91137e-06
3.19428e-06
9.93532e-06
8.21305e-06
9.92752e-06
8.25171e-06
9.90137e-06
9.93441e-06
1.03693e-05
9.96822e-06
1.01494e-05
9.93494e-06
9.91514e-06
1.04137e-05
9.90921e-06
9.92196e-06
9.94801e-06
9.93005e-06
9.90126e-06
9.55814e-06
7.9891e-06
9.91203e-06
9.93275e-06
9.93202e-06
9.88842e-06
1.10474e-06
7.58671e-06
9.93558e-06
1.01292e-05
9.93149e-06
9.93269e-06
9.93491e-06
9.93479e-06
8.06001e-06
8.19822e-06
9.94262e-06
9.24123e-06
6.40244e-06
9.93682e-06
7.41921e-06
9.88754e-06
9.88521e-06
7.94514e-06
1.03732e-05
9.94294e-06
9.9069e-06
9.93285e-06
9.90948e-06
9.9302e-06
9.93241e-06
9.93489e-06
9.94188e-06
9.58442e-06
9.86261e-06
8.06891e-06
8.22219e-06
9.93056e-06
9.93117e-06
9.90923e-06
7.3597e-06
7.96343e-06
9.87245e-06
9.9354e-06
9.93091e-06
7.45987e-06
9.90614e-06
1.03113e-05
9.93123e-06
8.13971e-06
9.40444e-06
9.94702e-06
9.94095e-06
8.5086e-07
9.93002e-06
9.94371e-06
9.93286e-06
9.93939e-06
9.93247e-06
7.4949e-06
9.937e-06
8.10429e-06
1.02739e-05
9.91252e-06
1.03266e-05
9.92526e-06
9.96752e-06
9.93925e-06
9.95252e-06
9.93025e-06
9.94345e-06
9.91926e-06
9.94233e-06
9.90928e-06
8.15111e-06
8.27248e-06
9.93671e-06
9.95816e-06
9.91166e-06
9.92919e-06
9.93413e-06
9.93341e-06
9.93598e-06
9.93497e-06
9.63422e-06
9.93181e-06
9.79578e-06
9.20827e-06
9.93778e-06
9.59439e-06
9.91706e-06
9.91171e-06
7.31593e-06
9.90302e-06
8.09019e-06
9.93313e-06
9.9096e-06
9.93786e-06
7.25157e-06
9.92288e-06
9.92964e-06
9.93839e-06
9.91051e-06
9.91923e-06
9.92336e-06
9.93552e-06
9.91132e-06
9.90963e-06
9.77071e-06
7.35484e-06
9.93974e-06
9.93406e-06
9.93253e-06
8.09386e-06
2.38044e-06
9.93367e-06
9.91936e-06
1.02064e-05
9.93975e-06
9.92352e-06
9.87705e-06
1.04257e-05
9.91831e-06
1.01335e-05
9.90294e-06
9.92979e-06
9.93807e-06
9.94549e-06
9.88189e-06
8.21724e-06
9.91013e-06
9.91846e-06
7.94596e-06
9.92065e-06
9.92611e-06
9.97285e-06
8.4444e-06
3.22479e-06
8.08604e-06
9.9383e-06
8.46971e-06
9.93479e-06
8.10707e-06
9.90945e-06
7.29587e-06
8.38458e-06
9.90506e-06
8.09271e-06
9.91149e-06
9.87753e-06
9.87943e-06
9.76124e-07
7.14745e-06
9.91702e-06
7.03879e-07
9.90957e-06
9.93965e-06
8.13017e-06
9.91021e-06
8.01593e-06
9.92853e-06
1.03195e-05
9.92752e-06
9.92796e-06
9.90243e-06
9.91609e-06
9.91977e-06
9.93372e-06
9.92924e-06
8.36001e-06
7.8433e-06
9.92918e-06
9.94136e-06
7.83245e-06
9.90079e-06
9.93193e-06
9.93508e-06
9.26834e-06
9.93457e-06
7.97909e-06
9.92531e-06
9.94534e-06
9.92696e-06
2.72837e-06
8.15858e-06
9.90877e-06
7.21e-06
9.90762e-06
4.90742e-06
9.90561e-06
1.01044e-05
9.93279e-06
9.92623e-06
9.91555e-06
7.87904e-06
9.91257e-06
9.91095e-06
9.92184e-06
9.93533e-06
9.93738e-06
9.9146e-06
9.91248e-06
8.24403e-06
7.25856e-06
9.93423e-06
9.92484e-06
9.88667e-06
7.9898e-06
9.90553e-06
1.03646e-05
1.03191e-05
9.91788e-06
9.91708e-06
9.90627e-06
1.00635e-05
7.83439e-06
7.9866e-06
9.90725e-06
9.65762e-06
9.90144e-06
9.90935e-06
9.93626e-06
9.92142e-06
9.91868e-06
9.92947e-06
9.92143e-06
7.39713e-06
9.92819e-06
9.89635e-06
7.82156e-06
9.9011e-06
9.93884e-06
9.90957e-06
9.92662e-06
9.92522e-06
7.86083e-06
9.92856e-06
9.89803e-06
7.15539e-06
9.92394e-06
9.92279e-06
7.89951e-06
9.90056e-06
7.84458e-06
9.9255e-06
9.93518e-06
9.91484e-06
7.99134e-06
9.93548e-06
9.92906e-06
9.91212e-06
9.87238e-06
7.45804e-06
7.81641e-06
9.91735e-06
9.90683e-06
9.93656e-06
9.90565e-06
9.89715e-06
9.94283e-06
9.95393e-06
9.90832e-06
9.90042e-06
7.92151e-06
9.91149e-06
9.91072e-06
9.9288e-06
9.87784e-06
9.91412e-06
8.07608e-06
7.71601e-06
9.86187e-06
7.92622e-06
9.90306e-06
9.92923e-06
9.9091e-06
9.90193e-06
9.91455e-06
7.72335e-06
9.93919e-06
8.10541e-06
9.9288e-06
7.07044e-06
9.91123e-06
9.634e-06
9.91092e-06
9.91745e-06
9.90851e-06
9.90658e-06
9.93098e-06
9.91374e-06
9.90601e-06
9.9162e-06
7.72255e-06
1.05139e-05
9.93652e-06
9.89284e-06
9.94187e-06
9.91137e-06
9.92362e-06
9.88596e-06
9.92279e-06
9.91897e-06
9.94408e-06
9.91023e-06
7.87116e-06
7.88634e-06
7.5505e-06
3.399e-06
9.91798e-06
9.91532e-06
9.89977e-06
7.78743e-06
9.89671e-06
9.88186e-06
7.10316e-06
8.00928e-06
7.93127e-06
7.9805e-06
9.92379e-06
8.2089e-06
9.91082e-06
2.78992e-06
9.91197e-06
9.91073e-06
9.8808e-06
9.91847e-06
1.8153e-06
9.9124e-06
9.89082e-06
9.88515e-06
9.9134e-06
9.91635e-06
9.91435e-06
7.76942e-06
9.88069e-06
9.90167e-06
6.99683e-07
9.91415e-06
9.90971e-06
9.93187e-06
9.9335e-06
9.93033e-06
9.88696e-06
9.92346e-06
9.92865e-06
9.88021e-06
9.92834e-06
9.90389e-06
9.93229e-06
9.91951e-06
9.86919e-06
7.73502e-06
9.89343e-06
9.91394e-06
9.92193e-06
9.92068e-06
9.91965e-06
9.9185e-06
9.90473e-06
9.94144e-06
7.62197e-06
9.88633e-06
1.0064e-05
9.90842e-06
7.51486e-06
9.93722e-06
9.88276e-06
7.61346e-06
7.63845e-06
9.91642e-06
7.78014e-06
9.90624e-06
7.8696e-06
9.40983e-06
6.99777e-06
7.61525e-06
9.90332e-06
1.87626e-06
9.90536e-06
9.93639e-06
7.66007e-06
9.91767e-06
7.40895e-06
9.88589e-06
9.93704e-06
9.92716e-06
9.89325e-06
7.74919e-06
7.80954e-06
9.93521e-06
9.9246e-06
7.86224e-06
7.78263e-06
7.69884e-06
7.66251e-06
9.91739e-06
7.76787e-06
9.91485e-06
7.61551e-06
9.91238e-06
9.91652e-06
7.41817e-06
7.71156e-06
7.67794e-06
7.56442e-06
9.91631e-06
9.91791e-06
9.92097e-06
7.19381e-06
9.91563e-06
9.89292e-06
2.72046e-06
9.85064e-06
9.89904e-06
7.04356e-06
6.89411e-06
9.91999e-06
7.38274e-06
7.50941e-06
9.30978e-06
9.908e-06
9.92423e-06
9.94694e-06
7.88072e-06
7.64404e-06
7.51455e-06
7.58344e-06
9.90554e-06
9.90441e-06
1.05574e-05
7.76342e-06
7.50405e-06
9.89983e-06
9.92371e-06
9.92529e-06
9.92663e-06
9.923e-06
7.67927e-06
9.90929e-06
7.77668e-06
9.92139e-06
7.63009e-06
7.56987e-06
9.92829e-06
9.6801e-06
9.92793e-06
1.05583e-05
9.90754e-06
9.9271e-06
9.9178e-06
9.92094e-06
7.58866e-06
7.75585e-06
9.91549e-06
9.92554e-06
7.53318e-06
7.68621e-06
9.92514e-06
7.36336e-06
7.39447e-06
9.9252e-06
7.40498e-06
7.44207e-06
7.57711e-06
9.90409e-06
9.91219e-06
9.91024e-06
7.43743e-06
7.89203e-06
9.90193e-06
7.52839e-06
7.38311e-06
7.57506e-06
9.93332e-06
9.90349e-06
7.46217e-06
9.90679e-06
6.83919e-06
9.90435e-06
1.02046e-05
9.92354e-06
7.30391e-06
7.28555e-06
7.3684e-06
9.93233e-06
7.3011e-06
7.47841e-06
7.54731e-06
6.88285e-06
7.4922e-06
6.82719e-06
6.73945e-06
7.35494e-06
7.67937e-06
6.77864e-06
7.54956e-06
7.31233e-06
7.65735e-06
9.89822e-06
7.47143e-06
7.20955e-06
7.27379e-06
7.19696e-06
6.65479e-06
9.9076e-06
7.10407e-06
7.97698e-06
7.24773e-06
7.17583e-06
9.94708e-06
7.32599e-06
7.32004e-06
9.88361e-06
7.37182e-06
9.89117e-06
9.92093e-06
6.68707e-06
6.57645e-06
7.21486e-06
7.5518e-06
7.09679e-06
7.32758e-06
7.36682e-06
9.92583e-06
6.50796e-06
7.06685e-06
7.09314e-06
9.91545e-06
7.47487e-06
6.34406e-06
7.52629e-06
7.13989e-06
7.26171e-06
7.25847e-06
6.39705e-06
6.79119e-06
6.99199e-06
6.88764e-06
6.98888e-06
6.78267e-06
6.95734e-06
6.35755e-06
6.32132e-06
6.77799e-06
9.92562e-06
7.0326e-06
7.15636e-06
7.08862e-06
7.26936e-06
6.8874e-06
6.26092e-06
6.23543e-06
7.21739e-06
7.03847e-06
6.23612e-06
6.89711e-06
7.00291e-06
6.88336e-06
7.11054e-06
6.92466e-06
6.94395e-06
9.9329e-06
6.84787e-06
7.2056e-06
6.56822e-06
6.86907e-06
7.05942e-06
7.13685e-06
6.99767e-06
7.16444e-06
6.13593e-06
7.23946e-06
6.42759e-06
6.98807e-06
6.73847e-06
7.04867e-06
7.21611e-06
6.94478e-06
6.73284e-06
7.05163e-06
6.64944e-06
6.43022e-06
6.12291e-06
6.83481e-06
6.77709e-06
6.81903e-06
6.81651e-06
7.10778e-06
6.99388e-06
6.72503e-06
6.92872e-06
6.7881e-06
7.00999e-06
7.03419e-06
6.02313e-06
6.90137e-06
7.00631e-06
9.93612e-06
6.67642e-06
6.62887e-06
6.66797e-06
6.93086e-06
6.75912e-06
6.70853e-06
6.19866e-06
7.05247e-06
6.32051e-06
6.06163e-06
5.96347e-06
9.88218e-06
9.92579e-06
5.91919e-06
6.68249e-06
6.66236e-06
6.90091e-06
6.51936e-06
6.55598e-06
6.79607e-06
6.64426e-06
6.75063e-06
6.67803e-06
6.54028e-06
6.66429e-06
6.82672e-06
6.66817e-06
6.59991e-06
6.5539e-06
7.21693e-06
5.99383e-06
6.40984e-06
6.59983e-06
5.89639e-06
5.8173e-06
6.43883e-06
6.73802e-06
6.72275e-06
6.77407e-06
6.69108e-06
6.70947e-06
6.69133e-06
6.22991e-06
5.85924e-06
6.30025e-06
6.4914e-06
6.49052e-06
5.71659e-06
6.32349e-06
6.08731e-06
6.61846e-06
6.38298e-06
6.53934e-06
6.53214e-06
6.35641e-06
6.39699e-06
6.25486e-06
6.28722e-06
6.55466e-06
6.63672e-06
6.33959e-06
6.19085e-06
5.66456e-06
6.46389e-06
6.21119e-06
6.74102e-06
6.11931e-06
6.38114e-06
6.27184e-06
6.48127e-06
6.58628e-06
6.17741e-06
6.51422e-06
6.2684e-06
6.3561e-06
6.11813e-06
1.14694e-06
5.61775e-06
6.33615e-06
6.27447e-06
6.43542e-06
5.77038e-06
6.17702e-06
5.45917e-06
6.46241e-06
5.56297e-06
1.17507e-06
6.08114e-06
6.4236e-06
5.52482e-06
6.22705e-06
6.1053e-06
6.1004e-06
6.40998e-06
6.74821e-06
6.16575e-06
6.16271e-06
4.73817e-06
6.42804e-06
6.04652e-06
6.11974e-06
5.44738e-06
6.05694e-06
6.211e-06
6.25209e-06
5.97174e-06
6.00181e-06
6.01062e-06
4.76042e-06
5.99085e-06
5.65117e-06
4.87731e-06
5.052e-06
6.15164e-06
6.30527e-06
6.37649e-06
5.86208e-06
6.05344e-06
5.59761e-06
5.94421e-06
5.94815e-06
6.00894e-06
5.69178e-06
5.89911e-06
6.22828e-06
4.51415e-06
5.10816e-06
5.37156e-06
5.79609e-06
6.20064e-06
6.31911e-06
5.79042e-06
6.11388e-06
5.88084e-06
5.77106e-06
6.16703e-06
5.94111e-06
6.00761e-06
5.75272e-06
6.44972e-06
5.18188e-06
5.73904e-06
5.8332e-06
5.90074e-06
4.56089e-06
5.83924e-06
5.8351e-06
5.90167e-06
5.21933e-06
6.1206e-06
6.09591e-06
5.17645e-06
5.90007e-06
5.33034e-06
5.78309e-06
5.73022e-06
5.27962e-06
5.4387e-06
6.10935e-06
5.82936e-06
5.93667e-06
5.64335e-06
5.40535e-06
5.99049e-06
5.08598e-06
5.66147e-06
5.88514e-06
5.90685e-06
5.74723e-06
5.95746e-06
6.03579e-06
5.29066e-06
6.00506e-06
5.84835e-06
5.46552e-06
5.72583e-06
5.61678e-06
5.07423e-06
5.72392e-06
5.53367e-06
5.46353e-06
5.62109e-06
5.6816e-06
6.06249e-06
4.99715e-06
5.721e-06
5.71704e-06
5.6158e-06
5.88529e-06
6.01337e-06
4.95419e-06
5.68039e-06
5.10945e-06
5.67649e-06
4.7368e-06
4.95533e-06
4.62544e-06
5.41713e-06
5.57247e-06
5.44167e-06
5.42425e-06
5.55141e-06
5.21111e-06
5.60773e-06
5.1735e-06
5.4418e-06
5.51218e-06
5.70354e-06
5.50784e-06
5.79607e-06
5.58705e-06
5.77989e-06
5.40331e-06
5.85246e-06
5.9022e-06
4.77244e-06
4.51402e-06
5.35636e-06
4.73135e-06
5.35106e-06
5.3148e-06
5.19907e-06
5.49197e-06
5.68383e-06
5.67429e-06
4.87564e-06
5.39881e-06
5.28986e-06
4.85023e-06
5.55861e-06
4.66138e-06
5.29428e-06
5.35444e-06
5.57505e-06
4.64837e-06
5.30064e-06
5.46066e-06
4.99806e-06
5.38486e-06
4.64037e-06
5.20516e-06
5.56885e-06
5.5708e-06
5.22177e-06
4.62329e-06
5.31407e-06
5.60313e-06
5.1159e-06
5.36323e-06
5.79234e-06
5.64275e-06
4.509e-06
4.55377e-06
5.4734e-06
5.18527e-06
5.09576e-06
5.18094e-06
4.82847e-06
5.2474e-06
4.5316e-06
5.33202e-06
5.33197e-06
5.31298e-06
5.28324e-06
5.41554e-06
5.33279e-06
4.9223e-06
4.53298e-06
5.0762e-06
5.46356e-06
5.192e-06
5.43012e-06
5.48378e-06
5.02003e-06
5.35591e-06
4.39281e-06
4.98606e-06
5.37441e-06
5.07183e-06
5.00126e-06
4.96285e-06
4.39628e-06
4.80931e-06
5.265e-06
5.24105e-06
4.967e-06
5.02755e-06
5.03067e-06
4.81088e-06
5.0379e-06
5.11193e-06
5.25229e-06
5.24587e-06
4.29867e-06
5.1007e-06
4.91839e-06
4.87656e-06
4.89197e-06
4.24762e-06
4.94055e-06
4.85817e-06
4.85402e-06
4.27765e-06
4.76699e-06
4.97117e-06
4.54611e-06
4.45075e-06
4.28662e-06
5.03396e-06
4.47826e-06
4.74928e-06
4.43706e-06
5.13838e-06
5.25135e-06
4.82761e-06
4.86567e-06
4.3379e-06
4.6569e-06
4.19249e-06
4.78242e-06
5.08477e-06
4.81967e-06
4.53355e-06
5.02945e-06
3.96758e-06
4.72668e-06
5.02956e-06
4.86851e-06
4.7015e-06
4.73831e-06
4.74501e-06
4.63609e-06
4.09021e-06
4.51768e-06
5.05282e-06
4.64023e-06
4.92056e-06
4.67207e-06
4.59224e-06
4.15257e-06
4.92448e-06
4.58299e-06
3.98758e-06
4.06929e-06
5.02085e-06
5.13801e-06
4.53118e-06
4.75653e-06
4.63624e-06
5.13132e-06
3.88279e-06
4.53613e-06
4.85262e-06
4.6507e-06
4.69255e-06
4.7002e-06
4.97247e-06
4.64354e-06
3.8913e-06
4.56088e-06
4.47316e-06
3.95309e-06
4.72141e-06
4.86139e-06
4.82508e-06
3.86684e-06
4.50824e-06
4.42213e-06
4.34116e-06
4.482e-06
4.41792e-06
4.91712e-06
4.72364e-06
4.41025e-06
4.04208e-06
4.68486e-06
4.37295e-06
3.76933e-06
4.78139e-06
4.64602e-06
4.36296e-06
4.77108e-06
4.6449e-06
4.40121e-06
3.72607e-06
4.52712e-06
4.42653e-06
3.85202e-06
4.39919e-06
4.42405e-06
4.3273e-06
4.60297e-06
4.3133e-06
4.3784e-06
4.30926e-06
4.37498e-06
3.87242e-06
3.75007e-06
4.2045e-06
3.648e-06
4.45853e-06
3.98698e-06
3.87871e-06
3.82855e-06
4.25282e-06
3.7568e-06
4.15222e-06
4.25571e-06
4.51218e-06
4.59414e-06
3.64397e-06
4.09591e-06
4.20054e-06
3.86285e-06
4.6291e-06
4.37349e-06
4.4629e-06
3.77801e-06
4.217e-06
4.14273e-06
4.13493e-06
4.15569e-06
4.20491e-06
4.35542e-06
4.41038e-06
4.1445e-06
3.52983e-06
4.55876e-06
3.76973e-06
4.09129e-06
3.62167e-06
3.85703e-06
4.03211e-06
3.97226e-06
4.18912e-06
4.30169e-06
4.32787e-06
3.98609e-06
3.53661e-06
4.4723e-06
4.01586e-06
3.98164e-06
3.54699e-06
3.93045e-06
3.0773e-06
4.04696e-06
3.66186e-06
3.87778e-06
3.80296e-06
3.40806e-06
4.15847e-06
4.3503e-06
3.92121e-06
3.65447e-06
4.01076e-06
3.93859e-06
4.05058e-06
3.99916e-06
4.15175e-06
3.18565e-06
3.89679e-06
3.94191e-06
3.76653e-06
3.30712e-06
3.28926e-06
3.81032e-06
3.98656e-06
3.78716e-06
3.68394e-06
3.83326e-06
3.92379e-06
3.78274e-06
3.89863e-06
4.04335e-06
3.77689e-06