/*--------------------------------*- C++ -*----------------------------------*\
  =========                 |
  \\      /  F ield         | OpenFOAM: The Open Source CFD Toolbox
   \\    /   O peration     | Website:  https://openfoam.org
    \\  /    A nd           | Version:  8
     \\/     M anipulation  |
\*---------------------------------------------------------------------------*/
FoamFile
{
    version     2.0;
    format      ascii;
    class       volScalarField;
    location    "2.8";
    object      p;
}
// * * * * * * * * * * * * * * * * * * * * * * * * * * * * * * * * * * * * * //

dimensions      [0 2 -2 0 0 0 0];

internalField   nonuniform List<scalar> 
4320
(
3.83521e-06
9.91858e-07
3.67567e-06
1.4547e-05
1.45642e-05
2.67962e-06
1.45649e-06
7.88136e-06
1.27146e-05
1.36416e-06
3.15938e-06
8.49012e-06
3.01147e-06
5.86135e-06
1.35859e-05
4.24083e-06
9.2689e-06
1.47285e-05
3.31143e-06
3.92828e-06
3.61843e-06
6.70479e-06
1.43147e-05
3.41659e-06
9.31031e-06
9.7224e-06
9.01366e-06
9.93669e-06
3.5502e-06
1.45834e-05
1.1062e-05
8.37423e-06
5.57547e-06
8.00946e-06
1.80002e-06
1.26871e-06
3.46357e-06
9.19415e-07
1.43181e-05
4.62194e-06
5.13995e-06
1.09251e-05
1.44925e-05
1.00808e-05
1.41331e-05
1.04812e-05
1.41158e-07
5.97363e-06
1.3911e-05
4.71392e-06
3.1362e-06
3.55983e-06
1.45651e-05
1.3791e-05
1.2489e-05
7.96336e-06
1.49116e-06
7.84375e-06
1.32544e-08
1.45455e-05
3.7729e-06
2.04881e-06
2.34733e-06
4.39847e-06
1.45562e-05
3.26963e-06
1.45062e-05
2.78088e-06
6.54131e-06
7.84462e-07
7.44225e-06
9.10638e-06
9.93321e-06
1.12828e-05
5.02648e-06
7.18692e-06
1.13644e-06
1.39149e-05
1.45467e-05
1.45139e-05
2.7567e-06
6.80147e-06
1.00371e-05
8.99837e-06
1.4553e-05
1.73177e-06
1.45582e-05
4.76378e-06
1.44521e-05
8.25064e-06
1.43092e-05
2.6311e-06
1.40235e-05
1.45493e-05
4.07948e-06
2.51538e-06
1.01768e-05
4.08574e-06
9.28698e-06
1.37708e-05
1.45608e-05
5.34245e-06
2.48084e-06
5.9289e-06
3.81083e-07
1.03077e-05
1.08088e-05
1.4578e-05
1.41605e-05
8.85478e-06
1.48434e-05
3.88514e-06
1.10518e-05
4.19266e-06
1.00492e-05
1.56849e-06
1.39126e-05
1.35748e-05
1.45742e-05
5.42366e-07
1.10168e-05
9.77014e-06
1.49929e-06
1.38435e-05
5.28836e-06
4.97673e-06
2.98371e-06
5.50643e-06
1.00835e-05
8.13006e-06
1.11876e-05
7.21418e-06
3.99326e-06
6.08665e-06
1.42631e-05
1.45482e-05
3.36126e-06
1.45539e-05
5.55293e-06
1.45783e-05
2.47273e-06
2.37927e-06
1.83828e-07
7.7021e-08
1.42338e-05
1.11855e-05
6.2495e-06
1.45291e-05
5.52505e-06
2.69685e-07
4.55703e-06
5.74817e-07
1.40074e-05
1.37872e-05
2.38262e-06
1.8235e-06
1.42601e-05
1.38638e-05
1.45368e-05
2.19578e-06
1.45655e-05
9.74724e-06
8.20655e-07
1.33719e-06
1.03702e-05
1.93368e-06
9.42405e-06
1.39378e-05
1.17619e-05
1.18332e-05
5.68967e-06
2.5652e-06
1.51107e-06
9.22394e-07
1.45676e-05
1.41065e-05
1.43019e-05
1.12376e-05
1.11184e-05
2.77346e-06
1.43026e-05
1.14501e-05
1.43507e-05
1.4607e-05
1.37974e-05
1.35731e-05
1.45695e-05
6.27718e-07
3.83841e-06
1.43007e-05
1.55196e-06
7.01532e-06
1.43997e-05
1.78042e-06
1.45952e-05
1.06452e-05
9.84511e-06
1.30313e-06
2.51118e-06
4.87019e-06
1.43187e-05
4.21612e-06
9.15598e-06
6.39931e-06
1.18878e-05
1.0187e-05
1.54963e-06
1.45632e-05
1.17142e-05
1.45756e-05
5.92451e-06
1.45585e-05
1.4174e-05
1.45678e-05
1.45611e-05
1.45687e-05
1.45568e-05
1.45618e-05
1.44724e-05
1.40551e-05
1.45736e-05
2.67703e-06
1.45447e-05
1.21143e-05
9.86902e-06
1.43774e-05
1.38496e-05
1.32987e-05
1.43e-05
1.48561e-05
1.13172e-05
1.39195e-05
9.1205e-06
6.12481e-06
1.09115e-05
1.45339e-05
1.07884e-05
4.9023e-06
2.04939e-06
6.37293e-06
1.41269e-05
1.38e-05
1.24356e-05
3.78063e-06
3.03631e-06
1.65347e-07
1.44233e-05
1.45354e-05
5.80376e-06
4.74733e-06
9.79493e-06
7.53112e-07
8.11599e-06
9.17202e-06
9.03908e-06
3.1998e-06
1.45648e-05
1.26875e-06
9.81838e-06
8.64322e-07
2.80618e-06
1.3831e-05
6.44127e-06
6.17065e-06
1.45001e-05
5.18369e-06
1.45669e-05
1.32157e-06
1.34946e-05
1.45319e-05
6.59816e-06
1.457e-05
2.5071e-06
9.92549e-06
1.44349e-05
1.00013e-05
1.45252e-05
7.13343e-06
1.45468e-05
1.45716e-05
1.45451e-05
1.12911e-05
9.42379e-06
1.45123e-05
7.16378e-06
1.04066e-05
1.02269e-05
1.45432e-05
8.90255e-06
1.36927e-05
9.0392e-06
7.14461e-06
1.45623e-05
1.76023e-06
1.4233e-05
1.42444e-06
9.8985e-06
1.23249e-06
1.1498e-05
1.12133e-05
1.45661e-05
7.36475e-06
5.16049e-06
1.81126e-06
6.05825e-06
1.3885e-05
7.30773e-06
1.19206e-06
5.06142e-06
2.3626e-06
3.89083e-06
8.9045e-06
1.37128e-05
1.42287e-05
6.90354e-06
1.44583e-06
1.45339e-05
8.62244e-06
1.38709e-05
3.94891e-06
1.07652e-05
1.45683e-05
1.44572e-05
1.45739e-05
1.08702e-05
1.45797e-05
1.11683e-05
1.40975e-05
1.37976e-05
1.12296e-06
6.29246e-06
4.62723e-06
6.99341e-06
1.45634e-05
1.39767e-05
1.14664e-05
1.36565e-05
1.45535e-05
9.85004e-06
1.45244e-05
9.5555e-06
1.14472e-05
8.15452e-06
1.37466e-05
1.37341e-05
1.45808e-05
1.44634e-05
1.42357e-05
1.39484e-05
1.45428e-05
1.05365e-05
8.9466e-06
1.45534e-05
1.29392e-05
8.28735e-06
1.40323e-05
1.05664e-05
1.16261e-05
9.2179e-06
6.6579e-06
1.39536e-05
1.0603e-05
7.84311e-06
1.34981e-05
1.17222e-05
1.86813e-06
1.45599e-05
1.45816e-05
1.44463e-05
7.69333e-06
5.66984e-06
1.40456e-05
9.46605e-06
1.41956e-05
1.23603e-05
1.44848e-05
4.37137e-07
7.20901e-06
1.45461e-05
1.02261e-05
1.45597e-05
1.32046e-05
1.41944e-05
1.13043e-05
1.4292e-05
1.13969e-05
1.45645e-05
1.45418e-05
1.07213e-06
1.4561e-05
9.8701e-07
1.44683e-05
1.455e-05
1.4547e-05
1.06649e-05
1.45664e-05
4.36198e-06
1.28653e-05
1.16916e-05
8.76889e-06
1.34023e-05
1.38077e-05
1.39086e-05
1.45783e-05
1.45662e-05
1.30617e-05
1.15225e-05
8.46787e-06
1.10823e-06
8.85304e-06
1.24568e-05
1.4079e-05
1.38563e-05
1.45278e-05
1.11564e-05
1.45444e-05
6.88659e-06
1.46372e-05
1.36041e-05
1.3444e-05
6.61828e-07
1.45403e-05
1.11965e-05
1.4509e-05
3.5512e-06
1.40561e-05
1.27287e-05
1.38832e-05
1.45595e-05
1.471e-05
1.44327e-05
9.0275e-06
1.45466e-05
1.44e-05
1.36473e-05
1.45511e-05
1.15393e-05
1.19532e-06
9.18691e-06
1.43857e-05
6.04547e-06
1.45148e-05
1.42728e-05
1.45624e-05
1.16863e-05
1.45188e-05
9.10286e-06
1.43629e-05
1.12326e-05
1.36817e-05
1.16871e-05
1.42796e-05
1.45531e-05
1.07295e-05
1.39699e-05
1.45688e-05
1.13411e-05
1.3536e-05
1.47195e-05
1.45622e-05
1.45078e-05
1.42876e-05
1.39956e-05
1.12293e-05
1.3425e-05
7.68951e-06
1.07316e-05
1.43778e-05
1.39833e-05
1.45679e-05
1.11006e-05
1.43274e-05
1.3851e-05
1.37531e-05
1.07658e-05
6.11622e-06
7.67765e-06
1.4322e-05
1.29472e-05
1.45645e-05
9.77963e-06
1.45546e-05
9.3295e-06
1.45612e-05
1.44795e-05
1.40704e-05
1.12603e-05
1.14444e-05
1.46926e-05
1.06859e-05
1.3798e-05
1.4541e-05
1.09436e-05
1.4257e-05
1.50685e-05
1.42892e-05
1.01507e-05
1.42337e-05
1.44962e-05
1.40746e-05
1.3802e-05
1.25915e-05
8.99174e-06
1.40962e-05
1.36363e-05
8.62416e-06
7.3198e-06
1.09212e-05
7.48753e-06
1.44956e-05
8.51831e-06
1.42004e-05
1.8608e-06
1.2638e-05
3.31e-06
3.2718e-06
1.06394e-06
1.11833e-06
1.24857e-05
1.43162e-05
9.68884e-06
1.45427e-05
9.76292e-06
1.45363e-05
1.38585e-05
1.44334e-05
1.39756e-05
1.27678e-05
8.89366e-07
1.39694e-05
1.43321e-05
1.40145e-05
1.4562e-05
1.12603e-05
1.43936e-05
1.10284e-05
1.46452e-05
1.94725e-06
1.45017e-05
1.08481e-05
1.45546e-05
1.0657e-05
1.33801e-05
1.4579e-05
1.42863e-05
1.72556e-06
1.12947e-05
1.41891e-05
1.44919e-05
1.4225e-05
1.42361e-05
1.45614e-05
1.40842e-05
1.4512e-05
1.35707e-06
1.36585e-05
1.09476e-05
8.00056e-06
1.4335e-05
1.45423e-05
1.02562e-05
2.59733e-06
1.45677e-05
1.43155e-05
1.08906e-05
8.56014e-06
1.3329e-05
1.44439e-05
1.45169e-05
1.09313e-05
1.41673e-05
1.45642e-05
1.43887e-05
1.43602e-05
1.44354e-05
1.09341e-05
1.4562e-05
1.4506e-05
1.45213e-05
1.43671e-05
1.11018e-05
1.44554e-05
1.43e-05
1.12595e-05
1.45565e-05
1.41517e-05
1.41024e-05
1.08005e-05
1.45486e-05
1.42892e-05
1.08577e-05
1.03417e-05
1.44122e-05
3.11044e-06
1.45538e-05
1.43727e-05
9.51676e-07
1.04878e-05
1.42091e-05
1.10884e-05
1.45711e-05
1.42259e-05
1.45481e-05
1.4303e-05
1.43924e-05
1.41778e-05
1.45198e-05
1.4415e-05
1.45699e-05
1.45802e-05
8.71489e-06
1.43422e-05
1.08282e-05
1.02974e-05
1.71292e-06
1.44805e-05
1.45532e-05
1.4563e-05
1.4759e-05
1.45561e-05
1.45184e-05
1.43342e-05
1.42278e-05
8.19659e-06
1.45576e-05
7.46961e-06
1.45156e-05
1.46436e-05
1.45599e-05
1.40684e-05
5.0138e-06
9.96805e-06
1.10845e-05
7.02929e-06
1.45681e-05
1.40189e-05
1.45075e-05
1.4472e-05
1.45301e-05
1.45565e-05
1.20748e-05
1.41179e-05
1.07164e-05
8.16143e-07
1.51964e-06
1.4623e-05
1.45201e-05
3.54024e-06
1.06861e-05
1.43691e-05
1.58931e-06
1.36232e-05
1.45616e-05
1.36909e-05
1.04922e-05
1.45409e-05
8.40366e-06
9.655e-06
1.47035e-05
4.85876e-06
1.45618e-05
9.95368e-06
1.09386e-05
1.45535e-05
1.45778e-05
1.04735e-05
1.46458e-05
1.01021e-05
1.43822e-05
1.45243e-05
1.45535e-05
1.47102e-05
1.41959e-05
1.44104e-05
1.03444e-05
1.4552e-05
1.44299e-05
1.4569e-05
9.73892e-06
1.44552e-05
1.35931e-05
1.07563e-05
1.05988e-05
1.45462e-05
1.43934e-05
1.45358e-05
1.45271e-05
1.44525e-05
1.45437e-05
1.4562e-05
1.05964e-05
1.44405e-05
1.4495e-05
1.06945e-05
1.37287e-05
1.45667e-05
1.45434e-05
1.45592e-05
1.4601e-05
1.42849e-05
1.08125e-05
1.47044e-05
1.45398e-05
1.45338e-05
1.4558e-05
1.4535e-05
1.45541e-05
1.39445e-05
1.45565e-05
1.36639e-05
1.4928e-05
5.06793e-06
1.45306e-05
1.32113e-05
1.03777e-05
1.45263e-05
1.09674e-05
1.45581e-05
1.44929e-05
1.45239e-05
1.0544e-05
1.43647e-05
9.77536e-06
1.45597e-05
8.25704e-06
1.472e-05
1.44182e-05
8.9812e-06
1.45749e-05
1.44559e-05
1.45559e-05
1.45764e-05
1.45306e-05
1.47228e-05
1.45871e-05
1.03751e-05
1.46006e-05
1.44938e-05
2.66864e-06
3.22503e-06
1.47838e-05
1.48483e-05
1.42561e-05
9.97549e-06
1.45608e-05
1.4562e-05
1.38278e-05
1.03444e-05
1.45563e-05
1.45367e-05
2.76381e-06
8.31035e-06
1.44983e-05
1.46894e-05
1.45286e-05
1.02434e-05
1.03938e-05
1.02503e-05
1.03627e-05
1.42877e-05
1.4449e-05
1.45747e-05
9.84631e-06
1.06581e-05
1.41263e-06
1.02502e-05
1.478e-05
1.45528e-05
1.45567e-05
1.45439e-05
2.60621e-06
1.43276e-05
1.02805e-05
1.07396e-05
3.68559e-06
1.43376e-05
1.46548e-05
1.45241e-05
1.03682e-05
1.45528e-05
1.00698e-05
1.09252e-05
1.46222e-05
1.45439e-05
1.47452e-05
1.45522e-05
1.44706e-05
1.45318e-05
1.2933e-05
1.45575e-05
9.96138e-06
1.03161e-05
1.47911e-05
1.48052e-05
1.04938e-05
1.45368e-05
1.00868e-05
1.06127e-05
1.00547e-05
1.45644e-05
1.45387e-05
1.45526e-05
1.45607e-05
1.64595e-06
1.45078e-05
1.45542e-05
1.45645e-05
9.7051e-06
1.45293e-05
1.41957e-05
1.46982e-05
1.45257e-05
1.45282e-05
1.45256e-05
1.45723e-05
1.43996e-05
1.45601e-05
1.29075e-06
1.45321e-05
1.4548e-05
1.01382e-05
1.4523e-05
1.4547e-05
1.03295e-05
1.00522e-05
1.04206e-05
9.10553e-06
1.45532e-05
1.41358e-05
1.44553e-05
1.45574e-05
1.01587e-05
1.45745e-05
1.44989e-05
1.04137e-05
1.00543e-05
1.45496e-05
1.45604e-05
8.2916e-06
1.03225e-05
1.01867e-05
1.45488e-05
9.96634e-06
1.45556e-05
1.45569e-05
1.45674e-05
1.02515e-05
1.45558e-05
1.44936e-05
1.45424e-05
1.01693e-05
1.4558e-05
2.83013e-06
1.45456e-05
1.44389e-05
1.4549e-05
1.45502e-05
1.45585e-05
1.45531e-05
1.45074e-05
1.45492e-05
1.45639e-05
1.45104e-05
1.45596e-05
1.45428e-05
1.44969e-05
1.45084e-05
1.45575e-05
1.46865e-05
9.59737e-06
1.45099e-05
1.4479e-05
1.45504e-05
1.01899e-05
9.8768e-06
1.45405e-05
1.45118e-05
1.45496e-05
1.4541e-05
1.47125e-05
1.45647e-05
1.44751e-05
1.01847e-05
1.45539e-05
1.45446e-05
1.45476e-05
1.45831e-05
1.01723e-05
1.4551e-05
1.45536e-05
1.04845e-05
1.352e-05
1.44801e-05
9.71494e-06
1.45951e-05
1.45128e-05
9.84477e-06
1.02465e-05
1.45251e-05
1.45826e-05
1.45457e-05
1.45562e-05
1.05214e-05
1.45109e-05
1.4519e-05
1.45209e-05
1.45331e-05
9.96437e-06
1.45265e-05
1.4524e-05
1.00223e-05
1.45653e-05
1.45497e-05
9.67572e-06
1.44974e-05
1.45259e-05
1.02887e-05
1.454e-05
1.01036e-05
1.44137e-05
9.74868e-06
1.45613e-05
1.43765e-05
1.45655e-05
1.45709e-05
9.40082e-06
1.4531e-05
1.47436e-05
1.45278e-05
1.4564e-05
9.86653e-06
1.00647e-05
1.4535e-05
1.00478e-05
1.45583e-05
9.69886e-06
9.62411e-06
9.85061e-06
1.45697e-05
1.45579e-05
1.44834e-05
1.45359e-05
1.45415e-05
1.45355e-05
9.90033e-06
9.80956e-06
1.45043e-05
1.00028e-05
1.01439e-05
9.72098e-06
9.55048e-06
1.45371e-05
1.44571e-05
1.03838e-05
1.47353e-05
1.45299e-05
1.45356e-05
1.45497e-05
9.80613e-06
1.45331e-05
1.4522e-05
1.0195e-05
1.4557e-05
8.72102e-06
1.45497e-05
1.45493e-05
2.99871e-06
1.45069e-05
1.45175e-05
1.45344e-05
1.4558e-05
1.45367e-05
9.50058e-06
9.7122e-06
1.45132e-05
1.0055e-05
1.45524e-05
1.45496e-05
1.4585e-05
1.45248e-05
1.40521e-05
9.19486e-06
1.44643e-05
1.44725e-05
9.91985e-06
9.59074e-06
9.69961e-06
1.38064e-05
1.4527e-05
1.45515e-05
9.61687e-06
9.61438e-06
1.45643e-05
9.50003e-06
9.39457e-06
9.29595e-06
1.45479e-05
1.45423e-05
1.46312e-05
9.77447e-06
8.7956e-06
6.49336e-06
1.45586e-05
1.44929e-05
1.4561e-05
9.34577e-06
1.45154e-05
9.39589e-06
1.45415e-05
4.33567e-06
4.43213e-06
1.45369e-05
9.26709e-06
9.31164e-06
1.45555e-05
9.4063e-06
9.29733e-06
9.16642e-06
8.99767e-06
1.45365e-05
9.13829e-06
1.4938e-05
9.24884e-06
9.49398e-06
1.44999e-05
1.45456e-05
9.14053e-06
9.11243e-06
9.24508e-06
9.36895e-06
9.15738e-06
1.06244e-05
9.24491e-06
9.3379e-06
9.05667e-06
9.24977e-06
1.45202e-05
8.98919e-06
9.16126e-06
9.20282e-06
9.23351e-06
8.82176e-06
9.48461e-06
9.07594e-06
1.47135e-05
1.4526e-05
1.49217e-05
1.01701e-05
8.89136e-06
8.81253e-06
9.32441e-06
1.0436e-05
8.71191e-06
9.04574e-06
8.85665e-06
8.98327e-06
8.92611e-06
9.12068e-06
9.05352e-06
9.1418e-06
9.13198e-06
8.04642e-06
9.38828e-06
8.90301e-06
9.03681e-06
8.68303e-06
3.58093e-06
8.77824e-06
1.41707e-05
8.18774e-06
8.54733e-06
1.46447e-05
8.49817e-06
8.75064e-06
1.49215e-05
8.69048e-06
9.14728e-06
9.91571e-06
8.38664e-06
8.8423e-06
8.97366e-06
8.29932e-06
8.8622e-06
8.75844e-06
8.63669e-06
8.98622e-06
8.58721e-06
8.20087e-06
7.85506e-06
7.96492e-06
1.45427e-05
8.37377e-06
7.70801e-06
8.44843e-06
8.66374e-06
9.01847e-06
8.3728e-06
8.54494e-06
8.28637e-06
6.3725e-06
7.76529e-06
7.98744e-06
8.83647e-06
8.34927e-06
8.96731e-06
7.15803e-06
8.31327e-06
7.88677e-06
8.30005e-06
9.27983e-06
8.11242e-06
4.19169e-06
8.21937e-06
7.51639e-06
8.15625e-06
8.10573e-06
8.33886e-06
8.50352e-06
7.65292e-06
7.92869e-06
7.35879e-06
8.14785e-06
7.16137e-06
8.24697e-06
7.49413e-06
8.1483e-06
7.85871e-06
7.03477e-06
7.66114e-06
8.14778e-06
7.98212e-06
7.58292e-06
7.98832e-06
7.96916e-06
7.833e-06
8.00832e-06
8.24123e-06
8.04929e-06
8.05377e-06
7.69256e-06
7.97936e-06
8.49494e-06
8.00935e-06
7.89518e-06
8.46142e-06
7.83426e-06
7.59204e-06
8.2757e-06
8.01263e-06
7.81834e-06
7.97165e-06
7.77501e-06
7.68438e-06
8.62062e-06
7.58985e-06
8.11527e-06
7.60789e-06
7.69416e-06
8.76951e-06
7.78199e-06
7.74031e-06
7.75542e-06
8.0417e-06
7.82633e-06
7.67632e-06
7.51092e-06
7.52944e-06
7.34062e-06
7.61354e-06
7.77424e-06
7.74281e-06
7.83191e-06
8.18988e-06
7.37416e-06
7.30678e-06
8.13581e-06
7.49912e-06
7.37747e-06
7.02203e-06
7.44191e-06
7.25717e-06
7.86263e-06
6.99882e-06
7.45517e-06
7.6779e-06
8.24649e-06
7.48829e-06
7.60086e-06
7.90394e-06
7.15284e-06
7.22664e-06
7.30501e-06
7.4511e-06
7.03208e-06
7.0579e-06
7.14359e-06
8.24195e-06
7.05207e-06
7.07554e-06
7.18526e-06
7.12165e-06
7.34312e-06
6.91561e-06
6.56094e-06
6.89782e-06
7.20946e-06
6.86214e-06
6.92885e-06
6.92459e-06
7.06352e-06
7.63546e-06
7.07146e-06
7.21977e-06
6.35505e-06
7.20435e-06
6.92531e-06
6.77802e-06
6.74121e-06
7.18673e-06
6.99493e-06
1.86275e-06
1.94735e-06
7.00235e-06
6.53994e-06
6.84513e-06
6.9443e-06
6.72637e-06
7.30529e-06
6.80547e-06
6.81334e-06
6.12565e-06
6.68919e-06
6.80813e-06
6.55556e-06
6.60612e-06
7.20209e-06
7.03645e-06
6.87545e-06
6.61038e-06
7.01478e-06
5.59377e-06
6.80372e-06
5.90889e-06
6.78927e-06
6.4003e-06
6.49266e-06
7.05509e-06
6.32824e-06
7.51932e-06
5.78671e-06
6.72353e-06
6.46985e-06
6.55819e-06
6.40633e-06
6.62998e-06
6.62298e-06
6.49224e-06
5.91496e-06
5.74741e-06
6.31021e-06
6.37701e-06
6.61346e-06
5.82419e-06
6.07921e-06
6.18242e-06
6.39164e-06
6.06612e-06
6.23732e-06
6.33395e-06
6.17812e-06
6.01714e-06
6.45182e-06
6.24585e-06
6.20564e-06
6.27145e-06
6.37136e-06
6.07151e-06
7.29239e-06
6.71622e-06
6.4072e-06
6.04662e-06
6.09511e-06
6.69137e-06
6.05867e-06
6.12471e-06
6.07295e-06
6.257e-06
5.43039e-06
6.05093e-06
6.2834e-06
5.98226e-06
5.95357e-06
5.68567e-06
6.01315e-06
5.58735e-06
5.82735e-06
6.43865e-06
5.49159e-06
6.18753e-06
5.83049e-06
5.57583e-06
5.85626e-06
5.97731e-06
6.13653e-06
5.92268e-06
5.67158e-06
5.84066e-06
5.80929e-06
6.05526e-06
5.78962e-06
5.86089e-06
5.98326e-06
5.71821e-06
5.67714e-06
5.68027e-06
5.47999e-06
6.66922e-06
5.04192e-06
5.89942e-06
4.74911e-06
4.52058e-06
6.15678e-06
6.23642e-06
5.84325e-06
3.68974e-06
5.71626e-06
4.57372e-06
4.73611e-06
5.06844e-06
5.15396e-06
5.51572e-06
3.29219e-06
5.24712e-06
5.7468e-06
5.41691e-06
4.12373e-06
4.90794e-06
5.21458e-06
5.52843e-06
5.56079e-06
3.53557e-06
6.42296e-06
3.38398e-06
5.74549e-06
5.5936e-06
5.58689e-06
3.17038e-06
6.68999e-06
4.81245e-06
4.41265e-06
5.42742e-06
5.45624e-06
5.59641e-06
5.36727e-06
3.83016e-06
3.79904e-06
4.99843e-06
4.68426e-06
5.28614e-06
5.36439e-06
3.95524e-06
5.15254e-06
5.58602e-06
5.43134e-06
4.29015e-06
5.41835e-06
5.30369e-06
3.64699e-06
5.23593e-06
5.38915e-06
5.91851e-06
5.66956e-06
5.54967e-06
4.77078e-06
5.43583e-06
5.2622e-06
5.27595e-06
4.90224e-06
5.31062e-06
4.18503e-06
5.24575e-06
5.22989e-06
4.85376e-06
4.99017e-06
5.20537e-06
4.28749e-06
5.43711e-06
5.19761e-06
5.15362e-06
5.08694e-06
5.45054e-06
5.01384e-06
5.22176e-06
5.11474e-06
5.13406e-06
5.46523e-06
5.04552e-06
5.30941e-06
5.01977e-06
5.17687e-06
4.90481e-06
4.92972e-06
4.9292e-06
5.06285e-06
5.41001e-06
5.56859e-06
4.57431e-06
5.12377e-06
4.89594e-06
5.27255e-06
4.79269e-06
4.95421e-06
5.03804e-06
4.58606e-06
5.37343e-06
5.40561e-06
5.52336e-06
4.84841e-06
4.92886e-06
5.07055e-06
4.35562e-06
4.78294e-06
4.84305e-06
3.96993e-06
4.77144e-06
4.6345e-06
4.79359e-06
4.69328e-06
4.52505e-06
4.92867e-06
4.67132e-06
4.89771e-06
4.674e-06
4.83107e-06
4.07388e-06
4.91217e-06
3.37878e-06
4.55422e-06
5.70422e-06
4.63056e-06
4.55439e-06
5.12084e-06
3.87494e-06
4.7228e-06
4.38416e-06
4.45549e-06
4.61262e-06
4.45079e-06
4.4577e-06
4.34841e-06
4.44604e-06
4.43586e-06
4.50687e-06
4.58558e-06
4.29777e-06
4.74636e-06
5.0196e-06
4.21036e-06
4.12966e-06
3.51808e-06
3.57145e-06
4.27636e-06
4.57959e-06
6.34649e-06
4.34358e-06
4.1066e-06
4.23021e-06
3.69227e-06
4.42252e-06
4.42344e-06
3.85952e-06
4.09328e-06
4.21941e-06
4.34749e-06
4.67821e-06
3.95633e-06
4.65364e-06
4.1052e-06
4.05702e-06
5.5466e-06
3.81137e-06
4.01235e-06
3.17975e-06
3.8168e-06
4.02678e-06
4.20768e-06
3.97743e-06
4.0665e-06
3.94283e-06
3.65011e-06
3.98003e-06
3.96164e-06
3.26505e-06
3.87114e-06
3.87036e-06
3.92628e-06
3.83988e-06
3.68261e-06
4.3626e-06
3.84839e-06
3.82888e-06
3.77841e-06
3.25744e-06
3.32849e-06
3.80052e-06
3.37334e-06
3.56809e-06
3.62823e-06
3.53562e-06
3.72423e-06
4.01335e-06
3.69727e-06
3.61804e-06
3.67444e-06
3.86106e-06
3.64844e-06
4.14057e-06
3.47633e-06
3.78899e-06
3.7387e-06
3.70079e-06
3.85321e-06
3.55016e-06
3.45968e-06
3.68705e-06
3.51052e-06
3.41619e-06
3.46735e-06
3.366e-06
3.47137e-06
3.37962e-06
3.28787e-06
3.0371e-06
2.65857e-06
3.4218e-06
3.30807e-06
3.81471e-06
3.25079e-06
3.14469e-06
3.2525e-06
3.52172e-06
3.27794e-06
3.45048e-06
3.11363e-06
3.32854e-06
3.1793e-06
3.31955e-06
3.14617e-06
2.82323e-06
3.24728e-06
3.17974e-06
3.34349e-06
2.79988e-06
3.17826e-06
3.03985e-06
2.96736e-06
3.22319e-06
2.99415e-06
3.23557e-06
3.28278e-06
3.7754e-06
2.45306e-06
3.05197e-06
3.05139e-06
3.16706e-06
2.72644e-06
2.67222e-06
2.27903e-06
2.81376e-06
2.87706e-06
3.13048e-06
2.81163e-06
4.26241e-06
2.88345e-06
3.04513e-06
2.92205e-06
2.63226e-06
2.75577e-06
3.02313e-06
2.66414e-06
2.84634e-06
2.33676e-06
2.87659e-06
2.78043e-06
2.47169e-06
2.57509e-06
1.83932e-06
2.50812e-06
2.62686e-06
2.33484e-06
2.61164e-06
2.69692e-06
3.01743e-06
2.46653e-06
2.30653e-06
2.52747e-06
2.77294e-06
2.61995e-06
2.70972e-06
3.14285e-06
2.48459e-06
2.18509e-06
3.12805e-06
2.56767e-06
2.27783e-06
2.52648e-06
2.5717e-06
2.35328e-06
1.98781e-06
2.49108e-06
2.47959e-06
2.28867e-06
1.38783e-06
2.29134e-06
1.5384e-06
2.12847e-06
2.33087e-06
1.81937e-06
2.17671e-06
2.70217e-06
2.48141e-06
2.41089e-06
2.21284e-06
2.36563e-06
2.76758e-06
2.20546e-06
2.2062e-06
9.84253e-06
6.3977e-06
2.18294e-06
2.00345e-06
5.36371e-06
2.32951e-06
1.99054e-06
2.06658e-06
6.47449e-06
8.90172e-06
2.07784e-06
1.09381e-05
8.8098e-06
1.52387e-06
1.94562e-06
1.03342e-05
2.04566e-06
1.67266e-06
1.71262e-06
2.02258e-06
1.58717e-06
8.90798e-06
1.89616e-06
1.88183e-06
1.96137e-06
6.61509e-06
1.80634e-06
7.75866e-06
2.96954e-06
7.24993e-06
8.82467e-06
1.10462e-06
1.10522e-05
2.80344e-06
1.80039e-06
1.04619e-05
8.42565e-06
1.3541e-06
7.28936e-06
4.4982e-06
1.60963e-06
1.30343e-06
1.98565e-06
2.23505e-06
1.79066e-06
1.13485e-05
9.54644e-06
2.63269e-06
8.62919e-06
7.21868e-06
8.28256e-07
1.17623e-06
1.00177e-05
1.90408e-06
7.07185e-06
2.17341e-06
6.9162e-06
1.22284e-06
2.06237e-06
5.52808e-06
6.76758e-06
1.91308e-06
5.38215e-06
1.65789e-06
2.72548e-06
7.36847e-06
1.25182e-06
1.39406e-06
2.14441e-06
8.37421e-07
5.55185e-06
2.15346e-06
9.13375e-06
1.14478e-05
1.04778e-06
8.59065e-07
6.67329e-06
1.03708e-05
2.30399e-06
1.91459e-06
1.47723e-06
9.6678e-06
1.11543e-05
7.72255e-06
1.03765e-05
9.70133e-06
8.92722e-06
2.59855e-06
1.52416e-06
2.6226e-06
1.43549e-06
1.04952e-05
9.9617e-06
9.89999e-06
8.25267e-06
8.99654e-06
3.17484e-06
8.9963e-06
1.54565e-06
4.14477e-06
5.22886e-06
9.49865e-06
1.52469e-06
1.46787e-06
2.34989e-06
1.85334e-06
5.17384e-06
1.37976e-06
1.89882e-06
1.58297e-06
7.55272e-06
2.95098e-06
1.6468e-06
2.84367e-06
1.92102e-06
2.1405e-06
1.72467e-06
2.75916e-06
2.17319e-06
2.14739e-06
1.9836e-06
1.7883e-06
1.99892e-06
1.70275e-06
7.37947e-06
7.21399e-06
2.09562e-06
2.01244e-06
2.01087e-06
3.64352e-06
3.14254e-06
2.10527e-06
2.34539e-06
2.41932e-06
2.47259e-06
2.88562e-06
4.68266e-06
3.34551e-06
3.73885e-06
2.93894e-06
2.88714e-06
3.01679e-06
3.07899e-06
2.85555e-06
3.46749e-06
3.3373e-06
3.27003e-06
2.92863e-06
3.31774e-06
3.41605e-06
3.18045e-06
4.1476e-06
3.10135e-06
3.55847e-06
4.30178e-06
3.60982e-06
4.60941e-06
4.51467e-06
3.48895e-06
3.57501e-06
4.07702e-06
4.33584e-06
3.9592e-06
4.33952e-06
3.42941e-06
4.39798e-06
4.19569e-06
4.45013e-06
4.27726e-06
5.25536e-06
6.01168e-06
5.04506e-06
4.96765e-06
5.27571e-06
5.70459e-06
5.86368e-06
6.48871e-06
5.27438e-06
5.73329e-06
5.18954e-06
5.85971e-06
5.64827e-06
5.33926e-06
5.77047e-06
5.93421e-06
6.18673e-06
6.18414e-06
5.73617e-06
5.89525e-06
6.35861e-06
6.58345e-06
5.77072e-06
6.51818e-06
5.76781e-06
5.61598e-06
6.69347e-06
6.47014e-06
5.71844e-06
6.37341e-06
6.31218e-06
6.40587e-06
5.94351e-06
6.01948e-06
5.98789e-06
5.98036e-06
7.02923e-06
6.68226e-06
7.14082e-06
6.82341e-06
5.38408e-06
5.3889e-06
6.7212e-06
6.98253e-06
6.71007e-06
7.40768e-06
6.84486e-06
6.58252e-06
7.36926e-06
7.36396e-06
7.60584e-06
7.35782e-06
6.90819e-06
7.33069e-06
7.29693e-06
7.20798e-06
7.87959e-06
7.26378e-06
6.93877e-06
7.34106e-06
7.23206e-06
7.35694e-06
8.42418e-06
7.18378e-06
8.43131e-06
7.86252e-06
8.79969e-06
8.93819e-06
7.0601e-06
8.01735e-06
7.92693e-06
8.03926e-06
7.08709e-06
7.33254e-06
7.61364e-06
8.1215e-06
1.50241e-05
8.94651e-06
8.22455e-06
1.45106e-05
7.24664e-06
6.92431e-06
1.50675e-05
8.2208e-06
8.63208e-06
7.50262e-06
1.46371e-05
8.22529e-06
1.49683e-05
8.33993e-06
6.79627e-06
1.46278e-05
8.30626e-06
8.3058e-06
7.76577e-06
1.4934e-05
7.46135e-06
2.21198e-06
8.07332e-06
8.1035e-06
8.05529e-06
8.0647e-06
2.07505e-06
2.26086e-06
7.81842e-06
8.51672e-06
8.57689e-06
9.46614e-06
8.91579e-06
8.47023e-06
2.40666e-06
9.58697e-06
1.45581e-05
8.87448e-06
9.07812e-06
9.16727e-06
9.18929e-06
1.45148e-05
1.42755e-05
2.18387e-06
8.69544e-06
1.46932e-05
8.36373e-06
1.01367e-05
8.60478e-06
9.99266e-06
1.475e-05
1.46109e-05
1.37563e-05
1.45495e-05
1.84802e-06
2.13632e-06
1.4772e-05
1.00647e-05
1.45493e-05
9.59618e-06
9.80232e-06
9.40704e-06
2.01931e-06
1.6536e-06
1.44956e-05
1.45372e-05
9.93376e-06
1.45607e-05
1.45289e-05
1.5341e-06
9.32741e-06
1.00347e-05
1.45457e-05
1.45493e-05
1.45058e-05
1.08625e-05
1.47352e-05
1.01539e-05
1.45512e-05
1.41586e-05
1.45481e-05
9.49918e-06
1.47764e-05
1.68988e-06
1.47166e-05
1.47526e-05
1.45526e-05
1.45596e-05
9.94926e-06
1.45326e-05
1.4518e-05
1.45711e-05
1.47439e-05
1.47101e-05
1.00381e-05
1.45272e-05
1.45589e-05
1.46832e-05
1.46021e-05
1.45178e-05
1.45564e-05
9.81468e-06
1.02649e-05
1.47281e-05
1.45647e-05
1.06426e-05
1.45366e-05
9.88985e-06
1.10001e-05
1.45345e-05
1.45651e-05
1.47174e-05
1.47166e-05
1.45445e-05
1.45224e-05
1.01437e-05
2.44645e-06
9.7533e-06
1.44927e-05
1.46966e-05
1.45207e-05
1.45316e-05
1.45345e-05
1.44751e-05
1.12385e-06
1.45585e-05
6.44435e-06
1.46263e-05
1.46843e-05
1.0269e-05
1.45294e-05
1.47179e-05
9.66417e-06
1.46803e-05
1.45611e-05
1.45646e-05
1.41737e-05
1.45285e-05
1.45338e-05
1.37242e-05
1.47479e-05
1.45262e-05
1.45556e-05
1.45246e-05
1.45613e-05
1.45284e-05
1.45541e-05
1.45228e-05
1.45402e-05
1.45314e-05
1.70028e-06
1.45441e-05
1.4777e-05
1.45611e-05
1.45323e-05
1.45037e-05
1.47111e-05
1.45238e-05
1.45621e-05
1.46855e-05
1.45611e-05
1.44973e-05
1.45339e-05
1.69576e-06
1.46624e-05
1.45607e-05
1.4556e-05
1.81761e-06
1.71165e-06
1.4394e-05
1.45295e-05
1.00163e-05
1.46467e-05
1.46353e-05
1.45618e-05
1.44703e-05
1.45403e-05
1.45582e-05
1.04132e-05
1.45621e-05
1.46788e-05
1.12349e-05
1.46061e-05
1.45325e-05
1.45576e-05
1.46781e-05
1.46085e-05
1.45687e-05
1.44986e-05
1.45567e-05
1.45309e-05
1.45463e-05
1.45336e-05
1.45267e-05
1.44922e-05
2.60628e-06
1.45262e-05
1.45681e-05
1.45352e-05
1.09207e-05
1.45477e-05
1.45522e-05
1.45339e-05
1.46456e-05
1.45343e-05
1.45543e-05
1.46527e-05
1.45338e-05
1.44871e-05
1.45919e-05
1.46137e-05
1.43845e-05
1.45378e-05
1.45243e-05
1.45563e-05
1.45412e-05
1.456e-05
1.05402e-05
1.45629e-05
1.45397e-05
1.45438e-05
1.45334e-05
1.46982e-05
1.45427e-05
1.07153e-05
1.45505e-05
1.45675e-05
1.45357e-05
1.45358e-05
1.45568e-05
1.45434e-05
1.45477e-05
1.45414e-05
1.45587e-05
1.45621e-05
1.44639e-05
1.46543e-05
1.45568e-05
1.45392e-05
1.45481e-05
1.45558e-05
1.45413e-05
1.45429e-05
1.45305e-05
1.45541e-05
1.04469e-05
1.47853e-05
1.44206e-05
1.11076e-05
1.4529e-05
1.45649e-05
1.43076e-05
1.45573e-05
9.94982e-06
1.45438e-05
1.45421e-05
1.45445e-05
1.45486e-05
1.4618e-05
1.45571e-05
1.4552e-05
1.45581e-05
1.45621e-05
3.05947e-06
1.44236e-05
1.45587e-05
1.45496e-05
1.4558e-05
1.45366e-05
1.45366e-05
1.45469e-05
1.46664e-05
1.45578e-05
1.45589e-05
1.45562e-05
1.45505e-05
1.45567e-05
1.4552e-05
4.6013e-06
1.45531e-05
1.45563e-05
1.45589e-05
1.45196e-05
1.45357e-05
1.4517e-05
1.45494e-05
1.45549e-05
1.45829e-05
1.44864e-05
1.4545e-05
1.45502e-05
1.45487e-05
1.45641e-05
1.46475e-05
1.07901e-05
1.45571e-05
1.45264e-05
1.45492e-05
1.45544e-05
6.76446e-06
1.43628e-05
1.45332e-05
1.46084e-05
1.45542e-05
1.43876e-05
1.45399e-05
1.45827e-05
1.45741e-05
1.45848e-05
1.45334e-05
1.45534e-05
8.39492e-06
1.45461e-05
3.24159e-06
1.45784e-05
1.45386e-05
1.45424e-05
1.45311e-05
1.45375e-05
1.45451e-05
1.45406e-05
1.45794e-05
1.1033e-05
1.4537e-05
1.01676e-05
1.43295e-05
1.45501e-05
3.8975e-06
1.45111e-05
1.44393e-05
1.44603e-05
4.8713e-06
1.45491e-05
1.4548e-05
1.45333e-05
1.16255e-05
1.4544e-05
9.21224e-06
1.4694e-05
1.45562e-05
7.05248e-06
1.45404e-05
1.46908e-05
1.4529e-05
1.45672e-05
1.45783e-05
1.45118e-05
1.45364e-05
1.46938e-05
1.45478e-05
1.38812e-05
1.5335e-06
1.45647e-05
1.45438e-05
1.45465e-05
1.44966e-05
1.45528e-05
1.45582e-05
1.45462e-05
1.47259e-05
1.41388e-05
1.4628e-05
1.45555e-05
1.45328e-05
7.72751e-07
1.4542e-05
1.4537e-05
1.4551e-05
1.45225e-05
1.46974e-05
1.45645e-05
1.45514e-05
1.44988e-05
1.45612e-05
1.44122e-05
1.45545e-05
8.5351e-06
1.47358e-05
1.45555e-05
1.46949e-05
1.40367e-06
1.4712e-05
1.45515e-05
1.45568e-05
4.19847e-06
1.45393e-05
1.46803e-05
1.45403e-05
1.45469e-05
1.39994e-05
1.45403e-05
1.36291e-05
1.45691e-05
1.45517e-05
1.45467e-05
9.65812e-06
1.45073e-05
1.45735e-05
1.45559e-05
1.45394e-05
1.45446e-05
1.45398e-05
1.45364e-05
1.64197e-06
1.46864e-05
1.38601e-05
1.44704e-05
1.45542e-05
9.81671e-06
1.45156e-05
1.45595e-05
1.45439e-05
2.89661e-06
1.44219e-05
1.4574e-05
1.45388e-05
6.92899e-06
1.453e-05
1.45582e-05
1.00693e-05
1.45492e-05
1.45285e-05
7.18501e-06
1.469e-05
1.14722e-05
1.45566e-05
1.45615e-05
1.45736e-05
1.46564e-05
1.45472e-05
6.93629e-06
1.46601e-05
1.45325e-05
1.45523e-05
1.10941e-06
1.45538e-05
1.45541e-05
1.46796e-05
1.43267e-05
6.9236e-06
1.07891e-05
1.05902e-05
1.45608e-05
1.45189e-05
1.45406e-05
1.34091e-05
1.45743e-05
1.42727e-05
1.46249e-05
1.44824e-05
1.45141e-05
1.45377e-05
6.43728e-07
1.4658e-05
1.41308e-06
1.45558e-05
1.45009e-05
1.43259e-05
1.45483e-05
1.44698e-05
1.45722e-05
1.45048e-05
1.40147e-05
1.45387e-05
1.065e-05
1.45098e-05
1.46909e-05
1.45562e-05
1.45032e-05
3.37939e-06
1.86423e-07
1.45128e-05
1.4533e-05
1.45074e-05
1.45098e-05
1.45665e-05
1.45185e-05
1.46499e-05
1.39605e-05
1.44958e-05
4.96843e-06
1.45639e-05
1.45418e-05
1.45514e-05
1.44324e-05
1.4517e-05
1.15191e-05
1.46436e-05
1.45306e-05
1.4601e-05
1.453e-05
1.43775e-05
1.45282e-05
1.49446e-05
1.42445e-05
1.45595e-05
1.45542e-05
9.35093e-06
1.45532e-05
1.44931e-05
1.45054e-05
1.44947e-05
1.44861e-05
1.45377e-05
3.58492e-06
1.46034e-05
1.15997e-06
1.44657e-05
1.45254e-05
1.44963e-05
1.45456e-05
1.45587e-05
1.52257e-06
1.45444e-05
1.45435e-05
1.45198e-05
1.44191e-05
9.01029e-06
1.45411e-05
1.04775e-05
8.8361e-06
1.45325e-05
1.44626e-05
1.4574e-05
6.22158e-06
1.45672e-05
2.30033e-06
6.58448e-06
1.45634e-05
1.45845e-05
1.38187e-05
1.38342e-05
1.15168e-05
1.4538e-05
1.41198e-05
1.45346e-05
1.45112e-05
1.4317e-05
1.45873e-05
1.45676e-05
1.44515e-05
2.23461e-06
1.45074e-05
1.45338e-05
1.45239e-05
1.4477e-05
1.4428e-06
7.06038e-06
1.45266e-05
1.43068e-05
2.6646e-06
7.08269e-06
1.46478e-05
1.68331e-06
1.13702e-05
1.4433e-05
1.46108e-05
2.00632e-06
1.03293e-05
1.45235e-05
1.45553e-05
1.18272e-05
1.45568e-05
1.49307e-06
1.45911e-05
1.02391e-05
1.45674e-05
1.41255e-05
1.59017e-06
1.45329e-05
1.40774e-05
1.45431e-05
1.4533e-05
1.45009e-05
1.44867e-05
1.45579e-05
6.91341e-06
3.47318e-06
6.76345e-06
9.02377e-06
3.31278e-06
1.44397e-05
1.43568e-05
1.61375e-06
3.00791e-06
1.43121e-05
1.43846e-05
9.66518e-07
8.64719e-06
1.45283e-05
1.45154e-05
1.42038e-05
1.44903e-05
3.52411e-06