/*--------------------------------*- C++ -*----------------------------------*\
  =========                 |
  \\      /  F ield         | OpenFOAM: The Open Source CFD Toolbox
   \\    /   O peration     | Website:  https://openfoam.org
    \\  /    A nd           | Version:  8
     \\/     M anipulation  |
\*---------------------------------------------------------------------------*/
FoamFile
{
    version     2.0;
    format      ascii;
    class       volScalarField;
    location    "2.8";
    object      p;
}
// * * * * * * * * * * * * * * * * * * * * * * * * * * * * * * * * * * * * * //

dimensions      [0 2 -2 0 0 0 0];

internalField   nonuniform List<scalar> 
3080
(
4.98665e-05
4.72461e-05
4.98329e-05
4.98764e-05
4.87923e-05
4.97213e-05
4.97054e-05
3.21288e-05
4.97877e-05
4.99828e-05
4.98904e-05
5.00226e-05
4.58614e-05
4.8519e-05
4.98934e-05
4.78496e-05
4.98775e-05
4.97925e-05
4.98839e-05
4.9532e-05
3.53159e-05
4.94073e-05
4.92024e-05
3.18667e-05
4.88837e-05
4.78615e-05
4.96458e-05
4.80973e-05
4.98768e-05
4.82354e-05
4.31068e-05
3.47866e-05
4.74767e-05
3.46434e-05
3.90271e-05
4.9991e-05
4.95783e-05
4.04338e-05
4.97818e-05
4.81055e-05
4.98517e-05
4.98068e-05
5.01103e-05
4.98217e-05
4.80324e-05
4.98918e-05
4.97011e-05
4.98694e-05
4.98301e-05
4.74464e-05
4.98112e-05
4.14404e-05
4.9192e-05
4.97877e-05
4.82817e-05
4.98434e-05
4.98168e-05
4.31308e-06
3.97818e-05
4.98223e-05
4.87812e-06
5.11035e-06
6.25066e-06
4.98969e-05
6.03702e-06
6.32037e-06
4.9755e-05
4.97563e-05
3.51331e-06
8.23331e-06
4.9725e-05
5.426e-06
3.71514e-05
1.02296e-05
4.98307e-05
3.61794e-05
4.98224e-05
7.40474e-06
4.97759e-05
4.98298e-05
4.76542e-05
4.97646e-05
1.22285e-05
4.29638e-05
4.94761e-05
9.39731e-06
4.96038e-05
1.44158e-05
1.5067e-05
4.96407e-05
1.13952e-05
1.42289e-05
2.26159e-06
1.32364e-05
1.38374e-05
4.9809e-05
1.33937e-05
1.6356e-05
1.70915e-05
4.97778e-05
4.97263e-05
4.13944e-06
4.33514e-06
3.62726e-05
4.95166e-05
4.84998e-05
4.98081e-05
1.53949e-05
1.51756e-05
1.58612e-05
1.82972e-05
1.9117e-05
4.98002e-05
7.31867e-06
7.659e-06
3.3025e-05
4.95049e-05
2.93017e-06
3.06325e-06
1.71168e-05
1.78866e-05
4.98879e-05
4.96229e-05
8.60648e-06
9.00346e-06
4.98401e-05
4.98236e-05
2.1525e-05
2.24859e-05
4.80163e-05
9.89792e-06
1.03513e-05
4.972e-05
1.11904e-05
1.17001e-05
4.98858e-05
4.97043e-05
4.98569e-05
2.34651e-05
2.45119e-05
2.27291e-05
2.15641e-05
4.98151e-05
1.24804e-05
1.30468e-05
4.76055e-05
4.9828e-05
2.03518e-05
2.12625e-05
5.51203e-06
5.7729e-06
4.98484e-05
4.97756e-05
4.96492e-05
4.98374e-05
2.5406e-05
2.65394e-05
3.82718e-05
4.948e-06
4.9697e-05
2.47278e-05
2.74655e-05
2.86907e-05
4.82906e-05
3.06141e-06
2.35625e-05
4.9862e-05
4.97394e-05
6.91142e-06
2.22913e-05
2.32867e-05
4.96787e-05
3.15026e-05
2.67354e-05
3.92853e-05
8.90025e-06
3.07211e-05
2.94313e-05
4.98421e-05
4.46853e-07
4.45513e-07
4.45316e-07
1.67293e-05
2.55582e-05
3.61075e-05
4.9733e-05
2.87481e-05
1.08979e-05
2.42246e-05
2.53105e-05
4.97516e-05
1.80646e-05
4.94583e-05
3.41818e-05
4.98146e-05
1.95875e-05
2.0464e-05
4.9782e-05
2.81131e-05
2.93698e-05
3.6309e-06
3.80622e-06
1.28988e-05
3.27072e-05
1.93981e-05
2.86819e-05
2.99225e-05
2.75558e-05
3.08015e-05
4.98204e-05
1.38861e-05
1.45152e-05
4.9428e-05
4.98428e-05
4.78505e-05
4.9766e-05
2.07287e-05
3.13987e-05
3.00929e-05
1.4898e-05
6.7882e-06
7.10628e-06
3.19186e-05
1.58277e-05
1.65413e-05
4.94664e-05
4.92201e-05
4.95813e-05
8.07289e-06
8.4478e-06
3.45088e-05
4.95029e-05
3.32797e-05
2.95403e-05
4.95359e-05
3.37095e-05
3.30383e-05
9.36316e-06
9.79457e-06
4.98728e-05
1.77678e-05
1.85658e-05
4.96084e-05
3.10072e-05
1.25471e-06
1.19198e-06
1.24698e-06
3.16577e-05
4.99932e-05
1.06532e-05
1.11413e-05
4.53156e-05
2.97207e-05
2.47759e-06
2.59428e-06
4.67213e-05
2.90213e-05
1.19459e-05
1.24903e-05
3.37478e-05
4.98634e-05
2.67139e-05
2.78911e-05
2.89294e-05
2.77127e-05
2.96188e-05
2.8363e-05
4.98182e-05
2.75768e-05
2.64049e-05
4.9796e-05
2.1e-05
2.19389e-05
2.22313e-05
2.89487e-05
4.95032e-05
2.62312e-05
2.51137e-05
4.98696e-05
2.48806e-05
2.38223e-05
3.23315e-05
2.35353e-05
2.25287e-05
3.43236e-05
2.82552e-05
2.70606e-05
2.88289e-05
1.62325e-05
2.15029e-05
2.05816e-05
2.81637e-05
2.2939e-05
2.39631e-05
2.42275e-05
2.01541e-05
1.9289e-05
3.71808e-05
8.17885e-07
8.14161e-07
8.53354e-07
2.74942e-05
2.61621e-05
1.8806e-05
1.79973e-05
1.75657e-05
1.7455e-05
1.67025e-05
2.69083e-05
2.57712e-05
2.41691e-05
4.98022e-05
1.61016e-05
1.54059e-05
3.2192e-05
2.21704e-05
3.4535e-05
2.68282e-05
1.40642e-05
1.34527e-05
2.54974e-05
2.4871e-05
2.59887e-05
4.98159e-05
2.62239e-05
1.8899e-05
2.0163e-05
1.20475e-05
1.15203e-05
2.28756e-05
2.18984e-05
2.5563e-05
2.44738e-05
1.07113e-05
1.02413e-05
1.81596e-05
9.35989e-06
8.94814e-06
1.68287e-05
2.02309e-05
2.35017e-05
1.90613e-05
1.99156e-05
7.31713e-06
6.98795e-06
4.9724e-05
1.48238e-05
2.82192e-05
5.97087e-06
5.69836e-06
4.13833e-05
2.42171e-05
2.31833e-05
2.48352e-05
4.98581e-05
1.28228e-05
4.98022e-05
3.74624e-06
3.93583e-06
4.69157e-05
4.97837e-05
2.15015e-05
1.08227e-05
8.82067e-06
3.01906e-05
6.81371e-06
4.94894e-05
4.78588e-06
2.21924e-05
2.1244e-05
4.97771e-05
2.28376e-05
4.70384e-05
3.52763e-05
1.88262e-05
4.9542e-05
3.57937e-05
2.08343e-05
1.99411e-05
4.97908e-05
4.79695e-05
4.98295e-05
4.9889e-05
1.47431e-05
1.4104e-05
2.08353e-05
2.89096e-06
1.54919e-05
1.94917e-05
1.86555e-05
4.98296e-05
2.61584e-05
2.7339e-05
3.45603e-05
1.27208e-05
1.21658e-05
4.97426e-05
1.9492e-05
3.02623e-05
3.48825e-05
4.97328e-05
1.34917e-05
2.96271e-05
4.9813e-05
1.81415e-05
1.73617e-05
4.8355e-05
1.14907e-05
1.74971e-05
1.67925e-05
1.60694e-05
4.96455e-05
3.39415e-05
7.99636e-06
7.63968e-06
4.83813e-05
9.49e-06
1.61579e-05
1.54362e-05
1.47697e-05
4.98185e-05
4.95237e-05
7.48667e-06
1.0467e-06
1.06513e-06
9.90607e-07
4.97987e-05
2.43779e-06
2.33488e-06
4.98816e-05
1.41565e-05
1.34052e-05
1.28225e-05
4.61046e-06
4.39506e-06
4.98622e-05
4.86922e-05
4.97139e-05
4.95265e-05
4.90004e-05
3.6845e-06
3.51895e-06
4.97906e-05
5.4678e-06
6.67815e-06
6.98991e-06
1.74559e-06
1.8355e-06
1.7701e-06
4.97996e-05
7.96322e-06
8.3319e-06
9.25397e-06
9.67882e-06
1.05458e-05
1.10271e-05
1.18376e-05
1.23757e-05
1.21552e-05
4.97788e-05
1.13892e-05
1.08906e-05
2.17634e-06
2.2778e-06
1.3007e-06
1.29692e-06
1.35676e-06
4.39571e-05
1.89438e-05
1.97921e-05
4.74224e-05
4.97498e-05
4.98522e-05
1.0047e-05
9.60547e-06
4.98213e-05
4.69421e-05
4.58715e-05
4.98943e-05
2.60578e-05
2.7216e-05
1.01554e-05
4.97735e-05
4.98036e-05
4.9774e-05
2.42211e-06
2.53388e-06
1.60628e-05
1.73986e-05
4.92668e-05
8.69142e-06
8.30656e-06
1.87331e-05
3.51995e-05
2.00657e-05
4.98426e-05
4.58502e-05
4.98169e-05
4.98534e-05
4.98502e-05
4.7754e-05
4.9755e-05
4.96464e-05
8.15331e-06
2.27543e-06
4.98185e-05
4.91883e-05
4.65907e-05
4.98233e-05
3.24866e-05
4.96634e-05
6.65606e-06
6.35554e-06
4.98301e-05
4.30909e-05
4.96586e-05
3.42393e-06
4.97705e-05
4.97942e-05
4.97786e-05
3.49213e-05
4.98117e-05
5.3982e-06
5.6526e-06
6.14065e-06
4.86894e-05
4.97435e-05
5.29905e-06
5.05643e-06
4.98007e-05
4.97711e-05
4.97302e-05
6.73679e-06
4.95263e-05
4.76693e-06
4.88813e-05
4.98185e-05
8.72573e-06
1.37682e-05
1.43912e-05
4.89028e-05
4.98554e-05
1.64144e-05
1.5707e-05
1.07228e-05
1.84396e-05
1.7648e-05
4.97518e-05
2.18089e-05
2.08763e-05
2.38347e-05
2.28172e-05
2.58608e-05
2.47552e-05
1.27215e-05
4.97279e-05
3.53105e-05
4.98267e-05
4.90557e-05
1.47203e-05
4.98797e-05
4.98187e-05
2.85573e-06
3.07518e-05
3.04551e-06
3.18899e-06
4.94267e-05
4.9802e-05
4.72318e-05
4.98181e-05
2.20556e-05
2.4053e-05
2.6059e-05
4.98704e-05
3.01028e-05
2.80689e-05
4.83556e-05
3.41674e-05
4.89406e-05
4.98248e-05
4.98115e-05
4.86367e-05
4.96763e-05
4.97779e-05
4.98353e-05
4.98097e-05
4.98052e-05
4.50165e-05
4.9721e-05
3.69403e-05
4.98187e-05
4.98192e-05
4.89063e-05
4.87032e-05
4.8592e-05
4.98213e-05
4.73576e-05
4.93086e-05
4.99213e-05
4.94112e-05
4.98116e-05
4.98142e-05
4.97842e-05
3.4359e-05
4.97384e-05
4.97983e-05
4.73686e-05
4.97321e-05
4.98586e-05
3.08234e-05
4.98456e-05
4.97844e-05
4.97973e-05
4.98007e-05
4.94834e-05
3.45797e-06
4.98267e-05
4.10289e-06
4.98144e-05
4.82324e-05
3.59926e-05
3.09302e-05
4.90351e-05
4.9814e-05
4.98332e-05
4.98576e-05
4.97725e-05
4.98369e-05
4.98236e-05
4.98412e-05
4.98609e-05
4.97953e-05
4.93649e-05
4.98361e-05
4.96584e-05
4.97723e-05
4.9401e-05
3.28532e-05
4.98232e-05
4.9805e-05
4.40642e-05
4.98479e-05
4.9786e-05
4.75753e-05
4.88881e-05
4.38824e-05
4.97596e-05
4.98257e-05
4.92714e-05
4.98401e-05
4.98885e-05
4.96934e-05
4.90741e-05
4.98368e-05
4.88426e-05
4.98048e-05
4.95639e-05
4.98773e-05
4.98158e-05
4.97741e-05
3.81492e-06
3.64044e-06
4.97191e-05
4.87169e-05
4.98475e-05
4.86542e-05
4.98507e-05
4.98418e-05
4.97359e-05
4.99157e-05
3.2281e-05
4.98426e-05
4.98247e-05
4.98385e-05
4.9864e-05
4.96618e-05
4.9869e-05
4.98273e-05
4.97928e-05
4.9821e-05
4.9813e-05
4.98077e-05
4.9809e-05
4.9851e-05
4.98137e-05
4.98442e-05
4.98604e-05
4.98275e-05
4.97284e-05
4.97719e-05
4.98231e-05
4.97826e-05
4.97496e-05
4.97321e-05
4.98362e-05
4.98542e-05
4.97771e-05
4.97667e-05
4.81258e-05
4.98662e-05
4.91515e-05
4.98148e-05
4.97611e-05
4.91287e-05
4.91341e-05
4.98024e-05
3.58758e-05
5.01104e-05
4.90005e-05
4.97905e-05
4.98151e-05
4.98526e-05
4.98723e-05
4.97467e-05
4.98401e-05
4.97995e-05
4.98585e-05
4.98101e-05
4.9844e-05
4.88072e-05
4.94138e-05
4.98452e-05
4.98421e-05
4.97589e-05
4.91649e-05
4.98361e-05
4.97161e-05
4.98583e-05
4.85156e-05
4.95448e-05
5.01366e-05
4.97883e-05
4.99012e-05
4.97467e-05
4.98206e-05
4.98109e-05
4.98747e-05
4.98278e-05
4.96857e-05
4.98342e-05
4.983e-05
4.97468e-05
4.98683e-05
4.90806e-05
3.55554e-06
4.98208e-05
4.91817e-05
4.96759e-05
4.98113e-05
4.98391e-05
4.98261e-05
4.98246e-05
4.98945e-05
5.00335e-05
4.96436e-05
4.97304e-05
4.81898e-05
4.98762e-05
4.98221e-05
4.98403e-05
4.9526e-05
4.98008e-05
4.98489e-05
4.98664e-05
4.98455e-05
4.98961e-05
4.95766e-05
4.98496e-05
4.98518e-05
4.97677e-05
4.98474e-05
4.88e-05
4.09167e-06
4.9743e-05
4.98893e-05
4.89098e-05
4.94127e-05
4.98106e-05
4.88311e-05
5.00859e-05
4.96273e-05
4.97258e-05
4.98676e-05
4.98168e-05
4.98641e-05
4.97203e-05
4.94241e-05
3.32938e-05
4.94637e-05
4.92789e-05
4.98879e-05
4.98038e-05
4.98632e-05
4.98787e-05
4.98516e-05
4.98204e-05
5.01064e-05
4.9876e-05
4.92451e-05
4.98929e-05
4.92757e-05
4.98545e-05
4.98863e-05
5.01622e-05
4.97836e-05
4.98163e-05
4.986e-05
4.98437e-05
4.98181e-05
4.98961e-05
4.97269e-05
4.98512e-05
4.96908e-05
4.98677e-05
4.98512e-05
4.97458e-05
4.98271e-05
4.98335e-05
4.97798e-05
3.16663e-05
4.98685e-05
4.9593e-05
4.95624e-05
4.98117e-05
4.98186e-05
4.98431e-05
4.98617e-05
4.93977e-05
4.98806e-05
4.98505e-05
4.98132e-05
4.98225e-05
4.97664e-05
5.01745e-05
4.97786e-05
4.98434e-05
4.97218e-05
4.98826e-05
4.97583e-05
4.97741e-05
4.98618e-05
4.94716e-05
4.96843e-05
5.00992e-05
4.97694e-05
4.98949e-05
4.98647e-05
4.97428e-05
4.98137e-05
4.98253e-05
4.97442e-05
4.98101e-05
4.98893e-05
4.97942e-05
4.98091e-05
4.97834e-05
4.97616e-05
4.97731e-05
4.97034e-05
4.98549e-05
4.98915e-05
4.98533e-05
4.98124e-05
4.92151e-05
4.97402e-05
4.98368e-05
4.45908e-06
4.25526e-06
4.98046e-05
4.98679e-05
4.97223e-05
4.93387e-05
4.93321e-05
4.74131e-06
4.97601e-05
4.9734e-05
4.98674e-05
4.98484e-05
4.97306e-05
4.97696e-05
4.97152e-05
4.92687e-05
5.00408e-05
4.9193e-05
4.92833e-05
4.93136e-05
4.98687e-05
4.98714e-05
4.92694e-05
4.97924e-05
4.97128e-05
4.9695e-05
4.98847e-05
4.9283e-05
4.89817e-05
4.98487e-05
4.98276e-05
4.98193e-05
4.36861e-05
4.98596e-05
4.94937e-05
4.98714e-05
4.92706e-05
4.98415e-05
4.91602e-05
4.9399e-05
4.98742e-05
4.91768e-05
4.93548e-05
4.96809e-05
4.98205e-05
4.99173e-05
4.84299e-05
4.91053e-05
4.93161e-05
4.93672e-05
4.9871e-05
4.97035e-05
4.98466e-05
4.9451e-05
4.9215e-05
4.97216e-05
4.96187e-05
4.96931e-05
4.9648e-05
4.92562e-05
4.94819e-05
4.90684e-05
5.39328e-06
4.9845e-05
4.98321e-05
4.99097e-05
5.11069e-06
4.87713e-06
4.95237e-05
4.59583e-06
4.3811e-06
4.96959e-05
4.84779e-05
4.98505e-05
4.98499e-05
4.9672e-05
4.98435e-05
4.95507e-05
4.96864e-05
4.97747e-05
4.98262e-05
4.95463e-05
4.98647e-05
4.96746e-05
4.97153e-05
4.95722e-05
4.95807e-05
5.50534e-06
5.76809e-06
3.17731e-05
4.95712e-05
4.93236e-05
4.98582e-05
4.95134e-05
4.96448e-05
4.96864e-05
4.98664e-05
4.9741e-05
4.82813e-05
4.94296e-05
4.8439e-05
4.95835e-05
5.01949e-05
4.94602e-05
4.9828e-05
4.97715e-05
5.57337e-06
4.97059e-05
4.84514e-05
4.94346e-05
4.93868e-05
4.96297e-05
4.95012e-05
6.05214e-06
4.98254e-05
4.99439e-05
4.89059e-05
4.95771e-05
6.43527e-06
6.14439e-06
4.90618e-05
4.95624e-05
3.35504e-06
3.1928e-06
3.12769e-05
4.98407e-05
4.92971e-05
4.9586e-05
6.71511e-06
4.8885e-05
4.98459e-05
4.91959e-05
4.9718e-05
4.97265e-05
6.78788e-06
7.10668e-06
4.97424e-05
7.38144e-06
4.95224e-05
4.95512e-05
4.8991e-05
4.94797e-05
7.58003e-06
8.04746e-06
4.98056e-05
7.77916e-06
7.43149e-06
4.98205e-05
8.71333e-06
8.08015e-06
8.45596e-06
7.65492e-06
8.01103e-06
4.86243e-05
9.38085e-06
4.98277e-05
8.73026e-06
9.13412e-06
9.57801e-06
1.00468e-05
3.03065e-05
9.37883e-06
9.8112e-06
1.07124e-05
3.36312e-05
1.04835e-05
1.00231e-05
1.13792e-05
1.11537e-05
1.06649e-05
1.15758e-05
1.20459e-05
1.18215e-05
1.13042e-05
1.27127e-05
1.33806e-05
1.19507e-05
1.24963e-05
1.35767e-05
1.25956e-05
1.31694e-05
1.40476e-05
1.21806e-05
1.27335e-05
1.47138e-05
1.38426e-05
1.32405e-05
1.53809e-05
1.38909e-05
1.4521e-05
1.6049e-05
1.55768e-05
1.52014e-05
1.45435e-05
1.47511e-05
1.4113e-05
1.67162e-05
1.51916e-05
1.58778e-05
1.65552e-05
1.58409e-05
1.73823e-05
1.72282e-05
1.64856e-05
1.80467e-05
1.79035e-05
1.71327e-05
1.87126e-05
1.77781e-05
1.85772e-05
1.68989e-05
9.56616e-06
3.2143e-05
3.4332e-05
3.15327e-05
2.88124e-05
3.00934e-05
4.4559e-06
4.25257e-06
1.64741e-05
1.72157e-05
9.12111e-06
8.71771e-06
1.89143e-05
3.07729e-05
2.94661e-05
1.3565e-05
2.76196e-05
1.84274e-05
3.15842e-05
1.92544e-05
5.59665e-06
3.25276e-05
2.36198e-05
2.1619e-05
1.88556e-06
1.7876e-06
3.01368e-05
3.68478e-06
1.55657e-05
1.51892e-05
1.4532e-05
2.80148e-05
2.6815e-05
3.08172e-05
1.93789e-05
2.46366e-05
2.35831e-05
3.80977e-05
2.6664e-05
2.55105e-05
1.00086e-05
1.15634e-05
1.31655e-05
1.25929e-05
1.04684e-05
1.92425e-05
1.84166e-05
3.14601e-05
6.4391e-06
6.14989e-06
2.96256e-05
7.57304e-06
3.36821e-05
3.51929e-05
7.7778e-06
7.43135e-06
3.39329e-05
3.17869e-06
3.03202e-06
3.35793e-05
1.18155e-05
1.12993e-05
3.70767e-05
2.93821e-05
2.55339e-05
2.562e-05
2.66729e-05
2.60004e-05
2.48899e-05
3.25799e-05
2.26807e-05
2.17118e-05
2.73443e-05
2.6706e-05
1.82308e-05
2.87034e-05
2.80228e-05
3.35172e-05
2.60429e-05
2.61808e-05
2.40512e-05
1.90723e-05
2.08953e-05
3.33701e-05
2.74834e-05
1.95649e-05
2.29563e-05
2.68346e-05
2.87039e-05
2.33853e-05
2.27184e-05
2.93592e-05
2.81325e-05
1.97206e-05
2.12797e-05
2.0604e-05
2.53807e-05
2.19585e-05
2.26332e-05
1.99273e-05
2.23106e-05
2.68897e-05
2.42449e-05
2.10187e-05
2.47163e-05
2.80392e-05
2.13855e-05
3.36933e-05
3.20675e-05
2.03681e-05
3.24408e-05
2.73725e-05
2.8883e-05
2.33071e-05
2.28972e-05
2.05897e-05
1.97074e-05
2.39809e-05
3.00569e-05
2.20515e-05
2.48927e-05
3.20697e-05
2.53263e-05
2.2614e-05
2.16472e-05
2.16651e-05
3.27296e-05
2.00482e-05
2.35995e-05
3.14029e-05
2.07168e-05
3.00466e-05
2.87753e-05
3.39341e-05
3.07317e-05
2.95969e-05
2.46513e-05
3.29574e-05
3.28942e-05
3.38716e-05
3.16052e-05
2.99923e-05
2.87937e-05
4.9449e-05
2.97155e-05
3.01503e-05
2.94654e-05
3.07397e-05
4.95891e-05
4.97197e-05
4.96442e-05
3.0853e-05
4.97938e-05
4.98454e-05
4.96023e-05
2.83373e-05
4.96032e-05
4.95545e-05
4.98074e-05
4.97203e-05
4.97455e-05
3.22648e-05
4.92495e-05
2.89546e-05
4.95713e-05
4.96728e-05
4.94915e-05
4.91277e-05
4.93163e-05
4.80026e-05
2.90194e-05
3.15543e-05
4.96153e-05
4.93588e-05
3.13395e-05
4.96577e-05
4.95329e-05
2.82866e-05
4.97367e-05
4.94581e-05
4.9844e-05
4.98428e-05
4.98476e-05
4.97027e-05
4.95015e-05
4.97652e-05
4.97522e-05
4.77694e-05
4.95273e-05
4.94875e-05
4.98167e-05
4.85449e-05
2.51874e-05
2.41107e-05
4.97464e-05
4.9757e-05
4.99869e-05
4.98136e-05
3.06026e-05
4.92323e-05
4.97633e-05
4.93997e-05
4.9188e-05
4.9857e-05
4.87215e-05
4.97921e-05
4.93347e-05
4.96626e-05
4.96202e-05
4.93232e-05
4.97096e-05
4.90242e-05
4.98229e-05
4.96896e-05
4.99408e-05
4.95924e-05
4.94825e-05
4.92409e-05
4.96532e-05
4.97552e-05
4.9633e-05
4.98218e-05
4.98755e-05
4.97846e-05
4.97933e-05
4.9857e-05
4.98083e-05
4.90208e-05
4.96457e-05
4.98217e-05
4.96529e-05
2.87336e-05
2.75239e-05
4.98531e-05
4.96597e-05
4.92657e-05
4.96545e-05
4.96343e-05
4.96988e-05
4.97359e-05
4.97865e-05
4.96036e-05
4.98547e-05
2.82708e-05
4.95859e-05
4.98197e-05
4.954e-05
4.97282e-05
4.89084e-05
4.98481e-05
4.88701e-05
4.95481e-05
4.98028e-05
4.93193e-05
4.95172e-05
4.98289e-05
4.93367e-05
4.92609e-05
4.97614e-05
4.98288e-05
4.96346e-05
4.97732e-05
4.98324e-05
4.98606e-05
3.43341e-05
4.98111e-05
4.9878e-05
4.98666e-05
4.98412e-05
4.97361e-05
4.97455e-05
4.98078e-05
4.96401e-05
4.98718e-05
4.98315e-05
4.99283e-05
4.96437e-05
4.97286e-05
4.98857e-05
4.98559e-05
4.98475e-05
4.98266e-05
4.96754e-05
4.98566e-05
4.98266e-05
4.98519e-05
4.95617e-05
4.91667e-05
4.98033e-05
4.98385e-05
2.31612e-05
2.2172e-05
4.98183e-05
4.98637e-05
4.97745e-05
4.97085e-05
4.94503e-05
4.9737e-05
2.82446e-05
2.70448e-05
4.98791e-05
4.85858e-05
4.96435e-05
3.39785e-05
4.98288e-05
4.96776e-05
2.94234e-05
2.81751e-05
1.8091e-06
4.98457e-05
4.96809e-05
4.96605e-05
4.98705e-05
4.98605e-05
4.98329e-05
4.98342e-05
4.98474e-05
4.97566e-05
4.98108e-05
4.966e-05
4.99442e-05
4.99711e-05
4.9026e-05
4.97626e-05
4.98463e-05
4.97407e-05
4.97438e-05
4.98562e-05
4.97098e-05
4.97187e-05
4.9774e-05
4.99467e-05
4.98082e-05
4.98434e-05
4.98599e-05
4.98549e-05
4.92688e-05
4.98538e-05
4.92787e-05
4.98685e-05
4.98241e-05
4.89254e-05
4.87526e-05
4.98222e-05
4.98691e-05
4.98089e-05
4.98304e-05
4.99647e-05
4.95926e-05
4.98599e-05
4.91825e-05
4.99978e-05
4.96969e-05
4.95601e-05
4.92809e-05
4.98256e-05
4.97914e-05
4.98669e-05
4.96765e-05
2.73941e-05
2.62362e-05
4.96323e-05
4.98161e-05
4.97773e-05
2.11373e-05
2.02327e-05
4.8873e-05
2.6954e-05
4.9718e-05
4.99111e-05
4.98661e-05
4.97014e-05
4.98668e-05
4.98571e-05
4.98039e-05
4.95932e-05
4.97824e-05
4.96189e-05
4.98427e-05
4.99073e-05
4.99076e-05
2.75989e-05
4.98468e-05
4.98169e-05
4.96548e-05
4.98701e-05
4.90458e-05
4.99355e-05
4.98594e-05
4.98812e-05
4.9764e-05
4.86411e-05
4.97265e-05
4.82179e-05
4.95175e-05
4.96561e-05
4.97388e-05
4.97636e-05
4.99137e-05
4.98148e-05
4.97667e-05
4.9935e-05
4.94245e-05
4.98437e-05
4.94723e-05
4.98068e-05
4.98507e-05
4.98702e-05
4.96467e-05
4.98579e-05
4.98601e-05
4.97258e-05
4.9673e-05
4.98875e-05
4.97886e-05
4.98497e-05
4.98579e-05
4.96276e-05
4.95335e-05
2.94257e-05
4.98465e-05
4.98362e-05
4.979e-05
4.98582e-05
4.9828e-05
4.95065e-05
4.9584e-05
4.95359e-05
4.98489e-05
4.9787e-05
4.98347e-05
4.93339e-05
4.98518e-05
4.94471e-05
4.98104e-05
4.96829e-05
4.98448e-05
4.98321e-05
4.98319e-05
4.97623e-05
4.97556e-05
4.97598e-05
4.98484e-05
4.97685e-05
4.97561e-05
4.93684e-05
4.91831e-05
4.98378e-05
4.98097e-05
4.97632e-05
4.97948e-05
4.95043e-05
4.87917e-05
2.68898e-05
2.5747e-05
4.98649e-05
4.97671e-05
2.62572e-05
4.98924e-05
4.9546e-05
4.98779e-05
4.97829e-05
4.98684e-05
4.98692e-05
4.99176e-05
4.97709e-05
2.89167e-05
2.76867e-05
4.98704e-05
4.98491e-05
4.97775e-05
4.97701e-05
4.98579e-05
4.99354e-05
4.98673e-05
4.9789e-05
4.98625e-05
4.99035e-05
4.96673e-05
2.69292e-05
4.98397e-05
4.9901e-05
4.98848e-05
4.98474e-05
4.97305e-05
4.98714e-05
4.88174e-05
4.98495e-05
4.98395e-05
3.70618e-05
4.98664e-05
4.97961e-05
4.98726e-05
4.99186e-05
4.97573e-05
4.91752e-05
4.98755e-05
4.98667e-05
4.97727e-05
4.9882e-05
4.90973e-05
4.98436e-05
4.99157e-05
4.98101e-05
4.98895e-05
4.97613e-05
4.98552e-05
4.98337e-05
4.98124e-05
4.9522e-05
4.9826e-05
4.98386e-05
4.98736e-05
4.98462e-05
4.89073e-05
4.96738e-05
4.98867e-05
4.97716e-05
4.93655e-05
4.9858e-05
4.98614e-05
4.98776e-05
4.98639e-05
4.98808e-05
4.98261e-05
4.97279e-05
4.98597e-05
4.98557e-05
4.99199e-05
4.98655e-05
4.9887e-05
4.98469e-05
4.97543e-05
4.97162e-05
4.98524e-05
4.98704e-05
4.98846e-05
4.98768e-05
4.97103e-05
4.97146e-05
4.98559e-05
4.95998e-05
4.98658e-05
4.99185e-05
4.9843e-05
4.98502e-05
4.99114e-05
4.95845e-05
4.97105e-05
4.99578e-05
4.94899e-05
4.99391e-05
2.60445e-05
2.49402e-05
4.98444e-05
4.98357e-05
4.98632e-05
2.74062e-05
4.96251e-05
4.98238e-05
1.77663e-05
1.70027e-05
4.984e-05
4.97726e-05
4.98496e-05
4.97985e-05
4.97797e-05
4.98134e-05
4.96078e-05
4.97661e-05
4.97671e-05
4.96765e-05
4.95798e-05
4.97834e-05
4.97857e-05
4.98723e-05
4.95555e-05
4.95696e-05
4.98715e-05
4.90643e-05
4.97487e-05
4.94074e-05
4.93266e-05
4.88801e-05
4.96095e-05
4.93598e-05
4.98279e-05
4.9622e-05
4.93897e-05
4.90262e-05
4.98702e-05
4.98546e-05
4.98604e-05
4.9835e-05
4.97752e-05
4.91109e-05
4.97089e-05
4.98544e-05
4.98746e-05
4.98425e-05
4.97652e-05
4.9834e-05
4.98218e-05
4.98018e-05
4.98293e-05
4.95883e-05
4.95881e-05
4.98294e-05
4.87671e-05
4.97776e-05
4.98706e-05
4.93829e-05
4.87708e-05
4.95138e-05
6.08488e-06
4.91256e-05
4.98844e-05
4.98336e-05
2.55391e-05
2.44518e-05
4.98749e-05
2.49527e-05
4.97988e-05
4.8911e-05
4.98976e-05
4.97561e-05
4.9873e-05
4.98623e-05
4.98525e-05
2.8068e-05
2.68844e-05
4.97363e-05
4.97823e-05
1.57409e-05
1.50616e-05
4.98311e-05
4.98503e-05
4.98416e-05
4.86246e-05
4.99414e-05
4.97822e-05
4.89397e-05
4.98148e-05
4.98919e-05
2.62869e-05
4.89137e-05
4.9882e-05
4.97919e-05
4.98542e-05
2.53955e-05
4.9802e-05
8.06789e-06
4.98764e-05
4.91707e-05
4.95978e-05
4.98407e-05
4.97267e-05
4.95494e-05
4.96122e-05
4.98378e-05
4.98302e-05
4.98208e-05
4.98169e-05
4.9445e-05
4.97953e-05
4.98175e-05
4.98485e-05
4.9794e-05
4.96318e-05
4.98575e-05
5.00227e-05
1.00631e-05
4.97582e-05
4.96995e-05
4.9866e-05
4.97551e-05
4.98749e-05
2.46952e-05
2.36432e-05
2.42501e-05
4.98296e-05
4.98033e-05
4.97526e-05
4.14265e-06
4.96801e-05
4.98625e-05
4.98595e-05
4.98913e-05
1.37206e-05
1.31257e-05
4.98743e-05
4.98473e-05
1.20608e-05
4.98139e-05
4.97472e-05
4.98455e-05
-6.35468e-08
-7.28715e-08
-6.265e-08
4.9725e-05
4.98727e-05
4.98309e-05
4.90188e-05
4.98783e-05
4.97438e-05
4.98306e-05
4.92044e-05
3.45587e-05
4.97467e-05
4.95408e-05
2.33938e-05
4.96154e-05
4.86424e-05
4.9775e-05
4.98457e-05
4.98337e-05
4.98494e-05
4.92894e-05
4.98424e-05
1.93932e-06
1.85612e-06
1.40592e-05
4.98757e-05
4.9855e-05
3.50781e-05
4.97528e-05
4.98487e-05
4.9812e-05
4.98481e-05
4.98045e-05
2.41904e-05
2.31595e-05
4.98037e-05
4.98137e-05
4.97633e-05
4.9818e-05
4.97671e-05
4.98723e-05
4.97929e-05
2.75655e-05
2.63957e-05
4.95727e-05
4.99616e-05
4.9809e-05
4.98765e-05
4.9786e-05
4.98799e-05
4.98399e-05
4.98231e-05
4.98764e-05
4.91836e-05
4.98635e-05
4.98406e-05
4.95768e-05
4.9837e-05
4.98171e-05
4.97654e-05
4.97695e-05
2.13955e-05
4.98768e-05
4.76782e-06
4.99287e-06
4.97822e-05
2.29538e-05
2.33527e-05
2.23556e-05
4.96563e-05
4.98079e-05
4.93677e-05
4.97677e-05
4.9818e-05
4.97747e-05
4.96881e-05
4.97831e-05
4.97897e-05
4.98825e-05
4.94065e-05
4.9867e-05
4.96763e-05
4.98178e-05
2.55851e-05
4.97152e-05
4.91051e-05
4.98239e-05
4.93764e-05
4.9867e-05
4.98346e-05
4.94901e-05
4.97871e-05
4.98389e-05
2.75986e-06
2.62305e-06
4.90675e-05
2.2251e-05
4.93605e-05
4.97928e-05
4.98837e-05
4.96709e-05
4.9909e-05
4.97272e-05
4.98355e-05
4.98743e-05
2.67263e-05
2.55949e-05
2.49163e-05
4.96702e-05
4.98605e-05
4.9797e-05
4.98797e-05
4.89643e-05
4.98313e-05
4.98009e-05
4.98778e-05
4.98901e-05
4.98661e-05
4.97137e-05
4.89679e-05
2.21639e-05
2.12173e-05
4.98725e-05
4.98357e-05
4.9831e-05
4.97547e-05
4.98916e-05
4.97932e-05
4.97939e-05
4.98883e-05
4.98381e-05
4.9823e-05
4.96243e-05
4.98351e-05
4.97807e-05
2.09518e-05
4.98072e-05
2.13154e-05
2.04018e-05
4.97894e-05
4.90103e-05
4.97727e-05
4.9812e-05
4.98926e-05
4.98763e-05
4.99034e-05
2.62104e-05
2.50942e-05
2.42851e-05
4.98246e-05
4.98184e-05
2.02481e-05
2.08164e-05
1.99251e-05
4.92672e-05
4.97375e-05
4.97639e-05
4.97795e-05
4.97117e-05
4.98637e-05
4.98313e-05
4.97412e-05
4.98166e-05
4.85558e-05
1.96196e-05
4.966e-05
4.98775e-05
4.98317e-05
1.99736e-05
1.91171e-05
4.98742e-05
4.98156e-05
4.9831e-05
2.53744e-05
2.42968e-05
4.82979e-05
4.96852e-05
4.83293e-05
4.98258e-05
4.85243e-05
4.8609e-05
4.91611e-05
4.98785e-05
1.947e-05
1.8636e-05
3.48125e-05
2.3583e-05
4.85318e-05
4.98674e-05
1.82491e-05
1.86227e-05
1.78226e-05
2.73758e-05
2.85669e-05
2.93743e-05
3.05929e-05
2.29166e-05
2.48568e-05
2.37976e-05
4.98729e-05
4.92556e-05
4.97502e-05
3.25585e-05
4.98176e-05
4.98463e-05
1.76212e-05
1.81195e-05
1.73416e-05
4.98792e-05
4.98107e-05
4.98012e-05
4.61102e-05
3.82849e-05
4.98888e-05
4.97863e-05
4.98773e-05
2.75507e-06
1.69119e-05
4.97866e-05
1.72755e-05
1.6532e-05
4.98012e-05
4.8622e-05
4.98275e-05
2.22858e-05
2.40249e-05
2.29994e-05
1.6288e-05
4.74426e-05
1.677e-05
1.60483e-05
4.95742e-05
4.9757e-05
4.98971e-05
4.98348e-05
4.89049e-05
4.97592e-05
4.98713e-05
4.9806e-05
4.98335e-05
1.59272e-05
1.52398e-05
4.95911e-05
4.98754e-05
3.92111e-05
4.98828e-05
2.35071e-05
2.25034e-05
4.94529e-05
4.70083e-05
1.49108e-05
1.54193e-05
1.47536e-05
4.97662e-05
4.98567e-05
4.9895e-05
4.98456e-05
4.98871e-05
4.97587e-05
4.84902e-05
4.96704e-05
4.98344e-05
2.15828e-05
4.98926e-05
4.9878e-05
1.42882e-05
4.98794e-05
4.98166e-05
2.47118e-06
4.98643e-05
4.98053e-05
4.98067e-05
4.9909e-05
4.99045e-05
4.99033e-05
3.25492e-05
2.09151e-05
4.98578e-05
4.98168e-05
2.28281e-05
2.18531e-05
4.84687e-05
4.98401e-05
4.97845e-05
4.98591e-05
1.38963e-05
1.32929e-05
4.97805e-05
4.97576e-05
4.98593e-05
4.98402e-05
4.98556e-05
4.98891e-05
4.97548e-05
4.97083e-05
4.98764e-05
1.29111e-05
4.93838e-05
3.69304e-05
1.34045e-05
1.28241e-05
3.50155e-05
4.98807e-05
4.11241e-05
4.98495e-05
4.88741e-05
4.87701e-05
2.02845e-05
1.22856e-05
2.20096e-05
2.10694e-05
4.72281e-05
4.98789e-05
4.93527e-05
4.98388e-05
4.97565e-05
4.98296e-05
1.18699e-05
1.13512e-05
4.97472e-05
4.92394e-05
4.99008e-05
4.98754e-05
4.98773e-05
1.09117e-05
4.97912e-05
1.95797e-05
1.13775e-05
1.08814e-05
2.14823e-05
2.05617e-05
4.97858e-05
4.9855e-05
4.98663e-05
4.97582e-05
1.02863e-05
4.98159e-05
1.0531e-05
1.00696e-05
4.98827e-05
4.97822e-05
4.98556e-05
4.99039e-05
4.98674e-05
1.00264e-05
9.58666e-06
2.06496e-05
1.97643e-05
5.00606e-05
4.98128e-05
4.97473e-05
4.98844e-05
8.9135e-06
4.98107e-05
9.17927e-06
8.77434e-06
4.97677e-05
1.8953e-05
5.00868e-05
4.98296e-05
4.98333e-05
4.98904e-05
4.97695e-05
4.988e-05
8.28321e-06
8.6791e-06
8.2952e-06
4.98394e-05
1.82854e-05
4.97025e-05
4.98459e-05
2.01376e-05
1.92745e-05
4.98465e-05
4.98325e-05
4.97782e-05
6.91488e-06
4.95166e-05
7.13985e-06
6.8187e-06
1.75804e-05
1.9305e-05
1.8477e-05
2.80195e-05
2.92424e-05
4.97232e-05
6.65164e-06
6.35367e-06
4.94251e-05
6.27063e-06
4.90797e-05
4.98356e-05
3.00972e-05
3.12581e-05
4.97615e-05
3.45768e-05
4.77452e-05
4.87802e-05
5.77899e-06
5.51499e-06
3.31595e-05
4.48057e-05
4.98245e-05
4.97924e-05
4.9765e-05
4.98645e-05
1.69536e-05
3.24519e-06
3.08678e-06
4.9917e-05
1.87859e-05
1.79794e-05
5.27584e-06
5.03311e-06
4.98418e-05
4.97759e-05
4.98456e-05
4.97459e-05
4.9827e-05
4.90039e-06
1.62427e-05
4.98412e-05
4.99079e-05
1.79551e-05
1.71833e-05
4.98849e-05
4.97813e-05
4.98173e-05
4.97851e-05
3.58223e-06
3.39691e-06
4.95777e-05
4.98694e-05
4.97996e-05
4.97435e-05
4.97451e-05
4.98193e-05
4.96495e-05
1.74364e-05
1.66858e-05
4.92752e-05
4.98414e-05
4.97726e-05
4.79824e-05
4.91336e-05
1.56203e-05
4.98447e-05
4.98834e-05
1.49515e-05
3.28861e-05
4.18743e-06
3.25791e-05
1.66046e-05
1.5889e-05
4.97792e-05
1.78632e-06
4.9852e-05
4.68727e-05
4.97267e-05
4.78884e-05
4.98931e-05
1.4242e-05
4.97071e-05
1.60853e-05
1.53908e-05
4.98421e-05
3.09278e-05
4.98955e-05
1.5251e-05
1.45916e-05
4.87626e-05
4.52719e-05
4.98875e-05
1.36213e-05
4.99201e-05
1.2951e-05
1.6654e-06
1.52816e-06
4.9583e-05
4.96788e-05
1.45772e-05
1.39463e-05
4.97862e-05
4.98854e-05
4.98616e-05
4.98156e-05
4.98787e-05
4.98818e-05
1.22417e-05
4.97736e-05
1.40728e-05
1.34628e-05
4.81699e-05
4.98802e-05
4.98346e-05
4.98442e-05
4.98234e-05
4.98142e-05
4.98209e-05
1.3227e-05
1.26521e-05
4.98568e-05
1.1619e-05
4.98994e-05
4.98496e-05
2.30663e-06
1.09512e-05
4.93757e-05
1.25573e-05
1.20118e-05
4.92806e-05
4.87841e-05
4.96787e-05
4.98494e-05
4.98428e-05
4.98203e-05
4.98664e-05
1.0244e-05
4.97328e-05
4.90895e-05
1.20517e-05
1.15268e-05
4.71031e-05
5.23272e-05
4.94689e-05
5.01144e-05
4.93951e-05
4.9733e-05
1.12093e-05
1.07191e-05
4.97663e-05
4.94246e-05
9.61899e-06
4.97868e-05
4.93983e-05
4.94149e-05
8.94889e-06
1.06997e-05
1.02322e-05
3.19319e-05
4.96628e-05
4.97147e-05
5.00825e-05
4.94231e-05
4.9825e-05
3.09698e-05
4.03188e-05
4.98368e-05
4.97147e-05
8.24519e-06
9.85843e-06
9.42555e-06
5.00518e-05
4.97132e-05
4.98668e-05
4.98803e-05
4.9901e-05
4.97801e-05
4.97834e-05
9.34923e-06
8.93755e-06
4.7656e-05
4.47321e-05
7.61576e-06
4.86238e-05
4.97201e-05
4.94651e-05
4.9839e-05
4.02461e-05
6.94161e-06
4.97734e-05
8.50294e-06
8.12603e-06
4.95565e-05
4.98432e-05
6.24408e-06
7.83002e-06
7.48197e-06
4.98151e-05
3.89944e-05
4.6919e-05
4.97849e-05
4.98605e-05
4.9859e-05
7.32971e-06
7.00226e-06
3.11895e-05
4.97787e-05
4.94522e-05
5.00356e-05
4.9688e-05
5.58902e-06
4.95087e-05
6.47082e-06
6.17816e-06
4.98506e-05
4.97622e-05
4.89584e-06
4.95336e-05
4.98108e-05
3.47233e-05
5.96534e-06
5.69532e-06
4.97953e-05
5.00404e-05
4.95021e-05
4.2249e-06
4.94226e-05
1.65863e-06
1.66836e-06
1.74658e-06
4.93375e-05
5.07996e-06
4.84291e-06
3.00241e-05
4.97215e-05
4.97623e-05
4.99148e-05
4.94658e-05
4.98211e-05
4.98882e-05
4.96899e-05
4.3703e-06
4.16051e-06
4.96329e-05
4.83534e-05
4.97122e-05
4.07932e-05
3.90516e-06
3.71941e-06
4.9663e-05
4.97604e-05
3.331e-05
4.97309e-05
4.96671e-05
4.96887e-05
4.96318e-05
3.69019e-05
4.96964e-05
4.54632e-05
4.97371e-05
3.21982e-05
4.98376e-05
4.97514e-05
4.96783e-05
4.98854e-05
4.78862e-05
4.58507e-05
4.73585e-05
4.39314e-05
4.94753e-05
4.98407e-05
3.45864e-06
4.96553e-05
4.97819e-05
2.83908e-06
2.68337e-06
3.47339e-05
1.88002e-06
4.97233e-05
4.59052e-05
4.997e-05
4.93716e-05
4.99825e-05
4.96183e-05
4.75182e-05
3.25364e-05
4.98822e-05
4.97035e-05
4.93427e-05
4.91193e-05
4.97514e-05
4.98339e-05
4.98631e-05
3.46387e-05
2.62948e-06
3.3814e-05
4.81092e-05
4.97262e-05
2.07925e-06
1.20381e-06
1.32871e-06
4.98114e-05
4.98572e-05
4.9627e-05
4.98652e-05
4.94621e-05
3.37112e-05
1.82931e-06
1.87397e-06
1.81488e-06