/*--------------------------------*- C++ -*----------------------------------*\
  =========                 |
  \\      /  F ield         | OpenFOAM: The Open Source CFD Toolbox
   \\    /   O peration     | Website:  https://openfoam.org
    \\  /    A nd           | Version:  7
     \\/     M anipulation  |
\*---------------------------------------------------------------------------*/
FoamFile
{
    version     2.0;
    format      ascii;
    class       volScalarField;
    location    "48";
    object      p;
}
// * * * * * * * * * * * * * * * * * * * * * * * * * * * * * * * * * * * * * //

dimensions      [0 2 -2 0 0 0 0];

internalField   nonuniform List<scalar> 
591
(
0.000123936
0.000123954
0.000123962
0.000123917
0.000123919
0.00012399
0.000123988
0.00012395
0.000117008
0.000123964
0.000124136
0.000122871
0.00012396
0.000119756
0.000123951
0.000124005
0.000123913
0.000123992
0.000121982
0.000123334
0.000123927
-3.52472e-06
0.000124135
0.000123931
0.000124093
0.000123951
0.00012404
0.000124054
0.000123963
0.000123978
0.000124113
0.000124089
0.000124108
0.000124107
0.000124109
0.000123438
0.000124104
0.000123933
0.00012413
0.000124049
0.000124023
0.000124101
0.00012396
0.00012398
0.000124098
0.000124117
0.00011928
0.00012412
0.000123966
0.000124082
0.000124059
0.000124095
2.39406e-05
3.05884e-05
4.78511e-05
0.000123964
0.000124124
0.000124108
0.000124118
0.000123937
0.000124022
0.000123955
0.000123955
0.000124006
0.000122596
0.000123955
0.00012396
0.000124116
0.000120764
0.00012397
0.000123964
0.000124122
0.000124085
0.000124102
0.000124108
0.000124084
0.000123931
0.000124119
0.000123934
0.000123862
0.000123713
0.000124124
0.000124085
0.000124058
0.000124131
0.000123945
0.000124037
0.000124114
0.000124077
0.00012383
0.00012409
0.000124028
0.000124049
0.000123939
0.000124129
0.000124084
0.000123642
0.000123541
0.000123686
0.000124134
0.000124045
0.000123956
0.000124138
0.000123919
0.000124138
0.000123958
0.000123953
0.000124088
0.000124128
0.000124132
0.000124018
0.000124106
0.000123972
0.000124113
0.000124132
0.000124109
0.00012406
0.000124063
0.000123619
0.000124028
0.000123957
0.000123959
0.00012402
0.000123941
0.000124103
0.000120236
0.000124136
0.000124111
0.000123712
0.000124109
0.000123948
0.000123636
0.000124071
0.000124068
0.000124112
0.000123965
0.000122632
0.000124137
0.000123952
0.000123619
0.000123684
0.000124038
0.000124115
0.00012413
0.000124125
7.61518e-06
3.67757e-06
2.07136e-06
3.8158e-05
3.67e-05
5.65935e-06
3.83064e-05
1.5742e-05
3.72847e-05
1.78079e-05
0.000123956
0.000123946
0.000124123
0.00012412
0.000124127
0.000124125
0.000124118
0.000124116
0.000124121
0.000124122
0.000124083
0.000124128
0.000124123
0.000124129
0.000124061
0.000123425
0.00012413
0.000122164
0.000124105
0.000124111
0.000124055
0.000123965
0.000124111
0.000124123
0.000124118
0.00012353
0.000122513
0.000123084
0.000123487
0.000124115
0.00012412
0.000124049
0.00012393
0.000124114
0.000122998
0.000123346
0.000123931
0.00012411
0.000123805
0.000124104
0.000124114
0.000124087
0.000123775
0.000123919
0.000124112
0.00012412
0.000124116
0.000123912
0.000124099
0.000123907
0.00012413
0.000123951
0.000123949
0.000124126
0.00012374
0.000123921
0.000123962
0.000123588
0.000124076
0.000123734
0.000124021
0.000124027
0.000124103
0.000123503
0.000124013
0.000123911
0.000123916
0.000124085
0.000123842
0.000124002
0.000123911
0.00012382
0.000123909
0.000124132
0.000123885
0.000124126
0.000123969
0.000124101
0.000123955
0.000123954
0.000124133
0.000123853
0.000124122
0.000123844
0.00012389
0.000123958
0.000123935
0.000123969
0.000123956
0.000123721
0.000123928
0.000123877
0.000124093
0.000123949
0.000123789
0.00012408
0.000123345
0.000123892
0.000123242
0.000123119
0.000123941
0.000123907
0.000123942
0.000123938
0.000123899
0.000124131
0.000123985
0.000124069
0.000123989
0.000123989
0.000124002
0.000124081
0.000123734
0.000124126
0.000123772
0.000123663
0.000123975
0.000124101
0.000123683
0.000124125
0.000124028
0.000124066
0.000124083
0.000123967
0.00012393
0.00012375
0.000123902
0.000123922
0.000123977
0.000124026
0.000124098
0.000124112
0.000124119
0.000123884
0.000123984
0.000124105
0.000124113
0.000124109
0.000123907
0.000124121
0.000123992
0.000124097
0.000123872
0.000124121
0.000123862
0.000124099
0.000123996
0.000123931
1.16415e-05
2.19115e-05
0.000123897
0.000123959
0.000124128
0.000123891
0.000124129
0.000123971
0.000124121
0.0001241
0.000123848
0.000124094
0.000123926
0.000124124
0.000123963
-2.09342e-07
0.00012381
0.000124104
0.0001241
0.000123809
0.000123941
0.000123978
0.000124095
0.00012387
0.000124115
0.000124006
0.000123956
0.000124093
0.000123915
0.000123842
0.00012387
0.000123968
4.74599e-05
0.00012411
0.000124093
0.000123953
0.000124116
0.000124032
0.000123976
0.000123954
0.000123949
0.000124103
0.000123978
0.000123884
0.000123992
0.000123886
0.000124115
0.000123894
0.000123945
0.000123983
0.000124067
1.98717e-05
2.73042e-05
3.42959e-05
9.63764e-06
0.000123933
3.30551e-05
2.60136e-05
0.000124113
1.9073e-05
1.703e-05
3.81874e-05
7.56987e-06
3.99404e-05
5.59877e-06
4.08352e-05
3.68709e-06
4.28191e-05
1.87668e-06
3.63957e-05
2.31917e-05
2.94404e-05
1.49929e-05
0.000123807
0.000124123
0.000124001
0.000124007
0.000120927
0.000124056
0.000124118
0.000124089
0.000123904
0.000124124
0.00012412
0.000124105
0.000124103
0.000123871
0.00012395
0.000124103
0.000124108
0.000123947
0.000123828
0.000123866
0.000123447
0.000123901
0.000124134
0.000124109
0.000123962
0.000124131
0.000123808
0.000123975
0.000123766
0.000122898
0.000124104
0.000124114
0.000124133
0.000123817
0.000123988
0.000123766
0.000123972
0.00012396
2.60482e-05
2.18736e-05
3.30348e-05
1.16198e-05
0.000124138
0.000123813
1.98176e-05
2.82557e-05
3.56028e-05
9.5852e-06
0.00012395
0.000124058
0.000123909
0.000123918
0.000123956
0.000124067
0.00012386
0.0001241
0.000124032
0.00012314
0.000123923
0.00012389
5.9343e-05
0.000123264
0.000124128
0.000123941
0.000123843
0.000124117
0.00012412
0.000123927
0.000123723
0.000123956
0.000124029
0.000123804
0.000124075
0.000122954
0.000123897
0.0001239
0.000124076
0.000100872
0.000123925
0.000123528
0.000123876
0.000124129
0.000123774
1.08957e-05
2.11118e-05
3.53674e-05
2.82049e-05
1.36661e-05
5.584e-08
4.20714e-05
2.68969e-06
4.0156e-05
4.7595e-06
3.94172e-05
6.81168e-06
3.8625e-05
8.85527e-06
3.72907e-05
1.36743e-05
3.17256e-05
3.05887e-05
2.39388e-05
2.52588e-05
1.77665e-05
1.29386e-05
1.57114e-05
0.000124122
0.000102458
0.000123934
0.000123872
0.000124126
0.00012402
0.000124132
0.000123851
0.000123989
0.000124095
0.000124091
0.000124107
0.000123856
0.000123961
0.000123841
0.000124059
0.0001239
0.000124127
0.000123987
0.000123819
0.000123823
0.000123971
0.000123965
0.000124133
0.000124124
0.00012413
0.000124095
0.000124134
0.000123768
0.000123956
0.000124128
0.0001239
0.000124031
0.000123957
0.000123983
0.000123835
0.000124094
0.000124093
0.000123407
0.000121411
0.000123137
0.000123681
0.000123956
0.000123784
0.00012397
0.000124132
0.000124091
0.000123961
0.000123569
0.000123552
0.000124128
0.000124097
0.000123979
0.000124064
0.000123606
5.83348e-05
4.01109e-05
0.000124069
0.000124086
0.000123448
0.000122791
0.00012394
0.00012367
0.000123415
0.000123956
0.000123842
0.000124112
0.000123984
0.000124013
0.000119032
5.44707e-05
0.000123981
8.12397e-05
1.86259e-06
-3.79884e-07
0.00012395
0.000123921
0.000124096
0.000124134
0.000124121
0.000124127
0.000124123
0.000123936
-2.30684e-06
0.000122873
0.000123972
0.000124076
0.000122041
0.000124126
0.000124126
0.000122334
0.00012405
0.000124098
0.000121725
0.000124127
7.63769e-05
0.000124125
0.000123689
0.000124089
0.000122418
0.000123659
0.000123706
0.000123984
0.000124129
0.000124083
0.000124125
0.000124136
0.000123963
0.000116216
)
;

boundaryField
{
    back
    {
        type            empty;
    }
    ingreso
    {
        type            zeroGradient;
    }
    salida
    {
        type            fixedValue;
        value           uniform 0;
    }
    front
    {
        type            empty;
    }
    defaultFaces
    {
        type            zeroGradient;
    }
}


// ************************************************************************* //
