# Residuals   
# Time        	p             	Ux            	Uy            
78            	N/A	N/A
