/*--------------------------------*- C++ -*----------------------------------*\
  =========                 |
  \\      /  F ield         | OpenFOAM: The Open Source CFD Toolbox
   \\    /   O peration     | Website:  https://openfoam.org
    \\  /    A nd           | Version:  8
     \\/     M anipulation  |
\*---------------------------------------------------------------------------*/
FoamFile
{
    version     2.0;
    format      ascii;
    class       volScalarField;
    location    "5.8";
    object      p;
}
// * * * * * * * * * * * * * * * * * * * * * * * * * * * * * * * * * * * * * //

dimensions      [0 2 -2 0 0 0 0];

internalField   nonuniform List<scalar> 
4280
(
5.29159e-06
1.32409e-06
5.28855e-06
5.16361e-06
2.96126e-06
3.44407e-06
2.78778e-06
1.26681e-06
3.1846e-06
5.32773e-07
5.27982e-06
6.58444e-07
5.28795e-06
5.07478e-06
2.8762e-06
1.46563e-06
4.29273e-06
4.14357e-06
4.76085e-06
1.32616e-06
5.27185e-06
8.12401e-07
5.24192e-06
2.06504e-06
2.17035e-06
6.69759e-07
8.8544e-07
2.44584e-06
1.74475e-06
4.09594e-06
2.90293e-06
4.07111e-07
3.46733e-06
3.34057e-06
5.2184e-06
1.61212e-06
3.23388e-06
4.26156e-06
6.0547e-07
3.25658e-06
4.93349e-06
4.03188e-06
4.73764e-06
1.91375e-06
5.84378e-07
4.29427e-06
4.20346e-06
1.56572e-06
2.34879e-06
3.37973e-06
3.3852e-06
1.53582e-06
1.75202e-06
4.82397e-06
5.07852e-06
1.39546e-06
4.66989e-06
2.93697e-06
2.5899e-06
1.49531e-06
1.60948e-06
1.11722e-06
3.92663e-06
3.36907e-06
2.51873e-06
1.12845e-06
4.6977e-06
4.95825e-06
1.46366e-06
1.34854e-06
8.52027e-07
1.94132e-06
9.5067e-07
3.15751e-06
5.0068e-06
4.75473e-06
2.56347e-06
3.97688e-07
1.67985e-06
4.64248e-06
5.94014e-07
9.75994e-07
5.27923e-06
1.64558e-06
2.89023e-06
4.64447e-06
6.76313e-07
7.91617e-07
4.5967e-06
1.3238e-07
1.13988e-06
4.51508e-06
2.92749e-07
6.48913e-07
3.87031e-06
1.42752e-06
3.41153e-06
1.53756e-06
2.7406e-06
1.82227e-06
3.32137e-06
3.91223e-06
2.18921e-06
2.41673e-06
1.42335e-06
3.38583e-06
3.49896e-06
3.7341e-06
2.1064e-06
4.87669e-06
4.80361e-06
3.49927e-06
2.95847e-06
4.74025e-06
5.27487e-06
2.01085e-06
5.15468e-06
4.0037e-06
4.85395e-06
5.12068e-06
4.29863e-06
1.00043e-06
1.17955e-06
9.90701e-07
2.65965e-06
4.46793e-06
4.886e-06
7.99065e-07
5.28468e-06
3.4429e-06
2.85759e-06
1.47105e-06
9.6168e-07
2.69595e-06
4.08419e-06
9.57559e-08
2.33029e-06
1.4792e-06
1.5624e-06
1.37392e-06
3.3721e-06
4.75053e-07
5.1206e-06
3.4498e-06
3.0973e-06
3.24097e-06
5.24924e-06
6.92808e-07
4.97115e-06
3.23668e-06
4.58642e-06
4.3972e-06
1.10234e-06
4.97779e-06
3.99017e-06
1.29745e-06
4.76669e-06
1.83402e-06
2.98877e-06
2.21333e-06
3.1695e-06
3.76685e-06
5.28471e-06
4.41358e-06
3.99421e-06
4.59315e-06
1.37284e-06
2.31401e-06
1.60747e-06
5.95882e-07
2.51195e-06
9.69883e-07
3.02787e-06
9.48906e-08
4.94727e-06
5.37784e-07
4.95518e-06
3.55004e-06
8.66138e-07
2.02349e-06
4.87013e-06
4.78075e-06
4.79596e-06
3.62816e-06
3.14422e-06
3.83257e-06
4.16344e-06
5.22604e-06
1.71613e-06
3.38879e-07
4.96817e-06
3.99347e-06
1.79089e-06
1.79645e-06
8.0165e-07
3.91221e-06
2.12582e-06
3.06445e-06
1.8323e-06
3.50893e-06
4.85969e-06
4.51445e-06
1.89389e-06
7.6684e-07
2.16722e-06
3.79658e-06
2.66236e-06
9.56832e-07
1.75492e-06
2.39636e-06
2.45927e-06
4.98911e-06
2.65296e-06
4.99771e-06
1.11624e-06
4.04446e-06
5.11402e-06
2.61056e-06
8.98711e-07
4.74798e-06
1.50401e-06
5.27188e-06
4.35607e-06
4.60607e-06
3.89023e-06
4.82764e-06
4.86726e-06
2.57336e-06
3.54741e-06
3.81601e-06
5.21623e-06
1.71798e-06
5.27981e-06
4.37354e-06
1.93525e-06
5.22257e-06
4.23278e-06
2.81605e-06
4.58724e-06
8.33742e-07
1.19526e-06
3.57782e-06
3.39729e-06
4.55089e-06
1.35896e-06
8.38181e-07
8.88549e-07
1.27819e-06
1.16951e-06
1.06434e-06
3.85016e-06
2.36326e-06
3.69994e-06
7.27609e-07
4.92842e-07
1.53857e-06
5.06611e-06
2.15098e-06
5.06834e-06
3.97089e-06
4.01852e-06
5.21861e-06
4.88642e-06
7.1609e-07
4.89235e-06
2.38446e-06
3.2246e-06
3.09226e-06
3.38867e-06
4.59684e-06
1.73281e-07
2.22603e-06
1.52179e-06
2.26711e-06
2.58251e-06
1.59355e-06
4.95156e-06
1.27229e-06
2.43894e-06
5.06793e-06
2.57487e-06
3.8256e-06
1.42334e-06
5.24562e-06
2.21581e-06
5.27094e-06
3.55006e-06
1.34517e-06
2.08981e-06
8.96044e-07
6.25034e-07
4.24637e-07
3.3039e-07
3.64667e-06
3.32341e-06
4.38349e-06
3.81786e-07
4.15087e-06
1.16394e-06
2.79854e-06
4.21215e-06
5.3576e-06
3.38664e-06
5.18525e-06
7.45772e-07
1.05096e-06
5.25613e-06
5.24292e-06
3.50518e-06
5.96868e-07
1.86324e-06
5.2451e-06
1.68101e-06
4.28824e-06
4.39795e-06
5.36273e-07
5.2572e-06
4.61157e-06
9.88782e-07
9.91022e-07
4.67515e-06
4.97305e-06
4.64761e-08
2.363e-06
5.83998e-07
5.02932e-06
4.59873e-07
4.75066e-06
1.61301e-06
2.24424e-06
5.19686e-06
7.20577e-07
3.66646e-06
4.66703e-06
3.75345e-06
5.39245e-07
1.57819e-06
3.15153e-06
3.60283e-06
1.66532e-06
5.21562e-06
1.66013e-06
4.01083e-06
2.54258e-06
6.88631e-07
1.73627e-06
4.40749e-06
4.86613e-06
7.66947e-07
2.44454e-06
4.51573e-06
4.70146e-06
4.39702e-06
5.58812e-07
5.20418e-06
4.05971e-06
3.24565e-06
4.63987e-06
1.24518e-06
2.52022e-06
5.26529e-06
4.46783e-06
4.222e-06
2.00761e-06
2.32903e-06
3.56339e-06
2.92198e-06
4.13992e-06
2.50453e-06
3.42894e-06
7.11859e-07
2.66627e-06
1.31716e-06
4.99241e-06
3.16745e-06
3.88633e-06
2.6815e-06
5.27508e-06
4.60077e-07
3.91812e-06
5.25525e-06
4.51537e-06
5.28367e-06
4.61207e-06
5.15764e-07
3.28079e-06
4.68659e-06
4.75257e-07
4.23722e-06
4.89901e-06
4.35266e-06
5.32328e-07
4.57336e-06
5.04135e-06
3.50246e-06
2.7509e-06
8.40354e-07
5.18362e-06
5.08346e-06
2.95294e-06
4.05819e-06
1.46456e-06
7.93565e-07
8.43931e-07
2.72331e-06
4.28616e-06
3.23902e-06
2.22118e-06
1.04572e-06
3.67352e-06
1.58962e-06
5.28158e-06
3.66119e-06
2.43852e-06
1.77311e-06
5.03818e-07
5.26465e-06
2.06005e-06
4.11025e-06
4.73543e-06
5.36629e-07
4.62047e-06
2.46184e-06
4.35337e-06
2.45635e-06
3.5966e-06
2.67691e-06
3.90528e-06
3.54357e-06
3.73498e-06
1.5873e-06
3.36767e-06
4.63034e-06
4.15154e-06
5.22182e-06
5.02283e-06
5.15697e-06
1.539e-06
5.01041e-06
4.9684e-06
3.182e-06
1.94577e-06
4.59449e-06
1.82485e-07
1.86608e-06
3.99728e-06
4.92751e-06
4.39263e-06
4.83379e-06
4.31674e-06
5.04163e-06
4.89297e-06
3.66496e-06
4.41384e-06
3.31097e-07
4.56457e-06
3.99217e-06
4.30544e-06
4.8136e-06
5.11988e-06
3.96488e-06
5.82983e-06
4.55934e-06
5.29442e-06
1.07715e-06
4.02751e-06
4.30187e-06
3.80326e-06
4.43473e-06
3.15101e-07
5.87232e-07
4.79868e-06
4.85795e-06
5.59049e-07
2.85017e-07
4.84574e-06
1.88767e-06
4.01436e-06
1.7369e-06
3.50915e-06
6.2753e-06
4.82577e-06
3.14339e-06
1.93627e-06
1.31718e-06
6.10057e-07
3.3358e-06
5.17833e-06
4.53145e-06
5.0753e-06
3.16192e-06
4.63571e-06
4.89373e-06
7.28965e-07
5.28846e-06
4.47847e-06
3.89647e-06
3.72739e-06
1.64463e-06
3.61282e-06
3.40181e-06
5.06501e-06
4.20023e-06
4.86433e-06
4.40024e-06
3.78398e-06
2.37016e-06
2.12769e-06
2.21289e-06
5.16507e-06
2.62663e-06
4.88631e-06
4.8731e-06
5.26649e-06
3.65837e-06
1.54291e-06
4.68307e-06
5.18345e-06
6.08615e-07
4.42603e-06
3.5331e-06
4.27091e-06
5.42901e-07
4.48997e-06
4.99356e-06
4.7875e-06
4.1459e-06
2.05543e-06
5.16955e-06
4.65713e-06
1.96613e-06
4.05012e-06
4.46217e-06
4.20828e-06
5.0457e-06
3.39901e-06
6.40306e-07
3.17852e-06
3.8273e-06
3.5191e-06
7.68729e-07
5.23975e-06
5.11518e-06
5.18836e-06
4.03937e-06
5.30501e-06
9.0079e-07
6.10979e-07
5.17286e-06
3.90432e-06
4.24726e-06
4.05028e-06
3.31617e-06
5.28582e-06
4.7214e-06
5.07142e-06
4.06433e-06
1.24121e-06
4.40663e-06
2.98249e-06
5.21961e-06
3.75517e-06
9.15622e-07
3.01507e-06
5.11831e-06
8.61359e-07
4.04015e-06
6.13733e-07
4.38161e-06
2.18081e-06
3.67563e-06
4.75415e-06
5.1868e-06
5.09559e-06
7.95102e-07
4.38549e-07
4.98689e-06
7.25743e-07
3.84215e-06
4.11944e-06
6.55239e-07
5.19537e-07
4.09782e-06
3.87014e-06
4.3323e-06
4.038e-06
5.34238e-06
3.84088e-06
4.65484e-06
5.2631e-06
3.43132e-06
2.86924e-06
4.80371e-06
4.74939e-06
4.74913e-06
8.91543e-07
3.50173e-06
3.69339e-06
4.5486e-06
3.2297e-06
5.22724e-06
5.23785e-06
5.2528e-06
1.31155e-06
4.61931e-06
5.24952e-06
4.13513e-06
3.17439e-06
2.74148e-06
4.73671e-06
5.17319e-06
3.94405e-06
5.41375e-07
1.95544e-06
6.23863e-07
2.48254e-06
5.26485e-06
4.03006e-06
1.81738e-06
3.95229e-06
5.20493e-06
5.27989e-06
1.46699e-06
3.56977e-06
6.50587e-07
5.29037e-06
3.21447e-06
4.6704e-06
5.25935e-06
5.22903e-06
5.93618e-07
4.29138e-07
2.83817e-06
4.03255e-06
5.28214e-06
3.28733e-06
5.41545e-06
3.18942e-06
3.95502e-06
4.17509e-06
2.17998e-06
5.29572e-06
3.44187e-06
5.41401e-06
5.4493e-07
4.87884e-06
3.55194e-06
5.12909e-06
5.38764e-06
2.94975e-06
3.53378e-06
4.10976e-06
6.86052e-07
5.20244e-06
2.99548e-06
5.21357e-06
6.65635e-07
5.15799e-06
4.6888e-06
3.7741e-06
5.24302e-06
3.30026e-06
3.4637e-07
4.13074e-06
3.88094e-06
3.33571e-06
3.36177e-06
3.35726e-06
4.13358e-06
2.89213e-06
4.89462e-06
5.11688e-06
4.71717e-07
3.1842e-06
3.32388e-06
3.49956e-06
4.05962e-06
5.08127e-06
3.94282e-06
5.29851e-06
5.57753e-07
5.30102e-06
5.03538e-06
4.16563e-06
4.28505e-06
4.35296e-06
4.03584e-06
4.22013e-06
5.19554e-06
3.31791e-06
3.9159e-06
3.29541e-06
3.36838e-06
4.18158e-06
4.02409e-06
2.82323e-06
3.03145e-06
5.39659e-06
3.49075e-06
2.88584e-06
4.06496e-06
3.86183e-06
7.83313e-07
4.333e-06
3.40055e-06
2.73721e-06
4.91223e-06
3.68783e-06
3.49588e-06
4.86334e-06
3.47946e-06
1.59332e-06
5.23327e-06
3.88482e-06
3.81479e-06
3.44651e-06
4.34683e-06
4.09691e-06
4.64065e-06
3.59627e-06
5.27498e-06
4.09875e-06
3.61686e-06
5.10011e-06
3.38513e-06
5.41089e-06
5.36451e-06
5.28274e-06
3.45183e-06
5.29311e-06
3.39912e-06
8.55088e-07
6.97278e-07
7.57165e-07
3.97829e-06
5.28339e-06
3.9194e-06
2.78005e-06
5.28286e-06
3.58456e-06
5.27256e-06
2.90922e-06
5.2456e-06
5.27482e-06
3.56183e-06
3.77392e-06
4.97537e-06
3.51196e-06
2.95609e-06
3.30421e-06
5.28722e-06
5.18763e-06
3.37961e-06
3.79084e-06
3.1086e-06
3.31968e-06
2.7977e-06
3.01497e-06
3.82002e-06
3.05221e-06
7.70369e-07
5.21811e-06
4.73646e-06
3.45251e-06
3.83562e-06
3.25981e-06
3.60813e-06
3.25368e-06
3.19694e-06
5.126e-06
5.92223e-07
3.30179e-06
3.9833e-06
5.28128e-06
5.31647e-06
3.37109e-06
3.5454e-06
4.69461e-06
3.08824e-06
5.17173e-07
8.49991e-07
3.79271e-06
5.28468e-06
3.78856e-06
3.738e-06
3.41281e-06
5.29921e-06
4.16398e-06
3.19547e-06
3.28898e-06
5.26153e-06
4.075e-06
5.28941e-06
3.56445e-06
4.25377e-06
2.92454e-06
3.749e-06
9.11989e-07
3.1535e-06
3.7231e-06
2.90377e-06
5.27383e-06
3.31208e-06
3.24453e-06
5.28837e-06
5.27641e-06
3.04624e-06
3.94336e-06
3.68979e-06
1.88133e-06
6.17349e-07
3.67814e-06
3.61215e-06
-1.26224e-07
3.35922e-06
3.23312e-06
5.26059e-06
5.29059e-06
1.75094e-06
5.14659e-06
3.23333e-06
3.71644e-06
3.76887e-06
3.2645e-06
3.90988e-06
2.28848e-06
3.63312e-06
5.26682e-06
3.86649e-06
5.29368e-06
3.66855e-06
3.81334e-06
3.13975e-06
3.74314e-06
3.4771e-06
3.75403e-06
3.66979e-06
5.16263e-06
3.61305e-06
4.15186e-06
3.00557e-06
3.64265e-06
3.83214e-06
3.18283e-06
2.83375e-06
3.46786e-06
3.14644e-06
3.56511e-06
5.28501e-06
3.10178e-06
5.28604e-06
2.92881e-06
3.65188e-06
3.62755e-06
4.29133e-06
3.63649e-06
8.41455e-07
3.11012e-06
3.8615e-06
3.5566e-06
3.17246e-06
3.2009e-06
5.26429e-06
3.75569e-06
5.18685e-06
3.06941e-06
3.57037e-06
5.04322e-06
4.10137e-06
3.59346e-06
3.72851e-06
3.86032e-06
3.68364e-06
3.11532e-06
3.09014e-06
3.68693e-06
4.89224e-06
4.28008e-06
3.58949e-06
3.66628e-06
3.48967e-06
3.59546e-06
9.80899e-07
5.28458e-06
3.63731e-06
3.04913e-06
3.57464e-06
3.13869e-06
3.67624e-06
3.49689e-06
3.69257e-06
3.46866e-06
2.55893e-06
3.62845e-06
5.26612e-06
9.3736e-07
3.33214e-06
3.5656e-06
3.51658e-06
2.81899e-06
5.20587e-06
3.75548e-06
3.5999e-06
3.14508e-06
3.53355e-06
3.66055e-06
2.59019e-06
3.3681e-06
2.61826e-06
3.14036e-06
3.41518e-06
3.52995e-06
3.07306e-06
5.28965e-06
3.06012e-06
5.26494e-06
3.54332e-06
3.61869e-06
9.7245e-07
3.04064e-06
2.37849e-06
3.5292e-06
3.0155e-06
3.43856e-06
9.12047e-07
3.04737e-06
2.42389e-06
3.17181e-06
3.49869e-06
3.33445e-06
5.25315e-06
2.48577e-06
3.5521e-06
3.06075e-06
2.50379e-06
2.44215e-06
3.44066e-06
3.5146e-06
3.47147e-06
3.57303e-06
4.99874e-06
2.96966e-06
3.58493e-06
3.34102e-06
3.46757e-06
3.39399e-06
3.43537e-06
3.15031e-06
2.99232e-06
3.40415e-06
2.67102e-06
3.04264e-06
3.51086e-06
2.94858e-06
2.92051e-06
3.26417e-06
5.29082e-06
3.3739e-06
2.99617e-06
3.3603e-06
2.9493e-06
2.86336e-06
2.98484e-06
3.26723e-06
3.48916e-06
1.00971e-06
3.30613e-06
3.37659e-06
3.0988e-06
3.30749e-06
3.28376e-06
2.81376e-06
3.29633e-06
2.62455e-06
3.43425e-06
3.31764e-06
2.44503e-06
2.75737e-06
3.6914e-06
2.71447e-06
3.51418e-06
2.72713e-06
2.21701e-06
3.45145e-06
2.99188e-06
2.83172e-06
3.40915e-06
3.24972e-06
3.19375e-06
2.87364e-06
1.71292e-06
2.77649e-06
3.20781e-06
2.77124e-06
3.35754e-06
2.71899e-06
3.28092e-06
2.82215e-06
3.19396e-06
4.65293e-06
2.72523e-06
2.79072e-06
2.56596e-06
1.03009e-06
3.2613e-06
3.3751e-06
2.66297e-06
3.40596e-06
3.2164e-06
3.12044e-06
3.34286e-06
3.16893e-06
3.07876e-06
3.20436e-06
2.66531e-06
2.74828e-06
2.78983e-06
3.22729e-06
2.54411e-06
3.39033e-06
2.75842e-06
5.28055e-06
3.23796e-06
2.68868e-06
2.71386e-06
2.44846e-06
2.59316e-06
3.15625e-06
3.22724e-06
3.04374e-06
2.75328e-06
3.13104e-06
2.63328e-06
2.39406e-06
3.04881e-06
3.04706e-06
2.56773e-06
2.62741e-06
2.92954e-06
3.23924e-06
3.15116e-06
2.63261e-06
3.18882e-06
3.29913e-06
3.04287e-06
2.59021e-06
3.38526e-06
3.05367e-06
3.09473e-06
3.27899e-06
2.53668e-06
3.17313e-06
3.13197e-06
3.20534e-06
3.08753e-06
2.46599e-06
2.69231e-06
2.21038e-06
2.02912e-06
2.28291e-06
2.83383e-06
3.02475e-06
3.07949e-06
1.09881e-06
2.97361e-06
2.35477e-06
2.30202e-06
2.9766e-06
2.51706e-06
3.42137e-06
2.09522e-06
3.37815e-06
2.97701e-06
3.01533e-06
2.97778e-06
2.85916e-06
2.4869e-06
2.67576e-06
2.56705e-06
2.90005e-06
3.10276e-06
2.52471e-06
2.5078e-06
2.45843e-06
2.93198e-06
2.62346e-06
2.98316e-06
2.47486e-06
2.93793e-06
2.41846e-06
2.64538e-06
2.95482e-06
3.18509e-06
2.26803e-06
3.05249e-06
2.49371e-06
2.4308e-06
2.95447e-06
2.39362e-06
2.1532e-06
2.44919e-06
2.49841e-06
3.00698e-06
2.90026e-06
2.42799e-06
3.02498e-06
2.84458e-06
2.57509e-06
2.75078e-06
3.02294e-06
2.64912e-06
2.93315e-06
2.91222e-06
3.58732e-06
3.10407e-06
2.98576e-06
2.82516e-06
2.97098e-06
2.53347e-06
2.57954e-06
2.42627e-06
2.82507e-06
2.72272e-06
2.98575e-06
2.85091e-06
3.12131e-06
2.46803e-06
2.74791e-06
2.34012e-06
2.68963e-06
2.82714e-06
2.7099e-06
2.74873e-06
2.37995e-06
2.3125e-06
1.16104e-06
2.78772e-06
2.16216e-06
2.74897e-06
2.33106e-06
2.35835e-06
1.22738e-06
2.90745e-06
2.87749e-06
2.78737e-06
2.8194e-06
2.67699e-06
2.81281e-06
1.2498e-06
2.80247e-06
2.77002e-06
2.3126e-06
2.37843e-06
2.23069e-06
2.75315e-06
2.88491e-06
2.36599e-06
2.91771e-06
2.64418e-06
2.7134e-06
2.66888e-06
2.21054e-06
1.84561e-06
8.25087e-07
2.26221e-06
1.21281e-06
2.32674e-06
2.93493e-06
2.24377e-06
2.93024e-06
2.29263e-06
2.20537e-06
2.22891e-06
2.63461e-06
2.58897e-06
2.78663e-06
2.84494e-06
1.30707e-06
2.19122e-06
2.11871e-06
2.69877e-06
2.25326e-06
2.28431e-06
2.13531e-06
2.67672e-06
2.6952e-06
2.2646e-06
2.64757e-06
2.79648e-06
2.67756e-06
2.18801e-06
2.29363e-06
2.43396e-06
2.16706e-06
2.77629e-06
2.63102e-06
1.9725e-06
2.01485e-06
2.62126e-06
2.50741e-06
2.08674e-06
2.04588e-06
2.3385e-06
2.50907e-06
1.91633e-06
2.72966e-06
2.23056e-06
1.67359e-06
2.08055e-06
2.2776e-06
2.60187e-06
2.73484e-06
2.21138e-06
2.51058e-06
2.55279e-06
2.23747e-06
1.3174e-06
1.82606e-06
2.87134e-06
1.84671e-06
2.09554e-06
2.57853e-06
2.7299e-06
2.41193e-06
2.22206e-06
2.57126e-06
2.59231e-06
2.6267e-06
2.47999e-06
2.71296e-06
2.43585e-06
2.16419e-06
1.52851e-06
2.77273e-06
2.47426e-06
2.69088e-06
2.64229e-06
2.54628e-06
2.60305e-06
2.1032e-06
2.5508e-06
2.55357e-06
2.08786e-06
1.6733e-06
1.38291e-06
1.72761e-06
2.60298e-06
2.03029e-06
2.52525e-06
2.47528e-06
1.5881e-06
2.53448e-06
2.69979e-06
2.0199e-06
2.00286e-06
2.44106e-06
2.37867e-06
1.89899e-06
2.48081e-06
2.51047e-06
2.39965e-06
2.40017e-06
1.63882e-06
1.99382e-06
2.14936e-06
1.97299e-06
2.40538e-06
2.46988e-06
1.93392e-06
1.95264e-06
1.89564e-06
2.33006e-06
1.46945e-06
2.393e-06
2.32615e-06
1.97584e-06
2.46571e-06
1.88411e-06
1.62153e-06
1.89137e-06
2.28214e-06
2.66253e-06
2.67213e-06
2.33067e-06
1.931e-06
1.71455e-06
2.335e-06
1.79489e-06
2.48669e-06
2.30689e-06
2.1018e-06
1.54553e-06
2.37391e-06
1.97554e-06
2.29821e-06
1.81438e-06
1.83977e-06
1.61182e-06
2.25222e-06
2.07546e-06
1.45683e-06
1.47114e-06
1.90978e-06
2.35893e-06
2.4442e-06
1.83591e-06
2.39955e-06
2.01983e-06
1.77235e-06
2.46151e-06
2.31677e-06
2.35446e-06
1.5335e-06
1.48455e-06
1.8539e-06
2.14702e-06
1.86671e-06
2.59545e-06
1.92069e-06
2.31571e-06
1.7879e-06
1.86122e-06
1.44844e-06
2.25579e-06
2.37594e-06
2.21788e-06
1.39742e-06
2.16598e-06
2.04686e-06
2.36636e-06
2.01053e-06
2.10916e-06
2.22362e-06
2.24182e-06
1.72012e-06
2.1782e-06
2.32175e-06
2.46272e-06
1.75879e-06
2.18114e-06
1.78391e-06
2.29154e-06
2.27972e-06
2.27419e-06
1.49714e-06
1.77384e-06
2.24384e-06
2.28679e-06
1.5295e-06
1.67454e-06
1.94024e-06
1.87799e-06
2.0292e-06
2.10409e-06
1.71289e-06
2.25155e-06
2.20964e-06
1.08292e-06
2.39359e-06
2.38891e-06
1.73857e-06
2.09212e-06
2.08898e-06
1.08077e-06
1.08776e-06
2.18097e-06
2.16964e-06
1.70562e-06
1.13341e-06
1.57225e-06
1.83812e-06
1.64205e-06
1.73176e-06
1.51419e-06
2.1845e-06
2.11568e-06
2.10849e-06
1.78292e-06
2.03017e-06
2.65655e-06
1.61512e-06
1.53238e-06
2.63377e-06
2.02364e-06
1.16116e-06
2.2509e-06
1.59217e-06
1.70657e-06
1.56629e-06
1.63474e-06
1.68268e-06
2.03752e-06
2.18756e-06
1.64299e-06
1.99671e-06
1.82122e-06
1.60129e-06
2.07451e-06
2.07939e-06
2.04497e-06
2.20547e-06
2.09728e-06
1.50176e-06
1.64126e-06
2.09228e-06
2.10624e-06
1.47625e-06
2.18327e-06
2.24244e-06
1.61853e-06
1.41461e-06
1.95736e-06
1.55912e-06
1.60585e-06
2.06094e-06
1.5437e-06
1.78636e-06
2.16972e-06
2.13164e-06
1.89421e-06
1.69358e-06
1.54173e-06
1.562e-06
2.0581e-06
1.85317e-06
2.85643e-06
1.48245e-06
2.09118e-06
1.97671e-06
1.97011e-06
1.23714e-06
1.68684e-06
1.52866e-06
1.88752e-06
2.01311e-06
1.78405e-06
1.71016e-06
1.39306e-06
2.03696e-06
1.59852e-06
1.92441e-06
1.62151e-06
1.91889e-06
1.8258e-06
1.54192e-06
2.18876e-06
1.39956e-06
1.47929e-06
1.95193e-06
1.95307e-06
1.66439e-06
1.82152e-06
1.88398e-06
1.93286e-06
1.91751e-06
1.31675e-06
2.32691e-06
1.85414e-06
1.3915e-06
1.74939e-06
1.7545e-06
1.67428e-06
1.37734e-06
1.8121e-06
1.3838e-06
2.07138e-06
1.98411e-06
1.38505e-06
1.72625e-06
1.92056e-06
1.85798e-06
1.55327e-06
1.31106e-06
1.68149e-06
1.38945e-06
1.78372e-06
1.98082e-06
1.23602e-06
1.26641e-06
1.78581e-06
1.90484e-06
1.78865e-06
1.33851e-06
1.88055e-06
9.61059e-07
1.73703e-06
1.60851e-06
1.65629e-06
1.63361e-06
1.91721e-06
1.85357e-06
1.29226e-06
1.26944e-06
2.2662e-06
1.19309e-06
1.88912e-06
1.72074e-06
1.77821e-06
1.20651e-06
1.79331e-06
1.71427e-06
1.22484e-06
1.58754e-06
1.22939e-06
1.15254e-06
1.34914e-06
1.66175e-06
1.65048e-06
1.89928e-06
1.89111e-06
1.11246e-06
1.2244e-06
8.32208e-07
1.30986e-06
1.60931e-06
1.25946e-06
1.31941e-06
1.16089e-06
1.59081e-06
1.72978e-06
1.59812e-06
1.58698e-06
1.84708e-06
1.75388e-06
1.61747e-06
1.64504e-06
1.55099e-06
1.66806e-06
1.07908e-06
1.56251e-06
1.84002e-06
1.56265e-06
1.60502e-06
1.51343e-06
1.82345e-06
1.66546e-06
1.15021e-06
1.53142e-06
1.55636e-06
1.75413e-06
1.72632e-06
1.58568e-06
1.51375e-06
1.63112e-06
1.78097e-06
1.0145e-06
1.05061e-06
1.56607e-06
1.4357e-06
1.27602e-06
9.91224e-07
9.93527e-07
1.04336e-06
1.00695e-06
1.57314e-06
1.7469e-06
1.47444e-06
1.49236e-06
9.01147e-07
1.15177e-06
1.37423e-06
1.06342e-06
1.8174e-06
1.98454e-06
2.08802e-06
1.35608e-06
1.5279e-06
1.4406e-06
9.63947e-07
1.31389e-06
9.64659e-07
1.54558e-06
1.54063e-06
9.50304e-07
1.40649e-06
1.30941e-06
1.21957e-06
9.70239e-07
1.04882e-06
9.17444e-07
1.4357e-06
8.62298e-07
1.57728e-06
1.36631e-06
1.22521e-06
1.50762e-06
1.32811e-06
1.19317e-06
9.19219e-07
1.37203e-06
1.6466e-06
1.27653e-06
1.12278e-06
1.19076e-06
1.48279e-06
1.40168e-06
1.45298e-06
1.12661e-06
1.31662e-06
1.63007e-06
1.26922e-06
1.27421e-06
9.23296e-07
8.95914e-07
1.35323e-06
1.19865e-06
1.29134e-06
1.21233e-06
1.09496e-06
8.32526e-07
1.52838e-06
1.21439e-06
1.45039e-06
1.2097e-06
1.22706e-06
1.34429e-06
1.17112e-06
1.30903e-06
7.88834e-07
1.32283e-06
1.57685e-06
1.43693e-06
1.21565e-06
1.36182e-06
1.14391e-06
1.3732e-06
1.17246e-06
1.19608e-06
1.25748e-06
1.14714e-06
1.13926e-06
1.24732e-06
1.09796e-06
1.13124e-06
1.06207e-06
1.02576e-06
1.14319e-06
9.78804e-07
1.06368e-06
1.0656e-06
1.06418e-06
1.1961e-06
1.60706e-06
9.41718e-07
9.55819e-07
1.14047e-06
1.19159e-06
9.87598e-07
1.11698e-06
1.06391e-06
8.57988e-07
1.03738e-06
9.91993e-07
1.2169e-06
1.40859e-06
9.93608e-07
9.1226e-07
8.89069e-07
1.06219e-06
9.6316e-07
9.79332e-07
9.71606e-07
1.13893e-06
9.05608e-07
1.12151e-06
9.86892e-07
8.89597e-07
8.44634e-07
9.15839e-07
1.05402e-06
9.47721e-07
1.06399e-06
8.15997e-07
1.01508e-06
9.13534e-07
8.72533e-07
9.22553e-07
8.27847e-07
1.04963e-06
9.33054e-07
8.13571e-07
8.68214e-07
1.01991e-06
3.97791e-06
3.72009e-06
1.89023e-06
2.71646e-06
8.70026e-07
3.90862e-06
3.80803e-06
2.72909e-06
4.00642e-06
1.16831e-06
2.91132e-06
1.84783e-06
3.54968e-06
1.09563e-06
3.76211e-06
8.00785e-07
3.46671e-06
3.67376e-06
1.73246e-06
3.27679e-06
1.17401e-06
3.39872e-06
3.83979e-06
3.06211e-06
2.41228e-06
3.87137e-06
3.03135e-06
2.82289e-06
3.14946e-06
1.05635e-06
2.96426e-06
1.05463e-06
3.07852e-06
1.01419e-06
6.51279e-07
1.12248e-06
3.76255e-06
3.38535e-06
2.73836e-06
1.29846e-06
3.46939e-06
2.92059e-06
2.65894e-06
2.99163e-06
2.78819e-06
2.05058e-06
3.67345e-06
9.83719e-07
2.08806e-06
7.35904e-07
1.19846e-06
3.22354e-06
1.16067e-06
2.73599e-06
1.581e-06
6.19636e-07
9.76543e-07
2.30142e-06
1.94242e-06
2.59455e-06
6.41532e-07
2.64101e-06
3.52169e-07
1.77444e-06
4.58469e-07
9.00228e-07
3.1209e-06
5.25521e-07
3.37305e-06
1.9745e-06
9.39192e-07
3.17543e-06
2.0441e-06
2.94147e-06
3.19369e-06
2.9903e-06
3.08944e-06
3.63387e-06
1.68518e-06
4.60854e-07
3.95076e-07
3.08555e-06
7.07473e-07
3.3037e-06
1.46237e-06
2.80893e-06
7.92825e-07
9.13658e-07
2.59817e-06
1.83029e-06
1.88919e-06
5.68156e-07
2.86475e-06
1.50844e-06
2.66465e-06
2.19633e-06
1.05682e-06
1.86466e-06
2.54741e-06
5.67193e-07
2.77867e-06
2.90727e-06
2.56544e-06
2.58544e-06
3.18796e-06
2.57841e-06
6.13342e-07
2.93605e-06
2.84766e-06
7.10494e-07
8.28658e-07
3.77476e-06
3.14202e-06
1.0527e-06
3.14641e-06
1.06091e-06
2.90128e-06
2.96911e-06
1.13695e-06
8.42856e-07
7.80941e-07
1.04195e-06
1.07412e-06
1.29539e-06
9.84755e-07
1.32708e-06
1.22647e-06
1.02059e-06
1.29322e-06
1.11526e-06
1.20602e-06
8.15706e-07
9.24964e-07
9.84521e-07
1.09173e-06
1.47561e-06
1.36263e-06
1.2387e-06
2.07325e-06
1.01704e-06
1.08735e-06
1.33965e-06
9.96159e-07
8.66963e-07
1.24868e-06
1.40218e-06
1.06263e-06
1.02431e-06
1.21998e-06
1.14544e-06
1.45024e-06
1.1349e-06
1.9977e-06
1.72367e-06
1.29684e-06
1.1652e-06
1.74122e-06
1.17e-06
1.88072e-06
1.24965e-06
1.07326e-06
1.13126e-06
1.72129e-06
1.09733e-06
1.22554e-06
2.54659e-06
1.33061e-06
1.11608e-06
2.02459e-06
1.02644e-06
1.87243e-06
2.61687e-06
1.68864e-06
1.52052e-06
1.40896e-06
1.74695e-06
1.62013e-06
1.2576e-06
1.80645e-06
1.5837e-06
1.79571e-06
1.44339e-06
1.28843e-06
1.46778e-06
1.44164e-06
1.22365e-06
1.4589e-06
1.56522e-06
1.50551e-06
1.63045e-06
1.1737e-06
1.38719e-06
1.56676e-06
1.48565e-06
2.11968e-06
1.20409e-06
1.25755e-06
2.14456e-06
2.4313e-06
1.47874e-06
1.23274e-06
2.00921e-06
2.71815e-06
2.118e-06
1.43934e-06
1.40879e-06
1.43442e-06
1.66262e-06
1.40877e-06
1.96302e-06
1.29196e-06
1.61824e-06
1.49203e-06
3.05713e-06
1.3801e-06
2.4512e-06
1.49264e-06
1.41059e-06
2.02284e-06
2.3757e-06
1.67926e-06
1.79342e-06
1.41882e-06
1.88886e-06
2.16162e-06
2.70167e-06
1.69668e-06
2.18868e-06
2.3377e-06
2.5553e-06
1.88786e-06
1.77695e-06
2.3878e-06
2.36633e-06
2.07038e-06
1.84728e-06
2.26269e-06
1.66665e-06
2.02514e-06
2.50146e-06
1.91101e-06
1.82827e-06
2.67814e-06
2.21126e-06
2.34901e-06
2.57615e-06
2.2611e-06
1.76543e-06
2.26655e-06
2.15575e-06
2.17111e-06
2.83857e-06
1.82828e-06
2.49636e-06
2.33559e-06
4.22353e-06
1.93212e-06
1.95301e-06
2.25718e-06
1.97726e-06
2.4165e-06
1.85175e-06
2.77966e-06
1.85309e-06
2.03315e-06
2.34565e-06
2.15314e-06
2.42651e-06
1.75381e-06
2.36079e-06
2.29576e-06
2.23438e-06
2.01932e-06
1.69868e-06
1.95065e-06
2.5285e-06
2.94513e-06
2.49279e-06
2.62664e-06
2.53926e-06
2.05914e-06
2.04213e-06
1.75487e-06
1.93282e-06
1.71664e-06
2.49055e-06
2.88507e-06
2.42473e-06
3.08735e-06
1.96511e-06
2.33439e-06
2.35852e-06
2.55203e-06
2.84627e-06
2.04664e-06
2.92096e-06
2.12022e-06
2.50224e-06
2.82933e-06
2.56649e-06
2.18548e-06
2.8958e-06
2.2459e-06
3.0299e-06
2.51723e-06
2.11241e-06
2.88207e-06
2.08599e-06
2.30025e-06
1.97114e-06
2.9295e-06
3.1979e-06
2.82122e-06
2.16286e-06
1.93246e-06
3.16176e-06
2.54393e-06
2.08184e-06
3.66441e-06
2.21878e-06
2.06717e-06
2.95413e-06
3.18357e-06
2.86124e-06
2.5969e-06
2.13152e-06
2.43006e-06
2.40847e-06
3.24427e-06
2.92527e-06
2.31358e-06
2.50508e-06
2.14017e-06
2.86188e-06
2.67727e-06
2.32602e-06
2.7984e-06
2.37866e-06
2.26169e-06
2.81446e-06
2.82763e-06
2.42897e-06
1.0584e-06
3.06213e-06
2.84616e-06
2.14121e-06
2.73512e-06
2.75843e-06
2.87499e-06
2.22419e-06
2.72224e-06
2.59447e-06
3.08745e-06
3.11509e-06
2.76847e-06
2.16639e-06
2.57249e-06
9.19423e-07
8.60612e-07
2.57368e-06
1.11266e-06
2.74225e-06
2.20933e-06
3.09732e-06
2.58001e-06
2.35015e-06
2.7026e-06
2.41013e-06
2.75379e-06
3.27094e-06
2.18953e-06
3.00762e-06
2.83481e-06
2.6664e-06
2.76933e-06
3.22387e-06
8.41749e-07
2.37995e-06
2.8144e-06
2.75972e-06
3.09265e-06
1.45855e-06
2.69396e-06
2.90614e-06
3.01628e-06
2.96001e-06
3.25905e-06
3.12953e-06
2.80601e-06
2.46574e-06
2.67989e-06
2.94042e-06
8.78122e-07
2.53827e-06
3.03478e-06
2.48665e-06
2.80093e-06
2.3445e-06
3.34866e-06
9.04062e-07
2.63814e-06
3.11218e-06
3.9833e-06
2.65614e-06
1.53471e-06
5.54203e-07
2.87569e-06
2.87803e-06
2.52258e-06
2.77732e-06
9.839e-07
7.05765e-07
9.51751e-07
9.30824e-07
6.04783e-07
3.33063e-06
2.85803e-06
2.86554e-06
2.53972e-06
3.16884e-06
7.70401e-07
1.05061e-06
2.89544e-06
3.32774e-06
7.6769e-07
3.27761e-06
1.22995e-06
3.20839e-06
5.24945e-06
2.87745e-06
3.40983e-06
2.89762e-06
3.14942e-06
1.89306e-06
5.27223e-06
3.12044e-06
2.86646e-06
7.99726e-07
1.39821e-06
2.82974e-06
2.99136e-06
3.45777e-06
3.51362e-06
3.31198e-06
9.03725e-07
8.47784e-07
3.2598e-06
4.2009e-06
5.2843e-06
3.57334e-06
5.28469e-06
7.91521e-07
5.31326e-06
7.79437e-07
2.99738e-06
4.48482e-06
2.98324e-06
7.89507e-07
7.31978e-07
5.28546e-06
8.05778e-07
4.87443e-06
5.28223e-06
5.27838e-06
1.81826e-06
6.93829e-07
4.64851e-06
4.17981e-06
9.08804e-07
3.4897e-06
3.12394e-06
3.30514e-06
3.24646e-06
5.25061e-06
1.62588e-06
5.28679e-06
1.5236e-06
3.83491e-06
5.28e-06
3.14186e-06
3.43463e-06
3.2009e-06
3.79341e-06
3.22514e-06
2.49407e-06
3.46967e-06
5.00509e-06
3.71097e-06
8.16207e-07
1.81601e-06
3.94235e-06
8.53623e-07
8.8752e-07
9.32295e-07
3.42744e-06
5.21693e-06
3.59381e-06
2.01225e-06
3.43558e-06
7.3734e-07
4.51509e-06
3.71738e-06
2.89478e-06
3.34368e-06
4.17148e-06
3.33152e-06
2.70981e-07
4.01316e-06
3.8242e-06
3.67769e-06
7.45686e-07
2.98602e-06
5.27487e-06
3.17317e-06
1.42609e-06
5.22988e-06
4.69915e-06
1.0421e-06
5.27676e-06
3.6296e-06
8.12567e-07
3.34148e-06
3.2692e-06
5.28786e-06
5.28896e-06
5.29404e-06
7.81158e-07
3.37988e-06
4.40055e-06
3.35602e-06
5.27052e-06
1.44715e-06
3.44508e-06
7.81489e-07
1.8659e-06
2.43272e-06
1.4533e-06
5.25018e-06
1.29781e-06
5.28999e-06
1.8738e-06
2.52802e-06
3.21306e-07
3.80684e-06
3.24389e-06
5.28409e-06
5.17414e-06
4.82158e-06
8.27857e-07
3.39311e-06
4.47648e-06
1.74204e-06
1.0028e-06
5.27669e-06
8.42774e-07
5.28957e-06
3.96696e-06
5.2928e-06
5.27759e-06
7.07774e-07
5.27819e-06
7.73267e-07
7.39172e-07
5.29159e-06
5.27991e-06
2.52285e-06
5.27319e-06
3.86578e-06
6.71704e-07
3.73489e-06
5.3051e-06
3.40005e-06
5.30811e-06
3.01349e-06
6.98761e-07
2.85594e-06
8.44059e-07
5.29925e-06
4.17529e-06
2.69931e-06
7.7148e-07
5.6825e-07
5.00571e-06
3.07379e-06
2.23416e-06
4.15306e-06
5.29026e-06
3.76337e-06
7.27144e-07
5.28225e-06
3.54355e-06
5.67526e-07
3.74198e-06
1.04695e-06
5.21961e-06
4.37513e-06
3.29226e-06
5.28535e-06
1.30895e-06
3.42683e-06
1.37343e-06
3.51539e-06
3.85154e-06
5.29341e-06
2.44333e-06
5.29236e-06
5.29098e-06
3.48579e-06
1.67269e-06
5.28903e-06
3.04954e-06
3.89454e-06
4.97274e-06
5.29459e-06
4.32446e-07
3.7366e-06
2.29535e-06
5.43783e-07
5.23934e-06
5.2188e-07
1.91422e-06
4.75573e-06
5.28563e-06
3.39713e-06
5.25101e-06
5.95385e-06
1.11541e-06
1.17164e-06
3.24713e-06
5.18829e-06
3.12458e-06
6.05658e-07
3.85713e-06
5.16485e-06
5.29243e-06
2.14261e-06
2.93771e-06
3.4465e-06
1.79395e-06
5.24922e-06
2.51788e-06
2.49919e-07
5.27199e-06
1.66444e-06
2.28732e-06
1.44057e-06
7.03849e-07
5.2847e-06
7.3576e-07
6.87215e-07
3.81408e-06
5.27051e-06
5.25412e-06
5.29606e-06
5.09398e-06
5.27349e-07
5.28291e-06
5.19414e-06
2.43712e-07
3.45433e-06
5.26733e-06
5.19644e-06
5.28539e-06
6.46592e-07
6.58001e-07
4.6035e-06
5.28799e-06
5.06329e-06
2.02648e-06
2.92946e-06
1.75766e-06
2.85229e-06
4.0712e-06
5.29017e-06
3.30854e-06
5.69342e-07
1.30611e-06
5.29235e-06
3.50474e-06
5.29492e-06
3.69791e-06
4.30382e-06
3.02419e-06
1.63633e-06
2.07939e-06
6.29504e-07
4.10675e-06
2.44935e-06
5.25894e-06
9.1689e-07
5.30546e-06
3.35911e-06
5.4829e-07
5.29084e-06
4.42828e-06
5.4585e-06
1.94132e-06
5.28406e-06
5.28689e-06
3.23779e-06
1.38797e-06
3.25639e-06
3.03347e-06
4.84703e-06
9.86296e-07
3.51212e-06
1.12541e-06
5.2221e-06
5.20035e-06
5.2675e-06
5.13029e-06
4.66979e-06
5.15816e-06
2.77402e-06
4.72959e-06
5.09758e-06
4.01201e-06
6.73375e-07
7.62609e-07
2.99711e-06
5.27075e-06
5.16713e-06
3.89536e-06
1.37934e-06
3.91739e-06
4.03531e-07
5.28743e-06
1.25333e-06
3.3987e-06
7.51201e-07
3.74654e-06
3.30896e-06
4.63348e-06
3.94157e-06
5.26491e-06
5.29513e-06
6.16949e-07
3.76538e-06
4.24324e-06
4.51203e-06
1.44004e-06
5.73658e-07
7.52171e-07
3.36558e-06
4.50947e-06
4.32727e-07
3.72576e-07
1.67557e-06
4.62721e-06
7.06561e-07
5.57628e-07
8.23021e-07
5.28739e-06
5.25531e-06
5.13875e-06
5.1926e-06
2.51932e-06
3.73037e-06
1.686e-06
2.49452e-06
3.6002e-06
5.27343e-06
1.97341e-06
5.23928e-06
5.15694e-06
1.02585e-06
2.96364e-06
7.17017e-07
3.62834e-06
3.24e-06
6.78593e-07
3.09715e-06
3.98416e-06
4.67945e-06
3.67979e-06
5.14547e-06
2.99401e-06
1.27099e-06
5.29683e-06
5.16983e-06
5.21222e-06
1.51571e-06