/*--------------------------------*- C++ -*----------------------------------*\
  =========                 |
  \\      /  F ield         | OpenFOAM: The Open Source CFD Toolbox
   \\    /   O peration     | Website:  https://openfoam.org
    \\  /    A nd           | Version:  8
     \\/     M anipulation  |
\*---------------------------------------------------------------------------*/
FoamFile
{
    version     2.0;
    format      ascii;
    class       volScalarField;
    location    "5.8";
    object      p;
}
// * * * * * * * * * * * * * * * * * * * * * * * * * * * * * * * * * * * * * //

dimensions      [0 2 -2 0 0 0 0];

internalField   nonuniform List<scalar> 
5490
(
5.45699e-06
5.84866e-06
4.58938e-06
5.55699e-06
8.41593e-07
1.00356e-05
1.04386e-05
1.04061e-05
3.84426e-06
1.03776e-05
4.28512e-06
4.19854e-06
3.31874e-06
3.89598e-06
3.73013e-06
1.03847e-05
1.04413e-05
1.01316e-05
5.53808e-06
3.95704e-06
3.07127e-06
1.04392e-05
1.01377e-05
1.04392e-05
2.95157e-06
3.0211e-06
3.42071e-06
5.35316e-06
9.83577e-06
1.906e-06
5.14939e-06
1.04275e-05
7.97873e-06
6.75928e-06
2.32346e-06
5.19658e-06
9.75187e-06
5.52937e-06
1.25771e-06
2.71232e-06
5.33466e-06
9.78908e-06
4.48685e-06
9.81171e-06
1.03074e-05
6.87528e-06
1.79621e-06
1.36855e-06
5.52875e-06
8.87627e-06
1.03558e-05
2.01378e-06
2.42438e-06
1.04109e-06
3.2163e-06
6.75244e-06
9.32636e-06
1.05406e-05
3.82519e-06
1.99812e-06
9.81375e-06
4.00798e-07
6.5004e-06
1.04164e-05
1.04399e-05
1.02713e-05
1.037e-05
9.6989e-06
1.63968e-06
1.0329e-05
1.2618e-06
2.74069e-06
1.03892e-05
1.04185e-05
1.03447e-05
2.4117e-06
1.00513e-05
3.80664e-07
5.85504e-06
4.57491e-06
9.79509e-06
9.0174e-06
9.97299e-06
5.64719e-06
8.51451e-07
6.34005e-06
1.01252e-05
1.00632e-05
2.53995e-06
9.73132e-06
1.03863e-05
9.98556e-06
1.10009e-06
1.0391e-05
5.33072e-06
1.03922e-05
4.02677e-06
9.94513e-06
9.72478e-06
3.23583e-06
4.02404e-06
2.50382e-06
7.05232e-06
1.04028e-05
6.89584e-06
6.58601e-06
2.47644e-06
9.61885e-06
1.04245e-05
1.04296e-05
1.04073e-05
1.04124e-05
1.02717e-05
6.92068e-06
4.77013e-06
9.77525e-06
5.83046e-06
1.02565e-05
1.01948e-05
2.09601e-06
6.99479e-06
7.96012e-06
9.90145e-06
5.75597e-06
1.03775e-05
1.0342e-05
3.8155e-06
6.0157e-07
1.04093e-05
3.67927e-06
1.02847e-05
9.75287e-06
3.10719e-06
4.53467e-06
1.47879e-06
1.04302e-05
1.05589e-05
1.03897e-05
1.0353e-05
6.81574e-06
1.04023e-05
1.04521e-05
2.84268e-06
9.68407e-06
1.04132e-05
1.03595e-05
-7.38253e-09
1.037e-05
2.19778e-06
9.90155e-06
1.04309e-05
1.04285e-05
4.12733e-06
1.04549e-05
9.65009e-06
1.0443e-05
1.04309e-05
1.02749e-05
1.0357e-05
3.73814e-06
4.84552e-06
9.42064e-06
9.65491e-06
1.03052e-05
1.04136e-05
1.02103e-05
1.04225e-05
3.35365e-07
9.96696e-06
1.95169e-07
1.05284e-05
6.90084e-07
3.05206e-06
1.04281e-05
4.13004e-06
1.74236e-06
2.25676e-06
1.04531e-05
2.92542e-06
3.64748e-06
1.0294e-05
1.04252e-05
5.78346e-06
5.42184e-06
1.04434e-05
1.5231e-06
2.15914e-06
9.65967e-07
1.04274e-05
1.03778e-05
1.04918e-05
1.42672e-06
5.72786e-06
1.0427e-05
1.03605e-05
4.87368e-06
6.77189e-06
1.04452e-05
9.94941e-06
2.11923e-06
1.03152e-05
6.71015e-06
1.04467e-05
1.0406e-05
8.72959e-06
1.07462e-05
1.04231e-05
1.02956e-05
4.51621e-06
9.86617e-06
1.04132e-05
1.04365e-05
5.2548e-06
5.04135e-06
4.69917e-06
6.91412e-06
4.75375e-06
4.38998e-06
1.05968e-05
1.04433e-05
1.01416e-05
1.04251e-05
9.22096e-06
3.12e-06
3.01204e-06
7.88058e-07
2.39104e-06
2.36437e-06
1.15297e-06
1.04443e-05
1.04624e-06
9.74759e-06
1.04283e-05
1.03712e-05
6.66973e-06
9.57434e-06
1.03293e-05
1.0429e-05
1.04494e-05
3.52394e-06
1.04461e-05
4.93412e-06
2.25022e-07
2.04801e-06
1.04521e-05
1.01507e-05
9.85611e-06
7.72241e-06
9.71608e-06
1.04227e-05
1.04456e-05
8.35258e-06
1.03346e-05
9.7432e-06
1.9234e-06
6.7684e-06
7.86426e-06
2.5166e-06
4.06164e-06
1.03305e-05
9.66208e-06
5.65396e-06
5.78189e-06
1.05638e-05
1.04248e-05
1.00112e-05
6.95747e-06
9.64304e-06
1.04301e-05
1.03921e-05
1.04207e-05
4.718e-06
1.04295e-05
1.02538e-05
8.31237e-06
1.04258e-05
1.04128e-05
1.21925e-06
5.31889e-06
6.91909e-06
1.04446e-05
1.04275e-05
1.0449e-05
9.62755e-06
4.2177e-06
1.0392e-05
9.62697e-06
1.04259e-05
9.45159e-06
3.96692e-06
7.98842e-07
9.7698e-06
1.00108e-05
7.06071e-06
3.66712e-06
1.0013e-05
1.03582e-05
1.04261e-05
8.362e-07
9.87559e-06
5.99201e-06
1.03235e-05
5.54241e-06
9.9406e-06
3.38574e-06
1.15107e-06
1.0585e-05
1.03756e-05
6.15811e-06
1.37745e-06
2.94299e-06
1.01293e-05
9.90565e-06
6.50802e-06
4.11301e-06
6.72844e-06
1.55715e-07
1.03181e-05
8.91418e-06
1.04514e-05
1.04087e-05
2.28464e-06
3.57072e-06
1.038e-05
1.03251e-05
1.28457e-06
6.58277e-07
3.41823e-06
1.01449e-05
5.25886e-06
6.65119e-06
1.04232e-05
1.04265e-05
9.59761e-06
5.01349e-06
1.72292e-06
1.04505e-05
3.94147e-06
1.04495e-05
1.02491e-05
1.04272e-05
1.03882e-05
6.01946e-06
6.67338e-06
4.21283e-06
1.16293e-06
1.20094e-06
1.04299e-05
6.0596e-06
9.94886e-07
1.04549e-05
6.2618e-06
2.27147e-06
2.32059e-06
3.8463e-06
1.04242e-05
4.40042e-06
7.21094e-06
1.03978e-05
5.60451e-06
6.12776e-06
3.41259e-06
1.03558e-05
9.74085e-07
1.41104e-06
5.71386e-07
9.15409e-07
1.04008e-05
1.03759e-05
6.65123e-06
1.22465e-06
2.24295e-06
2.20654e-06
1.04232e-05
9.17309e-06
1.04234e-05
1.04515e-05
3.07315e-06
1.03874e-05
9.93476e-06
1.22326e-06
2.36059e-06
6.50595e-06
6.86235e-06
8.15513e-06
3.48282e-06
4.15305e-06
2.74415e-06
3.14322e-06
1.04261e-05
9.70867e-06
3.61136e-06
1.04005e-05
6.31402e-07
2.9627e-06
2.95431e-06
2.95527e-06
1.04237e-05
1.50018e-06
2.24321e-06
1.03415e-05
9.22007e-06
8.51001e-07
1.00575e-05
3.40078e-06
1.04305e-05
1.04498e-05
1.04257e-05
1.04145e-05
2.00601e-06
7.02954e-06
1.04471e-05
5.61799e-06
8.86992e-06
4.35522e-06
2.96032e-06
2.41372e-06
1.04421e-05
1.04495e-05
6.36841e-06
2.14618e-06
6.4417e-06
7.37058e-06
3.95683e-06
9.70291e-06
1.01879e-05
3.78939e-06
1.0422e-05
1.09942e-06
1.04349e-05
4.2461e-06
4.24041e-06
4.23511e-06
3.96139e-07
1.01874e-05
1.04278e-05
1.03371e-05
9.65988e-06
3.17447e-06
1.33066e-06
7.15028e-06
5.10153e-06
1.18231e-06
1.00421e-05
5.62159e-06
1.03803e-05
6.81448e-06
1.0417e-05
1.04332e-05
9.98021e-06
4.99215e-06
1.02618e-05
4.24545e-06
3.68178e-06
4.98936e-06
4.9881e-06
1.04192e-05
1.04265e-05
5.86752e-06
5.53415e-06
5.74935e-06
1.16396e-06
6.71118e-06
7.50493e-06
1.01899e-05
6.91985e-06
4.96214e-06
1.01438e-05
6.29523e-06
8.63127e-06
7.01154e-06
4.98757e-06
4.44509e-06
4.05096e-06
8.13988e-08
9.84385e-06
1.00098e-05
7.05947e-06
7.25533e-06
1.04155e-05
1.04162e-05
6.89326e-06
6.18166e-06
1.07452e-07
5.20005e-06
1.16621e-06
1.04352e-05
6.73473e-06
5.2691e-06
2.31628e-07
3.59902e-06
6.22233e-07
5.95238e-06
1.03893e-05
9.79106e-06
1.04158e-05
1.03894e-05
1.04305e-05
1.38506e-06
9.52725e-07
1.30941e-06
1.30098e-06
1.04329e-05
1.04337e-05
1.02729e-05
5.84054e-06
2.58948e-06
6.31657e-06
9.49561e-06
9.94138e-06
1.01883e-05
9.78903e-06
1.04164e-05
1.04037e-05
1.04157e-05
1.04317e-05
9.80446e-06
1.13959e-06
6.0538e-06
1.01788e-05
1.00368e-05
1.04239e-05
9.68835e-06
9.72568e-06
1.04305e-05
1.0397e-05
1.55639e-06
1.01616e-05
1.03913e-05
5.86926e-07
1.04448e-05
1.4891e-06
1.05306e-05
1.051e-05
6.48472e-06
8.66423e-06
1.04229e-05
9.74349e-06
1.04427e-05
3.52365e-06
1.03041e-05
9.75913e-06
1.02983e-05
9.01395e-06
1.04124e-05
1.03915e-05
9.5832e-06
9.61364e-06
1.0239e-05
1.04347e-05
5.32492e-06
8.16611e-06
5.78932e-07
1.02631e-05
1.04053e-05
1.62797e-06
1.00292e-05
1.03922e-05
5.0724e-07
1.04142e-05
1.04547e-05
1.0415e-05
1.04305e-05
1.03183e-05
9.48201e-06
7.91803e-06
1.01732e-05
7.67768e-06
1.61521e-06
1.02855e-05
4.9792e-07
9.51682e-06
1.04339e-05
1.03242e-05
1.04316e-05
1.04494e-05
1.00989e-05
7.21922e-06
8.99301e-06
2.02696e-06
1.043e-05
9.72825e-06
9.76763e-06
1.24849e-06
7.15554e-06
9.31176e-07
9.21588e-06
1.04148e-05
1.03702e-05
1.04194e-05
9.99099e-06
1.02743e-05
1.04285e-05
1.00628e-05
1.04167e-05
1.03971e-05
1.02626e-05
1.04522e-05
1.0395e-05
1.03845e-05
1.06948e-06
2.54384e-06
9.99032e-06
1.04533e-05
5.44173e-06
1.25966e-06
4.14578e-06
1.01364e-05
1.44092e-06
6.87615e-06
1.04121e-05
1.03968e-05
9.57343e-06
4.31963e-06
4.93932e-06
1.26494e-06
1.02548e-05
9.76474e-06
1.04251e-05
7.68431e-06
1.05183e-05
1.32626e-06
1.22333e-06
2.05111e-06
1.59871e-07
1.04241e-05
1.03914e-05
5.08235e-06
1.01142e-05
9.4253e-06
1.0412e-05
9.6959e-06
1.02708e-05
8.71441e-06
9.80779e-06
1.8794e-06
7.59585e-06
1.44589e-06
9.69306e-06
1.04529e-05
1.04696e-05
9.81977e-06
1.04296e-05
1.04232e-05
9.92416e-06
1.03351e-06
7.36218e-06
1.04329e-05
1.01135e-05
2.81093e-06
8.41484e-06
9.88288e-06
7.03908e-06
1.04535e-05
1.03062e-05
1.00932e-05
1.04317e-05
9.9929e-06
9.66929e-06
9.65177e-06
9.76519e-06
7.097e-06
9.5764e-06
1.04133e-05
1.81386e-06
1.05331e-05
6.10484e-06
8.32165e-06
9.81269e-06
1.02528e-05
1.03925e-05
1.05288e-05
9.96674e-06
1.03033e-05
1.00751e-05
9.67574e-06
1.01511e-05
4.10833e-06
9.99564e-06
9.74155e-06
1.03934e-05
9.6161e-06
6.69889e-06
7.16742e-06
6.65735e-06
1.04989e-05
1.04156e-05
1.03564e-05
1.0428e-05
1.41903e-06
9.68309e-06
1.04316e-05
3.50606e-06
6.97915e-06
1.03436e-05
1.03975e-05
9.73583e-06
1.0425e-05
7.58262e-06
9.61641e-06
9.79112e-06
3.18258e-06
7.55986e-06
9.72857e-06
4.8496e-06
1.04207e-05
1.00283e-05
9.73367e-06
9.75333e-06
7.44152e-06
9.94281e-06
9.7527e-06
1.00119e-05
1.0425e-05
1.04281e-05
1.03997e-05
1.04268e-05
7.67361e-06
7.4387e-06
9.62561e-06
1.03757e-05
7.20519e-06
3.9012e-06
1.02957e-05
1.63923e-06
1.00466e-05
1.04282e-05
6.87567e-06
6.84882e-06
6.56488e-06
1.04019e-05
9.56751e-06
9.52606e-06
9.74575e-06
9.88446e-06
1.04101e-05
1.00572e-05
9.76153e-06
6.77938e-06
1.04296e-05
9.77284e-06
8.67137e-06
5.64218e-06
8.9421e-06
4.03365e-06
1.027e-05
9.85028e-06
1.04289e-05
9.75651e-06
1.05494e-05
1.01607e-05
7.52089e-07
1.01788e-05
1.03791e-05
1.03274e-05
7.34795e-06
1.00751e-05
1.0428e-05
9.73674e-06
9.69687e-06
1.00123e-05
1.04164e-05
7.41798e-06
1.0421e-05
3.34064e-06
1.04322e-05
1.03692e-05
7.3563e-06
3.79726e-06
4.22064e-06
1.04019e-05
7.18384e-06
9.95716e-06
7.46977e-06
1.00608e-05
9.86943e-06
1.02804e-05
1.33142e-06
9.97515e-06
1.04306e-05
3.90004e-06
1.01826e-05
8.70944e-06
9.70653e-06
6.03168e-06
7.40863e-06
9.58173e-06
1.04291e-05
1.04053e-05
1.00061e-05
1.01452e-05
1.02621e-05
7.53594e-06
6.60947e-06
9.76829e-06
9.98348e-06
5.73704e-06
1.01154e-05
1.0407e-05
1.02918e-05
4.76299e-07
9.93509e-06
1.00007e-05
5.98207e-06
1.02004e-05
1.04099e-05
1.04372e-05
1.00301e-05
6.58469e-06
1.03439e-05
1.01527e-05
1.03643e-05
7.46585e-06
1.03527e-05
7.96646e-06
1.00426e-05
1.00238e-05
1.0432e-05
2.69026e-06
7.30452e-06
6.04129e-07
4.16943e-06
1.01675e-05
6.6031e-06
1.03253e-05
9.5311e-06
4.0843e-06
1.76452e-06
1.05208e-05
1.01094e-05
1.04373e-05
1.02411e-05
3.61476e-06
7.71689e-06
8.52396e-06
1.04393e-05
1.04373e-05
1.01263e-05
1.04754e-05
1.04081e-05
2.87077e-06
1.00793e-05
2.43023e-06
7.99804e-06
9.79764e-06
7.30882e-06
9.77702e-06
1.04125e-05
1.01293e-05
9.56766e-06
2.28732e-06
2.22262e-06
9.97068e-06
1.01158e-05
1.03521e-05
1.04097e-05
1.02903e-05
1.04136e-05
1.02804e-05
7.2338e-06
1.04091e-05
1.04269e-05
1.69258e-06
3.18449e-06
9.9132e-06
1.00775e-05
8.76391e-07
1.0438e-05
1.03109e-05
6.70597e-06
1.03882e-05
8.26701e-06
9.89058e-06
8.4968e-06
1.02806e-05
1.04083e-05
3.45064e-06
7.83819e-06
1.00421e-05
3.71507e-06
1.02372e-05
8.92684e-06
7.41619e-06
7.49725e-06
1.03277e-05
1.03006e-05
9.71097e-06
1.0271e-05
1.01677e-05
6.67688e-06
1.04315e-05
1.04221e-05
9.97177e-06
9.25407e-07
4.46525e-06
6.65447e-06
6.33172e-07
1.01998e-05
1.03628e-05
7.88342e-06
7.61166e-06
1.00988e-05
9.48842e-06
1.02967e-05
1.03838e-05
9.9867e-06
1.0133e-05
8.10042e-06
1.17969e-06
1.04101e-05
7.08786e-06
1.04101e-05
7.12278e-06
7.16912e-06
1.03483e-05
1.01646e-05
1.01779e-05
1.04506e-05
1.00911e-05
1.04201e-05
1.03146e-05
1.03061e-05
9.80138e-06
7.40669e-07
1.04066e-05
1.04764e-05
1.04266e-05
9.14073e-06
1.04223e-05
6.77547e-06
6.48353e-06
1.03596e-05
1.01206e-05
1.01589e-05
1.01435e-05
1.03423e-05
8.5524e-06
1.03974e-05
1.04063e-05
1.04117e-05
1.03505e-05
1.03252e-05
1.04097e-05
9.95955e-06
1.03103e-05
1.04772e-05
1.03708e-05
7.84816e-06
7.29704e-06
1.02963e-05
1.05344e-05
1.04405e-05
1.03367e-05
1.04011e-05
1.04041e-05
1.02826e-05
1.05175e-05
1.04467e-05
7.81026e-06
1.04266e-05
7.54301e-06
1.03888e-05
1.0451e-05
1.0271e-05
1.03505e-05
9.82733e-06
1.03954e-05
7.27882e-06
1.02125e-05
1.00361e-05
1.02954e-05
9.71787e-06
1.04678e-05
1.04463e-05
1.03902e-05
7.31246e-06
7.69439e-06
1.00178e-05
9.85157e-06
1.04364e-05
1.00823e-05
8.28099e-06
7.04313e-06
1.03402e-05
1.03818e-05
1.50338e-06
8.91777e-06
1.02972e-05
1.04037e-05
8.05648e-06
1.02143e-05
7.01743e-06
1.03792e-05
1.0391e-05
1.04066e-05
7.3524e-06
1.03653e-05
1.03918e-05
1.03691e-05
1.01683e-05
7.2366e-06
1.02963e-05
1.04039e-05
6.0308e-07
7.59792e-06
2.3471e-06
1.04401e-05
1.04472e-05
1.04081e-05
1.03933e-05
1.03707e-05
1.04111e-05
9.79692e-06
1.00255e-05
1.03966e-05
1.02614e-05
7.12786e-06
1.01666e-05
1.0266e-05
1.04044e-05
9.96631e-07
1.03756e-05
1.04066e-05
1.03875e-05
1.04833e-05
1.03064e-05
1.04111e-05
1.02905e-05
1.60854e-06
1.0408e-05
1.06447e-05
1.03388e-05
1.04293e-05
1.04269e-05
1.04138e-05
3.29158e-06
1.03604e-05
9.95077e-06
7.55141e-06
1.0547e-05
1.03974e-05
1.04403e-05
1.03244e-05
1.02225e-05
1.04017e-05
1.0429e-05
1.0411e-05
1.04409e-05
1.02544e-05
7.82724e-06
1.04132e-05
1.04077e-05
1.03977e-05
1.01466e-05
1.03179e-05
1.04066e-05
1.04182e-05
1.04185e-05
1.03679e-05
1.04129e-05
9.79426e-06
7.88007e-06
1.04123e-05
1.04626e-05
1.03482e-05
7.16705e-06
1.03817e-05
1.04184e-05
1.04139e-05
1.04317e-05
1.04194e-05
1.02589e-05
1.04093e-05
1.0314e-05
1.03102e-05
5.63634e-06
1.05809e-05
1.03882e-05
6.932e-06
1.03568e-05
9.8257e-06
1.04177e-05
1.02966e-05
1.04026e-05
8.66044e-06
1.0431e-05
1.04284e-05
1.03506e-05
5.8533e-06
1.04148e-05
1.04307e-05
7.31826e-06
1.03751e-05
1.04127e-05
1.0407e-05
1.04e-05
1.03909e-05
1.04292e-05
1.03116e-05
1.04184e-05
1.02661e-05
4.05715e-06
6.8877e-06
1.04034e-05
1.03428e-05
1.0409e-05
1.04247e-05
3.50957e-06
1.01278e-05
1.03648e-05
1.00959e-05
1.04003e-05
6.76076e-06
1.04003e-05
1.03974e-05
1.03289e-05
1.04364e-05
9.78178e-06
1.04173e-05
1.01897e-05
6.25448e-06
2.75217e-06
1.04173e-05
1.03274e-05
1.03858e-05
1.03844e-05
1.04411e-05
5.42606e-06
1.03239e-05
1.03727e-05
6.97326e-06
1.02915e-05
1.04011e-05
1.03902e-05
1.0303e-05
1.04157e-05
1.03962e-05
2.1111e-06
1.04182e-05
1.0557e-05
7.80184e-06
9.69291e-06
7.02936e-06
6.59865e-06
1.04363e-05
1.04098e-05
1.04119e-05
1.04379e-05
1.03994e-05
7.6205e-06
6.08209e-06
1.0412e-05
1.04066e-05
1.04306e-05
7.06327e-06
1.03921e-05
1.04136e-05
1.03723e-05
1.04065e-05
1.04301e-05
1.04251e-05
1.04103e-05
1.0433e-05
1.06096e-05
7.42798e-06
1.04748e-05
1.04122e-05
7.36515e-06
1.04101e-05
1.04432e-05
1.04428e-05
1.04755e-05
1.04148e-05
5.30544e-06
1.03763e-05
1.04364e-05
1.04131e-05
1.04173e-05
1.04526e-05
6.77336e-06
1.04115e-05
1.03652e-05
1.0433e-05
1.05912e-05
1.04145e-05
1.04326e-05
1.0427e-05
1.0354e-05
1.04136e-05
1.04342e-05
1.04321e-05
7.05095e-06
7.91517e-06
1.04341e-05
7.62867e-06
1.03596e-05
1.04051e-05
1.04131e-05
1.04354e-05
7.69514e-06
4.42615e-06
1.04103e-05
1.04474e-05
1.04046e-05
1.03935e-05
1.03471e-05
1.0431e-05
1.03671e-05
6.78703e-06
1.03731e-05
1.04108e-05
1.03275e-05
7.37097e-06
1.04217e-05
7.32449e-06
1.03796e-05
1.04478e-05
1.04111e-05
1.04055e-05
1.04368e-05
1.03272e-05
1.0423e-05
1.03977e-05
1.0376e-05
1.04038e-05
1.04109e-05
1.03726e-05
1.04131e-05
7.62737e-06
1.0416e-05
1.04291e-05
1.04003e-05
1.03191e-05
1.04088e-05
1.04143e-05
1.03593e-05
1.03651e-05
2.10448e-06
1.04049e-05
1.04122e-05
1.03914e-05
1.04019e-05
1.0439e-05
1.03642e-05
1.0431e-05
6.90247e-06
1.04277e-05
1.04042e-05
1.03407e-05
7.36204e-06
1.04157e-05
1.03872e-05
-1.07836e-07
1.04259e-05
1.04238e-05
1.03701e-05
1.03861e-05
1.04417e-05
2.85218e-06
5.30421e-06
1.04842e-05
1.03412e-05
1.04989e-05
6.77796e-06
1.03695e-05
3.78074e-06
1.04078e-05
1.03495e-05
1.0416e-05
1.04439e-05
6.84469e-06
1.04368e-05
7.2517e-06
1.03666e-05
7.37227e-06
1.04578e-05
1.03933e-05
1.04043e-05
1.04171e-05
1.0433e-05
1.04186e-05
1.00894e-05
1.03771e-05
1.04044e-05
1.0421e-05
9.81815e-06
1.04342e-05
1.0583e-05
1.04353e-05
1.0369e-05
1.0398e-05
6.86512e-06
1.04119e-05
1.04337e-05
1.04105e-05
9.80272e-06
1.03751e-05
1.04564e-05
7.14343e-06
7.21899e-06
4.13844e-06
1.04201e-05
1.04411e-05
7.17646e-06
1.03852e-05
1.04194e-05
1.0261e-05
1.04178e-05
1.04159e-05
1.04182e-05
1.04735e-05
1.04711e-05
1.04301e-05
1.03889e-05
1.04092e-05
1.04212e-05
1.04093e-05
1.04029e-05
1.034e-05
1.04142e-05
1.04333e-05
7.40305e-06
1.01177e-05
1.04268e-05
1.03756e-05
1.03978e-05
5.99972e-06
4.88364e-06
1.04383e-05
1.04137e-05
1.03752e-05
1.03718e-05
1.04009e-05
7.1213e-06
1.04128e-05
1.03983e-05
7.21898e-06
1.02838e-05
1.04069e-05
1.0437e-05
1.03371e-05
1.04418e-05
1.03924e-05
3.50668e-06
3.52458e-06
1.06846e-05
1.03962e-05
1.04326e-05
1.04295e-05
7.17905e-06
1.03899e-05
1.04035e-05
1.04023e-05
1.04446e-05
1.05556e-05
1.04278e-05
1.04331e-05
3.29328e-06
7.16694e-06
1.11726e-06
1.0431e-05
1.04142e-05
2.1722e-06
1.04001e-05
7.31993e-06
1.04395e-05
5.96927e-06
1.04475e-05
1.04299e-05
1.01595e-05
1.04125e-05
7.43558e-06
7.24937e-06
6.78456e-06
1.03959e-05
1.04402e-05
1.04433e-05
1.04219e-05
1.04076e-05
1.04475e-05
7.42444e-06
1.04345e-05
1.04099e-05
1.04211e-05
1.03827e-05
1.04105e-05
3.69461e-06
1.04055e-05
1.04319e-05
1.04174e-05
1.04248e-05
1.04256e-05
6.77912e-06
1.05756e-05
1.0595e-05
1.0384e-05
1.03695e-05
1.04426e-05
1.04324e-05
1.04287e-05
6.09499e-06
1.02742e-05
1.0332e-05
1.04599e-05
1.04345e-05
1.0422e-05
1.04088e-05
1.00886e-05
1.0362e-05
5.84419e-06
6.48646e-06
1.04247e-05
1.04385e-05
1.02491e-05
1.04062e-05
1.04087e-05
1.03658e-05
1.03783e-05
2.63525e-06
1.04255e-05
1.04341e-05
6.54115e-06
1.04131e-05
6.44263e-06
1.04128e-05
9.92044e-06
1.04097e-05
1.04256e-05
1.04333e-05
7.03401e-06
1.03518e-05
1.039e-05
1.04127e-05
1.04877e-05
1.04436e-05
1.04143e-05
1.04458e-05
1.04266e-05
6.60352e-06
1.04391e-05
1.04221e-05
1.04228e-05
1.03714e-05
1.04118e-05
1.04095e-05
4.00765e-06
6.29628e-06
1.04056e-05
6.67533e-06
1.04357e-05
1.03626e-05
1.04333e-05
1.04232e-05
1.04237e-05
1.03899e-05
1.04796e-05
1.04153e-05
1.04257e-05
1.04297e-05
1.04359e-05
1.03645e-05
7.96864e-06
1.04464e-05
1.03793e-05
1.04134e-05
1.0434e-05
1.0427e-05
1.04241e-05
1.04373e-05
1.03633e-05
6.49453e-06
1.03578e-05
1.04297e-05
6.59412e-06
1.04193e-05
6.62318e-06
1.04462e-05
1.04302e-05
1.04111e-05
1.04226e-05
1.03987e-05
1.04379e-05
5.1973e-06
1.04775e-05
1.0443e-05
1.03866e-05
1.04079e-05
1.03672e-05
1.04265e-05
1.03372e-05
1.04302e-05
1.04093e-05
1.04337e-05
6.17016e-06
1.04296e-05
1.0413e-05
1.03185e-05
1.04407e-05
6.69011e-06
1.04407e-05
1.03983e-05
1.04161e-05
1.0387e-05
1.0288e-05
6.71273e-06
1.04332e-05
1.04425e-05
1.03015e-05
1.04247e-05
1.0427e-05
1.0432e-05
6.94612e-06
1.04257e-05
1.04077e-05
6.45248e-06
1.03942e-05
1.04316e-05
1.04182e-05
1.03659e-05
1.03934e-05
1.04e-05
1.04379e-05
6.39961e-06
6.4978e-06
1.02611e-05
1.06142e-06
1.05893e-05
1.04243e-05
1.04079e-05
1.04543e-05
6.58782e-06
1.03893e-05
1.03579e-05
1.04263e-05
1.0411e-05
1.04211e-05
6.77989e-06
6.97966e-06
6.42968e-06
6.40193e-06
6.35585e-06
1.22963e-06
2.84542e-06
1.04312e-05
1.04329e-05
6.19397e-06
6.26617e-06
6.2788e-06
1.04335e-05
1.03789e-05
1.04426e-05
1.04089e-05
1.04257e-05
1.04302e-05
1.04304e-05
1.0437e-05
1.04213e-05
1.04287e-05
1.04234e-05
1.04299e-05
4.13329e-06
1.04258e-05
1.04336e-05
1.04285e-05
1.04309e-05
1.04283e-05
1.04258e-05
6.58345e-06
9.7412e-06
1.04316e-05
1.05413e-05
1.0548e-05
1.04517e-05
6.14702e-06
1.0395e-05
1.04301e-05
4.88011e-06
1.03873e-05
1.04405e-05
6.48382e-06
6.48576e-06
6.71056e-06
6.80294e-06
6.2023e-06
1.0385e-05
1.04176e-05
1.04385e-05
1.0429e-05
1.04303e-05
1.04272e-05
1.03729e-05
6.25921e-06
6.14804e-06
1.04213e-05
1.04419e-05
1.0423e-05
1.0432e-05
1.04399e-05
6.86219e-06
6.33462e-06
6.30454e-06
1.04301e-05
1.04257e-05
1.05347e-05
1.04309e-05
1.04877e-05
1.04075e-05
7.25492e-06
1.03585e-05
1.04379e-05
5.64607e-06
6.24343e-06
6.41249e-06
1.04146e-05
9.83748e-06
1.04228e-05
1.34019e-06
5.8938e-06
6.88606e-06
1.04435e-05
1.03742e-05
6.34718e-06
1.04137e-05
6.36695e-06
1.04239e-05
1.03377e-05
1.04312e-05
6.0946e-06
1.03965e-05
1.03423e-05
1.04358e-05
1.04454e-05
1.04396e-05
5.66137e-06
1.04317e-05
6.40466e-06
1.04329e-05
1.04043e-05
1.04432e-05
6.48354e-06
1.04293e-05
6.13951e-06
1.0414e-05
1.04093e-05
6.32706e-06
1.0419e-05
6.02089e-06
1.04463e-05
5.94175e-06
6.61727e-06
1.04058e-05
1.04339e-05
6.25099e-06
6.52703e-06
6.60447e-06
6.57154e-06
1.04328e-05
1.03767e-05
1.04261e-05
5.91657e-06
1.04093e-05
1.33808e-06
1.0443e-05
6.38862e-06
1.04026e-05
6.21557e-06
6.04758e-06
2.04461e-06
6.03257e-06
5.9829e-06
1.04168e-05
6.42218e-06
6.45865e-06
2.4924e-06
5.99481e-06
6.13892e-06
6.04952e-06
6.53558e-06
1.0418e-05
6.54891e-06
1.04377e-05
6.43603e-06
6.57683e-06
6.31989e-06
4.72185e-06
1.04471e-05
4.81581e-06
5.90356e-06
6.21571e-06
5.42136e-06
6.46326e-06
1.04344e-05
5.30821e-06
5.8715e-06
5.17082e-06
1.03834e-05
6.34459e-06
6.00659e-06
6.42706e-06
6.0327e-06
6.11524e-06
3.59075e-06
3.64649e-06
5.52549e-06
6.60063e-06
5.95644e-06
5.30025e-06
5.88554e-06
6.1985e-06
6.6691e-06
5.75869e-06
5.52589e-06
5.28945e-06
5.05708e-06
6.20984e-06
5.92349e-06
6.11675e-06
1.04445e-05
6.06423e-06
6.25403e-06
5.77397e-06
6.03269e-06
6.28217e-06
5.57397e-06
5.72172e-06
6.34768e-06
6.42633e-06
6.13478e-06
5.84829e-06
5.64252e-06
5.81377e-06
5.33903e-06
5.40684e-06
1.04245e-05
5.8972e-06
2.7429e-06
5.79682e-06
5.7862e-06
5.66788e-06
5.2293e-06
4.96223e-06
1.04324e-05
5.54445e-06
4.02594e-06
5.49381e-06
5.69854e-06
5.76086e-06
5.86302e-06
4.77562e-06
5.60878e-06
5.86508e-06
5.59875e-06
6.02184e-06
5.97824e-06
6.00935e-06
6.66797e-06
5.45407e-06
6.03135e-06
5.80628e-06
5.30396e-06
5.81193e-06
5.54422e-06
5.38305e-06
5.99109e-06
5.73461e-06
5.52793e-06
5.54469e-06
5.69473e-06
5.41234e-06
5.70699e-06
5.6918e-06
5.10737e-06
5.90265e-06
5.27674e-06
5.32539e-06
6.52541e-06
5.02208e-06
5.40072e-06
5.20026e-06
5.75648e-06
5.4984e-06
5.64967e-06
5.42928e-06
1.04219e-05
5.60797e-06
5.4319e-06
5.42587e-06
5.31518e-06
5.28379e-06
5.40517e-06
5.17559e-06
5.77135e-06
5.78839e-06
5.42871e-06
5.21738e-06
5.41262e-06
1.04482e-05
5.32143e-06
6.37579e-06
5.3463e-06
5.2155e-06
5.08001e-06
4.98373e-06
5.50086e-06
5.39316e-06
5.02423e-06
5.29853e-06
5.32026e-06
5.5796e-06
5.24872e-06
5.35586e-06
5.19882e-06
5.10374e-06
5.12269e-06
5.38451e-06
5.21243e-06
5.52063e-06
4.92858e-06
5.33878e-06
5.32143e-06
5.33983e-06
4.78086e-06
4.87303e-06
5.10355e-06
4.8274e-06
4.97923e-06
5.29422e-06
5.1102e-06
5.21067e-06
5.20868e-06
5.10418e-06
5.31803e-06
6.16065e-06
4.80849e-06
5.24222e-06
5.2215e-06
4.89721e-06
5.13832e-06
4.69858e-06
5.15356e-06
4.98982e-06
4.88155e-06
5.4869e-06
4.72338e-06
4.71812e-06
5.04869e-06
5.04078e-06
3.40528e-06
4.8216e-06
5.01635e-06
4.61757e-06
4.73585e-06
4.77499e-06
5.11219e-06
4.80332e-06
4.95718e-06
4.89566e-06
5.09935e-06
5.07368e-06
4.38105e-06
4.51311e-06
4.83278e-06
4.90847e-06
4.97152e-06
5.29537e-06
4.4693e-06
4.46986e-06
4.69827e-06
4.05896e-06
4.74195e-06
4.87014e-06
4.70333e-06
4.67994e-06
3.85157e-06
4.17567e-06
4.23553e-06
4.51543e-06
4.77089e-06
4.41595e-06
4.34939e-06
4.63117e-06
4.41936e-06
4.78377e-06
4.4704e-06
4.79326e-06
4.63569e-06
4.2837e-06
4.59654e-06
4.21997e-06
4.18212e-06
4.08807e-06
4.50299e-06
4.60355e-06
4.33796e-06
4.58412e-06
4.58081e-06
4.50028e-06
4.32583e-06
4.66746e-06
4.19737e-06
4.27383e-06
4.66289e-06
4.20955e-06
4.35643e-06
4.54903e-06
4.32851e-06
4.69247e-06
3.95178e-06
4.38987e-06
4.88372e-06
4.42855e-06
4.54417e-06
4.3919e-06
4.09956e-06
4.49882e-06
4.00731e-06
4.16937e-06
4.29496e-06
4.39916e-06
4.61365e-06
4.29707e-06
4.19556e-06
4.11295e-06
4.37246e-06
4.22728e-06
4.35295e-06
6.05904e-06
3.99184e-06
4.29651e-06
1.2651e-06
1.32204e-06
4.21718e-06
4.20734e-06
4.0604e-06
3.99012e-06
4.3273e-06
4.21856e-06
3.31349e-06
4.07651e-06
4.28155e-06
4.31151e-06
3.88254e-06
4.22828e-06
4.72532e-06
3.90204e-06
4.14835e-06
4.5114e-06
4.11709e-06
3.78435e-06
4.02977e-06
3.9539e-06
4.28275e-06
4.18976e-06
3.71904e-06
4.26233e-06
4.06651e-06
3.44992e-06
4.14301e-06
3.63602e-06
3.95008e-06
4.00321e-06
3.89466e-06
4.06224e-06
3.35809e-06
5.6656e-06
4.00107e-06
3.61873e-06
3.82755e-06
3.71187e-06
3.9352e-06
3.38201e-06
3.50282e-06
3.74669e-06
3.49335e-06
3.54423e-06
3.85775e-06
3.75703e-06
3.7853e-06
3.55553e-06
3.83005e-06
3.64019e-06
3.45302e-06
4.0196e-06
3.79992e-06
3.86529e-06
3.72091e-06
3.39612e-06
3.70644e-06
3.76878e-06
3.6829e-06
3.62439e-06
3.90991e-06
3.55381e-06
3.27589e-06
3.75445e-06
3.51912e-06
3.56681e-06
3.71667e-06
2.40562e-06
3.33377e-06
3.46844e-06
3.61509e-06
3.55595e-06
3.65578e-06
4.10455e-06
2.81728e-06
3.44024e-06
3.15431e-06
3.17936e-06
3.61689e-06
3.60749e-06
3.5234e-06
3.39305e-06
3.44893e-06
3.41616e-06
3.17278e-06
3.34691e-06
3.20452e-06
2.74099e-06
2.37892e-06
2.92427e-06
2.49827e-06
4.30184e-06
3.03766e-06
3.36576e-06
2.65021e-06
3.30343e-06
3.27566e-06
3.18377e-06
2.8078e-06
2.5471e-06
3.25964e-06
3.42651e-06
3.19714e-06
3.1047e-06
2.76657e-06
3.30257e-06
2.16908e-06
2.98318e-06
2.28327e-06
3.27617e-06
2.98479e-06
2.62193e-06
3.20671e-06
3.28145e-06
3.07033e-06
3.21382e-06
3.22744e-06
2.97903e-06
2.86735e-06
3.364e-06
2.99675e-06
2.05905e-06
2.42364e-06
3.06343e-06
3.18455e-06
3.10479e-06
3.10197e-06
3.08896e-06
2.88318e-06
2.59201e-06
2.91973e-06
2.49003e-06
2.76037e-06
2.67992e-06
2.85365e-06
3.02076e-06
2.6998e-06
2.85845e-06
2.91275e-06
2.93253e-06
3.9631e-06
3.10883e-06
3.02099e-06
2.66278e-06
3.06592e-06
3.44759e-06
3.02708e-06
3.1336e-06
2.98127e-06
2.78112e-06
2.71943e-06
2.57544e-06
2.94124e-06
2.74973e-06
2.69612e-06
2.98676e-06
3.17927e-06
2.84146e-06
2.65821e-06
2.30475e-06
2.78879e-06
3.05629e-06
2.88529e-06
2.41091e-06
2.76338e-06
2.67587e-06
2.77581e-06
2.98749e-06
2.67438e-06
2.56874e-06
2.48458e-06
2.36025e-06
2.71245e-06
2.03736e-06
2.12878e-06
2.61439e-06
2.50107e-06
2.47782e-06
2.88304e-06
2.23778e-06
2.2937e-06
2.67623e-06
2.71243e-06
2.55429e-06
2.43801e-06
2.2663e-06
2.40775e-06
2.53683e-06
2.20539e-06
2.28131e-06
2.30979e-06
2.59003e-06
2.44908e-06
2.5852e-06
1.91803e-06
2.27973e-06
2.33086e-06
2.18318e-06
2.10084e-06
3.53486e-06
2.46233e-06
2.35302e-06
2.3427e-06
2.49464e-06
2.5884e-06
2.05914e-06
2.52798e-06
2.33021e-06
2.36075e-06
1.99134e-06
2.01594e-06
2.15382e-06
2.23835e-06
2.3702e-06
2.3288e-06
2.14867e-06
2.46654e-06
1.94857e-06
2.45452e-06
1.87751e-06
2.34031e-06
1.60896e-06
2.06802e-06
2.06028e-06
1.78084e-06
1.87204e-06
2.19187e-06
1.75109e-06
1.75026e-06
3.01764e-06
2.00039e-06
2.14312e-06
1.89812e-06
1.8887e-06
1.63848e-06
1.69841e-06
1.72165e-06
1.86816e-06
1.71417e-06
1.96773e-06
1.76235e-06
1.75229e-06
1.70175e-06
1.80127e-06
1.91481e-06
1.52656e-06
1.52979e-06
1.69918e-06
1.52178e-06
1.86007e-06
1.55389e-06
1.64667e-06
1.95553e-06
1.81081e-06
1.49645e-06
1.41625e-06
1.798e-06
1.50842e-06
1.60335e-06
1.79663e-06
1.47225e-06
1.30671e-06
1.59936e-06
1.41451e-06
1.4817e-06
1.42252e-06
1.55873e-06
1.19843e-06
1.41134e-06
1.2678e-06
1.4199e-06
1.70119e-06
1.27512e-06
1.64246e-06
1.59774e-06
1.17344e-06
1.76258e-06
1.30212e-06
3.88171e-06
1.4693e-06
2.08391e-06
1.40691e-06
1.3378e-06
1.33762e-06
4.60347e-06
3.58313e-06
3.34015e-06
2.37944e-06
1.58073e-06
1.94008e-06
1.02322e-06
1.25082e-06
1.20601e-06
2.14407e-06
1.0783e-06
1.49875e-06
5.74508e-06
2.49682e-06
3.04873e-06
2.2323e-06
1.52114e-06
3.42171e-06
3.74138e-06
3.49124e-06
2.49641e-06
1.88664e-06
5.02908e-06
1.82548e-06
4.48506e-06
1.34589e-06
1.15036e-06
1.38195e-06
5.20362e-06
1.39403e-06
6.56557e-06
2.84401e-06
2.95436e-06
3.15661e-06
3.06909e-06
5.13743e-06
3.23793e-06
2.36796e-06
2.33557e-06
3.18265e-06
3.32137e-06
3.32041e-06
1.11576e-06
4.34767e-06
4.31471e-06
2.13451e-06
5.46766e-06
3.33725e-06
5.77572e-07
2.61488e-06
1.27052e-06
3.70463e-06
6.64777e-06
6.99962e-06
2.1038e-06
1.58135e-06
1.47364e-06
4.7567e-06
1.61218e-06
4.74981e-06
1.39353e-06
5.15624e-06
5.3779e-06
1.99888e-06
7.07277e-06
1.26305e-06
1.31429e-06
3.61475e-06
5.52458e-06
4.13626e-06
4.55188e-06
4.83092e-06
5.64111e-06
2.50002e-06
7.64833e-06
1.32214e-06
3.77206e-06
1.46571e-06
6.47097e-06
6.7861e-06
1.28471e-06
6.80668e-07
6.71251e-06
5.36794e-06
5.5421e-06
5.77579e-06
6.77371e-06
7.80688e-07
8.52792e-07
4.65759e-06
5.09455e-06
6.83171e-06
5.47664e-06
1.37957e-06
3.92059e-06
6.90483e-06
5.0301e-06
1.36757e-06
4.87676e-06
7.19925e-06
5.72928e-06
7.38035e-06
3.05225e-06
1.95226e-06
1.82847e-06
1.31002e-06
6.56069e-06
6.32302e-06
5.59844e-06
1.07978e-06
1.17132e-06
1.7349e-06
6.70572e-06
1.16029e-06
1.3705e-06
1.36932e-06
1.89522e-06
2.28561e-06
1.36879e-06
1.26131e-06
2.32747e-06
1.3629e-06
1.50337e-06
1.90194e-06
1.66759e-06
2.19104e-06
1.51054e-06
1.90128e-06
2.22744e-06
1.67077e-06
1.97607e-06
1.82385e-06
2.39699e-06
2.23541e-06
1.84212e-06
1.86285e-06
1.83366e-06
1.97405e-06
2.7745e-06
1.93817e-06
2.91653e-06
1.79907e-06
1.9243e-06
1.99807e-06
1.78526e-06
2.98796e-06
1.9455e-06
2.6207e-06
2.08849e-06
2.09931e-06
2.89272e-06
2.12877e-06
3.12435e-06
3.53057e-06
2.74898e-06
2.19289e-06
3.43792e-06
3.14889e-06
3.19715e-06
3.21464e-06
2.99577e-06
2.89446e-06
3.07786e-06
2.25974e-06
3.09934e-06
2.88038e-06
3.04238e-06
2.21059e-06
3.09192e-06
3.8948e-06
3.18232e-06
3.28641e-06
3.33667e-06
3.02918e-06
3.95807e-06
3.09321e-06
3.26147e-06
3.36448e-06
3.66308e-06
3.27069e-06
3.13522e-06
3.75185e-06
4.21623e-06
3.65782e-06
3.9325e-06
3.89009e-06
4.59586e-06
3.7695e-06
3.99705e-06
3.14297e-06
4.56359e-06
3.8541e-06
4.11142e-06
4.23509e-06
3.82394e-06
4.15323e-06
4.44393e-06
4.8181e-06
4.26299e-06
4.36337e-06
4.45849e-06
5.09432e-06
4.51917e-06
4.37121e-06
4.75291e-06
5.12945e-06
4.7934e-06
4.42631e-06
4.36764e-06
4.3141e-06
4.97203e-06
4.88607e-06
4.46534e-06
4.41244e-06
4.49616e-06
4.87206e-06
4.57255e-06
4.95296e-06
4.51906e-06
5.0644e-06
4.62041e-06
5.24055e-06
5.04568e-06
4.95674e-06
5.69491e-06
5.15373e-06
5.21245e-06
5.20347e-06
5.56691e-06
5.21504e-06
4.62492e-06
5.89366e-06
5.13668e-06
1.04483e-05
5.45208e-06
6.1675e-06
5.48972e-06
6.0226e-06
6.09786e-06
1.04115e-05
5.67758e-06
6.22642e-06
6.31704e-06
1.22614e-06
5.70002e-06
5.9029e-06
1.04322e-05
6.36621e-06
6.26933e-06
6.57605e-06
1.038e-05