/*--------------------------------*- C++ -*----------------------------------*\
  =========                 |
  \\      /  F ield         | OpenFOAM: The Open Source CFD Toolbox
   \\    /   O peration     | Website:  https://openfoam.org
    \\  /    A nd           | Version:  7
     \\/     M anipulation  |
\*---------------------------------------------------------------------------*/
FoamFile
{
    version     2.0;
    format      ascii;
    class       surfaceScalarField;
    location    "96.5";
    object      phi;
}
// * * * * * * * * * * * * * * * * * * * * * * * * * * * * * * * * * * * * * //

dimensions      [0 3 -1 0 0 0 0];

internalField   nonuniform List<scalar> 
1111
(
6.99459e-09
1.29565e-08
-1.60402e-08
-3.91082e-09
6.94444e-09
-1.17952e-08
1.18453e-08
-1.47454e-08
5.73259e-09
8.86068e-09
1.52093e-10
8.93317e-10
-1.0321e-09
-1.43739e-08
1.45127e-08
-1.43346e-08
1.41259e-08
1.10201e-09
-1.6236e-09
1.49142e-08
2.138e-09
-2.84731e-09
9.46714e-09
-9.54922e-09
2.92939e-09
-6.72135e-09
-1.2613e-08
1.25985e-08
6.73587e-09
-5.02413e-08
-2.60792e-08
7.63205e-08
-8.11705e-09
7.71156e-09
7.34992e-09
3.3073e-09
3.69443e-10
-3.38795e-09
-2.88797e-10
1.58696e-08
-1.62487e-08
-2.32408e-08
2.362e-08
-9.66532e-09
-7.8974e-09
8.80264e-09
8.76008e-09
-3.55744e-08
1.77174e-08
-3.23457e-08
5.02026e-08
9.49801e-09
-1.96301e-09
-1.42563e-08
-5.20822e-10
1.49211e-09
-2.924e-09
1.95271e-09
-3.94403e-09
1.33273e-08
1.97029e-09
-1.13535e-08
8.81274e-09
-2.66345e-09
-1.5053e-08
8.90369e-09
3.72408e-08
-2.99094e-08
-7.33137e-09
-1.94433e-08
3.39563e-10
1.72342e-08
1.86957e-09
-1.06162e-09
4.23496e-09
-1.78466e-08
1.46733e-08
-6.1225e-08
-3.96187e-09
6.51869e-08
1.38477e-10
-1.14214e-09
-3.30032e-10
1.33369e-09
-1.7586e-09
-1.36376e-08
-8.24112e-11
-2.33309e-10
1.75927e-10
1.39792e-10
-1.03794e-08
-8.55171e-09
1.31061e-08
5.82503e-09
6.82864e-10
-2.12728e-09
-8.26983e-09
9.71425e-09
8.64247e-09
7.73071e-10
-9.69439e-09
2.78853e-10
-2.87704e-09
-8.02759e-09
1.10995e-08
-1.94905e-10
1.14091e-08
-1.01069e-09
-1.58571e-09
-8.03937e-10
8.08929e-10
-1.11639e-11
6.17219e-12
-8.18899e-11
6.73997e-10
2.07635e-10
-7.99742e-10
-4.24395e-10
-3.96376e-11
4.56282e-10
7.75081e-12
-4.76218e-11
-7.71054e-10
1.13624e-10
7.05052e-10
-1.0539e-10
-7.46169e-10
9.78114e-10
-1.84033e-08
-2.01812e-09
-3.45679e-10
3.88251e-11
-1.17541e-10
1.33821e-08
-1.32438e-08
4.09667e-09
-3.50163e-10
5.42464e-10
3.1996e-10
-5.1226e-10
-2.89055e-11
-1.342e-09
1.14685e-09
2.24056e-10
-1.94548e-09
1.06106e-08
-1.15125e-08
-2.43803e-10
-1.46144e-10
4.42673e-11
-8.73551e-09
1.05132e-08
-9.89478e-09
1.22623e-08
-1.71456e-08
4.57234e-09
3.10905e-10
5.06758e-11
-1.4328e-10
-1.51198e-10
1.54335e-10
7.50596e-10
-9.60024e-11
-5.95286e-08
7.42327e-08
-1.47041e-08
1.00427e-09
-2.20281e-10
-1.11801e-09
3.34021e-10
1.14672e-09
1.03078e-08
-1.37139e-08
2.25935e-09
-1.81176e-09
7.77652e-09
-8.94727e-09
2.98252e-09
-6.73576e-09
5.6077e-09
5.6861e-09
-4.55804e-09
-7.72247e-09
-1.62329e-09
1.68166e-09
7.66409e-09
-1.82907e-10
-9.09145e-08
9.13007e-08
-2.03295e-10
-2.57578e-10
-8.97505e-08
9.01609e-08
-1.5277e-10
8.30782e-08
-1.4929e-09
1.10264e-10
-8.16956e-08
-2.83019e-09
-5.06034e-10
6.20627e-10
8.14399e-10
-4.30756e-10
3.91085e-09
-1.02749e-09
3.49549e-09
-6.37885e-09
-9.23214e-10
8.57269e-10
-1.49304e-08
6.5818e-09
9.85442e-09
1.06163e-09
-1.06365e-08
-2.79503e-10
-6.09231e-09
1.35048e-08
9.96458e-10
-8.409e-09
1.43762e-08
-4.54308e-09
3.76676e-09
-1.35999e-08
1.53942e-08
1.67598e-09
-1.64141e-09
-1.98844e-10
-2.00643e-08
-7.42448e-09
2.76877e-08
1.44352e-08
-8.79456e-09
-1.89201e-09
8.0065e-09
-1.22068e-08
2.33042e-11
3.53444e-11
-1.17666e-09
-3.61667e-08
-2.33619e-08
8.32608e-09
2.86849e-10
3.64942e-09
-6.99436e-09
1.11795e-08
6.32809e-09
-5.69143e-10
2.99432e-10
4.59133e-10
-1.89422e-10
5.72474e-09
-4.79783e-09
3.67112e-09
-4.59804e-09
-4.15699e-10
-6.04661e-10
2.49306e-10
6.17668e-10
-5.43682e-10
1.13906e-11
-7.52323e-10
6.59042e-10
-1.817e-08
2.41126e-09
1.5783e-09
1.41805e-08
2.04684e-10
-6.61815e-10
-1.12013e-10
-4.17298e-09
-1.51513e-08
1.15428e-09
5.61058e-09
1.20846e-08
-5.23099e-09
-1.24642e-08
1.64065e-08
7.20384e-10
-1.58691e-08
-1.25784e-09
-6.49895e-10
4.28217e-10
5.21111e-10
-3.25226e-10
1.58026e-10
1.672e-10
-7.44753e-09
-3.5329e-09
4.24467e-09
-2.01222e-10
3.14978e-10
-1.13756e-10
1.11084e-09
-1.56632e-08
-7.87537e-10
9.94766e-09
-1.11056e-08
-9.11073e-10
-3.13835e-10
1.29471e-08
4.43767e-09
-4.18045e-09
-1.32043e-08
7.56155e-11
7.18177e-09
-7.95901e-09
6.38494e-09
-1.62911e-09
-9.01737e-09
8.22724e-09
2.41924e-09
-1.9197e-09
6.83321e-10
-1.39149e-08
-1.0832e-10
-9.29014e-11
2.83846e-10
6.86925e-10
-8.69324e-09
7.61635e-10
1.72777e-08
-1.63279e-09
-1.20867e-08
1.34612e-08
-1.37451e-09
1.22426e-08
1.39329e-08
-1.54986e-08
-1.06769e-08
-4.99296e-10
9.29035e-10
-4.29739e-10
2.79807e-10
-1.41204e-10
-1.38603e-10
1.70109e-10
2.53817e-10
-4.23926e-10
1.325e-09
-1.06751e-09
-2.57489e-10
-1.05551e-08
9.04715e-10
9.65041e-09
1.94946e-09
-6.24456e-10
8.97313e-09
-1.54082e-08
7.71204e-09
-9.23995e-09
6.06132e-11
3.6506e-09
-4.03913e-10
-2.3189e-09
2.37951e-09
-6.48775e-09
7.82306e-09
-1.3353e-09
-5.02415e-10
4.27023e-09
1.43034e-10
1.72641e-08
-1.44791e-08
-1.6383e-09
-6.09687e-09
5.42326e-09
-3.53887e-10
-1.84318e-10
5.80489e-09
-5.78994e-09
-1.49538e-11
6.86683e-09
4.54401e-09
-3.40278e-11
-1.59571e-08
1.0467e-08
1.77327e-08
5.79488e-09
8.25373e-09
8.18508e-09
-6.84953e-09
1.39615e-09
-1.19513e-08
2.90098e-10
1.38955e-09
-1.30006e-08
2.80184e-09
-4.22323e-10
1.1325e-08
-1.06046e-08
-2.6935e-10
-7.47113e-10
-1.38161e-08
7.70028e-09
7.10527e-10
6.97752e-13
-8.89135e-09
5.01063e-09
-3.01082e-08
-1.25145e-08
-2.82076e-09
1.5191e-09
1.41072e-08
1.10514e-08
-1.08115e-08
-1.4347e-08
1.53925e-08
-3.14536e-09
-1.22471e-08
1.61012e-09
3.99021e-09
-9.97134e-10
-8.89017e-10
-8.34846e-10
1.12711e-09
5.96754e-10
-2.23108e-10
3.42301e-10
3.3994e-10
6.21425e-08
-6.21685e-08
2.60237e-11
6.20623e-08
-6.23665e-08
3.04114e-10
8.37335e-10
6.47322e-08
-6.55592e-08
8.2703e-10
6.41244e-08
6.07753e-10
-2.24003e-10
-6.65047e-08
9.45523e-10
-6.2058e-08
6.19232e-08
1.34757e-10
1.31539e-09
-6.78201e-08
-6.22179e-08
1.59924e-10
1.26403e-08
-6.53553e-10
1.26922e-09
-3.69885e-09
3.08318e-09
3.05385e-10
-1.16771e-09
8.99315e-10
-5.48337e-10
1.37533e-09
-1.60514e-09
7.78146e-10
1.38202e-09
-1.47255e-09
1.25876e-10
-4.72899e-11
-3.44173e-09
2.72408e-09
-1.95187e-09
2.66953e-09
-4.15938e-10
-2.72386e-09
2.48625e-09
-3.52987e-09
-5.82599e-09
5.75575e-10
-5.96023e-10
1.17325e-09
1.1014e-09
-6.46374e-09
7.90116e-09
3.10659e-09
1.97442e-08
-4.35172e-09
-6.86972e-10
2.82155e-10
9.80392e-10
-1.00934e-08
-2.60733e-08
5.29126e-09
-4.24856e-09
-3.18133e-09
2.13862e-09
9.75725e-11
2.43671e-11
3.34342e-10
-2.53945e-09
3.31916e-09
8.97695e-09
7.15938e-10
-2.02991e-10
2.07998e-09
-2.29292e-09
1.8177e-09
1.47184e-08
1.33217e-08
-2.6933e-08
3.27092e-08
6.32906e-09
-2.28366e-08
-1.04254e-08
1.8515e-08
-1.80022e-08
1.05386e-08
-5.41167e-11
-2.14425e-10
-1.20401e-09
-1.68225e-09
-2.90396e-09
3.42383e-09
1.51308e-08
-6.20564e-10
-1.38269e-08
-7.27277e-10
-2.29491e-09
2.9832e-10
1.54701e-08
1.77633e-08
1.37023e-08
7.42601e-10
-1.71037e-09
-1.27345e-08
-1.50012e-09
5.97887e-09
1.25788e-08
-4.65886e-10
-1.0274e-09
-3.64286e-09
2.79351e-09
3.57343e-09
2.49865e-09
1.45074e-08
4.28075e-09
-1.43505e-08
1.80469e-08
-1.76186e-09
2.44508e-09
-3.36307e-09
1.90803e-09
-4.93662e-09
1.29387e-08
-1.19461e-08
-1.40468e-08
3.18148e-10
8.79204e-09
-1.79477e-09
1.49869e-09
1.46933e-09
-8.66131e-09
7.05278e-10
-4.55845e-09
-5.99808e-09
1.21856e-08
-1.48489e-08
1.06335e-09
1.6748e-09
-2.20332e-09
1.68114e-08
-1.62829e-08
-1.10594e-09
1.41877e-08
3.08612e-09
-4.45353e-09
-1.40408e-08
7.57104e-09
-1.74054e-08
-8.1679e-09
6.8425e-09
5.87183e-09
1.46145e-08
-1.00411e-08
3.0195e-09
9.4408e-09
9.83935e-09
3.85669e-09
-4.20594e-09
2.17657e-08
-1.92223e-08
5.0277e-09
-1.06013e-08
2.17032e-09
5.67836e-09
1.39469e-08
-3.32779e-10
1.28105e-08
-1.35837e-08
-1.92445e-09
1.74104e-09
-7.38599e-10
9.22001e-10
1.10615e-08
-6.36986e-09
7.39302e-09
-1.09971e-08
1.45743e-09
-4.7451e-09
1.14963e-08
-1.19822e-08
-7.57842e-09
9.22289e-09
9.41701e-09
1.29323e-08
5.98234e-10
-1.38633e-08
1.44541e-09
7.83101e-10
-1.11388e-08
-6.7257e-09
1.02861e-08
-1.38191e-09
2.51322e-09
-8.98939e-09
4.78194e-09
-5.29073e-09
1.16059e-08
-3.47903e-09
-1.18202e-08
3.69331e-09
-4.4717e-09
1.13325e-08
1.82783e-09
1.11627e-09
-5.04664e-09
-1.78263e-08
1.05136e-08
1.23593e-08
7.31898e-10
-1.10416e-08
-1.00304e-08
1.60254e-08
1.26205e-08
2.87173e-09
-9.81391e-09
-1.33345e-08
-3.24626e-10
-1.27597e-08
1.61579e-10
-7.67818e-10
1.17058e-08
1.25478e-08
-8.23805e-09
1.66798e-08
-1.60508e-08
3.65175e-09
-4.88168e-10
1.78334e-09
1.28853e-08
-3.92872e-09
-1.2716e-08
-5.03688e-09
1.81887e-09
4.60756e-09
1.23137e-08
-7.24224e-09
9.66533e-10
-1.65536e-09
6.04317e-10
-8.73406e-10
5.90722e-09
2.63971e-08
-7.58162e-11
-9.60668e-09
9.68249e-09
2.85935e-08
-2.23468e-08
2.2109e-08
1.97582e-08
-1.27205e-08
-2.69824e-09
1.5124e-08
1.70432e-10
-1.21442e-08
-4.45031e-10
-6.01234e-09
-1.85335e-09
2.1925e-09
1.48868e-09
-4.4001e-10
-1.1128e-08
1.15559e-08
1.21095e-11
3.05715e-09
-5.11151e-09
-1.1131e-08
1.06714e-08
-9.18062e-10
-1.08468e-08
-2.26838e-10
-1.13278e-08
-2.51639e-09
-1.20714e-08
2.16769e-09
7.90044e-09
5.14622e-09
-4.29756e-10
-1.18188e-08
1.18085e-08
5.64092e-10
-8.85763e-09
5.14329e-09
-1.53328e-09
2.22264e-09
-2.05913e-09
-1.3058e-08
-1.25635e-08
1.20579e-08
-1.01871e-08
-1.58042e-08
1.00342e-08
9.28703e-09
8.25239e-10
2.69933e-09
-1.2306e-08
1.14987e-08
1.66455e-09
3.90233e-09
2.82379e-10
-4.81585e-10
-2.16494e-10
-4.15164e-09
2.52529e-09
-6.68558e-10
1.69945e-10
-2.00189e-10
3.02441e-11
-2.69456e-09
1.30837e-08
2.23135e-09
2.53801e-09
1.02036e-10
-1.36599e-09
-5.30688e-10
-2.30255e-09
-2.67445e-10
1.30357e-08
1.01021e-08
-3.15215e-10
6.79165e-09
-1.24175e-09
-5.23469e-09
-9.82371e-09
-5.13081e-09
1.29002e-10
4.09429e-11
4.87493e-09
1.33119e-09
-1.72478e-08
-3.25822e-10
-7.44725e-10
-2.77819e-09
1.02682e-09
3.09231e-09
6.19447e-08
-8.57079e-11
-6.1859e-08
6.23689e-08
1.88818e-10
-6.25577e-08
-1.41194e-08
-2.61937e-10
1.44697e-08
-8.84511e-11
3.11885e-09
-1.78367e-09
2.49615e-09
1.80074e-09
-4.51359e-09
-2.97593e-10
-5.07584e-10
4.12009e-10
-9.38474e-11
4.11916e-10
-2.7568e-10
1.97086e-08
1.05086e-09
-1.58846e-08
-1.33409e-10
-1.93671e-09
1.25432e-08
2.27879e-09
1.8026e-09
5.34515e-09
-2.12187e-09
-7.72334e-08
-2.41779e-08
-4.97169e-09
1.58452e-08
2.4538e-09
-4.21156e-11
-2.929e-09
-1.05541e-09
2.99429e-10
-2.7141e-10
-9.91196e-09
-3.63468e-10
1.02754e-08
-1.08753e-08
-6.58614e-09
1.07357e-08
-9.489e-09
8.75334e-09
2.30789e-10
1.46814e-09
9.44685e-09
-9.38847e-09
-5.83746e-11
5.82114e-10
8.65346e-11
1.07614e-08
5.67638e-10
-7.4781e-10
-7.68147e-11
-1.42467e-08
-4.65111e-10
-1.38301e-08
1.27096e-08
-1.18903e-08
-6.60356e-08
6.49917e-08
1.04392e-09
2.30098e-10
-2.0573e-10
1.20415e-08
-2.08232e-10
8.04267e-12
-2.06477e-09
2.75938e-09
-3.42219e-09
-1.34712e-08
-1.62431e-09
2.57403e-09
-4.70094e-09
-1.41162e-08
1.56935e-09
5.55516e-09
9.6902e-09
-9.05661e-09
-2.31743e-10
2.35111e-11
-9.31119e-09
-1.33804e-08
1.51017e-10
-6.2694e-08
2.35422e-10
6.24586e-08
6.95229e-10
6.34292e-08
-2.2374e-10
-1.63421e-09
-1.44983e-08
1.0748e-10
-6.34057e-08
6.32982e-08
1.85512e-10
-6.29465e-08
6.2761e-08
3.32697e-10
6.18005e-08
1.50451e-10
-6.1951e-08
6.16317e-08
1.68839e-10
-8.78902e-08
8.84995e-08
-1.49772e-12
9.33945e-08
-9.3101e-08
-2.67401e-10
-8.66293e-08
-4.339e-10
9.33535e-08
-1.83005e-10
-8.49159e-08
-7.67835e-10
9.34842e-08
1.73355e-10
-5.22318e-10
1.96124e-09
9.23603e-08
-6.9313e-08
6.21418e-08
-6.23247e-08
-6.29516e-08
6.14893e-08
1.42388e-10
-3.12985e-09
2.95188e-09
-1.41725e-08
4.64695e-11
8.25328e-11
1.27054e-09
8.72078e-09
-1.13842e-08
3.83104e-08
-3.45437e-08
-1.67672e-08
1.3805e-08
-3.74828e-11
-2.07514e-10
1.41407e-10
6.07939e-10
-1.21561e-10
3.10462e-10
4.44736e-09
1.04271e-09
-3.58204e-09
-1.59154e-10
1.97979e-10
-1.14886e-10
-2.58004e-09
1.32308e-08
2.43303e-09
-1.44298e-08
-2.63e-09
-3.30331e-09
5.53902e-09
1.04696e-09
-2.6337e-09
1.43212e-08
-1.17399e-09
-1.81602e-09
1.94929e-09
-8.11745e-09
-1.90709e-08
-1.34935e-08
8.01339e-09
5.79829e-09
-2.10277e-10
-5.65125e-10
2.9679e-09
1.44848e-08
2.28306e-09
-1.85369e-09
-3.77054e-10
4.27298e-10
-2.34563e-10
1.5941e-08
-5.90361e-10
-1.57141e-08
-3.61455e-11
-2.30858e-10
3.29215e-10
-2.57301e-10
3.43479e-09
-1.63089e-08
4.42743e-10
-1.50587e-09
-2.09236e-09
-2.30042e-09
1.56922e-08
-9.05952e-08
-1.33861e-10
9.16804e-08
-1.90852e-10
-8.91654e-08
-4.77619e-10
9.31038e-08
-2.7526e-10
-9.29143e-08
-5.43104e-10
-1.58722e-09
1.68179e-08
9.19819e-08
-1.98856e-10
2.92445e-11
-2.20959e-10
9.79335e-09
2.49013e-09
-7.35615e-09
-1.22176e-08
-5.67756e-09
8.40937e-09
1.49314e-09
-6.79592e-09
-5.99556e-09
9.03939e-09
-6.42105e-11
1.01388e-08
1.95007e-08
-1.79862e-08
3.08499e-09
-1.27344e-08
3.10343e-09
-6.9969e-08
3.9334e-09
-2.05981e-08
-1.30682e-08
-4.73044e-10
-5.93648e-09
-1.52906e-08
9.08287e-09
-1.51283e-08
4.13303e-10
3.497e-10
-1.91194e-09
-1.66661e-08
1.70831e-08
7.20406e-09
-7.71009e-09
-4.61167e-09
1.53022e-08
-1.6772e-09
6.96244e-10
-8.93822e-10
1.07471e-10
1.1964e-08
3.32119e-09
7.09115e-08
-1.82485e-08
7.16955e-10
-1.50322e-08
-2.2695e-10
-2.63859e-10
-1.05531e-10
6.09518e-08
-6.12271e-08
-6.33764e-08
-6.31454e-08
-6.42096e-11
-2.62239e-10
-9.25878e-08
-6.04538e-08
6.2415e-08
6.5102e-08
-6.02805e-08
6.45796e-08
-6.04635e-08
6.38118e-08
-6.07309e-08
6.33779e-08
9.23106e-08
2.69082e-10
-6.3515e-09
7.51198e-08
-6.54471e-08
3.40145e-11
-3.40145e-11
1.86789e-10
-3.17519e-10
1.54805e-08
-1.84282e-11
1.84282e-11
3.18119e-10
1.52322e-09
1.39056e-08
1.34167e-08
-2.72132e-09
3.72019e-09
6.61831e-09
1.80351e-09
3.58816e-10
-2.43465e-10
-2.9746e-09
1.45853e-08
1.48452e-08
-4.28814e-09
1.18195e-08
1.7492e-10
1.40632e-10
2.7243e-09
-8.08499e-10
-1.5192e-09
-5.84085e-09
-2.05352e-10
-3.88007e-10
1.53098e-08
2.43032e-10
5.71874e-11
1.44393e-08
-2.62271e-08
1.7799e-08
2.6642e-09
1.24711e-09
2.50012e-09
-3.72285e-09
1.93372e-08
-1.81145e-08
-7.43057e-11
1.14424e-10
-1.44085e-09
-7.92108e-08
-7.07539e-08
1.28897e-09
-4.56425e-10
6.30616e-10
2.30022e-08
1.86075e-08
-6.37106e-09
7.50312e-11
-4.26276e-09
-2.52136e-09
2.99486e-08
1.57597e-10
1.48184e-08
7.35801e-08
4.57821e-11
5.11019e-10
-1.49132e-10
-2.07629e-10
-3.62396e-09
2.42977e-08
-1.4869e-08
9.46967e-10
-1.41875e-08
-4.85183e-11
2.03951e-08
-2.87178e-08
9.44858e-10
1.91314e-09
-2.54697e-10
)
;

boundaryField
{
    back
    {
        type            empty;
        value           nonuniform 0();
    }
    ingreso
    {
        type            calculated;
        value           nonuniform List<scalar> 
14
(
-1.54286e-08
-1.54288e-08
-1.54288e-08
-1.54288e-08
-1.54286e-08
-1.54283e-08
-1.54288e-08
-1.54288e-08
-1.54286e-08
-1.54286e-08
-1.54288e-08
-1.5428e-08
-1.5428e-08
-1.54286e-08
)
;
    }
    salida
    {
        type            calculated;
        value           nonuniform List<scalar> 2(1.01411e-07 1.14589e-07);
    }
    front
    {
        type            empty;
        value           nonuniform 0();
    }
    defaultFaces
    {
        type            calculated;
        value           uniform 0;
    }
}


// ************************************************************************* //
