/*--------------------------------*- C++ -*----------------------------------*\
  =========                 |
  \\      /  F ield         | OpenFOAM: The Open Source CFD Toolbox
   \\    /   O peration     | Website:  https://openfoam.org
    \\  /    A nd           | Version:  7
     \\/     M anipulation  |
\*---------------------------------------------------------------------------*/
FoamFile
{
    version     2.0;
    format      ascii;
    class       volVectorField;
    location    "96.5";
    object      U;
}
// * * * * * * * * * * * * * * * * * * * * * * * * * * * * * * * * * * * * * //

dimensions      [0 1 -1 0 0 0 0];

internalField   nonuniform List<vector> 
591
(
(0.000836472 -7.45847e-06 1.21649e-18)
(0.000831791 -7.1025e-06 -6.62102e-19)
(0.000854517 1.60053e-05 5.70282e-20)
(0.000866935 -2.39815e-05 -1.49029e-19)
(0.000854442 -9.15109e-06 2.25459e-19)
(0.000803536 -3.87044e-05 -1.39578e-19)
(0.000564253 -0.000231549 8.06008e-19)
(0.000803793 4.3706e-06 2.10569e-18)
(0.00572461 0.00250991 9.87967e-19)
(0.000814159 -2.43041e-06 2.4468e-18)
(4.61885e-05 0.00016139 1.21794e-18)
(0.000938297 0.00139332 9.40748e-21)
(0.000801188 4.20785e-06 1.32262e-18)
(0.001603 0.00240376 -7.87389e-19)
(0.000803305 1.46524e-06 -4.46247e-19)
(4.60203e-05 -0.000156973 2.21835e-22)
(0.000140552 0.000670405 7.0482e-19)
(0.000817707 7.90407e-05 -4.96907e-19)
(0.00189971 0.000392226 4.73762e-19)
(0.00135974 0.000256193 -2.47069e-19)
(0.000831695 -8.77614e-06 3.73104e-19)
(0.00340049 0.00655982 -8.14603e-20)
(2.34814e-05 6.43319e-05 2.70875e-19)
(0.000836112 -2.47774e-05 -4.51515e-19)
(6.67481e-06 -1.15962e-05 3.58818e-19)
(0.00079044 4.22465e-05 0)
(9.45432e-05 0.000467624 1.59934e-19)
(0.000571292 -7.90337e-07 -1.78783e-19)
(0.000764332 4.70266e-05 1.14914e-18)
(0.000806729 6.94161e-05 5.84573e-19)
(4.97604e-05 -5.44142e-06 -5.09842e-24)
(2.25272e-05 -3.95385e-05 3.52075e-19)
(2.88427e-05 -2.58238e-06 -4.6409e-20)
(3.8227e-05 -1.22362e-05 0)
(4.68356e-05 -1.2865e-05 1.13113e-18)
(0.00117099 0.000139541 1.79846e-19)
(2.42534e-05 -4.26696e-06 4.47017e-20)
(0.000824322 4.73172e-07 3.13151e-23)
(2.33785e-05 3.8739e-05 2.65955e-19)
(-5.70523e-06 -6.42365e-05 -8.53612e-19)
(0.000658372 -0.000192413 9.5877e-19)
(1.88173e-05 -5.06252e-06 4.54695e-20)
(0.000812966 1.6856e-05 -1.57921e-18)
(0.000832168 4.98298e-05 -6.90946e-19)
(1.2182e-05 -5.70444e-06 0)
(4.85311e-05 4.05999e-06 8.51631e-20)
(0.00134888 0.00450323 8.92832e-19)
(6.8495e-05 1.07345e-05 8.63384e-20)
(0.000802391 1.65514e-05 0)
(0.000393521 -0.000229959 6.77023e-19)
(0.000389523 0.000266756 5.11789e-21)
(0.000403467 3.34056e-05 -1.0035e-18)
(0.00634759 0.0109404 -7.68647e-19)
(0.00622446 0.0107955 1.52883e-20)
(0.00561442 0.0103783 1.45593e-18)
(0.000805857 4.62708e-05 0)
(6.13907e-05 2.55896e-05 0)
(0.000319991 -5.55078e-06 2.50277e-23)
(5.62068e-05 6.84833e-06 -3.46361e-19)
(0.000812411 -7.03247e-06 0)
(0.000661202 2.84465e-05 3.17462e-19)
(0.000845071 2.59511e-05 2.20756e-18)
(0.000810628 3.84916e-05 -5.37788e-19)
(0.000800075 1.17276e-05 -3.15663e-19)
(0.00171345 0.000487399 5.4252e-19)
(0.000809998 3.10535e-05 -1.14718e-18)
(0.000837978 3.49533e-05 -5.23943e-19)
(7.08102e-05 -7.03073e-06 -1.73362e-19)
(0.000690098 0.00225859 0)
(0.000845035 4.86323e-05 0)
(0.000791405 2.58433e-05 -1.39257e-18)
(3.37596e-05 1.33731e-05 0)
(0.000292945 0.000263544 3.26768e-19)
(3.26751e-05 -1.54327e-05 0)
(3.46932e-05 -5.51279e-06 1.59428e-19)
(6.60548e-06 -3.50661e-05 -3.3657e-20)
(0.000802492 7.89638e-05 2.46902e-19)
(3.91622e-05 8.36131e-06 0)
(0.000811538 5.54459e-05 4.47416e-19)
(0.00078144 0.000295371 2.10668e-19)
(0.000961055 6.79095e-05 -3.97694e-20)
(3.8457e-05 1.95063e-05 -4.51735e-20)
(3.63214e-06 -1.23078e-05 0)
(0.00044252 0.000211014 1.70141e-19)
(2.69312e-06 1.66493e-05 0)
(0.000805791 4.7021e-05 -6.07494e-19)
(0.00064463 -0.000115722 0)
(5.68648e-05 -4.62595e-06 -1.74431e-19)
(1.14097e-06 -1.72066e-05 0)
(0.000836015 0.000241921 -3.41158e-19)
(2.1288e-06 -6.87402e-06 0)
(0.00043203 0.000319701 -1.34822e-23)
(0.000544204 0.000107824 0)
(0.000815839 4.40155e-05 -3.06271e-24)
(2.20247e-06 9.95252e-06 -4.21594e-20)
(0.000472253 -2.76196e-05 1.76298e-18)
(0.00101863 7.33585e-05 4.15883e-20)
(0.000786624 4.71076e-05 6.41517e-22)
(0.000747313 0.000659601 2.6943e-19)
(6.89678e-06 3.93269e-05 0)
(-6.10854e-06 -1.96489e-05 -3.12174e-19)
(-3.70012e-05 -2.17435e-05 -1.10177e-18)
(5.00529e-06 6.50933e-05 -5.96203e-19)
(0.000594345 -2.85896e-05 0)
(9.12919e-06 8.84763e-05 0)
(0.000820486 3.41153e-05 2.18149e-18)
(0.000800221 3.62592e-05 1.53384e-18)
(0.000449764 -0.000111364 0)
(3.91083e-05 0.000207889 -8.9512e-19)
(1.15636e-06 0.000151706 4.96767e-19)
(5.63075e-05 0.000390957 6.25118e-19)
(0.000311237 6.62762e-05 -9.36938e-19)
(0.000801897 1.99663e-05 1.37377e-19)
(0.00025713 -7.01582e-05 5.31066e-19)
(4.19806e-06 2.48801e-05 0)
(1.87936e-05 0.000269503 -1.0939e-18)
(0.000325972 0.000318537 -1.61666e-19)
(-1.70359e-06 -1.45971e-05 1.46528e-19)
(0.000669978 0.000806214 0)
(0.000374426 0.00038116 5.74276e-20)
(0.000825183 2.87353e-05 1.07034e-18)
(0.000799732 1.73289e-06 -2.72443e-18)
(6.38879e-06 7.86364e-06 0)
(0.000659613 -4.10267e-05 -1.12277e-19)
(0.000323894 -0.000148701 1.24284e-18)
(0.00262128 0.000810284 -3.36506e-19)
(8.02774e-06 0.000117686 -6.13109e-19)
(8.51376e-06 0.000145716 1.61943e-18)
(0.000659673 2.54894e-05 -3.89691e-20)
(5.43834e-05 -1.63257e-05 -7.49951e-19)
(0.000811781 3.87426e-05 -3.90003e-19)
(0.000710245 2.75674e-05 -4.10437e-20)
(3.17203e-05 0.000316377 -5.97021e-19)
(0.000503123 5.22686e-05 -4.93795e-19)
(4.14945e-05 -4.338e-06 1.56107e-19)
(0.000841955 4.09048e-05 -1.08787e-18)
(0.0015321 0.000234837 -1.13653e-18)
(5.16457e-06 5.23235e-05 4.96293e-19)
(0.000813291 3.67977e-05 -5.03374e-19)
(0.000924319 0.000554003 -7.8489e-20)
(0.000149736 0.000779317 0)
(0.000600831 6.23458e-05 0)
(0.000278261 4.04957e-05 -1.60909e-18)
(5.88701e-05 5.22272e-05 -1.37372e-18)
(2.70502e-05 1.75341e-05 0)
(0.00424771 0.00740084 -1.01972e-20)
(0.00422582 0.00737247 3.16643e-20)
(0.00442799 0.00757521 -4.98369e-21)
(0.00420561 0.0077335 0)
(0.00419808 0.00759931 5.77275e-19)
(0.00424468 0.00740194 -9.20357e-20)
(0.00420937 0.00804091 4.84512e-19)
(0.00429042 0.00742331 0)
(0.00420777 0.00853373 6.1683e-19)
(0.00432698 0.00745196 2.23954e-19)
(0.000835089 2.17275e-05 -1.37233e-18)
(0.000783641 6.13457e-05 0)
(0.000210471 3.84116e-05 1.27668e-19)
(4.47241e-05 1.2364e-05 8.716e-20)
(7.24821e-05 3.79218e-05 6.79832e-19)
(9.89976e-05 3.2512e-05 -3.41575e-19)
(9.08343e-05 -2.08081e-06 0)
(4.17861e-05 2.82126e-06 8.18138e-20)
(0.000207874 0.000120634 0)
(0.000160049 2.79999e-05 -5.24182e-20)
(0.000348162 0.000214491 -5.09133e-21)
(5.12049e-05 3.74137e-05 -4.37533e-19)
(8.3695e-05 1.97555e-05 -8.52236e-20)
(8.53458e-05 5.39335e-05 1.31159e-21)
(0.000261738 0.000359545 -6.66022e-19)
(0.000110225 0.000990998 0)
(3.84958e-05 4.70714e-05 3.42967e-19)
(0.000199656 0.00174082 0)
(0.000208929 0.00024562 7.04493e-19)
(3.07206e-05 -2.9824e-06 1.11463e-19)
(0.000494166 0.000159318 -1.72257e-19)
(0.000776079 2.75745e-05 -1.9236e-18)
(3.64194e-05 -1.7462e-06 4.7765e-24)
(0.000140108 1.30315e-05 2.24531e-19)
(0.000246579 7.94161e-05 -8.99092e-20)
(0.000883078 0.000695558 3.34864e-19)
(0.000727501 0.00163463 -9.23325e-21)
(0.000396895 0.00141865 -9.38191e-21)
(0.00103076 0.00054765 0)
(9.02236e-05 -2.10542e-05 1.1184e-18)
(0.000106796 5.08035e-06 -4.42869e-20)
(0.000472973 -0.000270782 -1.13606e-18)
(0.00082484 4.35042e-05 0)
(0.000175204 -1.65316e-05 3.63214e-19)
(0.000305654 0.00129726 0)
(0.00108915 0.000774049 -7.30024e-20)
(0.000827069 2.78554e-05 -1.86496e-19)
(6.55706e-05 -2.39864e-05 -2.99894e-19)
(0.000841612 0.000314674 -2.07988e-20)
(4.46424e-05 -2.11428e-05 -5.99317e-19)
(0.000227856 0.00016541 8.63671e-20)
(0.000232036 0.000303748 -3.44929e-19)
(0.000898127 0.000253133 0)
(0.000826528 5.75674e-05 0)
(0.000267182 0.000122144 1.76803e-19)
(0.000232171 -1.76487e-05 6.98682e-24)
(0.000185098 0.000197474 0)
(0.000306854 0.000645324 -5.55578e-21)
(0.000362147 -3.05685e-05 0)
(0.000382564 0.00059817 0)
(0.000103921 7.31097e-05 -1.34634e-21)
(0.000810673 3.11966e-05 -9.57165e-19)
(0.000805326 1.71958e-05 7.97028e-19)
(0.000123304 4.69057e-05 -1.49816e-19)
(0.000973071 0.000145954 8.50144e-20)
(0.00084122 3.82359e-05 3.33563e-19)
(0.000822458 3.49144e-05 -2.93995e-19)
(0.00103316 0.000421045 0)
(0.000448701 0.000108592 6.24258e-19)
(0.000913628 0.000323726 2.09078e-20)
(0.000592591 0.000150505 0)
(0.000275097 0.000443806 4.09551e-19)
(0.000263202 0.00020819 -8.43975e-20)
(0.00110443 0.000384615 -7.81891e-19)
(0.000640503 0.000102463 -1.79237e-19)
(0.000822122 7.65723e-05 -7.45811e-21)
(0.000845756 2.32466e-05 9.39997e-20)
(5.29044e-05 -8.54561e-05 -1.98074e-18)
(0.000746214 0.000379574 2.19179e-19)
(0.000685944 6.9208e-05 2.30579e-20)
(0.000716725 0.000279001 1.62297e-23)
(0.000740287 0.000461627 -4.09577e-19)
(0.000853606 1.63694e-05 9.06798e-20)
(6.78962e-05 7.16018e-05 0)
(0.000663586 0.000424834 -4.65801e-20)
(0.000181609 8.30771e-05 0)
(0.000374238 0.000501575 -2.6478e-19)
(0.000312493 0.000157209 0)
(0.000685636 0.000205763 3.55122e-19)
(0.000660084 0.000259483 -4.37129e-20)
(7.9173e-05 9.69374e-05 6.18988e-19)
(0.000886086 9.71836e-05 -1.63864e-18)
(5.18377e-05 1.76839e-05 2.57119e-19)
(0.000898784 7.39123e-05 -1.68603e-18)
(0.000849774 9.09532e-05 1.63036e-19)
(0.000814831 3.73594e-05 1.91212e-18)
(0.000822352 3.3194e-05 -1.32806e-19)
(0.000746617 7.04588e-05 0)
(0.00080524 1.95723e-05 8.95359e-19)
(0.00097341 0.000237727 -4.26967e-19)
(0.000789121 0.000100767 -4.83591e-19)
(0.000783559 0.000237677 -8.80956e-20)
(0.000195246 -0.000195353 -2.07507e-18)
(0.000763992 8.15991e-05 8.87267e-19)
(0.000644248 0.000591595 0)
(5.83396e-05 -0.000122561 0)
(0.00123007 0.000476172 4.97156e-19)
(0.000551806 -5.61897e-05 -3.27076e-18)
(0.00135541 0.000417516 5.76287e-19)
(0.00125455 0.000719688 -6.38839e-20)
(0.00081721 3.43174e-05 -2.1269e-19)
(0.000843977 6.67168e-05 -1.42775e-18)
(0.000814493 2.77423e-05 1.58711e-18)
(0.00081505 2.06756e-05 9.7775e-20)
(0.00067566 0.000353449 -4.40284e-20)
(9.8781e-05 0.000113257 8.44905e-24)
(0.000765955 -2.91421e-05 2.64913e-19)
(0.00020773 -0.000259959 -7.31054e-19)
(0.000640313 0.000182488 0)
(0.000726066 5.11864e-05 9.90077e-20)
(0.000719963 9.65941e-06 -3.8069e-19)
(0.000396991 0.000162905 3.9326e-20)
(0.000813078 0.000510407 -1.65434e-19)
(0.000144652 6.42996e-05 3.95769e-25)
(0.000820552 0.000413043 0)
(0.000989961 0.000315657 4.15643e-20)
(0.000769674 -6.13583e-05 -6.1593e-19)
(0.000355718 9.32756e-05 4.97694e-19)
(0.000905431 0.000427954 0)
(4.43993e-05 2.68855e-05 1.33673e-19)
(0.000495099 0.000261421 2.13893e-19)
(0.000547313 -0.000171509 -7.09213e-19)
(9.34393e-05 -0.0001755 -1.0557e-18)
(0.000827019 4.07167e-05 -4.86556e-19)
(0.000760681 -6.33579e-05 -1.94517e-19)
(0.000550694 0.000728863 -1.17412e-18)
(0.000855712 4.61982e-05 -6.74414e-20)
(0.000566016 -1.04018e-05 1.28209e-18)
(0.000719059 9.95103e-05 2.27708e-20)
(0.000544537 0.000203617 -1.6564e-19)
(2.37418e-05 -1.86613e-05 -8.75598e-20)
(0.000149671 -6.08139e-05 2.40531e-18)
(1.23421e-05 5.38628e-07 -1.948e-19)
(0.000843316 0.00011942 3.63633e-19)
(0.000682121 0.00013483 0)
(0.000169847 -0.000111654 -1.0479e-18)
(0.000110893 -2.7856e-05 3.12711e-19)
(9.18463e-05 -4.13078e-05 1.44858e-23)
(0.000810989 0.000105453 -3.19165e-19)
(0.000144525 -2.37554e-05 0)
(0.000596956 0.00023814 0)
(0.000111386 0.000322004 -3.62764e-19)
(0.000869339 0.000101717 2.10778e-18)
(1.0034e-05 7.14645e-07 0)
(0.00088898 5.2183e-05 0)
(3.50233e-05 -2.46632e-05 0)
(0.000815211 4.89449e-05 -4.46659e-21)
(0.000782639 -2.91464e-05 0)
(0.00426084 0.00740755 8.07172e-20)
(0.00436291 0.00748801 1.43659e-19)
(0.000842745 -1.7562e-05 0)
(0.000798573 -3.42138e-05 8.11833e-19)
(0.000151468 0.000115024 1.4917e-19)
(0.000863052 6.67194e-05 8.08023e-19)
(0.000126522 9.23815e-05 2.34331e-20)
(0.000792343 -2.0412e-05 6.24034e-19)
(3.04884e-05 7.82258e-06 0)
(2.21935e-05 -1.12866e-05 -4.48349e-20)
(0.000907451 4.73403e-05 -4.86393e-19)
(2.456e-05 -2.80291e-05 -6.6961e-19)
(0.000769839 0.000126782 -4.23104e-20)
(0.00016923 0.000152748 -1.88051e-19)
(0.000813848 3.1917e-05 0)
(0.00468253 0.00815361 9.00948e-22)
(0.000193767 0.000791749 3.33382e-19)
(9.75179e-05 -6.77533e-05 -9.14264e-19)
(4.96176e-05 -3.45774e-05 -1.16845e-18)
(0.000591385 1.30564e-05 1.89674e-20)
(0.000585499 0.00040382 0)
(0.000425407 0.000445629 -2.56268e-19)
(6.53936e-05 -6.41854e-05 1.1834e-18)
(0.000552733 -1.35893e-06 7.6794e-20)
(3.66281e-05 9.74588e-07 4.06975e-19)
(0.000724539 -4.20414e-05 1.17122e-18)
(0.000812891 3.24836e-05 -6.038e-19)
(4.85336e-05 -5.3787e-05 1.70897e-18)
(0.000841185 -4.20665e-05 -6.23403e-24)
(0.000567436 6.18587e-06 -3.75193e-20)
(0.000877536 7.21517e-05 0)
(0.000846351 5.12746e-05 0)
(0.00591573 0.0072435 2.59916e-19)
(1.26028e-05 -2.98357e-06 -1.19561e-19)
(9.4578e-05 -0.000115983 7.72826e-19)
(0.000738352 0.00011434 -6.96213e-19)
(1.51992e-05 2.59877e-07 2.01489e-19)
(0.000652381 -3.60549e-05 -7.23566e-19)
(0.000755745 3.54111e-05 1.55753e-18)
(0.000715707 0.000157413 -3.5533e-19)
(0.000807345 -1.16302e-05 3.60788e-19)
(6.274e-05 -3.68889e-05 1.11566e-18)
(0.000801614 6.48328e-06 -3.22585e-19)
(0.000874644 3.61665e-05 0)
(0.000550929 0.000301585 4.209e-20)
(0.00086761 4.95742e-05 -9.47393e-19)
(1.33664e-05 2.89939e-06 9.11277e-19)
(0.000861505 4.13685e-05 9.65917e-19)
(0.00086334 2.4923e-05 -9.64367e-19)
(0.000765762 6.77043e-07 -5.6898e-19)
(0.000548542 -8.3496e-05 -5.25473e-19)
(0.00432991 0.00745417 2.47599e-19)
(0.00422223 0.00752834 -2.78898e-19)
(0.00422051 0.0075859 2.66831e-19)
(0.00425645 0.00741135 1.98013e-19)
(0.000845138 -3.75422e-05 1.44225e-19)
(0.00447698 0.00751485 0)
(0.00440433 0.00751867 -3.86985e-19)
(2.15757e-05 -1.41582e-07 -9.9795e-19)
(0.00417015 0.00746857 -6.33774e-20)
(0.00414564 0.00743185 -2.21552e-19)
(0.00602919 0.0106049 0)
(0.00654026 0.0111869 3.71551e-20)
(0.00600912 0.0105747 0)
(0.00655596 0.0112105 1.30953e-19)
(0.00599651 0.0105987 2.69689e-19)
(0.00659266 0.0112274 1.24699e-20)
(0.00593538 0.0106114 -7.76809e-19)
(0.00662293 0.0111464 8.16128e-21)
(0.00390342 0.00919747 -1.90811e-19)
(0.00418635 0.00748776 3.87504e-21)
(0.00423719 0.0075512 7.93748e-20)
(0.00415014 0.00743415 4.12112e-20)
(0.000894794 0.000196321 4.46597e-20)
(6.92663e-06 9.63863e-07 0)
(0.000726037 -0.00010259 0)
(0.000657403 5.71169e-05 0)
(0.00244546 0.0011181 4.23205e-21)
(0.000758613 -3.04951e-05 1.72522e-19)
(3.53483e-05 4.3365e-06 4.53928e-20)
(5.64373e-06 -2.17081e-05 1.6525e-18)
(0.000861881 5.20494e-06 0)
(2.43617e-05 1.06045e-05 -1.91673e-19)
(0.000139113 0.000216106 0)
(1.13792e-05 -8.13299e-07 0)
(8.85031e-06 -9.17082e-07 0)
(0.000836875 0.000148539 1.13737e-20)
(0.000811064 -1.81492e-05 1.79536e-19)
(3.83754e-05 0.00025751 -1.10758e-23)
(0.000156356 0.000266971 -1.84148e-18)
(0.000611895 0.0003261 -8.56774e-20)
(0.000902671 0.000113485 6.02038e-19)
(0.000601731 -0.00015514 6.74511e-19)
(0.000358311 0.00111525 0)
(0.000481886 0.000575384 2.71467e-18)
(8.82686e-05 0.000138362 -1.80269e-18)
(1.49116e-05 -2.44931e-07 0)
(0.00082267 -6.37928e-05 3.64076e-20)
(1.38905e-05 3.1473e-05 1.64403e-18)
(0.000894484 3.57563e-05 2.71051e-19)
(-3.16854e-05 7.5303e-05 3.81179e-18)
(0.000926282 4.17736e-05 -2.6892e-19)
(0.00133482 0.000154603 7.47169e-19)
(2.89369e-05 -9.54284e-06 8.25475e-20)
(3.06745e-05 2.27792e-06 -8.5888e-19)
(5.07641e-05 0.000134702 0)
(0.000919719 8.90306e-05 5.98241e-19)
(0.000499056 0.000366691 2.37086e-19)
(0.000615615 1.72803e-05 -3.88935e-20)
(0.000787894 4.87189e-06 2.57304e-19)
(0.000729465 -0.000140882 0)
(0.00632032 0.0108957 -1.68162e-19)
(0.00637869 0.0109731 4.05918e-19)
(0.00616002 0.01073 -6.18507e-19)
(0.00650126 0.0111321 -8.10018e-20)
(3.17229e-05 0.000112288 8.00328e-19)
(0.000929844 6.16766e-05 1.44291e-22)
(0.00641131 0.0110056 -3.86539e-19)
(0.00628136 0.0108455 5.48397e-19)
(0.00608006 0.0106718 -4.16841e-19)
(0.00652178 0.0111646 -6.81599e-20)
(7.88149e-05 0.000490925 -2.01775e-20)
(4.82119e-05 -0.000191975 -7.92638e-19)
(0.000640018 -1.98127e-05 -7.6651e-19)
(0.000731308 0.00021948 0)
(0.000800305 1.80979e-07 0)
(0.000189449 0.00038575 3.36223e-19)
(0.000603222 0.000510844 -5.41738e-19)
(5.59713e-06 -9.84858e-07 1.78347e-19)
(0.000200076 0.000466692 -7.38234e-19)
(0.00102265 0.000979815 -1.12676e-19)
(0.000753992 0.000166389 0)
(0.000795664 0.000184934 1.30984e-19)
(0.0063496 0.00588337 1.13193e-18)
(0.000736091 0.0011312 8.26506e-20)
(3.53978e-05 3.4335e-05 -7.44487e-20)
(0.000807823 1.08546e-05 0)
(0.000870671 2.28327e-05 -3.56808e-20)
(2.924e-05 2.09821e-06 -1.96681e-19)
(2.5509e-05 3.43233e-06 1.92949e-19)
(0.000834771 1.268e-05 5.37054e-19)
(0.000985066 0.000113925 6.58134e-19)
(0.000536354 4.60081e-05 0)
(0.000221677 -0.000269802 -3.98148e-19)
(0.00092052 0.000143056 3.89475e-19)
(2.86177e-06 -4.68793e-05 2.02943e-19)
(0.00145415 0.000442488 -2.58053e-18)
(0.000561568 -1.31489e-05 0)
(0.000800478 0.000142122 3.75361e-19)
(9.61639e-05 0.000386964 0)
(0.00118873 0.00816145 4.62055e-19)
(0.000497323 0.000497414 -1.22427e-18)
(0.000540541 0.00101772 -1.83716e-19)
(0.000888309 1.39027e-05 -1.46015e-19)
(1.07821e-05 2.22188e-05 0)
(0.000961613 7.82366e-05 6.11442e-19)
(0.00410621 0.00739511 8.145e-20)
(0.00417098 0.00747309 4.73227e-20)
(0.00450078 0.00751752 4.54117e-19)
(0.00444591 0.0075433 -3.29133e-19)
(0.00647517 0.0111091 8.1079e-20)
(0.00391485 0.00714606 -9.51421e-22)
(0.0055078 0.00780034 -5.64794e-19)
(0.00409789 0.00737162 5.21937e-21)
(0.00518902 0.00786008 5.11728e-19)
(0.00407968 0.00734 -4.87419e-20)
(0.00495434 0.00771961 0)
(0.00408492 0.00736429 -8.56874e-20)
(0.00474317 0.00759046 4.92566e-19)
(0.00409816 0.00737587 8.75404e-20)
(0.00457589 0.0075301 0)
(0.00428439 0.00742178 1.39776e-19)
(0.00423869 0.00759744 5.80424e-19)
(0.00446841 0.00752881 -5.54435e-19)
(0.00438856 0.0075061 3.7139e-19)
(0.00422735 0.00752428 3.22911e-19)
(0.0064305 0.0110424 -4.97679e-21)
(0.00411765 0.00740121 3.1168e-20)
(0.00645864 0.0110723 0)
(2.05625e-05 4.51051e-06 -1.89811e-19)
(0.00200144 0.00654671 2.28182e-19)
(0.000838184 -5.9784e-05 1.09669e-19)
(0.000852626 2.06932e-06 0)
(7.76022e-07 5.21769e-07 -3.99006e-19)
(-3.21259e-05 -8.38262e-05 6.90967e-19)
(2.3224e-05 5.22387e-05 2.08849e-18)
(0.000837883 0.000186512 -9.00431e-20)
(0.000801555 8.31101e-06 7.06188e-19)
(2.30756e-07 -8.31333e-09 3.09906e-19)
(1.35983e-05 -2.84169e-05 -1.84513e-18)
(0.000763658 2.66652e-05 1.63107e-19)
(0.000872773 0.000125359 -3.07896e-20)
(0.000801026 -7.17795e-06 1.4809e-19)
(0.000432757 0.000679079 0)
(8.46106e-06 -0.000133989 1.15109e-18)
(0.000874219 4.73031e-07 1.52485e-19)
(1.80407e-05 2.1185e-05 0)
(0.000119655 0.000553936 -6.31135e-19)
(0.000613848 0.000585 1.31765e-18)
(0.000332624 0.000757456 0)
(0.000802124 -1.45987e-05 0)
(0.00080179 3.07135e-06 1.17675e-18)
(1.51231e-05 4.48446e-05 -3.51409e-18)
(1.41029e-05 5.68416e-06 3.73526e-19)
(0.000116519 0.000137445 0)
(3.50554e-05 -3.85421e-05 0)
(5.89899e-05 0.00010665 2.00949e-19)
(0.000942793 0.000190505 3.50331e-19)
(0.000800998 1.47379e-05 -1.39543e-18)
(2.07793e-05 2.97579e-05 0)
(0.00041516 3.30196e-06 -6.04507e-20)
(0.000799875 3.57287e-05 -1.56307e-19)
(0.000849885 4.68515e-05 1.06504e-18)
(0.000253692 0.000542275 6.32097e-19)
(0.000884134 0.000157772 0)
(1.35419e-05 -1.9697e-05 5.38468e-19)
(1.44401e-06 -2.48527e-06 -3.19883e-19)
(0.000946144 3.452e-05 0)
(0.00104744 0.00227024 0)
(0.00090677 2.22153e-06 0)
(0.00100732 0.000208821 4.27051e-19)
(0.000818666 -3.7185e-05 -2.84199e-19)
(0.000942089 0.000112536 -6.84573e-19)
(0.000801182 3.62112e-06 0)
(4.02514e-05 6.35127e-05 -1.71523e-19)
(0.000174734 0.000322896 1.0809e-18)
(0.000800855 1.35012e-05 -2.43482e-23)
(0.00110588 0.000209359 -6.68567e-19)
(0.00108845 0.000129084 0)
(1.89299e-06 3.98021e-06 2.50964e-19)
(1.44327e-05 -1.25551e-05 -1.94264e-19)
(0.000553681 4.70379e-05 6.9483e-21)
(-6.21188e-06 -6.13554e-05 0)
(0.00107529 0.00025693 9.49697e-19)
(0.00502872 0.0097482 -2.82917e-19)
(0.00312151 0.00961677 1.27247e-18)
(1.79907e-05 -9.32197e-05 -1.91272e-19)
(3.79332e-05 -7.07335e-05 1.85895e-18)
(0.00119096 0.000257562 1.673e-19)
(0.0013313 0.001076 2.34039e-19)
(0.00081059 2.96319e-06 -7.3631e-19)
(0.000198769 0.000949262 -2.38198e-19)
(0.000819363 0.000946148 -2.18539e-19)
(0.000800338 -2.06142e-06 0)
(8.17863e-05 0.000610942 0)
(9.44364e-05 0.000277167 -3.61762e-23)
(0.000719715 -4.74859e-05 -1.67343e-23)
(0.000826882 6.9497e-05 1.52561e-19)
(0.00263204 0.00206666 -1.23121e-18)
(0.00176058 0.00923797 -1.17197e-19)
(0.000834386 7.00283e-05 4.92183e-19)
(0.00631961 0.00405291 -1.76178e-19)
(0.00672088 0.0115572 -1.36591e-20)
(0.00473409 0.00784382 4.93469e-21)
(0.000805471 1.35881e-05 -2.16574e-18)
(0.000842954 8.97546e-07 7.58262e-24)
(5.53035e-06 -5.48648e-06 -3.47929e-19)
(4.51667e-05 8.36699e-05 -3.49193e-19)
(6.21675e-05 0.00026116 8.75073e-19)
(8.93574e-06 1.38079e-05 4.90283e-19)
(8.9742e-05 0.000223312 3.69682e-19)
(0.000819776 1.54524e-05 0)
(0.00534818 0.00949238 1.94947e-20)
(0.00154655 0.000638474 -2.61166e-20)
(0.000819314 4.0081e-05 3.60077e-19)
(1.68948e-05 -7.2988e-05 0)
(0.00184832 0.000749927 5.45909e-19)
(7.40032e-06 5.93941e-06 -2.70087e-19)
(3.08664e-05 2.52784e-05 9.71578e-20)
(0.00133534 0.00139837 6.36553e-19)
(0.000739205 4.97491e-05 1.83054e-19)
(2.04965e-06 -8.15435e-07 -1.70159e-19)
(0.00206449 0.00156308 -1.05567e-18)
(0.000126726 0.000171994 -8.1858e-19)
(0.00392029 0.0084882 -1.09078e-18)
(3.37183e-06 1.00704e-06 8.81208e-20)
(9.83424e-05 -4.76381e-05 -1.25813e-18)
(3.61252e-05 -5.39328e-05 4.05539e-20)
(0.00153107 0.0009882 0)
(0.00104308 0.00014074 -4.00936e-22)
(0.000454371 0.000846469 -4.01977e-20)
(0.00080338 2.76443e-05 -2.34014e-19)
(8.69269e-05 0.00017834 7.35902e-19)
(2.02924e-05 -5.39e-05 4.03896e-19)
(1.63481e-05 1.31888e-05 -9.46867e-20)
(2.87015e-05 8.55145e-05 -3.20212e-19)
(0.000214894 -0.000175886 -5.45528e-19)
(0.0032507 0.00346691 2.90509e-21)
)
;

boundaryField
{
    back
    {
        type            empty;
    }
    ingreso
    {
        type            fixedValue;
        value           uniform (0.0008 0 0);
    }
    salida
    {
        type            zeroGradient;
    }
    front
    {
        type            empty;
    }
    defaultFaces
    {
        type            noSlip;
    }
}


// ************************************************************************* //
