/*--------------------------------*- C++ -*----------------------------------*\
  =========                 |
  \\      /  F ield         | OpenFOAM: The Open Source CFD Toolbox
   \\    /   O peration     | Website:  https://openfoam.org
    \\  /    A nd           | Version:  7
     \\/     M anipulation  |
\*---------------------------------------------------------------------------*/
FoamFile
{
    version     2.0;
    format      ascii;
    class       volScalarField;
    location    "21";
    object      p;
}
// * * * * * * * * * * * * * * * * * * * * * * * * * * * * * * * * * * * * * //

dimensions      [0 2 -2 0 0 0 0];

internalField   nonuniform List<scalar> 
591
(
0.000123935
0.00012395
0.00012397
0.000123933
0.000123934
0.000124039
0.000123989
0.000123969
0.000116859
0.000123964
0.000124114
0.000122821
0.000124017
0.000119713
0.000123971
0.000123998
0.000123874
0.000124001
0.000121942
0.000123347
0.000123933
-2.88589e-06
0.000124113
0.000123935
0.00012407
0.000123947
0.000124005
0.000124036
0.000123958
0.000124004
0.00012409
0.000124067
0.000124086
0.000124084
0.000124088
0.000123442
0.000124083
0.000123951
0.000124107
0.00012402
0.000124009
0.00012408
0.00012396
0.000123987
0.000124077
0.000124094
0.000119243
0.000124097
0.000123975
0.000124075
0.00012403
0.000124072
2.37734e-05
3.03619e-05
4.77509e-05
0.000123993
0.000124101
0.000124082
0.000124095
0.000123934
0.000124009
0.000123956
0.000123964
0.000124052
0.000122558
0.000123958
0.000123964
0.000124093
0.000120686
0.000123991
0.000123961
0.000124099
0.000124056
0.00012408
0.000124085
0.00012406
0.000123926
0.000124096
0.000123932
0.000123847
0.000123718
0.000124101
0.000124063
0.00012403
0.000124109
0.000123941
0.00012403
0.000124091
0.000124054
0.000123819
0.000124068
0.000123998
0.000124027
0.000123944
0.000124107
0.000124067
0.000123648
0.000123542
0.000123655
0.000124111
0.000124022
0.000123943
0.000124114
0.000123938
0.000124113
0.000123966
0.000123952
0.000124063
0.000124105
0.00012411
0.000123993
0.000124081
0.000123981
0.000124089
0.00012411
0.000124088
0.00012403
0.000124041
0.000123581
0.000123995
0.000123962
0.000124032
0.000123991
0.000123947
0.000124085
0.000120186
0.000124113
0.000124084
0.000123719
0.000124086
0.00012395
0.000123642
0.000124048
0.000124046
0.000124089
0.000123978
0.000122613
0.000124114
0.000123961
0.000123589
0.000123649
0.00012402
0.000124091
0.000124107
0.000124102
7.56079e-06
3.96059e-06
2.45611e-06
3.80435e-05
3.65602e-05
5.78559e-06
3.8198e-05
1.55014e-05
3.7165e-05
1.76023e-05
0.000123959
0.00012394
0.000124099
0.000124097
0.000124103
0.000124101
0.000124095
0.000124093
0.000124096
0.000124096
0.000124055
0.000124105
0.000124099
0.000124105
0.00012403
0.000123387
0.000124107
0.000122092
0.000124076
0.000124088
0.000124029
0.000123961
0.000124088
0.000124098
0.000124093
0.000123497
0.000122444
0.000123034
0.00012346
0.000124092
0.000124096
0.000124058
0.000123936
0.000124089
0.000122938
0.00012331
0.000123938
0.000124089
0.000123791
0.000124081
0.000124087
0.000124056
0.000123761
0.000123921
0.000124086
0.000124099
0.000124089
0.000123879
0.000124071
0.000123878
0.000124105
0.000123964
0.000123958
0.000124101
0.000123735
0.000123926
0.00012398
0.000123567
0.000124053
0.000123715
0.000123999
0.000123993
0.000124075
0.00012349
0.000123995
0.000123908
0.000123927
0.000124061
0.000123823
0.000123989
0.000123895
0.000123796
0.000123919
0.000124108
0.000123861
0.000124101
0.000123932
0.000124075
0.000123939
0.000123934
0.000124107
0.000123845
0.000124099
0.000123843
0.000123891
0.000123977
0.000123946
0.000123961
0.000123962
0.000123708
0.000123923
0.000123865
0.000124067
0.000123947
0.000123764
0.000124055
0.00012332
0.000123887
0.000123249
0.000123079
0.000123951
0.000123912
0.000123944
0.00012394
0.000123879
0.000124105
0.000123979
0.000124049
0.00012397
0.000123984
0.000123995
0.000124055
0.000123712
0.000124101
0.000123754
0.000123648
0.000123972
0.000124078
0.000123661
0.000124102
0.000124
0.000124048
0.00012406
0.000123982
0.000123926
0.000123713
0.000123914
0.000123925
0.000123966
0.000124001
0.000124075
0.000124086
0.000124096
0.000123881
0.000123969
0.000124079
0.000124089
0.000124085
0.000123903
0.000124099
0.000123969
0.000124068
0.000123867
0.000124098
0.000123864
0.000124076
0.000124007
0.000123929
1.13692e-05
2.17709e-05
0.000123914
0.000123957
0.000124104
0.000123895
0.000124104
0.000123968
0.000124098
0.000124078
0.000123859
0.000124072
0.000123919
0.000124098
0.000123973
-1.58257e-07
0.00012377
0.000124079
0.000124076
0.000123819
0.000123916
0.000123942
0.000124071
0.000123884
0.000124092
0.000123994
0.000123967
0.000124069
0.000123935
0.000123853
0.000123876
0.000123986
4.72891e-05
0.000124087
0.000124069
0.000123945
0.000124093
0.000124017
0.000123972
0.000123942
0.000123956
0.00012408
0.000124027
0.00012389
0.000123965
0.000123895
0.000124094
0.000123901
0.000123933
0.000123977
0.000124057
1.96878e-05
2.70762e-05
3.41027e-05
9.44292e-06
0.000123937
3.2833e-05
2.58125e-05
0.00012409
1.87976e-05
1.67143e-05
3.80487e-05
7.50573e-06
3.98508e-05
5.67945e-06
4.07489e-05
3.89955e-06
4.27168e-05
2.16889e-06
3.62465e-05
2.29999e-05
2.92212e-05
1.46577e-05
0.000123798
0.0001241
0.000123996
0.000124014
0.000120899
0.000124103
0.000124095
0.000124066
0.000123916
0.000124101
0.000124092
0.000124084
0.000124081
0.000123861
0.000123952
0.000124076
0.00012408
0.000123924
0.000123822
0.000123795
0.000123397
0.000123865
0.000124111
0.000124087
0.000123966
0.00012411
0.000123817
0.000123953
0.000123771
0.00012288
0.000124081
0.000124092
0.000124107
0.000123812
0.000123958
0.000123776
0.00012397
0.000123939
2.57944e-05
2.17389e-05
3.28532e-05
1.13644e-05
0.000124117
0.000123824
1.96425e-05
2.79777e-05
3.54389e-05
9.4246e-06
0.000123923
0.000124037
0.000123918
0.000123906
0.000124019
0.000124037
0.000123827
0.000124078
0.000124
0.000123096
0.000123913
0.000123881
5.91422e-05
0.000123226
0.000124105
0.000123954
0.000123854
0.000124094
0.000124097
0.000123942
0.000123724
0.000123972
0.000124024
0.000123799
0.00012405
0.000122923
0.000123913
0.000123895
0.000124044
0.000100748
0.000123888
0.000123491
0.000123886
0.000124107
0.000123781
1.06898e-05
2.09002e-05
3.52516e-05
2.78923e-05
1.33453e-05
4.34894e-07
4.19273e-05
3.00318e-06
4.00168e-05
4.85723e-06
3.92837e-05
6.76959e-06
3.85169e-05
8.74511e-06
3.72061e-05
1.33787e-05
3.15136e-05
3.02528e-05
2.3801e-05
2.50402e-05
1.75083e-05
1.26362e-05
1.53768e-05
0.000124099
0.000102364
0.000123939
0.000123885
0.000124104
0.000124
0.000124109
0.000123841
0.000124038
0.000124074
0.000124068
0.00012415
0.000123844
0.000124007
0.000123806
0.000124039
0.000123913
0.000124104
0.00012395
0.000123784
0.000123785
0.000124019
0.00012404
0.000124112
0.000124101
0.000124105
0.000124072
0.000124109
0.000123758
0.000123964
0.000124105
0.000123908
0.000124079
0.000123961
0.000123951
0.000123825
0.000124072
0.000124071
0.000123407
0.000121354
0.000123142
0.000123673
0.000123961
0.000123784
0.000124026
0.000124108
0.000124061
0.000123988
0.000123564
0.000123557
0.000124105
0.000124075
0.000123994
0.000124037
0.000123596
5.82107e-05
3.99787e-05
0.000124045
0.000124062
0.000123448
0.000122745
0.000123952
0.000123624
0.000123374
0.000124007
0.000123813
0.000124083
0.000123981
0.000124025
0.000118983
5.43627e-05
0.000123995
8.10688e-05
1.83027e-06
-1.15297e-07
0.000123961
0.000123937
0.000124074
0.000124109
0.000124095
0.000124105
0.000124096
0.000123947
-2.09312e-06
0.000122841
0.000123978
0.000124052
0.000122009
0.000124104
0.000124103
0.000122259
0.00012406
0.000124076
0.000121681
0.000124101
7.62556e-05
0.000124102
0.00012355
0.000124066
0.000122371
0.000123657
0.000123671
0.000123997
0.000124103
0.00012406
0.000124102
0.000124115
0.000123963
0.000116145
)
;

boundaryField
{
    back
    {
        type            empty;
    }
    ingreso
    {
        type            zeroGradient;
    }
    salida
    {
        type            fixedValue;
        value           uniform 0;
    }
    front
    {
        type            empty;
    }
    defaultFaces
    {
        type            zeroGradient;
    }
}


// ************************************************************************* //
