/*--------------------------------*- C++ -*----------------------------------*\
  =========                 |
  \\      /  F ield         | OpenFOAM: The Open Source CFD Toolbox
   \\    /   O peration     | Website:  https://openfoam.org
    \\  /    A nd           | Version:  7
     \\/     M anipulation  |
\*---------------------------------------------------------------------------*/
FoamFile
{
    version     2.0;
    format      ascii;
    class       surfaceScalarField;
    location    "21";
    object      phi;
}
// * * * * * * * * * * * * * * * * * * * * * * * * * * * * * * * * * * * * * //

dimensions      [0 3 -1 0 0 0 0];

internalField   nonuniform List<scalar> 
1111
(
6.02246e-09
1.34132e-08
-1.53275e-08
-4.10815e-09
6.16998e-09
-1.14816e-08
1.13341e-08
-1.44689e-08
4.41025e-09
9.81261e-09
2.45996e-10
1.79908e-10
-2.03992e-10
-1.39612e-08
1.39852e-08
-1.38851e-08
1.36981e-08
3.66881e-10
-1.32673e-09
1.4842e-08
1.91331e-09
-4.00393e-09
9.48261e-09
-1.1305e-08
5.82629e-09
-6.50346e-09
-1.24796e-08
1.24402e-08
6.54289e-09
-5.11853e-08
-2.54463e-08
7.66316e-08
-8.066e-09
7.44093e-09
6.79505e-09
3.75117e-09
3.68761e-10
-3.82512e-09
-2.94811e-10
1.5734e-08
-1.58206e-08
-2.25117e-08
2.25983e-08
-9.6472e-09
-8.32239e-09
8.97991e-09
8.98968e-09
-3.46816e-08
1.71473e-08
-3.18322e-08
4.93666e-08
9.59465e-09
-1.85952e-09
-1.42386e-08
-3.56049e-09
3.59653e-09
-3.48277e-09
3.44673e-09
-3.70998e-09
1.30422e-08
1.9984e-09
-1.13306e-08
8.88764e-09
-2.07884e-09
-1.50238e-08
8.21503e-09
3.87409e-08
-3.1805e-08
-6.93591e-09
-1.9103e-08
-2.35919e-10
1.76951e-08
1.64377e-09
-3.24661e-10
3.78008e-09
-1.80291e-08
1.45736e-08
-6.16455e-08
-3.82949e-09
6.5475e-08
2.10677e-10
-1.39998e-09
-4.14342e-10
1.60364e-09
-9.89285e-10
-1.32205e-08
-2.61426e-10
-3.68285e-10
3.58224e-10
2.71487e-10
-9.94089e-09
-8.05021e-09
1.22573e-08
5.73385e-09
8.72338e-10
-2.22243e-09
-8.51574e-09
9.86584e-09
7.66187e-09
1.10114e-09
-8.40818e-09
-3.54831e-10
-2.70796e-09
-7.76055e-09
1.06168e-08
-1.48331e-10
1.1209e-08
-2.02655e-10
-2.1187e-09
-1.12082e-09
1.085e-09
1.42568e-10
-1.06747e-10
-4.37398e-10
9.89848e-10
6.12555e-10
-1.16501e-09
-7.07328e-10
-4.76327e-11
7.51754e-10
3.20692e-12
4.21529e-11
-1.16102e-09
8.41723e-11
1.03469e-09
-2.12899e-11
-1.05738e-09
5.74418e-10
-1.80384e-08
-1.63905e-09
-6.15856e-10
7.37607e-11
-1.65233e-10
1.32621e-08
-1.32949e-08
3.81291e-09
-4.93417e-10
7.04881e-10
4.80622e-10
-6.92085e-10
-8.75427e-10
-2.68105e-09
2.05107e-09
1.50541e-09
-1.956e-09
8.43645e-09
-1.04844e-08
-4.75486e-10
-2.36809e-10
9.64389e-11
-8.79915e-09
9.99305e-09
-9.2599e-09
1.1629e-08
-1.66351e-08
5.15971e-09
-1.53651e-10
1.21138e-10
-2.54205e-10
-3.42419e-10
3.24229e-10
9.86752e-10
-2.25981e-10
-5.99123e-08
7.4427e-08
-1.45147e-08
1.22897e-09
-4.35791e-10
-1.43394e-09
6.4076e-10
8.82491e-10
1.02905e-08
-1.36098e-08
2.43683e-09
-2.43983e-10
6.51418e-09
-7.84033e-09
1.57013e-09
-6.33225e-09
5.8418e-09
5.39515e-09
-4.9047e-09
-6.79838e-09
-2.47635e-09
2.30541e-09
6.96931e-09
-3.22896e-10
-9.09122e-08
9.13594e-08
-1.24278e-10
-2.82705e-10
-8.97519e-08
9.01418e-08
-1.07206e-10
8.30686e-08
-1.50505e-09
1.16191e-10
-8.16798e-08
-3.33364e-09
7.37809e-11
9.03383e-10
9.80766e-10
-6.55177e-10
4.13474e-09
-1.93763e-09
3.25059e-09
-5.4477e-09
-1.20686e-09
1.0953e-09
-1.50024e-08
6.56804e-09
8.98648e-09
1.05152e-09
-9.68772e-09
-3.50272e-10
-6.1902e-09
1.2564e-08
1.55148e-09
-7.92524e-09
1.4118e-08
-3.81324e-09
3.14181e-09
-1.34466e-08
1.53587e-08
1.64685e-09
-1.57674e-09
-3.3663e-11
-2.00523e-08
-7.73509e-09
2.7821e-08
1.34432e-08
-8.12431e-09
-2.31094e-09
7.4979e-09
-1.13772e-08
-1.76754e-10
3.52835e-10
-1.61002e-09
-3.74462e-08
-2.24662e-08
7.83913e-09
-1.60366e-10
3.95027e-09
-6.71967e-09
1.05483e-08
6.16446e-09
-7.57403e-10
4.42712e-10
6.14041e-10
-2.9935e-10
5.9872e-09
-4.54692e-09
3.5044e-09
-4.94467e-09
-7.39477e-10
-7.63505e-10
3.41962e-10
9.00141e-10
-8.63602e-10
-2.65986e-10
-1.29402e-09
1.12261e-09
-1.71774e-08
2.40834e-09
1.43234e-09
1.33368e-08
3.42507e-10
-8.90696e-10
-2.09213e-10
-3.54715e-09
-1.46294e-08
9.99095e-10
5.65784e-09
1.15591e-08
-5.24639e-09
-1.19706e-08
1.63307e-08
5.62826e-10
-1.58079e-08
-1.08558e-09
-8.4503e-10
6.07575e-10
6.80167e-10
-1.13756e-09
6.24409e-10
5.13147e-10
-6.94998e-09
-3.89008e-09
4.50781e-09
-4.83195e-10
6.85555e-10
-2.0236e-10
1.32669e-09
-1.48147e-08
-6.22413e-10
8.49761e-09
-9.8312e-09
-1.24105e-09
-1.40354e-09
1.24022e-08
4.40429e-09
-4.18107e-09
-1.26255e-08
3.62983e-10
6.88271e-09
-7.55528e-09
6.51438e-09
-2.06347e-09
-8.25243e-09
7.62162e-09
2.69429e-09
-1.79665e-09
6.00712e-10
-1.34335e-08
-3.02987e-10
-1.80209e-10
-6.56778e-10
1.39417e-09
-7.53577e-09
8.22695e-10
1.71134e-08
-1.60545e-09
-1.5292e-08
1.64421e-08
-1.15012e-09
1.17415e-08
1.39314e-08
-1.5535e-08
-1.01379e-08
-9.68912e-10
1.59647e-09
-6.27559e-10
1.7783e-09
-2.33159e-09
5.53294e-10
3.20702e-09
-4.78582e-09
1.5788e-09
2.1448e-09
-1.80715e-09
-3.37647e-10
-1.24756e-08
1.77852e-10
1.22977e-08
2.91792e-09
-7.73127e-10
8.80395e-09
-1.49281e-08
6.3382e-09
-7.23896e-09
1.35767e-10
4.08335e-09
-4.67953e-10
-3.28669e-09
3.42245e-09
-8.06752e-09
9.46513e-09
-1.39761e-09
-1.00654e-09
4.04084e-09
1.10043e-09
1.68945e-08
-1.45124e-08
-1.49955e-09
-5.21686e-09
5.05488e-09
-1.77564e-09
-2.83357e-10
7.19518e-09
-7.1462e-09
-4.89837e-11
7.08306e-09
4.29929e-09
3.74756e-10
-1.54958e-08
1.01975e-08
1.70398e-08
5.66902e-09
8.29675e-09
8.17755e-09
-6.69804e-09
5.51917e-10
-1.30275e-08
1.58584e-09
-2.88523e-10
-1.24444e-08
3.85728e-09
-4.3483e-10
1.44693e-08
-1.39065e-08
-6.01065e-11
-1.20223e-09
-1.34696e-08
6.99257e-09
9.94825e-10
-6.68775e-11
-8.9564e-09
5.41837e-09
-3.18387e-08
-1.25356e-08
-2.2123e-09
1.27835e-09
1.35515e-08
1.10181e-08
-1.07025e-08
-1.3867e-08
1.69261e-08
-3.10773e-09
-1.38184e-08
1.83518e-09
3.78943e-09
-1.54538e-09
-1.02484e-09
-1.09848e-09
1.43506e-09
6.88266e-10
-3.32324e-10
4.6933e-10
4.77034e-10
6.21843e-08
-6.20316e-08
-1.52677e-10
6.23876e-08
-6.2526e-08
1.38448e-10
7.42078e-10
6.47968e-08
-6.56338e-08
8.36955e-10
6.4187e-08
6.09792e-10
-3.41727e-10
-6.65839e-08
9.50144e-10
-6.22546e-08
6.20006e-08
2.53932e-10
1.29112e-09
-6.7875e-08
-6.25048e-08
2.50221e-10
1.19576e-08
-1.27678e-09
1.92006e-09
-3.76435e-09
3.12107e-09
4.84228e-10
-1.35356e-09
1.23211e-09
-9.07495e-10
1.55275e-09
-1.84523e-09
1.19998e-09
1.6203e-09
-1.7956e-09
5.28135e-10
-1.21853e-10
-3.28927e-09
3.17521e-09
-2.46365e-09
2.57771e-09
-1.00348e-09
-2.95049e-09
2.6772e-09
-3.98474e-09
-5.46688e-09
6.92079e-10
-8.09796e-10
1.54493e-09
1.23993e-09
-6.62363e-09
7.99839e-09
2.92454e-09
2.12476e-08
-4.32149e-09
-8.6752e-10
3.06437e-10
1.25316e-09
-1.01151e-08
-2.73311e-08
5.51316e-09
-4.54592e-09
-3.06776e-09
2.10051e-09
1.42637e-10
5.59235e-13
6.08557e-10
-2.91722e-09
3.58886e-09
8.52157e-09
9.75901e-10
-6.90315e-10
2.28051e-09
-2.59368e-09
2.42022e-09
1.45101e-08
1.29728e-08
-2.64132e-08
3.2032e-08
6.08351e-09
-2.22848e-08
-1.02118e-08
1.77755e-08
-1.74198e-08
1.06624e-08
-3.41532e-10
7.53098e-11
-1.52938e-09
-2.0074e-09
-1.80451e-09
3.4468e-09
1.44651e-08
-5.13007e-10
-1.33514e-08
2.5485e-10
-3.00606e-09
-1.99277e-10
1.50394e-08
1.72462e-08
1.34203e-08
7.78118e-10
-1.52721e-09
-1.26712e-08
-2.01166e-09
5.95502e-09
1.21051e-08
-9.24162e-10
-1.33545e-09
-3.49858e-09
2.73266e-09
3.94113e-09
2.39393e-09
1.39599e-08
4.15674e-09
-1.37123e-08
1.70567e-08
-1.59252e-09
2.96248e-09
-3.7134e-09
1.90015e-09
-4.46177e-09
1.26714e-08
-1.19196e-08
-1.36457e-08
5.84793e-10
8.59917e-09
-1.96214e-09
1.66629e-09
1.84079e-09
-8.91017e-09
4.86714e-10
-4.11214e-09
-5.90801e-09
1.20098e-08
-1.5012e-08
1.51835e-09
1.64246e-09
-2.09144e-09
1.61445e-08
-1.56955e-08
-9.62872e-10
1.38702e-08
2.49626e-09
-3.71167e-09
-1.37127e-08
7.23939e-09
-1.67274e-08
-7.93179e-09
6.38077e-09
5.8204e-09
1.40945e-08
-9.31366e-09
3.19755e-09
8.8104e-09
9.74738e-09
3.92003e-09
-4.0713e-09
2.12736e-08
-1.86424e-08
4.60822e-09
-9.79659e-09
2.31812e-09
5.14491e-09
1.33441e-08
-7.99124e-11
1.22948e-08
-1.31777e-08
-1.58393e-09
2.71341e-09
-1.92793e-09
7.98449e-10
1.06325e-08
-6.3014e-09
7.22802e-09
-1.01761e-08
1.431e-09
-4.75525e-09
1.10531e-08
-1.15443e-08
-7.38434e-09
8.80514e-09
9.21168e-09
1.24084e-08
1.00933e-09
-1.34976e-08
1.79088e-09
8.84104e-10
-1.07485e-08
-6.74168e-09
1.01059e-08
-1.86728e-09
2.5247e-09
-8.53729e-09
4.63893e-09
-5.09356e-09
1.11198e-08
-3.49661e-09
-1.1269e-08
3.64576e-09
-4.54674e-09
1.09113e-08
2.21115e-09
1.24602e-09
-4.89864e-09
-1.74459e-08
1.03956e-08
1.1949e-08
9.2435e-10
-1.05785e-08
-9.63424e-09
1.53141e-08
1.19502e-08
2.68876e-09
-9.49405e-09
-1.31627e-08
-2.39985e-10
-1.23333e-08
3.43585e-10
-5.95267e-10
1.08685e-08
1.23886e-08
-8.00609e-09
1.59722e-08
-1.52556e-08
3.44011e-09
-5.04696e-10
1.60862e-09
1.22328e-08
-3.86184e-09
-1.22898e-08
-5.1317e-09
3.69162e-10
4.47402e-09
1.17965e-08
-7.54499e-09
8.1511e-10
-1.05347e-09
1.94396e-09
-2.47442e-09
5.92658e-09
2.60094e-08
-9.06288e-10
-1.34776e-08
1.43839e-08
2.75229e-08
-2.18322e-08
2.18046e-08
1.92442e-08
-1.23951e-08
-2.47914e-09
1.47568e-08
1.01414e-10
-1.18708e-08
-3.61072e-10
-5.99681e-09
-2.02205e-09
2.46984e-09
1.76336e-09
2.80772e-10
-1.05792e-08
1.0531e-08
-2.32605e-10
1.95047e-09
-5.51204e-09
-1.0423e-08
1.01239e-08
-6.01245e-10
-1.01701e-08
-7.43307e-12
-1.02815e-08
-2.9762e-09
-1.16288e-08
2.32827e-09
7.70431e-09
5.06522e-09
3.52942e-10
-1.13423e-08
1.12701e-08
7.22129e-10
-8.33259e-09
5.28512e-09
-6.07021e-10
2.82421e-09
-3.50852e-09
-1.28284e-08
-1.34452e-08
1.28919e-08
-9.77744e-09
-1.57001e-08
9.98176e-09
8.99197e-09
8.23676e-10
2.52983e-09
-1.60075e-08
1.06349e-08
1.66467e-09
4.06667e-09
4.15666e-10
-6.641e-10
-4.91043e-10
-4.00406e-09
2.77043e-09
-1.77243e-09
4.50653e-10
-5.25663e-10
7.50098e-11
-2.4099e-09
1.23772e-08
1.98288e-09
2.53002e-09
-1.30568e-09
-1.95462e-09
2.253e-11
-2.6586e-09
-8.25395e-10
1.25429e-08
9.64382e-09
-5.73774e-10
7.17364e-09
-1.17826e-09
-5.42161e-09
-9.74774e-09
-5.00939e-09
3.54033e-10
9.66202e-11
4.37671e-09
1.44987e-09
-1.6405e-08
-6.98177e-10
-9.8949e-10
-1.99149e-09
7.15078e-10
2.49787e-09
6.18141e-08
-5.48677e-11
-6.17592e-08
6.26474e-08
1.46215e-10
-6.27936e-08
-1.41e-08
1.67657e-10
1.44458e-08
-5.13432e-10
2.48971e-09
-2.147e-09
2.88704e-09
1.78466e-09
-4.48495e-09
-6.48522e-10
-6.96186e-10
5.64991e-10
-1.68156e-10
6.86874e-10
-5.08018e-10
1.86058e-08
1.11836e-09
-1.53474e-08
-3.72429e-10
-1.96849e-09
1.20104e-08
2.19098e-09
1.75135e-09
4.88624e-09
-1.7045e-09
-7.82738e-08
-2.40245e-08
-4.83825e-09
1.55256e-08
2.35484e-09
-9.68544e-10
-3.46249e-09
-1.46426e-09
8.20017e-10
-6.91201e-10
-1.32968e-08
-3.19302e-10
1.36161e-08
-1.05299e-08
-6.67982e-09
1.04681e-08
-9.14809e-09
8.90755e-09
-2.72166e-10
2.01704e-09
1.27775e-08
-1.24654e-08
-3.12142e-10
8.07033e-10
4.70148e-11
9.38086e-09
1.1427e-09
-1.29486e-09
-4.41571e-10
-1.41261e-08
-5.19294e-10
-1.31938e-08
1.18727e-08
-1.1256e-08
-6.60207e-08
6.49405e-08
1.08015e-09
5.87151e-10
-5.86592e-10
1.14927e-08
-5.51883e-10
2.62193e-11
-1.79685e-09
2.75374e-09
-3.37326e-09
-1.34887e-08
-1.60459e-09
2.52097e-09
-4.54535e-09
-1.37061e-08
1.84642e-09
5.61542e-09
9.31352e-09
-8.68674e-09
-5.79635e-10
2.77526e-11
-9.36581e-09
-1.2311e-08
1.42567e-10
-6.2769e-08
3.08476e-10
6.24605e-08
6.97345e-10
6.34897e-08
-2.17524e-10
-7.28029e-10
-1.42224e-08
1.42572e-10
-6.33393e-08
6.31967e-08
1.14473e-10
-6.30323e-08
6.29178e-08
6.16072e-10
6.13631e-08
2.06333e-10
-6.15694e-08
6.13048e-08
5.83237e-11
-8.78529e-08
8.84596e-08
3.10462e-12
9.29201e-08
-9.29142e-08
-1.5861e-10
-8.66022e-08
-4.13775e-10
9.25485e-08
2.99445e-11
-8.49031e-08
-7.48948e-10
9.23327e-08
3.5421e-10
-5.43335e-10
2.10788e-09
9.09669e-08
-6.93801e-08
6.18474e-08
-6.21703e-08
-6.30517e-08
6.13014e-08
3.3278e-12
-3.02137e-09
2.66642e-09
-1.33574e-08
1.02173e-10
2.51859e-10
2.58159e-09
1.01859e-08
-1.22647e-08
3.83889e-08
-3.45694e-08
-1.62638e-08
1.41018e-08
-9.83656e-11
-2.13525e-10
3.58386e-10
1.00136e-09
-2.04827e-10
4.37494e-10
4.70264e-09
1.07665e-09
-3.87914e-09
-5.09625e-10
5.83386e-10
-4.13187e-10
-2.41121e-09
1.26102e-08
2.17821e-09
-1.4407e-08
-2.18673e-09
-3.86268e-09
5.69633e-09
1.10683e-09
-2.35131e-09
1.39505e-08
-1.20362e-09
-4.98907e-09
8.06803e-09
-7.7595e-09
-1.88468e-08
-1.28077e-08
7.63633e-09
5.75615e-09
-3.24968e-10
-5.16446e-10
3.31125e-09
1.43022e-08
1.61408e-09
-1.07435e-09
-5.01115e-10
5.35592e-10
-3.17833e-10
1.5844e-08
-4.58426e-10
-1.57049e-08
-5.41203e-09
-2.93428e-09
2.90388e-10
-2.5431e-10
4.5168e-09
-1.86603e-08
6.90839e-10
-1.75997e-09
-2.39011e-09
-2.16928e-09
1.5132e-08
-9.05075e-08
-2.90241e-10
9.17836e-08
-2.77962e-10
-8.91714e-08
-4.37929e-10
9.30906e-08
-1.2404e-10
-9.30214e-08
-6.79547e-10
-1.85355e-09
1.59781e-08
9.21325e-08
-5.72196e-11
-1.44633e-11
-4.11515e-11
1.14635e-08
2.03848e-09
-1.0303e-08
-1.17603e-08
-5.5083e-09
8.44546e-09
1.39108e-09
-6.912e-09
-6.56795e-09
9.12885e-09
-2.9205e-10
1.01431e-08
1.89967e-08
-1.75711e-08
3.00376e-09
-1.23226e-08
3.0366e-09
-7.00705e-08
4.04981e-09
-2.02821e-08
-1.24414e-08
-6.38808e-10
-5.71333e-09
-1.53769e-08
9.21941e-09
-1.51058e-08
6.18693e-10
5.25546e-10
-1.44288e-09
-1.59792e-08
1.65361e-08
1.0057e-08
-9.98324e-09
-5.54801e-09
1.46806e-08
-1.54904e-09
8.18929e-10
-1.58233e-09
6.63064e-10
1.19874e-08
3.43983e-09
7.09872e-08
-1.7844e-08
9.72166e-10
-1.44732e-08
-3.30659e-10
-3.72815e-10
-2.55443e-10
6.10957e-08
-6.12198e-08
-6.33538e-08
-6.30895e-08
-2.41401e-10
-8.17071e-11
-9.26983e-08
-6.12801e-08
6.3388e-08
6.50567e-08
-6.09259e-08
6.45134e-08
-6.08959e-08
6.37644e-08
-6.10546e-08
6.33507e-08
9.2441e-08
4.1734e-10
-6.56109e-09
7.49427e-08
-6.49417e-08
1.45049e-10
-1.45049e-10
2.34449e-09
-3.88656e-10
1.54711e-08
-1.69387e-10
1.69387e-10
5.36657e-10
1.31732e-09
1.41115e-08
1.27282e-08
-2.54682e-09
3.56845e-09
6.45806e-09
1.90855e-09
4.91525e-10
-3.52855e-10
-2.86241e-09
1.42912e-08
1.47951e-08
-4.33917e-09
1.14456e-08
2.9125e-10
2.28263e-10
3.03158e-09
-1.06814e-09
-1.82363e-09
-5.87632e-09
-1.55724e-10
-5.18393e-10
1.51686e-08
4.03999e-10
1.93596e-10
1.70166e-08
-2.51157e-08
1.70511e-08
2.53351e-09
1.52709e-09
2.07503e-09
-3.47393e-09
1.8863e-08
-1.74641e-08
-1.57938e-10
1.02203e-09
-1.47642e-09
-7.91232e-08
-7.08565e-08
1.48603e-09
-1.24377e-09
7.47367e-10
2.2681e-08
1.81203e-08
-6.42891e-09
2.14156e-10
-4.52894e-09
-1.84675e-09
3.00899e-08
1.30726e-10
1.48858e-08
7.22516e-08
1.22663e-10
5.87559e-10
-2.40123e-10
-3.12901e-10
-3.92024e-09
2.34965e-08
-1.46866e-08
1.26428e-09
-1.36843e-08
-1.0681e-10
2.01635e-08
-2.79325e-08
9.03797e-10
2.656e-09
-7.6234e-10
)
;

boundaryField
{
    back
    {
        type            empty;
        value           nonuniform 0();
    }
    ingreso
    {
        type            calculated;
        value           nonuniform List<scalar> 
14
(
-1.54286e-08
-1.54288e-08
-1.54288e-08
-1.54288e-08
-1.54286e-08
-1.54283e-08
-1.54288e-08
-1.54288e-08
-1.54286e-08
-1.54286e-08
-1.54288e-08
-1.5428e-08
-1.5428e-08
-1.54286e-08
)
;
    }
    salida
    {
        type            calculated;
        value           nonuniform List<scalar> 2(1.02298e-07 1.13702e-07);
    }
    front
    {
        type            empty;
        value           nonuniform 0();
    }
    defaultFaces
    {
        type            calculated;
        value           uniform 0;
    }
}


// ************************************************************************* //
