/*--------------------------------*- C++ -*----------------------------------*\
  =========                 |
  \\      /  F ield         | OpenFOAM: The Open Source CFD Toolbox
   \\    /   O peration     | Website:  https://openfoam.org
    \\  /    A nd           | Version:  7
     \\/     M anipulation  |
\*---------------------------------------------------------------------------*/
FoamFile
{
    version     2.0;
    format      ascii;
    class       volScalarField;
    location    "77.5";
    object      p;
}
// * * * * * * * * * * * * * * * * * * * * * * * * * * * * * * * * * * * * * //

dimensions      [0 2 -2 0 0 0 0];

internalField   nonuniform List<scalar> 
591
(
0.000123857
0.000123875
0.000123877
0.00012383
0.000123833
0.000123903
0.000123895
0.000123866
0.000116967
0.000123884
0.000124066
0.000122806
0.000123872
0.000119705
0.000123866
0.000123912
0.000123852
0.000123911
0.000121932
0.000123245
0.000123848
-3.52642e-06
0.000124063
0.00012385
0.00012402
0.000123871
0.000123976
0.000123981
0.000123884
0.000123892
0.00012404
0.000124015
0.000124034
0.000124033
0.000124035
0.000123359
0.000124031
0.00012385
0.000124058
0.000123976
0.000123935
0.000124027
0.000123879
0.000123901
0.000124024
0.000124044
0.000119212
0.000124048
0.000123883
0.000124002
0.000123995
0.000124026
2.39366e-05
3.05792e-05
4.78291e-05
0.000123877
0.000124052
0.000124042
0.000124046
0.000123858
0.000123945
0.000123875
0.000123873
0.000123922
0.000122545
0.000123875
0.000123878
0.000124043
0.000120699
0.000123889
0.000123883
0.00012405
0.000124021
0.000124029
0.000124034
0.000124011
0.000123852
0.000124047
0.000123854
0.000123791
0.000123631
0.000124051
0.000124011
0.000123992
0.000124059
0.000123865
0.000123954
0.000124041
0.000124003
0.000123756
0.000124016
0.000123964
0.000123979
0.000123857
0.000124057
0.000124012
0.000123561
0.000123461
0.000123623
0.000124063
0.00012397
0.000123887
0.000124067
0.000123828
0.000124068
0.000123876
0.000123874
0.000124016
0.000124059
0.000124063
0.000123951
0.000124039
0.00012389
0.000124043
0.00012406
0.000124043
0.000123996
0.00012399
0.000123556
0.000123964
0.000123876
0.00012387
0.000123956
0.000123856
0.000124029
0.000120177
0.000124067
0.000124044
0.000123628
0.000124035
0.000123866
0.000123553
0.000124004
0.000123998
0.000124039
0.000123881
0.000122605
0.000124065
0.000123868
0.000123553
0.000123619
0.000123965
0.000124048
0.000124059
0.000124052
7.61431e-06
3.67723e-06
2.07024e-06
3.8149e-05
3.66896e-05
5.6593e-06
3.82996e-05
1.57364e-05
3.72805e-05
1.78026e-05
0.000123876
0.000123867
0.000124055
0.000124048
0.000124055
0.000124054
0.000124047
0.000124043
0.000124055
0.000124053
0.000124018
0.000124056
0.000124051
0.000124058
0.000123997
0.00012337
0.000124058
0.000122099
0.00012404
0.000124038
0.000123987
0.000123886
0.000124038
0.000124053
0.000124051
0.000123467
0.000122449
0.000123025
0.00012342
0.000124042
0.000124049
0.000123957
0.000123847
0.000124044
0.000122944
0.000123277
0.000123848
0.000124036
0.000123732
0.00012403
0.000124048
0.000124022
0.000123701
0.000123838
0.000124046
0.000124052
0.00012405
0.000123849
0.000124033
0.000123845
0.00012406
0.00012387
0.000123869
0.000124057
0.000123662
0.000123839
0.000123879
0.000123518
0.000124009
0.000123664
0.000123951
0.000123964
0.000124038
0.000123431
0.00012394
0.000123832
0.000123832
0.000124012
0.000123772
0.000123926
0.00012384
0.000123752
0.000123825
0.000124061
0.000123817
0.000124058
0.000123908
0.000124036
0.000123882
0.000123883
0.000124063
0.000123774
0.00012405
0.000123763
0.000123811
0.000123874
0.000123854
0.000123891
0.000123877
0.000123647
0.00012385
0.000123803
0.000124019
0.00012387
0.000123722
0.000124006
0.000123273
0.000123832
0.000123166
0.00012305
0.000123861
0.000123826
0.000123863
0.00012386
0.00012383
0.000124062
0.000123906
0.000123988
0.000123918
0.00012391
0.000123923
0.000124015
0.000123665
0.000124058
0.000123702
0.000123591
0.000123894
0.000124034
0.000123614
0.000124053
0.000123962
0.000123983
0.000124009
0.000123885
0.000123857
0.00012369
0.00012382
0.000123851
0.000123901
0.000123958
0.000124024
0.000124041
0.000124047
0.000123804
0.000123911
0.000124035
0.000124041
0.000124036
0.000123829
0.000124049
0.000123923
0.000124032
0.000123791
0.000124049
0.000123779
0.000124026
0.000123915
0.000123857
1.1638e-05
2.19058e-05
0.000123805
0.000123881
0.00012406
0.00012381
0.000124061
0.000123892
0.000124049
0.000124026
0.000123762
0.00012402
0.00012385
0.000124057
0.000123883
-2.09832e-07
0.00012375
0.000124031
0.000124026
0.000123722
0.000123873
0.000123915
0.000124021
0.000123779
0.000124042
0.000123927
0.000123876
0.000124019
0.000123826
0.000123753
0.000123787
0.000123885
4.74633e-05
0.000124037
0.000124019
0.000123875
0.000124044
0.000123955
0.000123897
0.00012388
0.000123866
0.00012403
0.000123892
0.000123799
0.000123925
0.000123804
0.000124042
0.000123811
0.000123868
0.000123904
0.000123989
1.98672e-05
2.73255e-05
3.42851e-05
9.63568e-06
0.000123851
3.30443e-05
2.59936e-05
0.00012404
1.90682e-05
1.70244e-05
3.81746e-05
7.57305e-06
3.99261e-05
5.60219e-06
4.082e-05
3.68664e-06
4.28021e-05
1.87424e-06
3.63932e-05
2.31911e-05
2.94412e-05
1.49873e-05
0.000123732
0.000124051
0.000123918
0.000123926
0.000120874
0.00012397
0.000124046
0.000124016
0.000123817
0.000124051
0.000124053
0.000124032
0.000124028
0.000123793
0.000123867
0.000124037
0.000124043
0.00012388
0.000123749
0.000123821
0.000123385
0.000123837
0.000124065
0.000124035
0.000123878
0.000124058
0.000123723
0.000123904
0.000123682
0.000122836
0.00012403
0.000124041
0.000124064
0.000123736
0.000123923
0.000123681
0.000123891
0.000123882
2.60352e-05
2.18709e-05
3.3026e-05
1.1614e-05
0.000124068
0.000123729
1.98138e-05
2.82463e-05
3.55919e-05
9.5844e-06
0.000123885
0.000123979
0.000123834
0.000123845
0.000123868
0.000124003
0.000123795
0.000124026
0.000123968
0.000123078
0.000123848
0.000123815
5.93465e-05
0.000123203
0.000124056
0.000123861
0.000123756
0.000124045
0.000124048
0.000123842
0.000123643
0.000123871
0.000123931
0.000123725
0.000124001
0.000122884
0.000123804
0.000123823
0.000124011
0.000100861
0.00012386
0.000123464
0.00012379
0.000124056
0.000123691
1.0892e-05
2.11083e-05
3.53567e-05
2.81826e-05
1.36573e-05
5.32867e-08
4.20674e-05
2.68789e-06
4.0146e-05
4.7595e-06
3.94049e-05
6.81174e-06
3.86125e-05
8.85391e-06
3.72788e-05
1.36693e-05
3.17181e-05
3.05748e-05
2.39301e-05
2.52698e-05
1.77596e-05
1.29338e-05
1.57024e-05
0.00012405
0.000102392
0.00012385
0.000123782
0.000124054
0.000123945
0.00012406
0.000123776
0.000123905
0.000124021
0.000124017
0.000124023
0.000123777
0.000123873
0.00012378
0.000123982
0.000123811
0.000124054
0.000123925
0.000123756
0.000123761
0.000123884
0.000123877
0.000124061
0.000124052
0.000124062
0.000124021
0.000124065
0.000123692
0.000123872
0.000124056
0.000123817
0.000123946
0.000123877
0.00012392
0.000123759
0.00012402
0.000124019
0.000123333
0.000121348
0.000123061
0.000123606
0.000123872
0.000123703
0.000123883
0.000124061
0.000124026
0.000123877
0.000123493
0.000123472
0.000124055
0.000124023
0.000123892
0.000123989
0.000123532
5.83022e-05
4.01078e-05
0.000123994
0.000124011
0.000123374
0.000122723
0.000123859
0.000123605
0.000123352
0.000123868
0.000123778
0.000124046
0.000123901
0.000123931
0.000118984
5.44639e-05
0.0001239
8.12253e-05
1.86077e-06
-3.81852e-07
0.000123868
0.000123837
0.000124021
0.000124063
0.000124053
0.000124055
0.000124056
0.000123854
-2.30791e-06
0.000122805
0.000123893
0.000124
0.000121991
0.000124053
0.000124054
0.000122262
0.000123969
0.000124023
0.000121669
0.000124059
7.6328e-05
0.000124052
0.000123715
0.000124015
0.000122352
0.000123581
0.000123643
0.000123902
0.000124062
0.000124008
0.000124053
0.000124065
0.000123869
0.000116154
)
;

boundaryField
{
    back
    {
        type            empty;
    }
    ingreso
    {
        type            zeroGradient;
    }
    salida
    {
        type            fixedValue;
        value           uniform 0;
    }
    front
    {
        type            empty;
    }
    defaultFaces
    {
        type            zeroGradient;
    }
}


// ************************************************************************* //
