/*--------------------------------*- C++ -*----------------------------------*\
  =========                 |
  \\      /  F ield         | OpenFOAM: The Open Source CFD Toolbox
   \\    /   O peration     | Website:  https://openfoam.org
    \\  /    A nd           | Version:  7
     \\/     M anipulation  |
\*---------------------------------------------------------------------------*/
FoamFile
{
    version     2.0;
    format      ascii;
    class       surfaceScalarField;
    location    "71.5";
    object      phi;
}
// * * * * * * * * * * * * * * * * * * * * * * * * * * * * * * * * * * * * * //

dimensions      [0 3 -1 0 0 0 0];

internalField   nonuniform List<scalar> 
1111
(
6.66552e-09
1.31317e-08
-1.5951e-08
-3.84619e-09
6.68664e-09
-1.18285e-08
1.18074e-08
-1.47474e-08
5.38633e-09
9.10687e-09
2.5418e-10
6.4293e-10
-7.38966e-10
-1.42928e-08
1.43889e-08
-1.4227e-08
1.39699e-08
9.00005e-10
-1.65291e-09
1.49036e-08
2.17788e-09
-3.46303e-09
9.68863e-09
-1.02297e-08
4.00408e-09
-6.70836e-09
-1.26185e-08
1.25953e-08
6.73148e-09
-5.04326e-08
-2.5955e-08
7.63877e-08
-8.13564e-09
7.64619e-09
7.17609e-09
3.45968e-09
3.51176e-10
-3.5411e-09
-2.69757e-10
1.57368e-08
-1.60831e-08
-2.3101e-08
2.34472e-08
-9.6508e-09
-7.89671e-09
8.79139e-09
8.75612e-09
-3.54502e-08
1.76417e-08
-3.22991e-08
5.01076e-08
9.51726e-09
-1.96042e-09
-1.42652e-08
-1.17024e-09
2.00842e-09
-3.47276e-09
2.63458e-09
-3.8332e-09
1.33386e-08
1.95299e-09
-1.14584e-08
8.82928e-09
-2.53199e-09
-1.50395e-08
8.74216e-09
3.75734e-08
-3.03209e-08
-7.25251e-09
-1.94374e-08
3.56482e-10
1.72877e-08
1.79318e-09
-9.3151e-10
4.16738e-09
-1.78728e-08
1.4637e-08
-6.12211e-08
-3.96289e-09
6.5184e-08
1.48375e-10
-1.23971e-09
-3.48921e-10
1.44025e-09
-1.56353e-09
-1.3595e-08
-1.35427e-10
-2.86467e-10
2.38064e-10
1.8383e-10
-1.02424e-08
-8.32674e-09
1.27822e-08
5.787e-09
6.98102e-10
-2.13016e-09
-8.3825e-09
9.81456e-09
8.27397e-09
8.67961e-10
-9.25444e-09
1.1251e-10
-2.86572e-09
-7.89394e-09
1.09702e-08
-2.10583e-10
1.13936e-08
-7.95612e-10
-1.76871e-09
-9.17853e-10
9.0701e-10
3.90626e-11
-2.82193e-11
-1.94765e-10
7.921e-10
3.40372e-10
-9.37707e-10
-5.25226e-10
-3.92991e-11
5.60054e-10
4.47133e-12
-9.88449e-12
-9.11284e-10
1.06322e-10
8.14847e-10
-7.75434e-11
-8.50195e-10
8.68773e-10
-1.84572e-08
-1.84895e-09
-4.3941e-10
4.77331e-11
-1.33549e-10
1.34028e-08
-1.32462e-08
4.01077e-09
-3.91938e-10
5.97419e-10
3.65572e-10
-5.71053e-10
-2.08737e-10
-1.93401e-09
1.52539e-09
6.17354e-10
-2.10798e-09
1.02238e-08
-1.15788e-08
-3.21986e-10
-1.75771e-10
5.83469e-11
-8.78936e-09
1.02757e-08
-9.62203e-09
1.21438e-08
-1.71297e-08
4.77712e-09
2.08743e-10
7.07573e-11
-1.79566e-10
-2.13178e-10
2.1369e-10
8.33223e-10
-1.39903e-10
-5.95226e-08
7.42369e-08
-1.47143e-08
1.08356e-09
-2.96538e-10
-1.23039e-09
4.43375e-10
1.14076e-09
1.03194e-08
-1.37252e-08
2.26509e-09
-1.41241e-09
7.40634e-09
-8.8125e-09
2.81857e-09
-6.60352e-09
5.70813e-09
5.58221e-09
-4.68681e-09
-7.39611e-09
-1.95124e-09
1.91809e-09
7.42926e-09
-1.83981e-10
-9.09237e-08
9.13097e-08
-2.02002e-10
-2.58383e-10
-8.97614e-08
9.01708e-08
-1.5099e-10
8.30873e-08
-1.49486e-09
1.10936e-10
-8.17034e-08
-3.03451e-09
-3.19272e-10
7.22522e-10
8.71378e-10
-5.10344e-10
3.97086e-09
-1.3832e-09
3.36865e-09
-5.95631e-09
-1.02265e-09
9.39802e-10
-1.49657e-08
6.61008e-09
9.54769e-09
1.01345e-09
-1.02896e-08
-2.71509e-10
-6.19577e-09
1.32145e-08
1.22282e-09
-8.24155e-09
1.43492e-08
-4.36708e-09
3.56205e-09
-1.35442e-08
1.54162e-08
1.70431e-09
-1.69166e-09
-2.32751e-10
-2.00495e-08
-7.38461e-09
2.76669e-08
1.40952e-08
-8.53537e-09
-2.02736e-09
7.83543e-09
-1.20038e-08
-4.74193e-11
1.39243e-10
-1.32222e-09
-3.63025e-08
-2.32201e-08
8.19367e-09
1.85614e-10
3.7645e-09
-7.02518e-09
1.09248e-08
6.37613e-09
-6.33876e-10
3.48633e-10
5.10871e-10
-2.25628e-10
5.83667e-09
-4.71518e-09
3.61389e-09
-4.73538e-09
-5.2486e-10
-6.64599e-10
2.78174e-10
7.18056e-10
-6.51034e-10
-5.92641e-11
-9.56809e-10
8.21308e-10
-1.79203e-08
2.46317e-09
1.51686e-09
1.39403e-08
2.51705e-10
-7.42854e-10
-1.42727e-10
-4.02536e-09
-1.49923e-08
1.09731e-09
5.63316e-09
1.19627e-08
-5.22575e-09
-1.23701e-08
1.64554e-08
6.37315e-10
-1.59231e-08
-1.16963e-09
-7.16862e-10
4.91302e-10
5.74193e-10
-5.57267e-10
2.88372e-10
2.68895e-10
-7.29249e-09
-3.65563e-09
4.3446e-09
-2.74515e-10
4.12183e-10
-1.37668e-10
1.25671e-09
-1.55245e-08
-8.46278e-10
9.48053e-09
-1.07422e-08
-1.03101e-09
-6.16531e-10
1.27954e-08
4.39028e-09
-4.13505e-09
-1.30506e-08
1.52944e-10
7.07144e-09
-7.81289e-09
6.44958e-09
-1.7714e-09
-8.76624e-09
8.03285e-09
2.50479e-09
-1.82618e-09
6.40918e-10
-1.3807e-08
-1.58181e-10
-1.16334e-10
-4.37516e-11
9.24619e-10
-8.27698e-09
7.37024e-10
1.73152e-08
-1.5968e-09
-1.27653e-08
1.40823e-08
-1.31706e-09
1.21375e-08
1.40198e-08
-1.55485e-08
-1.06088e-08
-6.27625e-10
1.11839e-09
-4.90767e-10
6.82773e-10
-7.58171e-10
7.53983e-11
9.66909e-10
-1.08007e-09
1.13158e-10
1.54467e-09
-1.26677e-09
-2.77902e-10
-1.08444e-08
6.65666e-10
1.01787e-08
2.21351e-09
-6.6884e-10
8.93595e-09
-1.53304e-08
7.1648e-09
-8.62097e-09
5.49645e-11
3.80144e-09
-3.9672e-10
-2.56468e-09
2.61965e-09
-6.80394e-09
8.13108e-09
-1.32714e-09
-6.77829e-10
4.19268e-09
4.56011e-10
1.72712e-08
-1.44958e-08
-1.63466e-09
-5.80691e-09
5.30693e-09
-8.83226e-10
-2.15443e-10
6.10583e-09
-6.1229e-09
1.70649e-11
6.96752e-09
4.45135e-09
6.62416e-11
-1.60245e-08
1.0466e-08
1.7696e-08
5.72746e-09
8.3115e-09
8.236e-09
-6.84046e-09
1.19661e-09
-1.2041e-08
7.42743e-10
8.56687e-10
-1.28593e-08
3.05092e-09
-4.31274e-10
1.20282e-08
-1.13909e-08
-2.04413e-10
-9.04138e-10
-1.37886e-08
7.42719e-09
8.09097e-10
-2.24691e-11
-8.91305e-09
5.10288e-09
-3.05536e-08
-1.25029e-08
-2.70137e-09
1.41563e-09
1.40108e-08
1.09588e-08
-1.06979e-08
-1.42717e-08
1.55579e-08
-3.11067e-09
-1.24472e-08
1.64941e-09
3.92464e-09
-1.23382e-09
-9.31865e-10
-9.28991e-10
1.23739e-09
6.23468e-10
-2.59425e-10
3.83016e-10
3.8728e-10
6.2136e-08
-6.21607e-08
2.46559e-11
6.20579e-08
-6.23614e-08
3.03443e-10
8.36765e-10
6.47453e-08
-6.55722e-08
8.26863e-10
6.41373e-08
6.08061e-10
-2.25308e-10
-6.65177e-08
9.45533e-10
-6.20443e-08
6.19108e-08
1.33509e-10
1.31601e-09
-6.78337e-08
-6.2203e-08
1.58733e-10
1.23796e-08
-8.84161e-10
1.49251e-09
-3.70562e-09
3.09727e-09
3.68066e-10
-1.22984e-09
1.0205e-09
-6.81131e-10
1.43223e-09
-1.68577e-09
9.34673e-10
1.4676e-09
-1.60124e-09
2.72886e-10
-7.36604e-11
-3.3861e-09
2.90349e-09
-2.14302e-09
2.62564e-09
-6.29633e-10
-2.80129e-09
2.54676e-09
-3.69141e-09
-5.71058e-09
6.14288e-10
-6.71901e-10
1.30993e-09
1.14279e-09
-6.54686e-09
7.98061e-09
3.0176e-09
1.99373e-08
-4.37943e-09
-7.56993e-10
2.94589e-10
1.07669e-09
-1.00546e-08
-2.62479e-08
5.39454e-09
-4.37166e-09
-3.14068e-09
2.1178e-09
1.18806e-10
2.02874e-11
4.20961e-10
-2.67321e-09
3.41356e-09
8.81786e-09
8.14392e-10
-3.81284e-10
2.15548e-09
-2.40383e-09
2.03105e-09
1.47687e-08
1.32619e-08
-2.69753e-08
3.26576e-08
6.31062e-09
-2.28333e-08
-1.04526e-08
1.83544e-08
-1.78716e-08
1.0476e-08
-1.59753e-10
-1.2376e-10
-1.31773e-09
-1.79417e-09
-2.91888e-09
3.79501e-09
1.49417e-08
-5.96869e-10
-1.3704e-08
-3.67497e-10
-2.56002e-09
1.26227e-10
1.5465e-08
1.76581e-08
1.36888e-08
6.96495e-10
-1.61341e-09
-1.27719e-08
-1.68638e-09
6.00939e-09
1.24191e-08
-6.15933e-10
-1.1384e-09
-3.57098e-09
2.75088e-09
3.72359e-09
2.46158e-09
1.43328e-08
4.18139e-09
-1.41239e-08
1.78115e-08
-1.77245e-09
2.65275e-09
-3.50474e-09
1.88395e-09
-4.78065e-09
1.29443e-08
-1.19969e-08
-1.39981e-08
4.28727e-10
8.78877e-09
-1.85298e-09
1.55119e-09
1.61172e-09
-8.66503e-09
6.85157e-10
-4.52302e-09
-6.04395e-09
1.22203e-08
-1.48414e-08
1.23717e-09
1.66672e-09
-2.21779e-09
1.66559e-08
-1.61049e-08
-1.01435e-09
1.41063e-08
2.96989e-09
-4.30109e-09
-1.39992e-08
7.44286e-09
-1.72272e-08
-8.08727e-09
6.67207e-09
5.86438e-09
1.44778e-08
-9.82002e-09
3.08236e-09
9.24245e-09
9.87721e-09
3.83086e-09
-4.15246e-09
2.16014e-08
-1.90171e-08
4.85864e-09
-1.03596e-08
2.18897e-09
5.57878e-09
1.37496e-08
-1.79668e-10
1.27173e-08
-1.3552e-08
-1.83878e-09
2.10142e-09
-1.14188e-09
8.79239e-10
1.09369e-08
-6.38631e-09
7.41207e-09
-1.07598e-08
1.41369e-09
-4.7499e-09
1.13834e-08
-1.18592e-08
-7.5339e-09
9.11403e-09
9.35677e-09
1.2811e-08
7.83771e-10
-1.37744e-08
1.57033e-09
8.09845e-10
-1.10253e-08
-6.71647e-09
1.02079e-08
-1.56581e-09
2.52005e-09
-8.93511e-09
4.81417e-09
-5.19113e-09
1.14522e-08
-3.49212e-09
-1.16477e-08
3.68758e-09
-4.49696e-09
1.11993e-08
1.96833e-09
1.15319e-09
-5.03675e-09
-1.76414e-08
1.04082e-08
1.22699e-08
7.97523e-10
-1.0905e-08
-9.89802e-09
1.57663e-08
1.24547e-08
2.82309e-09
-9.69903e-09
-1.32756e-08
-2.93145e-10
-1.27143e-08
1.83997e-10
-7.44332e-10
1.15306e-08
1.24895e-08
-8.21412e-09
1.64896e-08
-1.58767e-08
3.5684e-09
-4.49765e-10
1.729e-09
1.26611e-08
-3.89252e-09
-1.26126e-08
-5.12001e-09
1.38009e-09
4.59661e-09
1.21138e-08
-7.28788e-09
8.53444e-10
-1.48616e-09
1.07436e-09
-1.42697e-09
5.8909e-09
2.61864e-08
-2.56225e-10
-1.06745e-08
1.09307e-08
2.84599e-08
-2.22125e-08
2.20018e-08
1.96497e-08
-1.26845e-08
-2.65465e-09
1.49885e-08
2.20922e-10
-1.21364e-08
-3.56956e-10
-6.02824e-09
-1.90403e-09
2.2837e-09
1.58866e-09
-2.35938e-10
-1.09794e-08
1.13088e-08
-9.35209e-11
3.08545e-09
-5.38689e-09
-1.08795e-08
1.04698e-08
-8.6109e-10
-1.06431e-08
-1.22553e-10
-1.10282e-08
-2.69414e-09
-1.19499e-08
2.21813e-09
7.88124e-09
5.12687e-09
-1.59833e-10
-1.17281e-08
1.1652e-08
6.16924e-10
-8.68313e-09
5.21484e-09
-1.31606e-09
2.4599e-09
-2.56597e-09
-1.30285e-08
-1.28809e-08
1.24649e-08
-1.02407e-08
-1.57845e-08
1.00008e-08
9.19851e-09
8.64148e-10
2.60836e-09
-1.32829e-08
1.12547e-08
1.68957e-09
3.97288e-09
3.29118e-10
-5.54015e-10
-2.99963e-10
-4.09002e-09
2.61411e-09
-1.08411e-09
2.42583e-10
-2.84435e-10
4.18518e-11
-2.62384e-09
1.28961e-08
2.18245e-09
2.56412e-09
-3.76633e-10
-1.58143e-09
-3.36506e-10
-2.43721e-09
-4.61938e-10
1.28547e-08
9.94569e-09
-3.87538e-10
6.93407e-09
-1.21793e-09
-5.3286e-09
-9.72887e-09
-5.0894e-09
1.87069e-10
5.55138e-11
4.85065e-09
1.31508e-09
-1.70707e-08
-4.47292e-10
-8.3324e-10
-2.71079e-09
9.97294e-10
2.85914e-09
6.19352e-08
-8.7216e-11
-6.1848e-08
6.23529e-08
1.8764e-10
-6.25406e-08
-1.41705e-08
-8.75591e-11
1.45369e-08
-2.78852e-10
2.93844e-09
-1.92582e-09
2.64848e-09
1.79739e-09
-4.43943e-09
-3.94761e-10
-5.72681e-10
4.64401e-10
-1.17348e-10
5.0641e-10
-3.53063e-10
1.94831e-08
1.10163e-09
-1.57341e-08
-2.09207e-10
-1.94313e-09
1.23534e-08
2.25077e-09
1.76938e-09
5.30913e-09
-2.03709e-09
-7.7233e-08
-2.41775e-08
-4.81714e-09
1.57926e-08
2.36314e-09
-3.63698e-10
-3.15762e-09
-1.21227e-09
4.88333e-10
-4.14465e-10
-1.0749e-08
-3.33194e-10
1.10822e-08
-1.07632e-08
-6.62681e-09
1.06735e-08
-9.39118e-09
8.76758e-09
7.77315e-11
1.65999e-09
1.02412e-08
-1.00911e-08
-1.50057e-10
6.59792e-10
8.09396e-11
1.03722e-08
8.14059e-10
-9.36405e-10
-1.98132e-10
-1.42438e-08
-5.07789e-10
-1.36723e-08
1.24806e-08
-1.17506e-08
-6.60142e-08
6.49679e-08
1.04634e-09
3.2519e-10
-3.04903e-10
1.18603e-08
-2.97072e-10
1.26363e-11
-2.03577e-09
2.77672e-09
-3.43314e-09
-1.34929e-08
-1.63887e-09
2.57186e-09
-4.76184e-09
-1.39735e-08
1.66459e-09
5.59212e-09
9.56841e-09
-8.91326e-09
-3.2437e-10
2.72987e-11
-9.34188e-09
-1.31575e-08
1.49887e-10
-6.27049e-08
2.36464e-10
6.24684e-08
6.95873e-10
6.34414e-08
-2.25474e-10
-1.40395e-09
-1.44524e-08
1.06701e-10
-6.33819e-08
6.32752e-08
1.84129e-10
-6.29267e-08
6.27426e-08
4.2178e-10
6.18063e-08
1.51486e-10
-6.19578e-08
6.16364e-08
1.69863e-10
-8.79016e-08
8.85112e-08
-1.49975e-12
9.33995e-08
-9.31068e-08
-2.68036e-10
-8.66405e-08
-4.34288e-10
9.33579e-08
-1.83744e-10
-8.49257e-08
-7.69272e-10
9.34884e-08
1.7292e-10
-5.22381e-10
1.96097e-09
9.23642e-08
-6.93286e-08
6.21496e-08
-6.23336e-08
-6.29632e-08
6.14929e-08
1.43564e-10
-3.0443e-09
2.88353e-09
-1.39631e-08
6.18583e-11
1.25211e-10
1.72378e-09
8.88291e-09
-1.14149e-08
3.82954e-08
-3.44808e-08
-1.66738e-08
1.37756e-08
-5.56169e-11
-2.21441e-10
2.03868e-10
7.80192e-10
-1.47517e-10
3.52492e-10
4.55314e-09
1.02762e-09
-3.69681e-09
-2.52699e-10
3.00432e-10
-1.94352e-10
-2.5128e-09
1.30488e-08
2.36012e-09
-1.44477e-08
-2.58037e-09
-3.45951e-09
5.62313e-09
1.04781e-09
-2.67964e-09
1.42331e-08
-1.14524e-09
-2.6098e-09
3.31087e-09
-8.16628e-09
-1.90465e-08
-1.33504e-08
7.85872e-09
5.92045e-09
-2.6668e-10
-5.41984e-10
3.09237e-09
1.44512e-08
2.18711e-09
-1.73468e-09
-4.24928e-10
4.72897e-10
-2.63412e-10
1.5998e-08
-5.29743e-10
-1.58014e-08
-1.18129e-09
-1.06902e-09
3.08746e-10
-2.33853e-10
3.47832e-09
-1.67443e-08
5.30018e-10
-1.60321e-09
-2.20457e-09
-2.38274e-09
1.54694e-08
-9.06047e-08
-1.34832e-10
9.16891e-08
-1.91814e-10
-8.91766e-08
-4.78161e-10
9.31107e-08
-2.75999e-10
-9.29219e-08
-5.76716e-10
-1.69533e-09
1.65706e-08
9.19905e-08
-1.97472e-10
3.04952e-11
-2.21517e-10
1.00841e-08
2.5279e-09
-8.0222e-09
-1.20642e-08
-5.67734e-09
8.45301e-09
1.43137e-09
-6.86678e-09
-6.09064e-09
9.01066e-09
-1.23595e-10
1.01537e-08
1.94492e-08
-1.78742e-08
3.06598e-09
-1.25927e-08
3.04611e-09
-6.99726e-08
3.95836e-09
-2.047e-08
-1.30837e-08
-5.32008e-10
-5.95919e-09
-1.52953e-08
9.11805e-09
-1.52076e-08
4.87037e-10
4.11541e-10
-1.76256e-09
-1.64276e-08
1.69246e-08
7.76802e-09
-8.0873e-09
-5.06463e-09
1.52109e-08
-1.70409e-09
7.26309e-10
-1.17522e-09
2.84648e-10
1.18887e-08
3.3194e-09
7.09175e-08
-1.81703e-08
8.20704e-10
-1.48902e-08
-2.5896e-10
-3.03637e-10
-9.07877e-11
6.09539e-08
-6.12299e-08
-6.33514e-08
-6.31241e-08
-6.27838e-11
-2.62956e-10
-9.25962e-08
-6.04535e-08
6.24145e-08
6.50788e-08
-6.02806e-08
6.45564e-08
-6.04644e-08
6.37872e-08
-6.07324e-08
6.33529e-08
9.23191e-08
3.19537e-10
-6.41509e-09
7.51099e-08
-6.53754e-08
6.05252e-11
-6.05252e-11
8.13722e-10
-3.47701e-10
1.54942e-08
-5.6246e-11
5.6246e-11
3.9066e-10
1.55643e-09
1.38724e-08
1.33071e-08
-2.7608e-09
3.74171e-09
6.40678e-09
1.91465e-09
4.05001e-10
-2.80945e-10
-2.97098e-09
1.4534e-08
1.48456e-08
-4.27465e-09
1.18067e-08
2.12256e-10
1.69139e-10
2.84407e-09
-9.07333e-10
-1.6281e-09
-5.85771e-09
-1.92294e-10
-4.29465e-10
1.52928e-08
2.94564e-10
9.66983e-11
1.49511e-08
-2.60126e-08
1.76045e-08
2.61982e-09
1.35124e-09
2.45909e-09
-3.71426e-09
1.92028e-08
-1.79477e-08
-9.76561e-11
4.25576e-10
-1.44052e-09
-7.92165e-08
-7.07691e-08
1.39012e-09
-7.34498e-10
6.77331e-10
2.28968e-08
1.85542e-08
-6.36453e-09
8.93519e-11
-4.37015e-09
-2.45747e-09
2.99821e-08
1.48315e-10
1.48185e-08
7.35828e-08
6.73494e-11
5.32982e-10
-1.79285e-10
-2.40686e-10
-3.73925e-09
2.41538e-08
-1.48569e-08
1.08119e-09
-1.40665e-08
-6.46853e-11
2.03314e-08
-2.86415e-08
9.16634e-10
2.12958e-09
-4.28134e-10
)
;

boundaryField
{
    back
    {
        type            empty;
        value           nonuniform 0();
    }
    ingreso
    {
        type            calculated;
        value           nonuniform List<scalar> 
14
(
-1.54286e-08
-1.54288e-08
-1.54288e-08
-1.54288e-08
-1.54286e-08
-1.54283e-08
-1.54288e-08
-1.54288e-08
-1.54286e-08
-1.54286e-08
-1.54288e-08
-1.5428e-08
-1.5428e-08
-1.54286e-08
)
;
    }
    salida
    {
        type            calculated;
        value           nonuniform List<scalar> 2(1.01411e-07 1.14589e-07);
    }
    front
    {
        type            empty;
        value           nonuniform 0();
    }
    defaultFaces
    {
        type            calculated;
        value           uniform 0;
    }
}


// ************************************************************************* //
