/*--------------------------------*- C++ -*----------------------------------*\
  =========                 |
  \\      /  F ield         | OpenFOAM: The Open Source CFD Toolbox
   \\    /   O peration     | Website:  https://openfoam.org
    \\  /    A nd           | Version:  7
     \\/     M anipulation  |
\*---------------------------------------------------------------------------*/
FoamFile
{
    version     2.0;
    format      ascii;
    class       volVectorField;
    location    "71.5";
    object      U;
}
// * * * * * * * * * * * * * * * * * * * * * * * * * * * * * * * * * * * * * //

dimensions      [0 1 -1 0 0 0 0];

internalField   nonuniform List<vector> 
591
(
(0.000829914 -2.29461e-05 1.21794e-18)
(0.000819878 -2.12716e-05 -6.64047e-19)
(0.000857259 -4.94639e-06 5.68497e-20)
(0.000859836 -1.18463e-05 -1.49117e-19)
(0.00084401 1.73076e-06 2.2559e-19)
(0.000802466 -4.07151e-05 -1.39631e-19)
(0.000561576 -0.000286254 8.06456e-19)
(0.00080336 4.29762e-06 2.08851e-18)
(0.00573416 0.00250261 9.87865e-19)
(0.00080091 -1.21987e-05 2.45487e-18)
(4.88508e-05 0.000168667 1.21835e-18)
(0.000932017 0.00137907 9.40806e-21)
(0.00079946 4.87556e-06 1.32532e-18)
(0.00160008 0.00239317 -7.87625e-19)
(0.00080338 2.38589e-06 -4.44414e-19)
(6.24766e-05 -0.000197239 2.3816e-22)
(0.000137186 0.000676902 7.04997e-19)
(0.000818588 6.73667e-05 -4.98667e-19)
(0.0019248 0.000393579 4.73852e-19)
(0.0013587 0.000253137 -2.4712e-19)
(0.000833342 -5.54849e-06 3.73098e-19)
(0.00340005 0.00655941 -8.15153e-20)
(2.69504e-05 6.94106e-05 2.70963e-19)
(0.000835359 -1.68531e-05 -4.51144e-19)
(1.06724e-05 -1.54685e-05 3.58952e-19)
(0.000775079 3.38444e-05 0)
(9.33188e-05 0.000473557 1.59974e-19)
(0.000547105 9.47553e-06 -1.78852e-19)
(0.000754901 4.7493e-05 1.14959e-18)
(0.000811031 5.27682e-05 5.8968e-19)
(5.66061e-05 -3.87734e-06 -4.52849e-24)
(3.13886e-05 -4.56044e-05 3.522e-19)
(3.56335e-05 -3.02091e-06 -4.64255e-20)
(4.45368e-05 -1.19463e-05 0)
(5.36598e-05 -1.31357e-05 1.13154e-18)
(0.0011745 0.000132543 1.79937e-19)
(3.03385e-05 -5.23739e-06 4.47174e-20)
(0.00082637 4.23719e-06 3.08421e-23)
(2.67813e-05 4.31117e-05 2.66046e-19)
(1.15055e-05 -9.66955e-05 -8.54872e-19)
(0.000639843 -0.000203793 9.60052e-19)
(2.42708e-05 -6.53199e-06 4.54854e-20)
(0.000802853 3.12949e-06 -1.58101e-18)
(0.000831135 4.32332e-05 -6.91199e-19)
(1.64618e-05 -7.64257e-06 0)
(5.42087e-05 6.59501e-06 8.51924e-20)
(0.00134627 0.00450177 8.93012e-19)
(7.51876e-05 1.54439e-05 8.63676e-20)
(0.000800726 1.64741e-05 0)
(0.000383819 -0.00020971 6.77562e-19)
(0.000382462 0.000272768 5.1194e-21)
(0.000394992 4.76031e-05 -1.00385e-18)
(0.00634808 0.0109416 -7.68496e-19)
(0.00622504 0.0107969 1.52865e-20)
(0.00561448 0.0103797 1.4558e-18)
(0.000808671 3.05051e-05 0)
(6.64155e-05 3.037e-05 0)
(0.000317639 1.22148e-05 1.57018e-23)
(6.22109e-05 1.01109e-05 -3.46479e-19)
(0.000814681 -8.04991e-06 0)
(0.000639363 2.88763e-05 3.17585e-19)
(0.000834998 1.12913e-05 2.20781e-18)
(0.00080124 3.0685e-05 -5.40853e-19)
(0.000799615 1.46043e-05 -3.1577e-19)
(0.0017118 0.000486172 5.42724e-19)
(0.000799778 1.62586e-05 -1.15328e-18)
(0.000829225 2.10768e-05 -5.24301e-19)
(7.96133e-05 -2.99474e-06 -1.73422e-19)
(0.000688947 0.00226222 0)
(0.000837549 3.90506e-05 0)
(0.000779588 1.71421e-05 -1.39256e-18)
(3.75884e-05 1.57382e-05 0)
(0.000289077 0.000269813 3.26862e-19)
(3.94823e-05 -1.70982e-05 0)
(4.08442e-05 -5.86087e-06 1.59482e-19)
(1.45684e-05 -4.35767e-05 -3.36692e-20)
(0.000791682 7.68684e-05 2.46927e-19)
(4.37282e-05 1.04436e-05 0)
(0.000801589 5.62705e-05 4.47443e-19)
(0.000772999 0.000293497 2.10739e-19)
(0.000964232 6.29771e-05 -3.9795e-20)
(4.2455e-05 2.26715e-05 -4.5189e-20)
(5.42453e-06 -2.1696e-05 0)
(0.000434373 0.000216059 1.70194e-19)
(2.84733e-06 2.19621e-05 0)
(0.000793341 3.82416e-05 -6.0691e-19)
(0.000612023 -0.000120308 0)
(6.39565e-05 -1.99464e-06 -1.7449e-19)
(3.02936e-06 -2.97659e-05 0)
(0.000828768 0.000241436 -3.41283e-19)
(3.55659e-06 -1.28579e-05 0)
(0.00042408 0.000323012 -1.3069e-23)
(0.000531211 0.000111545 0)
(0.000807509 4.45057e-05 -3.14748e-24)
(2.65553e-06 1.38418e-05 -4.21738e-20)
(0.000456003 -1.45841e-05 1.76365e-18)
(0.00102309 7.21972e-05 4.16053e-20)
(0.000827974 4.4804e-05 6.41232e-22)
(0.000739461 0.00065782 2.69513e-19)
(6.76171e-06 4.7605e-05 0)
(-3.55182e-07 -4.39875e-05 -3.12053e-19)
(-2.27317e-05 -7.65617e-05 -1.10094e-18)
(4.22641e-06 7.62485e-05 -5.96381e-19)
(0.000618412 -2.15122e-05 0)
(8.30752e-06 0.000100867 0)
(0.000811709 2.60089e-05 2.18226e-18)
(0.000788704 2.5114e-05 1.53438e-18)
(0.000427687 -8.37281e-05 0)
(4.20434e-05 0.000217257 -8.95434e-19)
(-1.2966e-07 0.000166955 4.96707e-19)
(6.11845e-05 0.000408749 6.25198e-19)
(0.000305974 8.10071e-05 -9.37181e-19)
(0.000802775 2.01087e-05 1.37343e-19)
(0.000260901 -4.4654e-05 5.31255e-19)
(4.21101e-06 3.15215e-05 0)
(2.14629e-05 0.000284616 -1.09399e-18)
(0.00032083 0.000323403 -1.61711e-19)
(1.04334e-06 -3.5871e-05 1.46522e-19)
(0.000670298 0.000813205 0)
(0.000368745 0.000387245 5.74442e-20)
(0.00081649 1.70732e-05 1.0703e-18)
(0.000799479 1.57997e-06 -2.72112e-18)
(5.80643e-06 -3.72561e-05 0)
(0.000672197 -3.39551e-05 -1.12322e-19)
(0.000321079 -0.000116972 1.24331e-18)
(0.0026436 0.000807634 -3.36321e-19)
(5.87255e-06 0.000130969 -6.13191e-19)
(5.20622e-06 0.000159952 1.61945e-18)
(0.000704425 2.26434e-05 -3.89933e-20)
(6.23111e-05 -1.38647e-05 -7.50212e-19)
(0.000806743 2.97358e-05 -3.87356e-19)
(0.000753206 2.63202e-05 -4.10451e-20)
(3.62999e-05 0.000330649 -5.96983e-19)
(0.000487775 6.4819e-05 -4.9396e-19)
(4.77085e-05 -3.45616e-06 1.56163e-19)
(0.000833949 2.97839e-05 -1.09501e-18)
(0.00155688 0.00023768 -1.13716e-18)
(4.36033e-06 6.13435e-05 4.96447e-19)
(0.000809925 2.90983e-05 -4.9882e-19)
(0.000912794 0.000544036 -7.85145e-20)
(0.000146043 0.000789544 0)
(0.000583564 6.46162e-05 0)
(0.000275755 5.22871e-05 -1.60976e-18)
(6.25967e-05 5.76192e-05 -1.37417e-18)
(3.0235e-05 2.01156e-05 0)
(0.004247 0.00740001 -1.01966e-20)
(0.00422541 0.00737197 3.165e-20)
(0.00442763 0.00757476 -4.96629e-21)
(0.00420666 0.00773497 0)
(0.00419904 0.0076008 5.77186e-19)
(0.00424419 0.00740138 -9.20019e-20)
(0.00421036 0.00804263 4.84414e-19)
(0.00428933 0.0074219 0)
(0.00420859 0.00853581 6.16712e-19)
(0.00432575 0.00745031 2.23907e-19)
(0.000824738 8.17324e-06 -1.3739e-18)
(0.000770604 5.41522e-05 0)
(0.000213292 5.10851e-05 1.27703e-19)
(4.94888e-05 1.52916e-05 8.71898e-20)
(7.70016e-05 4.37399e-05 6.8006e-19)
(0.000104592 3.98764e-05 -3.41689e-19)
(9.86323e-05 4.22127e-06 0)
(4.72136e-05 4.55549e-06 8.18423e-20)
(0.000206313 0.000131131 0)
(0.00016472 4.02572e-05 -5.24324e-20)
(0.000343774 0.000221515 -5.09282e-21)
(5.50895e-05 4.20616e-05 -4.3768e-19)
(8.94354e-05 2.60935e-05 -8.52523e-20)
(8.94488e-05 6.06032e-05 1.31202e-21)
(0.000256206 0.000365488 -6.66207e-19)
(0.00010734 0.00100082 0)
(4.14259e-05 5.1743e-05 3.43082e-19)
(0.000199601 0.00175059 0)
(0.000207793 0.000252511 7.04698e-19)
(3.68339e-05 -3.65477e-06 1.11502e-19)
(0.000484303 0.000163554 -1.72311e-19)
(0.000762259 2.40104e-05 -1.92424e-18)
(4.18041e-05 -1.33176e-06 4.51795e-24)
(0.000146927 2.28253e-05 2.24603e-19)
(0.000244296 9.06936e-05 -8.99381e-20)
(0.000881376 0.000703626 3.34957e-19)
(0.000722104 0.00163442 -9.23613e-21)
(0.000397197 0.00142301 -9.39534e-21)
(0.00102482 0.00054735 0)
(0.000100504 -1.63707e-05 1.11877e-18)
(0.00011428 1.40514e-05 -4.43165e-20)
(0.000457135 -0.000286749 -1.13615e-18)
(0.000815413 3.95998e-05 0)
(0.000180752 -6.36288e-07 3.63323e-19)
(0.000300621 0.00130959 0)
(0.00108023 0.000774337 -7.30235e-20)
(0.000826716 3.30402e-05 -1.8657e-19)
(7.53913e-05 -2.16356e-05 -2.99999e-19)
(0.000829991 0.000318938 -2.0806e-20)
(5.48939e-05 -2.13849e-05 -5.99535e-19)
(0.000226444 0.000174182 8.63925e-20)
(0.000229939 0.000308481 -3.4503e-19)
(0.000886898 0.000248423 0)
(0.000816407 5.21706e-05 0)
(0.000263692 0.000134543 1.76857e-19)
(0.000233772 -8.37682e-07 3.7525e-24)
(0.000184478 0.000204874 0)
(0.000296338 0.000652561 -5.55728e-21)
(0.000349213 -8.24796e-06 0)
(0.000373337 0.000599674 0)
(0.000107946 8.08829e-05 -1.34678e-21)
(0.000810041 2.88785e-05 -9.51479e-19)
(0.000807583 1.98708e-05 7.97951e-19)
(0.000127835 5.58308e-05 -1.49865e-19)
(0.000959936 0.000149404 8.50563e-20)
(0.000837411 4.25228e-05 3.33161e-19)
(0.000817411 2.79739e-05 -2.94136e-19)
(0.00102122 0.000414771 0)
(0.0004395 0.000118188 6.24472e-19)
(0.000899995 0.000320841 2.09151e-20)
(0.000578887 0.000155436 0)
(0.000272027 0.000446923 4.09662e-19)
(0.000261713 0.000215905 -8.44223e-20)
(0.00109612 0.000378737 -7.82181e-19)
(0.000625606 0.000104321 -1.79303e-19)
(0.000810986 7.31437e-05 -7.45598e-21)
(0.000841201 2.86902e-05 9.3988e-20)
(7.42402e-05 -8.72532e-05 -1.9815e-18)
(0.000739597 0.000381391 2.19247e-19)
(0.000670277 6.40098e-05 2.30645e-20)
(0.000707915 0.000279369 1.60358e-23)
(0.000730844 0.000460011 -4.09706e-19)
(0.000846553 2.78565e-05 9.06797e-20)
(7.12315e-05 7.86036e-05 0)
(0.00065704 0.000420234 -4.65944e-20)
(0.00018332 9.36482e-05 0)
(0.000374533 0.000501731 -2.64851e-19)
(0.000310066 0.000166417 0)
(0.000675852 0.000204617 3.55248e-19)
(0.000650613 0.00025989 -4.37278e-20)
(8.10924e-05 0.000103013 6.19193e-19)
(0.000876579 9.36142e-05 -1.62498e-18)
(5.6811e-05 2.13272e-05 2.57207e-19)
(0.000887571 6.93603e-05 -1.68552e-18)
(0.000841084 8.88447e-05 1.63014e-19)
(0.000810208 3.30485e-05 1.9045e-18)
(0.000816379 3.31968e-05 -1.3286e-19)
(0.000737376 7.226e-05 0)
(0.000806009 2.48381e-05 8.95668e-19)
(0.00096078 0.000230978 -4.27128e-19)
(0.000774548 9.44228e-05 -4.83751e-19)
(0.000779023 0.000232231 -8.81277e-20)
(0.000211131 -0.000168114 -2.07851e-18)
(0.000748336 8.03117e-05 8.87564e-19)
(0.000640619 0.000595562 0)
(8.61115e-05 -0.000117396 0)
(0.00122179 0.000472158 4.97289e-19)
(0.000617898 -6.11353e-05 -3.26324e-18)
(0.00134475 0.000416627 5.7648e-19)
(0.00124249 0.000717707 -6.38817e-20)
(0.000812195 3.07774e-05 -2.11968e-19)
(0.000836305 6.71283e-05 -1.42552e-18)
(0.000814713 2.61662e-05 1.58514e-18)
(0.00081706 2.70178e-05 9.78291e-20)
(0.000670149 0.000352412 -4.40427e-20)
(0.000101239 0.000121928 5.8449e-24)
(0.000752242 -3.89655e-05 2.65097e-19)
(0.00021619 -0.000261381 -7.32436e-19)
(0.000624762 0.000185951 0)
(0.000710383 4.58652e-05 9.90461e-20)
(0.000696359 9.90759e-06 -3.80834e-19)
(0.000389817 0.000170035 3.93383e-20)
(0.000807041 0.000506428 -1.65483e-19)
(0.000148297 7.40384e-05 3.20788e-25)
(0.000812157 0.000411876 0)
(0.000980317 0.000318039 4.15796e-20)
(0.000757538 -7.44688e-05 -6.16245e-19)
(0.000348768 0.000104179 4.97833e-19)
(0.00090392 0.000425888 0)
(4.85543e-05 3.06459e-05 1.33718e-19)
(0.00048458 0.000267036 2.13961e-19)
(0.00051159 -0.000152632 -7.09546e-19)
(0.000127716 -0.000162943 -1.05675e-18)
(0.000824295 3.30958e-05 -4.86846e-19)
(0.000774553 -8.51162e-05 -1.94304e-19)
(0.000548153 0.000729332 -1.17443e-18)
(0.000847811 4.70547e-05 -6.74342e-20)
(0.000623218 -2.1689e-05 1.27701e-18)
(0.000704371 9.95522e-05 2.27793e-20)
(0.000532561 0.000209047 -1.65692e-19)
(3.03996e-05 -2.14018e-05 -8.75888e-20)
(0.000165956 -4.58421e-05 2.40621e-18)
(1.76253e-05 7.06265e-07 -1.94851e-19)
(0.00082877 0.000113586 3.63766e-19)
(0.000664708 0.000136202 0)
(0.000184763 -8.86265e-05 -1.04819e-18)
(0.00012013 -1.92115e-05 3.12924e-19)
(0.000106894 -3.66526e-05 1.27369e-23)
(0.000798904 0.000106161 -3.19279e-19)
(0.00015214 -1.38232e-05 0)
(0.0005856 0.000241602 0)
(0.000111272 0.000329069 -3.62868e-19)
(0.000861151 0.000100487 2.09805e-18)
(1.43634e-05 1.06346e-06 0)
(0.000879351 5.30719e-05 0)
(4.26209e-05 -2.58594e-05 0)
(0.000815437 4.60222e-05 -4.46845e-21)
(0.00078941 -4.40329e-05 0)
(0.00425985 0.00740631 8.07e-20)
(0.00436151 0.00748607 1.43633e-19)
(0.000843924 -6.72976e-06 0)
(0.000787275 -4.67927e-05 8.09922e-19)
(0.000152573 0.00012377 1.49216e-19)
(0.00085336 6.83012e-05 8.07685e-19)
(0.00012953 0.000100624 2.34407e-20)
(0.00078032 -2.82088e-05 6.24459e-19)
(3.43665e-05 9.46018e-06 0)
(2.77256e-05 -1.33718e-05 -4.48503e-20)
(0.000897244 4.91394e-05 -4.86585e-19)
(3.23642e-05 -3.17005e-05 -6.69838e-19)
(0.00075709 0.000121879 -4.23262e-20)
(0.000168437 0.000161561 -1.88108e-19)
(0.000814547 2.80495e-05 0)
(0.0046825 0.00815354 9.00506e-22)
(0.000181009 0.00078812 3.33515e-19)
(0.00011516 -5.94668e-05 -9.14575e-19)
(5.98138e-05 -3.51063e-05 -1.16882e-18)
(0.000639556 1.38981e-05 1.89859e-20)
(0.000581206 0.000407983 0)
(0.000418924 0.000442948 -2.56342e-19)
(8.23518e-05 -6.04852e-05 1.18375e-18)
(0.000597756 3.77672e-07 7.70277e-20)
(4.14691e-05 1.78928e-06 4.07116e-19)
(0.000701632 -5.17375e-05 1.1717e-18)
(0.000810865 3.25443e-05 -5.99746e-19)
(6.369e-05 -5.5155e-05 1.70938e-18)
(0.000842466 -2.52971e-05 -5.68932e-24)
(0.000616088 6.8542e-06 -3.76517e-20)
(0.000867605 6.95221e-05 0)
(0.000839297 3.99923e-05 0)
(0.00591729 0.00724022 2.59606e-19)
(1.83611e-05 -2.28572e-06 -1.19588e-19)
(0.000123798 -0.000102703 7.73022e-19)
(0.000724972 0.000117992 -6.96476e-19)
(2.13847e-05 -2.22157e-08 2.01524e-19)
(0.000622645 -3.53063e-05 -7.23855e-19)
(0.000743382 3.70177e-05 1.55813e-18)
(0.000704456 0.000159411 -3.55455e-19)
(0.000807695 -1.26796e-05 3.60673e-19)
(7.52172e-05 -3.42258e-05 1.11606e-18)
(0.000799839 6.98509e-06 -3.22708e-19)
(0.000866598 4.15456e-05 0)
(0.000541341 0.000303221 4.21036e-20)
(0.000857179 5.08414e-05 -9.46495e-19)
(1.89365e-05 2.40952e-06 9.11306e-19)
(0.000853137 4.62322e-05 9.65583e-19)
(0.000856984 9.42303e-06 -9.6023e-19)
(0.000750098 -1.95224e-06 -5.69209e-19)
(0.000521802 -7.2671e-05 -5.25675e-19)
(0.00432866 0.00745245 2.47549e-19)
(0.00422289 0.00752957 -2.78831e-19)
(0.00422144 0.00758742 2.66632e-19)
(0.00425574 0.00741052 1.97965e-19)
(0.000844902 -2.76622e-05 1.44071e-19)
(0.00447542 0.00751204 0)
(0.00440281 0.00751652 -3.86964e-19)
(2.93048e-05 -1.30816e-07 -9.98133e-19)
(0.00417056 0.00746941 -6.33643e-20)
(0.00414588 0.00743245 -2.21503e-19)
(0.00602979 0.0106064 0)
(0.00654052 0.0111876 3.71401e-20)
(0.00600974 0.0105761 0)
(0.00655621 0.0112111 1.30856e-19)
(0.00599711 0.0106001 2.69668e-19)
(0.00659288 0.0112279 1.2458e-20)
(0.00593576 0.0106129 -7.76704e-19)
(0.00662313 0.0111469 8.14848e-21)
(0.00390377 0.00919992 -1.90848e-19)
(0.00418685 0.00748873 3.87458e-21)
(0.00423794 0.00755252 7.93564e-20)
(0.00415034 0.00743472 4.1202e-20)
(0.000878676 0.000191873 4.46766e-20)
(1.01721e-05 1.44829e-06 0)
(0.000702919 -0.00012129 0)
(0.000664749 5.08074e-05 0)
(0.0024441 0.00110942 4.23929e-21)
(0.000754761 -3.16131e-05 1.72592e-19)
(3.99846e-05 5.63906e-06 4.54081e-20)
(1.01606e-05 -2.70153e-05 1.65329e-18)
(0.000850925 1.41771e-05 0)
(2.75597e-05 1.2486e-05 -1.91738e-19)
(0.000140181 0.000222911 0)
(1.77039e-05 -1.01607e-06 0)
(1.43477e-05 -1.33437e-06 0)
(0.000822968 0.000139393 1.13739e-20)
(0.000810578 -1.72637e-05 1.79381e-19)
(3.65539e-05 0.00027354 -1.68607e-23)
(0.000157771 0.00027269 -1.84202e-18)
(0.000602689 0.000329299 -8.57045e-20)
(0.000896622 0.000110162 6.00574e-19)
(0.000657067 -0.000216449 6.7322e-19)
(0.000363291 0.00110951 0)
(0.000471515 0.000575067 2.71539e-18)
(9.03505e-05 0.000145663 -1.80319e-18)
(2.20605e-05 4.65971e-08 0)
(0.000821219 -5.77101e-05 3.63325e-20)
(1.6307e-05 3.60125e-05 1.64459e-18)
(0.000899165 3.21355e-05 2.71204e-19)
(-1.63811e-05 7.23837e-06 3.80679e-18)
(0.000929733 3.9852e-05 -2.69067e-19)
(0.00135092 0.000151245 7.4725e-19)
(3.50434e-05 -1.068e-05 8.25762e-20)
(3.64972e-05 3.77717e-06 -8.59131e-19)
(5.0675e-05 0.000142457 0)
(0.000909441 8.01374e-05 5.98588e-19)
(0.000493706 0.000368097 2.37157e-19)
(0.000663712 1.78641e-05 -3.89172e-20)
(0.000777618 -4.02593e-06 2.57275e-19)
(0.000735947 -0.000180476 0)
(0.00632083 0.010897 -1.68127e-19)
(0.00637918 0.0109742 4.05834e-19)
(0.0061606 0.0107314 -6.1839e-19)
(0.00650158 0.0111329 -8.09833e-20)
(3.44693e-05 0.000118828 8.00586e-19)
(0.000919442 5.98017e-05 1.45944e-22)
(0.00641176 0.0110067 -3.8646e-19)
(0.00628187 0.0108468 5.48289e-19)
(0.00608066 0.0106733 -4.16774e-19)
(0.00652207 0.0111653 -6.81433e-20)
(8.04044e-05 0.00050705 -2.01826e-20)
(8.30531e-05 -0.000202733 -7.93398e-19)
(0.00067347 -2.07024e-05 -7.64539e-19)
(0.000723805 0.000220347 0)
(0.00080003 5.12664e-07 0)
(0.000186024 0.000390676 3.36317e-19)
(0.000597747 0.000515591 -5.41903e-19)
(9.87544e-06 -1.67028e-06 1.78409e-19)
(0.000201348 0.000467081 -7.38436e-19)
(0.00100901 0.000971971 -1.12686e-19)
(0.000742887 0.000166047 0)
(0.000787556 0.000183389 1.31031e-19)
(0.00635439 0.00587923 1.13138e-18)
(0.000740083 0.00112738 8.26605e-20)
(3.88177e-05 3.81826e-05 -7.44745e-20)
(0.000810655 1.43622e-05 0)
(0.000874693 2.60246e-05 -3.56939e-20)
(3.47606e-05 3.30197e-06 -1.96723e-19)
(3.00674e-05 4.71388e-06 1.93007e-19)
(0.000832801 1.91024e-05 5.37268e-19)
(0.000971705 0.000109193 6.58322e-19)
(0.000569119 3.87033e-05 0)
(0.000222547 -0.000300143 -3.98079e-19)
(0.00091473 0.000147538 3.89633e-19)
(1.31681e-05 -6.1597e-05 2.03134e-19)
(0.00144969 0.000443073 -2.5816e-18)
(0.000598606 -7.52647e-06 0)
(0.00079094 0.00014412 3.75501e-19)
(9.43023e-05 0.000395647 0)
(0.00118772 0.00816198 4.62183e-19)
(0.000489289 0.000500067 -1.22463e-18)
(0.0005418 0.00100759 -1.83764e-19)
(0.000880549 1.83709e-05 -1.46066e-19)
(1.32808e-05 2.54908e-05 0)
(0.00094542 7.7179e-05 6.11763e-19)
(0.00410629 0.00739545 8.14286e-20)
(0.00417142 0.00747396 4.73113e-20)
(0.00449914 0.00751469 4.54031e-19)
(0.00444433 0.00754099 -3.28894e-19)
(0.00647553 0.01111 8.10609e-20)
(0.00391483 0.00714599 -9.65489e-22)
(0.00550753 0.00779676 -5.64725e-19)
(0.00409786 0.0073716 5.21891e-21)
(0.00518809 0.00785662 5.11651e-19)
(0.00407965 0.00734006 -4.87181e-20)
(0.0049531 0.00771596 0)
(0.00408494 0.00736447 -8.56563e-20)
(0.00474175 0.00758723 4.92487e-19)
(0.0040982 0.00737609 8.75158e-20)
(0.00457432 0.00752683 0)
(0.00428339 0.00742049 1.39754e-19)
(0.0042396 0.00759896 5.7998e-19)
(0.00446681 0.00752636 -5.5396e-19)
(0.00438711 0.00750404 3.71341e-19)
(0.00422802 0.0075255 3.22846e-19)
(0.00643093 0.0110434 -4.97537e-21)
(0.00411775 0.00740158 3.11605e-20)
(0.006459 0.0110732 0)
(2.42861e-05 5.95532e-06 -1.89875e-19)
(0.00199984 0.00654356 2.28286e-19)
(0.000839284 -4.73146e-05 1.09685e-19)
(0.000856603 9.31191e-06 0)
(1.64397e-06 1.41876e-06 -3.99145e-19)
(-4.53046e-06 -0.000135241 6.91997e-19)
(2.44036e-05 5.71083e-05 2.08916e-18)
(0.000826932 0.000180136 -9.00808e-20)
(0.000800069 9.36518e-06 7.06457e-19)
(1.47804e-06 -1.25015e-06 3.10015e-19)
(1.8964e-05 -3.43517e-05 -1.84582e-18)
(0.000762262 2.75079e-05 1.63166e-19)
(0.000867233 0.000124018 -3.08016e-20)
(0.000800348 -8.91973e-06 1.4815e-19)
(0.00041346 0.000679693 0)
(4.6169e-05 -0.000147098 1.15158e-18)
(0.000863147 8.45838e-06 1.52529e-19)
(2.00909e-05 2.403e-05 0)
(0.000114808 0.000560811 -6.31277e-19)
(0.000607524 0.000594367 1.31803e-18)
(0.000326354 0.000750508 0)
(0.000801073 -1.69214e-05 0)
(0.000800766 2.99387e-06 1.17481e-18)
(1.77817e-05 4.94145e-05 -3.51523e-18)
(1.68563e-05 7.3236e-06 3.73653e-19)
(0.00011614 0.000145571 0)
(4.56812e-05 -4.11516e-05 0)
(6.21537e-05 0.000112897 2.01015e-19)
(0.000935301 0.000187443 3.50464e-19)
(0.000799922 1.5778e-05 -1.397e-18)
(2.29879e-05 3.34172e-05 0)
(0.000461099 1.04514e-05 -6.04062e-20)
(0.000801207 3.87808e-05 -1.56359e-19)
(0.000841066 3.57465e-05 1.06378e-18)
(0.000257911 0.000542324 6.32272e-19)
(0.000874314 0.000156313 0)
(1.92698e-05 -2.39991e-05 5.38707e-19)
(2.60708e-06 -6.02662e-06 -3.19993e-19)
(0.000980488 3.12941e-05 0)
(0.00103433 0.00226416 0)
(0.000939805 -5.9269e-06 0)
(0.00100098 0.000206776 4.27218e-19)
(0.000817145 -3.37032e-05 -2.8392e-19)
(0.00092949 0.000109449 -6.84838e-19)
(0.000800506 3.34654e-06 0)
(4.20875e-05 6.92232e-05 -1.7158e-19)
(0.00017429 0.000327285 1.08121e-18)
(0.000798874 1.57689e-05 -1.78895e-23)
(0.00108956 0.00020928 -6.69007e-19)
(0.00109026 0.000125328 0)
(2.57399e-06 6.4538e-06 2.51051e-19)
(1.87218e-05 -1.55567e-05 -1.9433e-19)
(0.000577027 3.94017e-05 6.95073e-21)
(1.10927e-05 -8.10218e-05 0)
(0.00106015 0.000254036 9.50127e-19)
(0.00502882 0.00974915 -2.83033e-19)
(0.00312122 0.00961873 1.27252e-18)
(4.28103e-05 -0.0001063 -1.91357e-19)
(5.60828e-05 -7.56539e-05 1.85968e-18)
(0.00119136 0.000245498 1.67338e-19)
(0.00132759 0.00108005 2.34102e-19)
(0.000811693 3.70372e-07 -7.32576e-19)
(0.000198432 0.000951812 -2.38287e-19)
(0.000813916 0.000933667 -2.18599e-19)
(0.000799983 -2.81464e-06 0)
(8.48968e-05 0.000626452 0)
(9.55988e-05 0.000282635 -3.99339e-23)
(0.000719463 -4.21777e-05 -1.67915e-23)
(0.000822359 6.49688e-05 1.52626e-19)
(0.00263076 0.00206272 -1.23133e-18)
(0.00175952 0.00923875 -1.1721e-19)
(0.000834443 5.31925e-05 4.92272e-19)
(0.00632772 0.00404749 -1.75949e-19)
(0.00672109 0.0115578 -1.36461e-20)
(0.00473414 0.00784381 4.92896e-21)
(0.000801971 1.36077e-05 -2.19384e-18)
(0.000836609 8.91909e-06 5.08349e-24)
(9.01315e-06 -7.73349e-06 -3.48049e-19)
(4.65386e-05 9.02388e-05 -3.49308e-19)
(6.68449e-05 0.000270843 8.75325e-19)
(1.11986e-05 1.63275e-05 4.90451e-19)
(8.96631e-05 0.000230885 3.69795e-19)
(0.000822359 2.39982e-05 0)
(0.00534812 0.00949246 1.95053e-20)
(0.00153285 0.000634742 -2.612e-20)
(0.000819903 3.48546e-05 3.60212e-19)
(3.51331e-05 -8.28798e-05 0)
(0.00184789 0.000742159 5.46036e-19)
(9.6183e-06 7.69967e-06 -2.70179e-19)
(3.41072e-05 2.86774e-05 9.71911e-20)
(0.00132709 0.00139587 6.36621e-19)
(0.000736284 4.79024e-05 1.83121e-19)
(5.18836e-06 -1.69637e-06 -1.7022e-19)
(0.00206237 0.00155835 -1.05595e-18)
(0.000126502 0.000179427 -8.18817e-19)
(0.0039215 0.00848737 -1.09095e-18)
(5.65609e-06 1.62327e-06 8.81509e-20)
(0.000135207 -0.000120954 -1.25662e-18)
(4.90917e-05 -5.76921e-05 4.05685e-20)
(0.00152592 0.000981295 0)
(0.001039 0.000138635 -4.05942e-22)
(0.000453981 0.000849243 -4.0208e-20)
(0.000802776 2.73182e-05 -2.34102e-19)
(8.71254e-05 0.000185614 7.36127e-19)
(3.2348e-05 -6.21079e-05 4.04051e-19)
(1.85641e-05 1.53981e-05 -9.47191e-20)
(3.18418e-05 9.30321e-05 -3.20318e-19)
(0.000205989 -0.000257804 -5.45116e-19)
(0.00325098 0.00345927 2.85576e-21)
)
;

boundaryField
{
    back
    {
        type            empty;
    }
    ingreso
    {
        type            fixedValue;
        value           uniform (0.0008 0 0);
    }
    salida
    {
        type            zeroGradient;
    }
    front
    {
        type            empty;
    }
    defaultFaces
    {
        type            noSlip;
    }
}


// ************************************************************************* //
