/*--------------------------------*- C++ -*----------------------------------*\
  =========                 |
  \\      /  F ield         | OpenFOAM: The Open Source CFD Toolbox
   \\    /   O peration     | Website:  https://openfoam.org
    \\  /    A nd           | Version:  7
     \\/     M anipulation  |
\*---------------------------------------------------------------------------*/
FoamFile
{
    version     2.0;
    format      ascii;
    class       surfaceScalarField;
    location    "19.5";
    object      phi;
}
// * * * * * * * * * * * * * * * * * * * * * * * * * * * * * * * * * * * * * //

dimensions      [0 3 -1 0 0 0 0];

internalField   nonuniform List<scalar> 
1111
(
6.00083e-09
1.34246e-08
-1.53033e-08
-4.1221e-09
6.14488e-09
-1.14582e-08
1.13142e-08
-1.444e-08
4.38065e-09
9.83989e-09
2.19477e-10
1.70465e-10
-1.9035e-10
-1.39472e-08
1.39671e-08
-1.38772e-08
1.36926e-08
3.55029e-10
-1.29375e-09
1.48376e-08
1.88475e-09
-3.97411e-09
9.43646e-09
-1.13284e-08
5.86601e-09
-6.48267e-09
-1.24625e-08
1.24249e-08
6.52018e-09
-5.11846e-08
-2.54285e-08
7.66131e-08
-8.06604e-09
7.43253e-09
6.77839e-09
3.75918e-09
3.72077e-10
-3.83429e-09
-2.96973e-10
1.57034e-08
-1.58252e-08
-2.24527e-08
2.25745e-08
-9.65387e-09
-8.35761e-09
9.00338e-09
9.0081e-09
-3.4596e-08
1.71163e-08
-3.18626e-08
4.93423e-08
9.60404e-09
-1.85271e-09
-1.4234e-08
-3.66151e-09
3.64747e-09
-3.43074e-09
3.44478e-09
-3.71194e-09
1.3024e-08
2.00263e-09
-1.13147e-08
8.88691e-09
-2.07176e-09
-1.50183e-08
8.20316e-09
3.87883e-08
-3.19325e-08
-6.85578e-09
-1.90923e-08
-2.68148e-10
1.77328e-08
1.62767e-09
-2.96981e-10
3.7687e-09
-1.80431e-08
1.45714e-08
-6.20806e-08
-3.70071e-09
6.57813e-08
2.14169e-10
-1.40413e-09
-4.17442e-10
1.6074e-09
-9.78652e-10
-1.31955e-08
-2.65248e-10
-3.70784e-10
3.61533e-10
2.74498e-10
-9.94615e-09
-8.05182e-09
1.22496e-08
5.74842e-09
8.83247e-10
-2.22832e-09
-8.51251e-09
9.85758e-09
7.64708e-09
1.11107e-09
-8.38795e-09
-3.70198e-10
-2.68639e-09
-7.76346e-09
1.05938e-08
-1.43922e-10
1.11874e-08
-1.71249e-10
-2.12921e-09
-1.1265e-09
1.09012e-09
1.46139e-10
-1.09755e-10
-4.44892e-10
9.95391e-10
6.21092e-10
-1.17159e-09
-7.12148e-10
-4.81832e-11
7.56673e-10
3.65809e-12
4.30443e-11
-1.16819e-09
8.36651e-11
1.04149e-09
-1.94575e-11
-1.064e-09
5.66305e-10
-1.80094e-08
-1.6492e-09
-6.20835e-10
7.48641e-11
-1.66177e-10
1.32455e-08
-1.32849e-08
3.80809e-09
-4.96975e-10
7.08177e-10
4.85017e-10
-6.96219e-10
-9.07249e-10
-2.6887e-09
2.06167e-09
1.53428e-09
-1.93178e-09
8.37034e-09
-1.04127e-08
-4.79935e-10
-2.38797e-10
9.78963e-11
-8.80271e-09
9.9855e-09
-9.24883e-09
1.1614e-08
-1.66026e-08
5.15957e-09
-1.70983e-10
1.22869e-10
-2.56401e-10
-3.46402e-10
3.27275e-10
9.91187e-10
-2.28345e-10
-5.99427e-08
7.44644e-08
-1.45217e-08
1.23317e-09
-4.39651e-10
-1.43972e-09
6.46198e-10
8.53854e-10
1.02948e-08
-1.35946e-08
2.44602e-09
-2.12458e-10
6.48281e-09
-7.79308e-09
1.52273e-09
-6.32448e-09
5.84359e-09
5.39029e-09
-4.9094e-09
-6.77594e-09
-2.48949e-09
2.31293e-09
6.95251e-09
-3.30029e-10
-9.09755e-08
9.14571e-08
-1.51609e-10
-3.3293e-10
-8.97676e-08
9.01224e-08
-2.18016e-11
8.30741e-08
-1.47772e-09
9.8286e-11
-8.16946e-08
-3.34121e-09
8.85574e-11
9.08448e-10
9.84092e-10
-6.59367e-10
4.14115e-09
-1.94675e-09
3.25026e-09
-5.44466e-09
-1.21238e-09
1.10001e-09
-1.50085e-08
6.56938e-09
8.96648e-09
1.06006e-09
-9.67116e-09
-3.55385e-10
-6.16291e-09
1.25321e-08
1.55371e-09
-7.92288e-09
1.41005e-08
-3.79458e-09
3.1352e-09
-1.34411e-08
1.535e-08
1.63223e-09
-1.55348e-09
3.14657e-12
-2.00846e-08
-7.77689e-09
2.78583e-08
1.34173e-08
-8.1195e-09
-2.30786e-09
7.49275e-09
-1.13478e-08
-1.80404e-10
3.59923e-10
-1.61924e-09
-3.74735e-08
-2.24691e-08
7.83342e-09
-1.77247e-10
3.95782e-09
-6.69352e-09
1.05305e-08
6.14847e-09
-7.6116e-10
4.4542e-10
6.17258e-10
-3.01517e-10
5.98883e-09
-4.54217e-09
3.50181e-09
-4.94848e-09
-7.4573e-10
-7.66394e-10
3.43929e-10
9.05331e-10
-8.69849e-10
-2.73106e-10
-1.30321e-09
1.13143e-09
-1.71393e-08
2.38801e-09
1.43903e-09
1.33122e-08
3.45157e-10
-8.94833e-10
-2.11484e-10
-3.51035e-09
-1.46223e-08
9.9336e-10
5.65476e-09
1.15439e-08
-5.24576e-09
-1.19529e-08
1.63181e-08
5.6763e-10
-1.5797e-08
-1.08877e-09
-8.48851e-10
6.10822e-10
6.83449e-10
-1.15705e-09
6.35789e-10
5.21266e-10
-6.93829e-09
-3.89729e-09
4.5111e-09
-4.91421e-10
6.96158e-10
-2.04737e-10
1.32809e-09
-1.47846e-08
-6.05027e-10
8.46808e-09
-9.79483e-09
-1.24665e-09
-1.43016e-09
1.23908e-08
4.40382e-09
-4.184e-09
-1.26106e-08
3.70542e-10
6.87629e-09
-7.54735e-09
6.51465e-09
-2.07242e-09
-8.23492e-09
7.60756e-09
2.69978e-09
-1.79585e-09
6.0041e-10
-1.34269e-08
-3.08791e-10
-1.8263e-10
-6.70883e-10
1.40719e-09
-7.51225e-09
8.28909e-10
1.70936e-08
-1.60435e-09
-1.54068e-08
1.65514e-08
-1.1446e-09
1.17196e-08
1.39079e-08
-1.55123e-08
-1.01152e-08
-9.81424e-10
1.61394e-09
-6.32518e-10
1.8157e-09
-2.38685e-09
5.71151e-10
3.2941e-09
-4.92814e-09
1.63404e-09
2.16794e-09
-1.82811e-09
-3.39827e-10
-1.25535e-08
1.65851e-10
1.23877e-08
2.94476e-09
-7.76821e-10
8.80174e-09
-1.49042e-08
6.32465e-09
-7.208e-09
1.42169e-10
4.08961e-09
-4.72598e-10
-3.31684e-09
3.459e-09
-8.13104e-09
9.53525e-09
-1.40421e-09
-1.01926e-09
4.03457e-09
1.12583e-09
1.68575e-08
-1.451e-08
-1.49368e-09
-5.1942e-09
5.04606e-09
-1.79861e-09
-2.85266e-10
7.24779e-09
-7.18916e-09
-5.86299e-11
7.08228e-09
4.29684e-09
3.85541e-10
-1.54763e-08
1.01807e-08
1.70152e-08
5.66852e-09
8.29004e-09
8.17498e-09
-6.68753e-09
5.31998e-10
-1.30855e-08
1.6095e-09
-3.20885e-10
-1.23963e-08
3.89192e-09
-4.32912e-10
1.45779e-08
-1.40103e-08
-5.43654e-11
-1.21174e-09
-1.34452e-08
6.98185e-09
1.00009e-09
-6.83566e-11
-8.95606e-09
5.44168e-09
-3.19293e-08
-1.25248e-08
-2.19774e-09
1.27736e-09
1.35351e-08
1.1018e-08
-1.07069e-08
-1.38462e-08
1.70044e-08
-3.1083e-09
-1.38961e-08
1.84264e-09
3.78324e-09
-1.55223e-09
-1.02812e-09
-1.10358e-09
1.44058e-09
6.91114e-10
-3.34529e-10
4.7216e-10
4.79627e-10
6.25355e-08
-6.22352e-08
-3.00233e-10
6.28201e-08
-6.29326e-08
1.12506e-10
7.39525e-10
6.47848e-08
-6.56136e-08
8.28792e-10
6.41662e-08
6.18634e-10
-3.97151e-10
-6.65827e-08
9.69139e-10
-6.21108e-08
6.18246e-08
2.86222e-10
1.30266e-09
-6.78854e-08
-6.24369e-08
3.26092e-10
1.19512e-08
-1.28743e-09
1.93444e-09
-3.7675e-09
3.12049e-09
4.87493e-10
-1.35764e-09
1.23797e-09
-9.13499e-10
1.55677e-09
-1.85033e-09
1.20706e-09
1.62494e-09
-1.79989e-09
5.34868e-10
-1.23091e-10
-3.28692e-09
3.18081e-09
-2.47134e-09
2.57746e-09
-1.01393e-09
-2.95497e-09
2.68147e-09
-3.99295e-09
-5.45862e-09
6.94343e-10
-8.1383e-10
1.55128e-09
1.24346e-09
-6.62305e-09
7.99451e-09
2.92539e-09
2.13345e-08
-4.33008e-09
-8.69785e-10
3.0654e-10
1.25759e-09
-1.00756e-08
-2.73979e-08
5.51383e-09
-4.54893e-09
-3.0649e-09
2.1e-09
1.42975e-10
-5.08514e-13
6.14206e-10
-2.92382e-09
3.59309e-09
8.51551e-09
9.7995e-10
-6.99079e-10
2.28363e-09
-2.59849e-09
2.43076e-09
1.4486e-08
1.29571e-08
-2.6397e-08
3.20247e-08
6.06344e-09
-2.22328e-08
-1.02276e-08
1.77574e-08
-1.74002e-08
1.06607e-08
-3.47328e-10
8.37942e-11
-1.53635e-09
-2.01454e-09
-1.74797e-09
3.39136e-09
1.44464e-08
-5.00079e-10
-1.33459e-08
2.73671e-10
-3.01782e-09
-2.10824e-10
1.50136e-08
1.72298e-08
1.3406e-08
7.82793e-10
-1.52751e-09
-1.26613e-08
-2.02093e-09
5.95265e-09
1.20929e-08
-9.33685e-10
-1.34205e-09
-3.49816e-09
2.7332e-09
3.94576e-09
2.39259e-09
1.39425e-08
4.16166e-09
-1.37004e-08
1.70149e-08
-1.57518e-09
2.96717e-09
-3.7173e-09
1.90156e-09
-4.45863e-09
1.26561e-08
-1.19094e-08
-1.3622e-08
5.74645e-10
8.58869e-09
-1.96529e-09
1.67033e-09
1.84625e-09
-8.92437e-09
4.91731e-10
-4.09221e-09
-5.90111e-09
1.19976e-08
-1.50208e-08
1.5254e-09
1.64404e-09
-2.09139e-09
1.61266e-08
-1.56792e-08
-9.6136e-10
1.38673e-08
2.47809e-09
-3.68044e-09
-1.37018e-08
7.23927e-09
-1.67065e-08
-7.93291e-09
6.37095e-09
5.81972e-09
1.40755e-08
-9.29653e-09
3.19961e-09
8.7967e-09
9.73749e-09
3.92554e-09
-4.06761e-09
2.1257e-08
-1.86337e-08
4.61604e-09
-9.77621e-09
2.32232e-09
5.12004e-09
1.33339e-08
-7.94873e-11
1.22763e-08
-1.31582e-08
-1.57513e-09
2.72973e-09
-1.95077e-09
7.96163e-10
1.06177e-08
-6.2954e-09
7.2216e-09
-1.01529e-08
1.43671e-09
-4.75506e-09
1.10393e-08
-1.153e-08
-7.38103e-09
8.78739e-09
9.21133e-09
1.23918e-08
1.01497e-09
-1.34863e-08
1.79684e-09
8.87205e-10
-1.07385e-08
-6.74451e-09
1.0102e-08
-1.87527e-09
2.52441e-09
-8.51515e-09
4.63067e-09
-5.09339e-09
1.11081e-08
-3.49803e-09
-1.12551e-08
3.64506e-09
-4.54768e-09
1.09007e-08
2.21779e-09
1.24938e-09
-4.88346e-09
-1.74363e-08
1.03904e-08
1.19293e-08
9.28133e-10
-1.05656e-08
-9.6463e-09
1.53284e-08
1.19275e-08
2.68861e-09
-9.49608e-09
-1.31607e-08
-2.36475e-10
-1.23267e-08
3.46757e-10
-5.94137e-10
1.08411e-08
1.24013e-08
-8.00762e-09
1.59545e-08
-1.52343e-08
3.44146e-09
-5.09126e-10
1.60045e-09
1.22209e-08
-3.86364e-09
-1.22733e-08
-5.13392e-09
3.41294e-10
4.47174e-09
1.17888e-08
-7.55247e-09
8.27594e-10
-1.04228e-09
1.9682e-09
-2.50104e-09
5.92539e-09
2.59923e-08
-9.45288e-10
-1.35921e-08
1.45374e-08
2.74815e-08
-2.18242e-08
2.17595e-08
1.92464e-08
-1.2386e-08
-2.46317e-09
1.47553e-08
1.03314e-10
-1.18557e-08
-3.67638e-10
-5.99456e-09
-2.02548e-09
2.47536e-09
1.76791e-09
2.96244e-10
-1.05628e-08
1.04956e-08
-2.29088e-10
1.90055e-09
-5.51174e-09
-1.04109e-08
1.01125e-08
-5.97808e-10
-1.01492e-08
-8.23148e-12
-1.02607e-08
-2.98495e-09
-1.16108e-08
2.3316e-09
7.70366e-09
5.06774e-09
3.65801e-10
-1.13304e-08
1.12608e-08
7.25125e-10
-8.32185e-09
5.28559e-09
-5.8563e-10
2.83236e-09
-3.53335e-09
-1.28137e-08
-1.34529e-08
1.28734e-08
-9.76465e-09
-1.56767e-08
9.96503e-09
8.99401e-09
8.19123e-10
2.51534e-09
-1.61074e-08
1.06178e-08
1.66007e-09
4.06794e-09
4.18214e-10
-6.66863e-10
-4.9708e-10
-4.00431e-09
2.7761e-09
-1.78961e-09
4.58811e-10
-5.35145e-10
7.6334e-11
-2.39838e-09
1.23639e-08
1.962e-09
2.52915e-09
-1.33118e-09
-1.96396e-09
3.32155e-11
-2.66508e-09
-8.35239e-10
1.2536e-08
9.63279e-09
-5.79626e-10
7.17714e-09
-1.1768e-09
-5.42072e-09
-9.76863e-09
-4.97903e-09
3.60666e-10
9.81456e-11
4.34679e-09
1.45271e-09
-1.63651e-08
-7.05813e-10
-9.94266e-10
-1.96041e-09
7.07876e-10
2.487e-09
6.18696e-08
-2.1353e-10
-6.16561e-08
6.26817e-08
2.13606e-10
-6.28953e-08
-1.40891e-08
1.74355e-10
1.44348e-08
-5.20082e-10
2.47078e-09
-2.15236e-09
2.89213e-09
1.78464e-09
-4.50942e-09
-6.59445e-10
-6.99789e-10
5.67971e-10
-1.69699e-10
6.92096e-10
-5.12679e-10
1.85659e-08
1.12073e-09
-1.53399e-08
-3.77285e-10
-1.97089e-09
1.1999e-08
2.19284e-09
1.7523e-09
4.85169e-09
-1.69601e-09
-7.86096e-08
-2.39939e-08
-4.83968e-09
1.55055e-08
2.35821e-09
-9.85301e-10
-3.46938e-09
-1.47108e-09
8.28557e-10
-6.99534e-10
-1.33972e-08
-3.21814e-10
1.3719e-08
-1.05208e-08
-6.6822e-09
1.04585e-08
-9.1362e-09
8.9111e-09
-2.83181e-10
2.02761e-09
1.28775e-08
-1.2562e-08
-3.1552e-10
8.1161e-10
4.52492e-11
9.34837e-09
1.139e-09
-1.30557e-09
-4.48687e-10
-1.41136e-08
-5.19676e-10
-1.31726e-08
1.18501e-08
-1.12335e-08
-6.60165e-08
6.4942e-08
1.07446e-09
5.97417e-10
-5.97925e-10
1.1478e-08
-5.62192e-10
2.70467e-11
-1.7776e-09
2.75201e-09
-3.38011e-09
-1.34811e-08
-1.59448e-09
2.51332e-09
-4.52292e-09
-1.36982e-08
1.85596e-09
5.61463e-09
9.30375e-09
-8.68803e-09
-5.89578e-10
2.73859e-11
-9.36893e-09
-1.22674e-08
2.44807e-10
-6.26947e-08
3.63027e-10
6.23317e-08
6.94999e-10
6.34712e-08
-3.65615e-10
-7.13425e-10
-1.42125e-08
1.21627e-10
-6.33261e-08
6.32045e-08
1.11511e-10
-6.31584e-08
6.30469e-08
6.22045e-10
6.13575e-08
8.35822e-11
-6.14411e-08
6.14492e-08
-9.16853e-11
-8.78617e-08
8.8475e-08
5.36993e-12
9.21772e-08
-9.23673e-08
-1.10117e-10
-8.66233e-08
-4.09651e-10
9.16834e-08
9.66245e-11
-8.49225e-08
-7.31623e-10
9.14373e-08
3.58604e-10
-5.4579e-10
2.07143e-09
9.01054e-08
-6.93631e-08
6.16474e-08
-6.19774e-08
-6.30277e-08
6.15273e-08
-7.80718e-11
-3.03071e-09
2.67226e-09
-1.33419e-08
1.03557e-10
2.57109e-10
2.60501e-09
1.02528e-08
-1.23246e-08
3.8414e-08
-3.45925e-08
-1.62178e-08
1.41348e-08
-9.96636e-11
-2.13116e-10
3.63598e-10
1.00942e-09
-2.06641e-10
4.40084e-10
4.70503e-09
1.07976e-09
-3.88322e-09
-5.19403e-10
5.94267e-10
-4.21506e-10
-2.41853e-09
1.26019e-08
2.18054e-09
-1.44035e-08
-2.17211e-09
-3.87687e-09
5.69562e-09
1.10941e-09
-2.34728e-09
1.39317e-08
-1.19397e-09
-5.06576e-09
8.27476e-09
-7.74637e-09
-1.88166e-08
-1.27876e-08
7.64462e-09
5.71758e-09
-3.24311e-10
-5.1689e-10
3.31656e-09
1.4295e-08
1.59186e-09
-1.04929e-09
-5.03023e-10
5.36912e-10
-3.19155e-10
1.58289e-08
-4.57801e-10
-1.56929e-08
-5.60372e-09
-2.98593e-09
2.9126e-10
-2.59392e-10
4.54883e-09
-1.87454e-08
6.9468e-10
-1.76397e-09
-2.39463e-09
-2.14566e-09
1.51268e-08
-9.05097e-08
-3.5429e-10
9.18771e-08
-2.06313e-10
-8.92025e-08
-4.43515e-10
9.27218e-08
-9.68897e-11
-9.28384e-08
-6.8383e-10
-1.85696e-09
1.59625e-08
9.22054e-08
-2.42669e-11
-3.25036e-11
-1.11778e-11
1.15379e-08
2.01466e-09
-1.03896e-08
-1.17486e-08
-5.49321e-09
8.4428e-09
1.394e-09
-6.91141e-09
-6.58203e-09
9.13151e-09
-2.98638e-10
1.014e-08
1.89615e-08
-1.75569e-08
3.00237e-09
-1.23103e-08
3.03942e-09
-7.00506e-08
4.03416e-09
-2.0265e-08
-1.24153e-08
-6.41634e-10
-5.70942e-09
-1.53671e-08
9.22086e-09
-1.50918e-08
6.22064e-10
5.28698e-10
-1.44016e-09
-1.59648e-08
1.65201e-08
1.01701e-08
-1.00816e-08
-5.55112e-09
1.46535e-08
-1.53598e-09
8.14176e-10
-1.59241e-09
6.74739e-10
1.19457e-08
3.45088e-09
7.10135e-08
-1.78307e-08
9.72562e-10
-1.44565e-08
-3.32926e-10
-3.74834e-10
-2.61768e-10
6.14085e-08
-6.15054e-08
-6.33586e-08
-6.31827e-08
-1.68504e-10
-2.18897e-11
-9.2648e-08
-6.17425e-08
6.38139e-08
6.50403e-08
-6.13838e-08
6.44945e-08
-6.12872e-08
6.37629e-08
-6.13973e-08
6.33532e-08
9.24399e-08
4.20203e-10
-6.56244e-09
7.49357e-08
-6.49224e-08
1.48584e-10
-1.48584e-10
2.39012e-09
-3.89411e-10
1.54665e-08
-1.73739e-10
1.73739e-10
5.41029e-10
1.28657e-09
1.41422e-08
1.26974e-08
-2.52059e-09
3.54572e-09
6.46865e-09
1.90373e-09
4.93932e-10
-3.54698e-10
-2.86133e-09
1.4285e-08
1.47927e-08
-4.34669e-09
1.14179e-08
2.93884e-10
2.29876e-10
3.03566e-09
-1.07271e-09
-1.82908e-09
-5.85629e-09
-1.61142e-10
-5.21442e-10
1.51611e-08
4.07546e-10
1.96803e-10
1.71177e-08
-2.50404e-08
1.70361e-08
2.53195e-09
1.53126e-09
2.06042e-09
-3.47008e-09
1.88574e-08
-1.74477e-08
-1.60207e-10
1.04041e-09
-1.50944e-09
-7.91107e-08
-7.08726e-08
1.48724e-09
-1.25876e-09
7.49352e-10
2.26503e-08
1.80707e-08
-6.4194e-09
2.20174e-10
-4.53148e-09
-1.81763e-09
3.01017e-08
1.4091e-10
1.47957e-08
7.1609e-08
1.24899e-10
5.89384e-10
-2.42202e-10
-3.15262e-10
-3.92432e-09
2.34153e-08
-1.46807e-08
1.26889e-09
-1.359e-08
-1.08525e-10
2.01844e-08
-2.7896e-08
9.04733e-10
2.67104e-09
-7.72042e-10
)
;

boundaryField
{
    back
    {
        type            empty;
        value           nonuniform 0();
    }
    ingreso
    {
        type            calculated;
        value           nonuniform List<scalar> 
14
(
-1.54286e-08
-1.54288e-08
-1.54288e-08
-1.54288e-08
-1.54286e-08
-1.54283e-08
-1.54288e-08
-1.54288e-08
-1.54286e-08
-1.54286e-08
-1.54288e-08
-1.5428e-08
-1.5428e-08
-1.54286e-08
)
;
    }
    salida
    {
        type            calculated;
        value           nonuniform List<scalar> 2(1.02603e-07 1.13397e-07);
    }
    front
    {
        type            empty;
        value           nonuniform 0();
    }
    defaultFaces
    {
        type            calculated;
        value           uniform 0;
    }
}


// ************************************************************************* //
