/*--------------------------------*- C++ -*----------------------------------*\
  =========                 |
  \\      /  F ield         | OpenFOAM: The Open Source CFD Toolbox
   \\    /   O peration     | Website:  https://openfoam.org
    \\  /    A nd           | Version:  7
     \\/     M anipulation  |
\*---------------------------------------------------------------------------*/
FoamFile
{
    version     2.0;
    format      ascii;
    class       volVectorField;
    location    "19.5";
    object      U;
}
// * * * * * * * * * * * * * * * * * * * * * * * * * * * * * * * * * * * * * //

dimensions      [0 1 -1 0 0 0 0];

internalField   nonuniform List<vector> 
591
(
(0.000807384 -4.96801e-05 1.22632e-18)
(0.000767606 -3.9881e-05 -6.58425e-19)
(0.000842054 -6.54714e-05 5.76215e-20)
(0.000828388 1.25833e-05 -1.47634e-19)
(0.0008157 1.96226e-05 2.22106e-19)
(0.000741397 -2.55806e-05 -1.384e-19)
(0.000527498 -0.00039302 7.94227e-19)
(0.000797464 -9.24033e-06 2.08e-18)
(0.00576831 0.00248888 9.86138e-19)
(0.000777326 -2.40585e-05 2.37669e-18)
(6.3932e-05 0.000179875 1.21697e-18)
(0.000886387 0.00126549 9.40296e-21)
(0.000782065 1.35203e-05 1.2884e-18)
(0.00154992 0.00234129 -7.86595e-19)
(0.000795615 3.52886e-05 -4.38147e-19)
(0.000147989 -0.000259568 2.57043e-22)
(0.00012994 0.000661651 7.05086e-19)
(0.0008392 1.83766e-05 -4.9247e-19)
(0.00201344 0.00038679 4.73404e-19)
(0.00133595 0.000300588 -2.47054e-19)
(0.000823957 2.02226e-05 3.68894e-19)
(0.00337369 0.00688335 -5.61006e-20)
(3.90887e-05 7.78743e-05 2.70719e-19)
(0.000815714 1.00656e-05 -4.44167e-19)
(1.95445e-05 -2.463e-05 3.58878e-19)
(0.000762369 2.26118e-05 0)
(8.90443e-05 0.000479316 1.59928e-19)
(0.000509307 3.37806e-05 -1.78876e-19)
(0.00073959 6.11333e-05 1.13506e-18)
(0.00082067 -9.05183e-06 5.8911e-19)
(6.92462e-05 2.64994e-08 -1.8011e-24)
(4.91367e-05 -5.55468e-05 3.52215e-19)
(4.80892e-05 -4.61383e-06 -4.63951e-20)
(5.70676e-05 -8.99584e-06 0)
(6.42093e-05 -1.5565e-05 1.12964e-18)
(0.0011597 0.000134181 1.80043e-19)
(4.18616e-05 -7.78613e-06 4.47194e-20)
(0.000815147 1.55575e-05 4.81878e-23)
(3.69868e-05 5.3284e-05 2.65973e-19)
(7.10933e-05 -0.000154116 -8.54254e-19)
(0.000530631 -0.000171205 9.5646e-19)
(3.49242e-05 -1.02285e-05 4.5487e-20)
(0.000793262 -8.42458e-06 -1.55564e-18)
(0.000817191 9.60027e-06 -6.78094e-19)
(2.54903e-05 -1.2298e-05 0)
(6.47979e-05 1.18699e-05 8.51942e-20)
(0.00133238 0.00451782 8.92099e-19)
(8.73312e-05 2.44886e-05 8.63684e-20)
(0.000786704 4.27516e-05 0)
(0.000361896 -0.000128736 6.78084e-19)
(0.000367173 0.000281456 5.11903e-21)
(0.000382317 8.00013e-05 -1.00393e-18)
(0.00635428 0.0109433 -7.61027e-19)
(0.00623236 0.0107967 1.55527e-20)
(0.00560808 0.0103676 1.45168e-18)
(0.000805087 -3.88995e-05 0)
(7.59394e-05 3.93854e-05 0)
(0.000329475 3.43455e-05 9.93551e-24)
(7.36267e-05 1.64444e-05 -3.46484e-19)
(0.00084977 -6.73702e-06 0)
(0.00060202 2.63168e-05 3.17642e-19)
(0.000798026 7.46791e-06 2.14844e-18)
(0.000762602 -3.1127e-06 -5.42291e-19)
(0.000752666 1.70934e-05 -3.12574e-19)
(0.00171 0.000537247 5.44223e-19)
(0.000786084 -4.31093e-06 -1.13355e-18)
(0.000803063 -9.68537e-08 -5.13531e-19)
(9.63452e-05 5.20845e-06 -1.73399e-19)
(0.000699227 0.00230199 0)
(0.000810459 6.63304e-06 0)
(0.000733972 1.92316e-05 -1.36132e-18)
(4.52553e-05 2.06094e-05 0)
(0.000279101 0.000277559 3.26832e-19)
(5.30153e-05 -2.15552e-05 0)
(5.22434e-05 -7.41784e-06 1.59485e-19)
(3.61319e-05 -5.89342e-05 -3.36646e-20)
(0.000757252 5.55359e-05 2.43561e-19)
(5.22793e-05 1.47819e-05 0)
(0.00077545 6.26911e-05 4.39488e-19)
(0.000741945 0.000301848 2.10755e-19)
(0.00095793 6.02456e-05 -3.98092e-20)
(5.04496e-05 2.90378e-05 -4.51898e-20)
(7.26206e-06 -4.67655e-05 0)
(0.000416226 0.000226069 1.70188e-19)
(1.78028e-06 3.7076e-05 0)
(0.000741388 1.64877e-06 -5.98142e-19)
(0.000545371 -0.000107674 0)
(7.68615e-05 3.33791e-06 -1.74489e-19)
(5.39329e-06 -6.20912e-05 0)
(0.000802232 0.0002454 -3.41337e-19)
(5.16998e-06 -2.92674e-05 0)
(0.000411 0.000323689 -1.19462e-23)
(0.000503823 0.000118222 0)
(0.000791215 4.32714e-05 1.7305e-24)
(3.00668e-06 2.5177e-05 -4.21744e-20)
(0.000428421 1.33937e-05 1.76387e-18)
(0.00101291 7.59309e-05 4.16218e-20)
(0.000988423 3.22783e-05 6.40727e-22)
(0.000718587 0.000647138 2.69076e-19)
(3.6264e-06 6.98778e-05 0)
(8.81426e-06 -0.000121691 -3.12263e-19)
(2.15064e-05 -0.000214029 -1.10093e-18)
(3.62335e-07 0.00010776 -5.95758e-19)
(0.000734224 -4.31075e-06 0)
(2.98344e-06 0.00013592 0)
(0.000785303 5.54251e-08 2.18503e-18)
(0.000748879 3.18872e-05 1.49472e-18)
(0.000394962 -2.94093e-05 0)
(5.69208e-05 0.000234858 -8.94147e-19)
(-1.25762e-06 0.000215606 4.95771e-19)
(8.83194e-05 0.000482427 6.25208e-19)
(0.000289101 0.000120886 -9.34592e-19)
(0.000812765 7.2202e-06 1.34704e-19)
(0.000268282 -4.20831e-07 5.31174e-19)
(2.31332e-06 4.98291e-05 0)
(4.70887e-05 0.000323163 -1.08842e-18)
(0.000310774 0.000329937 -1.61695e-19)
(8.67214e-06 -9.01037e-05 1.46565e-19)
(0.000641981 0.000776771 0)
(0.000354602 0.000391203 5.74389e-20)
(0.000799417 -9.50028e-07 1.05971e-18)
(0.000748132 -3.21017e-05 -2.68672e-18)
(8.77917e-06 -0.000161022 0)
(0.00076238 -1.33302e-05 -1.11321e-19)
(0.000317062 -5.04829e-05 1.24346e-18)
(0.00272427 0.000809662 -3.35212e-19)
(-4.01594e-06 0.000168086 -6.12552e-19)
(-1.58167e-05 0.000209117 1.61785e-18)
(0.000860757 1.83594e-05 -3.88776e-20)
(7.52762e-05 -5.61273e-06 -7.49684e-19)
(0.000775333 3.63523e-05 -3.88255e-19)
(0.000912353 2.86064e-05 -4.09893e-20)
(6.85499e-05 0.000386591 -5.96467e-19)
(0.000463816 8.53576e-05 -4.93967e-19)
(5.99129e-05 -1.76379e-06 1.56167e-19)
(0.000817525 -1.53657e-05 -1.05729e-18)
(0.00165632 0.000210477 -1.1373e-18)
(-1.97147e-07 8.36475e-05 4.95982e-19)
(0.000787923 -1.91722e-06 -5.0164e-19)
(0.000873902 0.000538611 -7.85132e-20)
(0.000133456 0.00086973 0)
(0.000548806 6.92272e-05 0)
(0.000266927 6.51971e-05 -1.60776e-18)
(6.9947e-05 6.7241e-05 -1.37418e-18)
(3.6646e-05 2.53969e-05 0)
(0.00411806 0.00750696 -9.59968e-21)
(0.00411553 0.00753846 3.64444e-20)
(0.00432145 0.00774002 -1.17299e-20)
(0.00420157 0.00772673 0)
(0.0042008 0.00760152 5.74058e-19)
(0.00412448 0.00754153 -8.58966e-20)
(0.00420727 0.00804962 4.82959e-19)
(0.00425896 0.00744066 0)
(0.00420928 0.00853471 6.14838e-19)
(0.00431589 0.00747308 2.11405e-19)
(0.000799757 -5.08028e-06 -1.35319e-18)
(0.000740374 5.8495e-05 0)
(0.00021978 7.49809e-05 1.27697e-19)
(5.86314e-05 2.1308e-05 8.71913e-20)
(8.59961e-05 5.3948e-05 6.80064e-19)
(0.000115506 5.17632e-05 -3.41687e-19)
(0.000110987 1.62017e-05 0)
(5.73903e-05 8.38757e-06 8.18368e-20)
(0.00020403 0.000148392 0)
(0.000173826 6.18789e-05 -5.24293e-20)
(0.000332734 0.000232713 -5.0924e-21)
(6.24585e-05 5.09959e-05 -4.37686e-19)
(0.000100093 3.72326e-05 -8.5253e-20)
(9.7854e-05 7.1874e-05 1.31201e-21)
(0.00024574 0.000371882 -6.66136e-19)
(0.000154085 0.00108786 0)
(4.80807e-05 5.97544e-05 3.43085e-19)
(0.00017217 0.00184196 0)
(0.000205655 0.000261602 7.04641e-19)
(4.65063e-05 -6.78063e-06 1.11322e-19)
(0.000461603 0.000171747 -1.72304e-19)
(0.000751616 2.78937e-05 -1.85141e-18)
(5.14863e-05 4.67529e-07 4.25943e-24)
(0.000158434 4.07118e-05 2.24575e-19)
(0.000237983 0.000112302 -8.99377e-20)
(0.000864981 0.00069908 3.34911e-19)
(0.000752703 0.00162696 -9.22132e-21)
(0.000410926 0.00136019 -9.43928e-21)
(0.00100453 0.000559786 0)
(0.000115951 -9.99851e-06 1.11884e-18)
(0.000128866 2.95885e-05 -4.43183e-20)
(0.000412319 -0.000231549 -1.13644e-18)
(0.000797391 3.63336e-05 0)
(0.000185074 3.45605e-05 3.62921e-19)
(0.000266325 0.00137412 0)
(0.001025 0.000738395 -7.30149e-20)
(0.000811847 4.59272e-05 -1.82387e-19)
(9.38241e-05 -1.77677e-05 -2.99983e-19)
(0.000799892 0.000305548 -2.08076e-20)
(7.98931e-05 -2.27868e-05 -5.98708e-19)
(0.000226281 0.00018565 8.6387e-20)
(0.000224865 0.000313146 -3.45002e-19)
(0.000862837 0.000236175 0)
(0.000782743 4.07577e-05 0)
(0.000258459 0.000154687 1.7685e-19)
(0.000235274 2.37979e-05 1.65094e-24)
(0.000185006 0.000215346 0)
(0.00028204 0.000640366 -5.55281e-21)
(0.000326875 2.25854e-05 0)
(0.000331495 0.000592017 0)
(0.000116685 9.43681e-05 -1.34678e-21)
(0.000805578 -1.20787e-05 -9.38415e-19)
(0.000819474 -1.93123e-05 7.71702e-19)
(0.000136005 7.17061e-05 -1.49863e-19)
(0.000932411 0.000150396 8.49893e-20)
(0.000817779 4.98775e-05 3.27644e-19)
(0.000786986 1.7756e-05 -2.93399e-19)
(0.000981686 0.00040304 0)
(0.000422643 0.000128951 6.24495e-19)
(0.000872876 0.000315697 2.09166e-20)
(0.000547454 0.000167423 0)
(0.000274594 0.000437378 4.09607e-19)
(0.000256514 0.000228788 -8.44167e-20)
(0.00108718 0.000382871 -7.82256e-19)
(0.000588548 0.000118914 -1.79321e-19)
(0.000782472 9.05585e-05 -7.36135e-21)
(0.000813913 2.66793e-05 9.29311e-20)
(0.000112638 -9.36127e-05 -1.98146e-18)
(0.000719442 0.000376493 2.19242e-19)
(0.000632639 7.07167e-05 2.30541e-20)
(0.000682971 0.000272393 1.50139e-23)
(0.000704897 0.000443926 -4.09479e-19)
(0.000826643 3.83834e-05 8.86091e-20)
(7.80428e-05 9.15865e-05 0)
(0.000632544 0.000419975 -4.6569e-20)
(0.00018522 0.000112777 0)
(0.000363815 0.000508497 -2.64771e-19)
(0.000309217 0.000181754 0)
(0.000652621 0.000205378 3.55287e-19)
(0.000625147 0.000270739 -4.37304e-20)
(8.34599e-05 0.000110723 6.18939e-19)
(0.000869351 0.000120078 -1.61778e-18)
(6.63602e-05 2.84199e-05 2.57211e-19)
(0.000873188 5.63888e-05 -1.65017e-18)
(0.00079185 5.26001e-05 1.60762e-19)
(0.000786155 4.65948e-06 1.92995e-18)
(0.000786014 9.66444e-07 -1.30084e-19)
(0.000689723 7.46136e-05 0)
(0.000830399 3.13714e-05 8.75167e-19)
(0.000921919 0.000239637 -4.27189e-19)
(0.000743091 7.40981e-05 -4.79662e-19)
(0.000756522 0.000229801 -8.80929e-20)
(0.000245762 -0.000101356 -2.07933e-18)
(0.000710687 9.44344e-05 8.87456e-19)
(0.000621229 0.000590076 0)
(0.000133748 -9.44952e-05 0)
(0.00117477 0.000465135 4.9669e-19)
(0.000804064 -0.000138879 -3.23162e-18)
(0.00127633 0.000415637 5.74257e-19)
(0.00126601 0.000713621 -6.38497e-20)
(0.000784475 5.64411e-05 -2.10676e-19)
(0.000809701 7.9109e-05 -1.40353e-18)
(0.000793332 4.13403e-05 1.57104e-18)
(0.000786609 -2.19688e-07 9.56961e-20)
(0.000657495 0.000342304 -4.40441e-20)
(0.000109006 0.000144011 1.57338e-23)
(0.000703896 -6.69391e-05 2.65133e-19)
(0.000256045 -0.00018308 -7.36519e-19)
(0.000598074 0.000192692 0)
(0.000669572 2.10303e-05 9.90385e-20)
(0.000649382 7.94835e-06 -3.80893e-19)
(0.000375004 0.000182383 3.9295e-20)
(0.000768446 0.000497214 -1.65479e-19)
(0.000156741 9.11938e-05 2.28757e-25)
(0.000794553 0.000388448 0)
(0.000951227 0.000321629 4.15847e-20)
(0.000718725 -0.00010672 -6.16397e-19)
(0.000335477 0.000115346 4.97032e-19)
(0.000880683 0.000417234 0)
(5.68624e-05 3.79255e-05 1.33721e-19)
(0.000463691 0.000273549 2.13953e-19)
(0.000437474 -8.22558e-05 -7.09237e-19)
(0.000189226 -0.000128768 -1.05909e-18)
(0.000787514 -2.95948e-06 -4.72793e-19)
(0.000802004 -0.000112263 -1.92751e-19)
(0.000562813 0.000721004 -1.16964e-18)
(0.000824294 5.41478e-05 -6.62541e-20)
(0.000768623 -5.7911e-05 1.25809e-18)
(0.00065805 9.86508e-05 2.2783e-20)
(0.000506898 0.000220452 -1.65685e-19)
(4.39773e-05 -2.61257e-05 -8.7588e-20)
(0.000202003 -2.18027e-05 2.40306e-18)
(3.33885e-05 9.64125e-07 -1.94808e-19)
(0.00077219 7.8179e-05 3.5998e-19)
(0.000628474 0.000142122 0)
(0.000207164 -4.6661e-05 -1.0479e-18)
(0.000132989 4.99956e-06 3.12527e-19)
(0.000137892 -3.14427e-05 -2.9017e-24)
(0.000777627 0.000118026 -3.18455e-19)
(0.000160976 -3.20962e-06 0)
(0.000564185 0.00024448 0)
(0.000111493 0.000340752 -3.62837e-19)
(0.000838134 0.000116336 2.0957e-18)
(2.72021e-05 1.78082e-06 0)
(0.000828868 2.15912e-05 0)
(5.59863e-05 -2.68879e-05 0)
(0.000816187 2.3103e-05 -4.37538e-21)
(0.000812986 -6.73784e-05 0)
(0.00414945 0.00744748 7.91317e-20)
(0.00437078 0.00753272 1.37413e-19)
(0.000836268 9.04094e-06 0)
(0.000744911 -6.13594e-05 8.12969e-19)
(0.000154463 0.000138599 1.4921e-19)
(0.000855847 7.42386e-05 7.87817e-19)
(0.000135635 0.000115531 2.34406e-20)
(0.000743598 -5.79086e-05 6.27309e-19)
(4.18703e-05 1.30095e-05 0)
(3.87893e-05 -1.80676e-05 -4.48516e-20)
(0.000862377 6.09519e-05 -4.78915e-19)
(4.90362e-05 -3.6813e-05 -6.69657e-19)
(0.000733156 0.000125205 -4.22488e-20)
(0.000167731 0.000174841 -1.881e-19)
(0.000802536 1.0131e-05 0)
(0.00465577 0.00825807 1.09028e-21)
(0.000162651 0.000777313 3.33702e-19)
(0.00013927 -4.60249e-05 -9.14011e-19)
(7.73022e-05 -3.5448e-05 -1.16876e-18)
(0.000794383 2.03676e-05 1.89517e-20)
(0.000562699 0.00041581 0)
(0.00039376 0.000430487 -2.56127e-19)
(0.000117038 -4.86154e-05 1.18363e-18)
(0.000752978 4.426e-06 7.70347e-20)
(5.0218e-05 2.43499e-06 4.07078e-19)
(0.000635079 -5.76393e-05 1.17194e-18)
(0.00079625 1.95707e-05 -6.00023e-19)
(9.39278e-05 -5.4287e-05 1.70903e-18)
(0.000828968 5.84704e-06 -1.54842e-24)
(0.000769535 1.31027e-05 -3.76666e-20)
(0.000846232 6.04505e-05 0)
(0.000787721 4.08539e-05 0)
(0.00593034 0.00722533 2.57928e-19)
(3.4892e-05 2.60011e-06 -1.19552e-19)
(0.00018623 -7.19952e-05 7.72374e-19)
(0.000704211 0.000118938 -6.9663e-19)
(3.9571e-05 -1.01175e-06 2.01427e-19)
(0.00056245 -1.83063e-05 -7.23974e-19)
(0.000706242 8.43758e-06 1.53986e-18)
(0.00068 0.000153632 -3.55492e-19)
(0.000796675 -3.40066e-05 3.54667e-19)
(0.000100939 -2.77957e-05 1.11612e-18)
(0.000749932 1.02695e-05 -3.19245e-19)
(0.000843579 5.73877e-05 0)
(0.000522521 0.000303036 4.21038e-20)
(0.000843047 3.48663e-05 -9.18361e-19)
(3.43633e-05 -1.99113e-06 9.10769e-19)
(0.000810742 2.61788e-05 9.4029e-19)
(0.000818914 -3.23649e-05 -9.6328e-19)
(0.000690619 1.69674e-05 -5.67317e-19)
(0.000478841 -4.45421e-05 -5.25757e-19)
(0.00434214 0.00748955 2.2665e-19)
(0.00418588 0.00753957 -2.78985e-19)
(0.00421841 0.00759981 2.65469e-19)
(0.00413212 0.00746357 2.44038e-19)
(0.000839579 -6.047e-07 1.43729e-19)
(0.00446803 0.0075074 0)
(0.00439848 0.0075633 -3.78376e-19)
(5.10354e-05 -4.52265e-07 -9.96377e-19)
(0.00410784 0.00740569 -6.23913e-20)
(0.00411589 0.00739608 -2.67406e-19)
(0.00602296 0.0105994 0)
(0.00657718 0.0110392 3.92007e-20)
(0.00600094 0.0105663 0)
(0.00658918 0.0109896 1.51808e-19)
(0.00598268 0.0105849 2.69104e-19)
(0.00657801 0.0109617 1.7743e-20)
(0.00593133 0.0106066 -7.74696e-19)
(0.00660241 0.0108347 1.33437e-20)
(0.00390874 0.00921306 -1.90752e-19)
(0.00410177 0.0074434 4.16562e-21)
(0.00420704 0.007562 7.95935e-20)
(0.00412145 0.00742847 4.08063e-20)
(0.000846441 0.000176046 4.44521e-20)
(1.99579e-05 2.55872e-06 0)
(0.000642424 -0.000154448 0)
(0.00075772 3.03072e-05 0)
(0.00245438 0.0010689 4.26592e-21)
(0.000707694 -1.93182e-05 1.7111e-19)
(4.87339e-05 8.50106e-06 4.54106e-20)
(2.292e-05 -3.35956e-05 1.65246e-18)
(0.000836928 2.76734e-05 0)
(3.3781e-05 1.65993e-05 -1.91742e-19)
(0.000146551 0.000232901 0)
(3.59621e-05 -1.31497e-06 0)
(2.98503e-05 -2.10035e-06 0)
(0.000794266 0.000130065 1.12981e-20)
(0.000823071 8.84808e-06 1.75915e-19)
(3.46239e-05 0.000327216 2.27307e-23)
(0.000162088 0.00027879 -1.84189e-18)
(0.000588669 0.000341261 -8.57023e-20)
(0.000880803 0.000125399 6.02775e-19)
(0.000718885 -0.000455184 6.63767e-19)
(0.000316258 0.0011075 0)
(0.000457394 0.000545695 2.71426e-18)
(9.94629e-05 0.000153772 -1.79867e-18)
(4.22194e-05 5.19318e-07 0)
(0.00083648 -1.64632e-05 3.60806e-20)
(2.17346e-05 4.51256e-05 1.64462e-18)
(0.000891374 2.59733e-05 2.71357e-19)
(8.25426e-05 -0.000241358 3.7796e-18)
(0.000919602 4.27505e-05 -2.6916e-19)
(0.00143482 0.000105486 7.46743e-19)
(4.71075e-05 -1.30801e-05 8.2579e-20)
(4.58982e-05 9.03853e-06 -8.58379e-19)
(4.66175e-05 0.000160971 0)
(0.000880365 9.6881e-05 5.98734e-19)
(0.000480232 0.000372043 2.37132e-19)
(0.000819449 1.67752e-05 -3.87725e-20)
(0.000739433 -1.86514e-05 2.54627e-19)
(0.000688898 -0.000236243 0)
(0.00632687 0.0109019 -1.66111e-19)
(0.00640873 0.0109728 4.0107e-19)
(0.00617191 0.0107237 -6.13503e-19)
(0.00657822 0.0110802 -6.67316e-20)
(4.32104e-05 0.000122983 8.00026e-19)
(0.000880975 5.56417e-05 1.58405e-22)
(0.00645394 0.0110085 -3.8182e-19)
(0.00628501 0.010857 5.42188e-19)
(0.00608386 0.0106641 -4.16561e-19)
(0.00658873 0.0110682 -5.67453e-20)
(9.78492e-05 0.000582323 -2.0198e-20)
(0.000180952 -0.000176029 -7.92722e-19)
(0.000802481 -2.95481e-06 -7.58744e-19)
(0.000704869 0.000218202 0)
(0.000757812 -2.27651e-06 0)
(0.000184801 0.000392847 3.36283e-19)
(0.00060132 0.000567295 -5.41465e-19)
(2.22475e-05 -3.10219e-06 1.78416e-19)
(0.000211161 0.000463189 -7.38355e-19)
(0.00100066 0.000969208 -1.12695e-19)
(0.000721021 0.000173386 0)
(0.000767625 0.000165889 1.30979e-19)
(0.00636828 0.0058754 1.12626e-18)
(0.000692805 0.00113777 8.27884e-20)
(4.56288e-05 4.51194e-05 -7.44766e-20)
(0.00081597 4.99942e-05 0)
(0.000868299 1.71834e-05 -3.5706e-20)
(4.47631e-05 6.5858e-06 -1.96628e-19)
(3.85798e-05 8.03214e-06 1.92945e-19)
(0.000812998 1.74302e-05 5.32909e-19)
(0.000954091 0.000106679 6.58477e-19)
(0.000716663 5.49028e-05 0)
(0.000233155 -0.000280214 -3.9857e-19)
(0.000881378 0.000138837 3.88494e-19)
(4.09063e-05 -8.61032e-05 2.03075e-19)
(0.00146293 0.000371438 -2.57571e-18)
(0.000738963 5.87549e-07 0)
(0.000773289 0.000135386 3.75579e-19)
(9.04102e-05 0.000408983 0)
(0.00118411 0.00817568 4.61487e-19)
(0.000460275 0.000510623 -1.22331e-18)
(0.000532775 0.000964133 -1.83734e-19)
(0.000859119 2.65329e-05 -1.45061e-19)
(2.00137e-05 3.16982e-05 0)
(0.000906549 7.2658e-05 6.10349e-19)
(0.00409532 0.00744269 8.01699e-20)
(0.00409967 0.00741989 4.61132e-20)
(0.00449532 0.00749686 4.52055e-19)
(0.00442449 0.00758857 -3.27722e-19)
(0.0065702 0.0110799 7.95757e-20)
(0.00389849 0.00734572 4.29139e-21)
(0.00551223 0.00778873 -5.63061e-19)
(0.00409647 0.00754132 4.93792e-21)
(0.00518938 0.00783919 5.09665e-19)
(0.00407778 0.00747775 -4.49922e-20)
(0.00494857 0.00770246 0)
(0.00407605 0.00746507 -7.22721e-20)
(0.00473137 0.0075712 4.91093e-19)
(0.00408888 0.00745751 8.22172e-20)
(0.00455933 0.00750648 0)
(0.00420314 0.00742994 1.61371e-19)
(0.00424113 0.00761556 5.7696e-19)
(0.00445872 0.00756432 -5.60441e-19)
(0.00439275 0.00755233 3.6814e-19)
(0.00414934 0.00751472 3.19254e-19)
(0.00650335 0.0110411 -5.48259e-21)
(0.00411208 0.0074365 2.72065e-20)
(0.00654177 0.0110655 0)
(3.14476e-05 9.71525e-06 -1.89878e-19)
(0.00197688 0.00652074 2.28068e-19)
(0.000842237 -3.87781e-06 1.09331e-19)
(0.000851772 1.99243e-05 0)
(4.15851e-06 4.38241e-06 -3.99154e-19)
(9.40193e-05 -0.000205148 6.9108e-19)
(2.38455e-05 6.71087e-05 2.08583e-18)
(0.000803646 0.000190333 -9.01031e-20)
(0.000745616 8.6926e-06 6.98204e-19)
(4.74362e-06 -5.07376e-06 3.10029e-19)
(2.83393e-05 -4.66733e-05 -1.84534e-18)
(0.000723941 1.83824e-05 1.6147e-19)
(0.000836308 0.000123625 -3.02687e-20)
(0.000741794 -5.14422e-06 1.46647e-19)
(0.000412455 0.000648486 0)
(0.000133363 -0.000151991 1.15176e-18)
(0.00083557 2.00516e-05 1.51054e-19)
(2.45209e-05 2.97293e-05 0)
(0.0001019 0.000563358 -6.3109e-19)
(0.000608322 0.000592114 1.30992e-18)
(0.000341497 0.000725014 0)
(0.000737771 -1.1452e-05 0)
(0.000749267 4.99298e-05 1.15832e-18)
(2.5816e-05 5.38647e-05 -3.51321e-18)
(2.26864e-05 1.13475e-05 3.73659e-19)
(0.000112353 0.000157387 0)
(6.60809e-05 -4.55239e-05 0)
(7.34718e-05 0.000124105 2.00879e-19)
(0.000898758 0.000174237 3.49512e-19)
(0.000790944 -2.45449e-05 -1.36837e-18)
(2.78367e-05 4.08392e-05 0)
(0.000605436 7.94133e-05 -6.00735e-20)
(0.000756107 2.4986e-05 -1.54733e-19)
(0.000833845 9.98314e-06 1.02979e-18)
(0.000252048 0.000546409 6.32116e-19)
(0.000825856 0.000140547 0)
(3.42768e-05 -3.3737e-05 5.3873e-19)
(4.73294e-06 -1.63865e-05 -3.1996e-19)
(0.00113029 1.49666e-06 0)
(0.000949789 0.00218397 0)
(0.00105326 -8.73549e-05 0)
(0.000973127 0.00019126 4.27306e-19)
(0.000832842 -1.23425e-05 -2.81529e-19)
(0.000889999 0.000125135 -6.8391e-19)
(0.000752328 1.16262e-05 0)
(4.51463e-05 7.95846e-05 -1.71585e-19)
(0.000172718 0.000331388 1.08112e-18)
(0.00077525 4.21004e-05 2.20792e-23)
(0.0010632 0.000180943 -6.69197e-19)
(0.0010737 0.000117217 0)
(3.86937e-06 1.41422e-05 2.51056e-19)
(2.75703e-05 -2.22921e-05 -1.94334e-19)
(0.000700558 3.42593e-05 6.87983e-21)
(5.37957e-05 -0.000116023 0)
(0.00102059 0.000254132 9.50643e-19)
(0.00501804 0.00974265 -2.82408e-19)
(0.00311056 0.00962983 1.27019e-18)
(9.39207e-05 -0.000123141 -1.91376e-19)
(9.01464e-05 -8.5079e-05 1.85984e-18)
(0.00118604 0.000221154 1.67168e-19)
(0.00129028 0.00105064 2.34047e-19)
(0.000825811 1.27364e-05 -7.26635e-19)
(0.000217004 0.000929231 -2.3887e-19)
(0.000774943 0.000875298 -2.18562e-19)
(0.000759047 -1.66719e-05 0)
(0.00010707 0.000712092 0)
(9.92987e-05 0.000287773 -5.03412e-23)
(0.000778715 -1.68724e-05 -2.33626e-23)
(0.000811769 5.17048e-06 1.51093e-19)
(0.0026181 0.00201306 -1.22866e-18)
(0.00175615 0.00925099 -1.16938e-19)
(0.000803259 3.04477e-05 4.843e-19)
(0.00635916 0.00403723 -1.7476e-19)
(0.0067098 0.0111871 -1.6742e-20)
(0.00468455 0.00800184 6.32793e-21)
(0.000794075 5.96163e-05 -2.14559e-18)
(0.0008147 3.95639e-05 -1.20143e-23)
(1.70207e-05 -1.31994e-05 -3.48004e-19)
(4.98193e-05 0.000101672 -3.49313e-19)
(8.59657e-05 0.000285338 8.7602e-19)
(1.69981e-05 2.16267e-05 4.90456e-19)
(9.21476e-05 0.000242748 3.69773e-19)
(0.000816496 4.33748e-05 0)
(0.00532099 0.00937157 1.4813e-20)
(0.00147219 0.000623946 -2.61741e-20)
(0.000822503 2.0171e-05 3.55615e-19)
(7.0471e-05 -9.80262e-05 0)
(0.00187167 0.000717615 5.44818e-19)
(1.49255e-05 1.20458e-05 -2.70186e-19)
(4.05811e-05 3.54904e-05 9.71933e-20)
(0.0013186 0.00139263 6.37087e-19)
(0.000777825 2.90234e-05 1.80919e-19)
(1.41514e-05 -3.77858e-06 -1.70227e-19)
(0.00202679 0.00154012 -1.05452e-18)
(0.000129494 0.000190577 -8.18362e-19)
(0.00392226 0.00847497 -1.08852e-18)
(1.25914e-05 3.30199e-06 8.81526e-20)
(0.000218754 -0.000381355 -1.23917e-18)
(6.99481e-05 -6.14352e-05 4.05703e-20)
(0.00147073 0.0009469 0)
(0.00100772 0.000143849 -4.34869e-22)
(0.000431147 0.000856261 -4.02147e-20)
(0.000813091 1.93098e-05 -2.31347e-19)
(8.62634e-05 0.000198269 7.34805e-19)
(5.80203e-05 -7.4493e-05 4.04091e-19)
(2.33471e-05 2.00221e-05 -9.47211e-20)
(4.09157e-05 0.000107348 -3.20262e-19)
(0.000192173 -0.00036326 -5.36922e-19)
(0.00323555 0.00341974 2.68639e-21)
)
;

boundaryField
{
    back
    {
        type            empty;
    }
    ingreso
    {
        type            fixedValue;
        value           uniform (0.0008 0 0);
    }
    salida
    {
        type            zeroGradient;
    }
    front
    {
        type            empty;
    }
    defaultFaces
    {
        type            noSlip;
    }
}


// ************************************************************************* //
