/*--------------------------------*- C++ -*----------------------------------*\
  =========                 |
  \\      /  F ield         | OpenFOAM: The Open Source CFD Toolbox
   \\    /   O peration     | Website:  https://openfoam.org
    \\  /    A nd           | Version:  7
     \\/     M anipulation  |
\*---------------------------------------------------------------------------*/
FoamFile
{
    version     2.0;
    format      ascii;
    class       volVectorField;
    location    "93.5";
    object      U;
}
// * * * * * * * * * * * * * * * * * * * * * * * * * * * * * * * * * * * * * //

dimensions      [0 1 -1 0 0 0 0];

internalField   nonuniform List<vector> 
591
(
(0.000835797 -9.32497e-06 1.21659e-18)
(0.000830601 -8.98559e-06 -6.6228e-19)
(0.000855035 1.36108e-05 5.70451e-20)
(0.000866325 -2.25701e-05 -1.49033e-19)
(0.000853434 -7.95863e-06 2.25465e-19)
(0.00080347 -3.89674e-05 -1.39578e-19)
(0.000565045 -0.000237393 8.05975e-19)
(0.000803851 4.42572e-06 2.1042e-18)
(0.00572586 0.0025094 9.87933e-19)
(0.000812496 -3.92868e-06 2.4474e-18)
(4.64428e-05 0.000162307 1.21795e-18)
(0.000937946 0.00139166 9.40731e-21)
(0.000801056 4.18101e-06 1.32268e-18)
(0.00160227 0.00240309 -7.87375e-19)
(0.000803326 1.52221e-06 -4.46097e-19)
(4.77046e-05 -0.000162493 2.27024e-22)
(0.000140225 0.000671485 7.04809e-19)
(0.00081771 7.8127e-05 -4.96907e-19)
(0.00190181 0.000392387 4.73776e-19)
(0.00135992 0.000255405 -2.47061e-19)
(0.000831986 -8.62432e-06 3.73106e-19)
(0.00340039 0.00655971 -8.14669e-20)
(2.38597e-05 6.49738e-05 2.70875e-19)
(0.000836161 -2.41507e-05 -4.51489e-19)
(7.11146e-06 -1.20422e-05 3.58821e-19)
(0.00078873 4.10946e-05 0)
(9.44036e-05 0.000468369 1.59932e-19)
(0.000568257 2.85023e-07 -1.78784e-19)
(0.000762983 4.68355e-05 1.14914e-18)
(0.000807179 6.79838e-05 5.84777e-19)
(5.05909e-05 -5.26721e-06 -4.95926e-24)
(2.36045e-05 -4.02846e-05 3.52077e-19)
(2.9661e-05 -2.62859e-06 -4.64093e-20)
(3.8989e-05 -1.22265e-05 0)
(4.76773e-05 -1.28881e-05 1.13114e-18)
(0.00117156 0.000138739 1.79851e-19)
(2.49821e-05 -4.37732e-06 4.4702e-20)
(0.000824544 5.82867e-07 3.15281e-23)
(2.37621e-05 3.92623e-05 2.65956e-19)
(-4.04279e-06 -6.80204e-05 -8.53556e-19)
(0.000657011 -0.000194693 9.58821e-19)
(1.9463e-05 -5.23173e-06 4.54698e-20)
(0.000811779 1.50017e-05 -1.58034e-18)
(0.000832224 4.93119e-05 -6.90947e-19)
(1.26747e-05 -5.92946e-06 0)
(4.92326e-05 4.35632e-06 8.51634e-20)
(0.00134847 0.00450316 8.92825e-19)
(6.93145e-05 1.1306e-05 8.63387e-20)
(0.000802241 1.64286e-05 0)
(0.000392493 -0.000228357 6.77056e-19)
(0.000388711 0.000267502 5.11787e-21)
(0.00040238 3.51527e-05 -1.0035e-18)
(0.00634761 0.0109405 -7.68628e-19)
(0.00622446 0.0107956 1.52871e-20)
(0.00561435 0.0103784 1.45585e-18)
(0.000806171 4.45228e-05 0)
(6.20065e-05 2.61719e-05 0)
(0.000319562 -3.23014e-06 2.39338e-23)
(5.6943e-05 7.24282e-06 -3.46363e-19)
(0.000812608 -7.1562e-06 0)
(0.000658476 2.85542e-05 3.17463e-19)
(0.000843953 2.42411e-05 2.20742e-18)
(0.000809727 3.77801e-05 -5.38082e-19)
(0.000800071 1.1967e-05 -3.15663e-19)
(0.00171332 0.000487872 5.42554e-19)
(0.000808856 2.95417e-05 -1.14842e-18)
(0.000837012 3.34325e-05 -5.23984e-19)
(7.18805e-05 -6.54195e-06 -1.73363e-19)
(0.000689738 0.00225928 0)
(0.000844428 4.775e-05 0)
(0.000790053 2.45043e-05 -1.39263e-18)
(3.42229e-05 1.36542e-05 0)
(0.000292518 0.000264354 3.26766e-19)
(3.34912e-05 -1.5627e-05 0)
(3.5441e-05 -5.55324e-06 1.59428e-19)
(7.40885e-06 -3.61207e-05 -3.36573e-20)
(0.000801275 7.88048e-05 2.46886e-19)
(3.97193e-05 8.6058e-06 0)
(0.000810413 5.54191e-05 4.47409e-19)
(0.000780629 0.000294962 2.10668e-19)
(0.000961474 6.72575e-05 -3.97726e-20)
(3.89409e-05 1.98854e-05 -4.51737e-20)
(3.85114e-06 -1.33045e-05 0)
(0.000441568 0.000211614 1.7014e-19)
(2.71766e-06 1.7239e-05 0)
(0.000804773 4.59144e-05 -6.07387e-19)
(0.000640807 -0.000116518 0)
(5.77351e-05 -4.30482e-06 -1.74432e-19)
(1.29805e-06 -1.85115e-05 0)
(0.00083526 0.000241504 -3.41159e-19)
(2.29277e-06 -7.52074e-06 0)
(0.000431032 0.00032017 -1.34443e-23)
(0.000542593 0.000108299 0)
(0.00081505 4.37821e-05 -3.04409e-24)
(2.25579e-06 1.03797e-05 -4.21595e-20)
(0.00047016 -2.60115e-05 1.76299e-18)
(0.0010193 7.30824e-05 4.15886e-20)
(0.000790874 4.68275e-05 6.41454e-22)
(0.000746469 0.000659332 2.6943e-19)
(6.90089e-06 4.02642e-05 0)
(-5.45691e-06 -2.22107e-05 -3.12152e-19)
(-3.65136e-05 -2.84782e-05 -1.1018e-18)
(4.93108e-06 6.63448e-05 -5.96204e-19)
(0.000596433 -2.78268e-05 0)
(9.05465e-06 8.98674e-05 0)
(0.000819724 3.32694e-05 2.18165e-18)
(0.000798929 3.48251e-05 1.53384e-18)
(0.000447019 -0.000108201 0)
(3.93693e-05 0.00020903 -8.95122e-19)
(1.00166e-06 0.000153364 4.96745e-19)
(5.67655e-05 0.000392805 6.25112e-19)
(0.000310624 6.80767e-05 -9.3693e-19)
(0.000801957 2.00039e-05 1.37377e-19)
(0.000257638 -6.69916e-05 5.31068e-19)
(4.21469e-06 2.56206e-05 0)
(1.897e-05 0.000271208 -1.09387e-18)
(0.000325369 0.000319151 -1.61665e-19)
(-1.59398e-06 -1.70509e-05 1.46526e-19)
(0.000669891 0.000807318 0)
(0.00037373 0.000381948 5.74272e-20)
(0.00082418 2.74557e-05 1.07035e-18)
(0.000799721 1.72151e-06 -2.72401e-18)
(6.25369e-06 3.52454e-06 0)
(0.000660448 -4.0293e-05 -1.12278e-19)
(0.00032352 -0.000145114 1.24284e-18)
(0.00262361 0.000810268 -3.36491e-19)
(7.80503e-06 0.000119177 -6.13098e-19)
(8.20584e-06 0.000147228 1.61938e-18)
(0.000664408 2.52055e-05 -3.89701e-20)
(5.53643e-05 -1.60649e-05 -7.49955e-19)
(0.000811243 3.78028e-05 -3.89821e-19)
(0.000714718 2.73917e-05 -4.10419e-20)
(3.20846e-05 0.000317919 -5.97003e-19)
(0.000501135 5.37631e-05 -4.93795e-19)
(4.22431e-05 -4.25013e-06 1.56108e-19)
(0.000841178 3.97017e-05 -1.08858e-18)
(0.00153392 0.000234722 -1.13657e-18)
(5.09045e-06 5.33542e-05 4.96294e-19)
(0.000812916 3.61777e-05 -5.0338e-19)
(0.000923327 0.000552761 -7.84889e-20)
(0.000149458 0.000780229 0)
(0.00059864 6.26678e-05 0)
(0.000277969 4.20468e-05 -1.60911e-18)
(5.93191e-05 5.28923e-05 -1.37372e-18)
(2.74319e-05 1.78428e-05 0)
(0.00424761 0.00740067 -1.01972e-20)
(0.00422574 0.00737234 3.16647e-20)
(0.00442791 0.00757509 -4.98239e-21)
(0.00420574 0.00773356 0)
(0.00419821 0.00759936 5.77251e-19)
(0.00424459 0.00740181 -9.20362e-20)
(0.00420947 0.008041 4.84483e-19)
(0.00429031 0.00742309 0)
(0.00420784 0.00853386 6.1679e-19)
(0.00432687 0.00745173 2.23951e-19)
(0.000833867 2.01875e-05 -1.37248e-18)
(0.000782091 6.04333e-05 0)
(0.000210802 4.00113e-05 1.27668e-19)
(4.53066e-05 1.27122e-05 8.71603e-20)
(7.30337e-05 3.86385e-05 6.79834e-19)
(9.96887e-05 3.34273e-05 -3.41576e-19)
(9.1818e-05 -1.32988e-06 0)
(4.24432e-05 3.01844e-06 8.18142e-20)
(0.000207694 0.000121944 0)
(0.000160654 2.95222e-05 -5.2418e-20)
(0.00034764 0.000215369 -5.0913e-21)
(5.16803e-05 3.7981e-05 -4.37534e-19)
(8.44035e-05 2.05301e-05 -8.52238e-20)
(8.58464e-05 5.47639e-05 1.31159e-21)
(0.00026111 0.000360277 -6.66018e-19)
(0.000109921 0.000991679 0)
(3.8847e-05 4.76458e-05 3.42968e-19)
(0.000199405 0.00174201 0)
(0.000208789 0.000246512 7.0449e-19)
(3.14715e-05 -3.04897e-06 1.11464e-19)
(0.000492989 0.000159845 -1.72257e-19)
(0.000774393 2.66915e-05 -1.92359e-18)
(3.70819e-05 -1.70528e-06 4.71554e-24)
(0.000140956 1.42438e-05 2.24531e-19)
(0.000246329 8.08209e-05 -8.99091e-20)
(0.000882783 0.000696199 3.34862e-19)
(0.000727794 0.00163456 -9.23303e-21)
(0.000397805 0.00141914 -9.38352e-21)
(0.00103003 0.000547147 0)
(9.15339e-05 -2.04876e-05 1.1184e-18)
(0.00010772 6.17485e-06 -4.42881e-20)
(0.000471414 -0.000273438 -1.13602e-18)
(0.000823897 4.32208e-05 0)
(0.000175958 -1.46031e-05 3.63212e-19)
(0.000304971 0.001298 0)
(0.00108871 0.000774384 -7.3002e-20)
(0.000827163 2.85269e-05 -1.86497e-19)
(6.67793e-05 -2.37073e-05 -2.99895e-19)
(0.000840477 0.000315065 -2.07988e-20)
(4.58347e-05 -2.1177e-05 -5.99321e-19)
(0.000227654 0.000166556 8.63667e-20)
(0.000231808 0.000304391 -3.44927e-19)
(0.000896876 0.000252577 0)
(0.000825399 5.69763e-05 0)
(0.000266788 0.000123683 1.76802e-19)
(0.000232434 -1.54791e-05 6.51081e-24)
(0.000185 0.000198433 0)
(0.000305959 0.000646218 -5.55573e-21)
(0.000360542 -2.7738e-05 0)
(0.000381996 0.000598218 0)
(0.000104405 7.40763e-05 -1.34634e-21)
(0.000810692 3.12577e-05 -9.57109e-19)
(0.000805513 1.76178e-05 7.9755e-19)
(0.000123875 4.8007e-05 -1.49816e-19)
(0.000971501 0.000146109 8.50157e-20)
(0.000840939 3.88339e-05 3.33543e-19)
(0.000822004 3.41457e-05 -2.94001e-19)
(0.00103204 0.000420479 0)
(0.000447519 0.00010984 6.24258e-19)
(0.000911921 0.000323382 2.09078e-20)
(0.000591003 0.000151011 0)
(0.000274601 0.000444377 4.09548e-19)
(0.000263013 0.000209173 -8.43971e-20)
(0.00110328 0.000383952 -7.81894e-19)
(0.000638757 0.000102513 -1.79238e-19)
(0.000820893 7.60509e-05 -7.45759e-21)
(0.000845399 2.40396e-05 9.40001e-20)
(5.55083e-05 -8.57278e-05 -1.98077e-18)
(0.000745582 0.000379714 2.19178e-19)
(0.000684068 6.86206e-05 2.30579e-20)
(0.000715733 0.000279084 1.62108e-23)
(0.000739271 0.000461437 -4.09578e-19)
(0.000852811 1.76709e-05 9.06802e-20)
(6.82956e-05 7.24571e-05 0)
(0.000662976 0.000424364 -4.65799e-20)
(0.000181834 8.43986e-05 0)
(0.000374285 0.000501651 -2.64778e-19)
(0.000312122 0.000158395 0)
(0.000684413 0.000205758 3.55123e-19)
(0.000658999 0.000259479 -4.37129e-20)
(7.94187e-05 9.77249e-05 6.18988e-19)
(0.000884851 9.69257e-05 -1.63856e-18)
(5.2445e-05 1.81243e-05 2.5712e-19)
(0.000897506 7.37427e-05 -1.68605e-18)
(0.000848751 9.07694e-05 1.63021e-19)
(0.000814304 3.69009e-05 1.91216e-18)
(0.000822008 3.34209e-05 -1.32807e-19)
(0.000745512 7.06146e-05 0)
(0.00080534 2.00022e-05 8.95358e-19)
(0.000972158 0.000236833 -4.26968e-19)
(0.000787468 0.000100147 -4.83591e-19)
(0.000783036 0.000237152 -8.80958e-20)
(0.000197037 -0.000192665 -2.07532e-18)
(0.000762165 8.11734e-05 8.87269e-19)
(0.000643754 0.000592064 0)
(6.16236e-05 -0.000122234 0)
(0.00122941 0.000475502 4.97151e-19)
(0.000558904 -5.70286e-05 -3.27075e-18)
(0.00135451 0.000416693 5.76296e-19)
(0.00125371 0.000719249 -6.3883e-20)
(0.000816835 3.39367e-05 -2.12693e-19)
(0.000843261 6.67872e-05 -1.42754e-18)
(0.000814671 2.77899e-05 1.58703e-18)
(0.000815444 2.13358e-05 9.77747e-20)
(0.000674956 0.000353471 -4.40283e-20)
(9.90717e-05 0.000114296 7.96399e-24)
(0.000764474 -3.0215e-05 2.64927e-19)
(0.000208695 -0.0002614 -7.31151e-19)
(0.000638426 0.00018288 0)
(0.000724243 5.08863e-05 9.90083e-20)
(0.000717318 9.59355e-06 -3.80691e-19)
(0.00039611 0.000163822 3.93259e-20)
(0.000812465 0.000510164 -1.65433e-19)
(0.000145102 6.55208e-05 3.83577e-25)
(0.000819484 0.000413182 0)
(0.000988841 0.000315756 4.15644e-20)
(0.0007685 -6.30605e-05 -6.15959e-19)
(0.000354852 9.47211e-05 4.97691e-19)
(0.000905161 0.000427922 0)
(4.4902e-05 2.73419e-05 1.33673e-19)
(0.000493856 0.000262115 2.13893e-19)
(0.00054355 -0.000169906 -7.09224e-19)
(9.73304e-05 -0.000174685 -1.05562e-18)
(0.000826851 3.99246e-05 -4.86568e-19)
(0.000762207 -6.59188e-05 -1.9448e-19)
(0.000549826 0.000729119 -1.17411e-18)
(0.000854994 4.64766e-05 -6.74418e-20)
(0.00057217 -1.165e-05 1.28186e-18)
(0.000717566 9.95441e-05 2.27708e-20)
(0.000543145 0.000204234 -1.6564e-19)
(2.45299e-05 -1.90065e-05 -8.75602e-20)
(0.000151707 -5.90164e-05 2.40533e-18)
(1.2917e-05 5.57296e-07 -1.94799e-19)
(0.000841776 0.000118953 3.63633e-19)
(0.000680204 0.000134954 0)
(0.000171756 -0.000108957 -1.04789e-18)
(0.000112076 -2.68608e-05 3.12719e-19)
(9.36836e-05 -4.07259e-05 1.30289e-23)
(0.00080955 0.000105318 -3.19165e-19)
(0.000145561 -2.24971e-05 0)
(0.000595518 0.000238604 0)
(0.00011138 0.000322897 -3.62762e-19)
(0.000868454 0.00010159 2.10782e-18)
(1.05051e-05 7.52643e-07 0)
(0.000887932 5.24779e-05 0)
(3.59485e-05 -2.48306e-05 0)
(0.000815246 4.88121e-05 -4.46661e-21)
(0.000783575 -3.10755e-05 0)
(0.00426072 0.00740734 8.0717e-20)
(0.0043628 0.00748777 1.43661e-19)
(0.000842943 -1.6172e-05 0)
(0.000797402 -3.59081e-05 8.11855e-19)
(0.000151617 0.000116125 1.4917e-19)
(0.000861954 6.68305e-05 8.07914e-19)
(0.000126891 9.34143e-05 2.34331e-20)
(0.00079089 -2.1571e-05 6.24063e-19)
(3.0959e-05 8.014e-06 0)
(2.28533e-05 -1.15382e-05 -4.48352e-20)
(0.000906386 4.76175e-05 -4.86394e-19)
(2.54865e-05 -2.85008e-05 -6.69613e-19)
(0.000768282 0.000126174 -4.23106e-20)
(0.000169132 0.000153867 -1.88051e-19)
(0.000814045 3.16284e-05 0)
(0.00468252 0.0081536 9.01026e-22)
(0.000192352 0.000791518 3.33382e-19)
(9.97634e-05 -6.67885e-05 -9.14266e-19)
(5.08647e-05 -3.467e-05 -1.16845e-18)
(0.00059656 1.30995e-05 1.89741e-20)
(0.000584959 0.000404304 0)
(0.000424696 0.00044541 -2.56266e-19)
(6.74339e-05 -6.38037e-05 1.1834e-18)
(0.00055732 -1.12943e-06 7.68142e-20)
(3.72221e-05 1.07359e-06 4.06977e-19)
(0.000722092 -4.3227e-05 1.17123e-18)
(0.000812815 3.25903e-05 -6.03802e-19)
(5.03298e-05 -5.4022e-05 1.70896e-18)
(0.000841369 -4.01316e-05 -6.1665e-24)
(0.00057261 6.2859e-06 -3.75417e-20)
(0.000876353 7.20189e-05 0)
(0.000845791 4.98553e-05 0)
(0.00591608 0.00724336 2.59863e-19)
(1.32344e-05 -2.9255e-06 -1.1956e-19)
(9.80768e-05 -0.00011462 7.72819e-19)
(0.0007367 0.000114633 -6.96215e-19)
(1.5875e-05 2.34161e-07 2.01486e-19)
(0.000648924 -3.61935e-05 -7.23572e-19)
(0.000754252 3.54984e-05 1.55753e-18)
(0.000714297 0.000157782 -3.5533e-19)
(0.000807398 -1.17591e-05 3.60801e-19)
(6.42412e-05 -3.66131e-05 1.11566e-18)
(0.000801467 6.48487e-06 -3.22586e-19)
(0.000873632 3.69279e-05 0)
(0.000549736 0.000301879 4.20899e-20)
(0.000866526 4.99494e-05 -9.4733e-19)
(1.39809e-05 2.86462e-06 9.11252e-19)
(0.000860639 4.21366e-05 9.65816e-19)
(0.000862674 2.31697e-05 -9.64394e-19)
(0.00076418 6.0621e-08 -5.68982e-19)
(0.000545178 -8.23534e-05 -5.25476e-19)
(0.00432979 0.00745394 2.47604e-19)
(0.00422234 0.00752844 -2.78889e-19)
(0.00422063 0.00758599 2.66822e-19)
(0.00425635 0.00741119 1.98014e-19)
(0.000845127 -3.66226e-05 1.44226e-19)
(0.0044769 0.0075146 0)
(0.00440422 0.00751842 -3.86989e-19)
(2.24385e-05 -1.3698e-07 -9.97958e-19)
(0.00417024 0.00746867 -6.33763e-20)
(0.00414571 0.00743194 -2.21549e-19)
(0.00602919 0.010605 0)
(0.00654028 0.011187 3.71555e-20)
(0.00600911 0.0105747 0)
(0.00655598 0.0112106 1.30943e-19)
(0.00599649 0.0105987 2.69677e-19)
(0.00659268 0.0112275 1.24688e-20)
(0.00593534 0.0106114 -7.76766e-19)
(0.00662295 0.0111465 8.16029e-21)
(0.00390344 0.0091976 -1.90807e-19)
(0.00418644 0.00748786 3.87471e-21)
(0.0042373 0.0075513 7.93716e-20)
(0.0041502 0.00743424 4.12107e-20)
(0.000893133 0.000195854 4.46598e-20)
(7.27844e-06 1.01666e-06 0)
(0.000723615 -0.000104876 0)
(0.000657721 5.65576e-05 0)
(0.00244496 0.0011174 4.23077e-21)
(0.000758355 -3.06621e-05 1.72523e-19)
(3.59112e-05 4.48663e-06 4.53929e-20)
(6.10295e-06 -2.23768e-05 1.65252e-18)
(0.000860543 6.37231e-06 0)
(2.47482e-05 1.08253e-05 -1.91673e-19)
(0.000139185 0.000216981 0)
(1.20726e-05 -8.37127e-07 0)
(9.45147e-06 -9.65501e-07 0)
(0.00083528 0.000147624 1.13734e-20)
(0.000811085 -1.82301e-05 1.79525e-19)
(3.81939e-05 0.000259258 -1.20654e-23)
(0.00015649 0.000267736 -1.84147e-18)
(0.000610753 0.000326394 -8.56772e-20)
(0.000901712 0.000112669 6.02001e-19)
(0.000608787 -0.000161282 6.74388e-19)
(0.000358646 0.00111443 0)
(0.000480984 0.000575394 2.71465e-18)
(8.84904e-05 0.000139293 -1.80269e-18)
(1.56973e-05 -2.13587e-07 0)
(0.000822558 -6.33918e-05 3.64079e-20)
(1.41732e-05 3.2018e-05 1.64404e-18)
(0.000895158 3.54233e-05 2.71056e-19)
(-3.0995e-05 6.716e-05 3.81191e-18)
(0.000926866 4.15128e-05 -2.68926e-19)
(0.00133605 0.000153645 7.47126e-19)
(2.967e-05 -9.68072e-06 8.2548e-20)
(3.1383e-05 2.4387e-06 -8.58893e-19)
(5.07831e-05 0.000135654 0)
(0.000918569 8.80663e-05 5.98261e-19)
(0.000498348 0.000366914 2.37085e-19)
(0.000620742 1.73501e-05 -3.88945e-20)
(0.000786643 3.57581e-06 2.57322e-19)
(0.000730553 -0.00014556 0)
(0.00632033 0.0108958 -1.68157e-19)
(0.00637871 0.0109731 4.0591e-19)
(0.00616002 0.0107301 -6.18483e-19)
(0.00650128 0.0111322 -8.10015e-20)
(3.20248e-05 0.000113146 8.00328e-19)
(0.00092885 6.14498e-05 1.44433e-22)
(0.00641133 0.0110057 -3.86532e-19)
(0.00628137 0.0108456 5.48379e-19)
(0.00608006 0.0106719 -4.16832e-19)
(0.0065218 0.0111647 -6.81599e-20)
(7.89704e-05 0.00049269 -2.01772e-20)
(5.19735e-05 -0.000193898 -7.92599e-19)
(0.000643551 -2.00269e-05 -7.66344e-19)
(0.000730354 0.00021954 0)
(0.000800299 1.78073e-07 0)
(0.000189021 0.000386426 3.36221e-19)
(0.000602582 0.000510955 -5.41736e-19)
(6.05724e-06 -1.06289e-06 1.78348e-19)
(0.000200037 0.000466916 -7.38228e-19)
(0.00102139 0.000979245 -1.12675e-19)
(0.000752599 0.000166236 0)
(0.000794606 0.000184946 1.30984e-19)
(0.0063503 0.00588318 1.1318e-18)
(0.000736563 0.00113104 8.26493e-20)
(3.58096e-05 3.48067e-05 -7.4449e-20)
(0.000807807 1.0719e-05 0)
(0.000871259 2.33653e-05 -3.56808e-20)
(2.99058e-05 2.22934e-06 -1.96679e-19)
(2.6057e-05 3.5739e-06 1.9295e-19)
(0.000834635 1.3331e-05 5.37056e-19)
(0.000983305 0.000113493 6.58188e-19)
(0.000539349 4.49851e-05 0)
(0.000222188 -0.000274395 -3.98119e-19)
(0.000919854 0.00014326 3.89477e-19)
(3.83283e-06 -4.87154e-05 2.02964e-19)
(0.00145387 0.000442083 -2.58068e-18)
(0.000565187 -1.24721e-05 0)
(0.000799274 0.000142295 3.75362e-19)
(9.59279e-05 0.000388042 0)
(0.00118863 0.00816135 4.6205e-19)
(0.000496581 0.000497724 -1.22426e-18)
(0.000540463 0.00101717 -1.83714e-19)
(0.000887411 1.44927e-05 -1.46015e-19)
(1.10641e-05 2.2616e-05 0)
(0.000959982 7.80718e-05 6.11452e-19)
(0.00410626 0.00739519 8.14502e-20)
(0.00417107 0.00747319 4.73218e-20)
(0.00450072 0.00751726 4.54097e-19)
(0.00444581 0.00754305 -3.29155e-19)
(0.00647519 0.0111092 8.10787e-20)
(0.00391486 0.00714608 -9.52072e-22)
(0.00550794 0.00780014 -5.6476e-19)
(0.0040979 0.00737165 5.21951e-21)
(0.00518907 0.00785983 5.11696e-19)
(0.0040797 0.00734005 -4.87419e-20)
(0.00495435 0.00771935 0)
(0.00408496 0.00736435 -8.56878e-20)
(0.00474315 0.0075902 4.92541e-19)
(0.0040982 0.00737594 8.7541e-20)
(0.00457585 0.00752985 0)
(0.00428427 0.00742158 1.39776e-19)
(0.00423881 0.00759754 5.80406e-19)
(0.00446832 0.00752855 -5.54448e-19)
(0.00438845 0.00750586 3.71382e-19)
(0.00422745 0.00752439 3.22903e-19)
(0.00643052 0.0110425 -4.97647e-21)
(0.0041177 0.00740128 3.1168e-20)
(0.00645866 0.0110724 0)
(2.10094e-05 4.67011e-06 -1.89811e-19)
(0.00200108 0.00654635 2.28182e-19)
(0.000838181 -5.87848e-05 1.09701e-19)
(0.000853158 2.97873e-06 0)
(8.66669e-07 6.1436e-07 -3.99009e-19)
(-2.99938e-05 -9.01624e-05 6.90932e-19)
(2.33921e-05 5.28395e-05 2.08849e-18)
(0.000836542 0.000185625 -9.00438e-20)
(0.000801468 8.35988e-06 7.0619e-19)
(3.61089e-07 -1.35144e-07 3.09909e-19)
(1.42261e-05 -2.91804e-05 -1.84515e-18)
(0.000763649 2.67391e-05 1.63107e-19)
(0.000872028 0.000125028 -3.07897e-20)
(0.000800986 -7.34968e-06 1.48091e-19)
(0.000430642 0.000679325 0)
(1.25214e-05 -0.00013599 1.1511e-18)
(0.000872959 1.51564e-06 1.52483e-19)
(1.82899e-05 2.15267e-05 0)
(0.000119202 0.000554684 -6.31128e-19)
(0.000613192 0.000585951 1.31765e-18)
(0.000331428 0.000757076 0)
(0.000802079 -1.48577e-05 0)
(0.000801748 3.0497e-06 1.1766e-18)
(1.54195e-05 4.54293e-05 -3.51409e-18)
(1.44301e-05 5.86697e-06 3.73527e-19)
(0.000116508 0.000138474 0)
(3.63357e-05 -3.88703e-05 0)
(5.93375e-05 0.000107434 2.00949e-19)
(0.000942104 0.000190419 3.50332e-19)
(0.000800817 1.4682e-05 -1.39629e-18)
(2.10462e-05 3.01997e-05 0)
(0.000419796 3.8836e-06 -6.04453e-20)
(0.000800063 3.5998e-05 -1.56307e-19)
(0.000848999 4.5434e-05 1.0649e-18)
(0.000254369 0.000542165 6.32092e-19)
(0.000883362 0.000157577 0)
(1.41737e-05 -2.02147e-05 5.38472e-19)
(1.57482e-06 -2.8574e-06 -3.19884e-19)
(0.000949595 3.41668e-05 0)
(0.00104619 0.00226976 0)
(0.000909964 1.48452e-06 0)
(0.00100662 0.00020864 4.27053e-19)
(0.000818536 -3.70142e-05 -2.84201e-19)
(0.000940793 0.000111757 -6.84576e-19)
(0.000801148 3.57779e-06 0)
(4.04881e-05 6.42089e-05 -1.71523e-19)
(0.000174711 0.000323491 1.08089e-18)
(0.0008007 1.3447e-05 -2.38592e-23)
(0.00110406 0.000209549 -6.68593e-19)
(0.00108871 0.000128759 0)
(1.97006e-06 4.24414e-06 2.50965e-19)
(1.49286e-05 -1.29134e-05 -1.94265e-19)
(0.000555617 4.61337e-05 6.9483e-21)
(-4.307e-06 -6.3765e-05 0)
(0.00107381 0.000256656 9.49711e-19)
(0.00502868 0.00974819 -2.82923e-19)
(0.00312146 0.00961681 1.27243e-18)
(2.0868e-05 -9.49111e-05 -1.91275e-19)
(4.0145e-05 -7.13778e-05 1.85897e-18)
(0.00119059 0.000256409 1.67302e-19)
(0.00133086 0.00107633 2.34038e-19)
(0.000810628 2.65081e-06 -7.35935e-19)
(0.000198156 0.000949584 -2.38194e-19)
(0.000819153 0.000945565 -2.18537e-19)
(0.000800312 -2.11748e-06 0)
(8.19797e-05 0.000612439 0)
(9.45516e-05 0.000277911 -3.66623e-23)
(0.000719447 -4.70873e-05 -1.67413e-23)
(0.000826451 6.93653e-05 1.52562e-19)
(0.00263166 0.00206593 -1.23117e-18)
(0.00176046 0.00923785 -1.17195e-19)
(0.000834543 6.83599e-05 4.92175e-19)
(0.00632073 0.00405256 -1.76141e-19)
(0.00672091 0.0115573 -1.36582e-20)
(0.00473411 0.00784385 4.93431e-21)
(0.000805104 1.36269e-05 -2.16573e-18)
(0.00084235 1.60655e-06 7.37375e-24)
(5.91433e-06 -5.74139e-06 -3.47931e-19)
(4.53449e-05 8.44838e-05 -3.49193e-19)
(6.26103e-05 0.000262353 8.75058e-19)
(9.19069e-06 1.41082e-05 4.90285e-19)
(8.97173e-05 0.00022426 3.69681e-19)
(0.000820244 1.62263e-05 0)
(0.00534815 0.00949237 1.94961e-20)
(0.00154521 0.000638109 -2.61174e-20)
(0.000819405 3.96289e-05 3.60078e-19)
(1.91242e-05 -7.4276e-05 0)
(0.00184815 0.000749724 5.45902e-19)
(7.65205e-06 6.13917e-06 -2.70088e-19)
(3.12562e-05 2.56866e-05 9.71581e-20)
(0.00133478 0.00139816 6.36543e-19)
(0.000738843 4.96822e-05 1.83054e-19)
(2.37894e-06 -9.11949e-07 -1.7016e-19)
(0.00206385 0.00156281 -1.05566e-18)
(0.000126679 0.00017295 -8.18576e-19)
(0.0039204 0.00848792 -1.09074e-18)
(3.61444e-06 1.07395e-06 8.81211e-20)
(0.000102564 -5.51107e-05 -1.25796e-18)
(3.77018e-05 -5.44584e-05 4.05542e-20)
(0.00153002 0.000987868 0)
(0.00104265 0.000140201 -4.01373e-22)
(0.000453931 0.000846877 -4.01968e-20)
(0.000803304 2.76753e-05 -2.34014e-19)
(8.69541e-05 0.000179259 7.359e-19)
(2.1724e-05 -5.49653e-05 4.03899e-19)
(1.66156e-05 1.34484e-05 -9.4687e-20)
(2.90553e-05 8.64277e-05 -3.20213e-19)
(0.000214626 -0.000185403 -5.45457e-19)
(0.00325035 0.00346622 2.90796e-21)
)
;

boundaryField
{
    back
    {
        type            empty;
    }
    ingreso
    {
        type            fixedValue;
        value           uniform (0.0008 0 0);
    }
    salida
    {
        type            zeroGradient;
    }
    front
    {
        type            empty;
    }
    defaultFaces
    {
        type            noSlip;
    }
}


// ************************************************************************* //
