/*--------------------------------*- C++ -*----------------------------------*\
  =========                 |
  \\      /  F ield         | OpenFOAM: The Open Source CFD Toolbox
   \\    /   O peration     | Website:  https://openfoam.org
    \\  /    A nd           | Version:  8
     \\/     M anipulation  |
\*---------------------------------------------------------------------------*/
FoamFile
{
    version     2.0;
    format      ascii;
    class       volScalarField;
    location    "2.6";
    object      p;
}
// * * * * * * * * * * * * * * * * * * * * * * * * * * * * * * * * * * * * * //

dimensions      [0 2 -2 0 0 0 0];

internalField   nonuniform List<scalar> 
1642
(
9.68236e-05
8.22376e-05
8.09502e-05
8.65696e-05
9.70526e-05
9.68777e-05
9.68758e-05
9.68849e-05
9.66588e-05
9.68905e-05
8.74073e-05
9.59502e-05
9.64848e-05
9.69806e-05
9.67367e-05
9.64544e-05
9.67228e-05
9.67741e-05
9.68296e-05
9.68228e-05
9.68874e-05
9.66083e-05
9.71318e-05
9.73279e-05
9.67285e-05
9.65013e-05
9.70054e-05
9.29569e-05
2.29563e-06
2.11857e-06
2.09716e-06
9.67125e-05
9.44302e-05
9.68119e-05
9.67914e-05
9.66124e-05
9.62009e-05
9.6796e-05
9.67134e-05
9.69884e-05
9.7193e-05
9.6827e-05
9.68303e-05
7.53373e-05
0.000100087
9.67867e-05
9.69991e-05
9.68772e-05
9.68502e-05
9.67359e-05
9.68363e-05
9.68638e-05
9.68283e-05
8.51309e-05
8.73182e-05
9.6621e-05
9.66416e-05
9.6789e-05
9.65691e-05
9.72673e-05
9.68023e-05
9.67437e-05
9.68695e-05
9.69464e-05
9.66083e-05
9.68232e-05
9.68153e-05
9.68207e-05
9.66304e-05
9.68272e-05
9.68414e-05
9.67639e-05
9.68646e-05
9.72761e-05
9.67158e-05
9.62516e-05
1.259e-06
1.34888e-06
1.43316e-06
9.67643e-05
9.68223e-05
9.68243e-05
9.59262e-05
9.67913e-05
9.94095e-05
9.63329e-05
9.6524e-05
9.67714e-05
9.65085e-05
9.68187e-05
9.68089e-05
9.67071e-05
9.65368e-05
9.66374e-05
9.66885e-05
9.66362e-05
9.68512e-05
9.67571e-05
9.67586e-05
9.65554e-05
9.64983e-05
9.61624e-05
9.68276e-05
3.57641e-05
3.75227e-05
4.0287e-05
4.02763e-05
4.8997e-05
3.16334e-05
2.79439e-05
4.99521e-05
3.11699e-05
4.90255e-05
1.36102e-05
1.39173e-05
1.06796e-05
1.0431e-05
6.89093e-06
6.58738e-05
7.09823e-05
1.03578e-05
6.77973e-05
6.59598e-05
9.63784e-05
9.68407e-05
9.6988e-05
9.71106e-05
9.68112e-05
9.67904e-05
9.67598e-05
9.69321e-05
9.67018e-05
9.68193e-05
9.70751e-05
9.68228e-05
9.68223e-05
9.67928e-05
9.67551e-05
9.68584e-05
9.59311e-05
9.67175e-05
9.68281e-05
9.68166e-05
9.68497e-05
9.67091e-05
9.67761e-05
9.72653e-05
9.6834e-05
9.72426e-05
9.68587e-05
9.67898e-05
9.69767e-05
9.68283e-05
9.68267e-05
9.64566e-05
9.73256e-05
9.72636e-05
9.68265e-05
9.68164e-05
9.67646e-05
9.68231e-05
9.68225e-05
9.67793e-05
9.71617e-05
9.68215e-05
9.69992e-05
9.71722e-05
9.68206e-05
9.70254e-05
9.66029e-05
9.66476e-05
9.67929e-05
9.68216e-05
9.68104e-05
9.69171e-05
9.68562e-05
9.69208e-05
9.67573e-05
9.68444e-05
9.80423e-05
9.68036e-05
9.68287e-05
9.61452e-05
9.68293e-05
9.68158e-05
9.67484e-05
9.69505e-05
9.683e-05
9.66515e-05
9.68615e-05
9.65923e-05
9.68449e-05
9.68221e-05
9.6738e-05
9.69264e-05
9.66116e-05
9.63011e-05
9.68259e-05
9.66159e-05
9.68446e-05
9.6828e-05
9.68278e-05
9.63558e-05
9.6638e-05
9.69712e-05
9.68261e-05
9.68192e-05
3.79633e-05
3.28435e-05
3.05826e-05
3.1059e-05
3.31754e-05
3.88302e-05
3.98895e-05
3.40005e-05
5.16831e-05
3.86643e-05
5.27536e-05
3.16609e-05
3.67225e-05
4.32404e-05
2.99439e-05
4.5352e-05
2.12682e-05
4.11272e-05
3.05213e-05
3.16353e-05
6.32376e-05
3.41794e-05
2.94505e-05
5.36412e-05
3.95734e-05
4.41222e-05
3.20603e-05
4.20062e-05
3.56619e-05
3.74178e-05
4.62366e-05
5.69841e-05
2.73333e-05
6.42441e-05
4.08093e-05
5.48772e-05
6.62071e-05
2.7851e-05
1.11703e-05
5.57567e-05
6.51488e-05
6.57298e-05
1.09129e-05
1.08691e-05
4.74516e-05
6.80012e-05
6.50714e-05
1.62079e-05
1.54742e-05
1.89383e-05
6.12499e-05
4.2677e-05
1.65547e-05
6.11313e-05
5.79735e-05
5.90339e-05
1.11251e-05
6.5279e-05
5.69014e-05
2.93637e-05
4.51286e-05
6.74452e-05
5.26398e-05
5.78681e-05
1.51423e-05
1.89161e-05
5.65182e-05
6.11822e-05
7.26161e-05
5.46359e-05
4.94136e-05
4.84969e-05
5.03213e-05
2.88816e-05
1.75932e-05
4.94044e-05
7.03332e-05
8.83572e-06
2.08632e-05
4.17193e-05
6.34437e-05
2.08294e-05
4.59461e-05
2.04509e-05
2.70284e-05
5.19043e-05
2.57255e-05
1.72299e-05
4.38672e-05
8.77315e-06
7.39775e-05
7.76388e-05
4.72712e-05
1.54817e-05
1.19245e-05
1.43875e-05
2.35435e-05
1.21984e-05
4.1531e-05
3.71646e-06
2.7003e-05
1.29834e-05
1.40776e-05
1.32743e-05
2.83678e-05
6.10063e-05
6.88621e-05
5.24761e-05
2.04154e-05
2.46969e-05
1.54442e-05
3.16813e-05
6.749e-06
7.58694e-05
3.31229e-05
5.85681e-06
4.08723e-05
6.82595e-05
7.38525e-05
4.06473e-05
6.39797e-05
3.55635e-06
4.84176e-05
5.46989e-05
5.86341e-05
1.20347e-05
1.86915e-05
4.0073e-05
1.93793e-05
1.42919e-05
1.19905e-05
3.51101e-05
2.81609e-05
2.58853e-05
3.59646e-05
6.91411e-05
3.8057e-05
1.83125e-05
7.01519e-05
7.25298e-05
7.06498e-05
2.67658e-05
1.82854e-05
5.13978e-05
6.32477e-05
1.43182e-05
7.52252e-05
1.97764e-05
5.76183e-06
1.86666e-05
5.94066e-06
7.34581e-05
2.51621e-05
3.62612e-05
3.37636e-05
3.21198e-05
3.48802e-05
3.38027e-05
2.62059e-05
3.74641e-05
5.04606e-05
3.6301e-05
7.29439e-05
4.0203e-06
4.8256e-05
4.83502e-05
2.29872e-05
3.26861e-05
6.8322e-05
4.72725e-05
5.99625e-05
5.97919e-05
5.37205e-05
4.94067e-05
5.17108e-05
2.12373e-05
3.48466e-05
2.4074e-05
2.25428e-05
3.69084e-05
9.86215e-06
3.90199e-05
3.42416e-05
5.15204e-05
6.8993e-05
3.74149e-05
1.00985e-05
6.42605e-05
6.89282e-06
7.26058e-05
2.78208e-05
4.29666e-05
2.3608e-05
6.44019e-05
4.49677e-05
5.30635e-05
1.08842e-05
7.72757e-06
1.77627e-05
9.69435e-06
4.30661e-05
5.76782e-05
2.25294e-05
4.60199e-05
5.25845e-05
6.09453e-05
2.35596e-05
6.55503e-05
6.45905e-05
6.34102e-05
9.819e-06
6.78424e-05
3.9732e-05
1.00581e-05
4.36439e-05
1.43513e-05
9.75298e-06
2.01031e-05
6.70418e-06
4.42973e-05
1.77879e-05
4.61987e-05
3.04824e-05
5.42179e-05
5.58431e-05
5.47855e-05
2.40445e-05
2.35852e-05
4.95719e-05
6.63781e-05
4.71037e-05
6.22181e-05
3.27956e-05
4.81704e-05
6.62375e-05
4.51818e-05
2.93212e-05
2.00746e-05
2.5124e-05
1.72558e-05
2.72886e-05
6.12126e-05
1.76187e-05
4.21822e-05
7.14114e-05
5.04788e-05
5.05558e-05
4.83468e-05
5.89171e-05
6.40064e-06
2.29754e-05
6.00762e-05
2.47232e-05
4.27931e-05
5.68727e-06
4.3818e-05
6.66973e-05
5.90857e-05
6.61174e-05
6.93875e-05
4.64034e-05
5.99787e-05
4.494e-05
7.09796e-05
6.23683e-05
7.56011e-05
5.63294e-05
7.02745e-05
6.20974e-05
5.74816e-05
1.31402e-05
7.43135e-06
3.10043e-05
4.09481e-05
4.95499e-05
1.66098e-05
4.80894e-06
3.05306e-05
2.8927e-05
2.39839e-05
1.32961e-05
3.51473e-05
6.72149e-05
3.78791e-05
5.35579e-05
5.57129e-05
2.57094e-05
6.01091e-05
4.47946e-05
5.79076e-05
3.59275e-05
4.72943e-05
8.00742e-05
4.95249e-06
5.38211e-05
5.90151e-05
7.93212e-06
7.73634e-05
4.20291e-05
6.01351e-05
2.19048e-05
2.14731e-05
3.8404e-05
6.41098e-05
4.7096e-05
4.92395e-05
1.54352e-05
6.6291e-05
2.46512e-05
3.8573e-05
3.27278e-05
1.86935e-05
6.75525e-05
2.84117e-05
1.97446e-05
1.93471e-05
7.13445e-05
6.88574e-05
7.38138e-05
4.84968e-06
3.32328e-05
5.53681e-05
1.30006e-05
5.23466e-06
5.68155e-05
5.51757e-05
5.28716e-05
7.99453e-05
9.05444e-06
5.4024e-05
3.35471e-05
7.97052e-06
6.2046e-05
2.62566e-05
3.41854e-05
6.22912e-05
1.08369e-05
4.70424e-06
3.62858e-05
1.40417e-05
7.31484e-05
3.3956e-05
5.67969e-05
5.80386e-05
1.51075e-05
5.36302e-06
2.81878e-05
6.99133e-05
6.30756e-05
3.913e-05
2.14953e-05
3.94651e-05
6.94122e-06
2.18727e-05
5.73682e-05
3.52692e-05
5.59268e-05
3.86303e-05
1.61736e-05
1.3168e-05
8.98945e-06
1.76337e-05
3.84977e-05
5.07401e-05
3.73422e-05
6.68617e-05
4.34405e-05
3.90377e-05
1.90809e-05
6.71725e-05
5.88297e-05
2.46707e-05
6.27202e-05
3.52315e-05
3.63472e-05
3.97222e-05
2.67906e-05
4.40517e-05
4.18882e-05
4.05263e-05
4.13388e-05
3.77766e-05
5.1557e-05
4.0187e-05
3.46101e-05
6.52261e-05
3.55515e-05
1.19567e-05
3.69923e-05
5.21615e-05
8.55802e-06
1.58423e-05
1.65187e-05
1.2234e-05
4.61182e-05
3.3098e-05
2.29331e-05
3.0001e-05
4.77473e-05
3.67157e-05
5.06131e-05
6.57247e-05
7.7772e-06
2.58534e-05
4.56058e-05
6.17517e-05
1.66416e-05
4.66444e-05
2.62999e-05
8.01011e-06
2.192e-05
4.66792e-05
1.70421e-05
3.16078e-05
2.5139e-05
1.5508e-05
6.2845e-05
2.39947e-05
6.16459e-05
6.39452e-05
3.43923e-05
5.24079e-05
8.22533e-06
6.54868e-05
4.15885e-05
2.01562e-05
5.74546e-05
2.23131e-05
5.35655e-05
5.52855e-05
2.95037e-05
1.93575e-05
5.58778e-05
2.71795e-05
2.44705e-05
2.50526e-05
2.5545e-05
5.79145e-06
5.97108e-06
5.4284e-05
5.3124e-05
4.60144e-06
5.32227e-05
1.97525e-05
4.45264e-05
1.80034e-05
2.33954e-05
2.08137e-05
2.12339e-05
5.42065e-05
5.81835e-05
5.63943e-05
5.63361e-05
6.12689e-05
4.79349e-05
4.78002e-05
4.88233e-05
1.69237e-05
6.40494e-05
8.62429e-06
2.8238e-05
6.50464e-05
2.92928e-05
5.70312e-05
7.33702e-05
2.86064e-05
1.65718e-05
2.61126e-05
6.15249e-05
4.68795e-05
5.47217e-05
6.74537e-05
4.76285e-06
4.58277e-05
4.26547e-05
4.47803e-05
6.97795e-05
6.31832e-06
5.53396e-05
4.37177e-05
4.24893e-05
6.86151e-05
6.51259e-05
2.23908e-05
6.29116e-05
6.04916e-05
1.81979e-05
5.8455e-05
2.24097e-05
5.98102e-05
6.91797e-06
7.11578e-06
5.93379e-05
6.28015e-05
1.58841e-05
2.74539e-05
2.05164e-05
2.28291e-05
2.16746e-05
7.50612e-06
6.39639e-05
9.68269e-05
9.68293e-05
9.68185e-05
9.68969e-05
9.66664e-05
9.68348e-05
9.67307e-05
9.67851e-05
9.67502e-05
9.6828e-05
9.68789e-05
4.14265e-05
3.91486e-05
3.78563e-05
3.33162e-05
3.57736e-05
3.64626e-05
3.68067e-05
3.5678e-05
3.3211e-05
4.39512e-05
4.66836e-05
4.28449e-05
4.78365e-05
3.45267e-05
4.10491e-05
4.61139e-05
5.18003e-05
4.50397e-05
3.99842e-05
3.89245e-05
4.71884e-05
4.31649e-05
2.41019e-05
2.8718e-05
2.40962e-05
2.62314e-05
2.56521e-05
2.52581e-05
2.45807e-05
2.94013e-05
4.21107e-05
2.83512e-05
2.75681e-05
2.72937e-05
2.51628e-05
3.47188e-05
2.64158e-05
2.34988e-05
4.79703e-05
5.29707e-05
5.25685e-05
2.19779e-05
5.41257e-05
2.3038e-05
5.52894e-05
4.42217e-05
5.22198e-05
2.24226e-05
4.69218e-05
2.02529e-05
1.98477e-05
5.64382e-05
5.87502e-05
2.17952e-05
2.13379e-05
2.09117e-05
6.10538e-05
5.75936e-05
2.29506e-05
1.87906e-05
5.36631e-05
1.91807e-05
5.69318e-05
5.4752e-05
1.71604e-05
5.26709e-05
5.99053e-05
5.5842e-05
6.22105e-05
1.94731e-05
1.81031e-05
1.77305e-05
6.33665e-05
5.80623e-05
1.66771e-05
1.70309e-05
1.60037e-05
5.68982e-05
6.14936e-05
6.56719e-05
5.9228e-05
5.47965e-05
1.83231e-05
5.37351e-05
6.03885e-05
6.11371e-05
5.58568e-05
6.37947e-05
6.86356e-05
6.4517e-05
2.06329e-05
6.48234e-05
6.22114e-05
8.37992e-06
6.98128e-05
8.17768e-06
6.28104e-06
7.32058e-06
7.13518e-06
6.49713e-05
6.11437e-06
5.12503e-06
7.35573e-05
5.27155e-06
7.45812e-05
6.76621e-05
9.64726e-05
9.55547e-05
9.68316e-05
9.6833e-05
9.67567e-05
9.68514e-05
9.68254e-05
9.63215e-05
4.55001e-05
4.17554e-05
5.12521e-05
2.98521e-05
3.03426e-05
2.66185e-05
5.11011e-05
2.9758e-05
5.20498e-05
1.23152e-05
1.25969e-05
6.06643e-05
9.45627e-06
9.05688e-06
1.24036e-05
9.23212e-06
7.27083e-05
5.19263e-06
6.74365e-05
6.64775e-05
6.61802e-05
9.68227e-05
4.55305e-05
4.13536e-05
5.13109e-05
2.57788e-05
2.90215e-05
2.95178e-05
5.11455e-05
2.88542e-05
5.20948e-05
1.15002e-05
1.17671e-05
6.06891e-05
9.58554e-06
7.27818e-05
9.34937e-06
1.15078e-05
6.76704e-05
9.20186e-06
6.698e-05
6.5733e-05
9.6825e-05
9.68837e-05
9.67955e-05
9.68198e-05
9.68182e-05
9.6849e-05
9.68633e-05
9.69475e-05
9.68349e-05
9.68269e-05
9.672e-05
9.68907e-05
9.68184e-05
9.68175e-05
9.68252e-05
9.67573e-05
9.68246e-05
9.64969e-05
9.64695e-05
9.68242e-05
9.69477e-05
9.68211e-05
9.68087e-05
9.60597e-05
9.50029e-05
9.66012e-05
9.70442e-05
9.65831e-05
9.68431e-05
9.66524e-05
9.6796e-05
9.68771e-05
9.63188e-05
9.69415e-05
9.7183e-05
9.67344e-05
9.68156e-05
9.6963e-05
9.68143e-05
9.68058e-05
9.67987e-05
9.6825e-05
9.67197e-05
9.6772e-05
9.50166e-05
9.6809e-05
9.68265e-05
9.67957e-05
9.68251e-05
9.68189e-05
9.68318e-05
9.68351e-05
9.68593e-05
9.68183e-05
9.67391e-05
9.68074e-05
9.68735e-05
9.67514e-05
9.6504e-05
9.66797e-05
9.68442e-05
9.67695e-05
9.68031e-05
9.66797e-05
9.68263e-05
9.68255e-05
6.66704e-05
7.1954e-05
5.95885e-05
5.09797e-05
5.00414e-05
5.00977e-05
4.43524e-05
4.76942e-06
9.6629e-05
9.665e-05
9.66206e-05
9.68403e-05
9.67954e-05
9.6821e-05
9.67778e-05
4.23604e-05
9.67596e-05
1.02909e-05
1.05331e-05
3.53068e-05
6.59589e-05
6.85447e-05
1.02121e-05
7.13946e-05
6.79033e-05
1.1241e-05
7.69831e-06
6.78471e-06
6.52266e-05
1.15187e-05
1.12555e-05
6.62648e-05
1.44465e-05
1.47282e-05
1.4763e-05
1.34924e-05
1.37899e-05
3.76031e-05
5.03852e-05
4.94695e-05
4.94658e-05
2.87764e-05
2.78207e-05
3.58568e-05
3.20786e-05
3.97916e-05
4.03899e-05
3.10477e-05
3.70404e-05
3.20171e-05
4.06939e-05
3.248e-05
3.15247e-05
9.66743e-05
9.66336e-05
9.6918e-05
9.68288e-05
9.66535e-05
9.66642e-05
9.68239e-05
9.52645e-05
9.58817e-05
3.05754e-05
3.00145e-05
3.0094e-05
4.43929e-05
2.68624e-05
5.01561e-05
1.26585e-05
4.24182e-05
5.00884e-05
8.04152e-06
1.28448e-05
5.1025e-05
6.68364e-05
5.76999e-06
1.25566e-05
5.96373e-05
7.19731e-05
6.6709e-05
8.5076e-06
8.29043e-06
6.68602e-05
9.66917e-05
9.67988e-05
9.66766e-05
9.67706e-05
9.67914e-05
9.70184e-05
9.67971e-05
4.32502e-05
3.11695e-05
5.85801e-05
1.38166e-05
9.72429e-05
9.51227e-05
9.70832e-05
9.66059e-05
9.67089e-05
9.64655e-05
9.6761e-05
9.67723e-05
9.68207e-05
9.6841e-05
9.69252e-05
9.68281e-05
9.62057e-05
9.63964e-05
9.66031e-05
9.681e-05
9.68631e-05
9.68237e-05
9.68313e-05
9.68262e-05
9.66435e-05
9.72291e-05
9.68251e-05
9.6794e-05
9.69979e-05
9.67494e-05
9.68077e-05
9.68281e-05
9.66869e-05
9.6801e-05
9.67717e-05
9.67062e-05
9.68192e-05
9.68536e-05
9.68013e-05
9.67881e-05
9.69268e-05
4.33082e-06
3.90978e-06
4.0243e-06
1.48438e-05
5.79473e-05
3.21341e-05
4.25728e-05
6.80534e-05
6.39064e-05
6.68353e-05
1.49937e-05
1.46705e-05
3.23252e-05
4.88827e-05
4.58736e-05
3.26998e-05
3.92006e-05
3.69481e-05
3.44062e-05
9.67625e-05
9.6667e-05
9.69531e-05
9.6649e-05
9.63845e-05
9.68135e-05
9.68627e-05
9.68238e-05
9.64351e-05
9.68239e-05
9.70757e-05
9.68219e-05
9.68308e-05
9.67323e-05
9.63714e-05
9.68199e-05
9.68685e-05
9.68678e-05
9.6868e-05
7.24969e-05
6.69779e-05
8.88434e-06
6.90252e-05
1.25193e-05
6.70816e-05
5.69782e-06
9.09319e-06
9.3234e-06
1.26942e-05
1.24151e-05
6.00495e-05
5.05204e-05
2.9877e-05
5.14644e-05
2.67283e-05
5.06213e-05
2.99667e-05
4.48569e-05
3.04548e-05
4.12811e-05
6.99626e-05
6.74624e-05
6.7874e-05
7.3421e-05
5.14811e-06
1.13531e-05
6.35292e-06
5.3051e-06
6.17346e-06
1.16143e-05
6.60543e-05
1.00666e-05
6.48646e-05
6.53198e-05
7.23307e-06
7.09289e-05
6.91365e-05
1.01768e-05
6.3776e-05
6.6386e-05
1.72761e-05
7.4311e-06
1.04217e-05
7.02701e-05
6.46793e-06
1.13672e-05
7.91067e-06
6.11043e-05
6.17541e-05
1.61239e-05
1.84286e-05
6.51674e-05
6.03168e-05
2.53563e-05
1.35668e-05
1.95858e-05
1.36791e-05
5.94729e-05
1.33802e-05
5.85211e-05
5.16023e-05
5.64578e-05
5.84417e-05
6.40205e-05
2.03725e-05
1.67887e-05
1.71445e-05
5.73758e-05
1.78505e-05
1.82237e-05
6.28665e-05
1.99692e-05
2.652e-05
5.53961e-05
2.19023e-05
2.42074e-05
1.89112e-05
5.6349e-05
6.17116e-05
2.07454e-05
5.43445e-05
2.76925e-05
5.53134e-05
1.92999e-05
6.0558e-05
2.14424e-05
2.10253e-05
5.42507e-05
2.30561e-05
5.32873e-05
5.3172e-05
5.82482e-05
2.20853e-05
2.25205e-05
2.46932e-05
4.89907e-05
5.94036e-05
2.4199e-05
4.84218e-05
5.70975e-05
2.36019e-05
5.24793e-05
4.99024e-05
5.59469e-05
5.47957e-05
2.31421e-05
5.36346e-05
4.89509e-05
4.60264e-05
2.76961e-05
2.52534e-05
2.63181e-05
4.83311e-05
4.56541e-05
2.88983e-05
4.67303e-05
4.71902e-05
3.09173e-05
4.73753e-05
2.73875e-05
3.92544e-05
4.45764e-05
4.09503e-05
4.34998e-05
2.84566e-05
4.02076e-05
3.09315e-05
4.37746e-05
4.31928e-05
4.2717e-05
3.63683e-05
3.46192e-05
4.0596e-05
4.16555e-05
3.14061e-05
3.74278e-05
3.95368e-05
3.65433e-05
3.84878e-05
3.48068e-05
9.65242e-05
9.73687e-05
1.36809e-05
5.89962e-05
3.10551e-05
4.37197e-05
9.68271e-05
9.69671e-05
9.65388e-05
9.661e-05
9.61137e-05
9.66306e-05
9.67511e-05
9.69356e-05
9.67964e-05
9.66648e-05
9.64465e-05
9.67016e-05
9.72747e-05
9.71354e-05
9.69408e-05
9.66748e-05
9.6831e-05
3.53913e-05
3.80047e-05
3.85877e-05
6.28196e-05
4.8263e-05
6.74768e-05
6.32748e-05
4.52725e-05
3.36644e-05
1.5617e-05
1.59532e-05
3.33721e-05
6.60828e-05
9.61021e-05
9.67288e-05
9.69793e-05
9.68228e-05
9.68211e-05
9.67578e-05
9.68186e-05
9.6632e-05
8.15322e-05
9.68301e-05
9.69505e-05
9.63037e-05
9.67965e-05
9.68268e-05
9.63867e-05
9.72049e-05
9.64031e-05
9.60815e-05
1.49687e-05
5.75237e-05
3.22413e-05
4.21039e-05
6.67115e-05
6.43197e-05
6.63196e-05
6.22202e-05
1.48818e-05
1.45649e-05
4.9326e-05
4.63309e-05
3.22187e-05
3.26041e-05
3.9643e-05
3.68457e-05
3.4305e-05
9.65566e-05
9.73943e-05
9.69031e-05
9.54479e-05
9.67685e-05
6.87389e-05
6.28265e-05
6.2745e-05
6.79914e-05
1.57304e-05
1.60694e-05
4.78089e-05
4.48265e-05
3.54832e-05
3.81131e-05
3.3476e-05
3.81192e-05
3.37577e-05
9.61796e-05
9.68116e-05
2.53551e-06
3.48662e-06
2.16106e-06
2.2832e-06
2.92675e-06
3.11318e-06
9.68283e-05
9.68243e-05
9.62221e-05
9.68266e-05
9.66222e-05
9.67394e-05
9.58617e-05
9.6823e-05
9.66229e-05
9.68232e-05
9.6824e-05
9.68879e-05
9.63401e-05
9.68071e-05
9.83873e-05
9.70226e-05
9.70756e-05
9.65749e-05
9.67022e-05
9.68073e-05
9.68398e-05
9.68359e-05
4.23036e-06
4.3511e-06
9.69784e-05
8.41542e-05
9.68206e-05
9.68586e-05
8.21665e-05
9.68248e-05
9.67826e-05
4.24576e-06
4.38059e-06
9.58598e-05
9.68202e-05
9.64747e-05
9.68081e-05
9.65997e-05
9.71531e-05
9.65213e-05
9.68255e-05
9.65096e-05
9.62092e-05
9.68402e-05
9.6825e-05
9.6864e-05
9.67502e-05
4.68786e-06
9.67783e-05
9.67215e-05
9.68672e-05
9.67407e-05
9.67351e-05
9.67467e-05
9.6278e-05
9.67894e-05
9.6963e-05
9.68142e-05
9.68707e-05
9.68314e-05
9.70117e-05
9.65889e-05
9.68167e-05
9.68613e-05
9.64944e-05
9.6339e-05
9.69989e-05
9.66994e-05
3.63605e-06
3.44762e-06
3.3458e-06
9.68323e-05
9.6961e-05
7.71877e-05
9.72245e-05
9.66255e-05
9.54009e-05
9.68648e-05
9.65415e-05
9.66993e-05
9.68257e-05
9.66694e-05
9.68173e-05
7.42829e-05
9.68362e-05
9.65159e-05
9.72849e-05
9.47582e-05
9.68249e-05
9.59646e-05
9.68389e-05
9.57021e-05
9.63975e-05
9.68324e-05
9.65572e-05
0.000100751
9.68285e-05
9.57503e-05
9.64157e-05
9.66301e-05
9.3976e-05
9.68225e-05
7.28355e-05
9.68167e-05
9.68191e-05
9.67151e-05
9.58791e-05
9.84074e-05
9.65153e-05
9.6824e-05
9.72228e-05
9.67358e-05
9.65968e-05
9.70025e-05
9.45409e-05
9.6966e-05
7.71111e-05
9.68388e-05
9.6824e-05
9.6613e-05
9.7711e-05
9.66178e-05
9.68213e-05
8.39227e-05
9.61784e-05
6.67159e-05
9.66597e-05
8.17994e-05
9.49842e-05
9.174e-05
9.68029e-05
9.68221e-05
9.65704e-05
9.68205e-05
9.60052e-05
9.67702e-05
2.78522e-06
2.84439e-06
3.05268e-06
9.67146e-05
9.68263e-05
9.6793e-05
9.82648e-05
9.68036e-05
7.56655e-05
9.67342e-05
9.68263e-05
9.67693e-05
9.64454e-05
8.93503e-05
7.80065e-05
9.71249e-05
9.62079e-05
8.99947e-05
9.66353e-05
9.71894e-05
9.66626e-05
9.68051e-05
9.68175e-05
9.73739e-05
9.61023e-05
9.67486e-05
9.68241e-05
9.67502e-05
9.68272e-05
9.70717e-05
9.68589e-05
9.68312e-05
9.66342e-05
9.66418e-05
7.58361e-05
9.68172e-05
9.67659e-05
9.67341e-05
9.6785e-05
9.57539e-05
9.66934e-05
9.68248e-05
9.58506e-05
9.66274e-05
9.67157e-05
9.72443e-05
9.66454e-05
9.67707e-05
9.61699e-05
9.71701e-05
9.68489e-05
9.68461e-05
9.70134e-05
9.61301e-05
9.67744e-05
3.83959e-06
8.40533e-05
9.84985e-05
9.68293e-05
9.67297e-05
9.66379e-05
9.86032e-05
9.68409e-05
9.68841e-05
9.68649e-05
3.53863e-06
3.42765e-06
9.58777e-05
9.67832e-05
9.69896e-05
9.72329e-05
9.68438e-05
8.83456e-05
9.68231e-05
9.68274e-05
3.83655e-06
9.67599e-05
9.67278e-05
3.58045e-06
3.49708e-06
9.6709e-05
9.49621e-05
9.56638e-05
9.68276e-05
7.96554e-05
9.16532e-05
1.8027e-06
1.57632e-06
1.97459e-06
9.45351e-05
9.68281e-05
9.6851e-05
8.59379e-05
9.09774e-05
8.51177e-05
8.5488e-05
8.92382e-05
9.63148e-05
9.6863e-05
7.09638e-05
9.60414e-05
9.65643e-05
9.86451e-05
9.68184e-05
8.77192e-05
9.54045e-05
7.79e-05
9.55789e-05
9.65364e-05
2.84794e-06
2.90364e-06
9.65873e-05
9.54616e-05
9.58624e-05
6.8192e-05
6.75305e-05
9.67743e-05
3.11963e-06
9.05663e-05
8.7294e-05
9.67868e-05
9.67786e-05
9.47636e-05
9.65593e-05
8.72734e-05
9.65949e-05
9.21302e-05
7.2842e-05
7.16103e-05
1.61638e-06
1.43031e-06
1.73415e-06
9.65441e-05
9.66263e-05
8.09114e-05
8.56276e-05
8.32425e-05
8.32051e-05
5.72654e-05
5.64248e-05
9.51557e-05
5.1645e-07
4.58776e-07
5.06629e-07
-7.94991e-07
-8.59046e-07
-9.45531e-07
8.9685e-05
1.26935e-06
1.11116e-06
9.55914e-05
1.0623e-06
-8.82401e-07
7.4313e-07
-9.17937e-07
7.16058e-07
-9.87751e-07
6.55623e-07
)
;

boundaryField
{
    back
    {
        type            empty;
    }
    front
    {
        type            empty;
    }
    ingreso
    {
        type            zeroGradient;
    }
    salida
    {
        type            fixedValue;
        value           uniform 0;
    }
    defaultFaces
    {
        type            zeroGradient;
    }
}


// ************************************************************************* //
