/*--------------------------------*- C++ -*----------------------------------*\
  =========                 |
  \\      /  F ield         | OpenFOAM: The Open Source CFD Toolbox
   \\    /   O peration     | Website:  https://openfoam.org
    \\  /    A nd           | Version:  8
     \\/     M anipulation  |
\*---------------------------------------------------------------------------*/
FoamFile
{
    version     2.0;
    format      ascii;
    class       surfaceScalarField;
    location    "2.6";
    object      phi;
}
// * * * * * * * * * * * * * * * * * * * * * * * * * * * * * * * * * * * * * //

dimensions      [0 3 -1 0 0 0 0];

internalField   nonuniform List<scalar> 
3021
(
2.05965e-10
-2.05965e-10
-2.10942e-08
-2.22438e-08
3.18288e-08
1.15093e-08
-1.76572e-08
-1.11661e-08
2.32508e-08
5.57244e-09
-3.34344e-08
-2.13956e-09
1.79169e-08
9.32308e-10
-1.33372e-08
1.24049e-08
8.92274e-09
-6.87929e-09
7.23155e-09
-9.27499e-09
1.38551e-10
-1.59701e-08
1.55386e-08
2.92942e-10
-8.9897e-10
3.44966e-10
-1.89688e-08
1.95228e-08
1.0828e-08
-9.64607e-09
-6.79988e-09
5.618e-09
-1.46023e-08
-3.40703e-09
1.09538e-08
7.05555e-09
-1.42073e-08
-1.74061e-08
1.05192e-08
6.4461e-09
-6.23162e-09
1.16309e-08
-1.18454e-08
1.74402e-08
3.30788e-09
-1.14657e-08
-9.28238e-09
-5.29518e-09
-1.7254e-08
7.94687e-09
6.48464e-09
-7.53074e-09
-6.32213e-09
7.36824e-09
-7.73226e-09
5.6408e-09
8.32938e-09
-6.23792e-09
-4.17737e-09
-2.24722e-09
6.42459e-09
-3.24858e-09
-9.28786e-10
2.71722e-10
3.43381e-10
-2.27488e-10
-3.87615e-10
4.88992e-11
-3.54245e-10
-5.9086e-11
3.64431e-10
-1.04513e-08
-2.82288e-09
1.60914e-08
-2.81727e-09
-2.33755e-08
1.71814e-08
1.85559e-08
3.09051e-09
-2.93332e-09
-2.2899e-08
6.09964e-09
1.67994e-08
-6.67335e-09
1.54825e-09
8.40068e-09
-3.27559e-09
4.81794e-10
-9.07725e-09
6.89816e-09
1.6973e-09
2.53037e-09
-1.26645e-08
-6.0517e-10
1.07393e-08
1.02088e-08
-2.82532e-09
-2.0421e-09
-5.34138e-09
2.85904e-08
-2.30902e-08
-2.12737e-08
1.57735e-08
2.95539e-08
-2.37431e-08
-2.17232e-08
1.59124e-08
3.10062e-08
-2.48774e-08
-2.27641e-08
1.66353e-08
-5.02182e-09
6.04406e-09
-1.68111e-08
1.57888e-08
-2.20547e-08
-1.51367e-08
6.2917e-09
3.08997e-08
6.6047e-10
-7.34804e-10
7.36807e-10
-6.62473e-10
-5.69104e-09
2.52961e-09
-3.51191e-09
7.45036e-09
3.6712e-09
-4.63692e-09
3.10596e-09
9.45495e-09
4.87933e-09
1.38615e-08
1.11223e-09
-1.44342e-08
-5.3962e-10
9.26973e-09
-5.85488e-09
3.06396e-09
-6.4788e-09
-1.47919e-08
1.17821e-08
7.86554e-09
-4.85571e-09
-7.85144e-09
3.18933e-09
1.91492e-10
8.36923e-10
-4.01441e-10
-6.26974e-10
-5.35186e-11
5.53071e-10
9.23574e-11
-5.9191e-10
-3.99733e-08
1.57887e-08
1.30185e-08
-3.417e-09
-3.74565e-09
7.16265e-09
1.38772e-08
1.38791e-09
-1.27348e-08
9.1883e-10
1.32927e-08
-3.49971e-10
-2.31498e-09
6.73404e-09
4.86493e-09
-9.28398e-09
2.51459e-09
-5.35981e-09
-2.84582e-09
8.42572e-10
4.26648e-09
5.7189e-09
-6.1754e-10
3.3529e-10
-1.23617e-09
1.51842e-09
-6.05892e-09
-9.90843e-09
6.32128e-09
4.212e-10
-2.15235e-10
-1.38676e-08
-2.88489e-08
2.04727e-08
1.624e-08
2.03749e-08
-2.91532e-08
-7.4617e-09
7.79499e-09
6.12712e-09
-6.86712e-09
-7.05499e-09
1.90394e-08
-3.59325e-09
-9.48447e-11
-3.90025e-10
4.07812e-09
-1.10247e-08
3.36278e-09
2.17631e-08
-1.41012e-08
-4.09661e-09
4.9331e-09
-6.0594e-09
5.22291e-09
-5.55632e-09
6.17338e-09
1.89752e-09
1.3636e-08
1.65085e-09
-1.41746e-08
-1.33184e-09
-2.09456e-09
1.41759e-09
2.00881e-09
-1.85666e-08
-2.0244e-08
2.77859e-08
-5.77398e-09
5.57103e-09
-2.11641e-09
2.31935e-09
8.87555e-10
-9.28905e-10
2.38021e-10
-1.9667e-10
-2.77806e-09
1.19326e-09
-9.66623e-10
2.55143e-09
4.19829e-10
9.36646e-10
-4.68921e-10
8.66559e-09
1.66652e-09
-5.53412e-09
-4.79799e-09
-9.28377e-10
-2.69872e-10
1.19825e-09
1.73576e-09
-3.83751e-09
-3.45457e-09
6.34259e-10
-8.92111e-10
-5.7543e-09
6.01216e-09
2.62058e-09
3.88441e-09
-4.76923e-09
1.87625e-09
-9.32778e-10
-1.53776e-08
-1.02374e-08
-4.71736e-09
6.75152e-09
8.20328e-09
-1.10316e-08
-1.41197e-08
1.99897e-08
5.16162e-09
-6.14754e-09
5.97469e-09
3.1179e-08
-5.86998e-09
5.63595e-09
2.97879e-08
-5.91122e-09
5.43691e-09
2.90647e-08
6.56361e-09
-3.95888e-09
-6.39971e-09
3.79498e-09
-9.33671e-10
5.82705e-13
4.18257e-12
3.01221e-10
6.56165e-10
-8.46577e-10
-1.10808e-10
-1.49843e-08
1.80903e-08
1.03947e-08
-1.11222e-08
8.99045e-09
-8.26296e-09
-3.65881e-09
4.11839e-10
-7.25168e-09
-3.64842e-09
1.04883e-08
-4.90317e-09
3.33133e-09
1.38576e-09
-1.98019e-09
5.94423e-10
9.52535e-09
-5.86124e-09
-8.56728e-09
-5.19658e-10
5.28e-10
6.52128e-10
-1.77056e-08
1.02462e-08
-7.81194e-09
1.52713e-08
7.61259e-09
-5.77282e-09
-1.20551e-09
5.52564e-09
-8.46558e-09
9.07563e-09
-6.13569e-09
9.5609e-09
-8.07987e-09
1.85486e-10
-1.09025e-08
-7.20476e-10
-1.41234e-09
1.30353e-08
-9.24179e-10
2.47802e-09
1.53842e-09
-3.09225e-09
6.46876e-09
-5.3159e-09
9.90008e-09
-1.10529e-08
-9.65883e-09
-1.34838e-09
1.04761e-10
-2.38633e-09
8.565e-09
3.09106e-09
6.43474e-10
1.22488e-08
-7.06092e-09
-2.06604e-09
9.5388e-09
-1.02823e-08
2.12618e-09
-4.7558e-09
1.2912e-08
3.63359e-09
-5.10262e-09
1.46903e-09
-2.09961e-08
2.09884e-08
7.5991e-11
-6.8294e-11
2.00021e-08
-4.40114e-11
6.03682e-11
-2.00184e-08
-1.94853e-08
1.94807e-08
4.75466e-11
-4.29874e-11
-1.91882e-08
-6.8902e-11
1.92243e-08
3.27417e-11
1.87387e-08
-3.07231e-11
-1.87378e-08
2.98508e-11
-1.32837e-11
3.51364e-11
1.99242e-08
-1.9946e-08
-1.90614e-08
-1.57778e-11
1.23895e-11
1.90648e-08
-1.21725e-12
-1.92274e-08
1.92261e-08
2.50129e-12
-1.17418e-12
1.18345e-11
1.85291e-08
-1.85398e-08
2.01784e-08
-1.15784e-11
-2.01889e-08
2.20452e-11
5.57011e-13
7.46337e-12
1.99466e-08
-1.99547e-08
2.44263e-13
1.59485e-11
1.90299e-08
-1.90461e-08
-1.90192e-08
1.89837e-08
4.40445e-11
-8.60721e-12
-1.99354e-08
1.99092e-08
4.49454e-11
-1.87254e-11
3.54342e-11
-5.46266e-11
-1.85919e-08
1.86111e-08
1.87157e-08
-6.18821e-10
1.94181e-10
-1.8291e-08
1.85641e-08
-4.41464e-10
-1.83583e-08
2.3571e-10
-1.85187e-08
1.85169e-08
-4.25275e-12
6.04723e-12
1.69549e-08
-2.38305e-09
1.57691e-09
-1.61488e-08
1.98767e-08
-8.09381e-10
-1.96998e-08
6.3253e-10
-3.72764e-09
-1.0585e-08
-1.10232e-08
7.13117e-09
2.43578e-10
2.06136e-09
4.80075e-09
-1.55393e-09
-5.30818e-09
-1.30938e-08
1.0011e-08
-7.36844e-09
4.41616e-10
9.44148e-10
2.46483e-09
-1.15338e-08
1.06257e-08
-1.55664e-09
2.62914e-09
-9.82315e-09
-1.3736e-10
5.35009e-09
-6.56801e-09
1.35528e-09
-3.123e-09
1.76135e-09
3.42302e-09
-8.46038e-10
-2.9237e-10
6.1875e-10
-1.16764e-08
-2.35977e-10
-8.745e-10
1.76807e-10
-1.13923e-09
-5.5652e-09
-9.58277e-09
3.61413e-09
6.57045e-10
4.62326e-09
-5.41766e-09
8.05365e-09
-1.45666e-09
2.32574e-09
-3.17847e-09
-8.49796e-09
8.06552e-09
2.18889e-10
-8.2844e-09
9.78113e-10
-1.05523e-09
4.96945e-10
2.36357e-09
-1.17332e-09
-2.00393e-09
8.13682e-10
1.93658e-09
-4.23997e-10
5.05095e-09
-1.02457e-08
6.03735e-09
3.05546e-09
-3.00226e-09
-2.30042e-09
-9.23965e-09
2.01016e-08
4.72116e-10
-7.36375e-10
-1.79916e-09
2.06342e-09
5.83356e-09
8.83898e-09
-9.24951e-09
5.35808e-09
3.34491e-09
1.2072e-09
1.33476e-08
-3.09943e-10
1.0844e-09
-1.01043e-09
1.97877e-09
4.92756e-09
-1.71867e-08
-1.37991e-09
-8.23281e-09
5.94144e-10
-3.22422e-10
6.51778e-10
5.53247e-09
1.86627e-09
1.72233e-10
3.25071e-10
1.11224e-09
1.09538e-09
-8.69903e-10
-1.33772e-09
-8.41059e-10
7.12351e-10
2.25665e-09
-2.12794e-09
1.18682e-08
1.26784e-08
2.35098e-10
4.16681e-10
-1.35851e-08
1.3418e-08
1.37427e-09
1.73238e-08
-6.84324e-09
3.35457e-10
-4.3511e-10
-7.74847e-10
1.56053e-09
2.70941e-09
-1.01677e-10
5.63415e-09
-2.71293e-09
-5.35646e-10
-7.36885e-10
-2.24082e-09
9.03394e-10
-9.81768e-09
-1.06056e-10
9.02034e-09
7.29225e-10
-4.27117e-09
-1.32198e-08
1.21751e-08
1.99492e-09
-5.41816e-09
6.60148e-09
2.28291e-09
-8.30735e-10
-6.73956e-09
7.33044e-09
-6.7487e-09
6.15783e-09
-1.60816e-08
7.80514e-09
-5.84877e-09
1.41253e-08
5.00047e-10
7.3782e-10
-9.38502e-09
1.17839e-08
8.16818e-09
-1.05671e-08
-1.42741e-10
-1.8463e-09
-3.9452e-10
1.0927e-08
-1.64973e-09
2.51674e-09
8.938e-09
-1.07287e-08
-7.26028e-10
7.90313e-10
-7.27064e-10
1.13558e-10
2.68325e-09
-3.28311e-09
-2.52314e-09
1.24012e-08
-1.23711e-08
7.25176e-09
-7.28181e-09
-6.16363e-09
4.62521e-09
-5.47611e-09
6.75084e-10
8.03076e-10
-1.35263e-09
7.36698e-09
2.96922e-09
-2.91479e-09
1.70691e-09
-1.12795e-08
3.82386e-09
8.359e-09
-7.32608e-09
1.08666e-08
-7.26814e-09
7.98364e-10
-7.46831e-12
-4.7361e-09
-9.26933e-09
7.3756e-09
6.62984e-09
-5.04311e-09
1.05486e-08
1.09599e-09
-1.09539e-09
2.78187e-10
-1.31455e-09
6.81296e-12
1.30709e-09
6.45697e-13
-5.47434e-09
-1.06964e-08
8.5641e-09
7.18322e-09
1.15567e-08
5.86855e-10
-1.40799e-08
1.93636e-09
-7.01643e-10
4.0176e-10
-1.69037e-10
7.6769e-09
-2.47008e-11
2.01111e-08
-2.01381e-08
5.16998e-11
-1.87532e-08
1.87508e-08
-3.43405e-12
5.82826e-12
-1.92739e-08
-3.0237e-12
1.92645e-08
1.23662e-11
-2.02567e-08
1.23041e-11
2.02539e-08
-9.54895e-12
1.85748e-11
2.02527e-08
-2.02215e-08
-4.97393e-11
-1.50334e-08
1.50087e-08
1.3752e-11
-1.50472e-08
-1.87947e-08
2.38904e-11
1.76042e-11
-2.01105e-08
-3.16465e-11
2.01087e-08
3.34e-11
-2.22062e-11
-1.9175e-08
1.91518e-08
4.54668e-11
-2.43853e-11
-2.01297e-08
4.3585e-11
-1.93198e-08
2.43135e-11
2.16328e-11
1.49174e-08
-1.49552e-08
3.78268e-11
2.03125e-11
-2.01499e-08
2.01507e-08
-2.11981e-11
1.47633e-08
-1.47429e-08
-2.03612e-11
2.71735e-11
2.01364e-08
-2.01245e-08
-3.91108e-11
2.28938e-11
1.87813e-08
-1.88058e-08
1.5526e-12
1.06033e-11
2.01475e-08
-2.01526e-08
-5.56319e-12
1.87542e-08
-1.8741e-08
5.97991e-13
-1.37331e-11
-8.85637e-12
1.37472e-08
-1.37383e-08
-2.01274e-08
2.01239e-08
-8.65468e-11
9.00846e-11
1.46892e-08
-4.02557e-11
-1.46489e-08
1.40974e-08
-1.40993e-08
1.91315e-12
-1.5019e-08
1.49946e-08
-1.42986e-08
1.42764e-08
1.50429e-08
-1.50226e-08
-1.47077e-08
-2.28729e-11
1.47306e-08
-1.50502e-08
1.50608e-08
1.48938e-08
2.35991e-11
-1.42506e-08
1.42418e-08
8.79868e-12
1.50051e-08
-1.49779e-08
1.90799e-11
-2.01559e-08
2.01641e-08
-2.72998e-11
-5.05772e-12
-1.92523e-08
1.92744e-08
-1.70384e-11
-1.63893e-10
-2.01798e-08
2.16317e-10
-2.00869e-11
1.91905e-08
-1.92166e-08
4.62203e-11
-6.12315e-13
2.01399e-08
-2.0159e-08
1.97058e-11
-4.59154e-10
-2.0673e-08
2.0327e-08
8.05094e-10
4.22548e-12
-2.02403e-08
2.02651e-08
-2.91061e-11
3.07649e-11
1.92881e-08
-1.92925e-08
-2.63411e-11
1.50456e-08
-1.50462e-08
-1.53108e-08
1.51469e-08
1.87009e-08
6.4673e-13
-1.87035e-08
1.96522e-12
2.91664e-11
2.01981e-08
-2.0204e-08
-2.32768e-11
-1.47435e-08
1.47727e-08
-2.00826e-08
1.942e-11
2.00978e-08
-3.46425e-11
-1.86898e-08
-4.39978e-11
1.8707e-08
2.67715e-11
-2.95882e-11
1.91774e-08
-1.93226e-08
1.74766e-10
2.01874e-08
-2.02222e-08
1.36649e-11
2.11328e-11
-1.9269e-08
1.92711e-08
-1.43239e-11
1.22071e-11
1.39099e-12
-1.87966e-08
1.87988e-08
-3.59278e-12
2.10608e-08
-2.48931e-10
-2.50827e-08
4.2708e-09
1.86671e-08
-1.40473e-11
-1.86673e-08
1.42702e-11
-1.93026e-08
1.34362e-11
2.02577e-11
1.8709e-08
-4.70732e-12
-1.87079e-08
3.54309e-12
-1.95877e-08
1.94189e-08
-4.83231e-11
2.17101e-10
-2.00528e-08
-1.64518e-10
6.29624e-10
-1.40936e-08
1.41244e-08
1.43922e-08
-1.44218e-08
1.93255e-08
5.49424e-12
8.78865e-11
5.5779e-12
1.87733e-08
-2.4735e-11
1.74962e-13
-1.92435e-08
1.92497e-08
-6.39286e-12
-1.60557e-08
1.55965e-08
-1.92358e-08
-1.39673e-11
1.92275e-08
2.2267e-11
-1.5022e-08
1.5041e-08
2.01899e-08
-1.48491e-11
1.22986e-11
1.3813e-08
-1.38116e-08
-1.87182e-08
-4.17452e-12
1.87184e-08
3.98708e-12
-2.01177e-08
2.01276e-08
-2.63053e-11
1.64101e-11
-3.33097e-10
1.89957e-08
-1.95e-08
8.37348e-10
8.41085e-12
1.43311e-08
-1.43395e-08
4.69916e-12
1.92052e-08
-1.91954e-08
-1.44972e-11
-4.60031e-12
-2.00749e-08
-3.03126e-12
-1.4315e-08
1.43197e-08
1.47774e-08
-1.41185e-11
-1.41267e-08
1.73077e-11
1.41094e-08
-1.49422e-08
1.49376e-08
-1.67285e-08
8.32398e-10
1.58961e-08
1.48038e-11
-2.02304e-08
2.02075e-08
8.16218e-12
1.96976e-11
1.93127e-08
-1.93423e-08
9.95664e-12
1.43354e-08
-1.43555e-08
-8.53987e-12
-1.86995e-08
1.87026e-08
5.42199e-12
-1.41283e-08
1.4148e-08
-2.40735e-11
-1.3946e-08
1.39701e-08
1.79613e-11
2.02242e-08
-2.02497e-08
7.53966e-12
4.86668e-12
1.88147e-08
-1.87944e-08
-2.52308e-11
-1.86871e-08
-2.8877e-11
1.86767e-08
3.92477e-11
1.58081e-12
2.02743e-08
-2.02691e-08
-6.78097e-12
-1.47849e-08
2.04422e-11
1.47644e-08
1.23462e-11
1.43847e-08
-1.4397e-08
1.47889e-08
-1.47741e-08
1.4587e-08
-1.49201e-08
1.85574e-10
1.52027e-08
-1.53883e-08
-1.9232e-08
1.92463e-08
1.63637e-11
-3.05678e-11
-1.77238e-11
1.87842e-08
-1.87796e-08
1.31052e-11
-1.47439e-08
3.50839e-13
-4.40477e-12
1.92644e-08
1.10578e-11
-1.37974e-08
-2.60192e-12
1.38e-08
-1.40894e-08
-4.25226e-12
-7.63479e-12
2.78445e-11
1.86469e-08
-1.42862e-08
-6.82178e-10
1.49684e-08
-1.3762e-08
1.37669e-08
1.5734e-11
-1.47596e-08
2.01824e-08
-3.62553e-12
1.11648e-11
-1.41041e-08
1.46972e-11
1.40953e-08
2.0891e-12
1.50079e-08
-3.8839e-12
-1.5004e-08
-1.66675e-08
6.11766e-10
1.4324e-08
-1.43171e-08
-6.84898e-12
-1.47951e-08
1.48131e-08
4.12726e-12
-1.38016e-08
1.37928e-08
-1.38105e-08
9.5926e-13
2.02005e-08
-1.91695e-11
-2.02041e-08
2.27371e-11
-5.83245e-10
1.7269e-08
-1.66857e-08
-4.4443e-12
-1.40846e-08
1.4089e-08
-1.36169e-08
1.36346e-08
-1.77076e-11
-2.08235e-08
-7.41801e-10
2.00973e-08
1.46794e-09
2.24232e-08
-2.86481e-10
-2.272e-08
3.67761e-11
5.32671e-10
1.96034e-08
-9.58678e-10
-1.49557e-08
-7.36927e-10
1.56926e-08
1.8658e-08
-1.06904e-11
-1.86446e-08
-2.66352e-12
2.66055e-11
-1.39952e-08
-1.55602e-11
1.40107e-08
8.43582e-12
1.87582e-08
-1.87849e-08
1.82645e-11
-1.93046e-08
-1.13444e-11
1.93038e-08
1.22123e-11
2.01515e-08
-1.35765e-11
9.59895e-12
2.02195e-08
-1.26757e-11
1.73138e-11
7.44254e-12
1.37853e-08
-1.37705e-08
1.37789e-08
-1.37091e-08
-8.74258e-12
1.37179e-08
-1.37533e-08
-8.65145e-12
1.87882e-08
3.46875e-11
-8.16456e-12
1.93112e-08
2.8672e-11
-3.79055e-11
-1.93019e-08
-9.40817e-11
-1.86968e-08
1.01034e-10
-1.39562e-08
1.39972e-08
-4.09425e-11
-1.55338e-11
2.02214e-08
1.36477e-11
1.40393e-08
-1.41334e-08
5.40516e-10
-1.72586e-08
5.91132e-10
-1.47816e-08
1.48018e-08
-2.01772e-11
-1.48004e-08
9.03823e-12
-1.39952e-08
1.4009e-08
-1.38002e-11
1.87824e-08
9.19123e-12
2.00981e-08
7.50385e-10
-2.06629e-08
-9.9966e-12
1.80579e-11
-2.02161e-12
2.02053e-08
-2.75728e-12
-1.4138e-08
1.92764e-08
-1.92834e-08
2.59465e-12
-1.75177e-08
2.59157e-10
1.93155e-08
1.25905e-11
-1.92977e-08
-3.04223e-11
-1.40209e-11
-1.36951e-08
-9.18133e-12
1.40711e-08
-1.40619e-08
-2.6876e-11
1.93295e-08
5.57504e-12
-2.39419e-11
1.93312e-08
-1.08512e-11
1.41011e-08
-1.40902e-08
-1.08622e-11
1.88001e-08
1.02095e-11
-1.87637e-08
-4.66465e-11
-1.49593e-08
1.70773e-11
1.88093e-08
-2.32248e-11
5.46917e-10
2.34945e-08
2.01477e-10
-2.42429e-08
-1.39475e-08
-6.5998e-10
1.46075e-08
-8.42054e-12
-1.39265e-08
1.39349e-08
2.84733e-11
-5.53621e-11
-1.93389e-08
1.20936e-11
1.93496e-08
-2.27806e-11
-6.90899e-12
1.4078e-08
2.13405e-08
-2.2362e-08
1.61263e-09
1.86651e-08
-1.55615e-11
1.5009e-08
-1.14581e-12
-1.40004e-08
5.22235e-12
-1.92576e-08
3.02747e-11
-1.39372e-08
1.39478e-08
-1.3966e-08
1.81417e-11
1.38143e-08
-1.37914e-08
-1.40563e-08
3.96563e-12
-2.73622e-11
-2.02596e-08
5.70627e-13
2.02546e-08
4.41979e-12
-5.35138e-11
7.13373e-11
2.00933e-08
1.4177e-12
-3.37544e-11
2.71498e-11
-5.81234e-11
-2.02037e-08
-1.4963e-08
3.69003e-12
1.39953e-08
-1.36849e-08
1.15529e-12
1.93168e-08
-2.98342e-11
1.49249e-08
-1.41186e-08
3.40513e-11
2.79068e-10
1.43079e-08
-1.92351e-08
1.92261e-08
2.13336e-11
-9.30315e-12
-2.02605e-08
1.02405e-11
-1.40037e-08
1.86763e-08
-1.86752e-08
-2.51384e-11
-1.87114e-08
3.55963e-12
2.07799e-11
1.87639e-08
-1.40897e-11
8.37887e-12
1.47734e-08
1.54893e-11
1.52831e-12
1.38115e-08
-3.59843e-12
-1.37648e-08
1.37684e-08
-7.26777e-12
-1.87136e-08
-2.0219e-11
-1.4805e-08
1.48055e-08
1.4376e-08
-1.43758e-08
3.92087e-12
-1.40043e-08
-1.88092e-08
1.88026e-08
3.96462e-12
-3.50758e-13
-1.40034e-08
1.03352e-12
1.54134e-08
-4.88507e-10
1.40027e-08
-7.44526e-12
5.22694e-11
1.41256e-08
-1.39773e-08
1.39633e-08
-1.41085e-08
1.87387e-08
2.15882e-11
-2.67052e-12
-1.26515e-11
1.47542e-08
1.75115e-11
-3.09702e-11
1.87869e-08
1.34945e-11
1.13215e-11
-8.52425e-12
1.37478e-08
-1.87171e-08
-1.53108e-11
2.10424e-11
1.92818e-08
2.11688e-11
2.2595e-11
1.8338e-13
2.39559e-11
-1.41137e-08
1.41176e-08
-1.48143e-08
-1.06142e-11
-1.86536e-08
1.96281e-11
2.74993e-10
-1.46968e-08
-1.10638e-11
-3.00792e-11
3.62856e-11
-1.37417e-08
1.43645e-08
-1.43481e-08
2.8572e-10
1.96677e-11
6.3897e-10
-1.51645e-08
1.45255e-08
1.8424e-11
-9.09609e-12
1.8761e-08
5.13738e-10
-1.92017e-08
1.53907e-11
1.4957e-08
-1.29367e-11
1.86954e-08
-5.12146e-13
-1.87216e-08
2.67558e-11
1.41297e-08
1.64701e-09
-1.6878e-11
2.91702e-11
1.47522e-08
7.22408e-12
1.72525e-12
-2.01228e-08
2.01387e-08
-1.70896e-11
-1.96266e-08
5.78971e-10
-2.16849e-08
1.6938e-09
2.08882e-11
-4.75413e-11
1.87128e-08
1.58504e-13
-2.10394e-11
1.27891e-09
2.82638e-10
-1.40065e-08
-6.18631e-14
1.40066e-08
-1.74548e-10
2.38824e-10
1.48456e-11
-1.37483e-08
1.3718e-08
3.03326e-11
-2.0078e-08
2.01636e-11
9.53964e-13
2.03454e-10
-2.31235e-10
2.02331e-08
-1.41023e-08
-2.02416e-08
-1.28253e-11
-1.38012e-08
1.38072e-08
-6.0444e-12
1.92776e-08
1.47523e-12
5.84246e-12
1.27925e-09
-1.39219e-08
1.38989e-08
2.30261e-11
-1.43393e-08
1.48034e-08
1.4361e-08
-1.43127e-08
1.43182e-08
-1.40276e-08
-1.34559e-08
-3.22978e-09
1.97149e-10
-2.22017e-10
1.93012e-08
3.68385e-11
1.69762e-11
-1.41356e-08
-1.69708e-08
-1.36111e-08
-5.74821e-12
8.9377e-13
1.38782e-12
1.04264e-11
-1.45232e-08
1.45373e-08
-1.40793e-11
1.50604e-08
-1.41228e-08
-1.3603e-08
1.35939e-08
9.14749e-12
-1.08809e-11
-2.58669e-11
-1.3659e-08
4.46629e-12
1.48435e-08
-1.4833e-08
-1.05292e-11
-1.51543e-08
4.57429e-10
-1.92529e-08
2.70888e-12
8.80778e-10
-1.38728e-08
1.38643e-08
8.57557e-12
1.22473e-12
2.01941e-08
4.02609e-12
-2.30097e-10
-1.37174e-08
-5.16212e-12
1.39913e-08
-1.39948e-08
-1.55302e-08
1.41894e-10
1.92893e-08
1.0044e-11
1.74245e-11
-1.48861e-08
1.48613e-08
2.48198e-11
1.92833e-08
2.29289e-11
-1.50303e-08
-3.41603e-11
-1.42239e-08
1.42165e-08
7.41604e-12
-1.90265e-11
-1.4569e-08
1.46078e-08
-3.8816e-11
-1.47632e-08
-1.1036e-08
1.20302e-08
-9.9414e-10
-3.0046e-11
-1.47781e-08
1.87324e-08
-2.67117e-10
-2.9695e-11
1.39172e-09
-4.27564e-11
-1.39135e-08
1.53808e-11
-1.45164e-08
-6.74895e-12
3.39738e-11
-1.48038e-08
1.48126e-08
-8.86448e-12
1.38358e-08
-1.37812e-08
-5.46136e-11
-1.42432e-08
1.93291e-11
-7.40616e-14
-4.23366e-11
-1.87472e-08
1.24205e-11
1.48509e-08
-7.41293e-12
2.58597e-11
4.12026e-11
-3.16878e-11
-3.9323e-12
-1.38609e-08
1.3844e-08
1.68872e-11
-1.39304e-08
8.4604e-12
-1.41754e-08
1.41864e-08
-1.09736e-11
9.28174e-10
4.43287e-12
2.8476e-12
-5.96779e-09
-4.1134e-11
-1.45031e-12
-2.44395e-11
-2.41104e-11
-6.46608e-12
3.86422e-11
-1.45266e-08
1.01943e-11
1.39378e-08
-1.39556e-08
1.78325e-11
1.89136e-11
7.41307e-12
7.71253e-12
4.329e-10
-1.38844e-08
1.38757e-08
8.76372e-12
-9.54513e-12
-3.04532e-11
-1.45566e-08
-1.41045e-11
1.45707e-08
2.01574e-11
-1.42034e-08
1.42082e-08
-4.81732e-12
-1.91172e-11
-2.1141e-11
1.4201e-08
1.54693e-11
-1.47915e-08
-1.224e-11
-7.98028e-12
1.39028e-08
-1.3913e-08
1.0209e-11
1.44525e-11
3.43612e-11
-9.53955e-09
1.07844e-08
-1.24482e-09
1.88978e-11
-1.38903e-08
1.38708e-08
1.95274e-11
-1.45616e-08
1.4568e-08
-6.41858e-12
8.24523e-12
-1.36344e-08
-1.16284e-12
1.36356e-08
1.37971e-08
-1.37914e-08
-5.65239e-12
1.48319e-08
-1.47987e-08
-3.31667e-11
8.61805e-12
1.25364e-11
-1.38015e-08
1.38131e-08
-1.15264e-11
-4.08227e-12
-1.48614e-08
1.48692e-08
-7.80963e-12
-1.45161e-08
-4.55328e-11
-1.47867e-08
-4.82233e-12
1.35706e-08
-1.35748e-08
4.20545e-12
-1.44047e-08
-1.11393e-10
2.83545e-12
-1.35561e-08
1.35602e-08
-4.07916e-12
1.41765e-08
-1.41368e-08
-3.97062e-11
4.71801e-10
-1.00114e-08
-1.4542e-08
1.54047e-11
-1.41649e-08
-1.05079e-11
1.45319e-08
-1.45456e-08
1.36306e-11
-1.4141e-08
1.41515e-08
-1.04908e-11
-1.3554e-08
-2.06689e-12
1.39045e-08
-1.3888e-08
-1.64557e-11
1.35721e-11
1.37974e-08
-1.37963e-08
-1.04478e-12
-1.35618e-08
1.35588e-08
3.03177e-12
-1.47713e-08
1.47717e-08
-4.43713e-13
-1.41326e-08
1.41314e-08
1.24694e-12
-1.47773e-08
-9.3672e-12
-1.4147e-08
1.44372e-11
1.49913e-08
-1.49063e-08
-8.50159e-11
1.43391e-08
-1.42538e-08
-8.53137e-11
1.45385e-08
-1.45275e-08
-1.09534e-11
-1.39113e-08
1.39083e-08
3.00224e-12
1.53298e-08
-3.38514e-10
-1.81027e-11
-1.4824e-08
-8.90359e-12
9.8527e-12
1.41937e-08
-7.29112e-12
-9.62311e-12
-1.14221e-11
-1.34568e-11
-6.84559e-12
1.35614e-08
-1.35618e-08
4.48984e-13
1.4521e-08
1.09384e-11
-5.2207e-11
1.35091e-08
-1.37916e-08
2.82453e-10
1.46194e-08
-3.98103e-12
-1.46154e-08
-8.83247e-12
-1.36256e-08
-3.39087e-13
-1.39127e-08
-9.66025e-12
1.46221e-08
-3.05089e-10
-1.4317e-08
1.87287e-08
3.01408e-11
-1.47823e-08
1.10216e-11
-2.78158e-10
-1.41265e-08
-1.47961e-08
1.3792e-11
-4.46285e-13
-7.32574e-10
-1.03035e-08
1.37999e-08
-1.38161e-08
1.61447e-11
-1.04994e-11
-5.62027e-12
-1.53415e-08
1.91718e-08
-3.83026e-09
1.46194e-08
9.36068e-15
4.75703e-12
-1.35927e-08
-1.03249e-11
1.46765e-08
-3.37361e-10
1.46075e-08
1.19538e-11
-1.45676e-08
2.55543e-11
1.45891e-08
1.84082e-11
1.35456e-08
-9.3145e-11
-1.34524e-08
-6.53816e-12
2.14646e-11
-4.71653e-11
1.35871e-08
6.77343e-12
8.64951e-12
-7.19391e-10
1.35672e-08
3.43077e-12
-4.17102e-12
-1.37445e-08
-3.66898e-11
5.53184e-12
-2.35386e-10
-7.43827e-11
-7.73201e-11
5.41279e-12
-1.35802e-08
5.38754e-12
1.38137e-08
-6.04892e-13
8.49955e-12
-1.38057e-08
9.3468e-12
1.3803e-08
4.18326e-12
-2.63475e-12
3.74081e-11
6.89051e-12
3.95594e-10
4.96288e-10
-2.35717e-10
2.4175e-10
-6.33357e-10
-1.38502e-09
2.20289e-09
1.0484e-09
-8.72996e-10
3.00116e-09
1.98826e-09
-1.26538e-09
-1.60568e-09
8.82797e-10
-9.70107e-09
-3.25166e-09
1.22322e-08
-1.13546e-09
-2.02793e-09
1.05761e-09
2.10578e-09
-1.04323e-09
-4.25902e-10
-1.1986e-09
8.29163e-09
-1.949e-08
3.26097e-11
-4.08575e-11
1.94792e-08
2.09965e-08
-2.09859e-08
4.11319e-11
2.55571e-11
-1.90266e-08
1.90084e-08
1.91029e-11
-1.85125e-08
1.85078e-08
-4.97864e-11
2.00139e-08
7.16575e-11
1.95416e-08
-1.95166e-08
2.00931e-08
-2.00631e-08
2.00286e-08
-2.00215e-08
-1.35533e-11
-1.87393e-08
1.87323e-08
5.9019e-12
2.00611e-08
-1.11608e-11
-9.47376e-12
4.689e-12
1.95545e-08
2.09935e-08
-2.098e-08
-1.90242e-11
2.00198e-08
-2.00016e-08
-2.67314e-11
-1.94846e-08
2.35092e-11
1.95004e-08
-8.03481e-12
2.09915e-08
1.15286e-11
3.2799e-11
-1.324e-11
-2.0019e-08
2.09749e-08
-2.09569e-08
-3.91802e-11
-1.95114e-08
1.95134e-08
1.89932e-12
1.95337e-08
-1.88949e-11
-1.95445e-08
-2.10292e-08
2.102e-08
1.93905e-11
-2.10185e-08
2.10182e-08
-6.51372e-12
2.00679e-08
-2.16123e-11
-2.00767e-08
-1.95333e-08
5.07379e-12
2.00603e-08
-1.97281e-11
2.10514e-08
-7.39825e-12
-2.10568e-08
-1.42404e-11
2.10321e-08
-9.82858e-12
1.95294e-08
-2.09094e-11
-1.05494e-11
-8.09637e-12
-6.04759e-11
2.09908e-08
-1.20996e-11
2.00514e-08
-1.39003e-11
2.01745e-08
-2.75714e-14
-1.94917e-08
2.78722e-11
-2.00234e-08
1.05588e-11
2.00351e-08
-2.10309e-08
2.10471e-08
-8.28104e-13
-1.94704e-08
-2.51617e-13
-6.4281e-12
-1.94752e-08
6.00441e-12
-3.02795e-11
-2.09576e-08
-2.982e-11
2.0161e-08
-2.01453e-08
2.00695e-08
-9.51203e-12
2.01625e-08
1.19697e-11
-2.00799e-08
2.00734e-08
2.4564e-11
-2.10552e-08
2.10466e-08
2.59214e-11
-1.94688e-08
-2.42772e-12
1.94871e-08
-1.94819e-08
-7.9345e-13
-1.95249e-08
1.95363e-08
-9.77482e-12
-4.00466e-13
-5.58531e-13
1.94783e-08
-1.947e-08
-4.70337e-12
-1.92629e-12
-5.96569e-12
2.10488e-08
1.14302e-11
-2.00179e-08
2.47929e-11
2.00781e-08
7.54885e-12
2.002e-08
-1.99924e-08
6.03462e-11
-2.00223e-08
2.84204e-11
1.95326e-08
-1.95481e-08
2.36654e-11
-2.09707e-08
2.09844e-08
-3.4292e-12
2.02164e-11
-1.94825e-08
-6.56873e-12
1.95352e-08
-1.95304e-08
-8.37002e-12
2.00893e-08
7.22145e-12
2.1057e-08
1.14402e-11
-1.9471e-08
-6.02608e-12
-1.99583e-08
1.82956e-10
1.9352e-11
2.10588e-08
1.63079e-11
2.00932e-08
1.95424e-08
3.33019e-12
2.09831e-08
-2.09939e-08
-1.65385e-11
1.99558e-08
4.80029e-09
-2.04853e-08
1.94574e-08
-1.94404e-08
-1.5031e-11
-1.99466e-08
6.17958e-10
2.09666e-08
-2.09684e-08
2.14557e-11
5.92386e-13
3.27997e-11
1.65621e-09
-2.09583e-08
-1.58313e-11
2.09905e-08
1.46791e-11
-1.87325e-08
1.55692e-10
1.78574e-08
-1.86686e-08
-8.17611e-11
1.87032e-08
-1.26243e-11
-6.77357e-12
-3.2192e-10
2.01051e-11
-2.09421e-08
2.01017e-08
-2.01435e-08
6.46825e-11
-1.97643e-10
2.10653e-08
-2.11012e-08
5.47487e-11
-2.00853e-08
2.00255e-08
6.2363e-11
5.04054e-11
2.10378e-08
5.02343e-11
2.00208e-08
-4.22347e-10
2.09699e-08
6.52319e-11
-1.03147e-10
2.08418e-08
-1.95666e-08
1.13784e-09
1.93096e-08
-9.00302e-11
1.98935e-08
1.35573e-09
-2.0172e-08
1.9866e-09
-2.1462e-08
2.10881e-08
-8.06548e-09
9.07519e-09
-1.56086e-08
5.82762e-10
5.50652e-10
-9.99494e-11
-3.52637e-09
8.2752e-10
5.82198e-10
1.81716e-09
-1.68701e-09
7.48643e-09
-7.83766e-09
-6.55217e-09
6.90341e-09
1.61665e-11
1.36194e-08
2.49667e-11
2.00747e-08
-1.61267e-11
1.35763e-08
6.20251e-12
1.42093e-08
-1.42155e-08
3.17424e-11
-1.48278e-08
3.08737e-11
-1.41779e-08
-9.55156e-12
1.45802e-08
2.87661e-11
-1.38448e-08
4.2763e-12
1.3904e-08
3.24021e-11
1.48316e-08
-1.4864e-08
3.94408e-11
1.41574e-08
-1.41968e-08
1.26923e-11
1.45553e-08
1.4911e-11
-2.0141e-08
4.8861e-11
-1.95924e-08
1.95737e-08
1.07318e-11
1.38239e-08
-1.38346e-08
1.539e-12
-2.10946e-08
-7.32314e-10
1.27625e-08
-2.72764e-10
-1.39813e-08
1.42541e-08
-9.35983e-10
-1.27476e-08
1.36835e-08
-1.57565e-09
1.236e-08
-4.63024e-10
9.35156e-09
-8.88854e-09
-3.64966e-10
4.35748e-10
-1.52616e-09
1.45538e-09
1.87333e-08
1.51216e-11
-1.91902e-08
2.69651e-11
1.87271e-08
-1.87197e-08
-1.90624e-08
1.90717e-08
-1.90523e-08
-2.85991e-12
-1.99318e-08
1.99561e-08
2.01774e-08
-2.59774e-11
-1.85304e-08
1.85403e-08
1.92321e-08
-1.92173e-08
-1.99335e-08
3.04744e-11
-1.90142e-08
3.45006e-11
2.01438e-08
-2.01469e-08
1.9015e-08
-1.63193e-11
1.79543e-08
-1.75488e-08
1.99232e-08
-1.24697e-11
-1.84975e-08
-1.04631e-11
1.77318e-08
-1.71287e-09
1.85543e-08
1.14612e-11
1.93652e-08
-1.89542e-08
1.55862e-08
-1.46566e-09
-1.45835e-08
1.22032e-09
1.8754e-09
2.34094e-09
3.51001e-09
-2.09436e-09
-3.75659e-09
-5.2479e-10
-2.20344e-09
6.36785e-10
2.09144e-09
-5.67441e-10
-8.78102e-10
7.75466e-10
4.26454e-09
-1.89487e-09
7.53041e-09
-5.85572e-10
-1.23955e-08
1.29811e-08
8.2469e-10
-9.7783e-10
-1.82525e-09
1.73621e-09
-1.00795e-08
1.18263e-08
3.7789e-09
-1.54105e-08
-2.89795e-09
1.016e-08
8.14846e-09
4.20009e-09
2.93215e-09
-3.78732e-09
-1.68361e-09
-1.31734e-09
-2.63906e-09
2.11618e-09
1.84021e-09
-6.91606e-09
-2.68024e-09
1.07527e-09
6.41988e-10
9.4323e-09
-9.86958e-09
1.08076e-09
1.35288e-09
7.53344e-10
-2.47554e-09
-8.99754e-10
2.05796e-09
4.41457e-09
8.80454e-10
1.35044e-09
5.35517e-10
-1.06127e-09
-1.13378e-08
-1.85934e-09
1.12829e-09
1.20688e-08
8.70659e-09
-1.98474e-11
-8.68674e-09
-1.0764e-08
1.07995e-09
1.45178e-08
-7.43457e-10
8.96889e-09
-8.2639e-09
-6.17933e-09
-2.54254e-09
2.82326e-09
2.33986e-09
-5.91383e-09
-8.0342e-09
3.59232e-11
1.72912e-11
8.3254e-09
3.85195e-09
-9.85161e-09
-2.53722e-09
6.60811e-10
-1.96034e-08
1.19763e-08
6.96628e-09
-7.00747e-09
4.81439e-09
-5.53919e-09
3.05772e-09
3.12114e-09
1.6157e-09
-1.36872e-08
-1.51632e-09
-9.19781e-12
4.41314e-09
1.3688e-09
1.3306e-09
7.59645e-10
5.43677e-09
-2.08576e-08
7.44692e-10
-3.92449e-09
5.07492e-10
2.03987e-09
2.7308e-09
-2.42973e-09
-1.36002e-09
4.24233e-10
4.29615e-10
9.74178e-09
-7.4983e-10
7.67244e-10
6.18593e-10
6.69868e-10
2.94224e-09
-1.53136e-08
2.67261e-09
1.2282e-08
3.58927e-10
6.63265e-09
3.60554e-09
-9.33635e-09
3.25191e-09
1.67482e-09
-4.43658e-09
5.8829e-09
3.01666e-09
1.56392e-08
-3.16332e-09
-1.74977e-08
-4.58089e-09
7.19022e-10
5.53668e-09
5.08503e-09
8.43576e-09
-2.66203e-09
-1.08588e-08
6.55486e-09
3.34405e-09
-2.53192e-09
-7.86707e-10
-9.7933e-10
-1.13397e-09
1.3494e-08
-4.5421e-10
1.32167e-08
1.63903e-12
1.45537e-08
-6.1785e-12
1.39102e-08
-1.31582e-11
1.45934e-08
-1.94271e-11
1.35957e-08
6.03237e-12
1.36134e-08
-1.83899e-08
5.82648e-10
1.75345e-08
-1.14382e-09
2.98244e-09
6.0722e-09
-4.25345e-09
4.21798e-09
6.19272e-09
-4.33849e-09
1.06796e-08
-1.43432e-08
2.40893e-09
7.01115e-10
-7.07042e-10
-1.54074e-12
-1.45357e-09
-9.75752e-12
1.38538e-08
2.24405e-09
-3.74848e-09
-2.10834e-08
-2.01268e-08
-2.01688e-08
-1.99785e-08
1.99387e-08
-2.09831e-08
2.02938e-08
-1.95751e-08
-1.92887e-08
1.9361e-08
-1.11706e-08
1.383e-08
-1.38647e-08
1.39001e-08
1.95224e-08
-1.95503e-08
-1.41229e-08
1.41488e-08
1.48129e-08
-2.08987e-08
2.08945e-08
1.48698e-08
-1.37275e-11
1.38274e-08
1.42084e-08
2.10668e-08
-2.10553e-08
2.01105e-08
-2.00931e-08
1.91336e-08
-2.00525e-08
2.00667e-08
-1.95114e-08
1.95003e-08
-2.10016e-08
2.10102e-08
1.41935e-08
2.0093e-08
-2.00976e-08
2.00628e-08
1.38631e-08
-1.87241e-08
1.86217e-08
1.95523e-08
-1.95542e-08
-1.9272e-08
-7.87517e-12
1.42089e-08
2.00521e-08
1.4848e-08
2.10522e-08
-2.10266e-08
-1.95328e-10
-6.89752e-09
-2.63972e-09
1.0926e-08
-8.48159e-09
-7.26589e-09
-1.23189e-08
1.10348e-09
-1.96766e-10
9.07446e-09
-3.84595e-11
6.39625e-10
2.01073e-08
-1.50629e-08
7.8094e-09
1.25299e-11
-2.01514e-11
1.69512e-11
-1.82468e-11
-1.90289e-08
-3.00525e-11
6.61057e-12
1.87138e-08
2.55991e-11
1.79392e-11
-1.56101e-11
-3.0154e-11
-1.84906e-08
-1.41399e-11
7.25354e-12
-1.92111e-08
-2.4617e-11
2.32563e-11
-6.08277e-11
2.72175e-11
-1.1574e-11
-1.50693e-12
-9.98501e-10
4.39323e-10
1.3994e-10
8.11948e-11
1.89021e-11
-5.73324e-12
2.01265e-08
1.89036e-11
-8.58241e-10
-1.46859e-09
4.3119e-12
1.90753e-08
-1.69543e-12
1.99796e-08
-2.38173e-09
1.81908e-09
-8.33726e-09
-3.19718e-09
-1.19798e-09
-9.48745e-10
-1.21412e-08
-3.72683e-09
-1.42268e-08
5.4468e-09
1.15734e-08
-1.43476e-08
-8.24076e-10
1.17317e-09
-2.2322e-12
9.6862e-12
1.87063e-08
-1.20228e-11
-1.90247e-08
-8.13173e-12
1.39631e-11
2.01207e-08
1.13148e-11
-1.85157e-08
-6.41818e-09
-1.68326e-08
-3.70018e-09
-3.05195e-09
2.35848e-08
4.83058e-10
2.11472e-09
-6.17073e-09
4.59408e-09
1.06827e-08
-1.19298e-08
6.69392e-09
2.32334e-09
-8.83813e-09
-1.90781e-08
1.7284e-08
9.59922e-09
-3.81324e-11
4.13886e-09
2.10716e-10
9.85911e-09
-5.23536e-09
2.02128e-08
-1.34832e-08
4.82714e-09
-4.98337e-10
-1.29238e-08
2.06296e-09
1.95488e-09
8.90597e-09
1.21082e-08
-9.59339e-09
-1.91509e-10
-2.43609e-09
1.11427e-08
6.57151e-09
-6.32286e-10
-9.55745e-12