/*--------------------------------*- C++ -*----------------------------------*\
  =========                 |
  \\      /  F ield         | OpenFOAM: The Open Source CFD Toolbox
   \\    /   O peration     | Website:  https://openfoam.org
    \\  /    A nd           | Version:  8
     \\/     M anipulation  |
\*---------------------------------------------------------------------------*/
FoamFile
{
    version     2.0;
    format      ascii;
    class       surfaceScalarField;
    location    "2.6";
    object      phi;
}
// * * * * * * * * * * * * * * * * * * * * * * * * * * * * * * * * * * * * * //

dimensions      [0 3 -1 0 0 0 0];

internalField   nonuniform List<scalar> 
9107
(
4.33469e-09
-1.07658e-09
1.15861e-09
-4.41671e-09
-4.74687e-09
5.15553e-09
-2.25204e-09
1.84338e-09
-1.9565e-09
4.80847e-09
-4.20262e-09
1.35065e-09
5.44535e-09
-1.26822e-09
-5.50598e-09
1.32885e-09
-1.9115e-09
-4.19273e-09
5.2585e-09
8.45732e-10
-5.42063e-09
5.25578e-09
9.06375e-11
7.42198e-11
5.59276e-09
-4.38388e-09
3.96659e-10
-1.60554e-09
-3.18693e-09
1.98115e-09
8.3295e-09
-7.12371e-09
5.39457e-09
-5.59657e-09
5.98701e-11
1.42135e-10
3.9696e-09
-4.45514e-09
5.06036e-11
4.3494e-10
5.26807e-09
-5.1227e-09
-9.04215e-11
-5.49454e-11
-5.4443e-09
5.28842e-09
1.0089e-10
5.49951e-11
-5.09362e-09
4.025e-09
1.2611e-09
-1.92482e-10
5.55998e-09
-5.48083e-09
-6.94914e-10
6.15761e-10
-7.34964e-09
6.06683e-10
1.48106e-09
5.2619e-09
3.52133e-09
3.39953e-09
-3.50088e-09
-3.41998e-09
6.649e-09
-8.50067e-09
-4.42077e-10
2.29375e-09
-6.6748e-09
7.37095e-09
-9.07648e-10
2.11499e-10
6.27364e-09
-5.97787e-09
1.78979e-10
-4.74756e-10
2.06634e-09
-1.79199e-09
-2.57263e-09
2.29828e-09
-4.62043e-09
-8.02116e-10
2.45916e-10
5.17663e-09
5.25067e-09
-5.42522e-09
8.25398e-11
9.20173e-11
-5.1677e-09
-2.1514e-09
1.66816e-09
5.65094e-09
5.16887e-09
-9.75161e-10
-4.43261e-09
2.38901e-10
8.49562e-10
-4.96637e-09
-3.81983e-10
4.49879e-09
4.49725e-09
-2.04105e-09
-3.99285e-09
1.53664e-09
-6.17192e-09
-2.0399e-09
8.62178e-10
3.49563e-09
-3.33349e-09
3.03742e-09
-3.19956e-09
-2.62913e-09
-3.0176e-09
3.07228e-09
2.57445e-09
1.39512e-09
4.28906e-09
-4.16108e-10
-5.01387e-09
5.86412e-09
-9.34474e-10
8.42189e-11
-1.78667e-09
-3.83062e-09
4.81734e-09
7.99946e-10
-4.73927e-09
3.46995e-09
-9.0448e-11
1.35977e-09
4.34153e-09
-4.82939e-09
3.28875e-10
1.58987e-10
5.36162e-09
-1.47995e-09
2.03182e-09
-5.91349e-09
1.61644e-09
3.60573e-09
-5.22216e-09
5.88611e-09
4.13949e-11
-5.41568e-09
-5.11823e-10
-6.2827e-09
5.59488e-09
5.76144e-10
1.11668e-10
4.81495e-09
-9.19465e-10
-4.14916e-09
2.53681e-10
-1.46135e-08
-2.7584e-09
7.33634e-09
1.00355e-08
-1.38908e-08
4.55667e-10
-8.02955e-11
1.35154e-08
-2.52573e-09
2.94559e-09
2.93294e-09
-3.3528e-09
6.62282e-09
-1.33881e-10
-2.15298e-10
3.35752e-09
-3.80148e-09
-3.32999e-09
3.77395e-09
2.63759e-09
-3.06765e-09
3.19502e-09
-2.76496e-09
1.22786e-09
-5.64706e-09
-7.485e-10
-3.12628e-09
3.35829e-09
-2.91142e-09
2.67941e-09
-4.6889e-09
4.42511e-09
8.96904e-12
2.54823e-10
-1.10921e-09
5.64649e-10
-4.62504e-09
5.16961e-09
3.57426e-09
-3.4592e-09
-3.27353e-09
3.15848e-09
-5.6553e-09
-8.86117e-10
-8.91876e-10
7.43329e-09
-4.64952e-10
6.83639e-11
8.88041e-11
8.8565e-10
1.76213e-10
1.24728e-10
3.37819e-09
-3.19285e-09
-1.0029e-08
9.84366e-09
-2.95908e-10
-1.18496e-11
-2.09386e-09
3.02446e-09
1.73358e-09
-2.66418e-09
-7.85978e-09
5.79146e-09
-8.19063e-10
2.88739e-09
7.22409e-09
-2.06232e-09
2.19005e-10
-5.38077e-09
-2.16241e-09
-2.09363e-09
1.92447e-09
2.33157e-09
7.08469e-11
-7.46596e-11
-6.5592e-10
1.10682e-09
-5.15958e-10
1.48506e-10
-4.40813e-11
4.11533e-10
-3.72565e-09
-3.25541e-09
3.43228e-09
3.54877e-09
-3.23754e-09
3.00327e-09
-3.13063e-09
3.36491e-09
-4.87417e-09
5.04779e-09
-4.61225e-10
2.87604e-10
5.50478e-10
6.25621e-10
5.8221e-09
-4.89973e-10
1.31687e-09
4.54419e-09
3.73628e-10
4.43799e-10
-1.17379e-08
-5.96902e-10
-1.55601e-09
-9.42666e-11
-7.5701e-11
3.86722e-09
-3.6006e-09
-2.53844e-10
-1.2775e-11
2.41877e-09
2.24759e-09
-1.74006e-09
-2.9263e-09
-2.91672e-09
-3.25207e-09
3.17146e-09
2.99733e-09
-2.63701e-09
3.29922e-09
-2.9873e-09
2.3251e-09
6.79847e-09
2.91905e-09
-5.31837e-09
-4.39915e-09
6.09273e-10
-4.71721e-09
-5.80969e-10
-4.82301e-09
3.8942e-09
-4.71743e-10
1.40056e-09
-5.08353e-09
-5.15158e-09
5.09594e-09
5.13917e-09
-8.30702e-11
-1.05457e-10
2.39318e-09
-1.77712e-09
1.8027e-09
4.49968e-09
-6.76128e-10
2.6474e-10
-4.0883e-09
-3.14388e-09
-1.89204e-09
6.63549e-10
4.37238e-09
1.77753e-09
-4.42448e-09
-9.44177e-10
3.59113e-09
-1.97399e-09
2.51474e-09
-9.60017e-09
9.05942e-09
3.26055e-09
-3.4134e-09
3.92734e-09
-3.7745e-09
-3.41404e-09
3.49649e-09
2.82452e-09
-2.90697e-09
1.02926e-10
5.80816e-09
-4.65733e-10
-4.67847e-09
-7.09259e-11
-1.24779e-10
-4.96948e-09
4.17284e-09
-3.40739e-09
4.20404e-09
-3.51682e-09
-1.20086e-09
9.91123e-10
3.72656e-09
-1.83405e-10
-1.67924e-09
6.32986e-09
-4.46721e-09
-3.23688e-09
-3.77296e-09
3.72572e-09
3.28412e-09
3.28953e-09
-3.36323e-09
-3.48885e-09
3.56256e-09
-3.5668e-09
3.30415e-09
-3.91636e-09
4.17901e-09
-3.18386e-09
2.77831e-09
3.96411e-09
-3.55856e-09
6.00885e-10
-4.04554e-09
-7.21691e-11
-3.35767e-09
3.39782e-09
2.85983e-09
-2.89998e-09
-2.27386e-09
-4.92329e-09
5.22022e-09
1.97693e-09
3.86612e-09
3.71587e-09
-3.82003e-09
-3.76196e-09
-3.26271e-09
-3.555e-09
3.58114e-09
3.23657e-09
1.3249e-08
3.28576e-09
-1.69158e-08
3.81029e-10
3.09304e-09
-3.16486e-09
-3.63764e-09
3.70946e-09
5.03793e-09
8.44694e-11
-1.84769e-10
-4.93763e-09
2.55839e-09
-2.82443e-09
-3.1457e-09
3.41174e-09
1.98382e-09
-4.65073e-09
-1.64131e-09
4.30821e-09
3.54357e-09
-3.35005e-09
3.70689e-09
-3.9004e-09
5.29767e-09
-5.57643e-10
2.97902e-10
3.65079e-09
-4.79969e-09
-4.89225e-09
6.04114e-09
2.1735e-09
-1.58355e-09
1.48025e-09
-2.07019e-09
3.15216e-09
-3.48484e-09
3.42571e-09
-3.10502e-09
-3.54467e-09
3.48484e-09
3.6742e-09
-3.49087e-09
-3.89786e-09
3.71452e-09
-4.62942e-09
4.07704e-09
5.93206e-11
4.93063e-10
3.10664e-09
-2.51261e-09
-3.15216e-09
2.55812e-09
-2.38329e-09
-3.37567e-09
2.45432e-09
3.30464e-09
-1.6344e-09
3.59264e-09
3.0587e-09
-2.46412e-09
-3.08993e-09
2.49535e-09
2.78612e-09
-2.75955e-09
3.0264e-09
-3.05296e-09
-2.25994e-09
-2.50456e-09
2.11785e-09
2.64665e-09
3.74855e-09
-3.67555e-09
-3.17802e-09
6.94283e-10
2.85885e-09
-3.55313e-09
9.52558e-10
6.4338e-09
-4.61558e-09
-2.77077e-09
4.67723e-09
-1.1445e-09
1.82097e-09
-5.3537e-09
2.45286e-09
-2.64424e-09
3.32741e-09
-3.13603e-09
-5.26313e-10
9.17599e-11
-8.14051e-11
2.78186e-09
-2.84979e-09
-3.36182e-09
3.42976e-09
-3.26123e-09
3.14285e-09
3.86969e-09
-3.75131e-09
2.80308e-09
-2.62286e-09
2.06737e-09
-5.29572e-09
1.24952e-09
-4.259e-10
4.4721e-09
3.4421e-09
4.19502e-09
-4.07258e-09
-3.56454e-09
-4.48639e-09
-1.01816e-09
4.39534e-09
4.96916e-10
1.71337e-10
2.67563e-09
6.08442e-09
-7.30208e-09
-1.45797e-09
3.67014e-09
-3.43105e-09
3.90062e-09
-4.13971e-09
4.69473e-09
-5.17255e-09
-3.86821e-09
4.34603e-09
-1.12802e-08
7.06357e-09
-1.20935e-08
1.63102e-08
-4.30118e-09
4.58129e-09
2.84543e-10
3.02468e-09
-3.13598e-09
3.45861e-09
-3.3473e-09
5.74023e-09
1.30291e-09
-3.20624e-10
-6.72252e-09
6.7421e-10
3.12599e-09
-3.85116e-09
5.09601e-11
3.50352e-09
-8.3607e-10
-2.99441e-09
3.26957e-10
-1.90523e-09
2.4386e-09
-1.51468e-08
2.78629e-09
-2.95535e-09
3.24191e-09
-3.07285e-09
2.52092e-09
-2.71754e-09
1.39058e-09
-1.19395e-09
5.30473e-09
-5.20262e-09
6.19467e-10
-7.21576e-10
4.56608e-09
4.45649e-09
-3.52764e-09
-5.49493e-09
-4.21218e-09
1.07551e-09
4.91419e-09
3.76559e-09
-5.55742e-10
2.93671e-10
2.41786e-09
6.21935e-09
-2.16693e-09
-6.47029e-09
3.84423e-09
-4.47726e-09
1.1526e-09
-5.19577e-10
4.46788e-09
9.49631e-09
-3.89825e-09
-1.00659e-08
5.9396e-09
-5.22014e-09
5.96949e-11
-7.7915e-10
-2.82117e-09
3.45756e-09
3.2882e-09
-3.92459e-09
-6.56564e-10
4.14321e-09
-3.67039e-09
1.83743e-10
5.67707e-09
-9.98869e-11
-5.82681e-09
2.49634e-10
1.27183e-09
-4.04666e-09
-5.67978e-10
3.34281e-09
2.02945e-09
-7.44587e-10
5.5136e-09
-3.3004e-09
3.60793e-09
-3.57025e-09
3.29099e-09
3.57025e-09
-3.57171e-09
5.87653e-10
4.4102e-09
-4.98096e-10
-4.49975e-09
-1.92145e-09
9.17421e-10
-2.00521e-09
3.00924e-09
-2.7416e-09
3.33399e-09
3.25304e-09
-3.84543e-09
-4.15297e-09
4.54844e-09
1.67314e-10
-5.62788e-10
4.04446e-09
3.96174e-10
2.36597e-10
3.75314e-09
-3.94477e-09
4.79947e-09
-4.60783e-09
2.75539e-09
-2.78905e-09
3.08483e-09
-3.05117e-09
5.96137e-10
-5.62635e-10
-1.51108e-10
5.62848e-09
-7.19282e-09
1.71545e-09
5.44363e-09
-2.62189e-09
-4.97661e-09
2.15487e-09
3.45898e-09
-3.38263e-09
3.37266e-09
-3.44901e-09
-2.75165e-09
2.72295e-09
-3.14066e-09
3.16936e-09
4.56147e-09
-4.55585e-09
-1.52416e-10
1.46802e-10
-1.0782e-11
-6.51509e-11
3.38719e-09
-3.34872e-09
2.86441e-09
-2.90288e-09
-2.44396e-09
3.61928e-09
2.46336e-09
-3.63867e-09
3.73514e-09
-3.68962e-09
3.12738e-09
-3.1729e-09
6.74586e-09
8.05741e-09
-1.05037e-08
-4.29957e-09
2.67001e-09
2.84031e-09
-2.95193e-09
1.18007e-09
-4.7851e-09
4.536e-09
-9.30968e-10
-2.89015e-10
-4.35369e-09
4.50108e-09
1.41626e-10
-1.70944e-09
2.95076e-09
1.90959e-09
-3.15092e-09
4.44852e-09
-4.55889e-09
-8.45825e-11
1.94954e-10
1.73152e-09
1.86461e-09
4.29878e-09
-7.89491e-09
-5.56073e-09
-2.30681e-10
4.90275e-09
8.88669e-10
-3.98448e-09
4.28294e-09
2.89666e-09
-3.19511e-09
3.28079e-09
-1.05027e-08
-2.53955e-09
9.76143e-09
-3.2131e-09
3.65618e-09
3.48858e-09
-3.93166e-09
1.55367e-09
-4.36171e-09
3.64364e-09
3.9004e-09
-3.86983e-09
-3.80816e-09
2.8848e-09
4.78948e-09
2.11325e-09
-4.77177e-09
4.93581e-09
-5.67374e-09
4.73933e-11
6.90532e-10
3.70573e-10
5.44312e-10
4.42842e-09
-5.34331e-09
-3.01131e-09
3.37337e-09
3.4325e-09
-3.79457e-09
5.11804e-09
-4.74471e-09
3.93225e-09
-4.30558e-09
-8.45175e-09
-2.37413e-09
6.43041e-09
4.39546e-09
-3.97938e-09
-1.70898e-10
-5.28183e-10
-3.07136e-09
3.2405e-09
3.25657e-09
-3.42571e-09
-5.46855e-09
-2.17817e-10
2.05541e-10
2.83167e-09
3.05296e-09
-3.10277e-09
4.10792e-09
1.87384e-10
-5.29715e-10
4.87171e-09
3.26849e-10
-6.08598e-09
8.8742e-10
6.32274e-09
1.30768e-09
-4.71136e-09
-1.77658e-09
8.32492e-09
2.56008e-09
-9.10842e-09
-3.55371e-09
3.62184e-09
-3.14841e-09
3.08028e-09
-4.69733e-09
-6.31472e-09
6.14717e-09
4.86487e-09
-2.80674e-09
-2.45487e-09
2.11772e-09
-1.26555e-08
-7.39817e-09
1.34205e-08
6.63318e-09
3.7349e-09
-3.7099e-09
3.15738e-09
-3.18238e-09
-2.48927e-09
4.17991e-09
-5.78663e-09
4.096e-09
3.96593e-11
4.65771e-10
-4.50102e-09
3.99559e-09
-5.22364e-09
4.8234e-09
-3.89743e-09
4.29767e-09
-2.06234e-09
-9.72485e-09
6.38059e-09
5.40659e-09
-3.70765e-09
3.78846e-09
2.96195e-09
-3.09574e-09
3.3473e-09
-3.21351e-09
-4.70668e-09
4.73392e-09
1.32048e-10
-1.59283e-10
-4.62407e-09
1.22991e-09
3.39416e-09
3.26404e-09
-3.15313e-09
-3.09125e-09
3.37673e-09
3.61193e-09
3.12429e-09
-3.71154e-09
4.22812e-10
3.98905e-09
-4.35387e-09
-5.79884e-11
-1.60044e-09
-3.4614e-09
3.90805e-09
1.1538e-09
3.80545e-09
-2.8848e-09
-3.40992e-09
-4.50306e-09
-3.12819e-09
4.04641e-09
3.58484e-09
-1.18014e-08
3.5667e-10
-2.93217e-10
4.49969e-09
-4.14695e-09
-1.53704e-10
-1.99034e-10
4.41185e-09
1.30087e-10
-4.34017e-10
3.72349e-09
-3.71091e-09
3.15874e-09
-3.17132e-09
-5.68562e-10
-5.35355e-11
9.57847e-11
-4.01463e-09
4.98116e-09
4.27856e-10
-1.39438e-09
-5.32783e-09
5.65976e-10
4.84629e-09
-8.44395e-11
3.48831e-09
-2.72833e-09
3.37815e-09
-4.13813e-09
1.69923e-09
4.77565e-09
-9.05158e-10
-5.56973e-09
2.98239e-09
3.72058e-09
-3.64326e-09
-3.0597e-09
7.89162e-09
1.95999e-09
-7.61411e-09
-2.2375e-09
5.58338e-11
-5.94546e-10
5.38713e-10
-3.03398e-09
3.35108e-09
-3.22806e-09
-3.70689e-09
3.57171e-09
4.41597e-09
-8.99484e-11
-4.61504e-09
3.72611e-09
-3.7224e-09
-3.17852e-09
3.17481e-09
-6.37339e-10
1.24612e-10
1.9509e-09
-3.05949e-10
-1.66319e-09
1.82378e-11
-5.15636e-09
4.71107e-09
-4.0871e-09
4.53239e-09
2.69272e-09
3.21134e-09
-3.0891e-09
-2.81495e-09
3.23997e-09
-3.17646e-09
3.61078e-09
-3.67428e-09
3.315e-09
2.98735e-09
-3.51606e-09
-3.27174e-09
-3.3901e-09
3.53635e-09
3.12549e-09
3.86819e-09
-3.84139e-09
4.35676e-09
-4.38357e-09
-3.36355e-09
3.67906e-09
-3.22329e-09
-3.61078e-09
3.57284e-09
-5.56397e-09
1.00871e-11
2.11262e-11
5.53275e-09
-5.23511e-09
2.43419e-11
2.10553e-13
5.21056e-09
4.30029e-09
-1.8961e-11
-1.94865e-11
-4.26184e-09
-4.18061e-09
5.87176e-12
-3.23836e-11
4.20712e-09
4.46758e-09
8.03622e-12
-8.04609e-11
-4.39515e-09
4.39841e-09
1.47667e-11
-7.37325e-11
-4.33944e-09
4.58614e-09
-9.01481e-12
-2.49555e-11
-4.55217e-09
-5.29441e-09
-8.11782e-12
6.61035e-11
5.23643e-09
-1.44624e-08
1.16014e-08
9.55705e-10
-2.62413e-09
2.82743e-09
-2.84031e-09
3.34604e-09
3.96454e-09
-4.85772e-09
-3.2811e-09
2.74996e-09
3.31725e-09
-2.91747e-09
-3.5896e-09
3.10819e-09
3.39888e-09
-2.8248e-09
-3.49623e-09
2.96208e-09
3.35895e-09
4.01749e-09
-3.84722e-09
4.04142e-09
-4.21169e-09
3.91805e-09
-4.05016e-09
4.13977e-09
-4.00766e-09
-5.4226e-09
-7.80768e-11
7.54569e-11
-5.61856e-09
1.84637e-11
2.76913e-11
5.5724e-09
1.89839e-09
-9.47041e-09
8.7698e-09
-1.19778e-09
4.69999e-09
5.399e-11
-1.22989e-10
-4.631e-09
4.82724e-09
4.92989e-11
-1.0631e-10
-4.77023e-09
2.85541e-09
-3.65673e-09
-6.49654e-09
7.29786e-09
-2.01768e-09
-4.2535e-10
-6.05764e-09
1.55765e-09
-9.38421e-09
-4.31598e-12
7.83087e-09
3.74827e-09
-4.30586e-09
-5.09821e-09
5.6558e-09
-1.02073e-08
4.20715e-09
-2.45156e-09
1.93044e-09
4.26365e-09
-5.95894e-09
-2.35153e-10
3.70778e-09
-3.70411e-09
-3.16726e-09
3.16359e-09
-3.67193e-09
3.71486e-09
3.16392e-09
-3.20685e-09
-3.08022e-10
4.21682e-09
5.39726e-10
4.13924e-09
-4.55624e-09
3.95039e-09
-3.53339e-09
-2.75561e-09
-3.26909e-09
2.74361e-09
-8.97187e-10
1.13596e-10
4.16749e-09
7.83999e-10
-4.41008e-09
-5.41403e-10
-4.3419e-10
1.84275e-10
4.79411e-09
4.94313e-09
1.45364e-11
-3.76382e-10
-2.68401e-09
-3.11839e-09
3.05075e-09
-3.91198e-09
3.88735e-09
4.74463e-09
-4.72e-09
-3.28555e-09
-2.10553e-09
2.37476e-09
3.01632e-09
3.66215e-09
-3.32741e-09
6.53765e-09
-4.63335e-10
-1.90682e-09
3.34397e-09
-3.11536e-09
2.72395e-09
-2.95256e-09
-5.10593e-09
1.67084e-09
6.13848e-09
-2.70339e-09
-3.0264e-09
2.95193e-09
-6.20913e-10
2.63663e-11
-2.11903e-09
3.61144e-09
2.64255e-09
-4.13496e-09
-4.66028e-09
-3.36138e-09
4.65811e-09
-3.2113e-09
3.25452e-09
4.775e-09
-4.81822e-09
3.74918e-09
-3.72551e-09
-6.95848e-09
-1.3373e-08
5.86911e-09
-7.27636e-09
3.89197e-09
6.75816e-09
-3.37378e-09
-3.92462e-09
-3.61003e-09
4.04699e-09
3.48767e-09
9.846e-10
-7.40896e-10
4.0876e-09
-4.3313e-09
-4.73074e-09
-1.87308e-09
6.60381e-09
3.99268e-09
1.23885e-10
-4.63555e-09
5.18985e-10
-7.37289e-11
7.63018e-11
2.94847e-09
1.88055e-09
-1.91086e-09
-2.91816e-09
-2.67161e-09
-3.11469e-09
3.66727e-09
3.93735e-09
4.13971e-09
-4.32392e-09
-9.25129e-10
-4.26212e-10
5.85103e-09
-3.24441e-09
3.54571e-09
4.08731e-09
-4.38861e-09
4.31451e-09
-4.59097e-09
5.3945e-09
3.47526e-09
-4.7333e-09
-3.37221e-09
4.63025e-09
2.72253e-09
3.05117e-09
-3.05075e-09
-6.08638e-10
-1.22749e-11
-6.86064e-11
2.02049e-10
3.79578e-09
-3.92922e-09
-4.56645e-09
3.46102e-09
2.68472e-09
-1.5793e-09
2.74535e-09
3.11839e-09
-3.17102e-09
9.0965e-09
2.52884e-09
-1.63615e-09
-9.98919e-09
4.35018e-09
-4.39354e-09
-1.158e-10
1.59166e-10
-6.14752e-10
1.58226e-09
5.57015e-09
3.55779e-09
-3.72628e-09
-3.0101e-09
3.17859e-09
-3.17198e-09
-3.23461e-09
3.76234e-09
6.97585e-09
-6.06951e-09
-9.62904e-10
5.65664e-11
-3.86255e-09
4.60015e-09
-4.47684e-09
3.73924e-09
-4.92371e-09
3.52249e-09
5.05201e-09
-3.94798e-09
-4.39219e-09
4.42819e-09
1.66274e-09
-1.9659e-09
3.7725e-09
-3.61273e-09
-3.31159e-09
3.15182e-09
4.7763e-09
-5.23793e-09
3.17618e-09
-3.21625e-09
-4.16135e-09
4.20142e-09
1.15194e-08
-2.67633e-09
-4.23541e-09
4.56226e-09
3.97194e-09
-3.82457e-09
4.57494e-09
-4.72231e-09
2.6104e-09
-5.60629e-09
5.67152e-09
-3.46008e-09
-3.90062e-09
3.86983e-09
-3.15713e-09
-3.58044e-09
-4.861e-09
7.65104e-10
-6.31651e-10
4.72755e-09
-4.41352e-09
5.35818e-09
-4.13977e-09
3.19511e-09
7.31115e-10
5.0226e-09
-1.67725e-09
-4.07647e-09
3.18539e-09
-3.1938e-09
-4.15618e-09
4.16458e-09
2.54639e-09
-3.62588e-09
4.53847e-09
3.60927e-09
-3.24175e-09
3.23577e-09
-2.5738e-09
3.22172e-09
-3.60327e-09
2.23632e-09
4.3206e-09
-3.24191e-09
-3.76214e-09
-1.03883e-09
2.45111e-10
-4.53853e-09
4.79661e-09
-5.35222e-09
-3.67784e-09
4.23037e-09
-8.49886e-09
5.95107e-09
1.74686e-10
2.3731e-09
4.08399e-09
-1.46597e-10
-3.93739e-09
3.12805e-09
-2.6049e-09
2.68819e-09
3.81674e-09
-4.42771e-09
-4.77681e-09
5.38777e-09
-3.69887e-09
5.49945e-12
4.68263e-09
-9.89263e-10
3.84179e-09
3.1086e-09
-2.01454e-09
-4.93585e-09
-4.72313e-09
1.07041e-09
3.65272e-09
3.84628e-09
4.51751e-09
-4.39185e-09
3.85161e-09
6.3114e-10
-4.48275e-09
-4.93372e-09
4.39316e-09
3.85394e-09
-3.31338e-09
2.10064e-09
-1.66238e-09
-2.17832e-09
-9.91628e-12
6.09971e-09
-5.98686e-09
-6.01704e-09
7.25545e-09
1.1615e-08
-1.28534e-08
4.93914e-09
-4.15749e-12
9.84291e-11
-5.03341e-09
-2.60118e-09
-3.04547e-09
3.07285e-09
-7.43129e-09
6.87134e-09
7.04926e-10
-1.44981e-10
-3.43428e-09
3.39562e-09
2.88646e-09
-2.8478e-09
7.70003e-10
-5.09956e-10
-4.13534e-09
3.8753e-09
-2.0713e-09
2.32198e-09
-5.22555e-09
4.97488e-09
3.55856e-09
-3.57284e-09
3.00975e-09
-3.16602e-09
5.28962e-09
-5.13335e-09
-1.87736e-09
4.83777e-09
1.97385e-10
-3.1578e-09
-5.24493e-10
4.19022e-09
-4.32229e-09
3.68532e-09
4.57212e-09
1.37947e-10
-2.98213e-10
4.47479e-11
-1.79315e-10
8.1447e-10
4.08559e-09
-3.67055e-09
-1.22951e-09
1.11528e-10
-6.08882e-09
6.20778e-09
-2.30482e-10
-4.11615e-12
-4.22704e-09
4.1881e-09
4.30568e-11
-2.30283e-11
-5.6592e-09
5.62598e-09
5.6243e-11
1.95402e-11
4.53002e-09
-4.46014e-09
-8.94266e-11
2.11558e-11
4.33132e-09
-4.23229e-09
-1.2018e-10
-3.61982e-09
7.78186e-11
4.10217e-09
-5.60172e-10
-7.78317e-12
4.349e-09
-4.32265e-09
-1.85701e-11
6.61445e-12
-5.3169e-09
5.28683e-09
2.34586e-11
5.60882e-12
-5.96395e-09
6.03104e-09
-7.26989e-11
2.61179e-12
-4.18187e-09
4.16126e-09
1.79985e-11
8.61137e-12
-5.63212e-09
5.60991e-09
1.36036e-11
-3.85836e-09
7.78898e-11
4.36163e-09
-5.81152e-10
1.24744e-11
-5.28839e-09
5.26192e-09
1.40016e-11
-3.6552e-09
6.94726e-11
4.1216e-09
-5.35871e-10
-6.25308e-12
4.32632e-09
-4.30205e-09
-1.80159e-11
-5.90233e-09
-8.35575e-12
5.94216e-09
-3.14825e-11
1.6342e-11
-5.62146e-09
5.59985e-09
5.26711e-12
1.80128e-11
-5.26649e-09
5.23921e-09
9.2666e-12
1.86141e-11
-5.60702e-09
5.58268e-09
5.72398e-12
1.48456e-11
-5.58577e-09
5.55472e-09
1.62041e-11
6.78187e-09
-6.27437e-09
-6.60085e-10
1.5259e-10
-2.41115e-09
-7.77545e-09
8.41003e-09
3.75464e-09
-3.20806e-09
-3.95413e-09
3.40755e-09
-1.56885e-09
5.16697e-09
2.46119e-10
2.83441e-09
-2.90302e-09
5.09399e-09
-4.84012e-09
-6.90103e-10
4.36237e-10
-3.74261e-09
-1.60168e-11
-3.8832e-10
3.33614e-09
-3.54194e-09
3.74458e-09
-3.53878e-09
2.65274e-09
-3.65977e-09
-4.07174e-09
5.07877e-09
-4.61887e-09
4.85964e-09
6.16749e-09
-7.02663e-09
-1.94854e-09
2.80768e-09
2.86774e-09
-3.37326e-09
3.26092e-09
2.36245e-09
-7.53105e-09
4.90566e-09
2.62933e-10
2.97104e-09
-3.05563e-09
-7.62156e-10
1.38676e-09
4.46939e-09
-5.64225e-09
1.5626e-08
4.09993e-09
-1.40837e-08
-2.66302e-09
-2.85153e-10
2.94817e-09
3.44783e-09
-4.18519e-09
5.05187e-09
3.67427e-09
-5.27229e-09
4.25076e-09
2.19683e-10
-5.28912e-10
3.18939e-09
3.48866e-10
-3.13052e-10
-5.645e-10
5.28686e-10
-3.18698e-09
3.49553e-09
-3.22601e-09
-3.13507e-09
3.48664e-09
-3.17636e-09
-3.08483e-09
3.10277e-09
-3.09845e-09
2.78098e-09
-2.94719e-09
3.26466e-09
-5.61189e-09
-2.93622e-09
8.54811e-09
3.30237e-09
3.09779e-09
-3.17722e-09
3.14365e-09
-4.06965e-09
4.10322e-09
2.24571e-10
1.11967e-09
-1.35039e-09
6.14595e-12
-3.47361e-12
4.10947e-09
-4.04831e-09
-5.76817e-11
-3.48714e-09
4.08141e-09
3.23312e-09
-3.8274e-09
1.36083e-10
-2.63167e-10
-5.48967e-09
-4.287e-09
3.20675e-09
6.56992e-09
4.53515e-09
8.17051e-11
-4.73643e-10
-3.92024e-09
1.23083e-09
4.22845e-09
-1.53904e-09
-1.82641e-09
-1.30031e-08
1.01321e-08
5.91969e-09
-5.36588e-09
-4.89222e-09
4.33841e-09
3.47508e-09
-3.37266e-09
8.94035e-10
-1.31735e-09
1.45976e-08
-1.41743e-08
2.67341e-09
3.22601e-09
-2.99068e-09
-2.90874e-09
2.62124e-09
3.17636e-09
-2.94047e-09
-2.85714e-09
-3.84963e-09
1.98135e-10
4.23915e-09
3.90792e-09
-4.42149e-09
3.82832e-09
-4.34215e-09
-6.08596e-09
-1.12398e-09
5.31906e-09
1.89088e-09
-5.8401e-09
-1.48172e-10
5.70979e-09
2.78484e-10
-5.4019e-09
-5.39443e-11
5.33073e-09
1.25121e-10
-4.33447e-09
-5.93072e-11
4.26201e-09
1.31762e-10
3.12935e-09
-3.28177e-09
5.1787e-09
-5.1471e-09
1.25007e-11
-5.34304e-09
5.31819e-09
1.23485e-11
-1.45981e-11
4.58699e-09
-4.54502e-09
-2.73672e-11
2.13761e-11
4.27634e-09
-4.2057e-09
-9.20179e-11
-9.76526e-12
4.37539e-09
-4.33782e-09
-2.78075e-11
-9.03323e-12
4.38071e-09
-4.35499e-09
-1.6691e-11
-4.98083e-12
4.61932e-09
-4.5915e-09
-2.28402e-11
-3.92552e-09
1.26827e-10
4.50342e-09
-7.04723e-10
-1.07672e-10
-4.01764e-09
3.5741e-09
5.51214e-10
-5.18986e-09
6.91609e-09
-7.38086e-09
5.65464e-09
3.1374e-09
-3.38573e-09
-4.08089e-09
4.32922e-09
-1.18241e-09
1.6851e-08
-1.47745e-08
-3.17096e-09
3.06441e-09
-3.92245e-09
-2.58265e-09
3.44069e-09
-4.90929e-09
4.91447e-09
5.25994e-12
-1.04362e-11
-3.5189e-09
-4.60402e-10
3.9793e-09
-5.25749e-09
4.96782e-09
9.90349e-10
-7.00674e-10
3.78298e-09
-5.0986e-09
-3.57662e-09
-4.69209e-12
3.88675e-09
-3.88205e-09
3.53977e-09
-3.54918e-09
3.20636e-09
-4.24022e-09
4.29789e-09
-3.95946e-09
3.83475e-09
5.29879e-09
3.14875e-11
-4.58326e-09
4.6695e-09
-1.17725e-10
3.44266e-11
-4.5063e-09
4.58665e-09
-1.1477e-10
-7.60891e-10
8.09547e-09
-1.59435e-09
4.86328e-09
1.69511e-11
-3.79154e-10
1.11753e-09
4.75731e-09
-1.35247e-09
-4.52236e-09
3.07638e-09
-3.32149e-09
-5.68187e-09
5.92697e-09
8.09489e-09
-1.03472e-08
5.63051e-09
5.76412e-09
2.6594e-09
-1.05517e-09
-7.36834e-09
3.75032e-09
-3.7915e-09
3.1056e-09
1.82596e-11
-4.977e-09
5.02441e-09
-6.56727e-11
3.20817e-09
3.19897e-09
-1.33661e-08
1.51696e-08
-7.82053e-09
2.43537e-09
-6.18613e-09
5.80945e-09
-2.0587e-09
-3.85896e-09
4.36141e-09
-5.0558e-09
4.23798e-09
-3.54359e-09
3.60158e-09
2.9836e-09
-3.06947e-09
-3.51571e-09
-1.633e-10
-5.65222e-09
4.87693e-10
1.95568e-10
-1.05294e-10
3.95084e-09
-4.04112e-09
5.25393e-09
-5.21688e-09
-4.17378e-11
-4.93905e-09
4.97418e-09
1.32719e-11
-4.84067e-11
4.46118e-10
-7.63253e-09
3.17178e-09
4.08411e-09
-3.65155e-09
-3.70518e-09
3.27262e-09
-4.39439e-09
4.72831e-09
-4.24848e-09
3.91456e-09
-3.95707e-09
3.97533e-09
6.86091e-09
-6.06664e-09
-1.3737e-09
5.79423e-10
2.94694e-09
-2.95041e-09
2.74989e-09
-2.70401e-09
3.90572e-09
-5.31879e-09
-3.15338e-09
-1.39311e-09
6.69907e-11
1.49176e-09
-3.02551e-09
3.92694e-09
2.68914e-09
-2.92095e-09
-3.14145e-09
4.19508e-09
5.28711e-10
3.93198e-09
4.38357e-09
-4.42819e-09
-4.65966e-09
-3.28458e-09
4.08169e-09
-4.44034e-09
4.39185e-09
-3.77608e-09
1.46493e-08
-3.77658e-09
-1.6515e-08
3.76699e-09
-3.88471e-09
-2.58067e-10
3.98907e-09
-4.31244e-09
4.29532e-09
-3.36551e-09
-5.44795e-09
-4.02449e-10
1.02738e-09
-4.56054e-09
1.24989e-09
4.58248e-09
-5.14276e-09
-8.66291e-12
9.45557e-11
5.05686e-09
-3.91193e-09
-4.35676e-09
4.32392e-09
-4.13963e-09
1.36763e-11
-4.19766e-11
4.16793e-09
-4.16823e-09
1.79775e-11
1.00384e-11
4.14022e-09
-4.22285e-09
1.14745e-11
1.4255e-11
4.19712e-09
-5.24085e-09
2.5637e-11
-1.74613e-11
5.23267e-09
-4.26353e-09
1.27226e-11
1.00369e-11
4.24077e-09
4.73422e-09
-2.21085e-11
1.2868e-11
-4.72498e-09
4.58526e-09
-1.13729e-11
-2.74577e-11
-4.54643e-09
-4.6117e-09
3.86576e-10
-7.71819e-10
4.99694e-09
-3.8422e-09
-2.78422e-09
3.47801e-09
-5.42449e-09
-4.33802e-09
5.36962e-09
4.39288e-09
5.28627e-09
-1.4822e-09
7.8687e-10
-4.59094e-09
-3.40814e-09
3.54608e-09
-3.27805e-09
2.03336e-09
-3.55919e-09
7.80985e-09
-2.32938e-09
-1.29486e-10
2.0607e-10
3.81307e-09
-3.88966e-09
3.52322e-09
-3.43668e-09
4.76007e-09
-4.90142e-09
3.27523e-09
-3.13387e-09
-3.1786e-09
-4.90676e-09
9.41422e-11
5.5182e-09
-7.05578e-10
2.13309e-11
4.51838e-09
-5.04722e-09
5.0751e-10
-7.60936e-12
-4.9527e-09
5.51601e-09
-5.55697e-10
-2.35038e-11
-4.83881e-09
5.37556e-09
-5.13247e-10
5.0521e-09
-7.35739e-09
-2.49682e-09
4.80212e-09
-2.92097e-10
6.25259e-09
-7.37907e-09
1.41858e-09
-9.42225e-09
3.60678e-09
-3.09803e-09
-4.07339e-09
3.10883e-09
4.06259e-09
3.59464e-09
-4.00332e-09
6.04257e-10
3.72551e-09
-3.83475e-09
-3.48563e-09
-1.04285e-11
3.49606e-09
-3.45778e-09
3.44957e-12
3.45434e-09
-3.46351e-09
1.27091e-11
3.4508e-09
-3.48584e-09
1.43086e-11
3.47154e-09
-3.41464e-09
-2.24185e-11
3.43706e-09
3.38212e-10
2.66861e-09
-3.00682e-09
3.78159e-10
3.38388e-09
-3.76203e-09
8.31458e-10
2.85355e-09
-3.68501e-09
6.33259e-11
3.47381e-09
-3.53713e-09
3.20947e-09
6.58177e-11
-3.27529e-09
-6.57254e-12
-3.84573e-09
3.8523e-09
-3.58622e-09
-6.20859e-11
3.64831e-09
8.63348e-10
3.45481e-09
-4.31816e-09
-2.69744e-09
3.33481e-09
-3.24228e-09
2.22157e-09
5.32178e-09
-3.78872e-09
-3.85355e-09
3.12987e-10
2.21506e-11
5.60412e-09
-6.29367e-09
6.67404e-10
4.78238e-09
-4.5934e-09
-2.90476e-09
8.37878e-09
2.93601e-09
-4.93925e-09
5.65698e-10
4.55888e-09
-1.85323e-10
-4.42313e-09
5.48082e-10
-7.36656e-10
-3.1349e-10
-6.33979e-09
1.44386e-09
5.20942e-09
-3.2912e-09
3.31746e-09
-3.9131e-09
3.88684e-09
3.62435e-10
-6.25051e-09
-7.27567e-10
6.61565e-09
-3.67909e-09
-3.90903e-09
4.38005e-09
-1.10226e-09
9.79198e-10
-4.26813e-09
4.39119e-09
-5.12413e-09
5.10891e-09
8.36019e-10
-1.78126e-09
5.10376e-09
-4.15853e-09
1.3688e-10
5.69017e-09
-7.20649e-10
-5.1064e-09
4.93726e-09
-4.91221e-09
9.865e-12
-3.49112e-11
4.6491e-09
1.09559e-10
-3.97466e-09
-3.72146e-09
-7.99818e-11
3.80145e-09
3.18823e-09
-3.1544e-09
4.14485e-09
-4.17868e-09
2.98241e-09
3.60049e-09
-3.45861e-09
-3.11783e-09
3.68787e-09
-3.3258e-09
3.02892e-09
3.89805e-09
-5.03879e-09
-3.59311e-09
-3.37486e-09
7.2118e-09
-1.96084e-09
-5.45224e-09
2.01277e-10
4.76134e-09
-5.57248e-09
-2.14419e-09
3.18347e-09
4.00801e-09
1.6929e-10
-3.36283e-09
9.2476e-09
-8.4925e-09
5.99076e-09
3.08206e-09
4.9033e-09
-3.80545e-09
-4.06732e-09
-3.79406e-09
3.9134e-09
2.12949e-11
4.23562e-09
-4.25692e-09
-8.78943e-12
3.98541e-09
-3.97662e-09
1.53665e-11
-3.50178e-09
3.48642e-09
5.06508e-12
-3.29524e-09
3.29017e-09
1.16299e-11
-3.38977e-09
3.37814e-09
2.22446e-11
-3.31759e-09
3.29535e-09
-2.32389e-11
4.23408e-09
-4.21085e-09
1.39846e-11
-3.49134e-09
3.47736e-09
6.40153e-12
-3.68076e-09
3.67436e-09
-9.88477e-12
3.2705e-09
-3.26061e-09
4.83292e-11
-4.77338e-09
-1.36299e-10
4.86135e-09
4.92022e-09
2.17414e-09
-3.47508e-09
-3.65582e-09
3.84539e-09
-3.11433e-09
2.92477e-09
5.59722e-10
1.03477e-10
-3.81853e-09
-3.5144e-09
3.81206e-09
3.52087e-09
3.17361e-09
-5.15942e-11
5.29763e-09
-5.53439e-09
2.88358e-10
-3.59083e-09
3.72288e-09
3.88217e-09
-3.93376e-09
6.74678e-10
4.36401e-09
-5.03869e-09
-3.77573e-09
3.81984e-09
3.41344e-09
-3.70637e-09
3.19083e-09
3.84953e-09
-1.46579e-10
-3.57488e-09
-1.32061e-09
-2.67653e-09
2.03519e-09
1.96196e-09
-5.73311e-10
-2.05676e-10
2.72989e-09
-3.74885e-09
3.09039e-09
-3.64153e-09
4.29998e-09
-5.76605e-09
7.34012e-09
-4.71204e-09
3.13797e-09
-8.9306e-11
1.33386e-09
-1.37262e-09
1.28066e-10
-5.21292e-11
-3.90494e-09
-2.92546e-09
2.95499e-09
3.82667e-09
-4.06409e-09
-5.89747e-10
3.72988e-10
3.65265e-10
3.87589e-11
-4.05466e-11
4.29594e-09
-2.12825e-09
3.9998e-09
-1.68916e-09
1.54373e-09
-3.08339e-09
3.22883e-09
3.52611e-09
9.78128e-10
-4.18646e-10
-3.55735e-09
-6.76479e-10
3.83252e-09
4.01311e-10
3.546e-09
-4.06996e-09
4.40651e-09
-4.90198e-09
4.31838e-09
-4.03972e-09
4.47788e-09
3.52865e-09
-3.75661e-09
-4.24991e-09
3.03375e-09
-4.64571e-09
4.55641e-09
-1.42731e-09
-1.35749e-09
5.16705e-10
2.2681e-09
6.93858e-12
-3.64711e-09
3.64017e-09
-2.5451e-11
-3.47922e-09
3.50467e-09
-1.26766e-11
3.2088e-09
-3.19613e-09
-1.97935e-11
4.0276e-09
-4.00781e-09
-1.99366e-12
3.20803e-09
-3.20604e-09
-8.64585e-12
3.21938e-09
-3.21074e-09
-5.59802e-12
3.23347e-09
-3.22787e-09
1.6825e-11
4.0195e-09
-4.03633e-09
-3.06634e-09
2.86162e-09
-3.54402e-09
3.74874e-09
2.92143e-09
-3.02673e-09
-7.46933e-09
5.30311e-09
5.94446e-10
1.57178e-09
-3.45077e-09
-3.85238e-09
3.81602e-09
-1.09735e-10
4.83339e-09
1.21594e-09
2.77115e-09
-4.30075e-09
-2.10732e-09
3.63692e-09
-2.99963e-09
3.12352e-09
8.23189e-09
4.29341e-09
-4.96392e-09
5.08586e-09
-3.07665e-09
-2.75092e-11
-5.81129e-10
-4.53571e-09
-7.03702e-10
4.2773e-09
-9.05409e-10
1.33072e-09
-4.70262e-09
-6.05756e-10
-4.77006e-09
3.71022e-10
5.00479e-09
4.59781e-09
-4.84884e-09
-3.79912e-09
2.03037e-09
-2.51116e-09
-1.80909e-09
2.28988e-09
-2.64991e-09
3.59089e-09
-8.80076e-09
-1.11257e-11
4.75228e-09
-5.06353e-11
4.61044e-09
-3.11651e-09
-3.75014e-09
2.75105e-09
4.11559e-09
-1.65301e-11
-4.25968e-09
-4.23964e-11
-5.21825e-09
-4.25978e-09
4.15005e-09
3.89521e-09
1.88779e-10
-3.94981e-09
4.49421e-09
-2.97644e-09
3.94804e-09
3.19852e-09
-4.17012e-09
-2.9348e-09
-3.81728e-09
3.82662e-09
4.88979e-09
5.06443e-11
2.66631e-09
3.5035e-09
-3.48161e-09
2.65745e-09
-2.36263e-09
-3.58601e-09
1.0751e-10
-5.23344e-09
1.71952e-11
-4.24204e-09
1.64039e-11
-4.19328e-09
-9.21903e-12
-4.13601e-09
-4.30585e-09
-3.65361e-11
3.90305e-09
4.39337e-10
-1.89763e-10
3.66348e-09
1.06144e-09
-2.14399e-10
3.92265e-09
1.15504e-09
-2.27855e-10
3.82918e-09
1.34181e-09
-1.20321e-09
7.82657e-09
-7.69055e-09
1.06718e-09
-3.94982e-09
8.2605e-09
-1.06254e-08
2.33269e-09
-2.74311e-09
2.94719e-09
-2.53678e-09
6.48422e-09
-5.14784e-09
-5.19408e-09
3.85769e-09
-8.09605e-10
-7.58654e-10
1.19555e-09
3.72713e-10
4.66521e-09
6.67094e-10
-5.26898e-09
-5.11808e-09
-4.45837e-10
5.55734e-09
1.26451e-10
4.37575e-09
-9.07569e-10
6.10347e-09
-1.36028e-09
-3.43316e-09
-2.43693e-09
3.11448e-09
3.74475e-09
-5.22754e-09
-3.57301e-09
3.01329e-10
4.14949e-09
-7.78271e-10
-3.67255e-09
-4.36669e-09
3.42055e-09
-4.93943e-09
3.5134e-09
-1.99452e-09
4.37962e-09
2.66559e-09
-3.5569e-09
2.34323e-10
-4.82915e-09
6.03655e-09
-1.44172e-09
-4.07975e-09
-3.68166e-12
4.0134e-09
7.00379e-11
-4.96089e-09
-3.77256e-09
4.66613e-09
-2.24168e-10
-4.89708e-09
1.26769e-09
-4.07189e-09
5.88159e-11
4.20379e-09
-1.90717e-10
4.47968e-09
-6.58905e-09
4.46753e-09
-2.35817e-09
-4.83176e-09
5.21632e-09
-3.91795e-09
3.53339e-09
4.35892e-09
-3.69826e-09
-4.30939e-09
3.64873e-09
3.56825e-09
-3.74228e-09
-4.78316e-09
-1.98673e-09
4.8493e-09
1.92059e-09
-5.85812e-09
-5.90579e-10
-1.02063e-09
-4.34944e-09
1.03299e-10
4.56414e-09
-3.18003e-10
4.59453e-09