/*--------------------------------*- C++ -*----------------------------------*\
  =========                 |
  \\      /  F ield         | OpenFOAM: The Open Source CFD Toolbox
   \\    /   O peration     | Website:  https://openfoam.org
    \\  /    A nd           | Version:  8
     \\/     M anipulation  |
\*---------------------------------------------------------------------------*/
FoamFile
{
    version     2.0;
    format      ascii;
    class       volVectorField;
    location    "2.6";
    object      U;
}
// * * * * * * * * * * * * * * * * * * * * * * * * * * * * * * * * * * * * * //

dimensions      [0 1 -1 0 0 0 0];

internalField   nonuniform List<vector> 
17372
(
(0.000586823 0.00103767 2.00205e-21)
(8.24051e-05 0.000228304 6.90776e-21)
(0.000707266 0.00121704 1.56414e-23)
(0.000607236 0.00112751 2.75663e-21)
(0.000114155 2.0049e-05 -4.07193e-22)
(5.97996e-05 0.000255494 -3.19442e-21)
(0.000581698 0.000976123 1.83491e-22)
(0.000243122 0.000534578 -7.74052e-22)
(0.000707994 0.00121938 -4.06451e-22)
(0.000452655 0.000626463 8.2368e-22)
(0.000696582 0.00107288 -1.99673e-21)
(0.000131271 0.000185931 1.67232e-21)
(0.00119712 6.97717e-05 2.41498e-21)
(0.000950424 7.71829e-05 1.78742e-21)
(0.000575379 0.00100031 -2.01616e-22)
(0.000371791 0.000655058 -9.27147e-22)
(0.000130223 0.000174629 -2.54961e-21)
(0.000384913 0.0001736 1.77678e-21)
(0.000982682 0.000100404 -4.37014e-25)
(0.000187838 0.000589209 0)
(0.000573935 0.00100003 -9.44289e-23)
(0.000497157 0.00100914 -2.81824e-22)
(0.00060403 0.00103603 -2.61174e-21)
(0.00020449 0.000578227 -5.32839e-21)
(0.000418701 0.0001287 -4.93028e-21)
(0.000565547 0.000996702 9.46714e-23)
(0.000602784 0.00103466 5.7569e-24)
(0.000649318 0.001115 7.53389e-22)
(0.000979031 -1.4923e-05 1.375e-21)
(0.000603247 0.00103506 -1.31826e-21)
(0.00071326 0.00122 -4.23612e-22)
(8.98798e-05 8.77977e-05 2.25089e-21)
(0.000603948 0.00103542 -8.3141e-24)
(0.000569333 0.00100262 -4.45939e-22)
(0.000165381 0.000701673 8.88271e-22)
(0.000553929 0.000943414 -8.25791e-24)
(0.000575048 0.000996959 0)
(0.000259102 0.000177267 -4.92868e-23)
(0.000580678 0.0010349 5.20398e-22)
(0.00050539 0.000894057 6.14857e-23)
(0.000602526 0.00103457 9.74504e-24)
(0.00063509 0.00114685 4.81648e-22)
(0.000645278 0.00112447 6.01956e-22)
(0.000640212 0.000578811 4.57478e-23)
(0.00053534 0.000944534 0)
(0.000604836 0.00103731 1.28411e-21)
(4.62043e-05 0.000198588 6.55403e-22)
(0.000392345 0.000694568 -1.59724e-22)
(0.000578151 0.00100008 -3.22432e-22)
(0.000576273 0.000965808 7.84838e-22)
(2.61632e-05 0.000264801 1.58542e-21)
(0.000571642 0.000999144 5.63303e-22)
(0.000568919 0.000974404 -8.43126e-24)
(0.000713734 0.0012186 1.43057e-21)
(0.000405898 0.000177728 -1.4222e-21)
(0.000217439 0.000125833 -4.48652e-22)
(0.000570285 0.00099677 -3.71645e-22)
(0.000608784 0.0011518 4.29045e-23)
(0.0007153 0.00121842 -4.69344e-22)
(0.000214758 0.000493872 -1.30129e-21)
(0.000533893 0.000961499 1.66552e-23)
(0.000469166 0.000567285 -6.70761e-22)
(0.000603207 0.00103535 1.30692e-21)
(0.000621129 0.0010831 1.08402e-21)
(0.00064873 0.00110204 -3.27257e-24)
(0.000203462 0.000494992 1.60809e-21)
(0.000537924 0.000952548 -4.80816e-22)
(0.000501808 0.000938947 -7.38737e-23)
(0.000288583 0.00112399 -3.7106e-24)
(0.000269063 0.000196656 3.40521e-22)
(0.000704723 0.000403796 0)
(0.000441466 0.000745075 3.12917e-22)
(0.000675786 0.00117111 -5.71563e-22)
(0.000569668 0.000941041 1.63347e-21)
(0.000528285 0.000906617 -1.64688e-21)
(0.000575069 0.000985552 -1.76997e-21)
(0.00064649 0.00109364 -6.1905e-22)
(0.000556606 0.000994185 0)
(0.000515644 0.001061 8.21152e-22)
(0.000563575 0.0010366 -4.42523e-21)
(1.33192e-05 0.000234966 0)
(0.000530092 0.000964904 5.99508e-22)
(0.000584919 0.00102967 -1.39369e-21)
(0.000115928 3.53619e-05 -2.17068e-21)
(1.31221e-05 0.000242369 -2.06791e-22)
(0.000564622 0.00100382 0)
(0.000574414 0.000963292 -1.60159e-21)
(0.000590702 0.00105236 -2.78152e-24)
(0.000573479 0.0010028 2.90136e-22)
(8.08726e-06 0.000433582 0)
(0.00068757 0.00123675 -1.45411e-22)
(0.000565236 0.00100304 1.19183e-22)
(0.000446482 0.000482826 0)
(0.000539943 -5.48674e-05 -1.53484e-21)
(-4.78066e-06 0.000501654 -1.04943e-21)
(0.000602365 0.00103465 1.45235e-21)
(0.00123378 0.000127423 0)
(4.90276e-05 0.000191567 3.02108e-22)
(0.000417571 0.00016339 -1.56292e-21)
(0.000225751 0.000558819 8.37138e-25)
(0.000850188 0.000270734 -9.16401e-22)
(0.000570879 0.000969307 1.3699e-21)
(0.000264461 0.000186532 -1.94541e-22)
(0.000150044 0.000363746 -1.70407e-21)
(0.000715398 0.00121751 0)
(0.000566872 0.000999057 1.21396e-23)
(0.000706008 0.00122148 3.07985e-24)
(0.000954541 0.000794494 -7.16977e-21)
(0.000128732 0.000124017 0)
(0.000572232 0.000971517 -2.44507e-21)
(0.000669142 0.00150574 0)
(0.000296619 0.000297065 1.66076e-21)
(0.000573451 0.000972749 1.42379e-21)
(0.000576836 0.000974284 -1.5294e-21)
(0.000698658 0.00121418 0)
(0.000526187 0.000905399 -1.82238e-22)
(0.000574524 0.000974269 -1.45431e-21)
(0.000569757 0.000999955 -2.72543e-22)
(0.000569023 0.00107414 0)
(0.000575548 0.000975567 0)
(0.000711083 0.00121881 4.22927e-22)
(0.00057638 0.000976217 -3.71158e-22)
(0.000714852 0.00121783 4.57945e-22)
(0.00056797 0.00105393 1.91977e-22)
(0.000276234 0.000206571 -2.00957e-22)
(0.000715868 0.00121692 4.80352e-22)
(0.000708745 0.00120376 1.35499e-21)
(0.000482414 0.000507855 5.81885e-22)
(6.68498e-05 -7.92884e-06 -1.04915e-21)
(0.000577435 0.00097511 -7.49776e-22)
(0.000715051 0.0012158 -5.21488e-22)
(0.000706625 0.00120241 0)
(0.000602623 0.00103505 1.35017e-21)
(0.000576779 0.000970256 7.76844e-22)
(0.000709827 0.00120594 4.31622e-22)
(0.000480625 0.000515435 7.89823e-22)
(0.000575763 0.00111216 -9.8945e-22)
(0.000709979 0.00120726 -3.98324e-22)
(0.000580582 0.00116027 -1.02134e-21)
(0.000134432 0.000139687 -1.35743e-21)
(0.000492806 0.000596939 1.43918e-21)
(0.000710728 0.00120793 3.84041e-22)
(0.00071227 0.00121045 0)
(0.000713539 0.00121479 -5.59939e-22)
(5.87545e-05 0.000483765 1.36627e-22)
(0.000711827 0.00120993 0)
(0.000713269 0.00121186 7.99099e-24)
(0.00102795 6.73916e-05 -1.34604e-21)
(0.00069044 0.000623188 -1.3692e-21)
(0.000613969 0.00112112 -6.32649e-24)
(0.000488817 0.000868057 -2.02743e-22)
(0.000558786 0.000948215 -1.39582e-21)
(0.000482627 0.0012348 -1.16337e-23)
(0.000678918 0.00116372 5.19327e-22)
(3.38362e-05 0.000331078 1.25674e-21)
(0.000613806 0.00101646 6.03714e-22)
(0.00106462 0.00140218 1.2776e-21)
(8.32257e-05 1.94746e-05 -7.68543e-23)
(8.59659e-05 0.000502193 -2.88066e-21)
(0.000571212 0.000967855 1.69038e-21)
(0.000714365 0.00121614 -1.08972e-21)
(0.000128318 0.000141282 -7.08411e-22)
(0.000636811 0.00110691 1.25107e-21)
(0.000590072 0.000112236 3.38448e-21)
(0.00060241 0.00103423 5.88812e-24)
(0.000678924 0.000485369 1.3477e-21)
(0.00067467 0.00120729 -2.27174e-21)
(0.000623667 0.000235358 -1.63427e-21)
(0.000494077 0.000870951 4.01834e-22)
(0.000542061 0.000945008 -9.11973e-22)
(0.000272001 0.000799029 -7.92084e-23)
(0.00053377 0.000965632 2.79112e-22)
(0.000533832 0.000967024 3.22755e-21)
(0.00027836 0.00031598 1.64162e-21)
(0.000705364 0.00120176 -1.97641e-21)
(0.000522878 0.000970579 6.85987e-22)
(0.000652296 0.0010938 -3.23701e-22)
(0.000185915 0.000567248 1.60169e-21)
(0.000492276 0.000575695 4.17648e-22)
(0.000134385 0.000155288 -9.18983e-23)
(0.000181571 0.000702794 1.77108e-21)
(0.000619875 0.00111218 2.4721e-21)
(2.92177e-06 0.00041839 0)
(0.000356251 0.000704661 9.00787e-23)
(0.000571818 0.000981048 -7.17841e-22)
(0.000716574 0.00121382 -6.52298e-24)
(0.000572909 0.00109019 -9.64293e-23)
(5.53493e-05 0.000141611 4.65535e-22)
(0.000300008 0.00112329 -3.75953e-23)
(4.4026e-05 3.12643e-05 5.89732e-22)
(0.000516647 0.000961721 1.07138e-22)
(0.00042436 0.00081042 -1.19421e-21)
(0.000627516 0.00106407 -4.42822e-22)
(0.000247579 0.000444246 0)
(0.000577334 0.000975237 2.25907e-21)
(5.59901e-05 0.000121965 0)
(0.000554993 0.00108433 0)
(0.000639316 0.00115374 2.6142e-22)
(0.000233932 0.000247277 -8.88731e-22)
(0.00113069 0.000810164 0)
(4.87966e-05 0.000119253 -6.30911e-22)
(0.000437973 0.000631852 -1.10105e-22)
(0.000410542 -2.02896e-05 4.51163e-25)
(0.000586182 0.00104915 -9.73017e-22)
(0.000447557 0.000805768 -2.07651e-23)
(9.7237e-05 2.32447e-05 1.61274e-21)
(0.000622672 0.00110982 0)
(0.000799439 0.000383429 2.37767e-22)
(0.000572224 0.000999966 -7.27496e-24)
(0.000710757 0.00121543 6.09045e-22)
(0.000627612 0.00109582 -1.42378e-21)
(0.000602258 0.00103474 1.3809e-21)
(0.0006408 0.00110875 -3.84693e-21)
(0.000630422 0.00110077 1.36362e-21)
(5.961e-05 0.000163006 0)
(0.000553769 0.000976807 0)
(0.000575392 0.000990025 1.83262e-21)
(0.000519701 0.000904643 3.27053e-21)
(0.000872231 0.000245979 9.37887e-22)
(0.000523052 0.00115493 -1.4177e-22)
(0.000575191 0.00103171 -7.35749e-22)
(0.000191879 0.000526696 0)
(5.86912e-05 0.000132022 1.57426e-22)
(0.000953781 0.00014035 -4.94249e-21)
(0.000711221 0.00121624 -5.83723e-22)
(0.000400628 -1.22343e-07 4.08544e-21)
(0.00061441 0.00108372 6.17131e-23)
(0.000272743 0.000736915 5.02601e-21)
(-0.000493943 0.000374812 -2.18723e-23)
(0.000572252 0.000967964 0)
(0.000254652 0.00016821 4.13506e-22)
(0.000636561 0.00112439 1.86284e-21)
(0.000462632 0.000458119 -2.36779e-21)
(0.000650331 0.00117311 1.89724e-21)
(0.000652284 0.00116499 3.87807e-21)
(0.000975749 5.70903e-06 2.02382e-22)
(0.000387308 0.000522935 -1.29994e-21)
(0.000408474 0.000743916 0)
(0.000246627 0.000998693 9.75099e-24)
(0.000523449 0.000952691 -1.0334e-21)
(0.000607307 0.00102574 -6.80147e-22)
(0.000622864 0.0011224 1.54182e-21)
(8.78871e-05 2.1149e-05 0)
(0.000438285 0.000218932 1.72628e-21)
(0.00085348 0.000510696 1.7102e-21)
(0.000601475 0.00103402 0)
(0.000941424 9.16098e-05 -1.49479e-21)
(0.000571465 0.000979266 -7.67138e-22)
(0.000480025 0.000886801 4.88295e-23)
(6.69288e-05 1.37381e-05 -3.16759e-22)
(7.41902e-05 -7.52709e-08 3.86875e-21)
(0.000592576 0.00104286 -9.70536e-22)
(0.000272939 0.00099506 1.38538e-24)
(0.000568924 0.0010109 3.06816e-22)
(7.50173e-05 1.59549e-05 2.14652e-21)
(0.000579481 0.00102754 1.52322e-24)
(0.000703662 0.00120043 1.59123e-21)
(3.99741e-05 0.000210738 -3.77457e-22)
(0.000642415 0.00109004 -3.53017e-22)
(0.000599381 0.000142597 1.66174e-22)
(0.00066144 0.00126302 1.52057e-22)
(0.000641708 0.00114983 -6.33055e-24)
(0.00058613 0.000121702 -1.94099e-21)
(0.000388515 4.6862e-07 -5.12651e-21)
(6.7784e-05 -1.24965e-06 1.5455e-21)
(0.00018488 0.000147391 -7.28766e-22)
(0.000747794 0.0012988 -1.59535e-21)
(0.000362133 0.000271567 5.65759e-21)
(0.000570019 0.0010401 0)
(4.8081e-05 0.000103628 -7.64133e-22)
(0.000542399 0.000941875 -2.45897e-21)
(0.00060245 0.00103305 -9.99873e-24)
(6.36532e-05 0.000493739 8.27965e-21)
(0.00115836 -0.000185857 -3.47738e-22)
(0.000641709 9.93027e-05 0)
(0.000527529 0.000964065 0)
(0.000576114 0.000975499 -1.10915e-21)
(0.00107253 -2.73217e-05 -6.96222e-22)
(0.00059034 1.12281e-05 1.27302e-21)
(0.000393024 0.000538595 3.6256e-22)
(0.000635052 7.59421e-05 0)
(6.01428e-05 6.66738e-05 -2.88789e-21)
(0.000545141 0.00108361 0)
(4.44407e-05 9.3968e-05 1.17792e-21)
(0.000602081 0.0010348 -1.41375e-21)
(0.00131833 0.00114547 -3.89188e-21)
(0.000608226 0.00106664 0)
(0.000539054 0.000940072 -1.00173e-25)
(0.000546579 0.000965659 0)
(0.000334401 0.000438561 0)
(0.000358817 0.000631502 0)
(0.0008534 0.000559314 -1.34853e-21)
(0.000571235 0.00096595 -9.72575e-22)
(0.00045101 0.000813453 -1.93476e-22)
(0.000331382 0.000475211 3.607e-21)
(0.000651139 0.00109075 -3.01062e-22)
(0.000537162 0.000955333 1.17498e-21)
(0.000868916 0.000178047 1.39823e-25)
(0.000466834 0.00105533 1.07472e-21)
(0.000651397 0.0011674 -2.19088e-24)
(0.000544654 0.00115201 -6.85711e-24)
(4.09923e-05 8.43398e-05 1.30376e-21)
(0.000703198 0.00122109 -3.3685e-22)
(4.59608e-05 0.000114545 6.63135e-22)
(4.99858e-05 -2.59161e-06 1.73887e-21)
(0.000672075 0.000610842 -4.14617e-22)
(0.000725282 0.0010969 -1.75023e-21)
(0.000632915 0.00104221 0)
(0.000360732 0.00057322 0)
(0.000320608 0.000260172 1.76523e-21)
(0.000582672 0.00105657 5.23297e-24)
(0.000951566 9.63983e-05 6.97186e-21)
(0.000635638 0.00110221 1.33326e-21)
(3.76553e-05 7.51877e-05 8.92953e-23)
(0.000309833 0.000557561 -1.59376e-21)
(0.000186825 0.000568059 1.21613e-21)
(0.000602583 0.00103261 -1.61414e-21)
(0.00020921 0.000330036 -5.88921e-23)
(0.000454071 -8.17831e-05 -3.29854e-21)
(0.000575812 0.000999473 -2.45406e-22)
(0.000111285 0.001142 -1.78294e-22)
(0.000862513 0.000382379 0)
(0.000712708 0.00121164 0)
(0.00108246 6.29066e-05 1.87688e-22)
(0.000627277 0.00103956 0)
(0.000211615 8.45733e-05 9.6747e-22)
(2.4338e-05 0.000486651 0)
(3.42202e-05 6.76161e-05 7.31786e-23)
(0.000413069 0.000316418 1.07152e-21)
(0.000563285 0.00102181 0)
(0.000710382 0.00121064 0)
(0.000897947 0.000755695 -8.94163e-24)
(0.000175256 0.000112628 5.33127e-22)
(0.000651251 0.00107869 -1.37742e-22)
(0.000715031 0.00121345 -1.35064e-21)
(0.000698744 0.00119397 0)
(3.14413e-05 6.00147e-05 -6.25187e-22)
(0.000672771 0.0011748 6.15134e-22)
(0.000715856 0.00121001 -6.67722e-22)
(0.000600508 7.29357e-05 0)
(0.000716915 0.00121497 6.65682e-22)
(0.000262939 0.000326029 4.27281e-21)
(0.000492813 0.000714357 -1.86571e-21)
(0.000650186 0.00111595 2.04578e-21)
(0.000550224 0.00104065 -9.95284e-23)
(0.000525064 0.000980657 -6.20543e-22)
(5.98279e-05 5.19013e-05 -7.27402e-22)
(0.000532042 0.00102991 7.244e-23)
(0.000582119 0.00103949 -6.75369e-22)
(0.000469519 0.000877007 1.98617e-21)
(2.88022e-05 5.35146e-05 6.41002e-22)
(8.59626e-05 0.000591145 -6.34112e-22)
(6.01892e-05 0.00013931 -1.63082e-21)
(0.000681659 0.00124985 -1.94096e-22)
(0.000711569 0.00120917 -6.28389e-22)
(6.71828e-05 1.70622e-05 -1.23948e-21)
(0.000182715 0.00058314 2.30075e-21)
(0.000624535 0.00111934 -1.54329e-21)
(2.64079e-05 4.75346e-05 -6.2615e-22)
(0.000703579 0.00119933 -4.80191e-22)
(0.000307619 0.000283252 2.22799e-21)
(2.23078e-05 4.04904e-05 8.98957e-22)
(0.0007167 0.00121139 6.4031e-22)
(0.000711406 0.00120583 0)
(0.000709754 0.00120717 -4.87335e-22)
(2.21928e-05 3.66427e-05 -1.47271e-22)
(4.36303e-05 -8.24447e-06 3.09674e-22)
(0.000517127 0.000600048 -1.12773e-21)
(0.000709249 0.00120465 -5.60407e-22)
(0.00106284 -2.85278e-05 7.46618e-22)
(0.000441987 0.000804936 -1.37924e-21)
(0.000182969 0.000126619 -1.61079e-21)
(0.000170143 0.000118101 1.71015e-22)
(0.000970423 0.000143146 0)
(0.000723897 0.000842082 0)
(1.99288e-05 3.24716e-05 -2.94728e-22)
(0.000544404 0.00100223 -2.09778e-22)
(0.000637604 0.00112858 -1.16981e-23)
(0.00098872 4.27458e-05 -1.93071e-22)
(5.86045e-05 -3.76526e-06 0)
(5.70395e-05 0.000125977 1.17235e-21)
(0.000572477 0.000958423 -1.58704e-21)
(0.000197139 0.000583074 0)
(0.000575306 0.000974461 0)
(1.8021e-05 1.81663e-06 7.60163e-22)
(0.00053508 0.000490224 -2.48017e-21)
(0.000634609 0.00107854 8.22492e-22)
(0.000542254 0.000961061 -8.17037e-24)
(0.000377704 0.000511248 -1.28853e-24)
(0.000667218 0.000533873 -1.77271e-24)
(0.000218359 0.000470251 8.3525e-22)
(0.000107819 6.22076e-05 -1.13605e-25)
(0.000602054 0.00103472 2.01562e-23)
(0.00116903 0.00105454 2.54624e-21)
(0.000120443 4.06692e-05 2.97055e-21)
(0.000560562 0.00133574 4.6955e-24)
(1.74549e-05 0.00103291 4.77843e-24)
(2.78203e-06 -4.12869e-06 0)
(5.32589e-05 -2.79809e-06 -2.57788e-21)
(0.000454585 -0.0001657 -2.90643e-21)
(0.000711006 0.00119573 5.87526e-22)
(0.000840524 -0.000321173 0)
(0.000411315 0.000448969 1.56386e-21)
(0.000605996 0.00103094 0)
(0.000673453 0.00116744 0)
(0.000653419 0.00109032 3.1746e-22)
(0.00085071 0.000360724 -2.04147e-21)
(0.000338816 0.000811119 0)
(0.000126342 0.000187471 0)
(0.000650346 0.0011763 -1.86815e-21)
(8.70749e-05 2.63471e-05 -1.57836e-22)
(0.000113849 0.000967419 -1.78488e-21)
(0.00033573 0.00114344 -2.32749e-23)
(0.000571659 0.000982446 1.43528e-21)
(0.000711535 0.00121098 -6.70888e-22)
(7.8549e-05 -1.3215e-05 0)
(0.000604786 0.00103111 -3.27946e-21)
(0.000106895 6.47851e-05 1.42283e-21)
(0.000611729 0.00111639 -3.74927e-21)
(0.000560705 0.00100636 8.8051e-22)
(0.000550258 0.000324115 2.00389e-21)
(0.00102913 -2.71684e-06 -2.57974e-21)
(0.000614486 0.00102249 -7.06287e-22)
(0.00108507 -1.39514e-05 7.29046e-22)
(0.00071233 0.00121058 6.14724e-22)
(0.000433926 0.000945085 1.43397e-21)
(5.09488e-05 0.000421056 2.36014e-21)
(0.000667904 0.00117405 -4.3528e-22)
(0.00111183 0.000658877 -1.17962e-21)
(0.000235162 0.000650349 9.80475e-22)
(0.000655558 0.000557603 2.29633e-21)
(0.00064447 0.00112916 0)
(0.000522973 0.000958829 -3.22057e-22)
(0.000749255 0.00120708 -2.18702e-23)
(0.000664508 0.00116654 3.07473e-22)
(0.000889992 0.000881611 3.90747e-21)
(0.000226549 0.000500147 0)
(0.000597551 0.00102008 0)
(0.000956618 -4.72544e-06 -1.90368e-21)
(0.000246007 0.000133562 -2.32202e-21)
(0.000486419 0.000597466 -1.12413e-21)
(4.54035e-05 4.13387e-05 -6.95855e-23)
(4.84338e-05 0.000707593 2.12122e-21)
(0.000349025 0.000274703 1.86717e-21)
(4.46891e-05 -4.77483e-06 0)
(0.000129054 0.000514719 1.7159e-21)
(0.000119261 7.65919e-05 2.67769e-21)
(0.000400698 0.000994525 -1.65326e-23)
(0.00062215 0.00107536 -4.65267e-23)
(7.11244e-05 0.000464439 7.29205e-22)
(1.40777e-05 -1.47427e-06 -5.90511e-22)
(0.000373572 6.1442e-06 0)
(0.000588146 0.000994235 -3.83847e-22)
(0.000646568 0.00108942 -2.88089e-22)
(0.000589322 0.00103897 4.66174e-24)
(2.49463e-05 2.60209e-07 0)
(4.69999e-05 9.98313e-05 -1.0749e-21)
(0.000262475 0.000534418 3.24219e-21)
(0.00108779 0.00058984 -2.76345e-24)
(0.000546896 0.000734116 -2.70263e-21)
(0.000202234 0.000475099 0)
(0.000750283 0.00128952 3.07394e-22)
(0.000773576 0.00042079 0)
(0.000703135 0.00118991 0)
(0.000369954 0.00110882 4.14902e-23)
(0.000583326 0.00103936 -1.04771e-21)
(0.000947077 0.000141426 3.17208e-21)
(0.000563095 0.000976392 1.17968e-21)
(0.000169044 0.000258729 -2.75462e-22)
(0.000503028 0.000857036 -1.26311e-21)
(0.00058098 0.000991685 3.06319e-22)
(0.000442254 0.00101861 1.59145e-21)
(5.35366e-07 -1.6946e-06 -3.25326e-22)
(0.00063157 0.000231031 -7.8356e-22)
(0.000106743 0.000530494 5.34696e-22)
(6.83608e-05 -0.000195282 0)
(0.000571412 0.0011083 2.3709e-22)
(0.000110221 8.2403e-05 -3.34567e-21)
(0.000572488 0.000997605 2.0074e-22)
(4.26057e-05 8.89966e-05 -8.17183e-23)
(0.00062553 0.00111781 1.54169e-23)
(0.000766741 0.00122606 1.11724e-21)
(0.000295766 0.000587271 -1.58757e-21)
(0.000587853 0.00102015 1.36224e-23)
(0.000345211 0.000402476 3.45191e-21)
(3.20027e-07 0.000449173 -7.49192e-22)
(0.000568408 0.0009976 -3.45776e-22)
(0.000103421 9.92615e-05 -1.62532e-21)
(0.000346231 5.19717e-05 -1.6269e-21)
(0.000550778 0.00104968 1.86388e-22)
(0.000448667 0.000749136 -3.06937e-21)
(0.000138915 0.00064548 0)
(0.000651117 0.00118421 4.53427e-22)
(0.000711901 0.00121136 0)
(0.000525887 0.00102549 7.66691e-23)
(5.07701e-05 4.54424e-05 0)
(0.000574208 0.000972988 0)
(9.48298e-05 3.32306e-05 0)
(0.000633673 0.00026417 0)
(0.000432273 0.000556928 2.85752e-23)
(0.000601572 0.00103423 0)
(0.000551929 0.00101309 0)
(8.08216e-05 9.94508e-05 2.7132e-21)
(0.000454291 -0.000259777 3.22243e-21)
(3.93632e-05 7.97695e-05 -1.28831e-21)
(0.000712307 0.00126498 -4.21581e-22)
(2.06063e-06 8.02272e-06 0)
(0.000918191 0.000133211 -2.98125e-21)
(0.000569806 0.00104646 0)
(0.000693703 0.000352135 1.91425e-21)
(0.000533514 0.000940044 0)
(0.000661997 0.00116289 1.55536e-21)
(0.000587583 0.000971607 1.70496e-21)
(0.000352405 0.000518437 -4.2983e-21)
(0.000731849 0.00120976 -2.46499e-21)
(0.000594791 0.00111842 -1.16726e-22)
(-0.000413023 0.000483419 -4.79658e-21)
(0.000628154 0.00108175 -9.78101e-22)
(0.000626736 0.00108935 2.18391e-21)
(0.000635879 0.00109477 -1.57309e-21)
(7.91633e-05 -0.000214175 5.8049e-22)
(0.000789121 0.00040894 -2.28233e-22)
(0.000571673 0.000982345 0)
(3.78124e-05 7.1046e-05 1.50956e-22)
(0.000301318 0.000290617 -5.31068e-21)
(0.00010445 0.000105278 2.54568e-24)
(0.000699323 0.00118736 6.46862e-22)
(0.000580162 0.00102582 0)
(0.000731042 -0.000252072 -1.61892e-21)
(0.000512291 0.000602294 1.05817e-21)
(0.000638603 0.00109374 3.21102e-21)
(0.000579172 0.00157975 -1.90114e-23)
(0.000594012 0.000140105 1.45001e-21)
(0.000623052 0.00107589 -2.21328e-21)
(0.000575429 0.0010492 -6.0063e-23)
(0.000558427 0.000982087 -1.30981e-22)
(0.000495067 0.000839596 1.38837e-21)
(3.30883e-05 6.36329e-05 -1.51936e-22)
(0.000632168 0.00110222 -7.75564e-24)
(0.000843887 0.000325794 1.47979e-21)
(0.000458768 0.000854377 3.76831e-22)
(0.000638799 0.00109131 0)
(0.000957637 8.15561e-05 -7.07978e-22)
(0.000162659 0.000421086 3.198e-22)
(0.000833437 0.000574337 2.26137e-21)
(0.000163324 0.000248512 -1.09328e-21)
(3.99216e-05 0.000398312 -1.32001e-21)
(0.000890539 8.6366e-05 1.09526e-22)
(0.000971208 0.000168509 8.07135e-22)
(0.00063759 0.00108913 1.14011e-23)
(0.000629238 0.00107922 0)
(6.40707e-06 0.000814782 6.88012e-22)
(8.30382e-06 2.66531e-06 1.40891e-21)
(0.000654531 0.00118429 0)
(0.000608394 0.00103569 0)
(0.000973602 5.47627e-05 -1.54809e-21)
(7.5349e-05 2.0498e-05 -4.47694e-21)
(0.00019227 0.000240564 6.07811e-22)
(3.00908e-05 5.66915e-05 -4.02755e-23)
(0.000636111 0.00108858 -1.69905e-24)
(0.000571714 0.000940462 4.37439e-22)
(0.000613289 0.0010541 0)
(0.000597757 0.000921036 7.81925e-22)
(0.000519702 0.000963778 -3.93823e-22)
(0.000517632 0.00104564 6.8014e-23)
(0.000546249 0.0004755 -3.21805e-21)
(0.00064874 0.00108891 9.49127e-24)
(2.20632e-05 -1.48187e-06 -2.69188e-21)
(0.000638602 0.00108889 -2.64202e-21)
(0.000453257 0.000780294 -7.83301e-26)
(0.000593548 0.00103859 -1.69266e-22)
(0.00060844 0.00108075 1.54312e-21)
(0.00031611 0.000459149 -2.43618e-21)
(2.26075e-06 1.54594e-05 -8.9293e-23)
(0.000635772 0.00108705 9.34068e-22)
(0.000598994 0.000969577 1.31511e-21)
(2.75787e-05 5.04722e-05 6.51958e-22)
(0.000615633 0.00108823 -1.48496e-21)
(0.000600121 0.00104224 6.06451e-24)
(0.000938524 7.81019e-05 4.53375e-21)
(0.000634072 0.00108593 9.76007e-22)
(0.000583151 0.00100116 9.47724e-22)
(0.000534392 0.000958638 1.08866e-21)
(0.00136259 0.000412631 0)
(0.00052826 0.000954861 1.7935e-21)
(0.00209251 0.00036607 0)
(0.000847449 0.000713223 -2.00955e-21)
(0.000591591 0.00102726 4.56333e-22)
(0.000177748 0.000516722 -7.23093e-21)
(0.00140719 0.00122856 1.14674e-21)
(0.000475747 0.000851776 -3.84291e-21)
(0.000204473 0.000156172 3.27012e-21)
(0.000481467 5.08344e-05 0)
(0.000273076 0.000695623 6.92944e-24)
(4.0152e-05 0.000369234 0)
(0.000697128 0.00118499 -1.34289e-21)
(1.58513e-06 -1.45554e-05 1.32235e-21)
(2.521e-05 4.58118e-05 3.21438e-22)
(0.000580977 0.00104378 2.66392e-22)
(0.000708526 0.00133433 1.01334e-22)
(0.000456228 0.000743656 -1.52419e-21)
(0.000557084 0.000965964 1.09517e-21)
(0.00101514 -0.000130555 -3.69579e-22)
(0.000727695 0.00121295 0)
(0.000675104 0.000867679 2.67117e-21)
(0.00102904 5.29281e-05 1.09056e-21)
(1.71787e-06 -9.22776e-06 -7.73039e-22)
(4.87983e-05 -5.09312e-06 -2.67297e-21)
(0.000536979 0.000974427 0)
(0.000662205 0.0011803 8.9058e-22)
(0.000647166 0.00121195 -6.87195e-24)
(0.000303114 0.000223621 1.85166e-21)
(0.000132442 0.000665867 -3.91402e-22)
(2.36807e-05 3.84002e-05 0)
(0.00088193 0.000116533 -7.52688e-22)
(0.000593618 0.000300949 -2.20302e-21)
(0.000630398 0.00108931 -1.58986e-21)
(0.00064278 0.00108531 -8.25083e-22)
(0.000625274 0.00111659 1.5136e-21)
(0.000613509 0.00109961 -1.17175e-23)
(0.000573121 0.000971778 -3.5172e-22)
(0.000764905 0.0012869 1.92262e-21)
(0.000609645 0.00102643 2.0535e-22)
(0.00040938 0.000817875 0)
(0.000608311 0.00099681 0)
(0.000599444 0.00108808 0)
(0.000264846 0.000385821 0)
(0.000565592 0.0010053 -5.94909e-22)
(0.000785116 0.00011142 -1.2469e-24)
(0.000179017 0.000524604 3.14176e-21)
(0.000474681 0.000187485 3.3935e-25)
(0.000269531 0.000516086 9.36113e-22)
(0.000466808 0.00091019 8.58618e-25)
(0.000563105 -3.12588e-05 4.34179e-21)
(0.000656604 0.00118085 -2.52288e-22)
(0.000579924 0.00103827 1.05257e-21)
(0.000543818 0.000478413 2.18879e-21)
(0.000614899 0.00108455 0)
(0.000192377 0.000586961 0)
(0.000710251 0.00120807 -1.17852e-21)
(0.000427686 0.000485348 -3.11926e-21)
(0.00104803 -0.000116558 -3.56969e-22)
(0.000459125 -0.000398761 -3.38111e-24)
(0.000623928 0.0010955 0)
(2.36028e-05 1.52125e-06 -5.86687e-22)
(0.000128273 0.000504197 8.74278e-22)
(0.000570874 0.000982447 1.32069e-21)
(0.00076426 0.00128606 0)
(0.000308269 0.00126263 -4.03157e-23)
(0.000226755 0.000255784 8.71388e-22)
(0.000406961 0.00116807 -1.05791e-21)
(0.00105037 -1.37845e-05 7.38133e-22)
(0.000391962 0.000583167 0)
(0.000656634 0.0011774 2.6047e-22)
(0.000762275 0.00128516 0)
(0.000768074 0.0012858 1.85749e-21)
(0.00052921 0.000947678 1.94234e-21)
(0.000291711 0.000525737 1.54295e-21)
(0.000569142 -5.1058e-06 5.37972e-21)
(0.000624443 0.00108274 1.94371e-21)
(1.52241e-06 -2.21512e-05 -1.04894e-23)
(0.000233437 0.000701635 0)
(0.000285075 0.000306859 1.66828e-21)
(0.000773212 0.00128378 -1.7694e-21)
(3.49957e-06 2.69069e-05 -2.82835e-21)
(0.000182329 0.000608413 -4.1848e-25)
(0.000694009 0.00118321 -2.08505e-21)
(0.000303516 0.00122862 0)
(0.000703236 0.00120202 -1.57303e-21)
(0.000599525 0.00103128 7.57834e-22)
(0.000575129 0.00102421 7.83569e-24)
(0.000573081 0.000995986 2.02483e-22)
(0.000554776 0.000397372 1.27119e-21)
(0.000421764 0.000862697 -1.23706e-21)
(0.000345541 0.00026369 -4.66111e-21)
(0.000617372 0.00108005 3.23608e-21)
(1.52219e-06 -2.6544e-05 -1.32404e-21)
(0.000572834 0.0010014 1.17005e-22)
(0.000758711 0.000574489 -3.13765e-21)
(0.000670536 0.0011631 -6.71724e-24)
(0.000582476 0.000994402 -3.3989e-22)
(0.000594962 0.00102076 4.63553e-22)
(1.5601e-06 -1.82143e-05 0)
(0.000727212 0.00120898 5.16351e-22)
(0.000531716 0.000973247 5.0538e-22)
(0.00100218 0.000134491 -3.09938e-21)
(0.000561274 0.000125637 -3.6157e-23)
(0.000662793 0.00117252 0)
(0.000236798 0.000949874 -2.14504e-23)
(0.000584466 0.00100879 7.84732e-22)
(0.000546369 0.00100091 0)
(0.000602194 0.00103282 1.5799e-21)
(0.000762468 0.00128401 -1.91851e-21)
(6.03101e-05 -4.39165e-07 -2.43916e-21)
(0.000142973 0.000386353 -2.13987e-21)
(0.000542941 0.00133389 1.95916e-23)
(9.68182e-06 4.51384e-05 -1.55073e-21)
(0.000366101 0.000224155 1.19444e-25)
(0.000724218 0.00126572 4.12264e-22)
(1.63107e-06 -1.10787e-05 1.11216e-21)
(0.000711549 0.00120867 0)
(0.000158946 0.000697693 0)
(1.67796e-06 -3.37619e-05 2.70308e-21)
(0.00103368 7.24748e-05 -3.36863e-22)
(0.000139091 0.000673911 2.35366e-23)
(0.000624337 0.00102917 -1.09468e-23)
(0.000388545 0.000137074 1.49118e-21)
(0.000780511 0.000829113 0)
(0.000662144 0.00117079 0)
(0.000553599 0.000957736 0)
(0.000670446 0.00116362 1.03345e-23)
(0.000379253 0.00063053 1.03597e-21)
(0.000761921 0.00128221 1.75372e-23)
(5.44472e-05 -3.17618e-07 0)
(0.000629785 0.00109893 0)
(0.000725622 0.00121156 8.66176e-22)
(0.000520281 0.00135229 -7.58808e-23)
(0.000421518 0.000911947 -3.07159e-21)
(0.000587692 0.0010419 -3.81446e-22)
(1.99411e-06 -4.2376e-05 1.36474e-21)
(0.000525851 0.000960246 6.93093e-22)
(0.000567954 0.00102014 0)
(0.000823734 0.00013109 -2.50218e-21)
(0.000339646 0.000641015 2.73697e-21)
(0.000618964 0.00103704 -6.58518e-22)
(0.000596065 0.00103824 -1.9464e-22)
(7.83448e-05 7.04145e-05 -1.3564e-21)
(0.00040152 0.000140108 0)
(0.000368415 0.00109001 -2.67461e-21)
(-0.000236153 0.0011104 -3.86807e-21)
(0.000302272 0.000485259 2.4832e-21)
(0.000592695 0.0010529 1.42981e-21)
(0.000670067 0.00116482 -1.76415e-21)
(0.000531144 0.000938758 -4.04383e-22)
(2.19448e-06 -5.25997e-05 -2.71741e-21)
(2.81427e-05 0.00037723 0)
(0.0006518 0.00119759 0)
(0.000454783 0.000738184 -1.64605e-23)
(6.58915e-05 5.59273e-05 -5.42336e-23)
(0.000693984 0.00118218 -7.19403e-22)
(0.000619467 0.00108002 -2.17748e-21)
(0.000218413 0.000498567 0)
(1.54669e-05 0.000334766 0)
(2.52277e-06 -6.07293e-05 1.0831e-23)
(0.000812912 0.00130261 -2.03226e-21)
(7.48574e-05 6.75628e-05 0)
(0.000182106 9.10196e-05 6.493e-22)
(0.000993886 0.000101596 0)
(0.000158572 0.000276897 -3.52078e-21)
(0.000596943 0.00101485 -8.73623e-22)
(0.000709799 0.0012073 -4.13971e-22)
(7.13552e-05 6.60666e-05 0)
(0.000597546 0.0010247 -1.0077e-21)
(0.000262836 0.000417965 0)
(0.000175563 0.00058618 1.58772e-21)
(2.95498e-06 -6.9906e-05 1.37664e-21)
(0.000462433 0.000791788 2.24241e-21)
(0.000732119 0.00129414 1.96345e-21)
(0.000332799 4.60583e-05 -1.08823e-25)
(0.000397308 -0.00053586 0)
(0.000637598 0.00109612 0)
(0.000687427 0.00117255 1.01013e-21)
(0.000112428 0.000390608 0)
(0.000593411 0.00103652 -9.95184e-22)
(8.97474e-05 0.00039021 1.47573e-21)
(0.00062987 0.00118961 -1.78105e-22)
(0.00070217 0.00120032 -5.38291e-22)
(0.00062841 0.00112202 -1.16575e-22)
(0.000564813 0.000975015 -9.81985e-22)
(0.000591772 0.0010408 3.2782e-21)
(0.000604028 0.000665443 2.26848e-21)
(3.65786e-06 -8.6399e-05 0)
(0.000749056 0.0012807 -2.87839e-21)
(0.000548484 0.000594291 2.25659e-21)
(0.000525785 0.000974058 -6.40988e-22)
(9.93489e-05 0.000416481 9.9744e-23)
(0.000571899 0.000970427 -1.38333e-21)
(0.000391418 0.000326426 0)
(0.000603574 0.0011069 1.86153e-22)
(0.000658051 0.00107911 -1.20887e-22)
(7.52641e-05 5.58549e-05 -8.36647e-22)
(0.000529788 0.000929593 -8.53011e-22)
(0.000570794 0.000998065 1.87681e-21)
(0.00062466 0.00111495 1.50296e-21)
(0.000372382 0.000421213 0)
(0.000654871 0.00117259 2.07716e-21)
(2.3638e-05 -2.13633e-06 -9.04409e-23)
(0.000644555 0.00108572 0)
(0.00021826 0.00026624 -2.26266e-25)
(0.000736106 0.00131064 0)
(0.000760085 0.00127328 1.4205e-21)
(0.000632359 0.0010876 9.01882e-22)
(0.000239977 0.000425548 -2.93491e-21)
(0.000569455 0.000982254 -7.6985e-24)
(3.05472e-05 -0.000158158 -1.37364e-21)
(0.000533143 0.00050331 1.33854e-21)
(0.000512139 0.000897878 9.84701e-24)
(0.000145095 0.000394777 1.48901e-21)
(0.000612809 0.00101446 3.67641e-22)
(0.000270744 0.000386618 -3.07532e-21)
(2.1263e-05 -0.000116646 2.71854e-21)
(0.00143583 7.88349e-05 4.44496e-22)
(0.000732921 0.00130936 -9.47876e-24)
(2.53687e-05 -0.000135476 0)
(0.000338972 0.000485462 -1.58561e-21)
(0.000985781 0.000416291 2.14199e-22)
(0.000587046 0.00088002 -2.27242e-21)
(0.0012105 0.000375419 -8.94683e-22)
(0.000467039 0.00115706 1.39071e-21)
(0.000589364 0.00104919 -8.14501e-22)
(0.000572635 0.000990498 -2.73145e-23)
(0.000551742 0.000950568 -1.77517e-21)
(0.00114138 0.000344008 8.33279e-22)