/*--------------------------------*- C++ -*----------------------------------*\
  =========                 |
  \\      /  F ield         | OpenFOAM: The Open Source CFD Toolbox
   \\    /   O peration     | Website:  https://openfoam.org
    \\  /    A nd           | Version:  7
     \\/     M anipulation  |
\*---------------------------------------------------------------------------*/
FoamFile
{
    version     2.0;
    format      ascii;
    class       volScalarField;
    location    "35";
    object      p;
}
// * * * * * * * * * * * * * * * * * * * * * * * * * * * * * * * * * * * * * //

dimensions      [0 2 -2 0 0 0 0];

internalField   nonuniform List<scalar> 
591
(
0.00012402
0.000124037
0.000124049
0.000124008
0.000124009
0.000124089
0.000124076
0.000124041
0.000117052
0.000124049
0.000124213
0.000122942
0.00012406
0.000119813
0.000124042
0.000124092
0.000123984
0.000124078
0.000122064
0.000123425
0.000124013
-3.49913e-06
0.000124212
0.000124016
0.000124172
0.000124035
0.000124113
0.000124133
0.000124047
0.00012407
0.00012419
0.000124168
0.000124186
0.000124185
0.000124187
0.000123524
0.000124183
0.000124022
0.000124207
0.000124125
0.000124108
0.00012418
0.000124045
0.000124063
0.000124177
0.000124194
0.00011932
0.000124198
0.000124056
0.000124165
0.000124134
0.000124172
2.39534e-05
3.06185e-05
4.78937e-05
0.000124057
0.000124202
0.000124184
0.000124196
0.000124022
0.000124103
0.000124041
0.000124043
0.000124102
0.000122664
0.000124042
0.000124047
0.000124193
0.000120815
0.00012406
0.000124048
0.0001242
0.00012416
0.00012418
0.000124186
0.000124162
0.000124014
0.000124197
0.000124019
0.000123941
0.000123799
0.000124201
0.000124163
0.000124133
0.000124209
0.000124029
0.000124121
0.000124191
0.000124155
0.00012391
0.000124169
0.000124103
0.000124126
0.000124025
0.000124207
0.000124163
0.000123729
0.000123626
0.000123758
0.000124211
0.000124123
0.000124031
0.000124215
0.00012401
0.000124214
0.000124047
0.000124037
0.000124166
0.000124205
0.00012421
0.000124094
0.000124182
0.000124061
0.00012419
0.00012421
0.000124186
0.000124135
0.000124142
0.00012369
0.000124101
0.000124043
0.000124063
0.000124093
0.00012403
0.000124184
0.000120318
0.000124213
0.000124187
0.0001238
0.000124187
0.000124033
0.000123723
0.000124148
0.000124145
0.000124189
0.000124055
0.000122698
0.000124214
0.000124039
0.000123693
0.000123758
0.000124117
0.000124192
0.000124207
0.000124202
7.63783e-06
3.70364e-06
2.09793e-06
3.81958e-05
3.6739e-05
5.70436e-06
3.83403e-05
1.57704e-05
3.73144e-05
1.78357e-05
0.000124041
0.000124029
0.0001242
0.000124198
0.000124204
0.000124202
0.000124196
0.000124193
0.000124197
0.000124198
0.000124158
0.000124205
0.0001242
0.000124206
0.000124135
0.000123497
0.000124207
0.000122227
0.000124179
0.000124189
0.000124131
0.000124049
0.000124189
0.000124199
0.000124194
0.000123603
0.000122575
0.000123154
0.000123564
0.000124193
0.000124197
0.000124136
0.000124017
0.00012419
0.000123066
0.00012342
0.000124018
0.000124188
0.000123884
0.000124182
0.000124189
0.000124161
0.000123856
0.000124005
0.000124187
0.000124198
0.000124192
0.000123985
0.000124175
0.000123981
0.000124206
0.000124041
0.000124036
0.000124203
0.000123824
0.000124006
0.000124052
0.000123667
0.000124153
0.000123813
0.000124098
0.000124099
0.000124178
0.000123585
0.000124092
0.000123994
0.000124003
0.000124163
0.00012392
0.000124083
0.00012399
0.000123896
0.000123997
0.000124209
0.000123962
0.000124202
0.00012404
0.000124177
0.000124034
0.000124031
0.000124209
0.000123935
0.0001242
0.000123929
0.000123976
0.000124047
0.000124024
0.000124051
0.000124043
0.000123802
0.000124011
0.000123957
0.000124167
0.000124032
0.000123864
0.000124157
0.000123423
0.000123968
0.000123329
0.000123194
0.000124029
0.000123994
0.000124027
0.000124022
0.000123976
0.000124207
0.000124069
0.000124148
0.000124068
0.000124072
0.000124085
0.000124156
0.000123811
0.000124202
0.00012385
0.000123743
0.000124058
0.000124177
0.000123761
0.000124203
0.000124103
0.000124148
0.00012416
0.000124055
0.000124013
0.00012382
0.00012399
0.000124005
0.000124058
0.000124102
0.000124176
0.000124187
0.000124197
0.000123968
0.000124064
0.00012418
0.000124189
0.000124186
0.00012399
0.000124197
0.000124069
0.000124172
0.000123956
0.000124199
0.000123948
0.000124177
0.000124085
0.000124014
1.16597e-05
2.19363e-05
0.000123988
0.000124042
0.000124205
0.000123978
0.000124206
0.000124055
0.000124199
0.000124178
0.000123937
0.000124172
0.000124008
0.0001242
0.000124049
-2.10591e-07
0.000123881
0.00012418
0.000124177
0.000123897
0.000124017
0.00012405
0.000124172
0.000123961
0.000124193
0.000124088
0.000124044
0.00012417
0.000124007
0.000123931
0.000123955
0.000124058
4.7458e-05
0.000124188
0.00012417
0.000124035
0.000124194
0.000124113
0.00012406
0.000124034
0.000124038
0.000124181
0.000124075
0.000123971
0.000124067
0.000123974
0.000124193
0.000123981
0.000124026
0.000124067
0.000124148
1.98984e-05
2.73195e-05
3.43318e-05
9.65346e-06
0.000124018
3.30905e-05
2.60361e-05
0.000124191
1.9102e-05
1.70644e-05
3.82272e-05
7.5935e-06
3.99821e-05
5.64423e-06
4.08794e-05
3.72377e-06
4.28625e-05
1.89981e-06
3.64274e-05
2.32134e-05
2.94621e-05
1.50265e-05
0.000123889
0.0001242
0.000124086
0.000124095
0.000121013
0.000124155
0.000124196
0.000124167
0.000123993
0.000124201
0.000124195
0.000124184
0.000124181
0.000123952
0.000124039
0.000124179
0.000124183
0.000124024
0.000123912
0.000123924
0.000123512
0.000123973
0.000124211
0.000124187
0.00012405
0.000124209
0.000123896
0.000124053
0.000123853
0.000122971
0.000124182
0.000124192
0.000124209
0.000123902
0.000124062
0.000123855
0.000124057
0.000124039
2.60654e-05
2.1892e-05
3.30675e-05
1.16306e-05
0.000124216
0.000123901
1.98466e-05
2.82809e-05
3.56394e-05
9.58947e-06
0.000124026
0.000124136
0.000123996
0.000123998
0.000124057
0.000124141
0.000123933
0.000124178
0.000124105
0.00012321
0.000124004
0.000123971
5.93304e-05
0.000123334
0.000124205
0.000124028
0.000123932
0.000124195
0.000124197
0.000124015
0.000123809
0.000124046
0.000124116
0.000123888
0.000124153
0.000123019
0.000123988
0.000123982
0.000124149
0.000100897
0.000123997
0.000123599
0.000123965
0.000124207
0.000123862
1.09132e-05
2.11362e-05
3.54064e-05
2.82267e-05
1.3694e-05
6.21171e-08
4.209e-05
2.70355e-06
4.01868e-05
4.78385e-06
3.94519e-05
6.8321e-06
3.86615e-05
8.8728e-06
3.73294e-05
1.36986e-05
3.17554e-05
3.06162e-05
2.39602e-05
2.52777e-05
1.78058e-05
1.29642e-05
1.57506e-05
0.0001242
0.000102552
0.00012402
0.000123962
0.000124204
0.000124099
0.000124209
0.000123932
0.000124087
0.000124174
0.000124169
0.000124198
0.000123937
0.000124059
0.000123912
0.000124138
0.00012399
0.000124204
0.000124059
0.000123891
0.000123894
0.000124072
0.000124066
0.000124211
0.000124202
0.000124207
0.000124173
0.000124211
0.00012385
0.000124045
0.000124206
0.000123989
0.000124126
0.000124043
0.000124056
0.000123916
0.000124172
0.000124172
0.00012349
0.000121461
0.000123222
0.000123763
0.000124045
0.000123869
0.000124069
0.000124209
0.000124165
0.000124054
0.000123653
0.000123638
0.000124205
0.000124175
0.00012407
0.000124141
0.000123688
5.83827e-05
4.01605e-05
0.000124147
0.000124164
0.000123534
0.000122862
0.000124027
0.00012374
0.000123484
0.000124053
0.000123918
0.000124187
0.00012407
0.000124102
0.000119117
5.45357e-05
0.000124068
8.12646e-05
1.86952e-06
-3.81273e-07
0.000124039
0.000124009
0.000124174
0.00012421
0.000124197
0.000124205
0.000124199
0.000124025
-2.29949e-06
0.000122947
0.000124056
0.000124154
0.000122127
0.000124204
0.000124204
0.000122387
0.000124138
0.000124176
0.000121779
0.000124203
7.64443e-05
0.000124202
0.000123717
0.000124167
0.000122489
0.000123743
0.000123778
0.000124073
0.000124205
0.000124161
0.000124203
0.000124214
0.000124052
0.000116292
)
;

boundaryField
{
    back
    {
        type            empty;
    }
    ingreso
    {
        type            zeroGradient;
    }
    salida
    {
        type            fixedValue;
        value           uniform 0;
    }
    front
    {
        type            empty;
    }
    defaultFaces
    {
        type            zeroGradient;
    }
}


// ************************************************************************* //
