/*--------------------------------*- C++ -*----------------------------------*\
  =========                 |
  \\      /  F ield         | OpenFOAM: The Open Source CFD Toolbox
   \\    /   O peration     | Website:  https://openfoam.org
    \\  /    A nd           | Version:  7
     \\/     M anipulation  |
\*---------------------------------------------------------------------------*/
FoamFile
{
    version     2.0;
    format      ascii;
    class       surfaceScalarField;
    location    "35";
    object      phi;
}
// * * * * * * * * * * * * * * * * * * * * * * * * * * * * * * * * * * * * * //

dimensions      [0 3 -1 0 0 0 0];

internalField   nonuniform List<scalar> 
1111
(
6.21541e-09
1.33222e-08
-1.55597e-08
-3.97791e-09
6.3643e-09
-1.16685e-08
1.15196e-08
-1.46429e-08
4.68951e-09
9.59026e-09
3.63127e-10
2.90415e-10
-3.51981e-10
-1.40755e-08
1.4137e-08
-1.39621e-08
1.37561e-08
4.96426e-10
-1.53139e-09
1.4862e-08
2.09798e-09
-4.05075e-09
9.70234e-09
-1.10316e-08
5.38001e-09
-6.62384e-09
-1.25755e-08
1.25364e-08
6.66301e-09
-5.08428e-08
-2.57268e-08
7.65696e-08
-8.07591e-09
7.50783e-09
6.93238e-09
3.6721e-09
3.50263e-10
-3.74519e-09
-2.77175e-10
1.56907e-08
-1.57966e-08
-2.28771e-08
2.29829e-08
-9.61898e-09
-8.07492e-09
8.83405e-09
8.85985e-09
-3.5039e-08
1.74283e-08
-3.20629e-08
4.96736e-08
9.55306e-09
-1.90624e-09
-1.42707e-08
-2.70762e-09
3.11848e-09
-3.77705e-09
3.36619e-09
-3.70237e-09
1.31793e-08
1.96103e-09
-1.14379e-08
8.88262e-09
-2.19493e-09
-1.50382e-08
8.35049e-09
3.80934e-08
-3.08812e-08
-7.21222e-09
-1.92129e-08
-6.46527e-11
1.75406e-08
1.73696e-09
-5.42877e-10
3.9071e-09
-1.79466e-08
1.45824e-08
-6.12953e-08
-3.94878e-09
6.52441e-08
1.84494e-10
-1.35978e-09
-3.89979e-10
1.56527e-09
-1.11741e-09
-1.33876e-08
-2.25011e-10
-3.48296e-10
3.26882e-10
2.46424e-10
-9.9795e-09
-8.07679e-09
1.23681e-08
5.68815e-09
7.90954e-10
-2.18325e-09
-8.51044e-09
9.90274e-09
7.81064e-09
1.02695e-09
-8.62268e-09
-2.1491e-10
-2.81327e-09
-7.77373e-09
1.07734e-08
-1.86375e-10
1.13287e-08
-3.98211e-10
-2.04784e-09
-1.06698e-09
1.0374e-09
1.11572e-10
-8.19921e-11
-3.68165e-10
9.37621e-10
5.35995e-10
-1.10545e-09
-6.60919e-10
-4.47072e-11
7.03819e-10
1.80628e-12
3.15787e-11
-1.09524e-09
9.09347e-11
9.72723e-10
-3.72413e-11
-9.98156e-10
6.82e-10
-1.82598e-08
-1.63508e-09
-5.69201e-10
6.44084e-11
-1.56126e-10
1.33753e-08
-1.33107e-08
3.84243e-09
-4.62308e-10
6.74763e-10
4.43834e-10
-6.5629e-10
-6.40066e-10
-2.54902e-09
1.93953e-09
1.24955e-09
-2.09932e-09
9.05518e-09
-1.10066e-08
-4.34257e-10
-2.18686e-10
8.37423e-11
-8.79157e-09
1.00524e-08
-9.33679e-09
1.17987e-08
-1.68678e-08
5.11699e-09
-4.78952e-11
1.0551e-10
-2.33173e-10
-3.06594e-10
2.9526e-10
9.45306e-10
-2.03168e-10
-5.98672e-08
7.43544e-08
-1.44872e-08
1.18977e-09
-3.99596e-10
-1.37964e-09
5.89461e-10
1.04887e-09
1.02826e-08
-1.36897e-08
2.35828e-09
-5.65206e-10
6.77464e-09
-8.19533e-09
1.9859e-09
-6.40672e-09
5.81843e-09
5.44258e-09
-4.8543e-09
-6.97846e-09
-2.34922e-09
2.21908e-09
7.1086e-09
-1.83685e-10
-9.09034e-08
9.12972e-08
-2.10067e-10
-2.49468e-10
-8.97525e-08
9.01553e-08
-1.53346e-10
8.30662e-08
-1.5036e-09
1.11634e-10
-8.16743e-08
-3.23713e-09
-7.71121e-11
8.56253e-10
9.50287e-10
-6.16765e-10
4.07927e-09
-1.81529e-09
3.26486e-09
-5.52884e-09
-1.15686e-09
1.05252e-09
-1.49866e-08
6.59303e-09
9.15316e-09
9.98999e-10
-9.83796e-09
-3.14198e-10
-6.30013e-09
1.27773e-08
1.50781e-09
-7.98501e-09
1.42351e-08
-3.96312e-09
3.20838e-09
-1.34804e-08
1.54082e-08
1.73387e-09
-1.71332e-09
-4.90815e-10
-1.98543e-08
-7.27166e-09
2.76168e-08
1.36443e-08
-8.20074e-09
-2.27734e-09
7.57984e-09
-1.16026e-08
-1.42429e-10
2.91271e-10
-1.52848e-09
-3.69745e-08
-2.28927e-08
7.93447e-09
-2.40543e-11
3.88831e-09
-6.88805e-09
1.06741e-08
6.26636e-09
-7.23186e-10
4.1743e-10
5.84766e-10
-2.7901e-10
5.96145e-09
-4.59354e-09
3.53185e-09
-4.89975e-09
-6.80939e-10
-7.37406e-10
3.23109e-10
8.51497e-10
-8.05269e-10
-2.0051e-10
-1.20803e-09
1.04037e-09
-1.74529e-08
2.50146e-09
1.4301e-09
1.35214e-08
3.17974e-10
-8.51584e-10
-1.89576e-10
-3.76623e-09
-1.47141e-08
1.02738e-09
5.67458e-09
1.16886e-08
-5.24557e-09
-1.21176e-08
1.64153e-08
5.48191e-10
-1.58832e-08
-1.08028e-09
-8.09743e-10
5.77046e-10
6.50126e-10
-9.64267e-10
5.21839e-10
4.42428e-10
-7.05298e-09
-3.82625e-09
4.47251e-09
-4.13432e-10
5.95396e-10
-1.81964e-10
1.32057e-09
-1.50663e-08
-7.44381e-10
8.77784e-09
-1.01328e-08
-1.18772e-09
-1.16477e-09
1.25099e-08
4.3995e-09
-4.15615e-09
-1.27533e-08
2.96831e-10
6.93695e-09
-7.62563e-09
6.50712e-09
-1.97801e-09
-8.40849e-09
7.74434e-09
2.64216e-09
-1.78506e-09
5.88864e-10
-1.35179e-08
-2.54037e-10
-1.59396e-10
-5.11111e-10
1.26604e-09
-7.73339e-09
7.75457e-10
1.72458e-08
-1.60591e-09
-1.436e-08
1.5566e-08
-1.20595e-09
1.1908e-08
1.4061e-08
-1.56218e-08
-1.03472e-08
-8.6054e-10
1.44548e-09
-5.84941e-10
1.44298e-09
-1.84797e-09
4.04989e-10
2.48804e-09
-3.58756e-09
1.09952e-09
1.94889e-09
-1.62997e-09
-3.18923e-10
-1.18488e-08
3.08039e-10
1.15407e-08
2.68885e-09
-7.39954e-10
8.84889e-09
-1.50894e-08
6.51128e-09
-7.5876e-09
9.19124e-11
4.01217e-09
-4.31982e-10
-3.03911e-09
3.13102e-09
-7.57334e-09
8.92555e-09
-1.35221e-09
-9.10545e-10
4.08661e-09
9.03203e-10
1.7109e-08
-1.45264e-08
-1.53372e-09
-5.40056e-09
5.1321e-09
-1.54682e-09
-2.65144e-10
6.78239e-09
-6.78369e-09
1.2983e-12
7.07291e-09
4.33112e-09
2.78208e-10
-1.57173e-08
1.03525e-08
1.72728e-08
5.67962e-09
8.33024e-09
8.22799e-09
-6.76572e-09
7.3701e-10
-1.25858e-08
1.36678e-09
7.293e-12
-1.27494e-08
3.57339e-09
-4.42374e-10
1.35846e-08
-1.30364e-08
-1.06248e-10
-1.11871e-09
-1.3643e-08
7.09867e-09
9.44877e-10
-5.41441e-11
-8.94469e-09
5.27654e-09
-3.1372e-08
-1.25692e-08
-2.37365e-09
1.29988e-09
1.37098e-08
1.09835e-08
-1.06548e-08
-1.40385e-08
1.63297e-08
-3.11667e-09
-1.3213e-08
1.77162e-09
3.83545e-09
-1.48113e-09
-9.96398e-10
-1.05293e-09
1.3831e-09
6.66219e-10
-3.12079e-10
4.4391e-10
4.52934e-10
6.22047e-08
-6.22072e-08
2.47868e-12
6.2138e-08
-6.24354e-08
2.97473e-10
8.42612e-10
6.47606e-08
-6.55875e-08
8.26865e-10
6.41554e-08
6.05214e-10
-2.30744e-10
-6.65344e-08
9.46877e-10
-6.20157e-08
6.18891e-08
1.26633e-10
1.32318e-09
-6.78575e-08
-6.21767e-08
1.61007e-10
1.20563e-08
-1.1728e-09
1.79516e-09
-3.74201e-09
3.11966e-09
4.53536e-10
-1.31759e-09
1.17745e-09
-8.50874e-10
1.51675e-09
-1.79888e-09
1.133e-09
1.579e-09
-1.75189e-09
4.6416e-10
-1.09875e-10
-3.31312e-09
3.11486e-09
-2.38518e-09
2.58344e-09
-9.0445e-10
-2.90588e-09
2.63753e-09
-3.90672e-09
-5.54112e-09
6.7032e-10
-7.72958e-10
1.48473e-09
1.20947e-09
-6.62006e-09
8.02109e-09
2.93009e-09
2.05982e-08
-4.26853e-09
-8.42736e-10
3.04909e-10
1.20815e-09
-1.02444e-08
-2.67301e-08
5.49709e-09
-4.51015e-09
-3.09068e-09
2.10374e-09
1.39434e-10
9.04517e-12
5.5534e-10
-2.85489e-09
3.54625e-09
8.58856e-09
9.36786e-10
-6.10921e-10
2.24851e-09
-2.54204e-09
2.31749e-09
1.46698e-08
1.3101e-08
-2.67604e-08
3.22068e-08
6.1319e-09
-2.27188e-08
-1.01736e-08
1.79371e-08
-1.75797e-08
1.0626e-08
-2.90864e-10
5.863e-12
-1.46689e-09
-1.94563e-09
-2.29712e-09
3.80413e-09
1.46195e-08
-5.89834e-10
-1.34408e-08
9.10505e-11
-2.89436e-09
-1.02573e-10
1.5244e-08
1.7363e-08
1.35389e-08
7.31535e-10
-1.53191e-09
-1.27386e-08
-1.92559e-09
5.98345e-09
1.22011e-08
-8.36945e-10
-1.27992e-09
-3.50647e-09
2.7291e-09
3.89223e-09
2.40888e-09
1.40905e-08
4.12233e-09
-1.38133e-08
1.73436e-08
-1.69672e-09
2.89763e-09
-3.66833e-09
1.88728e-09
-4.50143e-09
1.27909e-08
-1.19919e-08
-1.38135e-08
6.20302e-10
8.6918e-09
-1.93219e-09
1.63164e-09
1.78529e-09
-8.78674e-09
4.93784e-10
-4.27626e-09
-5.99683e-09
1.21213e-08
-1.49112e-08
1.44931e-09
1.64762e-09
-2.12999e-09
1.63134e-08
-1.58311e-08
-9.71067e-10
1.39202e-08
2.66959e-09
-3.94653e-09
-1.38124e-08
7.25327e-09
-1.68962e-08
-7.93674e-09
6.46286e-09
5.82911e-09
1.42448e-08
-9.46655e-09
3.17404e-09
8.93467e-09
9.82012e-09
3.88059e-09
-4.09821e-09
2.13766e-08
-1.87236e-08
4.60028e-09
-9.97206e-09
2.27712e-09
5.31801e-09
1.34557e-08
-7.7e-11
1.24405e-08
-1.33346e-08
-1.66084e-09
2.55878e-09
-1.71772e-09
8.19779e-10
1.07405e-08
-6.34886e-09
7.29698e-09
-1.03715e-08
1.39849e-09
-4.75589e-09
1.11667e-08
-1.16563e-08
-7.42806e-09
8.93424e-09
9.23431e-09
1.25493e-08
9.61317e-10
-1.35876e-08
1.73501e-09
8.5756e-10
-1.08326e-08
-6.72411e-09
1.01287e-08
-1.79081e-09
2.52529e-09
-8.71265e-09
4.71924e-09
-5.10729e-09
1.12212e-08
-3.48965e-09
-1.1388e-08
3.65649e-09
-4.5347e-09
1.1e-08
2.14825e-09
1.2184e-09
-5.02411e-09
-1.74582e-08
1.0404e-08
1.20783e-08
8.89296e-10
-1.06983e-08
-9.64542e-09
1.53197e-08
1.21444e-08
2.69849e-09
-9.52492e-09
-1.31844e-08
-2.72912e-10
-1.24364e-08
2.92291e-10
-6.268e-10
1.11079e-08
1.23651e-08
-8.07934e-09
1.61275e-08
-1.54534e-08
3.44819e-09
-4.81375e-10
1.65778e-09
1.2345e-08
-3.85652e-09
-1.24173e-08
-5.12443e-09
6.3383e-10
4.4979e-09
1.18672e-08
-7.46574e-09
7.78166e-10
-1.16241e-09
1.71568e-09
-2.21411e-09
6.05874e-09
2.59439e-08
-6.42002e-10
-1.25588e-08
1.32008e-08
2.79052e-08
-2.19111e-08
2.20043e-08
1.91836e-08
-1.24909e-08
-2.57827e-09
1.48017e-08
1.2412e-10
-1.201e-08
-3.02287e-10
-6.01483e-09
-1.98724e-09
2.41732e-09
1.71818e-09
1.2914e-10
-1.07124e-08
1.08106e-08
-2.274e-10
2.38265e-09
-5.52119e-09
-1.05362e-08
1.02206e-08
-6.66301e-10
-1.0332e-08
-1.69406e-11
-1.04873e-08
-2.90451e-09
-1.17676e-08
2.29604e-09
7.73043e-09
5.06039e-09
2.34582e-10
-1.14579e-08
1.13524e-08
6.93384e-10
-8.43038e-09
5.27726e-09
-8.29536e-10
2.73695e-09
-3.26553e-09
-1.29153e-08
-1.33221e-08
1.29146e-08
-9.9708e-09
-1.58094e-08
1.00629e-08
9.01645e-09
8.45797e-10
2.58851e-09
-1.51473e-08
1.08055e-08
1.70089e-09
4.05055e-09
3.9183e-10
-6.37568e-10
-4.352e-10
-4.01478e-09
2.72529e-09
-1.60486e-09
3.81564e-10
-4.45536e-10
6.39725e-11
-2.49623e-09
1.25268e-08
2.11387e-09
2.54641e-09
-1.0637e-09
-1.85909e-09
-8.06796e-11
-2.59488e-09
-7.31104e-10
1.26173e-08
9.73643e-09
-5.22971e-10
7.12695e-09
-1.18792e-09
-5.41606e-09
-9.65744e-09
-5.10229e-09
2.9841e-10
8.31526e-11
4.59423e-09
1.38925e-09
-1.66818e-08
-6.27932e-10
-9.46419e-10
-2.2632e-09
8.03619e-10
2.58861e-09
6.19614e-08
-1.17634e-10
-6.18438e-08
6.23312e-08
1.92191e-10
-6.25234e-08
-1.41689e-08
1.09025e-10
1.45217e-08
-4.61819e-10
2.65038e-09
-2.09408e-09
2.83231e-09
1.78705e-09
-4.38064e-09
-5.54147e-10
-6.62527e-10
5.37383e-10
-1.53867e-10
6.38286e-10
-4.6514e-10
1.8914e-08
1.1204e-09
-1.54401e-08
-3.27879e-10
-1.96083e-09
1.21073e-08
2.19853e-09
1.74742e-09
5.09561e-09
-1.79899e-09
-7.71966e-08
-2.41932e-08
-4.81019e-09
1.5663e-08
2.32648e-09
-8.10815e-10
-3.38892e-09
-1.39966e-09
7.3597e-10
-6.16228e-10
-1.24422e-08
-3.06794e-10
1.2749e-08
-1.06029e-08
-6.66773e-09
1.05466e-08
-9.23529e-09
8.85289e-09
-1.72755e-10
1.92073e-09
1.19206e-08
-1.16498e-08
-2.70818e-10
7.65794e-10
6.11171e-11
9.68127e-09
1.11241e-09
-1.19665e-09
-3.75769e-10
-1.42128e-08
-5.21663e-10
-1.33584e-08
1.20708e-08
-1.14196e-08
-6.60203e-08
6.49646e-08
1.05571e-09
5.01176e-10
-4.92132e-10
1.16073e-08
-4.66062e-10
2.05246e-11
-1.92985e-09
2.76568e-09
-3.37054e-09
-1.35223e-08
-1.6704e-09
2.57276e-09
-4.67246e-09
-1.3777e-08
1.76763e-09
5.61778e-09
9.39591e-09
-8.72264e-09
-4.95501e-10
2.94379e-11
-9.36235e-09
-1.26446e-08
1.54487e-10
-6.27353e-08
2.27377e-10
6.2508e-08
6.9527e-10
6.34601e-08
-2.45754e-10
-8.78825e-10
-1.4314e-08
1.14359e-10
-6.3377e-08
6.32627e-08
1.80904e-10
-6.29144e-08
6.27335e-08
5.61014e-10
6.18277e-08
1.54019e-10
-6.19817e-08
6.16565e-08
1.71203e-10
-8.78846e-08
8.84964e-08
-6.56723e-12
9.33649e-08
-9.30649e-08
-2.97562e-10
-8.66251e-08
-4.32642e-10
9.33348e-08
-2.00632e-10
-8.49082e-08
-7.70006e-10
9.34612e-08
1.71074e-10
-5.18822e-10
1.96804e-09
9.23358e-08
-6.93611e-08
6.21794e-08
-6.23631e-08
-6.29848e-08
6.15202e-08
1.36333e-10
-2.98468e-09
2.6871e-09
-1.35157e-08
8.96936e-11
2.08716e-10
2.33205e-09
9.64717e-09
-1.18421e-08
3.8188e-08
-3.44341e-08
-1.65033e-08
1.38972e-08
-8.63109e-11
-2.17513e-10
3.11648e-10
9.40379e-10
-1.88232e-10
4.13535e-10
4.67312e-09
1.05021e-09
-3.83604e-09
-4.25917e-10
4.90326e-10
-3.42175e-10
-2.40142e-09
1.27242e-08
2.20397e-09
-1.44404e-08
-2.31769e-09
-3.73327e-09
5.69383e-09
1.08303e-09
-2.44703e-09
1.40963e-08
-1.24524e-09
-4.24007e-09
6.40928e-09
-7.9503e-09
-1.9037e-08
-1.29818e-08
7.65148e-09
5.95064e-09
-3.21541e-10
-5.17413e-10
3.25627e-09
1.43547e-08
1.81869e-09
-1.31138e-09
-4.8273e-10
5.21218e-10
-3.03632e-10
1.59415e-08
-4.55572e-10
-1.57927e-08
-3.88694e-09
-2.40824e-09
2.87341e-10
-2.29088e-10
4.15353e-09
-1.79849e-08
6.51568e-10
-1.71987e-09
-2.34686e-09
-2.32634e-09
1.5199e-08
-9.05776e-08
-1.44875e-10
9.1687e-08
-1.97671e-10
-8.91629e-08
-4.75321e-10
9.30713e-08
-2.85268e-10
-9.29037e-08
-6.43922e-10
-1.81591e-09
1.6132e-08
9.19956e-08
-1.94919e-10
2.88425e-11
-2.39264e-10
1.08866e-08
2.23561e-09
-9.53498e-09
-1.18564e-08
-5.60805e-09
8.46269e-09
1.3822e-09
-6.91479e-09
-6.41764e-09
9.08059e-09
-2.36663e-10
1.016e-08
1.92172e-08
-1.76507e-08
3.0166e-09
-1.24144e-08
3.01372e-09
-7.00516e-08
4.03133e-09
-2.03276e-08
-1.27231e-08
-6.11661e-10
-5.81876e-09
-1.53896e-08
9.19842e-09
-1.5194e-08
5.85781e-10
4.95885e-10
-1.49118e-09
-1.61061e-08
1.66734e-08
9.17185e-09
-9.24896e-09
-5.49411e-09
1.48963e-08
-1.63518e-09
8.35212e-10
-1.48648e-09
5.56664e-10
1.22044e-08
3.41688e-09
7.09375e-08
-1.79254e-08
9.43095e-10
-1.46156e-08
-3.09612e-10
-3.55084e-10
-2.03105e-10
6.09672e-08
-6.12525e-08
-6.33482e-08
-6.31093e-08
-4.52822e-11
-2.67691e-10
-9.25907e-08
-6.04008e-08
6.23689e-08
6.50762e-08
-6.02298e-08
6.45574e-08
-6.04304e-08
6.37874e-08
-6.0728e-08
6.33548e-08
9.23278e-08
3.90805e-10
-6.51797e-09
7.50108e-08
-6.50759e-08
1.15612e-10
-1.15612e-10
1.91669e-09
-3.8011e-10
1.54923e-08
-1.32383e-10
1.32383e-10
4.9498e-10
1.50285e-09
1.39259e-08
1.29469e-08
-2.71351e-09
3.70175e-09
6.37249e-09
1.9382e-09
4.68526e-10
-3.34228e-10
-2.88739e-09
1.43532e-08
1.4813e-08
-4.31106e-09
1.16649e-08
2.68133e-10
2.12365e-10
2.98781e-09
-1.02665e-09
-1.77238e-09
-5.94388e-09
-1.33235e-10
-4.91398e-10
1.52175e-08
3.71429e-10
1.64448e-10
1.6248e-08
-2.5725e-08
1.72002e-08
2.56143e-09
1.48439e-09
2.22001e-09
-3.537e-09
1.89459e-08
-1.76289e-08
-1.38426e-10
8.58045e-10
-1.44398e-09
-7.91746e-08
-7.08051e-08
1.47003e-09
-1.10624e-09
7.29371e-10
2.28635e-08
1.83579e-08
-6.49067e-09
1.63475e-10
-4.49651e-09
-2.08384e-09
2.98895e-08
1.32416e-10
1.48277e-08
7.35593e-08
1.0428e-10
5.69564e-10
-2.22809e-10
-2.91671e-10
-3.87829e-09
2.41164e-08
-1.47622e-08
1.22184e-09
-1.40296e-08
-9.31036e-11
2.01215e-08
-2.84447e-08
8.99194e-10
2.52234e-09
-6.7305e-10
)
;

boundaryField
{
    back
    {
        type            empty;
        value           nonuniform 0();
    }
    ingreso
    {
        type            calculated;
        value           nonuniform List<scalar> 
14
(
-1.54286e-08
-1.54288e-08
-1.54288e-08
-1.54288e-08
-1.54286e-08
-1.54283e-08
-1.54288e-08
-1.54288e-08
-1.54286e-08
-1.54286e-08
-1.54288e-08
-1.5428e-08
-1.5428e-08
-1.54286e-08
)
;
    }
    salida
    {
        type            calculated;
        value           nonuniform List<scalar> 2(1.0139e-07 1.1461e-07);
    }
    front
    {
        type            empty;
        value           nonuniform 0();
    }
    defaultFaces
    {
        type            calculated;
        value           uniform 0;
    }
}


// ************************************************************************* //
