/*--------------------------------*- C++ -*----------------------------------*\
  =========                 |
  \\      /  F ield         | OpenFOAM: The Open Source CFD Toolbox
   \\    /   O peration     | Website:  https://openfoam.org
    \\  /    A nd           | Version:  7
     \\/     M anipulation  |
\*---------------------------------------------------------------------------*/
FoamFile
{
    version     2.0;
    format      ascii;
    class       volVectorField;
    location    "35";
    object      U;
}
// * * * * * * * * * * * * * * * * * * * * * * * * * * * * * * * * * * * * * //

dimensions      [0 1 -1 0 0 0 0];

internalField   nonuniform List<vector> 
591
(
(0.000810605 -4.1749e-05 1.22081e-18)
(0.000790464 -3.42109e-05 -6.62953e-19)
(0.000852232 -5.35618e-05 5.72035e-20)
(0.000840138 4.33476e-06 -1.48525e-19)
(0.000824077 1.66083e-05 2.2425e-19)
(0.000786296 -3.58548e-05 -1.38449e-19)
(0.000541104 -0.000369906 8.03521e-19)
(0.000796306 -2.44245e-06 2.07343e-18)
(0.00576005 0.00248897 9.88172e-19)
(0.000784981 -1.82134e-05 2.4247e-18)
(5.69547e-05 0.000177389 1.21899e-18)
(0.000898496 0.00132728 9.40975e-21)
(0.000791798 1.00272e-05 1.28955e-18)
(0.00157848 0.0023689 -7.87974e-19)
(0.000799238 1.33167e-05 -4.3835e-19)
(0.000113892 -0.000246497 2.52403e-22)
(0.000132241 0.000670784 7.05786e-19)
(0.000827901 2.87354e-05 -4.89382e-19)
(0.00196673 0.000374904 4.7341e-19)
(0.00134783 0.000272781 -2.47371e-19)
(0.000830856 6.69566e-06 3.7266e-19)
(0.0034043 0.00656945 -8.08194e-20)
(3.41933e-05 7.54706e-05 2.71211e-19)
(0.000825658 3.16507e-06 -4.51612e-19)
(1.6908e-05 -2.16602e-05 3.59256e-19)
(0.000757029 2.62441e-05 0)
(9.0327e-05 0.000480057 1.60106e-19)
(0.00051856 2.75192e-05 -1.7904e-19)
(0.000746041 5.26272e-05 1.14477e-18)
(0.0008207 1.83697e-05 5.81692e-19)
(6.57141e-05 -1.41027e-06 -3.30062e-24)
(4.38785e-05 -5.2802e-05 3.52558e-19)
(4.47603e-05 -3.98189e-06 -4.64424e-20)
(5.33311e-05 -1.0452e-05 0)
(6.18095e-05 -1.42838e-05 1.13235e-18)
(0.00116626 0.000128121 1.80106e-19)
(3.86465e-05 -6.92546e-06 4.47629e-20)
(0.000823923 1.61929e-05 4.01198e-23)
(3.30662e-05 4.98133e-05 2.66312e-19)
(4.98746e-05 -0.000140273 -8.55753e-19)
(0.000571888 -0.000193296 9.58868e-19)
(3.19034e-05 -9.02274e-06 4.55314e-20)
(0.000791806 -6.13956e-06 -1.56403e-18)
(0.000822611 2.30472e-05 -6.80832e-19)
(2.27843e-05 -1.08484e-05 0)
(6.17906e-05 1.02861e-05 8.52776e-20)
(0.00132606 0.00451733 8.93806e-19)
(8.39239e-05 2.18496e-05 8.6453e-20)
(0.000792831 2.38625e-05 0)
(0.000367583 -0.00015656 6.78564e-19)
(0.000371799 0.000279848 5.12416e-21)
(0.000385532 6.90632e-05 -1.00487e-18)
(0.00634824 0.0109407 -7.6903e-19)
(0.00622483 0.0107966 1.53061e-20)
(0.00561209 0.010378 1.45712e-18)
(0.000808855 -1.27651e-06 0)
(7.31762e-05 3.67778e-05 0)
(0.00032223 3.07475e-05 8.24132e-24)
(7.03168e-05 1.45907e-05 -3.46824e-19)
(0.000826047 -6.13846e-06 0)
(0.00061309 2.69208e-05 3.17927e-19)
(0.000816664 -1.94019e-06 2.21294e-18)
(0.000778475 6.49796e-06 -5.42609e-19)
(0.000789905 1.95216e-05 -3.12673e-19)
(0.00171738 0.000487185 5.43863e-19)
(0.000785717 3.47819e-07 -1.14287e-18)
(0.000816361 -1.37073e-06 -5.2486e-19)
(9.16412e-05 2.66841e-06 -1.73594e-19)
(0.000675605 0.00229435 0)
(0.000818217 1.91976e-05 0)
(0.000756288 1.68327e-05 -1.37772e-18)
(4.29565e-05 1.91472e-05 0)
(0.000282401 0.000276386 3.27162e-19)
(4.89596e-05 -1.98449e-05 0)
(4.90878e-05 -6.75176e-06 1.59642e-19)
(2.92709e-05 -5.43711e-05 -3.37039e-20)
(0.000770002 6.54593e-05 2.47381e-19)
(4.98355e-05 1.34884e-05 0)
(0.00078556 5.69184e-05 4.45796e-19)
(0.000752875 0.000298582 2.1095e-19)
(0.000963037 5.95197e-05 -3.98407e-20)
(4.80685e-05 2.71418e-05 -4.5234e-20)
(7.27555e-06 -3.85519e-05 0)
(0.000421894 0.000223511 1.70356e-19)
(2.44589e-06 3.17825e-05 0)
(0.00076243 2.40941e-05 -6.08863e-19)
(0.000564951 -0.000116321 0)
(7.32715e-05 1.82743e-06 -1.74662e-19)
(5.52659e-06 -5.18205e-05 0)
(0.000811803 0.000247925 -3.41641e-19)
(5.1461e-06 -2.37801e-05 0)
(0.000414855 0.000324597 -1.25627e-23)
(0.000512571 0.000116491 0)
(0.0007935 4.95291e-05 -1.90894e-24)
(3.0791e-06 2.11434e-05 -4.2216e-20)
(0.000436565 3.99738e-06 1.76549e-18)
(0.00102068 7.37642e-05 4.16513e-20)
(0.000924609 3.99458e-05 6.41169e-22)
(0.000726194 0.000654866 2.69769e-19)
(5.35155e-06 6.21592e-05 0)
(7.55304e-06 -9.41761e-05 -3.12708e-19)
(8.73679e-06 -0.000176308 -1.09917e-18)
(2.16206e-06 9.67004e-05 -5.96593e-19)
(0.000687817 -8.75246e-06 0)
(5.62878e-06 0.000123436 0)
(0.000792693 9.78492e-06 2.22601e-18)
(0.000766453 2.16008e-05 1.51564e-18)
(0.000403003 -4.26827e-05 0)
(5.07518e-05 0.000229888 -8.95806e-19)
(-1.54607e-06 0.000197786 4.96644e-19)
(7.62606e-05 0.000452595 6.25631e-19)
(0.000296391 0.00010509 -9.38002e-19)
(0.000804524 1.50369e-05 1.36355e-19)
(0.000265734 -1.27314e-05 5.31786e-19)
(3.40382e-06 4.35806e-05 0)
(3.36062e-05 0.000311113 -1.0945e-18)
(0.000313803 0.000328962 -1.61859e-19)
(7.1771e-06 -7.22801e-05 1.46751e-19)
(0.000658858 0.000798374 0)
(0.000359969 0.000392333 5.7497e-20)
(0.000804406 1.43781e-06 1.07209e-18)
(0.000786731 -7.47483e-06 -2.68754e-18)
(9.11669e-06 -0.000120686 0)
(0.000723996 -2.03376e-05 -1.12454e-19)
(0.000318908 -7.04201e-05 1.2446e-18)
(0.00268604 0.000793688 -3.36089e-19)
(4.6138e-07 0.000155047 -6.13438e-19)
(-5.68817e-06 0.000190394 1.62002e-18)
(0.000801227 1.86432e-05 -3.89523e-20)
(7.19627e-05 -8.91548e-06 -7.50966e-19)
(0.000787422 2.57716e-05 -3.90051e-19)
(0.000849572 2.73553e-05 -4.10253e-20)
(5.35199e-05 0.000362561 -5.97094e-19)
(0.000470217 8.11405e-05 -4.94443e-19)
(5.63799e-05 -2.23022e-06 1.5632e-19)
(0.000818602 3.91527e-06 -1.07743e-18)
(0.00160754 0.000214769 -1.13727e-18)
(1.9138e-06 7.63992e-05 4.9666e-19)
(0.00080036 5.86021e-06 -4.98266e-19)
(0.00088624 0.000539426 -7.85903e-20)
(0.000131749 0.000830853 0)
(0.000560246 6.75018e-05 0)
(0.000271224 6.333e-05 -1.61139e-18)
(6.79082e-05 6.45437e-05 -1.37553e-18)
(3.47774e-05 2.38056e-05 0)
(0.00424828 0.00740836 -8.51829e-21)
(0.0042294 0.00738264 3.18517e-20)
(0.00443226 0.00758469 -5.20581e-21)
(0.00420766 0.00773662 0)
(0.00420056 0.00760111 5.77844e-19)
(0.00424774 0.00741067 -7.77732e-20)
(0.00421081 0.0080447 4.84825e-19)
(0.00428655 0.00741981 0)
(0.00420779 0.00854019 6.17272e-19)
(0.0043249 0.00744527 2.08766e-19)
(0.000807125 -3.19374e-06 -1.37119e-18)
(0.000752911 5.02401e-05 0)
(0.000218159 6.76186e-05 1.27817e-19)
(5.59749e-05 1.94815e-05 8.72767e-20)
(8.3292e-05 5.11718e-05 6.8073e-19)
(0.000112278 4.87586e-05 -3.42023e-19)
(0.000107831 1.27325e-05 0)
(5.45107e-05 7.21281e-06 8.1919e-20)
(0.000204555 0.000144083 0)
(0.000170949 5.57367e-05 -5.24789e-20)
(0.000336722 0.000230304 -5.09752e-21)
(6.03467e-05 4.83401e-05 -4.38114e-19)
(9.70019e-05 3.4239e-05 -8.53366e-20)
(9.52837e-05 6.88742e-05 1.3133e-21)
(0.000248474 0.000371693 -6.66813e-19)
(0.000126153 0.00104921 0)
(4.58807e-05 5.77208e-05 3.43421e-19)
(0.000200506 0.00179051 0)
(0.000206404 0.000259915 7.0535e-19)
(4.43432e-05 -5.38754e-06 1.11476e-19)
(0.000469063 0.000169561 -1.72475e-19)
(0.000746898 2.8971e-05 -1.91445e-18)
(4.87257e-05 -2.98815e-07 4.11967e-24)
(0.000155579 3.53693e-05 2.24818e-19)
(0.000240218 0.000105766 -9.00251e-20)
(0.000875447 0.000708812 3.35261e-19)
(0.000742947 0.00161908 -9.22277e-21)
(0.000381162 0.0014126 -9.43196e-21)
(0.00101439 0.000558374 0)
(0.000112301 -1.09379e-05 1.11993e-18)
(0.000124389 2.55747e-05 -4.4361e-20)
(0.000427798 -0.000264633 -1.13682e-18)
(0.000802066 3.00198e-05 0)
(0.000185025 2.23167e-05 3.6366e-19)
(0.000297161 0.00133709 0)
(0.00104041 0.000754961 -7.30916e-20)
(0.000820112 4.00189e-05 -1.85945e-19)
(8.84153e-05 -1.86043e-05 -3.00311e-19)
(0.000809053 0.000315343 -2.0827e-20)
(7.12114e-05 -2.20061e-05 -6.00154e-19)
(0.000226201 0.000183265 8.6473e-20)
(0.000226522 0.000312698 -3.45349e-19)
(0.000871037 0.000239339 0)
(0.000796575 4.64267e-05 0)
(0.000259383 0.00015004 1.77024e-19)
(0.000234953 1.77233e-05 2.13405e-24)
(0.000184737 0.000213039 0)
(0.000282448 0.000650357 -5.56166e-21)
(0.00033291 1.62065e-05 0)
(0.000344583 0.000600006 0)
(0.000114034 9.06984e-05 -1.3481e-21)
(0.000809867 6.53885e-06 -9.38109e-19)
(0.000813125 3.53856e-06 7.79946e-19)
(0.000133655 6.7291e-05 -1.5001e-19)
(0.000940546 0.000152777 8.51722e-20)
(0.000824654 4.80274e-05 3.33008e-19)
(0.000799782 1.71977e-05 -2.95315e-19)
(0.000995362 0.000403909 0)
(0.000427967 0.000127529 6.25093e-19)
(0.00088306 0.000315901 2.09362e-20)
(0.000557265 0.000163936 0)
(0.000272704 0.000442732 4.10028e-19)
(0.000259005 0.000225462 -8.45008e-20)
(0.00109229 0.000377383 -7.82738e-19)
(0.000600991 0.000113786 -1.79488e-19)
(0.000792067 7.70774e-05 -7.45668e-21)
(0.000824569 2.71718e-05 9.35404e-20)
(0.000101744 -9.07183e-05 -1.98344e-18)
(0.000726864 0.000380899 2.19456e-19)
(0.000645739 6.41043e-05 2.30823e-20)
(0.000691816 0.000275697 1.56389e-23)
(0.000715317 0.000451701 -4.09934e-19)
(0.000832894 3.95468e-05 9.0739e-20)
(7.61195e-05 8.80117e-05 0)
(0.000641967 0.000416391 -4.66136e-20)
(0.000185116 0.000107262 0)
(0.000368929 0.000504788 -2.65079e-19)
(0.00030938 0.000177567 0)
(0.000660914 0.00020269 3.55612e-19)
(0.00063387 0.000265355 -4.37714e-20)
(8.31988e-05 0.000109325 6.19801e-19)
(0.000871037 0.000104122 -1.63515e-18)
(6.35815e-05 2.63257e-05 2.57463e-19)
(0.000869714 5.16002e-05 -1.65778e-18)
(0.000819758 7.41396e-05 1.61831e-19)
(0.000796965 1.86152e-05 1.9316e-18)
(0.0007938 1.66052e-05 -1.31496e-19)
(0.000712573 7.43572e-05 0)
(0.000808679 3.29493e-05 8.80707e-19)
(0.000934659 0.000232341 -4.27579e-19)
(0.000752044 8.10824e-05 -4.8379e-19)
(0.000766324 0.000226725 -8.82198e-20)
(0.000235518 -0.000122568 -2.08147e-18)
(0.00072185 8.91908e-05 8.87475e-19)
(0.000632821 0.00059562 0)
(0.000122167 -0.000102986 0)
(0.00119016 0.000468098 4.97682e-19)
(0.000743573 -8.9109e-05 -3.23493e-18)
(0.00130769 0.00042748 5.76183e-19)
(0.0012495 0.000714187 -6.39936e-20)
(0.000791573 4.5616e-05 -2.12888e-19)
(0.000820468 7.1805e-05 -1.42213e-18)
(0.000809514 1.80203e-05 1.5713e-18)
(0.000806371 2.52349e-05 9.68459e-20)
(0.000662539 0.000345597 -4.40857e-20)
(0.000105725 0.000135787 8.20037e-24)
(0.000722675 -5.95853e-05 2.65385e-19)
(0.000241836 -0.000211852 -7.36622e-19)
(0.000605645 0.000190568 0)
(0.000683495 2.73548e-05 9.91517e-20)
(0.000661115 9.63302e-06 -3.81238e-19)
(0.000379606 0.000178538 3.93709e-20)
(0.000785898 0.000498398 -1.65638e-19)
(0.000154053 8.62153e-05 2.5926e-25)
(0.000802586 0.000396687 0)
(0.000962113 0.000322004 4.16228e-20)
(0.000731563 -9.41475e-05 -6.16964e-19)
(0.0003397 0.000114754 4.98229e-19)
(0.000893202 0.000419349 0)
(5.44096e-05 3.57737e-05 1.33852e-19)
(0.000469903 0.000272855 2.14165e-19)
(0.00045393 -0.000106022 -7.09946e-19)
(0.000173395 -0.000137542 -1.06014e-18)
(0.000810233 1.53976e-05 -4.76373e-19)
(0.000798577 -0.000112353 -1.93615e-19)
(0.000564118 0.000721952 -1.17552e-18)
(0.000831544 4.63521e-05 -6.70045e-20)
(0.000725214 -3.42808e-05 1.261e-18)
(0.000672286 9.87126e-05 2.28036e-20)
(0.000514672 0.000217261 -1.6585e-19)
(4.002e-05 -2.47589e-05 -8.76748e-20)
(0.000189513 -2.78099e-05 2.40862e-18)
(2.77753e-05 9.57605e-07 -1.95016e-19)
(0.00079435 9.55722e-05 3.61815e-19)
(0.000638319 0.000139603 0)
(0.000201028 -5.80299e-05 -1.04915e-18)
(0.000130095 -4.48917e-06 3.13228e-19)
(0.000127919 -3.17766e-05 -1.80994e-25)
(0.00078271 0.000113602 -3.18879e-19)
(0.000159375 -4.57549e-06 0)
(0.000571229 0.00024394 0)
(0.000111223 0.000338229 -3.63204e-19)
(0.000846387 9.96532e-05 2.10277e-18)
(2.26231e-05 1.6458e-06 0)
(0.000854152 4.3222e-05 0)
(5.2401e-05 -2.66906e-05 0)
(0.000810859 3.07623e-05 -4.43513e-21)
(0.000803137 -6.31455e-05 0)
(0.00425691 0.00740814 8.08185e-20)
(0.00436158 0.00748329 1.43346e-19)
(0.000840779 5.24286e-06 0)
(0.000760604 -5.74219e-05 8.13608e-19)
(0.00015395 0.000134533 1.49358e-19)
(0.000843458 7.56045e-05 7.96474e-19)
(0.000133916 0.000111131 2.34635e-20)
(0.000758243 -4.3855e-05 6.26813e-19)
(3.96864e-05 1.18993e-05 0)
(3.55701e-05 -1.65277e-05 -4.48954e-20)
(0.000874038 5.26105e-05 -4.85862e-19)
(4.3929e-05 -3.55424e-05 -6.70419e-19)
(0.000740525 0.000119265 -4.23565e-20)
(0.000167868 0.000171761 -1.88286e-19)
(0.000809386 1.56331e-05 0)
(0.0046827 0.00815185 8.86815e-22)
(0.00016637 0.000783466 3.34033e-19)
(0.000134121 -4.87711e-05 -9.15472e-19)
(7.26014e-05 -3.52013e-05 -1.16994e-18)
(0.000738271 1.79102e-05 1.89955e-20)
(0.000571966 0.000413918 0)
(0.000403952 0.000435954 -2.56578e-19)
(0.000106495 -5.30239e-05 1.18484e-18)
(0.00069617 2.83777e-06 7.66957e-20)
(4.77173e-05 2.56672e-06 4.07492e-19)
(0.00065784 -5.97949e-05 1.17299e-18)
(0.000806154 2.83908e-05 -5.98124e-19)
(8.48986e-05 -5.51487e-05 1.71083e-18)
(0.000837403 -2.7219e-06 -3.74212e-24)
(0.000714165 9.79673e-06 -3.76956e-20)
(0.000855123 5.89831e-05 0)
(0.000812925 3.3614e-05 0)
(0.00592582 0.00724001 2.58999e-19)
(2.90959e-05 2.2569e-07 -1.19682e-19)
(0.000166545 -8.13422e-05 7.73668e-19)
(0.000709336 0.000121427 -6.97227e-19)
(3.31761e-05 -6.85052e-07 2.01661e-19)
(0.000578927 -2.51959e-05 -7.2464e-19)
(0.000724615 2.65515e-05 1.55758e-18)
(0.000688972 0.000155499 -3.55818e-19)
(0.00080472 -1.83058e-05 3.54717e-19)
(9.29163e-05 -2.96679e-05 1.11721e-18)
(0.000786493 9.0807e-06 -3.1979e-19)
(0.000853343 4.8515e-05 0)
(0.000528585 0.000302782 4.21444e-20)
(0.000840465 4.47519e-05 -9.36257e-19)
(2.90813e-05 2.43572e-07 9.1186e-19)
(0.000832292 4.13745e-05 9.54308e-19)
(0.000841035 -1.40643e-05 -9.60718e-19)
(0.000712712 6.13238e-06 -5.69819e-19)
(0.000489521 -5.35918e-05 -5.26231e-19)
(0.00432774 0.00744957 2.30155e-19)
(0.00422753 0.00753187 -2.38424e-19)
(0.00422298 0.00758874 2.67689e-19)
(0.00425708 0.00741725 1.98187e-19)
(0.000844235 -6.93267e-06 1.43609e-19)
(0.00447532 0.00750872 0)
(0.00440243 0.00751559 -3.86555e-19)
(4.30894e-05 -2.64542e-07 -9.98113e-19)
(0.00417151 0.00747323 -6.3447e-20)
(0.00414683 0.00743462 -2.21983e-19)
(0.00602836 0.0106045 0)
(0.00653654 0.0111864 3.73079e-20)
(0.00600815 0.0105742 0)
(0.00655351 0.0112074 1.30725e-19)
(0.0059952 0.010598 2.69993e-19)
(0.00659201 0.011224 1.25223e-20)
(0.0059338 0.0106115 -7.77512e-19)
(0.00662418 0.0111431 8.25854e-21)
(0.00390183 0.00920443 -1.91102e-19)
(0.00418904 0.00749238 3.84552e-21)
(0.00424095 0.00755572 7.94089e-20)
(0.0041526 0.00743709 4.12908e-20)
(0.000853043 0.000180593 4.47244e-20)
(1.6433e-05 2.29716e-06 0)
(0.000661464 -0.000148556 0)
(0.000714154 3.6108e-05 0)
(0.00243897 0.00111333 4.19724e-21)
(0.000738821 -2.7264e-05 1.71231e-19)
(4.62575e-05 7.60517e-06 4.54538e-20)
(1.85814e-05 -3.27392e-05 1.65421e-18)
(0.000838362 2.19501e-05 0)
(3.19965e-05 1.53086e-05 -1.9193e-19)
(0.000144221 0.00023065 0)
(2.95165e-05 -1.29347e-06 0)
(2.44611e-05 -1.93911e-06 0)
(0.000799692 0.000125005 1.1356e-20)
(0.000811518 -4.69955e-06 1.77761e-19)
(3.35051e-05 0.000305919 -1.33043e-23)
(0.000160924 0.000277994 -1.84374e-18)
(0.000592419 0.000336927 -8.57864e-20)
(0.00088948 0.000128181 6.02474e-19)
(0.000705382 -0.00036617 6.71475e-19)
(0.000334666 0.00111415 0)
(0.000455032 0.000562864 2.71747e-18)
(9.54988e-05 0.000153545 -1.80361e-18)
(3.52967e-05 4.44493e-07 0)
(0.000819925 -3.37857e-05 3.6104e-20)
(2.00572e-05 4.23768e-05 1.64622e-18)
(0.000897725 2.63196e-05 2.71577e-19)
(4.27688e-05 -0.000142622 3.78251e-18)
(0.000925902 4.02457e-05 -2.69377e-19)
(0.00139501 0.000135066 7.481e-19)
(4.3617e-05 -1.23239e-05 8.26596e-20)
(4.38192e-05 6.91497e-06 -8.59599e-19)
(4.87693e-05 0.000153981 0)
(0.000891787 8.13295e-05 5.97564e-19)
(0.000486195 0.000370204 2.37374e-19)
(0.000762106 1.74102e-05 -3.88921e-20)
(0.000755768 -1.40074e-05 2.56822e-19)
(0.000718476 -0.00022388 0)
(0.00632172 0.0108978 -1.68185e-19)
(0.00637841 0.0109745 4.06227e-19)
(0.0061589 0.0107285 -6.19026e-19)
(0.0064994 0.0111325 -8.1122e-20)
(3.98947e-05 0.000124116 8.01368e-19)
(0.000894438 5.72572e-05 1.54129e-22)
(0.00641092 0.0110042 -3.86953e-19)
(0.006282 0.0108437 5.48913e-19)
(0.00607992 0.0106728 -4.15683e-19)
(0.00651988 0.0111659 -6.81828e-20)
(8.82479e-05 0.000548587 -2.02074e-20)
(0.000150827 -0.000193065 -7.9329e-19)
(0.000752371 -1.04128e-05 -7.60091e-19)
(0.00071212 0.000220452 0)
(0.000789326 2.1167e-06 0)
(0.000184204 0.000393581 3.36625e-19)
(0.000596345 0.000545702 -5.41993e-19)
(1.79243e-05 -2.73e-06 1.7859e-19)
(0.000208304 0.000464216 -7.39108e-19)
(0.00100285 0.000974736 -1.12823e-19)
(0.000728102 0.000170545 0)
(0.000775671 0.000172224 1.31168e-19)
(0.00637021 0.00587529 1.13011e-18)
(0.000723165 0.00114075 8.28246e-20)
(4.36327e-05 4.32008e-05 -7.45492e-20)
(0.000815686 3.93559e-05 0)
(0.000873858 2.29226e-05 -3.5734e-20)
(4.21401e-05 5.50268e-06 -1.96866e-19)
(3.62605e-05 6.94332e-06 1.93169e-19)
(0.000822545 2.18638e-05 5.36471e-19)
(0.000960061 0.000104145 6.59274e-19)
(0.000655939 3.89277e-05 0)
(0.000220691 -0.000310259 -3.98356e-19)
(0.000896378 0.000146388 3.90069e-19)
(3.26265e-05 -7.93466e-05 2.03339e-19)
(0.00144305 0.000378196 -2.58708e-18)
(0.000686091 -1.25052e-06 0)
(0.000779095 0.000142516 3.75878e-19)
(9.12855e-05 0.000406715 0)
(0.00118109 0.00816817 4.62233e-19)
(0.000469086 0.000506813 -1.22523e-18)
(0.000541876 0.000975759 -1.83927e-19)
(0.000866065 2.41188e-05 -1.45862e-19)
(1.76523e-05 2.98204e-05 0)
(0.000917653 7.39207e-05 6.1245e-19)
(0.00410651 0.00739782 8.15527e-20)
(0.00417293 0.0074775 4.74079e-20)
(0.00449855 0.00751266 4.54578e-19)
(0.00444375 0.00754015 -3.27191e-19)
(0.00647279 0.0111081 8.12101e-20)
(0.00390927 0.00714053 -9.39385e-22)
(0.00551164 0.0077948 -5.65143e-19)
(0.00409115 0.00736555 5.23669e-21)
(0.00518976 0.007855 5.12051e-19)
(0.00407169 0.00733468 -4.9051e-20)
(0.00495386 0.00771289 0)
(0.0040773 0.00736449 -8.59009e-20)
(0.00474169 0.00758575 4.93006e-19)
(0.00409623 0.00737903 8.76683e-20)
(0.00457408 0.00752356 0)
(0.0042802 0.00741859 1.40025e-19)
(0.00424077 0.00760041 5.82218e-19)
(0.00446686 0.00752458 -5.52621e-19)
(0.0043868 0.00750236 3.71667e-19)
(0.00423177 0.00752843 2.67331e-19)
(0.00642829 0.0110405 -4.93208e-21)
(0.00411866 0.00740439 3.12176e-20)
(0.00645668 0.0110695 0)
(2.94216e-05 8.50243e-06 -1.90064e-19)
(0.00198398 0.00653455 2.28629e-19)
(0.000844215 -1.52971e-05 1.09701e-19)
(0.000856498 1.77314e-05 0)
(3.33696e-06 3.32416e-06 -3.99543e-19)
(5.86848e-05 -0.000193446 6.92484e-19)
(2.46356e-05 6.38079e-05 2.09119e-18)
(0.000810893 0.000183762 -9.01819e-20)
(0.0007856 1.15262e-05 6.99378e-19)
(3.74335e-06 -3.76606e-06 3.10331e-19)
(2.61204e-05 -4.25005e-05 -1.84746e-18)
(0.000749776 2.6452e-05 1.63364e-19)
(0.000851884 0.000128372 -3.0754e-20)
(0.000783291 -8.30279e-06 1.46906e-19)
(0.000403036 0.00066195 0)
(0.000108724 -0.000152934 1.15234e-18)
(0.000845226 1.70685e-05 1.52428e-19)
(2.30402e-05 2.80349e-05 0)
(0.000105306 0.000566937 -6.31801e-19)
(0.000605522 0.000602088 1.31917e-18)
(0.000338126 0.000730132 0)
(0.000783003 -1.63223e-05 0)
(0.000786012 1.85253e-05 1.16933e-18)
(2.27636e-05 5.3849e-05 -3.51866e-18)
(2.08723e-05 1.0137e-05 3.74025e-19)
(0.000114119 0.000154823 0)
(6.01193e-05 -4.42623e-05 0)
(6.87778e-05 0.000120977 2.01212e-19)
(0.000912718 0.000174155 3.50837e-19)
(0.000796549 6.00052e-06 -1.38142e-18)
(2.61258e-05 3.857e-05 0)
(0.000556369 4.48579e-05 -6.0279e-20)
(0.000792881 3.63385e-05 -1.5478e-19)
(0.000826363 1.87107e-05 1.04085e-18)
(0.000255738 0.0005465 6.32843e-19)
(0.00084369 0.000149176 0)
(2.91463e-05 -3.04765e-05 5.39262e-19)
(4.28452e-06 -1.28372e-05 -3.20316e-19)
(0.00106789 1.79626e-05 0)
(0.00102159 0.00222451 0)
(0.00102153 -3.9001e-05 0)
(0.000984107 0.000195742 4.2768e-19)
(0.000816044 -2.01193e-05 -2.81946e-19)
(0.00090387 0.000119806 -6.8558e-19)
(0.000787732 6.13533e-06 0)
(4.41775e-05 7.68446e-05 -1.71749e-19)
(0.000173164 0.000331102 1.08222e-18)
(0.000789781 3.22535e-05 1.23128e-23)
(0.0010683 0.0001936 -6.69088e-19)
(0.00108427 0.000117858 0)
(3.55767e-06 1.1384e-05 2.51301e-19)
(2.49391e-05 -2.01769e-05 -1.94525e-19)
(0.000650575 3.1084e-05 6.89103e-21)
(4.0754e-05 -0.000106361 0)
(0.00103118 0.000247948 9.51001e-19)
(0.00502748 0.00974565 -2.8376e-19)
(0.00311739 0.00962292 1.27412e-18)
(7.88022e-05 -0.000119743 -1.91559e-19)
(8.02988e-05 -8.22814e-05 1.86164e-18)
(0.00118938 0.000224988 1.67031e-19)
(0.00133084 0.00106579 2.34316e-19)
(0.000823239 5.32078e-06 -7.35878e-19)
(0.000215729 0.000943114 -2.39131e-19)
(0.000788098 0.000890463 -2.18792e-19)
(0.000790119 -6.85317e-06 0)
(9.74521e-05 0.000675079 0)
(9.80002e-05 0.000287281 -4.69366e-23)
(0.000742379 -2.52351e-05 -1.80874e-23)
(0.000808503 3.34871e-05 1.5075e-19)
(0.00261721 0.00204827 -1.23229e-18)
(0.00175469 0.00924147 -1.17352e-19)
(0.000825365 2.92958e-05 4.82194e-19)
(0.00635233 0.00403788 -1.75596e-19)
(0.00672253 0.0115516 -1.37478e-20)
(0.00473032 0.0078385 4.95467e-21)
(0.000799446 2.92851e-05 -2.17607e-18)
(0.000823066 3.1816e-05 -4.12124e-24)
(1.46117e-05 -1.14222e-05 -3.48397e-19)
(4.84185e-05 9.85853e-05 -3.49653e-19)
(7.86212e-05 0.00028248 8.76592e-19)
(1.50251e-05 1.99881e-05 4.90941e-19)
(9.06595e-05 0.000240214 3.70145e-19)
(0.000820033 3.55639e-05 0)
(0.00535222 0.0094937 1.93734e-20)
(0.00153617 0.000609793 -2.62e-20)
(0.000821334 2.36371e-05 3.55875e-19)
(5.98167e-05 -9.4096e-05 0)
(0.00184203 0.000755232 5.46416e-19)
(1.32192e-05 1.06601e-05 -2.70449e-19)
(3.86887e-05 3.34799e-05 9.72882e-20)
(0.00131567 0.00137414 6.3704e-19)
(0.000748892 3.48268e-05 1.83338e-19)
(1.11474e-05 -3.13985e-06 -1.70393e-19)
(0.00204786 0.00154488 -1.05729e-18)
(0.000127849 0.00018788 -8.1958e-19)
(0.00392263 0.00847801 -1.09148e-18)
(1.01615e-05 2.7768e-06 8.82387e-20)
(0.000195968 -0.000280582 -1.24865e-18)
(6.49747e-05 -6.07824e-05 4.06101e-20)
(0.00151292 0.000965476 0)
(0.0010212 0.000142664 -4.21097e-22)
(0.000447182 0.00085509 -4.02592e-20)
(0.000801929 2.07695e-05 -2.31614e-19)
(8.70386e-05 0.000194449 7.36512e-19)
(5.00061e-05 -7.11814e-05 4.04481e-19)
(2.17849e-05 1.86647e-05 -9.48136e-20)
(3.76651e-05 0.000103325 -3.20631e-19)
(0.000197282 -0.000347684 -5.4057e-19)
(0.00323696 0.00343541 2.94607e-21)
)
;

boundaryField
{
    back
    {
        type            empty;
    }
    ingreso
    {
        type            fixedValue;
        value           uniform (0.0008 0 0);
    }
    salida
    {
        type            zeroGradient;
    }
    front
    {
        type            empty;
    }
    defaultFaces
    {
        type            noSlip;
    }
}


// ************************************************************************* //
