/*--------------------------------*- C++ -*----------------------------------*\
  =========                 |
  \\      /  F ield         | OpenFOAM: The Open Source CFD Toolbox
   \\    /   O peration     | Website:  https://openfoam.org
    \\  /    A nd           | Version:  7
     \\/     M anipulation  |
\*---------------------------------------------------------------------------*/
FoamFile
{
    version     2.0;
    format      ascii;
    class       volVectorField;
    location    "87.5";
    object      U;
}
// * * * * * * * * * * * * * * * * * * * * * * * * * * * * * * * * * * * * * //

dimensions      [0 1 -1 0 0 0 0];

internalField   nonuniform List<vector> 
591
(
(0.000834395 -1.3112e-05 1.2169e-18)
(0.000828082 -1.26919e-05 -6.6272e-19)
(0.000855946 8.75578e-06 5.70807e-20)
(0.000864918 -1.96849e-05 -1.49052e-19)
(0.000851206 -5.44847e-06 2.25493e-19)
(0.000803294 -3.95078e-05 -1.39589e-19)
(0.000565578 -0.000249632 8.06038e-19)
(0.000803918 4.50017e-06 2.10036e-18)
(0.00572862 0.00250814 9.87913e-19)
(0.000809174 -6.70158e-06 2.44896e-18)
(4.69965e-05 0.000164114 1.21802e-18)
(0.000937053 0.00138811 9.40744e-21)
(0.000800741 4.17869e-06 1.32333e-18)
(0.00160085 0.00240136 -7.87402e-19)
(0.00080337 1.6721e-06 -4.45795e-19)
(5.06037e-05 -0.000172268 2.12562e-22)
(0.000139492 0.000673463 7.04836e-19)
(0.000817822 7.59652e-05 -4.96976e-19)
(0.00190696 0.000392917 4.73839e-19)
(0.00136002 0.000254003 -2.47065e-19)
(0.000832499 -8.16624e-06 3.73136e-19)
(0.0034002 0.00655954 -8.14927e-20)
(2.46483e-05 6.62417e-05 2.70891e-19)
(0.000836143 -2.26487e-05 -4.51446e-19)
(8.0346e-06 -1.29531e-05 3.58842e-19)
(0.000785161 3.89391e-05 0)
(9.41169e-05 0.000469829 1.5994e-19)
(0.000562271 2.57331e-06 -1.78799e-19)
(0.000760442 4.66777e-05 1.14924e-18)
(0.000808135 6.46826e-05 5.85404e-19)
(5.22607e-05 -4.89012e-06 -4.90192e-24)
(2.57362e-05 -4.18037e-05 3.52097e-19)
(3.13072e-05 -2.72698e-06 -4.6412e-20)
(4.05174e-05 -1.21794e-05 0)
(4.93726e-05 -1.29381e-05 1.1312e-18)
(0.00117263 0.000137045 1.79875e-19)
(2.64515e-05 -4.60386e-06 4.47045e-20)
(0.000825001 1.06026e-06 3.17969e-23)
(2.45523e-05 4.03174e-05 2.65971e-19)
(-5.21106e-07 -7.58239e-05 -8.53674e-19)
(0.000653637 -0.000198494 9.59067e-19)
(2.0771e-05 -5.57666e-06 4.54723e-20)
(0.000809369 1.1407e-05 -1.58054e-18)
(0.000832219 4.80702e-05 -6.91e-19)
(1.36863e-05 -6.38698e-06 0)
(5.06185e-05 4.96648e-06 8.51683e-20)
(0.00134777 0.00450274 8.92861e-19)
(7.09588e-05 1.24536e-05 8.63436e-20)
(0.000801912 1.62618e-05 0)
(0.000390319 -0.00022443 6.77174e-19)
(0.000387052 0.000268982 5.11815e-21)
(0.000400248 3.86063e-05 -1.00357e-18)
(0.00634768 0.0109408 -7.68545e-19)
(0.00622454 0.0107959 1.52871e-20)
(0.00561426 0.0103786 1.45579e-18)
(0.000806846 4.08257e-05 0)
(6.32379e-05 2.73402e-05 0)
(0.000318796 1.26199e-06 2.11778e-23)
(5.84121e-05 8.0338e-06 -3.46382e-19)
(0.00081306 -7.42424e-06 0)
(0.000653079 2.87289e-05 3.17489e-19)
(0.000841636 2.07869e-05 2.20731e-18)
(0.000807771 3.62136e-05 -5.38611e-19)
(0.000800035 1.25303e-05 -3.15684e-19)
(0.00171296 0.000488783 5.42657e-19)
(0.00080649 2.62086e-05 -1.14961e-18)
(0.000834983 3.02631e-05 -5.241e-19)
(7.40296e-05 -5.5608e-06 -1.73373e-19)
(0.000689151 0.00226046 0)
(0.000842997 4.5772e-05 0)
(0.000787281 2.20201e-05 -1.39275e-18)
(3.51538e-05 1.42244e-05 0)
(0.000291631 0.000265938 3.26784e-19)
(3.51358e-05 -1.60224e-05 0)
(3.69387e-05 -5.63453e-06 1.59437e-19)
(9.17926e-06 -3.8252e-05 -3.36591e-20)
(0.000798779 7.84448e-05 2.46878e-19)
(4.08372e-05 9.10563e-06 0)
(0.000808083 5.5489e-05 4.4742e-19)
(0.000778866 0.000294259 2.10683e-19)
(0.000962301 6.60035e-05 -3.97821e-20)
(3.99118e-05 2.06516e-05 -4.51763e-20)
(4.29757e-06 -1.54403e-05 0)
(0.000439641 0.000212821 1.70151e-19)
(2.76304e-06 1.84615e-05 0)
(0.000802358 4.37221e-05 -6.06798e-19)
(0.000633017 -0.00011791 0)
(5.94746e-05 -3.68088e-06 -1.74442e-19)
(1.73373e-06 -2.12846e-05 0)
(0.000833685 0.000240938 -3.41184e-19)
(2.63297e-06 -8.88875e-06 0)
(0.000429061 0.000321059 -1.33125e-23)
(0.000539419 0.00010922 0)
(0.000813314 4.3467e-05 -3.02964e-24)
(2.36395e-06 1.12692e-05 -4.2162e-20)
(0.000466089 -2.28226e-05 1.76313e-18)
(0.00102053 7.26552e-05 4.15921e-20)
(0.000799896 4.62658e-05 6.41375e-22)
(0.000744705 0.000658833 2.69446e-19)
(6.89457e-06 4.21909e-05 0)
(-4.14667e-06 -2.75038e-05 -3.12116e-19)
(-3.32511e-05 -4.0614e-05 -1.10166e-18)
(4.76804e-06 6.89237e-05 -5.96238e-19)
(0.000601216 -2.62353e-05 0)
(8.88774e-06 9.27308e-05 0)
(0.000817999 3.14801e-05 2.18213e-18)
(0.000796258 3.19735e-05 1.53395e-18)
(0.000441562 -0.000101687 0)
(3.99553e-05 0.000211311 -8.95181e-19)
(6.89079e-07 0.000156814 4.96727e-19)
(5.77731e-05 0.000396728 6.25141e-19)
(0.000309377 7.16362e-05 -9.36973e-19)
(0.00080212 2.00776e-05 1.37388e-19)
(0.000258576 -6.07806e-05 5.31105e-19)
(4.23747e-06 2.71524e-05 0)
(1.94069e-05 0.000274714 -1.09387e-18)
(0.000324144 0.000320362 -1.61673e-19)
(-1.20714e-06 -2.19869e-05 1.46524e-19)
(0.00066989 0.000809414 0)
(0.000372351 0.000383491 5.74304e-20)
(0.000822111 2.47932e-05 1.07045e-18)
(0.000799687 1.69779e-06 -2.72332e-18)
(5.56709e-06 -6.96801e-06 0)
(0.000662599 -3.87211e-05 -1.12287e-19)
(0.000322817 -0.000137695 1.24294e-18)
(0.002629 0.000810199 -3.36471e-19)
(7.33095e-06 0.000122246 -6.1311e-19)
(7.52617e-06 0.000150402 1.61936e-18)
(0.000674343 2.45844e-05 -3.89761e-20)
(5.73238e-05 -1.55177e-05 -7.49997e-19)
(0.000810173 3.5751e-05 -3.88678e-19)
(0.000724161 2.70502e-05 -4.10413e-20)
(3.29458e-05 0.000321143 -5.97004e-19)
(0.000497273 5.67693e-05 -4.93828e-19)
(4.37535e-05 -4.03699e-06 1.56118e-19)
(0.000839458 3.71409e-05 -1.09009e-18)
(0.00153841 0.000234937 -1.13675e-18)
(4.92432e-06 5.54648e-05 4.96324e-19)
(0.000812084 3.47128e-05 -5.02121e-19)
(0.000921063 0.000550225 -7.84941e-20)
(0.000148829 0.000782262 0)
(0.000594354 6.32675e-05 0)
(0.000277363 4.50593e-05 -1.60925e-18)
(6.02195e-05 5.42203e-05 -1.3738e-18)
(2.82012e-05 1.84665e-05 0)
(0.00424739 0.00740036 -1.01965e-20)
(0.00422558 0.00737214 3.16547e-20)
(0.00442777 0.0075749 -4.97295e-21)
(0.00420603 0.00773381 0)
(0.00419849 0.00759961 5.77212e-19)
(0.00424441 0.00740158 -9.20136e-20)
(0.00420974 0.00804128 4.84446e-19)
(0.00429003 0.00742267 0)
(0.00420804 0.00853424 6.16748e-19)
(0.00432657 0.00745125 2.23922e-19)
(0.000831415 1.69898e-05 -1.37291e-18)
(0.000778961 5.8602e-05 0)
(0.000211453 4.31639e-05 1.27674e-19)
(4.64694e-05 1.34192e-05 8.71653e-20)
(7.41357e-05 4.00718e-05 6.79873e-19)
(0.000101061 3.52541e-05 -3.41596e-19)
(9.377e-05 2.01512e-07 0)
(4.37728e-05 3.43105e-06 8.18189e-20)
(0.000207317 0.000124539 0)
(0.000161819 3.25529e-05 -5.24205e-20)
(0.000346592 0.000217102 -5.09158e-21)
(5.26299e-05 3.91179e-05 -4.37559e-19)
(8.58156e-05 2.20869e-05 -8.52286e-20)
(8.6844e-05 5.64173e-05 1.31167e-21)
(0.000259819 0.00036174 -6.66052e-19)
(0.000109287 0.000993393 0)
(3.95536e-05 4.87929e-05 3.42988e-19)
(0.000198844 0.00174455 0)
(0.000208509 0.000248254 7.04527e-19)
(3.29714e-05 -3.196e-06 1.1147e-19)
(0.000490631 0.000160882 -1.72268e-19)
(0.000770994 2.52889e-05 -1.92372e-18)
(3.84051e-05 -1.62262e-06 4.7849e-24)
(0.000142625 1.66683e-05 2.24544e-19)
(0.000245799 8.35993e-05 -8.99145e-20)
(0.000882287 0.000697813 3.3488e-19)
(0.000727699 0.00163446 -9.23342e-21)
(0.000399236 0.00142011 -9.38741e-21)
(0.00102859 0.000546472 0)
(9.41303e-05 -1.9343e-05 1.11846e-18)
(0.000109561 8.38239e-06 -4.42934e-20)
(0.000467906 -0.000278215 -1.13603e-18)
(0.000821831 4.24967e-05 0)
(0.000177389 -1.07326e-05 3.63232e-19)
(0.000303585 0.00130015 0)
(0.00108746 0.000774937 -7.30061e-20)
(0.000827236 2.98703e-05 -1.86513e-19)
(6.91943e-05 -2.31449e-05 -2.99912e-19)
(0.000837983 0.000316009 -2.08003e-20)
(4.82742e-05 -2.12442e-05 -5.99357e-19)
(0.000227266 0.000168785 8.63714e-20)
(0.00023133 0.000305626 -3.44946e-19)
(0.000894265 0.000251466 0)
(0.000823057 5.57279e-05 0)
(0.000265962 0.00012673 1.76812e-19)
(0.000232869 -1.12296e-05 6.17759e-24)
(0.000184817 0.000200305 0)
(0.000303804 0.00064806 -5.55601e-21)
(0.000357369 -2.21691e-05 0)
(0.000380451 0.000598432 0)
(0.000105373 7.59994e-05 -1.34642e-21)
(0.000810662 3.11735e-05 -9.57128e-19)
(0.000805952 1.84696e-05 7.97773e-19)
(0.000124996 5.02067e-05 -1.49825e-19)
(0.000968331 0.00014666 8.50245e-20)
(0.000840252 3.99579e-05 3.3349e-19)
(0.000820978 3.25402e-05 -2.94038e-19)
(0.00102957 0.000419162 0)
(0.000445216 0.000112269 6.24302e-19)
(0.000908529 0.000322709 2.09093e-20)
(0.000587781 0.000152098 0)
(0.000273703 0.000445383 4.09568e-19)
(0.000262644 0.000211099 -8.44017e-20)
(0.00110105 0.000382543 -7.81956e-19)
(0.000635238 0.000102731 -1.79251e-19)
(0.000818342 7.50638e-05 -7.45717e-21)
(0.000844556 2.55531e-05 9.40076e-20)
(6.07296e-05 -8.62473e-05 -1.98092e-18)
(0.000744183 0.000380075 2.19192e-19)
(0.000680316 6.73672e-05 2.30591e-20)
(0.000713708 0.000279234 1.61591e-23)
(0.00073712 0.000461081 -4.09608e-19)
(0.00085118 2.03648e-05 9.06876e-20)
(6.90973e-05 7.41692e-05 0)
(0.000661633 0.000423323 -4.65828e-20)
(0.000182261 8.70146e-05 0)
(0.000374413 0.000501732 -2.64791e-19)
(0.000311437 0.000160706 0)
(0.000682014 0.000205626 3.55149e-19)
(0.000656799 0.000259492 -4.37159e-20)
(7.98979e-05 9.92688e-05 6.19025e-19)
(0.000882358 9.62613e-05 -1.63707e-18)
(5.36592e-05 1.90107e-05 2.57135e-19)
(0.00089488 7.31326e-05 -1.68615e-18)
(0.000846689 9.03751e-05 1.63004e-19)
(0.000813205 3.59132e-05 1.91239e-18)
(0.000821035 3.37146e-05 -1.32818e-19)
(0.000743352 7.09939e-05 0)
(0.000805548 2.1045e-05 8.9542e-19)
(0.000969432 0.000235053 -4.27002e-19)
(0.000784072 9.87984e-05 -4.83628e-19)
(0.000782006 0.000235966 -8.81024e-20)
(0.000200844 -0.000186681 -2.07599e-18)
(0.000758468 8.05248e-05 8.87337e-19)
(0.000642811 0.000593058 0)
(6.8236e-05 -0.000121329 0)
(0.00122794 0.000474294 4.97182e-19)
(0.000573794 -5.85523e-05 -3.27087e-18)
(0.00135245 0.000415358 5.76357e-19)
(0.00125158 0.000718517 -6.38852e-20)
(0.000815895 3.3128e-05 -2.12714e-19)
(0.000841664 6.68708e-05 -1.42713e-18)
(0.000814938 2.76959e-05 1.58718e-18)
(0.000816175 2.28143e-05 9.7789e-20)
(0.00067359 0.000353408 -4.40312e-20)
(9.96547e-05 0.000116386 7.83967e-24)
(0.000761381 -3.2463e-05 2.64971e-19)
(0.000210618 -0.000263305 -7.31417e-19)
(0.000634641 0.000183692 0)
(0.000720557 5.0043e-05 9.90163e-20)
(0.000711863 9.53917e-06 -3.80722e-19)
(0.000394362 0.000165611 3.93283e-20)
(0.0008112 0.000509476 -1.65443e-19)
(0.000145985 6.79409e-05 3.7885e-25)
(0.000817366 0.00041329 0)
(0.000986585 0.000316116 4.15675e-20)
(0.000765935 -6.63625e-05 -6.15856e-19)
(0.00035314 9.75022e-05 4.97717e-19)
(0.000904762 0.000427673 0)
(4.59106e-05 2.8259e-05 1.33681e-19)
(0.000491343 0.000263498 2.13906e-19)
(0.000535533 -0.00016607 -7.09296e-19)
(0.000105269 -0.000172222 -1.05551e-18)
(0.000826403 3.82268e-05 -4.86629e-19)
(0.000765354 -7.10793e-05 -1.94362e-19)
(0.000548443 0.000729528 -1.17417e-18)
(0.00085337 4.69039e-05 -6.74475e-20)
(0.000585039 -1.43014e-05 1.28142e-18)
(0.000714392 9.95864e-05 2.27726e-20)
(0.000540316 0.000205502 -1.6565e-19)
(2.61234e-05 -1.96887e-05 -8.75645e-20)
(0.000155679 -5.52491e-05 2.4055e-18)
(1.41198e-05 5.95855e-07 -1.94807e-19)
(0.000838544 0.000117846 3.63661e-19)
(0.000676207 0.000135231 0)
(0.000175619 -0.000103315 -1.04794e-18)
(0.00011443 -2.47886e-05 3.12758e-19)
(9.74053e-05 -3.95967e-05 1.34912e-23)
(0.000806646 0.00010521 -3.19189e-19)
(0.000147514 -1.99651e-05 0)
(0.000592696 0.000239504 0)
(0.000111353 0.000324667 -3.62781e-19)
(0.000866681 0.000101295 2.10702e-18)
(1.14907e-05 8.32014e-07 0)
(0.000885765 5.29251e-05 0)
(3.78059e-05 -2.51496e-05 0)
(0.000815323 4.83972e-05 -4.46698e-21)
(0.000785366 -3.48542e-05 0)
(0.00426045 0.00740695 8.07045e-20)
(0.0043625 0.00748726 1.43651e-19)
(0.000843312 -1.34552e-05 0)
(0.000794924 -3.91624e-05 8.11954e-19)
(0.000151897 0.000118301 1.49178e-19)
(0.000859664 6.70635e-05 8.07778e-19)
(0.00012762 9.54603e-05 2.34345e-20)
(0.000788032 -2.37203e-05 6.24161e-19)
(3.19038e-05 8.40503e-06 0)
(2.41851e-05 -1.2042e-05 -4.48376e-20)
(0.000904148 4.81091e-05 -4.86433e-19)
(2.73516e-05 -2.94335e-05 -6.69647e-19)
(0.000765176 0.000124957 -4.23138e-20)
(0.000168932 0.00015607 -1.88061e-19)
(0.000814373 3.09192e-05 0)
(0.0046825 0.0081536 9.00708e-22)
(0.000189394 0.000790849 3.33407e-19)
(0.000104296 -6.48524e-05 -9.14317e-19)
(5.33655e-05 -3.48393e-05 -1.16851e-18)
(0.000607312 1.3201e-05 1.89794e-20)
(0.000583919 0.000405289 0)
(0.000423238 0.000444889 -2.56281e-19)
(7.15313e-05 -6.3014e-05 1.18345e-18)
(0.000567094 -6.90253e-07 7.68639e-20)
(3.84132e-05 1.27346e-06 4.07e-19)
(0.000716908 -4.56183e-05 1.17133e-18)
(0.000812523 3.27269e-05 -6.03852e-19)
(5.39801e-05 -5.44424e-05 1.70901e-18)
(0.000841748 -3.61252e-05 -6.02608e-24)
(0.000583551 6.47841e-06 -3.75726e-20)
(0.000873945 7.15915e-05 0)
(0.000844455 4.70155e-05 0)
(0.00591676 0.00724294 2.59776e-19)
(1.45515e-05 -2.78943e-06 -1.19564e-19)
(0.000105182 -0.000111495 7.72846e-19)
(0.000733423 0.000115365 -6.96269e-19)
(1.72867e-05 1.76333e-07 2.0149e-19)
(0.000641879 -3.63082e-05 -7.23633e-19)
(0.000751271 3.58613e-05 1.55766e-18)
(0.000711521 0.000158446 -3.55356e-19)
(0.000807507 -1.20131e-05 3.60844e-19)
(6.72654e-05 -3.60302e-05 1.11573e-18)
(0.000801127 6.52494e-06 -3.22611e-19)
(0.000871645 3.83442e-05 0)
(0.000547384 0.000302393 4.20926e-20)
(0.000864212 5.05255e-05 -9.47198e-19)
(1.52609e-05 2.77599e-06 9.11238e-19)
(0.000858804 4.35502e-05 9.65694e-19)
(0.000861274 1.96104e-05 -9.64468e-19)
(0.000760802 -9.87442e-07 -5.69032e-19)
(0.000538548 -7.99255e-05 -5.25518e-19)
(0.00432951 0.00745346 2.47583e-19)
(0.00422256 0.00752873 -2.78858e-19)
(0.0042209 0.00758628 2.66794e-19)
(0.00425613 0.00741089 1.97978e-19)
(0.000845072 -3.45566e-05 1.44238e-19)
(0.00447665 0.007514 0)
(0.00440393 0.00751788 -3.86971e-19)
(2.42284e-05 -1.29906e-07 -9.97994e-19)
(0.0041704 0.00746892 -6.33686e-20)
(0.00414583 0.00743214 -2.21519e-19)
(0.00602925 0.0106053 0)
(0.00654034 0.0111872 3.71456e-20)
(0.00600918 0.010575 0)
(0.00655605 0.0112107 1.30899e-19)
(0.00599653 0.010599 2.69666e-19)
(0.00659275 0.0112276 1.2463e-20)
(0.00593532 0.0106117 -7.76723e-19)
(0.00662301 0.0111466 8.15334e-21)
(0.00390352 0.00919802 -1.9081e-19)
(0.00418662 0.00748812 3.87463e-21)
(0.00423754 0.00755159 7.93637e-20)
(0.00415032 0.00743444 4.12049e-20)
(0.000889564 0.000194874 4.46633e-20)
(8.01574e-06 1.1269e-06 0)
(0.000718423 -0.000109416 0)
(0.000658709 5.52651e-05 0)
(0.00244417 0.00111554 4.22996e-21)
(0.00075769 -3.09926e-05 1.72538e-19)
(3.70426e-05 4.79565e-06 4.53955e-20)
(7.12063e-06 -2.3694e-05 1.65264e-18)
(0.000857865 8.67052e-06 0)
(2.55245e-05 1.12748e-05 -1.91685e-19)
(0.000139367 0.000218697 0)
(1.35188e-05 -8.85491e-07 0)
(1.07069e-05 -1.06424e-06 0)
(0.000832022 0.000145622 1.13734e-20)
(0.000811094 -1.82755e-05 1.79507e-19)
(3.77886e-05 0.000262884 -1.19403e-23)
(0.000156785 0.000269215 -1.84157e-18)
(0.000608487 0.000327054 -8.56826e-20)
(0.000899933 0.00011124 6.01746e-19)
(0.000622661 -0.00017446 6.74149e-19)
(0.00035971 0.00111286 0)
(0.000478892 0.000575405 2.71479e-18)
(8.89503e-05 0.000141124 -1.80279e-18)
(1.7334e-05 -1.47685e-07 0)
(0.000822329 -6.23419e-05 3.64113e-20)
(1.47478e-05 3.31156e-05 1.64413e-18)
(0.000896428 3.46532e-05 2.71088e-19)
(-2.836e-05 5.22924e-05 3.81127e-18)
(0.000927902 4.09965e-05 -2.68957e-19)
(0.00133884 0.00015205 7.47105e-19)
(3.11456e-05 -9.95663e-06 8.25525e-20)
(3.28032e-05 2.7761e-06 -8.58943e-19)
(5.07992e-05 0.000137551 0)
(0.000916209 8.59638e-05 5.98375e-19)
(0.000496991 0.000367311 2.37099e-19)
(0.000631483 1.74982e-05 -3.89004e-20)
(0.000784146 1.14688e-06 2.57352e-19)
(0.000732498 -0.000155148 0)
(0.00632041 0.010896 -1.68139e-19)
(0.00637879 0.0109734 4.05863e-19)
(0.00616009 0.0107304 -6.1843e-19)
(0.00650136 0.0111324 -8.09885e-20)
(3.26495e-05 0.000114819 8.00374e-19)
(0.000926673 6.09853e-05 1.44765e-22)
(0.00641141 0.0110059 -3.86486e-19)
(0.00628144 0.0108459 5.48327e-19)
(0.00608013 0.0106722 -4.16796e-19)
(0.00652187 0.0111649 -6.81479e-20)
(7.92972e-05 0.000496332 -2.0178e-20)
(5.97615e-05 -0.000197049 -7.92574e-19)
(0.000651004 -2.03838e-05 -7.66016e-19)
(0.000728501 0.000219699 0)
(0.000800275 1.9742e-07 0)
(0.000188169 0.000387728 3.36238e-19)
(0.000601256 0.000511502 -5.41768e-19)
(7.02668e-06 -1.22325e-06 1.78357e-19)
(0.000200118 0.000467216 -7.38266e-19)
(0.00101849 0.000977751 -1.12677e-19)
(0.000749859 0.000166007 0)
(0.000792564 0.000184838 1.30994e-19)
(0.00635177 0.00588264 1.1316e-18)
(0.000737551 0.00113038 8.26515e-20)
(3.66374e-05 3.57505e-05 -7.44534e-20)
(0.000808127 1.0673e-05 0)
(0.000872357 2.4316e-05 -3.56834e-20)
(3.12463e-05 2.50451e-06 -1.96684e-19)
(2.7161e-05 3.8691e-06 1.92959e-19)
(0.000834299 1.47864e-05 5.37101e-19)
(0.000979899 0.000112498 6.58346e-19)
(0.000546057 4.30249e-05 0)
(0.000222796 -0.000282831 -3.98095e-19)
(0.000918541 0.000143995 3.89511e-19)
(5.98484e-06 -5.23889e-05 2.03022e-19)
(0.00145325 0.000441939 -2.58114e-18)
(0.000573067 -1.11177e-05 0)
(0.000796904 0.000142725 3.75391e-19)
(9.54513e-05 0.000390182 0)
(0.00118846 0.00816115 4.62074e-19)
(0.000494946 0.000498338 -1.22433e-18)
(0.00054052 0.00101559 -1.83723e-19)
(0.0008856 1.56277e-05 -1.46026e-19)
(1.16453e-05 2.34125e-05 0)
(0.000956426 7.77948e-05 6.1152e-19)
(0.00410633 0.00739535 8.14353e-20)
(0.00417123 0.00747343 4.73154e-20)
(0.00450048 0.00751666 4.5406e-19)
(0.00444553 0.00754248 -3.29131e-19)
(0.00647528 0.0111094 8.10658e-20)
(0.00391486 0.0071461 -9.59585e-22)
(0.00550816 0.00779957 -5.64729e-19)
(0.0040979 0.0073717 5.21899e-21)
(0.0051891 0.00785921 5.11664e-19)
(0.00407971 0.00734012 -4.87271e-20)
(0.00495429 0.00771866 0)
(0.00408499 0.00736447 -8.56674e-20)
(0.00474302 0.00758956 4.92508e-19)
(0.00409824 0.00737606 8.75237e-20)
(0.00457566 0.0075292 0)
(0.00428401 0.00742119 1.39757e-19)
(0.00423908 0.00759784 5.80338e-19)
(0.00446804 0.00752797 -5.54385e-19)
(0.00438815 0.00750532 3.71348e-19)
(0.00422768 0.00752467 3.22869e-19)
(0.00643061 0.0110427 -4.97621e-21)
(0.00411777 0.00740144 3.11627e-20)
(0.00645874 0.0110726 0)
(2.191e-05 5.00228e-06 -1.89822e-19)
(0.00200049 0.00654555 2.28199e-19)
(0.000838238 -5.64279e-05 1.09786e-19)
(0.000854196 4.77033e-06 0)
(1.05923e-06 8.12097e-07 -3.99033e-19)
(-2.39999e-05 -0.000102881 6.91029e-19)
(2.3711e-05 5.40382e-05 2.08861e-18)
(0.000833886 0.000183886 -9.00518e-20)
(0.00080124 8.51198e-06 7.06246e-19)
(6.39317e-07 -4.08346e-07 3.09926e-19)
(1.54997e-05 -3.06415e-05 -1.84526e-18)
(0.000763535 2.69142e-05 1.63119e-19)
(0.000870661 0.000124451 -3.07922e-20)
(0.000800883 -7.73407e-06 1.48104e-19)
(0.00042612 0.000679771 0)
(2.12932e-05 -0.000139605 1.15118e-18)
(0.000870368 3.53766e-06 1.52491e-19)
(1.87894e-05 2.22156e-05 0)
(0.000118184 0.00055627 -6.31154e-19)
(0.000611739 0.000588054 1.31772e-18)
(0.000329273 0.000755985 0)
(0.000801935 -1.54086e-05 0)
(0.000801621 2.99513e-06 1.17619e-18)
(1.60321e-05 4.65801e-05 -3.51429e-18)
(1.50925e-05 6.24554e-06 3.73549e-19)
(0.000116457 0.000140505 0)
(3.8917e-05 -3.95283e-05 0)
(6.00569e-05 0.000108985 2.00961e-19)
(0.000940585 0.000190061 3.50359e-19)
(0.0008005 1.47518e-05 -1.39686e-18)
(2.15824e-05 3.10881e-05 0)
(0.000429789 5.22775e-06 -6.04369e-20)
(0.000800431 3.663e-05 -1.56317e-19)
(0.000847094 4.26326e-05 1.06461e-18)
(0.000255624 0.000542021 6.32125e-19)
(0.000881561 0.000157226 0)
(1.54917e-05 -2.12449e-05 5.38504e-19)
(1.84599e-06 -3.65155e-06 -3.19901e-19)
(0.00095695 3.34355e-05 0)
(0.00104312 0.00226876 0)
(0.000916855 -1.77862e-07 0)
(0.0010052 0.000208261 4.27088e-19)
(0.000818263 -3.649e-05 -2.84228e-19)
(0.000938018 0.000110475 -6.84631e-19)
(0.000801057 3.48552e-06 0)
(4.09526e-05 6.56032e-05 -1.71533e-19)
(0.000174638 0.000324639 1.08095e-18)
(0.000800344 1.35123e-05 -2.28265e-23)
(0.00110023 0.000209836 -6.68691e-19)
(0.00108921 0.000128013 0)
(2.12858e-06 4.8e-06 2.5098e-19)
(1.59453e-05 -1.36316e-05 -1.94275e-19)
(0.000560125 4.42758e-05 6.94878e-21)
(-3.95055e-07 -6.85387e-05 0)
(0.00107058 0.000256058 9.49809e-19)
(0.00502865 0.00974827 -2.82956e-19)
(0.0031214 0.00961701 1.27246e-18)
(2.6724e-05 -9.82524e-05 -1.91293e-19)
(4.45781e-05 -7.26356e-05 1.85909e-18)
(0.00119021 0.00025379 1.67317e-19)
(0.00132981 0.00107714 2.3405e-19)
(0.000810748 1.97764e-06 -7.34984e-19)
(0.000197296 0.00095017 -2.38202e-19)
(0.00081846 0.000943767 -2.18549e-19)
(0.000800252 -2.25144e-06 0)
(8.24977e-05 0.000615657 0)
(9.47975e-05 0.000279343 -3.73205e-23)
(0.000719036 -4.61126e-05 -1.67545e-23)
(0.000825485 6.88392e-05 1.52574e-19)
(0.00263107 0.00206442 -1.23117e-18)
(0.00176021 0.00923766 -1.17202e-19)
(0.000834782 6.47116e-05 4.92193e-19)
(0.00632316 0.00405168 -1.76076e-19)
(0.00672098 0.0115575 -1.36509e-20)
(0.00473412 0.00784389 4.93113e-21)
(0.000804197 1.37319e-05 -2.17166e-18)
(0.000841006 3.23957e-06 6.86286e-24)
(6.71827e-06 -6.26485e-06 -3.47949e-19)
(4.56916e-05 8.61042e-05 -3.49214e-19)
(6.3579e-05 0.000264723 8.7509e-19)
(9.71712e-06 1.4714e-05 4.90313e-19)
(8.96751e-05 0.000226135 3.69702e-19)
(0.000821178 1.80968e-05 0)
(0.00534812 0.00949238 1.95009e-20)
(0.00154204 0.000637562 -2.61205e-20)
(0.000819582 3.85854e-05 3.60106e-19)
(2.35826e-05 -7.67845e-05 0)
(0.0018479 0.000748786 5.4592e-19)
(8.17029e-06 6.55013e-06 -2.70103e-19)
(3.20402e-05 2.65096e-05 9.71638e-20)
(0.00133334 0.00139774 6.36556e-19)
(0.000738079 4.94504e-05 1.83068e-19)
(3.08125e-06 -1.11337e-06 -1.7017e-19)
(0.00206264 0.00156214 -1.05571e-18)
(0.000126593 0.000174823 -8.18618e-19)
(0.00392072 0.00848745 -1.09074e-18)
(4.12687e-06 1.21409e-06 8.81262e-20)
(0.000111425 -7.17878e-05 -1.25771e-18)
(4.08875e-05 -5.54586e-05 4.05564e-20)
(0.00152796 0.000986961 0)
(0.00104174 0.000139311 -4.02433e-22)
(0.000453411 0.000847629 -4.01978e-20)
(0.000803155 2.76982e-05 -2.34033e-19)
(8.70042e-05 0.00018107 7.3594e-19)
(2.46517e-05 -5.70499e-05 4.03924e-19)
(1.71538e-05 1.39759e-05 -9.46925e-20)
(2.97828e-05 8.82554e-05 -3.20232e-19)
(0.000212826 -0.000205531 -5.45364e-19)
(0.00324988 0.00346465 2.91009e-21)
)
;

boundaryField
{
    back
    {
        type            empty;
    }
    ingreso
    {
        type            fixedValue;
        value           uniform (0.0008 0 0);
    }
    salida
    {
        type            zeroGradient;
    }
    front
    {
        type            empty;
    }
    defaultFaces
    {
        type            noSlip;
    }
}


// ************************************************************************* //
