# Residuals   
# Time        	p             	Ux            	Uy            
25            	N/A	N/A
25.0089       	1.642201e-01	1.693943e-03	2.379522e-03
25.0188       	1.252396e-01	2.632589e-03	2.757654e-03
25.0286       	2.958094e-02	1.692619e-03	1.744744e-03
25.0384       	2.077736e-02	1.643553e-03	1.534332e-03
25.048        	2.002148e-02	1.595206e-03	1.537225e-03
25.0576       	1.567937e-02	1.613038e-03	1.439849e-03
25.0672       	1.456603e-02	1.597718e-03	1.462886e-03
25.0769       	1.377264e-02	1.604530e-03	1.408471e-03
25.0865       	1.393236e-02	1.597902e-03	1.444766e-03
25.0961       	1.463482e-02	1.589208e-03	1.398320e-03
25.1055       	1.568249e-02	1.549651e-03	1.368079e-03
25.1149       	1.511766e-02	1.554569e-03	1.366145e-03
25.1243       	1.676747e-02	1.555675e-03	1.344608e-03
25.1334       	1.571305e-02	1.524132e-03	1.314216e-03
25.1426       	1.565806e-02	1.524182e-03	1.341095e-03
25.1518       	1.457789e-02	1.504227e-03	1.320640e-03
25.1609       	1.468461e-02	1.496685e-03	1.316624e-03
25.1701       	1.436273e-02	1.484391e-03	1.307353e-03
25.1793       	1.355035e-02	1.482190e-03	1.296930e-03
25.1884       	1.285558e-02	1.466630e-03	1.286794e-03
25.1976       	1.382235e-02	1.463551e-03	1.279634e-03
25.2067       	1.314865e-02	1.455439e-03	1.268426e-03
25.2159       	1.350376e-02	1.450695e-03	1.351647e-03
25.2251       	1.587944e-02	1.468256e-03	1.358681e-03
25.2342       	1.419046e-02	1.464334e-03	1.389030e-03
25.2434       	1.405782e-02	1.464388e-03	1.424898e-03
25.2529       	1.906041e-02	1.505940e-03	1.385252e-03
25.2624       	1.648929e-02	1.504410e-03	1.358837e-03
25.2719       	1.417331e-02	1.489883e-03	1.307764e-03
25.2814       	1.388912e-02	1.488734e-03	1.323603e-03
25.2909       	1.361852e-02	1.480583e-03	1.281620e-03
25.3004       	1.379523e-02	1.473088e-03	1.284106e-03
25.3099       	1.418497e-02	1.483542e-03	1.279405e-03
25.3194       	1.459865e-02	1.466941e-03	1.266173e-03
25.3289       	1.401480e-02	1.465781e-03	1.258778e-03
25.3384       	1.415185e-02	1.468539e-03	1.266943e-03
25.3479       	1.475425e-02	1.470391e-03	1.327215e-03
25.3574       	1.463150e-02	1.479269e-03	1.337675e-03
25.367        	1.388467e-02	1.477693e-03	1.317718e-03
25.3765       	1.417369e-02	1.480410e-03	1.316281e-03
25.386        	1.311015e-02	1.480825e-03	1.321292e-03
25.3955       	1.444320e-02	1.477326e-03	1.297502e-03
25.405        	1.473830e-02	1.494166e-03	1.304303e-03
25.4145       	1.411916e-02	1.487099e-03	1.300826e-03
25.424        	1.399912e-02	1.475534e-03	1.264543e-03
25.4335       	1.415894e-02	1.474386e-03	1.273945e-03
25.443        	1.394713e-02	1.488062e-03	1.276740e-03
25.4525       	1.496922e-02	1.495814e-03	1.235216e-03
25.462        	1.436155e-02	1.496228e-03	1.255203e-03
25.4715       	1.285755e-02	1.499764e-03	1.263901e-03
25.481        	1.267523e-02	1.498514e-03	1.263784e-03
25.4905       	1.274632e-02	1.497506e-03	1.275527e-03
25.5          	1.347807e-02	1.492179e-03	1.270011e-03
25.51         	1.932104e-02	1.572721e-03	1.340261e-03
25.52         	1.617412e-02	1.574040e-03	1.412219e-03
25.53         	1.402310e-02	1.573819e-03	1.366789e-03
25.54         	1.319210e-02	1.571857e-03	1.379644e-03
25.5502       	1.546482e-02	1.605404e-03	1.398145e-03
25.5604       	1.483211e-02	1.606406e-03	1.405353e-03
25.5707       	1.304266e-02	1.619322e-03	1.356224e-03
25.5809       	1.358546e-02	1.632487e-03	1.415875e-03
25.5911       	1.516845e-02	1.641815e-03	1.409240e-03
25.6013       	1.455745e-02	1.637947e-03	1.367087e-03
25.6116       	1.382058e-02	1.650795e-03	1.382854e-03
25.6218       	1.455048e-02	1.654784e-03	1.411053e-03
25.632        	1.371514e-02	1.647513e-03	1.374771e-03
25.6422       	1.331715e-02	1.659835e-03	1.392151e-03
25.6524       	1.441153e-02	1.672165e-03	1.445402e-03
25.6627       	1.336935e-02	1.693731e-03	1.448579e-03
25.6729       	1.407454e-02	1.681425e-03	1.393962e-03
25.6831       	1.435730e-02	1.675893e-03	1.399546e-03
25.6933       	1.616623e-02	1.689626e-03	1.461146e-03
25.7036       	1.566392e-02	1.701392e-03	1.465461e-03
25.7138       	1.500903e-02	1.710786e-03	1.411434e-03
25.724        	1.461956e-02	1.717862e-03	1.425586e-03
25.7342       	1.405820e-02	1.719633e-03	1.464423e-03
25.7444       	1.470372e-02	1.721059e-03	1.442379e-03
25.7547       	1.469957e-02	1.697926e-03	1.405064e-03
25.7649       	1.555003e-02	1.698719e-03	1.425127e-03
25.7751       	1.402835e-02	1.718534e-03	1.466752e-03
25.7849       	1.990873e-02	1.653662e-03	1.430704e-03
25.7947       	1.683626e-02	1.659528e-03	1.443080e-03
25.8044       	1.499628e-02	1.628718e-03	1.363909e-03
25.8142       	1.401151e-02	1.615727e-03	1.367505e-03
25.824        	1.382519e-02	1.619094e-03	1.323059e-03
25.8338       	1.398909e-02	1.629392e-03	1.322680e-03
25.8436       	1.424739e-02	1.625478e-03	1.304446e-03
25.8528       	2.143811e-02	1.533861e-03	1.261246e-03
25.862        	1.796495e-02	1.566886e-03	1.365490e-03
25.8712       	1.455097e-02	1.512910e-03	1.258774e-03
25.8804       	1.430668e-02	1.511141e-03	1.286351e-03
25.8896       	1.313713e-02	1.514204e-03	1.230506e-03
25.8988       	1.282519e-02	1.510149e-03	1.231303e-03
25.908        	1.245746e-02	1.508434e-03	1.203861e-03
25.9172       	1.255868e-02	1.517384e-03	1.250547e-03
25.9264       	1.245247e-02	1.515859e-03	1.217039e-03
25.9356       	1.158531e-02	1.512385e-03	1.201291e-03
25.9448       	1.159644e-02	1.491603e-03	1.200106e-03
25.954        	1.214238e-02	1.485616e-03	1.205392e-03
25.9632       	1.307530e-02	1.481200e-03	1.256988e-03
25.9724       	1.412663e-02	1.465226e-03	1.251919e-03
25.9816       	1.384857e-02	1.475015e-03	1.274791e-03
25.9908       	1.290357e-02	1.463358e-03	1.259045e-03
26            	1.350184e-02	1.467224e-03	1.254454e-03
26.01         	2.607202e-02	1.592923e-03	1.371437e-03
26.02         	1.962208e-02	1.591456e-03	1.518493e-03
26.03         	1.618294e-02	1.587793e-03	1.413418e-03
26.04         	1.603655e-02	1.590786e-03	1.428817e-03
26.05         	1.485709e-02	1.582883e-03	1.353658e-03
26.06         	1.417025e-02	1.593716e-03	1.357035e-03
26.07         	1.452443e-02	1.606639e-03	1.373420e-03
26.08         	1.533071e-02	1.601235e-03	1.384011e-03
26.09         	1.335836e-02	1.588007e-03	1.372930e-03
26.1          	1.396003e-02	1.577411e-03	1.368844e-03
26.11         	1.289527e-02	1.565870e-03	1.347119e-03
26.12         	1.266335e-02	1.549986e-03	1.319602e-03
26.13         	1.236605e-02	1.535511e-03	1.319257e-03
26.14         	1.287815e-02	1.518687e-03	1.313935e-03
26.1497       	1.548432e-02	1.469332e-03	1.280045e-03
26.1595       	1.442416e-02	1.489318e-03	1.315174e-03
26.1692       	1.270532e-02	1.479382e-03	1.267227e-03
26.1789       	1.245595e-02	1.482007e-03	1.275644e-03
26.1886       	1.238302e-02	1.487397e-03	1.266012e-03
26.1984       	1.349366e-02	1.485361e-03	1.251075e-03
26.2081       	1.281130e-02	1.497154e-03	1.244949e-03
26.2178       	1.389392e-02	1.498842e-03	1.257736e-03
26.2276       	1.294676e-02	1.516499e-03	1.265451e-03
26.2373       	1.299137e-02	1.522655e-03	1.265015e-03
26.247        	1.273490e-02	1.523504e-03	1.253957e-03
26.2568       	1.308689e-02	1.534080e-03	1.263697e-03
26.2665       	1.236394e-02	1.548072e-03	1.282028e-03
26.2762       	1.174826e-02	1.556174e-03	1.279506e-03
26.2859       	1.298269e-02	1.553740e-03	1.280896e-03
26.2957       	1.261236e-02	1.549564e-03	1.290395e-03
26.3054       	1.185904e-02	1.537180e-03	1.281575e-03
26.3151       	1.105753e-02	1.538402e-03	1.282770e-03
26.3249       	1.182050e-02	1.535485e-03	1.274100e-03
26.3346       	1.267315e-02	1.538632e-03	1.248298e-03
26.3443       	1.299995e-02	1.547976e-03	1.256811e-03
26.3541       	1.328836e-02	1.564212e-03	1.275933e-03
26.3638       	1.326279e-02	1.575653e-03	1.275625e-03
26.3735       	1.379878e-02	1.590481e-03	1.268838e-03
26.3832       	1.293468e-02	1.599262e-03	1.274961e-03
26.393        	1.198374e-02	1.594324e-03	1.266494e-03
26.4027       	1.130025e-02	1.595573e-03	1.273456e-03
26.4124       	1.203698e-02	1.600507e-03	1.283517e-03
26.4222       	1.277990e-02	1.604991e-03	1.291725e-03
26.4319       	1.285172e-02	1.608421e-03	1.308123e-03
26.4404       	3.316575e-02	1.428540e-03	1.253888e-03
26.4489       	2.338901e-02	1.503304e-03	1.414323e-03
26.4574       	1.425645e-02	1.424196e-03	1.215375e-03
26.4659       	1.330889e-02	1.421198e-03	1.283258e-03
26.4745       	1.283296e-02	1.426459e-03	1.261732e-03
26.483        	1.342287e-02	1.432748e-03	1.238814e-03
26.4915       	1.350832e-02	1.431751e-03	1.159303e-03
26.5          	1.292381e-02	1.427497e-03	1.342965e-03
26.5094       	2.771383e-02	1.574789e-03	1.348592e-03
26.5189       	2.246970e-02	1.583065e-03	1.406515e-03
26.5283       	1.741680e-02	1.595713e-03	1.556660e-03
26.5377       	1.446006e-02	1.564118e-03	1.384326e-03
26.5472       	1.279872e-02	1.584511e-03	1.478359e-03
26.5566       	1.295462e-02	1.564669e-03	1.393321e-03
26.566        	1.339845e-02	1.561382e-03	1.424685e-03
26.5755       	1.304975e-02	1.562041e-03	1.465998e-03
26.5851       	1.520721e-02	1.600944e-03	1.411083e-03
26.5948       	1.522535e-02	1.598095e-03	1.461722e-03
26.6044       	1.475225e-02	1.585111e-03	1.444755e-03
26.6141       	1.373505e-02	1.588480e-03	1.407888e-03
26.6237       	1.336078e-02	1.589950e-03	1.397741e-03
26.6334       	1.328992e-02	1.605421e-03	1.386977e-03
26.6433       	1.530326e-02	1.658363e-03	1.433616e-03
26.6532       	1.392461e-02	1.660523e-03	1.454899e-03
26.6631       	1.484276e-02	1.670765e-03	1.468310e-03
26.673        	1.442881e-02	1.683636e-03	1.435172e-03
26.6829       	1.445367e-02	1.706119e-03	1.451916e-03
26.6928       	1.530053e-02	1.710530e-03	1.432041e-03
26.7031       	1.693974e-02	1.755253e-03	1.464805e-03
26.7133       	1.578448e-02	1.764877e-03	1.434123e-03
26.7235       	1.527492e-02	1.765293e-03	1.541775e-03
26.7338       	1.466781e-02	1.764963e-03	1.468332e-03
26.744        	1.291667e-02	1.767864e-03	1.483234e-03
26.7543       	1.235983e-02	1.762171e-03	1.398647e-03
26.7645       	1.218142e-02	1.752406e-03	1.395814e-03
26.7747       	1.263837e-02	1.739412e-03	1.380895e-03
26.785        	1.302805e-02	1.723795e-03	1.378533e-03
26.7952       	1.385934e-02	1.724638e-03	1.437986e-03
26.8055       	1.362697e-02	1.731486e-03	1.432042e-03
26.8157       	1.362331e-02	1.715496e-03	1.388328e-03
26.8259       	1.452439e-02	1.697045e-03	1.418156e-03
26.8362       	1.395124e-02	1.688531e-03	1.463933e-03
26.8464       	1.381320e-02	1.669863e-03	1.461459e-03
26.8566       	1.412607e-02	1.646233e-03	1.415297e-03
26.8669       	1.394701e-02	1.633014e-03	1.418749e-03
26.8771       	1.300524e-02	1.639153e-03	1.468566e-03
26.8874       	1.313212e-02	1.631940e-03	1.461052e-03
26.8976       	1.255878e-02	1.608462e-03	1.413005e-03
26.9078       	1.344469e-02	1.601686e-03	1.417480e-03
26.9181       	1.312832e-02	1.616321e-03	1.464242e-03
26.9283       	1.446384e-02	1.617731e-03	1.459857e-03
26.9386       	1.383725e-02	1.603619e-03	1.412099e-03
26.9488       	1.341658e-02	1.590221e-03	1.425461e-03
26.959        	1.302441e-02	1.606347e-03	1.473174e-03
26.9693       	1.348398e-02	1.621440e-03	1.469817e-03
26.9795       	1.353343e-02	1.612149e-03	1.432151e-03
26.9898       	1.332199e-02	1.603821e-03	1.442574e-03
27            	1.301080e-02	1.612272e-03	1.481366e-03
27.0102       	1.271165e-02	1.606082e-03	1.469369e-03
27.0204       	1.308825e-02	1.599612e-03	1.423054e-03
27.0306       	1.192426e-02	1.593426e-03	1.388850e-03
27.0408       	1.183996e-02	1.599547e-03	1.390426e-03
27.051        	1.241009e-02	1.595965e-03	1.379756e-03
27.0612       	1.212131e-02	1.591864e-03	1.379747e-03
27.0712       	1.353561e-02	1.574592e-03	1.375735e-03
27.0812       	1.247941e-02	1.590320e-03	1.359230e-03
27.0911       	1.072466e-02	1.578356e-03	1.369340e-03
27.1011       	1.107293e-02	1.582367e-03	1.327288e-03
27.1111       	1.091751e-02	1.587697e-03	1.312443e-03
27.1211       	1.123109e-02	1.592324e-03	1.295640e-03
27.1308       	1.411722e-02	1.556678e-03	1.284380e-03
27.1405       	1.331879e-02	1.565278e-03	1.304457e-03
27.1502       	1.222087e-02	1.564330e-03	1.336439e-03
27.1599       	1.152536e-02	1.575179e-03	1.315345e-03
27.1694       	1.354417e-02	1.544564e-03	1.266222e-03
27.1788       	1.234431e-02	1.550334e-03	1.252753e-03
27.1883       	1.161539e-02	1.536055e-03	1.260026e-03
27.1977       	1.143620e-02	1.552849e-03	1.273764e-03
27.2072       	1.213945e-02	1.550635e-03	1.233643e-03
27.2163       	1.461642e-02	1.496793e-03	1.165353e-03
27.2255       	1.226966e-02	1.504971e-03	1.197171e-03
27.2346       	1.227955e-02	1.497157e-03	1.194106e-03
27.2438       	1.165304e-02	1.508423e-03	1.226115e-03
27.2529       	1.177560e-02	1.512292e-03	1.170035e-03
27.2621       	1.235691e-02	1.511008e-03	1.195011e-03
27.2712       	1.135684e-02	1.519612e-03	1.141506e-03
27.2804       	1.137631e-02	1.528167e-03	1.142847e-03
27.2895       	1.172570e-02	1.518372e-03	1.147108e-03
27.2987       	1.201103e-02	1.514987e-03	1.135057e-03
27.3078       	1.174559e-02	1.517505e-03	1.146205e-03
27.317        	1.127061e-02	1.510025e-03	1.136888e-03
27.3261       	1.084898e-02	1.512028e-03	1.133186e-03
27.3353       	1.311990e-02	1.527561e-03	1.209831e-03
27.3444       	1.325020e-02	1.518472e-03	1.170138e-03
27.3536       	1.191487e-02	1.508886e-03	1.155366e-03
27.3627       	1.255986e-02	1.510815e-03	1.179004e-03
27.3719       	1.308424e-02	1.520655e-03	1.236526e-03
27.381        	1.367005e-02	1.526490e-03	1.206074e-03
27.3902       	1.246889e-02	1.522676e-03	1.207397e-03
27.3993       	1.283351e-02	1.529257e-03	1.238951e-03
27.4085       	1.288772e-02	1.549780e-03	1.282287e-03
27.4176       	1.251119e-02	1.556251e-03	1.251153e-03
27.4268       	1.310640e-02	1.561103e-03	1.227894e-03
27.4359       	1.241291e-02	1.551356e-03	1.268981e-03
27.4451       	1.243504e-02	1.549868e-03	1.234031e-03
27.4542       	1.183573e-02	1.553709e-03	1.236302e-03
27.4634       	1.308550e-02	1.549984e-03	1.238631e-03
27.4725       	1.346518e-02	1.547032e-03	1.262456e-03
27.4817       	1.454004e-02	1.543865e-03	1.265086e-03
27.4908       	1.211157e-02	1.542519e-03	1.239353e-03
27.5          	1.218817e-02	1.539138e-03	1.258141e-03
27.51         	2.460959e-02	1.660458e-03	1.388991e-03
27.5202       	1.775732e-02	1.709355e-03	1.452311e-03
27.5304       	1.660950e-02	1.697491e-03	1.578071e-03
27.5406       	1.463344e-02	1.687415e-03	1.456549e-03
27.5508       	1.418283e-02	1.689482e-03	1.448029e-03
27.561        	1.472343e-02	1.682876e-03	1.365368e-03
27.5713       	1.401030e-02	1.676878e-03	1.364098e-03
27.5815       	1.448589e-02	1.687280e-03	1.353329e-03
27.5917       	1.313306e-02	1.686830e-03	1.355141e-03
27.6019       	1.330770e-02	1.681024e-03	1.340311e-03
27.6121       	1.479001e-02	1.676805e-03	1.430957e-03
27.6223       	1.391906e-02	1.675828e-03	1.425019e-03
27.6325       	1.385406e-02	1.676042e-03	1.370657e-03
27.6427       	1.379268e-02	1.687248e-03	1.367535e-03
27.6529       	1.426042e-02	1.688386e-03	1.390171e-03
27.6631       	1.404718e-02	1.685801e-03	1.343579e-03
27.6733       	1.386909e-02	1.696568e-03	1.400277e-03
27.6835       	1.511930e-02	1.697540e-03	1.412125e-03
27.6938       	1.444567e-02	1.688672e-03	1.357274e-03
27.704        	1.390213e-02	1.689327e-03	1.378798e-03
27.7142       	1.416716e-02	1.686499e-03	1.346543e-03
27.7244       	1.498598e-02	1.680274e-03	1.383447e-03
27.7342       	1.782729e-02	1.622021e-03	1.367568e-03
27.7441       	1.635034e-02	1.641002e-03	1.366203e-03
27.7539       	1.371180e-02	1.630016e-03	1.373517e-03
27.7638       	1.323076e-02	1.622487e-03	1.359991e-03
27.7736       	1.390446e-02	1.612835e-03	1.282381e-03
27.7834       	1.306655e-02	1.621631e-03	1.298280e-03
27.7933       	1.265075e-02	1.631846e-03	1.259324e-03
27.8027       	1.782679e-02	1.559946e-03	1.274595e-03
27.8121       	1.647808e-02	1.586074e-03	1.247656e-03
27.8215       	1.329022e-02	1.550470e-03	1.253315e-03
27.8309       	1.275106e-02	1.552056e-03	1.227497e-03
27.8403       	1.351560e-02	1.546315e-03	1.216035e-03
27.8497       	1.257127e-02	1.550455e-03	1.183068e-03
27.8591       	1.355979e-02	1.561920e-03	1.246993e-03
27.8679       	2.202521e-02	1.462257e-03	1.145202e-03
27.8767       	1.689165e-02	1.496145e-03	1.149963e-03
27.8855       	1.339211e-02	1.459523e-03	1.181491e-03
27.8943       	1.386578e-02	1.449827e-03	1.150499e-03
27.9031       	1.297843e-02	1.449357e-03	1.130144e-03
27.9119       	1.323921e-02	1.449698e-03	1.097185e-03
27.9207       	1.380463e-02	1.449639e-03	1.112375e-03
27.9295       	1.310187e-02	1.456069e-03	1.145654e-03
27.9383       	1.302741e-02	1.452991e-03	1.113122e-03
27.9471       	1.227231e-02	1.449203e-03	1.113245e-03
27.956        	1.283276e-02	1.444967e-03	1.099856e-03
27.9648       	1.294316e-02	1.443951e-03	1.082978e-03
27.9736       	1.283507e-02	1.436320e-03	1.092585e-03
27.9824       	1.244561e-02	1.440067e-03	1.086605e-03
27.9912       	1.236601e-02	1.445119e-03	1.080380e-03
28            	1.285721e-02	1.449189e-03	1.080891e-03
28.0096       	2.528712e-02	1.586347e-03	1.278377e-03
28.0194       	1.845605e-02	1.636200e-03	1.328434e-03
28.0292       	1.740752e-02	1.623512e-03	1.443113e-03
28.0392       	1.514722e-02	1.657474e-03	1.336099e-03
28.0493       	1.578717e-02	1.657636e-03	1.376689e-03
28.0593       	1.604771e-02	1.659081e-03	1.368159e-03
28.0693       	1.479106e-02	1.660834e-03	1.308134e-03
28.0793       	1.444917e-02	1.672639e-03	1.342596e-03
28.0893       	1.433839e-02	1.670882e-03	1.316369e-03
28.0993       	1.311293e-02	1.678335e-03	1.302280e-03
28.1094       	1.388337e-02	1.679137e-03	1.293536e-03
28.1194       	1.334390e-02	1.670059e-03	1.280546e-03
28.1294       	1.356674e-02	1.659204e-03	1.265190e-03
28.1394       	1.390592e-02	1.653482e-03	1.243991e-03
28.1494       	1.353950e-02	1.648679e-03	1.273978e-03
28.1594       	1.384812e-02	1.648583e-03	1.274861e-03
28.1695       	1.375195e-02	1.639531e-03	1.289253e-03
28.1795       	1.428385e-02	1.649629e-03	1.286933e-03
28.1895       	1.428899e-02	1.653243e-03	1.254699e-03
28.1995       	1.403574e-02	1.654953e-03	1.225105e-03
28.2095       	1.376987e-02	1.661608e-03	1.214812e-03
28.2195       	1.416983e-02	1.660756e-03	1.224595e-03
28.2296       	1.277968e-02	1.665960e-03	1.252074e-03
28.2396       	1.290764e-02	1.664817e-03	1.255975e-03
28.2496       	1.275668e-02	1.664211e-03	1.266104e-03
28.2596       	1.295529e-02	1.656798e-03	1.272702e-03
28.2696       	1.417653e-02	1.654404e-03	1.290070e-03
28.2796       	1.396626e-02	1.661790e-03	1.281768e-03
28.2897       	1.476753e-02	1.677029e-03	1.284433e-03
28.2997       	1.411418e-02	1.686542e-03	1.281376e-03
28.3097       	1.477423e-02	1.684012e-03	1.285867e-03
28.3197       	1.525743e-02	1.686611e-03	1.291516e-03
28.3297       	1.496171e-02	1.694838e-03	1.304498e-03
28.3397       	1.469111e-02	1.694242e-03	1.334094e-03
28.3498       	1.554601e-02	1.692018e-03	1.348576e-03
28.3598       	1.515725e-02	1.693594e-03	1.355983e-03
28.3698       	1.597419e-02	1.695366e-03	1.364404e-03
28.3798       	1.529691e-02	1.706928e-03	1.374777e-03
28.3898       	1.520886e-02	1.716542e-03	1.367579e-03
28.3998       	1.484461e-02	1.734712e-03	1.358634e-03
28.4099       	1.452820e-02	1.734136e-03	1.297194e-03
28.4199       	1.422206e-02	1.722007e-03	1.272398e-03
28.4299       	1.452530e-02	1.718342e-03	1.264034e-03
28.4399       	1.447259e-02	1.718370e-03	1.280640e-03
28.4499       	1.484829e-02	1.713145e-03	1.285874e-03
28.4599       	1.491116e-02	1.710723e-03	1.297362e-03
28.47         	1.488951e-02	1.722663e-03	1.300575e-03
28.48         	1.443839e-02	1.713625e-03	1.312439e-03
28.49         	1.411428e-02	1.707947e-03	1.303835e-03
28.5          	1.519644e-02	1.706482e-03	1.292815e-03
28.5102       	1.624030e-02	1.728020e-03	1.320757e-03
28.5202       	1.813466e-02	1.688914e-03	1.338906e-03
28.5302       	1.685446e-02	1.684353e-03	1.359773e-03
28.5402       	1.595708e-02	1.674702e-03	1.369163e-03
28.55         	1.641058e-02	1.648970e-03	1.340453e-03
28.5598       	1.605230e-02	1.655633e-03	1.356371e-03
28.5695       	1.561501e-02	1.651926e-03	1.320700e-03
28.5793       	1.457171e-02	1.660875e-03	1.319197e-03
28.5889       	1.632295e-02	1.630393e-03	1.264301e-03
28.5984       	1.558066e-02	1.637010e-03	1.273411e-03
28.608        	1.617716e-02	1.619435e-03	1.259313e-03
28.6176       	1.444061e-02	1.612583e-03	1.308823e-03
28.6271       	1.516555e-02	1.615102e-03	1.279094e-03
28.6367       	1.510258e-02	1.628733e-03	1.247978e-03
28.6462       	1.437416e-02	1.628566e-03	1.239072e-03
28.6558       	1.379386e-02	1.627375e-03	1.234784e-03
28.6654       	1.323777e-02	1.625019e-03	1.231704e-03
28.6749       	1.362621e-02	1.605420e-03	1.234727e-03
28.6845       	1.413817e-02	1.607512e-03	1.237295e-03
28.6941       	1.391982e-02	1.620925e-03	1.240402e-03
28.7036       	1.504078e-02	1.628602e-03	1.264244e-03
28.7132       	1.585169e-02	1.642758e-03	1.284732e-03
28.7227       	1.580777e-02	1.650198e-03	1.287784e-03
28.7323       	1.654677e-02	1.641082e-03	1.271443e-03
28.7419       	1.669713e-02	1.632811e-03	1.255756e-03
28.7514       	1.653767e-02	1.653646e-03	1.277534e-03
28.761        	1.551221e-02	1.674972e-03	1.268735e-03
28.7702       	1.942568e-02	1.624657e-03	1.233385e-03
28.7794       	1.900150e-02	1.644592e-03	1.272037e-03
28.7886       	1.747544e-02	1.605859e-03	1.251892e-03
28.7978       	1.638854e-02	1.597977e-03	1.268956e-03
28.8069       	1.629233e-02	1.613333e-03	1.313890e-03
28.8161       	1.597601e-02	1.604164e-03	1.251717e-03
28.8253       	1.570317e-02	1.589173e-03	1.270397e-03
28.8345       	1.591419e-02	1.585766e-03	1.260512e-03
28.8437       	1.629102e-02	1.584572e-03	1.242428e-03
28.8529       	1.708970e-02	1.584637e-03	1.239934e-03
28.8621       	1.645207e-02	1.592055e-03	1.274752e-03
28.8713       	1.756148e-02	1.587693e-03	1.339646e-03
28.8805       	1.521387e-02	1.582868e-03	1.278872e-03
28.8897       	1.409562e-02	1.567534e-03	1.259320e-03
28.8989       	1.388971e-02	1.558245e-03	1.282485e-03
28.9081       	1.377402e-02	1.558091e-03	1.331594e-03
28.9173       	1.452673e-02	1.570737e-03	1.299603e-03
28.9265       	1.479045e-02	1.565094e-03	1.268572e-03
28.9356       	1.692777e-02	1.612013e-03	1.294122e-03
28.9448       	1.823081e-02	1.591514e-03	1.347340e-03
28.954        	1.613315e-02	1.573474e-03	1.313661e-03
28.9632       	1.432458e-02	1.578882e-03	1.255534e-03
28.9724       	1.464627e-02	1.576122e-03	1.255398e-03
28.9816       	1.505994e-02	1.581051e-03	1.295120e-03
28.9908       	1.579559e-02	1.582652e-03	1.286512e-03
29            	1.493395e-02	1.578156e-03	1.270393e-03
29.0102       	3.040009e-02	1.760740e-03	1.435992e-03
29.0204       	2.563564e-02	1.786284e-03	1.675602e-03
29.0306       	2.196362e-02	1.822551e-03	1.568327e-03
29.041        	1.798960e-02	1.831909e-03	1.593024e-03
29.0515       	1.769335e-02	1.784909e-03	1.510478e-03
29.0619       	1.605087e-02	1.767275e-03	1.469197e-03
29.0723       	1.586065e-02	1.755739e-03	1.395789e-03
29.0828       	1.640337e-02	1.757737e-03	1.422130e-03
29.0932       	1.757266e-02	1.790835e-03	1.427834e-03
29.1036       	1.693940e-02	1.779175e-03	1.448820e-03
29.1141       	1.503514e-02	1.780735e-03	1.370117e-03
29.1245       	1.579687e-02	1.774853e-03	1.379836e-03
29.1349       	1.644549e-02	1.774639e-03	1.384702e-03
29.1454       	1.758552e-02	1.785745e-03	1.429546e-03
29.1558       	1.663463e-02	1.783230e-03	1.394601e-03
29.1662       	1.588853e-02	1.783342e-03	1.417323e-03
29.1766       	1.516521e-02	1.767407e-03	1.430918e-03
29.1871       	1.590345e-02	1.756550e-03	1.378392e-03
29.1975       	1.661094e-02	1.745874e-03	1.527602e-03
29.2079       	1.744959e-02	1.726416e-03	1.575574e-03
29.2184       	1.635238e-02	1.724988e-03	1.564259e-03
29.2284       	1.995235e-02	1.670594e-03	1.426287e-03
29.2385       	1.895497e-02	1.673370e-03	1.555094e-03
29.2485       	1.764331e-02	1.665267e-03	1.460301e-03
29.2586       	1.748543e-02	1.638052e-03	1.424413e-03
29.2687       	1.855045e-02	1.622525e-03	1.546852e-03
29.2787       	1.853656e-02	1.615478e-03	1.413091e-03
29.2883       	2.249827e-02	1.549462e-03	1.338087e-03
29.298        	1.866435e-02	1.569562e-03	1.327948e-03
29.3076       	1.694611e-02	1.549647e-03	1.317913e-03
29.3172       	1.564618e-02	1.535688e-03	1.279582e-03
29.3268       	1.575279e-02	1.527640e-03	1.373364e-03
29.3364       	1.725305e-02	1.523625e-03	1.281951e-03
29.3461       	1.687193e-02	1.523812e-03	1.321489e-03
29.3557       	1.547887e-02	1.523335e-03	1.304650e-03
29.3653       	1.594266e-02	1.524103e-03	1.297713e-03
29.3749       	1.602893e-02	1.532116e-03	1.284791e-03
29.3845       	1.498114e-02	1.531001e-03	1.301274e-03
29.3942       	1.590064e-02	1.530027e-03	1.311361e-03
29.4038       	1.349648e-02	1.549427e-03	1.305396e-03
29.4134       	1.228906e-02	1.546053e-03	1.307332e-03
29.423        	1.444305e-02	1.533191e-03	1.335352e-03
29.4327       	1.525785e-02	1.525420e-03	1.345800e-03
29.4423       	1.593998e-02	1.519481e-03	1.339808e-03
29.4519       	1.511728e-02	1.524752e-03	1.343436e-03
29.4615       	1.483643e-02	1.540482e-03	1.345351e-03
29.4711       	1.694510e-02	1.588915e-03	1.344354e-03
29.4808       	1.570265e-02	1.580834e-03	1.359538e-03
29.4904       	1.562941e-02	1.584900e-03	1.357307e-03
29.5          	1.478484e-02	1.585592e-03	1.344662e-03
29.5098       	1.659809e-02	1.598708e-03	1.360474e-03
29.5196       	1.542791e-02	1.579809e-03	1.386166e-03
29.5294       	1.456495e-02	1.589831e-03	1.342011e-03
29.5392       	1.516103e-02	1.586898e-03	1.365409e-03
29.549        	1.523603e-02	1.597345e-03	1.376089e-03
29.5588       	1.449404e-02	1.637413e-03	1.357639e-03
29.5686       	1.356015e-02	1.633842e-03	1.336583e-03
29.5784       	1.418870e-02	1.624917e-03	1.301659e-03
29.5882       	1.452850e-02	1.623742e-03	1.297300e-03
29.598        	1.563767e-02	1.627817e-03	1.300735e-03
29.6078       	1.514423e-02	1.646137e-03	1.306615e-03
29.6176       	1.645143e-02	1.674016e-03	1.288929e-03
29.6275       	1.633762e-02	1.674205e-03	1.294391e-03
29.6373       	1.459377e-02	1.660873e-03	1.301202e-03
29.6471       	1.436416e-02	1.648855e-03	1.295834e-03
29.6571       	1.617229e-02	1.694146e-03	1.310373e-03
29.6672       	1.776210e-02	1.712181e-03	1.335122e-03
29.6773       	1.838350e-02	1.733806e-03	1.403093e-03
29.6874       	1.749906e-02	1.748204e-03	1.359776e-03
29.6975       	1.578126e-02	1.742734e-03	1.390030e-03
29.7076       	1.652894e-02	1.736811e-03	1.390267e-03
29.7176       	1.725857e-02	1.747365e-03	1.397659e-03
29.7281       	1.855923e-02	1.816936e-03	1.454598e-03
29.7386       	1.851357e-02	1.817135e-03	1.533176e-03
29.749        	1.819361e-02	1.802144e-03	1.490844e-03
29.7595       	1.711861e-02	1.802386e-03	1.530011e-03
29.7699       	1.893218e-02	1.799970e-03	1.519482e-03
29.7804       	1.779636e-02	1.781561e-03	1.526890e-03
29.7908       	1.699477e-02	1.782702e-03	1.537957e-03
29.8013       	1.518793e-02	1.782529e-03	1.418263e-03
29.8118       	1.690004e-02	1.768860e-03	1.355641e-03
29.8222       	1.613434e-02	1.772655e-03	1.354340e-03
29.8327       	1.687474e-02	1.783507e-03	1.339183e-03
29.8431       	1.664853e-02	1.772923e-03	1.331164e-03
29.8536       	1.662741e-02	1.747213e-03	1.372659e-03
29.8641       	1.598033e-02	1.732038e-03	1.320612e-03
29.8745       	1.527217e-02	1.717115e-03	1.363712e-03
29.885        	1.564024e-02	1.706264e-03	1.374879e-03
29.8954       	1.470997e-02	1.684234e-03	1.320440e-03
29.9059       	1.534236e-02	1.664991e-03	1.364844e-03
29.9163       	1.667112e-02	1.646758e-03	1.428380e-03
29.9268       	1.731074e-02	1.638429e-03	1.506666e-03
29.9359       	3.866215e-02	1.439216e-03	1.431312e-03
29.9451       	2.655493e-02	1.546574e-03	1.433242e-03
29.9542       	1.876448e-02	1.441963e-03	1.604969e-03
29.9634       	1.639515e-02	1.441080e-03	1.407493e-03
29.9725       	1.553531e-02	1.439683e-03	1.344762e-03
29.9817       	1.634709e-02	1.441067e-03	1.366523e-03
29.9908       	1.608431e-02	1.451817e-03	1.382176e-03
30            	1.603880e-02	1.457556e-03	1.436954e-03
30.01         	2.703232e-02	1.602431e-03	1.595302e-03
30.0204       	2.055484e-02	1.657038e-03	1.701824e-03
30.0309       	1.983023e-02	1.630107e-03	1.684940e-03
30.041        	2.168449e-02	1.610021e-03	1.656242e-03
30.0512       	1.850502e-02	1.632059e-03	1.469206e-03
30.0614       	1.754216e-02	1.642205e-03	1.479907e-03
30.0716       	1.766729e-02	1.654016e-03	1.422034e-03
30.0818       	1.766090e-02	1.648711e-03	1.496188e-03
30.0918       	1.913494e-02	1.614932e-03	1.440829e-03
30.1018       	1.835223e-02	1.625247e-03	1.429801e-03
30.1117       	1.835196e-02	1.626712e-03	1.437250e-03
30.1214       	1.911933e-02	1.584374e-03	1.385053e-03
30.1311       	1.799118e-02	1.601106e-03	1.452284e-03
30.1406       	2.022285e-02	1.566212e-03	1.422925e-03
30.15         	1.813311e-02	1.589836e-03	1.404113e-03
30.1593       	2.048983e-02	1.549683e-03	1.395507e-03
30.1685       	1.851920e-02	1.567005e-03	1.339211e-03
30.1777       	1.846976e-02	1.556522e-03	1.355080e-03
30.1866       	2.041925e-02	1.502051e-03	1.338522e-03
30.1956       	1.875020e-02	1.508668e-03	1.334000e-03
30.2045       	1.935460e-02	1.499212e-03	1.308965e-03
30.2135       	1.720027e-02	1.487847e-03	1.309164e-03
30.2224       	1.692742e-02	1.494002e-03	1.207213e-03
30.2314       	1.724844e-02	1.485026e-03	1.257630e-03
30.2403       	1.533755e-02	1.483718e-03	1.224498e-03
30.2493       	1.490629e-02	1.464918e-03	1.224379e-03
30.2583       	1.363102e-02	1.442985e-03	1.210118e-03
30.2676       	1.690728e-02	1.487782e-03	1.311380e-03
30.2769       	1.602077e-02	1.486109e-03	1.300717e-03
30.2861       	1.547709e-02	1.483666e-03	1.267317e-03
30.2954       	2.195938e-02	1.568955e-03	1.351814e-03
30.3047       	2.260609e-02	1.483619e-03	1.295068e-03
30.314        	1.716795e-02	1.468004e-03	1.272304e-03
30.3233       	1.532131e-02	1.484785e-03	1.266074e-03
30.3332       	2.066529e-02	1.579369e-03	1.327666e-03
30.343        	2.007933e-02	1.598848e-03	1.337444e-03
30.3528       	1.859084e-02	1.593602e-03	1.451007e-03
30.3626       	1.597013e-02	1.600306e-03	1.365084e-03
30.3724       	1.534685e-02	1.611114e-03	1.409267e-03