/*--------------------------------*- C++ -*----------------------------------*\
  =========                 |
  \\      /  F ield         | OpenFOAM: The Open Source CFD Toolbox
   \\    /   O peration     | Website:  https://openfoam.org
    \\  /    A nd           | Version:  7
     \\/     M anipulation  |
\*---------------------------------------------------------------------------*/
FoamFile
{
    version     2.0;
    format      ascii;
    class       volScalarField;
    location    "86.5";
    object      p;
}
// * * * * * * * * * * * * * * * * * * * * * * * * * * * * * * * * * * * * * //

dimensions      [0 2 -2 0 0 0 0];

internalField   nonuniform List<scalar> 
591
(
0.000123849
0.000123866
0.000123869
0.000123819
0.000123823
0.000123892
0.000123883
0.000123856
0.000116966
0.000123875
0.000124059
0.000122803
0.000123862
0.000119697
0.000123856
0.000123899
0.000123848
0.000123902
0.000121927
0.000123235
0.000123838
-3.52527e-06
0.000124055
0.00012384
0.000124011
0.000123862
0.000123971
0.000123972
0.000123875
0.000123882
0.000124031
0.000124005
0.000124025
0.000124024
0.000124026
0.000123349
0.000124021
0.00012384
0.000124049
0.000123966
0.000123923
0.000124018
0.00012387
0.000123893
0.000124015
0.000124035
0.000119201
0.00012404
0.000123874
0.000123991
0.000123989
0.000124019
2.39425e-05
3.05865e-05
4.78363e-05
0.000123867
0.000124044
0.000124035
0.000124037
0.000123848
0.000123936
0.000123866
0.000123863
0.000123913
0.000122538
0.000123866
0.000123869
0.000124034
0.000120696
0.00012388
0.000123874
0.000124041
0.000124015
0.000124019
0.000124025
0.000124001
0.000123843
0.000124038
0.000123845
0.000123783
0.00012362
0.000124043
0.000124002
0.000123986
0.00012405
0.000123856
0.000123944
0.000124032
0.000123994
0.000123747
0.000124007
0.000123958
0.000123971
0.000123848
0.000124048
0.000124004
0.00012355
0.00012345
0.000123618
0.000124054
0.000123961
0.000123879
0.000124059
0.000123816
0.00012406
0.000123867
0.000123864
0.000124007
0.000124053
0.000124056
0.000123946
0.000124032
0.000123881
0.000124035
0.000124052
0.000124036
0.000123991
0.000123982
0.000123552
0.000123958
0.000123867
0.000123859
0.00012395
0.000123845
0.00012402
0.00012017
0.00012406
0.000124038
0.000123617
0.000124026
0.000123857
0.000123542
0.000123998
0.000123991
0.000124029
0.000123872
0.000122599
0.000124057
0.000123859
0.000123546
0.000123614
0.000123956
0.000124042
0.00012405
0.000124044
7.61683e-06
3.67886e-06
2.07152e-06
3.81575e-05
3.66977e-05
5.66143e-06
3.8309e-05
1.57405e-05
3.72913e-05
1.78072e-05
0.000123867
0.000123858
0.000124048
0.000124039
0.000124047
0.000124046
0.000124038
0.000124034
0.000124048
0.000124046
0.000124012
0.000124047
0.000124043
0.00012405
0.000123992
0.000123364
0.00012405
0.000122098
0.000124034
0.000124029
0.00012398
0.000123876
0.000124029
0.000124045
0.000124045
0.000123462
0.000122445
0.000123021
0.000123413
0.000124033
0.000124041
0.000123943
0.000123837
0.000124037
0.000122941
0.00012327
0.000123837
0.000124027
0.000123724
0.000124021
0.000124042
0.000124017
0.000123692
0.000123828
0.000124039
0.000124044
0.000124044
0.000123844
0.000124026
0.00012384
0.000124053
0.00012386
0.00012386
0.000124049
0.000123652
0.000123829
0.00012387
0.00012351
0.000124002
0.000123655
0.000123943
0.000123959
0.000124031
0.000123422
0.000123932
0.000123822
0.000123822
0.000124002
0.000123765
0.000123916
0.000123832
0.000123745
0.000123814
0.000124053
0.00012381
0.000124051
0.000123903
0.00012403
0.000123874
0.000123876
0.000124056
0.000123763
0.000124041
0.000123752
0.000123801
0.000123865
0.000123844
0.000123882
0.000123868
0.000123638
0.000123841
0.000123795
0.000124009
0.00012386
0.000123716
0.000123996
0.000123264
0.000123828
0.000123157
0.000123042
0.000123851
0.000123816
0.000123854
0.00012385
0.000123823
0.000124055
0.000123897
0.000123975
0.00012391
0.000123901
0.000123914
0.000124009
0.000123658
0.00012405
0.000123694
0.000123583
0.000123885
0.000124028
0.000123606
0.000124045
0.000123956
0.000123971
0.000123999
0.000123876
0.00012385
0.000123686
0.00012381
0.000123845
0.000123892
0.000123951
0.000124014
0.000124033
0.000124038
0.000123794
0.000123902
0.000124026
0.000124033
0.000124027
0.000123819
0.00012404
0.000123916
0.000124026
0.00012378
0.00012404
0.000123768
0.000124016
0.000123906
0.00012385
1.16413e-05
2.19112e-05
0.000123793
0.000123873
0.000124053
0.000123801
0.000124053
0.000123883
0.00012404
0.000124016
0.000123751
0.000124011
0.000123841
0.00012405
0.000123875
-2.09661e-07
0.000123746
0.000124022
0.000124017
0.00012371
0.000123867
0.00012391
0.000124011
0.000123766
0.000124033
0.000123917
0.000123867
0.000124009
0.000123814
0.00012374
0.000123777
0.000123877
4.74782e-05
0.000124028
0.000124008
0.000123866
0.000124035
0.000123945
0.000123888
0.000123871
0.000123856
0.00012402
0.000123883
0.000123788
0.000123918
0.000123794
0.000124033
0.000123801
0.00012386
0.000123894
0.000123979
1.98722e-05
2.73324e-05
3.42932e-05
9.63858e-06
0.00012384
3.30521e-05
2.59999e-05
0.000124031
1.90731e-05
1.70289e-05
3.81827e-05
7.5756e-06
3.99342e-05
5.60433e-06
4.08281e-05
3.68833e-06
4.281e-05
1.87559e-06
3.64047e-05
2.31969e-05
2.94484e-05
1.49914e-05
0.000123723
0.000124042
0.000123908
0.000123918
0.000120867
0.000123959
0.000124037
0.000124007
0.000123806
0.000124042
0.000124047
0.000124022
0.000124019
0.000123783
0.000123857
0.00012403
0.000124037
0.000123873
0.000123738
0.000123819
0.000123379
0.000123831
0.000124058
0.000124026
0.000123868
0.000124049
0.000123711
0.000123898
0.00012367
0.000122825
0.000124021
0.000124032
0.000124057
0.000123725
0.000123917
0.000123669
0.000123882
0.000123873
2.60416e-05
2.18764e-05
3.30337e-05
1.16173e-05
0.00012406
0.000123718
1.98188e-05
2.82532e-05
3.55999e-05
9.58732e-06
0.00012388
0.000123968
0.000123827
0.000123836
0.000123858
0.000123998
0.000123788
0.000124016
0.000123963
0.000123074
0.000123839
0.000123806
5.93649e-05
0.000123199
0.000124047
0.000123852
0.000123743
0.000124036
0.000124039
0.000123832
0.000123632
0.000123862
0.000123915
0.000123715
0.000123992
0.000122874
0.000123791
0.000123814
0.000124006
0.000100859
0.000123853
0.000123459
0.000123778
0.000124048
0.00012368
1.08952e-05
2.11138e-05
3.53649e-05
2.81897e-05
1.3661e-05
5.45797e-08
4.20784e-05
2.68962e-06
4.0155e-05
4.76158e-06
3.94136e-05
6.81419e-06
3.86212e-05
8.85674e-06
3.72874e-05
1.36729e-05
3.17259e-05
3.05824e-05
2.39359e-05
2.52762e-05
1.77642e-05
1.29374e-05
1.57066e-05
0.000124041
0.000102387
0.000123839
0.000123769
0.000124045
0.000123934
0.000124051
0.000123767
0.000123895
0.000124012
0.000124007
0.000124015
0.000123767
0.000123863
0.000123775
0.000123971
0.0001238
0.000124046
0.00012392
0.000123751
0.000123757
0.000123874
0.000123867
0.000124052
0.000124043
0.000124055
0.000124011
0.000124057
0.000123682
0.000123862
0.000124047
0.000123808
0.000123938
0.000123868
0.000123915
0.000123749
0.000124011
0.000124009
0.000123323
0.000121342
0.00012305
0.000123596
0.000123862
0.000123692
0.000123874
0.000124053
0.00012402
0.000123868
0.000123483
0.000123461
0.000124046
0.000124013
0.000123884
0.000123978
0.000123523
5.83072e-05
4.01168e-05
0.000123983
0.000124001
0.000123365
0.000122718
0.000123849
0.0001236
0.000123347
0.000123858
0.000123774
0.00012404
0.000123891
0.000123922
0.000118979
5.44675e-05
0.000123891
8.12407e-05
1.86156e-06
-3.81173e-07
0.000123858
0.000123826
0.000124012
0.000124055
0.000124047
0.000124046
0.00012405
0.000123844
-2.30739e-06
0.000122797
0.000123884
0.000123989
0.000121985
0.000124045
0.000124045
0.000122258
0.000123961
0.000124014
0.000121661
0.000124052
7.63288e-05
0.000124043
0.000123731
0.000124005
0.000122346
0.00012357
0.000123639
0.000123893
0.000124055
0.000123998
0.000124044
0.000124057
0.000123855
0.000116147
)
;

boundaryField
{
    back
    {
        type            empty;
    }
    ingreso
    {
        type            zeroGradient;
    }
    salida
    {
        type            fixedValue;
        value           uniform 0;
    }
    front
    {
        type            empty;
    }
    defaultFaces
    {
        type            zeroGradient;
    }
}


// ************************************************************************* //
