/*--------------------------------*- C++ -*----------------------------------*\
  =========                 |
  \\      /  F ield         | OpenFOAM: The Open Source CFD Toolbox
   \\    /   O peration     | Website:  https://openfoam.org
    \\  /    A nd           | Version:  7
     \\/     M anipulation  |
\*---------------------------------------------------------------------------*/
FoamFile
{
    version     2.0;
    format      ascii;
    class       volScalarField;
    location    "39";
    object      p;
}
// * * * * * * * * * * * * * * * * * * * * * * * * * * * * * * * * * * * * * //

dimensions      [0 2 -2 0 0 0 0];

internalField   nonuniform List<scalar> 
591
(
0.00012398
0.000123998
0.000124008
0.000123965
0.000123966
0.000124043
0.000124036
0.000123998
0.000117028
0.000124009
0.000124176
0.000122907
0.000124012
0.000119781
0.000123999
0.000124053
0.000123949
0.000124038
0.000122024
0.000123381
0.000123972
-3.50664e-06
0.000124175
0.000123975
0.000124134
0.000123995
0.000124077
0.000124095
0.000124007
0.000124026
0.000124153
0.00012413
0.000124149
0.000124147
0.00012415
0.000123482
0.000124145
0.00012398
0.00012417
0.000124089
0.000124068
0.000124142
0.000124004
0.000124024
0.000124139
0.000124157
0.000119294
0.000124161
0.000124013
0.000124125
0.000124097
0.000124134
2.39441e-05
3.06011e-05
4.78703e-05
0.000124013
0.000124164
0.000124147
0.000124159
0.000123981
0.000124064
0.000124
0.000124002
0.000124056
0.000122625
0.000124001
0.000124006
0.000124156
0.000120788
0.000124018
0.000124008
0.000124162
0.000124123
0.000124143
0.000124148
0.000124125
0.000123974
0.000124159
0.000123979
0.000123903
0.000123758
0.000124164
0.000124126
0.000124096
0.000124171
0.000123989
0.000124081
0.000124154
0.000124118
0.000123871
0.000124131
0.000124066
0.000124088
0.000123984
0.00012417
0.000124124
0.000123687
0.000123584
0.000123722
0.000124174
0.000124086
0.000123995
0.000124178
0.000123967
0.000124177
0.000124005
0.000123997
0.000124128
0.000124168
0.000124172
0.000124057
0.000124145
0.000124018
0.000124152
0.000124173
0.000124148
0.000124098
0.000124104
0.000123655
0.000124065
0.000124002
0.000124014
0.000124057
0.000123988
0.000124143
0.000120278
0.000124176
0.00012415
0.000123758
0.000124149
0.000123993
0.000123681
0.00012411
0.000124107
0.000124152
0.000124012
0.00012266
0.000124177
0.000123998
0.000123657
0.000123722
0.000124079
0.000124155
0.00012417
0.000124165
7.61604e-06
3.68393e-06
2.08459e-06
3.81738e-05
3.67166e-05
5.68025e-06
3.8319e-05
1.57539e-05
3.72945e-05
1.78193e-05
0.000124001
0.000123989
0.000124163
0.000124161
0.000124167
0.000124165
0.000124158
0.000124156
0.00012416
0.000124161
0.000124121
0.000124168
0.000124163
0.000124168
0.000124099
0.00012346
0.00012417
0.000122196
0.000124143
0.000124152
0.000124093
0.000124009
0.000124152
0.000124162
0.000124157
0.000123567
0.000122544
0.000123119
0.000123527
0.000124155
0.00012416
0.000124096
0.000123975
0.000124152
0.000123032
0.000123383
0.000123977
0.00012415
0.000123846
0.000124144
0.000124152
0.000124124
0.000123817
0.000123964
0.00012415
0.000124161
0.000124155
0.000123949
0.000124137
0.000123944
0.000124169
0.000123998
0.000123995
0.000124166
0.000123783
0.000123965
0.000124009
0.000123628
0.000124115
0.000123774
0.000124061
0.000124063
0.000124141
0.000123545
0.000124054
0.000123954
0.000123962
0.000124126
0.000123882
0.000124044
0.000123952
0.000123859
0.000123955
0.000124171
0.000123924
0.000124165
0.000124005
0.00012414
0.000123995
0.000123993
0.000124172
0.000123895
0.000124162
0.000123888
0.000123935
0.000124005
0.000123982
0.000124012
0.000124002
0.000123763
0.000123971
0.000123919
0.000124133
0.000123992
0.000123827
0.00012412
0.000123386
0.00012393
0.000123288
0.000123158
0.000123988
0.000123952
0.000123986
0.000123982
0.000123939
0.00012417
0.000124029
0.000124111
0.000124029
0.000124032
0.000124045
0.000124119
0.000123773
0.000124165
0.000123812
0.000123704
0.000124018
0.00012414
0.000123723
0.000124165
0.000124066
0.000124109
0.000124123
0.000124013
0.000123974
0.000123785
0.000123948
0.000123964
0.000124019
0.000124065
0.000124138
0.000124151
0.000124159
0.000123928
0.000124025
0.000124144
0.000124153
0.000124149
0.00012395
0.00012416
0.000124031
0.000124135
0.000123916
0.000124161
0.000123907
0.00012414
0.000124043
0.000123975
1.16491e-05
2.19203e-05
0.000123945
0.000124002
0.000124168
0.000123936
0.000124169
0.000124014
0.000124161
0.000124141
0.000123895
0.000124135
0.000123969
0.000124163
0.000124007
-2.11749e-07
0.000123846
0.000124143
0.00012414
0.000123855
0.00012398
0.000124015
0.000124135
0.000123918
0.000124156
0.000124048
0.000124001
0.000124133
0.000123964
0.000123889
0.000123915
0.000124015
4.74499e-05
0.00012415
0.000124133
0.000123995
0.000124156
0.000124074
0.00012402
0.000123996
0.000123996
0.000124144
0.000124029
0.000123929
0.00012403
0.000123932
0.000124156
0.00012394
0.000123987
0.000124027
0.000124109
1.98827e-05
2.73112e-05
3.43109e-05
9.64063e-06
0.000123977
3.30695e-05
2.60219e-05
0.000124153
1.90844e-05
1.70446e-05
3.82048e-05
7.57106e-06
3.99593e-05
5.61496e-06
4.08552e-05
3.70691e-06
4.28386e-05
1.89098e-06
3.64081e-05
2.31991e-05
2.94496e-05
1.50063e-05
0.000123849
0.000124163
0.000124046
0.000124054
0.000120972
0.000124106
0.000124158
0.00012413
0.000123951
0.000124164
0.000124158
0.000124146
0.000124143
0.000123913
0.000123997
0.000124142
0.000124147
0.000123986
0.000123871
0.000123893
0.000123478
0.000123937
0.000124174
0.00012415
0.000124009
0.000124171
0.000123854
0.000124015
0.000123811
0.000122932
0.000124144
0.000124155
0.000124172
0.000123861
0.000124025
0.000123813
0.000124017
0.000124001
2.60548e-05
2.18796e-05
3.30487e-05
1.16273e-05
0.000124178
0.000123859
1.98286e-05
2.82656e-05
3.56178e-05
9.58478e-06
0.000123989
0.000124099
0.000123954
0.000123959
0.00012401
0.000124105
0.000123897
0.000124141
0.000124069
0.000123175
0.000123965
0.000123932
5.93282e-05
0.000123299
0.000124168
0.000123986
0.00012389
0.000124157
0.00012416
0.000123973
0.000123767
0.000124003
0.000124076
0.000123847
0.000124116
0.000122981
0.000123945
0.000123942
0.000124114
0.000100874
0.000123962
0.000123563
0.000123923
0.00012417
0.00012382
1.09033e-05
2.1121e-05
3.53838e-05
2.82135e-05
1.36812e-05
5.95397e-08
4.20745e-05
2.6975e-06
4.01681e-05
4.77037e-06
3.94321e-05
6.8186e-06
3.86402e-05
8.86181e-06
3.73067e-05
1.3684e-05
3.17387e-05
3.05998e-05
2.39472e-05
2.52661e-05
1.77825e-05
1.29501e-05
1.57305e-05
0.000124163
0.000102511
0.000123979
0.000123919
0.000124166
0.000124061
0.000124172
0.000123893
0.00012404
0.000124137
0.000124131
0.000124156
0.000123898
0.000124014
0.000123877
0.000124101
0.000123947
0.000124167
0.000124024
0.000123855
0.000123858
0.000124026
0.000124017
0.000124174
0.000124165
0.000124169
0.000124135
0.000124174
0.000123811
0.000124003
0.000124168
0.000123947
0.000124082
0.000124002
0.00012402
0.000123876
0.000124135
0.000124134
0.000123449
0.000121433
0.000123179
0.000123723
0.000124003
0.000123828
0.000124022
0.000124172
0.000124129
0.00012401
0.000123612
0.000123596
0.000124168
0.000124138
0.000124027
0.000124104
0.000123648
5.83583e-05
4.01343e-05
0.00012411
0.000124127
0.000123492
0.000122827
0.000123986
0.000123706
0.00012345
0.000124008
0.000123882
0.000124151
0.00012403
0.00012406
0.000119075
5.45018e-05
0.000124026
8.12502e-05
1.86778e-06
-3.8208e-07
0.000123997
0.000123967
0.000124137
0.000124173
0.00012416
0.000124168
0.000124162
0.000123983
-2.30123e-06
0.000122909
0.000124015
0.000124117
0.000122086
0.000124167
0.000124167
0.000122359
0.000124097
0.000124139
0.000121747
0.000124166
7.64132e-05
0.000124165
0.000123696
0.00012413
0.000122454
0.000123702
0.000123742
0.00012403
0.000124168
0.000124124
0.000124166
0.000124177
0.000124011
0.000116256
)
;

boundaryField
{
    back
    {
        type            empty;
    }
    ingreso
    {
        type            zeroGradient;
    }
    salida
    {
        type            fixedValue;
        value           uniform 0;
    }
    front
    {
        type            empty;
    }
    defaultFaces
    {
        type            zeroGradient;
    }
}


// ************************************************************************* //
