/*--------------------------------*- C++ -*----------------------------------*\
  =========                 |
  \\      /  F ield         | OpenFOAM: The Open Source CFD Toolbox
   \\    /   O peration     | Website:  https://openfoam.org
    \\  /    A nd           | Version:  7
     \\/     M anipulation  |
\*---------------------------------------------------------------------------*/
FoamFile
{
    version     2.0;
    format      ascii;
    class       surfaceScalarField;
    location    "39";
    object      phi;
}
// * * * * * * * * * * * * * * * * * * * * * * * * * * * * * * * * * * * * * //

dimensions      [0 3 -1 0 0 0 0];

internalField   nonuniform List<scalar> 
1111
(
6.27086e-09
1.33007e-08
-1.56235e-08
-3.94799e-09
6.40637e-09
-1.17044e-08
1.15689e-08
-1.46701e-08
4.77179e-09
9.53319e-09
3.65102e-10
3.22117e-10
-3.89181e-10
-1.41043e-08
1.41713e-08
-1.39936e-08
1.37751e-08
5.40689e-10
-1.56328e-09
1.48622e-08
2.12968e-09
-4.0198e-09
9.72717e-09
-1.09508e-08
5.24338e-09
-6.64423e-09
-1.25917e-08
1.25518e-08
6.68406e-09
-5.07184e-08
-2.57879e-08
7.65064e-08
-8.08199e-09
7.52462e-09
6.96373e-09
3.64897e-09
3.47777e-10
-3.72328e-09
-2.73459e-10
1.56425e-08
-1.5804e-08
-2.29201e-08
2.30816e-08
-9.61879e-09
-8.02859e-09
8.8133e-09
8.83408e-09
-3.50723e-08
1.74815e-08
-3.21862e-08
4.9777e-08
9.54642e-09
-1.91546e-09
-1.42752e-08
-2.49512e-09
2.98025e-09
-3.80042e-09
3.3153e-09
-3.70594e-09
1.32084e-08
1.95291e-09
-1.14554e-08
8.87574e-09
-2.23283e-09
-1.5036e-08
8.39304e-09
3.79499e-08
-3.07521e-08
-7.19785e-09
-1.92464e-08
-3.25593e-11
1.75243e-08
1.75458e-09
-5.96186e-10
3.94041e-09
-1.79291e-08
1.45848e-08
-6.1263e-08
-3.96436e-09
6.52273e-08
1.78591e-10
-1.3479e-09
-3.84172e-10
1.55348e-09
-1.16526e-09
-1.34245e-08
-2.14317e-10
-3.42953e-10
3.17526e-10
2.39744e-10
-1.00008e-08
-8.09558e-09
1.24063e-08
5.69002e-09
7.74002e-10
-2.17448e-09
-8.50168e-09
9.90215e-09
7.85611e-09
1.00878e-09
-8.68871e-09
-1.76188e-10
-2.82245e-09
-7.7861e-09
1.0805e-08
-1.96465e-10
1.13426e-08
-4.41878e-10
-2.02496e-09
-1.05146e-09
1.02375e-09
1.03391e-10
-7.56787e-11
-3.49039e-10
9.22761e-10
5.14943e-10
-1.08866e-09
-6.47086e-10
-4.40847e-11
6.89333e-10
1.83781e-12
2.80648e-11
-1.07648e-09
9.29061e-11
9.55511e-10
-4.15187e-11
-9.81873e-10
7.12045e-10
-1.83072e-08
-1.65116e-09
-5.55679e-10
6.21235e-11
-1.5353e-10
1.33916e-08
-1.33058e-08
3.85463e-09
-4.53874e-10
6.66324e-10
4.34238e-10
-6.46688e-10
-5.83872e-10
-2.49937e-09
1.90422e-09
1.17902e-09
-2.11904e-09
9.21874e-09
-1.11195e-08
-4.22395e-10
-2.13721e-10
8.04366e-11
-8.79426e-09
1.00717e-08
-9.35938e-09
1.18503e-08
-1.69209e-08
5.0892e-09
-1.85812e-11
1.013e-10
-2.27202e-10
-2.96494e-10
2.86828e-10
9.33444e-10
-1.96527e-10
-5.98253e-08
7.43562e-08
-1.45309e-08
1.17852e-09
-3.89111e-10
-1.36393e-09
5.74529e-10
1.06957e-09
1.02904e-08
-1.37068e-08
2.34681e-09
-6.62139e-10
6.84739e-09
-8.28348e-09
2.09823e-09
-6.42794e-09
5.80948e-09
5.45638e-09
-4.83792e-09
-7.02396e-09
-2.3101e-09
2.18999e-09
7.14407e-09
-1.83302e-10
-9.09095e-08
9.12986e-08
-2.05768e-10
-2.53975e-10
-8.97538e-08
9.01591e-08
-1.51315e-10
8.30732e-08
-1.50484e-09
1.15548e-10
-8.16839e-08
-3.21509e-09
-1.12409e-10
8.42614e-10
9.41699e-10
-6.05798e-10
4.06478e-09
-1.77366e-09
3.27103e-09
-5.56215e-09
-1.14277e-09
1.04049e-09
-1.4985e-08
6.60236e-09
9.19622e-09
9.92112e-10
-9.88166e-09
-3.06675e-10
-6.30727e-09
1.28239e-08
1.49284e-09
-8.00949e-09
1.42586e-08
-4.00246e-09
3.23212e-09
-1.34882e-08
1.54145e-08
1.74406e-09
-1.72979e-09
-5.63725e-10
-1.98474e-08
-7.19077e-09
2.76019e-08
1.36926e-08
-8.22824e-09
-2.25706e-09
7.60603e-09
-1.16562e-08
-1.32579e-10
2.74261e-10
-1.50562e-09
-3.68239e-08
-2.30013e-08
7.96582e-09
3.97625e-12
3.88046e-09
-6.91966e-09
1.07047e-08
6.28665e-09
-7.13604e-10
4.10169e-10
5.76636e-10
-2.73201e-10
5.95107e-09
-4.60673e-09
3.54006e-09
-4.8844e-09
-6.64212e-10
-7.30108e-10
3.17838e-10
8.37518e-10
-7.88695e-10
-1.82984e-10
-1.18369e-09
1.01763e-09
-1.75163e-08
2.50482e-09
1.44135e-09
1.35701e-08
3.10984e-10
-8.40266e-10
-1.84322e-10
-3.80758e-09
-1.47436e-08
1.03489e-09
5.67582e-09
1.17221e-08
-5.24404e-09
-1.21539e-08
1.6431e-08
5.52101e-10
-1.58981e-08
-1.08496e-09
-7.99761e-10
5.68174e-10
6.41756e-10
-9.16398e-10
4.93555e-10
4.22843e-10
-7.08044e-09
-3.80824e-09
4.46074e-09
-3.95486e-10
5.72062e-10
-1.76576e-10
1.32268e-09
-1.5131e-08
-7.68526e-10
8.85752e-09
-1.0208e-08
-1.17196e-09
-1.09938e-09
1.25409e-08
4.39805e-09
-4.15026e-09
-1.27887e-08
2.79239e-10
6.9509e-09
-7.64478e-09
6.50336e-09
-1.95426e-09
-8.45006e-09
7.77717e-09
2.62716e-09
-1.78102e-09
5.89626e-10
-1.35522e-08
-2.41624e-10
-1.53862e-10
-4.6446e-10
1.22913e-09
-7.78862e-09
7.65436e-10
1.72697e-08
-1.60421e-09
-1.41349e-08
1.53557e-08
-1.22081e-09
1.19434e-08
1.40763e-08
-1.56251e-08
-1.03946e-08
-8.31908e-10
1.40567e-09
-5.7376e-10
1.35204e-09
-1.71922e-09
3.67183e-10
2.30309e-09
-3.27828e-09
9.75188e-10
1.89811e-09
-1.58426e-09
-3.13851e-10
-1.1696e-08
3.44503e-10
1.13515e-08
2.62944e-09
-7.31327e-10
8.86213e-09
-1.51217e-08
6.57235e-09
-7.69895e-09
8.33513e-11
3.98996e-09
-4.24348e-10
-2.97721e-09
3.06057e-09
-7.45824e-09
8.80196e-09
-1.34372e-09
-8.85809e-10
4.09763e-09
8.52958e-10
1.71429e-08
-1.45299e-08
-1.54347e-09
-5.44273e-09
5.15089e-09
-1.48183e-09
-2.59846e-10
6.68424e-09
-6.69514e-09
1.09026e-11
7.06562e-09
4.34184e-09
2.52659e-10
-1.57758e-08
1.0385e-08
1.73342e-08
5.68287e-09
8.33364e-09
8.23992e-09
-6.78167e-09
7.93416e-10
-1.24894e-08
1.2999e-09
1.04762e-10
-1.27685e-08
3.50301e-09
-4.42445e-10
1.33694e-08
-1.28173e-08
-1.17592e-10
-1.09589e-09
-1.36799e-08
7.13098e-09
9.3052e-10
-5.06875e-11
-8.93617e-09
5.24576e-09
-3.13158e-08
-1.25643e-08
-2.42368e-09
1.30809e-09
1.37524e-08
1.09711e-08
-1.06461e-08
-1.40775e-08
1.61935e-08
-3.11954e-09
-1.30739e-08
1.75494e-09
3.84618e-09
-1.46096e-09
-9.88851e-10
-1.0401e-09
1.36809e-09
6.60859e-10
-3.06373e-10
4.36992e-10
4.46017e-10
6.2156e-08
-6.21649e-08
8.91098e-12
6.20888e-08
-6.23788e-08
2.9002e-10
8.25858e-10
6.47543e-08
-6.55814e-08
8.27024e-10
6.41483e-08
6.0599e-10
-2.22822e-10
-6.65292e-08
9.47881e-10
-6.20228e-08
6.18933e-08
1.29511e-10
1.32482e-09
-6.78541e-08
-6.21872e-08
1.64428e-10
1.20887e-08
-1.14229e-09
1.7617e-09
-3.73726e-09
3.11786e-09
4.44667e-10
-1.30777e-09
1.16153e-09
-8.34107e-10
1.50693e-09
-1.78604e-09
1.11321e-09
1.56735e-09
-1.73819e-09
4.45106e-10
-1.06271e-10
-3.3203e-09
3.09531e-09
-2.36108e-09
2.58607e-09
-8.7659e-10
-2.892e-09
2.6263e-09
-3.88388e-09
-5.56077e-09
6.64083e-10
-7.6248e-10
1.46703e-09
1.20144e-09
-6.61585e-09
8.02293e-09
2.93476e-09
2.04634e-08
-4.26995e-09
-8.34713e-10
3.04268e-10
1.19453e-09
-1.02151e-08
-2.66089e-08
5.48942e-09
-4.49771e-09
-3.09615e-09
2.10444e-09
1.38111e-10
1.08129e-11
5.40409e-10
-2.83625e-09
3.53297e-09
8.6086e-09
9.24942e-10
-5.87507e-10
2.23896e-09
-2.52805e-09
2.28757e-09
1.46996e-08
1.31291e-08
-2.68559e-08
3.22833e-08
6.14543e-09
-2.27955e-08
-1.02058e-08
1.7987e-08
-1.76183e-08
1.06024e-08
-2.78458e-10
-9.74301e-12
-1.44999e-09
-1.92844e-09
-2.4125e-09
3.85619e-09
1.46563e-08
-5.99916e-10
-1.34668e-08
4.73277e-11
-2.86246e-09
-7.68719e-11
1.52962e-08
1.73905e-08
1.35662e-08
7.17293e-10
-1.53229e-09
-1.27512e-08
-1.90167e-09
5.99297e-09
1.22237e-08
-8.12694e-10
-1.26507e-09
-3.51012e-09
2.72881e-09
3.87662e-09
2.41363e-09
1.412e-08
4.12009e-09
-1.3842e-08
1.74067e-08
-1.71544e-09
2.87508e-09
-3.65327e-09
1.88438e-09
-4.52266e-09
1.28197e-08
-1.2003e-08
-1.38484e-08
6.13608e-10
8.71211e-09
-1.92352e-09
1.62229e-09
1.76827e-09
-8.76216e-09
5.13712e-10
-4.31589e-09
-6.01531e-09
1.21458e-08
-1.48927e-08
1.42865e-09
1.65234e-09
-2.14606e-09
1.63601e-08
-1.58664e-08
-9.71957e-10
1.39383e-08
2.7193e-09
-4.00159e-09
-1.38394e-08
7.26456e-09
-1.69368e-08
-7.94609e-09
6.48472e-09
5.8348e-09
1.42782e-08
-9.50776e-09
3.16591e-09
8.969e-09
9.83488e-09
3.87093e-09
-4.10393e-09
2.13956e-08
-1.87509e-08
4.6198e-09
-1.0018e-08
2.26519e-09
5.36126e-09
1.34868e-08
-7.61455e-11
1.2475e-08
-1.33709e-08
-1.68139e-09
2.51326e-09
-1.65783e-09
8.25959e-10
1.07638e-08
-6.35921e-09
7.3175e-09
-1.04199e-08
1.39403e-09
-4.75582e-09
1.11947e-08
-1.16829e-08
-7.44214e-09
8.96111e-09
9.24485e-09
1.25889e-08
9.48847e-10
-1.36139e-08
1.7185e-09
8.5102e-10
-1.08543e-08
-6.72147e-09
1.01336e-08
-1.76818e-09
2.52496e-09
-8.75217e-09
4.73868e-09
-5.11274e-09
1.12479e-08
-3.48935e-09
-1.14188e-08
3.66032e-09
-4.5307e-09
1.10227e-08
2.12997e-09
1.21082e-09
-5.04884e-09
-1.74585e-08
1.03995e-08
1.21078e-08
8.79359e-10
-1.07288e-08
-9.67193e-09
1.53519e-08
1.21932e-08
2.70984e-09
-9.54181e-09
-1.31926e-08
-2.74849e-10
-1.24747e-08
2.75437e-10
-6.38868e-10
1.11684e-08
1.23778e-08
-8.10267e-09
1.61705e-08
-1.55085e-08
3.45811e-09
-4.72785e-10
1.66552e-09
1.23774e-08
-3.8579e-09
-1.24463e-08
-5.1207e-09
7.14778e-10
4.51069e-09
1.18913e-08
-7.44157e-09
7.77586e-10
-1.19634e-09
1.64858e-09
-2.13363e-09
6.09249e-09
2.59055e-08
-5.82647e-10
-1.23297e-08
1.29124e-08
2.80095e-08
-2.19496e-08
2.19934e-08
1.92082e-08
-1.2519e-08
-2.59452e-09
1.48174e-08
1.40547e-10
-1.20406e-08
-2.93527e-10
-6.01884e-09
-1.97715e-09
2.40224e-09
1.70488e-09
8.57511e-11
-1.07463e-08
1.0878e-08
-2.17479e-10
2.4961e-09
-5.51858e-09
-1.05697e-08
1.02462e-08
-6.91118e-10
-1.03677e-08
-2.45455e-11
-1.05482e-08
-2.88429e-09
-1.17959e-08
2.28677e-09
7.74538e-09
5.06849e-09
1.95589e-10
-1.14903e-08
1.13805e-08
6.85052e-10
-8.45749e-09
5.27345e-09
-8.92705e-10
2.71012e-09
-3.19168e-09
-1.29338e-08
-1.32757e-08
1.28887e-08
-1.0025e-08
-1.58177e-08
1.0067e-08
9.03122e-09
8.49303e-10
2.58901e-09
-1.49187e-08
1.08562e-08
1.70628e-09
4.04448e-09
3.85118e-10
-6.29678e-10
-4.19651e-10
-4.02095e-09
2.71252e-09
-1.55402e-09
3.63836e-10
-4.24888e-10
6.10516e-11
-2.51033e-09
1.25741e-08
2.12943e-09
2.5517e-09
-9.9209e-10
-1.83059e-09
-1.07597e-10
-2.57735e-09
-7.03225e-10
1.2642e-08
9.76003e-09
-5.06866e-10
7.10788e-09
-1.19049e-09
-5.41053e-09
-9.64978e-09
-5.09884e-09
2.84239e-10
7.95979e-11
4.6403e-09
1.37184e-09
-1.6741e-08
-6.08292e-10
-9.34509e-10
-2.33552e-09
8.29162e-10
2.61396e-09
6.19357e-08
-1.017e-10
-6.1834e-08
6.23399e-08
1.94194e-10
-6.25341e-08
-1.41791e-08
9.07756e-11
1.45343e-08
-4.4596e-10
2.69255e-09
-2.07789e-09
2.81473e-09
1.78812e-09
-4.37424e-09
-5.29134e-10
-6.52954e-10
5.2955e-10
-1.49797e-10
6.24386e-10
-4.52989e-10
1.89922e-08
1.12143e-09
-1.54733e-08
-3.15208e-10
-1.96173e-09
1.2133e-08
2.20611e-09
1.74753e-09
5.13075e-09
-1.82721e-09
-7.7202e-08
-2.41784e-08
-4.79936e-09
1.56887e-08
2.31908e-09
-7.64765e-10
-3.36661e-09
-1.38115e-09
7.11442e-10
-5.95357e-10
-1.22222e-08
-3.06942e-10
1.25291e-08
-1.06209e-08
-6.66476e-09
1.05642e-08
-9.25509e-09
8.83656e-09
-1.44953e-10
1.89345e-09
1.16997e-08
-1.14423e-08
-2.57383e-10
7.54395e-10
6.42755e-11
9.76391e-09
1.08958e-09
-1.16909e-09
-3.57015e-10
-1.42238e-08
-5.22506e-10
-1.33989e-08
1.21227e-08
-1.14573e-08
-6.60082e-08
6.49572e-08
1.05101e-09
4.79004e-10
-4.68191e-10
1.16359e-08
-4.44351e-10
1.94632e-11
-1.95554e-09
2.76875e-09
-3.37651e-09
-1.3524e-08
-1.67897e-09
2.57792e-09
-4.69629e-09
-1.37979e-08
1.75326e-09
5.61699e-09
9.4165e-09
-8.74196e-09
-4.73961e-10
2.96098e-11
-9.35892e-09
-1.27212e-08
1.52658e-10
-6.27231e-08
2.31314e-10
6.24917e-08
6.96663e-10
6.34517e-08
-2.29231e-10
-9.35329e-10
-1.43342e-08
1.12303e-10
-6.33815e-08
6.32692e-08
1.81835e-10
-6.29217e-08
6.27398e-08
5.45453e-10
6.1819e-08
1.54943e-10
-6.1974e-08
6.16518e-08
1.67241e-10
-8.78908e-08
8.85009e-08
-4.17319e-12
9.33696e-08
-9.3079e-08
-2.81689e-10
-8.66307e-08
-4.33042e-10
9.33447e-08
-1.97875e-10
-8.49142e-08
-7.68598e-10
9.34718e-08
1.62921e-10
-5.162e-10
1.95371e-09
9.23439e-08
-6.93589e-08
6.21674e-08
-6.23507e-08
-6.2977e-08
6.15112e-08
1.40596e-10
-2.98379e-09
2.70633e-09
-1.35646e-08
8.63355e-11
1.97903e-10
2.26206e-09
9.5227e-09
-1.17555e-08
3.81979e-08
-3.44315e-08
-1.65349e-08
1.38653e-08
-8.28805e-11
-2.18969e-10
2.9886e-10
9.25971e-10
-1.8361e-10
4.06787e-10
4.66243e-09
1.04431e-09
-3.82235e-09
-4.04229e-10
4.66353e-10
-3.23792e-10
-2.41309e-09
1.27625e-08
2.22477e-09
-1.4446e-08
-2.35506e-09
-3.699e-09
5.68984e-09
1.07702e-09
-2.48536e-09
1.41257e-08
-1.24088e-09
-4.03123e-09
5.99283e-09
-8.00423e-09
-1.90612e-08
-1.30274e-08
7.66624e-09
5.97473e-09
-3.18072e-10
-5.19071e-10
3.23938e-09
1.43657e-08
1.8723e-09
-1.37585e-09
-4.77257e-10
5.16825e-10
-2.99414e-10
1.596e-08
-4.59852e-10
-1.58071e-08
-3.51486e-09
-2.25854e-09
2.8821e-10
-2.26257e-10
4.03084e-09
-1.78223e-08
6.39338e-10
-1.70814e-09
-2.33322e-09
-2.35432e-09
1.52209e-08
-9.05867e-08
-1.41013e-10
9.16862e-08
-1.93449e-10
-8.91669e-08
-4.7465e-10
9.30893e-08
-2.78865e-10
-9.29122e-08
-6.34963e-10
-1.8045e-09
1.6178e-08
9.19938e-08
-1.96239e-10
3.07247e-11
-2.1895e-10
1.07549e-08
2.28467e-09
-9.33352e-09
-1.18805e-08
-5.62854e-09
8.46486e-09
1.38289e-09
-6.91299e-09
-6.37339e-09
9.06544e-09
-2.22491e-10
1.01613e-08
1.92533e-08
-1.76668e-08
3.0213e-09
-1.2435e-08
3.01002e-09
-7.00156e-08
4.00735e-09
-2.03294e-08
-1.27965e-08
-6.03535e-10
-5.84845e-09
-1.53823e-08
9.19014e-09
-1.52082e-08
5.75921e-10
4.87176e-10
-1.51159e-09
-1.61403e-08
1.67076e-08
8.96842e-09
-9.08082e-09
-5.46281e-09
1.49482e-08
-1.65657e-09
8.34069e-10
-1.45836e-09
5.27334e-10
1.2193e-08
3.4109e-09
7.09453e-08
-1.79486e-08
9.31301e-10
-1.46513e-08
-3.03783e-10
-3.5005e-10
-1.88537e-10
6.09749e-08
-6.12538e-08
-6.33508e-08
-6.31179e-08
-5.92396e-11
-2.57359e-10
-9.25956e-08
-6.04394e-08
6.23931e-08
6.50728e-08
-6.02764e-08
6.45566e-08
-6.04743e-08
6.3788e-08
-6.0756e-08
6.3355e-08
9.23255e-08
3.83164e-10
-6.4908e-09
7.50392e-08
-6.51375e-08
1.08295e-10
-1.08295e-10
1.79111e-09
-3.77304e-10
1.54939e-08
-1.22788e-10
1.22788e-10
4.83454e-10
1.52751e-09
1.39013e-08
1.29964e-08
-2.7413e-09
3.72394e-09
6.35331e-09
1.94215e-09
4.61863e-10
-3.28654e-10
-2.89696e-09
1.43737e-08
1.48169e-08
-4.29914e-09
1.16993e-08
2.6182e-10
2.07679e-10
2.97393e-09
-1.01492e-09
-1.75736e-09
-5.94348e-09
-1.35865e-10
-4.84239e-10
1.52257e-08
3.62664e-10
1.56451e-10
1.60677e-08
-2.57903e-08
1.72472e-08
2.571e-09
1.47122e-09
2.25832e-09
-3.56487e-09
1.8981e-08
-1.76744e-08
-1.33329e-10
8.13049e-10
-1.44418e-09
-7.91887e-08
-7.08031e-08
1.46334e-09
-1.06737e-09
7.24248e-10
2.28572e-08
1.83895e-08
-6.49205e-09
1.51477e-10
-4.48499e-09
-2.14575e-09
2.98914e-08
1.42185e-10
1.4809e-08
7.35706e-08
9.97026e-11
5.64876e-10
-2.18099e-10
-2.85812e-10
-3.86503e-09
2.42104e-08
-1.47796e-08
1.20902e-09
-1.40274e-08
-8.96084e-11
2.01485e-08
-2.85726e-08
8.99106e-10
2.47797e-09
-6.4769e-10
)
;

boundaryField
{
    back
    {
        type            empty;
        value           nonuniform 0();
    }
    ingreso
    {
        type            calculated;
        value           nonuniform List<scalar> 
14
(
-1.54286e-08
-1.54288e-08
-1.54288e-08
-1.54288e-08
-1.54286e-08
-1.54283e-08
-1.54288e-08
-1.54288e-08
-1.54286e-08
-1.54286e-08
-1.54288e-08
-1.5428e-08
-1.5428e-08
-1.54286e-08
)
;
    }
    salida
    {
        type            calculated;
        value           nonuniform List<scalar> 2(1.0138e-07 1.1462e-07);
    }
    front
    {
        type            empty;
        value           nonuniform 0();
    }
    defaultFaces
    {
        type            calculated;
        value           uniform 0;
    }
}


// ************************************************************************* //
