/*--------------------------------*- C++ -*----------------------------------*\
  =========                 |
  \\      /  F ield         | OpenFOAM: The Open Source CFD Toolbox
   \\    /   O peration     | Website:  https://openfoam.org
    \\  /    A nd           | Version:  7
     \\/     M anipulation  |
\*---------------------------------------------------------------------------*/
FoamFile
{
    version     2.0;
    format      ascii;
    class       volScalarField;
    location    "99.5";
    object      p;
}
// * * * * * * * * * * * * * * * * * * * * * * * * * * * * * * * * * * * * * //

dimensions      [0 2 -2 0 0 0 0];

internalField   nonuniform List<scalar> 
591
(
0.000123832
0.000123848
0.000123852
0.000123799
0.000123802
0.000123873
0.000123861
0.000123837
0.000116958
0.000123857
0.000124043
0.000122794
0.000123843
0.000119683
0.000123837
0.000123874
0.000123835
0.000123886
0.000121912
0.000123217
0.000123819
-3.52352e-06
0.000124037
0.00012382
0.000123992
0.000123843
0.000123958
0.000123953
0.000123857
0.000123866
0.000124012
0.000123985
0.000124006
0.000124005
0.000124007
0.00012333
0.000124002
0.000123821
0.000124031
0.000123947
0.000123899
0.000123998
0.000123852
0.000123877
0.000123995
0.000124017
0.000119188
0.000124021
0.000123856
0.000123968
0.000123974
0.000124003
2.39456e-05
3.05899e-05
4.7837e-05
0.00012385
0.000124026
0.000124019
0.000124019
0.000123829
0.000123917
0.000123849
0.000123845
0.000123896
0.000122522
0.000123848
0.000123852
0.000124015
0.000120688
0.000123864
0.000123855
0.000124023
0.000124
0.000124
0.000124006
0.000123981
0.000123824
0.000124019
0.000123826
0.000123765
0.000123599
0.000124024
0.000123983
0.000123971
0.000124032
0.000123838
0.000123922
0.000124014
0.000123976
0.000123729
0.000123988
0.000123943
0.000123954
0.000123829
0.00012403
0.000123985
0.00012353
0.000123429
0.000123603
0.000124036
0.00012394
0.000123868
0.000124042
0.000123794
0.000124043
0.000123849
0.000123846
0.000123987
0.000124037
0.00012404
0.000123932
0.000124015
0.000123863
0.000124017
0.000124034
0.000124022
0.000123977
0.000123965
0.000123539
0.000123944
0.000123849
0.00012384
0.000123934
0.000123826
0.000124
0.000120153
0.000124043
0.000124022
0.000123596
0.000124007
0.000123838
0.000123522
0.000123983
0.000123974
0.000124011
0.000123855
0.000122585
0.000124039
0.00012384
0.00012353
0.000123602
0.000123938
0.000124026
0.000124032
0.000124025
7.61888e-06
3.68042e-06
2.07302e-06
3.81608e-05
3.67007e-05
5.66329e-06
3.83133e-05
1.57431e-05
3.72968e-05
1.781e-05
0.000123849
0.00012384
0.000124032
0.000124021
0.000124029
0.000124029
0.00012402
0.000124015
0.000124032
0.000124029
0.000123997
0.000124029
0.000124025
0.000124033
0.000123978
0.000123351
0.000124032
0.000122088
0.000124019
0.00012401
0.000123965
0.000123858
0.00012401
0.000124027
0.000124029
0.000123449
0.000122433
0.000123008
0.000123398
0.000124015
0.000124023
0.000123917
0.000123818
0.000124019
0.000122928
0.000123256
0.000123818
0.000124008
0.000123707
0.000124002
0.000124027
0.000124003
0.000123674
0.000123809
0.000124024
0.000124028
0.000124029
0.000123831
0.000124009
0.000123828
0.000124036
0.000123842
0.000123842
0.000124032
0.000123632
0.000123809
0.000123852
0.000123492
0.000123986
0.000123638
0.000123927
0.000123945
0.000124017
0.000123404
0.000123914
0.000123803
0.000123802
0.000123982
0.000123748
0.000123898
0.000123815
0.000123729
0.000123794
0.000124035
0.000123794
0.000124035
0.00012389
0.000124015
0.000123857
0.000123859
0.000124039
0.000123743
0.000124023
0.000123732
0.000123782
0.000123847
0.000123825
0.000123863
0.00012385
0.00012362
0.000123822
0.000123777
0.000123986
0.000123841
0.000123701
0.000123976
0.000123247
0.000123818
0.000123138
0.000123026
0.000123833
0.000123796
0.000123835
0.000123832
0.000123807
0.000124038
0.000123878
0.000123949
0.000123893
0.000123882
0.000123894
0.000123993
0.000123642
0.000124034
0.000123678
0.000123565
0.000123867
0.000124013
0.00012359
0.000124026
0.000123941
0.000123947
0.000123977
0.000123859
0.000123836
0.000123673
0.00012379
0.000123832
0.000123873
0.000123935
0.000123995
0.000124015
0.000124019
0.000123775
0.000123884
0.000124007
0.000124014
0.000124008
0.0001238
0.000124022
0.000123899
0.000124011
0.000123761
0.000124022
0.000123748
0.000123997
0.00012389
0.000123834
1.16435e-05
2.19142e-05
0.00012377
0.000123855
0.000124037
0.000123781
0.000124037
0.000123865
0.000124021
0.000123997
0.000123729
0.000123991
0.000123822
0.000124035
0.000123857
-2.09495e-07
0.000123734
0.000124004
0.000123998
0.000123688
0.000123852
0.000123896
0.000123991
0.000123743
0.000124015
0.000123898
0.00012385
0.00012399
0.000123793
0.000123717
0.000123757
0.00012386
4.74901e-05
0.000124009
0.000123988
0.000123847
0.000124016
0.000123925
0.00012387
0.000123853
0.000123837
0.000124001
0.000123865
0.000123768
0.000123903
0.000123774
0.000124015
0.000123781
0.000123843
0.000123876
0.000123958
1.98751e-05
2.73357e-05
3.42965e-05
9.64075e-06
0.000123821
3.30558e-05
2.60031e-05
0.000124012
1.9076e-05
1.70316e-05
3.81856e-05
7.57764e-06
3.99366e-05
5.6062e-06
4.083e-05
3.68999e-06
4.28116e-05
1.87722e-06
3.64097e-05
2.32e-05
2.94519e-05
1.4994e-05
0.000123705
0.000124024
0.000123889
0.000123902
0.00012085
0.00012394
0.000124018
0.000123988
0.000123785
0.000124024
0.000124031
0.000124003
0.000124
0.000123764
0.000123837
0.000124016
0.000124022
0.000123857
0.000123719
0.000123811
0.000123366
0.000123817
0.000124041
0.000124007
0.000123849
0.000124031
0.000123689
0.000123863
0.000123649
0.000122806
0.000124001
0.000124014
0.00012404
0.000123705
0.000123902
0.000123647
0.000123864
0.000123856
2.60449e-05
2.18794e-05
3.30371e-05
1.16197e-05
0.000124043
0.000123697
1.98218e-05
2.82565e-05
3.56032e-05
9.58951e-06
0.000123867
0.000123943
0.000123812
0.000123819
0.000123839
0.000123984
0.000123774
0.000123997
0.00012395
0.000123061
0.000123821
0.000123787
5.93807e-05
0.000123187
0.000124029
0.000123833
0.000123721
0.000124017
0.00012402
0.000123812
0.000123611
0.000123845
0.000123886
0.000123696
0.000123972
0.000122856
0.000123768
0.000123795
0.000123993
0.000100853
0.000123839
0.000123447
0.000123757
0.000124029
0.000123659
1.08975e-05
2.11168e-05
3.53687e-05
2.8193e-05
1.36635e-05
5.60698e-08
4.20849e-05
2.69138e-06
4.01587e-05
4.76346e-06
3.94168e-05
6.8162e-06
3.86246e-05
8.85889e-06
3.72911e-05
1.36752e-05
3.17294e-05
3.05859e-05
2.3939e-05
2.52793e-05
1.7767e-05
1.29398e-05
1.57092e-05
0.000124023
0.000102369
0.00012382
0.000123746
0.000124026
0.000123915
0.000124033
0.000123749
0.000123878
0.000123993
0.000123988
0.000123998
0.000123747
0.000123843
0.000123762
0.00012395
0.000123778
0.000124027
0.000123907
0.000123736
0.000123744
0.000123854
0.000123848
0.000124034
0.000124025
0.000124039
0.000123992
0.00012404
0.000123663
0.000123843
0.000124029
0.000123789
0.000123921
0.000123851
0.000123902
0.00012373
0.000123991
0.00012399
0.000123305
0.00012133
0.000123031
0.000123577
0.000123842
0.000123672
0.000123855
0.000124035
0.000124006
0.000123849
0.000123463
0.00012344
0.000124028
0.000123994
0.000123868
0.000123957
0.000123504
5.83051e-05
4.01167e-05
0.000123963
0.000123981
0.000123346
0.000122706
0.00012383
0.000123588
0.000123335
0.000123839
0.000123762
0.000124025
0.000123872
0.000123906
0.000118963
5.44604e-05
0.000123874
8.12499e-05
1.86249e-06
-3.80452e-07
0.000123839
0.000123807
0.000123993
0.000124038
0.000124031
0.000124028
0.000124034
0.000123825
-2.30658e-06
0.000122782
0.000123867
0.000123969
0.000121968
0.000124026
0.000124027
0.000122249
0.000123945
0.000123995
0.000121648
0.000124037
7.63201e-05
0.000124025
0.000123751
0.000123986
0.000122332
0.00012355
0.000123627
0.000123876
0.000124039
0.000123978
0.000124026
0.00012404
0.000123828
0.000116132
)
;

boundaryField
{
    back
    {
        type            empty;
    }
    ingreso
    {
        type            zeroGradient;
    }
    salida
    {
        type            fixedValue;
        value           uniform 0;
    }
    front
    {
        type            empty;
    }
    defaultFaces
    {
        type            zeroGradient;
    }
}


// ************************************************************************* //
