/*--------------------------------*- C++ -*----------------------------------*\
  =========                 |
  \\      /  F ield         | OpenFOAM: The Open Source CFD Toolbox
   \\    /   O peration     | Website:  https://openfoam.org
    \\  /    A nd           | Version:  7
     \\/     M anipulation  |
\*---------------------------------------------------------------------------*/
FoamFile
{
    version     2.0;
    format      ascii;
    class       volVectorField;
    location    "99.5";
    object      U;
}
// * * * * * * * * * * * * * * * * * * * * * * * * * * * * * * * * * * * * * //

dimensions      [0 1 -1 0 0 0 0];

internalField   nonuniform List<vector> 
591
(
(0.000837122 -5.5772e-06 1.21634e-18)
(0.000832939 -5.18629e-06 -6.61837e-19)
(0.000853943 1.83841e-05 5.70077e-20)
(0.000867487 -2.53628e-05 -1.49015e-19)
(0.00085538 -1.02926e-05 2.2544e-19)
(0.000803589 -3.84487e-05 -1.39569e-19)
(0.000563366 -0.000225954 8.06021e-19)
(0.000803729 4.31622e-06 2.10668e-18)
(0.00572346 0.00251035 9.87932e-19)
(0.000815831 -8.45156e-07 2.44608e-18)
(4.59452e-05 0.000160447 1.21785e-18)
(0.000938607 0.00139486 9.40694e-21)
(0.0008013 4.24956e-06 1.32257e-18)
(0.00160369 0.00240431 -7.87351e-19)
(0.000803286 1.42726e-06 -4.4636e-19)
(4.40902e-05 -0.00015141 2.4825e-22)
(0.000140852 0.000669263 7.04773e-19)
(0.000817728 7.98517e-05 -4.96881e-19)
(0.0018979 0.000392149 4.7372e-19)
(0.00135949 0.000257001 -2.47061e-19)
(0.000831386 -8.88062e-06 3.7308e-19)
(0.00340056 0.00655991 -8.14532e-20)
(2.31086e-05 6.36685e-05 2.70852e-19)
(0.000836029 -2.53218e-05 -4.51508e-19)
(6.23766e-06 -1.11444e-05 3.58782e-19)
(0.000792121 4.34523e-05 0)
(9.46846e-05 0.000466851 1.59923e-19)
(0.000574384 -1.83815e-06 -1.78769e-19)
(0.000765748 4.73112e-05 1.14906e-18)
(0.000806294 7.07306e-05 5.84351e-19)
(4.89104e-05 -5.61482e-06 -5.37164e-24)
(2.14289e-05 -3.87799e-05 3.5204e-19)
(2.80135e-05 -2.53786e-06 -4.64046e-20)
(3.74412e-05 -1.22468e-05 0)
(4.59681e-05 -1.28425e-05 1.13102e-18)
(0.00117042 0.000140303 1.79828e-19)
(2.35133e-05 -4.15808e-06 4.46975e-20)
(0.000824108 4.40383e-07 3.14009e-23)
(2.29945e-05 3.82052e-05 2.65931e-19)
(-7.42994e-06 -6.04188e-05 -8.53583e-19)
(0.000659664 -0.000189955 9.58678e-19)
(1.81619e-05 -4.8936e-06 4.54651e-20)
(0.000814145 1.87651e-05 -1.57824e-18)
(0.000832075 5.02967e-05 -6.90853e-19)
(1.16838e-05 -5.47829e-06 0)
(4.78145e-05 3.75815e-06 8.51553e-20)
(0.00134931 0.00450318 8.92778e-19)
(6.76548e-05 1.01487e-05 8.63308e-20)
(0.000802535 1.67054e-05 0)
(0.000394525 -0.000231409 6.7694e-19)
(0.000390335 0.000265989 5.11753e-21)
(0.000404584 3.16187e-05 -1.00342e-18)
(0.00634757 0.0109403 -7.68618e-19)
(0.00622444 0.0107954 1.5287e-20)
(0.00561448 0.0103782 1.45582e-18)
(0.000805545 4.79545e-05 0)
(6.07608e-05 2.49925e-05 0)
(0.000320468 -7.9442e-06 2.68649e-23)
(5.54539e-05 6.44443e-06 -3.4633e-19)
(0.000812237 -6.91127e-06 0)
(0.000663977 2.8322e-05 3.1744e-19)
(0.000846161 2.76744e-05 2.20759e-18)
(0.000811486 3.91763e-05 -5.3741e-19)
(0.000800071 1.15225e-05 -3.15645e-19)
(0.00171353 0.000486992 5.4245e-19)
(0.000811118 3.24617e-05 -1.14588e-18)
(0.000838907 3.64474e-05 -5.23874e-19)
(6.97155e-05 -7.53365e-06 -1.73346e-19)
(0.000690469 0.00225785 0)
(0.000845573 4.94593e-05 0)
(0.000792746 2.72572e-05 -1.3924e-18)
(3.32866e-05 1.30856e-05 0)
(0.000293372 0.000262703 3.26745e-19)
(3.184e-05 -1.52381e-05 0)
(3.39341e-05 -5.47786e-06 1.59413e-19)
(5.78289e-06 -3.40038e-05 -3.36535e-20)
(0.000803699 7.91219e-05 2.46905e-19)
(3.85932e-05 8.11029e-06 0)
(0.000812643 5.55239e-05 4.47387e-19)
(0.000782225 0.000295804 2.10654e-19)
(0.000960638 6.85699e-05 -3.97637e-20)
(3.79637e-05 1.91187e-05 -4.51695e-20)
(3.40871e-06 -1.13022e-05 0)
(0.000443478 0.000210398 1.70129e-19)
(2.66845e-06 1.60644e-05 0)
(0.000806698 4.81316e-05 -6.07603e-19)
(0.000648464 -0.00011488 0)
(5.59715e-05 -4.95002e-06 -1.74414e-19)
(9.6626e-07 -1.59258e-05 0)
(0.000836767 0.000242412 -3.41134e-19)
(1.96655e-06 -6.22612e-06 0)
(0.000433046 0.000319203 -1.34627e-23)
(0.000545858 0.000107322 0)
(0.000816583 4.42975e-05 -3.09792e-24)
(2.14962e-06 9.52972e-06 -4.21556e-20)
(0.000474409 -2.92704e-05 1.76285e-18)
(0.00101795 7.36811e-05 4.15829e-20)
(0.000782539 4.73861e-05 6.41537e-22)
(0.000748139 0.000659872 2.69412e-19)
(6.88985e-06 3.83913e-05 0)
(-6.7672e-06 -1.70333e-05 -3.12164e-19)
(-3.74058e-05 -1.4878e-05 -1.10156e-18)
(5.07848e-06 6.38481e-05 -5.96153e-19)
(0.00059245 -2.93305e-05 0)
(9.20156e-06 8.70917e-05 0)
(0.000821185 3.49488e-05 2.18121e-18)
(0.000801492 3.77044e-05 1.53375e-18)
(0.000452534 -0.00011451 0)
(3.8867e-05 0.000206726 -8.95047e-19)
(1.31203e-06 0.000150069 4.9675e-19)
(5.58752e-05 0.000389166 6.25077e-19)
(0.000311854 6.44269e-05 -9.36874e-19)
(0.00080185 1.99413e-05 1.37368e-19)
(0.000256604 -7.33726e-05 5.31022e-19)
(4.18022e-06 2.41444e-05 0)
(1.8637e-05 0.000267812 -1.09384e-18)
(0.000326578 0.0003179 -1.61655e-19)
(-1.79581e-06 -1.21436e-05 1.46501e-19)
(0.000670136 0.000805085 0)
(0.000375134 0.000380347 5.74237e-20)
(0.000826161 2.9999e-05 1.07026e-18)
(0.000799739 1.7503e-06 -2.72468e-18)
(6.47305e-06 1.21741e-05 0)
(0.000658922 -4.17228e-05 -1.1227e-19)
(0.00032427 -0.000152254 1.24273e-18)
(0.00261922 0.000810317 -3.36496e-19)
(8.24707e-06 0.000116202 -6.13071e-19)
(8.80737e-06 0.000144233 1.61936e-18)
(0.000655088 2.57565e-05 -3.8966e-20)
(5.3371e-05 -1.65873e-05 -7.4988e-19)
(0.000812325 3.96366e-05 -3.9014e-19)
(0.000705929 2.77437e-05 -4.10429e-20)
(3.13922e-05 0.000314861 -5.96995e-19)
(0.000505172 5.07605e-05 -4.93759e-19)
(4.07291e-05 -4.4379e-06 1.56093e-19)
(0.000842669 4.20625e-05 -1.08709e-18)
(0.00153049 0.000235076 -1.13643e-18)
(5.23644e-06 5.12929e-05 4.9625e-19)
(0.000813639 3.73579e-05 -5.03339e-19)
(0.000925236 0.000555199 -7.84837e-20)
(0.000149997 0.000778447 0)
(0.000603085 6.19955e-05 0)
(0.00027856 3.88839e-05 -1.60895e-18)
(5.84139e-05 5.15433e-05 -1.3736e-18)
(2.66617e-05 1.72191e-05 0)
(0.00424779 0.00740097 -1.01968e-20)
(0.00422588 0.00737256 3.16646e-20)
(0.00442804 0.00757529 -4.98534e-21)
(0.00420549 0.00773341 0)
(0.00419795 0.00759923 5.77242e-19)
(0.00424474 0.00740205 -9.20354e-20)
(0.00420926 0.0080408 4.84483e-19)
(0.0042905 0.00742347 0)
(0.0042077 0.00853357 6.16787e-19)
(0.00432706 0.00745214 2.23947e-19)
(0.000836308 2.32462e-05 -1.3721e-18)
(0.00078519 6.22707e-05 0)
(0.00021014 3.67632e-05 1.27659e-19)
(4.4129e-05 1.2008e-05 8.71522e-20)
(7.19192e-05 3.71852e-05 6.79774e-19)
(9.82912e-05 3.15697e-05 -3.41546e-19)
(8.98241e-05 -2.85275e-06 0)
(4.11195e-05 2.61647e-06 8.18062e-20)
(0.000208054 0.00011929 0)
(0.000159427 2.64379e-05 -5.24142e-20)
(0.000348696 0.000213586 -5.09097e-21)
(5.07195e-05 3.68315e-05 -4.37494e-19)
(8.29703e-05 1.89602e-05 -8.52161e-20)
(8.48357e-05 5.30781e-05 1.31148e-21)
(0.000262358 0.000358797 -6.65976e-19)
(0.000110526 0.000990404 0)
(3.81391e-05 4.64816e-05 3.42938e-19)
(0.000199849 0.00173971 0)
(0.000209075 0.000244695 7.04443e-19)
(2.99565e-05 -2.9121e-06 1.11453e-19)
(0.000495363 0.000158767 -1.72245e-19)
(0.000777771 2.85869e-05 -1.92348e-18)
(3.57377e-05 -1.79819e-06 4.97014e-24)
(0.000139242 1.17838e-05 2.24513e-19)
(0.000246827 7.79711e-05 -8.99021e-20)
(0.000883412 0.000695023 3.34842e-19)
(0.00072704 0.00163466 -9.23287e-21)
(0.000395932 0.00141814 -9.37969e-21)
(0.00103149 0.000548236 0)
(8.88772e-05 -2.16479e-05 1.1183e-18)
(0.000105852 3.96284e-06 -4.42818e-20)
(0.00047446 -0.000268072 -1.136e-18)
(0.000825726 4.37416e-05 0)
(0.000174413 -1.85054e-05 3.63185e-19)
(0.000306329 0.00129671 0)
(0.00108949 0.000773693 -7.29977e-20)
(0.000826946 2.72023e-05 -1.86484e-19)
(6.43274e-05 -2.42771e-05 -2.99867e-19)
(0.000842682 0.000314344 -2.07973e-20)
(4.343e-05 -2.11033e-05 -5.99258e-19)
(0.000228069 0.00016422 8.63608e-20)
(0.000232263 0.000303069 -3.44904e-19)
(0.000899345 0.000253687 0)
(0.000827634 5.81359e-05 0)
(0.000267569 0.000120569 1.76789e-19)
(0.000231892 -1.98878e-05 8.07587e-24)
(0.000185205 0.000196478 0)
(0.000307621 0.000644448 -5.55537e-21)
(0.000363775 -3.3469e-05 0)
(0.000383016 0.000598141 0)
(0.00010343 7.21154e-05 -1.34622e-21)
(0.000810632 3.10899e-05 -9.57182e-19)
(0.000805158 1.67993e-05 7.96279e-19)
(0.000122719 4.57748e-05 -1.49803e-19)
(0.000974632 0.000145881 8.5008e-20)
(0.000841464 3.76267e-05 3.33541e-19)
(0.000822875 3.56711e-05 -2.93974e-19)
(0.00103423 0.000421539 0)
(0.000449922 0.000107301 6.24212e-19)
(0.00091534 0.000324076 2.09064e-20)
(0.000594186 0.000150013 0)
(0.000275628 0.000443179 4.09524e-19)
(0.000263403 0.000207172 -8.43913e-20)
(0.0011056 0.000385237 -7.81834e-19)
(0.000642268 0.000102438 -1.79225e-19)
(0.000823335 7.71152e-05 -7.45765e-21)
(0.000846085 2.24533e-05 9.39751e-20)
(5.0265e-05 -8.5172e-05 -1.98055e-18)
(0.000746815 0.000379456 2.19164e-19)
(0.000687849 6.97603e-05 2.30561e-20)
(0.000717718 0.000278908 1.62301e-23)
(0.000741269 0.00046182 -4.09547e-19)
(0.000854391 1.511e-05 9.06738e-20)
(6.74918e-05 7.07269e-05 0)
(0.000664171 0.000425252 -4.6577e-20)
(0.000181379 8.17182e-05 0)
(0.000374218 0.000501458 -2.64763e-19)
(0.000312897 0.000155977 0)
(0.000686893 0.000205722 3.55098e-19)
(0.000661178 0.00025948 -4.37098e-20)
(7.89215e-05 9.61187e-05 6.18936e-19)
(0.000887317 9.73976e-05 -1.63848e-18)
(5.12172e-05 1.72324e-05 2.57096e-19)
(0.000900047 7.39995e-05 -1.68591e-18)
(0.000850791 9.11309e-05 1.63026e-19)
(0.000815342 3.7807e-05 1.91198e-18)
(0.000822612 3.29301e-05 -1.32797e-19)
(0.000747772 7.0338e-05 0)
(0.000805148 1.9213e-05 8.95638e-19)
(0.000974595 0.000238609 -4.26937e-19)
(0.000790759 0.000101358 -4.83559e-19)
(0.000784106 0.000238147 -8.80895e-20)
(0.000193456 -0.000197916 -2.07468e-18)
(0.000765822 8.20923e-05 8.87208e-19)
(0.00064476 0.000591143 0)
(5.50105e-05 -0.000122858 0)
(0.0012307 0.000476864 4.97127e-19)
(0.000544859 -5.5213e-05 -3.27053e-18)
(0.00135623 0.000418372 5.7624e-19)
(0.00125528 0.000720167 -6.38805e-20)
(0.00081753 3.46828e-05 -2.12675e-19)
(0.000844647 6.66264e-05 -1.42779e-18)
(0.000814297 2.76524e-05 1.58712e-18)
(0.000814658 2.0081e-05 9.77694e-20)
(0.000676392 0.000353387 -4.40254e-20)
(9.84863e-05 0.000112195 9.54332e-24)
(0.00076744 -2.80679e-05 2.64886e-19)
(0.000206756 -0.000258379 -7.30915e-19)
(0.00064221 0.000182098 0)
(0.000727906 5.14288e-05 9.90006e-20)
(0.000722588 9.75814e-06 -3.80664e-19)
(0.000397894 0.000161954 3.93231e-20)
(0.000813695 0.000510575 -1.65422e-19)
(0.000144194 6.30421e-05 4.24261e-25)
(0.000821625 0.000412855 0)
(0.000991081 0.000315608 4.15614e-20)
(0.000770817 -5.95547e-05 -6.15867e-19)
(0.000356609 9.17627e-05 4.97659e-19)
(0.000905765 0.00042792 0)
(4.38872e-05 2.64175e-05 1.33661e-19)
(0.000496347 0.000260714 2.13878e-19)
(0.000550969 -0.000172957 -7.09154e-19)
(8.95766e-05 -0.000176202 -1.05568e-18)
(0.00082715 4.14848e-05 -4.86519e-19)
(0.000759202 -6.07152e-05 -1.94541e-19)
(0.000551651 0.000728579 -1.17404e-18)
(0.000856373 4.58735e-05 -6.74178e-20)
(0.00055998 -9.14864e-06 1.28226e-18)
(0.000720523 9.94695e-05 2.27692e-20)
(0.000545931 0.000202999 -1.65629e-19)
(2.29382e-05 -1.83111e-05 -8.75515e-20)
(0.000147602 -6.26346e-05 2.40509e-18)
(1.17718e-05 5.19966e-07 -1.94784e-19)
(0.000844821 0.000119838 3.63608e-19)
(0.000684004 0.00013471 0)
(0.000167884 -0.000114374 -1.04781e-18)
(0.00010967 -2.88755e-05 3.12677e-19)
(8.9975e-05 -4.19282e-05 1.93971e-23)
(0.000812428 0.00010564 -3.19143e-19)
(0.000143453 -2.50578e-05 0)
(0.000598426 0.000237658 0)
(0.000111388 0.000321089 -3.62738e-19)
(0.000870232 0.000101835 2.10764e-18)
(9.56706e-06 6.77104e-07 0)
(0.000890014 5.18434e-05 0)
(3.4077e-05 -2.44884e-05 0)
(0.00081518 4.90429e-05 -4.46634e-21)
(0.000781671 -2.71434e-05 0)
(0.00426091 0.00740771 8.07154e-20)
(0.00436297 0.00748819 1.4365e-19)
(0.000842546 -1.89659e-05 0)
(0.000799727 -3.24216e-05 8.11681e-19)
(0.000151313 0.000113889 1.49159e-19)
(0.000864123 6.66032e-05 8.08082e-19)
(0.000126148 9.13171e-05 2.34313e-20)
(0.000793841 -1.91627e-05 6.23972e-19)
(3.00067e-05 7.6274e-06 0)
(2.15202e-05 -1.10324e-05 -4.48307e-20)
(0.000908493 4.7042e-05 -4.8636e-19)
(2.36168e-05 -2.75495e-05 -6.69544e-19)
(0.000771411 0.000127388 -4.23076e-20)
(0.000169329 0.000151594 -1.88037e-19)
(0.000813635 3.2176e-05 0)
(0.00468253 0.00815358 9.00872e-22)
(0.000195132 0.000791894 3.33357e-19)
(9.51873e-05 -6.87499e-05 -9.14182e-19)
(4.83378e-05 -3.4473e-05 -1.16834e-18)
(0.000586337 1.30129e-05 1.89603e-20)
(0.000586067 0.000403331 0)
(0.000426119 0.000445808 -2.5625e-19)
(6.32851e-05 -6.45786e-05 1.18329e-18)
(0.00054834 -1.59474e-06 7.67697e-20)
(3.60113e-05 8.69841e-07 4.06937e-19)
(0.000726929 -4.08468e-05 1.17114e-18)
(0.000812924 3.23711e-05 -6.04889e-19)
(4.67189e-05 -5.3517e-05 1.70883e-18)
(0.000841015 -4.39367e-05 -6.31077e-24)
(0.000562469 6.08426e-06 -3.74964e-20)
(0.000878706 7.22315e-05 0)
(0.000846836 5.26958e-05 0)
(0.00591536 0.00724356 2.59926e-19)
(1.19742e-05 -3.03896e-06 -1.19552e-19)
(9.09936e-05 -0.000117301 7.72763e-19)
(0.00074003 0.000114102 -6.96165e-19)
(1.45277e-05 2.83923e-07 2.01474e-19)
(0.000655831 -3.58754e-05 -7.23515e-19)
(0.000757259 3.54217e-05 1.55742e-18)
(0.000717148 0.000157024 -3.55306e-19)
(0.000807295 -1.14963e-05 3.6075e-19)
(6.11843e-05 -3.71618e-05 1.11555e-18)
(0.000801749 6.50034e-06 -3.22566e-19)
(0.000875674 3.53733e-05 0)
(0.000552145 0.000301257 4.20871e-20)
(0.000868654 4.9149e-05 -9.47379e-19)
(1.27539e-05 2.93234e-06 9.11221e-19)
(0.000862348 4.05705e-05 9.65928e-19)
(0.000863964 2.66936e-05 -9.64272e-19)
(0.000767308 1.36186e-06 -5.68942e-19)
(0.000551981 -8.46222e-05 -5.25432e-19)
(0.00432998 0.00745434 2.47585e-19)
(0.0042221 0.00752823 -2.78887e-19)
(0.00422038 0.0075858 2.66814e-19)
(0.00425652 0.00741148 1.98009e-19)
(0.000845144 -3.83814e-05 1.44215e-19)
(0.00447701 0.00751502 0)
(0.00440438 0.00751885 -3.86961e-19)
(2.07069e-05 -1.4602e-07 -9.97857e-19)
(0.00417005 0.00746844 -6.33753e-20)
(0.00414555 0.00743173 -2.21547e-19)
(0.00602919 0.0106048 0)
(0.00654023 0.0111868 3.71551e-20)
(0.00600911 0.0105746 0)
(0.00655593 0.0112104 1.3096e-19)
(0.00599653 0.0105986 2.6967e-19)
(0.00659263 0.0112273 1.24709e-20)
(0.00593542 0.0106112 -7.76755e-19)
(0.0066229 0.0111463 8.16245e-21)
(0.00390341 0.00919731 -1.90797e-19)
(0.00418624 0.00748764 3.87495e-21)
(0.00423706 0.00755108 7.93713e-20)
(0.00415004 0.00743403 4.12102e-20)
(0.000896383 0.000196774 4.46565e-20)
(6.57892e-06 9.11717e-07 0)
(0.00072841 -0.00010025 0)
(0.000657174 5.76216e-05 0)
(0.00244597 0.00111863 4.233e-21)
(0.000758828 -3.03297e-05 1.72511e-19)
(3.47709e-05 4.18201e-06 4.53886e-20)
(5.17466e-06 -2.10277e-05 1.65232e-18)
(0.000863217 4.03598e-06 0)
(2.39674e-05 1.03802e-05 -1.91656e-19)
(0.000139056 0.000215197 0)
(1.06894e-05 -7.90393e-07 0)
(8.2516e-06 -8.69494e-07 0)
(0.000838458 0.000149395 1.13728e-20)
(0.000811039 -1.80329e-05 1.79534e-19)
(3.85435e-05 0.000255778 -9.07973e-24)
(0.000156234 0.000266171 -1.84135e-18)
(0.000613054 0.000325818 -8.56716e-20)
(0.000903667 0.000114332 6.01972e-19)
(0.00059477 -0.000148688 6.74633e-19)
(0.000358124 0.00111606 0)
(0.000482703 0.000575364 2.7145e-18)
(8.80502e-05 0.000137404 -1.80254e-18)
(1.41317e-05 -2.76167e-07 0)
(0.000822779 -6.41198e-05 3.6405e-20)
(1.36083e-05 3.09198e-05 1.64389e-18)
(0.000893794 3.60514e-05 2.71028e-19)
(-3.19858e-05 8.18619e-05 3.81098e-18)
(0.000925662 4.20328e-05 -2.68898e-19)
(0.00133365 0.000155617 7.47164e-19)
(2.81901e-05 -9.40546e-06 8.25396e-20)
(2.99519e-05 2.11738e-06 -8.58794e-19)
(5.07387e-05 0.000133724 0)
(0.00092086 8.9927e-05 5.98191e-19)
(0.000499795 0.000366437 2.3707e-19)
(0.000610645 1.72146e-05 -3.88903e-20)
(0.000789163 6.24292e-06 2.57262e-19)
(0.00072845 -0.000136164 0)
(0.0063203 0.0108956 -1.68154e-19)
(0.00637867 0.0109729 4.05904e-19)
(0.00616001 0.0107299 -6.18477e-19)
(0.00650123 0.011132 -8.1e-20)
(3.14272e-05 0.000111401 8.00263e-19)
(0.000930792 6.18927e-05 1.44596e-22)
(0.00641129 0.0110055 -3.86527e-19)
(0.00628134 0.0108454 5.48373e-19)
(0.00608005 0.0106717 -4.16811e-19)
(0.00652175 0.0111645 -6.81588e-20)
(7.86598e-05 0.000489179 -2.01763e-20)
(4.4485e-05 -0.00018999 -7.92592e-19)
(0.000636563 -1.95519e-05 -7.66631e-19)
(0.000732298 0.000219428 0)
(0.000800307 1.94714e-07 0)
(0.00018988 0.000385041 3.362e-19)
(0.000603852 0.000510816 -5.41702e-19)
(5.14044e-06 -9.07641e-07 1.78329e-19)
(0.000200172 0.000466403 -7.38184e-19)
(0.00102379 0.000980265 -1.1267e-19)
(0.000755414 0.000166562 0)
(0.00079676 0.000184885 1.30975e-19)
(0.00634894 0.00588348 1.13195e-18)
(0.000735639 0.00113124 8.26458e-20)
(3.49797e-05 3.38508e-05 -7.44421e-20)
(0.000807926 1.1036e-05 0)
(0.000870065 2.2265e-05 -3.56786e-20)
(2.85622e-05 1.96726e-06 -1.96665e-19)
(2.49516e-05 3.29073e-06 1.92933e-19)
(0.000834893 1.20941e-05 5.37018e-19)
(0.000986856 0.000114313 6.58039e-19)
(0.000533561 4.70496e-05 0)
(0.000221144 -0.00026524 -3.98146e-19)
(0.000921206 0.000142965 3.89446e-19)
(1.90293e-06 -4.50019e-05 2.02912e-19)
(0.00145444 0.000443099 -2.58021e-18)
(0.000558161 -1.38254e-05 0)
(0.000801705 0.000141982 3.75336e-19)
(9.63999e-05 0.000385866 0)
(0.00118883 0.00816148 4.6203e-19)
(0.000498032 0.000497088 -1.22419e-18)
(0.000540697 0.00101811 -1.83704e-19)
(0.000889211 1.32995e-05 -1.46006e-19)
(1.05022e-05 2.18135e-05 0)
(0.000963147 7.84223e-05 6.11392e-19)
(0.00410614 0.007395 8.14489e-20)
(0.00417088 0.00747296 4.73213e-20)
(0.00450079 0.00751769 4.54094e-19)
(0.00444595 0.00754348 -3.29102e-19)
(0.00647514 0.011109 8.10772e-20)
(0.00391482 0.007146 -9.50358e-22)
(0.00550762 0.00780046 -5.64757e-19)
(0.00409785 0.00737154 5.21926e-21)
(0.00518893 0.00786024 5.11693e-19)
(0.00407963 0.00733991 -4.87424e-20)
(0.00495428 0.00771979 0)
(0.00408486 0.00736418 -8.5687e-20)
(0.00474314 0.00759064 4.92536e-19)
(0.0040981 0.00737577 8.75391e-20)
(0.00457587 0.00753026 0)
(0.00428446 0.00742194 1.39772e-19)
(0.00423856 0.00759734 5.80388e-19)
(0.00446845 0.00752899 -5.54393e-19)
(0.00438861 0.00750628 3.71374e-19)
(0.00422722 0.00752416 3.22898e-19)
(0.00643047 0.0110423 -4.97651e-21)
(0.00411757 0.00740109 3.11674e-20)
(0.00645862 0.0110722 0)
(2.01088e-05 4.35127e-06 -1.89794e-19)
(0.0020018 0.00654701 2.28164e-19)
(0.000838209 -6.06729e-05 1.09634e-19)
(0.000852096 1.15289e-06 0)
(6.87729e-07 4.3178e-07 -3.9897e-19)
(-3.43188e-05 -7.75286e-05 6.90932e-19)
(2.30493e-05 5.16208e-05 2.08832e-18)
(0.000839246 0.000187393 -9.00368e-20)
(0.000801626 8.28639e-06 7.06147e-19)
(1.02693e-07 1.15909e-07 3.09875e-19)
(1.29595e-05 -2.76396e-05 -1.84494e-18)
(0.000763641 2.66025e-05 1.63097e-19)
(0.000873573 0.000125707 -3.07875e-20)
(0.00080106 -7.01762e-06 1.48081e-19)
(0.000434756 0.000678823 0)
(4.435e-06 -0.000131915 1.15096e-18)
(0.000875456 -5.84616e-07 1.52477e-19)
(1.77861e-05 2.08368e-05 0)
(0.000120074 0.000553205 -6.31095e-19)
(0.000614459 0.000584114 1.31757e-18)
(0.000333868 0.000757728 0)
(0.000802153 -1.43505e-05 0)
(0.000801822 3.09644e-06 1.17679e-18)
(1.48294e-05 4.42447e-05 -3.51379e-18)
(1.3772e-05 5.5017e-06 3.73493e-19)
(0.000116522 0.000136384 0)
(3.37558e-05 -3.82015e-05 0)
(5.86441e-05 0.000105841 2.00932e-19)
(0.000943451 0.000190543 3.50306e-19)
(0.000801204 1.4861e-05 -1.39376e-18)
(2.05069e-05 2.93072e-05 0)
(0.000410735 2.77275e-06 -6.04525e-20)
(0.000799686 3.54958e-05 -1.56299e-19)
(0.000850717 4.82821e-05 1.06509e-18)
(0.000252999 0.000542389 6.32054e-19)
(0.000884852 0.000157982 0)
(1.29037e-05 -1.91713e-05 5.38416e-19)
(1.31336e-06 -2.11715e-06 -3.19851e-19)
(0.000942829 3.48627e-05 0)
(0.00104847 0.00227069 0)
(0.000903717 2.89999e-06 0)
(0.00100803 0.000209001 4.2702e-19)
(0.000818792 -3.72987e-05 -2.84179e-19)
(0.000943332 0.000113389 -6.84525e-19)
(0.000801211 3.66841e-06 0)
(4.00074e-05 6.27999e-05 -1.71509e-19)
(0.000174752 0.000322269 1.08082e-18)
(0.000800998 1.36048e-05 -2.52365e-23)
(0.00110764 0.000209151 -6.68494e-19)
(0.00108819 0.000129378 0)
(1.81656e-06 3.72104e-06 2.50941e-19)
(1.39274e-05 -1.21918e-05 -1.94245e-19)
(0.000551925 4.79173e-05 6.94794e-21)
(-8.13342e-06 -5.88871e-05 0)
(0.00107669 0.000257186 9.49619e-19)
(0.00502874 0.00974819 -2.82876e-19)
(0.00312154 0.0096167 1.27234e-18)
(1.50777e-05 -9.14976e-05 -1.91252e-19)
(3.56838e-05 -7.00584e-05 1.85875e-18)
(0.00119145 0.000258598 1.67286e-19)
(0.00133165 0.0010757 2.34025e-19)
(0.000810561 3.25982e-06 -7.36546e-19)
(0.000199481 0.000948896 -2.38184e-19)
(0.00081951 0.000946547 -2.18525e-19)
(0.000800361 -2.00772e-06 0)
(8.16301e-05 0.000609491 0)
(9.43285e-05 0.000276386 -3.53201e-23)
(0.000720013 -4.78292e-05 -1.67352e-23)
(0.000827275 6.95633e-05 1.52553e-19)
(0.00263245 0.00206731 -1.23115e-18)
(0.00176069 0.00923803 -1.17183e-19)
(0.000834207 7.15952e-05 4.92108e-19)
(0.00631856 0.0040532 -1.76188e-19)
(0.00672084 0.0115571 -1.366e-20)
(0.00473406 0.00784376 4.93505e-21)
(0.000805794 1.35754e-05 -2.16564e-18)
(0.000843513 2.63678e-07 7.80826e-24)
(5.14685e-06 -5.22869e-06 -3.47895e-19)
(4.49812e-05 8.2835e-05 -3.49163e-19)
(6.17497e-05 0.000259946 8.75022e-19)
(8.68237e-06 1.35031e-05 4.90239e-19)
(8.977e-05 0.000222338 3.69655e-19)
(0.000819344 1.48016e-05 0)
(0.00534819 0.00949236 1.94932e-20)
(0.00154772 0.000638921 -2.6114e-20)
(0.000819221 4.04986e-05 3.60056e-19)
(1.46276e-05 -7.16522e-05 0)
(0.00184851 0.000750002 5.45877e-19)
(7.14955e-06 5.73954e-06 -2.70063e-19)
(3.047e-05 2.48617e-05 9.71492e-20)
(0.0013358 0.00139856 6.36518e-19)
(0.000739541 4.97918e-05 1.83044e-19)
(1.72541e-06 -7.19536e-07 -1.70142e-19)
(0.00206509 0.0015633 -1.05561e-18)
(0.000126778 0.000171004 -8.18519e-19)
(0.00392018 0.00848843 -1.09072e-18)
(3.13397e-06 9.41067e-07 8.8113e-20)
(9.51948e-05 -4.11032e-05 -1.25813e-18)
(3.45284e-05 -5.33734e-05 4.05499e-20)
(0.00153207 0.000988483 0)
(0.0010435 0.00014133 -4.00782e-22)
(0.000454929 0.000846033 -4.01956e-20)
(0.000803454 2.76136e-05 -2.34e-19)
(8.68994e-05 0.000177391 7.35845e-19)
(1.88463e-05 -5.2792e-05 4.03854e-19)
(1.60756e-05 1.29257e-05 -9.46783e-20)
(2.8352e-05 8.45835e-05 -3.20186e-19)
(0.000215378 -0.000167107 -5.45574e-19)
(0.00325106 0.00346753 2.90016e-21)
)
;

boundaryField
{
    back
    {
        type            empty;
    }
    ingreso
    {
        type            fixedValue;
        value           uniform (0.0008 0 0);
    }
    salida
    {
        type            zeroGradient;
    }
    front
    {
        type            empty;
    }
    defaultFaces
    {
        type            noSlip;
    }
}


// ************************************************************************* //
