/*--------------------------------*- C++ -*----------------------------------*\
  =========                 |
  \\      /  F ield         | OpenFOAM: The Open Source CFD Toolbox
   \\    /   O peration     | Website:  https://openfoam.org
    \\  /    A nd           | Version:  8
     \\/     M anipulation  |
\*---------------------------------------------------------------------------*/
FoamFile
{
    version     2.0;
    format      ascii;
    class       surfaceScalarField;
    location    "8.4";
    object      phi;
}
// * * * * * * * * * * * * * * * * * * * * * * * * * * * * * * * * * * * * * //

dimensions      [0 3 -1 0 0 0 0];

internalField   nonuniform List<scalar> 
15173
(
6.63948e-09
-5.84878e-09
-2.32153e-10
-5.58548e-10
5.0796e-09
-1.61676e-10
1.01454e-10
-5.01938e-09
-3.59116e-11
5.23158e-09
-5.18364e-09
-1.2023e-11
8.52512e-09
-3.47908e-10
6.20325e-10
-8.79753e-09
-6.12763e-09
6.42882e-09
-2.46016e-10
-5.51692e-11
7.39584e-10
-9.27563e-09
9.04595e-09
-5.09904e-10
-4.29303e-09
-7.85488e-10
1.1436e-09
3.93492e-09
5.38105e-09
-5.40243e-09
4.01756e-10
-3.80375e-10
-2.03944e-09
2.1635e-09
6.14327e-11
-1.85498e-10
6.97534e-10
-3.38395e-10
4.60139e-09
-4.96053e-09
5.23738e-09
-5.26619e-09
6.86693e-11
-3.9858e-11
6.92615e-09
-6.86919e-11
-2.1797e-10
-2.57181e-09
2.45811e-09
-1.8636e-09
1.9773e-09
5.21949e-09
-5.17821e-09
2.9527e-10
-3.36551e-10
-4.82046e-09
5.07429e-09
6.59651e-11
-3.19799e-10
2.59153e-09
-2.8568e-09
2.65262e-10
5.21549e-09
1.13611e-10
-9.17155e-11
-4.0283e-10
-1.23609e-10
-4.29402e-09
8.2999e-10
-7.49527e-10
-8.04622e-11
-2.86962e-09
-8.86251e-10
1.37233e-09
2.38354e-09
2.07521e-09
-4.8327e-11
-2.10174e-09
7.48545e-11
-3.27485e-09
2.90942e-09
3.1714e-09
-2.80597e-09
-5.25633e-09
4.52117e-11
-5.50721e-11
6.09249e-09
4.4335e-10
-6.32076e-09
-2.15076e-10
7.0889e-09
6.57718e-10
-7.25716e-10
-7.0209e-09
-1.5358e-10
4.97767e-11
-5.58017e-11
1.59605e-10
5.23678e-09
-7.42252e-09
2.702e-09
-5.16262e-10
-1.9764e-09
3.51539e-09
-2.24402e-09
7.05031e-10
8.0099e-09
-6.04073e-09
5.097e-10
-2.47886e-09
-2.75496e-10
8.13568e-10
7.98704e-09
-5.95711e-09
-5.08395e-09
7.74063e-09
3.30044e-09
6.0111e-09
4.91171e-10
-8.78973e-11
-6.41437e-09
7.75132e-09
2.66445e-09
-8.8131e-09
-1.60267e-09
8.60379e-10
-1.22704e-09
5.33534e-09
-4.96868e-09
4.90659e-09
1.49053e-10
-4.93761e-09
-1.1803e-10
4.93975e-09
1.42461e-09
-6.36149e-09
-2.86842e-12
4.95988e-09
-5.11238e-09
-9.54121e-11
2.47917e-10
-5.18687e-09
-6.89822e-09
3.13634e-09
8.94875e-09
-1.26875e-09
-8.70064e-09
8.30583e-09
1.66356e-09
-6.36581e-09
1.79541e-09
-2.87943e-10
4.85834e-09
5.17257e-09
-1.09853e-10
1.15803e-11
5.33344e-09
6.84498e-10
-5.07251e-10
-5.51069e-09
-6.58528e-09
6.54532e-09
-7.81093e-12
4.77671e-11
5.03215e-09
1.2508e-11
3.49455e-11
-1.84445e-09
1.91151e-10
-3.86138e-10
-3.5921e-09
1.78144e-10
-2.94363e-10
3.70832e-09
-1.26646e-10
8.98075e-11
2.73953e-09
1.58975e-10
-3.72097e-09
8.22463e-10
-5.61369e-09
-6.78612e-11
5.64564e-09
-1.1664e-10
2.99754e-10
-2.71867e-10
8.87543e-11
-1.69935e-09
-2.54945e-09
1.67699e-09
4.95548e-09
1.25221e-10
-4.85508e-11
6.19788e-09
2.94434e-10
-5.85859e-09
-6.33732e-10
6.73329e-10
-5.78942e-09
5.96151e-09
-8.4542e-10
-8.67721e-09
2.18188e-09
6.73004e-09
-2.3471e-10
8.052e-10
-7.32186e-10
5.80878e-11
-1.31102e-10
-8.61244e-10
7.31517e-10
-2.91962e-09
3.04935e-09
5.28826e-10
-5.39615e-09
8.474e-10
4.01992e-09
-6.48762e-09
6.60887e-09
-2.07175e-10
8.59273e-11
-1.69685e-09
-7.48371e-10
1.82752e-09
6.17701e-10
6.469e-09
-6.52692e-09
-3.5223e-11
9.31444e-11
-7.12232e-09
6.28567e-09
3.52303e-09
-2.68638e-09
-1.91155e-09
3.68017e-09
-3.64091e-09
1.87229e-09
3.65638e-09
4.98712e-09
-1.5795e-09
-7.064e-09
-7.5393e-09
1.59496e-10
4.22659e-10
6.95715e-09
2.85076e-11
7.10523e-09
-6.64973e-11
-7.06724e-09
6.54637e-09
-6.53585e-09
1.79889e-11
-1.03143e-10
-5.98191e-10
8.2902e-11
6.18432e-10
1.99448e-09
-6.06336e-10
-5.68118e-09
7.52921e-11
-4.72189e-11
6.44092e-09
2.69692e-09
-2.62814e-09
-2.38094e-09
2.31216e-09
5.2599e-09
-1.98057e-10
-5.2095e-09
1.4766e-10
-3.35763e-10
1.22323e-09
7.20826e-09
-8.09573e-09
-1.68361e-09
8.89989e-10
-9.03226e-10
2.68111e-09
2.058e-09
-2.04219e-09
-3.92922e-09
3.88816e-09
4.10645e-11
2.864e-12
-1.68674e-11
-6.57127e-09
-5.09389e-11
6.93407e-11
-1.35864e-10
-5.50645e-09
6.39393e-10
5.00292e-09
-2.22473e-09
4.27908e-09
7.30234e-09
-3.47277e-09
-3.46241e-09
4.39736e-09
2.53782e-09
-7.1708e-09
7.40644e-09
-3.46832e-10
1.11191e-10
-1.01586e-09
8.9253e-10
-5.05488e-09
-3.59832e-09
4.50262e-09
3.52992e-09
-4.43422e-09
4.44667e-09
-4.09947e-09
-3.47201e-10
5.01335e-09
-1.19345e-10
-3.64712e-09
-1.24688e-09
2.09397e-09
3.88826e-09
-3.89796e-09
-2.08428e-09
-6.4091e-09
6.43548e-09
-3.24334e-11
6.05666e-12
-5.24002e-09
2.92085e-09
-2.62933e-09
4.9485e-09
1.85212e-09
-3.41144e-09
-5.68758e-10
2.12807e-09
1.7026e-09
5.44352e-11
3.18172e-10
-5.01248e-09
5.02864e-09
1.88404e-11
-3.49913e-11
7.04935e-11
4.87188e-10
-8.771e-11
-4.69971e-10
-6.40063e-09
-5.36306e-09
5.80658e-09
1.34205e-09
4.4292e-09
-4.15448e-09
-1.61677e-09
-4.94046e-09
2.40204e-09
-4.65594e-09
7.19436e-09
-1.87022e-10
6.3595e-10
-4.90932e-10
4.20035e-11
3.36313e-09
-5.22328e-09
-3.12263e-09
4.98279e-09
-3.20442e-09
3.32175e-09
2.41923e-09
-2.53656e-09
2.43061e-11
-3.95353e-09
6.44528e-09
1.44424e-09
-1.76167e-09
-6.12784e-09
6.42052e-09
-3.31568e-09
-4.13583e-09
1.03099e-09
4.80654e-09
1.63953e-09
-2.1332e-09
-4.31287e-09
7.94373e-09
8.87093e-10
-7.31443e-09
-1.51639e-09
3.10849e-09
2.66932e-10
-6.75311e-10
-2.70011e-09
7.761e-09
-8.09677e-09
-4.24087e-10
6.95137e-11
4.25066e-10
-2.60235e-09
-2.57351e-09
2.54773e-09
5.51916e-09
-4.76275e-09
-4.67387e-09
3.91747e-09
-4.75128e-09
4.64823e-09
1.96189e-10
-9.31455e-11
5.70336e-09
-5.43961e-09
4.92852e-09
-5.19227e-09
-1.91039e-09
1.71365e-09
4.80168e-09
-4.60494e-09
-7.37527e-09
-2.65797e-09
2.91093e-09
5.29363e-09
-9.38192e-11
5.97052e-12
-5.20578e-09
2.86021e-09
-3.92474e-10
1.30378e-09
-3.77151e-09
6.65967e-09
-5.94396e-11
-1.38081e-11
-6.58642e-09
-5.70846e-09
-2.69757e-09
3.16601e-09
-6.92034e-09
5.66459e-11
6.90276e-09
-3.90674e-11
-1.31986e-10
9.89427e-10
2.25105e-09
-4.92946e-09
4.95786e-09
3.33738e-11
-6.17755e-11
-7.52278e-10
-5.43407e-09
5.87153e-11
-6.55781e-09
-6.09054e-10
8.07717e-10
6.35915e-09
1.93833e-10
5.36138e-09
-4.32513e-10
-5.1227e-09
2.95625e-10
5.9185e-09
-6.06866e-09
-1.45458e-10
3.92483e-09
-3.46652e-09
-1.66564e-09
1.20733e-09
-3.15736e-09
9.70035e-12
2.28641e-09
-5.46361e-09
-3.51842e-10
4.92057e-09
8.94884e-10
-7.03835e-10
7.88557e-10
-4.13808e-09
4.05335e-09
-1.52008e-09
6.68375e-10
-4.15641e-09
5.00811e-09
1.13144e-09
-8.97423e-09
8.58237e-09
-4.99098e-09
3.5006e-11
-5.65142e-11
3.26093e-09
-2.51636e-09
1.80106e-09
-2.54563e-09
1.67647e-09
-1.11244e-09
-3.61232e-09
3.04829e-09
-6.22514e-09
-8.5345e-10
6.32631e-09
-4.95397e-09
-1.9225e-10
4.95377e-11
5.09668e-09
4.80797e-09
2.62325e-10
-1.10412e-10
9.41436e-09
8.89624e-10
-9.03159e-09
-1.27239e-09
-2.18375e-09
-3.87407e-09
4.22149e-09
1.83633e-09
1.09355e-10
-4.9174e-11
-6.41928e-09
5.29269e-12
4.88801e-12
3.12669e-09
2.86764e-09
-2.0695e-09
-5.69828e-10
5.55303e-10
-4.87114e-09
4.88567e-09
-4.74636e-09
3.72687e-09
-3.77982e-10
1.39747e-09
1.11565e-08
-6.62206e-09
-7.33615e-09
2.80176e-09
-6.53217e-11
5.26176e-10
2.63333e-11
7.44584e-09
-2.34776e-09
1.77307e-09
-6.87116e-09
1.26042e-09
5.2581e-09
-1.18508e-09
-4.77336e-09
-2.87526e-10
1.0691e-10
5.92142e-09
-5.52761e-09
2.25408e-09
-2.64789e-09
-4.35313e-09
-8.47225e-10
4.49652e-09
5.8169e-09
-6.95343e-09
-1.33909e-10
1.27044e-09
-3.31543e-09
-3.16101e-09
2.74661e-09
3.72982e-09
5.00095e-09
-2.74719e-09
-3.38803e-09
1.13428e-09
-4.8361e-09
4.8664e-09
3.40839e-11
-6.43813e-11
6.51141e-09
-1.04157e-11
-3.91334e-12
-6.49708e-09
-4.73215e-09
4.73145e-09
-1.98479e-11
2.05464e-11
9.8979e-10
-1.76548e-09
-2.23672e-09
3.01241e-09
-5.17068e-10
2.52188e-09
1.25611e-09
-5.24194e-09
5.23694e-09
-2.06583e-11
2.56586e-11
-5.37889e-09
5.56523e-09
-2.3853e-10
5.21946e-11
-1.12652e-09
3.79197e-09
-5.88156e-10
-2.07729e-09
-4.78283e-09
4.76661e-09
-2.93894e-11
4.56142e-11
1.97497e-09
7.1243e-09
-7.4344e-09
-1.66487e-09
-4.85103e-09
4.82564e-09
-3.43841e-11
5.97765e-11
-5.20888e-09
5.17332e-09
-3.18921e-11
6.74539e-11
5.33389e-09
2.75702e-10
-2.28545e-10
4.09736e-09
-4.15433e-09
-3.54135e-09
1.45468e-09
-2.0951e-09
-1.06157e-08
5.10457e-10
-5.6437e-09
-3.8489e-10
5.51814e-09
-4.90974e-09
4.89366e-09
-2.97178e-11
4.57935e-11
-5.29805e-09
5.26607e-09
1.84003e-10
-1.5202e-10
-5.11422e-09
5.08457e-09
-3.13115e-11
6.09661e-11
-4.94875e-09
4.93758e-09
-2.53213e-11
3.64904e-11
2.85154e-09
-4.04133e-09
2.14877e-09
-9.58976e-10
-5.02291e-09
5.00081e-09
-3.17956e-11
5.38966e-11
-1.22788e-09
2.83092e-09
-2.72956e-09
-2.11327e-10
-4.40807e-09
4.61939e-09
-2.16576e-09
6.74819e-10
-6.12084e-10
2.10303e-09
-1.72957e-11
3.89398e-09
-3.87669e-09
-3.99214e-11
-3.63525e-11
7.00242e-09
-1.68044e-10
4.61472e-09
3.30684e-09
2.84598e-09
-2.98559e-09
-3.16723e-09
-1.8517e-09
9.13039e-10
-9.8566e-10
1.92432e-09
2.10084e-12
-1.2467e-11
-4.71116e-09
5.53686e-11
-1.48959e-10
4.80475e-09
3.11969e-09
-2.68075e-09
1.65773e-09
-2.09666e-09
-4.06141e-10
7.25153e-11
-9.04605e-11
-5.57203e-09
4.26269e-09
-6.01047e-10
3.67014e-09
-3.64995e-09
-2.01898e-11
-3.70721e-09
3.81595e-09
1.74338e-09
5.23221e-09
5.02096e-11
-2.2519e-11
-1.94433e-10
-2.80528e-09
2.99971e-09
8.4428e-09
-5.43211e-09
-3.46288e-09
4.52191e-10
1.86221e-09
2.1352e-10
-3.30361e-09
-3.31906e-11
2.0333e-10
5.04452e-09
-5.21466e-09
-1.01684e-09
1.08951e-09
9.8562e-10
-1.05829e-09
-3.23533e-11
2.54177e-10
-2.39417e-11
-1.97882e-10
-1.11361e-09
-3.36688e-09
1.61087e-09
-6.41227e-09
-2.94661e-12
-4.06908e-12
-4.60688e-09
-3.70446e-10
2.03967e-10
4.86026e-09
-8.15825e-11
1.76805e-10
2.91082e-11
-8.12495e-11
6.28155e-11
-2.76437e-11
4.99346e-09
-2.1595e-10
2.01544e-10
-6.46313e-09
6.47753e-09
-7.39556e-11
-4.73058e-09
4.80454e-09
-8.86793e-10
8.69592e-10
-9.99636e-10
6.88936e-09
-4.1998e-10
1.39488e-10
6.2895e-10
-1.1618e-10
-1.88603e-09
1.37326e-09
7.60375e-11
1.65529e-10
-6.43794e-11
-1.77187e-10
-4.89204e-09
2.62503e-11
-6.36702e-11
2.66485e-09
-2.4298e-09
-5.8471e-09
5.61204e-09
1.99494e-10
-9.05134e-11
2.08025e-09
-1.7174e-09
-3.62851e-10
-1.57181e-09
9.55937e-10
7.70477e-09
-6.43494e-09
-5.26005e-11
6.47024e-09
-5.00607e-10
2.92563e-10
-4.39883e-09
-1.30828e-09
1.80962e-09
-5.24769e-09
-6.35359e-09
6.28605e-09
-1.48408e-10
1.37898e-11
1.44642e-11
-2.82541e-11
-6.4553e-09
7.11767e-10
6.41687e-09
-5.06903e-09
1.44434e-09
2.85912e-09
7.65567e-10
5.10915e-09
5.18889e-10
-4.1173e-09
-1.51074e-09
6.0446e-09
3.7638e-09
-5.22975e-09
4.93555e-11
-2.84922e-11
3.4193e-09
5.76376e-09
-5.59671e-09
-3.58636e-09
-6.19035e-09
-5.63687e-09
5.42658e-09
-7.48859e-09
1.64042e-09
-1.5033e-09
7.35147e-09
1.35546e-11
6.55712e-09
3.17346e-11
-2.45407e-11
3.54068e-09
5.33339e-09
-2.5884e-09
3.91656e-09
-1.0928e-10
-4.2346e-09
4.2731e-10
6.66983e-11
-1.23541e-10
-3.49299e-10
-1.96114e-10
2.27212e-11
-4.75658e-11
2.20959e-10
1.4912e-10
-5.63419e-09
5.63142e-09
-1.46351e-10
3.27666e-09
-2.99545e-09
3.26131e-09
-3.54253e-09
-6.4137e-09
-6.43193e-11
4.30807e-11
-5.33958e-09
-7.27235e-10
5.55136e-09
5.15464e-10
1.62085e-09
-4.61867e-09
-1.82073e-09
4.81855e-09
-1.04189e-11
7.01446e-12
6.51482e-09
8.24845e-09
-7.02794e-09
-4.24012e-10
-7.96498e-10
6.21747e-09
-6.12919e-09
1.13261e-10
4.5689e-09
-4.70229e-09
-5.83139e-11
1.91709e-10
2.35652e-10
6.44843e-09
-4.66608e-10
-4.41975e-09
-7.03687e-11
8.17431e-11
4.40837e-09
-4.45233e-09
2.03316e-09
3.86444e-09
-1.44528e-09
3.91247e-09
-1.84913e-11
-9.40599e-09
-1.1141e-10
8.77326e-09
7.44142e-10
-5.96054e-09
-4.45777e-09
5.23144e-09
-4.47036e-09
3.86904e-11
4.43183e-09
-1.64859e-13
-2.43867e-10
5.36615e-09
-5.24645e-09
1.24161e-10
1.53901e-09
7.08883e-09
-8.62228e-09
-5.56527e-12
1.71922e-10
-1.48769e-10
2.01707e-11
-4.33238e-11
-3.02627e-11
3.7004e-09
6.36913e-09
-6.35283e-09
-5.61805e-11
3.98826e-11
-3.51533e-09
7.05002e-11
3.44483e-09
6.44882e-09
-5.41905e-10
3.50975e-10
-6.25789e-09
4.25861e-09
-2.4738e-09
-3.96855e-09
2.98873e-11
-7.44533e-11
1.17913e-08
4.33101e-10
-4.28064e-09
4.73447e-09
-3.35977e-09
1.53513e-09
-2.90982e-09
5.96025e-09
1.22315e-09
-1.47177e-09
-5.71164e-09
-3.3485e-09
2.99688e-09
1.3999e-09
-1.04827e-09
-3.62573e-10
-6.63329e-09
2.66174e-10
6.72969e-09
-6.26383e-09
6.28379e-09
-5.41216e-11
3.41705e-11
6.49472e-09
-2.10812e-11
1.10464e-10
-6.5841e-09
-6.47102e-09
1.37026e-10
6.80754e-09
-4.73545e-10
8.09154e-10
-8.96845e-10
-7.99102e-10
-5.14562e-09
6.22365e-11
-3.08382e-11
-4.55523e-11
2.13603e-11
-4.52337e-09
1.18925e-09
4.95496e-09
-3.18894e-09
-2.79091e-09
3.73837e-09
2.24148e-09
-1.95565e-10
2.17802e-10
-2.22368e-11
2.73483e-09
-2.63127e-09
-2.70591e-09
-1.80884e-09
-5.54221e-09
9.15247e-10
6.4358e-09
-6.19102e-09
6.21131e-09
-3.85492e-11
1.82619e-11
2.9492e-09
-5.1063e-09
4.25108e-09
4.55325e-11
-6.45345e-09
6.43574e-09
-2.78184e-11
-5.63291e-09
1.37075e-10
5.64495e-09
-1.95801e-09
-3.55577e-09
1.53983e-09
3.97395e-09
3.10727e-09
-3.14046e-09
6.62496e-09
-6.62003e-09
-1.22752e-11
7.34824e-12
-6.32316e-09
-6.25028e-11
3.28258e-11
-6.57889e-11
3.267e-11
1.44155e-09
-4.27198e-09
-2.2386e-09
-1.96706e-09
4.21951e-09
-1.27816e-09
1.27567e-09
1.092e-09
-1.74706e-09
1.98456e-09
-3.19751e-09
2.96e-09
5.64369e-12
-2.35693e-10
-5.66093e-09
5.89098e-09
-6.61864e-09
1.63515e-10
-1.52917e-10
6.60804e-09
-4.79285e-09
3.55791e-11
-7.88348e-11
-1.26728e-10
1.91239e-11
-4.11646e-11
-5.23586e-09
5.40714e-09
2.4631e-09
-2.63439e-09
-2.51116e-09
-8.35695e-09
5.436e-09
5.49408e-09
5.69989e-10
-2.47167e-10
4.21607e-09
-3.29795e-09
-1.5302e-09
6.12075e-10
4.10065e-10
5.69469e-09
-2.83672e-09
-3.26803e-09
-4.27276e-09
-4.20982e-11
3.43281e-11
4.28053e-09
-7.91178e-09
4.61427e-09
-3.84431e-09
7.14181e-09
2.41511e-09
-2.58049e-09
-4.83609e-09
5.00148e-09
6.11314e-09
-7.03085e-12
-6.12232e-09
1.62115e-11
-2.31626e-09
1.95619e-09
2.53699e-10
3.74088e-09
1.94092e-11
-4.01399e-09
1.12959e-10
4.44923e-09
6.70698e-12
-7.45833e-12
-6.00054e-09
5.9966e-09
1.1403e-11
2.25578e-09
-3.35817e-09
1.65464e-09
-5.52242e-10
1.7498e-10
-3.99732e-09
4.26678e-09
-4.44432e-10
1.82717e-11
-3.97642e-11
-1.05236e-10
4.98928e-09
5.68361e-10
-1.06542e-09
-4.49222e-09
3.07854e-09
-2.66653e-09
-3.19925e-09
2.78724e-09
-4.99018e-09
4.8331e-10
4.17467e-09
3.322e-10
2.77174e-09
-1.46564e-09
1.09555e-09
-2.40165e-09
-4.61854e-09
5.21292e-09
2.52082e-09
-6.44652e-09
-1.78276e-09
-1.47848e-09
2.28121e-09
2.94477e-09
-3.7475e-09
-2.29586e-09
-7.54856e-10
8.84952e-10
2.45782e-09
-2.83579e-09
-2.30879e-09
2.68676e-09
6.28607e-11
-3.51604e-11
3.08907e-09
-2.89524e-09
-2.37066e-09
-4.81197e-09
3.17832e-09
4.00431e-09
3.54674e-09
-3.52408e-09
-2.26649e-11
6.13137e-10
2.29217e-09
-1.76497e-09
-1.14033e-09
-2.03834e-09
6.00166e-10
2.05131e-09
-5.05426e-09
6.03085e-11
-2.89587e-11
-6.23616e-09
-5.60682e-11
2.83972e-11
2.93792e-09
2.45182e-10
-2.45158e-09
4.11999e-09
7.29823e-10
-4.02554e-09
-8.24279e-10
-3.9081e-10
7.37875e-10
-3.47065e-10
-1.41477e-09
-2.75856e-09
2.57103e-09
1.60231e-09
-5.33082e-09
4.67989e-09
6.84744e-10
-3.38143e-11
1.92429e-10
1.58071e-09
-1.13893e-11
-1.76175e-09
-7.74543e-11
-3.15783e-09
3.23528e-09
2.7019e-11
-6.63912e-11
6.20065e-09
8.84195e-10
-2.17132e-10
-6.86771e-09
5.62328e-09
-6.66476e-09
4.30824e-09
-3.26677e-09
-1.43165e-09
4.86346e-09
-5.24065e-09
-1.37703e-09
-4.01331e-09
1.68313e-09
5.85463e-09
-6.81869e-10
-5.31341e-09
1.40646e-10
4.09106e-09
8.6788e-11
-6.5303e-12
-4.17131e-09
-1.16737e-09
1.18547e-09
-6.01988e-09
6.00177e-09
-1.40836e-09
-3.55686e-09
1.61672e-09
-3.33675e-09
1.48995e-09
3.12187e-09
-1.27507e-09
-4.13316e-11
-6.00283e-09
6.02957e-09
1.45948e-11
-3.86245e-10
1.44576e-09
-2.25301e-09
1.19349e-09
1.96164e-10
5.35128e-09
-4.96516e-09
-5.82282e-10
-3.67278e-09
1.93132e-09
-2.13261e-09
2.91988e-09
6.88565e-09
-3.35311e-09
-6.45241e-09
2.2653e-09
4.86173e-09
-2.08458e-09
-5.04245e-09
-4.06824e-09
6.15283e-09
1.61216e-09
-3.69675e-09
-2.20871e-09
2.32623e-09
2.96102e-09
7.06317e-09
-1.39732e-09
-6.97961e-09
1.31377e-09
-7.17798e-09
7.30719e-09
-2.01855e-09
1.88933e-09
6.42475e-09
-6.39866e-09
-3.35578e-11
-1.89657e-09
1.67683e-09
4.12177e-10
-2.63747e-09
2.53361e-09
-1.5955e-09
1.28869e-10
3.51738e-09
-3.64625e-09
-1.93354e-10
2.12938e-10
-8.68083e-10
8.48499e-10
5.17506e-09
-4.08278e-09
-1.87777e-09
1.45332e-09
4.06769e-09
-5.34603e-09
-5.93247e-09
5.67351e-09
1.20614e-09
-9.4719e-10
-5.67725e-11
3.11371e-11
3.68226e-11
-1.46847e-09
-6.17436e-09
-3.16702e-11
1.50061e-11
2.1971e-09
-9.36362e-09
-3.2207e-10
1.49314e-09
-5.86168e-10
-9.06976e-10
-2.20472e-09
6.89529e-09
3.48202e-10
-5.03877e-09
2.82482e-09
3.88352e-09
-3.40961e-09
3.48817e-09
-7.85619e-11
-1.61176e-09
-8.22618e-09
7.14489e-09
2.69305e-09
2.47665e-09
-2.65901e-09
3.20485e-09
-3.02248e-09
-3.57137e-09
1.94086e-12
3.56943e-09
9.4938e-10
3.91408e-09
1.35458e-09
5.9962e-10
-1.9542e-09
-6.66049e-11
6.25026e-09
-8.90024e-10
-8.34918e-10
-7.77362e-09
7.25255e-09
1.35599e-09
4.84422e-11
-5.60917e-09
-3.1023e-11
5.59175e-09
2.11793e-09
-1.28272e-09
-8.35212e-10
-4.96901e-09
4.21264e-11
-2.18654e-11
4.61794e-09
-4.60453e-09
1.38444e-11
-2.7255e-11
-2.20502e-10
-5.83129e-09
4.66656e-10
5.58513e-09
8.42314e-09
-1.29118e-09
-5.13902e-09
5.2289e-09
-1.40855e-10
5.09803e-11
-3.13989e-09
-1.61746e-09
3.8711e-09
-2.81553e-09
2.46498e-11
2.79089e-09
2.25122e-09
-3.15763e-09
4.18649e-09
-3.28008e-09
7.63121e-09
1.45241e-10
2.34025e-09
4.02247e-09
-3.32132e-09
-3.04139e-09
5.16111e-09
-5.29963e-09
-8.19889e-11
3.97341e-10
-1.05699e-09
1.47282e-09
-8.1317e-10
-2.27414e-09
-1.4009e-09
7.72041e-10
2.90299e-09
4.83895e-09
-4.18123e-09
3.56276e-11
-1.28848e-10
4.89962e-10
-2.46515e-09
-7.06173e-10
2.68136e-09
1.41488e-10
2.43208e-09
-1.58378e-09
3.79985e-11
-9.43981e-11
1.87348e-10
-1.30948e-10
-3.29876e-09
3.68016e-09
-4.0347e-09
3.6533e-09
5.9861e-09
-1.76746e-11
-9.99035e-13
-5.96743e-09
-7.65146e-11
9.39173e-11
-1.74027e-11
-2.0746e-09
7.68253e-09
-7.93275e-09
2.32482e-09
-2.26161e-09
2.40932e-09
4.61136e-09
-4.75907e-09
5.59937e-11
5.63022e-09
-5.63777e-09
3.18002e-10
5.31585e-09
-1.39778e-10
-2.41548e-10
-2.07585e-09
1.93116e-09
-1.45303e-11
5.13333e-12
2.01808e-10
-1.92411e-10
-7.1282e-11
-7.97795e-09
6.18019e-11
-3.47141e-09
1.25131e-11
5.99959e-09
2.69422e-11
-6.03905e-09
6.15254e-09
-2.74267e-11
1.61611e-11
-6.14128e-09
-7.65658e-11
-6.78417e-09
6.7811e-09
7.96262e-11
-2.03773e-09
6.1356e-10
-6.14169e-10
-3.13675e-09
1.61866e-09
-3.81274e-09
-2.22057e-09
8.38465e-09
-8.74941e-09
2.58533e-09
-6.03202e-09
6.88954e-12
6.07067e-09
-1.62133e-09
2.44797e-10
2.49809e-09
-4.16368e-09
6.58086e-11
1.59978e-09
6.34173e-09
-2.06801e-09
-3.8988e-09
-3.74922e-10
-1.18231e-09
-3.63285e-09
1.34864e-09
-4.81042e-11
1.56242e-11
6.56046e-11
-3.31247e-11
-5.78725e-11
6.77271e-09
-6.7914e-09
2.45285e-11
-4.93821e-11
5.85523e-11
-2.82463e-11
2.09005e-10
-5.045e-09
1.11729e-09
3.71871e-09
9.34334e-10
-2.07659e-09
-3.84793e-09
-1.78055e-12
2.75948e-12
-2.05302e-10
2.04323e-10
-1.69387e-09
-6.38487e-09
2.14627e-09
-8.66016e-10
-1.03819e-09
-1.71688e-09
-1.45826e-09
-3.99448e-10
2.35309e-09
1.04323e-09
-6.54921e-09
6.86494e-09
4.99745e-11
-3.65704e-10
-3.20944e-09
8.03701e-10
4.25715e-09
-1.85141e-09
-2.99287e-09
-6.93871e-10
4.1967e-09
-5.09963e-10
-1.31985e-10
7.55928e-11
8.61593e-10
1.20533e-10
-8.77728e-10
4.57301e-11
7.11465e-10
-6.42684e-09
6.44359e-09
-5.80795e-11
3.40692e-10
-3.03545e-10
2.84989e-11
-6.5646e-11
-3.87869e-09
-6.5191e-09
1.59937e-09
8.79841e-09
-3.61471e-09
-5.74874e-09
6.06558e-09
3.29788e-09
2.9055e-09
2.12468e-10
-2.628e-09
3.99451e-09
-2.50501e-09
1.34611e-09
-2.83561e-09
-5.89343e-09
2.11037e-11
-6.16373e-11
5.93396e-09
6.45729e-10
-7.04018e-10
1.78822e-10
-5.27691e-09
1.51115e-09
-2.00163e-10
3.96593e-09
1.20803e-09
-2.91837e-09
-7.47396e-10
2.45773e-09
-4.59372e-09
-6.18643e-09
6.71191e-09
-1.54228e-09
3.32565e-10
3.08129e-09
-1.87157e-09
2.41874e-10
-6.47131e-09
6.29124e-09
2.60325e-09
7.13975e-09
-8.00163e-09
-1.74138e-09
3.48337e-09
-5.17257e-10
-2.81944e-11
-6.54853e-10
2.3315e-09
4.41584e-09
2.6233e-09
-1.20661e-09
4.63322e-09
-6.04991e-09
-6.73765e-09
6.63548e-09
1.64505e-10
-6.23387e-11
-5.55188e-09
5.55685e-09
2.44429e-11
-2.94106e-11
-1.80121e-10
2.15958e-10
2.88507e-10
-7.57873e-09
-8.30698e-09
2.99845e-09
9.69255e-10
-2.43487e-09
-1.74383e-09
5.24725e-09
-1.92742e-10
9.6627e-11
-5.15114e-09
3.81776e-09
-4.13266e-09
5.65785e-09
-5.34294e-09
-3.05656e-09
2.37299e-09
-2.13206e-09
2.81563e-09
5.68429e-09
2.45593e-09
-4.60609e-09
-3.53413e-09
-1.94142e-10
8.52532e-10
-8.51744e-10
-3.4906e-09
-3.63262e-09
3.52949e-09
3.59373e-09
6.27773e-10
3.26251e-09
-1.18865e-09
4.98931e-09
5.85027e-09
4.7241e-09
-5.33759e-09
-3.78355e-09
-3.34484e-09
3.63779e-09
1.33881e-08
-4.82603e-09
-5.64219e-09
2.62765e-09
-3.0002e-09
-3.53062e-09
3.90317e-09
-3.72395e-09
4.32555e-09
-2.66831e-09
2.06671e-09
-5.38977e-11
1.38248e-10
3.37328e-11
-1.18083e-10
-4.26172e-09
3.70717e-09
-3.6319e-09
4.18645e-09
-2.97074e-09
3.0612e-09
-9.04586e-11
-5.5545e-09
5.57593e-09
1.46944e-11
-3.61233e-11
1.35165e-09
4.57843e-10
-6.47144e-10
-1.16235e-09
9.32156e-11
-6.69195e-10
-1.56206e-10
3.82034e-09
-1.08487e-09
8.73292e-10
-3.60876e-09
-5.66488e-09
-7.16047e-11
5.49107e-09
2.45414e-10
-1.60556e-09
2.43109e-09
5.51619e-09
3.74252e-10
-3.24522e-10
6.71858e-10
-7.21588e-10
3.28525e-10
-1.90129e-11
3.60705e-09
-9.27106e-11
-4.75619e-09
5.60502e-11
4.07129e-10
7.35277e-09
-5.5628e-09
1.59541e-09
4.06269e-09
-3.70435e-09
-1.95375e-09
4.99445e-13
-1.49151e-09
-3.74485e-09
1.70102e-09
-2.09235e-09
-7.53722e-10
1.14505e-09
-4.1087e-09
3.79229e-09
-3.9453e-09
-4.14257e-09
4.42027e-09
3.97269e-09
-4.25039e-09
-1.66564e-11
-3.57613e-09
3.59279e-09
6.07036e-09
-2.45408e-09
2.85627e-09
-5.75962e-09
-8.19854e-10
3.7232e-09
4.64077e-09
2.01117e-11
-8.54138e-12
-4.65234e-09
-6.13661e-11
4.82029e-09
-4.79289e-09
3.39651e-11
-9.22842e-10
1.12306e-09
5.90154e-09
-6.10175e-09
2.47974e-10
8.81899e-10
-9.16935e-10
4.75089e-10
2.62096e-09
-1.04271e-09
1.39757e-09
-2.97581e-09
-1.51267e-09
6.9069e-09
-6.96552e-09
1.57129e-09
-3.42548e-10
-9.11909e-09
-1.01143e-09
-4.66125e-09
2.41315e-09
2.78988e-09
-2.57119e-09
2.43771e-09
-2.6564e-09
-6.14152e-12
1.20083e-11
-1.54288e-10
1.48421e-10
2.15645e-10
-1.09969e-10
1.541e-09
4.14831e-10
-6.04183e-10
5.56115e-09
-5.57709e-09
-2.90983e-11
4.50335e-11
4.9237e-09
-4.86562e-09
2.05985e-09
5.14746e-09
-6.59926e-11
1.5074e-10
-5.61399e-09
-4.41029e-11
4.89243e-11
-2.75302e-11
3.68035e-11
2.39855e-09
5.53595e-11
-4.93623e-11
-2.40454e-09
3.73414e-09
-2.00364e-09
-1.7305e-09
3.13073e-09
-2.56237e-09
2.00038e-09
-2.0453e-09
7.19731e-10
-7.05281e-09
-1.36897e-09
7.4951e-09
9.26673e-10
-4.06533e-11
-5.88271e-09
2.99404e-11
3.57713e-09
-3.03879e-11
-5.16646e-09
-1.24178e-09
2.08045e-09
4.32779e-09
-3.55886e-09
-3.7933e-11
4.52698e-10
4.26513e-09
-5.98166e-09
2.77868e-09
3.20299e-09
7.06675e-11
3.25974e-09
-1.82969e-09
-1.50073e-09
6.34785e-09
5.80363e-09
-8.62845e-09
2.32382e-09
5.03451e-09
-1.83917e-09
-4.4431e-09
-7.74073e-10
4.64735e-09
-7.60527e-09
6.40257e-09
1.1749e-11
-3.35657e-11
-1.42634e-09
-3.63046e-09
3.67206e-09
1.38474e-09
4.07303e-09
-5.51591e-09
-2.85784e-11
5.90792e-09
5.33503e-11
-5.9327e-09
1.85429e-09
-3.28178e-09
-1.62907e-09
-4.24815e-09
3.78747e-09
2.56265e-09
-2.10197e-09
-4.86485e-09
4.97743e-09
-1.82574e-09
1.71316e-09
1.31441e-10
-7.43295e-11
-1.1195e-10
5.48386e-11
9.68081e-10
-7.87971e-10
-4.58421e-09
1.53242e-10
-3.93842e-11
-1.19128e-09
4.02421e-10
1.24671e-09
-4.05035e-09
2.8648e-09
4.13476e-09
3.99406e-10
8.46591e-10
-1.63681e-09
-1.89477e-09
2.21567e-09
-3.20892e-10
-6.62377e-10
6.04682e-12
-2.21398e-10
5.82766e-09
4.78504e-11
-5.85539e-09
-2.01203e-11
-2.98557e-09
3.15447e-09
-2.30254e-09
2.13364e-09
5.04488e-09
1.84429e-10
-8.18463e-11
6.5305e-10
2.57073e-09
-1.52117e-09
-2.34812e-11
5.80418e-09
4.69562e-11
-2.06824e-10
-4.55592e-09
1.65547e-10
-2.45576e-10
4.63595e-09
-3.92987e-09
-2.46151e-09
9.2157e-10
5.46981e-09
7.07441e-09
-7.43276e-10
4.52284e-09
2.17722e-10
1.16937e-10
-4.8575e-09
1.4788e-11
7.22187e-09
-7.14053e-09
-9.61298e-11
5.46881e-11
-2.28827e-11
-6.99294e-10
2.51512e-09
-2.28874e-09
4.72918e-10
-6.081e-09
6.10044e-09
1.70703e-11
-3.65148e-11
3.76371e-09
5.33111e-09
-4.80618e-09
-4.28863e-09
4.0565e-11
-3.28525e-09
3.26855e-09
-2.38625e-11
-3.41504e-09
2.39051e-09
-1.96833e-09
-9.65349e-11
1.60556e-10
5.94501e-10
-5.65695e-09
4.56363e-10
2.30857e-09
-3.26155e-09
1.69086e-09
7.44545e-10
-6.90425e-10
3.38607e-10
-3.92728e-10
-5.66448e-09
3.48288e-10
5.04235e-09
-3.78395e-09
5.53709e-11
-6.34562e-09
6.3381e-09
-5.9923e-09
6.04902e-09
-1.35341e-10
7.86169e-11
-9.69784e-11
5.03182e-09
2.26268e-10
7.9809e-09
-8.40072e-09
1.59879e-10
2.59944e-10
-5.57887e-09
-3.31319e-11
3.49105e-11
-3.7104e-11
2.07913e-10
2.22774e-09
-1.87002e-09
-6.97524e-09
3.40556e-09
-3.38729e-09
-1.82666e-11
-3.17554e-09
3.24018e-09
-3.20138e-09
-6.10763e-09
6.10306e-09
-4.81372e-12
9.37847e-12
2.38454e-09
4.53368e-09
-3.51976e-09
-3.39847e-09
-5.35441e-09
8.09619e-11
-1.40521e-10
5.41397e-09
-5.46182e-09
-2.77453e-09
-3.22234e-10
8.55859e-09
5.08677e-09
-8.19781e-10
-4.26699e-09
3.23621e-10
-3.83895e-09
-5.66567e-09
4.05394e-10
2.36083e-09
-4.14948e-09
-1.17332e-09
2.96197e-09
-8.89412e-09
-1.63343e-09
1.05326e-09
-6.7529e-09
-2.96236e-09
8.662e-09
2.78295e-09
-5.9931e-10
-2.09305e-09
-9.05913e-11
6.99255e-09
-1.53099e-09
2.06344e-09
-7.525e-09
2.82768e-10
-6.54495e-09
-9.18453e-09
6.7217e-09
3.94525e-09
-1.48242e-09
-9.77678e-10
2.75796e-10
9.49856e-10
-2.464e-09
-7.1514e-09
2.24012e-09
3.31962e-09
-3.23093e-09
2.53697e-10
-3.42392e-10
-6.09238e-09
6.08003e-09
-1.42009e-11
2.6557e-11
-6.52406e-09
-3.3975e-09
3.02334e-09
9.4977e-10
5.09677e-09
-2.31966e-09
-3.72742e-10
3.60022e-09
-3.62692e-09
-4.46173e-10
-1.87025e-09
-9.87698e-10
-6.39557e-11
1.24055e-09
-1.88898e-10
5.84606e-09
-2.66867e-11
8.92997e-12
-5.8283e-09
2.29727e-09
-5.3318e-09
8.84696e-09
-5.81243e-09
-6.99893e-09
7.0449e-09
-8.58933e-11
-1.26875e-09
3.21896e-09
-1.87954e-09
5.49352e-09
-3.28735e-10
-1.14807e-09
1.13186e-09
3.44944e-10
-9.41241e-09
7.06063e-09
7.40024e-10
3.94638e-09
-2.56153e-09
-4.6836e-09
5.77205e-10
-4.92335e-10
2.40673e-10
-3.25543e-10
-2.20793e-09
-6.6927e-09
7.03062e-09
-7.84537e-09
6.01835e-09
-2.21798e-10
4.09968e-10
-6.20652e-09
6.04466e-09
-6.06234e-09
-1.58125e-11
3.34968e-11
5.12369e-09
-1.12148e-10
1.66635e-10
-5.17818e-09
-8.43101e-11
-2.88643e-09
2.91186e-09
1.75052e-10
-3.91843e-10
-2.69507e-09
1.05733e-09
1.38535e-09
3.40271e-10
8.81087e-11
-1.77498e-10
-5.04963e-09
7.59692e-09
-4.91191e-09
-3.85238e-09
4.65036e-09
-4.07502e-09
2.84396e-09
-6.3213e-09
-7.07568e-11
6.3514e-09
-6.73998e-09
6.75629e-09
-4.37407e-11
-2.35359e-10
-8.5241e-10
1.00071e-10
-5.76829e-09
1.63188e-11
-4.71993e-11
5.79917e-09
3.53218e-09
-3.56076e-09
-4.02423e-09
3.38669e-09
2.99837e-09
3.66769e-11
6.50202e-10
-4.11502e-11
8.94069e-09
-9.14231e-09
1.17266e-09
-9.71049e-10
-3.00706e-09
2.94569e-09
-2.79624e-09
2.06719e-09
1.71005e-09
-9.81004e-10
2.4624e-09
-3.37184e-09
1.69429e-09
-2.04641e-09
7.60677e-09
-7.82837e-09
-1.55879e-09
1.78039e-09
-1.08868e-08
-1.76988e-09
8.06297e-09
-2.94054e-09
-7.53188e-10
5.04509e-09
-1.35136e-09
5.86531e-09
-1.40051e-09
-1.90955e-09
-3.80188e-09
3.75408e-09
1.95735e-09
-4.89065e-09
-3.57911e-10
-2.93655e-10
2.82644e-10
-5.88395e-09
6.51656e-09
-4.7986e-11
-7.05424e-09
7.11701e-09
3.50156e-09
-3.61655e-09
3.79516e-09
4.18707e-09
-2.86772e-09
3.23138e-09
-4.414e-09
1.9824e-09
-3.2904e-10
-1.40817e-09
1.03741e-09
-1.6058e-09
1.62572e-09
-2.2093e-09
2.05327e-09
-2.36033e-09
3.36193e-09
-3.29801e-09
1.64397e-09
-1.70788e-09
1.54564e-09
-2.16388e-09
-3.70574e-09
4.32398e-09
-5.95949e-09
-2.01737e-10
1.68932e-10
5.32278e-09
-3.50796e-09
-1.82337e-09
8.54835e-12
5.42159e-09
-1.35125e-10
7.49164e-11
-4.81878e-10
3.89837e-09
-3.41649e-09
3.30904e-09
-4.84892e-09
2.47422e-09
-5.7253e-09
5.74694e-09
2.68723e-11
-4.85204e-11
-9.0692e-10
-4.52019e-09
5.36466e-10
8.2451e-09
2.29985e-09
-2.0697e-09
-4.71702e-10
9.48288e-12
1.68009e-10
-8.34193e-12
-1.6915e-10
-2.81817e-10
1.47227e-09
-1.83459e-09
6.44139e-10
-2.1517e-09
1.65548e-09
3.26796e-09
6.81856e-09
-1.73179e-09
-1.20151e-09
1.24458e-09
-4.30737e-11
3.06641e-09
-3.11953e-09
-2.51807e-09
-6.70267e-10
-2.56456e-09
1.57427e-09
1.66056e-09
-2.06583e-11
3.75031e-11
-5.78536e-09
5.76852e-09
-2.04275e-11
-3.43857e-09
3.459e-09
-2.32843e-10
2.91697e-10
2.72502e-09
1.225e-09
-2.73463e-09
-1.21538e-09
2.06598e-09
-2.0779e-09
-4.63598e-09
2.52019e-09
-4.74987e-10
2.59077e-09
-2.30946e-11
2.54381e-11
5.39161e-10
-4.60614e-11
1.80675e-09
1.76867e-09
-8.24117e-10
-3.92927e-09
2.98472e-09
-6.9962e-09
6.95002e-09
-2.61179e-09
-2.09092e-10
3.02079e-09
-3.70127e-09
6.4132e-09
-5.73272e-09
-3.42169e-09
-3.99559e-10
4.39236e-09
-5.71104e-10
-2.09488e-09
-2.92296e-09
2.98892e-09
-2.30516e-09
2.77486e-09
-2.54629e-09
4.44288e-10
-4.86936e-11
4.13843e-09
-2.47271e-09
2.06973e-09
-3.73545e-09
4.73811e-09
-3.14348e-09
8.36465e-10
5.45178e-09
-2.50229e-09
-5.64706e-09
-3.80123e-09
5.02888e-09
7.99786e-11
-1.30763e-09
-6.1196e-09
2.11063e-11
6.12576e-09
-2.72651e-11
3.40911e-10
-3.04495e-10
1.86701e-10
-2.23118e-10
3.92468e-09
-3.9351e-09
-3.04299e-10
1.16763e-09
-1.19207e-09
-3.42499e-09
3.40433e-09
-2.15617e-09
-4.81436e-09
1.80407e-09
-3.0786e-10
-7.30112e-10
-8.14656e-09
-6.60431e-09
6.89092e-09
-3.83851e-12
2.72545e-09
7.66095e-09
7.70053e-10
6.14075e-09
-3.20171e-09
3.00957e-09
-5.94861e-09
-7.40022e-09
6.97748e-09
3.39215e-09
-2.96941e-09
2.03855e-11
6.9787e-10
1.83418e-10
3.10406e-09
-3.28748e-09
1.58901e-11
-2.23467e-11
-2.63235e-11
3.37097e-09
-3.34465e-09
-8.27846e-10
-4.25016e-09
6.34903e-10
-3.50524e-09
-2.66721e-09
4.2609e-09
-2.65887e-09
2.79228e-09
6.14235e-09
-6.27576e-09
2.97938e-09
9.04451e-10
-2.18282e-09
4.60274e-09
-3.57909e-09
3.9161e-09
1.62056e-09
-1.58373e-09
9.74927e-10
-6.32431e-10
-3.13873e-09
-2.15606e-10
5.52505e-09
-8.87562e-09
-8.97852e-10
8.50472e-09
-5.08613e-09
1.11968e-09
-1.37313e-09
1.32118e-09
-2.86047e-09
2.52121e-09
-9.81926e-10