/*--------------------------------*- C++ -*----------------------------------*\
  =========                 |
  \\      /  F ield         | OpenFOAM: The Open Source CFD Toolbox
   \\    /   O peration     | Website:  https://openfoam.org
    \\  /    A nd           | Version:  8
     \\/     M anipulation  |
\*---------------------------------------------------------------------------*/
FoamFile
{
    version     2.0;
    format      ascii;
    class       volVectorField;
    location    "8.4";
    object      U;
}
// * * * * * * * * * * * * * * * * * * * * * * * * * * * * * * * * * * * * * //

dimensions      [0 1 -1 0 0 0 0];

internalField   nonuniform List<vector> 
5101
(
(0.000667943 0.00103034 0)
(0.000867539 0.00130076 0)
(0.000778113 0.00118097 -1.04646e-23)
(0.000870931 0.00138756 -1.8332e-25)
(0.000736679 0.00113583 -1.22713e-21)
(0.000711361 0.00125815 6.28803e-22)
(0.000731058 0.0012216 7.95972e-23)
(0.000491956 -4.05828e-05 -4.31748e-24)
(0.000728165 0.00124137 5.36789e-25)
(0.000659915 0.001082 0)
(0.000640398 0.00115924 -7.89109e-22)
(0.000711075 0.00125776 7.54907e-22)
(0.000701185 0.00122307 -1.09129e-23)
(0.000652305 0.00125836 -3.30008e-22)
(0.000799664 0.00147976 7.62039e-22)
(0.000843586 0.00145767 1.00428e-21)
(0.000844426 0.00151484 0)
(0.000885163 0.00138258 0)
(0.000836442 0.00141798 2.40673e-21)
(0.000354702 0.00077783 0)
(0.000759879 0.00125736 0)
(0.000709549 0.0012633 3.38179e-22)
(0.000883061 0.00132605 4.58273e-24)
(0.000699619 0.00123663 5.40222e-22)
(0.000835864 0.00144663 6.12002e-22)
(0.000616987 0.00126529 1.47002e-21)
(0.00085528 0.00147929 1.14559e-21)
(0.000783125 0.00137796 0)
(0.000639185 0.00113202 -1.30598e-21)
(0.000629706 0.00116279 2.56141e-21)
(0.000856287 0.00140174 1.10599e-21)
(0.000662663 0.00103317 -1.01058e-23)
(0.000684459 0.00121095 -4.69551e-22)
(0.000524337 0.000784826 -1.72584e-21)
(0.000794486 0.0012216 -1.28455e-21)
(0.00040282 0.000676982 1.48553e-21)
(0.000695521 0.00133663 9.39685e-22)
(0.000757037 0.00130929 0)
(0.00063426 0.00112269 1.22996e-21)
(0.00102596 0.000395317 6.32931e-22)
(0.000915454 5.08805e-05 1.69381e-22)
(0.000710867 0.00122367 -1.6089e-22)
(0.000854267 0.00145736 0)
(0.0008485 0.0014592 9.0295e-22)
(0.000669361 0.00112925 -8.28618e-22)
(0.000808665 0.00125958 6.84683e-22)
(0.000682049 0.00115709 7.87805e-24)
(0.000638564 0.00105936 3.97736e-22)
(0.000715566 0.00127071 1.29355e-23)
(0.000790704 0.00138827 -6.97807e-22)
(0.000699826 0.00135963 0)
(0.00068069 0.00132922 -1.46993e-21)
(0.000757836 0.00126353 0)
(0.000746961 0.00123967 9.85362e-23)
(0.000725709 0.000146213 3.94778e-25)
(0.000638369 0.00113626 0)
(0.000428665 0.000801772 2.06223e-22)
(0.000206779 0.000625128 2.88156e-22)
(7.90596e-05 0.000350191 2.71896e-22)
(0.000576932 0.0010318 3.18604e-22)
(0.00073858 0.00123623 -2.29531e-22)
(0.000866181 0.00136201 0)
(2.76386e-05 7.89204e-06 0)
(0.000789274 0.00143931 0)
(0.000789358 0.00135826 -1.2745e-21)
(0.000571498 0.00106261 -1.85688e-21)
(0.000705616 0.00119856 3.14751e-22)
(0.000820344 0.00149109 0)
(0.000721066 0.00124394 9.31452e-22)
(0.000972945 6.09096e-05 1.05611e-21)
(0.000711079 0.00125522 -6.33635e-22)
(0.00031045 0.000790494 1.86081e-21)
(5.53664e-05 0.000203761 -1.44442e-21)
(0.000753322 0.00134063 -1.86743e-21)
(0.000622387 0.0011041 4.75084e-22)
(0.000841707 0.000809438 1.0778e-21)
(0.000664361 0.00105635 3.73458e-22)
(0.000416927 0.000770141 0)
(0.000257122 0.000533133 -6.50679e-22)
(0.000712052 0.00125173 -2.84136e-22)
(4.01155e-05 0.000205558 1.75702e-21)
(0.000588749 0.00110822 2.693e-22)
(0.000593964 0.00108303 0)
(0.000643697 0.00116048 -2.07987e-21)
(0.000636675 0.000199662 3.38049e-21)
(0.000763686 0.00132264 3.58545e-22)
(0.000684365 0.00116579 -3.83303e-22)
(0.00084555 0.00137998 4.1261e-22)
(0.000583226 0.00115266 2.2661e-21)
(0.000871196 0.00150217 4.72907e-22)
(0.000557927 0.000766727 -5.76601e-22)
(0.000706286 0.00118758 0)
(0.000747173 0.00133519 -1.81521e-21)
(0.000794273 0.00138672 -3.66924e-22)
(0.000774515 0.00134034 -1.73361e-21)
(0.000472063 0.000900554 0)
(0.000484312 0.000748167 -3.03101e-21)
(0.000683313 0.00117647 -8.11578e-22)
(6.7326e-05 0.000277816 0)
(0.000703107 0.00139971 -6.52342e-22)
(0.000803216 0.00139359 1.41962e-21)
(0.00100752 0.000165546 -2.1365e-21)
(0.000728544 0.00126557 -3.39532e-22)
(0.000687446 0.00117151 0)
(0.000635805 0.00111854 9.94257e-22)
(0.000288053 0.000726396 -1.98665e-21)
(0.000582718 0.00101701 5.89943e-22)
(0.000719365 0.00114571 -9.33342e-22)
(0.000572206 0.000489538 0)
(0.000348429 0.000677932 -2.27895e-23)
(0.000531054 0.000921847 0)
(0.000533884 0.000926011 0)
(0.000809688 0.00141668 0)
(0.000656891 0.00118292 0)
(0.000687621 0.00116372 2.98425e-22)
(0.000557606 0.000815618 1.26365e-21)
(0.000524252 0.000746824 4.754e-22)
(0.000677514 0.00114355 1.87829e-22)
(0.000482712 0.000834036 1.9518e-21)
(0.000610946 0.00105739 2.58277e-22)
(0.00072949 0.00126659 1.95539e-22)
(0.000292892 0.000548169 4.92932e-22)
(0.000129304 0.000730693 1.14644e-21)
(0.000650531 0.00106951 9.99822e-22)
(0.000500341 0.000905086 4.28797e-22)
(3.0006e-05 6.42179e-06 1.55906e-22)
(0.00065944 0.00112022 -5.16811e-22)
(0.000726367 0.00123271 3.58288e-22)
(8.05225e-05 0.00019897 -1.25648e-21)
(0.000699024 0.00108001 0)
(0.000768149 0.001344 2.09796e-21)
(0.000703754 0.00124983 0)
(0.000666465 0.00119305 2.82997e-21)
(0.000356927 0.000136576 -2.28429e-21)
(0.000595013 0.00104616 1.84937e-21)
(0.000833352 0.00156169 0)
(0.00111271 0.000149801 2.51096e-21)
(0.000616815 0.00112163 4.6077e-21)
(0.000525109 0.000927426 7.7006e-23)
(0.000441154 0.000571825 0)
(0.000473714 0.000866884 4.28294e-21)
(0.000459809 0.000987289 1.46729e-21)
(0.00100826 0.000349547 0)
(0.000504528 0.000852693 -9.59536e-22)
(0.000361512 0.000654098 -3.65461e-23)
(0.000688965 0.00123414 -5.47952e-22)
(0.000285674 0.000481682 0)
(0.000750936 0.00131303 1.78155e-23)
(0.000523565 0.00105629 -2.61993e-21)
(0.000298095 0.000657914 -2.16321e-21)
(0.000658036 0.00116743 3.2108e-21)
(0.000821153 3.15283e-05 -2.40669e-21)
(0.000763362 0.00125977 0)
(0.000690287 0.00120026 -2.93234e-22)
(0.000588695 0.00109725 0)
(0.000820152 0.00136302 -2.78398e-21)
(0.000585586 0.00103763 5.45932e-22)
(0.000841993 0.000825035 -1.39789e-21)
(0.000567721 0.000985438 0)
(0.000566173 0.000984891 5.89019e-22)
(0.000711707 0.00124361 3.93723e-23)
(0.000349308 0.00074063 0)
(0.000680472 0.00118176 -4.40799e-22)
(0.000658708 0.00119603 -1.28384e-21)
(0.000604956 0.00111393 -1.11236e-21)
(0.000838226 0.0014415 0)
(0.000482451 0.000822198 -4.75623e-22)
(0.000612449 0.00109402 0)
(0.000856017 0.00144528 3.2922e-22)
(0.00064737 0.000735507 3.9707e-21)
(0.000544959 0.000934248 6.42731e-24)
(0.000639238 0.00109767 -5.97972e-22)
(0.000646175 0.00106299 0)
(0.000646069 0.00117107 1.35825e-21)
(0.000654454 0.00118284 3.94395e-22)
(0.000757947 0.00124416 7.95763e-22)
(0.000729469 0.0012676 4.01505e-22)
(0.000813853 7.72848e-05 -8.66288e-22)
(0.000459777 0.000810752 -6.44006e-22)
(0.000824607 0.00128403 0)
(0.000635701 0.0011464 2.29081e-21)
(0.000639591 0.00105867 4.54948e-23)
(0.000645192 0.00105865 1.56545e-21)
(0.000530167 0.000933038 3.37301e-21)
(0.000400392 0.000723579 -4.80957e-21)
(0.000576044 0.000955902 -1.26964e-21)
(0.00073669 0.000350807 2.45838e-21)
(0.000694828 0.00115123 7.33255e-22)
(0.000705199 0.00122716 -1.90116e-21)
(0.000593541 0.00103159 1.14962e-21)
(0.000488173 0.000997747 1.15337e-21)
(0.000785199 0.0013295 0)
(0.000638743 0.000775807 3.34307e-24)
(0.000858606 0.000857258 -4.08385e-21)
(0.00076116 0.00127886 4.11259e-22)
(0.000866327 0.00152229 -1.61112e-22)
(0.000319145 -0.000341929 6.50456e-22)
(0.000474102 0.00122701 7.53349e-22)
(0.000530754 0.00091473 1.20885e-22)
(0.000709471 0.00126768 -4.60652e-23)
(0.000483593 0.000832658 -1.09482e-21)
(0.000575289 0.00110164 -1.1845e-21)
(0.000718145 0.00132652 -2.39487e-21)
(0.000809996 0.000808741 -1.38023e-21)
(0.000629926 0.000338014 3.69797e-21)
(0.000751582 0.00131116 7.30936e-22)
(0.00100034 0.00110587 1.15862e-21)
(0.000656202 0.00121524 3.73507e-22)
(0.000961855 0.000127649 -5.2399e-21)
(0.00072886 0.00126804 -3.23548e-22)
(0.000761231 0.00144714 7.05327e-22)
(0.000692925 0.00126656 1.61565e-22)
(0.000880454 0.00153031 0)
(0.000829477 0.000596274 -2.53494e-21)
(0.000729633 0.0012679 0)
(0.00051917 0.000912309 1.75845e-22)
(0.000626225 0.00111987 2.85386e-21)
(0.000462382 0.00069613 0)
(0.000787604 0.00137222 -1.90676e-22)
(0.000527121 0.000883446 7.27381e-23)
(0.000723287 0.00128069 -1.49162e-22)
(0.000659211 0.00107792 -4.89802e-22)
(0.000593709 0.00099174 -3.76306e-22)
(0.000523031 0.000948713 1.19048e-21)
(0.000436056 0.00137251 -9.99289e-22)
(0.00100045 4.27589e-05 4.27439e-22)
(0.000708566 0.00119902 9.7314e-22)
(0.000620733 0.00111811 -4.33301e-21)
(0.000727263 0.00126798 -4.75896e-22)
(3.27362e-05 2.57867e-06 1.24006e-21)
(0.000137019 0.000760252 1.10124e-21)
(0.000653584 0.00124635 -3.15214e-22)
(0.000711551 0.00127918 6.55359e-22)
(0.000768028 0.00134137 7.31653e-22)
(0.000520935 0.00103773 6.32177e-22)
(0.000649208 0.000275388 -1.74978e-22)
(3.21469e-05 3.52737e-06 -1.84866e-23)
(0.000516568 0.000868893 -5.26533e-22)
(0.000567412 0.000991096 0)
(0.000734597 0.00128999 0)
(0.000726181 0.00126677 0)
(3.70499e-05 2.38941e-06 -2.54088e-21)
(7.1995e-05 0.000119441 8.17836e-26)
(0.00086686 0.00155971 0)
(0.00062677 0.0011065 -1.28795e-21)
(0.000540883 0.000933759 3.20769e-22)
(0.000641298 0.00114349 -3.8334e-23)
(0.000627625 0.000958153 -1.02988e-21)
(0.000627856 0.00108333 -2.75223e-21)
(0.000795958 0.00138737 0)
(0.000538209 0.000938301 2.75928e-21)
(0.000774443 0.00135441 -4.2085e-23)
(0.000743316 0.00128772 4.2992e-23)
(0.000633838 0.00108699 -9.36171e-22)
(0.000607631 0.00107098 -1.52837e-21)
(0.000649298 0.00112032 -1.39162e-21)
(0.00064177 0.00110318 -1.38396e-21)
(0.000662274 0.00115679 0)
(0.000740185 0.00130691 -5.60888e-22)
(0.000986267 0.000345952 -2.16175e-25)
(0.000454652 0.000800266 0)
(0.000737154 0.00128697 8.13263e-22)
(0.000638714 0.00112503 -2.54169e-22)
(0.000665429 0.00114839 -4.4183e-24)
(0.000654511 0.00112378 -3.77745e-24)
(0.000389324 0.000654979 -1.54539e-21)
(0.000606673 0.00105726 2.68014e-22)
(0.00070669 0.0012587 -7.54256e-22)
(0.000779231 0.00135907 0)
(5.73932e-05 0.000677973 0)
(0.000663435 0.00117273 -2.40617e-21)
(0.000688019 0.00120396 -5.82417e-22)
(0.00107309 0.000826135 2.81445e-21)
(0.000842734 0.00147493 0)
(0.000280578 0.000408943 -2.68457e-21)
(0.000888655 0.00111286 -1.81029e-21)
(0.000506031 -0.000479408 -1.36732e-21)
(0.000540815 0.000786476 0)
(0.000726769 0.00126439 -6.77111e-22)
(0.000731248 0.00126089 -1.46778e-22)
(0.00060542 0.00105307 -8.09966e-22)
(0.000638962 0.000946531 0)
(0.000678506 0.00120055 0)
(0.000612117 0.00138747 -1.65617e-21)
(0.000590562 0.00100721 -3.98523e-21)
(0.000706604 0.00125152 1.05726e-21)
(0.000631641 0.00114888 -4.10444e-21)
(0.000471848 0.000817601 5.07909e-22)
(0.000823204 0.00146342 5.34931e-22)
(0.000474998 0.00114979 -2.16652e-21)
(0.000551088 0.000944466 -1.73203e-21)
(0.000509603 0.00118748 -2.51532e-22)
(0.000636048 0.0011202 1.76273e-21)
(0.000687787 0.000622872 3.86095e-21)
(0.0004738 0.000833325 1.06397e-22)
(3.50453e-05 3.06093e-06 -3.65119e-23)
(0.000744737 0.00122811 -2.21972e-23)
(0.000878179 0.0015247 -4.29344e-22)
(0.000713592 0.00126774 8.24461e-22)
(0.000564961 0.000973666 2.95768e-21)
(0.000997607 0.00032267 -4.62485e-22)
(0.00011581 0.000792348 7.26805e-22)
(0.000766512 0.00134417 -2.18744e-21)
(0.000757843 0.00130829 -1.41586e-24)
(0.000403687 0.00087251 2.0914e-23)
(0.000539265 0.0011651 7.3255e-22)
(0.000642161 0.00106724 -8.00133e-22)
(0.000285033 0.000724114 1.32544e-21)
(0.000732659 0.0012383 1.62804e-23)
(0.000617843 0.00107139 -2.05717e-21)
(0.000731179 0.00119005 -6.56668e-22)
(0.000781375 0.0013863 -3.42843e-23)
(0.000923379 0.00162103 0)
(0.000875865 0.00152538 5.68727e-22)
(0.000474994 0.000816066 2.50558e-22)
(3.53568e-05 1.59965e-06 0)
(0.000626656 0.00104194 -8.68899e-24)
(0.00027264 0.00091312 -1.86761e-22)
(0.000472663 0.000828108 2.2882e-21)
(0.000911331 0.000568287 2.09531e-21)
(0.000678956 0.00123615 -2.17531e-21)
(0.000602336 0.00137537 -8.89329e-22)
(0.00056821 0.000775089 7.14945e-22)
(0.00072458 0.00126737 -8.98787e-22)
(0.000860282 0.00145072 2.84995e-22)
(0.000863721 0.00151875 0)
(0.000542803 0.000496627 0)
(0.000620412 0.001108 2.1812e-21)
(0.000439527 0.00110624 -2.11323e-21)
(0.000741067 0.00126448 2.94433e-22)
(0.000916251 0.00165724 -7.86217e-23)
(0.000804746 0.00139706 0)
(0.000958615 0.000390927 -1.32485e-21)
(0.000114349 0.000535294 1.8893e-23)
(0.000876549 0.00148304 2.60904e-22)
(0.000320113 0.00011527 -2.23803e-21)
(0.000586104 0.00102567 0)
(0.000748145 0.00123761 0)
(0.000628972 0.00112484 5.2162e-21)
(0.000619532 0.00105768 -2.60457e-21)
(0.000701983 0.00133399 4.83889e-22)
(0.000802942 0.00139639 0)
(0.000748853 0.0012614 2.58095e-22)
(0.000775887 0.00137736 6.87771e-24)
(0.000787978 0.00137094 -4.16687e-22)
(0.000668197 0.00112441 1.72077e-21)
(0.000510873 0.000826509 -6.56325e-22)
(0.000637675 0.00105287 5.55042e-22)
(0.000857728 0.00151764 1.10089e-21)
(0.000576819 0.000466228 -7.97155e-22)
(0.000653602 0.000548371 -1.12575e-21)
(0.000396629 0.000716174 -7.29891e-22)
(0.000677223 0.00118028 0)
(0.000972299 0.00164826 -1.28652e-22)
(0.000590066 0.00108152 -2.02323e-22)
(0.000642211 0.000849477 -1.32133e-22)
(0.000444491 0.000726668 0)
(0.000565658 0.00111632 2.45386e-23)
(0.000685676 0.000712354 0)
(0.000893452 0.00162221 -4.73609e-23)
(3.61265e-05 0.000172818 2.9813e-21)
(0.000928028 0.00157732 4.02681e-22)
(0.000905164 0.000164167 1.55953e-21)
(0.000726489 0.0012213 0)
(0.000421356 0.000816866 -5.01258e-22)
(0.000891256 0.00155078 -6.56891e-22)
(0.0006044 0.00117206 -1.21465e-21)
(0.000580859 0.00110743 2.35044e-22)
(0.000290644 0.000701286 -1.57082e-21)
(0.000542003 0.000923959 -6.18645e-22)
(0.000774949 0.0009499 -9.81049e-22)
(0.000458251 0.000901138 2.23309e-21)
(0.000664002 0.00123856 1.16037e-21)
(0.000799365 0.00140402 -8.21919e-22)
(0.00063559 0.00111829 1.03165e-21)
(0.000631717 0.00111564 -2.90893e-21)
(0.000526797 0.000915355 1.22582e-21)
(0.000822733 0.00146919 2.71273e-22)
(0.000610739 0.00108291 5.94569e-22)
(0.000773336 0.00138073 2.01544e-21)
(0.000652223 0.00115599 1.13036e-23)
(0.000626174 0.00111707 2.57716e-21)
(0.00061534 0.00107943 -1.30553e-21)
(0.000627804 0.00109877 0)
(0.000747459 0.00131384 -3.56494e-22)
(0.000819843 0.00144687 -1.20479e-23)
(0.000608476 0.00107411 0)
(0.000776371 0.00136167 0)
(0.000643566 0.00113307 2.45476e-21)
(0.000741782 0.00130185 -3.31844e-22)
(0.000616009 0.00109042 -2.16571e-21)
(0.00062579 0.00109353 -1.75283e-21)
(0.000806259 0.00144266 -2.15086e-22)
(0.000779395 0.00135398 -8.64595e-22)
(0.000741823 0.0012922 -5.70735e-22)
(0.000778642 0.00135246 7.80756e-22)
(0.000775907 0.00135322 7.00848e-22)
(0.000886818 0.00153373 1.78046e-21)
(0.000622285 0.000309352 -1.99584e-21)
(0.000582819 0.000979316 1.1869e-21)
(0.000688625 0.00122073 -2.97927e-21)
(0.000305098 0.000544225 7.00628e-22)
(0.000784163 0.00132779 -4.67986e-22)
(0.000707652 0.00120105 9.23399e-22)
(0.000728293 0.00128971 -9.31981e-22)
(0.000942244 0.00162201 0)
(0.000868063 0.00152574 0)
(0.000717046 0.000785304 2.01614e-21)
(0.000655514 0.0011148 1.9064e-21)
(0.000514275 0.000206744 -4.6342e-21)
(0.000331662 0.000586168 0)
(0.000782 0.00132369 4.53793e-22)
(0.000991078 0.000289728 -5.59028e-24)
(0.000393495 0.000633552 -1.75094e-21)
(0.000862356 0.00148797 1.56608e-22)
(0.000933493 0.00161841 -1.43388e-22)
(0.00062881 0.00114143 2.4851e-23)
(0.000632571 0.00109995 -6.1763e-22)
(2.10484e-05 -2.86635e-05 0)
(0.00044196 0.000857014 2.19165e-22)
(0.000435386 0.000845216 -2.4691e-22)
(0.000487248 0.000835599 -2.25362e-21)
(0.000478428 0.000860219 2.36066e-22)
(0.000485452 0.00104448 -9.22003e-23)
(0.000686135 0.00119354 -1.09722e-21)
(0.000805268 0.00139151 -1.33296e-22)
(5.45147e-05 -3.39395e-05 4.61442e-25)
(0.000633623 0.00105986 0)
(0.000725983 0.00125429 0)
(0.000622467 0.00112752 -1.83274e-21)
(0.000877396 0.00150784 3.65083e-22)
(0.000623498 0.00112815 2.3926e-23)
(0.000695573 0.00126289 0)
(0.00132627 0.00118862 -1.0475e-21)
(7.50913e-05 0.000472516 6.33883e-24)
(0.000531117 0.000904172 6.37902e-22)
(0.00126969 0.000535308 0)
(0.000546372 0.000835323 0)
(0.000540445 0.000823267 -8.86957e-22)
(0.000615971 0.00107263 -1.01793e-22)
(0.000713757 0.00117839 -2.84185e-22)
(0.00070589 0.00115778 0)
(0.000795414 0.0014676 4.89538e-23)
(0.00078295 0.00140311 -1.57528e-21)
(0.000740973 0.00131344 -5.73866e-22)
(0.000615712 0.00109087 -1.22828e-21)
(0.000370533 0.000602316 0)
(0.000924545 0.00164184 7.66254e-23)
(0.00075348 0.00131092 -1.68983e-21)
(0.000655663 0.00115634 0)
(0.000620761 0.00110511 -1.03267e-21)
(0.000628632 0.00112289 -7.90892e-22)
(0.000630558 0.00110478 -1.57371e-21)
(0.000659867 0.00116384 0)
(0.000645574 0.00117684 -9.50349e-22)
(0.000583248 0.00107108 -1.85001e-22)
(9.25971e-05 0.000529128 -8.49772e-24)
(0.000501609 0.00135725 5.69641e-22)
(0.00156173 0.000490998 8.94122e-22)
(0.000787131 0.00137035 4.53957e-22)
(0.0007551 0.00132547 -8.74789e-22)
(0.000724465 0.00121601 9.86518e-22)
(0.000254443 0.000606568 -2.16174e-21)
(0.000741845 0.00139632 2.50869e-23)
(0.000573451 0.00046566 0)
(0.000385414 0.00069265 -7.90936e-22)
(0.000801468 0.00138944 0)
(0.000805695 0.00140474 4.7468e-22)
(0.000575175 0.000992969 -2.95309e-22)
(0.000924737 0.00163991 -7.53454e-23)
(0.000646878 0.00113598 -4.11386e-23)
(0.000637426 0.00111815 -1.77798e-21)
(0.000410452 0.000597037 -9.46534e-22)
(0.000651378 0.0011747 2.05188e-21)
(0.000719263 0.00116497 0)
(0.000139454 0.000366975 -9.36152e-22)
(0.000716841 0.000101095 2.2042e-24)
(0.000599592 0.000519081 -4.38658e-21)
(0.000756318 0.00131555 8.17378e-22)
(0.000735422 0.00122441 0)
(0.000788635 0.00137561 1.68992e-22)
(0.000786238 0.00137043 4.87925e-22)
(0.000964966 0.000184524 -1.4851e-21)
(0.000470219 0.000562892 -2.17017e-21)
(0.000404761 0.000689277 -2.28407e-21)
(0.000769493 0.00153926 7.22424e-22)
(0.000657554 0.00112891 -1.53037e-22)
(0.000680453 0.00121633 -1.46687e-21)
(0.000634015 0.00105416 -1.64524e-21)
(0.000784106 0.00133612 8.07479e-22)
(0.000729881 0.0012192 -4.41083e-22)
(0.000148215 0.000731826 0)
(0.000751367 0.00129541 -1.44291e-23)
(0.000689511 0.00134958 -2.02577e-23)
(0.000374485 0.000686294 -8.18706e-22)
(0.0008865 0.0015155 -1.4911e-21)
(0.000310512 0.000558731 1.53872e-22)
(0.000623091 0.00109864 2.74031e-22)
(0.000168551 0.00086731 0)
(0.000662625 0.00111809 -3.50876e-22)
(3.66385e-05 0.000231376 0)
(0.000702079 0.00118823 -8.53913e-22)
(0.000648846 0.00116651 -8.13719e-22)
(0.000626363 0.00108817 -6.21331e-22)
(0.000859366 0.00151793 1.03129e-22)
(0.000646688 0.00108248 4.62334e-22)
(0.00107737 0.000180819 -5.69499e-24)
(0.00071391 0.00124125 0)
(0.00061823 0.00100909 -4.90644e-22)
(0.000767494 0.00129763 0)
(0.000427088 0.000748871 2.14295e-21)
(0.000700608 0.00120723 1.94665e-21)
(0.000728608 0.00129661 -2.85683e-22)
(0.000620751 0.00108258 1.75885e-21)
(0.000603105 0.00106994 2.68666e-22)
(0.000610263 0.00106507 9.49242e-22)
(0.000614371 0.0010734 7.90346e-22)
(0.000742009 0.00129277 -4.29104e-23)
(0.000619958 0.0010745 -4.56841e-22)
(0.000679004 0.00119487 7.1848e-22)
(0.000672207 0.00115259 0)
(0.000541274 0.00129746 -1.90742e-24)
(0.000745871 0.0013165 1.5278e-21)
(0.000955493 0.00160958 -3.81498e-22)
(0.000758488 0.00134721 0)
(0.000378574 0.000615129 1.04328e-21)
(0.000376484 0.000605457 0)
(0.000625579 0.00112586 -6.47527e-22)
(0.000586526 0.000272707 1.19512e-21)
(0.000183148 0.000724872 1.62024e-21)
(0.000472004 0.000939175 4.73906e-22)
(0.000578353 0.000956218 1.0342e-22)
(0.000784441 0.0013702 0)
(0.000665911 0.0012192 1.96555e-22)
(0.00063267 0.00111107 1.14257e-21)
(0.000691373 0.0012406 -1.39112e-21)
(0.000680112 0.00120499 -1.91832e-21)
(0.000329264 0.000628625 3.95051e-22)
(0.000816981 0.00141622 -8.98425e-22)
(0.000656713 0.000302211 0)
(0.000738299 0.00127461 1.45253e-22)
(0.000687961 0.00120398 5.75417e-22)
(0.000571047 0.00098201 2.0924e-21)
(0.000365131 0.000624557 -8.91934e-22)
(0.000359993 0.000618394 -5.57036e-22)
(0.000360088 0.000614322 0)
(0.000362235 0.000610799 4.19739e-22)
(0.000362421 0.000605796 -4.94318e-22)
(0.000322517 0.000526865 0)
(0.000365719 0.000620766 7.12856e-22)
(0.000353487 0.000589089 8.98074e-22)
(0.000366853 0.000610414 2.20555e-21)
(0.000355185 0.00058256 3.07794e-21)
(0.000398858 0.000656071 -7.6285e-22)
(0.000378221 0.000630859 -3.48582e-23)
(0.000402861 0.000718706 1.79772e-21)
(0.00068629 0.00119635 6.85692e-22)
(0.000751958 0.00128935 -6.46766e-22)
(0.000706221 0.00120446 -8.1203e-22)
(0.000761847 0.0013494 9.72609e-22)
(0.000268047 0.000522298 0)
(0.000342798 0.000913833 1.54742e-21)
(0.000586882 0.000337083 -1.69723e-21)
(0.000719634 0.00127513 8.4368e-22)
(0.000349329 0.00125478 -1.09414e-21)
(0.000889644 0.00153592 -1.87239e-22)
(0.000769919 0.00140207 -2.44797e-22)
(0.000311481 0.00057125 3.65224e-21)
(0.000760051 0.00132102 6.8255e-22)
(0.000644725 0.00107115 -5.07585e-22)
(0.000886737 0.00153254 -2.96411e-22)
(0.000615213 0.00106985 1.57024e-23)
(0.000754277 0.00128085 9.97472e-22)
(0.0007269 0.00121654 9.43029e-22)
(0.000349893 0.00111162 -7.3254e-22)
(0.00037131 0.000656913 -2.67591e-22)
(0.00080294 0.00139453 -1.28729e-22)
(0.00052716 0.000948447 0)
(0.000611878 0.00086711 -1.76316e-21)
(0.000592129 0.00128754 -7.68304e-22)
(0.000539363 0.000442009 0)
(0.000720689 0.00124426 3.88176e-22)
(0.00087898 0.00162745 4.76952e-22)
(0.000881077 0.00168982 -5.77379e-22)
(0.000658779 0.00117897 0)
(0.000399616 0.00100053 7.89882e-22)
(0.0008098 0.000102995 1.69475e-21)
(0.000602951 0.000979533 -8.4141e-22)
(0.00078662 0.00147934 -4.01616e-22)
(0.00042072 0.000710842 0)
(0.00040779 0.000686043 -4.27624e-23)
(0.000366563 0.000619243 2.5477e-21)
(0.00034752 0.000597639 -4.24632e-21)
(0.000357296 0.000603604 1.40939e-21)
(0.000350572 0.000587958 -1.02845e-23)
(0.000419995 0.000712984 2.58593e-22)
(0.000366204 0.000623577 2.81183e-21)
(0.000381983 0.000637258 -3.12946e-23)
(0.000352662 0.00057524 4.5258e-22)
(0.000296967 0.000754844 1.56815e-24)
(0.000514456 0.000934279 4.63487e-22)
(0.000522961 0.00076661 -8.51454e-22)
(0.000846312 0.00135812 3.48636e-21)
(0.000361787 0.000699694 1.90044e-24)
(0.000784591 0.00136884 6.95211e-22)
(0.000774012 0.00132679 8.3408e-22)
(0.000378848 0.000628392 2.89027e-21)
(0.000408669 0.00069929 -1.03874e-21)
(0.000455278 0.000766777 0)
(0.000739043 0.0012802 2.69764e-22)
(0.000732806 0.00124432 2.11112e-22)
(0.000372714 0.000612891 -3.00472e-21)
(0.000367922 0.00064425 2.75239e-22)
(9.20409e-05 -9.21755e-05 -3.16366e-22)
(7.62706e-05 0.000117946 1.28909e-21)
(0.000662303 0.00153186 -9.6694e-22)
(0.000654337 0.000490471 0)
(1.54696e-05 6.48497e-05 0)
(0.000370851 0.00068049 4.27369e-22)
(0.000724597 0.00127211 -1.67474e-21)
(0.000679499 0.00121141 0)
(2.63619e-05 1.34978e-05 0)
(0.000729071 0.00121991 7.83897e-24)
(0.000689576 0.000785986 1.94212e-22)
(0.000673153 0.00113864 0)
(0.000368899 0.000627184 9.12861e-22)
(0.000511889 0.00102671 -1.54332e-21)
(0.00033426 0.0005798 0)
(-2.82589e-05 0.00111498 -1.37606e-21)
(0.000717673 0.00120063 9.6038e-22)
(0.000849006 0.0014515 4.56606e-22)
(0.000832989 0.00145141 -1.30933e-21)
(0.000774832 0.00137044 1.28902e-21)
(0.000936178 0.00159595 2.75415e-22)
(0.000820564 0.00143595 7.08328e-22)
(-0.000279738 0.000460862 0)
(0.00037926 0.000640155 -1.93538e-21)
(0.000358799 0.0006228 -1.23284e-21)
(0.000338748 0.000574135 9.88066e-22)
(0.000403415 0.000685003 -4.63357e-22)
(0.000338084 0.000579556 0)
(0.000337624 0.000575029 0)
(0.000344594 0.000569033 -5.68538e-22)
(0.000407263 0.000682848 -4.85221e-22)
(0.000689525 0.00104001 0)
(0.000324794 0.000570508 1.29451e-21)
(0.000825208 0.00141879 -1.22821e-21)
(0.000550581 0.000955253 -1.24518e-21)
(0.000747713 0.00125465 7.21381e-22)
(0.000823673 0.00137005 -3.75269e-22)
(0.000224545 0.000597292 0)
(0.000803996 5.59603e-05 -1.97726e-21)
(0.000872725 0.00153446 1.75393e-21)
(0.000791735 0.00135977 -1.53315e-22)
(3.33564e-05 5.58346e-07 -1.12055e-21)
(0.000725344 0.00109971 -2.39264e-21)
(0.000639332 0.00111183 -2.72476e-23)
(0.000670684 0.00124855 2.06237e-22)
(0.000827609 0.00145131 0)
(7.76701e-05 -0.000170157 0)
(0.000207085 0.000600354 -6.8537e-22)
(0.000786557 0.00136566 1.48522e-22)
(0.000680841 0.00119693 3.31404e-21)
(0.000664524 0.00115632 -6.49206e-22)
(0.000422561 0.000880797 -9.6386e-22)
(0.000617795 0.00107057 -4.91067e-22)
(0.000742564 0.00128847 8.17043e-22)
(0.000397794 0.000724135 -7.19492e-22)
(0.000361008 0.000689925 -1.10589e-21)
(0.000776181 0.00132335 9.0229e-22)
(0.000577619 0.00125121 2.73217e-21)
(0.000722264 0.00129945 -1.54322e-21)
(0.000776381 0.00131576 -8.54429e-22)
(0.000697091 0.00120214 -6.30422e-22)
(0.000777333 0.00136907 0)
(0.000732236 0.00129716 -2.95155e-23)
(0.000616243 0.00107581 4.45076e-22)
(0.000611611 0.0010669 0)
(0.000600495 0.00106737 -8.61611e-22)
(0.000636425 0.00115235 0)
(0.000624746 0.00109298 2.41028e-21)
(0.000648767 0.00114022 -1.14691e-21)
(0.000627995 0.00111419 0)
(0.000176122 0.000553278 -5.03127e-21)
(0.00129089 0.000923561 -1.21735e-21)
(0.000429249 0.00085539 -4.65236e-22)
(0.000416253 0.000424767 0)
(2.74463e-05 5.18066e-05 0)
(0.000638652 0.00111694 -2.40773e-21)
(0.000690365 0.00123442 -1.31069e-21)
(0.000692527 0.00121274 -6.68781e-22)
(0.000786092 0.00135215 -3.84372e-22)
(0.000677053 0.00121172 -5.65676e-22)
(0.000833398 0.00165109 -2.7425e-22)
(0.000570315 0.00105256 -1.22489e-21)
(0.000819064 0.00142606 -6.54114e-22)
(0.000680247 0.00119647 1.82867e-22)
(0.000583936 0.000882104 0)
(0.000764299 0.00135121 -2.15201e-22)
(0.000601966 0.00107797 -3.36853e-22)
(0.000804873 0.00158456 -6.79321e-22)
(0.00070582 0.00121655 -1.29513e-22)
(0.000624849 0.00109121 -3.40899e-22)
(0.000572664 0.000698303 4.6432e-23)
(0.000607921 0.00107179 -1.85374e-21)
(0.000517116 0.000931576 0)
(0.000730678 0.00127589 -7.88832e-24)
(0.000624761 0.00123232 -1.66922e-23)
(0.000770547 0.00144948 1.22249e-21)
(0.000672736 0.00118288 -3.39192e-22)
(0.00048334 0.0009136 -7.20869e-22)
(3.39639e-05 8.06142e-06 1.07946e-21)
(0.000737839 0.00125775 -3.93623e-22)
(0.000921507 0.00154227 -1.72046e-22)
(0.000484398 0.000831463 -1.01792e-21)
(0.000412794 0.00113578 -1.92092e-21)
(0.000632017 0.00105567 -5.36619e-22)
(0.000759935 0.00132786 9.18847e-22)
(0.000810937 0.00140396 -8.86795e-23)
(0.000622394 0.000961074 4.92495e-22)
(0.000666088 0.00118283 1.62985e-22)
(0.000674624 0.00119677 2.15614e-21)
(0.000670219 0.0011597 -1.44658e-21)
(0.000613836 0.00108436 -4.64958e-22)
(0.000861418 0.00156078 -1.81777e-21)
(0.00024489 0.000768356 1.29407e-21)
(0.000768827 0.00135397 -3.25496e-22)
(0.000737216 0.0012982 0)
(0.000662015 0.0011574 8.68801e-22)
(0.000630658 0.00109587 9.65024e-22)
(0.000775726 0.00135386 3.06024e-22)
(0.000638176 0.00110436 2.21322e-21)
(0.000642208 0.00112025 -2.18398e-21)
(0.000877281 0.00154205 7.28178e-22)
(0.000938945 0.00161883 -3.6275e-22)
(0.000636327 0.0010745 -2.50738e-21)
(0.000699746 0.00119439 2.02108e-21)
(0.000379721 0.000691137 0)
(0.00082245 0.00144382 -1.51833e-21)
(0.000723029 0.0013169 2.63419e-23)
(0.00103535 4.36946e-05 9.29352e-22)
(0.00101262 0.000693715 1.23024e-21)
(0.000891991 0.00152804 1.64608e-22)
(0.000733214 0.00122381 -4.41937e-22)
(0.000631503 0.00108159 -7.43411e-22)
(0.00066089 0.00118216 3.06647e-22)
(0.000611369 0.00107266 0)
(0.000623327 0.00144632 -2.5941e-21)
(0.000825167 0.00143685 7.12071e-22)
(0.000947957 0.0016266 -6.26723e-24)
(0.000490422 0.000830182 1.116e-21)
(0.000267363 9.57105e-05 0)
(0.000812815 0.00140053 1.55232e-21)
(0.000409269 0.000688238 1.85566e-22)
(0.000930328 0.00159479 -5.42938e-22)
(0.000837048 0.00147011 9.6908e-22)
(0.000743316 0.0012337 0)
(0.000753237 0.00123204 0)
(0.000453531 0.000856357 -1.60672e-21)
(0.000654011 0.00112973 -2.671e-22)
(0.000724886 0.00121907 0)
(0.00075044 0.00125786 -1.46286e-21)
(0.000549083 0.000640308 1.49043e-21)
(0.000954536 0.00164338 8.21897e-22)
(0.000757965 0.00122393 2.57999e-21)
(0.000181931 0.0011887 -1.95978e-21)
(0.000821306 0.00142717 1.07868e-21)
(0.000721679 0.00116239 -5.18629e-22)
(0.000683639 0.000878463 2.88861e-22)
(0.000734971 0.0012149 1.27801e-21)
(0.000444743 0.0009092 -1.7902e-21)
(0.000560937 0.000885499 8.60229e-22)
(0.000752726 0.00155116 7.52041e-22)
(0.000825402 0.00143199 8.37358e-22)
(0.000608886 0.00100635 -1.18096e-22)
(0.000521214 0.000902632 1.22674e-22)
(0.00062026 0.00116119 0)
(0.000502684 0.000871379 1.27561e-22)
(0.000260507 0.000494668 -1.34038e-24)
(0.000628443 0.00103618 -1.10626e-21)
(0.00073247 0.000844634 -8.91399e-22)
(0.000773575 0.00135625 -1.17439e-22)
(0.000508824 0.000491295 -3.63015e-22)
(0.000630901 0.00105628 -5.7061e-22)
(0.000712797 0.00119742 -2.43969e-22)
(0.000522153 0.00106057 1.30251e-21)
(0.000802382 0.00139499 1.18439e-21)
(0.00104013 9.97665e-05 0)
(0.000671597 0.000342615 -4.66616e-21)
(0.000572123 0.00113144 -3.40682e-21)
(0.000427662 0.00134301 -1.67908e-21)
(0.000803037 0.00131949 5.31305e-24)
(0.000372328 0.00063436 -1.74813e-22)
(0.000670984 0.0011823 7.32733e-22)
(0.000516053 0.00102419 1.76452e-23)
(0.000369835 0.000677518 1.29924e-21)
(0.000366134 0.000672067 1.84078e-21)
(0.000304325 0.000539173 8.27138e-22)
(0.000423483 0.000608873 2.84847e-22)
(0.000907916 0.00153993 -3.90976e-22)
(0.000666962 0.00119409 1.13692e-21)
(0.000803507 0.00151669 0)
(0.000687185 0.0011814 0)
(9.95112e-05 0.000154794 -8.65893e-22)
(0.000240513 0.000557848 1.45908e-21)
(0.000768454 0.00135503 -2.65898e-22)
(0.000740149 0.00129959 -1.3932e-21)
(0.000661228 0.00115866 0)
(0.000626407 0.00110249 9.84059e-22)
(0.000778384 0.00135553 7.28707e-22)
(0.000635635 0.00110691 -7.42375e-22)
(0.000637246 0.00112345 0)
(0.00066673 0.00116459 0)
(0.000670635 0.00119923 -7.1621e-22)
(0.000604033 0.00108914 3.88026e-22)
(0.000826347 0.00145126 -2.27049e-22)
(1.40264e-05 1.5465e-05 -7.74208e-22)
(0.000781842 -0.00016813 7.10259e-22)
(0.000803489 0.00144362 -1.45193e-21)
(0.000725821 0.00121813 9.83247e-22)