/*--------------------------------*- C++ -*----------------------------------*\
  =========                 |
  \\      /  F ield         | OpenFOAM: The Open Source CFD Toolbox
   \\    /   O peration     | Website:  https://openfoam.org
    \\  /    A nd           | Version:  8
     \\/     M anipulation  |
\*---------------------------------------------------------------------------*/
FoamFile
{
    version     2.0;
    format      ascii;
    class       volVectorField;
    location    "8.4";
    object      U;
}
// * * * * * * * * * * * * * * * * * * * * * * * * * * * * * * * * * * * * * //

dimensions      [0 1 -1 0 0 0 0];

internalField   nonuniform List<vector> 
3080
(
(0.000106253 6.36161e-05 -1.04529e-20)
(0.00108213 0.00175044 -2.44475e-21)
(0.00102273 -4.69091e-06 4.73415e-22)
(9.50507e-05 8.31159e-05 0)
(0.00145347 0.000178542 -4.69966e-21)
(0.000702205 -0.000387383 0)
(8.63137e-05 0.000575865 2.10854e-21)
(0.00237141 0.00421852 0)
(0.00103803 -9.71136e-06 -3.62109e-21)
(0.000985476 3.57411e-06 5.06711e-21)
(1.59798e-05 6.82359e-05 0)
(0.000947878 1.16024e-05 0)
(0.000943681 0.0023661 6.85471e-21)
(0.00155278 0.000193753 -6.41817e-23)
(2.79797e-05 0.000166413 -2.00337e-21)
(0.00153779 0.00108118 0)
(0.000987417 -1.45809e-06 7.63542e-21)
(1.60074e-05 -7.46166e-05 2.10656e-21)
(1.2454e-05 4.99624e-05 0)
(0.0010783 4.28886e-05 -3.85834e-21)
(0.00219542 0.00410822 1.04154e-20)
(0.000951073 -0.000468926 1.14334e-21)
(0.00117875 -2.31283e-05 -6.91092e-21)
(0.00261856 0.00424995 -3.43385e-21)
(0.00132263 0.000115724 -1.81748e-20)
(0.000233931 0.00170208 -2.18764e-23)
(6.80348e-05 -0.000307601 -4.33811e-21)
(0.00167259 0.000687724 2.39656e-21)
(9.29972e-06 2.73714e-05 -2.53189e-22)
(0.00139705 0.000985702 1.16746e-20)
(0.00126275 0.0028207 1.66111e-20)
(0.00216522 0.00457042 -6.39536e-21)
(0.000421567 0.00214601 -8.79003e-21)
(0.00189106 0.00405479 3.01943e-21)
(0.00155357 0.00439707 4.44923e-21)
(0.00091979 -2.7092e-05 1.53834e-21)
(0.000221766 -0.000654608 -1.38382e-21)
(0.000573194 0.00415988 0)
(0.000617505 -0.000126142 1.83845e-21)
(0.000654746 0.00153031 8.86409e-21)
(0.000231473 6.78671e-05 0)
(0.000589622 -6.29156e-05 -3.74554e-21)
(0.000925554 1.92735e-07 6.37905e-21)
(0.00045406 -6.17377e-05 0)
(0.00182513 0.000292575 0)
(3.81499e-05 0.000224525 -5.43276e-22)
(0.000966905 0.000100544 -6.14073e-21)
(7.16177e-06 2.38425e-06 -2.00771e-21)
(4.13351e-05 -6.66172e-06 4.75471e-21)
(0.0002851 0.00201215 5.19923e-21)
(0.000520811 -6.00337e-05 -3.92205e-22)
(0.000780256 0.00356089 -1.71483e-22)
(0.000198999 0.00108491 5.67637e-21)
(0.000733504 -0.000314648 9.99289e-22)
(0.00169133 0.000258466 6.32263e-23)
(0.000845204 -3.92902e-06 0)
(0.000843373 4.69059e-06 -1.04133e-21)
(0.00117542 0.00209485 -5.84099e-22)
(0.00172221 0.00334432 4.22739e-21)
(0.00102894 1.10034e-05 -6.34878e-21)
(0.00119385 0.00218765 4.72298e-22)
(0.00117533 0.0021579 0)
(0.0011832 0.00210216 -4.33946e-22)
(0.000881563 -2.30254e-05 0)
(0.0023894 0.00404023 -1.20067e-21)
(0.00234072 0.00395379 -1.17013e-21)
(2.46132e-05 -0.000144128 1.34311e-21)
(0.000684348 -0.000146975 3.90445e-21)
(0.00223873 0.00386777 -1.65365e-22)
(0.00118372 0.00210252 7.99108e-22)
(3.7022e-05 -0.000189681 9.90684e-25)
(0.0022592 0.00388293 -4.74865e-22)
(0.0019184 0.00381997 4.06269e-21)
(0.00118219 0.00210014 1.25722e-21)
(0.000357926 -9.37007e-05 -7.53514e-21)
(0.00203151 0.00395683 0)
(0.000325458 -8.04173e-05 -2.11182e-22)
(0.00226781 0.00388448 -3.10747e-22)
(0.000527271 0.000151752 -1.49637e-20)
(0.000348018 6.78172e-05 -9.60514e-21)
(0.00204789 0.00041357 0)
(6.46957e-05 -0.000187418 -1.09335e-21)
(0.00117933 0.00209711 -1.52496e-21)
(0.00143885 0.00290301 2.9169e-21)
(0.00105722 0.000195573 1.85562e-21)
(0.00227054 0.00388307 4.77208e-22)
(0.000969453 0.000171815 3.90882e-21)
(0.0023933 0.00403235 -7.01376e-22)
(0.00234472 0.00394611 -3.92133e-22)
(0.000964725 0.000130696 5.01028e-24)
(0.00227083 0.00388043 0)
(0.00117628 0.00209273 3.50963e-22)
(0.00224778 0.00387259 -1.02196e-22)
(0.00119328 0.00218179 1.27112e-21)
(0.001175 0.00215235 -1.42729e-21)
(0.00103253 -8.59838e-06 9.79361e-22)
(0.00226992 0.00387711 6.55209e-22)
(0.00239129 0.00402931 2.02317e-21)
(0.00234281 0.0039431 2.20771e-21)
(0.000557183 0.000182664 1.83842e-21)
(0.000598492 0.000231431 0)
(0.00238162 0.00403669 -3.368e-22)
(0.00233223 0.00395023 -4.80223e-22)
(0.00207401 0.00390449 4.16825e-21)
(0.000911921 0.000269534 1.20754e-21)
(0.00133641 0.000832117 2.45678e-23)
(1.17799e-05 -4.57192e-05 -5.96012e-22)
(0.00226904 0.00387353 -1.53444e-21)
(0.00119061 0.00217738 1.51033e-21)
(0.00117232 0.00214808 1.4418e-21)
(0.0023902 0.00402696 0)
(0.00234177 0.00394049 0)
(0.00050051 -0.000156205 0)
(0.0023923 0.00403694 -1.76368e-22)
(0.00234377 0.00395061 7.29911e-22)
(0.00192077 0.00381295 2.01148e-21)
(0.00101011 0.000211092 -6.89045e-21)
(0.00238195 0.00404385 6.10708e-23)
(0.00233226 0.003957 6.84981e-23)
(0.00118866 0.00217359 -1.68618e-21)
(0.00117031 0.00214438 -1.83939e-21)
(0.00100889 1.07219e-05 -1.97768e-21)
(0.00107822 4.40885e-05 -1.43172e-24)
(0.00239331 0.00403562 6.19435e-22)
(0.00234478 0.00394932 8.92499e-22)
(4.16479e-05 0.000422786 -5.68773e-22)
(0.000251413 -1.52888e-05 5.96599e-21)
(0.00238745 0.0040243 -2.11931e-21)
(0.00233907 0.00393555 -2.30903e-21)
(0.00170068 0.000392433 -4.05055e-21)
(0.0023926 0.00403449 -9.12238e-22)
(0.00234395 0.00394826 -1.2672e-21)
(0.000579198 0.00026726 6.41021e-21)
(0.00239225 0.0040334 0)
(0.0023436 0.00394718 0)
(1.70956e-05 0.000109117 2.1025e-20)
(0.00101368 -0.000140954 9.09452e-21)
(0.000102349 1.79724e-05 2.64441e-21)
(0.00238433 0.00403717 5.82891e-22)
(0.00233658 0.00393476 3.16168e-21)
(0.00226154 0.00386597 -1.16007e-21)
(0.00117059 0.00207676 5.52071e-22)
(0.000464421 8.62364e-05 -1.02003e-20)
(0.00239242 0.00403227 -1.18132e-21)
(0.00234378 0.0039461 -1.29225e-21)
(0.000951875 0.00169965 -2.51979e-21)
(0.000346995 -1.28787e-06 -1.13754e-21)
(0.00118508 0.00216448 2.56731e-22)
(0.00116576 0.002136 0)
(0.00119715 0.0021941 5.09242e-22)
(0.0011784 0.00216419 5.63325e-22)
(0.000217993 -1.3159e-05 6.7842e-21)
(0.000996256 5.82063e-05 2.82991e-21)
(0.00057786 0.00033615 0)
(0.000312611 -1.00064e-05 -1.06011e-21)
(0.00238337 0.00405112 -2.56543e-21)
(0.00233471 0.0039368 -2.08269e-21)
(0.00179829 0.00360386 0)
(0.00117678 0.0020991 4.70186e-22)
(0.000618611 0.000307793 -6.47082e-21)
(0.00225903 0.00386686 -1.30452e-21)
(0.00122786 0.00217672 -3.45285e-22)
(0.00116195 0.00215104 9.83345e-24)
(0.00163504 0.000275637 1.78191e-21)
(0.00115859 0.002074 2.49618e-22)
(0.00116977 0.00207096 -6.24623e-22)
(8.84131e-05 3.84228e-05 0)
(0.000935318 -0.000123821 -5.36573e-21)
(0.00118249 0.00210565 1.65878e-21)
(0.0011858 0.00215921 -2.83012e-22)
(0.0011639 0.00213188 0)
(0.000964544 0.000123266 3.69669e-21)
(0.0022804 0.00370771 -1.73049e-21)
(0.0022538 0.00388147 2.80256e-21)
(0.00172462 0.00355087 1.87027e-21)
(0.00118293 0.00210497 0)
(0.0011672 0.00211518 3.92044e-22)
(0.0012638 0.00210067 2.29035e-21)
(0.000191053 -6.54018e-06 1.97842e-25)
(0.00227906 0.0041849 1.28539e-23)
(0.00220803 0.00409186 1.28708e-23)
(0.00214624 0.00400114 0)
(0.00226573 0.00386851 8.38598e-22)
(0.00117206 0.00206801 -3.37011e-21)
(0.00136558 0.00223115 7.72148e-21)
(0.000988856 6.77981e-05 3.07513e-21)
(0.00224944 0.00390594 -1.45648e-21)
(0.00118052 0.00210131 -2.77951e-22)
(0.00118951 0.00216782 3.09741e-22)
(0.00116354 0.00213169 -2.67865e-21)
(8.18373e-05 -0.000166676 1.0063e-20)
(0.00226449 0.00386592 3.69157e-21)
(0.000730474 0.000531075 -3.35973e-21)
(0.00214246 0.00411045 -9.13393e-22)
(2.73004e-05 -4.27339e-05 1.21481e-21)
(0.00238854 0.00402255 -1.681e-23)
(0.0023401 0.00393598 -2.63957e-21)
(5.45841e-05 0.0004617 3.62849e-22)
(0.00123478 0.00216692 -2.85389e-21)
(0.00116005 0.00215575 -3.0776e-21)
(0.0011883 0.00218363 -2.94194e-22)
(0.00116866 0.00215301 -3.29347e-22)
(0.00117792 0.00209786 0)
(0.00119165 0.00179144 0)
(0.00226381 0.00386453 -9.57047e-22)
(0.00237836 0.00404681 -7.17807e-22)
(0.00233665 0.00391241 0)
(0.0011781 0.0020894 3.64701e-21)
(0.00228677 0.00376172 -1.61841e-21)
(9.25078e-06 -1.13446e-05 2.49468e-21)
(0.00119263 0.00218223 1.63796e-22)
(0.00117429 0.00215283 1.46793e-21)
(0.00110158 2.3123e-05 9.23801e-21)
(0.000176453 1.61999e-06 -2.97622e-20)
(0.000786688 0.00159434 4.68632e-21)
(0.000898448 6.20197e-06 -1.29642e-20)
(0.00226216 0.00386302 -2.08653e-21)
(0.00118057 0.00204364 -4.11952e-22)
(0.00123147 0.00201774 7.76894e-22)
(0.00117533 0.00209302 1.90995e-21)
(0.00119836 0.00219261 7.63522e-22)
(0.00117975 0.00216291 1.68486e-22)
(0.00238435 0.00378438 0)
(0.00119002 0.00217846 0)
(0.00117162 0.00214915 2.06649e-22)
(0.000637983 0.000593714 -5.83961e-21)
(0.00124416 4.52548e-05 2.4399e-21)
(0.000454334 0.000552792 -9.26272e-21)
(0.00119842 0.00219133 6.44701e-22)
(0.00117991 0.00216165 -1.06392e-22)
(0.00227329 0.00408328 -3.68467e-21)
(0.000609226 0.000517477 3.46183e-21)
(0.0011569 0.0016716 -4.29494e-22)
(0.00118908 0.00211666 3.93586e-21)
(0.00103409 0.000178298 3.58859e-21)
(0.00227178 0.00392561 0)
(0.00236675 0.00405294 -3.47883e-21)
(0.00119744 0.002189 8.99948e-22)
(0.00117902 0.00215935 9.87229e-22)
(0.000110053 0.000107041 -1.07121e-20)
(0.00118807 0.00217491 0)
(0.00116954 0.00214569 0)
(0.000985635 0.000149782 2.69079e-21)
(0.00261179 0.00431335 3.37384e-21)
(0.00233713 0.00419221 -6.19806e-23)
(0.00243759 0.00441701 0)
(0.00237463 0.00432041 -3.24091e-23)
(0.00231125 0.00399604 -3.41431e-21)
(0.000964681 1.59923e-05 0)
(0.00119671 0.00218689 0)
(0.00117836 0.00215729 1.10172e-21)
(0.00104461 0.00279805 0)
(0.00233879 0.00405706 -3.05006e-21)
(0.00121198 0.00221876 1.11143e-23)
(0.00118816 0.00218519 2.13836e-22)
(0.00150911 0.00177168 -1.9147e-22)
(0.00233307 0.0040586 -5.76949e-21)
(0.00119513 0.00218519 1.0303e-21)
(0.00117681 0.00215566 2.37655e-21)
(0.00236186 0.00409086 3.6269e-21)
(3.79191e-05 3.66275e-06 8.57685e-21)
(0.00237422 0.00404724 3.35639e-21)
(0.0023303 0.0039378 0)
(0.00222663 0.00395652 3.06909e-21)
(0.00231208 0.00404931 1.00521e-23)
(0.00222657 0.00395137 -3.22064e-21)
(0.0023171 0.00404828 2.93517e-21)
(2.87303e-05 -3.73017e-05 -6.8877e-23)
(0.00222342 0.00395968 4.73467e-23)
(0.00229497 0.00405134 2.70432e-21)
(0.000889777 -1.82749e-05 1.42467e-20)
(0.00118507 0.00216356 2.11971e-21)
(0.00116504 0.00213542 2.5886e-21)
(0.00116824 0.00207496 5.82345e-22)
(0.00252125 0.00436441 3.10358e-21)
(0.000576496 0.000589229 5.49056e-21)
(0.00222406 0.00395992 -2.65982e-23)
(0.00228752 0.00405474 0)
(0.00012453 0.00011042 -5.51697e-21)
(0.00222498 0.00395844 0)
(0.00228136 0.00404966 0)
(0.00235828 0.00403239 3.51418e-21)
(0.00222421 0.00395532 -2.56154e-21)
(0.00227739 0.00404163 -6.94593e-21)
(0.00209935 0.00408557 4.924e-22)
(0.00221833 0.00395368 -9.0472e-21)
(0.00229657 0.00404389 0)
(0.00219264 0.0037775 6.2437e-21)
(0.0011748 0.00208977 0)
(0.00222612 0.00395323 0)
(0.0022756 0.00403688 0)
(0.00217942 0.00380601 4.7271e-24)
(0.00118726 0.00216185 2.81687e-22)
(0.00116381 0.00213317 -2.52752e-21)
(0.00116811 0.00206991 -1.78346e-23)
(0.00222455 0.00395169 -2.19801e-21)
(0.00227367 0.00403488 -6.90191e-23)
(0.00297856 0.00339711 1.33648e-20)
(0.00219573 0.00430122 -4.68779e-23)
(0.00227424 0.00437692 -6.33451e-23)
(0.00221908 0.00428724 -9.26741e-24)
(0.00217936 0.00382665 4.00456e-23)
(0.00219262 0.00385211 2.83674e-21)
(0.00222297 0.00395015 0)
(0.00227204 0.00403344 0)
(0.00117409 0.00208718 -1.81949e-21)
(0.00222204 0.0039485 -1.86306e-21)
(0.00227107 0.00403193 -1.74375e-21)
(0.00221766 0.00395608 0)
(0.0022853 0.00405022 -3.56738e-23)
(0.00220302 0.00385516 5.14198e-21)
(0.000913342 1.10808e-05 4.38231e-21)
(0.00222065 0.00394563 -1.74845e-21)
(0.00226971 0.00402891 0)
(0.00226136 0.00367702 1.70886e-21)
(0.00220409 0.0038516 -3.06302e-23)
(0.00225945 0.0042467 -1.32171e-20)
(0.0021853 0.00384279 -2.82346e-21)
(0.00222052 0.00393944 -1.52506e-21)
(0.00226938 0.00402246 -6.88526e-23)
(0.00219859 0.0038563 -5.44804e-21)
(0.00119452 0.00217406 -2.49008e-21)
(0.00116388 0.00213411 -2.70872e-21)
(5.29455e-05 0.00038613 5.22243e-22)
(0.00116987 0.00207016 2.70743e-21)
(0.00117293 0.0020838 2.43925e-21)
(0.00220244 0.00384824 -2.14022e-21)
(0.00222057 0.00394036 1.26856e-21)
(0.00226946 0.00402356 1.15886e-21)
(0.00222252 0.00395621 2.36147e-21)
(0.00227299 0.00404203 4.45334e-21)
(0.00221869 0.00395561 -5.50155e-21)
(0.00227997 0.0040489 -2.5121e-21)
(0.00221793 0.00393945 0)
(0.00226688 0.00402274 1.01851e-21)
(0.00220038 0.00384546 -3.2311e-23)
(0.00221667 0.00393582 9.64183e-22)
(0.00226565 0.00401896 8.78102e-22)
(0.00219951 0.00384342 0)
(0.00117145 0.00208115 8.4722e-24)
(0.00220431 0.00385403 -5.04886e-21)
(0.00118651 0.00216932 0)
(0.00116779 0.00214031 2.07886e-21)
(0.00221724 0.00393544 0)
(0.00226619 0.0040183 -6.60861e-22)
(0.00103512 4.70274e-05 -2.73541e-24)
(0.00219805 0.00383994 1.59084e-21)
(0.00117973 0.00210399 2.25071e-21)
(0.00221151 0.00393984 1.12385e-21)
(0.0022603 0.00402255 1.01282e-21)
(0.00141529 0.00316956 -7.14914e-21)
(0.00222154 0.00395597 5.13317e-21)
(0.00227601 0.00404324 -2.50088e-23)
(0.00220176 0.00385672 5.3944e-21)
(9.95301e-05 3.41292e-05 -5.86658e-21)
(0.00219601 0.00383648 1.42185e-21)
(0.000400551 -9.38318e-05 0)
(0.00223042 0.00403718 -6.71504e-22)
(0.00218236 0.00395446 -7.55381e-22)
(0.00173079 0.00147593 1.24548e-20)
(0.000928435 3.72012e-05 0)
(0.00220394 0.00385091 2.25239e-21)
(0.00219464 0.00383373 2.20664e-24)
(0.00219319 0.00383169 9.08069e-22)
(0.00119521 0.00208446 3.21252e-21)
(0.00219135 0.00383251 1.39853e-21)
(0.000105761 0.000739034 4.70374e-21)
(0.00218708 0.00384223 0)
(0.00222031 0.00395123 -2.42813e-21)
(0.0022701 0.00403523 0)
(0.000923852 2.43879e-05 0)
(0.00220432 0.0038538 4.91516e-21)
(0.00104726 0.00190534 3.53571e-21)
(0.00227188 0.00487632 6.81588e-21)
(0.00220218 0.00384704 6.07516e-21)
(0.000633325 0.000447077 -1.47244e-20)
(0.00213291 0.00447442 -1.18682e-21)
(0.00221964 0.00394892 2.17281e-21)
(0.00226895 0.00403193 4.02832e-21)
(0.000992114 4.93398e-05 -8.67775e-21)
(0.0010647 0.00141533 -1.56571e-20)
(3.12541e-05 -8.85424e-06 -4.58304e-26)
(1.21285e-05 9.54216e-05 5.06759e-21)
(0.00221823 0.00394055 1.52629e-21)
(0.00226716 0.00402359 2.86292e-21)
(0.00220387 0.00385078 -2.26872e-21)
(0.00222978 0.00386501 1.02647e-22)
(0.00219977 0.00384263 7.43934e-23)
(0.00221822 0.00394776 0)
(0.00226731 0.00403071 -1.93583e-21)
(4.2395e-05 -1.02775e-05 3.68307e-21)
(0.00121125 0.00218031 -2.92206e-23)
(0.00116304 0.00213784 2.86256e-21)
(0.00202146 0.00427262 -2.84418e-21)
(0.00221692 0.00393756 7.5312e-23)
(0.00226573 0.00402044 6.95639e-23)
(6.99694e-05 0.000539602 -2.51599e-21)
(0.00220266 0.00384787 -2.04116e-21)
(0.0026524 0.00442002 0)
(0.00168579 0.00318945 2.16649e-21)
(0.000419855 0.000353438 4.09382e-24)
(0.00219802 0.00383871 1.48128e-21)
(0.00255621 0.00434115 -3.17383e-21)
(1.81364e-05 -4.62127e-05 -5.96797e-22)
(0.0022168 0.00394629 -8.66016e-24)
(0.00226586 0.00402935 3.48732e-21)
(0.00129513 0.00100144 -6.303e-21)
(0.00219634 0.00383574 0)
(0.00220107 0.0038464 0)
(0.00221667 0.00394457 1.73825e-21)
(0.00226575 0.00402768 0)
(0.000971606 0.000130982 9.87608e-22)
(0.00215431 0.00402685 0)
(0.00221354 0.00393254 -3.82961e-23)
(0.00226247 0.00401533 1.4737e-21)
(0.00112541 0.00115814 -1.35252e-20)
(0.00219504 0.00383382 9.93692e-22)
(0.00219989 0.00384327 -1.67556e-21)
(0.0022165 0.00394229 0)
(0.00226559 0.0040253 3.36144e-23)
(3.37253e-05 -3.34987e-05 -3.49136e-21)
(0.000971474 0.000259916 5.23697e-22)
(0.0021927 0.00383343 -7.51834e-22)
(0.00224548 0.00379469 -9.64862e-24)
(0.00218432 0.00369504 6.5109e-24)
(0.00212493 0.00356519 2.34356e-23)
(8.11029e-05 -9.31375e-05 2.39763e-20)
(0.00235909 0.00399181 0)
(0.00241483 0.00408041 0)
(2.95039e-05 0.000138716 -8.72213e-26)
(0.00219815 0.00383976 0)
(0.00221539 0.00393922 -1.35606e-21)
(0.00226438 0.00402211 -2.54864e-21)
(0.00220118 0.00394594 1.3208e-21)
(0.00224961 0.00402867 1.18255e-21)
(0.000167176 8.74885e-05 -8.57108e-21)
(0.00144115 0.000155653 1.27111e-20)
(0.0010428 -0.00019056 -6.57387e-21)
(0.000968955 0.00017899 1.12468e-20)
(0.00104903 0.000681374 -9.46003e-21)
(0.00233246 0.00394779 1.59778e-23)
(0.00238256 0.0040344 1.45791e-23)
(0.000943974 3.47283e-05 -2.03002e-21)
(0.00218935 0.00383882 5.39081e-22)
(0.00239504 0.00404357 1.44996e-22)
(0.00234627 0.00395704 -1.77921e-22)
(0.00256212 0.0045523 -9.51446e-24)
(0.00249767 0.00445326 2.14285e-22)
(0.00240495 0.00434003 2.36633e-23)
(9.24478e-05 -0.000107075 -1.53157e-20)
(0.00239599 0.00404272 3.7296e-22)
(0.0023473 0.00395623 1.96129e-22)
(0.00239567 0.00404122 0)
(0.00234695 0.00395477 -9.74374e-22)
(0.00239505 0.00404007 0)
(0.00234625 0.00395366 2.69314e-22)
(0.00239474 0.00403869 1.15884e-21)
(0.00234595 0.00395233 1.23115e-21)
(0.00219648 0.00383672 2.59722e-21)
(0.000550591 -8.02271e-05 0)
(0.00221434 0.00393738 -2.39638e-21)
(0.00226333 0.00402033 -2.18808e-21)
(0.0023621 0.00441963 -2.07187e-22)
(0.00230739 0.00432831 -5.50501e-23)
(0.00237321 0.00437909 5.93357e-23)
(0.00247987 0.00458751 7.63891e-23)
(0.00241526 0.00448928 1.5022e-22)
(0.00350437 0.000932872 8.97662e-21)
(0.00239073 0.00402766 -2.39591e-21)
(0.00234225 0.00394098 0)
(0.00134664 0.00157668 0)
(0.00079469 1.4573e-05 0)
(0.000161331 5.16922e-06 -4.63589e-21)
(0.00221329 0.00393636 0)
(0.00226222 0.00401942 0)
(4.41193e-05 -3.05317e-05 0)
(-0.000101637 0.00190009 8.57254e-21)
(-0.000185448 0.00168658 -8.81809e-21)
(2.98369e-05 0.000184323 -1.94165e-22)
(0.00238121 0.0040543 -3.31733e-21)
(0.00233412 0.00394025 5.05288e-21)
(0.00219543 0.00383433 1.05944e-21)
(0.000842112 1.54988e-05 7.82904e-21)
(0.000951599 3.96545e-05 0)
(0.000772981 -5.53677e-06 -4.82775e-21)
(0.00256019 0.0045643 2.47129e-22)
(0.00249845 0.0044629 0)
(0.00226802 0.00387447 -2.54039e-21)
(0.00226633 0.00387406 -1.80418e-21)
(0.00104646 3.05253e-05 -1.54341e-23)
(0.00221224 0.00393464 2.57455e-21)
(0.00226134 0.00401746 1.57762e-21)
(0.00226605 0.00387339 0)
(0.00210193 0.0045525 1.76554e-21)
(0.00226444 0.00387186 3.62442e-23)
(0.000268746 0.000113629 0)
(0.00105463 0.00246061 7.88304e-21)
(9.06345e-05 -7.05198e-05 -2.6076e-26)
(7.39975e-05 8.95145e-06 4.62144e-25)
(0.000246026 0.00013854 8.14598e-21)
(0.00121411 0.00149682 1.89141e-20)
(0.000847998 4.31663e-05 -2.13635e-24)
(0.000972134 0.000115565 -6.76692e-21)
(0.0021931 0.003833 7.92495e-22)
(0.00242784 0.00435186 1.16937e-22)
(0.00034035 0.000248111 0)
(0.000911722 0.00063607 -9.01197e-21)
(0.00225762 0.000211478 1.24544e-20)
(3.32947e-05 -2.77097e-05 -4.08387e-21)
(0.00257627 0.00429271 0)
(0.000995158 0.000116179 -1.80622e-21)
(0.00220911 0.00393463 -1.95421e-21)
(0.00225819 0.00401709 -1.17176e-21)
(0.00096881 4.22033e-05 0)
(0.000881435 0.0040365 -6.18173e-21)
(0.000447742 0.000477431 -1.92554e-20)
(0.00217457 0.00386343 3.06063e-22)
(0.000919769 -4.43908e-05 -6.82527e-21)
(0.000117059 -0.000127892 1.08002e-20)
(0.000107207 -0.000132283 -7.22247e-21)
(0.00193851 0.00444885 -3.81061e-21)
(0.000936799 1.17204e-05 0)
(0.00238673 0.0040383 4.80754e-22)
(0.00233795 0.00395187 0)
(0.00219062 0.00383644 0)
(0.00122733 0.000778026 -1.94503e-20)
(0.000870009 6.02697e-05 -4.42892e-25)
(0.00220446 0.00394157 -1.50915e-21)
(0.00225335 0.00402441 -1.35647e-21)
(0.000121239 -0.000104078 2.05363e-20)
(0.000987786 4.76419e-05 1.00211e-21)
(0.000886899 6.31299e-05 0)
(0.00226481 0.00388192 9.43654e-22)
(0.000657504 0.000480696 -1.44844e-20)
(0.00225337 0.00387785 6.09217e-22)
(0.00138635 0.000219481 0)
(0.000943623 4.58634e-05 0)
(0.00226868 0.00388111 -4.09037e-22)
(0.00239251 0.00403087 3.42928e-22)
(0.00234393 0.0039447 1.43366e-21)
(0.0013472 0.000277544 -3.64988e-21)
(0.000226394 0.000137829 7.76673e-21)
(0.00234222 0.0039419 -1.65382e-21)
(0.00239068 0.00402802 -1.5148e-21)
(0.0022696 0.00387901 0)
(0.00234095 0.00393942 1.91081e-21)
(0.00238938 0.00402572 1.75194e-21)
(0.000380855 0.000343617 0)
(0.00233868 0.00393415 -2.28054e-21)
(0.00238717 0.00402196 0)
(0.00233619 0.00393349 -6.32603e-22)
(0.00238378 0.00402827 -5.84522e-22)
(0.00233423 0.00393472 5.40682e-21)
(0.00238344 0.00404798 -6.12308e-22)
(0.0022688 0.00387581 0)
(0.000911199 7.57014e-05 -5.0947e-21)
(0.00216195 0.00404961 3.92163e-21)
(5.21316e-05 -2.51013e-05 1.46147e-20)
(0.000975889 0.000690193 4.4741e-21)
(0.00226791 0.00387227 -7.32295e-22)
(1.08467e-05 3.4731e-05 0)
(0.000294972 0.000234608 -1.2461e-20)
(0.00244366 0.00436527 0)
(0.00229555 0.00366834 3.41002e-21)
(0.00254149 0.00456821 -3.61051e-22)
(0.00248042 0.00446644 2.77463e-22)
(0.000974757 0.000354474 9.93225e-21)
(0.000929741 3.62487e-05 -2.60038e-21)
(0.000726884 0.00193048 -1.25623e-20)
(1.86057e-05 -3.05112e-05 5.88729e-22)
(0.00226085 0.00386402 2.30176e-21)
(0.00225885 0.00386522 0)
(0.00225458 0.00387032 0)
(0.000163164 0.000134049 0)
(0.00227104 0.00383331 1.63336e-21)
(0.00224842 0.00390308 2.93759e-21)
(0.00080353 0.00130968 1.50644e-20)
(0.00231331 0.00483183 9.03522e-21)
(0.00112101 0.000651515 0)
(4.55596e-05 -3.1773e-05 -7.87792e-21)
(0.000943439 1.65777e-05 -5.23215e-25)
(0.00046924 0.00130426 8.29694e-21)
(0.000992873 0.000107655 -5.49471e-22)
(2.26985e-05 -0.000104456 -4.97506e-22)
(0.000302454 0.000133664 0)
(0.000965695 5.09327e-05 1.10967e-20)
(0.000230682 0.000373291 5.57072e-25)
(6.78544e-05 0.00219394 0)
(0.000931291 8.01146e-05 0)
(0.00218926 0.00438666 -3.94552e-21)
(2.49848e-05 -2.76629e-05 3.01088e-21)
(0.000455787 0.000149349 1.45915e-20)
(0.000960049 -0.000694214 1.1064e-21)
(0.000713447 0.00115723 1.61068e-20)
(0.00118974 0.000921278 -7.96688e-21)
(2.244e-05 -2.39444e-05 -1.25852e-20)
(0.00171343 0.00122493 1.38461e-20)
(0.00118852 0.000155319 -2.79101e-21)
(0.000962138 1.97093e-05 -9.385e-22)
(0.00117319 8.78612e-05 9.65826e-21)
(0.000960228 4.1814e-05 -1.38707e-22)
(1.80571e-05 -3.81731e-05 0)
(0.00096065 -4.28533e-05 -1.61302e-20)
(0.00143294 0.00225485 3.64223e-21)
(0.000929539 7.27271e-05 1.1868e-20)
(3.63928e-05 -7.10008e-05 0)
(1.88016e-05 0.00174819 -3.27987e-21)
(0.000241869 -0.000278689 0)
(0.000168176 0.000167425 9.03729e-21)
(0.00255239 0.00447423 6.4276e-21)
(0.000950217 2.15268e-05 -1.26122e-21)
(0.000488861 -0.000372787 0)
(0.000510733 0.000128395 8.92229e-21)
(0.000301554 0.000274233 2.51871e-24)
(0.00114803 6.75166e-05 0)
(0.00246418 0.00437187 3.06265e-23)
(1.82217e-05 -2.03257e-07 0)
(0.00218101 0.00385122 0)
(0.000267818 0.000302107 0)
(0.000196215 0.00155097 0)
(0.00190384 0.00450351 5.57999e-21)
(0.00268269 0.0044273 6.57378e-21)
(0.000911884 0.000783046 7.96822e-21)
(4.93361e-05 -7.29011e-05 4.79032e-21)
(0.000971604 2.98025e-05 0)
(0.000154462 0.000188424 0)
(0.000506072 0.000220475 -2.12529e-21)
(2.55019e-05 -1.37835e-06 0)
(4.01014e-05 -2.08236e-05 4.7947e-21)
(0.000295323 0.000109224 6.93955e-25)
(0.000174216 0.000148913 0)
(0.000430122 0.00019318 1.11742e-20)
(0.00115634 0.000152172 -3.62404e-21)
(7.43282e-05 -8.93497e-06 -5.96812e-21)
(0.000997318 7.64214e-05 1.36708e-22)
(0.000114476 -0.000165025 2.34347e-24)
(0.00117621 0.000150891 2.29291e-21)
(0.00137003 0.00215141 1.03907e-20)
(0.000963103 4.1546e-05 1.35456e-22)
(3.98125e-05 -7.94235e-05 0)
(0.00125495 0.00314841 0)
(0.000957163 1.98943e-05 -5.96797e-22)
(3.78228e-05 -9.62075e-05 2.66234e-21)
(0.00117194 0.00160432 2.99731e-21)
(0.0012825 0.000439888 2.64968e-21)
(0.000173215 0.00285866 0)
(0.000772766 6.16564e-05 -2.29741e-21)
(1.1939e-05 -1.55112e-06 0)
(-2.63797e-05 0.000740913 6.65822e-21)
(0.000122519 -1.60585e-05 9.28849e-21)
(0.000969587 9.9573e-06 -4.04596e-24)
(0.000248162 -0.000436488 -5.92972e-21)
(0.000559516 0.00099851 -1.49338e-20)
(0.000110912 -2.12907e-05 0)
(0.00115922 0.000707839 -2.73521e-23)
(0.000909947 6.66248e-07 0)
(0.00080343 3.22962e-05 6.8812e-21)
(0.000143089 0.000120667 -5.23007e-21)
(0.000945021 1.58803e-05 2.32007e-21)
(0.000138433 -0.000154561 3.14037e-24)
(0.00249397 0.00448139 3.45985e-22)
(0.00255456 0.0045838 0)
(0.000541591 0.000261185 9.78328e-21)
(0.00106852 0.000905192 -1.8354e-24)
(0.000954987 1.88786e-05 1.16074e-21)
(0.00130953 0.000627478 5.38296e-21)
(7.69384e-05 2.4719e-05 1.2465e-20)
(0.000216924 0.000168125 5.6152e-21)
(0.000853583 8.87458e-05 2.64036e-20)
(0.00101655 -3.19994e-06 -2.78664e-20)
(0.00274303 0.0044661 1.02055e-20)
(0.000131973 -8.98695e-06 2.06037e-20)
(0.000953482 4.01545e-05 0)
(0.000277849 0.000141108 -8.60579e-21)
(0.00020215 0.000130414 8.12606e-21)
(0.000167996 -0.000362985 2.38799e-21)
(0.000155411 0.00012162 1.5831e-20)
(0.000395635 0.000126492 9.76502e-21)
(0.000136487 -0.000127146 2.63499e-24)
(0.000385473 0.000161289 3.98785e-25)
(3.64957e-05 -5.86741e-05 0)
(0.000966153 4.59031e-05 0)
(0.000948679 2.89814e-05 1.98236e-21)
(0.000236116 0.00018987 1.153e-20)
(0.000392156 0.000150727 0)
(0.000384184 -4.51991e-05 6.33277e-21)
(0.000194837 0.000106709 0)
(0.000951873 2.93314e-05 -2.09962e-21)
(0.000327311 -0.000342262 4.85484e-21)
(0.000172173 -0.000189932 1.38507e-20)
(7.44408e-05 -5.67211e-05 1.53034e-21)
(0.000467498 0.00019183 -1.53789e-24)
(0.000520171 0.000225116 0)
(0.000368333 0.000395781 0)
(0.000957113 2.6329e-05 0)
(0.00019442 0.000179421 -3.28986e-21)
(0.000981869 4.63316e-05 -8.5432e-21)
(0.000128809 -0.000176585 -7.07244e-21)
(0.000285925 0.00154717 5.26249e-21)
(0.000132421 0.000139645 0)
(0.000815403 0.000753606 0)
(0.000416274 -6.7695e-06 0)
(0.00095848 -7.41373e-05 1.76974e-20)
(0.000911542 0.000695191 -1.21336e-20)
(9.14801e-05 0.00103566 5.10569e-21)
(4.79531e-05 -7.43592e-05 0)
(0.00187039 0.00453769 5.20909e-22)
(0.000955481 -1.873e-05 2.22621e-21)
(0.000861429 0.000825216 1.63732e-20)
(0.000931323 -3.0618e-05 -4.29332e-25)
(0.000270323 0.000265513 -8.18162e-21)
(0.00102687 1.66172e-05 0)
(8.25681e-05 6.50999e-05 4.38859e-21)
(0.000187427 -0.000221773 -4.98883e-21)
(0.000315739 0.000168683 9.10171e-21)
(5.03517e-05 -9.37868e-05 -9.90061e-21)
(9.5263e-05 1.40904e-05 -3.76681e-21)
(0.000991988 4.75784e-05 5.0652e-21)
(0.000197694 1.61565e-05 4.1774e-21)
(0.000916915 0.000999874 0)
(0.00111424 0.000174938 1.58871e-20)
(0.000247598 1.08918e-05 0)
(7.90108e-05 -1.61136e-05 -5.70863e-21)
(0.000232212 -0.000232634 -8.79316e-21)
(0.000427638 0.000948143 -5.93857e-21)
(0.000947625 3.40813e-05 9.21796e-21)
(0.00056838 0.000300675 -7.51819e-21)
(8.06832e-05 2.63328e-05 -1.05465e-20)
(0.00141989 0.000646156 -1.28936e-20)
(0.000317948 0.000678105 -2.17037e-20)
(0.00096111 -2.77218e-05 0)
(5.18092e-05 -0.000108195 0)
(0.000968608 2.12534e-05 -1.30093e-22)
(0.000317061 -0.000270606 -8.80798e-21)
(0.00101785 3.67339e-05 4.56587e-21)
(0.00095256 1.919e-05 -8.14901e-21)
(2.35964e-06 1.28323e-05 -1.01539e-21)
(2.97254e-05 -2.07964e-05 -5.52429e-21)
(0.000258781 -0.000334591 -6.08506e-21)
(0.000119317 -3.08141e-05 0)
(0.00100601 2.86752e-05 0)
(0.000683529 0.000147022 -2.65955e-22)
(2.87319e-05 1.86417e-05 7.36249e-21)
(0.0011259 0.00047088 -1.66428e-21)
(0.00248935 0.00435893 3.18977e-22)
(0.000112545 -5.97374e-05 -2.93742e-25)
(0.00112575 0.000408432 6.6297e-21)
(0.000229918 0.000566426 3.5788e-25)
(8.7977e-05 -5.08793e-05 -4.20806e-21)
(0.00100634 2.87387e-05 0)
(2.18511e-05 -1.15563e-06 -8.21752e-21)
(6.9604e-05 -4.91767e-05 0)
(0.00100262 -2.72692e-05 0)
(0.000948301 9.4787e-06 -2.69127e-22)
(0.00072421 0.000282723 -1.42665e-20)
(0.000496213 0.000282507 -5.54305e-21)
(0.00111266 0.00130543 9.66472e-21)
(2.39193e-06 1.88983e-05 0)
(0.00024719 0.000261514 8.54701e-21)
(4.25143e-05 2.74305e-06 -4.80237e-21)
(0.000509213 0.000563186 7.64797e-21)
(0.00031165 0.000311793 8.65297e-21)
(0.000965815 2.77193e-05 -2.68164e-22)
(3.31958e-05 1.32112e-05 0)
(0.000224635 1.04119e-05 0)
(4.60979e-06 0.000129859 1.02823e-21)
(-5.47513e-06 0.000611106 -8.23492e-21)
(0.000125494 0.000296705 -9.5439e-25)
(0.00101891 8.46769e-06 -4.90462e-22)
(0.000646839 -0.000267767 -5.93756e-21)
(0.000176332 1.99941e-05 4.33231e-21)
(0.000976258 0.000920845 -9.39214e-21)
(0.00247567 0.00437606 6.67592e-23)
(0.000516915 -0.000256922 -1.45035e-20)
(0.000962308 2.69491e-05 -9.01044e-22)
(0.00092329 0.000846179 -2.54266e-20)
(4.40594e-06 0.000831016 0)
(0.000131258 -9.11307e-05 0)
(0.00125635 0.000588749 0)
(0.000946363 7.57737e-06 0)
(2.55189e-06 0.000556263 0)
(0.000840179 9.202e-05 -4.09956e-21)
(-4.86376e-06 0.000294851 -6.51065e-21)
(0.000967013 5.45499e-05 -1.27585e-21)
(0.000176505 0.000194901 0)
(8.31975e-06 0.000469843 -4.30339e-21)
(-2.48384e-05 0.000740808 -7.65755e-21)
(0.00237654 0.00476664 1.62337e-23)
(0.00116407 7.42733e-05 -1.58205e-20)
(0.000739357 0.000649117 -4.14127e-21)
(0.000987187 2.26896e-05 0)
(0.000133925 -0.000106906 -9.9457e-21)
(6.79205e-05 4.18611e-05 4.29894e-21)
(0.000134387 0.000160985 7.29122e-21)
(1.13292e-05 0.000269288 3.21618e-21)
(0.00092678 3.20879e-06 0)
(0.000927919 3.46433e-05 0)
(-5.3501e-06 0.000217533 0)
(0.000854813 0.000636076 6.72578e-21)
(3.72479e-06 0.000164355 1.97627e-21)
(0.000469668 0.000877572 -1.5603e-20)
(0.000219605 0.000110718 8.76795e-21)
(6.226e-07 0.00020008 -3.87546e-21)
(0.00092726 -3.05185e-05 0)
(8.17324e-05 -0.00015955 0)
(0.00102013 8.11958e-06 2.26421e-21)
(7.40388e-05 2.4529e-05 -1.66851e-20)
(4.47299e-05 3.62946e-06 7.07811e-21)
(0.000346227 -4.6212e-05 -9.02941e-22)
(-1.47089e-07 0.00010486 -2.61104e-21)
(0.000977211 -6.87463e-05 9.26118e-21)
(0.000955736 3.78329e-06 -1.07074e-21)
(0.000145317 -0.000312722 3.56913e-21)
(3.81395e-05 3.20173e-05 -3.91292e-22)
(0.0002425 0.000113468 1.76132e-25)
(0.00076752 4.55106e-05 0)
(0.000461449 -1.91355e-05 -9.81057e-25)
(0.000290013 0.000172583 -8.24298e-21)
(0.000168494 -0.000158753 0)
(0.0024466 0.00432133 3.69544e-21)
(7.35424e-05 5.11813e-05 4.96408e-21)
(0.000771171 0.000306247 8.67447e-21)
(0.00034161 -0.000584123 1.0782e-20)
(0.000479195 0.000164891 -9.56651e-21)
(0.000380104 8.6826e-05 -8.87839e-21)
(0.000245745 0.000231912 -1.53484e-20)
(0.000150242 0.000157992 -5.63216e-21)
(0.000904183 0.000401905 0)
(1.32583e-06 3.76116e-05 -4.11314e-21)
(0.0010121 -3.0076e-06 2.2491e-21)
(0.00101849 1.96865e-05 0)
(0.000928861 1.42491e-05 1.60397e-21)
(0.000654609 0.000121069 5.03621e-21)
(0.000944181 4.37099e-05 0)