/*--------------------------------*- C++ -*----------------------------------*\
  =========                 |
  \\      /  F ield         | OpenFOAM: The Open Source CFD Toolbox
   \\    /   O peration     | Website:  https://openfoam.org
    \\  /    A nd           | Version:  7
     \\/     M anipulation  |
\*---------------------------------------------------------------------------*/
FoamFile
{
    version     2.0;
    format      ascii;
    class       surfaceScalarField;
    location    "10";
    object      phi;
}
// * * * * * * * * * * * * * * * * * * * * * * * * * * * * * * * * * * * * * //

dimensions      [0 3 -1 0 0 0 0];

internalField   nonuniform List<scalar> 
1111
(
5.8731e-09
1.34849e-08
-1.51121e-08
-4.24598e-09
5.98622e-09
-1.13311e-08
1.12179e-08
-1.41963e-08
4.16943e-09
1.0062e-08
-3.51227e-11
1.15244e-10
-1.38827e-10
-1.38316e-08
1.38552e-08
-1.38269e-08
1.36541e-08
2.88012e-10
-1.00587e-09
1.48146e-08
1.61979e-09
-3.58964e-09
9.04055e-09
-1.14003e-08
5.94934e-09
-6.31391e-09
-1.22777e-08
1.22985e-08
6.2931e-09
-5.10504e-08
-2.52629e-08
7.63133e-08
-8.04821e-09
7.37156e-09
6.66288e-09
3.8018e-09
4.03014e-10
-3.89308e-09
-3.11734e-10
1.54134e-08
-1.58639e-08
-2.20939e-08
2.25443e-08
-9.70868e-09
-8.62643e-09
9.19633e-09
9.13878e-09
-3.39839e-08
1.69211e-08
-3.2044e-08
4.91067e-08
9.69028e-09
-1.80463e-09
-1.41996e-08
-4.33191e-09
3.97262e-09
-3.02554e-09
3.38484e-09
-3.72397e-09
1.28959e-08
2.02895e-09
-1.12009e-08
8.90192e-09
-2.08962e-09
-1.49553e-08
8.14299e-09
3.89729e-08
-3.26425e-08
-6.33043e-09
-1.89975e-08
-4.85672e-10
1.80662e-08
1.41699e-09
-1.14265e-10
3.73333e-09
-1.81482e-08
1.45291e-08
-6.5386e-08
-2.7196e-09
6.81056e-08
2.39415e-10
-1.43068e-09
-4.39165e-10
1.63043e-09
-9.27082e-10
-1.30141e-08
-2.88289e-10
-3.88662e-10
3.80846e-10
2.96105e-10
-1.00612e-08
-8.09014e-09
1.22383e-08
5.9131e-09
9.66278e-10
-2.28555e-09
-8.46456e-09
9.78384e-09
7.56652e-09
1.17793e-09
-8.2793e-09
-4.65158e-10
-2.50739e-09
-7.79289e-09
1.03976e-08
-9.73446e-11
1.09974e-08
1.37919e-10
-2.23339e-09
-1.1609e-09
1.12192e-09
1.70113e-10
-1.31139e-10
-4.89992e-10
1.0282e-09
6.74687e-10
-1.2129e-09
-7.41316e-10
-5.27658e-11
7.86341e-10
7.74085e-12
4.70079e-11
-1.21241e-09
8.05546e-11
1.08485e-09
-7.6412e-12
-1.10625e-09
5.70287e-10
-1.77983e-08
-1.76953e-09
-6.52052e-10
8.32199e-11
-1.72484e-10
1.31321e-08
-1.3164e-08
3.76523e-09
-5.21145e-10
7.28598e-10
5.14976e-10
-7.22429e-10
-1.10961e-09
-2.70978e-09
2.11769e-09
1.7017e-09
-1.73161e-09
8.00741e-09
-9.86544e-09
-5.08222e-10
-2.51737e-10
1.07906e-10
-8.83272e-09
9.91445e-09
-9.12995e-09
1.15429e-08
-1.63635e-08
5.1386e-09
-3.1798e-10
1.34e-10
-2.69355e-10
-3.72868e-10
3.45481e-10
1.0182e-09
-2.41758e-10
-6.0442e-08
7.47387e-08
-1.42967e-08
1.25839e-09
-4.63505e-10
-1.4736e-09
6.78714e-10
6.29151e-10
1.03416e-08
-1.34373e-08
2.46661e-09
-4.78428e-11
6.26258e-09
-7.43419e-09
1.21945e-09
-6.28173e-09
5.85022e-09
5.36539e-09
-4.93388e-09
-6.62026e-09
-2.57209e-09
2.35221e-09
6.84013e-09
4.59326e-10
-8.68575e-08
8.60854e-08
3.12723e-10
9.54444e-10
-8.93598e-08
8.8637e-08
-2.31618e-10
8.33616e-08
-1.7092e-09
1.71467e-10
-8.18239e-08
-3.33518e-09
1.36308e-10
9.39241e-10
1.00484e-09
-6.8569e-10
4.19191e-09
-1.98948e-09
3.24961e-09
-5.45204e-09
-1.24777e-09
1.12975e-09
-1.50817e-08
6.62375e-09
8.83366e-09
1.12974e-09
-9.55496e-09
-4.08446e-10
-5.8295e-09
1.22496e-08
1.50998e-09
-7.93007e-09
1.39426e-08
-3.63866e-09
3.09133e-09
-1.33952e-08
1.52721e-08
1.48828e-09
-1.33159e-09
9.69836e-11
-2.02986e-08
-7.89262e-09
2.80942e-08
1.32255e-08
-8.11565e-09
-2.21176e-09
7.50882e-09
-1.11266e-08
-2.02136e-10
4.08242e-10
-1.6797e-09
-3.75401e-08
-2.29019e-08
7.83458e-09
-2.62765e-10
3.97108e-09
-6.46802e-09
1.03696e-08
6.01287e-09
-7.84739e-10
4.61895e-10
6.37325e-10
-3.14481e-10
5.99268e-09
-4.51838e-09
3.49061e-09
-4.9649e-09
-7.83645e-10
-7.85628e-10
3.56858e-10
9.36077e-10
-9.0829e-10
-3.17345e-10
-1.35891e-09
1.18626e-09
-1.68377e-08
2.22023e-09
1.46092e-09
1.31565e-08
3.61366e-10
-9.1995e-10
-2.26155e-10
-3.20212e-09
-1.45769e-08
9.41305e-10
5.63025e-09
1.14461e-08
-5.23745e-09
-1.18389e-08
1.62244e-08
6.09773e-10
-1.57157e-08
-1.11846e-09
-8.72387e-10
6.3061e-10
7.03673e-10
-1.28273e-09
7.08323e-10
5.74406e-10
-6.86523e-09
-3.94523e-09
4.52873e-09
-5.47503e-10
7.68089e-10
-2.20586e-10
1.33267e-09
-1.4596e-08
-4.74424e-10
8.28171e-09
-9.53889e-09
-1.27979e-09
-1.60008e-09
1.23262e-08
4.38795e-09
-4.19223e-09
-1.2522e-08
4.20031e-10
6.83792e-09
-7.49859e-09
6.51089e-09
-2.12603e-09
-8.12218e-09
7.51643e-09
2.73178e-09
-1.76823e-09
5.60736e-10
-1.33694e-08
-3.485e-10
-1.99003e-10
-7.58783e-10
1.47578e-09
-7.33725e-09
8.75534e-10
1.69429e-08
-1.59398e-09
-1.62101e-08
1.73335e-08
-1.1234e-09
1.15897e-08
1.37102e-08
-1.52492e-08
-1.00507e-08
-1.06411e-09
1.73225e-09
-6.6814e-10
2.05348e-09
-2.73649e-09
6.83002e-10
3.84609e-09
-5.82029e-09
1.9742e-09
2.32681e-09
-1.97167e-09
-3.55144e-10
-1.31212e-08
1.12979e-10
1.30082e-08
3.12969e-09
-8.02881e-10
8.81824e-09
-1.46687e-08
6.27689e-09
-7.08351e-09
1.95958e-10
4.10981e-09
-5.0397e-10
-3.53271e-09
3.72867e-09
-8.59613e-09
1.00509e-08
-1.45475e-09
-1.11461e-09
3.99307e-09
1.31345e-09
1.6542e-08
-1.44743e-08
-1.43848e-09
-5.03483e-09
4.98275e-09
-1.9374e-09
-2.96021e-10
7.62985e-09
-7.47673e-09
-1.53122e-10
7.06624e-09
4.29182e-09
4.53408e-10
-1.54203e-08
1.01174e-08
1.68925e-08
5.67682e-09
8.22734e-09
8.21142e-09
-6.55761e-09
4.07261e-10
-1.35284e-08
1.74725e-09
-5.19494e-10
-1.20774e-08
4.14162e-09
-4.12957e-10
1.53346e-08
-1.47248e-08
-1.29233e-11
-1.27451e-09
-1.32729e-08
6.91627e-09
1.03111e-09
-7.73969e-11
-8.97059e-09
5.67861e-09
-3.25455e-08
-1.23736e-08
-2.14333e-09
1.24403e-09
1.34527e-08
1.09709e-08
-1.06979e-08
-1.37256e-08
1.75837e-08
-3.11816e-09
-1.44655e-08
1.88941e-09
3.73559e-09
-1.60059e-09
-1.04972e-09
-1.13585e-09
1.4722e-09
7.13369e-10
-3.47965e-10
4.89842e-10
4.95449e-10
6.62434e-08
-6.61525e-08
-9.09347e-11
6.62664e-08
-6.6491e-08
2.24594e-10
8.80412e-10
6.31136e-08
-6.44724e-08
1.35885e-09
6.23374e-08
7.76153e-10
-2.47602e-10
-6.59278e-08
1.45539e-09
-6.5143e-08
6.5295e-08
-1.52083e-10
1.79198e-09
-6.77198e-08
-6.49007e-08
-2.42294e-10
1.19511e-08
-1.34966e-09
2.02712e-09
-3.7871e-09
3.10963e-09
5.07179e-10
-1.38372e-09
1.27324e-09
-9.49667e-10
1.58228e-09
-1.88103e-09
1.24842e-09
1.65467e-09
-1.82295e-09
5.7652e-10
-1.30598e-10
-3.27514e-09
3.20888e-09
-2.51269e-09
2.57895e-09
-1.07356e-09
-2.9862e-09
2.7101e-09
-4.04089e-09
-5.41137e-09
7.08e-10
-8.39003e-10
1.58893e-09
1.26659e-09
-6.61641e-09
7.96626e-09
2.94197e-09
2.19308e-08
-4.34712e-09
-8.80862e-10
3.10027e-10
1.27883e-09
-9.83338e-09
-2.77068e-08
5.5125e-09
-4.56262e-09
-3.04545e-09
2.09557e-09
1.46161e-10
-9.62573e-12
6.49805e-10
-2.96584e-09
3.61704e-09
8.4898e-09
1.00484e-09
-7.52133e-10
2.30157e-09
-2.623e-09
2.48757e-09
1.43071e-08
1.28558e-08
-2.6487e-08
3.2067e-08
5.77592e-09
-2.19522e-08
-1.03107e-08
1.7648e-08
-1.7277e-08
1.05998e-08
-3.84411e-10
1.38359e-10
-1.57689e-09
-2.05664e-09
-1.4032e-09
3.00956e-09
1.43221e-08
-4.20835e-10
-1.33405e-08
4.04945e-10
-3.09485e-09
-2.96288e-10
1.48539e-08
1.71012e-08
1.33189e-08
7.52046e-10
-1.51447e-09
-1.25565e-08
-2.07704e-09
5.94036e-09
1.20161e-08
-9.92072e-10
-1.38869e-09
-3.50018e-09
2.7379e-09
3.97116e-09
2.3867e-09
1.38181e-08
4.18266e-09
-1.36128e-08
1.66867e-08
-1.42334e-09
2.98046e-09
-3.7335e-09
1.90877e-09
-4.42636e-09
1.25374e-08
-1.1835e-08
-1.34502e-08
4.53242e-10
8.57056e-09
-1.98445e-09
1.69717e-09
1.87621e-09
-8.98231e-09
5.67959e-10
-3.95928e-09
-5.94038e-09
1.19335e-08
-1.49755e-08
1.56554e-09
1.6523e-09
-2.10747e-09
1.60115e-08
-1.55564e-08
-9.59618e-10
1.38577e-08
2.38841e-09
-3.44065e-09
-1.36164e-08
7.21373e-09
-1.6562e-08
-7.92867e-09
6.30265e-09
5.80289e-09
1.39555e-08
-9.18739e-09
3.20772e-09
8.71145e-09
9.66686e-09
3.97621e-09
-4.0392e-09
2.10955e-08
-1.856e-08
4.67831e-09
-9.64178e-09
2.3438e-09
4.83855e-09
1.33091e-08
-8.22074e-11
1.21571e-08
-1.30345e-08
-1.53333e-09
2.83352e-09
-2.08571e-09
7.85516e-10
1.05116e-08
-6.2581e-09
7.19252e-09
-9.99201e-09
1.47997e-09
-4.75252e-09
1.09467e-08
-1.14317e-08
-7.38357e-09
8.65647e-09
9.23874e-09
1.22816e-08
1.03652e-09
-1.34003e-08
1.83289e-09
9.05899e-10
-1.06676e-08
-6.76155e-09
1.00456e-08
-1.9246e-09
2.52155e-09
-8.37546e-09
4.59216e-09
-5.09963e-09
1.10323e-08
-3.50729e-09
-1.11668e-08
3.64182e-09
-4.54922e-09
1.0829e-08
2.25507e-09
1.27499e-09
-4.88051e-09
-1.72128e-08
1.03185e-08
1.17749e-08
9.51236e-10
-1.05293e-08
-9.81595e-09
1.54648e-08
1.17678e-08
2.68049e-09
-9.6097e-09
-1.31501e-08
-2.43079e-10
-1.23454e-08
3.47255e-10
-6.22355e-10
1.06727e-08
1.25229e-08
-8.12169e-09
1.58331e-08
-1.50955e-08
3.44502e-09
-5.87491e-10
1.58437e-09
1.21596e-08
-3.87369e-09
-1.21574e-08
-5.15426e-09
1.69456e-10
4.46531e-09
1.17109e-08
-7.5744e-09
9.81651e-10
-9.78597e-10
2.11766e-09
-2.67239e-09
5.94806e-09
2.57473e-08
-1.28121e-09
-1.44049e-08
1.56862e-08
2.71783e-08
-2.17159e-08
2.14027e-08
1.91985e-08
-1.23684e-08
-2.3156e-09
1.475e-08
1.33071e-10
-1.17931e-08
-4.19168e-10
-5.97896e-09
-2.04206e-09
2.5063e-09
1.79083e-09
3.79581e-10
-1.04327e-08
1.02412e-08
-1.88138e-10
1.62246e-09
-5.55726e-09
-1.03361e-08
1.00366e-08
-6.17508e-10
-9.99685e-09
-1.84144e-11
-1.0154e-08
-3.05395e-09
-1.15099e-08
2.35103e-09
7.69878e-09
5.07397e-09
4.79524e-10
-1.12696e-08
1.11697e-08
7.42843e-10
-8.25615e-09
5.28629e-09
-4.79302e-10
2.88137e-09
-3.69052e-09
-1.2674e-08
-1.34658e-08
1.26642e-08
-9.83516e-09
-1.54018e-08
9.81673e-09
9.06149e-09
7.79979e-10
2.36457e-09
-1.67695e-08
1.05221e-08
1.63057e-09
4.07233e-09
4.34594e-10
-6.8473e-10
-5.3351e-10
-4.01777e-09
2.81118e-09
-1.88826e-09
5.14487e-10
-6.00423e-10
8.59363e-11
-2.41446e-09
1.23032e-08
1.879e-09
2.52981e-09
-1.48986e-09
-2.02639e-09
1.08107e-10
-2.70318e-09
-9.00101e-10
1.2479e-08
9.55967e-09
-6.1905e-10
7.18658e-09
-1.16125e-09
-5.40628e-09
-9.91683e-09
-4.61551e-09
4.06152e-10
1.08335e-10
4.11068e-09
1.41822e-09
-1.60582e-08
-7.52387e-10
-1.02531e-09
-1.76587e-09
6.74477e-10
2.38366e-09
6.5778e-08
-3.38327e-10
-6.54397e-08
6.45433e-08
-3.16196e-10
-6.42271e-08
-1.4008e-08
2.15868e-10
1.43531e-08
-5.60953e-10
2.33195e-09
-2.18518e-09
2.9176e-09
1.78913e-09
-4.77656e-09
-7.29165e-10
-7.21607e-10
5.86394e-10
-1.79267e-10
7.23919e-10
-5.41065e-10
1.82399e-08
1.18442e-09
-1.53136e-08
-4.08915e-10
-1.96579e-09
1.19332e-08
2.19225e-09
1.76306e-09
4.58653e-09
-1.661e-09
-8.11301e-08
-2.37999e-08
-4.839e-09
1.53492e-08
2.38572e-09
-1.08227e-09
-3.50917e-09
-1.51276e-09
8.77011e-10
-7.52933e-10
-1.40852e-08
-3.3877e-10
1.4424e-08
-1.04561e-08
-6.69845e-09
1.0393e-08
-9.05227e-09
8.90415e-09
-3.48878e-10
2.10013e-09
1.35521e-08
-1.3224e-08
-3.28067e-10
8.4026e-10
3.39822e-11
9.16216e-09
1.06066e-09
-1.37019e-09
-4.9145e-10
-1.40338e-08
-5.33079e-10
-1.30132e-08
1.16841e-08
-1.10482e-08
-6.59586e-08
6.47472e-08
1.21144e-09
6.66499e-10
-6.76125e-10
1.13757e-08
-6.34222e-10
3.38002e-11
-1.6044e-09
2.73869e-09
-3.47438e-09
-1.34119e-08
-1.50009e-09
2.45458e-09
-4.33325e-09
-1.36387e-08
1.91375e-09
5.60613e-09
9.23983e-09
-8.72831e-09
-6.56216e-10
2.1994e-11
-9.43265e-09
-1.19466e-08
-3.57405e-10
-6.36312e-08
-8.27125e-10
6.44583e-08
2.79622e-10
6.20578e-08
-3.74431e-10
-6.04034e-10
-1.41547e-08
2.71071e-10
-6.42345e-08
6.39634e-08
-2.10684e-10
-6.37037e-08
6.39143e-08
6.60087e-10
6.598e-08
-6.16204e-11
-6.59184e-08
6.59673e-08
1.27183e-11
-8.87991e-08
8.94023e-08
1.73006e-10
8.44633e-08
-8.43561e-08
-1.98156e-10
-8.73803e-08
-5.99721e-11
8.42555e-08
-3.98129e-11
-8.55211e-08
-4.03837e-10
8.42374e-08
2.42758e-10
-3.6747e-10
1.74559e-09
8.33722e-08
-6.9429e-08
6.56875e-08
-6.52282e-08
-6.26768e-08
6.59419e-08
2.54496e-11
-3.09823e-09
2.7368e-09
-1.32513e-08
1.12336e-10
2.93817e-10
2.69149e-09
1.07144e-08
-1.28041e-08
3.84799e-08
-3.45785e-08
-1.59788e-08
1.44227e-08
-1.075e-10
-2.10511e-10
3.96253e-10
1.05189e-09
-2.18033e-10
4.56462e-10
4.7157e-09
1.09657e-09
-3.9035e-09
-5.85167e-10
6.68386e-10
-4.77263e-10
-2.45164e-09
1.25496e-08
2.20522e-09
-1.43764e-08
-2.11204e-09
-3.95416e-09
5.68765e-09
1.12361e-09
-2.32881e-09
1.37818e-08
-1.13452e-09
-5.49021e-09
9.77611e-09
-7.70057e-09
-1.85987e-08
-1.26625e-08
7.80139e-09
5.31436e-09
-3.13271e-10
-5.23379e-10
3.34296e-09
1.42306e-08
1.47833e-09
-8.94282e-10
-5.16118e-10
5.4522e-10
-3.25123e-10
1.56935e-08
-4.09645e-10
-1.56226e-08
-6.95545e-09
-3.19676e-09
3.00825e-10
-3.23075e-10
4.84146e-09
-1.93208e-08
7.16064e-10
-1.78376e-09
-2.42258e-09
-1.9632e-09
1.50992e-08
-8.7838e-08
7.69827e-10
8.55383e-08
2.30916e-10
-8.97077e-08
6.18967e-10
8.46028e-08
-1.86796e-10
-8.47543e-08
-7.12407e-10
-1.87424e-09
1.58671e-08
8.51193e-08
-2.81174e-11
-2.58462e-11
-1.27729e-10
1.20798e-08
1.90456e-09
-1.09535e-08
-1.16635e-08
-5.32885e-09
8.42398e-09
1.4311e-09
-6.91311e-09
-6.63467e-09
9.10583e-09
-3.43264e-10
1.01146e-08
1.86822e-08
-1.74449e-08
3.00836e-09
-1.22196e-08
3.07056e-09
-6.98917e-08
3.93307e-09
-2.01011e-08
-1.23035e-08
-6.59163e-10
-5.75828e-09
-1.52453e-08
9.21042e-09
-1.49713e-08
6.42364e-10
5.49035e-10
-1.41683e-09
-1.58757e-08
1.64095e-08
1.09887e-08
-1.08524e-08
-5.57324e-09
1.44662e-08
-1.47322e-09
7.88848e-10
-1.65084e-09
7.45341e-10
1.17212e-08
3.59422e-09
7.11445e-08
-1.76842e-08
9.46268e-10
-1.43462e-08
-3.46434e-10
-3.90268e-10
-3.31667e-10
6.56191e-08
-6.58059e-08
-6.42603e-08
-6.37318e-08
1.44654e-10
-1.35954e-10
-8.4763e-08
-6.54962e-08
6.72418e-08
6.49186e-08
-6.52534e-08
6.45512e-08
-6.52932e-08
6.41473e-08
-6.54914e-08
6.40873e-08
8.48897e-08
4.39337e-10
-6.42159e-09
7.49639e-08
-6.49481e-08
1.72807e-10
-1.72807e-10
2.64925e-09
-3.92057e-10
1.5417e-08
-2.02591e-10
2.02591e-10
5.66835e-10
9.97978e-10
1.44308e-08
1.25193e-08
-2.25996e-09
3.31219e-09
6.53678e-09
1.88142e-09
5.07591e-10
-3.64183e-10
-2.87177e-09
1.42352e-08
1.47884e-08
-4.44524e-09
1.12476e-08
3.12756e-10
2.38917e-10
3.05658e-09
-1.10356e-09
-1.85999e-09
-5.59253e-09
-1.86598e-10
-5.3996e-10
1.50944e-08
4.29576e-10
2.17439e-10
1.79038e-08
-2.48187e-08
1.69364e-08
2.52012e-09
1.55304e-09
1.97884e-09
-3.45035e-09
1.88071e-08
-1.73356e-08
-1.75692e-10
1.14984e-09
-1.47059e-09
-7.91419e-08
-7.08996e-08
1.4974e-09
-1.3478e-09
7.63124e-10
2.25367e-08
1.75481e-08
-6.36774e-09
2.57302e-10
-4.53997e-09
-1.62677e-09
3.01381e-08
2.44858e-10
1.38883e-08
6.67643e-08
1.40673e-10
5.98946e-10
-2.58074e-10
-3.31197e-10
-3.94737e-09
2.3027e-08
-1.4653e-08
1.29945e-09
-1.28147e-08
-1.2101e-10
2.02624e-08
-2.77604e-08
9.16142e-10
2.82065e-09
-8.31887e-10
)
;

boundaryField
{
    back
    {
        type            empty;
        value           nonuniform 0();
    }
    ingreso
    {
        type            calculated;
        value           nonuniform List<scalar> 
14
(
-1.54286e-08
-1.54288e-08
-1.54288e-08
-1.54288e-08
-1.54286e-08
-1.54283e-08
-1.54288e-08
-1.54288e-08
-1.54286e-08
-1.54286e-08
-1.54288e-08
-1.5428e-08
-1.5428e-08
-1.54286e-08
)
;
    }
    salida
    {
        type            calculated;
        value           nonuniform List<scalar> 2(1.0493e-07 1.1107e-07);
    }
    front
    {
        type            empty;
        value           nonuniform 0();
    }
    defaultFaces
    {
        type            calculated;
        value           uniform 0;
    }
}


// ************************************************************************* //
