/*--------------------------------*- C++ -*----------------------------------*\
  =========                 |
  \\      /  F ield         | OpenFOAM: The Open Source CFD Toolbox
   \\    /   O peration     | Website:  https://openfoam.org
    \\  /    A nd           | Version:  7
     \\/     M anipulation  |
\*---------------------------------------------------------------------------*/
FoamFile
{
    version     2.0;
    format      ascii;
    class       volVectorField;
    location    "10";
    object      U;
}
// * * * * * * * * * * * * * * * * * * * * * * * * * * * * * * * * * * * * * //

dimensions      [0 1 -1 0 0 0 0];

internalField   nonuniform List<vector> 
591
(
(0.000811875 -5.0763e-05 1.21424e-18)
(0.000746505 -4.5032e-05 -6.68045e-19)
(0.000833713 -5.99331e-05 5.72848e-20)
(0.000820888 1.5015e-05 -1.49111e-19)
(0.000813564 2.23109e-05 2.25507e-19)
(0.000669553 -1.50015e-05 -1.39782e-19)
(0.000507068 -0.000384082 8.01083e-19)
(0.000805185 -1.21452e-05 2.10029e-18)
(0.00574434 0.00248928 9.95014e-19)
(0.000777959 -2.7368e-05 2.40558e-18)
(7.04281e-05 0.000180378 1.22552e-18)
(0.000886209 0.00123671 9.49241e-21)
(0.000772632 1.50732e-05 1.30056e-18)
(0.00151823 0.00234383 -7.92596e-19)
(0.000797923 6.55951e-05 -4.42928e-19)
(0.00017522 -0.000257208 3.34042e-22)
(0.000127606 0.00065427 7.11044e-19)
(0.000855392 2.43265e-05 -4.96952e-19)
(0.00200519 0.000416938 4.73515e-19)
(0.00132044 0.000320447 -2.50208e-19)
(0.000806329 3.60002e-05 3.68989e-19)
(0.00376567 0.00742965 1.04643e-20)
(4.31365e-05 7.98163e-05 2.73072e-19)
(0.000808255 7.73397e-06 -4.4788e-19)
(2.09893e-05 -2.67762e-05 3.62135e-19)
(0.000792559 2.02313e-05 0)
(8.91809e-05 0.000475909 1.61344e-19)
(0.00050476 3.49927e-05 -1.805e-19)
(0.000722433 7.22662e-05 1.14728e-18)
(0.000818416 -5.24167e-05 5.94333e-19)
(7.10328e-05 1.19875e-06 1.57879e-24)
(5.23558e-05 -5.71283e-05 3.55417e-19)
(4.97022e-05 -5.16367e-06 -4.68163e-20)
(5.94536e-05 -7.33925e-06 0)
(6.48939e-05 -1.68931e-05 1.13945e-18)
(0.00115276 0.000149038 1.81907e-19)
(4.3714e-05 -8.43996e-06 4.51265e-20)
(0.000805674 8.29463e-06 4.08933e-23)
(4.05855e-05 5.58618e-05 2.68154e-19)
(8.46157e-05 -0.000159886 -8.61888e-19)
(0.000507975 -0.000149659 9.64723e-19)
(3.67457e-05 -1.10635e-05 4.5901e-20)
(0.000794298 -1.06343e-05 -1.55073e-18)
(0.000816338 -9.1149e-06 -6.77044e-19)
(2.72559e-05 -1.32249e-05 0)
(6.65189e-05 1.28916e-05 8.5968e-20)
(0.00132137 0.0045531 9.00387e-19)
(8.92407e-05 2.61688e-05 8.71528e-20)
(0.000785392 7.19352e-05 0)
(0.000355873 -0.000111326 6.84368e-19)
(0.00036457 0.000281729 5.16529e-21)
(0.000381003 8.78908e-05 -1.01303e-18)
(0.00632408 0.0102404 -8.37737e-19)
(0.00646743 0.0106138 1.15367e-20)
(0.00566932 0.0104116 1.48447e-18)
(0.000800997 -6.62898e-05 0)
(7.75523e-05 4.10131e-05 0)
(0.000340468 3.23169e-05 8.99313e-24)
(7.56515e-05 1.76659e-05 -3.49594e-19)
(0.000894246 -1.61134e-05 0)
(0.000593498 2.67052e-05 3.20035e-19)
(0.000769682 3.01968e-05 2.18364e-18)
(0.000743787 -7.74955e-06 -5.41858e-19)
(0.000684245 1.467e-05 -3.15457e-19)
(0.00170513 0.000537258 5.49335e-19)
(0.000798073 -8.61452e-06 -1.13384e-18)
(0.000776987 2.05887e-05 -5.15929e-19)
(9.88951e-05 7.09973e-06 -1.74936e-19)
(0.000772036 0.00232019 0)
(0.00080573 8.81089e-06 0)
(0.000706871 1.61157e-05 -1.37776e-18)
(4.66637e-05 2.15362e-05 0)
(0.000277063 0.000277441 3.29787e-19)
(5.5634e-05 -2.30969e-05 0)
(5.38752e-05 -8.05019e-06 1.60933e-19)
(4.06905e-05 -6.21205e-05 -3.39696e-20)
(0.000747827 3.95081e-05 2.44449e-19)
(5.37158e-05 1.55827e-05 0)
(0.000769501 7.69571e-05 4.43653e-19)
(0.000734731 0.000302412 2.12682e-19)
(0.000952655 6.19022e-05 -4.01822e-20)
(5.18826e-05 3.02617e-05 -4.56001e-20)
(6.56521e-06 -5.22732e-05 0)
(0.000412861 0.000226977 1.71724e-19)
(8.45663e-07 4.06779e-05 0)
(0.000719888 -3.53611e-05 -6.03742e-19)
(0.000535069 -9.65901e-05 0)
(7.89368e-05 4.25724e-06 -1.76056e-19)
(4.51865e-06 -6.88094e-05 0)
(0.000795811 0.000237491 -3.4445e-19)
(4.62535e-06 -3.28121e-05 0)
(0.00040839 0.000322575 -1.21875e-23)
(0.000498081 0.000118428 0)
(0.000788938 3.27175e-05 9.62017e-24)
(2.66407e-06 2.7992e-05 -4.25569e-20)
(0.000422437 2.14486e-05 1.77988e-18)
(0.00100458 7.86259e-05 4.20205e-20)
(0.00103872 2.16723e-05 6.47087e-22)
(0.000722319 0.000640827 2.69786e-19)
(1.41964e-06 7.53082e-05 0)
(8.29329e-06 -0.000138916 -3.15089e-19)
(1.89797e-05 -0.000234344 -1.11057e-18)
(-1.90019e-06 0.000115478 -6.00975e-19)
(0.000770828 -2.89205e-06 0)
(-2.95587e-07 0.000145115 0)
(0.000774785 -1.60609e-05 2.17266e-18)
(0.000721028 5.33523e-05 1.5064e-18)
(0.000391052 -2.53456e-05 0)
(6.15036e-05 0.000237207 -9.01182e-19)
(-5.88493e-07 0.000227568 4.9994e-19)
(9.99941e-05 0.000505579 6.30623e-19)
(0.000280352 0.000137782 -9.41093e-19)
(0.000830122 -9.06169e-06 1.35905e-19)
(0.000270992 7.0444e-06 5.35831e-19)
(7.25411e-07 5.39792e-05 0)
(6.29281e-05 0.000330464 -1.0978e-18)
(0.000308894 0.000329654 -1.63157e-19)
(8.72095e-06 -0.000101499 1.479e-19)
(0.000626968 0.000756457 0)
(0.000350657 0.000388494 5.79577e-20)
(0.00081008 -8.90204e-07 1.04096e-18)
(0.000677742 -6.75291e-05 -2.71378e-18)
(6.54599e-06 -0.000185553 0)
(0.000791134 -1.03005e-05 -1.12285e-19)
(0.000313799 -3.82158e-05 1.25483e-18)
(0.00273483 0.000828041 -3.3773e-19)
(-8.85348e-06 0.00017745 -6.17866e-19)
(-2.62408e-05 0.000223015 1.63201e-18)
(0.000905214 1.87043e-05 -3.92315e-20)
(7.67948e-05 -2.62268e-06 -7.56144e-19)
(0.000769998 4.71547e-05 -3.92125e-19)
(0.000961043 2.71707e-05 -4.13859e-20)
(8.24235e-05 0.000407842 -6.01661e-19)
(0.000460129 8.60788e-05 -4.98443e-19)
(6.18959e-05 -1.3914e-06 1.57567e-19)
(0.000835913 -2.99452e-05 -1.06744e-18)
(0.00166892 0.000232399 -1.13966e-18)
(-2.62997e-06 8.83742e-05 5.00335e-19)
(0.000776143 -1.05452e-06 -5.07586e-19)
(0.000867734 0.000532501 -7.92288e-20)
(0.000140734 0.000901772 0)
(0.000541143 7.00619e-05 0)
(0.000260821 6.5303e-05 -1.61844e-18)
(7.08948e-05 6.88124e-05 -1.38665e-18)
(3.77563e-05 2.63992e-05 0)
(0.00426473 0.00801868 -1.14086e-20)
(0.00427732 0.00798637 5.04986e-20)
(0.00447905 0.00814468 -2.95993e-20)
(0.0038848 0.00752123 0)
(0.00394448 0.00743583 5.78129e-19)
(0.00428297 0.00801692 -1.14497e-19)
(0.0039343 0.00786367 4.99962e-19)
(0.00418773 0.00798521 0)
(0.00406971 0.00851606 6.32718e-19)
(0.00417189 0.00797991 2.55442e-19)
(0.00080339 -1.49513e-05 -1.35257e-18)
(0.000723181 7.23806e-05 0)
(0.00021987 8.00485e-05 1.28874e-19)
(6.01925e-05 2.25314e-05 8.79831e-20)
(8.76559e-05 5.55009e-05 6.86237e-19)
(0.000117332 5.33487e-05 -3.44789e-19)
(0.000112743 1.83507e-05 0)
(5.89959e-05 9.0874e-06 8.25684e-20)
(0.000203629 0.000150316 0)
(0.000175945 6.56468e-05 -5.29123e-20)
(0.000329987 0.000232926 -5.13842e-21)
(6.36865e-05 5.27221e-05 -4.4166e-19)
(0.000101953 3.88712e-05 -8.60273e-20)
(9.93793e-05 7.35035e-05 1.32391e-21)
(0.00024462 0.000370982 -6.72163e-19)
(0.000165991 0.00111759 0)
(4.96719e-05 6.06432e-05 3.46199e-19)
(0.000196467 0.00185552 0)
(0.000204924 0.00026198 7.11013e-19)
(4.69802e-05 -7.75753e-06 1.12324e-19)
(0.000456626 0.000172333 -1.73859e-19)
(0.000775577 2.80832e-05 -1.86825e-18)
(5.32494e-05 1.0911e-06 4.37835e-24)
(0.000159046 4.45782e-05 2.26491e-19)
(0.000236756 0.000116137 -9.07552e-20)
(0.000856018 0.000685145 3.37965e-19)
(0.00070265 0.0016461 -9.31814e-21)
(0.0004294 0.00133744 -9.52496e-21)
(0.000996989 0.000555788 0)
(0.00011736 -9.70939e-06 1.12859e-18)
(0.000131383 3.16233e-05 -4.47262e-20)
(0.000405862 -0.000205205 -1.14782e-18)
(0.000794722 4.27275e-05 0)
(0.000183552 4.53447e-05 3.65601e-19)
(0.000226868 0.00140924 0)
(0.0010163 0.000723701 -7.36791e-20)
(0.00080326 4.84233e-05 -1.84075e-19)
(9.73872e-05 -1.76636e-05 -3.02652e-19)
(0.000793858 0.000295215 -2.09963e-20)
(8.70248e-05 -2.40814e-05 -6.03203e-19)
(0.000225941 0.000186546 8.71693e-20)
(0.000223758 0.000312927 -3.48123e-19)
(0.000854807 0.000232468 0)
(0.000770263 2.72275e-05 0)
(0.000258868 0.000155835 1.78452e-19)
(0.000235715 2.67174e-05 2.57597e-24)
(0.000184869 0.000216139 0)
(0.000280993 0.000632299 -5.59982e-21)
(0.00032373 2.34373e-05 0)
(0.000317142 0.000580225 0)
(0.000118036 9.64416e-05 -1.35899e-21)
(0.000792332 -2.41766e-05 -9.50817e-19)
(0.000843054 -2.67326e-05 7.78402e-19)
(0.000137271 7.42996e-05 -1.51223e-19)
(0.000927906 0.000149967 8.57657e-20)
(0.000815106 4.96674e-05 3.30163e-19)
(0.000781864 2.62704e-05 -2.96231e-19)
(0.000972302 0.000402862 0)
(0.000418631 0.000128605 6.30155e-19)
(0.000864884 0.000313915 2.11063e-20)
(0.000541317 0.000169825 0)
(0.000276764 0.000433687 4.13314e-19)
(0.000254148 0.00023032 -8.51812e-20)
(0.00108048 0.000385262 -7.89297e-19)
(0.000580369 0.000122072 -1.80944e-19)
(0.000780206 0.00011494 -7.36899e-21)
(0.000806521 3.05127e-05 9.43205e-20)
(0.00011892 -9.6584e-05 -1.99941e-18)
(0.000713636 0.000371716 2.21247e-19)
(0.000622546 7.70322e-05 2.32576e-20)
(0.000676671 0.000270617 1.40999e-23)
(0.000697716 0.000437404 -4.13032e-19)
(0.000823599 3.27376e-05 8.96974e-20)
(7.89708e-05 9.33357e-05 0)
(0.000625339 0.000426212 -4.7003e-20)
(0.000184782 0.000116201 0)
(0.000361724 0.000513166 -2.67068e-19)
(0.000308447 0.000184157 0)
(0.000646672 0.000209744 3.58527e-19)
(0.000619051 0.000275984 -4.4129e-20)
(8.30218e-05 0.000110554 6.24259e-19)
(0.000885435 0.000114674 -1.59018e-18)
(6.80195e-05 2.97891e-05 2.59547e-19)
(0.000899568 7.66955e-05 -1.64502e-18)
(0.000755512 1.33235e-05 1.60857e-19)
(0.000778966 -7.05425e-06 1.91621e-18)
(0.000787719 -1.18328e-06 -1.3265e-19)
(0.000674972 7.409e-05 0)
(0.000869459 2.12635e-05 8.89724e-19)
(0.000913094 0.00024482 -4.30936e-19)
(0.000737113 7.69029e-05 -4.82586e-19)
(0.00074924 0.000233311 -8.89482e-20)
(0.000252099 -8.76241e-05 -2.09811e-18)
(0.000707076 9.57076e-05 8.95836e-19)
(0.000593793 0.000578483 0)
(0.000139978 -8.74064e-05 0)
(0.00115892 0.000456099 4.99938e-19)
(0.000839421 -0.000197694 -3.2575e-18)
(0.0012441 0.00041282 5.76882e-19)
(0.00125874 0.000723626 -6.427e-20)
(0.000783592 5.83625e-05 -2.12731e-19)
(0.000794276 9.13396e-05 -1.41423e-18)
(0.00077088 7.91828e-05 1.56827e-18)
(0.000760326 -3.57909e-05 9.65734e-20)
(0.000652622 0.000341498 -4.44464e-20)
(0.000112396 0.000151482 3.43384e-23)
(0.000688443 -7.04503e-05 2.67598e-19)
(0.000266727 -0.000163094 -7.4322e-19)
(0.000592777 0.000195316 0)
(0.000661332 2.27074e-05 9.90449e-20)
(0.000643656 6.55405e-06 -3.82878e-19)
(0.000372455 0.000185455 3.96034e-20)
(0.000757163 0.000494744 -1.67005e-19)
(0.000158288 9.45541e-05 1.83734e-25)
(0.00078758 0.000382035 0)
(0.000942851 0.000320397 4.19592e-20)
(0.000708011 -0.000114705 -6.21601e-19)
(0.000332842 0.000112438 5.00972e-19)
(0.000871513 0.000412483 0)
(5.83135e-05 3.93297e-05 1.34935e-19)
(0.0004599 0.000273362 2.15884e-19)
(0.000433505 -7.5116e-05 -7.15758e-19)
(0.000197666 -0.000124185 -1.0687e-18)
(0.000755427 -2.74676e-05 -4.79517e-19)
(0.000791011 -0.000109891 -1.94015e-19)
(0.000545925 0.000738919 -1.17431e-18)
(0.000817833 6.63179e-05 -6.67802e-20)
(0.000787647 -9.48892e-05 1.26841e-18)
(0.00065039 0.000100377 2.29897e-20)
(0.000502131 0.000222414 -1.67181e-19)
(4.62691e-05 -2.70939e-05 -8.83842e-20)
(0.000213756 -2.00314e-05 2.41797e-18)
(3.73384e-05 8.68773e-07 -1.96565e-19)
(0.000759669 7.53675e-05 3.61706e-19)
(0.000622517 0.000145438 0)
(0.000210456 -4.03712e-05 -1.05707e-18)
(0.000133979 1.44997e-05 3.15117e-19)
(0.000145792 -3.23276e-05 -1.41938e-23)
(0.000775494 0.00011724 -3.1595e-19)
(0.000160061 -4.09956e-06 0)
(0.000558914 0.000245884 0)
(0.000111575 0.000341493 -3.66118e-19)
(0.000816014 0.000144722 2.08098e-18)
(3.05055e-05 1.77254e-06 0)
(0.000802153 -1.47096e-05 0)
(5.79403e-05 -2.70989e-05 0)
(0.000830774 2.16238e-05 -4.41827e-21)
(0.000818071 -6.66045e-05 0)
(0.00421664 0.00800279 7.80751e-20)
(0.00410671 0.00790699 1.41246e-19)
(0.000833155 1.14314e-05 0)
(0.000736169 -6.64727e-05 8.19939e-19)
(0.000154622 0.000141089 1.50564e-19)
(0.000891949 6.62364e-05 7.95145e-19)
(0.000136253 0.000118539 2.36533e-20)
(0.000728517 -7.06405e-05 6.31397e-19)
(4.31609e-05 1.38312e-05 0)
(4.07012e-05 -1.92113e-05 -4.52597e-20)
(0.00085394 7.93454e-05 -4.81714e-19)
(5.19815e-05 -3.76198e-05 -6.75722e-19)
(0.000729337 0.000130877 -4.27219e-20)
(0.000167502 0.000175997 -1.89806e-19)
(0.000792172 1.30551e-05 0)
(0.00466191 0.00845128 1.78508e-21)
(0.000162122 0.000770861 3.36699e-19)
(0.000140561 -4.4932e-05 -9.19434e-19)
(7.99581e-05 -3.60613e-05 -1.17807e-18)
(0.000834418 2.13363e-05 1.9105e-20)
(0.000552601 0.000418037 0)
(0.000385818 0.00042349 -2.58101e-19)
(0.000123946 -4.5489e-05 1.19433e-18)
(0.000792616 5.60853e-06 7.77603e-20)
(5.18142e-05 2.06694e-06 4.10698e-19)
(0.000620189 -5.36124e-05 1.18256e-18)
(0.000777842 6.60561e-06 -6.03073e-19)
(9.92771e-05 -5.35752e-05 1.72446e-18)
(0.000823615 8.90634e-06 1.61866e-24)
(0.000809365 1.61729e-05 -3.80105e-20)
(0.000824151 8.21377e-05 0)
(0.000763578 4.61626e-05 0)
(0.00588853 0.00720119 2.64655e-19)
(3.88668e-05 5.24868e-06 -1.20626e-19)
(0.000200967 -6.62409e-05 7.77891e-19)
(0.000698937 0.000117011 -7.02799e-19)
(4.36688e-05 -1.16068e-06 2.03229e-19)
(0.000554525 -1.51571e-05 -7.30525e-19)
(0.000681712 -1.4339e-05 1.53783e-18)
(0.000672758 0.000154991 -3.58618e-19)
(0.000789185 -5.65823e-05 3.59681e-19)
(0.000107044 -2.66395e-05 1.12615e-18)
(0.000683177 1.578e-05 -3.22434e-19)
(0.000837197 6.98475e-05 0)
(0.000518288 0.00030457 4.24865e-20)
(0.00086645 2.3421e-05 -9.27731e-19)
(3.77929e-05 -4.44322e-06 9.18905e-19)
(0.000782291 1.96125e-06 9.48669e-19)
(0.000788845 -6.14061e-05 -9.59855e-19)
(0.000676908 2.8275e-05 -5.72125e-19)
(0.000473381 -3.64977e-05 -5.30534e-19)
(0.00413143 0.00793906 2.83618e-19)
(0.00422107 0.0077199 -3.63397e-19)
(0.00403322 0.00744254 3.26896e-19)
(0.00424693 0.00801848 3.0855e-19)
(0.000833041 5.59361e-06 1.44122e-19)
(0.00435739 0.00777103 0)
(0.00409506 0.00780489 -5.37823e-19)
(5.77775e-05 -5.93176e-07 -1.00527e-18)
(0.00417839 0.00802618 -7.13082e-20)
(0.00416099 0.00802244 -3.12941e-19)
(0.00614755 0.0106387 0)
(0.00618304 0.0100357 5.09222e-20)
(0.00604725 0.0106199 0)
(0.00618431 0.0100443 1.71446e-19)
(0.00601403 0.0106525 2.76489e-19)
(0.00617811 0.0100428 2.1437e-20)
(0.00596239 0.0106335 -7.96564e-19)
(0.00620538 0.00999434 2.40648e-20)
(0.00381807 0.00920287 -1.93768e-19)
(0.00421626 0.00793685 4.09031e-21)
(0.00422845 0.00761674 9.9917e-20)
(0.00416981 0.0080378 5.8656e-20)
(0.000844261 0.000175101 4.50571e-20)
(2.25489e-05 2.65374e-06 0)
(0.00062909 -0.000151061 0)
(0.00078772 3.13295e-05 0)
(0.00241393 0.00104861 4.37187e-21)
(0.000650023 -1.19279e-05 1.72733e-19)
(5.00625e-05 9.22735e-06 4.58121e-20)
(2.59653e-05 -3.29431e-05 1.66727e-18)
(0.000834185 3.24343e-05 0)
(3.4856e-05 1.74631e-05 -1.93483e-19)
(0.000147679 0.000233585 0)
(4.04077e-05 -1.22435e-06 0)
(3.36063e-05 -2.1126e-06 0)
(0.000794656 0.000137516 1.14566e-20)
(0.000844527 2.19685e-05 1.77295e-19)
(3.66341e-05 0.000347365 1.20881e-22)
(0.000162331 0.000278859 -1.85854e-18)
(0.000585369 0.000345213 -8.64787e-20)
(0.000869814 0.000118543 5.98302e-19)
(0.000733049 -0.000527236 6.6814e-19)
(0.000312775 0.00109497 0)
(0.000467863 0.000527228 2.72523e-18)
(0.000103413 0.000150915 -1.80783e-18)
(4.64383e-05 5.70374e-07 0)
(0.000860669 -6.09808e-06 3.60562e-20)
(2.25112e-05 4.69773e-05 1.65962e-18)
(0.000885576 2.70089e-05 2.72759e-19)
(0.000113055 -0.000326847 3.81579e-18)
(0.000913062 4.50665e-05 -2.71626e-19)
(0.00151296 9.25794e-05 7.54201e-19)
(4.90672e-05 -1.37002e-05 8.33253e-20)
(4.63201e-05 1.06327e-05 -8.66134e-19)
(4.48693e-05 0.000168262 0)
(0.000863494 0.000111131 5.91409e-19)
(0.000474581 0.000373564 2.39272e-19)
(0.000861563 1.65572e-05 -3.90807e-20)
(0.000723016 -1.83206e-05 2.57696e-19)
(0.000658004 -0.000233486 0)
(0.00638063 0.0103431 -1.79754e-19)
(0.00628755 0.0101553 4.52445e-19)
(0.00643694 0.0106811 -6.19083e-19)
(0.006202 0.0100303 -9.76054e-20)
(4.54889e-05 0.00011925 8.06217e-19)
(0.000873109 4.95214e-05 1.43803e-22)
(0.00625612 0.0101039 -4.3357e-19)
(0.0064324 0.0104822 5.68843e-19)
(0.00631483 0.0107026 -4.48541e-19)
(0.00619563 0.0100309 -8.14686e-20)
(0.000108259 0.000610457 -2.03811e-20)
(0.000198228 -0.000166369 -8.02197e-19)
(0.000854178 -1.42526e-06 -7.6239e-19)
(0.000699017 0.000216115 0)
(0.000696008 -1.59905e-05 0)
(0.000185373 0.000392342 3.39327e-19)
(0.00060597 0.000583135 -5.35689e-19)
(2.5276e-05 -3.29118e-06 1.8004e-19)
(0.000211651 0.000463126 -7.45048e-19)
(0.000991805 0.00095644 -1.13721e-19)
(0.000716041 0.000174255 0)
(0.000760754 0.000164365 1.31594e-19)
(0.00633951 0.00588606 1.1467e-18)
(0.000673564 0.00111884 8.35422e-20)
(4.68334e-05 4.62972e-05 -7.51529e-20)
(0.000834596 4.14155e-05 0)
(0.000862947 1.20966e-05 -3.58249e-20)
(4.59999e-05 7.32914e-06 -1.98381e-19)
(3.98969e-05 8.81822e-06 1.9467e-19)
(0.000805806 1.82849e-05 5.3518e-19)
(0.000947627 0.00011063 6.6471e-19)
(0.000764423 7.70361e-05 0)
(0.000252844 -0.000251322 -4.04321e-19)
(0.000868734 0.000135612 3.91369e-19)
(4.59668e-05 -9.01192e-05 2.04912e-19)
(0.00149711 0.00038106 -2.57989e-18)
(0.00077884 2.21197e-06 0)
(0.000768007 0.000126606 3.74637e-19)
(9.0664e-05 0.000408311 0)
(0.00113782 0.00819668 4.65543e-19)
(0.000461943 0.000515153 -1.23258e-18)
(0.00052517 0.00095387 -1.85409e-19)
(0.000854077 2.53751e-05 -1.45984e-19)
(2.15385e-05 3.32097e-05 0)
(0.000901697 7.53297e-05 6.09928e-19)
(0.00415874 0.00801569 9.47456e-20)
(0.00418677 0.00798938 6.60906e-20)
(0.00442968 0.00774908 4.59377e-19)
(0.00416309 0.00779625 -3.77087e-19)
(0.0062155 0.0100455 9.77409e-20)
(0.00405947 0.00787876 1.86532e-20)
(0.00544021 0.00777938 -5.75845e-19)
(0.00423066 0.00803023 5.11506e-21)
(0.00510731 0.00782843 5.25337e-19)
(0.00419995 0.00799546 -6.72531e-20)
(0.00484231 0.0076918 0)
(0.00417226 0.00800087 -1.0635e-19)
(0.00464014 0.00762122 5.08362e-19)
(0.00416404 0.00801349 1.04682e-19)
(0.00449852 0.00764718 0)
(0.00421235 0.00799912 1.63642e-19)
(0.00414871 0.00752044 7.13361e-19)
(0.0042597 0.00778095 -5.83559e-19)
(0.00409831 0.00787281 4.37681e-19)
(0.0042356 0.00785153 3.47238e-19)
(0.00623472 0.0100773 -4.83862e-21)
(0.00416282 0.00802132 3.73755e-20)
(0.00622566 0.0100593 0)
(3.27273e-05 1.05129e-05 -1.91602e-19)
(0.00200509 0.00651358 2.31001e-19)
(0.000836485 2.87055e-06 1.09878e-19)
(0.00084569 2.02015e-05 0)
(4.68224e-06 5.08311e-06 -4.02778e-19)
(0.000116355 -0.000208637 6.97183e-19)
(2.29246e-05 6.98834e-05 2.10361e-18)
(0.000797815 0.000190517 -9.09239e-20)
(0.000675631 6.41272e-06 7.04538e-19)
(5.34573e-06 -5.92858e-06 3.12853e-19)
(2.93848e-05 -4.98241e-05 -1.86185e-18)
(0.000668031 9.61929e-06 1.6302e-19)
(0.000807539 0.000113418 -3.01566e-20)
(0.000672369 -4.07139e-06 1.47969e-19)
(0.000427978 0.000654522 0)
(0.000146079 -0.000150697 1.16223e-18)
(0.000830653 2.27591e-05 1.52196e-19)
(2.58818e-05 3.07602e-05 0)
(0.000100667 0.000558406 -6.36441e-19)
(0.000616003 0.000556664 1.29901e-18)
(0.000334694 0.000723972 0)
(0.000666905 -5.77799e-06 0)
(0.000678563 9.32714e-05 1.17129e-18)
(2.8376e-05 5.23647e-05 -3.54312e-18)
(2.39696e-05 1.2067e-05 3.77052e-19)
(0.000110199 0.000157642 0)
(6.94664e-05 -4.64951e-05 0)
(7.85766e-05 0.000125878 2.02476e-19)
(0.000889596 0.000180069 3.52646e-19)
(0.000768711 -6.46111e-05 -1.38495e-18)
(2.96026e-05 4.23421e-05 0)
(0.000630696 0.000113006 -6.05342e-20)
(0.000687905 1.29129e-05 -1.56292e-19)
(0.000864356 -9.88617e-07 1.04275e-18)
(0.000247623 0.000544837 6.37578e-19)
(0.000816421 0.000131396 0)
(3.80237e-05 -3.59938e-05 5.43522e-19)
(4.80238e-06 -1.87339e-05 -3.22868e-19)
(0.00117695 -1.40516e-05 0)
(0.00090847 0.00209651 0)
(0.00106127 -0.000143943 0)
(0.000964351 0.000191942 4.31073e-19)
(0.000858694 -7.33465e-06 -2.81194e-19)
(0.000880728 0.000127324 -6.81033e-19)
(0.000683359 2.9898e-05 0)
(4.63448e-05 8.07559e-05 -1.73153e-19)
(0.00017253 0.000331445 1.0909e-18)
(0.000773402 3.11955e-05 9.50296e-24)
(0.00106298 0.00017584 -6.75259e-19)
(0.00106358 0.000120784 0)
(3.94339e-06 1.60458e-05 2.53335e-19)
(2.93915e-05 -2.3624e-05 -1.9608e-19)
(0.000741478 4.7382e-05 6.93626e-21)
(6.17423e-05 -0.000121389 0)
(0.00101377 0.000261943 9.59212e-19)
(0.00507339 0.00972433 -2.88935e-19)
(0.00306064 0.00963659 1.29619e-18)
(0.000102797 -0.000124851 -1.93112e-19)
(9.57508e-05 -8.70466e-05 1.87674e-18)
(0.00117592 0.000225657 1.68749e-19)
(0.00125611 0.00103773 2.36167e-19)
(0.000819865 1.87789e-05 -7.29702e-19)
(0.000217719 0.000917572 -2.41011e-19)
(0.000767248 0.000867122 -2.2011e-19)
(0.000697829 -3.5664e-05 0)
(0.000116464 0.000741751 0)
(0.000100231 0.000287591 -5.66423e-23)
(0.000825583 -1.29841e-05 -3.70306e-23)
(0.000824948 -1.73077e-05 1.52331e-19)
(0.00259427 0.00197401 -1.24544e-18)
(0.00171579 0.00926066 -1.19088e-19)
(0.000764556 4.01136e-05 4.88718e-19)
(0.00630804 0.00403186 -1.79391e-19)
(0.00630351 0.0102551 -2.87557e-20)
(0.0046692 0.00829134 1.18621e-20)
(0.000771861 9.92728e-05 -2.16569e-18)
(0.000809523 4.14112e-05 -9.29792e-24)
(1.84406e-05 -1.46013e-05 -3.51161e-19)
(5.16894e-05 0.000103377 -3.52488e-19)
(9.07426e-05 0.000284961 8.83963e-19)
(1.82864e-05 2.2887e-05 4.94906e-19)
(9.4288e-05 0.000243102 3.73117e-19)
(0.00080775 5.87657e-05 0)
(0.00523326 0.0091047 2.16043e-21)
(0.00140236 0.000615205 -2.64104e-20)
(0.000821693 1.75046e-05 3.55538e-19)
(7.73002e-05 -0.000100476 0)
(0.00191766 0.000657606 5.51752e-19)
(1.60064e-05 1.30632e-05 -2.72642e-19)
(4.17154e-05 3.67634e-05 9.80757e-20)
(0.00132214 0.00142482 6.43809e-19)
(0.000822082 2.78658e-05 1.80184e-19)
(1.61482e-05 -4.22289e-06 -1.71776e-19)
(0.00203594 0.00148735 -1.06418e-18)
(0.000131057 0.000192386 -8.24664e-19)
(0.00394967 0.00848317 -1.10658e-18)
(1.42972e-05 3.64836e-06 8.89532e-20)
(0.00022416 -0.00045544 -1.24655e-18)
(7.17987e-05 -6.18576e-05 4.09388e-20)
(0.00147366 0.000895963 0)
(0.000997972 0.000144773 -4.62253e-22)
(0.000416568 0.000852995 -4.05756e-20)
(0.000835141 1.9339e-05 -2.30775e-19)
(8.5378e-05 0.000200993 7.40688e-19)
(6.32191e-05 -7.66117e-05 4.07771e-19)
(2.46142e-05 2.07983e-05 -9.55819e-20)
(4.30837e-05 0.000109677 -3.23112e-19)
(0.000202068 -0.000350882 -5.44936e-19)
(0.0032325 0.00341729 2.68461e-21)
)
;

boundaryField
{
    back
    {
        type            empty;
    }
    ingreso
    {
        type            fixedValue;
        value           uniform (0.0008 0 0);
    }
    salida
    {
        type            zeroGradient;
    }
    front
    {
        type            empty;
    }
    defaultFaces
    {
        type            noSlip;
    }
}


// ************************************************************************* //
