/*--------------------------------*- C++ -*----------------------------------*\
  =========                 |
  \\      /  F ield         | OpenFOAM: The Open Source CFD Toolbox
   \\    /   O peration     | Website:  https://openfoam.org
    \\  /    A nd           | Version:  7
     \\/     M anipulation  |
\*---------------------------------------------------------------------------*/
FoamFile
{
    version     2.0;
    format      ascii;
    class       volVectorField;
    location    "74";
    object      U;
}
// * * * * * * * * * * * * * * * * * * * * * * * * * * * * * * * * * * * * * //

dimensions      [0 1 -1 0 0 0 0];

internalField   nonuniform List<vector> 
591
(
(0.000830732 -2.1492e-05 1.21784e-18)
(0.000821334 -2.00945e-05 -6.64014e-19)
(0.000857193 -2.51039e-06 5.68344e-20)
(0.000860771 -1.30634e-05 -1.49109e-19)
(0.000845247 5.91297e-07 2.25579e-19)
(0.000802643 -4.05846e-05 -1.39626e-19)
(0.000562652 -0.000280265 8.06411e-19)
(0.000803538 4.37422e-06 2.09083e-18)
(0.00573369 0.00250369 9.87897e-19)
(0.000802107 -1.15059e-05 2.45481e-18)
(4.85195e-05 0.000167985 1.21832e-18)
(0.000933165 0.00138033 9.4081e-21)
(0.000799714 4.71386e-06 1.32528e-18)
(0.00159979 0.0023948 -7.87601e-19)
(0.000803404 2.22592e-06 -4.4473e-19)
(6.01956e-05 -0.000193341 2.37362e-22)
(0.000137571 0.000676584 7.04982e-19)
(0.000818445 6.90382e-05 -4.98353e-19)
(0.00192193 0.000393773 4.73895e-19)
(0.00135905 0.00025288 -2.47114e-19)
(0.000833268 -6.11302e-06 3.73237e-19)
(0.00340003 0.00655943 -8.15138e-20)
(2.65703e-05 6.89388e-05 2.70957e-19)
(0.000835545 -1.79391e-05 -4.51218e-19)
(1.02492e-05 -1.50681e-05 3.58943e-19)
(0.000776672 3.45678e-05 0)
(9.34596e-05 0.000472998 1.59972e-19)
(0.000549393 8.3272e-06 -1.78847e-19)
(0.000755647 4.72648e-05 1.14955e-18)
(0.000810542 5.49077e-05 5.8885e-19)
(5.59408e-05 -4.03286e-06 -4.56494e-24)
(3.05074e-05 -4.5042e-05 3.5219e-19)
(3.49684e-05 -2.97159e-06 -4.64243e-20)
(4.39198e-05 -1.19921e-05 0)
(5.30177e-05 -1.30961e-05 1.13151e-18)
(0.00117435 0.000133196 1.79933e-19)
(2.97384e-05 -5.13529e-06 4.47162e-20)
(0.00082616 3.57151e-06 3.09762e-23)
(2.64207e-05 4.26773e-05 2.66039e-19)
(9.40589e-06 -9.34915e-05 -8.5485e-19)
(0.000642512 -0.000203407 9.59921e-19)
(2.37266e-05 -6.37868e-06 4.54843e-20)
(0.000803877 4.24222e-06 -1.58096e-18)
(0.00083143 4.41508e-05 -6.91179e-19)
(1.6025e-05 -7.44237e-06 0)
(5.36596e-05 6.34158e-06 8.51903e-20)
(0.00134658 0.00450168 8.93008e-19)
(7.45482e-05 1.49823e-05 8.63655e-20)
(0.000800956 1.63634e-05 0)
(0.000384877 -0.0002124 6.77514e-19)
(0.000383189 0.000272197 5.1193e-21)
(0.000395753 4.62286e-05 -1.00382e-18)
(0.00634826 0.0109416 -7.68563e-19)
(0.00622497 0.0107967 1.52785e-20)
(0.00561442 0.0103795 1.45589e-18)
(0.00080832 3.21029e-05 0)
(6.59319e-05 2.99059e-05 0)
(0.000317728 1.06194e-05 1.62407e-23)
(6.16265e-05 9.78962e-06 -3.46471e-19)
(0.000814372 -7.97933e-06 0)
(0.000641424 2.88921e-05 3.17575e-19)
(0.000836069 1.28229e-05 2.20767e-18)
(0.000802403 3.17285e-05 -5.40376e-19)
(0.000799726 1.42311e-05 -3.15761e-19)
(0.00171187 0.000487422 5.42769e-19)
(0.000800851 1.78374e-05 -1.15257e-18)
(0.000830135 2.25903e-05 -5.24285e-19)
(7.87571e-05 -3.39769e-06 -1.73418e-19)
(0.000688901 0.00226195 0)
(0.000838568 4.02492e-05 0)
(0.00078082 1.77176e-05 -1.39269e-18)
(3.72134e-05 1.55031e-05 0)
(0.000289493 0.000269246 3.26855e-19)
(3.8811e-05 -1.69283e-05 0)
(4.02461e-05 -5.8231e-06 1.59478e-19)
(1.36747e-05 -4.2767e-05 -3.36683e-20)
(0.000792847 7.71998e-05 2.46917e-19)
(4.32864e-05 1.0235e-05 0)
(0.00080262 5.61213e-05 4.47449e-19)
(0.000774042 0.000293489 2.10734e-19)
(0.000963972 6.34142e-05 -3.97936e-20)
(4.2063e-05 2.23592e-05 -4.51879e-20)
(5.25831e-06 -2.06739e-05 0)
(0.000435205 0.000215552 1.7019e-19)
(2.83918e-06 2.13917e-05 0)
(0.000795016 3.90597e-05 -6.06814e-19)
(0.000615295 -0.000120058 0)
(6.32738e-05 -2.26455e-06 -1.74486e-19)
(2.82629e-06 -2.83745e-05 0)
(0.000829624 0.000241163 -3.41274e-19)
(3.41303e-06 -1.22108e-05 0)
(0.000424824 0.000322754 -1.31126e-23)
(0.000532475 0.000111184 0)
(0.000808527 4.41328e-05 -3.11224e-24)
(2.61035e-06 1.34201e-05 -4.21728e-20)
(0.000457509 -1.58184e-05 1.76359e-18)
(0.00102278 7.22128e-05 4.1604e-20)
(0.000823153 4.50278e-05 6.41266e-22)
(0.000740328 0.000657946 2.69508e-19)
(6.79577e-06 4.67322e-05 0)
(-9.56565e-07 -4.12144e-05 -3.12071e-19)
(-2.46285e-05 -7.05188e-05 -1.10107e-18)
(4.32283e-06 7.50594e-05 -5.96385e-19)
(0.000615271 -2.22955e-05 0)
(8.4136e-06 9.95456e-05 0)
(0.000812888 2.69439e-05 2.18217e-18)
(0.00078992 2.60744e-05 1.53433e-18)
(0.000429757 -8.65254e-05 0)
(4.16628e-05 0.00021635 -8.95411e-19)
(-4.76376e-09 0.000165274 4.96722e-19)
(6.05663e-05 0.000406685 6.25212e-19)
(0.000306521 7.95521e-05 -9.37165e-19)
(0.000802656 2.01405e-05 1.37338e-19)
(0.000260567 -4.71041e-05 5.31242e-19)
(4.22523e-06 3.08109e-05 0)
(2.10626e-05 0.000283009 -1.09399e-18)
(0.000321346 0.00032295 -1.61708e-19)
(6.47919e-07 -3.36365e-05 1.46528e-19)
(0.000670265 0.000812867 0)
(0.000369303 0.000386703 5.7443e-20)
(0.000817349 1.83368e-05 1.07027e-18)
(0.000799544 1.61703e-06 -2.72209e-18)
(5.65989e-06 -3.22098e-05 0)
(0.000670285 -3.47514e-05 -1.12319e-19)
(0.000321334 -0.000120244 1.24328e-18)
(0.00264171 0.00080843 -3.36365e-19)
(6.12161e-06 0.000129553 -6.13192e-19)
(5.62637e-06 0.00015835 1.61947e-18)
(0.000699335 2.29663e-05 -3.89918e-20)
(6.15637e-05 -1.4144e-05 -7.50193e-19)
(0.000807337 3.06983e-05 -3.8716e-19)
(0.000748252 2.64081e-05 -4.10451e-20)
(3.56634e-05 0.000329061 -5.97009e-19)
(0.00048918 6.35522e-05 -4.93947e-19)
(4.71009e-05 -3.54568e-06 1.56159e-19)
(0.000834879 3.09454e-05 -1.09409e-18)
(0.00155343 0.000237241 -1.13716e-18)
(4.46161e-06 6.04019e-05 4.96447e-19)
(0.000810268 3.01193e-05 -4.98571e-19)
(0.000914306 0.000544885 -7.85128e-20)
(0.00014664 0.000788173 0)
(0.000585197 6.44238e-05 0)
(0.000276009 5.12504e-05 -1.60971e-18)
(6.22291e-05 5.71044e-05 -1.37414e-18)
(2.99199e-05 1.98603e-05 0)
(0.00424702 0.00740002 -1.01963e-20)
(0.0042254 0.00737198 3.16508e-20)
(0.00442762 0.00757477 -4.96702e-21)
(0.0042066 0.00773477 0)
(0.004199 0.00760061 5.77234e-19)
(0.00424419 0.00740139 -9.20032e-20)
(0.00421031 0.0080424 4.84456e-19)
(0.00428941 0.00742198 0)
(0.00420853 0.00853554 6.16764e-19)
(0.00432586 0.00745041 2.23908e-19)
(0.000825797 9.52728e-06 -1.37386e-18)
(0.000771898 5.47802e-05 0)
(0.000212995 4.98979e-05 1.27701e-19)
(4.9026e-05 1.50012e-05 8.71877e-20)
(7.65632e-05 4.31842e-05 6.80044e-19)
(0.000104055 3.9183e-05 -3.41681e-19)
(9.79104e-05 3.60592e-06 0)
(4.6687e-05 4.379e-06 8.18403e-20)
(0.000206468 0.000130139 0)
(0.00016429 3.9097e-05 -5.24316e-20)
(0.000344216 0.00022085 -5.09271e-21)
(5.47141e-05 4.16115e-05 -4.3767e-19)
(8.88883e-05 2.54846e-05 -8.52503e-20)
(8.90488e-05 5.99742e-05 1.31199e-21)
(0.000256778 0.000364926 -6.66195e-19)
(0.000107652 0.000999345 0)
(4.11352e-05 5.12946e-05 3.43074e-19)
(0.000199107 0.00174978 0)
(0.000207902 0.000251888 7.04684e-19)
(3.62486e-05 -3.57567e-06 1.11499e-19)
(0.000485296 0.000163142 -1.72307e-19)
(0.000763574 2.39787e-05 -1.92419e-18)
(4.12896e-05 -1.38182e-06 4.55607e-24)
(0.000146273 2.18965e-05 2.24598e-19)
(0.000244541 8.96201e-05 -8.99361e-20)
(0.000881493 0.000702646 3.34951e-19)
(0.000723355 0.0016345 -9.23607e-21)
(0.00039827 0.00142245 -9.39496e-21)
(0.0010254 0.000546947 0)
(9.95619e-05 -1.68227e-05 1.11875e-18)
(0.000113563 1.31967e-05 -4.43134e-20)
(0.000458873 -0.000285945 -1.13615e-18)
(0.000816481 4.01501e-05 0)
(0.000180281 -2.18782e-06 3.63316e-19)
(0.000300908 0.00130785 0)
(0.00108182 0.000774726 -7.30221e-20)
(0.000826875 3.26047e-05 -1.86564e-19)
(7.44466e-05 -2.18731e-05 -2.99991e-19)
(0.00083135 0.000318506 -2.08055e-20)
(5.38537e-05 -2.13652e-05 -5.99519e-19)
(0.000226548 0.000173399 8.63908e-20)
(0.000230165 0.00030808 -3.45023e-19)
(0.000888063 0.000248917 0)
(0.000817482 5.27436e-05 0)
(0.000264046 0.000133361 1.76853e-19)
(0.000233657 -2.35743e-06 4.02365e-24)
(0.000184515 0.000204205 0)
(0.000297604 0.000651959 -5.55718e-21)
(0.000350465 -1.02991e-05 0)
(0.000374745 0.000599431 0)
(0.000107546 8.01475e-05 -1.34675e-21)
(0.000810186 2.94911e-05 -9.51391e-19)
(0.000807312 1.98118e-05 7.9797e-19)
(0.000127409 5.49796e-05 -1.49862e-19)
(0.000961233 0.000148891 8.50524e-20)
(0.000837961 4.21477e-05 3.33219e-19)
(0.000818046 2.87046e-05 -2.94128e-19)
(0.0010227 0.000415517 0)
(0.000440346 0.000117327 6.24456e-19)
(0.00090126 0.000321152 2.09146e-20)
(0.000580305 0.000154876 0)
(0.000272213 0.000446808 4.09654e-19)
(0.000261856 0.000215188 -8.44206e-20)
(0.00109675 0.000379295 -7.82164e-19)
(0.000627143 0.000103961 -1.79298e-19)
(0.000812188 7.33445e-05 -7.45782e-21)
(0.000841848 2.83177e-05 9.39951e-20)
(7.21948e-05 -8.71162e-05 -1.98146e-18)
(0.000740387 0.000381173 2.19242e-19)
(0.000671854 6.44938e-05 2.3064e-20)
(0.000708865 0.000279388 1.60495e-23)
(0.000731855 0.000460218 -4.097e-19)
(0.000847308 2.6674e-05 9.06861e-20)
(7.08999e-05 7.79263e-05 0)
(0.000657863 0.000420714 -4.65934e-20)
(0.000183165 9.26493e-05 0)
(0.000374569 0.00050173 -2.64846e-19)
(0.000310233 0.000165571 0)
(0.000676801 0.000204822 3.55239e-19)
(0.000651619 0.000259775 -4.37267e-20)
(8.09161e-05 0.000102469 6.19179e-19)
(0.000877312 9.40887e-05 -1.62715e-18)
(5.63278e-05 2.09706e-05 2.57201e-19)
(0.000888739 7.01732e-05 -1.68574e-18)
(0.000841987 8.91638e-05 1.63009e-19)
(0.000810687 3.35226e-05 1.9106e-18)
(0.000817312 3.34257e-05 -1.32856e-19)
(0.000738381 7.20488e-05 0)
(0.000805956 2.417e-05 8.95642e-19)
(0.000962261 0.000231503 -4.27116e-19)
(0.000776075 9.51833e-05 -4.83744e-19)
(0.00077954 0.00023284 -8.81252e-20)
(0.000209503 -0.000171153 -2.07807e-18)
(0.000749949 8.0189e-05 8.87551e-19)
(0.000640935 0.000595223 0)
(8.3357e-05 -0.000118131 0)
(0.00122306 0.000472403 4.97288e-19)
(0.000610613 -6.0804e-05 -3.26544e-18)
(0.00134618 0.000415804 5.7649e-19)
(0.0012442 0.0007177 -6.38861e-20)
(0.000812884 3.1119e-05 -2.12319e-19)
(0.000837245 6.70586e-05 -1.42579e-18)
(0.000814865 2.65073e-05 1.58792e-18)
(0.000817073 2.64112e-05 9.7826e-20)
(0.000670672 0.000352654 -4.40416e-20)
(0.000100988 0.000121065 6.03544e-24)
(0.000753774 -3.78685e-05 2.65083e-19)
(0.000215179 -0.000262436 -7.32255e-19)
(0.000626265 0.000185595 0)
(0.00071201 4.67217e-05 9.90431e-20)
(0.000698847 9.82255e-06 -3.80823e-19)
(0.000390514 0.00016938 3.93374e-20)
(0.00080781 0.000507003 -1.6548e-19)
(0.00014794 7.31252e-05 3.26644e-25)
(0.000812909 0.000412299 0)
(0.000981336 0.000317664 4.15785e-20)
(0.00075902 -7.32722e-05 -6.16198e-19)
(0.000349427 0.000103215 4.97824e-19)
(0.000904091 0.00042626 0)
(4.81467e-05 3.02798e-05 1.33715e-19)
(0.000485634 0.000266506 2.13956e-19)
(0.000515519 -0.000154975 -7.0952e-19)
(0.000124204 -0.000164585 -1.05649e-18)
(0.000824723 3.39486e-05 -4.86819e-19)
(0.000773013 -8.28806e-05 -1.9431e-19)
(0.000547809 0.000729517 -1.17441e-18)
(0.000848792 4.71384e-05 -6.74386e-20)
(0.000616855 -2.06053e-05 1.27818e-18)
(0.000706106 9.95697e-05 2.27787e-20)
(0.000533786 0.000208481 -1.65689e-19)
(2.97316e-05 -2.11455e-05 -8.75867e-20)
(0.000164383 -4.72494e-05 2.40614e-18)
(1.7048e-05 6.88055e-07 -1.94848e-19)
(0.000830426 0.000114394 3.63756e-19)
(0.000666565 0.000136025 0)
(0.000183446 -9.08702e-05 -1.04817e-18)
(0.000119301 -2.00921e-05 3.12901e-19)
(0.000105451 -3.70982e-05 1.30422e-23)
(0.000800103 0.000105888 -3.1927e-19)
(0.000151478 -1.47157e-05 0)
(0.000586664 0.00024131 0)
(0.000111288 0.000328404 -3.62861e-19)
(0.000862153 0.000100595 2.09974e-18)
(1.38904e-05 1.02524e-06 0)
(0.00088043 5.31624e-05 0)
(4.18881e-05 -2.5763e-05 0)
(0.000815441 4.65435e-05 -4.46828e-21)
(0.000788841 -4.27123e-05 0)
(0.00425991 0.00740635 8.0699e-20)
(0.00436165 0.00748622 1.43344e-19)
(0.00084388 -7.7242e-06 0)
(0.000788585 -4.56766e-05 8.09869e-19)
(0.000152475 0.000122953 1.49213e-19)
(0.000854336 6.80145e-05 8.07694e-19)
(0.000129236 9.98493e-05 2.34402e-20)
(0.00078155 -2.75902e-05 6.24423e-19)
(3.39883e-05 9.29517e-06 0)
(2.71762e-05 -1.31648e-05 -4.48492e-20)
(0.000898435 4.89964e-05 -4.86569e-19)
(3.1579e-05 -3.13717e-05 -6.69821e-19)
(0.000758327 0.000122328 -4.2325e-20)
(0.00016851 0.000160746 -1.88104e-19)
(0.000814609 2.86064e-05 0)
(0.00468249 0.00815355 9.00516e-22)
(0.000182335 0.000788584 3.33503e-19)
(0.000113579 -6.031e-05 -9.14553e-19)
(5.88362e-05 -3.50821e-05 -1.16879e-18)
(0.000634139 1.37406e-05 1.89852e-20)
(0.000581642 0.000407557 0)
(0.000419654 0.000443304 -2.56337e-19)
(8.06805e-05 -6.09192e-05 1.18373e-18)
(0.000592487 2.20164e-07 7.70253e-20)
(4.10062e-05 1.71273e-06 4.07106e-19)
(0.000704165 -5.08338e-05 1.17166e-18)
(0.000811205 3.26347e-05 -6.01739e-19)
(6.21888e-05 -5.50833e-05 1.70936e-18)
(0.000842409 -2.69953e-05 -5.74777e-24)
(0.000610679 6.80278e-06 -3.76504e-20)
(0.000868566 6.99314e-05 0)
(0.000840261 4.10025e-05 0)
(0.00591737 0.00724079 2.59643e-19)
(1.77376e-05 -2.37932e-06 -1.19587e-19)
(0.000120925 -0.000104107 7.73011e-19)
(0.000726256 0.000117544 -6.96455e-19)
(2.07113e-05 1.30624e-08 2.01523e-19)
(0.000625681 -3.5601e-05 -7.23832e-19)
(0.000744611 3.68881e-05 1.55809e-18)
(0.000705527 0.000159359 -3.55446e-19)
(0.000807684 -1.25761e-05 3.60723e-19)
(7.39907e-05 -3.45287e-05 1.11603e-18)
(0.000800087 6.87548e-06 -3.22698e-19)
(0.000867369 4.10901e-05 0)
(0.000542262 0.000303145 4.21027e-20)
(0.000858353 5.09128e-05 -9.46651e-19)
(1.83377e-05 2.4808e-06 9.11304e-19)
(0.000854106 4.59414e-05 9.65596e-19)
(0.00085773 1.10294e-05 -9.60209e-19)
(0.000751965 -1.9721e-06 -5.69191e-19)
(0.000524336 -7.38694e-05 -5.25658e-19)
(0.00432881 0.0074526 2.4703e-19)
(0.00422353 0.00752925 -2.53712e-19)
(0.00422138 0.00758727 2.6682e-19)
(0.00425577 0.00741053 1.97964e-19)
(0.000844867 -2.88697e-05 1.44116e-19)
(0.00447563 0.00751226 0)
(0.00440316 0.00751676 -3.8685e-19)
(2.84834e-05 -1.28477e-07 -9.9812e-19)
(0.00417056 0.00746936 -6.33626e-20)
(0.0041459 0.00743244 -2.21503e-19)
(0.0060297 0.0106062 0)
(0.00654051 0.0111876 3.71408e-20)
(0.00600964 0.0105759 0)
(0.00655621 0.0112111 1.30859e-19)
(0.005997 0.0105999 2.69687e-19)
(0.00659289 0.0112279 1.24585e-20)
(0.00593567 0.0106127 -7.76763e-19)
(0.00662314 0.0111469 8.14889e-21)
(0.00390375 0.00919958 -1.9085e-19)
(0.00418686 0.00748844 3.89945e-21)
(0.0042381 0.00755266 7.93542e-20)
(0.00415037 0.00743473 4.12017e-20)
(0.000880479 0.000192389 4.46753e-20)
(9.81651e-06 1.39527e-06 0)
(0.000705476 -0.000119431 0)
(0.000663377 5.15849e-05 0)
(0.00244396 0.00111019 4.2366e-21)
(0.000755341 -3.15671e-05 1.72586e-19)
(3.95339e-05 5.50653e-06 4.54071e-20)
(9.66333e-06 -2.65181e-05 1.65321e-18)
(0.000851976 1.34054e-05 0)
(2.7246e-05 1.22964e-05 -1.91734e-19)
(0.00014002 0.000222291 0)
(1.70186e-05 -9.95522e-07 0)
(1.37515e-05 -1.29166e-06 0)
(0.000824412 0.000140427 1.13741e-20)
(0.000810734 -1.75596e-05 1.79411e-19)
(3.67737e-05 0.000271785 -1.60352e-23)
(0.000157598 0.000272196 -1.84199e-18)
(0.00060356 0.000328901 -8.57026e-20)
(0.000896992 0.000109977 6.0074e-19)
(0.000652053 -0.000209108 6.73402e-19)
(0.000362889 0.00110992 0)
(0.000472813 0.000575188 2.71535e-18)
(9.01119e-05 0.000144992 -1.80317e-18)
(2.12874e-05 1.50909e-08 0)
(0.000821511 -5.86026e-05 3.63457e-20)
(1.60622e-05 3.55649e-05 1.64455e-18)
(0.000898815 3.25609e-05 2.7119e-19)
(-1.89084e-05 1.50234e-05 3.80788e-18)
(0.000929546 3.99961e-05 -2.69056e-19)
(0.00134843 0.00015104 7.47225e-19)
(3.44406e-05 -1.05681e-05 8.25742e-20)
(3.59332e-05 3.61061e-06 -8.59118e-19)
(5.07152e-05 0.000141708 0)
(0.000910555 8.09826e-05 5.98567e-19)
(0.000494192 0.000367993 2.37152e-19)
(0.000658304 1.78166e-05 -3.89158e-20)
(0.00077867 -3.31524e-06 2.57312e-19)
(0.000735631 -0.000176677 0)
(0.00632142 0.0108965 -1.68061e-19)
(0.00637917 0.0109741 4.05836e-19)
(0.00616046 0.0107313 -6.1844e-19)
(0.00650157 0.0111329 -8.09823e-20)
(3.41697e-05 0.000118254 8.00568e-19)
(0.000920718 5.99792e-05 1.456e-22)
(0.00641172 0.0110066 -3.86464e-19)
(0.00628237 0.0108462 5.48466e-19)
(0.00608058 0.0106731 -4.16836e-19)
(0.00652206 0.0111653 -6.81428e-20)
(8.01971e-05 0.000505242 -2.01822e-20)
(7.91344e-05 -0.000202113 -7.93235e-19)
(0.000669697 -2.07484e-05 -7.64898e-19)
(0.000724527 0.000220231 0)
(0.000800098 4.34695e-07 0)
(0.000186327 0.000390277 3.36311e-19)
(0.000598255 0.000514669 -5.41892e-19)
(9.40634e-06 -1.59873e-06 1.78405e-19)
(0.000201061 0.000467186 -7.38422e-19)
(0.00101055 0.000972934 -1.12686e-19)
(0.000743945 0.000165968 0)
(0.000788306 0.000183747 1.31028e-19)
(0.0063542 0.00587996 1.13142e-18)
(0.00073976 0.00112783 8.26607e-20)
(3.8481e-05 3.78125e-05 -7.44726e-20)
(0.000810198 1.343e-05 0)
(0.000874394 2.58499e-05 -3.56928e-20)
(3.42206e-05 3.17159e-06 -1.96721e-19)
(2.96192e-05 4.57666e-06 1.93004e-19)
(0.000833118 1.84297e-05 5.3725e-19)
(0.000972877 0.000109745 6.58277e-19)
(0.00056499 3.92683e-05 0)
(0.00022269 -0.000297886 -3.98087e-19)
(0.000915398 0.000146902 3.8962e-19)
(1.19553e-05 -6.02276e-05 2.03129e-19)
(0.00145059 0.000443211 -2.58176e-18)
(0.000594148 -8.07992e-06 0)
(0.000791834 0.00014391 3.75491e-19)
(9.44848e-05 0.000394814 0)
(0.00118791 0.00816161 4.62181e-19)
(0.000490314 0.000499776 -1.2246e-18)
(0.000541514 0.00100922 -1.83761e-19)
(0.000881373 1.79697e-05 -1.46063e-19)
(1.30173e-05 2.51721e-05 0)
(0.000947257 7.72826e-05 6.11739e-19)
(0.00410631 0.00739548 8.14281e-20)
(0.00417142 0.00747385 4.73024e-20)
(0.00449939 0.00751497 4.5407e-19)
(0.00444462 0.00754096 -3.29341e-19)
(0.00647551 0.0111099 8.10599e-20)
(0.00391482 0.00714602 -9.64995e-22)
(0.00550776 0.00779728 -5.64762e-19)
(0.00409785 0.00737164 5.21895e-21)
(0.00518835 0.00785707 5.11689e-19)
(0.00407965 0.0073401 -4.87194e-20)
(0.00495337 0.00771641 0)
(0.00408494 0.00736451 -8.56575e-20)
(0.00474201 0.00758761 4.92525e-19)
(0.00409821 0.00737613 8.75154e-20)
(0.00457458 0.00752721 0)
(0.00428345 0.00742055 1.39752e-19)
(0.00423959 0.00759885 5.80389e-19)
(0.00446704 0.00752637 -5.55287e-19)
(0.00438739 0.00750435 3.71396e-19)
(0.0042281 0.00752516 2.87976e-19)
(0.0064309 0.0110433 -4.97664e-21)
(0.00411777 0.00740161 3.11602e-20)
(0.00645898 0.0110731 0)
(2.39192e-05 5.79996e-06 -1.89871e-19)
(0.00199991 0.00654378 2.28277e-19)
(0.000838969 -4.90122e-05 1.09726e-19)
(0.000856282 8.62893e-06 0)
(1.54559e-06 1.31597e-06 -3.99135e-19)
(-7.95234e-06 -0.000130298 6.91978e-19)
(2.43136e-05 5.66428e-05 2.08911e-18)
(0.000828013 0.000180585 -9.00778e-20)
(0.000800326 9.18851e-06 7.06435e-19)
(1.33804e-06 -1.10793e-06 3.10008e-19)
(1.8422e-05 -3.37834e-05 -1.84577e-18)
(0.000762582 2.74097e-05 1.63162e-19)
(0.000867814 0.000123946 -3.08007e-20)
(0.000800468 -8.7288e-06 1.48145e-19)
(0.000415373 0.000679905 0)
(4.22027e-05 -0.000146122 1.15154e-18)
(0.000864298 7.73641e-06 1.52525e-19)
(1.98907e-05 2.37498e-05 0)
(0.000115395 0.0005601 -6.31269e-19)
(0.00060816 0.000593367 1.31801e-18)
(0.000326461 0.000751617 0)
(0.000801265 -1.66975e-05 0)
(0.00080097 2.95236e-06 1.17497e-18)
(1.74969e-05 4.8999e-05 -3.51515e-18)
(1.65825e-05 7.14851e-06 3.73644e-19)
(0.00011621 0.000144819 0)
(4.46434e-05 -4.09124e-05 0)
(6.18078e-05 0.00011231 2.0101e-19)
(0.000936271 0.000188038 3.50454e-19)
(0.000799973 1.55895e-05 -1.39703e-18)
(2.27715e-05 3.30583e-05 0)
(0.000455768 9.36537e-06 -6.04133e-20)
(0.000801117 3.84228e-05 -1.56355e-19)
(0.000842093 3.67814e-05 1.06384e-18)
(0.00025768 0.000542201 6.32261e-19)
(0.00087573 0.00015648 0)
(1.86584e-05 -2.35669e-05 5.38683e-19)
(2.48492e-06 -5.63237e-06 -3.19985e-19)
(0.000976357 3.16585e-05 0)
(0.00103539 0.00226519 0)
(0.000935685 -4.8996e-06 0)
(0.00100171 0.000207088 4.27206e-19)
(0.000817418 -3.42747e-05 -2.84005e-19)
(0.000930926 0.000109347 -6.84818e-19)
(0.000800642 3.35869e-06 0)
(4.19224e-05 6.86694e-05 -1.71576e-19)
(0.000174357 0.000326914 1.08119e-18)
(0.000799171 1.51503e-05 -1.90007e-23)
(0.00109123 0.00020955 -6.68968e-19)
(0.00109014 0.000125809 0)
(2.50249e-06 6.1782e-06 2.51045e-19)
(1.82867e-05 -1.52539e-05 -1.94326e-19)
(0.000573859 4.01297e-05 6.95053e-21)
(9.20812e-06 -7.91518e-05 0)
(0.00106195 0.000254403 9.50102e-19)
(0.00502879 0.00974897 -2.83047e-19)
(0.00312127 0.00961834 1.27262e-18)
(4.03062e-05 -0.00010514 -1.91352e-19)
(5.43334e-05 -7.52134e-05 1.85962e-18)
(0.00119104 0.000246854 1.67344e-19)
(0.00132768 0.0010796 2.34098e-19)
(0.000811432 5.49753e-07 -7.32745e-19)
(0.000197859 0.000951546 -2.38264e-19)
(0.000814933 0.000935806 -2.18595e-19)
(0.000800042 -2.69886e-06 0)
(8.44137e-05 0.000624489 0)
(9.54639e-05 0.000282173 -3.96024e-23)
(0.000719186 -4.29362e-05 -1.67838e-23)
(0.000822892 6.58769e-05 1.5262e-19)
(0.00263078 0.00206257 -1.23132e-18)
(0.00175963 0.00923835 -1.1722e-19)
(0.000834624 5.51368e-05 4.92268e-19)
(0.00632736 0.00404834 -1.75973e-19)
(0.00672111 0.0115578 -1.36464e-20)
(0.00473412 0.00784384 4.92908e-21)
(0.000802235 1.35765e-05 -2.19388e-18)
(0.000837369 7.91125e-06 5.43359e-24)
(8.64309e-06 -7.49794e-06 -3.48041e-19)
(4.64145e-05 8.96147e-05 -3.493e-19)
(6.62705e-05 0.000269918 8.75298e-19)
(1.09603e-05 1.6076e-05 4.90439e-19)
(8.96559e-05 0.00023017 3.69787e-19)
(0.00082227 2.30324e-05 0)
(0.00534812 0.00949247 1.95051e-20)
(0.00153402 0.000635573 -2.61221e-20)
(0.000819876 3.55346e-05 3.60201e-19)
(3.33588e-05 -8.20002e-05 0)
(0.00184783 0.000743458 5.46021e-19)
(9.38655e-06 7.51496e-06 -2.70172e-19)
(3.37875e-05 2.83424e-05 9.71888e-20)
(0.00132828 0.00139635 6.36625e-19)
(0.000736483 4.82532e-05 1.83115e-19)
(4.83775e-06 -1.60175e-06 -1.70215e-19)
(0.00206199 0.00155923 -1.05592e-18)
(0.000126501 0.00017875 -8.18801e-19)
(0.00392144 0.00848725 -1.09094e-18)
(5.40115e-06 1.55594e-06 8.81487e-20)
(0.000131422 -0.000112755 -1.25692e-18)
(4.78503e-05 -5.73865e-05 4.05674e-20)
(0.00152566 0.000982579 0)
(0.00103949 0.000138564 -4.05159e-22)
(0.000453776 0.000849007 -4.02065e-20)
(0.000802832 2.74419e-05 -2.34095e-19)
(8.71104e-05 0.000184936 7.36111e-19)
(3.1137e-05 -6.13782e-05 4.04039e-19)
(1.83468e-05 1.51753e-05 -9.47167e-20)
(3.15089e-05 9.22981e-05 -3.20311e-19)
(0.000207054 -0.000249855 -5.45167e-19)
(0.00325061 0.00346022 2.86928e-21)
)
;

boundaryField
{
    back
    {
        type            empty;
    }
    ingreso
    {
        type            fixedValue;
        value           uniform (0.0008 0 0);
    }
    salida
    {
        type            zeroGradient;
    }
    front
    {
        type            empty;
    }
    defaultFaces
    {
        type            noSlip;
    }
}


// ************************************************************************* //
