/*--------------------------------*- C++ -*----------------------------------*\
  =========                 |
  \\      /  F ield         | OpenFOAM: The Open Source CFD Toolbox
   \\    /   O peration     | Website:  https://openfoam.org
    \\  /    A nd           | Version:  7
     \\/     M anipulation  |
\*---------------------------------------------------------------------------*/
FoamFile
{
    version     2.0;
    format      ascii;
    class       surfaceScalarField;
    location    "15";
    object      phi;
}
// * * * * * * * * * * * * * * * * * * * * * * * * * * * * * * * * * * * * * //

dimensions      [0 3 -1 0 0 0 0];

internalField   nonuniform List<scalar> 
1111
(
5.93942e-09
1.34582e-08
-1.52295e-08
-4.16808e-09
6.0671e-09
-1.13863e-08
1.12586e-08
-1.43379e-08
4.28682e-09
9.93223e-09
1.18873e-10
1.45492e-10
-1.60778e-10
-1.38982e-08
1.39135e-08
-1.38512e-08
1.3676e-08
3.20673e-10
-1.17685e-09
1.48235e-08
1.78192e-09
-3.84171e-09
9.27029e-09
-1.13848e-08
5.95623e-09
-6.40841e-09
-1.23949e-08
1.2371e-08
6.43232e-09
-5.11539e-08
-2.53955e-08
7.65494e-08
-8.06596e-09
7.40699e-09
6.72607e-09
3.7817e-09
3.84379e-10
-3.86242e-09
-3.0366e-10
1.5576e-08
-1.58407e-08
-2.22742e-08
2.25389e-08
-9.6799e-09
-8.475e-09
9.08552e-09
9.06938e-09
-3.42854e-08
1.70388e-08
-3.19907e-08
4.92373e-08
9.64073e-09
-1.82998e-09
-1.42192e-08
-3.97337e-09
3.79971e-09
-3.2476e-09
3.42126e-09
-3.71822e-09
1.2966e-08
2.01526e-09
-1.1263e-08
8.88449e-09
-2.06192e-09
-1.49925e-08
8.1699e-09
3.88834e-08
-3.23014e-08
-6.58205e-09
-1.90578e-08
-3.76614e-10
1.78758e-08
1.55869e-09
-2.07619e-10
3.74172e-09
-1.80937e-08
1.45596e-08
-6.36053e-08
-3.25278e-09
6.68581e-08
2.25572e-10
-1.41638e-09
-4.27362e-10
1.61817e-09
-9.4545e-10
-1.31133e-08
-2.76463e-10
-3.78813e-10
3.71182e-10
2.84094e-10
-9.98009e-09
-8.06394e-09
1.22343e-08
5.8097e-09
9.19186e-10
-2.25009e-09
-8.49657e-09
9.82748e-09
7.60583e-09
1.14268e-09
-8.33182e-09
-4.1669e-10
-2.61038e-09
-7.77475e-09
1.05132e-08
-1.28118e-10
1.1111e-08
-6.09576e-11
-2.16556e-09
-1.14323e-09
1.10536e-09
1.57209e-10
-1.19334e-10
-4.66991e-10
1.01153e-09
6.46752e-10
-1.19129e-09
-7.26222e-10
-5.01305e-11
7.71178e-10
5.17452e-12
4.52227e-11
-1.18952e-09
8.23544e-11
1.06194e-09
-1.38609e-11
-1.08415e-09
5.52536e-10
-1.79161e-08
-1.69431e-09
-6.35673e-10
7.84743e-11
-1.69024e-10
1.31923e-08
-1.3242e-08
3.79137e-09
-5.08021e-10
7.18006e-10
4.98813e-10
-7.08798e-10
-1.00453e-09
-2.70431e-09
2.0908e-09
1.61804e-09
-1.84763e-09
8.18019e-09
-1.01743e-08
-4.93304e-10
-2.44814e-10
1.02444e-10
-8.81778e-09
9.95793e-09
-9.20612e-09
1.1579e-08
-1.64965e-08
5.15041e-09
-2.3289e-10
1.28095e-10
-2.62782e-10
-3.58617e-10
3.36206e-10
1.00428e-09
-2.35128e-10
-6.01304e-08
7.46133e-08
-1.4483e-08
1.24551e-09
-4.51112e-10
-1.45659e-09
6.6219e-10
7.57191e-10
1.03101e-08
-1.35343e-08
2.46703e-09
-1.24941e-10
6.38363e-09
-7.63872e-09
1.38003e-09
-6.30228e-09
5.84791e-09
5.37672e-09
-4.92235e-09
-6.70476e-09
-2.52719e-09
2.33285e-09
6.8991e-09
3.12418e-10
-9.13786e-08
9.15e-08
-4.33823e-10
-4.67992e-10
-8.99991e-08
9.04611e-08
5.97794e-12
8.31322e-08
-1.50039e-09
7.22135e-11
-8.1704e-08
-3.35113e-09
1.24215e-10
9.23435e-10
9.94012e-10
-6.71936e-10
4.16399e-09
-1.97217e-09
3.24981e-09
-5.44163e-09
-1.22906e-09
1.11415e-09
-1.50362e-08
6.58324e-09
8.90458e-09
1.08906e-09
-9.61952e-09
-3.74125e-10
-6.04934e-09
1.24178e-08
1.55131e-09
-7.91973e-09
1.40394e-08
-3.73349e-09
3.11453e-09
-1.34204e-08
1.53209e-08
1.57567e-09
-1.46775e-09
6.78776e-11
-2.01869e-08
-7.86477e-09
2.79838e-08
1.33314e-08
-8.10985e-09
-2.2823e-09
7.48768e-09
-1.12547e-08
-1.91151e-10
3.82178e-10
-1.64762e-09
-3.75172e-08
-2.26131e-08
7.83041e-09
-2.24224e-10
3.97283e-09
-6.59835e-09
1.04664e-08
6.08986e-09
-7.7242e-10
4.53429e-10
6.26873e-10
-3.07882e-10
5.99214e-09
-4.52902e-09
3.49508e-09
-4.9582e-09
-7.64158e-10
-7.75211e-10
3.49851e-10
9.20587e-10
-8.88365e-10
-2.94494e-10
-1.33009e-09
1.15759e-09
-1.70103e-08
2.31976e-09
1.45479e-09
1.32357e-08
3.53032e-10
-9.06993e-10
-2.18459e-10
-3.38221e-09
-1.46008e-08
9.72754e-10
5.64392e-09
1.14974e-08
-5.24251e-09
-1.18988e-08
1.62763e-08
5.85197e-10
-1.57605e-08
-1.10105e-09
-8.60197e-10
6.20417e-10
6.93209e-10
-1.21643e-09
6.70182e-10
5.46248e-10
-6.90307e-09
-3.9194e-09
4.52019e-09
-5.17076e-10
7.29166e-10
-2.12089e-10
1.33087e-09
-1.46932e-08
-5.47753e-10
8.37996e-09
-9.67983e-09
-1.263e-09
-1.51093e-09
1.23578e-08
4.39911e-09
-4.19114e-09
-1.25657e-08
3.93718e-10
6.85694e-09
-7.52362e-09
6.51459e-09
-2.09843e-09
-8.18195e-09
7.5647e-09
2.71568e-09
-1.78732e-09
5.914e-10
-1.34049e-08
-3.26941e-10
-1.90136e-10
-7.11961e-10
1.44312e-09
-7.43592e-09
8.49437e-10
1.70268e-08
-1.59995e-09
-1.57705e-08
1.6901e-08
-1.13045e-09
1.16541e-08
1.38245e-08
-1.54168e-08
-1.00617e-08
-1.01992e-09
1.66809e-09
-6.48161e-10
1.92899e-09
-2.55355e-09
6.24563e-10
3.55808e-09
-5.3621e-09
1.80402e-09
2.2404e-09
-1.89366e-09
-3.46747e-10
-1.28054e-08
1.36569e-10
1.26688e-08
3.02861e-09
-7.8821e-10
8.79678e-09
-1.48126e-08
6.29259e-09
-7.12949e-09
1.64337e-10
4.10463e-09
-4.8727e-10
-3.41299e-09
3.57733e-09
-8.33674e-09
9.76283e-09
-1.42609e-09
-1.0607e-09
4.01515e-09
1.20954e-09
1.67243e-08
-1.4499e-08
-1.46817e-09
-5.12356e-09
5.01752e-09
-1.86613e-09
-2.90759e-10
7.41755e-09
-7.32275e-09
-9.48061e-11
7.07721e-09
4.29164e-09
4.18061e-10
-1.5432e-08
1.01392e-08
1.69468e-08
5.66918e-09
8.26497e-09
8.17462e-09
-6.64597e-09
4.7046e-10
-1.32759e-08
1.67623e-09
-4.16149e-10
-1.22705e-08
4.00274e-09
-4.25414e-10
1.49211e-08
-1.43359e-08
-3.60642e-11
-1.24079e-09
-1.3366e-08
6.95052e-09
1.01542e-09
-7.28141e-11
-8.95897e-09
5.53467e-09
-3.22335e-08
-1.24759e-08
-2.16252e-09
1.27241e-09
1.34899e-08
1.10076e-08
-1.07129e-08
-1.37846e-08
1.72606e-08
-3.11252e-09
-1.41481e-08
1.86531e-09
3.76259e-09
-1.57348e-09
-1.03818e-09
-1.11901e-09
1.45662e-09
7.00569e-10
-3.41082e-10
4.80638e-10
4.87316e-10
6.41987e-08
-6.39251e-08
-2.73601e-10
6.44184e-08
-6.45761e-08
1.57702e-10
8.13147e-10
6.48587e-08
-6.5601e-08
7.42242e-10
6.40852e-08
7.73519e-10
-3.77485e-10
-6.63905e-08
7.89497e-10
-6.23192e-08
6.25451e-08
-2.25869e-10
1.48723e-09
-6.78777e-08
-6.2216e-08
-1.03202e-10
1.19437e-08
-1.31829e-09
1.97836e-09
-3.77733e-09
3.11726e-09
4.97111e-10
-1.36997e-09
1.25522e-09
-9.31134e-10
1.56891e-09
-1.86531e-09
1.22753e-09
1.63891e-09
-1.81157e-09
5.54834e-10
-1.26704e-10
-3.28059e-09
3.19596e-09
-2.49282e-09
2.57744e-09
-1.04416e-09
-2.96873e-09
2.69461e-09
-4.01701e-09
-5.43437e-09
7.00913e-10
-8.2591e-10
1.56981e-09
1.25432e-09
-6.62036e-09
7.98157e-09
2.93043e-09
2.16108e-08
-4.35023e-09
-8.75805e-10
3.071e-10
1.26962e-09
-9.94741e-09
-2.75698e-08
5.51444e-09
-4.55673e-09
-3.05594e-09
2.09822e-09
1.44001e-10
-3.9893e-12
6.31165e-10
-2.94344e-09
3.60506e-09
8.50137e-09
9.91773e-10
-7.24745e-10
2.29267e-09
-2.61209e-09
2.46036e-09
1.44059e-08
1.29085e-08
-2.63987e-08
3.20273e-08
5.95899e-09
-2.20856e-08
-1.02721e-08
1.77031e-08
-1.73399e-08
1.06444e-08
-3.64587e-10
1.1027e-10
-1.55725e-09
-2.03522e-09
-1.57804e-09
3.20961e-09
1.43892e-08
-4.5889e-10
-1.33389e-08
3.33297e-10
-3.05376e-09
-2.48267e-10
1.49338e-08
1.71752e-08
1.33633e-08
7.85358e-10
-1.52569e-09
-1.26229e-08
-2.04827e-09
5.94615e-09
1.20555e-08
-9.61945e-10
-1.363e-09
-3.49798e-09
2.73514e-09
3.9588e-09
2.38916e-09
1.38865e-08
4.17474e-09
-1.36621e-08
1.68724e-08
-1.51039e-09
2.97754e-09
-3.72713e-09
1.90555e-09
-4.4464e-09
1.2605e-08
-1.18769e-08
-1.35432e-08
5.3348e-10
8.5633e-09
-1.97465e-09
1.68293e-09
1.86153e-09
-8.95958e-09
5.15485e-10
-4.03176e-09
-5.89597e-09
1.19639e-08
-1.50276e-08
1.54555e-09
1.65045e-09
-2.09728e-09
1.60734e-08
-1.56266e-08
-9.57552e-10
1.38619e-08
2.42901e-09
-3.57436e-09
-1.36672e-08
7.23548e-09
-1.66406e-08
-7.93484e-09
6.33993e-09
5.81551e-09
1.40171e-08
-9.24483e-09
3.20476e-09
8.75575e-09
9.70529e-09
3.94546e-09
-4.05533e-09
2.11951e-08
-1.86046e-08
4.645e-09
-9.71344e-09
2.33392e-09
5.01416e-09
1.3313e-08
-7.86009e-11
1.22198e-08
-1.30988e-08
-1.55091e-09
2.77855e-09
-2.01778e-09
7.90137e-10
1.05693e-08
-6.27674e-09
7.20478e-09
-1.00802e-08
1.45578e-09
-4.75407e-09
1.09966e-08
-1.1485e-08
-7.37419e-09
8.7269e-09
9.21663e-09
1.23403e-08
1.02924e-09
-1.34481e-08
1.81442e-09
8.96516e-10
-1.07072e-08
-6.75361e-09
1.00866e-08
-1.89886e-09
2.52331e-09
-8.44684e-09
4.60895e-09
-5.09481e-09
1.10724e-08
-3.50259e-09
-1.12131e-08
3.64327e-09
-4.54947e-09
1.08678e-08
2.23695e-09
1.26039e-09
-4.84723e-09
-1.73758e-08
1.03641e-08
1.18589e-08
9.39324e-10
-1.053e-08
-9.70663e-09
1.53894e-08
1.18552e-08
2.68432e-09
-9.52537e-09
-1.31539e-08
-2.31621e-10
-1.2322e-08
3.50374e-10
-5.97117e-10
1.076e-08
1.24514e-08
-8.03723e-09
1.58995e-08
-1.51702e-08
3.44544e-09
-5.34413e-10
1.58286e-09
1.21873e-08
-3.86933e-09
-1.22206e-08
-5.14216e-09
2.59248e-10
4.46677e-09
1.17597e-08
-7.57052e-09
8.8062e-10
-1.01022e-09
2.04054e-09
-2.58123e-09
5.93656e-09
2.5903e-08
-1.08263e-09
-1.3954e-08
1.50366e-08
2.735e-08
-2.179e-08
2.16027e-08
1.92341e-08
-1.23641e-08
-2.40401e-09
1.47555e-08
1.15333e-10
-1.18148e-08
-3.91857e-10
-5.98735e-09
-2.0348e-09
2.49132e-09
1.78043e-09
3.39912e-10
-1.05087e-08
1.0382e-08
-2.13255e-10
1.75892e-09
-5.52105e-09
-1.03752e-08
1.00774e-08
-5.95461e-10
-1.00818e-08
-1.22866e-11
-1.02027e-08
-3.01384e-09
-1.1558e-08
2.3413e-09
7.70232e-09
5.07441e-09
4.10563e-10
-1.1299e-08
1.12283e-08
7.3383e-10
-8.28992e-09
5.28649e-09
-5.27347e-10
2.85627e-09
-3.60725e-09
-1.27576e-08
-1.34683e-08
1.27962e-08
-9.75462e-09
-1.55814e-08
9.90403e-09
9.01378e-09
8.02044e-10
2.46074e-09
-1.64147e-08
1.05693e-08
1.64649e-09
4.0709e-09
4.25845e-10
-6.75104e-10
-5.149e-10
-4.00793e-09
2.79302e-09
-1.83886e-09
4.84266e-10
-5.64854e-10
8.05874e-11
-2.38181e-09
1.23265e-08
1.91055e-09
2.528e-09
-1.40729e-09
-1.99229e-09
6.73328e-11
-2.68449e-09
-8.65052e-10
1.25141e-08
9.5988e-09
-5.9762e-10
7.18477e-09
-1.17126e-09
-5.41589e-09
-9.83871e-09
-4.85279e-09
3.81412e-10
1.02854e-10
4.24703e-09
1.45371e-09
-1.62308e-08
-7.28434e-10
-1.00872e-09
-1.86618e-09
6.90521e-10
2.45067e-09
6.33731e-08
-4.91987e-10
-6.28811e-08
6.23053e-08
3.03955e-10
-6.26093e-08
-1.40533e-08
1.95197e-10
1.43988e-08
-5.40754e-10
2.41027e-09
-2.16803e-09
2.90595e-09
1.78539e-09
-4.60853e-09
-6.91419e-10
-7.10404e-10
5.76829e-10
-1.74308e-10
7.0754e-10
-5.2651e-10
1.84308e-08
1.1385e-09
-1.53222e-08
-3.9201e-10
-1.97535e-09
1.19651e-08
2.19748e-09
1.75626e-09
4.7343e-09
-1.67718e-09
-7.96452e-08
-2.39288e-08
-4.84167e-09
1.54376e-08
2.37e-09
-1.03382e-09
-3.48952e-09
-1.49121e-09
8.52988e-10
-7.2478e-10
-1.3711e-08
-3.30247e-10
1.40412e-08
-1.04919e-08
-6.69082e-09
1.04291e-08
-9.09765e-09
8.91578e-09
-3.15604e-10
2.06033e-09
1.31875e-08
-1.2864e-08
-3.23492e-10
8.2534e-10
3.97294e-11
9.2537e-09
1.11603e-09
-1.33722e-09
-4.69592e-10
-1.40775e-08
-5.23432e-10
-1.31057e-08
1.17765e-08
-1.11548e-08
-6.60387e-08
6.49179e-08
1.12085e-09
6.29386e-10
-6.33376e-10
1.14308e-08
-5.94705e-10
2.98505e-11
-1.70856e-09
2.74575e-09
-3.4143e-09
-1.34519e-08
-1.5592e-09
2.48901e-09
-4.44185e-09
-1.36723e-08
1.88342e-09
5.61141e-09
9.27388e-09
-8.70045e-09
-6.20461e-10
2.57559e-11
-9.39139e-09
-1.21245e-08
8.93028e-11
-6.18977e-08
2.97124e-10
6.16005e-08
9.51838e-10
6.31334e-08
-5.51996e-10
-6.60626e-10
-1.4183e-08
-1.67371e-10
-6.34678e-08
6.36352e-08
3.74001e-10
-6.34171e-08
6.30431e-08
6.40088e-10
6.2713e-08
-3.98506e-10
-6.23144e-08
6.30313e-08
-3.1834e-10
-8.78668e-08
8.85571e-08
8.32001e-11
8.86782e-08
-8.88352e-08
-1.16518e-10
-8.67853e-08
-3.39273e-10
8.8282e-08
1.86933e-11
-8.52259e-08
-7.69901e-10
8.81804e-08
2.59245e-10
-6.06499e-10
1.83473e-09
8.71589e-08
-6.93781e-08
6.18907e-08
-6.15783e-08
-6.23656e-08
6.32595e-08
-2.28165e-10
-3.063e-09
2.69945e-09
-1.32986e-08
1.07674e-10
2.73737e-10
2.66453e-09
1.04685e-08
-1.25304e-08
3.84396e-08
-3.4639e-08
-1.60711e-08
1.42517e-08
-1.03524e-10
-2.11872e-10
3.79305e-10
1.03291e-09
-2.12075e-10
4.4782e-10
4.71114e-09
1.08878e-09
-3.89437e-09
-5.4973e-10
6.28203e-10
-4.47287e-10
-2.44158e-09
1.25795e-08
2.18851e-09
-1.43917e-08
-2.13589e-09
-3.91763e-09
5.69247e-09
1.11689e-09
-2.34273e-09
1.38708e-08
-1.16393e-09
-5.28645e-09
8.93827e-09
-7.71842e-09
-1.87174e-08
-1.27268e-08
7.69362e-09
5.56663e-09
-3.20528e-10
-5.19115e-10
3.33097e-09
1.42677e-08
1.53166e-09
-9.7583e-10
-5.08773e-10
5.40624e-10
-3.2261e-10
1.57741e-08
-4.47142e-10
-1.56572e-08
-6.21571e-09
-3.11976e-09
2.94674e-10
-2.81023e-10
4.65451e-09
-1.90122e-08
7.05573e-10
-1.77479e-09
-2.40816e-09
-2.06708e-09
1.51138e-08
-9.09823e-08
-2.22551e-11
9.13802e-08
4.23743e-10
-8.93987e-08
-7.67718e-10
8.9381e-08
-4.56773e-11
-8.98273e-08
-6.97213e-10
-1.86578e-09
1.59165e-08
9.1071e-08
-2.24107e-10
1.10233e-10
-6.21079e-12
1.17781e-08
1.95138e-09
-1.06506e-08
-1.17111e-08
-5.43682e-09
8.43419e-09
1.40662e-09
-6.91037e-09
-6.61807e-09
9.13414e-09
-3.19193e-10
1.01295e-08
1.88418e-08
-1.75073e-08
2.99982e-09
-1.227e-08
3.04918e-09
-6.99935e-08
3.95481e-09
-2.01983e-08
-1.2348e-08
-6.49996e-10
-5.71225e-09
-1.53259e-08
9.22342e-09
-1.50422e-08
6.31898e-10
5.38177e-10
-1.43216e-09
-1.59209e-08
1.64703e-08
1.05317e-08
-1.04075e-08
-5.55904e-09
1.4568e-08
-1.49548e-09
7.98236e-10
-1.62115e-09
7.09125e-10
1.18176e-08
3.53039e-09
7.10829e-08
-1.77775e-08
9.66807e-10
-1.44056e-08
-3.39552e-10
-3.81311e-10
-2.85421e-10
6.32459e-08
-6.32916e-08
-6.33576e-08
-6.36412e-08
3.35995e-10
3.20985e-11
-9.01954e-08
-6.34011e-08
6.52358e-08
6.49901e-08
-6.31419e-08
6.43836e-08
-6.31232e-08
6.36137e-08
-6.32397e-08
6.32744e-08
9.06495e-08
4.28955e-10
-6.55588e-09
7.49235e-08
-6.48372e-08
1.59676e-10
-1.59676e-10
2.52097e-09
-3.91275e-10
1.54453e-08
-1.87211e-10
1.87211e-10
5.53707e-10
1.17613e-09
1.42527e-08
1.26056e-08
-2.42325e-09
3.46014e-09
6.5023e-09
1.89111e-09
5.0088e-10
-3.59795e-10
-2.86162e-09
1.42657e-08
1.47872e-08
-4.38269e-09
1.13365e-08
3.02174e-10
2.34455e-10
3.04671e-09
-1.08675e-09
-1.84498e-09
-5.76629e-09
-1.75753e-10
-5.30529e-10
1.51364e-08
4.18112e-10
2.06507e-10
1.74535e-08
-2.48713e-08
1.69909e-08
2.52797e-09
1.54282e-09
2.01966e-09
-3.46065e-09
1.88393e-08
-1.73984e-08
-1.67266e-10
1.09421e-09
-1.4793e-09
-7.91038e-08
-7.08574e-08
1.49138e-09
-1.30265e-09
7.55565e-10
2.25727e-08
1.78718e-08
-6.39226e-09
2.38413e-10
-4.53741e-09
-1.72229e-09
3.00829e-08
2.25556e-10
1.44094e-08
6.94967e-08
1.31983e-10
5.94362e-10
-2.48968e-10
-3.22479e-10
-3.9359e-09
2.31869e-08
-1.46676e-08
1.28294e-09
-1.32373e-08
-1.1406e-10
2.02403e-08
-2.78214e-08
9.08598e-10
2.72256e-09
-8.00778e-10
)
;

boundaryField
{
    back
    {
        type            empty;
        value           nonuniform 0();
    }
    ingreso
    {
        type            calculated;
        value           nonuniform List<scalar> 
14
(
-1.54286e-08
-1.54288e-08
-1.54288e-08
-1.54288e-08
-1.54286e-08
-1.54283e-08
-1.54288e-08
-1.54288e-08
-1.54286e-08
-1.54286e-08
-1.54288e-08
-1.5428e-08
-1.5428e-08
-1.54286e-08
)
;
    }
    salida
    {
        type            calculated;
        value           nonuniform List<scalar> 2(1.03574e-07 1.12426e-07);
    }
    front
    {
        type            empty;
        value           nonuniform 0();
    }
    defaultFaces
    {
        type            calculated;
        value           uniform 0;
    }
}


// ************************************************************************* //
