/*--------------------------------*- C++ -*----------------------------------*\
  =========                 |
  \\      /  F ield         | OpenFOAM: The Open Source CFD Toolbox
   \\    /   O peration     | Website:  https://openfoam.org
    \\  /    A nd           | Version:  7
     \\/     M anipulation  |
\*---------------------------------------------------------------------------*/
FoamFile
{
    version     2.0;
    format      ascii;
    class       volVectorField;
    location    "15";
    object      U;
}
// * * * * * * * * * * * * * * * * * * * * * * * * * * * * * * * * * * * * * //

dimensions      [0 1 -1 0 0 0 0];

internalField   nonuniform List<vector> 
591
(
(0.000809049 -5.09932e-05 1.22572e-18)
(0.000757952 -4.20651e-05 -6.62107e-19)
(0.000836911 -6.42746e-05 5.74824e-20)
(0.000824634 1.38667e-05 -1.48261e-19)
(0.000813968 2.0736e-05 2.23055e-19)
(0.00071481 -2.09988e-05 -1.38913e-19)
(0.000518136 -0.00039272 7.96579e-19)
(0.000800372 -1.0805e-05 2.08764e-18)
(0.00576174 0.00249023 9.89013e-19)
(0.000776664 -2.58644e-05 2.38159e-18)
(6.6723e-05 0.000180261 1.22067e-18)
(0.000885761 0.00124961 9.43606e-21)
(0.000778257 1.44018e-05 1.29286e-18)
(0.00154308 0.00233214 -7.88501e-19)
(0.000795878 4.75698e-05 -4.39879e-19)
(0.00015999 -0.000259814 2.77338e-22)
(0.000128808 0.000658256 7.07299e-19)
(0.00084461 1.90478e-05 -4.94174e-19)
(0.00201501 0.000396885 4.74037e-19)
(0.00133011 0.000311756 -2.48158e-19)
(0.00081787 2.66976e-05 3.70179e-19)
(0.00353754 0.00713594 -2.46951e-20)
(4.09018e-05 7.86917e-05 2.71572e-19)
(0.000812117 1.02345e-05 -4.45292e-19)
(2.02881e-05 -2.5593e-05 3.60094e-19)
(0.000771888 2.10618e-05 0)
(8.88896e-05 0.000478097 1.6046e-19)
(0.000507014 3.46998e-05 -1.79485e-19)
(0.000733646 6.59193e-05 1.14079e-18)
(0.000819118 -2.59879e-05 5.91125e-19)
(7.01703e-05 5.46295e-07 -6.0329e-25)
(5.06811e-05 -5.63179e-05 3.53411e-19)
(4.89324e-05 -4.84695e-06 -4.65523e-20)
(5.819e-05 -8.32491e-06 0)
(6.46252e-05 -1.61192e-05 1.13322e-18)
(0.00115729 0.00013959 1.80728e-19)
(4.27556e-05 -8.07708e-06 4.48715e-20)
(0.000810847 1.31066e-05 4.85759e-23)
(3.8514e-05 5.4448e-05 2.66823e-19)
(7.76937e-05 -0.000157162 -8.57096e-19)
(0.000519124 -0.000161381 9.59373e-19)
(3.57909e-05 -1.06131e-05 4.56417e-20)
(0.00079446 -9.44311e-06 -1.54738e-18)
(0.000815553 2.03149e-06 -6.76134e-19)
(2.63164e-05 -1.27334e-05 0)
(6.56374e-05 1.23478e-05 8.54833e-20)
(0.001338 0.00453147 8.9493e-19)
(8.82794e-05 2.52828e-05 8.66614e-20)
(0.000785038 5.40414e-05 0)
(0.000359421 -0.000120405 6.80441e-19)
(0.000365858 0.000281681 5.13632e-21)
(0.000381501 8.36752e-05 -1.00734e-18)
(0.00647618 0.0109181 -7.65879e-19)
(0.00626803 0.0108416 1.63332e-20)
(0.00561648 0.0103743 1.46568e-18)
(0.000804103 -5.1855e-05 0)
(7.67267e-05 4.01622e-05 0)
(0.000333676 3.40933e-05 9.62566e-24)
(7.45956e-05 1.70109e-05 -3.4766e-19)
(0.00086626 -9.50012e-06 0)
(0.000598272 2.64424e-05 3.18722e-19)
(0.00078731 1.57031e-05 2.17082e-18)
(0.000755601 -5.42929e-06 -5.42591e-19)
(0.00072822 1.59775e-05 -3.13693e-19)
(0.00170787 0.00054201 5.46098e-19)
(0.000789508 -5.98829e-06 -1.13483e-18)
(0.000794507 5.92388e-06 -5.14376e-19)
(9.76307e-05 6.05924e-06 -1.7397e-19)
(0.000727651 0.00230348 0)
(0.000809213 5.14192e-06 0)
(0.000722739 1.85647e-05 -1.368e-18)
(4.5931e-05 2.1049e-05 0)
(0.000278107 0.000277607 3.27936e-19)
(5.42465e-05 -2.22092e-05 0)
(5.30739e-05 -7.672e-06 1.60026e-19)
(3.82968e-05 -6.03767e-05 -3.37784e-20)
(0.000752632 4.95912e-05 2.4302e-19)
(5.29741e-05 1.51649e-05 0)
(0.000772643 6.76663e-05 4.41059e-19)
(0.000738526 0.000302364 2.11475e-19)
(0.000955598 6.08677e-05 -3.99478e-20)
(5.11408e-05 2.96123e-05 -4.53431e-20)
(7.05044e-06 -4.93393e-05 0)
(0.000414563 0.000226601 1.70762e-19)
(1.43139e-06 3.87605e-05 0)
(0.000732156 -1.23348e-05 -6.00262e-19)
(0.000540138 -0.000103343 0)
(7.78733e-05 3.76504e-06 -1.75081e-19)
(5.10527e-06 -6.5255e-05 0)
(0.00079914 0.000242629 -3.42502e-19)
(5.00918e-06 -3.09405e-05 0)
(0.000409742 0.000323242 -1.19064e-23)
(0.000501137 0.0001185 0)
(0.000790576 3.87153e-05 4.54971e-24)
(2.90067e-06 2.64811e-05 -4.23172e-20)
(0.000425699 1.6931e-05 1.76987e-18)
(0.00100931 7.70155e-05 4.17719e-20)
(0.00101103 2.82092e-05 6.43106e-22)
(0.000718158 0.000643924 2.69259e-19)
(2.75865e-06 7.23757e-05 0)
(8.7603e-06 -0.000129937 -3.13314e-19)
(2.19762e-05 -0.000223234 -1.10449e-18)
(-4.90445e-07 0.00011134 -5.97691e-19)
(0.000750453 -3.49632e-06 0)
(1.70523e-06 0.000140097 0)
(0.000781525 -5.41168e-06 2.17215e-18)
(0.000738606 3.97146e-05 1.4979e-18)
(0.000392895 -2.67955e-05 0)
(5.903e-05 0.000236124 -8.96754e-19)
(-9.60666e-07 0.000221267 4.97306e-19)
(9.31421e-05 0.00049289 6.27262e-19)
(0.000285536 0.000127871 -9.36932e-19)
(0.000819179 1.38875e-06 1.35143e-19)
(0.000269371 3.08097e-06 5.32909e-19)
(1.73237e-06 5.17791e-05 0)
(5.34548e-05 0.000326584 -1.09189e-18)
(0.000309849 0.000329908 -1.62241e-19)
(8.83935e-06 -9.55283e-05 1.47061e-19)
(0.000635614 0.00076826 0)
(0.000352743 0.000390171 5.76328e-20)
(0.000801274 -9.36369e-07 1.03521e-18)
(0.000722689 -4.61962e-05 -2.69676e-18)
(8.00646e-06 -0.000172766 0)
(0.000775459 -1.16565e-05 -1.11683e-19)
(0.000315795 -4.46892e-05 1.24771e-18)
(0.00272327 0.000816728 -3.35957e-19)
(-5.93589e-06 0.000172344 -6.1452e-19)
(-2.0118e-05 0.000215444 1.62312e-18)
(0.000880989 1.85146e-05 -3.90069e-20)
(7.60742e-05 -4.31827e-06 -7.51918e-19)
(0.000772501 4.10717e-05 -3.90085e-19)
(0.000934317 2.8382e-05 -4.11393e-20)
(7.44389e-05 0.000395868 -5.984e-19)
(0.000462032 8.59188e-05 -4.95641e-19)
(6.08885e-05 -1.59971e-06 1.56695e-19)
(0.000822632 -2.19519e-05 -1.06128e-18)
(0.00166991 0.00021827 -1.13976e-18)
(-1.15823e-06 8.58617e-05 4.97596e-19)
(0.000782631 -2.14401e-06 -5.05211e-19)
(0.00087062 0.000536714 -7.87803e-20)
(0.000136155 0.000884089 0)
(0.000545185 6.97203e-05 0)
(0.000264588 6.54722e-05 -1.61171e-18)
(7.04441e-05 6.80185e-05 -1.37884e-18)
(3.71759e-05 2.58745e-05 0)
(0.00414894 0.00775318 -1.01126e-20)
(0.00417269 0.00775644 4.4367e-20)
(0.00438397 0.00793614 -2.08028e-20)
(0.00418698 0.0076852 0)
(0.0041238 0.00757856 5.81502e-19)
(0.00417156 0.00777142 -1.001e-19)
(0.00420208 0.00802837 4.89563e-19)
(0.00408777 0.00759194 0)
(0.00415967 0.00852879 6.22488e-19)
(0.00412137 0.00757426 2.29713e-19)
(0.00079964 -8.07304e-06 -1.34473e-18)
(0.00073393 6.40322e-05 0)
(0.000220001 7.73019e-05 1.28136e-19)
(5.9389e-05 2.18765e-05 8.74871e-20)
(8.67956e-05 5.47177e-05 6.82371e-19)
(0.000116411 5.25598e-05 -3.42846e-19)
(0.000111843 1.72391e-05 0)
(5.81825e-05 8.72798e-06 8.21128e-20)
(0.000203858 0.000149414 0)
(0.000174755 6.36588e-05 -5.26093e-20)
(0.000331415 0.000233022 -5.1096e-21)
(6.30503e-05 5.1814e-05 -4.39171e-19)
(0.000100993 3.8049e-05 -8.55423e-20)
(9.86027e-05 7.26888e-05 1.31646e-21)
(0.000245101 0.00037154 -6.68387e-19)
(0.000160744 0.00110125 0)
(4.88002e-05 6.02359e-05 3.44248e-19)
(0.000174449 0.00185151 0)
(0.000205345 0.000261857 7.07022e-19)
(4.68609e-05 -7.23771e-06 1.11696e-19)
(0.00045925 0.000172159 -1.72886e-19)
(0.00075964 2.77813e-05 -1.85772e-18)
(5.23151e-05 7.47006e-07 4.24513e-24)
(0.000158917 4.24659e-05 2.25284e-19)
(0.000237368 0.000114202 -9.02431e-20)
(0.000861026 0.000693505 3.36047e-19)
(0.000735185 0.00163637 -9.26096e-21)
(0.000421719 0.00134737 -9.47132e-21)
(0.00100091 0.000558666 0)
(0.000116765 -9.86085e-06 1.12265e-18)
(0.000130151 3.06234e-05 -4.44707e-20)
(0.000408618 -0.000219308 -1.14071e-18)
(0.000796535 3.99938e-05 0)
(0.000184618 3.91757e-05 3.63861e-19)
(0.000248423 0.00139052 0)
(0.00102088 0.00073176 -7.32621e-20)
(0.000808046 4.75796e-05 -1.83443e-19)
(9.54817e-05 -1.76436e-05 -3.00978e-19)
(0.000797032 0.000301343 -2.08782e-20)
(8.30064e-05 -2.33002e-05 -6.00432e-19)
(0.000226172 0.000186151 8.66793e-20)
(0.000224337 0.000313087 -3.46168e-19)
(0.000859364 0.000234928 0)
(0.000776917 3.59173e-05 0)
(0.000258519 0.000155488 1.77448e-19)
(0.000235455 2.52652e-05 1.94206e-24)
(0.000184993 0.000215811 0)
(0.000281924 0.00063664 -5.57027e-21)
(0.000325312 2.34433e-05 0)
(0.000326082 0.000587195 0)
(0.000117398 9.53767e-05 -1.35134e-21)
(0.000801498 -1.76258e-05 -9.44561e-19)
(0.000826583 -2.50105e-05 7.74431e-19)
(0.000136641 7.29593e-05 -1.50371e-19)
(0.000930426 0.000150022 8.51939e-20)
(0.000816458 4.98283e-05 3.28312e-19)
(0.000784212 2.06703e-05 -2.94469e-19)
(0.000977205 0.000403147 0)
(0.000420844 0.000128937 6.26613e-19)
(0.000869168 0.000315366 2.09877e-20)
(0.000544531 0.000168499 0)
(0.000275444 0.00043556 4.10991e-19)
(0.000255486 0.000229592 -8.47023e-20)
(0.00108445 0.000384458 -7.84885e-19)
(0.000584682 0.000120406 -1.79929e-19)
(0.000780596 0.000100048 -7.38573e-21)
(0.000810466 2.81658e-05 9.36108e-20)
(0.000115714 -9.48016e-05 -1.98817e-18)
(0.000716735 0.000374472 2.1999e-19)
(0.000628106 7.35076e-05 2.31295e-20)
(0.000680049 0.000271455 1.47091e-23)
(0.000701399 0.000441046 -4.10829e-19)
(0.000825207 3.64568e-05 8.89789e-20)
(7.85152e-05 9.2517e-05 0)
(0.000629295 0.000422278 -4.67309e-20)
(0.000185085 0.000114397 0)
(0.000362597 0.00051029 -2.6563e-19)
(0.000308975 0.000182918 0)
(0.000649867 0.000207066 3.56498e-19)
(0.000622338 0.00027291 -4.38794e-20)
(8.33323e-05 0.000110787 6.20906e-19)
(0.000872269 0.000120193 -1.59771e-18)
(6.71615e-05 2.9061e-05 2.58083e-19)
(0.000880661 6.51425e-05 -1.6541e-18)
(0.000777727 3.8576e-05 1.59933e-19)
(0.000782507 -6.37531e-07 1.92991e-18)
(0.000785357 -2.61892e-06 -1.31265e-19)
(0.000682587 7.42592e-05 0)
(0.000845508 2.76375e-05 8.81685e-19)
(0.000917898 0.000242137 -4.28635e-19)
(0.000740064 7.38666e-05 -4.79419e-19)
(0.0007531 0.000231561 -8.84199e-20)
(0.000248737 -9.49586e-05 -2.08635e-18)
(0.000708549 9.53647e-05 8.90555e-19)
(0.000612346 0.000585853 0)
(0.000136797 -9.13686e-05 0)
(0.00116804 0.000462701 4.97952e-19)
(0.000820971 -0.000162898 -3.24168e-18)
(0.00126253 0.000413766 5.75225e-19)
(0.00126417 0.000716634 -6.40097e-20)
(0.000783498 5.88329e-05 -2.11406e-19)
(0.000803486 8.3928e-05 -1.40624e-18)
(0.000784796 5.61026e-05 1.57644e-18)
(0.000776678 -1.39567e-05 9.60254e-20)
(0.000655417 0.000341685 -4.41944e-20)
(0.000110421 0.00014718 2.13321e-23)
(0.000697087 -6.86148e-05 2.66057e-19)
(0.000260726 -0.000173814 -7.39025e-19)
(0.000595652 0.000193674 0)
(0.000665699 2.08078e-05 9.9371e-20)
(0.000646525 7.34272e-06 -3.82188e-19)
(0.000373709 0.000183804 3.9409e-20)
(0.000762853 0.000496465 -1.66048e-19)
(0.00015749 9.27351e-05 2.10596e-25)
(0.000791311 0.000385813 0)
(0.000947425 0.000321213 4.17254e-20)
(0.000714156 -0.000110731 -6.1851e-19)
(0.000334208 0.000114498 4.98486e-19)
(0.000876256 0.000415755 0)
(5.75639e-05 3.85842e-05 1.34174e-19)
(0.000461849 0.000273523 2.14675e-19)
(0.000434699 -7.74874e-05 -7.11676e-19)
(0.000193342 -0.000126534 -1.06268e-18)
(0.00077459 -1.26049e-05 -4.74483e-19)
(0.000799205 -0.000111038 -1.93117e-19)
(0.000557434 0.000726092 -1.17027e-18)
(0.000821726 5.86757e-05 -6.65128e-20)
(0.000778995 -7.18858e-05 1.26181e-18)
(0.000654289 9.91456e-05 2.28604e-20)
(0.0005046 0.000221364 -1.66245e-19)
(4.5095e-05 -2.6555e-05 -8.78854e-20)
(0.000206896 -2.06389e-05 2.40809e-18)
(3.52119e-05 9.41089e-07 -1.95463e-19)
(0.000765087 7.40973e-05 3.5862e-19)
(0.000625642 0.000143379 0)
(0.000208747 -4.35955e-05 -1.05132e-18)
(0.00013359 8.99828e-06 3.13468e-19)
(0.000141314 -3.17799e-05 -6.70907e-24)
(0.00077668 0.000118392 -3.19558e-19)
(0.00016087 -3.29473e-06 0)
(0.000561787 0.000244918 0)
(0.000111555 0.000341218 -3.64063e-19)
(0.00083165 0.000126756 2.06919e-18)
(2.87139e-05 1.79468e-06 0)
(0.000817638 8.08624e-06 0)
(5.69463e-05 -2.69636e-05 0)
(0.000821202 2.19421e-05 -4.39153e-21)
(0.000815679 -6.70991e-05 0)
(0.00410138 0.00767594 8.2996e-20)
(0.00424131 0.00753906 1.4721e-19)
(0.000834891 1.02025e-05 0)
(0.000740501 -6.34151e-05 8.1579e-19)
(0.00015457 0.000139774 1.49716e-19)
(0.000868297 7.19444e-05 7.90836e-19)
(0.000136008 0.000116902 2.35201e-20)
(0.000737751 -6.30872e-05 6.29161e-19)
(4.24952e-05 1.33762e-05 0)
(3.97136e-05 -1.8573e-05 -4.5004e-20)
(0.000858094 6.74536e-05 -4.79696e-19)
(5.04985e-05 -3.71767e-05 -6.71919e-19)
(0.000731085 0.000128117 -4.24596e-20)
(0.000167646 0.000175501 -1.88737e-19)
(0.000797783 1.02574e-05 0)
(0.00465319 0.00833932 1.34568e-21)
(0.000162018 0.000774567 3.34822e-19)
(0.000140143 -4.53592e-05 -9.16536e-19)
(7.85899e-05 -3.56372e-05 -1.1726e-18)
(0.000812727 2.09594e-05 1.90071e-20)
(0.000558326 0.000416756 0)
(0.000390048 0.000427728 -2.56845e-19)
(0.000120234 -4.71501e-05 1.18762e-18)
(0.000771163 4.94322e-06 7.73188e-20)
(5.09663e-05 2.30255e-06 4.0843e-19)
(0.000628025 -5.59516e-05 1.17592e-18)
(0.000789315 1.44707e-05 -6.02108e-19)
(9.65418e-05 -5.39648e-05 1.71479e-18)
(0.000826111 7.54422e-06 -3.80945e-25)
(0.000787743 1.44804e-05 -3.77963e-20)
(0.000839047 6.73593e-05 0)
(0.00077726 4.3683e-05 0)
(0.00592741 0.00722228 2.60823e-19)
(3.67439e-05 3.68276e-06 -1.19952e-19)
(0.000192765 -6.92496e-05 7.743e-19)
(0.000702082 0.000117977 -6.99023e-19)
(4.15436e-05 -1.08552e-06 2.02098e-19)
(0.000558354 -1.64992e-05 -7.26429e-19)
(0.000696593 -5.33373e-07 1.54522e-18)
(0.0006767 0.000153815 -3.56704e-19)
(0.000793118 -4.28385e-05 3.56512e-19)
(0.000103611 -2.72603e-05 1.11988e-18)
(0.00072607 1.20327e-05 -3.20422e-19)
(0.000840333 6.2076e-05 0)
(0.000520561 0.000303532 4.22469e-20)
(0.000849972 2.98538e-05 -9.22508e-19)
(3.59913e-05 -2.98422e-06 9.13796e-19)
(0.00079973 1.68651e-05 9.43381e-19)
(0.000807519 -4.28458e-05 -9.66635e-19)
(0.000683742 2.18898e-05 -5.69435e-19)
(0.000476193 -4.11903e-05 -5.2755e-19)
(0.00415767 0.00753041 2.55588e-19)
(0.00411281 0.00744238 -2.46927e-19)
(0.00410099 0.00757797 2.65771e-19)
(0.00412449 0.00772073 2.77356e-19)
(0.000836939 2.14543e-06 1.43306e-19)
(0.004465 0.00759909 0)
(0.00439805 0.00759461 -4.19238e-19)
(5.39498e-05 -5.08011e-07 -9.99683e-19)
(0.00416549 0.00755762 -6.4168e-20)
(0.00415322 0.00759659 -2.81433e-19)
(0.00602666 0.01059 0)
(0.00642777 0.0105754 4.68629e-20)
(0.00600827 0.0105409 0)
(0.00642489 0.0105484 1.81293e-19)
(0.00599632 0.0105441 2.72629e-19)
(0.00641629 0.010533 2.18886e-20)
(0.00592397 0.0105929 -7.84378e-19)
(0.00644681 0.0104569 1.91909e-20)
(0.00390393 0.00920006 -1.91549e-19)
(0.00412821 0.00742756 3.65671e-21)
(0.00411261 0.007506 8.47712e-20)
(0.00415423 0.00764912 5.28781e-20)
(0.000845639 0.000175931 4.46018e-20)
(2.11386e-05 2.61193e-06 0)
(0.000636489 -0.000154059 0)
(0.000772548 2.96607e-05 0)
(0.0024455 0.00105336 4.34137e-21)
(0.000686973 -1.59863e-05 1.71712e-19)
(4.94017e-05 8.81161e-06 4.55606e-20)
(2.43388e-05 -3.34498e-05 1.65803e-18)
(0.000836185 3.00183e-05 0)
(3.4291e-05 1.70023e-05 -1.92392e-19)
(0.000147142 0.000233335 0)
(3.80259e-05 -1.29372e-06 0)
(3.15895e-05 -2.12311e-06 0)
(0.000794637 0.000134456 1.13653e-20)
(0.000831244 1.43417e-05 1.76422e-19)
(3.53486e-05 0.000335615 5.05477e-23)
(0.000162266 0.000278853 -1.84811e-18)
(0.000587304 0.000342885 -8.59926e-20)
(0.000876991 0.000122164 6.03343e-19)
(0.000726368 -0.000486916 6.65287e-19)
(0.000313951 0.00110194 0)
(0.000460813 0.000538664 2.71926e-18)
(0.000101074 0.000152849 -1.80351e-18)
(4.42745e-05 5.36895e-07 0)
(0.000845996 -1.14195e-05 3.58552e-20)
(2.21586e-05 4.59928e-05 1.65022e-18)
(0.000888699 2.61899e-05 2.72021e-19)
(9.63975e-05 -0.000278186 3.78883e-18)
(0.000916851 4.38218e-05 -2.70085e-19)
(0.00146328 9.68489e-05 7.49429e-19)
(4.80748e-05 -1.33382e-05 8.28596e-20)
(4.62321e-05 9.78749e-06 -8.6127e-19)
(4.57896e-05 0.000163959 0)
(0.000874467 0.00010239 5.99854e-19)
(0.00047775 0.000372754 2.37932e-19)
(0.000838627 1.66195e-05 -3.88808e-20)
(0.000732561 -1.90801e-05 2.55814e-19)
(0.00067548 -0.000236766 0)
(0.00643684 0.0109234 -1.65605e-19)
(0.00651346 0.0109072 3.96469e-19)
(0.00617674 0.0107465 -6.13526e-19)
(0.00645914 0.0106531 -8.78353e-20)
(4.42916e-05 0.000121661 8.02208e-19)
(0.000877666 5.42645e-05 1.56665e-22)
(0.00652361 0.0108788 -3.79132e-19)
(0.00636834 0.0109021 5.41734e-19)
(0.00609588 0.0106686 -4.47515e-19)
(0.00645081 0.0106093 -7.6266e-20)
(0.00010207 0.000594871 -2.02664e-20)
(0.000189307 -0.00017066 -7.97114e-19)
(0.000823168 -2.59381e-06 -7.60209e-19)
(0.000702245 0.000217241 0)
(0.000736209 -6.91486e-06 0)
(0.000185079 0.000392543 3.3742e-19)
(0.000603589 0.000574277 -5.43363e-19)
(2.36498e-05 -3.19846e-06 1.79023e-19)
(0.000211622 0.000463068 -7.40854e-19)
(0.000997142 0.000964008 -1.13076e-19)
(0.00071869 0.000173894 0)
(0.000764594 0.00016448 1.31196e-19)
(0.00636562 0.00586955 1.13373e-18)
(0.000683672 0.00113012 8.30702e-20)
(4.62079e-05 4.56726e-05 -7.47293e-20)
(0.000820694 4.89529e-05 0)
(0.00086602 1.49289e-05 -3.57936e-20)
(4.54111e-05 6.93237e-06 -1.97275e-19)
(3.92139e-05 8.39328e-06 1.93581e-19)
(0.000809705 1.6651e-05 5.36435e-19)
(0.000951564 0.000108364 6.60967e-19)
(0.000738418 6.36674e-05 0)
(0.000241073 -0.000266177 -4.00683e-19)
(0.000875745 0.000136654 3.88784e-19)
(4.33869e-05 -8.80453e-05 2.0376e-19)
(0.00147455 0.000377086 -2.57712e-18)
(0.000757033 1.34398e-06 0)
(0.000771065 0.000131872 3.76112e-19)
(9.03656e-05 0.000408975 0)
(0.00118032 0.0081877 4.62942e-19)
(0.000459785 0.000512153 -1.22671e-18)
(0.000529338 0.00095981 -1.84359e-19)
(0.00085698 2.64077e-05 -1.45319e-19)
(2.07537e-05 3.23404e-05 0)
(0.000903548 7.30574e-05 6.10022e-19)
(0.00410725 0.00769206 1.11887e-19)
(0.00413883 0.00748059 5.96552e-20)
(0.00447491 0.00752453 4.46103e-19)
(0.004452 0.00764363 -3.30531e-19)
(0.00648057 0.0107172 8.79329e-20)
(0.00391657 0.00757993 1.13563e-20)
(0.00549785 0.00778075 -5.68532e-19)
(0.00412501 0.00777071 5.15422e-21)
(0.00518956 0.00782066 5.16598e-19)
(0.00410458 0.00772173 -5.41525e-20)
(0.00491796 0.00768667 0)
(0.00409991 0.00771542 -7.09337e-20)
(0.00467594 0.00754292 4.97903e-19)
(0.00410107 0.00771097 8.11444e-20)
(0.00451907 0.00750007 0)
(0.00409622 0.00764857 1.73852e-19)
(0.00410234 0.007575 5.74048e-19)
(0.00447412 0.00764167 -5.62851e-19)
(0.00433177 0.00754918 4.07915e-19)
(0.0041188 0.00742728 2.18661e-19)
(0.00651357 0.0108322 -4.15062e-21)
(0.00413264 0.00767343 4.20365e-20)
(0.00649474 0.0107667 0)
(3.20398e-05 1.00938e-05 -1.90522e-19)
(0.00197244 0.00650793 2.29133e-19)
(0.000840139 -6.75472e-07 1.09257e-19)
(0.000849171 2.01212e-05 0)
(4.41371e-06 4.7104e-06 -4.00507e-19)
(0.000104876 -0.000206853 6.9334e-19)
(2.3423e-05 6.82722e-05 2.09212e-18)
(0.000801074 0.000191274 -9.04105e-20)
(0.00072039 7.59575e-06 7.00664e-19)
(5.04383e-06 -5.47967e-06 3.11083e-19)
(2.88669e-05 -4.80892e-05 -1.85157e-18)
(0.000704952 1.46533e-05 1.62044e-19)
(0.000825754 0.000120085 -3.03756e-20)
(0.000716352 -4.35653e-06 1.4716e-19)
(0.000418783 0.000647748 0)
(0.000139793 -0.000151409 1.15567e-18)
(0.000833044 2.12632e-05 1.51261e-19)
(2.50795e-05 3.02256e-05 0)
(0.000101131 0.000561266 -6.33127e-19)
(0.00061053 0.000580592 1.30758e-18)
(0.000339625 0.000724455 0)
(0.000711477 -9.22414e-06 0)
(0.000723879 6.71245e-05 1.16318e-18)
(2.69368e-05 5.33861e-05 -3.52479e-18)
(2.32637e-05 1.16932e-05 3.74926e-19)
(0.000111501 0.000157703 0)
(6.77636e-05 -4.59407e-05 0)
(7.54835e-05 0.000124921 2.01469e-19)
(0.000894563 0.000176496 3.50469e-19)
(0.000783608 -4.12002e-05 -1.37544e-18)
(2.8534e-05 4.15489e-05 0)
(0.000618312 9.30891e-05 -6.02296e-20)
(0.000731815 1.98485e-05 -1.5531e-19)
(0.000843882 5.70543e-06 1.03683e-18)
(0.000250396 0.000545835 6.3416e-19)
(0.000820518 0.00013583 0)
(3.5983e-05 -3.4782e-05 5.40533e-19)
(4.80381e-06 -1.74962e-05 -3.21045e-19)
(0.00115244 -5.24839e-06 0)
(0.000928666 0.00215113 0)
(0.00105854 -0.000110851 0)
(0.000969289 0.000191166 4.2876e-19)
(0.000842943 -1.00024e-05 -2.79732e-19)
(0.000885658 0.000126166 -6.85447e-19)
(0.000728043 1.76634e-05 0)
(4.55817e-05 8.02346e-05 -1.72169e-19)
(0.000172606 0.000331379 1.08478e-18)
(0.000773036 4.08189e-05 3.12632e-23)
(0.00106331 0.000177943 -6.71474e-19)
(0.00106929 0.000118293 0)
(3.93124e-06 1.50255e-05 2.51908e-19)
(2.84107e-05 -2.29204e-05 -1.94987e-19)
(0.000718275 3.83136e-05 6.90122e-21)
(5.77066e-05 -0.000118676 0)
(0.00101752 0.000257554 9.53863e-19)
(0.00502414 0.00973418 -2.8468e-19)
(0.00311141 0.00963334 1.27934e-18)
(9.83095e-05 -0.000123927 -1.92025e-19)
(9.29385e-05 -8.59425e-05 1.86616e-18)
(0.00118274 0.000222364 1.67759e-19)
(0.00127373 0.00104538 2.34834e-19)
(0.000824329 1.55123e-05 -7.29161e-19)
(0.000217137 0.000924056 -2.3967e-19)
(0.000770977 0.00087111 -2.19302e-19)
(0.000737767 -2.36127e-05 0)
(0.000110872 0.000725352 0)
(9.96916e-05 0.000287744 -5.18686e-23)
(0.000797826 -1.49265e-05 -2.73252e-23)
(0.000816433 -5.20953e-06 1.51624e-19)
(0.00261005 0.00200507 -1.23345e-18)
(0.00175573 0.00925915 -1.1763e-19)
(0.000788858 3.42005e-05 4.85966e-19)
(0.00635187 0.00403522 -1.76532e-19)
(0.00654975 0.010773 -2.28174e-20)
(0.0046435 0.00812681 9.06745e-21)
(0.000786755 7.54464e-05 -2.15311e-18)
(0.000812067 4.09426e-05 -1.2631e-23)
(1.77251e-05 -1.38195e-05 -3.49181e-19)
(5.0486e-05 0.000102531 -3.50498e-19)
(8.82725e-05 0.00028554 8.79021e-19)
(1.76174e-05 2.21761e-05 4.92117e-19)
(9.29215e-05 0.000243101 3.71022e-19)
(0.000814036 4.86117e-05 0)
(0.00529469 0.00926119 8.89078e-21)
(0.00144149 0.000624083 -2.62624e-20)
(0.000822524 1.91435e-05 3.56842e-19)
(7.37309e-05 -9.91642e-05 0)
(0.00189396 0.000688401 5.47247e-19)
(1.54458e-05 1.24973e-05 -2.71103e-19)
(4.11215e-05 3.60898e-05 9.75229e-20)
(0.00131976 0.00140796 6.39667e-19)
(0.000794562 2.79877e-05 1.81438e-19)
(1.50998e-05 -3.98379e-06 -1.70805e-19)
(0.00203266 0.00152566 -1.05724e-18)
(0.000130158 0.000191391 -8.20671e-19)
(0.00391324 0.00849097 -1.09532e-18)
(1.33865e-05 3.4588e-06 8.84516e-20)
(0.000223588 -0.00041591 -1.2417e-18)
(7.1032e-05 -6.16041e-05 4.07081e-20)
(0.00146464 0.000928548 0)
(0.00100326 0.000144107 -4.43266e-22)
(0.00042452 0.00085547 -4.03495e-20)
(0.000821379 1.91468e-05 -2.32072e-19)
(8.58282e-05 0.000199549 7.36868e-19)
(6.04839e-05 -7.54844e-05 4.05467e-19)
(2.38941e-05 2.04017e-05 -9.50425e-20)
(4.19372e-05 0.000108491 -3.21322e-19)
(0.000193182 -0.000362045 -5.39759e-19)
(0.00323273 0.00341782 2.59598e-21)
)
;

boundaryField
{
    back
    {
        type            empty;
    }
    ingreso
    {
        type            fixedValue;
        value           uniform (0.0008 0 0);
    }
    salida
    {
        type            zeroGradient;
    }
    front
    {
        type            empty;
    }
    defaultFaces
    {
        type            noSlip;
    }
}


// ************************************************************************* //
