/*--------------------------------*- C++ -*----------------------------------*\
  =========                 |
  \\      /  F ield         | OpenFOAM: The Open Source CFD Toolbox
   \\    /   O peration     | Website:  https://openfoam.org
    \\  /    A nd           | Version:  7
     \\/     M anipulation  |
\*---------------------------------------------------------------------------*/
FoamFile
{
    version     2.0;
    format      ascii;
    class       volScalarField;
    location    "4.5";
    object      p;
}
// * * * * * * * * * * * * * * * * * * * * * * * * * * * * * * * * * * * * * //

dimensions      [0 2 -2 0 0 0 0];

internalField   nonuniform List<scalar> 
591
(
0.000128218
0.000128225
0.000128302
0.000128127
0.000128145
0.000128646
0.000128298
0.000128252
0.000121157
0.000128237
0.000128384
0.000127081
0.000128546
0.000123892
0.000128225
0.000128234
0.000128068
0.000128259
0.000126134
0.000127552
0.00012821
2.15549e-06
0.00012837
0.000128112
0.00012831
0.000128206
0.000128219
0.000128268
0.000128195
0.000128298
0.000128332
0.000128306
0.000128333
0.00012833
0.000128334
0.000127738
0.000128328
0.000128235
0.000128349
0.000128252
0.000128197
0.000128324
0.000128233
0.000128267
0.000128321
0.000128336
0.00012349
0.000128341
0.000128179
0.00012834
0.000128257
0.0001283
2.93491e-05
3.59625e-05
5.23389e-05
0.000128301
0.000128343
0.000128325
0.000128338
0.000128142
0.000128239
0.000128178
0.000128197
0.000128702
0.000126743
0.000128216
0.000128247
0.00012834
0.000124573
0.000128295
0.000128194
0.000128341
0.000128286
0.000128321
0.000128325
0.000128298
0.000128179
0.000128338
0.000128152
0.000128118
0.000127976
0.000128343
0.000128315
0.000128252
0.000128347
0.000128188
0.000128255
0.000128332
0.000128305
0.000128078
0.000128319
0.000128224
0.000128249
0.000128181
0.000128347
0.000128291
0.000127921
0.000127767
0.000127921
0.000128344
0.000128287
0.000128232
0.000128347
0.000128127
0.000128341
0.000128244
0.000128246
0.000128286
0.000128369
0.000128349
0.000128275
0.000128315
0.000128155
0.000128334
0.000128344
0.000128372
0.000128259
0.000128298
0.000127835
0.000128222
0.000128219
0.000128693
0.000128269
0.000128096
0.000128337
0.000124097
0.00012835
0.000128299
0.000127971
0.000128327
0.000128184
0.000127885
0.000128335
0.000128276
0.000128332
0.000128228
0.000127071
0.000128351
0.000128204
0.000127819
0.000127901
0.000128245
0.000128331
0.000128346
0.000128344
1.13944e-05
7.36161e-06
5.82155e-06
4.31378e-05
4.12467e-05
9.33727e-06
4.40802e-05
2.0194e-05
4.34164e-05
2.23893e-05
0.000128216
0.000128231
0.000128347
0.000128339
0.000128344
0.000128341
0.000128338
0.000128334
0.000128334
0.000128336
0.000128283
0.000128346
0.000128341
0.000128343
0.000128259
0.00012761
0.00012835
0.000126193
0.000128307
0.00012833
0.00012825
0.000128215
0.000128327
0.00012834
0.000128333
0.000127758
0.000126601
0.000127212
0.000127672
0.000128335
0.000128339
0.000128351
0.000128171
0.000128328
0.000127104
0.000127561
0.000128182
0.000128341
0.000128048
0.00012832
0.000128322
0.000128286
0.000127963
0.000128184
0.000128322
0.000128362
0.000128323
0.000128098
0.000128291
0.000128146
0.000128341
0.000128216
0.000128219
0.000128339
0.000127958
0.000128148
0.000128259
0.000127757
0.000128283
0.000127917
0.000128221
0.00012822
0.000128308
0.00012767
0.000128219
0.00012822
0.000128197
0.000128287
0.000128093
0.000128219
0.00012816
0.000128071
0.000128157
0.000128344
0.000128113
0.000128343
0.00012817
0.000128312
0.000128199
0.000128187
0.000128335
0.000128079
0.000128341
0.00012807
0.00012816
0.000128278
0.000128206
0.000128207
0.000128206
0.000127902
0.0001282
0.000128139
0.000128301
0.000128235
0.000128013
0.000128274
0.000127494
0.00012829
0.000127387
0.000127306
0.00012822
0.00012808
0.000128257
0.000128249
0.000128142
0.000128335
0.00012822
0.000128288
0.000128206
0.000128228
0.000128241
0.000128278
0.000127974
0.000128339
0.000128012
0.000127837
0.000128266
0.000128327
0.000127873
0.000128344
0.000128224
0.000128256
0.000128299
0.000128248
0.000128166
0.000127947
0.000128184
0.000128307
0.000128208
0.000128223
0.000128317
0.000128324
0.000128339
0.000128155
0.000128209
0.000128312
0.000128338
0.000128331
0.000128205
0.000128356
0.0001282
0.000128299
0.000128014
0.000128341
0.000128079
0.000128311
0.000128215
0.000128206
1.59335e-05
2.67831e-05
0.000128127
0.000128257
0.000128345
0.000128108
0.00012834
0.000128228
0.00012834
0.000128321
0.000128053
0.00012831
0.000128201
0.000128336
0.000128252
2.2268e-07
0.000127961
0.000128312
0.000128307
0.000128067
0.000128152
0.000128166
0.000128305
0.000128108
0.000128337
0.000128217
0.000128289
0.000128299
0.000128136
0.000128086
0.000128148
0.000128174
5.19576e-05
0.00012832
0.000128301
0.000128213
0.000128336
0.000128249
0.000128237
0.000128206
0.000128099
0.000128319
0.000128669
0.000128086
0.000128192
0.000128119
0.000128344
0.000128124
0.000128168
0.000128233
0.000128283
2.45858e-05
3.23941e-05
3.89871e-05
1.37387e-05
0.000128097
3.76911e-05
3.12444e-05
0.000128333
2.38505e-05
2.15968e-05
4.27973e-05
1.18906e-05
4.49768e-05
9.79276e-06
4.69859e-05
7.72627e-06
4.87209e-05
5.49245e-06
4.18814e-05
2.81537e-05
3.46161e-05
1.93623e-05
0.000128005
0.000128344
0.000128235
0.000128212
0.000124891
0.000128691
0.000128338
0.000128308
0.000128123
0.000128343
0.000128325
0.000128327
0.000128324
0.000128123
0.000128022
0.000128306
0.000128309
0.000128171
0.000128048
0.00012806
0.000127587
0.000128154
0.000128357
0.000128329
0.000128107
0.000128365
0.000128065
0.000128155
0.00012802
0.000127056
0.000128324
0.000128335
0.000128358
0.000128074
0.000128185
0.000128028
0.000128218
0.000128123
3.16758e-05
2.7129e-05
3.82932e-05
1.62766e-05
0.000128373
0.000128078
2.49117e-05
3.39088e-05
4.06733e-05
1.41182e-05
0.0001282
0.000128277
0.000128195
0.000128177
0.00012869
0.000128269
0.000128059
0.000128322
0.000128231
0.000127365
0.000128193
0.000128161
6.32432e-05
0.000127462
0.000128346
0.00012821
0.000128095
0.000128333
0.000128337
0.00012821
0.00012797
0.000128216
0.000128243
0.000128017
0.000128286
0.000127172
0.000128123
0.000128183
0.000128271
0.000104198
0.000128101
0.000127717
0.000128099
0.000128357
0.000128036
1.51567e-05
2.59985e-05
3.97291e-05
3.33253e-05
1.82859e-05
3.97227e-06
4.76309e-05
6.28827e-06
4.6274e-05
8.51999e-06
4.53044e-05
1.06963e-05
4.37773e-05
1.30311e-05
4.17772e-05
1.80111e-05
3.69103e-05
3.5454e-05
2.8972e-05
3.03791e-05
2.27368e-05
1.7196e-05
2.05254e-05
0.000128341
0.000106299
0.000128105
0.000128111
0.000128346
0.000128236
0.000128353
0.000128097
0.000128684
0.00012832
0.000128313
0.00012876
0.000128073
0.00012859
0.000128049
0.000128269
0.00012812
0.000128347
0.00012815
0.000128012
0.000128004
0.000128613
0.000128715
0.00012836
0.000128345
0.000128344
0.000128307
0.000128344
0.000127958
0.000128155
0.000128348
0.000128106
0.000128721
0.000128185
0.000128182
0.000128055
0.000128316
0.000128319
0.000127636
0.000125482
0.00012724
0.000127885
0.000128091
0.000128037
0.000128688
0.000128347
0.000128291
0.000128301
0.000127775
0.000127851
0.000128346
0.000128318
0.000128224
0.000128271
0.000127793
6.19022e-05
4.42843e-05
0.000128276
0.000128296
0.000127626
0.000127069
0.000128231
0.000127813
0.000127636
0.000128677
0.000128081
0.000128312
0.000128116
0.000128227
0.00012341
5.80256e-05
0.000128273
8.50023e-05
3.81979e-06
2.20816e-06
0.000128182
0.000128195
0.000128317
0.000128347
0.000128342
0.000128352
0.000128328
0.000128193
3.05312e-07
0.000127159
0.000128238
0.000128286
0.000125995
0.000128348
0.000128345
0.000126597
0.000128276
0.00012832
0.00012604
0.000128338
7.99497e-05
0.000128346
0.000127687
0.0001283
0.000126629
0.000127894
0.0001279
0.000128254
0.000128341
0.000128298
0.000128346
0.000128377
0.000128125
0.000120613
)
;

boundaryField
{
    back
    {
        type            empty;
    }
    ingreso
    {
        type            zeroGradient;
    }
    salida
    {
        type            fixedValue;
        value           uniform 0;
    }
    front
    {
        type            empty;
    }
    defaultFaces
    {
        type            zeroGradient;
    }
}


// ************************************************************************* //
