/*--------------------------------*- C++ -*----------------------------------*\
  =========                 |
  \\      /  F ield         | OpenFOAM: The Open Source CFD Toolbox
   \\    /   O peration     | Website:  https://openfoam.org
    \\  /    A nd           | Version:  7
     \\/     M anipulation  |
\*---------------------------------------------------------------------------*/
FoamFile
{
    version     2.0;
    format      ascii;
    class       volScalarField;
    location    "24.5";
    object      p;
}
// * * * * * * * * * * * * * * * * * * * * * * * * * * * * * * * * * * * * * //

dimensions      [0 2 -2 0 0 0 0];

internalField   nonuniform List<scalar> 
591
(
0.000123955
0.00012397
0.000123987
0.00012395
0.000123951
0.000124046
0.00012401
0.000123984
0.000116916
0.000123984
0.000124138
0.00012285
0.000124022
0.000119739
0.000123986
0.000124021
0.000123901
0.000124018
0.000121979
0.000123366
0.000123951
-3.46517e-06
0.000124137
0.000123953
0.000124095
0.000123969
0.000124031
0.000124059
0.000123979
0.000124018
0.000124114
0.000124091
0.00012411
0.000124109
0.000124112
0.000123461
0.000124107
0.000123967
0.000124131
0.000124045
0.000124035
0.000124104
0.00012398
0.000124003
0.000124101
0.000124118
0.000119256
0.000124122
0.000123995
0.000124096
0.000124055
0.000124096
2.38134e-05
3.04701e-05
4.77891e-05
0.000124007
0.000124125
0.000124107
0.00012412
0.000123955
0.000124032
0.000123976
0.000123983
0.000124058
0.000122592
0.000123978
0.000123983
0.000124117
0.000120712
0.000124006
0.000123981
0.000124123
0.000124081
0.000124104
0.00012411
0.000124085
0.000123948
0.00012412
0.000123953
0.000123869
0.000123737
0.000124125
0.000124088
0.000124055
0.000124133
0.000123961
0.000124052
0.000124115
0.000124079
0.00012384
0.000124093
0.000124024
0.000124051
0.000123963
0.000124131
0.00012409
0.000123667
0.000123562
0.000123679
0.000124135
0.000124046
0.000123964
0.000124139
0.000123955
0.000124137
0.000123984
0.000123971
0.000124088
0.000124129
0.000124134
0.000124017
0.000124105
0.000124
0.000124113
0.000124134
0.000124112
0.000124055
0.000124066
0.000123608
0.000124021
0.000123981
0.000124032
0.000124015
0.000123967
0.000124108
0.000120228
0.000124137
0.000124109
0.000123738
0.00012411
0.000123969
0.000123661
0.000124071
0.00012407
0.000124113
0.000123996
0.000122631
0.000124139
0.000123979
0.000123615
0.000123675
0.000124044
0.000124115
0.000124131
0.000124126
7.44385e-06
3.61722e-06
2.01898e-06
3.80914e-05
3.66314e-05
5.54017e-06
3.82302e-05
1.56461e-05
3.71943e-05
1.77316e-05
0.000123978
0.000123961
0.000124123
0.000124122
0.000124127
0.000124125
0.000124119
0.000124117
0.00012412
0.000124121
0.00012408
0.000124129
0.000124124
0.000124129
0.000124055
0.000123414
0.000124131
0.000122127
0.000124101
0.000124113
0.000124054
0.000123982
0.000124113
0.000124122
0.000124117
0.000123523
0.000122474
0.000123063
0.000123487
0.000124116
0.00012412
0.000124075
0.000123955
0.000124113
0.00012297
0.000123338
0.000123957
0.000124113
0.000123813
0.000124105
0.000124112
0.000124082
0.000123784
0.000123941
0.00012411
0.000124123
0.000124114
0.000123904
0.000124096
0.000123902
0.00012413
0.000123982
0.000123974
0.000124126
0.000123756
0.000123945
0.000123996
0.000123592
0.000124077
0.00012374
0.000124023
0.000124019
0.0001241
0.000123514
0.000124018
0.000123928
0.000123944
0.000124086
0.000123846
0.000124012
0.000123917
0.00012382
0.000123937
0.000124132
0.000123885
0.000124125
0.000123959
0.0001241
0.000123962
0.000123957
0.000124132
0.000123866
0.000124123
0.000123864
0.000123911
0.000123992
0.000123964
0.000123982
0.000123981
0.000123731
0.000123943
0.000123887
0.000124091
0.000123966
0.000123787
0.00012408
0.000123346
0.000123904
0.000123269
0.00012311
0.000123969
0.000123932
0.000123963
0.000123959
0.000123902
0.00012413
0.000124
0.000124073
0.000123994
0.000124005
0.000124016
0.000124079
0.000123735
0.000124125
0.000123777
0.000123672
0.000123992
0.000124101
0.000123686
0.000124127
0.000124025
0.000124073
0.000124084
0.000123999
0.000123946
0.000123739
0.000123931
0.000123943
0.000123988
0.000124025
0.0001241
0.00012411
0.00012412
0.000123901
0.000123991
0.000124103
0.000124113
0.00012411
0.000123923
0.000124123
0.000123993
0.000124093
0.000123888
0.000124122
0.000123884
0.0001241
0.000124026
0.000123948
1.14897e-05
2.18381e-05
0.000123932
0.000123976
0.000124128
0.000123915
0.000124128
0.000123988
0.000124122
0.000124102
0.000123877
0.000124096
0.00012394
0.000124123
0.000123989
-2.0427e-07
0.000123798
0.000124103
0.000124101
0.000123836
0.00012394
0.000123969
0.000124096
0.000123901
0.000124117
0.000124017
0.000123984
0.000124094
0.000123951
0.000123871
0.000123894
0.000124003
4.73234e-05
0.000124111
0.000124094
0.000123966
0.000124117
0.00012404
0.000123992
0.000123964
0.000123976
0.000124104
0.000124033
0.000123909
0.000123989
0.000123913
0.000124118
0.000123919
0.000123955
0.000123998
0.000124078
1.98075e-05
2.71628e-05
3.42148e-05
9.45233e-06
0.000123955
3.29542e-05
2.58612e-05
0.000124115
1.899e-05
1.69124e-05
3.81148e-05
7.37004e-06
3.98741e-05
5.40715e-06
4.07749e-05
3.5189e-06
4.27623e-05
1.77064e-06
3.63053e-05
2.30823e-05
2.93071e-05
1.48226e-05
0.000123819
0.000124124
0.000124018
0.000124033
0.000120938
0.000124111
0.000124119
0.000124091
0.000123933
0.000124125
0.000124117
0.000124108
0.000124105
0.000123883
0.000123975
0.000124101
0.000124105
0.000123948
0.000123843
0.000123827
0.000123426
0.000123891
0.000124135
0.000124111
0.000123986
0.000124134
0.000123834
0.000123977
0.00012379
0.000122903
0.000124106
0.000124116
0.000124132
0.000123834
0.000123983
0.000123794
0.000123991
0.000123963
2.58786e-05
2.18127e-05
3.29383e-05
1.14308e-05
0.00012414
0.00012384
1.97917e-05
2.81095e-05
3.55198e-05
9.38737e-06
0.000123947
0.000124061
0.000123936
0.000123927
0.000124021
0.000124062
0.000123853
0.000124102
0.000124025
0.000123124
0.000123934
0.000123902
5.91804e-05
0.000123253
0.000124129
0.000123969
0.000123872
0.000124118
0.000124121
0.000123958
0.000123744
0.000123988
0.000124047
0.00012382
0.000124075
0.000122949
0.00012393
0.000123915
0.000124069
0.000100786
0.000123915
0.000123517
0.000123905
0.000124131
0.0001238
1.06853e-05
2.10319e-05
3.53104e-05
2.80018e-05
1.34982e-05
2.5631e-08
4.19654e-05
2.6029e-06
4.00664e-05
4.59675e-06
3.93321e-05
6.63902e-06
3.85505e-05
8.66632e-06
3.72359e-05
1.35561e-05
3.16111e-05
3.04167e-05
2.38408e-05
2.51431e-05
1.77132e-05
1.27375e-05
1.55966e-05
0.000124124
0.000102422
0.000123957
0.000123903
0.000124128
0.000124024
0.000124133
0.000123863
0.000124044
0.000124098
0.000124092
0.000124157
0.000123866
0.000124014
0.000123831
0.000124063
0.000123931
0.000124128
0.000123977
0.000123809
0.000123811
0.000124027
0.000124038
0.000124136
0.000124126
0.00012413
0.000124096
0.000124134
0.00012378
0.000123983
0.000124129
0.000123928
0.000124085
0.00012398
0.000123977
0.000123846
0.000124096
0.000124096
0.000123426
0.000121374
0.000123162
0.000123695
0.000123981
0.000123804
0.00012403
0.000124132
0.000124086
0.000124001
0.000123586
0.000123576
0.00012413
0.000124099
0.000124011
0.000124062
0.000123619
5.82603e-05
4.00444e-05
0.00012407
0.000124087
0.00012347
0.000122775
0.000123967
0.000123653
0.000123401
0.000124012
0.000123838
0.000124109
0.000124002
0.000124042
0.000119032
5.44202e-05
0.000124011
8.11147e-05
1.70572e-06
-3.57594e-07
0.000123979
0.000123952
0.000124098
0.000124133
0.00012412
0.00012413
0.000124121
0.000123966
-2.32888e-06
0.000122872
0.000123995
0.000124077
0.000122048
0.000124128
0.000124128
0.000122289
0.000124077
0.0001241
0.000121704
0.000124125
7.631e-05
0.000124126
0.000123593
0.000124091
0.000122403
0.000123678
0.000123696
0.000124014
0.000124128
0.000124084
0.000124127
0.000124139
0.000123985
0.000116197
)
;

boundaryField
{
    back
    {
        type            empty;
    }
    ingreso
    {
        type            zeroGradient;
    }
    salida
    {
        type            fixedValue;
        value           uniform 0;
    }
    front
    {
        type            empty;
    }
    defaultFaces
    {
        type            zeroGradient;
    }
}


// ************************************************************************* //
