/*--------------------------------*- C++ -*----------------------------------*\
  =========                 |
  \\      /  F ield         | OpenFOAM: The Open Source CFD Toolbox
   \\    /   O peration     | Website:  https://openfoam.org
    \\  /    A nd           | Version:  7
     \\/     M anipulation  |
\*---------------------------------------------------------------------------*/
FoamFile
{
    version     2.0;
    format      ascii;
    class       volScalarField;
    location    "117";
    object      p;
}
// * * * * * * * * * * * * * * * * * * * * * * * * * * * * * * * * * * * * * //

dimensions      [0 2 -2 0 0 0 0];

internalField   nonuniform List<scalar> 
591
(
0.000123822
0.000123838
0.000123844
0.000123786
0.00012379
0.000123861
0.000123845
0.000123825
0.000116956
0.000123846
0.000124036
0.000122791
0.000123832
0.000119681
0.000123825
0.000123867
0.000123832
0.000123878
0.000121906
0.000123211
0.000123808
-3.52212e-06
0.000124029
0.000123809
0.000123983
0.000123832
0.000123954
0.000123941
0.000123846
0.000123858
0.000124004
0.000123977
0.000123998
0.000123997
0.000123999
0.00012332
0.000123994
0.00012381
0.000124023
0.000123934
0.000123882
0.00012399
0.000123841
0.000123869
0.000123987
0.000124009
0.000119188
0.000124013
0.000123845
0.000123951
0.000123969
0.000123996
2.39481e-05
3.05944e-05
4.78395e-05
0.000123841
0.000124018
0.000124013
0.000124011
0.000123818
0.000123905
0.000123839
0.000123835
0.000123887
0.000122517
0.000123837
0.000123842
0.000124007
0.000120688
0.000123855
0.000123844
0.000124014
0.000123996
0.000123992
0.000123998
0.000123973
0.000123813
0.000124011
0.000123815
0.000123756
0.000123585
0.000124016
0.000123975
0.000123965
0.000124023
0.000123827
0.000123908
0.000124005
0.000123968
0.00012372
0.00012398
0.000123938
0.000123945
0.000123818
0.000124021
0.000123975
0.000123519
0.000123418
0.000123596
0.000124028
0.000123936
0.000123872
0.000124035
0.000123781
0.000124037
0.000123839
0.000123834
0.000123973
0.000124031
0.000124034
0.000123929
0.00012401
0.000123853
0.000124009
0.000124026
0.000124017
0.000123972
0.000123958
0.000123534
0.00012394
0.000123839
0.000123829
0.000123914
0.000123815
0.000123988
0.000120146
0.000124037
0.000124017
0.000123583
0.000123999
0.000123828
0.000123511
0.000123979
0.000123965
0.000124003
0.000123845
0.000122583
0.000124032
0.00012383
0.000123522
0.000123601
0.000123927
0.00012402
0.000124025
0.000124017
7.61943e-06
3.68111e-06
2.07398e-06
3.8165e-05
3.67042e-05
5.66393e-06
3.83184e-05
1.57435e-05
3.73028e-05
1.78105e-05
0.000123839
0.000123829
0.000124025
0.000124013
0.000124021
0.000124021
0.000124012
0.000124007
0.000124027
0.000124022
0.000123992
0.000124021
0.000124017
0.000124025
0.000123974
0.000123348
0.000124024
0.000122084
0.000124014
0.000124002
0.000123957
0.000123846
0.000124002
0.00012402
0.000124023
0.000123442
0.00012243
0.000123004
0.00012339
0.000124006
0.000124014
0.000123897
0.000123807
0.000124011
0.000122924
0.000123249
0.000123806
0.000124
0.000123698
0.000123993
0.000124022
0.000123998
0.000123664
0.000123798
0.000124019
0.000124021
0.000124024
0.000123828
0.000124
0.000123824
0.000124028
0.000123832
0.000123831
0.000124025
0.000123621
0.000123797
0.000123843
0.000123484
0.000123979
0.000123628
0.000123918
0.000123941
0.000124012
0.000123395
0.000123903
0.000123791
0.00012379
0.000123972
0.00012374
0.000123886
0.000123806
0.000123722
0.000123782
0.000124028
0.000123787
0.000124029
0.000123887
0.000124009
0.000123847
0.00012385
0.000124032
0.000123731
0.000124015
0.000123719
0.00012377
0.000123837
0.000123814
0.000123852
0.00012384
0.000123609
0.000123811
0.000123767
0.000123972
0.00012383
0.000123694
0.000123966
0.00012324
0.000123813
0.000123128
0.000123018
0.000123822
0.000123785
0.000123825
0.00012382
0.000123799
0.000124031
0.000123867
0.000123931
0.000123884
0.000123871
0.000123882
0.000123987
0.000123635
0.000124027
0.00012367
0.000123555
0.000123856
0.000124006
0.000123582
0.000124018
0.000123934
0.00012393
0.000123963
0.000123849
0.000123827
0.000123668
0.000123778
0.000123826
0.000123862
0.000123928
0.000123987
0.000124005
0.000124011
0.000123764
0.000123874
0.000123997
0.000124006
0.000123998
0.000123789
0.000124014
0.000123892
0.000124007
0.000123749
0.000124014
0.000123735
0.000123989
0.000123881
0.000123825
1.16439e-05
2.19159e-05
0.000123755
0.000123844
0.000124031
0.000123769
0.00012403
0.000123854
0.000124013
0.000123989
0.000123716
0.000123983
0.000123811
0.000124029
0.000123848
-2.09464e-07
0.000123732
0.000123993
0.00012399
0.000123673
0.000123846
0.000123891
0.000123983
0.000123727
0.000124006
0.000123885
0.00012384
0.000123981
0.000123781
0.000123702
0.000123744
0.000123851
4.75012e-05
0.000124001
0.000123976
0.000123836
0.000124008
0.000123912
0.000123858
0.000123843
0.000123825
0.000123992
0.000123855
0.000123754
0.000123896
0.000123761
0.000124006
0.000123768
0.000123834
0.000123865
0.000123945
1.98756e-05
2.73135e-05
3.43002e-05
9.64119e-06
0.000123809
3.30612e-05
2.60195e-05
0.000124004
1.90762e-05
1.7032e-05
3.81889e-05
7.57815e-06
3.99396e-05
5.60684e-06
4.08329e-05
3.69075e-06
4.28146e-05
1.87821e-06
3.64154e-05
2.31977e-05
2.94481e-05
1.49942e-05
0.000123695
0.000124016
0.000123876
0.000123895
0.000120844
0.000123928
0.00012401
0.00012398
0.000123772
0.000124016
0.000124026
0.000123995
0.000123991
0.000123753
0.000123826
0.000124011
0.000124017
0.00012385
0.000123706
0.000123807
0.000123363
0.000123813
0.000124035
0.000123998
0.000123837
0.000124023
0.000123674
0.000123848
0.000123634
0.000122799
0.000123993
0.000124006
0.000124033
0.000123692
0.000123897
0.000123632
0.000123853
0.000123845
2.60549e-05
2.18806e-05
3.30402e-05
1.162e-05
0.000124036
0.000123684
1.98224e-05
2.82621e-05
3.56067e-05
9.58993e-06
0.000123864
0.000123928
0.000123805
0.000123809
0.000123827
0.00012398
0.000123767
0.000123988
0.000123946
0.000123056
0.000123811
0.000123777
5.93933e-05
0.000123182
0.000124021
0.000123821
0.000123706
0.000124009
0.000124012
0.0001238
0.000123599
0.000123837
0.000123868
0.000123684
0.000123965
0.000122849
0.000123753
0.000123784
0.000123989
0.000100856
0.000123833
0.000123443
0.000123743
0.000124021
0.000123646
1.08977e-05
2.11164e-05
3.53728e-05
2.82118e-05
1.36637e-05
5.67923e-08
4.20923e-05
2.69205e-06
4.01636e-05
4.76403e-06
3.94206e-05
6.81668e-06
3.86284e-05
8.85923e-06
3.7295e-05
1.36755e-05
3.17322e-05
3.0596e-05
2.39433e-05
2.52656e-05
1.77676e-05
1.294e-05
1.57096e-05
0.000124015
0.000102358
0.000123809
0.000123731
0.000124018
0.000123909
0.000124025
0.000123738
0.000123868
0.000123984
0.000123979
0.00012399
0.000123736
0.000123832
0.000123758
0.000123938
0.000123765
0.000124019
0.000123904
0.000123731
0.000123741
0.000123842
0.000123837
0.000124026
0.000124017
0.000124033
0.000123984
0.000124033
0.000123652
0.000123833
0.000124021
0.000123778
0.000123912
0.000123842
0.000123899
0.000123719
0.000123983
0.000123982
0.000123296
0.000121329
0.000123024
0.000123567
0.000123831
0.00012366
0.000123845
0.000124027
0.000124002
0.000123839
0.000123452
0.000123429
0.00012402
0.000123985
0.000123861
0.000123949
0.000123494
5.83053e-05
4.01196e-05
0.000123952
0.000123973
0.000123336
0.000122701
0.000123819
0.000123586
0.000123329
0.000123827
0.00012376
0.00012402
0.000123861
0.000123897
0.000118957
5.44604e-05
0.000123866
8.12565e-05
1.86294e-06
-3.80143e-07
0.000123827
0.000123795
0.000123985
0.00012403
0.000124026
0.000124019
0.000124029
0.000123814
-2.30602e-06
0.000122774
0.000123858
0.00012396
0.000121962
0.000124018
0.000124019
0.000122248
0.000123937
0.000123986
0.000121646
0.000124031
7.63154e-05
0.000124017
0.000123773
0.000123978
0.000122327
0.000123538
0.000123623
0.000123866
0.000124033
0.00012397
0.000124018
0.000124032
0.000123819
0.000116126
)
;

boundaryField
{
    back
    {
        type            empty;
    }
    ingreso
    {
        type            zeroGradient;
    }
    salida
    {
        type            fixedValue;
        value           uniform 0;
    }
    front
    {
        type            empty;
    }
    defaultFaces
    {
        type            zeroGradient;
    }
}


// ************************************************************************* //
