/*--------------------------------*- C++ -*----------------------------------*\
  =========                 |
  \\      /  F ield         | OpenFOAM: The Open Source CFD Toolbox
   \\    /   O peration     | Website:  https://openfoam.org
    \\  /    A nd           | Version:  8
     \\/     M anipulation  |
\*---------------------------------------------------------------------------*/
FoamFile
{
    version     2.0;
    format      ascii;
    class       volScalarField;
    location    "4.8";
    object      p;
}
// * * * * * * * * * * * * * * * * * * * * * * * * * * * * * * * * * * * * * //

dimensions      [0 2 -2 0 0 0 0];

internalField   nonuniform List<scalar> 
3080
(
4.51464e-05
4.26697e-05
4.50079e-05
4.51524e-05
4.40019e-05
4.49816e-05
4.50035e-05
2.71829e-05
4.49624e-05
4.51211e-05
4.51652e-05
4.51482e-05
4.1596e-05
4.37635e-05
4.51696e-05
4.31673e-05
4.50712e-05
4.5073e-05
4.51588e-05
4.46819e-05
3.12876e-05
4.47131e-05
4.44557e-05
2.81655e-05
4.41309e-05
4.33578e-05
4.49388e-05
4.33471e-05
4.51532e-05
4.35392e-05
3.90007e-05
2.9386e-05
4.3268e-05
3.02508e-05
3.4871e-05
4.52349e-05
4.48086e-05
3.56918e-05
4.50442e-05
4.35255e-05
4.51282e-05
4.50679e-05
4.52233e-05
4.508e-05
4.32697e-05
4.51673e-05
4.49126e-05
4.51465e-05
4.51082e-05
4.28068e-05
4.50743e-05
3.72906e-05
4.45063e-05
4.50084e-05
4.35187e-05
4.50303e-05
4.49973e-05
3.58279e-06
3.54427e-05
4.50253e-05
3.93926e-06
4.26968e-06
5.29755e-06
4.50775e-05
4.92329e-06
5.32601e-06
4.50362e-05
4.50275e-05
2.8699e-06
7.05549e-06
4.50092e-05
4.56413e-06
3.29474e-05
8.82834e-06
4.51029e-05
3.19965e-05
4.50961e-05
6.31749e-06
4.50476e-05
4.51057e-05
4.28559e-05
4.50312e-05
1.06055e-05
3.87224e-05
4.46995e-05
8.08618e-06
4.48342e-05
1.21386e-05
1.30612e-05
4.48586e-05
9.86078e-06
1.23826e-05
1.78785e-06
1.11273e-05
1.19782e-05
4.49845e-05
1.16365e-05
1.38102e-05
1.48524e-05
4.50411e-05
4.5002e-05
3.29589e-06
3.57553e-06
3.2162e-05
4.47809e-05
4.38017e-05
4.50861e-05
1.34161e-05
1.27978e-05
1.37686e-05
1.54836e-05
1.66454e-05
4.5068e-05
6.02376e-06
6.50711e-06
2.82295e-05
4.47446e-05
2.27735e-06
2.47413e-06
1.44704e-05
1.55608e-05
4.50633e-05
4.47777e-05
7.13292e-06
7.69606e-06
4.5115e-05
4.51073e-05
1.82638e-05
1.96252e-05
4.33082e-05
8.244e-06
8.88739e-06
4.49831e-05
9.35963e-06
1.00828e-05
4.51661e-05
4.49286e-05
4.51338e-05
1.99354e-05
2.14179e-05
1.99321e-05
1.89e-05
4.50854e-05
1.04708e-05
1.12739e-05
4.30418e-05
4.51018e-05
1.72553e-05
1.85453e-05
4.4815e-06
4.85218e-06
4.51216e-05
4.49644e-05
4.49438e-05
4.5111e-05
2.16114e-05
2.32135e-05
3.39737e-05
4.14526e-06
4.49655e-05
2.17068e-05
2.34104e-05
2.51289e-05
4.35752e-05
2.47931e-06
2.06738e-05
4.5139e-05
4.49627e-05
5.88401e-06
1.89251e-05
2.03358e-05
4.4894e-05
2.77855e-05
2.34923e-05
3.50739e-05
7.64786e-06
2.6967e-05
2.51166e-05
4.51163e-05
4.15421e-07
4.23493e-07
3.83341e-07
1.46008e-05
2.24471e-05
3.19497e-05
4.49387e-05
2.52807e-05
9.42247e-06
2.05889e-05
2.21273e-05
4.50371e-05
1.57868e-05
4.47567e-05
2.94875e-05
4.50914e-05
1.65938e-05
1.78356e-05
4.50855e-05
2.39866e-05
2.57387e-05
2.88447e-06
3.13404e-06
1.12006e-05
2.86763e-05
1.69715e-05
2.44915e-05
2.62237e-05
2.42276e-05
2.71427e-05
4.5098e-05
1.16871e-05
1.25781e-05
4.46224e-05
4.51205e-05
4.32991e-05
4.49969e-05
1.8154e-05
2.75849e-05
2.56298e-05
1.29773e-05
5.57478e-06
6.02614e-06
2.79963e-05
1.3359e-05
1.43697e-05
4.47483e-05
4.44158e-05
4.48777e-05
6.6792e-06
7.21072e-06
3.03236e-05
4.48038e-05
2.90015e-05
2.60216e-05
4.47676e-05
2.92764e-05
2.89413e-05
7.789e-06
8.40051e-06
4.51501e-05
1.50313e-05
1.61617e-05
4.48427e-05
2.72778e-05
8.39995e-07
8.05993e-07
8.84158e-07
2.77135e-05
4.51199e-05
8.90131e-06
9.59254e-06
4.10936e-05
2.53621e-05
1.90927e-06
2.08038e-06
4.21669e-05
2.47603e-05
1.00151e-05
1.07862e-05
2.95966e-05
4.51397e-05
2.27523e-05
2.44111e-05
2.53289e-05
2.36306e-05
2.59319e-05
2.41848e-05
4.50945e-05
2.41325e-05
2.24884e-05
4.50092e-05
1.78137e-05
1.91439e-05
1.94918e-05
2.54325e-05
4.47962e-05
2.29427e-05
2.13647e-05
4.51476e-05
2.17502e-05
2.02506e-05
2.8315e-05
2.05577e-05
1.91338e-05
2.99377e-05
2.47289e-05
2.30621e-05
2.53361e-05
1.41617e-05
1.87663e-05
1.74621e-05
2.47568e-05
1.94821e-05
2.09345e-05
2.12638e-05
1.75691e-05
1.63438e-05
3.24955e-05
5.87052e-07
5.3407e-07
5.94065e-07
2.41686e-05
2.29849e-05
1.63778e-05
1.5233e-05
1.53455e-05
1.51838e-05
1.41189e-05
2.35394e-05
2.19306e-05
2.12134e-05
4.50122e-05
1.39866e-05
1.30016e-05
2.83997e-05
1.94374e-05
3.05564e-05
2.35779e-05
1.21833e-05
1.1318e-05
2.23934e-05
2.11466e-05
2.27285e-05
4.51154e-05
2.30394e-05
1.65314e-05
1.76549e-05
1.0395e-05
9.64907e-06
1.99673e-05
1.85829e-05
2.23472e-05
2.08106e-05
9.21021e-06
8.54361e-06
1.58731e-05
8.01603e-06
7.43033e-06
1.46911e-05
1.77134e-05
2.06208e-05
1.61443e-05
1.73545e-05
6.21239e-06
5.74601e-06
4.49155e-05
1.29096e-05
2.4818e-05
5.0148e-06
4.6276e-06
3.72217e-05
2.11567e-05
1.96942e-05
2.1805e-05
4.5135e-05
1.11317e-05
4.50833e-05
2.95052e-06
3.21908e-06
4.2264e-05
4.49991e-05
1.88426e-05
9.3542e-06
7.57492e-06
2.66478e-05
5.78973e-06
4.48414e-05
3.98484e-06
1.9368e-05
1.80238e-05
4.49974e-05
2.00305e-05
4.2502e-05
3.00165e-05
1.64667e-05
4.48378e-05
3.16587e-05
1.8167e-05
1.69023e-05
4.49803e-05
4.33557e-05
4.51057e-05
4.51654e-05
1.27827e-05
1.18778e-05
1.82518e-05
2.31908e-06
1.35045e-05
1.69762e-05
1.5791e-05
4.51071e-05
2.2276e-05
2.39241e-05
2.97338e-05
1.09892e-05
1.02038e-05
4.50379e-05
1.70582e-05
2.64961e-05
2.96288e-05
4.50188e-05
1.17265e-05
2.60295e-05
4.50896e-05
1.57822e-05
1.46772e-05
4.36743e-05
9.948e-06
1.52835e-05
1.45875e-05
1.35625e-05
4.48724e-05
2.96454e-05
6.81338e-06
6.30793e-06
4.37043e-05
8.17011e-06
1.40965e-05
1.33922e-05
1.24476e-05
4.50971e-05
4.47731e-05
6.38863e-06
6.31112e-07
6.87049e-07
5.91791e-07
4.50778e-05
1.94033e-06
1.78498e-06
4.5164e-05
1.2317e-05
1.15934e-05
1.07682e-05
3.81129e-06
3.50396e-06
4.5139e-05
4.39874e-05
4.48687e-05
4.47829e-05
4.42967e-05
3.00621e-06
2.76863e-06
4.49987e-05
4.5916e-06
5.47473e-06
5.91786e-06
1.37373e-06
1.4952e-06
1.43396e-06
4.50764e-05
6.57935e-06
7.10258e-06
7.69045e-06
8.29375e-06
8.80319e-06
9.48651e-06
9.9178e-06
1.0681e-05
1.05387e-05
4.50512e-05
9.80829e-06
9.10245e-06
1.76195e-06
1.90295e-06
1.01758e-06
9.94287e-07
1.08359e-06
3.93134e-05
1.60397e-05
1.72416e-05
4.2788e-05
4.50032e-05
4.51256e-05
8.62314e-06
7.99689e-06
4.50984e-05
4.25442e-05
4.14977e-05
4.51698e-05
2.21832e-05
2.38123e-05
8.76158e-06
4.50037e-05
4.5012e-05
4.50184e-05
1.92197e-06
2.08077e-06
1.40085e-05
1.51959e-05
4.44813e-05
7.4263e-06
6.88052e-06
1.63815e-05
3.07254e-05
1.75642e-05
4.51213e-05
4.17022e-05
4.50916e-05
4.51296e-05
4.51267e-05
4.31192e-05
4.49892e-05
4.48765e-05
6.98148e-06
1.84103e-06
4.50917e-05
4.44908e-05
4.1671e-05
4.51004e-05
2.86473e-05
4.48734e-05
5.61633e-06
5.18903e-06
4.50225e-05
3.8974e-05
4.49553e-05
2.77355e-06
4.50019e-05
4.50725e-05
4.50592e-05
3.02705e-05
4.50231e-05
4.37274e-06
4.73501e-06
5.19095e-06
4.39932e-05
4.49797e-05
4.41665e-06
4.06958e-06
4.5078e-05
4.49666e-05
4.49682e-05
5.72282e-06
4.4809e-05
3.98021e-06
4.41242e-05
4.50273e-05
7.48841e-06
1.15793e-05
1.24621e-05
4.41658e-05
4.51325e-05
1.42523e-05
1.325e-05
9.26303e-06
1.6045e-05
1.49232e-05
4.50378e-05
1.90249e-05
1.77032e-05
2.08172e-05
1.93765e-05
2.26116e-05
2.10465e-05
1.10381e-05
4.49586e-05
3.11263e-05
4.51044e-05
4.43608e-05
1.2815e-05
4.51557e-05
4.50959e-05
2.32367e-06
2.70407e-05
2.4004e-06
2.60746e-06
4.46684e-05
4.50112e-05
4.27366e-05
4.5095e-05
1.93326e-05
2.11068e-05
2.28909e-05
4.5147e-05
2.65033e-05
2.46757e-05
4.37578e-05
2.8958e-05
4.42322e-05
4.51027e-05
4.50196e-05
4.40158e-05
4.48907e-05
4.5059e-05
4.51125e-05
4.50039e-05
4.50801e-05
4.07541e-05
4.49497e-05
3.25971e-05
4.50966e-05
4.50905e-05
4.4218e-05
4.40663e-05
4.39043e-05
4.50983e-05
4.26932e-05
4.45216e-05
4.51135e-05
4.46243e-05
4.50113e-05
4.50916e-05
4.49971e-05
3.01848e-05
4.49632e-05
4.50794e-05
4.28802e-05
4.50152e-05
4.51399e-05
2.62253e-05
4.50432e-05
4.50414e-05
4.50682e-05
4.50837e-05
4.46755e-05
2.84223e-06
4.51039e-05
3.37801e-06
4.50915e-05
4.36281e-05
3.15991e-05
2.70867e-05
4.43497e-05
4.50908e-05
4.50306e-05
4.51404e-05
4.50432e-05
4.51126e-05
4.51005e-05
4.51179e-05
4.51404e-05
4.50714e-05
4.45861e-05
4.51153e-05
4.4874e-05
4.50498e-05
4.46136e-05
2.87637e-05
4.50251e-05
4.5079e-05
3.98874e-05
4.50386e-05
4.50684e-05
4.2884e-05
4.41558e-05
3.95414e-05
4.49964e-05
4.51024e-05
4.46272e-05
4.51174e-05
4.50866e-05
4.49729e-05
4.44196e-05
4.51142e-05
4.41375e-05
4.50143e-05
4.48106e-05
4.51494e-05
4.50301e-05
4.50555e-05
3.15009e-06
2.90029e-06
4.50086e-05
4.40287e-05
4.50435e-05
4.39575e-05
4.51309e-05
4.51252e-05
4.49744e-05
4.50975e-05
2.82582e-05
4.51197e-05
4.50184e-05
4.51184e-05
4.51392e-05
4.4937e-05
4.51448e-05
4.50946e-05
4.50711e-05
4.50961e-05
4.50874e-05
4.49978e-05
4.50113e-05
4.5127e-05
4.50891e-05
4.51041e-05
4.51369e-05
4.50255e-05
4.50001e-05
4.50501e-05
4.50984e-05
4.50638e-05
4.50293e-05
4.50142e-05
4.50353e-05
4.51341e-05
4.49788e-05
4.50408e-05
4.35778e-05
4.51464e-05
4.44447e-05
4.50864e-05
4.49776e-05
4.44337e-05
4.44823e-05
4.50818e-05
3.15607e-05
4.52273e-05
4.43239e-05
4.50083e-05
4.50968e-05
4.50153e-05
4.51485e-05
4.50274e-05
4.51112e-05
4.5077e-05
4.51321e-05
4.4997e-05
4.51213e-05
4.41275e-05
4.46379e-05
4.51196e-05
4.51161e-05
4.50378e-05
4.45048e-05
4.50371e-05
4.49834e-05
4.51338e-05
4.38126e-05
4.48478e-05
4.52665e-05
4.50656e-05
4.50994e-05
4.50259e-05
4.50075e-05
4.50196e-05
4.5152e-05
4.51032e-05
4.49685e-05
4.51115e-05
4.50093e-05
4.50057e-05
4.51457e-05
4.43494e-05
2.90307e-06
4.50979e-05
4.44508e-05
4.49746e-05
4.50952e-05
4.50199e-05
4.51041e-05
4.50991e-05
4.51618e-05
4.51567e-05
4.49006e-05
4.50089e-05
4.35558e-05
4.51535e-05
4.51051e-05
4.51183e-05
4.48357e-05
4.50787e-05
4.50399e-05
4.5143e-05
4.5121e-05
4.51741e-05
4.48924e-05
4.51299e-05
4.50258e-05
4.5016e-05
4.51253e-05
4.41235e-05
3.39407e-06
4.50212e-05
4.51049e-05
4.4238e-05
4.47082e-05
4.50882e-05
4.41187e-05
4.51953e-05
4.494e-05
4.4973e-05
4.51472e-05
4.50089e-05
4.5142e-05
4.50239e-05
4.47493e-05
2.84336e-05
4.46572e-05
4.45905e-05
4.50631e-05
4.50804e-05
4.51416e-05
4.51508e-05
4.51409e-05
4.50262e-05
4.52181e-05
4.51594e-05
4.45536e-05
4.5172e-05
4.4598e-05
4.5132e-05
4.51674e-05
4.52285e-05
4.50605e-05
4.50125e-05
4.5137e-05
4.51212e-05
4.50895e-05
4.51721e-05
4.49584e-05
4.50524e-05
4.49735e-05
4.51455e-05
4.51284e-05
4.49976e-05
4.5091e-05
4.51145e-05
4.50606e-05
2.69191e-05
4.51455e-05
4.48653e-05
4.48261e-05
4.5079e-05
4.50965e-05
4.51192e-05
4.51414e-05
4.46704e-05
4.51581e-05
4.50389e-05
4.49959e-05
4.50321e-05
4.50215e-05
4.52246e-05
4.50412e-05
4.51204e-05
4.49576e-05
4.51612e-05
4.50575e-05
4.50538e-05
4.51397e-05
4.4807e-05
4.49906e-05
4.51947e-05
4.507e-05
4.51733e-05
4.51506e-05
4.50167e-05
4.49991e-05
4.51007e-05
4.49872e-05
4.50863e-05
4.51694e-05
4.4994e-05
4.49925e-05
4.50558e-05
4.50034e-05
4.49371e-05
4.49357e-05
4.5047e-05
4.51722e-05
4.51263e-05
4.50828e-05
4.44825e-05
4.49385e-05
4.50302e-05
3.70446e-06
3.41236e-06
4.5082e-05
4.51428e-05
4.49579e-05
4.46126e-05
4.45473e-05
3.96171e-06
4.50429e-05
4.50313e-05
4.51483e-05
4.50461e-05
4.49684e-05
4.50474e-05
4.49029e-05
4.4479e-05
4.51665e-05
4.44313e-05
4.45023e-05
4.45874e-05
4.51468e-05
4.51488e-05
4.44819e-05
4.49782e-05
4.49389e-05
4.48945e-05
4.51613e-05
4.45513e-05
4.42828e-05
4.51347e-05
4.51107e-05
4.50032e-05
3.94194e-05
4.51331e-05
4.47496e-05
4.50704e-05
4.44976e-05
4.51218e-05
4.43924e-05
4.46689e-05
4.51507e-05
4.43903e-05
4.46193e-05
4.49581e-05
4.50989e-05
4.51208e-05
4.37233e-05
4.43506e-05
4.45496e-05
4.45972e-05
4.51515e-05
4.49433e-05
4.50446e-05
4.46974e-05
4.45728e-05
4.49596e-05
4.48886e-05
4.49045e-05
4.48956e-05
4.44776e-05
4.46885e-05
4.42896e-05
4.53764e-06
4.51217e-05
4.50146e-05
4.51138e-05
4.27021e-06
3.93744e-06
4.47151e-05
3.79714e-06
3.49238e-06
4.4902e-05
4.37834e-05
4.51241e-05
4.51263e-05
4.49209e-05
4.51206e-05
4.47631e-05
4.49207e-05
4.50288e-05
4.51027e-05
4.47477e-05
4.51432e-05
4.49152e-05
4.49475e-05
4.47825e-05
4.48128e-05
4.47619e-06
4.84895e-06
2.69912e-05
4.48101e-05
4.45617e-05
4.50557e-05
4.4732e-05
4.48543e-05
4.48692e-05
4.51405e-05
4.50075e-05
4.35894e-05
4.46521e-05
4.38396e-05
4.47923e-05
4.53629e-05
4.46821e-05
4.50736e-05
4.49336e-05
4.68365e-06
4.49351e-05
4.37696e-05
4.4713e-05
4.46131e-05
4.48271e-05
4.47058e-05
5.11959e-06
4.50071e-05
4.51582e-05
4.41601e-05
4.47984e-05
5.43468e-06
5.02216e-06
4.42818e-05
4.47875e-05
2.7222e-06
2.49531e-06
2.66594e-05
4.51235e-05
4.44816e-05
4.48056e-05
5.70777e-06
4.42059e-05
4.51234e-05
4.44308e-05
4.49503e-05
4.49188e-05
5.57373e-06
6.02637e-06
4.50013e-05
6.29921e-06
4.47096e-05
4.47329e-05
4.42672e-05
4.47077e-05
6.46897e-06
6.89032e-06
4.50091e-05
6.6231e-06
6.13048e-06
4.50956e-05
7.48216e-06
6.68941e-06
7.22208e-06
6.31138e-06
6.81661e-06
4.39155e-05
8.07493e-06
4.51077e-05
7.248e-06
7.82061e-06
8.24484e-06
8.66673e-06
2.66419e-05
7.8052e-06
8.41782e-06
9.25816e-06
2.9419e-05
9.01152e-06
8.35888e-06
9.85069e-06
9.60524e-06
8.91283e-06
1.00202e-05
1.04436e-05
1.01974e-05
9.46523e-06
1.10359e-05
1.1629e-05
1.00201e-05
1.07924e-05
1.17982e-05
1.05755e-05
1.13875e-05
1.22211e-05
1.02113e-05
1.09955e-05
1.28137e-05
1.19858e-05
1.11339e-05
1.34066e-05
1.16952e-05
1.2587e-05
1.40001e-05
1.35755e-05
1.31873e-05
1.22555e-05
1.27801e-05
1.18759e-05
1.45928e-05
1.28142e-05
1.3786e-05
1.43851e-05
1.33734e-05
1.51837e-05
1.49805e-05
1.39288e-05
1.57729e-05
1.5577e-05
1.44854e-05
1.63668e-05
1.50421e-05
1.61736e-05
1.47531e-05
8.23988e-06
2.81291e-05
2.94994e-05
2.69736e-05
2.45701e-05
2.63332e-05
3.69844e-06
3.40866e-06
1.39169e-05
1.49673e-05
7.80683e-06
7.23552e-06
1.65416e-05
2.69275e-05
2.51525e-05
1.17923e-05
2.42689e-05
1.56002e-05
2.77684e-05
1.67722e-05
4.71967e-06
2.86923e-05
2.07246e-05
1.89465e-05
1.47438e-06
1.33366e-06
2.57281e-05
3.02731e-06
1.357e-05
1.31752e-05
1.22445e-05
2.45246e-05
2.28443e-05
2.63148e-05
1.69586e-05
2.1531e-05
2.00363e-05
3.3804e-05
2.33265e-05
2.17074e-05
8.34647e-06
1.00144e-05
1.13846e-05
1.05738e-05
8.99765e-06
1.67607e-05
1.55907e-05
2.75273e-05
5.44022e-06
5.02951e-06
2.59897e-05
6.4707e-06
2.90996e-05
3.10206e-05
6.62015e-06
6.12894e-06
3.04797e-05
2.5878e-06
2.37677e-06
2.94333e-05
1.01898e-05
9.45873e-06
3.28807e-05
2.57372e-05
2.17299e-05
2.25022e-05
2.3336e-05
2.27388e-05
2.11678e-05
2.65836e-05
1.97967e-05
1.84239e-05
2.39318e-05
2.34697e-05
1.59376e-05
2.51355e-05
2.45316e-05
2.90321e-05
2.28798e-05
2.22969e-05
2.11095e-05
1.61565e-05
1.83051e-05
2.91684e-05
2.34255e-05
1.7122e-05
1.95004e-05
2.28653e-05
2.52502e-05
2.05175e-05
1.9925e-05
2.58413e-05
2.39865e-05
1.67143e-05
1.85635e-05
1.79656e-05
2.22904e-05
1.91627e-05
1.97596e-05
1.73679e-05
1.89447e-05
2.36335e-05
2.06104e-05
1.78318e-05
2.17e-05
2.46597e-05
1.87415e-05
2.90548e-05
2.81721e-05
1.72726e-05
2.72569e-05
2.4065e-05
2.54143e-05
2.03559e-05
2.00834e-05
1.79511e-05
1.67012e-05
2.09518e-05
2.63348e-05
1.93329e-05
2.18552e-05
2.81038e-05
2.21419e-05
1.97414e-05
1.83716e-05
1.83883e-05
2.86577e-05
1.75532e-05
2.0054e-05
2.75235e-05
1.81469e-05
2.63499e-05
2.45673e-05
2.92584e-05
2.69302e-05
2.5912e-05
2.15463e-05
2.88342e-05
2.75001e-05
2.89608e-05
2.76728e-05
2.64193e-05
2.45425e-05
4.4665e-05
2.53189e-05
2.56701e-05
2.50882e-05
2.6135e-05
4.48427e-05
4.49651e-05
4.48447e-05
2.73079e-05
4.50012e-05
4.51213e-05
4.47984e-05
2.41674e-05
4.48206e-05
4.47665e-05
4.50867e-05
4.49489e-05
4.49977e-05
2.85107e-05
4.44928e-05
2.54201e-05
4.47662e-05
4.4887e-05
4.47627e-05
4.44057e-05
4.45783e-05
4.32994e-05
2.4748e-05
2.79672e-05
4.48176e-05
4.46062e-05
2.76336e-05
4.48648e-05
4.47384e-05
2.48469e-05
4.49262e-05
4.46606e-05
4.51223e-05
4.51192e-05
4.51261e-05
4.49334e-05
4.47198e-05
4.49876e-05
4.49733e-05
4.299e-05
4.47317e-05
4.46935e-05
4.50045e-05
4.37834e-05
2.20157e-05
2.04912e-05
4.4934e-05
4.49906e-05
4.52333e-05
4.50928e-05
2.69966e-05
4.45902e-05
4.50473e-05
4.46258e-05
4.45068e-05
4.51377e-05
4.3963e-05
4.49752e-05
4.45483e-05
4.48782e-05
4.48591e-05
4.45693e-05
4.49025e-05
4.42682e-05
4.50998e-05
4.49112e-05
4.5104e-05
4.48318e-05
4.46824e-05
4.45206e-05
4.48534e-05
4.49564e-05
4.48434e-05
4.50192e-05
4.50936e-05
4.49852e-05
4.50191e-05
4.50575e-05
4.49897e-05
4.42688e-05
4.4848e-05
4.50149e-05
4.49032e-05
2.51471e-05
2.34477e-05
4.50516e-05
4.48989e-05
4.45131e-05
4.48616e-05
4.48739e-05
4.4964e-05
4.4993e-05
4.50517e-05
4.4848e-05
4.50508e-05
2.48428e-05
4.48249e-05
4.50954e-05
4.47817e-05
4.50101e-05
4.41662e-05
4.51267e-05
4.41753e-05
4.48328e-05
4.49955e-05
4.46293e-05
4.47562e-05
4.51092e-05
4.45566e-05
4.45269e-05
4.49856e-05
4.51043e-05
4.48557e-05
4.50678e-05
4.5105e-05
4.51405e-05
3.00411e-05
4.50836e-05
4.51548e-05
4.51436e-05
4.50689e-05
4.49588e-05
4.49471e-05
4.50055e-05
4.49434e-05
4.51483e-05
4.51052e-05
4.50864e-05
4.4888e-05
4.496e-05
4.51617e-05
4.51331e-05
4.51234e-05
4.51032e-05
4.48771e-05
4.51367e-05
4.51008e-05
4.5129e-05
4.48197e-05
4.44896e-05
4.49907e-05
4.50177e-05
2.02219e-05
1.88209e-05
4.50947e-05
4.51404e-05
4.49808e-05
4.49361e-05
4.47519e-05
4.49866e-05
2.47159e-05
2.30307e-05
4.50568e-05
4.38775e-05
4.48812e-05
2.96297e-05
4.51043e-05
4.48967e-05
2.57527e-05
2.40125e-05
1.40347e-06
4.50271e-05
4.48885e-05
4.48995e-05
4.51483e-05
4.51372e-05
4.50157e-05
4.5017e-05
4.51269e-05
4.50045e-05
4.50924e-05
4.48947e-05
4.51161e-05
4.51718e-05
4.43693e-05
4.49943e-05
4.50439e-05
4.49775e-05
4.49453e-05
4.51358e-05
4.49713e-05
4.49661e-05
4.50445e-05
4.51335e-05
4.5016e-05
4.5119e-05
4.51364e-05
4.51333e-05
4.45801e-05
4.51313e-05
4.45393e-05
4.51439e-05
4.51017e-05
4.42536e-05
4.40346e-05
4.51024e-05
4.51471e-05
4.50049e-05
4.50241e-05
4.51405e-05
4.48533e-05
4.51386e-05
4.44562e-05
4.51115e-05
4.4984e-05
4.48543e-05
4.45593e-05
4.51031e-05
4.50102e-05
4.51443e-05
4.49849e-05
2.39663e-05
2.23275e-05
4.48847e-05
4.50245e-05
4.50637e-05
1.84318e-05
1.71501e-05
4.42678e-05
2.36845e-05
4.49204e-05
4.51155e-05
4.51423e-05
4.49446e-05
4.50578e-05
4.51344e-05
4.50754e-05
4.48465e-05
4.50632e-05
4.48707e-05
4.51182e-05
4.50864e-05
4.50845e-05
2.42494e-05
4.50408e-05
4.50898e-05
4.49312e-05
4.51481e-05
4.43276e-05
4.50835e-05
4.50484e-05
4.51598e-05
4.49613e-05
4.39278e-05
4.49475e-05
4.3627e-05
4.47996e-05
4.49368e-05
4.50085e-05
4.50271e-05
4.50995e-05
4.50939e-05
4.50333e-05
4.51199e-05
4.47061e-05
4.50371e-05
4.47546e-05
4.50864e-05
4.51317e-05
4.51493e-05
4.49208e-05
4.51399e-05
4.51364e-05
4.50089e-05
4.49561e-05
4.51634e-05
4.5053e-05
4.50295e-05
4.51419e-05
4.49097e-05
4.48509e-05
2.58904e-05
4.51235e-05
4.51123e-05
4.5068e-05
4.51376e-05
4.51081e-05
4.48164e-05
4.49002e-05
4.48547e-05
4.51268e-05
4.50638e-05
4.51087e-05
4.46131e-05
4.51295e-05
4.47607e-05
4.5088e-05
4.49845e-05
4.51234e-05
4.51081e-05
4.51077e-05
4.49845e-05
4.49806e-05
4.49872e-05
4.5127e-05
4.49954e-05
4.49915e-05
4.46908e-05
4.4436e-05
4.51156e-05
4.50891e-05
4.49986e-05
4.50645e-05
4.48212e-05
4.40565e-05
2.35199e-05
2.19083e-05
4.5076e-05
4.50403e-05
2.3065e-05
4.50863e-05
4.47919e-05
4.51543e-05
4.49739e-05
4.51458e-05
4.50692e-05
4.51233e-05
4.5009e-05
2.53135e-05
2.35944e-05
4.51548e-05
4.51276e-05
4.50563e-05
4.50143e-05
4.51334e-05
4.51443e-05
4.50591e-05
4.5049e-05
4.50554e-05
4.50859e-05
4.49677e-05
2.36586e-05
4.50361e-05
4.5093e-05
4.50726e-05
4.51254e-05
4.49534e-05
4.51488e-05
4.41493e-05
4.51256e-05
4.50739e-05
3.26849e-05
4.51445e-05
4.49872e-05
4.51496e-05
4.50844e-05
4.49894e-05
4.45185e-05
4.51527e-05
4.51406e-05
4.4961e-05
4.51605e-05
4.43458e-05
4.5123e-05
4.50851e-05
4.50012e-05
4.50774e-05
4.49797e-05
4.5131e-05
4.51162e-05
4.50782e-05
4.47756e-05
4.50125e-05
4.51151e-05
4.5151e-05
4.50471e-05
4.42662e-05
4.49134e-05
4.51643e-05
4.50213e-05
4.46521e-05
4.50419e-05
4.514e-05
4.51546e-05
4.51379e-05
4.51574e-05
4.51081e-05
4.49363e-05
4.50511e-05
4.51331e-05
4.50763e-05
4.51498e-05
4.51604e-05
4.51219e-05
4.4973e-05
4.50171e-05
4.51304e-05
4.5148e-05
4.51594e-05
4.51579e-05
4.49871e-05
4.49616e-05
4.50406e-05
4.48688e-05
4.51432e-05
4.51355e-05
4.51215e-05
4.5126e-05
4.51023e-05
4.48798e-05
4.4994e-05
4.51532e-05
4.48114e-05
4.5118e-05
2.2777e-05
2.12109e-05
4.51204e-05
4.51096e-05
4.5047e-05
2.40878e-05
4.49108e-05
4.51005e-05
1.54496e-05
1.43676e-05
4.51147e-05
4.49994e-05
4.51284e-05
4.50584e-05
4.50445e-05
4.51055e-05
4.49077e-05
4.50268e-05
4.50201e-05
4.49746e-05
4.48932e-05
4.5035e-05
4.50833e-05
4.50586e-05
4.48673e-05
4.48904e-05
4.515e-05
4.43923e-05
4.50307e-05
4.46973e-05
4.46381e-05
4.42118e-05
4.49258e-05
4.46645e-05
4.51068e-05
4.49366e-05
4.46866e-05
4.42817e-05
4.50641e-05
4.50358e-05
4.51426e-05
4.51107e-05
4.50528e-05
4.44298e-05
4.49605e-05
4.50705e-05
4.51544e-05
4.51183e-05
4.49989e-05
4.51114e-05
4.5043e-05
4.50832e-05
4.51081e-05
4.48364e-05
4.48307e-05
4.51072e-05
4.41412e-05
4.50133e-05
4.50891e-05
4.46679e-05
4.40541e-05
4.48e-05
5.14652e-06
4.44643e-05
4.5162e-05
4.51117e-05
2.23242e-05
2.07835e-05
4.51512e-05
2.19088e-05
4.50755e-05
4.41821e-05
4.51007e-05
4.50461e-05
4.51503e-05
4.50586e-05
4.50419e-05
2.45594e-05
2.28879e-05
4.50135e-05
4.50111e-05
1.36576e-05
1.26951e-05
4.50925e-05
4.51268e-05
4.50412e-05
4.39784e-05
4.51586e-05
4.50617e-05
4.42897e-05
4.50891e-05
4.51602e-05
2.30944e-05
4.42461e-05
4.50716e-05
4.5075e-05
4.51316e-05
2.23016e-05
4.50821e-05
6.90554e-06
4.51529e-05
4.44524e-05
4.48742e-05
4.51214e-05
4.50138e-05
4.48295e-05
4.4907e-05
4.51152e-05
4.51062e-05
4.50967e-05
4.5091e-05
4.46954e-05
4.50741e-05
4.50938e-05
4.51284e-05
4.50759e-05
4.49382e-05
4.51317e-05
4.51421e-05
8.67763e-06
4.50342e-05
4.49439e-05
4.5143e-05
4.49973e-05
4.51514e-05
2.15824e-05
2.00932e-05
2.12829e-05
4.51045e-05
4.50781e-05
4.50286e-05
3.42695e-06
4.49494e-05
4.51425e-05
4.51382e-05
4.50882e-05
1.18699e-05
1.1027e-05
4.51509e-05
4.51257e-05
1.04524e-05
4.50888e-05
4.49827e-05
4.51295e-05
-5.02383e-08
-7.928e-08
-5.77886e-08
4.50011e-05
4.51456e-05
4.51094e-05
4.43506e-05
4.50667e-05
4.49671e-05
4.51041e-05
4.44944e-05
3.00887e-05
4.49588e-05
4.48505e-05
2.05229e-05
4.48953e-05
4.39392e-05
4.49993e-05
4.51235e-05
4.51033e-05
4.5127e-05
4.45995e-05
4.50287e-05
1.52879e-06
1.41604e-06
1.22285e-05
4.50714e-05
4.50339e-05
3.0727e-05
4.5034e-05
4.50326e-05
4.50904e-05
4.51256e-05
4.5083e-05
2.11289e-05
1.96668e-05
4.50656e-05
4.51049e-05
4.50396e-05
4.50949e-05
4.50565e-05
4.50654e-05
4.5067e-05
2.41177e-05
2.24726e-05
4.48926e-05
4.51239e-05
4.50849e-05
4.51501e-05
4.50531e-05
4.51543e-05
4.51254e-05
4.50996e-05
4.50492e-05
4.45145e-05
4.5143e-05
4.51188e-05
4.48776e-05
4.5023e-05
4.50073e-05
4.5051e-05
4.49813e-05
1.87476e-05
4.51545e-05
3.83387e-06
4.15526e-06
4.50432e-05
2.01326e-05
2.03924e-05
1.89801e-05
4.49079e-05
4.50916e-05
4.46716e-05
4.503e-05
4.51016e-05
4.50523e-05
4.49302e-05
4.50708e-05
4.50676e-05
4.51622e-05
4.4729e-05
4.51448e-05
4.49493e-05
4.50979e-05
2.24692e-05
4.50069e-05
4.43719e-05
4.51036e-05
4.47248e-05
4.51449e-05
4.50202e-05
4.48015e-05
4.50637e-05
4.51163e-05
2.19858e-06
2.00882e-06
4.44138e-05
1.95071e-05
4.4618e-05
4.507e-05
4.51593e-05
4.49357e-05
4.50835e-05
4.50016e-05
4.51121e-05
4.51526e-05
2.33782e-05
2.17742e-05
2.1875e-05
4.49441e-05
4.51482e-05
4.50741e-05
4.51563e-05
4.43087e-05
4.51111e-05
4.50784e-05
4.5154e-05
4.50701e-05
4.50574e-05
4.49841e-05
4.43017e-05
1.9339e-05
1.79972e-05
4.51491e-05
4.5107e-05
4.51074e-05
4.50498e-05
4.50751e-05
4.50096e-05
4.50709e-05
4.5164e-05
4.51139e-05
4.51049e-05
4.49082e-05
4.51104e-05
4.50206e-05
1.83538e-05
4.50861e-05
1.85941e-05
1.73008e-05
4.49988e-05
4.42647e-05
4.50016e-05
4.50962e-05
4.51684e-05
4.51533e-05
4.50763e-05
2.29219e-05
2.13442e-05
2.13157e-05
4.5101e-05
4.50947e-05
1.77269e-05
1.8145e-05
1.68824e-05
4.45737e-05
4.50021e-05
4.49882e-05
4.49975e-05
4.49786e-05
4.50983e-05
4.51057e-05
4.50251e-05
4.50968e-05
4.38741e-05
1.71701e-05
4.49224e-05
4.51541e-05
4.51073e-05
1.74031e-05
1.61895e-05
4.51442e-05
4.51073e-05
4.51078e-05
2.21827e-05
2.06552e-05
4.37595e-05
4.49783e-05
4.37027e-05
4.50148e-05
4.38917e-05
4.39752e-05
4.45144e-05
4.51589e-05
1.69528e-05
1.57697e-05
2.96006e-05
2.06905e-05
4.39415e-05
4.51443e-05
1.59517e-05
1.62096e-05
1.50762e-05
2.33328e-05
2.50145e-05
2.50528e-05
2.6826e-05
2.00985e-05
2.17266e-05
2.02256e-05
4.51496e-05
4.4549e-05
4.50073e-05
2.85233e-05
4.50158e-05
4.51219e-05
1.53935e-05
1.57582e-05
1.46554e-05
4.51557e-05
4.50861e-05
4.5079e-05
4.15689e-05
3.39884e-05
4.51624e-05
4.4997e-05
4.51549e-05
2.18116e-06
1.47618e-05
4.50161e-05
1.50171e-05
1.39637e-05
4.50789e-05
4.40233e-05
4.51056e-05
1.9539e-05
2.09888e-05
1.95371e-05
1.42089e-05
4.27493e-05
1.45639e-05
1.35408e-05
4.48136e-05
4.49936e-05
4.50872e-05
4.50254e-05
4.4207e-05
4.50001e-05
4.51502e-05
4.5088e-05
4.51118e-05
1.38236e-05
1.28498e-05
4.48676e-05
4.50582e-05
3.48107e-05
4.51597e-05
2.05299e-05
1.91078e-05
4.47416e-05
4.22317e-05
1.29841e-05
1.33706e-05
1.24274e-05
4.49734e-05
4.51342e-05
4.51668e-05
4.51286e-05
4.51618e-05
4.49589e-05
4.3841e-05
4.48686e-05
4.50428e-05
1.89134e-05
4.50807e-05
4.51556e-05
1.24315e-05
4.51602e-05
4.50954e-05
1.96719e-06
4.50503e-05
4.50568e-05
4.50102e-05
4.50976e-05
4.50775e-05
4.50684e-05
2.8769e-05
1.8319e-05
4.51409e-05
4.50935e-05
1.99286e-05
1.8547e-05
4.37599e-05
4.51183e-05
4.5062e-05
4.51363e-05
1.20265e-05
1.11722e-05
4.5065e-05
4.49929e-05
4.51387e-05
4.5116e-05
4.50378e-05
4.50809e-05
4.50329e-05
4.49946e-05
4.51524e-05
1.12075e-05
4.46482e-05
3.19266e-05
1.15866e-05
1.07629e-05
2.95006e-05
4.5067e-05
3.7017e-05
4.50254e-05
4.41747e-05
4.41497e-05
1.77605e-05
1.06524e-05
1.92073e-05
1.7875e-05
4.24903e-05
4.51591e-05
4.46698e-05
4.51151e-05
4.49958e-05
4.51076e-05
1.02335e-05
9.49908e-06
4.4995e-05
4.45663e-05
4.50921e-05
4.51546e-05
4.50537e-05
9.43017e-06
4.49943e-05
1.71328e-05
9.79553e-06
9.09148e-06
1.87406e-05
1.7438e-05
4.50047e-05
4.5143e-05
4.51411e-05
4.50396e-05
8.87577e-06
4.50934e-05
9.04816e-06
8.39367e-06
4.50653e-05
4.50035e-05
4.51359e-05
4.50878e-05
4.50514e-05
8.59894e-06
7.97502e-06
1.80003e-05
1.67465e-05
4.51598e-05
4.50223e-05
4.49853e-05
4.51598e-05
7.65449e-06
4.5088e-05
7.85227e-06
7.27771e-06
4.50568e-05
1.65766e-05
4.51767e-05
4.51073e-05
4.51104e-05
4.50565e-05
4.50495e-05
4.51563e-05
7.09403e-06
7.40673e-06
6.86235e-06
4.51169e-05
1.59824e-05
4.49289e-05
4.51234e-05
1.75468e-05
1.63239e-05
4.50721e-05
4.50374e-05
4.50039e-05
5.87739e-06
4.4793e-05
6.04333e-06
5.5877e-06
1.53561e-05
1.68127e-05
1.56393e-05
2.39114e-05
2.56168e-05
4.50147e-05
5.61087e-06
5.18639e-06
4.47404e-05
5.30196e-06
4.44037e-05
4.51129e-05
2.56345e-05
2.7419e-05
4.50457e-05
3.05682e-05
4.31518e-05
4.41372e-05
4.83474e-06
4.45854e-06
2.89609e-05
4.03376e-05
4.51039e-05
4.49945e-05
4.50232e-05
4.50465e-05
1.48001e-05
2.62825e-06
2.40665e-06
4.50933e-05
1.63542e-05
1.52122e-05
4.39657e-06
4.05319e-06
4.51139e-05
4.49847e-05
4.50341e-05
4.49905e-05
4.51073e-05
4.08577e-06
1.41673e-05
4.50529e-05
4.5095e-05
1.56177e-05
1.45241e-05
4.51623e-05
4.50344e-05
4.50951e-05
4.50755e-05
2.88001e-06
2.62011e-06
4.48902e-05
4.50924e-05
4.50735e-05
4.50345e-05
4.50315e-05
4.5096e-05
4.49391e-05
1.51604e-05
1.40974e-05
4.46091e-05
4.51165e-05
4.50291e-05
4.33318e-05
4.44318e-05
1.36151e-05
4.51207e-05
4.51637e-05
1.30199e-05
2.89253e-05
3.4439e-06
2.79144e-05
1.44222e-05
1.34083e-05
4.50741e-05
1.34839e-06
4.5138e-05
4.21514e-05
4.49255e-05
4.31722e-05
4.51676e-05
1.23898e-05
4.50056e-05
1.39657e-05
1.29825e-05
4.50475e-05
2.71944e-05
4.50676e-05
1.32257e-05
1.22915e-05
4.40734e-05
4.00743e-05
4.50665e-05
1.18391e-05
4.50932e-05
1.12429e-05
1.16211e-06
9.71665e-07
4.48787e-05
4.49674e-05
1.26332e-05
1.17397e-05
4.50697e-05
4.50679e-05
4.5081e-05
4.50275e-05
4.50559e-05
4.51542e-05
1.06124e-05
4.50531e-05
1.21818e-05
1.13176e-05
4.3564e-05
4.51547e-05
4.51155e-05
4.51194e-05
4.51009e-05
4.50919e-05
4.5098e-05
1.14306e-05
1.06159e-05
4.51109e-05
1.006e-05
4.50836e-05
4.51256e-05
1.83058e-06
9.46534e-06
4.46902e-05
1.08443e-05
1.00709e-05
4.46222e-05
4.40787e-05
4.48687e-05
4.51245e-05
4.51182e-05
4.50957e-05
4.50648e-05
8.83685e-06
4.49249e-05
4.43798e-05
1.03934e-05
9.64915e-06
4.2261e-05
4.81849e-05
4.47745e-05
4.52431e-05
4.46581e-05
4.50258e-05
9.64408e-06
8.94924e-06
4.50541e-05
4.46594e-05
8.28248e-06
4.50224e-05
4.47243e-05
4.47403e-05
7.68551e-06
9.19545e-06
8.53156e-06
2.8234e-05
4.49061e-05
4.49058e-05
4.51751e-05
4.47323e-05
4.51026e-05
2.71107e-05
3.60396e-05
4.5114e-05
4.50067e-05
7.06037e-06
8.4545e-06
7.83989e-06
4.51643e-05
4.5006e-05
4.51449e-05
4.51588e-05
4.50995e-05
4.49916e-05
4.5038e-05
7.99985e-06
7.41655e-06
4.31279e-05
4.02238e-05
6.50029e-06
4.39676e-05
4.49348e-05
4.47857e-05
4.51162e-05
3.58801e-05
5.89833e-06
4.50622e-05
7.25284e-06
6.71831e-06
4.48051e-05
4.51207e-05
5.28049e-06
6.66046e-06
6.16658e-06
4.50016e-05
3.48499e-05
4.24784e-05
4.50185e-05
4.50713e-05
4.51368e-05
6.21386e-06
5.74873e-06
2.64803e-05
4.50558e-05
4.47803e-05
4.51574e-05
4.49736e-05
4.69397e-06
4.47534e-05
5.44552e-06
5.02917e-06
4.51262e-05
4.50145e-05
4.0749e-06
4.48285e-05
4.50773e-05
3.07064e-05
5.00687e-06
4.62283e-06
4.50641e-05
4.515e-05
4.47867e-05
3.48972e-06
4.47341e-05
1.26378e-06
1.2492e-06
1.35971e-06
4.46613e-05
4.21866e-06
3.88215e-06
2.56785e-05
4.50034e-05
4.49516e-05
4.51089e-05
4.47249e-05
4.50647e-05
4.50881e-05
4.49675e-05
3.58591e-06
3.28958e-06
4.4938e-05
4.35935e-05
4.49503e-05
3.67224e-05
3.20135e-06
2.93794e-06
4.49257e-05
4.50174e-05
2.91527e-05
4.49868e-05
4.49555e-05
4.49648e-05
4.48273e-05
3.28056e-05
4.48733e-05
4.00168e-05
4.49963e-05
2.74546e-05
4.51137e-05
4.5005e-05
4.48851e-05
4.51636e-05
4.31219e-05
4.16008e-05
4.26386e-05
3.96797e-05
4.47436e-05
4.5118e-05
2.80209e-06
4.49443e-05
4.50053e-05
2.22655e-06
2.00632e-06
2.92248e-05
1.40581e-06
4.50329e-05
4.15625e-05
4.51601e-05
4.46931e-05
4.51815e-05
4.4896e-05
4.30022e-05
2.7745e-05
4.51586e-05
4.49202e-05
4.4553e-05
4.4349e-05
4.50037e-05
4.51065e-05
4.51415e-05
3.08039e-05
2.04402e-06
2.98384e-05
4.34394e-05
4.49336e-05
1.62785e-06
8.02364e-07
9.47637e-07
4.50892e-05
4.51344e-05
4.48974e-05
4.51418e-05
4.4733e-05
2.89377e-05
1.55244e-06
1.61931e-06