/*--------------------------------*- C++ -*----------------------------------*\
  =========                 |
  \\      /  F ield         | OpenFOAM: The Open Source CFD Toolbox
   \\    /   O peration     | Website:  https://openfoam.org
    \\  /    A nd           | Version:  8
     \\/     M anipulation  |
\*---------------------------------------------------------------------------*/
FoamFile
{
    version     2.0;
    format      ascii;
    class       volScalarField;
    location    "4.8";
    object      p;
}
// * * * * * * * * * * * * * * * * * * * * * * * * * * * * * * * * * * * * * //

dimensions      [0 2 -2 0 0 0 0];

internalField   nonuniform List<scalar> 
7843
(
2.1704e-06
6.57658e-06
7.02887e-06
8.83589e-06
1.59974e-06
8.87334e-06
8.374e-06
1.25106e-06
8.62725e-06
2.00535e-06
5.03302e-06
2.1044e-06
8.62961e-06
5.2867e-06
3.95377e-06
4.79973e-06
4.94266e-06
4.02697e-06
8.65045e-06
8.48774e-06
8.61266e-06
8.44103e-06
5.1187e-06
7.80812e-06
4.04129e-06
8.61034e-06
2.95489e-07
8.48303e-06
8.72524e-07
8.76928e-06
8.60665e-06
2.65482e-06
8.63448e-06
1.41083e-06
4.74111e-06
4.48241e-06
3.68563e-06
8.45353e-06
8.73967e-06
7.22077e-06
3.86866e-06
5.61928e-06
1.64701e-06
6.47689e-06
8.62688e-06
8.40294e-06
5.20139e-06
8.2351e-06
7.03182e-06
8.63574e-06
8.63233e-06
6.3807e-06
2.98764e-06
8.35879e-06
1.82603e-06
8.64495e-06
8.35221e-06
8.63105e-06
7.17993e-07
8.61782e-06
1.4662e-06
8.32379e-06
8.28996e-06
8.63709e-06
4.33015e-07
4.73677e-06
4.7303e-06
8.64189e-06
8.38737e-06
1.3728e-06
8.62118e-06
2.78958e-06
7.37712e-06
8.62126e-06
8.62693e-06
4.46825e-06
1.73475e-06
1.55682e-06
2.34219e-06
8.96513e-06
8.64931e-06
6.47749e-07
5.3679e-06
8.53323e-06
2.00372e-06
2.15982e-06
8.50197e-06
9.13232e-07
8.52131e-06
8.40053e-06
8.61354e-06
5.90346e-06
8.63933e-06
8.61104e-06
8.51629e-06
2.54032e-06
8.64073e-06
2.64263e-07
8.62529e-06
4.57177e-06
3.35462e-07
3.10485e-07
8.46914e-06
5.26161e-07
8.59733e-06
7.64114e-06
8.63878e-06
8.60507e-06
7.67244e-06
6.09845e-06
8.42923e-07
8.28635e-06
8.33149e-06
2.40291e-06
8.53758e-06
7.37275e-06
8.52672e-06
1.28956e-06
8.59262e-06
6.17685e-06
1.68899e-06
1.33538e-06
5.46064e-06
1.43228e-06
8.63592e-06
8.2866e-06
5.6984e-06
7.93447e-06
7.70584e-06
8.86305e-06
5.99515e-06
8.47693e-06
8.59828e-06
1.71904e-06
7.25631e-06
3.592e-06
8.75351e-06
8.17298e-06
3.77876e-06
1.00587e-06
8.62816e-06
7.85884e-06
8.56599e-06
8.57467e-06
8.63971e-06
8.65169e-06
5.5179e-06
7.36597e-06
8.02494e-06
7.98923e-06
2.15291e-06
8.35119e-06
8.59986e-06
6.44139e-06
5.00091e-06
4.91963e-06
8.57354e-06
8.46865e-06
6.80944e-06
3.08944e-06
8.6253e-06
5.10529e-06
8.11711e-06
5.28943e-06
6.50557e-06
1.15818e-06
8.54395e-06
1.45767e-07
2.90721e-06
5.47533e-06
9.65867e-07
6.21995e-06
5.66145e-06
8.5232e-06
5.9406e-06
8.62538e-06
7.50722e-07
8.6283e-06
5.20455e-06
2.02005e-06
1.9268e-06
1.66077e-06
8.61068e-06
6.91837e-06
4.99947e-06
8.32078e-06
8.63779e-06
8.26237e-06
2.48243e-06
8.38786e-06
2.69713e-06
2.88204e-06
8.6704e-06
8.63504e-06
5.79333e-06
8.62828e-06
8.61485e-06
8.50086e-06
1.09658e-06
7.46593e-06
6.28605e-06
8.17613e-07
5.8122e-06
2.23875e-06
5.48797e-07
8.62993e-06
6.10962e-07
8.62942e-06
8.60888e-06
6.26607e-06
8.10167e-06
6.19224e-06
7.64187e-06
3.93956e-06
5.27356e-06
7.5552e-06
8.5734e-06
2.2549e-06
8.62854e-06
8.37581e-06
8.51621e-06
8.37499e-06
1.67615e-07
6.604e-06
8.19378e-06
8.6194e-06
8.212e-06
4.64348e-06
6.70505e-06
8.32055e-06
8.20771e-06
8.63774e-06
8.6348e-06
1.85529e-06
8.43442e-06
5.36495e-06
2.00702e-06
8.02392e-06
4.91033e-06
3.26303e-07
2.21995e-06
3.40816e-06
2.12702e-06
3.71397e-06
8.27835e-06
5.11338e-06
8.68393e-06
8.47382e-06
5.82031e-06
4.91872e-06
8.85888e-06
8.63326e-06
2.38633e-06
5.54808e-06
7.00266e-06
2.3693e-06
8.15469e-06
5.45619e-06
3.83234e-07
8.63197e-06
8.64625e-06
8.41613e-06
3.62174e-07
5.82299e-06
2.09824e-06
8.28269e-06
8.63102e-06
6.31391e-06
8.63401e-06
8.02469e-06
8.63824e-06
8.63627e-06
8.58614e-06
8.04012e-06
6.0998e-06
8.51384e-06
2.6132e-06
1.82904e-06
8.32576e-06
5.87098e-06
1.0187e-06
5.63972e-06
6.08614e-06
8.52066e-06
8.67098e-06
8.62643e-06
8.40996e-06
5.81311e-06
8.42409e-07
6.52562e-06
8.63256e-06
8.59919e-06
8.68409e-06
2.05427e-06
8.2927e-06
3.10753e-06
3.41931e-06
8.3847e-06
7.98579e-06
6.77709e-06
8.09624e-06
8.44196e-06
3.32091e-06
2.97606e-06
8.55143e-06
8.32031e-06
8.63189e-06
7.45033e-06
8.33584e-06
8.25876e-06
8.31654e-06
7.9817e-06
8.54645e-06
8.63429e-06
8.62785e-06
8.51246e-06
6.409e-06
5.38619e-06
8.58237e-06
3.43251e-06
8.62399e-06
8.62707e-06
6.03344e-06
5.91475e-06
8.3677e-06
8.10127e-06
8.67082e-06
8.5559e-06
8.17235e-06
8.62392e-06
3.16455e-06
5.73135e-06
8.71336e-06
8.67153e-06
7.96881e-06
8.40404e-06
3.62666e-07
3.13261e-06
7.4359e-06
8.42515e-06
8.36839e-06
2.78662e-06
8.62524e-06
3.85659e-07
8.21583e-06
3.65557e-07
3.04813e-06
8.50685e-06
8.32353e-06
2.80152e-07
8.76797e-06
2.99127e-06
8.62654e-06
8.63345e-06
2.5131e-06
8.62858e-06
8.3598e-06
8.33087e-06
2.51858e-06
6.35441e-06
8.97921e-06
6.19302e-06
8.29808e-06
9.26106e-06
8.76382e-06
2.89435e-06
6.90301e-06
8.49558e-06
8.53548e-06
6.66663e-06
6.65885e-06
8.62067e-06
2.31421e-06
8.4125e-06
1.58087e-06
8.76514e-06
5.75427e-06
5.17431e-06
5.18036e-06
8.94865e-06
5.97333e-06
8.48878e-06
8.72545e-06
8.37388e-06
4.91076e-07
2.89004e-06
5.1804e-06
8.61576e-06
2.54736e-07
3.8636e-06
5.08665e-06
8.5739e-06
8.56642e-06
8.61385e-06
8.32377e-06
3.25926e-06
8.63182e-06
8.05799e-06
8.60439e-06
1.55513e-06
1.9583e-06
8.62797e-06
8.6178e-06
6.40334e-08
6.93603e-06
6.83565e-06
6.38119e-06
7.07456e-06
8.62468e-06
8.18284e-06
8.42868e-06
2.59717e-06
7.34346e-06
8.56799e-06
7.19642e-06
8.65166e-06
8.63012e-06
7.01264e-06
6.00696e-06
6.12656e-06
8.52505e-06
8.28162e-06
8.62002e-06
2.615e-06
2.26165e-07
1.75853e-07
8.40575e-06
2.64119e-07
8.65491e-06
8.3175e-06
8.64374e-06
8.6303e-06
2.80192e-06
8.6381e-06
7.51768e-06
8.08128e-06
8.57063e-06
6.6996e-06
3.54428e-06
8.63126e-06
2.26196e-06
8.57013e-06
8.54191e-06
8.62385e-06
7.12335e-06
8.4576e-06
8.29939e-06
7.67579e-06
8.59779e-06
7.0475e-06
1.12075e-06
1.06237e-06
8.39785e-06
8.42634e-06
8.41764e-06
3.27738e-06
2.87145e-06
8.5472e-06
7.34549e-06
8.62829e-06
8.46198e-06
7.66011e-07
2.48918e-07
2.14068e-07
8.46123e-06
3.19477e-07
8.41751e-06
8.35594e-06
8.60966e-06
8.15983e-06
3.33928e-06
9.34273e-07
8.61854e-06
8.64059e-06
8.43246e-06
2.43228e-06
7.07604e-06
8.62756e-06
8.19087e-06
6.60707e-06
8.23595e-06
8.49208e-06
8.59522e-06
8.58329e-06
8.20199e-06
8.41652e-06
3.14989e-06
7.2824e-06
8.03526e-08
6.78948e-07
5.61143e-06
7.24344e-06
8.62877e-06
2.53454e-06
8.52918e-06
8.86799e-06
8.49197e-08
7.91629e-08
8.53342e-06
8.62477e-06
3.49855e-06
8.62235e-06
1.30487e-06
7.80588e-06
2.60701e-06
1.67275e-06
1.21311e-06
8.62253e-06
2.69976e-06
7.35392e-06
8.62908e-06
8.7528e-06
3.63969e-06
3.33861e-06
8.27966e-06
6.75488e-06
8.13164e-06
8.63002e-06
8.59507e-06
8.25577e-06
7.62191e-06
7.9546e-06
2.61962e-06
6.2868e-06
8.42159e-06
7.2825e-06
6.56038e-06
8.55779e-06
8.02385e-06
8.49832e-06
8.60859e-06
8.62748e-06
5.91238e-06
8.61867e-06
8.51207e-06
8.38416e-06
8.53204e-06
8.62852e-06
6.27804e-06
8.51158e-06
2.51556e-06
8.6074e-06
6.18314e-06
5.31812e-07
6.80557e-06
8.48339e-06
7.49984e-07
2.63608e-06
4.54643e-06
5.84751e-06
8.58429e-06
6.8313e-06
8.65324e-06
8.4811e-06
8.33171e-06
6.00467e-06
7.48591e-06
8.18399e-06
8.63544e-06
1.94488e-06
7.49043e-06
6.28393e-06
6.91846e-06
5.08819e-06
8.74326e-06
1.39681e-06
8.61296e-06
1.93266e-06
4.09809e-06
8.21385e-06
6.68971e-06
2.83488e-06
8.5244e-07
8.73677e-06
8.20806e-06
7.13714e-06
5.78434e-06
8.49871e-06
8.44666e-06
6.80009e-07
8.59495e-06
8.67859e-06
1.43657e-06
8.57554e-06
8.62912e-06
8.34742e-06
8.44742e-06
6.52521e-06
8.45112e-06
8.55977e-06
8.41627e-06
8.51199e-06
8.61095e-06
3.92409e-06
8.02797e-06
1.96112e-06
8.60491e-06
7.19616e-06
8.61262e-06
8.51908e-06
8.33877e-06
8.63495e-06
1.95725e-06
9.72964e-08
1.45277e-07
6.77003e-06
6.35123e-06
4.64752e-06
3.42904e-06
8.544e-06
8.59902e-06
6.06384e-06
7.55809e-06
8.21596e-06
3.65679e-06
6.39411e-06
8.60842e-06
4.20984e-06
6.48217e-06
8.47883e-06
8.6331e-06
8.75581e-06
5.68936e-06
8.25048e-06
8.50538e-06
8.37148e-06
8.03247e-06
8.54667e-06
8.34349e-06
7.10641e-06
8.26194e-06
8.12074e-06
7.78478e-06
4.61234e-06
8.31627e-06
2.90366e-07
8.52523e-06
8.60148e-06
8.59509e-06
8.48966e-06
8.26665e-06
8.13844e-06
6.92039e-06
5.36155e-06
5.36705e-06
9.26071e-07
8.27534e-06
4.40077e-06
8.20033e-06
8.6716e-06
8.62678e-06
8.6223e-06
8.56136e-06
8.31077e-06
8.16718e-06
8.50088e-06
8.53852e-06
8.5274e-06
5.99339e-06
3.81384e-06
6.87539e-06
8.59156e-06
8.62522e-06
8.48105e-06
1.02786e-06
8.63004e-06
8.34775e-06
8.37276e-06
3.18466e-06
1.90703e-06
8.21711e-06
7.37528e-06
3.99082e-06
8.27782e-06
8.62706e-06
8.18082e-06
7.0224e-06
8.52373e-06
8.38433e-06
6.57321e-06
8.63293e-06
4.93139e-06
8.6128e-06
5.91539e-06
8.29633e-06
8.64598e-06
1.4129e-06
8.37097e-06
8.6372e-06
8.05992e-06
5.26569e-06
3.00572e-06
6.67292e-06
4.28901e-06
8.07519e-06
8.28456e-06
8.4811e-06
8.57394e-06
4.22519e-06
8.4315e-06
8.21425e-06
1.33315e-06
8.72274e-06
7.50751e-06
2.08719e-06
8.6352e-06
8.62873e-06
8.60476e-06
8.29247e-06
8.62271e-06
4.00384e-06
8.62705e-06
7.31093e-07
8.50156e-06
4.38547e-07
8.61357e-06
8.84513e-06
5.56856e-06
8.62904e-06
6.88412e-06
8.6033e-06
8.61012e-06
8.61562e-06
4.48885e-06
1.69648e-06
8.14045e-06
8.36419e-06
8.30619e-06
8.6177e-06
8.02068e-06
8.5501e-06
8.33921e-06
6.0006e-06
8.30368e-06
1.02172e-06
3.16534e-06
5.90415e-07
6.97415e-06
7.54416e-06
8.51878e-06
6.97239e-06
5.69354e-07
8.65028e-06
8.36861e-06
8.62663e-06
8.57733e-06
8.20387e-06
8.45101e-06
8.41567e-06
8.31907e-06
8.30286e-06
8.16436e-06
8.61676e-06
8.12863e-06
3.19119e-07
7.50716e-06
8.41455e-06
8.30377e-06
2.07708e-06
8.36554e-06
8.38705e-06
8.51815e-06
8.20959e-06
2.4236e-06
8.63055e-06
8.6972e-06
8.47088e-06
8.35321e-06
8.33356e-06
8.48821e-06
6.56545e-07
8.62811e-06
8.60145e-06
4.33654e-06
1.21185e-06
2.98858e-06
1.17606e-06
8.9096e-06
8.18525e-06
8.62943e-06
7.01038e-06
8.59797e-06
9.6686e-07
7.63067e-06
7.06976e-07
8.63124e-06
8.40619e-06
8.62058e-06
9.24781e-07
8.38933e-06
8.3248e-06
8.64894e-06
7.80897e-06
8.42261e-06
7.9362e-06
8.35085e-06
8.60935e-06
8.63774e-06
8.47643e-06
8.42931e-06
8.61994e-06
8.49283e-06
7.21247e-06
3.82949e-06
8.34416e-06
3.07054e-06
8.58836e-06
8.60043e-06
8.30457e-06
5.80301e-06
8.28283e-06
2.42437e-06
8.61968e-06
7.9169e-06
1.46221e-06
6.15106e-07
8.34862e-06
8.36786e-06
2.60891e-06
8.45463e-06
8.22086e-06
8.80503e-06
8.42546e-06
8.38926e-06
5.52318e-06
8.44749e-06
8.01897e-06
8.44799e-06
8.32313e-06
8.62602e-06
8.35072e-06
8.06271e-06
8.35472e-06
4.49563e-06
2.88096e-06
8.35454e-06
8.63481e-06
8.5473e-06
4.14977e-07
8.57022e-06
2.8965e-06
8.52184e-06
8.62282e-06
1.19628e-06
8.61917e-06
8.61078e-06
8.3118e-06
8.6296e-06
1.49728e-06
7.00404e-06
8.7063e-06
8.49393e-06
8.3611e-06
8.33817e-06
8.56036e-06
1.59264e-06
7.90917e-06
8.05778e-06
8.64265e-06
7.64221e-06
8.65808e-06
8.44945e-06
8.24803e-06
6.8717e-06
8.40173e-06
8.61162e-06
8.4793e-06
5.41647e-07
8.63945e-06
7.89706e-06
8.5067e-06
8.15283e-06
8.53473e-06
8.62638e-06
8.3494e-06
7.66543e-06
8.4897e-06
8.18523e-06
8.63664e-06
8.61354e-06
8.61173e-06
8.50472e-06
7.77748e-06
8.63149e-06
7.98421e-06
8.63894e-06
6.10513e-06
1.51802e-06
7.79984e-06
5.70094e-06
8.28999e-06
7.8902e-06
8.61808e-06
8.627e-06
8.39512e-06
8.36287e-06
8.36921e-06
6.76473e-06
6.95249e-06
8.48356e-06
8.64203e-06
8.23526e-06
7.37147e-06
8.64781e-06
8.34092e-06
8.36218e-06
8.32744e-06
8.60051e-06
8.36617e-06
2.34762e-06
8.62498e-06
7.34385e-06
1.90449e-06
8.84044e-06
1.78391e-06
8.53986e-06
8.41074e-06
8.45674e-06
8.57365e-06
8.33461e-06
5.70745e-06
8.49029e-06
6.46682e-06
8.62567e-06
8.61685e-06
8.52488e-06
1.68836e-06
8.48857e-06
4.89951e-06
8.54417e-06
8.4938e-06
6.69441e-06
8.41016e-06
4.41493e-06
7.66053e-06
8.36794e-06
8.47677e-06
8.63923e-06
8.38574e-07
9.42979e-07
8.43637e-06
8.35124e-06
8.50419e-06
8.43662e-06
4.59066e-06
8.27469e-06
1.80735e-07
5.76724e-07
8.44938e-06
8.62253e-06
8.54125e-06
7.52536e-06
8.52269e-06
8.64725e-06
2.26429e-06
8.55396e-06
8.72287e-06
8.63058e-06
1.28548e-06
8.46872e-06
8.45255e-06
1.3663e-06
8.58924e-06
8.54879e-06
8.35765e-06
7.5434e-06
8.60398e-06
5.26739e-07
8.50871e-06
8.63033e-06
8.56577e-06
8.62068e-06
2.54971e-06
2.408e-06
8.19321e-06
8.54861e-06
8.62272e-06
8.52185e-06
8.63124e-06
8.37004e-06
7.45718e-06
8.59604e-06
8.54783e-06
8.45677e-06
8.59888e-06
7.6323e-06
8.60028e-06
8.26876e-06
8.45864e-06
1.79001e-06
8.60951e-06
8.53114e-06
8.50279e-06
8.58853e-06
8.53949e-06
8.62255e-06
8.50503e-06
5.27357e-06
2.5476e-06
8.63079e-06
8.62219e-06
7.38595e-06
7.33574e-06
8.64351e-06
8.60417e-06
8.54625e-06
8.31367e-06
8.51251e-06
8.35891e-06
8.56114e-06
8.5193e-06
8.60321e-06
7.8065e-06
7.28256e-06
8.4134e-06
8.47647e-06
8.64964e-06
6.74166e-06
8.48628e-06
8.57915e-06
8.28429e-06
8.46514e-06
8.55768e-06
8.58571e-06
8.63892e-06
8.60193e-06
7.28769e-06
8.36335e-06
8.62751e-06
8.62558e-06
8.55742e-06
2.16348e-06
8.53333e-06
8.5254e-06
8.51583e-06
8.50735e-06
8.63603e-06
8.60451e-06
7.32208e-06
8.53273e-06
7.38642e-06
8.3032e-06
8.37774e-06
7.17134e-06
6.28118e-07
8.57494e-06
8.52054e-06
8.32709e-06
8.69298e-06
8.59533e-06
8.80082e-06
7.2961e-06
8.6693e-06
8.55279e-06
8.28765e-06
6.91944e-06
2.83076e-06
8.71512e-06
9.16645e-07
8.67047e-06
8.63109e-06
8.63281e-06
8.61313e-06
7.27576e-06
8.62374e-06
8.64319e-06
8.6033e-06
7.22827e-06
8.59891e-06
7.90484e-06
8.62729e-06
6.84619e-06
8.02123e-06
8.52221e-06
8.13682e-06
6.78013e-06
8.52642e-06
6.69395e-06
8.82123e-06
8.64066e-06
8.64148e-06
8.63762e-06
7.37959e-06
8.83113e-06
8.62225e-06
6.08839e-06
8.46252e-06
8.82925e-06
8.62968e-06
8.61964e-06
8.59702e-06
8.30828e-06
8.57018e-06
8.5169e-06
8.24464e-06
6.74569e-06
8.59647e-06
8.60174e-06
6.77323e-06
8.63906e-06
8.53094e-06
7.25397e-06
5.38233e-06
8.61676e-06
3.1139e-06
8.59693e-06
8.63124e-06
8.62568e-06
8.58747e-06
8.68429e-06
8.63121e-06
8.56095e-06
8.63041e-06
6.78455e-06
6.8037e-06
3.73459e-06
8.56385e-06
7.885e-06
6.4289e-06
8.6037e-06
8.5015e-06
8.53866e-06
8.62841e-06
8.58578e-06
7.63706e-06
8.63254e-06
8.60111e-06
8.66542e-06
8.62714e-06
7.17453e-07
8.33793e-06
8.62867e-06
2.06851e-06
5.51738e-06
7.2154e-06
4.24072e-07
8.54675e-06
8.51639e-06
8.60704e-06
7.18842e-06
8.62955e-06
8.62731e-06
1.79777e-06
4.30512e-06
7.51524e-06
8.63037e-06
8.58646e-06
8.58577e-06
7.22129e-06
8.3553e-06
8.62015e-06
8.54544e-06
8.62726e-06
6.84033e-06
8.57691e-06
7.14772e-06
5.6121e-06
8.43253e-06
8.34679e-06
1.37482e-06
8.55948e-06
6.24392e-06
8.63041e-06
7.15064e-06
8.59426e-06
8.61811e-06
2.41793e-06
8.61454e-06
6.61424e-06
8.6006e-06
8.60485e-06
8.43145e-06
8.63117e-06
4.4507e-06
8.62392e-06
8.60456e-06
8.61885e-06
6.60752e-07
8.35836e-06
8.59297e-06
8.58719e-06
8.30576e-06
8.51136e-06
6.37238e-06
7.98473e-07
8.62978e-06
8.50315e-06
8.63561e-06
8.61912e-06
8.60735e-06
8.5705e-06
8.43232e-06
7.32914e-06
8.53665e-06
7.47887e-06
8.61606e-06
4.29274e-06
8.56175e-06
8.48975e-06
6.51967e-06
8.25334e-06
8.6784e-06
8.3416e-06
8.47379e-06
8.64779e-06
8.62783e-06
8.61321e-06
6.60849e-06
8.63681e-06
8.62168e-06
8.62036e-06
3.58575e-06
8.37887e-06
7.0616e-06
8.68079e-06
4.68589e-06
8.63462e-06
8.62044e-06
8.18495e-06
7.1958e-06
6.78002e-06
8.59406e-06
6.98402e-06
6.57652e-06
8.54261e-06
8.59174e-06
6.58466e-06
7.06618e-06
8.62307e-06
8.57458e-06
6.97025e-06
5.96272e-06
8.6297e-06
2.45289e-06
8.65121e-06
8.33494e-06
8.60834e-06
8.33702e-06
8.63554e-06
8.63059e-06
8.25891e-06
8.62932e-06
6.5488e-07
8.61911e-06
8.3251e-06
8.62235e-06
7.13339e-06
7.05656e-06
7.12445e-06
7.0717e-06
8.6955e-06
8.83782e-06
8.55623e-06
8.63287e-06
8.32697e-06
8.62414e-06
6.26249e-06
8.62663e-06
8.63356e-06
8.44478e-06
8.63289e-06
8.53688e-06
6.90673e-06
7.09949e-06
8.62664e-06
8.61784e-06
8.56054e-06
2.16966e-06
8.68567e-06
7.23758e-06
8.6313e-06
8.57944e-06
8.62044e-06
8.63376e-06
8.81849e-06
7.25959e-06
8.62763e-06
6.97114e-06
8.60888e-06
8.62813e-06
8.62069e-06
7.39884e-06
8.62602e-06
1.97351e-06
8.62272e-06
7.00638e-06
7.56083e-06
8.61759e-06
8.626e-06
8.32644e-06
6.71997e-06
8.69267e-06
7.25866e-06
8.62662e-06
8.62727e-06
8.6141e-06
8.60353e-06
8.61024e-06
7.20254e-06
7.272e-06
4.94008e-07
8.72671e-06
6.30936e-07
8.54899e-06
8.53856e-06
8.60361e-06
8.63602e-06
8.06475e-06
8.29194e-06
8.56907e-06
8.62609e-06
8.57366e-06
8.08373e-06
7.10086e-06
7.42337e-06
6.49962e-06
8.62391e-06
8.60292e-06
8.62915e-06
8.583e-06
8.60217e-06
8.81718e-06
7.08324e-06
8.59071e-06
8.63133e-06
8.6274e-06
8.62721e-06
8.51696e-06
8.54696e-06
8.50044e-06
8.59892e-06
7.72721e-06
7.10539e-06
8.60505e-06
6.94473e-06
8.62965e-06
8.66463e-06
8.60305e-06
8.62328e-06
4.64274e-06
8.5714e-06
6.51246e-06
8.35891e-06
7.02912e-06
8.6325e-06
8.63273e-06
6.95157e-06
8.05101e-06
8.37576e-06
7.08666e-06
8.47895e-06
8.62624e-06
8.64066e-06
6.66272e-06
7.02234e-06
8.81857e-06
8.57709e-06
7.26805e-06
8.60414e-06
8.6063e-06
8.88873e-06
7.62668e-06
8.60075e-06
8.60971e-06
8.63152e-06
8.59636e-06
8.60522e-06
8.39521e-06
8.61639e-06
8.63109e-06
8.6274e-06
8.61224e-06
8.70105e-06
8.60542e-06
2.69196e-06
8.63299e-06
7.02381e-06
8.6202e-06
7.08967e-06
8.604e-06
8.63023e-06
8.83755e-06
8.64079e-06
8.70883e-06
8.63233e-06
8.60683e-06
8.86564e-06
8.60444e-06
8.6098e-06
8.64522e-06
8.62735e-06
8.59644e-06
8.2929e-06
6.8473e-06
8.61846e-06
8.63092e-06
8.6272e-06
8.58075e-06
8.70067e-07
6.53043e-06
8.63138e-06
8.70156e-06
8.6277e-06
8.62831e-06
8.63068e-06
8.63061e-06
6.91829e-06
6.93566e-06
8.63885e-06
7.98349e-06
5.49004e-06
8.63315e-06
6.40973e-06
8.58756e-06
8.59447e-06
6.83858e-06
8.8136e-06
8.63918e-06
8.60128e-06
8.62859e-06
8.60585e-06
8.63067e-06
8.62805e-06
8.63169e-06
8.63846e-06
8.31908e-06
8.55865e-06
6.93943e-06
7.04151e-06
8.62453e-06
8.62701e-06
8.60538e-06
6.35689e-06
6.84787e-06
8.56983e-06
8.63116e-06
8.6275e-06
6.44199e-06
8.5983e-06
8.78943e-06
8.62666e-06
7.01452e-06
8.11317e-06
8.64119e-06
8.63713e-06
6.71604e-07
8.62519e-06
8.63905e-06
8.62918e-06
8.63118e-06
8.62842e-06
6.44599e-06
8.63073e-06
6.94454e-06
8.8028e-06
8.61599e-06
8.78777e-06
8.62044e-06
8.60129e-06
8.63492e-06
8.6464e-06
8.62691e-06
8.52592e-06
8.6203e-06
8.63823e-06
8.60551e-06
7.00215e-06
7.13265e-06
8.63244e-06
8.65253e-06
8.60504e-06
8.62496e-06
8.63025e-06
8.62859e-06
8.63329e-06
8.63067e-06
8.38291e-06
8.63057e-06
8.48492e-06
8.00755e-06
8.63345e-06
8.34052e-06
8.61092e-06
8.60814e-06
6.31898e-06
8.59755e-06
6.91879e-06
8.625e-06
8.60527e-06
8.63447e-06
6.23207e-06
8.61717e-06
8.6288e-06
8.63408e-06
8.60649e-06
8.61422e-06
8.6193e-06
8.63175e-06
8.60665e-06
8.60587e-06
8.48039e-06
6.32516e-06
8.63597e-06
8.63006e-06
8.62811e-06
6.84346e-06
2.03176e-06
8.63204e-06
8.61467e-06
8.75955e-06
8.63572e-06
8.61876e-06
8.57234e-06
8.88772e-06
8.61227e-06
8.6848e-06
8.59779e-06
8.62616e-06
8.63382e-06
8.62555e-06
8.57529e-06
7.07491e-06
8.60581e-06
8.61408e-06
6.81896e-06
8.6162e-06
8.6285e-06
8.64408e-06
7.24072e-06
2.73595e-06
6.95794e-06
8.62811e-06
7.1477e-06
8.62609e-06
6.98972e-06
8.6058e-06
6.26932e-06
7.2023e-06
8.59503e-06
6.842e-06
8.60764e-06
8.5766e-06
8.57107e-06
7.79603e-07
6.13937e-06
8.61248e-06
5.56258e-07
8.60514e-06
8.63541e-06
6.9761e-06
8.6046e-06
6.9056e-06
8.62337e-06
8.78467e-06
8.62108e-06
8.62316e-06
8.59905e-06
8.60702e-06
8.61537e-06
8.62991e-06
8.6245e-06
7.21633e-06
6.74061e-06
8.62391e-06
8.63713e-06
6.73809e-06
8.59754e-06
8.62894e-06
8.63208e-06
8.0329e-06
8.6326e-06
6.74177e-06
8.621e-06
8.64101e-06
8.62202e-06
2.34262e-06
6.98894e-06
8.60464e-06
6.22797e-06
8.60394e-06
4.16159e-06
8.60195e-06
8.6532e-06
8.62869e-06
8.62167e-06
8.61131e-06
6.74249e-06
8.60815e-06
8.60687e-06
8.61719e-06
8.63251e-06
8.63312e-06
8.60884e-06
8.60708e-06
6.97725e-06
6.26987e-06
8.62906e-06
8.62072e-06
8.58054e-06
6.7517e-06
8.60116e-06
8.89469e-06
8.77931e-06
8.61331e-06
8.61322e-06
8.60276e-06
8.62529e-06
6.72202e-06
6.88279e-06
8.60427e-06
8.37035e-06
8.5976e-06
8.60077e-06
8.63208e-06
8.61608e-06
8.61478e-06
8.62479e-06
8.61653e-06
6.35883e-06
8.62342e-06
8.59319e-06
6.71226e-06
8.5949e-06
8.63459e-06
8.60591e-06
8.62242e-06
8.62087e-06
6.72296e-06
8.62378e-06
8.59543e-06
6.18048e-06
8.61899e-06
8.61606e-06
6.80392e-06
8.59614e-06
6.74324e-06
8.62054e-06
8.63198e-06
8.61093e-06
6.84015e-06
8.63159e-06
8.62476e-06
8.60559e-06
8.57206e-06
6.41897e-06
6.71907e-06
8.61284e-06
8.6002e-06
8.6341e-06
8.61193e-06
8.6074e-06
8.64072e-06
8.64965e-06
8.60451e-06
8.59248e-06
6.78955e-06
8.60719e-06
8.60615e-06
8.63244e-06
8.57164e-06
8.60878e-06
6.82628e-06
6.63169e-06
8.55929e-06
6.84466e-06
8.59686e-06
8.62445e-06
8.60291e-06
8.58697e-06
8.60899e-06
6.62606e-06
8.63502e-06
6.93944e-06
8.62682e-06
6.10026e-06
8.60694e-06
8.35492e-06
8.60525e-06
8.61029e-06
8.60518e-06
8.60399e-06
8.6278e-06
8.60892e-06
8.5985e-06
8.61229e-06
6.64062e-06
8.93934e-06
8.6338e-06
8.59182e-06
8.63996e-06
8.6071e-06
8.61418e-06
8.5858e-06
8.61742e-06
8.61445e-06
8.63992e-06
8.6046e-06
6.64793e-06
6.66101e-06
6.47222e-06
2.89149e-06
8.61283e-06
8.61096e-06
8.59492e-06
6.70632e-06
8.59591e-06
8.57679e-06
6.13557e-06
6.87084e-06
6.80825e-06
6.74363e-06
8.62248e-06
6.94424e-06
8.60586e-06
2.3587e-06
8.60699e-06
8.60609e-06
8.57735e-06
8.61411e-06
1.46419e-06
8.60795e-06
8.58558e-06
8.58086e-06
8.60911e-06
8.61224e-06
8.6104e-06
6.66015e-06
8.57878e-06
8.59899e-06
5.64142e-07
8.61048e-06
8.60503e-06
8.62763e-06
8.62793e-06
8.6254e-06
8.5847e-06
8.61823e-06
8.62522e-06
8.57624e-06
8.62333e-06
8.60063e-06
8.62855e-06
8.61509e-06
8.56772e-06
6.64522e-06
8.59015e-06
8.60914e-06
8.61704e-06
8.61606e-06
8.61485e-06
8.61456e-06
8.60045e-06
8.62913e-06
6.54548e-06
8.58585e-06
8.63918e-06
8.60501e-06
6.45008e-06
8.63435e-06
8.58241e-06
6.53088e-06
6.53183e-06
8.61141e-06
6.56802e-06
8.60187e-06
6.77938e-06
8.13241e-06
6.04325e-06
6.54563e-06
8.59823e-06
1.58718e-06
8.60249e-06
8.63419e-06
6.56643e-06
8.61323e-06
6.35591e-06
8.58084e-06
8.63434e-06
8.62228e-06
8.58562e-06
6.62692e-06
6.69552e-06
8.63346e-06
8.60797e-06
6.63506e-06
6.57006e-06
6.60211e-06
6.57311e-06
8.61356e-06
6.6459e-06
8.61015e-06
6.54374e-06
8.60819e-06
8.61223e-06
6.34166e-06
6.61634e-06
6.61078e-06
6.52979e-06
8.61182e-06
8.61349e-06
8.61688e-06
6.17832e-06
8.61135e-06
8.58843e-06
2.34081e-06
8.53437e-06
8.59631e-06
6.04716e-06
5.95183e-06
8.61454e-06
6.33691e-06
6.45202e-06
8.09829e-06
8.60379e-06
8.61891e-06
8.64328e-06
6.65589e-06
6.58054e-06
6.45491e-06
6.52481e-06
8.60176e-06
8.59964e-06
8.98374e-06
6.55382e-06
6.43594e-06
8.59645e-06
8.61884e-06
8.62038e-06
8.62172e-06
8.61777e-06
6.47945e-06
8.60324e-06
6.67083e-06
8.61685e-06
6.55239e-06
6.51629e-06
8.62344e-06
8.34681e-06
8.62361e-06
9.01021e-06
8.60412e-06
8.62305e-06
8.61325e-06
8.61554e-06
6.50863e-06
6.67896e-06
8.61066e-06
8.6223e-06
6.48318e-06
6.60986e-06
8.62106e-06
6.32166e-06
6.34118e-06
8.6207e-06
6.35943e-06
6.37845e-06
6.38967e-06
8.59923e-06
8.60785e-06
8.60655e-06
6.35899e-06
6.76975e-06
8.59894e-06
6.43672e-06
6.33053e-06
6.38841e-06
8.63078e-06
8.59714e-06
6.42209e-06
8.60291e-06
5.87603e-06
8.59926e-06
8.75014e-06
8.61836e-06
6.26245e-06
6.24655e-06
6.32079e-06
8.62844e-06
6.26718e-06
6.41476e-06
6.45445e-06
5.9048e-06
6.42545e-06
5.88308e-06
5.78006e-06
6.32815e-06
6.47944e-06
5.81195e-06
6.47642e-06
6.276e-06
6.54998e-06
8.59295e-06
6.29728e-06
6.18478e-06
6.2357e-06
6.17494e-06
5.70729e-06
8.60359e-06
6.094e-06
6.73473e-06
6.23426e-06
6.15158e-06
8.63151e-06
6.28481e-06
6.27789e-06
8.57799e-06
6.20932e-06
8.58645e-06
8.61687e-06
5.76948e-06
5.67859e-06
6.18926e-06
6.36834e-06
6.10111e-06
6.2638e-06
6.20605e-06
8.62106e-06
5.59238e-06
6.05682e-06
6.08284e-06
8.61157e-06
6.29992e-06
5.46588e-06
6.46051e-06
6.1402e-06
6.11451e-06
6.22647e-06
5.50052e-06
5.86105e-06
5.98511e-06
5.89223e-06
5.9904e-06
5.79916e-06
5.96192e-06
5.4576e-06
5.42692e-06
5.78715e-06
8.6215e-06
6.0462e-06
6.02211e-06
6.05643e-06
6.11894e-06
5.8821e-06
5.38859e-06
5.35774e-06
6.16823e-06
6.03761e-06
5.37186e-06
5.90753e-06
6.00158e-06
5.89713e-06
5.9806e-06
5.95204e-06
5.96651e-06
8.62914e-06
5.86699e-06
6.19608e-06
5.62088e-06
5.86622e-06
5.93522e-06
6.00407e-06
5.97783e-06
6.02688e-06
5.28924e-06
6.09427e-06
5.53028e-06
6.00627e-06
5.77193e-06
6.04225e-06
6.07282e-06
5.95007e-06
5.76288e-06
5.9311e-06
5.67575e-06
5.48552e-06
5.27545e-06
5.85452e-06
5.80286e-06
5.84823e-06
5.85776e-06
6.07327e-06
5.99895e-06
5.75952e-06
5.9429e-06
5.81179e-06
6.00224e-06
5.91397e-06
5.19591e-06
5.89809e-06
5.88885e-06
8.63012e-06
5.70497e-06
5.67693e-06
5.70673e-06
5.82352e-06
5.77083e-06
5.76354e-06
5.31953e-06
5.9317e-06
5.39038e-06
5.19921e-06
5.11266e-06
8.57893e-06
8.62188e-06
5.10303e-06
5.71629e-06
5.72248e-06
5.79749e-06
5.58201e-06
5.60864e-06
5.70591e-06
5.57025e-06
5.82031e-06
5.71615e-06
5.58094e-06
5.71427e-06
5.73215e-06
5.69187e-06
5.66915e-06
5.6279e-06
6.18613e-06
5.16644e-06
5.48702e-06
5.65873e-06
5.08017e-06
5.01242e-06
5.50816e-06
5.6565e-06
5.64078e-06
5.80915e-06
5.71817e-06
5.75343e-06
5.61454e-06
5.31143e-06
5.02087e-06
5.39209e-06
5.57475e-06
5.56415e-06
4.92217e-06
5.408e-06
5.22241e-06
5.54951e-06
5.48034e-06
5.4785e-06
5.47602e-06
5.41718e-06
5.47516e-06
5.32805e-06
5.37989e-06
5.61948e-06
5.5676e-06
5.40662e-06
5.2972e-06
4.85244e-06
5.51547e-06
5.31133e-06
5.65875e-06
5.25082e-06
5.46944e-06
5.37483e-06
5.43149e-06
5.52297e-06
5.2847e-06
5.45792e-06
5.3617e-06
5.4202e-06
5.24118e-06
9.13949e-07
4.83339e-06
5.43038e-06
5.38596e-06
5.38702e-06
4.94337e-06
5.28288e-06
4.67907e-06
5.51509e-06
4.76479e-06
9.71839e-07
5.20219e-06
5.38134e-06
4.74917e-06
5.3357e-06
5.21743e-06
5.19963e-06
5.36629e-06
5.66177e-06
5.29149e-06
5.28025e-06
4.06197e-06
5.38482e-06
5.14412e-06
5.21589e-06
4.67716e-06
5.19707e-06
5.29508e-06
5.32607e-06
5.10719e-06
5.12489e-06
5.15631e-06
4.088e-06
5.10463e-06
4.8395e-06
4.19192e-06
4.33384e-06
5.23682e-06
5.27436e-06
5.3402e-06
5.01213e-06
5.18544e-06
4.81418e-06
5.09079e-06
5.10262e-06
5.14648e-06
4.84819e-06
5.03289e-06
5.34526e-06
3.87045e-06
4.38601e-06
4.61036e-06
4.94068e-06
5.18215e-06
5.28962e-06
4.93038e-06
5.11092e-06
5.00919e-06
4.91408e-06
5.15824e-06
5.05128e-06
5.01804e-06
4.91715e-06
5.50217e-06
4.44302e-06
4.90464e-06
4.95701e-06
4.92245e-06
3.90914e-06
5.00802e-06
4.99618e-06
5.06161e-06
4.48209e-06
5.11182e-06
5.09009e-06
4.4378e-06
5.02541e-06
4.57278e-06
4.9281e-06
4.91332e-06
4.52637e-06
4.65996e-06
5.10566e-06
4.95145e-06
5.04586e-06
4.82231e-06
4.62998e-06
4.99781e-06
4.36543e-06
4.81919e-06
5.01931e-06
4.92457e-06
4.79313e-06
4.97569e-06
5.13538e-06
4.53447e-06
5.01396e-06
4.99955e-06
4.68363e-06
4.90138e-06
4.8068e-06
4.34912e-06
4.86184e-06
4.72726e-06
4.67316e-06
4.8187e-06
4.86254e-06
5.06723e-06
4.29604e-06
4.85575e-06
4.8503e-06
4.7676e-06
4.90529e-06
5.01782e-06
4.2533e-06
4.83498e-06
4.39093e-06
4.83254e-06
4.05742e-06
4.25167e-06
3.9651e-06
4.59618e-06
4.76775e-06
4.6285e-06
4.63229e-06
4.72367e-06
4.4662e-06
4.75722e-06
4.39645e-06
4.62516e-06
4.72429e-06
4.85234e-06
4.71225e-06
4.83027e-06
4.75595e-06
4.81258e-06
4.62976e-06
4.88427e-06
4.92579e-06
4.09035e-06
3.87097e-06
4.58892e-06
4.06236e-06
4.54925e-06
4.5374e-06
4.41775e-06
4.65901e-06
4.8728e-06
4.71984e-06
4.18165e-06
4.61752e-06
4.52297e-06
4.15671e-06
4.72813e-06
3.99371e-06
4.53523e-06
4.5786e-06
4.77829e-06
3.98832e-06
4.5246e-06
4.64435e-06
4.24016e-06
4.56658e-06
3.97347e-06
4.4424e-06
4.62715e-06
4.73977e-06
4.43785e-06
3.96951e-06
4.51422e-06
4.75029e-06
4.34094e-06
4.45852e-06
4.96694e-06
4.7029e-06
3.84579e-06
3.90393e-06
4.55488e-06
4.44063e-06
4.34747e-06
4.42849e-06
4.14129e-06
4.49416e-06
3.87251e-06
4.53333e-06
4.52397e-06
4.50754e-06
4.48093e-06
4.60893e-06
4.52597e-06
4.17999e-06
3.88153e-06
4.34594e-06
4.53503e-06
4.40694e-06
4.51814e-06
4.55547e-06
4.31328e-06
4.44228e-06
3.76319e-06
4.25241e-06
4.45969e-06
4.3338e-06
4.24702e-06
4.23931e-06
3.77316e-06
4.10528e-06
4.36495e-06
4.45392e-06
4.25133e-06
4.29478e-06
4.26506e-06
4.11597e-06
4.26996e-06
4.34246e-06
4.46067e-06
4.34945e-06
3.67623e-06
4.33252e-06
4.19996e-06
4.15743e-06
4.15249e-06
3.6491e-06
4.19256e-06
4.15693e-06
4.14488e-06
3.66596e-06
4.06227e-06
4.21775e-06
3.87072e-06
3.77004e-06
3.64773e-06
4.27199e-06
3.83729e-06
4.06236e-06
3.77603e-06
4.25641e-06
4.3631e-06
4.10278e-06
4.13904e-06
3.72872e-06
3.96646e-06
3.58575e-06
4.05744e-06
4.21226e-06
3.98837e-06
3.8595e-06
4.30534e-06
3.39835e-06
4.02614e-06
4.16296e-06
4.0321e-06
4.02096e-06
4.04426e-06
4.05018e-06
3.95567e-06
3.49478e-06
3.84109e-06
4.1991e-06
3.96774e-06
4.21076e-06
3.96184e-06
3.92678e-06
3.56295e-06
4.07425e-06
3.88374e-06
3.40439e-06
3.48808e-06
4.26315e-06
4.39952e-06
3.87311e-06
4.03743e-06
3.94028e-06
4.3588e-06
3.31317e-06
3.84655e-06
4.01679e-06
3.96711e-06
3.97844e-06
4.01069e-06
4.12028e-06
3.95482e-06
3.3207e-06
3.86543e-06
3.78849e-06
3.38714e-06
3.89363e-06
4.01728e-06
3.99147e-06
3.30926e-06
3.82735e-06
3.77832e-06
3.6749e-06
3.82171e-06
3.7667e-06
4.0788e-06
3.90853e-06
3.75333e-06
3.45824e-06
3.87079e-06
3.72736e-06
3.22205e-06
3.95476e-06
3.94198e-06
3.69295e-06
3.94843e-06
3.94884e-06
3.76797e-06
3.18524e-06
3.86117e-06
3.75173e-06
3.29727e-06
3.73855e-06
3.76458e-06
3.68092e-06
3.79725e-06
3.68358e-06
3.7181e-06
3.67269e-06
3.73686e-06
3.29433e-06
3.20629e-06
3.58882e-06
3.10798e-06
3.81805e-06
3.39954e-06
3.30531e-06
3.27703e-06
3.59758e-06
3.20394e-06
3.56275e-06
3.61364e-06
3.71925e-06
3.79143e-06
3.11191e-06
3.49415e-06
3.57843e-06
3.29703e-06
3.82873e-06
3.74245e-06
3.69103e-06
3.22174e-06
3.5853e-06
3.50244e-06
3.51242e-06
3.53932e-06
3.57465e-06
3.59024e-06
3.63573e-06
3.41157e-06
3.01133e-06
3.76801e-06
3.19496e-06
3.48388e-06
3.091e-06
3.31071e-06
3.40741e-06
3.40908e-06
3.46015e-06
3.54959e-06
3.57995e-06
3.38421e-06
3.00871e-06
3.69031e-06
3.41264e-06
3.38893e-06
3.02326e-06
3.36725e-06
2.6124e-06
3.44521e-06
3.11676e-06
3.28936e-06
3.2375e-06
2.90695e-06
3.54855e-06
3.59255e-06
3.31205e-06
3.10529e-06
3.38996e-06
3.3511e-06
3.45448e-06
3.39543e-06
3.42397e-06
2.7091e-06
3.31364e-06
3.36009e-06
3.18058e-06
2.81091e-06
2.80275e-06
3.2168e-06
3.37031e-06
3.19775e-06
3.168e-06
3.26571e-06
3.33907e-06
3.20597e-06
3.29365e-06
3.43857e-06
3.2135e-06