/*--------------------------------*- C++ -*----------------------------------*\
  =========                 |
  \\      /  F ield         | OpenFOAM: The Open Source CFD Toolbox
   \\    /   O peration     | Website:  https://openfoam.org
    \\  /    A nd           | Version:  8
     \\/     M anipulation  |
\*---------------------------------------------------------------------------*/
FoamFile
{
    version     2.0;
    format      ascii;
    class       surfaceScalarField;
    location    "4.8";
    object      phi;
}
// * * * * * * * * * * * * * * * * * * * * * * * * * * * * * * * * * * * * * //

dimensions      [0 3 -1 0 0 0 0];

internalField   nonuniform List<scalar> 
15173
(
6.45038e-09
-5.72473e-09
-1.94555e-10
-5.31093e-10
5.06793e-09
-1.70148e-10
1.11548e-10
-5.00933e-09
-4.34023e-11
5.19321e-09
-5.14861e-09
-1.1926e-12
8.515e-09
-1.97794e-10
4.22207e-10
-8.73942e-09
-5.8881e-09
6.1549e-09
-2.15897e-10
-5.08983e-11
6.61039e-10
-9.2162e-09
8.93743e-09
-3.82271e-10
-4.26029e-09
-8.08586e-10
1.14131e-09
3.92757e-09
5.16847e-09
-5.17814e-09
3.63376e-10
-3.53713e-10
-2.03635e-09
2.15487e-09
5.21261e-11
-1.70644e-10
6.47924e-10
-3.36778e-10
4.66601e-09
-4.97716e-09
5.25171e-09
-5.28506e-09
6.78266e-11
-3.4475e-11
6.68784e-09
-1.92629e-11
-2.18201e-10
-2.54129e-09
2.42353e-09
-1.87524e-09
1.993e-09
5.26716e-09
-5.21977e-09
2.80712e-10
-3.28101e-10
-4.88984e-09
5.09618e-09
1.06876e-10
-3.13212e-10
3.16317e-09
-3.44744e-09
2.84267e-10
5.23014e-09
1.1082e-10
-8.92544e-11
-4.2744e-10
-6.24222e-11
-4.39998e-09
9.14377e-10
-8.18513e-10
-9.58639e-11
-2.87805e-09
-9.10981e-10
1.38676e-09
2.40227e-09
2.07627e-09
-4.56901e-11
-2.1034e-09
7.28141e-11
-3.26218e-09
2.89508e-09
3.14433e-09
-2.77723e-09
-5.28688e-09
4.38546e-11
-4.20343e-11
5.94892e-09
4.78007e-10
-6.22531e-09
-2.01622e-10
7.15114e-09
6.39641e-10
-6.75472e-10
-7.1153e-09
-1.57154e-10
5.10704e-11
-5.74561e-11
1.6354e-10
5.39392e-09
-7.34193e-09
2.33983e-09
-3.91811e-10
-2.01462e-09
3.53579e-09
-2.2589e-09
7.37728e-10
7.95616e-09
-6.06912e-09
5.27204e-10
-2.41425e-09
-2.85803e-10
7.15102e-10
8.08571e-09
-5.90768e-09
-5.03738e-09
7.66596e-09
3.27911e-09
5.92931e-09
4.99546e-10
-1.37869e-10
-6.29099e-09
7.62085e-09
2.61173e-09
-8.66636e-09
-1.56621e-09
8.41522e-10
-1.18825e-09
5.12635e-09
-4.77962e-09
4.9267e-09
1.50029e-10
-4.95029e-09
-1.2644e-10
5.19345e-09
1.34353e-09
-6.46345e-09
-7.35298e-11
4.98658e-09
-5.12445e-09
-1.00215e-10
2.38079e-10
-5.13485e-09
-6.84246e-09
3.18821e-09
8.7891e-09
-1.25623e-09
-8.6705e-09
8.28891e-09
1.63783e-09
-6.28051e-09
1.73702e-09
-3.22165e-10
4.86565e-09
5.17627e-09
-1.01364e-10
2.12744e-11
5.16564e-09
6.54803e-10
-5.0583e-10
-5.31461e-09
-6.66235e-09
6.62652e-09
-8.19974e-12
4.40375e-11
5.03481e-09
1.2745e-11
2.03672e-11
-1.84732e-09
1.77031e-10
-3.66067e-10
-3.56451e-09
1.73797e-10
-2.79422e-10
3.67013e-09
-1.04083e-10
8.43611e-11
2.72935e-09
1.40108e-10
-3.68013e-09
8.10666e-10
-5.38358e-09
-7.45797e-11
5.41476e-09
-1.19553e-10
3.02842e-10
-2.74803e-10
9.15151e-11
-1.72136e-09
-2.50838e-09
1.68846e-09
4.97287e-09
1.12038e-10
-5.00888e-11
5.93851e-09
2.88542e-10
-5.62015e-09
-6.06903e-10
6.91862e-10
-5.7444e-09
5.89205e-09
-8.39519e-10
-8.55839e-09
2.10549e-09
6.70114e-09
-2.48235e-10
8.14948e-10
-7.41127e-10
6.28201e-11
-1.36642e-10
-9.10546e-10
7.88753e-10
-2.92035e-09
3.04214e-09
5.43248e-10
-5.33147e-09
7.88768e-10
3.99946e-09
-6.61197e-09
6.75794e-09
-2.41169e-10
9.52014e-11
-1.69612e-09
-7.48754e-10
1.8226e-09
6.22269e-10
6.56306e-09
-6.61536e-09
-3.78578e-11
9.01658e-11
-7.05356e-09
6.20661e-09
3.52628e-09
-2.67934e-09
-1.90548e-09
3.60088e-09
-3.56929e-09
1.87389e-09
3.60591e-09
4.96046e-09
-1.5852e-09
-6.98117e-09
-7.60971e-09
2.44219e-10
2.63109e-10
7.10238e-09
2.98873e-11
6.9188e-09
-6.42162e-11
-6.88447e-09
6.59375e-09
-6.58416e-09
2.02929e-11
-9.95281e-11
-6.06195e-10
8.43971e-11
6.21326e-10
1.96673e-09
-5.91701e-10
-5.63532e-09
7.26567e-11
-4.871e-11
6.53911e-09
2.70422e-09
-2.64255e-09
-2.32172e-09
2.26004e-09
5.24814e-09
-1.77654e-10
-5.23299e-09
1.62505e-10
-3.10661e-10
1.13184e-09
7.03075e-09
-7.85192e-09
-1.68278e-09
8.89847e-10
-9.03189e-10
2.68142e-09
2.01375e-09
-1.99095e-09
-4.74527e-09
4.69359e-09
5.16807e-11
-3.29517e-12
-1.62662e-11
-6.64279e-09
-5.42516e-11
6.54032e-11
-1.35646e-10
-5.2631e-09
6.13946e-10
4.7848e-09
-2.30517e-09
4.45775e-09
7.20411e-09
-3.38759e-09
-3.43298e-09
4.34822e-09
2.47234e-09
-7.15279e-09
7.42458e-09
-3.95245e-10
1.23455e-10
-1.04118e-09
8.68925e-10
-5.04751e-09
-3.58638e-09
4.45035e-09
3.52709e-09
-4.39106e-09
5.12606e-09
-4.77728e-09
-3.48776e-10
4.86649e-09
-1.00757e-10
-3.53104e-09
-1.2347e-09
2.06986e-09
3.87508e-09
-3.86879e-09
-2.07615e-09
-6.50693e-09
6.5461e-09
-4.84877e-11
9.32274e-12
-5.21347e-09
2.85883e-09
-2.56943e-09
4.92408e-09
1.83238e-09
-3.37575e-09
-5.70545e-10
2.11391e-09
1.71801e-09
2.55255e-11
3.32737e-10
-5.06073e-09
5.07384e-09
1.90724e-11
-3.21816e-11
7.33017e-11
4.93002e-10
-9.13311e-11
-4.74973e-10
-6.28954e-09
-5.35651e-09
5.73836e-09
1.33933e-09
4.39457e-09
-4.11908e-09
-1.61483e-09
-4.81581e-09
2.34343e-09
-4.54991e-09
7.0223e-09
-1.9256e-10
6.39776e-10
-4.99584e-10
5.23674e-11
3.40694e-09
-4.77008e-09
-3.08081e-09
4.44396e-09
-3.2012e-09
3.30097e-09
2.39853e-09
-2.49831e-09
2.41068e-11
-4.76938e-09
5.90904e-09
1.67591e-09
-1.84657e-09
-5.73838e-09
6.22709e-09
-3.03911e-09
-3.99716e-09
8.09177e-10
4.76521e-09
1.61152e-09
-2.09618e-09
-4.28055e-09
7.8826e-09
1.01241e-09
-7.22566e-09
-1.66935e-09
3.0815e-09
2.57356e-10
-6.34687e-10
-2.70417e-09
8.14003e-09
-8.45069e-09
-4.26698e-10
7.14692e-11
4.2853e-10
-2.62588e-09
-2.50345e-09
2.48678e-09
5.23171e-09
-4.50271e-09
-4.62414e-09
3.89515e-09
-4.79392e-09
4.70073e-09
1.88973e-10
-9.57786e-11
5.53416e-09
-5.25825e-09
4.74089e-09
-5.01679e-09
-1.94964e-09
1.78307e-09
4.69825e-09
-4.53168e-09
-7.30348e-09
-2.69809e-09
2.94801e-09
5.05987e-09
-1.03527e-10
1.29306e-12
-4.95763e-09
2.84345e-09
-4.09341e-10
1.2937e-09
-3.72781e-09
6.26957e-09
-3.5572e-10
3.10314e-10
-6.22417e-09
-5.66093e-09
-2.67629e-09
3.12375e-09
-6.72597e-09
4.58983e-11
6.71346e-09
-3.3389e-11
-1.33041e-10
9.66478e-10
2.24806e-09
-4.99207e-09
5.01587e-09
3.18395e-11
-5.56367e-11
-6.92114e-10
-5.24442e-09
4.84339e-11
-6.34357e-09
-5.84108e-10
7.59939e-10
6.16774e-09
2.07025e-10
5.33219e-09
-4.20878e-10
-5.11833e-09
2.83902e-10
5.95931e-09
-6.10692e-09
-1.36285e-10
3.90043e-09
-3.43097e-09
-1.67951e-09
1.21005e-09
-3.13663e-09
-3.23705e-11
2.25845e-09
-5.2887e-09
-3.44053e-10
4.77449e-09
8.5826e-10
-6.43951e-10
7.19823e-10
-4.07251e-09
3.99663e-09
-1.80127e-09
8.78982e-10
-4.18573e-09
5.10802e-09
1.05127e-09
-8.94225e-09
8.55202e-09
-5.04409e-09
3.46329e-11
-5.1274e-11
3.22501e-09
-2.50962e-09
1.78379e-09
-2.49918e-09
1.65267e-09
-1.09396e-09
-3.59097e-09
3.03226e-09
-5.98628e-09
-8.16786e-10
6.11095e-09
-4.95205e-09
-1.68731e-10
4.791e-11
5.07287e-09
4.85028e-09
2.51882e-10
-1.15581e-10
9.41675e-09
8.29351e-10
-9.04956e-09
-1.19654e-09
-2.17328e-09
-3.8341e-09
4.17253e-09
1.83485e-09
1.06313e-10
-5.44946e-11
-6.51476e-09
7.85484e-12
-2.4971e-14
3.08602e-09
2.90982e-09
-2.09541e-09
-6.63548e-10
7.18007e-10
-4.76245e-09
4.70799e-09
-4.70326e-09
3.70989e-09
-3.9964e-10
1.39301e-09
1.08964e-08
-6.3668e-09
-7.28849e-09
2.75892e-09
-6.87643e-11
5.28006e-10
3.37604e-11
7.34957e-09
-2.32812e-09
1.7687e-09
-6.79014e-09
1.18665e-09
5.13597e-09
-1.15698e-09
-4.80345e-09
-2.40912e-10
9.23144e-11
5.78563e-09
-5.43193e-09
2.18303e-09
-2.53673e-09
-4.32109e-09
-7.83464e-10
4.4606e-09
5.78309e-09
-6.87625e-09
-1.45413e-10
1.23857e-09
-3.32465e-09
-3.10356e-09
2.71858e-09
3.70962e-09
4.9335e-09
-2.69672e-09
-3.38606e-09
1.14928e-09
-4.92219e-09
4.94313e-09
2.96519e-11
-5.05947e-11
6.56038e-09
-1.07332e-11
-4.2123e-12
-6.54543e-09
-4.80467e-09
4.8059e-09
-2.13217e-11
2.00891e-11
9.81164e-10
-1.7772e-09
-2.21891e-09
3.01495e-09
-5.49792e-10
2.51224e-09
1.26257e-09
-5.20706e-09
5.21176e-09
-1.07918e-11
6.09506e-12
-5.37237e-09
5.54317e-09
-2.28502e-10
5.77034e-11
-1.10629e-09
3.74631e-09
-5.63101e-10
-2.07692e-09
-4.84875e-09
4.83736e-09
-3.20601e-11
4.34483e-11
2.12028e-09
7.00512e-09
-7.3642e-09
-1.7612e-09
-4.90535e-09
4.88496e-09
-3.73238e-11
5.77143e-11
-5.20597e-09
5.17779e-09
-2.87141e-11
5.68945e-11
5.13944e-09
2.47837e-10
-2.18804e-10
4.05004e-09
-4.09469e-09
-3.54174e-09
8.74223e-10
-1.46551e-09
-1.00453e-08
5.13279e-10
-5.38697e-09
-3.82589e-10
5.25628e-09
-4.95861e-09
4.94559e-09
-3.31438e-11
4.61588e-11
-5.12096e-09
5.1075e-09
1.55886e-10
-1.42432e-10
-5.13048e-09
5.106e-09
-3.05344e-11
5.50121e-11
-4.99044e-09
4.98308e-09
-2.76055e-11
3.49621e-11
2.84999e-09
-3.98724e-09
2.09941e-09
-9.62157e-10
-5.05467e-09
5.0368e-09
-3.40586e-11
5.1929e-11
-1.19663e-09
2.78654e-09
-2.69619e-09
-2.33476e-10
-5.12392e-09
5.3574e-09
-2.15971e-09
6.89436e-10
-6.27497e-10
2.09777e-09
-1.82106e-11
4.70269e-09
-4.68448e-09
-1.6533e-11
-6.11112e-11
6.76549e-09
-1.786e-10
5.30466e-09
3.16344e-09
2.72278e-09
-2.85173e-09
-3.03449e-09
-1.84438e-09
9.2777e-10
-9.98642e-10
1.91526e-09
-1.43114e-11
4.54595e-13
-4.76738e-09
5.91871e-11
-1.42085e-10
4.85028e-09
3.11027e-09
-2.69008e-09
1.63397e-09
-2.05415e-09
-4.10447e-10
7.60437e-11
-9.22944e-11
-5.52542e-09
4.18635e-09
-6.10572e-10
4.35846e-09
-4.33983e-09
-1.86297e-11
-3.68183e-09
3.7607e-09
1.7535e-09
5.22236e-09
5.73455e-11
-3.15663e-11
-2.24744e-10
-3.33961e-09
3.56435e-09
8.34705e-09
-5.48387e-09
-3.36372e-09
5.00536e-10
1.88089e-09
2.1482e-10
-3.29234e-09
-3.50693e-11
1.95034e-10
5.03225e-09
-5.19221e-09
-1.01831e-09
1.09133e-09
9.86767e-10
-1.05979e-09
-3.42892e-11
2.56102e-10
-2.18307e-11
-1.99982e-10
-1.16622e-09
-3.32031e-09
1.60848e-09
-6.50857e-09
1.75005e-12
-7.93998e-12
-4.66883e-09
-3.06763e-10
1.72143e-10
4.89148e-09
-8.46727e-11
1.66058e-10
3.27939e-11
-9.86675e-11
6.28534e-11
-2.82419e-11
5.03923e-09
-2.04386e-10
1.92189e-10
-6.24376e-09
6.25596e-09
-9.378e-11
-5.48085e-09
5.57463e-09
-8.88274e-10
8.71372e-10
-1.00141e-09
7.07917e-09
-4.86771e-10
1.65538e-10
6.2016e-10
-1.14533e-10
-1.8976e-09
1.39197e-09
7.72102e-11
1.6913e-10
-6.56214e-11
-1.80719e-10
-4.96085e-09
2.44383e-11
-5.56642e-11
2.60904e-09
-2.37183e-09
-5.84396e-09
5.60675e-09
1.90872e-10
-9.33166e-11
2.70516e-09
-2.20105e-09
-5.04112e-10
-1.49529e-09
9.42378e-10
7.70405e-09
-6.49047e-09
-5.12714e-11
6.52353e-09
-4.32579e-10
2.4415e-10
-4.4804e-09
-1.30747e-09
1.79306e-09
-5.18885e-09
-6.07847e-09
6.01428e-09
-1.40199e-10
1.63608e-11
1.5819e-11
-3.21797e-11
-6.40646e-09
7.29559e-10
6.36876e-09
-5.02827e-09
1.40707e-09
2.85749e-09
7.63707e-10
5.05856e-09
5.44916e-10
-4.10079e-09
-1.50269e-09
5.20812e-09
4.10785e-09
-5.21675e-09
3.49217e-11
-2.41444e-11
3.36454e-09
5.67971e-09
-5.46693e-09
-3.57732e-09
-6.0938e-09
-5.62648e-09
5.43074e-09
-7.47809e-09
1.6684e-09
-1.53386e-09
7.34355e-09
1.01642e-11
6.60769e-09
1.05535e-11
-1.55434e-11
3.51266e-09
5.25178e-09
-2.55782e-09
3.88852e-09
-8.83582e-11
-4.2056e-09
4.05434e-10
6.91225e-11
-1.27201e-10
-3.52368e-10
-1.99258e-10
2.48115e-11
-4.98963e-11
2.24343e-10
1.3904e-10
-5.41907e-09
5.41774e-09
-1.37706e-10
3.23379e-09
-2.94519e-09
3.24621e-09
-3.5348e-09
-6.4742e-09
-6.1968e-11
4.5698e-11
-5.11046e-09
-6.82579e-10
5.31174e-09
4.81297e-10
1.62483e-09
-4.50022e-09
-1.77869e-09
4.65408e-09
-1.09747e-11
8.30501e-12
6.56305e-09
8.14474e-09
-6.8754e-09
-7.63974e-10
-5.0537e-10
6.22572e-09
-6.1442e-09
1.10678e-10
4.62939e-09
-4.75718e-09
-5.79788e-11
1.85766e-10
2.30759e-10
6.44295e-09
-4.47996e-10
-4.52602e-09
-7.78276e-11
8.11166e-11
4.52273e-09
-4.37186e-09
1.98136e-09
3.82409e-09
-1.43358e-09
4.72195e-09
-1.92531e-11
-9.43508e-09
-2.46732e-10
8.79357e-09
8.88239e-10
-5.88716e-09
-4.43702e-09
5.18933e-09
-4.53892e-09
3.45735e-11
4.49994e-09
4.41502e-12
-2.3514e-10
5.16657e-09
-5.04655e-09
1.15126e-10
1.5351e-09
6.98247e-09
-8.45513e-09
-6.24362e-11
1.74896e-10
-1.51463e-10
2.20557e-11
-4.54887e-11
-2.90444e-11
4.3875e-09
6.43338e-09
-6.42177e-09
-5.36626e-11
4.20512e-11
-4.15871e-09
-4.64226e-11
4.20514e-09
6.18324e-09
-5.09912e-10
3.58887e-10
-6.03222e-09
4.17178e-09
-2.43834e-09
-3.90672e-09
3.13981e-11
-7.2223e-11
1.17414e-08
7.11449e-10
-4.57029e-09
4.69252e-09
-3.36626e-09
1.56462e-09
-2.89088e-09
5.90717e-09
1.19847e-09
-1.45391e-09
-5.65173e-09
-3.32506e-09
2.98469e-09
1.39442e-09
-1.05405e-09
-1.23674e-10
-6.42555e-09
5.0353e-11
6.49887e-09
-6.34093e-09
6.35819e-09
-5.33295e-11
3.60739e-11
6.24625e-09
-2.82639e-11
9.60467e-11
-6.31403e-09
-6.45817e-09
8.70649e-11
6.8084e-09
-4.37291e-10
8.11266e-10
-8.98994e-10
-8.00546e-10
-5.15678e-09
5.441e-11
-2.8109e-11
-4.77317e-11
2.33697e-11
-4.46353e-09
1.21746e-09
4.8709e-09
-3.17955e-09
-2.73731e-09
3.73238e-09
2.18448e-09
-2.15339e-10
2.39771e-10
-2.44325e-11
2.66514e-09
-2.56113e-09
-2.72989e-09
-1.60005e-09
-5.35814e-09
7.01119e-10
6.25707e-09
-6.27859e-09
6.29507e-09
-3.59656e-11
1.94893e-11
2.91768e-09
-5.07466e-09
4.22684e-09
4.42608e-11
-6.23625e-09
6.21851e-09
-2.65191e-11
-5.38504e-09
1.30487e-10
5.39359e-09
-1.91978e-09
-3.54121e-09
1.48654e-09
3.97445e-09
3.70644e-09
-3.74151e-09
6.38821e-09
-6.38448e-09
-2.50004e-11
2.12756e-11
-6.39526e-09
-6.0981e-11
3.44762e-11
-6.0807e-11
3.25873e-11
1.45121e-09
-4.23955e-09
-2.23993e-09
-1.98529e-09
4.23855e-09
-1.28016e-09
1.28038e-09
1.09111e-09
-1.74105e-09
1.98405e-09
-3.16334e-09
2.92033e-09
1.68469e-11
-2.25155e-10
-5.36735e-09
5.57566e-09
-6.37801e-09
1.92356e-10
-1.73494e-10
6.35915e-09
-4.89181e-09
2.75465e-11
-5.79208e-11
-1.29183e-10
2.09331e-11
-4.32138e-11
-5.22912e-09
5.39422e-09
2.44884e-09
-2.61394e-09
-2.60508e-09
-8.36251e-09
5.48372e-09
5.50074e-09
5.40182e-10
-2.5783e-10
4.1784e-09
-3.28857e-09
-1.47983e-09
5.90001e-10
4.94865e-10
5.94014e-09
-2.84842e-09
-3.58658e-09
-4.40058e-09
-4.80754e-11
3.27616e-11
4.4159e-09
-7.84878e-09
4.63369e-09
-3.87134e-09
7.08642e-09
2.3334e-09
-2.4473e-09
-4.74964e-09
4.86354e-09
6.18306e-09
-2.21742e-11
-6.17441e-09
1.353e-11
-2.28116e-09
1.95273e-09
2.65758e-10
3.72477e-09
-1.3403e-11
-3.97713e-09
1.07484e-10
4.51267e-09
9.23128e-12
-6.22082e-12
-6.0305e-09
6.02456e-09
1.21598e-11
2.28204e-09
-3.34797e-09
1.63924e-09
-5.7332e-10
1.86154e-10
-3.97319e-09
4.2338e-09
-4.46764e-10
2.00159e-11
-4.17782e-11
-1.0742e-10
4.95714e-09
5.6039e-10
-9.92267e-10
-4.52526e-09
3.04142e-09
-2.65221e-09
-3.17164e-09
2.78243e-09
-4.91345e-09
4.05684e-10
4.14828e-09
3.59489e-10
2.75867e-09
-1.46411e-09
1.09489e-09
-2.38946e-09
-4.52404e-09
5.07875e-09
2.52148e-09
-6.39888e-09
-1.78353e-09
-1.5192e-09
2.27959e-09
2.92732e-09
-3.68771e-09
-2.29372e-09
-7.70357e-10
9.04371e-10
2.47194e-09
-2.82984e-09
-2.32092e-09
2.67883e-09
5.30279e-11
-3.20158e-11
3.68045e-09
-3.47342e-09
-2.24129e-09
-4.7719e-09
3.01736e-09
3.99583e-09
4.23157e-09
-4.20872e-09
-2.28557e-11
6.29115e-10
2.2927e-09
-1.76624e-09
-1.15557e-09
-2.03881e-09
6.14552e-10
2.05338e-09
-5.08154e-09
5.60519e-11
-2.91881e-11
-6.31611e-09
-5.55154e-11
3.06971e-11
2.94224e-09
3.1204e-10
-2.46553e-09
4.07223e-09
7.09859e-10
-3.96727e-09
-8.14829e-10
-3.85596e-10
7.49568e-10
-3.63972e-10
-1.43352e-09
-2.7606e-09
2.57219e-09
1.62194e-09
-5.24469e-09
4.63793e-09
5.8099e-10
2.57771e-11
2.06439e-10
1.58225e-09
-1.96791e-11
-1.76901e-09
-7.44286e-11
-3.71939e-09
3.79382e-09
2.85701e-11
-6.56446e-11
6.25084e-09
8.22071e-10
-2.08284e-10
-6.86463e-09
5.6006e-09
-6.61772e-09
4.26986e-09
-3.25274e-09
-1.31458e-09
5.04057e-09
-5.32604e-09
-1.38225e-09
-3.99397e-09
1.6944e-09
5.52996e-09
-5.03398e-10
-5.07438e-09
4.78188e-11
4.23586e-09
7.57935e-11
-3.16514e-12
-4.30849e-09
-1.25645e-09
1.22856e-09
-6.24519e-09
6.27308e-09
-1.40974e-09
-3.53141e-09
1.61609e-09
-3.29632e-09
1.49503e-09
3.09253e-09
-1.29124e-09
-4.03221e-11
-6.02916e-09
6.05493e-09
1.45579e-11
-4.10015e-10
1.45722e-09
-2.25323e-09
1.20603e-09
2.59e-10
5.2014e-09
-4.78386e-09
-6.76539e-10
-3.64005e-09
1.92088e-09
-2.11493e-09
3.25922e-09
6.16678e-09
-3.35903e-09
-6.06697e-09
2.15442e-09
4.67576e-09
-2.01293e-09
-4.81725e-09
-4.00307e-09
6.12603e-09
1.5987e-09
-3.72166e-09
-2.21249e-09
2.33234e-09
2.92157e-09
7.40962e-09
-1.38348e-09
-7.02897e-09
1.00283e-09
-7.06734e-09
7.26946e-09
-1.92826e-09
1.72614e-09
6.20858e-09
-6.18273e-09
-3.20681e-11
-1.90046e-09
1.68219e-09
4.24711e-10
-2.61575e-09
2.50586e-09
-1.61148e-09
1.78181e-10
4.10166e-09
-4.27984e-09
-1.95551e-10
2.15741e-10
-8.71862e-10
8.51672e-10
5.13433e-09
-4.09116e-09
-1.85175e-09
1.43531e-09
4.04483e-09
-5.29399e-09
-5.65732e-09
5.42355e-09
1.13214e-09
-8.98368e-10
-4.69104e-11
2.91924e-11
1.4023e-10
-1.45481e-09
-6.26251e-09
-3.20271e-11
1.59456e-11
2.14683e-09
-9.27095e-09
-3.53961e-10
1.71553e-09
-7.53213e-10
-9.62317e-10
-2.18648e-09
6.80834e-09
3.96681e-10
-5.01855e-09
2.72816e-09
3.72363e-09
-4.23e-09
4.28238e-09
-5.23829e-11
-1.54894e-09
-8.29966e-09
7.11826e-09
2.73034e-09
2.45202e-09
-2.63171e-09
3.18733e-09
-3.00764e-09
-4.30298e-09
1.50976e-11
4.28788e-09
6.57347e-10
4.38322e-09
1.61632e-09
6.01912e-10
-2.21823e-09
-8.10357e-11
5.98745e-09
-8.46548e-10
-8.27153e-10
-7.70674e-09
7.22304e-09
1.31086e-09
4.36049e-11
-5.39357e-09
-2.95428e-11
5.37951e-09
2.10667e-09
-1.25083e-09
-8.5584e-10
-5.00832e-09
3.98207e-11
-2.19383e-11
4.67067e-09
-4.64614e-09
1.21058e-11
-3.66306e-11
-2.126e-10
-5.58236e-09
4.3862e-10
5.35634e-09
8.33128e-09
-1.27976e-09
-5.12739e-09
5.20773e-09
-1.3494e-10
5.45945e-11
-3.15131e-09
-1.58209e-09
3.82242e-09
-3.16497e-09
-1.42761e-10
3.30773e-09
2.26429e-09
-3.12024e-09
4.11314e-09
-3.25719e-09
7.91277e-09
1.78806e-10
2.29511e-09
4.04822e-09
-3.38213e-09
-2.9612e-09
5.16029e-09
-5.28043e-09
-9.24575e-11
4.00311e-10
-1.05248e-09
1.46328e-09
-8.11113e-10
-2.15715e-09
-1.54569e-09
8.39725e-10
2.86312e-09
5.65306e-09
-5.01342e-09
3.28479e-11
-1.29561e-10
4.91431e-10
-2.43208e-09
-7.1442e-10
2.65507e-09
1.71769e-10
2.44053e-09
-1.63114e-09
3.78332e-11
-9.4257e-11
1.90522e-10
-1.34098e-10
-3.28629e-09
3.66869e-09
-3.99539e-09
3.61299e-09
6.01794e-09
-1.70629e-11
-1.11441e-12
-5.99977e-09
-8.50577e-11
1.04153e-10
-1.90952e-11
-2.20356e-09
7.79058e-09
-8.10832e-09
2.5213e-09
-2.29078e-09
2.40349e-09
4.52829e-09
-4.641e-09
5.05606e-11
5.37789e-09
-5.38485e-09
2.97123e-10
5.34127e-09
-1.37656e-10
-2.50713e-10
-2.07682e-09
1.91752e-09
-1.42999e-11
4.68713e-12
2.05601e-10
-1.95988e-10
-4.20118e-10
-7.64202e-09
-3.95265e-12
-4.22605e-09
-1.24895e-11
6.03421e-09
4.9702e-11
-6.07143e-09
6.23813e-09
-3.29914e-11
1.78245e-11
-6.22296e-09
6.31493e-11
-6.38455e-09
6.41154e-09
-9.0144e-11
-2.04137e-09
6.29419e-10
-6.26859e-10
-3.06604e-09
1.62302e-09
-3.80167e-09
-2.23903e-09
8.28674e-09
-8.66991e-09
2.6222e-09
-6.05487e-09
6.6972e-12
6.09244e-09
-1.52821e-09
2.0484e-10
2.51395e-09
-4.1696e-09
6.74355e-11
1.58821e-09
6.07648e-09
-1.92729e-09
-3.77767e-09
-3.71518e-10
-1.15984e-09
-3.6106e-09
1.33946e-09
-4.97255e-11
1.71818e-11
6.74068e-11
-3.4863e-11
3.13993e-11
6.50179e-09
-6.47004e-09
2.74173e-11
-4.84643e-11
5.24675e-11
-2.80039e-11
1.78408e-10
-5.02992e-09
1.12792e-09
3.72359e-09
9.6538e-10
-2.06408e-09
-3.81475e-09
-2.5302e-12
2.67468e-12
-2.08509e-10
2.08364e-10
-1.64165e-09
-6.05712e-09
2.04145e-09
-1.86757e-09
-2.89219e-10
-2.2319e-09
-9.39533e-10
-4.13104e-10
2.35456e-09
1.04323e-09
-6.37254e-09
6.41439e-09
6.4376e-10
-6.85611e-10
-3.32675e-09
8.39083e-10
4.4495e-09
-1.96183e-09
-2.97669e-09
-6.66934e-10
4.18655e-09
-5.42923e-10
-1.37069e-10
8.0623e-11
8.71395e-10
1.21774e-10
-8.8204e-10
4.38462e-11
7.1642e-10
-6.21178e-09
6.22719e-09
-5.57286e-11
3.44784e-10
-3.0755e-10
3.11114e-11
-6.83453e-11
-3.88682e-09
-6.63452e-09
1.46172e-09
9.05962e-09
-3.60772e-09
-5.66309e-09
5.96952e-09
3.3013e-09
2.89219e-09
2.15852e-10
-2.61662e-09
4.6243e-09
-3.01005e-09
1.44226e-09
-3.05652e-09
-5.93442e-09
2.21452e-11
-5.97667e-11
5.97204e-09
6.46957e-10
-7.117e-10
1.86518e-10
-5.07229e-09
1.44605e-09
-1.86984e-10
3.81323e-09
1.22375e-09
-2.90354e-09
-7.56247e-10
2.43604e-09
-4.5505e-09
-6.0951e-09
6.64253e-09
-1.53853e-09
3.70199e-10
3.07018e-09
-1.90185e-09
1.0177e-10
-6.37654e-09
6.27081e-09
2.59997e-09
7.0826e-09
-7.91175e-09
-1.77082e-09
3.47841e-09
-5.90643e-10
5.44673e-11
-6.58152e-10
2.30518e-09
4.3019e-09
2.60102e-09
-1.19011e-09
4.52178e-09
-5.93268e-09
-6.41313e-09
6.35338e-09
1.06134e-10
-4.63839e-11
-5.35092e-09
5.36028e-09
1.47442e-11
-2.41042e-11
-1.7044e-10
1.88923e-10
2.91583e-10
-7.52519e-09
-8.31607e-09
3.06726e-09
1.02771e-09
-2.56767e-09
-1.78679e-09
5.24837e-09
-1.84816e-10
9.64606e-11
-5.16001e-09
3.77761e-09
-4.04914e-09
5.65955e-09
-5.38802e-09
-3.03906e-09
2.35035e-09
-2.11058e-09
2.79929e-09
5.51262e-09
2.36714e-09
-4.45418e-09
-3.42557e-09
-1.96445e-10
8.57156e-10
-8.56262e-10
-3.45808e-09
-3.612e-09
3.51467e-09
3.5554e-09
5.699e-10
2.76089e-09
-1.22206e-09
5.87079e-09
5.33149e-09
5.53277e-09
-5.47035e-09
-3.76155e-09
-3.31927e-09
3.62273e-09
1.30795e-08
-4.3596e-09
-5.46072e-09
2.60349e-09
-2.96812e-09
-3.51072e-09
3.87535e-09
-3.68035e-09
4.27578e-09
-2.64925e-09
2.05383e-09
-5.5726e-11
1.40758e-10
3.5565e-11
-1.20597e-10
-4.22565e-09
3.64639e-09
-3.53832e-09
4.11759e-09
-3.53139e-09
3.62293e-09
-9.15326e-11
-5.36486e-09
5.39437e-09
-3.11844e-12
-2.63889e-11
1.358e-09
4.52136e-10
-6.39884e-10
-1.17025e-09
9.86702e-11
-6.78209e-10
-1.61588e-10
3.77907e-09
-1.0836e-09
8.94554e-10
-3.59003e-09
-5.64868e-09
-9.23226e-11
5.51342e-09
2.27582e-10
-1.43856e-09
2.27871e-09
5.23633e-09
3.73714e-10
-3.28968e-10
6.83099e-10
-7.27846e-10
3.41898e-10
-3.29729e-11
3.57959e-09
-5.9838e-11
-4.87371e-09
4.17384e-11
3.94883e-10
7.36972e-09
-5.61777e-09
1.59179e-09
4.0186e-09
-3.68399e-09
-1.9264e-09
-1.15404e-11
-1.46112e-09
-3.75646e-09
1.68374e-09
-2.0796e-09
-7.62564e-10
1.15843e-09
-4.09337e-09
3.74002e-09
-3.87231e-09
-4.11872e-09
4.34782e-09
3.94944e-09
-4.17854e-09
-1.76737e-11
-4.26326e-09
4.28094e-09
5.86142e-09
-2.27609e-09
2.98836e-09
-5.23857e-09
-9.69132e-10
3.21934e-09
4.76255e-09
1.94973e-11
-4.53264e-11
-4.73672e-09
-6.80155e-11
4.82579e-09
-4.79896e-09
4.11869e-11
-1.078e-09
1.45089e-09
5.61036e-09
-5.98324e-09
2.51265e-10
8.85218e-10
-9.20742e-10
4.5882e-10
2.64987e-09
-1.00175e-09
1.36343e-09
-3.01155e-09
-1.46581e-09
6.89279e-09
-6.92703e-09
1.50005e-09
4.5406e-10
-8.85669e-09
-1.41675e-09
-4.42143e-09
2.04532e-09
2.80963e-09
-2.58826e-09
2.42595e-09
-2.64732e-09
-7.49081e-12
1.2758e-11
-1.5669e-10
1.51423e-10
2.07548e-10
-1.14442e-10
1.54992e-09
4.07096e-10
-5.99014e-10
5.35627e-09
-5.36973e-09
-2.59849e-11
3.9444e-11
5.22161e-09
-5.01315e-09
1.89821e-09
5.15157e-09
-7.35443e-11
1.44336e-10
-5.3985e-09
-4.10953e-11
4.60239e-11
-2.35388e-11
2.88931e-11
2.39318e-09
4.99459e-11
-4.14506e-11
-2.40168e-09
4.41771e-09
-2.2545e-09
-2.16321e-09
3.67742e-09
-3.11703e-09
1.99051e-09
-2.04431e-09
7.43239e-10
-6.9756e-09
-1.35611e-09
7.41097e-09
9.20739e-10
-3.89323e-11
-5.92608e-09
3.0593e-11
4.26438e-09
-3.28084e-11
-5.12245e-09
-1.18383e-09
1.98912e-09
4.31716e-09
-4.31547e-09
1.71912e-11
4.06161e-10
4.21457e-09
-6.484e-09
2.76868e-09
3.71532e-09
6.06498e-11
3.25585e-09
-1.861e-09
-1.4555e-09
6.28701e-09
5.73089e-09
-8.49161e-09
2.18283e-09
4.8103e-09
-1.76143e-09
-4.27891e-09
-8.30602e-10
4.44596e-09
-7.27746e-09
6.13535e-09
1.23788e-11
-3.67593e-11
-1.49417e-09
-3.64328e-09
3.70304e-09
1.43441e-09
3.92503e-09
-5.33556e-09
-3.1623e-11
5.93536e-09
5.69826e-11
-5.96072e-09
1.84883e-09
-3.27157e-09
-1.61632e-09
-4.17203e-09
3.71495e-09
2.45738e-09
-2.00031e-09
-4.80099e-09
4.90655e-09
-1.81651e-09
1.71095e-09
1.3567e-10
-7.71915e-11
-1.1559e-10
5.71118e-11
9.70765e-10
-7.93496e-10
-4.64716e-09
1.45895e-10
-3.76604e-11
-1.20036e-09
3.98451e-10
1.25404e-09
-4.02236e-09
2.83406e-09
4.10599e-09
4.28489e-10
8.55585e-10
-1.66967e-09
-2.07648e-09
2.40985e-09
-3.33367e-10
-6.73818e-10
1.33393e-11
-2.21561e-10
5.86028e-09
4.7579e-11
-5.88577e-09
-2.20878e-11
-3.01436e-09
3.16285e-09
-2.32683e-09
2.17834e-09
5.06188e-09
1.75409e-10
-8.5715e-11
6.59986e-10
2.56089e-09
-1.50287e-09
-2.46585e-11
5.83842e-09
4.65115e-11
-2.78909e-10
-4.76255e-09
9.82753e-11
-1.47471e-10
4.81175e-09
-3.89375e-09
-2.43939e-09
9.32261e-10
5.40088e-09
6.84838e-09
-7.44324e-10
4.58829e-09
2.00196e-10
1.44066e-10
-4.93255e-09
1.32981e-11
7.02611e-09
-6.94846e-09
-9.09477e-11
5.21158e-11
-2.36301e-11
-7.05095e-10
2.49906e-09
-2.26906e-09
4.75094e-10
-6.3229e-09
6.28911e-09
-1.17731e-11
4.55575e-11
3.80421e-09
5.29885e-09
-4.80206e-09
-4.301e-09
5.00755e-11
-3.26308e-09
3.25441e-09
-4.14049e-11
-3.37892e-09
2.39647e-09
-1.99424e-09
-1.00203e-10
1.53773e-10
5.83154e-10
-5.39096e-09
3.53626e-10
2.5344e-09
-3.42136e-09
1.63653e-09
7.48015e-10
-6.95833e-10
3.43875e-10
-3.96057e-10
-5.44189e-09
3.19942e-10
4.89589e-09
-3.70532e-09
5.42583e-11
-6.14843e-09
6.14175e-09
-6.42995e-09
6.36587e-09
7.19491e-11
-7.87159e-12
-1.01829e-10
5.04555e-09
2.16567e-10
7.94803e-09
-8.38994e-09
9.54952e-11
3.46423e-10
-5.37009e-09
-2.97391e-11
3.00939e-11
-4.32546e-11
2.17615e-10
2.21882e-09
-1.80474e-09
-6.93225e-09
4.08469e-09
-4.06623e-09
-1.84617e-11
-3.11131e-09
3.19507e-09
-3.1498e-09
-6.26609e-09
6.24201e-09
-1.6021e-11
4.00954e-11
2.54763e-09
5.21378e-09
-4.20024e-09
-3.56117e-09
-5.09681e-09
4.84444e-11
-1.05046e-10
5.15341e-09
-5.61606e-09
-2.69614e-09
-2.66203e-10
8.5784e-09
5.39005e-09
-8.33964e-10
-4.55608e-09
3.0698e-11
-4.18941e-09
-5.47714e-09
3.83475e-10
2.3539e-09
-4.09542e-09
-1.16838e-09
2.9099e-09
-8.92625e-09
-1.62885e-09
1.09014e-09
-6.46036e-09
-2.86457e-09
8.23479e-09
2.7817e-09
-5.49063e-10
-2.11144e-09
-1.21194e-10
6.95485e-09
-1.56554e-09
2.10851e-09
-7.49782e-09
2.7389e-10
-6.33356e-09
-9.08518e-09
6.77715e-09
3.90323e-09
-1.5952e-09
-9.80503e-10
2.7921e-10
9.52558e-10
-2.46776e-09
-7.12284e-09
2.28713e-09
3.27362e-09
-3.21266e-09
2.49823e-10
-3.10785e-10
-6.22066e-09
6.20232e-09
-2.00263e-11
3.83633e-11
-6.48445e-09
-3.40374e-09
3.04573e-09
9.44382e-10
5.06892e-09
-2.3034e-09
-3.74341e-10
3.56846e-09
-3.60722e-09
-4.58298e-10
-1.80673e-09
-9.97175e-10
-6.93504e-11
1.24738e-09
-1.8085e-10
5.89059e-09
-2.57784e-11
9.64119e-12
-5.87445e-09
2.25868e-09
-5.26198e-09
8.85025e-09
-5.84695e-09
-6.78101e-09
6.81574e-09
-5.12643e-11
-1.23832e-09
3.20215e-09
-1.90318e-09
5.29053e-09
-3.22149e-10
-1.16018e-09
1.14403e-09
3.38306e-10
-9.34986e-09
7.01906e-09
7.81867e-10
3.90472e-09
-2.56629e-09
-4.62472e-09
5.80803e-10
-4.96761e-10
2.44636e-10
-3.28677e-10
-2.10401e-09
-6.44239e-09
6.74165e-09
-7.43343e-09
6.78564e-09
1.976e-10
1.20779e-10
-7.10402e-09
6.16127e-09
-6.18082e-09
-1.85565e-11
3.81096e-11
4.93335e-09
-1.02748e-10
1.65354e-10
-4.99595e-09
-8.66784e-11
-3.44472e-09
2.90449e-09
1.8463e-10
-4.0311e-10
-2.68601e-09
1.02402e-09
1.41077e-09
3.46903e-10
9.19961e-11
-1.6851e-10
-5.05087e-09
7.35316e-09
-4.79745e-09
-3.81216e-09
4.57501e-09
-4.03007e-09
2.8196e-09
-6.10878e-09
-6.84166e-11
6.13827e-09
-6.56445e-09
6.58212e-09
-5.06626e-11
-2.28125e-10
-8.62835e-10
9.37851e-11
-5.82549e-09
1.72126e-11
-4.49656e-11
5.85324e-09
4.23968e-09
-4.2713e-09
-4.02114e-09
3.37384e-09
3.0012e-09
3.27824e-11
6.55623e-10
-4.14486e-11
8.91422e-09
-9.14393e-09
1.04737e-09
-8.17658e-10
-3.59567e-09
3.52766e-09
-2.81533e-09
2.14887e-09
1.662e-09
-9.95539e-10
2.74324e-09
-3.33783e-09
1.70093e-09
-2.04345e-09
7.50916e-09
-7.77289e-09
-1.67392e-09
1.93764e-09
-1.08111e-08
-1.75107e-09
8.01168e-09
-2.95326e-09
-7.49048e-10
5.00593e-09
-1.30362e-09
5.61314e-09
-1.19029e-09
-1.88721e-09
-3.76611e-09
3.71584e-09
1.93748e-09
-4.74047e-09
-4.43396e-10
-1.74268e-10
1.31459e-10
-5.74742e-09
6.31708e-09
-5.1259e-11
-6.78046e-09
6.84501e-09
3.48689e-09
-3.58394e-09
3.76574e-09
3.53719e-09
-2.86149e-09
3.20059e-09
-4.36146e-09
2.16376e-09
-3.66198e-10
-1.48552e-09
1.02836e-09
-1.64387e-09
1.63953e-09
-2.19795e-09
2.03965e-09
-2.35133e-09
3.35661e-09
-3.28773e-09
1.63278e-09
-1.70166e-09
1.55038e-09
-2.15327e-09
-3.60158e-09
4.20447e-09
-6.54996e-09
9.63693e-11
2.36344e-11
5.35356e-09
-3.54663e-09
-1.81915e-09
1.22215e-11
5.38792e-09
-1.27776e-10
7.20445e-11
-5.03755e-10
4.59672e-09
-4.09296e-09
3.32198e-09
-4.82723e-09
2.47062e-09
-5.78599e-09
5.80688e-09
2.6831e-11
-4.77184e-11
-9.33821e-10
-4.40731e-09
6.00659e-10
8.15399e-09
2.29424e-09
-2.068e-09
-4.76945e-10
1.0016e-11
1.70547e-10
-9.05851e-12
-1.71505e-10
-2.46686e-10
1.49973e-09
-1.87738e-09
6.2434e-10
-2.14944e-09
1.6686e-09
3.23952e-09
7.13173e-09
-1.74169e-09
-1.38087e-09
1.46547e-09
-8.45967e-11
3.01346e-09
-3.06726e-09
-2.53445e-09
-6.72342e-10
-2.52749e-09
1.53923e-09
1.66059e-09
-2.16682e-11
3.33395e-11
-5.8213e-09
5.80963e-09
-2.12719e-11
-4.12073e-09
4.142e-09
1.67469e-10
6.82169e-11
2.70852e-09
1.22841e-09
-2.73528e-09
-1.20166e-09
2.06414e-09
-2.07709e-09
-4.58751e-09
2.51482e-09
-4.88609e-10
2.56129e-09
-1.71875e-11
1.26015e-11
5.18219e-10
-3.75095e-11
1.81353e-09
1.76199e-09
-8.25604e-10
-3.88633e-09
2.94995e-09
-6.94652e-09
6.88849e-09
-2.64005e-09
-1.98436e-10
2.93912e-09
-3.56062e-09
6.1274e-09
-5.50591e-09
-3.39641e-09
-4.20573e-10
4.32551e-09
-5.08523e-10
-1.96788e-09
-3.43929e-09
3.54616e-09
-2.2863e-09
2.76386e-09
-2.54164e-09
4.55312e-10
-6.30781e-11
4.11278e-09
-2.47969e-09
2.07687e-09
-3.70996e-09
4.46898e-09
-2.99612e-09
8.05846e-10
5.39729e-09
-2.48114e-09
-5.59244e-09
-3.74398e-09
4.98287e-09
4.5449e-11
-1.28434e-09
-6.19609e-09
2.61282e-11
6.20487e-09
-3.49091e-11
3.44008e-10
-3.076e-10
1.89884e-10
-2.26291e-10
4.73582e-09
-4.74655e-09
-2.96063e-10
1.17718e-09
-1.20327e-09
-4.12611e-09
4.10444e-09
-2.11307e-09
-4.78258e-09
1.7732e-09
-2.16667e-10
-7.99563e-10
-8.06895e-09
-6.31603e-09
6.58551e-09
4.40466e-12
2.81971e-09
7.41657e-09
6.60082e-10
6.14918e-09
-3.22149e-09
3.00188e-09
-5.92958e-09
-7.33235e-09
6.88538e-09
3.35953e-09
-2.91256e-09
2.9974e-11
6.77442e-10
1.8173e-10
3.66979e-09
-3.85152e-09
1.87197e-11
-3.17535e-11
-2.70476e-11
4.04902e-09
-4.02197e-09
-9.15059e-10
-4.13594e-09
7.72091e-10
-3.5181e-09
-2.686e-09
4.29862e-09
-2.66693e-09
2.79857e-09
6.0827e-09
-6.21434e-09
2.91735e-09
9.36283e-10
-2.1699e-09
4.92434e-09
-4.2772e-09
4.5463e-09
1.78145e-09
-1.64122e-09
9.43861e-10
-6.2224e-10
-3.13695e-09
-2.22364e-10
5.59756e-09
-8.86382e-09
-8.85148e-10
8.49273e-09
-4.86877e-09
1.08064e-09
-1.32233e-09
1.29503e-09
-2.8586e-09
2.52272e-09
-9.59154e-10