/*--------------------------------*- C++ -*----------------------------------*\
  =========                 |
  \\      /  F ield         | OpenFOAM: The Open Source CFD Toolbox
   \\    /   O peration     | Website:  https://openfoam.org
    \\  /    A nd           | Version:  8
     \\/     M anipulation  |
\*---------------------------------------------------------------------------*/
FoamFile
{
    version     2.0;
    format      ascii;
    class       volVectorField;
    location    "4.8";
    object      U;
}
// * * * * * * * * * * * * * * * * * * * * * * * * * * * * * * * * * * * * * //

dimensions      [0 1 -1 0 0 0 0];

internalField   nonuniform List<vector> 
6388
(
(0.000941288 1.68948e-05 1.28503e-21)
(0.000923953 5.11369e-06 0)
(0.000155471 -1.87551e-05 0)
(0.000863196 0.000320693 -5.15684e-22)
(0.000745319 0.00133883 3.59888e-21)
(0.000643342 0.00109634 -2.64857e-23)
(0.000446542 0.000464929 2.45138e-21)
(0.000611521 0.000785084 2.41376e-21)
(0.000348161 0.000263464 -1.05103e-21)
(0.000120119 0.000644109 0)
(0.000606902 0.00114676 0)
(8.77921e-05 0.000664373 0)
(0.000584439 0.000596356 1.49788e-25)
(0.000662736 0.00120034 2.68343e-21)
(0.000481668 0.000565584 3.58341e-21)
(0.000602586 0.000698785 0)
(0.000542506 0.000887754 2.75193e-21)
(0.00061946 0.00111057 -3.16535e-23)
(0.000278386 0.000570291 0)
(0.000140401 0.000453439 2.74944e-24)
(0.00050569 0.00069558 -1.27947e-21)
(0.000660374 0.000806501 0)
(0.000649593 0.00119641 -1.10431e-21)
(0.000800707 0.00132782 1.08327e-21)
(0.000680634 0.00113907 -2.6637e-21)
(0.000212602 0.000591295 -2.20169e-22)
(0.000646436 0.000593562 0)
(0.000466423 0.000745015 6.46201e-22)
(0.000343915 0.000679585 1.07132e-21)
(0.000716573 0.000253324 -2.56523e-21)
(0.000641704 0.00116281 0)
(0.000651289 0.00119284 1.05817e-21)
(0.000662669 0.00106972 -2.83426e-21)
(0.000612194 0.00122832 1.51707e-21)
(0.000636866 0.00116811 1.94246e-21)
(0.000580898 0.00112259 0)
(0.000685315 0.00112229 6.55143e-22)
(0.000173954 0.000856862 8.807e-22)
(0.000621215 0.000613223 6.42476e-22)
(0.000576646 0.00115847 1.4868e-21)
(0.000176389 0.000513194 3.04341e-21)
(0.000179559 0.000526942 -1.3883e-21)
(0.000939045 -4.26035e-05 -1.27112e-21)
(0.000644515 0.00119907 4.36357e-24)
(0.000590527 0.000206281 -3.03887e-21)
(0.000302982 0.000743 -6.25766e-22)
(0.000960769 1.7576e-05 -1.27964e-21)
(0.000292678 0.000413428 5.71142e-22)
(0.000985513 0.000245822 -3.53889e-25)
(0.000875473 0.000731468 -1.41632e-21)
(0.000166185 -5.74126e-05 7.29369e-22)
(0.000860149 -2.2043e-06 5.09446e-21)
(0.000331605 0.000439909 -3.74809e-21)
(0.000208536 0.000499574 1.39774e-21)
(0.000137452 0.000703539 1.46723e-21)
(2.89061e-05 6.701e-05 0)
(0.000755028 0.000840425 2.16104e-21)
(0.000844343 0.000348592 0)
(5.85614e-05 0.000439769 -1.68517e-21)
(0.000342453 0.000468582 -2.12541e-21)
(0.000548463 0.000924157 1.03919e-21)
(0.000689995 0.000334523 0)
(0.000386437 0.0006539 1.01476e-24)
(0.000993619 0.000294813 4.44441e-22)
(0.000432033 0.0010663 2.23025e-21)
(3.78088e-05 2.27386e-06 1.53784e-21)
(0.000546897 0.000829256 1.48341e-21)
(0.000587407 0.000693025 1.17193e-21)
(0.000142162 0.000778746 1.81595e-22)
(3.74403e-05 -2.82122e-06 0)
(0.00139082 0.0010653 -1.58768e-21)
(0.000646968 0.00113561 -1.26115e-21)
(0.000708316 0.00106231 5.10229e-22)
(0.000556964 0.00137688 2.14318e-21)
(9.65217e-06 0.000114155 -2.11312e-22)
(0.000517974 0.000448596 5.99861e-25)
(0.000635312 0.00115483 8.33283e-24)
(0.000580391 0.000322599 -1.69156e-21)
(0.000902776 0.000316786 1.07407e-21)
(0.000653914 0.001131 -8.32465e-22)
(0.000265971 0.000686576 3.33049e-22)
(0.000426932 0.0013148 -1.86757e-23)
(0.000308498 0.00103207 0)
(0.000300714 0.00101317 -1.79133e-23)
(0.000292205 0.000989983 0)
(0.000363013 0.00116885 -1.86574e-23)
(0.000736968 0.00135552 -1.66175e-21)
(0.000478714 0.00143678 1.96187e-23)
(0.000318262 0.00106179 -9.5032e-25)
(0.000334674 0.00110439 -1.40486e-23)
(0.000388558 0.00123691 -1.50408e-23)
(0.000282873 0.000971059 -1.31774e-23)
(3.71447e-05 2.27074e-06 -4.59428e-21)
(0.000939469 0.00015172 1.58902e-21)
(0.000548882 0.000670804 0)
(0.000902191 0.000189795 0)
(3.85937e-05 7.71637e-07 -3.12071e-21)
(0.000696542 0.00126048 7.79428e-22)
(0.000962202 0.000256323 -2.60342e-21)
(0.00116008 0.000528946 -1.68064e-21)
(0.000297748 0.000597263 -1.88142e-21)
(0.000429118 0.00125989 -7.5929e-24)
(0.000623239 0.000821418 0)
(0.000153022 0.000669732 2.98641e-21)
(0.000150961 0.000677676 -2.19141e-21)
(0.000568963 0.00098426 2.89039e-21)
(0.000310966 0.000315678 -2.64077e-21)
(0.000475099 0.000912449 0)
(0.000391713 0.00065844 1.8025e-21)
(0.000203448 1.33244e-05 -2.98063e-21)
(0.00037191 0.000508465 -1.62433e-21)
(0.000658866 0.00110905 -1.39664e-21)
(0.000547136 0.00101388 0)
(3.52885e-05 0.000455086 3.19002e-22)
(0.00100843 9.39517e-05 6.67126e-22)
(0.00100133 0.000129153 -2.27348e-21)
(0.000827464 0.00127995 0)
(0.000948872 0.000103017 -5.51281e-22)
(0.000653002 0.000583139 1.63008e-22)
(8.42406e-06 0.000154648 0)
(0.000673996 0.00118163 0)
(0.000194977 -0.000136305 0)
(0.000448634 0.000661176 -2.03484e-22)
(0.000321534 0.000263421 -4.17369e-22)
(0.000658421 0.00113309 -4.33374e-22)
(0.000958281 0.000226842 1.6737e-21)
(0.000409271 0.000289192 -3.13663e-21)
(0.000512623 0.0005881 -2.42806e-21)
(3.6163e-05 0.000208467 -4.80615e-22)
(0.00016098 0.000568626 -1.80932e-21)
(0.000580004 0.00111786 1.06485e-21)
(0.000426845 0.000768582 1.7016e-21)
(0.000289716 0.000303959 -1.37365e-21)
(0.000922525 0.000167981 0)
(2.16861e-05 8.00204e-06 2.82533e-21)
(0.000836739 0.0013063 -9.68514e-22)
(0.000833682 0.00132165 1.44111e-21)
(0.000544788 0.00139806 1.38636e-21)
(0.000612908 0.000293348 -1.89467e-21)
(0.000283695 0.000680829 0)
(0.000657232 0.00121076 3.69886e-22)
(0.000868265 3.5375e-05 -1.04674e-23)
(0.000434587 0.000660908 3.80018e-23)
(0.000692506 0.000223566 2.25292e-21)
(0.000127673 0.000165504 1.21117e-21)
(0.000843964 0.000920511 0)
(0.000277187 0.000359524 1.45077e-21)
(3.52697e-05 -3.00621e-06 2.85969e-21)
(0.000795675 0.000719116 2.70852e-23)
(0.000862225 -2.03311e-05 0)
(0.000409909 0.00077237 -3.27573e-21)
(0.000953187 0.000251649 2.13225e-21)
(0.000279593 0.00071156 -1.73868e-21)
(0.000651897 0.00106601 6.69437e-22)
(0.00014762 0.000696776 2.77216e-22)
(0.000538942 0.00054844 0)
(-2.94238e-05 0.000719537 -1.34226e-22)
(0.000172519 2.80718e-07 1.08822e-21)
(0.000645957 0.00116206 -8.46125e-22)
(0.000823052 0.00127514 2.49031e-21)
(0.000619177 0.000159325 -2.19505e-21)
(0.000986159 0.000145507 -2.01996e-21)
(0.000667332 0.00114069 -2.49929e-21)
(0.000309322 0.000861314 2.0996e-21)
(3.86847e-05 -1.33702e-06 -1.62665e-21)
(0.000591837 0.00110872 0)
(0.000579331 0.0010921 -1.37084e-21)
(0.000591411 0.00110726 1.24446e-23)
(0.000566428 0.00106925 -4.07348e-21)
(0.000167542 -0.00029541 2.02014e-21)
(0.000646345 0.00122264 2.17809e-21)
(0.000413753 0.000757678 -1.2398e-21)
(0.00061507 0.000834708 5.46738e-21)
(3.40526e-05 -3.69041e-06 0)
(0.00146388 0.000109548 1.13895e-21)
(0.000657696 0.00121895 4.85397e-21)
(0.000410302 0.000293266 -6.24359e-22)
(0.00014269 -0.000412692 9.89932e-22)
(0.000998262 5.57041e-05 -3.10019e-21)
(0.000420078 0.000768092 0)
(0.00128699 0.000822803 4.30015e-22)
(0.000259973 0.000797351 0)
(0.000645167 0.00122382 -1.0971e-21)
(0.000677214 0.00122545 7.60243e-22)
(0.000675911 0.000866719 -1.57221e-21)
(0.000663555 0.001307 -3.14318e-21)
(0.000300422 -0.000108674 3.7031e-21)
(0.000667657 0.00115666 2.641e-21)
(0.000815776 0.000985248 -1.64657e-22)
(0.000577503 0.00106147 -9.82514e-24)
(0.000589074 0.00108377 -5.56896e-21)
(0.000412518 0.000843219 -2.46224e-24)
(0.000641306 0.00111968 9.10329e-22)
(0.000913909 7.58947e-06 0)
(0.000576001 0.000845521 -3.08807e-21)
(0.000294726 -0.000157412 2.26903e-21)
(4.17268e-05 -1.78122e-06 0)
(0.000239668 -0.000150946 1.32377e-21)
(0.000651712 0.00122088 -3.24525e-21)
(0.000714795 0.00126604 1.14964e-21)
(0.000604742 0.00102438 1.82769e-21)
(0.000632303 0.00113288 9.78337e-22)
(2.77909e-05 -5.10273e-06 5.69193e-21)
(0.00056956 0.00105967 1.75778e-21)
(0.000592066 0.00109828 -6.09046e-24)
(0.000581957 0.00108237 0)
(0.000711764 0.00128922 -1.0099e-21)
(0.000699401 0.00128995 -1.17708e-21)
(0.000120392 -5.85252e-05 -4.7814e-26)
(0.000599628 0.000528746 1.12757e-21)
(0.00071309 0.001263 0)
(0.000708194 0.00130298 9.09701e-22)
(0.000653799 0.00111133 0)
(0.00058627 0.00106284 1.48676e-21)
(0.000664877 0.00121397 -1.59035e-21)
(0.00057552 0.00107107 0)
(0.00058489 0.00108848 7.77562e-22)
(0.000563558 0.00104855 7.69009e-22)
(0.000715301 0.00129503 -9.00803e-22)
(0.000561355 0.00104382 -2.21893e-21)
(0.000768463 0.00135597 -1.00239e-21)
(0.000575358 0.000280799 0)
(0.000796303 0.00145624 -9.65501e-22)
(0.000735744 0.00117231 -2.18885e-21)
(0.000135604 -6.55688e-05 -1.69083e-21)
(0.000629453 0.000994192 -4.02337e-23)
(0.000701996 0.00128642 1.24627e-21)
(0.000667175 0.00121777 8.38674e-22)
(0.000568159 0.00107799 0)
(0.000577837 0.00109538 -7.94019e-22)
(0.000555962 0.00105543 -7.85343e-22)
(0.000419241 0.000930507 -1.23989e-21)
(0.000710231 0.00129357 1.78498e-21)
(0.000285401 0.000368414 -8.06547e-22)
(0.000418264 0.00076037 2.52386e-21)
(0.000756506 0.00134213 -1.72289e-21)
(0.000461954 0.00102629 5.91998e-21)
(0.000815333 0.00149237 1.43225e-21)
(0.00067762 0.00118839 -1.14304e-21)
(0.000712884 0.00125732 -2.53023e-21)
(0.00061125 0.00106483 0)
(0.000620675 0.0010818 0)
(0.000598689 0.00104252 0)
(0.000699121 0.00136515 1.42823e-21)
(0.000593747 0.00108268 1.7166e-23)
(0.00060353 0.00110007 1.69368e-23)
(0.000581142 0.00105998 1.68009e-23)
(0.00066997 0.00123375 1.58302e-21)
(0.000700143 0.00126567 4.66629e-22)
(0.000632141 0.00113477 0)
(6.64384e-06 -6.12549e-05 0)
(0.000790266 0.00137735 -3.85046e-22)
(0.000716823 0.00128377 0)
(0.000583815 0.00105964 6.63055e-24)
(0.000592871 0.00107564 -1.15606e-21)
(0.000571636 0.0010376 -1.11629e-21)
(0.00065714 0.00121945 -1.04858e-21)
(0.00066064 0.00122112 -3.3984e-24)
(0.000802092 0.00148021 7.85336e-22)
(0.00068122 0.00104128 -1.88507e-21)
(0.000665016 0.00121382 2.04945e-23)
(0.000655176 0.00101549 2.72168e-21)
(0.000668648 0.00103764 9.42837e-22)
(0.000732485 0.00136694 1.13557e-21)
(0.000665123 0.00121443 -7.31242e-22)
(0.000571435 0.00104524 1.06554e-21)
(0.000592954 0.00108432 -2.09742e-21)
(0.000583752 0.00106752 1.08867e-21)
(0.000582026 0.00106932 -2.18214e-21)
(0.000591629 0.00108665 -7.18929e-22)
(0.000569842 0.00104686 -7.10903e-22)
(0.000720357 0.00135878 -7.01411e-22)
(0.000616168 0.00110561 -8.39417e-22)
(0.000835821 0.00140492 -4.33301e-22)
(0.00034082 0.000738973 -9.94845e-22)
(0.000640613 0.00115799 7.52521e-22)
(0.000217295 -0.000115405 0)
(0.000561299 0.00104036 0)
(0.000612351 0.00112695 6.88774e-22)
(0.000564923 0.00103319 -5.55277e-24)
(0.000792176 0.0014336 1.8527e-23)
(0.000718587 0.00126844 0)
(0.000642929 0.00117268 -7.32675e-22)
(0.000864281 0.000716787 2.31081e-21)
(0.000547737 0.00105199 1.40018e-21)
(0.000903559 0.000463292 1.52188e-21)
(0.000610608 0.00111855 8.85912e-22)
(0.000716279 0.0012715 1.05264e-23)
(0.000390752 0.000638402 2.79793e-21)
(0.000692223 0.00124998 -3.04166e-22)
(0.00079528 0.00137874 -8.3845e-22)
(0.000387028 0.000739981 -4.5128e-22)
(0.000647536 0.00115655 -1.60419e-21)
(0.000356721 0.000530903 1.54898e-21)
(0.000641702 0.00115228 9.30627e-22)
(0.000717374 0.00127793 1.8004e-21)
(2.92332e-05 -5.19493e-07 0)
(0.000563961 0.00102808 1.21415e-21)
(0.000607949 0.00103608 1.13283e-21)
(0.000830205 0.000728192 -3.57892e-23)
(0.000776837 0.0014627 -1.24935e-21)
(0.000577995 0.0010542 -2.49878e-21)
(7.12225e-06 1.24413e-05 -4.86921e-21)
(0.00075174 0.00135938 7.5485e-22)
(0.000670642 0.00120511 1.01592e-21)
(0.00063647 0.00117699 1.61708e-21)
(0.000649888 0.000994506 -9.23051e-22)
(0.000673543 0.00103255 -9.33474e-22)
(0.000663298 0.00101598 -9.43081e-22)
(0.000828911 0.00146706 -4.88622e-22)
(2.29771e-05 5.32483e-05 -1.85226e-21)
(0.000587584 0.00107475 -1.31332e-21)
(0.000154442 0.00020133 3.67246e-22)
(0.000517085 0.00103424 -1.54644e-21)
(0.000390974 0.000719947 3.62529e-21)
(0.000500805 0.000162053 -5.44342e-21)
(0.000794478 0.00146139 1.21027e-21)
(0.000820932 0.00145336 0)
(0.000339612 0.000514318 -5.08163e-22)
(0.000636639 0.00116348 -1.81049e-21)
(0.00067049 0.00109126 2.29252e-21)
(0.000280789 0.000326063 7.36034e-22)
(0.000901015 0.00143187 -8.37896e-22)
(0.00060639 0.00102922 1.00422e-21)
(0.000812407 0.00148092 2.90732e-21)
(0.000374303 0.000698563 1.47619e-24)
(0.000494668 0.000830979 -1.40112e-21)
(0.00063192 0.00107523 -2.40743e-21)
(0.000700051 0.00128706 -5.45014e-24)
(0.00056328 0.00103022 0)
(0.000601261 0.00117867 -3.85555e-23)
(0.000509845 0.00101321 1.5925e-22)
(0.000521725 0.00103506 1.62998e-22)
(0.000531267 0.00105224 1.61582e-22)
(0.000675904 0.00130984 1.65084e-22)
(0.000830785 0.00129856 -7.00126e-22)
(0.000610571 0.0011189 5.64243e-24)
(0.000595041 0.00107248 0)
(0.000582723 0.00105004 -2.30577e-21)
(0.000555698 0.00107243 0)
(1.4652e-05 0.000688692 9.52511e-22)
(0.000663657 0.00121469 7.71732e-22)
(0.000565367 0.00102975 -6.7302e-22)
(0.000541552 0.000379107 -9.1446e-22)
(0.000687187 0.00128517 7.00348e-22)
(0.000610016 0.00111837 9.1623e-22)
(0.000323318 0.000475172 -1.9129e-21)
(0.000634038 0.00115989 -7.05625e-22)
(0.000668396 0.00121671 -1.80344e-21)
(0.0005679 0.00105145 3.5318e-21)
(0.000591275 0.00109115 3.57014e-21)
(0.000580793 0.00107386 1.42766e-21)
(0.000578345 0.0010512 -1.18736e-21)
(0.00059093 0.00107377 0)
(0.000683474 0.00129103 -2.17051e-21)
(0.000800423 0.00143098 1.12705e-21)
(0.000653288 0.00105869 -7.4713e-22)
(0.000749168 0.00135682 9.695e-24)
(0.000533395 0.0010376 2.58034e-21)
(0.000675422 0.00119316 1.06405e-21)
(0.000576906 0.00106266 0)
(0.000598552 0.00110312 0)
(0.00058925 0.0010855 0)
(0.000526077 0.000917023 -1.2053e-21)
(0.000436866 0.000782822 -2.84658e-21)
(0.000759431 0.00122463 -4.93717e-22)
(0.00074727 0.00134495 5.8982e-22)
(0.000664227 0.00121445 8.13803e-22)
(0.000632353 0.000811876 -5.02146e-21)
(0.000556438 0.00105186 5.96677e-24)
(0.000577844 0.00109167 6.05147e-24)
(0.000568419 0.00107434 0)
(0.000788563 0.00146607 6.46583e-22)
(0.000658392 0.00113942 4.14038e-22)
(0.000568926 0.00104325 -1.16111e-21)
(0.000802658 0.00145774 -2.00069e-21)
(0.000635474 0.00136626 1.04256e-21)
(0.000783266 0.0014531 0)
(0.000620353 0.000985476 0)
(0.000608581 0.00111968 0)
(0.000464925 0.000781322 1.00272e-21)
(7.07896e-06 -1.7353e-05 -1.18017e-21)
(0.000582925 0.00107071 -6.53995e-22)
(0.000592543 0.00108806 0)
(0.000570716 0.00104823 0)
(0.00049964 0.000835656 0)
(0.000511139 0.000801751 -1.19635e-21)
(0.000641433 0.00115218 9.00173e-22)
(0.000548388 0.00104187 -1.47549e-21)
(0.000437602 0.000318615 1.51231e-21)
(0.000748041 0.00134744 1.6054e-21)
(0.000561815 0.0010323 -1.72223e-21)
(0.000621966 0.00111046 0)
(0.000556027 0.00103811 -7.26124e-22)
(8.93992e-06 -3.14548e-05 -9.58619e-22)
(0.000802446 0.00147481 0)
(0.000610643 0.00112105 -1.64143e-21)
(0.000706298 0.00128078 3.96257e-21)
(0.000646811 0.00116092 -7.26361e-22)
(0.000639097 0.00115776 -9.51603e-22)
(0.000330098 0.000688591 1.30748e-21)
(0.000375572 0.000528686 -2.09598e-21)
(0.000628133 0.000848066 -2.89123e-21)
(0.000798172 0.000288755 0)
(0.000783052 0.00121905 0)
(0.00064197 0.00115573 -9.10912e-22)
(0.00072274 0.00129546 -1.61559e-21)
(0.000562751 0.000586722 5.15109e-21)
(0.000763588 -1.50789e-05 3.44975e-24)
(0.000665593 0.00121294 6.29253e-22)
(7.28785e-05 0.000685406 1.30093e-21)
(1.91084e-05 -7.32102e-06 -5.82169e-21)
(0.000802762 -3.75236e-05 -1.30501e-21)
(0.00060502 0.00106018 6.46451e-22)
(0.000583089 0.00102138 6.39253e-22)
(0.000595451 0.00104327 6.5317e-22)
(0.00051423 0.00120413 0)
(0.000424843 0.000275775 4.64502e-22)
(0.000581927 0.00024689 -1.54627e-21)
(0.000893914 0.00138228 -3.96321e-22)
(0.000274271 0.000557534 3.37795e-21)
(2.23824e-05 -2.93304e-06 2.21512e-21)
(0.000564634 0.00103097 -7.31833e-22)
(0.000557067 0.00102786 8.54314e-22)
(0.000895577 0.000173865 0)
(0.000564793 0.00103741 -1.0236e-21)
(0.000615751 0.00112401 -5.17387e-22)
(0.000698041 0.00150981 8.21402e-22)
(0.00026245 0.000306139 6.73724e-22)
(0.000711212 0.00127112 0)
(3.13866e-05 -2.79084e-06 2.07341e-26)
(0.000707536 0.00129331 4.70563e-22)
(0.00066099 0.00136359 -7.04491e-22)
(0.000619852 0.00109121 7.53489e-24)
(0.000565108 0.000966018 1.47077e-22)
(0.000639306 0.00116851 -1.03011e-21)
(0.000935366 0.000168586 0)
(0.000563573 0.00103298 -2.53159e-23)
(0.000742434 0.00134856 5.41982e-22)
(0.000637964 0.00115 1.71779e-21)
(0.000566823 0.00104679 7.98579e-24)
(0.000588456 0.00108659 8.06543e-24)
(0.000578922 0.00106926 7.44362e-22)
(0.000601322 0.00118149 -1.26387e-21)
(0.000746835 0.00135213 1.24642e-21)
(0.000817753 0.0014745 -2.85918e-21)
(0.000742706 0.00133451 -6.8788e-22)
(0.000663877 0.00121375 -1.25711e-21)
(0.000728289 0.00070446 5.16639e-22)
(0.000805477 0.00147329 5.43556e-22)
(0.000648461 0.000855052 -1.50793e-21)
(0.000569343 0.00104131 1.30706e-21)
(0.000698068 0.0012769 3.1379e-23)
(0.000796787 0.00146119 -2.47445e-21)
(0.000668324 0.00131549 -9.5376e-22)
(0.000663747 0.00121475 7.32171e-22)
(0.000269302 0.000394402 -1.97601e-21)
(0.00045548 0.000622019 2.47582e-21)
(0.000619127 0.00108154 -7.2666e-22)
(0.00056973 0.00104717 0)
(0.000591555 0.00108696 0)
(0.000581929 0.00106963 0)
(0.000716681 0.0013557 0)
(0.000644186 0.00112908 0)
(0.000582538 0.00104853 1.49806e-21)
(0.000604595 0.00108876 1.51498e-21)
(0.000594905 0.00107116 1.53071e-21)
(0.000608553 0.001118 6.86615e-22)
(0.000530401 0.000343119 3.70356e-21)
(0.000711815 0.0012498 -2.93079e-23)
(0.000807059 0.00146481 0)
(2.69518e-05 -3.24429e-06 -2.16584e-21)
(0.000631664 0.00116086 6.55671e-22)
(0.00022068 0.000498573 3.42568e-21)
(0.000664 0.00121398 -1.36814e-21)
(0.000790589 0.00146064 1.2292e-21)
(0.000556335 0.000991664 -1.29107e-21)
(0.000979914 0.000118252 1.73185e-21)
(0.000692036 0.00128495 1.98924e-21)
(0.000671407 0.00124775 0)
(0.000703701 0.0012718 -4.27123e-21)
(0.000703014 0.00128529 6.51256e-22)
(0.000612486 0.00111749 6.24927e-22)
(0.000612392 0.0011175 -7.4025e-22)
(0.000561218 0.00103039 0)
(0.000635876 0.00115984 -2.20164e-21)
(0.000635948 0.0011609 -6.44241e-22)
(4.08622e-05 -6.91953e-07 0)
(0.000643485 0.00111848 -1.77536e-21)
(0.000701594 0.00128437 6.10478e-22)
(3.86082e-05 4.03103e-05 2.62916e-21)
(0.000562829 0.00102886 0)
(0.000623875 0.00111209 5.18864e-22)
(0.000791286 0.00146004 -6.57889e-22)
(0.000771007 0.000725845 -4.33086e-22)
(0.000645158 0.00115954 -1.00829e-21)
(0.000763374 0.0013546 -8.70681e-22)
(0.000806002 0.00143393 -6.9059e-22)
(0.000680991 0.00128684 0)
(0.000706642 0.00128575 -2.1805e-23)
(0.000583728 0.000935029 -1.46336e-21)
(0.00114915 8.09205e-05 -2.25975e-21)
(2.87319e-05 3.7449e-05 2.47495e-21)
(0.000563269 0.0010298 1.12898e-23)
(0.000858843 0.00116579 7.95793e-21)
(0.000796024 0.00145463 6.54529e-22)
(0.000713334 0.00128445 -5.36014e-22)
(4.18274e-05 -1.63462e-07 3.69709e-21)
(0.000699053 0.00145721 0)
(0.000767126 0.000520521 3.75235e-21)
(0.000784272 0.00146465 0)
(0.000476376 0.00115782 2.96441e-22)
(0.000571645 0.00102004 1.14499e-21)
(0.000786113 2.39895e-05 -1.23438e-21)
(0.000670313 0.000969219 -4.89141e-22)
(0.000570988 0.0010391 1.27822e-21)
(0.000827452 0.000662102 -8.63931e-22)
(0.000609265 0.000856367 -1.46346e-21)
(0.000810871 0.00145159 5.54011e-22)
(0.000814181 0.0014451 0)
(0.000568245 0.00101196 1.23139e-21)
(0.000701344 0.00121841 -9.78047e-24)
(0.000660422 0.0014286 -2.85768e-21)
(0.000532763 0.000917477 -1.04869e-21)
(0.000125945 0.000137643 -2.25191e-21)
(0.000669141 0.00112296 8.58124e-22)
(0.000971517 0.000265433 5.36394e-22)
(0.00058241 0.000747793 9.85474e-22)
(0.000696277 0.000703664 -1.78972e-21)
(0.000705131 0.00133011 8.67057e-22)
(0.000433827 0.000278892 -5.32363e-25)
(0.000810031 0.00145127 -1.21539e-21)
(0.000592043 0.000810161 1.51099e-21)
(0.00070224 0.00116314 9.77048e-22)
(0.000417426 0.000753803 -1.20125e-21)
(4.27653e-05 -3.30915e-07 1.33954e-21)
(0.000299081 0.000345759 1.66798e-21)
(0.000541415 0.001045 0)
(0.00033586 -0.000157696 -3.29025e-21)
(0.00075371 0.000795644 -3.59329e-21)
(0.000360262 0.000650774 0)
(0.000689867 -7.58486e-06 3.24063e-24)
(0.000278167 -0.000119045 -5.41694e-21)
(2.92255e-05 4.32861e-05 -2.36621e-21)
(0.00083777 0.000237525 -1.91803e-21)
(0.000393274 0.0004975 1.22194e-21)
(0.000785633 -1.29196e-05 -2.40271e-21)
(0.000949744 0.000806667 1.6429e-21)
(0.000299696 0.000822276 9.89073e-22)
(0.000440405 0.000188407 -3.28678e-22)
(0.00016202 0.000416078 0)
(0.000671258 0.000680786 -2.25476e-24)
(0.000593846 0.000941407 2.4271e-23)
(0.000478445 0.000190195 1.08609e-21)
(0.000614413 0.00109525 -2.79472e-22)
(0.00039009 0.000492532 -1.21264e-21)
(0.000121845 0.000145904 1.81988e-21)
(0.000592158 0.00119849 -1.68207e-21)
(0.000394009 0.000243411 0)
(0.000624071 0.000539051 0)
(1.24572e-05 0.000650091 4.25423e-22)
(0.000527587 0.000914231 -1.75618e-21)
(0.000362897 0.000488682 -1.03216e-21)
(0.000957484 0.000316933 2.11406e-21)
(0.00101055 0.00133578 6.99413e-22)
(0.000701497 0.00127227 -8.7669e-22)
(0.000321296 0.000229683 -1.79342e-21)
(0.000511304 0.000803674 0)
(0.000712355 -4.10336e-05 4.26402e-21)
(0.000675892 0.00118718 -1.85098e-21)
(0.000729888 0.00126147 7.21051e-23)
(0.000371094 0.000303647 0)
(0.000388397 0.000519833 1.15698e-21)
(0.000643099 0.000300278 4.12003e-25)
(0.000750836 0.00146474 2.39812e-21)
(0.000966084 0.000143627 2.06319e-21)
(0.000687543 0.00118654 0)
(0.00078713 0.00133899 2.80061e-23)
(0.000707587 0.00120429 -3.72077e-24)
(0.000608055 0.00103477 2.72938e-23)
(0.000631553 0.00107473 -5.94043e-23)
(0.000621265 0.00105711 2.79256e-23)
(0.000574105 0.00104477 -4.99188e-22)
(0.000596327 0.00108445 -5.04704e-22)
(0.000586513 0.00106717 -9.54621e-24)
(0.000362084 0.000769675 9.02244e-22)
(0.000664196 0.00120444 2.24486e-21)
(0.000483685 0.000975136 -1.39003e-23)
(0.000346648 0.000668705 1.75219e-21)
(0.000345267 0.000535609 5.36766e-22)
(0.000503349 0.000930241 0)
(0.000457076 0.000340589 1.62592e-21)
(0.000714402 0.00125052 -1.53744e-21)
(0.000387928 -5.24824e-05 2.24457e-25)
(0.00049311 0.000132364 0)
(0.000969071 4.5204e-05 2.57114e-21)
(0.000698276 0.00118442 0)
(0.000529857 0.00104205 -2.50718e-21)
(0.00091032 0.000176962 0)
(0.00061831 0.0011888 -1.06323e-21)
(0.000757675 2.26408e-05 -1.18245e-21)
(0.00105048 0.000683861 2.18608e-21)
(0.000531381 0.000135768 7.2498e-24)
(1.64e-05 7.06702e-06 -2.27283e-21)
(0.000753307 0.00041991 2.05434e-21)
(0.000383188 0.000227971 0)
(0.000177559 -2.46602e-05 -2.99353e-21)
(0.000547281 0.000888168 3.14176e-22)
(0.000235333 0.00074648 0)
(4.3008e-05 1.04888e-06 -1.29525e-21)
(0.000449162 0.000636241 9.09117e-23)
(0.000959596 0.000548386 1.26562e-21)
(0.000712089 0.000218076 2.38114e-21)
(0.000531076 0.000691483 3.49557e-21)
(0.000809393 0.00147052 1.20657e-21)
(2.35312e-05 -6.60201e-06 2.38915e-21)
(0.00065892 0.00116307 1.09292e-21)
(0.000525195 0.000874097 0)
(4.45654e-05 0.000276717 -1.05518e-21)
(0.000614371 0.0011141 -1.07671e-21)
(0.000602169 0.00129926 -7.65806e-23)
(0.000577131 0.00125756 2.05359e-23)
(0.000674199 0.00143262 -7.77113e-23)
(0.000528989 0.00116296 -5.22787e-23)
(0.000755441 0.000952793 -5.96018e-21)
(0.000779177 0.00162863 0)
(0.00126877 0.000782916 6.73809e-22)
(0.000930922 0.000574411 1.11656e-21)
(0.000617184 0.00107169 0)
(4.17598e-05 2.09758e-06 -3.87074e-21)
(0.000663137 0.00127814 0)
(0.000489771 0.000667368 6.38263e-22)
(0.000917198 0.000524031 5.98008e-22)
(0.000636098 0.00115476 5.62986e-24)
(0.000795304 0.00133339 -3.43892e-21)
(0.000468165 0.000312413 0)
(0.00083559 0.00146449 -1.98903e-21)
(4.18135e-05 3.97094e-05 0)
(3.3471e-05 4.27968e-06 1.65966e-21)
(0.000569077 0.00102884 0)
(0.000739412 0.00120343 -1.13296e-21)
(0.00107912 0.000884751 -1.33637e-21)
(0.00113554 0.00091839 1.18947e-21)
(0.000688187 0.00120233 -2.56972e-21)
(0.000426724 0.000980337 -5.27179e-23)
(0.000553865 0.00123215 -5.81436e-23)
(0.000468093 0.00106753 7.14245e-23)
(0.000489957 0.00110687 -5.52994e-23)
(0.000647881 0.00141847 -7.57067e-23)
(0.00100149 0.0010184 2.56169e-21)
(0.000692349 0.00118656 0)
(0.000194734 0.000489045 0)
(0.000260626 0.00116592 1.49785e-21)
(0.000255674 0.00052694 -3.81589e-21)
(4.28705e-05 -7.1711e-05 0)
(0.000376856 0.00060208 0)
(0.000731215 0.00124982 -9.71041e-22)
(0.000820966 0.00147243 4.49115e-22)
(0.000774457 0.00139644 -1.34623e-21)
(0.000651496 0.00111142 -7.96892e-22)
(0.00038247 0.000877905 -4.30001e-24)
(0.000679456 0.00118484 9.23198e-24)
(0.000600235 0.000222815 -4.07577e-21)
(0.000857968 1.44912e-05 0)
(0.000745245 4.09623e-05 3.43151e-21)
(0.000117395 0.00033429 -1.09647e-21)
(0.000689367 0.00119387 4.07824e-22)
(0.000717587 4.26893e-05 0)
(0.000190534 1.43652e-05 1.37461e-21)
(0.000293855 0.000455543 -1.27802e-24)
(0.000686304 0.00118238 -4.39254e-22)
(0.000840088 -2.29472e-05 0)
(0.000441017 0.000410582 -3.53592e-21)
(0.000587745 0.00130448 0)
(0.000518327 0.00116793 0)
(0.000454344 0.00103803 0)
(0.000434806 0.000997947 0)
(0.000445478 0.00102016 0)
(0.00073515 0.000330877 8.13378e-22)
(8.73484e-05 0.000210638 -2.5433e-21)
(0.000300828 0.000262588 2.92602e-21)
(0.000715493 0.00150036 -7.32347e-23)
(0.000538705 0.00117444 -1.1821e-22)
(0.000551387 0.00119882 -1.20831e-22)
(0.000561932 0.00121773 -1.1894e-22)
(0.000636685 0.00135709 -1.21922e-22)
(0.000722141 0.00122973 3.50834e-21)
(0.000719102 0.00125687 0)
(0.000788894 0.000764409 1.90595e-21)
(0.000601212 0.00112352 1.13858e-21)
(0.000342291 0.000448746 1.81438e-21)
(0.000895478 0.000296598 1.3839e-21)
(0.000683224 0.00135742 1.22045e-21)
(0.000427036 0.000497345 -7.15728e-22)
(0.00039727 0.000646915 1.32926e-21)
(0.000678399 0.00119004 0)
(0.000980519 0.000841187 -2.22637e-21)
(0.000452382 0.000910486 -7.13716e-22)
(0.000422424 0.000815624 5.36772e-22)
(9.5824e-05 0.000524036 -1.03684e-21)
(0.000685777 0.0011915 8.10728e-22)
(0.000731588 0.000433257 -2.18037e-21)
(3.88204e-05 -1.59679e-07 1.58021e-21)
(0.00113582 1.98876e-05 0)
(0.000239868 0.000539372 2.62735e-24)
(0.000330198 0.000472821 1.0909e-21)
(0.000753416 0.000751577 -3.10427e-22)
(0.00165121 0.000426297 7.88592e-22)
(0.000141581 0.000738946 8.90753e-22)
(0.00046539 -6.24827e-05 0)
(0.000709563 0.000251697 0)
(7.35372e-05 -0.000112394 -4.44291e-22)
(0.00100091 0.000188092 2.31826e-21)
(3.97795e-05 4.08875e-06 1.39336e-25)
(0.000479697 0.000374078 -3.60527e-25)
(0.000821494 0.00145566 -7.80711e-22)
(0.000575354 0.00105696 3.70105e-21)
(0.000636702 0.00115607 0)
(0.000396878 0.000643262 0)
(0.00047096 0.000759103 -2.59053e-21)
(0.000545688 -0.000170404 2.67456e-21)
(0.000646899 0.00113489 -8.63026e-22)
(0.000722219 0.000722271 -6.07293e-22)
(0.000405508 0.000652457 1.29953e-21)
(0.00122965 7.02507e-05 -3.96353e-21)
(0.000780004 0.000780205 -2.76304e-24)
(3.86627e-05 -3.79248e-06 -1.5746e-21)
(0.000450481 0.000758869 2.78352e-21)
(0.000581268 0.00107413 2.59312e-21)
(0.000882259 0.00019582 9.77507e-22)
(0.00086945 0.000286319 -1.27511e-21)
(0.000556645 0.000261769 3.31494e-21)
(0.000806268 0.00134477 3.7034e-22)
(0.000376768 0.000629683 0)
(0.000825211 0.000699233 -1.00708e-21)
(0.000700535 0.00128216 -3.7212e-21)
(0.000570896 0.00101991 -1.52088e-23)
(3.07872e-06 1.85844e-05 -1.67556e-21)
(0.000168072 0.000236196 -1.40062e-21)
(0.00049241 0.000719932 -7.08463e-21)
(1.06721e-05 8.12207e-06 0)
(0.000666102 0.00121233 5.80319e-22)
(0.000358807 0.000465057 1.98132e-21)
(0.000645706 0.0011297 2.57534e-21)
(0.000604073 0.00112906 -9.90892e-22)
(0.000974653 0.000774867 -5.40172e-21)
(0.000213095 -2.19992e-05 -1.22157e-25)
(0.000938055 0.000841399 7.37393e-24)
(0.000546422 0.000462835 -2.5073e-22)
(0.00067616 0.00121727 1.7767e-22)
(0.000819653 0.00146892 2.27307e-23)
(-7.09298e-05 0.00108398 -1.43467e-21)
(0.000833756 0.00147793 -1.12109e-21)
(0.000643333 0.00107267 -1.21114e-21)
(0.000540989 0.000941655 2.70265e-21)
(0.000671765 0.00119533 -4.16037e-22)
(0.000477046 0.000779263 0)
(0.000375732 0.000268204 -1.44399e-21)
(0.00150574 0.00132016 -9.71996e-22)
(0.000348893 0.00062434 0)
(0.000952522 0.000296152 0)
(0.000808189 0.000506061 4.99104e-21)
(1.48217e-05 -2.65746e-05 4.77699e-21)
(0.000675858 0.00117761 0)
(0.000693447 0.000589487 5.07347e-22)
(0.000650126 0.00106456 9.41675e-22)
(0.00066021 0.00108261 4.71672e-22)
(0.000636562 0.00104221 0)
(0.000771677 0.00144614 -9.343e-23)
(0.000489124 0.000103277 -1.54245e-21)
(0.000152379 1.57732e-05 3.29992e-22)
(0.000704836 0.000584645 -1.9867e-21)
(1.73001e-05 -3.68348e-06 -4.80912e-21)
(0.000616575 0.00111984 -1.41837e-21)
(0.000519834 0.00100944 2.62481e-23)
(0.000658805 0.00125519 -8.27186e-23)
(0.000569405 0.00110289 3.92383e-23)
(0.000589483 0.00113314 -8.10045e-23)
(0.000890189 0.00136542 4.42884e-21)
(0.00122014 0.00129775 7.95573e-24)
(0.000709909 0.00066415 -1.95409e-24)
(0.000421411 0.000751076 -6.87218e-21)
(0.000522406 0.000396974 -1.41576e-24)
(0.000149784 0.000137478 4.73471e-21)
(0.000501505 0.000530906 -9.17569e-21)
(0.000115113 0.000522789 6.59154e-22)
(8.30235e-05 0.000195949 3.90405e-21)
(0.000446065 0.000832432 -5.65009e-25)
(0.000270107 3.63944e-05 -1.04408e-21)
(0.000608681 0.000266246 6.15104e-21)
(0.000494183 6.20764e-05 -1.0966e-24)
(0.000433308 0.000993982 8.18914e-22)
(6.35506e-05 0.00038211 -2.41827e-21)
(0.000583888 3.92875e-05 -7.39281e-24)
(0.0012299 0.000233319 -1.63635e-21)
(4.2795e-05 -1.53401e-06 -9.07767e-22)
(0.000884713 0.000212512 3.05711e-21)
(0.000706615 0.00102868 -1.42529e-21)
(0.000833294 0.00145348 5.69071e-22)
(0.000224764 0.000608415 -8.57007e-22)
(0.000581632 0.000431672 5.46458e-22)
(0.00065916 0.00127301 1.35117e-21)
(0.000606051 0.00112539 1.95296e-21)
(0.000689661 -0.000372948 0)
(0.000452757 0.00129719 -6.78415e-22)
(0.00105084 0.000911165 0)
(-0.000137162 0.00108529 1.23362e-21)
(0.000886896 0.000533509 1.08496e-21)
(0.000346038 0.000735805 0)
(0.000660745 0.00116165 0)
(0.000421852 0.000692734 0)
(0.000554181 0.00105641 5.08507e-21)
(0.000203155 0.000719058 -1.59486e-21)
(3.6108e-05 -3.65447e-06 -2.59422e-21)
(2.25317e-05 -9.97589e-06 2.28364e-21)
(0.000538238 0.000926962 3.14093e-21)