/*--------------------------------*- C++ -*----------------------------------*\
  =========                 |
  \\      /  F ield         | OpenFOAM: The Open Source CFD Toolbox
   \\    /   O peration     | Website:  https://openfoam.org
    \\  /    A nd           | Version:  7
     \\/     M anipulation  |
\*---------------------------------------------------------------------------*/
FoamFile
{
    version     2.0;
    format      ascii;
    class       volVectorField;
    location    "33.5";
    object      U;
}
// * * * * * * * * * * * * * * * * * * * * * * * * * * * * * * * * * * * * * //

dimensions      [0 1 -1 0 0 0 0];

internalField   nonuniform List<vector> 
591
(
(0.000809711 -4.26461e-05 1.22165e-18)
(0.000788737 -3.46641e-05 -6.62967e-19)
(0.000851716 -5.56288e-05 5.72404e-20)
(0.000839137 5.05589e-06 -1.48276e-19)
(0.000823205 1.70027e-05 2.24179e-19)
(0.00078381 -3.51905e-05 -1.38462e-19)
(0.000540459 -0.000372847 8.02992e-19)
(0.00079592 -3.07617e-06 2.07532e-18)
(0.00576298 0.00248892 9.88178e-19)
(0.000784246 -1.86371e-05 2.42136e-18)
(5.74919e-05 0.000177678 1.21901e-18)
(0.000896706 0.00132206 9.40989e-21)
(0.00079109 1.03183e-05 1.28963e-18)
(0.00157446 0.00236779 -7.8798e-19)
(0.000798836 1.45601e-05 -4.38415e-19)
(0.000116826 -0.000248146 2.56359e-22)
(0.000132107 0.000670095 7.05816e-19)
(0.000828874 2.71933e-05 -4.90678e-19)
(0.00197094 0.000374794 4.73512e-19)
(0.00134696 0.000274465 -2.47366e-19)
(0.00083049 7.47999e-06 3.71512e-19)
(0.00340157 0.00656737 -8.09889e-20)
(3.45979e-05 7.56967e-05 2.71226e-19)
(0.000824814 4.01607e-06 -4.5171e-19)
(1.71598e-05 -2.19324e-05 3.59264e-19)
(0.00075672 2.59322e-05 0)
(9.0189e-05 0.000480156 1.60113e-19)
(0.000517594 2.82349e-05 -1.79051e-19)
(0.000745666 5.29915e-05 1.14333e-18)
(0.000821081 1.6858e-05 5.81734e-19)
(6.60676e-05 -1.28993e-06 -3.21363e-24)
(4.4377e-05 -5.3071e-05 3.52579e-19)
(4.51024e-05 -4.03443e-06 -4.64449e-20)
(5.36874e-05 -1.03479e-05 0)
(6.20855e-05 -1.43787e-05 1.13237e-18)
(0.00116566 0.000128252 1.80123e-19)
(3.89665e-05 -7.00207e-06 4.47656e-20)
(0.000823364 1.64348e-05 3.88485e-23)
(3.33897e-05 5.01212e-05 2.66327e-19)
(5.18164e-05 -0.000141814 -8.55803e-19)
(0.000567983 -0.00019192 9.58798e-19)
(3.22003e-05 -9.13294e-06 4.55341e-20)
(0.000791703 -6.32233e-06 -1.56271e-18)
(0.00082205 2.20627e-05 -6.80852e-19)
(2.3042e-05 -1.09866e-05 0)
(6.20869e-05 1.0437e-05 8.52826e-20)
(0.00132542 0.00451709 8.93829e-19)
(8.42603e-05 2.21019e-05 8.6458e-20)
(0.000792317 2.4724e-05 0)
(0.000367132 -0.000153959 6.78617e-19)
(0.000371358 0.000280052 5.12444e-21)
(0.000385212 7.00316e-05 -1.00493e-18)
(0.00634713 0.01094 -7.68969e-19)
(0.00622525 0.0107961 1.53315e-20)
(0.00561203 0.0103776 1.45712e-18)
(0.000808425 -4.15253e-06 0)
(7.34452e-05 3.70285e-05 0)
(0.000322684 3.13166e-05 8.3708e-24)
(7.06364e-05 1.47675e-05 -3.46844e-19)
(0.000827156 -5.66278e-06 0)
(0.000612096 2.68058e-05 3.17947e-19)
(0.000815573 -1.60008e-06 2.19717e-18)
(0.000777284 5.55599e-06 -5.42657e-19)
(0.000788005 1.93808e-05 -3.12703e-19)
(0.00171649 0.000491657 5.43949e-19)
(0.00078539 -1.34283e-07 -1.1425e-18)
(0.000815602 -1.84307e-06 -5.2098e-19)
(9.2112e-05 2.90091e-06 -1.73604e-19)
(0.000675072 0.00229627 0)
(0.000817359 1.81309e-05 0)
(0.000754713 1.7097e-05 -1.37741e-18)
(4.31761e-05 1.92868e-05 0)
(0.000282098 0.000276557 3.27179e-19)
(4.93441e-05 -1.99856e-05 0)
(4.94052e-05 -6.80722e-06 1.59651e-19)
(2.99115e-05 -5.47884e-05 -3.37059e-20)
(0.000768911 6.47026e-05 2.47397e-19)
(5.00741e-05 1.36124e-05 0)
(0.00078473 5.70389e-05 4.44986e-19)
(0.000751884 0.000298924 2.10962e-19)
(0.000962701 5.95278e-05 -3.98435e-20)
(4.82975e-05 2.73228e-05 -4.52366e-20)
(7.30424e-06 -3.93158e-05 0)
(0.000421362 0.00022379 1.70366e-19)
(2.40201e-06 3.22613e-05 0)
(0.000761092 2.30081e-05 -6.07999e-19)
(0.000563044 -0.000115759 0)
(7.36263e-05 1.977e-06 -1.74672e-19)
(5.56644e-06 -5.2787e-05 0)
(0.000810947 0.000247981 -3.41662e-19)
(5.16991e-06 -2.42914e-05 0)
(0.000414509 0.000324552 -1.25204e-23)
(0.000511764 0.000116672 0)
(0.000793085 4.93512e-05 -1.50429e-24)
(3.08128e-06 2.15046e-05 -4.22185e-20)
(0.000435826 4.78366e-06 1.7656e-18)
(0.00102018 7.39121e-05 4.16543e-20)
(0.000929991 3.94893e-05 6.412e-22)
(0.00072554 0.000654446 2.69784e-19)
(5.23626e-06 6.2856e-05 0)
(7.77346e-06 -9.67133e-05 -3.12727e-19)
(1.02157e-05 -0.000180466 -1.10149e-18)
(2.03207e-06 9.76952e-05 -5.96606e-19)
(0.000691748 -8.2278e-06 0)
(5.44318e-06 0.000124542 0)
(0.000792139 9.18599e-06 2.22636e-18)
(0.000765288 2.20355e-05 1.51495e-18)
(0.000402182 -4.12017e-05 0)
(5.12714e-05 0.000230389 -8.95806e-19)
(-1.56061e-06 0.000199374 4.96641e-19)
(7.7227e-05 0.000455148 6.25689e-19)
(0.000295861 0.000106291 -9.38052e-19)
(0.000804832 1.46625e-05 1.36365e-19)
(0.000265924 -1.14809e-05 5.31816e-19)
(3.33229e-06 4.41539e-05 0)
(3.45361e-05 0.000312288 -1.09453e-18)
(0.000313525 0.000329113 -1.61867e-19)
(7.38677e-06 -7.39399e-05 1.4676e-19)
(0.000657578 0.00079671 0)
(0.000359522 0.000392354 5.75e-20)
(0.000803808 1.11122e-06 1.07217e-18)
(0.000784833 -8.76936e-06 -2.68781e-18)
(9.18638e-06 -0.000124527 0)
(0.00072734 -1.96909e-05 -1.12462e-19)
(0.000318862 -6.84492e-05 1.24468e-18)
(0.00269091 0.000794516 -3.36096e-19)
(1.1962e-07 0.000156217 -6.1345e-19)
(-6.44563e-06 0.000192016 1.62006e-18)
(0.000806369 1.85673e-05 -3.89497e-20)
(7.23069e-05 -8.64992e-06 -7.5101e-19)
(0.000786009 2.6359e-05 -3.89745e-19)
(0.00085488 2.75113e-05 -4.1026e-20)
(5.46985e-05 0.000364463 -5.97127e-19)
(0.000469587 8.16578e-05 -4.94472e-19)
(5.67264e-05 -2.18756e-06 1.56329e-19)
(0.000818081 2.27407e-06 -1.07703e-18)
(0.00161081 0.00021328 -1.13746e-18)
(1.75805e-06 7.70771e-05 4.96672e-19)
(0.000799572 4.78898e-06 -4.98592e-19)
(0.00088505 0.000539481 -7.85946e-20)
(0.000131517 0.000833981 0)
(0.000559221 6.76462e-05 0)
(0.000270932 6.35772e-05 -1.61147e-18)
(6.81185e-05 6.48069e-05 -1.37561e-18)
(3.49603e-05 2.39571e-05 0)
(0.0042508 0.00741241 -1.01536e-20)
(0.00423056 0.00738328 3.1913e-20)
(0.00443342 0.0075845 -5.1723e-21)
(0.004208 0.00773679 0)
(0.0042008 0.00760108 5.77852e-19)
(0.00424902 0.00741337 -9.25304e-20)
(0.00421104 0.0080448 4.84812e-19)
(0.00428583 0.00742101 0)
(0.00420774 0.00854052 6.1727e-19)
(0.004324 0.00744406 2.13758e-19)
(0.000806331 -3.32206e-06 -1.37121e-18)
(0.00075207 5.0486e-05 0)
(0.000218338 6.83128e-05 1.27824e-19)
(5.62331e-05 1.96533e-05 8.72817e-20)
(8.35506e-05 5.14485e-05 6.80769e-19)
(0.000112595 4.90663e-05 -3.42043e-19)
(0.000108142 1.30642e-05 0)
(5.47948e-05 7.32469e-06 8.19234e-20)
(0.000204502 0.000144542 0)
(0.000171225 5.63434e-05 -5.24819e-20)
(0.000336378 0.000230596 -5.0978e-21)
(6.05547e-05 4.85912e-05 -4.3814e-19)
(9.72998e-05 3.45391e-05 -8.53415e-20)
(9.55299e-05 6.91766e-05 1.31338e-21)
(0.000248195 0.0003718 -6.66848e-19)
(0.000128699 0.00105259 0)
(4.60806e-05 5.79357e-05 3.43441e-19)
(0.00019796 0.00179481 0)
(0.000206346 0.00026013 7.05388e-19)
(4.45938e-05 -5.49815e-06 1.11462e-19)
(0.000468387 0.000169794 -1.72484e-19)
(0.000746578 2.89907e-05 -1.90826e-18)
(4.89911e-05 -2.38408e-07 4.11054e-24)
(0.000155906 3.58676e-05 2.24831e-19)
(0.000240009 0.000106385 -9.00302e-20)
(0.000874679 0.000708308 3.35277e-19)
(0.000746513 0.00161857 -9.22132e-21)
(0.000381961 0.00140826 -9.43347e-21)
(0.00101363 0.000558736 0)
(0.000112703 -1.08146e-05 1.12e-18)
(0.00012482 2.59845e-05 -4.43639e-20)
(0.000426343 -0.0002621 -1.13691e-18)
(0.000801656 3.014e-05 0)
(0.000185097 2.34038e-05 3.63678e-19)
(0.00029617 0.00133944 0)
(0.00103874 0.000753667 -7.30953e-20)
(0.000819559 4.04097e-05 -1.85203e-19)
(8.89348e-05 -1.84981e-05 -3.00328e-19)
(0.000808205 0.000314632 -2.08282e-20)
(7.19666e-05 -2.20523e-05 -6.0019e-19)
(0.000226224 0.000183538 8.64777e-20)
(0.000226375 0.000312787 -3.45368e-19)
(0.000870383 0.000238978 0)
(0.000795444 4.62356e-05 0)
(0.000259253 0.000150569 1.77034e-19)
(0.000234962 1.83864e-05 1.83768e-24)
(0.000184771 0.000213302 0)
(0.000282269 0.000649628 -5.56169e-21)
(0.000332269 1.69081e-05 0)
(0.000343299 0.000599589 0)
(0.000114295 9.10676e-05 -1.34818e-21)
(0.00080963 4.96165e-06 -9.38534e-19)
(0.000813523 1.76501e-06 7.80685e-19)
(0.00013389 6.77278e-05 -1.50019e-19)
(0.000939738 0.000152597 8.51788e-20)
(0.000823952 4.82781e-05 3.32977e-19)
(0.000798565 1.6784e-05 -2.9534e-19)
(0.000994167 0.00040367 0)
(0.000427489 0.000127743 6.25129e-19)
(0.000882249 0.000315812 2.09374e-20)
(0.000556343 0.00016427 0)
(0.000272851 0.000442302 4.10049e-19)
(0.000258823 0.000225812 -8.45054e-20)
(0.00109206 0.000377845 -7.82826e-19)
(0.000599861 0.000114277 -1.79499e-19)
(0.00079126 7.75917e-05 -7.45119e-21)
(0.000823616 2.69379e-05 9.353e-20)
(0.000102804 -9.09633e-05 -1.98355e-18)
(0.00072626 0.000380616 2.19468e-19)
(0.000644605 6.45386e-05 2.30831e-20)
(0.000691041 0.000275399 1.56026e-23)
(0.000714487 0.000451074 -4.0995e-19)
(0.000832106 3.95629e-05 8.97194e-20)
(7.63179e-05 8.83725e-05 0)
(0.00064118 0.000416515 -4.66156e-20)
(0.000185152 0.0001078 0)
(0.000368467 0.000505066 -2.65092e-19)
(0.000309384 0.000177985 0)
(0.000660193 0.000202792 3.55634e-19)
(0.000633087 0.000265771 -4.3774e-20)
(8.32551e-05 0.000109512 6.19836e-19)
(0.000870701 0.000106 -1.63533e-18)
(6.3851e-05 2.65248e-05 2.57478e-19)
(0.000869268 5.10911e-05 -1.65785e-18)
(0.000817967 7.28664e-05 1.61817e-19)
(0.000796041 1.7521e-05 1.93177e-18)
(0.00079288 1.5248e-05 -1.31507e-19)
(0.000710799 7.44334e-05 0)
(0.000809353 3.3154e-05 8.79789e-19)
(0.000933461 0.00023287 -4.27606e-19)
(0.000751176 8.04566e-05 -4.83699e-19)
(0.00076552 0.000226805 -8.82253e-20)
(0.000236535 -0.000120507 -2.08158e-18)
(0.000720638 8.97793e-05 8.8778e-19)
(0.0006321 0.000595308 0)
(0.000123385 -0.000102288 0)
(0.00118882 0.000467885 4.97699e-19)
(0.000749516 -9.22134e-05 -3.2349e-18)
(0.00130529 0.000426425 5.76244e-19)
(0.00125209 0.000713476 -6.39946e-20)
(0.000790786 4.66873e-05 -2.13021e-19)
(0.000819766 7.22124e-05 -1.42133e-18)
(0.00080846 1.89145e-05 1.5724e-18)
(0.000804998 2.38617e-05 9.68533e-20)
(0.000662161 0.000345241 -4.40883e-20)
(0.000105977 0.000136476 8.60712e-24)
(0.000721091 -6.04119e-05 2.65398e-19)
(0.000243143 -0.000209137 -7.3694e-19)
(0.000604943 0.000190739 0)
(0.000682197 2.6571e-05 9.91555e-20)
(0.000659849 9.49631e-06 -3.81262e-19)
(0.000379164 0.000178859 3.93708e-20)
(0.000784455 0.000498249 -1.65647e-19)
(0.000154317 8.6693e-05 2.53762e-25)
(0.000802033 0.000395872 0)
(0.00096119 0.000322017 4.16255e-20)
(0.00073042 -9.52544e-05 -6.17001e-19)
(0.000339319 0.000114977 4.98232e-19)
(0.00089224 0.000419165 0)
(5.46478e-05 3.59784e-05 1.33859e-19)
(0.000469318 0.000272975 2.14176e-19)
(0.000452003 -0.000103596 -7.09976e-19)
(0.000175015 -0.000136661 -1.0602e-18)
(0.000808937 1.41383e-05 -4.76256e-19)
(0.000799368 -0.000112731 -1.93552e-19)
(0.000564605 0.000721508 -1.17558e-18)
(0.000831021 4.67137e-05 -6.68507e-20)
(0.00072959 -3.54478e-05 1.26092e-18)
(0.000670832 9.86664e-05 2.2805e-20)
(0.000513938 0.000217576 -1.65859e-19)
(4.04061e-05 -2.48879e-05 -8.76798e-20)
(0.000190592 -2.71827e-05 2.40876e-18)
(2.82778e-05 9.61332e-07 -1.95026e-19)
(0.000792342 9.44422e-05 3.6165e-19)
(0.000637346 0.000139784 0)
(0.000201697 -5.68755e-05 -1.0492e-18)
(0.000130414 -3.78288e-06 3.1321e-19)
(0.000128832 -3.16778e-05 -2.91084e-25)
(0.000782097 0.000114058 -3.1888e-19)
(0.000159587 -4.36562e-06 0)
(0.000570617 0.000243972 0)
(0.000111243 0.00033854 -3.63223e-19)
(0.000845877 0.000100335 2.10096e-18)
(2.30295e-05 1.66326e-06 0)
(0.000852349 4.2073e-05 0)
(5.27608e-05 -2.67109e-05 0)
(0.00081098 3.00796e-05 -4.43551e-21)
(0.000804075 -6.37682e-05 0)
(0.00425749 0.00741167 8.08111e-20)
(0.00436065 0.00748321 1.448e-19)
(0.000840417 5.61921e-06 0)
(0.000759167 -5.76913e-05 8.13666e-19)
(0.000154005 0.000134937 1.49366e-19)
(0.000843693 7.56383e-05 7.95227e-19)
(0.000134098 0.000111551 2.34648e-20)
(0.000756992 -4.50872e-05 6.26919e-19)
(3.98981e-05 1.20023e-05 0)
(3.5883e-05 -1.6668e-05 -4.4898e-20)
(0.000872941 5.3002e-05 -4.85838e-19)
(4.44141e-05 -3.56702e-05 -6.7045e-19)
(0.000739866 0.000119485 -4.23513e-20)
(0.00016786 0.000172102 -1.88296e-19)
(0.000808974 1.5038e-05 0)
(0.004683 0.00815305 8.98417e-22)
(0.000165992 0.000783077 3.34079e-19)
(0.000134714 -4.84669e-05 -9.15525e-19)
(7.30733e-05 -3.52139e-05 -1.17e-18)
(0.000743271 1.81335e-05 1.89948e-20)
(0.000571352 0.000414084 0)
(0.000403099 0.000435553 -2.56591e-19)
(0.000107494 -5.26514e-05 1.1849e-18)
(0.000701273 2.98948e-06 7.67329e-20)
(4.79571e-05 2.57315e-06 4.07513e-19)
(0.000655756 -5.98099e-05 1.17307e-18)
(0.000805703 2.79119e-05 -5.98183e-19)
(8.5756e-05 -5.50923e-05 1.71092e-18)
(0.000836867 -1.89811e-06 -3.54405e-24)
(0.000719093 1.00387e-05 -3.76983e-20)
(0.000854618 5.84364e-05 0)
(0.000810983 3.40752e-05 0)
(0.00592662 0.00724012 2.58929e-19)
(2.96179e-05 4.01679e-07 -1.19688e-19)
(0.000168387 -8.04706e-05 7.73709e-19)
(0.000708855 0.00012129 -6.97273e-19)
(3.37569e-05 -7.17121e-07 2.01669e-19)
(0.000577236 -2.45781e-05 -7.24686e-19)
(0.000723602 2.53645e-05 1.55521e-18)
(0.000688239 0.000155237 -3.5584e-19)
(0.000804289 -1.92095e-05 3.54626e-19)
(9.36516e-05 -2.94858e-05 1.11728e-18)
(0.000784585 9.05201e-06 -3.19817e-19)
(0.00085253 4.90444e-05 0)
(0.000528043 0.000302753 4.21468e-20)
(0.000839994 4.42395e-05 -9.34369e-19)
(2.95649e-05 8.13015e-08 9.11896e-19)
(0.000830846 4.06219e-05 9.41077e-19)
(0.000839849 -1.5028e-05 -9.61367e-19)
(0.000710786 6.84442e-06 -5.69759e-19)
(0.00048839 -5.27927e-05 -5.26264e-19)
(0.00432831 0.00744911 2.37858e-19)
(0.00422714 0.00753285 -2.76733e-19)
(0.00422301 0.00758901 2.67829e-19)
(0.00425827 0.00742058 1.98259e-19)
(0.000843881 -6.22258e-06 1.43321e-19)
(0.00447501 0.00750794 0)
(0.00440184 0.0075153 -3.86416e-19)
(4.37634e-05 -2.74684e-07 -9.97827e-19)
(0.00417163 0.00747366 -6.34629e-20)
(0.00414642 0.0074344 -2.22077e-19)
(0.00602821 0.0106042 0)
(0.00653764 0.0111848 3.73096e-20)
(0.00600801 0.010574 0)
(0.00655486 0.0112065 1.3064e-19)
(0.00599491 0.0105977 2.69998e-19)
(0.00659472 0.0112232 1.25048e-20)
(0.00593354 0.0106111 -7.77518e-19)
(0.00662713 0.0111426 8.23262e-21)
(0.00390198 0.00920469 -1.91109e-19)
(0.00418931 0.00749348 3.809e-21)
(0.00424114 0.00755605 7.94175e-20)
(0.00415233 0.00743725 4.13062e-20)
(0.000852197 0.000179994 4.47272e-20)
(1.67437e-05 2.3283e-06 0)
(0.000659646 -0.000149446 0)
(0.000717743 3.54222e-05 0)
(0.00243972 0.00111146 4.19251e-21)
(0.000737377 -2.67366e-05 1.71244e-19)
(4.65028e-05 7.6868e-06 4.54566e-20)
(1.89769e-05 -3.28829e-05 1.65429e-18)
(0.000838116 2.23221e-05 0)
(3.21718e-05 1.54291e-05 -1.91941e-19)
(0.000144446 0.000230906 0)
(3.00951e-05 -1.29839e-06 0)
(2.49452e-05 -1.95771e-06 0)
(0.000798819 0.000124714 1.13464e-20)
(0.00081206 -3.66569e-06 1.77773e-19)
(3.35079e-05 0.000307667 -1.23841e-23)
(0.000161058 0.000278119 -1.84384e-18)
(0.000592082 0.000337305 -8.57911e-20)
(0.000888796 0.000128564 6.02639e-19)
(0.000706184 -0.000373898 6.71056e-19)
(0.000332505 0.0011144 0)
(0.000454843 0.000561603 2.71756e-18)
(9.5812e-05 0.000153721 -1.80348e-18)
(3.59336e-05 4.56419e-07 0)
(0.00082079 -3.22389e-05 3.61072e-20)
(2.02214e-05 4.26352e-05 1.64631e-18)
(0.000897297 2.61999e-05 2.71596e-19)
(4.62959e-05 -0.000150635 3.79284e-18)
(0.000925436 4.04171e-05 -2.69396e-19)
(0.00139678 0.000132914 7.48081e-19)
(4.39587e-05 -1.23938e-05 8.26645e-20)
(4.4064e-05 7.0894e-06 -8.59526e-19)
(4.86134e-05 0.000154544 0)
(0.000891037 8.2446e-05 5.97633e-19)
(0.00048576 0.000370347 2.37387e-19)
(0.000767144 1.73535e-05 -3.88876e-20)
(0.000754466 -1.44682e-05 2.56634e-19)
(0.000716542 -0.000225384 0)
(0.00632125 0.0108988 -1.68282e-19)
(0.00637833 0.0109748 4.06301e-19)
(0.00615884 0.0107283 -6.19014e-19)
(0.00649928 0.0111331 -8.10889e-20)
(4.0182e-05 0.000124147 8.01414e-19)
(0.000893195 5.71025e-05 1.54525e-22)
(0.00640999 0.0110028 -3.87074e-19)
(0.00628097 0.0108442 5.48649e-19)
(0.00607989 0.0106724 -4.15798e-19)
(0.00651906 0.0111659 -6.82118e-20)
(8.89391e-05 0.00055129 -2.02091e-20)
(0.000153732 -0.000191806 -7.93302e-19)
(0.000756461 -9.54941e-06 -7.59989e-19)
(0.000711522 0.000220311 0)
(0.000787787 2.0973e-06 0)
(0.00018424 0.000393561 3.36642e-19)
(0.000596652 0.000547603 -5.42013e-19)
(1.83117e-05 -2.76889e-06 1.78601e-19)
(0.000208631 0.000464097 -7.39146e-19)
(0.0010032 0.0009749 -1.12828e-19)
(0.000727471 0.000170839 0)
(0.000775034 0.000171603 1.31176e-19)
(0.00637168 0.00587559 1.12989e-18)
(0.000720838 0.00114166 8.28411e-20)
(4.38261e-05 4.33907e-05 -7.45536e-20)
(0.000815589 4.06866e-05 0)
(0.00087351 2.25093e-05 -3.57365e-20)
(4.24128e-05 5.60371e-06 -1.96874e-19)
(3.64937e-05 7.04209e-06 1.93178e-19)
(0.000821818 2.15124e-05 5.36515e-19)
(0.000959583 0.000104189 6.59319e-19)
(0.000660906 3.96691e-05 0)
(0.000221173 -0.000308598 -3.98556e-19)
(0.000895163 0.000145706 3.90096e-19)
(3.34364e-05 -7.99911e-05 2.03351e-19)
(0.00144455 0.000375448 -2.58746e-18)
(0.000690674 -1.10487e-06 0)
(0.000778605 0.000142094 3.75926e-19)
(9.11653e-05 0.000407054 0)
(0.0011809 0.00816795 4.62245e-19)
(0.000468097 0.000507201 -1.22528e-18)
(0.000541293 0.00097458 -1.83936e-19)
(0.000865381 2.43999e-05 -1.4583e-19)
(1.78641e-05 2.99924e-05 0)
(0.00091658 7.37426e-05 6.12493e-19)
(0.00410408 0.00739667 8.15226e-20)
(0.00417272 0.0074783 4.74268e-20)
(0.0044981 0.00751222 4.54582e-19)
(0.00444317 0.00754047 -3.25856e-19)
(0.00647164 0.0111087 8.11802e-20)
(0.00390854 0.00713972 -9.38695e-22)
(0.0055122 0.00779446 -5.65136e-19)
(0.00409019 0.00736397 5.23478e-21)
(0.00518984 0.00785458 5.12031e-19)
(0.00406989 0.00733168 -4.90147e-20)
(0.00495397 0.00771255 0)
(0.00407366 0.0073601 -8.5909e-20)
(0.00474152 0.00758529 4.93002e-19)
(0.00409211 0.00737743 8.76318e-20)
(0.0045738 0.0075229 0)
(0.00427932 0.00741957 1.4003e-19)
(0.00424062 0.00760057 5.82519e-19)
(0.00446653 0.00752459 -5.50091e-19)
(0.00438663 0.0075015 3.71616e-19)
(0.00423246 0.00752964 3.19778e-19)
(0.00642786 0.0110403 -4.91972e-21)
(0.00411671 0.0074039 3.12126e-20)
(0.00645609 0.0110687 0)
(2.96214e-05 8.615e-06 -1.90076e-19)
(0.00198319 0.00653293 2.2863e-19)
(0.000844111 -1.39798e-05 1.09517e-19)
(0.000856225 1.79994e-05 0)
(3.41252e-06 3.42036e-06 -3.99567e-19)
(6.19802e-05 -0.000195041 6.92568e-19)
(2.45907e-05 6.40999e-05 2.09131e-18)
(0.000810227 0.000184378 -9.01878e-20)
(0.000783498 1.13246e-05 6.99438e-19)
(3.83645e-06 -3.88551e-06 3.10349e-19)
(2.63606e-05 -4.28609e-05 -1.84754e-18)
(0.000748841 2.623e-05 1.6159e-19)
(0.000851101 0.000128245 -3.07563e-20)
(0.000781003 -8.04255e-06 1.46918e-19)
(0.000403546 0.000660612 0)
(0.000111233 -0.000152909 1.15249e-18)
(0.000844357 1.73555e-05 1.52426e-19)
(2.31687e-05 2.81974e-05 0)
(0.000104949 0.000566824 -6.31831e-19)
(0.000605716 0.000601908 1.31924e-18)
(0.000338796 0.000729418 0)
(0.000780412 -1.5996e-05 0)
(0.000784275 2.0435e-05 1.16942e-18)
(2.3022e-05 5.393e-05 -3.51886e-18)
(2.10424e-05 1.02562e-05 3.74047e-19)
(0.000113985 0.00015512 0)
(6.06923e-05 -4.43826e-05 0)
(6.91487e-05 0.000121301 2.01223e-19)
(0.000911447 0.000173806 3.5086e-19)
(0.000796317 4.37164e-06 -1.38263e-18)
(2.62676e-05 3.87825e-05 0)
(0.000561019 4.75172e-05 -6.02712e-20)
(0.000791132 3.56933e-05 -1.54797e-19)
(0.000826157 1.77045e-05 1.04081e-18)
(0.000255463 0.000546616 6.32875e-19)
(0.000842128 0.000148643 0)
(2.96049e-05 -3.07677e-05 5.39293e-19)
(4.33522e-06 -1.31608e-05 -3.20331e-19)
(0.00107297 1.67565e-05 0)
(0.00101735 0.00222223 0)
(0.00102511 -4.21149e-05 0)
(0.000983148 0.00019513 4.27708e-19)
(0.00081687 -1.94059e-05 -2.81971e-19)
(0.000902568 0.000120377 -6.85626e-19)
(0.000786051 6.41126e-06 0)
(4.42582e-05 7.71311e-05 -1.71759e-19)
(0.00017312 0.000331173 1.08227e-18)
(0.000788685 3.31025e-05 1.38563e-23)
(0.00106751 0.00019242 -6.69108e-19)
(0.00108354 0.000117634 0)
(3.59001e-06 1.16312e-05 2.51316e-19)
(2.51872e-05 -2.0377e-05 -1.94536e-19)
(0.000654826 3.09154e-05 6.89108e-21)
(4.20067e-05 -0.000107316 0)
(0.00103006 0.000248056 9.51139e-19)
(0.00502734 0.00974509 -2.83797e-19)
(0.0031171 0.00962326 1.27425e-18)
(8.02158e-05 -0.00012016 -1.9157e-19)
(8.12431e-05 -8.25608e-05 1.86175e-18)
(0.0011891 0.000224214 1.67039e-19)
(0.00132866 0.00106443 2.34327e-19)
(0.000823804 5.94793e-06 -7.36574e-19)
(0.000216055 0.000941955 -2.39142e-19)
(0.00078683 0.000888862 -2.18802e-19)
(0.000788562 -7.27639e-06 0)
(9.82637e-05 0.000678168 0)
(9.81191e-05 0.000287374 -4.73495e-23)
(0.000744407 -2.43313e-05 -1.83319e-23)
(0.000808185 3.1219e-05 1.51007e-19)
(0.00261691 0.00204487 -1.23221e-18)
(0.00175425 0.00924113 -1.17366e-19)
(0.000824383 2.87813e-05 4.83892e-19)
(0.00635498 0.00403796 -1.75539e-19)
(0.00672627 0.011552 -1.37117e-20)
(0.00473141 0.00784002 4.94113e-21)
(0.000799364 3.12081e-05 -2.17624e-18)
(0.000822493 3.27541e-05 -4.1773e-24)
(1.4839e-05 -1.15822e-05 -3.48413e-19)
(4.85226e-05 9.88952e-05 -3.49673e-19)
(7.92696e-05 0.000282844 8.76671e-19)
(1.52027e-05 2.01382e-05 4.9097e-19)
(9.07583e-05 0.000240523 3.70165e-19)
(0.000819784 3.59707e-05 0)
(0.00535309 0.00949267 1.9408e-20)
(0.00153279 0.00061064 -2.62016e-20)
(0.000821459 2.32674e-05 3.55888e-19)
(6.07874e-05 -9.4499e-05 0)
(0.0018427 0.000755452 5.46421e-19)
(1.33764e-05 1.07895e-05 -2.70465e-19)
(3.88731e-05 3.36738e-05 9.72939e-20)
(0.00131656 0.00137403 6.37049e-19)
(0.000750561 3.3973e-05 1.81098e-19)
(1.14201e-05 -3.20007e-06 -1.70403e-19)
(0.00204458 0.0015448 -1.05725e-18)
(0.000127978 0.000188167 -8.19625e-19)
(0.00392304 0.008477 -1.09143e-18)
(1.03787e-05 2.82853e-06 8.82438e-20)
(0.000198439 -0.000289254 -1.24828e-18)
(6.55059e-05 -6.08632e-05 4.06125e-20)
(0.00150922 0.000964959 0)
(0.00102005 0.000142832 -4.21766e-22)
(0.000446139 0.000855304 -4.0261e-20)
(0.000802293 2.05892e-05 -2.31634e-19)
(8.70022e-05 0.000194792 7.36486e-19)
(5.07378e-05 -7.15057e-05 4.04505e-19)
(2.19249e-05 1.87973e-05 -9.48191e-20)
(3.79575e-05 0.000103724 -3.20649e-19)
(0.000196876 -0.000349957 -5.40483e-19)
(0.00323573 0.00343402 2.96221e-21)
)
;

boundaryField
{
    back
    {
        type            empty;
    }
    ingreso
    {
        type            fixedValue;
        value           uniform (0.0008 0 0);
    }
    salida
    {
        type            zeroGradient;
    }
    front
    {
        type            empty;
    }
    defaultFaces
    {
        type            noSlip;
    }
}


// ************************************************************************* //
