/*--------------------------------*- C++ -*----------------------------------*\
  =========                 |
  \\      /  F ield         | OpenFOAM: The Open Source CFD Toolbox
   \\    /   O peration     | Website:  https://openfoam.org
    \\  /    A nd           | Version:  7
     \\/     M anipulation  |
\*---------------------------------------------------------------------------*/
FoamFile
{
    version     2.0;
    format      ascii;
    class       volVectorField;
    location    "108.5";
    object      U;
}
// * * * * * * * * * * * * * * * * * * * * * * * * * * * * * * * * * * * * * //

dimensions      [0 1 -1 0 0 0 0];

internalField   nonuniform List<vector> 
591
(
(0.000839003 2.40232e-08 1.21602e-18)
(0.000836091 4.61457e-07 -6.61114e-19)
(0.00085205 2.52715e-05 5.69518e-20)
(0.000868797 -2.92836e-05 -1.49002e-19)
(0.000857747 -1.3394e-05 2.25421e-19)
(0.000803679 -3.77518e-05 -1.39566e-19)
(0.000559183 -0.000209215 8.06264e-19)
(0.000803537 4.16589e-06 2.10803e-18)
(0.005721 0.00251149 9.87985e-19)
(0.000820742 4.44002e-06 2.44059e-18)
(4.52803e-05 0.000157521 1.21783e-18)
(0.00093939 0.00139864 9.40689e-21)
(0.000801499 4.39078e-06 1.32287e-18)
(0.00160531 0.00240558 -7.87379e-19)
(0.00080324 1.39978e-06 -4.46673e-19)
(3.75707e-05 -0.000134046 2.5509e-22)
(0.000141636 0.000665641 7.04763e-19)
(0.000817945 8.17484e-05 -4.97168e-19)
(0.00189393 0.000392419 4.7372e-19)
(0.00135837 0.000259363 -2.47093e-19)
(0.00083038 -8.98835e-06 3.7307e-19)
(0.00340079 0.00656025 -8.1426e-20)
(2.2034e-05 6.16092e-05 2.70848e-19)
(0.000835602 -2.65098e-05 -4.51543e-19)
(4.95239e-06 -9.79194e-06 3.58773e-19)
(0.000796803 4.72033e-05 0)
(9.51324e-05 0.000464435 1.59925e-19)
(0.000583847 -4.6885e-06 -1.78763e-19)
(0.000770251 4.86516e-05 1.14902e-18)
(0.000805105 7.40111e-05 5.8428e-19)
(4.63252e-05 -6.131e-06 -5.53428e-24)
(1.80947e-05 -3.64864e-05 3.52034e-19)
(2.55099e-05 -2.4101e-06 -4.64037e-20)
(3.5055e-05 -1.2257e-05 0)
(4.33067e-05 -1.2782e-05 1.131e-18)
(0.00116865 0.000142292 1.79813e-19)
(2.12773e-05 -3.8401e-06 4.46968e-20)
(0.000823516 6.7544e-07 3.08573e-23)
(2.18637e-05 3.6586e-05 2.65927e-19)
(-1.38899e-05 -4.9068e-05 -8.5304e-19)
(0.000662789 -0.000181551 9.5869e-19)
(1.61877e-05 -4.39544e-06 4.54644e-20)
(0.000817633 2.43765e-05 -1.57504e-18)
(0.000831641 5.14737e-05 -6.90615e-19)
(1.01991e-05 -4.80764e-06 0)
(4.56291e-05 2.8574e-06 8.5154e-20)
(0.00135058 0.00450261 8.92775e-19)
(6.50739e-05 8.37473e-06 8.63296e-20)
(0.000802937 1.72768e-05 0)
(0.000397363 -0.000234474 6.76858e-19)
(0.000392754 0.000263653 5.11752e-21)
(0.000408033 2.61538e-05 -1.0034e-18)
(0.00634761 0.0109401 -7.68704e-19)
(0.00622451 0.0107953 1.52882e-20)
(0.00561471 0.0103781 1.45597e-18)
(0.000804709 5.25783e-05 0)
(5.88287e-05 2.31755e-05 0)
(0.000322249 -1.54545e-05 3.17711e-23)
(5.31578e-05 5.22734e-06 -3.46325e-19)
(0.000811837 -6.56674e-06 0)
(0.000672375 2.79529e-05 3.1743e-19)
(0.000849229 3.28271e-05 2.20805e-18)
(0.000813822 4.10964e-05 -5.39706e-19)
(0.000800028 1.1079e-05 -3.15641e-19)
(0.00171363 0.000486512 5.42366e-19)
(0.000814279 3.61001e-05 -1.14404e-18)
(0.000841453 4.06759e-05 -5.23761e-19)
(6.63694e-05 -9.0531e-06 -1.73344e-19)
(0.000691519 0.00225573 0)
(0.000846823 5.16066e-05 0)
(0.00079668 3.17763e-05 -1.392e-18)
(3.1848e-05 1.22187e-05 0)
(0.000294644 0.000260072 3.26746e-19)
(2.93113e-05 -1.46673e-05 0)
(3.16287e-05 -5.37601e-06 1.59411e-19)
(3.30802e-06 -3.08821e-05 -3.36526e-20)
(0.000807236 7.95561e-05 2.46877e-19)
(3.68593e-05 7.35526e-06 0)
(0.000815761 5.60513e-05 4.47218e-19)
(0.000784445 0.000297198 2.1065e-19)
(0.000959361 7.05207e-05 -3.97548e-20)
(3.64639e-05 1.79472e-05 -4.51688e-20)
(2.72694e-06 -8.32082e-06 0)
(0.000446374 0.000208543 1.70128e-19)
(2.5892e-06 1.43682e-05 0)
(0.000808931 5.14077e-05 -6.08124e-19)
(0.000659708 -0.000111968 0)
(5.32422e-05 -5.90167e-06 -1.74412e-19)
(3.69606e-07 -1.2329e-05 0)
(0.000839033 0.000244249 -3.41126e-19)
(1.48408e-06 -4.33821e-06 0)
(0.000436164 0.000317621 -1.36203e-23)
(0.000551002 0.000105741 0)
(0.000818513 4.53222e-05 -3.17908e-24)
(1.993e-06 8.30981e-06 -4.2155e-20)
(0.000481173 -3.4319e-05 1.76279e-18)
(0.00101597 7.50537e-05 4.15711e-20)
(0.000771196 4.82249e-05 6.41718e-22)
(0.000750536 0.000660733 2.69409e-19)
(6.84891e-06 3.56443e-05 0)
(-8.14381e-06 -7.99451e-06 -3.12186e-19)
(-3.70647e-05 5.43263e-06 -1.10121e-18)
(5.28136e-06 6.0206e-05 -5.96145e-19)
(0.000587812 -3.14262e-05 0)
(9.39807e-06 8.30366e-05 0)
(0.000822967 3.73211e-05 2.18076e-18)
(0.00080514 4.19251e-05 1.53372e-18)
(0.000460825 -0.000123598 0)
(3.82506e-05 0.000203192 -8.95031e-19)
(1.77436e-06 0.000145341 4.96805e-19)
(5.47231e-05 0.000384185 6.25083e-19)
(0.00031376 5.86006e-05 -9.36887e-19)
(0.000801772 1.99421e-05 1.37365e-19)
(0.000254926 -8.31228e-05 5.3101e-19)
(4.11339e-06 2.20028e-05 0)
(1.82781e-05 0.000262887 -1.09391e-18)
(0.000328386 0.000315932 -1.61655e-19)
(-2.02695e-06 -5.24398e-06 1.46516e-19)
(0.000671057 0.000801754 0)
(0.000377316 0.000377851 5.74238e-20)
(0.000828918 3.36772e-05 1.07022e-18)
(0.000799738 1.81252e-06 -2.72558e-18)
(5.24717e-06 2.37349e-05 0)
(0.000657579 -4.35777e-05 -1.12266e-19)
(0.00032539 -0.000162437 1.24268e-18)
(0.00261473 0.00081067 -3.36524e-19)
(8.86756e-06 0.000111857 -6.13093e-19)
(9.59618e-06 0.000140005 1.61951e-18)
(0.000642128 2.64514e-05 -3.89648e-20)
(5.02685e-05 -1.73083e-05 -7.49867e-19)
(0.000813966 4.20306e-05 -3.91422e-19)
(0.000693818 2.82596e-05 -4.10477e-20)
(3.06083e-05 0.000310508 -5.97039e-19)
(0.000511601 4.62922e-05 -4.93752e-19)
(3.84063e-05 -4.73516e-06 1.5609e-19)
(0.000844456 4.5178e-05 -1.08505e-18)
(0.00152653 0.000236274 -1.13639e-18)
(5.42709e-06 4.82539e-05 4.96242e-19)
(0.000814512 3.86571e-05 -5.03317e-19)
(0.000927658 0.000558408 -7.84827e-20)
(0.000150705 0.000776015 0)
(0.000610095 6.0867e-05 0)
(0.000279491 3.38645e-05 -1.60888e-18)
(5.70255e-05 4.94441e-05 -1.37358e-18)
(2.54855e-05 1.62677e-05 0)
(0.00424797 0.00740139 -1.01974e-20)
(0.00422604 0.0073729 3.16723e-20)
(0.00442821 0.00757562 -4.99424e-21)
(0.00420525 0.00773332 0)
(0.00419769 0.0075992 5.77301e-19)
(0.00424491 0.00740241 -9.20521e-20)
(0.00420909 0.00804066 4.84545e-19)
(0.00429066 0.00742393 0)
(0.00420761 0.00853331 6.16862e-19)
(0.00432719 0.0074526 2.23974e-19)
(0.000839932 2.76099e-05 -1.37166e-18)
(0.000789726 6.50843e-05 0)
(0.000209141 3.16235e-05 1.27659e-19)
(4.23141e-05 1.09362e-05 8.71509e-20)
(7.01938e-05 3.49301e-05 6.79765e-19)
(9.60963e-05 2.86803e-05 -3.41541e-19)
(8.6711e-05 -5.17251e-06 0)
(3.90908e-05 2.00477e-06 8.18048e-20)
(0.000208574 0.000115135 0)
(0.000157469 2.16183e-05 -5.24144e-20)
(0.000350369 0.000210794 -5.09097e-21)
(4.92337e-05 3.50537e-05 -4.37488e-19)
(8.07454e-05 1.65394e-05 -8.52149e-20)
(8.32648e-05 5.04443e-05 1.31147e-21)
(0.000264159 0.000356532 -6.6598e-19)
(0.00011136 0.000989078 0)
(3.70572e-05 4.46744e-05 3.42933e-19)
(0.000200029 0.00173712 0)
(0.000209548 0.000241795 7.04444e-19)
(2.7637e-05 -2.71242e-06 1.11451e-19)
(0.000499029 0.000157059 -1.72244e-19)
(0.0007828 3.22736e-05 -1.92346e-18)
(3.3652e-05 -1.94557e-06 5.0317e-24)
(0.000136541 7.9281e-06 2.24511e-19)
(0.000247541 7.34917e-05 -8.99013e-20)
(0.000884678 0.000694088 3.34841e-19)
(0.000725174 0.0016347 -9.23364e-21)
(0.000393429 0.00141711 -9.3798e-21)
(0.00103377 0.000550342 0)
(8.46486e-05 -2.34135e-05 1.1183e-18)
(0.000102931 5.9374e-07 -4.42782e-20)
(0.000478083 -0.000258922 -1.1361e-18)
(0.000827982 4.41584e-05 0)
(0.000171848 -2.45823e-05 3.63185e-19)
(0.000308017 0.00129584 0)
(0.00109022 0.000772684 -7.29973e-20)
(0.000826444 2.54123e-05 -1.86478e-19)
(6.05565e-05 -2.51706e-05 -2.99862e-19)
(0.000845503 0.000313779 -2.07969e-20)
(3.98204e-05 -2.09782e-05 -5.99245e-19)
(0.000228743 0.000160467 8.63608e-20)
(0.000232937 0.000300895 -3.44905e-19)
(0.000902747 0.00025535 0)
(0.000830776 5.96459e-05 0)
(0.000268606 0.000115689 1.76789e-19)
(0.000230946 -2.68936e-05 9.7373e-24)
(0.000185567 0.000193341 0)
(0.00030905 0.000642082 -5.55511e-21)
(0.00036873 -4.24689e-05 0)
(0.000383782 0.000598216 0)
(0.000101933 6.90494e-05 -1.34621e-21)
(0.0008103 3.02445e-05 -9.54945e-19)
(0.000804903 1.61368e-05 7.90307e-19)
(0.000120896 4.22962e-05 -1.49801e-19)
(0.000979188 0.000146156 8.50029e-20)
(0.000841968 3.57595e-05 3.33484e-19)
(0.000823941 3.78177e-05 -2.93963e-19)
(0.00103717 0.000422589 0)
(0.000453771 0.000103315 6.242e-19)
(0.000920398 0.000325218 2.0906e-20)
(0.000598949 0.000148682 0)
(0.000277398 0.000441073 4.09527e-19)
(0.000264088 0.000203973 -8.43914e-20)
(0.0011091 0.000386817 -7.81805e-19)
(0.000647596 0.000102511 -1.7922e-19)
(0.000826876 7.88164e-05 -7.45749e-21)
(0.000847009 2.03195e-05 9.38964e-20)
(4.20288e-05 -8.40611e-05 -1.98059e-18)
(0.000748426 0.000379259 2.19163e-19)
(0.000693613 7.11959e-05 2.30559e-20)
(0.000720696 0.000278624 1.62945e-23)
(0.00074397 0.000462466 -4.09536e-19)
(0.000856667 1.16261e-05 9.06713e-20)
(6.62637e-05 6.80546e-05 0)
(0.00066582 0.000426216 -4.65768e-20)
(0.000180658 7.75056e-05 0)
(0.000374373 0.000500888 -2.64764e-19)
(0.000314324 0.000152062 0)
(0.000690809 0.000205359 3.5509e-19)
(0.000664489 0.000259432 -4.37091e-20)
(7.81365e-05 9.35538e-05 6.18929e-19)
(0.000890948 9.77984e-05 -1.63762e-18)
(4.93235e-05 1.58644e-05 2.57092e-19)
(0.000903705 7.3797e-05 -1.68585e-18)
(0.000853725 9.16266e-05 1.63022e-19)
(0.000816794 3.90396e-05 1.91795e-18)
(0.000822925 3.19619e-05 -1.32793e-19)
(0.000751467 7.01906e-05 0)
(0.000804928 1.86392e-05 9.00492e-19)
(0.000977723 0.000241135 -4.26926e-19)
(0.000795521 0.000102947 -4.83548e-19)
(0.000785902 0.000239231 -8.80875e-20)
(0.000188343 -0.00020446 -2.07418e-18)
(0.000771247 8.38939e-05 8.87187e-19)
(0.000646364 0.000590009 0)
(4.52254e-05 -0.000123238 0)
(0.00123257 0.000478974 4.97145e-19)
(0.000525301 -5.20018e-05 -3.27036e-18)
(0.00135843 0.0004208 5.76226e-19)
(0.00125703 0.000721844 -6.38835e-20)
(0.000818169 3.56082e-05 -2.12665e-19)
(0.00084631 6.61445e-05 -1.42762e-18)
(0.00081357 2.70977e-05 1.58512e-18)
(0.000813583 1.8691e-05 9.77684e-20)
(0.000678737 0.000353037 -4.40249e-20)
(9.75903e-05 0.000108956 1.05628e-23)
(0.000771779 -2.46878e-05 2.64841e-19)
(0.000203864 -0.000252563 -7.33841e-19)
(0.000647848 0.000180996 0)
(0.000733365 5.18993e-05 9.89974e-20)
(0.000730081 1.03623e-05 -3.80652e-19)
(0.000400707 0.000159024 3.93228e-20)
(0.000815597 0.000510708 -1.65421e-19)
(0.000142773 5.91447e-05 4.55237e-25)
(0.000824784 0.00041215 0)
(0.000994421 0.000315767 4.15605e-20)
(0.000773886 -5.39294e-05 -6.15769e-19)
(0.000359432 8.68093e-05 4.97662e-19)
(0.000907183 0.000427497 0)
(4.23295e-05 2.49935e-05 1.33659e-19)
(0.000500066 0.000258601 2.13877e-19)
(0.000561077 -0.000176101 -7.09113e-19)
(7.8574e-05 -0.000177431 -1.05591e-18)
(0.000827377 4.35839e-05 -4.8649e-19)
(0.00075485 -5.27216e-05 -1.94637e-19)
(0.000554845 0.0007277 -1.17395e-18)
(0.000857938 4.44518e-05 -6.73372e-20)
(0.000542751 -5.54535e-06 1.28281e-18)
(0.000724715 9.93223e-05 2.27685e-20)
(0.000550075 0.000201217 -1.65628e-19)
(2.05094e-05 -1.72482e-05 -8.75506e-20)
(0.000141148 -6.82349e-05 2.40502e-18)
(1.01307e-05 4.64643e-07 -1.94786e-19)
(0.000849097 0.000120831 3.636e-19)
(0.000689364 0.000134389 0)
(0.000161849 -0.000122483 -1.04782e-18)
(0.000105841 -3.19124e-05 3.12653e-19)
(8.41469e-05 -4.36403e-05 1.2481e-23)
(0.000816694 0.000106457 -3.19137e-19)
(0.000139985 -2.90805e-05 0)
(0.000602958 0.000236184 0)
(0.000111374 0.000318287 -3.6274e-19)
(0.000872902 0.000102155 2.1075e-18)
(8.22425e-06 5.68924e-07 0)
(0.00089304 5.0569e-05 0)
(3.12035e-05 -2.39391e-05 0)
(0.000815128 4.91528e-05 -4.46625e-21)
(0.00077867 -2.10068e-05 0)
(0.00426109 0.00740817 8.07259e-20)
(0.00436306 0.00748863 1.43657e-19)
(0.000841972 -2.32123e-05 0)
(0.000803053 -2.66575e-05 8.11299e-19)
(0.000150817 0.000110365 1.49158e-19)
(0.000867093 6.61504e-05 8.08336e-19)
(0.000124999 8.80169e-05 2.34311e-20)
(0.000798349 -1.48967e-05 6.23867e-19)
(2.85394e-05 7.04411e-06 0)
(1.94796e-05 -1.02675e-05 -4.483e-20)
(0.000911492 4.60032e-05 -4.86349e-19)
(2.07668e-05 -2.60806e-05 -6.69536e-19)
(0.000776139 0.000129166 -4.23065e-20)
(0.000169622 0.000148006 -1.88037e-19)
(0.000812939 3.2795e-05 0)
(0.00468254 0.00815354 9.00891e-22)
(0.000198878 0.00079188 3.33354e-19)
(8.80665e-05 -7.15171e-05 -9.14164e-19)
(4.44549e-05 -3.41465e-05 -1.16834e-18)
(0.000571955 1.28782e-05 1.89456e-20)
(0.000587931 0.000401905 0)
(0.000428265 0.000446169 -2.5625e-19)
(5.69527e-05 -6.55314e-05 1.1833e-18)
(0.000536245 -2.36183e-06 7.67187e-20)
(3.41194e-05 5.5307e-07 4.0693e-19)
(0.000733708 -3.72004e-05 1.17109e-18)
(0.000812778 3.20287e-05 -6.06198e-19)
(4.1184e-05 -5.2705e-05 1.70887e-18)
(0.00084063 -4.90674e-05 -6.5512e-24)
(0.000548716 5.7519e-06 -3.74449e-20)
(0.000882075 7.21543e-05 0)
(0.000847907 5.68511e-05 0)
(0.00591456 0.00724377 2.6003e-19)
(1.01544e-05 -3.18156e-06 -1.19554e-19)
(8.03453e-05 -0.000120997 7.72775e-19)
(0.000745124 0.000113735 -6.96147e-19)
(1.25904e-05 3.44664e-07 2.01482e-19)
(0.000665953 -3.50271e-05 -7.23489e-19)
(0.000761822 3.59653e-05 1.55738e-18)
(0.000721572 0.00015582 -3.55299e-19)
(0.000807165 -1.10871e-05 3.60677e-19)
(5.66233e-05 -3.79469e-05 1.11554e-18)
(0.000802084 6.61465e-06 -3.2252e-19)
(0.000878834 3.27956e-05 0)
(0.0005559 0.000300138 4.20865e-20)
(0.000871502 4.75635e-05 -9.47525e-19)
(1.09829e-05 3.00493e-06 9.11286e-19)
(0.000864798 3.80425e-05 9.65906e-19)
(0.000865624 3.20312e-05 -9.64007e-19)
(0.000771712 3.96896e-06 -5.68923e-19)
(0.000562539 -8.77031e-05 -5.25415e-19)
(0.0043301 0.00745478 2.47598e-19)
(0.00422184 0.00752809 -2.78918e-19)
(0.00422014 0.00758572 2.66819e-19)
(0.00425669 0.00741189 1.98036e-19)
(0.00084515 -4.04215e-05 1.44211e-19)
(0.00447703 0.00751539 0)
(0.00440445 0.00751928 -3.86986e-19)
(1.81648e-05 -1.64589e-07 -9.97845e-19)
(0.0041698 0.00746826 -6.33828e-20)
(0.00414532 0.00743153 -2.21575e-19)
(0.00602927 0.0106047 0)
(0.00654023 0.0111866 3.7162e-20)
(0.00600919 0.0105745 0)
(0.00655592 0.0112103 1.30997e-19)
(0.00599666 0.0105985 2.69693e-19)
(0.00659262 0.0112272 1.24761e-20)
(0.00593559 0.0106111 -7.76837e-19)
(0.0066229 0.0111462 8.16866e-21)
(0.00390344 0.00919703 -1.90803e-19)
(0.00418599 0.00748747 3.87528e-21)
(0.0042368 0.00755095 7.93802e-20)
(0.00414982 0.00743384 4.12154e-20)
(0.00090071 0.000198063 4.46553e-20)
(5.58324e-06 7.61724e-07 0)
(0.000734929 -9.30972e-05 0)
(0.000656906 5.88235e-05 0)
(0.0024475 0.0011195 4.23703e-21)
(0.000759251 -2.98624e-05 1.72506e-19)
(3.30104e-05 3.72148e-06 4.53879e-20)
(3.77951e-06 -1.89501e-05 1.65229e-18)
(0.000867159 5.77534e-07 0)
(2.27693e-05 9.70829e-06 -1.91653e-19)
(0.000138962 0.000212347 0)
(8.68962e-06 -7.24938e-07 0)
(6.51305e-06 -7.31328e-07 0)
(0.000843089 0.00015161 1.13732e-20)
(0.000810964 -1.75336e-05 1.79548e-19)
(3.89674e-05 0.000250756 -7.30897e-24)
(0.000155939 0.000263632 -1.84135e-18)
(0.000616585 0.000325085 -8.56708e-20)
(0.000906755 0.000116832 6.01646e-19)
(0.000573982 -0.000128875 6.75023e-19)
(0.000358345 0.00111839 0)
(0.000484681 0.000575296 2.71451e-18)
(8.74157e-05 0.000134425 -1.80253e-18)
(1.1874e-05 -3.6655e-07 0)
(0.000823083 -6.47334e-05 3.64038e-20)
(1.27744e-05 2.92488e-05 1.64387e-18)
(0.000891622 3.66974e-05 2.71012e-19)
(-3.08967e-05 9.78714e-05 3.8089e-18)
(0.000923577 4.27709e-05 -2.6888e-19)
(0.00133019 0.000158688 7.47294e-19)
(2.59286e-05 -8.99445e-06 8.25382e-20)
(2.77636e-05 1.65819e-06 -8.58771e-19)
(5.06266e-05 0.000130713 0)
(0.000924209 9.21407e-05 5.98182e-19)
(0.000502177 0.000365552 2.3707e-19)
(0.00059656 1.7039e-05 -3.88889e-20)
(0.000793172 1.08109e-05 2.5715e-19)
(0.000725409 -0.000122397 0)
(0.00632034 0.0108954 -1.68173e-19)
(0.00637869 0.0109728 4.05951e-19)
(0.00616008 0.0107298 -6.18542e-19)
(0.00650123 0.0111319 -8.10104e-20)
(3.05738e-05 0.000108629 8.00246e-19)
(0.000933387 6.24271e-05 1.44166e-22)
(0.00641131 0.0110053 -3.86571e-19)
(0.0062814 0.0108452 5.48432e-19)
(0.00608013 0.0106715 -4.16831e-19)
(0.00652175 0.0111644 -6.81683e-20)
(7.8171e-05 0.000484099 -2.01771e-20)
(3.43774e-05 -0.00018353 -7.92705e-19)
(0.000626867 -1.86081e-05 -7.67037e-19)
(0.000735443 0.00021934 0)
(0.000800301 2.59721e-07 0)
(0.000191164 0.000382815 3.36201e-19)
(0.000605668 0.00051115 -5.417e-19)
(3.82849e-06 -6.84095e-07 1.78325e-19)
(0.000200789 0.000465225 -7.38189e-19)
(0.00102659 0.000981061 -1.12668e-19)
(0.000759786 0.000167189 0)
(0.000800229 0.000184588 1.30972e-19)
(0.00634749 0.00588383 1.1322e-18)
(0.000734401 0.00113078 8.26469e-20)
(3.3714e-05 3.23708e-05 -7.44409e-20)
(0.000808607 1.16755e-05 0)
(0.000868155 2.03743e-05 -3.56783e-20)
(2.65174e-05 1.59065e-06 -1.9667e-19)
(2.32705e-05 2.87977e-06 1.92932e-19)
(0.000835144 1.07144e-05 5.37002e-19)
(0.000992271 0.000115256 6.57888e-19)
(0.000526357 5.02254e-05 0)
(0.000219819 -0.000250512 -4.00078e-19)
(0.000923389 0.000143337 3.89431e-19)
(-7.46398e-07 -3.92723e-05 2.02926e-19)
(0.00145541 0.000445825 -2.57984e-18)
(0.00054913 -1.58696e-05 0)
(0.00080546 0.000141787 3.75326e-19)
(9.71025e-05 0.000382526 0)
(0.00118918 0.00816141 4.62048e-19)
(0.000500026 0.000496052 -1.22419e-18)
(0.000541673 0.00101862 -1.83705e-19)
(0.000891941 1.14062e-05 -1.46004e-19)
(9.68687e-06 2.05825e-05 0)
(0.00096712 7.91123e-05 6.11356e-19)
(0.00410593 0.00739479 8.14603e-20)
(0.00417064 0.00747279 4.73275e-20)
(0.00450077 0.00751808 4.54144e-19)
(0.004446 0.0075439 -3.29075e-19)
(0.00647515 0.0111089 8.10876e-20)
(0.00391472 0.00714588 -9.44685e-22)
(0.00550723 0.00780072 -5.64821e-19)
(0.00409774 0.00737139 5.21957e-21)
(0.00518873 0.00786061 5.11756e-19)
(0.00407949 0.00733973 -4.87534e-20)
(0.00495414 0.00772017 0)
(0.00408469 0.00736398 -8.57019e-20)
(0.00474305 0.00759105 4.92588e-19)
(0.00409793 0.00737558 8.75517e-20)
(0.00457582 0.00753063 0)
(0.00428462 0.00742237 1.39788e-19)
(0.0042383 0.00759724 5.80401e-19)
(0.00446849 0.00752941 -5.54368e-19)
(0.0043887 0.00750671 3.71412e-19)
(0.00422697 0.00752402 3.22934e-19)
(0.00643049 0.0110421 -4.97692e-21)
(0.00411737 0.0074009 3.11717e-20)
(0.00645863 0.011072 0)
(1.87425e-05 3.88836e-06 -1.89791e-19)
(0.00200285 0.00654772 2.28159e-19)
(0.000838395 -6.27628e-05 1.09568e-19)
(0.000850531 -1.64862e-06 0)
(4.39725e-07 1.81014e-07 -3.98963e-19)
(-3.99671e-05 -5.99186e-05 6.91015e-19)
(2.24929e-05 4.97246e-05 2.0883e-18)
(0.000843425 0.000189931 -9.00332e-20)
(0.000801772 8.31192e-06 7.06131e-19)
(-2.68878e-07 4.66868e-07 3.09872e-19)
(1.1037e-05 -2.52776e-05 -1.84489e-18)
(0.000763484 2.6474e-05 1.63095e-19)
(0.000876284 0.000126773 -3.07867e-20)
(0.000801133 -6.62528e-06 1.48076e-19)
(0.000439965 0.000678165 0)
(-6.84319e-06 -0.00012535 1.15089e-18)
(0.000878996 -3.81432e-06 1.52478e-19)
(1.70122e-05 1.97842e-05 0)
(0.000121132 0.000551202 -6.31104e-19)
(0.000615952 0.000581994 1.31739e-18)
(0.00033763 0.000758081 0)
(0.000802172 -1.36961e-05 0)
(0.000801873 3.1608e-06 1.17688e-18)
(1.39736e-05 4.23934e-05 -3.51376e-18)
(1.2782e-05 4.96875e-06 3.73487e-19)
(0.000116485 0.000133091 0)
(2.98307e-05 -3.71804e-05 0)
(5.76305e-05 0.000103334 2.0093e-19)
(0.000945276 0.000190482 3.50296e-19)
(0.000802021 1.55257e-05 -1.38218e-18)
(1.96791e-05 2.7941e-05 0)
(0.000398751 1.47622e-06 -6.04635e-20)
(0.000799144 3.4996e-05 -1.56297e-19)
(0.000852935 5.25178e-05 1.06527e-18)
(0.000250929 0.000542776 6.32057e-19)
(0.000886786 0.000158703 0)
(1.102e-05 -1.75849e-05 5.38415e-19)
(9.20423e-07 -1.06432e-06 -3.19846e-19)
(0.000933602 3.58153e-05 0)
(0.00105034 0.00227201 0)
(0.000895245 4.62387e-06 0)
(0.00101019 0.0002096 4.27007e-19)
(0.000819132 -3.73577e-05 -2.84169e-19)
(0.000946736 0.000116253 -6.84504e-19)
(0.000801275 3.79155e-06 0)
(3.92478e-05 6.0623e-05 -1.71507e-19)
(0.000174779 0.000320269 1.08083e-18)
(0.000801382 1.40596e-05 -2.56078e-23)
(0.00111245 0.000208505 -6.68394e-19)
(0.00108721 0.000130042 0)
(1.59305e-06 2.98462e-06 2.50936e-19)
(1.24083e-05 -1.10948e-05 -1.94243e-19)
(0.000547657 5.03583e-05 6.94788e-21)
(-1.33828e-05 -5.09011e-05 0)
(0.00108041 0.000257873 9.49566e-19)
(0.00502886 0.00974829 -2.82859e-19)
(0.00312169 0.00961658 1.27241e-18)
(5.96626e-06 -8.61236e-05 -1.91254e-19)
(2.87999e-05 -6.78443e-05 1.85869e-18)
(0.00119347 0.000261033 1.67283e-19)
(0.00133232 0.00107504 2.34024e-19)
(0.000810493 4.00962e-06 -7.36938e-19)
(0.00020202 0.000947549 -2.38188e-19)
(0.000819793 0.000946943 -2.18524e-19)
(0.000800421 -1.87808e-06 0)
(8.13339e-05 0.000605372 0)
(9.40481e-05 0.0002739 -3.42576e-23)
(0.000721 -4.85643e-05 -1.67061e-23)
(0.00082822 6.94692e-05 1.5255e-19)
(0.00263372 0.00206872 -1.23118e-18)
(0.00176098 0.00923812 -1.17187e-19)
(0.000833605 7.55838e-05 4.91891e-19)
(0.00631627 0.00405399 -1.76257e-19)
(0.0067208 0.0115569 -1.3666e-20)
(0.00473397 0.00784362 4.9376e-21)
(0.000806533 1.37109e-05 -2.17702e-18)
(0.000844891 -1.22838e-06 8.41241e-24)
(4.01886e-06 -4.45903e-06 -3.47889e-19)
(4.43935e-05 8.02716e-05 -3.49159e-19)
(6.06372e-05 0.000256245 8.75072e-19)
(7.94412e-06 1.25854e-05 4.90232e-19)
(8.98713e-05 0.000219327 3.69654e-19)
(0.000818376 1.35152e-05 0)
(0.00534828 0.00949241 1.9488e-20)
(0.00155034 0.000640793 -2.61121e-20)
(0.000818945 4.15054e-05 3.60048e-19)
(7.8717e-06 -6.73197e-05 0)
(0.0018492 0.000749897 5.45875e-19)
(6.41636e-06 5.15283e-06 -2.70059e-19)
(2.92695e-05 2.36004e-05 9.71476e-20)
(0.00133683 0.00139907 6.36523e-19)
(0.000740382 4.98166e-05 1.8304e-19)
(8.00729e-07 -4.39028e-07 -1.70139e-19)
(0.00206653 0.00156386 -1.05558e-18)
(0.000126949 0.000167903 -8.18522e-19)
(0.00392004 0.00848907 -1.0908e-18)
(2.46084e-06 7.52276e-07 8.81117e-20)
(8.80035e-05 -2.36595e-05 -1.25811e-18)
(2.96768e-05 -5.15781e-05 4.05492e-20)
(0.00153466 0.000989316 0)
(0.00104478 0.00014332 -3.98625e-22)
(0.000457188 0.000844677 -4.01972e-20)
(0.000803668 2.75245e-05 -2.33995e-19)
(8.68154e-05 0.000174443 7.35842e-19)
(1.45604e-05 -4.92961e-05 4.03843e-19)
(1.52512e-05 1.21375e-05 -9.46768e-20)
(2.73331e-05 8.17466e-05 -3.20182e-19)
(0.000216372 -0.000142945 -5.45749e-19)
(0.00325214 0.00346905 2.88719e-21)
)
;

boundaryField
{
    back
    {
        type            empty;
    }
    ingreso
    {
        type            fixedValue;
        value           uniform (0.0008 0 0);
    }
    salida
    {
        type            zeroGradient;
    }
    front
    {
        type            empty;
    }
    defaultFaces
    {
        type            noSlip;
    }
}


// ************************************************************************* //
