/*--------------------------------*- C++ -*----------------------------------*\
  =========                 |
  \\      /  F ield         | OpenFOAM: The Open Source CFD Toolbox
   \\    /   O peration     | Website:  https://openfoam.org
    \\  /    A nd           | Version:  7
     \\/     M anipulation  |
\*---------------------------------------------------------------------------*/
FoamFile
{
    version     2.0;
    format      ascii;
    class       volScalarField;
    location    "50.5";
    object      p;
}
// * * * * * * * * * * * * * * * * * * * * * * * * * * * * * * * * * * * * * //

dimensions      [0 2 -2 0 0 0 0];

internalField   nonuniform List<scalar> 
591
(
0.000123921
0.000123939
0.000123947
0.000123902
0.000123903
0.000123975
0.000123973
0.000123935
0.000116999
0.00012395
0.000124122
0.000122858
0.000123944
0.000119747
0.000123935
0.000123989
0.000123901
0.000123977
0.000121969
0.000123315
0.000123913
-3.52564e-06
0.000124121
0.000123917
0.00012408
0.000123937
0.000124027
0.00012404
0.000123949
0.000123962
0.000124099
0.000124075
0.000124094
0.000124093
0.000124095
0.000123422
0.00012409
0.000123918
0.000124116
0.000124035
0.000124008
0.000124087
0.000123945
0.000123965
0.000124084
0.000124103
0.000119271
0.000124107
0.000123951
0.000124067
0.000124046
0.000124081
2.39364e-05
3.05807e-05
4.78415e-05
0.000123948
0.000124111
0.000124095
0.000124104
0.000123922
0.000124008
0.00012394
0.00012394
0.000123991
0.000122586
0.000123941
0.000123945
0.000124102
0.000120752
0.000123955
0.000123949
0.000124108
0.000124072
0.000124088
0.000124094
0.00012407
0.000123917
0.000124105
0.00012392
0.000123849
0.000123698
0.00012411
0.000124071
0.000124045
0.000124117
0.00012393
0.000124023
0.0001241
0.000124063
0.000123816
0.000124076
0.000124015
0.000124035
0.000123924
0.000124115
0.00012407
0.000123627
0.000123526
0.000123673
0.00012412
0.00012403
0.000123943
0.000124124
0.000123903
0.000124124
0.000123943
0.000123938
0.000124074
0.000124115
0.000124119
0.000124005
0.000124093
0.000123957
0.000124099
0.000124119
0.000124096
0.000124048
0.000124049
0.000123606
0.000124015
0.000123942
0.000123942
0.000124007
0.000123926
0.000124089
0.000120222
0.000124123
0.000124098
0.000123697
0.000124095
0.000123933
0.000123621
0.000124058
0.000124054
0.000124098
0.000123949
0.000122622
0.000124123
0.000123937
0.000123606
0.000123671
0.000124024
0.000124102
0.000124116
0.000124111
7.61456e-06
3.677e-06
2.07052e-06
3.81503e-05
3.66922e-05
5.65898e-06
3.8299e-05
1.57398e-05
3.72773e-05
1.78052e-05
0.000123941
0.000123931
0.00012411
0.000124107
0.000124113
0.000124111
0.000124105
0.000124102
0.000124108
0.000124108
0.00012407
0.000124114
0.000124109
0.000124115
0.000124048
0.000123414
0.000124116
0.000122151
0.000124092
0.000124097
0.000124041
0.000123951
0.000124097
0.000124109
0.000124105
0.000123518
0.0001225
0.000123072
0.000123474
0.000124101
0.000124106
0.000124034
0.000123915
0.0001241
0.000122987
0.000123333
0.000123916
0.000124096
0.000123791
0.00012409
0.000124101
0.000124074
0.000123762
0.000123905
0.000124098
0.000124107
0.000124103
0.000123899
0.000124086
0.000123895
0.000124116
0.000123936
0.000123935
0.000124113
0.000123726
0.000123906
0.000123947
0.000123575
0.000124063
0.000123721
0.000124008
0.000124014
0.00012409
0.000123489
0.000123999
0.000123896
0.000123901
0.000124071
0.000123828
0.000123988
0.000123898
0.000123807
0.000123894
0.000124118
0.000123872
0.000124112
0.000123956
0.000124088
0.000123941
0.00012394
0.000124119
0.000123839
0.000124108
0.00012383
0.000123876
0.000123943
0.00012392
0.000123955
0.000123942
0.000123707
0.000123914
0.000123863
0.00012408
0.000123934
0.000123776
0.000124066
0.000123333
0.000123879
0.00012323
0.000123106
0.000123926
0.000123892
0.000123927
0.000123924
0.000123886
0.000124117
0.000123971
0.000124055
0.000123976
0.000123975
0.000123988
0.000124068
0.000123721
0.000124113
0.000123758
0.000123649
0.00012396
0.000124088
0.00012367
0.000124112
0.000124015
0.000124052
0.000124069
0.000123952
0.000123916
0.000123737
0.000123888
0.000123908
0.000123963
0.000124013
0.000124084
0.000124098
0.000124105
0.00012387
0.00012397
0.000124091
0.000124099
0.000124095
0.000123892
0.000124107
0.000123979
0.000124084
0.000123858
0.000124107
0.000123847
0.000124085
0.000123981
0.000123917
1.16402e-05
2.19078e-05
0.000123881
0.000123945
0.000124115
0.000123877
0.000124116
0.000123956
0.000124107
0.000124086
0.000123832
0.00012408
0.000123912
0.000124111
0.000123948
-2.09361e-07
0.000123797
0.00012409
0.000124086
0.000123793
0.000123928
0.000123965
0.000124081
0.000123854
0.000124101
0.000123992
0.000123941
0.000124079
0.0001239
0.000123826
0.000123855
0.000123953
4.74553e-05
0.000124096
0.000124079
0.000123938
0.000124102
0.000124018
0.000123962
0.00012394
0.000123934
0.000124089
0.000123962
0.000123869
0.000123979
0.000123871
0.000124102
0.000123879
0.000123931
0.000123969
0.000124053
1.98691e-05
2.7326e-05
3.42879e-05
9.63657e-06
0.000123919
3.30462e-05
2.59942e-05
0.000124099
1.90707e-05
1.70275e-05
3.81794e-05
7.57029e-06
3.99317e-05
5.59924e-06
4.08262e-05
3.68645e-06
4.28099e-05
1.87544e-06
3.63878e-05
2.31923e-05
2.9442e-05
1.49906e-05
0.000123793
0.000124109
0.000123986
0.000123991
0.000120914
0.000124041
0.000124104
0.000124075
0.000123889
0.00012411
0.000124106
0.000124091
0.000124089
0.000123856
0.000123935
0.00012409
0.000124095
0.000123934
0.000123814
0.000123855
0.000123435
0.000123888
0.00012412
0.000124095
0.000123947
0.000124117
0.000123793
0.000123961
0.000123751
0.000122885
0.00012409
0.0001241
0.000124119
0.000123802
0.000123975
0.000123751
0.000123958
0.000123946
2.60355e-05
2.18709e-05
3.30283e-05
1.16181e-05
0.000124125
0.000123798
1.98151e-05
2.82474e-05
3.55953e-05
9.58472e-06
0.000123936
0.000124044
0.000123894
0.000123904
0.00012394
0.000124054
0.000123848
0.000124086
0.000124019
0.000123128
0.000123909
0.000123876
5.93383e-05
0.000123252
0.000124114
0.000123926
0.000123828
0.000124103
0.000124106
0.000123912
0.000123709
0.00012394
0.000124013
0.00012379
0.000124061
0.000122943
0.000123881
0.000123886
0.000124063
0.000100867
0.000123912
0.000123515
0.000123861
0.000124115
0.000123759
1.0894e-05
2.11099e-05
3.53599e-05
2.81817e-05
1.36634e-05
5.49532e-08
4.20651e-05
2.68887e-06
4.01482e-05
4.75905e-06
3.94089e-05
6.81131e-06
3.86169e-05
8.85456e-06
3.72829e-05
1.36725e-05
3.17195e-05
3.05748e-05
2.3932e-05
2.52707e-05
1.77633e-05
1.29367e-05
1.57082e-05
0.000124108
0.000102441
0.000123919
0.000123856
0.000124112
0.000124005
0.000124118
0.000123837
0.000123974
0.000124081
0.000124077
0.000124091
0.000123842
0.000123945
0.000123829
0.000124045
0.000123884
0.000124113
0.000123974
0.000123807
0.00012381
0.000123956
0.000123949
0.000124119
0.00012411
0.000124117
0.000124081
0.000124121
0.000123754
0.000123941
0.000124114
0.000123885
0.000124015
0.000123942
0.00012397
0.000123821
0.00012408
0.000124079
0.000123392
0.0001214
0.000123122
0.000123666
0.000123941
0.000123769
0.000123954
0.000124118
0.000124078
0.000123946
0.000123555
0.000123537
0.000124114
0.000124083
0.000123962
0.000124049
0.000123592
5.83239e-05
4.01017e-05
0.000124055
0.000124072
0.000123434
0.000122777
0.000123925
0.000123657
0.000123403
0.00012394
0.000123828
0.000124099
0.000123969
0.000123998
0.00011902
5.44612e-05
0.000123966
8.12308e-05
1.86195e-06
-3.80406e-07
0.000123935
0.000123906
0.000124082
0.00012412
0.000124107
0.000124114
0.00012411
0.000123922
-2.30715e-06
0.00012286
0.000123957
0.000124062
0.000122027
0.000124112
0.000124112
0.000122322
0.000124035
0.000124083
0.000121715
0.000124113
7.63634e-05
0.000124111
0.000123685
0.000124075
0.000122405
0.000123644
0.000123694
0.000123969
0.000124116
0.000124069
0.000124112
0.000124122
0.000123948
0.000116202
)
;

boundaryField
{
    back
    {
        type            empty;
    }
    ingreso
    {
        type            zeroGradient;
    }
    salida
    {
        type            fixedValue;
        value           uniform 0;
    }
    front
    {
        type            empty;
    }
    defaultFaces
    {
        type            zeroGradient;
    }
}


// ************************************************************************* //
