/*--------------------------------*- C++ -*----------------------------------*\
  =========                 |
  \\      /  F ield         | OpenFOAM: The Open Source CFD Toolbox
   \\    /   O peration     | Website:  https://openfoam.org
    \\  /    A nd           | Version:  7
     \\/     M anipulation  |
\*---------------------------------------------------------------------------*/
FoamFile
{
    version     2.0;
    format      ascii;
    class       surfaceScalarField;
    location    "50.5";
    object      phi;
}
// * * * * * * * * * * * * * * * * * * * * * * * * * * * * * * * * * * * * * //

dimensions      [0 3 -1 0 0 0 0];

internalField   nonuniform List<scalar> 
1111
(
6.4155e-09
1.32416e-08
-1.5778e-08
-3.87902e-09
6.50897e-09
-1.17797e-08
1.16862e-08
-1.47184e-08
5.01273e-09
9.36987e-09
3.35804e-10
4.27225e-10
-5.02264e-10
-1.41822e-08
1.42572e-08
-1.40856e-08
1.38385e-08
6.74337e-10
-1.62464e-09
1.48757e-08
2.17749e-09
-3.87669e-09
9.75117e-09
-1.07086e-08
4.83409e-09
-6.68304e-09
-1.2616e-08
1.25791e-08
6.71989e-09
-5.05106e-08
-2.5887e-08
7.63976e-08
-8.1045e-09
7.57026e-09
7.04321e-09
3.5822e-09
3.44943e-10
-3.66028e-09
-2.66859e-10
1.56037e-08
-1.58708e-08
-2.29991e-08
2.32663e-08
-9.62689e-09
-7.94488e-09
8.78756e-09
8.7842e-09
-3.5218e-08
1.7575e-08
-3.23403e-08
4.99833e-08
9.53557e-09
-1.93911e-09
-1.42795e-08
-1.9601e-09
2.59695e-09
-3.75536e-09
3.11851e-09
-3.73475e-09
1.32731e-08
1.94325e-09
-1.14816e-08
8.85284e-09
-2.34699e-09
-1.50334e-08
8.52754e-09
3.77413e-08
-3.05974e-08
-7.14387e-09
-1.93316e-08
9.39906e-11
1.74563e-08
1.78126e-09
-7.30524e-10
4.03328e-09
-1.79009e-08
1.45981e-08
-6.1217e-08
-3.96296e-09
6.518e-08
1.64326e-10
-1.31199e-09
-3.69553e-10
1.51721e-09
-1.31371e-09
-1.35024e-08
-1.84629e-10
-3.25616e-10
2.89677e-10
2.20567e-10
-1.00794e-08
-8.16382e-09
1.2526e-08
5.71725e-09
7.36569e-10
-2.1539e-09
-8.46635e-09
9.88368e-09
7.99415e-09
9.57265e-10
-8.88437e-09
-6.70474e-11
-2.83894e-09
-7.82117e-09
1.08752e-08
-2.15074e-10
1.13639e-08
-5.58883e-10
-1.95213e-09
-1.00581e-09
9.83701e-10
8.0491e-11
-5.83816e-11
-2.94301e-10
8.7887e-10
4.5413e-10
-1.0387e-09
-6.0578e-10
-4.19599e-11
6.45378e-10
2.36272e-12
1.64212e-11
-1.02066e-09
9.80969e-11
9.06143e-10
-5.39536e-11
-9.35436e-10
7.79368e-10
-1.84027e-08
-1.70822e-09
-5.15779e-10
5.63592e-11
-1.46361e-10
1.34126e-08
-1.32819e-08
3.90261e-09
-4.30676e-10
6.42044e-10
4.08271e-10
-6.1964e-10
-4.36222e-10
-2.33103e-09
1.79045e-09
9.76801e-10
-2.14476e-09
9.64032e-09
-1.13722e-08
-3.87625e-10
-1.99952e-10
7.17981e-11
-8.80056e-09
1.0131e-08
-9.43494e-09
1.19741e-08
-1.70323e-08
4.99277e-09
6.54021e-11
8.97594e-11
-2.1016e-10
-2.67224e-10
2.6173e-10
8.98838e-10
-1.76867e-10
-5.96588e-08
7.43198e-08
-1.4661e-08
1.14574e-09
-3.57753e-10
-1.31802e-09
5.30032e-10
1.1033e-09
1.03105e-08
-1.37292e-08
2.31537e-09
-9.43396e-10
7.04937e-09
-8.51707e-09
2.4111e-09
-6.4894e-09
5.77846e-09
5.49807e-09
-4.78713e-09
-7.15142e-09
-2.19227e-09
2.09957e-09
7.24412e-09
-1.85154e-10
-9.0921e-08
9.13071e-08
-2.0096e-10
-2.57729e-10
-8.97627e-08
9.01703e-08
-1.49854e-10
8.30899e-08
-1.50107e-09
1.16667e-10
-8.17055e-08
-3.1579e-09
-1.96649e-10
8.0199e-10
9.17057e-10
-5.73309e-10
4.02748e-09
-1.64481e-09
3.29649e-09
-5.67916e-09
-1.10165e-09
1.00563e-09
-1.498e-08
6.61468e-09
9.31747e-09
9.86578e-10
-1.00153e-08
-2.88697e-10
-6.2875e-09
1.29578e-08
1.41873e-09
-8.08908e-09
1.43078e-08
-4.13657e-09
3.33394e-09
-1.35052e-08
1.54237e-08
1.73774e-09
-1.73261e-09
-5.49501e-10
-1.99105e-08
-7.16262e-09
2.76226e-08
1.38284e-08
-8.32115e-09
-2.17627e-09
7.68484e-09
-1.17961e-08
-1.03294e-10
2.25937e-10
-1.44066e-09
-3.65119e-08
-2.31469e-08
8.04883e-09
7.63048e-11
3.84897e-09
-6.98394e-09
1.07792e-08
6.33573e-09
-6.85886e-10
3.88859e-10
5.53415e-10
-2.56387e-10
5.9155e-09
-4.64479e-09
3.56502e-09
-4.83573e-09
-6.15432e-10
-7.08481e-10
3.03253e-10
7.96575e-10
-7.40438e-10
-1.35753e-10
-1.10961e-09
9.5106e-10
-1.76789e-08
2.49749e-09
1.47359e-09
1.37078e-08
2.90447e-10
-8.06919e-10
-1.69415e-10
-3.90246e-09
-1.48299e-08
1.05346e-09
5.66969e-09
1.18138e-08
-5.2376e-09
-1.22459e-08
1.64578e-08
5.74241e-10
-1.59252e-08
-1.10687e-09
-7.70881e-10
5.41862e-10
6.17877e-10
-7.82431e-10
4.15731e-10
3.667e-10
-7.15726e-09
-3.75494e-09
4.4228e-09
-3.48202e-10
5.0968e-10
-1.61478e-10
1.31936e-09
-1.53013e-08
-8.18906e-10
9.0825e-09
-1.04084e-08
-1.12445e-09
-9.18183e-10
1.26321e-08
4.39339e-09
-4.13669e-09
-1.28888e-08
2.31103e-10
6.99087e-09
-7.70068e-09
6.48826e-09
-1.8885e-09
-8.5643e-09
7.86918e-09
2.58362e-09
-1.78136e-09
6.05412e-10
-1.3654e-08
-2.09062e-10
-1.3914e-10
-3.2097e-10
1.12301e-09
-7.95346e-09
7.45018e-10
1.73117e-08
-1.59892e-09
-1.35669e-08
1.48245e-08
-1.25767e-09
1.20246e-08
1.40838e-08
-1.5609e-08
-1.04994e-08
-7.54137e-10
1.29747e-09
-5.43328e-10
1.10045e-09
-1.3607e-09
2.60252e-10
1.79692e-09
-2.43863e-09
6.41707e-10
1.76205e-09
-1.46179e-09
-3.00255e-10
-1.13195e-08
4.53246e-10
1.08662e-08
2.47015e-09
-7.08103e-10
8.89312e-09
-1.5206e-08
6.76347e-09
-8.02784e-09
6.59759e-11
3.92449e-09
-4.08274e-10
-2.81509e-09
2.88107e-09
-7.17819e-09
8.50765e-09
-1.32947e-09
-8.13266e-10
4.12972e-09
7.11025e-10
1.72138e-08
-1.45219e-08
-1.58855e-09
-5.56618e-09
5.20608e-09
-1.28472e-09
-2.44458e-10
6.44162e-09
-6.46745e-09
2.58311e-11
7.03696e-09
4.37661e-09
1.82264e-10
-1.591e-08
1.04439e-08
1.74908e-08
5.69391e-09
8.33392e-09
8.25681e-09
-6.81408e-09
9.48445e-10
-1.22679e-08
1.10796e-09
3.75221e-10
-1.27693e-08
3.32109e-09
-4.40027e-10
1.28219e-08
-1.22476e-08
-1.48714e-10
-1.02969e-09
-1.37487e-08
7.22866e-09
8.88573e-10
-4.08115e-11
-8.92363e-09
5.1764e-09
-3.11469e-08
-1.25331e-08
-2.55093e-09
1.3354e-09
1.3859e-08
1.09495e-08
-1.06416e-08
-1.4167e-08
1.58913e-08
-3.12439e-09
-1.27669e-08
1.71044e-09
3.87431e-09
-1.39108e-09
-9.68078e-10
-1.00231e-09
1.32367e-09
6.46714e-10
-2.89863e-10
4.17555e-10
4.25723e-10
6.21349e-08
-6.21602e-08
2.52948e-11
6.20537e-08
-6.23579e-08
3.04124e-10
8.3673e-10
6.47503e-08
-6.55794e-08
8.29119e-10
6.41408e-08
6.09516e-10
-2.22949e-10
-6.65285e-08
9.49161e-10
-6.20421e-08
6.19083e-08
1.33812e-10
1.32186e-09
-6.78504e-08
-6.22022e-08
1.60081e-10
1.21846e-08
-1.05433e-09
1.66675e-09
-3.72316e-09
3.11074e-09
4.18404e-10
-1.28007e-09
1.11398e-09
-7.83035e-10
1.47985e-09
-1.75051e-09
1.0537e-09
1.53307e-09
-1.69372e-09
3.86588e-10
-9.52125e-11
-3.34194e-09
3.03355e-09
-2.28809e-09
2.59648e-09
-7.95266e-10
-2.85441e-09
2.59534e-09
-3.81703e-09
-5.6149e-09
6.4633e-10
-7.3158e-10
1.41418e-09
1.17965e-09
-6.59739e-09
8.01793e-09
2.95607e-09
2.0218e-08
-4.32675e-09
-8.09484e-10
3.01794e-10
1.15402e-09
-1.00996e-08
-2.64123e-08
5.46153e-09
-4.45759e-09
-3.1113e-09
2.10736e-09
1.32815e-10
1.5032e-11
4.97531e-10
-2.7804e-09
3.49232e-09
8.67529e-09
8.88578e-10
-5.17517e-10
2.21146e-09
-2.48921e-09
2.19912e-09
1.47533e-08
1.31895e-08
-2.69764e-08
3.24805e-08
6.19431e-09
-2.28682e-08
-1.03025e-08
1.81307e-08
-1.77182e-08
1.0537e-08
-2.40264e-10
-4.99306e-11
-1.40353e-09
-1.88144e-09
-2.67447e-09
3.90856e-09
1.47587e-08
-6.03634e-10
-1.35496e-08
-9.18417e-11
-2.76525e-09
2.68632e-12
1.54014e-08
1.74826e-08
1.36269e-08
6.91344e-10
-1.54711e-09
-1.27711e-08
-1.82964e-09
6.01432e-09
1.22874e-08
-7.43006e-10
-1.22212e-09
-3.52552e-09
2.73147e-09
3.8276e-09
2.42916e-09
1.41968e-08
4.12864e-09
-1.3932e-08
1.75687e-08
-1.75651e-09
2.80333e-09
-3.60554e-09
1.87942e-09
-4.60296e-09
1.28844e-08
-1.20162e-08
-1.39217e-08
5.63988e-10
8.75474e-09
-1.89878e-09
1.59617e-09
1.71679e-09
-8.71236e-09
5.8643e-10
-4.40722e-09
-6.04769e-09
1.2196e-08
-1.48607e-08
1.36638e-09
1.6628e-09
-2.18785e-09
1.64834e-08
-1.59583e-08
-9.75377e-10
1.39986e-08
2.83971e-09
-4.13219e-09
-1.39135e-08
7.31918e-09
-1.70466e-08
-7.99082e-09
6.54783e-09
5.85208e-09
1.4359e-08
-9.62214e-09
3.13904e-09
9.06672e-09
9.86351e-09
3.84833e-09
-4.11944e-09
2.14593e-08
-1.88408e-08
4.70068e-09
-1.01441e-08
2.23241e-09
5.46668e-09
1.35756e-08
-9.07078e-11
1.25739e-08
-1.34585e-08
-1.73806e-09
2.37573e-09
-1.4812e-09
8.43529e-10
1.0824e-08
-6.37981e-09
7.36964e-09
-1.05481e-08
1.39059e-09
-4.75458e-09
1.12682e-08
-1.17512e-08
-7.4803e-09
9.02165e-09
9.28266e-09
1.26814e-08
9.07331e-10
-1.36794e-08
1.66879e-09
8.34531e-10
-1.0915e-08
-6.71669e-09
1.01514e-08
-1.7008e-09
2.52345e-09
-8.84153e-09
4.78334e-09
-5.13314e-09
1.13219e-08
-3.49048e-09
-1.15027e-08
3.67132e-09
-4.51864e-09
1.10859e-08
2.07567e-09
1.1893e-09
-5.07572e-09
-1.74941e-08
1.03869e-08
1.2183e-08
8.50719e-10
-1.08035e-08
-9.75957e-09
1.54873e-08
1.23039e-08
2.75986e-09
-9.59704e-09
-1.32164e-08
-2.75188e-10
-1.25831e-08
2.34154e-10
-6.8081e-10
1.13218e-08
1.2416e-08
-8.15318e-09
1.62916e-08
-1.56575e-08
3.49456e-09
-4.53645e-10
1.6882e-09
1.24733e-08
-3.86614e-09
-1.25165e-08
-5.11862e-09
9.48192e-10
4.54565e-09
1.19651e-08
-7.3745e-09
7.87168e-10
-1.29662e-09
1.45023e-09
-1.89167e-09
6.0788e-09
2.59176e-08
-4.37521e-10
-1.17078e-08
1.21453e-08
2.82453e-08
-2.20725e-08
2.19439e-08
1.93751e-08
-1.25937e-08
-2.62665e-09
1.48688e-08
1.88729e-10
-1.20961e-08
-2.98328e-10
-6.02666e-09
-1.94934e-09
2.35949e-09
1.66552e-09
-3.39933e-11
-1.08368e-08
1.1049e-08
-1.78237e-10
2.78746e-09
-5.49498e-09
-1.0672e-08
1.03205e-08
-7.61759e-10
-1.04672e-08
-5.25732e-11
-1.07245e-08
-2.82201e-09
-1.18583e-08
2.26092e-09
7.79877e-09
5.09707e-09
6.85663e-11
-1.15789e-08
1.14764e-08
6.61001e-10
-8.53579e-09
5.25791e-09
-1.06199e-09
2.62769e-09
-2.97613e-09
-1.29795e-08
-1.31385e-08
1.27695e-08
-1.01489e-08
-1.58124e-08
1.00512e-08
9.0867e-09
8.6052e-10
2.5869e-09
-1.42947e-08
1.10028e-08
1.70965e-09
4.02325e-09
3.65703e-10
-6.05235e-10
-3.75901e-10
-4.0409e-09
2.6737e-09
-1.39805e-09
3.16698e-10
-3.7015e-10
5.34516e-11
-2.55054e-09
1.27059e-08
2.14855e-09
2.56322e-09
-7.79964e-10
-1.7442e-09
-1.87173e-10
-2.52715e-09
-6.20573e-10
1.27132e-08
9.82514e-09
-4.60957e-10
7.04768e-09
-1.19891e-09
-5.38782e-09
-9.65573e-09
-5.07856e-09
2.46505e-10
7.01934e-11
4.74505e-09
1.33591e-09
-1.68844e-08
-5.51606e-10
-8.9988e-10
-2.52027e-09
9.11666e-10
2.68998e-09
6.19342e-08
-8.84198e-11
-6.18457e-08
6.23527e-08
1.89116e-10
-6.25419e-08
-1.41917e-08
3.44932e-11
1.45526e-08
-3.95424e-10
2.7973e-09
-2.02837e-09
2.76029e-09
1.79154e-09
-4.38401e-09
-4.69199e-10
-6.25094e-10
5.06847e-10
-1.38141e-10
5.83545e-10
-4.17793e-10
1.91956e-08
1.12031e-09
-1.55708e-08
-2.7797e-10
-1.95924e-09
1.22074e-08
2.22512e-09
1.75123e-09
5.20759e-09
-1.9073e-09
-7.72396e-08
-2.41761e-08
-4.77961e-09
1.57368e-08
2.31596e-09
-6.27243e-10
-3.29797e-09
-1.32581e-09
6.37573e-10
-5.33886e-10
-1.16414e-08
-3.12551e-10
1.19539e-08
-1.06709e-08
-6.65349e-09
1.06077e-08
-9.30625e-09
8.79865e-09
-6.41509e-11
1.81264e-09
1.11192e-08
-1.09007e-08
-2.18441e-10
7.21559e-10
7.18068e-11
9.99197e-09
1.00444e-09
-1.08834e-09
-3.01619e-10
-1.42407e-08
-5.2218e-10
-1.35022e-08
1.22592e-08
-1.15682e-08
-6.59866e-08
6.4943e-08
1.04359e-09
4.19761e-10
-4.04729e-10
1.17155e-08
-3.86963e-10
1.68135e-11
-2.00696e-09
2.77599e-09
-3.39814e-09
-1.3521e-08
-1.66823e-09
2.57512e-09
-4.74238e-09
-1.38619e-08
1.71984e-09
5.61158e-09
9.47148e-09
-8.79953e-09
-4.1636e-10
2.93971e-11
-9.34657e-09
-1.29097e-08
1.50574e-10
-6.27072e-08
2.3713e-10
6.24701e-08
6.96078e-10
6.34447e-08
-2.26067e-10
-1.11086e-09
-1.4385e-08
1.04778e-10
-6.3377e-08
6.32722e-08
1.83975e-10
-6.29268e-08
6.27428e-08
5.00932e-10
6.18068e-08
1.52558e-10
-6.19594e-08
6.16373e-08
1.69497e-10
-8.79045e-08
8.85134e-08
5.89906e-13
9.33915e-08
-9.30991e-08
-2.67081e-10
-8.66438e-08
-4.3161e-10
9.33528e-08
-1.84279e-10
-8.4929e-08
-7.65601e-10
9.34843e-08
1.72564e-10
-5.17267e-10
1.96026e-09
9.23608e-08
-6.93515e-08
6.21509e-08
-6.23361e-08
-6.2965e-08
6.14949e-08
1.42392e-10
-2.99494e-09
2.77307e-09
-1.37102e-08
7.70742e-11
1.6943e-10
2.07244e-09
9.22354e-09
-1.15705e-08
3.82723e-08
-3.44506e-08
-1.65911e-08
1.38039e-08
-7.29499e-11
-2.22283e-10
2.63367e-10
8.83972e-10
-1.70525e-10
3.87509e-10
4.62764e-09
1.03234e-09
-3.78056e-09
-3.46006e-10
4.02366e-10
-2.74208e-10
-2.44807e-09
1.28725e-08
2.28138e-09
-1.44488e-08
-2.45183e-09
-3.60731e-09
5.67233e-09
1.06267e-09
-2.59318e-09
1.41797e-08
-1.19958e-09
-3.46972e-09
4.90642e-09
-8.12272e-09
-1.90722e-08
-1.31533e-08
7.72199e-09
5.99528e-09
-3.03579e-10
-5.25863e-10
3.18893e-09
1.44031e-08
2.00858e-09
-1.53599e-09
-4.60565e-10
5.03207e-10
-2.871e-10
1.59941e-08
-4.79552e-10
-1.58271e-08
-2.56109e-09
-1.83764e-09
2.93703e-10
-2.24788e-10
3.69459e-09
-1.73852e-08
6.02136e-10
-1.67327e-09
-2.29059e-09
-2.3996e-09
1.52937e-08
-9.0603e-08
-1.34015e-10
9.16878e-08
-1.91577e-10
-8.91783e-08
-4.79699e-10
9.3105e-08
-2.73199e-10
-9.29202e-08
-6.11719e-10
-1.76965e-09
1.63164e-08
9.19909e-08
-1.95552e-10
3.12504e-11
-2.20129e-10
1.04509e-08
2.40828e-09
-8.80381e-09
-1.1946e-08
-5.66527e-09
8.46582e-09
1.39284e-09
-6.90259e-09
-6.25302e-09
9.02993e-09
-1.84448e-10
1.01603e-08
1.93356e-08
-1.77238e-08
3.03737e-09
-1.24903e-08
3.01115e-09
-6.9952e-08
3.96541e-09
-2.03452e-08
-1.29565e-08
-5.79159e-10
-5.91191e-09
-1.5351e-08
9.16682e-09
-1.5229e-08
5.46e-10
4.6131e-10
-1.59305e-09
-1.62376e-08
1.67935e-08
8.46801e-09
-8.66466e-09
-5.34178e-09
1.50723e-08
-1.70316e-09
8.10572e-10
-1.36975e-09
4.42401e-10
1.20294e-08
3.36686e-09
7.09529e-08
-1.80241e-08
8.94777e-10
-1.47457e-08
-2.87374e-10
-3.3467e-10
-1.45973e-10
6.09608e-08
-6.1234e-08
-6.33457e-08
-6.31223e-08
-6.25644e-11
-2.60943e-10
-9.25967e-08
-6.04619e-08
6.24221e-08
6.50596e-08
-6.02893e-08
6.45424e-08
-6.04736e-08
6.37768e-08
-6.07407e-08
6.33451e-08
9.23205e-08
3.60978e-10
-6.44561e-09
7.50951e-08
-6.52826e-08
8.92916e-11
-8.92916e-11
1.42919e-09
-3.68149e-10
1.54983e-08
-9.68845e-11
9.68845e-11
4.50808e-10
1.56771e-09
1.38611e-08
1.31319e-08
-2.7778e-09
3.75768e-09
6.32789e-09
1.94581e-09
4.42299e-10
-3.12118e-10
-2.92741e-09
1.44327e-08
1.48283e-08
-4.27392e-09
1.17578e-08
2.44057e-10
1.93995e-10
2.93119e-09
-9.79635e-10
-1.71301e-09
-5.92003e-09
-1.53125e-10
-4.64441e-10
1.52631e-08
3.38274e-10
1.34219e-10
1.56039e-08
-2.58844e-08
1.73846e-08
2.59335e-09
1.43118e-09
2.3487e-09
-3.64081e-09
1.90801e-08
-1.77879e-08
-1.19771e-10
6.80955e-10
-1.44539e-09
-7.92165e-08
-7.07969e-08
1.44141e-09
-9.5361e-10
7.088e-10
2.28403e-08
1.84392e-08
-6.45983e-09
1.22844e-10
-4.448e-09
-2.29056e-09
2.99603e-08
1.56056e-10
1.48175e-08
7.35804e-08
8.75631e-11
5.52697e-10
-2.04425e-10
-2.69386e-10
-3.82393e-09
2.42418e-08
-1.48214e-08
1.16875e-09
-1.39718e-08
-8.01386e-11
2.02222e-08
-2.87092e-08
9.01858e-10
2.34534e-09
-5.72454e-10
)
;

boundaryField
{
    back
    {
        type            empty;
        value           nonuniform 0();
    }
    ingreso
    {
        type            calculated;
        value           nonuniform List<scalar> 
14
(
-1.54286e-08
-1.54288e-08
-1.54288e-08
-1.54288e-08
-1.54286e-08
-1.54283e-08
-1.54288e-08
-1.54288e-08
-1.54286e-08
-1.54286e-08
-1.54288e-08
-1.5428e-08
-1.5428e-08
-1.54286e-08
)
;
    }
    salida
    {
        type            calculated;
        value           nonuniform List<scalar> 2(1.01416e-07 1.14584e-07);
    }
    front
    {
        type            empty;
        value           nonuniform 0();
    }
    defaultFaces
    {
        type            calculated;
        value           uniform 0;
    }
}


// ************************************************************************* //
