/*--------------------------------*- C++ -*----------------------------------*\
  =========                 |
  \\      /  F ield         | OpenFOAM: The Open Source CFD Toolbox
   \\    /   O peration     | Website:  https://openfoam.org
    \\  /    A nd           | Version:  7
     \\/     M anipulation  |
\*---------------------------------------------------------------------------*/
FoamFile
{
    version     2.0;
    format      ascii;
    class       surfaceScalarField;
    location    "34.5";
    object      phi;
}
// * * * * * * * * * * * * * * * * * * * * * * * * * * * * * * * * * * * * * //

dimensions      [0 3 -1 0 0 0 0];

internalField   nonuniform List<scalar> 
1111
(
6.20832e-09
1.33249e-08
-1.55514e-08
-3.98184e-09
6.35867e-09
-1.16636e-08
1.15133e-08
-1.4639e-08
4.67945e-09
9.59743e-09
3.62147e-10
2.86336e-10
-3.47124e-10
-1.40717e-08
1.41325e-08
-1.39584e-08
1.37538e-08
4.90912e-10
-1.52665e-09
1.48618e-08
2.09344e-09
-4.05364e-09
9.69846e-09
-1.10416e-08
5.3968e-09
-6.62096e-09
-1.25733e-08
1.25342e-08
6.66004e-09
-5.08596e-08
-2.57181e-08
7.65777e-08
-8.07526e-09
7.50569e-09
6.92824e-09
3.675e-09
3.50638e-10
-3.74796e-09
-2.7768e-10
1.56976e-08
-1.57963e-08
-2.28705e-08
2.29691e-08
-9.61916e-09
-8.08154e-09
8.83729e-09
8.86341e-09
-3.50343e-08
1.74206e-08
-3.20467e-08
4.96603e-08
9.55412e-09
-1.90506e-09
-1.427e-08
-2.73516e-09
3.13563e-09
-3.77225e-09
3.37178e-09
-3.70213e-09
1.31753e-08
1.96217e-09
-1.14354e-08
8.88329e-09
-2.19023e-09
-1.50381e-08
8.345e-09
3.81141e-08
-3.09012e-08
-7.21286e-09
-1.9209e-08
-6.80066e-11
1.75426e-08
1.73439e-09
-5.35997e-10
3.90305e-09
-1.79492e-08
1.45822e-08
-6.12948e-08
-3.94621e-09
6.5241e-08
1.8527e-10
-1.36126e-09
-3.90733e-10
1.56673e-09
-1.11183e-09
-1.33826e-08
-2.26344e-10
-3.48963e-10
3.2804e-10
2.47267e-10
-9.97713e-09
-8.07469e-09
1.23635e-08
5.68833e-09
7.93263e-10
-2.18439e-09
-8.5114e-09
9.90253e-09
7.80509e-09
1.02924e-09
-8.61456e-09
-2.19773e-10
-2.81173e-09
-7.77231e-09
1.07691e-08
-1.85061e-10
1.13264e-08
-3.92747e-10
-2.05041e-09
-1.06892e-09
1.03911e-09
1.12623e-10
-8.28062e-11
-3.70573e-10
9.3949e-10
5.38644e-10
-1.10756e-09
-6.62639e-10
-4.4777e-11
7.0561e-10
1.80609e-12
3.20089e-11
-1.09759e-09
9.06782e-11
9.74898e-10
-3.66924e-11
-1.00022e-09
6.78052e-10
-1.82535e-08
-1.63354e-09
-5.70889e-10
6.4706e-11
-1.56456e-10
1.33729e-08
-1.3311e-08
3.8412e-09
-4.63376e-10
6.75827e-10
4.45059e-10
-6.5751e-10
-6.47319e-10
-2.5549e-09
1.94385e-09
1.25836e-09
-2.09631e-09
9.03421e-09
-1.09915e-08
-4.3574e-10
-2.19316e-10
8.41677e-11
-8.79132e-09
1.00502e-08
-9.33411e-09
1.17923e-08
-1.68611e-08
5.12019e-09
-5.14236e-11
1.06046e-10
-2.33925e-10
-3.07861e-10
2.96317e-10
9.46791e-10
-2.04002e-10
-5.98709e-08
7.43539e-08
-1.4483e-08
1.19118e-09
-4.00909e-10
-1.3816e-09
5.91324e-10
1.04569e-09
1.02818e-08
-1.36874e-08
2.35994e-09
-5.53243e-10
6.76628e-09
-8.18425e-09
1.97121e-09
-6.40404e-09
5.81948e-09
5.44085e-09
-4.85629e-09
-6.97271e-09
-2.35387e-09
2.22255e-09
7.10403e-09
-1.88144e-10
-9.09005e-08
9.12959e-08
-2.07267e-10
-2.51291e-10
-8.97528e-08
9.01558e-08
-1.51765e-10
8.30655e-08
-1.50313e-09
1.1084e-10
-8.16732e-08
-3.24021e-09
-7.23566e-11
8.57957e-10
9.51365e-10
-6.18141e-10
4.08107e-09
-1.82037e-09
3.26406e-09
-5.52475e-09
-1.15863e-09
1.05403e-09
-1.49867e-08
6.59159e-09
9.14771e-09
1.00008e-09
-9.83259e-09
-3.15201e-10
-6.29857e-09
1.27714e-08
1.50923e-09
-7.98211e-09
1.4232e-08
-3.95831e-09
3.20564e-09
-1.34793e-08
1.54076e-08
1.73171e-09
-1.71053e-09
-4.79025e-10
-1.98566e-08
-7.2841e-09
2.76197e-08
1.36381e-08
-8.19748e-09
-2.2795e-09
7.57663e-09
-1.15957e-08
-1.43671e-10
2.9342e-10
-1.53134e-09
-3.69941e-08
-2.28768e-08
7.93068e-09
-2.79199e-11
3.88955e-09
-6.88362e-09
1.06701e-08
6.26366e-09
-7.2439e-10
4.18342e-10
5.85791e-10
-2.79742e-10
5.96267e-09
-4.59187e-09
3.53081e-09
-4.90161e-09
-6.83035e-10
-7.38328e-10
3.23778e-10
8.5325e-10
-8.07348e-10
-2.02755e-10
-1.21106e-09
1.04325e-09
-1.74447e-08
2.50056e-09
1.42886e-09
1.35153e-08
3.18853e-10
-8.52998e-10
-1.90246e-10
-3.76077e-09
-1.47105e-08
1.02662e-09
5.67431e-09
1.16843e-08
-5.24573e-09
-1.21129e-08
1.64132e-08
5.479e-10
-1.58812e-08
-1.07986e-09
-8.10996e-10
5.78157e-10
6.5118e-10
-9.70301e-10
5.25415e-10
4.44885e-10
-7.04949e-09
-3.82848e-09
4.47392e-09
-4.15737e-10
5.98386e-10
-1.82649e-10
1.32019e-09
-1.50581e-08
-7.41091e-10
8.76789e-09
-1.01231e-08
-1.18967e-09
-1.17305e-09
1.25061e-08
4.3997e-09
-4.15694e-09
-1.27488e-08
2.99073e-10
6.93516e-09
-7.62322e-09
6.50754e-09
-1.98099e-09
-8.40322e-09
7.74019e-09
2.64401e-09
-1.7855e-09
5.88959e-10
-1.3514e-08
-2.55639e-10
-1.60098e-10
-5.16714e-10
1.2706e-09
-7.7266e-09
7.76834e-10
1.72424e-08
-1.60612e-09
-1.43894e-08
1.55934e-08
-1.20405e-09
1.19032e-08
1.40586e-08
-1.5621e-08
-1.03408e-08
-8.64191e-10
1.45056e-09
-5.8637e-10
1.4545e-09
-1.86427e-09
4.09764e-10
2.51159e-09
-3.62693e-09
1.11534e-09
1.9554e-09
-1.63583e-09
-3.19567e-10
-1.18687e-08
3.03437e-10
1.15653e-08
2.69646e-09
-7.4106e-10
8.84715e-09
-1.5085e-08
6.50408e-09
-7.57404e-09
9.30812e-11
4.01493e-09
-4.33011e-10
-3.0471e-09
3.14018e-09
-7.58844e-09
8.94184e-09
-1.35341e-09
-9.13661e-10
4.08518e-09
9.09553e-10
1.71042e-08
-1.45259e-08
-1.53263e-09
-5.39422e-09
5.1294e-09
-1.55555e-09
-2.65805e-10
6.79517e-09
-6.79524e-09
6.51669e-14
7.07371e-09
4.32981e-09
2.81451e-10
-1.57097e-08
1.03479e-08
1.72649e-08
5.6792e-09
8.32967e-09
8.22629e-09
-6.76362e-09
7.30067e-10
-1.25988e-08
1.37455e-09
-2.48418e-12
-1.27455e-08
3.5825e-09
-4.42324e-10
1.36125e-08
-1.30646e-08
-1.04764e-10
-1.1216e-09
-1.36379e-08
7.0947e-09
9.46675e-10
-5.45827e-11
-8.9457e-09
5.28068e-09
-3.13803e-08
-1.25692e-08
-2.36746e-09
1.29876e-09
1.37043e-08
1.0985e-08
-1.06561e-08
-1.40333e-08
1.63477e-08
-3.11623e-09
-1.32315e-08
1.77373e-09
3.83401e-09
-1.48362e-09
-9.97358e-10
-1.05454e-09
1.38499e-09
6.6691e-10
-3.12798e-10
4.44787e-10
4.53802e-10
6.22124e-08
-6.22165e-08
4.1268e-12
6.21422e-08
-6.24434e-08
3.01207e-10
8.47423e-10
6.47615e-08
-6.55882e-08
8.2671e-10
6.41564e-08
6.05083e-10
-2.31051e-10
-6.65351e-08
9.4687e-10
-6.20152e-08
6.18897e-08
1.25528e-10
1.32315e-09
-6.78582e-08
-6.21758e-08
1.60537e-10
1.20523e-08
-1.17666e-09
1.79943e-09
-3.7426e-09
3.11983e-09
4.54649e-10
-1.31883e-09
1.17943e-09
-8.52942e-10
1.518e-09
-1.80053e-09
1.13546e-09
1.58045e-09
-1.75349e-09
4.66452e-10
-1.10325e-10
-3.3122e-09
3.11725e-09
-2.38817e-09
2.58313e-09
-9.08016e-10
-2.90759e-09
2.63894e-09
-3.90956e-09
-5.5386e-09
6.71102e-10
-7.74274e-10
1.48695e-09
1.21049e-09
-6.6205e-09
8.02072e-09
2.92958e-09
2.06167e-08
-4.26899e-09
-8.43721e-10
3.04982e-10
1.20984e-09
-1.02471e-08
-2.67471e-08
5.49797e-09
-4.51165e-09
-3.08996e-09
2.10364e-09
1.3958e-10
8.81253e-12
5.57218e-10
-2.85716e-09
3.54786e-09
8.58615e-09
9.38247e-10
-6.13845e-10
2.24972e-09
-2.54389e-09
2.32124e-09
1.46657e-08
1.30972e-08
-2.67472e-08
3.21978e-08
6.13038e-09
-2.27073e-08
-1.01703e-08
1.79311e-08
-1.75746e-08
1.06286e-08
-2.9255e-10
8.244e-12
-1.46918e-09
-1.94792e-09
-2.28168e-09
3.79589e-09
1.46147e-08
-5.88236e-10
-1.34375e-08
9.68161e-11
-2.89851e-09
-1.0589e-10
1.52371e-08
1.73596e-08
1.35353e-08
7.33455e-10
-1.53196e-09
-1.27368e-08
-1.92866e-09
5.98226e-09
1.21981e-08
-8.40005e-10
-1.28182e-09
-3.50604e-09
2.72914e-09
3.89414e-09
2.40829e-09
1.40866e-08
4.12285e-09
-1.38097e-08
1.73355e-08
-1.69418e-09
2.90038e-09
-3.67017e-09
1.88766e-09
-4.49907e-09
1.27871e-08
-1.19902e-08
-1.38088e-08
6.20682e-10
8.68905e-09
-1.93328e-09
1.63282e-09
1.78741e-09
-8.79015e-09
4.9193e-10
-4.27103e-09
-5.99423e-09
1.21179e-08
-1.49138e-08
1.45191e-09
1.64706e-09
-2.12803e-09
1.63075e-08
-1.58266e-08
-9.70899e-10
1.3918e-08
2.66335e-09
-3.93924e-09
-1.38091e-08
7.25216e-09
-1.6891e-08
-7.93584e-09
6.46009e-09
5.82849e-09
1.42404e-08
-9.46134e-09
3.175e-09
8.93035e-09
9.81809e-09
3.88183e-09
-4.09742e-09
2.1374e-08
-1.87203e-08
4.5985e-09
-9.96622e-09
2.27861e-09
5.31251e-09
1.34519e-08
-7.72813e-11
1.24363e-08
-1.33299e-08
-1.65835e-09
2.56447e-09
-1.72517e-09
8.19052e-10
1.07374e-08
-6.34745e-09
7.29439e-09
-1.03653e-08
1.39917e-09
-4.75589e-09
1.1163e-08
-1.16529e-08
-7.42629e-09
8.93058e-09
9.23312e-09
1.2544e-08
9.6286e-10
-1.35841e-08
1.73707e-09
8.58412e-10
-1.08299e-08
-6.72449e-09
1.01281e-08
-1.79365e-09
2.5253e-09
-8.70736e-09
4.71665e-09
-5.1066e-09
1.12178e-08
-3.48972e-09
-1.13841e-08
3.65602e-09
-4.53518e-09
1.09971e-08
2.15054e-09
1.21934e-09
-5.02057e-09
-1.74585e-08
1.04045e-08
1.20745e-08
8.90542e-10
-1.06944e-08
-9.64248e-09
1.53163e-08
1.2138e-08
2.69751e-09
-9.52296e-09
-1.31834e-08
-2.72147e-10
-1.24319e-08
2.94449e-10
-6.25404e-10
1.11001e-08
1.23638e-08
-8.07621e-09
1.61221e-08
-1.54464e-08
3.44715e-09
-4.82412e-10
1.65673e-09
1.23409e-08
-3.85642e-09
-1.24134e-08
-5.12406e-09
6.24354e-10
4.49722e-09
1.18643e-08
-7.46872e-09
7.78341e-10
-1.15842e-09
1.724e-09
-2.22394e-09
6.05357e-09
2.5949e-08
-6.4978e-10
-1.25881e-08
1.32378e-08
2.78923e-08
-2.19067e-08
2.2004e-08
1.91821e-08
-1.24874e-08
-2.57598e-09
1.47998e-08
1.22474e-10
-1.20057e-08
-3.0376e-10
-6.01429e-09
-1.98851e-09
2.41922e-09
1.71984e-09
1.34582e-10
-1.0708e-08
1.08019e-08
-2.28455e-10
2.36821e-09
-5.52106e-09
-1.05321e-08
1.02173e-08
-6.63304e-10
-1.03274e-08
-1.61099e-11
-1.04798e-08
-2.90698e-09
-1.17638e-08
2.2972e-09
7.72877e-09
5.05963e-09
2.39246e-10
-1.14538e-08
1.13491e-08
6.94426e-10
-8.42697e-09
5.27767e-09
-8.21518e-10
2.74042e-09
-3.27448e-09
-1.29129e-08
-1.33276e-08
1.29171e-08
-9.9637e-09
-1.58078e-08
1.00618e-08
9.01485e-09
8.45424e-10
2.58825e-09
-1.51763e-08
1.07992e-08
1.70005e-09
4.05125e-09
3.92677e-10
-6.38549e-10
-4.37162e-10
-4.01427e-09
2.72691e-09
-1.61115e-09
3.83839e-10
-4.48187e-10
6.43473e-11
-2.49434e-09
1.25209e-08
2.11143e-09
2.54573e-09
-1.0726e-09
-1.86255e-09
-7.71217e-11
-2.59717e-09
-7.34566e-10
1.26142e-08
9.7334e-09
-5.24922e-10
7.12916e-09
-1.18759e-09
-5.41665e-09
-9.65874e-09
-5.10226e-09
3.0023e-10
8.36096e-11
4.58809e-09
1.39156e-09
-1.6674e-08
-6.30403e-10
-9.4793e-10
-2.25429e-09
8.00834e-10
2.58548e-09
6.19685e-08
-1.2096e-10
-6.18475e-08
6.23308e-08
1.90698e-10
-6.25215e-08
-1.41674e-08
1.11186e-10
1.45199e-08
-4.63687e-10
2.64498e-09
-2.09609e-09
2.83448e-09
1.78692e-09
-4.38193e-09
-5.57338e-10
-6.63728e-10
5.38366e-10
-1.5438e-10
6.40025e-10
-4.66663e-10
1.89039e-08
1.12025e-09
-1.54361e-08
-3.29461e-10
-1.96074e-09
1.2104e-08
2.19764e-09
1.74743e-09
5.09065e-09
-1.79551e-09
-7.72002e-08
-2.41947e-08
-4.81153e-09
1.56594e-08
2.32745e-09
-8.16494e-10
-3.39182e-09
-1.402e-09
7.39036e-10
-6.18849e-10
-1.24705e-08
-3.06866e-10
1.27773e-08
-1.06006e-08
-6.66809e-09
1.05442e-08
-9.23269e-09
8.85501e-09
-1.7621e-10
1.92419e-09
1.19489e-08
-1.16765e-08
-2.7247e-10
7.67232e-10
6.06906e-11
9.67085e-09
1.11491e-09
-1.20011e-09
-3.78102e-10
-1.42111e-08
-5.21549e-10
-1.33532e-08
1.20641e-08
-1.14148e-08
-6.60217e-08
6.49653e-08
1.05638e-09
5.04021e-10
-4.95208e-10
1.16037e-08
-4.68855e-10
2.06679e-11
-1.92632e-09
2.76529e-09
-3.36991e-09
-1.35219e-08
-1.66893e-09
2.57183e-09
-4.66916e-09
-1.37745e-08
1.76963e-09
5.61783e-09
9.39324e-09
-8.72025e-09
-4.98265e-10
2.94106e-11
-9.36268e-09
-1.26346e-08
1.55066e-10
-6.2733e-08
2.25401e-10
6.25076e-08
6.95153e-10
6.34613e-08
-2.48033e-10
-8.7222e-10
-1.43113e-08
1.13809e-10
-6.33765e-08
6.32627e-08
1.8406e-10
-6.29128e-08
6.27288e-08
5.62974e-10
6.18286e-08
1.54104e-10
-6.19827e-08
6.16569e-08
1.71649e-10
-8.78839e-08
8.84958e-08
-6.77924e-12
9.33657e-08
-9.30641e-08
-2.97485e-10
-8.66244e-08
-4.32746e-10
9.33336e-08
-1.98881e-10
-8.49076e-08
-7.69981e-10
9.34608e-08
1.73924e-10
-5.18964e-10
1.97139e-09
9.23369e-08
-6.93614e-08
6.21824e-08
-6.23705e-08
-6.29843e-08
6.15204e-08
1.36518e-10
-2.98495e-09
2.68494e-09
-1.35097e-08
9.01203e-11
2.10109e-10
2.34092e-09
9.66369e-09
-1.18539e-08
3.81885e-08
-3.44353e-08
-1.64988e-08
1.39019e-08
-8.67421e-11
-2.17342e-10
3.13265e-10
9.4219e-10
-1.88817e-10
4.14384e-10
4.6744e-09
1.05099e-09
-3.83773e-09
-4.28696e-10
4.93402e-10
-3.44527e-10
-2.4002e-09
1.27195e-08
2.20157e-09
-1.44396e-08
-2.31289e-09
-3.73766e-09
5.69423e-09
1.0838e-09
-2.44231e-09
1.40922e-08
-1.24536e-09
-4.26649e-09
6.46272e-09
-7.94313e-09
-1.90331e-08
-1.2976e-08
7.64981e-09
5.94692e-09
-3.21915e-10
-5.17235e-10
3.25837e-09
1.43532e-08
1.81171e-09
-1.30314e-09
-4.83412e-10
5.21767e-10
-3.0416e-10
1.59389e-08
-4.55168e-10
-1.57906e-08
-3.93501e-09
-2.42709e-09
2.87287e-10
-2.29569e-10
4.16819e-09
-1.80059e-08
6.53075e-10
-1.72134e-09
-2.34853e-09
-2.32234e-09
1.51963e-08
-9.05794e-08
-1.37103e-10
9.16864e-08
-1.99743e-10
-8.9162e-08
-4.76975e-10
9.30687e-08
-2.87397e-10
-9.29022e-08
-6.45076e-10
-1.81733e-09
1.61264e-08
9.19956e-08
-1.98103e-10
2.88765e-11
-2.43494e-10
1.0904e-08
2.22936e-09
-9.56073e-09
-1.18533e-08
-5.60531e-09
8.46234e-09
1.38217e-09
-6.91492e-09
-6.42319e-09
9.08254e-09
-2.38481e-10
1.01598e-08
1.92121e-08
-1.76488e-08
3.01605e-09
-1.24117e-08
3.0143e-09
-7.00559e-08
4.0342e-09
-2.03274e-08
-1.27134e-08
-6.12672e-10
-5.81475e-09
-1.53903e-08
9.19936e-09
-1.51919e-08
5.87001e-10
4.96968e-10
-1.48895e-09
-1.61018e-08
1.6669e-08
9.19858e-09
-9.27094e-09
-5.49742e-09
1.48895e-08
-1.63245e-09
8.35164e-10
-1.48995e-09
5.6034e-10
1.22038e-08
3.41711e-09
7.09368e-08
-1.79226e-08
9.44522e-10
-1.4611e-08
-3.10348e-10
-3.55713e-10
-2.04917e-10
6.09628e-08
-6.12502e-08
-6.33476e-08
-6.31109e-08
-4.21789e-11
-2.70246e-10
-9.25898e-08
-6.03968e-08
6.23682e-08
6.50761e-08
-6.02229e-08
6.45572e-08
-6.04218e-08
6.37872e-08
-6.07193e-08
6.33544e-08
9.23277e-08
3.91761e-10
-6.5218e-09
7.50072e-08
-6.50683e-08
1.16559e-10
-1.16559e-10
1.93223e-09
-3.80455e-10
1.54916e-08
-1.3361e-10
1.3361e-10
4.96444e-10
1.49943e-09
1.39294e-08
1.29406e-08
-2.70954e-09
3.6986e-09
6.37515e-09
1.93765e-09
4.69361e-10
-3.34923e-10
-2.88623e-09
1.43507e-08
1.48125e-08
-4.31242e-09
1.16597e-08
2.68931e-10
2.1295e-10
2.98953e-09
-1.02813e-09
-1.77426e-09
-5.9434e-09
-1.33158e-10
-4.9231e-10
1.52169e-08
3.72548e-10
1.65464e-10
1.62715e-08
-2.57132e-08
1.71944e-08
2.56024e-09
1.48602e-09
2.2151e-09
-3.53374e-09
1.89417e-08
-1.76231e-08
-1.39081e-10
8.63664e-10
-1.4441e-09
-7.91727e-08
-7.08055e-08
1.47085e-09
-1.11109e-09
7.30028e-10
2.28628e-08
1.83534e-08
-6.48997e-09
1.65056e-10
-4.4979e-09
-2.07546e-09
2.9891e-08
1.31301e-10
1.4832e-08
7.35586e-08
1.04871e-10
5.70169e-10
-2.234e-10
-2.92411e-10
-3.87992e-09
2.41019e-08
-1.47598e-08
1.22343e-09
-1.40284e-08
-9.35503e-11
2.01186e-08
-2.84268e-08
8.99233e-10
2.52771e-09
-6.76207e-10
)
;

boundaryField
{
    back
    {
        type            empty;
        value           nonuniform 0();
    }
    ingreso
    {
        type            calculated;
        value           nonuniform List<scalar> 
14
(
-1.54286e-08
-1.54288e-08
-1.54288e-08
-1.54288e-08
-1.54286e-08
-1.54283e-08
-1.54288e-08
-1.54288e-08
-1.54286e-08
-1.54286e-08
-1.54288e-08
-1.5428e-08
-1.5428e-08
-1.54286e-08
)
;
    }
    salida
    {
        type            calculated;
        value           nonuniform List<scalar> 2(1.01395e-07 1.14605e-07);
    }
    front
    {
        type            empty;
        value           nonuniform 0();
    }
    defaultFaces
    {
        type            calculated;
        value           uniform 0;
    }
}


// ************************************************************************* //
