/*--------------------------------*- C++ -*----------------------------------*\
  =========                 |
  \\      /  F ield         | OpenFOAM: The Open Source CFD Toolbox
   \\    /   O peration     | Website:  https://openfoam.org
    \\  /    A nd           | Version:  8
     \\/     M anipulation  |
\*---------------------------------------------------------------------------*/
FoamFile
{
    version     2.0;
    format      ascii;
    class       surfaceScalarField;
    location    "8.2";
    object      phi;
}
// * * * * * * * * * * * * * * * * * * * * * * * * * * * * * * * * * * * * * //

dimensions      [0 3 -1 0 0 0 0];

internalField   nonuniform List<scalar> 
11624
(
-7.91958e-09
8.10664e-09
1.62425e-10
-3.49489e-10
-7.32595e-09
-2.69313e-10
-3.24314e-10
-2.10598e-09
1.41595e-10
1.85236e-09
1.12027e-10
8.75428e-09
-7.65781e-09
1.84993e-09
-2.94639e-09
-6.08675e-09
5.73961e-09
1.46671e-11
3.3247e-10
-6.16258e-09
4.3395e-09
1.49386e-09
3.29221e-10
-1.46157e-09
-2.85879e-10
-2.96636e-09
4.71381e-09
-8.62018e-10
2.30748e-09
3.18279e-09
-4.62825e-09
3.03154e-09
-2.36421e-09
-3.3366e-09
2.66927e-09
-3.39779e-09
-1.59863e-09
2.65203e-09
2.34439e-09
5.0436e-09
-4.63144e-09
-2.12969e-10
-1.99192e-10
2.02093e-09
4.80555e-09
-2.00351e-09
-4.82297e-09
-2.82773e-09
-4.29671e-09
2.26636e-09
4.85807e-09
-4.03428e-09
5.1898e-09
-1.21602e-09
6.04923e-11
-1.56786e-09
4.44036e-09
-3.95734e-09
1.08483e-09
-3.98371e-09
2.85266e-09
-2.74202e-09
3.87308e-09
4.19089e-09
-4.16277e-09
-8.78156e-11
5.96953e-11
-3.73589e-09
4.84131e-09
-1.20173e-09
9.63026e-11
-2.75256e-09
3.88798e-09
-4.56239e-09
3.42697e-09
-3.22918e-09
-1.58439e-09
1.94633e-09
2.86723e-09
3.34612e-09
-3.80165e-09
2.27763e-10
2.27768e-10
-3.63535e-09
4.45141e-09
-3.51067e-10
-4.64991e-10
5.40342e-09
-5.41972e-09
4.88505e-11
-3.25571e-11
6.21834e-09
-2.06164e-09
8.812e-10
-5.03791e-09
5.09714e-09
-4.7988e-09
-3.07798e-10
9.45648e-12
-4.88551e-09
1.46215e-09
4.29789e-09
-8.74527e-10
2.48787e-09
-4.03026e-09
-3.40039e-09
4.94277e-09
2.58616e-09
-2.41513e-09
-3.13824e-09
2.96721e-09
-2.76603e-09
3.35641e-09
-4.29218e-09
3.7018e-09
-5.9328e-09
4.61142e-09
-3.96827e-09
5.28965e-09
5.38674e-09
-3.53113e-10
6.35082e-11
5.29665e-09
-1.88636e-10
2.95405e-10
-5.53081e-09
5.13645e-09
5.35279e-10
-1.40926e-10
-5.4361e-09
4.65256e-09
1.05262e-09
-2.69084e-10
5.62675e-09
-2.42452e-10
2.44276e-12
-4.53241e-10
-3.39688e-11
-5.12187e-09
6.09783e-10
-2.86707e-10
-8.6839e-10
4.98677e-09
-5.54682e-09
1.42844e-09
-3.59445e-09
3.2546e-09
-7.23247e-10
1.87419e-10
-3.95571e-09
1.75269e-09
-1.22792e-09
3.43095e-09
2.62883e-09
-4.20095e-09
-2.40421e-09
3.97633e-09
2.69965e-10
8.15733e-11
7.75511e-09
6.3152e-11
-4.84314e-09
-6.3973e-10
5.47425e-09
-2.96656e-10
-6.22456e-09
1.04697e-09
2.11324e-09
-1.83979e-09
-2.8825e-09
2.60905e-09
-9.24876e-09
-3.36169e-10
2.25897e-09
3.22587e-09
9.20036e-10
-1.76097e-09
-2.38493e-09
8.74131e-09
-7.36382e-09
4.81398e-09
-6.19148e-09
4.19557e-09
-3.96166e-09
3.09231e-09
-3.32622e-09
-1.83054e-09
-6.12916e-10
3.37468e-10
3.85987e-09
-4.23538e-09
-4.94e-09
5.31551e-09
1.0953e-09
-1.06064e-09
3.57583e-09
-3.61049e-09
-3.61831e-09
-1.1004e-09
4.76166e-09
-4.2946e-11
3.2904e-09
5.15746e-09
-5.50405e-09
-2.9438e-09
6.71212e-10
-4.50865e-10
2.33118e-10
-4.53464e-10
2.02739e-09
-9.12408e-10
5.10707e-09
-6.22205e-09
-2.06863e-09
2.60015e-09
8.22276e-09
-5.41028e-09
1.69076e-09
-1.0222e-10
3.82174e-09
3.42253e-09
-3.73705e-09
8.41327e-10
-5.26809e-10
-2.83131e-09
3.67954e-09
1.4955e-09
-2.34374e-09
4.62657e-09
-3.965e-09
-2.88931e-09
2.22774e-09
-6.02257e-10
1.5517e-09
-5.1804e-09
4.23095e-09
-7.04818e-09
5.97782e-09
-3.15186e-09
4.22222e-09
1.64701e-09
-7.50561e-10
-3.8639e-09
2.96745e-09
-2.20234e-10
2.3676e-10
-2.32269e-10
2.15743e-10
-1.6168e-09
4.36821e-09
-3.61343e-09
2.41736e-09
-3.83468e-09
3.35999e-09
-1.94266e-09
-4.82853e-09
-6.31004e-11
4.02324e-09
2.16641e-10
2.24617e-10
-2.23076e-10
-2.18183e-10
2.4337e-09
7.35706e-09
-1.06831e-08
8.92341e-10
2.7292e-09
-2.80193e-09
-3.55508e-09
3.62781e-09
1.72561e-09
4.85221e-09
-1.31823e-09
-5.2596e-09
4.09736e-09
-3.60511e-09
-3.56558e-09
3.07334e-09
-1.01798e-09
5.83418e-11
1.47604e-09
-5.16398e-10
-4.73647e-09
-2.64076e-09
3.00108e-09
4.37615e-09
-2.6767e-09
-3.50389e-09
3.46653e-09
2.71406e-09
-4.91357e-09
4.62917e-09
-6.08214e-10
8.92613e-10
-5.108e-09
-7.86975e-09
5.31995e-09
-2.87694e-09
2.73502e-09
3.71605e-09
-3.57413e-09
-1.55933e-09
3.24281e-09
-4.17724e-09
2.49377e-09
-3.81855e-09
9.595e-10
-5.81024e-09
-2.95896e-09
6.84912e-10
-4.72536e-09
-2.9039e-09
6.6792e-10
-4.65708e-09
-2.83015e-09
6.46827e-10
-4.55493e-09
-3.3807e-09
8.1402e-10
-5.27546e-09
4.89938e-09
-5.01612e-09
2.30485e-10
-1.13739e-10
-4.07422e-09
1.06038e-09
-6.36017e-09
-2.96078e-09
6.93996e-10
-4.92646e-09
-3.11838e-09
7.3896e-10
-5.06798e-09
-3.5225e-09
8.671e-10
-5.59441e-09
-2.71449e-09
6.17625e-10
-4.52797e-09
-2.26767e-10
2.57367e-10
1.91986e-10
-2.22587e-10
5.17352e-09
5.7612e-09
-8.31764e-09
-2.61708e-09
-4.12876e-09
2.76002e-09
3.78609e-09
-5.7161e-09
-5.17904e-09
4.32808e-09
6.56706e-09
-2.29528e-10
2.39535e-10
-2.33771e-10
2.23764e-10
1.02469e-09
-1.13217e-09
4.93259e-09
-4.82511e-09
4.62936e-09
6.51802e-09
-6.94285e-09
-4.20454e-09
6.3351e-09
7.68782e-09
-9.72475e-09
-4.29817e-09
-1.09597e-09
4.71025e-10
-4.2429e-09
4.86784e-09
2.25671e-09
3.11761e-09
-2.44205e-09
-2.93227e-09
-4.36297e-09
-3.94341e-11
4.1237e-09
2.78699e-10
-3.71293e-09
2.39803e-09
-3.17913e-09
4.49403e-09
-3.55351e-09
-3.05709e-09
2.89767e-09
-2.00812e-09
1.64672e-09
2.60528e-09
-2.24387e-09
-2.37132e-09
3.08084e-09
-2.6228e-09
1.91328e-09
1.164e-10
3.72117e-09
3.53322e-10
2.37645e-09
3.28129e-09
-4.87547e-09
-7.82278e-10
-3.48159e-10
1.4853e-09
-1.58687e-09
4.49728e-10
3.91431e-09
5.74566e-10
-3.72876e-09
-7.60124e-10
-4.23418e-11
-4.4421e-09
-6.37434e-10
3.24421e-09
-3.88185e-09
2.99922e-09
-2.36158e-09
-2.73142e-09
4.0429e-10
4.73861e-09
-2.41147e-09
2.15442e-09
8.54554e-09
-1.2741e-09
-9.42586e-09
3.18996e-09
7.92946e-09
-8.965e-09
5.43389e-09
6.53166e-10
-1.18768e-09
-2.58609e-10
5.4578e-10
8.25837e-09
-3.41503e-09
-3.1124e-09
2.49717e-09
-1.07594e-09
6.76711e-10
1.13317e-09
-7.33935e-10
5.77235e-10
-1.25737e-10
5.46089e-09
-5.91239e-09
-4.93854e-10
7.3879e-10
-2.16471e-09
1.91977e-09
1.4852e-09
-3.85098e-09
3.7292e-09
-1.36342e-09
1.43395e-09
-1.21737e-09
2.81496e-09
2.78426e-09
-3.62086e-09
3.8193e-09
-2.98269e-09
4.62705e-09
8.98577e-09
-2.78247e-09
-1.08304e-08
-2.06878e-09
-2.42962e-09
2.97423e-09
1.52417e-09
1.21878e-09
4.23003e-09
-2.85903e-09
-2.58978e-09
1.0135e-10
-1.83945e-10
-1.87818e-09
1.96077e-09
3.04215e-09
3.61118e-09
-4.02449e-09
3.26273e-10
-9.14581e-10
5.41592e-09
-4.82761e-09
3.35479e-10
3.00782e-09
3.5346e-10
-3.69676e-09
3.00466e-09
-2.73445e-09
-2.64153e-09
-6.18433e-09
-5.67621e-09
6.14444e-09
8.75361e-11
1.50245e-10
-5.0191e-11
-1.8759e-10
7.59136e-09
-1.44792e-09
-6.36097e-10
-5.50734e-09
-5.23088e-09
-1.12937e-09
7.07946e-10
5.65231e-09
4.33011e-09
-4.77774e-09
-3.97839e-09
4.42602e-09
2.24818e-09
-4.05685e-09
-3.10489e-09
3.87957e-09
-4.12736e-09
-1.31154e-09
4.15087e-09
3.32214e-09
-4.2288e-09
4.39957e-09
-3.56431e-09
-6.16984e-09
5.33458e-09
1.7529e-09
-3.91139e-09
3.64369e-09
-5.1293e-09
-3.06066e-09
2.25716e-09
-2.20741e-09
7.92e-10
1.48973e-09
-7.43222e-11
-3.63316e-09
-2.58301e-09
4.30018e-09
1.91598e-09
2.38979e-09
-3.28466e-09
3.50305e-09
-2.60818e-09
2.46037e-10
-2.48842e-10
2.19904e-10
-2.171e-10
-4.13467e-09
4.08756e-09
-3.77357e-09
3.82068e-09
7.7184e-09
1.4933e-09
-2.82333e-09
-6.38837e-09
-3.27439e-09
2.28161e-09
-3.39308e-09
4.38586e-09
3.17935e-09
-7.65278e-09
9.10279e-09
1.21647e-10
-5.28735e-10
-2.47979e-09
2.88687e-09
-3.60639e-10
4.38279e-09
-4.2751e-09
2.52951e-10
5.42673e-09
-4.39266e-09
-7.03149e-10
-3.30928e-10
-1.62566e-09
-4.04821e-09
2.22114e-09
3.45273e-09
-6.05905e-09
-6.93318e-10
6.75237e-09
-1.62711e-09
2.58984e-10
1.48181e-09
-1.13679e-10
-9.01725e-10
-4.46081e-09
7.52627e-10
4.60991e-09
-3.65952e-09
-4.01154e-09
4.4314e-09
3.23966e-09
-4.2448e-09
-4.48804e-09
2.78447e-09
5.94837e-09
5.04113e-09
-5.3341e-09
7.5512e-09
-7.25822e-09
9.78663e-10
-4.83224e-09
4.87827e-09
4.67692e-09
-4.50955e-09
4.81939e-09
-2.35385e-10
-2.22277e-10
2.31505e-10
2.26157e-10
-4.40315e-09
4.31529e-09
8.50849e-11
2.76838e-12
5.73982e-09
-5.29026e-09
4.68111e-10
-9.17679e-10
5.79601e-09
-5.28257e-09
5.1214e-10
-1.02558e-09
5.61912e-09
-5.17978e-09
4.59434e-10
-8.98768e-10
3.03718e-09
-3.82172e-09
1.25288e-10
6.59249e-10
-4.97147e-09
4.97182e-09
-7.89933e-11
7.86469e-11
2.95487e-09
-3.17439e-09
3.12155e-09
-2.90202e-09
-4.11809e-10
4.13956e-09
6.59769e-10
-4.38752e-09
2.26276e-10
-2.59446e-10
2.30454e-10
-1.97285e-10
-1.25217e-08
1.40212e-08
-6.81771e-09
5.3183e-09
5.02085e-09
-5.53404e-09
-1.83096e-12
5.15017e-10
-2.78763e-09
-3.07827e-09
2.33614e-09
3.52976e-09
2.39366e-09
-1.45837e-09
2.61498e-09
-3.55026e-09
-7.84959e-09
-8.30151e-09
8.38829e-09
7.76281e-09
2.91445e-09
-3.23397e-09
7.6777e-09
-9.21517e-09
-6.44445e-09
7.98191e-09
-2.45456e-09
2.34754e-09
-3.11661e-09
3.22363e-09
-1.14927e-10
1.64302e-10
-6.48505e-09
5.13026e-09
-1.8102e-10
1.53581e-09
3.97299e-09
-2.12459e-09
1.91979e-09
-3.7682e-09
-3.37065e-09
4.49567e-09
2.79241e-09
-3.91743e-09
-3.15173e-09
1.0724e-10
3.49554e-10
2.69494e-09
4.96655e-09
-8.58695e-10
-5.00958e-09
4.56765e-09
-4.15462e-09
-3.38448e-09
2.97145e-09
-4.54859e-09
5.19219e-09
2.18996e-11
-6.65503e-10
-4.62669e-09
5.30431e-09
2.63603e-11
-7.03981e-10
-3.35153e-09
4.16567e-09
8.33097e-10
-1.64723e-09
-3.43581e-09
3.84418e-09
-2.85084e-09
2.44247e-09
6.99853e-10
7.31246e-09
-8.01231e-09
-2.12736e-10
-3.75159e-09
-1.98449e-10
-5.89641e-10
2.8323e-09
9.68589e-10
-3.21125e-09
2.86608e-10
-3.05352e-10
2.36882e-09
-6.24354e-10
6.79429e-10
-2.42389e-09
4.98082e-09
-6.33771e-11
5.43781e-11
4.8186e-09
-4.7787e-09
2.16615e-11
-6.15615e-11
4.53478e-09
-4.40378e-09
6.95981e-12
-1.37967e-10
3.49847e-09
-3.4089e-09
-3.04798e-09
2.95841e-09
2.01925e-10
-1.62004e-10
-2.02387e-10
1.62465e-10
4.02507e-09
1.62362e-09
-2.95666e-11
4.16231e-09
1.66103e-09
-2.73339e-11
4.11079e-09
1.65987e-09
-3.08367e-11
-4.74067e-09
5.95695e-09
-1.29789e-09
8.1606e-11
5.46483e-09
-5.34084e-09
-2.9268e-10
1.68689e-10
-1.23305e-09
1.32134e-09
7.21992e-10
-8.1028e-10
-2.28482e-09
-4.65129e-09
3.64291e-09
3.29321e-09
-5.413e-09
4.65788e-09
9.98292e-10
-2.43174e-10
6.84163e-09
6.59308e-11
-1.44273e-09
3.53026e-09
2.92178e-09
-2.4446e-09
-4.00744e-09
-4.40967e-09
2.29319e-10
4.23916e-09
-5.8811e-11
4.98185e-09
-4.98292e-09
-2.54066e-12
3.60843e-12
-4.39585e-09
4.40722e-09
-4.52271e-11
3.38508e-11
-4.455e-09
4.46638e-09
-4.58982e-11
3.45158e-11
-4.30426e-09
4.31561e-09
-4.43404e-11
3.29917e-11
1.59565e-09
-1.6702e-10
4.10437e-09
3.37499e-09
-5.41453e-09
-2.06482e-09
5.0397e-09
-4.6244e-09
-2.81917e-10
-1.33386e-10
-4.43434e-09
4.04986e-09
2.63266e-09
-6.06386e-09
5.66636e-09
-1.48844e-10
5.46343e-10
-4.67026e-09
-1.11262e-09
2.48844e-10
-1.57143e-09
-7.86392e-10
1.12478e-09
5.44624e-09
-5.87157e-10
-3.24299e-10
5.29392e-09
-5.2986e-09
5.93409e-12
-1.25131e-12
-4.96189e-09
4.97905e-09
-5.50163e-11
3.78641e-11
-4.42933e-09
4.39123e-09
-1.38422e-10
1.76524e-10
-4.48888e-09
4.45055e-09
-1.40004e-10
1.78327e-10
-4.33674e-09
4.29936e-09
-1.36103e-10
1.73484e-10
3.9098e-09
-3.98615e-09
-5.85106e-10
6.6145e-10
6.15691e-09
1.59956e-10
-1.49827e-09
2.8444e-09
-3.47463e-09
3.02001e-09
-3.15734e-09
2.45517e-09
2.98377e-09
5.97104e-09
-5.11509e-09
-5.30024e-11
-8.02942e-10
4.89961e-09
3.73433e-10
-1.36324e-09
7.22202e-09
-7.06561e-09
-7.72048e-10
6.15642e-10
4.26623e-09
-4.3528e-09
-6.40609e-11
1.5063e-10
-1.09371e-11
-7.18467e-11
3.56559e-09
-3.68123e-09
-1.86135e-10
3.01773e-10
3.61186e-09
-3.72917e-09
-1.87597e-10
3.04912e-10
3.49173e-09
-3.60464e-09
-1.8287e-10
2.95777e-10
5.66008e-10
3.41219e-10
-5.92335e-09
-4.47147e-09
5.12514e-09
-7.37225e-10
8.35505e-11
-4.52802e-09
5.19238e-09
-7.50241e-10
8.58806e-11
-4.37864e-09
5.0183e-09
-7.21119e-10
8.14618e-11
-5.17277e-09
5.50191e-11
-1.36729e-09
5.39171e-09
-1.4421e-09
-5.08178e-09
-3.58633e-09
-3.00238e-09
3.85255e-09
2.73616e-09
4.03521e-10
-1.58858e-10
-4.77747e-10
2.33084e-10
2.64328e-09
-4.44122e-09
5.29641e-09
1.24108e-09
-6.28286e-11
3.94599e-09
-5.17784e-11
2.16578e-10
3.9943e-09
-4.93242e-11
2.17337e-10
3.86417e-09
-5.04705e-11
2.11365e-10
5.04252e-09
-1.1779e-10
5.60879e-11
-2.99077e-10
1.68825e-10
1.10933e-09
4.88308e-11
-4.26158e-09
-1.77262e-10
-8.43726e-10
4.96136e-09
-4.9578e-09
6.17935e-12
-9.73911e-12
-4.36764e-09
1.58676e-10
-9.70819e-10
-4.4605e-09
1.60799e-10
-9.90557e-10
6.44369e-09
-5.48577e-09
6.25342e-11
-1.02046e-09
-4.96624e-09
4.96893e-09
6.26122e-12
-8.95061e-12
-6.60841e-10
1.46375e-10
-6.86209e-10
1.52484e-10
-6.75163e-10
1.49688e-10
-4.4096e-09
4.42476e-09
-1.56934e-11
5.33512e-13
-4.46883e-09
4.48424e-09
-1.61023e-11
6.96352e-13
-4.31796e-09
4.33274e-09
-1.51683e-11
3.88442e-13
-5.48235e-09
5.41881e-09
-1.37546e-10
2.01084e-10
-3.99687e-09
4.42379e-09
-4.90706e-10
6.37836e-11
6.27467e-09
3.46982e-09
-6.21423e-09
2.80958e-09
3.41342e-09
-3.53713e-09
-2.68587e-09
-4.7457e-09
4.77406e-09
-2.70244e-11
-1.33778e-12
-4.83637e-10
2.3586e-09
-4.04538e-09
4.38422e-09
-1.43884e-11
-3.24451e-10
5.35343e-09
-4.78225e-09
-2.88267e-11
-5.4236e-10
-4.24415e-09
4.27872e-09
-4.91241e-11
1.45589e-11
5.02366e-09
7.66875e-10
-1.24171e-10
4.08745e-09
-4.11432e-09
-8.99851e-11
1.16863e-10
5.68181e-09
-4.81486e-09
5.81488e-11
-9.251e-10
3.22982e-09
-3.99816e-09
3.5784e-09
-2.81006e-09
-4.32634e-09
5.05364e-09
2.09043e-10
-9.36348e-10
6.42264e-09
1.77675e-09
-4.42819e-09
-3.77119e-09
-4.62245e-09
4.64204e-09
3.93731e-12
-2.35362e-11
-5.18669e-09
4.99142e-09
-5.48253e-11
2.50089e-10
-8.11807e-10
4.17379e-09
5.15532e-10
-3.87752e-09
-1.17576e-09
6.27493e-09
-1.66568e-10
3.67459e-09
-2.68922e-09
3.51199e-09
-4.49736e-09
2.93478e-09
-4.31418e-09
3.5093e-09
-2.1299e-09
-4.61831e-09
-2.03142e-10
-6.40443e-10
4.68682e-10
4.08608e-09
5.15767e-09
-4.35607e-09
-4.48311e-11
-7.56774e-10
-5.44843e-09
5.29871e-09
-9.98432e-11
2.49562e-10
-2.52291e-10
2.06274e-10
4.60166e-11
3.39739e-09
-3.56921e-09
8.47639e-12
1.63341e-10
4.50174e-09
-4.26323e-09
1.89606e-10
-4.28121e-10
-3.65899e-09
-3.11417e-09
2.6385e-09
5.80005e-09
-5.8007e-09
-9.26691e-11
9.33171e-11
-4.52563e-09
-4.04714e-11
1.75142e-11
-1.4774e-10
8.98049e-11
1.42266e-10
-8.43313e-11
6.8411e-09
-5.43977e-09
1.89493e-10
-1.59082e-09
4.78316e-09
6.79655e-11
-5.84892e-10
-5.04527e-09
5.54015e-09
3.18895e-11
-5.26765e-10
4.62514e-09
-9.62617e-10
-1.70785e-10
4.78601e-09
-9.94405e-10
-1.79752e-10
4.72332e-09
-9.81958e-10
-1.75768e-10
5.17654e-09
-5.37913e-09
4.51798e-10
-2.49208e-10
-4.75443e-10
1.10346e-10
-1.7702e-10
5.42117e-10
-4.57404e-09
-8.73172e-11
3.46657e-11
6.37278e-10
-1.922e-09
-6.38339e-10
1.92307e-09
-3.66257e-09
4.33244e-09
2.52993e-10
-9.22858e-10
2.84445e-09
-1.34894e-09
-1.4955e-09
-3.95393e-10
4.25275e-09
7.52601e-10
-4.60996e-09
5.84932e-09
-5.84749e-09
-1.99599e-11
1.81293e-11
-6.11807e-09
5.9497e-09
-8.41693e-11
2.52538e-10
-3.88403e-09
3.99875e-09
4.59842e-10
-4.80425e-09
-4.44451e-10
2.03422e-10
4.64214e-09
1.54102e-10
-4.219e-09
-2.43959e-09
2.41067e-09
3.10976e-09
-5.9335e-09
-1.31966e-09
1.87547e-10
2.37379e-10
-1.39414e-10
-5.90558e-09
7.04318e-09
1.86777e-10
-1.32438e-09
3.2479e-09
-3.63748e-09
1.05201e-10
-8.69626e-10
-3.22172e-09
4.71065e-10
4.66435e-09
3.93189e-11
-8.62425e-11
4.24442e-09
-4.25591e-09
1.85821e-11
-7.09059e-12
6.05541e-09
-2.35971e-10
-5.28348e-09
-5.35956e-10
5.23951e-09
-2.23148e-10
-4.58484e-09
-4.31525e-10
5.35471e-09
-2.25873e-10
-4.68391e-09
-4.44924e-10
5.43183e-09
-2.26693e-10
-4.74944e-09
-4.55704e-10
6.66722e-09
-2.41884e-10
-5.80154e-09
-6.23792e-10
6.01738e-09
-1.24406e-09
2.66381e-10
4.60892e-09
-4.56545e-09
-8.06527e-11
3.71813e-11
4.22455e-09
-8.17678e-11
1.16153e-09
4.13423e-09
-8.11638e-11
1.13913e-09
-2.21466e-10
2.02209e-10
-4.38389e-09
-7.32581e-09
1.0543e-09
1.98601e-10
6.07291e-09
4.97684e-09
-1.46898e-12
6.47923e-12
-4.2677e-09
4.26894e-09
6.53006e-12
-7.76413e-12
2.89706e-09
-3.27466e-09
3.74195e-09
-3.36435e-09
5.21538e-09
-5.17835e-09
-8.60746e-11
4.90392e-11
-4.62415e-09
-8.24414e-12
9.95006e-12
-4.2115e-10
4.35069e-09
-5.07015e-10
4.78742e-09
-4.76833e-09
-2.00398e-11
9.50364e-13
-2.52048e-10
7.33138e-11
-1.76581e-10
4.64973e-10
-1.81619e-10
4.78757e-10
-1.7961e-10
4.73599e-10
-7.22472e-10
-6.23074e-11
4.919e-09
-7.38734e-10
-6.4145e-11
5.02742e-09
-5.20062e-09
5.16848e-09
-1.75485e-10
2.0763e-10
5.04992e-09
5.79185e-11
-8.41845e-11
1.00314e-10
-3.07782e-10
-4.06764e-09
4.14531e-10
9.32107e-10
-4.83001e-09
3.60352e-11
7.48599e-10
1.02734e-09
-2.49883e-10
1.14379e-09
2.69867e-10
1.18366e-09
2.79552e-10
1.16867e-09
2.75248e-10
2.62011e-09
-2.56761e-09
-3.54022e-09
3.17277e-09
-3.00167e-09
3.36913e-09
-6.85102e-09
-8.11443e-10
6.38501e-09
1.27746e-09
-5.38067e-09
5.43592e-09
-5.92347e-11
3.9827e-12
-1.30214e-11
9.1459e-12
-2.41938e-10
-4.53284e-09
-7.7653e-11
7.27551e-11
-7.97137e-11
7.52712e-11
-7.88562e-11
7.42381e-11
5.72507e-09
-5.72761e-09
-9.05629e-11
9.31016e-11
3.96535e-09
-3.66838e-09
-3.15158e-09
2.85461e-09
-4.37253e-09
-4.78027e-10
-2.59949e-11
4.87655e-09
-1.0981e-09
2.42444e-10
4.20114e-09
-3.47444e-09
-5.0103e-09
5.52171e-09
-8.23254e-10
3.11846e-10
4.53359e-09
-8.32162e-10
-3.04032e-10
4.68198e-09
3.18346e-11
-7.17738e-11
3.18761e-09
-3.65043e-09
-3.0774e-09
-1.00969e-10
1.30461e-10
-9.59139e-11
6.64216e-11
-4.42991e-09
4.49205e-09
-8.45927e-11
2.24559e-11
-4.48953e-09
4.55252e-09
-8.57755e-11
2.27931e-11
-4.3377e-09
4.39853e-09
-8.27968e-11
2.19697e-11
-3.7852e-09
4.16004e-09
2.99852e-09
-3.37335e-09
-3.31712e-09
-2.08489e-09
4.38302e-09
-1.9447e-11
7.94101e-10
-3.81004e-10
5.88254e-10
-2.15239e-10
3.90806e-09
8.94203e-10
-4.58703e-09
1.75999e-09
-3.39803e-11
1.18137e-09
6.95663e-10
4.13166e-09
-1.69234e-10
1.39101e-09
3.99073e-09
-2.19673e-11
1.08488e-09
-3.1002e-11
1.10246e-10
2.66067e-10
-3.45311e-10
-5.89273e-09
-7.33362e-10
-6.85136e-12
6.63294e-09
-1.65297e-10
6.50338e-11
-5.27609e-09
5.29724e-09
-6.7874e-12
-1.43619e-11
4.47717e-09
-9.68519e-11
1.3015e-09
-5.18575e-10
8.67339e-11
-4.79628e-10
3.94284e-09
-4.7443e-09
1.28108e-09
-3.94115e-09
4.01242e-09
-7.11712e-10
-2.41375e-10
4.3415e-09
4.26049e-09
-5.27167e-09
4.39872e-09
-3.38753e-09
5.50541e-09
-1.0915e-09
-3.26464e-10
1.25051e-09
-6.64223e-11
7.04963e-10
3.51589e-12
3.85691e-09
-5.05072e-09
1.82851e-09
-6.347e-10
-2.49992e-09
-6.29313e-09
6.19645e-09
2.5966e-09
-4.94969e-09
4.94383e-09
-2.06695e-12
7.9191e-12
-5.35719e-09
1.92567e-09
5.45245e-09
1.59178e-10
-7.61264e-11
8.0955e-11
-1.64007e-10
-6.09045e-09
-3.01488e-09
6.60541e-09
-4.43237e-09
3.8311e-09
7.92738e-10
-1.91465e-10
-4.28208e-09
3.70218e-09
7.64948e-10
-1.85041e-10
-4.37333e-09
3.78078e-09
7.81567e-10
-1.89019e-10
-3.8215e-09
-3.30219e-10
-4.79718e-10
-2.53332e-09
-2.32309e-09
-2.13783e-09
-5.17155e-09
2.87504e-09
5.47511e-09
-1.44932e-09
1.15076e-09
-3.26812e-09
-3.48237e-09
3.99793e-09
1.20042e-10
1.75044e-10
-1.35907e-10
-4.27449e-09
-2.22165e-12
9.01008e-12
-2.38431e-10
-1.49931e-11
-7.9103e-09
5.99256e-09
-4.26659e-09
-4.22921e-09
4.73426e-09
-4.94788e-10
-1.02666e-11
-4.7425e-09
5.33062e-09
-5.71113e-10
-1.70017e-11
-4.41253e-09
4.1601e-09
4.58255e-09
2.78004e-09
-2.21497e-09
1.69575e-10
-5.75509e-11
1.73559e-10
2.30545e-10
-2.02179e-10
-5.40474e-09
6.20416e-09
-7.98663e-10
-7.61219e-13
4.91681e-09
-5.59018e-09
-1.06384e-10
2.41168e-10
3.22626e-09
-4.17299e-09
3.83573e-09
-2.88901e-09
-4.9333e-09
5.65054e-09
-7.15723e-10
-1.51346e-12
-6.57553e-09
6.76235e-09
-8.09712e-09
-2.86801e-12
7.09614e-12
5.04964e-09
-9.41699e-11
1.48823e-09
-2.14183e-10
-5.4353e-11
1.75254e-11
-1.98746e-11
1.8746e-11
-2.11975e-11
1.82248e-11
-2.06059e-11
-4.747e-09
-1.09754e-09
4.08435e-10
5.24026e-10
1.10055e-11
9.31822e-10
-6.71186e-12
-5.99996e-11
-2.71029e-10
1.16128e-11
5.72132e-14
3.50342e-09
3.13564e-09
-2.43663e-09
-4.20243e-09
-5.71693e-09
6.44679e-09
-7.46619e-10
1.67632e-11
3.93258e-09
2.18164e-09
-2.14122e-09
4.38179e-09
1.5295e-11
-1.28616e-11
5.5383e-10
3.2327e-10
-1.01013e-10
5.76026e-11
4.22243e-09
3.40502e-09
-3.42631e-09
-9.52804e-13
1.15613e-11
-2.13732e-09
1.7632e-09
3.21852e-09
2.57002e-09
5.27718e-10
-3.09774e-09
-4.32558e-09
3.68095e-09
8.57248e-10
-2.12616e-10
1.46911e-11
-1.96582e-11
1.51504e-11
-2.04479e-11
1.49967e-11
-2.01433e-11
1.86497e-10
-2.5346e-10
-4.69834e-09
4.05973e-09
8.40095e-10
-2.01483e-10
-5.14942e-09
1.00547e-09
-1.38134e-10
-5.33082e-09
1.04112e-09
-1.42668e-10
-5.25922e-09
1.02686e-09
-1.40972e-10
4.63746e-09
-7.49977e-11
4.64562e-11
3.68782e-09
-7.64242e-10
-4.9469e-09
2.02332e-09
-5.16105e-09
4.45781e-09
9.2405e-10
-2.2081e-10
1.29889e-10
4.40678e-10
-1.89139e-10
-1.75044e-10
2.02179e-10
4.80814e-09
-6.69863e-11
4.62664e-11
1.12918e-09
-3.76325e-09
-9.84244e-10
-5.97835e-13
1.17259e-11
-5.52924e-11
7.85382e-12
4.69706e-09
-4.99901e-09
3.99374e-10
-9.74192e-11
-8.58711e-09
4.33487e-09
7.4422e-09
5.25409e-09
-1.1409e-10
7.53806e-11
-4.64295e-09
-9.43715e-11
6.70708e-11
-4.95496e-09
-2.29175e-10
-9.19628e-11
5.61374e-10
-2.56591e-10
6.64581e-11
-1.71497e-10
6.36174e-11
-2.05273e-10
4.21564e-09
1.71314e-11
1.16488e-11
3.76026e-12
1.97562e-12
7.90844e-11
-2.04246e-10
2.68463e-10
-2.66123e-10
3.33553e-09
3.25153e-09
-2.91247e-09
9.17775e-11
-2.42422e-10
1.24462e-11
4.67685e-10
-4.14842e-10
-6.52892e-11
3.93909e-11
-5.29641e-11
1.19321e-09
-1.88175e-10
5.69371e-09
-9.04786e-12
4.04066e-11
4.17581e-09
-4.33689e-09
4.24864e-09
1.10206e-09
-1.4986e-10
5.2574e-09
3.84517e-10
1.94944e-09
4.73563e-10
-8.7617e-12
9.23319e-11
-1.022e-10
8.8586e-12
-1.02145e-11
2.58053e-09
1.42192e-09
-2.09742e-09
-1.90503e-09
-7.2363e-09
8.52475e-09
7.39867e-09
-8.68712e-09
4.25281e-10
-3.90505e-10
-2.23306e-11
-1.6215e-12
1.465e-11
-5.69581e-09
5.38984e-09
6.39104e-10
-3.33129e-10
7.21457e-11
-9.53657e-11
1.20481e-09
-1.61698e-10
2.2792e-10
2.72049e-10
-2.68463e-10
-4.85114e-09
5.53075e-09
-1.24886e-09
5.69245e-10
-6.32284e-09
-9.5589e-10
1.57634e-09
5.70239e-09
1.68503e-10
-3.74401e-10
-4.79815e-09
2.77803e-09
5.08959e-09
-3.06947e-09
3.66422e-09
-1.20334e-10
1.19038e-09
-2.47486e-09
2.74965e-09
-6.56792e-09
2.2799e-09
4.56869e-09
-2.92666e-09
-3.92193e-09
-1.74374e-11
2.66958e-11
3.92553e-09
-4.21525e-09
-3.24132e-09
3.53104e-09
4.30339e-09
-3.9242e-10
5.13083e-09
-1.168e-10
1.43276e-09
-5.49045e-09
3.44011e-09
3.28318e-09
-1.23284e-09
4.00195e-09
-3.23411e-11
-3.05387e-10
3.7833e-09
-3.47567e-09
2.82454e-09
-3.13217e-09
-3.99668e-09
7.76803e-10
-1.63126e-09
2.63452e-09
-2.72721e-09
1.72139e-09
-2.57861e-10
-1.72445e-09
2.60925e-10
3.97738e-09
3.09809e-09
-2.89696e-09
-4.17851e-09
-7.20654e-09
2.57724e-09
-2.41888e-09
-4.17286e-09
-2.96065e-09
4.05889e-09
3.07463e-09
4.89183e-09
-3.45546e-09
2.06705e-09
4.42799e-09
4.29011e-09
-2.66937e-09
-2.41069e-09
2.00178e-09
5.71243e-09
-2.36006e-12
-5.79236e-10
-4.02773e-09
5.54841e-10
-5.5015e-09
1.09057e-10
5.32658e-09
6.58665e-11
-3.63619e-09
2.92171e-09
-2.45992e-09
2.36522e-10
-3.33276e-10
3.22912e-10
2.01432e-09
-2.88831e-09
-1.82309e-10
-4.58707e-09
3.5971e-10
2.94975e-10
-4.03635e-09
-5.76249e-09
4.89059e-09
-2.18233e-09
3.05423e-09
2.264e-09
-2.16369e-09
-2.7836e-09
-5.973e-09
7.0405e-09
1.7161e-09
2.31519e-09
6.2755e-12
-3.57382e-11
4.54744e-10
-2.4537e-09
-6.1754e-09
5.86966e-09
2.75943e-09
9.31458e-10
3.55358e-09
-3.46752e-09
-1.01753e-09
-5.84959e-09
-2.71571e-09
-1.19336e-09
-7.25645e-09
5.94915e-09
2.50066e-09
-1.93802e-09
1.33461e-09
1.12926e-09
-3.82e-09
5.10275e-09
-2.41201e-09
1.4898e-09
-1.50028e-09
-3.2187e-09
1.41756e-10
-5.50664e-09
9.44467e-10
4.42042e-09
-2.98896e-09
3.73163e-09
-4.40219e-09
-4.57014e-09
1.74987e-09
3.94953e-09
3.73143e-09
3.87377e-09
-4.55073e-09
-3.05447e-09
6.0244e-10
-3.39974e-09
2.32473e-10
-7.185e-10
-3.48888e-09
3.44139e-09
-3.86323e-09
3.91072e-09
2.2813e-09
-3.02753e-09
-1.68338e-09
-3.82517e-09
-2.91019e-09
4.45055e-09
-2.84489e-10
6.05505e-09
6.96095e-10
-6.46666e-09
2.56761e-09
-2.63452e-09
-3.70274e-09
-3.32489e-09
3.58026e-09
-5.79627e-09
5.5409e-09
5.88958e-09
-4.19175e-09
-5.70937e-09
-3.4453e-09
3.26351e-09
4.60978e-09
-4.13441e-09
1.0235e-10
4.18786e-09
-1.55803e-10
3.24824e-09
7.84966e-10
-3.61536e-09
-4.17841e-10
6.25255e-09
-2.83971e-09
-3.13417e-09
3.52521e-09
-1.96558e-09
-5.80013e-09
9.14692e-10
3.812e-10
4.92917e-09
-1.14769e-09
5.14669e-09
-4.20942e-09
2.12027e-09
-3.05755e-09
-5.51009e-10
2.81059e-10
-9.696e-09
2.80859e-09
-1.79219e-09
8.6796e-09
-3.13828e-09
3.48276e-09
9.15918e-11
-1.49617e-09
-5.9329e-09
7.33748e-09
8.13869e-11
-5.41193e-09
-1.35609e-09
6.68664e-09
6.62663e-11
-1.16742e-09
-4.7099e-09
5.81106e-09
6.9471e-11
-1.21137e-09
-4.87607e-09
6.01796e-09
6.80089e-11
-1.19327e-09
-4.81032e-09
5.93558e-09
4.27374e-09
-4.13853e-09
8.13754e-11
-2.16584e-10
4.42347e-09
-4.28288e-09
8.43616e-11
-2.2495e-10
4.3647e-09
-4.22642e-09
8.32517e-11
-2.21534e-10
2.45655e-09
-2.47609e-09
3.75787e-09
-3.73833e-09
-3.39261e-09
-4.30258e-09
4.56102e-09
3.38889e-10
-3.9544e-09
-4.70644e-11
-3.49507e-09
6.67614e-10
-9.4185e-10
3.76931e-09
5.00988e-10
3.96644e-09
-2.52255e-09
2.61827e-09
-3.04975e-10
4.52395e-09
-4.43422e-09
3.86934e-09
-4.08469e-09
4.36623e-09
-5.36647e-10
-2.95831e-09
2.8434e-09
6.51558e-10
-3.79804e-09
4.06033e-09
-6.57676e-10
1.99682e-09
-5.58796e-09
7.93808e-09
-4.34695e-09
4.85551e-10
-6.11279e-09
4.86526e-11
4.25624e-09
5.94719e-10
7.98377e-09
-7.17025e-09
-3.26647e-09
-3.0231e-09
-6.11226e-09
2.73586e-09
8.22976e-09
-1.90624e-10
-8.47391e-09
4.3478e-10
-9.0649e-10
-4.05205e-09
1.16049e-09
8.93163e-11
-1.65512e-10
-8.11598e-11
1.57356e-10
3.22866e-10
5.22454e-09
1.09497e-09
-6.64237e-09
-2.12142e-09
7.0955e-11
2.42571e-09
-3.75249e-10
-1.83368e-09
2.78584e-09
3.53553e-09
-2.99922e-09
-3.77511e-09
-6.77925e-10
8.43629e-11
4.36867e-09
-2.35312e-10
-3.30196e-10
3.35981e-10
-1.31709e-09
-3.92984e-09
1.39595e-09
7.04305e-09
-2.52443e-09
-6.49647e-09
1.97785e-09
5.25194e-09
4.08641e-10
-6.66271e-09
1.00213e-09
2.50388e-09
7.33407e-10
-3.23729e-09
-3.62253e-09
7.14218e-09
2.87512e-09
-6.39476e-09
-2.27296e-10
1.58198e-10
4.40587e-09
3.04293e-09
-3.30246e-09
-4.14634e-09
4.21645e-09
-6.18203e-09
-2.3362e-09
5.21976e-10
2.80648e-09
-9.92251e-10
4.44081e-09
-4.13436e-09
1.29771e-10
-4.3622e-10
-3.15783e-09
3.70557e-09
5.1992e-09
-5.74694e-09
-2.95174e-09
3.6223e-09
4.92597e-09
-5.59653e-09
-3.47735e-09
4.02108e-09
5.7538e-09
-6.29753e-09
-2.83324e-09
3.37539e-09
4.63631e-09
-5.17846e-09
7.05121e-10
-4.4146e-09
4.60713e-09
-8.97651e-10
-3.77974e-09
4.46558e-09
6.39282e-09
-7.07867e-09
3.93987e-09
4.56439e-09
-4.06363e-09
-4.44064e-09
-3.03759e-09
7.06485e-09
3.01579e-09
-2.95841e-09
2.91247e-09
-3.11364e-10
3.30666e-10
1.88401e-10
-5.09713e-09
5.19027e-09
-2.81544e-10
1.66894e-09
-3.5761e-09
-1.95962e-09
3.86677e-09
6.52615e-09
-2.55386e-09
-6.49672e-09
4.68265e-09
-4.53538e-09
8.83369e-11
-2.3561e-10
2.99758e-10
6.87701e-10
-2.26345e-09
-3.3368e-09
3.01501e-09
2.58525e-09
4.32291e-09
-6.67956e-09
-4.40601e-09
6.76266e-09
-1.11861e-10
5.85822e-10
-1.07262e-11
-4.4747e-11
3.35926e-10
-2.80453e-10
-4.19501e-09
4.21999e-09
1.70992e-11
-4.20777e-11
-4.10361e-09
4.69699e-09
-4.47523e-09
5.22774e-09
2.62073e-09
-5.46696e-09
-2.3815e-09
3.61003e-09
5.55759e-09
-3.76562e-09
-3.83454e-09
4.46188e-09
-5.31093e-09
-5.569e-10
1.2859e-09
4.58193e-09
-6.53806e-09
-6.42306e-10
1.44637e-09
5.734e-09
-5.77385e-09
-6.61133e-10
1.44061e-09
4.99437e-09
-5.93168e-09
-6.02009e-10
1.37183e-09
5.16186e-09
-7.44079e-09
-7.85154e-10
1.66549e-09
6.56046e-09
1.00101e-09
-5.3179e-10
-6.16503e-09
-3.64547e-09
3.51698e-09
-4.68261e-09
4.8111e-09
-3.76769e-09
-1.28843e-09
-2.20538e-09
4.30791e-09
4.6312e-09
-6.73372e-09
3.99782e-09
-4.31678e-09
-2.94916e-09
5.85502e-10
4.09312e-10
-8.28974e-10
-1.6584e-10
2.28242e-09
5.79153e-09
-4.79457e-09
-5.10057e-09
-6.03171e-09
5.95958e-09
-1.78899e-11
9.00162e-11
6.07951e-09
-4.40028e-09
2.75217e-09
-4.2922e-09
-3.91842e-11
4.37237e-09
-4.09788e-11
3.77312e-09
-4.61942e-10
-3.20597e-09
-3.20016e-09
3.36112e-09
6.22204e-09
1.53984e-09
-3.183e-09
-4.57888e-09
6.51228e-09
1.39408e-09
-2.84827e-09
-5.05809e-09
2.69732e-09
-6.05993e-09
2.7382e-09
-1.82633e-09
-3.31296e-09
2.4011e-09
-3.41206e-09
-4.18325e-09
4.39516e-09
3.27425e-10
-6.13216e-09
4.1449e-09
1.65984e-09
1.44402e-09
3.00263e-10
4.01613e-09
3.05031e-10
-3.16689e-09
7.98212e-09
-4.84886e-09
-6.14814e-09
-2.54137e-09
-1.71474e-10
2.83449e-09
-6.24384e-10
1.28831e-09
6.0033e-09
-5.88454e-10
1.2305e-09
5.41337e-09
-5.44928e-10
1.15794e-09
4.81882e-09
-5.31088e-10
1.13473e-09
4.63587e-09
-5.40359e-10
1.15059e-09
4.74448e-09
-8.9647e-10
-9.45847e-10
-5.6035e-09
7.44582e-09
-2.84345e-09
2.69724e-09
1.98926e-10
-5.27141e-11
-3.68477e-09
7.34334e-10
3.21318e-09
-2.62744e-10
-4.09002e-09
4.26814e-09
6.19366e-09
-6.37178e-09
-3.2361e-09
3.49464e-09
4.84514e-09
-5.10368e-09
-3.30538e-09
3.56099e-09
4.95265e-09
-5.20827e-09
-3.35201e-09
3.60198e-09
5.02694e-09
-5.27691e-09
-3.72568e-09
3.946e-09
5.61395e-09
-5.83427e-09
3.82761e-09
2.98621e-09
-1.02228e-09
3.37152e-09
-4.40114e-09
4.81292e-09
5.74542e-09
-6.25961e-10
4.21811e-10
-5.54127e-09
4.61118e-09
1.45326e-10
-4.27096e-09
-3.83371e-09
-9.63971e-10
4.04053e-09
-6.05074e-09
-4.40399e-09
6.41421e-09
8.25961e-10
-4.86333e-09
4.06909e-11
1.58436e-09
-6.19954e-10
-5.47373e-09
4.50932e-09
-1.17294e-10
-2.43692e-09
2.55422e-09
-3.22873e-09
-1.80645e-09
6.30876e-09
-5.69567e-09
-2.1877e-09
-3.09385e-09
3.78689e-09
1.49466e-09
3.48619e-09
-3.4201e-09
3.10668e-09
-5.49224e-09
8.95376e-10
4.80218e-09
-2.05317e-10
-3.02813e-09
1.13576e-09
-6.05266e-09
5.23976e-09
2.29129e-10
-1.03731e-08
-6.54074e-09
9.67754e-09
3.2494e-09
-2.84773e-09
3.59615e-09
1.11827e-09
3.29889e-09
3.51625e-09
-2.46892e-09
3.62313e-09
-4.67045e-09
3.03824e-09
1.13009e-08
-1.12501e-09
-1.32141e-08
-5.64475e-09
3.93074e-09
5.0044e-09
-1.41946e-09
1.52063e-09
3.40788e-09
-3.50905e-09
1.74292e-09
-2.92588e-09
5.79438e-09
7.33162e-10
9.55612e-10
-9.56146e-10
-7.32628e-10
-5.49173e-09
-7.49689e-09
5.26782e-09
7.7208e-09
3.15949e-10
-3.05955e-10