/*--------------------------------*- C++ -*----------------------------------*\
  =========                 |
  \\      /  F ield         | OpenFOAM: The Open Source CFD Toolbox
   \\    /   O peration     | Website:  https://openfoam.org
    \\  /    A nd           | Version:  7
     \\/     M anipulation  |
\*---------------------------------------------------------------------------*/
FoamFile
{
    version     2.0;
    format      ascii;
    class       volScalarField;
    location    "106";
    object      p;
}
// * * * * * * * * * * * * * * * * * * * * * * * * * * * * * * * * * * * * * //

dimensions      [0 2 -2 0 0 0 0];

internalField   nonuniform List<scalar> 
591
(
0.000123829
0.000123845
0.00012385
0.000123795
0.000123799
0.00012387
0.000123855
0.000123834
0.000116959
0.000123854
0.000124042
0.000122795
0.00012384
0.000119684
0.000123834
0.000123875
0.000123836
0.000123884
0.000121911
0.000123216
0.000123816
-3.52292e-06
0.000124036
0.000123817
0.000123991
0.000123841
0.000123958
0.00012395
0.000123854
0.000123864
0.000124011
0.000123985
0.000124005
0.000124005
0.000124006
0.000123328
0.000124001
0.000123818
0.00012403
0.000123943
0.000123893
0.000123998
0.000123849
0.000123875
0.000123995
0.000124016
0.00011919
0.000124021
0.000123853
0.000123963
0.000123975
0.000124003
2.39479e-05
3.05942e-05
4.78406e-05
0.000123847
0.000124025
0.000124019
0.000124018
0.000123826
0.000123914
0.000123846
0.000123842
0.000123894
0.000122522
0.000123845
0.000123849
0.000124014
0.000120691
0.000123861
0.000123852
0.000124022
0.000124001
0.000124
0.000124005
0.000123981
0.000123821
0.000124019
0.000123823
0.000123764
0.000123595
0.000124023
0.000123982
0.000123971
0.000124031
0.000123835
0.000123918
0.000124013
0.000123976
0.000123727
0.000123987
0.000123943
0.000123953
0.000123826
0.000124029
0.000123984
0.000123527
0.000123426
0.000123603
0.000124036
0.000123943
0.000123878
0.000124042
0.00012379
0.000124043
0.000123847
0.000123843
0.000123984
0.000124037
0.00012404
0.000123933
0.000124014
0.00012386
0.000124016
0.000124033
0.000124022
0.000123977
0.000123967
0.000123539
0.000123945
0.000123847
0.000123837
0.000123923
0.000123823
0.000123997
0.000120151
0.000124043
0.000124022
0.000123593
0.000124007
0.000123835
0.000123519
0.000123984
0.000123972
0.00012401
0.000123852
0.000122585
0.000124039
0.000123837
0.000123529
0.000123604
0.000123936
0.000124025
0.000124032
0.000124024
7.61893e-06
3.68057e-06
2.07335e-06
3.81648e-05
3.67043e-05
5.6634e-06
3.83179e-05
1.57432e-05
3.73018e-05
1.78102e-05
0.000123847
0.000123837
0.000124031
0.00012402
0.000124029
0.000124028
0.00012402
0.000124015
0.000124032
0.000124028
0.000123998
0.000124028
0.000124024
0.000124032
0.000123979
0.000123352
0.000124031
0.000122089
0.000124019
0.00012401
0.000123964
0.000123855
0.00012401
0.000124027
0.000124029
0.000123448
0.000122434
0.000123008
0.000123397
0.000124014
0.000124022
0.000123911
0.000123815
0.000124018
0.000122929
0.000123255
0.000123815
0.000124007
0.000123705
0.000124001
0.000124027
0.000124003
0.000123672
0.000123806
0.000124024
0.000124027
0.000124029
0.000123832
0.000124008
0.000123828
0.000124035
0.00012384
0.000123839
0.000124031
0.00012363
0.000123806
0.00012385
0.000123491
0.000123986
0.000123636
0.000123925
0.000123946
0.000124017
0.000123402
0.000123912
0.0001238
0.000123799
0.000123981
0.000123747
0.000123895
0.000123813
0.000123729
0.000123791
0.000124035
0.000123794
0.000124034
0.000123891
0.000124015
0.000123855
0.000123857
0.000124038
0.00012374
0.000124022
0.000123729
0.000123779
0.000123844
0.000123822
0.00012386
0.000123848
0.000123617
0.000123819
0.000123775
0.000123983
0.000123839
0.0001237
0.000123975
0.000123246
0.000123817
0.000123136
0.000123025
0.00012383
0.000123793
0.000123833
0.000123829
0.000123806
0.000124038
0.000123875
0.000123944
0.000123892
0.000123879
0.000123891
0.000123993
0.000123642
0.000124033
0.000123677
0.000123563
0.000123864
0.000124013
0.000123589
0.000124026
0.00012394
0.000123943
0.000123974
0.000123856
0.000123833
0.000123673
0.000123787
0.000123831
0.000123871
0.000123935
0.000123994
0.000124013
0.000124019
0.000123772
0.000123882
0.000124005
0.000124013
0.000124007
0.000123797
0.000124021
0.000123898
0.000124012
0.000123758
0.000124021
0.000123744
0.000123997
0.000123888
0.000123832
1.16435e-05
2.19156e-05
0.000123765
0.000123852
0.000124037
0.000123778
0.000124036
0.000123862
0.000124021
0.000123997
0.000123726
0.000123991
0.000123819
0.000124035
0.000123855
-2.09478e-07
0.000123735
0.000124002
0.000123997
0.000123683
0.000123851
0.000123896
0.000123991
0.000123738
0.000124014
0.000123894
0.000123847
0.000123989
0.000123789
0.000123713
0.000123753
0.000123858
4.7498e-05
0.000124009
0.000123986
0.000123845
0.000124016
0.000123922
0.000123867
0.000123851
0.000123834
0.000124
0.000123862
0.000123764
0.000123902
0.00012377
0.000124014
0.000123777
0.000123841
0.000123873
0.000123955
1.98753e-05
2.73132e-05
3.43003e-05
9.64074e-06
0.000123818
3.30609e-05
2.60193e-05
0.000124011
1.90759e-05
1.70317e-05
3.81892e-05
7.57768e-06
3.99401e-05
5.60631e-06
4.08335e-05
3.69018e-06
4.28153e-05
1.87758e-06
3.64147e-05
2.31974e-05
2.94478e-05
1.49939e-05
0.000123703
0.000124023
0.000123885
0.000123901
0.000120849
0.000123937
0.000124018
0.000123987
0.000123782
0.000124023
0.000124031
0.000124002
0.000123999
0.000123761
0.000123834
0.000124016
0.000124022
0.000123856
0.000123715
0.00012381
0.000123367
0.000123818
0.000124041
0.000124006
0.000123846
0.00012403
0.000123685
0.000123863
0.000123645
0.000122805
0.000124001
0.000124013
0.00012404
0.000123701
0.000123902
0.000123643
0.000123861
0.000123853
2.60547e-05
2.18803e-05
3.30401e-05
1.16196e-05
0.000124042
0.000123694
1.98222e-05
2.82619e-05
3.56067e-05
9.58951e-06
0.000123868
0.00012394
0.00012381
0.000123817
0.000123836
0.000123985
0.000123773
0.000123996
0.00012395
0.000123061
0.000123819
0.000123785
5.93896e-05
0.000123187
0.000124028
0.00012383
0.000123717
0.000124017
0.00012402
0.000123809
0.000123608
0.000123843
0.000123881
0.000123693
0.000123973
0.000122855
0.000123763
0.000123792
0.000123993
0.000100856
0.000123839
0.000123448
0.000123753
0.000124028
0.000123655
1.08974e-05
2.11162e-05
3.53726e-05
2.82116e-05
1.36634e-05
5.63403e-08
4.20908e-05
2.69158e-06
4.01633e-05
4.76355e-06
3.94208e-05
6.81622e-06
3.86285e-05
8.85879e-06
3.7295e-05
1.36751e-05
3.17321e-05
3.05958e-05
2.3943e-05
2.52653e-05
1.77673e-05
1.29397e-05
1.57093e-05
0.000124022
0.000102366
0.000123817
0.000123741
0.000124026
0.000123916
0.000124033
0.000123746
0.000123875
0.000123992
0.000123987
0.000123996
0.000123744
0.00012384
0.000123762
0.00012395
0.000123775
0.000124027
0.000123908
0.000123736
0.000123745
0.000123851
0.000123845
0.000124033
0.000124024
0.000124038
0.000123991
0.000124039
0.000123661
0.000123841
0.000124028
0.000123786
0.000123919
0.000123849
0.000123903
0.000123728
0.000123991
0.00012399
0.000123303
0.000121332
0.00012303
0.000123575
0.000123839
0.000123669
0.000123853
0.000124034
0.000124007
0.000123846
0.00012346
0.000123438
0.000124027
0.000123993
0.000123866
0.000123958
0.000123502
5.83076e-05
4.012e-05
0.000123961
0.00012398
0.000123344
0.000122706
0.000123827
0.000123589
0.000123335
0.000123836
0.000123763
0.000124025
0.000123869
0.000123903
0.000118962
5.44621e-05
0.000123872
8.12561e-05
1.86267e-06
-3.8033e-07
0.000123836
0.000123804
0.000123993
0.000124037
0.000124032
0.000124027
0.000124034
0.000123822
-2.30631e-06
0.000122781
0.000123865
0.000123968
0.000121967
0.000124026
0.000124026
0.000122251
0.000123943
0.000123994
0.000121649
0.000124037
7.63204e-05
0.000124024
0.000123763
0.000123986
0.000122332
0.000123547
0.000123627
0.000123873
0.000124039
0.000123978
0.000124025
0.000124039
0.000123823
0.000116131
)
;

boundaryField
{
    back
    {
        type            empty;
    }
    ingreso
    {
        type            zeroGradient;
    }
    salida
    {
        type            fixedValue;
        value           uniform 0;
    }
    front
    {
        type            empty;
    }
    defaultFaces
    {
        type            zeroGradient;
    }
}


// ************************************************************************* //
