/*--------------------------------*- C++ -*----------------------------------*\
  =========                 |
  \\      /  F ield         | OpenFOAM: The Open Source CFD Toolbox
   \\    /   O peration     | Website:  https://openfoam.org
    \\  /    A nd           | Version:  7
     \\/     M anipulation  |
\*---------------------------------------------------------------------------*/
FoamFile
{
    version     2.0;
    format      ascii;
    class       volScalarField;
    location    "76.5";
    object      p;
}
// * * * * * * * * * * * * * * * * * * * * * * * * * * * * * * * * * * * * * //

dimensions      [0 2 -2 0 0 0 0];

internalField   nonuniform List<scalar> 
591
(
0.000123881
0.000123898
0.0001239
0.000123854
0.000123857
0.000123926
0.000123919
0.00012389
0.000116987
0.000123908
0.000124089
0.000122828
0.000123895
0.000119727
0.00012389
0.000123936
0.000123875
0.000123934
0.000121954
0.000123268
0.000123871
-3.52536e-06
0.000124086
0.000123873
0.000124044
0.000123895
0.000123999
0.000124004
0.000123908
0.000123915
0.000124063
0.000124038
0.000124058
0.000124057
0.000124059
0.000123382
0.000124054
0.000123874
0.000124081
0.000124
0.000123959
0.000124051
0.000123902
0.000123924
0.000124048
0.000124068
0.000119234
0.000124072
0.000123907
0.000124025
0.000124018
0.00012405
2.39467e-05
3.05914e-05
4.7846e-05
0.0001239
0.000124076
0.000124065
0.000124069
0.000123881
0.000123968
0.000123898
0.000123896
0.000123945
0.000122567
0.000123898
0.000123901
0.000124067
0.00012072
0.000123912
0.000123907
0.000124073
0.000124043
0.000124052
0.000124058
0.000124034
0.000123875
0.00012407
0.000123877
0.000123814
0.000123654
0.000124075
0.000124035
0.000124015
0.000124082
0.000123888
0.000123978
0.000124065
0.000124027
0.000123779
0.000124039
0.000123986
0.000124002
0.00012388
0.00012408
0.000124035
0.000123584
0.000123484
0.000123646
0.000124086
0.000123993
0.000123908
0.000124091
0.000123851
0.000124091
0.000123899
0.000123897
0.000124039
0.000124083
0.000124086
0.000123974
0.000124062
0.000123913
0.000124067
0.000124084
0.000124065
0.000124019
0.000124013
0.000123579
0.000123987
0.000123899
0.000123893
0.000123979
0.000123879
0.000124053
0.000120198
0.00012409
0.000124067
0.000123651
0.000124059
0.00012389
0.000123577
0.000124026
0.000124021
0.000124062
0.000123904
0.000122626
0.000124089
0.000123892
0.000123575
0.000123641
0.000123988
0.000124072
0.000124082
0.000124076
7.61875e-06
3.68006e-06
2.07217e-06
3.81637e-05
3.67036e-05
5.66295e-06
3.83148e-05
1.57438e-05
3.72963e-05
1.78107e-05
0.000123899
0.00012389
0.000124078
0.000124072
0.000124079
0.000124078
0.00012407
0.000124066
0.000124078
0.000124077
0.000124041
0.000124079
0.000124075
0.000124082
0.00012402
0.000123392
0.000124082
0.000122121
0.000124063
0.000124062
0.00012401
0.000123909
0.000124062
0.000124076
0.000124075
0.000123489
0.000122471
0.000123047
0.000123442
0.000124066
0.000124073
0.000123981
0.00012387
0.000124068
0.000122966
0.000123299
0.000123871
0.00012406
0.000123755
0.000124054
0.000124071
0.000124045
0.000123724
0.000123861
0.000124069
0.000124075
0.000124073
0.000123871
0.000124056
0.000123868
0.000124084
0.000123893
0.000123892
0.00012408
0.000123685
0.000123862
0.000123902
0.00012354
0.000124032
0.000123686
0.000123974
0.000123987
0.00012406
0.000123454
0.000123963
0.000123855
0.000123856
0.000124035
0.000123795
0.000123949
0.000123863
0.000123774
0.000123848
0.000124084
0.00012384
0.000124081
0.00012393
0.000124059
0.000123905
0.000123906
0.000124087
0.000123797
0.000124073
0.000123786
0.000123834
0.000123897
0.000123877
0.000123914
0.0001239
0.00012367
0.000123874
0.000123826
0.000124043
0.000123893
0.000123745
0.00012403
0.000123295
0.000123854
0.000123189
0.000123072
0.000123884
0.000123849
0.000123886
0.000123883
0.000123853
0.000124085
0.000123929
0.000124011
0.000123941
0.000123933
0.000123946
0.000124038
0.000123688
0.000124081
0.000123724
0.000123614
0.000123917
0.000124057
0.000123636
0.000124077
0.000123985
0.000124007
0.000124033
0.000123908
0.00012388
0.000123712
0.000123843
0.000123874
0.000123924
0.000123981
0.000124047
0.000124065
0.00012407
0.000123827
0.000123934
0.000124058
0.000124065
0.00012406
0.000123852
0.000124072
0.000123946
0.000124055
0.000123814
0.000124072
0.000123802
0.000124049
0.000123938
0.00012388
1.1644e-05
2.19153e-05
0.000123829
0.000123905
0.000124084
0.000123834
0.000124084
0.000123915
0.000124072
0.00012405
0.000123785
0.000124044
0.000123873
0.00012408
0.000123907
-2.09621e-07
0.000123772
0.000124055
0.00012405
0.000123746
0.000123896
0.000123938
0.000124045
0.000123802
0.000124066
0.00012395
0.000123899
0.000124043
0.000123849
0.000123776
0.000123811
0.000123909
4.74802e-05
0.000124061
0.000124043
0.000123898
0.000124067
0.000123978
0.000123921
0.000123903
0.00012389
0.000124053
0.000123916
0.000123823
0.000123948
0.000123827
0.000124066
0.000123835
0.000123891
0.000123927
0.000124012
1.9876e-05
2.73368e-05
3.42984e-05
9.64091e-06
0.000123874
3.30571e-05
2.60045e-05
0.000124063
1.90768e-05
1.70324e-05
3.81887e-05
7.57739e-06
3.99409e-05
5.60574e-06
4.08355e-05
3.68939e-06
4.28182e-05
1.87613e-06
3.64095e-05
2.32011e-05
2.94532e-05
1.49946e-05
0.000123755
0.000124074
0.000123942
0.000123949
0.000120895
0.000123993
0.000124069
0.00012404
0.000123841
0.000124075
0.000124076
0.000124055
0.000124052
0.000123816
0.00012389
0.00012406
0.000124066
0.000123903
0.000123772
0.000123843
0.000123407
0.000123859
0.000124088
0.000124059
0.000123902
0.000124082
0.000123746
0.000123926
0.000123705
0.000122858
0.000124053
0.000124065
0.000124087
0.000123759
0.000123946
0.000123704
0.000123914
0.000123905
2.6046e-05
2.18803e-05
3.30388e-05
1.16199e-05
0.000124091
0.000123752
1.98225e-05
2.82578e-05
3.56054e-05
9.58952e-06
0.000123907
0.000124003
0.000123857
0.000123868
0.000123891
0.000124026
0.000123817
0.000124049
0.000123991
0.0001231
0.000123871
0.000123838
5.93636e-05
0.000123225
0.000124079
0.000123884
0.000123779
0.000124068
0.000124071
0.000123866
0.000123666
0.000123894
0.000123955
0.000123748
0.000124025
0.000122907
0.000123827
0.000123846
0.000124034
0.000100881
0.000123882
0.000123486
0.000123813
0.00012408
0.000123714
1.08977e-05
2.11176e-05
3.53702e-05
2.81941e-05
1.36639e-05
5.49786e-08
4.2084e-05
2.69047e-06
4.01621e-05
4.76293e-06
3.94204e-05
6.81598e-06
3.86273e-05
8.85892e-06
3.7293e-05
1.3676e-05
3.17308e-05
3.0587e-05
2.39404e-05
2.52804e-05
1.77677e-05
1.29403e-05
1.57098e-05
0.000124074
0.000102412
0.000123873
0.000123805
0.000124077
0.00012397
0.000124083
0.000123799
0.000123928
0.000124045
0.00012404
0.000124046
0.0001238
0.000123897
0.000123802
0.000124006
0.000123835
0.000124078
0.000123947
0.000123779
0.000123784
0.000123908
0.0001239
0.000124084
0.000124075
0.000124085
0.000124044
0.000124088
0.000123715
0.000123895
0.000124079
0.00012384
0.000123969
0.0001239
0.000123943
0.000123782
0.000124044
0.000124042
0.000123356
0.000121369
0.000123083
0.000123629
0.000123895
0.000123726
0.000123907
0.000124084
0.000124049
0.000123901
0.000123516
0.000123495
0.000124079
0.000124046
0.000123915
0.000124012
0.000123555
5.83199e-05
4.01248e-05
0.000124017
0.000124035
0.000123397
0.000122745
0.000123882
0.000123627
0.000123374
0.000123892
0.0001238
0.000124069
0.000123925
0.000123954
0.000119005
5.4482e-05
0.000123923
8.12432e-05
1.86187e-06
-3.80979e-07
0.000123891
0.00012386
0.000124045
0.000124086
0.000124076
0.000124078
0.000124079
0.000123877
-2.30754e-06
0.000122827
0.000123916
0.000124024
0.000122013
0.000124077
0.000124078
0.000122284
0.000123992
0.000124047
0.000121691
0.000124082
7.63468e-05
0.000124076
0.000123734
0.000124039
0.000122374
0.000123604
0.000123666
0.000123925
0.000124085
0.000124031
0.000124077
0.000124088
0.000123893
0.000116175
)
;

boundaryField
{
    back
    {
        type            empty;
    }
    ingreso
    {
        type            zeroGradient;
    }
    salida
    {
        type            fixedValue;
        value           uniform 0;
    }
    front
    {
        type            empty;
    }
    defaultFaces
    {
        type            zeroGradient;
    }
}


// ************************************************************************* //
