/*--------------------------------*- C++ -*----------------------------------*\
  =========                 |
  \\      /  F ield         | OpenFOAM: The Open Source CFD Toolbox
   \\    /   O peration     | Website:  https://openfoam.org
    \\  /    A nd           | Version:  8
     \\/     M anipulation  |
\*---------------------------------------------------------------------------*/
FoamFile
{
    version     2.0;
    format      ascii;
    class       volScalarField;
    location    "6.8";
    object      p;
}
// * * * * * * * * * * * * * * * * * * * * * * * * * * * * * * * * * * * * * //

dimensions      [0 2 -2 0 0 0 0];

internalField   nonuniform List<scalar> 
17372
(
3.73659e-06
7.68908e-06
2.15666e-06
5.19473e-06
7.71862e-06
7.69163e-06
1.5022e-06
7.4385e-06
1.16094e-06
7.36486e-06
3.52285e-06
7.70553e-06
7.3771e-06
7.69076e-06
1.35481e-06
4.96127e-06
7.7079e-06
7.67764e-06
7.70109e-06
7.35323e-06
1.30966e-06
5.34889e-07
3.89034e-06
7.36433e-06
7.69531e-06
1.26275e-06
4.16614e-06
2.23231e-06
8.04166e-06
4.05482e-06
1.26811e-06
7.72389e-06
3.94457e-06
1.21698e-06
7.18355e-06
5.02988e-06
1.16806e-06
7.69467e-06
1.38899e-06
6.73922e-06
4.27734e-06
7.52027e-07
2.20132e-06
7.41101e-06
5.85157e-06
3.83667e-06
7.71359e-06
4.45419e-06
1.1233e-06
4.86715e-06
7.69414e-06
1.40086e-06
2.45269e-06
2.10041e-06
7.68205e-06
7.71042e-06
1.07212e-06
2.35454e-07
1.37507e-06
7.46622e-06
4.90186e-06
7.47018e-06
3.99942e-06
5.36637e-06
2.30059e-06
7.45527e-06
1.42029e-06
2.59713e-07
1.33697e-07
7.68779e-06
7.52306e-06
3.35131e-06
1.67903e-06
4.99482e-06
6.85517e-06
5.85053e-06
1.80338e-06
5.84735e-06
6.12769e-06
6.32983e-06
7.70775e-06
1.58174e-06
1.53563e-06
7.71882e-06
7.70345e-06
5.77699e-06
4.91858e-06
5.32863e-06
1.02667e-06
7.5652e-06
5.07135e-07
7.91492e-07
7.50364e-06
7.68932e-06
7.4875e-06
4.38844e-06
7.6869e-06
7.71635e-06
7.6848e-06
7.41266e-06
7.55679e-06
4.03523e-06
7.69128e-06
7.47088e-06
1.48276e-06
9.32562e-07
4.38538e-06
7.03206e-06
7.71684e-06
4.14709e-06
2.21324e-07
7.63935e-06
4.2587e-06
4.76072e-06
1.1075e-06
5.55237e-07
4.37019e-06
8.86993e-07
5.89257e-07
4.48193e-06
1.21408e-06
4.59383e-06
1.32154e-06
1.01825e-06
7.68388e-06
1.42883e-06
2.51612e-06
7.48241e-06
7.70956e-06
4.70529e-06
1.53663e-06
2.62364e-06
4.11041e-06
4.81443e-06
2.40797e-06
7.48505e-06
3.58877e-06
2.29918e-06
6.44865e-06
7.71449e-06
7.43469e-06
2.18991e-06
2.02639e-06
1.64465e-06
7.52384e-06
1.91616e-06
1.80741e-06
7.70283e-06
7.41124e-06
5.15147e-06
6.20669e-07
5.17075e-06
2.94912e-07
1.47482e-06
7.6431e-06
1.65001e-06
5.55498e-06
7.71719e-06
7.48308e-06
3.92451e-06
1.59055e-06
7.71513e-06
1.95978e-06
7.67714e-06
4.49974e-06
7.45432e-06
4.44442e-06
7.63313e-06
5.57348e-07
4.75842e-06
1.4988e-07
7.54039e-07
5.47563e-06
7.63017e-06
2.73138e-06
1.98773e-06
1.86238e-06
7.3422e-06
7.45874e-06
7.71172e-06
7.26363e-06
3.68178e-06
7.57806e-06
5.72067e-07
2.29124e-06
1.99497e-06
5.89974e-07
7.72442e-06
1.4785e-07
7.724e-06
3.99423e-07
6.05415e-06
1.10888e-06
7.55114e-06
4.64932e-06
7.72784e-06
4.23131e-06
8.81402e-07
7.67214e-06
6.92327e-06
7.72863e-06
7.43759e-06
7.70911e-06
2.47507e-06
2.8979e-07
7.71821e-06
3.72874e-06
7.49322e-06
5.72889e-06
1.75196e-06
4.16144e-06
4.22172e-06
3.8914e-06
4.05757e-06
7.72058e-06
8.35852e-07
3.88597e-06
6.83928e-06
7.56753e-06
3.69959e-07
2.34572e-06
7.44641e-06
7.72657e-06
7.62435e-06
1.69882e-06
7.70969e-06
4.86259e-06
7.18365e-06
7.46186e-06
3.81465e-06
7.69736e-06
3.77855e-06
7.52808e-06
6.14114e-06
6.11264e-06
7.8079e-06
7.4675e-06
8.02749e-07
1.50071e-07
2.52124e-06
2.57396e-06
5.05063e-06
7.71779e-06
7.66437e-06
7.3601e-06
4.61098e-06
7.69068e-06
2.39917e-06
3.50727e-07
7.71647e-06
7.7114e-06
2.58024e-06
1.34026e-07
7.47053e-07
7.71664e-06
3.9574e-06
2.89581e-06
7.7128e-06
1.92963e-06
7.66631e-06
4.99096e-07
6.92859e-07
7.68228e-06
7.70971e-06
7.71014e-06
7.70923e-06
4.74956e-06
7.6495e-06
6.8439e-07
7.73013e-06
6.62161e-06
4.66662e-06
7.49208e-06
7.45835e-06
7.68242e-06
5.1899e-06
4.53774e-06
7.61217e-06
7.69951e-06
7.45772e-06
7.68616e-06
7.72513e-06
6.05348e-06
7.7305e-06
4.33285e-06
6.27907e-06
4.62911e-06
1.56867e-06
1.01338e-06
7.54074e-06
3.62191e-06
7.32303e-06
3.70426e-06
3.67538e-06
7.49532e-06
1.74095e-06
5.704e-06
7.62127e-06
6.21769e-06
5.66475e-07
4.32852e-07
7.73076e-06
1.04987e-06
7.72928e-06
7.71099e-06
7.39101e-06
6.73951e-06
3.67891e-06
1.21435e-06
7.65534e-06
6.26927e-06
7.66375e-06
3.95005e-06
7.73064e-06
7.43503e-06
7.35225e-06
4.77726e-06
7.62293e-06
7.69933e-06
8.43155e-07
6.50635e-06
7.48743e-06
1.86153e-06
7.59466e-06
6.90786e-06
7.47883e-06
7.50543e-06
7.73073e-06
7.62092e-06
5.82303e-06
2.1344e-06
7.13934e-06
7.71371e-06
1.53602e-06
3.05507e-06
1.21017e-06
7.73031e-06
1.78326e-06
1.8807e-06
7.64421e-06
2.04996e-06
7.61825e-06
7.25678e-06
3.84724e-06
5.75909e-07
2.09395e-06
7.7249e-06
5.44178e-07
7.92986e-07
6.45405e-06
7.72983e-06
7.37301e-06
7.72581e-06
7.85912e-07
1.76909e-06
7.71755e-06
7.34465e-06
4.93606e-06
7.72927e-06
1.32389e-06
7.64811e-06
7.72828e-06
1.93891e-06
1.65816e-06
1.43856e-06
7.72776e-06
7.70849e-06
7.42019e-06
1.54722e-06
7.63914e-06
7.00433e-06
7.71045e-06
7.71406e-06
7.60388e-06
7.08955e-06
7.72687e-06
5.99028e-07
6.43276e-06
7.5251e-06
7.71108e-06
7.72745e-06
3.59105e-06
7.37394e-06
4.4259e-06
7.71838e-06
7.49656e-06
4.79429e-06
3.15491e-06
7.47585e-06
7.43385e-06
7.49329e-06
7.72109e-06
4.44402e-06
6.50235e-06
7.71941e-06
3.1764e-07
7.38573e-06
7.70005e-06
7.71104e-06
7.67925e-06
3.16376e-06
7.53514e-06
7.54124e-06
4.94093e-06
1.85333e-06
1.79815e-06
7.50334e-06
1.75029e-07
7.70318e-06
6.20076e-06
7.71884e-06
7.10821e-06
1.94791e-07
2.23567e-06
1.97084e-06
7.70959e-06
4.83238e-06
7.72307e-06
6.42417e-06
5.8302e-06
7.55288e-06
7.74073e-06
2.03096e-06
7.58305e-06
1.82533e-06
6.4878e-06
7.56123e-06
8.35878e-07
7.09056e-06
7.31271e-06
7.44369e-06
6.39133e-06
2.90123e-06
4.88851e-06
1.1323e-06
6.61257e-06
7.48666e-06
3.0778e-06
7.816e-06
7.7056e-06
7.44905e-06
7.72482e-06
7.24857e-06
7.65129e-06
7.71018e-06
7.45391e-06
7.72023e-06
1.84582e-07
2.90932e-06
7.50341e-06
7.70404e-06
7.71003e-06
1.55302e-06
1.62977e-06
9.023e-07
7.71389e-06
7.73031e-06
7.44531e-06
7.15342e-06
7.32229e-06
7.49342e-06
4.84213e-06
7.49606e-06
3.27645e-06
2.06003e-07
3.22379e-06
7.62813e-06
5.70024e-06
7.67068e-06
4.34795e-06
1.44944e-06
6.39268e-06
7.69999e-06
7.64294e-06
7.45042e-06
7.63157e-06
4.74872e-07
7.72056e-06
1.54445e-06
7.73066e-06
4.82082e-06
6.01503e-06
7.38823e-06
1.15673e-06
7.56847e-06
7.55093e-06
9.76118e-07
7.72243e-06
7.71127e-06
5.88662e-07
5.11997e-06
7.51362e-08
7.46599e-07
2.08044e-06
4.37981e-07
7.72449e-06
4.31436e-06
7.71903e-06
7.6152e-06
7.48706e-06
4.55539e-06
6.93665e-07
7.723e-06
7.66076e-06
7.73076e-06
7.08113e-07
7.72525e-06
7.62688e-06
6.98314e-07
7.56438e-06
1.80999e-06
4.57302e-06
3.42187e-06
7.46408e-06
5.00001e-06
5.89158e-07
7.5379e-06
4.82108e-06
5.97501e-06
4.64156e-06
7.62505e-06
7.49297e-06
2.12379e-06
7.73054e-06
7.64406e-06
7.72121e-06
3.38381e-06
5.06981e-06
7.63249e-06
7.4315e-06
4.75026e-06
1.42684e-07
7.68006e-06
6.01452e-06
4.86443e-06
2.52268e-06
4.44777e-06
7.73057e-06
4.00382e-06
7.51613e-06
7.26219e-07
4.85928e-06
7.68011e-06
7.40683e-06
7.333e-06
7.67674e-06
7.6025e-06
7.66896e-06
7.57816e-06
4.96854e-06
5.82934e-06
7.02425e-06
7.72113e-06
4.96354e-07
4.99506e-06
7.6973e-06
7.71799e-06
7.67121e-06
7.73009e-06
5.07872e-06
4.89654e-06
2.18471e-06
3.84676e-06
3.00823e-06
4.36754e-07
7.47898e-06
1.68479e-06
7.70797e-06
5.1892e-06
6.33735e-07
1.01224e-06
6.15055e-06
7.52125e-06
7.72672e-06
5.29776e-06
6.18134e-06
7.72953e-06
4.2618e-06
1.77253e-06
7.69437e-06
5.46164e-06
1.57233e-06
3.3296e-06
7.0372e-06
5.98281e-06
6.76055e-06
7.21949e-06
1.57657e-06
7.43215e-06
5.48912e-06
6.92099e-06
7.70396e-06
7.81377e-06
7.22968e-06
7.63297e-06
3.49013e-06
7.69685e-06
7.7287e-06
8.07807e-07
6.00757e-07
5.01201e-06
3.30281e-06
7.50547e-06
5.10228e-06
7.10739e-06
7.88937e-06
7.6987e-06
7.70985e-06
5.34505e-06
9.22677e-07
5.65442e-07
7.67547e-06
7.21813e-06
7.72802e-06
7.64315e-06
7.61475e-06
4.59158e-06
1.51879e-06
4.70656e-06
7.02848e-07
4.20295e-06
5.93665e-06
2.28034e-06
4.88122e-06
4.55705e-06
4.27272e-06
7.57117e-06
1.13471e-06
7.66266e-06
7.44245e-06
7.67609e-06
7.45238e-06
3.06589e-07
7.69576e-06
8.05937e-07
3.27464e-06
7.50334e-06
7.5528e-07
7.34393e-06
2.24432e-06
7.49618e-06
7.46204e-06
7.61475e-06
9.14702e-07
7.71503e-06
7.46699e-06
2.01249e-06
5.88312e-06
1.50069e-07
7.67011e-06
6.76256e-06
7.87396e-06
7.41552e-06
8.21247e-07
5.83043e-06
5.98994e-06
5.6785e-06
7.45109e-06
7.70158e-06
6.06897e-06
7.6942e-06
7.12636e-06
7.63435e-06
6.04542e-06
7.73007e-06
7.34117e-06
3.5967e-06
1.55457e-07
2.83838e-06
2.39547e-06
4.10606e-06
1.44569e-06
7.56438e-06
6.75176e-06
7.65429e-06
5.83762e-06
7.69263e-06
9.80666e-07
7.35152e-06
4.69197e-06
6.03779e-07
1.3646e-06
7.6956e-06
5.95274e-06
2.18015e-06
7.6353e-06
7.68303e-06
4.51547e-06
1.58507e-07
4.29628e-06
6.0082e-06
4.72209e-06
5.77753e-06
7.71215e-06
7.59384e-06
7.21868e-08
7.53892e-06
7.66958e-06
6.55503e-07
7.69803e-06
1.7134e-06
7.75832e-08
7.68992e-06
7.68487e-06
7.96979e-08
3.6346e-06
7.69552e-06
7.07176e-06
1.30249e-06
3.18393e-06
4.80542e-06
3.21331e-06
5.72478e-06
7.71202e-06
4.11036e-06
5.20874e-06
2.7011e-07
6.56941e-06
9.17804e-07
7.68666e-06
1.95673e-06
4.54837e-06
7.65645e-06
7.1637e-06
3.91917e-06
1.12261e-06
7.72526e-06
7.69362e-06
6.92802e-06
6.96345e-06
7.5016e-06
5.17807e-06
4.9164e-06
2.18396e-06
7.68275e-06
7.61514e-06
6.24078e-07
4.89355e-06
7.72597e-06
3.70256e-06
5.89645e-06
7.48161e-06
7.65361e-06
7.67964e-06
5.77196e-06
7.7243e-06
7.71499e-06
7.62603e-06
7.67146e-06
2.40881e-06
2.35367e-06
7.72526e-06
5.58925e-06
7.55707e-06
7.3553e-06
7.67603e-06
5.41511e-06
5.71728e-06
7.71238e-06
7.53452e-06
4.69608e-06
5.0249e-06
7.5892e-06
5.99025e-06
7.5932e-06
6.96663e-07
3.00785e-06
4.17565e-07
1.67675e-06
5.92475e-06
7.34198e-06
7.66944e-06
4.40969e-06
7.4214e-06
1.87921e-06
7.57151e-06
4.09126e-06
7.61807e-06
6.54217e-07
1.37833e-06
7.72527e-06
4.68141e-06
5.65806e-06
4.59289e-06
7.56044e-06
6.13853e-06
7.70939e-06
1.57387e-06
7.66571e-06
7.86116e-07
4.54176e-06
2.71174e-06
7.53879e-06
1.90079e-06
7.63977e-06
7.50164e-06
5.08759e-07
7.58545e-06
1.87965e-06
7.5797e-06
7.65755e-06
7.0215e-06
7.90446e-07
7.64958e-06
7.48109e-06
7.39891e-06
6.88617e-06
7.21553e-06
6.715e-06
3.55687e-06
1.77624e-06
3.06996e-06
7.27821e-06
7.49021e-06
7.69905e-06
5.03855e-07
5.17889e-06
3.06337e-06
5.62548e-06
7.49785e-06
7.47111e-06
7.72015e-06
3.41429e-06
1.40729e-06
7.50315e-06
7.62487e-06
6.79418e-07
5.31657e-06
2.21196e-06
4.66145e-07
7.08827e-06
7.57343e-06
7.68012e-06
7.09684e-06
6.21484e-06
3.39901e-06
7.46066e-06
7.56215e-06
7.20687e-06
7.69744e-06
7.55617e-06
9.79283e-07
1.6899e-06
5.28436e-06
4.277e-06
7.69177e-06
1.02819e-06
1.74716e-06
2.13876e-06
6.56408e-06
3.47328e-06
7.71347e-06
7.47891e-06
7.27641e-06
7.67911e-06
7.7077e-06
2.76719e-06
1.58245e-07
7.71044e-06
7.25648e-06
6.23455e-06
3.75957e-07
7.50539e-06
6.3565e-06
1.13107e-06
7.71316e-06
2.22871e-06
7.4967e-06
7.66889e-06
7.46427e-06
5.39231e-06
7.61755e-06
4.73283e-06
2.46203e-06
1.19701e-06
6.27403e-06
5.56587e-06
5.39277e-07
7.69774e-06
1.23323e-06
6.90709e-06
4.37032e-06
7.69625e-06
4.95848e-06
5.5126e-06
7.71971e-06
7.72011e-06
1.62499e-06
4.77747e-06
7.70882e-06
7.68554e-06
6.56868e-06
7.48441e-06
7.41468e-06
7.68889e-06
1.08403e-06
7.70924e-06
7.2465e-07
7.22542e-06
4.21221e-06
7.47085e-06
7.69239e-06
3.72867e-06
7.46132e-06
5.87843e-06
8.53441e-07
5.05148e-06
4.79694e-06
3.43618e-08
7.38151e-06
5.40542e-06
5.50078e-06
2.91266e-08
1.45313e-07
7.30758e-06
2.3462e-06
4.58003e-06
7.4612e-06
4.88691e-06
7.71353e-06
4.38337e-06
7.5584e-06
6.06235e-06
7.7265e-06
5.72376e-06
7.72456e-06
4.10661e-06
5.15576e-06
6.0639e-06
7.5109e-06
5.10626e-06
5.55638e-06
7.27606e-06
7.06063e-06
7.62366e-06
7.71967e-06
7.46732e-06
4.80495e-06
1.42316e-06
7.68699e-06
3.18856e-06
7.69492e-06
3.02796e-06
5.44872e-06
5.2629e-06
7.3614e-06
2.48507e-06
7.70984e-06
5.29757e-06
5.42478e-06
7.72443e-06
7.34257e-06
7.60472e-06
7.30182e-06
5.37082e-06
7.71171e-06
7.72508e-06
3.98013e-06
7.69468e-06
5.55928e-06
1.78919e-06
6.47859e-08
9.55614e-08
2.73606e-07
7.31942e-06
3.0386e-08
4.38632e-08
4.47959e-06
7.6105e-06
2.6012e-06
5.60902e-06
7.68543e-06
7.7251e-06
7.72318e-06
4.82525e-06
7.6928e-06
7.04767e-06
7.72735e-06
7.71249e-06
5.18936e-06
7.5975e-06
7.66463e-06
2.90617e-06
7.68995e-06
7.69073e-06
7.46202e-06
1.20014e-06
6.12234e-08
4.85661e-07
6.70949e-06
2.45521e-06
1.9564e-06
3.31726e-06
2.1796e-06
7.48049e-06
1.44572e-07
7.69344e-06
5.48285e-06
6.06246e-06
4.99452e-06
7.66569e-06
2.49006e-06
7.62909e-06
7.67214e-06
5.08083e-06
1.84485e-06
7.54941e-06
7.70854e-06
7.69185e-06
7.5717e-06
6.0979e-06
6.08207e-06
7.57154e-06
7.3049e-07
7.49459e-06
4.30601e-06
2.96031e-06
7.57436e-06
5.4796e-06
3.10108e-06
5.45914e-06
4.95714e-06
7.56784e-06
4.5062e-06
5.71663e-06
7.38421e-06
7.40071e-06
3.47775e-06
1.13882e-06
1.37177e-07
7.39909e-06
4.07139e-06
6.9653e-07
7.71226e-06
7.14093e-06
7.61129e-06
6.82693e-06
4.14114e-07
4.97187e-06
7.44209e-06
7.64718e-06
7.60202e-06
7.63006e-06
1.81989e-06
7.71522e-06
2.56945e-06
7.54277e-06
7.69333e-06
6.84896e-06
7.60612e-06
3.21166e-06
7.71744e-06
7.42166e-06
5.8334e-07
1.7332e-06
2.11689e-06
1.60291e-06
7.6596e-06
7.70433e-06
7.39555e-06
1.46254e-06
7.39146e-06
7.71618e-06
7.61206e-06
7.62565e-06
6.56162e-07
4.86214e-06
5.61897e-06
4.87902e-06
7.66482e-06
5.58936e-06
1.30458e-06
1.29532e-06
3.32733e-06
7.40465e-06
1.77291e-06
7.67417e-06
7.5036e-06
2.05647e-06
7.67007e-06
6.14356e-06
7.67819e-06
6.9046e-06
6.68105e-06
7.5833e-06
7.65595e-06
7.71109e-06
7.55744e-06
3.30311e-06
7.71008e-06
5.82384e-06
5.61208e-06
6.65994e-07
7.69088e-06
6.35017e-06
1.34401e-06
3.74801e-07
3.03573e-07
7.43024e-06
7.70196e-06
7.4157e-06
7.98671e-06
1.09473e-06
4.48716e-07
5.01015e-06
4.28972e-07
4.66314e-06
1.14693e-06
7.42074e-06
7.13115e-06
7.15335e-06
7.67399e-06
4.66495e-07
3.50395e-07
4.64018e-06
4.76404e-06
6.50921e-06
7.69765e-06
7.34659e-06
5.68262e-06
7.42091e-06
9.12231e-07
1.03453e-06
7.46643e-06
7.69802e-06
5.262e-06
7.39485e-06
4.86262e-07
7.50435e-06
5.70077e-06
7.67764e-06
7.6947e-06
7.63935e-06
7.69055e-06
6.65147e-07
7.71646e-08
7.69413e-06
7.37214e-06
5.74585e-07
7.59702e-06
2.07005e-06
7.60498e-06
3.64765e-07
7.35635e-06
7.69413e-06
5.53425e-06
7.71311e-06
7.73113e-06
7.43365e-06
1.41408e-06
1.64186e-06
5.21005e-07
6.82306e-06
4.30681e-06
7.67048e-06
6.63352e-06
7.43893e-06
6.66703e-06
7.78082e-06
1.52688e-06
7.7155e-06
7.66899e-06
3.74254e-07
7.71075e-06
7.72676e-06
5.06929e-06
4.65003e-06
7.71064e-06
6.07844e-07
5.93133e-06
9.93772e-07
7.0553e-06
7.40156e-06
4.914e-06
7.40637e-06
7.72834e-06
5.35161e-06
7.66682e-06
3.87216e-06
1.56563e-06
7.70549e-06
4.7839e-06
5.4289e-06
1.11075e-07
9.67435e-08
6.48293e-06
7.58258e-06
3.87005e-06
2.56152e-06
7.64916e-06
7.65116e-06
7.72897e-06
7.67145e-06
3.65334e-07
7.6226e-06
7.67654e-06
4.04283e-06
7.68782e-06
7.73932e-06
7.21007e-06
4.53645e-06
7.34558e-06
6.95157e-07
5.85025e-06
7.71404e-06
7.72978e-06
4.36657e-06
7.60247e-06
3.23213e-07
1.73137e-06
1.67694e-06
6.25301e-06
6.23466e-06
7.78564e-06
4.13929e-06
7.48655e-06
2.677e-06
7.72021e-06
7.53977e-06
4.42305e-06
7.66084e-06
7.73217e-06
7.73045e-06
1.2496e-06
3.89397e-06
7.72197e-06
7.15181e-06
6.49471e-06
4.66472e-06
7.03942e-06
6.6712e-06
4.52432e-07
7.70337e-06
7.63297e-06
8.95308e-07
5.29576e-07
1.52528e-06
4.06718e-07
4.31017e-06
1.45458e-06
7.73101e-06
7.57769e-06
5.0492e-06
7.70991e-06
7.34427e-06
7.69306e-06
5.87186e-06
7.53564e-06
6.16038e-07
7.60545e-06
3.79227e-07
7.71026e-06
7.71176e-06
1.10626e-06
4.21298e-07
7.24179e-06
5.61017e-06
7.68513e-06
7.73146e-06
7.64789e-06
1.15707e-07
7.57862e-08
1.25625e-06
6.07851e-06
7.64516e-06
7.70293e-06
7.19085e-06
7.61669e-06
7.70957e-06
4.39739e-06
5.37161e-07
7.66394e-06
5.67572e-06
7.73157e-06
4.552e-07
2.59038e-06
7.57043e-06
6.34111e-06
7.23653e-06
7.59035e-06
6.36492e-06
7.49143e-06
7.60047e-06
1.62155e-06
7.34942e-06
7.44501e-06
7.49551e-06
9.69928e-07
7.73161e-06
7.42166e-06
7.42886e-06
7.72367e-06
6.13223e-06
4.31857e-07
6.02254e-06
6.10984e-06
7.68985e-06
6.02633e-06
7.60246e-06
7.59357e-06
7.71914e-06
7.71073e-06
2.8923e-07
7.2357e-07
7.73138e-06
3.63489e-07
4.77713e-07
7.3746e-06
7.33966e-06
7.01412e-06
6.17934e-06
7.66505e-06
7.29905e-06
2.10641e-06
7.68205e-06
7.68415e-06
7.691e-06
5.62718e-06
7.70266e-06
7.73142e-06
7.72561e-06
7.88202e-06
7.42928e-06
4.28447e-08
7.2725e-06
1.45492e-06
6.38655e-06
7.70678e-06
1.18613e-06
7.62619e-06
7.37193e-06
7.76356e-07
7.61046e-06
7.52185e-06
1.67732e-06
7.72733e-06
3.38821e-08
1.69928e-06
6.53298e-06
7.53983e-06
7.65738e-06
7.73422e-06
6.03354e-06
7.20942e-06
7.81912e-07
5.17787e-06
4.1976e-06
7.70288e-06
7.72182e-06
7.41711e-06
7.3597e-06
7.59936e-06
5.60779e-06
5.44705e-06
7.72363e-06
4.54958e-06
7.71827e-06
4.88891e-07
6.91259e-06
7.53785e-06
6.35541e-06
1.08685e-06
4.93625e-07
3.85973e-06
6.21841e-06
7.32504e-06
5.24356e-06
6.74421e-07
7.45802e-06
8.90456e-07
4.74648e-07
1.18412e-06
7.69153e-06
7.35875e-06
7.73059e-06
7.68438e-06
7.69952e-06
6.57118e-06
1.95861e-06
7.69333e-06
5.79422e-06
5.53421e-07
7.3661e-06
5.77751e-06
4.03885e-06
7.70878e-06
6.59181e-06
6.46508e-06
7.68415e-06
7.53473e-06
7.56918e-06
7.6511e-06
7.70185e-06
6.0317e-06
7.57281e-06
7.62261e-06
5.64482e-06
7.68127e-06
6.18111e-06
7.73399e-06
7.50443e-06
5.34851e-06
6.93447e-06
7.34408e-06
7.05167e-06
7.72761e-06
7.73313e-06
1.35045e-06
3.75497e-06
4.61845e-07
1.06416e-06
9.99886e-07
6.21356e-06
7.44701e-06
7.72191e-06
7.42306e-06
7.34496e-06
7.50987e-06
7.35074e-06
7.1488e-06
7.70509e-06
1.18035e-06
7.35978e-06
6.32208e-06
5.75664e-06
1.28589e-06
7.71003e-06
7.00731e-06
6.87219e-06
7.72119e-06
7.65628e-06
7.69278e-06
2.25931e-06
6.58649e-06
7.59357e-06
7.71798e-06
7.71972e-06
7.71539e-06
7.3523e-06
9.74204e-08
7.35801e-06
4.88056e-06
1.75836e-06
2.78486e-06
7.71144e-06
5.95122e-06
7.6878e-06
7.69816e-06
7.35473e-06
7.51645e-06
1.35897e-06
7.19856e-06
6.25245e-06
2.54823e-07
6.11782e-06
7.57968e-06
1.02806e-06
7.43481e-06
7.25788e-06
1.70691e-07
4.13266e-06
1.46951e-06
1.10994e-06
6.90247e-06
7.34018e-06
1.31935e-06
1.52741e-06
5.96427e-06
7.47158e-06
7.25373e-06
7.73169e-06
7.26274e-06
7.69399e-06
5.02362e-06
1.5821e-06
4.13152e-07
1.36472e-06
7.39744e-06
7.02998e-06
7.20271e-06
7.62607e-06
6.67933e-06
7.73384e-06
3.75999e-06
7.32101e-06
7.37046e-06
7.59267e-06
7.6021e-06
7.68787e-06
7.7006e-06
5.45886e-07
7.67016e-06
7.19395e-06
6.65891e-06
1.36047e-06
7.713e-06
7.37174e-06
7.57118e-06
7.57206e-06
3.82704e-07
6.95208e-06
3.8057e-06
7.65253e-06
4.0294e-06
2.78658e-06
4.65836e-07
6.49585e-06
1.22035e-06
2.9242e-06
1.81663e-06
7.6966e-06
7.66631e-06
3.17662e-07
7.56323e-06
7.36539e-06
7.65764e-06
7.69545e-06
6.09275e-07
1.43588e-06
7.52282e-06
6.81271e-06
4.67024e-07
7.67792e-06
7.62518e-06
6.57914e-07
7.32986e-06
7.28042e-06
6.62376e-06
7.43448e-06
7.71301e-06
6.97044e-06
4.33516e-06
7.25161e-06
7.47276e-06
5.1679e-07
7.61636e-06
6.68659e-06
7.23645e-06
6.13704e-06
2.21449e-06
7.5413e-06
7.62668e-06
1.9408e-06
3.39931e-06
7.71124e-06
7.27611e-06
5.26527e-06
7.24275e-06
7.46212e-06
7.71863e-06
7.52445e-06
7.7239e-06
7.68882e-06
7.69411e-06
7.56585e-06
1.33098e-06
6.47876e-06
5.7209e-06
6.56677e-06
7.07169e-06
7.69606e-06
7.6897e-06
7.71044e-06
1.92992e-06
6.19156e-06
6.21325e-06
7.71552e-06
6.83729e-06
7.73356e-06
5.15965e-06
6.44485e-07
6.32054e-06
7.69627e-06
7.67521e-06
5.19805e-07
7.71642e-06
7.67713e-06
1.39933e-06
5.12375e-07
6.14601e-06
7.6983e-06
5.89266e-06
3.11781e-07
7.17002e-06
5.28604e-06
6.63597e-06
6.1496e-06
7.76451e-06
7.70194e-06
7.67883e-06
7.72421e-06
7.44193e-06
7.6954e-06
5.58697e-06
7.22183e-06
2.95987e-06
7.72125e-06
7.70386e-06
7.67879e-06
7.71096e-06
5.40639e-06
7.42317e-06
7.38488e-06
7.65478e-06
7.45156e-06
7.55034e-06
7.39156e-06
1.51036e-06
7.0542e-06
7.72222e-06
7.23912e-06
7.67431e-06
7.48505e-06
7.46089e-06
7.71484e-06
6.73322e-06
6.34071e-06
7.5341e-06
3.85564e-06
7.73436e-06
4.43095e-06
7.62565e-06
7.70907e-06
7.45078e-06
7.4911e-06
7.6905e-06
6.07298e-06
6.55743e-06
1.42777e-06
4.06845e-07
5.21579e-07
7.66058e-06
7.36408e-06
7.36764e-06
7.48032e-06
7.61528e-06
7.39645e-06
7.3262e-06
7.34735e-06
7.37187e-06
7.58189e-06
2.85324e-06
6.2503e-06
4.52153e-07
7.61868e-06
7.77561e-06
7.26705e-06
4.37616e-07
7.44187e-06
7.43288e-06
7.56283e-06
6.9106e-06
7.4261e-06
7.23732e-06
6.61978e-06
7.41047e-06
7.71637e-06
7.58879e-06
7.30744e-06
4.83914e-06
6.67421e-06
7.43343e-06
7.71699e-06
7.46208e-06
7.70446e-06
7.72121e-06
7.72546e-06
6.14198e-06
7.0648e-06
7.68647e-06
6.91908e-06
7.68514e-06
7.69667e-06
5.95145e-06
5.63849e-07
7.36886e-06
7.35148e-06
7.30742e-06
2.0678e-06
7.43911e-06
7.71294e-06
4.91611e-06
7.23034e-06
6.07854e-06
7.57616e-06
7.42366e-06
6.16282e-06
7.42981e-06
7.3647e-06
7.4534e-06
7.6876e-06
7.26202e-06
6.77285e-06
5.25496e-06
7.44759e-06
6.57704e-06
5.99862e-07
7.36701e-06
7.68876e-06
5.13519e-06
7.378e-06
5.10152e-07
7.66522e-06
7.7142e-06
7.56621e-06
7.462e-06
1.49318e-06
7.3862e-06
7.70305e-06
7.52702e-06
6.55559e-06
7.68974e-06
7.39128e-06
6.27713e-06
4.9521e-06
7.51543e-06
7.68331e-06
7.35799e-06
7.36077e-06
4.25389e-06
1.87398e-06
7.69069e-06
1.35074e-06
7.66622e-06
7.45157e-06
7.03777e-06
7.72061e-06
5.69081e-07
7.64369e-06
7.38464e-07
7.71373e-06
7.73387e-06
7.47276e-06
7.71328e-06
4.36896e-06
7.71099e-06
7.54667e-07
7.41874e-06
6.03793e-06
1.72603e-06
7.42384e-06
3.56604e-07
7.29431e-06
7.69635e-06
7.32577e-06
7.50559e-06
6.16811e-06
7.68388e-06
7.41673e-06
1.6215e-06
6.87228e-06
5.94333e-06
6.19612e-06
4.85848e-07
7.38169e-06
6.5059e-06
7.61489e-06
7.38804e-06
7.41227e-06
7.69892e-06
7.66811e-06
6.53674e-06
2.19712e-06
7.1618e-06
1.32352e-06
6.11176e-06
5.67727e-06
7.40985e-06
7.27852e-06
6.40273e-06
6.37845e-06
7.70471e-06
7.69231e-06
7.36554e-06
7.61545e-06
7.41123e-06
7.67332e-06
6.29398e-06
7.30562e-06
7.67184e-06
7.39855e-06
6.70646e-06
3.90323e-06
7.64533e-06
7.51936e-06
7.46378e-06
7.5828e-06
7.44358e-06
7.61393e-06
4.82742e-07
6.2707e-06
6.24992e-06
1.74223e-06
7.4498e-06
7.53622e-06
7.51172e-06
7.63279e-06
4.43638e-06
7.41928e-06
6.60497e-06
7.58065e-06
7.49649e-06
7.7114e-06
4.85042e-07
7.69159e-06
7.49672e-06
6.08631e-06
7.46203e-06
7.39639e-06
6.84695e-06
7.71276e-06
7.68114e-06
7.10391e-06
7.44616e-06
7.42211e-06
7.69689e-06
1.15731e-06
7.46908e-06
5.98749e-06
7.46481e-06
7.72054e-06
1.84684e-06
7.44834e-06
7.69917e-06
7.43743e-06
7.70324e-06
7.71091e-06
5.51614e-06
5.22811e-06
8.47413e-07
1.59837e-06
7.2955e-06
7.4753e-06
6.56262e-06
7.46987e-06
7.64879e-06
7.44818e-06
7.38275e-06
7.6568e-06
7.14092e-06
7.72024e-06
7.73393e-06
7.41105e-06
7.27291e-06
6.3523e-06
7.43303e-06
7.71969e-06
7.70888e-06
2.93608e-06
6.44068e-06
7.59176e-06
1.56603e-06
7.43752e-06
7.37281e-06
5.78353e-06
7.72095e-06
2.40083e-06
7.42101e-06
6.45908e-06
6.4461e-06
5.62381e-06
7.70712e-06
7.60449e-06
7.48868e-06
4.93203e-07
2.32734e-06
1.47285e-06
7.47987e-06
7.27414e-06
7.66952e-06
7.19801e-07
2.80759e-06
7.66068e-06
7.50946e-06
7.512e-06
7.5244e-06
7.31e-06
7.5178e-06
7.47199e-06
1.5398e-06
7.69073e-06
6.88081e-06
7.53312e-06
7.51667e-06
7.59896e-06
7.71452e-06
1.1529e-06
7.45993e-06
7.68253e-06
7.70534e-06
7.7105e-06
6.25226e-06
7.40294e-06
7.52838e-06
5.97495e-07
7.71603e-06
7.57728e-06
6.4102e-07
6.27194e-06
7.2716e-06
7.54676e-06
7.52587e-06
7.48935e-06
7.22392e-06
7.43109e-06
7.56137e-06
7.54526e-06
7.5239e-06
6.7647e-06
6.98175e-06
7.59073e-06
7.72104e-06
6.34196e-06
7.38004e-06
7.70098e-06
7.44045e-06
7.4032e-06
7.69739e-06
4.295e-06
7.39931e-06
7.66992e-06
7.44647e-06
7.44248e-06
5.3793e-07
7.51164e-06
7.51601e-06
6.05677e-06
6.06757e-06
7.70709e-06
5.88384e-06
6.29041e-06
7.69707e-06
3.15904e-06
7.3386e-06
7.62422e-06
7.32481e-06
7.3938e-06
7.52601e-06
7.60465e-06
6.9806e-06
7.70918e-06
7.69329e-06
7.69802e-06
7.69591e-06
6.19119e-06
7.48962e-06
7.73371e-06
9.57075e-07
7.68113e-06
7.70335e-06
7.67526e-06
7.4818e-06
6.90523e-06
7.72142e-06
6.45488e-06
7.60787e-06
3.33402e-06
7.9377e-06
7.07891e-06
6.8681e-06
7.69925e-06
6.25537e-06
6.15357e-06
7.53431e-06
6.31948e-06
7.49099e-06
7.77589e-06
6.30079e-07
7.71417e-06
7.57407e-06
5.98267e-06
7.49683e-06
7.45629e-06
7.5068e-06
7.01665e-06
7.35061e-06
7.51889e-06
6.07916e-06
7.19037e-06
7.51664e-06
7.49898e-06
7.69289e-06
7.50721e-06
7.33135e-06
7.55391e-06
7.56072e-06
7.70486e-06
6.96958e-06
7.49922e-06
7.44208e-06
7.67599e-06
7.21976e-06
6.32787e-06
6.12636e-06
7.56935e-06
7.4602e-06
7.744e-06
7.0465e-06
5.8505e-06
7.52922e-06
1.06896e-06
7.50709e-06
7.2068e-06
5.93639e-06
7.41383e-06
7.40284e-06
7.71586e-06
6.10459e-06
7.52209e-06
7.50688e-06
6.07298e-07
7.60217e-06
7.52133e-06
7.45319e-06
6.21361e-07
7.44324e-06
7.67531e-06
7.4157e-06
7.46705e-06
7.54041e-06
7.72201e-06
7.7207e-06
7.58934e-06
7.56825e-06
6.14762e-06
7.71107e-06
7.53116e-06
7.71092e-06
7.58073e-06
7.51834e-06
7.58652e-06
7.65665e-06
6.56855e-06
7.45238e-06
7.49926e-06
5.91813e-06
7.53598e-06
7.41489e-06
7.57105e-06
7.47768e-06
5.82353e-06
5.14378e-07
7.231e-06
7.51591e-06
6.49159e-06
7.4034e-06
7.15362e-06
5.37455e-07
7.2278e-06
7.80375e-06
6.06491e-06
7.60285e-06
7.41936e-06
7.45809e-06
7.39009e-06
7.54095e-06
4.90141e-06
7.51721e-06
7.62736e-06
7.67844e-06
7.70657e-06
7.50689e-06
7.7119e-06
6.24396e-06
7.43698e-06
7.18388e-06
7.61491e-06
7.61714e-06
6.33337e-06
7.32278e-06
7.4951e-06
7.44173e-06
7.47117e-06
7.69868e-06
7.57444e-06
6.88679e-06
5.25191e-07
7.62254e-06
7.69979e-06
7.60778e-06
7.58582e-06
7.51496e-06
7.71837e-06
7.6069e-06
7.50945e-06
6.41653e-06
7.67403e-06
7.38409e-06
7.4266e-06
7.42076e-06
7.31895e-06
7.71674e-06
7.61154e-06
7.69248e-06
7.52796e-06
8.8787e-07
7.69226e-06
7.40956e-06
7.69707e-06
7.44547e-06
7.4018e-06
7.53417e-06
7.65081e-06
7.09263e-06
6.96728e-06
7.71246e-06
7.43354e-06
4.85369e-06
6.15337e-06
7.71111e-06
1.73244e-06
7.60507e-06
7.73336e-06
7.71963e-06
7.48216e-06
7.69796e-06
7.36924e-06
6.31728e-06
7.20782e-06
7.47089e-06
7.5835e-06
7.69848e-06
7.4159e-06
7.71012e-06
7.63318e-06
6.94455e-06
3.74725e-06
7.65629e-06
7.3938e-06
7.40414e-06
7.70812e-06
7.56121e-06
7.40269e-06
7.69932e-06
7.11412e-06
7.59092e-06
7.59026e-06
7.55533e-06
7.46495e-06
7.70137e-06
7.7219e-06
7.72336e-06
7.40606e-06
7.4844e-06
7.7065e-06
7.69779e-06
7.69778e-06
7.38531e-06
7.45817e-06
5.97541e-06
6.77953e-07
1.06726e-06
7.70835e-06
6.2386e-06
7.6163e-06
7.59702e-06
7.40861e-06
2.30752e-06
7.43382e-06
7.54828e-06
7.62334e-06
7.65178e-06
7.70253e-06
7.5221e-06
7.59443e-06
7.73312e-06
7.69509e-06
7.41987e-06
5.39466e-06
7.71003e-06
7.42908e-06
7.54717e-06
7.70404e-06
6.47572e-06
7.52054e-06
7.5319e-06
7.70115e-06
7.69901e-06
6.44843e-06
7.44605e-06
7.64267e-06
7.43614e-06
7.49985e-06
5.71422e-06
7.59055e-06
6.11445e-06
7.60545e-06
7.62849e-06
7.70854e-06
7.70176e-06
7.51935e-06
7.08573e-06
7.57904e-06
5.86755e-06
7.69489e-06
2.06467e-07
1.4715e-06
7.46349e-06
7.70265e-06
7.74514e-06
7.59231e-06
7.64462e-06
5.86103e-07
7.67502e-06
7.56002e-06
1.97546e-06
2.69818e-06
3.08837e-06
3.256e-06
3.75599e-06
4.47865e-06
4.64508e-06
5.03839e-06
5.20767e-06
7.44646e-06
7.41458e-06
7.40244e-06
7.5245e-06
7.52115e-06
7.70996e-06
7.46687e-06
7.68214e-06
7.60101e-06
7.70669e-06
7.6946e-06
7.70005e-06
6.71567e-06
7.36416e-06
5.6034e-06
7.52093e-06
7.58091e-06
7.72319e-06
7.70851e-06
5.65864e-06
7.70967e-06
4.94787e-06
7.46238e-06
7.62039e-06
5.76989e-06
5.8259e-06
7.26638e-07
7.70735e-06
7.59953e-06
7.68827e-06
7.67086e-06
7.52237e-06
7.46742e-06
7.4606e-06
7.71027e-06
6.03663e-07
7.61016e-06
7.64805e-06
7.71165e-06
7.70717e-06
5.86845e-06
7.11619e-06
7.70076e-06
7.44514e-06
7.36132e-06
7.44517e-06
7.45473e-06
7.39843e-06
1.58185e-07
6.68602e-06
7.53857e-06
7.59253e-06
6.77606e-06
7.60564e-06
7.69603e-06
7.36769e-06
6.03837e-06
7.62172e-06
7.61521e-06
7.58454e-06
5.56982e-06
7.41481e-06
7.21554e-06
7.6718e-06
7.70214e-06
6.83752e-06
7.50392e-06
7.57169e-06
7.70462e-06
7.70104e-06
5.95825e-06
7.37836e-06
7.50312e-06
7.51043e-06
7.69533e-06
7.44715e-06
7.62431e-06
7.73072e-06
7.6945e-06
7.611e-06
7.60718e-06
7.53035e-06
7.71827e-06
7.72458e-06
7.72204e-06
7.50101e-06
7.60567e-06
4.9919e-06
7.15333e-06
7.58909e-06
5.73627e-06
7.69781e-06
6.14341e-06
7.73284e-06
7.459e-06
7.64846e-06
5.58234e-06
7.17662e-06
7.68423e-06
7.71719e-06
7.62064e-06
5.81734e-06
7.46872e-06
7.69212e-06
6.37332e-06
7.51979e-06
1.82856e-06
7.67707e-06
7.54141e-06
7.29947e-06
7.72252e-06
7.69826e-06
7.68493e-06
7.66935e-06
7.06777e-06
7.62685e-06
7.45712e-06
6.73489e-06
4.11323e-07
7.59962e-06
7.70996e-06
7.67894e-06
2.62203e-07
7.37951e-06
7.49475e-06
2.74757e-06
7.68341e-06
7.70632e-06
7.62619e-06
6.04565e-06
6.68261e-06
7.66401e-06
7.34312e-06
7.28191e-06
7.4526e-06
7.676e-06
7.69433e-06
7.7093e-06
7.57801e-06
7.39436e-06
7.68421e-06
7.4926e-06
1.51006e-06
7.63346e-06
7.69516e-06
7.464e-06
7.59271e-06
7.69695e-06
7.68365e-06
7.73144e-06
7.68223e-06
7.41938e-06
7.70173e-06
6.5033e-06
7.67592e-06
7.63896e-06
7.44649e-06
7.68918e-06
7.73253e-06
6.43211e-06
7.59738e-06
7.6257e-06
7.46208e-06
7.71275e-06
7.70995e-06
7.35135e-06
7.71221e-06
7.65329e-06
7.64095e-06
7.67012e-06
7.46014e-06
7.70455e-06
7.52339e-06
7.66181e-06
7.41769e-06
7.48386e-06
7.69891e-06
7.64323e-06
7.60268e-06
7.52023e-06
7.68319e-06
6.47173e-06
7.63737e-06
7.71098e-06
6.34916e-06
7.55425e-06
7.74696e-06
7.51042e-06
7.66493e-06
7.63701e-06
7.53782e-06
7.42014e-06
7.42901e-06
7.71448e-06
7.56674e-06
7.71648e-06
7.64331e-06
7.59008e-06
7.7098e-06
6.99828e-06
5.43856e-06
7.6259e-06
7.27419e-07
7.40814e-06
6.65327e-06
7.50589e-06
7.69882e-06
7.64173e-06
7.50095e-06
1.17777e-06
7.60059e-06
7.43554e-06
7.59549e-06
7.69406e-06
3.64858e-06
7.34733e-06
9.23034e-07
7.59612e-06
7.71704e-06
7.71191e-06
6.26995e-06
7.59568e-06
7.84545e-06
7.28639e-07
5.78488e-06
7.32508e-06
7.71047e-06
7.70929e-06
6.76223e-06
7.70179e-06
5.88228e-06
5.96556e-06
6.64297e-06
7.70035e-06
7.63602e-06
7.71163e-06
7.71368e-06
7.70945e-06
7.6713e-06
7.71939e-06
5.75307e-06
7.67936e-06
7.90914e-06
7.66878e-06
7.58403e-06
8.76523e-07
7.6437e-06
7.67757e-06
7.69884e-06
6.44515e-06
5.38363e-06
7.6746e-06