/*--------------------------------*- C++ -*----------------------------------*\
  =========                 |
  \\      /  F ield         | OpenFOAM: The Open Source CFD Toolbox
   \\    /   O peration     | Website:  https://openfoam.org
    \\  /    A nd           | Version:  8
     \\/     M anipulation  |
\*---------------------------------------------------------------------------*/
FoamFile
{
    version     2.0;
    format      ascii;
    class       volScalarField;
    location    "6.8";
    object      p;
}
// * * * * * * * * * * * * * * * * * * * * * * * * * * * * * * * * * * * * * //

dimensions      [0 2 -2 0 0 0 0];

internalField   nonuniform List<scalar> 
5119
(
3.91205e-06
1.05782e-05
1.05203e-05
1.01338e-05
4.61078e-06
1.05936e-05
1.05534e-05
1.05688e-05
9.68875e-06
1.81204e-06
1.01391e-05
1.88057e-06
4.92916e-06
1.03649e-05
3.4295e-06
6.12301e-06
7.07068e-06
1.02448e-06
2.55969e-06
2.66042e-06
6.13961e-06
5.39333e-06
3.54126e-06
1.65616e-06
6.53801e-06
5.84439e-06
3.6214e-06
3.65347e-06
3.68017e-06
9.77889e-07
1.2935e-06
2.55975e-06
5.95964e-06
3.38183e-06
4.06502e-06
1.03164e-06
1.01139e-06
1.02621e-06
4.41222e-06
7.84018e-06
1.05491e-05
4.61598e-06
7.2256e-06
7.25303e-06
7.6381e-06
1.05592e-05
8.04465e-06
7.68403e-06
7.66216e-06
6.79713e-06
1.04455e-05
1.01623e-05
1.07662e-05
1.05735e-05
1.04066e-05
8.03149e-06
1.01754e-05
1.05717e-05
5.50035e-06
8.23542e-06
7.46701e-06
7.1959e-06
8.06915e-06
7.61345e-06
1.05614e-05
8.42996e-06
1.04439e-05
1.0245e-05
8.09261e-06
1.03638e-05
1.04711e-05
1.05752e-05
1.04349e-05
8.09772e-06
6.80639e-06
7.83149e-06
1.05725e-05
1.05472e-05
8.3971e-06
8.28585e-06
9.85461e-06
1.02509e-05
9.56872e-07
4.38972e-07
1.05634e-05
7.1619e-07
1.05547e-05
7.37207e-06
4.64712e-07
4.68748e-07
4.69735e-07
4.49913e-07
1.05701e-05
1.00925e-05
8.26176e-06
1.01941e-05
1.07232e-05
8.30573e-06
1.01627e-05
9.41477e-07
6.07205e-06
6.05989e-06
9.40741e-06
8.23537e-06
1.05713e-05
1.05799e-05
8.64236e-06
1.04987e-05
1.02574e-05
1.05659e-05
9.39011e-06
1.05789e-05
1.05763e-05
1.79277e-06
1.05664e-05
1.02384e-05
1.01201e-05
1.05784e-05
1.03203e-05
7.83189e-07
1.04485e-05
3.92478e-06
9.63806e-06
5.56873e-06
6.49859e-06
2.9519e-06
5.60516e-06
5.3044e-06
2.01926e-06
4.05792e-06
6.00383e-06
1.54667e-06
1.53537e-06
3.07915e-06
1.05624e-05
1.04857e-05
9.30954e-06
3.02174e-06
1.04959e-05
3.73865e-06
5.46629e-06
7.36807e-06
4.95135e-06
3.91238e-06
4.05494e-06
4.03159e-06
1.58669e-06
1.61841e-06
1.60634e-06
1.00437e-05
8.84211e-06
1.05592e-05
8.50693e-06
1.0112e-05
1.02101e-05
7.7119e-07
1.02174e-05
1.07116e-05
1.05231e-05
1.001e-05
8.78311e-06
1.05879e-05
1.0529e-05
8.30112e-06
1.05761e-05
1.04363e-05
1.05772e-05
1.05731e-05
1.05743e-05
1.02366e-05
1.04666e-05
8.43131e-06
1.03172e-05
1.04033e-05
1.02647e-05
1.03952e-05
1.04963e-05
2.80228e-06
1.05816e-05
4.2455e-06
1.04622e-05
1.04436e-05
8.27696e-06
8.20263e-06
1.05753e-05
1.0174e-05
1.05727e-05
1.05027e-05
1.04597e-05
1.05588e-05
9.99382e-06
9.08521e-06
8.32752e-06
1.03296e-05
1.05658e-05
1.00269e-05
1.05676e-05
1.04382e-05
9.62945e-06
1.05754e-05
1.05742e-05
8.60524e-06
1.0575e-05
1.77421e-06
3.21293e-06
3.94993e-06
5.43966e-06
8.83589e-06
1.04409e-05
1.02973e-05
1.05385e-05
7.8398e-06
1.04221e-05
7.94827e-06
1.0503e-05
1.0425e-05
1.04937e-05
7.84869e-06
1.02388e-05
1.05047e-05
8.44199e-06
1.02257e-05
1.05831e-05
8.64437e-06
1.02341e-05
1.01221e-05
1.05724e-05
1.05553e-05
5.09721e-06
2.03703e-06
1.05867e-05
2.52163e-06
6.103e-06
5.26066e-06
4.71953e-06
1.04526e-05
6.84268e-06
7.38659e-06
1.04449e-05
9.38888e-06
1.03106e-05
1.05366e-05
1.01487e-05
8.95601e-06
3.18797e-06
2.11166e-06
5.26361e-06
1.04558e-05
6.05148e-06
2.94909e-06
5.60776e-06
6.57412e-06
7.18863e-06
2.75907e-06
3.04431e-06
6.59136e-06
3.06309e-06
3.03177e-06
3.41733e-06
1.03631e-05
1.05135e-05
1.04874e-05
9.73235e-06
6.87028e-06
4.618e-06
4.64676e-06
4.81641e-06
5.58622e-06
1.04935e-05
7.64959e-06
1.04724e-05
1.05624e-05
1.40925e-06
5.66067e-06
1.77187e-06
1.06998e-05
8.99433e-06
7.0154e-06
9.19624e-07
6.56975e-06
7.20205e-06
3.01173e-06
2.99493e-06
6.58356e-06
2.96995e-06
2.59012e-06
3.30241e-06
5.60841e-06
1.01803e-06
1.89347e-06
6.80235e-06
2.87157e-06
6.01179e-06
1.05463e-05
3.14433e-06
6.13073e-06
7.73139e-06
1.03829e-05
1.05922e-05
8.52567e-06
9.92508e-06
5.32342e-06
1.02046e-05
1.06146e-05
1.03303e-05
1.0455e-05
1.06931e-05
1.31828e-06
1.02135e-05
8.60582e-06
1.41278e-06
5.55965e-06
4.72488e-06
4.77748e-06
5.22086e-06
4.74639e-06
1.05746e-05
1.0585e-05
5.71296e-06
5.6933e-06
1.01252e-05
8.17608e-06
3.25357e-06
1.05926e-05
1.00937e-05
9.19317e-06
1.02037e-05
2.70685e-06
4.47335e-06
1.02646e-05
4.99878e-06
4.47717e-06
9.05137e-06
1.04829e-05
1.0606e-05
3.89356e-06
6.01307e-06
7.02719e-06
1.1201e-06
2.35266e-06
6.04419e-06
2.62986e-06
1.01384e-05
5.80406e-06
6.42588e-06
3.59594e-06
1.61267e-06
1.06189e-06
1.02506e-05
1.01807e-05
4.30192e-06
4.4799e-06
4.44731e-06
4.2642e-06
5.31151e-06
5.22055e-06
4.03966e-06
3.8661e-06
3.45599e-06
6.2477e-06
2.65293e-06
2.48941e-06
2.51522e-06
6.57752e-06
2.3842e-06
2.53225e-06
2.24482e-06
1.97203e-06
2.08317e-06
2.09653e-06
2.04158e-06
1.8525e-06
7.0057e-06
7.38193e-06
1.02125e-05
1.0274e-05
1.04351e-05
1.03376e-05
2.96554e-06
1.06424e-05
1.00529e-05
1.05253e-05
8.18082e-06
2.52594e-06
8.331e-06
8.8159e-06
1.05633e-05
2.48522e-06
3.32307e-06
5.84233e-06
1.04334e-05
1.05661e-05
8.92575e-06
1.05129e-05
7.74991e-06
5.31417e-06
3.52145e-06
3.67178e-06
3.65188e-06
1.04308e-05
7.22169e-06
1.05154e-05
1.05637e-05
9.02357e-06
4.25832e-06
1.01227e-05
9.74827e-06
1.058e-05
1.02823e-05
1.00216e-05
8.4052e-06
2.04135e-06
3.62924e-06
1.12251e-06
1.10635e-06
1.12258e-06
9.73728e-06
5.13006e-06
5.90472e-06
1.04995e-05
1.05127e-05
6.90062e-06
1.02987e-05
1.04769e-05
1.04694e-05
1.02514e-05
1.04628e-05
5.00147e-06
4.92114e-07
1.06236e-05
8.9203e-06
5.00096e-06
7.03781e-06
1.04522e-05
1.02853e-05
1.04291e-05
9.37281e-06
8.6291e-06
1.06018e-05
1.04911e-05
9.84905e-06
1.03939e-05
1.00449e-05
6.3955e-07
6.70165e-07
6.73413e-07
6.61025e-07
1.05146e-05
9.97913e-06
7.07928e-06
9.70542e-06
1.05915e-05
4.56257e-06
5.91498e-06
3.12674e-06
2.83238e-06
2.65242e-06
2.55416e-06
2.67818e-06
2.69591e-06
6.92637e-06
6.85241e-06
2.21338e-06
6.67783e-06
1.04425e-05
1.05872e-05
4.42415e-06
9.18109e-07
4.07127e-06
4.3102e-06
4.23911e-06
4.11402e-06
5.51848e-06
5.43721e-06
3.85239e-06
3.65981e-06
3.2601e-06
6.46439e-06
2.44628e-06
2.29983e-06
2.26368e-06
2.31452e-06
6.80834e-06
2.1731e-06
2.05553e-06
1.78233e-06
1.89494e-06
1.8806e-06
1.85156e-06
1.65424e-06
7.17838e-06
7.62588e-06
1.05739e-05
1.00735e-05
1.05696e-05
8.67361e-06
8.66315e-06
1.0568e-05
1.06307e-05
1.04196e-05
1.01657e-05
1.05554e-05
9.3656e-06
9.80841e-06
1.04631e-05
6.67627e-07
1.02861e-05
4.29358e-06
9.13557e-06
2.54231e-07
2.91193e-07
3.02324e-07
1.01217e-05
2.25162e-06
6.46044e-06
5.74481e-06
1.01739e-05
1.03779e-05
1.05444e-05
1.02919e-05
4.26574e-06
1.91425e-06
1.05882e-05
8.94129e-06
9.97124e-06
4.92498e-06
6.1325e-06
4.92098e-06
1.05654e-05
8.81564e-06
8.22353e-06
7.16398e-07
9.34765e-06
5.98602e-06
6.21868e-06
1.05495e-05
1.05667e-05
8.65389e-06
1.01914e-05
2.03439e-06
6.44113e-06
5.77741e-06
8.1425e-06
5.41836e-06
4.68181e-06
4.58563e-06
4.53942e-06
1.02083e-05
1.01536e-05
6.60995e-06
1.02898e-05
8.58389e-06
1.05444e-05
1.05239e-05
1.06359e-05
7.28429e-06
2.2812e-06
7.91058e-06
1.01601e-05
4.73653e-06
1.00498e-05
1.05833e-05
1.01382e-05
9.43902e-06
1.06318e-05
1.05809e-05
1.0369e-05
2.49264e-06
1.04973e-05
9.36018e-06
9.75208e-06
5.18963e-06
1.05342e-05
1.06092e-05
1.04259e-05
8.9755e-06
1.00581e-05
1.05239e-05
1.05338e-05
1.05613e-05
1.91199e-07
1.87872e-07
1.92947e-07
9.49352e-06
1.03184e-05
1.03346e-05
1.06363e-05
1.05498e-05
4.22512e-06
3.82704e-06
1.05868e-05
1.05748e-05
1.05945e-05
8.74132e-06
1.0351e-05
1.04813e-05
6.6671e-06
6.73259e-06
2.81612e-06
2.7982e-06
2.79382e-06
3.2566e-06
5.7198e-06
2.99088e-06
2.70396e-06
8.58451e-06
1.06177e-05
9.6804e-06
1.05534e-05
1.05337e-05
6.23623e-06
1.05413e-05
1.02101e-05
7.72733e-06
9.63328e-06
1.05635e-05
1.03848e-05
1.05944e-05
9.15036e-06
1.05323e-05
1.05058e-05
1.04859e-05
1.01533e-05
1.05614e-05
6.10564e-06
4.92147e-06
9.64878e-06
1.05965e-05
1.04872e-05
1.04976e-05
1.05358e-05
1.03547e-05
9.01006e-06
4.72019e-06
1.36874e-06
1.03225e-05
9.20956e-06
1.43646e-06
5.28706e-06
1.3011e-06
6.23894e-06
3.26071e-06
3.28025e-06
6.82042e-06
6.26045e-06
2.99416e-06
3.23345e-06
3.60396e-06
1.03962e-05
7.67367e-06
1.01985e-05
4.66763e-07
1.05867e-05
1.05104e-05
1.01888e-05
1.05756e-05
1.06011e-05
4.95572e-07
1.04859e-05
1.058e-05
7.26758e-06
1.49022e-06
7.66081e-06
9.4586e-06
1.06136e-05
8.89406e-06
9.95705e-06
1.05838e-05
1.01686e-05
6.39747e-07
1.0095e-06
1.0527e-05
1.0539e-05
9.44309e-06
1.0027e-05
1.05801e-05
9.37721e-06
1.04791e-05
1.05624e-05
1.02023e-05
4.96239e-06
1.54007e-06
2.97138e-06
3.71793e-06
5.45241e-06
1.05453e-05
2.23778e-07
2.14423e-07
2.62584e-07
9.47238e-06
1.05419e-05
1.06218e-05
6.21666e-06
1.05116e-05
7.38143e-06
2.38977e-07
2.64873e-07
1.0567e-05
8.18031e-07
2.28339e-06
6.47468e-06
3.17841e-06
5.71677e-06
6.66985e-06
1.02345e-05
5.58318e-06
1.05835e-05
1.05459e-05
1.03221e-05
1.05832e-05
1.04426e-05
1.05724e-05
1.01623e-05
1.02048e-05
7.65586e-06
1.03902e-05
9.15139e-06
9.11892e-06
8.57522e-06
1.05462e-05
1.03865e-05
8.52887e-06
1.05e-05
7.63539e-06
1.03062e-05
1.05598e-05
1.73777e-06
1.02206e-05
9.75192e-06
1.06249e-05
1.03477e-05
9.1743e-06
1.03109e-05
1.02205e-05
1.04864e-05
2.05263e-07
2.1004e-07
2.15026e-07
2.47251e-07
1.98123e-07
1.05606e-05
1.03338e-05
8.54947e-06
1.05944e-05
1.05762e-05
1.05937e-05
1.04429e-05
1.02132e-05
9.95157e-06
4.51121e-06
4.48624e-06
4.53819e-06
4.91784e-06
4.56677e-06
4.86156e-06
1.05859e-05
1.04843e-05
4.00249e-06
4.16942e-06
4.59449e-06
4.91483e-06
5.0188e-06
5.07414e-06
5.35192e-06
5.24113e-06
3.86576e-06
3.57731e-06
5.92271e-06
2.83818e-06
2.64024e-06
2.53777e-06
2.36856e-06
6.30834e-06
2.64726e-06
2.66516e-06
2.62114e-06
2.18071e-06
2.21831e-06
2.20319e-06
6.65797e-06
2.07735e-06
1.96892e-06
6.83259e-06
1.70884e-06
7.40334e-06
7.2908e-06
7.40716e-06
4.63073e-06
4.5496e-06
4.58939e-06
4.40013e-06
4.80512e-06
1.05671e-05
8.84775e-06
1.05847e-05
3.45713e-06
1.10413e-05
1.05757e-05
1.05744e-05
1.05245e-05
4.86062e-06
4.91124e-06
4.59805e-06
1.0596e-05
1.0288e-05
1.05604e-05
1.05575e-05
1.06103e-05
7.89684e-06
9.80857e-06
1.04369e-05
9.46799e-06
1.0248e-05
1.01949e-05
9.79363e-06
1.04408e-05
1.05849e-05
1.06044e-05
4.59894e-06
1.05161e-05
1.03997e-05
1.05065e-05
3.58764e-07
3.53576e-07
3.38811e-07
1.05833e-05
1.01689e-05
1.04692e-05
1.05947e-05
9.19668e-06
1.05639e-05
5.93541e-06
1.04971e-05
1.0507e-05
1.05461e-05
9.66268e-06
1.00431e-05
9.82903e-06
1.05782e-05
1.06105e-05
1.04212e-05
7.57621e-06
1.03203e-05
4.35777e-06
4.3522e-06
8.57316e-06
9.443e-06
1.05543e-05
1.05115e-05
1.056e-05
1.06284e-05
9.00827e-06
1.05667e-05
1.06507e-05
9.85308e-06
1.05694e-05
1.02436e-05
4.33381e-06
4.27926e-06
5.34662e-06
4.13296e-06
5.328e-06
5.15076e-06
5.0338e-06
5.74129e-06
3.56268e-06
3.35872e-06
3.27401e-06
6.25419e-06
2.58257e-06
1.7877e-06
1.89927e-06
1.8644e-06
1.91598e-06
2.11822e-06
7.07989e-06
6.94333e-06
1.01437e-05
7.32843e-06
5.50454e-06
6.69544e-06
1.05753e-05
1.05738e-05
9.16811e-06
1.01865e-05
1.0254e-05
1.04818e-05
9.89143e-06
8.34629e-06
1.00572e-05
4.65781e-06
9.28613e-06
1.04844e-05
8.15333e-06
1.01211e-05
1.04576e-05
8.74873e-06
1.02044e-05
6.14123e-06
7.35981e-06
9.72529e-06
1.0208e-05
9.96328e-06
9.53053e-06
9.26855e-06
9.87845e-06
1.0041e-05
1.05921e-05
9.8318e-06
1.04514e-05
1.00225e-05
1.04809e-05
1.0055e-05
9.95473e-06
7.37638e-06
5.15446e-06
1.04499e-05
9.71541e-06
1.01941e-05
1.04937e-05
7.09724e-06
9.18033e-06
7.44875e-06
1.05741e-05
1.00331e-05
8.48761e-06
1.00074e-05
1.00627e-05
1.05854e-05
1.02511e-05
9.01111e-06
1.05915e-05
8.78024e-06
4.88863e-06
5.30859e-06
5.39562e-06
3.42322e-06
3.64577e-06
3.14944e-06
5.76241e-06
3.07077e-06
3.07478e-06
6.42293e-06
3.18456e-06
3.16228e-06
6.50787e-06
6.88123e-06
6.28685e-06
2.3416e-06
1.05811e-05
1.02608e-05
1.00847e-05
9.83305e-06
1.02735e-05
9.96629e-06
1.0414e-05
9.17996e-06
4.59704e-06
1.05708e-05
4.87996e-06
4.86566e-06
8.49427e-06
4.65109e-06
1.05833e-05
1.0571e-05
6.46317e-06
1.01183e-05
1.05108e-05
6.88763e-06
6.95492e-06
6.79234e-06
7.42762e-06
1.04484e-05
1.05648e-05
7.44247e-06
6.8793e-06
7.22947e-06
1.03424e-05
1.00557e-05
1.07825e-05
1.05726e-05
1.01965e-05
1.00557e-05
1.06061e-05
6.59282e-06
7.59824e-06
1.04398e-05
1.05757e-05
1.05202e-05
1.05563e-05
8.53199e-06
1.05943e-05
6.47696e-06
8.41887e-06
1.04803e-05
2.11058e-06
1.04644e-05
9.91644e-06
1.04907e-05
7.7555e-06
1.05092e-05
1.00679e-05
5.51898e-06
5.42053e-06
3.8381e-06
3.77198e-06
3.25486e-06
6.47747e-06
2.59735e-06
2.39554e-06
2.40183e-06
6.79457e-06
2.41807e-06
2.27976e-06
2.15072e-06
1.75305e-06
1.88382e-06
1.87336e-06
1.85287e-06
1.61183e-06
7.08085e-06
7.61615e-06
4.32081e-06
4.19283e-06
4.35937e-06
4.08795e-06
1.05609e-05
1.0525e-05
8.89722e-06
1.05481e-05
1.02887e-05
1.03259e-05
1.05521e-05
1.05586e-05
1.04086e-05
6.4256e-07
1.05347e-05
5.97502e-06
3.11338e-06
3.02276e-06
2.79818e-06
2.71436e-06
2.79944e-06
2.81928e-06
6.88652e-06
6.78958e-06
1.05753e-05
2.61136e-06
7.02277e-06
4.8318e-06
1.04768e-05
1.0133e-05
1.02314e-05
1.03598e-05
1.03183e-05
1.04286e-05
1.05877e-05
1.04914e-05
1.04223e-05
9.89689e-06
1.04949e-05
1.9754e-06
1.04152e-05
1.05875e-05
4.14338e-06
4.1659e-06
5.03919e-06
5.07487e-06
4.66005e-06
1.04558e-05
1.05724e-05
1.0243e-05
1.05032e-05
4.60857e-06
9.96079e-06
1.05924e-05
1.04581e-05
1.01942e-05
1.13301e-06
1.11728e-06
1.13915e-06
3.96896e-06
1.02145e-05
1.04719e-05
1.0566e-05
8.68657e-06
9.19752e-06
9.88355e-06
1.05622e-05
1.05766e-05
1.02492e-05
1.05638e-05
1.04656e-05
1.00766e-05
1.05869e-05
5.0653e-06
1.05435e-05
1.05709e-05
1.03503e-05
1.05419e-05
1.00771e-05
6.71367e-06
9.52972e-06
1.05793e-05
1.04463e-05
4.37206e-06
1.04777e-05
4.91312e-06
9.85882e-06
1.05132e-05
9.83939e-06
8.63005e-06
1.03192e-05
4.62571e-06
4.8327e-06
4.62607e-06
1.03045e-05
1.04889e-05
1.04865e-05
9.9928e-06
1.00775e-05
1.04058e-05
1.01922e-05
4.82002e-06
4.83073e-06
4.75815e-06
8.331e-06
1.05802e-05
1.04962e-05
1.03242e-05
9.98139e-06
1.05912e-05
1.00761e-05
1.02613e-05
1.00346e-05
1.05727e-05
1.05035e-05
1.04383e-05
1.05894e-05
1.03705e-05
1.02989e-05
9.86594e-06
1.0427e-05
1.04602e-05
4.83278e-06
4.85853e-06
7.8376e-06
1.0291e-05
1.05716e-05
1.00541e-05
1.05915e-05
1.02819e-05
9.82105e-06
1.04806e-05
4.23114e-06
1.05179e-05
8.22808e-06
1.06487e-05
1.05827e-05
1.01729e-05
1.0509e-05
1.02172e-05
1.06036e-05
1.02517e-05
1.05459e-05
1.05163e-05
1.03666e-05
1.05614e-05
4.75433e-06
4.68589e-06
4.78333e-06
1.00819e-05
1.04867e-05
1.05064e-05
1.05602e-05
1.04981e-05
1.05955e-05
1.00068e-05
1.03051e-05
9.92942e-06
1.39845e-06
3.34597e-06
2.52243e-06
5.93973e-06
1.05762e-05
1.0584e-05
1.04536e-05
1.05915e-05
1.02146e-05
1.05821e-05
1.05764e-05
1.05782e-05
1.04236e-05
7.69587e-06
1.05767e-05
1.05105e-05
1.04493e-05
1.39959e-06
1.38128e-06
1.40832e-06
7.55886e-06
1.05677e-05
1.05691e-05
1.05349e-05
1.05681e-05
1.05668e-05
1.00466e-05
1.04745e-05
1.05124e-05
9.96237e-06
1.03975e-05
4.68941e-06
1.02498e-05
1.05533e-05
1.05807e-05
4.46878e-06
1.05201e-05
1.0106e-05
1.0494e-05
1.02535e-05
9.32922e-06
1.05544e-05
1.02919e-05
1.05806e-05
1.04508e-05
1.0579e-05
1.04995e-05
9.57254e-06
1.05104e-05
1.05648e-05
1.05271e-05
1.04377e-05
1.05231e-05
1.01497e-05
1.05428e-05
1.01051e-05
1.05624e-05
4.5773e-06
3.57545e-06
5.38946e-06
1.88765e-06
2.66367e-06
2.50204e-06
6.03186e-06
1.14063e-06
6.07231e-06
7.0578e-06
1.0452e-05
1.04994e-05
1.05681e-05
1.05836e-05
9.62479e-06
9.93235e-06
1.04208e-05
1.05414e-05
1.0575e-05
1.01612e-05
1.05243e-05
9.39176e-06
1.02709e-05
1.04652e-05
3.16561e-06
3.18552e-06
5.43396e-06
6.38896e-06
4.99388e-06
3.53593e-06
3.15756e-06
6.38624e-06
2.0779e-06
6.9552e-06
2.8931e-06
1.18195e-06
1.31285e-06
1.03321e-05
1.052e-05
1.05673e-05
1.05558e-05
1.04536e-05
1.03453e-05
1.02315e-05
9.46344e-06
9.9213e-06
8.34863e-06
1.03042e-05
1.05855e-05
1.0741e-05
1.05868e-05
9.79985e-06
1.03615e-05
1.05533e-05
1.04938e-05
9.42905e-06
3.63928e-07
1.05716e-05
6.66384e-06
1.05421e-05
9.95813e-06
8.21518e-06
1.05717e-05
1.05746e-05
1.05893e-05
7.62919e-06
1.0202e-05
1.04554e-05
1.05749e-05
9.13012e-06
1.03307e-05
9.98777e-06
1.05905e-05
1.04285e-05
1.03426e-05
9.839e-06
1.00562e-05
9.9843e-06
1.05862e-05
1.00941e-05
1.03922e-05
1.04403e-05
1.04908e-05
9.95046e-06
1.05602e-05
1.05086e-05
1.05534e-05
1.05347e-05
1.03563e-05
5.55756e-07
5.48431e-07
5.32802e-07
5.59102e-07
5.60582e-07
8.62098e-06
1.04725e-05
9.85587e-06
1.04035e-05
2.83184e-07
2.68565e-07
1.01094e-05
7.43804e-06
1.05791e-05
1.04132e-05
1.04936e-05
1.01791e-05
8.93081e-06
3.78538e-06
1.05931e-05
1.03477e-05
1.05302e-05
1.05825e-05
1.04305e-05
1.02773e-05
5.5859e-06
1.05554e-05
1.01316e-05
1.00044e-05
1.00866e-05
1.04766e-05
9.94943e-06
1.00318e-05
1.08053e-06
5.4751e-06
1.04303e-05
3.5899e-06
3.62945e-06
3.65229e-06
5.86246e-06
1.61865e-06
6.51866e-06
1.05835e-05
1.02276e-05
1.0575e-05
9.97328e-06
1.04537e-05
1.03066e-05
2.16944e-06
3.07855e-06
5.87683e-06
6.64656e-06
4.53469e-06
1.00079e-05
1.05871e-05
9.56984e-06
4.9539e-06
4.99004e-06
4.56522e-06
4.39463e-06
1.05926e-05
1.00403e-05
1.052e-05
9.94452e-06
3.25213e-06
1.05696e-05
1.07107e-05
1.01833e-05
1.00184e-05
1.05084e-05
9.99515e-06
2.47794e-07
1.01334e-05
1.04927e-05
1.05814e-05
1.05548e-05
1.03627e-05
1.04853e-05
4.58217e-06
9.95706e-06
1.05226e-05
1.18609e-06
1.0468e-05
1.03907e-05
2.53669e-07
2.35847e-07
2.4934e-07
2.47199e-07
2.43482e-07
1.05824e-05
1.05727e-05
1.0557e-05
6.37271e-06
1.03525e-05
9.96484e-06
9.90232e-06
1.01829e-05
1.0461e-05
1.05305e-05
1.05471e-05
1.05938e-05
1.05679e-05
1.0578e-05
1.05844e-05
1.05575e-05
1.00775e-05
1.05216e-05
1.02217e-05
1.05148e-05
9.29677e-06
7.95828e-06
1.05706e-05
1.01215e-05
7.94246e-06
1.05556e-05
6.78238e-06
4.77745e-06
1.05881e-05
1.05767e-05
1.03507e-05
3.41416e-06
7.99004e-06
1.05811e-05
1.01595e-05
9.8078e-06
1.04732e-05
1.03832e-05
1.05058e-05
1.05789e-05
1.01812e-05
1.05818e-05
1.05297e-05
1.05268e-05
1.05799e-05
1.05825e-05
1.05943e-05
4.45488e-06
1.04273e-05
1.0066e-05
1.05798e-05
1.0162e-05
1.04905e-05
1.0191e-05
1.0554e-05
9.70576e-06
1.01006e-05
4.51112e-06
1.04539e-05
9.95401e-06
1.06445e-05
1.05796e-05
1.01563e-05
1.03709e-05
1.05844e-05
1.03809e-05
9.41424e-06
1.04097e-05
1.05173e-05
1.01238e-05
4.94417e-06
1.05804e-05
1.04375e-05
1.05799e-05
1.05308e-05
1.05698e-05
1.05843e-05
1.05634e-05
1.04588e-05
3.60057e-06
5.65953e-06
2.8109e-06
1.65725e-06
6.84205e-06
1.03138e-05
8.96151e-06
8.70858e-06
9.99609e-06
1.00758e-05
1.05726e-05
1.05585e-05
9.6712e-06
1.03903e-05
4.39524e-06
4.42587e-06
1.03824e-05
2.09059e-07
2.18213e-07
1.05657e-05
4.77291e-06
1.04242e-05
1.0218e-05
1.05754e-05
1.04897e-05
1.05609e-05
7.40737e-06
1.05734e-05
1.05215e-05
1.05269e-05
5.6381e-06
1.09278e-05
1.05747e-05
1.02655e-05
1.03371e-05
1.05205e-05
1.0422e-05
8.07879e-06
1.0156e-05
1.021e-05
1.05782e-05
7.96928e-06
8.36313e-06
9.92181e-06
1.05287e-05
1.05778e-05
1.04202e-05
1.01068e-05
1.03833e-05
1.00365e-05
1.0574e-05
1.0049e-05
9.83827e-06
8.34393e-06
2.95162e-07
1.0273e-05
1.05775e-05
8.18997e-06
1.05748e-05
1.0237e-05
1.04167e-05
9.89598e-06
1.01452e-05
1.03537e-05
1.0575e-05
1.03488e-05
8.02748e-06
9.81578e-06
9.25869e-06
1.0568e-05
9.89898e-06
4.81961e-06
1.01831e-05
9.53336e-06
1.00323e-05
1.0573e-05
1.05856e-05
9.67311e-07
9.40789e-07
9.44396e-07
6.02954e-06
1.05055e-05
6.18162e-06
1.05353e-05
4.12063e-06
1.06311e-05
1.01013e-05
1.0394e-05
1.03496e-05
1.05108e-05
9.97476e-06
8.35146e-06
1.01814e-05
1.01068e-05
5.53555e-06
1.04297e-05
1.05853e-05
1.05656e-05
1.08509e-05
1.04898e-05
1.05778e-05
6.32579e-06
1.07055e-05
1.04044e-05
1.05494e-05
1.0598e-05
1.03568e-05
4.99807e-06
7.2525e-06
9.91678e-06
1.03805e-05
9.95025e-06
1.0433e-05
9.2374e-06
1.03697e-05
1.03792e-05
1.05853e-05
1.05671e-05
1.016e-05
9.54084e-06
1.0587e-05
1.05745e-05
1.02067e-05
1.05764e-05
7.47387e-06
1.05562e-05
1.04311e-05
9.91382e-06
1.04615e-05
1.00021e-05
9.9549e-06
1.01775e-05
1.0565e-05
1.03852e-05
1.03146e-05
1.05733e-05
1.0585e-05
7.87162e-06
1.05808e-05
8.34357e-06
1.058e-05
1.0367e-05
1.02668e-05
1.05972e-05
1.02005e-05
1.05877e-05
1.04932e-05
1.04545e-05
1.05798e-05
1.02266e-05
1.00843e-05
1.03499e-05
1.05932e-05
1.00702e-05
1.0576e-05
9.98935e-06
8.00849e-06
1.05826e-05
7.8923e-06
1.0653e-05
1.0584e-05
1.05742e-05
1.05526e-05
1.02736e-05
1.05637e-05
1.06058e-05
1.03057e-05
1.05275e-05
1.69623e-06
1.68435e-06
1.66047e-06
7.4295e-06
1.05735e-05
1.05399e-05
1.00827e-05
9.80864e-06
1.05415e-05
1.00916e-05
1.05805e-05
1.05621e-05
1.09281e-05
1.10338e-05
1.07027e-05
1.05899e-05
1.01368e-05
7.78573e-06
1.05165e-05
1.01301e-05
1.01863e-05
8.28329e-06
1.05322e-05
1.05857e-05
1.04864e-05
1.0458e-05
1.04798e-05
1.03513e-05
1.04147e-05
1.05739e-05
1.05568e-05
1.04631e-05
5.65764e-06
7.5644e-06
1.05746e-05
7.50907e-06
7.10072e-06
9.93953e-06
7.75842e-06
1.05867e-05
1.00865e-05
1.03676e-05
1.05716e-05
1.05549e-05
1.04112e-05
1.03766e-05
7.07598e-06
1.05645e-05
1.02934e-05
6.58332e-06
1.05097e-05
1.04302e-05
1.0495e-05
1.05257e-05
1.05702e-05
1.03094e-05
1.01935e-05
1.06446e-05
1.03484e-05
1.03282e-05
3.87531e-06
1.02217e-05
1.05266e-05
1.05823e-05
1.05622e-05
1.01401e-05
1.04782e-05
6.79155e-07
1.0676e-05
1.86022e-06
1.0558e-05
1.04393e-05
1.05493e-05
1.0585e-05
1.05786e-05
1.03733e-05
1.04905e-05
9.99501e-06
1.0548e-05
3.48866e-06
1.27559e-06
3.23981e-06
1.55221e-06
2.38981e-06
6.04969e-06
5.78701e-06
2.67607e-06
1.0548e-05
1.05198e-05
1.05477e-05
1.05658e-05
1.05753e-05
6.28613e-06
9.91505e-06
1.05581e-05
1.01693e-05
1.0193e-05
1.02011e-05
6.51378e-06
1.05802e-05
1.02073e-05
1.05924e-05
1.04621e-05
1.05583e-05
1.05735e-05
1.01405e-05
1.05365e-05
1.03421e-05
1.05794e-05
1.03944e-05
9.47325e-06
1.05579e-05
1.06003e-05
1.05856e-05
1.04388e-05
1.05312e-05
1.04921e-05
1.05599e-05
1.05676e-05
1.02843e-05
1.05306e-05
1.03744e-05
3.97052e-06
1.0557e-05
1.05237e-05
1.05609e-05
1.04502e-05
6.90131e-06
1.02455e-05
2.74116e-06
1.04446e-05
1.03114e-05
1.05461e-05
1.0593e-05
1.00072e-06
1.00088e-05
1.05873e-05
1.05164e-05
1.05855e-05
9.78085e-06
1.02977e-05
1.05365e-05
1.05275e-05
1.00869e-05
1.05336e-05
1.02128e-05
1.05811e-05
9.64924e-06
1.05666e-05
1.03276e-05
1.03326e-05
1.05371e-05
9.99989e-06
1.03105e-05
1.01014e-05
1.02693e-05
1.05775e-05
1.03414e-05
1.0236e-05
4.95174e-06
1.0569e-05
1.03901e-05
1.05595e-05
1.04869e-05
1.05783e-05
1.02093e-05
9.51532e-06
3.67349e-06
1.05702e-05
1.05825e-05
8.62934e-06
8.37821e-06
1.05077e-05
1.0566e-05
1.05631e-05
1.05867e-05
1.07235e-05
9.76539e-07
1.02427e-06
1.01034e-06
1.02987e-06
1.28622e-06
1.2619e-06
1.27866e-06
3.46957e-06
1.47579e-06
6.62801e-06
3.50857e-06
3.53084e-06
5.82994e-06
4.8044e-06
3.8341e-06
1.55437e-06
1.04481e-05
1.0554e-05
1.01027e-05
9.93763e-06
1.05821e-05
9.7684e-06
3.17982e-06
2.25991e-06
1.40976e-06
5.63025e-06
2.08073e-06
6.36038e-06
1.04149e-05
6.20387e-06
3.12658e-06
1.62858e-06
1.0089e-05
7.9366e-06
4.87786e-06
1.02551e-05
1.056e-05
1.05808e-05
7.15245e-06
1.03972e-05
8.81697e-07
9.24182e-07
9.11407e-07
9.29125e-07
1.05313e-05
1.05831e-05
1.01543e-05
1.05947e-05
1.03777e-05
1.0555e-05
1.03744e-05
4.56698e-06
7.68732e-06
5.19241e-06
3.3336e-06
3.35282e-06
3.31483e-06
3.65011e-06
6.08515e-06
3.12767e-06
6.10402e-06
6.68371e-06
2.3203e-06
1.41139e-06
1.17644e-06
1.05485e-05
1.03703e-05
9.99333e-06
1.05768e-05
1.05027e-05
8.31222e-06
1.00606e-05
1.03703e-05
3.32629e-06
5.55439e-06
6.28804e-06
2.42449e-06
2.26178e-06
9.28717e-07
1.05578e-05
1.01888e-05
1.03597e-05
1.05996e-05
1.05571e-05
1.05652e-05
1.05791e-05
1.00922e-05
6.77299e-06
1.05539e-05
6.92617e-06
1.05094e-05
1.03087e-05
1.05573e-05
1.05947e-05
1.03579e-05
1.05917e-05
1.05911e-05
1.05066e-05
1.02644e-05
1.05814e-05
1.00552e-05
1.04268e-05
1.06046e-05
1.05763e-05
1.05327e-05
1.05737e-05
1.05855e-05
1.05834e-05
1.03272e-05
7.12997e-06
1.01007e-05
1.05604e-05
1.00554e-05
1.01131e-05
1.05821e-05
1.02875e-05
1.04513e-05
7.27719e-06
9.19366e-06
1.04283e-05
1.04798e-05
1.03419e-05
1.05768e-05
1.03353e-05
1.05684e-05
1.05763e-05
1.05747e-05
1.03119e-05
1.04118e-05
9.78416e-06
6.60185e-07
6.84042e-07
6.9527e-07
6.9327e-07
1.01712e-05
1.0549e-05
1.04229e-05
1.60023e-06
1.05526e-05
7.8563e-06
1.05357e-05
1.05916e-05
1.03079e-05
1.0584e-05
1.05827e-05
1.03483e-05
1.05657e-05
2.85392e-06
1.03522e-05
1.05732e-05
1.05847e-05
1.00013e-05
1.02265e-05
1.05853e-05
1.04459e-05
1.00547e-05
1.05702e-05
1.05846e-05
1.02911e-05
1.05411e-05
1.05905e-05
1.05698e-05
1.00175e-05
1.05531e-05
1.05807e-05
1.05671e-05
1.00615e-05
1.0459e-05
1.03805e-05
1.01797e-05
1.49456e-06
1.4721e-06
1.50343e-06
7.46514e-06
1.05793e-05
1.05781e-05
1.05686e-05
1.05679e-05
1.06262e-05
1.05605e-05
9.84719e-06
1.0371e-05
1.05622e-05
1.05905e-05
1.05645e-05
1.05662e-05
1.05728e-05
7.79094e-06
1.05839e-05
1.00912e-05
1.05928e-05
1.01212e-05
9.62588e-06
1.05792e-05
1.0391e-05
1.02678e-05
1.05911e-05
1.0491e-05
1.05773e-05
1.01693e-05
1.05829e-05
8.33464e-06
1.05424e-05
1.05825e-05
1.05594e-05
1.05809e-05
1.05845e-05
1.05205e-05
1.05704e-05
1.0271e-05
1.05951e-05
1.05706e-05
1.05765e-05
1.04358e-05
1.05494e-05
1.05768e-05
1.05516e-05
1.02506e-05
9.9091e-06
1.03081e-05
1.03479e-05
1.05681e-05
1.05436e-05
1.05526e-05
1.05452e-05
1.05242e-05
1.75168e-07
1.20107e-07
1.77495e-07
1.82441e-07
1.82733e-07
1.05805e-05
1.05833e-05
1.05652e-05
1.05915e-05
1.05638e-05
1.05685e-05
1.05856e-05
1.02967e-05
1.04757e-05
1.05728e-05
1.05855e-05
1.05723e-05
1.0595e-05
1.05506e-05
1.02775e-05
1.04626e-05
1.05614e-05
1.05815e-05
7.38406e-06
1.0569e-05
1.05087e-05
1.05752e-05
7.9323e-06
1.0541e-05
1.05909e-05
9.17099e-06
1.0222e-05
9.67663e-06
1.02912e-05
9.6475e-06
1.02389e-05
1.0597e-05
1.05778e-05
1.03907e-05
1.05672e-05
1.04117e-05
8.77028e-06
1.0484e-05
1.04685e-05
1.0578e-05
1.00151e-05
1.05687e-05
1.05619e-05
1.05886e-05
9.95989e-06
1.02665e-05
1.05418e-05
1.01402e-05
1.05898e-05
1.04248e-05
1.06619e-05
1.0468e-05
7.96593e-06
1.05793e-05
1.03988e-05
1.01311e-05
1.00521e-05
1.05553e-05
9.80811e-06
1.0567e-05
1.06846e-05
1.03256e-05
1.05649e-05
1.05872e-05
6.64221e-06
1.05784e-05
1.04004e-05
1.05932e-05
1.05877e-05
1.04059e-05
8.13085e-06
1.05884e-05
1.05787e-05
1.05642e-05
1.05774e-05
1.05368e-05
8.07519e-06
1.05625e-05
1.05701e-05
1.05761e-05
7.50636e-06
1.05671e-05
1.05794e-05
1.05786e-05
1.058e-05
1.06184e-05
1.04079e-05
1.05778e-05
1.05621e-05
1.05944e-05
8.1351e-06
1.06847e-05
1.05469e-05
1.05796e-05
1.03353e-05
1.02455e-05
1.05686e-05
1.06664e-05
9.83503e-06
1.02748e-05
7.0163e-06
7.87344e-06
1.05721e-05
1.05701e-05
5.10634e-07
1.0558e-05
7.46803e-06
1.05822e-05
1.05875e-05
7.02327e-06
6.57381e-06
6.0727e-06
6.16898e-06
6.92854e-06
6.00212e-06
5.04484e-06
3.9725e-06
6.92171e-06
2.61464e-06
2.1398e-06
2.445e-06
3.16417e-06
3.18486e-06
7.23408e-06
3.58944e-06
2.61561e-06
5.75767e-06
6.63512e-06
3.47657e-06
5.00307e-06
4.16905e-06
4.19412e-06
7.59003e-06
6.54466e-06
2.36628e-06
6.55315e-06
3.90479e-06
5.39774e-06
2.15537e-06
5.5398e-06
4.87917e-06
1.59915e-06
3.92785e-06
5.47745e-06
5.55589e-06
2.1215e-06
7.16767e-06
1.99913e-06
5.56781e-06
2.1554e-06
2.18032e-06
5.81767e-06
6.14938e-06
2.19472e-06
3.0142e-06
3.03389e-06
6.46498e-06
5.08537e-06
6.64751e-06
5.59583e-06
6.93878e-06
3.11209e-06
5.10782e-06
2.74946e-06
1.64371e-06
5.2453e-06
4.57645e-06
6.00621e-06
3.04933e-06
2.75245e-06
7.40878e-06
5.03368e-06
3.3808e-06
3.84462e-06
3.11835e-06
6.69896e-06
1.4685e-06
2.73331e-06
1.96356e-06
4.07181e-06
5.04519e-06
4.35359e-06
6.80656e-06
4.1205e-06
7.7901e-06
9.16821e-07
4.1524e-06
7.26171e-06
4.36346e-06
2.22021e-06
2.18257e-06
2.19612e-06
7.32464e-06
6.82919e-06
3.15256e-06
6.91559e-06
2.43906e-06
7.55168e-06
3.24736e-06
3.34501e-06
2.8044e-06
2.03834e-06
2.4759e-06
2.02474e-06
3.28626e-06
2.4902e-06
5.46124e-06
2.17506e-06
1.22601e-06
2.99576e-06
6.2447e-06
6.99693e-06
2.84237e-06
1.03044e-06
2.7713e-06
6.32944e-06
5.4167e-06
5.81914e-06
3.59751e-06
4.40606e-06
5.68402e-06
1.40541e-06
3.15417e-06
3.68871e-06
3.9526e-06
5.58936e-06
2.51803e-06
3.51788e-06
1.76122e-06
2.00925e-06
5.79964e-06
3.85816e-06
1.75929e-06
1.12069e-06
6.21127e-06
5.68734e-06
5.67683e-06
1.32163e-06
4.14136e-06
1.50048e-06
5.9279e-06
3.2884e-06
6.72209e-06
1.30179e-06
5.86233e-06
2.46978e-06
6.11515e-06
5.31122e-06
6.28881e-06
5.16815e-06
5.68322e-06
5.56432e-06
2.19003e-06
4.30016e-06
2.95424e-06
7.19022e-06
1.98108e-06
5.72455e-06
2.22139e-06
5.52958e-06
4.22841e-06
2.55386e-06
5.28032e-06
2.28149e-06
4.39431e-06
3.93674e-06
3.95968e-06
5.13104e-06
3.73353e-06
3.07369e-06
1.58477e-06
2.75064e-06
5.22538e-06
6.48998e-06
4.10747e-06
3.79708e-06
5.6242e-06
1.41668e-06
5.26323e-06
2.53765e-06
7.65714e-06
5.86524e-06
8.81324e-06
1.02826e-05
1.1482e-06
6.20977e-06
2.98806e-06
5.32543e-06
5.87923e-06
1.05472e-05
6.9996e-06
5.73079e-06
1.89569e-06
3.17042e-06
4.33194e-06
7.98037e-06
8.5501e-06
6.63883e-06
3.00756e-06
2.86705e-06
4.35838e-06
1.70966e-06
2.83011e-06
2.87067e-06
3.16706e-06
2.75723e-06
6.37075e-06
6.38927e-06
8.01401e-06
6.94431e-06
1.30363e-06
7.0824e-06
1.94232e-06
6.60948e-06
4.67254e-06
6.17792e-06
5.70879e-06
6.22051e-06
1.90992e-06
2.57625e-06
2.50769e-06
3.3822e-06
6.68135e-06
2.81117e-06
1.89e-06
8.20485e-06
5.41573e-06
3.85757e-06
1.95637e-06
1.94655e-06
3.9214e-06
3.89432e-06
2.80612e-06
2.28089e-06
6.73403e-06
5.27066e-06
7.56246e-06
1.71701e-06
3.89687e-06
2.05474e-06
3.70202e-06
2.14606e-06
7.62675e-06
3.75838e-06
3.19515e-06
5.45838e-06
4.06188e-06
5.86047e-06
2.40478e-06
1.13368e-06
1.22165e-06
4.20727e-06
6.55432e-06
5.12039e-06
5.80881e-06
2.40627e-06
5.8263e-06
5.34659e-06
3.95386e-06
3.34185e-06
5.526e-06
5.27044e-06
3.82566e-06
1.39808e-06
2.99443e-06
5.3728e-06
2.78297e-06
4.0988e-06
1.80386e-06
2.95556e-06
6.30222e-06
5.00838e-06
6.21956e-06
2.66647e-06
1.07861e-06
2.42462e-06
4.15488e-06
7.84496e-06
1.96818e-06
2.58743e-06
5.21926e-06
3.00724e-06
5.86994e-06
3.23123e-06
5.10238e-06
2.56409e-06
7.05973e-06
1.33829e-06
2.39329e-06
3.35137e-06
5.8873e-06
4.00074e-06
2.58765e-06
2.58186e-06
2.95494e-06
7.2353e-06
3.48658e-06