/*--------------------------------*- C++ -*----------------------------------*\
  =========                 |
  \\      /  F ield         | OpenFOAM: The Open Source CFD Toolbox
   \\    /   O peration     | Website:  https://openfoam.org
    \\  /    A nd           | Version:  8
     \\/     M anipulation  |
\*---------------------------------------------------------------------------*/
FoamFile
{
    version     2.0;
    format      ascii;
    class       surfaceScalarField;
    location    "6.8";
    object      phi;
}
// * * * * * * * * * * * * * * * * * * * * * * * * * * * * * * * * * * * * * //

dimensions      [0 3 -1 0 0 0 0];

internalField   nonuniform List<scalar> 
15173
(
6.5764e-09
-5.80146e-09
-2.30986e-10
-5.43947e-10
5.08757e-09
-1.66147e-10
1.07026e-10
-5.02844e-09
-3.95861e-11
5.22715e-09
-5.18024e-09
-7.3204e-12
8.52087e-09
-2.8152e-10
5.36066e-10
-8.77541e-09
-6.03097e-09
6.3169e-09
-2.32048e-10
-5.38825e-11
7.08483e-10
-9.25332e-09
9.00167e-09
-4.56834e-10
-4.28101e-09
-7.9024e-10
1.14086e-09
3.93039e-09
5.29661e-09
-5.31485e-09
3.86876e-10
-3.68636e-10
-2.03832e-09
2.16007e-09
5.72733e-11
-1.79026e-10
6.80966e-10
-3.4017e-10
4.63724e-09
-4.97804e-09
5.25716e-09
-5.28792e-09
6.87075e-11
-3.79473e-11
6.83888e-09
-4.67831e-11
-2.157e-10
-2.55837e-09
2.44374e-09
-1.86863e-09
1.98326e-09
5.25147e-09
-5.20418e-09
2.91873e-10
-3.39163e-10
-4.86262e-09
5.09913e-09
8.44656e-11
-3.20975e-10
2.80898e-09
-3.08364e-09
2.74659e-10
5.23583e-09
1.13184e-10
-9.18548e-11
-4.15662e-10
-1.02208e-10
-4.34475e-09
8.65794e-10
-7.78849e-10
-8.6945e-11
-2.87107e-09
-8.94878e-10
1.37675e-09
2.3892e-09
2.07593e-09
-4.77694e-11
-2.10228e-09
7.41198e-11
-3.26968e-09
2.904e-09
3.15997e-09
-2.79429e-09
-5.2828e-09
4.50699e-11
-5.01921e-11
6.03998e-09
4.5417e-10
-6.28507e-09
-2.09075e-10
7.12971e-09
6.64323e-10
-7.13223e-10
-7.08081e-09
-1.55118e-10
5.03432e-11
-5.65175e-11
1.61292e-10
5.30701e-09
-7.39741e-09
2.56314e-09
-4.72738e-10
-1.98984e-09
3.52238e-09
-2.2496e-09
7.17052e-10
8.00587e-09
-6.06844e-09
5.18368e-10
-2.45581e-09
-2.75675e-10
7.68372e-10
8.02817e-09
-5.93279e-09
-5.06725e-09
7.70828e-09
3.29176e-09
5.98789e-09
4.95112e-10
-1.02965e-10
-6.38004e-09
7.6973e-09
2.64516e-09
-8.75376e-09
-1.5887e-09
8.51304e-10
-1.21224e-09
5.25299e-09
-4.89205e-09
4.92937e-09
1.50653e-10
-4.95734e-09
-1.22684e-10
5.04901e-09
1.397e-09
-6.41848e-09
-2.75255e-11
4.98385e-09
-5.13049e-09
-9.82574e-11
2.44894e-10
-5.16666e-09
-6.87389e-09
3.15932e-09
8.88123e-09
-1.25905e-09
-8.69018e-09
8.2991e-09
1.65013e-09
-6.34304e-09
1.77978e-09
-3.02313e-10
4.86558e-09
5.18859e-09
-1.06765e-10
1.73005e-11
5.26996e-09
6.73044e-10
-5.08457e-10
-5.43454e-09
-6.634e-09
6.59574e-09
-7.88387e-12
4.6142e-11
5.04483e-09
1.33381e-11
2.94014e-11
-1.84571e-09
1.85704e-10
-3.78316e-10
-3.58007e-09
1.76079e-10
-2.89109e-10
3.6931e-09
-1.17963e-10
8.66274e-11
2.7321e-09
1.52234e-10
-3.70188e-09
8.17539e-10
-5.51893e-09
-7.07418e-11
5.55008e-09
-1.17903e-10
3.01131e-10
-2.73173e-10
8.99454e-11
-1.70828e-09
-2.53285e-09
1.68275e-09
4.9746e-09
1.19421e-10
-4.91914e-11
6.09214e-09
2.9287e-10
-5.76198e-09
-6.23031e-10
6.81309e-10
-5.77152e-09
5.93619e-09
-8.4598e-10
-8.64362e-09
2.15326e-09
6.72986e-09
-2.39496e-10
8.097e-10
-7.3646e-10
6.00849e-11
-1.33324e-10
-8.80553e-10
7.51558e-10
-2.9175e-09
3.04649e-09
5.3547e-10
-5.37048e-09
8.23868e-10
4.01114e-09
-6.55425e-09
6.68374e-09
-2.18548e-10
8.9054e-11
-1.69677e-09
-7.48717e-10
1.82595e-09
6.19532e-10
6.52456e-09
-6.58029e-09
-3.67136e-11
9.24413e-11
-7.09444e-09
6.25523e-09
3.52506e-09
-2.68585e-09
-1.90769e-09
3.65072e-09
-3.6138e-09
1.87077e-09
3.63276e-09
4.97345e-09
-1.58067e-09
-7.02555e-09
-7.57609e-09
1.83282e-10
3.65767e-10
7.02704e-09
2.90991e-11
7.03231e-09
-6.56998e-11
-6.99571e-09
6.58437e-09
-6.57438e-09
1.91055e-11
-1.01761e-10
-6.01651e-10
8.35573e-11
6.19855e-10
1.98129e-09
-5.99782e-10
-5.66253e-09
7.46949e-11
-4.85466e-11
6.49841e-09
2.69945e-09
-2.63377e-09
-2.35557e-09
2.2899e-09
5.26991e-09
-1.91548e-10
-5.23362e-09
1.55255e-10
-3.31532e-10
1.1914e-09
7.13365e-09
-7.99352e-09
-1.68372e-09
8.90031e-10
-9.03084e-10
2.68223e-09
2.03818e-09
-2.02095e-09
-4.24902e-09
4.20216e-09
4.68652e-11
1.47634e-12
-1.73106e-11
-6.61816e-09
-5.24231e-11
6.78758e-11
-1.3347e-10
-5.40455e-09
6.26796e-10
4.91122e-09
-2.25414e-09
4.34607e-09
7.26476e-09
-3.43853e-09
-3.44992e-09
4.37844e-09
2.51001e-09
-7.17497e-09
7.42376e-09
-3.66571e-10
1.17775e-10
-1.0264e-09
8.81006e-10
-5.05878e-09
-3.59404e-09
4.48153e-09
3.52767e-09
-4.41517e-09
4.72034e-09
-4.37104e-09
-3.493e-10
4.95257e-09
-1.12181e-10
-3.59548e-09
-1.24491e-09
2.08307e-09
3.88298e-09
-3.88598e-09
-2.08006e-09
-6.46678e-09
6.49749e-09
-3.76539e-11
6.93595e-12
-5.2277e-09
2.89624e-09
-2.60596e-09
4.93742e-09
1.84468e-09
-3.39744e-09
-5.69136e-10
2.1219e-09
1.7082e-09
4.35496e-11
3.24187e-10
-5.04581e-09
5.06071e-09
1.88845e-11
-3.37918e-11
7.16386e-11
4.89656e-10
-8.9198e-11
-4.72097e-10
-6.35322e-09
-5.36137e-09
5.7818e-09
1.34176e-09
4.41463e-09
-4.14014e-09
-1.61626e-09
-4.87898e-09
2.37324e-09
-4.61383e-09
7.11956e-09
-1.89415e-10
6.37718e-10
-4.94637e-10
4.63334e-11
3.38384e-09
-5.03671e-09
-3.10781e-09
4.76068e-09
-3.20217e-09
3.31442e-09
2.40974e-09
-2.52198e-09
2.41439e-11
-4.27317e-09
6.22019e-09
1.54192e-09
-1.79627e-09
-5.96583e-09
6.3478e-09
-3.20054e-09
-4.08475e-09
9.37487e-10
4.7896e-09
1.62826e-09
-2.11769e-09
-4.30017e-09
7.91524e-09
9.31977e-10
-7.27697e-09
-1.57025e-09
3.09878e-09
2.62237e-10
-6.59571e-10
-2.70144e-09
7.91568e-09
-8.24721e-09
-4.25288e-10
7.03352e-11
4.26591e-10
-2.61067e-09
-2.54449e-09
2.52138e-09
5.39399e-09
-4.65883e-09
-4.65696e-09
3.9218e-09
-4.78217e-09
4.68343e-09
1.93903e-10
-9.51624e-11
5.62992e-09
-5.3602e-09
4.84934e-09
-5.11906e-09
-1.92705e-09
1.74395e-09
4.76045e-09
-4.57735e-09
-7.34751e-09
-2.6752e-09
2.92826e-09
5.19491e-09
-9.85701e-11
4.96874e-12
-5.10131e-09
2.85395e-09
-3.98228e-10
1.29944e-09
-3.75516e-09
6.49436e-09
-1.88723e-10
1.30703e-10
-6.43634e-09
-5.68958e-09
-2.69095e-09
3.15283e-09
-6.84517e-09
5.30033e-11
6.82935e-09
-3.71876e-11
-1.31946e-10
9.80872e-10
2.24985e-09
-4.96895e-09
4.9953e-09
3.31389e-11
-5.94916e-11
-7.28794e-10
-5.35414e-09
5.19637e-11
-6.47402e-09
-6.02884e-10
7.91615e-10
6.28529e-09
2.00701e-10
5.36461e-09
-4.28288e-10
-5.13703e-09
2.9186e-10
5.95248e-09
-6.10085e-09
-1.43491e-10
3.9144e-09
-3.45341e-09
-1.66891e-09
1.20792e-09
-3.14857e-09
-6.3416e-12
2.27436e-09
-5.39285e-09
-3.49635e-10
4.86208e-09
8.80411e-10
-6.81509e-10
7.63577e-10
-4.11171e-09
4.02964e-09
-1.63056e-09
7.45874e-10
-4.17356e-09
5.05825e-09
1.10153e-09
-8.96202e-09
8.56897e-09
-5.02633e-09
3.52058e-11
-5.46815e-11
3.24624e-09
-2.51295e-09
1.79424e-09
-2.52753e-09
1.66559e-09
-1.10396e-09
-3.60362e-09
3.04199e-09
-6.12708e-09
-8.40379e-10
6.23867e-09
-4.96545e-09
-1.81273e-10
4.87136e-11
5.09801e-09
4.83842e-09
2.5891e-10
-1.13481e-10
9.41446e-09
8.59558e-10
-9.03871e-09
-1.23531e-09
-2.17787e-09
-3.85885e-09
4.20242e-09
1.8343e-09
1.09527e-10
-5.14234e-11
-6.47647e-09
6.0889e-12
3.60923e-12
3.10908e-09
2.88383e-09
-2.07851e-09
-6.12883e-10
6.30336e-10
-4.83724e-09
4.81979e-09
-4.7291e-09
3.71902e-09
-3.84453e-10
1.39453e-09
1.1059e-08
-6.52209e-09
-7.31713e-09
2.78026e-09
-6.69174e-11
5.27165e-10
2.94083e-11
7.40434e-09
-2.34171e-09
1.77301e-09
-6.83564e-09
1.23293e-09
5.21445e-09
-1.17742e-09
-4.79822e-09
-2.67789e-10
1.0056e-10
5.87119e-09
-5.49356e-09
2.22368e-09
-2.60131e-09
-4.33957e-09
-8.24779e-10
4.48284e-09
5.81471e-09
-6.93687e-09
-1.37968e-10
1.26013e-09
-3.31507e-09
-3.13932e-09
2.73373e-09
3.72066e-09
4.97672e-09
-2.73083e-09
-3.38594e-09
1.14005e-09
-4.88625e-09
4.91219e-09
3.25043e-11
-5.84409e-11
6.55041e-09
-1.04692e-11
-4.07953e-12
-6.53586e-09
-4.77588e-09
4.77609e-09
-2.06355e-11
2.04296e-11
9.87819e-10
-1.76991e-09
-2.231e-09
3.01309e-09
-5.28389e-10
2.51644e-09
1.25818e-09
-5.23923e-09
5.23842e-09
-1.63036e-11
1.71179e-11
-5.38786e-09
5.56785e-09
-2.34314e-10
5.43233e-11
-1.11999e-09
3.77359e-09
-5.77882e-10
-2.07572e-09
-4.82355e-09
4.80952e-09
-3.05113e-11
4.45402e-11
2.03535e-09
7.077e-09
-7.41422e-09
-1.69814e-09
-4.8874e-09
4.86374e-09
-3.58613e-11
5.95181e-11
-5.22045e-09
5.18845e-09
-3.0823e-11
6.28241e-11
5.25667e-09
2.64647e-10
-2.24703e-10
4.07697e-09
-4.12934e-09
-3.54167e-09
1.19556e-09
-1.83159e-09
-1.03858e-08
5.07258e-10
-5.53407e-09
-3.83204e-10
5.41002e-09
-4.94383e-09
4.92916e-09
-3.12667e-11
4.59329e-11
-5.22767e-09
5.20299e-09
1.73888e-10
-1.49208e-10
-5.13473e-09
5.10731e-09
-3.1235e-11
5.86519e-11
-4.98007e-09
4.97039e-09
-2.63726e-11
3.60469e-11
2.84971e-09
-4.01978e-09
2.12906e-09
-9.58995e-10
-5.04993e-09
5.02972e-09
-3.29393e-11
5.31477e-11
-1.21717e-09
2.8137e-09
-2.71651e-09
-2.21175e-10
-4.69179e-09
4.91296e-09
-2.16328e-09
6.81009e-10
-6.18732e-10
2.101e-09
-1.79369e-11
4.20993e-09
-4.19199e-09
-2.52457e-11
-4.57015e-11
6.90983e-09
-1.71257e-10
4.8916e-09
3.2454e-09
2.79292e-09
-2.92798e-09
-3.11034e-09
-1.84923e-09
9.18668e-10
-9.90626e-10
1.92119e-09
-5.22919e-12
-6.85413e-12
-4.74578e-09
5.67085e-11
-1.47916e-10
4.83699e-09
3.11548e-09
-2.68394e-09
1.6483e-09
-2.07983e-09
-4.08035e-10
7.40644e-11
-9.13175e-11
-5.55611e-09
4.23523e-09
-6.06172e-10
3.94135e-09
-3.92149e-09
-1.98681e-11
-3.69583e-09
3.79391e-09
1.7466e-09
5.24103e-09
5.43289e-11
-2.54458e-11
-2.05631e-10
-3.01323e-09
3.21886e-09
8.40283e-09
-5.44723e-09
-3.42572e-09
4.7012e-10
1.86909e-09
2.12842e-10
-3.2991e-09
-3.4023e-11
2.00307e-10
5.05403e-09
-5.22031e-09
-1.01765e-09
1.09045e-09
9.86153e-10
-1.05895e-09
-3.31824e-11
2.55113e-10
-2.31061e-11
-1.98825e-10
-1.13104e-09
-3.34952e-09
1.60949e-09
-6.4702e-09
-1.40999e-12
-4.86275e-12
-4.64487e-09
-3.44622e-10
1.91273e-10
4.88566e-09
-8.33309e-11
1.72263e-10
3.02695e-11
-8.70214e-11
6.31355e-11
-2.82094e-11
5.02579e-09
-2.11212e-10
1.98241e-10
-6.37581e-09
6.38879e-09
-8.00847e-11
-5.03074e-09
5.11082e-09
-8.87569e-10
8.70449e-10
-1.00053e-09
6.97885e-09
-4.44304e-10
1.49196e-10
6.25061e-10
-1.15381e-10
-1.89134e-09
1.38166e-09
7.65841e-11
1.6706e-10
-6.48847e-11
-1.7876e-10
-4.93434e-09
2.58849e-11
-6.04956e-11
2.63861e-09
-2.40742e-09
-5.84211e-09
5.61093e-09
1.95895e-10
-9.23967e-11
2.3106e-09
-1.88604e-09
-4.24559e-10
-1.54377e-09
9.59389e-10
7.7141e-09
-6.4767e-09
-5.22623e-11
6.51102e-09
-4.76675e-10
2.76212e-10
-4.44441e-09
-1.30924e-09
1.80333e-09
-5.22319e-09
-6.23963e-09
6.1735e-09
-1.45078e-10
1.48856e-11
1.50488e-11
-2.99344e-11
-6.4361e-09
7.16535e-10
6.40087e-09
-5.05216e-09
1.42921e-09
2.85737e-09
7.65582e-10
5.09145e-09
5.28332e-10
-4.11221e-09
-1.50757e-09
5.67773e-09
3.9263e-09
-5.23661e-09
4.27914e-11
-2.66368e-11
3.39463e-09
5.73617e-09
-5.54444e-09
-3.58636e-09
-6.14996e-09
-5.62813e-09
5.42487e-09
-7.48015e-09
1.64302e-09
-1.51029e-09
7.34742e-09
1.23796e-11
6.59614e-09
2.25891e-11
-2.07811e-11
3.52844e-09
5.30194e-09
-2.57516e-09
3.90463e-09
-1.01907e-10
-4.22118e-09
4.18465e-10
6.7762e-11
-1.25091e-10
-3.50706e-10
-1.97571e-10
2.36255e-11
-4.85818e-11
2.22527e-10
1.44206e-10
-5.54801e-09
5.54649e-09
-1.4268e-10
3.25932e-09
-2.97652e-09
3.25635e-09
-3.53915e-09
-6.45757e-09
-6.3617e-11
4.44852e-11
-5.24383e-09
-7.11019e-10
5.45086e-09
5.03991e-10
1.61955e-09
-4.57202e-09
-1.80192e-09
4.75439e-09
-1.06423e-11
7.6039e-12
6.55345e-09
8.22511e-09
-6.97068e-09
-5.64323e-10
-6.90106e-10
6.23515e-09
-6.15055e-09
1.13636e-10
4.60743e-09
-4.73804e-09
-5.93347e-11
1.89948e-10
2.35814e-10
6.45937e-09
-4.60027e-10
-4.47707e-09
-7.36834e-11
8.15388e-11
4.46922e-09
-4.42037e-09
2.01297e-09
3.84695e-09
-1.43956e-09
4.22897e-09
-1.90377e-11
-9.42004e-09
-1.74791e-10
8.78613e-09
8.087e-10
-5.93094e-09
-4.44894e-09
5.21323e-09
-4.5124e-09
3.69178e-11
4.47399e-09
1.4936e-12
-2.40267e-10
5.28665e-09
-5.16712e-09
1.20736e-10
1.54136e-09
7.03844e-09
-8.55256e-09
-2.72483e-11
1.73291e-10
-1.5001e-10
2.09839e-11
-4.42646e-11
-3.01433e-11
3.9715e-09
6.41454e-09
-6.40015e-09
-5.54725e-11
4.10856e-11
-3.74937e-09
1.43727e-11
3.735e-09
6.34541e-09
-5.31559e-10
3.56922e-10
-6.17078e-09
4.22363e-09
-2.45813e-09
-3.94337e-09
3.07988e-11
-7.3825e-11
1.17828e-08
5.2156e-10
-4.38908e-09
4.7155e-09
-3.35947e-09
1.54541e-09
-2.90144e-09
5.93601e-09
1.21617e-09
-1.46436e-09
-5.68782e-09
-3.33898e-09
2.9916e-09
1.39828e-09
-1.05091e-09
-2.70736e-10
-6.54268e-09
1.77454e-10
6.63596e-09
-6.31475e-09
6.33331e-09
-5.38222e-11
3.52566e-11
6.39067e-09
-2.4952e-11
1.05084e-10
-6.4708e-09
-6.46382e-09
1.11486e-10
6.8136e-09
-4.61267e-10
8.10118e-10
-8.97853e-10
-7.99835e-10
-5.16378e-09
5.90609e-11
-3.00068e-11
-4.65039e-11
2.22242e-11
-4.49985e-09
1.1981e-09
4.92129e-09
-3.18498e-09
-2.76843e-09
3.73566e-09
2.21775e-09
-2.04028e-10
2.27198e-10
-2.317e-11
2.70479e-09
-2.60209e-09
-2.71337e-09
-1.72497e-09
-5.47218e-09
8.34559e-10
6.36259e-09
-6.2463e-09
6.26541e-09
-3.78842e-11
1.8774e-11
2.93585e-09
-5.0936e-09
4.24082e-09
4.51003e-11
-6.36738e-09
6.34961e-09
-2.73291e-11
-5.52888e-09
1.33814e-10
5.53927e-09
-1.94473e-09
-3.55018e-09
1.5204e-09
3.97451e-09
3.34047e-09
-3.37449e-09
6.52659e-09
-6.522e-09
-1.68721e-11
1.22767e-11
-6.3717e-09
-6.22933e-11
3.38411e-11
-6.39901e-11
3.29609e-11
1.44499e-09
-4.25809e-09
-2.23905e-09
-1.97154e-09
4.22441e-09
-1.27912e-09
1.27774e-09
1.09183e-09
-1.74375e-09
1.98174e-09
-3.18345e-09
2.94546e-09
9.56568e-12
-2.31073e-10
-5.54084e-09
5.76234e-09
-6.51901e-09
1.73431e-10
-1.60074e-10
6.50565e-09
-4.84915e-09
3.2618e-11
-6.97238e-11
-1.27854e-10
1.98971e-11
-4.20533e-11
-5.23152e-09
5.39821e-09
2.45712e-09
-2.6238e-09
-2.54499e-09
-8.35358e-09
5.45134e-09
5.50749e-09
5.60217e-10
-2.52998e-10
4.20003e-09
-3.29374e-09
-1.51169e-09
6.05393e-10
4.45623e-10
5.7985e-09
-2.85059e-09
-3.39353e-09
-4.33903e-09
-4.4589e-11
3.36788e-11
4.34994e-09
-7.88917e-09
4.62575e-09
-3.84999e-09
7.1134e-09
2.38077e-09
-2.52501e-09
-4.80281e-09
4.94704e-09
6.16425e-09
-1.16722e-11
-6.16676e-09
1.4175e-11
-2.30154e-09
1.95316e-09
2.58935e-10
3.73386e-09
6.00358e-12
-3.9988e-09
1.10766e-10
4.48847e-09
8.19278e-12
-7.07312e-12
-6.02873e-09
6.02411e-09
1.16944e-11
2.26493e-09
-3.35372e-09
1.64817e-09
-5.59376e-10
1.77005e-10
-3.98669e-09
4.25376e-09
-4.44069e-10
1.90147e-11
-4.06353e-11
-1.06233e-10
4.98883e-09
5.69253e-10
-1.0387e-09
-4.51939e-09
3.06337e-09
-2.66054e-09
-3.18718e-09
2.78434e-09
-4.96135e-09
4.56134e-10
4.16181e-09
3.43405e-10
2.76459e-09
-1.46292e-09
1.09617e-09
-2.39784e-09
-4.58224e-09
5.16108e-09
2.52146e-09
-6.42649e-09
-1.78455e-09
-1.49456e-09
2.28085e-09
2.93648e-09
-3.72278e-09
-2.29496e-09
-7.6158e-10
8.9326e-10
2.46182e-09
-2.83238e-09
-2.31218e-09
2.68274e-09
5.89272e-11
-3.42574e-11
3.31819e-09
-3.11749e-09
-2.31583e-09
-4.80035e-09
3.11146e-09
4.00472e-09
3.81528e-09
-3.79234e-09
-2.29378e-11
6.2005e-10
2.29248e-09
-1.76548e-09
-1.14704e-09
-2.03886e-09
6.0641e-10
2.0525e-09
-5.07937e-09
5.87281e-11
-2.92884e-11
-6.28852e-09
-5.58584e-11
2.96338e-11
2.94278e-09
2.67763e-10
-2.45899e-09
4.09994e-09
7.23887e-10
-4.00175e-09
-8.22076e-10
-3.87901e-10
7.39522e-10
-3.51621e-10
-1.42097e-09
-2.75925e-09
2.57019e-09
1.61002e-09
-5.29691e-09
4.66115e-09
6.46919e-10
-1.11546e-11
1.98349e-10
1.58172e-09
-1.50963e-11
-1.76497e-09
-7.67798e-11
-3.37815e-09
3.45493e-09
2.79311e-11
-6.63192e-11
6.21526e-09
8.69873e-10
-2.16669e-10
-6.86846e-09
5.61311e-09
-6.64389e-09
4.29076e-09
-3.25997e-09
-1.37803e-09
4.92092e-09
-5.26786e-09
-1.37885e-09
-4.00384e-09
1.68686e-09
5.7276e-09
-6.08039e-10
-5.22162e-09
1.02061e-10
4.16329e-09
8.39423e-11
-5.97602e-12
-4.24126e-09
-1.23038e-09
1.23181e-09
-6.12244e-09
6.12101e-09
-1.40888e-09
-3.54674e-09
1.61664e-09
-3.32132e-09
1.49019e-09
3.11056e-09
-1.27943e-09
-4.09228e-11
-6.02969e-09
6.05589e-09
1.47173e-11
-3.9527e-10
1.44989e-09
-2.25286e-09
1.19824e-09
2.20914e-10
5.29781e-09
-4.90216e-09
-6.1657e-10
-3.66014e-09
1.92607e-09
-2.12478e-09
3.06332e-09
6.59679e-09
-3.36279e-09
-6.29732e-09
2.21887e-09
4.78982e-09
-2.05835e-09
-4.95034e-09
-4.04299e-09
6.14421e-09
1.60134e-09
-3.70256e-09
-2.20929e-09
2.32832e-09
2.94434e-09
7.2027e-09
-1.39448e-09
-7.00328e-09
1.19506e-09
-7.13658e-09
7.28858e-09
-1.98381e-09
1.83181e-09
6.33912e-09
-6.31318e-09
-3.30202e-11
-1.89827e-09
1.67902e-09
4.17599e-10
-2.62828e-09
2.52223e-09
-1.60224e-09
1.45638e-10
3.74972e-09
-3.89536e-09
-1.94287e-10
2.14169e-10
-8.69807e-10
8.49925e-10
5.1605e-09
-4.08402e-09
-1.86672e-09
1.44554e-09
4.05593e-09
-5.32447e-09
-5.81521e-09
5.56788e-09
1.17435e-09
-9.27024e-10
-5.28035e-11
3.06573e-11
8.00055e-11
-1.45804e-09
-6.2297e-09
-3.20328e-11
1.54361e-11
2.17808e-09
-9.32609e-09
-3.32141e-10
1.57775e-09
-6.54245e-10
-9.23503e-10
-2.20248e-09
6.86241e-09
3.7376e-10
-5.03369e-09
2.78412e-09
3.81528e-09
-3.73061e-09
3.80441e-09
-7.37968e-11
-1.58576e-09
-8.25591e-09
7.14058e-09
2.70109e-09
2.46616e-09
-2.64726e-09
3.19771e-09
-3.01661e-09
-3.8597e-09
8.06536e-12
3.85163e-09
8.4305e-10
4.07787e-09
1.44428e-09
6.03113e-10
-2.0474e-09
-7.17052e-11
6.14059e-09
-8.7397e-10
-8.2501e-10
-7.74629e-09
7.23123e-09
1.34007e-09
4.69479e-11
-5.52372e-09
-3.06024e-11
5.50738e-09
2.10562e-09
-1.26637e-09
-8.39249e-10
-4.99937e-09
4.14623e-11
-2.21561e-11
4.65101e-09
-4.63455e-09
1.2981e-11
-2.94322e-11
-2.17216e-10
-5.73186e-09
4.56329e-10
5.49275e-09
8.38791e-09
-1.28536e-09
-5.1496e-09
5.2355e-09
-1.38619e-10
5.27171e-11
-3.14255e-09
-1.60426e-09
3.85193e-09
-2.94038e-09
-3.65521e-11
2.97693e-09
2.25517e-09
-3.14415e-09
4.15922e-09
-3.27024e-09
7.7551e-09
1.55723e-10
2.32374e-09
4.04759e-09
-3.3562e-09
-3.01513e-09
5.17303e-09
-5.30369e-09
-8.65534e-11
3.98243e-10
-1.05526e-09
1.46933e-09
-8.12316e-10
-2.22804e-09
-1.46509e-09
7.94629e-10
2.8985e-09
5.16418e-09
-4.49986e-09
3.45282e-11
-1.293e-10
4.90382e-10
-2.45269e-09
-7.08235e-10
2.67054e-09
1.54184e-10
2.43825e-09
-1.60462e-09
3.79916e-11
-9.44084e-11
1.88712e-10
-1.32296e-10
-3.2933e-09
3.67487e-09
-4.01846e-09
3.63689e-09
6.01504e-09
-1.74284e-11
-1.00843e-12
-5.99661e-09
-8.01613e-11
9.82822e-11
-1.81209e-11
-2.13404e-09
7.72839e-09
-8.00509e-09
2.41073e-09
-2.26941e-09
2.39982e-09
4.57879e-09
-4.7092e-09
5.40224e-11
5.52423e-09
-5.5313e-09
3.0985e-10
5.33815e-09
-1.40515e-10
-2.45431e-10
-2.07621e-09
1.92637e-09
-1.45079e-11
5.00485e-12
2.03543e-10
-1.94039e-10
-2.23299e-10
-7.83801e-09
2.62958e-11
-3.75691e-09
-4.21474e-13
6.03465e-09
3.91911e-11
-6.07342e-09
6.207e-09
-2.94377e-11
1.71506e-11
-6.19471e-09
-1.13434e-11
-6.61348e-09
6.62551e-09
-6.85462e-13
-2.03917e-09
6.20272e-10
-6.19961e-10
-3.1095e-09
1.61905e-09
-3.80646e-09
-2.22549e-09
8.34458e-09
-8.71745e-09
2.59836e-09
-6.0573e-09
7.01804e-12
6.09539e-09
-1.58491e-09
2.30698e-10
2.50258e-09
-4.16333e-09
6.36821e-11
1.59707e-09
6.23768e-09
-2.01157e-09
-3.84826e-09
-3.77852e-10
-1.17199e-09
-3.62324e-09
1.34182e-09
-4.88236e-11
1.62782e-11
6.64085e-11
-3.38632e-11
-1.33053e-11
6.6597e-09
-6.65773e-09
2.57522e-11
-4.88648e-11
5.63902e-11
-2.84504e-11
1.97281e-10
-5.03882e-09
1.12216e-09
3.71938e-09
9.44142e-10
-2.07099e-09
-3.8345e-09
-2.07829e-12
2.73785e-12
-2.06815e-10
2.06156e-10
-1.67311e-09
-6.24557e-09
2.10347e-09
-1.28988e-09
-7.49028e-10
-1.93818e-09
-1.24028e-09
-4.04612e-10
2.35272e-09
1.04349e-09
-6.49154e-09
6.69268e-09
2.88508e-10
-4.8965e-10
-3.2561e-09
8.17777e-10
4.33015e-09
-1.89183e-09
-2.98368e-09
-6.81824e-10
4.1918e-09
-5.26299e-10
-1.34046e-10
7.76827e-11
8.66064e-10
1.21013e-10
-8.79806e-10
4.50455e-11
7.13747e-10
-6.34155e-09
6.35779e-09
-5.71664e-11
3.42641e-10
-3.05433e-10
2.96201e-11
-6.68275e-11
-3.89432e-09
-6.55414e-09
1.55808e-09
8.89038e-09
-3.61089e-09
-5.71399e-09
6.02683e-09
3.29805e-09
2.9002e-09
2.1385e-10
-2.62367e-09
4.2483e-09
-2.69738e-09
1.38214e-09
-2.93306e-09
-5.92616e-09
2.17124e-11
-6.12087e-11
5.96566e-09
6.46446e-10
-7.07155e-10
1.81722e-10
-5.19518e-09
1.48903e-09
-1.95732e-10
3.90188e-09
1.214e-09
-2.91117e-09
-7.50838e-10
2.448e-09
-4.57725e-09
-6.14634e-09
6.68061e-09
-1.53869e-09
3.44912e-10
3.07692e-09
-1.88314e-09
1.69546e-10
-6.44744e-09
6.30419e-09
2.60311e-09
7.11563e-09
-7.96583e-09
-1.75291e-09
3.48475e-09
-5.43542e-10
1.57384e-12
-6.58915e-10
2.328e-09
4.3709e-09
2.61221e-09
-1.19766e-09
4.58671e-09
-6.00126e-09
-6.60549e-09
6.51994e-09
1.34796e-10
-4.92413e-11
-5.47202e-09
5.47867e-09
2.112e-11
-2.77706e-11
-1.76899e-10
2.05891e-10
2.93189e-10
-7.5543e-09
-8.31211e-09
3.02605e-09
9.93021e-10
-2.48963e-09
-1.75949e-09
5.25975e-09
-1.90135e-10
9.75577e-11
-5.16718e-09
3.80832e-09
-4.10151e-09
5.67798e-09
-5.38479e-09
-3.04999e-09
2.36374e-09
-2.12302e-09
2.80926e-09
5.60786e-09
2.41468e-09
-4.54062e-09
-3.48192e-09
-1.95045e-10
8.54602e-10
-8.53845e-10
-3.47724e-09
-3.62326e-09
3.52299e-09
3.57751e-09
6.09734e-10
3.06217e-09
-1.19835e-09
5.33888e-09
5.65788e-09
5.04724e-09
-5.39811e-09
-3.77521e-09
-3.33411e-09
3.63207e-09
1.32721e-08
-4.64299e-09
-5.56577e-09
2.61644e-09
-2.98659e-09
-3.52305e-09
3.8932e-09
-3.70571e-09
4.30489e-09
-2.6614e-09
2.06222e-09
-5.46942e-11
1.39333e-10
3.45242e-11
-1.19163e-10
-4.25015e-09
3.67945e-09
-3.59174e-09
4.16244e-09
-3.18877e-09
3.28059e-09
-9.18207e-11
-5.47897e-09
5.50364e-09
8.46129e-12
-3.313e-11
1.35468e-09
4.55409e-10
-6.44255e-10
-1.16584e-09
9.56803e-11
-6.7362e-10
-1.58521e-10
3.80218e-09
-1.08412e-09
8.81501e-10
-3.59956e-09
-5.66564e-09
-8.02429e-11
5.5085e-09
2.37377e-10
-1.53491e-09
2.36975e-09
5.40284e-09
3.7418e-10
-3.26519e-10
6.76621e-10
-7.24282e-10
3.353e-10
-2.58869e-11
3.59521e-09
-7.76803e-11
-4.82147e-09
5.00018e-11
3.95403e-10
7.36492e-09
-5.58224e-09
1.59141e-09
4.04617e-09
-3.69562e-09
-1.94196e-09
-8.99926e-12
-1.47611e-09
-3.74641e-09
1.694e-09
-2.08687e-09
-7.5639e-10
1.14926e-09
-4.104e-09
3.7701e-09
-3.91625e-09
-4.1333e-09
4.39422e-09
3.96381e-09
-4.22473e-09
-1.72945e-11
-3.84576e-09
3.86306e-09
5.98305e-09
-2.38676e-09
2.92578e-09
-5.54396e-09
-8.85272e-10
3.50345e-09
4.69958e-09
1.91078e-11
-2.0336e-11
-4.69835e-09
-6.41937e-11
4.83789e-09
-4.80926e-09
3.55595e-11
-9.86557e-10
1.24868e-09
5.79804e-09
-6.06016e-09
2.49409e-10
8.83402e-10
-9.18642e-10
4.67889e-10
2.62915e-09
-1.02754e-09
1.38765e-09
-2.98926e-09
-1.48901e-09
6.90056e-09
-6.94648e-09
1.53493e-09
1.15265e-11
-9.01789e-09
-1.19249e-09
-4.56912e-09
2.25133e-09
2.79494e-09
-2.57704e-09
2.43081e-09
-2.64871e-09
-6.69734e-12
1.23105e-11
-1.55406e-10
1.49793e-10
2.13204e-10
-1.12825e-10
1.54495e-09
4.11506e-10
-6.01771e-10
5.47987e-09
-5.49483e-09
-2.81202e-11
4.30752e-11
5.02447e-09
-4.91474e-09
1.99589e-09
5.16129e-09
-6.94729e-11
1.49211e-10
-5.52872e-09
-4.31655e-11
4.81611e-11
-2.63446e-11
3.41965e-11
2.39651e-09
5.28777e-11
-4.5991e-11
-2.40339e-09
3.99833e-09
-2.10746e-09
-1.89086e-09
3.34324e-09
-2.77399e-09
1.99616e-09
-2.04481e-09
7.29658e-10
-7.02155e-09
-1.36447e-09
7.46046e-09
9.25553e-10
-4.01865e-11
-5.91643e-09
3.04537e-11
3.84677e-09
-3.14904e-11
-5.14921e-09
-1.22016e-09
2.04962e-09
4.31975e-09
-3.86012e-09
-1.57367e-11
4.31613e-10
4.24527e-09
-6.16987e-09
2.78225e-09
3.38763e-09
6.61642e-11
3.25893e-09
-1.84245e-09
-1.48265e-09
6.32412e-09
5.77419e-09
-8.57324e-09
2.27145e-09
4.93642e-09
-1.81389e-09
-4.37998e-09
-8.00402e-10
4.5675e-09
-7.4725e-09
6.2945e-09
1.21589e-11
-3.4861e-11
-1.44882e-09
-3.63441e-09
3.68097e-09
1.40226e-09
4.01085e-09
-5.44443e-09
-3.03489e-11
5.93728e-09
5.58682e-11
-5.96279e-09
1.85118e-09
-3.27758e-09
-1.62359e-09
-4.2151e-09
3.76116e-09
2.51735e-09
-2.06341e-09
-4.842e-09
4.95147e-09
-1.81989e-09
1.71042e-09
1.33228e-10
-7.55056e-11
-1.13496e-10
5.57733e-11
9.6945e-10
-7.90314e-10
-4.62377e-09
1.50699e-10
-3.93258e-11
-1.19533e-09
4.00691e-10
1.25005e-09
-4.03768e-09
2.85164e-09
4.12189e-09
4.08697e-10
8.50368e-10
-1.64697e-09
-1.97141e-09
2.2986e-09
-3.27184e-10
-6.67215e-10
8.99655e-12
-2.21587e-10
5.85841e-09
4.79588e-11
-5.88532e-09
-2.10496e-11
-2.99287e-09
3.15889e-09
-2.31461e-09
2.14859e-09
5.06429e-09
1.81137e-10
-8.41369e-11
6.55249e-10
2.56722e-09
-1.51428e-09
-2.42611e-11
5.8356e-09
4.70632e-11
-2.32409e-10
-4.66545e-09
1.41537e-10
-2.05895e-10
4.72981e-09
-3.91745e-09
-2.44819e-09
9.23675e-10
5.44196e-09
6.9815e-09
-7.41843e-10
4.56263e-09
2.14547e-10
1.26905e-10
-4.90408e-09
1.51707e-11
7.147e-09
-7.0653e-09
-9.68715e-11
5.38956e-11
-2.35437e-11
-7.00661e-10
2.50847e-09
-2.28184e-09
4.74032e-10
-6.20522e-09
6.20118e-09
5.86926e-12
-1.82979e-12
3.78064e-09
5.3188e-09
-4.80561e-09
-4.29384e-09
4.38364e-11
-3.27533e-09
3.26288e-09
-3.13949e-11
-3.39969e-09
2.39057e-09
-1.97456e-09
-9.89438e-11
1.58595e-10
5.90104e-10
-5.54671e-09
4.15989e-10
2.38525e-09
-3.31479e-09
1.66906e-09
7.46115e-10
-6.92818e-10
3.40939e-10
-3.94236e-10
-5.57388e-09
3.35715e-10
4.98473e-09
-3.75198e-09
5.51808e-11
-6.26811e-09
6.26089e-09
-6.21012e-09
6.20963e-09
-4.14855e-11
4.19728e-11
-9.98563e-11
5.05041e-09
2.22476e-10
7.96815e-09
-8.39865e-09
1.28487e-10
3.02014e-10
-5.49585e-09
-3.20932e-11
3.31198e-11
-4.00989e-11
2.12216e-10
2.22439e-09
-1.84458e-09
-6.97029e-09
3.67041e-09
-3.652e-09
-1.84071e-11
-3.15077e-09
3.22126e-09
-3.17999e-09
-6.19417e-09
6.17991e-09
-8.18563e-12
2.24509e-11
2.46023e-09
4.79364e-09
-3.78489e-09
-3.46898e-09
-5.24697e-09
6.84869e-11
-1.26455e-10
5.30494e-09
-5.53081e-09
-2.76495e-09
-2.91849e-10
8.58761e-09
5.21347e-09
-8.25652e-10
-4.38782e-09
1.98669e-10
-3.94804e-09
-5.58825e-09
3.95711e-10
2.3563e-09
-4.13054e-09
-1.16609e-09
2.94033e-09
-8.90301e-09
-1.63459e-09
1.06574e-09
-6.63427e-09
-2.91851e-09
8.48704e-09
2.78334e-09
-5.78129e-10
-2.10068e-09
-1.04533e-10
6.9759e-09
-1.54498e-09
2.07877e-09
-7.50969e-09
2.80101e-10
-6.46226e-09
-9.14067e-09
6.74371e-09
3.92557e-09
-1.5286e-09
-9.79047e-10
2.77335e-10
9.51121e-10
-2.46462e-09
-7.13993e-09
2.25703e-09
3.30217e-09
-3.2234e-09
2.52247e-10
-3.31019e-10
-6.164e-09
6.14894e-09
-1.6061e-11
3.11204e-11
-6.50771e-09
-3.39897e-09
3.03279e-09
9.49202e-10
5.08383e-09
-2.31401e-09
-3.7401e-10
3.58833e-09
-3.61893e-09
-4.51378e-10
-1.84729e-09
-9.91919e-10
-6.64961e-11
1.24378e-09
-1.85367e-10
5.88058e-09
-2.63129e-11
9.32064e-12
-5.86359e-09
2.27368e-09
-5.29824e-09
8.8503e-09
-5.82574e-09
-6.90666e-09
6.94912e-09
-6.77047e-11
-1.25778e-09
3.21213e-09
-1.88819e-09
5.41278e-09
-3.25916e-10
-1.15339e-09
1.1372e-09
3.42108e-10
-9.38674e-09
7.04193e-09
7.59049e-10
3.9294e-09
-2.56446e-09
-4.65825e-09
5.78902e-10
-4.94252e-10
2.42369e-10
-3.2702e-10
-2.16567e-09
-6.59184e-09
6.91294e-09
-7.67906e-09
6.38331e-09
-7.04768e-11
3.03738e-10
-6.61657e-09
6.11124e-09
-6.12964e-09
-1.66861e-11
3.5087e-11
5.05209e-09
-1.08697e-10
1.655e-10
-5.10889e-09
-8.60348e-11
-3.10274e-09
2.91072e-09
1.79076e-10
-3.96343e-10
-2.69345e-09
1.04278e-09
1.39588e-09
3.44677e-10
9.01815e-11
-1.74204e-10
-5.06557e-09
7.50127e-09
-4.87683e-09
-3.85482e-09
4.62088e-09
-4.05866e-09
2.83241e-09
-6.23788e-09
-6.98273e-11
6.26752e-09
-6.67257e-09
6.68953e-09
-4.63915e-11
-2.32291e-10
-8.56955e-10
9.7327e-11
-5.80782e-09
1.69487e-11
-4.65786e-11
5.83745e-09
3.80883e-09
-3.83918e-09
-4.02093e-09
3.38103e-09
2.9962e-09
3.51186e-11
6.52632e-10
-4.13041e-11
8.93017e-09
-9.14202e-09
1.1149e-09
-9.03045e-10
-3.2356e-09
3.17141e-09
-2.8016e-09
2.09572e-09
1.69289e-09
-9.87016e-10
2.57077e-09
-3.35805e-09
1.69778e-09
-2.04544e-09
7.56702e-09
-7.80915e-09
-1.59372e-09
1.83586e-09
-1.08553e-08
-1.76321e-09
8.04124e-09
-2.94376e-09
-7.50862e-10
5.03325e-09
-1.33863e-09
5.76118e-09
-1.31304e-09
-1.89955e-09
-3.78751e-09
3.73917e-09
1.94788e-09
-4.83365e-09
-3.88145e-10
-2.5039e-10
2.25574e-10
-5.82702e-09
6.43601e-09
-4.88548e-11
-6.94135e-09
7.00537e-09
3.49412e-09
-3.60251e-09
3.78326e-09
3.9267e-09
-2.86336e-09
3.21884e-09
-4.39316e-09
2.04582e-09
-3.44619e-10
-1.43344e-09
1.03366e-09
-1.62247e-09
1.63159e-09
-2.20365e-09
2.04729e-09
-2.35659e-09
3.35802e-09
-3.29317e-09
1.63924e-09
-1.7041e-09
1.54563e-09
-2.15828e-09
-3.66537e-09
4.27802e-09
-6.24724e-09
-6.64833e-11
1.03601e-10
5.35132e-09
-3.53392e-09
-1.82646e-09
9.06337e-12
5.42099e-09
-1.31956e-10
7.55744e-11
-4.93445e-10
4.17342e-09
-3.67997e-09
3.31112e-09
-4.8376e-09
2.47062e-09
-5.76633e-09
5.78751e-09
2.72159e-11
-4.83927e-11
-9.13985e-10
-4.47762e-09
5.57961e-10
8.21155e-09
2.29786e-09
-2.06871e-09
-4.74584e-10
9.75534e-12
1.69217e-10
-8.64793e-12
-1.70324e-10
-2.67228e-10
1.48434e-09
-1.85262e-09
6.35505e-10
-2.15137e-09
1.66013e-09
3.25583e-09
6.95267e-09
-1.7392e-09
-1.26192e-09
1.31944e-09
-5.75131e-11
3.04642e-09
-3.10069e-09
-2.52277e-09
-6.71383e-10
-2.54917e-09
1.56067e-09
1.65988e-09
-2.13372e-11
3.64775e-11
-5.81747e-09
5.80233e-09
-2.11045e-11
-3.70485e-09
3.72595e-09
-6.05787e-11
1.96647e-10
2.71893e-09
1.22417e-09
-2.73367e-09
-1.20943e-09
2.06512e-09
-2.07745e-09
-4.61551e-09
2.51612e-09
-4.81753e-10
2.58115e-09
-2.12948e-11
2.09902e-11
5.30718e-10
-4.22152e-11
1.80936e-09
1.76577e-09
-8.23095e-10
-3.91368e-09
2.971e-09
-6.97582e-09
6.92481e-09
-2.62419e-09
-2.04889e-10
2.98245e-09
-3.6408e-09
6.29526e-09
-5.63692e-09
-3.41163e-09
-4.08581e-10
4.36783e-09
-5.47623e-10
-2.0446e-09
-3.11994e-09
3.20441e-09
-2.29682e-09
2.76934e-09
-2.54351e-09
4.49044e-10
-5.48364e-11
4.12591e-09
-2.47277e-09
2.07034e-09
-3.72348e-09
4.62928e-09
-3.08431e-09
8.24779e-10
5.42875e-09
-2.49573e-09
-5.62397e-09
-3.77917e-09
5.00869e-09
6.95319e-11
-1.29906e-09
-6.17251e-09
2.30458e-11
6.17891e-09
-2.94488e-11
3.4222e-10
-3.05832e-10
1.88083e-10
-2.2447e-10
4.24208e-09
-4.25255e-09
-3.00711e-10
1.17188e-09
-1.19708e-09
-3.69784e-09
3.6765e-09
-2.13946e-09
-4.80198e-09
1.79223e-09
-2.71906e-10
-7.54867e-10
-8.1139e-09
-6.48557e-09
6.76476e-09
9.17144e-13
2.77596e-09
7.55706e-09
7.25943e-10
6.14067e-09
-3.20651e-09
3.00313e-09
-5.93728e-09
-7.37351e-09
6.94182e-09
3.38356e-09
-2.95187e-09
2.36752e-11
6.93089e-10
1.84575e-10
3.32468e-09
-3.50925e-09
1.64895e-11
-2.47422e-11
-2.68387e-11
3.63505e-09
-3.60821e-09
-8.61991e-10
-4.20652e-09
6.88533e-10
-3.5086e-09
-2.67365e-09
4.27456e-09
-2.66151e-09
2.79484e-09
6.11739e-09
-6.25073e-09
2.95455e-09
9.17399e-10
-2.17795e-09
4.74349e-09
-3.85419e-09
4.15971e-09
1.68402e-09
-1.60401e-09
9.62524e-10
-6.27866e-10
-3.13625e-09
-2.19781e-10
5.56938e-09
-8.87183e-09
-8.86707e-10
8.49948e-09
-4.9946e-09
1.10411e-09
-1.35333e-09
1.31009e-09
-2.8599e-09