/*--------------------------------*- C++ -*----------------------------------*\
  =========                 |
  \\      /  F ield         | OpenFOAM: The Open Source CFD Toolbox
   \\    /   O peration     | Website:  https://openfoam.org
    \\  /    A nd           | Version:  8
     \\/     M anipulation  |
\*---------------------------------------------------------------------------*/
FoamFile
{
    version     2.0;
    format      ascii;
    class       volVectorField;
    location    "6.8";
    object      U;
}
// * * * * * * * * * * * * * * * * * * * * * * * * * * * * * * * * * * * * * //

dimensions      [0 1 -1 0 0 0 0];

internalField   nonuniform List<vector> 
5119
(
(0.00089863 0.00141109 9.69162e-23)
(0.000205452 6.69001e-05 4.35345e-21)
(0.000837581 1.41691e-05 -2.53917e-21)
(0.00059973 0.000802687 -8.54528e-25)
(0.000780204 0.00125651 1.93834e-22)
(0.000871556 7.4034e-05 1.30681e-21)
(0.000270004 0.000203288 -1.32976e-21)
(3.29023e-05 -4.33137e-06 -6.46903e-23)
(0.000222073 0.00108172 -1.11231e-21)
(0.000960377 0.00148279 7.86799e-23)
(0.000632452 0.000803372 1.23286e-24)
(0.00072661 0.0011253 -3.26242e-22)
(0.000719326 0.00115843 -2.24431e-22)
(0.000707319 0.000489499 1.01388e-21)
(0.000817585 0.00130743 -7.45701e-23)
(0.000659962 0.00113138 0)
(0.000805868 0.00139918 2.9014e-22)
(0.000812682 0.00128451 -1.02888e-22)
(0.000922363 0.00146984 2.87769e-22)
(0.000753738 0.00119839 6.44021e-23)
(0.000731468 0.00120619 2.84895e-22)
(0.000663892 0.00106522 7.59844e-22)
(0.000671635 0.00107999 -1.58125e-22)
(0.000810173 0.00125145 1.12489e-22)
(0.000715557 0.00114565 0)
(0.000940709 0.00147989 6.62814e-22)
(0.00069868 0.00109022 0)
(0.000718737 0.00111322 8.62414e-23)
(0.000735701 0.00113893 3.30277e-22)
(0.000661707 0.0010412 8.98272e-23)
(0.000750341 0.00116226 -2.99997e-22)
(0.000739187 0.0011461 -8.36792e-24)
(0.000682197 0.0010814 5.57333e-22)
(0.00080113 0.00126601 0)
(0.000960649 0.00147994 -9.58196e-23)
(0.000702852 0.00110566 2.85403e-22)
(0.000676191 0.00106214 2.79353e-22)
(0.000687546 0.00108076 3.75841e-23)
(0.000660745 0.00111909 -5.20689e-25)
(0.000671896 0.0010592 9.19789e-22)
(0.000593087 0.000158765 -1.44775e-24)
(0.000871466 0.00147046 -4.07484e-22)
(0.000731029 0.00126252 2.21688e-22)
(0.000662161 0.00114296 0)
(0.00065234 0.00111564 -2.36599e-22)
(0.000608752 0.000150206 -2.01888e-21)
(0.000774981 0.00132461 -7.42818e-22)
(0.000668719 0.00114002 0)
(0.000743602 0.0012589 7.75759e-24)
(0.000726611 0.00125961 -2.05828e-22)
(0.000597751 0.000403243 -1.57597e-21)
(9.72332e-05 0.000629269 -1.05164e-21)
(0.000937985 3.86471e-05 -5.37943e-22)
(0.000638666 7.4064e-05 2.17969e-21)
(1.49799e-05 0.000427526 -3.1181e-21)
(0.000670811 0.00110704 8.56716e-22)
(0.00068818 0.000757692 1.42938e-24)
(3.62585e-05 -1.58566e-06 9.09871e-22)
(0.000723047 0.00122744 0)
(0.000860112 0.00144211 0)
(0.000617797 0.00114477 -1.46512e-21)
(0.000659483 0.00111257 2.26451e-21)
(0.000687361 0.00114027 0)
(0.00078671 0.00132419 1.2139e-21)
(0.000481857 0.000106282 1.18363e-21)
(0.000776575 0.00133023 8.50826e-22)
(0.000752693 0.000366078 2.23727e-24)
(0.000885191 0.000577693 1.0441e-21)
(0.00076964 0.00129069 0)
(0.000694658 0.000508598 -3.08127e-22)
(0.000198387 0.000355464 -1.42821e-24)
(0.000175768 -2.35486e-05 -4.71154e-21)
(0.000894989 0.000319665 1.41362e-21)
(0.000663446 0.00114364 4.06326e-22)
(0.0007072 0.00112207 -1.3974e-21)
(0.000885101 0.00138379 0)
(0.000316891 9.7108e-05 9.70385e-22)
(0.000607635 0.000207637 5.95825e-22)
(0.000584428 0.00108814 0)
(0.000527325 0.000972659 -7.73931e-22)
(2.32968e-05 0.000700144 0)
(0.000951091 0.000526403 0)
(0.000934347 0.00151857 0)
(0.000668839 0.00135285 1.65982e-23)
(0.000615833 9.84264e-05 0)
(0.000669408 0.00120765 1.39876e-22)
(0.000767979 -4.32278e-05 2.28783e-21)
(0.000711378 0.00121119 1.93895e-21)
(0.000547966 0.00112559 3.67741e-23)
(0.00057146 0.00117048 0)
(0.000557975 0.00114474 0)
(0.000536877 0.0011044 0)
(3.52116e-05 -1.15557e-06 -1.47069e-21)
(0.000419688 0.000770077 -1.44188e-21)
(0.000462224 0.000818461 0)
(0.000454604 0.000675486 2.43188e-21)
(0.00087943 -8.76047e-06 0)
(0.00068331 0.00118642 1.59964e-21)
(0.000678176 0.000780537 1.45505e-21)
(0.00068264 0.00118324 -1.36123e-22)
(0.000749532 0.00137439 6.39586e-22)
(0.000639418 0.00113594 0)
(0.00149394 0.000967899 -2.38381e-21)
(0.000790304 0.00159632 -4.27928e-22)
(0.000314368 0.000117175 2.10431e-21)
(3.7024e-05 5.2322e-06 1.08334e-21)
(0.00068906 0.00127198 -1.99331e-21)
(0.000571657 0.000310599 4.54217e-22)
(0.000837599 0.000588742 1.31843e-22)
(0.00065808 2.95633e-05 0)
(0.000411574 0.0012604 -2.56792e-21)
(3.62346e-05 2.1024e-06 -2.11969e-26)
(0.000240811 -3.26082e-05 8.41487e-22)
(0.000770839 0.00126744 -2.06334e-22)
(0.000300051 0.000164234 4.2953e-21)
(0.000465415 0.000634182 -2.30041e-22)
(0.000506086 0.000790233 -1.82834e-21)
(3.90824e-05 4.37128e-06 -2.03298e-21)
(0.000497262 0.000566361 -3.9859e-21)
(0.000782004 0.00130014 1.03834e-22)
(0.00077827 0.000359244 0)
(0.000813772 0.0013529 -6.67059e-22)
(0.000164923 0.000848598 -4.5459e-22)
(0.00068312 0.00120586 1.27659e-21)
(0.000838617 0.0014483 -1.68458e-21)
(0.000918462 0.0015636 4.38477e-22)
(0.000708344 0.00127559 -3.50336e-24)
(0.000865973 0.0015471 -2.4367e-22)
(0.000801983 0.00132047 4.48603e-22)
(0.000672552 0.00115283 -3.30649e-22)
(0.000693986 0.00121738 -1.35071e-21)
(0.000672665 0.00114117 -2.21051e-22)
(0.000841584 0.00138734 -4.43538e-22)
(0.000747563 0.00125412 -4.22234e-22)
(0.000794751 1.53131e-05 -1.50827e-21)
(0.000574297 0.000332794 3.74163e-25)
(0.000645144 0.00129227 0)
(0.000720717 0.00121598 0)
(0.000233972 0.000323318 1.27858e-21)
(0.000793365 0.00131925 0)
(0.000660191 0.00114942 -1.03493e-21)
(0.000645423 0.00112307 3.47163e-22)
(0.000630672 0.00111133 2.6797e-22)
(0.000666228 0.00108709 1.15846e-22)
(0.000717175 0.00120755 3.67908e-22)
(0.000704147 0.00117749 1.46759e-22)
(0.00069446 0.00116302 -9.55387e-23)
(0.000721136 0.00121318 0)
(0.00070475 0.00118565 -9.68996e-23)
(0.00085499 0.000907081 -3.44353e-22)
(0.000627638 0.00123564 0)
(0.000889015 0.000188353 0)
(0.000642096 0.00115425 0)
(0.000436545 0.000758244 2.35468e-21)
(0.000332549 0.000617821 2.16623e-21)
(0.000864543 0.00144574 3.38292e-23)
(0.000396145 0.000633646 2.91633e-21)
(0.000953483 8.8984e-05 0)
(0.000278127 0.00026718 1.03927e-21)
(0.000177064 0.000705216 2.14393e-22)
(0.000739375 0.00144313 -1.00931e-21)
(5.70093e-06 1.73974e-06 0)
(0.000144844 0.000268158 -2.27405e-21)
(0.000759918 0.00135211 -9.66713e-22)
(3.75233e-05 4.149e-06 5.05599e-22)
(0.000988888 0.000245562 2.39119e-21)
(3.4162e-05 0.00018866 -6.23533e-21)
(0.00014983 -1.65745e-05 -1.49392e-21)
(4.0998e-05 -8.06701e-07 1.79013e-21)
(0.000128041 0.000567704 0)
(0.000264592 0.000354609 1.67769e-22)
(0.000850076 0.00150881 4.47039e-22)
(0.000472819 0.000549598 2.27619e-21)
(0.000475296 0.00046391 -2.2772e-22)
(0.000396213 0.000603177 2.34346e-21)
(0.00053197 0.00047377 -2.21e-21)
(0.000149042 0.000315482 -1.70831e-24)
(0.000652639 0.00117022 1.1268e-22)
(3.60834e-05 8.49056e-06 -1.70516e-21)
(0.000791045 0.00142121 2.36884e-22)
(0.000790127 0.000336533 -3.09571e-21)
(0.000731255 0.000377703 0)
(0.000698307 0.0011826 0)
(0.000562742 0.000973845 -1.4073e-21)
(0.000256394 7.34189e-05 -2.76613e-21)
(0.000458298 0.000702772 -3.85774e-22)
(0.000460381 0.000107994 1.13478e-21)
(0.000317456 0.000302963 -1.08987e-21)
(0.000575468 0.000374872 -1.72091e-21)
(0.00026131 0.000180512 -1.11319e-21)
(0.000148982 0.000702318 0)
(0.000563212 0.00121457 -4.51395e-22)
(0.000738831 0.00125487 1.01127e-21)
(0.000526937 0.000552572 2.02422e-21)
(2.49484e-05 -4.80777e-06 0)
(0.000330746 0.000749465 0)
(0.000690961 1.5154e-05 -1.42601e-21)
(0.000702854 0.000393148 5.25226e-21)
(0.000416402 0.000878435 1.07208e-21)
(0.000936011 0.000192969 1.95612e-22)
(0.000136672 -1.31966e-05 -3.96222e-21)
(0.000591173 0.00109049 0)
(4.14392e-05 1.56682e-06 -1.81913e-22)
(0.000739951 0.00131006 -2.753e-22)
(0.000654554 0.00119712 0)
(0.000682532 0.00122483 2.50832e-22)
(0.000643328 0.00109739 1.16396e-21)
(0.000519555 0.0011739 -3.30252e-21)
(0.00031007 0.000407551 8.03925e-22)
(0.00078945 0.000559226 -4.43017e-21)
(0.000161681 0.000253351 2.27011e-21)
(0.000449179 0.000654903 4.67147e-23)
(0.000919765 0.000312204 -1.46645e-24)
(0.000502382 0.000728755 -1.45527e-21)
(0.000600088 0.000300724 4.21499e-22)
(0.000328806 0.000409935 -1.03266e-21)
(0.000247433 0.000317819 9.02867e-26)
(0.000398638 0.000575147 -1.22424e-21)
(0.000357127 0.000618668 -1.88728e-24)
(0.000341755 0.000295438 7.55608e-22)
(0.000724056 0.00152163 1.0187e-21)
(0.000424501 0.000645803 0)
(3.1768e-05 7.55164e-06 0)
(0.00065231 0.00121632 -7.63694e-22)
(0.000448444 0.000634048 -1.14984e-22)
(0.000552833 0.000802926 0)
(0.000246349 9.75258e-05 -3.27748e-25)
(0.000673044 0.000189407 0)
(0.000799735 0.00140701 0)
(0.000668867 0.00119859 2.0851e-22)
(3.09225e-05 1.80892e-05 -4.02192e-21)
(0.000781915 0.00133175 -5.08144e-22)
(0.000622108 0.00111874 7.41671e-22)
(0.000771637 0.00138927 1.6186e-21)
(0.000707938 0.00120037 0)
(0.000279116 0.000377227 9.07153e-23)
(0.000717079 0.00120086 1.6254e-21)
(0.000622593 0.00108068 0)
(5.46214e-05 0.000400042 3.42648e-22)
(0.000428905 0.00103375 -2.18852e-22)
(0.000444897 0.000572414 -2.53671e-21)
(0.000125077 0.000257246 5.40082e-25)
(0.000440959 0.000724528 4.4753e-23)
(0.00130366 0.00140231 0)
(0.000764218 0.00139688 -1.13162e-21)
(0.000861026 0.00158666 -2.45561e-22)
(0.000750747 0.00130946 -3.76434e-22)
(0.000308221 0.000373128 1.49117e-21)
(0.000638808 0.00107296 3.56335e-22)
(0.000596409 0.00108726 1.51971e-22)
(0.00067359 0.00114671 0)
(0.00087772 0.00149707 0)
(0.000680156 0.0011697 0)
(0.00068676 0.00124782 2.88984e-22)
(0.000622445 0.00110515 -4.03365e-22)
(0.000644026 0.00111545 -1.04804e-21)
(0.000636714 0.00113025 0)
(0.000593142 0.0010897 -1.98434e-22)
(0.000825886 0.00146902 4.21694e-22)
(0.000812427 0.000476626 -7.79521e-22)
(0.000297755 0.000285004 0)
(6.76901e-05 -0.000175005 -7.23525e-22)
(0.00117922 0.000948853 0)
(0.000701802 0.00123971 4.30531e-22)
(0.000645166 0.00114029 4.17215e-22)
(0.000665476 0.0011624 2.25527e-22)
(0.000736342 0.00126224 -5.59601e-22)
(0.000661516 0.00117076 0)
(0.000195386 0.000327156 1.72121e-22)
(0.000880834 0.00159575 -5.4916e-22)
(0.000561564 0.000357081 4.71821e-22)
(1.42172e-05 -7.79308e-06 0)
(0.000869936 0.001486 4.05992e-22)
(0.000763304 0.00135561 1.92621e-21)
(0.000751591 0.00123667 6.9531e-23)
(0.000915311 1.56512e-05 3.03836e-21)
(0.00159378 0.00116913 1.95591e-21)
(0.000677363 0.00109741 0)
(0.000609434 0.00101376 4.08387e-23)
(0.000756898 0.00124964 1.09071e-21)
(0.000617632 0.000974547 1.13575e-21)
(0.000542789 0.000936392 -3.9975e-22)
(0.000530814 0.0009163 -5.27423e-22)
(0.000571976 0.000952601 3.84121e-22)
(0.000523439 0.000905107 0)
(0.000615938 0.00104832 -6.50052e-22)
(0.000709189 0.00120431 2.84213e-22)
(0.000585131 0.000975901 0)
(0.000718884 0.00120627 1.74209e-22)
(0.000591297 0.00100418 4.12828e-23)
(0.000646838 0.000993083 -1.09109e-21)
(0.000530874 0.000929138 -3.37559e-22)
(0.000576719 0.000884168 4.78545e-22)
(0.000162103 0.00023665 5.02567e-21)
(0.000690144 0.00118676 1.21092e-22)
(0.000756445 0.00129066 -1.24747e-21)
(0.000705168 0.00119064 0)
(0.00048642 0.000486447 2.10856e-22)
(2.09289e-05 0.000107919 1.34327e-21)
(0.000652959 0.00113336 0)
(0.00140747 0.000273164 0)
(0.000654623 0.0010393 4.79372e-22)
(0.000289862 0.000600082 0)
(0.000901763 0.000132294 2.61744e-21)
(0.00045376 0.000540926 0)
(0.000983182 0.000238242 0)
(0.000936414 7.71689e-05 0)
(0.000577602 0.00103345 1.05927e-22)
(0.000451459 0.000657362 2.7065e-22)
(0.000763133 0.00121347 -3.6749e-25)
(0.000627277 0.00102372 -1.40904e-22)
(0.000643662 0.00110876 0)
(0.000661783 0.00111032 7.16037e-22)
(0.000706175 0.00113717 -2.96914e-22)
(0.000731358 0.00124943 0)
(0.00077498 0.00127142 3.81346e-22)
(0.00026191 7.11788e-05 5.75965e-21)
(0.000849832 -0.000120511 1.84356e-21)
(0.000800303 0.0014427 -3.53822e-22)
(0.000830588 0.00139744 -7.06941e-22)
(0.000674817 0.000813126 1.47321e-22)
(0.000629975 0.00112284 3.18477e-24)
(0.000634734 0.00106267 -6.4814e-22)
(0.00090664 0.000141691 0)
(0.000426184 0.000763871 -1.22574e-21)
(0.000618149 0.00122744 -3.25757e-22)
(0.000756175 0.000695515 -2.662e-21)
(0.000768505 0.00137617 -5.20529e-22)
(0.000771343 0.00129724 -2.73438e-24)
(3.87584e-05 0.000576822 -2.41518e-21)
(0.000711147 0.00115099 7.47565e-22)
(0.000942338 0.00158846 -9.14771e-22)
(0.000575417 0.0012287 1.52615e-22)
(0.000267295 0.000336544 1.01951e-21)
(0.000866675 5.17036e-05 0)
(0.000731888 0.00114427 1.4927e-22)
(0.000531186 0.000947496 -3.53053e-22)
(0.000650178 0.00116806 1.28138e-21)
(0.000684752 0.00111847 -1.82483e-22)
(0.000734019 0.00122355 -1.70128e-22)
(0.000569864 0.00101871 1.13133e-21)
(0.000604015 0.00099532 2.77636e-22)
(0.00066036 0.000808712 4.02027e-23)
(0.00073068 0.00130527 -3.50522e-22)
(0.00056577 0.00100112 -9.7928e-22)
(0.000541955 0.000900616 -1.17742e-22)
(0.000652243 0.00105353 -4.45102e-22)
(0.000535269 0.000910084 0)
(0.000311327 0.000563476 1.35073e-21)
(0.000305786 0.000631457 0)
(0.000679908 0.00117441 -4.12425e-22)
(0.000657346 0.00106436 -1.11895e-21)
(0.000720815 0.00118745 3.5792e-22)
(0.000822126 0.00131909 -9.3684e-22)
(0.000713844 0.00114062 -6.63656e-22)
(0.000666535 0.00108804 -2.14083e-21)
(0.000717 0.00118972 0)
(0.000699101 0.00118974 0)
(0.000711568 0.0011499 -2.67422e-22)
(0.000874773 0.0013566 1.19807e-21)
(0.000837897 0.00141346 4.13432e-22)
(0.000642972 0.00109072 -1.7256e-23)
(0.000648504 0.00110164 0)
(0.000663457 0.00104613 6.50111e-22)
(0.000652428 0.00105811 -2.10157e-22)
(0.000663677 0.00112751 -2.87374e-23)
(0.000839234 0.00138367 0)
(0.000653388 0.00105882 3.11864e-22)
(0.000657527 0.00110041 -8.11118e-22)
(0.000672483 0.00112658 4.75911e-22)
(0.000657181 0.00108442 0)
(0.000827167 0.00138172 -2.80913e-22)
(0.000872538 0.00146045 1.17715e-21)
(0.000877945 0.00146961 1.11595e-21)
(0.000522367 0.000693319 -1.29332e-24)
(0.000811729 0.000606316 2.21252e-21)
(0.000617427 0.000427144 1.58801e-21)
(0.00051994 0.000537457 -1.24129e-21)
(0.000772818 0.00139905 2.44517e-22)
(0.00080044 4.39808e-05 1.30809e-21)
(0.000182804 0.000681496 0)
(0.000295852 0.000259695 -1.36257e-21)
(0.000669735 0.00113053 -3.41022e-22)
(0.000668861 0.001186 2.07799e-22)
(0.000679977 0.00116084 0)
(0.000711459 0.00135094 1.10156e-21)
(1.99946e-05 -1.23997e-06 -3.40519e-26)
(0.000578789 0.00095889 2.39561e-22)
(0.000637012 0.00104607 2.03611e-22)
(0.000546723 0.000943625 7.18003e-22)
(0.00100717 0.000215896 -2.72558e-21)
(0.000873181 0.000190857 -1.85197e-21)
(0.000693137 0.00140974 -8.354e-22)
(0.00058149 0.000280698 -4.11692e-22)
(0.00053121 0.000922865 0)
(0.000514465 0.000911307 3.50697e-22)
(0.000526727 0.000866449 6.15591e-23)
(0.000564823 0.00095058 -2.48977e-22)
(0.000553894 0.00092827 -1.24265e-22)
(0.000755323 0.00039069 -2.06961e-21)
(0.000686053 0.00122502 3.45505e-22)
(0.00035189 0.000280427 4.05169e-22)
(1.93553e-05 -6.8424e-06 -2.90188e-25)
(0.000621208 0.00128543 5.17534e-22)
(0.00078886 0.00133775 -1.37614e-21)
(0.00108745 0.000571748 1.76022e-25)
(0.000130304 0.000810044 0)
(3.80686e-05 8.66907e-06 9.43357e-22)
(0.000111104 0.000545307 0)
(0.000545441 0.000903156 -8.90409e-22)
(0.000645224 0.00121038 0)
(0.000826623 0.0013943 0)
(0.000729526 0.00126378 6.01054e-22)
(0.000577629 0.000968227 0)
(0.00055587 0.00093015 -5.68139e-23)
(0.000564328 0.000946358 1.11262e-22)
(0.000276628 0.000832042 -2.05733e-21)
(0.000667686 0.0011688 -1.0759e-21)
(0.000788114 0.00127221 0)
(0.000757281 0.000286726 3.05519e-21)
(0.000566857 0.000285711 3.51326e-21)
(0.000629076 0.00112746 0)
(0.000459315 0.000567153 2.46112e-21)
(0.000578216 0.000350218 1.13252e-21)
(0.000287489 0.00035375 -3.51108e-22)
(0.00051383 0.000644477 2.93531e-22)
(0.000867511 0.000289186 2.38139e-21)
(0.000638477 0.00117327 4.42379e-22)
(0.000676237 0.00128898 0)
(0.00085811 7.50986e-05 1.01504e-21)
(0.000559138 0.00107452 3.07131e-22)
(0.000715842 0.00112705 2.16456e-22)
(0.000841345 0.00134165 -2.04622e-23)
(0.000973185 0.00019268 -3.12892e-21)
(0.000306118 0.00053606 0)
(0.000670742 0.000417087 0)
(0.000566836 0.00118912 -8.73116e-22)
(0.000634854 0.00124344 -1.61433e-21)
(0.000886309 0.000135892 2.63568e-21)
(0.000370889 0.0003189 1.62714e-21)
(8.23104e-05 0.000742472 1.76403e-22)
(0.000906915 0.00033188 0)
(0.000341906 0.000760614 6.54926e-22)
(0.000592566 0.0011142 0)
(0.000616257 0.00115548 5.62511e-23)
(0.00063119 0.00118219 0)
(0.000605183 0.00113568 0)
(0.000321854 0.000278773 4.13373e-25)
(0.000797829 0.00101944 2.23151e-22)
(0.000797582 0.00137117 1.78695e-22)
(0.00134055 0.000773846 -1.17748e-21)
(3.57711e-05 5.6259e-05 0)
(0.000918403 0.00151402 -7.79255e-22)
(0.000645255 0.00111288 0)
(0.000822713 0.00143729 0)
(0.000829623 0.00141288 -4.89774e-22)
(0.000631043 0.00110641 -1.41882e-23)
(0.000634492 0.00108649 2.18617e-22)
(0.000639673 0.00110771 1.64085e-22)
(0.000654731 0.00113312 -6.58246e-22)
(0.000650001 0.00109543 -1.08016e-21)
(0.000836358 0.00146628 -4.04076e-22)
(0.000669171 0.00120562 -7.63702e-24)
(0.000707112 0.00114051 0)
(0.00032594 0.000391993 -3.75051e-22)
(0.000505057 -0.000142727 1.81357e-21)
(0.00080682 0.00139332 -1.01743e-21)
(0.000701215 0.00125224 -1.31155e-22)
(0.00069609 0.00119428 -3.1435e-22)
(0.000619569 0.00104782 3.72136e-22)
(0.000709713 0.00119261 6.76427e-22)
(0.000764548 0.00127168 3.42068e-22)
(0.000681156 0.00114182 9.38466e-22)
(0.00065932 0.00107758 9.24379e-22)
(0.000689878 0.00117093 0)
(0.000705977 0.00116928 -7.75719e-22)
(0.00067137 0.00112536 0)
(0.000824602 0.00134325 -5.28353e-22)
(0.000839362 0.00141009 3.73194e-22)
(0.000651126 0.00110839 1.58249e-22)
(0.000643071 0.00110262 -3.57347e-22)
(0.000665987 0.00113467 -8.424e-22)
(0.000629258 0.00103913 5.56531e-22)
(0.000648645 0.00105154 -8.65665e-22)
(0.000823413 0.00138268 -9.53331e-22)
(0.000623651 0.00105203 -1.69373e-23)
(0.000650804 0.00112167 -7.32436e-22)
(0.00063584 0.00109545 -2.85237e-22)
(0.000633322 0.0010747 -4.18648e-22)
(0.000794043 0.00137579 0)
(0.000872261 0.00148616 0)
(0.000860021 0.00144588 0)
(0.000200247 4.23407e-05 4.75263e-27)
(0.00110672 0.000630179 8.67419e-24)
(0.000465426 5.04612e-05 -5.94669e-22)
(0.000768311 0.00136017 -4.11649e-22)
(0.000524054 0.00112439 -1.29642e-23)
(0.000337107 0.000144657 3.63184e-21)
(0.000903161 8.34866e-05 0)
(0.000469663 0.000446211 8.30387e-25)
(0.00118837 0.000366874 2.26766e-21)
(0.000640132 0.000181399 1.32287e-21)
(0.000658238 0.00128988 2.11449e-21)
(7.5629e-05 0.000758476 -2.29706e-21)
(0.000874667 0.000274794 -2.79535e-21)
(0.000739165 0.00137161 0)
(1.24387e-05 0.000546059 0)
(0.000697957 0.00123392 9.51638e-22)
(0.000295295 0.00120663 -1.25406e-21)
(0.000424475 0.000737527 -1.40064e-22)
(0.000408398 0.000740639 -1.3168e-22)
(0.000530457 0.000980171 -4.23501e-23)
(0.000470864 0.000763259 -3.75625e-22)
(0.000699316 0.00124973 0)
(0.000624943 0.0011184 2.71549e-22)
(0.000768905 0.00128993 3.70387e-22)
(0.000320708 0.000654832 1.97811e-21)
(0.000456084 0.000490113 0)
(0.00018581 0.00024133 2.10529e-21)
(0.00042588 0.000579759 4.40662e-21)
(0.000932172 0.00157046 4.04906e-22)
(0.000588537 0.000924245 3.071e-22)
(2.5721e-05 2.2895e-05 8.01409e-22)
(0.000552928 0.00122842 1.3656e-21)
(0.000141867 0.00071929 1.51359e-21)
(0.000859331 0.00154991 -3.2861e-22)
(0.000832603 0.0014505 2.0401e-22)
(0.000766065 0.00127377 7.68218e-24)
(0.000857098 0.000159933 6.19053e-22)
(0.000618361 0.00110007 1.53834e-21)
(0.000683378 0.00129024 -1.10303e-21)
(0.000658716 0.0011465 -1.02426e-22)
(0.000607 0.00112688 0)
(0.000516156 0.000931365 0)
(0.000601997 0.00108601 2.31857e-22)
(0.000183878 0.000228667 -4.92172e-21)
(0.000858316 1.04346e-06 -3.11526e-21)
(0.000532665 0.00124288 3.24187e-22)
(0.000697266 0.000738998 -1.39207e-21)
(0.000617212 0.00105615 -1.60628e-22)
(0.000492893 0.000944711 -1.29393e-21)
(0.0006121 0.00108132 -4.1259e-22)
(0.000911386 0.00141036 4.3626e-22)
(0.000840586 0.00149324 3.50151e-22)
(0.000875929 0.00148682 0)
(0.000686945 0.00115173 1.19796e-21)
(0.000656967 0.00111637 -1.66326e-21)
(0.00114987 0.00038917 1.74631e-21)
(0.000672866 0.000792312 -1.25817e-21)
(0.000739826 0.00132852 9.99505e-23)
(0.000862236 0.000540954 4.79661e-24)
(0.000685485 0.00124009 0)
(0.000619941 0.000224157 0)
(6.21421e-05 -0.00013278 -1.2871e-22)
(0.000880184 4.54041e-05 0)
(0.000554077 0.00102021 -1.37938e-21)
(0.00072676 0.00130647 -3.27315e-23)
(0.000550982 0.00104319 0)
(0.000473078 0.000715749 5.54885e-22)
(0.000696379 0.0011183 0)
(0.00043675 0.000817755 0)
(7.88803e-05 4.2744e-05 0)
(0.000508323 0.000773697 1.38672e-21)
(0.000756198 0.00143853 4.14883e-24)
(0.000888661 -3.94487e-06 -3.09696e-21)
(3.5231e-05 8.61289e-06 -1.92663e-21)
(0.000770642 0.000482983 2.39559e-21)
(0.000743631 0.00138627 -5.9223e-23)
(0.000272292 0.00031224 -1.36996e-21)
(0.00151255 0.000191867 -1.76768e-21)
(5.47351e-05 0.00085457 -7.21626e-22)
(0.000706034 0.00122822 0)
(0.000876431 0.000210743 0)
(0.000874844 0.000106116 -2.54132e-21)
(0.000898698 0.000342407 -1.54001e-21)
(0.000638246 0.00116939 -4.17374e-22)
(0.000338153 0.000743337 -7.83871e-22)
(0.000631061 0.000254477 0)
(0.000868685 0.000192552 0)
(1.92381e-05 -1.11138e-05 -2.08187e-21)
(0.000479704 0.00119704 -6.31042e-23)
(0.000439154 0.00116093 3.3651e-23)
(0.000628692 0.00152923 0)
(0.00117218 0.00110167 1.49799e-21)
(0.000756047 0.000554738 -4.14248e-24)
(0.000484007 0.000538172 -1.07727e-21)
(0.000979045 7.26856e-05 -1.4863e-24)
(0.000807463 -1.55677e-05 -1.49394e-21)
(0.000626834 0.00107538 -5.24704e-24)
(0.000758373 0.00125795 2.47924e-22)
(5.55076e-05 4.62073e-05 3.39822e-26)
(0.000521073 8.24934e-05 -8.87756e-22)
(2.59109e-06 2.88432e-05 -2.26413e-22)
(0.000591494 0.00106334 -2.53875e-22)
(0.000746358 0.000515041 1.89279e-21)
(0.000250003 0.000339426 -1.33639e-21)
(0.000894484 0.00155021 2.02529e-21)
(0.00068161 0.00115767 -3.6919e-22)
(0.000682178 0.0011871 -3.5076e-22)
(0.000667526 0.00116116 -4.99619e-22)
(0.000657796 0.00113554 -6.19301e-22)
(0.000885226 0.00148518 1.18716e-22)
(0.000688679 0.00117948 0)
(0.000838541 0.00142529 -5.36215e-22)
(0.000659345 0.00111501 1.36932e-22)
(0.000453549 0.000850968 0)
(0.000852989 7.69175e-05 3.42461e-21)
(0.000158723 0.000890963 -1.4326e-21)
(0.000170767 0.000209723 3.42114e-21)
(3.23371e-05 -9.72432e-05 2.15659e-21)
(0.000720133 0.00131922 -7.13397e-22)
(0.000848057 0.000206543 0)
(0.000969622 0.000555994 -3.06385e-22)
(0.00060004 0.00102868 1.34872e-21)
(0.000624833 0.00139097 3.73827e-22)
(0.000832288 0.000160322 3.32996e-25)
(0.000518349 0.000481408 1.36207e-21)
(3.01024e-05 5.08146e-05 0)
(0.000601068 0.00111951 0)
(0.000258063 0.000248676 -2.82023e-21)
(0.000619278 0.000286396 3.6574e-25)
(0.000292304 0.000331408 3.46604e-22)
(0.000511971 0.000747427 -3.96951e-22)
(0.000467471 0.000158914 1.10384e-21)
(0.000654672 0.0012254 0)
(0.00074167 0.00136523 -2.95121e-22)
(0.00141257 0.000754089 0)
(2.30688e-05 5.70083e-05 -7.19404e-21)
(0.000594899 0.000331093 -3.12633e-21)
(0.000642871 0.000311276 4.07869e-22)
(0.000832983 0.000212607 -1.29675e-21)
(4.37501e-05 0.000490669 2.99199e-21)
(0.000434417 0.00102467 3.03648e-22)
(0.000728632 0.00121084 7.9469e-24)
(0.000692039 0.0012148 -2.45711e-22)
(0.00100554 0.000379495 5.55461e-21)
(0.000505973 0.00120861 -1.0186e-21)
(0.000854059 0.00155891 -1.28656e-22)
(0.000671982 0.00119837 0)
(0.000718559 0.00131904 0)
(0.000872391 0.00155774 5.61309e-22)
(0.000619427 0.00116381 -2.98676e-22)
(0.00063405 0.00118992 -3.0031e-22)
(0.000672672 0.00122873 0)
(0.000626636 0.00116229 1.3559e-22)
(0.000705463 0.0013382 0)
(0.000603457 0.00114265 0)
(0.00083124 0.00154503 -6.38734e-22)
(0.000454448 0.000467882 -8.39016e-22)
(0.000713944 0.00131467 1.31627e-21)
(0.000331806 0.000648952 -1.34367e-21)
(0.00072185 0.00126634 4.69837e-23)
(0.000819902 2.87016e-05 1.32294e-21)
(0.000872951 0.000236665 1.17758e-21)
(0.000355893 0.000644032 2.2584e-21)
(0.000249472 4.46447e-05 0)
(6.13466e-06 0.00014143 -4.65201e-21)
(0.000651052 0.00114944 -1.41563e-23)
(0.000850946 0.000280696 -1.4473e-21)
(3.42034e-05 5.80035e-06 -2.16034e-21)
(0.000643074 0.00118191 1.28835e-21)
(0.000669345 0.00123894 1.73606e-22)
(0.000673036 0.00114575 0)
(0.000634624 0.00139933 -1.91755e-21)
(0.000535144 -7.92935e-05 -4.99126e-21)
(0.00058517 0.00127144 3.49446e-22)
(0.000230987 0.000762083 0)
(1.32355e-05 0.000175822 2.22592e-25)
(0.000812015 0.000730381 -1.68909e-22)
(0.0007507 0.00133169 0)
(0.000694111 0.00120983 1.37737e-22)
(0.000771566 2.16813e-06 0)
(4.36098e-06 0.000202595 1.77237e-21)
(-1.17154e-06 0.00102993 -1.49399e-21)
(0.000141059 0.0006792 1.60939e-21)
(0.000608414 -8.17815e-05 2.0613e-21)
(0.00069976 0.00129121 -9.62188e-22)
(0.000158563 0.000323467 0)
(0.000556167 0.000159113 -6.88994e-22)
(0.000911832 0.000624479 -1.30386e-21)
(0.000703301 0.00122846 0)
(0.000654401 0.00110865 2.42565e-22)
(0.000559873 0.000989427 -6.42766e-22)
(0.000602327 0.00102947 0)
(0.000533355 0.000931689 -9.99229e-24)
(0.000503471 0.000193678 6.41499e-22)
(0.00032834 0.000688071 4.37646e-23)
(0.000312633 0.000672233 1.0092e-23)
(0.000433192 0.000915459 4.0948e-23)
(0.000566705 0.0013037 1.00484e-21)
(0.000890639 0.00020946 0)
(0.000895679 0.000107329 1.43481e-21)
(0.000502883 0.00101987 -6.9444e-22)
(0.000209946 0.000291472 -2.33294e-21)
(0.00050946 0.000918075 0)
(0.000325867 0.000717971 1.00516e-23)
(0.000369587 0.000817635 1.08073e-23)
(0.000713772 6.01111e-05 2.92595e-25)
(0.000595908 0.00102983 -1.66718e-22)
(0.000684579 0.00129531 3.27642e-22)
(0.000729056 0.00128613 -1.03259e-21)
(0.000612469 0.00115411 0)
(0.000647363 0.00114474 4.47795e-22)
(0.000603815 0.000945944 0)
(0.000542037 0.000668752 -2.4654e-25)
(0.000528848 0.000925812 0)
(2.42415e-05 0.000177964 -3.98343e-25)
(0.000624962 0.000187174 3.30446e-22)
(0.00043159 0.000546676 -1.15215e-21)
(9.73113e-05 4.89871e-05 0)
(0.0008719 0.000314231 0)
(0.00043981 5.38208e-05 -6.11499e-24)
(0.000632618 0.00076359 1.61866e-21)
(0.00106051 0.000476886 6.1256e-22)
(0.000686398 0.00116981 -2.01271e-22)
(0.00042945 0.000469281 7.07886e-22)
(0.000604059 0.00132805 -2.40201e-21)
(0.00067771 0.0014496 -2.34855e-22)
(0.000551988 0.00101887 1.72074e-21)
(0.000546959 0.000170832 0)
(0.000830403 0.000428291 -4.7822e-22)
(0.000707666 0.00112622 4.86702e-24)
(0.000294477 0.000307464 0)
(0.000560892 0.00101266 -5.24341e-22)
(0.000482902 0.000575934 -4.93389e-21)
(0.000163766 0.000193152 1.81461e-21)
(0.000843057 0.0014915 1.09049e-22)
(0.000799086 0.000665251 -1.8601e-21)
(0.000530336 0.00116781 5.67745e-22)
(0.000993349 8.56928e-05 -1.65999e-21)
(0.000671143 0.000533425 1.11015e-21)
(0.00080055 0.00141176 -7.59468e-23)
(0.000507802 0.000573388 -9.90868e-25)
(0.00116071 0.000349049 -4.96982e-22)
(0.000409504 0.000327925 1.31e-21)
(0.000276991 0.000599633 9.11143e-24)
(0.000282506 0.00061183 9.24193e-24)
(0.000289907 0.000628453 9.39166e-24)
(0.000343602 0.000749872 -8.1873e-23)
(0.00027079 0.000586355 3.62539e-23)
(0.00018412 0.000181667 0)
(0.000761577 0.000521174 0)
(0.000559559 0.00086292 -1.86643e-21)
(0.000854145 1.61666e-05 0)
(0.000172712 2.66053e-05 1.86405e-21)
(2.22211e-05 6.1243e-05 3.36924e-21)
(0.000504786 0.000403498 -1.34852e-21)
(0.000412614 0.00065096 2.22229e-21)
(0.00117638 0.000647237 3.34502e-21)
(0.000528897 0.000936773 4.48834e-22)
(0.00055651 0.000960263 -8.94399e-22)
(0.000538801 0.000946901 2.27074e-22)
(0.000580668 0.00101237 -1.02739e-21)
(0.000741087 0.00128318 0)
(0.000675266 0.00119678 2.53441e-22)
(7.08767e-05 5.0371e-05 1.91873e-21)
(0.000874551 0.000277707 1.55655e-21)
(0.000435015 0.000799863 -9.27964e-22)
(0.000456683 0.000832813 -6.87547e-22)
(0.000599218 0.000994556 -3.14312e-22)
(0.000500251 0.000807356 3.55515e-22)
(0.000472763 0.000745344 3.93897e-22)
(0.000419543 0.000742512 8.95317e-22)
(0.000572219 0.000815457 2.43411e-23)
(0.000489304 0.00070201 0)
(0.000534515 0.000895105 -6.56969e-22)
(0.000439546 0.00081307 5.74546e-22)
(0.000571223 0.000898105 -4.37939e-22)
(0.000548669 0.000950222 -6.53279e-22)
(0.000422261 0.00074526 -1.94849e-22)
(0.000412397 0.000733224 4.00733e-22)
(0.000521986 0.000939257 0)
(0.000433064 0.000702876 -9.0795e-22)
(0.000418289 0.00073314 2.23316e-22)
(0.000427718 0.000749366 4.26418e-22)
(0.000711194 0.0010052 -1.72574e-22)
(0.00042361 0.000768424 -1.64677e-22)
(0.000429099 0.000783987 0)
(0.000419367 0.000766772 3.50995e-22)
(0.000451667 0.000728249 0)
(0.000399822 0.000730112 2.28523e-23)
(0.000524658 0.000954485 -9.26486e-24)
(0.000538927 0.000941782 1.17438e-23)
(0.000626854 0.0010395 0)
(0.000501836 0.000749317 3.31813e-21)
(0.000560143 0.000992736 6.05778e-22)
(0.000595883 0.000978197 -1.87237e-21)
(0.000405219 0.000743727 -7.89846e-22)
(0.000509648 0.000762393 0)
(0.000457935 0.000817512 -7.25207e-22)
(0.000505996 0.000915141 3.74149e-22)
(0.000483396 0.00079579 0)
(0.000865717 0.000152775 -1.16128e-21)
(0.000755602 0.00133205 2.19684e-22)
(2.54395e-05 8.67641e-06 1.1021e-21)
(0.000797204 0.00148002 -1.59045e-22)
(0.000913774 2.45817e-05 -1.3232e-21)
(4.2168e-05 7.2251e-07 2.3326e-21)
(4.05505e-05 -2.52249e-06 0)
(0.000121244 0.000285805 1.23246e-21)
(0.000655515 0.00114122 -3.96031e-22)
(0.00067034 0.00117971 0)
(0.000751917 0.00127803 -1.90826e-21)
(1.46501e-05 5.098e-05 -2.11163e-21)
(0.000206961 0.000523211 0)
(7.36464e-06 -8.31942e-06 -1.87457e-21)
(0.000738231 0.000150053 1.62057e-21)
(0.000859514 2.73407e-05 -5.9473e-22)
(0.000719987 0.00120392 1.55439e-21)
(0.000409849 0.00110818 -6.09301e-22)
(0.000279058 0.000405048 -1.02943e-22)
(0.000415664 0.000814658 1.69112e-21)
(0.000208573 0.000566499 -1.6829e-21)
(0.00108227 0.000471021 7.41123e-23)
(0.000158562 0.000826597 1.70714e-21)
(0.000823264 0.000342101 7.81917e-22)
(7.01425e-05 4.11923e-05 3.4381e-21)
(0.00100709 -1.06892e-06 3.63642e-21)
(0.000740846 0.00125548 -1.41018e-23)
(0.000608365 0.000262287 -2.11229e-21)
(0.00102166 0.000257486 1.51454e-24)
(5.2065e-05 0.000329678 -1.35906e-21)
(0.000608298 0.00121236 -9.29735e-24)
(0.00057699 0.00120822 0)
(0.000782253 0.00156211 0)