/*--------------------------------*- C++ -*----------------------------------*\
  =========                 |
  \\      /  F ield         | OpenFOAM: The Open Source CFD Toolbox
   \\    /   O peration     | Website:  https://openfoam.org
    \\  /    A nd           | Version:  8
     \\/     M anipulation  |
\*---------------------------------------------------------------------------*/
FoamFile
{
    version     2.0;
    format      ascii;
    class       surfaceScalarField;
    location    "1.8";
    object      phi;
}
// * * * * * * * * * * * * * * * * * * * * * * * * * * * * * * * * * * * * * //

dimensions      [0 3 -1 0 0 0 0];

internalField   nonuniform List<scalar> 
11231
(
2.38675e-08
-3.0501e-08
-5.04418e-09
1.16777e-08
8.53222e-09
3.77067e-10
-1.02473e-09
-7.88456e-09
-9.5404e-09
9.51971e-09
3.34355e-10
-3.13668e-10
-9.90228e-10
-9.26132e-09
1.50755e-09
8.744e-09
-9.50359e-09
5.24345e-11
9.50329e-09
-5.21381e-11
-5.6408e-10
-8.73811e-09
8.31197e-09
-8.92048e-11
1.16726e-10
-9.56792e-09
-1.10913e-10
-9.0481e-09
9.06981e-09
-9.5071e-09
9.49406e-09
4.29296e-11
-2.98884e-11
5.27503e-12
-9.55698e-09
4.81208e-11
-5.46503e-11
-9.04467e-09
9.1046e-09
-9.49365e-09
9.48829e-09
3.30024e-11
-2.76422e-11
4.7116e-12
-9.54619e-09
3.43777e-11
-3.54987e-11
-9.06109e-09
9.1013e-09
9.29443e-12
2.18138e-11
-9.52476e-09
9.16225e-09
4.30052e-10
-1.06008e-09
-3.79657e-11
-9.06147e-09
9.10874e-09
-9.48331e-09
3.55798e-11
9.46945e-09
-2.17166e-11
5.45623e-09
1.27305e-08
-1.38856e-08
-4.30117e-09
-9.55746e-09
3.75808e-10
4.6761e-10
8.71405e-09
-3.39935e-12
-9.50977e-09
2.98518e-11
-4.58733e-11
-9.05157e-09
9.09405e-09
-9.46393e-09
9.46433e-09
3.83649e-11
-3.87598e-11
-5.84896e-12
3.11978e-11
-9.48928e-09
-4.4558e-11
-9.05387e-09
9.09258e-09
1.5959e-12
9.44408e-09
-9.47757e-09
3.18996e-11
5.86358e-09
-9.90274e-09
9.49538e-09
-1.31409e-08
3.46902e-09
9.53776e-09
1.34147e-10
-4.63218e-11
-9.04626e-09
9.09418e-09
9.44685e-09
3.25438e-11
-3.53141e-11
2.19123e-11
-5.45484e-11
-1.27683e-08
1.28009e-08
1.73094e-12
9.41684e-09
-9.44815e-09
2.95823e-11
5.76639e-09
-3.75678e-09
1.72349e-09
-3.7331e-09
-4.11778e-11
-9.03018e-09
9.07309e-09
-1.50927e-08
-6.797e-09
7.98448e-09
1.39052e-08
-1.2962e-08
1.27706e-08
2.13306e-10
-5.93658e-10
1.37335e-08
1.14587e-09
9.42726e-09
2.48033e-11
-3.52226e-11
-2.77205e-09
8.12158e-09
-1.06385e-08
5.28896e-09
-8.84262e-12
9.38964e-09
-9.40671e-09
2.59194e-11
-5.74356e-09
-1.5495e-08
1.28937e-08
8.34484e-09
-9.00667e-09
-5.2484e-11
9.05031e-09
-6.42329e-09
6.4093e-09
5.87757e-09
3.49868e-09
1.89773e-10
-3.41559e-09
-2.72869e-10
9.39426e-09
3.37183e-11
-3.83396e-11
-3.05788e-09
1.62563e-08
1.08756e-09
8.92055e-09
-1.26804e-08
-1.6905e-08
2.06648e-08
2.02226e-11
9.33541e-09
-9.35828e-09
2.63934e-12
-9.93329e-09
1.27145e-08
-2.13647e-09
-6.44703e-10
-1.89414e-08
1.28357e-08
2.94585e-09
3.15987e-09
-5.6557e-09
1.37508e-08
1.54037e-08
-2.34987e-08
-1.48944e-11
-8.98872e-09
9.02384e-09
9.35129e-09
-1.5786e-11
-9.00109e-14
-3.60414e-12
9.30911e-09
2.80097e-11
-9.33352e-09
9.03564e-09
-9.00177e-09
7.96862e-12
-4.18382e-11
1.53559e-08
-9.79449e-09
-1.03963e-08
4.83489e-09
-2.86203e-11
-8.97717e-09
9.00218e-09
1.01608e-08
-1.79908e-09
-1.41052e-08
6.86131e-09
1.37429e-08
1.22714e-09
-2.18314e-08
-4.29739e-09
3.9395e-09
-2.66511e-09
3.02299e-09
9.02926e-09
-1.8176e-11
1.0252e-12
-9.0121e-09
-4.07804e-09
1.1289e-08
-9.31429e-09
2.10336e-09
7.95754e-09
-1.77998e-09
-1.32491e-08
7.07157e-09
1.18366e-08
-1.55133e-08
-1.97903e-09
-7.86909e-12
9.29479e-09
-9.30524e-09
1.83125e-11
9.3253e-09
8.92084e-12
-2.51062e-11
3.89004e-08
-3.11568e-08
-7.74363e-09
-6.35672e-09
-8.47368e-09
1.62282e-09
1.32076e-08
7.17888e-09
1.00666e-09
-7.60623e-09
-5.79319e-10
-4.11314e-11
-8.96343e-09
8.99669e-09
-1.79532e-08
-2.31917e-10
1.683e-08
1.35512e-09
-4.51424e-10
3.85071e-09
-1.7137e-08
1.37378e-08
2.39802e-10
8.29631e-09
-2.95914e-09
-5.57697e-09
-2.38798e-11
9.27251e-09
-9.28345e-09
3.48239e-11
2.46015e-09
2.51335e-09
1.03824e-08
1.03228e-09
1.03225e-08
-9.66957e-09
-1.68523e-09
2.79921e-11
9.292e-09
-2.51962e-11
-4.80202e-11
-8.94856e-09
8.9727e-09
3.24912e-09
-4.33184e-09
8.26138e-09
-7.17866e-09
-4.2698e-10
-1.01827e-08
7.59118e-11
1.05338e-08
-8.8019e-09
6.38697e-09
8.33973e-09
-5.92481e-09
2.40488e-10
-1.34501e-09
-4.49499e-10
1.55402e-09
9.79613e-09
1.50168e-09
-6.42339e-09
-4.87442e-09
-3.98387e-11
9.23705e-09
-9.23901e-09
4.18075e-11
9.27851e-09
1.68241e-11
-2.28185e-11
2.6124e-10
-8.9346e-09
-6.47829e-11
8.95955e-09
-9.35278e-10
-1.24782e-08
-2.92279e-10
-3.57872e-10
3.73508e-10
2.76643e-10
-3.25748e-10
5.36181e-09
7.30335e-10
-1.27698e-08
-2.95368e-09
5.92896e-09
9.24793e-09
4.31472e-11
-5.40355e-11
8.94938e-09
-8.94321e-09
3.90924e-11
-4.52634e-11
2.34933e-09
-2.10953e-09
8.45584e-11
-5.5584e-11
4.77035e-11
-2.02218e-11
2.60882e-09
-3.63671e-10
6.05116e-09
8.9624e-09
-8.95613e-09
3.11465e-11
-3.74226e-11
-5.43244e-08
6.53458e-08
-1.10214e-08
6.44743e-11
-4.96914e-11
5.13124e-11
-3.21222e-11
-8.96156e-09
-3.50975e-11
4.0527e-11
-8.94728e-09
-4.91438e-11
3.48707e-11
9.36689e-09
-9.38455e-09
2.56305e-11
1.09967e-08
-1.42408e-09
-1.11033e-08
1.5307e-09
-2.72504e-09
-1.09294e-08
-1.34215e-09
1.49966e-08
-1.1979e-09
6.68657e-09
-8.44781e-09
-8.93154e-09
-5.53669e-11
3.96218e-11
-3.89523e-11
2.95467e-11
-8.92213e-09
-9.48509e-09
-1.0748e-08
1.38764e-08
-9.37397e-09
-1.95476e-12
9.35775e-09
7.13435e-09
8.93541e-10
-7.73748e-09
-2.90416e-10
1.35696e-10
1.06674e-08
1.93542e-10
9.84161e-09
5.77942e-10
-2.46201e-09
3.01618e-10
8.98256e-09
-7.96488e-09
-1.3193e-09
-1.10727e-09
1.07064e-09
1.72636e-10
-1.36007e-10
1.51319e-08
-9.6524e-09
-7.09384e-09
1.61434e-09
-4.86664e-10
9.9446e-10
6.57264e-10
-1.16506e-09
-7.04896e-10
-3.84241e-11
7.45786e-10
-2.46658e-12
9.74554e-09
-9.28263e-11
-9.72607e-09
7.33515e-11
7.64939e-09
-1.68883e-10
-1.67684e-08
4.95094e-09
1.13905e-08
3.62414e-11
-1.16587e-09
8.03817e-11
1.04924e-09
-4.91256e-09
-5.83202e-12
1.15507e-11
4.90684e-09
-1.09389e-08
8.69151e-09
2.49033e-09
-2.42939e-10
5.5151e-12
-1.07654e-09
-1.02849e-08
-1.92522e-09
4.88474e-09
-4.8931e-09
-6.96834e-12
1.53296e-11
-1.07019e-08
9.96923e-09
3.34151e-09
-1.72643e-09
4.02492e-09
-2.29849e-09
2.26971e-10
-1.63203e-08
-1.85982e-09
-6.20988e-10
8.62787e-11
-1.70186e-10
-1.1811e-08
7.59745e-09
3.01564e-09
1.27291e-08
-1.32574e-08
4.37902e-09
9.41986e-09
-9.35362e-09
3.71505e-12
-6.9955e-11
-4.79437e-09
-1.56261e-11
1.52071e-11
4.79479e-09
-5.12104e-10
6.88169e-10
5.18401e-10
-6.94466e-10
-1.23273e-09
-2.37891e-09
1.89781e-09
1.71383e-09
-1.05209e-09
6.94248e-09
-8.66244e-09
-4.91002e-10
-2.33141e-10
1.03154e-10
-4.74676e-09
-1.53178e-11
9.4135e-12
4.75267e-09
-6.54215e-09
8.93169e-09
-8.81283e-09
1.06168e-08
-1.32249e-08
5.23343e-09
-2.62529e-09
9.71862e-09
-1.04595e-10
1.31518e-10
1.53674e-10
-2.11001e-09
1.41996e-10
-2.70325e-10
-3.62673e-10
-5.97783e-09
-9.80385e-10
-3.45356e-09
4.35704e-09
-4.71296e-09
-1.02037e-11
6.40731e-12
4.71676e-09
3.50149e-10
9.67878e-10
-2.4739e-10
-1.37124e-09
-1.20818e-08
1.2029e-08
-2.00716e-08
3.01423e-08
5.06113e-09
-1.12491e-11
-1.00992e-12
-4.67337e-09
4.68563e-09
-8.07583e-09
7.12515e-09
8.80623e-10
7.00586e-11
-8.10599e-09
5.38101e-09
-7.28581e-10
-5.02465e-08
-2.76341e-08
7.78806e-08
4.67754e-09
-4.57293e-12
-9.91222e-12
-4.66306e-09
1.19814e-09
-4.55941e-10
-1.39151e-09
6.49313e-10
7.99093e-09
5.042e-09
-1.15818e-08
-1.45114e-09
8.55967e-09
5.02476e-10
-3.70638e-10
1.15839e-10
5.811e-09
-6.8307e-09
9.03858e-10
-1.77443e-10
2.21567e-10
-9.85507e-09
9.81095e-09
-1.80993e-08
-8.45665e-09
1.84226e-09
2.47137e-08
4.86296e-09
-6.88231e-09
6.234e-09
-4.21465e-09
1.12055e-08
-4.61642e-09
5.24758e-09
-1.06569e-08
-2.4478e-09
-3.66378e-09
-6.46888e-09
-2.27691e-09
2.0885e-09
6.65729e-09
-3.09183e-09
-2.07492e-10
-9.29975e-09
1.53965e-08
1.82286e-09
-7.91962e-09
7.90316e-09
-8.18086e-09
5.14066e-09
8.81803e-10
9.52628e-10
-6.36296e-10
3.88e-09
-1.90114e-09
2.96771e-09
-4.94657e-09
8.33613e-09
-8.34687e-09
-4.46308e-11
-8.56207e-11
9.41265e-09
-1.1654e-09
1.05961e-09
-1.35623e-08
6.58606e-09
-9.65871e-09
9.72272e-10
1.07977e-08
-2.11128e-09
8.45937e-09
5.32895e-10
-8.77427e-09
-2.17996e-10
1.12571e-08
-3.07101e-09
-5.02963e-09
1.15121e-08
1.17374e-09
-7.65616e-09
1.5163e-08
1.05166e-08
-1.32166e-08
-1.2463e-08
9.5615e-09
-3.70066e-09
8.4251e-09
-1.29087e-10
9.67026e-09
-6.90081e-09
7.00354e-09
-6.39229e-10
5.365e-10
5.74919e-10
-2.01546e-08
-8.10565e-09
2.76853e-08
-6.01041e-09
1.14561e-08
-1.19878e-08
-8.30914e-09
-4.41558e-10
-2.31923e-09
7.88086e-09
-1.05913e-08
7.07008e-09
4.15174e-11
-7.09057e-09
-2.10259e-11
-2.17272e-10
3.99913e-10
-1.57415e-09
-1.20269e-10
-9.14431e-09
-8.90419e-11
7.59776e-09
-1.15261e-09
4.17164e-09
-1.56465e-08
1.2823e-08
-3.18696e-09
-3.45488e-09
9.64284e-09
2.74373e-09
-7.39658e-10
4.30463e-10
6.06734e-10
-2.97538e-10
2.80387e-09
-4.19099e-12
-2.82098e-09
-1.28213e-08
5.34696e-09
-4.89162e-09
4.14965e-09
-4.60499e-09
3.61602e-11
-2.76157e-11
7.06154e-09
8.64782e-09
-2.08421e-10
-7.96565e-09
-8.2248e-11
-7.55357e-10
-7.43964e-10
3.33456e-10
8.96449e-10
-8.54491e-10
-3.30955e-10
-1.26926e-09
1.11355e-09
-1.30375e-08
-1.0116e-10
-1.59503e-09
1.47337e-08
-3.66483e-08
-1.35983e-08
3.35362e-10
-8.7933e-10
-1.9569e-10
-1.30428e-08
-1.36592e-09
4.7322e-09
1.16884e-08
-4.64025e-09
-1.17804e-08
1.49014e-08
6.19361e-10
-1.45058e-08
-1.01501e-09
-9.23643e-09
9.22295e-09
5.25741e-11
-8.22652e-10
5.91069e-10
6.62046e-10
1.59182e-12
-6.91212e-09
-1.2554e-11
6.92308e-09
1.01324e-10
9.0889e-09
-9.0037e-09
-1.86521e-10
-1.30164e-09
7.27621e-10
5.74023e-10
-7.15707e-09
-3.49059e-09
3.76535e-09
-8.08225e-09
4.59763e-10
-4.35486e-10
8.05798e-09
-5.58488e-10
7.71721e-10
-2.13234e-10
-6.37815e-11
-9.65857e-09
-4.01468e-10
7.88892e-09
-8.53954e-09
-1.21004e-09
8.42157e-09
-8.34754e-09
2.72885e-11
6.94134e-12
6.85043e-09
2.67782e-10
8.68357e-09
-1.05702e-10
-1.6326e-09
4.35342e-10
8.67209e-09
-7.41429e-11
-7.61327e-09
7.7676e-11
-5.77388e-09
7.51145e-09
6.16559e-09
-1.73992e-09
-8.04544e-09
7.64425e-09
2.14111e-09
2.36083e-09
-2.16916e-09
-1.32345e-08
-3.5927e-10
-1.99218e-10
-7.47062e-10
1.33695e-09
-7.05877e-09
8.14717e-09
2.99697e-12
1.51567e-12
-8.15169e-09
6.91491e-09
1.50028e-11
-6.92602e-09
-3.89062e-12
5.97849e-12
6.95094e-12
-8.15867e-09
8.14574e-09
7.99536e-11
9.24716e-09
-2.38215e-10
8.62314e-10
1.55509e-08
-1.51184e-09
-1.59249e-08
1.70126e-08
-1.08768e-09
1.44697e-08
1.12843e-08
-1.0591e-08
-1.06787e-09
1.71368e-09
-6.45808e-10
-1.17199e-08
-6.567e-11
1.17855e-08
-9.18305e-09
-1.5466e-09
2.1118e-09
-2.85598e-09
7.44187e-10
1.56097e-11
-8.65744e-09
4.08871e-09
-6.01865e-09
1.92994e-09
2.37085e-09
-1.95417e-09
-4.16685e-10
-1.27519e-08
3.34922e-11
1.27184e-08
3.45407e-09
-1.08322e-09
1.13105e-08
-1.36339e-08
-3.10207e-09
5.59045e-09
-6.22167e-09
4.17344e-10
3.66162e-09
-5.80277e-10
-3.64385e-09
4.06119e-09
-8.47076e-09
-7.26833e-09
3.21241e-11
-1.01744e-09
3.76732e-09
1.13012e-09
-4.79959e-09
4.6303e-09
-1.73185e-09
-2.96152e-10
-4.78144e-09
6.33575e-09
-1.55431e-09
5.80708e-09
8.4672e-09
3.43265e-11
4.79197e-10
9.21997e-09
2.61538e-11
-9.21498e-09
4.62706e-09
1.25871e-08
-1.24819e-08
7.20351e-09
-1.94887e-09
-8.25891e-09
-4.26695e-09
2.89296e-10
-1.30412e-08
1.63303e-09
-6.21624e-10
-1.5424e-08
9.54002e-09
7.72259e-11
-3.70085e-10
-7.20251e-10
-6.96536e-09
-3.75951e-10
7.29837e-11
8.65523e-09
7.29518e-11
-5.60903e-11
1.50626e-08
-1.44432e-08
-1.06347e-12
-1.20346e-09
-2.13501e-09
6.73138e-09
9.91555e-10
-7.83196e-11
-8.9697e-09
5.97621e-09
-3.05819e-08
2.12936e-10
-8.28825e-09
4.26917e-10
-8.59119e-09
-1.99589e-10
8.36386e-09
-1.60289e-09
-6.86883e-09
1.50636e-09
7.31034e-11
8.62542e-09
-4.32899e-11
9.38101e-09
-6.74746e-09
6.71107e-09
7.54784e-09
1.47657e-08
1.04406e-08
-1.46897e-08
1.30748e-09
3.38498e-09
-1.43471e-09
2.10875e-08
1.83228e-08
-2.06388e-08
-1.87715e-08
-1.04378e-09
-1.03999e-09
1.37651e-09
7.07261e-10
-9.12713e-09
1.35638e-08
1.00331e-08
-3.23152e-10
4.62779e-10
4.67107e-10
5.12612e-09
-6.97239e-09
1.84395e-09
2.31575e-12
-5.32859e-09
7.98823e-09
2.46649e-09
-7.46813e-09
8.28245e-10
-3.32509e-10
-7.76412e-09
-2.68089e-10
-9.30236e-09
1.05309e-10
-1.62143e-10
9.3592e-09
-7.93364e-09
3.59977e-10
-1.90457e-10
-8.01441e-09
2.03725e-10
-1.22954e-10
-8.04853e-09
-7.67901e-11
-8.06371e-09
6.76571e-11
-5.24736e-11
-8.06947e-09
5.6967e-11
-5.12084e-11
9.22988e-09
-9.23276e-09
-9.96053e-13
3.87361e-12
9.23171e-09
-9.24222e-09
2.69778e-12
7.81846e-12
9.231e-09
-9.23295e-09
-8.91423e-13
2.84166e-12
9.23244e-09
-2.72235e-12
-9.23368e-09
3.97128e-12
9.23245e-09
-9.24275e-09
6.93097e-12
3.36892e-12
9.2417e-09
-9.23403e-09
-1.71809e-12
-5.94685e-12
9.23338e-09
-9.23668e-09
4.62687e-12
-1.32861e-12
9.23003e-09
-9.2404e-09
1.93062e-12
8.43731e-12
9.22991e-09
-9.23066e-09
-2.05486e-12
2.79719e-12
9.23869e-09
-9.23306e-09
-4.79463e-12
-8.36129e-13
9.23833e-09
-9.22976e-09
-7.71883e-12
-8.48689e-13
-6.42894e-12
9.23982e-09
-1.68426e-12
9.23649e-09
-8.3187e-13
-4.65581e-12
9.22912e-09
-9.23108e-09
-2.09499e-12
4.0582e-12
9.23639e-09
2.21432e-12
-6.16614e-12
9.23728e-09
-6.396e-12
1.56469e-12
9.2293e-09
-9.23113e-09
-2.0839e-12
3.91382e-12
8.77298e-13
9.23743e-09
3.38701e-12
9.22822e-09
1.65124e-12
3.51431e-12
9.22947e-09
-9.23122e-09
-2.29947e-12
4.05345e-12
-9.25154e-09
9.24225e-09
4.4428e-12
4.84253e-12
-9.25134e-09
9.24313e-09
1.15898e-11
-3.37595e-12
9.24375e-09
-9.24172e-09
-2.6411e-12
6.14703e-13
9.22973e-09
-9.23114e-09
-3.61626e-12
5.0328e-12
-6.23977e-12
9.23864e-09
-2.37293e-12
9.23462e-09
4.21007e-14
-4.7518e-12
9.23959e-09
-9.23434e-09
-8.21813e-12
2.9685e-12
3.3919e-12
9.23379e-09
1.50417e-12
9.22822e-09
7.69726e-12
2.41284e-12
9.22445e-09
6.53609e-13
4.01698e-12
-3.79369e-12
9.24146e-09
-9.23396e-09
-3.70648e-12
9.24619e-09
-9.25079e-09
4.24052e-12
3.59892e-13
9.23802e-09
-9.96901e-12
-9.24162e-09
1.3574e-11
4.4827e-12
9.23093e-09
-9.23862e-09
3.20839e-12
9.22526e-09
2.2264e-12
1.80806e-12
9.24136e-09
-9.24761e-09
6.58096e-12
-3.27461e-13
1.05745e-12
-9.23024e-09
-3.20666e-12
9.23238e-09
-9.25084e-09
9.24197e-09
7.67497e-12
1.19348e-12
9.22562e-09
1.76306e-12
2.08264e-12
9.24303e-09
-9.24017e-09
-3.63455e-12
7.75625e-13
9.24773e-09
-9.25405e-09
-2.65596e-11
3.28728e-11
9.23431e-09
2.4644e-12
-7.04553e-12
-9.24525e-09
2.28537e-12
-5.02922e-12
9.24799e-09
6.41067e-12
9.23444e-09
-1.26925e-12
9.26355e-09
-9.27449e-09
-4.41092e-11
5.50536e-11
-9.24382e-09
9.24605e-09
-2.9072e-12
6.75903e-13
9.23545e-09
-1.17741e-11
1.43387e-11
9.24318e-09
5.88339e-12
-5.59323e-13
-9.2485e-09
5.30266e-12
-9.24201e-09
-3.34646e-12
9.24005e-09
-1.52494e-11
9.23922e-09
2.37616e-11
1.59383e-12
-9.25139e-09
1.11826e-12
9.24867e-09
-5.23802e-12
9.24092e-09
-9.23221e-09
-3.47133e-12
-3.41728e-11
9.25575e-09
4.19731e-11
7.72274e-12
9.23359e-09
-9.23908e-09
-2.22852e-12
1.3113e-12
1.64137e-13
-9.24291e-09
9.24144e-09
7.34928e-12
-9.23884e-09
9.23127e-09
2.18678e-13
-9.24198e-09
-5.25642e-13
1.79151e-12
9.24072e-09
2.34614e-12
-9.22901e-09
9.23204e-09
-5.37075e-12
2.23552e-12
-7.68957e-12
-9.24518e-09
9.25064e-09
-8.0916e-09
-3.25225e-11
-9.23688e-09
-3.30205e-12
-3.74047e-12
9.24392e-09
9.23816e-09
-9.24586e-09
-9.56084e-13
8.65423e-12
9.29145e-09
-9.29762e-09
-7.25554e-11
7.87235e-11
-5.34009e-12
9.22937e-09
-9.23111e-09
7.07546e-12
9.24707e-09
-4.27051e-12
1.02642e-11
-9.25306e-09
2.87017e-12
9.23322e-09
-9.2385e-09
2.40575e-12
9.34394e-09
-9.35665e-09
-1.14894e-10
1.27612e-10
4.26448e-12
-9.23996e-09
-2.49353e-12
9.23818e-09
-9.52704e-09
4.92228e-10
9.47747e-09
-4.42663e-10
-9.24754e-09
1.59991e-12
7.78021e-12
9.23816e-09
-9.57707e-09
-3.8407e-10
4.34104e-10
9.39838e-09
-1.68422e-10
-9.42973e-09
1.99776e-10
-9.24323e-09
4.314e-12
-2.28792e-13
9.23914e-09
8.86873e-09
-8.86519e-09
-6.52488e-11
6.171e-11
9.50007e-09
2.66563e-10
-2.2915e-10
-9.53749e-09
6.94529e-11
-6.70482e-11
9.28904e-09
3.99788e-12
-9.24802e-09
6.95299e-12
9.23707e-09
1.22482e-10
-9.5863e-11
9.31732e-09
1.70964e-12
4.51381e-13
-9.24914e-09
9.24698e-09
1.03217e-11
9.23096e-09
-9.24303e-09
1.74826e-12
1.06962e-11
-9.24308e-09
-5.09612e-12
9.23748e-09
1.34499e-12
-9.24909e-09
2.71072e-13
9.24748e-09
1.70406e-10
-1.45879e-10
9.37385e-09
-9.66087e-09
9.60361e-09
-3.19298e-10
3.76553e-10
9.52324e-13
9.58973e-12
-9.24862e-09
9.23808e-09
-8.78153e-09
4.89266e-12
2.90803e-12
8.77373e-09
-8.7785e-09
3.28328e-12
-6.30831e-12
2.49228e-10
-2.09129e-10
9.45997e-09
-8.79212e-09
5.99135e-12
7.6204e-12
-8.78527e-09
3.38642e-12
-1.02289e-11
-9.24759e-09
-7.79975e-13
1.08557e-11
9.23752e-09
4.53701e-12
-8.7919e-09
2.08639e-12
8.79747e-13
-1.12283e-12
9.17731e-09
-9.17707e-09
8.78802e-09
-1.60022e-12
-8.80134e-09
1.49259e-11
-9.24424e-09
-2.77354e-14
4.84378e-12
9.23942e-09
-8.08987e-09
4.25118e-11
-4.42402e-11
8.78807e-09
-3.48927e-12
-8.79196e-09
7.38203e-12
8.78826e-09
-3.89608e-12
-8.79194e-09
7.58505e-12
8.78771e-09
-8.79991e-09
4.21037e-12
7.99163e-12
-9.62183e-09
3.76394e-10
-3.31636e-10
9.27665e-09
8.30329e-11
-9.29023e-09
-9.31559e-09
-9.90018e-11
1.13192e-10
9.3014e-09
1.31287e-10
-9.3244e-09
8.78215e-09
-8.79405e-09
2.3249e-13
1.16666e-11
-1.38789e-11
1.85875e-11
-9.25876e-09
9.25405e-09
9.36171e-09
1.95642e-10
-9.38694e-09
-1.52e-10
1.72404e-10
9.3413e-09
9.43594e-09
-9.46677e-09
2.80062e-10
-8.78283e-09
8.7726e-09
8.66809e-12
1.56252e-12
-8.76933e-09
-7.96445e-12
-5.53501e-12
-2.81097e-11
4.13436e-11
-9.26818e-09
9.25495e-09
-8.78338e-09
-9.66871e-13
1.50087e-11
-2.22843e-10
2.54595e-10
9.40419e-09
-8.77211e-09
3.00823e-12
-1.42746e-11
-8.78801e-09
5.89408e-12
1.00092e-11
-8.77708e-09
-1.72889e-11
6.35658e-12
-8.79163e-09
1.73484e-11
-2.80273e-12
-9.55256e-09
9.51062e-09
-3.0169e-10
3.43632e-10
-5.9736e-11
6.17369e-11
9.27465e-09
-8.7761e-09
1.79181e-12
-1.73165e-11
2.82325e-12
-8.79152e-09
1.25971e-11
3.13566e-10
-9.65492e-09
-2.52704e-10
9.59405e-09
8.7874e-09
-4.39115e-12
-8.79108e-09
8.07398e-12
-9.70899e-09
-3.2248e-10
3.70601e-10
8.78189e-09
-8.3424e-12
-8.78429e-09
1.07405e-11
-8.77858e-09
8.77413e-09
1.51729e-12
2.93101e-12
-8.77619e-09
8.29438e-12
-1.06849e-11
-8.79036e-09
1.01786e-11
3.98795e-12
-8.7848e-09
-8.00984e-12
2.4517e-12
-8.80069e-09
3.67667e-12
1.22078e-11
8.79762e-09
-1.25688e-11
2.9696e-12
-7.20347e-12
-4.77498e-12
-9.05846e-09
9.07044e-09
-8.0924e-09
3.71528e-11
-3.46285e-11
-6.5344e-12
-3.92979e-12
-6.7901e-12
4.07489e-12
-1.71392e-12
-5.46418e-12
1.7064e-12
2.23202e-12
-2.5167e-12
4.24471e-12
1.19081e-11
-1.10466e-10
-9.93388e-09
1.64444e-10
9.8799e-09
8.79684e-09
-8.86676e-12
9.93769e-14
7.28257e-12
5.82276e-12
-9.06941e-09
9.0563e-09
8.77965e-09
-8.80117e-09
5.75472e-12
1.57641e-11
-8.16302e-12
8.79711e-09
-6.93764e-13
3.64618e-10
-9.06066e-09
-4.5491e-12
-1.03745e-12
9.06625e-09
-7.92507e-12
8.79658e-09
-9.46652e-13
-1.59465e-12
-9.06043e-09
-4.20452e-12
9.06623e-09
8.78015e-09
-8.80195e-09
5.3581e-12
1.64415e-11
8.79459e-09
-5.80996e-12
-6.62898e-12
3.63302e-12
-9.02883e-13
-9.06699e-09
9.06426e-09
8.78841e-09
-2.68944e-12
-1.31231e-11
5.98951e-13
1.86898e-12
-9.06238e-09
9.05991e-09
8.78027e-09
-8.80184e-09
4.68836e-12
1.6889e-11
1.73435e-10
-9.83981e-09
9.76346e-09
-9.70829e-11
8.78891e-09
-8.7925e-09
-6.24736e-12
9.84628e-12
-2.2814e-12
8.78812e-09
1.55751e-12
-2.47247e-10
3.81515e-10
-9.7561e-09
-6.34444e-12
-9.06549e-09
3.12727e-12
9.06871e-09
8.78532e-09
-1.03062e-11
-8.78826e-09
1.32398e-11
8.78515e-09
2.3586e-12
-5.61787e-12
-2.65999e-13
3.0288e-12
-9.06481e-09
9.06205e-09
2.01255e-12
-7.02572e-12
8.77915e-09
4.2045e-13
-9.06235e-09
2.99429e-12
9.05893e-09
-8.79479e-09
8.7798e-09
1.56944e-11
-7.08883e-13
9.78544e-09
-6.74188e-11
-9.99037e-09
2.72345e-10
-8.78467e-09
-1.60456e-11
5.92849e-12
8.79763e-09
-6.18047e-12
-1.17978e-11
-8.80042e-09
1.46554e-12
1.42872e-11
3.95966e-12
2.84096e-12
-9.06742e-09
9.06062e-09
-8.79562e-09
-3.58345e-12
-1.21645e-12
3.74306e-12
9.22702e-09
8.78803e-09
5.54572e-14
-7.9353e-12
5.23446e-12
-7.5622e-13
-9.06932e-09
9.06485e-09
4.69225e-13
-8.81459e-09
1.8502e-11
8.79733e-09
-7.51479e-12
-9.54665e-12
5.04562e-12
-9.06958e-09
-5.72276e-13
9.06511e-09
8.79821e-09
-7.1944e-12
-2.10615e-12
9.71163e-09
9.02426e-12
4.08607e-12
-9.06911e-09
9.056e-09
8.80021e-09
-2.42621e-12
-8.82723e-09
2.94402e-11
8.78802e-09
8.91333e-13
-3.59017e-12
9.23619e-13
1.65755e-12
-9.06747e-09
9.06489e-09
-4.51536e-12
5.49489e-13
8.78377e-09
-9.06603e-09
4.43783e-12
-3.64571e-13
9.06196e-09
8.81747e-09
-1.10267e-11
-8.83941e-09
3.29676e-11
-8.09914e-09
-2.8759e-11
1.00177e-08
5.08158e-10
-1.03133e-10
-1.04227e-08
-8.99562e-13
-1.32316e-11
8.81434e-09
-9.085e-09
1.46613e-11
-4.69033e-12
9.07503e-09
9.15033e-09
6.67542e-11
-9.16211e-09
-5.49715e-11
-1.00355e-08
6.09768e-10
-1.46169e-11
1.21137e-11
8.81998e-09
2.23388e-11
-9.10268e-09
-1.1605e-11
9.09194e-09
-8.10843e-09
4.25795e-11
-3.32876e-11
6.37948e-11
-9.87792e-09
9.88747e-09
-9.89291e-09
9.89316e-09
6.35525e-11
-2.55049e-11
2.73965e-11
8.85323e-09
-8.85512e-09
3.91535e-11
-9.11952e-09
-3.42645e-11
9.11463e-09
5.84684e-11
9.14365e-09
-5.17844e-11
9.19801e-09
1.07067e-10
-9.23304e-09
-7.20386e-11
1.34615e-10
-9.86309e-09
-9.80708e-09
5.07245e-11
-4.25071e-11
-8.9025e-09
8.89429e-09
9.8728e-09
-1.63919e-10
1.84279e-10
-9.68028e-09
-3.52677e-10
3.96936e-10
9.63602e-09
-8.10462e-09
2.83362e-11
-3.21425e-11
-2.60498e-10
2.9842e-10
9.76638e-09
-9.8043e-09
8.49183e-11
9.19361e-09
-8.05233e-11
9.24714e-09
-9.23703e-09
-7.93804e-12
-2.16916e-12
9.83387e-09
-9.24939e-09
9.23884e-09
4.31011e-12
6.24633e-12
-9.24539e-09
-9.78079e-12
3.21937e-12
9.25195e-09
-9.24712e-09
-4.07959e-12
5.81388e-12
-8.97608e-09
-5.89888e-11
8.67028e-11
8.94836e-09
9.23227e-09
-9.24e-09
-2.3003e-12
1.00316e-11
3.4442e-10
-9.72628e-09
2.95282e-10
9.77182e-09
-2.33235e-10
-9.64351e-09
9.60386e-09
-9.2409e-09
9.24113e-09
3.50992e-12
-3.73308e-12
-9.24435e-09
-3.18021e-12
6.62121e-12
-9.24571e-09
9.24314e-09
5.11265e-12
-2.53996e-12
8.34671e-09
-8.38036e-09
8.9177e-11
-5.55246e-11
6.14928e-10
-1.07084e-08
9.24398e-09
1.11867e-12
1.49231e-12
-9.24659e-09
-9.24409e-09
9.24236e-09
3.81181e-12
-2.07831e-12
-9.25336e-09
3.50838e-12
5.75885e-12
-9.2457e-09
9.24821e-09
-2.90154e-12
3.91479e-13
-9.11542e-09
9.06559e-09
-1.02244e-10
1.5207e-10
9.71012e-09
-2.60782e-10
-9.24734e-09
7.49469e-13
9.24858e-09
-1.99159e-12
1.62756e-12
9.24049e-09
5.01515e-12
-9.25171e-09
-1.42666e-12
8.3347e-12
9.2448e-09
-1.10361e-13
9.24224e-09
1.68022e-12
-9.24381e-09
-9.24303e-09
1.30626e-13
1.90603e-12
9.241e-09
-9.15014e-09
1.43177e-10
-1.08457e-10
-9.25068e-09
9.24822e-09
5.50169e-12
-3.03789e-12
-1.24594e-12
-9.24844e-09
9.25196e-09
-2.27457e-12
-9.23941e-09
-3.50776e-12
-6.47905e-12
9.24134e-09
3.92591e-12
-9.2437e-09
-1.5643e-12
9.75965e-09
-1.81932e-10
3.10409e-10
-9.24478e-09
9.24738e-09
-5.22029e-12
2.62521e-12
-9.20046e-09
-1.08021e-10
1.58342e-10
-9.24934e-09
9.24305e-09
6.07132e-12
2.17695e-13
-9.25174e-09
-3.83986e-13
-1.09314e-12
9.25321e-09
-2.64094e-10
6.21712e-13
4.09516e-13
-9.24343e-09
9.2424e-09
-4.88105e-12
9.23777e-09
-9.24414e-09
-3.4807e-12
-4.1151e-12
-1.2631e-12
9.25263e-09
-9.25036e-09
-1.01325e-12
-5.03987e-12
-5.26631e-13
-9.24615e-09
-7.96563e-11
1.14878e-10
-9.0113e-09
-2.45169e-12
-9.24592e-09
2.66779e-12
-9.2456e-09
9.24347e-09
2.19236e-12
-5.99068e-14
-8.12299e-09
-1.95931e-11
-9.23942e-09
-1.75364e-14
-6.1653e-12
-1.48891e-12
-9.24618e-09
1.95463e-12
-1.27589e-12
9.2443e-09
-7.31723e-13
-9.24229e-09
-9.26584e-11
1.30519e-10
-9.23832e-09
-9.24951e-09
7.6687e-12
-2.93957e-12
-9.24623e-09
-4.53483e-12
-2.58935e-12
-4.29143e-12
-9.24223e-09
1.30624e-12
9.24521e-09
9.24246e-09
-9.24556e-09
2.6971e-12
4.01551e-13
-1.98527e-10
9.63519e-09
-9.70076e-09
1.45678e-12
9.24916e-09
-6.77914e-12
-9.24384e-09
-4.5942e-12
9.25259e-09
-9.23998e-09
-8.01766e-12
4.23895e-12
9.24465e-09
-9.25184e-09
2.94485e-12
8.97508e-13
-9.24647e-09
-1.76761e-12
-5.972e-12
2.27954e-12
-9.24065e-09
-9.24191e-09
-4.65201e-12
9.24272e-09
3.83822e-12
-1.88684e-09
1.8831e-09
3.7406e-12
1.77519e-12
-9.24766e-09
-1.96323e-12
9.24784e-09
8.52354e-09
-8.54151e-09
-7.46842e-11
-9.2418e-09
9.24452e-09
-3.881e-12
1.16451e-12
9.24362e-09
2.4965e-13
-4.34678e-12
-9.23952e-09
-9.2424e-09
-7.44668e-12
5.03754e-13
-9.24856e-09
-1.50448e-12
-6.19163e-13
9.50153e-09
-9.56954e-09
-1.89062e-09
1.88797e-09
2.64938e-12
2.75061e-12
-1.71778e-12
9.24634e-09
9.58466e-09
-2.02175e-10
-9.23674e-09
9.2473e-09
-9.02073e-12
-1.54248e-12
-5.7732e-12
9.24457e-09
-9.24259e-09
3.79948e-12
-1.95528e-10
9.53506e-09
2.45123e-10
-1.17715e-12
-9.2406e-09
9.24405e-09
-2.27742e-12
-8.12414e-09
4.09564e-11
-3.98124e-11
-9.2384e-09
-2.5139e-12
4.17629e-12
-9.24251e-09
9.24227e-09
1.65657e-13
7.08276e-14
8.32136e-09
-5.43094e-11
-1.89058e-09
1.89101e-09
-4.34978e-13
9.23974e-09
-9.23489e-09
-7.21019e-12
2.35478e-12
1.33531e-12
9.23966e-09
-9.24499e-09
3.99384e-12
9.45395e-09
-9.44266e-09
-1.76441e-11
6.35696e-12
-9.23919e-09
9.24083e-09
2.6619e-12
-4.30225e-12
2.81619e-12
-9.24764e-09
6.41838e-12
9.38428e-09
1.87163e-12
-9.38791e-09
1.76042e-12
1.63308e-12
9.23991e-09
-9.24359e-09
2.05239e-12
6.29911e-12
-9.24757e-09
-5.36179e-13
-5.02197e-09
5.01884e-09
1.9446e-12
1.17804e-12
8.55722e-12
-1.87906e-09
1.8705e-09
4.98686e-09
2.63891e-11
-5.00469e-09
-5.019e-09
-1.08016e-12
-1.8843e-12
9.39308e-09
-9.39572e-09
1.82592e-12
8.13067e-13
4.89156e-13
-1.88733e-09
9.40535e-09
-9.4577e-09
4.19669e-10
9.39578e-09
-3.7787e-10
-9.43758e-09
-5.02414e-09
8.39947e-12
5.01623e-09
-9.23932e-09
-3.11254e-12
5.25423e-13
-9.23646e-09
9.24867e-09
-2.52331e-11
1.30297e-11
-2.76241e-12
-9.24534e-09
-1.41319e-12
9.24179e-09
1.88112e-13
3.41078e-12
-9.24539e-09
9.48629e-09
-1.80379e-10
-9.28757e-09
1.38098e-10
9.26435e-09
2.18546e-12
2.56438e-12
9.23995e-09
-9.2447e-09
-9.23843e-09
9.2409e-09
-8.98325e-13
-1.57242e-12
-9.24801e-09
-3.96335e-12
3.66162e-12
9.24832e-09
9.34653e-09
-9.36525e-09
-3.76197e-10
3.94916e-10
-3.43099e-12
-1.88718e-09
9.38044e-09
-9.38367e-09
-1.39974e-11
1.72233e-11
2.08796e-12
9.23792e-09
3.58676e-12
9.24198e-09
-9.23656e-09
-9.0073e-12
1.86028e-12
5.01783e-09
-5.02312e-09
4.66649e-14
-1.89063e-09
9.34097e-12
9.23048e-09
-9.23069e-09
-9.12418e-12
-1.89351e-09
1.89118e-09
2.32717e-12
7.72139e-12
9.20546e-09
-9.20384e-09
-8.1279e-09
3.59599e-11
-3.2194e-11
-4.28215e-12
5.02317e-09
9.23926e-09
-4.86148e-13
-9.23175e-09
-7.0214e-12
1.3396e-12
9.36037e-09
-9.36324e-09
1.52194e-12
-5.61937e-12
-9.37137e-09
2.78472e-12
9.3742e-09
-9.24171e-09
9.23824e-09
-3.37164e-11
3.71817e-11
9.45109e-09
-1.73924e-10
9.42996e-09
-9.4062e-09
-2.24197e-11
9.43752e-09
-9.41731e-09
-2.58325e-11
5.81307e-12
-9.24e-09
-5.02526e-12
9.23921e-09
9.27524e-09
-9.28859e-09
-2.2892e-10
2.42261e-10
-1.61087e-11
-4.35631e-12
9.47441e-09
-1.44607e-11
9.4136e-09
-1.48639e-11
-9.38292e-09
9.36179e-09
5.01691e-12
9.36833e-09
-9.36673e-09
-1.41315e-11
1.25393e-11
1.58008e-10
-9.32875e-09
-1.16831e-10
-5.0237e-09
5.02137e-09
-1.66273e-13
2.49721e-12
8.48897e-09
-7.34482e-11
9.3393e-09
8.00146e-13
-9.35456e-09
-4.134e-12
-9.24791e-09
9.24627e-09
9.23561e-09
9.45813e-12
-1.97848e-11
-9.24396e-09
2.72771e-11
-9.26068e-09
9.2443e-09
1.60419e-10
-1.44032e-10
-2.59979e-11
9.41033e-09
8.75141e-12
1.97353e-12
9.34167e-09
-9.36964e-09
9.41649e-09
1.92602e-10
-1.34363e-13
-1.88908e-09
1.88922e-09
-1.25632e-10
-9.37704e-09
9.25539e-09
2.11067e-10
-1.91215e-10
5.01856e-09
1.11214e-12
-5.01981e-09
9.89933e-11
-8.42088e-09
-5.84687e-11
-5.02029e-09
-2.98704e-12
-4.28516e-13
3.6451e-11
-9.22511e-09
-5.30463e-11
-1.30308e-10
9.23078e-09
1.23249e-10
-9.22372e-09
9.03895e-09
-9.2397e-09
-1.69258e-12
9.24497e-09
-3.57821e-12
-9.24221e-09
9.23912e-09
2.84471e-12
2.4316e-13
-4.30912e-12
-1.8892e-09
7.15112e-09
-2.38913e-12
-6.31476e-13
-7.1481e-09
-1.75477e-10
1.70185e-10
1.56488e-11
9.34566e-09
2.23365e-12
-9.36354e-09
-9.24111e-09
9.23804e-09
-2.42026e-12
5.48876e-12
9.40792e-09
-1.1825e-11
-2.5113e-14
5.01709e-09
9.23873e-09
-4.89197e-12
-9.23448e-09
6.41336e-13
-5.01993e-09
2.07034e-12
-2.42962e-12
9.24658e-09
1.18732e-10
-1.21013e-10
9.30415e-09
-9.32676e-09
-2.94599e-10
3.17206e-10
8.447e-09
-6.6495e-11
9.23434e-09
-9.24031e-09
6.48706e-13
5.32196e-12
9.24402e-09
-1.08028e-10
1.10591e-10
-9.24663e-09
5.88367e-12
9.23929e-09
1.4571e-12
2.54029e-12
9.24555e-09
-9.15668e-09
9.17312e-09
-1.64165e-10
1.47727e-10
9.38617e-09
9.23354e-09
-9.22428e-09
-6.62943e-11
5.70351e-11
-7.61223e-11
-5.02478e-09
7.53827e-13
4.10135e-12
9.24419e-09
-9.2416e-09
-2.37803e-12
-2.17152e-13
9.34379e-09
-9.34828e-09
-1.28507e-11
1.73408e-11
9.24166e-09
-9.36939e-11
9.60526e-11
1.88282e-12
-9.21338e-09
9.21101e-09
2.31845e-11
-3.27828e-11
9.23734e-09
-9.22774e-09
9.24017e-09
6.4244e-12
-2.40126e-12
9.23325e-09
5.72797e-12
-9.23769e-09
-1.29545e-12
4.99968e-13
-9.24456e-09
2.48146e-13
9.24381e-09
-9.14843e-09
-1.9791e-10
1.89656e-10
-1.52556e-12
9.23851e-09
9.23688e-09
-7.00573e-11
7.48363e-11
9.23824e-09
-8.71839e-11
7.58127e-11
-9.22687e-09
5.94962e-11
-9.2269e-09
9.23362e-09
-6.62122e-11
-4.88967e-12
9.38629e-09
-1.30715e-11
-1.04532e-11
9.17934e-12
-5.01987e-09
-1.98723e-12
-2.92345e-12
9.25195e-09
-4.25857e-12
-7.51927e-12
-3.08072e-12
-9.24166e-09
9.24637e-09
-1.63529e-12
9.35831e-09
-1.18017e-10
9.22824e-09
-9.21639e-09
-1.12929e-10
1.01079e-10
1.01846e-11
-3.71521e-13
-9.24984e-09
9.24003e-09
9.23592e-09
-9.23343e-09
-5.56403e-12
-9.24298e-09
-5.54687e-13
-3.09559e-12
9.24265e-09
-3.42504e-12
1.03802e-12
9.2345e-09
-2.283e-12
3.6162e-12
9.33815e-09
-9.34666e-09
-7.08453e-14
-9.24234e-09
1.30548e-12
7.6974e-12
-1.17197e-12
-9.24874e-09
-4.09802e-13
-9.2375e-09
-3.68217e-12
2.72245e-10
-2.5668e-10
5.39914e-12
-1.23462e-13
-9.24498e-09
-8.13917e-09
-3.46083e-11
1.38095e-10
-9.20473e-09
9.21685e-09
-1.50216e-10
9.24377e-09
7.52569e-13
9.24945e-09
-5.80918e-12
-9.2426e-09
9.2442e-09
1.04826e-12
4.20338e-12
-2.43401e-10
-9.12779e-09
2.22759e-10
9.33173e-09
-3.05956e-11
-9.31813e-09
1.69976e-11
-5.01594e-09
-2.7348e-12
-1.19574e-12
-8.59829e-12
-9.22793e-09
5.83315e-12
9.24769e-09
-9.24844e-09
-2.23877e-12
2.99354e-12
1.34802e-10
9.33057e-09
9.24814e-09
-6.69831e-11
5.57248e-11
5.1537e-12
9.32729e-09
9.29755e-12
-9.34174e-09
3.97925e-12
-9.24586e-09
9.24251e-09