/*--------------------------------*- C++ -*----------------------------------*\
  =========                 |
  \\      /  F ield         | OpenFOAM: The Open Source CFD Toolbox
   \\    /   O peration     | Website:  https://openfoam.org
    \\  /    A nd           | Version:  8
     \\/     M anipulation  |
\*---------------------------------------------------------------------------*/
FoamFile
{
    version     2.0;
    format      ascii;
    class       volVectorField;
    location    "1.8";
    object      U;
}
// * * * * * * * * * * * * * * * * * * * * * * * * * * * * * * * * * * * * * //

dimensions      [0 1 -1 0 0 0 0];

internalField   nonuniform List<vector> 
5101
(
(0.000661188 0.00096487 0)
(0.000835037 0.00130785 0)
(0.000698696 0.00113439 -8.284e-24)
(0.00085261 0.00142534 -4.69782e-24)
(0.000701296 0.00107647 -1.89106e-21)
(0.000638778 0.00116939 1.02825e-21)
(0.000721124 0.00110771 1.39446e-22)
(0.000466794 -2.89985e-05 -1.21329e-23)
(0.000677619 0.00115111 4.52748e-24)
(0.000641999 0.00101861 0)
(0.000569173 0.00103419 -1.2097e-21)
(0.000638935 0.00117005 1.27056e-21)
(0.000659174 0.00118166 -2.21111e-23)
(0.000558566 0.00118282 -5.70662e-22)
(0.000731114 0.00147618 1.31896e-21)
(0.000881824 0.00145558 1.70873e-21)
(0.000804495 0.00149206 0)
(0.00092097 0.00136568 0)
(0.000857222 0.00140283 4.13402e-21)
(0.000319825 0.000765506 0)
(0.000766433 0.00119954 0)
(0.00063767 0.00117226 5.50513e-22)
(0.000838415 0.00128432 1.68178e-23)
(0.000673926 0.00117986 8.61055e-22)
(0.000673642 0.00125524 9.56126e-22)
(0.000632122 0.00121689 2.30581e-21)
(0.000719229 0.00143485 1.95771e-21)
(0.000756079 0.00133062 0)
(0.00058748 0.0010693 -2.002e-21)
(0.00055297 0.0010526 3.93282e-21)
(0.000859925 0.00145726 1.88114e-21)
(0.000608408 0.000961801 -1.09261e-23)
(0.000720289 0.00110867 -7.55048e-22)
(0.000494054 0.000784159 -2.58364e-21)
(0.000807536 0.00116153 -2.02108e-21)
(0.000516723 0.000893593 2.28904e-21)
(0.000671107 0.00130663 1.47613e-21)
(0.000745602 0.00114144 0)
(0.000587185 0.00104079 1.87662e-21)
(0.0010435 0.000410009 9.79199e-22)
(0.00087565 4.69304e-05 2.57555e-22)
(0.000691262 0.00117792 -2.83992e-22)
(0.00086347 0.00141236 0)
(0.000843809 0.0014502 1.52999e-21)
(0.000596129 0.00104354 -1.27168e-21)
(0.000822926 0.00126423 1.09431e-21)
(0.000603949 0.00104188 1.15813e-23)
(0.000614878 0.00099326 6.32437e-22)
(0.000608647 0.00104449 1.51562e-23)
(0.000763728 0.0013432 -1.11216e-21)
(0.000944206 0.00145502 0)
(0.000590945 0.00125876 -2.31262e-21)
(0.000753429 0.00117493 0)
(0.000694711 0.00114434 1.83607e-22)
(0.000711726 0.000150651 -4.89393e-24)
(0.000576567 0.00105056 0)
(0.000580074 0.00101954 3.23094e-22)
(0.000194105 0.000615086 4.29698e-22)
(7.62885e-05 0.000339871 4.04373e-22)
(0.000581784 0.00101632 5.04022e-22)
(0.000690176 0.00113002 -4.1013e-22)
(0.000906083 0.00133864 0)
(2.80319e-05 7.98178e-06 0)
(0.000817834 0.00145623 0)
(0.000765856 0.00133247 -2.03407e-21)
(0.000489473 0.00106963 -2.84877e-21)
(0.000699422 0.00107829 5.62429e-22)
(0.000757534 0.0014779 0)
(0.000649049 0.00122756 1.46584e-21)
(0.000955474 6.10977e-05 1.60883e-21)
(0.000639019 0.00117244 -1.03256e-21)
(0.000283294 0.000773068 2.76295e-21)
(5.25541e-05 0.0002103 -2.15837e-21)
(0.000761943 0.00133584 -2.98207e-21)
(0.000568667 0.00100426 7.50282e-22)
(0.00082741 0.000781116 1.63777e-21)
(0.000648075 0.000964836 5.93274e-22)
(0.000385813 0.000764671 0)
(0.000239811 0.000527409 -9.76187e-22)
(0.000639481 0.00117155 -4.71762e-22)
(4.09412e-05 0.00019717 2.62159e-21)
(0.000597977 0.0010692 4.29625e-22)
(0.0005692 0.000996412 0)
(0.000622301 0.00106245 -3.21465e-21)
(0.000608278 0.000207492 5.10789e-21)
(0.000712792 0.00125597 5.6011e-22)
(0.000606273 0.00104589 -5.88613e-22)
(0.00085623 0.00142653 7.39816e-22)
(0.000561807 0.00111455 3.49633e-21)
(0.000841668 0.0014554 8.01598e-22)
(0.000502456 0.000786088 -8.58205e-22)
(0.000668815 0.00117623 0)
(0.000712203 0.00127874 -2.84087e-21)
(0.000775668 0.00134976 -5.87219e-22)
(0.000715953 0.00124963 -2.71786e-21)
(0.000562123 0.00102596 0)
(0.000430616 0.000741873 -4.51992e-21)
(0.000599713 0.00104637 -1.24015e-21)
(6.22613e-05 0.000279955 0)
(0.00079375 0.00134187 -1.03873e-21)
(0.000771617 0.00134799 2.26386e-21)
(0.00101025 0.000305418 -3.32699e-21)
(0.000677728 0.00117965 -5.84692e-22)
(0.000721803 0.00114924 0)
(0.000575113 0.0010062 1.5663e-21)
(0.000279195 0.000692324 -2.95808e-21)
(0.000718298 0.00124205 9.41506e-22)
(0.0007233 0.00106568 -1.44487e-21)
(0.000584759 0.000482815 0)
(0.000494913 0.000857 -3.65456e-23)
(0.000632861 0.00110649 0)
(0.000634196 0.00110477 0)
(0.000778055 0.00135583 0)
(0.000589717 0.00115304 0)
(0.000626222 0.00104932 4.63093e-22)
(0.000491435 0.000797644 1.88723e-21)
(0.000532034 0.000760229 7.11578e-22)
(0.00061509 0.00102734 2.99132e-22)
(0.000547754 0.00094825 3.05694e-21)
(0.000570144 0.000995251 4.10816e-22)
(0.000678537 0.00117803 3.30838e-22)
(0.000447829 0.00072407 7.78215e-22)
(0.000103186 0.000719144 1.71004e-21)
(0.000643443 0.00097242 1.51569e-21)
(0.000615066 0.00110641 6.80942e-22)
(3.05838e-05 6.48152e-06 2.33273e-22)
(0.000579954 0.00100703 -8.08483e-22)
(0.00065539 0.001134 5.54048e-22)
(7.7954e-05 0.000181397 -1.87299e-21)
(0.000682413 0.000962456 0)
(0.000717563 0.00124234 3.27747e-21)
(0.000623345 0.00100922 0)
(0.000551473 0.00113095 4.36133e-21)
(0.000336861 0.000145532 -3.42813e-21)
(0.000724638 0.0012519 2.95114e-21)
(0.00084117 0.00148456 0)
(0.00106555 0.000129448 3.92593e-21)
(0.000534247 0.00105086 7.08432e-21)
(0.000631896 0.00111258 1.44147e-22)
(0.000444495 0.000568748 0)
(0.000393792 0.000925841 6.40752e-21)
(0.000409226 0.000939796 2.21133e-21)
(0.0010046 0.000386216 0)
(0.000583599 0.000961575 -1.46237e-21)
(0.0005076 0.000877028 -3.80855e-23)
(0.000604449 0.00117867 -8.67054e-22)
(0.000271322 0.000475218 0)
(0.000649666 0.00111653 2.44442e-23)
(0.00044355 0.000975938 -3.95338e-21)
(0.000252657 0.000672899 -3.22445e-21)
(0.000583329 0.00112667 4.99256e-21)
(0.000793106 6.80543e-06 -3.69191e-21)
(0.000732944 0.00110815 0)
(0.000624538 0.00106808 -4.56915e-22)
(0.000487467 0.00102588 0)
(0.000841522 0.00139205 -4.7679e-21)
(0.000539834 0.000975591 8.73617e-22)
(0.000817311 0.000834559 -2.12631e-21)
(0.000706514 0.00122731 0)
(0.000707981 0.00122805 9.39781e-22)
(0.000553691 0.00106831 6.61083e-23)
(0.00032273 0.000716533 0)
(0.000615876 0.00103676 -6.95581e-22)
(0.000601167 0.00118352 -1.98145e-21)
(0.000526559 0.00105067 -1.69482e-21)
(0.000779895 0.00135768 0)
(0.000548724 0.000948305 -7.38905e-22)
(0.000506058 0.00104017 0)
(0.000842218 0.00139258 5.84669e-22)
(0.000630673 0.000721433 5.97955e-21)
(0.000644141 0.00109992 7.26808e-24)
(0.000580171 0.000997348 -9.27327e-22)
(0.000598569 0.000977904 0)
(0.00062712 0.00116849 2.09575e-21)
(0.000585123 0.00104811 6.07999e-22)
(0.000706553 0.00119125 1.25987e-21)
(0.000678526 0.00117666 6.77339e-22)
(0.000792856 6.87649e-05 -1.31828e-21)
(0.000539443 0.000934405 -1.01355e-21)
(0.00075851 0.00122481 0)
(0.000553531 0.00108049 3.48341e-21)
(0.000573703 0.00098792 7.22651e-23)
(0.000595446 0.000947847 2.4331e-21)
(0.000684564 0.000772856 5.22506e-21)
(0.000380712 0.000718056 -7.16762e-21)
(0.000705416 0.0012313 -2.02705e-21)
(0.000745095 0.000314172 3.73155e-21)
(0.000592918 0.000998579 1.1389e-21)
(0.000640052 0.00108743 -2.93282e-21)
(0.000722334 0.00124809 1.83557e-21)
(0.000699492 0.00123546 1.81817e-21)
(0.000639991 0.00114331 0)
(0.000608349 0.000763394 4.18543e-24)
(0.000868986 0.000909034 -6.21304e-21)
(0.000691873 0.00117931 6.47939e-22)
(0.000834508 0.00145693 -2.7265e-22)
(0.00032227 -0.000326954 9.90888e-22)
(0.000523369 0.00118876 1.18136e-21)
(0.000633964 0.00110762 2.11476e-22)
(0.000632065 0.00119052 -6.83921e-23)
(0.000549854 0.000946995 -1.71207e-21)
(0.000478505 0.000991357 -1.78966e-21)
(0.000873328 0.00157339 -4.11064e-21)
(0.000778543 0.000814042 -2.09457e-21)
(0.000617419 0.000365423 5.59308e-21)
(0.000653497 0.00113068 1.12896e-21)
(0.000952359 0.000981077 1.86952e-21)
(0.000583511 0.00105501 5.95152e-22)
(0.000975738 0.000145708 -7.98623e-21)
(0.000678429 0.00117684 -5.41022e-22)
(0.000756738 0.00136174 1.1095e-21)
(0.0005795 0.00107886 2.84346e-22)
(0.000843376 0.00145408 0)
(0.000819088 0.000618206 -3.84698e-21)
(0.000683568 0.00118443 0)
(0.000627996 0.00109974 3.20584e-22)
(0.000525112 0.00101958 4.33676e-21)
(0.000599057 0.000814397 0)
(0.00067793 0.0011862 -3.25478e-22)
(0.000602764 0.00100434 1.13636e-22)
(0.000673366 0.00119504 -2.82939e-22)
(0.000590151 0.000976197 -7.83862e-22)
(0.000603403 0.00100862 -5.62132e-22)
(0.000694966 0.0012058 1.84875e-21)
(0.000450323 0.0011822 -1.56101e-21)
(0.000957602 4.15095e-05 6.51097e-22)
(0.000564627 0.00102096 1.56919e-21)
(0.000511876 0.000992394 -6.56309e-21)
(0.000677641 0.00117602 -7.86796e-22)
(3.33854e-05 2.60391e-06 1.85604e-21)
(8.56e-05 0.000755946 1.64122e-21)
(0.000726275 0.0011961 -4.91131e-22)
(0.000648587 0.00112863 1.00079e-21)
(0.000634942 0.00112182 1.1281e-21)
(0.000447468 0.00093532 9.51599e-22)
(0.000635912 0.000277891 -2.63506e-22)
(3.41794e-05 3.95057e-06 -2.76675e-23)
(0.000590397 0.000986949 -8.20877e-22)
(0.000711164 0.00122941 0)
(0.000638457 0.00104817 0)
(0.000676914 0.00117612 0)
(3.76867e-05 2.12126e-06 -3.80325e-21)
(6.99439e-05 0.000118899 5.21421e-25)
(0.000838116 0.0014759 0)
(0.000574258 0.00099312 -1.98725e-21)
(0.0006187 0.00107465 4.94113e-22)
(0.000584148 0.00101655 -5.85265e-23)
(0.000577436 0.000899953 -1.54817e-21)
(0.000736092 0.00127397 -4.39031e-21)
(0.00077335 0.00134539 0)
(0.000618486 0.00107109 4.2554e-21)
(0.000727034 0.00131245 -6.38247e-23)
(0.000683296 0.00122109 6.4411e-23)
(0.000563185 0.00100042 -1.4431e-21)
(0.000542741 0.000980918 -2.40179e-21)
(0.000574095 0.00103148 -2.16012e-21)
(0.000568444 0.00101362 -2.16569e-21)
(0.000598282 0.00106879 0)
(0.000682384 0.00124662 -8.74942e-22)
(0.000999536 0.000305058 -4.30157e-25)
(0.000535823 0.000930817 0)
(0.000671461 0.00120294 1.28008e-21)
(0.000576154 0.00100409 -3.98857e-22)
(0.000604819 0.00103227 -7.45199e-24)
(0.000603357 0.00101493 6.21588e-24)
(0.000355873 0.000637423 -2.30469e-21)
(0.000718712 0.00124433 4.27368e-22)
(0.000642042 0.00118276 -1.21306e-21)
(0.000734245 0.0013046 0)
(7.16439e-05 0.000648729 0)
(0.000595545 0.00107953 -3.74744e-21)
(0.000609667 0.00113006 -9.10566e-22)
(0.00107498 0.00082485 4.34368e-21)
(0.000856746 0.00146272 0)
(0.000253649 0.0004009 -4.00047e-21)
(0.000861695 0.00107591 -2.80059e-21)
(0.000545636 -0.00048678 -2.0686e-21)
(0.000504442 0.000785827 0)
(0.000675164 0.00117492 -1.10373e-21)
(0.000673295 0.00117238 -2.37446e-22)
(0.000572711 0.000936715 -1.25256e-21)
(0.000759768 0.00115364 0)
(0.000577374 0.00100681 0)
(0.00087232 0.00154338 -2.82367e-21)
(0.000545014 0.000925957 -5.99676e-21)
(0.000633417 0.00125067 1.65548e-21)
(0.000540144 0.00104958 -6.30248e-21)
(0.000547471 0.000944722 7.85682e-22)
(0.000777412 0.00135924 8.53956e-22)
(0.000452762 0.00100672 -3.2568e-21)
(0.000625845 0.00112117 -2.72423e-21)
(0.000566654 0.00104289 -3.80518e-22)
(0.00057228 0.000997618 2.71138e-21)
(0.000649286 0.00062839 5.82528e-21)
(0.000544804 0.000944527 1.66899e-22)
(3.70727e-05 3.27551e-06 -5.46553e-23)
(0.00063398 0.00103751 -3.21996e-23)
(0.000783255 0.00136122 -6.86148e-22)
(0.000736649 0.00117152 1.25811e-21)
(0.000674909 0.00116828 4.62085e-21)
(0.000999465 0.00043188 -7.13116e-22)
(0.000123183 0.000763702 1.08144e-21)
(0.000719028 0.00124202 -3.4034e-21)
(0.000558779 0.00114546 -2.39454e-24)
(0.000588097 0.00102217 1.33187e-22)
(0.000599905 0.0010869 1.12922e-21)
(0.000597676 0.000963098 -1.24241e-21)
(0.000243807 0.00072382 1.97057e-21)
(0.000605502 0.00101988 2.56804e-23)
(0.000733338 0.00126436 -3.28034e-21)
(0.000597109 0.000999457 -1.0603e-21)
(0.000634841 0.00116606 -6.89705e-23)
(0.000834402 0.00147485 0)
(0.000786819 0.00136366 9.08295e-22)
(0.000547512 0.000945766 3.88107e-22)
(3.73966e-05 1.97325e-06 0)
(0.000608132 0.000951135 -1.22334e-23)
(0.000238968 0.0008444 -2.78818e-22)
(0.000547354 0.000946311 3.53438e-21)
(0.000931442 0.000542154 3.18191e-21)
(0.000676275 0.00117346 -3.39419e-21)
(0.000628145 0.00119906 -1.37805e-21)
(0.000517402 0.000753924 1.06921e-21)
(0.000672724 0.00120072 -1.43131e-21)
(0.000876395 0.00137583 5.07732e-22)
(0.000776482 0.0013472 0)
(0.000533208 0.0004997 0)
(0.000737458 0.00127685 3.49367e-21)
(0.000382362 0.000950735 -3.15409e-21)
(0.000673668 0.00116486 4.74432e-22)
(0.000845219 0.00148425 -1.32541e-22)
(0.000686745 0.0011801 0)
(0.00097268 0.000422862 -2.05059e-21)
(0.000609031 0.000997654 3.71996e-23)
(0.000856628 0.00142263 4.55188e-22)
(0.000314752 0.000112445 -3.35194e-21)
(0.000718988 0.00124458 0)
(0.000668842 0.00112982 0)
(0.000554029 0.000992982 7.95593e-21)
(0.000719358 0.00127243 -4.13419e-21)
(0.000598382 0.00108898 7.35782e-22)
(0.000686191 0.00117912 0)
(0.000707123 0.00118678 4.11017e-22)
(0.000665459 0.00119813 1.45721e-23)
(0.000679578 0.00118448 -7.0201e-22)
(0.000593481 0.0009891 2.63047e-21)
(0.000559632 0.000915926 -1.00862e-21)
(0.000587939 0.000990931 8.54177e-22)
(0.000770581 0.00135228 1.75271e-21)
(0.000515227 0.000428836 -1.20172e-21)
(0.000645727 0.000532465 -1.69599e-21)
(0.000555902 0.00106362 -1.1687e-21)
(0.00057987 0.000993404 0)
(0.000868381 0.00144289 -2.25123e-22)
(0.000532476 0.000975839 -3.82845e-22)
(0.000591374 0.000834444 -1.98608e-22)
(0.000639646 0.000884391 0)
(0.000765015 0.00132526 4.2774e-23)
(0.000670559 0.00103218 0)
(0.000794745 0.00145169 -1.26041e-22)
(3.68176e-05 0.000166558 4.44635e-21)
(0.000839715 0.0013975 7.0577e-22)
(0.000883506 0.000186527 2.38698e-21)
(0.00072387 0.0011165 0)
(0.000537031 0.000938275 -7.67056e-22)
(0.000765311 0.00136386 -1.05445e-21)
(0.000556465 0.00104179 -1.84406e-21)
(0.000551887 0.00107896 3.94217e-22)
(0.000276798 0.000674773 -2.34068e-21)
(0.000617849 0.0010666 -9.55333e-22)
(0.000717645 0.00095316 -1.48439e-21)
(0.000431799 0.000892158 3.34548e-21)
(0.000586575 0.000968259 1.76339e-21)
(0.000775031 0.00134798 -1.31278e-21)
(0.000511619 0.00100666 1.5646e-21)
(0.000519901 0.00101175 -4.42571e-21)
(0.000415957 0.000869687 1.84046e-21)
(0.000791643 0.00144247 5.77132e-22)
(0.000543937 0.000977699 9.26011e-22)
(0.000745584 0.00131307 3.25591e-21)
(0.000573516 0.00106168 1.49955e-23)
(0.00054342 0.00103108 3.97667e-21)
(0.000529726 0.00102128 -2.00607e-21)
(0.00056873 0.00100173 0)
(0.000703506 0.00122552 -5.70376e-22)
(0.000777239 0.00142596 -1.19225e-23)
(0.000537575 0.000977376 0)
(0.000749489 0.00130286 0)
(0.000568401 0.00107738 3.76436e-21)
(0.000701027 0.00121962 -5.35899e-22)
(0.000537186 0.0010472 -3.33367e-21)
(0.000562205 0.00100347 -2.71439e-21)
(0.000762256 0.00142364 -4.03384e-22)
(0.000749067 0.00129902 -1.40686e-21)
(0.000694282 0.00121749 -9.28248e-22)
(0.000743331 0.0012977 1.28144e-21)
(0.000732524 0.0013015 1.15677e-21)
(0.000769283 0.00133563 2.85075e-21)
(0.000611482 0.000297466 -3.00937e-21)
(0.000639147 0.00113027 1.85312e-21)
(0.000619845 0.00115568 -4.61895e-21)
(0.000411977 0.000779481 1.12628e-21)
(0.000629546 0.00110929 -7.22609e-22)
(0.000553556 0.00102778 1.4877e-21)
(0.0006393 0.00114149 -1.43483e-21)
(0.000828624 0.0014504 0)
(0.000762123 0.00135461 0)
(0.000692215 0.00076956 3.04427e-21)
(0.00058172 0.00100361 2.96582e-21)
(0.000515772 0.000179795 -6.97169e-21)
(0.000420002 0.000805185 0)
(0.000609754 0.00113193 7.04491e-22)
(0.000960767 0.000335099 -7.72597e-24)
(0.000489559 0.000848289 -2.72053e-21)
(0.000830105 0.00146239 2.64747e-22)
(0.000824034 0.00143998 -2.46989e-22)
(0.000540154 0.0010871 3.67682e-23)
(0.000577188 0.000994679 -9.55709e-22)
(2.18313e-05 -2.86782e-05 0)
(0.000496267 0.000952685 3.42893e-22)
(0.000486352 0.000935156 -3.90911e-22)
(0.000550025 0.000949567 -3.51289e-21)
(0.00055663 0.000985699 3.77676e-22)
(0.000780891 0.00137685 6.11035e-23)
(0.000634048 0.0011128 -1.69562e-21)
(0.000681279 0.00117898 -2.16591e-22)
(5.52758e-05 -3.40319e-05 1.45242e-24)
(0.000615944 0.000967752 0)
(0.000643293 0.00113615 0)
(0.000539733 0.00102192 -2.79647e-21)
(0.000835408 0.00145021 6.22085e-22)
(0.000497496 0.00100958 3.41486e-23)
(0.000535704 0.00108355 0)
(0.00125131 0.00123503 -1.5984e-21)
(7.50318e-05 0.000445792 1.21012e-23)
(0.000627192 0.00108795 1.00598e-21)
(0.00123739 0.00047191 0)
(0.00055538 0.000957469 0)
(0.000546381 0.000939888 -1.38673e-21)
(0.000595966 0.000987579 -1.78733e-22)
(0.000619979 0.00105741 -4.4104e-22)
(0.000611385 0.00103833 0)
(0.00077239 0.00154117 9.62967e-23)
(0.000740411 0.00133536 -2.53487e-21)
(0.000689134 0.0012504 -8.97396e-22)
(0.000548566 0.000986833 -1.90424e-21)
(0.000409223 0.000792151 0)
(0.000846084 0.00147045 1.29469e-22)
(0.000707772 0.00123166 -2.67017e-21)
(0.000593932 0.00105983 0)
(0.000532021 0.00101133 -1.58401e-21)
(0.000552272 0.00103082 -1.22518e-21)
(0.000574616 0.00100547 -2.44872e-21)
(0.000597521 0.00107142 0)
(0.000577964 0.0011228 -1.46121e-21)
(0.000486604 0.000999232 -3.25684e-22)
(8.67847e-05 0.000513377 -9.60932e-24)
(0.000483293 0.0011068 8.53216e-22)
(0.00157403 0.000485472 1.4333e-21)
(0.000679123 0.00118321 7.57686e-22)
(0.000642778 0.00112601 -1.34942e-21)
(0.000721651 0.00111059 1.52669e-21)
(0.000536773 0.00105862 -3.47999e-21)
(0.000717736 0.00145114 3.73196e-23)
(0.0005658 0.00048816 0)
(0.000545765 0.00105514 -1.26364e-21)
(0.00077274 0.00134517 0)
(0.000684432 0.00118467 8.24797e-22)
(0.000678427 0.00117232 -4.60825e-22)
(0.000840928 0.00147391 -1.27103e-22)
(0.000572555 0.0010435 -6.54223e-23)
(0.000562886 0.0010244 -2.78593e-21)
(0.00038985 0.000586855 -1.41711e-21)
(0.000557721 0.00106692 3.12223e-21)
(0.000659906 0.00110619 0)
(0.000136249 0.000363728 -1.39569e-21)
(0.000709979 9.50647e-05 4.90547e-24)
(0.000629497 0.000495984 -6.58558e-21)
(0.000651479 0.00112801 1.25922e-21)
(0.000722336 0.00111436 0)
(0.000675712 0.00118951 2.90716e-22)
(0.000679289 0.00118307 8.07582e-22)
(0.00100981 0.000152612 -2.28567e-21)
(0.000449981 0.000554595 -3.24652e-21)
(0.000490428 0.000798594 -3.47236e-21)
(0.000831616 0.00148838 1.2056e-21)
(0.000572547 0.00100215 -2.3373e-22)
(0.000729268 0.00122532 -2.27726e-21)
(0.000613302 0.000973418 -2.62138e-21)
(0.000798819 0.00127306 1.29264e-21)
(0.00072219 0.0011113 -6.86149e-22)
(0.000175692 0.000736951 0)
(0.000676229 0.00115705 -2.05582e-23)
(0.000495503 0.00121274 -6.50652e-23)
(0.000476536 0.000963536 -1.27776e-21)
(0.000768831 0.00134301 -2.39029e-21)
(0.000409009 0.000794801 2.46266e-22)
(0.000571395 0.00100004 4.31637e-22)
(0.000180583 0.000842921 0)
(0.000610129 0.00100866 -5.56451e-22)
(3.70411e-05 0.000232428 0)
(0.000587738 0.00100532 -1.32876e-21)
(0.000668598 0.00108902 -1.25142e-21)
(0.000736998 0.00127581 -9.91898e-22)
(0.000764602 0.00134343 1.64398e-22)
(0.000799497 0.00133003 8.12581e-22)
(0.00106634 0.000156018 -2.9579e-23)
(0.000652359 0.00112958 0)
(0.000613033 0.000960504 -7.91784e-22)
(0.000700505 0.00116673 0)
(0.000404968 0.000729859 3.19645e-21)
(0.00058079 0.000994116 3.13857e-21)
(0.000647352 0.0012334 -5.01587e-22)
(0.000735551 0.00127121 2.80705e-21)
(0.000521374 0.000981491 4.44915e-22)
(0.000535436 0.000967989 1.54466e-21)
(0.000552776 0.00096796 1.26184e-21)
(0.00067219 0.00123521 -6.46535e-23)
(0.000560414 0.000976365 -7.2215e-22)
(0.000615077 0.00110839 1.1102e-21)
(0.000601167 0.00106649 0)
(0.000446168 0.00104666 8.6439e-24)
(0.000650544 0.00113646 2.37012e-21)
(0.000844145 0.0014664 -6.45868e-22)
(0.000685641 0.00112039 0)
(0.000504119 0.000778713 1.58309e-21)
(0.000497356 0.000768488 0)
(0.000560877 0.00101441 -9.95751e-22)
(0.000570355 0.000268652 1.80202e-21)
(0.000150835 0.000734264 2.41271e-21)
(0.000588359 0.00117204 7.58267e-22)
(0.000713058 0.0011973 1.64505e-22)
(0.000677948 0.00118256 0)
(0.000557834 0.00111566 3.50085e-22)
(0.000546211 0.00100912 1.76134e-21)
(0.00058284 0.00114561 -2.15924e-21)
(0.000590629 0.00109599 -2.97537e-21)
(0.000293295 0.000609473 5.90905e-22)
(0.000771408 0.00134341 -1.44924e-21)
(0.00064524 0.000333259 0)
(0.000602801 0.00106344 2.35752e-22)
(0.000557517 0.00101688 9.15714e-22)
(0.000674061 0.00117156 3.26597e-21)
(0.000499634 0.000855024 -1.48653e-21)
(0.000494496 0.0008515 -9.10795e-22)
(0.000500041 0.000846079 0)
(0.000515566 0.000836062 6.62532e-22)
(0.000517897 0.000827981 -7.71481e-22)
(0.00047836 0.000768777 0)
(0.000456355 0.00079939 1.09436e-21)
(0.000470402 0.000801297 1.37958e-21)
(0.000496305 0.000770138 3.39982e-21)
(0.000490337 0.000759631 4.76053e-21)
(0.000566479 0.000862308 -1.19106e-21)
(0.000547442 0.000857098 -5.18745e-23)
(0.000583036 0.000970267 2.80093e-21)
(0.000574695 0.000997035 1.05793e-21)
(0.000690233 0.00120199 -1.02632e-21)
(0.00057906 0.00101953 -1.30669e-21)
(0.000674327 0.00126377 1.53558e-21)
(0.000410591 0.000755367 0)
(0.00030535 0.00083376 2.31121e-21)
(0.00056965 0.000336213 -2.55558e-21)
(0.000641079 0.00126697 1.32855e-21)
(0.000347531 0.00112211 -1.67877e-21)
(0.000747193 0.00135531 -2.99107e-22)
(0.000681006 0.00120742 -3.85817e-22)
(0.000330493 0.000497201 5.4675e-21)
(0.000704189 0.00118929 1.07789e-21)
(0.000601209 0.000996059 -7.9572e-22)
(0.000786206 0.00136758 -4.71749e-22)
(0.000502088 0.00086666 1.96971e-23)
(0.000773349 0.00132066 1.59385e-21)
(0.000721555 0.00111044 1.46008e-21)
(0.000330847 0.00108 -1.08329e-21)
(0.00048229 0.000951939 -4.14168e-22)
(0.000683721 0.00117928 -2.10227e-22)
(0.000633858 0.00112745 0)
(0.00057899 0.000865228 -2.64446e-21)
(0.000522656 0.00105172 -1.17022e-21)
(0.000512302 0.000428902 0)
(0.000648955 0.00113142 5.97488e-22)
(0.000844672 0.00144354 8.40491e-22)
(0.000871825 0.0014998 -9.6442e-22)
(0.000566535 0.00101122 0)
(0.000388051 0.000942068 1.18487e-21)
(0.000797669 9.77772e-05 2.58309e-21)
(0.000727928 0.00113188 -1.3297e-21)
(0.000773112 0.00134827 -6.41641e-22)
(0.000639863 0.00102454 0)
(0.000574762 0.000972234 -6.81469e-23)
(0.000504423 0.000844755 3.92466e-21)
(0.000471352 0.000799103 -6.62943e-21)
(0.00049554 0.00080779 2.18282e-21)
(0.000486177 0.000789145 -1.52913e-23)
(0.000616432 0.00103069 4.46029e-22)
(0.000504038 0.000843159 4.33219e-21)
(0.00054901 0.00086881 -4.89452e-23)
(0.00048702 0.000759397 7.64562e-22)
(0.000316861 0.000721363 1.65007e-24)
(0.00060215 0.00108544 7.40196e-22)
(0.000494673 0.000768237 -1.2709e-21)
(0.000866044 0.00141096 5.96416e-21)
(0.000347348 0.000699969 6.75721e-24)
(0.000677271 0.00118246 1.1348e-21)
(0.000806875 0.00130479 1.33308e-21)
(0.000515598 0.000780108 4.38687e-21)
(0.000529879 0.00105817 -1.66373e-21)
(0.000625994 0.000994031 0)
(0.000618031 0.00106644 4.20404e-22)
(0.00060973 0.00104107 3.3264e-22)
(0.000509172 0.000775677 -4.56658e-21)
(0.000484437 0.000948175 4.26408e-22)
(9.79056e-05 -9.74098e-05 -4.75675e-22)
(7.75295e-05 0.000112569 1.92509e-21)
(0.000744773 0.00137981 -1.53555e-21)
(0.000645367 0.000479824 0)
(1.59e-05 6.38379e-05 0)
(0.000474173 0.000961457 6.65641e-22)
(0.000594208 0.00106532 -2.56191e-21)
(0.000579266 0.00101897 0)
(2.67936e-05 1.41139e-05 0)
(0.000720956 0.00111201 1.16339e-23)
(0.000680751 0.000793729 2.93353e-22)
(0.000614179 0.00100327 0)
(0.000512135 0.000772258 1.38902e-21)
(0.000424301 0.000939665 -2.32142e-21)
(0.000412025 0.00079924 0)
(0.000126924 0.00111412 -2.05974e-21)
(0.000585271 0.00101216 1.49988e-21)
(0.000753678 0.001324 7.3022e-22)
(0.000719984 0.00125443 -2.05621e-21)
(0.000712405 0.00125659 2.00438e-21)
(0.000857207 0.00145808 4.66004e-22)
(0.000777039 0.00134589 1.13257e-21)
(-0.000280342 0.000486401 0)
(0.000532727 0.000872407 -2.99063e-21)
(0.000505174 0.000844263 -1.90488e-21)
(0.000457753 0.000776705 1.55669e-21)
(0.000599272 0.000959906 -7.78687e-22)
(0.000457747 0.000779524 0)
(0.000467933 0.000770936 0)
(0.00048099 0.000756688 -9.38578e-22)
(0.000608651 0.00095879 -8.54567e-22)
(0.000667006 0.000990773 0)
(0.000395709 0.000797121 2.05978e-21)
(0.000860026 0.00133166 -2.12752e-21)
(0.000624722 0.00109377 -1.92053e-21)
(0.000684758 0.00114808 1.13132e-21)
(0.000702589 0.00117529 -5.99255e-22)
(0.000405833 0.000883113 0)
(0.000779492 4.10232e-05 -2.99214e-21)
(0.00077515 0.00136896 2.79189e-21)
(0.000673456 0.00117741 -2.48244e-22)
(3.55919e-05 5.39365e-07 -1.67809e-21)
(0.000744728 0.00102334 -3.74321e-21)
(0.000567051 0.00100689 -5.44683e-23)
(0.00058763 0.00118284 3.78955e-22)
(0.000750788 0.00133347 0)
(0.000105343 -0.000153319 0)
(0.000198778 0.000575519 -1.02242e-21)
(0.000674705 0.00118129 2.41074e-22)
(0.000619167 0.00111033 5.14258e-21)
(0.000595202 0.00107441 -1.00705e-21)
(0.000524999 0.000956 -1.50784e-21)
(0.00056284 0.000979148 -7.69042e-22)
(0.000675778 0.00122702 1.37789e-21)
(0.000506371 0.000976265 -1.1275e-21)
(0.000562739 0.00106762 -1.77487e-21)
(0.000661244 0.0010815 1.39738e-21)
(0.000520998 0.00105735 4.13912e-21)
(0.000587649 0.00106914 -2.37638e-21)
(0.000800774 0.00126804 -1.36429e-21)
(0.000577721 0.000999143 -9.72205e-22)
(0.000675778 0.00117711 0)
(0.000660497 0.00123574 -4.99526e-23)
(0.000555337 0.000971682 7.0708e-22)
(0.000542231 0.000966966 0)
(0.000520808 0.000974511 -1.41683e-21)
(0.000573322 0.0011138 0)
(0.000546757 0.000989074 3.68128e-21)
(0.000599282 0.00105668 -1.74426e-21)
(0.000574158 0.00103054 0)
(0.000163626 0.000535841 -7.50365e-21)
(0.00121833 0.000885011 -1.92298e-21)
(0.000569095 0.000967802 -7.57057e-22)
(0.000397777 0.000410247 0)
(2.74875e-05 5.14174e-05 0)
(0.000542061 0.0009996 -3.70707e-21)
(0.000584066 0.00113455 -2.04034e-21)
(0.00054466 0.0010193 -1.07698e-21)
(0.000778669 0.00129137 -6.11352e-22)
(0.000570934 0.00101143 -8.91627e-22)
(0.00086997 0.00147293 -4.58563e-22)
(0.000498673 0.000993787 -1.95804e-21)
(0.000777974 0.00135818 -1.04492e-21)
(0.000602102 0.00108719 2.94742e-22)
(0.000632897 0.00100005 0)
(0.000708041 0.00131106 -4.1702e-22)
(0.000508815 0.000997196 -5.45986e-22)
(0.000780862 0.00135409 -1.08204e-21)
(0.000572752 0.00101339 -2.09243e-22)
(0.00054112 0.00100492 -5.53744e-22)
(0.000543974 0.000678982 6.96679e-23)
(0.000732383 0.00127544 -2.96603e-21)
(0.000591038 0.00107848 0)
(0.000681298 0.00118938 -1.25201e-23)
(0.000394364 0.00110711 -2.98051e-23)
(0.000756215 0.00144584 2.11775e-21)
(0.000582302 0.00111723 -5.47424e-22)
(0.000593024 0.000952568 -1.10426e-21)
(3.44734e-05 7.41562e-06 1.61515e-21)
(0.000618162 0.00105793 -6.03464e-22)
(0.000827535 0.00147115 -2.93182e-22)
(0.000562983 0.000977892 -1.56142e-21)
(0.000419025 0.00104971 -2.88513e-21)
(0.000628793 0.000972984 -8.28916e-22)
(0.000627955 0.00113437 1.42817e-21)
(0.000676461 0.0011855 -1.60968e-22)
(0.000716853 0.00133521 8.58412e-22)
(0.000570586 0.000991176 2.52968e-22)
(0.000601867 0.00110365 3.33388e-21)
(0.000599507 0.00105914 -2.22536e-21)
(0.00052675 0.000980193 -7.7677e-22)
(0.000732017 0.0013518 -2.89857e-21)
(0.000230754 0.000725976 1.92938e-21)
(0.000711872 0.00130041 -5.83994e-22)
(0.000696242 0.00122701 0)
(0.00060414 0.00106257 1.3406e-21)
(0.000554707 0.000995048 1.48327e-21)
(0.000742565 0.00130184 5.12346e-22)
(0.000570253 0.00100333 3.44942e-21)
(0.000566999 0.00102096 -3.37985e-21)
(0.000759573 0.001354 1.16951e-21)
(0.000895004 0.00145941 -6.46947e-22)
(0.000590109 0.000971726 -3.84117e-21)
(0.00057699 0.000979469 3.06576e-21)
(0.000486257 0.000964723 0)
(0.000717274 0.00124079 -2.35668e-21)
(0.000697003 0.00119502 4.36959e-23)
(0.00112431 -3.51893e-05 1.45886e-21)
(0.000996934 0.000691575 1.8879e-21)
(0.000765656 0.00131267 2.59601e-22)
(0.000721712 0.00111368 -6.87371e-22)
(0.000569887 0.000946048 -1.13393e-21)
(0.000580849 0.00109882 5.3056e-22)
(0.00054153 0.000963512 0)
(0.000657402 0.00127783 -4.06486e-21)
(0.000715535 0.00127193 1.1211e-21)
(0.000848643 0.00146462 -1.02474e-23)
(0.000552149 0.000954534 1.70076e-21)
(0.000264777 9.87657e-05 0)
(0.000832293 0.0014349 2.68458e-21)
(0.000607468 0.000946161 3.50779e-22)
(0.000871699 0.00145497 -9.22751e-22)
(0.00071494 0.00126289 1.52318e-21)
(0.000720355 0.00112095 0)
(0.000697316 0.00117514 0)
(0.000383022 0.000842351 -2.39839e-21)
(0.000579351 0.00100639 -4.17753e-22)
(0.00072088 0.00111321 0)
(0.00061419 0.00104566 -2.24576e-21)
(0.000532363 0.00062181 2.23379e-21)
(0.000829174 0.00146068 1.40363e-21)
(0.000611606 0.00103282 3.96655e-21)
(0.000294918 0.00111352 -2.95217e-21)
(0.000709022 0.00125735 1.6887e-21)
(0.000697132 0.00110553 -8.06542e-22)
(0.00065532 0.000894234 4.31816e-22)
(0.000599173 0.00103992 1.95824e-21)
(0.000589807 0.00104139 -2.72996e-21)
(0.000583566 0.000992237 1.33985e-21)
(0.000788846 0.00136016 1.19979e-21)
(0.000719254 0.00121685 1.31755e-21)
(0.000644791 0.00116469 -1.84371e-22)
(0.000591156 0.000990189 1.92989e-22)
(0.000738888 0.00128308 0)
(0.000614234 0.00107422 2.25191e-22)
(0.000248365 0.000484455 -7.95989e-24)
(0.000609504 0.000948738 -1.78005e-21)
(0.000720921 0.000841048 -1.34751e-21)
(0.000649073 0.00110615 -2.05482e-22)
(0.000501251 0.000480397 -5.45439e-22)
(0.00060957 0.000966264 -9.13335e-22)
(0.000586433 0.00101908 -3.81062e-22)
(0.000657767 0.00130699 2.21328e-21)
(0.000699299 0.00118961 1.87408e-21)
(0.00109164 4.83343e-05 0)
(0.000633647 0.000341958 -7.06634e-21)
(0.000542646 0.00108507 -5.18029e-21)
(0.000470534 0.0012138 -2.5487e-21)
(0.000726457 0.00125168 7.69367e-24)
(0.000517524 0.000848665 -2.96878e-22)
(0.000557386 0.00111011 1.12023e-21)
(0.00063267 0.00110953 2.19725e-23)
(0.000475212 0.000959592 2.0209e-21)
(0.000471983 0.000957196 2.85955e-21)
(0.000407271 0.000773685 1.3331e-21)
(0.000432115 0.000762051 4.47058e-22)
(0.000782071 0.00135791 -6.33118e-22)
(0.000559193 0.00100069 1.75306e-21)
(0.000757301 0.00134064 0)
(0.00058362 0.000996608 0)
(0.000100958 0.000154172 -1.29162e-21)
(0.000247388 0.000526243 2.16731e-21)
(0.000694344 0.00130125 -4.96064e-22)
(0.000698618 0.00122788 -2.20035e-21)
(0.000602719 0.00106522 0)
(0.000551693 0.00100252 1.51191e-21)
(0.000741666 0.00130482 1.24502e-21)
(0.000574252 0.00100685 -1.15862e-21)
(0.000564731 0.0010258 0)
(0.000601376 0.00106613 0)
(0.000587826 0.0011096 -1.11119e-21)
(0.000510038 0.000978659 6.67709e-22)
(0.000709144 0.00124027 -3.51018e-22)
(1.42614e-05 1.60282e-05 -1.15804e-21)
(0.000749564 -0.000243986 1.0914e-21)
(0.000762096 0.00144799 -2.53499e-21)
(0.000720587 0.0011115 1.52113e-21)