/*--------------------------------*- C++ -*----------------------------------*\
  =========                 |
  \\      /  F ield         | OpenFOAM: The Open Source CFD Toolbox
   \\    /   O peration     | Website:  https://openfoam.org
    \\  /    A nd           | Version:  8
     \\/     M anipulation  |
\*---------------------------------------------------------------------------*/
FoamFile
{
    version     2.0;
    format      ascii;
    class       volVectorField;
    location    "1.8";
    object      U;
}
// * * * * * * * * * * * * * * * * * * * * * * * * * * * * * * * * * * * * * //

dimensions      [0 1 -1 0 0 0 0];

internalField   nonuniform List<vector> 
5756
(
(0.00360332 0.00679355 0)
(0.00488796 0.00859771 1.93074e-23)
(0.00517592 0.00904557 -1.20964e-21)
(0.00514173 0.00900793 -5.58742e-22)
(0.00519866 0.00906138 0)
(0.00498332 0.0086998 -5.67376e-22)
(0.00518634 0.00905118 1.39673e-21)
(0.00502612 0.0087564 6.8271e-22)
(0.0052148 0.00907179 5.96877e-23)
(0.00520404 0.00906451 0)
(0.00504709 0.00877743 5.90693e-23)
(0.00522637 0.00907745 0)
(0.00521939 0.00907295 -1.00698e-21)
(0.00506188 0.00878909 4.14317e-23)
(0.00522877 0.00907757 1.22466e-21)
(0.00489739 0.00864323 4.94134e-22)
(0.0050705 0.0087978 2.37511e-21)
(0.00523063 0.0090797 1.84749e-23)
(0.000763408 -3.38038e-05 1.64629e-20)
(0.00510125 0.00944275 -7.80491e-24)
(0.00523158 0.00907956 6.05528e-23)
(0.00507538 0.00880443 0)
(0.00523271 0.00908108 1.4864e-21)
(0.00523415 0.00908092 0)
(0.00508069 0.00881066 1.60384e-21)
(0.00523782 0.00908297 0)
(0.000652875 -4.26053e-05 1.86887e-20)
(0.000770134 -4.7968e-05 -2.48191e-20)
(0.00508633 0.00881666 1.77504e-21)
(0.00523637 0.00908298 1.67974e-21)
(0.000779734 1.52058e-05 4.0181e-21)
(0.00524121 0.00908589 -1.9307e-21)
(0.00238643 0.00467966 0)
(0.005092 0.00882341 -2.00588e-21)
(0.00477397 0.0103003 2.11673e-21)
(0.000789533 2.77616e-05 0)
(0.000617044 -1.17443e-07 -7.55655e-21)
(0.00523968 0.00908552 1.92936e-21)
(0.000436394 -0.000327615 2.20395e-20)
(0.00524597 0.00908879 -4.29264e-21)
(0.000829113 5.514e-05 -2.92089e-20)
(0.00509877 0.00883095 2.16256e-21)
(0.000751957 -2.13801e-05 5.64084e-20)
(6.87118e-05 0.000168139 -2.86014e-20)
(0.00524398 0.00908857 2.07185e-23)
(0.000565804 -4.23168e-05 6.78929e-21)
(0.000623742 0.00106978 0)
(0.00524701 0.00908959 5.21721e-21)
(0.00493266 0.00872912 3.80496e-23)
(0.00486533 0.0100744 5.83572e-21)
(0.00415409 0.0100864 9.56733e-21)
(0.00510116 0.00883621 0)
(0.00524778 0.00909078 -5.21153e-21)
(0.00524399 0.00908994 -2.7624e-21)
(0.00510347 0.00883757 -2.33031e-21)
(0.00360404 0.00828132 -9.62906e-21)
(0.00510071 0.00883936 0)
(0.000845242 9.88374e-05 5.97287e-21)
(0.0040308 0.0106031 1.74563e-20)
(0.000210231 -0.000235855 2.05134e-20)
(0.00510397 0.0088389 2.48534e-21)
(0.000204069 0.000630364 -1.18407e-21)
(0.00074791 6.54656e-05 -7.01121e-21)
(0.00341712 0.00961375 0)
(0.00524476 0.00908939 0)
(0.00524444 0.00909041 5.32339e-21)
(0.00210016 0.000461507 0)
(0.00501208 0.00917317 2.67273e-23)
(0.00392297 0.00738106 -1.48172e-20)
(0.00510351 0.00884196 -6.33421e-23)
(0.00125135 0.000299461 -2.78924e-20)
(0.000737044 2.96815e-05 0)
(0.00320466 0.00561036 1.45861e-22)
(0.00524692 0.00908874 0)
(0.00395035 0.00827244 3.94808e-20)
(0.0050555 0.00897226 1.89811e-22)
(0.00524397 0.00909026 2.82348e-21)
(0.00510721 0.00884448 -6.29319e-21)
(0.000125346 0.000415494 -4.6982e-20)
(0.00443823 0.00838163 0)
(0.00519358 0.00983895 3.75372e-21)
(4.03155e-05 7.13118e-05 7.21954e-21)
(0.00500981 0.0099208 -8.11498e-21)
(0.00524904 0.00909041 -3.31673e-21)
(0.00524623 0.0090892 0)
(0.00488574 0.00864712 -1.95105e-22)
(0.00511109 0.00885071 1.61513e-23)
(0.000684368 -2.02579e-05 3.70491e-21)
(2.08308e-05 -2.49474e-05 1.95017e-20)
(0.00275191 0.00495739 -2.33927e-20)
(0.00330971 0.00720688 3.36634e-24)
(0.00524811 0.00909005 3.23111e-21)
(0.00511348 0.00885539 3.56281e-21)
(0.00116045 0.00202777 1.03732e-22)
(0.00510006 0.00883217 0)
(0.00510235 0.00883586 0)
(0.00311548 0.00551685 -1.40238e-22)
(0.00511438 0.00885847 3.71408e-21)
(0.00541261 0.000683506 0)
(0.00511174 0.00885159 -3.51064e-21)
(0.00511294 0.00885509 0)
(0.005114 0.00885828 -3.86813e-21)
(0.00511546 0.00886171 -7.89357e-21)
(0.00524841 0.00909097 2.16226e-21)
(0.000669799 2.45969e-05 -9.39664e-21)
(0.00504096 0.00928246 -2.50003e-23)
(0.00415908 0.00733321 -5.57184e-23)
(0.00511578 0.00886518 0)
(0.00511627 0.00886542 0)
(0.00502507 0.00921402 0)
(0.00524901 0.00909109 -2.35081e-21)
(0.000469983 3.92287e-05 9.78554e-21)
(0.000649087 3.47641e-05 -4.64665e-21)
(0.000752683 -9.33064e-05 0)
(0.00440977 0.00846999 1.37976e-20)
(7.04103e-05 1.95034e-06 -9.1225e-21)
(0.00495072 0.00954197 2.40928e-22)
(4.90245e-05 -5.66483e-05 1.25661e-24)
(4.84357e-05 -4.08836e-06 0)
(0.00569582 0.0096154 -1.44914e-22)
(0.00405489 0.00743165 -1.42206e-20)
(0.00490689 0.00947244 0)
(5.64682e-05 -9.26075e-06 0)
(0.00286696 0.00495343 0)
(0.00486487 0.0087363 0)
(6.12161e-05 -1.62795e-05 9.94744e-21)
(0.00502917 0.00923921 7.38878e-23)
(0.00285904 0.0049417 -5.59136e-21)
(0.0043117 0.00770988 5.13727e-23)
(0.00162908 0.00291641 -3.18721e-25)
(0.00104218 0.000134685 7.41552e-21)
(4.05272e-05 -8.55903e-06 3.61137e-21)
(0.00479721 0.00856898 0)
(0.000772598 -1.07808e-05 -1.69902e-20)
(0.00547054 0.00935365 -7.09306e-23)
(0.00282987 0.00489325 3.42906e-21)
(3.79839e-05 5.2037e-05 0)
(9.18366e-05 -0.00013778 -2.30778e-20)
(0.000433124 -8.3007e-05 -5.24194e-21)
(3.57555e-05 -1.02455e-05 -4.88903e-21)
(0.00281626 0.00486985 -1.60216e-21)
(0.000715957 -4.76367e-05 0)
(0.00070695 -2.83763e-05 1.85072e-20)
(0.00574245 0.00958533 -9.34985e-23)
(0.0046883 0.00872911 1.06774e-20)
(2.56349e-05 -1.36278e-05 7.33868e-21)
(0.00422103 0.00835626 5.0815e-20)
(0.00477403 0.00851884 5.14491e-23)
(0.00280547 0.00485117 1.52348e-21)
(6.23737e-05 1.20423e-05 -6.09429e-26)
(0.000686298 3.70666e-05 8.40214e-21)
(0.00470693 0.0095392 0)
(0.00279429 0.00483028 1.40397e-21)
(0.00386026 0.00691117 -1.74131e-20)
(0.00445212 0.00787918 -1.39953e-22)
(0.000663614 0.00364195 0)
(0.00279251 0.00482788 3.99832e-21)
(8.37109e-05 2.4729e-05 0)
(0.000816117 3.05484e-05 -3.47206e-20)
(0.00497377 0.00872632 1.3619e-20)
(0.00033189 -0.000100056 5.54194e-20)
(0.00583551 0.00963389 1.28446e-20)
(0.00401968 0.00738971 0)
(0.000354389 0.000241858 7.71095e-21)
(0.00357352 0.00809101 -1.64871e-20)
(0.00495264 0.00922802 2.76701e-22)
(0.000346228 6.48304e-05 -1.33975e-20)
(0.000701409 -2.53637e-05 0)
(0.00486026 0.00888925 -2.31542e-24)
(0.000404389 0.000272825 -1.6629e-20)
(7.36237e-05 3.83314e-05 9.36695e-21)
(0.000306153 4.12778e-05 0)
(0.004788 0.00829338 0)
(0.00553772 0.0093401 0)
(7.10081e-05 1.71215e-05 -4.68227e-21)
(0.000733331 2.09148e-05 3.37473e-20)
(0.00503416 0.00944112 -2.35807e-22)
(0.000552058 7.68777e-06 0)
(0.00503204 0.00897911 -2.28097e-22)
(0.000681613 2.96872e-05 6.96083e-20)
(0.000700343 0.00054109 1.68633e-20)
(0.000638954 0.000202195 -3.29524e-22)
(0.00575569 0.00955175 0)
(0.00436773 0.00660339 -7.31823e-23)
(0.00161961 0.000548668 8.71399e-22)
(0.000663662 1.03631e-05 -1.00542e-23)
(0.00447514 0.00789985 0)
(0.000647054 4.71116e-05 0)
(0.00408554 0.00708829 -7.85501e-21)
(9.73734e-05 6.34341e-06 1.42726e-20)
(0.0053614 0.00934799 1.36576e-20)
(0.000739198 -1.10574e-05 3.08755e-20)
(0.000698589 2.85396e-06 2.61387e-20)
(0.000679699 -1.29362e-05 3.58249e-20)
(4.3917e-05 2.07651e-05 4.97719e-21)
(0.00367366 0.00739131 2.18931e-20)
(0.000700659 3.94846e-05 0)
(0.000265237 0.00025037 1.57757e-21)
(0.00408312 0.00708445 7.82537e-21)
(0.00506677 0.00873285 -1.37568e-20)
(0.00451758 0.00797494 1.45493e-23)
(5.19078e-05 -2.0557e-05 1.45128e-20)
(5.27207e-05 -7.38392e-06 0)
(3.9476e-05 -5.57954e-05 1.45777e-20)
(0.000682232 4.20233e-05 -1.32348e-20)
(0.000355009 0.00231529 -2.45563e-22)
(5.10545e-05 1.46086e-05 4.71912e-21)
(0.000706475 4.78068e-05 -7.81007e-21)
(0.000673589 0.000260814 0)
(0.000875895 5.17032e-05 7.53047e-21)
(0.00524933 0.00909217 -3.39139e-21)
(4.8915e-05 2.83722e-05 3.18849e-25)
(0.0040565 0.00702081 4.45466e-21)
(0.00506647 0.00906639 -2.76099e-22)
(9.53509e-06 -5.20606e-05 0)
(0.000394772 0.00019351 9.18602e-21)
(0.00484713 0.00759523 2.21022e-20)
(2.58551e-06 4.1655e-05 -1.87142e-20)
(0.00560897 0.0096353 1.34504e-20)
(0.000488262 -9.85704e-05 2.06449e-20)
(7.60653e-05 3.20452e-06 9.40707e-21)
(0.00477021 0.00849016 1.64068e-22)
(0.00404488 0.00667282 2.10015e-20)
(0.00513513 0.00873398 1.33611e-20)
(7.28928e-06 -6.75065e-05 0)
(7.08494e-06 -3.36831e-05 0)
(0.00517126 0.00872042 1.33567e-20)
(0.00451921 0.00794989 -5.4631e-22)
(0.000357744 0.000321688 4.27114e-21)
(0.000475812 9.35977e-05 -4.7335e-21)
(0.000714078 3.5903e-05 -1.60794e-20)
(4.4809e-06 2.85314e-05 1.80834e-20)
(0.000401618 7.48874e-06 0)
(0.00476657 0.00825587 2.5036e-21)
(0.00405757 0.0070238 6.3967e-21)
(0.00476755 0.00825777 0)
(0.00505819 0.00911072 -3.17777e-23)
(0.000920594 6.89791e-05 8.96583e-21)
(0.00100334 3.94443e-05 1.12172e-21)
(0.000627148 0.000602428 -1.52505e-20)
(5.66589e-06 7.35494e-05 1.40233e-20)
(-1.08226e-05 0.000553108 2.05009e-20)
(0.00506333 0.0089546 1.64205e-23)
(1.57428e-05 -0.000142492 2.50447e-20)
(0.00521668 0.00931993 -1.42514e-22)
(1.67716e-06 -0.000272077 0)
(5.54464e-06 0.000117258 1.93487e-21)
(0.000779288 2.60133e-06 1.02972e-21)
(1.6125e-05 0.000148285 1.35903e-20)
(0.000692898 -7.84635e-05 0)
(0.00070233 3.59258e-05 -5.40054e-20)
(0.00035558 -1.84207e-05 0)
(7.24382e-05 0.000219134 1.94035e-20)
(1.78235e-05 0.000232379 0)
(3.03322e-05 0.000461206 -2.46433e-20)
(0.00451419 0.00793086 6.79863e-22)
(0.00025123 0.000123008 2.78665e-21)
(0.000242766 4.66948e-06 -2.85156e-20)
(4.5776e-06 5.52979e-05 0)
(-1.98564e-06 0.000335065 -2.72476e-20)
(0.000309013 0.000289286 -5.32399e-22)
(0.00476331 0.0085327 2.64637e-22)
(1.37523e-05 -0.000103365 -7.8216e-21)
(0.00524906 0.00909379 -7.42979e-21)
(0.000733264 0.00025392 0)
(0.000794744 5.09422e-05 0)
(0.00506686 0.00893074 -3.15761e-22)
(0.000564634 1.87311e-05 0)
(1.68072e-05 -0.000188032 -1.21716e-20)
(0.000680125 1.27457e-06 0)
(0.000300344 -3.45056e-05 -5.04689e-20)
(0.00236838 0.000845511 -9.54266e-21)
(0.00504349 0.00914837 0)
(3.79549e-06 0.00017453 1.31516e-20)
(2.48248e-05 0.000282856 9.76285e-21)
(0.00451834 0.00792864 4.69059e-22)
(0.00518004 0.00869719 -1.56305e-22)
(0.000883973 3.41417e-05 -1.05936e-21)
(7.26868e-05 -2.18076e-06 0)
(0.000698741 1.93343e-05 1.60937e-20)
(0.000944137 4.30035e-05 0)
(2.18278e-05 0.000400932 5.31568e-20)
(0.000425713 8.04589e-05 -4.38473e-21)
(6.02903e-05 -2.47578e-06 0)
(0.000789566 -4.0978e-05 -2.73711e-20)
(0.00142012 0.000154193 0)
(-2.90274e-07 8.50348e-05 0)
(0.00467741 0.00772637 -2.10615e-20)
(0.00473469 0.00861667 -1.41913e-21)
(0.00457932 0.0080212 -4.85617e-22)
(0.00517166 0.00867236 -9.48772e-23)
(0.00556701 0.0093169 0)
(0.00030159 0.000384253 1.86946e-20)
(0.000770113 0.000502472 -2.0478e-21)
(0.000514763 4.5939e-05 0)
(0.000235853 6.97037e-05 0)
(0.00241171 0.010305 5.68237e-21)
(7.05483e-05 6.30457e-05 1.16568e-21)
(0.000665344 0.000850676 -5.20803e-20)
(3.73627e-05 2.49145e-05 -5.22209e-21)
(0.00458425 0.00793556 -8.47798e-22)
(0.00415464 0.00717454 0)
(0.00450977 0.00787533 -6.34566e-22)
(0.0045824 0.00799033 1.27459e-21)
(0.00523659 0.00923126 4.88783e-22)
(0.00459702 0.00801344 -1.30686e-21)
(0.00462411 0.00805406 2.86114e-23)
(0.00463266 0.00806593 5.8289e-23)
(0.00464427 0.00808075 -1.60283e-21)
(0.00465047 0.00808878 8.79822e-22)
(0.00531284 0.00920274 0)
(0.00531236 0.00920228 7.12142e-23)
(0.00531334 0.00920225 -7.36055e-21)
(0.00531451 0.00920262 -7.11672e-21)
(0.00531415 0.00920279 0)
(0.00531273 0.009203 7.91557e-21)
(0.00531227 0.00920244 8.15062e-21)
(0.0053122 0.00920073 -8.62898e-21)
(0.00531245 0.00920053 -9.10335e-21)
(0.00531196 0.00920114 9.32535e-21)
(0.00531147 0.00919915 -1.9349e-20)
(0.00531229 0.00920241 1.43379e-20)
(0.00531289 0.0092021 1.47363e-20)
(0.00531231 0.00919888 2.00487e-20)
(0.00531432 0.00920253 1.47543e-20)
(0.00531449 0.00920266 0)
(0.00531259 0.00919962 0)
(0.00531308 0.00920297 -7.84365e-21)
(0.00531236 0.00920264 -1.63064e-20)
(0.00531277 0.00919963 0)
(0.0053164 0.00921172 -3.13857e-23)
(0.00531623 0.00921155 -6.85607e-21)
(0.00531644 0.00921089 -6.67924e-23)
(0.00531379 0.00919942 -1.05762e-20)
(0.00531221 0.00920086 2.67012e-20)
(0.00531243 0.00920043 1.73238e-20)
(0.00531534 0.00919962 -6.65557e-23)
(0.00531223 0.00920078 3.11196e-23)
(0.00531129 0.00919967 9.80967e-21)
(0.00531207 0.00919866 -9.97706e-21)
(0.00531211 0.00920337 6.58599e-21)
(0.00531638 0.0092092 0)
(0.00532867 0.00920222 -1.12841e-20)
(0.0053118 0.00920324 6.8785e-21)
(0.00531255 0.00919944 -9.94105e-21)
(0.00531666 0.00920899 2.40044e-20)
(0.00531197 0.00920283 7.02036e-21)
(0.00531668 0.00920902 1.72019e-20)
(0.00531272 0.00919969 -9.87954e-21)
(0.0053167 0.00920918 1.75487e-20)
(0.00534497 0.0092054 0)
(0.00531344 0.00919937 3.13645e-23)
(0.00531695 0.00921139 -6.65444e-21)
(0.00531473 0.0091994 -2.1568e-20)
(0.00537211 0.00921178 -2.33589e-20)
(0.00531527 0.00920953 9.48418e-21)
(0.00532521 0.00920159 -1.12625e-20)
(0.00531504 0.00920864 9.60406e-21)
(0.00531711 0.00920992 -7.22516e-21)
(0.00533854 0.009204 1.14425e-20)
(0.00531833 0.00921006 1.45331e-20)
(0.00531241 0.00920162 8.22787e-21)
(0.00536159 0.00920925 1.16623e-20)
(0.00531247 0.00920124 -8.45547e-21)
(0.00531859 0.0092103 -3.45083e-23)
(0.00531223 0.00920102 8.23965e-21)
(0.00531748 0.00921058 -3.23946e-23)
(0.00531221 0.00920088 -8.46391e-21)
(0.00531658 0.00921056 -3.51251e-23)
(0.00465857 0.00809809 9.69865e-22)
(0.00531626 0.00920976 8.20958e-21)
(0.00532286 0.00920688 1.09188e-20)
(0.0054159 0.00922223 -1.1914e-20)
(0.00531144 0.00920141 0)
(0.00532667 0.00920655 -2.22299e-20)
(0.00531109 0.0092008 9.66977e-21)
(0.00547995 0.00924248 1.21032e-20)
(0.00531691 0.0092089 1.76516e-20)
(0.00590252 0.00930123 0)
(0.00531698 0.00920876 8.32954e-25)
(0.00587497 0.00937058 1.28896e-20)
(0.0055684 0.0092782 2.46166e-20)
(0.00531599 0.00920954 9.28807e-21)
(0.00509145 0.00894767 -3.91191e-22)
(0.00568638 0.00934389 -1.245e-20)
(0.00539919 0.00921803 0)
(0.00531594 0.00920646 9.71353e-21)
(0.00545628 0.00923417 -1.20284e-20)
(0.00531674 0.00920655 -4.00456e-20)
(0.00531709 0.00920006 -2.19219e-20)
(0.00532016 0.00920064 -2.22537e-20)
(0.00531684 0.00920714 -9.68847e-21)
(0.00553587 0.00926429 0)
(0.00583959 0.00940321 -1.26423e-20)
(0.00531737 0.00920706 -1.04526e-20)
(0.0050999 0.00883568 6.67235e-21)
(0.0051 0.00883551 -2.12865e-20)
(0.00564406 0.00931659 1.24827e-20)
(0.00510062 0.0088355 -7.07906e-21)
(0.00510031 0.00883481 -7.23445e-21)
(0.00531874 0.00920689 2.12745e-20)
(0.00510106 0.00883505 -7.21843e-21)
(0.00529632 0.00917298 1.30217e-20)
(0.00510145 0.0088344 5.72285e-24)
(0.00532059 0.00920705 1.0764e-20)
(0.00466374 0.00810325 -1.96341e-21)
(0.00510227 0.00883422 -3.5261e-23)
(0.0051026 0.00883412 0)
(0.00510158 0.00883442 7.6576e-21)
(0.00581082 0.00946132 1.27916e-20)
(0.00540585 0.00921159 6.6508e-23)
(0.00544153 0.00921483 -3.04567e-23)
(0.00546294 0.00921746 1.20216e-20)
(0.00510146 0.00883445 8.15637e-21)
(0.00533792 0.00920606 -1.13082e-20)
(0.00554361 0.00923354 0)
(0.00551334 0.00922666 -3.38406e-23)
(0.00565889 0.0092704 1.24605e-20)
(0.00510182 0.00883499 -1.68069e-20)
(0.00510196 0.00883458 -3.16899e-23)
(0.00535832 0.00920742 -3.0205e-23)
(0.00510264 0.00883546 0)
(0.005616 0.00925444 1.22351e-20)
(0.00510226 0.00883511 8.73106e-21)
(0.00510212 0.00883527 -8.72403e-21)
(0.00510179 0.00883467 1.68598e-20)
(0.00510186 0.00883447 0)
(0.00575262 0.00932143 1.24984e-20)
(0.00539108 0.00921049 3.50139e-20)
(0.00510196 0.00883423 -8.58396e-21)
(0.00510188 0.00883398 -8.55685e-21)
(0.0057755 0.00941979 0)
(0.00510155 0.00883352 9.13396e-21)
(0.00586932 0.00945424 -1.26272e-20)
(0.00510047 0.00883346 8.54707e-21)
(0.0051 0.00883459 9.51179e-21)
(0.0050998 0.00883416 0)
(0.00510047 0.00883416 9.72417e-21)
(0.00510061 0.00883401 3.81196e-23)
(0.00510144 0.0088345 -9.83809e-21)
(0.00510108 0.0088346 7.05878e-21)
(0.00524289 0.0090836 7.03266e-21)
(0.00467032 0.00811121 0)
(0.00531628 0.00921124 -7.05231e-21)
(0.00531627 0.00921169 3.25908e-23)
(0.00531664 0.00921164 -1.34292e-20)
(0.0053163 0.00920942 0)
(0.00531655 0.00920901 8.29372e-21)
(0.00531664 0.00920909 -1.75684e-20)
(0.0053167 0.00920899 -7.38099e-25)
(0.00531504 0.00920919 -9.6798e-21)
(0.00531566 0.00920961 -9.45057e-21)
(0.00532167 0.00920695 1.0897e-20)
(0.00532452 0.00920671 0)
(0.00556255 0.00976426 -1.27809e-20)
(0.00510161 0.00883393 -7.57062e-21)
(0.00524361 0.00908369 0)
(0.0051023 0.00883488 -1.0007e-20)
(0.00510248 0.00883399 7.41309e-21)
(0.00579906 0.00935851 -2.52983e-20)
(0.00524453 0.00908355 -1.46505e-20)
(0.00510179 0.00883433 0)
(0.00524411 0.00908362 -7.84369e-21)
(0.00510283 0.00883504 0)
(0.005101 0.00883396 -3.39996e-23)
(0.00524302 0.00908353 -7.75505e-21)
(0.00510122 0.00883473 0)
(0.00524313 0.0090836 6.55219e-23)
(0.00510329 0.00883533 1.03758e-20)
(0.00567191 0.00965289 1.28039e-20)
(0.00510382 0.00883532 1.00899e-20)
(0.00510149 0.00883346 -9.11301e-21)
(0.00570543 0.00957402 -1.27386e-20)
(0.00524295 0.00908187 -8.81497e-21)
(0.00510448 0.00883638 -1.04306e-20)
(0.00510065 0.00883337 8.87631e-21)
(0.00524262 0.00908165 -9.25608e-21)
(0.00509992 0.00883406 -9.43816e-21)
(0.00524187 0.00908219 -1.80497e-20)
(0.0051062 0.0088395 1.09711e-20)
(0.0055171 0.00971825 0)
(0.00510699 0.00884046 0)
(0.00510162 0.00883441 9.5552e-21)
(0.00510865 0.0088414 0)
(0.00524336 0.00908255 -6.39103e-23)
(0.0051105 0.00884278 0)
(0.00531317 0.00920237 0)
(0.00510236 0.00883471 -3.05315e-23)
(0.0052438 0.00908276 1.92982e-20)
(0.00511338 0.00884494 -2.26116e-20)
(0.00510258 0.00883475 -1.00387e-20)
(0.00524421 0.00908292 1.00087e-20)
(0.00510334 0.00883494 -2.78327e-23)
(0.00567378 0.00961128 -1.28037e-20)
(0.00524453 0.00908279 -1.01675e-20)
(0.00512492 0.00885305 0)
(0.00510431 0.00883564 -3.16168e-23)
(0.00524532 0.00908285 -2.09739e-20)
(0.0051054 0.00883827 -6.65917e-23)
(0.00524654 0.00908403 1.09032e-20)
(0.00514422 0.00886728 -1.16359e-20)
(0.00467432 0.00811584 0)
(0.00532036 0.0098181 -2.38547e-20)
(0.00551314 0.00973609 1.26698e-20)
(0.00511985 0.00884939 1.1502e-20)
(0.00526112 0.00909393 2.28121e-20)
(0.00534828 0.00914553 -1.20075e-20)
(0.00538737 0.00982633 1.25171e-20)
(0.00513634 0.00886156 2.34613e-20)
(0.00527745 0.00910253 2.32303e-20)
(0.00467873 0.00812067 -1.18326e-21)
(0.00574237 0.00972221 1.29398e-20)
(0.00573208 0.00973433 -2.59401e-20)
(0.00516345 0.00888207 3.5729e-20)
(0.00530442 0.00911774 -1.18055e-20)
(0.00533117 0.00913395 1.18056e-20)
(0.00541412 0.00919296 3.66507e-20)
(0.00560352 0.00978984 -2.60433e-20)
(0.00563313 0.00976074 0)
(0.00520614 0.00891806 -2.42102e-20)
(0.00581724 0.00967823 3.18761e-23)
(0.00588136 0.0094349 1.26906e-20)
(0.00468285 0.00812684 1.2859e-21)
(0.00586091 0.00957078 -1.2905e-20)
(0.00538892 0.00917446 0)
(0.00531479 0.00920584 -1.75408e-20)
(0.00586024 0.00962352 0)
(0.00531629 0.00920632 -6.48145e-21)
(0.00580868 0.00967897 -5.09826e-23)
(0.00531506 0.0092088 6.61793e-21)
(0.00531494 0.00920917 -6.87143e-21)
(0.00527171 0.00897539 1.22989e-20)
(0.0053095 0.00919903 -6.84783e-21)
(0.00585265 0.00950044 -1.2754e-20)
(0.00586811 0.00956993 -2.59177e-23)
(0.00585535 0.00943193 1.28468e-20)
(0.0053145 0.00920647 -7.68486e-21)
(0.00531466 0.00920686 -8.00504e-21)
(0.0053181 0.00920718 3.30513e-23)
(0.00494176 0.00842223 0)
(0.00532197 0.0098273 2.3602e-20)
(0.00531558 0.00920839 -1.46159e-20)
(0.00531643 0.00920835 4.43635e-24)
(0.00531653 0.00920848 -1.60025e-20)
(0.00531628 0.00920755 -8.08903e-21)
(0.00587949 0.00951062 1.28612e-20)
(0.00539264 0.0090889 1.24549e-20)
(0.00585059 0.00951747 -1.27718e-20)
(0.00531832 0.00920853 0)
(0.00531482 0.00920601 5.95383e-21)
(0.00531596 0.00920866 0)
(0.00531501 0.00920607 0)
(0.00531396 0.00920466 -1.27852e-20)
(0.00542367 0.00912327 0)
(0.00531526 0.00920919 -1.80146e-20)
(0.00531598 0.00920735 0)
(0.00531619 0.00920725 6.75105e-21)
(0.00531658 0.00920849 -6.89313e-21)
(0.00583251 0.00958823 -2.59285e-20)
(0.005705 0.00929215 -1.24413e-20)
(0.00531476 0.00920807 4.13457e-23)
(0.00545618 0.00915946 -1.25652e-20)
(0.00531695 0.00920935 8.76413e-21)
(0.00531485 0.00920976 7.31692e-21)
(0.00581705 0.00946674 1.26067e-20)
(0.00531372 0.00920635 -6.50685e-21)
(0.00530936 0.00919882 0)
(0.00531508 0.00920954 0)
(0.00531732 0.00920881 0)
(0.00531521 0.00920912 8.35741e-21)
(0.00529975 0.00899933 1.21972e-20)
(0.00531628 0.00920801 -3.63566e-23)
(0.00531503 0.00920578 1.56519e-20)
(0.00468538 0.00813126 -1.28509e-21)
(0.00531457 0.00920585 3.26135e-23)
(0.00531765 0.00920669 7.72023e-21)
(0.00531606 0.00920646 -1.54653e-20)
(0.00548919 0.00919415 1.29357e-20)
(0.00531467 0.00920905 -8.65714e-21)
(0.00531665 0.00920848 -5.83005e-23)
(0.00531431 0.00920376 -7.16895e-21)
(0.0053161 0.00920782 0)
(0.00577295 0.0094954 1.27227e-20)
(0.00531717 0.00920847 3.2822e-23)
(0.00531713 0.00920797 -1.62442e-20)
(0.00531822 0.00920875 8.30438e-21)
(0.00531817 0.00920872 8.31101e-21)
(0.00531519 0.00920703 0)
(0.00531613 0.00920385 0)
(0.00107557 0.00188429 6.22861e-21)
(0.00531409 0.00920924 0)
(0.00508947 0.00858125 -1.07948e-22)
(0.00531657 0.00920344 0)
(0.00531381 0.00920459 -9.89272e-21)
(0.00531596 0.00920976 -9.03214e-21)
(0.0053145 0.00920924 1.84661e-20)
(0.00568125 0.00943789 -2.57824e-20)
(0.00107721 0.00188636 4.34456e-21)
(0.00531409 0.00920785 2.39862e-23)
(0.00573308 0.00945016 0)
(0.0053162 0.00920392 2.10164e-20)
(0.00531432 0.00920871 9.58093e-21)
(0.00569246 0.00940814 0)
(0.00531499 0.00920614 1.94988e-20)
(0.00468837 0.00813534 1.41339e-21)
(0.00531692 0.00920367 -2.17976e-20)
(0.00531409 0.00920731 0)
(0.00491474 0.00839493 0)
(0.00107774 0.00188753 9.09404e-21)
(0.00531164 0.00920374 -2.11065e-23)
(0.00531568 0.00920532 1.98689e-20)
(0.00530698 0.00920483 3.9313e-21)
(0.00531409 0.00920577 0)
(0.00531804 0.00920308 -3.91005e-23)
(0.00531454 0.00920561 4.72011e-21)
(0.0053159 0.00920457 -1.00701e-20)
(0.00531661 0.00920357 -3.22706e-23)
(0.00289646 0.00500413 0)
(0.00107392 0.00188161 -1.01098e-21)
(0.00288507 0.00498432 -4.04804e-21)
(0.00289168 0.00499457 4.83574e-21)
(0.00531509 0.00920568 5.28081e-21)
(0.00108 0.00188616 1.14694e-20)
(0.00560811 0.00935871 1.27128e-20)
(0.00578313 0.00922169 -2.70253e-23)
(0.00289263 0.00499591 2.20674e-23)
(0.00531605 0.00920375 9.87318e-21)
(0.00533172 0.00919329 1.12286e-20)
(0.00531454 0.00920936 2.32722e-23)
(0.00531523 0.00920306 1.02843e-20)
(0.00565289 0.00937108 -1.24377e-20)
(0.00547221 0.00923538 -1.21424e-20)
(0.00531461 0.00920278 -1.95683e-20)
(0.00531723 0.0092037 2.11468e-20)
(0.00573104 0.00937831 0)
(0.00531566 0.0092036 -1.03108e-20)
(0.00574343 0.00918336 2.45606e-20)
(0.0010811 0.00188815 4.36166e-21)
(0.00531212 0.00920492 0)
(0.005316 0.00920735 -3.73865e-23)
(0.00531753 0.0092037 -3.42341e-23)
(0.00289273 0.0049973 4.38692e-21)
(0.00108138 0.00188773 5.69996e-21)
(0.00531538 0.00918852 1.10018e-20)
(0.00107761 0.00188765 2.4812e-21)
(0.00529797 0.00916422 0)
(0.00469215 0.00814247 -1.37466e-21)
(0.00289409 0.00499762 0)
(0.00531505 0.00919281 1.10977e-20)
(0.0053131 0.00921078 -2.16645e-21)
(0.00531156 0.00921105 2.03491e-21)
(0.00534486 0.00918058 1.15873e-20)
(0.00561468 0.0093399 2.48773e-20)
(0.00531072 0.00920532 -2.16586e-21)
(0.00530844 0.00920505 -2.10291e-21)
(0.00531894 0.00920071 -1.1227e-20)
(0.00556157 0.00916681 -2.40406e-20)
(0.00530673 0.00920471 -1.91668e-21)
(0.0053134 0.00920543 -2.32115e-21)
(0.00531103 0.00921142 3.60362e-21)
(0.00531022 0.00920263 3.00366e-21)
(0.0055052 0.00926097 7.60155e-23)
(0.00289614 0.00500076 5.36911e-21)
(0.00505706 0.00854831 -1.27123e-20)
(0.00531572 0.00921038 2.34167e-21)
(0.00531488 0.00920872 0)
(0.00531463 0.00919428 2.18116e-20)
(0.00533488 0.00919011 2.28964e-20)
(0.00546305 0.00916557 -1.18121e-20)
(0.00531544 0.00920555 2.39741e-21)
(0.00531897 0.0092107 -2.41857e-21)
(0.00557847 0.00931414 -1.23926e-20)
(0.00108153 0.00189125 -3.64023e-21)
(0.00553854 0.00928918 4.2581e-23)
(0.00552424 0.00916453 2.65077e-23)
(0.00289009 0.00499237 0)
(0.00496929 0.00845085 0)
(0.00289068 0.00499079 1.05599e-20)
(0.00535135 0.00917475 0)
(0.00540541 0.00911364 0)
(0.00536102 0.00905599 -2.52925e-20)
(0.00531285 0.00920534 -4.10421e-21)
(0.0053131 0.00920541 -3.88563e-21)
(0.00108134 0.00188843 2.48646e-21)
(0.00410317 0.00711763 6.31081e-21)
(0.00549141 0.00916417 3.67715e-23)
(0.00531835 0.00921087 -2.689e-21)
(0.00531346 0.00920567 3.69673e-21)
(0.00531346 0.00920536 0)
(0.00289351 0.0049961 0)
(0.00531178 0.00919779 -5.07553e-21)
(0.00289587 0.00500164 0)
(0.00543862 0.00916856 3.8043e-23)
(0.00564719 0.00917517 -2.42903e-20)
(0.00502737 0.0085163 1.26112e-20)
(0.0053122 0.0091984 -4.23433e-23)
(0.00541811 0.00917237 -1.1813e-20)
(0.00531313 0.00920592 -4.46881e-21)
(0.00531516 0.00920269 -1.99749e-20)
(0.00538102 0.00899735 0)
(0.00554425 0.0092925 -3.69965e-23)
(0.00535374 0.00916227 -1.1481e-20)
(0.00499744 0.00848251 -1.269e-20)
(0.00288876 0.0049891 -2.74528e-21)
(0.00531405 0.00920626 -1.09536e-20)
(0.0053106 0.00920156 3.16348e-21)
(0.00540115 0.00917629 1.16924e-20)
(0.00529843 0.00916857 -1.10607e-20)
(0.00533422 0.00918235 -1.10863e-20)
(0.00531443 0.00920673 0)
(0.00531285 0.00919983 -4.90037e-21)
(0.00531747 0.00920471 9.88819e-21)
(0.00539251 0.00895285 -2.53602e-23)
(0.00531184 0.00920335 9.26172e-21)
(0.00538666 0.00918032 -1.76175e-20)
(0.00537493 0.00914264 -1.16189e-20)
(0.00537033 0.00915989 -1.1911e-20)
(0.00531062 0.00920347 0)
(0.00531499 0.00919122 -1.11168e-20)
(0.00560468 0.00929508 -1.22415e-20)
(0.00289576 0.00500251 -5.66241e-21)
(0.00531467 0.00920735 7.07304e-21)
(0.00531695 0.00920405 1.0755e-20)
(0.00551237 0.00927379 -7.05912e-23)
(0.00539823 0.00914081 -1.19078e-20)
(0.00531897 0.00920562 4.96468e-21)
(0.0053128 0.00919718 5.34629e-21)
(0.00531353 0.00920608 4.58285e-21)
(0.0053119 0.0091978 0)
(0.00531323 0.00920032 4.83154e-21)
(0.00531592 0.00920954 0)
(0.00531332 0.00920565 3.72257e-23)
(0.00531299 0.00920534 -7.60154e-21)
(0.00531379 0.00920599 1.08946e-20)
(0.0056027 0.00917072 3.69221e-20)
(0.00531265 0.00920548 4.18861e-21)
(0.00469408 0.00814629 -3.01985e-21)
(0.00540323 0.0090683 -2.44709e-20)
(0.00531276 0.00919863 5.00681e-21)
(0.00531859 0.00920706 4.70249e-21)
(0.00533038 0.00902646 0)
(0.00531798 0.00920783 -1.43794e-20)
(0.00540825 0.00890067 0)
(0.00531183 0.00920221 2.0638e-23)
(0.0028881 0.00498978 -5.58018e-21)
(0.00531594 0.00918525 0)
(0.00531455 0.00920594 2.40039e-24)
(0.00548331 0.00925719 -2.43e-20)
(0.00537464 0.00918407 -5.8603e-21)
(0.00531511 0.00920825 2.88435e-21)
(0.00531861 0.00920628 -5.46483e-21)
(0.00489103 0.00837285 -1.22748e-20)
(0.00531338 0.00920435 4.05057e-23)
(0.00530987 0.00919673 -5.94437e-21)
(0.00550654 0.00925241 -1.20318e-20)
(0.00531444 0.00920905 0)
(0.00531329 0.009205 -1.82818e-21)
(0.00531778 0.00920811 -4.63189e-21)
(0.00531599 0.0092057 0)
(0.00531043 0.00920172 -3.01439e-21)
(0.00537133 0.00903403 2.39947e-20)
(0.00531511 0.0092056 2.84655e-23)
(0.00531317 0.00920483 3.85307e-21)
(0.00565277 0.00891433 2.3953e-23)
(0.00531421 0.00920591 9.37425e-21)
(0.00545716 0.00924247 -1.20255e-20)
(0.00531575 0.0092061 -6.23223e-21)
(0.00536477 0.00918744 2.29181e-20)
(0.00544195 0.00921282 -1.22308e-20)
(0.00531378 0.0092053 -3.68481e-21)
(0.00531508 0.00920604 -6.68427e-23)
(0.00534623 0.00916971 1.17283e-20)
(0.00289386 0.00500128 1.43396e-20)
(0.00531296 0.00920478 0)
(0.00531537 0.00920767 -3.61378e-21)
(0.00565272 0.00902476 0)
(0.00531304 0.00919651 5.41712e-21)
(0.0046981 0.00815193 3.15418e-21)
(0.0053137 0.00920959 -6.72941e-21)
(0.00543364 0.00922966 3.5789e-23)
(0.00531382 0.00920576 -7.44968e-21)
(0.00531623 0.00920801 -4.74423e-24)
(0.00535002 0.00919794 -1.1381e-20)
(0.00531397 0.00920966 6.62849e-21)
(0.00486995 0.00835206 1.22358e-20)
(0.00531208 0.00920368 -3.905e-24)
(0.00535614 0.00919079 -1.16772e-20)
(0.00557029 0.00895501 2.48472e-20)
(0.00531481 0.00921016 -3.93504e-21)
(0.00531507 0.00920934 0)
(0.00531242 0.00919822 -2.34516e-23)
(0.00531332 0.00920548 0)
(0.0053115 0.00920178 0)
(0.00288748 0.00498901 -2.80889e-21)
(0.00531194 0.00920375 0)
(0.00511852 0.0088647 8.08487e-21)
(0.0057958 0.00901425 1.91568e-23)
(0.00531558 0.00920953 6.95835e-21)
(0.00585742 0.00891837 0)
(0.0051005 0.00883481 2.35208e-20)
(0.00570242 0.00890316 1.24647e-20)
(0.00541284 0.00921897 1.19342e-20)
(0.00531011 0.00921424 1.49626e-21)
(0.00543505 0.00922741 1.18369e-20)
(0.00549015 0.00918211 -2.39936e-20)
(0.00531247 0.00919824 0)
(0.00553469 0.0089834 -2.34792e-20)
(0.00531227 0.0091983 -2.39729e-20)
(0.00531579 0.00920991 -3.61572e-21)
(0.00531223 0.0091958 5.86343e-21)
(0.00479862 0.00831021 0)
(0.00531277 0.00920334 9.42243e-21)
(0.00531328 0.0091966 -5.16331e-21)
(0.00475614 0.00824182 -5.83097e-21)
(0.0047967 0.00830287 -7.51262e-21)
(0.00588545 0.00894827 -1.26448e-20)
(0.00531449 0.00920979 8.06489e-21)
(0.00479334 0.00829589 1.09343e-20)
(0.00531436 0.00920616 0)
(0.00575691 0.00889878 2.21319e-23)
(0.00531245 0.00919814 -7.91915e-21)
(0.00485307 0.00833516 -3.86363e-23)
(0.0053674 0.00915869 2.42233e-20)
(0.00539446 0.00921019 -1.18536e-20)
(0.00570916 0.00875918 -1.2354e-20)
(0.00479627 0.00830466 0)
(0.00470131 0.00815714 6.59193e-23)
(0.00483757 0.0083192 -1.21095e-20)
(0.00511771 0.00886706 7.30141e-21)
(0.00530511 0.00920389 0)
(0.00511789 0.00886707 7.19053e-21)
(0.00531585 0.0092101 6.6907e-21)
(0.0051186 0.00886334 -8.02019e-21)
(0.00528315 0.00921595 1.87047e-21)
(0.00531231 0.00921094 2.21809e-21)
(0.00531192 0.00920413 -3.6841e-21)
(0.00479653 0.00830554 -2.98013e-23)
(0.00531275 0.00920312 0)
(0.00531347 0.00919568 1.04193e-20)
(0.00527687 0.00922147 1.63027e-21)
(0.00530993 0.00919886 2.00588e-23)
(0.00531532 0.00920918 7.44792e-21)
(0.00560884 0.00893173 2.48165e-20)
(0.00537828 0.00920308 0)
(0.00482549 0.00830694 3.25892e-23)
(0.00527835 0.00921572 0)
(0.00581152 0.00890315 1.22509e-20)
(0.00531601 0.0092088 -4.22994e-21)
(0.00588719 0.00900043 -1.21999e-20)