/*--------------------------------*- C++ -*----------------------------------*\
  =========                 |
  \\      /  F ield         | OpenFOAM: The Open Source CFD Toolbox
   \\    /   O peration     | Website:  https://openfoam.org
    \\  /    A nd           | Version:  8
     \\/     M anipulation  |
\*---------------------------------------------------------------------------*/
FoamFile
{
    version     2.0;
    format      ascii;
    class       volVectorField;
    location    "1.8";
    object      U;
}
// * * * * * * * * * * * * * * * * * * * * * * * * * * * * * * * * * * * * * //

dimensions      [0 1 -1 0 0 0 0];

internalField   nonuniform List<vector> 
17372
(
(0.000568647 0.00102098 2.28899e-21)
(8.38559e-05 0.000224094 7.84765e-21)
(0.000719586 0.00122098 1.45675e-23)
(0.000606366 0.00113037 3.15575e-21)
(0.000115252 1.78494e-05 -4.62888e-22)
(5.70269e-05 0.000256512 -3.6296e-21)
(0.000572775 0.000947171 2.13519e-22)
(0.000238705 0.000530318 -8.79573e-22)
(0.000717331 0.00122603 -4.79242e-22)
(0.000450132 0.000627246 9.36319e-22)
(0.000718641 0.00106804 -2.29165e-21)
(0.000131359 0.000186021 1.90004e-21)
(0.00119867 7.17295e-05 2.77182e-21)
(0.000951077 7.22263e-05 2.04511e-21)
(0.00056664 0.00098327 -2.35266e-22)
(0.000426353 0.000735425 -1.05392e-21)
(0.000130384 0.000174466 -2.89683e-21)
(0.00038038 0.000168751 2.02072e-21)
(0.000978001 0.000109854 -2.01295e-24)
(0.000186886 0.000587 0)
(0.000564707 0.000982641 -1.103e-22)
(0.000475301 0.000992807 -3.316e-22)
(0.00059582 0.00101718 -2.98651e-21)
(0.000204217 0.000576509 -6.05592e-21)
(0.000417326 0.000128958 -5.60794e-21)
(0.000552477 0.000980735 1.10545e-22)
(0.000594282 0.0010147 4.38535e-24)
(0.000658003 0.00112186 8.67672e-22)
(0.000968974 -2.96182e-05 1.56543e-21)
(0.000594885 0.00101523 -1.50652e-21)
(0.0007215 0.00122693 -4.97955e-22)
(9.00144e-05 8.72973e-05 2.55767e-21)
(0.000595807 0.00101598 -7.79839e-24)
(0.000558334 0.000985596 -5.21111e-22)
(0.000166806 0.000699098 1.01045e-21)
(0.000560513 0.000951468 -9.45566e-24)
(0.000568414 0.000979764 0)
(0.000258557 0.000177283 -5.60232e-23)
(0.000574862 0.00104609 5.99258e-22)
(0.000518209 0.000889179 7.01036e-23)
(0.000594025 0.00101468 1.32971e-23)
(0.000636776 0.00115333 5.66545e-22)
(0.000644674 0.00112324 6.91921e-22)
(0.000637067 0.000577149 5.19889e-23)
(0.000533144 0.000948409 0)
(0.000597005 0.00101959 1.46855e-21)
(4.63919e-05 0.000198185 7.44582e-22)
(0.000418704 0.000760212 -1.8322e-22)
(0.000569183 0.000982852 -3.77422e-22)
(0.000583769 0.000968714 8.94987e-22)
(2.36631e-05 0.000266421 1.80067e-21)
(0.000559293 0.000982613 6.574e-22)
(0.000573065 0.000981192 -9.22107e-24)
(0.000724406 0.00122318 1.65235e-21)
(0.00040567 0.000175527 -1.6175e-21)
(0.000216509 0.000126042 -5.09935e-22)
(0.000560298 0.000982571 -4.35065e-22)
(0.000610162 0.00116498 5.10346e-23)
(0.00072406 0.00122577 -5.50306e-22)
(0.000213196 0.000489284 -1.47775e-21)
(0.000531504 0.000969495 1.90241e-23)
(0.000469571 0.000567391 -7.63106e-22)
(0.00059462 0.00101578 1.49358e-21)
(0.000611405 0.00107255 1.23753e-21)
(0.000657004 0.00112058 -2.8453e-24)
(0.000202398 0.000489241 1.82709e-21)
(0.000537238 0.000955009 -5.59586e-22)
(0.000507781 0.000937725 -8.17455e-23)
(0.000260865 0.00109873 -4.33019e-24)
(0.000268581 0.000196446 3.87071e-22)
(0.000706013 0.000407024 0)
(0.000500657 0.000841651 3.60135e-22)
(0.000662706 0.00115553 -6.66151e-22)
(0.000577625 0.000940852 1.87217e-21)
(0.000518713 0.000886521 -1.87765e-21)
(0.000568469 0.000971295 -2.02613e-21)
(0.000658956 0.00110125 -7.16393e-22)
(0.000545138 0.00097724 0)
(0.000509446 0.00103258 9.41552e-22)
(0.000568056 0.00103137 -5.05359e-21)
(1.41003e-05 0.000234717 0)
(0.000529951 0.000975924 6.96933e-22)
(0.00058569 0.0010381 -1.59841e-21)
(0.000116949 3.56388e-05 -2.46758e-21)
(1.42195e-05 0.000242127 -2.34914e-22)
(0.000553696 0.000984685 0)
(0.000580487 0.000964568 -1.8273e-21)
(0.000591498 0.00105302 -3.72241e-24)
(0.000562815 0.000985244 3.39671e-22)
(6.79662e-06 0.000433225 0)
(0.000679033 0.00121427 -1.69994e-22)
(0.000551159 0.000983273 1.40249e-22)
(0.000440056 0.000482902 0)
(0.000523552 -5.87877e-05 -1.74716e-21)
(-7.59424e-06 0.000500031 -1.19198e-21)
(0.000593764 0.00101507 1.66093e-21)
(0.00131252 0.0001956 0)
(4.97675e-05 0.000191149 3.43217e-22)
(0.000418148 0.000161436 -1.77728e-21)
(0.000224024 0.000561365 1.55467e-24)
(0.0008442 0.000271906 -1.04735e-21)
(0.00058122 0.000976715 1.56245e-21)
(0.00026405 0.00018641 -2.21135e-22)
(0.000150183 0.00037056 -1.93592e-21)
(0.00072443 0.00122546 0)
(0.000554692 0.000980733 1.42121e-23)
(0.000708552 0.00123137 3.74473e-24)
(0.000946461 0.000785707 -8.21427e-21)
(0.000129925 0.000124346 0)
(0.000582044 0.00097804 -2.79012e-21)
(0.000657191 0.00149096 0)
(0.000296206 0.000295575 1.88781e-21)
(0.000582972 0.000978527 1.62519e-21)
(0.000584277 0.000977853 -1.74181e-21)
(0.000709467 0.0012242 0)
(0.00052699 0.000901431 -2.13801e-22)
(0.000583706 0.000979381 -1.6592e-21)
(0.000562544 0.000981303 -3.20143e-22)
(0.000550235 0.00105424 0)
(0.000584352 0.000980116 0)
(0.000720176 0.00122555 4.97642e-22)
(0.00058461 0.00098035 -4.2324e-22)
(0.000723821 0.00122517 5.36897e-22)
(0.000564515 0.00107623 2.1733e-22)
(0.000275561 0.000206378 -2.2845e-22)
(0.000725321 0.00122468 5.61391e-22)
(0.000722289 0.00121849 1.57119e-21)
(0.000482643 0.000512612 6.62002e-22)
(6.65679e-05 -7.52046e-06 -1.19283e-21)
(0.000585688 0.000978413 -8.5498e-22)
(0.00072455 0.00122425 -6.09168e-22)
(0.000720679 0.00121789 0)
(0.000593847 0.00101531 1.54487e-21)
(0.000584084 0.000973695 8.86474e-22)
(0.000722553 0.00121965 5.01191e-22)
(0.000481489 0.000509937 8.98327e-22)
(0.000561684 0.00112563 -1.13837e-21)
(0.000722142 0.00122017 -4.62141e-22)
(0.000563584 0.00112595 -1.16699e-21)
(0.000134388 0.00013968 -1.54268e-21)
(0.000489508 0.000598 1.63728e-21)
(0.000722237 0.00122063 4.45988e-22)
(0.000723159 0.00121987 0)
(0.0007238 0.0012235 -6.52326e-22)
(6.39733e-05 0.000484708 1.55153e-22)
(0.000722829 0.00122004 0)
(0.000723744 0.00122239 8.61552e-24)
(0.00105052 7.3222e-05 -1.53832e-21)
(0.00070012 0.000609867 -1.56262e-21)
(0.000613105 0.00112455 -8.49836e-24)
(0.000542058 0.000963222 -2.42727e-22)
(0.000564719 0.000938943 -1.59892e-21)
(0.000460095 0.00122379 -1.37689e-23)
(0.000666964 0.00114434 6.03873e-22)
(3.71709e-05 0.000326971 1.42775e-21)
(0.000623969 0.00102091 6.88744e-22)
(0.00106312 0.0014583 1.50138e-21)
(8.32566e-05 1.95894e-05 -8.73665e-23)
(8.66879e-05 0.00050021 -3.27247e-21)
(0.000581973 0.000976027 1.929e-21)
(0.000723455 0.00122469 -1.26932e-21)
(0.000128085 0.000141221 -8.05098e-22)
(0.000633494 0.00111684 1.44991e-21)
(0.000583662 0.00010533 3.8551e-21)
(0.000593804 0.00101475 4.44841e-24)
(0.000673506 0.000469448 1.53678e-21)
(0.000673978 0.00123241 -2.63395e-21)
(0.000614704 0.000232551 -1.86181e-21)
(0.000546817 0.000968687 4.82544e-22)
(0.000544576 0.000948914 -1.04615e-21)
(0.000253264 0.000776458 -8.64471e-23)
(0.000531419 0.000973247 3.30223e-22)
(0.00051928 0.000964846 3.69667e-21)
(0.000277428 0.000314873 1.86614e-21)
(0.00071976 0.00121737 -2.29591e-21)
(0.000514874 0.000979247 7.95919e-22)
(0.000661891 0.00110492 -3.75707e-22)
(0.000186565 0.000560728 1.82077e-21)
(0.000496095 0.000577879 4.75228e-22)
(0.000134085 0.000155495 -1.04445e-22)
(0.000193006 0.000698777 2.00972e-21)
(0.00061965 0.00112491 2.85077e-21)
(1.33604e-06 0.000418282 0)
(0.00039206 0.000791307 1.04756e-22)
(0.000575836 0.00098572 -8.19098e-22)
(0.000725508 0.0012219 -6.26482e-24)
(0.000559875 0.00106871 -1.10323e-22)
(5.47166e-05 0.000141177 5.28892e-22)
(0.000277419 0.00110665 -4.25172e-23)
(4.4032e-05 3.04767e-05 6.70378e-22)
(0.000510263 0.000956357 1.21882e-22)
(0.00045636 0.000884356 -1.36436e-21)
(0.000650111 0.00106417 -5.17486e-22)
(0.000245601 0.000450429 0)
(0.000585809 0.000978887 2.57901e-21)
(5.6151e-05 0.000121923 0)
(0.000562275 0.00111953 0)
(0.000617483 0.00113882 3.05347e-22)
(0.000234122 0.000246241 -1.01014e-21)
(0.00112515 0.000798878 0)
(4.88876e-05 0.000119088 -7.16871e-22)
(0.000435711 0.000635634 -1.25166e-22)
(0.000405919 -2.29725e-05 7.54588e-25)
(0.000591879 0.00105887 -1.11018e-21)
(0.000441977 0.000798265 -2.44681e-23)
(9.7266e-05 2.32412e-05 1.83349e-21)
(0.00062287 0.00111779 0)
(0.000794003 0.000378621 2.71447e-22)
(0.000562876 0.000981701 -7.30576e-24)
(0.000719038 0.00122668 7.07105e-22)
(0.000631948 0.00111146 -1.63659e-21)
(0.000593423 0.00101492 1.57768e-21)
(0.00064492 0.00112332 -4.42168e-21)
(0.000633743 0.0011152 1.56829e-21)
(5.9538e-05 0.000163481 0)
(0.0005424 0.000978368 0)
(0.000578634 0.000982295 2.10407e-21)
(0.000520449 0.000886824 3.71648e-21)
(0.000870882 0.000244789 1.07086e-21)
(0.000493799 0.00116187 -1.69815e-22)
(0.000565178 0.00104047 -8.3943e-22)
(0.000190895 0.000530738 0)
(5.88494e-05 0.000132 1.78869e-22)
(0.000952122 0.000142833 -5.64719e-21)
(0.000719851 0.00122631 -6.79159e-22)
(0.000399579 1.88998e-06 4.64616e-21)
(0.000607104 0.00106374 7.02689e-23)
(0.000272094 0.00073172 5.71355e-21)
(-0.000499743 0.00037495 -2.55829e-23)
(0.000583579 0.000976654 0)
(0.000254326 0.000168357 4.69992e-22)
(0.000630466 0.00112738 2.14668e-21)
(0.000461814 0.000457466 -2.69159e-21)
(0.000640882 0.00115155 2.17441e-21)
(0.000643379 0.0011434 4.4434e-21)
(0.000977383 -1.24604e-05 2.31444e-22)
(0.000387628 0.000522415 -1.47767e-21)
(0.000461871 0.000831945 0)
(0.00022747 0.000974379 1.07072e-23)
(0.000519763 0.000959499 -1.1926e-21)
(0.00060129 0.00100229 -7.74948e-22)
(0.000619467 0.00113109 1.76652e-21)
(8.79692e-05 2.13089e-05 0)
(0.00044096 0.000213228 1.96354e-21)
(0.000850378 0.000520472 1.95378e-21)
(0.000591765 0.00101504 0)
(0.000938611 9.23056e-05 -1.70844e-21)
(0.000574906 0.000984198 -8.74142e-22)
(0.00047024 0.0008886 5.59026e-23)
(6.70362e-05 1.37921e-05 -3.601e-22)
(7.39494e-05 3.23445e-07 4.39854e-21)
(0.000601768 0.00105327 -1.10744e-21)
(0.00024826 0.000970408 1.65644e-24)
(0.000555223 0.000986814 3.61402e-22)
(7.51597e-05 1.6003e-05 2.44018e-21)
(0.000575307 0.00104773 2.09927e-24)
(0.000719651 0.00121744 1.84273e-21)
(4.01577e-05 0.000210838 -4.28839e-22)
(0.000645609 0.00110412 -4.09344e-22)
(0.000592446 0.000138652 1.89302e-22)
(0.000640462 0.00124448 1.79226e-22)
(0.000644971 0.00115607 -6.83546e-24)
(0.000580357 0.000126518 -2.21026e-21)
(0.000387249 5.20299e-07 -5.82975e-21)
(6.84901e-05 -3.83542e-07 1.75712e-21)
(0.000184823 0.000148849 -8.28379e-22)
(0.000735916 0.00128772 -1.84632e-21)
(0.000361065 0.000271176 6.43377e-21)
(0.000558126 0.00102148 0)
(4.79878e-05 0.000103407 -8.68284e-22)
(0.000556568 0.00094982 -2.80364e-21)
(0.00059339 0.00101348 -1.33563e-23)
(6.20644e-05 0.000491708 9.40719e-21)
(0.00115985 -0.000187781 -3.9737e-22)
(0.00063943 0.000101716 0)
(0.000524899 0.000972988 0)
(0.000584975 0.000979741 -1.26359e-21)
(0.00107444 -3.22768e-05 -7.96715e-22)
(0.000595598 9.47898e-06 1.44954e-21)
(0.000391939 0.000538134 4.12024e-22)
(0.000634616 7.34594e-05 0)
(5.91074e-05 6.78187e-05 -3.28205e-21)
(0.000557846 0.00107608 0)
(4.45745e-05 9.39593e-05 1.33856e-21)
(0.000593268 0.0010152 -1.61722e-21)
(0.00128936 0.00112685 -4.50182e-21)
(0.000607636 0.00107776 0)
(0.000542993 0.000949042 3.27343e-25)
(0.000555052 0.000981184 0)
(0.000332863 0.000441546 0)
(0.000404666 0.00070431 0)
(0.000849881 0.000558298 -1.53868e-21)
(0.000583725 0.000974458 -1.112e-21)
(0.000480951 0.000872505 -2.20562e-22)
(0.000331484 0.000468319 4.09975e-21)
(0.000661539 0.00110096 -3.49943e-22)
(0.000546785 0.000965596 1.34501e-21)
(0.000864671 0.000182194 7.35637e-26)
(0.00046424 0.00102316 1.22872e-21)
(0.000655055 0.00117788 -2.19733e-24)
(0.000527445 0.00113232 -6.79245e-24)
(4.11222e-05 8.43367e-05 1.48161e-21)
(0.000711646 0.00123836 -3.97656e-22)
(4.57971e-05 0.000114533 7.53566e-22)
(5.01315e-05 -2.5322e-06 1.97696e-21)
(0.000674075 0.000610082 -4.72177e-22)
(0.000736041 0.00107937 -2.01083e-21)
(0.000639844 0.00104631 0)
(0.000423245 0.000630493 0)
(0.000316442 0.000258286 2.00716e-21)
(0.000573781 0.0010288 6.22221e-24)
(0.000942432 9.55344e-05 7.98134e-21)
(0.000638911 0.00111622 1.53404e-21)
(3.78113e-05 7.51712e-05 1.01477e-22)
(0.000296217 0.000561787 -1.8112e-21)
(0.000191187 0.000565963 1.3822e-21)
(0.000592046 0.00101328 -1.83814e-21)
(0.000209173 0.000328178 -6.69007e-23)
(0.000452296 -8.05914e-05 -3.75324e-21)
(0.00056779 0.000974257 -2.87495e-22)
(0.000111671 0.0011858 -2.03503e-22)
(0.000858154 0.000384383 0)
(0.000723215 0.00122173 0)
(0.0010806 6.72116e-05 2.15226e-22)
(0.000625351 0.00102827 0)
(0.000220048 8.16837e-05 1.09711e-21)
(2.71138e-05 0.000484306 0)
(3.42867e-05 6.7599e-05 8.3162e-23)
(0.0004093 0.000318748 1.21885e-21)
(0.000562725 0.0010347 0)
(0.000720753 0.00122304 0)
(0.000902383 0.000752502 -9.06399e-24)
(0.000174784 0.000112417 6.05865e-22)
(0.000669124 0.00108036 -1.60667e-22)
(0.000725091 0.0012219 -1.56794e-21)
(0.000713777 0.00121444 0)
(3.1588e-05 6.00342e-05 -7.1052e-22)
(0.000660655 0.00115958 7.13146e-22)
(0.000726008 0.00122028 -7.73414e-22)
(0.000646375 9.50283e-05 0)
(0.000726478 0.00122135 7.68926e-22)
(0.000264721 0.000321513 4.85792e-21)
(0.000487615 0.00070907 -2.12266e-21)
(0.00065355 0.00111801 2.3522e-21)
(0.000537395 0.00102231 -1.15495e-22)
(0.000513726 0.000987242 -7.17074e-22)
(6.00251e-05 5.19474e-05 -8.26734e-22)
(0.000522918 0.00101634 8.54007e-23)
(0.000570931 0.00102078 -7.81982e-22)
(0.000467306 0.000882583 2.26727e-21)
(2.89365e-05 5.35328e-05 7.28499e-22)
(8.94633e-05 0.00058756 -7.20624e-22)
(6.03983e-05 0.000139232 -1.85288e-21)
(0.000696152 0.00127241 -2.29251e-22)
(0.000722218 0.00122199 -7.30774e-22)
(6.72129e-05 1.71093e-05 -1.40903e-21)
(0.00017986 0.000581864 2.61463e-21)
(0.000621303 0.00112847 -1.76769e-21)
(2.65132e-05 4.76021e-05 -7.11639e-22)
(0.00071462 0.00121747 -5.63804e-22)
(0.000306336 0.000282501 2.53241e-21)
(2.19978e-05 4.04363e-05 1.02175e-21)
(0.000726162 0.00122073 7.427e-22)
(0.000724288 0.00121918 0)
(0.000722862 0.00122168 -5.69782e-22)
(2.22821e-05 3.66483e-05 -1.67388e-22)
(4.37716e-05 -8.27604e-06 3.52089e-22)
(0.000520089 0.000591781 -1.28319e-21)
(0.000722299 0.00121922 -6.54419e-22)
(0.00106452 -3.33003e-05 8.53807e-22)
(0.000432024 0.000786796 -1.56824e-21)
(0.000183231 0.000126397 -1.83049e-21)
(0.000170125 0.000118289 1.94358e-22)
(0.000970326 0.000139611 0)
(0.000716533 0.0008322 0)
(1.99131e-05 3.2532e-05 -3.3499e-22)
(0.000541638 0.00101131 -2.52644e-22)
(0.000641171 0.00110507 -1.30399e-23)
(0.00104425 5.0179e-05 -2.21556e-22)
(5.87674e-05 -3.71563e-06 0)
(5.71908e-05 0.000125961 1.33209e-21)
(0.000586923 0.000967616 -1.81528e-21)
(0.000195738 0.000581508 0)
(0.000584624 0.000979297 0)
(1.82447e-05 1.92016e-06 8.64131e-22)
(0.000532902 0.00048739 -2.82285e-21)
(0.000639383 0.00106546 9.37846e-22)
(0.000537498 0.000967636 -9.0715e-24)
(0.000376603 0.000508152 -1.17586e-24)
(0.000660304 0.00053107 -1.73587e-24)
(0.000219942 0.000464567 9.49133e-22)
(0.000107738 6.3043e-05 -9.71629e-26)
(0.000593125 0.00101545 2.27132e-23)
(0.00115917 0.00103677 2.93858e-21)
(0.00011952 4.04003e-05 3.37619e-21)
(0.000539444 0.00131406 4.85016e-24)
(3.46393e-05 0.00106177 5.5034e-24)
(2.78347e-06 -4.05879e-06 0)
(5.34086e-05 -2.78156e-06 -2.93084e-21)
(0.000454981 -0.00016026 -3.30776e-21)
(0.000730464 0.00121831 6.82846e-22)
(0.000822253 -0.000320234 0)
(0.000400938 0.000454417 1.77841e-21)
(0.000594157 0.00100972 0)
(0.000664562 0.00114932 0)
(0.000664607 0.00109954 3.68719e-22)
(0.000844336 0.000363874 -2.33254e-21)
(0.000316336 0.000795161 0)
(0.000124615 0.000186097 0)
(0.000641835 0.00115858 -2.1406e-21)
(8.70975e-05 2.64497e-05 -1.79397e-22)
(0.000128862 0.000952235 -2.03147e-21)
(0.000309149 0.00112094 -2.60934e-23)
(0.000576041 0.000987055 1.63554e-21)
(0.000721613 0.00122067 -7.77986e-22)
(7.95693e-05 -1.38317e-05 0)
(0.000594452 0.00101118 -3.7437e-21)
(0.000105381 6.22853e-05 1.61703e-21)
(0.000613764 0.00114649 -4.29713e-21)
(0.000551036 0.000987771 1.008e-21)
(0.000545274 0.000338104 2.28069e-21)
(0.00102796 -7.81939e-06 -2.94919e-21)
(0.000623037 0.00102579 -8.07464e-22)
(0.00108612 -1.76317e-05 8.34251e-22)
(0.000721438 0.00122275 7.13253e-22)
(0.000431589 0.000926265 1.63744e-21)
(4.91972e-05 0.000416605 2.68145e-21)
(0.000662811 0.00115941 -5.11569e-22)
(0.00111069 0.000655524 -1.35357e-21)
(0.000236935 0.000652771 1.11429e-21)
(0.000653779 0.000561832 2.61803e-21)
(0.000635345 0.00111154 0)
(0.000520615 0.00096668 -3.70642e-22)
(0.000754753 0.00123269 -2.50478e-23)
(0.000659295 0.00115103 3.58534e-22)
(0.000883825 0.000942745 4.47863e-21)
(0.000224378 0.000501751 0)
(0.000606251 0.00102071 0)
(0.000954735 1.07232e-06 -2.17095e-21)
(0.00024706 0.000134303 -2.63962e-21)
(0.000484593 0.000600247 -1.27929e-21)
(4.51222e-05 4.09845e-05 -7.90908e-23)
(4.47374e-05 0.000701165 2.41096e-21)
(0.000347336 0.000275033 2.12322e-21)
(4.48501e-05 -4.80984e-06 0)
(0.000128234 0.000512391 1.95007e-21)
(0.000118047 7.66491e-05 3.04361e-21)
(0.000376879 0.000964074 -1.81405e-23)
(0.000628906 0.00107149 -5.31758e-23)
(7.7541e-05 0.000455327 8.28254e-22)
(1.41526e-05 -1.5015e-06 -6.71433e-22)
(0.000373165 7.21865e-06 0)
(0.000580368 0.000968077 -4.46423e-22)
(0.000657901 0.00110112 -3.35671e-22)
(0.000578619 0.00102026 5.27101e-24)
(2.49877e-05 1.66171e-07 0)
(4.72106e-05 9.98353e-05 -1.22149e-21)
(0.00026231 0.000537232 3.68402e-21)
(0.00108148 0.000586696 -2.88904e-24)
(0.00054333 0.00073544 -3.07774e-21)
(0.000196743 0.000471644 0)
(0.00073882 0.00127998 3.56486e-22)
(0.000772242 0.000421954 0)
(0.000721769 0.00121127 0)
(0.000345998 0.00107218 4.76185e-23)
(0.000581578 0.00104588 -1.19593e-21)
(0.000955027 0.000140213 3.62341e-21)
(0.000545432 0.000949176 1.35131e-21)
(0.00016741 0.000258444 -3.13011e-22)
(0.00055269 0.000941621 -1.46281e-21)
(0.000571048 0.000976144 3.57424e-22)
(0.000445221 0.00100141 1.81345e-21)
(5.56509e-07 -1.83945e-06 -3.6993e-22)
(0.000627973 0.000234684 -8.92539e-22)
(0.000106084 0.000529441 6.0771e-22)
(6.92088e-05 -0.000195586 0)
(0.000551755 0.00109255 2.79335e-22)
(0.000109151 8.37227e-05 -3.80232e-21)
(0.000560334 0.000984209 2.33902e-22)
(4.27354e-05 8.89727e-05 -9.28634e-23)
(0.000622451 0.00112808 1.78242e-23)
(0.000794401 0.00125873 1.28795e-21)
(0.000297492 0.000594569 -1.80445e-21)
(0.000593614 0.00103592 1.56547e-23)
(0.000337748 0.000402149 3.9243e-21)
(-2.32473e-06 0.000448741 -8.5084e-22)
(0.000556424 0.000978387 -4.04954e-22)
(0.00010522 0.000100264 -1.84697e-21)
(0.000345657 5.22347e-05 -1.84996e-21)
(0.000536654 0.00103126 2.16413e-22)
(0.000505001 0.00082587 -3.50937e-21)
(0.000125159 0.000617068 0)
(0.000638596 0.00116626 5.34088e-22)
(0.000723002 0.00122178 0)
(0.000508365 0.00100707 8.63888e-23)
(5.0729e-05 4.5538e-05 0)
(0.000583902 0.000978425 0)
(9.46814e-05 3.36556e-05 0)
(0.000630151 0.000264405 0)
(0.000432206 0.000556849 3.25044e-23)
(0.000592563 0.00101486 0)
(0.000538693 0.000998316 0)
(7.9463e-05 0.000100954 3.08284e-21)
(0.000452039 -0.000259762 3.66916e-21)
(3.94959e-05 7.97847e-05 -1.46405e-21)
(0.000726784 0.00126856 -4.98342e-22)
(2.24194e-06 8.09446e-06 0)
(0.000921261 0.000128917 -3.40685e-21)
(0.000556682 0.00102828 0)
(0.000694615 0.000356066 2.18196e-21)
(0.000530388 0.000949257 0)
(0.000653928 0.00115043 1.78763e-21)
(0.00059872 0.000970242 1.94881e-21)
(0.000349483 0.000514673 -4.88695e-21)
(0.000746672 0.00121805 -2.84899e-21)
(0.000595937 0.00110434 -1.34374e-22)
(-0.000412143 0.000506922 -5.45856e-21)
(0.000616804 0.00105955 -1.11501e-21)
(0.000641752 0.00111061 2.50528e-21)
(0.000645653 0.00110544 -1.80619e-21)
(8.04856e-05 -0.000214768 6.60669e-22)
(0.000786378 0.000414798 -2.60492e-22)
(0.000576343 0.000986789 0)
(3.81325e-05 7.1047e-05 1.71555e-22)
(0.000300307 0.000290321 -6.03655e-21)
(0.000104763 0.000106356 2.89294e-24)
(0.000717982 0.00120922 7.49318e-22)
(0.000576526 0.00103724 0)
(0.000723784 -0.000251617 -1.84493e-21)
(0.000509913 0.000609581 1.20449e-21)
(0.000647905 0.00110467 3.67862e-21)
(0.000527281 0.00159395 -2.30552e-23)
(0.000599819 0.000147569 1.65105e-21)
(0.000635342 0.0010968 -2.5359e-21)
(0.000572276 0.00105808 -6.84947e-23)
(0.000547481 0.000962159 -1.51138e-22)
(0.000553148 0.000928104 1.60627e-21)
(3.32153e-05 6.3622e-05 -1.72668e-22)
(0.000635267 0.00111617 -8.72836e-24)
(0.000838492 0.000319256 1.69073e-21)
(0.000511889 0.000955331 4.45149e-22)
(0.000648481 0.00110268 0)
(0.000944864 8.28216e-05 -8.11358e-22)
(0.000156649 0.000425875 3.63176e-22)
(0.000839344 0.000571001 2.58267e-21)
(0.000159445 0.000247293 -1.2421e-21)
(4.20736e-05 0.000397248 -1.50011e-21)
(0.000887422 8.51532e-05 1.25033e-22)
(0.000968542 0.000170101 9.23555e-22)
(0.000647772 0.00110101 1.32399e-23)
(0.000643741 0.00110017 0)
(3.40792e-07 0.000811652 7.83661e-22)
(8.36183e-06 2.81772e-06 1.6016e-21)
(0.000659217 0.00119626 0)
(0.000596792 0.00101402 0)
(0.000983249 4.2062e-05 -1.77344e-21)
(7.54234e-05 2.05543e-05 -5.08926e-21)
(0.00019034 0.000237623 6.90735e-22)
(3.02374e-05 5.67079e-05 -4.5781e-23)
(0.000645776 0.00110063 -2.0046e-24)
(0.000583257 0.000945468 5.0157e-22)
(0.000604963 0.00103361 0)
(0.000614252 0.000905847 8.97316e-22)
(0.000504481 0.000968307 -4.53508e-22)
(0.000502062 0.00102088 7.75079e-23)
(0.000545346 0.000479681 -3.65838e-21)
(0.000660545 0.00110018 1.08389e-23)
(2.21353e-05 -1.47575e-06 -3.06062e-21)
(0.00064927 0.00110142 -3.02345e-21)
(0.000504736 0.000864777 -1.08435e-25)
(0.000583113 0.00101989 -1.95063e-22)
(0.000608755 0.00107107 1.76346e-21)
(0.000312828 0.000458926 -2.76974e-21)
(2.19891e-06 1.55193e-05 -1.0148e-22)
(0.000647728 0.00110168 1.0714e-21)
(0.000610641 0.000984814 1.50112e-21)
(2.7705e-05 5.04901e-05 7.40968e-22)
(0.000622728 0.00110865 -1.7047e-21)
(0.000602238 0.00104116 6.51983e-24)
(0.000928026 7.99604e-05 5.19035e-21)
(0.000645817 0.00110212 1.11832e-21)
(0.00057712 0.000986666 1.09971e-21)
(0.000525925 0.000973312 1.25248e-21)
(0.00136338 0.00039924 0)
(0.000524859 0.000961561 2.05097e-21)
(0.00215805 0.000440862 0)
(0.000838852 0.000709917 -2.29817e-21)
(0.000587865 0.00101575 5.30155e-22)
(0.000174634 0.000510105 -8.21958e-21)
(0.00137402 0.00129598 1.33795e-21)
(0.000465427 0.000836843 -4.37596e-21)
(0.000204701 0.000155978 3.71657e-21)
(0.000511382 6.38967e-05 0)
(0.000266619 0.000692356 7.26317e-24)
(4.17709e-05 0.000369005 0)
(0.000716288 0.00120783 -1.55855e-21)
(1.57921e-06 -1.46887e-05 1.50373e-21)
(2.53825e-05 4.59449e-05 3.65319e-22)
(0.000568542 0.00102562 3.08345e-22)
(0.000691866 0.00131917 1.20537e-22)
(0.000509392 0.000819545 -1.74439e-21)
(0.000568309 0.000978644 1.25094e-21)
(0.00101302 -0.000130957 -4.22559e-22)
(0.000741064 0.00121994 0)
(0.000672696 0.000869237 3.04186e-21)
(0.00103385 6.92583e-05 1.24469e-21)
(1.69486e-06 -9.29816e-06 -8.79038e-22)
(4.89323e-05 -5.05381e-06 -3.03894e-21)
(0.000533442 0.000977328 0)
(0.000647515 0.00116349 1.04297e-21)
(0.000635392 0.00119753 -7.71237e-24)
(0.000308208 0.000222984 2.10488e-21)
(0.000131074 0.000661809 -4.44961e-22)
(2.39196e-05 3.85033e-05 0)
(0.000884222 0.000116486 -8.60142e-22)
(0.000587543 0.000302239 -2.50894e-21)
(0.000640091 0.00110052 -1.82276e-21)
(0.000654846 0.00109851 -9.62012e-22)
(0.000622327 0.00112778 1.7332e-21)
(0.000602289 0.00108479 -1.34134e-23)
(0.000583106 0.00097791 -4.01591e-22)
(0.000762256 0.00126699 2.21906e-21)
(0.000619869 0.00103204 2.34292e-22)
(0.000478709 0.000889546 0)
(0.000651413 0.00108145 0)
(0.000604289 0.00111991 0)
(0.00026415 0.000380757 0)
(0.000552435 0.000992826 -6.95388e-22)
(0.000767854 0.000122946 -1.48573e-24)
(0.000177631 0.000527872 3.57104e-21)
(0.000478757 0.000185152 6.74969e-25)
(0.000268836 0.000516943 1.06449e-21)
(0.00045946 0.000906272 9.79163e-25)
(0.000564335 -2.73281e-05 4.94387e-21)
(0.000645371 0.00116235 -2.95841e-22)
(0.000577088 0.00104302 1.20216e-21)
(0.000544564 0.000475545 2.49204e-21)
(0.000605128 0.00105856 0)
(0.000191794 0.000583263 0)
(0.000721852 0.00122057 -1.36812e-21)
(0.000416413 0.0004805 -3.54886e-21)
(0.00105141 -0.000117143 -4.08475e-22)
(0.000454245 -0.000397273 -3.22875e-24)
(0.000621623 0.00108488 0)
(2.35764e-05 1.78263e-06 -6.66987e-22)
(0.000128189 0.000501661 9.93524e-22)
(0.000575296 0.000987049 1.51019e-21)
(0.00076133 0.00126576 0)
(0.000278682 0.00124021 -4.60909e-23)
(0.000226 0.000255811 9.90236e-22)
(0.000421354 0.00112914 -1.21105e-21)
(0.00107177 -6.99776e-06 8.39236e-22)
(0.000403737 0.000581024 0)
(0.000644174 0.00115977 3.0608e-22)
(0.000758669 0.00126456 0)
(0.000765595 0.0012662 2.14204e-21)
(0.000525483 0.000954345 2.22555e-21)
(0.000284804 0.000523397 1.75337e-21)
(0.000576967 2.67235e-06 6.12201e-21)
(0.000631196 0.0010988 2.22328e-21)
(1.46578e-06 -2.23248e-05 -1.19285e-23)
(0.000231497 0.000692122 0)
(0.000284212 0.000306076 1.89635e-21)
(0.000769855 0.00126498 -2.03914e-21)
(3.84429e-06 2.70482e-05 -3.21487e-21)
(0.000180464 0.000614163 -4.72869e-25)
(0.000713648 0.00120694 -2.41735e-21)
(0.000273318 0.0012014 0)
(0.000716904 0.00121908 -1.81796e-21)
(0.000588832 0.00101773 8.64358e-22)
(0.000574935 0.0010327 7.84293e-24)
(0.000559924 0.000979241 2.36e-22)
(0.000553596 0.000397754 1.4461e-21)
(0.000414526 0.00084842 -1.41216e-21)
(0.00034727 0.000261052 -5.30014e-21)
(0.000626037 0.00110367 3.70926e-21)
(1.43571e-06 -2.67497e-05 -1.5058e-21)
(0.000561847 0.000980882 1.3705e-22)
(0.000751963 0.000573646 -3.58251e-21)
(0.000660602 0.00114388 -6.09671e-24)
(0.000582637 0.00100325 -3.8965e-22)
(0.00060328 0.00102288 5.30263e-22)
(1.52714e-06 -1.83659e-05 0)
(0.000750412 0.00122906 5.96079e-22)
(0.000516094 0.000974543 5.8346e-22)
(0.00101626 0.000139 -3.54684e-21)
(0.000558345 0.000128719 -4.11592e-23)
(0.000656435 0.00116214 0)
(0.000221495 0.00092592 -2.46726e-23)
(0.000588393 0.00100993 9.00229e-22)
(0.00053546 0.000983488 0)
(0.00059263 0.0010132 1.80522e-21)
(0.000759186 0.00126291 -2.21067e-21)
(6.04701e-05 -3.94833e-07 -2.77306e-21)
(0.000142941 0.000386244 -2.43105e-21)
(0.000539437 0.00139472 2.68129e-23)
(9.50547e-06 4.28718e-05 -1.76128e-21)
(0.000365465 0.000223681 1.37268e-25)
(0.000736245 0.00127083 4.90553e-22)
(1.67614e-06 -1.11852e-05 1.2647e-21)
(0.000723394 0.00122126 0)
(0.000143259 0.000666946 0)
(1.57783e-06 -3.40039e-05 3.07427e-21)
(0.00105655 7.65346e-05 -3.8451e-22)
(0.00012321 0.000647776 2.5067e-23)
(0.000631282 0.00102753 -1.31129e-23)
(0.000386813 0.000137738 1.6958e-21)
(0.000771228 0.000818767 0)
(0.000643096 0.00115471 0)
(0.000567635 0.000973366 0)
(0.000660809 0.00114455 1.06897e-23)
(0.000423213 0.000702804 1.19128e-21)
(0.000758487 0.00126054 2.00184e-23)
(5.45767e-05 -3.06127e-07 0)
(0.000633619 0.00111374 0)
(0.000738811 0.00121861 1.00028e-21)
(0.000513481 0.00130818 -9.12369e-23)
(0.000409145 0.000883821 -3.50505e-21)
(0.000575761 0.0010237 -4.40619e-22)
(1.87379e-06 -4.26701e-05 1.55222e-21)
(0.000524436 0.000970445 8.03296e-22)
(0.000562288 0.00103104 0)
(0.0008176 0.000140177 -2.85556e-21)
(0.000330907 0.000642038 3.11069e-21)
(0.000608028 0.00101216 -7.48668e-22)
(0.000585817 0.00101957 -2.24496e-22)
(7.84564e-05 7.02601e-05 -1.54151e-21)
(0.000400316 0.000140195 0)
(0.000379428 0.00107687 -3.05029e-21)
(-0.000192139 0.00111843 -4.42591e-21)
(0.000301695 0.000484893 2.82226e-21)
(0.000574226 0.00103675 1.63189e-21)
(0.000658772 0.00114514 -2.01912e-21)
(0.000525967 0.000948104 -4.67462e-22)
(2.02656e-06 -5.29564e-05 -3.09098e-21)
(2.74905e-05 0.000375886 0)
(0.000641727 0.00118113 0)
(0.000507883 0.000815406 -1.81009e-23)
(6.50568e-05 5.40277e-05 -6.1643e-23)
(0.000713434 0.00120639 -8.34921e-22)
(0.000627195 0.00110419 -2.49761e-21)
(0.000220224 0.000499368 0)
(1.6983e-05 0.000335167 0)
(2.33822e-06 -6.11472e-05 1.22732e-23)
(0.000845834 0.001347 -2.36637e-21)
(7.4742e-05 6.76303e-05 0)
(0.000183906 9.45834e-05 7.38027e-22)
(0.000992397 9.48738e-05 0)
(0.000158532 0.000277577 -4.00141e-21)
(0.000604606 0.00101859 -9.99014e-22)
(0.000721915 0.00122046 -4.80775e-22)
(7.2566e-05 6.59908e-05 0)
(0.00060393 0.00102685 -1.14956e-21)
(0.000263018 0.000416806 0)
(0.000173942 0.000589115 1.80345e-21)
(2.74095e-06 -7.03795e-05 1.56611e-21)
(0.000485117 0.000855163 2.55455e-21)
(0.000715151 0.0012782 2.26951e-21)
(0.00033201 4.68145e-05 -1.61724e-25)
(0.000397588 -0.000537366 0)
(0.000646595 0.00110677 0)
(0.000675715 0.00115124 1.15763e-21)
(0.000112306 0.000390075 0)
(0.000589616 0.00101948 -1.13571e-21)
(9.01098e-05 0.000389487 1.6766e-21)
(0.000610355 0.00117558 -2.105e-22)
(0.000716553 0.00121563 -6.23402e-22)
(0.00063223 0.00113061 -1.3566e-22)
(0.000562907 0.000975735 -1.14088e-21)
(0.000580022 0.001035 3.7538e-21)
(0.000597058 0.00066337 2.58542e-21)
(3.38067e-06 -8.69836e-05 0)
(0.000738876 0.00126686 -3.3296e-21)
(0.000546203 0.000596264 2.56734e-21)
(0.000522645 0.000982284 -7.45632e-22)
(9.92341e-05 0.000415306 1.13326e-22)
(0.000582186 0.000977293 -1.58028e-21)
(0.000380334 0.000326558 0)
(0.000592541 0.00109148 2.14556e-22)
(0.000674472 0.00108646 -1.41075e-22)
(7.53016e-05 5.46961e-05 -9.51083e-22)
(0.000521118 0.000942132 -9.79048e-22)
(0.000559444 0.000978745 2.14915e-21)
(0.000622181 0.00112702 1.72688e-21)
(0.00037954 0.000428021 0)
(0.000646838 0.00116177 2.37519e-21)
(2.36928e-05 -2.25987e-06 -1.02827e-22)
(0.00065731 0.00109852 0)
(0.00021834 0.000266993 -1.55451e-25)
(0.000722964 0.00129418 0)
(0.000748617 0.00125826 1.6452e-21)
(0.000626896 0.00107081 1.03146e-21)
(0.000242567 0.000419884 -3.33489e-21)
(0.000574259 0.000987409 -8.71947e-24)
(3.19526e-05 -0.000158629 -1.563e-21)
(0.000542743 0.000508577 1.52435e-21)
(0.000512849 0.000895443 1.23623e-23)
(0.000144586 0.00039367 1.69196e-21)
(0.000626935 0.00102252 4.20198e-22)
(0.000269316 0.000386889 -3.4943e-21)
(2.22143e-05 -0.000116965 3.09268e-21)
(0.0014439 7.0665e-05 5.11196e-22)
(0.000723735 0.00129108 -1.10751e-23)
(2.65203e-05 -0.000135858 0)
(0.000345468 0.000479607 -1.80327e-21)
(0.000983086 0.000420672 2.44879e-22)
(0.000578297 0.000879713 -2.59774e-21)
(0.00120874 0.000373227 -1.02647e-21)
(0.000471752 0.00113416 1.59091e-21)
(0.000601979 0.00107266 -9.41421e-22)
(0.000573224 0.00098681 -3.1799e-23)
(0.000566194 0.000968314 -2.02895e-21)