/*--------------------------------*- C++ -*----------------------------------*\
  =========                 |
  \\      /  F ield         | OpenFOAM: The Open Source CFD Toolbox
   \\    /   O peration     | Website:  https://openfoam.org
    \\  /    A nd           | Version:  8
     \\/     M anipulation  |
\*---------------------------------------------------------------------------*/
FoamFile
{
    version     2.0;
    format      ascii;
    class       volVectorField;
    location    "1.8";
    object      U;
}
// * * * * * * * * * * * * * * * * * * * * * * * * * * * * * * * * * * * * * //

dimensions      [0 1 -1 0 0 0 0];

internalField   nonuniform List<vector> 
1642
(
(5.03588e-06 -5.73841e-06 1.18624e-26)
(0.00187571 0.00518964 1.20838e-20)
(0.00279826 0.00455931 7.422e-21)
(0.00223027 0.00441602 3.85076e-20)
(0.000904316 1.69439e-05 1.7371e-21)
(0.000729956 0.000127023 4.43079e-20)
(0.00113286 0.00016191 1.08246e-20)
(0.00110265 0.000260999 -1.463e-23)
(0.000675223 0.000479299 1.0525e-20)
(0.00082227 0.000262942 2.80154e-20)
(0.00225576 0.00306571 -2.10434e-20)
(0.000349424 0.000931965 -2.2699e-20)
(0.000792613 0.000426567 2.75261e-20)
(0.000870159 0.00021527 -1.87946e-20)
(0.000471795 0.00038949 0)
(0.000650572 0.000444618 0)
(1.87987e-05 0.000249007 -1.4777e-20)
(-2.78918e-06 0.0002085 2.44819e-20)
(1.52707e-05 1.87189e-05 1.13081e-24)
(2.71256e-05 1.18602e-05 5.05818e-21)
(0.000879776 9.57651e-05 -7.17968e-21)
(0.00101743 0.000257769 8.23824e-21)
(0.000782871 0.000242237 0)
(0.00263288 9.68477e-05 -2.48041e-20)
(0.000341229 0.000232579 -4.08824e-20)
(7.8521e-06 0.000496755 -5.2439e-21)
(0.000787218 -0.000137018 1.60947e-20)
(3.40834e-05 0.000214306 0)
(0.00371459 0.00386213 7.69965e-22)
(0.00383229 0.00398148 2.97283e-22)
(0.00402613 0.00417627 -4.00503e-22)
(0.00106748 8.82316e-05 -1.25073e-20)
(0.000392349 0.00129006 0)
(4.09666e-05 -4.72069e-05 -5.34618e-21)
(0.00034974 0.000221044 1.24307e-20)
(0.000363283 0.000421733 -2.32991e-21)
(0.000917173 0.000319487 -4.07198e-20)
(0.000935299 2.39154e-05 3.89134e-22)
(0.000411172 0.00034572 -2.32944e-24)
(0.000897023 0.000225805 -1.23144e-20)
(0.000730737 0.000230127 0)
(1.95041e-05 4.52589e-05 -2.87755e-21)
(3.44903e-05 8.93243e-06 0)
(0.000675041 0.0044844 -2.61625e-20)
(-0.000975732 7.92001e-05 -2.40061e-21)
(0.000728621 4.13549e-05 -2.69859e-21)
(0.000853617 1.47047e-05 8.05041e-22)
(0.00048431 0.000120953 -5.5952e-21)
(0.000360533 0.000119066 -1.57477e-20)
(0.000674809 0.000361737 -2.41248e-20)
(3.45029e-05 8.56942e-05 -5.92015e-21)
(0.000737647 0.000444816 -7.69064e-21)
(1.62549e-05 -6.6711e-06 4.19632e-21)
(0.000206619 0.00469925 0)
(0.00264878 0.00370103 -1.8847e-20)
(0.000556537 0.000482139 1.21447e-21)
(0.00112682 0.000186375 -5.46081e-21)
(0.000198177 1.142e-05 -8.15283e-21)
(0.0012078 0.000460516 -3.28609e-20)
(0.000367235 -0.000345564 0)
(0.000254203 0.000146524 0)
(0.000925865 5.26796e-05 -1.53268e-21)
(8.92375e-05 -8.18269e-05 4.49566e-21)
(0.001491 0.000163142 -2.3047e-20)
(7.17499e-05 0.000427676 1.88587e-20)
(5.5718e-05 9.45657e-06 1.40158e-21)
(0.000111019 0.000123837 0)
(4.94427e-05 1.80721e-05 -5.70388e-21)
(0.000411729 0.000532746 6.33632e-21)
(5.37134e-06 6.37493e-05 -5.32326e-21)
(0.000321152 0.000101902 -1.51919e-20)
(8.19908e-05 0.000279476 -1.67566e-20)
(0.000245172 7.01004e-05 2.0151e-20)
(0.000836797 2.86438e-05 1.57235e-21)
(0.000484581 0.000632666 9.94155e-21)
(0.00135358 0.00148869 -2.58666e-21)
(0.00378759 0.00392611 1.70448e-24)
(0.00357143 0.0037372 0)
(0.0034303 0.00361105 -3.97183e-22)
(0.000421603 0.000175546 7.14943e-21)
(5.82446e-05 -1.43986e-07 2.87223e-21)
(3.43088e-05 2.07177e-05 1.98166e-20)
(0.00111104 0.000344351 -2.11415e-20)
(0.000925562 0.000481641 1.31772e-20)
(-0.00178123 0.000323286 0)
(0.000341522 0.000579642 -4.77536e-21)
(0.000399917 0.000547145 -1.82853e-20)
(1.14979e-05 -9.43218e-05 0)
(0.00055118 0.000582708 4.66949e-21)
(3.41436e-05 -3.33364e-05 -2.15697e-21)
(0.00108668 0.000123475 -8.57171e-21)
(0.000120498 0.000320045 3.46998e-20)
(0.000754712 0.000555723 -2.18699e-20)
(0.000445662 0.000447398 -9.48216e-21)
(0.000526016 0.000409029 -3.74317e-20)
(8.29956e-05 -0.000168637 -1.25255e-21)
(0.000798376 0.000151472 -3.0371e-20)
(0.000560295 0.000337567 3.21728e-20)
(0.000348423 0.000310021 1.8976e-20)
(0.000450742 0.00053763 -1.26138e-20)
(0.000399359 0.000584856 2.34796e-20)
(0.00051784 0.000780003 0)
(3.52847e-05 -0.000224001 1.05016e-20)
(0.00406838 0.0041403 -1.66061e-22)
(0.00386196 0.00393638 2.41263e-20)
(0.00374494 0.00381718 6.58358e-21)
(0.00402767 0.00365831 2.59119e-20)
(0.00390174 0.00355135 2.67815e-22)
(0.00424665 0.00381413 5.0132e-21)
(0.00404288 0.00364177 -1.52124e-22)
(0.00402373 0.00366311 8.03062e-21)
(0.0039251 0.00352044 -1.0138e-20)
(0.0042269 0.00385316 0)
(0.00425554 0.00381399 9.04127e-21)
(0.00405118 0.00363021 2.483e-21)
(0.00404758 0.00363258 5.44911e-21)
(0.00425112 0.00381545 -1.78438e-21)
(0.00390489 0.00356173 0)
(0.00406082 0.00354592 0)
(0.00389829 0.00352793 1.12952e-20)
(0.00392165 0.0035241 -1.60076e-21)
(0.00406886 0.00310706 -3.24635e-20)
(0.00426 0.00377119 0)
(0.000398589 0.00065177 4.63364e-21)
(0.000451238 0.0006076 0)
(0.000318849 -8.63445e-05 3.01901e-21)
(0.000949475 0.000259335 1.75016e-20)
(8.55529e-06 -6.62293e-05 0)
(0.000546345 0.000274776 5.92596e-21)
(0.000591089 0.000324757 -1.74625e-20)
(0.000408164 3.43544e-05 0)
(0.000220107 -9.96418e-05 -2.94679e-21)
(2.33866e-05 -4.22101e-05 -1.26421e-21)
(0.000824429 0.000191322 1.08544e-20)
(5.75975e-05 -1.02456e-05 2.23477e-26)
(3.26195e-05 -5.90665e-05 1.32453e-21)
(0.000607431 0.00028629 -3.26616e-21)
(0.000328515 -2.30314e-06 3.24513e-21)
(0.000585762 0.000245923 0)
(0.000581632 0.000217916 0)
(3.7017e-05 0.000384788 1.01007e-20)
(5.80249e-05 2.03208e-05 -1.9045e-21)
(9.65957e-05 7.65682e-05 0)
(0.000314514 5.6607e-05 1.37415e-20)
(0.000544015 0.000462454 4.74957e-20)
(6.3909e-05 0.000214255 1.77924e-20)
(0.000718463 0.000132169 0)
(4.98935e-05 0.000129945 2.45226e-20)
(0.00070674 0.000196141 -3.11126e-21)
(0.000684129 0.00018896 5.13387e-20)
(0.000282802 0.000190112 2.06023e-20)
(0.000850509 4.49247e-05 4.66693e-21)
(6.65858e-05 -1.50618e-05 -2.69389e-21)
(0.000313962 0.000234879 0)
(0.00109256 -0.0001301 1.48731e-20)
(0.000759283 0.000170871 0)
(0.000812839 0.000170941 -2.5524e-21)
(4.35162e-06 2.30337e-05 -1.69399e-20)
(6.89219e-06 -4.64543e-05 -8.03835e-23)
(-1.57219e-05 0.000296023 0)
(9.06223e-05 7.09072e-05 4.64378e-20)
(6.65883e-05 5.07759e-05 -4.93942e-21)
(0.000143053 -3.91597e-05 1.33978e-21)
(0.000841033 0.0003665 0)
(5.82102e-06 -3.09901e-05 0)
(0.000843098 6.7403e-05 0)
(0.000809201 0.000109903 0)
(5.30382e-05 -2.01399e-05 -2.97951e-21)
(0.00087451 3.26655e-07 -6.77725e-21)
(2.42041e-05 -0.000197033 -2.48722e-21)
(-2.36679e-05 0.000303865 -2.50193e-20)
(-4.86072e-06 0.000177136 -2.16302e-20)
(4.81992e-06 4.92683e-05 5.24439e-21)
(2.72516e-07 0.000149284 2.19716e-20)
(0.000661216 -7.12278e-06 -7.94262e-21)
(2.33277e-05 -0.000122325 2.3747e-21)
(0.000764393 0.000240809 1.2612e-20)
(0.00035746 0.000150261 1.84955e-20)
(0.000605541 0.000227992 0)
(0.000548762 0.000542996 -4.78842e-21)
(0.000956787 0.000393226 1.10229e-20)
(4.03121e-05 2.02142e-05 1.77272e-20)
(0.000788517 0.000700138 4.76358e-21)
(3.07939e-06 3.28986e-05 8.48287e-21)
(2.63265e-06 0.000123787 0)
(0.00054059 0.000310255 1.30482e-20)
(0.00061251 0.000105625 1.16023e-21)
(4.95312e-05 -9.5265e-06 -1.1774e-20)
(0.000200598 -0.000186412 1.60302e-21)
(0.000912312 0.00032215 -4.08465e-24)
(0.000489261 0.000498501 -6.7308e-25)
(0.000361684 0.000127459 -1.50463e-20)
(4.91973e-05 3.1269e-05 2.2563e-21)
(0.00029525 0.000280615 -9.92765e-21)
(0.000187643 -8.24254e-05 -2.83044e-21)
(0.000714141 -3.76968e-05 -3.6962e-24)
(0.000395446 0.000627397 -1.11982e-21)
(5.07431e-05 -2.09635e-06 9.35041e-21)
(0.000297609 0.000439014 -2.35473e-20)
(0.000605548 0.000206463 4.01294e-20)
(6.39339e-05 1.08171e-05 -5.35264e-21)
(8.02921e-05 -1.13102e-07 -3.35473e-22)
(0.000520386 0.00065177 -4.87448e-21)
(0.000639661 0.000433507 1.45805e-20)
(0.00101723 0.000133199 0)
(4.12486e-05 8.10282e-06 1.48226e-20)
(0.000397497 0.000222963 -1.11659e-20)
(0.00422636 0.00385395 -2.41325e-20)
(0.00392695 0.00351966 -1.07005e-20)
(0.00405158 0.0036325 -9.89912e-21)
(0.00425295 0.00383921 -1.50786e-20)
(0.00423901 0.00385863 0)
(0.00311321 0.00323942 5.95285e-21)
(0.00311011 0.00323907 -2.91428e-23)
(0.00392723 0.00352032 -1.08984e-20)
(0.00423073 0.00385502 8.46159e-21)
(0.00403225 0.00366617 -1.21341e-20)
(0.00423139 0.00385377 -8.24229e-21)
(0.004052 0.00363324 1.01135e-20)
(0.00309973 0.00324003 0)
(0.00422678 0.0038532 0)
(0.00308256 0.00324962 -4.86408e-21)
(0.00423218 0.00385731 -7.40839e-21)
(0.00392944 0.00351941 -6.82344e-21)
(0.00422635 0.00385334 -1.95644e-20)
(0.00392109 0.00352905 0)
(0.00284809 0.00301627 -4.94208e-21)
(0.0042579 0.00384938 -4.07737e-20)
(0.00311269 0.00321766 2.17505e-20)
(0.00293067 0.00310858 -9.36554e-21)
(0.00311115 0.00323682 -1.69917e-20)
(0.00294897 0.00309148 -1.23777e-20)
(0.00311162 0.00323915 1.40426e-20)
(0.00309783 0.00323589 -1.52309e-20)
(0.00311438 0.00323905 -1.38598e-22)
(0.0030991 0.0032475 1.13156e-20)
(0.00294824 0.00309905 1.77601e-20)
(0.00310658 0.00323834 2.91829e-20)
(0.00423287 0.0038566 -9.17695e-21)
(0.00404398 0.00364872 -4.52959e-21)
(0.00428211 0.00383909 3.08845e-20)
(0.00403009 0.00366519 -1.61032e-22)
(0.00423164 0.00385097 8.59805e-21)
(0.00437419 0.00383864 -2.14046e-20)
(0.00425248 0.0038359 4.52757e-21)
(0.00403845 0.00363807 1.72115e-21)
(0.00311117 0.00324166 8.92583e-21)
(0.00312897 0.00326772 -2.09538e-20)
(0.00389948 0.00355769 0)
(0.00424145 0.00382096 -1.69486e-21)
(0.00309327 0.00325341 3.53682e-21)
(0.00423191 0.00385996 -1.53844e-20)
(0.00392159 0.00356034 0)
(0.00409007 0.00363114 9.99631e-21)
(0.00425542 0.00381315 2.52988e-21)
(0.0040518 0.00363167 2.58884e-21)
(0.00392646 0.00352534 -3.00945e-21)
(0.00409429 0.00383019 2.1956e-20)
(0.00389952 0.00355405 1.3675e-20)
(0.00405163 0.00363042 -2.57165e-21)
(0.0038963 0.00355908 0)
(0.00402144 0.00371315 0)
(0.00400535 0.00373512 -1.85125e-20)
(0.00294689 0.0031005 3.59251e-21)
(0.00294949 0.00310531 -2.02467e-20)
(0.00403484 0.0036953 9.04884e-21)
(0.00391721 0.00353072 0)
(0.00402646 0.00366713 -1.45115e-20)
(0.00319323 0.00333206 -1.97092e-22)
(0.004029 0.00367494 8.43825e-21)
(0.00310628 0.00324025 -9.27207e-21)
(0.00425567 0.00381446 -2.54595e-21)
(0.00285192 0.00302032 6.06872e-21)
(0.00389634 0.00356069 9.1355e-21)
(0.00422931 0.00385348 9.83967e-21)
(0.00403412 0.00356195 0)
(0.00296525 0.00307955 -3.44956e-20)
(0.00402666 0.0036682 1.58918e-20)
(0.00422635 0.00385784 7.87627e-21)
(0.00294791 0.00308198 1.70161e-22)
(0.00308593 0.00325686 -9.19647e-21)
(0.00293349 0.00309402 2.97831e-21)
(0.00309802 0.00322931 -7.84615e-21)
(0.00328336 0.00332017 -2.22126e-20)
(0.00424917 0.00381186 -2.91403e-21)
(0.00404898 0.0036366 0)
(0.00295276 0.00308778 6.4023e-21)
(0.00389865 0.00355556 0)
(0.00294005 0.00310748 -3.37726e-21)
(0.00287074 0.00299167 2.18478e-20)
(0.00425371 0.00381679 0)
(0.00392355 0.00353469 8.83623e-21)
(0.00390104 0.00355113 8.33127e-21)
(0.00425394 0.0038342 8.39935e-21)
(0.00307827 0.00324893 2.93076e-21)
(0.00296511 0.0030828 0)
(0.0030692 0.00326176 7.13858e-21)
(0.00296455 0.00308603 2.35968e-20)
(0.00307243 0.00312407 0)
(0.00402653 0.00367551 1.52316e-20)
(0.00391787 0.00352895 5.07374e-21)
(0.00308104 0.00324129 -2.06541e-21)
(0.00404904 0.00363714 -4.58054e-21)
(0.00285745 0.00301232 7.3317e-21)
(0.00293602 0.00308729 -6.13118e-21)
(0.00389996 0.00355363 -1.33955e-20)
(0.00288141 0.00305979 0)
(0.0028516 0.00299315 -1.76601e-20)
(0.00308523 0.0032559 2.04488e-21)
(0.00425347 0.00381908 -4.50525e-21)
(0.00294007 0.00309996 2.07945e-21)
(0.00293586 0.00310721 0)
(0.00311888 0.00323294 9.57926e-21)
(0.00325143 0.00338678 0)
(0.00296096 0.00308088 -2.4786e-20)
(0.0030843 0.00326695 -3.32453e-21)
(0.00284633 0.00301084 4.17653e-25)
(0.00284813 0.0030104 -1.00954e-20)
(0.00392386 0.0035239 -1.0028e-20)
(0.00424072 0.00382866 -2.28387e-21)
(0.00339376 0.00357703 -1.1526e-20)
(0.00309896 0.0032169 -5.45201e-21)
(0.00291052 0.00309068 0)
(0.00287368 0.00297989 1.95587e-20)
(0.0042909 0.00365537 -2.17078e-20)
(0.00449415 0.00418559 1.1227e-20)
(0.00294698 0.00308936 0)
(0.00410856 0.00367322 9.47287e-21)
(0.00303248 0.00320628 6.6312e-22)
(0.00389871 0.0035614 0)
(0.00310802 0.00323847 -1.74128e-20)
(0.00288133 0.00299004 -3.69733e-20)
(0.00391744 0.00352228 -2.04082e-21)
(0.00404932 0.00364075 8.82833e-21)
(0.00422678 0.00385334 6.45941e-21)
(0.00425475 0.00381764 6.26043e-21)
(0.00285944 0.00301083 -2.21786e-21)
(0.00285614 0.00301727 3.8789e-21)
(0.00285024 0.00298815 0)
(0.00285332 0.00300715 4.58187e-21)
(0.00392653 0.00352891 0)
(0.00402315 0.0036785 -6.39055e-24)
(0.00393011 0.00355436 0)
(0.00295979 0.00307133 1.81094e-20)
(0.00425375 0.00382201 8.68489e-21)
(0.00288216 0.00300199 0)
(0.00341207 0.0034767 1.16204e-20)
(0.0033291 0.00347143 -3.37987e-20)
(0.00309323 0.00325231 0)
(0.00308395 0.00326591 0)
(0.00296028 0.00307878 -8.0931e-21)
(0.00288147 0.00299098 -9.91877e-21)
(0.00391805 0.0035312 4.66947e-21)
(0.0040543 0.00384963 0)
(0.00405022 0.00363713 6.35784e-21)
(0.00422834 0.00383452 8.79991e-22)
(0.00293957 0.00310832 0)
(0.00402667 0.0036435 -3.04005e-21)
(0.0033665 0.00352185 7.63129e-23)
(0.00404314 0.00365266 7.97527e-21)
(0.00286572 0.00298815 -5.87392e-21)
(0.00295482 0.00308221 1.07284e-20)
(0.00425212 0.00385023 1.02275e-20)
(0.00403764 0.00367475 1.70903e-22)
(0.00404199 0.00366681 -5.2499e-21)
(0.00293714 0.00309394 4.24122e-21)
(0.00391125 0.00356021 6.04956e-21)
(0.0031076 0.0032263 1.61048e-20)
(0.00391789 0.00355414 -1.15856e-20)
(0.00447944 0.00450923 0)
(0.00280087 0.00295888 -1.27204e-21)
(0.00286623 0.00298609 -7.63594e-21)
(0.0040272 0.00367452 -7.54729e-21)
(0.00404534 0.00365666 1.09691e-20)
(0.00293979 0.00308051 0)
(0.00457901 0.00398036 -2.20484e-20)
(0.00390547 0.00356178 -1.52083e-20)
(0.00311309 0.00323191 1.89263e-20)
(0.00287141 0.00298963 -9.6933e-21)
(0.00402767 0.00367616 1.7239e-20)
(0.00286711 0.00298277 0)
(0.0028708 0.00298865 1.63681e-20)
(0.00284993 0.00302024 1.34904e-20)
(0.00294866 0.00307004 0)
(0.00404644 0.00365751 7.82806e-21)
(0.00424975 0.00382931 -1.42895e-20)
(0.00422381 0.00385409 -5.85475e-21)
(0.00424502 0.00381564 1.73641e-21)
(0.00422613 0.003854 1.2488e-20)
(0.00422407 0.0038654 -1.62237e-20)
(0.00311043 0.00322978 0)
(0.00287015 0.00299725 -2.21663e-20)
(0.00285987 0.00297695 5.95835e-21)
(0.00404254 0.00363333 -1.76127e-21)
(0.00295661 0.00308737 -2.88529e-20)
(0.00291648 0.00309093 2.31692e-21)
(0.00292407 0.00304309 -1.15939e-20)
(0.00308279 0.00324372 -9.02452e-21)
(0.0040236 0.00367005 6.65936e-21)
(0.00425131 0.00383075 3.7287e-21)
(0.00287259 0.00299151 -1.02525e-20)
(0.00389958 0.00355494 0)
(0.00390095 0.00355248 5.04803e-20)
(0.00391747 0.00351891 3.60185e-21)
(0.00307085 0.00327296 -2.55169e-21)
(0.00284989 0.00300775 -3.00475e-21)
(0.00285024 0.0030212 3.15877e-21)
(0.00310995 0.00323821 3.42051e-20)
(0.00389701 0.00355881 1.83698e-20)
(0.00309369 0.00325573 7.20329e-21)
(0.00295852 0.00308623 7.28872e-21)
(0.00310435 0.00323194 -3.35564e-20)
(0.00288067 0.00298806 9.4145e-21)
(0.00391897 0.00353288 3.62566e-21)
(0.00288146 0.00299077 3.12907e-20)
(0.00389896 0.00355667 -2.08496e-20)
(0.00299462 0.00306134 -8.98892e-21)
(0.00307993 0.00325266 0)
(0.00287975 0.00299433 3.19522e-20)
(0.00403278 0.00366553 -6.45431e-21)
(0.00293174 0.00309902 0)
(0.00286647 0.00299168 -6.93485e-21)
(0.00293156 0.00311286 4.63319e-24)
(0.00391614 0.00351782 0)
(0.00393078 0.00352146 -3.15722e-21)
(0.00306199 0.00324921 5.73903e-21)
(0.00422845 0.00385474 7.16536e-21)
(0.00392386 0.00352494 -6.01488e-21)
(0.00402745 0.00367222 7.39806e-21)
(0.00284431 0.00300714 -9.70946e-21)
(0.00389847 0.00355945 -1.73172e-20)
(0.00402965 0.00368566 -3.51136e-20)
(0.00402531 0.00368029 1.75046e-20)
(0.00293734 0.0030872 3.79662e-21)
(0.00308105 0.00325208 0)
(0.00389678 0.00355501 -3.15654e-20)
(0.00297553 0.00314052 0)
(0.00285895 0.00298963 7.69306e-21)
(0.00424163 0.00384827 9.93981e-21)
(0.00283916 0.00301375 5.41541e-21)
(0.00296302 0.0030833 7.59004e-21)
(0.00314733 0.00329284 1.05358e-20)
(0.00310633 0.00323807 1.39661e-22)
(0.00284619 0.00300736 -9.13831e-21)
(0.00284122 0.00302065 -6.51755e-21)
(0.00294007 0.00309958 -7.98744e-21)
(0.0042555 0.00381927 -2.93637e-21)
(0.00293704 0.00309459 4.4933e-21)
(0.00298748 0.00305125 -9.09868e-21)
(0.00405154 0.00363689 -2.98498e-21)
(0.00422619 0.00385367 -1.35568e-20)
(0.00397761 0.00353545 0)
(0.00402571 0.00366638 1.60924e-20)
(0.00287482 0.00298352 1.58922e-20)
(0.00310042 0.00323394 3.8528e-20)
(0.00310296 0.00323663 -3.76993e-20)
(0.0038833 0.00353898 -4.25972e-21)
(0.00295158 0.00309065 -1.10612e-20)
(0.0040331 0.00377829 8.87326e-21)
(0.00392453 0.00353031 0)
(0.00295926 0.00308368 2.03573e-20)
(0.00305957 0.00324123 -8.61425e-22)
(0.00389858 0.00355236 0)
(0.00288105 0.00299051 9.60202e-26)
(0.00422296 0.00385592 -2.82814e-20)
(0.00413031 0.00362476 -1.06299e-20)
(0.00444059 0.00374499 1.08102e-20)
(0.00423239 0.00386031 0)
(0.00389781 0.00355976 9.27615e-21)
(0.00296542 0.00308662 7.16219e-21)
(0.00460253 0.00394885 0)
(0.00301429 0.00304923 0)
(0.0030451 0.00312297 -3.56865e-20)
(0.00288011 0.00298827 0)
(0.00394328 0.00354805 0)
(0.00288063 0.00298776 0)
(0.00288043 0.00298746 0)
(0.00284819 0.00300151 -2.0845e-21)
(0.00284449 0.00301104 2.43484e-21)
(0.00308945 0.00323925 2.01177e-20)
(0.00311175 0.00323895 2.61713e-20)
(0.00422473 0.00385457 -7.83386e-21)
(0.00285432 0.00301984 2.56818e-21)
(0.00421631 0.00383114 -2.18814e-22)
(0.00293158 0.0031073 9.88683e-21)
(0.0042483 0.00383167 4.64503e-21)
(0.00282424 0.00300428 -1.54624e-20)
(0.00404227 0.00364591 4.38884e-21)
(0.00392643 0.0035341 0)
(0.00446412 0.00388242 -1.08772e-20)
(0.00284211 0.00301178 0)
(0.0029557 0.0030804 8.4711e-21)
(0.00296469 0.00307942 -8.9328e-21)
(0.00308445 0.00324716 0)
(0.00295302 0.00305352 -1.66832e-22)
(0.00287305 0.00299083 7.08448e-21)
(0.00294399 0.00307397 9.1333e-21)
(0.00296416 0.00306942 -1.13825e-20)
(0.00309928 0.0032352 1.51823e-20)
(0.00297082 0.00351119 4.96735e-20)
(0.00401809 0.00364026 -7.62335e-23)
(0.00423059 0.00385293 -8.57395e-21)
(0.00294997 0.00306402 -2.77662e-20)
(0.00293193 0.00311043 1.21774e-21)
(0.00332193 0.00349697 -1.18423e-20)
(0.00286266 0.00297897 2.04501e-20)
(0.00422341 0.00385658 9.4179e-21)
(0.00294017 0.00308473 1.06479e-20)
(0.00308254 0.00324659 1.04819e-20)
(0.00310545 0.00321337 6.24682e-21)
(0.00311564 0.00325183 -1.04962e-20)
(0.00296635 0.00308485 0)
(0.00295866 0.00308488 1.55768e-20)
(0.00292965 0.00311055 5.04813e-21)
(0.00288159 0.00296885 3.16486e-20)
(0.00308878 0.00325946 0)
(0.00287249 0.00297944 -1.85172e-20)
(0.00404989 0.00364774 0)
(0.00305544 0.00325317 -5.96173e-21)
(0.00302055 0.00317648 1.09746e-20)
(0.00404352 0.00364105 0)
(0.00292954 0.00310719 -5.69567e-24)
(0.00307384 0.00326519 -6.26623e-24)
(0.00289506 0.00301442 0)
(0.00312422 0.00322277 -1.08599e-20)
(0.00408528 0.00366195 -2.35369e-20)
(0.00289931 0.00308138 -1.86978e-23)
(0.00283203 0.00300889 0)
(0.00389711 0.00356139 8.71122e-21)
(0.00424644 0.00382884 -4.31781e-21)
(0.0028213 0.00297506 1.75194e-21)
(0.00310615 0.00324022 -8.97888e-21)
(0.0028721 0.00299031 0)
(0.00286978 0.00299039 -1.67192e-20)
(0.00299328 0.00308299 2.34168e-20)
(0.00404361 0.00363181 -4.34255e-21)
(0.00287474 0.00299364 -1.70063e-20)
(0.00307492 0.00325158 0)
(0.00403847 0.00363912 -1.19928e-21)
(0.00311559 0.00323483 -2.95472e-20)
(0.00404388 0.00365012 -4.26038e-21)
(0.00291828 0.00309956 -1.08831e-20)
(0.00389704 0.00355607 0)
(0.00284338 0.00300652 -7.22928e-21)
(0.00305224 0.00322875 1.36497e-22)
(0.00311248 0.00321191 5.72217e-21)
(0.00307686 0.00326813 4.52593e-21)
(0.00287675 0.00254007 0)
(0.00284999 0.00301322 5.48127e-21)
(0.00296251 0.00308212 -1.80601e-20)
(0.00422689 0.00385785 3.73921e-20)
(0.00307525 0.00326525 4.96778e-21)
(0.00387552 0.00353696 1.06994e-21)
(0.00391774 0.00353653 -8.89067e-21)
(0.00465058 0.00418168 1.09139e-20)
(0.00312099 0.00324465 -9.85972e-21)
(0.00294455 0.00306918 -6.43612e-21)
(0.00425082 0.00382447 1.07822e-20)
(0.00309805 0.00320751 6.51412e-21)
(0.00403423 0.00364379 1.10354e-21)
(0.00305401 0.00325104 -3.40861e-23)
(0.00304229 0.00297824 -2.73672e-20)
(0.00292738 0.00310133 0)
(0.0042331 0.0038544 0)
(0.00389543 0.00356149 1.81439e-20)
(0.0030834 0.00326645 2.67734e-21)
(0.00392054 0.00352635 2.0909e-21)
(0.00292604 0.00310764 7.20216e-21)
(0.00305629 0.00325453 0)
(0.0029489 0.00309169 -1.22074e-20)
(0.00389976 0.00355183 0)
(0.00310133 0.0032064 -1.21563e-20)
(0.00390743 0.00355927 -2.13889e-20)
(0.00295747 0.00305592 6.84582e-21)
(0.00285127 0.00301189 -6.39059e-21)
(0.00290926 0.00309977 -6.04926e-21)
(0.0041973 0.00362731 2.1822e-20)
(0.00389838 0.00355877 -1.87702e-20)
(0.0042518 0.00383017 0)
(0.00403889 0.00378787 1.56994e-20)
(0.00310693 0.00320512 -1.19618e-25)
(0.0029353 0.00310037 -5.93851e-21)
(0.00287066 0.00296904 6.36499e-21)
(0.00425316 0.00383707 0)
(0.00402417 0.00366717 0)
(0.00402469 0.00366952 -6.69268e-21)
(0.00310505 0.00321322 1.29976e-20)
(0.00286475 0.00300009 -1.32023e-20)
(0.00310687 0.00323815 0)
(0.0040254 0.00367029 3.25068e-20)
(0.00286468 0.00300787 1.91207e-20)
(0.00308418 0.00325085 0)
(0.00431382 0.00383645 0)
(0.00283095 0.00300747 -1.1322e-20)
(0.00424573 0.00382701 -4.04524e-21)
(0.00296041 0.00306003 5.90101e-21)
(0.0031043 0.00321489 0)
(0.00283694 0.0030062 -2.86775e-21)
(0.00291643 0.00310153 7.65851e-21)
(0.00293743 0.003112 2.72062e-21)
(0.00404174 0.00364315 4.03037e-21)
(0.00390571 0.00356121 1.47814e-20)
(0.00291643 0.00309945 -1.05136e-20)
(0.003054 0.00324896 -1.69201e-22)
(0.00425051 0.00383079 4.83377e-21)
(0.00295581 0.00306916 0)
(0.00283271 0.00300758 0)
(0.00422541 0.00385524 0)
(0.00267308 0.00229662 0)
(0.00424627 0.00381517 0)
(0.00285603 0.0030104 -4.01372e-21)
(0.002963 0.00305663 1.45624e-20)
(0.00310846 0.00321124 -9.90274e-21)
(0.00391873 0.00352514 5.40509e-21)
(0.00287325 0.00297774 2.97614e-20)
(0.00282277 0.00299886 -4.37909e-21)
(0.00307132 0.00324604 0)
(0.00404615 0.00364832 -3.59179e-21)
(0.00295661 0.00305661 0)
(0.00282753 0.00300388 1.48521e-22)
(0.00293956 0.00310599 -9.98926e-21)
(0.0028264 0.00300309 1.19729e-20)
(0.00306165 0.0032555 5.08053e-21)
(0.00310248 0.00320345 -2.03021e-20)
(0.00305815 0.00324816 -3.43491e-23)
(0.00287328 0.00297293 -1.97159e-20)
(0.00309794 0.00320141 1.02658e-20)
(0.00282868 0.00300761 0)
(0.00286972 0.00296734 0)
(0.00292335 0.00309347 0)
(0.00218751 0.00212852 3.28429e-20)
(0.00310031 0.00320816 -1.06135e-23)
(0.00291021 0.00309973 6.50238e-21)
(0.00309268 0.00321773 -2.78767e-20)
(0.00290686 0.00309636 -3.44796e-23)
(0.00286651 0.0029637 -3.47782e-20)
(0.00297009 0.00305159 0)
(0.00404734 0.0036329 9.35548e-21)
(0.0028262 0.00300139 0)
(0.0028661 0.00296546 -1.81759e-20)
(0.00305516 0.00324035 0)
(0.00291507 0.00308974 1.17723e-20)
(0.00305549 0.00324427 4.0007e-21)
(0.00292218 0.00308701 8.13704e-21)
(0.00306668 0.00329063 1.09516e-21)
(0.0029162 0.00314074 -9.29851e-22)
(0.00310451 0.00321567 -8.76644e-21)
(0.00296022 0.00305953 -8.52392e-21)
(0.00306963 0.00336385 1.65654e-21)
(0.00309998 0.00321074 -1.72486e-20)
(0.00305649 0.00325327 6.40767e-21)
(0.00295284 0.00305189 7.13391e-21)
(0.0029108 0.00310085 0)
(0.00290602 0.00309196 7.29171e-21)
(0.00305232 0.00325033 -3.48855e-21)
(0.00290595 0.00309652 -3.54399e-21)
(0.00295823 0.00305437 -8.84342e-21)
(0.00286625 0.00296563 -1.89001e-20)
(0.00310064 0.00321891 -2.69693e-20)
(0.0029908 0.00302112 -9.03114e-21)
(0.00299505 0.00309722 6.17449e-21)
(0.00309576 0.00321865 -7.67836e-21)
(0.00286042 0.00297696 1.55107e-20)
(0.00294341 0.0030676 -1.58396e-20)
(0.0029098 0.00310074 0)
(0.00289679 0.00311998 -3.02525e-20)
(0.0039126 0.0035207 0)
(0.00306381 0.00323967 -8.99063e-21)
(0.00308159 0.00316459 -3.1446e-20)
(0.00307231 0.00323842 -4.82971e-21)
(0.00287263 0.00297079 1.82652e-20)
(0.00265859 0.00232473 3.84742e-20)
(0.00283482 0.00299799 1.38351e-20)
(0.00305464 0.00325458 0)
(0.00305672 0.00324443 -8.33565e-21)
(0.00280351 0.0030703 9.05882e-21)
(0.00310868 0.0032238 2.99378e-20)
(0.0028725 0.00296952 -1.75281e-20)
(0.00287371 0.00296396 0)
(0.0029216 0.00321136 2.63758e-21)
(0.00310912 0.0032126 2.97453e-20)
(0.00311061 0.00321355 0)
(0.00311789 0.00321471 -7.98973e-24)
(0.00285747 0.00295677 3.33434e-24)
(0.00283125 0.0029859 1.48567e-23)
(0.00309825 0.00320839 -9.07901e-21)
(0.00310885 0.00320778 -9.50737e-24)
(0.00286819 0.00299775 2.03697e-20)
(0.00287271 0.0029687 -2.19225e-20)
(0.00287363 0.00296361 -1.06588e-20)
(0.00284791 0.00300014 -1.1103e-20)
(0.00292032 0.00320652 1.47235e-23)
(0.00286669 0.00296704 -1.9641e-20)
(0.00282862 0.00300349 -5.94991e-21)
(0.00304723 0.00293884 -9.49647e-21)
(0.00392164 0.00352769 -3.76565e-21)
(0.00299712 0.00297628 -3.088e-20)
(0.00307029 0.00326404 -1.20664e-21)
(0.00291922 0.00311311 -1.25757e-22)
(0.00287265 0.00297138 0)
(0.00286877 0.00296665 0)
(0.00282894 0.00300675 -2.69617e-21)
(0.00282728 0.00299913 -1.84849e-22)
(0.00282596 0.00300297 -3.24351e-21)
(0.00282271 0.00300605 -7.23726e-21)
(0.00282031 0.00300377 7.25889e-21)
(0.00389827 0.00353113 3.63237e-21)
(0.00287701 0.00297017 -2.04634e-20)
(3.03915e-05 2.30188e-05 -1.2164e-20)
(4.52724e-05 -1.63918e-05 6.00816e-21)
(9.28816e-05 0.000122876 1.68508e-21)
(0.00018095 -3.66502e-05 2.62866e-21)
(0.00102925 8.2917e-05 0)
(6.96341e-05 7.41459e-05 -1.08638e-21)
(0.000623891 0.000355588 4.51839e-20)
(5.84168e-05 0.000144887 0)
(0.00021833 -3.87645e-05 0)
(8.05546e-05 -1.78177e-05 -1.76412e-22)
(0.000597131 9.15048e-05 -1.733e-20)
(0.00374124 0.00382213 -1.31517e-20)
(0.00374387 0.00381823 6.1534e-21)
(0.00406757 0.00414855 8.40393e-23)
(0.00404285 0.00362277 1.61371e-20)
(0.00391802 0.00350985 1.71394e-20)
(0.00386237 0.0039383 0)
(0.00406999 0.00414465 -5.99703e-21)
(0.0037134 0.00385733 -1.13671e-20)
(0.00383705 0.00398164 0)
(0.00387274 0.00395452 0)
(0.00390239 0.00356055 -1.48523e-20)
(0.00387868 0.00395368 -1.32772e-20)
(0.00390688 0.00355339 7.92832e-21)
(0.00370847 0.0038628 5.71332e-21)
(0.00406719 0.00414979 0)
(0.00387181 0.0039397 7.41513e-21)
(0.00375838 0.0038248 2.43141e-20)
(0.00387021 0.00394558 1.42514e-20)
(0.00406649 0.00415056 0)
(0.00406636 0.00415088 0)
(0.00386698 0.00393905 -2.26604e-20)
(0.00406784 0.00414531 6.82102e-21)
(0.00371727 0.00384518 0)
(0.00372514 0.00384689 0)
(0.00403106 0.00417269 0)
(0.00402821 0.00416788 -8.40648e-21)
(0.00384369 0.00396808 0)
(0.00371122 0.00384978 -4.12661e-21)
(0.00384014 0.00396353 -7.75904e-21)
(0.0040366 0.00417556 4.79406e-21)
(0.00406685 0.00414918 -6.91739e-21)
(0.00403522 0.00416604 1.82114e-20)
(0.00372077 0.00384433 0)
(0.00403034 0.00416477 -8.80277e-21)
(0.00402886 0.00417301 0)
(0.00406438 0.00414066 -1.10304e-20)
(0.00371135 0.00385079 4.1716e-21)
(0.00384003 0.0039641 -1.09848e-20)
(0.00423471 0.0038521 0)
(0.00375399 0.00382222 -1.68364e-20)
(0.00387952 0.00394139 -8.25093e-21)
(0.0040333 0.00417581 -1.41742e-20)
(0.00375458 0.00381968 -1.70674e-20)
(0.0040336 0.00417275 0)
(0.00375184 0.00382178 0)
(0.0040661 0.00414244 1.43073e-20)
(0.00421881 0.00386508 1.64501e-20)
(0.00383827 0.00397046 3.62069e-21)
(0.00423326 0.00385522 -7.51933e-21)
(0.00383169 0.00397905 6.56207e-21)
(0.00402588 0.00418392 6.44396e-21)
(0.00375152 0.00382344 -9.12484e-21)
(0.0037518 0.00382304 9.50947e-21)
(0.00370911 0.00385691 7.11914e-21)
(0.00383258 0.00398057 -6.84968e-21)
(0.00402743 0.0041849 -6.71977e-21)
(0.00375167 0.00382497 0)
(0.00375095 0.00382402 9.01427e-21)
(0.00371792 0.00384684 -7.3898e-21)
(0.00402763 0.00417865 -5.92496e-21)
(0.00387654 0.00394053 -1.72712e-20)
(0.00383393 0.00397527 -6.03398e-21)
(0.00389473 0.00393144 0)
(0.00387772 0.00393874 -8.7805e-21)
(0.0037174 0.00385286 -8.40129e-21)
(0.00406586 0.00414382 -1.65695e-20)
(0.00375207 0.00382321 -2.88446e-20)
(0.00387983 0.00393776 1.77536e-20)
(0.00375038 0.00382575 -9.97472e-21)
(0.00371027 0.00385317 1.24449e-20)
(0.00383475 0.00397699 0)
(0.00402876 0.00417927 0)
(0.00375089 0.00382367 2.04147e-20)
(0.00391221 0.00391661 0)
(0.00402488 0.00418584 2.63176e-21)
(0.00383037 0.00398482 2.68058e-21)
(0.00372191 0.00385039 5.25843e-21)
(0.0040585 0.00414346 0)
(0.00401816 0.00379419 -1.71707e-20)
(0.00375304 0.00381849 0)
(0.0039249 0.00386257 1.89142e-20)
(0.00405952 0.00414605 -8.58803e-21)
(0.00371449 0.00385259 5.76283e-21)
(0.00406173 0.00414706 0)
(0.00397474 0.00380417 9.43495e-21)
(0.00407535 0.0041447 1.93589e-20)
(0.00405837 0.00414316 8.96869e-21)
(0.00408456 0.00358953 2.1668e-20)
(0.00390809 0.00355387 1.11093e-20)
(0.00375322 0.00382059 -1.03072e-20)
(0.00370679 0.00385776 -9.89553e-21)
(0.00406238 0.00356948 1.02227e-20)
(0.0040643 0.0041386 0)
(0.0038313 0.00398159 2.77468e-21)
(0.00391136 0.00354076 -2.27644e-20)
(0.00402065 0.00418491 2.73433e-21)
(0.0038042 0.00397613 3.17882e-21)
(0.00382052 0.00396979 1.32629e-21)
(0.00401197 0.00416795 -1.28165e-21)
(0.00425942 0.00380555 2.12399e-20)
(0.00399976 0.00416893 0)
(0.00398078 0.00416189 1.72214e-21)
(0.00399835 0.00362026 1.16384e-20)
(0.0037811 0.00396609 2.73665e-21)
(0.00404777 0.00363389 2.36463e-20)
(0.00440239 0.00399394 4.33717e-20)
(0.00081616 0.000576808 -9.86617e-21)
(-1.68545e-05 0.00104411 3.26187e-24)
(3.54373e-05 2.88596e-05 -1.01103e-20)
(5.15376e-05 4.54023e-06 -2.3732e-21)
(6.03873e-05 0.000259277 0)
(0.00011641 -2.97432e-05 -8.23161e-21)
(6.73062e-05 -1.49291e-06 3.46744e-22)
(0.000656119 0.000537325 -9.85851e-24)
(0.00288137 0.00296563 -2.20315e-20)
(0.00387836 0.00395476 6.47722e-21)
(0.00287285 0.00296078 0)
(0.00293251 0.00309431 4.74995e-21)
(0.00307945 0.00323985 9.78501e-21)
(0.00293143 0.00308679 -4.23504e-21)
(0.00310954 0.00320567 2.45961e-20)
(0.00284446 0.00299934 0)
(0.0029627 0.00305178 8.30401e-21)
(0.00307081 0.00325186 -6.0471e-21)
(0.00292378 0.00309741 -1.71249e-22)
(0.00311114 0.00320446 -9.88142e-21)