/*--------------------------------*- C++ -*----------------------------------*\
  =========                 |
  \\      /  F ield         | OpenFOAM: The Open Source CFD Toolbox
   \\    /   O peration     | Website:  https://openfoam.org
    \\  /    A nd           | Version:  7
     \\/     M anipulation  |
\*---------------------------------------------------------------------------*/
FoamFile
{
    version     2.0;
    format      ascii;
    class       surfaceScalarField;
    location    "110.5";
    object      phi;
}
// * * * * * * * * * * * * * * * * * * * * * * * * * * * * * * * * * * * * * //

dimensions      [0 3 -1 0 0 0 0];

internalField   nonuniform List<scalar> 
1111
(
7.18002e-09
1.28508e-08
-1.60636e-08
-3.96721e-09
7.1062e-09
-1.17642e-08
1.1838e-08
-1.47295e-08
5.90779e-09
8.73454e-09
8.71519e-11
1.01142e-09
-1.17636e-09
-1.44007e-08
1.45656e-08
-1.43684e-08
1.42013e-08
1.17859e-09
-1.60544e-09
1.4916e-08
2.11799e-09
-2.49783e-09
9.26511e-09
-9.12696e-09
2.35968e-09
-6.7243e-09
-1.26101e-08
1.25954e-08
6.73897e-09
-5.01732e-08
-2.61168e-08
7.629e-08
-8.08628e-09
7.73356e-09
7.45892e-09
3.21773e-09
3.82213e-10
-3.29479e-09
-3.05147e-10
1.58714e-08
-1.62752e-08
-2.3273e-08
2.36769e-08
-9.66703e-09
-7.90117e-09
8.80283e-09
8.76538e-09
-3.55987e-08
1.77389e-08
-3.23862e-08
5.02461e-08
9.49101e-09
-1.95968e-09
-1.42556e-08
-2.28332e-10
1.2263e-09
-2.53717e-09
1.5392e-09
-3.97221e-09
1.32805e-08
1.97393e-09
-1.12822e-08
8.80771e-09
-2.70252e-09
-1.50618e-08
8.95663e-09
3.71504e-08
-2.98187e-08
-7.33176e-09
-1.94104e-08
2.67524e-10
1.72264e-08
1.91647e-09
-1.08532e-09
4.23396e-09
-1.78329e-08
1.46843e-08
-6.12288e-08
-3.9612e-09
6.519e-08
1.34582e-10
-1.08203e-09
-3.20051e-10
1.2675e-09
-1.81443e-09
-1.36393e-08
-5.57991e-11
-2.00647e-10
1.41237e-10
1.15209e-10
-1.04187e-08
-8.67159e-09
1.32772e-08
5.81312e-09
6.84816e-10
-2.1417e-09
-8.20163e-09
9.65852e-09
8.862e-09
7.26098e-10
-9.93543e-09
3.47333e-10
-2.86623e-09
-8.12554e-09
1.12e-08
-2.08285e-10
1.14152e-08
-1.08822e-09
-1.51931e-09
-7.3711e-10
7.49967e-10
-3.87811e-11
2.59242e-11
-2.03553e-11
6.03816e-10
1.34359e-10
-7.1782e-10
-3.66655e-10
-4.0653e-11
3.97631e-10
9.67732e-12
-6.87182e-11
-6.89183e-10
1.17172e-10
6.40729e-10
-1.2069e-10
-6.85139e-10
1.02744e-09
-1.83599e-08
-2.07794e-09
-2.92488e-10
3.43579e-11
-1.08525e-10
1.33782e-08
-1.32475e-08
4.10328e-09
-3.27976e-10
5.1009e-10
2.95889e-10
-4.78004e-10
1.09537e-10
-1.02602e-09
9.07744e-10
8.74115e-12
-1.79676e-09
1.07096e-08
-1.14107e-08
-2.00296e-10
-1.29136e-10
3.69439e-11
-8.70262e-09
1.0662e-08
-1.00456e-08
1.22932e-08
-1.71325e-08
4.49788e-09
3.41447e-10
4.00847e-11
-1.22584e-10
-1.17797e-10
1.20234e-10
7.01614e-10
-7.18811e-11
-5.95019e-08
7.4228e-08
-1.47261e-08
9.56956e-10
-1.75863e-10
-1.05155e-09
2.70455e-10
1.13578e-09
1.03066e-08
-1.37129e-08
2.2705e-09
-1.95898e-09
7.93055e-09
-8.92976e-09
2.95819e-09
-6.80785e-09
5.54472e-09
5.74344e-09
-4.48032e-09
-7.92691e-09
-1.42076e-09
1.53944e-09
7.80823e-09
-1.82941e-10
-9.09126e-08
9.12987e-08
-2.03178e-10
-2.57705e-10
-8.97488e-08
9.01591e-08
-1.52559e-10
8.30787e-08
-1.49172e-09
1.10128e-10
-8.16971e-08
-2.7107e-09
-6.0355e-10
5.60176e-10
7.80624e-10
-3.83845e-10
3.87613e-09
-8.07107e-10
3.5834e-09
-6.65242e-09
-8.64042e-10
8.08413e-10
-1.4912e-08
6.57012e-09
1.0042e-08
1.08042e-09
-1.08264e-08
-2.96044e-10
-6.03601e-09
1.36521e-08
8.75127e-10
-8.49123e-09
1.43951e-08
-4.61569e-09
3.85038e-09
-1.36297e-08
1.53852e-08
1.67166e-09
-1.62802e-09
-1.84494e-10
-2.00799e-08
-7.43693e-09
2.77013e-08
1.46063e-08
-8.91382e-09
-1.82833e-09
8.0876e-09
-1.22953e-08
6.26575e-11
-2.40118e-11
-1.09019e-09
-3.60929e-08
-2.3409e-08
8.37516e-09
3.26329e-10
3.59168e-09
-6.95728e-09
1.13572e-08
6.26207e-09
-5.31174e-10
2.71123e-10
4.29092e-10
-1.69041e-10
5.65346e-09
-4.8451e-09
3.70279e-09
-4.51114e-09
-3.53621e-10
-5.69056e-10
2.33494e-10
5.58908e-10
-4.82389e-10
5.18913e-11
-6.33183e-10
5.60936e-10
-1.82956e-08
2.37949e-09
1.61446e-09
1.43016e-08
1.77913e-10
-6.14289e-10
-9.47982e-11
-4.26756e-09
-1.5217e-08
1.18904e-09
5.62301e-09
1.21301e-08
-5.24168e-09
-1.25114e-08
1.63682e-08
7.61746e-10
-1.58296e-08
-1.30026e-09
-6.10613e-10
3.91396e-10
4.9034e-10
-2.10966e-10
9.43933e-11
1.16572e-10
-7.53574e-09
-3.45828e-09
4.18618e-09
-1.65207e-10
2.66704e-10
-1.01497e-10
1.02261e-09
-1.57089e-08
-7.21817e-10
1.02026e-08
-1.12776e-08
-8.40166e-10
-1.59074e-10
1.30099e-08
4.4887e-09
-4.21487e-09
-1.32837e-08
3.85947e-11
7.24954e-09
-8.04304e-09
6.33822e-09
-1.54633e-09
-9.1724e-09
8.3435e-09
2.37522e-09
-1.97673e-09
7.06288e-10
-1.39466e-08
-8.42416e-11
-8.09657e-11
4.59901e-10
5.55757e-10
-8.94257e-09
7.90743e-10
1.72577e-08
-1.68028e-09
-1.17984e-08
1.31962e-08
-1.39783e-09
1.23018e-08
1.39116e-08
-1.54951e-08
-1.07183e-08
-4.34886e-10
8.31152e-10
-3.96266e-10
8.84617e-11
1.47609e-10
-2.36071e-10
-2.57146e-10
8.57864e-10
-6.00717e-10
1.21413e-09
-9.65734e-10
-2.484e-10
-1.0485e-08
1.01881e-09
9.46618e-09
1.81478e-09
-6.00649e-10
8.98399e-09
-1.5428e-08
8.01919e-09
-9.51827e-09
6.91228e-11
3.56405e-09
-4.1545e-10
-2.197e-09
2.26612e-09
-6.34707e-09
7.68412e-09
-1.33706e-09
-3.90556e-10
4.31258e-09
-4.58904e-11
1.72492e-08
-1.44767e-08
-1.63671e-09
-6.24937e-09
5.48222e-09
-3.99582e-11
-1.68182e-10
5.66225e-09
-5.62721e-09
-3.50421e-11
6.80366e-09
4.59324e-09
-7.06122e-11
-1.58758e-08
1.04961e-08
1.76814e-08
5.84439e-09
8.20882e-09
8.15777e-09
-6.84833e-09
1.4607e-09
-1.19457e-08
5.3994e-11
1.62718e-09
-1.30227e-08
2.68559e-09
-4.19476e-10
1.10076e-08
-1.02459e-08
-3.04268e-10
-6.56588e-10
-1.38352e-08
7.87143e-09
6.54176e-10
1.24773e-11
-8.87589e-09
4.95576e-09
-3.00032e-08
-1.25223e-08
-2.86385e-09
1.55095e-09
1.41369e-08
1.11195e-08
-1.0861e-08
-1.43954e-08
1.53508e-08
-3.18928e-09
-1.21615e-08
1.59568e-09
4.03129e-09
-8.38443e-10
-8.64087e-10
-7.78494e-10
1.06135e-09
5.81231e-10
-2.02554e-10
3.19057e-10
3.12588e-10
6.21471e-08
-6.21733e-08
2.62517e-11
6.20664e-08
-6.23707e-08
3.04342e-10
8.37587e-10
6.47303e-08
-6.55576e-08
8.27358e-10
6.41221e-08
6.08162e-10
-2.23632e-10
-6.65031e-08
9.45416e-10
-6.20631e-08
6.19283e-08
1.34778e-10
1.31464e-09
-6.78177e-08
-6.22229e-08
1.59807e-10
1.27904e-08
-5.09842e-10
1.13081e-09
-3.69644e-09
3.07547e-09
2.68914e-10
-1.13054e-09
8.26627e-10
-4.69712e-10
1.34147e-09
-1.55487e-09
6.83118e-10
1.3298e-09
-1.39234e-09
3.85304e-11
-3.19941e-11
-3.47348e-09
2.61198e-09
-1.8347e-09
2.6962e-09
-2.85748e-10
-2.67206e-09
2.44797e-09
-3.42999e-09
-5.89543e-09
5.53073e-10
-5.50942e-10
1.09004e-09
1.07806e-09
-6.40686e-09
7.84421e-09
3.1559e-09
1.97169e-08
-4.36609e-09
-6.44536e-10
2.74094e-10
9.23515e-10
-1.00679e-08
-2.6025e-08
5.22218e-09
-4.16848e-09
-3.20887e-09
2.15517e-09
8.43669e-11
2.59382e-11
2.87326e-10
-2.45805e-09
3.26581e-09
9.04478e-09
6.55752e-10
-9.68702e-11
2.03265e-09
-2.22153e-09
1.68862e-09
1.47007e-08
1.33478e-08
-2.69203e-08
3.27237e-08
6.30813e-09
-2.28561e-08
-1.03723e-08
1.85713e-08
-1.80618e-08
1.061e-08
5.44796e-12
-2.66148e-10
-1.13164e-09
-1.61321e-09
-2.79874e-09
3.13408e-09
1.52107e-08
-6.47472e-10
-1.38569e-08
-9.4734e-10
-2.12887e-09
4.04149e-10
1.54858e-08
1.77862e-08
1.36902e-08
7.75956e-10
-1.75129e-09
-1.27149e-08
-1.38901e-09
5.98203e-09
1.26509e-08
-3.81185e-10
-9.60541e-10
-3.68766e-09
2.82461e-09
3.47503e-09
2.51811e-09
1.46032e-08
4.3399e-09
-1.44544e-08
1.81627e-08
-1.76292e-09
2.31354e-09
-3.27285e-09
1.92898e-09
-4.97019e-09
1.29162e-08
-1.19182e-08
-1.40578e-08
2.94015e-10
8.79357e-09
-1.75924e-09
1.46828e-09
1.38099e-09
-8.66772e-09
6.90285e-10
-4.54488e-09
-5.98626e-09
1.21675e-08
-1.4849e-08
9.5653e-10
1.68954e-09
-2.20023e-09
1.68946e-08
-1.6384e-08
-1.16402e-09
1.42068e-08
3.13799e-09
-4.51707e-09
-1.40489e-08
7.61214e-09
-1.74925e-08
-8.18147e-09
6.95281e-09
5.88811e-09
1.46972e-08
-1.0163e-08
2.99015e-09
9.54805e-09
9.79483e-09
3.89376e-09
-4.24499e-09
2.18479e-08
-1.93228e-08
5.08704e-09
-1.07365e-08
2.16925e-09
5.72875e-09
1.40484e-08
-4.1169e-10
1.2835e-08
-1.35874e-08
-1.94446e-09
1.51988e-09
-5.13384e-10
9.37956e-10
1.11145e-08
-6.35923e-09
7.37481e-09
-1.11308e-08
1.47462e-09
-4.7409e-09
1.15576e-08
-1.20584e-08
-7.59545e-09
9.27661e-09
9.43332e-09
1.29898e-08
5.00861e-10
-1.39024e-08
1.37151e-09
7.67903e-10
-1.11953e-08
-6.72378e-09
1.03236e-08
-1.26693e-09
2.5077e-09
-9.02038e-09
4.75744e-09
-5.36143e-09
1.16961e-08
-3.46148e-09
-1.19216e-08
3.68699e-09
-4.45419e-09
1.14094e-08
1.74221e-09
1.09758e-09
-5.08099e-09
-1.79237e-08
1.05838e-08
1.24209e-08
6.93483e-10
-1.1126e-08
-1.00863e-08
1.61313e-08
1.27079e-08
2.89208e-09
-9.87123e-09
-1.33556e-08
-3.23669e-10
-1.27573e-08
1.71519e-10
-7.6953e-10
1.17981e-08
1.25572e-08
-8.23683e-09
1.67658e-08
-1.61192e-08
3.69332e-09
-5.24511e-10
1.81848e-09
1.30076e-08
-3.94221e-09
-1.2784e-08
-4.93798e-09
1.98389e-09
4.58128e-09
1.24374e-08
-7.23703e-09
1.0186e-09
-1.69931e-09
3.39268e-10
-5.84413e-10
5.98655e-09
2.64714e-08
5.22293e-11
-9.08395e-09
9.03172e-09
2.86844e-08
-2.24304e-08
2.21305e-08
1.98266e-08
-1.27193e-08
-2.73512e-09
1.5179e-08
1.38466e-10
-1.21478e-08
-4.71071e-10
-5.99693e-09
-1.82447e-09
2.13887e-09
1.42781e-09
-5.62251e-10
-1.12056e-08
1.16703e-08
9.75319e-11
2.94076e-09
-4.92056e-09
-1.12617e-08
1.07904e-08
-9.37867e-10
-1.09624e-08
-2.9331e-10
-1.14709e-08
-2.4009e-09
-1.2146e-08
2.13757e-09
7.87969e-09
5.16141e-09
-5.94116e-10
-1.18299e-08
1.18617e-08
5.33937e-10
-8.95243e-09
5.09557e-09
-1.6074e-09
2.06802e-09
-1.78344e-09
-1.30666e-08
-1.23744e-08
1.18325e-08
-1.01414e-08
-1.58351e-08
1.01007e-08
9.31229e-09
7.87631e-10
2.76571e-09
-1.18497e-08
1.16114e-08
1.66133e-09
3.86143e-09
2.54855e-10
-4.36837e-10
-1.71639e-10
-4.16639e-09
2.46227e-09
-4.24744e-10
1.34731e-10
-1.59157e-10
2.4426e-11
-2.72942e-09
1.3182e-08
2.25527e-09
2.51893e-09
3.74929e-10
-1.23447e-09
-6.44887e-10
-2.20923e-09
-1.56879e-10
1.31374e-08
1.01976e-08
-2.79941e-10
6.70636e-09
-1.25447e-09
-5.17195e-09
-9.86942e-09
-5.16223e-09
1.01005e-10
3.37258e-11
4.85247e-09
1.3618e-09
-1.73403e-08
-2.59157e-10
-6.91084e-10
-2.7775e-09
1.03017e-09
3.24217e-09
6.19498e-08
-8.56548e-11
-6.18641e-08
6.23739e-08
1.88651e-10
-6.25625e-08
-1.40986e-08
-3.6562e-10
1.44285e-08
3.57032e-11
3.25036e-09
-1.69409e-09
2.40116e-09
1.80062e-09
-4.56168e-09
-2.21688e-10
-4.69312e-10
3.81333e-10
-8.1062e-11
3.57419e-10
-2.317e-10
1.98021e-08
1.0073e-09
-1.5957e-08
-9.21777e-11
-1.9479e-09
1.26556e-08
2.29997e-09
1.82451e-09
5.34329e-09
-2.14299e-09
-7.72318e-08
-2.41784e-08
-5.06707e-09
1.58441e-08
2.50342e-09
1.48239e-10
-2.78222e-09
-9.6001e-10
1.9154e-10
-1.92071e-10
-9.53245e-09
-3.72697e-10
9.90515e-09
-1.09416e-08
-6.55412e-09
1.07719e-08
-9.54817e-09
8.73661e-09
3.1377e-10
1.35435e-09
9.10538e-09
-9.10056e-09
-4.82164e-12
5.36105e-10
8.7653e-11
1.09533e-08
4.23721e-10
-6.36957e-10
-9.28326e-12
-1.42561e-08
-4.27069e-10
-1.38867e-08
1.28162e-08
-1.19352e-08
-6.60354e-08
6.49934e-08
1.04201e-09
1.83011e-10
-1.57072e-10
1.21509e-08
-1.64737e-10
5.58012e-12
-2.12592e-09
2.74817e-09
-3.40559e-09
-1.34661e-08
-1.62573e-09
2.5778e-09
-4.64134e-09
-1.41988e-08
1.49981e-09
5.5291e-09
9.76407e-09
-9.1361e-09
-1.85793e-10
2.10563e-11
-9.28071e-09
-1.34993e-08
1.50961e-10
-6.26912e-08
2.35547e-10
6.24557e-08
6.95446e-10
6.34267e-08
-2.23506e-10
-1.70288e-09
-1.45123e-08
1.07404e-10
-6.34096e-08
6.33022e-08
1.8532e-10
-6.2951e-08
6.27657e-08
2.84544e-10
6.17973e-08
1.50505e-10
-6.19478e-08
6.16285e-08
1.68855e-10
-8.78888e-08
8.84979e-08
-9.39625e-13
9.33925e-08
-9.3099e-08
-2.67247e-10
-8.66283e-08
-4.33111e-10
9.33515e-08
-1.82679e-10
-8.49156e-08
-7.67299e-10
9.34821e-08
1.73717e-10
-5.22226e-10
1.96164e-09
9.23581e-08
-6.93094e-08
6.21387e-08
-6.23217e-08
-6.29489e-08
6.14861e-08
1.42381e-10
-3.17664e-09
2.97033e-09
-1.42481e-08
3.87972e-11
6.22079e-11
1.00788e-09
8.68694e-09
-1.13895e-08
3.83399e-08
-3.45733e-08
-1.67893e-08
1.38231e-08
-2.80053e-11
-1.92834e-10
1.0876e-10
5.03367e-10
-1.07414e-10
2.86194e-10
4.37912e-09
1.05876e-09
-3.5089e-09
-1.13037e-10
1.47395e-10
-7.60926e-11
-2.61314e-09
1.333e-08
2.46514e-09
-1.442e-08
-2.6249e-09
-3.22155e-09
5.48027e-09
1.05401e-09
-2.60099e-09
1.43899e-08
-1.20507e-09
-1.42967e-09
1.33443e-09
-8.13348e-09
-1.90888e-08
-1.35341e-08
8.07269e-09
5.75542e-09
-1.73835e-10
-5.79472e-10
2.89217e-09
1.44983e-08
2.29514e-09
-1.87744e-09
-3.47977e-10
3.98224e-10
-2.18429e-10
1.58915e-08
-6.12783e-10
-1.56515e-08
5.04916e-10
1.24616e-10
3.40743e-10
-2.78838e-10
3.36336e-09
-1.61401e-08
3.93253e-10
-1.44437e-09
-2.02426e-09
-2.27188e-09
1.58022e-08
-9.05933e-08
-1.3402e-10
9.16783e-08
-1.90911e-10
-8.91637e-08
-4.77729e-10
9.31016e-08
-2.7518e-10
-9.29121e-08
-5.26645e-10
-1.51837e-09
1.69175e-08
9.19798e-08
-1.98655e-10
2.96498e-11
-2.2084e-10
9.65806e-09
2.38362e-09
-7.08232e-09
-1.23136e-08
-5.67563e-09
8.3695e-09
1.53031e-09
-6.7439e-09
-5.97443e-09
9.06105e-09
-3.60077e-11
1.01216e-08
1.94983e-08
-1.79873e-08
3.0901e-09
-1.28243e-08
3.13032e-09
-6.99583e-08
3.92283e-09
-2.06034e-08
-1.30419e-08
-4.38575e-10
-5.91804e-09
-1.53124e-08
9.08268e-09
-1.50712e-08
3.70828e-10
3.14192e-10
-1.96048e-09
-1.67858e-08
1.7175e-08
6.99517e-09
-7.59872e-09
-4.32364e-09
1.53491e-08
-1.68812e-09
7.28872e-10
-7.2546e-10
2.16653e-11
1.1968e-08
3.31563e-09
7.09124e-08
-1.82408e-08
6.47557e-10
-1.51047e-08
-2.09323e-10
-2.40151e-10
-1.47119e-10
6.09488e-08
-6.12239e-08
-6.338e-08
-6.31497e-08
-6.42343e-11
-2.6219e-10
-9.25856e-08
-6.04517e-08
6.24134e-08
6.51036e-08
-6.0278e-08
6.45813e-08
-6.04607e-08
6.3814e-08
-6.07279e-08
6.33809e-08
9.23085e-08
2.40504e-10
-6.33171e-09
7.51293e-08
-6.5482e-08
2.19628e-11
-2.19628e-11
-8.75446e-11
-2.97847e-10
1.54747e-08
-1.6188e-12
1.6188e-12
2.75925e-10
1.5139e-09
1.39149e-08
1.34711e-08
-2.70452e-09
3.71317e-09
6.72489e-09
1.71166e-09
3.32079e-10
-2.22345e-10
-2.96075e-09
1.4574e-08
1.4842e-08
-4.29291e-09
1.18205e-08
1.54141e-10
1.2516e-10
2.64896e-09
-7.48795e-10
-1.45333e-09
-5.85421e-09
-1.9193e-10
-3.64353e-10
1.53139e-08
2.13046e-10
3.69761e-11
1.42237e-08
-2.62841e-08
1.78829e-08
2.70504e-09
1.18469e-09
2.50006e-09
-3.72153e-09
1.94213e-08
-1.81998e-08
-6.22787e-11
-5.37871e-11
-1.44138e-09
-7.92137e-08
-7.07508e-08
1.20702e-09
-2.96722e-10
5.9772e-10
2.30157e-08
1.86131e-08
-6.43391e-09
7.69774e-11
-4.19491e-09
-2.52544e-09
2.9962e-08
1.61607e-10
1.48184e-08
7.35784e-08
3.43887e-11
4.99269e-10
-1.32107e-10
-1.89009e-10
-3.5516e-09
2.43577e-08
-1.48682e-08
8.56513e-10
-1.42038e-08
-4.02452e-11
2.04085e-08
-2.8767e-08
9.64572e-10
1.83934e-09
-1.60358e-10
)
;

boundaryField
{
    back
    {
        type            empty;
        value           nonuniform 0();
    }
    ingreso
    {
        type            calculated;
        value           nonuniform List<scalar> 
14
(
-1.54286e-08
-1.54288e-08
-1.54288e-08
-1.54288e-08
-1.54286e-08
-1.54283e-08
-1.54288e-08
-1.54288e-08
-1.54286e-08
-1.54286e-08
-1.54288e-08
-1.5428e-08
-1.5428e-08
-1.54286e-08
)
;
    }
    salida
    {
        type            calculated;
        value           nonuniform List<scalar> 2(1.0141e-07 1.1459e-07);
    }
    front
    {
        type            empty;
        value           nonuniform 0();
    }
    defaultFaces
    {
        type            calculated;
        value           uniform 0;
    }
}


// ************************************************************************* //
