/*--------------------------------*- C++ -*----------------------------------*\
  =========                 |
  \\      /  F ield         | OpenFOAM: The Open Source CFD Toolbox
   \\    /   O peration     | Website:  https://openfoam.org
    \\  /    A nd           | Version:  7
     \\/     M anipulation  |
\*---------------------------------------------------------------------------*/
FoamFile
{
    version     2.0;
    format      ascii;
    class       volVectorField;
    location    "110.5";
    object      U;
}
// * * * * * * * * * * * * * * * * * * * * * * * * * * * * * * * * * * * * * //

dimensions      [0 1 -1 0 0 0 0];

internalField   nonuniform List<vector> 
591
(
(0.000839407 1.25734e-06 1.21602e-18)
(0.000836744 1.67725e-06 -6.60987e-19)
(0.000851611 2.67322e-05 5.69433e-20)
(0.000869052 -3.01201e-05 -1.49014e-19)
(0.00085819 -1.40147e-05 2.25439e-19)
(0.000803688 -3.76167e-05 -1.39574e-19)
(0.000557925 -0.000205379 8.06383e-19)
(0.000803504 4.13478e-06 2.10814e-18)
(0.00572062 0.00251171 9.88054e-19)
(0.000821788 5.71793e-06 2.4387e-18)
(4.51466e-05 0.000156857 1.21791e-18)
(0.00093954 0.00139929 9.40743e-21)
(0.000801519 4.41757e-06 1.32307e-18)
(0.00160555 0.0024058 -7.87433e-19)
(0.000803232 1.40826e-06 -4.46751e-19)
(3.60872e-05 -0.000130118 2.5432e-22)
(0.000141776 0.000664818 7.0481e-19)
(0.00081803 8.20804e-05 -4.97322e-19)
(0.00189325 0.00039256 4.73757e-19)
(0.00135805 0.000259844 -2.47115e-19)
(0.000830148 -8.98182e-06 3.73092e-19)
(0.00340082 0.00656031 -8.14044e-20)
(2.18046e-05 6.11401e-05 2.70866e-19)
(0.000835482 -2.66948e-05 -4.51578e-19)
(4.67144e-06 -9.4918e-06 3.58796e-19)
(0.000797751 4.8041e-05 0)
(9.52381e-05 0.00046388 1.59935e-19)
(0.000585992 -5.24927e-06 -1.78773e-19)
(0.000771291 4.90511e-05 1.14908e-18)
(0.000804853 7.4617e-05 5.84428e-19)
(4.57435e-05 -6.24847e-06 -5.47516e-24)
(1.73447e-05 -3.59735e-05 3.52057e-19)
(2.49508e-05 -2.38307e-06 -4.64067e-20)
(3.45174e-05 -1.22566e-05 0)
(4.27013e-05 -1.27723e-05 1.13107e-18)
(0.00116826 0.000142669 1.79821e-19)
(2.07774e-05 -3.77098e-06 4.46997e-20)
(0.000823395 7.76151e-07 3.07745e-23)
(2.16175e-05 3.6224e-05 2.65944e-19)
(-1.55982e-05 -4.65545e-05 -8.53782e-19)
(0.00066333 -0.000179438 9.58769e-19)
(1.57472e-05 -4.28595e-06 4.54673e-20)
(0.000818403 2.55302e-05 -1.57457e-18)
(0.000831518 5.1694e-05 -6.90628e-19)
(9.87085e-06 -4.65944e-06 0)
(4.51384e-05 2.65606e-06 8.51595e-20)
(0.00135084 0.00450241 8.92828e-19)
(6.45054e-05 7.98221e-06 8.63351e-20)
(0.000803025 1.74215e-05 0)
(0.000397961 -0.000234892 6.76883e-19)
(0.000393273 0.000263122 5.11784e-21)
(0.00040891 2.49426e-05 -1.00346e-18)
(0.00634761 0.0109401 -7.6887e-19)
(0.00622452 0.0107952 1.52898e-20)
(0.00561474 0.0103781 1.45621e-18)
(0.000804543 5.35131e-05 0)
(5.83957e-05 2.27692e-05 0)
(0.000322599 -1.72199e-05 3.3425e-23)
(5.26439e-05 4.95387e-06 -3.46348e-19)
(0.000811776 -6.49396e-06 0)
(0.000674249 2.78849e-05 3.17448e-19)
(0.000849862 3.39606e-05 2.20831e-18)
(0.000814281 4.15269e-05 -5.40708e-19)
(0.000800013 1.10122e-05 -3.1566e-19)
(0.00171363 0.000486573 5.42386e-19)
(0.000814938 3.68024e-05 -1.14402e-18)
(0.00084197 4.15607e-05 -5.23414e-19)
(6.56223e-05 -9.37163e-06 -1.73355e-19)
(0.000691704 0.0022553 0)
(0.000847035 5.20257e-05 0)
(0.000797535 3.28158e-05 -1.392e-18)
(3.15256e-05 1.20253e-05 0)
(0.00029491 0.000259477 3.26767e-19)
(2.87435e-05 -1.45421e-05 0)
(3.11103e-05 -5.35405e-06 1.59421e-19)
(2.76021e-06 -3.0183e-05 -3.36547e-20)
(0.000808012 7.96289e-05 2.46873e-19)
(3.64699e-05 7.18661e-06 0)
(0.0008164 5.62492e-05 4.4718e-19)
(0.000784922 0.000297511 2.10663e-19)
(0.000959071 7.09351e-05 -3.97555e-20)
(3.61284e-05 1.76855e-05 -4.51717e-20)
(2.57517e-06 -7.66552e-06 0)
(0.000447019 0.000208101 1.70138e-19)
(2.57051e-06 1.40037e-05 0)
(0.000809357 5.21183e-05 -6.08277e-19)
(0.000662132 -0.000111213 0)
(5.2627e-05 -6.12472e-06 -1.74424e-19)
(2.3455e-07 -1.15302e-05 0)
(0.000839549 0.00024471 -3.41145e-19)
(1.37656e-06 -3.93256e-06 0)
(0.000436861 0.000317249 -1.36655e-23)
(0.000552197 0.000105372 0)
(0.000818882 4.55732e-05 -3.21271e-24)
(1.9586e-06 8.04881e-06 -4.21577e-20)
(0.00048276 -3.5439e-05 1.76289e-18)
(0.00101553 7.54217e-05 4.15724e-20)
(0.00076884 4.84076e-05 6.41798e-22)
(0.000751056 0.00066093 2.69425e-19)
(6.83608e-06 3.50475e-05 0)
(-8.20564e-06 -5.76373e-06 -3.12205e-19)
(-3.67577e-05 9.71516e-06 -1.10117e-18)
(5.32317e-06 5.94178e-05 -5.96183e-19)
(0.000586962 -3.18681e-05 0)
(9.43855e-06 8.21592e-05 0)
(0.000823304 3.78163e-05 2.18082e-18)
(0.000805911 4.28232e-05 1.53381e-18)
(0.000462648 -0.000125516 0)
(3.81349e-05 0.000202404 -8.95085e-19)
(1.87552e-06 0.00014433 4.96849e-19)
(5.44948e-05 0.000383158 6.25124e-19)
(0.000314177 5.74355e-05 -9.36955e-19)
(0.000801773 1.99602e-05 1.37374e-19)
(0.000254496 -8.53134e-05 5.31043e-19)
(4.09603e-06 2.15411e-05 0)
(1.82178e-05 0.000261828 -1.094e-18)
(0.000328775 0.000315487 -1.61666e-19)
(-2.13284e-06 -3.91331e-06 1.46533e-19)
(0.00067135 0.000801046 0)
(0.000377805 0.000377287 5.74274e-20)
(0.000829492 3.44781e-05 1.07028e-18)
(0.000799734 1.82833e-06 -2.72582e-18)
(4.66181e-06 2.61475e-05 0)
(0.000657397 -4.39439e-05 -1.12273e-19)
(0.000325601 -0.000164586 1.24273e-18)
(0.00261402 0.000810804 -3.36552e-19)
(8.99776e-06 0.000110917 -6.13138e-19)
(9.75347e-06 0.000139113 1.61964e-18)
(0.0006394 2.65863e-05 -3.8967e-20)
(4.95611e-05 -1.74662e-05 -7.49917e-19)
(0.000814329 4.25088e-05 -3.91508e-19)
(0.000691282 2.83702e-05 -4.10514e-20)
(3.04705e-05 0.00030958 -5.97086e-19)
(0.000513107 4.53205e-05 -4.93781e-19)
(3.78845e-05 -4.80249e-06 1.561e-19)
(0.000844776 4.57867e-05 -1.0839e-18)
(0.00152574 0.000236586 -1.13646e-18)
(5.46456e-06 4.75912e-05 4.96273e-19)
(0.000814665 3.88676e-05 -5.03345e-19)
(0.000928148 0.000559021 -7.84873e-20)
(0.000150852 0.000775493 0)
(0.00061171 6.06066e-05 0)
(0.000279725 3.26094e-05 -1.60897e-18)
(5.67137e-05 4.897e-05 -1.37367e-18)
(2.52229e-05 1.60555e-05 0)
(0.00424799 0.00740146 -1.01994e-20)
(0.00422606 0.00737296 3.16871e-20)
(0.00442823 0.00757568 -5.00452e-21)
(0.00420522 0.00773329 0)
(0.00419765 0.00759918 5.77406e-19)
(0.00424493 0.00740247 -9.20864e-20)
(0.00420906 0.00804062 4.84638e-19)
(0.00429066 0.00742399 0)
(0.0042076 0.00853324 6.1698e-19)
(0.00432719 0.00745266 2.24027e-19)
(0.000840721 2.8546e-05 -1.37165e-18)
(0.000790699 6.57179e-05 0)
(0.00020893 3.04273e-05 1.27668e-19)
(4.1907e-05 1.06969e-05 8.71565e-20)
(6.98013e-05 3.44231e-05 6.79809e-19)
(9.55917e-05 2.80214e-05 -3.41563e-19)
(8.60005e-05 -5.66494e-06 0)
(3.86352e-05 1.86818e-06 8.18101e-20)
(0.000208711 0.000114197 0)
(0.000157022 2.05106e-05 -5.2418e-20)
(0.000350724 0.00021016 -5.09129e-21)
(4.88998e-05 3.46542e-05 -4.37516e-19)
(8.02282e-05 1.60037e-05 -8.52203e-20)
(8.29085e-05 4.98454e-05 1.31155e-21)
(0.000264539 0.000356032 -6.66024e-19)
(0.00011153 0.000988845 0)
(3.68157e-05 4.4267e-05 3.42955e-19)
(0.000199997 0.00173672 0)
(0.000209655 0.000241141 7.0449e-19)
(2.71171e-05 -2.67075e-06 1.11458e-19)
(0.000499872 0.000156655 -1.72255e-19)
(0.000783895 3.32092e-05 -1.92358e-18)
(3.31805e-05 -1.97769e-06 5.01525e-24)
(0.000135924 7.03755e-06 2.24525e-19)
(0.000247735 7.24596e-05 -8.99072e-20)
(0.000885014 0.000694004 3.34862e-19)
(0.000724733 0.00163468 -9.23435e-21)
(0.000392997 0.00141699 -9.38041e-21)
(0.00103428 0.000550846 0)
(8.3695e-05 -2.37961e-05 1.11837e-18)
(0.000102264 -1.78463e-07 -4.42801e-20)
(0.000478745 -0.000256696 -1.1362e-18)
(0.000828396 4.41963e-05 0)
(0.000171243 -2.59778e-05 3.63209e-19)
(0.000308337 0.00129577 0)
(0.00109035 0.000772486 -7.30017e-20)
(0.000826315 2.50638e-05 -1.86489e-19)
(5.96974e-05 -2.53529e-05 -2.99879e-19)
(0.000846057 0.000313742 -2.07981e-20)
(3.90144e-05 -2.09449e-05 -5.99283e-19)
(0.000228924 0.000159624 8.63664e-20)
(0.000233079 0.000300395 -3.44927e-19)
(0.000903448 0.000255717 0)
(0.000831435 5.99359e-05 0)
(0.000268925 0.00011463 1.76801e-19)
(0.000230704 -2.85335e-05 1.03245e-23)
(0.000185663 0.00019263 0)
(0.000309199 0.000641618 -5.55543e-21)
(0.000369805 -4.44568e-05 0)
(0.000383849 0.000598258 0)
(0.000101599 6.83514e-05 -1.34629e-21)
(0.000810186 2.99693e-05 -9.54641e-19)
(0.000804905 1.6141e-05 7.88447e-19)
(0.000120482 4.15016e-05 -1.49811e-19)
(0.000980166 0.000146311 8.50073e-20)
(0.000842039 3.53539e-05 3.33487e-19)
(0.000824138 3.82678e-05 -2.93988e-19)
(0.00103778 0.000422734 0)
(0.000454693 0.000102402 6.24236e-19)
(0.000921489 0.000325496 2.09072e-20)
(0.000600012 0.000148411 0)
(0.000277816 0.000440569 4.09553e-19)
(0.000264238 0.000203262 -8.43969e-20)
(0.00110986 0.000387103 -7.81846e-19)
(0.000648794 0.000102549 -1.7923e-19)
(0.000827643 7.91996e-05 -7.45793e-21)
(0.000847202 1.99046e-05 9.38902e-20)
(4.01608e-05 -8.3756e-05 -1.98075e-18)
(0.000748751 0.000379243 2.19176e-19)
(0.000694905 7.1469e-05 2.30573e-20)
(0.000721362 0.000278559 1.63101e-23)
(0.000744515 0.000462621 -4.0956e-19)
(0.00085715 1.09293e-05 9.06765e-20)
(6.59894e-05 6.74528e-05 0)
(0.000666174 0.000426362 -4.65796e-20)
(0.000180507 7.65408e-05 0)
(0.000374457 0.000500714 -2.64781e-19)
(0.000314599 0.000151222 0)
(0.000691709 0.00020523 3.55111e-19)
(0.000665236 0.000259403 -4.37117e-20)
(7.79592e-05 9.29645e-05 6.18968e-19)
(0.000891725 9.78455e-05 -1.63735e-18)
(4.88997e-05 1.55582e-05 2.57109e-19)
(0.000904488 7.36643e-05 -1.68594e-18)
(0.000854349 9.17288e-05 1.63032e-19)
(0.000817122 3.92701e-05 1.9222e-18)
(0.000822913 3.17267e-05 -1.32801e-19)
(0.000752339 7.02106e-05 0)
(0.000804896 1.86003e-05 9.00802e-19)
(0.000978332 0.000241661 -4.2695e-19)
(0.000796548 0.000103265 -4.83577e-19)
(0.000786339 0.000239402 -8.80927e-20)
(0.000187249 -0.000205656 -2.07425e-18)
(0.000772438 8.43519e-05 8.87239e-19)
(0.000646726 0.000589807 0)
(4.30572e-05 -0.000123225 0)
(0.00123299 0.000479423 4.97182e-19)
(0.000521166 -5.11824e-05 -3.27083e-18)
(0.00135888 0.00042126 5.76262e-19)
(0.00125736 0.000722253 -6.38884e-20)
(0.000818252 3.57711e-05 -2.12677e-19)
(0.000846614 6.59938e-05 -1.42761e-18)
(0.000813383 2.69316e-05 1.58484e-18)
(0.000813376 1.84681e-05 9.77745e-20)
(0.000679289 0.000352928 -4.40276e-20)
(9.73938e-05 0.000108228 1.0607e-23)
(0.000772719 -2.38951e-05 2.64848e-19)
(0.000203089 -0.000251125 -7.33858e-19)
(0.000649086 0.000180763 0)
(0.000734566 5.19752e-05 9.9003e-20)
(0.000731667 1.05679e-05 -3.80674e-19)
(0.00040135 0.000158287 3.93251e-20)
(0.000816032 0.000510669 -1.65431e-19)
(0.000142455 5.82505e-05 4.60062e-25)
(0.00082546 0.000411983 0)
(0.000995152 0.000315863 4.15629e-20)
(0.000774493 -5.26409e-05 -6.15789e-19)
(0.000360042 8.58439e-05 4.97697e-19)
(0.000907582 0.000427349 0)
(4.19813e-05 2.46742e-05 1.33668e-19)
(0.000500884 0.000258123 2.1389e-19)
(0.000563158 -0.000176534 -7.0915e-19)
(7.62368e-05 -0.000177515 -1.05603e-18)
(0.000827398 4.40077e-05 -4.86516e-19)
(0.000753871 -5.09626e-05 -1.94671e-19)
(0.000555589 0.00072749 -1.17399e-18)
(0.000858214 4.40806e-05 -6.7329e-20)
(0.000539116 -4.79034e-06 1.28301e-18)
(0.000725621 9.92889e-05 2.27698e-20)
(0.000550992 0.000200828 -1.65638e-19)
(1.99654e-05 -1.70082e-05 -8.75564e-20)
(0.000139663 -6.94912e-05 2.40516e-18)
(9.78001e-06 4.52406e-07 -1.948e-19)
(0.00085 0.000121005 3.63622e-19)
(0.000690501 0.000134324 0)
(0.000160462 -0.000124253 -1.04789e-18)
(0.000104962 -3.25996e-05 3.12669e-19)
(8.28314e-05 -4.40101e-05 1.04007e-23)
(0.000817628 0.000106683 -3.19156e-19)
(0.00013917 -3.00113e-05 0)
(0.000603988 0.000235849 0)
(0.000111365 0.000317661 -3.62763e-19)
(0.000873493 0.000102214 2.10749e-18)
(7.93763e-06 5.45769e-07 0)
(0.000893697 5.02359e-05 0)
(3.05565e-05 -2.38114e-05 0)
(0.000815126 4.91463e-05 -4.46653e-21)
(0.000777994 -1.96324e-05 0)
(0.0042611 0.00740824 8.07478e-20)
(0.00436306 0.00748869 1.43691e-19)
(0.000841856 -2.4214e-05 0)
(0.000803761 -2.53183e-05 8.11278e-19)
(0.000150711 0.000109561 1.49168e-19)
(0.000867692 6.60114e-05 8.08411e-19)
(0.000124746 8.72632e-05 2.34326e-20)
(0.000799365 -1.384e-05 6.23744e-19)
(2.82098e-05 6.91493e-06 0)
(1.90214e-05 -1.00962e-05 -4.48329e-20)
(0.000912132 4.57347e-05 -4.86378e-19)
(2.01283e-05 -2.57455e-05 -6.6958e-19)
(0.000777189 0.00012955 -4.23089e-20)
(0.000169699 0.000147192 -1.88049e-19)
(0.00081277 3.29106e-05 0)
(0.00468253 0.00815353 9.01435e-22)
(0.000199631 0.000791791 3.33375e-19)
(8.64407e-05 -7.21094e-05 -9.14221e-19)
(4.35776e-05 -3.40614e-05 -1.16842e-18)
(0.000568921 1.28455e-05 1.89441e-20)
(0.000588379 0.000401593 0)
(0.000428742 0.000446213 -2.56266e-19)
(5.55191e-05 -6.57101e-05 1.18338e-18)
(0.00053378 -2.55336e-06 7.67152e-20)
(3.36915e-05 4.81696e-07 4.06956e-19)
(0.000735131 -3.63701e-05 1.17116e-18)
(0.000812702 3.19592e-05 -6.06234e-19)
(3.99711e-05 -5.25022e-05 1.709e-18)
(0.000840543 -5.01192e-05 -6.59469e-24)
(0.000545892 5.66782e-06 -3.74384e-20)
(0.000882788 7.20709e-05 0)
(0.000848076 5.77394e-05 0)
(0.00591442 0.00724381 2.60091e-19)
(9.76306e-06 -3.20868e-06 -1.19563e-19)
(7.79784e-05 -0.000121744 7.72829e-19)
(0.000746266 0.000113727 -6.96187e-19)
(1.21752e-05 3.55899e-07 2.01497e-19)
(0.000668149 -3.47646e-05 -7.2353e-19)
(0.000762837 3.62082e-05 1.55747e-18)
(0.000722573 0.000155556 -3.5532e-19)
(0.000807144 -1.09992e-05 3.60685e-19)
(5.55982e-05 -3.81014e-05 1.11561e-18)
(0.000802144 6.64886e-06 -3.2252e-19)
(0.000879538 3.2191e-05 0)
(0.000556754 0.000299858 4.20891e-20)
(0.000872074 4.71521e-05 -9.47587e-19)
(1.06024e-05 3.01617e-06 9.11361e-19)
(0.000865325 3.74685e-05 9.65963e-19)
(0.000865948 3.3217e-05 -9.63987e-19)
(0.000772656 4.65742e-06 -5.68955e-19)
(0.000564937 -8.83006e-05 -5.25445e-19)
(0.0043301 0.00745484 2.47658e-19)
(0.00422179 0.00752806 -2.78977e-19)
(0.00422009 0.0075857 2.66868e-19)
(0.00425671 0.00741196 1.98096e-19)
(0.000845156 -4.07876e-05 1.4422e-19)
(0.00447701 0.00751543 0)
(0.00440445 0.00751933 -3.87066e-19)
(1.76124e-05 -1.698e-07 -9.97912e-19)
(0.00416976 0.00746823 -6.33973e-20)
(0.00414528 0.0074315 -2.21628e-19)
(0.00602927 0.0106047 0)
(0.00654023 0.0111866 3.71768e-20)
(0.0060092 0.0105744 0)
(0.00655592 0.0112102 1.31048e-19)
(0.00599668 0.0105985 2.6974e-19)
(0.00659262 0.0112271 1.24827e-20)
(0.00593561 0.0106111 -7.76979e-19)
(0.0066229 0.0111461 8.17602e-21)
(0.00390345 0.00919696 -1.90826e-19)
(0.00418595 0.00748744 3.87567e-21)
(0.00423675 0.00755092 7.93962e-20)
(0.00414977 0.0074338 4.12258e-20)
(0.000901588 0.000198336 4.46579e-20)
(5.37171e-06 7.2972e-07 0)
(0.000736233 -9.14832e-05 0)
(0.000656907 5.90296e-05 0)
(0.00244781 0.0011196 4.23796e-21)
(0.000759305 -2.97681e-05 1.72516e-19)
(3.26145e-05 3.61933e-06 4.53908e-20)
(3.47466e-06 -1.84815e-05 1.6524e-18)
(0.000868012 -1.46284e-07 0)
(2.2501e-05 9.55943e-06 -1.91665e-19)
(0.00013896 0.000211701 0)
(8.25853e-06 -7.11091e-07 0)
(6.13768e-06 -7.01383e-07 0)
(0.000844091 0.000152032 1.1374e-20)
(0.000810953 -1.7404e-05 1.79562e-19)
(3.90454e-05 0.00024968 -7.40995e-24)
(0.000155887 0.000263052 -1.84147e-18)
(0.000617379 0.000324937 -8.5676e-20)
(0.000907451 0.000117341 6.01586e-19)
(0.000569369 -0.00012478 6.75209e-19)
(0.000358537 0.00111885 0)
(0.000485033 0.000575273 2.71468e-18)
(8.72833e-05 0.000133747 -1.80264e-18)
(1.1388e-05 -3.86064e-07 0)
(0.000823141 -6.48119e-05 3.64059e-20)
(1.25923e-05 2.88764e-05 1.64398e-18)
(0.000891125 3.67872e-05 2.71026e-19)
(-3.04328e-05 0.000100976 3.80858e-18)
(0.000923069 4.29206e-05 -2.68893e-19)
(0.00132939 0.000159331 7.47369e-19)
(2.54213e-05 -8.90283e-06 8.25436e-20)
(2.72743e-05 1.5597e-06 -8.58827e-19)
(5.0597e-05 0.000130034 0)
(0.00092494 9.25247e-05 5.98225e-19)
(0.000502736 0.000365325 2.37084e-19)
(0.000593589 1.70039e-05 -3.88911e-20)
(0.000794099 1.19156e-05 2.57138e-19)
(0.000724687 -0.000119431 0)
(0.00632035 0.0108954 -1.68208e-19)
(0.0063787 0.0109728 4.06042e-19)
(0.00616009 0.0107297 -6.18661e-19)
(0.00650124 0.0111319 -8.10321e-20)
(3.03915e-05 0.000107994 8.00293e-19)
(0.000933923 6.251e-05 1.44145e-22)
(0.00641131 0.0110053 -3.86659e-19)
(0.0062814 0.0108452 5.48543e-19)
(0.00608014 0.0106715 -4.1691e-19)
(0.00652175 0.0111643 -6.81883e-20)
(7.80558e-05 0.000483003 -2.01785e-20)
(3.23034e-05 -0.000182008 -7.92782e-19)
(0.00062485 -1.83727e-05 -7.67169e-19)
(0.00073618 0.000219331 0)
(0.000800299 2.75425e-07 0)
(0.000191441 0.000382309 3.36223e-19)
(0.00060606 0.000511275 -5.41733e-19)
(3.54947e-06 -6.35633e-07 1.78337e-19)
(0.000200987 0.000464905 -7.38237e-19)
(0.00102711 0.000981144 -1.12674e-19)
(0.000760777 0.000167345 0)
(0.000801033 0.000184503 1.3098e-19)
(0.00634726 0.0058839 1.13235e-18)
(0.000734158 0.00113057 8.26523e-20)
(3.3432e-05 3.20379e-05 -7.44457e-20)
(0.000808825 1.1796e-05 0)
(0.000867725 1.99113e-05 -3.56805e-20)
(2.60618e-05 1.5099e-06 -1.96685e-19)
(2.28961e-05 2.79111e-06 1.92944e-19)
(0.000835177 1.04862e-05 5.37033e-19)
(0.000993461 0.000115424 6.579e-19)
(0.000524974 5.093e-05 0)
(0.0002198 -0.000247073 -4.00114e-19)
(0.000923899 0.000143535 3.89453e-19)
(-1.35458e-06 -3.80055e-05 2.02942e-19)
(0.00145564 0.000446531 -2.57994e-18)
(0.000547351 -1.63093e-05 0)
(0.000806305 0.000141791 3.75348e-19)
(9.7255e-05 0.000381782 0)
(0.00118926 0.00816134 4.62084e-19)
(0.000500456 0.000495808 -1.22426e-18)
(0.000541995 0.00101862 -1.83717e-19)
(0.000892526 1.09481e-05 -1.46014e-19)
(9.51105e-06 2.03069e-05 0)
(0.000967873 7.92889e-05 6.11387e-19)
(0.00410589 0.00739475 8.14849e-20)
(0.00417059 0.00747276 4.73389e-20)
(0.00450075 0.00751812 4.54228e-19)
(0.00444599 0.00754395 -3.29135e-19)
(0.00647515 0.0111088 8.11093e-20)
(0.0039147 0.00714585 -9.36165e-22)
(0.00550716 0.00780075 -5.64919e-19)
(0.0040977 0.00737135 5.22068e-21)
(0.00518869 0.00786066 5.11853e-19)
(0.00407946 0.00733969 -4.87743e-20)
(0.00495411 0.00772022 0)
(0.00408464 0.00736394 -8.57327e-20)
(0.00474303 0.0075911 4.92677e-19)
(0.00409789 0.00737555 8.75795e-20)
(0.0045758 0.00753067 0)
(0.00428463 0.00742244 1.39825e-19)
(0.00423826 0.00759722 5.80514e-19)
(0.00446848 0.00752945 -5.54465e-19)
(0.0043887 0.00750677 3.71492e-19)
(0.00422692 0.00752399 3.23002e-19)
(0.00643049 0.0110421 -4.97727e-21)
(0.00411732 0.00740086 3.11806e-20)
(0.00645863 0.011072 0)
(1.84388e-05 3.78844e-06 -1.89803e-19)
(0.00200304 0.00654782 2.28176e-19)
(0.000838447 -6.3132e-05 1.09561e-19)
(0.000850227 -2.30663e-06 0)
(3.87912e-07 1.29091e-07 -3.98988e-19)
(-4.10299e-05 -5.62369e-05 6.91074e-19)
(2.23639e-05 4.92968e-05 2.08844e-18)
(0.00084437 0.000190458 -9.00382e-20)
(0.000801794 8.33416e-06 7.06173e-19)
(-3.51648e-07 5.41442e-07 3.09892e-19)
(1.06092e-05 -2.47436e-05 -1.84501e-18)
(0.000763436 2.64566e-05 1.63105e-19)
(0.000876947 0.000127 -3.07884e-20)
(0.000801146 -6.55904e-06 1.48085e-19)
(0.000440945 0.00067805 0)
(-9.19939e-06 -0.000123821 1.15094e-18)
(0.000879743 -4.59879e-06 1.52487e-19)
(1.68391e-05 1.95494e-05 0)
(0.000121329 0.000550798 -6.31146e-19)
(0.000616192 0.00058168 1.31741e-18)
(0.000338428 0.000758088 0)
(0.000802165 -1.35739e-05 0)
(0.000801878 3.17214e-06 1.17694e-18)
(1.3789e-05 4.19737e-05 -3.51398e-18)
(1.25633e-05 4.85332e-06 3.73511e-19)
(0.000116474 0.000132342 0)
(2.89546e-05 -3.69533e-05 0)
(5.74127e-05 0.000102764 2.00943e-19)
(0.000945661 0.00019045 3.50317e-19)
(0.000802235 1.57031e-05 -1.37953e-18)
(1.9494e-05 2.76357e-05 0)
(0.00039634 1.24054e-06 -6.04693e-20)
(0.000799032 3.49222e-05 -1.56307e-19)
(0.000853371 5.34325e-05 1.06536e-18)
(0.000250486 0.000542861 6.32097e-19)
(0.000887193 0.000158879 0)
(1.06074e-05 -1.72295e-05 5.38453e-19)
(8.30941e-07 -8.40587e-07 -3.19867e-19)
(0.000931681 3.60108e-05 0)
(0.00105054 0.00227227 0)
(0.000893478 4.953e-06 0)
(0.00101067 0.000209752 4.27031e-19)
(0.000819201 -3.73282e-05 -2.84185e-19)
(0.000947428 0.000116924 -6.84543e-19)
(0.000801286 3.81438e-06 0)
(3.9075e-05 6.01332e-05 -1.71518e-19)
(0.000174778 0.000319809 1.0809e-18)
(0.000801467 1.41726e-05 -2.57063e-23)
(0.00111341 0.000208375 -6.68413e-19)
(0.00108697 0.000130178 0)
(1.54457e-06 2.82927e-06 2.50952e-19)
(1.20699e-05 -1.0849e-05 -1.94255e-19)
(0.000546887 5.08511e-05 6.94832e-21)
(-1.43607e-05 -4.90269e-05 0)
(0.00108115 0.000258015 9.49615e-19)
(0.00502888 0.00974829 -2.82901e-19)
(0.00312171 0.00961653 1.27263e-18)
(3.89083e-06 -8.48127e-05 -1.91269e-19)
(2.7318e-05 -6.73044e-05 1.8588e-18)
(0.001194 0.000261442 1.67293e-19)
(0.0013324 0.00107492 2.34039e-19)
(0.000810481 4.14418e-06 -7.37038e-19)
(0.000202638 0.000947194 -2.38203e-19)
(0.000819854 0.000946907 -2.18537e-19)
(0.000800433 -1.85628e-06 0)
(8.12941e-05 0.000604491 0)
(9.39946e-05 0.000273329 -3.41909e-23)
(0.000721221 -4.86761e-05 -1.67032e-23)
(0.00082838 6.9406e-05 1.5256e-19)
(0.00263397 0.00206891 -1.23126e-18)
(0.00176103 0.00923807 -1.17207e-19)
(0.000833468 7.63388e-05 4.91895e-19)
(0.00631592 0.00405415 -1.76294e-19)
(0.0067208 0.0115569 -1.3674e-20)
(0.00473395 0.00784359 4.94105e-21)
(0.000806634 1.37968e-05 -2.18238e-18)
(0.00084514 -1.47975e-06 8.50848e-24)
(3.77084e-06 -4.28661e-06 -3.47912e-19)
(4.42585e-05 7.96928e-05 -3.49182e-19)
(6.04172e-05 0.000255419 8.75141e-19)
(7.78475e-06 1.23816e-05 4.90263e-19)
(8.98993e-05 0.000218649 3.69678e-19)
(0.000818242 1.33495e-05 0)
(0.0053483 0.00949242 1.94845e-20)
(0.00155077 0.000641298 -2.61135e-20)
(0.000818885 4.16897e-05 3.6007e-19)
(6.40421e-06 -6.62806e-05 0)
(0.00184936 0.000749869 5.45908e-19)
(6.25757e-06 5.02532e-06 -2.70076e-19)
(2.90018e-05 2.33188e-05 9.71539e-20)
(0.001337 0.00139916 6.36562e-19)
(0.000740531 4.98091e-05 1.83052e-19)
(6.0325e-07 -3.76268e-07 -1.7015e-19)
(0.00206675 0.00156397 -1.05564e-18)
(0.000126996 0.000167196 -8.18576e-19)
(0.00392003 0.00848915 -1.09091e-18)
(2.31938e-06 7.12194e-07 8.81174e-20)
(8.6324e-05 -2.00639e-05 -1.2582e-18)
(2.85984e-05 -5.11566e-05 4.05518e-20)
(0.00153513 0.000989525 0)
(0.00104508 0.000143797 -3.98286e-22)
(0.000457781 0.000844374 -4.02e-20)
(0.000803714 2.75081e-05 -2.34009e-19)
(8.68002e-05 0.000173774 7.3589e-19)
(1.35924e-05 -4.85342e-05 4.03868e-19)
(1.50674e-05 1.19628e-05 -9.46829e-20)
(2.7114e-05 8.11103e-05 -3.20202e-19)
(0.000216048 -0.000137731 -5.45786e-19)
(0.00325233 0.00346931 2.88545e-21)
)
;

boundaryField
{
    back
    {
        type            empty;
    }
    ingreso
    {
        type            fixedValue;
        value           uniform (0.0008 0 0);
    }
    salida
    {
        type            zeroGradient;
    }
    front
    {
        type            empty;
    }
    defaultFaces
    {
        type            noSlip;
    }
}


// ************************************************************************* //
