/*--------------------------------*- C++ -*----------------------------------*\
  =========                 |
  \\      /  F ield         | OpenFOAM: The Open Source CFD Toolbox
   \\    /   O peration     | Website:  https://openfoam.org
    \\  /    A nd           | Version:  8
     \\/     M anipulation  |
\*---------------------------------------------------------------------------*/
FoamFile
{
    version     2.0;
    format      ascii;
    class       volScalarField;
    location    "1.4";
    object      p;
}
// * * * * * * * * * * * * * * * * * * * * * * * * * * * * * * * * * * * * * //

dimensions      [0 2 -2 0 0 0 0];

internalField   nonuniform List<scalar> 
4320
(
4.70235e-06
1.21713e-06
4.46641e-06
1.71021e-05
1.71716e-05
3.32386e-06
1.89483e-06
9.48577e-06
1.50293e-05
1.69214e-06
3.96368e-06
1.03479e-05
3.78848e-06
7.21518e-06
1.61285e-05
5.24287e-06
1.12069e-05
1.73057e-05
4.14761e-06
4.87118e-06
4.50741e-06
8.07612e-06
1.68391e-05
4.26908e-06
1.1292e-05
1.17642e-05
1.09588e-05
1.20681e-05
4.423e-06
1.72022e-05
1.34048e-05
1.01363e-05
6.75538e-06
9.73931e-06
2.28535e-06
1.56937e-06
4.32598e-06
1.24981e-06
1.7002e-05
5.64001e-06
6.34305e-06
1.32366e-05
1.70016e-05
1.22796e-05
1.6621e-05
1.26236e-05
2.42824e-07
7.33191e-06
1.6403e-05
5.81765e-06
3.97895e-06
4.32392e-06
1.7184e-05
1.62717e-05
1.5016e-05
9.68769e-06
1.86718e-06
9.49771e-06
-5.4097e-08
1.70917e-05
4.68921e-06
2.57507e-06
2.92401e-06
5.43275e-06
1.72538e-05
4.10863e-06
1.7039e-05
3.39288e-06
7.98047e-06
9.96246e-07
9.059e-06
1.09103e-05
1.19739e-05
1.36654e-05
6.19779e-06
8.70182e-06
1.53e-06
1.64494e-05
1.71002e-05
1.71503e-05
3.48338e-06
8.27308e-06
1.21296e-05
1.09438e-05
1.71078e-05
2.20722e-06
1.71144e-05
5.84227e-06
1.717e-05
9.97798e-06
1.68219e-05
3.32142e-06
1.67219e-05
1.71109e-05
5.009e-06
3.16078e-06
1.22885e-05
5.05828e-06
1.12655e-05
1.60992e-05
1.71172e-05
6.57618e-06
3.15292e-06
7.18938e-06
4.81458e-07
1.23817e-05
1.30295e-05
1.71619e-05
1.67485e-05
1.07607e-05
1.75183e-05
4.78848e-06
1.33164e-05
5.18354e-06
1.21918e-05
2.00851e-06
1.64266e-05
1.59852e-05
1.714e-05
7.34496e-07
1.32959e-05
1.18315e-05
1.87497e-06
1.63107e-05
6.44454e-06
6.03162e-06
3.68213e-06
6.7696e-06
1.22305e-05
9.90884e-06
1.34937e-05
8.75625e-06
4.87791e-06
7.31227e-06
1.68113e-05
1.7101e-05
4.04413e-06
1.71143e-05
6.88632e-06
1.71696e-05
3.12085e-06
2.98687e-06
2.69449e-07
-3.00622e-08
1.67365e-05
1.35512e-05
7.68768e-06
1.70809e-05
6.75404e-06
4.20751e-07
5.62583e-06
6.88975e-07
1.65384e-05
1.62593e-05
3.00712e-06
2.29404e-06
1.6892e-05
1.6368e-05
1.70893e-05
2.75086e-06
1.71224e-05
1.18162e-05
1.08084e-06
1.68746e-06
1.24336e-05
2.40195e-06
1.13875e-05
1.64827e-05
1.39125e-05
1.42264e-05
6.98198e-06
3.18863e-06
1.96536e-06
1.20133e-06
1.71468e-05
1.66332e-05
1.68547e-05
1.36e-05
1.33924e-05
3.43334e-06
1.6952e-05
1.38323e-05
1.69946e-05
1.73629e-05
1.63145e-05
1.5987e-05
1.71301e-05
8.16587e-07
4.7069e-06
1.68606e-05
1.96311e-06
8.57794e-06
1.70956e-05
2.24898e-06
1.73059e-05
1.28938e-05
1.1878e-05
1.71604e-06
3.08376e-06
6.00887e-06
1.6946e-05
5.18228e-06
1.11276e-05
7.85218e-06
1.42496e-05
1.23787e-05
1.99795e-06
1.71199e-05
1.41041e-05
1.72886e-05
7.15481e-06
1.7118e-05
1.67367e-05
1.71269e-05
1.71195e-05
1.71298e-05
1.71123e-05
1.712e-05
1.71485e-05
1.66068e-05
1.71542e-05
3.28547e-06
1.71006e-05
1.44531e-05
1.19359e-05
1.69443e-05
1.63407e-05
1.57523e-05
1.68868e-05
1.7799e-05
1.36185e-05
1.65265e-05
1.10535e-05
7.50439e-06
1.31302e-05
1.71077e-05
1.30185e-05
5.99698e-06
2.5636e-06
7.76813e-06
1.67828e-05
1.64027e-05
1.47982e-05
4.67567e-06
3.83932e-06
1.88027e-07
1.69789e-05
1.70959e-05
7.03843e-06
5.79845e-06
1.18174e-05
1.04455e-06
9.79033e-06
1.09858e-05
1.08686e-05
3.92715e-06
1.71243e-05
1.68578e-06
1.18666e-05
1.21168e-06
3.52369e-06
1.64562e-05
7.84802e-06
7.38522e-06
1.70595e-05
6.38719e-06
1.72166e-05
1.74589e-06
1.59075e-05
1.70502e-05
8.08889e-06
1.7132e-05
3.08302e-06
1.23478e-05
1.69986e-05
1.20999e-05
1.70926e-05
8.71271e-06
1.71029e-05
1.71352e-05
1.71188e-05
1.36188e-05
1.13535e-05
1.71847e-05
8.74641e-06
1.24651e-05
1.24018e-05
1.71271e-05
1.07231e-05
1.61786e-05
1.09015e-05
8.57805e-06
1.71211e-05
2.16853e-06
1.68781e-05
1.86e-06
1.19498e-05
1.6303e-06
1.39208e-05
1.35032e-05
1.71261e-05
9.01083e-06
6.28392e-06
2.29661e-06
7.29667e-06
1.6599e-05
8.79647e-06
1.54582e-06
6.10391e-06
2.92536e-06
4.73875e-06
1.07694e-05
1.617e-05
1.67334e-05
8.45986e-06
1.82049e-06
1.70678e-05
1.04469e-05
1.63842e-05
4.84699e-06
1.29852e-05
1.71295e-05
1.69982e-05
1.71362e-05
1.32641e-05
1.71503e-05
1.34841e-05
1.66359e-05
1.65048e-05
1.4692e-06
7.71261e-06
5.68181e-06
8.47716e-06
1.71226e-05
1.66061e-05
1.37433e-05
1.61224e-05
1.71222e-05
1.19169e-05
1.70803e-05
1.15424e-05
1.37998e-05
9.87781e-06
1.62469e-05
1.61575e-05
1.71538e-05
1.70085e-05
1.6898e-05
1.67415e-05
1.70971e-05
1.27246e-05
1.0745e-05
1.7109e-05
1.54224e-05
1.01066e-05
1.65054e-05
1.28312e-05
1.40133e-05
1.11029e-05
8.10955e-06
1.64235e-05
1.27729e-05
9.58662e-06
1.58822e-05
1.4018e-05
2.37467e-06
1.7118e-05
1.73499e-05
1.69735e-05
9.32621e-06
6.9642e-06
1.65666e-05
1.1483e-05
1.67544e-05
1.47178e-05
1.70239e-05
5.8253e-07
8.82573e-06
1.70933e-05
1.22083e-05
1.71172e-05
1.56455e-05
1.68363e-05
1.36928e-05
1.6836e-05
1.37679e-05
1.71132e-05
1.71153e-05
1.42391e-06
1.7125e-05
1.3462e-06
1.71321e-05
1.71043e-05
1.70992e-05
1.28249e-05
1.71455e-05
5.35415e-06
1.53353e-05
1.40657e-05
1.06252e-05
1.59599e-05
1.64129e-05
1.6432e-05
1.71874e-05
1.71365e-05
1.56694e-05
1.39659e-05
1.02576e-05
1.37099e-06
1.07722e-05
1.48092e-05
1.66812e-05
1.62478e-05
1.70899e-05
1.34852e-05
1.70993e-05
8.36874e-06
1.7367e-05
1.61256e-05
1.58474e-05
8.23562e-07
1.71068e-05
1.34449e-05
1.70645e-05
4.29873e-06
1.67686e-05
1.51162e-05
1.64291e-05
1.71202e-05
1.74209e-05
1.6965e-05
1.09177e-05
1.71001e-05
1.69528e-05
1.61556e-05
1.70936e-05
1.38524e-05
1.55257e-06
1.1112e-05
1.71273e-05
7.3956e-06
1.70928e-05
1.68625e-05
1.71224e-05
1.40227e-05
1.70643e-05
1.09969e-05
1.69211e-05
1.35997e-05
1.62504e-05
1.40646e-05
1.69299e-05
1.71152e-05
1.28876e-05
1.65851e-05
1.7132e-05
1.36346e-05
1.60353e-05
1.74484e-05
1.71167e-05
1.70716e-05
1.68572e-05
1.64021e-05
1.35215e-05
1.59167e-05
9.29309e-06
1.29707e-05
1.70253e-05
1.6478e-05
1.71272e-05
1.33354e-05
1.69782e-05
1.63673e-05
1.62481e-05
1.29712e-05
7.41097e-06
9.3897e-06
1.70449e-05
1.53649e-05
1.71229e-05
1.18697e-05
1.71143e-05
1.12327e-05
1.71177e-05
1.70943e-05
1.66351e-05
1.35868e-05
1.37754e-05
1.73779e-05
1.29048e-05
1.64011e-05
1.70935e-05
1.31938e-05
1.68031e-05
1.7831e-05
1.69968e-05
1.22784e-05
1.68862e-05
1.70171e-05
1.65471e-05
1.63527e-05
1.49893e-05
1.09508e-05
1.65677e-05
1.61549e-05
1.04914e-05
8.92661e-06
1.31329e-05
9.00019e-06
1.70857e-05
1.02819e-05
1.67254e-05
2.34426e-06
1.50446e-05
4.11119e-06
4.06088e-06
1.34875e-06
1.41871e-06
1.45952e-05
1.68482e-05
1.1705e-05
1.70979e-05
1.1798e-05
1.70862e-05
1.62925e-05
1.70221e-05
1.65607e-05
1.51121e-05
1.1493e-06
1.64903e-05
1.68592e-05
1.66053e-05
1.71183e-05
1.36026e-05
1.69863e-05
1.3277e-05
1.74237e-05
2.45928e-06
1.71836e-05
1.31027e-05
1.70908e-05
1.27297e-05
1.58214e-05
1.71391e-05
1.68027e-05
2.2043e-06
1.36204e-05
1.67074e-05
1.70869e-05
1.67647e-05
1.6782e-05
1.71181e-05
1.66566e-05
1.70786e-05
1.74109e-06
1.59993e-05
1.31789e-05
9.69145e-06
1.6888e-05
1.71649e-05
1.24208e-05
3.27824e-06
1.71309e-05
1.68537e-05
1.31114e-05
1.02658e-05
1.57241e-05
1.71205e-05
1.70794e-05
1.31728e-05
1.67797e-05
1.71331e-05
1.69566e-05
1.69917e-05
1.69939e-05
1.31741e-05
1.71174e-05
1.7097e-05
1.71375e-05
1.69569e-05
1.33876e-05
1.70111e-05
1.69004e-05
1.35824e-05
1.71134e-05
1.6764e-05
1.66402e-05
1.30814e-05
1.71264e-05
1.70663e-05
1.30904e-05
1.24938e-05
1.69435e-05
3.86868e-06
1.71112e-05
1.6926e-05
1.21746e-06
1.2623e-05
1.68026e-05
1.33664e-05
1.71249e-05
1.6858e-05
1.71568e-05
1.68943e-05
1.69269e-05
1.67908e-05
1.71977e-05
1.69867e-05
1.71314e-05
1.72437e-05
1.0621e-05
1.68922e-05
1.3069e-05
1.24503e-05
2.17235e-06
1.7031e-05
1.71768e-05
1.71218e-05
1.73841e-05
1.71133e-05
1.70951e-05
1.71223e-05
1.6895e-05
1.01014e-05
1.71145e-05
9.00458e-06
1.71463e-05
1.73482e-05
1.71114e-05
1.66953e-05
6.17353e-06
1.19968e-05
1.33346e-05
8.52585e-06
1.71249e-05
1.65946e-05
1.71689e-05
1.71198e-05
1.703e-05
1.71155e-05
1.44989e-05
1.65838e-05
1.2923e-05
1.15059e-06
1.94209e-06
1.73879e-05
1.70812e-05
4.41398e-06
1.28946e-05
1.68885e-05
2.04412e-06
1.66281e-05
1.71167e-05
1.62965e-05
1.26072e-05
1.70984e-05
1.01304e-05
1.16944e-05
1.74475e-05
5.98623e-06
1.71398e-05
1.20704e-05
1.31944e-05
1.71092e-05
1.71843e-05
1.25986e-05
1.71561e-05
1.21987e-05
1.72708e-05
1.70665e-05
1.71169e-05
1.74429e-05
1.68264e-05
1.68781e-05
1.24712e-05
1.71009e-05
1.69824e-05
1.71341e-05
1.16993e-05
1.69929e-05
1.60248e-05
1.29188e-05
1.27878e-05
1.72533e-05
1.69771e-05
1.7096e-05
1.71236e-05
1.70319e-05
1.7103e-05
1.7115e-05
1.27492e-05
1.6969e-05
1.70779e-05
1.2925e-05
1.62447e-05
1.71235e-05
1.71116e-05
1.71197e-05
1.72934e-05
1.69294e-05
1.30483e-05
1.74164e-05
1.71274e-05
1.70767e-05
1.714e-05
1.70829e-05
1.71376e-05
1.63726e-05
1.71141e-05
1.61238e-05
1.78736e-05
6.25264e-06
1.7071e-05
1.55406e-05
1.2555e-05
1.70738e-05
1.32141e-05
1.71714e-05
1.70463e-05
1.7046e-05
1.27497e-05
1.69351e-05
1.18335e-05
1.71719e-05
9.96631e-06
1.7461e-05
1.69516e-05
1.08895e-05
1.71912e-05
1.70125e-05
1.71133e-05
1.72699e-05
1.7088e-05
1.73763e-05
1.72304e-05
1.24815e-05
1.72969e-05
1.70633e-05
3.31683e-06
4.0438e-06
1.75773e-05
1.77957e-05
1.69309e-05
1.20535e-05
1.7135e-05
1.71248e-05
1.63697e-05
1.23784e-05
1.71131e-05
1.70837e-05
3.46044e-06
1.00657e-05
1.71198e-05
1.73926e-05
1.70755e-05
1.24083e-05
1.2571e-05
1.23183e-05
1.24531e-05
1.69167e-05
1.69684e-05
1.71781e-05
1.18262e-05
1.28738e-05
1.81832e-06
1.23814e-05
1.75383e-05
1.7119e-05
1.71162e-05
1.71157e-05
3.29334e-06
1.69064e-05
1.23642e-05
1.29124e-05
4.48189e-06
1.70739e-05
1.74492e-05
1.7086e-05
1.24459e-05
1.71079e-05
1.21277e-05
1.31698e-05
1.7264e-05
1.71065e-05
1.74622e-05
1.71139e-05
1.70312e-05
1.71791e-05
1.54113e-05
1.71103e-05
1.20051e-05
1.24802e-05
1.75649e-05
1.77033e-05
1.26653e-05
1.70936e-05
1.21835e-05
1.27801e-05
1.20563e-05
1.71207e-05
1.70926e-05
1.71128e-05
1.71167e-05
2.04673e-06
1.70486e-05
1.71869e-05
1.71231e-05
1.17522e-05
1.70848e-05
1.67339e-05
1.74313e-05
1.70744e-05
1.71131e-05
1.72914e-05
1.72212e-05
1.69943e-05
1.71164e-05
1.66295e-06
1.70895e-05
1.71031e-05
1.22997e-05
1.7083e-05
1.71027e-05
1.24623e-05
1.21232e-05
1.25647e-05
1.10358e-05
1.71104e-05
1.68084e-05
1.70457e-05
1.71132e-05
1.22074e-05
1.71619e-05
1.70691e-05
1.25665e-05
1.20902e-05
1.70985e-05
1.71171e-05
9.96983e-06
1.2501e-05
1.23065e-05
1.7106e-05
1.20008e-05
1.71131e-05
1.71126e-05
1.71383e-05
1.24268e-05
1.71141e-05
1.7043e-05
1.70981e-05
1.22719e-05
1.71152e-05
3.45835e-06
1.71108e-05
1.69985e-05
1.71307e-05
1.71072e-05
1.71189e-05
1.71103e-05
1.70416e-05
1.71025e-05
1.71497e-05
1.71e-05
1.71209e-05
1.72131e-05
1.70867e-05
1.70746e-05
1.7114e-05
1.73949e-05
1.15294e-05
1.70598e-05
1.72362e-05
1.71051e-05
1.23335e-05
1.18902e-05
1.70994e-05
1.70763e-05
1.71061e-05
1.70963e-05
1.73961e-05
1.71337e-05
1.70705e-05
1.23058e-05
1.71116e-05
1.70918e-05
1.71081e-05
1.72245e-05
1.22393e-05
1.71081e-05
1.71113e-05
1.26174e-05
1.59801e-05
1.70414e-05
1.16694e-05
1.72488e-05
1.70777e-05
1.18404e-05
1.2386e-05
1.7083e-05
1.73687e-05
1.71016e-05
1.71061e-05
1.27077e-05
1.71616e-05
1.70754e-05
1.70696e-05
1.70863e-05
1.2044e-05
1.70838e-05
1.70796e-05
1.21234e-05
1.71235e-05
1.71065e-05
1.16204e-05
1.70579e-05
1.70818e-05
1.24815e-05
1.70975e-05
1.22611e-05
1.6966e-05
1.17875e-05
1.71173e-05
1.69439e-05
1.71264e-05
1.71355e-05
1.13493e-05
1.70863e-05
1.74747e-05
1.70837e-05
1.7121e-05
1.19566e-05
1.21744e-05
1.70922e-05
1.21209e-05
1.71117e-05
1.16961e-05
1.15788e-05
1.1922e-05
1.71291e-05
1.71132e-05
1.70408e-05
1.70927e-05
1.7094e-05
1.70898e-05
1.19468e-05
1.17861e-05
1.70723e-05
1.20673e-05
1.2199e-05
1.1761e-05
1.14923e-05
1.70876e-05
1.70172e-05
1.24836e-05
1.73401e-05
1.70853e-05
1.70929e-05
1.71061e-05
1.18735e-05
1.70923e-05
1.70776e-05
1.22926e-05
1.71177e-05
1.05254e-05
1.71144e-05
1.71078e-05
3.78868e-06
1.7066e-05
1.70735e-05
1.7088e-05
1.71198e-05
1.70905e-05
1.14195e-05
1.17008e-05
1.70708e-05
1.21414e-05
1.71151e-05
1.71117e-05
1.71908e-05
1.70799e-05
1.66629e-05
1.10461e-05
1.70613e-05
1.70318e-05
1.20127e-05
1.15833e-05
1.17146e-05
1.63001e-05
1.70759e-05
1.71224e-05
1.1634e-05
1.14979e-05
1.71214e-05
1.14915e-05
1.13017e-05
1.11691e-05
1.70975e-05
1.70997e-05
1.74213e-05
1.18299e-05
1.06224e-05
7.93707e-06
1.71255e-05
1.70493e-05
1.71791e-05
1.13108e-05
1.70785e-05
1.13684e-05
1.70999e-05
5.26997e-06
5.41729e-06
1.70942e-05
1.12117e-05
1.12719e-05
1.71049e-05
1.13678e-05
1.11819e-05
1.11158e-05
1.08094e-05
1.70934e-05
1.10974e-05
1.79067e-05
1.12006e-05
1.148e-05
1.70553e-05
1.71061e-05
1.10701e-05
1.10099e-05
1.11975e-05
1.13432e-05
1.10116e-05
1.28535e-05
1.11574e-05
1.13088e-05
1.08875e-05
1.11741e-05
1.70653e-05
1.09132e-05
1.11082e-05
1.11537e-05
1.11737e-05
1.05978e-05
1.13594e-05
1.09799e-05
1.74345e-05
1.70854e-05
1.78138e-05
1.2246e-05
1.07844e-05
1.06367e-05
1.1291e-05
1.26212e-05
1.05412e-05
1.09756e-05
1.07115e-05
1.08765e-05
1.08044e-05
1.10453e-05
1.09954e-05
1.10933e-05
1.10599e-05
9.69723e-06
1.13294e-05
1.07975e-05
1.09411e-05
1.04859e-05
4.34939e-06
1.06263e-05
1.67225e-05
9.87378e-06
1.03673e-05
1.73799e-05
1.02619e-05
1.06197e-05
1.78509e-05
1.05307e-05
1.09822e-05
1.18854e-05
1.01319e-05
1.07303e-05
1.07689e-05
1.01945e-05
1.06663e-05
1.06484e-05
1.04422e-05
1.08947e-05
1.04146e-05
9.91919e-06
9.51276e-06
9.6164e-06
1.70984e-05
1.00881e-05
9.35974e-06
1.0248e-05
1.05413e-05
1.09251e-05
1.01375e-05
1.0335e-05
1.00445e-05
7.76077e-06
9.42712e-06
9.66777e-06
1.07407e-05
1.00308e-05
1.0912e-05
8.61826e-06
1.0083e-05
9.5991e-06
1.00694e-05
1.12332e-05
9.77358e-06
5.09394e-06
9.9175e-06
9.15567e-06
9.87293e-06
9.78229e-06
1.01481e-05
1.02817e-05
9.30272e-06
9.53253e-06
8.86793e-06
9.80806e-06
8.70982e-06
9.99344e-06
9.07933e-06
9.8858e-06
9.51809e-06
8.50384e-06
9.41905e-06
1.0011e-05
9.59982e-06
9.12712e-06
9.83006e-06
9.61336e-06
9.64849e-06
9.68424e-06
1.00591e-05
9.6858e-06
9.76411e-06
9.26626e-06
9.71345e-06
1.03718e-05
9.72557e-06
9.51748e-06
1.03573e-05
9.4213e-06
9.15829e-06
1.00223e-05
9.68574e-06
9.51619e-06
9.77895e-06
9.3897e-06
9.23826e-06
1.05148e-05
9.18948e-06
9.93503e-06
9.18174e-06
9.36709e-06
1.06867e-05
9.39319e-06
9.4097e-06
9.38503e-06
9.86046e-06
9.46994e-06
9.46239e-06
9.06392e-06
9.05584e-06
8.86099e-06
9.39121e-06
9.58201e-06
9.3344e-06
9.47763e-06
9.88646e-06
8.87863e-06
8.80022e-06
9.7886e-06
9.0563e-06
8.87975e-06
8.45343e-06
8.98473e-06
8.77342e-06
9.5357e-06
8.43645e-06
9.20323e-06
9.2517e-06
9.94051e-06
9.0735e-06
9.23991e-06
9.53011e-06
8.6173e-06
8.70247e-06
8.87996e-06
8.97369e-06
8.66609e-06
8.60349e-06
8.63531e-06
1.00874e-05
8.58832e-06
8.52943e-06
8.7525e-06
8.62233e-06
9.03808e-06
8.32756e-06
7.92836e-06
8.39849e-06
8.90094e-06
8.29007e-06
8.37026e-06
8.37151e-06
8.72143e-06
9.20362e-06
8.6146e-06
8.78224e-06
7.72644e-06
8.69927e-06
8.45566e-06
8.20337e-06
8.20146e-06
8.85221e-06
8.46592e-06
2.3587e-06
2.4444e-06
8.5205e-06
7.92418e-06
8.28881e-06
8.58813e-06
8.13175e-06
8.90603e-06
8.3196e-06
8.19202e-06
7.44792e-06
8.17088e-06
8.39699e-06
7.99522e-06
8.00823e-06
8.78317e-06
8.55298e-06
8.47431e-06
7.99257e-06
8.48426e-06
6.83519e-06
8.23995e-06
7.22934e-06
8.29184e-06
7.78928e-06
7.85735e-06
8.62241e-06
7.61292e-06
9.275e-06
6.98006e-06
8.13192e-06
7.81717e-06
8.06553e-06
7.81134e-06
8.13771e-06
8.02442e-06
7.91261e-06
7.14516e-06
7.09378e-06
7.62968e-06
7.78268e-06
8.06549e-06
7.04308e-06
7.43652e-06
7.49543e-06
7.80725e-06
7.34607e-06
7.58972e-06
7.6641e-06
7.63777e-06
7.45692e-06
7.8283e-06
7.63886e-06
7.48865e-06
7.6161e-06
7.71886e-06
7.45005e-06
8.81323e-06
8.272e-06
7.89282e-06
7.33479e-06
7.37713e-06
8.11662e-06
7.32505e-06
7.47259e-06
7.34142e-06
7.57187e-06
6.6565e-06
7.31961e-06
7.68581e-06
7.3169e-06
7.22005e-06
6.90193e-06
7.29561e-06
6.83814e-06
7.07475e-06
7.77791e-06
6.71278e-06
7.49721e-06
7.13854e-06
6.74071e-06
7.07351e-06
7.24327e-06
7.42656e-06
7.19451e-06
6.86561e-06
7.13837e-06
7.10971e-06
7.33548e-06
7.01277e-06
7.27618e-06
7.23517e-06
6.99416e-06
6.83854e-06
6.97499e-06
6.70695e-06
8.09993e-06
6.11737e-06
7.22587e-06
5.74916e-06
5.47025e-06
7.4529e-06
7.57518e-06
7.08464e-06
4.60431e-06
6.93945e-06
5.6598e-06
5.88221e-06
6.31083e-06
6.28314e-06
6.64399e-06
4.05291e-06
6.36111e-06
7.03583e-06
6.58875e-06
5.05393e-06
5.93477e-06
6.29208e-06
6.80171e-06
6.75456e-06
4.42051e-06
7.74321e-06
4.24609e-06
7.02891e-06
6.79798e-06
6.77453e-06
3.92226e-06
8.07628e-06
5.90458e-06
5.35585e-06
6.58823e-06
6.65137e-06
6.95148e-06
6.5862e-06
4.7704e-06
4.59627e-06
6.03502e-06
5.66513e-06
6.39352e-06
6.46736e-06
4.89929e-06
6.25856e-06
6.82995e-06
6.64166e-06
5.2492e-06
6.59078e-06
6.43357e-06
4.43428e-06
6.44689e-06
6.70705e-06
7.16236e-06
6.85216e-06
6.71027e-06
5.92541e-06
6.76577e-06
6.36746e-06
6.57172e-06
6.05795e-06
6.46702e-06
5.0756e-06
6.50811e-06
6.50975e-06
5.88821e-06
6.03057e-06
6.2956e-06
5.32656e-06
6.59939e-06
6.31643e-06
6.21627e-06
6.31553e-06
6.58926e-06
6.05037e-06
6.34751e-06
6.37463e-06
6.22344e-06
6.59034e-06
6.17019e-06
6.40206e-06
6.12484e-06
6.31756e-06
6.10384e-06
5.98545e-06
6.12167e-06
6.11606e-06
6.57027e-06
6.89142e-06
5.60541e-06
6.24674e-06
6.05454e-06
6.47992e-06
5.84754e-06
6.17501e-06
6.19522e-06
5.60735e-06
6.5214e-06
6.70015e-06
6.69508e-06
5.89177e-06
6.04337e-06
6.17032e-06
5.30019e-06
5.80427e-06
5.8522e-06
4.94481e-06
5.85923e-06
5.62713e-06
5.97302e-06
5.73712e-06
5.55663e-06
6.00074e-06
5.71122e-06
5.99992e-06
5.78725e-06
5.94163e-06
4.9272e-06
5.97174e-06
4.14886e-06
5.56553e-06
7.08887e-06
5.76736e-06
5.56772e-06
6.29588e-06
4.71424e-06
5.73987e-06
5.39003e-06
5.41501e-06
5.72875e-06
5.52935e-06
5.43042e-06
5.33066e-06
5.51857e-06
5.40413e-06
5.5017e-06
5.56361e-06
5.28799e-06
5.76059e-06
6.15793e-06
5.1953e-06
5.13881e-06
4.35372e-06
4.38855e-06
5.33106e-06
5.56462e-06
7.80698e-06
5.28301e-06
5.01079e-06
5.15405e-06
4.50314e-06
5.43351e-06
5.41416e-06
4.72397e-06
4.94818e-06
5.20431e-06
5.27184e-06
5.71036e-06
4.80953e-06
5.77453e-06
5.1259e-06
4.97892e-06
6.89816e-06
4.75402e-06
4.93252e-06
3.8691e-06
4.64121e-06
4.88649e-06
5.17205e-06
4.81995e-06
5.00361e-06
4.91552e-06
4.56205e-06
4.86535e-06
4.80927e-06
3.9847e-06
4.75161e-06
4.69909e-06
4.84437e-06
4.65949e-06
4.5237e-06
5.32371e-06
4.67523e-06
4.6722e-06
4.71671e-06
4.04282e-06
4.11888e-06
4.61638e-06
4.10723e-06
4.39425e-06
4.42891e-06
4.30546e-06
4.53462e-06
4.90234e-06
4.50331e-06
4.52062e-06
4.55038e-06
4.68895e-06
4.4377e-06
5.03024e-06
4.24401e-06
4.61567e-06
4.54377e-06
4.4876e-06
4.7028e-06
4.32388e-06
4.32461e-06
4.51842e-06
4.29065e-06
4.18639e-06
4.28137e-06
4.15486e-06
4.27464e-06
4.17546e-06
4.06036e-06
3.82244e-06
3.3689e-06
4.18416e-06
4.14233e-06
4.66267e-06
4.01084e-06
3.92223e-06
4.0253e-06
4.33225e-06
4.04018e-06
4.25606e-06
3.81555e-06
4.18139e-06
3.98471e-06
4.05267e-06
3.87499e-06
3.44049e-06
4.0765e-06
3.96477e-06
4.10229e-06
3.46227e-06
3.91654e-06
3.76617e-06
3.63222e-06
3.99649e-06
3.65862e-06
3.94869e-06
4.04275e-06
4.67086e-06
3.05219e-06
3.79053e-06
3.74727e-06
3.9324e-06
3.41752e-06
3.33038e-06
2.90586e-06
3.48041e-06
3.59369e-06
3.91751e-06
3.48218e-06
5.2459e-06
3.62267e-06
3.75743e-06
3.67779e-06
3.25145e-06
3.45093e-06
3.75123e-06
3.26208e-06
3.51878e-06
2.94214e-06
3.59041e-06
3.49881e-06
3.04949e-06
3.21817e-06
2.38273e-06
3.15272e-06
3.23861e-06
2.88523e-06
3.25829e-06
3.36767e-06
3.66332e-06
3.11703e-06
2.91522e-06
3.1925e-06
3.37963e-06
3.26107e-06
3.29942e-06
3.88089e-06
3.06539e-06
2.79092e-06
3.86669e-06
3.18925e-06
2.84585e-06
3.16275e-06
3.15971e-06
2.96578e-06
2.53299e-06
3.09994e-06
3.07271e-06
2.9171e-06
1.80027e-06
2.82557e-06
1.95351e-06
2.70278e-06
2.93068e-06
2.31516e-06
2.77468e-06
3.36197e-06
3.12888e-06
3.05299e-06
2.83578e-06
2.9844e-06
3.42326e-06
2.77653e-06
2.82346e-06
1.19461e-05
7.75353e-06
2.71991e-06
2.49267e-06
6.55972e-06
2.94557e-06
2.51423e-06
2.5907e-06
7.90147e-06
1.08266e-05
2.6472e-06
1.31711e-05
1.06735e-05
1.96744e-06
2.46667e-06
1.24763e-05
2.56215e-06
2.15219e-06
2.23971e-06
2.57712e-06
2.11297e-06
1.08725e-05
2.38434e-06
2.43175e-06
2.53217e-06
8.11518e-06
2.27014e-06
9.40658e-06
3.69779e-06
8.76558e-06
1.06705e-05
1.54876e-06
1.33043e-05
3.44204e-06
2.2688e-06
1.25971e-05
1.01768e-05
1.78412e-06
8.88358e-06
5.49914e-06
2.07521e-06
1.62967e-06
2.4987e-06
2.81173e-06
2.29526e-06
1.37215e-05
1.14477e-05
3.28132e-06
1.04726e-05
8.83431e-06
1.17818e-06
1.63762e-06
1.21944e-05
2.41151e-06
8.64996e-06
2.74114e-06
8.46723e-06
1.59868e-06
2.57072e-06
6.81411e-06
8.29917e-06
2.44149e-06
6.64986e-06
2.05799e-06
3.43266e-06
9.0075e-06
1.6002e-06
1.80258e-06
2.69378e-06
1.07826e-06
6.77956e-06
2.71342e-06
1.10652e-05
1.38239e-05
1.41676e-06
1.21076e-06
8.13593e-06
1.25165e-05
2.93549e-06
2.37543e-06
1.9378e-06
1.16906e-05
1.34457e-05
9.36939e-06
1.2477e-05
1.17175e-05
1.08367e-05
3.2735e-06
1.95032e-06
3.28522e-06
1.78689e-06
1.26659e-05
1.20335e-05
1.19731e-05
9.98081e-06
1.0912e-05
3.98481e-06
1.09197e-05
1.94898e-06
4.98883e-06
6.4867e-06
1.13551e-05
1.98279e-06
1.87995e-06
2.93024e-06
2.35651e-06
6.34619e-06
1.79659e-06
2.4041e-06
1.94571e-06
9.17115e-06
3.65277e-06
2.10045e-06
3.53958e-06
2.42747e-06
2.64823e-06
2.19546e-06
3.41126e-06
2.72356e-06
2.69879e-06
2.51127e-06
2.27481e-06
2.53979e-06
2.14917e-06
8.96937e-06
8.7709e-06
2.67765e-06
2.52675e-06
2.55526e-06
4.54046e-06
3.84827e-06
2.66115e-06
2.95987e-06
3.06214e-06
3.12604e-06
3.59538e-06
5.70976e-06
4.14004e-06
4.5905e-06
3.57393e-06
3.61557e-06
3.64582e-06
3.76662e-06
3.45824e-06
4.26447e-06
4.10714e-06
4.04223e-06
3.62267e-06
4.05787e-06
4.23722e-06
3.9024e-06
5.06972e-06
3.82667e-06
4.37662e-06
5.31344e-06
4.43036e-06
5.60536e-06
5.48341e-06
4.36708e-06
4.3659e-06
5.01983e-06
5.26661e-06
4.79644e-06
5.31452e-06
4.20418e-06
5.3668e-06
5.10164e-06
5.40637e-06
5.22542e-06
6.41299e-06
7.31455e-06
6.11511e-06
6.06361e-06
6.48643e-06
6.94251e-06
7.23105e-06
7.96558e-06
6.45432e-06
7.00462e-06
6.36649e-06
7.12922e-06
6.90212e-06
6.53588e-06
7.13915e-06
7.33892e-06
7.59157e-06
7.56584e-06
7.08507e-06
7.1644e-06
7.79493e-06
8.03526e-06
6.98234e-06
7.97897e-06
7.03435e-06
6.7851e-06
8.20078e-06
7.93319e-06
6.95452e-06
7.74227e-06
7.71423e-06
7.78676e-06
7.20249e-06
7.38704e-06
7.33779e-06
7.24061e-06
8.47264e-06
8.05894e-06
8.82523e-06
8.26647e-06
6.61503e-06
6.63716e-06
8.15244e-06
8.63142e-06
8.13998e-06
8.98033e-06
8.25742e-06
7.97962e-06
8.97422e-06
9.08835e-06
9.17674e-06
8.90087e-06
8.33396e-06
8.85875e-06
9.01384e-06
8.66015e-06
9.58287e-06
8.78264e-06
8.36254e-06
8.91344e-06
8.81334e-06
8.9767e-06
1.02292e-05
8.72091e-06
1.02124e-05
9.52321e-06
1.06931e-05
1.08491e-05
8.51881e-06
9.75693e-06
9.76006e-06
9.66898e-06
8.51888e-06
8.89452e-06
9.16792e-06
9.82182e-06
1.79801e-05
1.08247e-05
9.91908e-06
1.70648e-05
8.75516e-06
8.33431e-06
1.80935e-05
1.00625e-05
1.05043e-05
9.22881e-06
1.7195e-05
9.97978e-06
1.79361e-05
1.01183e-05
8.21044e-06
1.71533e-05
1.00068e-05
1.01072e-05
9.34653e-06
1.78447e-05
8.98369e-06
2.74947e-06
9.92161e-06
9.76957e-06
9.71267e-06
9.76677e-06
2.5899e-06
2.82094e-06
9.60473e-06
1.02411e-05
1.03381e-05
1.14584e-05
1.08283e-05
1.02224e-05
2.97626e-06
1.16014e-05
1.71144e-05
1.07564e-05
1.10115e-05
1.1099e-05
1.11273e-05
1.70688e-05
1.68148e-05
2.79295e-06
1.04771e-05
1.74109e-05
1.02005e-05
1.22633e-05
1.04027e-05
1.20845e-05
1.7483e-05
1.71569e-05
1.62954e-05
1.71034e-05
2.30202e-06
2.67178e-06
1.75629e-05
1.21153e-05
1.71058e-05
1.1509e-05
1.182e-05
1.12928e-05
2.53431e-06
2.04864e-06
1.7045e-05
1.70945e-05
1.20115e-05
1.71159e-05
1.7087e-05
2.03779e-06
1.11985e-05
1.21303e-05
1.71033e-05
1.71047e-05
1.70604e-05
1.31249e-05
1.74059e-05
1.22738e-05
1.70995e-05
1.67393e-05
1.71029e-05
1.14027e-05
1.75061e-05
2.12872e-06
1.74555e-05
1.75974e-05
1.71102e-05
1.71145e-05
1.19616e-05
1.70884e-05
1.70788e-05
1.71376e-05
1.7483e-05
1.74239e-05
1.21062e-05
1.70817e-05
1.7116e-05
1.7394e-05
1.73211e-05
1.70713e-05
1.71154e-05
1.17897e-05
1.23841e-05
1.74258e-05
1.71225e-05
1.28456e-05
1.70932e-05
1.19684e-05
1.33625e-05
1.70834e-05
1.71221e-05
1.74203e-05
1.74221e-05
1.70977e-05
1.70838e-05
1.22589e-05
2.9758e-06
1.17392e-05
1.70111e-05
1.741e-05
1.70802e-05
1.70849e-05
1.70877e-05
1.71164e-05
1.4721e-06
1.71149e-05
7.90259e-06
1.72511e-05
1.73764e-05
1.23337e-05
1.70855e-05
1.74377e-05
1.16195e-05
1.73597e-05
1.71249e-05
1.71237e-05
1.66682e-05
1.7088e-05
1.70872e-05
1.62488e-05
1.74663e-05
1.70849e-05
1.71095e-05
1.7091e-05
1.71795e-05
1.70873e-05
1.7168e-05
1.70698e-05
1.70951e-05
1.70879e-05
2.12838e-06
1.70998e-05
1.75099e-05
1.71151e-05
1.70861e-05
1.70399e-05
1.74348e-05
1.70829e-05
1.71218e-05
1.73781e-05
1.72051e-05
1.70374e-05
1.70873e-05
2.13205e-06
1.739e-05
1.71197e-05
1.71133e-05
2.31112e-06
2.16489e-06
1.70461e-05
1.70839e-05
1.21321e-05
1.73917e-05
1.73344e-05
1.71284e-05
1.703e-05
1.70803e-05
1.71097e-05
1.25855e-05
1.7122e-05
1.74573e-05
1.35951e-05
1.73506e-05
1.70621e-05
1.7116e-05
1.74128e-05
1.72481e-05
1.71325e-05
1.7032e-05
1.71003e-05
1.7085e-05
1.71025e-05
1.70865e-05
1.70871e-05
1.70224e-05
3.31499e-06
1.70858e-05
1.71294e-05
1.7092e-05
1.31637e-05
1.70981e-05
1.70952e-05
1.70907e-05
1.72924e-05
1.70906e-05
1.71125e-05
1.73618e-05
1.70732e-05
1.71382e-05
1.7169e-05
1.72911e-05
1.70452e-05
1.70939e-05
1.70848e-05
1.71092e-05
1.70985e-05
1.71164e-05
1.27261e-05
1.71243e-05
1.70985e-05
1.70991e-05
1.70893e-05
1.73556e-05
1.70981e-05
1.29004e-05
1.71036e-05
1.71361e-05
1.70922e-05
1.709e-05
1.71132e-05
1.70992e-05
1.71083e-05
1.71024e-05
1.72111e-05
1.7125e-05
1.70518e-05
1.7341e-05
1.71143e-05
1.70953e-05
1.71029e-05
1.7114e-05
1.70953e-05
1.7099e-05
1.70899e-05
1.71126e-05
1.26105e-05
1.75738e-05
1.70021e-05
1.34622e-05
1.70844e-05
1.7124e-05
1.68439e-05
1.71104e-05
1.19706e-05
1.70975e-05
1.71006e-05
1.71025e-05
1.71068e-05
1.73425e-05
1.71171e-05
1.70994e-05
1.71148e-05
1.71268e-05
3.76534e-06
1.70838e-05
1.71029e-05
1.71022e-05
1.71156e-05
1.70915e-05
1.70934e-05
1.70916e-05
1.73657e-05
1.71089e-05
1.71155e-05
1.71275e-05
1.71065e-05
1.71095e-05
1.71097e-05
5.56648e-06
1.72717e-05
1.71129e-05
1.71152e-05
1.70906e-05
1.70933e-05
1.70751e-05
1.70996e-05
1.71105e-05
1.71481e-05
1.70704e-05
1.71016e-05
1.71108e-05
1.71049e-05
1.71377e-05
1.74059e-05
1.29964e-05
1.7118e-05
1.70779e-05
1.71043e-05
1.7207e-05
8.22683e-06
1.70568e-05
1.70912e-05
1.73214e-05
1.71064e-05
1.70546e-05
1.70952e-05
1.72053e-05
1.71415e-05
1.72435e-05
1.70905e-05
1.71093e-05
1.01709e-05
1.71061e-05
4.01923e-06
1.7149e-05
1.7085e-05
1.70993e-05
1.70764e-05
1.7093e-05
1.70964e-05
1.7095e-05
1.73147e-05
1.33253e-05
1.70941e-05
1.22431e-05
1.67791e-05
1.71017e-05
4.78752e-06
1.70591e-05
1.69536e-05
1.69874e-05
5.95246e-06
1.71039e-05
1.71048e-05
1.70867e-05
1.40225e-05
1.71007e-05
1.11759e-05
1.74166e-05
1.71139e-05
8.6347e-06
1.71e-05
1.74142e-05
1.71829e-05
1.71326e-05
1.71648e-05
1.72333e-05
1.71487e-05
1.74129e-05
1.71057e-05
1.63285e-05
1.91082e-06
1.71899e-05
1.71025e-05
1.71013e-05
1.70271e-05
1.71068e-05
1.71148e-05
1.7098e-05
1.75115e-05
1.66275e-05
1.7318e-05
1.71135e-05
1.70862e-05
9.66194e-07
1.70917e-05
1.70934e-05
1.71053e-05
1.73313e-05
1.74218e-05
1.71268e-05
1.71106e-05
1.70413e-05
1.71376e-05
1.69618e-05
1.71125e-05
1.04008e-05
1.75033e-05
1.71115e-05
1.74969e-05
1.78177e-06
1.74729e-05
1.71075e-05
1.71137e-05
5.09008e-06
1.70965e-05
1.74073e-05
1.70943e-05
1.71122e-05
1.65366e-05
1.716e-05
1.61331e-05
1.71433e-05
1.71243e-05
1.70925e-05
1.17111e-05
1.70288e-05
1.71421e-05
1.71122e-05
1.70978e-05
1.7233e-05
1.7096e-05
1.7094e-05
2.10429e-06
1.74069e-05
1.60362e-05
1.70305e-05
1.71123e-05
1.18369e-05
1.71791e-05
1.71163e-05
1.71061e-05
3.5671e-06
1.71106e-05
1.71472e-05
1.71887e-05
8.43273e-06
1.7083e-05
1.71148e-05
1.21439e-05
1.71049e-05
1.72164e-05
8.77031e-06
1.74142e-05
1.3791e-05
1.71186e-05
1.71277e-05
1.71407e-05
1.7342e-05
1.71693e-05
8.44216e-06
1.73973e-05
1.70913e-05
1.7107e-05
1.49342e-06
1.71185e-05
1.71093e-05
1.73974e-05
1.69143e-05
8.4571e-06
1.29304e-05
1.27148e-05
1.71217e-05
1.70726e-05
1.70964e-05
1.59294e-05
1.71474e-05
1.68393e-05
1.73166e-05
1.70309e-05
1.70623e-05
1.71763e-05
7.81228e-07
1.73257e-05
1.77083e-06
1.71115e-05
1.70388e-05
1.68618e-05
1.711e-05
1.70487e-05
1.71459e-05
1.7155e-05
1.67776e-05
1.70964e-05
1.27951e-05
1.71643e-05
1.73654e-05
1.7125e-05
1.72096e-05
4.17906e-06
2.56923e-07
1.70738e-05
1.72341e-05
1.71922e-05
1.70939e-05
1.71531e-05
1.70816e-05
1.73215e-05
1.63872e-05
1.7048e-05
6.1138e-06
1.71191e-05
1.72245e-05
1.71043e-05
1.69853e-05
1.71167e-05
1.3848e-05
1.73265e-05
1.70824e-05
1.7171e-05
1.70872e-05
1.70272e-05
1.7205e-05
1.79416e-05
1.67887e-05
1.71091e-05
1.71975e-05
1.12193e-05
1.71212e-05
1.70678e-05
1.717e-05
1.70444e-05
1.70426e-05
1.70941e-05
4.38676e-06
1.72687e-05
1.45292e-06
1.70084e-05
1.71978e-05
1.71502e-05
1.72307e-05
1.71429e-05
1.9626e-06
1.72732e-05
1.71033e-05
1.71687e-05
1.69989e-05
1.09045e-05
1.71014e-05
1.26488e-05
1.07325e-05
1.70857e-05
1.7062e-05
1.71292e-05
7.41606e-06
1.71231e-05
2.90175e-06
8.00359e-06
1.71213e-05
1.71575e-05
1.63305e-05
1.63693e-05
1.38663e-05
1.70931e-05
1.66842e-05
1.70904e-05
1.7178e-05
1.69125e-05
1.72983e-05
1.71248e-05
1.70787e-05
2.81071e-06
1.70637e-05
1.70915e-05
1.71096e-05
1.70305e-05
1.80092e-06
8.58944e-06
1.70617e-05
1.69817e-05
3.41158e-06
8.61141e-06
1.73399e-05
2.0523e-06
1.36578e-05
1.69747e-05
1.75066e-05
2.51329e-06
1.23176e-05
1.71635e-05
1.70982e-05
1.42049e-05
1.71099e-05
1.91546e-06
1.72141e-05
1.23606e-05
1.72724e-05
1.66968e-05
2.01107e-06
1.70887e-05
1.65879e-05
1.72307e-05
1.70908e-05
1.7015e-05
1.71491e-05
1.71134e-05
8.48808e-06
4.23399e-06
8.24444e-06
1.09398e-05
4.11174e-06
1.70226e-05
1.7051e-05
2.07148e-06
3.7415e-06
1.6817e-05
1.72001e-05
1.21719e-06
1.05452e-05
1.70865e-05
1.71368e-05
1.6783e-05
1.70547e-05
4.34955e-06