/*--------------------------------*- C++ -*----------------------------------*\
  =========                 |
  \\      /  F ield         | OpenFOAM: The Open Source CFD Toolbox
   \\    /   O peration     | Website:  https://openfoam.org
    \\  /    A nd           | Version:  8
     \\/     M anipulation  |
\*---------------------------------------------------------------------------*/
FoamFile
{
    version     2.0;
    format      ascii;
    class       volScalarField;
    location    "1.4";
    object      p;
}
// * * * * * * * * * * * * * * * * * * * * * * * * * * * * * * * * * * * * * //

dimensions      [0 2 -2 0 0 0 0];

internalField   nonuniform List<scalar> 
17372
(
7.11035e-06
1.39298e-05
4.36759e-06
1.00445e-05
1.40187e-05
1.39488e-05
3.06507e-06
1.35257e-05
2.55456e-06
1.34824e-05
6.72372e-06
1.39784e-05
1.41358e-05
1.44652e-05
2.79051e-06
9.36432e-06
1.39769e-05
1.39891e-05
1.46585e-05
1.33831e-05
2.69765e-06
1.14349e-06
7.43832e-06
1.33955e-05
1.40331e-05
2.60415e-06
7.95572e-06
4.4338e-06
1.49402e-05
7.74789e-06
2.75776e-06
1.40088e-05
7.54097e-06
2.51617e-06
1.31405e-05
9.65657e-06
2.42518e-06
1.39771e-05
2.75185e-06
1.25841e-05
8.16143e-06
1.62109e-06
4.33764e-06
1.37111e-05
1.11243e-05
7.33727e-06
1.39743e-05
8.43807e-06
2.33332e-06
9.20636e-06
1.39314e-05
2.87608e-06
4.65676e-06
4.27192e-06
1.40077e-05
1.40047e-05
2.22888e-06
7.51937e-07
2.96077e-06
1.35757e-05
9.4135e-06
1.36821e-05
7.64395e-06
1.02073e-05
4.5183e-06
1.35359e-05
2.90434e-06
4.21107e-07
3.02672e-07
1.39683e-05
1.39563e-05
6.70455e-06
3.42599e-06
9.55518e-06
1.27748e-05
1.11046e-05
3.64736e-06
1.11301e-05
1.17298e-05
1.19041e-05
1.39664e-05
3.17963e-06
3.03634e-06
1.40171e-05
1.39546e-05
1.10232e-05
9.30129e-06
1.01164e-05
2.15473e-06
1.37012e-05
1.15629e-06
1.70352e-06
1.37233e-05
1.41005e-05
1.36122e-05
8.36463e-06
1.46974e-05
1.39797e-05
1.40098e-05
1.34753e-05
1.41126e-05
7.69974e-06
1.3973e-05
1.3519e-05
3.16335e-06
1.96914e-06
8.95714e-06
1.34708e-05
1.39997e-05
7.90682e-06
7.91573e-07
1.38902e-05
8.11261e-06
9.01418e-06
2.45453e-06
1.17199e-06
8.31639e-06
1.88266e-06
1.19664e-06
8.51864e-06
2.65538e-06
8.7187e-06
2.8596e-06
2.02185e-06
1.39627e-05
3.06205e-06
5.18739e-06
1.37028e-05
1.40123e-05
8.91662e-06
3.26498e-06
5.40613e-06
7.8517e-06
9.11013e-06
4.96742e-06
1.36899e-05
7.13308e-06
4.74771e-06
1.23922e-05
1.39953e-05
1.36367e-05
4.52848e-06
4.19965e-06
3.46792e-06
1.36774e-05
3.98474e-06
3.77493e-06
1.43985e-05
1.38697e-05
9.93694e-06
1.45555e-06
9.84549e-06
7.03972e-07
3.03572e-06
1.38579e-05
3.17423e-06
1.21997e-05
1.40156e-05
1.35983e-05
7.49287e-06
3.36644e-06
1.39951e-05
3.91684e-06
1.41058e-05
8.56676e-06
1.38064e-05
9.09146e-06
1.40616e-05
1.37278e-06
9.14439e-06
2.57892e-07
1.66793e-06
1.04366e-05
1.38732e-05
5.62479e-06
3.98897e-06
3.74371e-06
1.33602e-05
1.36634e-05
1.39962e-05
1.32332e-05
7.23913e-06
1.37197e-05
1.13991e-06
4.37133e-06
4.08266e-06
1.19992e-06
1.39986e-05
3.01362e-07
1.40223e-05
7.7324e-07
1.14163e-05
2.29871e-06
1.37287e-05
8.8176e-06
1.40087e-05
8.40746e-06
1.84029e-06
1.39289e-05
1.34119e-05
1.40084e-05
1.36324e-05
1.40554e-05
4.71531e-06
5.88916e-07
1.4019e-05
7.32984e-06
1.39618e-05
1.09068e-05
3.67061e-06
8.12642e-06
8.05874e-06
7.64297e-06
7.9303e-06
1.39795e-05
1.776e-06
7.49496e-06
1.27168e-05
1.41556e-05
9.33885e-07
4.47076e-06
1.3544e-05
1.40066e-05
1.43117e-05
3.56882e-06
1.40637e-05
9.22688e-06
1.31284e-05
1.36928e-05
7.28553e-06
1.39796e-05
7.42812e-06
1.37773e-05
1.18341e-05
1.17646e-05
1.45351e-05
1.36148e-05
1.68214e-06
2.77649e-07
4.92783e-06
4.88681e-06
9.73184e-06
1.40197e-05
1.39873e-05
1.37938e-05
8.76851e-06
1.44365e-05
4.56274e-06
7.00673e-07
1.40163e-05
1.40146e-05
4.99275e-06
2.90155e-07
1.61704e-06
1.40159e-05
7.44772e-06
5.95165e-06
1.39797e-05
3.84651e-06
1.41084e-05
1.11894e-06
1.52103e-06
1.40944e-05
1.40542e-05
1.40098e-05
1.40067e-05
9.65705e-06
1.39316e-05
1.42571e-06
1.40138e-05
1.2372e-05
8.86857e-06
1.35917e-05
1.40572e-05
1.41251e-05
9.93051e-06
8.61865e-06
1.43801e-05
1.4116e-05
1.35976e-05
1.41311e-05
1.40154e-05
1.17063e-05
1.4019e-05
8.26308e-06
1.27939e-05
8.81133e-06
3.217e-06
2.09449e-06
1.3716e-05
6.98445e-06
1.37149e-05
7.07831e-06
6.96783e-06
1.36443e-05
3.54181e-06
1.08286e-05
1.4246e-05
1.18289e-05
1.32247e-06
9.24687e-07
1.40209e-05
2.31837e-06
1.40103e-05
1.40114e-05
1.36796e-05
1.30745e-05
6.96133e-06
2.45345e-06
1.39349e-05
1.1827e-05
1.44781e-05
7.73519e-06
1.40215e-05
1.35361e-05
1.33689e-05
9.06846e-06
1.38471e-05
1.40669e-05
1.78188e-06
1.22729e-05
1.40049e-05
3.87831e-06
1.44557e-05
1.32698e-05
1.35374e-05
1.36001e-05
1.40228e-05
1.38964e-05
1.11e-05
4.41849e-06
1.36069e-05
1.40019e-05
3.16599e-06
6.28682e-06
2.63471e-06
1.4024e-05
3.61934e-06
3.88901e-06
1.39731e-05
4.17945e-06
1.38703e-05
1.33035e-05
7.55141e-06
1.20852e-06
4.16493e-06
1.40177e-05
1.19705e-06
1.63689e-06
1.20907e-05
1.40245e-05
1.34198e-05
1.40061e-05
1.75456e-06
3.69329e-06
1.40173e-05
1.33608e-05
9.54477e-06
1.4025e-05
2.85235e-06
1.39088e-05
1.40271e-05
3.98711e-06
3.49002e-06
3.07102e-06
1.40247e-05
1.40096e-05
1.36251e-05
3.28414e-06
1.44075e-05
1.29018e-05
1.39869e-05
1.39985e-05
1.42768e-05
1.32827e-05
1.40241e-05
1.39342e-06
1.23252e-05
1.43806e-05
1.40103e-05
1.40087e-05
6.87213e-06
1.34055e-05
8.41736e-06
1.40172e-05
1.37724e-05
9.06298e-06
6.14022e-06
1.36335e-05
1.37678e-05
1.36036e-05
1.40053e-05
8.46559e-06
1.29672e-05
1.40127e-05
7.64626e-07
1.39593e-05
1.40008e-05
1.4012e-05
1.40256e-05
6.52695e-06
1.40734e-05
1.3768e-05
9.36248e-06
3.73816e-06
3.64416e-06
1.40159e-05
3.42688e-07
1.3965e-05
1.19321e-05
1.40203e-05
1.31084e-05
3.62182e-07
4.27321e-06
4.09136e-06
1.40113e-05
9.16783e-06
1.40157e-05
1.24439e-05
1.11131e-05
1.38041e-05
1.45479e-05
3.90495e-06
1.43513e-05
3.79267e-06
1.21526e-05
1.37148e-05
1.78567e-06
1.36208e-05
1.3333e-05
1.37435e-05
1.22487e-05
5.61626e-06
9.97897e-06
2.34957e-06
1.27099e-05
1.36173e-05
5.87416e-06
1.45184e-05
1.40064e-05
1.36508e-05
1.40217e-05
1.3252e-05
1.39282e-05
1.40112e-05
1.35544e-05
1.40189e-05
2.71364e-07
5.56144e-06
1.36318e-05
1.40046e-05
1.40477e-05
3.15724e-06
3.32871e-06
1.84558e-06
1.40142e-05
1.40182e-05
1.35603e-05
1.36952e-05
1.35254e-05
1.36111e-05
9.78252e-06
1.39429e-05
6.73601e-06
3.63805e-07
6.15557e-06
1.42807e-05
1.09475e-05
1.39117e-05
8.8677e-06
2.96827e-06
1.20353e-05
1.4001e-05
1.40754e-05
1.354e-05
1.39354e-05
9.94336e-07
1.40077e-05
3.1615e-06
1.402e-05
9.35196e-06
1.21051e-05
1.34414e-05
2.3199e-06
1.37919e-05
1.36787e-05
2.0536e-06
1.40134e-05
1.40354e-05
1.23524e-06
9.80685e-06
8.17704e-08
1.62608e-06
4.30968e-06
8.23771e-07
1.4019e-05
8.21455e-06
1.40199e-05
1.40622e-05
1.37e-05
8.66767e-06
1.50156e-06
1.4008e-05
1.40568e-05
1.40214e-05
1.6338e-06
1.40268e-05
1.42721e-05
1.44569e-06
1.39737e-05
3.63213e-06
8.89764e-06
6.53826e-06
1.36119e-05
1.01508e-05
1.2108e-06
1.38345e-05
9.1236e-06
1.16285e-05
9.02747e-06
1.39279e-05
1.39514e-05
4.07562e-06
1.40211e-05
1.39039e-05
1.4007e-05
6.95016e-06
9.64335e-06
1.40976e-05
1.36684e-05
9.22143e-06
5.40305e-07
1.40914e-05
1.15755e-05
9.12695e-06
5.0033e-06
9.02091e-06
1.40238e-05
7.83265e-06
1.4058e-05
1.61276e-06
9.41818e-06
1.46134e-05
1.34303e-05
1.37068e-05
1.39096e-05
1.37942e-05
1.42844e-05
1.42673e-05
9.61859e-06
1.1298e-05
1.29135e-05
1.40214e-05
1.21942e-06
9.45637e-06
1.44818e-05
1.40169e-05
1.39182e-05
1.40242e-05
9.82462e-06
9.38116e-06
4.22525e-06
7.17877e-06
5.89573e-06
8.8604e-07
1.36629e-05
3.43424e-06
1.40092e-05
1.00355e-05
1.4259e-06
2.05289e-06
1.16674e-05
1.36833e-05
1.40255e-05
1.02448e-05
1.1699e-05
1.40248e-05
8.29898e-06
3.4421e-06
1.44946e-05
1.0559e-05
3.21072e-06
6.44432e-06
1.36814e-05
1.13282e-05
1.3398e-05
1.36616e-05
3.21305e-06
1.35217e-05
1.22091e-05
1.28089e-05
1.39846e-05
1.44045e-05
1.32014e-05
1.38146e-05
7.1665e-06
1.39984e-05
1.40237e-05
1.65311e-06
1.42092e-06
9.63837e-06
6.30541e-06
1.40557e-05
1.03412e-05
1.32694e-05
1.47258e-05
1.39994e-05
1.40099e-05
1.01934e-05
1.95279e-06
1.28569e-06
1.39495e-05
1.31657e-05
1.4024e-05
1.42815e-05
1.39919e-05
8.93394e-06
3.11523e-06
9.15369e-06
1.43969e-06
8.00991e-06
1.19132e-05
4.37217e-06
9.53397e-06
9.21885e-06
8.35414e-06
1.37784e-05
2.34321e-06
1.42544e-05
1.35277e-05
1.40254e-05
1.3555e-05
5.878e-07
1.41039e-05
1.73101e-06
6.2533e-06
1.3794e-05
1.53311e-06
1.33663e-05
4.63748e-06
1.37078e-05
1.40153e-05
1.40012e-05
1.80428e-06
1.4016e-05
1.35742e-05
3.87697e-06
1.18112e-05
3.28378e-07
1.39241e-05
1.27999e-05
1.45006e-05
1.35199e-05
1.74655e-06
1.17098e-05
1.20153e-05
1.08311e-05
1.35316e-05
1.40957e-05
1.16738e-05
1.39963e-05
1.30436e-05
1.38802e-05
1.21177e-05
1.40321e-05
1.3352e-05
7.38351e-06
3.87115e-07
5.84102e-06
4.55969e-06
7.78623e-06
2.95491e-06
1.38825e-05
1.25234e-05
1.39358e-05
1.12603e-05
1.39948e-05
2.07188e-06
1.37369e-05
9.12376e-06
1.21406e-06
2.66251e-06
1.39974e-05
1.1967e-05
4.30324e-06
1.43839e-05
1.40778e-05
8.80157e-06
2.94141e-07
8.2481e-06
1.14002e-05
8.96849e-06
1.16073e-05
1.40123e-05
1.37779e-05
6.35443e-07
1.36578e-05
1.39604e-05
1.53532e-06
1.39993e-05
3.59208e-06
9.2171e-08
1.39924e-05
1.4384e-05
6.59914e-08
6.87593e-06
1.40234e-05
1.32879e-05
2.70286e-06
6.09179e-06
9.324e-06
6.24832e-06
1.15055e-05
1.40125e-05
8.02868e-06
1.05478e-05
6.69713e-07
1.22882e-05
1.8595e-06
1.39897e-05
3.88517e-06
8.60818e-06
1.42186e-05
1.30871e-05
7.42324e-06
2.25911e-06
1.40175e-05
1.40257e-05
1.29612e-05
1.30949e-05
1.36459e-05
9.80284e-06
9.52042e-06
4.32301e-06
1.39865e-05
1.37819e-05
1.39796e-06
9.44921e-06
1.40238e-05
7.59952e-06
1.1364e-05
1.36048e-05
1.38427e-05
1.3984e-05
1.22411e-05
1.40161e-05
1.40107e-05
1.43744e-05
1.39318e-05
4.63332e-06
4.85713e-06
1.40162e-05
1.06351e-05
1.37434e-05
1.33745e-05
1.39811e-05
1.01977e-05
1.1556e-05
1.40385e-05
1.39277e-05
9.12445e-06
9.70763e-06
1.376e-05
1.13735e-05
1.37678e-05
1.52055e-06
6.16958e-06
9.01928e-07
3.36337e-06
1.13089e-05
1.35748e-05
1.39758e-05
8.9861e-06
1.3655e-05
3.80364e-06
1.37319e-05
7.80349e-06
1.39001e-05
1.35175e-06
2.8509e-06
1.40198e-05
8.98866e-06
1.08495e-05
8.95134e-06
1.37693e-05
1.18055e-05
1.40112e-05
3.22077e-06
1.3916e-05
1.79618e-06
9.21466e-06
5.19467e-06
1.36866e-05
3.67669e-06
1.39313e-05
1.37754e-05
1.07266e-06
1.37643e-05
3.63573e-06
1.37828e-05
1.39517e-05
1.37016e-05
1.79026e-06
1.39426e-05
1.36184e-05
1.39636e-05
1.28908e-05
1.38452e-05
1.2774e-05
6.96235e-06
3.60152e-06
5.87469e-06
1.39206e-05
1.36171e-05
1.39998e-05
1.09784e-06
1.00337e-05
5.98949e-06
1.07438e-05
1.36895e-05
1.35799e-05
1.4012e-05
6.64905e-06
2.90251e-06
1.36981e-05
1.3854e-05
1.44197e-06
1.07579e-05
4.28533e-06
1.21943e-06
1.34404e-05
1.38907e-05
1.41841e-05
1.30077e-05
1.18564e-05
6.58541e-06
1.35544e-05
1.37161e-05
1.33895e-05
1.39988e-05
1.37094e-05
2.0612e-06
3.41264e-06
1.02281e-05
1.01005e-05
1.3994e-05
2.06529e-06
3.54144e-06
4.32322e-06
1.25113e-05
6.65871e-06
1.40183e-05
1.35956e-05
1.37331e-05
1.41982e-05
1.40088e-05
5.28355e-06
3.3699e-07
1.4011e-05
1.32135e-05
1.19913e-05
8.01505e-07
1.36366e-05
1.21546e-05
2.356e-06
1.40178e-05
4.26329e-06
1.37663e-05
1.39103e-05
1.35363e-05
1.04319e-05
1.38193e-05
9.65867e-06
5.07698e-06
2.376e-06
1.18201e-05
1.11966e-05
1.10249e-06
1.44497e-05
2.46445e-06
1.32098e-05
8.35433e-06
1.39979e-05
1.00826e-05
1.10924e-05
1.39965e-05
1.40068e-05
3.30766e-06
9.25276e-06
1.40078e-05
1.40524e-05
1.22665e-05
1.36095e-05
1.38707e-05
1.39915e-05
2.27159e-06
1.40104e-05
1.67162e-06
1.31738e-05
8.22022e-06
1.36056e-05
1.40003e-05
7.06496e-06
1.35281e-05
1.11846e-05
1.91358e-06
1.02429e-05
9.21136e-06
5.08416e-08
1.34222e-05
1.08847e-05
1.06388e-05
-6.11053e-09
2.25334e-07
1.3282e-05
4.46836e-06
8.91985e-06
1.35721e-05
9.26626e-06
1.45825e-05
8.9238e-06
1.42548e-05
1.1455e-05
1.40254e-05
1.1052e-05
1.40196e-05
8.3808e-06
1.04441e-05
1.22286e-05
1.37089e-05
9.83275e-06
1.07356e-05
1.32952e-05
1.29825e-05
1.37932e-05
1.40252e-05
1.35943e-05
9.31967e-06
2.94764e-06
1.38796e-05
6.53463e-06
1.39969e-05
6.21221e-06
1.03649e-05
1.06524e-05
1.33931e-05
4.87995e-06
1.40086e-05
1.06757e-05
1.09706e-05
1.4021e-05
1.36226e-05
1.41916e-05
1.33113e-05
1.08633e-05
1.40126e-05
1.40183e-05
7.59702e-06
1.40195e-05
1.11721e-05
3.47543e-06
1.50535e-07
1.782e-07
5.9712e-07
1.33428e-05
2.6019e-08
7.67501e-08
8.7465e-06
1.43724e-05
5.08329e-06
1.08467e-05
1.39887e-05
1.40045e-05
1.40191e-05
9.13364e-06
1.40092e-05
1.29056e-05
1.40246e-05
1.40412e-05
1.04662e-05
1.39236e-05
1.391e-05
5.55813e-06
1.4006e-05
1.40035e-05
1.41623e-05
2.50081e-06
8.70444e-08
1.05864e-06
1.27216e-05
4.8417e-06
3.77653e-06
6.33258e-06
4.17425e-06
1.36935e-05
2.7877e-07
1.39956e-05
1.04259e-05
1.14925e-05
9.63958e-06
1.4207e-05
4.7431e-06
1.40439e-05
1.42375e-05
1.02555e-05
3.57592e-06
1.41453e-05
1.40095e-05
1.40103e-05
1.40558e-05
1.22916e-05
1.17118e-05
1.38655e-05
1.53058e-06
1.36403e-05
8.79379e-06
5.77585e-06
1.38894e-05
1.10786e-05
6.04816e-06
1.09895e-05
1.0036e-05
1.38276e-05
8.69477e-06
1.10562e-05
1.38956e-05
1.38378e-05
6.61754e-06
2.27064e-06
3.20937e-07
1.36151e-05
8.3869e-06
1.39477e-06
1.40389e-05
1.35525e-05
1.38253e-05
1.33475e-05
8.6924e-07
1.00435e-05
1.3564e-05
1.3896e-05
1.38911e-05
1.39521e-05
3.55685e-06
1.40156e-05
5.29582e-06
1.37043e-05
1.39882e-05
1.27967e-05
1.38174e-05
6.25204e-06
1.40107e-05
1.38177e-05
1.32273e-06
3.37407e-06
4.06431e-06
3.38768e-06
1.43073e-05
1.39754e-05
1.34611e-05
3.00767e-06
1.37704e-05
1.40153e-05
1.39366e-05
1.42434e-05
1.46137e-06
9.82909e-06
1.1299e-05
9.44995e-06
1.41398e-05
1.12982e-05
2.70371e-06
2.68927e-06
6.33747e-06
1.35143e-05
3.39799e-06
1.42726e-05
1.3693e-05
4.19261e-06
1.4228e-05
1.15978e-05
1.39158e-05
1.36148e-05
1.25343e-05
1.41877e-05
1.43064e-05
1.40113e-05
1.38008e-05
6.41168e-06
1.40456e-05
1.12691e-05
1.08423e-05
1.49421e-06
1.39933e-05
1.19929e-05
2.66904e-06
7.77651e-07
5.97996e-07
1.35988e-05
1.40028e-05
1.35551e-05
1.48029e-05
2.18107e-06
1.0557e-06
9.54448e-06
8.51728e-07
9.05236e-06
2.50934e-06
1.35063e-05
1.30795e-05
1.30768e-05
1.39794e-05
1.22246e-06
7.13174e-07
9.39742e-06
9.25415e-06
1.24381e-05
1.40222e-05
1.33466e-05
1.07714e-05
1.35549e-05
2.03606e-06
2.13975e-06
1.36678e-05
1.40466e-05
1.00617e-05
1.39859e-05
9.93794e-07
1.40564e-05
1.15219e-05
1.42101e-05
1.4011e-05
1.39761e-05
1.40046e-05
1.54264e-06
2.04214e-07
1.40092e-05
1.34426e-05
1.29761e-06
1.38443e-05
3.98196e-06
1.37968e-05
8.92089e-07
1.33909e-05
1.40083e-05
1.11884e-05
1.40198e-05
1.40122e-05
1.36591e-05
2.90458e-06
3.27478e-06
1.09561e-06
1.28564e-05
8.28855e-06
1.39273e-05
1.26215e-05
1.35748e-05
1.24037e-05
1.4492e-05
3.12395e-06
1.40006e-05
1.39891e-05
7.87654e-07
1.40117e-05
1.40239e-05
1.02505e-05
9.05322e-06
1.40437e-05
1.41374e-06
1.14816e-05
2.08237e-06
1.29555e-05
1.34615e-05
9.51805e-06
1.35263e-05
1.40253e-05
1.07809e-05
1.39738e-05
7.32969e-06
3.06884e-06
1.40318e-05
9.51984e-06
1.03185e-05
2.48379e-07
1.98625e-07
1.21588e-05
1.3772e-05
7.39029e-06
5.04316e-06
1.3979e-05
1.39443e-05
1.40241e-05
1.39587e-05
7.03882e-07
1.38188e-05
1.42058e-05
7.60305e-06
1.39906e-05
1.43823e-05
1.31831e-05
8.8497e-06
1.33523e-05
1.5039e-06
1.10809e-05
1.40126e-05
1.40252e-05
8.53902e-06
1.44014e-05
7.19057e-07
3.52324e-06
3.27222e-06
1.18197e-05
1.18008e-05
1.47512e-05
8.43078e-06
1.35968e-05
5.51483e-06
1.40188e-05
1.36752e-05
8.64303e-06
1.39692e-05
1.40154e-05
1.40253e-05
2.47565e-06
7.53508e-06
1.40206e-05
1.31116e-05
1.2412e-05
8.97191e-06
1.29391e-05
1.24005e-05
1.00241e-06
1.40075e-05
1.40292e-05
1.91057e-06
1.23743e-06
3.11295e-06
8.40213e-07
8.43506e-06
2.86459e-06
1.40248e-05
1.40727e-05
9.55868e-06
1.40379e-05
1.36646e-05
1.44428e-05
1.18759e-05
1.37638e-05
1.30712e-06
1.39262e-05
8.50462e-07
1.40372e-05
1.39709e-05
2.30127e-06
1.01961e-06
1.3182e-05
1.06325e-05
1.4338e-05
1.40242e-05
1.41038e-05
2.39613e-07
1.4125e-07
2.71146e-06
1.16977e-05
1.42814e-05
1.44106e-05
1.31465e-05
1.4256e-05
1.40423e-05
8.36832e-06
1.30371e-06
1.38893e-05
1.08146e-05
1.40231e-05
1.04041e-06
4.89714e-06
1.37437e-05
1.20897e-05
1.31896e-05
1.39074e-05
1.20253e-05
1.36341e-05
1.37923e-05
3.17071e-06
1.37769e-05
1.39137e-05
1.36149e-05
2.15377e-06
1.40219e-05
1.34712e-05
1.41892e-05
1.40128e-05
1.15901e-05
9.56455e-07
1.13967e-05
1.16491e-05
1.43297e-05
1.23482e-05
1.39209e-05
1.38846e-05
1.39978e-05
1.40412e-05
9.14382e-07
1.55945e-06
1.40203e-05
7.93526e-07
1.01672e-06
1.40255e-05
1.33746e-05
1.30084e-05
1.16983e-05
1.42214e-05
1.32751e-05
4.23759e-06
1.40572e-05
1.39877e-05
1.40026e-05
1.06693e-05
1.40835e-05
1.40187e-05
1.39987e-05
1.49081e-05
1.35322e-05
6.03037e-08
1.32561e-05
2.87306e-06
1.23319e-05
1.40095e-05
2.44186e-06
1.44048e-05
1.3368e-05
1.62298e-06
1.4222e-05
1.36781e-05
3.43519e-06
1.40062e-05
4.15986e-08
3.43939e-06
1.25401e-05
1.36224e-05
1.43544e-05
1.40242e-05
1.16907e-05
1.37695e-05
1.59866e-06
1.04606e-05
8.22749e-06
1.39655e-05
1.40214e-05
1.34671e-05
1.37511e-05
1.39098e-05
1.0632e-05
1.05241e-05
1.40226e-05
8.84974e-06
1.40118e-05
1.17776e-06
1.28939e-05
1.36775e-05
1.19433e-05
2.38438e-06
1.20191e-06
7.32814e-06
1.24446e-05
1.33119e-05
1.05717e-05
1.38975e-06
1.35501e-05
1.80615e-06
1.08065e-06
2.47282e-06
1.39998e-05
1.34145e-05
1.40112e-05
1.40624e-05
1.39976e-05
1.23305e-05
3.78332e-06
1.39959e-05
1.09774e-05
1.32717e-06
1.33957e-05
1.09439e-05
7.81645e-06
1.40091e-05
1.22883e-05
1.22421e-05
1.44521e-05
1.37795e-05
1.40521e-05
1.39541e-05
1.40524e-05
1.22537e-05
1.37362e-05
1.38233e-05
1.14107e-05
1.39854e-05
1.23844e-05
1.40238e-05
1.40919e-05
1.03279e-05
1.28017e-05
1.37962e-05
1.29472e-05
1.40146e-05
1.40201e-05
2.7944e-06
7.70776e-06
9.54369e-07
2.23422e-06
2.01289e-06
1.17337e-05
1.42697e-05
1.40195e-05
1.3559e-05
1.38078e-05
1.38082e-05
1.33863e-05
1.30968e-05
1.39833e-05
2.47661e-06
1.37557e-05
1.19155e-05
1.16362e-05
2.69215e-06
1.40104e-05
1.33075e-05
1.29092e-05
1.40143e-05
1.43406e-05
1.40006e-05
4.47901e-06
1.22947e-05
1.38183e-05
1.4018e-05
1.40224e-05
1.40258e-05
1.37793e-05
1.43247e-07
1.33518e-05
9.88356e-06
3.55032e-06
5.73262e-06
1.40392e-05
1.12604e-05
1.3997e-05
1.40717e-05
1.34787e-05
1.38195e-05
2.80303e-06
1.31824e-05
1.20983e-05
4.95485e-07
1.15896e-05
1.41992e-05
2.27997e-06
1.34866e-05
1.34232e-05
3.41065e-07
7.98553e-06
3.00882e-06
2.21909e-06
1.33243e-05
1.3865e-05
2.74412e-06
3.08748e-06
1.12903e-05
1.36002e-05
1.32231e-05
1.40137e-05
1.32361e-05
1.3998e-05
9.72099e-06
3.21543e-06
8.69924e-07
2.91413e-06
1.39365e-05
1.28937e-05
1.314e-05
1.38965e-05
1.24254e-05
1.40255e-05
7.18239e-06
1.33422e-05
1.37007e-05
1.4357e-05
1.37766e-05
1.39427e-05
1.39992e-05
1.26838e-06
1.42455e-05
1.32994e-05
1.23881e-05
2.68027e-06
1.40537e-05
1.38198e-05
1.37543e-05
1.37329e-05
7.54176e-07
1.28828e-05
7.8163e-06
1.43339e-05
7.91492e-06
5.46798e-06
9.84091e-07
1.25429e-05
2.42467e-06
5.59618e-06
3.66083e-06
1.4002e-05
1.4056e-05
6.80458e-07
1.37712e-05
1.39443e-05
1.39617e-05
1.39989e-05
1.27324e-06
2.8514e-06
1.38309e-05
1.26562e-05
1.18568e-06
1.39827e-05
1.44886e-05
1.36253e-06
1.34801e-05
1.32935e-05
1.25997e-05
1.35186e-05
1.4038e-05
1.30608e-05
8.8773e-06
1.39106e-05
1.35991e-05
1.06529e-06
1.39501e-05
1.30482e-05
1.31939e-05
1.15883e-05
4.56047e-06
1.38222e-05
1.44125e-05
4.00813e-06
6.48557e-06
1.40222e-05
1.3438e-05
1.02236e-05
1.3415e-05
1.35545e-05
1.4028e-05
1.37406e-05
1.40237e-05
1.39959e-05
1.39988e-05
1.40447e-05
2.62963e-06
1.28179e-05
1.08399e-05
1.23625e-05
1.3831e-05
1.47258e-05
1.40071e-05
1.40478e-05
3.87575e-06
1.16915e-05
1.20438e-05
1.40285e-05
1.32011e-05
1.40268e-05
9.82635e-06
1.36837e-06
1.18976e-05
1.39955e-05
1.39763e-05
1.19831e-06
1.40157e-05
1.3979e-05
2.77098e-06
1.19583e-06
1.16174e-05
1.40022e-05
1.11543e-05
6.01754e-07
1.31318e-05
1.06712e-05
1.29753e-05
1.23201e-05
1.44811e-05
1.39619e-05
1.43928e-05
1.40133e-05
1.359e-05
1.39995e-05
1.05927e-05
1.34513e-05
5.6631e-06
1.40178e-05
1.44344e-05
1.39802e-05
1.40049e-05
1.04539e-05
1.35087e-05
1.34306e-05
1.39106e-05
1.35456e-05
1.37027e-05
1.34418e-05
2.97467e-06
1.29525e-05
1.40008e-05
1.34187e-05
1.42644e-05
1.36699e-05
1.35652e-05
1.40161e-05
1.25116e-05
1.26158e-05
1.3826e-05
7.92552e-06
1.40187e-05
9.02547e-06
1.38121e-05
1.4035e-05
1.3781e-05
1.37879e-05
1.39978e-05
1.14771e-05
1.30798e-05
2.95071e-06
8.9548e-07
1.24843e-06
1.39641e-05
1.3517e-05
1.34145e-05
1.36e-05
1.37966e-05
1.35083e-05
1.33756e-05
1.34095e-05
1.35948e-05
1.37495e-05
5.45756e-06
1.18318e-05
9.68005e-07
1.3814e-05
1.45102e-05
1.32444e-05
9.87021e-07
1.35363e-05
1.35171e-05
1.3744e-05
1.35935e-05
1.3505e-05
1.33473e-05
1.26711e-05
1.34806e-05
1.40257e-05
1.37805e-05
1.37836e-05
9.13017e-06
1.26589e-05
1.35005e-05
1.40172e-05
1.36462e-05
1.40138e-05
1.40152e-05
1.40241e-05
1.19371e-05
1.3142e-05
1.39865e-05
1.29809e-05
1.3986e-05
1.40001e-05
1.2363e-05
1.20879e-06
1.34212e-05
1.38199e-05
1.3481e-05
3.9763e-06
1.36752e-05
1.40127e-05
9.8721e-06
1.33631e-05
1.23307e-05
1.38752e-05
1.35118e-05
1.24188e-05
1.38491e-05
1.38421e-05
1.35527e-05
1.3987e-05
1.32539e-05
1.27966e-05
1.01426e-05
1.36479e-05
1.25651e-05
1.29475e-06
1.36637e-05
1.39893e-05
1.03616e-05
1.36008e-05
1.12644e-06
1.39663e-05
1.40211e-05
1.40347e-05
1.36818e-05
3.18123e-06
1.38742e-05
1.39741e-05
1.38104e-05
1.25687e-05
1.39903e-05
1.34893e-05
1.18209e-05
9.50654e-06
1.36948e-05
1.39841e-05
1.40085e-05
1.33772e-05
8.33143e-06
3.76942e-06
1.39911e-05
2.91143e-06
1.39691e-05
1.34716e-05
1.31458e-05
1.40188e-05
1.17487e-06
1.39868e-05
1.53144e-06
1.4013e-05
1.40229e-05
1.36741e-05
1.40135e-05
9.12717e-06
1.4032e-05
1.60159e-06
1.34911e-05
1.14759e-05
3.34855e-06
1.38647e-05
7.18534e-07
1.39534e-05
1.40018e-05
1.33518e-05
1.36464e-05
1.16432e-05
1.39842e-05
1.34737e-05
3.17766e-06
1.29469e-05
1.13432e-05
1.16955e-05
1.10315e-06
1.34344e-05
1.24697e-05
1.39001e-05
1.38631e-05
1.34801e-05
1.39631e-05
1.41388e-05
1.24731e-05
4.16218e-06
1.31466e-05
2.74841e-06
1.1555e-05
1.09268e-05
1.39131e-05
1.32912e-05
1.24188e-05
1.20689e-05
1.40589e-05
1.39929e-05
1.35686e-05
1.4364e-05
1.34924e-05
1.39756e-05
1.20809e-05
1.33372e-05
1.39778e-05
1.36008e-05
1.27246e-05
8.03454e-06
1.39634e-05
1.36538e-05
1.36508e-05
1.42084e-05
1.36087e-05
1.37947e-05
1.16094e-06
1.24893e-05
1.18437e-05
3.53027e-06
1.36107e-05
1.36543e-05
1.40657e-05
1.38076e-05
8.64534e-06
1.36542e-05
1.24211e-05
1.3887e-05
1.36247e-05
1.40146e-05
1.21795e-06
1.3992e-05
1.36265e-05
1.15117e-05
1.37474e-05
1.34631e-05
1.30981e-05
1.40407e-05
1.3947e-05
1.2984e-05
1.36889e-05
1.3557e-05
1.40017e-05
2.23707e-06
1.366e-05
1.1386e-05
1.374e-05
1.4013e-05
3.58414e-06
1.38869e-05
1.40017e-05
1.36443e-05
1.41016e-05
1.40097e-05
1.06642e-05
9.90245e-06
1.74116e-06
3.08699e-06
1.38697e-05
1.36705e-05
1.25221e-05
1.37569e-05
1.39427e-05
1.37111e-05
1.36302e-05
1.42068e-05
1.34021e-05
1.40202e-05
1.40247e-05
1.35221e-05
1.32533e-05
1.20071e-05
1.35962e-05
1.40213e-05
1.40302e-05
5.77689e-06
1.20719e-05
1.39262e-05
3.07645e-06
1.35835e-05
1.33974e-05
1.1003e-05
1.40188e-05
4.76886e-06
1.34922e-05
1.23749e-05
1.23211e-05
1.07383e-05
1.40091e-05
1.3849e-05
1.36628e-05
9.87864e-07
4.57986e-06
3.11776e-06
1.35825e-05
1.34904e-05
1.39706e-05
1.58914e-06
5.37508e-06
1.44769e-05
1.36628e-05
1.37313e-05
1.36618e-05
1.39966e-05
1.36646e-05
1.35713e-05
3.15822e-06
1.40678e-05
1.2888e-05
1.39921e-05
1.36802e-05
1.40467e-05
1.40144e-05
2.38451e-06
1.37661e-05
1.39831e-05
1.40051e-05
1.40019e-05
1.19783e-05
1.34714e-05
1.37818e-05
1.24507e-06
1.40262e-05
1.38012e-05
1.41453e-06
1.17854e-05
1.35215e-05
1.36971e-05
1.36725e-05
1.36144e-05
1.34864e-05
1.36668e-05
1.37165e-05
1.37017e-05
1.36632e-05
1.2626e-05
1.33602e-05
1.37671e-05
1.40192e-05
1.21653e-05
1.34291e-05
1.40996e-05
1.39406e-05
1.36549e-05
1.39972e-05
8.18809e-06
1.36285e-05
1.39702e-05
1.36829e-05
1.35613e-05
1.33053e-06
1.3652e-05
1.36527e-05
1.15379e-05
1.22561e-05
1.40349e-05
1.12039e-05
1.25573e-05
1.39989e-05
6.15943e-06
1.33643e-05
1.39506e-05
1.39908e-05
1.35508e-05
1.37137e-05
1.39177e-05
1.29094e-05
1.4015e-05
1.39936e-05
1.4001e-05
1.39959e-05
1.23567e-05
1.36062e-05
1.40262e-05
1.94911e-06
1.39817e-05
1.4004e-05
1.41565e-05
1.36547e-05
1.27937e-05
1.40219e-05
1.23986e-05
1.37971e-05
6.47372e-06
1.46474e-05
1.30069e-05
1.27098e-05
1.40003e-05
1.20142e-05
1.17729e-05
1.36921e-05
1.19405e-05
1.36825e-05
1.47958e-05
1.31794e-06
1.40208e-05
1.37364e-05
1.20276e-05
1.36844e-05
1.36374e-05
1.41025e-05
1.29529e-05
1.3468e-05
1.36629e-05
1.22269e-05
1.31226e-05
1.36561e-05
1.36804e-05
1.44311e-05
1.36332e-05
1.33989e-05
1.38486e-05
1.38616e-05
1.44168e-05
1.28329e-05
1.36447e-05
1.3659e-05
1.43033e-05
1.33494e-05
1.19644e-05
1.25006e-05
1.38516e-05
1.38073e-05
1.46102e-05
1.29851e-05
1.11709e-05
1.3841e-05
2.2434e-06
1.40459e-05
1.36298e-05
1.12949e-05
1.34796e-05
1.34682e-05
1.40158e-05
1.23224e-05
1.36646e-05
1.37234e-05
1.25597e-06
1.37863e-05
1.38087e-05
1.35576e-05
1.2831e-06
1.39316e-05
1.41385e-05
1.34905e-05
1.37181e-05
1.38442e-05
1.40185e-05
1.4017e-05
1.3916e-05
1.37463e-05
1.23359e-05
1.40149e-05
1.40692e-05
1.40359e-05
1.39122e-05
1.37041e-05
1.37574e-05
1.40182e-05
1.25567e-05
1.36614e-05
1.37321e-05
1.12728e-05
1.38343e-05
1.36647e-05
1.38532e-05
1.42217e-05
1.236e-05
1.06751e-06
1.34367e-05
1.38176e-05
1.23743e-05
1.34841e-05
1.31749e-05
1.32426e-06
1.33082e-05
1.48069e-05
1.14744e-05
1.38446e-05
1.34833e-05
1.35682e-05
1.34955e-05
1.3763e-05
9.39279e-06
1.37231e-05
1.38475e-05
1.39722e-05
1.4398e-05
1.37048e-05
1.40107e-05
1.19571e-05
1.3492e-05
1.36605e-05
1.38032e-05
1.38467e-05
1.25735e-05
1.33761e-05
1.3611e-05
1.40269e-05
1.37012e-05
1.40273e-05
1.37556e-05
1.27766e-05
1.09235e-06
1.37883e-05
1.40005e-05
1.37919e-05
1.37562e-05
1.37995e-05
1.40168e-05
1.3843e-05
1.38021e-05
1.20946e-05
1.40112e-05
1.34194e-05
1.34785e-05
1.35231e-05
1.37335e-05
1.40159e-05
1.38534e-05
1.39982e-05
1.38202e-05
2.00657e-06
1.39955e-05
1.36327e-05
1.39974e-05
1.37215e-05
1.34503e-05
1.38339e-05
1.39606e-05
1.32627e-05
1.29254e-05
1.48063e-05
1.39255e-05
9.7678e-06
1.23131e-05
1.4384e-05
3.37899e-06
1.40587e-05
1.40273e-05
1.40163e-05
1.35922e-05
1.39978e-05
1.34101e-05
1.23181e-05
1.33462e-05
1.35888e-05
1.37747e-05
1.39588e-05
1.35124e-05
1.40139e-05
1.44356e-05
1.33195e-05
7.07867e-06
1.39436e-05
1.39847e-05
1.34635e-05
1.40276e-05
1.37313e-05
1.36813e-05
1.40001e-05
1.35195e-05
1.40792e-05
1.3941e-05
1.37159e-05
1.36795e-05
1.40028e-05
1.40219e-05
1.40221e-05
1.34717e-05
1.36242e-05
1.4032e-05
1.4088e-05
1.40371e-05
1.37088e-05
1.36481e-05
1.13659e-05
1.44054e-06
2.15587e-06
1.40137e-05
1.24423e-05
1.39964e-05
1.39582e-05
1.38963e-05
4.70834e-06
1.3525e-05
1.38209e-05
1.38747e-05
1.43255e-05
1.40033e-05
1.40384e-05
1.39256e-05
1.40277e-05
1.40048e-05
1.35934e-05
1.08846e-05
1.48183e-05
1.35597e-05
1.3845e-05
1.4041e-05
1.23941e-05
1.40842e-05
1.36779e-05
1.39501e-05
1.39991e-05
1.23029e-05
1.40386e-05
1.39007e-05
1.35251e-05
1.4215e-05
1.10445e-05
1.38874e-05
1.22438e-05
1.37818e-05
1.38319e-05
1.40172e-05
1.40031e-05
1.37334e-05
1.35492e-05
1.37547e-05
1.11855e-05
1.40047e-05
3.91867e-07
2.88454e-06
1.37871e-05
1.40962e-05
1.44742e-05
1.38335e-05
1.43958e-05
1.35153e-06
1.41769e-05
1.3762e-05
3.81501e-06
5.15228e-06
5.89213e-06
6.21235e-06
7.16218e-06
8.50378e-06
8.81115e-06
9.54136e-06
9.86859e-06
1.35444e-05
1.3485e-05
1.34638e-05
1.42377e-05
1.42359e-05
1.40097e-05
1.40184e-05
1.39413e-05
1.40803e-05
1.39797e-05
1.40068e-05
1.40356e-05
1.26014e-05
1.34451e-05
1.08335e-05
1.39887e-05
1.39037e-05
1.40207e-05
1.40153e-05
1.09395e-05
1.40057e-05
9.47505e-06
1.39996e-05
1.41148e-05
1.11481e-05
1.12507e-05
1.66543e-06
1.40372e-05
1.3896e-05
1.39685e-05
1.41745e-05
1.41042e-05
1.40474e-05
1.36357e-05
1.40202e-05
1.43589e-06
1.39235e-05
1.41153e-05
1.39846e-05
1.40112e-05
1.11849e-05
1.32385e-05
1.39712e-05
1.35826e-05
1.42225e-05
1.3536e-05
1.37081e-05
1.35006e-05
4.07509e-07
1.25481e-05
1.37939e-05
1.37767e-05
1.26118e-05
1.38449e-05
1.40988e-05
1.35024e-05
1.13954e-05
1.43424e-05
1.39307e-05
1.38107e-05
1.07694e-05
1.35728e-05
1.38981e-05
1.3956e-05
1.40035e-05
1.27104e-05
1.42272e-05
1.37872e-05
1.40869e-05
1.4069e-05
1.20098e-05
1.38175e-05
1.37841e-05
1.37501e-05
1.44725e-05
1.36235e-05
1.38308e-05
1.44442e-05
1.40807e-05
1.38586e-05
1.40775e-05
1.40986e-05
1.4023e-05
1.40185e-05
1.39962e-05
1.36778e-05
1.39187e-05
9.55455e-06
1.36202e-05
1.37799e-05
1.09236e-05
1.39998e-05
1.16205e-05
1.4028e-05
1.36225e-05
1.41102e-05
1.07721e-05
1.33508e-05
1.4128e-05
1.40032e-05
1.4392e-05
1.10906e-05
1.36485e-05
1.39802e-05
1.22213e-05
1.36759e-05
3.69765e-06
1.39727e-05
1.36839e-05
1.3733e-05
1.40138e-05
1.40064e-05
1.4072e-05
1.42161e-05
1.30286e-05
1.38135e-05
1.38989e-05
1.32931e-05
8.59423e-07
1.42033e-05
1.39848e-05
1.39661e-05
4.92705e-07
1.38574e-05
1.37155e-05
5.27975e-06
1.40118e-05
1.40304e-05
1.40588e-05
1.2133e-05
1.25013e-05
1.39718e-05
1.40304e-05
1.32618e-05
1.36163e-05
1.39428e-05
1.4004e-05
1.39543e-05
1.39084e-05
1.34583e-05
1.45092e-05
1.36715e-05
2.96686e-06
1.38951e-05
1.39795e-05
1.3786e-05
1.4192e-05
1.40018e-05
1.39484e-05
1.40282e-05
1.41251e-05
1.34839e-05
1.40176e-05
1.22316e-05
1.39307e-05
1.43694e-05
1.36735e-05
1.39385e-05
1.40282e-05
1.23071e-05
1.37758e-05
1.38157e-05
1.35574e-05
1.40113e-05
1.40333e-05
1.3517e-05
1.40362e-05
1.41217e-05
1.43212e-05
1.42049e-05
1.35626e-05
1.43919e-05
1.39008e-05
1.41045e-05
1.35352e-05
1.36855e-05
1.39923e-05
1.39435e-05
1.39245e-05
1.37978e-05
1.41821e-05
1.23224e-05
1.43404e-05
1.40307e-05
1.26815e-05
1.37619e-05
1.45908e-05
1.40066e-05
1.43544e-05
1.4309e-05
1.37211e-05
1.37935e-05
1.35407e-05
1.39918e-05
1.37852e-05
1.40145e-05
1.4357e-05
1.40903e-05
1.47838e-05
1.30446e-05
1.05084e-05
1.3814e-05
1.53329e-06
1.35047e-05
1.26942e-05
1.3624e-05
1.43639e-05
1.44025e-05
1.36385e-05
2.36164e-06
1.3913e-05
1.3578e-05
1.39184e-05
1.39943e-05
6.9757e-06
1.34069e-05
2.06024e-06
1.3907e-05
1.40163e-05
1.40437e-05
1.20706e-05
1.41081e-05
1.48446e-05
1.51118e-06
1.10724e-05
1.41327e-05
1.44468e-05
1.44672e-05
1.25564e-05
1.4003e-05
1.13528e-05
1.13431e-05
1.24657e-05
1.40023e-05
1.38983e-05
1.40279e-05
1.47759e-05
1.40471e-05
1.43334e-05
1.40088e-05
1.09298e-05
1.39403e-05
1.4879e-05
1.39715e-05
1.37505e-05
1.85751e-06
1.39588e-05
1.39343e-05
1.39987e-05