/*--------------------------------*- C++ -*----------------------------------*\
  =========                 |
  \\      /  F ield         | OpenFOAM: The Open Source CFD Toolbox
   \\    /   O peration     | Website:  https://openfoam.org
    \\  /    A nd           | Version:  8
     \\/     M anipulation  |
\*---------------------------------------------------------------------------*/
FoamFile
{
    version     2.0;
    format      ascii;
    class       surfaceScalarField;
    location    "1.4";
    object      phi;
}
// * * * * * * * * * * * * * * * * * * * * * * * * * * * * * * * * * * * * * //

dimensions      [0 3 -1 0 0 0 0];

internalField   nonuniform List<scalar> 
8224
(
4.00642e-10
3.65564e-10
-5.79397e-10
-1.86809e-10
1.18253e-11
3.98327e-09
-1.56541e-10
-3.83856e-09
-4.26952e-10
-1.68128e-10
-1.89194e-10
7.84274e-10
-7.56513e-09
2.82509e-09
-2.50162e-09
7.24166e-09
4.06912e-09
-9.05968e-11
2.0136e-10
-4.17988e-09
4.25409e-09
-2.76558e-10
1.72274e-10
-4.14981e-09
-4.06366e-09
-5.57696e-10
-1.50587e-10
4.77194e-09
-4.51501e-09
5.11854e-10
-1.04108e-10
4.10726e-09
3.37445e-09
-3.67769e-09
3.03247e-10
-2.76698e-09
-2.99045e-09
5.52557e-09
2.31855e-10
-6.87493e-10
-7.51812e-14
6.86341e-10
1.22698e-12
-7.45551e-10
-3.59569e-09
4.94621e-09
-6.04968e-10
-9.79729e-10
-1.65414e-10
1.95881e-09
-8.13669e-10
1.87361e-09
-9.18131e-10
-8.48246e-09
7.52698e-09
4.0599e-09
-3.80152e-09
-2.58379e-10
-4.64411e-09
4.66227e-09
2.28455e-11
-4.10033e-11
-4.20432e-09
5.89054e-10
1.109e-10
3.50436e-09
5.37312e-09
-4.40898e-09
4.62481e-09
-5.58895e-09
2.46153e-09
-2.09113e-09
-4.03435e-09
3.66395e-09
-4.65274e-09
2.14766e-10
-7.703e-11
-5.10643e-10
4.53116e-10
-4.86354e-10
5.43881e-10
-4.81839e-09
4.81705e-09
9.1053e-10
-9.09189e-10
-1.44588e-09
2.60862e-10
1.44736e-09
-2.62342e-10
-5.57156e-09
2.5067e-10
-9.49976e-11
5.41589e-09
4.82898e-09
-4.68744e-09
-9.29756e-10
7.88216e-10
-3.73815e-09
4.24347e-10
-1.39721e-10
3.45353e-09
-4.73184e-09
-6.20402e-10
5.33851e-10
-4.18031e-09
-1.67188e-10
7.66778e-11
4.27082e-09
1.52776e-10
4.037e-09
-4.40897e-10
-3.74888e-09
2.72917e-09
-7.80181e-10
-6.0427e-09
4.09371e-09
-5.0359e-11
5.58219e-11
-5.14526e-09
7.66865e-09
-5.7974e-10
-1.94365e-09
3.87743e-09
8.43716e-11
-2.10741e-10
-3.75106e-09
9.33135e-12
2.95101e-09
-3.48127e-09
5.20922e-10
2.29422e-10
4.75984e-10
-6.70487e-09
5.99946e-09
4.43133e-09
5.56194e-11
-7.19e-11
-4.41505e-09
3.3708e-11
-2.0622e-10
-5.43577e-09
5.60828e-09
4.44484e-09
-3.03402e-11
1.71248e-10
-4.58575e-09
5.10014e-09
1.66583e-10
-5.95119e-09
6.84469e-10
-4.22585e-09
4.33287e-09
-2.13411e-10
1.06386e-10
-7.50525e-09
-4.09431e-09
6.69586e-09
4.90369e-09
4.73348e-09
2.98353e-10
-4.68195e-09
-3.49891e-10
-4.26945e-10
-5.26579e-09
4.5128e-09
1.17993e-09
3.81587e-09
-4.07052e-09
1.53623e-10
1.01026e-10
3.91349e-09
-4.3466e-09
-9.39908e-10
1.37302e-09
-3.97703e-09
3.9584e-09
8.06781e-11
-6.20552e-11
4.46679e-09
6.31601e-09
-5.14033e-09
-5.64248e-09
4.68456e-09
-4.65351e-09
-1.54236e-10
1.23186e-10
-4.23817e-09
5.23418e-09
2.65178e-10
-1.26118e-09
-1.04951e-08
-1.20268e-09
4.36699e-09
7.3308e-09
5.16867e-09
-5.30069e-09
1.32021e-10
-4.59727e-09
-8.74341e-11
4.05916e-11
4.01661e-09
-3.88414e-09
1.1592e-10
-2.48391e-10
-3.79658e-09
-8.57087e-09
2.43192e-09
9.93553e-09
-1.07876e-08
7.62162e-09
3.59895e-09
-4.32923e-10
3.08151e-11
-2.12914e-11
5.69631e-09
-6.83637e-09
1.14006e-09
5.81156e-11
-5.28755e-09
-2.29888e-10
5.45933e-09
-3.96303e-09
2.92014e-10
-1.34658e-10
3.80567e-09
4.70254e-09
4.47758e-11
-6.27555e-11
4.24211e-09
-4.13829e-09
1.07064e-10
-2.10885e-10
-4.46261e-09
4.44308e-09
-9.20249e-11
1.11551e-10
-4.63748e-09
1.99247e-10
6.20303e-10
3.81793e-09
-1.75306e-11
-3.43301e-11
4.30595e-09
-1.67563e-11
-2.95614e-10
-3.86794e-09
-5.16216e-10
4.91729e-09
1.74205e-09
-6.14313e-09
-4.76807e-09
4.38855e-09
4.81905e-09
-4.43953e-09
-5.69962e-09
7.88854e-09
2.75093e-09
-4.93985e-09
-4.29396e-09
4.32845e-09
-1.75589e-11
-1.69252e-11
-4.66005e-09
4.60917e-09
-9.57419e-11
1.46617e-10
3.68688e-09
-1.73938e-11
1.69255e-11
-3.68642e-09
-5.94178e-10
-4.12549e-09
7.3902e-10
3.98065e-09
5.82007e-09
-3.17006e-10
1.44666e-10
-5.64773e-09
1.40427e-11
5.23775e-09
2.71612e-12
-5.25451e-09
-9.46817e-09
6.67671e-09
-7.49632e-09
1.02878e-08
-2.52685e-09
2.68362e-09
-6.36376e-09
6.20699e-09
-2.28827e-10
-4.25459e-09
4.48341e-09
4.26933e-09
-6.60077e-10
-3.80864e-09
1.99379e-10
4.55223e-09
-4.48964e-09
1.22191e-11
-7.4814e-11
5.19637e-09
-5.02775e-09
1.68139e-10
-3.36752e-10
3.89632e-09
-3.4885e-09
-3.1748e-09
6.60342e-10
4.67458e-09
-4.73168e-09
-6.03238e-10
-3.14202e-09
5.04048e-09
3.54814e-09
-5.4466e-09
-4.13799e-09
-8.70551e-11
4.18165e-09
4.34046e-11
-4.08777e-09
4.1659e-09
-1.84535e-10
1.06399e-10
-8.87212e-09
4.07054e-10
2.37808e-09
6.08698e-09
-4.86288e-09
-1.1106e-09
5.22793e-09
3.67039e-09
1.06483e-11
-3.58384e-09
-9.71924e-11
-4.3661e-10
5.8299e-09
-1.96923e-10
5.11e-09
-3.39169e-09
-7.18712e-09
5.46881e-09
-2.81475e-10
4.99411e-09
-5.22885e-09
-1.77007e-09
-4.9746e-09
3.36164e-09
3.38303e-09
-4.54717e-09
4.35609e-09
4.16562e-10
-2.25485e-10
-3.66693e-09
3.58354e-09
1.08244e-10
-2.48534e-11
1.38055e-09
-1.64736e-10
3.38923e-09
-4.60505e-09
-4.43622e-09
8.58459e-10
-1.96048e-10
3.7738e-09
2.95966e-09
-7.33589e-09
-1.41689e-09
5.79312e-09
-1.2721e-10
7.53521e-11
-6.15022e-09
-6.20616e-11
1.26566e-09
4.94662e-09
3.89998e-09
-5.2348e-10
2.14269e-10
-3.59077e-09
-4.14478e-09
-1.83353e-10
1.02282e-10
8.71372e-10
-3.74739e-10
4.23685e-09
5.63839e-09
9.70346e-11
-1.6922e-10
-5.5662e-09
-3.75516e-09
-6.77268e-10
1.9425e-10
1.23654e-10
-8.11609e-11
-4.05643e-09
-1.74025e-10
8.56782e-11
-4.05562e-09
1.90067e-10
-5.90081e-11
3.92456e-09
-5.51077e-09
3.7237e-09
-2.09784e-09
3.88491e-09
-4.96731e-09
3.41343e-09
1.55387e-09
-3.03673e-09
3.83983e-09
-6.52709e-09
5.724e-09
-4.78871e-09
4.96848e-09
4.27822e-09
-4.45798e-09
3.63228e-09
8.27244e-11
-1.18962e-10
-3.59604e-09
-4.03559e-09
-1.58396e-10
1.06222e-10
-1.57968e-09
4.06302e-09
-6.05601e-09
3.57267e-09
-6.47346e-10
-1.09399e-10
6.9252e-11
3.85818e-09
3.54701e-10
-4.37882e-09
1.65937e-10
2.62925e-09
2.4835e-09
-9.92833e-10
-4.11992e-09
-3.93094e-09
3.92214e-09
2.58515e-13
8.54563e-12
1.02497e-09
9.8279e-10
-6.3199e-09
4.31214e-09
-8.32944e-09
2.72228e-09
7.48078e-09
-2.48866e-09
2.71319e-09
-4.6804e-09
4.45588e-09
-3.78312e-09
3.63808e-09
1.53241e-10
-8.19873e-12
-5.54703e-09
1.68164e-10
-1.95134e-10
5.574e-09
1.46055e-10
-3.65907e-11
-3.90568e-09
3.79622e-09
-2.582e-09
2.43113e-09
-2.12687e-09
2.27774e-09
1.07125e-10
-4.34309e-09
-2.82615e-10
4.51858e-09
-7.36433e-09
4.56739e-09
-2.39788e-10
1.85366e-10
-3.48199e-10
-3.81503e-09
3.97787e-09
-3.29595e-09
8.45757e-10
3.6882e-09
-1.23801e-09
-5.86801e-09
3.9544e-09
4.87326e-09
6.27577e-11
-3.23928e-09
3.17652e-09
-7.36427e-10
-4.23382e-09
1.19676e-09
3.77349e-09
-4.3575e-09
4.47496e-09
6.66012e-11
-1.84059e-10
-8.62789e-10
3.61562e-09
-2.75566e-09
2.82388e-12
-3.87969e-09
-8.78934e-12
-4.24678e-11
2.69533e-10
-8.67226e-09
-6.10095e-11
1.46913e-10
-5.58949e-09
5.50359e-09
-5.28335e-09
4.919e-09
-1.85961e-09
2.22396e-09
-3.35622e-11
3.1627e-09
-3.12914e-09
4.97692e-09
-1.64684e-10
4.4015e-11
-4.85625e-09
3.74485e-09
8.16536e-11
-1.31782e-10
-3.69472e-09
-1.59324e-09
8.86657e-10
4.28685e-09
-3.58027e-09
4.61549e-09
-8.71423e-09
7.16112e-09
-3.06238e-09
-4.00791e-09
5.32302e-11
-1.0175e-10
3.96917e-09
-3.91312e-09
7.52418e-11
-1.31292e-10
4.47226e-09
-4.80042e-09
6.34472e-10
-3.06312e-10
-6.02249e-09
3.08226e-09
-3.20864e-09
6.14887e-09
-4.46378e-09
6.08314e-11
4.72554e-09
-3.2259e-10
-6.985e-09
2.8899e-09
6.46019e-09
-2.36509e-09
3.86772e-09
-3.80852e-09
7.75286e-11
-1.36722e-10
7.42449e-10
-1.94763e-09
4.07618e-09
-2.871e-09
-1.98243e-08
1.29486e-10
1.96948e-08
2.18376e-11
-3.94353e-09
3.91682e-09
4.87622e-12
1.50077e-09
-6.87993e-09
-1.13926e-09
6.51842e-09
4.18115e-09
5.56416e-09
-4.3722e-09
5.15247e-09
-2.13722e-10
3.81665e-11
-1.8613e-10
-6.37788e-09
-1.13608e-09
7.70008e-09
-3.48675e-09
3.66474e-09
-9.71373e-11
-8.0851e-11
3.71169e-09
-1.23905e-10
-1.25304e-10
-3.46248e-09
4.48556e-11
-3.03578e-09
2.99092e-09
-2.63717e-10
4.85317e-10
4.25066e-09
-1.27592e-09
3.78326e-10
-4.61318e-09
-4.83401e-09
-5.83704e-09
4.64857e-09
-5.29423e-09
1.98234e-09
-2.64205e-11
3.33831e-09
5.08824e-11
5.01308e-09
-4.76561e-09
-5.72665e-09
-1.11335e-09
6.76636e-09
7.36458e-11
-2.15901e-10
-4.85424e-09
4.90545e-09
-4.35429e-09
4.48915e-09
-3.23585e-10
1.88722e-10
-1.0096e-10
5.59247e-11
5.44621e-09
-2.25564e-09
2.06744e-09
-5.258e-09
-3.6794e-09
3.6396e-09
-8.0353e-11
1.2015e-10
4.78419e-09
-7.19318e-10
-4.12708e-09
6.22026e-11
-1.51848e-10
8.54247e-11
-4.57096e-09
-1.31086e-08
-1.37303e-09
8.22646e-09
-9.97883e-09
-9.89178e-09
1.16441e-08
2.33593e-09
5.28815e-09
-3.72776e-09
-8.51017e-09
6.99295e-09
9.74368e-09
-4.29736e-09
5.75958e-10
3.7214e-09
3.4867e-09
-1.87362e-09
6.57165e-10
-2.27025e-09
4.67534e-09
-3.7805e-09
-1.69111e-09
7.96273e-10
-7.0402e-09
-9.91742e-10
1.02394e-09
7.008e-09
-4.26641e-09
4.49171e-09
6.27601e-09
-6.50131e-09
-7.63717e-09
-2.23982e-09
7.35014e-09
7.32754e-11
3.56549e-10
-6.30063e-09
5.87081e-09
-7.69827e-09
-4.54328e-09
1.74644e-09
-3.92634e-09
3.82286e-09
1.27967e-10
-2.44851e-11
-3.88912e-09
3.73486e-11
-2.79123e-11
1.99172e-09
-1.22326e-08
1.13784e-08
-1.13746e-09
-5.22057e-09
4.97004e-09
-9.70715e-11
3.47601e-10
-3.35776e-10
5.79393e-11
-3.03903e-09
-8.42459e-09
8.34285e-09
3.12076e-09
3.71714e-09
4.33326e-09
-5.32123e-09
4.06868e-09
-3.98839e-09
-1.57304e-10
7.70117e-11
3.40841e-09
3.62973e-09
-3.22227e-09
3.81153e-09
7.05277e-10
-1.0301e-09
-4.64409e-09
3.48991e-09
-1.21732e-10
4.06806e-09
-3.91398e-09
2.45053e-10
-3.9913e-10
-4.2768e-09
4.20295e-09
-1.50429e-10
2.24271e-10
5.68962e-09
-3.56801e-10
-5.48589e-09
1.53071e-10
-8.14996e-09
5.8199e-09
-3.53795e-09
-5.37405e-09
-3.48554e-09
2.72009e-09
6.1395e-09
-6.40762e-09
1.09212e-09
5.50584e-09
-1.90346e-10
-3.89669e-09
-1.28946e-10
-4.48816e-11
-4.27086e-09
-3.24844e-10
1.31923e-10
8.24011e-10
-4.583e-09
4.2166e-09
-4.57613e-10
-4.94201e-09
-1.88991e-09
2.31143e-09
4.52048e-09
-4.51476e-09
5.05327e-10
4.64071e-11
4.56806e-10
-4.52831e-09
4.47115e-09
-6.02938e-10
3.17677e-11
-3.90312e-09
3.86003e-09
-4.19683e-09
4.23992e-09
-2.97766e-10
1.0634e-09
-4.66875e-09
-7.93054e-09
-3.06148e-09
7.95299e-09
4.0161e-09
-4.17927e-09
1.63171e-10
2.9215e-09
-7.50124e-09
-2.40526e-09
3.96509e-09
-2.49869e-10
-3.69339e-09
-4.11905e-09
-1.29441e-10
4.13863e-09
1.09861e-10
1.28871e-08
-1.57566e-08
-8.32474e-09
1.11943e-08
-4.85644e-09
-1.31082e-09
5.93843e-09
-1.51445e-09
5.56862e-09
-5.81051e-10
-5.15785e-09
-8.88318e-10
6.62722e-09
-1.3069e-09
2.73797e-10
-3.40312e-09
-4.43909e-10
-1.34663e-10
6.79285e-11
-4.00944e-09
5.08278e-11
-1.8416e-11
2.71901e-09
-4.29698e-09
-4.97331e-09
6.55128e-09
9.41434e-11
-3.90674e-09
3.8126e-09
-7.83597e-09
3.70434e-09
5.1566e-09
-5.84315e-09
-1.54629e-08
6.7431e-09
1.4563e-08
1.43113e-10
3.87298e-09
3.92122e-09
-3.57944e-09
2.12761e-10
-5.54533e-10
4.10494e-09
-4.09825e-09
-3.11602e-09
3.10933e-09
1.31553e-08
-1.41591e-08
6.99335e-09
-5.98961e-09
-1.34756e-10
6.54429e-11
1.28574e-09
1.28942e-08
-1.35656e-08
-6.14309e-10
-1.13362e-09
-3.29579e-09
2.25088e-10
3.92256e-09
-3.84426e-09
-1.47603e-10
6.93086e-11
6.61966e-09
-5.59723e-09
-4.28157e-09
3.25915e-09
1.03642e-10
-3.43635e-11
-1.60245e-09
3.91991e-10
-4.93977e-09
-3.98495e-09
6.18977e-10
4.10842e-09
-5.76992e-09
4.53269e-10
-1.44345e-10
5.46099e-09
-4.52934e-09
1.52231e-10
-8.54964e-11
4.1987e-09
-4.70856e-09
-2.32475e-10
7.42331e-10
-4.19337e-09
-1.7998e-09
4.21525e-09
1.77793e-09
-8.17647e-10
-4.64209e-09
4.64464e-09
8.15094e-10
5.78897e-09
3.73433e-10
-1.02231e-09
-5.1401e-09
-4.56591e-09
1.04306e-09
-1.208e-09
4.73085e-09
-4.52182e-09
5.70874e-09
-1.18692e-09
-5.15916e-09
-4.08298e-09
3.35542e-09
5.88672e-09
-3.97387e-09
5.322e-10
-5.01855e-10
2.26903e-10
-3.94573e-09
-6.4301e-11
1.65074e-09
-5.57661e-09
-7.18216e-10
3.54896e-09
-1.2867e-10
-3.47648e-09
5.61934e-11
-4.22312e-09
-6.82693e-10
1.20954e-09
3.69627e-09
-6.42341e-11
-3.52905e-12
4.62473e-09
-3.98452e-09
2.75531e-09
-3.39552e-09
3.77143e-10
-1.16382e-10
4.17057e-09
-1.05129e-08
2.98327e-09
7.71592e-09
-1.86324e-10
3.73463e-09
-1.17047e-10
-3.67323e-09
5.56473e-11
1.03375e-09
-9.88932e-09
7.93744e-09
5.22219e-09
3.64191e-10
-6.33373e-10
-4.95301e-09
-4.80189e-09
-3.20725e-10
5.45217e-10
4.57739e-09
-3.25194e-09
-5.52783e-09
6.42098e-09
2.3588e-09
-7.36755e-09
-9.11972e-09
-3.70023e-09
-2.2331e-11
5.56251e-11
-1.90679e-08
1.6097e-08
-2.87217e-09
-4.25347e-09
-2.44087e-10
1.43267e-10
3.41829e-09
-3.56967e-09
1.53853e-09
-1.38716e-09
7.99826e-10
-1.09635e-09
6.13426e-09
-5.83774e-09
4.99134e-11
-8.9709e-11
3.91723e-09
2.26706e-09
-4.53347e-09
-6.6057e-09
-9.28254e-09
-3.57633e-09
8.28792e-09
-3.45787e-09
3.56038e-10
3.10183e-09
-4.7658e-09
4.80089e-09
1.85476e-10
-2.20573e-10
-1.72765e-10
1.35726e-09
4.04969e-09
-5.37423e-11
-3.67561e-09
4.99559e-11
-4.74078e-09
-2.32977e-10
2.07963e-10
-5.82576e-09
5.9927e-09
-7.67219e-09
1.6495e-10
-8.51201e-11
-1.22308e-10
1.15484e-10
5.17024e-09
-5.16342e-09
-8.21925e-09
-6.59798e-09
5.34906e-09
-3.41174e-10
-5.56886e-09
9.13978e-10
4.99606e-09
2.77058e-09
-4.55119e-09
3.16117e-09
-2.68062e-10
-3.90336e-09
6.00976e-10
3.57045e-09
-3.84173e-09
5.82951e-09
-5.23972e-09
-3.20816e-10
-3.85827e-09
4.17909e-09
-2.38594e-10
1.00363e-10
-3.05678e-10
8.30043e-09
1.60812e-09
-1.11112e-08
3.891e-09
-2.54159e-09
-6.50857e-09
3.09186e-09
-1.75633e-09
3.49345e-09
-9.43368e-10
3.85394e-09
-5.22349e-09
4.1921e-09
3.97463e-10
6.33926e-10
6.10727e-09
4.55726e-09
-6.03981e-09
2.15298e-09
-5.47038e-10
-4.73855e-09
3.13261e-09
7.35982e-09
1.18024e-10
8.22586e-10
-3.71455e-09
3.69702e-09
-3.93424e-09
2.26546e-09
-8.1988e-10
2.16327e-09
-4.6305e-09
3.98643e-09
-1.51921e-09
-4.93718e-09
-3.22142e-10
4.9093e-09
3.50021e-10
-3.91087e-09
-4.63238e-11
6.30206e-11
3.89417e-09
4.41645e-09
-4.47851e-09
-4.31193e-09
1.61716e-09
5.40796e-09
-1.39108e-08
-8.57841e-09
8.46161e-09
1.40276e-08
-5.43868e-09
5.42341e-09
4.66483e-11
-3.13722e-11
-4.44432e-09
7.28891e-09
4.30778e-09
-7.15237e-09
1.34822e-09
-1.39404e-09
7.63941e-10
-5.78331e-10
-1.67303e-08
1.8232e-08
-6.8023e-09
5.30057e-09
-7.05192e-10
6.64565e-11
-1.28445e-08
1.34833e-08
2.17829e-09
6.1188e-09
-5.33025e-09
-2.96684e-09
4.10995e-09
-1.06575e-09
7.74536e-10
-3.81873e-09
8.33333e-11
-1.49166e-10
-6.83306e-09
-7.73104e-09
6.77328e-09
7.79081e-09
-2.33478e-10
1.11799e-10
2.17751e-09
-1.2305e-09
2.65957e-09
-3.60658e-09
-3.90623e-09
7.74181e-11
-1.8063e-10
-2.37003e-09
6.25895e-09
1.55728e-09
-3.94314e-10
3.69754e-10
-2.26692e-10
2.51253e-10
4.02791e-09
-5.1213e-09
3.8124e-09
-2.84787e-10
-4.72343e-09
4.40498e-09
-8.72006e-10
-3.97958e-09
4.13227e-09
-3.44866e-10
-4.47478e-09
-2.08109e-10
-1.79717e-08
-6.26302e-10
6.0923e-11
1.85371e-08
-2.41788e-10
-5.54875e-09
-5.04446e-09
-3.58746e-09
3.5432e-09
-8.82268e-11
1.32487e-10
1.55927e-10
3.48423e-09
-5.66165e-11
-2.52215e-09
1.96424e-09
1.81316e-08
-1.75737e-08
-1.13376e-10
-3.4919e-09
1.00203e-09
2.60325e-09
1.8336e-09
-3.50774e-09
5.07455e-09
-3.40041e-09
-1.08546e-09
2.29357e-09
-5.30311e-09
4.095e-09
-5.19098e-10
1.57644e-09
6.75068e-09
-2.42906e-09
-5.89806e-09
-5.16785e-09
2.92037e-09
-3.81968e-09
3.7647e-09
-5.04166e-11
1.05394e-10
-1.12082e-09
-4.19163e-09
4.06373e-10
4.90608e-09
4.28131e-09
2.59421e-09
-4.06653e-10
4.95663e-09
2.66178e-10
-4.81615e-09
3.67339e-09
-3.61777e-09
-2.69018e-10
-4.21553e-09
3.00381e-10
4.18417e-09
1.38815e-09
-4.68699e-09
2.11343e-10
-2.65136e-10
3.01145e-09
-6.78288e-10
2.96094e-10
3.27386e-09
-3.22303e-09
-5.08332e-11
1.98944e-10
5.15131e-09
-1.2806e-10
3.63631e-09
-3.57833e-09
1.27003e-11
-7.06872e-11
-5.11807e-09
4.25385e-09
-2.18997e-10
1.08322e-09
1.60595e-10
-3.25124e-10
-4.52246e-09
2.74887e-09
-1.31609e-09
-6.11319e-09
-4.57544e-09
-5.53593e-09
5.00601e-09
5.10536e-09
-4.24724e-09
9.89736e-11
-9.69806e-10
-4.58648e-09
4.4895e-09
2.12787e-10
-1.15802e-10
-1.24871e-08
1.36167e-08
-1.12958e-09
5.45865e-09
-6.66409e-09
8.60581e-10
-2.39112e-08
1.60241e-08
-1.19372e-08
6.90184e-10
-5.04495e-09
-5.78236e-11
4.41259e-09
1.24229e-08
-1.20479e-08
2.21964e-09
-2.59462e-09
-2.17965e-10
-4.98281e-09
2.91374e-10
4.9094e-09
4.02463e-09
-1.51766e-09
-3.95289e-09
1.44592e-09
4.34146e-09
-8.81636e-10
-5.40745e-09
9.06708e-10
-6.43922e-09
-1.45225e-11
2.37513e-10
-4.68088e-09
5.43752e-10
-8.75016e-10
-2.96468e-09
-4.68755e-09
-6.94911e-10
4.56481e-09
-4.07771e-10
-4.94027e-09
4.10859e-10
-1.32073e-10
-3.77931e-09
6.71206e-11
2.74621e-09
2.83141e-09
-1.7176e-09
3.9662e-09
-4.64144e-09
-9.2802e-12
6.84526e-10
-1.29221e-10
3.81553e-09
2.53825e-11
-4.55925e-09
3.9956e-09
4.3293e-10
1.30724e-10
3.7217e-09
-3.73846e-09
-5.13541e-09
1.95211e-09
-5.94205e-10
3.77751e-09
3.25541e-09
-3.66997e-09
1.58587e-10
2.55974e-10
6.11291e-09
-1.09713e-09
-5.01579e-09
5.16109e-09
3.51954e-09
-4.78964e-09
3.3629e-09
-2.73122e-09
1.82984e-09
-1.14496e-10
6.90919e-11
3.8028e-09
-4.18391e-09
-9.03003e-10
1.42991e-09
3.07826e-09
-3.60518e-09
-1.57455e-09
2.11293e-09
-2.52706e-09
1.98867e-09
8.78109e-10
-1.19856e-09
5.68538e-09
-5.36493e-09
3.6103e-11
-4.03026e-11
5.65962e-09
-6.00628e-09
-6.4864e-09
-1.38795e-09
4.3842e-09
1.07993e-09
-6.34604e-10
2.24887e-10
-5.23449e-11
4.62062e-10
-3.9865e-09
2.33171e-09
-1.15281e-10
-2.3605e-10
-4.49252e-09
-2.63757e-13
4.72883e-09
1.81135e-09
-3.73867e-09
6.29431e-09
3.86404e-09
-2.86855e-09
2.81298e-09
-3.80847e-09
4.01577e-09
9.06408e-11
-1.42653e-09
-2.67988e-09
-2.56063e-09
1.78896e-10
-2.48158e-09
-3.93987e-09
5.88442e-09
5.37026e-10
-6.0387e-10
5.57452e-09
3.05611e-10
-5.27626e-09
8.25669e-10
-5.54926e-09
5.71628e-09
-9.92696e-10
3.26592e-09
-3.12412e-10
-5.73283e-09
-7.71565e-09
2.93562e-09
-5.12745e-10
-7.05026e-12
-4.61561e-09
4.67623e-09
-4.57218e-09
-2.33501e-10
1.29457e-10
-2.57262e-10
-4.14395e-09
1.30347e-10
-4.64343e-09
-1.34525e-09
-6.75133e-09
-2.1551e-09
3.17361e-09
-5.45886e-10
4.26119e-09
2.91729e-10
-4.00703e-09
-3.38319e-10
4.22937e-09
-3.89105e-09
-3.92856e-09
3.80612e-09
5.23923e-10
-4.01487e-10
-6.02758e-10
-4.19888e-09
4.47679e-09
-4.02901e-09
-4.1538e-10
1.97148e-10
-3.92146e-10
5.46326e-09
-5.52981e-09
4.58689e-10
-5.97204e-09
4.2696e-09
-4.31105e-09
2.45182e-10
-2.03732e-10
-4.34918e-09
1.53904e-10
-5.43179e-11
4.24959e-09
-5.1274e-10
2.54272e-10
-3.86861e-09
-6.06343e-09
5.98497e-09
1.51741e-10
-8.54741e-14
3.27395e-09
-7.75702e-10
-1.33277e-11
7.88955e-10
-8.63659e-10
5.3077e-09
2.194e-09
-6.63805e-09
1.30209e-10
-7.80654e-11
5.74213e-09
-6.48518e-11
1.23379e-11
-8.02403e-09
2.28862e-09
-5.50794e-10
6.2862e-09
3.82305e-10
-2.665e-10
-5.10119e-10
5.65464e-10
2.43117e-09
-3.02739e-09
3.07553e-11
3.98621e-10
-3.22699e-10
-4.87781e-09
-4.71165e-09
-1.71404e-09
3.46283e-09
2.96285e-09
-6.23803e-10
2.94405e-09
-3.68239e-09
-3.17356e-09
-4.97255e-09
4.77955e-10
3.83112e-09
-3.2398e-09
3.87548e-09
-2.22098e-10
-4.15303e-09
1.2166e-10
-5.98931e-09
1.89713e-09
4.44872e-09
-4.17339e-10
2.3712e-10
-3.33395e-09
2.63625e-10
-1.20547e-10
4.88038e-09
-2.79971e-09
1.02866e-09
9.15223e-10
5.9592e-09
-8.88807e-10
-5.98561e-09
-5.16102e-09
4.74515e-09
-2.23516e-10
3.88818e-09
8.98603e-09
-4.29419e-09
-9.18297e-09
8.41874e-09
1.79799e-09
-1.69292e-08
-3.41241e-09
6.44795e-09
1.38936e-08
-4.22864e-10
5.94338e-10
-4.10003e-09
6.93921e-09
-7.02213e-09
3.00442e-09
7.21667e-09
5.80146e-09
-6.34141e-09
8.44587e-10
-1.02413e-09
4.20417e-09
-7.51631e-11
3.66568e-11
-1.30868e-09
-4.45422e-09
-3.70542e-09
2.45836e-09
4.222e-09
-2.97494e-09
5.40463e-09
-2.29949e-09
9.57998e-12
-3.11472e-09
-1.0523e-10
-4.85297e-09
6.8638e-09
-5.28831e-09
-2.6559e-11
-1.54893e-09
3.42793e-09
-1.25051e-09
-3.31104e-09
6.27054e-09
-6.72258e-09
5.33828e-10
-8.17817e-11
2.87329e-09
-2.00599e-09
-8.24827e-09
3.7303e-09
-1.18409e-09
1.00769e-09
-5.76544e-10
3.38243e-09
-8.79519e-09
1.47118e-10
4.17982e-09
-4.27611e-09
-7.05497e-09
8.74753e-10
5.19846e-09
9.81759e-10
5.80545e-10
-4.76776e-09
-7.87387e-10
-4.77104e-09
-1.01002e-10
1.89318e-10
4.68272e-09
3.45754e-09
-6.44142e-09
1.75339e-09
5.71093e-09
3.7348e-10
-5.75765e-09
5.69067e-09
4.68247e-09
5.40114e-09
-1.54179e-09
-4.19767e-09
2.56497e-09
-2.45253e-09
-1.12442e-10
6.84736e-10
-5.49504e-10
-4.04146e-09
-3.41445e-10
-3.21487e-10
2.3598e-10
4.52258e-09
-4.61453e-09
9.19491e-11
-4.90005e-09
-8.89528e-11
-4.05512e-09
4.07754e-09
-1.46101e-10
1.23685e-10
-2.66774e-10
4.49615e-09
-3.14942e-10
2.29507e-09
-3.23064e-09
7.18299e-09
2.73482e-09
-6.46835e-09
-3.44946e-09
-1.13263e-09
6.41036e-09
-3.31521e-10
-1.45119e-08
2.0248e-09
2.02123e-10
-8.57359e-09
1.64888e-09
-2.76128e-10
3.47661e-10
4.38933e-09
-4.46086e-09
1.14777e-09
-7.09057e-09
1.20501e-08
-7.06701e-09
6.6091e-09
4.56193e-10
3.73034e-09
-4.19126e-09
4.7262e-12
-1.67193e-10
-4.12273e-09
3.50076e-10
3.93985e-09
7.0882e-11
3.93314e-09
-3.85124e-09
2.91686e-11
-7.08789e-11
2.54227e-09
-3.10438e-09
5.62111e-10
-4.92354e-09
4.66642e-09
-4.53159e-09
2.3402e-10
-4.35495e-09
-1.55862e-10
2.50303e-11
4.02757e-09
-4.24893e-09
1.96332e-10
3.85476e-09
-8.08864e-12
-3.83485e-09
-2.93003e-10
3.10732e-10
4.23612e-09
-3.77049e-09
6.13195e-10
-1.589e-09
4.74629e-09
-1.11789e-08
1.57237e-09
-4.81137e-11
9.65466e-09
-1.07498e-09
-4.92124e-09
5.37943e-09
4.11749e-09
-2.98999e-09
-6.50693e-09
4.2346e-09
-6.66743e-09
-2.29258e-10
1.17004e-09
-5.52839e-09
-1.49976e-08
1.45808e-09
7.96213e-10
-1.07256e-09
4.08787e-09
-1.64856e-09
-8.57417e-10
2.19659e-09
3.09393e-10
-6.72135e-10
4.87525e-09
-5.2781e-09
4.20996e-09
-4.01101e-09
1.84751e-10
-7.06193e-09
-4.35925e-09
-7.83066e-12
4.28002e-09
-1.81054e-09
5.33959e-09
7.79502e-10
-4.30855e-09
4.75504e-09
-2.26667e-09
2.95767e-09
-5.44604e-09
-5.91448e-09
-1.14836e-08
9.17879e-09
1.51483e-09
4.60227e-09
-7.25348e-09
2.86223e-09
-1.51313e-10
-1.66484e-09
-4.62526e-09
-3.79355e-09
-9.79998e-09
5.89526e-09
1.73508e-10
4.40538e-09
-8.93956e-11
8.18225e-11
-1.49961e-11
-3.4604e-09
3.31135e-09
-1.23441e-10
2.7249e-10
1.15147e-08
4.01627e-10
-9.43992e-09
-2.47638e-09
3.34312e-09
-4.36263e-09
-2.91301e-10
-8.32966e-10
-6.96288e-09
5.42359e-10
-6.86073e-09
-2.92131e-10
-5.31851e-10
-3.34969e-10
7.32157e-10
8.38211e-11
2.98601e-09
-4.38569e-09
3.92926e-09
-3.75258e-09
3.34052e-09
-3.27033e-09
1.35918e-09
-1.17982e-08
-7.39876e-10
-5.0331e-09
2.30266e-10
3.6702e-09
3.3175e-09
-3.78376e-09
4.80585e-09
4.39648e-09
3.64124e-09
-4.30946e-10
-4.65278e-09
4.67707e-09
-4.60656e-09
6.81143e-09
5.6898e-09
-5.86248e-09
5.88361e-09
4.30834e-09
-4.53469e-09
1.74118e-09
-5.76027e-10
4.24505e-09
3.9904e-10
-1.23158e-09
4.41681e-09
-5.7357e-09
4.53178e-09
9.0572e-11
4.5273e-09
-4.61979e-09
9.24871e-11
-4.90045e-09
4.88752e-09
2.66371e-10
-2.53443e-10
4.10956e-09
-4.28867e-09
3.26232e-10
-4.33946e-09
-1.00852e-08
-2.41577e-09
5.97399e-10
4.39139e-09
-4.17061e-09
-2.36576e-09
2.14498e-09
1.02022e-10
-5.5418e-09
5.13688e-09
3.02896e-10
3.94167e-10
-6.27285e-09
4.17388e-09
2.5291e-09
-4.89272e-09
6.35401e-10
-3.35249e-09
2.73559e-09
-6.76464e-09
-8.04951e-09
2.7195e-10
8.19715e-09
-4.19592e-10
2.24696e-10
-5.03487e-09
-8.98768e-11
1.33216e-08
4.12637e-09
-4.29261e-09
-1.55821e-10
-3.94507e-09
4.00186e-09
9.90284e-11
4.55593e-09
3.24718e-10
-5.15678e-09
-5.45481e-09
-4.34323e-10
-4.63004e-09
-8.23914e-10
5.83228e-09
-4.81965e-09
4.77825e-09
-3.594e-10
4.00796e-10
-9.12468e-10
4.20583e-09
1.01498e-09
-2.0619e-09
-5.76993e-09
4.94931e-09
2.88252e-09
-5.34535e-09
2.88572e-09
4.50461e-09
-2.04497e-09
-4.95456e-09
4.64937e-09
-1.2176e-10
-3.25846e-09
-7.89202e-09
3.78293e-09
-2.22098e-09
6.68136e-09
1.85563e-09
-5.01982e-11
-5.90905e-12
4.92348e-09
-4.47442e-10
-5.14817e-09
-3.72326e-10
4.37109e-10
4.07804e-09
-4.14282e-09
7.12524e-09
-5.78858e-09
7.64937e-09
1.38445e-10
-7.54549e-09
1.533e-10
-2.92129e-10
-3.89018e-09
-3.33509e-10
4.0705e-09
-4.10931e-09
1.05954e-08
-8.12311e-09
-2.47225e-09
-7.28687e-10
4.27752e-09
-3.96421e-09
3.86569e-09
-3.72919e-11
4.26475e-09
-4.23951e-09
8.54648e-11
-1.10707e-10
-1.37721e-10
1.92156e-10
7.89303e-10
-3.67699e-09
-6.93575e-10
3.58126e-09
2.92133e-09
1.4438e-09
4.32778e-09
-3.34964e-09
9.09228e-09
-1.13564e-08
-3.06397e-09
5.32811e-09
-9.70869e-10
-8.74317e-09
3.86192e-09
-3.46139e-09
3.04739e-10
4.71191e-09
1.81969e-10
-2.18537e-09
7.7697e-09
-9.67864e-09
3.57702e-10
4.30044e-09
2.76794e-10
-7.20028e-09
-2.7177e-09
4.35156e-09
-3.16762e-11
-5.09145e-09
3.33337e-10
4.43366e-09
3.64379e-09
-2.37197e-09
-5.70548e-09
-4.12218e-10
5.16048e-10
-5.43519e-10
8.73247e-10
4.15551e-09
-4.48524e-09
-2.41596e-09
-6.07141e-09
-4.8493e-09
1.63692e-10
-1.32986e-10
4.81859e-09
4.30813e-09
-1.60279e-09
-2.95503e-09
2.49684e-10
-4.72969e-09
-3.79093e-09
4.67889e-09
-4.09149e-09
3.19661e-10
4.15137e-09
-3.79534e-10
3.0053e-09
6.45816e-10
-3.92905e-09
2.77933e-10
4.72486e-09
-3.19408e-09
3.28934e-09
-4.82011e-09
-1.86406e-08
1.97818e-08
-1.14117e-09
3.30723e-09
-3.92014e-09
3.38637e-09
-2.77346e-09
1.00944e-10
-5.07905e-11
-4.02924e-09
-4.35337e-10
3.73084e-10
3.02809e-09
2.34151e-09
-2.77539e-09
1.32177e-11
-4.49059e-09
1.88705e-10
4.82601e-09
-6.10825e-09
1.97129e-09
-6.89053e-10
-8.00584e-09
-3.20478e-09
5.84389e-09
5.36674e-09
-8.29137e-09
-5.75963e-09
6.04516e-09
-7.93079e-09
-6.86255e-09
6.50197e-09
2.52218e-09
-4.85738e-09
-1.74779e-09
3.58657e-10
-8.18284e-10
-8.13274e-09
6.97523e-09
4.78884e-09
3.88032e-10
1.35424e-09
3.57379e-09
-4.89144e-09
3.07657e-09
8.66632e-10
9.48236e-10
-1.14731e-09
-4.0622e-09
2.00281e-09
3.2067e-09
-3.66139e-09
4.95726e-09
1.11894e-10
3.77378e-09
-1.99802e-11
-2.85827e-10
4.11963e-09
4.10619e-09
-4.00001e-09
3.87848e-09
-1.71475e-10
-2.14692e-10
9.5848e-11
6.61915e-09
1.31424e-10
-1.49844e-11
8.46337e-10
4.56298e-09
-4.68388e-12
7.68958e-09
-8.30244e-09
-9.83718e-09
-1.41711e-09
-4.09077e-09
2.44334e-09
-4.35808e-09
-4.05116e-10
4.02677e-09
-7.51863e-10
-3.80106e-09
5.23682e-10
2.2984e-09
-2.53149e-09
2.65193e-10
-2.05996e-10
-4.17439e-09
2.77569e-10
4.219e-09
-3.2218e-10
-2.30491e-09
2.20006e-09
3.46775e-09
6.9817e-10
-1.16646e-08
-3.89961e-10
8.0535e-09
3.14225e-09
-3.4736e-09
4.72274e-09
8.58167e-10
3.64394e-09
-1.50553e-10
-4.46454e-09
4.50881e-09
-4.42752e-11
-4.19497e-09
4.1051e-09
1.28454e-10
-1.13685e-09
1.20381e-09
-1.95418e-10
-3.09294e-10
-4.15818e-09
2.93082e-10
1.77247e-08
2.57148e-09
-1.58283e-09
-4.22399e-09
2.35279e-10
4.26628e-09
4.04323e-09
5.12685e-10
3.73046e-09
4.15012e-11
-1.503e-09
-5.14422e-09
1.02427e-09
5.62295e-09
4.20546e-10
3.95404e-10
-3.02191e-09
2.20596e-09
4.82551e-09
3.69651e-09
-4.34814e-09
6.88776e-09
-4.90467e-09
2.02568e-10
4.14519e-09
-4.0001e-09
-3.47024e-09
-7.78583e-09
7.77053e-09
4.16382e-09
1.07446e-10
-4.00764e-09
-2.38998e-09
1.45957e-08
2.93116e-09
5.85844e-10
4.00456e-09
-4.1533e-09
4.53522e-09
2.91625e-10
-4.93121e-09
-4.17201e-09
-6.6651e-12
-2.06046e-09
-1.22168e-08
2.11215e-09
1.21651e-08
-1.7147e-09
5.16285e-09
-3.98218e-09
5.3403e-10
6.31993e-09
-6.03117e-09
-2.88758e-10
-6.13817e-09
5.47231e-09
-4.6761e-10
1.13347e-09
6.85024e-09
-4.18324e-09
-6.32839e-09
-1.06869e-08
4.16883e-09
-3.16573e-09
-7.54331e-09
1.56917e-10
-4.44165e-09
-1.11394e-10
4.39613e-09
-8.948e-10
-3.38905e-09
6.44712e-09
2.30096e-10
-5.19012e-09
2.82432e-10
-3.24487e-09
3.78471e-09
1.7014e-10
-3.78072e-09
-1.74127e-10
6.04789e-09
-1.3731e-09
-3.92307e-09
-7.51725e-10
5.00702e-09
-5.46891e-09
-1.60001e-09
-4.09122e-09
-1.81439e-11
-9.69263e-12
3.54851e-09
-1.3102e-09
-3.77468e-09
1.53638e-09
1.02903e-09
-6.86582e-09
-6.51151e-09
7.99694e-09
1.68817e-09
-3.86765e-09
3.93423e-09
-6.0575e-10
5.3917e-10
3.76568e-09
-3.74757e-09
2.01003e-10
-2.19113e-10
2.34865e-09
3.94379e-09
-2.44558e-10
2.90984e-10
4.0629e-09
1.56062e-10
-4.08e-09
3.7945e-09
9.06222e-09
-3.64998e-09
1.23125e-08
-4.70427e-09
-2.5945e-09
-8.83148e-10
2.87086e-09
6.0678e-10
-5.78759e-09
3.75409e-09
1.40969e-09
2.92254e-10
2.4159e-09
-5.7541e-10
-2.13274e-09
3.50147e-09
-7.30501e-09
-5.00565e-09
5.21573e-09
-1.724e-10
2.21453e-10
-5.26478e-09
-4.63063e-10
4.88855e-09
-4.87293e-09
-3.03193e-09
-1.31568e-09
-7.10282e-11
5.73491e-11
6.90317e-09
-5.83244e-10
5.11375e-09
-3.76649e-09
-7.34066e-10
1.49372e-10
3.90237e-09
2.38613e-09
-3.48735e-09
4.37431e-09
-5.31873e-09
4.04664e-09
-4.08032e-09
4.90627e-09
4.27785e-10
-4.48862e-09
1.06036e-10
-1.89599e-10
3.98613e-09
-3.82698e-09
2.89675e-10
-4.48824e-10
-9.35644e-09
1.47531e-10
3.81527e-09
-3.81859e-09
-1.44211e-10
-3.98951e-09
3.60778e-09
4.35832e-10
-5.41003e-11
-4.27227e-09
3.88481e-09
3.95806e-09
2.34537e-10
-1.3e-11
-3.42043e-13
4.12278e-09
4.17565e-09
-4.11393e-09
2.57939e-10
-2.80409e-09
-1.82583e-09
1.15156e-10
-1.49753e-08
-1.04665e-08
4.07109e-09
1.22606e-09
-1.1279e-09
-4.16924e-09
-4.37128e-09
4.65522e-09
-8.04898e-09
4.54448e-09
-4.61879e-09
-3.47656e-10
4.21964e-10
-2.33435e-10
-4.79061e-09
4.79107e-09
-4.1834e-10
-9.88213e-09
-4.55616e-09
1.38776e-09
4.32786e-09
-1.15946e-09
1.2518e-10
-4.03192e-09
-1.80319e-10
-3.81965e-09
3.83275e-09
1.67224e-10
-3.31361e-09
-2.96319e-09
-5.25669e-09
4.82803e-10
-3.76561e-09
1.47499e-09
-3.66724e-10
2.65735e-09
-2.50963e-10
5.6733e-11
-5.11496e-09
-3.77526e-09
-7.46398e-10
4.06562e-09
-6.7427e-09
-3.89454e-09
4.21434e-10
2.66193e-09
8.11173e-10
-1.32036e-08
2.32913e-09
6.72111e-09
4.15334e-09
1.62447e-08
-9.76719e-10
1.0536e-09
5.15763e-11
4.64744e-11
4.87574e-10
-1.84416e-10
-3.03158e-10
4.39394e-09
-4.13812e-11
1.91918e-10
-2.72065e-09
-8.3572e-11
-4.13042e-09
-8.8583e-11
-4.07708e-09
3.69864e-11
-4.50683e-09
1.04351e-10
-5.26137e-11
5.84029e-09
-1.28133e-09
3.47315e-10
-1.26136e-09
-3.98953e-09
3.67674e-10
4.88322e-09
5.01064e-09
2.91556e-09
2.76403e-10
-4.11252e-09
1.50644e-10
-2.05977e-10
8.74829e-10
-8.19496e-10
2.59369e-10
-4.12801e-09
4.02221e-09
-1.5357e-10
8.65679e-10
4.34972e-10
-1.30065e-09
-7.34457e-10
1.59419e-09
-4.13424e-09
4.02254e-09
-1.48249e-09
1.294e-10
3.91827e-09
-8.96084e-11
2.96446e-09
6.86465e-09
4.46357e-09
-4.77057e-09
5.98625e-10
2.85112e-10
-2.88497e-10
3.20792e-10
-2.39805e-10
4.29037e-09
-4.37136e-09
4.2612e-09
-3.41545e-09
-1.29863e-10
8.71314e-10
1.47967e-09
4.06419e-09
-5.19498e-09
-3.48867e-10
5.52854e-09