/*--------------------------------*- C++ -*----------------------------------*\
  =========                 |
  \\      /  F ield         | OpenFOAM: The Open Source CFD Toolbox
   \\    /   O peration     | Website:  https://openfoam.org
    \\  /    A nd           | Version:  8
     \\/     M anipulation  |
\*---------------------------------------------------------------------------*/
FoamFile
{
    version     2.0;
    format      ascii;
    class       surfaceScalarField;
    location    "1.4";
    object      phi;
}
// * * * * * * * * * * * * * * * * * * * * * * * * * * * * * * * * * * * * * //

dimensions      [0 3 -1 0 0 0 0];

internalField   nonuniform List<scalar> 
11231
(
2.42167e-08
-3.03535e-08
-5.43827e-09
1.15751e-08
8.56034e-09
3.7883e-10
-1.01608e-09
-7.92309e-09
-9.44352e-09
9.42474e-09
3.3169e-10
-3.12908e-10
-9.89863e-10
-9.17387e-09
1.49213e-09
8.67161e-09
-9.40473e-09
5.06978e-11
9.40557e-09
-5.15416e-11
-5.745e-10
-8.77243e-09
8.35706e-09
-8.85898e-11
1.15571e-10
-9.4705e-09
-1.11806e-10
-9.0713e-09
9.09452e-09
-9.40474e-09
9.39255e-09
4.3201e-11
-3.1011e-11
5.28674e-12
-9.45643e-09
4.64221e-11
-5.57637e-11
-9.0638e-09
9.12485e-09
-9.39434e-09
9.38723e-09
3.52633e-11
-2.81539e-11
3.17973e-12
-9.44371e-09
3.57846e-11
-3.67335e-11
-9.07877e-09
9.11869e-09
9.41229e-12
2.38342e-11
-9.42759e-09
9.17727e-09
4.27089e-10
-1.04401e-09
-3.68957e-11
-9.08087e-09
9.12718e-09
-9.38991e-09
3.53672e-11
9.37468e-09
-2.014e-11
5.45309e-09
1.27211e-08
-1.38412e-08
-4.33298e-09
-9.41747e-09
3.50443e-10
4.76864e-10
8.59016e-09
-1.51885e-12
-9.41684e-09
2.84487e-11
-4.4297e-11
-9.07097e-09
9.11375e-09
-9.3701e-09
9.37131e-09
3.60235e-11
-3.7233e-11
-5.40245e-12
2.92533e-11
-9.39395e-09
-4.52459e-11
-9.07001e-09
9.10986e-09
9.90411e-13
9.34597e-09
-9.37816e-09
3.12078e-11
5.86001e-09
-9.91114e-09
9.50422e-09
-1.31186e-08
3.4204e-09
9.58782e-09
1.10424e-10
-4.78328e-11
-9.05827e-09
9.10709e-09
9.35018e-09
3.1695e-11
-3.59073e-11
4.09128e-11
-7.08666e-11
-1.27743e-08
1.28042e-08
1.61327e-12
9.31604e-09
-9.34641e-09
2.87601e-11
6.15169e-09
-4.17207e-09
2.01977e-09
-3.99939e-09
-4.20379e-11
-9.0388e-09
9.08245e-09
-1.4208e-08
-7.25745e-09
8.35147e-09
1.3114e-08
-1.29639e-08
1.27628e-08
2.41985e-10
-5.65123e-10
1.37358e-08
1.11501e-09
9.32715e-09
2.38941e-11
-3.50036e-11
-2.70895e-09
8.08978e-09
-1.06111e-08
5.23026e-09
-1.00247e-11
9.28686e-09
-9.30345e-09
2.66116e-11
-5.7441e-09
-1.54803e-08
1.28541e-08
8.37032e-09
-9.01286e-09
-5.38619e-11
9.05669e-09
-6.42046e-09
6.39837e-09
5.8821e-09
3.50557e-09
1.9817e-10
-3.42268e-09
-2.81063e-10
9.29208e-09
3.36583e-11
-3.88721e-11
-3.03351e-09
1.6263e-08
1.05643e-09
9.11722e-09
-1.25891e-08
-1.70016e-08
2.04735e-08
2.18482e-11
9.23826e-09
-9.26191e-09
1.79488e-12
-9.93324e-09
1.27014e-08
-2.09817e-09
-6.7002e-10
-1.80613e-08
1.23367e-08
1.94327e-09
3.78133e-09
-4.78375e-09
1.40901e-08
1.39911e-08
-2.32975e-08
-1.32785e-11
-8.998e-09
9.03312e-09
9.25273e-09
-1.50442e-11
5.72378e-13
-6.43255e-13
9.21275e-09
2.42188e-11
-9.23633e-09
9.0414e-09
-9.00786e-09
9.69813e-12
-4.32334e-11
1.6222e-08
-1.051e-08
-1.0774e-08
5.06202e-09
-2.75496e-11
-8.98207e-09
9.00898e-09
1.01778e-08
-1.81169e-09
-1.41102e-08
7.37492e-09
1.31581e-08
7.41802e-10
-2.12748e-08
-4.34658e-09
3.93816e-09
-2.6161e-09
3.02453e-09
9.03606e-09
-1.67946e-11
9.1095e-13
-9.02017e-09
-4.06832e-09
1.12848e-08
-9.30965e-09
2.09314e-09
7.96272e-09
-1.77171e-09
-1.32519e-08
7.06087e-09
1.1903e-08
-1.52503e-08
-1.43647e-09
-9.22789e-12
9.19506e-09
-9.20445e-09
1.86219e-11
9.22928e-09
5.52156e-12
-2.20543e-11
3.87427e-08
-3.11069e-08
-7.63572e-09
-6.17564e-09
-8.32872e-09
1.55172e-09
1.29526e-08
7.63297e-09
1.26871e-09
-8.14845e-09
-7.53234e-10
-4.32067e-11
-8.96503e-09
8.999e-09
-1.79348e-08
-2.62282e-10
1.68756e-08
1.32146e-09
-3.79475e-10
3.83549e-09
-1.71917e-08
1.37357e-08
2.57758e-10
8.85855e-09
-3.11716e-09
-5.99915e-09
-2.66576e-11
9.17045e-09
-9.18075e-09
3.69625e-11
2.80488e-09
2.43094e-09
1.09861e-08
1.01244e-09
1.01963e-08
-9.56523e-09
-1.64347e-09
2.67791e-11
9.19357e-09
-2.52875e-11
-5.0684e-11
-8.94918e-09
8.97321e-09
3.24312e-09
-4.332e-09
8.27309e-09
-7.18421e-09
-4.10867e-10
-1.05736e-08
6.32798e-11
1.09212e-08
-8.13634e-09
6.04055e-09
8.28728e-09
-6.19149e-09
2.45353e-10
-1.34841e-09
-4.52772e-10
1.55583e-09
9.71252e-09
1.1133e-09
-6.57944e-09
-4.24638e-09
-3.9953e-11
9.13449e-09
-9.13645e-09
4.19164e-11
9.17709e-09
1.94004e-11
-2.6045e-11
2.56461e-10
-8.93391e-09
-6.53309e-11
8.95928e-09
-8.91384e-10
-1.2452e-08
-2.92962e-10
-3.58001e-10
3.73145e-10
2.77818e-10
-8.61896e-10
5.99428e-09
1.01931e-09
-1.37315e-08
-3.30778e-09
6.52935e-09
9.14528e-09
4.40549e-11
-5.48505e-11
8.94789e-09
-8.94105e-09
3.79779e-11
-4.48157e-11
2.59716e-09
-2.33941e-09
8.56545e-11
-5.71145e-11
4.91923e-11
-2.09981e-11
2.72196e-09
-3.88722e-10
6.52532e-09
8.9593e-09
-8.9519e-09
2.88399e-11
-3.62394e-11
-5.3614e-08
6.45598e-08
-1.09458e-08
6.39043e-11
-4.99232e-11
4.93253e-11
-3.10749e-11
-8.95621e-09
-3.40735e-11
3.83838e-11
-8.94048e-09
-4.87262e-11
3.29921e-11
9.26396e-09
-9.28211e-09
2.78449e-11
1.09977e-08
-1.4269e-09
-1.10996e-08
1.5288e-09
-2.73391e-09
-1.07411e-08
-1.27247e-09
1.47475e-08
-1.1995e-09
6.87759e-09
-8.79525e-09
-8.92332e-09
-5.55745e-11
3.84124e-11
-3.96529e-11
2.88834e-11
-8.91255e-09
-9.28118e-09
-1.05484e-08
1.36539e-08
-9.27382e-09
3.83817e-13
9.25664e-09
7.14369e-09
8.92226e-10
-7.72378e-09
-3.12134e-10
1.31514e-10
1.06709e-08
1.9533e-10
9.83941e-09
5.85707e-10
-2.4624e-09
1.08537e-10
9.31301e-09
-8.35093e-09
-1.07062e-09
-1.10843e-09
1.07106e-09
1.73943e-10
-1.36574e-10
1.49548e-08
-9.56352e-09
-7.01449e-09
1.62317e-09
-4.89706e-10
9.93609e-10
6.6065e-10
-1.16455e-09
-7.0533e-10
-3.94396e-11
7.46292e-10
-1.52248e-12
9.43844e-09
-8.12359e-11
-9.45417e-09
9.69702e-11
8.03314e-09
-2.91632e-10
-1.68269e-08
4.94525e-09
1.14707e-08
3.61127e-11
-1.16656e-09
7.9205e-11
1.05124e-09
-5.34102e-09
-6.46276e-12
1.22847e-11
5.3352e-09
-1.1168e-08
8.77293e-09
2.77973e-09
-3.84649e-10
6.27621e-12
-1.07859e-09
-1.00954e-08
-1.91969e-09
5.31197e-09
-5.32073e-09
-7.71188e-12
1.64661e-11
-1.08912e-08
1.02175e-08
3.39562e-09
-1.86401e-09
4.42358e-09
-2.55958e-09
2.53997e-10
-1.63233e-08
-1.86552e-09
-6.22116e-10
8.53936e-11
-1.68608e-10
-1.186e-08
7.63847e-09
3.022e-09
1.27099e-08
-1.32591e-08
4.3847e-09
9.23176e-09
-9.2045e-09
6.2925e-11
-9.0193e-11
-5.21603e-09
-1.79984e-11
1.74149e-11
5.21661e-09
-5.1583e-10
6.91516e-10
5.21117e-10
-6.96803e-10
-1.2167e-09
-2.40171e-09
1.9107e-09
1.7077e-09
-1.06288e-09
6.95258e-09
-8.59865e-09
-4.92186e-10
-2.34512e-10
1.04582e-10
-5.16358e-09
-1.77498e-11
1.14298e-11
5.1699e-09
-6.54022e-09
8.91834e-09
-8.79858e-09
1.0628e-08
-1.32074e-08
5.22424e-09
-2.64485e-09
9.39477e-09
-4.80013e-11
9.16715e-11
-2.51488e-11
-1.82985e-09
1.42004e-10
-2.70454e-10
-3.63736e-10
-6.24892e-09
-8.33292e-10
-3.5244e-09
4.36585e-09
-5.12664e-09
-1.12889e-11
6.80995e-12
5.13112e-09
3.50573e-10
9.6851e-10
-2.48022e-10
-1.3629e-09
-1.20699e-08
1.20059e-08
-1.98524e-08
2.97345e-08
5.07271e-09
-1.23196e-11
-1.68923e-12
-5.08575e-09
5.09976e-09
-8.55258e-09
7.67981e-09
4.56904e-10
4.15865e-10
-8.31143e-09
5.56108e-09
-7.74057e-10
-5.02524e-08
-2.87049e-08
7.89573e-08
5.09177e-09
-5.11826e-12
-1.05556e-11
-5.07609e-09
1.1994e-09
-4.56622e-10
-1.39272e-09
6.49935e-10
8.00977e-09
5.0602e-09
-1.16058e-08
-1.46413e-09
8.57865e-09
6.56966e-10
-4.62694e-10
1.22495e-10
5.78364e-09
-6.79661e-09
8.90472e-10
-1.00805e-10
1.57715e-10
-9.46929e-09
9.41238e-09
-1.79182e-08
-8.85119e-09
1.86526e-09
2.49041e-08
4.86431e-09
-6.87459e-09
6.23252e-09
-4.22223e-09
1.16559e-08
-4.18955e-09
4.43665e-09
-1.06713e-08
-2.42246e-09
-3.73311e-09
-6.44952e-09
-2.27762e-09
2.10113e-09
6.62601e-09
-3.08177e-09
-1.97465e-10
-8.99948e-09
1.51474e-08
1.72124e-09
-7.86916e-09
7.90675e-09
-8.18216e-09
5.13972e-09
8.82191e-10
9.55071e-10
-6.37858e-10
3.89709e-09
-1.90244e-09
2.98657e-09
-4.98122e-09
8.49909e-09
-8.50836e-09
-4.63001e-11
-5.57344e-11
9.20626e-09
-1.16789e-09
1.06184e-09
-1.36193e-08
6.60532e-09
-9.51602e-09
9.21979e-10
1.06566e-08
-2.06252e-09
8.44823e-09
5.34283e-10
-8.77723e-09
-2.05283e-10
1.11008e-08
-3.00266e-09
-4.96989e-09
1.14655e-08
1.17359e-09
-7.66924e-09
1.51416e-08
1.05008e-08
-1.31809e-08
-1.24615e-08
9.54797e-09
-3.70882e-09
8.44678e-09
-5.11551e-11
9.34512e-09
-7.59126e-09
7.71302e-09
-7.37324e-10
6.1556e-10
5.85918e-10
-2.01641e-08
-8.00978e-09
2.7588e-08
-5.99558e-09
1.14571e-08
-1.20018e-08
-8.51167e-09
-4.69782e-10
-2.30831e-09
7.91832e-09
-1.05799e-08
7.42999e-09
4.26836e-11
-7.45017e-09
-2.25035e-11
-2.17291e-10
4.03322e-10
-1.57875e-09
-2.03393e-10
-9.0506e-09
4.95015e-11
7.60921e-09
-1.1392e-09
4.15797e-09
-1.56127e-08
1.28193e-08
-3.2022e-09
-3.45663e-09
9.62979e-09
2.74518e-09
-7.41445e-10
4.30658e-10
6.0743e-10
-2.96642e-10
2.24142e-09
4.53844e-11
-2.825e-09
-1.28331e-08
5.34885e-09
-4.90015e-09
4.15752e-09
-4.60623e-09
3.67589e-11
-2.9384e-11
7.42262e-09
8.62438e-09
-2.49119e-10
-8.16182e-09
-9.3387e-11
-7.5669e-10
-7.4539e-10
3.35518e-10
8.98811e-10
-8.59046e-10
-3.3338e-10
-1.27484e-09
1.11852e-09
-1.30376e-08
-8.03794e-11
-1.59666e-09
1.47147e-08
-3.68611e-08
-1.33913e-08
3.36783e-10
-8.80375e-10
-1.97853e-10
-1.30381e-08
-1.36244e-09
4.72878e-09
1.1692e-08
-4.63823e-09
-1.17825e-08
1.48985e-08
6.18787e-10
-1.44954e-08
-1.02194e-09
-9.13393e-09
9.12047e-09
5.14434e-11
-8.23953e-10
5.91665e-10
6.62946e-10
2.4616e-12
-7.27344e-09
-1.432e-11
7.2853e-09
9.90246e-11
9.0954e-09
-9.00904e-09
-1.85378e-10
-1.30619e-09
7.30272e-10
5.75921e-10
-7.15084e-09
-3.48813e-09
3.76438e-09
-8.5178e-09
6.75011e-10
-6.60086e-10
8.50287e-09
-5.60926e-10
7.75712e-10
-2.14785e-10
4.7527e-11
-9.43877e-09
-4.04061e-10
7.87776e-09
-8.53657e-09
-1.21124e-09
8.59514e-09
-8.51926e-09
2.31448e-11
-3.30007e-10
7.48554e-09
5.24276e-10
8.63921e-09
-1.05026e-10
-1.63957e-09
4.3731e-10
8.62599e-09
-4.25089e-11
-7.80818e-09
7.34489e-11
-5.77947e-09
7.51338e-09
6.17284e-09
-1.73557e-09
-8.02687e-09
7.6207e-09
2.14174e-09
2.34973e-09
-2.1773e-09
-1.32105e-08
-3.61333e-10
-1.99593e-10
-7.39294e-10
1.33527e-09
-7.04549e-09
8.31385e-09
2.71598e-12
1.5229e-12
-8.31809e-09
7.27521e-09
1.58626e-11
-7.28662e-09
-4.45166e-12
7.11123e-12
6.93034e-12
-8.32643e-09
8.31238e-09
7.72014e-11
9.25495e-09
-2.36752e-10
8.64766e-10
1.55435e-08
-1.50977e-09
-1.59544e-08
1.70296e-08
-1.07518e-09
1.44984e-08
1.12351e-08
-1.05919e-08
-1.07199e-09
1.71886e-09
-6.46876e-10
-1.17279e-08
-1.12862e-10
1.18408e-08
-9.09782e-09
-1.51142e-09
2.11908e-09
-2.86426e-09
7.45177e-10
2.26373e-10
-8.62001e-09
4.08096e-09
-6.06123e-09
1.98028e-09
2.37838e-09
-1.96422e-09
-4.14167e-10
-1.27822e-08
3.99531e-11
1.27422e-08
3.46179e-09
-1.08341e-09
1.13276e-08
-1.35905e-08
-3.09914e-09
5.61779e-09
-6.23459e-09
4.16114e-10
3.66137e-09
-5.71909e-10
-3.65996e-09
4.07607e-09
-8.48481e-09
-7.45731e-09
2.79599e-11
-1.02595e-09
3.76786e-09
1.15517e-09
-4.77522e-09
4.6104e-09
-1.73762e-09
-2.96274e-10
-4.79281e-09
6.35216e-09
-1.55935e-09
5.8019e-09
8.64286e-09
2.94879e-11
4.79511e-10
9.1176e-09
2.39298e-11
-9.11269e-09
4.62488e-09
1.25799e-08
-1.2476e-08
7.24417e-09
-1.9161e-09
-8.1978e-09
-4.22789e-09
2.77612e-10
-1.30598e-08
1.64105e-09
-6.32624e-10
-1.48713e-08
9.54851e-09
7.49706e-11
-3.68536e-10
-7.16737e-10
-7.13923e-09
-3.96393e-10
7.83096e-11
8.61933e-09
1.35875e-11
-6.92959e-12
1.50896e-08
-1.44708e-08
2.75793e-12
-1.20772e-09
-2.13265e-09
6.74338e-09
9.92722e-10
-7.80525e-11
-8.98822e-09
6.01753e-09
-3.0521e-08
-1.42181e-10
-8.70562e-09
4.3995e-10
-8.77289e-09
-2.13807e-10
8.54675e-09
-1.66084e-09
-7.01022e-09
1.53183e-09
1.35508e-12
8.60378e-09
1.41956e-11
9.17185e-09
-6.73679e-09
6.71116e-09
7.53901e-09
1.47562e-08
1.04339e-08
-1.46893e-08
1.31359e-09
3.38932e-09
-1.4287e-09
2.03002e-08
1.80419e-08
-1.98651e-08
-1.84771e-08
-1.04133e-09
-1.04344e-09
1.37604e-09
7.0872e-10
-9.16495e-09
1.35871e-08
1.00763e-08
-3.24868e-10
4.64413e-10
4.67885e-10
5.30564e-09
-7.18518e-09
1.87987e-09
-3.33761e-13
-5.63796e-09
8.39783e-09
2.54578e-09
-7.68293e-09
8.45095e-10
-3.47349e-10
-7.97731e-09
-2.8012e-10
-9.13143e-09
1.07163e-10
-1.62544e-10
9.18681e-09
-8.1449e-09
3.65553e-10
-1.97965e-10
-8.22357e-09
2.06556e-10
-1.27882e-10
-8.25606e-09
-7.93164e-11
-8.26995e-09
6.8155e-11
-5.42692e-11
-8.2745e-09
5.7721e-11
-5.31645e-11
9.069e-09
-9.07185e-09
2.80545e-13
2.57528e-12
9.07247e-09
-9.08265e-09
3.71763e-12
6.46696e-12
9.07082e-09
-9.07223e-09
-3.81644e-13
1.79215e-12
9.07128e-09
-1.79227e-12
-9.07258e-09
3.09307e-12
9.07225e-09
-9.08278e-09
6.37819e-12
4.15358e-12
9.08216e-09
-9.07474e-09
-3.27063e-12
-4.14881e-12
9.0742e-09
-9.07755e-09
4.53004e-12
-1.17152e-12
9.06998e-09
-9.08008e-09
1.82568e-12
8.27391e-12
9.06965e-09
-9.07023e-09
-1.73012e-12
2.31042e-12
9.07788e-09
-9.07238e-09
-5.34155e-12
-1.51995e-13
9.07998e-09
-9.07136e-09
-6.28081e-12
-2.33944e-12
-7.41161e-12
9.08061e-09
-7.31432e-13
9.07665e-09
-1.80283e-12
-4.02796e-12
9.0693e-09
-9.07037e-09
-1.57757e-12
2.64477e-12
9.07529e-09
1.11701e-12
-5.12433e-12
9.07653e-09
-6.06768e-12
1.78727e-12
9.06784e-09
-9.06984e-09
-2.50302e-12
4.50367e-12
2.57848e-12
9.07791e-09
1.67639e-12
9.06913e-09
8.44175e-13
4.22383e-12
9.06894e-09
-9.07092e-09
-2.60457e-12
4.58191e-12
-9.08582e-09
9.07647e-09
2.8351e-12
6.51789e-12
-9.08638e-09
9.07797e-09
1.11106e-11
-2.69396e-12
9.07921e-09
-9.07746e-09
-1.78951e-12
3.63132e-14
9.06933e-09
-9.07047e-09
-3.31937e-12
4.46301e-12
-5.94877e-12
9.07854e-09
-2.60634e-12
9.07434e-09
-4.19953e-13
-4.26725e-12
9.07818e-09
-9.07283e-09
-7.44488e-12
2.08918e-12
3.50285e-12
9.07319e-09
1.18037e-12
9.06984e-09
8.49847e-12
1.63822e-12
9.06543e-09
-1.17846e-12
5.04637e-12
-2.03062e-12
9.08066e-09
-9.07378e-09
-4.85541e-12
9.08158e-09
-9.086e-09
5.11687e-12
-6.96455e-13
9.07286e-09
-4.47897e-12
-9.07498e-09
6.60371e-12
5.35156e-12
9.07103e-09
-9.07895e-09
2.56955e-12
9.06404e-09
1.89925e-12
1.904e-12
9.07644e-09
-9.08215e-09
7.2413e-12
-1.53524e-12
6.13502e-13
-9.07106e-09
-2.65826e-12
9.07311e-09
-9.08481e-09
9.07632e-09
7.60015e-12
8.81844e-13
9.06483e-09
2.62436e-12
1.48605e-12
9.07695e-09
-9.07409e-09
-3.84046e-12
9.70672e-13
9.0769e-09
-9.08051e-09
-1.48966e-11
1.8506e-11
9.07399e-09
2.25165e-12
-6.91611e-12
-9.07905e-09
6.0429e-13
-3.11115e-12
9.08156e-09
5.50725e-12
9.07347e-09
-7.91443e-13
9.08315e-09
-9.09002e-09
-2.38355e-11
3.07091e-11
-9.07879e-09
9.08059e-09
-3.99181e-12
2.19086e-12
9.07132e-09
-7.63868e-12
9.17212e-12
9.07868e-09
5.72543e-12
7.49844e-14
-9.08448e-09
6.30535e-12
-9.07714e-09
-4.81049e-12
9.07565e-09
-6.04137e-12
9.07076e-09
1.21831e-11
2.71244e-12
-9.08503e-09
-2.37845e-13
9.08256e-09
-5.81819e-12
9.08189e-09
-9.07336e-09
-2.71816e-12
-1.73825e-11
9.07892e-09
2.16153e-11
6.6391e-12
9.07472e-09
-9.07995e-09
-1.40976e-12
1.59708e-12
1.66346e-13
-9.07708e-09
9.07532e-09
6.84353e-12
-9.07928e-09
9.07199e-09
4.47366e-13
-9.07691e-09
9.99771e-13
4.01564e-13
9.07551e-09
2.45351e-12
-9.06922e-09
9.07236e-09
-5.58857e-12
8.0387e-13
-6.1293e-12
-9.08e-09
9.08533e-09
-8.29605e-09
-3.42165e-11
-9.0724e-09
-2.90418e-12
-3.82995e-12
9.07914e-09
9.0712e-09
-9.07863e-09
1.07137e-12
6.36162e-12
9.09672e-09
-9.09671e-09
-3.76936e-11
3.76838e-11
-3.9398e-12
9.06891e-09
-9.07115e-09
6.17947e-12
9.07945e-09
-5.68775e-13
5.89291e-12
-9.08477e-09
3.50863e-12
9.07381e-09
-9.07949e-09
2.171e-12
9.12626e-09
-9.12939e-09
-6.28436e-11
6.59731e-11
4.46078e-12
-9.07409e-09
-2.59222e-12
9.07222e-09
-9.24994e-09
3.47882e-10
9.22593e-09
-3.23865e-10
-9.08168e-09
1.83044e-12
7.38362e-12
9.07247e-09
-9.27165e-09
-3.4077e-10
3.62475e-10
9.14766e-09
-9.53055e-11
-9.1651e-09
1.12743e-10
-9.07742e-09
3.14289e-12
8.28448e-13
9.07345e-09
8.87156e-09
-8.86777e-09
-6.57218e-11
6.19318e-11
9.19759e-09
1.452e-10
-1.32282e-10
-9.21051e-09
3.48826e-11
-3.76089e-11
9.09944e-09
5.7544e-12
-9.08365e-09
4.46303e-12
9.07344e-09
6.76232e-11
-4.96593e-11
9.1083e-09
2.34168e-12
-9.94058e-13
-9.08236e-09
9.08102e-09
8.78574e-12
9.06911e-09
-9.08077e-09
2.8786e-12
7.85778e-12
-9.07961e-09
-3.0127e-12
9.07477e-09
4.20271e-13
-9.08224e-09
1.27613e-12
9.08054e-09
9.34793e-11
-8.0861e-11
9.13504e-09
-9.26287e-09
9.22757e-09
-1.89444e-10
2.24749e-10
7.29059e-13
9.67725e-12
-9.08229e-09
9.07188e-09
-8.78528e-09
4.89233e-12
2.86611e-12
8.77753e-09
-8.78214e-09
3.55752e-12
-6.69937e-12
1.39155e-10
-1.19248e-10
9.17769e-09
-8.79567e-09
5.25906e-12
8.27e-12
-8.78875e-09
3.99809e-12
-1.09223e-11
-9.08088e-09
-5.55246e-14
9.80116e-12
9.07113e-09
5.3409e-12
-8.79537e-09
1.27862e-12
1.89548e-12
-2.20167e-12
9.03377e-09
-9.03346e-09
8.79178e-09
-1.06493e-12
-8.80519e-09
1.44707e-11
-9.07731e-09
1.08733e-12
3.63899e-12
9.07258e-09
-8.29334e-09
4.4089e-11
-4.67959e-11
8.79187e-09
-3.09297e-12
-8.7954e-09
6.6204e-12
8.79131e-09
-3.69826e-12
-8.79485e-09
7.2445e-12
8.79092e-09
-8.80352e-09
3.30769e-12
9.29641e-12
-9.28873e-09
4.05243e-10
-3.88159e-10
9.0864e-09
4.41436e-11
-9.09566e-09
-9.1111e-09
-5.04231e-11
5.9422e-11
9.10211e-09
6.93415e-11
-9.11282e-09
8.78573e-09
-8.79761e-09
1.15087e-13
1.17709e-11
-4.68427e-12
7.56487e-12
-9.08642e-09
9.08354e-09
9.13203e-09
1.05962e-10
-9.14451e-09
-8.21733e-11
9.29912e-11
9.12121e-09
9.16197e-09
-9.17089e-09
1.4808e-10
-8.78603e-09
8.7759e-09
7.62924e-12
2.49435e-12
-8.77263e-09
-6.80328e-12
-6.59314e-12
-1.08458e-11
2.10289e-11
-9.08773e-09
9.07754e-09
-8.78691e-09
2.96386e-13
1.39883e-11
-1.23336e-10
1.38207e-10
9.1471e-09
-8.77602e-09
3.80864e-12
-1.46975e-11
-8.79206e-09
6.05438e-12
9.98217e-12
-8.78128e-09
-1.67593e-11
5.97776e-12
-8.79576e-09
1.78801e-11
-3.39638e-12
-9.20484e-09
9.18933e-09
-1.70206e-10
1.85711e-10
-3.03939e-11
2.91818e-11
9.08761e-09
-8.78033e-09
1.25009e-12
-1.66853e-11
2.32655e-12
-8.79571e-09
1.30502e-11
1.8147e-10
-9.26968e-09
-1.49038e-10
9.23725e-09
8.7913e-09
-4.99472e-12
-8.79463e-09
8.31949e-12
-9.29502e-09
-2.06098e-10
2.38248e-10
8.78517e-09
-9.17585e-12
-8.78742e-09
1.14299e-11
-8.7818e-09
8.77736e-09
1.51483e-12
2.92807e-12
-8.77942e-09
8.63059e-12
-1.10116e-11
-8.7934e-09
9.34079e-12
4.6386e-12
-8.78769e-09
-8.98946e-12
3.27611e-12
-8.8035e-09
4.78714e-12
1.10291e-11
8.80117e-09
-1.29813e-11
3.59308e-12
-7.68961e-12
-4.20017e-12
-8.96143e-09
8.97332e-09
-8.29525e-09
3.87116e-11
-3.68035e-11
-6.56241e-12
-2.50574e-12
-4.61229e-12
3.36319e-12
-2.92137e-12
-5.39735e-12
1.01694e-12
3.39845e-12
-7.7305e-13
2.67501e-12
8.67164e-12
1.89433e-10
-9.66461e-09
-7.70817e-11
9.55226e-09
8.80076e-09
-9.34593e-12
4.55868e-13
6.69666e-12
6.17764e-12
-8.97232e-09
8.95944e-09
8.78295e-09
-8.8047e-09
6.31712e-12
1.54366e-11
-8.81951e-12
8.80022e-09
-9.63622e-14
2.04198e-10
-8.96319e-09
-3.80456e-12
-1.8808e-12
8.96887e-09
-6.93867e-12
8.79968e-09
-1.82483e-12
-9.31962e-13
-8.96352e-09
-4.55595e-12
8.96901e-09
8.78403e-09
-8.80575e-09
5.12264e-12
1.66046e-11
8.79835e-09
-5.05345e-12
-7.56593e-12
2.29439e-12
3.89887e-13
-8.97048e-09
8.9678e-09
8.79179e-09
-2.13508e-12
-1.37528e-11
9.23477e-13
1.36793e-12
-8.96564e-09
8.96335e-09
8.78392e-09
-8.80538e-09
4.45825e-12
1.70012e-11
3.61897e-10
-9.50207e-09
9.40155e-09
-2.61384e-10
8.7924e-09
-8.7957e-09
-6.81378e-12
1.01166e-11
-1.91132e-12
8.79209e-09
1.12324e-12
-4.32574e-10
5.32895e-10
-9.38906e-09
-6.18711e-12
-8.96893e-09
2.62929e-12
8.97249e-09
8.78811e-09
-1.08217e-11
-8.79061e-09
1.33161e-11
8.7884e-09
1.75486e-12
-4.98893e-12
-1.15836e-13
2.546e-12
-8.9672e-09
8.96477e-09
1.81903e-12
-6.7628e-12
8.7823e-09
1.08366e-12
-8.96464e-09
2.43583e-12
8.96112e-09
-8.79588e-09
8.78152e-09
1.55702e-11
-1.21069e-12
9.42658e-09
-3.94755e-10
-9.62456e-09
5.92729e-10
-8.78528e-09
-1.63057e-11
5.71027e-12
8.80055e-09
-5.23254e-12
-1.23658e-11
-8.80021e-09
1.61097e-12
1.33146e-11
4.84611e-12
1.82686e-12
-8.97021e-09
8.96353e-09
-8.79475e-09
-5.37292e-12
-8.51704e-14
4.68608e-12
9.06621e-09
8.79178e-09
-3.84375e-14
-7.71525e-12
5.0826e-12
-5.9394e-13
-8.97237e-09
8.96788e-09
2.07199e-12
-8.81228e-09
1.54606e-11
8.80121e-09
-7.25452e-12
-1.00276e-11
4.74574e-12
-8.9728e-09
-2.6991e-13
8.96833e-09
8.80181e-09
-6.87668e-12
-2.53771e-12
9.35591e-09
9.04272e-12
3.80257e-12
-8.97226e-09
8.95942e-09
8.79501e-09
2.3059e-12
-8.81967e-09
2.23538e-11
8.79095e-09
5.54064e-13
-3.39743e-12
5.96957e-13
1.57668e-12
-8.96983e-09
8.96766e-09
-4.52132e-12
2.87312e-13
8.78575e-09
-8.96722e-09
4.02568e-12
-4.38135e-13
8.96363e-09
8.80419e-09
-3.54444e-12
-8.82207e-09
2.14244e-11
-8.30152e-09
-3.04638e-11
9.70739e-09
6.27579e-11
3.78844e-10
-1.0149e-08
-6.47075e-12
-9.31296e-12
8.81079e-09
-8.97911e-09
8.91839e-12
-5.64039e-13
8.97076e-09
9.01023e-09
3.52572e-11
-9.01274e-09
-3.27416e-11
-9.83848e-09
2.36625e-10
-8.37925e-12
2.75327e-12
8.80981e-09
1.13777e-11
-8.99004e-09
-3.55844e-12
8.98222e-09
-8.31016e-09
4.32224e-11
-3.45815e-11
1.32358e-10
-9.56433e-09
9.52894e-09
-9.56956e-09
9.51912e-09
1.82798e-10
-1.50861e-11
1.14067e-11
8.83107e-09
-8.82739e-09
2.02952e-11
-8.99375e-09
-2.07984e-11
8.99425e-09
3.13356e-11
9.0111e-09
-3.22089e-11
9.02688e-09
6.06758e-11
-9.04944e-09
-3.81184e-11
-4.14478e-11
-9.60519e-09
-9.55825e-09
2.55089e-11
-2.64138e-11
-8.8501e-09
8.85101e-09
9.46428e-09
-1.51317e-10
2.06157e-10
-9.29943e-09
-2.60533e-10
2.95004e-10
9.26496e-09
-8.30556e-09
2.81328e-11
-3.27341e-11
-2.13723e-10
2.65963e-10
9.35049e-09
-9.40273e-09
4.41414e-11
9.03344e-09
-5.06997e-11
9.08043e-09
-9.07007e-09
-8.10167e-12
-2.25222e-12
9.40827e-09
-9.08023e-09
9.0708e-09
3.64661e-12
5.7844e-12
-9.07636e-09
-8.19089e-12
2.31027e-12
9.08224e-09
-9.07862e-09
-5.30841e-12
7.56837e-12
-8.88907e-09
-3.0643e-11
4.65475e-11
8.87317e-09
9.07133e-09
-9.07824e-09
-1.68957e-12
8.60441e-12
3.15278e-10
-9.34875e-09
2.05062e-10
9.34668e-09
-1.43471e-10
-9.29766e-09
9.27217e-09
-9.07239e-09
9.07346e-09
4.49578e-12
-5.57012e-12
-9.0752e-09
-2.27476e-12
5.08775e-12
-9.07999e-09
9.07707e-09
8.23356e-12
-5.3142e-12
8.43287e-09
-8.45286e-09
4.8643e-11
-2.86577e-11
1.05974e-09
-1.03055e-08
9.07663e-09
3.6544e-12
-3.40379e-13
-9.07994e-09
-9.07497e-09
9.0731e-09
3.6684e-12
-1.80561e-12
-9.08435e-09
3.36836e-12
6.01129e-12
-9.07644e-09
9.07914e-09
-3.00448e-12
3.00832e-13
-8.97409e-09
8.93892e-09
-5.68913e-11
9.20685e-11
9.29975e-09
-1.59168e-10
-9.07911e-09
5.2849e-14
9.07977e-09
-7.18163e-13
2.43437e-12
9.07419e-09
3.79914e-12
-9.08397e-09
-8.31116e-13
7.6352e-12
9.07716e-09
-1.27563e-12
9.07455e-09
2.07226e-12
-9.07535e-09
-9.07551e-09
8.48133e-13
9.04271e-13
9.07376e-09
-8.99626e-09
8.5349e-11
-6.31786e-11
-9.08357e-09
9.08069e-09
3.80414e-12
-9.20822e-13
-1.17375e-12
-9.0785e-09
9.08203e-09
-2.35487e-12
-9.06964e-09
-3.93207e-12
-6.65975e-12
9.07113e-09
3.5055e-12
-9.07347e-09
-1.16681e-12
9.36451e-09
-9.55962e-11
1.63639e-10
-9.07589e-09
9.07894e-09
-5.16915e-12
2.12328e-12
-9.03312e-09
-6.08597e-11
9.77157e-11
-9.08117e-09
9.0749e-09
4.15904e-12
2.10839e-12
-9.08358e-09
-5.86969e-13
-9.57369e-13
9.08512e-09
-1.59375e-10
2.51456e-12
-1.55884e-12
-9.07704e-09
9.07608e-09
-3.26892e-12
9.07711e-09
-9.07638e-09
-2.60746e-12
-4.58595e-12
-2.92598e-12
9.08519e-09
-9.08357e-09
1.3041e-12
-3.66735e-12
-1.90597e-12
-9.0784e-09
-4.47129e-11
6.63983e-11
-8.91076e-09
-2.74635e-12
-9.07645e-09
2.7555e-12
-9.07967e-09
9.07808e-09
1.36358e-12
2.24997e-13
-8.32335e-09
-1.91092e-11
-9.07272e-09
-9.20237e-13
-6.02591e-12
1.13049e-12
-9.08074e-09
-3.74324e-13
5.73356e-13
9.07727e-09
-3.19008e-12
-9.07465e-09
-4.01435e-11
6.694e-11
-9.05992e-09
-9.08038e-09
8.14979e-12
-3.65774e-12
-9.07773e-09
-3.79061e-12
-2.82615e-12
-2.65943e-12
-9.07719e-09
-1.08068e-13
9.07995e-09
9.07307e-09
-9.07616e-09
3.21367e-12
-1.23276e-13
-1.16859e-10
9.27629e-09
-9.31881e-09
1.08943e-12
9.07931e-09
-6.30829e-12
-9.0741e-09
-3.86951e-12
9.08458e-09
-9.07238e-09
-8.33627e-12
4.07882e-12
9.07676e-09
-9.08372e-09
2.88021e-12
1.98352e-12
-9.07849e-09
-2.5982e-12
-6.55575e-12
2.68562e-12
-9.07133e-09
-9.0742e-09
-3.86194e-12
9.07494e-09
3.12112e-12
-2.1031e-09
2.09893e-09
4.1723e-12
-7.59707e-13
-9.07998e-09
4.52741e-13
9.08028e-09
8.54557e-09
-8.55116e-09
-3.45582e-11
-9.07341e-09
9.0765e-09
-3.67865e-12
5.86795e-13
9.0773e-09
9.73921e-13
-5.09012e-12
-9.07319e-09
-9.07443e-09
-9.37021e-12
2.62755e-12
-9.0818e-09
-2.56986e-12
8.01462e-13
9.21253e-09
-9.26244e-09
-2.10756e-09
2.10476e-09
2.79718e-12
2.13488e-12
-1.67512e-12
9.07848e-09
9.25097e-09
-1.23709e-10
-9.06729e-09
9.07746e-09
-9.23378e-12
-9.3796e-13
-6.47117e-12
9.07683e-09
-9.07544e-09
5.0793e-12
-1.18586e-10
9.22608e-09
1.43469e-10
-2.74635e-12
-9.07307e-09
9.07672e-09
-9.04543e-13
-8.32328e-09
3.94572e-11
-3.95246e-11
-9.06916e-09
-2.26004e-12
4.12856e-12
-9.0764e-09
9.07559e-09
1.90033e-12
-1.09095e-12
8.42068e-09
-3.25242e-11
-2.10739e-09
2.10812e-09
-7.22476e-13
9.0758e-09
-9.07249e-09
-5.28383e-12
1.97719e-12
-2.52565e-13
9.07172e-09
-9.07675e-09
5.28188e-12
9.28967e-09
-9.27816e-09
-1.63838e-11
4.87543e-12
-9.07317e-09
9.07477e-09
4.06145e-12
-5.6601e-12
3.87055e-12
-9.07842e-09
5.39778e-12
9.21761e-09
-1.86951e-12
-9.22146e-09
5.71991e-12
5.97365e-13
9.07178e-09
-9.07553e-09
3.153e-12
5.64049e-12
-9.07874e-09
-3.08988e-13
-5.45672e-09
5.45358e-09
1.83034e-12
1.30779e-12
9.67697e-12
-2.09421e-09
2.08454e-09
5.4195e-09
2.86469e-11
-5.43847e-09
-5.45359e-09
-1.09748e-12
-2.03272e-12
9.2284e-09
-9.23233e-09
1.36259e-12
2.56269e-12
7.61836e-13
-2.10386e-09
9.1533e-09
-9.18653e-09
2.28415e-10
9.14356e-09
-1.98434e-10
-9.17354e-09
-5.45964e-09
9.29375e-12
5.4511e-09
-9.07172e-09
-2.57259e-12
9.34881e-14
-9.0703e-09
9.08126e-09
-1.53903e-11
4.42892e-12
-2.94326e-12
-9.07683e-09
-6.056e-13
9.07295e-09
5.71734e-13
2.343e-12
-9.07586e-09
9.19871e-09
-1.04911e-10
-9.0796e-09
7.78555e-11
9.06814e-09
2.75544e-12
1.45827e-12
9.07295e-09
-9.07716e-09
-9.06926e-09
9.07179e-09
-1.01939e-12
-1.50843e-12
-9.07798e-09
-4.33623e-12
3.96272e-12
9.07836e-09
9.12226e-09
-9.14166e-09
-1.99314e-10
2.18718e-10
-3.69008e-12
-2.10387e-09
9.22001e-09
-9.22425e-09
-1.06008e-11
1.48405e-11
1.67467e-12
9.06865e-09
4.1342e-12
9.0729e-09
-9.06784e-09
-9.18738e-12
1.93686e-12
5.4529e-09
-5.45852e-09
-1.16504e-14
-2.10738e-09
7.58711e-12
9.07197e-09
-9.07368e-09
-5.88343e-12
-2.11134e-09
2.10866e-09
2.67952e-12
7.43633e-12
9.06353e-09
-9.06338e-09
-8.32617e-09
3.43692e-11
-3.1476e-11
-4.79684e-12
5.45837e-09
9.07793e-09
-9.69525e-13
-9.07174e-09
-5.22483e-12
3.52595e-13
9.19201e-09
-9.19415e-09
1.78912e-12
-4.82742e-12
-9.20322e-09
1.78245e-12
9.20626e-09
-9.07972e-09
9.07461e-09
-1.33159e-11
1.84264e-11
9.18105e-09
-1.01584e-10
9.26408e-09
-9.24009e-09
-2.36433e-11
9.27269e-09
-9.25229e-09
-2.52252e-11
4.62233e-12
-9.07255e-09
-3.12247e-12
9.07105e-09
9.07814e-09
-9.08121e-09
-1.17529e-10
1.20596e-10
-1.74408e-11
-3.15809e-12
9.31027e-09
-1.09479e-11
9.24669e-09
-1.81347e-11
-9.21515e-09
9.1946e-09
3.11704e-12
9.20926e-09
-9.20683e-09
-1.34786e-11
1.10497e-11
9.09142e-11
-9.1072e-09
-6.33069e-11
-5.4603e-09
5.45821e-09
-5.3944e-13
2.63538e-12
8.52258e-09
-3.78677e-11
9.1699e-09
3.21375e-12
-9.18406e-09
-3.55327e-12
-9.08182e-09
9.0789e-09
9.07342e-09
9.13876e-12
-7.22153e-12
-9.07922e-09
1.61453e-11
-9.07841e-09
9.06757e-09
8.2401e-11
-7.15603e-11
-2.22229e-11
9.24414e-09
6.48142e-12
5.82092e-12
9.17064e-09
-9.19868e-09
9.16121e-09
1.1075e-10
1.73e-13
-2.10606e-09
2.10589e-09
-6.83351e-11
-9.14045e-09
9.06767e-09
1.05956e-10
-9.54785e-11
5.45335e-09
2.1512e-12
-5.45533e-09
5.48387e-11
-8.4798e-09
-2.78966e-11
-5.45612e-09
-3.9688e-12
-2.10438e-13
1.24522e-11
-9.06481e-09
-2.73613e-11
-6.0537e-11
9.07201e-09
5.71113e-11
-9.06859e-09
8.92542e-09
-9.07068e-09
-1.45875e-12
9.07604e-09
-3.89934e-12
-9.0732e-09
9.07012e-09
3.11079e-12
-2.74185e-14
-4.46709e-12
-2.10687e-09
7.5101e-09
-1.40414e-12
-1.55446e-12
-7.50714e-09
-9.09084e-11
8.01624e-11
1.65562e-11
9.17741e-09
2.16544e-12
-9.19613e-09
-9.07256e-09
9.07008e-09
-2.40029e-12
4.87511e-12
9.24574e-09
-9.17066e-12
2.30817e-13
5.45351e-09
9.07821e-09
-5.86039e-12
-9.07343e-09
1.07408e-12
-5.45535e-09
2.83275e-12
-3.60433e-12
9.07394e-09
5.42993e-11
-6.06658e-11
9.08785e-09
-9.10475e-09
-1.52409e-10
1.69315e-10
8.49262e-09
-3.32212e-11
9.07457e-09
-9.08055e-09
6.7812e-13
5.30145e-12
9.07302e-09
-5.60196e-11
5.69379e-11
-9.07653e-09
5.49001e-12
9.06965e-09
1.39321e-12
1.26934e-12
9.07732e-09
-9.05179e-09
9.055e-09
-8.05521e-11
7.73463e-11
9.14376e-09
9.07132e-09
-9.06357e-09
-3.43936e-11
2.66432e-11
-4.40688e-11
-5.45988e-09
1.27668e-12
3.25307e-12
9.07724e-09
-9.07451e-09
-2.3147e-12
-4.1436e-13
9.18185e-09
-9.18512e-09
-1.43403e-11
1.76119e-11
9.07274e-09
-4.97344e-11
5.00096e-11
2.46642e-12
-9.07002e-09
9.06659e-09
9.18893e-12
-1.76372e-11
9.07368e-09
-9.06523e-09
9.07325e-09
6.05025e-12
-2.05631e-12
9.07329e-09
4.54948e-12
-9.07761e-09
-2.35239e-13
1.7202e-12
-9.08041e-09
-8.7306e-13
9.07957e-09
-9.0557e-09
-9.56102e-11
9.95156e-11
-6.99058e-13
9.07355e-09
9.06962e-09
-3.33123e-11
3.64308e-11
9.07705e-09
-3.99681e-11
3.12818e-11
-9.06836e-09
2.28513e-11
-9.06783e-09
9.07297e-09
-2.79866e-11
-6.97761e-12
9.22722e-09
-1.09845e-11
-7.86301e-12
8.10007e-12
-5.45451e-09
-2.09683e-12
-3.27205e-12
9.08468e-09
-4.63194e-12
-6.80038e-12
-3.47746e-12
-9.07604e-09
9.08142e-09
-1.903e-12
9.12815e-09
-6.5251e-11
9.06824e-09
-9.05794e-09
-5.66491e-11
4.6352e-11
9.21686e-12
7.25834e-13
-9.08499e-09
9.07505e-09
9.07416e-09
-9.07116e-09
-6.47973e-12
-9.0729e-09
3.24246e-14
-3.66131e-12
9.08264e-09
-2.70668e-12
1.93548e-12
9.07447e-09
-3.11866e-12
1.78259e-12
9.1727e-09
-9.18146e-09
-6.34152e-13
-9.07339e-09
1.46972e-12
7.40123e-12
-9.29693e-13
-9.07967e-09
-6.77874e-13
-9.07008e-09
-3.75366e-12
1.39556e-10
-1.32919e-10
4.88274e-12
3.05355e-14
-9.07559e-09
-8.33643e-09
-3.40441e-11
6.95698e-11
-9.06673e-09
9.07077e-09
-7.36163e-11
9.0836e-09
1.89022e-13
9.0837e-09
-4.63858e-12
-9.07712e-09
9.07798e-09
2.03818e-12
3.67698e-12
-1.21534e-10
-9.04586e-09
1.11693e-10
9.16721e-09
-3.08285e-11
-9.15347e-09
1.70885e-11
-5.45037e-09
-2.80115e-12
-1.3388e-12
-4.53453e-12
-9.07219e-09
3.04808e-12
9.07755e-09
-9.07856e-09
-4.69808e-13
1.48394e-12
7.65221e-11
9.11231e-09
9.08101e-09
-3.48496e-11
2.34604e-11
4.76329e-12
9.16155e-09
8.61513e-12
-9.17493e-09
3.24874e-12
-9.07981e-09
9.077e-09