/*--------------------------------*- C++ -*----------------------------------*\
  =========                 |
  \\      /  F ield         | OpenFOAM: The Open Source CFD Toolbox
   \\    /   O peration     | Website:  https://openfoam.org
    \\  /    A nd           | Version:  8
     \\/     M anipulation  |
\*---------------------------------------------------------------------------*/
FoamFile
{
    version     2.0;
    format      ascii;
    class       volVectorField;
    location    "1.4";
    object      U;
}
// * * * * * * * * * * * * * * * * * * * * * * * * * * * * * * * * * * * * * //

dimensions      [0 1 -1 0 0 0 0];

internalField   nonuniform List<vector> 
6388
(
(0.000936608 -3.41898e-06 1.74097e-21)
(0.000910458 -1.23722e-05 0)
(0.000156988 -1.50738e-05 0)
(0.00084183 0.000297226 -6.95258e-22)
(0.000707993 0.00131035 4.92946e-21)
(0.000594032 0.000972958 -4.39414e-23)
(0.000450975 0.000426174 3.25177e-21)
(0.000578524 0.000807886 3.18897e-21)
(0.000352899 0.000270905 -1.39081e-21)
(0.000115885 0.000594317 0)
(0.000555699 0.00110703 0)
(7.91026e-05 0.000641012 0)
(0.000577447 0.000589831 -8.55981e-25)
(0.000630312 0.00113522 3.53715e-21)
(0.000444659 0.000564754 4.74839e-21)
(0.000605853 0.000709867 0)
(0.000523459 0.000878554 3.65325e-21)
(0.000585136 0.00104425 -4.26199e-23)
(0.000258022 0.000568275 0)
(0.000129754 0.000455438 6.52962e-24)
(0.000495445 0.000683461 -1.69404e-21)
(0.000663263 0.000791059 0)
(0.00058791 0.00111842 -1.46405e-21)
(0.000860662 0.00123167 1.46879e-21)
(0.000639919 0.00107329 -3.55025e-21)
(0.000214655 0.000578311 -2.90685e-22)
(0.000647015 0.000604253 0)
(0.000451004 0.000747438 8.52342e-22)
(0.00032261 0.000648186 1.4118e-21)
(0.000718025 0.000260598 -3.44074e-21)
(0.000578144 0.00110028 0)
(0.000581459 0.00110816 1.404e-21)
(0.00063901 0.000931826 -3.77893e-21)
(0.000616777 0.00117421 2.04018e-21)
(0.000575122 0.00109295 2.59444e-21)
(0.000481531 0.00104944 0)
(0.00066256 0.00104722 8.75983e-22)
(0.000128349 0.000810257 1.16751e-21)
(0.000603537 0.000624711 8.55444e-22)
(0.000477898 0.00103406 1.98418e-21)
(0.000166347 0.00050677 4.02155e-21)
(0.00017545 0.000512011 -1.82896e-21)
(0.000929621 -7.77729e-05 -1.72235e-21)
(0.000592114 0.00115123 3.98914e-25)
(0.000571074 0.000223509 -4.05506e-21)
(0.000274805 0.000745147 -8.2435e-22)
(0.00092647 2.4219e-05 -1.72488e-21)
(0.000278976 0.000385849 7.55499e-22)
(0.00102139 0.000278367 -2.49586e-25)
(0.000832047 0.000714563 -1.90913e-21)
(0.000167887 -5.90455e-05 9.67142e-22)
(0.000880983 -2.22565e-05 6.82543e-21)
(0.000328216 0.000432031 -4.95867e-21)
(0.000213168 0.000483318 1.84935e-21)
(0.000107676 0.00066213 1.93327e-21)
(3.10048e-05 6.60379e-05 0)
(0.000766068 0.000819558 2.87661e-21)
(0.000836078 0.000337302 0)
(6.2787e-05 0.000438588 -2.22775e-21)
(0.000339535 0.000464835 -2.81479e-21)
(0.000614765 0.00107836 1.37106e-21)
(0.000642431 0.000330785 0)
(0.000356341 0.000662421 -2.77261e-24)
(0.00103245 0.000321873 5.98493e-22)
(0.000453078 0.00102545 2.97488e-21)
(3.70153e-05 2.45006e-06 2.03708e-21)
(0.000499433 0.000876176 1.95621e-21)
(0.000588242 0.000723897 1.55873e-21)
(0.000125019 0.000770636 2.40276e-22)
(3.67427e-05 -3.07874e-06 0)
(0.00135311 0.00104586 -2.20077e-21)
(0.000605732 0.00106653 -1.67809e-21)
(0.000707158 0.000954441 6.77828e-22)
(0.000575927 0.00125532 2.88529e-21)
(7.32987e-06 0.00011564 -2.79524e-22)
(0.000496754 0.000418761 1.1293e-24)
(0.000610212 0.00109391 1.06035e-23)
(0.00054494 0.000336496 -2.26165e-21)
(0.000917113 0.000335806 1.4537e-21)
(0.000607306 0.00105974 -1.10605e-21)
(0.000251151 0.000673359 4.37647e-22)
(0.000243486 0.00114165 -3.3592e-23)
(0.000175774 0.000879797 0)
(0.0001708 0.000860183 -2.9336e-23)
(0.000166459 0.000841868 0)
(0.000205836 0.00100018 -3.25014e-23)
(0.00073755 0.00133896 -2.27273e-21)
(0.000275314 0.00125174 3.4722e-23)
(0.000183028 0.000904463 -1.06769e-24)
(0.000191883 0.00094276 -2.17526e-23)
(0.00022173 0.00105976 -2.41309e-23)
(0.000162196 0.000823338 -2.00284e-23)
(3.67439e-05 2.95827e-06 -6.08572e-21)
(0.000936202 0.000136471 2.14927e-21)
(0.000524766 0.000660551 0)
(0.000882389 0.000204236 0)
(3.77356e-05 7.75259e-07 -4.1345e-21)
(0.000626429 0.00112022 1.03691e-21)
(0.000950884 0.000235549 -3.53172e-21)
(0.00120436 0.000539079 -2.29606e-21)
(0.000269923 0.000579441 -2.48627e-21)
(0.000486201 0.00118367 -5.03191e-24)
(0.000591726 0.00081419 0)
(0.000130314 0.000637262 3.94125e-21)
(0.000139253 0.000686524 -2.89312e-21)
(0.000695127 0.0011936 3.93819e-21)
(0.000309198 0.000305935 -3.49328e-21)
(0.000478172 0.000907037 0)
(0.000383308 0.000647415 2.38582e-21)
(0.00020581 2.06404e-05 -3.94975e-21)
(0.000360945 0.000499123 -2.15124e-21)
(0.000630122 0.00103494 -1.85483e-21)
(0.000633671 0.00107103 0)
(4.58552e-05 0.000461682 4.20089e-22)
(0.00109187 9.70624e-05 8.94258e-22)
(0.00106935 0.00013389 -3.04532e-21)
(0.000866831 0.00123912 0)
(0.000896453 9.6086e-05 -7.50438e-22)
(0.00062293 0.000547603 2.17401e-22)
(8.72613e-06 0.000159045 0)
(0.000488123 0.0010464 0)
(0.000200969 -0.000132041 0)
(0.000431941 0.000659191 -2.68819e-22)
(0.000311111 0.000255049 -5.53054e-22)
(0.000610767 0.00105591 -5.74201e-22)
(0.000968911 0.000219461 2.27719e-21)
(0.000409638 0.000297218 -4.15728e-21)
(0.000508428 0.00059438 -3.21617e-21)
(3.73073e-05 0.000207254 -6.35834e-22)
(0.000166575 0.000582584 -2.38627e-21)
(0.000482332 0.00105562 1.41425e-21)
(0.000410725 0.000769178 2.24699e-21)
(0.000285391 0.000302405 -1.81688e-21)
(0.0009279 0.000155693 0)
(2.22977e-05 8.57889e-06 3.74134e-21)
(0.000794394 0.00125326 -1.32341e-21)
(0.000844951 0.00127016 1.93303e-21)
(0.000629294 0.00136726 1.96134e-21)
(0.000619987 0.000286167 -2.52625e-21)
(0.000284966 0.000659784 0)
(0.000625396 0.0011041 4.92845e-22)
(0.000858496 2.00772e-05 -4.50919e-24)
(0.0004238 0.000648829 5.02162e-23)
(0.000637222 0.000213755 3.02097e-21)
(0.000126843 0.000165521 1.60285e-21)
(0.000857157 0.00090884 0)
(0.000272076 0.000352933 1.91823e-21)
(3.49132e-05 -3.09907e-06 3.79031e-21)
(0.000775875 0.000713659 3.62791e-23)
(0.000821092 -4.7312e-05 0)
(0.000393715 0.000790837 -4.31262e-21)
(0.000942548 0.000248842 2.89489e-21)
(0.000232328 0.00074629 -2.2798e-21)
(0.000639059 0.000991006 8.88692e-22)
(0.000140869 0.000677991 3.6484e-22)
(0.000500359 0.000558014 0)
(-5.38165e-05 0.000754817 -1.77429e-22)
(0.000173326 2.57217e-06 1.44167e-21)
(0.000575511 0.00104406 -1.11975e-21)
(0.000833228 0.00132911 3.42229e-21)
(0.000602491 0.000149358 -2.93296e-21)
(0.00106083 0.000128415 -2.75561e-21)
(0.000637383 0.00102804 -3.30571e-21)
(0.000245504 0.000818159 2.78361e-21)
(3.77939e-05 -1.5479e-06 -2.15541e-21)
(0.00060741 0.00104139 0)
(0.000435353 0.00101084 -1.82643e-21)
(0.000448429 0.00102853 2.61306e-23)
(0.00042583 0.000990315 -5.38801e-21)
(0.000199767 -0.00028046 2.68288e-21)
(0.000590183 0.00117376 2.91666e-21)
(0.000408214 0.000751625 -1.63487e-21)
(0.000588363 0.000826036 7.26864e-21)
(3.39432e-05 -3.77025e-06 0)
(0.00156869 0.000126143 1.55781e-21)
(0.000539744 0.00115781 6.50994e-21)
(0.000400784 0.000287977 -8.28755e-22)
(0.000188931 -0.000363642 1.32369e-21)
(0.00108255 5.50345e-05 -4.16796e-21)
(0.000400221 0.000758035 0)
(0.00122201 0.000842932 5.88827e-22)
(0.000235877 0.000756265 0)
(0.000565635 0.00118076 -1.47165e-21)
(0.000597658 0.00114116 1.01614e-21)
(0.000660676 0.000850178 -2.08573e-21)
(0.000627409 0.00115465 -4.22356e-21)
(0.000299032 -9.61817e-05 4.91126e-21)
(0.000577094 0.00103479 3.49472e-21)
(0.000792626 0.000942268 -2.21707e-22)
(0.000480613 0.000999069 -7.24214e-24)
(0.00049147 0.00101882 -7.41103e-21)
(0.000395593 0.00083906 -3.30004e-24)
(0.00058808 0.00105177 1.20894e-21)
(0.00100642 -9.32949e-06 0)
(0.000547219 0.000862798 -4.09776e-21)
(0.000304237 -0.000133689 3.01097e-21)
(4.35775e-05 -1.32728e-06 0)
(0.000245606 -0.000142471 1.75645e-21)
(0.000590059 0.0011728 -4.334e-21)
(0.000685248 0.00123342 1.5661e-21)
(0.000555716 0.000966236 2.4524e-21)
(0.000734521 0.00127843 1.31305e-21)
(2.7743e-05 -5.39021e-06 7.54469e-21)
(0.00051424 0.000977549 2.32683e-21)
(0.000536265 0.00101817 -4.86831e-24)
(0.000524521 0.000997856 0)
(0.000604 0.00125401 -1.37702e-21)
(0.000632423 0.00125666 -1.60192e-21)
(0.000120674 -5.84343e-05 1.24302e-24)
(0.000607593 0.0005295 1.50111e-21)
(0.00067679 0.00121767 0)
(0.000605117 0.00124657 1.23865e-21)
(0.000743482 0.00128477 0)
(0.000572112 0.000982889 1.97726e-21)
(0.000596907 0.00116352 -2.13691e-21)
(0.000515725 0.00101205 0)
(0.000526756 0.00103363 1.00763e-21)
(0.000505282 0.000991497 1.00342e-21)
(0.000637632 0.00121271 -1.22773e-21)
(0.000592631 0.00100661 -2.98692e-21)
(0.000747474 0.00136647 -1.33803e-21)
(0.000555624 0.000283237 0)
(0.000750334 0.00143621 -1.34457e-21)
(0.000715329 0.00108539 -2.94585e-21)
(0.000139364 -6.51703e-05 -2.24218e-21)
(0.000553339 0.000895008 -6.50309e-23)
(0.000627193 0.0012425 1.6921e-21)
(0.00059643 0.00115995 1.12203e-21)
(0.000498417 0.00102313 0)
(0.000508827 0.00104478 -1.03451e-21)
(0.000488506 0.00100249 -1.03014e-21)
(0.000338383 0.000901349 -1.63754e-21)
(0.000614485 0.00126563 2.43123e-21)
(0.000282133 0.000368681 -1.06608e-21)
(0.000397289 0.000738541 3.32979e-21)
(0.000684222 0.00130803 -2.29469e-21)
(0.000392033 0.000970614 7.81496e-21)
(0.00066112 0.00143934 2.01184e-21)
(0.00063887 0.00115907 -1.52978e-21)
(0.000673612 0.00123957 -3.45675e-21)
(0.000594093 0.00104302 0)
(0.000606784 0.00106487 0)
(0.000582109 0.00102209 0)
(0.000700614 0.00133608 1.9584e-21)
(0.000497411 0.0010187 2.53488e-23)
(0.000508495 0.00104052 2.47464e-23)
(0.000487194 0.000997883 2.45527e-23)
(0.000569229 0.00117282 2.11626e-21)
(0.000625778 0.00111283 6.16585e-22)
(0.000585001 0.00103387 0)
(6.61643e-06 -6.40976e-05 0)
(0.000779971 0.00133124 -5.16444e-22)
(0.000669988 0.00121443 0)
(0.000551105 0.00101521 6.87888e-24)
(0.000563619 0.00103641 -1.51402e-21)
(0.000539879 0.000994731 -1.46947e-21)
(0.000593886 0.00117221 -1.39851e-21)
(0.000596306 0.00118216 -6.45609e-24)
(0.000727185 0.00143368 1.08965e-21)
(0.000649644 0.000978837 -2.48445e-21)
(0.000596653 0.00116545 2.68265e-23)
(0.000615202 0.00093743 3.61141e-21)
(0.000627745 0.00095724 1.26507e-21)
(0.000647677 0.00132737 1.50028e-21)
(0.000598265 0.00116434 -9.82465e-22)
(0.000505032 0.00101802 1.39991e-21)
(0.000527612 0.00106058 -2.73513e-21)
(0.000515845 0.00103887 1.4461e-21)
(0.00051651 0.00101221 -2.88365e-21)
(0.000527549 0.00103377 -9.33218e-22)
(0.000506057 0.000991662 -9.29162e-22)
(0.000643369 0.00133686 -9.31717e-22)
(0.000543178 0.0010825 -1.10782e-21)
(0.00075822 0.00131457 -5.79348e-22)
(0.000325369 0.000733643 -1.3065e-21)
(0.00056573 0.00111121 9.8268e-22)
(0.000217049 -0.000114035 0)
(0.000483526 0.000980005 0)
(0.000524174 0.00105979 9.08615e-22)
(0.000495539 0.000978118 -6.68765e-24)
(0.000772844 0.00143061 2.513e-23)
(0.000717789 0.00127198 0)
(0.000543874 0.00111823 -9.53101e-22)
(0.000841693 0.00073012 3.10407e-21)
(0.00045933 0.000994398 1.84998e-21)
(0.000858661 0.000447553 2.04753e-21)
(0.00054427 0.00106526 1.16761e-21)
(0.000648148 0.00123306 1.39086e-23)
(0.000379873 0.000625105 3.68826e-21)
(0.000584693 0.00110009 -4.02337e-22)
(0.000765177 0.00133558 -1.12318e-21)
(0.000360728 0.000718743 -5.93906e-22)
(0.000523769 0.00104805 -2.12834e-21)
(0.000347906 0.000523956 2.05173e-21)
(0.000568065 0.00110127 1.19547e-21)
(0.000656696 0.00122696 2.45059e-21)
(3.16843e-05 -1.35187e-07 0)
(0.000552391 0.00100756 1.62451e-21)
(0.00057703 0.000974929 1.51541e-21)
(0.000809521 0.000709241 -4.7955e-23)
(0.000741305 0.00145796 -1.71918e-21)
(0.000505821 0.000999327 -3.28738e-21)
(7.20824e-06 1.24328e-05 -6.44811e-21)
(0.000647793 0.00131705 9.95001e-22)
(0.00058448 0.00118402 1.36026e-21)
(0.00054564 0.00111187 2.09295e-21)
(0.000612491 0.000940671 -1.21094e-21)
(0.00063815 0.000981783 -1.21629e-21)
(0.000625 0.000960642 -1.25099e-21)
(0.000791642 0.00147916 -6.88459e-22)
(2.32131e-05 5.25955e-05 -2.45124e-21)
(0.000516531 0.00101807 -1.74344e-21)
(0.000155419 0.000199862 4.85476e-22)
(0.000432904 0.000967668 -2.02299e-21)
(0.000514763 0.000945827 4.76185e-21)
(0.000484219 0.000173948 -7.23524e-21)
(0.000734394 0.00145311 1.67433e-21)
(0.000768006 0.00143153 0)
(0.000327025 0.000511828 -6.72513e-22)
(0.000574126 0.0011245 -2.34461e-21)
(0.000678773 0.00101489 3.0146e-21)
(0.000276322 0.000324397 9.73465e-22)
(0.000887846 0.00137811 -1.17663e-21)
(0.000555321 0.000962999 1.33818e-21)
(0.000718496 0.00145568 4.04256e-21)
(0.000398274 0.000708601 1.02239e-24)
(0.000449238 0.000769591 -1.84551e-21)
(0.000575669 0.000989051 -3.19455e-21)
(0.00063011 0.00124421 -5.21356e-24)
(0.000496986 0.000975545 0)
(0.000528377 0.00108461 -5.95093e-23)
(0.000445712 0.000919948 2.44515e-22)
(0.00045532 0.000939168 2.52549e-22)
(0.000465453 0.000959498 2.48639e-22)
(0.000601693 0.0012291 2.73675e-22)
(0.000806787 0.00124807 -9.32924e-22)
(0.000542187 0.00106386 5.76079e-24)
(0.000529016 0.00100179 0)
(0.000518225 0.00098155 -3.04789e-21)
(0.000567979 0.00103737 0)
(-1.22964e-05 0.000667116 1.25737e-21)
(0.000591677 0.00116811 1.03724e-21)
(0.000501449 0.00097096 -8.97532e-22)
(0.000528537 0.000368848 -1.2136e-21)
(0.000630095 0.00124159 9.52947e-22)
(0.000541592 0.00106676 1.20503e-21)
(0.000303191 0.000463041 -2.52609e-21)
(0.000565714 0.00111013 -9.22571e-22)
(0.000586119 0.00117319 -2.41508e-21)
(0.00044976 0.000986677 4.62487e-21)
(0.000470571 0.00102864 4.64276e-21)
(0.000459749 0.00100716 1.88762e-21)
(0.000483696 0.00100382 -1.56803e-21)
(0.000494037 0.00102444 0)
(0.000604116 0.00125187 -2.96116e-21)
(0.000784249 0.00144161 1.57016e-21)
(0.000649336 0.000997139 -9.92172e-22)
(0.000701102 0.00135179 1.08627e-23)
(0.000485651 0.000963112 3.4286e-21)
(0.000636368 0.00114838 1.42716e-21)
(0.000537184 0.000995073 0)
(0.000559173 0.00103746 0)
(0.000547953 0.00101574 0)
(0.000595961 0.00102813 -1.60389e-21)
(0.000425265 0.000776151 -3.75362e-21)
(0.000685192 0.00113642 -6.66607e-22)
(0.00067615 0.0013206 7.83007e-22)
(0.000593066 0.00116329 1.09107e-21)
(0.00061375 0.000804688 -6.65905e-21)
(0.00049961 0.00099672 6.12439e-24)
(0.000520816 0.00103909 6.13309e-24)
(0.000509927 0.00101739 0)
(0.000736705 0.00143896 8.93804e-22)
(0.000611676 0.00105498 5.48646e-22)
(0.000474777 0.000981872 -1.5384e-21)
(0.000739148 0.00147097 -2.78239e-21)
(0.000619542 0.00119549 1.40732e-21)
(0.000706669 0.00147634 0)
(0.000592828 0.000936682 0)
(0.000539529 0.0010699 0)
(0.000444406 0.000762202 1.31989e-21)
(7.37569e-06 -1.71418e-05 -1.56493e-21)
(0.000517826 0.00101402 -8.6792e-22)
(0.000528881 0.00103558 0)
(0.000507363 0.000993454 0)
(0.000487235 0.000827807 0)
(0.000441495 0.000730763 -1.57995e-21)
(0.000587425 0.00110707 1.17307e-21)
(0.000443903 0.000982845 -1.96285e-21)
(0.000433405 0.000315182 2.0088e-21)
(0.00067825 0.00129102 2.12955e-21)
(0.000481239 0.000948584 -2.31015e-21)
(0.000580216 0.00103922 0)
(0.000501918 0.000961183 -9.62925e-22)
(1.01324e-05 -3.18306e-05 -1.27082e-21)
(0.000711511 0.00145481 0)
(0.000545842 0.00107167 -2.16596e-21)
(0.000624906 0.00124325 5.37405e-21)
(0.000577803 0.00108962 -9.4994e-22)
(0.000571805 0.0011334 -1.23971e-21)
(0.000312105 0.000691948 1.72059e-21)
(0.000364469 0.000521754 -2.77528e-21)
(0.000596114 0.000840102 -3.85081e-21)
(0.000797435 0.000278883 0)
(0.000757549 0.00117978 0)
(0.000585262 0.00109235 -1.18069e-21)
(0.000658044 0.00122571 -2.19375e-21)
(0.000536552 0.000604645 6.85585e-21)
(0.000745044 -1.2681e-05 3.13214e-24)
(0.000600652 0.00116276 8.5027e-22)
(7.09388e-05 0.000661111 1.71315e-21)
(1.93858e-05 -7.76941e-06 -7.71659e-21)
(0.000808336 -2.88084e-05 -1.7509e-21)
(0.000574472 0.00101254 8.4559e-22)
(0.000551355 0.000971493 8.41574e-22)
(0.000562637 0.000991514 8.69523e-22)
(0.000512304 0.0011722 0)
(0.000413928 0.000279096 6.15602e-22)
(0.00058618 0.000253561 -2.06301e-21)
(0.000925025 0.00133868 -5.60257e-22)
(0.000268382 0.000548683 4.45989e-21)
(2.34672e-05 -3.25602e-06 2.936e-21)
(0.000501095 0.000971096 -9.74128e-22)
(0.000490518 0.000982633 1.13139e-21)
(0.000848361 0.000168049 0)
(0.000483941 0.000978424 -1.38278e-21)
(0.000534043 0.00106103 -6.88829e-22)
(0.000727003 0.00133531 1.12945e-21)
(0.000259169 0.000297247 8.89722e-22)
(0.000642439 0.001235 0)
(3.27977e-05 -3.0105e-06 -8.90776e-26)
(0.000620182 0.00123717 6.43721e-22)
(0.000675277 0.00125846 -9.63947e-22)
(0.000585811 0.0010583 9.09119e-24)
(0.000594244 0.00105306 1.95429e-22)
(0.000554823 0.00110756 -1.35463e-21)
(0.000948881 0.000170354 0)
(0.000492825 0.000976157 -3.16774e-23)
(0.000688765 0.00129858 7.17503e-22)
(0.000561936 0.00111302 2.24055e-21)
(0.00050326 0.000993066 1.08652e-23)
(0.000524722 0.0010352 1.09193e-23)
(0.00051369 0.00101363 9.82356e-22)
(0.000573375 0.00115655 -1.69467e-21)
(0.000616882 0.00131235 1.6593e-21)
(0.000759666 0.00142267 -3.97444e-21)
(0.000679536 0.00131881 -9.1161e-22)
(0.000593777 0.00116745 -1.69795e-21)
(0.000697985 0.000717022 6.88803e-22)
(0.000732089 0.00144741 7.53325e-22)
(0.000641402 0.000850642 -2.00227e-21)
(0.000488177 0.000979739 1.73456e-21)
(0.000651158 0.00125299 3.79046e-23)
(0.000739217 0.00145714 -3.42132e-21)
(0.000654394 0.00119639 -1.28639e-21)
(0.000593932 0.00116777 9.85378e-22)
(0.000262075 0.000391112 -2.61377e-21)
(0.000415866 0.000772005 3.27556e-21)
(0.000587053 0.00104912 -9.70741e-22)
(0.000504054 0.000993888 0)
(0.000525515 0.00103603 0)
(0.000514485 0.00101446 0)
(0.000669692 0.00134063 0)
(0.000615301 0.00108617 0)
(0.000523195 0.000970925 1.96954e-21)
(0.000545032 0.00101243 1.97864e-21)
(0.000533875 0.000991151 2.035e-21)
(0.000542253 0.00106691 9.128e-22)
(0.000522471 0.000330061 4.91211e-21)
(0.000684902 0.00121238 -3.51918e-23)
(0.000738904 0.00147726 0)
(2.81693e-05 -3.47033e-06 -2.87079e-21)
(0.000564943 0.00111365 8.60925e-22)
(0.00022008 0.000498043 4.52501e-21)
(0.000594036 0.0011668 -1.83982e-21)
(0.000739719 0.00144944 1.69623e-21)
(0.000571379 0.00094214 -1.72e-21)
(0.00102017 0.000107254 2.32438e-21)
(0.000630227 0.00124428 2.70723e-21)
(0.000643008 0.00122231 0)
(0.000628223 0.00123854 -5.78968e-21)
(0.000571318 0.00123482 8.92285e-22)
(0.000554133 0.00106479 8.32339e-22)
(0.000536642 0.00107344 -9.79111e-22)
(0.000494966 0.00097948 0)
(0.000562312 0.00111061 -2.87635e-21)
(0.000576063 0.00111082 -8.45998e-22)
(4.26911e-05 -8.13269e-07 0)
(0.000728134 0.00128293 -2.37463e-21)
(0.000642167 0.00124091 8.33573e-22)
(3.9399e-05 4.03869e-05 3.48179e-21)
(0.000504944 0.000980987 0)
(0.000570853 0.00104175 6.982e-22)
(0.000737336 0.00144187 -9.13493e-22)
(0.000775234 0.000744061 -5.77227e-22)
(0.000584643 0.00108616 -1.32961e-21)
(0.000669057 0.00128137 -1.15877e-21)
(0.000723927 0.00142571 -9.37932e-22)
(0.00062223 0.00124665 0)
(0.000631322 0.00123755 -2.80179e-23)
(0.000706886 0.00121649 -1.95983e-21)
(0.00112741 9.08114e-05 -3.0848e-21)
(2.84939e-05 3.81596e-05 3.27687e-21)
(0.000494801 0.000975777 1.43257e-23)
(0.000772979 0.00120163 1.07446e-20)
(0.000752199 0.00144449 9.07573e-22)
(0.000651299 0.00121389 -7.31931e-22)
(4.36918e-05 -1.8532e-07 4.89876e-21)
(0.000749666 0.00145641 0)
(0.000765089 0.000522559 5.02577e-21)
(0.000719671 0.00145896 0)
(0.000444096 0.00101905 3.94921e-22)
(0.000506658 0.000955625 1.54632e-21)
(0.000778451 3.4893e-05 -1.64619e-21)
(0.000615561 0.000960864 -6.49517e-22)
(0.000499069 0.000981865 1.69806e-21)
(0.000812844 0.000662886 -1.15855e-21)
(0.000578357 0.000847945 -1.94223e-21)
(0.000756725 0.0014242 7.75399e-22)
(0.000732408 0.00127309 0)
(0.000502442 0.000962968 1.66298e-21)
(0.000618453 0.00109906 -1.49903e-23)
(0.000735568 0.00146712 -4.01904e-21)
(0.000594423 0.00103023 -1.39366e-21)
(0.000124022 0.000139424 -2.97973e-21)
(0.00060313 0.00103918 1.14272e-21)
(0.000928437 0.000226822 7.28441e-22)
(0.000572877 0.000744946 1.30702e-21)
(0.000685252 0.000704426 -2.38144e-21)
(0.000653427 0.00118575 1.16846e-21)
(0.00042033 0.000270748 -1.67898e-24)
(0.000744566 0.00144015 -1.70054e-21)
(0.00059277 0.000818061 2.00641e-21)
(0.00067221 0.000999734 1.28286e-21)
(0.000404367 0.000735096 -1.58215e-21)
(4.47531e-05 1.94431e-08 1.7749e-21)
(0.000295893 0.000338437 2.20487e-21)
(0.000538145 0.000975203 0)
(0.000325729 -0.000153493 -4.37567e-21)
(0.000731865 0.000800818 -4.79382e-21)
(0.000415954 0.000848084 0)
(0.000665651 -5.10695e-06 8.8545e-24)
(0.000284299 -0.000110241 -7.18747e-21)
(2.94144e-05 4.44425e-05 -3.13295e-21)
(0.00083363 0.000233805 -2.57591e-21)
(0.000366704 0.000489916 1.61871e-21)
(0.000742387 -3.26938e-05 -3.22889e-21)
(0.000945062 0.000794889 2.2081e-21)
(0.000361038 0.000795347 1.3065e-21)
(0.000430261 0.00019933 -4.36391e-22)
(0.000165471 0.000395705 0)
(0.000656687 0.000695431 -4.44247e-24)
(0.000721036 0.00117944 2.47842e-23)
(0.000472961 0.000182153 1.44456e-21)
(0.000686183 0.00122215 -3.7914e-22)
(0.000384331 0.000485232 -1.60736e-21)
(0.000122236 0.000143919 2.40648e-21)
(0.000515606 0.00103058 -2.23511e-21)
(0.000382249 0.000241691 0)
(0.000615806 0.000548498 0)
(-8.7944e-06 0.000623425 5.61868e-22)
(0.00059303 0.00103079 -2.3343e-21)
(0.000359534 0.000480331 -1.36474e-21)
(0.0009694 0.000333476 2.86101e-21)
(0.000907737 0.00126238 9.49149e-22)
(0.000657833 0.00116867 -1.18879e-21)
(0.000313261 0.000227349 -2.37867e-21)
(0.000444686 0.000824868 0)
(0.000691147 -3.26243e-05 5.70664e-21)
(0.000584217 0.00105603 -2.47282e-21)
(0.000654698 0.00116245 9.73886e-23)
(0.000353104 0.000307547 0)
(0.000391426 0.000511431 1.5312e-21)
(0.000617416 0.000284257 2.31515e-24)
(0.000753632 0.00146024 3.29435e-21)
(0.000977849 0.000175007 2.76561e-21)
(0.00061282 0.00105077 0)
(0.00076403 0.00122913 4.72834e-23)
(0.000674836 0.0010857 -1.86054e-24)
(0.00057329 0.000920901 4.2826e-23)
(0.000597714 0.00096036 -8.39229e-23)
(0.000585262 0.00094012 4.42098e-23)
(0.000504734 0.000992743 -6.5799e-22)
(0.000526159 0.00103522 -6.61178e-22)
(0.000515152 0.00101344 -1.21076e-23)
(0.000346581 0.000758724 1.18765e-21)
(0.000576085 0.00105512 3.00693e-21)
(0.000427741 0.000905763 -1.74554e-23)
(0.000316901 0.000688546 2.30992e-21)
(0.000346837 0.000531097 7.10183e-22)
(0.000572441 0.000992964 0)
(0.000453487 0.000333452 2.15861e-21)
(0.000632632 0.00110377 -2.04618e-21)
(0.000383864 -5.04518e-05 -1.9991e-25)
(0.000481325 0.000122323 0)
(0.000956298 -5.25447e-07 3.48479e-21)
(0.000671688 0.000967291 0)
(0.000473472 0.00095761 -3.30871e-21)
(0.000924658 0.000178756 0)
(0.000546189 0.00103274 -1.41683e-21)
(0.000770148 3.26774e-05 -1.58414e-21)
(0.0010678 0.000650356 2.95044e-21)
(0.000527387 0.000134053 9.63778e-24)
(1.71478e-05 7.36702e-06 -3.00994e-21)
(0.000754498 0.000389519 2.75665e-21)
(0.000338873 0.000219979 0)
(0.000174086 -2.70298e-05 -3.96686e-21)
(0.000590105 0.00100183 4.1742e-22)
(0.000219904 0.000732173 0)
(4.496e-05 1.38643e-06 -1.71598e-21)
(0.000434959 0.000640028 1.20151e-22)
(0.000957131 0.000561688 1.71142e-21)
(0.000699798 0.000242106 3.18722e-21)
(0.000558434 0.000869293 4.62063e-21)
(0.000707067 0.00132141 1.63404e-21)
(2.35427e-05 -6.99892e-06 3.16678e-21)
(0.000605237 0.00106671 1.44943e-21)
(0.000550173 0.000971176 0)
(4.48703e-05 0.000276699 -1.39302e-21)
(0.000541531 0.0010649 -1.4514e-21)
(0.000463246 0.00121371 -1.37652e-22)
(0.000443368 0.00116974 4.04528e-23)
(0.000525044 0.00135145 -1.4884e-22)
(0.000399268 0.00107153 -9.45209e-23)
(0.000676453 0.000998838 -7.98502e-21)
(0.000630389 0.00157323 0)
(0.00130613 0.000858533 9.04084e-22)
(0.000930839 0.000579769 1.50303e-21)
(0.000722771 0.00124744 0)
(4.35113e-05 2.39403e-06 -5.12824e-21)
(0.000632951 0.00124035 0)
(0.0004641 0.000663253 8.44858e-22)
(0.000902844 0.000528542 8.04881e-22)
(0.00056457 0.00110932 5.99596e-24)
(0.000796391 0.00126357 -4.64898e-21)
(0.000463353 0.000308419 0)
(0.000746913 0.00129939 -2.65133e-21)
(4.34988e-05 3.77525e-05 0)
(3.43043e-05 3.96183e-06 2.1981e-21)
(0.000506606 0.000969569 0)
(0.000660598 0.00106948 -1.50624e-21)
(0.00106232 0.000914508 -1.80994e-21)
(0.0010933 0.000931658 1.60908e-21)
(0.000610377 0.00106744 -3.40363e-21)
(0.000339573 0.000845021 -7.90649e-23)
(0.000439052 0.00107954 -9.30707e-23)
(0.000379756 0.000928423 1.0347e-22)
(0.000389816 0.00096357 -8.46466e-23)
(0.00052888 0.00127108 -1.22407e-22)
(0.000906581 0.00112708 3.41478e-21)
(0.000591027 0.00102609 0)
(0.000189908 0.000484932 0)
(0.000329053 0.00115658 1.99753e-21)
(0.0002561 0.000516979 -5.04358e-21)
(4.31037e-05 -7.12365e-05 0)
(0.00042536 0.000817865 0)
(0.000643247 0.00111065 -1.28525e-21)
(0.000761456 0.00143829 6.27645e-22)
(0.00077131 0.00126872 -1.84131e-21)
(0.000654113 0.00102501 -1.05983e-21)
(0.00032635 0.000847438 7.14345e-25)
(0.000600641 0.00106241 1.13294e-23)
(0.00055872 0.000217979 -5.44711e-21)
(0.000850665 9.45968e-06 0)
(0.000726582 4.52104e-05 4.60785e-21)
(0.000121527 0.000334104 -1.44997e-21)
(0.000603814 0.00105764 5.43064e-22)
(0.000719569 -2.72291e-05 0)
(0.000188893 1.50519e-05 1.82135e-21)
(0.000284093 0.000468276 3.66146e-25)
(0.000607023 0.00105309 -5.82637e-22)
(0.000817168 -2.62497e-05 0)
(0.000455379 0.000445079 -4.63749e-21)
(0.000491635 0.00116663 0)
(0.000428692 0.0010262 0)
(0.000375478 0.000905491 0)
(0.000358786 0.000867348 0)
(0.000366827 0.000885829 0)
(0.000730518 0.000331926 1.0955e-21)
(8.80472e-05 0.000204495 -3.36279e-21)
(0.000310624 0.000249684 3.87323e-21)
(0.000568844 0.00141908 -1.39514e-22)
(0.000406632 0.00106783 -1.92671e-22)
(0.000416237 0.00108988 -1.99146e-22)
(0.000426833 0.00111299 -1.95135e-22)
(0.000491233 0.00125548 -2.1431e-22)
(0.000631015 0.00107185 4.65488e-21)
(0.000641155 0.00111874 0)
(0.000779072 0.000750094 2.54451e-21)
(0.000514711 0.00109955 1.50926e-21)
(0.000334584 0.000439812 2.40112e-21)
(0.000895446 0.000321691 1.86645e-21)
(0.000769581 0.00145837 1.73174e-21)
(0.000384267 0.000493023 -9.50348e-22)
(0.000499811 0.000763664 1.74335e-21)
(0.000602616 0.00104681 0)
(0.000958606 0.000848593 -3.01004e-21)
(0.000412308 0.000856999 -9.39701e-22)
(0.000405813 0.000790931 7.0635e-22)
(0.000105618 0.000507881 -1.36885e-21)
(0.000612434 0.00105015 1.07245e-21)
(0.000706723 0.000451473 -2.926e-21)
(3.79067e-05 -2.50551e-07 2.09361e-21)
(0.00120561 1.86398e-05 0)
(0.000233679 0.000515926 4.29814e-24)
(0.000326783 0.000476277 1.44341e-21)
(0.000746845 0.000768921 -4.13585e-22)
(0.00174023 0.000326413 1.102e-21)
(0.000163702 0.000753138 1.17475e-21)
(0.000454472 -6.21793e-05 0)
(0.000678078 0.000226772 0)
(7.7182e-05 -0.000115156 -5.89635e-22)
(0.000994256 0.000199472 3.13271e-21)
(4.11454e-05 4.256e-06 2.81663e-25)
(0.000469163 0.000379055 3.83326e-25)
(0.000738742 0.00132347 -1.03739e-21)
(0.000496981 0.000991558 4.87227e-21)
(0.000541812 0.00102328 0)
(0.000491868 0.00075616 0)
(0.000406576 0.000743467 -3.42057e-21)
(0.000544724 -0.000147983 3.557e-21)
(0.000613947 0.00107861 -1.14965e-21)
(0.00070024 0.000713915 -8.08517e-22)
(0.00050485 0.000767679 1.72201e-21)
(0.00128278 0.000101571 -5.46829e-21)
(0.000778794 0.000757105 -7.19163e-24)
(3.91044e-05 -3.63248e-06 -2.08691e-21)
(0.0006257 0.000958046 3.74781e-21)
(0.000504626 0.00100683 3.44855e-21)
(0.000856201 0.000213347 1.32505e-21)
(0.000832393 0.0002714 -1.72415e-21)
(0.000558708 0.000282916 4.41446e-21)
(0.000810475 0.00123517 4.86995e-22)
(0.000367681 0.000634595 0)
(0.000805697 0.000689022 -1.35172e-21)
(0.000642022 0.00121527 -5.0354e-21)
(0.000506915 0.000962059 -1.67672e-23)
(3.79318e-06 2.05358e-05 -2.21845e-21)
(0.000167305 0.000237034 -1.85154e-21)
(0.000450362 0.000703053 -9.40761e-21)
(1.07131e-05 8.357e-06 0)
(0.000599716 0.00116181 7.84945e-22)
(0.000353063 0.000462032 2.62429e-21)
(0.000619015 0.00103546 3.44396e-21)
(0.000537675 0.00107694 -1.30455e-21)
(0.000934007 0.000815094 -7.27789e-21)
(0.000210603 -1.71906e-05 -8.60257e-25)
(0.000949384 0.000830797 7.70414e-24)
(0.000556096 0.000471019 -3.35685e-22)
(0.00060625 0.00109094 2.37161e-22)
(0.000754457 0.00144495 3.52719e-23)
(2.3893e-05 0.00102159 -1.88257e-21)
(0.000754222 0.00132485 -1.52572e-21)
(0.000587646 0.00092492 -1.61213e-21)
(0.00059932 0.00104138 3.58219e-21)
(0.000598348 0.00107515 -5.53455e-22)
(0.000638883 0.000961218 0)
(0.000375392 0.000245552 -1.91283e-21)
(0.00148935 0.00141234 -1.37583e-21)
(0.000376308 0.000794305 0)
(0.000966723 0.000296928 0)
(0.000789094 0.00050489 6.70347e-21)
(1.61009e-05 -2.762e-05 6.33278e-21)
(0.000590116 0.00104515 0)
(0.000708725 0.000608592 6.76851e-22)
(0.0006356 0.000947534 1.25265e-21)
(0.000649565 0.000967165 6.16264e-22)
(0.000622655 0.000928169 0)
(0.000680711 0.00136115 -1.5461e-22)
(0.000475172 0.000107326 -2.04897e-21)
(0.000152433 1.89654e-05 4.37101e-22)
(0.000678627 0.000590501 -2.66332e-21)
(1.82588e-05 -4.17016e-06 -6.37499e-21)
(0.000598473 0.0011162 -1.89333e-21)
(0.00043496 0.000906591 3.99743e-23)
(0.000564144 0.00115376 -1.38807e-22)
(0.00048843 0.00100147 6.57473e-23)
(0.000500195 0.00103156 -1.28185e-22)
(0.000848264 0.00115759 6.07947e-21)
(0.00120286 0.00116136 2.07141e-23)
(0.000715479 0.000635328 -7.1254e-24)
(0.000616164 0.000963365 -9.26338e-21)
(0.000512662 0.000363772 -6.00392e-24)
(0.000153426 0.000133856 6.26078e-21)
(0.000496904 0.000512768 -1.2177e-20)
(0.00011097 0.000513353 8.70807e-22)
(7.97702e-05 0.000196069 5.16447e-21)
(0.000517502 0.000896114 4.36939e-25)
(0.000264611 4.56175e-05 -1.38401e-21)
(0.000585964 0.000278775 8.21208e-21)
(0.000480987 7.94352e-05 -4.85392e-24)
(0.000351984 0.000921215 1.08447e-21)
(5.38616e-05 0.000381208 -3.1953e-21)
(0.000573138 2.80825e-05 -1.0131e-23)
(0.00125636 0.000255458 -2.24258e-21)
(4.34296e-05 -1.24948e-06 -1.2028e-21)
(0.000874614 0.000220325 4.14406e-21)
(0.000666712 0.000973494 -1.91662e-21)
(0.000757183 0.0013151 7.61386e-22)
(0.000195433 0.000580427 -1.13235e-21)
(0.000548807 0.000420347 7.26461e-22)
(0.000647083 0.00123962 1.82484e-21)
(0.000542003 0.00106564 2.57557e-21)
(0.000646362 -0.000361303 0)
(0.000540462 0.00130189 -9.11157e-22)
(0.00105258 0.000915946 0)
(-0.000138088 0.00112475 1.63806e-21)
(0.000868668 0.000528157 1.46205e-21)
(0.000349899 0.000739194 0)
(0.000498908 0.00104407 0)
(0.000601179 0.000806248 0)
(0.000467945 0.000978461 6.68734e-21)
(0.000197102 0.000713038 -2.09415e-21)
(3.64934e-05 -3.60191e-06 -3.43835e-21)