/*--------------------------------*- C++ -*----------------------------------*\
  =========                 |
  \\      /  F ield         | OpenFOAM: The Open Source CFD Toolbox
   \\    /   O peration     | Website:  https://openfoam.org
    \\  /    A nd           | Version:  8
     \\/     M anipulation  |
\*---------------------------------------------------------------------------*/
FoamFile
{
    version     2.0;
    format      ascii;
    class       volVectorField;
    location    "1.4";
    object      U;
}
// * * * * * * * * * * * * * * * * * * * * * * * * * * * * * * * * * * * * * //

dimensions      [0 1 -1 0 0 0 0];

internalField   nonuniform List<vector> 
17372
(
(0.000557459 0.0010127 2.47509e-21)
(8.4862e-05 0.000221655 8.46485e-21)
(0.00072649 0.00121917 1.31408e-23)
(0.000604748 0.00112696 3.4149e-21)
(0.000115876 1.64396e-05 -4.99432e-22)
(5.53889e-05 0.000256949 -3.91562e-21)
(0.000568412 0.000929738 2.3417e-22)
(0.000235518 0.000527044 -9.49013e-22)
(0.000720915 0.00122548 -5.28313e-22)
(0.000450418 0.000628861 1.01041e-21)
(0.000732699 0.00106089 -2.48143e-21)
(0.000131419 0.000185987 2.04976e-21)
(0.00120169 7.3806e-05 3.00222e-21)
(0.00095197 6.89797e-05 2.21415e-21)
(0.0005623 0.000973643 -2.58956e-22)
(0.000458964 0.000786413 -1.13648e-21)
(0.000130421 0.000174422 -3.12495e-21)
(0.000377531 0.000166166 2.1809e-21)
(0.000974325 0.000112664 -3.76888e-24)
(0.000186251 0.000585703 0)
(0.000559387 0.000972703 -1.21412e-22)
(0.00046197 0.000984164 -3.68121e-22)
(0.000591491 0.00100676 -3.23173e-21)
(0.000204284 0.000576082 -6.53344e-21)
(0.000416607 0.000129071 -6.05238e-21)
(0.000544819 0.000972525 1.21722e-22)
(0.000589805 0.00100343 2.33863e-24)
(0.000662557 0.00112059 9.4322e-22)
(0.000963227 -3.75739e-05 1.68776e-21)
(0.000590497 0.00100406 -1.62899e-21)
(0.000724288 0.00122677 -5.49437e-22)
(9.01851e-05 8.6864e-05 2.75885e-21)
(0.000591529 0.00100506 -6.48803e-24)
(0.000552318 0.000975815 -5.74454e-22)
(0.000167916 0.000697534 1.09075e-21)
(0.00056128 0.000955243 -1.02606e-23)
(0.00056538 0.000970157 0)
(0.000258287 0.000177286 -6.04437e-23)
(0.000566784 0.00104907 6.51375e-22)
(0.000526861 0.000885606 7.56874e-23)
(0.000589567 0.00100348 1.68016e-23)
(0.000635984 0.00115365 6.24517e-22)
(0.000640051 0.00112032 7.53538e-22)
(0.000635486 0.0005759 5.60764e-23)
(0.000529769 0.000947922 0)
(0.000592937 0.00101004 1.58857e-21)
(4.65149e-05 0.000197984 8.0315e-22)
(0.000432849 0.000798944 -1.98853e-22)
(0.000563823 0.000973174 -4.15883e-22)
(0.000586865 0.00096684 9.66607e-22)
(2.20973e-05 0.000267641 1.94193e-21)
(0.000552307 0.000973404 7.23479e-22)
(0.000573821 0.000981785 -9.67534e-24)
(0.000729071 0.00122198 1.79688e-21)
(0.000405943 0.000173883 -1.74554e-21)
(0.000215902 0.000125979 -5.50186e-22)
(0.000554731 0.000975486 -4.79878e-22)
(0.00061013 0.00116652 5.69148e-23)
(0.000727206 0.00122589 -6.06411e-22)
(0.000212039 0.000486031 -1.59294e-21)
(0.00052841 0.000971284 2.03545e-23)
(0.000469636 0.000567332 -8.2369e-22)
(0.000590038 0.00100478 1.61508e-21)
(0.000606163 0.00106335 1.33982e-21)
(0.000661091 0.00112571 -2.60782e-24)
(0.000201966 0.000485573 1.97068e-21)
(0.000534701 0.000953102 -6.14133e-22)
(0.000514235 0.00093419 -8.72692e-23)
(0.000244437 0.00108314 -4.8864e-24)
(0.0002684 0.000196318 4.17615e-22)
(0.000707617 0.000409873 0)
(0.000533196 0.00090005 3.90886e-22)
(0.000654868 0.00114823 -7.30169e-22)
(0.000580651 0.000937502 2.02981e-21)
(0.000511671 0.000872438 -2.02871e-21)
(0.000564602 0.000962905 -2.19589e-21)
(0.000665085 0.00110099 -7.82826e-22)
(0.00053891 0.000967678 0)
(0.000506022 0.00101603 1.02063e-21)
(0.000570303 0.00102387 -5.45557e-21)
(1.45649e-05 0.000234404 0)
(0.000527611 0.000979126 7.64377e-22)
(0.000582977 0.00103907 -1.73481e-21)
(0.000117579 3.57356e-05 -2.66243e-21)
(1.49038e-05 0.000241846 -2.53394e-22)
(0.000547954 0.000974062 0)
(0.00058267 0.000961866 -1.97491e-21)
(0.000591046 0.00105068 -4.21201e-24)
(0.000556966 0.000975087 3.74634e-22)
(5.86767e-06 0.000432783 0)
(0.000672357 0.00120162 -1.8741e-22)
(0.000543195 0.000972879 1.5536e-22)
(0.000436033 0.000483485 0)
(0.000513375 -6.10735e-05 -1.88602e-21)
(-9.3187e-06 0.00049902 -1.28517e-21)
(0.00058925 0.00100413 1.79762e-21)
(0.00135683 0.000238276 0)
(5.0129e-05 0.000190871 3.70211e-22)
(0.000418458 0.000160361 -1.91832e-21)
(0.00022358 0.000563246 2.51322e-24)
(0.000840749 0.000272378 -1.1327e-21)
(0.000585706 0.000976687 1.68834e-21)
(0.000263889 0.000186332 -2.38586e-22)
(0.000150829 0.000375294 -2.0883e-21)
(0.000727819 0.00122585 0)
(0.000547665 0.000970572 1.56614e-23)
(0.000707976 0.00123383 4.2983e-24)
(0.000940199 0.000783346 -8.89994e-21)
(0.000130733 0.000124603 0)
(0.000586341 0.000977642 -3.01151e-21)
(0.000654006 0.0014781 0)
(0.000295947 0.000294635 2.03688e-21)
(0.000587181 0.000977785 1.75446e-21)
(0.000587334 0.000976326 -1.88099e-21)
(0.000713975 0.00122519 0)
(0.000526096 0.000895943 -2.37259e-22)
(0.000587786 0.000978361 -1.79004e-21)
(0.000559537 0.000970808 -3.54342e-22)
(0.000538406 0.00104302 0)
(0.00058826 0.000978923 0)
(0.000723753 0.00122504 5.48135e-22)
(0.00058818 0.000979046 -4.57685e-22)
(0.00072729 0.00122505 5.91297e-22)
(0.000556212 0.00109112 2.34526e-22)
(0.000275226 0.000206315 -2.46498e-22)
(0.000729112 0.00122478 6.18175e-22)
(0.000727724 0.00122171 1.71136e-21)
(0.000483774 0.000517036 7.14724e-22)
(6.64259e-05 -7.24606e-06 -1.28712e-21)
(0.000589476 0.000976668 -9.23882e-22)
(0.00072821 0.00122479 -6.68126e-22)
(0.000726379 0.00122146 0)
(0.000589164 0.00100421 1.67263e-21)
(0.000587022 0.000972157 9.57834e-22)
(0.000727501 0.00122238 5.46494e-22)
(0.000482542 0.00050503 9.69676e-22)
(0.000541959 0.00112986 -1.23689e-21)
(0.000726826 0.00122257 -5.0345e-22)
(0.000549302 0.00110342 -1.26273e-21)
(0.000134376 0.000139648 -1.66432e-21)
(0.000486743 0.000599636 1.7669e-21)
(0.000726464 0.00122321 4.86891e-22)
(0.000727135 0.0012205 0)
(0.000727888 0.001224 -7.1557e-22)
(6.71881e-05 0.000485376 1.67222e-22)
(0.000727195 0.00122129 0)
(0.000727858 0.00122395 8.82756e-24)
(0.00106472 7.73573e-05 -1.66233e-21)
(0.000707059 0.000598786 -1.69059e-21)
(0.000609901 0.00112328 -1.05685e-23)
(0.000573209 0.00101894 -2.70396e-22)
(0.000569082 0.000928777 -1.73249e-21)
(0.000448773 0.00121703 -1.5375e-23)
(0.000659602 0.00113413 6.61366e-22)
(3.92603e-05 0.000324552 1.54018e-21)
(0.000626858 0.0010208 7.44527e-22)
(0.00106399 0.00147856 1.64612e-21)
(8.32558e-05 1.96546e-05 -9.42636e-23)
(8.68226e-05 0.000499182 -3.52911e-21)
(0.000586625 0.000976349 2.08609e-21)
(0.000726687 0.00122547 -1.39148e-21)
(0.00012784 0.000141143 -8.68598e-22)
(0.000625908 0.00111906 1.58266e-21)
(0.000579205 0.000100837 4.16398e-21)
(0.000589236 0.00100395 2.36685e-24)
(0.000669344 0.000458358 1.66054e-21)
(0.000671511 0.00124275 -2.86627e-21)
(0.000608568 0.000230798 -2.01074e-21)
(0.000577451 0.00102687 5.384e-22)
(0.000545983 0.000947291 -1.13519e-21)
(0.000242538 0.00076421 -9.2816e-23)
(0.000527725 0.000974086 3.66876e-22)
(0.000506436 0.000961763 4.00692e-21)
(0.000276835 0.000314209 2.01348e-21)
(0.000725649 0.00122089 -2.50297e-21)
(0.00050748 0.000981977 8.69961e-22)
(0.000666011 0.00110686 -4.104e-22)
(0.000187315 0.000556614 1.96477e-21)
(0.000498804 0.000580025 5.13098e-22)
(0.000133883 0.000155585 -1.12684e-22)
(0.000203223 0.000697016 2.16753e-21)
(0.000618259 0.00112901 3.10075e-21)
(2.78052e-07 0.000417998 0)
(0.000413184 0.000844886 1.14195e-22)
(0.000576444 0.000985371 -8.84531e-22)
(0.00072873 0.00122281 -5.72614e-24)
(0.000553444 0.00105651 -1.19224e-22)
(5.43201e-05 0.000140999 5.70442e-22)
(0.000266483 0.00109846 -4.58332e-23)
(4.40225e-05 3.00322e-05 7.23294e-22)
(0.000505311 0.000950271 1.3168e-22)
(0.000474329 0.000925661 -1.47711e-21)
(0.00066149 0.00105911 -5.67354e-22)
(0.000244165 0.000454779 0)
(0.000589542 0.000977317 2.78615e-21)
(5.62129e-05 0.0001218 0)
(0.000558107 0.00113576 0)
(0.000600584 0.00113166 3.35239e-22)
(0.000234185 0.000245556 -1.08982e-21)
(0.0011237 0.000791543 0)
(4.89478e-05 0.00011899 -7.73303e-22)
(0.000433971 0.000639028 -1.3505e-22)
(0.000403149 -2.47874e-05 9.08551e-25)
(0.00059353 0.00106231 -1.19779e-21)
(0.000437303 0.000792356 -2.7231e-23)
(9.72579e-05 2.33282e-05 1.97836e-21)
(0.000621156 0.00111927 0)
(0.000790855 0.000375843 2.93513e-22)
(0.000557874 0.000971645 -6.98719e-24)
(0.000721178 0.0012291 7.73878e-22)
(0.000631594 0.00111664 -1.77546e-21)
(0.000588716 0.00100376 1.7056e-21)
(0.000644554 0.00112911 -4.80267e-21)
(0.000632918 0.00111983 1.70201e-21)
(5.93874e-05 0.000163774 0)
(0.000532427 0.000978891 0)
(0.000580528 0.000975862 2.28493e-21)
(0.000523614 0.000877567 4.01105e-21)
(0.000870248 0.000244025 1.15771e-21)
(0.000470419 0.00116812 -1.90905e-22)
(0.00055903 0.0010426 -9.08564e-22)
(0.000190877 0.000533789 0)
(5.89483e-05 0.00013198 1.92935e-22)
(0.000950848 0.000144343 -6.1106e-21)
(0.000723221 0.00122746 -7.44236e-22)
(0.000399515 3.26134e-06 5.01372e-21)
(0.000602956 0.00104762 7.58268e-23)
(0.000271781 0.000728505 6.16497e-21)
(-0.00050077 0.000373779 -2.81514e-23)
(0.000588549 0.000977296 0)
(0.000254164 0.000168436 5.07046e-22)
(0.000623684 0.00112666 2.33262e-21)
(0.000461636 0.00045679 -2.90532e-21)
(0.000635635 0.00113898 2.35184e-21)
(0.000638698 0.0011313 4.80891e-21)
(0.000977808 -2.38241e-05 2.50458e-22)
(0.000388053 0.000522345 -1.59426e-21)
(0.000494997 0.000884091 0)
(0.000217776 0.000960616 1.13512e-23)
(0.000516359 0.000961035 -1.29784e-21)
(0.00059898 0.000986939 -8.36962e-22)
(0.000614964 0.00113342 1.90988e-21)
(8.79972e-05 2.14003e-05 0)
(0.000443215 0.000209427 2.11948e-21)
(0.000850334 0.000528015 2.11438e-21)
(0.00058641 0.00100465 0)
(0.000936836 9.25593e-05 -1.8485e-21)
(0.00057511 0.000983979 -9.42124e-22)
(0.000460805 0.000886687 6.07375e-23)
(6.70807e-05 1.38192e-05 -3.88538e-22)
(7.38059e-05 5.74499e-07 4.74629e-21)
(0.00060982 0.00105691 -1.19893e-21)
(0.000234827 0.000957189 1.89718e-24)
(0.000545314 0.000971213 4.01281e-22)
(7.52031e-05 1.60257e-05 2.63287e-21)
(0.000566106 0.00106432 1.42936e-24)
(0.000726569 0.00122153 2.01184e-21)
(4.02083e-05 0.00021084 -4.62575e-22)
(0.000646858 0.00110863 -4.46954e-22)
(0.000588585 0.000136049 2.04428e-22)
(0.000628467 0.00123493 1.97752e-22)
(0.000645593 0.00115638 -6.98941e-24)
(0.000577263 0.000130139 -2.38712e-21)
(0.000386306 4.81681e-07 -6.2904e-21)
(6.89445e-05 1.09667e-07 1.89596e-21)
(0.000184735 0.000149514 -8.93871e-22)
(0.000728738 0.00128151 -2.00757e-21)
(0.000360455 0.000270873 6.94345e-21)
(0.000551681 0.001011 0)
(4.78762e-05 0.000103278 -9.36648e-22)
(0.000564045 0.000949158 -3.02639e-21)
(0.000588571 0.00100265 -1.65191e-23)
(6.10177e-05 0.000490865 1.0147e-20)
(0.0011587 -0.00018945 -4.29457e-22)
(0.000637859 0.000102781 0)
(0.000521422 0.000977067 0)
(0.000589005 0.000978297 -1.36484e-21)
(0.00107503 -3.55101e-05 -8.62003e-22)
(0.000599219 6.91017e-06 1.56544e-21)
(0.000391221 0.000537829 4.44209e-22)
(0.000633997 7.20906e-05 0)
(5.84895e-05 6.86013e-05 -3.54062e-21)
(0.000561602 0.00106926 0)
(4.46566e-05 9.39406e-05 1.444e-21)
(0.000588609 0.00100422 -1.75066e-21)
(0.00127273 0.00111833 -4.90152e-21)
(0.00060463 0.00108076 0)
(0.000543114 0.000950501 6.94211e-25)
(0.000558451 0.000988121 0)
(0.000332482 0.000444189 0)
(0.000432976 0.000747119 0)
(0.000848506 0.000557459 -1.66328e-21)
(0.000589597 0.000974929 -1.20218e-21)
(0.000500247 0.00090622 -2.38164e-22)
(0.000331631 0.000463614 4.42261e-21)
(0.000665422 0.00110254 -3.82675e-22)
(0.000553256 0.000966273 1.45741e-21)
(0.000862884 0.000185403 -1.17759e-26)
(0.000464797 0.00100432 1.33035e-21)
(0.000655514 0.00118103 -2.2363e-24)
(0.000518618 0.00112093 -6.327e-24)
(4.12051e-05 8.43254e-05 1.59835e-21)
(0.000712764 0.001244 -4.38317e-22)
(4.56901e-05 0.000114488 8.12946e-22)
(5.02114e-05 -2.49636e-06 2.13318e-21)
(0.000675071 0.000609409 -5.10072e-22)
(0.000742532 0.00106918 -2.18031e-21)
(0.000643097 0.0010424 0)
(0.000464647 0.000662724 0)
(0.000313703 0.000257081 2.16641e-21)
(0.000567158 0.00100639 6.97429e-24)
(0.000935393 9.52924e-05 8.64525e-21)
(0.000638436 0.00112106 1.66559e-21)
(3.79064e-05 7.51639e-05 1.09473e-22)
(0.000286285 0.000565028 -1.9535e-21)
(0.000194776 0.00056536 1.49122e-21)
(0.000586236 0.00100273 -1.98522e-21)
(0.000208968 0.000327163 -7.2178e-23)
(0.00045116 -7.99473e-05 -4.05129e-21)
(0.00056432 0.000956904 -3.17321e-22)
(0.000112361 0.00120906 -2.20156e-22)
(0.000855482 0.000385356 0)
(0.000727203 0.00122309 0)
(0.00107973 6.97683e-05 2.33308e-22)
(0.000623695 0.00102286 0)
(0.000225164 7.85019e-05 1.1819e-21)
(2.88897e-05 0.000483077 0)
(3.43375e-05 6.75685e-05 8.97134e-23)
(0.000406915 0.000320819 1.31546e-21)
(0.000560556 0.00104023 0)
(0.000724023 0.00122579 0)
(0.000905739 0.000750289 -9.48007e-24)
(0.000174551 0.000112299 6.53498e-22)
(0.000678848 0.00107537 -1.76023e-22)
(0.000727554 0.00122136 -1.7117e-21)
(0.000719775 0.00122096 0)
(3.16823e-05 6.00371e-05 -7.66522e-22)
(0.000654095 0.00115076 7.80267e-22)
(0.000730038 0.00122201 -8.43655e-22)
(0.000672986 0.000110411 0)
(0.000730319 0.0012211 8.37757e-22)
(0.000265966 0.000318546 5.24305e-21)
(0.000484391 0.000706071 -2.29097e-21)
(0.000655655 0.00111525 2.55493e-21)
(0.000530418 0.00101201 -1.2603e-22)
(0.000505616 0.000989478 -7.8397e-22)
(6.01106e-05 5.20211e-05 -8.91911e-22)
(0.000517921 0.0010097 9.50039e-23)
(0.000564882 0.00101029 -8.52369e-22)
(0.000464113 0.000883439 2.45184e-21)
(2.90222e-05 5.3534e-05 7.85923e-22)
(9.15537e-05 0.000585636 -7.77218e-22)
(6.05231e-05 0.000139139 -1.99859e-21)
(0.000701086 0.00128238 -2.52572e-22)
(0.000726401 0.00122481 -7.98834e-22)
(6.72022e-05 1.71334e-05 -1.52026e-21)
(0.000178078 0.000581337 2.82109e-21)
(0.000616843 0.00113118 -1.90978e-21)
(2.6581e-05 4.76364e-05 -7.67741e-22)
(0.000718153 0.00122259 -6.20203e-22)
(0.000305751 0.000281935 2.73173e-21)
(2.17968e-05 4.04024e-05 1.10236e-21)
(0.000729775 0.00122206 8.08602e-22)
(0.000729533 0.00122214 0)
(0.000728633 0.00122548 -6.25976e-22)
(2.23227e-05 3.66387e-05 -1.80588e-22)
(4.38475e-05 -8.29644e-06 3.79923e-22)
(0.000522964 0.000585874 -1.3849e-21)
(0.00072756 0.00122279 -7.17229e-22)
(0.00106509 -3.63015e-05 9.23571e-22)
(0.000425068 0.000775349 -1.69043e-21)
(0.0001833 0.000126481 -1.97487e-21)
(0.00017012 0.000118411 2.09687e-22)
(0.000970752 0.00013718 0)
(0.00071191 0.000826407 0)
(1.99028e-05 3.25603e-05 -3.6141e-22)
(0.000537526 0.00101383 -2.84625e-22)
(0.000647709 0.00108751 -1.44895e-23)
(0.00107407 5.42452e-05 -2.40047e-22)
(5.88535e-05 -3.66137e-06 0)
(5.72823e-05 0.000125939 1.43692e-21)
(0.000593987 0.000968537 -1.96412e-21)
(0.000194779 0.000580482 0)
(0.00058887 0.000978068 0)
(1.83641e-05 1.97385e-06 9.32359e-22)
(0.000531386 0.000485685 -3.04771e-21)
(0.000646235 0.0010575 1.01101e-21)
(0.000532687 0.000969416 -9.88746e-24)
(0.000376217 0.00050626 -8.71972e-25)
(0.000654564 0.00052879 -1.72515e-24)
(0.000221223 0.000461171 1.02383e-21)
(0.000107547 6.3494e-05 -5.22155e-26)
(0.000588372 0.00100475 2.42794e-23)
(0.00115481 0.00102756 3.19432e-21)
(0.000118948 4.01856e-05 3.6422e-21)
(0.000528086 0.00130199 5.07689e-24)
(4.30925e-05 0.00108276 5.97088e-24)
(2.78375e-06 -4.0075e-06 0)
(5.34878e-05 -2.77906e-06 -3.16236e-21)
(0.000455754 -0.000157067 -3.56986e-21)
(0.000739691 0.00122631 7.448e-22)
(0.000809996 -0.000319672 0)
(0.000394407 0.000458061 1.91892e-21)
(0.00058728 0.000998418 0)
(0.000660259 0.00113891 0)
(0.000669156 0.00110047 4.02789e-22)
(0.000840683 0.000365853 -2.52339e-21)
(0.000302737 0.000786674 0)
(0.000123455 0.000185289 0)
(0.000637407 0.00114833 -2.31612e-21)
(8.70926e-05 2.64853e-05 -1.9353e-22)
(0.000135882 0.000940538 -2.19274e-21)
(0.000294812 0.00110777 -2.79607e-23)
(0.000576883 0.000986589 1.76662e-21)
(0.000725185 0.00122177 -8.50266e-22)
(8.01027e-05 -1.41801e-05 0)
(0.000588951 0.00100023 -4.04768e-21)
(0.000104433 6.05971e-05 1.74444e-21)
(0.00060864 0.0011619 -4.64509e-21)
(0.00054619 0.00097745 1.0924e-21)
(0.000542262 0.000346643 2.46321e-21)
(0.00102922 -1.15543e-05 -3.19041e-21)
(0.00062505 0.00102436 -8.71724e-22)
(0.00108629 -2.01055e-05 9.02598e-22)
(0.000724039 0.00122597 7.80154e-22)
(0.000431767 0.000916196 1.7701e-21)
(4.77703e-05 0.000413974 2.89224e-21)
(0.000659797 0.00115231 -5.64338e-22)
(0.00111095 0.000652995 -1.46738e-21)
(0.000237409 0.000653817 1.20216e-21)
(0.000650647 0.000563936 2.82988e-21)
(0.000627846 0.00110492 0)
(0.000516863 0.000969445 -4.02051e-22)
(0.000754288 0.00124619 -2.78602e-23)
(0.000660291 0.0011418 3.93212e-22)
(0.00087207 0.000975225 4.85415e-21)
(0.000223038 0.000502438 0)
(0.000610017 0.00101529 0)
(0.000954654 5.19501e-06 -2.34428e-21)
(0.000247473 0.000134943 -2.84807e-21)
(0.000483135 0.000601039 -1.38092e-21)
(4.49472e-05 4.07558e-05 -8.53293e-23)
(4.06847e-05 0.000695852 2.60112e-21)
(0.000346322 0.000275129 2.29147e-21)
(4.49321e-05 -4.8387e-06 0)
(0.0001279 0.000511019 2.10377e-21)
(0.000117226 7.66545e-05 3.28384e-21)
(0.00036468 0.000945533 -1.92302e-23)
(0.00063289 0.00106725 -5.74805e-23)
(8.16941e-05 0.000449754 8.92932e-22)
(1.4188e-05 -1.51161e-06 -7.24524e-22)
(0.000372967 7.87955e-06 0)
(0.00057495 0.000950058 -4.89482e-22)
(0.000662282 0.00110327 -3.67973e-22)
(0.000572855 0.00100977 5.60292e-24)
(2.50189e-05 1.03414e-07 0)
(4.73133e-05 9.9786e-05 -1.31772e-21)
(0.000262384 0.000538823 3.97444e-21)
(0.00107788 0.000585375 -2.9333e-24)
(0.000540623 0.000736396 -3.32336e-21)
(0.000193374 0.000469753 0)
(0.000729429 0.00127108 3.87293e-22)
(0.000771526 0.000422116 0)
(0.000730375 0.00121791 0)
(0.000333485 0.00105177 5.15668e-23)
(0.000577934 0.00104681 -1.29446e-21)
(0.000960852 0.00013951 3.92011e-21)
(0.000530913 0.000927008 1.46605e-21)
(0.000166891 0.000258576 -3.37651e-22)
(0.000581349 0.000990325 -1.59401e-21)
(0.000565668 0.000969125 3.93302e-22)
(0.000451747 0.000990521 1.96118e-21)
(5.64777e-07 -1.91999e-06 -3.99195e-22)
(0.000626556 0.000237104 -9.6379e-22)
(0.000105747 0.000528959 6.55538e-22)
(6.93937e-05 -0.000195738 0)
(0.000539473 0.00108371 3.07957e-22)
(0.000108479 8.45474e-05 -4.10193e-21)
(0.000553591 0.000977232 2.57058e-22)
(4.28182e-05 8.89476e-05 -1.00179e-22)
(0.000617779 0.00113133 1.9947e-23)
(0.000808937 0.00127245 1.39971e-21)
(0.000299604 0.000600272 -1.94682e-21)
(0.000592602 0.00104357 1.6987e-23)
(0.000332588 0.000401893 4.23432e-21)
(-3.89454e-06 0.000448229 -9.17339e-22)
(0.00054981 0.000967493 -4.4757e-22)
(0.000106425 0.000100916 -1.9922e-21)
(0.000345359 5.2276e-05 -1.99617e-21)
(0.000528838 0.001021 2.3629e-22)
(0.000539214 0.000869863 -3.7869e-21)
(0.000118171 0.000600798 0)
(0.000631363 0.00115592 5.90291e-22)
(0.000727489 0.0012227 0)
(0.000500238 0.000994616 9.31738e-23)
(5.07331e-05 4.55844e-05 0)
(0.000588315 0.000977433 0)
(9.46253e-05 3.38154e-05 0)
(0.000628666 0.000264607 0)
(0.000432326 0.000556795 3.50862e-23)
(0.000587936 0.00100404 0)
(0.000530608 0.000990796 0)
(7.86224e-05 0.000102025 3.32528e-21)
(0.000451282 -0.000259882 3.96164e-21)
(3.95762e-05 7.97865e-05 -1.5794e-21)
(0.000736147 0.00126439 -5.49235e-22)
(2.34927e-06 8.12844e-06 0)
(0.000924476 0.000126186 -3.68444e-21)
(0.000549393 0.00101818 0)
(0.000695975 0.000359013 2.35754e-21)
(0.000526585 0.00095165 0)
(0.000649062 0.0011429 1.93903e-21)
(0.000605648 0.000965598 2.10446e-21)
(0.000347645 0.000512937 -5.27384e-21)
(0.000754422 0.00121903 -3.10281e-21)
(0.000601344 0.0010959 -1.46575e-22)
(-0.000410529 0.000523811 -5.89494e-21)
(0.000606272 0.00104499 -1.20451e-21)
(0.00064783 0.00111729 2.71269e-21)
(0.000649445 0.00110744 -1.95712e-21)
(8.09725e-05 -0.000214976 7.13306e-22)
(0.000785343 0.000419261 -2.81672e-22)
(0.000577293 0.000986137 0)
(3.82749e-05 7.10437e-05 1.8508e-22)
(0.0002997 0.00029018 -6.51212e-21)
(0.000105013 0.000107044 3.12071e-24)
(0.000726487 0.00121581 8.16354e-22)
(0.000571394 0.00104017 0)
(0.000719919 -0.000251322 -1.9928e-21)
(0.00050916 0.000614933 1.30036e-21)
(0.000651326 0.00110682 3.98329e-21)
(0.00048846 0.00160358 -2.51172e-23)
(0.000604025 0.000152965 1.78284e-21)
(0.000639504 0.00110462 -2.74432e-21)
(0.000568606 0.00106115 -7.38205e-23)
(0.000541155 0.000946974 -1.64784e-22)
(0.000585464 0.000981408 1.75093e-21)
(3.32952e-05 6.36035e-05 -1.86274e-22)
(0.000634431 0.00112065 -9.15318e-24)
(0.000835066 0.000315208 1.82894e-21)
(0.000543439 0.00101561 4.91507e-22)
(0.00065205 0.001105 0)
(0.000937317 8.38715e-05 -8.79332e-22)
(0.00015255 0.000428705 3.9168e-22)
(0.000843671 0.000569294 2.79381e-21)
(0.00015711 0.000246502 -1.33963e-21)
(4.32693e-05 0.00039668 -1.61853e-21)
(0.000885583 8.47583e-05 1.35162e-22)
(0.0009671 0.00017089 9.99857e-22)
(0.000651566 0.00110353 1.4506e-23)
(0.000649416 0.00110691 0)
(-3.01673e-06 0.000809447 8.4592e-22)
(8.38183e-06 2.90135e-06 1.72805e-21)
(0.000660335 0.00120048 0)
(0.000589906 0.00100188 0)
(0.000990913 3.39702e-05 -1.92219e-21)
(7.54163e-05 2.05785e-05 -5.49099e-21)
(0.000189297 0.000235963 7.45128e-22)
(3.03315e-05 5.67088e-05 -4.93935e-23)
(0.000649192 0.00110329 -2.22106e-24)
(0.000590216 0.000946146 5.44311e-22)
(0.00059898 0.00101621 0)
(0.000624211 0.000893308 9.72525e-22)
(0.000491471 0.000968053 -4.93446e-22)
(0.000493283 0.00100527 8.41709e-23)
(0.000546 0.000482233 -3.94555e-21)
(0.000665417 0.00110201 1.17116e-23)
(2.21696e-05 -1.48098e-06 -3.30256e-21)
(0.000653078 0.00110395 -3.2735e-21)
(0.000535183 0.000914473 -1.42834e-25)
(0.000577502 0.00100944 -2.11831e-22)
(0.000609767 0.00106617 1.90729e-21)
(0.000311009 0.000458733 -2.98745e-21)
(2.16082e-06 1.55443e-05 -1.09479e-22)
(0.000652225 0.00110546 1.16013e-21)
(0.000616454 0.000990496 1.62125e-21)
(2.77854e-05 5.04907e-05 7.99383e-22)
(0.000623893 0.00111544 -1.84832e-21)
(0.000601998 0.00103628 6.80201e-24)
(0.000920364 8.15127e-05 5.62102e-21)
(0.000650053 0.00110675 1.20993e-21)
(0.000573662 0.000977996 1.20688e-21)
(0.000519948 0.000979783 1.3593e-21)
(0.00136884 0.000384189 0)
(0.000521027 0.000962863 2.21892e-21)
(0.00219288 0.000490987 0)
(0.000832359 0.000709036 -2.4869e-21)
(0.00059116 0.00100855 5.81002e-22)
(0.000172584 0.000506037 -8.86934e-21)
(0.00134915 0.00132937 1.46205e-21)
(0.000459842 0.000828939 -4.72425e-21)
(0.000204817 0.00015586 4.00978e-21)
(0.000531097 7.21216e-05 0)
(0.000262089 0.000691407 7.56166e-24)
(4.28157e-05 0.000368437 0)
(0.000724909 0.00121479 -1.69728e-21)
(1.56525e-06 -1.47449e-05 1.62276e-21)
(2.54888e-05 4.59811e-05 3.94115e-22)
(0.000561619 0.00101555 3.3597e-22)
(0.000682331 0.0013107 1.33586e-22)
(0.000541226 0.000863522 -1.88369e-21)
(0.000573397 0.000981894 1.35065e-21)
(0.00101196 -0.000131047 -4.5722e-22)
(0.000747409 0.00121973 0)
(0.000675099 0.00087189 3.2842e-21)
(0.00103507 7.90592e-05 1.34502e-21)
(1.67142e-06 -9.32788e-06 -9.48592e-22)
(4.90109e-05 -5.03598e-06 -3.27907e-21)
(0.0005302 0.000975978 0)
(0.000638534 0.00115485 1.14871e-21)
(0.000629273 0.00118992 -8.41906e-24)
(0.00031182 0.000222591 2.27119e-21)
(0.000130726 0.000659989 -4.80113e-22)
(2.40799e-05 3.85911e-05 0)
(0.000885943 0.000117163 -9.3056e-22)
(0.000584504 0.000302744 -2.71009e-21)
(0.000644014 0.0011028 -1.97569e-21)
(0.000659703 0.00110129 -1.05442e-21)
(0.000617545 0.00113141 1.87725e-21)
(0.000596164 0.00107803 -1.44404e-23)
(0.000587631 0.000977232 -4.33748e-22)
(0.000760844 0.00125605 2.41159e-21)
(0.000625151 0.00103364 2.53203e-22)
(0.000522681 0.00092816 0)
(0.000677073 0.00113351 0)
(0.000604736 0.00113334 0)
(0.000263975 0.00037743 0)
(0.000544103 0.000985369 -7.65815e-22)
(0.000755926 0.000130711 -1.46428e-24)
(0.000176546 0.000530519 3.85307e-21)
(0.000481283 0.00018356 9.17681e-25)
(0.000268774 0.000518162 1.14886e-21)
(0.000454183 0.000901064 1.13484e-24)
(0.000565413 -2.47398e-05 5.33828e-21)
(0.000639092 0.00115187 -3.26185e-22)
(0.000573158 0.00104246 1.29932e-21)
(0.00054522 0.000473599 2.69134e-21)
(0.000600716 0.00104205 0)
(0.00019126 0.000582155 0)
(0.000726161 0.00122291 -1.4917e-21)
(0.000408037 0.000476947 -3.83164e-21)
(0.00105357 -0.000117578 -4.42378e-22)
(0.000450731 -0.000396343 -3.07007e-24)
(0.000620238 0.00108045 0)
(2.35592e-05 1.95622e-06 -7.19686e-22)
(0.000128225 0.000500184 1.07192e-21)
(0.00057607 0.000986455 1.63292e-21)
(0.000759697 0.00125459 0)
(0.000263767 0.0012283 -4.96698e-23)
(0.000225529 0.000255827 1.06815e-21)
(0.000429439 0.00110148 -1.30955e-21)
(0.0010869 -3.72804e-06 9.0358e-22)
(0.000413967 0.000579428 0)
(0.000637668 0.00114997 3.37433e-22)
(0.000756793 0.00125322 0)
(0.00076423 0.00125543 2.32591e-21)
(0.000521034 0.000955307 2.41254e-21)
(0.000280238 0.000521882 1.89157e-21)
(0.000582159 7.39825e-06 6.60745e-21)
(0.000633879 0.00110241 2.40515e-21)
(1.41719e-06 -2.24002e-05 -1.28729e-23)
(0.000231938 0.000685693 0)
(0.000283708 0.000305675 2.04606e-21)
(0.000767637 0.00125466 -2.21258e-21)
(4.05594e-06 2.71041e-05 -3.46865e-21)
(0.000179258 0.000618537 -4.97109e-25)
(0.000722602 0.00121431 -2.6373e-21)
(0.000256749 0.0011831 0)
(0.000721775 0.00122368 -1.98497e-21)
(0.000582412 0.00100971 9.33166e-22)
(0.000572302 0.00103319 7.35383e-24)
(0.000551574 0.000970071 2.59525e-22)
(0.000552584 0.000398207 1.56148e-21)
(0.000410602 0.000840581 -1.52691e-21)
(0.000348695 0.000259281 -5.72016e-21)
(0.00062765 0.00111258 4.01453e-21)
(1.37008e-06 -2.68402e-05 -1.6251e-21)
(0.00055592 0.000969693 1.51295e-22)
(0.000747247 0.000573408 -3.87457e-21)
(0.000655557 0.00113322 -5.3452e-24)
(0.000580504 0.00100671 -4.24642e-22)
(0.000606053 0.00102077 5.74883e-22)
(1.49351e-06 -1.84299e-05 0)
(0.000761793 0.00123479 6.4769e-22)
(0.000502436 0.000973964 6.37235e-22)
(0.00102741 0.000141993 -3.84007e-21)
(0.000556434 0.000131233 -4.44342e-23)
(0.000652778 0.00115511 0)
(0.000215394 0.000913467 -2.71317e-23)
(0.000592443 0.00101366 9.77398e-22)
(0.000528986 0.000974171 0)
(0.000587688 0.00100229 1.9525e-21)
(0.000757618 0.00125107 -2.3998e-21)
(6.05613e-05 -3.69067e-07 -2.99215e-21)
(0.000143024 0.000386278 -2.62251e-21)
(0.000538802 0.00143331 3.22777e-23)
(1.0269e-05 4.26814e-05 -1.89932e-21)
(0.000365189 0.000223433 1.3607e-25)
(0.000741387 0.00127012 5.42524e-22)
(1.69699e-06 -1.12268e-05 1.3648e-21)
(0.000728151 0.00122395 0)
(0.000135335 0.000649706 0)
(1.5021e-06 -3.41084e-05 3.31791e-21)
(0.00107166 7.8336e-05 -4.15076e-22)
(0.000115423 0.000633008 2.62586e-23)
(0.000635609 0.00102342 -1.43869e-23)
(0.00038568 0.000138263 1.83025e-21)
(0.000766064 0.00081242 0)
(0.000629718 0.00114638 0)
(0.000573919 0.000977241 0)
(0.000655961 0.00113401 1.07673e-23)
(0.000449363 0.000745385 1.29435e-21)
(0.000756993 0.00124834 2.1654e-23)
(5.46423e-05 -3.105e-07 0)
(0.000633052 0.0011185 0)
(0.000744965 0.00121796 1.08651e-21)
(0.000514175 0.0012756 -1.03079e-22)
(0.000401356 0.000864441 -3.78862e-21)
(0.000569115 0.00101362 -4.79405e-22)
(1.78182e-06 -4.27946e-05 1.67528e-21)
(0.000521143 0.000973835 8.78962e-22)
(0.000554995 0.00103381 0)
(0.000813971 0.000146277 -3.08675e-21)
(0.000325526 0.000644094 3.35314e-21)
(0.000599454 0.00099075 -8.07815e-22)
(0.000580314 0.00100914 -2.44184e-22)
(7.85056e-05 7.01178e-05 -1.66297e-21)
(0.000399714 0.00014022 0)
(0.000385466 0.0010686 -3.29535e-21)
(-0.000164758 0.00111923 -4.79147e-21)
(0.000301399 0.000484919 3.04412e-21)
(0.000561797 0.00102843 1.76211e-21)
(0.000653211 0.00113449 -2.18619e-21)
(0.000520558 0.000950234 -5.10264e-22)
(1.90037e-06 -5.31054e-05 -3.33622e-21)
(2.72442e-05 0.000375081 0)
(0.000635458 0.00117231 0)
(0.000539746 0.00086016 -1.91341e-23)
(6.45377e-05 5.28813e-05 -6.65068e-23)
(0.000722083 0.00121404 -9.11204e-22)
(0.000628043 0.00111343 -2.70359e-21)
(0.0002218 0.000500067 0)
(1.78836e-05 0.000335324 0)
(2.1981e-06 -6.13237e-05 1.32139e-23)
(0.000859931 0.00136502 -2.58423e-21)
(7.46546e-05 6.76196e-05 0)
(0.000184959 9.68449e-05 7.96219e-22)
(0.000991702 9.07471e-05 0)
(0.000158522 0.000277702 -4.31714e-21)
(0.000606936 0.0010165 -1.08022e-21)
(0.000726507 0.00122304 -5.24302e-22)
(7.32981e-05 6.58984e-05 0)
(0.000605833 0.00102373 -1.24337e-21)
(0.000263064 0.000416052 0)
(0.000172967 0.000591641 1.94388e-21)
(2.57919e-06 -7.05789e-05 1.69052e-21)
(0.000498016 0.00089299 2.76108e-21)
(0.000704754 0.00126965 2.46519e-21)
(0.000331566 4.7167e-05 -2.11232e-25)
(0.000398164 -0.0005395 0)
(0.000649841 0.00110881 0)
(0.000668032 0.0011385 1.25317e-21)
(0.000112107 0.000389681 0)
(0.000591691 0.00100652 -1.22812e-21)
(9.03848e-05 0.000388945 1.80849e-21)
(0.000597762 0.00116921 -2.32509e-22)
(0.000722473 0.00121942 -6.8045e-22)
(0.000633468 0.00113003 -1.48048e-22)
(0.000559242 0.000972225 -1.25063e-21)
(0.000571631 0.00103504 4.05966e-21)
(0.000591586 0.000663142 2.79306e-21)
(3.17236e-06 -8.72264e-05 0)
(0.000732661 0.0012587 -3.62866e-21)
(0.00054467 0.000598583 2.77074e-21)
(0.000518422 0.000984991 -8.17705e-22)
(9.91579e-05 0.000414635 1.22241e-22)
(0.000586834 0.00097698 -1.70462e-21)
(0.000372442 0.000326326 0)
(0.00058656 0.0010829 2.33331e-22)
(0.000682798 0.00108653 -1.55032e-22)
(7.52546e-05 5.39638e-05 -1.02621e-21)
(0.000513769 0.000946614 -1.06009e-21)
(0.000553299 0.000967825 2.32924e-21)
(0.000617599 0.00113105 1.86951e-21)
(0.000385063 0.000433071 0)
(0.000641972 0.00115617 2.5702e-21)
(2.37251e-05 -2.31393e-06 -1.10954e-22)
(0.000662642 0.00110109 0)
(0.000218361 0.0002676 -1.00604e-25)
(0.00071491 0.00128504 0)
(0.000742784 0.00125012 1.79315e-21)
(0.000623457 0.00106109 1.11601e-21)
(0.00024432 0.000416175 -3.5971e-21)
(0.000575287 0.000987081 -9.38275e-24)
(3.27099e-05 -0.000158871 -1.68719e-21)
(0.000550497 0.000512463 1.64667e-21)
(0.00051225 0.000890803 1.46624e-23)
(0.000144198 0.000392963 1.82524e-21)
(0.000634585 0.00102427 4.54626e-22)
(0.000268685 0.000387554 -3.76994e-21)
(2.27229e-05 -0.000117122 3.33801e-21)
(0.00144482 6.39682e-05 5.54227e-22)
(0.000719502 0.00128043 -1.24147e-23)
(2.71374e-05 -0.000136048 0)
(0.000350883 0.000475934 -1.94663e-21)
(0.000982298 0.0004241 2.64753e-22)
(0.000573257 0.000876538 -2.80974e-21)
(0.00120762 0.000371772 -1.1124e-21)
(0.000472669 0.00112202 1.72032e-21)
(0.000600549 0.00107847 -1.02319e-21)
(0.00057345 0.000983585 -3.48927e-23)
(0.00057249 0.000973325 -2.18642e-21)
(0.00113295 0.000346635 1.03653e-21)