/*--------------------------------*- C++ -*----------------------------------*\
  =========                 |
  \\      /  F ield         | OpenFOAM: The Open Source CFD Toolbox
   \\    /   O peration     | Website:  https://openfoam.org
    \\  /    A nd           | Version:  7
     \\/     M anipulation  |
\*---------------------------------------------------------------------------*/
FoamFile
{
    version     2.0;
    format      ascii;
    class       volScalarField;
    location    "17.5";
    object      p;
}
// * * * * * * * * * * * * * * * * * * * * * * * * * * * * * * * * * * * * * //

dimensions      [0 2 -2 0 0 0 0];

internalField   nonuniform List<scalar> 
591
(
0.000124221
0.000124235
0.000124259
0.000124221
0.000124222
0.000124342
0.000124276
0.000124258
0.000117109
0.000124249
0.000124397
0.000123101
0.000124324
0.000119988
0.00012426
0.000124281
0.000124153
0.000124289
0.000122209
0.00012363
0.000124221
-1.96181e-06
0.000124396
0.000124223
0.000124353
0.000124231
0.000124285
0.000124318
0.000124242
0.000124296
0.000124372
0.000124349
0.000124369
0.000124367
0.00012437
0.000123729
0.000124365
0.00012424
0.000124389
0.000124302
0.000124288
0.000124362
0.000124247
0.000124276
0.000124359
0.000124376
0.000119527
0.00012438
0.000124257
0.000124361
0.000124311
0.000124355
2.37179e-05
3.03138e-05
4.80245e-05
0.000124286
0.000124383
0.000124364
0.000124377
0.000124217
0.000124292
0.00012424
0.00012425
0.000124356
0.000122833
0.000124244
0.000124249
0.000124375
0.000120967
0.000124282
0.000124246
0.000124381
0.000124337
0.000124362
0.000124367
0.000124342
0.00012421
0.000124378
0.000124217
0.000124132
0.000124004
0.000124383
0.000124346
0.000124311
0.000124391
0.000124226
0.000124314
0.000124373
0.000124337
0.000124103
0.000124351
0.000124279
0.000124309
0.00012423
0.000124389
0.000124351
0.000123935
0.000123827
0.00012394
0.000124393
0.000124304
0.000124228
0.000124396
0.000124226
0.000124394
0.000124252
0.00012424
0.000124344
0.000124388
0.000124392
0.000124276
0.000124362
0.000124265
0.000124371
0.000124392
0.000124372
0.000124311
0.000124323
0.000123861
0.000124276
0.000124248
0.000124344
0.000124274
0.000124232
0.000124369
0.000120445
0.000124395
0.000124364
0.000124006
0.000124368
0.000124235
0.000123928
0.000124332
0.000124329
0.000124371
0.000124265
0.000122898
0.000124396
0.000124247
0.00012387
0.000123931
0.000124302
0.000124373
0.000124389
0.000124384
8.37234e-06
4.70449e-06
3.17595e-06
3.83849e-05
3.67621e-05
6.57684e-06
3.85031e-05
1.56785e-05
3.74949e-05
1.7694e-05
0.000124245
0.000124223
0.000124382
0.000124379
0.000124385
0.000124383
0.000124377
0.000124375
0.000124377
0.000124378
0.000124336
0.000124387
0.000124381
0.000124387
0.000124311
0.000123669
0.000124389
0.000122372
0.000124357
0.000124371
0.000124311
0.000124245
0.00012437
0.00012438
0.000124375
0.000123779
0.000122727
0.000123314
0.00012374
0.000124374
0.000124378
0.000124347
0.000124221
0.000124371
0.000123214
0.00012359
0.000124224
0.000124371
0.000124075
0.000124363
0.000124369
0.000124338
0.000124043
0.000124207
0.000124368
0.000124383
0.000124371
0.000124161
0.000124351
0.000124162
0.000124387
0.000124251
0.000124245
0.000124383
0.000124019
0.000124212
0.000124269
0.000123848
0.000124336
0.000123997
0.000124281
0.000124273
0.000124356
0.000123772
0.000124277
0.000124193
0.000124216
0.000124342
0.000124107
0.000124272
0.000124178
0.000124079
0.000124206
0.00012439
0.000124143
0.000124383
0.000124213
0.000124357
0.000124223
0.000124217
0.000124389
0.000124131
0.000124381
0.000124128
0.000124176
0.000124267
0.000124233
0.000124246
0.000124247
0.00012399
0.000124207
0.00012415
0.000124348
0.000124235
0.000124049
0.000124336
0.000123601
0.000124174
0.000123532
0.000123357
0.000124239
0.000124195
0.000124231
0.000124228
0.000124163
0.000124386
0.000124263
0.000124331
0.000124253
0.000124268
0.000124279
0.000124336
0.000123996
0.000124382
0.000124039
0.000123929
0.000124259
0.00012436
0.000123942
0.000124384
0.000124281
0.000124327
0.000124342
0.000124271
0.000124211
0.000123995
0.000124202
0.000124213
0.000124249
0.000124282
0.000124358
0.000124367
0.000124378
0.000124166
0.000124252
0.00012436
0.000124372
0.000124368
0.000124189
0.000124382
0.000124251
0.000124349
0.000124151
0.00012438
0.000124149
0.000124358
0.000124291
0.000124216
1.19639e-05
2.18173e-05
0.000124201
0.000124244
0.000124386
0.000124181
0.000124386
0.000124253
0.00012438
0.00012436
0.000124146
0.000124354
0.000124205
0.00012438
0.000124261
-7.05484e-08
0.000124049
0.00012436
0.000124358
0.000124106
0.000124198
0.000124222
0.000124353
0.000124171
0.000124375
0.000124277
0.000124255
0.000124351
0.000124223
0.00012414
0.000124163
0.000124272
4.75957e-05
0.000124368
0.000124351
0.000124231
0.000124375
0.0001243
0.000124256
0.000124226
0.00012424
0.000124362
0.000124332
0.000124177
0.000124246
0.000124182
0.000124376
0.000124188
0.000124216
0.000124262
0.000124341
1.97807e-05
2.69881e-05
3.39692e-05
1.01776e-05
0.000124224
3.27406e-05
2.58297e-05
0.000124372
1.88639e-05
1.69126e-05
3.81857e-05
8.35646e-06
4.01145e-05
6.53791e-06
4.11451e-05
4.69317e-06
4.30357e-05
2.84528e-06
3.65721e-05
2.28768e-05
2.91363e-05
1.49711e-05
0.000124081
0.000124382
0.000124281
0.000124301
0.00012116
0.000124404
0.000124377
0.000124348
0.000124203
0.000124383
0.000124374
0.000124366
0.000124363
0.000124146
0.00012423
0.000124357
0.000124361
0.000124207
0.000124105
0.00012407
0.000123677
0.000124147
0.000124393
0.00012437
0.00012425
0.000124393
0.000124104
0.000124232
0.000124057
0.000123158
0.000124364
0.000124374
0.000124389
0.000124095
0.000124239
0.000124064
0.000124255
0.000124218
2.57144e-05
2.17145e-05
3.2846e-05
1.19056e-05
0.000124399
0.000124112
1.96572e-05
2.79014e-05
3.54963e-05
1.01491e-05
0.000124206
0.00012432
0.000124204
0.00012419
0.000124329
0.000124318
0.000124107
0.000124361
0.000124281
0.000123376
0.000124198
0.000124167
5.94394e-05
0.000123509
0.000124387
0.000124242
0.00012414
0.000124376
0.000124378
0.000124231
0.000124009
0.000124261
0.000124305
0.000124082
0.000124332
0.000123207
0.000124201
0.00012418
0.000124325
0.000101002
0.000124168
0.000123773
0.000124172
0.00012439
0.000124068
1.12943e-05
2.08614e-05
3.53022e-05
2.79131e-05
1.37089e-05
1.12542e-06
4.22272e-05
3.78464e-06
4.03224e-05
5.716e-06
3.959e-05
7.57284e-06
3.88007e-05
9.4444e-06
3.74265e-05
1.37676e-05
3.14409e-05
3.02064e-05
2.38239e-05
2.49297e-05
1.75633e-05
1.31257e-05
1.55973e-05
0.000124381
0.000102581
0.000124225
0.000124172
0.000124386
0.000124283
0.000124391
0.000124126
0.000124342
0.000124357
0.000124351
0.000124452
0.000124125
0.00012431
0.000124089
0.000124321
0.000124199
0.000124386
0.000124229
0.000124067
0.000124066
0.000124322
0.000124355
0.000124395
0.000124383
0.000124387
0.000124354
0.000124391
0.000124041
0.00012425
0.000124387
0.000124191
0.000124384
0.000124246
0.000124233
0.000124109
0.000124354
0.000124354
0.000123693
0.000121649
0.000123424
0.000123956
0.000124242
0.00012407
0.000124333
0.000124389
0.000124342
0.000124279
0.000123847
0.000123843
0.000124387
0.000124357
0.000124283
0.000124318
0.000123879
5.84911e-05
4.02315e-05
0.000124327
0.000124344
0.000123731
0.000123023
0.00012424
0.000123903
0.000123656
0.000124313
0.000124096
0.000124364
0.000124263
0.000124311
0.000119234
5.4597e-05
0.000124284
8.13362e-05
2.14069e-06
2.89784e-07
0.000124246
0.000124226
0.000124356
0.00012439
0.000124376
0.000124388
0.000124377
0.000124234
-1.69542e-06
0.00012312
0.000124265
0.000124334
0.000122269
0.000124386
0.000124385
0.000122541
0.000124348
0.000124358
0.000121964
0.000124383
7.65109e-05
0.000124384
0.000123813
0.000124348
0.000122648
0.000123941
0.000123953
0.000124283
0.000124385
0.000124342
0.000124384
0.000124398
0.000124244
0.000116393
)
;

boundaryField
{
    back
    {
        type            empty;
    }
    ingreso
    {
        type            zeroGradient;
    }
    salida
    {
        type            fixedValue;
        value           uniform 0;
    }
    front
    {
        type            empty;
    }
    defaultFaces
    {
        type            zeroGradient;
    }
}


// ************************************************************************* //
