/*--------------------------------*- C++ -*----------------------------------*\
  =========                 |
  \\      /  F ield         | OpenFOAM: The Open Source CFD Toolbox
   \\    /   O peration     | Website:  https://openfoam.org
    \\  /    A nd           | Version:  8
     \\/     M anipulation  |
\*---------------------------------------------------------------------------*/
FoamFile
{
    version     2.0;
    format      ascii;
    class       volScalarField;
    location    "3.8";
    object      p;
}
// * * * * * * * * * * * * * * * * * * * * * * * * * * * * * * * * * * * * * //

dimensions      [0 2 -2 0 0 0 0];

internalField   nonuniform List<scalar> 
4320
(
3.44756e-06
8.92376e-07
3.33797e-06
1.34158e-05
1.34102e-05
2.40318e-06
1.27471e-06
7.1459e-06
1.16617e-05
1.21297e-06
2.83836e-06
7.68718e-06
2.70128e-06
5.28956e-06
1.24859e-05
3.8274e-06
8.41173e-06
1.36078e-05
2.97787e-06
3.54256e-06
3.2588e-06
6.07816e-06
1.31978e-05
3.07747e-06
8.42862e-06
8.83094e-06
8.15813e-06
9.00683e-06
3.20178e-06
1.34315e-05
1.0017e-05
7.58365e-06
5.03389e-06
7.25406e-06
1.59726e-06
1.13701e-06
3.11694e-06
7.88361e-07
1.31493e-05
4.18107e-06
4.63377e-06
9.8981e-06
1.33685e-05
9.13724e-06
1.30344e-05
9.51577e-06
7.90557e-08
5.38773e-06
1.28132e-05
4.25453e-06
2.81304e-06
3.22088e-06
1.34081e-05
1.2691e-05
1.13762e-05
7.20302e-06
1.32608e-06
7.11092e-06
6.83369e-09
1.3416e-05
3.40039e-06
1.8297e-06
2.10413e-06
3.96948e-06
1.33838e-05
2.94304e-06
1.33788e-05
2.50203e-06
5.90771e-06
6.66552e-07
6.75479e-06
8.26212e-06
9.01707e-06
1.02792e-05
4.53724e-06
6.51128e-06
1.01868e-06
1.28043e-05
1.34185e-05
1.33575e-05
2.46434e-06
6.15813e-06
9.1246e-06
8.16137e-06
1.34242e-05
1.53145e-06
1.34284e-05
4.29733e-06
1.3271e-05
7.46326e-06
1.32036e-05
2.33682e-06
1.2862e-05
1.34168e-05
3.669e-06
2.24986e-06
9.25243e-06
3.68538e-06
8.429e-06
1.27198e-05
1.34313e-05
4.82473e-06
2.19317e-06
5.35564e-06
3.30594e-07
9.3548e-06
9.8394e-06
1.34291e-05
1.30425e-05
8.0337e-06
1.36504e-05
3.48099e-06
1.00674e-05
3.7602e-06
9.11914e-06
1.38364e-06
1.28074e-05
1.25111e-05
1.34415e-05
4.65524e-07
1.00057e-05
8.85869e-06
1.33107e-06
1.27571e-05
4.77104e-06
4.49864e-06
2.66465e-06
4.97458e-06
9.13981e-06
7.34755e-06
1.01879e-05
6.52178e-06
3.59043e-06
5.5215e-06
1.31399e-05
1.34176e-05
3.04716e-06
1.34212e-05
4.99277e-06
1.34311e-05
2.19924e-06
2.12548e-06
1.48398e-07
8.91503e-08
1.31331e-05
1.01244e-05
5.62506e-06
1.3398e-05
5.00671e-06
2.21427e-07
4.11234e-06
5.14804e-07
1.28974e-05
1.27068e-05
2.12387e-06
1.61908e-06
1.31024e-05
1.27503e-05
1.34093e-05
1.96374e-06
1.34353e-05
8.84035e-06
7.11089e-07
1.18433e-06
9.42092e-06
1.72975e-06
8.55856e-06
1.28254e-05
1.08099e-05
1.0777e-05
5.13638e-06
2.29143e-06
1.31798e-06
8.02176e-07
1.3421e-05
1.29959e-05
1.31803e-05
1.01733e-05
1.01164e-05
2.47247e-06
1.31474e-05
1.04023e-05
1.31908e-05
1.34059e-05
1.26657e-05
1.24917e-05
1.34381e-05
5.27346e-07
3.47027e-06
1.31765e-05
1.37271e-06
6.34009e-06
1.32241e-05
1.59161e-06
1.34026e-05
9.65327e-06
8.94862e-06
1.14421e-06
2.25497e-06
4.39571e-06
1.31621e-05
3.79991e-06
8.28657e-06
5.77423e-06
1.08318e-05
9.24204e-06
1.36553e-06
1.34333e-05
1.06477e-05
1.33831e-05
5.37996e-06
1.34256e-05
1.30574e-05
1.34367e-05
1.34297e-05
1.34375e-05
1.3426e-05
1.34318e-05
1.32975e-05
1.29417e-05
1.34246e-05
2.40734e-06
1.34138e-05
1.10737e-05
8.96299e-06
1.32501e-05
1.27589e-05
1.22209e-05
1.31608e-05
1.36123e-05
1.02995e-05
1.2778e-05
8.27838e-06
5.51839e-06
9.94008e-06
1.33963e-05
9.8135e-06
4.43314e-06
1.8193e-06
5.76064e-06
1.29624e-05
1.26564e-05
1.13801e-05
3.39293e-06
2.69815e-06
1.3127e-07
1.32956e-05
1.33989e-05
5.23988e-06
4.29262e-06
8.86894e-06
6.4669e-07
7.35182e-06
8.33482e-06
8.20503e-06
2.87655e-06
1.34332e-05
1.09848e-06
8.91986e-06
7.09004e-07
2.51262e-06
1.26745e-05
5.80879e-06
5.59588e-06
1.33654e-05
4.67995e-06
1.34055e-05
1.14402e-06
1.24147e-05
1.34032e-05
5.96459e-06
1.34378e-05
2.25987e-06
8.82497e-06
1.32989e-05
9.08666e-06
1.33893e-05
6.43999e-06
1.34153e-05
1.34397e-05
1.34044e-05
1.02577e-05
8.54092e-06
1.33476e-05
6.47552e-06
9.46126e-06
9.27099e-06
1.34062e-05
8.07246e-06
1.26044e-05
8.22935e-06
6.47916e-06
1.34308e-05
1.58203e-06
1.30708e-05
1.25317e-06
8.99992e-06
1.06038e-06
1.0435e-05
1.02183e-05
1.34344e-05
6.65826e-06
4.6548e-06
1.60741e-06
5.47842e-06
1.26903e-05
6.63919e-06
1.0444e-06
4.57192e-06
2.11933e-06
3.50967e-06
8.08863e-06
1.26283e-05
1.31203e-05
6.24003e-06
1.28986e-06
1.34058e-05
7.82485e-06
1.27631e-05
3.55171e-06
9.78735e-06
1.34364e-05
1.33314e-05
1.34419e-05
9.80178e-06
1.34456e-05
1.01396e-05
1.29844e-05
1.26399e-05
9.77312e-07
5.69039e-06
4.15724e-06
6.33194e-06
1.34319e-05
1.28201e-05
1.04485e-05
1.25688e-05
1.34169e-05
8.94756e-06
1.33957e-05
8.65486e-06
1.04e-05
7.39725e-06
1.26471e-05
1.26563e-05
1.34464e-05
1.33372e-05
1.30671e-05
1.27606e-05
1.3414e-05
9.57281e-06
8.12081e-06
1.3422e-05
1.18575e-05
7.4873e-06
1.29336e-05
9.57713e-06
1.05757e-05
8.37398e-06
6.02565e-06
1.28566e-05
9.64253e-06
7.0854e-06
1.2448e-05
1.07006e-05
1.64439e-06
1.34286e-05
1.3384e-05
1.33191e-05
6.9727e-06
5.12307e-06
1.29412e-05
8.58025e-06
1.3078e-05
1.13225e-05
1.3358e-05
3.82915e-07
6.51731e-06
1.34174e-05
9.30582e-06
1.34283e-05
1.21281e-05
1.30371e-05
1.02549e-05
1.3177e-05
1.03504e-05
1.3436e-05
1.33978e-05
9.25899e-07
1.34295e-05
8.39291e-07
1.33077e-05
1.34195e-05
1.34164e-05
9.68354e-06
1.34242e-05
3.95354e-06
1.17972e-05
1.06314e-05
7.95724e-06
1.23207e-05
1.26976e-05
1.27983e-05
1.34201e-05
1.34327e-05
1.19584e-05
1.04584e-05
7.68269e-06
9.95296e-07
8.03006e-06
1.14112e-05
1.29469e-05
1.28015e-05
1.3392e-05
1.01253e-05
1.34139e-05
6.23409e-06
1.34441e-05
1.24967e-05
1.23403e-05
5.87274e-07
1.34043e-05
1.01771e-05
1.33771e-05
3.21212e-06
1.28764e-05
1.16703e-05
1.2781e-05
1.3429e-05
1.35206e-05
1.33107e-05
8.18713e-06
1.34158e-05
1.32751e-05
1.25472e-05
1.34236e-05
1.04855e-05
1.05417e-06
8.33087e-06
1.32055e-05
5.45765e-06
1.33759e-05
1.3135e-05
1.34305e-05
1.06328e-05
1.33882e-05
8.25801e-06
1.32232e-05
1.01952e-05
1.25339e-05
1.06524e-05
1.31189e-05
1.34204e-05
9.72391e-06
1.28459e-05
1.34368e-05
1.03282e-05
1.24458e-05
1.35214e-05
1.34321e-05
1.33754e-05
1.31541e-05
1.29085e-05
1.02212e-05
1.23406e-05
6.97632e-06
9.72778e-06
1.32172e-05
1.28884e-05
1.34361e-05
1.01099e-05
1.31676e-05
1.27397e-05
1.26466e-05
9.80313e-06
5.54451e-06
6.93795e-06
1.314e-05
1.18871e-05
1.34289e-05
8.86836e-06
1.34232e-05
8.47604e-06
1.34312e-05
1.33171e-05
1.29462e-05
1.02204e-05
1.04232e-05
1.35064e-05
9.69894e-06
1.26765e-05
1.34109e-05
9.92503e-06
1.31328e-05
1.3914e-05
1.31148e-05
9.22342e-06
1.3066e-05
1.3355e-05
1.29777e-05
1.26895e-05
1.15793e-05
8.1467e-06
1.29951e-05
1.25482e-05
7.81617e-06
6.61659e-06
9.94913e-06
6.79359e-06
1.33522e-05
7.72553e-06
1.30858e-05
1.65365e-06
1.15786e-05
2.98667e-06
2.94495e-06
9.49757e-07
9.84088e-07
1.1527e-05
1.31892e-05
8.80186e-06
1.34119e-05
8.87334e-06
1.34065e-05
1.27729e-05
1.32917e-05
1.28388e-05
1.17254e-05
7.85827e-07
1.28661e-05
1.32176e-05
1.2888e-05
1.34314e-05
1.02244e-05
1.32605e-05
1.00374e-05
1.34454e-05
1.72852e-06
1.33278e-05
9.85457e-06
1.34293e-05
9.66974e-06
1.23117e-05
1.34469e-05
1.31744e-05
1.51617e-06
1.0287e-05
1.30807e-05
1.33493e-05
1.31097e-05
1.31193e-05
1.34306e-05
1.29506e-05
1.33798e-05
1.19645e-06
1.25935e-05
9.92481e-06
7.2553e-06
1.32129e-05
1.33901e-05
9.31362e-06
2.32004e-06
1.34359e-05
1.31976e-05
9.87215e-06
7.77212e-06
1.22674e-05
1.32803e-05
1.33855e-05
9.94114e-06
1.30154e-05
1.34276e-05
1.32603e-05
1.32066e-05
1.33073e-05
9.95484e-06
1.3433e-05
1.33622e-05
1.33304e-05
1.32308e-05
1.00835e-05
1.33288e-05
1.31694e-05
1.0256e-05
1.34255e-05
1.30129e-05
1.29828e-05
9.80194e-06
1.34061e-05
1.30953e-05
9.877e-06
9.40076e-06
1.32904e-05
2.79854e-06
1.34227e-05
1.3248e-05
8.28861e-07
9.50931e-06
1.30761e-05
1.00998e-05
1.34411e-05
1.30727e-05
1.33963e-05
1.31661e-05
1.32718e-05
1.30469e-05
1.33513e-05
1.32776e-05
1.3437e-05
1.34046e-05
7.88439e-06
1.32182e-05
9.83039e-06
9.35568e-06
1.51745e-06
1.33518e-05
1.33922e-05
1.34312e-05
1.35838e-05
1.34249e-05
1.33723e-05
1.30954e-05
1.30567e-05
7.41525e-06
1.34263e-05
6.76701e-06
1.33603e-05
1.3453e-05
1.34317e-05
1.29097e-05
4.51808e-06
9.03891e-06
1.00963e-05
6.36846e-06
1.34381e-05
1.28969e-05
1.33348e-05
1.331e-05
1.34058e-05
1.34255e-05
1.10096e-05
1.30198e-05
9.74548e-06
6.86791e-07
1.34254e-06
1.34233e-05
1.33886e-05
3.16201e-06
9.70361e-06
1.32415e-05
1.39666e-06
1.23361e-05
1.3431e-05
1.25289e-05
9.52171e-06
1.34093e-05
7.62189e-06
8.75502e-06
1.3499e-05
4.3796e-06
1.34218e-05
9.02367e-06
9.92966e-06
1.34226e-05
1.3429e-05
9.50117e-06
1.34919e-05
9.18149e-06
1.31553e-05
1.33971e-05
1.34187e-05
1.35146e-05
1.30589e-05
1.32869e-05
9.40853e-06
1.3423e-05
1.33021e-05
1.34358e-05
8.83935e-06
1.33318e-05
1.25126e-05
9.75228e-06
9.63688e-06
1.33673e-05
1.32516e-05
1.34016e-05
1.33816e-05
1.33154e-05
1.34106e-05
1.34336e-05
9.61346e-06
1.33182e-05
1.33572e-05
9.714e-06
1.26303e-05
1.3436e-05
1.34073e-05
1.34222e-05
1.34221e-05
1.31255e-05
9.82436e-06
1.35157e-05
1.33874e-05
1.3394e-05
1.34111e-05
1.33972e-05
1.34084e-05
1.28687e-05
1.34251e-05
1.25716e-05
1.36728e-05
4.57045e-06
1.3401e-05
1.215e-05
9.43002e-06
1.33968e-05
9.93106e-06
1.34042e-05
1.33633e-05
1.33893e-05
9.56958e-06
1.32246e-05
8.8793e-06
1.34159e-05
7.48869e-06
1.35181e-05
1.32987e-05
8.13649e-06
1.34166e-05
1.33275e-05
1.34247e-05
1.33947e-05
1.33972e-05
1.35383e-05
1.34217e-05
9.41062e-06
1.34088e-05
1.33606e-05
2.39121e-06
2.8924e-06
1.3561e-05
1.36047e-05
1.30758e-05
9.04951e-06
1.3422e-05
1.34299e-05
1.2721e-05
9.35966e-06
1.34252e-05
1.34099e-05
2.45486e-06
7.54042e-06
1.33443e-05
1.35019e-05
1.34019e-05
9.29501e-06
9.43121e-06
9.29717e-06
9.39244e-06
1.3143e-05
1.33263e-05
1.34213e-05
8.93464e-06
9.67469e-06
1.23921e-06
9.30455e-06
1.35662e-05
1.34189e-05
1.34206e-05
1.34041e-05
2.32502e-06
1.32017e-05
9.32376e-06
9.73846e-06
3.34749e-06
1.31575e-05
1.34425e-05
1.33905e-05
9.4058e-06
1.3422e-05
9.13201e-06
9.93934e-06
1.34419e-05
1.341e-05
1.35436e-05
1.34223e-05
1.33419e-05
1.33671e-05
1.18588e-05
1.34276e-05
9.03086e-06
9.37568e-06
1.35702e-05
1.35791e-05
9.53931e-06
1.34043e-05
9.15887e-06
9.62024e-06
9.12431e-06
1.34336e-05
1.34107e-05
1.34204e-05
1.34298e-05
1.46608e-06
1.33806e-05
1.33948e-05
1.34331e-05
8.81134e-06
1.3399e-05
1.30823e-05
1.35e-05
1.33949e-05
1.33823e-05
1.3328e-05
1.3405e-05
1.32539e-05
1.34291e-05
1.14144e-06
1.34004e-05
1.34171e-05
9.1923e-06
1.33914e-05
1.34181e-05
9.3765e-06
9.14105e-06
9.47145e-06
8.2509e-06
1.34218e-05
1.29964e-05
1.33138e-05
1.34282e-05
9.21709e-06
1.34258e-05
1.33646e-05
9.4683e-06
9.12132e-06
1.34211e-05
1.34293e-05
7.51316e-06
9.38105e-06
9.25876e-06
1.34174e-05
9.03891e-06
1.34243e-05
1.34263e-05
1.34333e-05
9.30763e-06
1.34244e-05
1.33661e-05
1.34109e-05
9.24015e-06
1.34268e-05
2.54631e-06
1.3409e-05
1.33035e-05
1.33951e-05
1.34189e-05
1.34274e-05
1.34235e-05
1.33817e-05
1.34205e-05
1.34226e-05
1.33603e-05
1.34274e-05
1.33647e-05
1.33537e-05
1.33747e-05
1.34265e-05
1.35034e-05
8.70924e-06
1.33821e-05
1.32776e-05
1.34204e-05
9.25929e-06
8.95825e-06
1.34114e-05
1.33786e-05
1.34187e-05
1.34099e-05
1.35294e-05
1.34309e-05
1.33351e-05
9.2406e-06
1.34224e-05
1.34176e-05
1.34152e-05
1.34106e-05
9.22625e-06
1.34197e-05
1.34224e-05
9.50157e-06
1.24386e-05
1.33452e-05
8.81439e-06
1.3422e-05
1.33812e-05
8.93083e-06
9.30454e-06
1.33931e-05
1.33818e-05
1.34148e-05
1.34284e-05
9.55036e-06
1.33469e-05
1.33887e-05
1.33932e-05
1.34013e-05
9.06046e-06
1.33958e-05
1.33938e-05
9.08962e-06
1.34341e-05
1.34183e-05
8.78251e-06
1.3361e-05
1.33953e-05
9.32564e-06
1.34087e-05
9.16232e-06
1.32852e-05
8.84633e-06
1.34304e-05
1.32376e-05
1.34328e-05
1.34382e-05
8.51536e-06
1.34003e-05
1.35407e-05
1.33969e-05
1.34328e-05
8.9449e-06
9.14624e-06
1.34031e-05
9.13654e-06
1.34293e-05
8.79341e-06
8.73073e-06
8.95163e-06
1.34383e-05
1.34278e-05
1.33495e-05
1.34048e-05
1.34114e-05
1.34037e-05
9.00266e-06
8.90134e-06
1.33701e-05
9.0909e-06
9.19358e-06
8.814e-06
8.66303e-06
1.34068e-05
1.33225e-05
9.41912e-06
1.35609e-05
1.33994e-05
1.34045e-05
1.34187e-05
8.89223e-06
1.34018e-05
1.33861e-05
9.25642e-06
1.34251e-05
7.89843e-06
1.34128e-05
1.34172e-05
2.68467e-06
1.33701e-05
1.33813e-05
1.34026e-05
1.34259e-05
1.34057e-05
8.61909e-06
8.8253e-06
1.33765e-05
9.12677e-06
1.34195e-05
1.34167e-05
1.34362e-05
1.33895e-05
1.29013e-05
8.33959e-06
1.33268e-05
1.33382e-05
9.01265e-06
8.71489e-06
8.81422e-06
1.27113e-05
1.33963e-05
1.34163e-05
8.71845e-06
8.72954e-06
1.34332e-05
8.61342e-06
8.52008e-06
8.43046e-06
1.34188e-05
1.34102e-05
1.34374e-05
8.88032e-06
7.96884e-06
5.86943e-06
1.34219e-05
1.33591e-05
1.34058e-05
8.47788e-06
1.33825e-05
8.51909e-06
1.34096e-05
3.90987e-06
4.00715e-06
1.34047e-05
8.40467e-06
8.45475e-06
1.34262e-05
8.54306e-06
8.43156e-06
8.31663e-06
8.16278e-06
1.34052e-05
8.28439e-06
1.36823e-05
8.39395e-06
8.62529e-06
1.33665e-05
1.34139e-05
8.28202e-06
8.25339e-06
8.38474e-06
8.49602e-06
8.30584e-06
9.64058e-06
8.38925e-06
8.46311e-06
8.21749e-06
8.37843e-06
1.339e-05
8.15258e-06
8.31252e-06
8.35531e-06
8.36918e-06
8.00555e-06
8.61341e-06
8.22882e-06
1.352e-05
1.33942e-05
1.36764e-05
9.22244e-06
8.05362e-06
7.98386e-06
8.45132e-06
9.47155e-06
7.90996e-06
8.20643e-06
8.02611e-06
8.13598e-06
8.08989e-06
8.27113e-06
8.21125e-06
8.29478e-06
8.28621e-06
7.30344e-06
8.51484e-06
8.07744e-06
8.19016e-06
7.8675e-06
3.25037e-06
7.95609e-06
1.30578e-05
7.42025e-06
7.73852e-06
1.34576e-05
7.70012e-06
7.93932e-06
1.36739e-05
7.86766e-06
8.29859e-06
9.00289e-06
7.61331e-06
8.00667e-06
8.1518e-06
7.50174e-06
8.04059e-06
7.92521e-06
7.82699e-06
8.15246e-06
7.78859e-06
7.43068e-06
7.11572e-06
7.22217e-06
1.34113e-05
7.58556e-06
6.97655e-06
7.65997e-06
7.85314e-06
8.16883e-06
7.56931e-06
7.75823e-06
7.51322e-06
5.76398e-06
7.02711e-06
7.23479e-06
8.00393e-06
7.56794e-06
8.12392e-06
6.48991e-06
7.52479e-06
7.13523e-06
7.53291e-06
8.41371e-06
7.3552e-06
3.78545e-06
7.46274e-06
6.79683e-06
7.38626e-06
7.35843e-06
7.55039e-06
7.70174e-06
6.92081e-06
7.20016e-06
6.66475e-06
7.40173e-06
6.47399e-06
7.47059e-06
6.78793e-06
7.37148e-06
7.11701e-06
6.37728e-06
6.91591e-06
7.36016e-06
7.25684e-06
6.87869e-06
7.21362e-06
7.22156e-06
7.06991e-06
7.25703e-06
7.45518e-06
7.30049e-06
7.28465e-06
6.97824e-06
7.21656e-06
7.6917e-06
7.24733e-06
7.16844e-06
7.65253e-06
7.11511e-06
6.88973e-06
7.4891e-06
7.26292e-06
7.0742e-06
7.19989e-06
7.05001e-06
6.97761e-06
7.80283e-06
6.87238e-06
7.33516e-06
6.89882e-06
6.96257e-06
7.9458e-06
7.06678e-06
7.00483e-06
7.02541e-06
7.2697e-06
7.08825e-06
6.92741e-06
6.80693e-06
6.83781e-06
6.64634e-06
6.87055e-06
7.01525e-06
7.02826e-06
7.09615e-06
7.41987e-06
6.68051e-06
6.63229e-06
7.37593e-06
6.79523e-06
6.69833e-06
6.37433e-06
6.75155e-06
6.57228e-06
7.12046e-06
6.35166e-06
6.72577e-06
6.9635e-06
7.46542e-06
6.78286e-06
6.87887e-06
7.1647e-06
6.49221e-06
6.55985e-06
6.61594e-06
6.75711e-06
6.34793e-06
6.38138e-06
6.47733e-06
7.44443e-06
6.37578e-06
6.42224e-06
6.50041e-06
6.45689e-06
6.62923e-06
6.28488e-06
5.94266e-06
6.23615e-06
6.50359e-06
6.22092e-06
6.27913e-06
6.28298e-06
6.37104e-06
6.9258e-06
6.39298e-06
6.53365e-06
5.74234e-06
6.52068e-06
6.25876e-06
6.14455e-06
6.10618e-06
6.48785e-06
6.34343e-06
1.6582e-06
1.73755e-06
6.34211e-06
5.93008e-06
6.20263e-06
6.26065e-06
6.09528e-06
6.60679e-06
6.1477e-06
6.17596e-06
5.52479e-06
6.04282e-06
6.14297e-06
5.93907e-06
5.98252e-06
6.51043e-06
6.36925e-06
6.20713e-06
5.99027e-06
6.35157e-06
5.05214e-06
6.16544e-06
5.34037e-06
6.13229e-06
5.79756e-06
5.88003e-06
6.37624e-06
5.7359e-06
6.78489e-06
5.23146e-06
6.09035e-06
5.86776e-06
5.92348e-06
5.80414e-06
5.99061e-06
6.00723e-06
5.86957e-06
5.34956e-06
5.17692e-06
5.7132e-06
5.7671e-06
5.97697e-06
5.28163e-06
5.48945e-06
5.58791e-06
5.77426e-06
5.47869e-06
5.64875e-06
5.73311e-06
5.57084e-06
5.42515e-06
5.84403e-06
5.63829e-06
5.61679e-06
5.67493e-06
5.76967e-06
5.4848e-06
6.6138e-06
6.06521e-06
5.78498e-06
5.48181e-06
5.51221e-06
6.05728e-06
5.48171e-06
5.53813e-06
5.49462e-06
5.66261e-06
4.89795e-06
5.47496e-06
5.68685e-06
5.40165e-06
5.40078e-06
5.13745e-06
5.43145e-06
5.04378e-06
5.26877e-06
5.83315e-06
4.95857e-06
5.59665e-06
5.26376e-06
5.03912e-06
5.31506e-06
5.40575e-06
5.56454e-06
5.34766e-06
5.14132e-06
5.28383e-06
5.24602e-06
5.47971e-06
5.24123e-06
5.28213e-06
5.42433e-06
5.16261e-06
5.15628e-06
5.12511e-06
4.94836e-06
6.04005e-06
4.55059e-06
5.32494e-06
4.30863e-06
4.10384e-06
5.56968e-06
5.63976e-06
5.2761e-06
3.32041e-06
5.16271e-06
4.1207e-06
4.26378e-06
4.5621e-06
4.65715e-06
5.0077e-06
2.97445e-06
4.74305e-06
5.19308e-06
4.88828e-06
3.74377e-06
4.4523e-06
4.73264e-06
4.9849e-06
5.01995e-06
3.18181e-06
5.82153e-06
3.04279e-06
5.18603e-06
5.04513e-06
5.04307e-06
2.85972e-06
6.07044e-06
4.32828e-06
4.00512e-06
4.90093e-06
4.92235e-06
5.04137e-06
4.84456e-06
3.4497e-06
3.45231e-06
4.53714e-06
4.25145e-06
4.7784e-06
4.86845e-06
3.56495e-06
4.6504e-06
5.03969e-06
4.90262e-06
3.88687e-06
4.89124e-06
4.78813e-06
3.30982e-06
4.72094e-06
4.85196e-06
5.35682e-06
5.12291e-06
5.01139e-06
4.29748e-06
4.89326e-06
4.75424e-06
4.74922e-06
4.41762e-06
4.79377e-06
3.80029e-06
4.72701e-06
4.7083e-06
4.37927e-06
4.50906e-06
4.69975e-06
3.86243e-06
4.90509e-06
4.6897e-06
4.67822e-06
4.58332e-06
4.94559e-06
4.53037e-06
4.7299e-06
4.60334e-06
4.63958e-06
4.96143e-06
4.5463e-06
4.82013e-06
4.53555e-06
4.67426e-06
4.41491e-06
4.4437e-06
4.44073e-06
4.59341e-06
4.88498e-06
5.02227e-06
4.12493e-06
4.62645e-06
4.41286e-06
4.75933e-06
4.324e-06
4.45851e-06
4.54274e-06
4.12228e-06
4.8679e-06
4.87252e-06
5.00501e-06
4.36981e-06
4.43336e-06
4.59165e-06
3.94921e-06
4.3129e-06
4.39567e-06
3.57448e-06
4.30145e-06
4.18049e-06
4.31387e-06
4.23607e-06
4.08088e-06
4.44866e-06
4.20419e-06
4.39909e-06
4.20959e-06
4.35719e-06
3.68373e-06
4.45026e-06
3.05486e-06
4.09951e-06
5.13757e-06
4.16605e-06
4.11079e-06
4.616e-06
3.51448e-06
4.25985e-06
3.95012e-06
4.01232e-06
4.15441e-06
4.00935e-06
4.02014e-06
3.92174e-06
4.00243e-06
3.99075e-06
4.05687e-06
4.16051e-06
3.86113e-06
4.30225e-06
4.52949e-06
3.77346e-06
3.71916e-06
3.14457e-06
3.19843e-06
3.84767e-06
4.14694e-06
5.72693e-06
3.91161e-06
3.70967e-06
3.80449e-06
3.33228e-06
3.9929e-06
4.00024e-06
3.48342e-06
3.68626e-06
3.79903e-06
3.94924e-06
4.21622e-06
3.56561e-06
4.18586e-06
3.69193e-06
3.65346e-06
4.9947e-06
3.43127e-06
3.61293e-06
2.86932e-06
3.43194e-06
3.65501e-06
3.8052e-06
3.57714e-06
3.67995e-06
3.54604e-06
3.28522e-06
3.58962e-06
3.60037e-06
2.94209e-06
3.47871e-06
3.484e-06
3.51495e-06
3.45175e-06
3.30375e-06
3.92106e-06
3.49624e-06
3.44431e-06
3.39985e-06
2.90667e-06
2.98528e-06
3.43016e-06
3.03617e-06
3.20372e-06
3.26992e-06
3.19302e-06
3.37623e-06
3.60987e-06
3.32839e-06
3.25512e-06
3.31739e-06
3.48589e-06
3.29485e-06
3.7233e-06
3.13318e-06
3.41861e-06
3.37305e-06
3.35721e-06
3.48617e-06
3.22035e-06
3.11221e-06
3.30768e-06
3.17959e-06
3.09359e-06
3.10863e-06
3.01597e-06
3.11193e-06
3.02531e-06
2.96737e-06
2.7032e-06
2.35624e-06
3.08256e-06
2.97561e-06
3.43574e-06
2.91262e-06
2.82988e-06
2.93422e-06
3.17481e-06
2.93535e-06
3.09283e-06
2.80831e-06
2.99228e-06
2.85564e-06
2.99397e-06
2.81128e-06
2.54309e-06
2.91706e-06
2.85627e-06
3.00103e-06
2.51811e-06
2.84299e-06
2.73458e-06
2.67145e-06
2.88446e-06
2.69641e-06
2.91628e-06
2.9622e-06
3.38025e-06
2.19376e-06
2.74444e-06
2.72761e-06
2.84905e-06
2.42663e-06
2.39061e-06
2.00776e-06
2.52822e-06
2.57126e-06
2.79297e-06
2.51634e-06
3.83619e-06
2.56368e-06
2.72361e-06
2.59481e-06
2.36917e-06
2.46802e-06
2.69771e-06
2.39461e-06
2.54211e-06
2.07286e-06
2.57791e-06
2.4674e-06
2.22437e-06
2.2911e-06
1.60367e-06
2.22464e-06
2.36045e-06
2.08958e-06
2.3377e-06
2.40119e-06
2.72287e-06
2.20257e-06
2.06098e-06
2.24176e-06
2.49884e-06
2.34811e-06
2.4387e-06
2.80387e-06
2.22329e-06
1.93308e-06
2.81505e-06
2.28896e-06
2.04274e-06
2.25868e-06
2.31035e-06
2.10663e-06
1.75622e-06
2.22894e-06
2.21755e-06
2.02548e-06
1.21568e-06
2.06651e-06
1.37146e-06
1.87941e-06
2.07699e-06
1.59956e-06
1.9183e-06
2.41002e-06
2.19754e-06
2.13055e-06
1.95469e-06
2.09325e-06
2.48325e-06
1.96752e-06
1.952e-06
8.91076e-06
5.77799e-06
1.93994e-06
1.79633e-06
4.84205e-06
2.06638e-06
1.77777e-06
1.83911e-06
5.84206e-06
8.0618e-06
1.82737e-06
9.96747e-06
7.97483e-06
1.32938e-06
1.72126e-06
9.39611e-06
1.82692e-06
1.46492e-06
1.48534e-06
1.78224e-06
1.37224e-06
8.04082e-06
1.69534e-06
1.65022e-06
1.71514e-06
5.97491e-06
1.62747e-06
7.01591e-06
2.66701e-06
6.54263e-06
7.98202e-06
9.46835e-07
1.00754e-05
2.52353e-06
1.6059e-06
9.50697e-06
7.63709e-06
1.1755e-06
6.59202e-06
4.06204e-06
1.40989e-06
1.16124e-06
1.77746e-06
1.98991e-06
1.58425e-06
1.03096e-05
8.65302e-06
2.35922e-06
7.81059e-06
6.52492e-06
6.70719e-07
9.98682e-07
9.0665e-06
1.70186e-06
6.39003e-06
1.93445e-06
6.25001e-06
1.07195e-06
1.83076e-06
4.98656e-06
6.11371e-06
1.69412e-06
4.85353e-06
1.49468e-06
2.41864e-06
6.66296e-06
1.09782e-06
1.21759e-06
1.91807e-06
7.34859e-07
5.00961e-06
1.92657e-06
8.28678e-06
1.04054e-05
8.95872e-07
7.14029e-07
6.03365e-06
9.42583e-06
2.02962e-06
1.69989e-06
1.28736e-06
8.78026e-06
1.01678e-05
6.98936e-06
9.42476e-06
8.81306e-06
8.07404e-06
2.29975e-06
1.33205e-06
2.33054e-06
1.28146e-06
9.53645e-06
9.05223e-06
8.99527e-06
7.47878e-06
8.16338e-06
2.85086e-06
8.14693e-06
1.37061e-06
3.81396e-06
4.69841e-06
8.63543e-06
1.32886e-06
1.28967e-06
2.1015e-06
1.63466e-06
4.69153e-06
1.21216e-06
1.69673e-06
1.42086e-06
6.83255e-06
2.65427e-06
1.44262e-06
2.55229e-06
1.70179e-06
1.92345e-06
1.51764e-06
2.47814e-06
1.93982e-06
1.9169e-06
1.76696e-06
1.57437e-06
1.76229e-06
1.50485e-06
6.6756e-06
6.52802e-06
1.84642e-06
1.79875e-06
1.78075e-06
3.25956e-06
2.83117e-06
1.86164e-06
2.0793e-06
2.1498e-06
2.19034e-06
2.57721e-06
4.22117e-06
2.99218e-06
3.35577e-06
2.64608e-06
2.56663e-06
2.72376e-06
2.77842e-06
2.57736e-06
3.11034e-06
2.99617e-06
2.92633e-06
2.63296e-06
2.97507e-06
3.05184e-06
2.84653e-06
3.7354e-06
2.79059e-06
3.19078e-06
3.87572e-06
3.23854e-06
4.15561e-06
4.07068e-06
3.13775e-06
3.23704e-06
3.65544e-06
3.91616e-06
3.56626e-06
3.89986e-06
3.10023e-06
3.96125e-06
3.77834e-06
4.00791e-06
3.83919e-06
4.73141e-06
5.44817e-06
4.55385e-06
4.48292e-06
4.75579e-06
5.16975e-06
5.28551e-06
5.85809e-06
4.762e-06
5.17359e-06
4.68248e-06
5.31066e-06
5.10158e-06
4.81949e-06
5.19962e-06
5.34834e-06
5.58486e-06
5.59196e-06
5.17511e-06
5.3361e-06
5.73682e-06
5.952e-06
5.24403e-06
5.88343e-06
5.21038e-06
5.10153e-06
6.03925e-06
5.84708e-06
5.16131e-06
5.75942e-06
5.70669e-06
5.7926e-06
5.37463e-06
5.432e-06
5.41473e-06
5.39364e-06
6.37186e-06
6.05721e-06
6.43979e-06
6.1816e-06
4.85889e-06
4.86008e-06
6.08626e-06
6.29736e-06
6.08168e-06
6.7118e-06
6.21139e-06
5.95508e-06
6.66609e-06
6.64357e-06
6.896e-06
6.6709e-06
6.26104e-06
6.64122e-06
6.58187e-06
6.53016e-06
7.13299e-06
6.57256e-06
6.28819e-06
6.64531e-06
6.53286e-06
6.65006e-06
7.622e-06
6.50357e-06
7.63804e-06
7.12276e-06
7.97947e-06
8.10831e-06
6.39553e-06
7.25994e-06
7.15504e-06
7.29699e-06
6.42453e-06
6.64294e-06
6.91054e-06
7.35288e-06
1.37747e-05
8.10156e-06
7.44034e-06
1.33776e-05
6.55279e-06
6.2771e-06
1.37925e-05
7.43035e-06
7.81081e-06
6.7732e-06
1.34746e-05
7.45196e-06
1.37038e-05
7.54872e-06
6.16771e-06
1.34615e-05
7.53225e-06
7.51503e-06
7.04927e-06
1.37072e-05
6.77229e-06
1.98185e-06
7.29275e-06
7.34184e-06
7.31399e-06
7.30118e-06
1.84971e-06
2.01848e-06
7.0591e-06
7.71681e-06
7.77656e-06
8.58099e-06
8.08187e-06
7.67011e-06
2.15065e-06
8.69453e-06
1.34272e-05
8.05698e-06
8.2351e-06
8.3089e-06
8.33189e-06
1.33819e-05
1.31589e-05
1.9328e-06
7.88128e-06
1.34967e-05
7.57044e-06
9.19526e-06
7.79301e-06
9.06561e-06
1.3553e-05
1.34432e-05
1.26625e-05
1.34191e-05
1.64753e-06
1.90514e-06
1.35575e-05
9.12587e-06
1.34186e-05
8.70813e-06
8.88086e-06
8.53211e-06
1.79036e-06
1.48239e-06
1.33643e-05
1.34058e-05
9.01485e-06
1.34308e-05
1.33973e-05
1.3318e-06
8.4638e-06
9.11981e-06
1.34139e-05
1.34181e-05
1.33725e-05
9.84132e-06
1.35519e-05
9.19299e-06
1.34238e-05
1.30359e-05
1.34175e-05
8.62111e-06
1.35703e-05
1.50314e-06
1.35145e-05
1.35378e-05
1.34215e-05
1.34302e-05
9.02535e-06
1.34016e-05
1.33856e-05
1.34397e-05
1.35585e-05
1.35147e-05
9.09298e-06
1.33924e-05
1.34272e-05
1.3489e-05
1.34209e-05
1.33852e-05
1.3425e-05
8.90293e-06
9.31991e-06
1.35394e-05
1.34348e-05
9.67592e-06
1.34048e-05
8.98861e-06
9.96222e-06
1.34039e-05
1.34356e-05
1.35247e-05
1.35208e-05
1.34086e-05
1.33909e-05
9.21665e-06
2.20851e-06
8.84874e-06
1.33486e-05
1.35042e-05
1.33885e-05
1.33981e-05
1.34024e-05
1.33265e-05
9.83145e-07
1.34297e-05
5.82698e-06
1.3453e-05
1.34936e-05
9.3162e-06
1.33983e-05
1.35353e-05
8.77061e-06
1.35105e-05
1.34305e-05
1.34343e-05
1.30675e-05
1.33964e-05
1.34012e-05
1.26264e-05
1.35461e-05
1.33938e-05
1.34268e-05
1.33908e-05
1.34041e-05
1.33965e-05
1.34101e-05
1.33924e-05
1.34089e-05
1.33992e-05
1.49995e-06
1.34127e-05
1.35717e-05
1.34313e-05
1.34002e-05
1.33753e-05
1.3515e-05
1.33915e-05
1.34316e-05
1.34925e-05
1.33935e-05
1.33566e-05
1.34016e-05
1.51809e-06
1.34697e-05
1.34304e-05
1.34241e-05
1.62596e-06
1.52364e-06
1.32276e-05
1.3395e-05
9.10677e-06
1.34518e-05
1.34501e-05
1.34291e-05
1.33429e-05
1.34135e-05
1.34288e-05
9.44794e-06
1.34303e-05
1.3476e-05
1.01978e-05
1.3421e-05
1.34007e-05
1.34276e-05
1.34825e-05
1.34375e-05
1.34365e-05
1.33706e-05
1.34292e-05
1.33969e-05
1.34146e-05
1.34041e-05
1.33836e-05
1.33647e-05
2.32395e-06
1.33944e-05
1.34353e-05
1.34034e-05
9.90083e-06
1.34181e-05
1.34243e-05
1.34021e-05
1.34668e-05
1.34031e-05
1.34226e-05
1.34635e-05
1.34065e-05
1.33283e-05
1.34572e-05
1.34364e-05
1.32585e-05
1.34063e-05
1.33927e-05
1.34265e-05
1.34095e-05
1.343e-05
9.59121e-06
1.34312e-05
1.34079e-05
1.34127e-05
1.34011e-05
1.35149e-05
1.34106e-05
9.71542e-06
1.342e-05
1.34346e-05
1.34037e-05
1.34043e-05
1.34259e-05
1.34119e-05
1.34153e-05
1.34089e-05
1.33905e-05
1.34307e-05
1.33141e-05
1.34677e-05
1.34249e-05
1.34078e-05
1.34172e-05
1.34237e-05
1.34104e-05
1.34115e-05
1.33983e-05
1.34221e-05
9.48892e-06
1.35678e-05
1.32679e-05
1.00733e-05
1.33961e-05
1.34329e-05
1.3184e-05
1.3428e-05
9.04933e-06
1.34141e-05
1.34102e-05
1.34127e-05
1.34149e-05
1.34391e-05
1.3425e-05
1.34234e-05
1.34271e-05
1.34292e-05
2.74238e-06
1.32545e-05
1.34318e-05
1.34189e-05
1.34266e-05
1.34054e-05
1.3405e-05
1.3419e-05
1.3465e-05
1.34285e-05
1.34277e-05
1.34241e-05
1.34195e-05
1.34273e-05
1.34204e-05
4.14959e-06
1.3367e-05
1.3425e-05
1.34279e-05
1.33852e-05
1.34046e-05
1.33859e-05
1.34199e-05
1.3424e-05
1.34501e-05
1.33491e-05
1.34144e-05
1.34183e-05
1.34183e-05
1.34311e-05
1.34468e-05
9.78226e-06
1.34257e-05
1.33948e-05
1.34183e-05
1.33867e-05
6.11572e-06
1.31916e-05
1.34013e-05
1.34254e-05
1.3425e-05
1.32188e-05
1.34086e-05
1.34161e-05
1.34426e-05
1.34139e-05
1.34016e-05
1.34228e-05
7.62204e-06
1.34141e-05
2.92129e-06
1.34454e-05
1.3408e-05
1.34111e-05
1.34037e-05
1.34065e-05
1.34156e-05
1.34097e-05
1.33921e-05
9.99551e-06
1.34054e-05
9.22016e-06
1.32269e-05
1.34211e-05
3.49918e-06
1.33809e-05
1.33165e-05
1.33334e-05
4.40159e-06
1.34184e-05
1.34168e-05
1.34004e-05
1.05513e-05
1.3412e-05
8.35658e-06
1.35005e-05
1.34248e-05
6.37357e-06
1.34087e-05
1.3497e-05
1.33628e-05
1.34361e-05
1.34266e-05
1.33293e-05
1.33822e-05
1.34995e-05
1.34165e-05
1.2789e-05
1.38082e-06
1.33958e-05
1.34118e-05
1.34157e-05
1.33704e-05
1.34225e-05
1.34272e-05
1.34171e-05
1.35146e-05
1.3027e-05
1.34372e-05
1.3424e-05
1.34046e-05
6.86569e-07
1.34128e-05
1.34052e-05
1.34205e-05
1.3319e-05
1.34993e-05
1.34348e-05
1.34191e-05
1.33741e-05
1.34244e-05
1.32874e-05
1.34229e-05
7.71487e-06
1.35261e-05
1.34248e-05
1.34819e-05
1.25057e-06
1.35124e-05
1.34204e-05
1.34258e-05
3.79793e-06
1.34071e-05
1.34853e-05
1.34109e-05
1.34135e-05
1.28882e-05
1.33835e-05
1.25401e-05
1.34358e-05
1.34152e-05
1.34193e-05
8.77037e-06
1.33831e-05
1.34416e-05
1.3425e-05
1.3408e-05
1.33691e-05
1.34083e-05
1.34045e-05
1.44518e-06
1.34918e-05
1.28132e-05
1.33432e-05
1.34228e-05
8.92906e-06
1.33497e-05
1.3429e-05
1.34097e-05
2.60163e-06
1.3246e-05
1.34406e-05
1.33719e-05
6.27247e-06
1.34012e-05
1.34265e-05
9.15195e-06
1.34183e-05
1.33541e-05
6.49788e-06
1.34962e-05
1.04015e-05
1.34239e-05
1.34239e-05
1.34419e-05
1.34687e-05
1.33834e-05
6.27334e-06
1.34657e-05
1.34003e-05
1.34215e-05
9.52449e-07
1.34214e-05
1.34236e-05
1.3487e-05
1.31938e-05
6.25841e-06
9.76766e-06
9.60868e-06
1.34285e-05
1.33901e-05
1.34092e-05
1.2309e-05
1.34406e-05
1.31492e-05
1.34344e-05
1.33581e-05
1.33869e-05
1.33788e-05
5.71647e-07
1.3476e-05
1.26149e-06
1.34251e-05
1.33729e-05
1.3194e-05
1.34168e-05
1.33308e-05
1.34387e-05
1.3336e-05
1.28306e-05
1.34077e-05
9.66452e-06
1.33418e-05
1.35031e-05
1.34228e-05
1.33289e-05
3.0493e-06
1.22535e-07
1.33824e-05
1.33586e-05
1.33348e-05
1.3365e-05
1.3421e-05
1.33869e-05
1.34664e-05
1.28754e-05
1.33663e-05
4.48015e-06
1.34335e-05
1.33723e-05
1.34215e-05
1.33068e-05
1.33667e-05
1.0486e-05
1.34595e-05
1.34003e-05
1.3447e-05
1.33977e-05
1.32142e-05
1.33548e-05
1.36795e-05
1.31292e-05
1.34314e-05
1.33882e-05
8.48474e-06
1.34172e-05
1.33456e-05
1.33364e-05
1.33697e-05
1.33579e-05
1.34058e-05
3.24365e-06
1.34305e-05
1.03092e-06
1.33432e-05
1.33521e-05
1.33279e-05
1.33718e-05
1.34192e-05
1.33667e-06
1.33553e-05
1.34114e-05
1.33523e-05
1.32757e-05
8.17109e-06
1.3407e-05
9.49705e-06
8.01229e-06
1.33994e-05
1.33087e-05
1.3443e-05
5.64908e-06
1.34376e-05
2.03987e-06
5.95081e-06
1.34321e-05
1.34504e-05
1.27137e-05
1.27304e-05
1.0489e-05
1.34065e-05
1.29943e-05
1.34032e-05
1.33422e-05
1.31766e-05
1.34113e-05
1.34365e-05
1.3294e-05
1.99094e-06
1.33769e-05
1.34018e-05
1.33742e-05
1.33495e-05
1.29289e-06
6.39005e-06
1.33985e-05
1.31349e-05
2.36979e-06
6.4097e-06
1.34602e-05
1.51093e-06
1.03203e-05
1.3311e-05
1.33773e-05
1.78715e-06
9.40361e-06
1.3365e-05
1.34292e-05
1.07872e-05
1.34262e-05
1.31582e-06
1.3421e-05
9.30661e-06
1.33889e-05
1.29962e-05
1.41489e-06
1.34033e-05
1.29696e-05
1.33701e-05
1.3401e-05
1.33778e-05
1.33192e-05
1.34276e-05
6.23936e-06
3.13919e-06
6.11183e-06
8.18909e-06
2.95924e-06
1.33013e-05
1.31843e-05
1.43165e-06
2.6798e-06
1.32014e-05
1.31683e-05
8.57814e-07
7.83328e-06
1.3396e-05
1.33595e-05
1.30696e-05