/*--------------------------------*- C++ -*----------------------------------*\
  =========                 |
  \\      /  F ield         | OpenFOAM: The Open Source CFD Toolbox
   \\    /   O peration     | Website:  https://openfoam.org
    \\  /    A nd           | Version:  8
     \\/     M anipulation  |
\*---------------------------------------------------------------------------*/
FoamFile
{
    version     2.0;
    format      ascii;
    class       volScalarField;
    location    "3.8";
    object      p;
}
// * * * * * * * * * * * * * * * * * * * * * * * * * * * * * * * * * * * * * //

dimensions      [0 2 -2 0 0 0 0];

internalField   nonuniform List<scalar> 
7843
(
2.36208e-06
7.04756e-06
7.53437e-06
9.50931e-06
1.74277e-06
9.49637e-06
8.94752e-06
1.37557e-06
9.20722e-06
2.17286e-06
5.42144e-06
2.29371e-06
9.21119e-06
5.6859e-06
4.24644e-06
5.18029e-06
5.32612e-06
4.32397e-06
9.22877e-06
9.0544e-06
9.19038e-06
9.01263e-06
5.51148e-06
8.3431e-06
4.41461e-06
9.18885e-06
3.41389e-07
9.04607e-06
9.67956e-07
9.41102e-06
9.22471e-06
2.85067e-06
9.25126e-06
1.54374e-06
5.09012e-06
4.86543e-06
3.95914e-06
9.06987e-06
9.36843e-06
7.72387e-06
4.15652e-06
6.04388e-06
1.80542e-06
6.94169e-06
9.20684e-06
8.96574e-06
5.59814e-06
8.78908e-06
7.53507e-06
9.21451e-06
9.2149e-06
6.83995e-06
3.21674e-06
8.95005e-06
1.98672e-06
9.22365e-06
8.90876e-06
9.22379e-06
8.22575e-07
9.1939e-06
1.61303e-06
8.93755e-06
8.84976e-06
9.25507e-06
4.95973e-07
5.15671e-06
5.14824e-06
9.22051e-06
8.96215e-06
1.51385e-06
9.20812e-06
3.00454e-06
7.90924e-06
9.1988e-06
9.21236e-06
4.8701e-06
1.89857e-06
1.70935e-06
2.51434e-06
9.65904e-06
9.24209e-06
7.2152e-07
5.77363e-06
9.13356e-06
2.17645e-06
2.32877e-06
9.07923e-06
1.0272e-06
9.13094e-06
8.96402e-06
9.19228e-06
6.34502e-06
9.21843e-06
9.22795e-06
9.09837e-06
2.75857e-06
9.21917e-06
2.97342e-07
9.20731e-06
4.97968e-06
3.75873e-07
3.39005e-07
9.03985e-06
6.29355e-07
9.17217e-06
8.20005e-06
9.21733e-06
9.19009e-06
8.20159e-06
6.54209e-06
9.34256e-07
8.85043e-06
8.9493e-06
2.59551e-06
9.11077e-06
7.9637e-06
9.13368e-06
1.43191e-06
9.16887e-06
6.63479e-06
1.83854e-06
1.46978e-06
5.85881e-06
1.56781e-06
9.22488e-06
8.84589e-06
6.11575e-06
8.47829e-06
8.23854e-06
9.49511e-06
6.44198e-06
9.04321e-06
9.17846e-06
1.87762e-06
7.77096e-06
3.85938e-06
9.42604e-06
8.72256e-06
4.05868e-06
1.12483e-06
9.21654e-06
8.40002e-06
9.16401e-06
9.19615e-06
9.21821e-06
9.26095e-06
5.9369e-06
7.88551e-06
8.58608e-06
8.53509e-06
2.31422e-06
8.92237e-06
9.20806e-06
6.91515e-06
5.43699e-06
5.30356e-06
9.14745e-06
9.03611e-06
7.30495e-06
3.32676e-06
9.20739e-06
5.50087e-06
8.74168e-06
5.69573e-06
6.98409e-06
1.27614e-06
9.14485e-06
1.56235e-07
3.13308e-06
5.89286e-06
1.07069e-06
6.68185e-06
6.09016e-06
9.0928e-06
6.3861e-06
9.20797e-06
8.33801e-07
9.20931e-06
5.6541e-06
2.20638e-06
2.094e-06
1.80059e-06
9.18831e-06
7.41814e-06
5.36282e-06
8.88204e-06
9.21618e-06
8.82234e-06
2.68995e-06
8.94963e-06
2.90699e-06
3.10332e-06
9.30671e-06
9.2182e-06
6.21014e-06
9.20575e-06
9.19306e-06
9.07095e-06
1.22099e-06
7.99111e-06
6.74014e-06
9.26681e-07
6.24886e-06
2.4299e-06
6.25595e-07
9.20763e-06
7.12069e-07
9.20613e-06
9.18736e-06
6.72913e-06
8.67476e-06
6.64107e-06
8.17432e-06
4.29413e-06
5.72842e-06
8.08741e-06
9.1736e-06
2.44491e-06
9.20721e-06
8.96785e-06
9.09721e-06
8.93577e-06
1.84698e-07
7.08809e-06
8.76402e-06
9.2364e-06
8.83553e-06
5.05546e-06
7.19483e-06
8.93116e-06
8.75999e-06
9.21637e-06
9.21366e-06
2.00211e-06
9.0103e-06
5.82611e-06
2.15884e-06
8.57517e-06
5.34028e-06
3.75227e-07
2.4088e-06
3.66404e-06
2.30938e-06
3.9992e-06
8.83552e-06
5.55694e-06
9.31732e-06
9.08946e-06
6.24707e-06
5.28325e-06
9.49725e-06
9.21207e-06
2.58711e-06
6.02171e-06
7.5866e-06
2.58705e-06
8.70658e-06
5.9236e-06
4.63587e-07
9.22856e-06
9.2604e-06
8.98367e-06
4.10058e-07
6.31553e-06
2.29267e-06
8.8737e-06
9.20888e-06
6.7814e-06
9.21284e-06
8.56657e-06
9.22731e-06
9.21498e-06
9.17006e-06
8.61398e-06
6.61128e-06
9.09159e-06
2.83062e-06
1.96924e-06
8.88804e-06
6.29684e-06
1.14054e-06
6.11961e-06
6.53857e-06
9.10016e-06
9.29921e-06
9.20368e-06
8.98389e-06
6.22895e-06
9.51629e-07
7.00504e-06
9.21134e-06
9.21217e-06
9.32089e-06
2.20882e-06
8.84733e-06
3.41698e-06
3.68165e-06
9.01866e-06
8.53212e-06
7.33854e-06
8.64834e-06
9.00831e-06
3.57136e-06
3.21662e-06
9.12186e-06
8.88186e-06
9.21064e-06
7.97039e-06
8.89683e-06
8.81451e-06
8.87748e-06
8.52599e-06
9.1558e-06
9.22046e-06
9.209e-06
9.09502e-06
6.88208e-06
5.77389e-06
9.17652e-06
3.70672e-06
9.20386e-06
9.20789e-06
6.48463e-06
6.41342e-06
8.93078e-06
8.64803e-06
9.24622e-06
9.13146e-06
8.72222e-06
9.20256e-06
3.40321e-06
6.21757e-06
9.37036e-06
9.28298e-06
8.53358e-06
8.96788e-06
3.9561e-07
3.37189e-06
7.99967e-06
8.99358e-06
8.93208e-06
3.01428e-06
9.20534e-06
4.17147e-07
8.76851e-06
4.12388e-07
3.2808e-06
9.13183e-06
8.88286e-06
3.39108e-07
9.39969e-06
3.23483e-06
9.20663e-06
9.21743e-06
2.68731e-06
9.20726e-06
8.93121e-06
8.89336e-06
2.70411e-06
6.82284e-06
9.57382e-06
6.71114e-06
8.92925e-06
9.88924e-06
9.40055e-06
3.11665e-06
7.42797e-06
9.12475e-06
9.11139e-06
7.16707e-06
7.21645e-06
9.21642e-06
2.50075e-06
9.00748e-06
1.71166e-06
9.34974e-06
6.18873e-06
5.5468e-06
5.55352e-06
9.62731e-06
6.40234e-06
9.05568e-06
9.32574e-06
8.93998e-06
5.85705e-07
3.11129e-06
5.55881e-06
9.19326e-06
2.81717e-07
4.20834e-06
5.45571e-06
9.14932e-06
9.14006e-06
9.19229e-06
8.91975e-06
3.5188e-06
9.2105e-06
8.68993e-06
9.20731e-06
1.68049e-06
2.10718e-06
9.20774e-06
9.19622e-06
7.08303e-08
7.48384e-06
7.3539e-06
6.91251e-06
7.65325e-06
9.20499e-06
8.72882e-06
9.06442e-06
2.81171e-06
7.85743e-06
9.15261e-06
7.69676e-06
9.24907e-06
9.20879e-06
7.58947e-06
6.51196e-06
6.58321e-06
9.14022e-06
8.83791e-06
9.19859e-06
2.8096e-06
2.65313e-07
2.11123e-07
8.97248e-06
3.21174e-07
9.27522e-06
8.88332e-06
9.22214e-06
9.20881e-06
3.03233e-06
9.21699e-06
8.13295e-06
8.62612e-06
9.14382e-06
7.18841e-06
3.82307e-06
9.21017e-06
2.42688e-06
9.14607e-06
9.17016e-06
9.20464e-06
7.67665e-06
9.09141e-06
8.8597e-06
8.19489e-06
9.19841e-06
7.57663e-06
1.22506e-06
1.1735e-06
8.99824e-06
9.0599e-06
9.01477e-06
3.5256e-06
3.14759e-06
9.1231e-06
7.85882e-06
9.20694e-06
9.03866e-06
8.52349e-07
2.99519e-07
2.44346e-07
9.03865e-06
3.67798e-07
8.99056e-06
8.91755e-06
9.18794e-06
8.75794e-06
3.58811e-06
1.02854e-06
9.19806e-06
9.21809e-06
8.99619e-06
2.6082e-06
7.57015e-06
9.20552e-06
8.74073e-06
7.09233e-06
8.86951e-06
9.06803e-06
9.20872e-06
9.158e-06
8.80307e-06
9.01195e-06
3.40416e-06
7.79511e-06
8.28795e-08
7.65351e-07
6.01521e-06
7.76531e-06
9.20749e-06
2.71539e-06
9.09893e-06
9.53698e-06
1.00952e-07
8.32374e-08
9.11327e-06
9.20333e-06
3.76006e-06
9.20243e-06
1.41967e-06
8.36525e-06
2.81142e-06
1.80895e-06
1.32268e-06
9.2024e-06
2.871e-06
7.85758e-06
9.20995e-06
9.39042e-06
3.92514e-06
3.60633e-06
8.86918e-06
7.2629e-06
8.67923e-06
9.30227e-06
9.17357e-06
8.86842e-06
8.14738e-06
8.50113e-06
2.81039e-06
6.81136e-06
9.02257e-06
7.79214e-06
7.05482e-06
9.13423e-06
8.56821e-06
9.10694e-06
9.18701e-06
9.20579e-06
6.34487e-06
9.19824e-06
9.0894e-06
8.94678e-06
9.09776e-06
9.20715e-06
6.75152e-06
9.10803e-06
2.71438e-06
9.18395e-06
6.64997e-06
5.98579e-07
7.31286e-06
9.07695e-06
8.34903e-07
2.846e-06
4.95345e-06
6.28751e-06
9.15955e-06
7.38942e-06
9.28213e-06
9.04485e-06
8.89781e-06
6.4428e-06
8.00537e-06
8.75424e-06
9.21375e-06
2.09628e-06
8.00597e-06
6.75332e-06
7.48628e-06
5.46223e-06
9.40519e-06
1.51689e-06
9.19022e-06
2.10156e-06
4.41856e-06
8.76514e-06
7.23788e-06
3.07865e-06
9.42296e-07
9.37621e-06
8.76192e-06
7.73038e-06
6.20761e-06
9.088e-06
9.07326e-06
7.5045e-07
9.17479e-06
9.31298e-06
1.57746e-06
9.21163e-06
9.20786e-06
8.96681e-06
9.00946e-06
7.06328e-06
9.06849e-06
9.15682e-06
8.98455e-06
9.08699e-06
9.18976e-06
4.22938e-06
8.645e-06
2.13736e-06
9.18468e-06
7.69707e-06
9.19205e-06
9.1488e-06
8.93521e-06
9.21351e-06
2.12869e-06
1.05197e-07
1.57312e-07
7.37759e-06
6.87799e-06
5.00967e-06
3.68325e-06
9.11517e-06
9.17998e-06
6.49871e-06
8.10055e-06
8.78519e-06
3.94737e-06
6.92476e-06
9.18753e-06
4.53511e-06
6.96858e-06
9.06279e-06
9.2122e-06
9.37491e-06
6.10459e-06
8.80647e-06
9.10488e-06
8.93719e-06
8.65581e-06
9.17105e-06
8.90969e-06
7.60815e-06
8.81916e-06
8.68698e-06
8.32986e-06
5.01989e-06
8.91048e-06
3.25099e-07
9.10186e-06
9.17861e-06
9.17545e-06
9.05702e-06
8.81955e-06
8.6862e-06
7.49589e-06
5.74638e-06
5.75769e-06
1.02238e-06
8.83298e-06
4.73924e-06
8.76737e-06
9.30325e-06
9.20617e-06
9.20064e-06
9.1401e-06
8.86998e-06
8.71889e-06
9.09005e-06
9.11713e-06
9.09819e-06
6.44697e-06
4.11455e-06
7.46375e-06
9.16979e-06
9.20538e-06
9.06466e-06
1.12713e-06
9.21097e-06
8.91407e-06
8.98841e-06
3.42747e-06
2.07628e-06
8.76944e-06
7.88878e-06
4.28829e-06
8.8325e-06
9.20781e-06
8.73465e-06
7.51581e-06
9.1344e-06
8.94914e-06
7.11863e-06
9.21159e-06
5.36303e-06
9.19225e-06
6.36149e-06
8.88443e-06
9.28474e-06
1.54443e-06
8.96529e-06
9.2495e-06
8.67318e-06
5.64404e-06
3.23706e-06
7.22601e-06
4.62272e-06
8.62556e-06
8.83875e-06
9.10062e-06
9.1476e-06
4.58988e-06
8.98914e-06
8.76549e-06
1.46137e-06
9.34602e-06
8.03342e-06
2.24398e-06
9.22151e-06
9.20766e-06
9.17687e-06
8.88531e-06
9.20209e-06
4.31787e-06
9.20497e-06
8.1686e-07
9.07384e-06
4.97536e-07
9.19257e-06
9.51505e-06
5.99165e-06
9.20959e-06
7.4478e-06
9.25026e-06
9.19235e-06
9.2068e-06
4.83917e-06
1.86061e-06
8.68978e-06
8.95908e-06
8.88752e-06
9.19616e-06
8.65868e-06
9.16114e-06
8.97785e-06
6.45022e-06
8.86343e-06
1.12715e-06
3.41834e-06
6.55944e-07
7.56787e-06
8.11896e-06
9.11279e-06
7.46858e-06
6.34223e-07
9.24356e-06
8.96394e-06
9.20509e-06
9.1568e-06
8.75906e-06
9.01551e-06
8.98135e-06
8.87851e-06
8.86393e-06
8.71387e-06
9.19545e-06
8.68054e-06
3.61814e-07
8.0555e-06
9.00813e-06
8.86907e-06
2.2558e-06
8.96127e-06
9.00763e-06
9.09196e-06
8.7578e-06
2.61695e-06
9.20901e-06
9.32648e-06
9.03605e-06
8.9496e-06
8.8967e-06
9.06398e-06
7.30691e-07
9.20708e-06
9.18092e-06
4.73367e-06
1.32917e-06
3.21805e-06
1.28329e-06
9.58028e-06
8.73507e-06
9.21417e-06
7.59196e-06
9.23178e-06
1.07095e-06
8.15955e-06
8.03012e-07
9.2099e-06
8.97265e-06
9.20032e-06
1.02402e-06
8.9528e-06
8.88517e-06
9.25815e-06
8.3733e-06
9.04143e-06
8.52227e-06
8.91475e-06
9.18875e-06
9.23356e-06
9.04546e-06
8.99795e-06
9.19821e-06
9.05873e-06
7.79834e-06
4.12823e-06
8.90627e-06
3.31739e-06
9.19001e-06
9.18269e-06
8.86393e-06
6.24311e-06
8.92235e-06
2.62866e-06
9.19817e-06
8.47795e-06
1.58969e-06
6.90925e-07
8.91027e-06
8.98344e-06
2.81302e-06
9.02535e-06
8.77315e-06
9.42305e-06
8.98977e-06
8.9639e-06
5.91592e-06
9.01919e-06
8.58142e-06
9.01835e-06
8.88047e-06
9.21126e-06
8.91812e-06
8.60924e-06
8.92139e-06
4.84063e-06
3.11511e-06
8.92424e-06
9.21363e-06
9.12884e-06
4.75099e-07
9.1526e-06
3.13343e-06
9.08852e-06
9.20209e-06
1.33044e-06
9.19766e-06
9.19831e-06
8.88849e-06
9.2127e-06
1.63263e-06
7.50558e-06
9.34007e-06
9.06742e-06
8.93098e-06
8.89155e-06
9.12962e-06
1.73419e-06
8.44434e-06
8.64387e-06
9.23821e-06
8.18155e-06
9.27112e-06
9.01282e-06
8.80041e-06
7.3642e-06
8.96765e-06
9.21721e-06
9.0514e-06
6.06963e-07
9.21831e-06
8.52307e-06
9.07449e-06
8.70793e-06
9.11257e-06
9.20491e-06
8.91491e-06
8.27849e-06
9.05927e-06
8.74025e-06
9.21518e-06
9.19179e-06
9.23825e-06
9.12476e-06
8.31738e-06
9.2101e-06
8.52927e-06
9.24176e-06
6.56451e-06
1.6717e-06
8.33226e-06
6.11078e-06
8.84469e-06
8.4329e-06
9.20157e-06
9.20547e-06
8.96553e-06
8.93123e-06
8.93337e-06
7.31792e-06
7.44219e-06
9.06501e-06
9.2329e-06
8.78714e-06
7.9013e-06
9.24677e-06
8.93262e-06
8.95921e-06
8.92074e-06
9.1791e-06
8.93041e-06
2.54402e-06
9.20646e-06
7.86664e-06
2.07799e-06
9.53362e-06
1.93792e-06
9.11684e-06
8.97407e-06
9.07648e-06
9.15515e-06
8.89502e-06
6.14095e-06
9.05811e-06
6.95425e-06
9.25316e-06
9.20857e-06
9.09471e-06
1.83613e-06
9.05873e-06
5.25581e-06
9.12465e-06
9.05991e-06
7.17557e-06
8.97734e-06
4.80803e-06
8.194e-06
8.9286e-06
9.05357e-06
9.27025e-06
9.27892e-07
1.03997e-06
9.00362e-06
8.90741e-06
9.07553e-06
9.0353e-06
4.94234e-06
8.8284e-06
2.19596e-07
6.43908e-07
9.01358e-06
9.19907e-06
9.16483e-06
8.05007e-06
9.09619e-06
9.24398e-06
2.4487e-06
9.18751e-06
9.35937e-06
9.20935e-06
1.42551e-06
9.03908e-06
9.06499e-06
1.48699e-06
9.16755e-06
9.12297e-06
8.92749e-06
8.07023e-06
9.22953e-06
5.82113e-07
9.07725e-06
9.20781e-06
9.14162e-06
9.2031e-06
2.7535e-06
2.60978e-06
8.74451e-06
9.17268e-06
9.20147e-06
9.09088e-06
9.20976e-06
8.94163e-06
7.99077e-06
9.20223e-06
9.12434e-06
9.02827e-06
9.22649e-06
8.18553e-06
9.17859e-06
8.87693e-06
9.03026e-06
1.9415e-06
9.18813e-06
9.10605e-06
9.08668e-06
9.16646e-06
9.10912e-06
9.21935e-06
9.09428e-06
5.65752e-06
2.7515e-06
9.21419e-06
9.20102e-06
7.91645e-06
7.95044e-06
9.24094e-06
9.18384e-06
9.12433e-06
8.87338e-06
9.08552e-06
8.9238e-06
9.13246e-06
9.11965e-06
9.22836e-06
8.35011e-06
7.93267e-06
9.02417e-06
9.0416e-06
9.24984e-06
7.22303e-06
9.05241e-06
9.15463e-06
8.83981e-06
9.02795e-06
9.13369e-06
9.16758e-06
9.24596e-06
9.18053e-06
7.81455e-06
8.92675e-06
9.21584e-06
9.204e-06
9.13643e-06
2.34263e-06
9.10776e-06
9.10152e-06
9.09224e-06
9.08191e-06
9.21471e-06
9.20829e-06
7.9054e-06
9.10174e-06
7.91059e-06
8.86139e-06
8.94299e-06
7.7085e-06
7.33794e-07
9.15245e-06
9.08917e-06
8.91672e-06
9.32036e-06
9.17212e-06
9.4726e-06
7.90951e-06
9.29778e-06
9.12429e-06
8.86539e-06
7.4501e-06
3.05416e-06
9.35041e-06
1.01015e-06
9.30038e-06
9.2093e-06
9.21786e-06
9.19234e-06
7.78799e-06
9.20761e-06
9.25064e-06
9.18173e-06
7.79361e-06
9.17788e-06
8.45785e-06
9.20564e-06
7.36372e-06
8.57128e-06
9.14147e-06
8.68834e-06
7.26702e-06
9.13562e-06
7.19221e-06
9.50529e-06
9.27303e-06
9.2686e-06
9.21587e-06
7.92411e-06
9.51414e-06
9.20114e-06
6.54871e-06
9.03818e-06
9.51501e-06
9.20834e-06
9.20256e-06
9.17621e-06
8.88621e-06
9.15459e-06
9.0848e-06
8.79777e-06
7.25522e-06
9.17649e-06
9.17971e-06
7.28128e-06
9.24102e-06
9.10879e-06
7.78296e-06
5.79406e-06
9.24037e-06
3.35679e-06
9.17205e-06
9.20865e-06
9.2045e-06
9.21316e-06
9.31416e-06
9.20905e-06
9.14303e-06
9.21258e-06
7.34399e-06
7.29342e-06
4.02675e-06
9.13922e-06
8.44087e-06
6.90452e-06
9.18198e-06
9.06849e-06
9.14379e-06
9.21064e-06
9.16397e-06
8.19969e-06
9.21582e-06
9.17822e-06
9.29721e-06
9.20842e-06
7.94996e-07
8.8988e-06
9.21059e-06
2.24134e-06
5.93752e-06
7.73168e-06
4.7619e-07
9.12272e-06
9.10478e-06
9.18512e-06
7.78117e-06
9.21165e-06
9.20588e-06
1.95851e-06
4.63707e-06
8.03698e-06
9.21375e-06
9.16271e-06
9.16001e-06
7.80209e-06
8.92515e-06
9.2173e-06
9.18125e-06
9.20604e-06
7.36188e-06
9.15411e-06
7.68085e-06
6.03893e-06
9.00674e-06
8.91011e-06
1.52059e-06
9.13501e-06
6.70573e-06
9.2119e-06
7.65837e-06
9.19436e-06
9.19695e-06
2.5872e-06
9.19439e-06
7.08881e-06
9.17581e-06
9.18319e-06
9.00539e-06
9.21178e-06
4.85556e-06
9.2008e-06
9.18007e-06
9.1968e-06
7.38501e-07
8.92662e-06
9.17316e-06
9.16937e-06
8.86427e-06
9.08104e-06
6.85287e-06
8.99888e-07
9.20854e-06
9.08464e-06
9.23309e-06
9.20393e-06
9.19781e-06
9.14328e-06
9.00741e-06
7.87252e-06
9.1126e-06
8.00809e-06
9.1945e-06
4.64681e-06
9.13793e-06
9.0586e-06
7.00243e-06
8.8077e-06
9.32045e-06
8.90893e-06
9.04782e-06
9.24426e-06
9.2065e-06
9.19331e-06
7.09869e-06
9.21526e-06
9.20077e-06
9.19993e-06
3.8611e-06
8.94382e-06
7.57747e-06
9.30953e-06
5.04422e-06
9.21331e-06
9.20456e-06
8.73566e-06
7.71942e-06
7.2799e-06
9.17186e-06
7.55564e-06
7.04337e-06
9.11774e-06
9.16625e-06
7.05279e-06
7.57639e-06
9.20195e-06
9.15128e-06
7.48535e-06
6.40431e-06
9.21044e-06
2.6502e-06
9.26337e-06
8.89728e-06
9.18686e-06
8.90291e-06
9.2688e-06
9.21181e-06
8.81061e-06
9.21016e-06
7.2102e-07
9.20058e-06
8.88677e-06
9.20002e-06
7.65809e-06
7.63464e-06
7.70132e-06
7.61804e-06
9.3251e-06
9.52782e-06
9.13715e-06
9.2206e-06
8.88993e-06
9.20293e-06
6.7838e-06
9.20513e-06
9.21149e-06
9.01505e-06
9.21145e-06
9.1126e-06
7.47272e-06
7.6188e-06
9.20525e-06
9.19975e-06
9.12988e-06
2.3474e-06
9.31292e-06
7.75674e-06
9.21029e-06
9.15336e-06
9.20525e-06
9.21304e-06
9.48813e-06
7.79887e-06
9.20458e-06
7.48261e-06
9.19185e-06
9.20578e-06
9.20127e-06
7.9156e-06
9.20473e-06
2.14e-06
9.20159e-06
7.55264e-06
8.09964e-06
9.19801e-06
9.20467e-06
8.90168e-06
7.20346e-06
9.33092e-06
7.78846e-06
9.206e-06
9.20668e-06
9.19092e-06
9.18196e-06
9.18877e-06
7.72022e-06
7.87103e-06
5.66852e-07
9.36444e-06
7.05632e-07
9.11796e-06
9.12515e-06
9.18242e-06
9.21494e-06
8.61261e-06
8.88211e-06
9.14365e-06
9.2071e-06
9.1518e-06
8.63886e-06
7.60979e-06
7.98109e-06
6.96117e-06
9.20834e-06
9.182e-06
9.20661e-06
9.15809e-06
9.18039e-06
9.49182e-06
7.63781e-06
9.16911e-06
9.20899e-06
9.20594e-06
9.20604e-06
9.08532e-06
9.12917e-06
9.08352e-06
9.17761e-06
8.26676e-06
7.63627e-06
9.24083e-06
7.44754e-06
9.22328e-06
9.30038e-06
9.18127e-06
9.2023e-06
5.05629e-06
9.15189e-06
6.98178e-06
8.95372e-06
7.60084e-06
9.21083e-06
9.21048e-06
7.52277e-06
8.59494e-06
8.94534e-06
7.60831e-06
9.04829e-06
9.20547e-06
9.21844e-06
7.13955e-06
7.54111e-06
9.50792e-06
9.15628e-06
7.81674e-06
9.18251e-06
9.19246e-06
9.52954e-06
8.15417e-06
9.17784e-06
9.18999e-06
9.20973e-06
9.18864e-06
9.18053e-06
8.96085e-06
9.19635e-06
9.20948e-06
9.22033e-06
9.19118e-06
9.33815e-06
9.18448e-06
2.91304e-06
9.21101e-06
7.55502e-06
9.20023e-06
7.61353e-06
9.17998e-06
9.20884e-06
9.50842e-06
9.22874e-06
9.34521e-06
9.21045e-06
9.18681e-06
9.5425e-06
9.18319e-06
9.19142e-06
9.22355e-06
9.20539e-06
9.17515e-06
8.85665e-06
7.35954e-06
9.19285e-06
9.20874e-06
9.20615e-06
9.16064e-06
9.68959e-07
7.00286e-06
9.21002e-06
9.33289e-06
9.20617e-06
9.207e-06
9.20932e-06
9.20925e-06
7.43053e-06
7.5021e-06
9.2174e-06
8.54493e-06
5.89847e-06
9.21163e-06
6.86413e-06
9.1645e-06
9.16769e-06
7.33452e-06
9.49584e-06
9.21774e-06
9.18036e-06
9.20724e-06
9.18413e-06
9.20734e-06
9.20676e-06
9.21003e-06
9.21693e-06
8.88134e-06
9.13836e-06
7.44703e-06
7.56814e-06
9.20387e-06
9.20559e-06
9.18373e-06
6.80842e-06
7.34901e-06
9.14789e-06
9.20982e-06
9.20584e-06
6.9003e-06
9.17818e-06
9.45552e-06
9.20541e-06
7.5217e-06
8.69176e-06
9.22045e-06
9.21572e-06
7.46731e-07
9.20404e-06
9.21793e-06
9.20764e-06
9.21152e-06
9.20699e-06
6.91394e-06
9.21006e-06
7.46508e-06
9.45351e-06
9.19134e-06
9.46206e-06
9.19931e-06
9.20647e-06
9.21365e-06
9.22584e-06
9.20522e-06
9.15376e-06
9.19703e-06
9.21694e-06
9.1838e-06
7.51666e-06
7.64598e-06
9.21113e-06
9.23175e-06
9.18445e-06
9.20353e-06
9.20877e-06
9.20744e-06
9.21144e-06
9.20935e-06
8.94037e-06
9.20816e-06
9.06695e-06
8.54539e-06
9.21215e-06
8.89727e-06
9.19026e-06
9.18637e-06
6.76799e-06
9.17653e-06
7.44167e-06
9.20516e-06
9.18378e-06
9.21286e-06
6.68637e-06
9.19633e-06
9.20622e-06
9.21277e-06
9.1849e-06
9.19306e-06
9.19782e-06
9.21029e-06
9.18536e-06
9.18417e-06
9.05451e-06
6.78457e-06
9.2145e-06
9.20863e-06
9.20681e-06
7.40411e-06
2.18716e-06
9.20979e-06
9.19389e-06
9.4e-06
9.21436e-06
9.19752e-06
9.15158e-06
9.56192e-06
9.19222e-06
9.32306e-06
9.17657e-06
9.20457e-06
9.21252e-06
9.21185e-06
9.15474e-06
7.58633e-06
9.18435e-06
9.1927e-06
7.32452e-06
9.19493e-06
9.20484e-06
9.23235e-06
7.77783e-06
2.95274e-06
7.4637e-06
9.20903e-06
7.74194e-06
9.20608e-06
7.49296e-06
9.18408e-06
6.72646e-06
7.72963e-06
9.17599e-06
7.40331e-06
9.18598e-06
9.15431e-06
9.15111e-06
8.64087e-07
6.58825e-06
9.19112e-06
6.18985e-07
9.18376e-06
9.21412e-06
7.49133e-06
9.18367e-06
7.40641e-06
9.2023e-06
9.45581e-06
9.20048e-06
9.20198e-06
9.1772e-06
9.18719e-06
9.19397e-06
9.20842e-06
9.20328e-06
7.73097e-06
7.23494e-06
9.20292e-06
9.21585e-06
7.22889e-06
9.17564e-06
9.20708e-06
9.21032e-06
8.58135e-06
9.21048e-06
7.29555e-06
9.19962e-06
9.21987e-06
9.20087e-06
2.51585e-06
7.51197e-06
9.1831e-06
6.67053e-06
9.18221e-06
4.48978e-06
9.18028e-06
9.2935e-06
9.20729e-06
9.20039e-06
9.18982e-06
7.24908e-06
9.18676e-06
9.1853e-06
9.19591e-06
9.21071e-06
9.21181e-06
9.18799e-06
9.18607e-06
7.54804e-06
6.71549e-06
9.20815e-06
9.19927e-06
9.15986e-06
7.30643e-06
9.17969e-06
9.54287e-06
9.45263e-06
9.19199e-06
9.19164e-06
9.18099e-06
9.26033e-06
7.2208e-06
7.38012e-06
9.18231e-06
8.94368e-06
9.17589e-06
9.18079e-06
9.21077e-06
9.19499e-06
9.19301e-06
9.2036e-06
9.19534e-06
6.82172e-06
9.20223e-06
9.17119e-06
7.20922e-06
9.17423e-06
9.2133e-06
9.18419e-06
9.20104e-06
9.19953e-06
7.23041e-06
9.20261e-06
9.17327e-06
6.61986e-06
9.19782e-06
9.19561e-06
7.29826e-06
9.17482e-06
7.237e-06
9.19939e-06
9.21031e-06
9.18934e-06
7.35342e-06
9.21016e-06
9.20337e-06
9.18498e-06
9.14928e-06
6.88332e-06
7.2115e-06
9.19145e-06
9.17964e-06
9.21216e-06
9.18647e-06
9.18065e-06
9.21887e-06
9.22848e-06
9.18292e-06
9.17226e-06
7.29577e-06
9.18575e-06
9.18484e-06
9.20789e-06
9.15091e-06
9.18774e-06
7.38587e-06
7.11796e-06
9.13712e-06
7.32969e-06
9.17609e-06
9.20326e-06
9.18219e-06
9.17151e-06
9.18806e-06
7.11801e-06
9.2137e-06
7.45942e-06
9.20441e-06
6.53665e-06
9.1855e-06
8.92331e-06
9.18424e-06
9.18992e-06
9.18338e-06
9.18193e-06
9.20611e-06
9.18767e-06
9.17816e-06
9.19072e-06
7.12579e-06
9.62696e-06
9.21199e-06
9.16913e-06
9.21791e-06
9.1856e-06
9.19466e-06
9.16285e-06
9.1964e-06
9.19309e-06
9.21861e-06
9.18364e-06
7.19592e-06
7.20963e-06
6.95512e-06
3.11595e-06
9.19174e-06
9.18953e-06
9.17366e-06
7.19414e-06
9.17318e-06
9.15569e-06
6.5718e-06
7.37926e-06
7.31134e-06
7.29821e-06
9.19977e-06
7.51235e-06
9.18467e-06
2.54943e-06
9.18584e-06
9.18477e-06
9.1555e-06
9.19273e-06
1.61567e-06
9.1866e-06
9.16443e-06
9.15937e-06
9.18769e-06
9.19074e-06
9.18882e-06
7.15733e-06
9.15631e-06
9.17707e-06
6.21168e-07
9.1888e-06
9.18371e-06
9.20623e-06
9.2071e-06
9.20425e-06
9.16248e-06
9.19717e-06
9.20356e-06
9.1547e-06
9.20224e-06
9.17874e-06
9.20701e-06
9.19371e-06
9.14519e-06
7.13333e-06
9.16847e-06
9.18786e-06
9.19582e-06
9.19476e-06
9.19363e-06
9.19304e-06
9.17894e-06
9.21113e-06
7.02709e-06
9.16302e-06
9.26969e-06
9.18319e-06
6.92612e-06
9.21257e-06
9.15954e-06
7.01615e-06
7.02487e-06
9.19025e-06
7.1101e-06
9.1804e-06
7.27066e-06
8.70225e-06
6.47348e-06
7.02509e-06
9.17707e-06
1.71571e-06
9.18047e-06
9.21214e-06
7.05638e-06
9.1919e-06
6.8264e-06
9.1597e-06
9.21249e-06
9.20112e-06
9.16543e-06
7.12713e-06
7.19372e-06
9.21126e-06
9.19131e-06
7.18406e-06
7.11265e-06
7.09259e-06
7.06005e-06
9.19194e-06
7.14582e-06
9.18887e-06
7.02408e-06
9.18667e-06
9.19079e-06
6.82099e-06
7.10698e-06
7.09222e-06
6.99553e-06
9.19057e-06
9.1921e-06
9.19542e-06
6.63033e-06
9.18991e-06
9.167e-06
2.51067e-06
9.11718e-06
9.17438e-06
6.49068e-06
6.37639e-06
9.19352e-06
6.8056e-06
6.92579e-06
8.6403e-06
9.18228e-06
9.19783e-06
9.22187e-06
7.20384e-06
7.05971e-06
6.92955e-06
7.00206e-06
9.18004e-06
9.17833e-06
9.66975e-06
7.09534e-06
6.91461e-06
9.17457e-06
9.19765e-06
9.19921e-06
9.20055e-06
9.19672e-06
7.01592e-06
9.18243e-06
7.16499e-06
9.19551e-06
7.0347e-06
6.99145e-06
9.20229e-06
8.94104e-06
9.20226e-06
9.68518e-06
9.18229e-06
9.2016e-06
9.19193e-06
9.19451e-06
6.9917e-06
7.16422e-06
9.18941e-06
9.2005e-06
6.95615e-06
7.09222e-06
9.1996e-06
6.78798e-06
6.81315e-06
9.1994e-06
6.82765e-06
6.85475e-06
6.91989e-06
9.17795e-06
9.18638e-06
9.1849e-06
6.83909e-06
7.27111e-06
9.17694e-06
6.92292e-06
6.80186e-06
6.91855e-06
9.20891e-06
9.17634e-06
6.89098e-06
9.18128e-06
6.30572e-06
9.17808e-06
9.3924e-06
9.19731e-06
6.72748e-06
6.712e-06
6.78946e-06
9.20694e-06
6.72994e-06
6.89056e-06
6.94105e-06
6.33979e-06
6.90323e-06
6.30629e-06
6.20726e-06
6.79084e-06
7.01568e-06
6.24152e-06
6.95622e-06
6.73963e-06
7.04322e-06
9.17187e-06
6.82153e-06
6.64294e-06
6.70049e-06
6.63212e-06
6.12937e-06
9.18203e-06
6.54585e-06
7.29083e-06
6.69075e-06
6.61032e-06
9.21466e-06
6.75049e-06
6.74346e-06
9.1571e-06
6.72761e-06
9.16515e-06
9.19537e-06
6.18177e-06
6.08261e-06
6.64802e-06
6.89713e-06
6.54907e-06
6.73728e-06
6.72401e-06
9.19984e-06
6.00153e-06
6.50913e-06
6.53452e-06
9.18997e-06
6.82428e-06
5.85915e-06
6.93718e-06
6.59035e-06
6.62611e-06
6.68819e-06
5.90198e-06
6.27985e-06
6.43382e-06
6.3355e-06
6.43658e-06
6.23688e-06
6.40762e-06
5.85955e-06
5.82493e-06
6.22738e-06
9.20005e-06
6.49016e-06
6.52742e-06
6.51569e-06
6.6314e-06
6.32893e-06
5.77863e-06
5.75002e-06
6.63503e-06
6.48542e-06
5.7588e-06
6.34921e-06
6.44877e-06
6.33761e-06
6.48364e-06
6.38966e-06
6.40241e-06
9.20761e-06
6.30612e-06
6.65039e-06
6.04427e-06
6.31209e-06
6.43525e-06
6.50872e-06
6.43128e-06
6.53328e-06
5.66842e-06
6.60468e-06
5.93031e-06
6.44785e-06
6.2045e-06
6.49202e-06
6.58222e-06
6.39521e-06
6.19577e-06
6.43023e-06
6.10834e-06
5.9049e-06
5.65525e-06
6.29307e-06
6.23771e-06
6.28255e-06
6.28901e-06
6.53344e-06
6.44401e-06
6.19146e-06
6.38397e-06
6.24831e-06
6.45151e-06
6.41256e-06
5.56724e-06
6.34491e-06
6.38616e-06
9.20939e-06
6.13701e-06
6.10292e-06
6.13557e-06
6.31614e-06
6.21007e-06
6.1885e-06
5.71029e-06
6.43046e-06
5.80315e-06
5.58238e-06
5.49122e-06
9.15714e-06
9.20035e-06
5.4695e-06
6.14678e-06
6.14489e-06
6.28828e-06
6.00139e-06
6.03116e-06
6.19042e-06
6.04599e-06
6.23872e-06
6.1461e-06
6.00693e-06
6.13912e-06
6.21868e-06
6.12547e-06
6.08758e-06
6.04389e-06
6.64637e-06
5.53617e-06
5.8998e-06
6.07964e-06
5.44583e-06
5.37381e-06
5.92342e-06
6.13708e-06
6.12117e-06
6.24074e-06
6.15092e-06
6.18111e-06
6.0928e-06
5.71871e-06
5.39342e-06
5.79825e-06
5.98672e-06
5.97839e-06
5.2786e-06
5.81675e-06
5.60694e-06
6.02368e-06
5.88591e-06
5.94802e-06
5.94433e-06
5.83401e-06
5.88734e-06
5.73874e-06
5.78544e-06
6.03762e-06
6.04211e-06
5.82049e-06
5.69676e-06
5.21333e-06
5.93656e-06
5.71311e-06
6.13946e-06
5.64074e-06
5.87707e-06
5.77583e-06
5.89706e-06
5.99489e-06
5.68366e-06
5.926e-06
5.76495e-06
5.8352e-06
5.63297e-06
1.01118e-06
5.18483e-06
5.83527e-06
5.78508e-06
5.85062e-06
5.31115e-06
5.68153e-06
5.02656e-06
5.93617e-06
5.119e-06
1.0604e-06
5.59509e-06
5.84333e-06
5.09608e-06
5.73403e-06
5.61364e-06
5.59902e-06
5.82838e-06
6.1436e-06
5.68411e-06
5.67463e-06
4.36286e-06
5.84695e-06
5.54336e-06
5.61652e-06
5.0207e-06
5.58318e-06
5.70141e-06
5.73585e-06
5.49353e-06
5.51591e-06
5.53974e-06
4.38832e-06
5.49737e-06
5.20005e-06
4.49815e-06
4.65389e-06
5.64178e-06
5.73049e-06
5.79944e-06
5.3919e-06
5.57326e-06
5.16488e-06
5.472e-06
5.48222e-06
5.5317e-06
5.22329e-06
5.41877e-06
5.74172e-06
4.15725e-06
4.70846e-06
4.94987e-06
5.32138e-06
5.63253e-06
5.74568e-06
5.31106e-06
5.55358e-06
5.3953e-06
5.29353e-06
5.60477e-06
5.44489e-06
5.45432e-06
5.29036e-06
5.92268e-06
4.77142e-06
5.27716e-06
5.34442e-06
5.35435e-06
4.1985e-06
5.38111e-06
5.3708e-06
5.43855e-06
4.8113e-06
5.55633e-06
5.53464e-06
4.76686e-06
5.41275e-06
4.91012e-06
5.30851e-06
5.27988e-06
4.86116e-06
5.00694e-06
5.54956e-06
5.33939e-06
5.4396e-06
5.18891e-06
4.97451e-06
5.43632e-06
4.6871e-06
5.19199e-06
5.40485e-06
5.3564e-06
5.21381e-06
5.40958e-06
5.53396e-06
4.86952e-06
5.45192e-06
5.37858e-06
5.03423e-06
5.26946e-06
5.16832e-06
4.67123e-06
5.24292e-06
5.08722e-06
5.0256e-06
5.17865e-06
5.22806e-06
5.50753e-06
4.60992e-06
5.23787e-06
5.23283e-06
5.1424e-06
5.338e-06
5.45607e-06
4.56599e-06
5.20901e-06
4.71193e-06
5.20761e-06
4.35768e-06
4.56499e-06
4.25838e-06
4.95966e-06
5.12673e-06
4.98808e-06
4.98571e-06
5.08989e-06
4.79697e-06
5.13268e-06
4.74155e-06
4.98712e-06
5.0777e-06
5.23064e-06
5.06722e-06
5.25626e-06
5.12518e-06
5.23939e-06
4.97666e-06
5.31161e-06
5.35584e-06
4.39383e-06
4.15777e-06
4.93293e-06
4.36059e-06
4.90345e-06
4.88423e-06
4.76433e-06
5.02717e-06
5.23659e-06
5.14038e-06
4.49042e-06
4.96598e-06
4.86488e-06
4.4644e-06
5.09721e-06
4.29076e-06
4.87556e-06
4.92447e-06
5.13558e-06
4.28233e-06
4.8707e-06
5.00515e-06
4.5742e-06
4.92807e-06
4.26953e-06
4.78264e-06
5.04129e-06
5.10729e-06
4.78415e-06
4.2613e-06
4.86828e-06
5.12772e-06
4.68414e-06
4.85638e-06
5.33723e-06
5.11723e-06
4.14041e-06
4.19342e-06
4.95896e-06
4.77441e-06
4.68113e-06
4.76382e-06
4.44762e-06
4.83173e-06
4.16736e-06
4.88631e-06
4.88055e-06
4.86449e-06
4.83549e-06
4.96591e-06
4.88264e-06
4.50628e-06
4.17076e-06
4.67316e-06
4.94263e-06
4.75457e-06
4.91907e-06
4.96207e-06
4.62913e-06
4.8427e-06
4.04308e-06
4.57947e-06
4.86001e-06
4.6626e-06
4.57988e-06
4.56153e-06
4.05136e-06
4.41844e-06
4.75834e-06
4.80144e-06
4.57191e-06
4.62102e-06
4.60236e-06
4.4272e-06
4.60919e-06
4.68222e-06
4.81082e-06
4.74128e-06
3.95256e-06
4.6726e-06
4.51967e-06
4.47788e-06
4.4787e-06
3.91629e-06
4.5213e-06
4.47099e-06
4.46054e-06
3.94064e-06
4.37613e-06
4.55113e-06
4.17126e-06
4.06944e-06
3.93092e-06
4.60858e-06
4.12293e-06
4.36992e-06
4.0701e-06
4.64115e-06
4.75338e-06
4.4227e-06
4.46118e-06
4.00017e-06
4.27382e-06
3.8553e-06
4.377e-06
4.59418e-06
4.34934e-06
4.15928e-06
4.62972e-06
3.65171e-06
4.33685e-06
4.54065e-06
4.39639e-06
4.32558e-06
4.35352e-06
4.35932e-06
4.25827e-06
3.75872e-06
4.13904e-06
4.57132e-06
4.26873e-06
4.52866e-06
4.27467e-06
4.22311e-06
3.82613e-06
4.44421e-06
4.1913e-06
3.66266e-06
3.74711e-06
4.59728e-06
4.73041e-06
4.16755e-06
4.35456e-06
4.24758e-06
4.69969e-06
3.56544e-06
4.15041e-06
4.38154e-06
4.27125e-06
4.29262e-06
4.31727e-06
4.49251e-06
4.2613e-06
3.57326e-06
4.17156e-06
4.08952e-06
3.63899e-06
4.25314e-06
4.385e-06
4.35496e-06
3.55714e-06
4.12777e-06
4.06627e-06
3.96766e-06
4.11503e-06
4.05604e-06
4.4431e-06
4.26455e-06
4.0442e-06
3.71738e-06
4.22531e-06
4.01405e-06
3.46513e-06
4.31587e-06
4.25237e-06
3.98716e-06
4.30685e-06
4.25606e-06
4.05253e-06
3.42518e-06
4.15721e-06
4.0489e-06
3.54384e-06
4.02961e-06
4.05784e-06
3.96842e-06
4.14688e-06
3.9651e-06
4.00863e-06
3.95541e-06
4.02208e-06
3.55068e-06
3.44765e-06
3.86389e-06
3.34679e-06
4.10465e-06
3.66168e-06
3.56104e-06
3.52194e-06
3.8852e-06
3.44861e-06
3.82787e-06
3.89566e-06
4.06351e-06
4.14065e-06
3.34781e-06
3.76284e-06
3.85463e-06
3.54766e-06
4.17809e-06
4.02174e-06
4.02854e-06
3.46802e-06
3.86603e-06
3.78328e-06
3.78578e-06
3.81284e-06
3.85468e-06
3.92347e-06
3.972e-06
3.72935e-06
3.24072e-06
4.11324e-06
3.44942e-06
3.75346e-06
3.32611e-06
3.55524e-06
3.68138e-06
3.66153e-06
3.77868e-06
3.87738e-06
3.90681e-06
3.65127e-06
3.24142e-06
4.03034e-06
3.67717e-06
3.65187e-06
3.25529e-06
3.61783e-06
2.81748e-06
3.71214e-06
3.35955e-06
3.55018e-06
3.48602e-06
3.1289e-06
3.82087e-06
3.92283e-06
3.57916e-06
3.34849e-06
3.66247e-06
3.61154e-06
3.72049e-06
3.66332e-06
3.74161e-06
2.91977e-06
3.56939e-06
3.61961e-06
3.43776e-06
3.02967e-06
3.01819e-06
3.47697e-06
3.64091e-06
3.45634e-06
3.3992e-06
3.51871e-06
3.59598e-06
3.46134e-06
3.55915e-06
3.70449e-06