/*--------------------------------*- C++ -*----------------------------------*\
  =========                 |
  \\      /  F ield         | OpenFOAM: The Open Source CFD Toolbox
   \\    /   O peration     | Website:  https://openfoam.org
    \\  /    A nd           | Version:  8
     \\/     M anipulation  |
\*---------------------------------------------------------------------------*/
FoamFile
{
    version     2.0;
    format      ascii;
    class       surfaceScalarField;
    location    "3.8";
    object      phi;
}
// * * * * * * * * * * * * * * * * * * * * * * * * * * * * * * * * * * * * * //

dimensions      [0 3 -1 0 0 0 0];

internalField   nonuniform List<scalar> 
3021
(
2.03006e-10
-2.03006e-10
-2.16441e-08
-2.16875e-08
3.23472e-08
1.09843e-08
-1.71824e-08
-1.22233e-08
2.34885e-08
5.91722e-09
-3.20102e-08
-2.484e-09
1.73117e-08
9.46799e-10
-1.32399e-08
1.22931e-08
8.94733e-09
-6.86753e-09
7.25422e-09
-9.33402e-09
6.59793e-11
-1.60588e-08
1.55424e-08
4.50458e-10
-8.85439e-10
3.62863e-10
-1.90277e-08
1.95503e-08
1.08558e-08
-9.71574e-09
-6.83687e-09
5.6968e-09
-1.45578e-08
-3.40587e-09
1.09231e-08
7.04059e-09
-1.49212e-08
-1.70922e-08
1.03693e-08
6.397e-09
-6.33639e-09
1.17584e-08
-1.1819e-08
1.75061e-08
3.05429e-09
-1.13313e-08
-9.22913e-09
-5.35161e-09
-1.72225e-08
8.01631e-09
6.55477e-09
-7.54602e-09
-6.37237e-09
7.36363e-09
-7.76602e-09
5.92628e-09
8.27721e-09
-6.43748e-09
-4.15374e-09
-2.26613e-09
6.41987e-09
-3.22851e-09
-9.25238e-10
2.71651e-10
3.43205e-10
-2.28398e-10
-3.86457e-10
4.7844e-11
-3.5179e-10
-5.95839e-11
3.6353e-10
-1.04599e-08
-2.80121e-09
1.61651e-08
-2.90404e-09
-2.34282e-08
1.71911e-08
1.85598e-08
2.85291e-09
-2.69966e-09
-2.23061e-08
6.3499e-09
1.59562e-08
-6.68543e-09
1.55348e-09
8.45448e-09
-3.32253e-09
5.34606e-10
-9.14438e-09
6.93221e-09
1.67757e-09
2.67405e-09
-1.26932e-08
-6.3193e-10
1.06511e-08
1.05279e-08
-2.93762e-09
-2.24888e-09
-5.34141e-09
2.97465e-08
-2.37868e-08
-2.2126e-08
1.61662e-08
3.05603e-08
-2.43091e-08
-2.24793e-08
1.6228e-08
3.19271e-08
-2.53669e-08
-2.34736e-08
1.69134e-08
-4.97429e-09
5.97621e-09
-1.68341e-08
1.58322e-08
-2.21475e-08
-1.51943e-08
5.96971e-09
3.1372e-08
6.58044e-10
-7.34192e-10
7.37472e-10
-6.61324e-10
-5.70242e-09
2.55709e-09
-3.5401e-09
7.45847e-09
3.72048e-09
-4.62419e-09
3.30846e-09
9.18388e-09
5.01378e-09
1.38998e-08
1.12978e-09
-1.44752e-08
-5.54414e-10
9.29092e-09
-5.83434e-09
3.02156e-09
-6.47814e-09
-1.48126e-08
1.18275e-08
7.85415e-09
-4.86904e-09
-7.72932e-09
3.01453e-09
1.90011e-10
8.36269e-10
-4.02131e-10
-6.24149e-10
-5.27651e-11
5.52284e-10
9.30283e-11
-5.92547e-10
-4.15914e-08
1.62956e-08
1.30725e-08
-4.09207e-09
-3.25345e-09
7.34551e-09
1.4034e-08
1.41239e-09
-1.27724e-08
9.27117e-10
1.33261e-08
-3.53395e-10
-2.30146e-09
6.76831e-09
4.87465e-09
-9.3415e-09
2.52027e-09
-5.35321e-09
-2.86948e-09
8.55517e-10
4.29565e-09
5.70464e-09
-6.17624e-10
3.33959e-10
-1.23779e-09
1.52146e-09
-5.94808e-09
-9.92426e-09
6.1566e-09
4.16103e-10
-2.13096e-10
-1.39052e-08
-2.8471e-08
2.06888e-08
1.61787e-08
2.05919e-08
-2.90088e-08
-7.7617e-09
7.7783e-09
6.17304e-09
-6.89603e-09
-7.05531e-09
1.89887e-08
-3.56366e-09
-9.18406e-11
-4.00393e-10
4.05589e-09
-1.09896e-08
3.40956e-09
2.14557e-08
-1.38756e-08
-4.15563e-09
4.90914e-09
-5.99572e-09
5.24221e-09
-5.55849e-09
6.18038e-09
1.89839e-09
1.36724e-08
1.67414e-09
-1.42168e-08
-1.35206e-09
-2.09256e-09
1.42312e-09
2.0215e-09
-1.82837e-08
-2.00785e-08
2.73726e-08
-5.79132e-09
5.5739e-09
-2.10118e-09
2.3186e-09
8.85423e-10
-9.27952e-10
2.39023e-10
-1.96493e-10
-2.78821e-09
1.20092e-09
-9.7077e-10
2.55806e-09
4.18587e-10
9.34718e-10
-4.67882e-10
8.65958e-09
1.71612e-09
-5.52207e-09
-4.85363e-09
-9.19431e-10
-2.68448e-10
1.18788e-09
1.73702e-09
-3.88146e-09
-3.41405e-09
6.52212e-10
-9.14769e-10
-5.76618e-09
6.02874e-09
2.64895e-09
3.90544e-09
-4.81736e-09
1.90042e-09
-9.54492e-10
-1.54211e-08
-1.01742e-08
-4.69638e-09
6.64679e-09
8.22383e-09
-1.07971e-08
-1.4317e-08
1.99588e-08
5.15523e-09
-6.00719e-09
5.9482e-09
3.19861e-08
-5.75168e-09
5.65398e-09
3.0658e-08
-5.82704e-09
5.50089e-09
3.00727e-08
6.6092e-09
-3.96378e-09
-6.45179e-09
3.80637e-09
-9.31483e-10
1.43363e-12
2.09699e-12
3.00949e-10
6.53972e-10
-8.44749e-10
-1.10172e-10
-1.4929e-08
1.82375e-08
1.04368e-08
-1.11986e-08
8.9738e-09
-8.212e-09
-3.37734e-09
4.91311e-10
-7.28526e-09
-4.06259e-09
1.08565e-08
-4.91498e-09
3.40033e-09
1.36964e-09
-1.94426e-09
5.74626e-10
9.58879e-09
-5.90611e-09
-8.59766e-09
-5.17183e-10
5.25167e-10
6.50059e-10
-1.77158e-08
1.01269e-08
-7.7444e-09
1.53333e-08
7.652e-09
-5.78939e-09
-1.21039e-09
5.51269e-09
-8.42834e-09
8.97068e-09
-6.05502e-09
9.58009e-09
-8.07701e-09
2.13038e-10
-1.0936e-08
-7.21173e-10
-1.39069e-09
1.30478e-08
-8.68684e-10
2.5127e-09
1.48706e-09
-3.13107e-09
6.48036e-09
-5.33299e-09
9.90749e-09
-1.10549e-08
-9.7282e-09
-1.33603e-09
1.28275e-10
-2.39049e-09
8.59673e-09
3.08467e-09
6.84754e-10
1.22957e-08
-7.07091e-09
-2.06498e-09
9.6272e-09
-1.03862e-08
2.18423e-09
-4.80359e-09
1.30056e-08
3.5218e-09
-4.92655e-09
1.40475e-09
-2.18551e-08
2.185e-08
7.57267e-11
-7.05974e-11
2.09092e-08
-4.31338e-11
6.48371e-11
-2.09309e-08
-2.04602e-08
2.04588e-08
4.7242e-11
-4.58114e-11
-1.97351e-08
-6.24497e-11
1.97681e-08
2.94346e-11
1.93712e-08
-3.4628e-11
-1.93638e-08
2.72345e-11
-6.294e-12
4.72873e-11
2.04723e-08
-2.05132e-08
-1.96193e-08
-1.24092e-11
4.75666e-12
1.9627e-08
-2.1397e-12
-1.97581e-08
1.97599e-08
3.66061e-13
1.81332e-14
4.75738e-12
1.91841e-08
-1.91888e-08
2.06757e-08
-1.14102e-11
-2.0683e-08
1.87465e-11
1.19465e-12
2.62875e-12
2.04879e-08
-2.04917e-08
9.35519e-13
1.06732e-11
1.96138e-08
-1.96254e-08
-1.96036e-08
1.95624e-08
4.52095e-11
-4.0898e-12
-2.04784e-08
2.04476e-08
4.55738e-11
-1.47724e-11
4.18052e-11
-6.17297e-11
-1.9238e-08
1.92579e-08
1.88265e-08
-1.23187e-09
4.77731e-10
-1.80723e-08
1.88041e-08
-8.46025e-10
-1.84553e-08
4.97229e-10
-1.91827e-08
1.9172e-08
-9.29503e-13
1.17011e-11
1.63651e-08
-2.3929e-09
1.72816e-09
-1.57004e-08
1.98543e-08
-1.71657e-09
-1.93045e-08
1.16679e-09
-3.6626e-09
-1.06936e-08
-1.11008e-08
6.74961e-09
2.88562e-10
2.07709e-09
4.84461e-09
-1.56361e-09
-5.3581e-09
-1.30897e-08
9.97337e-09
-7.34351e-09
4.38037e-10
9.316e-10
2.46437e-09
-1.15986e-08
1.0651e-08
-1.51683e-09
2.60237e-09
-9.86619e-09
-1.02353e-10
5.39902e-09
-6.6135e-09
1.31683e-09
-3.09765e-09
1.79023e-09
3.38452e-09
-8.46742e-10
-2.88301e-10
6.1786e-10
-1.18747e-08
-2.38262e-10
-8.71454e-10
1.78233e-10
-1.1429e-09
-5.59087e-09
-9.61777e-09
3.61005e-09
6.79498e-10
4.59044e-09
-5.37229e-09
8.07404e-09
-1.41764e-09
2.29093e-09
-3.66317e-09
-8.21156e-09
8.01345e-09
2.64177e-10
-8.27763e-09
9.7817e-10
-1.05413e-09
4.94545e-10
2.36536e-09
-1.1687e-09
-2.00184e-09
8.05183e-10
1.92689e-09
-4.09331e-10
5.12735e-09
-1.02836e-08
6.01173e-09
3.05619e-09
-3.01715e-09
-2.30516e-09
-9.20128e-09
2.01853e-08
4.70964e-10
-7.34956e-10
-1.80555e-09
2.06954e-09
5.50726e-09
8.88235e-09
-9.26952e-09
5.36908e-09
3.36839e-09
1.20498e-09
1.33946e-08
-3.13676e-10
1.083e-09
-1.00758e-09
1.99542e-09
4.92714e-09
-1.69847e-08
-1.29892e-09
-8.20469e-09
5.90408e-10
-3.18758e-10
6.43298e-10
5.5051e-09
1.86512e-09
1.68603e-10
3.31637e-10
1.11394e-09
1.09268e-09
-8.70157e-10
-1.33645e-09
-8.55984e-10
7.15442e-10
2.2287e-09
-2.08816e-09
1.17878e-08
1.24326e-08
2.30752e-10
4.12546e-10
-1.36357e-08
1.34762e-08
1.36448e-09
1.73498e-08
-6.84108e-09
3.34132e-10
-4.335e-10
-7.72086e-10
1.57966e-09
2.65312e-09
-1.1256e-10
5.61766e-09
-2.69367e-09
-5.34841e-10
-7.2942e-10
-2.2227e-09
9.12781e-10
-9.92309e-09
-4.53396e-11
9.05565e-09
7.08855e-10
-4.23493e-09
-1.33042e-08
1.22061e-08
1.98483e-09
-5.41115e-09
6.59923e-09
2.29173e-09
-8.16917e-10
-6.66582e-09
7.47484e-09
-6.30901e-09
5.49999e-09
-1.62234e-08
7.75661e-09
-5.69471e-09
1.41615e-08
5.01189e-10
7.34479e-10
-9.53359e-09
1.20017e-08
8.17394e-09
-1.0642e-08
-1.39012e-10
-1.83137e-09
-3.91334e-10
1.09658e-08
-1.65078e-09
2.51319e-09
8.96885e-09
-1.08015e-08
-6.80584e-10
7.89565e-10
-7.25571e-10
1.14239e-10
2.69545e-09
-3.35312e-09
-2.43998e-09
1.24374e-08
-1.23981e-08
7.29222e-09
-7.33151e-09
-6.14061e-09
4.63233e-09
-5.51698e-09
6.74999e-10
8.04359e-10
-1.31289e-09
7.37688e-09
2.99461e-09
-2.92702e-09
1.72263e-09
-1.12926e-08
3.81116e-09
8.39427e-09
-7.34977e-09
1.09805e-08
-7.29337e-09
7.97633e-10
-6.63413e-12
-4.74148e-09
-9.31297e-09
7.41406e-09
6.64039e-09
-5.05758e-09
1.06068e-08
1.05001e-09
-1.09152e-09
2.76418e-10
-1.31261e-09
6.42905e-12
1.30964e-09
-3.45759e-12
-5.49381e-09
-1.07269e-08
8.60311e-09
7.25118e-09
1.15104e-08
6.50262e-10
-1.40439e-08
1.88326e-09
-7.0156e-10
4.01307e-10
-1.67629e-10
7.70142e-09
-2.48499e-11
2.06371e-08
-2.0671e-08
5.87648e-11
-1.9422e-08
1.94178e-08
-1.36554e-12
5.59517e-12
-1.98575e-08
-5.42543e-12
1.98487e-08
1.42506e-11
-2.07418e-08
8.02378e-12
2.07649e-08
-3.10508e-11
2.15526e-11
2.07384e-08
-2.07127e-08
-4.73124e-11
-1.38796e-08
1.38547e-08
1.40769e-11
-1.38937e-08
-1.9444e-08
1.95854e-11
2.42436e-12
-2.06385e-08
-2.96298e-11
2.06384e-08
2.96912e-11
-2.95548e-11
-1.97454e-08
1.97181e-08
5.67805e-11
-2.02014e-11
-2.06641e-08
4.58374e-11
-1.98834e-08
1.72256e-11
8.7178e-12
1.3753e-08
-1.37994e-08
4.63541e-11
2.40382e-11
-2.06866e-08
2.06949e-08
-3.23348e-11
1.36624e-08
-1.36398e-08
-2.25609e-11
2.94879e-11
2.06641e-08
-2.06419e-08
-5.16513e-11
2.04441e-11
1.94317e-08
-1.94589e-08
6.68468e-12
1.22796e-11
2.06876e-08
-2.06973e-08
-2.59237e-12
1.94054e-08
-1.94012e-08
2.71565e-12
-6.93348e-12
-1.04283e-11
1.28623e-08
-1.28518e-08
-2.07064e-08
2.06483e-08
-1.7204e-10
2.30195e-10
1.3589e-08
-4.38616e-11
-1.35451e-08
1.30972e-08
-1.30957e-08
-1.45498e-12
-1.38642e-08
1.3844e-08
-1.32452e-08
1.32156e-08
1.38863e-08
-1.38622e-08
-1.36105e-08
-2.12763e-11
1.36318e-08
-1.38952e-08
1.39075e-08
1.37184e-08
3.46322e-11
-1.31865e-08
1.31705e-08
1.60463e-11
1.38417e-08
-1.38122e-08
1.71327e-11
-2.06843e-08
2.06963e-08
-2.91869e-11
-2.11767e-12
-1.98186e-08
1.98242e-08
-3.48391e-12
-3.40936e-10
-2.09086e-08
5.43135e-10
-2.81243e-11
1.97638e-08
-1.97893e-08
5.36453e-11
4.58016e-12
2.06794e-08
-2.06979e-08
1.40023e-11
-8.7689e-10
-2.21188e-08
2.13423e-08
1.65332e-09
4.28301e-12
-2.07704e-08
2.0789e-08
-2.28815e-11
2.42808e-11
1.98542e-08
-1.98505e-08
-2.79341e-11
1.38846e-08
-1.388e-08
-1.44328e-08
1.40919e-08
1.93588e-08
-3.66445e-12
-1.93543e-08
-9.21027e-13
2.35712e-11
2.07196e-08
-2.07172e-08
-2.59049e-11
-1.36404e-08
1.3664e-08
-2.06055e-08
1.11812e-11
2.0612e-08
-1.7664e-11
-1.93607e-08
-1.0623e-10
1.9352e-08
1.14921e-10
-1.49849e-10
1.98446e-08
-2.02298e-08
5.3509e-10
2.07085e-08
-2.07421e-08
8.81109e-12
2.47472e-11
-1.9834e-08
1.98345e-08
-1.15796e-11
1.11026e-11
1.58104e-12
-1.94432e-08
1.94494e-08
-7.70067e-12
2.16434e-08
-2.01069e-10
-2.57616e-08
4.31935e-09
1.93292e-08
-1.30863e-11
-1.93361e-08
1.99567e-11
-1.98668e-08
9.57211e-12
2.32025e-11
1.93715e-08
-1.13451e-12
-1.93754e-08
4.97796e-12
-2.02566e-08
2.00759e-08
-8.97823e-11
2.70464e-10
-2.06701e-08
-2.14542e-10
6.2798e-10
-1.30987e-08
1.3123e-08
1.34932e-08
-1.36431e-08
1.99576e-08
-1.70278e-11
1.35333e-10
1.11389e-11
1.94174e-08
-2.30846e-11
1.1564e-12
-1.98194e-08
1.98374e-08
-1.91289e-11
-1.58981e-08
1.50212e-08
-1.98174e-08
-1.8695e-11
1.98126e-08
2.35384e-11
-1.38563e-08
1.38734e-08
2.07092e-08
-1.28363e-11
1.22007e-11
1.29338e-08
-1.29322e-08
-1.93818e-08
-1.67407e-12
1.9379e-08
4.41952e-12
-2.06351e-08
2.06491e-08
-2.85304e-11
1.45597e-11
-3.71539e-10
2.01572e-08
-2.06424e-08
8.56688e-10
6.84391e-12
1.32929e-08
-1.32998e-08
-1.96985e-12
1.97819e-08
-1.97825e-08
2.54801e-12
-1.50131e-11
-2.06015e-08
1.0973e-11
-1.32767e-08
1.32747e-08
1.36831e-08
-2.06987e-11
-1.31373e-08
2.65392e-11
1.31108e-08
-1.37984e-08
1.37833e-08
-1.6913e-08
8.40688e-10
1.60723e-08
1.08218e-11
-2.0752e-08
2.07286e-08
1.26632e-11
1.86245e-11
1.988e-08
-1.99042e-08
5.59053e-12
1.32886e-08
-1.33167e-08
-8.19271e-12
-1.93652e-08
1.93717e-08
1.6678e-12
-1.31317e-08
1.31504e-08
-2.3876e-11
-1.30066e-08
1.30305e-08
1.71632e-11
2.07481e-08
-2.07734e-08
8.13084e-12
-1.90134e-12
1.94574e-08
-1.94336e-08
-2.19138e-11
-1.9354e-08
-2.41237e-11
1.93475e-08
3.0645e-11
1.38485e-13
2.07886e-08
-2.0785e-08
-3.74636e-12
-1.36904e-08
3.06299e-11
1.36598e-08
5.39459e-12
1.33476e-08
-1.33529e-08
1.36718e-08
-1.36609e-08
1.41129e-08
-1.44844e-08
1.32783e-10
1.47321e-08
-1.48648e-08
-1.97987e-08
1.98126e-08
1.68578e-11
-3.08067e-11
-1.10559e-11
1.9431e-08
-1.94344e-08
1.44298e-11
-1.36469e-08
6.45615e-12
2.83437e-13
1.98228e-08
1.14164e-11
-1.29172e-08
-4.66456e-12
1.29219e-08
-1.3099e-08
3.40447e-13
-1.48049e-11
3.77285e-11
1.93063e-08
-1.32735e-08
-8.57316e-10
1.41308e-08
-1.28878e-08
1.28859e-08
9.5833e-12
-1.36565e-08
2.06969e-08
7.20298e-13
1.15903e-11
-1.31091e-08
1.00336e-11
1.30995e-08
-2.35248e-12
1.38409e-08
-9.92924e-12
-1.3831e-08
-1.69173e-08
1.01914e-09
1.32809e-08
-1.32742e-08
-6.63225e-12
-1.36903e-08
1.37075e-08
-1.50978e-12
-1.29157e-08
1.29152e-08
-1.29262e-08
6.15796e-12
2.06906e-08
-2.36288e-11
-2.07139e-08
4.69126e-11
-1.22519e-09
1.70715e-08
-1.58463e-08
-3.96065e-12
-1.30758e-08
1.30798e-08
-1.27296e-08
1.27449e-08
-1.53309e-11
-2.25401e-08
-1.05942e-09
2.16484e-08
1.95119e-09
2.33773e-08
-1.58668e-09
-2.30158e-08
4.33885e-11
4.7126e-10
2.01447e-08
-7.71385e-10
-1.38302e-08
-9.17463e-10
1.47476e-08
1.93036e-08
-1.74507e-11
-1.93008e-08
1.47138e-11
2.03528e-11
-1.30647e-08
-1.65287e-11
1.30813e-08
5.81502e-12
1.94104e-08
-1.94321e-08
1.58781e-11
-1.98688e-08
-1.05636e-11
1.98642e-08
1.50923e-11
2.06885e-08
-1.38588e-11
1.30203e-11
2.07382e-08
-4.55212e-12
1.44633e-11
1.16053e-11
1.29036e-08
-1.28832e-08
1.2889e-08
-1.28316e-08
-2.02923e-12
1.28336e-08
-1.28761e-08
-1.17218e-11
1.94354e-08
2.97479e-11
-7.67926e-12
1.98479e-08
3.56747e-11
-4.24577e-11
-1.98411e-08
-2.01462e-10
-1.94722e-08
3.1294e-10
-1.29557e-08
1.29941e-08
-3.84244e-11
-1.25303e-11
2.07368e-08
1.39244e-11
1.31966e-08
-1.33981e-08
1.58525e-10
-1.7725e-08
8.07693e-10
-1.36874e-08
1.3703e-08
-1.56158e-11
-1.37029e-08
4.17435e-12
-1.30609e-08
1.3078e-08
-1.71794e-11
1.94283e-08
1.42797e-11
2.10892e-08
3.55255e-10
-2.13117e-08
-2.45549e-12
1.37205e-11
-2.51541e-12
2.06823e-08
1.07764e-11
-1.31479e-08
1.98015e-08
-1.98187e-08
1.32507e-11
-1.78374e-08
1.12461e-10
1.98608e-08
2.01266e-11
-1.98456e-08
-3.53919e-11
-1.17285e-11
-1.28199e-08
-9.54195e-12
1.30851e-08
-1.30755e-08
-2.47084e-11
1.98594e-08
1.41424e-11
-2.55836e-11
1.98652e-08
-1.54248e-11
1.31098e-08
-1.30974e-08
-1.23454e-11
1.94157e-08
1.70885e-11
-1.93874e-08
-4.54144e-11
-1.38131e-08
1.46971e-11
1.9428e-08
-2.40694e-11
9.92976e-10
2.48967e-08
-1.39167e-09
-2.44981e-08
-1.30526e-08
-8.36966e-10
1.38896e-08
-2.3943e-12
-1.29981e-08
1.30005e-08
2.29903e-11
-3.97889e-11
-1.98844e-08
5.97995e-12
1.99022e-08
-2.37798e-11
1.15552e-12
1.30839e-08
2.32176e-08
-2.43171e-08
1.90713e-09
1.93016e-08
-4.61645e-13
1.38463e-08
-5.43834e-12
-1.30754e-08
1.06412e-11
-1.98487e-08
3.81192e-11
-1.30155e-08
1.30227e-08
-1.30371e-08
1.4323e-11
1.29291e-08
-1.29087e-08
-1.30614e-08
4.86234e-12
-2.84505e-11
-2.0775e-08
-3.49122e-12
2.07738e-08
4.68377e-12
-5.53617e-11
7.71391e-11
2.06153e-08
-3.0659e-12
-2.94002e-11
3.15631e-11
-5.83446e-11
-2.06982e-08
-1.38144e-08
1.35343e-12
1.30904e-08
-1.28028e-08
-3.52458e-13
1.98802e-08
-2.56854e-11
1.39645e-08
-1.31121e-08
3.62958e-11
3.97929e-10
1.37149e-08
-1.98238e-08
1.98051e-08
2.40526e-11
-4.8403e-12
-2.07763e-08
6.15114e-12
-1.3069e-08
1.93439e-08
-1.93288e-08
-3.89427e-11
-1.93726e-08
1.01649e-12
1.75891e-11
1.94203e-08
-1.82682e-11
8.39297e-12
1.36587e-08
1.30727e-11
9.6857e-12
1.29241e-08
-6.76879e-13
-1.28707e-08
1.28714e-08
-8.95533e-12
-1.93763e-08
-2.20478e-11
-1.37119e-08
1.37084e-08
1.33298e-08
-1.33286e-08
1.53217e-12
-1.30769e-08
-1.94565e-08
1.94525e-08
-6.81614e-13
-2.90452e-12
-1.30661e-08
-9.25919e-12
1.44529e-08
-4.88407e-10
1.30698e-08
2.05907e-11
6.17823e-11
1.31226e-08
-1.30419e-08
1.30288e-08
-1.31088e-08
1.9392e-08
2.76078e-11
3.04638e-12
-1.45549e-11
1.36351e-08
2.05363e-11
-4.31237e-11
1.94444e-08
1.46219e-11
1.40834e-11
-2.08318e-11
1.2865e-08
-1.9374e-08
-2.01224e-11
2.1448e-11
1.98882e-08
1.21489e-11
5.72747e-11
-1.33631e-12
4.08425e-11
-1.31299e-08
1.31348e-08
-1.37167e-08
-7.223e-12
-1.9324e-08
3.03738e-11
5.46283e-10
-1.41893e-08
-6.13424e-12
-6.03089e-11
7.34618e-11
-1.28532e-08
1.33146e-08
-1.32977e-08
5.88435e-10
2.53591e-11
6.41512e-10
-1.42518e-08
1.36103e-08
2.40089e-11
-1.13208e-11
1.97411e-08
8.14066e-10
-1.97928e-08
1.44789e-11
1.37945e-08
-9.93789e-12
1.93112e-08
-9.7511e-13
-1.93499e-08
3.97144e-11
1.31407e-08
1.61482e-09
-2.26161e-11
3.0865e-11
1.36325e-08
1.14512e-11
-3.65617e-12
-2.06504e-08
2.0666e-08
-2.10963e-11
-2.08408e-08
1.15733e-09
-2.32392e-08
1.53976e-09
1.76881e-11
-4.76104e-11
1.93703e-08
2.77509e-12
-2.31461e-11
2.96652e-10
2.47665e-10
-1.30796e-08
-7.15525e-13
1.30803e-08
-3.16842e-10
5.85751e-10
2.03715e-11
-1.28486e-08
1.28149e-08
3.36541e-11
-2.06105e-08
2.37144e-11
-2.15723e-12
1.97611e-10
-2.04709e-10
2.06894e-08
-1.31012e-08
-2.07723e-08
-1.87963e-11
-1.28497e-08
1.28544e-08
-4.65188e-12
1.98312e-08
1.55954e-12
-1.8015e-11
2.118e-09
-1.2962e-08
1.29543e-08
7.63653e-12
-1.33011e-08
1.37031e-08
1.33958e-08
-1.3306e-08
1.3289e-08
-1.30257e-08
-1.2539e-08
-3.30734e-09
1.93701e-10
-1.9949e-10
1.98073e-08
3.55842e-11
1.96872e-11
-1.31318e-08
-1.68444e-08
-1.27209e-08
-8.68597e-12
-1.11987e-11
9.01162e-12
1.80316e-11
-1.34166e-08
1.34297e-08
-1.30986e-11
1.39198e-08
-1.31204e-08
-1.27193e-08
1.27134e-08
5.95587e-12
-1.35672e-11
-3.27632e-11
-1.277e-08
-1.7037e-11
1.36683e-08
-1.36573e-08
-1.09914e-11
-1.50129e-08
8.2352e-10
-1.98311e-08
1.01042e-11
6.94468e-10
-1.29281e-08
1.29172e-08
1.0961e-11
4.35124e-12
2.0702e-08
4.45832e-12
-2.38698e-10
-1.2814e-08
-6.59281e-12
1.30602e-08
-1.30612e-08
-1.49889e-08
1.24051e-10
1.98509e-08
9.17397e-12
2.0108e-11
-1.37021e-08
1.36924e-08
9.67681e-12
1.98363e-08
3.43229e-11
-1.38595e-08
-3.37027e-11
-1.31622e-08
1.31613e-08
8.83515e-13
-2.08327e-11
-1.34622e-08
1.35032e-08
-4.09707e-11
-1.36558e-08
-9.84082e-09
1.03812e-08
-5.40342e-10
-2.81827e-11
-1.36686e-08
1.93288e-08
-2.5637e-10
-2.79772e-11
6.92142e-10
-4.16034e-11
-1.2914e-08
1.84515e-11
-1.34123e-08
-4.25651e-12
5.39156e-11
-1.3628e-08
1.36381e-08
-1.01295e-11
1.29196e-08
-1.30122e-08
9.2523e-11
-1.31696e-08
7.39243e-12
-8.21872e-12
-4.40295e-11
-1.93761e-08
1.65645e-11
1.36763e-08
-8.04899e-12
2.90752e-11
3.78796e-11
-3.25698e-11
1.83684e-11
-1.28643e-08
1.28505e-08
1.38094e-11
-1.29702e-08
8.28904e-12
-1.31102e-08
1.31217e-08
-1.15065e-11
1.63103e-09
4.66339e-12
-1.32807e-12
-6.10537e-09
-4.1916e-11
9.33135e-13
-2.50988e-11
-1.16091e-11
-9.569e-12
4.67147e-11
-1.34243e-08
1.19692e-11
1.29878e-08
-1.3014e-08
2.62252e-11
1.31722e-11
1.75608e-11
1.63054e-11
1.02216e-09
-1.29482e-08
1.29349e-08
1.32187e-11
-8.80149e-12
-3.16518e-11
-1.34474e-08
-2.06138e-11
1.3468e-08
2.28376e-11
-1.31405e-08
1.31459e-08
-5.39104e-12
-1.89582e-11
-3.33287e-11
1.3146e-08
1.5339e-11
-1.36154e-08
-1.25266e-11
-2.99674e-11
1.28966e-08
-1.29119e-08
1.53597e-11
6.16302e-12
2.93191e-11
-7.66864e-09
8.12671e-09
-4.5807e-10
2.77496e-11
-1.28801e-08
1.28665e-08
1.35988e-11
-1.34791e-08
1.34942e-08
-1.5095e-11
7.88461e-12
-1.27488e-08
8.10439e-13
1.2748e-08
1.28493e-08
-1.2848e-08
-1.36804e-12
1.36934e-08
-1.36502e-08
-4.31526e-11
7.00532e-12
1.64313e-11
-1.2853e-08
1.28636e-08
-1.05398e-11
-4.11167e-13
-1.36873e-08
1.36958e-08
-8.5354e-12
-1.33983e-08
-8.07419e-11
-1.36132e-08
-2.26723e-12
1.26809e-08
-1.26889e-08
8.0498e-12
-1.31537e-08
-2.44658e-10
6.80254e-12
-1.26677e-08
1.26745e-08
-6.7492e-12
1.31451e-08
-1.30961e-08
-4.90215e-11
1.74783e-09
-9.41647e-09
-1.34377e-08
1.34103e-11
-1.31007e-08
-9.46321e-12
1.34298e-08
-1.34487e-08
1.88848e-11
-1.30781e-08
1.30883e-08
-1.01423e-11
-1.26637e-08
-4.01449e-12
1.28821e-08
-1.28767e-08
-5.4766e-12
1.61351e-11
1.28513e-08
-1.28505e-08
-8.05608e-13
-1.26689e-08
1.26672e-08
1.73945e-12
-1.3601e-08
1.36003e-08
7.46715e-13
-1.30795e-08
1.30714e-08
8.10248e-12
-1.3605e-08
-8.19601e-12
-1.30973e-08
1.77709e-11
1.38883e-08
-1.37762e-08
-1.12177e-10
1.33397e-08
-1.32301e-08
-1.09573e-10
1.3427e-08
-1.34143e-08
-1.27146e-11
-1.28966e-08
1.29043e-08
-7.76951e-12
1.42551e-08
-3.66768e-10
-2.0379e-11
-1.36494e-08
-7.83904e-12
2.2117e-12
1.31302e-08
-8.53845e-12
-6.68413e-12
-1.13536e-11
-1.24513e-11
-1.44093e-11
1.26704e-08
-1.26707e-08
3.11015e-13
1.34117e-08
1.80722e-11
4.29673e-11
1.29814e-08
-1.33025e-08
3.21122e-10
1.35164e-08
-6.37407e-13
-1.35158e-08
-8.70981e-12
-1.27401e-08
4.70368e-13
-1.29124e-08
-1.03151e-11
1.36171e-08
-3.8639e-10
-1.32307e-08
1.93739e-08
4.09674e-11
-1.36173e-08
1.62577e-11
-5.81459e-10
-1.25722e-08
-1.36362e-08
1.89338e-11
1.47498e-12
1.25193e-10
-9.96601e-09
1.28604e-08
-1.28778e-08
1.7372e-11
-1.09322e-11
-4.70453e-12
-1.43803e-08
1.83046e-08
-3.92429e-09
1.35077e-08
8.69499e-12
3.50681e-12
-1.26997e-08
-1.96731e-11
1.37033e-08
-3.63574e-10
1.34877e-08
2.00044e-11
-1.34589e-08
2.12458e-11
1.34724e-08
1.52954e-11
1.26093e-08
-2.25816e-10
-1.23835e-08
-2.58286e-12
1.34995e-11
-9.0341e-11
1.27068e-08
6.61353e-12
1.31845e-11
-7.63198e-10
1.26767e-08
4.13538e-12
-1.67484e-12
-1.31301e-08
1.17974e-10
6.81993e-12
-1.48778e-10
-8.28144e-11
-8.49909e-11
6.0275e-12
-1.26977e-08
8.74299e-12
1.28656e-08
-2.04593e-12
1.24672e-11
-1.28576e-08
7.07052e-12
1.2853e-08
1.44033e-12
-4.6454e-12
5.76445e-11
9.0816e-12
3.94228e-10
4.9321e-10
-2.33466e-10
2.40723e-10
-6.32161e-10
-1.37931e-09
2.2014e-09
1.04302e-09
-8.94288e-10
3.03292e-09
1.99446e-09
-1.26439e-09
-1.60758e-09
8.77511e-10
-9.74238e-09
-3.27735e-09
1.22986e-08
-1.13828e-09
-2.02996e-09
1.06076e-09
2.10749e-09
-1.07342e-09
-4.30803e-10
-1.19549e-09
8.34977e-09
-2.0452e-08
2.95559e-11
-3.61264e-11
2.04509e-08
2.18531e-08
-2.18382e-08
4.39555e-11
3.51279e-11
-1.9644e-08
1.96097e-08
3.08813e-11
-1.92156e-08
1.91909e-08
-3.91188e-11
2.09059e-08
7.50573e-11
2.04627e-08
-2.04498e-08
2.09283e-08
-2.09102e-08
2.08979e-08
-2.09001e-08
-7.36965e-12
-1.93706e-08
1.93615e-08
9.84415e-12
2.09257e-08
-3.76023e-12
-8.10038e-12
-2.19876e-11
2.04871e-08
2.18362e-08
-2.1819e-08
-1.98327e-11
2.09153e-08
-2.09124e-08
-2.37158e-11
-2.04509e-08
2.4543e-11
2.0457e-08
-3.91571e-12
2.18402e-08
8.99416e-12
3.35312e-11
-1.80601e-11
-2.09252e-08
2.1817e-08
-2.18107e-08
-3.86617e-11
-2.0473e-08
2.04713e-08
1.06177e-12
2.04884e-08
-1.94162e-11
-2.0497e-08
-2.18748e-08
2.18612e-08
1.97733e-11
-2.18779e-08
2.1872e-08
2.12605e-12
2.09485e-08
-2.48087e-11
-2.0959e-08
-2.04942e-08
-1.42854e-12
2.0943e-08
-2.29807e-11
2.18836e-08
-2.44689e-11
-2.1878e-08
-1.32515e-11
2.18806e-08
-1.98929e-11
2.04879e-08
-2.13973e-11
-8.84561e-12
-4.12992e-12
-5.88549e-11
2.18505e-08
-1.39645e-11
2.09328e-08
-1.35568e-11
2.06696e-08
5.43322e-12
-2.0461e-08
2.76415e-11
-2.09197e-08
1.91596e-11
2.09241e-08
-2.18708e-08
2.18796e-08
9.65837e-12
-2.04381e-08
-1.43913e-12
-4.89084e-12
-2.04426e-08
8.84761e-12
-2.29797e-11
-2.18308e-08
-3.72451e-11
2.06499e-08
-2.06333e-08
2.09413e-08
-1.51316e-12
2.06587e-08
1.95528e-11
-2.09443e-08
2.09401e-08
1.79513e-11
-2.18849e-08
2.18799e-08
1.94469e-11
-2.04361e-08
-2.06315e-12
2.04544e-08
-2.04472e-08
-2.51848e-12
-2.04773e-08
2.04859e-08
-1.97427e-12
2.56169e-12
2.81198e-12
2.04404e-08
-2.04301e-08
-5.33225e-12
-3.7761e-12
8.20232e-13
2.18869e-08
6.86869e-12
-2.09129e-08
3.12811e-11
2.09476e-08
7.61858e-12
2.08767e-08
-2.08323e-08
9.09468e-11
-2.09018e-08
2.97779e-11
2.04891e-08
-2.0504e-08
2.27558e-11
-2.18283e-08
2.18369e-08
-4.03838e-12
3.21677e-11
-2.04409e-08
-1.00203e-11
2.04856e-08
-2.048e-08
-1.33182e-11
2.09571e-08
1.4425e-11
2.18958e-08
1.64772e-11
-2.04281e-08
-1.10898e-11
-2.07898e-08
2.27956e-10
2.31166e-11
2.18975e-08
2.04927e-11
2.09598e-08
2.04946e-08
9.00365e-12
2.18567e-08
-2.1854e-08
-3.19314e-11
2.07425e-08
4.87503e-09
-2.12981e-08
2.04191e-08
-2.0407e-08
-1.29632e-11
-2.07634e-08
6.0161e-10
2.18311e-08
-2.18421e-08
2.50133e-11
-3.77691e-12
3.83928e-11
1.59384e-09
-2.1808e-08
-1.2664e-11
2.18353e-08
6.40865e-12
-1.90823e-08
-9.2345e-12
1.83284e-08
-1.91067e-08
-2.43402e-10
1.92597e-08
-1.83497e-11
-8.5974e-12
-6.42262e-10
5.81495e-11
-2.17927e-08
2.0995e-08
-2.10173e-08
5.66682e-11
-5.28416e-10
2.19293e-08
-2.19399e-08
3.83227e-11
-2.09883e-08
2.09351e-08
6.64665e-11
6.05899e-11
2.19178e-08
5.84134e-11
2.02619e-08
-9.89049e-10
2.18572e-08
7.14154e-11
-7.48949e-11
2.17273e-08
-2.09394e-08
1.1188e-09
2.05151e-08
-6.93184e-11
2.08049e-08
7.86109e-10
-2.13702e-08
2.42803e-09
-2.25753e-08
2.20544e-08
-8.15823e-09
9.06147e-09
-1.57505e-08
5.78728e-10
5.49978e-10
-1.00421e-10
-3.53241e-09
8.2242e-10
5.84487e-10
1.82773e-09
-1.69677e-09
7.74989e-09
-7.98258e-09
-6.74291e-09
6.9756e-09
2.06791e-11
1.27273e-08
3.14697e-11
2.0941e-08
-1.79676e-11
1.26924e-08
2.78031e-12
1.31528e-08
-1.31556e-08
3.08056e-11
-1.3667e-08
2.89752e-11
-1.31263e-08
-1.56085e-11
1.34836e-08
2.54331e-11
-1.29032e-08
-1.23659e-12
1.29056e-08
2.47455e-11
1.36696e-08
-1.36943e-08
3.30144e-11
1.31059e-08
-1.31389e-08
1.39911e-11
1.34802e-08
2.40153e-12
-2.09996e-08
4.4762e-11
-2.05457e-08
2.05419e-08
2.12612e-12
1.28866e-08
-1.28887e-08
-5.25389e-12
-2.19219e-08
-7.97696e-10
1.11789e-08
-2.9676e-10
-1.30965e-08
1.33933e-08
-1.55801e-09
-1.01792e-08
1.17372e-08
-1.65283e-09
9.77954e-09
9.67885e-10
7.29998e-09
-8.26787e-09
-3.65921e-10
4.31362e-10
-1.51636e-09
1.45092e-09
1.9361e-08
2.12365e-11
-1.97263e-08
2.26693e-11
1.93454e-08
-1.93388e-08
-1.9626e-08
1.96302e-08
-1.96132e-08
-3.36458e-12
-2.04577e-08
2.0464e-08
2.06651e-08
-3.07811e-11
-1.91857e-08
1.91917e-08
1.97502e-08
-1.97323e-08
-2.04799e-08
2.62912e-11
-1.96021e-08
3.15147e-11
2.06419e-08
-2.06405e-08
1.95775e-08
-1.26059e-11
1.80587e-08
-1.77376e-08
2.04498e-08
-7.47976e-12
-1.91746e-08
-5.99032e-12
1.72392e-08
-2.43214e-09
1.92016e-08
1.51528e-11
1.84685e-08
-1.76933e-08
1.55465e-08
2.97928e-10
-1.48765e-08
1.22014e-09
1.8695e-09
2.35022e-09
3.51424e-09
-2.09981e-09
-3.76466e-09
-5.25352e-10
-2.18278e-09
6.24388e-10
2.08374e-09
-5.65404e-10
-8.75678e-10
7.83748e-10
4.28514e-09
-1.91996e-09
7.54232e-09
-4.65268e-10
-1.22999e-08
1.27652e-08
8.24754e-10
-9.75203e-10
-1.83541e-09
1.74142e-09
-1.01182e-08
1.18966e-08
3.73431e-09
-1.54776e-08
-2.89932e-09
1.01899e-08
8.18697e-09
4.2145e-09
2.93551e-09
-3.78162e-09
-1.68361e-09
-1.31963e-09
-2.6302e-09
2.10781e-09
1.84201e-09
-6.91842e-09
-2.69569e-09
1.0746e-09
6.40081e-10
9.49408e-09
-9.93817e-09
1.12885e-09
1.35352e-09
7.90781e-10
-2.49035e-09
-8.94264e-10
2.06499e-09
4.45069e-09
8.79446e-10
1.35368e-09
5.33448e-10
-1.06238e-09
-1.14453e-08
-1.86841e-09
1.16415e-09
1.21496e-08
8.74055e-09
3.92613e-10
-9.13316e-09
-1.0857e-08
1.13184e-09
1.44902e-08
-7.04944e-10
8.9287e-09
-8.23148e-09
-6.19103e-09
-2.52681e-09
2.82181e-09
2.35395e-09
-5.93629e-09
-8.06799e-09
2.59992e-11
1.99297e-11
8.35671e-09
3.87114e-09
-9.93693e-09
-2.52978e-09
6.89733e-10
-1.96788e-08
1.1938e-08
7.05109e-09
-7.01331e-09
4.69476e-09
-5.44746e-09
3.05108e-09
3.15883e-09
1.61357e-09
-1.35933e-08
-1.50757e-09
-1.22449e-11
4.42872e-09
1.3751e-09
1.30123e-09
7.54547e-10
5.40098e-09
-2.09346e-08
7.67064e-10
-4.14844e-09
5.637e-11
2.04247e-09
2.73501e-09
-2.42726e-09
-1.35389e-09
4.21795e-10
4.26817e-10
9.78074e-09
-6.90779e-10
7.63737e-10
6.1935e-10
6.6798e-10
2.96707e-09
-1.53436e-08
2.6156e-09
1.23152e-08
4.12783e-10
6.66533e-09
3.61931e-09
-9.36594e-09
3.23056e-09
1.68554e-09
-4.43349e-09
5.90678e-09
2.95562e-09
1.56798e-08
-3.14114e-09
-1.7513e-08
-4.59256e-09
7.21819e-10
5.55628e-09
5.09589e-09
8.47386e-09
-2.64133e-09
-1.09284e-08
6.59294e-09
3.35661e-09
-2.57267e-09
-7.94934e-10
-9.65958e-10
-1.62586e-09
1.14054e-08
-7.07411e-10
1.18863e-08
1.30067e-11
1.34672e-08
-6.45611e-12
1.2912e-08
-1.33941e-11
1.3497e-08
-2.04424e-11
1.27129e-08
5.71731e-12
1.27216e-08
-1.90314e-08
6.16779e-10
1.81178e-08
-1.15503e-09
3.01572e-09
6.09616e-09
-4.2447e-09
4.22347e-09
6.21972e-09
-4.34703e-09
1.06007e-08
-1.4387e-08
2.42537e-09
7.00079e-10
-7.05116e-10
-1.5973e-12
-1.45545e-09
-1.14437e-11
1.28619e-08
2.26627e-09
-3.76424e-09
-2.19058e-08
-2.09801e-08
-2.06644e-08
-2.08112e-08
2.07366e-08
-2.23631e-08
2.151e-08
-2.05191e-08
-2.02678e-08
2.02358e-08
-8.451e-09
1.28983e-08
-1.2947e-08
1.29888e-08
2.05076e-08
-2.05296e-08
-1.2753e-08
1.31018e-08
1.36548e-08
-2.17105e-08
2.16473e-08
1.3697e-08
-1.4203e-11
1.28798e-08
1.31469e-08
2.19036e-08
-2.18965e-08
2.09758e-08
-2.09636e-08
1.97041e-08
-2.09229e-08
2.09352e-08
-2.04561e-08
2.04518e-08
-2.18338e-08
2.18461e-08
1.31404e-08
2.09776e-08
-2.09764e-08
2.0591e-08
1.29172e-08
-1.9354e-08
1.92867e-08
2.05078e-08
-2.05099e-08
-1.9808e-08
-5.053e-12
1.3151e-08
2.09322e-08
1.36861e-08
2.18743e-08
-2.1858e-08
-2.29547e-10
-6.90695e-09
-2.64038e-09
1.09614e-08
-8.5506e-09
-7.25371e-09
-1.23248e-08
1.10111e-09
-7.8685e-11
8.90971e-09
-3.82957e-11
6.37954e-10
2.06043e-08
-1.52685e-08
8.21141e-09
3.3639e-11
-1.90917e-11
1.23338e-11
-1.39526e-11
-1.95968e-08
-2.10223e-11
4.62273e-12
1.93493e-08
1.74192e-11
1.50974e-11
-1.41533e-11
-3.88607e-11
-1.9172e-08
-1.15473e-11
8.89438e-12
-1.97415e-08
-3.12818e-11
3.35504e-11
-6.99417e-11
1.96578e-11
-7.95778e-12
-1.43509e-11
-1.8489e-09
1.0158e-09
1.18781e-10
1.07737e-10
1.05784e-11
-2.65188e-12
2.06348e-08
2.01075e-11
-1.10399e-09
-2.46181e-09
6.90033e-12
1.96272e-08
2.86665e-12
2.04853e-08
-1.30491e-09
1.15102e-09
-8.35223e-09
-3.17891e-09
-1.19986e-09
-9.48962e-10
-1.22091e-08
-3.68916e-09
-1.41477e-08
5.4821e-09
1.15685e-08
-1.4435e-08
-8.33503e-10
1.18795e-09
-7.00322e-13
7.89e-12
1.93421e-08
2.99937e-12
-1.96048e-08
-1.84517e-11
2.53819e-11
2.06278e-08
3.49062e-12
-1.91897e-08
-6.11764e-09
-1.69246e-08
-4.02739e-09
-2.95375e-09
2.39057e-08
4.94893e-10
2.24649e-09
-5.83754e-09
4.22434e-09
1.07318e-08
-1.19938e-08
6.74408e-09
2.39959e-09
-8.90218e-09
-1.90577e-08
1.74113e-08
9.40308e-09
-4.70542e-11
4.13971e-09
2.0954e-10
9.92561e-09
-5.14185e-09
2.01762e-08
-1.34132e-08
4.74742e-09
-4.96207e-10
-1.30408e-08
2.13041e-09
2.00085e-09
8.90951e-09
1.22072e-08
-9.62051e-09
-1.87083e-10
-2.36907e-09
1.11096e-08
6.51944e-09
-6.24016e-10