/*--------------------------------*- C++ -*----------------------------------*\
  =========                 |
  \\      /  F ield         | OpenFOAM: The Open Source CFD Toolbox
   \\    /   O peration     | Website:  https://openfoam.org
    \\  /    A nd           | Version:  8
     \\/     M anipulation  |
\*---------------------------------------------------------------------------*/
FoamFile
{
    version     2.0;
    format      ascii;
    class       surfaceScalarField;
    location    "3.8";
    object      phi;
}
// * * * * * * * * * * * * * * * * * * * * * * * * * * * * * * * * * * * * * //

dimensions      [0 3 -1 0 0 0 0];

internalField   nonuniform List<scalar> 
10659
(
-8.64283e-09
8.84327e-09
2.36901e-10
-4.37342e-10
4.0862e-10
-7.23144e-10
8.65209e-09
-8.33757e-09
8.53067e-09
-7.86057e-09
6.09395e-10
-1.27949e-09
-8.41408e-09
-3.62808e-10
1.3406e-10
-1.23907e-08
3.17133e-09
9.8856e-09
-6.66236e-10
-3.49144e-10
5.92627e-09
-6.27999e-09
7.02857e-10
1.12891e-10
4.75604e-11
-8.12255e-11
-7.92262e-11
-1.52354e-09
-2.46543e-09
2.41244e-09
1.57653e-09
8.98931e-09
-8.83039e-09
4.65085e-11
-2.05423e-10
-2.46509e-09
2.14907e-09
-4.08604e-09
4.40206e-09
-9.286e-09
-1.0283e-10
1.38395e-10
9.25044e-09
-4.27749e-10
5.80009e-09
-5.37234e-09
-8.65402e-09
8.92821e-09
2.40506e-10
-5.14692e-10
1.32678e-10
8.10607e-09
-2.81688e-10
-7.95706e-09
-6.04617e-11
2.91312e-10
8.75846e-09
-1.99019e-09
-3.80003e-09
3.32513e-09
-2.4387e-10
2.44747e-10
-8.77117e-13
-2.14562e-09
-5.90011e-09
4.28169e-09
3.76404e-09
-7.27586e-09
-3.42757e-10
9.85996e-10
6.63262e-09
-8.56454e-09
-2.64548e-10
-1.30514e-12
-5.3343e-09
5.59009e-09
-2.55789e-10
9.40631e-11
-1.20594e-10
1.39422e-10
5.06403e-09
3.0165e-09
-7.51388e-09
-5.66654e-10
-1.49806e-10
6.61127e-09
-6.24539e-09
-3.65883e-10
-9.56653e-09
-2.56057e-10
6.95226e-10
9.12736e-09
-8.44868e-09
-3.29462e-10
1.24117e-10
9.06573e-09
1.76726e-10
-3.99187e-10
5.50292e-09
-2.51502e-09
-6.46053e-09
3.47263e-09
8.8407e-09
-8.72733e-09
2.22388e-11
-1.35606e-10
-9.23039e-09
9.55129e-09
5.7265e-10
-8.93557e-10
2.37726e-10
1.14755e-10
-2.24688e-10
-1.27793e-10
-7.60046e-09
6.44146e-09
3.06252e-09
-1.90351e-09
-1.10542e-08
2.61828e-09
8.74637e-09
-3.10417e-10
-9.5659e-09
-1.2431e-10
3.98462e-10
9.29175e-09
6.90706e-09
4.03297e-10
-7.13038e-09
-1.79971e-10
6.40128e-09
-5.71652e-09
-2.16565e-10
-4.682e-10
7.45576e-09
-6.07577e-10
2.00515e-10
-7.0487e-09
-9.52607e-09
2.05976e-10
-1.9434e-10
9.51443e-09
1.20739e-10
7.70544e-09
9.00432e-10
-8.72661e-09
-7.77285e-09
1.03897e-09
8.5461e-09
-1.81222e-09
4.44074e-09
-1.03399e-09
2.99453e-09
9.10258e-09
3.2231e-10
-8.94219e-10
5.3997e-09
3.01779e-09
-3.73379e-09
-4.68369e-09
-2.62687e-09
2.54363e-09
9.32626e-09
-9.24303e-09
-3.11249e-10
-7.49144e-09
1.7579e-10
7.6269e-09
-3.69643e-11
8.33726e-12
8.86932e-09
-8.98784e-09
3.06841e-10
-8.45075e-10
-1.62723e-09
-8.38858e-09
1.62515e-09
8.39067e-09
-7.79709e-09
5.76742e-09
-6.20265e-09
8.23231e-09
1.16038e-09
4.94986e-09
-5.31865e-09
-7.91582e-10
-8.66269e-09
-2.15544e-11
-4.30877e-11
-6.82181e-10
-9.07266e-09
1.88935e-10
-9.10525e-09
-3.73737e-11
-4.0739e-11
9.18336e-09
9.35216e-09
1.7844e-10
-6.0239e-10
7.35884e-10
-8.76761e-09
-2.68409e-10
8.30013e-09
-1.20881e-08
-9.30983e-11
-4.37975e-10
1.26191e-08
-2.74409e-09
6.02257e-09
-1.06296e-08
7.3511e-09
8.62715e-09
-7.86049e-10
-8.1306e-09
2.89493e-10
-9.01829e-09
9.0754e-09
-3.11338e-09
3.05628e-09
-2.18879e-09
4.69158e-09
3.00013e-09
9.7542e-09
-1.78463e-09
7.50221e-10
-8.71979e-09
-8.26869e-09
-1.57466e-09
6.84648e-09
2.99687e-09
1.26685e-09
-2.35388e-09
2.26456e-09
-1.17753e-09
4.98465e-12
7.22315e-11
1.94921e-10
-2.72137e-10
-6.07693e-10
1.46893e-09
-5.7593e-09
4.89806e-09
-5.55112e-10
2.33804e-09
-3.77312e-09
-7.5721e-09
-1.15169e-09
8.72379e-09
-4.40998e-10
8.15818e-09
1.31872e-10
-7.84905e-09
-5.07394e-10
9.28332e-09
3.20001e-10
-9.09593e-09
9.04373e-09
8.46606e-11
-8.92241e-09
-8.53358e-09
-4.85285e-10
1.46425e-09
7.55462e-09
3.48531e-11
3.46985e-09
-1.07376e-10
-3.39733e-09
-2.78578e-09
-7.48321e-10
3.51208e-09
2.20225e-11
4.49795e-09
-4.37233e-09
1.03476e-09
-8.22616e-09
-2.60146e-10
7.76002e-10
7.7103e-09
3.68592e-09
3.75919e-09
-1.8131e-09
-5.63201e-09
-4.76206e-10
-9.26887e-09
1.46075e-10
9.599e-09
7.31077e-09
-1.50015e-09
1.22504e-09
-7.03566e-09
9.01457e-09
-1.44913e-09
-8.22464e-09
6.59207e-10
2.44154e-09
-8.59454e-10
2.85865e-09
5.63446e-09
-4.42618e-09
4.61995e-09
-5.82823e-09
-4.39813e-09
5.29346e-09
-4.91876e-09
4.02343e-09
-7.40247e-09
3.97362e-10
-2.70754e-10
1.11965e-08
4.80753e-10
-3.23761e-09
-8.43959e-09
-5.2378e-10
8.56031e-09
1.49051e-10
-8.18558e-09
-1.33157e-09
4.70137e-09
-3.3698e-09
2.45304e-09
-6.67522e-10
8.29213e-10
-2.61473e-09
1.11941e-08
-3.73725e-09
-8.30578e-09
8.48895e-10
-5.15942e-09
-1.57003e-10
-4.00096e-10
-4.97376e-09
4.60498e-09
1.97932e-09
-1.61054e-09
4.36832e-10
-1.82779e-09
7.9391e-09
-6.54814e-09
-8.28065e-09
1.42986e-09
-5.76508e-10
7.4273e-09
-8.42483e-09
-5.03067e-11
3.48561e-10
8.12658e-09
2.30264e-09
7.97959e-09
-5.16082e-09
-5.1214e-09
-3.99126e-09
3.96974e-09
1.98099e-09
-1.95948e-09
-8.9205e-09
-7.8298e-10
1.83937e-09
7.86411e-09
5.40927e-09
4.26234e-09
-6.14731e-09
-3.5243e-09
-4.58358e-09
1.11547e-08
3.03783e-09
-9.6089e-09
6.94903e-09
-2.47221e-09
-8.09145e-09
3.61462e-09
-5.81036e-09
5.98545e-09
-1.75088e-10
7.60218e-09
-1.44177e-10
-8.96441e-11
-7.36836e-09
1.91197e-09
-5.71174e-09
5.02127e-09
-1.22151e-09
-3.89013e-09
-2.18259e-09
2.08146e-09
-9.47637e-09
2.16059e-10
-1.79392e-09
1.80852e-10
3.88157e-10
8.49079e-09
-9.0598e-09
-5.26688e-09
-7.12033e-09
3.65748e-09
8.72973e-09
-3.99764e-10
-5.42037e-09
1.13936e-08
-5.57348e-09
-2.70859e-09
-6.02058e-10
7.94938e-10
2.51571e-09
-1.50866e-10
-2.97748e-10
2.34879e-10
2.13735e-10
3.33322e-09
-2.88227e-09
2.82153e-09
-3.27248e-09
3.12407e-09
1.1593e-10
-3.04794e-09
-1.9206e-10
7.57639e-09
-8.59238e-09
1.28338e-09
-2.6738e-10
7.81301e-09
5.8539e-11
-2.67735e-10
-7.60381e-09
-9.13405e-09
-6.6154e-10
1.87775e-09
7.91784e-09
-1.25689e-09
7.1639e-09
-7.52624e-09
1.61923e-09
1.14762e-08
-2.95954e-10
-6.87565e-09
-4.30465e-09
8.0546e-09
-2.66849e-10
-2.1137e-10
-1.01701e-10
3.41134e-10
8.52528e-09
-8.76471e-09
-3.3446e-09
3.20812e-09
-8.88182e-09
-5.00381e-10
-9.04914e-09
1.90766e-10
9.35876e-09
6.90118e-09
-7.539e-09
-7.26007e-09
7.8979e-09
-6.14767e-09
2.55464e-09
6.55466e-09
-2.96163e-09
4.24831e-10
-5.16528e-10
5.01394e-09
-4.26916e-11
1.13659e-09
-6.10784e-09
4.33834e-09
2.85895e-10
-3.89905e-09
-7.25181e-10
-6.14974e-09
6.28241e-09
6.33232e-11
-9.82632e-09
-1.04165e-09
1.08047e-08
3.68019e-09
2.4165e-09
-2.76347e-09
8.62511e-09
-8.29105e-09
-5.36862e-10
2.02803e-10
-6.52656e-10
-8.86665e-09
9.01192e-09
-1.53564e-09
-2.5908e-10
6.7453e-09
-4.95059e-09
-6.82215e-09
5.75514e-09
1.07669e-09
-9.68291e-12
-1.8247e-10
-7.57351e-09
8.38804e-11
7.6721e-09
-3.82038e-10
1.2565e-10
-8.73145e-09
-2.62021e-09
2.80605e-09
-1.85839e-10
8.77453e-09
-4.16978e-11
2.69934e-10
-9.00277e-09
-3.23106e-09
3.22405e-09
4.1864e-11
-1.79489e-09
-3.44094e-09
3.16949e-09
2.06634e-09
-8.21593e-09
-1.73881e-10
7.99181e-09
3.98001e-10
-2.37467e-09
-4.0239e-09
3.5163e-09
-7.43627e-10
8.13792e-10
-7.01655e-11
-9.00581e-09
1.30836e-09
-8.36134e-10
6.43906e-09
5.76829e-10
-2.0012e-09
-5.01469e-09
4.36942e-12
-8.71627e-11
1.9077e-10
-1.07976e-10
7.5467e-09
3.70018e-09
-9.95176e-09
-1.29512e-09
-2.77404e-09
1.51676e-10
-1.13866e-08
-1.31096e-09
2.24215e-09
6.6155e-09
-7.75155e-09
2.47163e-09
-4.09089e-09
9.37081e-09
-4.14918e-09
4.31089e-09
5.24756e-09
-1.4614e-10
1.9441e-10
-1.32901e-11
-3.498e-11
-3.62277e-10
4.5612e-10
-2.20495e-09
2.1111e-09
-1.91302e-10
-5.61906e-09
-1.23872e-09
1.34877e-09
-1.10049e-10
2.17166e-09
5.31626e-09
-5.56236e-09
-1.92555e-09
3.15658e-11
3.42361e-10
-6.52546e-11
-3.08672e-10
-8.99255e-11
6.09435e-11
1.98157e-09
-1.95259e-09
-9.72519e-10
5.8728e-09
2.91668e-09
-7.81696e-09
-1.3591e-09
5.02291e-09
-6.2996e-09
2.6358e-09
-8.17783e-09
5.9978e-10
9.10394e-09
-1.52589e-09
-7.05465e-09
6.88394e-09
2.7967e-10
-1.08963e-10
7.98012e-09
-2.23062e-09
2.24641e-10
-5.97413e-09
-2.0985e-09
1.58071e-09
6.95686e-09
7.66558e-10
-5.0637e-09
-7.44413e-10
5.04156e-09
-2.35915e-09
2.10246e-09
3.94256e-09
4.37443e-09
-4.90046e-09
-3.41654e-09
3.90263e-10
5.66678e-12
5.71062e-13
-3.96501e-10
-1.45604e-09
4.32937e-10
1.07773e-08
-8.93549e-09
5.42457e-11
-1.29328e-09
1.01745e-08
1.01507e-08
-3.6321e-09
1.81771e-09
-8.33635e-09
1.9413e-09
-1.03087e-09
-9.80059e-09
8.89016e-09
9.06073e-09
9.85573e-10
-4.13278e-10
-9.63302e-09
1.02591e-10
-2.60149e-10
-6.66459e-09
2.53789e-10
-1.6693e-10
-8.99605e-09
8.86978e-10
-8.11434e-10
-3.82391e-10
-6.87732e-10
-9.76947e-09
1.08396e-08
-1.59927e-09
-8.75286e-09
2.24402e-09
8.10811e-09
9.87459e-11
-1.09449e-09
1.19789e-09
-2.02149e-10
-2.02479e-09
-8.3802e-09
2.49818e-09
7.90681e-09
-7.98558e-10
-8.58947e-09
1.72504e-09
7.66299e-09
-9.23417e-09
-9.44527e-10
9.47469e-09
7.04003e-10
2.52481e-09
-1.68737e-09
1.21905e-09
-2.05649e-09
-6.21186e-10
-8.49499e-09
1.43796e-09
7.67822e-09
2.47266e-11
1.12349e-11
7.4198e-09
-2.49731e-10
2.90135e-10
-4.04036e-11
5.62514e-10
-7.89388e-09
7.86734e-09
-5.35979e-10
6.98398e-09
5.72049e-10
-2.83793e-10
-7.27224e-09
2.28638e-10
-1.01085e-08
-2.5108e-09
-1.55482e-09
-1.38814e-10
1.5673e-09
1.26341e-10
4.20148e-09
-1.14852e-09
-4.84785e-09
7.63948e-10
4.87052e-09
5.65369e-09
-5.09118e-09
8.90471e-09
3.83369e-09
-1.26215e-09
7.53405e-10
2.10425e-10
-7.60787e-10
-2.03043e-10
-8.33508e-10
3.57603e-09
-3.4764e-09
7.33876e-10
-9.62148e-09
1.10594e-09
-6.18503e-10
8.57644e-09
1.05302e-09
-8.89357e-09
5.07939e-10
-4.59444e-10
-1.53876e-10
1.05381e-10
5.23979e-09
-2.50892e-09
-4.53614e-09
1.80527e-09
3.32809e-10
-2.06282e-10
-8.78921e-09
-2.4366e-09
2.15002e-09
7.92329e-10
-5.05751e-10
-2.05388e-09
-6.37618e-10
-6.19957e-09
8.89108e-09
-4.21196e-11
-4.012e-10
4.43319e-10
-2.44915e-09
2.23921e-09
-7.96546e-09
6.92479e-09
-6.44702e-09
7.48769e-09
-1.28134e-09
9.37802e-09
1.97959e-09
3.16782e-10
-8.13358e-10
-3.44182e-10
8.40758e-10
-4.96431e-10
-2.7171e-09
7.76936e-10
-6.59266e-09
-1.15004e-09
7.70603e-09
3.66708e-11
2.93154e-09
-9.09302e-09
1.02948e-08
-4.13336e-09
-3.24641e-09
-6.61426e-09
-5.47423e-11
9.91542e-09
-5.12833e-10
-2.35917e-09
2.65734e-09
2.14669e-10
-4.5566e-10
2.91002e-10
1.01712e-08
-2.00754e-09
1.38765e-09
-1.42347e-09
3.94444e-10
-6.83155e-09
-1.95072e-10
-8.0848e-09
6.39407e-11
-1.50462e-10
7.62939e-09
-1.07886e-10
-7.37104e-09
-3.34327e-10
1.50901e-10
1.06653e-09
-9.66964e-09
-7.98522e-10
9.40163e-09
8.62335e-11
4.12223e-10
-3.66725e-10
-1.31732e-10
2.83438e-09
-3.06608e-09
-6.22063e-09
6.45233e-09
8.40986e-11
-7.29748e-11
-1.56595e-09
6.07967e-09
7.68222e-09
-9.37837e-09
-4.38353e-09
-2.30076e-10
1.57038e-11
2.43946e-09
-8.50098e-09
-9.52053e-11
6.15673e-09
-8.81373e-09
8.86063e-09
3.12443e-09
-1.22985e-10
1.24589e-10
7.60058e-09
2.47213e-09
-2.06127e-09
-8.34884e-09
7.93798e-09
5.70684e-13
-6.20861e-11
-3.38115e-10
-1.97682e-09
2.15294e-09
1.61995e-10
4.11988e-10
-6.20818e-09
5.79619e-09
3.94596e-09
-7.2767e-10
-6.56536e-09
3.34708e-09
-2.28265e-10
4.52715e-11
-3.37274e-09
1.27331e-09
-1.39677e-09
3.4962e-09
3.75351e-10
-5.52221e-09
5.14686e-09
-8.09296e-09
5.26463e-09
-2.52833e-09
5.35665e-09
-4.77613e-10
7.47356e-10
1.88028e-09
-1.96554e-10
2.17675e-09
-2.07012e-09
-2.70766e-10
-1.68232e-09
1.81919e-09
1.33903e-10
6.87359e-11
-8.53155e-09
1.41359e-11
5.62427e-10
-1.74094e-10
1.19606e-10
-1.54126e-09
2.08714e-09
-7.75008e-09
7.20421e-09
1.39521e-08
-1.23239e-08
1.46961e-09
-3.09774e-09
3.11337e-09
6.74543e-09
-6.62641e-09
-3.23239e-09
-2.33363e-10
1.54592e-09
1.16503e-10
-1.42906e-09
2.64569e-09
-6.35513e-09
6.54381e-09
-5.3103e-09
5.36472e-09
4.1334e-09
-4.18782e-09
-4.52884e-09
2.00463e-09
5.81029e-09
-3.28609e-09
-6.81207e-09
-2.62797e-09
6.7501e-09
2.68994e-09
-7.87327e-10
2.14654e-09
1.1656e-09
-3.81605e-10
4.25719e-10
8.05581e-09
6.06732e-09
-5.89042e-09
-8.23272e-09
-8.47789e-09
8.61933e-09
1.73214e-10
-3.14652e-10
-5.84742e-09
5.05583e-09
1.00235e-09
-2.10761e-10
-6.68497e-09
-3.09196e-10
6.79426e-10
6.31474e-09
1.3526e-10
-7.76658e-09
8.07222e-09
-4.409e-10
-9.57324e-09
4.2119e-09
-3.52649e-09
8.88782e-09
-8.84027e-09
-7.11609e-10
1.32572e-09
4.52533e-10
-8.86309e-09
-1.53988e-10
5.69962e-09
2.45057e-10
-1.60633e-09
1.39982e-08
-1.03063e-08
-8.27543e-09
-5.95724e-11
-8.48895e-09
1.34444e-10
6.21825e-09
-5.80963e-09
4.1693e-09
-5.22494e-09
6.21324e-09
-5.15761e-09
1.08132e-10
-1.51174e-09
1.48771e-09
4.8167e-09
-9.01118e-10
-6.81e-09
2.89442e-09
-1.20261e-09
1.28338e-09
-8.93505e-09
8.85428e-09
1.13971e-08
-1.4451e-09
-9.62446e-09
-3.27509e-10
-1.80509e-09
4.90446e-11
1.81698e-09
1.37855e-10
-6.30784e-10
-6.38466e-11
5.56775e-10
7.4374e-10
-3.23883e-10
2.77982e-10
-6.97839e-10
8.09823e-09
-2.49829e-09
-7.02341e-09
7.44816e-10
-1.02095e-10
1.10685e-10
5.61035e-09
-1.08964e-09
-6.34043e-09
1.81971e-09
4.92992e-09
-8.92009e-09
1.01376e-08
-6.14743e-09
2.68866e-10
-1.23349e-09
-2.49465e-10
1.21409e-09
-1.98269e-09
2.61807e-09
-2.4535e-09
1.81811e-09
8.00565e-09
-7.76514e-09
2.11818e-10
-4.5233e-10
-3.13716e-11
8.77845e-09
5.07192e-11
-8.7978e-09
-9.17587e-09
8.88194e-09
-9.08684e-10
-3.28795e-10
3.60361e-10
-1.83239e-10
9.0582e-10
-9.26685e-10
2.04104e-10
-7.72977e-10
-3.56137e-10
9.17451e-10
2.11663e-10
6.24597e-09
-3.07341e-09
-4.71356e-09
1.54099e-09
-7.04006e-09
6.93723e-09
3.46068e-09
-3.02811e-09
-1.29713e-09
8.64558e-10
2.90055e-09
5.4941e-09
-4.82045e-09
-3.57419e-09
-8.42203e-10
6.04655e-12
-1.94962e-09
-9.09118e-09
1.08253e-09
-1.79778e-09
9.80642e-09
-3.0641e-10
8.36213e-09
-1.59679e-10
-7.89604e-09
-7.46872e-09
2.79115e-09
7.77549e-09
-3.09792e-09
-7.46427e-09
-1.83066e-09
2.48286e-09
2.53872e-09
-2.18022e-09
-4.75662e-09
-6.35185e-09
-8.86242e-11
6.44048e-09
-6.63404e-09
6.57358e-09
2.90845e-09
1.16708e-08
-6.36945e-09
-8.20976e-09
7.32337e-09
-7.13365e-10
-7.92097e-09
-1.1678e-10
7.12049e-10
-3.30385e-09
-5.62319e-09
6.49653e-09
-8.26294e-10
-4.70491e-11
1.7518e-09
-5.06702e-09
-4.7448e-09
8.06002e-09
-1.87194e-10
8.63676e-09
1.31561e-10
-8.58112e-09
1.83068e-09
-2.40809e-10
-2.06748e-09
-8.43958e-09
8.8307e-09
-7.53922e-10
-6.28355e-09
5.65507e-09
5.92194e-09
4.81628e-09
1.26022e-09
-6.27183e-09
1.95331e-10
-7.5234e-10
-7.8829e-09
7.80354e-09
8.31701e-10
4.44638e-10
-8.60291e-09
9.2248e-09
1.01136e-09
-1.14208e-09
-3.6382e-10
4.94538e-10
8.51517e-09
-5.88847e-10
1.89788e-10
-8.11611e-09
-4.93576e-10
-7.7795e-09
7.83322e-09
4.39856e-10
-7.07624e-09
6.82018e-09
-3.60888e-09
-6.24359e-09
6.7864e-09
-4.81512e-09
-4.17749e-09
4.84343e-09
1.29026e-09
9.05091e-09
-1.8782e-09
-8.46298e-09
7.12409e-09
2.83243e-10
-7.78383e-09
3.76494e-10
1.05479e-09
8.24143e-09
-7.19787e-10
3.78056e-09
-5.54702e-10
-9.05805e-09
5.83219e-09
-9.07767e-09
-8.09155e-10
-1.19267e-08
-6.06809e-09
1.00293e-08
-7.64358e-11
-6.67191e-10
6.83078e-11
-1.75296e-10
7.13192e-09
-7.25623e-09
-4.33755e-11
9.83793e-09
-1.16945e-09
-3.11859e-09
3.60725e-10
3.29881e-09
-5.40946e-10
8.12831e-09
3.66846e-10
-8.01616e-09
-4.78999e-10
-1.63628e-10
8.76679e-09
-9.18158e-09
5.78418e-10
2.3383e-09
1.05642e-08
-2.98965e-09
-9.91288e-09
-2.91591e-09
4.86789e-10
1.08102e-08
-8.38106e-09
3.46863e-09
2.85154e-09
-3.87863e-09
7.0973e-09
-6.92057e-09
-2.40891e-10
-1.00654e-08
8.25238e-09
1.06473e-10
3.62788e-10
-1.39377e-10
-3.29884e-10
-1.61967e-10
2.08975e-10
-3.3205e-10
2.85042e-10
-5.56495e-09
-2.53989e-09
5.91142e-09
2.19342e-09
7.96095e-09
-7.3883e-09
-6.65102e-09
6.61406e-09
-6.58186e-10
-1.71598e-10
7.53348e-10
-6.44949e-09
1.03652e-08
-4.18029e-09
6.01384e-10
-5.94735e-11
-5.41911e-10
8.77254e-10
-9.8887e-09
2.57371e-10
8.75408e-09
-1.15078e-09
-8.85363e-09
1.23048e-09
8.77393e-09
-8.14147e-10
7.22863e-10
-2.59601e-10
3.50885e-10
-8.4923e-09
3.40846e-09
-1.95623e-09
7.04007e-09
-5.69296e-09
5.82822e-09
-7.49796e-09
-3.79772e-10
7.68643e-09
8.93226e-10
-5.22259e-10
8.58877e-09
-8.95974e-09
-8.71116e-09
1.32374e-09
2.5004e-09
-2.25612e-09
-4.40837e-10
-6.91415e-09
-1.41218e-10
6.69091e-09
3.64449e-10
1.03241e-08
-8.42051e-09
-1.49158e-09
-1.13933e-09
-9.93938e-11
-6.53602e-09
-2.87655e-09
6.92843e-09
2.48414e-09
1.02964e-09
-8.01443e-09
7.52941e-09
-5.44607e-10
1.14223e-08
-9.48925e-09
-2.00615e-09
7.3117e-11
5.78032e-10
-6.51967e-10
-8.1039e-09
-1.47491e-10
-2.72619e-10
2.58143e-10
-6.56684e-09
6.88915e-09
-7.34542e-10
-7.79771e-09
7.59851e-09
9.33745e-10
6.84456e-09
-5.72106e-09
2.5808e-09
-3.7043e-09
-2.11897e-09
3.10556e-09
7.91813e-09
8.34894e-09
-8.48818e-09
1.7376e-10
-3.45186e-11
-8.36933e-09
8.80923e-09
-7.69365e-10
4.00911e-10
7.11423e-09
4.77471e-10
-7.99262e-09
-6.79867e-09
6.76129e-09
-4.2886e-10
-6.23929e-09
6.66815e-09
-9.25374e-09
-1.3382e-09
9.81448e-09
7.77452e-10
-1.48543e-09
-7.72053e-09
1.73724e-09
3.32549e-09
-1.75778e-09
-2.59108e-09
1.02338e-09
5.64521e-09
6.89494e-09
-5.69558e-09
-9.76822e-09
9.23163e-09
6.21516e-11
4.74438e-10
6.58663e-09
-6.75026e-09
9.4913e-09
-6.06958e-09
-6.80327e-09
3.38155e-09
-5.36723e-10
2.9298e-09
9.0292e-09
-5.85613e-13
-1.254e-11
4.03389e-10
5.73271e-09
-7.45013e-09
2.99082e-10
7.6144e-10
-2.11479e-10
1.20335e-10
-6.81832e-10
8.93182e-09
-9.07812e-09
2.76038e-10
-1.29736e-10
-1.70622e-10
3.9776e-10
3.24271e-09
2.24973e-09
-2.19537e-09
-6.20202e-09
-8.66702e-09
1.61929e-10
8.56496e-09
-5.98691e-11
-5.52653e-09
5.40354e-09
-3.98089e-09
7.10913e-09
-4.54549e-09
1.41724e-09
-2.2774e-09
7.7433e-09
2.26656e-09
-7.73246e-09
6.54348e-09
4.41659e-09
-2.90426e-09
-8.3003e-11
-6.46928e-09
6.55228e-09
-8.7253e-09
-1.58041e-09
2.28738e-09
8.01833e-09
-1.02724e-08
8.86211e-09
-1.1502e-09
2.56047e-09
-6.8821e-09
7.06054e-09
-9.39957e-11
3.51078e-10
-2.47271e-10
-9.81163e-12
-6.6577e-09
-6.45235e-10
7.87976e-09
8.79618e-09
-8.62873e-09
-3.34913e-10
1.67462e-10
-1.94864e-09
-2.06755e-09
2.2113e-09
1.8049e-09
-9.40582e-09
8.59868e-10
-4.04155e-10
8.9501e-09
4.57248e-10
-1.77885e-10
8.65245e-09
8.79697e-10
8.98455e-09
-9.407e-09
-9.57478e-09
1.44867e-09
-2.86221e-09
-1.09912e-09
1.27134e-09
2.69e-09
-8.4995e-09
-1.16026e-09
9.2309e-09
-7.18652e-09
6.64979e-09
5.77678e-10
-8.9804e-09
-6.74944e-10
3.97056e-09
-5.50213e-09
-5.80182e-09
7.33338e-09
-1.3629e-09
6.06378e-09
-6.2476e-09
-2.1036e-09
2.48807e-09
5.86312e-09
-8.92506e-09
9.01281e-09
5.90947e-11
-1.46845e-10
-2.30885e-09
9.29424e-10
-7.05355e-10
2.08479e-09
-3.58198e-10
-1.38721e-09
1.51205e-09
1.81972e-09
-6.37744e-11
7.86345e-11
-1.83458e-09
4.66926e-11
-7.61535e-11
-2.13627e-10
2.43087e-10
-8.65621e-09
9.11554e-09
-4.80884e-10
1.05241e-09
-9.42257e-09
9.31236e-09
-9.42201e-10
-4.12279e-10
-1.64077e-09
1.78228e-09
7.86637e-09
-1.37626e-09
-8.60909e-09
-6.40789e-09
4.38824e-09
7.78707e-09
9.12172e-09
-9.24502e-09
1.5712e-10
-3.38194e-11
6.28831e-09
-6.4662e-09
-4.84132e-10
7.1134e-09
-6.62927e-09
-5.03721e-10
-1.93041e-09
2.09601e-09
6.58066e-11
-1.38141e-10
-5.85852e-10
2.11954e-09
-8.75053e-09
9.05895e-09
-2.42796e-09
9.0765e-09
-1.04714e-08
5.14572e-10
1.88622e-10
2.00585e-09
-1.51819e-10
-1.03254e-08
8.47135e-09
-7.27098e-09
1.9206e-09
-1.68542e-09
7.03581e-09
-4.91968e-09
3.95435e-09
4.91128e-09
8.2954e-10
6.00423e-09
-1.00959e-09
-5.82418e-09
-3.65899e-10
1.80921e-10
4.04258e-10
6.55557e-11
-4.64147e-10
-6.45277e-10
2.30418e-10
-7.94479e-10
-2.29443e-09
2.57607e-09
5.62462e-10
-1.65311e-10
8.72457e-09
9.53526e-10
8.96882e-09
-9.35989e-09
-8.71058e-09
6.68057e-10
-9.42944e-09
1.02948e-08
-1.34158e-09
1.97895e-09
5.3544e-09
-2.24625e-09
-5.0871e-09
-1.00621e-09
1.01144e-09
-1.88465e-10
1.62769e-09
-2.06095e-10
4.09089e-10
3.01091e-09
-6.4042e-09
2.35156e-11
6.59594e-09
-6.61945e-09
-7.5759e-09
-3.48709e-10
1.59473e-10
-8.84604e-09
9.16617e-10
8.98183e-09
8.70383e-09
-8.75337e-09
1.22324e-10
-7.27863e-11
-6.71344e-09
6.7981e-09
-4.86575e-09
3.19162e-10
3.5126e-09
7.52838e-12
-6.50347e-09
6.49594e-09
9.05596e-10
-3.25749e-10
4.31517e-10
7.93283e-09
1.41585e-10
-2.61407e-10
5.3288e-10
-3.31391e-10
-1.82547e-10
-1.89417e-11
1.29017e-09
-1.45365e-09
1.46365e-09
-1.30016e-09
-1.02408e-08
-1.79358e-09
1.12671e-08
7.67311e-10
2.27823e-10
-1.16153e-10
8.59216e-09
2.87327e-09
-6.05867e-09
8.8676e-09
-5.68219e-09
-6.4986e-09
6.33329e-09
-1.83382e-10
6.30182e-09
-6.11844e-09
2.42106e-10
9.05177e-09
-9.06605e-09
-9.40953e-09
3.01561e-11
2.99029e-09
-2.92198e-09
-3.13963e-10
-1.91542e-10
2.80817e-10
1.88146e-09
5.50112e-09
-7.42938e-09
4.68065e-11
-8.83136e-09
8.83378e-09
-8.8434e-12
6.42863e-12
8.78943e-09
-8.714e-09
-6.14891e-11
-1.39445e-11
5.97776e-09
-5.76595e-09
2.35065e-10
-3.9776e-10
8.09553e-09
-2.61416e-09
-7.58988e-09
7.93679e-09
2.26724e-09
-5.57925e-09
1.07874e-09
6.47946e-09
-7.29473e-09
-6.67391e-11
5.08407e-09
-7.01498e-09
-5.5528e-12
-3.41157e-11
-5.03365e-09
-4.46341e-09
3.33522e-09
6.16184e-09
-7.60056e-09
9.7201e-09
-8.25255e-09
-6.41579e-09
6.85315e-09
7.81519e-09
-7.73058e-09
-8.31979e-10
1.26784e-09
-6.31658e-09
6.20042e-09
-2.04538e-10
6.53242e-09
-6.32788e-09
-7.50572e-09
-1.15534e-09
1.39009e-09
2.88585e-09
-7.09797e-09
-1.11246e-08
3.79159e-09
6.64307e-09
-8.97865e-09
-1.45601e-09
5.45333e-10
-8.48965e-09
-9.91178e-10
-8.95007e-09
-1.02668e-09
-7.88347e-09
-5.3243e-10
7.68136e-09
-4.61547e-11
3.20608e-10
-3.57471e-10
8.30182e-11
-1.37327e-09
1.6189e-09
-2.60479e-09
-6.02699e-09
5.85311e-09
-6.81967e-09
8.45673e-09
-2.35441e-09
7.17341e-10
7.60357e-09
8.34575e-09
-7.09686e-09
-8.85246e-09
-6.43282e-09
4.34524e-11
6.38936e-09
-6.72054e-10
-7.72183e-09
7.64154e-09
-9.55085e-09
-6.50291e-10
9.05036e-09
6.04823e-10
-1.408e-10
2.28234e-09
5.92694e-09
-8.20929e-09
9.60103e-09
-5.97419e-09
-3.95891e-09
3.32068e-10
-2.47351e-09
-6.47731e-09
3.56758e-09
5.38324e-09
-1.05518e-08
5.85911e-09
7.03097e-09
8.77399e-09
3.15469e-10
-8.94328e-09
-1.46182e-10
1.31832e-09
2.16642e-09
-1.36596e-09
-2.11879e-09
-1.96587e-09
4.5836e-09
-3.9557e-09
1.33797e-09
-4.21474e-10
3.13115e-11
3.44007e-10
2.33625e-10
6.47097e-10
-1.5262e-10
-7.28102e-10
-9.75209e-11
-2.30163e-10
2.39013e-10
8.86706e-11
-7.74268e-09
-5.269e-10
7.77601e-09
-7.36307e-09
-1.02876e-09
6.9064e-09
1.78864e-10
-7.55697e-11
-7.75208e-09
7.64878e-09
3.35511e-10
-8.00018e-09
7.84353e-09
-3.89444e-10
2.0002e-09
-1.97304e-09
-1.93626e-10
-2.42659e-09
4.6584e-09
4.08793e-09
-4.67169e-09
-4.07464e-09
-6.57757e-09
6.01529e-11
6.51742e-09
1.92704e-09
-1.377e-09
-9.39032e-09
-1.77078e-09
-7.56746e-09
1.31596e-09
8.02228e-09
6.74327e-09
-2.50297e-09
2.00606e-09
-6.24637e-09
4.46541e-09
-5.75995e-09
5.55688e-09
3.61493e-09
-1.07375e-09
2.96134e-09
-5.50251e-09
6.24499e-09
2.25169e-10
2.16424e-11
-2.00119e-10
-3.43971e-10
3.01287e-10
-8.24517e-11
1.25136e-10
9.69039e-11
-3.93938e-10
4.27929e-10
-1.30895e-10
2.59425e-11
-1.85875e-10
-1.88989e-11
1.78831e-10
1.97314e-09
-3.30471e-09
-5.71209e-09
5.60265e-09
1.09447e-10
-2.62923e-10
8.62264e-09
1.5545e-10
2.87047e-09
-3.68498e-09
4.54928e-09
-3.73477e-09
-6.16207e-09
3.28392e-10
6.27051e-09
-7.11183e-10
1.94757e-09
-2.02372e-09
-3.089e-11
-9.26605e-09
8.69634e-09
6.00597e-10
-5.72916e-10
-3.90996e-09
-6.76542e-10
2.45479e-09
-7.11732e-11
-4.10475e-10
2.97503e-09
7.60928e-10
7.68411e-09
2.40512e-10
-3.34251e-10
-7.59037e-09
5.57856e-09
2.45272e-09
-2.67688e-09
1.27231e-09
-2.10009e-09
2.1461e-09
8.93686e-09
5.10545e-10
-8.85106e-09
-5.96346e-10
4.08385e-11
-8.00829e-11
3.59937e-10
-4.56406e-10
-7.68303e-09
9.53819e-09
1.63449e-09
-9.42674e-09
-1.74594e-09
8.97805e-09
-1.74684e-09
2.12316e-09
-9.35436e-09
-2.76562e-10
6.8802e-09
-6.60363e-09
1.06642e-08
-1.36126e-08
2.94841e-09
4.76436e-10
-3.70549e-10
-2.1451e-09
-8.95351e-09
8.47064e-09
-1.89607e-10
2.21192e-09
-2.02231e-09
6.62276e-09
-6.66614e-09
5.29962e-09
-3.89782e-09
-6.70067e-09
5.29887e-09
-1.6203e-10
-6.00476e-09
6.41095e-09
-2.4416e-10
5.0356e-10
5.04911e-09
-4.8669e-09
-6.85771e-10
8.17338e-09
5.71329e-09
-5.48553e-09
-8.40114e-09
1.66914e-10
-1.92517e-10
4.30389e-10
-4.04786e-10
-1.69558e-09
1.32449e-09
-1.24743e-09
1.61852e-09
4.12095e-09
-6.42028e-09
3.01943e-09
-7.20104e-10
7.02883e-09
1.86639e-09
-7.4782e-09
-1.41702e-09
3.45233e-09
-3.821e-09
5.37267e-09
-5.004e-09
-1.24495e-09
1.30645e-09
1.1938e-09
-1.2553e-09
-3.06481e-10
7.20116e-10
-8.08309e-09
7.66945e-09
9.23336e-09
6.64409e-09
-9.81013e-09
9.63058e-10
-1.92986e-10
8.29065e-09
1.98937e-10
-5.01885e-09
5.89269e-10
4.23064e-09
1.67939e-09
-1.31332e-09
-3.28476e-09
2.91869e-09
-4.24663e-09
-4.46592e-09
8.1867e-10
6.41167e-10
-9.72796e-09
1.0014e-08
-9.27185e-10
1.9197e-09
-2.34297e-09
-8.92547e-09
-4.14895e-10
7.14958e-11
1.27763e-10
-2.17454e-10
2.55319e-10
-1.65629e-10
-9.57661e-10
1.04058e-09
-8.29223e-11
4.48426e-10
1.21546e-11
-3.63677e-10
-1.16165e-09
8.14764e-09
1.14233e-09
4.48407e-09
-1.88559e-09
7.4558e-09
-1.00543e-08
9.07623e-09
-4.79946e-09
4.9566e-09
-4.34667e-09
4.97089e-09
4.19436e-09
8.33005e-09
-3.44818e-09
1.74751e-09
8.73088e-09
-2.88075e-09
-7.59764e-09
8.82157e-09
-9.28941e-09
1.52454e-09
-1.05669e-09
-7.8455e-09
7.00802e-09
3.97636e-09
-3.13888e-09
-1.60294e-09
7.28697e-09
5.71304e-09
-2.35009e-11
4.45552e-11
-1.37817e-10
1.16763e-10
-4.15495e-10
3.68268e-10
4.53358e-09
-4.48635e-09
-1.25551e-09
1.57661e-09
-1.03229e-09
-1.42714e-10
1.86032e-09
-1.7176e-09
-5.67062e-10
-7.78866e-09
1.00933e-09
7.3464e-09
-1.47226e-10
-6.20463e-09
-6.02277e-09
7.50234e-09
-1.23256e-09
-9.78471e-09
1.69934e-09
9.31793e-09
-2.54024e-10
2.55234e-10
-9.87303e-11
3.9129e-10
1.1547e-08
-1.16328e-08
-3.05446e-10
-2.03726e-10
5.55806e-09
-3.92485e-09
-1.42949e-09
-5.78766e-09
-3.24493e-09
4.94986e-09
-8.08973e-09
6.3848e-09
5.439e-10
-8.61607e-10
8.65205e-09
-8.33434e-09
-6.63622e-09
5.3091e-09
-3.50478e-10
1.23454e-10
-4.17709e-10
5.50874e-10
-1.27525e-09
7.25069e-11
4.88509e-10
-2.81351e-11
-9.36273e-09
2.72138e-09
9.5498e-09
4.65837e-09
-4.45492e-09
5.09618e-09
-1.25071e-10
1.69038e-09
-1.70412e-09
-3.78467e-09
8.68572e-11
4.37524e-10
-9.64523e-11
4.84065e-09
-2.74017e-09
-4.47515e-09
9.67922e-09
1.3542e-09
-2.21185e-09
6.62934e-11
-9.27159e-10
9.96877e-10
-1.36011e-10
-2.47358e-09
-3.90593e-09
4.19692e-09
-2.92826e-10
3.84275e-10
-8.31242e-09
2.51785e-09
7.22443e-09
3.70443e-09
-2.08451e-09
-6.8868e-09
-1.59389e-09
1.05931e-10
4.82981e-09
-3.34185e-09
-1.18423e-10
-1.46528e-09
1.5837e-09
-5.16024e-09
5.18496e-09
-8.08735e-09
1.97861e-09
-1.77252e-09
7.88126e-09
-7.26463e-09
-1.61755e-09
1.37646e-09
-9.53634e-09
-1.89639e-09
1.85293e-09
9.5798e-09
-2.77582e-10
1.42236e-10
-7.44055e-09
5.44469e-09
-3.14074e-10
-5.13062e-09
-2.73412e-10
-9.52044e-11
3.95266e-11
3.2909e-10
-1.12118e-09
1.03534e-09
-1.15871e-09
1.24456e-09
1.01111e-09
1.48713e-08
-6.58357e-09
-9.29882e-09
-7.29945e-09
-3.84073e-10
1.85563e-10
-3.32081e-09
6.99497e-09
6.49703e-09
5.83167e-10
-6.32843e-10
3.08311e-09
8.01809e-10
5.7943e-09
-1.77582e-09
5.23122e-09
-5.96335e-09
2.50795e-09
-1.98983e-10
-6.94319e-10
8.57741e-09
-8.61673e-09
7.33632e-10
8.67183e-09
8.70125e-10
-9.17909e-09
-3.62867e-10
-1.06289e-10
-8.70597e-09
1.4524e-10
-7.72808e-09
5.05705e-10
7.64191e-09
-4.19539e-10
3.11325e-09
-8.62896e-09
8.72384e-09
4.99309e-09
-2.76908e-09
-9.71645e-09
7.49244e-09
4.11763e-10
-1.47729e-10
9.87536e-11
6.48462e-10
3.08027e-10
-4.8998e-11
-5.89243e-11
1.00869e-08
4.81546e-10
-1.24581e-09
-9.32268e-09
-3.16766e-09
7.32508e-09
-9.47577e-11
9.86889e-11
-7.21518e-11
6.82207e-11
-4.99259e-09
2.3508e-09
3.7391e-09
-1.0973e-09
-7.23876e-09
8.07915e-09
2.03288e-09
6.84203e-09
-3.47161e-09
3.26293e-09
-6.63334e-09
3.05406e-09
-5.58071e-09
-1.78569e-09
4.31233e-09
2.54992e-09
-5.3276e-09
1.18531e-08
1.00277e-08
-8.44748e-09
7.76646e-09
-5.45913e-09
4.37629e-09
-3.90975e-09
1.475e-11
-3.97495e-11
8.9418e-09
-8.9168e-09
5.80228e-11
-9.16874e-09
-3.25624e-10
9.43634e-09
5.65648e-09
-5.74328e-09
-1.42306e-09
1.50986e-09
9.06927e-10
6.94454e-11
-7.05526e-11
-2.88907e-09
2.42787e-09
5.78792e-10
-1.17595e-10
-5.43095e-09
2.50267e-09
-2.96814e-09
5.89642e-09
1.18686e-09
-1.10385e-09
1.21307e-09
-1.01753e-08
8.00757e-09
9.54624e-10
6.25918e-10
-6.65934e-09
-5.13698e-09
1.11704e-08
-5.91296e-09
-5.51369e-09
7.81777e-09
1.84309e-09
8.75606e-09
-9.29079e-09
-4.33876e-09
4.10386e-09
7.07692e-09
-1.05309e-08
1.09222e-08
3.42309e-09
4.81404e-09
-6.32516e-09
-8.91368e-10
-8.88749e-09
1.0999e-09
-1.50182e-09
-4.43231e-09
-4.87747e-09
3.06218e-09
4.16491e-11
-1.2233e-11
-1.41785e-09
1.38843e-09
-1.06662e-08
1.35306e-10
6.98632e-09
-2.70596e-09
-6.28156e-09
-2.04584e-09
-6.44688e-09
-6.3662e-09
6.07499e-09
1.29177e-10
-1.61177e-09
-9.25517e-09
1.44437e-09
-4.62082e-09
6.23026e-09
4.63653e-09
-2.11468e-10
-4.46609e-10
4.65561e-10
-6.6486e-09
1.14782e-10
6.53382e-09
2.54361e-10
-9.28883e-11
8.61306e-09
-2.22353e-09
-1.01029e-09
-5.25848e-09
3.797e-09
-8.44033e-09
-1.70076e-09
-7.90449e-09
2.14098e-09
3.30431e-09
4.80642e-09
5.74749e-10
2.10203e-10
-9.53423e-09
-7.53575e-10
1.42629e-09
8.86151e-09
-8e-09
8.92012e-10
7.10799e-09
-4.74195e-09
4.83001e-09
-2.53637e-09
-5.89609e-09
2.4673e-09
5.96516e-09
-3.87881e-09
5.34813e-09
-8.10925e-10
1.07226e-08
-9.02465e-09
-4.9627e-09
5.38642e-09
-2.84429e-09
2.42057e-09
9.31935e-09
-9.47263e-10
-9.97503e-09
-1.20115e-09
1.40446e-09
-8.83125e-10
8.38433e-09
-7.50121e-09
-4.89945e-09
-3.56008e-09
7.82191e-09
-4.87472e-10
-8.80093e-09
2.39256e-10
1.05207e-08
-3.35266e-09
3.51189e-09
-1.06799e-08
9.3125e-09
2.44314e-10
-2.09353e-10
-1.11114e-10
3.95178e-09
-1.88697e-10
8.41265e-10
-4.60435e-09
-1.10435e-10
1.33972e-10
-1.87047e-11
-4.43112e-09
-3.56438e-09
6.74329e-11
1.51341e-09
-1.5392e-09
-2.1188e-10
-8.13022e-10
9.49513e-10
-6.43833e-09
5.89797e-09
-1.04939e-09
1.58975e-09
1.15689e-09
-5.00043e-09
-3.12372e-10
4.15591e-09
-5.81986e-09
-3.52371e-09
7.19847e-09
-3.99286e-10
-8.0255e-11
-7.1174e-10
-8.56968e-09
8.5871e-09
6.40581e-09
-1.51799e-09
-5.52004e-10
1.14763e-09
-9.26612e-09
8.59489e-09
-4.76403e-10
8.21113e-09
-5.71945e-10
-7.94915e-09
3.09968e-10
-5.52922e-09
-2.86027e-09
7.03552e-09
1.35397e-09
3.60948e-09
9.41714e-09
-1.19207e-08
1.04578e-09
2.14049e-10
-1.14517e-09
-1.14659e-10
-8.44232e-09
-3.99832e-11
8.53655e-09
1.63947e-10
-4.10691e-10
-5.64351e-09
4.15793e-09
7.57912e-10
-8.8632e-10
-6.30944e-09
7.35121e-09
-1.55447e-10
-6.32255e-09
5.35701e-09