/*--------------------------------*- C++ -*----------------------------------*\
  =========                 |
  \\      /  F ield         | OpenFOAM: The Open Source CFD Toolbox
   \\    /   O peration     | Website:  https://openfoam.org
    \\  /    A nd           | Version:  8
     \\/     M anipulation  |
\*---------------------------------------------------------------------------*/
FoamFile
{
    version     2.0;
    format      ascii;
    class       surfaceScalarField;
    location    "3.8";
    object      phi;
}
// * * * * * * * * * * * * * * * * * * * * * * * * * * * * * * * * * * * * * //

dimensions      [0 3 -1 0 0 0 0];

internalField   nonuniform List<scalar> 
15173
(
6.3618e-09
-5.67517e-09
-1.61327e-10
-5.25305e-10
5.04043e-09
-1.72142e-10
1.12115e-10
-4.9804e-09
-4.48427e-11
5.15872e-09
-5.11608e-09
2.20102e-12
8.5121e-09
-1.55896e-10
3.59761e-10
-8.71596e-09
-5.80476e-09
6.06382e-09
-2.11588e-10
-4.7479e-11
6.32703e-10
-9.19396e-09
8.90274e-09
-3.41486e-10
-4.24771e-09
-8.22762e-10
1.14253e-09
3.92795e-09
5.09379e-09
-5.09697e-09
3.4911e-10
-3.4593e-10
-2.0352e-09
2.1518e-09
4.97746e-11
-1.66375e-10
6.27218e-10
-3.33755e-10
4.66881e-09
-4.96227e-09
5.23095e-09
-5.26583e-09
6.67568e-11
-3.18756e-11
6.594e-09
-9.69724e-12
-2.22507e-10
-2.53303e-09
2.41244e-09
-1.8785e-09
1.99909e-09
5.26029e-09
-5.21781e-09
2.71688e-10
-3.14164e-10
-4.88442e-09
5.07408e-09
1.17031e-10
-3.06687e-10
3.38515e-09
-3.67278e-09
2.87629e-10
5.20842e-09
1.0849e-10
-8.59562e-11
-4.26914e-10
-3.75762e-11
-4.41993e-09
9.40348e-10
-8.39886e-10
-1.00461e-10
-2.88526e-09
-9.21722e-10
1.39462e-09
2.41236e-09
2.07589e-09
-4.44116e-11
-2.1043e-09
7.28134e-11
-3.25837e-09
2.88975e-09
3.13531e-09
-2.7667e-09
-5.271e-09
4.24826e-11
-3.73129e-11
5.87834e-09
5.00656e-10
-6.18363e-09
-1.95361e-10
7.14256e-09
6.09811e-10
-6.47397e-10
-7.10498e-09
-1.5822e-10
5.14488e-11
-5.79399e-11
1.64711e-10
5.43844e-09
-7.3018e-09
2.19652e-09
-3.3315e-10
-2.03123e-09
3.54525e-09
-2.26509e-09
7.51069e-10
7.90399e-09
-6.04788e-09
5.32325e-10
-2.38844e-09
-2.96887e-10
6.89973e-10
8.11901e-09
-5.89877e-09
-5.01682e-09
7.64413e-09
3.27146e-09
5.88561e-09
5.00293e-10
-1.67738e-10
-6.21817e-09
7.57744e-09
2.5913e-09
-8.61605e-09
-1.55269e-09
8.36693e-10
-1.17015e-09
5.05012e-09
-4.71666e-09
4.90732e-09
1.45344e-10
-4.92805e-09
-1.24616e-10
5.27303e-09
1.29711e-09
-6.47232e-09
-9.78199e-11
4.97106e-09
-5.10399e-09
-9.99821e-11
2.32914e-10
-5.11601e-09
-6.82628e-09
3.2055e-09
8.73679e-09
-1.2607e-09
-8.65641e-09
8.28216e-09
1.63496e-09
-6.22805e-09
1.70029e-09
-3.32604e-10
4.86037e-09
5.15085e-09
-9.76465e-11
2.087e-11
5.10027e-09
6.43713e-10
-5.02659e-10
-5.24132e-09
-6.65699e-09
6.62235e-09
-8.47348e-12
4.31116e-11
5.0143e-09
1.16765e-11
1.44537e-11
-1.84824e-09
1.71719e-10
-3.58675e-10
-3.55689e-09
1.73263e-10
-2.71776e-10
3.6554e-09
-9.5163e-11
8.4449e-11
2.73359e-09
1.30168e-10
-3.67138e-09
8.07621e-10
-5.30869e-09
-7.60944e-11
5.33994e-09
-1.20452e-10
3.03708e-10
-2.7559e-10
9.23344e-11
-1.72893e-09
-2.49444e-09
1.69035e-09
4.95603e-09
1.0857e-10
-5.02962e-11
5.85207e-09
2.86e-10
-5.54025e-09
-5.97818e-10
6.95272e-10
-5.73123e-09
5.86156e-09
-8.25609e-10
-8.49246e-09
2.07451e-09
6.67119e-09
-2.53241e-10
8.17357e-10
-7.43082e-10
6.44243e-11
-1.38699e-10
-9.28298e-10
8.15318e-10
-2.92708e-09
3.04006e-09
5.44918e-10
-5.30824e-09
7.68955e-10
3.99436e-09
-6.62523e-09
6.78286e-09
-2.58724e-10
1.01102e-10
-1.69562e-09
-7.48357e-10
1.82e-09
6.23975e-10
6.5631e-09
-6.61368e-09
-3.77422e-11
8.83283e-11
-7.03046e-09
6.17735e-09
3.52588e-09
-2.67277e-09
-1.90684e-09
3.57054e-09
-3.54144e-09
1.87773e-09
3.59204e-09
4.9568e-09
-1.5874e-09
-6.96144e-09
-7.61677e-09
2.85154e-10
1.9878e-10
7.13283e-09
3.04563e-11
6.85159e-09
-6.32062e-11
-6.81884e-09
6.57655e-09
-6.56677e-09
2.0673e-11
-9.79997e-11
-6.08623e-10
8.47592e-11
6.21864e-10
1.96145e-09
-5.93308e-10
-5.61585e-09
7.06106e-11
-4.78928e-11
6.54038e-09
2.7076e-09
-2.64748e-09
-2.30366e-09
2.24353e-09
5.21714e-09
-1.67605e-10
-5.2123e-09
1.62761e-10
-2.80647e-10
1.08591e-09
6.98007e-09
-7.78533e-09
-1.68151e-09
8.89479e-10
-9.03589e-10
2.67926e-09
2.00238e-09
-1.97405e-09
-5.04306e-09
4.98954e-09
5.35119e-11
-5.66847e-12
-1.58784e-11
-6.63544e-09
-5.4755e-11
6.34237e-11
-1.3873e-10
-5.18605e-09
6.07676e-10
4.7171e-09
-2.3379e-09
4.52774e-09
7.16685e-09
-3.35454e-09
-3.42494e-09
4.32705e-09
2.45244e-09
-7.1291e-09
7.41269e-09
-4.12146e-10
1.28558e-10
-1.04759e-09
8.59069e-10
-5.02929e-09
-3.58259e-09
4.43085e-09
3.53237e-09
-4.38063e-09
5.36006e-09
-5.0131e-09
-3.46957e-10
4.81659e-09
-9.47672e-11
-3.50109e-09
-1.22073e-09
2.06467e-09
3.87074e-09
-3.85942e-09
-2.07599e-09
-6.50824e-09
6.55299e-09
-5.66663e-11
1.19145e-11
-5.20669e-09
2.83864e-09
-2.5485e-09
4.91655e-09
1.82465e-09
-3.36302e-09
-5.72244e-10
2.11061e-09
1.72446e-09
1.45481e-11
3.36886e-10
-5.05201e-09
5.06434e-09
1.90421e-11
-3.13654e-11
7.42834e-11
4.94842e-10
-9.25802e-11
-4.76545e-10
-6.25781e-09
-5.3521e-09
5.71114e-09
1.33766e-09
4.38381e-09
-4.1073e-09
-1.61417e-09
-4.79338e-09
2.33933e-09
-4.5173e-09
6.97135e-09
-1.9412e-10
6.40645e-10
-5.02095e-10
5.55701e-11
3.41622e-09
-4.62122e-09
-3.0609e-09
4.2659e-09
-3.20224e-09
3.29088e-09
2.39383e-09
-2.48247e-09
2.43622e-11
-5.06742e-09
5.73922e-09
1.74732e-09
-1.87521e-09
-5.61133e-09
6.15188e-09
-2.95216e-09
-3.94212e-09
7.42401e-10
4.75179e-09
1.6014e-09
-2.08422e-09
-4.26896e-09
7.86726e-09
1.07177e-09
-7.2007e-09
-1.73833e-09
3.06985e-09
2.55595e-10
-6.18975e-10
-2.70647e-09
8.27099e-09
-8.55164e-09
-4.27358e-10
7.20369e-11
4.29604e-10
-2.63585e-09
-2.47973e-09
2.4681e-09
5.15243e-09
-4.41234e-09
-4.59908e-09
3.85899e-09
-4.7825e-09
4.69184e-09
1.85392e-10
-9.473e-11
5.48723e-09
-5.2105e-09
4.68428e-09
-4.96101e-09
-1.96099e-09
1.79955e-09
4.66206e-09
-4.50061e-09
-7.27626e-09
-2.70902e-09
2.95482e-09
4.98741e-09
-1.0384e-10
-2.7238e-12
-4.88085e-09
2.83693e-09
-4.17543e-10
1.29017e-09
-3.70956e-09
6.14305e-09
-4.40663e-10
3.99127e-10
-6.10151e-09
-5.64365e-09
-2.66493e-09
3.10189e-09
-6.65512e-09
4.11063e-11
6.64488e-09
-3.08654e-11
-1.34212e-10
9.56512e-10
2.24755e-09
-4.98721e-09
5.00991e-09
3.08128e-11
-5.35149e-11
-6.68896e-10
-5.18534e-09
4.94839e-11
-6.26709e-09
-5.68925e-10
7.36917e-10
6.09909e-09
2.08583e-10
5.29543e-09
-4.17328e-10
-5.08669e-09
2.7791e-10
5.94122e-09
-6.08896e-09
-1.3017e-10
3.89152e-09
-3.4145e-09
-1.68694e-09
1.20993e-09
-3.13163e-09
-4.86608e-11
2.252e-09
-5.22948e-09
-3.40512e-10
4.7248e-09
8.45196e-10
-6.19851e-10
6.90492e-10
-4.0498e-09
3.97916e-09
-1.90201e-09
9.61709e-10
-4.17965e-09
5.11995e-09
1.01926e-09
-8.92957e-09
8.54301e-09
-5.03671e-09
3.38561e-11
-4.91604e-11
3.2135e-09
-2.50951e-09
1.77735e-09
-2.48134e-09
1.64693e-09
-1.09042e-09
-3.58278e-09
3.02626e-09
-5.90696e-09
-8.01268e-10
6.03934e-09
-4.92811e-09
-1.62999e-10
4.7098e-11
5.04401e-09
4.8397e-09
2.46794e-10
-1.15435e-10
9.42063e-09
8.1621e-10
-9.05553e-09
-1.18132e-09
-2.17268e-09
-3.81749e-09
4.15329e-09
1.83688e-09
1.02386e-10
-5.55272e-11
-6.51333e-09
9.41673e-12
-4.32744e-12
3.07316e-09
2.9249e-09
-2.10654e-09
-6.83301e-10
7.47535e-10
-4.7018e-09
4.63756e-09
-4.68771e-09
3.70694e-09
-4.13257e-10
1.39402e-09
1.07925e-08
-6.26791e-09
-7.27289e-09
2.74832e-09
-6.95328e-11
5.28183e-10
3.61923e-11
7.31956e-09
-2.31822e-09
1.76659e-09
-6.76793e-09
1.157e-09
5.08178e-09
-1.13851e-09
-4.78957e-09
-2.25992e-10
8.74478e-11
5.72927e-09
-5.39025e-09
2.16177e-09
-2.50079e-09
-4.30905e-09
-7.5525e-10
4.44445e-09
5.75092e-09
-6.82203e-09
-1.50305e-10
1.22141e-09
-3.33548e-09
-3.07947e-09
2.71158e-09
3.70336e-09
4.90604e-09
-2.67359e-09
-3.38812e-09
1.15567e-09
-4.92325e-09
4.94193e-09
2.79186e-11
-4.65985e-11
6.54262e-09
-1.1e-11
-4.24839e-12
-6.52737e-09
-4.80187e-09
4.8034e-09
-2.15167e-11
1.99824e-11
9.74461e-10
-1.78137e-09
-2.20971e-09
3.01662e-09
-5.64526e-10
2.51207e-09
1.26596e-09
-5.17274e-09
5.181e-09
-8.36083e-12
9.62219e-14
-5.3494e-09
5.51441e-09
-2.25188e-10
6.01715e-11
-1.09747e-09
3.73091e-09
-5.53479e-10
-2.07996e-09
-4.8443e-09
4.83414e-09
-3.28581e-11
4.30177e-11
2.15892e-09
6.96768e-09
-7.32626e-09
-1.80033e-09
-4.89678e-09
4.87851e-09
-3.77322e-11
5.60048e-11
-5.18108e-09
5.15443e-09
-2.72519e-11
5.39009e-11
5.07144e-09
2.36918e-10
-2.14562e-10
4.03519e-09
-4.07661e-09
-3.54116e-09
7.07384e-10
-1.25985e-09
-9.84588e-09
5.21916e-10
-5.30815e-09
-3.82803e-10
5.16904e-09
-4.94838e-09
4.93577e-09
-3.40068e-11
4.66188e-11
-5.05937e-09
5.0528e-09
1.4308e-10
-1.36511e-10
-5.11017e-09
5.08718e-09
-2.98158e-11
5.28009e-11
-4.97758e-09
4.9716e-09
-2.8056e-11
3.40281e-11
2.85177e-09
-3.96785e-09
2.08175e-09
-9.65673e-10
-5.0391e-09
5.02219e-09
-3.43903e-11
5.13088e-11
-1.18345e-09
2.76977e-09
-2.68379e-09
-2.36405e-10
-5.38125e-09
5.61766e-09
-2.15764e-09
6.94146e-10
-6.32014e-10
2.09551e-09
-1.80287e-11
5.00006e-09
-4.98203e-09
-1.66343e-11
-7.29968e-11
6.68363e-09
-1.83627e-10
5.54369e-09
3.12041e-09
2.68776e-09
-2.81261e-09
-2.99557e-09
-1.8406e-09
9.32945e-10
-1.00374e-09
1.91139e-09
-1.90731e-11
5.05763e-12
-4.76289e-09
6.11858e-11
-1.37936e-10
4.83964e-09
3.10732e-09
-2.69327e-09
1.62519e-09
-2.03924e-09
-4.1168e-10
7.70168e-11
-9.26942e-11
-5.50379e-09
4.15368e-09
-6.10875e-10
4.60668e-09
-4.58907e-09
-1.76051e-11
-3.67474e-09
3.74038e-09
1.75902e-09
5.19657e-09
5.58394e-11
-3.5271e-11
-2.37049e-10
-3.53873e-09
3.77578e-09
8.31584e-09
-5.51232e-09
-3.3238e-09
5.20291e-10
1.88835e-09
2.16562e-10
-3.28836e-09
-3.56279e-11
1.91906e-10
5.00065e-09
-5.15693e-09
-1.01839e-09
1.09157e-09
9.87026e-10
-1.06021e-09
-3.48575e-11
2.56451e-10
-2.10024e-11
-2.00591e-10
-1.1935e-09
-3.30044e-09
1.60868e-09
-6.50604e-09
4.15874e-12
-1.14436e-11
-4.66475e-09
-2.85125e-10
1.60311e-10
4.87751e-09
-8.45191e-11
1.63035e-10
3.5499e-11
-1.07743e-10
6.21906e-11
-2.76625e-11
5.02981e-09
-2.00214e-10
1.88151e-10
-6.16719e-09
6.17925e-09
-1.07226e-10
-5.74621e-09
5.85344e-09
-8.88447e-10
8.71701e-10
-1.00164e-09
7.12073e-09
-5.17622e-10
1.79748e-10
6.1764e-10
-1.14535e-10
-1.90024e-09
1.39714e-09
7.74746e-11
1.7026e-10
-6.60515e-11
-1.81683e-10
-4.95752e-09
2.28949e-11
-5.2587e-11
2.59626e-09
-2.34945e-09
-5.84639e-09
5.59958e-09
1.87563e-10
-9.25502e-11
2.96114e-09
-2.42746e-09
-5.33674e-10
-1.4634e-09
9.1833e-10
7.68764e-09
-6.47464e-09
-5.05165e-11
6.50713e-09
-4.04624e-10
2.22051e-10
-4.48218e-09
-1.30583e-09
1.78725e-09
-5.16912e-09
-5.98836e-09
5.92547e-09
-1.3733e-10
1.71483e-11
1.62326e-11
-3.33809e-11
-6.3895e-09
7.38905e-10
6.34587e-09
-5.01439e-09
1.39293e-09
2.86035e-09
7.61111e-10
5.03698e-09
5.55599e-10
-4.09281e-09
-1.49977e-09
4.96723e-09
4.18821e-09
-5.18951e-09
3.12795e-11
-2.28518e-11
3.34982e-09
5.63839e-09
-5.4213e-09
-3.56691e-09
-6.06221e-09
-5.63181e-09
5.43621e-09
-7.48334e-09
1.69286e-09
-1.55073e-09
7.34121e-09
8.09817e-12
6.59281e-09
4.21444e-12
-1.27197e-11
3.50433e-09
5.22065e-09
-2.54762e-09
3.8798e-09
-7.82304e-11
-4.19988e-09
3.98317e-10
6.98124e-11
-1.28377e-10
-3.53116e-10
-2.00033e-10
2.54388e-11
-5.0571e-11
2.25166e-10
1.36668e-10
-5.34458e-09
5.34256e-09
-1.34653e-10
3.21897e-09
-2.92378e-09
3.23734e-09
-3.53253e-09
-6.45981e-09
-6.07298e-11
4.58964e-11
-5.03601e-09
-6.65375e-10
5.23583e-09
4.65555e-10
1.63222e-09
-4.45718e-09
-1.76863e-09
4.5936e-09
-1.1123e-11
8.51535e-12
6.54523e-09
8.06221e-09
-6.81111e-09
-8.72905e-10
-3.78199e-10
6.20336e-09
-6.12217e-09
1.06969e-10
4.62413e-09
-4.75047e-09
-5.61678e-11
1.82499e-10
2.25282e-10
6.41852e-09
-4.40449e-10
-4.53329e-09
-8.01212e-11
8.14154e-11
4.532e-09
-4.34299e-09
1.96226e-09
3.81243e-09
-1.43169e-09
5.01903e-09
-1.89716e-11
-9.43891e-09
-2.76428e-10
8.7868e-09
9.28546e-10
-5.86246e-09
-4.4319e-09
5.17835e-09
-4.53437e-09
3.32194e-11
4.49489e-09
6.25728e-12
-2.32827e-10
5.0978e-09
-4.9765e-09
1.11529e-10
1.52662e-09
6.96013e-09
-8.40212e-09
-8.46315e-11
1.7565e-10
-1.52153e-10
2.26227e-11
-4.612e-11
-2.79561e-11
4.63463e-09
6.4201e-09
-6.41e-09
-5.22248e-11
4.21269e-11
-4.43074e-09
-6.60354e-11
4.49678e-09
6.08641e-09
-4.94226e-10
3.54274e-10
-5.94646e-09
4.14199e-09
-2.42866e-09
-3.88601e-09
3.12886e-11
-7.09963e-11
1.16799e-08
8.73286e-10
-4.68595e-09
4.68031e-09
-3.37396e-09
1.58129e-09
-2.88764e-09
5.89489e-09
1.18378e-09
-1.45045e-09
-5.62822e-09
-3.31658e-09
2.98024e-09
1.39158e-09
-1.05525e-09
-3.46776e-11
-6.36158e-09
-2.12931e-11
6.41755e-09
-6.33155e-09
6.34832e-09
-5.28102e-11
3.60413e-11
6.167e-09
-2.84637e-11
8.98944e-11
-6.22843e-09
-6.45491e-09
7.92e-11
6.7943e-09
-4.1859e-10
8.11784e-10
-8.99453e-10
-8.00778e-10
-5.13525e-09
5.19087e-11
-2.68275e-11
-4.83599e-11
2.39766e-11
-4.4411e-09
1.23185e-09
4.84147e-09
-3.17647e-09
-2.71983e-09
3.73054e-09
2.16575e-09
-2.21329e-10
2.46429e-10
-2.51001e-11
2.6436e-09
-2.53774e-09
-2.74172e-09
-1.52479e-09
-5.28205e-09
6.15195e-10
6.19165e-09
-6.27184e-09
6.28668e-09
-3.46959e-11
1.98535e-11
2.90759e-09
-5.06244e-09
4.21952e-09
4.33898e-11
-6.15955e-09
6.14217e-09
-2.60131e-11
-5.30686e-09
1.29099e-10
5.31442e-09
-1.90176e-09
-3.53357e-09
1.46426e-09
3.97107e-09
3.92879e-09
-3.96442e-09
6.31215e-09
-6.30942e-09
-3.04542e-11
2.77258e-11
-6.38464e-09
-5.97318e-11
3.43657e-11
-5.86656e-11
3.18703e-11
1.45451e-09
-4.22923e-09
-2.23967e-09
-1.99785e-09
4.25147e-09
-1.2805e-09
1.28168e-09
1.09039e-09
-1.73986e-09
1.98778e-09
-3.15065e-09
2.90273e-09
2.11009e-11
-2.2176e-10
-5.26773e-09
5.46838e-09
-6.29975e-09
2.06298e-10
-1.83261e-10
6.27671e-09
-4.8958e-09
2.39759e-11
-5.14314e-11
-1.29818e-10
2.14752e-11
-4.38103e-11
-5.22926e-09
5.39699e-09
2.44304e-09
-2.61077e-09
-2.64658e-09
-8.37346e-09
5.50771e-09
5.4839e-09
5.25695e-10
-2.58666e-10
4.16996e-09
-3.2851e-09
-1.45948e-09
5.74618e-10
5.19656e-10
6.01693e-09
-2.83248e-09
-3.70411e-09
-4.41466e-09
-5.00485e-11
3.25332e-11
4.43217e-09
-7.82527e-09
4.62743e-09
-3.88911e-09
7.08695e-09
2.30801e-09
-2.40529e-09
-4.71551e-09
4.81279e-09
6.16868e-09
-2.84892e-11
-6.15391e-09
1.37255e-11
-2.27023e-09
1.95503e-09
2.67521e-10
3.72051e-09
-2.37138e-11
-3.96432e-09
1.05689e-10
4.50829e-09
1.01512e-11
-5.6594e-12
-6.01151e-09
6.00472e-09
1.24441e-11
2.29389e-09
-3.34479e-09
1.6347e-09
-5.83791e-10
1.94995e-10
-3.96766e-09
4.2216e-09
-4.48932e-10
2.05391e-11
-4.23685e-11
-1.07988e-10
4.92424e-09
5.49444e-10
-9.61539e-10
-4.51214e-09
3.02894e-09
-2.64721e-09
-3.16329e-09
2.78156e-09
-4.88195e-09
3.69654e-10
4.14351e-09
3.68782e-10
2.75673e-09
-1.46859e-09
1.09381e-09
-2.38195e-09
-4.48696e-09
5.02634e-09
2.51977e-09
-6.38356e-09
-1.77986e-09
-1.5348e-09
2.27776e-09
2.92408e-09
-3.66704e-09
-2.29271e-09
-7.75082e-10
9.10151e-10
2.48163e-09
-2.82953e-09
-2.3297e-09
2.6776e-09
4.93172e-11
-3.01362e-11
3.90171e-09
-3.69312e-09
-2.20101e-09
-4.75101e-09
2.9663e-09
3.98572e-09
4.48113e-09
-4.45836e-09
-2.27669e-11
6.33943e-10
2.29271e-09
-1.76657e-09
-1.16008e-09
-2.03822e-09
6.18783e-10
2.05338e-09
-5.06476e-09
5.46679e-11
-2.90115e-11
-6.30707e-09
-5.53028e-11
3.08244e-11
2.93965e-09
3.4307e-10
-2.4674e-09
4.05626e-09
6.99217e-10
-3.94805e-09
-8.07424e-10
-3.85645e-10
7.59238e-10
-3.73593e-10
-1.44171e-09
-2.76216e-09
2.57543e-09
1.62844e-09
-5.21352e-09
4.62796e-09
5.36775e-10
4.87853e-11
2.10827e-10
1.58204e-09
-2.18899e-11
-1.77098e-09
-7.23481e-11
-3.92386e-09
3.99621e-09
2.85479e-11
-6.48674e-11
6.27797e-09
7.83202e-10
-2.00644e-10
-6.86053e-09
5.59504e-09
-6.6017e-09
4.25471e-09
-3.24806e-09
-1.28699e-09
5.13142e-09
-5.36922e-09
-1.38379e-09
-3.99e-09
1.69905e-09
5.41301e-09
-4.47141e-10
-4.98515e-09
1.92807e-11
4.25734e-09
6.90782e-11
-3.31513e-13
-4.32608e-09
-1.24797e-09
1.1882e-09
-6.283e-09
6.34276e-09
-1.40994e-09
-3.52229e-09
1.61565e-09
-3.28039e-09
1.50053e-09
3.0802e-09
-1.30034e-09
-4.00855e-11
-6.00875e-09
6.03447e-09
1.43691e-11
-4.19911e-10
1.46191e-09
-2.25298e-09
1.21098e-09
2.79078e-10
5.13682e-09
-4.70427e-09
-7.1163e-10
-3.62728e-09
1.91932e-09
-2.10952e-09
3.35918e-09
5.91371e-09
-3.34388e-09
-5.92901e-09
2.11936e-09
4.60621e-09
-1.98553e-09
-4.74004e-09
-3.98102e-09
6.11238e-09
1.60247e-09
-3.73384e-09
-2.21523e-09
2.33495e-09
2.90922e-09
7.524e-09
-1.36068e-09
-7.03734e-09
8.74025e-10
-7.02369e-09
7.2633e-09
-1.89444e-09
1.65483e-09
6.13213e-09
-6.10641e-09
-3.13861e-11
-1.90172e-09
1.68391e-09
4.28639e-10
-2.60899e-09
2.49614e-09
-1.61608e-09
1.99534e-10
4.3076e-09
-4.50714e-09
-1.9629e-10
2.16569e-10
-8.72831e-10
8.52552e-10
5.11552e-09
-4.09847e-09
-1.83981e-09
1.43003e-09
4.04194e-09
-5.27697e-09
-5.5746e-09
5.34403e-09
1.10979e-09
-8.79214e-10
-4.33829e-11
2.77971e-11
1.73818e-10
-1.4608e-09
-6.25679e-09
-3.12928e-11
1.62447e-11
2.13241e-09
-9.23091e-09
-3.84842e-10
1.80392e-09
-8.13523e-10
-9.90393e-10
-2.17185e-09
6.77773e-09
4.01741e-10
-5.00762e-09
2.69737e-09
3.67662e-09
-4.52967e-09
4.56501e-09
-3.53382e-11
-1.52259e-09
-8.32313e-09
7.09942e-09
2.74629e-09
2.4443e-09
-2.62353e-09
3.18139e-09
-3.00215e-09
-4.56743e-09
1.80596e-11
4.54937e-09
5.36307e-10
4.59511e-09
1.74123e-09
5.98841e-10
-2.34007e-09
-8.93081e-11
5.90268e-09
-8.25964e-10
-8.35623e-10
-7.68338e-09
7.22744e-09
1.29156e-09
4.1248e-11
-5.31765e-09
-2.8907e-11
5.30531e-09
2.11857e-09
-1.24707e-09
-8.71501e-10
-4.9947e-09
3.88231e-11
-2.16998e-11
4.66702e-09
-4.63607e-09
1.12811e-11
-4.22268e-11
-2.10436e-10
-5.49534e-09
4.26265e-10
5.27951e-09
8.2969e-09
-1.27811e-09
-5.09497e-09
5.17244e-09
-1.32732e-10
5.52596e-11
-3.15844e-09
-1.56734e-09
3.80406e-09
-3.3194e-09
-2.16125e-10
3.53553e-09
2.27184e-09
-3.10364e-09
4.08271e-09
-3.25091e-09
7.98769e-09
2.04818e-10
2.27873e-09
4.02945e-09
-3.38454e-09
-2.92364e-09
5.13696e-09
-5.25239e-09
-9.50023e-11
4.01693e-10
-1.05089e-09
1.45941e-09
-8.10211e-10
-2.11328e-09
-1.58218e-09
8.70087e-10
2.82537e-09
5.94112e-09
-5.33131e-09
3.19988e-11
-1.27873e-10
4.92405e-10
-2.4196e-09
-7.19713e-10
2.64691e-09
1.80656e-10
2.43867e-09
-1.64486e-09
3.76533e-11
-9.40746e-11
1.91463e-10
-1.35042e-10
-3.28312e-09
3.66597e-09
-3.98217e-09
3.59933e-09
5.99978e-09
-1.66843e-11
-1.19733e-12
-5.98189e-09
-8.76712e-11
1.07276e-10
-1.96052e-11
-2.23105e-09
7.82208e-09
-8.15286e-09
2.56183e-09
-2.31225e-09
2.41541e-09
4.50028e-09
-4.60344e-09
4.84096e-11
5.29817e-09
-5.30534e-09
2.90202e-10
5.32741e-09
-1.33714e-10
-2.54155e-10
-2.07728e-09
1.91152e-09
-1.40295e-11
4.39666e-12
2.06548e-10
-1.96915e-10
-5.22006e-10
-7.53871e-09
-1.11252e-11
-4.51855e-09
-1.80475e-11
6.00966e-09
5.26814e-11
-6.04429e-09
6.23145e-09
-3.48881e-11
1.7723e-11
-6.21428e-09
9.65038e-11
-6.25888e-09
6.29562e-09
-1.33247e-10
-2.04291e-09
6.34853e-10
-6.3017e-10
-3.04009e-09
1.62813e-09
-3.80156e-09
-2.24933e-09
8.25536e-09
-8.64428e-09
2.63825e-09
-6.03371e-09
6.11648e-12
6.07098e-09
-1.49118e-09
1.87363e-10
2.52418e-09
-4.1789e-09
7.71982e-11
1.57752e-09
5.97817e-09
-1.8759e-09
-3.7414e-09
-3.60873e-10
-1.15462e-09
-3.6054e-09
1.34552e-09
-5.01606e-11
1.76708e-11
6.78956e-11
-3.54058e-11
5.07487e-11
6.41465e-09
-6.36889e-09
2.81012e-11
-4.84885e-11
4.95968e-11
-2.71729e-11
1.64241e-10
-5.02389e-09
1.13167e-09
3.72798e-09
9.82727e-10
-2.06108e-09
-3.8036e-09
-2.7967e-12
2.60735e-12
-2.09244e-10
2.09434e-10
-1.6249e-09
-5.95692e-09
2.00722e-09
-2.15164e-09
-6.93591e-11
-2.38788e-09
-7.98009e-10
-4.19606e-10
2.35749e-09
1.04236e-09
-6.27628e-09
6.24253e-09
8.38822e-10
-8.05071e-10
-3.36965e-09
8.52815e-10
4.52833e-09
-2.0115e-09
-2.97645e-09
-6.60765e-10
4.18529e-09
-5.48076e-10
-1.38806e-10
8.2317e-11
8.73845e-10
1.22237e-10
-8.82868e-10
4.30324e-11
7.17599e-10
-6.13609e-09
6.15079e-09
-5.47784e-11
3.45699e-10
-3.08483e-10
3.18855e-11
-6.91017e-11
-3.85583e-09
-6.70067e-09
1.37887e-09
9.17763e-09
-3.60576e-09
-5.63322e-09
5.93502e-09
3.30396e-09
2.88713e-09
2.16906e-10
-2.61163e-09
4.84202e-09
-3.20892e-09
1.48341e-09
-3.1165e-09
-5.91898e-09
2.18696e-11
-5.85722e-11
5.95569e-09
6.46959e-10
-7.1435e-10
1.89627e-10
-4.99817e-09
1.41334e-09
-1.81658e-10
3.76649e-09
1.22956e-09
-2.9006e-09
-7.59853e-10
2.43089e-09
-4.53544e-09
-6.07074e-09
6.62516e-09
-1.54084e-09
3.88714e-10
3.0655e-09
-1.91338e-09
7.8294e-11
-6.31318e-09
6.22376e-09
2.59893e-09
7.06517e-09
-7.88391e-09
-1.78018e-09
3.46618e-09
-6.23351e-10
9.68166e-11
-6.4992e-10
2.26968e-09
4.25858e-09
2.5977e-09
-1.18899e-09
4.48564e-09
-5.89435e-09
-6.30542e-09
6.26068e-09
9.3768e-11
-4.90286e-11
-5.28083e-09
5.29199e-09
1.00968e-11
-2.12567e-11
-1.65305e-10
1.77374e-10
2.85543e-10
-7.51067e-09
-8.31621e-09
3.08987e-09
1.04419e-09
-2.61252e-09
-1.80132e-09
5.2272e-09
-1.8111e-10
9.4484e-11
-5.14057e-09
3.75337e-09
-4.01934e-09
5.628e-09
-5.36203e-09
-3.03185e-09
2.34257e-09
-2.10387e-09
2.79314e-09
5.46486e-09
2.34754e-09
-4.40812e-09
-3.40428e-09
-1.97423e-10
8.58394e-10
-8.57262e-10
-3.44713e-09
-3.60672e-09
3.51009e-09
3.54376e-09
5.38487e-10
2.57581e-09
-1.23545e-09
6.18364e-09
5.10936e-09
5.82658e-09
-5.49751e-09
-3.75313e-09
-3.31058e-09
3.61658e-09
1.29506e-08
-4.18934e-09
-5.40205e-09
2.59831e-09
-2.95843e-09
-3.50279e-09
3.86291e-09
-3.66666e-09
4.25904e-09
-2.64137e-09
2.04899e-09
-5.62563e-11
1.41515e-10
3.60996e-11
-1.21358e-10
-4.20757e-09
3.6315e-09
-3.51216e-09
4.08823e-09
-3.73951e-09
3.82937e-09
-8.98663e-11
-5.29945e-09
5.33138e-09
-1.08767e-11
-2.10533e-11
1.35939e-09
4.50363e-10
-6.37137e-10
-1.17262e-09
9.999e-11
-6.79964e-10
-1.63108e-10
3.76784e-09
-1.08283e-09
9.02138e-10
-3.58714e-09
-5.63212e-09
-9.60252e-11
5.50404e-09
2.24102e-10
-1.38974e-09
2.22712e-09
5.14079e-09
3.73256e-10
-3.30092e-10
6.86547e-10
-7.29712e-10
3.43958e-10
-3.57425e-11
3.57158e-09
-5.11658e-11
-4.88154e-09
3.69112e-11
4.09592e-10
7.36095e-09
-5.63813e-09
1.59603e-09
4.00049e-09
-3.67791e-09
-1.91861e-09
-6.31937e-12
-1.45722e-09
-3.76572e-09
1.67809e-09
-2.07507e-09
-7.67458e-10
1.16444e-09
-4.08428e-09
3.72425e-09
-3.84754e-09
-4.11112e-09
4.31624e-09
3.93892e-09
-4.14404e-09
-1.76485e-11
-4.51308e-09
4.53073e-09
5.79357e-09
-2.20461e-09
3.0067e-09
-5.06926e-09
-1.01283e-09
3.07538e-09
4.78577e-09
2.20137e-11
-6.50353e-11
-4.74275e-09
-6.9659e-11
4.79787e-09
-4.77408e-09
4.58675e-11
-1.13322e-09
1.57647e-09
5.4856e-09
-5.92886e-09
2.52238e-10
8.86072e-10
-9.21741e-10
4.53029e-10
2.66689e-09
-9.85012e-10
1.3437e-09
-3.02558e-09
-1.45982e-09
6.88747e-09
-6.92076e-09
1.49311e-09
6.55495e-10
-8.75388e-09
-1.51911e-09
-4.33145e-09
1.93856e-09
2.82237e-09
-2.59569e-09
2.42563e-09
-2.6523e-09
-7.93514e-12
1.30359e-11
-1.57288e-10
1.52187e-10
2.03174e-10
-1.13938e-10
1.55243e-09
4.04772e-10
-5.97812e-10
5.28444e-09
-5.29681e-09
-2.44895e-11
3.68635e-11
5.3646e-09
-5.08443e-09
1.8384e-09
5.13091e-09
-7.52207e-11
1.40878e-10
-5.32231e-09
-3.95205e-11
4.41811e-11
-2.12116e-11
2.48255e-11
2.39112e-09
4.80216e-11
-3.82318e-11
-2.40091e-09
4.67487e-09
-2.3335e-09
-2.34138e-09
3.87974e-09
-3.3303e-09
1.98748e-09
-2.04394e-09
7.50602e-10
-6.94804e-09
-1.35023e-09
7.38165e-09
9.16615e-10
-3.78857e-11
-5.91138e-09
3.02862e-11
4.51427e-09
-3.31468e-11
-5.10813e-09
-1.15767e-09
1.93859e-09
4.32722e-09
-4.58548e-09
3.82557e-11
3.95338e-10
4.19437e-09
-6.69775e-09
2.74027e-09
3.95748e-09
5.79571e-11
3.25294e-09
-1.87159e-09
-1.43931e-09
6.26416e-09
5.70599e-09
-8.44427e-09
2.12975e-09
4.7481e-09
-1.72543e-09
-4.21797e-09
-8.42215e-10
4.37688e-09
-7.16719e-09
6.04258e-09
1.23794e-11
-3.7727e-11
-1.53018e-09
-3.65141e-09
3.72374e-09
1.45784e-09
3.87885e-09
-5.27271e-09
-3.16705e-11
5.91145e-09
5.65812e-11
-5.93636e-09
1.84861e-09
-3.26783e-09
-1.61263e-09
-4.14991e-09
3.67885e-09
2.42717e-09
-1.95611e-09
-4.77203e-09
4.87434e-09
-1.81854e-09
1.71623e-09
1.37001e-10
-7.81499e-11
-1.16706e-10
5.78543e-11
9.71173e-10
-7.95339e-10
-4.64122e-09
1.42667e-10
-3.5818e-11
-1.20283e-09
3.97253e-10
1.25594e-09
-4.01496e-09
2.82388e-09
4.09868e-09
4.44866e-10
8.56509e-10
-1.68702e-09
-2.1333e-09
2.46878e-09
-3.35485e-10
-6.77212e-10
1.59159e-11
-2.21572e-10
5.83905e-09
4.73527e-11
-5.86373e-09
-2.26687e-11
-3.03312e-09
3.16404e-09
-2.33035e-09
2.19943e-09
5.0446e-09
1.71935e-10
-8.56246e-11
6.64139e-10
2.55627e-09
-1.49595e-09
-2.44274e-11
5.8175e-09
4.59781e-11
-3.11303e-10
-4.78515e-09
6.97689e-11
-1.14788e-10
4.83017e-09
-3.87808e-09
-2.43981e-09
9.39872e-10
5.37802e-09
6.77258e-09
-7.46856e-10
4.58619e-09
1.85812e-10
1.52786e-10
-4.92479e-09
1.08876e-11
6.95323e-09
-6.87938e-09
-8.47365e-11
5.04468e-11
-2.29595e-11
-7.09301e-10
2.49427e-09
-2.26017e-09
4.75201e-10
-6.35625e-09
6.30981e-09
-2.27243e-11
6.91647e-11
3.81703e-09
5.28798e-09
-4.79898e-09
-4.30603e-09
5.49285e-11
-3.2575e-09
3.24926e-09
-4.66937e-11
-3.36691e-09
2.40272e-09
-2.01226e-09
-9.96203e-11
1.50237e-10
5.78856e-10
-5.30484e-09
3.17866e-10
2.64343e-09
-3.49978e-09
1.61559e-09
7.48915e-10
-6.97284e-10
3.45268e-10
-3.96899e-10
-5.36762e-09
3.13247e-10
4.84121e-09
-3.673e-09
5.3569e-11
-6.07829e-09
6.07207e-09
-6.50864e-09
6.41614e-09
1.26537e-10
-3.40437e-11
-1.01832e-10
5.02469e-09
2.14097e-10
7.93602e-09
-8.38316e-09
8.25164e-11
3.64626e-10
-5.29721e-09
-2.76454e-11
2.80447e-11
-4.41612e-11
2.20253e-10
2.21502e-09
-1.77904e-09
-6.89705e-09
4.33523e-09
-4.31638e-09
-1.88458e-11
-3.08611e-09
3.18089e-09
-3.13488e-09
-6.28096e-09
6.25175e-09
-2.1522e-11
5.07314e-11
2.58717e-09
5.4834e-09
-4.45394e-09
-3.61662e-09
-5.01348e-09
3.48378e-11
-9.15722e-11
5.07021e-09
-5.66031e-09
-2.63142e-09
-2.56715e-10
8.54844e-09
5.48517e-09
-8.35648e-10
-4.64952e-09
-5.29691e-11
-4.37777e-09
-5.41546e-09
3.77879e-10
2.35688e-09
-4.07025e-09
-1.17737e-09
2.89075e-09
-8.94466e-09
-1.62088e-09
1.10695e-09
-6.3601e-09
-2.83683e-09
8.08997e-09
2.77982e-09
-5.32751e-10
-2.11792e-09
-1.29156e-10
6.94305e-09
-1.57387e-09
2.12782e-09
-7.49699e-09
2.68192e-10
-6.25737e-09
-9.06178e-09
6.79816e-09
3.89731e-09
-1.63369e-09
-9.81058e-10
2.80116e-10
9.5318e-10
-2.46917e-09
-7.11302e-09
2.30593e-09
3.25523e-09
-3.20669e-09
2.48275e-10
-2.96823e-10
-6.2281e-09
6.20788e-09
-2.28301e-11
4.30452e-11
-6.47063e-09
-3.40687e-09
3.05122e-09
9.40917e-10
5.06199e-09
-2.29597e-09
-3.74197e-10
3.55501e-09
-3.60042e-09
-4.61771e-10
-1.7783e-09
-9.99781e-10
-7.04652e-11
1.24882e-09
-1.78578e-10
5.87612e-09
-2.5752e-11
9.57602e-12
-5.85995e-09
2.2589e-09
-5.24301e-09
8.84467e-09
-5.86056e-09
-6.71345e-09
6.74234e-09
-4.55303e-11
-1.225e-09
3.19552e-09
-1.91257e-09
5.21827e-09
-3.20106e-10
-1.16367e-09
1.14756e-09
3.36213e-10
-9.32397e-09
7.01069e-09
7.90702e-10
3.8888e-09
-2.56317e-09
-4.60876e-09
5.81594e-10
-4.98078e-10
2.45877e-10
-3.29393e-10
-2.06854e-09
-6.35521e-09
6.64472e-09
-7.28982e-09
6.93967e-09
3.62619e-10
7.62391e-12
-7.30991e-09
6.16493e-09
-6.18516e-09
-1.98328e-11
4.00661e-11
4.85939e-09
-9.89934e-11
1.65876e-10
-4.92627e-09
-8.58833e-11
-3.65362e-09
2.89862e-09
1.87704e-10
-4.06713e-10
-2.67961e-09
1.01455e-09
1.41919e-09
3.4608e-10
9.22383e-11
-1.64742e-10
-5.02247e-09
7.27314e-09
-4.74578e-09
-3.77532e-09
4.54758e-09
-4.01111e-09
2.81336e-09
-6.03253e-09
-6.74506e-11
6.06209e-09
-6.49992e-09
6.51783e-09
-5.28002e-11
-2.25859e-10
-8.6587e-10
9.19483e-11
-5.81513e-09
1.67681e-11
-4.33879e-11
5.84175e-09
4.49949e-09
-4.53116e-09
-4.02538e-09
3.37199e-09
3.01027e-09
3.14573e-11
6.56985e-10
-4.14826e-11
8.90635e-09
-9.14778e-09
1.01852e-09
-7.77102e-10
-3.81485e-09
3.74519e-09
-2.82735e-09
2.18497e-09
1.64198e-09
-9.99594e-10
2.8481e-09
-3.32639e-09
1.70122e-09
-2.04149e-09
7.48112e-09
-7.75182e-09
-1.72755e-09
1.99824e-09
-1.07852e-08
-1.7444e-09
7.99412e-09
-2.96201e-09
-7.48885e-10
4.98238e-09
-1.27148e-09
5.52916e-09
-1.12533e-09
-1.88143e-09
-3.75333e-09
3.70109e-09
1.93367e-09
-4.67934e-09
-4.80444e-10
-1.22272e-10
7.31011e-11
-5.70328e-09
6.24537e-09
-5.26963e-11
-6.68995e-09
6.75354e-09
3.48469e-09
-3.57474e-09
3.75601e-09
3.31171e-09
-2.86292e-09
3.19054e-09
-4.34258e-09
2.24325e-09
-3.77615e-10
-1.52257e-09
1.02482e-09
-1.65488e-09
1.64462e-09
-2.19667e-09
2.03494e-09
-2.34778e-09
3.3577e-09
-3.28399e-09
1.62882e-09
-1.70252e-09
1.55569e-09
-2.15196e-09
-3.56359e-09
4.15987e-09
-6.66269e-09
1.74208e-10
-2.01582e-11
5.33273e-09
-3.54003e-09
-1.80971e-09
1.70035e-11
5.35303e-09
-1.2445e-10
6.68557e-11
-5.06316e-10
4.84893e-09
-4.34261e-09
3.33282e-09
-4.8245e-09
2.47441e-09
-5.7766e-09
5.79746e-09
2.6257e-11
-4.71218e-11
-9.49816e-10
-4.36094e-09
6.31413e-10
8.1135e-09
2.2918e-09
-2.06803e-09
-4.77926e-10
1.00861e-11
1.71113e-10
-9.2568e-12
-1.71943e-10
-2.3459e-10
1.50742e-09
-1.8912e-09
6.18373e-10
-2.14816e-09
1.67462e-09
3.23026e-09
7.22515e-09
-1.73998e-09
-1.46914e-09
1.57478e-09
-1.05645e-10
2.99228e-09
-3.04436e-09
-2.54361e-09
-6.72879e-10
-2.51545e-09
1.52643e-09
1.6619e-09
-2.1519e-11
3.05455e-11
-5.80099e-09
5.79196e-09
-2.09135e-11
-4.37159e-09
4.39251e-09
2.77724e-10
-7.41462e-13
2.70134e-09
1.23352e-09
-2.73804e-09
-1.19683e-09
2.06375e-09
-2.07698e-09
-4.572e-09
2.5186e-09
-4.92799e-10
2.54619e-09
-1.36858e-11
6.22291e-12
5.10796e-10
-3.51931e-11
1.8162e-09
1.76078e-09
-8.30217e-10
-3.86867e-09
2.93811e-09
-6.92928e-09
6.86757e-09
-2.64731e-09
-1.94545e-10
2.91946e-09
-3.51816e-09
6.03263e-09
-5.43393e-09
-3.3896e-09
-4.25002e-10
4.29482e-09
-4.80212e-10
-1.92268e-09
-3.63819e-09
3.75523e-09
-2.28028e-09
2.76108e-09
-2.54188e-09
4.58576e-10
-6.75883e-11
4.10742e-09
-2.48595e-09
2.08295e-09
-3.70442e-09
4.37899e-09
-2.9468e-09
7.94931e-10
5.38048e-09
-2.46981e-09
-5.57559e-09
-3.72123e-09
4.9712e-09
2.62144e-11
-1.27619e-09
-6.18422e-09
2.79204e-11
6.19442e-09
-3.81248e-11
3.45025e-10
-3.08543e-10
1.90801e-10
-2.27283e-10
5.03302e-09
-5.04402e-09
-2.9368e-10
1.17983e-09
-1.20625e-09
-4.38615e-09
4.36463e-09
-2.10074e-09
-4.77088e-09
1.76348e-09
-1.87395e-10
-8.29227e-10
-8.04516e-09
-6.22211e-09
6.48467e-09
5.6397e-12
2.82938e-09
7.34081e-09
6.22299e-10
6.1579e-09
-3.2365e-09
3.00923e-09
-5.93063e-09
-7.30721e-09
6.8489e-09
3.33816e-09
-2.87986e-09
3.25882e-11
6.64072e-10
1.7574e-10
3.88064e-09
-4.05638e-09
2.07677e-11
-3.63084e-11
-2.67531e-11
4.29962e-09
-4.27286e-09
-9.46497e-10
-4.09095e-09
8.19479e-10
-3.5266e-09
-2.69513e-09
4.31489e-09
-2.67087e-09
2.80058e-09
6.06373e-09
-6.19344e-09
2.89574e-09
9.46954e-10
-2.16461e-09
5.01766e-09
-4.53169e-09
4.78707e-09
1.83933e-09
-1.66551e-09
9.32435e-10
-6.19311e-10
-3.14048e-09
-2.22606e-10
5.5949e-09
-8.8579e-09
-8.92444e-10
8.48964e-09
-4.79721e-09
1.06463e-09
-1.30343e-09
1.28695e-09
-2.85689e-09
2.52322e-09