/*--------------------------------*- C++ -*----------------------------------*\
  =========                 |
  \\      /  F ield         | OpenFOAM: The Open Source CFD Toolbox
   \\    /   O peration     | Website:  https://openfoam.org
    \\  /    A nd           | Version:  8
     \\/     M anipulation  |
\*---------------------------------------------------------------------------*/
FoamFile
{
    version     2.0;
    format      ascii;
    class       volVectorField;
    location    "3.8";
    object      U;
}
// * * * * * * * * * * * * * * * * * * * * * * * * * * * * * * * * * * * * * //

dimensions      [0 1 -1 0 0 0 0];

internalField   nonuniform List<vector> 
7843
(
(0.000725699 0.00129026 -2.8232e-22)
(0.000539867 0.000982598 1.26652e-21)
(0.0005411 0.00100636 0)
(0.000956888 3.73225e-05 7.78443e-22)
(0.000670748 0.00118254 -3.54408e-22)
(0.00101977 2.04663e-05 -9.22598e-23)
(0.000582993 0.000523676 -2.6795e-21)
(0.000561239 0.00100168 0)
(0.000216577 9.59475e-05 3.67467e-21)
(0.000562818 0.000972879 0)
(0.000573722 0.00101825 1.01908e-21)
(0.00072281 0.00127458 0)
(0.000312944 5.50367e-05 0)
(0.000575467 0.00103564 0)
(0.000579135 0.000982366 1.70135e-21)
(0.000428092 0.000727596 1.04306e-21)
(0.000571387 0.00101575 3.0772e-24)
(0.000579324 0.000989034 0)
(1.09554e-05 9.46285e-05 1.0954e-21)
(0.000254205 0.000390441 0)
(0.000206196 0.000141876 3.15937e-21)
(0.000408741 0.000443292 -5.28684e-22)
(0.000576219 0.00102188 2.52054e-24)
(8.11745e-05 0.000859372 -1.48041e-22)
(0.000746478 0.00122383 -6.60164e-22)
(1.78247e-05 -5.50646e-06 0)
(0.000513604 0.00137658 -5.46075e-23)
(5.42063e-05 0.000389437 3.18093e-21)
(0.000646506 0.00119027 -1.41082e-22)
(0.00102792 1.7539e-05 -8.83827e-22)
(0.000879471 0.000167799 -1.13458e-21)
(0.000531756 0.00101212 3.68777e-22)
(0.00080163 -8.87167e-05 1.05721e-21)
(0.000590882 0.00101347 1.49345e-22)
(0.000536356 0.000967892 9.8241e-22)
(0.000826705 0.001248 -2.36455e-21)
(0.000578643 0.000971111 -7.34718e-22)
(0.000925661 0.000344834 5.34843e-25)
(0.00102467 5.31492e-05 -1.19658e-22)
(0.00050702 0.000926087 1.06239e-21)
(0.000577226 0.000976339 -1.92448e-23)
(0.000589197 0.00105429 -1.18602e-21)
(0.000736576 0.00125303 0)
(0.000548122 0.000980716 -2.55229e-21)
(0.000223295 8.04426e-05 -1.11271e-21)
(0.000189799 0.000457457 7.32951e-22)
(0.000576267 0.00103203 1.08493e-21)
(0.000204028 0.000587 1.47623e-21)
(0.000580366 0.0010096 1.33314e-21)
(1.09204e-05 3.33268e-05 2.89439e-23)
(0.000353296 4.633e-05 -1.0525e-21)
(0.000552961 0.000980956 1.37536e-23)
(0.00055906 0.00100998 0)
(0.000762677 0.000525555 9.47773e-22)
(0.000669827 0.00115121 -2.62493e-22)
(7.66733e-06 8.46029e-05 0)
(0.000364858 0.000454556 2.81279e-21)
(0.000539181 0.000108598 1.08028e-21)
(0.000747648 0.00129906 -4.14849e-24)
(9.5981e-05 0.000169253 -1.44015e-21)
(0.000735657 0.00125701 4.48742e-22)
(0.00102842 0.000446874 1.00682e-22)
(6.92578e-05 0.000551117 -4.94485e-21)
(0.000827924 0.00011838 -1.94012e-21)
(0.000641545 0.00128974 8.48633e-24)
(0.000710318 0.00130712 -7.12532e-22)
(0.000758891 0.00123918 0)
(1.02489e-05 6.74783e-05 0)
(0.000568916 0.000523351 0)
(0.000737511 0.0012577 0)
(0.00036114 -0.000130973 -1.03054e-21)
(0.000565868 0.000984113 1.08812e-21)
(0.000216527 0.00112454 2.17206e-23)
(9.97151e-05 0.000165249 9.41241e-22)
(0.000340641 -8.99349e-05 -9.35909e-22)
(0.000494551 0.000934038 8.94346e-22)
(0.000737389 0.00125149 3.56051e-22)
(0.000735037 0.00125549 -1.52013e-22)
(0.000591861 0.00104481 0)
(0.000865802 0.000107861 0)
(0.000463921 -2.12804e-05 -1.47098e-21)
(0.000671131 0.00121447 0)
(0.000571276 0.00103472 -1.26782e-21)
(0.000689061 0.000317165 2.31776e-21)
(0.00051812 0.000880593 -7.08818e-22)
(0.000590221 0.00102436 -7.15604e-22)
(0.000452689 0.000359164 0)
(0.000740489 0.00126896 -1.01191e-22)
(0.00082817 0.000312129 -1.78655e-21)
(0.000217251 0.000455661 1.0689e-21)
(0.000189544 0.000177477 -6.00336e-21)
(0.000597118 0.00100548 -6.03501e-22)
(1.50401e-05 5.05656e-05 4.0787e-26)
(0.000842563 0.000129026 3.38025e-21)
(0.00051758 0.00034537 0)
(0.000754293 0.0013157 1.09003e-21)
(2.48721e-05 6.91269e-05 -2.33705e-21)
(0.000331131 0.000947073 -2.75e-23)
(0.000408724 3.35964e-05 1.60001e-21)
(0.000506178 0.000960515 -9.03567e-22)
(0.000383257 0.00105826 0)
(0.000493051 0.00116772 1.95785e-22)
(0.000364182 0.000398628 0)
(0.000662071 0.00146689 0)
(0.000203804 0.000202929 -1.53002e-21)
(0.000148464 0.00113019 -1.31846e-21)
(8.43025e-06 4.86019e-05 2.12401e-22)
(0.000353027 -0.00017567 -1.04678e-21)
(0.000419393 0.000872552 -8.57969e-22)
(0.000556698 0.00097669 0)
(0.000666383 0.0012179 1.66222e-23)
(0.000577239 0.000576301 -9.54628e-22)
(0.00105691 0.00041706 9.36422e-23)
(0.000598357 0.00100341 -8.10322e-22)
(0.000166768 0.000313127 -2.90361e-21)
(0.000745772 0.00123182 -7.38545e-22)
(0.000825191 0.000274817 1.73699e-24)
(0.00073373 0.00129791 1.23449e-22)
(0.000187688 0.000207607 0)
(0.000598192 0.00100342 1.9315e-21)
(0.000667625 0.00118959 6.56346e-22)
(0.000653864 0.00118061 1.2925e-22)
(0.000538219 0.000996736 -1.05454e-21)
(0.00067297 0.00113704 2.85101e-22)
(0.000495272 2.44801e-05 -1.34577e-21)
(0.000366424 0.000509526 0)
(0.000610519 0.000998134 0)
(0.000192716 0.000861644 -2.39758e-21)
(0.00049197 0.000792064 -1.01569e-22)
(0.00101752 2.93666e-05 0)
(0.000597099 0.00100561 6.0938e-22)
(0.000176355 0.000378001 5.56096e-22)
(0.000353934 0.000180746 1.93141e-21)
(0.000657263 0.00115851 -7.07517e-22)
(0.000510757 0.000981404 -2.77949e-21)
(0.000576033 0.000970712 -1.09853e-21)
(0.000977768 3.28144e-05 5.81922e-23)
(0.000310049 0.000719319 -2.12804e-23)
(0.000577995 0.000973285 -6.39197e-24)
(0.000740969 0.00126206 3.19404e-22)
(0.000475067 8.3197e-05 -1.14647e-21)
(0.000551438 0.00081393 1.38708e-21)
(0.00070706 0.000252794 7.12122e-23)
(0.000948827 -0.000229019 1.44539e-21)
(1.40766e-05 5.26751e-05 1.21501e-25)
(0.000768017 -2.84863e-05 8.41538e-22)
(0.000596063 0.00106549 -1.25932e-21)
(0.000491203 0.000963763 -1.96177e-23)
(0.000685899 0.000846155 1.77481e-21)
(9.20615e-05 0.000852999 1.35139e-21)
(0.000591353 0.00102122 1.07163e-23)
(0.000529966 0.0005626 -1.10605e-21)
(0.000769209 0.000167955 1.07666e-21)
(0.000597292 0.00100345 0)
(0.000759575 0.00123855 9.99651e-22)
(0.000569167 0.00101626 -1.08662e-21)
(5.26542e-05 0.00030218 -1.88384e-21)
(0.000200773 0.000385209 -7.71872e-22)
(0.000556333 0.00101623 2.66345e-21)
(0.000575248 0.000988291 0)
(0.000338573 0.000105664 2.29518e-21)
(0.000570713 0.00101327 -2.19572e-21)
(0.00131066 0.000410757 7.06916e-23)
(0.000569738 0.00101312 -9.70093e-24)
(0.000567103 0.00102093 -1.30742e-21)
(0.000560185 0.00100855 -4.72817e-22)
(0.000700942 0.000302229 -1.35732e-21)
(0.000235927 0.00123592 0)
(0.000590015 0.00101041 -2.78152e-22)
(0.000569346 0.00101647 1.14031e-21)
(0.000560605 0.00102939 0)
(0.000567539 0.00102118 1.27021e-21)
(0.000568403 0.001018 -5.04068e-24)
(0.000129516 0.000314326 -2.97563e-21)
(0.000568585 0.00101983 -1.22025e-21)
(0.000321114 9.95567e-05 -1.38139e-25)
(0.000509447 0.000940362 0)
(0.00023326 2.62754e-05 1.24576e-22)
(0.000506247 0.000952504 1.0426e-21)
(0.000724078 0.00127403 -4.17185e-22)
(0.000525063 0.000892498 3.1074e-22)
(0.000588186 0.00100809 -6.35586e-23)
(4.05099e-05 0.000233228 -4.39503e-28)
(0.000549072 0.00101291 0)
(0.00055227 0.000984308 1.07056e-21)
(0.000412988 0.00056422 -4.68899e-23)
(8.69413e-06 4.50918e-05 2.69872e-23)
(0.000539346 0.000580859 1.04451e-21)
(0.000511667 0.000847865 0)
(0.000213504 0.000461739 0)
(0.000568843 0.000975958 -5.17022e-22)
(0.000409991 0.000728969 1.21591e-21)
(0.000859209 6.40708e-05 1.00465e-21)
(0.000324853 6.342e-05 0)
(0.000541125 0.000997942 -1.15499e-21)
(9.9617e-05 0.000111843 3.41506e-22)
(2.32755e-05 -1.17765e-06 0)
(0.000254046 0.000342319 3.29835e-21)
(0.000739433 0.00126052 -1.14906e-22)
(0.000473211 0.000943375 1.40853e-21)
(0.000555558 0.000980135 2.56877e-21)
(0.000745116 0.00128081 1.73684e-22)
(0.000595608 0.00100655 1.17462e-21)
(0.000686495 0.00116192 4.3683e-22)
(0.000518297 0.0010029 1.0808e-22)
(9.43458e-05 0.000103053 -4.67572e-22)
(0.000755367 0.00133626 1.31011e-22)
(1.35321e-05 0.000169039 3.70374e-22)
(1.51144e-05 -7.89902e-06 -6.97283e-22)
(0.000596794 0.00100378 -6.5418e-22)
(0.000800074 0.000762144 0)
(0.000556015 0.000979025 -1.3074e-21)
(0.000317468 0.000562225 8.75996e-22)
(0.000726318 0.0012517 4.33519e-22)
(0.000760272 0.00123822 2.73991e-22)
(0.000460572 0.000923808 2.87411e-21)
(0.000718014 0.000225253 -2.42679e-22)
(0.000659533 0.00117479 0)
(2.78142e-06 8.80254e-07 0)
(0.00075776 0.000486426 0)
(0.000475519 0.000349248 4.91958e-22)
(4.84321e-05 0.000501597 3.67306e-22)
(0.000208387 0.000957253 0)
(0.000565194 0.00102009 1.30553e-21)
(0.000686587 0.00070251 2.38224e-22)
(0.000855483 0.000123516 0)
(0.00125457 0.000300458 0)
(0.000757594 0.00124055 0)
(0.000559339 0.00101972 5.93687e-24)
(0.000977645 0.000462442 0)
(0.000185179 0.00060844 0)
(6.82456e-06 4.16611e-05 -5.24323e-23)
(4.35802e-06 2.45115e-05 -4.56865e-22)
(0.000599508 0.00103742 1.8574e-22)
(0.000535793 0.000456182 -7.43276e-22)
(0.000760478 0.00123816 -5.3781e-22)
(0.000605751 0.0010477 0)
(0.0003821 0.000829338 -2.16623e-22)
(0.000759689 0.00123864 9.73896e-22)
(0.000414293 0.0012046 0)
(0.000644872 0.00115286 -8.47567e-22)
(0.000572213 0.00096698 3.75527e-22)
(0.000647757 0.00115426 8.08069e-22)
(0.000573011 0.00100758 -8.55719e-22)
(0.000247064 0.000549485 0)
(0.000506666 0.000953492 2.51888e-22)
(0.00105403 9.58977e-05 1.13772e-22)
(0.000892453 0.000313627 -3.49686e-21)
(0.000549401 0.000976887 0)
(0.000583158 0.00100045 -1.86583e-23)
(0.000930229 6.72635e-05 3.08484e-22)
(3.86023e-06 1.89561e-05 -3.6257e-26)
(0.000511659 0.000850697 -1.38192e-21)
(0.000759579 0.00123798 0)
(0.000480934 0.0009135 7.70007e-23)
(0.000754047 0.001287 -5.42293e-22)
(0.00036886 0.000720169 0)
(0.000760325 0.00123762 2.72482e-22)
(0.000555805 0.00146061 -3.75316e-23)
(0.000615564 9.78006e-05 -1.6309e-21)
(0.000821819 6.89466e-05 -6.55799e-22)
(0.000343061 0.000463024 -2.2291e-21)
(0.000465021 0.00113432 1.53593e-22)
(0.00075721 0.00123727 1.19136e-21)
(0.000743979 0.00127946 -4.52385e-22)
(0.000825157 0.00056539 4.15001e-21)
(8.69335e-05 9.46694e-05 1.19365e-22)
(0.000567669 0.0010214 0)
(4.10595e-06 2.16515e-05 4.55406e-22)
(0.000269996 0.000866148 -2.79094e-24)
(0.000463331 -6.05253e-05 -9.24439e-22)
(5.33153e-07 2.61407e-05 0)
(0.00034311 -0.000221985 1.02318e-21)
(0.000257936 0.00114999 0)
(0.000755434 0.00123784 1.41406e-21)
(0.000437733 0.000346503 -1.15029e-24)
(0.000691181 0.00116114 5.11692e-22)
(0.000600644 0.00104805 3.77239e-22)
(0.000500773 0.000536918 1.63287e-24)
(0.000452583 0.000718399 -1.14243e-21)
(0.000731629 0.00129178 2.16069e-22)
(0.000758903 0.00123753 -1.14549e-21)
(0.000598064 0.00100426 6.26601e-22)
(0.000485888 0.000345567 -1.88523e-21)
(0.00086605 8.79188e-05 -4.75397e-25)
(0.000106504 0.000121857 -2.09809e-22)
(0.000473742 0.00047325 9.76462e-22)
(0.000565108 0.00100658 1.11422e-21)
(0.000715833 0.00129086 3.61531e-22)
(0.000595705 0.00100501 3.37142e-24)
(3.66146e-06 1.63529e-05 -4.57252e-22)
(0.000787397 0.000174861 0)
(0.000953347 9.91995e-05 -4.35957e-21)
(0.000594408 0.00101542 -1.92249e-22)
(0.000313057 0.000531479 3.05918e-21)
(0.000710326 0.00120083 -1.30661e-21)
(0.000573454 0.00100582 0)
(0.00113098 0.000197119 -3.46635e-21)
(0.000544292 0.00081764 -3.18379e-22)
(0.000751855 0.00123812 1.56522e-21)
(0.00037711 0.000766148 -2.95167e-22)
(0.000181121 0.00041707 1.0701e-21)
(0.000563328 0.000966256 0)
(0.000641949 0.00115289 -5.76779e-22)
(0.000160661 0.000295648 0)
(0.000364383 0.000567631 -1.00052e-21)
(3.49729e-06 1.38513e-05 4.43534e-22)
(0.000446914 0.000905589 -1.21744e-21)
(0.000315376 0.000528863 -1.54628e-21)
(0.000191982 0.000562258 2.08006e-24)
(0.000329612 0.000547111 8.47223e-22)
(0.000440555 0.000842613 2.5034e-22)
(0.000831309 0.000255448 -1.36939e-21)
(0.000383952 6.22074e-05 -2.535e-21)
(0.000249253 1.26519e-05 -9.93888e-22)
(0.000573957 0.000353695 -3.18571e-22)
(0.000566776 0.00102174 2.58408e-21)
(0.00043512 0.000721973 0)
(0.000463843 -0.000336827 0)
(0.00050636 0.000837573 6.82123e-22)
(0.000187582 1.44417e-06 6.62382e-22)
(0.000204729 5.27624e-06 0)
(0.000568547 0.00102045 -1.2495e-21)
(0.000757015 0.00123688 -1.61385e-22)
(0.000364612 0.000340193 -1.3345e-21)
(0.000194285 0.000709841 0)
(-0.000310329 -2.64592e-05 0)
(0.000273104 0.000272626 2.74999e-21)
(0.000176588 0.000588642 -8.51992e-22)
(0.000159937 1.7885e-05 0)
(0.000414278 0.000737014 0)
(0.000758264 0.00123722 1.16014e-21)
(0.000934746 2.34126e-05 -3.46267e-22)
(0.000761397 9.68803e-05 2.08682e-21)
(-0.000148386 0.00118904 0)
(0.000240064 0.000460583 7.32391e-21)
(0.000430023 0.00102237 -7.46917e-23)
(0.000565494 0.00100853 -1.89381e-21)
(0.000691403 0.00119735 -3.11101e-21)
(0.000354032 0.000446961 -5.79541e-28)
(0.000223225 0.00047884 -8.94345e-22)
(0.000642566 0.00115199 -1.0782e-21)
(0.000239856 6.7981e-05 4.33728e-22)
(0.000539752 0.000976543 1.349e-22)
(0.000327864 0.000671778 2.0424e-23)
(0.000459443 0.0012267 -5.53063e-23)
(0.00055932 0.00100154 5.55746e-22)
(0.000998486 0.000204269 1.07143e-21)
(0.000305046 0.000532527 1.18487e-24)
(0.000507813 0.00133196 0)
(0.000981247 5.53032e-05 8.22606e-22)
(0.000692563 0.00115908 5.99326e-22)
(0.000175654 2.73254e-05 1.96674e-22)
(0.000347833 2.48128e-05 -1.01243e-21)
(0.000494586 0.000740249 4.40847e-22)
(8.60538e-05 4.03472e-05 -2.26782e-22)
(0.000565079 0.000560984 9.82741e-22)
(0.000357282 0.000532407 2.85562e-21)
(0.000573757 0.00104483 -5.96183e-24)
(0.000597007 0.00100359 -1.34318e-21)
(-0.000181991 0.000165722 -1.72405e-22)
(0.000754596 0.00123793 -1.43781e-21)
(0.00120569 0.000249334 -7.24183e-22)
(9.71987e-05 0.000139084 -6.40269e-22)
(0.000954698 -1.28845e-05 1.40761e-21)
(0.000588595 0.00101319 6.60271e-22)
(0.000483158 0.00086427 0)
(0.00105208 0.000210736 -1.27315e-21)
(0.000367996 0.000307822 -2.11243e-21)
(0.000469481 0.000865068 -1.72915e-22)
(0.00025191 0.00110198 0)
(0.000637724 0.000116097 1.38073e-21)
(0.000598131 0.000992935 4.50866e-22)
(0.000699389 0.000487774 4.14285e-21)
(0.00060134 0.00103937 4.89679e-22)
(-0.000382232 0.000167011 3.49131e-22)
(0.000568181 0.00101919 1.18789e-21)
(0.000542869 0.000987388 -1.14101e-21)
(0.000587015 0.000991165 0)
(0.000870972 2.61909e-05 0)
(0.00054765 0.000993907 -8.81276e-24)
(0.000220398 0.000357211 -9.71281e-22)
(0.000770998 0.00019943 -6.67984e-23)
(0.000421349 0.000512195 -1.83142e-21)
(0.000743021 0.00138399 2.00426e-23)
(0.000597125 0.00101797 0)
(0.000553383 0.000988637 1.01546e-21)
(9.34342e-05 0.000174504 -8.2283e-22)
(0.000371067 0.000729796 -7.08506e-23)
(0.000537098 0.000993349 6.31599e-22)
(0.000548901 0.00098777 1.10364e-23)
(0.000157517 0.000257241 -1.17618e-21)
(-1.1666e-05 0.000282542 1.44697e-21)
(2.09193e-05 -4.12728e-07 0)
(0.00080643 0.000572112 -1.42321e-24)
(0.000641204 0.00115397 7.43386e-24)
(6.65817e-07 1.10552e-05 -4.42841e-22)
(0.00160302 0.000365141 9.34862e-22)
(0.000609286 0.000105695 0)
(0.000600072 0.00104514 3.18457e-22)
(0.000593525 0.00101824 -5.73949e-22)
(0.000216005 4.75656e-05 -3.22399e-22)
(2.58389e-05 1.50221e-06 1.12194e-21)
(0.000210949 0.00105732 -1.39568e-23)
(0.000479258 0.000870734 1.36729e-21)
(0.000687787 0.00114201 3.29137e-22)
(0.000754097 0.0012363 1.3208e-21)
(0.00076676 0.00126272 1.46138e-21)
(0.000217999 -8.33009e-06 -9.20281e-22)
(0.000185912 0.00060267 -5.99749e-22)
(0.00116102 0.000154913 -5.41411e-22)
(0.000643086 0.00115241 -1.02758e-21)
(0.000460346 0.00091446 -2.88275e-21)
(0.000516911 0.000248789 -5.04569e-22)
(0.000493643 0.000977504 0)
(0.000495679 1.90794e-05 1.5058e-21)
(2.98456e-06 6.95539e-06 -3.98812e-22)
(0.000707882 0.00130047 3.67122e-22)
(0.000756984 0.00123689 -1.07339e-21)
(0.000567151 0.00102134 -1.2585e-21)
(0.000910179 0.000289221 0)
(0.000217869 0.000545252 -6.75971e-22)
(2.50955e-05 1.19535e-06 1.56031e-23)
(0.000576319 0.00103223 -2.91938e-22)
(0.000342355 0.00164819 -2.83881e-23)
(0.000257055 0.00133254 0)
(0.000328492 0.000487111 -5.09651e-25)
(0.000352916 0.0011891 -7.61671e-23)
(0.00086435 0.000361256 3.24735e-22)
(0.000513914 0.000565403 3.2612e-25)
(9.0746e-06 9.44602e-05 -5.57325e-23)
(6.38462e-05 4.17889e-05 0)
(0.00069171 0.00116088 1.12154e-21)
(5.98242e-06 3.75279e-05 -1.73767e-24)
(0.00181656 0.000648835 -2.08981e-21)
(9.53425e-05 0.000701427 0)
(0.0001521 0.000265122 -2.02966e-21)
(0.000479074 0.000862956 -4.2287e-21)
(0.000642401 0.00115241 0)
(5.29858e-05 4.38724e-05 1.63559e-21)
(0.000610334 0.00101405 0)
(0.000228592 0.000259557 -1.37019e-21)
(0.000943297 0.000186369 -1.04013e-21)
(0.000320757 -6.52898e-05 -1.65767e-21)
(0.000687194 0.00119177 -1.04712e-21)
(0.00110125 0.000178603 0)
(0.000461863 0.000277408 0)
(8.92452e-05 0.000873013 -9.26157e-22)
(0.000664235 -0.000211066 -3.34534e-21)
(0.000635401 0.00120944 3.54303e-22)
(0.000600271 0.0010499 -9.3599e-24)
(0.000560188 0.00101925 0)
(0.0007786 0.000471583 0)
(0.00116557 0.000133993 1.20599e-21)
(0.000650772 0.000296416 -1.47826e-22)
(0.000577476 0.000977628 3.04599e-22)
(0.000743662 0.00123171 0)
(0.000326434 0.000289959 0)
(0.000415104 0.000991333 -1.83482e-21)
(8.03304e-05 3.58367e-05 -8.22499e-22)
(0.000517516 0.000417943 -1.12895e-21)
(0.000666224 0.00119258 -1.11354e-22)
(0.000425927 0.00135624 -1.67859e-22)
(0.000486692 0.00146122 -2.28143e-23)
(0.000550759 0.000418578 8.07325e-22)
(0.000486462 0.00139674 -7.65624e-24)
(0.000428183 0.000461534 -1.50651e-21)
(0.000338074 0.00049865 2.364e-21)
(1.53455e-05 -4.23941e-06 0)
(0.000911171 0.000708948 -1.03591e-21)
(0.000411129 0.000728801 -3.35144e-22)
(0.000599322 0.00106257 2.99186e-22)
(0.000146555 -2.21349e-05 0)
(8.22857e-06 8.27344e-05 0)
(0.000111036 0.000451585 1.89063e-21)
(0.000570339 0.00103262 4.43684e-22)
(0.000517672 0.000998895 0)
(6.43574e-05 2.7574e-05 -1.43651e-21)
(0.00016453 0.000626488 -5.58068e-22)
(0.000597 0.0010062 7.13552e-22)
(0.00128399 0.000230258 -1.18332e-21)
(0.000383484 0.000375816 0)
(0.000851221 0.000162022 -2.45328e-21)
(0.000191395 0.000230464 -1.48045e-21)
(0.000932681 0.000644479 1.50067e-21)
(0.000747222 0.000452339 -2.06049e-22)
(0.000509598 0.000842987 -7.87404e-24)
(0.000419861 0.00101267 1.8198e-21)
(0.000164175 0.000810849 -2.93556e-23)
(0.00059486 0.00101199 -1.06228e-23)
(0.000538679 0.000999926 -1.98186e-23)
(0.000299878 0.00129925 -1.45942e-22)
(9.29319e-05 4.47177e-05 1.06314e-21)
(0.00054773 0.00102777 -4.10869e-22)
(0.00024789 0.000338485 -1.71137e-21)
(0.000937376 3.24289e-05 -6.70103e-22)
(0.000195961 0.00114888 -1.80815e-23)
(0.000195202 0.000883384 -2.79703e-24)
(0.000463417 0.000330699 -1.07653e-21)
(1.74771e-05 2.3489e-06 -2.35454e-22)
(0.000574589 0.000968737 -7.27725e-22)
(0.000149516 -9.76325e-06 -8.67835e-22)
(0.000601917 0.00104397 1.2769e-22)
(-0.000329779 0.00120882 -1.2513e-21)
(0.000569435 0.000975208 5.21994e-22)
(0.000601315 0.00103852 3.47553e-22)
(0.00060031 0.00104643 -1.28271e-22)
(0.000227855 0.000118537 -1.60928e-21)
(0.000435085 0.000758549 5.93198e-22)
(0.000381691 0.000667228 0)
(0.000252192 3.2591e-05 6.05117e-22)
(0.000943293 3.8028e-05 0)
(0.000641631 0.00115196 -7.27631e-22)
(0.000508434 0.00084101 6.54339e-22)
(0.000738257 0.000592694 1.20261e-21)
(0.000471374 0.000865791 -1.1627e-21)
(0.000212163 0.000636936 1.49486e-21)
(0.00122972 0.000119222 0)
(0.000296673 0.000198234 0)
(0.00106709 0.000491164 -8.32443e-23)
(0.000391862 0.000869202 1.7214e-21)
(0.000461757 0.0007834 -3.96167e-21)
(0.000630493 0.00102534 -3.57058e-22)
(0.000754305 0.00123716 -1.29632e-21)
(0.00077583 0.000498024 1.0953e-21)
(0.000486259 0.000965926 0)
(0.000683029 0.00113193 0)
(0.000324943 0.00027246 -1.125e-21)
(0.000223155 0.00070179 -8.93211e-22)
(0.000801079 0.000341647 2.12096e-21)
(1.4955e-05 -6.69821e-06 2.7825e-22)
(7.05259e-05 3.35009e-05 7.92882e-22)
(0.000552004 0.000975656 -1.09267e-23)
(0.000133882 -2.32316e-05 5.01697e-22)
(0.000400598 0.000336032 1.0224e-21)
(-0.000144324 0.000173237 0)
(1.58413e-05 0.000299165 1.23528e-22)
(5.86644e-05 4.42788e-05 0)
(0.000680819 0.00112916 0)
(0.000630885 0.00049378 4.13901e-22)
(0.000569644 0.00097595 -5.03328e-22)
(0.000199173 0.000173582 -3.42717e-21)
(0.000681172 0.00112821 1.23672e-21)
(0.000678768 0.0012543 -7.92612e-23)
(0.000623266 0.00101868 7.64224e-22)
(0.000656065 0.000366636 0)
(0.000632348 0.0012227 1.47788e-22)
(0.000562489 0.000968199 0)
(0.000706189 0.00130674 -4.52686e-22)
(0.000567328 0.00102017 2.43656e-21)
(9.86558e-05 0.000261148 1.12845e-24)
(0.00070409 0.00127522 1.41399e-21)
(0.000944618 0.000109135 0)
(3.92528e-05 0.000389255 -4.52699e-22)
(0.000499573 0.00056639 5.68543e-22)
(0.000554791 0.000974806 1.29746e-21)
(0.000318999 0.000916794 -6.73682e-21)
(-0.000510194 0.000862433 2.36132e-22)
(3.84169e-05 6.03371e-05 -1.68809e-21)
(0.000595108 0.00103732 -1.99476e-22)
(0.00047132 0.00090149 3.73962e-21)
(0.00065314 0.00118386 -3.16422e-22)
(0.000718023 0.0012852 -1.39996e-21)
(0.000553073 0.000989206 9.96062e-22)
(0.000951095 8.65761e-05 -8.56984e-22)
(0.000601468 0.00104264 1.39023e-22)
(0.00020926 0.000139528 2.63311e-21)
(0.000650287 0.00116394 4.9865e-22)
(0.000500393 0.000827549 1.65656e-21)
(0.000156207 0.000573911 1.16891e-21)
(0.000698819 0.00127092 1.37952e-21)
(0.000615781 0.0010245 -4.21365e-23)
(0.000554706 0.00100416 9.34385e-23)
(0.000955913 0.000102269 0)
(4.49654e-05 0.000570834 -4.27052e-22)
(0.000441712 0.000901929 1.4536e-21)
(0.000611506 0.000996474 7.12555e-24)
(0.000600428 0.000352097 -4.70036e-21)
(0.00113672 8.2149e-05 0)
(0.000626636 0.00119774 -3.85262e-22)
(0.000176591 -0.000122513 1.30624e-21)
(0.000949535 6.86582e-05 0)
(0.000672794 0.00117927 -5.47016e-22)
(0.00100511 -0.000151698 -2.36297e-21)
(9.9845e-05 4.97859e-05 -4.19117e-22)
(0.00109026 0.000345428 2.03616e-25)
(4.1547e-05 0.000425585 1.45637e-22)
(0.000697387 0.00126845 0)
(0.000965622 0.000333596 8.19834e-22)
(0.000691622 0.000242808 0)
(0.000326735 0.000461526 0)
(0.000423681 0.000352336 0)
(9.29315e-05 -3.87711e-05 -1.96716e-21)
(0.00063947 0.00115205 -7.84289e-22)
(0.00129135 0.000551302 -3.80016e-21)
(0.000764074 0.00130345 4.14629e-22)
(0.000299258 0.000156833 -4.70585e-22)
(0.000468113 0.000969542 -1.27675e-21)
(0.000118142 -4.16892e-05 0)
(0.00104434 0.000180493 6.33343e-22)
(0.000827091 0.000537427 2.96091e-22)
(3.33726e-05 5.10277e-05 9.39134e-22)
(0.000680817 0.00114346 3.06743e-22)
(0.0001822 0.00109674 0)
(0.000329574 0.0013678 6.0079e-23)
(0.000779471 0.00136505 -1.29873e-21)
(0.000696813 0.00126671 1.3394e-21)
(0.000611499 0.00102693 0)
(0.000407162 0.00072373 1.03127e-21)
(2.05109e-05 0.000313618 5.53794e-22)
(0.000177405 -0.000102198 1.64886e-21)
(0.000548105 0.000993058 -1.21932e-21)
(0.000820891 0.00107712 8.7069e-22)
(0.00063267 0.000707225 -2.92929e-22)
(0.000691266 0.0011591 7.34294e-22)
(0.000716221 0.00130209 -1.32496e-21)
(9.76724e-05 -4.63153e-05 1.9474e-21)
(0.000642809 0.00115074 -3.62395e-24)
(0.000465123 0.000862538 0)
(0.000656444 0.000391615 5.56464e-22)
(5.70762e-05 4.97697e-05 0)
(0.00105208 6.8636e-06 7.65482e-22)
(0.00043762 0.000713786 1.17744e-21)
(0.000223054 0.000426822 1.0767e-22)
(0.000591753 9.81789e-05 -2.19526e-23)
(0.000364548 0.000511157 -3.40136e-21)
(0.001334 0.000294082 2.47436e-22)
(0.00097426 0.000202754 -9.63737e-23)
(0.000517628 0.000543508 2.95838e-21)
(0.000501227 0.00103031 0)
(0.00037418 0.000617287 -4.48525e-22)
(0.000365619 0.00087453 0)
(0.000351696 0.00113679 1.04523e-21)
(0.000779565 0.00127445 9.23499e-22)
(0.00078224 0.000598775 1.19641e-21)
(0.000424969 0.0012112 -6.5847e-23)
(0.00041892 0.000325998 0)
(0.000209504 0.00021183 0)
(0.000147073 -9.75672e-05 -1.61123e-22)
(0.000179224 0.000364368 6.06953e-22)
(0.000262815 0.000614189 -3.26882e-22)
(0.000163869 0.00060282 0)
(0.000726659 0.00130014 -7.83382e-24)
(0.000554595 0.000979911 0)
(0.000542138 0.000994694 -9.89699e-22)
(0.000492557 0.000874838 5.57282e-22)
(0.000217095 0.000569314 -7.95998e-22)
(0.000640648 0.00115028 -9.05672e-22)
(0.000420303 0.000816693 1.40452e-21)
(0.000929985 7.78793e-05 1.09011e-21)
(0.000193213 4.44373e-05 1.817e-22)
(2.17833e-05 2.25531e-06 -4.21506e-22)
(0.000126257 -0.000188544 0)
(0.000314799 0.000539684 1.01497e-21)
(8.70197e-05 0.00059556 1.67204e-21)
(0.000510815 0.000129366 2.30043e-21)
(0.000430285 0.000301963 0)
(0.000171029 0.000319707 2.73163e-21)
(0.000682474 0.00112717 -1.54933e-22)
(0.00050341 0.000833523 2.28163e-21)
(0.000740416 0.00132566 6.0951e-24)
(0.000333116 0.000202301 0)
(0.000218824 1.50351e-05 2.27268e-22)
(0.000568051 0.000369429 0)
(0.000600281 0.00105509 -2.16792e-22)
(0.000194804 4.57968e-05 0)
(0.000428378 0.00052711 1.91916e-22)
(0.00101411 0.000378265 9.43401e-23)
(0.000575689 0.000980514 -6.00517e-22)
(0.000674421 0.00118442 8.73025e-23)
(0.000364955 0.000565162 -1.16993e-21)
(0.000467675 0.000906482 9.71174e-22)
(0.000402151 0.000738358 -8.23517e-22)
(0.000220868 0.000554797 -1.15206e-21)
(0.000172153 3.78745e-06 0)
(0.000111495 0.000655625 1.54828e-21)
(0.000510338 0.000970144 0)
(0.000851524 0.000277854 1.73796e-21)
(0.000331909 0.000473073 1.3764e-21)
(0.000754 0.00123642 -1.36742e-21)
(2.28283e-05 3.16561e-05 1.17685e-22)
(0.000507125 0.000955708 -2.46476e-22)
(0.000130214 -3.94653e-05 -9.60269e-23)
(0.000457053 0.000852762 -1.50074e-22)
(0.000765369 0.000579786 0)
(0.000964678 -5.48104e-05 -1.02881e-22)
(0.000678356 0.00117135 -2.78877e-22)
(0.000817644 -0.000360954 9.97467e-24)
(0.00077877 6.98117e-05 2.19007e-21)
(0.00119183 0.000622897 -2.21762e-21)
(0.000544321 0.000986978 0)
(0.000413084 0.000741023 -1.1159e-21)
(0.000753025 0.00123719 -1.56335e-21)
(0.000497118 0.000827364 8.15246e-24)
(0.000478315 0.000684388 1.2516e-21)
(6.18828e-05 0.00057358 5.12142e-21)
(0.000951844 0.000276925 3.59219e-22)
(0.000190065 0.000242865 0)
(0.000653103 0.00111834 -1.33022e-21)
(0.000326359 0.000147489 0)
(0.000203716 0.0004773 6.00755e-22)
(0.000675331 0.00113306 2.88367e-22)
(0.00102777 6.64677e-05 -4.74753e-22)
(0.000422723 0.000906488 2.27941e-21)
(0.000614341 0.00104715 2.46874e-22)
(0.000393908 -7.21502e-05 -8.19939e-22)
(0.000170283 9.70274e-05 5.07458e-22)
(2.27566e-05 0.000240788 -1.4261e-21)
(5.63146e-05 0.00103182 1.4196e-21)
(0.000149002 1.30106e-06 -8.12147e-22)
(0.000502708 0.000830226 -7.99966e-22)
(0.000143898 7.71313e-05 -4.71499e-22)
(0.000621594 0.00109948 -7.11652e-23)
(0.00028921 0.000350763 -6.51226e-22)
(0.000473715 0.00117741 0)
(0.000231073 -5.65759e-05 -1.94779e-21)
(0.000914077 -8.77846e-06 4.98262e-22)
(0.000568225 0.00101782 2.33727e-21)
(0.000168679 5.79208e-05 -2.35605e-21)
(0.000705552 0.00128127 -1.40283e-21)
(0.00107673 1.69356e-05 -9.90919e-22)
(0.000278183 0.000163285 2.35207e-22)
(0.000496539 9.37565e-05 0)
(0.000604117 0.00102526 1.17313e-21)
(0.000537647 0.000947115 3.44374e-22)
(0.000153259 0.000641499 4.16119e-22)
(0.000812463 0.000548269 0)
(0.000725939 0.000589296 2.97629e-21)
(9.98567e-05 -1.18204e-05 -8.91032e-22)
(0.0013782 0.000350628 -2.84754e-22)
(0.000625748 -1.94675e-05 -1.57767e-21)
(0.0011915 0.000250647 5.64662e-22)
(0.000652923 0.00118166 0)
(0.000270827 0.000557114 0)
(0.00062932 0.00110806 1.02721e-22)
(0.000641821 0.00115342 6.18473e-22)
(0.000606901 0.00120263 -2.64805e-22)
(0.00091873 0.00130329 1.24492e-21)
(0.000537034 0.00124059 1.287e-21)
(0.000635247 0.000337986 7.24522e-22)
(0.00052957 0.00103672 0)
(0.000564179 0.00107329 -3.1306e-23)
(0.000452078 2.20767e-05 5.63935e-22)
(0.00076105 0.000526355 -2.09525e-22)
(0.000180951 6.80194e-05 1.92192e-25)
(0.000238351 -0.000186439 1.72526e-21)
(0.000225854 0.000615388 5.9497e-22)
(0.000178703 0.000428542 1.02028e-21)
(0.000283208 0.000463536 2.47767e-21)
(0.000343652 0.00055747 -1.57372e-21)
(0.000313006 0.000566998 -5.44469e-22)
(0.000188483 0.000651166 -9.87354e-22)
(9.90788e-05 -1.75827e-05 -2.29571e-26)
(5.69848e-05 0.00065148 -2.75945e-21)
(0.000390288 0.00116689 0)
(0.000644503 0.00110873 0)
(0.000704936 0.000555779 0)
(0.000568946 0.000472359 2.10732e-21)
(0.000669897 0.00116912 4.77838e-22)
(0.000810352 0.000527277 3.24666e-21)
(0.00104267 0.000336275 0)
(0.000298836 0.000336089 3.27531e-22)
(0.000175118 0.00061871 7.50451e-22)
(0.000569519 0.000975499 9.85796e-22)
(4.49521e-05 3.48619e-05 0)
(0.000901937 2.52668e-05 -1.50463e-21)
(0.000142143 0.000404444 8.41477e-22)
(0.000785533 0.000539027 -4.09395e-22)
(0.000320288 0.000532005 3.73977e-22)
(0.000347954 0.000359568 1.64701e-21)
(0.000585902 0.00108009 0)
(6.33208e-05 2.89455e-05 2.2235e-22)
(0.000145312 -8.03705e-05 -2.00689e-22)
(0.000694794 0.00131173 3.68971e-22)
(0.000633996 0.00109813 -6.28213e-22)
(0.000576783 0.000974003 4.47787e-22)
(0.000618356 0.00110009 4.91568e-22)
(0.000971208 6.77577e-06 -2.92382e-22)
(0.000218126 0.000616128 0)
(0.000385697 7.87485e-05 -1.87033e-21)
(0.000753184 0.00123949 0)
(0.000983585 0.000115163 0)
(0.000654094 0.00117087 -1.92083e-22)
(0.00035017 0.00084503 -1.42291e-21)
(0.000710805 0.00132424 -7.86832e-23)
(6.8894e-07 8.89866e-06 -4.41629e-22)
(0.000327442 0.000475527 -1.74383e-21)
(0.000100288 -1.4513e-06 -2.38077e-21)
(0.000627681 0.0011154 1.87966e-22)
(0.000177001 0.000479291 -6.25139e-22)
(0.000160213 0.000520019 8.62971e-22)
(0.000729566 2.49087e-05 1.57141e-21)
(0.000519767 0.00103547 0)
(0.00100484 0.000314766 5.56418e-22)
(0.00071455 0.000980738 1.08989e-22)
(0.000307445 0.000494231 1.19478e-21)
(0.000116402 -4.93924e-05 -2.75739e-23)
(0.000500257 5.04107e-05 2.19634e-24)
(0.000331965 0.000375798 -3.16992e-21)
(0.000314955 0.000454138 1.41915e-21)
(9.73362e-05 7.75415e-06 -1.09262e-21)
(0.000245187 0.000393626 -3.0219e-21)
(0.000763145 0.00125047 -1.84596e-21)
(0.000640503 0.0011513 1.54699e-21)
(0.000342661 0.000527749 -1.14009e-21)
(0.000641819 0.00115312 -6.21461e-22)
(0.000708208 0.000206534 -6.82879e-22)
(0.000278195 -0.000155317 -2.95403e-21)
(0.000319268 0.000525691 -2.17079e-21)
(0.000678258 0.00112888 1.17499e-21)
(0.00122428 0.000194963 -1.09437e-22)
(0.000690581 0.00116077 4.8541e-22)
(0.00017705 0.000137116 -1.11644e-21)
(0.000563402 0.000938058 6.61313e-22)
(0.000620356 0.00109968 -1.54027e-22)
(0.000551139 0.00105483 -1.75008e-23)