/*--------------------------------*- C++ -*----------------------------------*\
  =========                 |
  \\      /  F ield         | OpenFOAM: The Open Source CFD Toolbox
   \\    /   O peration     | Website:  https://openfoam.org
    \\  /    A nd           | Version:  8
     \\/     M anipulation  |
\*---------------------------------------------------------------------------*/
FoamFile
{
    version     2.0;
    format      ascii;
    class       volVectorField;
    location    "3.8";
    object      U;
}
// * * * * * * * * * * * * * * * * * * * * * * * * * * * * * * * * * * * * * //

dimensions      [0 1 -1 0 0 0 0];

internalField   nonuniform List<vector> 
1642
(
(4.74096e-06 -5.52843e-06 1.11745e-26)
(0.00198633 0.00507466 1.07704e-20)
(0.00239789 0.00485969 6.25264e-21)
(0.00209348 0.00413442 3.42515e-20)
(0.000892714 1.54861e-05 1.55396e-21)
(0.000716253 0.000129432 3.96974e-20)
(0.00109942 0.000160124 9.68753e-21)
(0.00108211 0.000251652 -6.2707e-24)
(0.000682216 0.000473646 9.42711e-21)
(0.000838026 0.000252149 2.50638e-20)
(0.00267225 0.00309342 -1.87106e-20)
(0.000345269 0.000938279 -2.03491e-20)
(0.000781942 0.00040601 2.46909e-20)
(0.000874846 0.000204672 -1.68148e-20)
(0.000478167 0.000393859 0)
(0.000674344 0.000473897 0)
(2.12898e-05 0.000246531 -1.32458e-20)
(-8.07618e-07 0.00020865 2.1944e-20)
(1.51247e-05 1.9237e-05 6.98302e-25)
(2.73248e-05 1.16302e-05 4.53318e-21)
(0.000891758 0.000116962 -6.4257e-21)
(0.000992731 0.000257098 7.37697e-21)
(0.000832152 0.000216924 0)
(0.00248006 6.41505e-05 -2.20561e-20)
(0.000340563 0.000236637 -3.66448e-20)
(2.34741e-05 0.000502969 -4.70092e-21)
(0.00081001 -0.000115798 1.44115e-20)
(9.61825e-05 0.000213532 0)
(0.00396952 0.00412143 6.1378e-22)
(0.00406198 0.00420313 2.36048e-22)
(0.0042457 0.00438164 -3.00204e-22)
(0.00104027 8.89297e-05 -1.12241e-20)
(0.000361496 0.00124981 0)
(4.06961e-05 -4.64035e-05 -4.79075e-21)
(0.000356787 0.000220764 1.11427e-20)
(0.000379724 0.000430134 -2.08812e-21)
(0.000907577 0.00035548 -3.65154e-20)
(0.000940059 2.64983e-05 3.48388e-22)
(0.000410975 0.000334418 -1.07691e-24)
(0.000905081 0.000240309 -1.10093e-20)
(0.000781833 0.00021139 0)
(1.91143e-05 4.52835e-05 -2.57886e-21)
(3.44273e-05 8.69344e-06 0)
(0.0006342 0.00482209 -2.2969e-20)
(-0.0012846 3.68338e-05 -2.14381e-21)
(0.000737751 3.95899e-05 -2.41766e-21)
(0.000850789 1.52869e-05 7.1976e-22)
(0.000484525 0.000113339 -5.0142e-21)
(0.000358328 0.000120804 -1.41125e-20)
(0.000673068 0.000384249 -2.16055e-20)
(3.39051e-05 8.55151e-05 -5.30524e-21)
(0.000742044 0.000430718 -6.89142e-21)
(1.60225e-05 -6.3483e-06 3.76042e-21)
(0.000295087 0.00471898 0)
(0.00252746 0.00378874 -1.6723e-20)
(0.000560418 0.00048402 1.08709e-21)
(0.00109384 0.000190178 -4.89335e-21)
(0.000196288 1.18423e-05 -7.30858e-21)
(0.00122292 0.000433356 -2.93622e-20)
(0.000357189 -0.000343501 0)
(0.000261407 0.000144357 0)
(0.000930897 5.42015e-05 -1.37339e-21)
(9.00264e-05 -7.60097e-05 4.02937e-21)
(0.00144123 0.000179387 -2.05847e-20)
(7.3261e-05 0.000424719 1.69016e-20)
(5.58261e-05 9.67519e-06 1.25605e-21)
(0.000110021 0.0001248 0)
(4.91703e-05 1.78429e-05 -5.11203e-21)
(0.000426272 0.000531784 5.67357e-21)
(5.93093e-06 6.25658e-05 -4.77109e-21)
(0.000318042 9.9821e-05 -1.36172e-20)
(7.77708e-05 0.000279248 -1.50141e-20)
(0.000246491 7.08915e-05 1.80566e-20)
(0.000856157 3.17896e-05 1.40352e-21)
(0.000476633 0.000625614 8.90998e-21)
(0.00131306 0.0015529 -2.31622e-21)
(0.0041093 0.00428885 1.13246e-24)
(0.00392476 0.00410693 0)
(0.00382629 0.00401762 -3.15809e-22)
(0.000426407 0.000179563 6.40656e-21)
(5.82084e-05 -1.81823e-07 2.57409e-21)
(3.44914e-05 2.05584e-05 1.77598e-20)
(0.00111754 0.000359978 -1.89835e-20)
(0.000943771 0.000469239 1.17981e-20)
(-0.00195637 0.000302443 0)
(0.000395736 0.000609307 -4.28169e-21)
(0.000407182 0.00054146 -1.6384e-20)
(1.01176e-05 -9.52776e-05 0)
(0.000554165 0.00059098 4.18171e-21)
(3.38641e-05 -3.27246e-05 -1.9329e-21)
(0.00106296 0.000124112 -7.69399e-21)
(0.000121692 0.000324985 3.10974e-20)
(0.000741646 0.000567616 -1.96157e-20)
(0.000449412 0.000456569 -8.49038e-21)
(0.000534211 0.00040409 -3.35359e-20)
(7.72067e-05 -0.000179206 -1.12219e-21)
(0.000795369 0.000154176 -2.71938e-20)
(0.000567471 0.000337028 2.88204e-20)
(0.00035099 0.000315601 1.69967e-20)
(0.000453473 0.00053591 -1.12996e-20)
(0.000406227 0.000600529 2.10357e-20)
(0.000513446 0.000783881 0)
(2.73631e-05 -0.00020735 9.41058e-21)
(0.00443653 0.00441948 -1.44629e-22)
(0.00423956 0.00423321 2.07762e-20)
(0.00414821 0.00414022 5.57406e-21)
(0.0041788 0.00390668 2.23298e-20)
(0.00409373 0.00382645 2.32309e-22)
(0.00437726 0.00405867 4.26172e-21)
(0.00420004 0.00388261 -1.32634e-22)
(0.00417883 0.00390739 6.94923e-21)
(0.00411167 0.00379558 -8.59391e-21)
(0.00436758 0.00408636 0)
(0.00439107 0.00405368 7.37554e-21)
(0.00420642 0.00388079 2.05733e-21)
(0.00420347 0.00388001 4.42307e-21)
(0.0043882 0.00405238 -1.42526e-21)
(0.00410309 0.00382458 0)
(0.00418508 0.00355801 0)
(0.00402796 0.00360366 9.67988e-21)
(0.00410983 0.00379695 -1.25168e-21)
(0.00405875 0.00289202 -2.76005e-20)
(0.00441231 0.00367102 0)
(0.000399658 0.000637367 4.15522e-21)
(0.000492175 0.000598246 0)
(0.000316306 -8.69236e-05 2.70531e-21)
(0.000948539 0.000248167 1.56431e-20)
(8.15893e-06 -6.32474e-05 0)
(0.000549894 0.000278754 5.30919e-21)
(0.000598136 0.000325501 -1.56423e-20)
(0.000413812 2.66122e-05 0)
(0.00021632 -0.000105027 -2.64059e-21)
(2.31599e-05 -4.22221e-05 -1.13294e-21)
(0.000797116 0.000158121 9.73906e-21)
(5.74683e-05 -1.02489e-05 -6.10095e-26)
(3.26459e-05 -5.81945e-05 1.18699e-21)
(0.000611785 0.000280523 -2.92586e-21)
(0.000321795 -3.58405e-06 2.9088e-21)
(0.000602916 0.000229958 0)
(0.000652536 0.000295141 0)
(3.01557e-05 0.000386385 9.04974e-21)
(5.82961e-05 2.00973e-05 -1.70689e-21)
(9.67913e-05 7.56994e-05 0)
(0.000325045 5.98076e-05 1.23173e-20)
(0.000573233 0.000456653 4.25344e-20)
(6.51722e-05 0.00021806 1.59429e-20)
(0.000774015 0.000118705 0)
(4.90567e-05 0.00013045 2.19733e-20)
(0.000770899 0.000171764 -2.78131e-21)
(0.000695644 0.00018683 4.59723e-20)
(0.000280757 0.000188229 1.8462e-20)
(0.000845776 4.59506e-05 4.17905e-21)
(6.62174e-05 -1.55286e-05 -2.41415e-21)
(0.000316381 0.000236026 0)
(0.00107501 -0.000107648 1.32904e-20)
(0.000805195 0.000159717 0)
(0.000853471 0.000142451 -2.28354e-21)
(4.54742e-06 2.26704e-05 -1.51822e-20)
(6.75214e-06 -4.54693e-05 -7.20307e-23)
(-1.45086e-05 0.000295958 0)
(8.88876e-05 7.32851e-05 4.1617e-20)
(6.61116e-05 5.06972e-05 -4.42675e-21)
(0.000140155 -4.2626e-05 1.20077e-21)
(0.000878116 0.000290535 0)
(5.61184e-06 -3.03695e-05 0)
(0.000843454 6.57249e-05 0)
(0.00085629 9.17542e-05 0)
(5.30051e-05 -1.95854e-05 -2.67015e-21)
(0.000871815 4.53576e-06 -6.06398e-21)
(2.21849e-05 -0.000193239 -2.22934e-21)
(-1.7946e-05 0.000303396 -2.2429e-20)
(-3.2332e-06 0.000175826 -1.93865e-20)
(5.15327e-06 4.85637e-05 4.7004e-21)
(1.64359e-06 0.000147821 1.96925e-20)
(0.000668504 -1.42772e-05 -7.11507e-21)
(2.23418e-05 -0.000113943 2.12848e-21)
(0.000783384 0.00023566 1.12906e-20)
(0.00035567 0.000145197 1.65749e-20)
(0.000604914 0.000226005 0)
(0.000542479 0.000495392 -4.28819e-21)
(0.000962074 0.000382703 9.86234e-21)
(3.98602e-05 2.02835e-05 1.58869e-20)
(0.000774086 0.000755746 4.27163e-21)
(3.73794e-06 3.26406e-05 7.60267e-21)
(3.97745e-06 0.000122312 0)
(0.000544636 0.000310461 1.16964e-20)
(0.000618286 9.20758e-05 1.03889e-21)
(4.96915e-05 -9.60519e-06 -1.05511e-20)
(0.000197322 -0.000186287 1.4383e-21)
(0.000917215 0.000330965 1.05542e-24)
(0.000477342 0.000488128 1.05838e-26)
(0.000369896 0.000125858 -1.34801e-20)
(4.90035e-05 3.15023e-05 2.0221e-21)
(0.000300007 0.000277844 -8.88914e-21)
(0.000189686 -8.14016e-05 -2.53638e-21)
(0.000718011 -3.5854e-05 6.80496e-25)
(0.000396545 0.000621979 -1.00316e-21)
(5.05805e-05 -2.19341e-06 8.37935e-21)
(0.000296887 0.000432121 -2.11042e-20)
(0.000600577 0.000210064 3.59373e-20)
(6.37795e-05 1.06221e-05 -4.797e-21)
(8.04726e-05 4.26684e-07 -3.0065e-22)
(0.000522303 0.000664722 -4.36846e-21)
(0.000631706 0.000434401 1.30659e-20)
(0.00102325 0.000135659 0)
(4.18184e-05 8.18596e-06 1.32845e-20)
(0.000397484 0.000221627 -1.00052e-20)
(0.00437782 0.00407859 -2.07159e-20)
(0.00411729 0.00381452 -9.11107e-21)
(0.00420584 0.00390099 -8.45003e-21)
(0.00438268 0.00408511 -1.27432e-20)
(0.00437373 0.00408592 0)
(0.0027394 0.00279814 5.07024e-21)
(0.00273841 0.00279701 -2.62804e-23)
(0.00411534 0.0038186 -9.22428e-21)
(0.00437938 0.00408016 7.1556e-21)
(0.00419455 0.00390501 -1.05231e-20)
(0.00438021 0.00407925 -7.06399e-21)
(0.00420347 0.00390491 8.63218e-21)
(0.00272873 0.00278944 0)
(0.0043792 0.00408562 0)
(0.00273027 0.0027865 -4.10445e-21)
(0.00437606 0.00408457 -6.40672e-21)
(0.00411672 0.00380489 -5.68476e-21)
(0.00437862 0.00408378 -1.68253e-20)
(0.00411905 0.00380622 0)
(0.00256871 0.00264611 -4.17094e-21)
(0.00445374 0.00405579 -3.4959e-20)
(0.00274389 0.00277455 1.84403e-20)
(0.00261065 0.00268857 -8.00339e-21)
(0.00273916 0.00279783 -1.45924e-20)
(0.00261777 0.00268116 -1.06878e-20)
(0.00273834 0.00279741 1.19337e-20)
(0.00274174 0.00278152 -1.28855e-20)
(0.00274246 0.00279891 -1.21118e-22)
(0.0027286 0.00278851 9.59972e-21)
(0.00261331 0.00267948 1.52204e-20)
(0.00273202 0.0027931 2.4962e-20)
(0.00437535 0.00408483 -7.88263e-21)
(0.004205 0.00389085 -3.79584e-21)
(0.00454875 0.00404891 2.65024e-20)
(0.00419552 0.00390547 -1.42225e-22)
(0.00437915 0.00408457 7.39335e-21)
(0.00494488 0.0041555 -1.82605e-20)
(0.00439298 0.0040759 3.81487e-21)
(0.00420096 0.00389127 1.38506e-21)
(0.00273996 0.00279781 7.66268e-21)
(0.0028345 0.00287165 -1.78971e-20)
(0.00410795 0.00382364 0)
(0.00438662 0.00406221 -1.34174e-21)
(0.00272801 0.00280536 2.80815e-21)
(0.00437515 0.00407994 -1.31545e-20)
(0.00414502 0.00381074 0)
(0.00435699 0.00389282 8.63652e-21)
(0.00439261 0.00406052 2.0813e-21)
(0.00420668 0.00388973 2.17252e-21)
(0.00411863 0.00380695 -2.48458e-21)
(0.00425675 0.00405205 1.91502e-20)
(0.00410263 0.0038224 1.17183e-20)
(0.00420724 0.00388889 -2.14386e-21)
(0.00410072 0.00382631 0)
(0.00419765 0.00398028 0)
(0.00421419 0.00400533 -1.60567e-20)
(0.00261985 0.0026937 2.90211e-21)
(0.00267258 0.00274089 -1.75861e-20)
(0.00419538 0.00395992 7.83327e-21)
(0.00411623 0.00380517 0)
(0.00419461 0.003913 -1.25257e-20)
(0.00312488 0.00308962 -1.7852e-22)
(0.00419433 0.00391668 7.30171e-21)
(0.00273758 0.00279359 -7.95993e-21)
(0.00439186 0.00406174 -2.10912e-21)
(0.00257393 0.00265756 5.02926e-21)
(0.00410076 0.00382738 7.79331e-21)
(0.00438475 0.00407363 8.437e-21)
(0.00442446 0.00400863 0)
(0.00263569 0.0026806 -2.9826e-20)
(0.00419381 0.00390905 1.38003e-20)
(0.00437633 0.00407995 6.75981e-21)
(0.00262034 0.00267573 1.50569e-22)
(0.00273807 0.00280218 -7.75424e-21)
(0.00260451 0.0026848 2.48401e-21)
(0.00272929 0.00278411 -6.71495e-21)
(0.00344246 0.00335014 -1.90414e-20)
(0.00437906 0.00406192 -2.27075e-21)
(0.00420574 0.00389685 0)
(0.00262684 0.00268435 5.47458e-21)
(0.00410186 0.00382561 0)
(0.00262554 0.00269246 -2.84016e-21)
(0.00257446 0.00263187 1.85343e-20)
(0.00439103 0.00406553 0)
(0.00411664 0.00381004 7.47061e-21)
(0.00410209 0.00382438 7.11566e-21)
(0.00439508 0.00407236 7.10068e-21)
(0.00271264 0.00279884 2.41404e-21)
(0.00263095 0.00268735 0)
(0.00271858 0.00279523 5.52203e-21)
(0.00291107 0.00288 2.0222e-20)
(0.00296218 0.0029277 0)
(0.00419255 0.00391107 1.30657e-20)
(0.00411575 0.00380642 4.13268e-21)
(0.00270873 0.00279861 -1.65906e-21)
(0.00420605 0.00388926 -3.76861e-21)
(0.00257753 0.00265334 6.126e-21)
(0.00260071 0.00268564 -4.99188e-21)
(0.00410301 0.00382014 -1.15231e-20)
(0.00256591 0.0025544 0)
(0.00255875 0.00263441 -1.48474e-20)
(0.0027232 0.00281056 1.63977e-21)
(0.00439126 0.00406108 -3.65372e-21)
(0.00261371 0.00269785 1.6931e-21)
(0.00261415 0.00269597 0)
(0.00273463 0.00279074 8.14704e-21)
(0.00336873 0.00330624 0)
(0.00262984 0.00267968 -2.13131e-20)
(0.00273418 0.00280919 -2.76365e-21)
(0.00256585 0.00263763 1.51825e-25)
(0.0025639 0.00264491 -8.27281e-21)
(0.00411755 0.00380812 -8.52511e-21)
(0.00436897 0.00406094 -1.70921e-21)
(0.00324624 0.00350953 -1.01057e-20)
(0.00273468 0.00276834 -4.62084e-21)
(0.00259283 0.00267287 0)
(0.0025793 0.00261736 1.66253e-20)
(0.00500506 0.00415944 -1.8615e-20)
(0.00433806 0.00477235 9.75348e-21)
(0.00261827 0.00267999 0)
(0.00428462 0.00387319 8.26748e-21)
(0.00267461 0.00265345 4.54958e-22)
(0.00410086 0.003821 0)
(0.00273496 0.00279601 -1.49602e-20)
(0.00258587 0.00263574 -3.1651e-20)
(0.00411023 0.00380656 -1.66206e-21)
(0.00420434 0.00389428 7.44286e-21)
(0.00437832 0.00408143 5.55691e-21)
(0.00439056 0.00406536 5.20103e-21)
(0.00257567 0.00265336 -1.80396e-21)
(0.00257515 0.00264992 3.12902e-21)
(0.00256623 0.00261727 0)
(0.00257107 0.00264969 3.85796e-21)
(0.00411659 0.00380929 0)
(0.00419442 0.00390827 -5.17876e-24)
(0.00419325 0.00380357 0)
(0.0026253 0.00266243 1.55163e-20)
(0.00439005 0.00406458 7.22258e-21)
(0.00264126 0.00267865 0)
(0.00347491 0.00344992 1.01506e-20)
(0.00358815 0.00350584 -2.90279e-20)
(0.00273436 0.00280732 0)
(0.00273247 0.00281604 0)
(0.00263048 0.00267953 -6.95487e-21)
(0.00258477 0.00263595 -8.50041e-21)
(0.00411272 0.00380764 3.81405e-21)
(0.00429289 0.00424622 0)
(0.00420481 0.00389582 5.34964e-21)
(0.00435142 0.00405336 6.42772e-22)
(0.00262346 0.00270071 0)
(0.00416588 0.00388056 -2.31389e-21)
(0.00366836 0.00356149 6.35833e-23)
(0.00420297 0.00389545 6.72221e-21)
(0.002584 0.00262859 -4.98361e-21)
(0.0026326 0.00267923 9.17596e-21)
(0.00437587 0.00408357 8.65436e-21)
(0.00419455 0.00390952 1.50356e-22)
(0.00419384 0.0039098 -4.49061e-21)
(0.00260911 0.00268775 3.60221e-21)
(0.00409983 0.00382368 5.14252e-21)
(0.0027366 0.00278864 1.37947e-20)
(0.00410146 0.00382471 -9.81975e-21)
(0.004526 0.00516267 0)
(0.00252124 0.00251021 -8.64094e-22)
(0.00257563 0.00262693 -6.48273e-21)
(0.00419241 0.00390928 -6.4891e-21)
(0.00420477 0.00390096 9.38349e-21)
(0.00261613 0.00266731 0)
(0.00536675 0.00464943 -1.85999e-20)
(0.00410074 0.00382067 -1.2905e-20)
(0.0027369 0.00278947 1.61771e-20)
(0.00257894 0.00263074 -8.30214e-21)
(0.00419454 0.00391819 1.49027e-20)
(0.00257352 0.00262663 0)
(0.00257679 0.00263222 1.4023e-20)
(0.00257535 0.00265076 1.12391e-20)
(0.00262062 0.00266358 0)
(0.00420345 0.00389931 6.66298e-21)
(0.00439165 0.00406954 -1.19155e-20)
(0.00437718 0.0040787 -4.99314e-21)
(0.00438436 0.00406564 1.37687e-21)
(0.00437747 0.00408121 1.0778e-20)
(0.00437012 0.00408555 -1.37833e-20)
(0.00273648 0.0027913 0)
(0.00259933 0.00264719 -1.90415e-20)
(0.00257248 0.00261373 5.05261e-21)
(0.00419986 0.0038931 -1.42155e-21)
(0.00265341 0.00273127 -2.50793e-20)
(0.00259495 0.00267786 1.79098e-21)
(0.00280948 0.00279893 -9.94878e-21)
(0.00272204 0.00279368 -7.59819e-21)
(0.00419417 0.00390942 5.7575e-21)
(0.00439266 0.00407107 3.11332e-21)
(0.00257692 0.00263114 -8.78769e-21)
(0.0041018 0.00382652 0)
(0.00410231 0.00382541 4.27254e-20)
(0.00411036 0.0038066 2.90383e-21)
(0.00272138 0.00280491 -1.95563e-21)
(0.00256162 0.00264404 -2.48522e-21)
(0.00256946 0.00264773 2.50664e-21)
(0.00273741 0.00279631 2.90462e-20)
(0.00410041 0.00382764 1.57121e-20)
(0.0027351 0.0028126 6.00641e-21)
(0.00262549 0.00268242 6.28704e-21)
(0.00273148 0.00279062 -2.877e-20)
(0.00258653 0.0026343 8.06794e-21)
(0.00411666 0.00381034 3.03087e-21)
(0.00258367 0.00263447 2.67034e-20)
(0.00410451 0.00382398 -1.7907e-20)
(0.00269173 0.00274314 -7.80087e-21)
(0.00271842 0.00279619 0)
(0.00259073 0.00263898 2.7453e-20)
(0.00419473 0.00390544 -5.5626e-21)
(0.00261011 0.0026825 0)
(0.00257186 0.00263135 -5.90398e-21)
(0.00261272 0.0026957 4.7798e-24)
(0.00410449 0.00380426 0)
(0.00411765 0.00380662 -2.61891e-21)
(0.00270584 0.00279331 4.33408e-21)
(0.00437806 0.0040861 6.14863e-21)
(0.00411999 0.00380567 -4.92577e-21)
(0.00419388 0.00391103 6.39711e-21)
(0.00256046 0.00264208 -8.1883e-21)
(0.00410145 0.00382569 -1.48562e-20)
(0.00419682 0.00394163 -3.0373e-20)
(0.00419445 0.00392911 1.51358e-20)
(0.00261093 0.00268307 3.20608e-21)
(0.00272304 0.00280002 0)
(0.00410259 0.00382077 -2.70429e-20)
(0.00279836 0.00280979 0)
(0.00256804 0.00262586 6.56114e-21)
(0.00440724 0.00406635 8.53167e-21)
(0.00256293 0.00263268 4.58186e-21)
(0.00262224 0.00268199 6.53432e-21)
(0.00294125 0.00295174 9.00031e-21)
(0.00273121 0.00279327 1.22217e-22)
(0.00256257 0.00264331 -7.69697e-21)
(0.00256567 0.00264396 -5.41797e-21)
(0.00262149 0.00269416 -6.76426e-21)
(0.00439249 0.00406217 -2.42283e-21)
(0.00260891 0.00268998 3.82056e-21)
(0.00273121 0.00269193 -7.92043e-21)
(0.0042075 0.0038912 -2.49744e-21)
(0.00437917 0.00408563 -1.16004e-20)
(0.00435888 0.00389163 0)
(0.00419506 0.00391135 1.39214e-20)
(0.00257902 0.00263142 1.3599e-20)
(0.00273165 0.00278724 3.2963e-20)
(0.00273325 0.00278822 -3.2381e-20)
(0.00407279 0.0037985 -3.22598e-21)
(0.00262505 0.00269436 -9.33436e-21)
(0.00423128 0.00402886 7.72643e-21)
(0.00411678 0.00381161 0)
(0.00262634 0.00268431 1.74297e-20)
(0.00269987 0.00278596 -6.33994e-22)
(0.00410297 0.00382554 0)
(0.00258175 0.00263298 6.58814e-25)
(0.0043748 0.00408003 -2.44073e-20)
(0.00453733 0.00392209 -9.17038e-21)
(0.00513255 0.0044037 9.26178e-21)
(0.0043743 0.00408327 0)
(0.0041015 0.00382554 7.93487e-21)
(0.00263258 0.00268837 6.17027e-21)
(0.00495349 0.00464055 0)
(0.00272654 0.00272108 0)
(0.0029642 0.00291971 -3.06831e-20)
(0.00258614 0.00263461 0)
(0.00426848 0.0038265 0)
(0.00258309 0.00263305 0)
(0.00258341 0.00263312 0)
(0.00255884 0.0026355 -1.68672e-21)
(0.00255795 0.00263927 1.88781e-21)
(0.00273547 0.00278183 1.69882e-20)
(0.00274101 0.00279798 2.2307e-20)
(0.00437755 0.0040797 -6.72116e-21)
(0.00257329 0.00265451 2.11028e-21)
(0.00433653 0.00404931 -1.65708e-22)
(0.00261635 0.00268266 8.43009e-21)
(0.00439065 0.00407902 3.94676e-21)
(0.00253726 0.0026276 -1.29696e-20)
(0.00420508 0.00388974 3.57159e-21)
(0.00411133 0.00382338 0)
(0.00520873 0.00434368 -9.23554e-21)
(0.00256326 0.00263762 0)
(0.00262731 0.00267686 7.32005e-21)
(0.00263622 0.00267815 -7.7312e-21)
(0.00272236 0.0027962 0)
(0.00269589 0.00266914 -1.53094e-22)
(0.00257592 0.0026327 6.00779e-21)
(0.00264845 0.00266274 7.93045e-21)
(0.00263059 0.00267028 -9.7442e-21)
(0.00272624 0.00278702 1.29829e-20)
(0.00261096 0.00309886 4.35165e-20)
(0.00415178 0.00387712 -4.84321e-23)
(0.00437905 0.00408204 -7.45508e-21)
(0.00267345 0.00266408 -2.42512e-20)
(0.00261363 0.00269297 9.48157e-22)
(0.00354398 0.00351811 -1.03817e-20)
(0.00257055 0.00260564 1.7397e-20)
(0.00437664 0.00407853 8.09616e-21)
(0.00260933 0.00267761 8.96053e-21)
(0.00271764 0.00279509 8.72018e-21)
(0.00272905 0.00276425 5.31592e-21)
(0.00276632 0.00281924 -8.99243e-21)
(0.00262883 0.00268502 0)
(0.00262543 0.00268285 1.34389e-20)
(0.00260922 0.00268955 4.17451e-21)
(0.00257705 0.00261729 2.71644e-20)
(0.00273511 0.00280898 0)
(0.0025828 0.00262042 -1.57158e-20)
(0.00420042 0.00390989 0)
(0.00268995 0.0027912 -4.94163e-21)
(0.00296926 0.00290679 9.45154e-21)
(0.00420597 0.00389135 0)
(0.00261427 0.00268564 -2.96639e-24)
(0.00272275 0.00280113 -2.98015e-24)
(0.00270329 0.00272248 0)
(0.0032269 0.00310732 -9.33575e-21)
(0.00442377 0.00413784 -2.01478e-20)
(0.00261695 0.00268157 -8.68107e-24)
(0.00254604 0.00263686 0)
(0.00410175 0.00382661 7.49068e-21)
(0.00439041 0.00406143 -3.46057e-21)
(0.00257481 0.00262959 1.32278e-21)
(0.00273435 0.00279282 -7.70547e-21)
(0.00257966 0.00263172 0)
(0.00257746 0.00263253 -1.42959e-20)
(0.00280191 0.0028636 2.03159e-20)
(0.00419379 0.00389042 -3.44621e-21)
(0.002584 0.00263537 -1.45375e-20)
(0.00271988 0.00278996 0)
(0.00418762 0.00389163 -9.30545e-22)
(0.0027334 0.0027906 -2.52474e-20)
(0.00420456 0.00389132 -3.57409e-21)
(0.00259981 0.00268148 -9.30967e-21)
(0.00410061 0.00382682 0)
(0.00255761 0.002634 -5.78991e-21)
(0.00272871 0.00279522 1.38841e-22)
(0.00273622 0.00276754 4.85179e-21)
(0.00272188 0.00280792 3.66576e-21)
(0.0021762 0.00198555 0)
(0.00257843 0.00263638 4.64139e-21)
(0.00264668 0.00267567 -1.56416e-20)
(0.00437427 0.00408318 3.22624e-20)
(0.00271806 0.00280189 4.05122e-21)
(0.00405855 0.00379255 7.97531e-22)
(0.00411376 0.00380949 -7.50643e-21)
(0.00520582 0.00499188 9.28178e-21)
(0.00274892 0.00280381 -8.48834e-21)
(0.00261579 0.00264658 -5.52713e-21)
(0.00439207 0.00406786 8.97533e-21)
(0.00271898 0.00275668 5.54782e-21)
(0.00418446 0.00388879 8.40886e-22)
(0.00269247 0.00278881 -2.96849e-23)
(0.00265417 0.00266411 -2.37566e-20)
(0.00260736 0.00268123 0)
(0.00437732 0.00408615 0)
(0.00409707 0.00382352 1.55533e-20)
(0.00272668 0.00280959 2.19704e-21)
(0.00411378 0.00380614 1.6912e-21)
(0.00261002 0.00268724 5.71672e-21)
(0.00269414 0.0027934 0)
(0.00261086 0.00267699 -1.05286e-20)
(0.00410275 0.00382212 0)
(0.00272244 0.00275666 -1.03334e-20)
(0.00412056 0.0038213 -1.83336e-20)
(0.00261546 0.00265198 5.89028e-21)
(0.00256553 0.00263393 -5.43115e-21)
(0.00258122 0.00267982 -5.08375e-21)
(0.00475389 0.00399641 1.87871e-20)
(0.00410064 0.00382606 -1.60841e-20)
(0.00439354 0.00407098 0)
(0.00422 0.00400751 1.3603e-20)
(0.00272921 0.00275975 -6.01657e-25)
(0.00260989 0.00267886 -5.08861e-21)
(0.00257022 0.00260841 5.40567e-21)
(0.00439273 0.004074 0)
(0.00419301 0.00391205 0)
(0.00419524 0.00390558 -5.82445e-21)
(0.00272891 0.00276563 1.10746e-20)
(0.00256849 0.00263166 -1.12257e-20)
(0.00273475 0.00279419 0)
(0.00419391 0.00391591 2.8048e-20)
(0.00257013 0.00263369 1.62511e-20)
(0.00272198 0.002786 0)
(0.00470884 0.0040746 0)
(0.0025529 0.00263683 -9.59294e-21)
(0.00439129 0.00406066 -3.23868e-21)
(0.00261644 0.00265752 5.05378e-21)
(0.00272872 0.00276631 0)
(0.00255313 0.00263253 -2.25118e-21)
(0.00258791 0.00268442 6.33936e-21)
(0.00261791 0.0026964 2.26186e-21)
(0.00420572 0.0038892 3.26893e-21)
(0.00410096 0.00382516 1.25801e-20)
(0.00259784 0.00268257 -8.98362e-21)
(0.0026901 0.00278561 -1.47633e-22)
(0.00439003 0.00408141 4.11236e-21)
(0.0026169 0.00265815 0)
(0.00255601 0.00263654 0)
(0.00437891 0.00408141 0)
(0.00154351 0.00153234 0)
(0.00437276 0.0040627 0)
(0.00257664 0.0026459 -3.36435e-21)
(0.00261459 0.00265587 1.25433e-20)
(0.00273303 0.00277664 -8.53933e-21)
(0.00411855 0.00380647 4.39558e-21)
(0.00257449 0.0026143 2.52593e-20)
(0.00254006 0.00262427 -3.68007e-21)
(0.00269556 0.00279966 0)
(0.00420757 0.00389988 -3.04442e-21)
(0.00260637 0.00265096 0)
(0.00253539 0.0026302 1.27888e-22)
(0.00262634 0.00268341 -8.5261e-21)
(0.00254056 0.00262704 1.00566e-20)
(0.00269687 0.00279579 4.15143e-21)
(0.00273051 0.0027551 -1.75254e-20)
(0.00269284 0.00278562 -3.02832e-23)
(0.00257512 0.0026113 -1.6894e-20)
(0.00273532 0.0027061 8.88617e-21)
(0.00254522 0.00263479 0)
(0.00257043 0.00260651 0)
(0.0025861 0.00268757 0)
(0.0011472 0.0017194 2.72466e-20)
(0.0027225 0.00275903 -8.85941e-24)
(0.00258291 0.00267983 5.48456e-21)
(0.00272282 0.00275849 -2.3942e-20)
(0.00258657 0.00267482 -2.95305e-23)
(0.00256522 0.00260183 -2.97309e-20)
(0.0026444 0.00261937 0)
(0.00420778 0.00389458 8.00456e-21)
(0.00253414 0.00262901 0)
(0.0025632 0.00260207 -1.55502e-20)
(0.00269657 0.00277821 0)
(0.00259263 0.00267209 9.9116e-21)
(0.00269193 0.00278243 3.35012e-21)
(0.00259173 0.00267259 6.86126e-21)
(0.0026945 0.0028444 8.03597e-22)
(0.00258336 0.00273279 -6.78687e-22)
(0.00272454 0.00276583 -7.52103e-21)
(0.00262264 0.00264668 -7.36425e-21)
(0.00270982 0.00295315 1.13435e-21)
(0.0027209 0.00276061 -1.4792e-20)
(0.00269152 0.00279139 5.33469e-21)
(0.0026082 0.00264775 6.14176e-21)
(0.00258515 0.00268213 0)
(0.00258707 0.00267034 6.14577e-21)
(0.00268919 0.00278819 -2.90349e-21)
(0.00258154 0.00267596 -2.98357e-21)
(0.00262789 0.00262988 -7.62446e-21)
(0.00256315 0.00260244 -1.61817e-20)
(0.00272666 0.00276725 -2.31499e-20)
(0.00264356 0.00261836 -7.76996e-21)
(0.00270759 0.00287935 5.48029e-21)
(0.00272693 0.00276133 -6.56845e-21)
(0.00257073 0.00260635 1.32328e-20)
(0.00261157 0.00264778 -1.36656e-20)
(0.00258301 0.00268171 0)
(0.00257023 0.00270569 -2.63541e-20)
(0.00410021 0.00380356 0)
(0.0027013 0.00278151 -7.54489e-21)
(0.00270217 0.00256373 -2.72316e-20)
(0.002699 0.0027829 -4.0644e-21)
(0.00257165 0.00260972 1.5632e-20)
(0.00196999 0.00207336 3.26603e-20)
(0.00254375 0.00262885 1.16559e-20)
(0.00269162 0.00279279 0)
(0.00269669 0.00278174 -6.98169e-21)
(0.00266441 0.00267142 7.87062e-21)
(0.0027342 0.00277328 2.55987e-20)
(0.00257104 0.00260863 -1.49902e-20)
(0.00257121 0.00260348 0)
(0.00259758 0.00283922 1.88884e-21)
(0.00272308 0.00276475 2.54154e-20)
(0.0027329 0.00276813 0)
(0.00273168 0.00277178 -7.83559e-24)
(0.00257386 0.00252446 -1.4794e-24)
(0.00254312 0.00261895 1.00119e-23)
(0.00271614 0.00275866 -7.79319e-21)
(0.00272439 0.00276209 -7.54672e-24)
(0.0025746 0.00263471 1.73348e-20)
(0.00258349 0.00258948 -1.88478e-20)
(0.00256903 0.00260877 -9.14736e-21)
(0.00255978 0.00263785 -9.2729e-21)
(0.00268988 0.00281063 1.7338e-23)
(0.00256507 0.00260321 -1.68247e-20)
(0.00253739 0.00263062 -4.92177e-21)
(0.00267262 0.00275441 -8.21977e-21)
(0.00411848 0.00380822 -3.15668e-21)
(0.00269675 0.0028285 -2.69371e-20)
(0.00269932 0.00281958 -8.97965e-22)
(0.00258944 0.00270744 -1.05011e-22)
(0.00257224 0.00261053 0)
(0.00256837 0.00260449 0)
(0.00253984 0.00263222 -2.21842e-21)
(0.00254469 0.00262746 -1.60677e-22)
(0.00253599 0.00263109 -2.69986e-21)
(0.00253824 0.00263013 -6.04168e-21)
(0.00253446 0.00262956 6.07008e-21)
(0.00408841 0.00380266 2.81188e-21)
(0.00257754 0.00261397 -1.75492e-20)
(3.05859e-05 2.28883e-05 -1.09015e-20)
(4.53313e-05 -1.6455e-05 5.38405e-21)
(9.28936e-05 0.000121305 1.51031e-21)
(0.000184224 -3.57784e-05 2.35557e-21)
(0.00100374 8.50715e-05 0)
(6.93331e-05 7.29662e-05 -9.73648e-22)
(0.0006231 0.000363787 4.04802e-20)
(5.86987e-05 0.000146037 0)
(0.000215658 -4.30967e-05 0)
(8.04143e-05 -1.77621e-05 -1.58098e-22)
(0.00061506 0.000101282 -1.55222e-20)
(0.00414927 0.0041409 -1.10757e-20)
(0.00414417 0.0041379 5.26688e-21)
(0.00443749 0.00442221 7.32708e-23)
(0.00419477 0.00388356 1.3809e-20)
(0.00410534 0.00379726 1.4591e-20)
(0.00423402 0.00423021 0)
(0.0044368 0.00442174 -5.03267e-21)
(0.00414073 0.00413925 -9.5456e-21)
(0.00423505 0.00423247 0)
(0.00424446 0.00422945 0)
(0.00409723 0.0038268 -1.26888e-20)
(0.00424912 0.00423115 -1.14812e-20)
(0.00409665 0.00382759 6.80866e-21)
(0.0041358 0.00414927 4.85692e-21)
(0.00443411 0.00441809 0)
(0.00424169 0.00423252 6.43408e-21)
(0.00415465 0.00413851 2.06049e-20)
(0.00424213 0.00423013 1.23466e-20)
(0.00443532 0.00442125 0)
(0.0044372 0.00442269 0)
(0.00424518 0.00423684 -1.95168e-20)
(0.00443014 0.00441523 5.77534e-21)
(0.00412958 0.00415487 0)
(0.0041302 0.00415826 0)
(0.0044131 0.00443541 0)
(0.00441421 0.00443659 -7.00723e-21)
(0.00422817 0.00424931 0)
(0.00413212 0.004155 -3.47894e-21)
(0.00422786 0.00424647 -6.60619e-21)
(0.00441665 0.00443595 4.07582e-21)
(0.00443093 0.00441609 -5.83645e-21)
(0.00441377 0.00443836 1.52258e-20)
(0.00413021 0.0041563 0)
(0.00441402 0.00443856 -7.29725e-21)
(0.00441365 0.0044353 0)
(0.00443377 0.00441873 -9.37884e-21)
(0.00413157 0.00415579 3.53712e-21)
(0.00422677 0.00424476 -9.37149e-21)
(0.00436776 0.0040866 0)
(0.00415305 0.00413923 -1.44469e-20)
(0.00425695 0.00422848 -7.20266e-21)
(0.00441108 0.00443745 -1.18728e-20)
(0.00415303 0.00413899 -1.46909e-20)
(0.00441139 0.0044367 0)
(0.0041527 0.00413919 0)
(0.00442919 0.00441696 1.22161e-20)
(0.00436903 0.00408313 1.41581e-20)
(0.00422578 0.00424513 3.05899e-21)
(0.00436902 0.00408523 -6.4601e-21)
(0.00422492 0.00424829 5.54966e-21)
(0.00441303 0.00443986 5.38467e-21)
(0.00415248 0.0041391 -7.82095e-21)
(0.0041518 0.00414004 8.18126e-21)
(0.0041256 0.00415648 5.90036e-21)
(0.00422594 0.0042461 -5.77996e-21)
(0.0044122 0.00443808 -5.61841e-21)
(0.00415171 0.00413852 0)
(0.00415216 0.00413997 7.78857e-21)
(0.00412542 0.00415616 -6.20665e-21)
(0.00441089 0.00444167 -4.93078e-21)
(0.00426072 0.00422669 -1.50309e-20)
(0.00422147 0.00425097 -5.09705e-21)
(0.00431127 0.00418447 0)
(0.0042711 0.00422066 -7.5933e-21)
(0.00412635 0.00415986 -6.89044e-21)
(0.00443279 0.00441846 -1.42744e-20)
(0.00415159 0.00413963 -2.4687e-20)
(0.00428954 0.00420804 1.5352e-20)
(0.00415071 0.00413803 -8.60546e-21)
(0.00412638 0.00415772 1.03201e-20)
(0.00422005 0.0042522 0)
(0.00440917 0.00444276 0)
(0.00414903 0.0041368 1.75215e-20)
(0.00431674 0.00415567 0)
(0.00440966 0.00444297 2.15452e-21)
(0.00422041 0.00425248 2.22711e-21)
(0.00412725 0.00415894 4.30996e-21)
(0.00443629 0.00442518 0)
(0.00426674 0.00407499 -1.49285e-20)
(0.00414282 0.00413376 0)
(0.0043008 0.00413327 1.63496e-20)
(0.00443234 0.00442119 -7.41984e-21)
(0.00412545 0.00415928 4.7443e-21)
(0.00443257 0.00441964 0)
(0.00427514 0.00410739 8.16306e-21)
(0.00442929 0.0044148 1.66417e-20)
(0.0044344 0.00442387 7.70176e-21)
(0.00421552 0.00380454 1.8859e-20)
(0.00408497 0.00378456 9.55492e-21)
(0.00414491 0.00413615 -8.84782e-21)
(0.00412755 0.004157 -8.18794e-21)
(0.00417198 0.00369924 8.91139e-21)
(0.00443806 0.00440494 0)
(0.0042196 0.00426581 2.18869e-21)
(0.00406053 0.00371888 -1.95821e-20)
(0.00440804 0.00445446 2.10322e-21)
(0.00419589 0.00426566 2.42243e-21)
(0.00420883 0.00426606 1.03513e-21)
(0.00439665 0.00445692 -9.78606e-22)
(0.00439707 0.0038663 1.8297e-20)
(0.00438336 0.00445423 0)
(0.00435472 0.00445553 1.24065e-21)
(0.00445141 0.00406659 1.00189e-20)
(0.00416765 0.00426739 2.02561e-21)
(0.00436222 0.00424948 2.02372e-20)
(0.00518781 0.00418742 3.64428e-20)
(0.000809917 0.000590402 -8.83166e-21)
(-2.69152e-05 0.00108809 4.2951e-24)
(3.56855e-05 2.8589e-05 -9.06076e-21)
(5.14508e-05 4.54829e-06 -2.12671e-21)
(6.13677e-05 0.000259167 0)
(0.000117338 -2.72912e-05 -7.37826e-21)
(6.7326e-05 -1.8921e-06 3.10751e-22)
(0.000680367 0.0005778 -9.432e-24)
(0.00257395 0.00261522 -1.86814e-20)
(0.00424839 0.00423414 5.61699e-21)
(0.0025723 0.00260419 0)
(0.00259369 0.00268344 4.03772e-21)
(0.00270417 0.00278863 8.26393e-21)
(0.0025961 0.00267729 -3.5927e-21)
(0.00272974 0.00276696 2.09508e-20)
(0.00254609 0.00263367 0)
(0.00261992 0.00265205 7.16412e-21)
(0.0026995 0.00279668 -4.83432e-21)
(0.00258963 0.00268432 -1.51412e-22)
(0.00273161 0.00277719 -8.50183e-21)