/*--------------------------------*- C++ -*----------------------------------*\
  =========                 |
  \\      /  F ield         | OpenFOAM: The Open Source CFD Toolbox
   \\    /   O peration     | Website:  https://openfoam.org
    \\  /    A nd           | Version:  7
     \\/     M anipulation  |
\*---------------------------------------------------------------------------*/
FoamFile
{
    version     2.0;
    format      ascii;
    class       volScalarField;
    location    "46";
    object      p;
}
// * * * * * * * * * * * * * * * * * * * * * * * * * * * * * * * * * * * * * //

dimensions      [0 2 -2 0 0 0 0];

internalField   nonuniform List<scalar> 
591
(
0.000123932
0.00012395
0.000123958
0.000123914
0.000123915
0.000123987
0.000123985
0.000123947
0.000117
0.00012396
0.000124131
0.000122866
0.000123957
0.000119749
0.000123947
0.000124002
0.000123908
0.000123989
0.000121978
0.000123331
0.000123923
-3.52419e-06
0.00012413
0.000123927
0.000124089
0.000123947
0.000124034
0.000124049
0.000123959
0.000123974
0.000124108
0.000124085
0.000124103
0.000124102
0.000124104
0.000123434
0.0001241
0.000123929
0.000124125
0.000124044
0.000124019
0.000124097
0.000123956
0.000123975
0.000124094
0.000124112
0.000119272
0.000124116
0.000123962
0.000124077
0.000124054
0.00012409
2.39353e-05
3.05834e-05
4.78449e-05
0.00012396
0.00012412
0.000124103
0.000124114
0.000123933
0.000124017
0.000123951
0.000123952
0.000124003
0.000122589
0.000123952
0.000123956
0.000124111
0.000120758
0.000123967
0.00012396
0.000124117
0.00012408
0.000124098
0.000124103
0.00012408
0.000123927
0.000124114
0.00012393
0.000123858
0.000123709
0.000124119
0.00012408
0.000124052
0.000124126
0.000123941
0.000124033
0.000124109
0.000124072
0.000123825
0.000124085
0.000124023
0.000124044
0.000123935
0.000124125
0.000124079
0.000123638
0.000123537
0.000123681
0.000124129
0.00012404
0.000123951
0.000124133
0.000123916
0.000124133
0.000123955
0.000123949
0.000124083
0.000124123
0.000124127
0.000124013
0.000124101
0.000123968
0.000124108
0.000124128
0.000124104
0.000124055
0.000124058
0.000123614
0.000124022
0.000123953
0.000123957
0.000124015
0.000123938
0.000124098
0.000120232
0.000124131
0.000124106
0.000123708
0.000124104
0.000123944
0.000123632
0.000124066
0.000124063
0.000124107
0.000123962
0.000122624
0.000124132
0.000123948
0.000123614
0.000123679
0.000124033
0.00012411
0.000124125
0.00012412
7.61233e-06
3.67618e-06
2.07097e-06
3.81518e-05
3.66944e-05
5.65693e-06
3.82994e-05
1.57389e-05
3.72771e-05
1.78046e-05
0.000123952
0.000123941
0.000124118
0.000124116
0.000124122
0.00012412
0.000124114
0.000124111
0.000124116
0.000124117
0.000124078
0.000124123
0.000124118
0.000124124
0.000124056
0.000123418
0.000124125
0.000122159
0.0001241
0.000124107
0.00012405
0.000123961
0.000124107
0.000124118
0.000124113
0.000123525
0.000122507
0.000123078
0.000123482
0.00012411
0.000124115
0.000124046
0.000123926
0.000124109
0.000122992
0.000123341
0.000123927
0.000124105
0.0001238
0.000124099
0.000124109
0.000124081
0.000123771
0.000123915
0.000124106
0.000124115
0.000124111
0.000123906
0.000124094
0.000123902
0.000124125
0.000123948
0.000123945
0.000124122
0.000123736
0.000123917
0.000123959
0.000123583
0.000124071
0.000123729
0.000124016
0.000124021
0.000124097
0.000123499
0.000124008
0.000123906
0.000123912
0.000124081
0.000123837
0.000123997
0.000123907
0.000123815
0.000123905
0.000124127
0.00012388
0.000124121
0.000123963
0.000124096
0.00012395
0.000123949
0.000124128
0.000123849
0.000124117
0.00012384
0.000123886
0.000123954
0.000123931
0.000123965
0.000123952
0.000123717
0.000123924
0.000123873
0.000124088
0.000123944
0.000123784
0.000124075
0.000123341
0.000123886
0.000123239
0.000123115
0.000123937
0.000123903
0.000123937
0.000123934
0.000123894
0.000124126
0.00012398
0.000124065
0.000123985
0.000123985
0.000123998
0.000124076
0.000123729
0.000124121
0.000123767
0.000123658
0.000123971
0.000124096
0.000123678
0.000124121
0.000124023
0.000124062
0.000124079
0.000123963
0.000123926
0.000123744
0.000123899
0.000123918
0.000123973
0.000124021
0.000124093
0.000124107
0.000124114
0.00012388
0.000123979
0.0001241
0.000124108
0.000124104
0.000123903
0.000124116
0.000123987
0.000124092
0.000123868
0.000124116
0.000123858
0.000124095
0.000123993
0.000123927
1.16384e-05
2.1907e-05
0.000123894
0.000123955
0.000124123
0.000123887
0.000124124
0.000123966
0.000124116
0.000124095
0.000123844
0.00012409
0.000123922
0.000124119
0.000123959
-2.09641e-07
0.000123804
0.000124099
0.000124095
0.000123805
0.000123936
0.000123973
0.00012409
0.000123867
0.00012411
0.000124001
0.000123952
0.000124088
0.000123912
0.000123838
0.000123866
0.000123964
4.74483e-05
0.000124105
0.000124089
0.000123948
0.000124111
0.000124028
0.000123972
0.00012395
0.000123945
0.000124099
0.000123974
0.00012388
0.000123987
0.000123882
0.000124111
0.00012389
0.000123941
0.000123979
0.000124062
1.98678e-05
2.7298e-05
3.42905e-05
9.63503e-06
0.000123929
3.305e-05
2.60086e-05
0.000124108
1.90693e-05
1.70269e-05
3.8182e-05
7.56611e-06
3.99349e-05
5.59538e-06
4.08296e-05
3.68592e-06
4.28132e-05
1.8768e-06
3.63882e-05
2.31867e-05
2.94347e-05
1.49899e-05
0.000123803
0.000124118
0.000123997
0.000124003
0.000120923
0.000124052
0.000124113
0.000124085
0.0001239
0.000124119
0.000124114
0.000124101
0.000124098
0.000123866
0.000123947
0.000124098
0.000124103
0.000123942
0.000123824
0.000123859
0.000123441
0.000123895
0.000124129
0.000124104
0.000123959
0.000124126
0.000123805
0.00012397
0.000123762
0.000122892
0.000124099
0.00012411
0.000124128
0.000123812
0.000123983
0.000123763
0.000123968
0.000123956
2.6043e-05
2.18686e-05
3.30295e-05
1.1617e-05
0.000124134
0.000123809
1.98137e-05
2.82508e-05
3.55974e-05
9.58191e-06
0.000123945
0.000124054
0.000123905
0.000123914
0.000123954
0.000124062
0.000123855
0.000124095
0.000124026
0.000123135
0.000123918
0.000123886
5.93309e-05
0.000123259
0.000124123
0.000123937
0.00012384
0.000124112
0.000124115
0.000123923
0.000123719
0.000123952
0.000124026
0.0001238
0.000124071
0.000122947
0.000123894
0.000123896
0.00012407
0.000100861
0.00012392
0.000123522
0.000123873
0.000124124
0.00012377
1.08931e-05
2.11077e-05
3.53619e-05
2.82e-05
1.36642e-05
5.54515e-08
4.20622e-05
2.68849e-06
4.01487e-05
4.75733e-06
3.94109e-05
6.8089e-06
3.86191e-05
8.85228e-06
3.7285e-05
1.36711e-05
3.17201e-05
3.05836e-05
2.39341e-05
2.52536e-05
1.77637e-05
1.29358e-05
1.57094e-05
0.000124118
0.000102457
0.00012393
0.000123868
0.000124121
0.000124015
0.000124127
0.000123847
0.000123986
0.000124091
0.000124086
0.000124103
0.000123852
0.000123959
0.000123836
0.000124055
0.000123896
0.000124122
0.000123982
0.000123814
0.000123817
0.000123969
0.000123962
0.000124129
0.00012412
0.000124125
0.00012409
0.000124129
0.000123764
0.000123953
0.000124123
0.000123896
0.000124028
0.000123953
0.000123978
0.00012383
0.00012409
0.000124088
0.000123403
0.000121403
0.000123133
0.000123676
0.000123953
0.00012378
0.000123967
0.000124127
0.000124086
0.000123958
0.000123565
0.000123548
0.000124123
0.000124092
0.000123975
0.000124059
0.000123601
5.83294e-05
4.01045e-05
0.000124064
0.000124081
0.000123444
0.000122786
0.000123936
0.000123665
0.00012341
0.000123953
0.000123837
0.000124107
0.00012398
0.000124009
0.000119028
5.44649e-05
0.000123977
8.12315e-05
1.86244e-06
-3.80179e-07
0.000123946
0.000123917
0.000124091
0.000124129
0.000124116
0.000124123
0.000124118
0.000123933
-2.3067e-06
0.000122868
0.000123968
0.000124071
0.000122037
0.000124121
0.000124122
0.000122328
0.000124047
0.000124093
0.000121717
0.000124122
7.63736e-05
0.00012412
0.000123677
0.000124085
0.000122413
0.000123655
0.000123701
0.00012398
0.000124124
0.000124078
0.000124121
0.000124132
0.00012396
0.000116212
)
;

boundaryField
{
    back
    {
        type            empty;
    }
    ingreso
    {
        type            zeroGradient;
    }
    salida
    {
        type            fixedValue;
        value           uniform 0;
    }
    front
    {
        type            empty;
    }
    defaultFaces
    {
        type            zeroGradient;
    }
}


// ************************************************************************* //
