/*--------------------------------*- C++ -*----------------------------------*\
  =========                 |
  \\      /  F ield         | OpenFOAM: The Open Source CFD Toolbox
   \\    /   O peration     | Website:  https://openfoam.org
    \\  /    A nd           | Version:  7
     \\/     M anipulation  |
\*---------------------------------------------------------------------------*/
FoamFile
{
    version     2.0;
    format      ascii;
    class       volScalarField;
    location    "41.5";
    object      p;
}
// * * * * * * * * * * * * * * * * * * * * * * * * * * * * * * * * * * * * * //

dimensions      [0 2 -2 0 0 0 0];

internalField   nonuniform List<scalar> 
591
(
0.000123946
0.000123964
0.000123974
0.00012393
0.000123931
0.000124007
0.000124002
0.000123963
0.000117003
0.000123975
0.000124143
0.000122877
0.000123976
0.000119753
0.000123964
0.000124018
0.000123918
0.000124004
0.000121991
0.000123346
0.000123938
-3.51503e-06
0.000124142
0.000123941
0.000124102
0.000123961
0.000124046
0.000124062
0.000123974
0.000123992
0.000124121
0.000124098
0.000124116
0.000124115
0.000124117
0.000123448
0.000124113
0.000123945
0.000124138
0.000124057
0.000124034
0.000124109
0.000123971
0.00012399
0.000124107
0.000124125
0.000119271
0.000124128
0.000123978
0.000124092
0.000124066
0.000124102
2.39329e-05
3.05827e-05
4.78474e-05
0.000123978
0.000124132
0.000124115
0.000124126
0.000123947
0.000124031
0.000123966
0.000123968
0.00012402
0.000122594
0.000123967
0.000123972
0.000124123
0.000120763
0.000123983
0.000123974
0.00012413
0.000124091
0.00012411
0.000124116
0.000124092
0.000123941
0.000124127
0.000123945
0.000123871
0.000123724
0.000124131
0.000124093
0.000124064
0.000124139
0.000123956
0.000124048
0.000124122
0.000124085
0.000123839
0.000124098
0.000124035
0.000124056
0.00012395
0.000124137
0.000124092
0.000123653
0.000123551
0.000123691
0.000124142
0.000124053
0.000123963
0.000124146
0.000123932
0.000124145
0.000123971
0.000123963
0.000124096
0.000124136
0.00012414
0.000124025
0.000124113
0.000123984
0.00012412
0.00012414
0.000124116
0.000124067
0.000124071
0.000123624
0.000124033
0.000123968
0.000123977
0.000124026
0.000123954
0.000124111
0.000120246
0.000124144
0.000124118
0.000123723
0.000124117
0.000123959
0.000123647
0.000124078
0.000124075
0.00012412
0.000123978
0.00012263
0.000124145
0.000123964
0.000123625
0.000123691
0.000124046
0.000124123
0.000124137
0.000124133
7.61506e-06
3.67748e-06
2.07592e-06
3.81529e-05
3.66962e-05
5.66399e-06
3.82984e-05
1.57427e-05
3.72749e-05
1.78077e-05
0.000123967
0.000123956
0.000124131
0.000124128
0.000124134
0.000124132
0.000124126
0.000124123
0.000124128
0.000124128
0.00012409
0.000124135
0.00012413
0.000124136
0.000124067
0.000123428
0.000124138
0.000122168
0.000124111
0.000124119
0.000124062
0.000123975
0.000124119
0.000124129
0.000124125
0.000123536
0.000122516
0.000123088
0.000123495
0.000124122
0.000124127
0.000124062
0.000123941
0.000124119
0.000123002
0.000123352
0.000123943
0.000124118
0.000123813
0.000124112
0.000124121
0.000124093
0.000123784
0.00012393
0.000124118
0.000124129
0.000124123
0.000123918
0.000124106
0.000123913
0.000124137
0.000123964
0.000123961
0.000124133
0.00012375
0.000123932
0.000123975
0.000123596
0.000124083
0.000123742
0.000124029
0.000124032
0.000124109
0.000123512
0.000124021
0.000123921
0.000123928
0.000124093
0.00012385
0.000124011
0.00012392
0.000123827
0.000123921
0.000124139
0.000123893
0.000124133
0.000123974
0.000124108
0.000123963
0.000123961
0.00012414
0.000123863
0.00012413
0.000123855
0.000123901
0.00012397
0.000123947
0.000123979
0.000123967
0.00012373
0.000123938
0.000123886
0.000124101
0.000123959
0.000123796
0.000124087
0.000123354
0.000123898
0.000123254
0.000123127
0.000123953
0.000123918
0.000123952
0.000123949
0.000123907
0.000124138
0.000123995
0.000124079
0.000123997
0.000123999
0.000124012
0.000124088
0.000123742
0.000124133
0.00012378
0.000123672
0.000123985
0.000124108
0.000123691
0.000124133
0.000124035
0.000124076
0.000124091
0.000123979
0.000123941
0.000123754
0.000123914
0.000123931
0.000123986
0.000124033
0.000124106
0.000124118
0.000124127
0.000123894
0.000123993
0.000124112
0.00012412
0.000124117
0.000123917
0.000124128
0.000123999
0.000124104
0.000123883
0.000124129
0.000123873
0.000124107
0.000124008
0.000123941
1.16407e-05
2.19077e-05
0.00012391
0.000123969
0.000124136
0.000123902
0.000124136
0.000123981
0.000124129
0.000124108
0.00012386
0.000124103
0.000123936
0.000124131
0.000123973
-2.11051e-07
0.000123815
0.000124111
0.000124108
0.000123821
0.000123948
0.000123983
0.000124103
0.000123883
0.000124123
0.000124015
0.000123967
0.000124101
0.000123929
0.000123854
0.000123881
0.000123981
4.74361e-05
0.000124118
0.000124101
0.000123962
0.000124124
0.000124041
0.000123986
0.000123963
0.000123962
0.000124111
0.000123992
0.000123895
0.000123998
0.000123898
0.000124123
0.000123906
0.000123954
0.000123994
0.000124076
1.9871e-05
2.73277e-05
3.42909e-05
9.63483e-06
0.000123943
3.3049e-05
2.59909e-05
0.000124121
1.90729e-05
1.70317e-05
3.81839e-05
7.56154e-06
3.99377e-05
5.59323e-06
4.08326e-05
3.69205e-06
4.28158e-05
1.88241e-06
3.63874e-05
2.31919e-05
2.94428e-05
1.49936e-05
0.000123816
0.000124131
0.000124012
0.000124019
0.000120938
0.000124071
0.000124126
0.000124098
0.000123916
0.000124131
0.000124126
0.000124114
0.000124111
0.00012388
0.000123963
0.00012411
0.000124115
0.000123955
0.000123838
0.000123865
0.000123449
0.000123906
0.000124141
0.000124117
0.000123974
0.000124139
0.00012382
0.000123983
0.000123777
0.000122901
0.000124112
0.000124122
0.00012414
0.000123827
0.000123994
0.000123779
0.000123983
0.000123969
2.60328e-05
2.18684e-05
3.30306e-05
1.16187e-05
0.000124146
0.000123825
1.98168e-05
2.82474e-05
3.55982e-05
9.57956e-06
0.000123957
0.000124067
0.00012392
0.000123927
0.000123974
0.000124074
0.000123866
0.000124108
0.000124038
0.000123144
0.000123932
0.000123899
5.93164e-05
0.000123268
0.000124136
0.000123952
0.000123856
0.000124125
0.000124128
0.000123939
0.000123734
0.000123969
0.000124042
0.000123814
0.000124083
0.000122952
0.00012391
0.00012391
0.000124082
0.000100854
0.000123931
0.000123533
0.000123889
0.000124137
0.000123786
1.0894e-05
2.11113e-05
3.53635e-05
2.81789e-05
1.36695e-05
5.67287e-08
4.20564e-05
2.69031e-06
4.01477e-05
4.75661e-06
3.94116e-05
6.8071e-06
3.86199e-05
8.85172e-06
3.72862e-05
1.36735e-05
3.17212e-05
3.05747e-05
2.39315e-05
2.52728e-05
1.77691e-05
1.2939e-05
1.57165e-05
0.00012413
0.000102476
0.000123945
0.000123885
0.000124134
0.000124029
0.000124139
0.00012386
0.000124003
0.000124104
0.000124099
0.000124119
0.000123865
0.000123978
0.000123846
0.000124068
0.000123913
0.000124134
0.000123993
0.000123824
0.000123828
0.00012399
0.000123981
0.000124141
0.000124132
0.000124137
0.000124103
0.000124142
0.000123778
0.000123969
0.000124136
0.000123913
0.000124045
0.000123969
0.000123989
0.000123844
0.000124102
0.000124101
0.000123416
0.000121407
0.000123146
0.00012369
0.000123969
0.000123795
0.000123986
0.000124139
0.000124097
0.000123974
0.000123579
0.000123563
0.000124136
0.000124105
0.000123992
0.000124072
0.000123615
5.83339e-05
4.0109e-05
0.000124077
0.000124094
0.000123459
0.000122796
0.000123951
0.000123675
0.00012342
0.000123972
0.00012385
0.000124119
0.000123996
0.000124026
0.000119041
5.44728e-05
0.000123992
8.12301e-05
1.86459e-06
-3.81557e-07
0.000123962
0.000123933
0.000124104
0.000124141
0.000124128
0.000124135
0.00012413
0.000123949
-2.30397e-06
0.000122877
0.000123982
0.000124084
0.000122052
0.000124134
0.000124134
0.000122333
0.000124062
0.000124106
0.00012172
0.000124134
7.63844e-05
0.000124132
0.000123673
0.000124097
0.000122424
0.000123669
0.000123711
0.000123995
0.000124136
0.000124091
0.000124133
0.000124144
0.000123977
0.000116225
)
;

boundaryField
{
    back
    {
        type            empty;
    }
    ingreso
    {
        type            zeroGradient;
    }
    salida
    {
        type            fixedValue;
        value           uniform 0;
    }
    front
    {
        type            empty;
    }
    defaultFaces
    {
        type            zeroGradient;
    }
}


// ************************************************************************* //
