/*--------------------------------*- C++ -*----------------------------------*\
  =========                 |
  \\      /  F ield         | OpenFOAM: The Open Source CFD Toolbox
   \\    /   O peration     | Website:  https://openfoam.org
    \\  /    A nd           | Version:  8
     \\/     M anipulation  |
\*---------------------------------------------------------------------------*/
FoamFile
{
    version     2.0;
    format      ascii;
    class       volScalarField;
    location    "1.2";
    object      p;
}
// * * * * * * * * * * * * * * * * * * * * * * * * * * * * * * * * * * * * * //

dimensions      [0 2 -2 0 0 0 0];

internalField   nonuniform List<scalar> 
6388
(
1.61942e-05
1.61938e-05
1.53875e-05
1.56348e-05
1.26115e-05
1.01455e-05
1.51274e-05
1.46081e-05
1.52954e-05
1.45613e-05
1.28368e-05
1.45523e-05
1.50749e-05
1.02146e-05
1.5002e-05
1.4966e-05
1.47352e-05
1.11262e-05
1.48436e-05
1.50354e-05
1.48704e-05
1.48872e-05
1.12463e-05
1.1563e-05
1.12164e-05
1.48251e-05
1.51497e-05
1.47186e-05
1.46763e-05
1.55585e-05
1.09768e-05
1.10041e-05
1.23575e-05
1.37815e-05
1.07264e-05
1.25415e-05
1.14586e-05
1.40679e-05
1.51383e-05
1.03717e-05
1.49635e-05
1.48895e-05
1.60297e-05
1.14408e-05
1.54454e-05
1.44773e-05
1.61875e-05
1.51673e-05
1.54342e-05
1.5059e-05
1.53787e-05
1.57192e-05
1.51352e-05
1.49801e-05
1.44072e-05
1.53907e-05
1.48678e-05
1.5505e-05
1.50696e-05
1.51118e-05
1.1195e-05
1.54967e-05
1.48208e-05
1.56123e-05
1.45415e-05
1.53871e-05
1.4598e-05
1.50079e-05
1.40935e-05
1.53846e-05
1.44566e-05
1.08468e-05
1.01184e-05
1.39575e-05
1.53567e-05
1.52535e-05
1.05927e-05
1.5483e-05
1.5578e-05
1.10908e-05
1.45961e-05
1.54824e-07
1.3184e-07
1.32821e-07
1.28711e-07
1.48253e-07
1.33996e-05
1.57806e-07
1.2821e-07
1.3174e-07
1.46925e-07
1.20681e-07
1.53919e-05
1.59153e-05
1.49277e-05
1.58001e-05
1.53874e-05
1.05893e-05
1.57253e-05
1.52674e-05
1.48487e-05
1.42465e-05
1.47197e-05
1.45588e-05
1.46054e-05
1.36201e-05
1.52328e-05
1.46764e-05
1.4745e-05
1.53813e-05
1.50683e-05
1.16719e-05
1.20076e-05
1.50382e-05
1.57957e-05
1.56394e-05
1.30543e-05
1.62101e-05
1.51126e-05
1.53691e-05
9.6065e-06
1.53917e-05
1.48357e-05
1.53588e-05
1.13304e-05
1.58721e-05
1.53273e-05
1.50254e-05
1.53527e-05
1.48748e-05
1.17638e-05
1.46408e-05
1.52563e-05
1.58306e-05
1.539e-05
1.15804e-05
1.11003e-05
1.43608e-05
1.54814e-05
1.45914e-05
1.19494e-05
1.56955e-05
1.48129e-05
1.55771e-05
1.53587e-05
1.49011e-05
1.51946e-05
1.5386e-05
1.50518e-05
1.56805e-05
1.45691e-05
1.5662e-05
1.45528e-05
1.15528e-05
1.44576e-05
1.51351e-05
1.39321e-05
1.5385e-05
1.13878e-05
1.39992e-05
1.55098e-05
1.59847e-05
1.05355e-05
1.39203e-05
1.53865e-05
1.36223e-05
1.00614e-05
9.74853e-06
9.73459e-06
1.53775e-05
1.04329e-05
1.46203e-05
1.48582e-05
1.53867e-05
1.49142e-05
1.10517e-05
1.53328e-05
1.51479e-05
1.56544e-05
1.46047e-05
1.47767e-05
1.42083e-05
1.06992e-05
9.24873e-06
1.48234e-05
1.36205e-05
1.53979e-05
1.13771e-05
1.48402e-05
1.15786e-05
1.19662e-05
1.44063e-05
1.22178e-05
1.59672e-05
1.47801e-05
1.53646e-05
1.53882e-05
1.53693e-05
1.02029e-05
9.84623e-06
9.39412e-06
1.04676e-05
1.53843e-05
9.43653e-06
9.45082e-06
9.75459e-06
1.03351e-05
1.16015e-05
1.5366e-05
1.52008e-05
1.08476e-05
1.13361e-05
1.01782e-05
1.3548e-05
7.52802e-06
7.20881e-06
6.98039e-06
6.97172e-06
1.1103e-05
1.50462e-05
7.44084e-06
1.54742e-05
9.61701e-06
1.12487e-05
1.53957e-05
9.08766e-06
1.20774e-05
8.01692e-06
7.68629e-06
7.44221e-06
7.43348e-06
1.38475e-05
9.5354e-06
1.51662e-05
1.46031e-05
7.91071e-06
1.34582e-05
1.02252e-05
8.77465e-06
1.06355e-05
8.53308e-06
8.2692e-06
8.25459e-06
1.35481e-05
8.98501e-06
8.70652e-06
8.69158e-06
9.48276e-06
1.06049e-05
1.25016e-05
1.53582e-05
1.03413e-05
1.00912e-05
9.48061e-06
9.18503e-06
9.17129e-06
9.96967e-06
9.74427e-06
9.88551e-06
9.9746e-06
6.3168e-06
9.96239e-06
1.02968e-05
6.14054e-06
6.79887e-06
8.9395e-06
8.95436e-06
9.24091e-06
6.75073e-06
6.53807e-06
6.52886e-06
6.60015e-06
7.02602e-06
9.9721e-06
1.45311e-05
6.94803e-06
1.53861e-05
1.23563e-05
7.69914e-06
7.11133e-06
9.39674e-06
8.10689e-06
7.62245e-06
1.51072e-05
7.77551e-06
1.53896e-05
8.40744e-06
8.53334e-06
1.48006e-05
1.03203e-05
1.01036e-05
1.46209e-05
1.15832e-05
1.50224e-05
8.32694e-06
9.00862e-06
1.53864e-05
8.60649e-06
9.83715e-06
1.50751e-05
1.25262e-05
1.18098e-05
1.54031e-05
8.32252e-06
8.52493e-06
8.75363e-06
7.946e-06
7.95744e-06
8.21485e-06
7.79068e-06
1.54067e-05
1.22072e-05
1.52945e-05
1.28469e-05
1.05478e-05
1.54245e-05
1.21233e-05
8.2251e-06
1.50328e-05
9.02161e-06
9.56317e-06
1.52213e-05
1.0471e-05
9.61283e-06
8.68724e-06
1.47331e-05
1.39944e-05
1.13384e-05
1.18338e-05
6.00723e-06
8.5051e-07
7.50138e-07
7.74437e-07
7.63764e-07
8.64808e-07
7.10931e-06
6.56123e-06
1.17642e-05
1.13822e-05
1.38922e-05
1.43976e-05
7.28466e-06
6.44848e-06
1.52464e-05
6.71129e-06
8.63317e-06
1.50564e-05
6.49176e-06
8.26567e-06
7.77046e-06
7.78174e-06
8.03286e-06
1.11302e-05
1.15038e-05
7.20591e-06
9.19197e-06
1.17786e-05
7.68293e-06
1.262e-05
8.99413e-06
8.48413e-06
8.49883e-06
8.7703e-06
1.07044e-05
1.46308e-05
1.29199e-05
5.47127e-06
7.77402e-06
1.47605e-05
7.19217e-06
7.20044e-06
7.43682e-06
6.43685e-06
1.1565e-05
1.16514e-05
8.97228e-06
1.37839e-05
6.93137e-06
8.26781e-06
8.18371e-06
1.46455e-05
1.53763e-05
6.2926e-06
6.09581e-06
6.08602e-06
1.455e-05
1.46749e-05
8.12382e-06
8.13709e-06
1.53455e-05
8.13133e-06
8.89139e-06
7.4924e-06
7.59426e-06
1.53721e-05
1.17111e-05
7.95811e-06
1.25617e-05
7.44181e-06
7.88951e-06
1.46772e-05
1.50314e-05
1.48636e-05
1.56114e-05
7.77523e-06
8.53405e-06
9.26425e-06
1.51015e-05
1.55916e-05
5.8336e-06
1.44512e-05
1.53768e-05
1.55802e-05
5.16577e-06
5.1553e-06
5.33008e-06
1.30889e-05
1.53604e-05
1.54456e-05
7.44703e-06
1.48794e-05
1.53817e-05
6.6711e-06
7.34609e-06
1.58299e-05
5.35161e-06
5.85079e-06
1.40279e-05
1.52415e-05
8.75783e-06
1.53844e-05
5.96494e-06
1.43658e-05
7.26753e-06
1.20497e-05
5.78228e-06
1.58007e-05
6.89187e-06
5.9613e-06
7.19138e-06
6.75117e-06
6.76023e-06
6.9807e-06
1.39839e-05
6.95018e-06
8.44866e-06
5.71283e-06
6.07664e-06
1.50538e-05
5.77452e-06
1.48507e-05
1.21129e-05
8.32316e-06
1.19171e-05
1.36019e-05
7.04217e-06
1.52212e-05
1.40681e-05
5.39753e-06
6.30947e-06
6.31909e-06
6.52377e-06
6.3647e-06
5.32084e-06
5.3795e-06
5.38937e-06
5.56188e-06
6.33394e-06
1.53237e-05
5.47273e-06
7.99244e-06
1.53823e-05
6.26516e-06
1.50139e-05
6.55993e-06
1.23259e-05
1.47123e-05
1.56724e-05
6.47452e-06
1.15513e-05
1.28148e-05
7.56772e-06
6.10244e-06
6.79021e-06
5.7926e-06
6.72127e-06
6.03486e-06
1.53875e-05
9.91777e-06
6.23145e-06
1.53937e-05
5.57935e-06
5.62563e-06
6.21809e-06
1.503e-05
5.54458e-06
1.14062e-05
7.22946e-06
6.94575e-06
1.23158e-05
9.6369e-06
1.57138e-05
1.53896e-05
6.22827e-06
1.43374e-05
6.00227e-06
5.70964e-06
1.53874e-05
1.29458e-05
1.5342e-05
6.66602e-06
1.31014e-05
5.16851e-06
1.55949e-05
1.43026e-05
1.18807e-05
1.51093e-05
1.46818e-05
5.54975e-06
1.23975e-05
4.9496e-06
1.15465e-05
1.3096e-05
1.12077e-05
1.53662e-05
1.27991e-05
1.56899e-05
1.4877e-05
1.50214e-05
1.34498e-05
1.53467e-05
5.32152e-06
1.48181e-05
9.32938e-06
1.46455e-05
1.53874e-05
1.52051e-05
1.38381e-05
1.54574e-05
1.49252e-05
1.16087e-05
1.55951e-05
1.53817e-05
1.53993e-05
1.56061e-05
1.51252e-05
1.5718e-05
1.50078e-05
1.55655e-05
1.5412e-05
1.51272e-05
1.50908e-05
1.40142e-05
1.54239e-05
1.23132e-05
1.50786e-05
1.53274e-05
1.32982e-05
1.53564e-05
1.52094e-05
1.45156e-05
1.09632e-05
1.50847e-05
1.56413e-05
1.43537e-05
1.33128e-05
1.53009e-05
1.43415e-05
1.55657e-05
1.26525e-05
1.31557e-05
1.53007e-05
1.50421e-05
1.54763e-05
1.27331e-05
1.5588e-05
1.14396e-05
1.25449e-06
1.2846e-06
1.1595e-06
1.17048e-06
1.19758e-06
4.49174e-06
4.50109e-06
4.64408e-06
1.45472e-05
1.28084e-05
1.31084e-05
1.47521e-05
1.50228e-05
1.25943e-05
1.53e-05
1.18286e-05
1.55088e-05
1.54347e-05
1.62198e-05
9.59699e-06
1.32244e-05
1.57889e-05
1.29391e-05
1.56785e-05
1.50941e-05
1.55079e-05
1.53984e-05
1.54081e-05
1.42813e-05
1.53835e-05
1.16353e-05
1.43324e-05
1.53878e-05
1.48535e-05
1.53364e-05
1.55623e-05
1.37302e-05
1.19604e-05
1.53804e-05
1.18156e-05
1.33967e-05
1.52024e-05
4.7414e-06
5.11916e-07
5.02977e-07
5.5898e-07
4.87381e-07
1.46549e-05
5.59985e-07
1.46304e-05
1.53372e-05
1.02137e-05
1.53879e-05
1.3701e-05
1.48768e-05
1.53286e-05
4.64937e-06
1.14047e-05
1.53283e-05
8.95868e-06
1.5391e-05
1.53895e-05
4.25792e-06
1.23208e-05
1.48936e-05
1.47752e-05
1.15141e-05
4.5376e-07
5.5635e-07
4.81989e-07
4.95823e-07
5.98195e-07
1.46696e-05
1.21308e-05
1.50247e-05
1.31151e-05
1.49493e-05
1.54003e-05
1.39739e-05
1.2392e-05
4.49922e-06
1.40684e-05
1.31429e-05
1.39911e-05
1.09729e-05
1.54899e-05
1.56124e-05
1.57258e-05
1.52417e-05
1.10966e-05
1.56534e-05
1.54045e-05
1.50824e-05
1.12108e-05
1.55415e-05
1.42149e-05
5.67656e-07
5.45906e-07
4.84533e-07
4.73815e-07
4.89624e-07
1.54799e-05
1.53152e-05
1.53042e-05
5.71428e-07
5.18149e-07
5.35152e-07
5.24319e-07
5.78074e-07
1.22119e-05
1.14328e-05
1.50165e-05
9.5858e-06
1.51176e-05
1.56357e-05
1.31909e-05
1.50816e-05
1.23985e-05
1.23499e-05
1.49884e-05
1.44702e-05
1.45912e-05
1.493e-05
1.16721e-05
1.54451e-05
1.53865e-05
1.57653e-05
1.4896e-05
1.51221e-05
1.50009e-05
1.47559e-05
1.43615e-05
1.54641e-05
1.55548e-05
1.53693e-05
1.57085e-05
1.53853e-05
1.5296e-05
1.07108e-05
1.20438e-05
1.12061e-05
1.303e-05
1.47412e-05
1.54749e-05
1.16603e-05
1.50401e-05
1.27963e-05
1.54652e-05
1.49624e-05
1.53903e-05
1.3557e-05
1.24398e-05
1.58303e-05
1.56047e-05
1.54455e-05
7.90979e-06
1.481e-05
1.5093e-05
1.30744e-05
4.7282e-06
1.53973e-05
1.52871e-05
1.38024e-05
1.53966e-05
5.59288e-06
1.51186e-05
1.4188e-05
9.31941e-06
1.49713e-05
1.54092e-05
1.49424e-05
1.52417e-05
1.06465e-05
5.05031e-06
1.37642e-05
1.2521e-05
1.09933e-05
1.16862e-05
1.07326e-05
1.33571e-05
1.52837e-05
1.3981e-05
1.39897e-05
1.56479e-05
1.53464e-05
1.53711e-05
1.20378e-05
1.51859e-05
9.98415e-06
9.69077e-06
9.65897e-06
8.39379e-07
1.54079e-05
1.53871e-05
1.52779e-05
1.53805e-05
1.41752e-05
7.03664e-07
8.2812e-07
7.32271e-07
7.5135e-07
1.41776e-05
1.44065e-05
1.51457e-05
1.3733e-05
1.53015e-05
1.53518e-05
1.50872e-05
1.49381e-05
1.53322e-05
1.29674e-05
1.53904e-05
1.54998e-05
1.54758e-05
1.39755e-05
1.51582e-05
1.55529e-05
1.5575e-05
1.53855e-05
1.58323e-05
1.43629e-05
1.04866e-05
1.47635e-05
1.52787e-05
1.39099e-05
9.09074e-06
1.55188e-05
1.42557e-05
1.49167e-05
1.35036e-05
1.53406e-05
1.45745e-05
1.17941e-05
1.28262e-05
1.25762e-05
1.43917e-05
1.53862e-05
1.53795e-05
1.14482e-05
1.00747e-05
1.37566e-05
1.57821e-05
1.53757e-05
1.49889e-05
1.55221e-05
1.5035e-05
1.29011e-05
1.62904e-05
1.22041e-05
1.48698e-05
1.13619e-05
9.8074e-06
1.06239e-05
1.53756e-05
1.51029e-05
1.58038e-05
1.49266e-05
1.54344e-05
1.58488e-05
1.53205e-05
1.03795e-05
1.53138e-05
1.47642e-05
1.53899e-05
1.44857e-05
1.08266e-05
1.54857e-05
4.49549e-06
1.53525e-05
1.45169e-05
1.4917e-05
1.45341e-05
6.16345e-06
1.07871e-05
1.55522e-05
1.58938e-05
1.54571e-05
1.56326e-05
4.76834e-06
1.53902e-05
1.50855e-05
1.43573e-05
1.28191e-05
1.48187e-05
1.07335e-05
1.14418e-05
1.10689e-05
1.50307e-05
1.08377e-05
1.0818e-05
2.46984e-06
6.61137e-06
6.40388e-06
6.39421e-06
1.58248e-05
1.54872e-05
1.53884e-05
1.11733e-05
1.52812e-05
1.41031e-05
1.53776e-05
1.26013e-05
1.53968e-05
1.5083e-05
1.54233e-05
4.4087e-06
4.27296e-06
4.26407e-06
1.20961e-05
1.53973e-05
1.47322e-05
1.26764e-05
1.53801e-05
9.79257e-06
1.12817e-05
1.50572e-05
1.08558e-06
9.92044e-07
9.36579e-07
1.46271e-05
2.56644e-06
1.58003e-05
1.48795e-05
7.214e-06
9.4806e-07
1.45233e-05
1.49333e-05
1.06603e-05
1.10182e-05
1.4952e-05
1.53108e-05
9.96908e-06
1.04764e-05
1.08279e-05
1.17889e-06
1.33739e-05
1.52194e-05
1.13643e-05
1.11782e-05
1.43758e-05
5.73139e-06
1.34109e-05
8.37814e-06
6.17534e-06
1.52656e-05
1.5291e-05
1.24173e-06
1.53077e-05
1.06e-05
1.02557e-05
1.30369e-05
8.60566e-06
1.38603e-05
9.3227e-06
1.53693e-05
2.10369e-06
1.52616e-05
1.03501e-05
1.53824e-05
8.85954e-06
1.43679e-05
2.17277e-06
2.10207e-06
2.11111e-06
2.18451e-06
1.42363e-05
4.15522e-06
1.26701e-05
2.92945e-06
1.99347e-06
1.00332e-05
2.75354e-06
1.31571e-05
1.49212e-05
1.23541e-05
4.41855e-06
9.47411e-06
1.35175e-05
1.53145e-05
1.48594e-05
1.10215e-05
1.54847e-05
1.58429e-05
4.41188e-06
4.27586e-06
4.26717e-06
1.4938e-05
1.5764e-05
5.12488e-06
4.96828e-06
4.95691e-06
9.57627e-06
9.30637e-06
9.01999e-06
9.00291e-06
2.94e-06
1.48163e-05
1.80308e-06
1.05697e-05
1.5384e-05
4.12215e-06
1.93887e-06
1.54473e-05
1.53762e-05
3.26779e-06
1.57689e-05
1.53941e-05
1.3904e-05
1.51582e-05
2.40372e-06
2.32538e-06
2.33449e-06
4.02125e-06
2.23097e-06
2.5629e-06
2.48867e-06
2.4794e-06
1.45312e-05
1.44445e-05
3.30807e-06
3.48625e-06
3.37223e-06
3.38111e-06
4.492e-06
2.03539e-06
1.54493e-05
3.02474e-06
2.92599e-06
2.93515e-06
1.56266e-05
1.49701e-05
1.41504e-06
1.47942e-05
1.51857e-05
2.80659e-06
1.54e-05
1.53876e-05
1.66423e-06
1.61994e-06
1.61047e-06
1.69485e-06
1.1197e-05
1.5094e-05
1.43796e-05
1.48331e-06
1.06812e-05
1.02361e-05
2.9009e-06
1.49846e-05
1.7701e-06
4.2426e-06
4.25369e-06
1.56009e-05
1.40529e-05
2.05405e-06
3.94929e-06
3.81991e-06
3.82874e-06
5.36051e-06
1.04515e-05
4.21714e-06
1.53622e-05
4.41962e-06
3.50773e-06
2.40973e-06
2.30405e-06
2.11448e-06
1.87307e-06
2.86694e-06
2.77332e-06
2.78239e-06
1.49847e-05
2.81262e-06
2.72086e-06
2.72994e-06
7.45111e-06
3.67184e-06
2.47594e-06
5.19469e-06
3.25591e-06
3.14952e-06
3.15856e-06
2.29732e-06
3.79255e-06
3.53116e-06
4.72645e-06
4.73691e-06
4.88657e-06
2.97977e-06
3.89837e-06
1.54121e-05
3.68369e-06
1.32562e-05
1.54869e-05
4.58077e-06
4.13218e-06
3.97809e-06
5.12366e-06
1.53273e-05
5.28041e-06
4.34745e-06
2.3206e-06
2.79477e-06
2.70362e-06
2.71288e-06
3.33007e-06
3.2301e-06
3.22117e-06
1.29452e-05
4.04827e-06
4.03934e-06
4.17633e-06
3.29637e-06
3.61661e-06
1.59541e-06
1.46893e-05
3.09217e-06
1.53875e-05
4.95772e-06
1.55823e-05
3.71805e-06
3.59633e-06
3.60522e-06
6.40963e-06
1.53684e-05
1.43578e-05
1.5018e-05
1.21589e-05
1.7555e-06
1.54557e-05
2.63677e-06
2.55985e-06
2.55076e-06
5.01157e-06
1.53715e-05
3.10008e-06
3.00777e-06
2.99879e-06
5.03255e-06
4.02049e-06
1.67722e-06
3.79349e-06
3.67807e-06
3.66927e-06
1.64867e-06
1.81372e-06
2.09999e-06
1.54391e-05
1.46432e-05
4.2601e-06
1.54432e-05
3.77398e-06
4.35696e-06
3.32769e-06
1.53965e-05
4.1818e-06
4.04471e-06
4.05362e-06
2.48605e-06
2.25607e-06
3.97894e-06
3.13309e-06
1.32339e-05
3.91433e-06
4.98928e-06
1.90778e-06
2.53723e-06
3.56335e-06
3.4468e-06
3.4556e-06
2.69912e-06
2.28024e-06
3.5541e-06
1.52682e-05
1.49509e-05
1.49512e-05
1.71518e-06
3.90923e-06
1.49526e-05
3.60233e-06
1.45562e-05
3.9733e-06
1.4353e-05
4.88885e-06
2.79041e-06
2.3561e-06
3.67696e-06
1.53655e-05
6.82811e-07
7.71064e-07
7.1073e-07
3.7924e-06
2.70949e-06
4.7466e-06
7.31197e-07
1.55567e-06
1.53922e-05
3.75719e-06
3.77095e-06
3.75111e-06
2.47368e-06
2.48283e-06
2.55706e-06
4.42674e-06
3.71725e-06
2.53073e-06
4.79849e-06
4.8071e-06
3.99133e-06
2.5594e-06
1.35672e-05
1.06745e-05
4.87266e-06
2.79071e-06
2.56642e-06
1.89122e-06
6.40343e-06
1.53308e-05
3.78601e-06
4.02712e-06
3.89519e-06
3.90397e-06
2.73704e-06
2.2974e-06
3.75598e-06
1.387e-05
4.19185e-06
4.09523e-06
3.59745e-06
1.50264e-05
4.20367e-06
1.04676e-06
2.33268e-06
2.26622e-06
2.25681e-06
2.34341e-06
9.41218e-06
1.21443e-06
4.38924e-06
1.52388e-05
5.26405e-06
1.5365e-05
6.99139e-06
1.57016e-05
3.31429e-06
3.355e-06
5.25965e-06
4.87533e-06
1.36399e-05
4.25778e-06
4.12699e-06
4.1182e-06
6.27233e-06
3.53138e-06
1.07208e-05
1.10804e-05
5.86378e-06
5.87398e-06
6.06265e-06
3.53331e-06
1.47361e-05
3.85124e-06
4.01814e-06
2.96693e-06
1.29187e-06
1.39568e-06
1.34279e-05
4.01413e-06
1.24634e-06
4.39713e-06
3.90649e-06
5.19724e-06
9.90688e-07
9.61289e-07
9.46973e-07
1.06892e-06
4.58379e-06
9.95633e-07
9.79153e-07
9.67515e-07
1.06917e-06
1.062e-06
4.65266e-06
1.47052e-05
3.58848e-06
3.59728e-06
3.71007e-06
5.39193e-06
1.50931e-05
1.50067e-05
3.37268e-06
6.84322e-06
6.62805e-06
6.61844e-06
3.55574e-06
1.46389e-05
1.55886e-05
5.61182e-06
5.80239e-06
5.62217e-06
1.68335e-06
1.59656e-06
1.60635e-06
1.64962e-06
7.12838e-06
1.45173e-05
1.37173e-05
1.47854e-05
3.81465e-06
6.07961e-06
4.34257e-06
9.81748e-06
4.50396e-06
2.96332e-06
3.42382e-06
1.57062e-05
1.84997e-06
1.32478e-05
1.4606e-05
1.45772e-05
3.15653e-06
5.94149e-06
1.47728e-05
5.09977e-06
3.54081e-06
3.43116e-06
5.22142e-06
1.53538e-05
1.1968e-05
1.15684e-05
1.617e-06
5.04152e-06
3.4603e-06
4.03118e-06
1.20759e-05
5.88401e-06
9.54655e-06
9.25454e-06
9.23541e-06
3.98253e-06
4.19469e-06
5.85636e-06
1.43312e-05
1.42331e-05
1.1879e-06
1.44954e-05
1.51055e-06
1.64722e-06
1.36017e-06
1.25767e-06
2.05695e-06
5.56275e-06
2.56717e-06
1.47087e-06
1.00676e-05
3.29586e-06
1.39615e-06
4.64551e-06
4.50173e-06
4.49307e-06
4.673e-06
5.0133e-06
1.45188e-05
4.82797e-06
1.54909e-05
2.03899e-06
1.45248e-05
4.26155e-06
1.53625e-05
1.1329e-05
4.00536e-06
6.23289e-06
1.53159e-05
7.73857e-06
5.61776e-06
4.73869e-06
2.80664e-06
5.78646e-06
1.14173e-05
4.50622e-06
1.7162e-06
1.87085e-06
4.00204e-06
5.60249e-06
1.57775e-05
5.35557e-06
5.32769e-06
3.33146e-06
1.87535e-06
6.00225e-06
1.34989e-05
6.32652e-06
2.58462e-06
1.52604e-05
6.78345e-06
6.23429e-06
2.31268e-06
5.06948e-06
6.49861e-06
1.73942e-06
3.06028e-06
6.17469e-06
1.44496e-05
1.53344e-05
1.60043e-06
1.53893e-05
1.53768e-05
8.3343e-06
1.81191e-06
1.82155e-06
1.87251e-06
1.897e-06
1.46682e-06
1.41927e-06
1.42743e-06
1.4933e-06
6.33793e-06
3.73589e-06
1.54033e-05
4.25607e-06
6.64352e-06
3.90718e-06
3.91566e-06
4.03965e-06
6.00993e-06
1.01077e-06
6.22262e-06
6.68129e-06
1.49971e-05
6.69076e-06
1.5588e-05
1.41255e-05
1.44219e-05
2.11472e-06
2.02875e-06
2.03807e-06
2.09672e-06
1.53897e-05
4.45029e-06
1.46308e-05
1.49727e-05
5.11963e-06
1.30483e-06
1.26879e-06
1.18101e-06
1.21953e-06
1.19123e-06
7.27493e-06
4.64586e-06
2.72742e-06
3.11354e-06
6.07528e-06
1.85019e-06
1.486e-05
2.03914e-06
1.08823e-05
1.05284e-05
3.45977e-06
1.22052e-05
2.81999e-06
3.01073e-06
1.53787e-05
3.77375e-06
1.20417e-05
2.94789e-06
3.46407e-06
3.47286e-06
3.58133e-06
3.55389e-06
7.25055e-06
1.53813e-05
1.33793e-05
3.75532e-06
7.85931e-06
6.01056e-06
1.53753e-05
1.52141e-05
4.2243e-06
5.53285e-06
5.78494e-06
1.49103e-06
1.39923e-06
1.40979e-06
1.44492e-06
1.04835e-05
1.08354e-05
1.24521e-06
1.28961e-06
1.40705e-06
1.21264e-05
1.19069e-06
6.63543e-06
1.54172e-06
8.83052e-06
2.54243e-06
6.11159e-06
5.84983e-06
3.02645e-06
6.45794e-06
4.84476e-06
6.52581e-06
1.54851e-05
6.7431e-06
1.53895e-05
1.12346e-05
2.86817e-06
6.52121e-06
1.04963e-05
1.46602e-05
6.5599e-06
3.08402e-06
1.67292e-06
2.63609e-06
3.76487e-06
2.33268e-06
1.8916e-06
9.15704e-06
1.21796e-05
2.58452e-06
1.5397e-05
1.33349e-05
6.57702e-06
3.29133e-06
2.13332e-06
7.03033e-06
1.4989e-05
1.55212e-06
6.30161e-06
6.90587e-06
1.28796e-06
1.53697e-05
7.77894e-06
6.40865e-06
1.51798e-05
1.10785e-05
7.09204e-06
1.53793e-05
6.27303e-06
1.404e-05
2.3845e-06
6.45472e-06
9.30986e-06
1.45616e-06
1.41907e-06
1.40945e-06
1.4938e-06
1.53841e-05
4.0464e-06
4.34854e-06
1.0026e-06
9.70106e-07
9.77465e-07
1.06971e-06
1.03683e-06
1.50434e-05
1.48796e-05
7.03181e-06
6.82473e-06
6.86419e-06
1.92161e-06
8.27546e-06
1.53772e-05
6.56603e-06
6.75227e-06
4.89438e-06
4.743e-06
4.73377e-06
2.2213e-06
4.63632e-06
3.54696e-06
7.51062e-06
1.03993e-05
3.3042e-06
3.33957e-06
1.51118e-05
1.47572e-05
6.96429e-06
6.77344e-06
1.51046e-05
6.8079e-06
2.16466e-06
8.81553e-06
8.93151e-06
1.541e-05
3.63091e-06
6.49704e-06
1.4876e-05
3.41946e-06
2.10134e-06
2.38628e-06
1.95714e-06
1.87592e-06
1.88489e-06
1.93887e-06
3.74543e-06
3.58931e-06
7.24442e-06
1.09272e-05
2.43683e-06
2.35961e-06
2.3504e-06
2.42944e-06
8.48233e-06
3.7707e-06
4.12295e-06
4.13112e-06
4.26291e-06
1.45383e-05
7.5407e-06
1.53324e-05
1.42677e-06
4.22356e-06
8.35851e-06
3.64835e-06
7.3278e-06
1.56581e-05
8.73488e-06
1.50823e-06
1.62163e-06
1.46695e-05
1.47399e-05
4.00337e-06
4.87577e-06
1.54586e-05
7.29081e-06
1.59311e-05
6.9804e-06
7.51645e-06
2.77561e-06
1.18204e-05
1.17019e-05
1.30684e-05
6.99939e-06
6.77904e-06
6.7695e-06
4.02612e-06
3.77151e-06
4.23415e-06
5.18908e-06
5.0272e-06
5.01869e-06
8.15282e-06
1.49533e-05
8.1145e-06
2.93658e-06
2.20014e-07
2.10436e-07
1.86992e-07
2.29777e-07
2.17071e-07
1.91104e-07
2.00519e-07
1.8919e-07
1.9535e-07
1.85502e-07
7.23537e-06
7.00734e-06
6.9978e-06
1.52033e-05
1.90226e-06
1.46482e-05
4.41409e-06
3.10977e-06
1.49691e-05
3.02526e-06
1.42784e-05
1.16348e-05
4.95517e-06
4.79251e-06
4.8012e-06
1.10815e-05
1.47166e-05
2.37229e-06
1.55874e-05
1.539e-05
8.03562e-06
4.82139e-06
1.49738e-06
1.51197e-05
9.21841e-06
5.56465e-06
4.51072e-06
8.03536e-06
7.36068e-06
1.44637e-05
1.45e-05
1.52737e-05
1.53865e-05
7.56177e-06
1.51013e-05
1.49064e-05
1.52879e-05
3.14582e-06
3.2283e-06
7.78752e-06
3.08326e-06
1.56353e-05
4.49212e-06
4.35361e-06
4.34481e-06
5.67063e-06
5.494e-06
5.48446e-06
1.46653e-05
1.57662e-05
1.75748e-06
6.25766e-06
3.57686e-06
4.37244e-06
4.19151e-06
3.51045e-06
3.86946e-06
8.58607e-06
6.11626e-06
1.53812e-05
5.24874e-06
4.76964e-06
1.40946e-05
4.65323e-06
1.52969e-05
3.83052e-06
1.0728e-05
2.61001e-06
1.53826e-05
8.52043e-06
3.14077e-06
3.14961e-06
3.24705e-06
1.05664e-05
5.02148e-06
6.04863e-06
8.79394e-06
4.0549e-06
4.06341e-06
4.19236e-06
3.18086e-06
7.96219e-06
4.49695e-06
5.91101e-06
5.72677e-06
5.71697e-06
1.24141e-05
1.01298e-05
4.23823e-06
1.49295e-05
5.13511e-06
1.0888e-06
8.53232e-06
7.04636e-06
9.70045e-06
5.62131e-06
5.44722e-06
5.43701e-06
3.87801e-06
5.97887e-06
4.29787e-06
3.44873e-06
8.2872e-06
4.26655e-06
1.49747e-05
1.40296e-05
1.4846e-05
5.25713e-06
8.59488e-06
5.84076e-06
1.40058e-05
2.65236e-06
1.54973e-05
2.43157e-06
1.16206e-05
3.93165e-06
1.04759e-05
1.07183e-05
1.03701e-05
1.4312e-05
1.53781e-05
1.26439e-05
5.17604e-06
3.62048e-06
3.61158e-06
3.73387e-06
8.9737e-06
1.52828e-05
1.45962e-05
5.43951e-06
4.89056e-06
4.5554e-06
3.32692e-06
5.1061e-06
1.51669e-05
1.02575e-06
1.16489e-06
1.06959e-06
1.00417e-06
8.0682e-06
2.71212e-06
4.17144e-06
9.00889e-06
4.02108e-06
7.46928e-06
7.23355e-06
7.22409e-06
5.02796e-06
1.50784e-05
4.49425e-06
4.71522e-06
9.04515e-06
8.77718e-06
3.83318e-06
3.8419e-06
3.96305e-06
3.81289e-06
1.58581e-05
1.90758e-06
4.20103e-06
5.04074e-06
1.48438e-05
4.89651e-06
1.02532e-05
1.52468e-05
1.4762e-05
3.78305e-06
1.49137e-05
1.00664e-05
9.46073e-06
2.14176e-06
1.97056e-06
2.65022e-06
1.10661e-05
1.53868e-05
5.38633e-06
5.20966e-06
5.21959e-06
6.075e-06
5.87558e-06
5.88577e-06
4.59528e-06
1.50184e-05
5.11281e-06
5.0402e-06
7.12931e-06
4.10863e-06
3.27057e-06
4.05069e-06
2.50549e-06
2.49626e-06
2.58034e-06
4.19632e-06
1.54992e-05
4.94798e-06
8.70615e-06
1.49616e-05
4.50619e-06
1.03068e-05
5.31671e-06
3.68853e-06
3.74758e-06
3.70191e-06
2.23554e-06
9.47058e-06
7.53187e-06
8.83818e-06
1.10062e-05
1.31808e-05
5.64303e-06
8.87472e-06
1.51269e-05
9.23617e-06
1.03053e-05
7.37124e-06
5.78035e-06
9.95614e-06
7.85668e-06
1.53789e-05
4.76027e-06
1.45249e-05
4.56579e-06
1.33321e-05
4.8255e-06
2.58262e-06
1.54959e-05
1.05698e-05
1.53821e-05
1.17959e-05
4.57027e-06
4.02955e-06
6.89229e-06
7.55677e-06
7.31872e-06
7.30887e-06
1.26425e-05
9.08012e-06
1.45165e-05
1.60727e-05
3.38399e-06
7.7719e-06
4.82864e-06
6.64538e-06
1.52264e-06
4.62936e-06
6.71938e-06
1.43832e-05
9.71742e-06
1.36171e-05
1.53587e-05
1.76065e-06
3.96978e-06
1.49372e-05
2.73849e-06
1.47017e-05
6.30236e-06
6.10529e-06
6.09539e-06
6.46912e-06
5.08528e-06
8.63698e-06
5.11837e-06
1.50017e-05
5.43275e-06
1.31776e-05
2.2796e-06
8.58563e-06
1.11002e-05
1.28053e-05
8.29737e-06
8.03734e-06
8.02587e-06
5.37524e-06
8.09927e-06
7.8005e-06
7.55484e-06
7.54476e-06
1.10911e-05
5.66788e-06
7.02948e-06
8.56803e-06
3.38722e-06
3.39612e-06
3.50184e-06
1.4913e-05
1.52841e-05
8.52497e-06
1.50412e-05
1.12009e-05
1.08366e-05
8.25978e-06
3.00216e-06
8.23376e-06
7.97611e-06
7.96436e-06
7.9606e-06
7.71005e-06
7.69963e-06
9.29273e-06
3.4755e-06
5.60569e-06
1.5163e-05
1.34502e-05
1.53175e-05
1.55689e-05
1.07664e-05
9.96909e-06
2.69821e-06
2.56218e-06
1.02422e-05
1.53564e-05
7.51122e-06
7.07945e-06
6.85655e-06
6.84698e-06
1.28251e-05
1.13124e-05
1.41058e-05
7.6015e-06
2.37355e-06
1.1975e-05
6.34068e-06
4.1461e-06
1.42182e-05
2.92588e-06
2.91713e-06
3.01574e-06
1.55947e-05
3.81158e-06
3.82028e-06
3.9408e-06
5.16618e-06
3.51454e-06
2.10121e-06
4.26742e-06
1.5227e-05
6.79742e-06
4.89503e-06
3.30069e-06
2.72563e-06
1.05313e-05
1.09196e-06
1.02292e-06
9.99619e-07
9.91365e-07
1.06192e-06
1.45166e-05
2.05327e-06
7.08043e-06
9.29962e-06
1.48334e-05
5.69577e-06
8.98498e-06
8.70651e-06
8.69171e-06
1.14944e-05
1.44371e-05
1.44955e-05
9.05118e-06
1.23837e-05
8.13331e-06
8.74544e-06
8.47385e-06
8.45998e-06
1.23099e-05
5.97477e-06
8.83657e-06
1.1599e-05
8.8471e-06
8.5505e-06
8.28362e-06
8.27096e-06
7.90651e-07
7.69826e-06
4.75373e-06
1.53783e-05
3.05714e-06
5.64866e-06
3.33181e-06
3.03113e-06
1.53756e-05
9.58639e-06
5.82528e-06
7.47107e-06
2.55116e-06
4.35099e-06
4.35915e-06
4.49863e-06
3.45101e-06
1.15771e-05
1.5386e-05
2.6205e-06
7.89903e-06
1.16719e-05
3.10296e-06
7.42173e-06
3.66323e-06
7.67757e-06
8.18405e-06
1.30633e-05
4.97843e-06
9.52557e-06
3.36312e-06
3.37181e-06
3.477e-06
1.51507e-05
1.54586e-05
2.32892e-06
1.5628e-05
1.5384e-05
7.6618e-06
5.65038e-06
1.53787e-05
7.21478e-06
3.20185e-06
1.5367e-05
1.34363e-05
1.50791e-05
7.18225e-06
3.46963e-06
2.49304e-06
1.53859e-05
1.59254e-05
3.96202e-06
1.191e-05
1.53176e-05
1.91586e-06
2.35667e-06
2.27114e-06
2.28036e-06
2.34751e-06
1.30654e-05
4.25785e-06
1.52487e-05
1.46311e-05
9.13073e-06
1.353e-05
3.02736e-06
4.44715e-06
3.17994e-06
8.38681e-06
8.8714e-06
2.80933e-06
2.13238e-06
1.9861e-06
7.79872e-06
1.28496e-05
5.92111e-06
1.09435e-05
1.29925e-05
8.36889e-06
8.63727e-06
8.34329e-06
4.48649e-06
3.05454e-06
1.52884e-05
3.25368e-06
1.91173e-06
1.82738e-06
1.83671e-06
1.88858e-06
1.16611e-05
4.49888e-06
2.84372e-06
1.21627e-05
2.87067e-06
8.58368e-06
1.46953e-05
4.49541e-06
1.11829e-05
6.3777e-06
6.16827e-06
6.17809e-06
9.33116e-06
1.17651e-05
1.4951e-05
7.87988e-06
8.61248e-06
9.05088e-06
8.77093e-06
8.75553e-06
3.50685e-06
3.77527e-06
9.64159e-06
1.48732e-05
8.10287e-06
1.00003e-05
1.03205e-05
9.98481e-06
7.59862e-06
1.45701e-05
8.07742e-06
1.30921e-05
1.51968e-05
1.57153e-05
3.16537e-06
3.17441e-06
3.27241e-06
1.38315e-05
2.57966e-06
2.5705e-06
2.65718e-06
2.65756e-06
9.13558e-06
1.10047e-05
9.60144e-06
1.56383e-05
1.35668e-05
1.89638e-06
1.82017e-06
1.871e-06
1.81066e-06
1.37465e-06
1.28495e-06
1.25431e-06
1.244e-06
1.33298e-06
3.27713e-06
1.27192e-05
9.90453e-06
1.53201e-05
1.32525e-05
1.33753e-05
9.7581e-06
1.54891e-05
3.21475e-06
1.53649e-05
9.50435e-06
9.21609e-06
9.19447e-06
1.52669e-05
9.12639e-06
9.34078e-06
1.19651e-05
6.32488e-06
1.56648e-05
1.57256e-05
2.94481e-06
2.95383e-06
3.04435e-06
1.41675e-05
1.49913e-05
6.96478e-06
8.8692e-06
9.38345e-06
4.04931e-06
1.52533e-05
1.54032e-05
3.02973e-06
1.68509e-06
1.53907e-05
8.13037e-06
1.02541e-05
1.05758e-05
8.25625e-06
4.34381e-06
2.33451e-06
2.24942e-06
2.25854e-06
2.32506e-06
1.53866e-05
1.18164e-05
2.77797e-06
1.04805e-05
9.86555e-06
2.13649e-06
2.82162e-06
1.55434e-05
2.70302e-06
2.6942e-06
2.78517e-06
1.53548e-05
1.27274e-05
4.0133e-06
3.68435e-06
3.69301e-06
3.80919e-06
2.82842e-06
8.87858e-06
6.76565e-06
6.55308e-06
6.5434e-06
1.30915e-05
1.01091e-05
1.30962e-05
1.10041e-05
1.492e-05
4.58869e-06
1.17787e-05
9.82453e-06
1.21862e-05
9.60183e-06
3.05628e-06
2.32195e-06
7.40776e-06
9.9362e-06
1.54894e-05
1.52752e-05
1.53194e-05
1.51347e-05
3.09894e-06
1.39644e-05
1.15721e-05
1.5374e-05
1.55736e-05
2.04875e-06
2.0581e-06
2.11751e-06
2.13453e-06
1.53647e-05
1.08614e-05
1.28839e-05
9.34587e-06
1.28965e-06
3.52497e-06
2.96041e-06
1.15488e-05
1.50248e-05
2.65559e-06
1.01164e-05
1.29695e-05
1.20754e-05
1.53371e-05
5.37723e-06
1.47138e-05
1.52865e-05
1.23148e-05
1.53228e-05
2.38926e-06
2.45695e-06
1.53918e-05
3.53085e-06
1.10786e-05
1.07183e-05
3.32889e-06
3.23976e-06
3.24863e-06
3.34938e-06
1.4878e-05
1.49097e-05
2.79462e-06
1.53821e-05
5.14475e-06
4.97599e-06
4.98554e-06
4.1075e-06
2.57588e-06
3.81838e-06
1.53619e-05
1.03767e-05
1.44139e-05
2.6311e-06
1.33372e-05
2.34481e-06
1.54143e-05
1.0922e-05
2.60281e-06
1.10745e-05
1.07143e-05
1.0979e-05
3.10208e-06
1.45265e-05
1.47755e-05
3.38568e-06
1.08082e-05
2.13168e-06
1.07987e-05
1.49882e-05
1.23933e-05
1.56191e-05
1.53758e-05
1.39177e-05
1.46735e-05
7.28701e-06
1.53859e-05
1.55145e-05
5.84441e-06
5.66302e-06
5.65258e-06
3.41218e-06
1.05424e-05
1.57214e-05
1.53912e-05
9.6442e-06
1.49317e-05
1.3773e-05
1.53886e-05
1.48103e-05
1.50123e-05
1.29188e-05
1.19041e-05
1.04291e-05
1.45209e-05
1.38216e-05
9.99431e-06
1.028e-05
9.94636e-06
1.52183e-05
1.11756e-05
3.0487e-06
1.5431e-05
2.26403e-06
1.21016e-05
1.01308e-05
1.12876e-05
1.56907e-05
7.7058e-06
7.46257e-06
7.45297e-06
1.02284e-05
1.69116e-06
1.17421e-05
1.13549e-05
3.35436e-06
1.08169e-05
1.11866e-05
1.54532e-05
1.49587e-05
1.55224e-05
1.50125e-05
1.5346e-05
1.47681e-06
1.5237e-05
8.01157e-06
1.56314e-05
1.02507e-05
1.05948e-05
1.49004e-05
1.10038e-05
1.4428e-05
1.53896e-05
1.30644e-05
1.54453e-05
1.4985e-05
1.52909e-05
2.1497e-06
1.09282e-05
1.32045e-05
1.5866e-05
1.52313e-05
8.94491e-06
8.795e-06
1.23148e-05
1.57477e-05
1.02815e-05
8.49218e-06
8.22728e-06
8.21469e-06
1.49549e-05
2.10148e-06
2.0333e-06
2.04286e-06
2.11827e-06
1.55121e-05
9.09801e-06
1.53868e-05
1.54882e-05
9.29593e-06
1.49181e-05
2.10342e-06
1.50111e-05
1.92492e-06
3.18741e-06
1.8144e-06
1.49043e-05
1.0236e-05
1.04957e-05
1.01549e-05
1.5061e-05
1.32833e-05
1.42459e-05
1.57187e-05
1.5381e-05
1.42761e-05
1.55917e-05
1.41147e-05
1.04153e-05
3.23467e-06
1.43458e-05
1.54944e-05
1.52512e-05
1.17143e-05
1.13341e-05
1.47285e-05
1.52806e-05
1.42527e-05
1.53711e-05
4.87621e-06
1.54837e-05
1.43645e-05
5.13754e-06
1.43384e-05
1.53277e-05
1.10927e-05
1.18883e-05
1.05952e-05
1.02509e-05
1.02863e-05
1.55131e-05
1.2273e-05
1.51725e-05
1.24089e-05
1.46106e-06
1.57078e-05
2.12496e-06
2.13421e-06
2.19627e-06
2.21003e-06
2.89976e-06
1.12189e-05
1.42013e-05
2.94643e-06
1.53874e-05
1.0904e-05
1.46948e-05
1.53402e-05
1.05969e-05
1.47807e-06
1.39859e-06
1.40753e-06
1.44498e-06
1.13009e-05
1.09325e-05
1.34197e-05
1.16526e-05
1.24625e-05
1.67313e-06
1.53802e-05
1.53897e-05
1.53713e-05
1.53901e-05
6.94378e-06
1.51414e-05
2.34104e-06
1.57374e-05