/*--------------------------------*- C++ -*----------------------------------*\
  =========                 |
  \\      /  F ield         | OpenFOAM: The Open Source CFD Toolbox
   \\    /   O peration     | Website:  https://openfoam.org
    \\  /    A nd           | Version:  8
     \\/     M anipulation  |
\*---------------------------------------------------------------------------*/
FoamFile
{
    version     2.0;
    format      ascii;
    class       surfaceScalarField;
    location    "1.2";
    object      phi;
}
// * * * * * * * * * * * * * * * * * * * * * * * * * * * * * * * * * * * * * //

dimensions      [0 3 -1 0 0 0 0];

internalField   nonuniform List<scalar> 
8330
(
-7.3949e-09
2.35112e-10
-4.17305e-11
7.20152e-09
8.66675e-09
-7.12955e-09
-1.5372e-09
-6.65374e-09
7.33294e-09
-6.79197e-10
-3.42445e-10
3.72362e-12
5.19796e-10
-1.81074e-10
-3.49667e-09
4.10528e-09
7.25147e-09
-7.86009e-09
5.66076e-09
4.80349e-09
-6.24401e-09
-4.22025e-09
-9.59737e-09
1.10185e-09
-3.60638e-10
8.85616e-09
-9.86543e-10
-7.99526e-09
8.7341e-09
2.47705e-10
-1.28936e-08
-4.82454e-10
-7.85617e-10
1.41617e-08
-7.23261e-09
7.21862e-10
-1.82668e-10
6.69342e-09
8.57468e-09
-8.37647e-09
-5.35047e-11
-1.44706e-10
8.68555e-09
1.93901e-09
-6.97202e-09
-3.65255e-09
-1.95941e-10
8.08952e-09
6.81098e-10
7.24155e-09
-7.41396e-10
3.67721e-10
-6.86787e-09
7.73877e-10
1.03297e-10
-1.00913e-08
9.2141e-09
-7.72622e-09
7.79643e-09
-8.26247e-11
1.24226e-11
-3.97725e-10
6.81708e-09
-6.41936e-09
-3.66671e-09
4.58891e-09
-3.57729e-09
2.65509e-09
-8.10981e-09
-3.59629e-10
9.29752e-11
7.8821e-09
-7.83113e-09
-1.02535e-10
5.15585e-11
7.97751e-09
-7.93499e-09
-1.39556e-10
9.70324e-11
3.17564e-10
-8.46315e-09
-1.44821e-10
8.29041e-09
7.38787e-09
2.1017e-10
-1.27545e-11
-7.58528e-09
-7.98422e-09
8.11585e-09
-1.69103e-11
-1.14713e-10
7.46614e-09
-5.57432e-10
2.31662e-10
-7.14037e-09
-8.15213e-09
4.76428e-10
-2.27613e-10
7.90332e-09
-7.82149e-09
-4.69232e-10
-5.7664e-11
8.34838e-09
3.45741e-10
-8.2422e-09
8.56463e-09
-6.68169e-10
-7.93951e-09
-1.20488e-10
7.57783e-11
-2.28484e-09
5.00951e-09
-5.45435e-09
2.72968e-09
7.85754e-09
-7.45755e-09
8.61614e-11
-4.86155e-10
8.659e-09
4.59621e-10
4.04445e-11
-9.15906e-09
5.3607e-11
-8.35139e-09
-1.17331e-12
8.29895e-09
7.30212e-09
-1.33314e-09
6.77621e-10
-6.64659e-09
7.33433e-09
-9.02495e-09
1.69061e-09
8.34324e-09
-9.76026e-09
1.97767e-09
-5.6065e-10
1.12127e-10
-2.44428e-10
5.98161e-10
7.62779e-09
2.18326e-09
-1.04092e-08
7.3528e-11
1.28206e-08
5.85438e-10
-1.34796e-08
-7.40403e-09
7.57485e-09
-1.70813e-10
-7.09572e-09
2.12775e-09
-2.38274e-09
7.35072e-09
1.82071e-10
-5.0711e-10
8.18258e-09
4.04438e-09
5.05355e-09
-4.37146e-09
-4.72647e-09
7.72423e-09
-7.11626e-09
-5.67636e-10
-4.03249e-11
-8.21077e-09
-3.52179e-10
-5.02145e-10
9.0651e-09
1.06486e-09
-4.15677e-10
7.7224e-09
-8.37159e-09
-1.39361e-08
-1.50504e-08
-8.3362e-09
1.30286e-09
-2.21614e-10
7.25495e-09
1.10631e-08
2.22891e-10
-4.50842e-10
-1.08351e-08
7.66308e-09
-7.61088e-09
-1.01706e-10
4.9499e-11
-8.49081e-09
-3.68645e-10
1.0463e-08
-1.60351e-09
2.14205e-09
-2.42551e-09
-7.07445e-09
7.35791e-09
9.0376e-09
-9.4527e-09
5.11371e-09
-4.69861e-09
-1.24872e-08
-1.66045e-09
1.41476e-08
-1.66748e-08
1.07738e-08
5.90103e-09
-9.25949e-09
1.95071e-09
-4.05137e-10
7.71391e-09
-3.22927e-11
-7.19511e-09
-5.2083e-12
1.44345e-09
-1.72783e-09
7.58649e-09
8.84867e-09
-9.40232e-09
-2.86939e-09
3.42303e-09
-3.79107e-10
-3.9515e-09
4.51616e-09
-1.85558e-10
7.92351e-11
-1.32123e-10
-7.81722e-09
1.30971e-10
-3.66824e-10
8.05308e-09
-7.38554e-09
7.64395e-09
7.28308e-11
-3.31246e-10
-7.69652e-09
-6.76072e-11
3.79033e-11
-3.51998e-09
1.45117e-08
-1.36413e-08
2.64959e-09
-4.45239e-10
7.02778e-11
-4.46484e-09
7.03781e-09
1.47141e-09
-4.59186e-10
1.87453e-10
7.47741e-09
-7.20568e-09
6.27162e-09
-3.74578e-09
-1.07714e-08
8.24557e-09
-9.17394e-09
-5.54641e-09
3.66794e-09
1.10524e-08
1.53262e-09
7.46772e-09
-9.00034e-09
7.89368e-10
-8.85255e-09
7.2733e-11
7.99045e-09
-7.56714e-09
-1.07827e-09
-3.52865e-11
8.68069e-09
-8.40523e-09
1.99277e-09
-5.81945e-10
6.99441e-09
7.56776e-09
-7.50119e-09
-1.32476e-10
6.59021e-11
8.05702e-09
1.33392e-09
-7.85831e-09
-1.32308e-09
9.10954e-09
-7.78646e-09
3.64758e-09
5.87725e-09
-6.70711e-09
-2.81772e-09
-3.32298e-09
3.67478e-09
-1.51485e-09
1.16305e-09
3.1562e-09
-9.73773e-09
-2.51646e-09
9.09799e-09
7.88284e-09
-7.55105e-09
-6.49838e-11
-2.66808e-10
7.47159e-09
-7.37084e-09
-1.00749e-10
-7.36284e-09
-1.88887e-10
7.55173e-09
8.41387e-09
-8.52763e-09
2.2367e-10
-1.09914e-10
-3.02424e-09
1.11349e-09
-1.41223e-09
2.65573e-10
7.06876e-09
1.21932e-09
-2.59014e-09
-1.50322e-09
2.87403e-09
-7.48016e-09
7.37583e-09
2.18638e-10
-1.14304e-10
-8.69456e-09
1.36644e-08
-1.06237e-08
5.65384e-09
8.50003e-09
3.24559e-10
-1.65587e-10
-2.2716e-09
-1.2697e-08
1.14486e-08
-9.03958e-09
9.34563e-10
-3.70725e-10
8.47574e-09
-6.51588e-09
6.0844e-10
-7.59211e-09
1.34995e-08
2.85382e-09
1.04357e-09
-1.0824e-09
-2.815e-09
-7.22552e-09
7.3314e-09
-1.50578e-10
4.47015e-11
-6.39013e-10
-6.71839e-09
-2.8133e-11
-7.06168e-09
-3.01162e-10
7.09656e-11
-1.05666e-10
8.68303e-09
2.47227e-10
-1.88413e-10
-8.74185e-09
9.10925e-09
-8.90987e-09
5.74495e-10
-2.45208e-09
2.73438e-09
9.37018e-10
-7.36972e-09
7.46562e-09
-1.09779e-10
1.38805e-11
-1.42373e-12
-1.21306e-10
8.65136e-09
-8.52863e-09
7.67014e-09
-7.80733e-09
1.37189e-10
-7.16572e-09
9.49841e-09
8.26037e-09
-1.05931e-08
1.63183e-10
7.46956e-09
-7.63275e-09
1.92456e-10
-7.35638e-09
7.16393e-09
-4.21108e-09
-5.42587e-09
5.60115e-09
4.0358e-09
-1.2522e-08
1.13258e-08
1.19621e-09
5.30916e-10
-7.47974e-09
6.94883e-09
-4.69897e-10
9.70469e-09
-1.41914e-08
4.95664e-09
7.83279e-10
-3.53771e-10
-8.99075e-09
8.56124e-09
-8.23439e-09
8.30574e-09
-1.63569e-10
9.22219e-11
-5.70667e-10
8.87962e-09
-6.67068e-11
-8.24225e-09
-5.00477e-11
2.07136e-10
1.19312e-09
-7.67923e-09
-1.28048e-09
7.7666e-09
1.07296e-09
-1.09029e-08
6.99113e-10
9.13081e-09
-2.85869e-10
6.79115e-09
1.60263e-09
-8.10791e-09
-2.08613e-10
2.29851e-10
-1.41948e-09
1.39824e-09
-7.88561e-09
7.11916e-09
-6.39927e-09
-1.2704e-09
-7.09567e-09
7.61768e-09
7.4839e-10
7.81453e-09
-7.46879e-09
8.62195e-09
5.39624e-10
-7.96846e-09
-7.53223e-09
4.73525e-09
1.02551e-08
-7.45807e-09
8.68759e-09
-8.74598e-09
2.02415e-10
-1.44024e-10
-8.99716e-09
1.15135e-09
8.47983e-09
-6.34022e-10
-1.7788e-09
9.14588e-09
8.59347e-10
-8.22643e-09
-7.32401e-09
-3.14653e-11
-1.42524e-11
-7.82976e-09
-6.74339e-10
2.61899e-10
-7.50449e-09
-1.97923e-09
2.24233e-10
1.80128e-10
4.20858e-10
-8.83537e-09
4.82839e-10
8.32293e-09
1.80205e-11
-8.82379e-09
-1.14821e-10
-8.04745e-09
8.16227e-09
-9.46381e-09
9.43066e-10
-3.84702e-10
8.90545e-09
-7.45132e-09
4.37322e-10
-1.19677e-09
4.01921e-10
-3.23208e-09
-1.11927e-10
2.94208e-09
9.04073e-09
-1.34038e-09
-7.70035e-09
-4.51955e-10
2.75464e-09
5.51137e-10
6.76033e-09
-8.50901e-09
2.47257e-09
-7.23891e-10
6.98656e-09
-2.99e-09
-6.2814e-09
-6.75985e-09
5.30637e-10
6.22921e-09
2.1014e-10
7.21447e-09
-7.37029e-09
-5.43215e-11
5.87866e-09
-1.71141e-08
-9.08225e-09
4.38885e-10
4.46116e-10
-1.02798e-09
-6.86945e-09
-4.07804e-10
3.90639e-10
-7.44038e-09
-8.53154e-09
5.50431e-09
3.25788e-09
-2.30648e-10
-1.03655e-10
9.65754e-11
2.06214e-10
-1.99134e-10
1.97732e-09
4.9866e-09
-2.03593e-10
-1.36884e-08
-4.12889e-09
5.82425e-11
-9.16776e-11
-7.246e-09
4.04924e-09
1.41905e-08
-1.09937e-08
5.80283e-09
-1.00733e-08
4.95797e-09
-6.87465e-10
-7.62611e-09
5.89671e-09
-8.25867e-10
-7.70009e-09
1.67284e-09
6.85312e-09
1.067e-09
-2.32737e-09
8.62909e-09
-7.36872e-09
-1.07058e-08
1.2716e-08
2.3817e-09
-4.39194e-09
-1.38602e-09
9.3847e-10
1.15106e-08
1.15549e-09
-1.57157e-09
4.09086e-09
-2.07161e-10
3.38874e-11
2.21607e-09
-1.99724e-09
-9.99859e-10
7.81024e-10
-2.21407e-10
-7.55837e-09
7.77978e-09
-6.60835e-10
1.66808e-10
7.76893e-09
-7.2749e-09
1.17667e-08
-3.2768e-11
-3.11202e-09
-3.91433e-09
-6.25994e-09
6.45532e-10
9.52873e-09
1.96158e-09
7.85123e-09
-2.52352e-09
-7.28929e-09
-3.55399e-09
1.06952e-08
7.32799e-10
-7.874e-09
-9.15706e-09
6.56251e-09
3.66752e-09
1.12171e-08
-1.50917e-09
6.23344e-09
-1.59414e-08
-2.98156e-09
2.21168e-09
-6.45931e-09
7.22919e-09
-1.55791e-11
-1.25188e-09
5.86667e-10
-1.37754e-09
8.63153e-09
-7.84066e-09
8.45782e-09
-1.45314e-10
-8.31251e-09
-8.39671e-09
-3.64309e-09
9.87644e-09
2.16335e-09
-4.35081e-09
-5.95581e-09
6.09554e-09
-8.22867e-09
9.28264e-09
2.13086e-09
-3.18484e-09
-8.68065e-10
-7.88712e-09
8.20423e-10
7.93476e-09
3.04134e-09
-8.08692e-09
5.47879e-09
-4.33207e-10
-8.22123e-09
-1.23287e-09
8.1837e-09
-8.19486e-11
8.10934e-09
-8.02739e-09
3.79005e-09
-9.39755e-09
-3.63112e-09
9.23862e-09
-8.8285e-09
1.59747e-10
9.51941e-10
7.71681e-09
8.69819e-09
-4.49926e-09
-5.24712e-09
1.04819e-09
-1.59859e-09
4.96568e-09
-1.20616e-08
4.79985e-09
-4.93346e-09
-1.09334e-08
1.1067e-08
-6.82505e-09
5.77437e-09
-2.61603e-09
1.79826e-09
-1.55361e-09
-8.48861e-10
6.04205e-10
6.23463e-09
-9.74436e-09
-1.18076e-08
1.53173e-08
6.75084e-09
-2.17993e-09
-7.41106e-09
2.84016e-09
8.29948e-09
-1.77967e-09
-5.41611e-11
-7.53301e-09
7.85275e-09
-7.67619e-09
-7.97642e-10
4.70237e-10
8.00359e-09
-8.80551e-09
-9.67737e-09
1.26911e-08
5.79179e-09
-2.02519e-09
-7.56861e-09
7.67231e-09
1.92149e-09
1.83757e-11
-1.13483e-08
-7.2526e-10
1.20552e-08
8.05596e-09
-8.22565e-09
-1.33223e-10
3.02919e-10
2.3737e-10
-1.87084e-10
-8.07726e-09
8.02697e-09
-8.14823e-09
1.16594e-09
6.31303e-09
6.69255e-10
7.42147e-09
-7.78383e-09
9.15486e-10
-5.53123e-10
8.60486e-11
-1.29167e-10
-3.7844e-09
1.7768e-09
1.33216e-10
-8.2415e-11
-7.27632e-09
-6.30472e-10
2.75124e-10
-1.37584e-09
-4.64056e-11
-7.1093e-09
-2.03323e-09
1.13596e-08
-1.24807e-08
3.15433e-09
-6.73344e-09
-7.04103e-09
6.6582e-09
1.04861e-08
-4.40335e-09
-7.68437e-09
1.60158e-09
8.51711e-10
-1.08772e-09
8.68211e-10
4.38589e-10
-1.01353e-08
1.48935e-08
-1.27517e-08
1.19369e-09
-3.33556e-09
-9.05764e-09
-7.98212e-11
7.55257e-09
1.58489e-09
3.58679e-09
-3.56397e-09
1.63282e-09
-7.61894e-09
-2.24254e-09
7.28758e-10
-9.27732e-10
2.47714e-10
-1.91231e-10
-1.15258e-10
5.87752e-11
1.34808e-09
-1.16636e-09
-3.90333e-10
-4.82423e-11
-1.1986e-10
8.32892e-11
8.48133e-11
-6.81503e-10
4.75975e-10
-5.44754e-09
-9.31104e-09
5.19089e-09
9.56769e-09
8.14202e-11
-8.72332e-09
-1.43143e-09
4.24905e-09
-4.43323e-09
5.61482e-09
-5.43064e-09
7.91413e-09
-7.51774e-09
1.75325e-10
-5.71716e-10
-3.55173e-10
-3.32886e-09
-1.13211e-08
-2.48407e-09
3.24723e-09
1.05579e-08
-8.13047e-09
2.15707e-10
7.08081e-09
-7.94025e-09
4.15042e-10
4.44397e-10
4.73926e-09
-8.30403e-09
8.30002e-09
-1.65982e-09
-1.31403e-09
7.56276e-09
3.82278e-09
-8.27643e-09
8.24371e-09
-9.40736e-09
4.3117e-09
1.08721e-08
-5.77643e-09
-8.59171e-09
2.70287e-09
-2.33239e-09
1.15151e-08
-1.29947e-08
6.27946e-09
-9.51026e-12
7.58966e-09
-7.58015e-09
1.97284e-10
-3.02917e-09
8.41973e-09
-7.92916e-11
-3.47074e-11
-3.12402e-09
2.68652e-09
2.9778e-09
-2.5403e-09
-2.85956e-10
-8.28826e-09
9.60699e-09
-1.03278e-09
-3.26958e-10
5.4778e-11
-7.20798e-09
6.37518e-09
-2.03281e-09
3.2951e-10
-4.67188e-09
5.12517e-09
-4.43003e-09
4.97807e-09
-5.67322e-09
-1.37117e-08
1.54296e-08
-8.23377e-09
-5.61885e-09
5.86456e-09
1.12694e-08
-1.2446e-09
-1.21097e-08
-8.93725e-09
1.05517e-09
-3.84588e-10
8.26667e-09
8.53604e-09
-6.57332e-10
1.55774e-11
-7.89428e-09
-3.07519e-09
-1.12564e-08
4.27532e-09
-4.91134e-09
3.31478e-09
-2.67877e-09
-4.82235e-09
4.03977e-09
-3.03425e-09
3.81683e-09
-3.13475e-10
-8.02307e-09
8.2551e-09
8.14412e-11
-5.01464e-10
-6.90257e-09
8.11608e-09
-2.7476e-09
-3.26567e-10
-5.04192e-09
7.19974e-09
-4.69546e-09
-3.83528e-09
1.33101e-09
9.40885e-09
1.67611e-09
-2.58493e-09
1.09594e-08
3.23615e-09
-6.45206e-09
-7.74352e-09
8.16252e-10
8.62032e-09
1.52285e-09
-5.55591e-09
-2.7005e-10
-1.17006e-09
6.99602e-09
4.49562e-10
-3.7887e-10
-1.4369e-10
7.29982e-11
3.66456e-10
8.26601e-09
-8.04113e-09
-5.9134e-10
9.4431e-11
6.90025e-09
-6.99468e-09
-4.32217e-09
-6.17486e-09
5.82478e-09
-2.38183e-09
4.15754e-09
-7.60049e-09
-1.56151e-09
-1.10991e-08
7.72715e-09
-4.02892e-09
9.11188e-09
1.18866e-09
-9.56337e-09
-1.61931e-09
1.71886e-09
-7.26589e-09
3.12807e-09
3.98767e-09
1.50153e-10
1.01458e-10
-1.37021e-10
1.11103e-08
-1.22736e-08
-1.10835e-09
7.48763e-09
-7.12117e-09
-1.08777e-08
3.12108e-10
1.06689e-08
-9.80632e-10
1.44098e-09
4.54916e-09
7.06562e-09
-6.96589e-09
-1.81726e-10
8.19985e-11
-6.1972e-10
7.10683e-10
-1.90847e-10
9.98847e-11
-1.33203e-10
8.634e-09
-9.94831e-09
-3.59186e-09
4.84151e-09
8.69866e-09
-8.98611e-10
-1.26493e-08
8.5094e-10
7.9198e-09
-8.03555e-09
1.453e-10
-2.95438e-11
-3.51336e-09
3.50125e-09
-3.11191e-09
3.01768e-10
-6.97495e-09
6.67318e-09
-5.01928e-10
5.88168e-10
-4.20163e-10
3.33923e-10
-8.51033e-10
1.00302e-09
-2.76241e-10
1.24252e-10
1.18358e-09
2.32193e-09
-2.25474e-09
-7.89179e-09
7.8246e-09
6.26479e-09
3.6943e-09
-5.83435e-11
-9.90075e-09
-8.61397e-09
-5.81043e-09
7.30283e-09
7.12157e-09
-7.39711e-09
3.44503e-10
-6.23582e-10
3.95756e-09
6.51042e-09
-1.0564e-10
-1.03623e-08
-2.98147e-10
1.4686e-10
-7.67847e-09
-1.42168e-09
1.29955e-09
-2.21559e-09
2.33772e-09
-8.53863e-09
4.81927e-09
-1.51869e-09
5.23805e-09
5.01993e-09
4.36207e-09
-2.20048e-09
-7.18152e-09
7.79537e-09
3.73384e-10
-8.59976e-10
-7.30877e-09
-3.45465e-09
-8.04553e-09
5.71276e-10
1.09289e-08
3.0992e-10
-1.23631e-10
6.14248e-11
-5.70928e-09
-3.13685e-09
4.79984e-09
4.04629e-09
-1.72475e-09
-9.67369e-09
6.67553e-09
4.72292e-09
2.17514e-09
1.62767e-10
8.4256e-09
-8.31091e-09
-1.21338e-10
6.64272e-12
7.23111e-09
-1.49327e-09
-5.32595e-09
-4.11886e-10
1.32603e-09
-1.01418e-08
-1.09935e-09
9.91511e-09
-7.3005e-09
-4.9262e-10
7.97325e-09
5.27308e-10
-1.54724e-10
7.69777e-11
6.68176e-09
-9.80863e-11
-6.62484e-09
4.11588e-11
8.53782e-09
2.11919e-10
-6.21528e-11
-7.08256e-09
-6.1786e-10
7.37619e-09
3.24227e-10
1.16273e-10
-7.36568e-11
8.06714e-09
-8.10976e-09
2.55925e-09
8.46796e-09
-1.25887e-08
-7.83182e-09
4.03391e-09
-2.21628e-09
6.01419e-09
8.68489e-09
-9.85555e-11
4.41482e-11
-8.63048e-09
-9.3861e-09
-1.74342e-09
2.13236e-09
6.80574e-09
1.20727e-10
7.64369e-09
-7.56998e-09
-1.94434e-10
7.7431e-09
-9.81157e-11
1.5038e-10
-5.53901e-09
6.24783e-09
-5.41973e-09
4.71091e-09
-2.21647e-09
9.41725e-09
1.0987e-09
6.95783e-09
-6.85003e-09
-1.79314e-10
7.151e-11
2.49882e-09
7.82299e-09
-7.14164e-09
-3.18017e-09
-4.47241e-09
-1.37702e-09
1.5334e-09
4.31604e-09
-7.72805e-09
7.70213e-09
6.99174e-11
-4.39909e-11
-1.03135e-08
-1.52454e-09
1.0452e-08
5.72229e-11
8.10932e-09
-8.05596e-09
-1.39838e-09
1.34502e-09
8.26743e-11
-1.75086e-10
4.05823e-09
-4.7223e-09
-1.76088e-09
2.42495e-09
1.11031e-10
-2.51382e-10
-1.40236e-08
1.52924e-08
1.88931e-10
-1.23108e-09
1.272e-09
-6.75384e-09
1.4082e-09
7.66756e-09
-7.91381e-09
-6.72885e-09
2.12064e-09
-1.3789e-08
6.6088e-10
-1.5011e-09
1.46293e-08
8.39724e-09
-3.08948e-09
-9.62993e-09
-7.11962e-09
1.4267e-10
-4.35533e-10
7.41248e-09
5.30165e-10
-7.386e-10
8.39073e-09
-8.18229e-09
-1.72607e-09
-7.82285e-09
7.74278e-10
8.77464e-09
6.50894e-11
-1.3404e-10
-5.79725e-09
4.37796e-09
-9.51407e-09
-1.29739e-08
-2.75111e-09
7.13327e-09
-5.50654e-09
2.45517e-09
-5.16082e-09
8.21218e-09
-2.43777e-09
-2.03177e-09
3.04785e-09
7.82714e-09
-3.50101e-09
9.20268e-11
7.81516e-10
2.62747e-09
9.16713e-09
-1.96128e-09
7.89156e-10
-7.99501e-09
-8.44838e-09
8.14474e-09
4.63392e-10
7.48208e-09
-7.59141e-09
1.51944e-10
-4.2615e-11
5.23715e-09
-5.51622e-09
6.58617e-09
-6.3071e-09
-6.40175e-09
4.83716e-09
-3.68122e-09
5.24581e-09
1.11574e-09
7.62168e-11
-1.65745e-09
3.55483e-09
2.16086e-09
-1.15374e-08
8.17231e-09
1.64031e-09
-1.7605e-09
-1.14201e-08
3.9007e-09
-1.87963e-09
-3.53591e-09
-2.48787e-09
-8.43341e-09
1.03643e-08
5.5702e-10
-8.81563e-10
-8.63172e-09
1.53385e-09
7.97943e-09
-1.10589e-10
2.7533e-09
-1.0235e-08
1.56397e-09
-1.89557e-09
1.05666e-08
-7.53934e-10
4.60143e-10
-7.2107e-09
-3.15174e-09
1.096e-08
1.47434e-09
1.90734e-09
7.33066e-09
-8.17313e-09
8.86205e-09
4.34497e-09
-1.23388e-08
-8.39743e-09
2.03786e-09
9.59572e-09
-5.15779e-09
4.64755e-09
-5.42674e-09
5.93697e-09
6.62566e-09
-6.20188e-09
-9.58084e-09
-3.04277e-09
8.66422e-09
6.42639e-09
-2.87427e-10
-6.19756e-09
5.85969e-11
7.57908e-09
-6.79151e-09
1.31579e-09
-2.10336e-09
-1.36595e-09
-1.02819e-08
8.47147e-09
4.19192e-10
-7.82366e-09
-1.37407e-10
5.23326e-11
-1.06157e-10
3.11495e-09
1.38622e-08
-1.69771e-08
-3.52185e-09
-4.22689e-09
1.74596e-09
6.00278e-09
-7.40706e-09
6.46149e-11
4.68154e-12
7.33777e-09
-5.8682e-11
6.57352e-11
-7.33106e-09
-9.9414e-09
-3.54749e-09
1.03371e-08
7.64491e-09
-6.88369e-09
-1.64474e-09
8.83513e-10
-8.05281e-09
1.28009e-09
8.40554e-09
-9.2004e-09
-2.10686e-10
8.74723e-09
6.6386e-10
2.99554e-09
-1.75925e-09
1.86736e-09
-3.10364e-09
2.13471e-09
-9.61061e-09
-1.33886e-09
8.81476e-09
6.82973e-09
-1.82195e-10
3.42326e-11
-9.26698e-10
1.46782e-09
3.04566e-09
-1.01075e-08
2.76707e-09
7.50366e-09
4.84025e-11
-9.33101e-11
-9.24992e-11
1.33969e-09
1.13846e-08
-1.80554e-09
-1.09188e-08
-7.58036e-09
9.62033e-09
8.16226e-09
-1.02022e-08
-4.00816e-09
-4.04158e-09
1.2959e-09
2.50234e-10
7.2767e-09
7.55925e-09
-4.8021e-11
1.07751e-09
-1.02949e-09
-5.34196e-09
4.34828e-09
-4.43218e-09
1.84739e-10
9.04447e-09
-5.44324e-10
-6.08042e-10
5.75348e-10
-1.03977e-09
1.07247e-09
-1.52936e-09
1.01862e-09
-9.40752e-09
9.91826e-09
-4.89477e-09
7.59249e-09
3.74038e-09
-6.4381e-09
-2.93467e-11
-3.6288e-10
4.90604e-11
3.43166e-10
8.85643e-11
-1.71697e-09
1.98152e-09
-3.53114e-10
-2.05879e-09
9.45001e-09
-5.9431e-09
-1.44811e-09
-3.66235e-09
4.32489e-09
4.93404e-09
-5.59657e-09
4.40366e-09
-6.15731e-09
-3.78407e-09
5.53772e-09
3.89271e-09
1.05689e-08
-6.88257e-09
-9.05039e-09
1.0406e-09
-1.26045e-11
2.76533e-11
-4.73163e-09
4.83954e-09
-3.87871e-09
3.7708e-09
-7.07727e-09
-4.8635e-09
-1.15487e-08
-9.92529e-09
8.50614e-09
7.45787e-09
-6.03872e-09
-1.16191e-09
1.09417e-09
-5.40304e-10
-1.04915e-08
-2.07924e-09
-3.2294e-10
-7.55498e-09
7.63739e-09
1.07909e-10
-4.31727e-11
1.96541e-09
7.92704e-09
-1.54921e-09
8.71427e-09
2.30516e-10
-1.04259e-08
1.00245e-08
-2.08264e-09
-5.57647e-09
6.96081e-09
-8.72158e-09
7.33725e-09
3.25035e-09
-6.22469e-09
-3.44246e-09
6.4168e-09
-3.76971e-09
-4.26589e-09
4.52224e-09
-5.16911e-09
7.76306e-10
-1.47954e-09
1.29619e-09
2.71914e-10
-7.6317e-09
7.69781e-10
7.16369e-09
-4.14255e-10
-1.44639e-08
9.43283e-09
5.44531e-09
-1.19217e-08
1.03766e-08
2.88475e-09
4.60851e-09
-1.38292e-08
1.178e-08
-1.90257e-09
2.80069e-10
8.82224e-09
3.89515e-09
1.71991e-09
-2.11381e-09
-7.71883e-09
7.56712e-09
5.46889e-09
-5.31718e-09
1.75209e-09
-1.88852e-09
3.13196e-09
-2.3465e-09
5.83133e-09
-1.25289e-08
-4.3675e-09
-1.11656e-08
-5.0491e-10
4.90605e-09
7.92779e-09
-8.09458e-09
1.22365e-09
-8.33232e-10
1.84926e-10
1.01319e-09
-1.19348e-08
-4.40777e-09
1.53293e-08
6.16747e-09
-5.53332e-09
3.05783e-09
-3.69198e-09
-7.42726e-09
1.25352e-09
-9.71882e-10
7.14562e-09
-4.59463e-10
1.01666e-09
3.86227e-10
-9.43423e-10
-7.73108e-10
-6.93867e-09
7.47203e-09
2.39754e-10
7.13201e-09
-7.79856e-09
-4.84e-09
4.36352e-10
-5.84398e-10
-1.46935e-09
1.61739e-09
-1.156e-08
8.04506e-09
-4.20393e-09
4.7643e-09
1.22836e-09
5.77408e-09
-1.28362e-09
-7.42258e-09
1.27895e-09
1.29568e-08
3.82251e-09
6.18512e-09
4.58653e-09
-6.31223e-09
-4.45942e-09
1.0361e-09
-4.11982e-10
6.0311e-10
-1.22723e-09
-5.86255e-10
-5.15534e-09
-1.92069e-09
7.66229e-09
-7.36613e-10
6.84309e-10
3.38243e-10
-2.85938e-10
3.04691e-09
-8.77997e-11
1.6004e-10
3.08585e-10
-3.80825e-10
4.96197e-10
-7.64075e-09
-1.21057e-10
7.26561e-09
1.31183e-10
7.65818e-09
-8.79221e-09
1.00284e-09
-1.945e-10
2.12069e-09
5.63306e-09
-8.26743e-09
1.37155e-08
9.60619e-09
-9.96803e-09
-2.38926e-09
-3.90547e-09
4.49468e-09
-1.02629e-08
-7.931e-10
9.26987e-10
-5.9335e-10
-3.65414e-09
-7.45854e-09
2.60744e-09
8.50524e-09
6.3687e-09
-6.24184e-09
6.4988e-09
-1.25824e-09
1.13318e-10
-2.14351e-11
6.97993e-09
-9.07376e-09
-5.20667e-09
-2.33452e-09
5.80427e-10
-1.22192e-08
1.2652e-08
4.35109e-10
-8.66026e-10
-8.27328e-10
1.45435e-09
-1.72806e-09
2.02581e-09
7.05286e-09
-4.87452e-09
-2.76459e-09
-6.50684e-09
4.06212e-09
-3.75716e-09
-9.24447e-09
8.66218e-09
-6.50572e-10
6.52817e-09
-6.10927e-09
-1.46101e-09
1.04212e-09
-9.4001e-09
-2.05133e-09
3.01766e-09
8.43376e-09
7.61226e-09
-5.60244e-09
-4.06861e-09
7.64317e-09
6.76503e-09
-7.83468e-09
-6.57352e-09
-8.02017e-10
8.57775e-10
3.79351e-10
7.96873e-09
-8.02772e-09
-2.72663e-10
3.31655e-10
9.16098e-09
-6.01707e-09
1.09837e-08
-6.22794e-09
-1.09431e-08
6.18737e-09
9.44607e-09
-6.26097e-09
8.32623e-09
-1.73253e-09
-7.62074e-09
2.9563e-10
6.61517e-09
-2.09462e-10
2.06833e-11
1.28173e-08
-6.36832e-09
5.1506e-09
-1.15996e-08
-5.0751e-10
7.26544e-10
-3.34753e-09
4.81075e-10
-1.1932e-09
4.05965e-09
8.32943e-09
9.60256e-10
-7.25056e-10
-2.20124e-10
-8.27409e-10
3.1092e-10
-3.10247e-09
9.69837e-10
-2.13369e-09
2.32377e-09
-1.18994e-09
2.67127e-09
1.11394e-08
2.41419e-09
-8.59098e-09
-4.96264e-09
-1.62718e-09
1.81485e-10
9.59043e-09
-1.97068e-09
1.5727e-09
-1.23391e-08
1.13468e-08
7.29768e-09
1.64172e-09
-7.14193e-09
-1.79746e-09
-1.3196e-09
5.60485e-09
-8.37415e-11
-4.57737e-10
1.99033e-10
4.29432e-09
-4.06786e-09
7.34067e-09
7.92255e-09
-1.98569e-09
1.116e-09
-1.45957e-09
1.21814e-09
-2.32477e-09
2.5662e-09
-3.30534e-09
-1.21375e-08
-8.04721e-09
1.45833e-11
-2.92449e-12
-6.85118e-09
-1.34127e-08
1.69586e-08
-1.07698e-08
6.97518e-09
-6.13071e-09
-9.56397e-09
4.30904e-09
6.69114e-09
-1.4362e-09
9.36213e-09
-8.25691e-09
3.73194e-09
-1.68399e-10
9.39036e-09
-1.14486e-08
2.2266e-09
6.77892e-09
-6.69602e-09
-8.28951e-11
-7.30402e-09
-6.09798e-10
-7.95344e-09
2.8821e-09
4.92763e-09
-5.00713e-09
-4.39523e-09
4.47474e-09
2.57223e-10
-4.60833e-10
-7.1935e-09
2.26213e-10
2.17101e-10
7.52542e-09
6.44246e-09
-7.41227e-09
-6.862e-09
4.6522e-09
-4.87567e-09
6.89589e-09
-6.67242e-09
2.30106e-09
9.67995e-09
-3.15586e-09
-8.82515e-09
8.43791e-09
-8.9631e-09
-1.69128e-09
7.79343e-09
-7.75561e-09
9.74744e-10
-1.01257e-09
-1.27671e-08
1.49916e-10
7.61638e-09
-7.63329e-09
2.19427e-09
6.59596e-09
-8.70098e-09
-8.9256e-11
7.95419e-09
4.12634e-09
-7.31622e-09
-2.98853e-10
-8.29452e-09
1.05588e-08
1.87043e-09
8.69225e-09
-1.05627e-08
-1.31119e-09
-6.72518e-09
3.02635e-09
5.01002e-09
-7.71886e-10
-8.31237e-09
9.56068e-09
-1.1799e-09
1.58683e-09
2.25673e-10
-6.326e-10
-2.62136e-10
8.46633e-09
6.89529e-11
-1.01472e-10
5.04888e-10
-4.72369e-10
8.63405e-09
-7.09702e-09
3.36902e-09
6.89157e-09
-1.20379e-09
1.00086e-09
-6.68864e-09
-1.53917e-09
-7.07755e-09
-1.07949e-08
1.42607e-09
1.08943e-08
-5.643e-09
-9.94681e-09
-8.84868e-09
4.65021e-09
-4.10556e-09
-2.3466e-10
7.7431e-09
-7.82088e-09
3.12437e-10
6.42104e-09
-5.56649e-09
1.02849e-08
4.2965e-10
-5.95829e-10
6.94252e-10
-5.28074e-10
5.89513e-09
7.91161e-09
2.94859e-10
2.87581e-10
-8.49405e-09
8.31639e-10
8.08891e-09
-2.58372e-10
-1.61786e-08
-3.09329e-09
1.15502e-08
7.7217e-09
4.23855e-10
-1.13124e-09
-5.11169e-09
8.85364e-09
-9.59379e-10
7.9072e-09
6.69862e-10
1.57652e-09
-1.3867e-09
2.41731e-10
-4.31554e-10
-7.29442e-09
-1.99234e-09
5.63262e-09
-8.92826e-09
-3.35443e-09
7.55107e-09
1.11887e-09
-5.115e-11
-7.50694e-09
-9.64376e-10
7.26654e-09
1.20478e-09
9.2269e-09
-1.17666e-09
4.21229e-10
1.54042e-09
8.85251e-09
-1.10435e-08
7.03611e-10
5.83518e-09
2.87846e-09
4.17163e-09
-3.628e-09
4.10857e-09
1.15559e-09
-8.07092e-09
-7.86926e-09
9.72044e-10
-6.60953e-10
7.15815e-10
3.74788e-10
-1.56929e-09
-6.41645e-09
1.03999e-08
-1.42121e-09
1.23954e-09
1.63602e-09
-8.17585e-09
8.86494e-09
-2.62233e-09
1.24725e-08
7.92734e-09
3.89393e-09
-7.52696e-09
9.88337e-11
7.42503e-09
-4.17824e-11
4.60856e-09
6.08387e-09
-7.1773e-09
-3.51512e-09
-7.99287e-09
7.80926e-10
-4.08794e-10
7.62074e-09
4.26516e-09
7.85554e-09
-1.0035e-08
-2.08573e-09
-1.64215e-09
1.95619e-09
-1.1629e-09
6.92427e-10
7.8711e-09
-3.68119e-09
-7.84522e-09
-6.38563e-10
1.00473e-09
-7.9018e-09
7.53563e-09
1.08173e-08
-7.31247e-09
-7.44265e-09
6.77928e-09
7.97584e-09
9.80386e-10
-1.06154e-09
-1.09457e-09
1.17573e-09
7.26749e-09
3.02507e-10
-1.07321e-09
-2.57684e-09
-8.29913e-09
-5.07072e-09
6.58862e-09
-2.14367e-09
-6.23783e-09
1.44283e-09
-8.14134e-09
-1.77989e-09
1.99713e-09
1.96018e-10
-4.13263e-10
5.86106e-09
-6.37457e-09
-4.36216e-09
1.03378e-09
8.24618e-10
-1.54487e-08
1.35903e-08
5.87549e-09
-5.93072e-09
8.62958e-09
-8.57436e-09
8.12597e-09
1.81932e-09
-3.17267e-09
-3.72157e-09
2.87406e-09
4.02018e-09
-7.28083e-09
-2.31877e-11
-5.28445e-10
-2.25285e-11
3.10992e-10
2.39981e-10
-4.43353e-09
-4.80006e-09
7.6643e-09
-4.98708e-09
-8.54755e-09
6.51859e-09
7.01604e-09
1.7263e-09
7.55201e-09
-7.67808e-09
-1.60023e-09
-3.51555e-09
7.7456e-09
-1.08328e-08
1.37732e-08
-1.0686e-08
7.63441e-09
-9.43876e-10
-2.62795e-09
3.0775e-09
-7.65924e-09
7.20969e-09
7.36838e-09
-7.42189e-09
-2.09909e-10
6.45324e-10
-6.39943e-10
2.04527e-10
7.79939e-09
-1.49259e-11
-5.16703e-09
8.01786e-09
6.88016e-09
-7.45347e-09
-3.34102e-09
4.61862e-09
-2.18297e-09
7.67873e-09
-1.01144e-08
8.32148e-09
1.76964e-10
-3.80328e-10
-2.33734e-09
5.75188e-09
6.2058e-09
-7.93874e-09
2.5842e-09
-1.71918e-09
7.07371e-09
-4.15437e-09
-5.68378e-09
-9.02421e-10
6.5862e-09
-6.83906e-09
-2.40783e-09
4.25981e-09
-6.71216e-09
-9.58465e-09
7.68284e-09
-6.34967e-10
4.94971e-10
7.03157e-09
1.27866e-09
-5.12255e-10
4.57253e-10
1.57425e-08
-1.01509e-08
-6.00592e-09
5.2902e-09
3.95628e-09
-5.3221e-10
9.84877e-10
6.03708e-09
-9.16272e-09
6.30416e-09
-3.17852e-09
7.93665e-11
-5.2375e-11
-8.0742e-09
7.83867e-10
-6.69672e-10
-5.23094e-09
3.66908e-09
5.26251e-09
-3.70065e-09
3.8718e-09
-4.27627e-09
-9.19978e-09
9.60425e-09
2.96148e-10
-3.46648e-10
2.8341e-10
-2.3291e-10
1.04422e-08
1.23783e-08
-1.40587e-08
-8.76174e-09
2.03606e-10
7.99412e-11
-1.76911e-10
-1.06637e-10
-5.59788e-09
4.50497e-09
-1.79758e-08
1.62153e-08
5.7217e-09
-4.7352e-09
-2.97396e-10
-6.89105e-10
-2.12638e-10
-6.75803e-10
6.68317e-10
4.00651e-09
-1.26452e-09
6.92178e-09
-9.66377e-09
-2.42075e-09
1.0493e-08
-7.90379e-09
-1.68409e-10
2.40238e-09
-9.78694e-09
-8.79402e-09
-2.21962e-09
2.47659e-09
2.35435e-10
-4.92406e-10
-8.28475e-09
6.93293e-09
7.62039e-09
-8.37196e-10
4.24549e-10
-7.20775e-09
5.41516e-09
4.23441e-09
-6.08847e-09
-3.56109e-09
-4.92767e-10
9.18083e-10
8.15507e-11
-1.00318e-09
-4.65064e-10
8.4891e-09
-5.07101e-09
3.00294e-09
-6.42222e-09
8.61868e-09
5.78372e-09
-7.98017e-09
-5.55164e-09
-8.47299e-09
-3.6129e-09
3.07939e-09
3.30823e-09
-2.77473e-09
-5.36876e-10
-1.49397e-10
-1.41137e-10
-1.0014e-08
-2.01792e-09
-8.59252e-09
-1.69504e-09
7.23587e-10
7.04857e-09
-2.45693e-09
-9.21844e-10
-3.42065e-09
1.44822e-08
-1.01397e-08
-7.66852e-09
8.92357e-09
-3.94895e-09
1.07679e-08
8.31391e-10
-9.12908e-10
1.0619e-09
1.9956e-09
8.48597e-09
-3.53306e-10
-1.01283e-08
8.77814e-09
-1.01476e-09
9.68335e-09
-2.52294e-09
-7.79538e-09
-4.76706e-10
1.06227e-10
1.33194e-08
5.44994e-09
-1.41608e-08
4.65197e-10
-4.0511e-10
2.36061e-10
7.92768e-09
-9.27658e-09
8.2124e-09
6.49369e-09
-5.42952e-09
-6.17765e-10
5.01528e-10
-1.06366e-09
7.54172e-09
-1.03346e-09
5.35963e-10
-7.04422e-09
4.90087e-09
-1.6131e-09
5.04166e-09
-5.5173e-10
5.68452e-09
-1.52836e-08
-1.08572e-09
8.20465e-09
-3.16041e-09
2.83202e-09
-3.28451e-09
-2.86968e-09
-7.61792e-09
1.96546e-09
8.52214e-09
-3.29376e-09
2.25701e-09
-6.33683e-10
6.95751e-10
-2.71976e-10
3.89416e-09
-6.73906e-09
7.07197e-09
7.54941e-09
-7.88232e-09
-9.72053e-09
1.06175e-08
6.07822e-09
7.02422e-09
-7.00964e-09
1.56479e-08
-1.38456e-08
-1.80228e-09
-2.01976e-09
1.1447e-09
2.17462e-09
-1.05422e-09
1.80646e-09
-4.04034e-09
3.2881e-09
4.21226e-09
-1.09509e-08
8.31134e-09
-6.65397e-09
-4.70183e-09
-7.30357e-09
2.29056e-10
7.95913e-09
-8.17643e-10
-7.37055e-09
2.79432e-09
-2.43562e-09
-2.16608e-09
1.80738e-09
-4.09464e-09
1.04316e-08
-8.06782e-10
4.42168e-10
-2.96338e-10
-8.40568e-09
5.74504e-09
3.5915e-09
-9.30857e-10
3.44285e-09
-5.4653e-09
-3.51087e-09
1.91886e-09
-8.43447e-09
8.78136e-09
4.32308e-09
-5.17709e-09
4.48711e-09
6.65957e-09
-4.09812e-09
-8.25172e-09
8.45535e-09
8.71993e-09
7.49457e-09
-3.74194e-09
3.73707e-09
2.08807e-11
1.37206e-10
-2.76196e-09
4.57329e-09
-5.58103e-09
-2.0505e-09
1.33925e-10
6.08821e-09
3.59946e-09
-9.1662e-10
2.15046e-10
-4.37533e-10
-7.23428e-09
-5.14438e-10
-6.96983e-09
-2.88311e-09
2.44409e-09
-1.32024e-09
8.18808e-10
7.25232e-09
-6.868e-10
2.79661e-09
1.18118e-09
-9.25969e-10
-6.45547e-10
2.0007e-09
2.40573e-09
-3.61712e-09
1.81792e-09
4.8786e-09
9.80599e-09
-9.80954e-09
-8.24817e-09
9.87125e-09
-7.5947e-09
-1.10701e-10
5.24847e-09
-1.2368e-08
1.27075e-08
-3.39492e-10
5.40503e-09
-1.33211e-09
6.22048e-09
-5.58862e-09
4.77317e-09
6.3529e-09
-4.48324e-09
-6.30789e-09
6.65794e-09
-3.34005e-09
3.70142e-09
-3.65641e-09
6.06991e-09
-6.59336e-09
5.23453e-10
-1.38753e-10
5.7144e-10
-6.90356e-09
-2.54175e-10
-1.21139e-08
-6.18901e-09
5.0085e-09
-1.49147e-09
2.67199e-09
2.59694e-09
4.10707e-09
-3.39578e-09
6.09686e-09
-7.84643e-09
-8.74189e-09
-2.56556e-10
1.01724e-09
-1.83172e-09
-1.20529e-09
6.309e-09
-1.00905e-08
6.82279e-09
-2.81303e-09
-8.62237e-09
3.73046e-09
-4.9333e-09
-3.96672e-09
5.16957e-09
3.5757e-09
-5.96108e-09
5.94744e-09
-3.56206e-09
7.32054e-09
-1.40848e-09
2.86607e-09
2.43684e-09
5.97826e-09
-8.28391e-09
-8.18151e-09
9.23416e-09
-1.31479e-09
-1.37783e-10
1.06442e-09
-3.60427e-09
2.67763e-09
7.05064e-09
-2.62858e-10
-8.30845e-09
4.12048e-09
8.40024e-09
-4.82691e-09
-8.56868e-10
1.14819e-09
-7.20132e-09
7.30665e-09
7.05677e-09
-5.18752e-09
-5.79425e-09
2.61426e-09
1.55356e-10
-2.0296e-10
4.76045e-11
9.65529e-09
-6.73572e-09
6.88642e-09
6.93502e-10
2.89494e-09
-1.58774e-09
1.54752e-08
2.58113e-09
-1.2006e-08
-6.05032e-09
1.01719e-08
8.08839e-09
6.16913e-09
-6.04511e-09
9.84326e-10
-1.35724e-09
-1.23788e-08
-1.98394e-09
1.63771e-09
-1.38183e-09
-8.05013e-09
5.2401e-10
-1.72513e-10
7.69863e-09
-7.68666e-09
7.31801e-09
5.991e-09
-3.33659e-09
-1.36053e-08
1.02031e-08
-7.97771e-09
8.21676e-09
-2.32791e-09
-6.89769e-09
-7.10828e-10
4.73884e-09
2.87728e-09
-3.60314e-09
2.53233e-09
-3.48945e-10
-2.71038e-10
2.73335e-10
4.76268e-09
-3.72665e-09
6.89176e-09
2.58506e-09
-1.12072e-08
-7.63721e-11
8.69849e-09
1.07113e-10
3.49203e-09
2.79271e-10
-3.26287e-09
-5.08433e-10
8.29235e-11
-9.13429e-09