/*--------------------------------*- C++ -*----------------------------------*\
  =========                 |
  \\      /  F ield         | OpenFOAM: The Open Source CFD Toolbox
   \\    /   O peration     | Website:  https://openfoam.org
    \\  /    A nd           | Version:  8
     \\/     M anipulation  |
\*---------------------------------------------------------------------------*/
FoamFile
{
    version     2.0;
    format      ascii;
    class       volVectorField;
    location    "1.2";
    object      U;
}
// * * * * * * * * * * * * * * * * * * * * * * * * * * * * * * * * * * * * * //

dimensions      [0 1 -1 0 0 0 0];

internalField   nonuniform List<vector> 
5119
(
(0.000779651 0.00127271 1.34792e-22)
(0.000210189 7.16784e-05 5.94101e-21)
(0.000838436 1.71895e-05 -3.52612e-21)
(0.000583483 0.000774017 -3.77506e-24)
(0.000806915 0.00117965 2.79828e-22)
(0.000868362 0.000138106 1.83412e-21)
(0.000272629 0.000201994 -1.81845e-21)
(3.42905e-05 -4.60622e-06 -8.84986e-23)
(0.000292153 0.000994759 -1.49195e-21)
(0.000849431 0.00137922 1.21418e-22)
(0.000622852 0.000796748 3.39205e-24)
(0.000611555 0.00101486 -4.50392e-22)
(0.000621914 0.00100948 -3.05222e-22)
(0.000689232 0.000471376 1.39594e-21)
(0.000711001 0.0011904 -1.06496e-22)
(0.000612375 0.000960646 0)
(0.000779607 0.00123569 4.05926e-22)
(0.000735638 0.00118033 -1.82096e-22)
(0.000818855 0.00140219 4.24374e-22)
(0.000633727 0.00107445 8.82433e-23)
(0.000641806 0.0010579 3.94003e-22)
(0.00056887 0.00093023 1.0639e-21)
(0.000558867 0.000938033 -2.24379e-22)
(0.000680991 0.00111352 1.63053e-22)
(0.000624376 0.00100343 0)
(0.000852605 0.00136974 9.88644e-22)
(0.000570084 0.000938942 0)
(0.000587142 0.000960089 1.18867e-22)
(0.000603719 0.000986473 4.59587e-22)
(0.00057969 0.000924738 1.42317e-22)
(0.000665684 0.00104824 -4.90856e-22)
(0.000616844 0.00100479 -1.08645e-23)
(0.000584091 0.000936846 7.50159e-22)
(0.000674335 0.00112418 0)
(0.000835372 0.00138146 -1.40358e-22)
(0.000617677 0.000985594 4.52548e-22)
(0.00059075 0.000941255 4.42822e-22)
(0.000601771 0.000959469 5.97434e-23)
(0.000499243 0.000924924 -8.34404e-25)
(0.000569602 0.000927121 1.26834e-21)
(0.000551547 0.000150901 -1.42094e-23)
(0.000704876 0.0012634 -5.73612e-22)
(0.000671978 0.00113698 3.11259e-22)
(0.000589518 0.00102139 0)
(0.000575702 0.000993973 -3.19359e-22)
(0.000580345 0.000165816 -2.77432e-21)
(0.000701052 0.00121567 -1.04222e-21)
(0.000594625 0.00100942 0)
(0.000675285 0.00113601 1.24512e-23)
(0.000666936 0.00115267 -2.90166e-22)
(0.000582631 0.000403474 -2.16682e-21)
(0.000128241 0.000631406 -1.42756e-21)
(0.000927506 6.35305e-05 -7.51786e-22)
(0.000608358 9.28403e-05 2.99222e-21)
(1.77158e-05 0.000428094 -4.25309e-21)
(0.000578967 0.000936427 1.15326e-21)
(0.00066948 0.000772695 4.23074e-24)
(3.72563e-05 -1.11066e-06 1.2445e-21)
(0.00066441 0.00116386 0)
(0.000770063 0.00134739 0)
(0.000490412 0.000932435 -1.94304e-21)
(0.000560614 0.000976523 3.04995e-21)
(0.000590058 0.00102855 0)
(0.000689697 0.001197 1.69908e-21)
(0.000448177 7.70523e-05 1.62558e-21)
(0.000692988 0.00119841 1.19495e-21)
(0.000722175 0.000349606 4.39205e-24)
(0.000854228 0.000578701 1.44723e-21)
(0.000680638 0.00118192 0)
(0.00070097 0.00051001 -4.24264e-22)
(0.000194864 0.000361289 1.12186e-24)
(0.000183251 -1.9705e-05 -6.43778e-21)
(0.000879128 0.000332218 1.97776e-21)
(0.000573573 0.00100362 5.59862e-22)
(0.000608354 0.000988165 -1.92689e-21)
(0.000784391 0.00126656 0)
(0.000313627 0.000109816 1.32578e-21)
(0.00062008 0.000241258 8.20241e-22)
(0.000738734 0.001308 0)
(0.000651602 0.00115894 -1.07147e-21)
(9.65812e-06 0.000717343 0)
(0.000945162 0.00053543 0)
(0.000824544 0.0013743 0)
(0.000586214 0.0012478 3.98902e-23)
(0.000574596 0.000112477 0)
(0.000604729 0.00109012 2.40117e-22)
(0.000747308 -5.64754e-05 3.15772e-21)
(0.000607997 0.00104554 2.6703e-21)
(0.000463222 0.000996633 6.98943e-23)
(0.000486152 0.00104356 0)
(0.000472618 0.0010159 0)
(0.000454758 0.00097968 0)
(3.6557e-05 -9.98917e-07 -2.01161e-21)
(0.000414173 0.000774904 -1.95108e-21)
(0.000565706 0.00100393 0)
(0.000400351 0.000668111 3.30883e-21)
(0.000891865 -3.75567e-05 0)
(0.00056771 0.000997862 2.14021e-21)
(0.000663738 0.000780232 1.99635e-21)
(0.000563675 0.00098959 -2.00794e-22)
(0.000683097 0.00123057 9.31185e-22)
(0.00056998 0.000992099 0)
(0.00142651 0.00098787 -3.4363e-21)
(0.000815934 0.00141039 -6.31385e-22)
(0.000308933 0.000117801 2.87582e-21)
(3.79251e-05 4.90854e-06 1.48082e-21)
(0.000696991 0.00118283 -2.785e-21)
(0.000552812 0.000305714 6.23186e-22)
(0.000807759 0.000577446 1.82392e-22)
(0.000613006 2.72133e-05 0)
(0.000435546 0.00112887 -3.47827e-21)
(3.58465e-05 2.03041e-06 -7.38837e-26)
(0.000239154 -2.75631e-05 1.15038e-21)
(0.000652627 0.00111263 -2.87281e-22)
(0.00031395 0.000166786 5.86897e-21)
(0.000430591 0.000609594 -3.13571e-22)
(0.000501226 0.000793039 -2.48657e-21)
(4.01584e-05 5.43293e-06 -2.77888e-21)
(0.000470994 0.000565991 -5.45565e-21)
(0.000635857 0.00113163 1.72672e-22)
(0.000739295 0.000350844 0)
(0.000680955 0.00116222 -9.39791e-22)
(0.000141787 0.000831563 -6.18768e-22)
(0.000563557 0.000963088 1.76992e-21)
(0.000716987 0.00126267 -2.37623e-21)
(0.000805411 0.0013623 6.72245e-22)
(0.000597728 0.00103855 -5.78628e-24)
(0.000811928 0.00144227 -3.81869e-22)
(0.0006878 0.00116439 6.51771e-22)
(0.000540629 0.000921841 -4.489e-22)
(0.000586305 0.00102491 -1.85651e-21)
(0.000537002 0.000932986 -3.31998e-22)
(0.000722048 0.00123947 -6.93063e-22)
(0.000636879 0.00110158 -6.09159e-22)
(0.000747392 1.3413e-05 -2.09037e-21)
(0.000560524 0.000325988 1.8274e-24)
(0.000599148 0.00112765 0)
(0.00058485 0.00100758 0)
(0.000239516 0.000323617 1.74508e-21)
(0.000683407 0.0011613 0)
(0.000566906 0.000996517 -1.41389e-21)
(0.00054916 0.000980606 4.86722e-22)
(0.000560965 0.000989094 3.85285e-22)
(0.000574387 0.000973098 1.6291e-22)
(0.000611094 0.00104829 5.14656e-22)
(0.000593824 0.0010191 2.20954e-22)
(0.000548732 0.000947477 -1.51206e-22)
(0.000575067 0.000992905 0)
(0.000559547 0.000966964 -1.51891e-22)
(0.000808128 0.00084662 -4.75523e-22)
(0.000536848 0.00101898 0)
(0.000887814 0.000165054 0)
(0.000607144 0.00104157 0)
(0.000376502 0.000766619 3.18924e-21)
(0.000325272 0.000566352 2.95622e-21)
(0.00072012 0.00128771 5.235e-23)
(0.000374549 0.000646706 3.9737e-21)
(0.000845733 3.5227e-05 0)
(0.000272269 0.000262954 1.42084e-21)
(0.000159466 0.000690153 2.88965e-22)
(0.000805875 0.00133072 -1.44107e-21)
(7.05432e-06 1.96362e-06 0)
(0.000138712 0.000263437 -3.10214e-21)
(0.000673669 0.00115121 -1.34615e-21)
(3.81948e-05 3.42014e-06 6.91094e-22)
(0.000942358 0.000253036 3.39032e-21)
(3.50028e-05 0.00019424 -8.51278e-21)
(0.000150707 -1.36961e-05 -2.04338e-21)
(4.16363e-05 -1.30863e-06 2.44877e-21)
(0.000142211 0.000573963 0)
(0.000257263 0.000348507 2.29032e-22)
(0.000764751 0.00130933 6.40711e-22)
(0.000452203 0.000542496 3.11437e-21)
(0.000454857 0.000452215 -3.12022e-22)
(0.000384157 0.000593763 3.20533e-21)
(0.000534303 0.000481824 -3.02452e-21)
(0.00014244 0.000315699 1.72543e-24)
(0.000710445 0.00124093 1.63496e-22)
(3.71548e-05 7.43262e-06 -2.33075e-21)
(0.000731957 0.00129992 3.30171e-22)
(0.000811105 0.000339487 -4.26951e-21)
(0.000707471 0.000379681 0)
(0.000590488 0.00100014 0)
(0.000575148 0.0010165 -1.94607e-21)
(0.000258583 7.43162e-05 -3.78077e-21)
(0.000423204 0.000708154 -5.24254e-22)
(0.000450447 0.000100906 1.55326e-21)
(0.00031097 0.000300321 -1.48991e-21)
(0.000557616 0.000372899 -2.36576e-21)
(0.000256531 0.000183211 -1.5214e-21)
(0.000140881 0.000690426 0)
(0.000544654 0.00104823 -6.11867e-22)
(0.000641748 0.00116038 1.3741e-21)
(0.000505143 0.000530239 2.76437e-21)
(2.61768e-05 -5.28272e-06 0)
(0.000286898 0.000696277 0)
(0.000693148 3.67526e-05 -1.97288e-21)
(0.000671702 0.000387519 7.24709e-21)
(0.000299514 0.000790385 1.44522e-21)
(0.000932297 0.00023254 2.92526e-22)
(0.000135126 -1.3394e-05 -5.42096e-21)
(0.000854537 0.00149971 0)
(4.32748e-05 2.83173e-06 -2.4866e-22)
(0.000687719 0.00121167 -4.35247e-22)
(0.000608881 0.00107611 0)
(0.000645795 0.00113887 3.41396e-22)
(0.000571435 0.000960154 1.56517e-21)
(0.000515387 0.00100768 -4.53605e-21)
(0.000306617 0.000408647 1.09688e-21)
(0.000772834 0.000548254 -6.11743e-21)
(0.000163215 0.00024695 3.0951e-21)
(0.000505384 0.000958836 6.42943e-23)
(0.000924529 0.000268932 -1.76004e-24)
(0.000576117 0.00109227 -2.05483e-21)
(0.00058559 0.000302799 5.7889e-22)
(0.000327779 0.000402393 -1.40851e-21)
(0.000240845 0.000313273 3.82249e-25)
(0.000438193 0.000828963 -1.65706e-21)
(0.000287406 0.00061533 -3.26282e-24)
(0.000329492 0.00028926 1.03293e-21)
(0.000870656 0.00143851 1.49716e-21)
(0.000400494 0.000632947 0)
(3.29132e-05 7.81646e-06 0)
(0.000496821 0.00100011 -1.033e-21)
(0.000432729 0.000604091 -1.56975e-22)
(0.000519484 0.000802756 0)
(0.000240737 0.000103517 -1.41872e-24)
(0.000659188 0.000192305 0)
(0.000741074 0.00129856 0)
(0.000604939 0.00108577 3.10582e-22)
(3.40142e-05 1.80094e-05 -5.49603e-21)
(0.000684638 0.00116733 -6.8794e-22)
(0.00056322 0.000989383 1.04506e-21)
(0.000691884 0.00121077 2.3486e-21)
(0.00077797 0.00134374 0)
(0.00027228 0.000370778 1.24532e-22)
(0.000627091 0.00107847 2.24263e-21)
(0.00054659 0.000928727 0)
(3.75873e-05 0.000390848 4.66257e-22)
(0.000333557 0.000862256 -2.93275e-22)
(0.000427063 0.000577775 -3.46892e-21)
(0.000125485 0.000247524 4.60303e-24)
(0.000398051 0.000714561 6.07108e-23)
(0.00118196 0.00130623 0)
(0.000724908 0.00134903 -1.60944e-21)
(0.00078439 0.00141231 -3.86379e-22)
(0.000696312 0.0011685 -5.35849e-22)
(0.000300754 0.000370365 2.03633e-21)
(0.000549536 0.000945269 4.98419e-22)
(0.000533483 0.000968251 2.19541e-22)
(0.000598859 0.00103015 0)
(0.000842895 0.00142505 0)
(0.000586641 0.00101766 0)
(0.000630715 0.00113648 4.0213e-22)
(0.000595518 0.00103175 -5.64962e-22)
(0.000551066 0.000965585 -1.39415e-21)
(0.000611397 0.0010597 0)
(0.000542474 0.000970004 -2.76754e-22)
(0.000781568 0.00145446 6.32517e-22)
(0.00082167 0.000489452 -1.08355e-21)
(0.000291906 0.000281499 0)
(9.29847e-05 -0.000174403 -9.94934e-22)
(0.001141 0.000883819 0)
(0.000636411 0.00112401 5.99041e-22)
(0.000563298 0.000980429 5.73898e-22)
(0.000577447 0.000997396 3.0936e-22)
(0.000669659 0.00114987 -7.61406e-22)
(0.000560771 0.000987127 0)
(0.00017861 0.000316647 2.3467e-22)
(0.000795522 0.00138366 -8.30524e-22)
(0.000541239 0.000350457 6.47166e-22)
(1.45582e-05 -9.27672e-06 0)
(0.000738212 0.00125502 6.19316e-22)
(0.000692092 0.00123176 2.80096e-21)
(0.000809155 0.00131773 1.10355e-22)
(0.000888834 7.05464e-05 4.27437e-21)
(0.0014901 0.00131886 2.84032e-21)
(0.000583808 0.000923565 0)
(0.000640209 0.00111272 6.51004e-23)
(0.000785697 0.00142845 1.599e-21)
(0.000596517 0.00104985 1.51875e-21)
(0.00054176 0.0010125 -5.5603e-22)
(0.000527583 0.000986921 -7.31464e-22)
(0.00055281 0.00100031 5.09925e-22)
(0.000534768 0.000966471 0)
(0.000645392 0.00111527 -9.02321e-22)
(0.000776651 0.00139805 4.38006e-22)
(0.000579442 0.00107742 0)
(0.00078413 0.00134922 2.96974e-22)
(0.000615203 0.0010708 6.27063e-23)
(0.000624406 0.00110631 -1.48985e-21)
(0.000539822 0.00096565 -4.87492e-22)
(0.000548183 0.000970264 6.62884e-22)
(0.000155593 0.000237244 6.86436e-21)
(0.000720829 0.00129334 1.71233e-22)
(0.000544559 0.00110511 -1.74438e-21)
(0.000616047 0.0010516 0)
(0.000498992 0.00051953 2.88912e-22)
(2.26375e-05 0.0001039 1.83412e-21)
(0.000576389 0.00101179 0)
(0.0013626 0.000267547 0)
(0.000678209 0.00118257 6.62832e-22)
(0.000261866 0.000538313 0)
(0.000868975 9.1946e-05 3.67306e-21)
(0.000464752 0.000535238 0)
(0.000987626 0.00024808 0)
(0.000904092 0.000233134 0)
(0.000613159 0.00106638 1.51284e-22)
(0.000446716 0.000656345 3.68164e-22)
(0.000660123 0.000988999 3.83628e-24)
(0.000623266 0.00105278 -2.2445e-22)
(0.000589605 0.000955997 0)
(0.000570685 0.000937021 9.83056e-22)
(0.000612793 0.000965482 -4.09467e-22)
(0.000778632 0.00132964 0)
(0.000659067 0.00112027 5.17773e-22)
(0.000249794 7.72783e-05 7.87314e-21)
(0.000792626 -0.000183126 2.55839e-21)
(0.000758619 0.00135 -4.96002e-22)
(0.000762342 0.00128867 -9.82416e-22)
(0.000668324 0.000809438 2.01285e-22)
(0.000532543 0.000940279 2.7171e-24)
(0.000675298 0.00108845 -9.77822e-22)
(0.000883172 0.000127291 0)
(0.000393984 0.000744674 -1.66052e-21)
(0.000567156 0.00101367 -4.40572e-22)
(0.000754611 0.000669705 -3.66207e-21)
(0.000687927 0.00121448 -7.61865e-22)
(0.000652561 0.00114942 4.0235e-25)
(6.48384e-05 0.000562777 -3.27605e-21)
(0.000566455 0.000997029 1.02673e-21)
(0.000813621 0.0013706 -1.37064e-21)
(0.000558111 0.00112852 2.12798e-22)
(0.000260456 0.000330818 1.39256e-21)
(0.000882034 2.17153e-05 0)
(0.000754537 0.00121315 2.11899e-22)
(0.000517769 0.000966397 -4.8918e-22)
(0.000664763 0.0012295 1.76431e-21)
(0.000695282 0.00117147 -3.42327e-22)
(0.000804669 0.00125983 -2.64722e-22)
(0.000575998 0.00102506 1.55421e-21)
(0.000625945 0.000989266 4.04454e-22)
(0.000653403 0.000803535 5.47796e-23)
(0.000764114 0.0013413 -5.30339e-22)
(0.000563455 0.000982372 -1.30767e-21)
(0.000544534 0.000879745 -1.65143e-22)
(0.000664633 0.00105011 -6.79841e-22)
(0.000530914 0.000915919 0)
(0.000321737 0.00056719 1.84334e-21)
(0.00027699 0.000646692 0)
(0.000610446 0.00106213 -5.61565e-22)
(0.000580785 0.000917095 -1.5526e-21)
(0.000656525 0.00104189 5.06639e-22)
(0.000737865 0.00112429 -1.33233e-21)
(0.000560803 0.00108976 -9.16059e-22)
(0.000601633 0.00095556 -2.9325e-21)
(0.00064393 0.00101372 0)
(0.000636844 0.00100391 0)
(0.000621713 0.000980225 -3.69026e-22)
(0.000762737 0.00126308 1.65973e-21)
(0.000773223 0.00126886 5.92497e-22)
(0.000575921 0.000938554 -2.62223e-23)
(0.000581561 0.000954013 0)
(0.000553964 0.000929938 9.07055e-22)
(0.000604397 0.000908706 -3.07764e-22)
(0.000597054 0.000980209 -3.87589e-23)
(0.000793066 0.00123057 0)
(0.000567467 0.000907733 4.65178e-22)
(0.000581391 0.000940081 -1.16166e-21)
(0.00059751 0.000964808 6.83048e-22)
(0.000576569 0.000919147 0)
(0.000771428 0.00123235 -4.32166e-22)
(0.000840153 0.00136247 1.75357e-21)
(0.000839103 0.00132301 1.65224e-21)
(0.000510543 0.000695142 -4.08271e-24)
(0.000772556 0.000619973 3.05706e-21)
(0.000600917 0.000426172 2.18205e-21)
(0.000510905 0.000540148 -1.70144e-21)
(0.000669647 0.00119737 3.60601e-22)
(0.000916838 2.53792e-05 1.84533e-21)
(0.000160235 0.000664328 0)
(0.000289255 0.00025549 -1.86279e-21)
(0.000914773 0.0014715 -5.08686e-22)
(0.0007256 0.00124669 3.08531e-22)
(0.000527648 0.000984 0)
(0.00069595 0.0012392 1.5451e-21)
(2.38516e-05 1.51962e-07 -3.73118e-26)
(0.000589719 0.00094488 3.41081e-22)
(0.000658039 0.00104502 3.02169e-22)
(0.000538997 0.000912699 9.6921e-22)
(0.00105157 0.000233096 -3.8614e-21)
(0.000876103 0.000191827 -2.58728e-21)
(0.000668914 0.00121562 -1.17045e-21)
(0.000568596 0.00028731 -5.63423e-22)
(0.000526566 0.000896942 0)
(0.000520815 0.000887495 4.94892e-22)
(0.000542616 0.000863942 8.85287e-23)
(0.000584119 0.000940556 -3.48522e-22)
(0.000567793 0.000914827 -1.71822e-22)
(0.000744122 0.000393592 -2.86001e-21)
(0.000604165 0.00106852 4.67826e-22)
(0.000360711 0.000274203 5.53482e-22)
(1.96748e-05 -7.50453e-06 -6.04599e-25)
(0.000601103 0.00115217 7.21914e-22)
(0.000685509 0.00114868 -1.87461e-21)
(0.00103989 0.00058873 1.47345e-24)
(6.22743e-05 0.000778252 0)
(3.90042e-05 9.62695e-06 1.28953e-21)
(9.16911e-05 0.000515762 0)
(0.000525685 0.00087568 -1.20788e-21)
(0.000456279 0.000973937 0)
(0.000730914 0.00123848 0)
(0.000615879 0.00103025 8.5532e-22)
(0.000571134 0.000975745 0)
(0.000545325 0.000932918 -1.14325e-22)
(0.000555732 0.000950472 1.76485e-22)
(0.000246798 0.00078887 -2.76939e-21)
(0.000576329 0.00103824 -1.48998e-21)
(0.000664236 0.00110558 0)
(0.000749612 0.000285518 4.22955e-21)
(0.000563398 0.00027425 4.82121e-21)
(0.000533988 0.000918845 0)
(0.000446297 0.000551355 3.36767e-21)
(0.000568943 0.000351956 1.55464e-21)
(0.000279791 0.000346516 -4.79674e-22)
(0.00049693 0.000638764 4.04152e-22)
(0.000863035 0.000275892 3.32227e-21)
(0.000562835 0.00100259 6.11382e-22)
(0.000502995 0.00123386 0)
(0.000813199 6.02826e-05 1.413e-21)
(0.000630929 0.00111589 4.44117e-22)
(0.000673409 0.00094783 2.9484e-22)
(0.000719639 0.00118109 -2.89203e-23)
(0.00100692 0.000217002 -4.43749e-21)
(0.000281443 0.00050525 0)
(0.000637462 0.000424631 0)
(0.000539619 0.00106118 -1.21244e-21)
(0.000571675 0.00106734 -2.24924e-21)
(0.00086632 0.000115816 3.67768e-21)
(0.000379107 0.000311178 2.22531e-21)
(-1.12998e-05 0.000696098 2.3957e-22)
(0.000822845 0.000355878 0)
(0.000347001 0.000756262 8.85532e-22)
(0.000505231 0.000927649 0)
(0.000524345 0.000961734 9.31637e-23)
(0.000538837 0.000987885 0)
(0.000514265 0.00094352 0)
(0.000311238 0.00027556 5.40318e-25)
(0.000727537 0.000987955 3.06968e-22)
(0.000712389 0.00124992 2.50396e-22)
(0.00128077 0.000803171 -1.68121e-21)
(3.67016e-05 5.64023e-05 0)
(0.00081989 0.00139204 -1.16256e-21)
(0.000553229 0.00098316 0)
(0.000768108 0.00135601 0)
(0.000744231 0.00130118 -6.95348e-22)
(0.000541286 0.000953755 -1.99976e-23)
(0.000525766 0.00092604 3.24297e-22)
(0.000533252 0.000986348 2.30182e-22)
(0.000548363 0.00101385 -9.37078e-22)
(0.000540574 0.000938316 -1.43862e-21)
(0.00076346 0.00138701 -6.01331e-22)
(0.000564319 0.00100648 -6.95488e-24)
(0.000587687 0.000964603 0)
(0.000320259 0.000384182 -5.12386e-22)
(0.000485172 -0.000130355 2.50397e-21)
(0.0007567 0.00127126 -1.41058e-21)
(0.000610015 0.00105664 -2.25498e-22)
(0.000636065 0.00103228 -4.28569e-22)
(0.000542298 0.000912063 5.15252e-22)
(0.000641247 0.00103607 9.58239e-22)
(0.000708781 0.00113146 4.83854e-22)
(0.00059842 0.000978154 1.28012e-21)
(0.000589329 0.000941943 1.25825e-21)
(0.000618317 0.00102125 0)
(0.000640853 0.000989688 -1.0646e-21)
(0.000592231 0.000979888 0)
(0.000768837 0.00120347 -7.27782e-22)
(0.000796744 0.00124313 5.37378e-22)
(0.000571671 0.000936932 2.24322e-22)
(0.000584078 0.000928952 -5.04626e-22)
(0.000586072 0.000962938 -1.20205e-21)
(0.000554547 0.000894796 7.76391e-22)
(0.000596376 0.000922571 -1.27562e-21)
(0.000784141 0.00123578 -1.39377e-21)
(0.000521328 0.000912048 -1.06816e-23)
(0.000573924 0.000975402 -1.07107e-21)
(0.000558045 0.000949871 -4.19752e-22)
(0.000551066 0.000929166 -6.22857e-22)
(0.000740506 0.00123295 0)
(0.000818815 0.00134243 0)
(0.000827697 0.00130952 0)
(0.000185699 4.65157e-05 4.05944e-24)
(0.00109324 0.000618803 9.12501e-24)
(0.000445687 3.71472e-05 -8.1186e-22)
(0.000658098 0.00118192 -5.76523e-22)
(0.000597141 0.00114106 -1.80266e-23)
(0.000333215 0.000139241 4.96175e-21)
(0.000886579 5.15152e-05 0)
(0.000454968 0.000441001 1.1384e-24)
(0.00117397 0.000369893 3.20437e-21)
(0.000612923 0.000235732 1.82931e-21)
(0.000633604 0.00114925 2.89545e-21)
(3.75427e-05 0.000681758 -3.11082e-21)
(0.000813285 0.000237498 -3.91445e-21)
(0.000646573 0.00118236 0)
(2.24285e-05 0.000546346 0)
(0.000783949 0.00131865 1.33629e-21)
(0.00042313 0.0011572 -1.7641e-21)
(0.000485404 0.000796752 -2.17341e-22)
(0.000459745 0.000783343 -2.05074e-22)
(0.000631503 0.00107333 -7.44816e-23)
(0.00045618 0.000782626 -5.09897e-22)
(0.000648269 0.00114016 0)
(0.000545177 0.000972774 3.7338e-22)
(0.000690272 0.0011874 5.24399e-22)
(0.000310491 0.000610336 2.69419e-21)
(0.000423164 0.000472997 0)
(0.000192095 0.000232586 2.87341e-21)
(0.000399149 0.000556942 6.02462e-21)
(0.000824618 0.00142304 6.02936e-22)
(0.000594714 0.000959168 4.2576e-22)
(2.74345e-05 2.38972e-05 1.09514e-21)
(0.000427 0.00101261 1.85428e-21)
(0.000130023 0.000713253 2.04982e-21)
(0.000820205 0.00147449 -5.02909e-22)
(0.000764203 0.00133056 2.80687e-22)
(0.000678086 0.00114881 1.16174e-23)
(0.00084989 0.000159565 8.62994e-22)
(0.000765828 0.00131692 2.19789e-21)
(0.000753557 0.00136725 -1.62901e-21)
(0.000736042 0.00123322 -1.78314e-22)
(0.000624902 0.00117873 0)
(0.00053313 0.000944224 0)
(0.000648024 0.00115743 3.2257e-22)
(0.000178941 0.000231765 -6.72088e-21)
(0.000840617 1.13194e-05 -4.35229e-21)
(0.000648928 0.00100697 4.45017e-22)
(0.000671956 0.000715243 -1.90749e-21)
(0.000655689 0.00109912 -2.31546e-22)
(0.000509376 0.000909535 -1.78368e-21)
(0.000646064 0.00115728 -5.90472e-22)
(0.000959722 0.00141712 6.52811e-22)
(0.00081468 0.00139234 5.12162e-22)
(0.000834933 0.00138702 0)
(0.000607379 0.00101044 1.65086e-21)
(0.000578477 0.000969717 -2.28558e-21)
(0.00112192 0.000398664 2.45896e-21)
(0.000654423 0.00074686 -1.72013e-21)
(0.000697831 0.00118773 1.31853e-22)
(0.00086112 0.000518206 1.105e-23)
(0.000495492 0.00102839 0)
(0.000632415 0.000182417 0)
(7.7308e-05 -0.000131643 -1.76361e-22)
(0.000841928 9.15393e-06 0)
(0.000582575 0.00104002 -1.86736e-21)
(0.000677204 0.00120701 -4.82623e-23)
(0.000589042 0.00102633 0)
(0.000405017 0.000670164 7.53953e-22)
(0.000535941 0.00089193 0)
(0.000388711 0.00078379 0)
(8.14294e-05 4.38347e-05 0)
(0.000479281 0.000767907 1.88666e-21)
(0.000754037 0.00127092 -8.29465e-25)
(0.00088508 1.9011e-05 -4.32644e-21)
(3.56143e-05 1.05411e-05 -2.63331e-21)
(0.000773705 0.000475182 3.31025e-21)
(0.000677093 0.00123115 -8.92052e-23)
(0.000265647 0.000307378 -1.87091e-21)
(0.00172595 0.000175566 -2.52904e-21)
(9.44485e-05 0.000844481 -9.68303e-22)
(0.000671852 0.00114672 0)
(0.000847603 0.000204766 0)
(0.000867812 7.4248e-05 -3.54348e-21)
(0.000887071 0.000357211 -2.14872e-21)
(0.000723482 0.00122601 -5.90459e-22)
(0.000323927 0.000714586 -1.05937e-21)
(0.000609093 0.000250586 0)
(0.000816548 0.000210781 0)
(2.12964e-05 -1.11837e-05 -2.84809e-21)
(0.000280185 0.00100549 -1.04576e-22)
(0.00026429 0.00095728 3.39629e-23)
(0.000376236 0.00132127 0)
(0.00114768 0.00100136 2.13597e-21)
(0.000741934 0.000554952 -7.63406e-24)
(0.000480383 0.000511494 -1.4719e-21)
(0.000997166 0.00015264 -4.90066e-24)
(0.000786778 -2.54884e-05 -2.08063e-21)
(0.000536063 0.00088347 -7.13915e-24)
(0.000823315 0.00129187 3.76337e-22)
(5.34249e-05 4.66866e-05 5.06689e-25)
(0.000501509 8.08788e-05 -1.21435e-21)
(3.57624e-06 2.87475e-05 -3.09381e-22)
(0.000704847 0.00122044 -3.5687e-22)
(0.000710743 0.000524217 2.60732e-21)
(0.000248122 0.00033174 -1.82522e-21)
(0.000824923 0.00147135 3.01153e-21)
(0.000559528 0.00102306 -4.93728e-22)
(0.000603341 0.00110735 -4.89461e-22)
(0.000587557 0.00107897 -7.04658e-22)
(0.000572483 0.00100418 -8.58298e-22)
(0.000870404 0.0014248 1.79677e-22)
(0.000595223 0.00106979 0)
(0.000801316 0.00134794 -7.51126e-22)
(0.000567797 0.00099884 2.00485e-22)
(0.000511133 0.000967241 0)
(0.0008237 8.38175e-05 4.76785e-21)
(0.00016452 0.000879581 -1.92998e-21)
(0.000174614 0.00020548 4.67377e-21)
(3.15806e-05 -9.73087e-05 2.95655e-21)
(0.000543986 0.00115259 -9.94333e-22)
(0.000844893 0.000205393 0)
(0.000915231 0.000535499 -4.26066e-22)
(0.000622932 0.00114829 1.86376e-21)
(0.00069277 0.00124281 5.21144e-22)
(0.000806708 0.000165565 -1.95148e-24)
(0.000514501 0.00045137 1.86421e-21)
(3.11439e-05 4.92745e-05 0)
(0.000731865 0.00124315 0)
(0.000254372 0.000238125 -3.85466e-21)
(0.000602332 0.000291387 7.76972e-25)
(0.000284949 0.000325686 4.73522e-22)
(0.000476117 0.000737137 -5.40614e-22)
(0.000452256 0.000151835 1.50932e-21)
(0.000694834 0.00124513 0)
(0.000659901 0.00124418 -4.26306e-22)
(0.00131906 0.000785409 0)
(2.63312e-05 5.44606e-05 -9.82698e-21)
(0.000589652 0.000347987 -4.28874e-21)
(0.000626176 0.00031266 5.61347e-22)
(0.000821442 0.000200014 -1.80038e-21)
(3.56496e-05 0.000484688 4.07343e-21)
(0.000527825 0.00104473 4.12339e-22)
(0.000646226 0.00110815 1.30803e-23)
(0.000599738 0.00104813 -3.53665e-22)
(0.000981715 0.000414364 7.84628e-21)
(0.00048789 0.00101298 -1.38508e-21)
(0.000771844 0.00137974 -2.06136e-22)
(0.000558366 0.00101225 0)
(0.000616351 0.00111561 0)
(0.000778017 0.00138323 8.36097e-22)
(0.000533134 0.000961145 -4.21476e-22)
(0.000548178 0.000987629 -4.26228e-22)
(0.00055963 0.0010243 0)
(0.000521446 0.000953628 1.81269e-22)
(0.000618725 0.00113499 0)
(0.000522195 0.00094333 0)
(0.000777696 0.00138361 -9.85693e-22)
(0.000439632 0.000464086 -1.14971e-21)
(0.000615422 0.00109988 1.83174e-21)
(0.000298718 0.000669481 -1.82817e-21)
(0.000732524 0.00139469 1.04958e-22)
(0.000756852 4.93648e-05 1.84428e-21)
(0.000845564 0.000217077 1.64524e-21)
(0.000360465 0.000607467 3.07774e-21)
(0.000245776 4.88933e-05 0)
(1.95613e-06 0.000158571 -6.34869e-21)
(0.000643223 0.00123274 1.08741e-23)
(0.000829358 0.000284306 -2.00844e-21)
(3.45513e-05 6.86608e-06 -2.9528e-21)
(0.000567601 0.00101831 1.70559e-21)
(0.000570724 0.00102151 2.49698e-22)
(0.000491784 0.000988191 0)
(0.000655186 0.00119164 -2.67092e-21)
(0.000575629 -9.09341e-05 -6.82505e-21)
(0.000676403 0.00126059 5.05104e-22)
(0.000202223 0.000759061 0)
(1.11764e-05 0.000196286 -3.64992e-25)
(0.000772197 0.000691198 -2.32363e-22)
(0.00084308 0.00146869 0)
(0.000606518 0.0010729 2.04543e-22)
(0.000887907 4.19571e-05 0)
(5.67915e-06 0.000221378 2.41326e-21)
(2.38729e-05 0.00101323 -2.01498e-21)
(0.000116377 0.00064197 2.1825e-21)
(0.000624499 -0.000100744 2.83175e-21)
(0.000698328 0.00119346 -1.32863e-21)
(0.000152974 0.000310191 0)
(0.000553391 0.000154987 -9.40324e-22)
(0.000888358 0.000626382 -1.80944e-21)
(0.000786584 0.00132717 0)
(0.0006973 0.00116884 3.89178e-22)
(0.000608085 0.00102888 -9.64453e-22)
(0.000645663 0.00106587 0)
(0.000532738 0.00093973 -1.27288e-23)
(0.00049769 0.00019456 8.78652e-22)
(0.000345397 0.000653069 7.35378e-23)
(0.000330977 0.00062494 1.31018e-23)
(0.000465961 0.000871929 9.15407e-23)
(0.000668227 0.00122492 1.39913e-21)
(0.000886932 0.000191497 0)
(0.000852515 6.51728e-05 2.00772e-21)
(0.00055446 0.000976814 -9.42975e-22)
(0.000204961 0.000285166 -3.18107e-21)
(0.000515264 0.000926305 0)
(0.000391843 0.000654794 1.81076e-23)
(0.000447275 0.000749556 2.04624e-23)
(0.000693994 7.55347e-05 3.97988e-24)
(0.000618995 0.0011135 -2.50014e-22)
(0.000589933 0.00108848 4.82612e-22)
(0.000591462 0.00107557 -1.42371e-21)
(0.000514457 0.000949253 0)
(0.000519807 0.000938083 6.251e-22)
(0.000569986 0.000959882 0)
(0.000521873 0.000660117 -7.02999e-25)
(0.000540771 0.000925535 0)
(2.74931e-05 0.000175967 -4.53031e-25)
(0.000598484 0.000178644 4.56553e-22)
(0.000455851 0.000527197 -1.57994e-21)
(9.8139e-05 4.916e-05 0)
(0.000884897 0.000287344 0)
(0.00043222 5.68234e-05 -8.36456e-24)
(0.000607456 0.000746659 2.2093e-21)
(0.000968775 0.000562376 8.57822e-22)
(0.000608402 0.00102694 -2.69629e-22)
(0.000413935 0.000454364 9.70173e-22)
(0.000603128 0.00116379 -3.3145e-21)
(0.000676415 0.00122441 -3.27831e-22)
(0.000596355 0.00115361 2.32227e-21)
(0.000519335 0.000179826 0)
(0.000828592 0.000433677 -6.61289e-22)
(0.000630889 0.00102135 1.26599e-23)
(0.000287046 0.000302823 0)
(0.000570248 0.00100976 -6.9781e-22)
(0.000466178 0.000559007 -6.75141e-21)
(0.000164206 0.000189913 2.47847e-21)
(0.000816178 0.00143749 1.71939e-22)
(0.000782132 0.000652547 -2.57062e-21)
(0.000450914 0.00102062 7.81288e-22)
(0.0010539 1.8027e-05 -2.36341e-21)
(0.000657098 0.000534915 1.52319e-21)
(0.000812457 0.00133718 -1.07772e-22)
(0.00048519 0.000575343 7.12421e-25)
(0.00115441 0.000382048 -7.01983e-22)
(0.000398471 0.000324814 1.79071e-21)
(0.000298463 0.000536882 1.21658e-23)
(0.000304463 0.000547623 1.23935e-23)
(0.000313091 0.000563062 1.27361e-23)
(0.000377302 0.000677721 -9.07686e-23)
(0.000293178 0.000527463 4.43103e-23)
(0.000177706 0.000181723 0)
(0.000724141 0.000516005 0)
(0.000568619 0.00102535 -2.55726e-21)
(0.000832093 2.49852e-05 0)
(0.000171091 3.11237e-05 2.54859e-21)
(2.12807e-05 6.26444e-05 4.60444e-21)
(0.000496812 0.000381645 -1.84736e-21)
(0.000406998 0.000627824 3.01992e-21)
(0.00111634 0.000673447 4.70057e-21)
(0.000572104 0.00103655 6.20214e-22)
(0.000579906 0.000999546 -1.26579e-21)
(0.000587024 0.00106256 3.14561e-22)
(0.000672535 0.00111202 -1.40027e-21)
(0.0008346 0.00148427 0)
(0.000612373 0.0010464 3.49996e-22)
(7.15516e-05 5.03831e-05 2.62128e-21)
(0.0008693 0.000295217 2.1752e-21)
(0.000477372 0.00096155 -1.26854e-21)
(0.000515825 0.00101081 -9.71336e-22)
(0.000594253 0.00113216 -4.46662e-22)
(0.000532922 0.000938629 4.96497e-22)
(0.000489718 0.000923031 5.42819e-22)
(0.000483277 0.000932488 1.22425e-21)
(0.000541525 0.00108329 1.36345e-23)
(0.000434437 0.000896655 0)
(0.000558503 0.00107888 -9.2592e-22)
(0.000494486 0.000968443 7.88573e-22)
(0.000532754 0.00114418 -5.963e-22)
(0.000595799 0.00118148 -9.38337e-22)
(0.000442782 0.000880547 -2.78418e-22)
(0.000421483 0.000877868 5.82456e-22)
(0.000605317 0.00119091 0)
(0.000388903 0.000838337 -1.27294e-21)
(0.000466969 0.000876653 3.17859e-22)
(0.000479723 0.000900243 6.0125e-22)
(0.000572357 0.00111295 -2.60705e-22)
(0.000455764 0.000903035 -2.46364e-22)
(0.000475752 0.000938718 0)
(0.000463077 0.000913844 5.01033e-22)
(0.000480551 0.000917858 0)
(0.000450252 0.000864772 2.6344e-23)
(0.000613662 0.00120569 -1.80878e-23)
(0.000646221 0.00125915 1.83322e-23)
(0.000670547 0.00129315 0)
(0.000464959 0.000944315 4.42709e-21)
(0.000672672 0.00131637 8.93639e-22)
(0.000731704 0.00133562 -2.83123e-21)
(0.000437171 0.000894409 -1.09001e-21)
(0.000465399 0.00088218 0)
(0.000514042 0.000992639 -1.0178e-21)
(0.000559812 0.00113588 5.37551e-22)
(0.000512079 0.000928163 0)
(0.000863275 0.000137654 -1.61574e-21)
(0.000738736 0.00121715 3.07039e-22)
(2.68583e-05 8.03485e-06 1.50618e-21)
(0.000715617 0.00128513 -2.24122e-22)
(0.000905113 -1.40878e-05 -1.89398e-21)
(4.50154e-05 2.22038e-06 3.19055e-21)
(4.10527e-05 -2.98729e-06 0)
(0.000121349 0.000289901 1.67639e-21)
(0.00055634 0.000976634 -5.40774e-22)
(0.000574591 0.00104179 0)
(0.000649168 0.00111031 -2.58965e-21)
(1.5254e-05 5.32468e-05 -2.88539e-21)
(0.000225775 0.000482248 0)
(8.2994e-06 -9.93769e-06 -2.56498e-21)
(0.000740265 0.000141959 2.2502e-21)
(0.000822791 2.6232e-05 -8.31767e-22)
(0.000614701 0.0010299 2.07148e-21)
(0.000364278 0.000987805 -8.26413e-22)
(0.000271494 0.000396331 -1.40545e-22)
(0.000431791 0.00085967 2.28543e-21)
(0.00020076 0.000560874 -2.29432e-21)
(0.00106086 0.000435425 1.0411e-22)
(0.000157796 0.000807213 2.30072e-21)
(0.000805829 0.000332917 1.08328e-21)
(7.38402e-05 4.1778e-05 4.69797e-21)
(0.00100355 0.000157701 5.23921e-21)
(0.000592102 0.00105971 -1.93291e-23)
(0.000586993 0.000256899 -2.90522e-21)
(0.00104737 0.000252255 4.69703e-24)