/*--------------------------------*- C++ -*----------------------------------*\
  =========                 |
  \\      /  F ield         | OpenFOAM: The Open Source CFD Toolbox
   \\    /   O peration     | Website:  https://openfoam.org
    \\  /    A nd           | Version:  8
     \\/     M anipulation  |
\*---------------------------------------------------------------------------*/
FoamFile
{
    version     2.0;
    format      ascii;
    class       volVectorField;
    location    "1.2";
    object      U;
}
// * * * * * * * * * * * * * * * * * * * * * * * * * * * * * * * * * * * * * //

dimensions      [0 1 -1 0 0 0 0];

internalField   nonuniform List<vector> 
5756
(
(0.00337912 0.00695412 0)
(0.00489696 0.00863414 2.5323e-23)
(0.00508349 0.00888901 -2.17851e-21)
(0.00505734 0.00886894 -1.05651e-21)
(0.00510701 0.00890082 0)
(0.00499602 0.0087299 -1.07599e-21)
(0.0050939 0.0088925 2.39755e-21)
(0.00503143 0.00876589 1.18666e-21)
(0.00511938 0.00890761 7.23136e-23)
(0.0051123 0.00890308 0)
(0.00504929 0.00878182 7.17344e-23)
(0.00512927 0.00891354 0)
(0.00512286 0.00890887 -1.57584e-21)
(0.00506048 0.00879079 5.0647e-23)
(0.0051333 0.00891537 1.84739e-21)
(0.00488526 0.00865356 1.2484e-21)
(0.00507146 0.008798 3.71042e-21)
(0.00513981 0.00892103 2.38091e-23)
(0.000763857 -3.15945e-05 1.84595e-20)
(0.00496016 0.00924956 -2.14807e-23)
(0.00514308 0.00892271 7.4155e-23)
(0.00507923 0.00880518 0)
(0.00514578 0.00892554 2.03007e-21)
(0.00514638 0.00892541 0)
(0.0050817 0.00881083 2.24387e-21)
(0.00514553 0.0089233 0)
(0.000651427 -4.32328e-05 2.09531e-20)
(0.00077047 -4.7197e-05 -2.78384e-20)
(0.00508183 0.00881287 2.46978e-21)
(0.0051456 0.00892505 2.41845e-21)
(0.000775197 1.37334e-05 4.50445e-21)
(0.0051461 0.0089208 -2.65036e-21)
(0.00298813 0.00527336 0)
(0.00508519 0.00881278 -2.78609e-21)
(0.00524833 0.0093963 2.65365e-21)
(0.000785634 2.6608e-05 0)
(0.000599193 1.01988e-06 -8.47859e-21)
(0.0051451 0.00892154 2.67935e-21)
(0.000435048 -0.000318297 2.47214e-20)
(0.00514822 0.00892118 -5.87491e-21)
(0.00083584 4.8025e-05 -3.27464e-20)
(0.00508873 0.00881648 3.02563e-21)
(0.000755314 -2.11051e-05 6.32522e-20)
(7.04095e-05 0.000168293 -3.20529e-20)
(0.00514729 0.00892129 2.51433e-23)
(0.00055038 -4.28017e-05 7.61861e-21)
(0.000636749 0.0010338 0)
(0.00515387 0.00892753 6.83716e-21)
(0.00487318 0.00868595 3.18287e-23)
(0.00531911 0.00921984 7.06286e-21)
(0.0047899 0.00942399 1.20314e-20)
(0.00509544 0.00882366 0)
(0.00515257 0.00892766 -6.80106e-21)
(0.00515485 0.00892659 -3.79567e-21)
(0.00509163 0.00882106 -3.17422e-21)
(0.00405802 0.00877659 -1.15818e-20)
(0.00509473 0.00882346 0)
(0.000849911 0.000105714 6.69603e-21)
(0.00443339 0.0100248 2.11563e-20)
(0.000207791 -0.000233272 2.29999e-20)
(0.00509313 0.00882384 3.36125e-21)
(0.000203875 0.000628557 -1.32705e-21)
(0.000751321 6.68737e-05 -7.85855e-21)
(0.00389794 0.00913706 0)
(0.00515072 0.00892433 0)
(0.00515466 0.00892759 7.42047e-21)
(0.00207748 0.000471448 0)
(0.00478316 0.00892319 2.42185e-22)
(0.00447318 0.00790671 -1.75941e-20)
(0.00509088 0.00882202 -7.80031e-23)
(0.00124852 0.000300686 -3.12913e-20)
(0.00072794 3.5346e-05 0)
(0.00355337 0.00620239 6.25081e-22)
(0.00514711 0.00892325 0)
(0.00455679 0.00873656 4.74134e-20)
(0.00493419 0.00880212 5.19531e-22)
(0.00515216 0.00892528 3.97633e-21)
(0.00509002 0.00882299 -8.26249e-21)
(0.000124749 0.000412733 -5.26481e-20)
(0.00469232 0.00879041 0)
(0.0055624 0.00915132 4.67573e-21)
(4.11832e-05 7.18348e-05 8.09146e-21)
(0.00542672 0.00928961 -9.94016e-21)
(0.00514937 0.00892106 -4.37062e-21)
(0.00514724 0.00892413 0)
(0.00487018 0.00865028 -5.21552e-22)
(0.00509507 0.00882574 1.99015e-23)
(0.000681844 -1.58638e-05 4.15826e-21)
(2.09491e-05 -2.52315e-05 2.18555e-20)
(0.00360851 0.00577294 -3.10382e-20)
(0.00375682 0.00806619 1.00389e-23)
(0.00514773 0.00892207 4.45356e-21)
(0.0050978 0.00882718 4.64944e-21)
(0.0013769 0.00239474 4.21835e-22)
(0.00508996 0.0088176 0)
(0.00509177 0.00882155 0)
(0.00347024 0.00612076 -1.44117e-21)
(0.00509854 0.00882728 4.8299e-21)
(0.00530075 0.000657828 0)
(0.00509632 0.00882598 -4.68205e-21)
(0.00509793 0.00882653 0)
(0.00509831 0.00882658 -5.02601e-21)
(0.00509826 0.00882756 -1.02079e-20)
(0.00514946 0.00892344 3.05969e-21)
(0.000669885 2.53355e-05 -1.05344e-20)
(0.00483853 0.0090593 -7.86335e-22)
(0.00438795 0.00777163 -1.92368e-22)
(0.00509675 0.00882934 0)
(0.00509591 0.00882922 0)
(0.00480656 0.00897464 0)
(0.00515054 0.00892565 -3.33309e-21)
(0.000470054 3.78177e-05 1.09685e-20)
(0.000648332 3.57182e-05 -5.20922e-21)
(0.00075162 -9.83203e-05 0)
(0.00491464 0.00869391 1.63931e-20)
(7.03359e-05 1.95787e-06 -1.0224e-20)
(0.00483002 0.0094195 6.18642e-23)
(4.9346e-05 -5.62055e-05 1.56819e-24)
(4.84906e-05 -4.21642e-06 0)
(0.00539073 0.00917323 -1.28786e-22)
(0.00451966 0.00786084 -1.68409e-20)
(0.00491544 0.00947959 0)
(5.65791e-05 -8.79569e-06 0)
(0.00327729 0.00566073 0)
(0.00508863 0.00875132 0)
(6.09229e-05 -1.65401e-05 1.11486e-20)
(0.00482157 0.00900696 1.42686e-21)
(0.00326937 0.00564909 -7.29479e-21)
(0.00442061 0.00794616 4.09874e-22)
(0.00189908 0.00336127 -6.73204e-24)
(0.00104767 0.000138413 8.31789e-21)
(4.08106e-05 -8.47108e-06 4.04737e-21)
(0.00477632 0.00858095 0)
(0.000770091 -1.30276e-05 -1.90481e-20)
(0.00529915 0.00906672 -4.13209e-23)
(0.00323638 0.00559767 4.3739e-21)
(3.86429e-05 5.25157e-05 0)
(9.10128e-05 -0.000141909 -2.58555e-20)
(0.000432429 -8.49649e-05 -5.87713e-21)
(3.56232e-05 -1.04829e-05 -5.47928e-21)
(0.00322037 0.00557023 -2.05669e-21)
(0.000714131 -4.79759e-05 0)
(0.000709912 -2.69377e-05 2.07569e-20)
(0.00538504 0.00914438 -7.37245e-23)
(0.00504671 0.00880197 1.26836e-20)
(2.58436e-05 -1.35985e-05 8.22484e-21)
(0.00478479 0.00867915 6.03604e-20)
(0.00477416 0.00856088 5.5462e-23)
(0.00321057 0.00554967 2.02619e-21)
(6.2701e-05 1.21138e-05 -8.40881e-26)
(0.000685031 3.61655e-05 9.41952e-21)
(0.00458195 0.00943199 0)
(0.00320039 0.00553012 1.88561e-21)
(0.00468982 0.0074552 -2.30819e-20)
(0.00460338 0.00818568 -5.55892e-22)
(0.000745914 0.00352739 0)
(0.00319891 0.00552967 5.40608e-21)
(8.4145e-05 2.48784e-05 0)
(0.000825069 3.49838e-05 -3.89112e-20)
(0.00507935 0.00869801 1.62667e-20)
(0.00033183 -9.85873e-05 6.21211e-20)
(0.00540509 0.00910492 1.56926e-20)
(0.0039702 0.00754301 0)
(0.000353738 0.00024216 8.64176e-21)
(0.00417388 0.00797093 -2.17135e-20)
(0.00499071 0.00926043 1.12737e-22)
(0.000345756 6.78013e-05 -1.50144e-20)
(0.000702336 -2.917e-05 0)
(0.00459419 0.00870732 -4.7639e-22)
(0.000404424 0.00027307 -1.8638e-20)
(7.36261e-05 3.84802e-05 1.04976e-20)
(0.000310673 3.89144e-05 0)
(0.00491942 0.00851754 0)
(0.00530177 0.00905725 0)
(7.12722e-05 1.7077e-05 -5.24745e-21)
(0.000742599 1.51932e-05 3.78762e-20)
(0.00487608 0.00925935 3.03544e-23)
(0.00055203 9.1658e-06 0)
(0.0048959 0.00880121 -7.323e-22)
(0.000672841 3.51895e-05 7.80264e-20)
(0.000702183 0.00054156 1.89058e-20)
(0.000623022 0.000212075 -3.69503e-22)
(0.00537897 0.0091153 0)
(0.00499424 0.00761295 -4.7823e-23)
(0.00162228 0.000539856 9.78195e-22)
(0.000659387 1.13218e-05 -1.52893e-23)
(0.00462238 0.00819269 0)
(0.000637903 5.03693e-05 0)
(0.0044057 0.00764614 -1.00272e-20)
(9.72596e-05 6.57064e-06 1.59962e-20)
(0.00529237 0.0090713 1.64411e-20)
(0.000733269 -8.74061e-06 3.46258e-20)
(0.000699468 -5.71605e-07 2.93156e-20)
(0.000678157 -1.51482e-05 4.01673e-20)
(4.4206e-05 2.07107e-05 5.57789e-21)
(0.00441988 0.00764196 2.89578e-20)
(0.000700234 4.29676e-05 0)
(0.0002659 0.000249916 1.76801e-21)
(0.00440427 0.00764373 1.00005e-20)
(0.00507711 0.00868247 -1.5761e-20)
(0.00466072 0.00825669 2.02518e-23)
(5.21814e-05 -2.08757e-05 1.62646e-20)
(5.25834e-05 -7.52682e-06 0)
(4.00585e-05 -5.62668e-05 1.63376e-20)
(0.000682534 4.00642e-05 -1.48431e-20)
(0.000336637 0.00240425 -2.77446e-22)
(5.1117e-05 1.47522e-05 5.28867e-21)
(0.000704524 4.84141e-05 -8.7555e-21)
(0.000673254 0.00026042 0)
(0.000875451 5.19645e-05 8.44295e-21)
(0.00515129 0.00892086 -4.59827e-21)
(4.92638e-05 2.84974e-05 3.11583e-25)
(0.00438499 0.00759051 5.70086e-21)
(0.00506163 0.00905598 5.59067e-22)
(9.09784e-06 -5.2427e-05 0)
(0.000394236 0.000194265 1.02946e-20)
(0.00535333 0.00805044 2.85841e-20)
(2.38675e-06 4.1847e-05 -2.09723e-20)
(0.00539712 0.009197 1.62835e-20)
(0.000489287 -9.67457e-05 2.3151e-20)
(7.60898e-05 3.23551e-06 1.05425e-20)
(0.00491448 0.00873731 -2.65235e-22)
(0.00485635 0.0074354 2.76128e-20)
(0.00507819 0.0086844 1.53778e-20)
(6.87828e-06 -6.78553e-05 0)
(6.77834e-06 -3.38118e-05 0)
(0.00507773 0.00868485 1.54186e-20)
(0.00466977 0.00824423 -1.36779e-21)
(0.000357518 0.000322701 4.787e-21)
(0.000473617 9.48233e-05 -5.3047e-21)
(0.000712882 3.5617e-05 -1.80282e-20)
(4.20735e-06 2.87116e-05 2.02654e-20)
(0.000399982 8.46827e-06 0)
(0.00490192 0.00849353 3.40216e-21)
(0.004386 0.00759002 8.03622e-21)
(0.00490443 0.00849426 0)
(0.00505238 0.00910392 -4.1177e-23)
(0.000920273 6.95326e-05 1.00547e-20)
(0.00100993 3.61022e-05 1.25832e-21)
(0.000627939 0.000596136 -1.70972e-20)
(4.901e-06 7.40534e-05 1.57158e-20)
(-1.38638e-05 0.000553363 2.2977e-20)
(0.00495422 0.00880608 2.29528e-23)
(1.48357e-05 -0.000142555 2.80674e-20)
(0.00528156 0.00907955 -1.14287e-22)
(5.16309e-06 -0.000264755 0)
(4.74986e-06 0.000117443 2.16841e-21)
(0.000775895 3.08672e-06 1.15448e-21)
(1.51387e-05 0.000149038 1.52301e-20)
(0.000688733 -8.71845e-05 0)
(0.000701248 3.515e-05 -6.05597e-20)
(0.000357447 -1.9681e-05 0)
(7.18474e-05 0.000219836 2.17466e-20)
(1.78124e-05 0.000233284 0)
(2.94804e-05 0.000464349 -2.76175e-20)
(0.00467634 0.00823375 1.57756e-21)
(0.00025027 0.000127062 3.12326e-21)
(0.000242847 6.46197e-06 -3.19625e-20)
(4.1409e-06 5.53729e-05 0)
(-2.7684e-06 0.000336858 -3.05334e-20)
(0.000308674 0.000289253 -5.96961e-22)
(0.00490915 0.00878546 -1.3879e-22)
(1.31237e-05 -0.000103773 -8.76663e-21)
(0.00515238 0.0089212 -9.42245e-21)
(0.000732664 0.000253059 0)
(0.000803962 5.29924e-05 0)
(0.00497487 0.00879867 -7.53341e-22)
(0.000548523 1.78567e-05 0)
(1.35917e-05 -0.000193734 -1.36409e-20)
(0.000682373 1.37447e-06 0)
(0.000297188 -3.23632e-05 -5.6571e-20)
(0.00235227 0.000805389 -1.07017e-20)
(0.00504017 0.00914364 0)
(3.09887e-06 0.000175491 1.47392e-20)
(2.31991e-05 0.000283826 1.09402e-20)
(0.00468414 0.00823191 9.72243e-22)
(0.00507563 0.00868268 -1.24268e-22)
(0.000886778 3.41828e-05 -1.18774e-21)
(7.25785e-05 -1.72455e-06 0)
(0.000696522 1.99257e-05 1.80445e-20)
(0.000946408 4.21817e-05 0)
(2.00557e-05 0.000401521 5.95686e-20)
(0.000427152 7.84749e-05 -4.91432e-21)
(6.02134e-05 -2.42188e-06 0)
(0.000800192 -4.19669e-05 -3.06901e-20)
(0.0014091 0.000172188 0)
(-6.48833e-07 8.5357e-05 0)
(0.00533496 0.00802717 -2.7729e-20)
(0.00488785 0.00888734 -2.94948e-22)
(0.00473282 0.00829906 -1.03599e-21)
(0.00507343 0.00867631 -7.66423e-23)
(0.00530123 0.00904156 0)
(0.000301897 0.00038396 2.09511e-20)
(0.000770973 0.00050171 -2.29575e-21)
(0.000513195 4.77189e-05 0)
(0.000235209 6.79419e-05 0)
(0.00252037 0.00985003 6.62737e-21)
(7.01294e-05 6.36039e-05 1.30638e-21)
(0.000668191 0.000863373 -5.83692e-20)
(3.72452e-05 2.51136e-05 -5.85235e-21)
(0.00477072 0.0082799 -1.58401e-21)
(0.0044353 0.00768756 0)
(0.00470876 0.00822529 -1.21598e-21)
(0.00476455 0.00831 2.36775e-21)
(0.00507931 0.00897156 9.69031e-22)
(0.00477632 0.00832605 -2.36391e-21)
(0.00479815 0.00835662 3.50593e-23)
(0.00480634 0.00836629 7.12333e-23)
(0.00481586 0.00837719 -2.69788e-21)
(0.00482141 0.00838458 1.44427e-21)
(0.00516962 0.00895142 0)
(0.00516785 0.0089554 8.09653e-23)
(0.00516824 0.00895408 -9.06193e-21)
(0.00516856 0.00895291 -9.42899e-21)
(0.00516955 0.008953 0)
(0.00517097 0.00895367 9.33077e-21)
(0.00516994 0.00895403 1.01441e-20)
(0.00516842 0.00895155 -1.0695e-20)
(0.0051678 0.0089514 -1.09678e-20)
(0.00516763 0.00895113 1.14276e-20)
(0.00516785 0.00895329 -2.3404e-20)
(0.00516799 0.00895542 1.67839e-20)
(0.00516805 0.00895469 1.84219e-20)
(0.00516729 0.00895218 2.47691e-20)
(0.0051686 0.00895314 1.88585e-20)
(0.00516907 0.00895277 0)
(0.0051676 0.00894861 0)
(0.00517079 0.00895353 -9.64044e-21)
(0.00517063 0.00895387 -2.0298e-20)
(0.00516859 0.00894872 0)
(0.00517032 0.00895373 -3.79915e-23)
(0.00517 0.00895488 -8.59533e-21)
(0.00516927 0.00895634 -7.81821e-23)
(0.00516911 0.00894996 -1.18737e-20)
(0.00516865 0.00895194 3.30361e-20)
(0.0051681 0.00895122 2.19277e-20)
(0.00516914 0.00894958 -8.00785e-23)
(0.00516763 0.00895126 3.71629e-23)
(0.00516811 0.00895294 1.17236e-20)
(0.00516752 0.00895289 -1.23292e-20)
(0.00516917 0.00895225 8.44475e-21)
(0.0051688 0.00895514 0)
(0.00517339 0.00895029 -1.38971e-20)
(0.00516905 0.00895309 8.62575e-21)
(0.00516746 0.00894954 -1.24371e-20)
(0.00516842 0.00895484 3.16742e-20)
(0.0051687 0.00895457 8.75023e-21)
(0.00516839 0.00895386 2.13607e-20)
(0.00516826 0.00894835 -1.28093e-20)
(0.00516865 0.00895278 2.16366e-20)
(0.00517812 0.00895074 0)
(0.00516916 0.00894979 3.53464e-23)
(0.00517019 0.00895314 -8.35606e-21)
(0.00516903 0.00894977 -2.6591e-20)
(0.00518666 0.00895109 -2.87512e-20)
(0.00516919 0.00895267 1.12879e-20)
(0.00517251 0.00895006 -1.38721e-20)
(0.00516911 0.00895317 1.18802e-20)
(0.00516888 0.00895669 -9.03668e-21)
(0.00517622 0.00895058 1.40909e-20)
(0.0051691 0.00895502 1.84477e-20)
(0.00516879 0.0089546 1.01371e-20)
(0.00518328 0.00895088 1.43558e-20)
(0.00516845 0.0089548 -1.05104e-20)
(0.00516955 0.00895396 -4.12223e-23)
(0.00516852 0.00895402 1.06694e-20)
(0.00517131 0.00895419 -3.77964e-23)
(0.0051688 0.00895281 -1.0929e-20)
(0.0051713 0.00895412 -4.21443e-23)
(0.0048278 0.00839172 1.55291e-21)
(0.00516947 0.00895443 1.01881e-20)
(0.00517122 0.00895008 1.34536e-20)
(0.00520145 0.00895281 -1.46644e-20)
(0.00516806 0.00895106 0)
(0.00517241 0.00895039 -2.73827e-20)
(0.00516825 0.00895167 1.19622e-20)
(0.00522442 0.00895695 1.48958e-20)
(0.00516877 0.00895211 2.17293e-20)
(0.00546933 0.00900068 0)
(0.00516859 0.00895264 8.57075e-25)
(0.00549784 0.00901663 1.59123e-20)
(0.00526055 0.00896302 3.02687e-20)
(0.00516881 0.00895274 1.15577e-20)
(0.00507813 0.00893111 -9.01087e-22)
(0.00530707 0.0089788 -1.5298e-20)
(0.00519585 0.00895189 0)
(0.00516812 0.00895436 1.20124e-20)
(0.0052156 0.00895539 -1.48046e-20)
(0.00516704 0.00895251 -4.94649e-20)
(0.00516983 0.0089495 -2.7016e-20)
(0.00517088 0.00894972 -2.74179e-20)
(0.00516835 0.00894891 -1.24579e-20)
(0.00524703 0.0089604 0)
(0.00535141 0.00896901 -1.55393e-20)
(0.00516973 0.00894901 -1.28944e-20)
(0.00508994 0.00881632 8.40702e-21)
(0.00508973 0.00881642 -2.5225e-20)
(0.00529105 0.00897213 1.53391e-20)
(0.00508968 0.00881634 -8.45569e-21)
(0.00508919 0.00881581 -9.05626e-21)
(0.00516943 0.0089501 2.5004e-20)
(0.00508937 0.0088158 -9.03258e-21)
(0.00516636 0.00894348 1.6159e-20)
(0.00509023 0.00881543 7.03551e-24)
(0.00516997 0.00895009 1.32674e-20)
(0.00483178 0.00839648 -3.13485e-21)
(0.00509143 0.00881533 -4.25416e-23)
(0.00509118 0.00881442 0)
(0.00509166 0.00881372 9.73317e-21)
(0.00552044 0.00903301 1.58463e-20)
(0.0051962 0.00894658 8.07631e-23)
(0.00520904 0.00894764 -3.86285e-23)
(0.00521695 0.00894846 1.47963e-20)
(0.00509184 0.00881428 1.01515e-20)
(0.00517543 0.00895036 -1.39246e-20)
(0.00524802 0.00894974 0)
(0.00523615 0.00894976 -4.04115e-23)
(0.00528896 0.00895103 1.53235e-20)
(0.00508997 0.00881535 -2.06445e-20)
(0.00508974 0.00881529 -3.77719e-23)
(0.00518024 0.00894877 -3.78612e-23)
(0.00509012 0.0088161 0)
(0.00527457 0.00895002 1.50493e-20)
(0.00509013 0.00881624 1.03432e-20)
(0.00509072 0.00881668 -1.08309e-20)
(0.00509153 0.00881626 2.1958e-20)
(0.00509238 0.00881581 0)
(0.00531845 0.00895694 1.53645e-20)
(0.00519079 0.00894669 4.30835e-20)
(0.00509288 0.00881534 -1.0628e-20)
(0.00509293 0.00881511 -1.06139e-20)
(0.00534003 0.00899512 0)
(0.00509226 0.00881426 1.09005e-20)
(0.00537165 0.008978 -1.55122e-20)
(0.00509065 0.00881313 1.10684e-20)
(0.00508945 0.00881422 1.17721e-20)
(0.00508889 0.00881424 0)
(0.00508893 0.00881428 1.2022e-20)
(0.00508856 0.00881424 4.56789e-23)
(0.00508883 0.00881449 -1.16081e-20)
(0.00508947 0.00881549 8.82644e-21)
(0.00514596 0.00891897 9.10147e-21)
(0.00483735 0.00840295 0)
(0.00516968 0.00895555 -8.83379e-21)
(0.00517017 0.00895425 3.89572e-23)
(0.00517027 0.00895342 -1.70028e-20)
(0.00516897 0.00895487 0)
(0.00516864 0.00895512 1.0557e-20)
(0.00516847 0.00895323 -2.18071e-20)
(0.00516837 0.00895444 -9.8387e-25)
(0.00516923 0.00895279 -1.19741e-20)
(0.00516907 0.0089527 -1.1249e-20)
(0.0051706 0.00895004 1.34307e-20)
(0.00517176 0.00895021 0)
(0.00547354 0.00912542 -1.5643e-20)
(0.0050909 0.00881537 -9.4557e-21)
(0.0051474 0.00891901 0)
(0.00508999 0.00881506 -1.23643e-20)
(0.00509123 0.00881465 9.24733e-21)
(0.00533428 0.00896213 -3.11058e-20)
(0.00514766 0.00891874 -1.7576e-20)
(0.00509121 0.00881394 0)
(0.00514763 0.0089185 -9.77681e-21)
(0.00509281 0.00881568 0)
(0.00509173 0.00881373 -4.27375e-23)
(0.00514908 0.00891833 -9.66358e-21)
(0.00509028 0.00881519 0)
(0.00514792 0.00891907 8.04187e-23)
(0.00509326 0.0088156 1.28055e-20)
(0.00547845 0.00904142 1.57394e-20)
(0.00509348 0.00881514 1.2785e-20)
(0.00509246 0.00881443 -1.09434e-20)
(0.00553344 0.00905251 -1.57796e-20)
(0.0051486 0.00891807 -1.12762e-20)
(0.00509355 0.00881508 -1.27947e-20)
(0.00509088 0.00881326 1.10501e-20)
(0.0051471 0.00891641 -1.14682e-20)
(0.00508965 0.00881374 -1.18734e-20)
(0.00514606 0.00891556 -2.34613e-20)
(0.00509405 0.00881678 1.35217e-20)
(0.00550383 0.00906188 0)
(0.00509427 0.00881699 0)
(0.00508901 0.00881462 1.21887e-20)
(0.00509509 0.00881732 0)
(0.005146 0.00891794 -8.01659e-23)
(0.0050956 0.00881799 0)
(0.00517012 0.00895136 0)
(0.00509186 0.00881557 -3.7851e-23)
(0.00514793 0.0089179 2.45023e-20)
(0.00509636 0.00881912 -2.78581e-20)
(0.00509283 0.00881563 -1.23895e-20)
(0.00514897 0.0089182 1.21972e-20)
(0.00509322 0.00881529 -3.34021e-23)
(0.00550146 0.00903336 -1.57327e-20)
(0.0051491 0.00891817 -1.27555e-20)
(0.00509942 0.00882295 0)
(0.00509371 0.00881499 -3.50402e-23)
(0.00514936 0.00891744 -2.57671e-20)
(0.00509358 0.00881611 -8.0527e-23)
(0.0051492 0.00891713 1.34412e-20)
(0.00510794 0.00882785 -1.43314e-20)
(0.00484116 0.00840692 0)
(0.00547648 0.0091239 -2.92613e-20)
(0.00548484 0.00907887 1.54958e-20)
(0.00509756 0.00882148 1.41691e-20)
(0.00515325 0.00892059 2.81007e-20)
(0.00518512 0.00893613 -1.47849e-20)
(0.00547771 0.00917574 1.52874e-20)
(0.00510412 0.00882606 2.88969e-20)
(0.00515899 0.00892478 2.86114e-20)
(0.00484539 0.00841039 -1.81302e-21)
(0.00542702 0.00918001 1.57463e-20)
(0.00544251 0.0091331 -3.16575e-20)
(0.00511533 0.00883213 4.40016e-20)
(0.00516986 0.00892956 -1.45384e-20)
(0.00517931 0.00893332 1.45341e-20)
(0.00520849 0.00894798 4.51109e-20)
(0.00545292 0.00918136 -3.17383e-20)
(0.00543631 0.00921879 0)
(0.00513106 0.00884258 -2.98097e-20)
(0.00542804 0.00909016 4.3366e-23)
(0.0054099 0.00897327 1.56177e-20)
(0.00484983 0.00841479 1.93745e-21)
(0.00541909 0.00901189 -1.58261e-20)
(0.00519929 0.00894311 0)
(0.00516811 0.00894782 -2.4013e-20)
(0.00541108 0.00905592 0)
(0.00516804 0.00894811 -8.28696e-21)
(0.00541652 0.00914001 -2.52212e-23)
(0.00516451 0.00894674 8.56641e-21)
(0.00516541 0.00894713 -8.71577e-21)
(0.0051546 0.00886026 1.51371e-20)
(0.00516727 0.00894667 -8.96409e-21)
(0.0054381 0.00898902 -1.56955e-20)
(0.00539272 0.00903152 -3.8281e-23)
(0.00546371 0.00899585 1.57878e-20)
(0.00516689 0.00894799 -9.5775e-21)
(0.0051666 0.00894663 -9.80009e-21)
(0.005167 0.00895224 3.89266e-23)
(0.00496858 0.00855702 0)
(0.00548551 0.00910146 2.88304e-20)
(0.00516507 0.00895127 -1.74175e-20)
(0.00516518 0.00894769 5.42754e-24)
(0.00516565 0.00894799 -2.05422e-20)
(0.00516754 0.00894678 -1.00521e-20)
(0.00539476 0.00899141 1.57732e-20)
(0.00520228 0.00890969 1.53078e-20)
(0.00537441 0.00901547 -1.56489e-20)
(0.00516728 0.0089483 0)
(0.00516894 0.00894748 7.62479e-21)
(0.00516674 0.00895004 0)
(0.0051659 0.00894815 0)
(0.00516467 0.0089468 -1.56537e-20)
(0.00522009 0.00892563 0)
(0.00516881 0.00894929 -2.15932e-20)
(0.00516451 0.00894677 0)
(0.00516656 0.00894762 8.47781e-21)
(0.00516569 0.00894644 -7.97283e-21)
(0.00539235 0.00907754 -3.17034e-20)
(0.00530361 0.00895317 -1.52997e-20)
(0.00516574 0.00894786 5.07487e-23)
(0.0052407 0.00894247 -1.54113e-20)
(0.00516883 0.00894951 1.03384e-20)
(0.00516684 0.0089498 9.0929e-21)
(0.00535675 0.00900427 1.54743e-20)
(0.00516688 0.00894724 -8.71696e-21)
(0.00516737 0.00894671 0)
(0.00516623 0.0089504 0)
(0.00516727 0.00895121 0)
(0.00516673 0.00895008 1.03232e-20)
(0.00516413 0.00886922 1.50086e-20)
(0.00516637 0.00894736 -4.3889e-23)
(0.00516602 0.00895161 1.86037e-20)
(0.00485301 0.00841758 -1.93624e-21)
(0.00516629 0.00895112 3.93432e-23)
(0.00516659 0.0089527 8.80404e-21)
(0.00516924 0.00894928 -1.97279e-20)
(0.00526154 0.0089597 1.58465e-20)
(0.00516406 0.00894878 -1.10131e-20)
(0.00516593 0.00894808 -6.9341e-23)
(0.00516441 0.00894919 -9.29727e-21)
(0.00516482 0.0089467 0)
(0.00536055 0.00904347 1.55882e-20)
(0.0051658 0.00894756 3.75035e-23)
(0.00516704 0.00894892 -2.0671e-20)
(0.00516791 0.00895019 1.0505e-20)
(0.00516705 0.00894948 1.08e-20)
(0.00516639 0.00894584 0)
(0.00516555 0.00894539 0)
(0.00128572 0.00225396 8.01391e-21)
(0.00516762 0.00894874 0)
(0.00504107 0.00862744 -1.06299e-22)
(0.00516638 0.00894497 0)
(0.0051643 0.00894934 -1.222e-20)
(0.00516865 0.00894939 -1.0806e-20)
(0.00516806 0.00894994 2.29529e-20)
(0.00533926 0.0090501 -3.1594e-20)
(0.00128842 0.00225716 5.5719e-21)
(0.00516615 0.00894793 2.89945e-23)
(0.00534259 0.00903066 0)
(0.00516551 0.00894169 2.59083e-20)
(0.00516374 0.00895083 1.17182e-20)
(0.00532374 0.00901767 0)
(0.00516469 0.00894979 2.41148e-20)
(0.00485594 0.00841971 2.0903e-21)
(0.0051661 0.0089419 -2.66965e-20)
(0.00516354 0.00895124 0)
(0.00496001 0.0085453 0)
(0.00128912 0.00225841 1.16271e-20)
(0.0051646 0.00894785 -2.54844e-23)
(0.00516434 0.00894808 2.45598e-20)
(0.00516454 0.00895386 5.17972e-21)
(0.00516401 0.00895103 0)
(0.0051666 0.00894215 -4.59948e-23)
(0.00516437 0.00895483 6.58509e-21)
(0.00516468 0.00894629 -1.24423e-20)
(0.00516634 0.00894476 -3.90725e-23)
(0.00330822 0.00571314 0)
(0.00128241 0.00224977 -1.3072e-21)
(0.00329576 0.0056924 -5.21935e-21)
(0.0033037 0.00570349 6.17467e-21)
(0.00516639 0.00895625 7.10376e-21)
(0.00129011 0.00225553 1.47398e-20)
(0.00529734 0.00901811 1.56026e-20)
(0.00532997 0.00894057 -2.13061e-23)
(0.0033041 0.00570533 2.65028e-23)
(0.00516566 0.00894539 1.27626e-20)
(0.00517162 0.00894114 1.38195e-20)
(0.00516347 0.00894923 2.83108e-23)
(0.00516454 0.00894397 1.26894e-20)
(0.00530495 0.00900448 -1.52804e-20)
(0.00523049 0.00896209 -1.49452e-20)
(0.00516516 0.00894574 -2.50689e-20)
(0.00516683 0.00894357 2.61695e-20)
(0.00532366 0.00898653 0)
(0.00516467 0.00894234 -1.26952e-20)
(0.00531737 0.00892143 3.02421e-20)
(0.00129194 0.00225842 5.58818e-21)
(0.0051712 0.00895631 0)
(0.00516556 0.0089459 -4.54284e-23)
(0.00516735 0.00894305 -4.07273e-23)
(0.00330485 0.00570701 5.60695e-21)
(0.00129223 0.0022576 7.28064e-21)
(0.00517068 0.00894355 1.33417e-20)
(0.001289 0.00225903 3.15426e-21)
(0.00516665 0.00894013 0)
(0.0048593 0.00842435 -2.04395e-21)
(0.00330629 0.0057069 0)
(0.00516934 0.00894232 1.36674e-20)
(0.00516495 0.00895405 -2.9808e-21)
(0.00516492 0.00895413 2.66744e-21)
(0.00517675 0.00893887 1.42526e-20)
(0.00528693 0.00899232 3.05706e-20)
(0.00516469 0.00895354 -2.97639e-21)
(0.00516465 0.00895333 -2.76036e-21)
(0.00516742 0.00894151 -1.38268e-20)
(0.00524381 0.00892006 -2.95669e-20)
(0.00516505 0.00895433 -2.62866e-21)
(0.00516441 0.00895422 -3.13841e-21)
(0.00516645 0.0089543 5.29977e-21)
(0.00517124 0.00895643 4.06542e-21)
(0.00524398 0.00897293 8.7747e-23)
(0.00330889 0.00571212 6.82498e-21)
(0.00502204 0.00861097 -1.55711e-20)
(0.00516468 0.00895372 2.9944e-21)
(0.0051644 0.00894978 0)
(0.00516872 0.00894208 2.6865e-20)
(0.00517277 0.00894054 2.81667e-20)
(0.00521424 0.00892807 -1.45224e-20)
(0.00516534 0.00895582 3.39985e-21)
(0.0051646 0.00895362 -3.5024e-21)
(0.00527047 0.00898192 -1.52323e-20)
(0.00129259 0.00226251 -4.64319e-21)
(0.0052593 0.00898613 4.91051e-23)
(0.00523224 0.00892284 3.23015e-23)
(0.0033016 0.00570149 0)
(0.00497742 0.00856903 0)
(0.00330436 0.00570188 1.34153e-20)
(0.00517868 0.00893812 0)
(0.00519238 0.00891906 0)
(0.00518688 0.00889433 -3.10908e-20)
(0.00516282 0.00894459 -5.29337e-21)
(0.00516308 0.00894477 -5.02463e-21)
(0.00129266 0.00225933 3.15867e-21)
(0.00441811 0.00766957 7.94792e-21)
(0.00522244 0.00892552 4.68204e-23)
(0.00516773 0.00895365 -3.58629e-21)
(0.00516432 0.00894724 5.04958e-21)
(0.00516964 0.00895626 0)
(0.00330614 0.00570733 0)
(0.005169 0.00894786 -6.72169e-21)
(0.00330957 0.0057119 0)
(0.00520663 0.00893094 4.81523e-23)
(0.00527394 0.00891606 -2.98864e-20)
(0.00500453 0.00859682 1.54858e-20)
(0.00516825 0.00895044 -5.14884e-23)
(0.00519988 0.00893395 -1.45271e-20)
(0.00516264 0.0089445 -5.62795e-21)
(0.00516513 0.00894459 -2.55542e-20)
(0.00519968 0.00888938 0)
(0.00525552 0.00897373 -4.34358e-23)
(0.00517809 0.00893415 -1.41083e-20)
(0.00498896 0.00858241 -1.55826e-20)
(0.00330229 0.00569843 -3.47882e-21)
(0.00516603 0.00894841 -1.44456e-20)
(0.00516696 0.00895463 4.23435e-21)
(0.00519425 0.00893682 1.43759e-20)
(0.00516608 0.00894035 -1.32348e-20)
(0.00517322 0.00893949 -1.36348e-20)
(0.00516672 0.0089488 0)
(0.00516898 0.00895158 -6.02051e-21)
(0.00517128 0.00895035 1.27994e-20)
(0.00520697 0.00887894 -2.42025e-23)
(0.00516387 0.00894741 1.17586e-20)
(0.00518875 0.00893967 -2.16619e-20)
(0.005183 0.00892793 -1.42768e-20)
(0.0051843 0.00893445 -1.46351e-20)
(0.00517195 0.00895629 0)
(0.00516964 0.00894318 -1.36872e-20)
(0.00527554 0.00896676 -1.50503e-20)
(0.00330802 0.00571077 -7.17315e-21)
(0.00516704 0.00894936 9.24872e-21)
(0.00517112 0.00894899 1.36444e-20)
(0.00524202 0.0089678 -8.4426e-23)
(0.00519176 0.00892785 -1.46285e-20)
(0.00517065 0.00895183 6.1879e-21)
(0.0051686 0.00894618 6.88539e-21)
(0.0051624 0.00894438 5.52456e-21)
(0.00516902 0.00894849 0)
(0.00516943 0.00895133 5.78822e-21)
(0.00517098 0.00895426 0)
(0.00516378 0.00894642 4.70166e-23)
(0.00516293 0.00894452 -9.93209e-21)
(0.00516536 0.0089482 1.48175e-20)
(0.00525742 0.00891759 4.54182e-20)
(0.00516263 0.00894465 5.15507e-21)
(0.00486095 0.00842683 -4.41061e-21)
(0.00519647 0.00890729 -3.00425e-20)
(0.00516861 0.00895094 6.38416e-21)
(0.00516953 0.00895172 5.96253e-21)
(0.0051749 0.00888069 0)
(0.00516812 0.00895132 -1.8385e-20)
(0.00521541 0.00886598 0)
(0.00516534 0.00895058 2.44234e-23)
(0.00329983 0.00569815 -7.06436e-21)
(0.0051716 0.00894352 0)
(0.00516212 0.00894415 2.62123e-24)
(0.00523035 0.00896344 -2.9904e-20)
(0.005184 0.00894186 -7.20715e-21)
(0.00516971 0.00895383 4.08102e-21)
(0.00517203 0.0089506 -6.97147e-21)
(0.0049523 0.00853656 -1.51131e-20)
(0.00516785 0.00894576 5.09933e-23)
(0.00516826 0.00894407 -7.65913e-21)
(0.00523506 0.00895846 -1.48066e-20)
(0.00516405 0.00895066 0)
(0.00516518 0.00894611 -2.60531e-21)
(0.00516737 0.00895076 -5.98772e-21)
(0.005166 0.00895158 0)
(0.00516858 0.00895554 -4.15611e-21)
(0.00519272 0.00889826 2.94487e-20)
(0.00516482 0.00894555 3.40679e-23)
(0.00516309 0.00894375 5.20013e-21)
(0.00530512 0.00884204 3.84677e-23)
(0.00516245 0.00894414 1.13501e-20)
(0.00522044 0.00896007 -1.48006e-20)
(0.00516872 0.00894949 -8.23142e-21)
(0.0051804 0.00894319 2.81925e-20)
(0.00521903 0.00895392 -1.5056e-20)
(0.0051668 0.00894918 -4.94108e-21)
(0.005162 0.00894446 -7.70006e-23)
(0.00517699 0.00893598 1.44166e-20)
(0.00330451 0.00570932 1.8151e-20)
(0.00516294 0.00894414 0)
(0.00516767 0.00894952 -4.7237e-21)
(0.00529034 0.00887639 0)
(0.00516586 0.00894558 6.82994e-21)
(0.00486306 0.00843066 4.57134e-21)
(0.00516519 0.00895139 -8.57172e-21)
(0.00521197 0.00895736 4.1777e-23)
(0.00516517 0.00894763 -1.01092e-20)
(0.00516482 0.0089473 -5.69012e-24)
(0.00517492 0.00894615 -1.40075e-20)
(0.00516538 0.00895139 8.45025e-21)
(0.00494496 0.00852879 1.50654e-20)
(0.00516403 0.00894485 -4.87173e-24)
(0.00517736 0.00894401 -1.43655e-20)
(0.00526077 0.00887496 3.05522e-20)
(0.00516661 0.00895264 -5.16545e-21)
(0.00516655 0.00894748 0)
(0.00516712 0.00894493 -2.88339e-23)
(0.00516359 0.00894538 0)
(0.00516552 0.00895185 0)
(0.00329811 0.00569696 -3.56008e-21)
(0.00516459 0.00894419 0)
(0.00509679 0.00883174 1.00684e-20)
(0.0053908 0.00884251 1.52971e-23)
(0.0051657 0.00895051 8.40869e-21)
(0.00542398 0.00875631 0)
(0.0050888 0.00881583 2.97339e-20)
(0.00533329 0.00881811 1.53963e-20)
(0.00520492 0.00895508 1.46884e-20)
(0.00516079 0.00895538 2.1798e-21)
(0.00520815 0.00895388 1.45683e-20)
(0.00522418 0.00893355 -2.95073e-20)
(0.00516755 0.0089456 0)
(0.00524368 0.00888556 -2.88531e-20)
(0.00516656 0.00894465 -3.1012e-20)
(0.00516568 0.00895051 -4.66606e-21)
(0.00516812 0.00894458 7.2725e-21)
(0.00492517 0.00852321 0)
(0.00516407 0.00894543 1.23656e-20)
(0.00516635 0.0089455 -6.66904e-21)
(0.0048988 0.00848897 -7.25301e-21)
(0.00492559 0.0085243 -9.71102e-21)
(0.00545408 0.00875746 -1.57455e-20)
(0.0051674 0.00895319 1.0439e-20)
(0.00492507 0.00851681 1.34209e-20)
(0.00516661 0.00894971 0)
(0.00536423 0.00879162 3.82816e-23)
(0.0051679 0.00894639 -1.02466e-20)
(0.00493819 0.00852286 -4.82165e-23)
(0.00519183 0.0089392 2.98207e-20)
(0.00519888 0.00895317 -1.45933e-20)
(0.00532491 0.00874143 -1.53065e-20)
(0.00492619 0.00852099 0)
(0.00486474 0.00843508 7.84556e-23)
(0.0049314 0.00851718 -1.4914e-20)
(0.00509446 0.00882883 9.02096e-21)
(0.00516358 0.00895902 0)
(0.00509473 0.00882906 8.9745e-21)
(0.00516578 0.00895064 9.46249e-21)
(0.00509752 0.0088299 -9.98085e-21)
(0.00513479 0.00895532 3.01378e-21)
(0.00516496 0.00895408 3.0027e-21)
(0.0051677 0.00895126 -4.91773e-21)
(0.00492583 0.00852265 -3.41301e-23)
(0.00516586 0.00894961 0)
(0.00516781 0.00894195 1.23658e-20)
(0.00512503 0.00895965 2.72653e-21)
(0.00516668 0.00894773 2.3661e-23)
(0.00516555 0.00895084 9.30811e-21)
(0.005281 0.00886089 3.05457e-20)
(0.0051935 0.00895167 0)
(0.00492671 0.00851309 3.91348e-23)
(0.00512864 0.0089536 0)
(0.0053947 0.00876886 1.5176e-20)
(0.00516581 0.00895316 -5.56537e-21)
(0.00548867 0.00877354 -1.52364e-20)
(0.0033085 0.00571422 6.42408e-21)