/*--------------------------------*- C++ -*----------------------------------*\
  =========                 |
  \\      /  F ield         | OpenFOAM: The Open Source CFD Toolbox
   \\    /   O peration     | Website:  https://openfoam.org
    \\  /    A nd           | Version:  8
     \\/     M anipulation  |
\*---------------------------------------------------------------------------*/
FoamFile
{
    version     2.0;
    format      ascii;
    class       volVectorField;
    location    "1.2";
    object      U;
}
// * * * * * * * * * * * * * * * * * * * * * * * * * * * * * * * * * * * * * //

dimensions      [0 1 -1 0 0 0 0];

internalField   nonuniform List<vector> 
4280
(
(3.18342e-05 1.5551e-05 -1.18965e-22)
(0.000628503 0.00103875 4.27888e-22)
(1.92429e-05 3.52373e-05 -1.72298e-21)
(0.000312117 0.000396363 -1.18931e-21)
(0.000608165 0.000924698 6.57551e-22)
(0.000540558 0.00104066 0)
(0.00060557 0.000884214 0)
(0.000685674 0.00111422 4.28011e-22)
(0.000541082 0.000941005 -8.20516e-22)
(0.000548815 0.00101963 2.43275e-22)
(4.09709e-05 3.83555e-07 7.65353e-24)
(0.000573608 0.00120279 -7.41352e-22)
(3.74291e-05 8.32212e-05 -1.75827e-21)
(0.000597551 0.000449648 -2.2908e-21)
(0.000522667 0.000899415 -6.53707e-22)
(0.000668511 0.00111665 -3.94355e-22)
(0.000485153 0.00083751 7.75719e-22)
(0.000305501 0.000967931 -1.12369e-21)
(0.000175315 0.000761758 2.7943e-22)
(0.000677306 0.00111225 0)
(3.86881e-05 -2.31429e-06 -1.56001e-24)
(0.000635802 0.0011389 0)
(5.09069e-05 -7.08888e-05 9.78845e-22)
(0.000696705 0.00130474 0)
(0.00052703 0.00103737 -1.02925e-21)
(0.000534816 0.000879544 -1.66967e-22)
(0.00061669 0.00114163 0)
(0.00054783 0.00103795 -6.35507e-22)
(0.000565438 0.000976877 -4.66544e-22)
(0.000446512 0.000898013 5.35486e-22)
(0.000605435 0.000959452 -1.35167e-21)
(0.00031668 0.00099825 0)
(0.000482884 0.000949992 -8.47208e-22)
(0.000452461 0.000907985 -1.65093e-21)
(3.32732e-05 0.00031058 1.39957e-21)
(0.000548286 0.00105471 1.11592e-21)
(0.000778543 0.00125517 -2.23957e-23)
(0.000419334 0.000807592 1.15374e-21)
(0.000628423 0.0012255 -3.48686e-22)
(0.000563304 0.0010404 1.00978e-23)
(0.000650525 0.00056631 4.19507e-22)
(0.000639761 0.00116301 -8.3767e-22)
(0.000511589 0.000805055 0)
(0.000613505 0.000858088 0)
(0.000461465 0.000917627 -3.31611e-22)
(0.000515455 0.000972883 0)
(0.000899407 0.0010219 -3.45106e-22)
(0.000607218 0.0011318 -4.14193e-22)
(0.000525626 0.000928348 1.73982e-23)
(0.000899138 0.00132243 7.76267e-22)
(0.000670579 0.00119897 0)
(0.000666541 0.00111739 0)
(0.000558735 0.00104725 -4.6717e-22)
(8.04744e-05 0.000666657 -1.35736e-21)
(0.000205701 0.000581093 -5.54878e-22)
(0.000677949 0.00111184 3.78357e-22)
(8.43951e-05 -0.000482688 -4.36134e-22)
(0.000683835 0.0013193 -7.97592e-22)
(0.000539794 0.000919457 -1.10338e-23)
(0.000614366 0.00113618 4.10179e-22)
(0.000563935 0.00103928 3.59963e-24)
(0.000619038 0.00116247 6.77224e-22)
(0.000688771 0.001045 1.6235e-21)
(0.000547301 0.00103787 -1.58274e-21)
(0.000524276 0.00104192 1.3476e-21)
(0.000661461 0.00112237 0)
(0.000793591 0.000809144 0)
(0.000169326 0.000549414 -8.13109e-22)
(0.00056474 0.00101646 -3.41496e-22)
(0.000620201 0.00115293 -3.82751e-22)
(0.000544507 0.000932741 -2.18652e-22)
(0.000556648 0.000978916 -4.74749e-22)
(0.000758338 0.00124633 -4.98706e-22)
(0.000724162 0.00129367 8.85175e-22)
(0.000863864 0.000473511 -3.91129e-24)
(0.000184991 0.00073616 -1.50269e-21)
(0.000491742 0.00100775 0)
(0.000524078 0.00090204 0)
(0.000668074 0.00110993 1.25909e-23)
(0.00022686 0.000834588 -4.00797e-22)
(0.000459643 0.000942514 1.04371e-22)
(0.000645151 0.00115016 1.30146e-22)
(0.000352862 3.637e-05 -2.95558e-21)
(0.000538467 0.000962746 -8.04554e-24)
(0.000525944 0.000972545 1.36133e-21)
(0.000929513 0.000727687 -1.60595e-21)
(0.000611029 0.00114417 3.15721e-22)
(0.000537847 0.000879868 2.08313e-22)
(0.000252866 0.000827848 -7.62022e-22)
(0.000193515 0.000787982 0)
(0.000646892 0.00114966 5.55639e-22)
(0.000326365 0.000974207 2.65316e-21)
(0.000412809 0.000877014 2.86962e-23)
(0.000524053 0.000902558 -3.24227e-22)
(0.000478466 0.000893717 0)
(0.00054617 0.000882676 6.31923e-22)
(0.000776493 0.00130799 0)
(0.000563004 0.00103285 -3.68649e-22)
(0.000723081 0.00108922 -2.43574e-24)
(0.000551437 0.000931317 -1.44817e-21)
(0.000565906 0.00104548 -8.41759e-22)
(0.000567493 0.00111977 1.34696e-23)
(0.000703107 0.00131379 0)
(0.000550567 0.000916204 -5.81935e-22)
(0.000619073 0.00114662 3.78033e-22)
(0.000574429 0.00104704 -1.19247e-23)
(0.000518925 0.000972234 -8.77837e-22)
(0.000593871 0.00109703 -1.50048e-21)
(0.000555849 0.000885427 0)
(0.00038667 0.000680136 0)
(0.000264902 0.000700661 9.20154e-22)
(0.000531594 0.00100475 9.53024e-22)
(0.000527371 0.000976699 -1.37116e-21)
(0.000473126 0.000806149 -9.31878e-22)
(4.40144e-05 -2.03411e-06 -7.72836e-24)
(0.000538677 0.000909267 0)
(0.000112829 -0.000193292 -1.87675e-21)
(0.000535724 0.0010108 0)
(0.000562155 0.000700444 1.07959e-21)
(0.00055284 0.000442017 0)
(0.000418594 0.00088244 -5.3144e-22)
(0.000508767 0.000944621 2.58676e-22)
(0.000715778 0.00129535 6.51558e-22)
(0.000543438 0.000917161 5.23002e-22)
(0.000529198 0.000943789 0)
(0.000476542 0.000945523 7.5519e-22)
(0.000314448 0.000681994 0)
(0.000492164 0.000986057 -4.17961e-22)
(2.74017e-05 0.000235892 2.42158e-22)
(0.000813007 0.00133431 -7.28272e-23)
(0.000416961 0.000819448 -6.93887e-22)
(0.00057605 0.00105101 4.26986e-22)
(0.000608761 0.00118125 2.98129e-22)
(0.000552983 0.000967175 -5.4655e-22)
(0.000531488 0.000997645 1.95709e-21)
(6.39577e-05 0.00109417 0)
(0.000697927 0.00133322 0)
(0.000776894 0.00130518 2.62813e-24)
(0.000421858 0.000805465 -3.84553e-22)
(0.000650982 0.001149 -1.09161e-23)
(0.000531457 0.000989664 -1.8476e-23)
(0.000461654 0.000849096 0)
(0.000261054 0.000456792 2.64797e-22)
(0.000561972 0.00106471 0)
(0.000528621 0.000980618 -7.3608e-22)
(0.000649009 0.00110773 2.43011e-21)
(0.000512492 0.000109976 8.77349e-22)
(0.000528963 0.00105115 1.38579e-23)
(0.000417331 0.000605719 0)
(0.000532996 0.000985198 0)
(0.000293535 0.000846491 0)
(0.00166193 0.000199442 0)
(0.000513492 0.000953067 -5.72341e-22)
(0.000476888 0.000568937 0)
(0.000365747 0.00105793 -7.86416e-24)
(0.00065191 0.00114846 -1.55664e-23)
(0.000614092 0.000789357 0)
(0.000533656 0.00102265 5.59812e-22)
(0.00048003 0.000926188 8.10904e-22)
(0.000418921 0.000795208 0)
(0.00065784 0.00115085 0)
(0.000603731 0.00107512 1.56718e-21)
(0.000483119 0.00011776 1.34792e-21)
(0.000480701 0.000986229 -1.72027e-21)
(0.000599667 0.00119629 0)
(0.000632067 0.00095075 1.75087e-23)
(0.000662545 0.0011338 3.47025e-22)
(0.000591561 0.00103033 1.189e-23)
(0.000672825 0.00111197 4.35529e-22)
(0.000677566 0.00125895 7.06415e-23)
(0.000591141 0.000932581 0)
(0.000491303 0.000929044 1.93385e-22)
(0.000532523 0.000975731 3.56518e-24)
(0.000113328 0.00153138 -7.93415e-23)
(0.000986303 0.000426169 -1.51624e-21)
(0.000519096 0.000992884 1.26699e-23)
(0.000901828 0.00040198 0)
(0.00045322 0.000878154 1.42732e-21)
(0.00047215 0.000912924 -1.36721e-22)
(0.000591914 0.000955337 -4.21414e-22)
(0.000587568 0.00069502 -1.11148e-21)
(0.000779621 0.000739206 6.05926e-22)
(0.000151506 0.000721892 -1.12402e-21)
(0.000774568 0.00125014 -8.50092e-22)
(0.000927889 0.00144375 9.32273e-22)
(0.000542923 0.00101537 0)
(0.000527677 0.000989249 1.58837e-23)
(0.000804537 7.97725e-05 -1.56203e-22)
(0.000682848 0.00133992 5.98001e-22)
(0.000483726 0.000872228 -5.02627e-23)
(0.000183759 0.000591274 1.83444e-22)
(0.000407603 0.000881989 0)
(0.000552153 0.000964278 -1.5922e-23)
(0.000546494 0.000927911 -4.98047e-23)
(0.000487516 0.000941663 -9.8415e-23)
(0.000708033 0.00106533 -1.35685e-21)
(0.000693013 0.00111021 0)
(0.000630185 0.00101399 -7.71982e-22)
(0.000782874 0.0012535 0)
(0.000837958 0.00133509 -1.04907e-21)
(0.000479979 0.000665882 -9.90367e-24)
(0.000839684 0.000936957 -1.16204e-21)
(0.000551115 0.000926608 0)
(0.000539833 0.00104474 0)
(0.000572033 0.00103367 -1.07905e-21)
(0.000637135 0.0011298 -3.64357e-22)
(0.000536947 0.000914846 1.60238e-21)
(0.000618799 0.00113534 -5.28968e-22)
(0.00053253 0.000917897 -7.12235e-22)
(0.000691696 0.00120925 6.53796e-22)
(0.000692272 0.00106043 -1.40916e-21)
(0.0002909 0.000602887 -1.07261e-22)
(0.00051935 0.00099329 9.63189e-22)
(0.000426573 0.000584753 2.13106e-21)
(0.000550722 0.000934937 0)
(0.000525974 0.00103293 9.21077e-22)
(0.00106662 0.000161876 -1.21304e-21)
(0.000722545 0.00109538 -2.60842e-22)
(0.000650445 0.0011402 4.3841e-22)
(0.000366665 0.000715242 9.70634e-22)
(0.000591206 0.000863265 9.0514e-23)
(2.99622e-05 -1.54192e-05 -4.52681e-24)
(0.000515352 0.00096171 1.92294e-21)
(0.000856623 0.000868639 5.20764e-22)
(0.00051015 0.0010028 -9.7288e-22)
(0.000525424 0.000733595 0)
(0.000991866 0.000415134 1.17785e-21)
(0.000509779 0.000986569 -6.46931e-22)
(0.000541657 0.000909746 0)
(0.000446455 0.00089866 -1.03352e-21)
(0.00098175 3.43526e-05 5.001e-22)
(0.000548695 0.000962133 -4.0862e-22)
(0.000874629 3.43894e-05 -2.82661e-22)
(0.000448882 0.000830875 -7.76694e-22)
(0.000546096 0.000970025 -1.44414e-21)
(0.000508956 0.000257152 -9.68922e-22)
(0.000519133 0.000981762 -9.76273e-22)
(0.00069154 0.00111904 -5.76307e-22)
(0.000276722 0.000847846 -1.47304e-21)
(0.000757122 0.00123922 -2.18473e-22)
(0.000621034 0.00115978 -3.43689e-22)
(0.000545688 0.00101556 7.92127e-22)
(0.000662451 0.00113823 -2.42549e-22)
(0.000507533 0.00102783 -1.55565e-21)
(0.000785524 0.00127388 -3.69867e-22)
(0.000621954 0.00123462 0)
(0.000717841 0.0011456 4.82211e-23)
(0.000775981 0.00131034 3.49287e-23)
(0.000507551 0.000975131 3.1272e-22)
(0.00051775 0.000932859 2.6065e-22)
(0.000598687 0.00109479 9.30457e-22)
(0.000541209 0.000964801 0)
(0.000563911 0.00107592 9.712e-22)
(0.000540613 0.000870084 -3.62424e-22)
(0.000699648 0.00145263 7.21279e-23)
(0.00055322 0.0010486 -1.69689e-23)
(0.000472583 0.000490618 1.65478e-21)
(0.000546304 0.000968688 0)
(0.000593418 0.000468125 1.09454e-21)
(0.000765807 0.00121664 2.90025e-21)
(0.000630145 0.00112391 0)
(0.000365804 0.000237564 -1.0321e-21)
(2.979e-05 0.000641323 0)
(0.000536448 0.000914479 1.94993e-22)
(0.00111453 0.000337318 -2.36229e-21)
(0.000591274 0.0010285 9.49895e-24)
(0.000480638 0.00085735 7.50018e-22)
(0.000748894 0.00128432 -7.08298e-22)
(0.000488176 0.00095443 0)
(0.000950698 0.000938549 1.69766e-21)
(0.000293645 0.00111809 3.75615e-23)
(0.000436385 0.000798684 5.5069e-22)
(0.000652574 0.00114687 -4.158e-22)
(0.000566815 0.000904486 7.44915e-24)
(0.00059683 0.000937089 -6.91358e-22)
(0.000654039 0.00114472 -4.38804e-22)
(0.000720895 0.000600895 2.05577e-23)
(0.000620759 0.00115698 -7.30907e-22)
(0.000759462 0.00126777 -6.74553e-22)
(0.000678167 0.000310632 2.37676e-21)
(0.000676489 0.00133992 -2.28394e-21)
(0.000473214 0.000921063 -2.94525e-22)
(0.000536526 0.000961437 -4.0088e-22)
(0.000403549 0.000258951 0)
(0.000531857 0.000870051 1.4229e-21)
(2.26422e-05 -1.26361e-05 3.80716e-24)
(0.000989761 0.001305 -2.32971e-21)
(0.000772547 0.00133042 0)
(0.000618131 0.00103315 2.46195e-22)
(0.000538654 0.000927942 4.32583e-22)
(0.000487872 0.00102197 -4.02822e-22)
(0.00055047 0.0013884 -7.07337e-23)
(0.000381979 0.00084981 0)
(0.000891165 0.00128652 -1.13954e-21)
(0.000544449 0.000851376 7.76602e-22)
(0.00035594 0.000734204 3.6271e-22)
(0.000309765 0.000818025 -7.68822e-23)
(0.000682562 0.00109156 1.682e-21)
(0.000560452 0.00105049 3.16433e-22)
(0.000490098 0.00102503 3.1119e-22)
(0.000369961 0.000802968 1.71294e-21)
(0.000876522 0.00010384 -1.84516e-21)
(0.000744937 0.00124807 -1.8306e-21)
(0.000452586 0.000281735 6.94185e-22)
(0.000634688 0.00114816 5.35976e-23)
(0.000652692 0.00113624 4.06624e-22)
(0.0010219 5.79784e-05 0)
(0.000902683 0.000142943 4.34243e-23)
(0.000912781 0.00136604 2.45211e-22)
(0.00052995 0.00108169 1.87559e-22)
(0.000546242 0.00096976 -1.74164e-24)
(0.000676806 0.000100883 -2.91362e-21)
(0.000560238 0.00104351 4.60659e-22)
(0.00040822 0.000820151 1.54066e-21)
(0.000528203 0.000952775 9.71195e-22)
(0.00064297 0.00122812 -1.13058e-22)
(1.80834e-05 -2.09312e-05 1.42399e-23)
(0.000813995 0.000935666 7.70414e-22)
(0.000628968 0.00115911 -3.12404e-22)
(0.000530524 0.000933674 -1.00835e-22)
(0.000168132 0.000768714 2.15159e-24)
(0.0011192 0.000138736 0)
(0.000190436 0.000870409 1.75674e-23)
(0.000585822 0.000939153 0)
(0.000500426 0.000889117 3.17146e-22)
(0.00103116 0.000173732 0)
(0.000380898 0.000918999 -2.69228e-22)
(0.000288394 0.000660543 -1.31589e-21)
(0.000695545 0.0011576 7.91785e-22)
(0.000588697 0.00104107 9.72408e-22)
(0.00025734 0.000320337 3.33444e-21)
(0.000638336 0.00116244 -1.20388e-22)
(0.000546956 0.00102112 -9.93678e-22)
(0.000453762 0.00092711 1.10884e-21)
(0.000483032 0.000958174 6.80221e-22)
(0.000531198 0.00108053 0)
(0.000547618 0.000856789 -3.89999e-22)
(0.00061339 0.00102245 7.45055e-22)
(0.000803996 0.00127402 1.57228e-21)
(0.000654039 0.00114358 0)
(0.000113438 -8.84927e-05 2.28353e-21)
(0.000471365 0.0008123 0)
(0.000687756 0.00119125 1.82418e-21)
(0.000560261 0.000906654 7.18105e-22)
(0.000466964 0.00098692 1.19359e-22)
(0.000644146 0.00115928 -5.09978e-22)
(0.000266516 0.000861258 6.75594e-22)
(0.000323986 0.000693214 -4.16375e-22)
(0.000526278 0.000957936 0)
(0.000705972 0.00110818 3.13877e-22)
(1.11504e-05 0.00083094 0)
(0.000274141 0.000782213 -5.92874e-22)
(0.00145567 0.000281253 0)
(0.000631399 0.00117481 -4.93545e-22)
(0.000735555 8.75277e-05 6.16351e-23)
(0.00070533 0.00110128 8.96198e-22)
(0.00068313 0.0011389 -2.57189e-22)
(0.000280248 0.00078878 7.52142e-22)
(0.000716957 0.00130679 -2.81659e-22)
(0.000710179 0.00110852 -3.12202e-22)
(4.0063e-05 0.000183962 7.92437e-22)
(0.000559618 0.00102233 9.54586e-24)
(0.000702031 0.00107322 -8.15e-22)
(0.000551256 0.000966292 -5.2726e-22)
(0.000655119 0.00117096 0)
(0.000532929 0.00108418 0)
(0.0005255 0.000928863 -1.54611e-21)
(0.000497588 0.000889404 0)
(0.00056708 0.000852405 -1.19278e-21)
(0.00053692 0.000933527 -3.32898e-22)
(0.000470735 0.000986318 -6.17105e-23)
(0.00064696 0.0011501 5.3654e-22)
(0.000720509 0.001268 -1.07603e-22)
(0.000332365 0.000639818 1.39865e-21)
(0.000529205 0.000984349 0)
(0.000459768 0.000959837 -5.30318e-22)
(0.00056811 0.000893246 5.89266e-23)
(0.000135094 0.000164911 0)
(0.000456317 0.00107209 1.53467e-22)
(0.000536236 0.00101636 3.449e-24)
(0.00074866 3.99182e-05 7.76629e-24)
(0.000305318 0.000866841 5.11807e-24)
(3.39829e-05 -9.43778e-08 1.50804e-21)
(0.000343845 0.000906388 6.16448e-22)
(0.000559948 0.00110647 -4.37101e-22)
(0.000837364 0.00124971 -1.31406e-21)
(0.000441014 0.000811783 -1.09836e-21)
(0.00058603 0.000946793 -7.80092e-23)
(0.000476248 0.000913813 0)
(0.00102493 0.000807179 9.49661e-22)
(-0.000128021 0.00105497 -7.26265e-22)
(0.000527528 0.00116592 0)
(0.000345974 0.000846357 -1.5241e-21)
(0.000461268 0.000556318 1.15163e-21)
(0.000505848 0.000941283 0)
(0.000695059 0.00111911 6.89251e-22)
(0.000545664 0.00104898 -1.0626e-22)
(0.000308645 0.000344719 -3.51958e-21)
(0.000371809 0.000404127 -2.43058e-22)
(0.000506663 0.000955602 -6.33914e-22)
(0.000625746 0.000969094 6.49575e-22)
(0.000509407 0.000938509 -3.64754e-22)
(0.00057843 0.00103301 -2.82809e-22)
(0.000518294 0.000982532 0)
(0.000785824 0.00129264 -1.2203e-23)
(0.000296515 0.000896825 0)
(0.000551287 0.00105538 4.01974e-25)
(0.000696121 0.00110582 3.07449e-22)
(0.00051796 0.000941705 -4.83325e-22)
(0.000764084 0.00126128 8.45665e-22)
(0.00046916 0.000815794 3.78659e-22)
(4.64093e-05 -5.37732e-07 5.73481e-23)
(0.000562259 0.00105828 -9.15567e-22)
(0.000586508 0.000936972 6.47806e-22)
(0.000789597 0.00125827 4.16301e-24)
(0.000670488 0.00163588 0)
(2.11528e-05 -3.37927e-05 -9.66112e-22)
(0.00059952 0.000917868 -1.38122e-21)
(0.000626205 0.00110816 0)
(0.000515374 0.000815604 -7.54005e-22)
(0.000358264 0.000834689 0)
(0.000344559 0.000856769 1.26933e-21)
(0.000603263 0.00113426 6.97268e-22)
(0.000899904 0.00107743 -7.85929e-22)
(0.000594997 0.00102593 0)
(0.000769933 0.0013491 1.20596e-21)
(0.000703674 0.00112627 3.24585e-22)
(0.000475901 0.000910439 4.93539e-22)
(0.000530482 0.000988669 -8.65041e-22)
(0.00046857 0.000935439 -3.95018e-22)
(0.000761596 0.00129149 3.61368e-22)
(0.000339888 0.00111059 -2.60393e-21)
(0.000240068 0.000841373 -6.99024e-22)
(0.000443568 0.000877994 -7.38603e-22)
(0.00072871 0.000124094 -5.85376e-22)
(0.000635435 0.000469706 2.90268e-21)
(0.000911513 0.000246109 -2.53971e-22)
(0.000489798 0.000935077 -7.00991e-24)
(0.000375409 0.000546121 -1.24491e-21)
(0.000837527 0.000480118 2.2041e-21)
(0.000662068 0.00114729 -7.23341e-22)
(0.000533278 0.000908615 0)
(0.000562265 0.000956103 1.129e-21)
(0.000219069 0.000780633 0)
(0.000643921 0.00116383 -5.9684e-22)
(0.000673896 0.0011201 -1.51658e-23)
(0.000657195 0.000609669 -1.56715e-21)
(0.000433056 0.000830361 8.30896e-22)
(0.000644594 0.000725873 -1.44206e-21)
(0.000464365 0.000938597 -5.40809e-22)
(0.000383607 0.00047411 3.50021e-22)
(0.000613649 0.000655716 1.10984e-21)
(0.000815271 0.00127719 2.48161e-23)
(0.000573641 0.000910239 1.6022e-23)
(0.000583462 0.00113409 0)
(0.000387747 0.000884714 1.05127e-21)
(0.000615944 0.00115714 -1.89133e-21)
(0.000356191 0.000922889 -1.19704e-21)
(0.000649435 0.000667234 1.69468e-21)
(0.000218271 0.000466647 7.13361e-22)
(0.000610445 0.00121131 -5.30642e-22)
(0.000523423 0.00033195 0)
(0.000534961 0.000949465 -4.49234e-21)
(2.32285e-05 2.71533e-05 -7.22847e-22)
(0.000687271 0.0010826 -2.81689e-22)
(0.0006295 0.00116073 -2.79211e-21)
(0.00050453 0.000969015 3.69002e-21)
(0.00067412 0.00105845 0)
(0.000406261 0.000835564 -1.98168e-21)
(0.00037262 0.00127848 -1.34359e-22)
(0.000503882 0.00114209 1.28279e-23)
(5.17479e-05 0.000739744 0)
(0.00065617 0.000638974 -4.1367e-21)
(0.000624817 0.00107518 -2.7431e-22)
(0.000725844 0.00158419 1.64261e-24)
(0.000623058 0.000705315 -1.18943e-21)
(0.000536768 0.00104551 -1.47616e-21)
(0.000445799 0.000962698 -8.15949e-22)
(0.000548409 0.000966953 -6.62659e-24)
(0.000549168 0.00108263 -5.38547e-25)
(0.000920876 0.000214532 -2.85191e-22)
(0.000251886 0.000741011 -1.88306e-21)
(0.000638213 0.00100975 -7.87121e-22)
(0.000580516 0.000944783 -1.4568e-23)
(0.00054156 0.00104755 -3.7431e-22)
(0.000467371 0.0010029 -1.34148e-22)
(0.000491142 0.000934573 0)
(0.000758597 0.000229787 1.66878e-21)
(0.00056849 0.00097869 -7.12678e-22)
(0.000572762 0.000392091 9.36916e-22)
(0.000562697 0.0010522 2.29446e-21)
(0.000691957 0.000896724 0)
(0.00108856 0.000353551 1.1213e-21)
(0.000481692 0.000948201 -2.7119e-24)
(5.11015e-05 9.89876e-05 -9.23689e-22)
(0.000634453 0.000986177 0)
(0.000628469 0.000967788 9.39047e-22)
(0.000774146 0.00126428 -1.44892e-21)
(0.000576795 0.000967462 0)
(0.000546181 0.000934441 0)
(0.000740262 0.00122161 0)
(0.000956528 0.000351787 -1.03635e-21)
(0.000484794 0.000958972 0)
(0.00050689 0.000709593 -2.91698e-21)
(0.000359694 0.000884535 -3.52663e-21)
(0.00101172 0.00111342 -1.43255e-21)
(0.000690833 0.00111323 -3.05206e-22)
(0.000713198 0.0012985 1.86425e-25)
(0.000582671 0.000934646 9.40032e-22)
(0.0005437 0.00035387 -6.96411e-22)
(0.000568447 0.0010969 0)
(0.000474017 0.000681825 -9.36444e-22)
(0.000542378 0.000707677 1.26462e-21)
(3.43751e-05 -1.2973e-05 0)
(0.000396373 0.000909036 -3.61049e-22)
(0.000568485 0.000901289 3.17642e-22)
(0.000305841 0.000753116 0)
(0.000808612 0.000194851 7.09256e-22)
(0.000629328 0.000981788 0)
(0.000322508 0.00086975 4.63416e-22)
(0.000796357 0.00122678 1.85855e-21)
(0.000393076 0.000868497 -1.59349e-21)
(0.000500632 0.0010407 -1.1343e-22)
(0.000371661 0.000948503 -2.32543e-21)
(0.00047731 0.000587285 -2.55466e-21)
(0.000650106 0.000816632 -3.26045e-25)
(0.000416138 0.000973786 1.80942e-22)
(0.000693757 0.0011394 1.49391e-22)
(0.000583396 0.000350476 1.39668e-21)
(0.000679564 0.000782851 -3.74455e-21)
(0.000691809 0.00108334 0)
(0.000628282 0.00114258 9.18597e-22)
(0.000492817 0.000936713 -3.39756e-21)
(0.000295146 0.000877139 0)
(0.000858275 0.000304741 2.30961e-21)
(0.000491763 0.000921389 0)
(0.000681006 0.00121786 -2.22433e-22)
(0.000756951 0.00131147 -1.02105e-21)
(0.000785389 0.00123116 8.1217e-22)
(0.000789297 0.00126098 -1.32173e-21)
(0.000535224 0.00112755 -3.51175e-22)
(0.000443294 0.000226911 5.04172e-24)
(0.000507253 0.000451361 -1.88341e-21)
(0.000581313 0.000245028 0)
(0.000642787 0.00116931 1.79489e-21)
(0.000861695 0.000100206 -6.44878e-22)
(0.000603471 0.00101142 0)
(0.000560639 0.00108213 0)
(0.000177225 0.000390617 7.31698e-22)
(0.000526676 0.00108664 0)
(0.000627039 0.00108075 -4.01383e-21)
(0.000474318 0.000975653 7.91025e-22)
(0.000744253 0.00126835 1.22287e-21)
(0.000256224 -5.1334e-06 -7.54217e-22)
(0.00053163 0.000799735 -1.2754e-21)
(0.000144471 0.000470396 -9.92822e-22)
(0.000878011 0.00110921 -3.16024e-21)
(0.00055552 0.00105063 -3.28097e-22)
(0.000644668 0.00101114 2.24982e-21)
(0.000591516 0.00103791 -1.832e-22)
(0.000642301 0.000170382 -5.77211e-24)
(0.000868714 0.00120429 9.90988e-22)
(0.000521594 0.000984373 3.57556e-22)
(0.00060251 0.00103175 8.97927e-23)
(7.66164e-05 0.000514177 0)
(0.000533453 0.000990794 0)
(0.000499699 0.000921633 -2.05884e-21)
(0.000555589 0.00100722 7.79124e-23)
(0.000495763 0.000953273 -1.77549e-21)
(0.000512154 0.000934938 -3.27677e-24)
(0.00054339 0.000864305 0)
(0.000567438 0.000778851 -9.28544e-22)
(0.000768846 -8.75541e-05 -2.76338e-21)
(0.000564259 0.00041075 0)
(0.000534002 0.000925548 1.14503e-22)
(0.000582557 0.000943997 -7.33401e-23)
(0.000639909 0.000577861 2.57832e-21)
(0.000514451 0.000924004 1.92401e-24)
(0.00077248 0.00124875 -8.34744e-24)
(0.000413783 0.000942132 -6.65206e-22)
(0.000576386 0.00108718 -1.93885e-22)
(0.000571408 0.00115125 -1.20727e-22)
(0.000720196 0.00109295 0)
(0.000466217 0.00126968 2.08841e-21)
(0.000630373 0.00104161 1.55775e-21)
(0.000530979 0.00104096 -1.09679e-21)
(0.000345627 -4.11695e-05 3.38887e-25)
(0.000647894 0.00117295 -8.84188e-22)
(0.000447705 0.000825889 1.93476e-21)
(0.000355628 0.000151011 1.05446e-21)
(0.000596823 0.00104336 0)
(0.000551441 0.00095445 1.56105e-21)
(0.000331832 0.000737499 -3.12605e-22)
(0.00120439 -7.08053e-05 9.59117e-22)
(0.000297328 0.000780223 1.01068e-21)
(0.000760358 0.00124437 2.31147e-22)
(0.000593152 0.00104818 -9.11563e-22)
(0.000547282 0.00093462 -1.17936e-21)
(0.000487544 0.000923674 3.04533e-21)
(0.000755 0.00128661 7.76131e-22)
(0.000631668 0.000214535 -2.12954e-21)
(0.000554185 0.000176991 2.45172e-21)
(0.000611249 0.000116268 -2.54289e-21)
(0.000720528 0.00124982 5.22244e-23)
(0.000422004 0.000874786 -3.82565e-21)
(0.000639683 5.14589e-05 1.33643e-21)
(0.000631677 0.00111179 0)
(0.000750603 0.00132622 -7.92661e-22)
(0.000600618 0.000890108 1.43628e-21)
(0.000333943 0.000796151 -3.40727e-22)
(0.00025482 0.000411903 -1.72188e-22)
(0.000515814 0.000939471 9.58533e-24)
(0.000547061 0.00101844 3.63198e-22)
(0.000536273 0.000965262 -7.73749e-22)
(0.000497621 0.000942067 0)
(0.000548153 0.000908305 -1.37573e-21)
(0.000662453 -8.28074e-06 1.389e-21)
(0.000666611 0.0011783 -9.30247e-22)
(0.000608417 0.00115941 9.15533e-22)
(0.000960098 0.00118869 -4.46156e-23)
(0.000565446 0.000240482 0)
(0.000406925 0.000136129 -1.00845e-21)
(0.000644739 0.00103096 -1.74658e-23)
(0.000590953 0.00105078 -9.59885e-22)
(0.000545347 0.000998306 5.53407e-23)
(1.99157e-05 1.71009e-05 2.05043e-22)
(0.000589861 0.00103794 1.92148e-22)
(0.000390125 0.000802114 -1.55247e-21)
(0.000810816 4.05664e-05 1.33046e-21)
(0.000660291 0.000134852 1.27838e-21)
(0.00064558 0.0012929 -3.50969e-23)
(0.000476702 0.00119576 0)
(0.000694715 0.00108252 -1.53239e-21)
(0.000599511 0.000936375 0)
(7.35742e-05 -3.52223e-06 1.08375e-21)
(0.000586705 0.00104014 -6.00478e-22)
(0.000566343 9.85857e-05 -1.59579e-21)
(0.000578579 0.00103088 -7.74345e-22)
(0.000487077 0.000973149 8.31288e-22)
(0.000422709 0.00091784 9.09732e-22)
(0.000753407 0.00128713 -8.53236e-22)
(4.8878e-05 0.000141193 3.47891e-21)
(0.00074906 0.0012534 3.28997e-22)
(0.000806192 0.000110469 0)
(0.000537782 0.0011293 1.48673e-22)
(0.000434391 0.000725902 8.48247e-24)
(0.000535677 0.000952264 0)
(0.000616387 0.00040593 -3.71659e-21)
(0.000824751 -1.00298e-05 0)
(0.000595502 0.00103011 1.73096e-22)
(0.000485765 0.000931166 1.10994e-21)
(0.000638776 0.00113463 -2.62598e-21)
(0.00057928 0.00100312 -2.44619e-22)
(0.000814985 0.000150696 -1.52616e-22)
(0.000493471 0.000956233 0)
(4.55871e-05 0.000356803 -2.19661e-22)
(0.00074153 0.00134706 0)
(0.000178512 0.000372613 0)
(6.47517e-06 0.00080211 -5.44864e-22)
(0.00047328 0.00100686 -1.54279e-21)
(0.000653151 0.000185686 -1.15899e-21)
(0.000621437 0.00100255 1.53995e-21)
(0.000373919 0.000863727 2.72954e-22)
(0.000747528 0.00109099 -1.76463e-21)
(0.000593921 0.00118077 0)
(0.000529844 0.000985443 6.30192e-22)
(0.000741617 0.00136867 0)
(0.000745064 0.00134097 -1.41085e-23)
(0.000524244 0.00101206 1.84953e-21)
(0.000510636 0.000911877 1.61261e-22)
(0.0005462 0.000658881 3.14939e-21)
(0.000490596 0.000379821 1.95468e-21)
(0.000390541 0.000923547 0)
(0.00053456 0.000987107 -1.98812e-22)
(0.00082745 0.00134587 0)
(0.000538305 0.000958831 0)
(0.000568918 0.000994329 -1.98753e-21)
(0.00108204 0.000197847 1.07725e-21)
(0.000647434 0.00118679 0)
(0.000193906 9.38264e-06 1.43885e-21)
(0.000484007 0.000832864 -1.38293e-22)
(2.57712e-05 0.000120736 1.6679e-21)
(0.000672616 0.000472938 -1.58344e-22)
(0.000661872 0.00112507 8.60918e-22)
(0.000737109 0.00109419 1.65755e-21)
(0.000665172 0.00103137 -8.24533e-22)
(0.000525412 0.00113391 0)
(0.00051554 0.000989747 9.35351e-22)
(3.25405e-05 0.000403861 5.65456e-23)
(0.000535559 0.000926227 -7.22119e-22)
(0.000478757 0.000968692 -4.3881e-22)
(0.000730682 0.00132146 -6.92481e-22)
(0.000750383 0.00129142 -4.52296e-24)
(0.000564643 0.000965144 0)
(0.000648336 0.00116751 8.5432e-22)
(0.000709003 0.00110423 -1.42456e-21)
(0.000552517 0.000989155 3.5502e-22)
(0.000799709 0.000314776 8.01834e-22)
(0.000523183 0.000983833 1.29963e-21)
(0.000558313 0.000983098 0)
(0.000519746 0.00103179 0)
(0.0005027 0.000972411 8.59863e-22)
(0.000535137 0.000927856 -1.86391e-22)
(0.000567802 0.000934202 1.85684e-21)
(0.000580018 0.00104904 0)
(0.000600636 0.000891576 7.61046e-22)
(0.00104698 0.000391881 2.28592e-23)
(0.000576528 0.00104808 4.44367e-22)
(0.000531488 0.000935965 -1.35482e-21)
(0.000564695 0.00068334 9.27819e-22)
(0.000575097 0.00102057 -1.3548e-21)
(0.000666548 0.00114399 -2.07142e-24)
(0.000726353 2.54111e-05 -2.29956e-21)
(0.000529313 0.00106059 3.1819e-22)
(0.000417671 0.00115745 0)
(0.000536286 0.000998581 -1.78691e-21)
(0.000430164 0.000955534 1.26296e-24)
(0.000500187 0.00122739 0)
(0.000337212 0.000865656 1.15848e-21)
(0.000547249 0.000987155 -1.70317e-21)
(3.4789e-05 -9.70313e-07 2.33158e-21)
(0.000345021 0.00125662 -1.46111e-21)
(0.000574406 0.00104576 -8.95224e-22)
(0.000688101 0.000408812 7.29015e-22)
(0.000536274 0.000945587 6.55424e-22)
(0.000570292 -0.000386128 -1.57583e-22)
(0.000741356 0.000124927 0)
(5.99305e-05 -4.37241e-07 0)
(0.000509115 0.0009563 -2.32176e-21)
(3.50237e-06 2.32066e-05 1.11494e-22)
(0.000570466 0.00104121 1.48895e-21)
(0.000564487 0.00092649 1.79098e-22)
(0.000529208 0.000946991 1.65461e-22)
(0.000591907 0.00100565 2.89136e-22)
(0.000505887 0.00105606 9.68374e-22)
(4.36634e-05 2.17786e-06 -2.51268e-22)
(0.000611077 0.00112975 -1.50002e-21)
(0.000573774 0.000960491 -2.63408e-22)
(0.000294648 5.76944e-05 0)
(0.00050121 0.00097118 7.60521e-22)
(5.11447e-05 -7.43103e-06 0)
(0.000632589 0.00100406 -1.54947e-21)
(3.84702e-06 -6.32818e-05 0)
(4.58901e-05 -6.36027e-06 0)
(0.000650441 0.00113548 5.10858e-22)
(0.00051979 0.000973528 7.66102e-22)
(0.000376915 0.000587462 -2.92403e-22)
(0.000540645 0.00091192 -1.22168e-21)
(0.000571677 0.000975117 -1.07732e-21)
(0.000625226 0.00102517 -7.48246e-22)
(4.25874e-05 0.000226005 -4.3646e-22)
(0.000793731 0.000122058 0)
(0.000740608 0.00135173 0)
(0.000689281 0.00123781 -9.18179e-22)
(0.000543376 0.000985249 9.67772e-22)
(0.000594013 0.00103513 0)
(0.000544406 0.00100095 -2.67218e-21)
(0.000537664 0.000849286 -2.91307e-21)
(0.000572471 0.00107203 0)
(0.000497259 0.000950786 0)
(0.000526195 0.000958042 -3.60837e-22)
(0.000407148 0.000307632 7.49789e-22)
(0.000543534 0.000773777 1.58869e-24)
(0.000561753 0.000965849 -2.17686e-22)
(0.000655161 0.00113498 3.60203e-22)
(0.000531673 0.000988196 1.04798e-21)
(0.000549255 0.000971594 -1.08114e-21)
(0.000798301 0.00129423 -2.23935e-21)
(0.00049625 0.000938289 7.12407e-23)
(0.00061276 0.000350277 -3.89049e-21)
(0.000520027 0.00110828 -1.58516e-23)
(0.000567391 0.000963264 -2.99198e-22)
(0.000627222 0.00116349 -1.3094e-23)
(5.03833e-05 7.69646e-06 -5.06908e-23)
(2.21382e-05 0.000101157 -1.64447e-21)
(0.000519204 0.000945174 1.22136e-21)
(0.00055471 0.000990511 -1.11061e-21)
(0.000803617 0.000807039 0)
(0.000559725 0.000942696 1.32062e-21)
(0.000520829 0.00110989 -6.03558e-23)
(0.000608143 0.00117107 -1.1778e-22)
(0.000593608 0.00108114 -2.28844e-21)
(1.45488e-05 8.25408e-05 -6.47394e-22)
(0.000639785 0.00113798 0)
(0.00057377 0.00103369 0)
(0.000526272 0.000986845 8.5846e-22)
(-5.95793e-06 3.69859e-05 5.5938e-24)
(0.00050137 0.00101572 0)
(0.000796535 0.00130017 9.32035e-22)
(0.000559702 0.000944709 1.41744e-21)
(7.13893e-05 0.000243921 0)
(0.000667598 0.00110363 0)
(4.849e-05 1.18417e-05 4.93474e-23)
(0.000532905 0.000973246 2.52107e-21)
(0.000348161 0.000929976 1.20552e-21)
(0.000797731 0.00127759 6.06437e-22)
(0.000561037 0.00103314 -4.2675e-22)
(0.000523582 0.000976736 -3.13425e-22)
(0.000569417 0.000959785 0)
(0.000514443 0.000985937 -9.14016e-22)
(0.000592406 0.00103551 0)
(5.48196e-05 -2.21073e-05 -9.3643e-22)
(0.000768464 0.00127142 -2.87251e-21)
(0.000759434 0.00131248 1.56667e-21)
(2.10981e-05 0.000125928 2.66854e-21)
(5.851e-05 -1.1705e-05 0)
(0.000732056 0.00130647 7.66806e-22)
(0.000612619 0.00114392 2.56068e-24)
(0.000534222 0.000974713 1.09416e-22)
(0.000562754 0.000978328 -4.80948e-22)
(0.000530944 0.0010362 1.24707e-22)
(0.000557681 0.000947049 -1.83382e-21)
(0.000556553 0.000995998 -9.16069e-22)
(0.0004673 0.00139713 -1.2397e-23)
(0.000594934 0.00104059 8.24689e-22)
(0.000494713 0.000908027 -1.83199e-22)
(6.95515e-05 0.000287984 0)
(3.04524e-05 2.09377e-05 3.86356e-22)
(0.000678057 0.00129953 -8.90579e-22)