/*--------------------------------*- C++ -*----------------------------------*\
  =========                 |
  \\      /  F ield         | OpenFOAM: The Open Source CFD Toolbox
   \\    /   O peration     | Website:  https://openfoam.org
    \\  /    A nd           | Version:  7
     \\/     M anipulation  |
\*---------------------------------------------------------------------------*/
FoamFile
{
    version     2.0;
    format      ascii;
    class       surfaceScalarField;
    location    "30.5";
    object      phi;
}
// * * * * * * * * * * * * * * * * * * * * * * * * * * * * * * * * * * * * * //

dimensions      [0 3 -1 0 0 0 0];

internalField   nonuniform List<scalar> 
1111
(
6.15151e-09
1.33476e-08
-1.54835e-08
-4.01566e-09
6.31023e-09
-1.16199e-08
1.14612e-08
-1.46043e-08
4.60069e-09
9.6563e-09
3.47331e-10
2.53442e-10
-3.06751e-10
-1.40399e-08
1.40932e-08
-1.39315e-08
1.37362e-08
4.48714e-10
-1.48425e-09
1.48603e-08
2.05251e-09
-4.06791e-09
9.65942e-09
-1.11216e-08
5.5301e-09
-6.5957e-09
-1.25531e-08
1.25153e-08
6.63355e-09
-5.09954e-08
-2.56408e-08
7.66362e-08
-8.07136e-09
7.48853e-09
6.89306e-09
3.69803e-09
3.54286e-10
-3.7702e-09
-2.82116e-10
1.57521e-08
-1.57987e-08
-2.28041e-08
2.28507e-08
-9.62206e-09
-8.14108e-09
8.86849e-09
8.89465e-09
-3.49849e-08
1.73507e-08
-3.19213e-08
4.95555e-08
9.56214e-09
-1.89444e-09
-1.42634e-08
-2.96276e-09
3.27219e-09
-3.7177e-09
3.40826e-09
-3.70168e-09
1.31411e-08
1.97212e-09
-1.14115e-08
8.88733e-09
-2.15222e-09
-1.50371e-08
8.30195e-09
3.8298e-08
-3.10968e-08
-7.20128e-09
-1.9177e-08
-9.89763e-11
1.75635e-08
1.71246e-09
-4.79335e-10
3.86704e-09
-1.79688e-08
1.45811e-08
-6.12023e-08
-3.94439e-09
6.51467e-08
1.91851e-10
-1.37299e-09
-3.97023e-10
1.57816e-09
-1.07046e-09
-1.33404e-08
-2.36872e-10
-3.54331e-10
3.37142e-10
2.54062e-10
-9.95996e-09
-8.06015e-09
1.23273e-08
5.69281e-09
8.13411e-10
-2.19401e-09
-8.51766e-09
9.89826e-09
7.76126e-09
1.04813e-09
-8.55027e-09
-2.59114e-10
-2.79439e-09
-7.76332e-09
1.0732e-08
-1.74274e-10
1.13039e-08
-3.47911e-10
-2.06867e-09
-1.08444e-09
1.05274e-09
1.21134e-10
-8.94333e-11
-3.89988e-10
9.54394e-10
5.5997e-10
-1.12438e-09
-6.76227e-10
-4.53544e-11
7.19714e-10
1.86722e-12
3.52811e-11
-1.11628e-09
8.86151e-11
9.92381e-10
-3.23121e-11
-1.01685e-09
6.45538e-10
-1.81986e-08
-1.62394e-09
-5.84306e-10
6.7188e-11
-1.59108e-10
1.33482e-08
-1.33152e-08
3.834e-09
-4.72022e-10
6.84343e-10
4.55046e-10
-6.67367e-10
-7.06481e-10
-2.60056e-09
1.97772e-09
1.32932e-09
-2.06743e-09
8.86199e-09
-1.08625e-08
-4.47548e-10
-2.24408e-10
8.76508e-11
-8.79055e-09
1.00329e-08
-9.31372e-09
1.17415e-08
-1.68023e-08
5.14015e-09
-7.93613e-11
1.10388e-10
-2.39948e-10
-3.17988e-10
3.04689e-10
9.58658e-10
-2.10606e-10
-5.9887e-08
7.43519e-08
-1.44649e-08
1.20242e-09
-4.11323e-10
-1.39723e-09
6.06134e-10
1.0132e-09
1.02795e-08
-1.36701e-08
2.37736e-09
-4.58598e-10
6.69631e-09
-8.09305e-09
1.85534e-09
-6.38265e-09
5.82726e-09
5.42708e-09
-4.87169e-09
-6.92528e-09
-2.39106e-09
2.24947e-09
7.06688e-09
-1.9731e-10
-9.08897e-08
9.12923e-08
-2.05273e-10
-2.38829e-10
-8.97495e-08
9.01434e-08
-1.55081e-10
8.30627e-08
-1.49927e-09
1.05309e-10
-8.16687e-08
-3.26823e-09
-3.21806e-11
8.71497e-10
9.60013e-10
-6.29093e-10
4.09598e-09
-1.85998e-09
3.2581e-09
-5.49409e-09
-1.17278e-09
1.06614e-09
-1.49882e-08
6.58152e-09
9.10303e-09
1.01068e-09
-9.78987e-09
-3.23835e-10
-6.2816e-09
1.27222e-08
1.51916e-09
-7.95975e-09
1.42051e-08
-3.91975e-09
3.18478e-09
-1.34701e-08
1.53994e-08
1.712e-09
-1.68256e-09
-3.67183e-10
-1.98874e-08
-7.39992e-09
2.76545e-08
1.35869e-08
-8.17237e-09
-2.29419e-09
7.55094e-09
-1.15384e-08
-1.53508e-10
3.10625e-10
-1.55434e-09
-3.71511e-08
-2.27359e-08
7.90067e-09
-6.14301e-11
3.90224e-09
-6.84458e-09
1.06374e-08
6.2401e-09
-7.34058e-10
4.25592e-10
5.94037e-10
-2.85571e-10
5.97162e-09
-4.57843e-09
3.52263e-09
-4.91582e-09
-6.99754e-10
-7.45702e-10
3.29179e-10
8.67222e-10
-8.2396e-10
-2.21124e-10
-1.2353e-09
1.06643e-09
-1.73751e-08
2.4879e-09
1.4213e-09
1.34659e-08
3.25852e-10
-8.64262e-10
-1.95647e-10
-3.71342e-09
-1.46838e-08
1.02215e-09
5.6714e-09
1.16493e-08
-5.24679e-09
-1.20739e-08
1.63939e-08
5.47396e-10
-1.58634e-08
-1.07782e-09
-8.21033e-10
5.86963e-10
6.59663e-10
-1.01876e-09
5.54185e-10
4.6457e-10
-7.0211e-09
-3.84632e-09
4.48477e-09
-4.34627e-10
6.22849e-10
-1.88222e-10
1.31779e-09
-1.49912e-08
-7.12425e-10
8.68794e-09
-1.00429e-08
-1.20515e-09
-1.23988e-09
1.24753e-08
4.40153e-09
-4.16343e-09
-1.27134e-08
3.17314e-10
6.92051e-09
-7.60367e-09
6.51042e-09
-2.0052e-09
-8.36015e-09
7.70646e-09
2.6589e-09
-1.78874e-09
5.90961e-10
-1.34861e-08
-2.68836e-10
-1.65791e-10
-5.60506e-10
1.30734e-09
-7.67212e-09
7.88697e-10
1.72125e-08
-1.60736e-09
-1.46339e-08
1.58223e-08
-1.18837e-09
1.18626e-08
1.4034e-08
-1.561e-08
-1.02865e-08
-8.93916e-10
1.49195e-09
-5.98039e-10
1.54774e-09
-1.99624e-09
4.48508e-10
2.70272e-09
-3.95141e-09
1.24869e-09
2.0086e-09
-1.68381e-09
-3.24788e-10
-1.20353e-08
2.66516e-10
1.17688e-08
2.75875e-09
-7.50149e-10
8.83291e-09
-1.50468e-08
6.44846e-09
-7.46756e-09
1.03383e-10
4.03662e-09
-4.41973e-10
-3.11303e-09
3.21642e-09
-7.71521e-09
9.07939e-09
-1.36418e-09
-9.38637e-10
4.07358e-09
9.61036e-10
1.70606e-08
-1.45223e-08
-1.52506e-09
-5.34417e-09
5.10778e-09
-1.62359e-09
-2.71065e-10
6.9018e-09
-6.89176e-09
-1.00316e-11
7.07904e-09
4.31966e-09
3.07858e-10
-1.56453e-08
1.03082e-08
1.71997e-08
5.67577e-09
8.32378e-09
8.21148e-09
-6.74636e-09
6.76121e-10
-1.27114e-08
1.43669e-09
-8.45585e-11
-1.26974e-08
3.65795e-09
-4.41528e-10
1.38452e-08
-1.32978e-08
-9.26716e-11
-1.14479e-09
-1.35951e-08
7.0634e-09
9.61023e-10
-5.80736e-11
-8.95361e-09
5.31593e-09
-3.1464e-08
-1.25666e-08
-2.31864e-09
1.29016e-09
1.36594e-08
1.09976e-08
-1.06681e-08
-1.3989e-08
1.64994e-08
-3.11253e-09
-1.33869e-08
1.791e-09
3.82223e-09
-1.50277e-09
-1.00516e-09
-1.0674e-09
1.39992e-09
6.72641e-10
-3.18544e-10
4.51876e-10
4.60707e-10
6.22633e-08
-6.23056e-08
4.22987e-11
6.20933e-08
-6.24409e-08
3.47576e-10
8.90991e-10
6.47732e-08
-6.55976e-08
8.24406e-10
6.41693e-08
6.03934e-10
-1.77561e-10
-6.65405e-08
9.42924e-10
-6.20387e-08
6.19336e-08
1.05097e-10
1.32431e-09
-6.78648e-08
-6.2175e-08
1.36303e-10
1.20208e-08
-1.20702e-09
1.8339e-09
-3.74792e-09
3.12105e-09
4.63479e-10
-1.32885e-09
1.19518e-09
-8.69366e-10
1.52806e-09
-1.81359e-09
1.1549e-09
1.59208e-09
-1.76643e-09
4.84974e-10
-1.13844e-10
-3.3051e-09
3.13576e-09
-2.41162e-09
2.58096e-09
-9.3645e-10
-2.92079e-09
2.65021e-09
-3.9321e-09
-5.51801e-09
6.77372e-10
-7.84756e-10
1.50441e-09
1.21884e-09
-6.62309e-09
8.01653e-09
2.92622e-09
2.07769e-08
-4.2775e-09
-8.51347e-10
3.05531e-10
1.22319e-09
-1.02544e-08
-2.68967e-08
5.50416e-09
-4.52307e-09
-3.08395e-09
2.10286e-09
1.4055e-10
6.84988e-12
5.72315e-10
-2.87514e-09
3.5605e-09
8.56687e-09
9.497e-10
-6.36726e-10
2.25929e-09
-2.55901e-09
2.35103e-09
1.46288e-08
1.30646e-08
-2.66351e-08
3.21328e-08
6.11978e-09
-2.26007e-08
-1.01541e-08
1.7884e-08
-1.75324e-08
1.06461e-08
-3.06015e-10
2.64865e-11
-1.4869e-09
-1.96535e-09
-2.15113e-09
3.71751e-09
1.4574e-08
-5.72678e-10
-1.34103e-08
1.42905e-10
-2.93141e-09
-1.32281e-10
1.51812e-08
1.73316e-08
1.35042e-08
7.47985e-10
-1.53117e-09
-1.2721e-08
-1.95303e-09
5.97313e-09
1.21735e-08
-8.6456e-10
-1.29707e-09
-3.50307e-09
2.72982e-09
3.90901e-09
2.4037e-09
1.40538e-08
4.12921e-09
-1.37814e-08
1.72671e-08
-1.67096e-09
2.92154e-09
-3.68428e-09
1.89103e-09
-4.48271e-09
1.27553e-08
-1.19743e-08
-1.37677e-08
6.19828e-10
8.66513e-09
-1.94194e-09
1.64235e-09
1.804e-09
-8.82017e-09
4.81174e-10
-4.22766e-09
-5.972e-09
1.20892e-08
-1.49373e-08
1.47225e-09
1.64307e-09
-2.11318e-09
1.62597e-08
-1.57896e-08
-9.69534e-10
1.39011e-08
2.61285e-09
-3.87719e-09
-1.37825e-08
7.24544e-09
-1.6847e-08
-7.93083e-09
6.43774e-09
5.82452e-09
1.42024e-08
-9.41895e-09
3.18236e-09
8.8955e-09
9.80026e-09
3.89203e-09
-4.09076e-09
2.13509e-08
-1.86954e-08
4.5899e-09
-9.91845e-09
2.2905e-09
5.26831e-09
1.34201e-08
-8.00761e-11
1.23997e-08
-1.32891e-08
-1.63783e-09
2.60945e-09
-1.7848e-09
8.13184e-10
1.07108e-08
-6.3354e-09
7.27385e-09
-1.03133e-08
1.40555e-09
-4.75581e-09
1.1133e-08
-1.1624e-08
-7.41236e-09
8.89854e-09
9.22467e-09
1.25036e-08
9.74006e-10
-1.35577e-08
1.75324e-09
8.65516e-10
-1.08072e-08
-6.72807e-09
1.01229e-08
-1.81597e-09
2.52541e-09
-8.66227e-09
4.69487e-09
-5.10132e-09
1.11901e-08
-3.49071e-09
-1.13518e-08
3.65241e-09
-4.53896e-09
1.09733e-08
2.1687e-09
1.22689e-09
-4.98874e-09
-1.7462e-08
1.04072e-08
1.20436e-08
9.00529e-10
-1.06612e-08
-9.6234e-09
1.52959e-08
1.20847e-08
2.69265e-09
-9.509e-09
-1.31759e-08
-2.63444e-10
-1.23989e-08
3.1112e-10
-6.14631e-10
1.10355e-08
1.23576e-08
-8.05012e-09
1.60786e-08
-1.53901e-08
3.44066e-09
-4.89369e-10
1.64673e-09
1.23085e-08
-3.85617e-09
-1.23812e-08
-5.12341e-09
5.48156e-10
4.4907e-09
1.18426e-08
-7.49194e-09
7.80447e-10
-1.12658e-09
1.79016e-09
-2.30142e-09
6.00828e-09
2.59887e-08
-7.15573e-10
-1.28289e-08
1.35445e-08
2.77868e-08
-2.18775e-08
2.19853e-08
1.91846e-08
-1.24593e-08
-2.55423e-09
1.47844e-08
1.10991e-10
-1.19689e-08
-3.18985e-10
-6.00963e-09
-1.99866e-09
2.43437e-09
1.73299e-09
1.78393e-10
-1.06724e-08
1.07291e-08
-2.35155e-10
2.25103e-09
-5.5191e-09
-1.04994e-08
1.0191e-08
-6.40578e-10
-1.02874e-08
-1.05595e-11
-1.04199e-08
-2.92659e-09
-1.173e-08
2.30649e-09
7.71743e-09
5.05615e-09
2.754e-10
-1.1421e-08
1.1324e-08
7.02737e-10
-8.39949e-09
5.28059e-09
-7.56707e-10
2.76741e-09
-3.34583e-09
-1.28922e-08
-1.337e-08
1.29298e-08
-9.90489e-09
-1.579e-08
1.00496e-08
9.00338e-09
8.42063e-10
2.58266e-09
-1.54116e-08
1.07492e-08
1.69188e-09
4.05651e-09
3.99463e-10
-6.46277e-10
-4.5294e-10
-4.01022e-09
2.73937e-09
-1.66056e-09
4.02518e-10
-4.69905e-10
6.73867e-11
-2.47571e-09
1.24748e-08
2.08556e-09
2.5403e-09
-1.14311e-09
-1.89078e-09
-4.80822e-11
-2.6156e-09
-7.62073e-10
1.25911e-08
9.70856e-09
-5.39709e-10
7.14512e-09
-1.1851e-09
-5.42032e-09
-9.67228e-09
-5.09707e-09
3.15178e-10
8.73402e-11
4.53538e-09
1.41126e-09
-1.66079e-08
-6.50218e-10
-9.60042e-10
-2.18126e-09
7.78359e-10
2.56027e-09
6.20663e-08
-1.38644e-10
-6.19277e-08
6.23309e-08
1.84689e-10
-6.25156e-08
-1.41526e-08
1.27351e-10
1.45028e-08
-4.77561e-10
2.60048e-09
-2.11183e-09
2.85125e-09
1.78599e-09
-4.39693e-09
-5.83347e-10
-6.73334e-10
5.4623e-10
-1.58466e-10
6.53888e-10
-4.78831e-10
1.88216e-08
1.119e-09
-1.54052e-08
-3.42099e-10
-1.96069e-09
1.20776e-08
2.1916e-09
1.74793e-09
5.04596e-09
-1.7679e-09
-7.72755e-08
-2.41845e-08
-4.82173e-09
1.56274e-08
2.33539e-09
-8.61703e-10
-3.41446e-09
-1.42063e-09
7.63418e-10
-6.39863e-10
-1.27023e-08
-3.08274e-10
1.30105e-08
-1.05816e-08
-6.67088e-09
1.05244e-08
-9.21078e-09
8.87229e-09
-2.03934e-10
1.95168e-09
1.21816e-08
-1.18961e-08
-2.85426e-10
7.78808e-10
5.70475e-11
9.58653e-09
1.13203e-09
-1.22784e-09
-3.96724e-10
-1.41928e-08
-5.20692e-10
-1.33092e-08
1.20074e-08
-1.13734e-08
-6.60314e-08
6.49674e-08
1.06403e-09
5.27339e-10
-5.20489e-10
1.15737e-08
-4.91837e-10
2.19332e-11
-1.89477e-09
2.76221e-09
-3.36576e-09
-1.35169e-08
-1.6546e-09
2.56111e-09
-4.64294e-09
-1.37534e-08
1.78848e-09
5.61791e-09
9.37124e-09
-8.70277e-09
-5.20976e-10
2.91397e-11
-9.36362e-09
-1.25498e-08
1.55852e-10
-6.27621e-08
2.26683e-10
6.25354e-08
6.93941e-10
6.34753e-08
-2.39283e-10
-8.23149e-10
-1.42872e-08
1.19331e-10
-6.33692e-08
6.32499e-08
1.82988e-10
-6.29038e-08
6.27209e-08
5.78679e-10
6.1824e-08
1.60222e-10
-6.19842e-08
6.16433e-08
1.80741e-10
-8.78763e-08
8.84874e-08
-7.12112e-12
9.33771e-08
-9.30694e-08
-2.65435e-10
-8.66196e-08
-4.32348e-10
9.33644e-08
-1.64855e-10
-8.4905e-08
-7.7169e-10
9.35029e-08
2.09084e-10
-5.17956e-10
1.99758e-09
9.23963e-08
-6.93641e-08
6.21925e-08
-6.23898e-08
-6.30009e-08
6.14807e-08
1.62576e-10
-2.98877e-09
2.67e-09
-1.34627e-08
9.35786e-11
2.216e-10
2.41309e-09
9.8037e-09
-1.19559e-08
3.82116e-08
-3.4453e-08
-1.6456e-08
1.39443e-08
-9.01706e-11
-2.1607e-10
3.2631e-10
9.56812e-10
-1.93509e-10
4.21196e-10
4.68403e-09
1.05783e-09
-3.85084e-09
-4.51431e-10
5.1862e-10
-3.6378e-10
-2.39382e-09
1.26823e-08
2.18633e-09
-1.44321e-08
-2.27402e-09
-3.77353e-09
5.69658e-09
1.09031e-09
-2.40677e-09
1.40557e-08
-1.24176e-09
-4.48048e-09
6.90335e-09
-7.88352e-09
-1.89947e-08
-1.29293e-08
7.63794e-09
5.91121e-09
-3.24245e-10
-5.16165e-10
3.27478e-09
1.43398e-08
1.75337e-09
-1.23289e-09
-4.88791e-10
5.26101e-10
-3.08375e-10
1.59163e-08
-4.53182e-10
-1.57713e-08
-4.33499e-09
-2.57918e-09
2.87298e-10
-2.34467e-10
4.27986e-09
-1.81803e-08
6.64867e-10
-1.73295e-09
-2.36149e-09
-2.2863e-09
1.51754e-08
-9.0561e-08
-1.45679e-10
9.16852e-08
-2.08202e-10
-8.91557e-08
-4.7439e-10
9.3056e-08
-3.05725e-10
-9.28889e-08
-6.54582e-10
-1.82852e-09
1.60821e-08
9.20012e-08
-1.90985e-10
2.56095e-11
-2.52709e-10
1.10515e-08
2.17739e-09
-9.77094e-09
-1.18277e-08
-5.58144e-09
8.45883e-09
1.38257e-09
-6.91518e-09
-6.46733e-09
9.09833e-09
-2.53391e-10
1.01569e-08
1.91652e-08
-1.76323e-08
3.01212e-09
-1.23889e-08
3.01983e-09
-7.00823e-08
4.05087e-09
-2.03262e-08
-1.2632e-08
-6.20631e-10
-5.7816e-09
-1.53934e-08
9.20602e-09
-1.5173e-08
5.9663e-10
5.05552e-10
-1.47208e-09
-1.60669e-08
1.66322e-08
9.42361e-09
-9.45579e-09
-5.51929e-09
1.48333e-08
-1.61103e-09
8.33452e-10
-1.51738e-09
5.89942e-10
1.21792e-08
3.41664e-09
7.09352e-08
-1.79015e-08
9.55699e-10
-1.45724e-08
-3.1629e-10
-3.60721e-10
-2.19277e-10
6.0878e-08
-6.11837e-08
-6.33436e-08
-6.30948e-08
-5.92443e-12
-2.97007e-10
-9.25859e-08
-6.0404e-08
6.24016e-08
6.50727e-08
-6.01949e-08
6.45548e-08
-6.03598e-08
6.37831e-08
-6.06253e-08
6.33507e-08
9.23183e-08
3.99384e-10
-6.55392e-09
7.49827e-08
-6.50121e-08
1.244e-10
-1.244e-10
2.0564e-09
-3.83111e-10
1.54862e-08
-1.43639e-10
1.43639e-10
5.08264e-10
1.46103e-09
1.39678e-08
1.28874e-08
-2.67322e-09
3.66975e-09
6.39817e-09
1.93237e-09
4.76001e-10
-3.40415e-10
-2.87746e-09
1.43317e-08
1.48078e-08
-4.31905e-09
1.16068e-08
2.75376e-10
2.17587e-10
3.00282e-09
-1.03993e-09
-1.78918e-09
-5.93401e-09
-1.34835e-10
-4.9974e-10
1.52065e-08
3.81636e-10
1.73676e-10
1.64678e-08
-2.5588e-08
1.71494e-08
2.55096e-09
1.49881e-09
2.17446e-09
-3.5102e-09
1.89115e-08
-1.75758e-08
-1.44434e-10
9.08852e-10
-1.44488e-09
-7.91598e-08
-7.0809e-08
1.47689e-09
-1.14988e-09
7.35232e-10
2.28407e-08
1.83098e-08
-6.47977e-09
1.78436e-10
-4.50844e-09
-2.01185e-09
2.99215e-08
1.26252e-10
1.48739e-08
7.3578e-08
1.09751e-10
5.75148e-10
-2.28143e-10
-2.98369e-10
-3.89257e-09
2.39639e-08
-1.47395e-08
1.23586e-09
-1.39997e-08
-9.72006e-11
2.01034e-08
-2.8274e-08
8.99906e-10
2.56836e-09
-7.01426e-10
)
;

boundaryField
{
    back
    {
        type            empty;
        value           nonuniform 0();
    }
    ingreso
    {
        type            calculated;
        value           nonuniform List<scalar> 
14
(
-1.54286e-08
-1.54288e-08
-1.54288e-08
-1.54288e-08
-1.54286e-08
-1.54283e-08
-1.54288e-08
-1.54288e-08
-1.54286e-08
-1.54286e-08
-1.54288e-08
-1.5428e-08
-1.5428e-08
-1.54286e-08
)
;
    }
    salida
    {
        type            calculated;
        value           nonuniform List<scalar> 2(1.0146e-07 1.1454e-07);
    }
    front
    {
        type            empty;
        value           nonuniform 0();
    }
    defaultFaces
    {
        type            calculated;
        value           uniform 0;
    }
}


// ************************************************************************* //
