/*--------------------------------*- C++ -*----------------------------------*\
  =========                 |
  \\      /  F ield         | OpenFOAM: The Open Source CFD Toolbox
   \\    /   O peration     | Website:  https://openfoam.org
    \\  /    A nd           | Version:  7
     \\/     M anipulation  |
\*---------------------------------------------------------------------------*/
FoamFile
{
    version     2.0;
    format      ascii;
    class       surfaceScalarField;
    location    "116";
    object      phi;
}
// * * * * * * * * * * * * * * * * * * * * * * * * * * * * * * * * * * * * * //

dimensions      [0 3 -1 0 0 0 0];

internalField   nonuniform List<scalar> 
1111
(
7.25011e-09
1.28105e-08
-1.60678e-08
-3.99279e-09
7.16823e-09
-1.1752e-08
1.18339e-08
-1.47223e-08
5.9725e-09
8.68851e-09
6.12966e-11
1.05089e-09
-1.22543e-09
-1.44093e-08
1.45839e-08
-1.43771e-08
1.42272e-08
1.20076e-09
-1.59956e-09
1.49162e-08
2.1119e-09
-2.35608e-09
9.16863e-09
-8.952e-09
2.13945e-09
-6.72429e-09
-1.26092e-08
1.25947e-08
6.73875e-09
-5.016e-08
-2.61255e-08
7.62855e-08
-8.07332e-09
7.73911e-09
7.50244e-09
3.18198e-09
3.87486e-10
-3.25696e-09
-3.12499e-10
1.58656e-08
-1.62807e-08
-2.32732e-08
2.36883e-08
-9.66713e-09
-7.90156e-09
8.80298e-09
8.7657e-09
-3.56065e-08
1.77437e-08
-3.23941e-08
5.0257e-08
9.48934e-09
-1.95791e-09
-1.42557e-08
-1.36528e-10
1.12547e-09
-2.36884e-09
1.37989e-09
-3.97545e-09
1.32573e-08
1.97333e-09
-1.12551e-08
8.80638e-09
-2.71288e-09
-1.50653e-08
8.9718e-09
3.71308e-08
-2.97953e-08
-7.33548e-09
-1.93943e-08
2.43517e-10
1.72192e-08
1.93153e-09
-1.08818e-09
4.22999e-09
-1.78282e-08
1.46864e-08
-6.12297e-08
-3.96105e-09
6.51908e-08
1.33317e-10
-1.05767e-09
-3.16129e-10
1.24048e-09
-1.82736e-09
-1.36379e-08
-4.59667e-11
-1.87605e-10
1.27916e-10
1.05656e-10
-1.04283e-08
-8.71391e-09
1.3339e-08
5.80324e-09
6.87301e-10
-2.15072e-09
-8.17384e-09
9.63726e-09
8.95038e-09
7.09786e-10
-1.00277e-08
3.6757e-10
-2.85747e-09
-8.16722e-09
1.12447e-08
-2.19992e-10
1.14173e-08
-1.11125e-09
-1.49964e-09
-7.1031e-10
7.26498e-10
-4.98801e-11
3.36918e-11
4.6217e-12
5.74769e-10
1.05405e-10
-6.84796e-10
-3.43885e-10
-4.11612e-11
3.74606e-10
1.04407e-11
-7.72635e-11
-6.56495e-10
1.1846e-10
6.15298e-10
-1.27009e-10
-6.60565e-10
1.04294e-09
-1.8344e-08
-2.09322e-09
-2.71586e-10
3.27255e-11
-1.05025e-10
1.33775e-08
-1.32485e-08
4.10096e-09
-3.19465e-10
4.97152e-10
2.86688e-10
-4.64375e-10
1.78231e-10
-9.11099e-10
8.12146e-10
-7.9279e-11
-1.72604e-09
1.07307e-08
-1.13608e-08
-1.83309e-10
-1.22491e-10
3.4214e-11
-8.69228e-09
1.07196e-08
-1.01006e-08
1.23e-08
-1.71259e-08
4.47579e-09
3.50068e-10
3.62259e-11
-1.14535e-10
-1.05001e-10
1.06783e-10
6.82112e-10
-6.23976e-11
-5.94904e-08
7.42234e-08
-1.47331e-08
9.38067e-10
-1.5831e-10
-1.02598e-09
2.46224e-10
1.12953e-09
1.03086e-08
-1.37135e-08
2.27534e-09
-2.00269e-09
7.97804e-09
-8.90693e-09
2.93158e-09
-6.8359e-09
5.5191e-09
5.76555e-09
-4.44875e-09
-8.01182e-09
-1.34207e-09
1.48213e-09
7.87177e-09
-1.80692e-10
-9.09134e-08
9.12989e-08
-2.04787e-10
-2.55916e-10
-8.97484e-08
9.0158e-08
-1.5374e-10
8.3079e-08
-1.49124e-09
1.09881e-10
-8.16976e-08
-2.66723e-09
-6.37804e-10
5.36317e-10
7.67049e-10
-3.65298e-10
3.85853e-09
-7.14951e-10
3.6215e-09
-6.76508e-09
-8.40536e-10
7.89008e-10
-1.4906e-08
6.56709e-09
1.01175e-08
1.08612e-09
-1.08978e-08
-3.05844e-10
-6.01388e-09
1.37063e-08
8.28081e-10
-8.52047e-09
1.44025e-08
-4.64099e-09
3.88036e-09
-1.36419e-08
1.53826e-08
1.67174e-09
-1.6255e-09
-1.6818e-10
-2.00895e-08
-7.44961e-09
2.77073e-08
1.46662e-08
-8.95597e-09
-1.80578e-09
8.11604e-09
-1.23241e-08
7.83386e-11
-4.79215e-11
-1.0564e-09
-3.60763e-08
-2.3414e-08
8.38955e-09
3.3914e-10
3.57134e-09
-6.9422e-09
1.14304e-08
6.23133e-09
-5.16064e-10
2.59965e-10
4.17165e-10
-1.61066e-10
5.62426e-09
-4.86388e-09
3.71521e-09
-4.4756e-09
-3.29165e-10
-5.54648e-10
2.27318e-10
5.35421e-10
-4.58123e-10
6.65695e-11
-5.84406e-10
5.22458e-10
-1.83412e-08
2.36665e-09
1.62765e-09
1.43469e-08
1.67382e-10
-5.95382e-10
-8.8064e-11
-4.30663e-09
-1.5238e-08
1.20341e-09
5.63182e-09
1.21459e-08
-5.24606e-09
-1.25316e-08
1.63514e-08
7.75854e-10
-1.58126e-08
-1.31462e-09
-5.94992e-10
3.76817e-10
4.7814e-10
-1.68454e-10
7.08472e-11
9.76071e-11
-7.57169e-09
-3.42686e-09
4.16266e-09
-1.51982e-10
2.48867e-10
-9.68851e-11
9.89919e-10
-1.57248e-08
-6.89202e-10
1.02987e-08
-1.13356e-08
-8.12078e-10
-1.01885e-10
1.30321e-08
4.5106e-09
-4.22725e-09
-1.33155e-08
2.48799e-11
7.27698e-09
-8.07601e-09
6.31813e-09
-1.51363e-09
-9.23682e-09
8.39191e-09
2.35854e-09
-1.9973e-09
7.13544e-10
-1.39542e-08
-7.54804e-11
-7.65021e-11
5.25207e-10
5.05937e-10
-9.04296e-09
8.0447e-10
1.72501e-08
-1.70315e-09
-1.16979e-08
1.31044e-08
-1.40652e-09
1.23272e-08
1.39092e-08
-1.54991e-08
-1.07373e-08
-4.10885e-10
7.94222e-10
-3.83337e-10
1.46297e-11
2.46004e-10
-2.60634e-10
-4.24235e-10
1.07629e-09
-6.52055e-10
1.17262e-09
-9.27538e-10
-2.45077e-10
-1.04687e-08
1.05643e-09
9.41227e-09
1.76417e-09
-5.91551e-10
8.98627e-09
-1.5433e-08
8.1343e-09
-9.61179e-09
7.31692e-11
3.52992e-09
-4.21111e-10
-2.15165e-09
2.22482e-09
-6.29764e-09
7.63482e-09
-1.33718e-09
-3.41533e-10
4.33377e-09
-1.33703e-10
1.7243e-08
-1.44767e-08
-1.63679e-09
-6.30186e-09
5.50304e-09
8.38717e-11
-1.62018e-10
5.61034e-09
-5.56675e-09
-4.35913e-11
6.7781e-09
4.61171e-09
-8.72556e-11
-1.58448e-08
1.05148e-08
1.76573e-08
5.86551e-09
8.18956e-09
8.14635e-09
-6.84753e-09
1.47891e-09
-1.19476e-08
-2.71446e-11
1.70332e-09
-1.30292e-08
2.64357e-09
-4.18744e-10
1.08934e-08
-1.01176e-08
-3.18943e-10
-6.20144e-10
-1.38418e-08
7.94268e-09
6.31781e-10
1.72086e-11
-8.87022e-09
4.93563e-09
-2.99635e-08
-1.25244e-08
-2.87493e-09
1.55754e-09
1.41495e-08
1.11429e-08
-1.08741e-08
-1.44183e-08
1.53367e-08
-3.20822e-09
-1.21285e-08
1.59052e-09
4.04967e-09
-7.69699e-10
-8.53911e-10
-7.55946e-10
1.03492e-09
5.74938e-10
-1.945e-10
3.09868e-10
3.01796e-10
6.21481e-08
-6.21744e-08
2.62316e-11
6.20674e-08
-6.23718e-08
3.04372e-10
8.37641e-10
6.473e-08
-6.55573e-08
8.27344e-10
6.41218e-08
6.08216e-10
-2.23619e-10
-6.65026e-08
9.45216e-10
-6.20641e-08
6.19293e-08
1.34779e-10
1.31426e-09
-6.78168e-08
-6.2224e-08
1.59873e-10
1.28481e-08
-4.50216e-10
1.07289e-09
-3.69545e-09
3.07277e-09
2.54501e-10
-1.11499e-09
7.97393e-10
-4.38339e-10
1.32741e-09
-1.53338e-09
6.44301e-10
1.3071e-09
-1.35737e-09
2.34913e-12
-2.59989e-11
-3.48698e-09
2.56626e-09
-1.78663e-09
2.70735e-09
-2.32027e-10
-2.6502e-09
2.43201e-09
-3.38901e-09
-5.92361e-09
5.44083e-10
-5.32981e-10
1.05619e-09
1.06862e-09
-6.38309e-09
7.82049e-09
3.17431e-09
1.97133e-08
-4.37662e-09
-6.27483e-10
2.70792e-10
9.00774e-10
-1.00566e-08
-2.60197e-08
5.19348e-09
-4.13554e-09
-3.22063e-09
2.16269e-09
7.88984e-11
2.64446e-11
2.69262e-10
-2.42445e-09
3.24466e-09
9.06645e-09
6.31527e-10
-5.39403e-11
2.01309e-09
-2.19117e-09
1.63558e-09
1.46987e-08
1.33599e-08
-2.69185e-08
3.27275e-08
6.30645e-09
-2.28661e-08
-1.03589e-08
1.8592e-08
-1.80851e-08
1.06359e-08
3.35343e-11
-2.87554e-10
-1.10335e-09
-1.58497e-09
-2.74227e-09
3.00397e-09
1.52349e-08
-6.59242e-10
-1.38621e-08
-1.03789e-09
-2.06016e-09
4.47852e-10
1.54964e-08
1.77943e-08
1.36847e-08
7.88116e-10
-1.7617e-09
-1.27112e-08
-1.34181e-09
5.9895e-09
1.26745e-08
-3.47638e-10
-9.33072e-10
-3.7069e-09
2.83831e-09
3.43486e-09
2.5256e-09
1.46385e-08
4.36191e-09
-1.44899e-08
1.82056e-08
-1.76725e-09
2.26244e-09
-3.23582e-09
1.9386e-09
-4.97419e-09
1.29073e-08
-1.19086e-08
-1.40586e-08
2.8925e-10
8.79519e-09
-1.74467e-09
1.45611e-09
1.34475e-09
-8.67023e-09
6.81493e-10
-4.53565e-09
-5.98834e-09
1.21651e-08
-1.4847e-08
9.12722e-10
1.69769e-09
-2.2027e-09
1.6927e-08
-1.6422e-08
-1.18381e-09
1.42093e-08
3.15422e-09
-4.53776e-09
-1.40495e-08
7.62043e-09
-1.75248e-08
-8.18073e-09
7.00036e-09
5.89824e-09
1.47298e-08
-1.02114e-08
2.97984e-09
9.59006e-09
9.77395e-09
3.91205e-09
-4.26138e-09
2.18767e-08
-1.93583e-08
5.10201e-09
-1.07903e-08
2.16946e-09
5.74682e-09
1.40864e-08
-4.37059e-10
1.28413e-08
-1.3588e-08
-1.94645e-09
1.42868e-09
-4.22432e-10
9.40204e-10
1.1132e-08
-6.35534e-09
7.36922e-09
-1.11835e-08
1.4793e-09
-4.73828e-09
1.15829e-08
-1.20907e-08
-7.59998e-09
9.29506e-09
9.43692e-09
1.30108e-08
4.67132e-10
-1.3915e-08
1.34174e-09
7.61794e-10
-1.12176e-08
-6.72041e-09
1.0338e-08
-1.21937e-09
2.50551e-09
-9.03556e-09
4.75089e-09
-5.38795e-09
1.17328e-08
-3.45291e-09
-1.19626e-08
3.68266e-09
-4.44609e-09
1.14406e-08
1.70736e-09
1.09049e-09
-5.09803e-09
-1.79597e-08
1.061e-08
1.24477e-08
6.78211e-10
-1.116e-08
-1.01038e-08
1.61657e-08
1.27401e-08
2.89878e-09
-9.89203e-09
-1.33626e-08
-3.19812e-10
-1.27542e-08
1.79937e-10
-7.71458e-10
1.18362e-08
1.25563e-08
-8.23602e-09
1.67956e-08
-1.61422e-08
3.70856e-09
-5.40155e-10
1.83248e-09
1.30546e-08
-3.94523e-09
-1.28137e-08
-4.88917e-09
2.03133e-09
4.56116e-09
1.24879e-08
-7.2371e-09
1.0331e-09
-1.70531e-09
2.38004e-10
-4.7915e-10
6.01252e-09
2.65001e-08
1.05464e-10
-8.89462e-09
8.78916e-09
2.8718e-08
-2.2462e-08
2.21365e-08
1.986e-08
-1.27165e-08
-2.75197e-09
1.5194e-08
1.30134e-10
-1.2149e-08
-4.75011e-10
-5.99001e-09
-1.81302e-09
2.11733e-09
1.40304e-09
-6.12996e-10
-1.12344e-08
1.17113e-08
1.3607e-10
2.88366e-09
-4.84124e-09
-1.13103e-08
1.08372e-08
-9.47302e-10
-1.10076e-08
-3.22724e-10
-1.15224e-08
-2.35012e-09
-1.21745e-08
2.12537e-09
7.86917e-09
5.16899e-09
-6.59697e-10
-1.18282e-08
1.18749e-08
5.22046e-10
-8.98921e-09
5.07586e-09
-1.62333e-09
2.00507e-09
-1.67905e-09
-1.30688e-08
-1.22996e-08
1.17453e-08
-1.01268e-08
-1.58483e-08
1.01303e-08
9.31819e-09
7.7113e-10
2.7924e-09
-1.1687e-08
1.16528e-08
1.66274e-09
3.84552e-09
2.43813e-10
-4.18483e-10
-1.54494e-10
-4.16749e-09
2.43492e-09
-3.27592e-10
1.21881e-10
-1.4415e-10
2.22691e-11
-2.74209e-09
1.32196e-08
2.26256e-09
2.51197e-09
4.77545e-10
-1.18093e-09
-6.91595e-10
-2.16911e-09
-1.15169e-10
1.31768e-08
1.02366e-08
-2.67223e-10
6.67266e-09
-1.25935e-09
-5.14609e-09
-9.88453e-09
-5.17636e-09
9.08167e-11
3.10636e-11
4.83809e-09
1.378e-09
-1.7376e-08
-2.33121e-10
-6.69165e-10
-2.77408e-09
1.03074e-09
3.30334e-09
6.19508e-08
-8.56977e-11
-6.18651e-08
6.23749e-08
1.88849e-10
-6.25638e-08
-1.40918e-08
-4.05849e-10
1.44149e-08
8.27111e-11
3.30904e-09
-1.6571e-09
2.36222e-09
1.80039e-09
-4.58251e-09
-1.86261e-10
-4.54033e-10
3.69112e-10
-7.61462e-11
3.35831e-10
-2.1451e-10
1.98351e-08
9.86962e-10
-1.59839e-08
-7.68355e-11
-1.95536e-09
1.27003e-08
2.30959e-09
1.83374e-09
5.34191e-09
-2.14837e-09
-7.72312e-08
-2.41785e-08
-5.09925e-09
1.58362e-08
2.5203e-09
2.2391e-10
-2.72062e-09
-9.21231e-10
1.49058e-10
-1.60899e-10
-9.39892e-09
-3.73853e-10
9.77277e-09
-1.09686e-08
-6.53975e-09
1.0788e-08
-9.57285e-09
8.72685e-09
3.44673e-10
1.30792e-09
8.98853e-09
-9.00642e-09
1.78919e-11
5.17707e-10
8.78216e-11
1.10228e-08
3.65832e-10
-5.93312e-10
1.67538e-11
-1.42608e-08
-4.10388e-10
-1.39022e-08
1.28521e-08
-1.1948e-08
-6.60362e-08
6.49944e-08
1.0418e-09
1.65583e-10
-1.39138e-10
1.21953e-08
-1.48798e-10
4.64767e-12
-2.16118e-09
2.74471e-09
-3.3988e-09
-1.34651e-08
-1.62735e-09
2.57944e-09
-4.61544e-09
-1.42304e-08
1.46978e-09
5.51801e-09
9.79446e-09
-9.16648e-09
-1.68845e-10
2.00474e-11
-9.26723e-09
-1.35475e-08
1.50955e-10
-6.26936e-08
2.36377e-10
6.24573e-08
6.95426e-10
6.34263e-08
-2.23544e-10
-1.72058e-09
-1.45161e-08
1.07946e-10
-6.34102e-08
6.33022e-08
1.83279e-10
-6.29519e-08
6.27686e-08
2.65999e-10
6.17967e-08
1.50366e-10
-6.1947e-08
6.16279e-08
1.6881e-10
-8.78886e-08
8.84977e-08
-9.06989e-13
9.33921e-08
-9.30986e-08
-2.67269e-10
-8.66282e-08
-4.33046e-10
9.33511e-08
-1.82656e-10
-8.49156e-08
-7.67365e-10
9.34817e-08
1.73768e-10
-5.22369e-10
1.96171e-09
9.23576e-08
-6.9308e-08
6.21375e-08
-6.23182e-08
-6.29496e-08
6.14855e-08
1.42393e-10
-3.19276e-09
2.97631e-09
-1.42734e-08
3.59537e-11
5.48628e-11
9.0518e-10
8.67905e-09
-1.13919e-08
3.83491e-08
-3.45826e-08
-1.67957e-08
1.3829e-08
-2.43905e-11
-1.86301e-10
9.63019e-11
4.63925e-10
-1.01967e-10
2.76579e-10
4.35107e-09
1.06632e-09
-3.47879e-09
-9.5973e-11
1.28698e-10
-6.17594e-11
-2.62538e-09
1.33691e-08
2.47589e-09
-1.4417e-08
-2.61969e-09
-3.19041e-09
5.45561e-09
1.05814e-09
-2.59331e-09
1.44187e-08
-1.21535e-09
-1.28973e-09
1.12689e-09
-8.15089e-09
-1.90918e-08
-1.35462e-08
8.08974e-09
5.7457e-09
-1.58761e-10
-5.85372e-10
2.86146e-09
1.45025e-08
2.29515e-09
-1.88139e-09
-3.36195e-10
3.86375e-10
-2.12199e-10
1.58692e-08
-6.17232e-10
-1.56258e-08
6.67021e-10
2.72742e-10
3.44799e-10
-2.88287e-10
3.3346e-09
-1.60789e-08
3.73868e-10
-1.41908e-09
-1.99664e-09
-2.26866e-09
1.58411e-08
-9.0591e-08
-1.39093e-10
9.16782e-08
-1.90444e-10
-8.91636e-08
-4.76794e-10
9.31012e-08
-2.75207e-10
-9.29117e-08
-5.2052e-10
-1.49011e-09
1.69492e-08
9.19795e-08
-1.96629e-10
2.95314e-11
-2.20885e-10
9.60815e-09
2.33008e-09
-6.99129e-09
-1.23532e-08
-5.67493e-09
8.35141e-09
1.54477e-09
-6.72187e-09
-5.96864e-09
9.06953e-09
-2.55338e-11
1.01127e-08
1.94953e-08
-1.79817e-08
3.09181e-09
-1.2861e-08
3.13915e-09
-6.99574e-08
3.92114e-09
-2.05966e-08
-1.30355e-08
-4.24902e-10
-5.91334e-09
-1.53209e-08
9.0852e-09
-1.50492e-08
3.54124e-10
3.00247e-10
-1.97223e-09
-1.68274e-08
1.72105e-08
6.92999e-09
-7.5678e-09
-4.20611e-09
1.53686e-08
-1.69738e-09
7.47488e-10
-6.59054e-10
-1.26078e-11
1.19631e-08
3.31242e-09
7.0911e-08
-1.82327e-08
6.16367e-10
-1.51305e-08
-2.02393e-10
-2.30688e-10
-1.66534e-10
6.0948e-08
-6.12232e-08
-6.33806e-08
-6.31485e-08
-6.41897e-11
-2.62199e-10
-9.25853e-08
-6.0451e-08
6.24127e-08
6.51043e-08
-6.02772e-08
6.45819e-08
-6.04599e-08
6.38146e-08
-6.07272e-08
6.33815e-08
9.23082e-08
2.29343e-10
-6.32812e-09
7.51317e-08
-6.54912e-08
1.77137e-11
-1.77137e-11
-1.83262e-10
-2.89726e-10
1.54732e-08
4.77226e-12
-4.77226e-12
2.59322e-10
1.51221e-09
1.39166e-08
1.34949e-08
-2.69982e-09
3.71148e-09
6.75814e-09
1.66767e-09
3.21541e-10
-2.14066e-10
-2.95505e-09
1.45662e-08
1.48406e-08
-4.29393e-09
1.18212e-08
1.46095e-10
1.19201e-10
2.61806e-09
-7.24659e-10
-1.42667e-09
-5.8605e-09
-1.83548e-10
-3.55033e-10
1.53147e-08
2.01129e-10
2.96519e-11
1.41474e-08
-2.6293e-08
1.79124e-08
2.72319e-09
1.15958e-09
2.5004e-09
-3.72306e-09
1.94532e-08
-1.82305e-08
-5.77672e-11
-1.07542e-10
-1.44122e-09
-7.92146e-08
-7.07493e-08
1.16596e-09
-2.36901e-10
5.83792e-10
2.30161e-08
1.86157e-08
-6.46383e-09
7.92332e-11
-4.16719e-09
-2.52466e-09
2.99673e-08
1.61736e-10
1.48185e-08
7.35781e-08
3.03063e-11
4.94708e-10
-1.25477e-10
-1.81714e-10
-3.52197e-09
2.43735e-08
-1.48671e-08
8.21518e-10
-1.42107e-08
-3.71487e-11
2.04114e-08
-2.87784e-08
9.7301e-10
1.79392e-09
-1.24114e-10
)
;

boundaryField
{
    back
    {
        type            empty;
        value           nonuniform 0();
    }
    ingreso
    {
        type            calculated;
        value           nonuniform List<scalar> 
14
(
-1.54286e-08
-1.54288e-08
-1.54288e-08
-1.54288e-08
-1.54286e-08
-1.54283e-08
-1.54288e-08
-1.54288e-08
-1.54286e-08
-1.54286e-08
-1.54288e-08
-1.5428e-08
-1.5428e-08
-1.54286e-08
)
;
    }
    salida
    {
        type            calculated;
        value           nonuniform List<scalar> 2(1.0141e-07 1.1459e-07);
    }
    front
    {
        type            empty;
        value           nonuniform 0();
    }
    defaultFaces
    {
        type            calculated;
        value           uniform 0;
    }
}


// ************************************************************************* //
