/*--------------------------------*- C++ -*----------------------------------*\
  =========                 |
  \\      /  F ield         | OpenFOAM: The Open Source CFD Toolbox
   \\    /   O peration     | Website:  https://openfoam.org
    \\  /    A nd           | Version:  7
     \\/     M anipulation  |
\*---------------------------------------------------------------------------*/
FoamFile
{
    version     2.0;
    format      ascii;
    class       surfaceScalarField;
    location    "56";
    object      phi;
}
// * * * * * * * * * * * * * * * * * * * * * * * * * * * * * * * * * * * * * //

dimensions      [0 3 -1 0 0 0 0];

internalField   nonuniform List<scalar> 
1111
(
6.47917e-09
1.3215e-08
-1.5837e-08
-3.85716e-09
6.55348e-09
-1.18024e-08
1.17281e-08
-1.47285e-08
5.12037e-09
9.29353e-09
3.14602e-10
4.82836e-10
-5.61542e-10
-1.42159e-08
1.42946e-08
-1.41269e-08
1.38714e-08
7.38362e-10
-1.64096e-09
1.48856e-08
2.18395e-09
-3.78508e-09
9.7443e-09
-1.05869e-08
4.62766e-09
-6.69287e-09
-1.26179e-08
1.25859e-08
6.72487e-09
-5.04775e-08
-2.59069e-08
7.63844e-08
-8.11502e-09
7.59063e-09
7.07787e-09
3.55027e-09
3.45352e-10
-3.62958e-09
-2.66045e-10
1.56229e-08
-1.59197e-08
-2.30302e-08
2.3327e-08
-9.63455e-09
-7.92164e-09
8.7848e-09
8.77138e-09
-3.52894e-08
1.75982e-08
-3.23447e-08
5.00359e-08
9.53058e-09
-1.94784e-09
-1.42756e-08
-1.73238e-09
2.42581e-09
-3.69608e-09
3.00266e-09
-3.75671e-09
1.32962e-08
1.94391e-09
-1.14834e-08
8.84545e-09
-2.40201e-09
-1.50342e-08
8.59073e-09
3.77034e-08
-3.05551e-08
-7.1484e-09
-1.93707e-08
1.81478e-10
1.74062e-08
1.783e-09
-7.88739e-10
4.07373e-09
-1.78926e-08
1.46076e-08
-6.1219e-08
-3.96261e-09
6.51816e-08
1.58832e-10
-1.29378e-09
-3.63462e-10
1.49841e-09
-1.38451e-09
-1.35311e-08
-1.71233e-10
-3.1608e-10
2.76128e-10
2.11185e-10
-1.01226e-08
-8.20221e-09
1.25893e-08
5.73552e-09
7.2341e-10
-2.14612e-09
-8.44585e-09
9.86857e-09
8.0636e-09
9.32504e-10
-8.98122e-09
-1.48836e-11
-2.84587e-09
-7.83827e-09
1.09022e-08
-2.18109e-10
1.13738e-08
-6.21153e-10
-1.90719e-09
-9.83414e-10
9.64046e-10
6.97042e-11
-5.03368e-11
-2.68168e-10
8.5718e-10
4.24596e-10
-1.01361e-09
-5.85215e-10
-4.09808e-11
6.234e-10
2.79613e-12
1.02758e-11
-9.92936e-10
1.00356e-10
8.82305e-10
-5.99691e-11
-9.13169e-10
8.03982e-10
-1.84316e-08
-1.74313e-09
-4.96135e-10
5.39351e-11
-1.43016e-10
1.34135e-08
-1.32701e-08
3.93028e-09
-4.20088e-10
6.30369e-10
3.96555e-10
-6.06835e-10
-3.71439e-10
-2.23716e-09
1.72812e-09
8.80481e-10
-2.14471e-09
9.8164e-09
-1.14568e-08
-3.70607e-10
-1.93582e-10
6.80536e-11
-8.80022e-09
1.01628e-08
-9.47763e-09
1.20238e-08
-1.70678e-08
4.93661e-09
1.0736e-10
8.45297e-11
-2.02069e-10
-2.53068e-10
2.49367e-10
8.81928e-10
-1.67248e-10
-5.95965e-08
7.42923e-08
-1.46958e-08
1.12969e-09
-3.42161e-10
-1.29547e-09
5.07941e-10
1.11539e-09
1.03163e-08
-1.37318e-08
2.30015e-09
-1.07552e-09
7.14429e-09
-8.61371e-09
2.54494e-09
-6.51912e-09
5.76137e-09
5.51925e-09
-4.7615e-09
-7.21339e-09
-2.13221e-09
2.05371e-09
7.29189e-09
-1.82326e-10
-9.09254e-08
9.13106e-08
-2.02842e-10
-2.57283e-10
-8.97645e-08
9.0172e-08
-1.50202e-10
8.30926e-08
-1.49869e-09
1.15097e-10
-8.1709e-08
-3.12978e-09
-2.24924e-10
7.81759e-10
9.05156e-10
-5.57222e-10
4.01149e-09
-1.57945e-09
3.31227e-09
-5.7443e-09
-1.08143e-09
9.88635e-10
-1.49781e-08
6.61605e-09
9.37633e-09
9.90048e-10
-1.00843e-08
-2.82125e-10
-6.26591e-09
1.30237e-08
1.37005e-09
-8.12788e-09
1.43224e-08
-4.20327e-09
3.39439e-09
-1.35135e-08
1.54245e-08
1.72992e-09
-1.72566e-09
-4.59345e-10
-1.99585e-08
-7.21994e-09
2.76378e-08
1.38949e-08
-8.37276e-09
-2.13472e-09
7.7236e-09
-1.18548e-08
-8.89229e-11
2.03202e-10
-1.40975e-09
-3.64236e-08
-2.31729e-08
8.08859e-09
1.06347e-10
3.82887e-09
-7.00355e-09
1.08136e-08
6.35277e-09
-6.72425e-10
3.78437e-10
5.42286e-10
-2.48299e-10
5.89623e-09
-4.66317e-09
3.57758e-09
-4.81064e-09
-5.91807e-10
-6.97671e-10
2.96541e-10
7.76474e-10
-7.17099e-10
-1.14452e-10
-1.07153e-09
9.17811e-10
-1.77472e-08
2.48978e-09
1.48566e-09
1.37718e-08
2.80404e-10
-7.90494e-10
-1.62335e-10
-3.93751e-09
-1.48727e-08
1.06295e-09
5.66204e-09
1.18556e-08
-5.23395e-09
-1.22837e-08
1.64627e-08
5.88936e-10
-1.59306e-08
-1.12097e-09
-7.56871e-10
5.28865e-10
6.06443e-10
-7.20889e-10
3.80585e-10
3.40304e-10
-7.19319e-09
-3.72898e-09
4.40305e-09
-3.27532e-10
4.82196e-10
-1.54664e-10
1.31084e-09
-1.53709e-08
-8.33671e-10
9.1878e-09
-1.04988e-08
-1.10065e-09
-8.35341e-10
1.26761e-08
4.39101e-09
-4.13282e-09
-1.29343e-08
2.0935e-10
7.01081e-09
-7.7286e-09
6.47916e-09
-1.85763e-09
-8.61739e-09
7.91242e-09
2.56261e-09
-1.78876e-09
6.14837e-10
-1.36987e-08
-1.94775e-10
-1.32757e-10
-2.4871e-10
1.07192e-09
-8.0366e-09
7.39877e-10
1.73206e-08
-1.59778e-09
-1.33315e-08
1.46053e-08
-1.27377e-09
1.20569e-08
1.40732e-08
-1.5594e-08
-1.05362e-08
-7.19133e-10
1.24845e-09
-5.29319e-10
9.85568e-10
-1.19558e-09
2.10013e-10
1.56702e-09
-2.06069e-09
4.93669e-10
1.70148e-09
-1.40729e-09
-2.94193e-10
-1.11702e-08
5.08588e-10
1.06616e-08
2.39899e-09
-6.97508e-10
8.90548e-09
-1.52435e-08
6.86231e-09
-8.18654e-09
6.10688e-11
3.8925e-09
-4.033e-10
-2.74434e-09
2.80541e-09
-7.06602e-09
8.39274e-09
-1.32672e-09
-7.78217e-10
4.14567e-09
6.44036e-10
1.72382e-08
-1.45156e-08
-1.60727e-09
-5.62734e-09
5.23236e-09
-1.18448e-09
-2.36937e-10
6.34261e-09
-6.36942e-09
2.68135e-11
7.02037e-09
4.39511e-09
1.50226e-10
-1.5956e-08
1.04578e-08
1.7555e-08
5.70072e-09
8.33046e-09
8.25632e-09
-6.82367e-09
1.01871e-09
-1.21889e-08
1.0142e-09
5.0276e-10
-1.2774e-08
3.24337e-09
-4.37958e-10
1.25916e-08
-1.20027e-08
-1.63128e-10
-9.97489e-10
-1.37653e-08
7.27789e-09
8.68085e-10
-3.61169e-11
-8.9214e-09
5.15519e-09
-3.10144e-08
-1.25192e-08
-2.59854e-09
1.35246e-09
1.39033e-08
1.09464e-08
-1.06493e-08
-1.42003e-08
1.57815e-08
-3.12137e-09
-1.26601e-08
1.69144e-09
3.88731e-09
-1.35326e-09
-9.58394e-10
-9.83589e-10
1.30162e-09
6.40359e-10
-2.81893e-10
4.08397e-10
4.15782e-10
6.21363e-08
-6.21615e-08
2.51745e-11
6.20561e-08
-6.23601e-08
3.04059e-10
8.37065e-10
6.47511e-08
-6.55797e-08
8.28593e-10
6.41416e-08
6.09546e-10
-2.23789e-10
-6.65277e-08
9.47954e-10
-6.20438e-08
6.19103e-08
1.33493e-10
1.31952e-09
-6.78472e-08
-6.2203e-08
1.59122e-10
1.22332e-08
-1.01166e-09
1.62158e-09
-3.71704e-09
3.10712e-09
4.05461e-10
-1.26684e-09
1.0902e-09
-7.57291e-10
1.46713e-09
-1.73335e-09
1.02352e-09
1.51619e-09
-1.67072e-09
3.5773e-10
-8.96566e-11
-3.35303e-09
3.00142e-09
-2.25141e-09
2.60303e-09
-7.52485e-10
-2.84149e-09
2.58231e-09
-3.78457e-09
-5.6401e-09
6.37873e-10
-7.16305e-10
1.38766e-09
1.16967e-09
-6.5859e-09
8.01112e-09
2.96989e-09
2.01378e-08
-4.35634e-09
-7.96391e-10
3.00216e-10
1.13405e-09
-1.00655e-08
-2.63581e-08
5.44571e-09
-4.43649e-09
-3.11868e-09
2.10946e-09
1.29619e-10
1.66446e-11
4.77137e-10
-2.7527e-09
3.47193e-09
8.71087e-09
8.69975e-10
-4.82719e-10
2.19737e-09
-2.46714e-09
2.15586e-09
1.47662e-08
1.32103e-08
-2.69885e-08
3.25459e-08
6.2203e-09
-2.28622e-08
-1.03466e-08
1.8195e-08
-1.77616e-08
1.0513e-08
-2.20433e-10
-6.90509e-11
-1.38123e-09
-1.85834e-09
-2.76618e-09
3.89676e-09
1.48076e-08
-6.00672e-10
-1.35921e-08
-1.62063e-10
-2.71179e-09
3.23629e-11
1.54291e-08
1.75321e-08
1.36485e-08
6.87636e-10
-1.56109e-09
-1.2775e-08
-1.79331e-09
6.01856e-09
1.23196e-08
-7.09617e-10
-1.20104e-09
-3.53549e-09
2.7348e-09
3.8021e-09
2.43739e-09
1.42317e-08
4.13867e-09
-1.39794e-08
1.76374e-08
-1.76686e-09
2.76604e-09
-3.58068e-09
1.87899e-09
-4.64805e-09
1.29063e-08
-1.2015e-08
-1.39465e-08
5.30203e-10
8.76827e-09
-1.88687e-09
1.58406e-09
1.69047e-09
-8.69444e-09
6.19728e-10
-4.44452e-09
-6.05261e-09
1.22099e-08
-1.48517e-08
1.33402e-09
1.66552e-09
-2.2022e-09
1.6535e-08
-1.59984e-08
-9.81451e-10
1.40293e-08
2.88216e-09
-4.18214e-09
-1.39435e-08
7.35147e-09
-1.70964e-08
-8.01665e-09
6.5789e-09
5.85802e-09
1.43923e-08
-9.67527e-09
3.12471e-09
9.11317e-09
9.87124e-09
3.84061e-09
-4.12722e-09
2.14948e-08
-1.88864e-08
4.74303e-09
-1.02023e-08
2.21849e-09
5.50278e-09
1.36203e-08
-1.07428e-10
1.26174e-08
-1.34914e-08
-1.76472e-09
2.30684e-09
-1.39411e-09
8.51991e-10
1.08525e-08
-6.38486e-09
7.38796e-09
-1.06059e-08
1.39362e-09
-4.75351e-09
1.13005e-08
-1.17809e-08
-7.49639e-09
9.04619e-09
9.30267e-09
1.27188e-08
8.80839e-10
-1.3707e-08
1.64376e-09
8.27539e-10
-1.09441e-08
-6.71532e-09
1.01631e-08
-1.66698e-09
2.52269e-09
-8.87325e-09
4.79796e-09
-5.14576e-09
1.13564e-08
-3.49141e-09
-1.15413e-08
3.67628e-09
-4.51284e-09
1.11158e-08
2.04845e-09
1.17937e-09
-5.06675e-09
-1.75278e-08
1.03851e-08
1.22094e-08
8.36875e-10
-1.08309e-08
-9.79976e-09
1.55639e-08
1.23461e-08
2.78107e-09
-9.62438e-09
-1.32299e-08
-2.77747e-10
-1.26267e-08
2.18291e-10
-7.0102e-10
1.1385e-08
1.24352e-08
-8.17161e-09
1.63468e-08
-1.5722e-08
3.51388e-09
-4.49366e-10
1.69955e-09
1.25216e-08
-3.87196e-09
-1.25445e-08
-5.1201e-09
1.06141e-09
4.56145e-09
1.20021e-08
-7.34661e-09
7.98814e-10
-1.34589e-09
1.35317e-09
-1.77201e-09
6.02804e-09
2.59798e-08
-3.76831e-10
-1.14255e-08
1.18023e-08
2.83277e-08
-2.21182e-08
2.19437e-08
1.94652e-08
-1.2624e-08
-2.63579e-09
1.48982e-08
2.05588e-10
-1.21117e-08
-3.0946e-10
-6.0285e-09
-1.93689e-09
2.33941e-09
1.64593e-09
-9.49409e-11
-1.08746e-08
1.11241e-08
-1.54615e-10
2.90086e-09
-5.47602e-09
-1.07243e-08
1.03576e-08
-7.92743e-10
-1.05142e-08
-6.89891e-11
-1.0808e-08
-2.79017e-09
-1.18828e-08
2.24935e-09
7.82469e-09
5.10837e-09
-1.91523e-12
-1.16195e-08
1.15265e-08
6.49434e-10
-8.57383e-09
5.24827e-09
-1.13631e-09
2.5862e-09
-2.87068e-09
-1.29972e-08
-1.30751e-08
1.26963e-08
-1.01897e-08
-1.58034e-08
1.00371e-08
9.11752e-09
8.64089e-10
2.58887e-09
-1.40143e-08
1.10719e-08
1.70669e-09
4.01128e-09
3.56305e-10
-5.92637e-10
-3.55475e-10
-4.05264e-09
2.65939e-09
-1.31853e-09
2.95889e-10
-3.46074e-10
5.01848e-11
-2.5713e-09
1.2761e-08
2.15641e-09
2.56614e-09
-6.75671e-10
-1.70278e-09
-2.24611e-10
-2.5041e-09
-5.7991e-10
1.27485e-08
9.85599e-09
-4.40381e-10
7.01809e-09
-1.20354e-09
-5.37417e-09
-9.67094e-09
-5.0758e-09
2.29821e-10
6.60684e-11
4.78132e-09
1.32693e-09
-1.69391e-08
-5.24304e-10
-8.82984e-10
-2.58554e-09
9.423e-10
2.72877e-09
6.19358e-08
-8.79164e-11
-6.18479e-08
6.23529e-08
1.87816e-10
-6.25407e-08
-1.41913e-08
6.52799e-12
1.45536e-08
-3.68819e-10
2.83734e-09
-2.00292e-09
2.73239e-09
1.79322e-09
-4.39713e-09
-4.4661e-10
-6.11527e-10
4.95832e-10
-1.32604e-10
5.63575e-10
-4.00853e-10
1.92814e-08
1.11725e-09
-1.56173e-08
-2.59762e-10
-1.95564e-09
1.22443e-08
2.23298e-09
1.75475e-09
5.23915e-09
-1.9444e-09
-7.72371e-08
-2.41772e-08
-4.77959e-09
1.57523e-08
2.32347e-09
-5.58924e-10
-3.26371e-09
-1.29808e-09
6.00417e-10
-5.03381e-10
-1.13883e-08
-3.17058e-10
1.17054e-08
-1.06949e-08
-6.64651e-09
1.06261e-08
-9.32924e-09
8.78645e-09
-2.48914e-11
1.77281e-09
1.08686e-08
-1.06681e-08
-2.00505e-10
7.05624e-10
7.4694e-11
1.0097e-08
9.58128e-10
-1.04865e-09
-2.74323e-10
-1.42443e-08
-5.19679e-10
-1.35486e-08
1.23192e-08
-1.16201e-08
-6.59884e-08
6.49451e-08
1.04327e-09
3.93423e-10
-3.76778e-10
1.17532e-08
-3.61741e-10
1.56665e-11
-2.02141e-09
2.77801e-09
-3.41097e-09
-1.3515e-08
-1.65953e-09
2.57275e-09
-4.7546e-09
-1.38912e-08
1.70671e-09
5.60767e-09
9.4966e-09
-8.82825e-09
-3.90741e-10
2.90004e-11
-9.34654e-09
-1.2984e-08
1.49927e-10
-6.27095e-08
2.38127e-10
6.24714e-08
6.96626e-10
6.34449e-08
-2.25713e-10
-1.19362e-09
-1.44068e-08
1.06001e-10
-6.33748e-08
6.32688e-08
1.81131e-10
-6.29247e-08
6.27435e-08
4.79818e-10
6.1805e-08
1.51903e-10
-6.19569e-08
6.16351e-08
1.69901e-10
-8.79065e-08
8.85156e-08
4.04654e-13
9.33958e-08
-9.31036e-08
-2.66956e-10
-8.66458e-08
-4.3214e-10
9.33555e-08
-1.83478e-10
-8.49311e-08
-7.66651e-10
9.34863e-08
1.7323e-10
-5.19036e-10
1.96104e-09
9.23623e-08
-6.93459e-08
6.21488e-08
-6.23312e-08
-6.29668e-08
6.14918e-08
1.4325e-10
-3.00526e-09
2.80585e-09
-1.378e-08
7.28658e-11
1.56955e-10
1.98581e-09
9.10942e-09
-1.15114e-08
3.82919e-08
-3.44579e-08
-1.6608e-08
1.37876e-08
-6.82381e-11
-2.22905e-10
2.47128e-10
8.60983e-10
-1.64364e-10
3.78304e-10
4.60929e-09
1.02919e-09
-3.75949e-09
-3.20048e-10
3.73983e-10
-2.51995e-10
-2.46533e-09
1.29222e-08
2.30411e-09
-1.44494e-08
-2.49274e-09
-3.56644e-09
5.66134e-09
1.05741e-09
-2.63333e-09
1.4196e-08
-1.17756e-09
-3.22534e-09
4.44075e-09
-8.1545e-09
-1.90641e-08
-1.321e-08
7.75461e-09
5.98554e-09
-2.94991e-10
-5.29713e-10
3.16411e-09
1.44192e-08
2.06512e-09
-1.59872e-09
-4.51865e-10
4.95959e-10
-2.8103e-10
1.60016e-08
-4.9181e-10
-1.58268e-08
-2.15809e-09
-1.63497e-09
2.97346e-10
-2.2639e-10
3.58411e-09
-1.71923e-08
5.83512e-10
-1.65578e-09
-2.26879e-09
-2.40498e-09
1.53355e-08
-9.0604e-08
-1.40206e-10
9.16903e-08
-1.91876e-10
-8.91804e-08
-4.78179e-10
9.31089e-08
-2.74578e-10
-9.29223e-08
-6.01736e-10
-1.75155e-09
1.63846e-08
9.19921e-08
-1.93917e-10
3.19274e-11
-2.20409e-10
1.03367e-08
2.45599e-09
-8.57795e-09
-1.19766e-08
-5.67096e-09
8.46412e-09
1.40095e-09
-6.89518e-09
-6.20262e-09
9.01906e-09
-1.67466e-10
1.01586e-08
1.93683e-08
-1.77559e-08
3.04567e-09
-1.25162e-08
3.01734e-09
-6.99487e-08
3.96033e-09
-2.03673e-08
-1.30095e-08
-5.67045e-10
-5.93187e-09
-1.5334e-08
9.1542e-09
-1.52293e-08
5.30941e-10
4.48521e-10
-1.63897e-09
-1.62855e-08
1.683e-08
8.26335e-09
-8.48827e-09
-5.27535e-09
1.51184e-08
-1.71243e-09
7.90057e-10
-1.32257e-09
4.01268e-10
1.19533e-08
3.34726e-09
7.09451e-08
-1.8064e-08
8.76158e-10
-1.47868e-08
-2.7972e-10
-3.26809e-10
-1.2725e-10
6.09553e-08
-6.12299e-08
-6.33428e-08
-6.31186e-08
-6.24669e-11
-2.61953e-10
-9.25979e-08
-6.04577e-08
6.24187e-08
6.50603e-08
-6.02845e-08
6.45412e-08
-6.0468e-08
6.37746e-08
-6.07349e-08
6.33424e-08
9.23211e-08
3.50225e-10
-6.43562e-09
7.51062e-08
-6.53233e-08
8.10758e-11
-8.10758e-11
1.25917e-09
-3.63194e-10
1.54992e-08
-8.53812e-11
8.53812e-11
4.35144e-10
1.57134e-09
1.38575e-08
1.31883e-08
-2.77809e-09
3.75736e-09
6.3332e-09
1.94316e-09
4.32686e-10
-3.04009e-10
-2.94157e-09
1.446e-08
1.48344e-08
-4.26895e-09
1.17761e-08
2.35665e-10
1.87426e-10
2.90943e-09
-9.61769e-10
-1.69115e-09
-5.90466e-09
-1.6226e-10
-4.5518e-10
1.52737e-08
3.26796e-10
1.23969e-10
1.54093e-08
-2.59164e-08
1.74472e-08
2.60167e-09
1.41095e-09
2.38478e-09
-3.66922e-09
1.91183e-08
-1.78339e-08
-1.137e-10
6.15559e-10
-1.4443e-09
-7.92214e-08
-7.07902e-08
1.42953e-09
-8.97582e-10
7.00928e-10
2.28427e-08
1.84694e-08
-6.43311e-09
1.11896e-10
-4.42865e-09
-2.34602e-09
2.99832e-08
1.54873e-10
1.48184e-08
7.35814e-08
8.2085e-11
5.47332e-10
-1.97844e-10
-2.61721e-10
-3.80276e-09
2.41985e-08
-1.48342e-08
1.1475e-09
-1.39685e-08
-7.58789e-11
2.02532e-08
-2.86995e-08
9.04693e-10
2.28266e-09
-5.35164e-10
)
;

boundaryField
{
    back
    {
        type            empty;
        value           nonuniform 0();
    }
    ingreso
    {
        type            calculated;
        value           nonuniform List<scalar> 
14
(
-1.54286e-08
-1.54288e-08
-1.54288e-08
-1.54288e-08
-1.54286e-08
-1.54283e-08
-1.54288e-08
-1.54288e-08
-1.54286e-08
-1.54286e-08
-1.54288e-08
-1.5428e-08
-1.5428e-08
-1.54286e-08
)
;
    }
    salida
    {
        type            calculated;
        value           nonuniform List<scalar> 2(1.01414e-07 1.14586e-07);
    }
    front
    {
        type            empty;
        value           nonuniform 0();
    }
    defaultFaces
    {
        type            calculated;
        value           uniform 0;
    }
}


// ************************************************************************* //
