/*--------------------------------*- C++ -*----------------------------------*\
  =========                 |
  \\      /  F ield         | OpenFOAM: The Open Source CFD Toolbox
   \\    /   O peration     | Website:  https://openfoam.org
    \\  /    A nd           | Version:  8
     \\/     M anipulation  |
\*---------------------------------------------------------------------------*/
FoamFile
{
    version     2.0;
    format      ascii;
    class       volScalarField;
    location    "10";
    object      p;
}
// * * * * * * * * * * * * * * * * * * * * * * * * * * * * * * * * * * * * * //

dimensions      [0 2 -2 0 0 0 0];

internalField   nonuniform List<scalar> 
3080
(
3.95954e-05
3.72066e-05
3.93588e-05
3.95989e-05
3.84141e-05
3.93986e-05
3.94547e-05
2.11048e-05
3.93153e-05
3.94314e-05
3.96096e-05
3.94605e-05
3.62814e-05
3.8234e-05
3.96142e-05
3.76772e-05
3.94277e-05
3.95258e-05
3.9604e-05
3.9065e-05
2.56467e-05
3.91693e-05
3.8866e-05
2.26927e-05
3.86051e-05
3.79331e-05
3.93976e-05
3.78293e-05
3.95995e-05
3.80533e-05
3.37196e-05
2.3387e-05
3.80269e-05
2.45863e-05
2.93802e-05
3.96046e-05
3.91829e-05
3.02683e-05
3.94831e-05
3.80487e-05
3.95774e-05
3.95001e-05
3.95204e-05
3.95191e-05
3.77249e-05
3.96098e-05
3.93101e-05
3.95935e-05
3.95579e-05
3.72959e-05
3.95187e-05
3.21745e-05
3.89674e-05
3.94252e-05
3.79904e-05
3.93885e-05
3.93527e-05
2.51977e-06
3.01054e-05
3.93965e-05
2.77647e-06
3.09604e-06
3.90945e-06
3.94337e-05
3.55949e-06
3.94675e-06
3.94909e-05
3.94641e-05
1.93937e-06
5.33934e-06
3.94665e-05
3.30931e-06
2.73121e-05
6.78372e-06
3.9547e-05
2.6349e-05
3.95436e-05
4.73521e-06
3.94885e-05
3.95563e-05
3.73296e-05
3.9477e-05
8.23153e-06
3.33889e-05
3.91233e-05
6.17573e-06
3.92487e-05
9.39481e-06
1.02696e-05
3.92619e-05
7.62264e-06
9.68203e-06
1.10102e-06
8.58144e-06
9.38843e-06
3.93356e-05
9.07208e-06
1.07489e-05
1.17361e-05
3.94802e-05
3.94529e-05
2.25335e-06
2.5273e-06
2.65379e-05
3.92216e-05
3.83025e-05
3.9537e-05
1.05209e-05
9.93324e-06
1.0853e-05
1.2103e-05
1.32024e-05
3.95071e-05
4.44606e-06
4.90837e-06
2.21667e-05
3.91695e-05
1.44891e-06
1.64479e-06
1.12877e-05
1.23199e-05
3.94082e-05
3.91456e-05
5.34051e-06
5.87786e-06
3.9557e-05
3.95606e-05
1.43581e-05
1.56391e-05
3.78268e-05
6.2393e-06
6.85179e-06
3.9426e-05
7.14267e-06
7.83022e-06
3.96129e-05
3.93238e-05
3.95816e-05
1.57295e-05
1.7106e-05
1.58323e-05
1.49957e-05
3.95323e-05
8.04515e-06
8.80751e-06
3.7583e-05
3.95524e-05
1.35397e-05
1.47603e-05
3.21177e-06
3.5687e-06
3.95675e-05
3.93367e-05
3.94082e-05
3.95586e-05
1.7125e-05
1.85787e-05
2.84059e-05
2.97468e-06
3.94112e-05
1.72718e-05
1.86234e-05
2.02458e-05
3.80955e-05
1.62546e-06
1.64346e-05
3.95868e-05
3.93641e-05
4.38584e-06
1.4896e-05
1.6223e-05
3.92958e-05
2.23364e-05
1.87393e-05
2.97118e-05
5.82164e-06
2.17465e-05
1.9805e-05
3.95651e-05
3.10035e-07
3.25549e-07
2.44987e-07
1.14881e-05
1.78701e-05
2.627e-05
3.93205e-05
2.03674e-05
7.26757e-06
1.62744e-05
1.76861e-05
3.9491e-05
1.24547e-05
3.92258e-05
2.35034e-05
3.95414e-05
1.30032e-05
1.41766e-05
3.95343e-05
1.90811e-05
2.07913e-05
1.93395e-06
2.17943e-06
8.71711e-06
2.24873e-05
1.34189e-05
1.94354e-05
2.11489e-05
1.94212e-05
2.19041e-05
3.95479e-05
9.03407e-06
9.87877e-06
3.90153e-05
3.95701e-05
3.78276e-05
3.93996e-05
1.43864e-05
2.21049e-05
2.00065e-05
1.01662e-05
4.09004e-06
4.52207e-06
2.2306e-05
1.03875e-05
1.13448e-05
3.92179e-05
3.88378e-05
3.93479e-05
4.98133e-06
5.48837e-06
2.47566e-05
3.92692e-05
2.2624e-05
2.11059e-05
3.91869e-05
2.30161e-05
2.3361e-05
5.87786e-06
6.45997e-06
3.95972e-05
1.17418e-05
1.28115e-05
3.92555e-05
2.19637e-05
3.64939e-07
3.91877e-07
4.69932e-07
2.21951e-05
3.94377e-05
6.77698e-06
7.43407e-06
3.5802e-05
2.02171e-05
1.1654e-06
1.33703e-06
3.66656e-05
1.96922e-05
7.67934e-06
8.41148e-06
2.40281e-05
3.95871e-05
1.80701e-05
1.95968e-05
2.02664e-05
1.87244e-05
2.07358e-05
1.91924e-05
3.95442e-05
1.93213e-05
1.78087e-05
3.94025e-05
1.39908e-05
1.52489e-05
1.54765e-05
2.03111e-05
3.92639e-05
1.83611e-05
1.6901e-05
3.95951e-05
1.73868e-05
1.59944e-05
2.27509e-05
1.64089e-05
1.50751e-05
2.42221e-05
1.9795e-05
1.82648e-05
2.01309e-05
1.11332e-05
1.49422e-05
1.37126e-05
1.96547e-05
1.53528e-05
1.67118e-05
1.6909e-05
1.39641e-05
1.28062e-05
2.71237e-05
3.13464e-07
2.18575e-07
2.70263e-07
1.92197e-05
1.83258e-05
1.29871e-05
1.19034e-05
1.20993e-05
1.20105e-05
1.10018e-05
1.88441e-05
1.73549e-05
1.68961e-05
3.93999e-05
1.10316e-05
1.00984e-05
2.2748e-05
1.54385e-05
2.50014e-05
1.87809e-05
9.55927e-06
8.73905e-06
1.78603e-05
1.67399e-05
1.81784e-05
3.95647e-05
1.83618e-05
1.30642e-05
1.39816e-05
8.09352e-06
7.38538e-06
1.5927e-05
1.46245e-05
1.78758e-05
1.6449e-05
7.12174e-06
6.48818e-06
1.25292e-05
6.14361e-06
5.58527e-06
1.15639e-05
1.40287e-05
1.64095e-05
1.26423e-05
1.37869e-05
4.6668e-06
4.22109e-06
3.92913e-05
1.01116e-05
1.99879e-05
3.67797e-06
3.30719e-06
3.19473e-05
1.68994e-05
1.55382e-05
1.73815e-05
3.95822e-05
8.66135e-06
3.95329e-05
1.95983e-06
2.21773e-06
3.67965e-05
3.93905e-05
1.49513e-05
7.21087e-06
5.75737e-06
2.15838e-05
4.29688e-06
3.93234e-05
2.81532e-06
1.54319e-05
1.4167e-05
3.93934e-05
1.59252e-05
3.70566e-05
2.4236e-05
1.3013e-05
3.93046e-05
2.62289e-05
1.44537e-05
1.32595e-05
3.93509e-05
3.78873e-05
3.95544e-05
3.96107e-05
1.00457e-05
9.18807e-06
1.44681e-05
1.48884e-06
1.05969e-05
1.34764e-05
1.23554e-05
3.95563e-05
1.76787e-05
1.91813e-05
2.42132e-05
8.57773e-06
7.83238e-06
3.9486e-05
1.34953e-05
2.12141e-05
2.33704e-05
3.94759e-05
9.14667e-06
2.08453e-05
3.95392e-05
1.24996e-05
1.14534e-05
3.81827e-05
7.69544e-06
1.20489e-05
1.15229e-05
1.05519e-05
3.92809e-05
2.38276e-05
5.15527e-06
4.67226e-06
3.82039e-05
6.2436e-06
1.10791e-05
1.05435e-05
9.64818e-06
3.95475e-05
3.92086e-05
4.78653e-06
6.08267e-08
1.24311e-07
5.41629e-08
3.95286e-05
1.24587e-06
1.09019e-06
3.96118e-05
9.62847e-06
9.07519e-06
8.29259e-06
2.69018e-06
2.39474e-06
3.95875e-05
3.84828e-05
3.9209e-05
3.92064e-05
3.87848e-05
2.07355e-06
1.84074e-06
3.93862e-05
3.31343e-06
4.00406e-06
4.42882e-06
9.96029e-07
1.1089e-06
9.67138e-07
3.95259e-05
4.89544e-06
5.39519e-06
5.7922e-06
6.36706e-06
6.69316e-06
7.34318e-06
7.59643e-06
8.32136e-06
8.17752e-06
3.9499e-05
7.60984e-06
6.93897e-06
1.24388e-06
1.37693e-06
6.73865e-07
6.87959e-07
7.69844e-07
3.40798e-05
1.25541e-05
1.36907e-05
3.73371e-05
3.94264e-05
3.95728e-05
6.63459e-06
6.03849e-06
3.95478e-05
3.71601e-05
3.60934e-05
3.96134e-05
1.75983e-05
1.90833e-05
6.72689e-06
3.94128e-05
3.93865e-05
3.94387e-05
1.3442e-06
1.49927e-06
1.10052e-05
1.19733e-05
3.88845e-05
5.65565e-06
5.13517e-06
1.29385e-05
2.5223e-05
1.39044e-05
3.95722e-05
3.64608e-05
3.95399e-05
3.95774e-05
3.95759e-05
3.76588e-05
3.94005e-05
3.92786e-05
5.27236e-06
1.22894e-06
3.95412e-05
3.89743e-05
3.61264e-05
3.95497e-05
2.31979e-05
3.92749e-05
4.17627e-06
3.76801e-06
3.93902e-05
3.37894e-05
3.94109e-05
1.82263e-06
3.9394e-05
3.95228e-05
3.95099e-05
2.50838e-05
3.94031e-05
3.11496e-06
3.46482e-06
3.80649e-06
3.84952e-05
3.93895e-05
3.18271e-06
2.84933e-06
3.95281e-05
3.9345e-05
3.93783e-05
4.24934e-06
3.92728e-05
2.83569e-06
3.85668e-05
3.94047e-05
5.68675e-06
8.94184e-06
9.77915e-06
3.86287e-05
3.95812e-05
1.12436e-05
1.02939e-05
7.13331e-06
1.27107e-05
1.16487e-05
3.94959e-05
1.51472e-05
1.39008e-05
1.66134e-05
1.52666e-05
1.80817e-05
1.66552e-05
8.58172e-06
3.93665e-05
2.55173e-05
3.95541e-05
3.88502e-05
1.00305e-05
3.96013e-05
3.95486e-05
1.56277e-06
2.19311e-05
1.63131e-06
1.83129e-06
3.91109e-05
3.93975e-05
3.7307e-05
3.95443e-05
1.53426e-05
1.67861e-05
1.82348e-05
3.95945e-05
2.14305e-05
1.98017e-05
3.8301e-05
2.29729e-05
3.87227e-05
3.95523e-05
3.94032e-05
3.85297e-05
3.929e-05
3.95115e-05
3.95639e-05
3.93735e-05
3.9531e-05
3.53171e-05
3.93508e-05
2.71309e-05
3.95465e-05
3.95353e-05
3.88025e-05
3.85646e-05
3.84021e-05
3.95483e-05
3.72362e-05
3.89504e-05
3.9473e-05
3.90329e-05
3.93881e-05
3.95416e-05
3.93866e-05
2.46297e-05
3.93636e-05
3.95317e-05
3.75092e-05
3.94761e-05
3.95899e-05
2.06031e-05
3.9416e-05
3.94665e-05
3.95136e-05
3.95393e-05
3.90778e-05
1.9475e-06
3.95532e-05
2.31718e-06
3.95429e-05
3.81972e-05
2.61705e-05
2.16891e-05
3.88431e-05
3.95395e-05
3.94036e-05
3.95908e-05
3.9484e-05
3.95606e-05
3.95496e-05
3.95677e-05
3.95895e-05
3.95197e-05
3.90142e-05
3.9565e-05
3.92761e-05
3.94981e-05
3.90265e-05
2.32015e-05
3.93975e-05
3.95273e-05
3.46213e-05
3.94098e-05
3.95209e-05
3.73997e-05
3.86342e-05
3.42408e-05
3.94154e-05
3.95515e-05
3.91095e-05
3.95664e-05
3.94529e-05
3.94229e-05
3.89119e-05
3.95635e-05
3.86328e-05
3.94034e-05
3.92222e-05
3.95946e-05
3.94108e-05
3.95075e-05
2.22041e-06
1.977e-06
3.94637e-05
3.85239e-05
3.94159e-05
3.8464e-05
3.95808e-05
3.95774e-05
3.93875e-05
3.94375e-05
2.26238e-05
3.95686e-05
3.9394e-05
3.95698e-05
3.95864e-05
3.93782e-05
3.95918e-05
3.95432e-05
3.95207e-05
3.95459e-05
3.95359e-05
3.93784e-05
3.93934e-05
3.95759e-05
3.95385e-05
3.95478e-05
3.95854e-05
3.94015e-05
3.94439e-05
3.94997e-05
3.95472e-05
3.95157e-05
3.94849e-05
3.94704e-05
3.94082e-05
3.95831e-05
3.93585e-05
3.94903e-05
3.81492e-05
3.95947e-05
3.89284e-05
3.95355e-05
3.93709e-05
3.89199e-05
3.89609e-05
3.9532e-05
2.6277e-05
3.95318e-05
3.88199e-05
3.93998e-05
3.9551e-05
3.93705e-05
3.95955e-05
3.94776e-05
3.95598e-05
3.95269e-05
3.95787e-05
3.93645e-05
3.95708e-05
3.86137e-05
3.90609e-05
3.95669e-05
3.95634e-05
3.94889e-05
3.89893e-05
3.94104e-05
3.94338e-05
3.95808e-05
3.83131e-05
3.93112e-05
3.95784e-05
3.95169e-05
3.94627e-05
3.94753e-05
3.93751e-05
3.94019e-05
3.9599e-05
3.95518e-05
3.94279e-05
3.95604e-05
3.93723e-05
3.94463e-05
3.95933e-05
3.88158e-05
1.96478e-06
3.95471e-05
3.89072e-05
3.94328e-05
3.95475e-05
3.93827e-05
3.95537e-05
3.95469e-05
3.95448e-05
3.94677e-05
3.93474e-05
3.94653e-05
3.80579e-05
3.96004e-05
3.95595e-05
3.95671e-05
3.93097e-05
3.95312e-05
3.94084e-05
3.959e-05
3.95695e-05
3.9619e-05
3.93526e-05
3.95783e-05
3.93791e-05
3.94461e-05
3.95748e-05
3.86164e-05
2.37307e-06
3.94664e-05
3.94759e-05
3.87388e-05
3.91582e-05
3.95378e-05
3.86078e-05
3.94927e-05
3.94014e-05
3.93968e-05
3.95868e-05
3.9379e-05
3.95896e-05
3.94784e-05
3.92185e-05
2.24984e-05
3.90558e-05
3.90725e-05
3.94166e-05
3.953e-05
3.95897e-05
3.9597e-05
3.95907e-05
3.9408e-05
3.9511e-05
3.96057e-05
3.90371e-05
3.96171e-05
3.90765e-05
3.95814e-05
3.96123e-05
3.9478e-05
3.95082e-05
3.93837e-05
3.95849e-05
3.95698e-05
3.95385e-05
3.96169e-05
3.93557e-05
3.94269e-05
3.94312e-05
3.95929e-05
3.95776e-05
3.94252e-05
3.95336e-05
3.95659e-05
3.95119e-05
2.11154e-05
3.95926e-05
3.93196e-05
3.92786e-05
3.95208e-05
3.95481e-05
3.95685e-05
3.95907e-05
3.91301e-05
3.9605e-05
3.9394e-05
3.93586e-05
3.94123e-05
3.94589e-05
3.9471e-05
3.94854e-05
3.9569e-05
3.93719e-05
3.9608e-05
3.95093e-05
3.95052e-05
3.95875e-05
3.92816e-05
3.94464e-05
3.94678e-05
3.95281e-05
3.96184e-05
3.95972e-05
3.94644e-05
3.93644e-05
3.95503e-05
3.94057e-05
3.95349e-05
3.96146e-05
3.93748e-05
3.93558e-05
3.95095e-05
3.94214e-05
3.92879e-05
3.93485e-05
3.94181e-05
3.9619e-05
3.95735e-05
3.95281e-05
3.89471e-05
3.93058e-05
3.94005e-05
2.64974e-06
2.36922e-06
3.95336e-05
3.95896e-05
3.93691e-05
3.9077e-05
3.89804e-05
2.82631e-06
3.95006e-05
3.94769e-05
3.95968e-05
3.94176e-05
3.93816e-05
3.94968e-05
3.92693e-05
3.88987e-05
3.94769e-05
3.88749e-05
3.89333e-05
3.90489e-05
3.95944e-05
3.95956e-05
3.88797e-05
3.93337e-05
3.93471e-05
3.9281e-05
3.9607e-05
3.90124e-05
3.87707e-05
3.95855e-05
3.95654e-05
3.93563e-05
3.40347e-05
3.95803e-05
3.91896e-05
3.9436e-05
3.89322e-05
3.95733e-05
3.88297e-05
3.91291e-05
3.95979e-05
3.88115e-05
3.9078e-05
3.94026e-05
3.95504e-05
3.94858e-05
3.82321e-05
3.88056e-05
3.89886e-05
3.90282e-05
3.96001e-05
3.93616e-05
3.94146e-05
3.91381e-05
3.90619e-05
3.93789e-05
3.93353e-05
3.93016e-05
3.93172e-05
3.89134e-05
3.90895e-05
3.87172e-05
3.29088e-06
3.95694e-05
3.93715e-05
3.9479e-05
3.0991e-06
2.77967e-06
3.91117e-05
2.68919e-06
2.39627e-06
3.92977e-05
3.83105e-05
3.95714e-05
3.95749e-05
3.93477e-05
3.95693e-05
3.91702e-05
3.93315e-05
3.94605e-05
3.95516e-05
3.9146e-05
3.95913e-05
3.93345e-05
3.93586e-05
3.91794e-05
3.92312e-05
3.20734e-06
3.5645e-06
2.11477e-05
3.92203e-05
3.90025e-05
3.94318e-05
3.91491e-05
3.92502e-05
3.92441e-05
3.95862e-05
3.94535e-05
3.81129e-05
3.90773e-05
3.83658e-05
3.91927e-05
3.96771e-05
3.91046e-05
3.94941e-05
3.92869e-05
3.39322e-06
3.93384e-05
3.82867e-05
3.91755e-05
3.90448e-05
3.92159e-05
3.91156e-05
3.76275e-06
3.9374e-05
3.95223e-05
3.8629e-05
3.92189e-05
4.04039e-06
3.64544e-06
3.8735e-05
3.92011e-05
1.83401e-06
1.61513e-06
2.10608e-05
3.95754e-05
3.89046e-05
3.92072e-05
4.24024e-06
3.87005e-05
3.95718e-05
3.8874e-05
3.9359e-05
3.93036e-05
4.08903e-06
4.52169e-06
3.94286e-05
4.72095e-06
3.90945e-05
3.91242e-05
3.87421e-05
3.91284e-05
4.85149e-06
5.20244e-06
3.93771e-05
5.00862e-06
4.53835e-06
3.95437e-05
5.68598e-06
4.98919e-06
5.49709e-06
4.67503e-06
5.15724e-06
3.84249e-05
6.16981e-06
3.95602e-05
5.43979e-06
5.98535e-06
6.30147e-06
6.65187e-06
2.14149e-05
5.89159e-06
6.4748e-06
7.1345e-06
2.36677e-05
6.96185e-06
6.34116e-06
7.61772e-06
7.44848e-06
6.79058e-06
7.75016e-06
8.10145e-06
7.93223e-06
7.23691e-06
8.58442e-06
9.06807e-06
7.68696e-06
8.41971e-06
9.20163e-06
8.13754e-06
8.90778e-06
9.55151e-06
7.83323e-06
8.57797e-06
1.00343e-05
9.39703e-06
8.58929e-06
1.05179e-05
9.04271e-06
9.88806e-06
1.10024e-05
1.06512e-05
1.03794e-05
9.49638e-06
1.00403e-05
9.18312e-06
1.14861e-05
9.94901e-06
1.08696e-05
1.13595e-05
1.04012e-05
1.19687e-05
1.18471e-05
1.08513e-05
1.24487e-05
1.23345e-05
1.13014e-05
1.29331e-05
1.17521e-05
1.28228e-05
1.16164e-05
6.305e-06
2.25771e-05
2.30704e-05
2.17118e-05
1.95436e-05
2.10215e-05
2.63393e-06
2.3518e-06
1.08404e-05
1.18351e-05
5.97661e-06
5.43224e-06
1.307e-05
2.15011e-05
2.00612e-05
9.20169e-06
1.92767e-05
1.22038e-05
2.25915e-05
1.33121e-05
3.44079e-06
2.33553e-05
1.64917e-05
1.50343e-05
8.64424e-07
7.29041e-07
2.06008e-05
2.07067e-06
1.06499e-05
1.03684e-05
9.48622e-06
1.9704e-05
1.8153e-05
2.11401e-05
1.3415e-05
1.71991e-05
1.58121e-05
2.81792e-05
1.86744e-05
1.72076e-05
6.33041e-06
7.75104e-06
8.90369e-06
8.13425e-06
6.94982e-06
1.33023e-05
1.21955e-05
2.20167e-05
4.04744e-06
3.65321e-06
2.07053e-05
4.86411e-06
2.29483e-05
2.54185e-05
5.00812e-06
4.53883e-06
2.55734e-05
1.73584e-06
1.52866e-06
2.38779e-05
7.92461e-06
7.23019e-06
2.7188e-05
2.06746e-05
1.72101e-05
1.7934e-05
1.8686e-05
1.81955e-05
1.67533e-05
2.10521e-05
1.5782e-05
1.44912e-05
1.91805e-05
1.87389e-05
1.25817e-05
2.01785e-05
1.96799e-05
2.38569e-05
1.82414e-05
1.7668e-05
1.6796e-05
1.26548e-05
1.45119e-05
2.32325e-05
1.85844e-05
1.35461e-05
1.53735e-05
1.81287e-05
2.02689e-05
1.63172e-05
1.58351e-05
2.08022e-05
1.90331e-05
1.31068e-05
1.47775e-05
1.42886e-05
1.77524e-05
1.52673e-05
1.5756e-05
1.38e-05
1.49165e-05
1.88792e-05
1.62923e-05
1.40121e-05
1.72736e-05
1.97402e-05
1.48686e-05
2.28691e-05
2.23484e-05
1.35597e-05
2.12403e-05
1.92355e-05
2.05635e-05
1.62443e-05
1.59572e-05
1.42759e-05
1.30936e-05
1.67321e-05
2.11587e-05
1.53514e-05
1.73866e-05
2.24441e-05
1.77064e-05
1.57381e-05
1.4444e-05
1.44634e-05
2.2815e-05
1.38997e-05
1.58309e-05
2.20457e-05
1.43842e-05
2.13018e-05
1.94932e-05
2.39564e-05
2.16146e-05
2.07562e-05
1.72187e-05
2.31165e-05
2.17134e-05
2.32614e-05
2.21566e-05
2.13301e-05
1.94553e-05
3.90883e-05
2.01094e-05
2.02433e-05
1.9846e-05
2.03017e-05
3.92696e-05
3.93885e-05
3.92345e-05
2.20008e-05
3.93917e-05
3.95691e-05
3.91889e-05
1.91826e-05
3.92195e-05
3.91721e-05
3.95383e-05
3.93533e-05
3.94249e-05
2.27225e-05
3.894e-05
2.01679e-05
3.91593e-05
3.92821e-05
3.92239e-05
3.88714e-05
3.90388e-05
3.7824e-05
1.96428e-05
2.23771e-05
3.92101e-05
3.90514e-05
2.25301e-05
3.92595e-05
3.91503e-05
1.97045e-05
3.92895e-05
3.90683e-05
3.95711e-05
3.95672e-05
3.9575e-05
3.93338e-05
3.91402e-05
3.9376e-05
3.93658e-05
3.74827e-05
3.91349e-05
3.91016e-05
3.93702e-05
3.82486e-05
1.75952e-05
1.61948e-05
3.93055e-05
3.94017e-05
3.96148e-05
3.95441e-05
2.18244e-05
3.90671e-05
3.95022e-05
3.90493e-05
3.89948e-05
3.9587e-05
3.84183e-05
3.93307e-05
3.89723e-05
3.92711e-05
3.92819e-05
3.90163e-05
3.92876e-05
3.87154e-05
3.95494e-05
3.93166e-05
3.9445e-05
3.92538e-05
3.90888e-05
3.89889e-05
3.92484e-05
3.9343e-05
3.92397e-05
3.9395e-05
3.94647e-05
3.93651e-05
3.94061e-05
3.94281e-05
3.93494e-05
3.87227e-05
3.9237e-05
3.9386e-05
3.93335e-05
2.01117e-05
1.85906e-05
3.94232e-05
3.93098e-05
3.89598e-05
3.92597e-05
3.92905e-05
3.9408e-05
3.94303e-05
3.94855e-05
3.92675e-05
3.94226e-05
1.98168e-05
3.92461e-05
3.95441e-05
3.92093e-05
3.94681e-05
3.86293e-05
3.95757e-05
3.86654e-05
3.92918e-05
3.937e-05
3.91019e-05
3.92055e-05
3.95598e-05
3.89779e-05
3.89859e-05
3.93814e-05
3.95516e-05
3.92606e-05
3.95262e-05
3.95541e-05
3.95895e-05
2.43198e-05
3.953e-05
3.96017e-05
3.95902e-05
3.94361e-05
3.93557e-05
3.93249e-05
3.93865e-05
3.94138e-05
3.9595e-05
3.95519e-05
3.94259e-05
3.93238e-05
3.93691e-05
3.9604e-05
3.95821e-05
3.9571e-05
3.95528e-05
3.92627e-05
3.95863e-05
3.95513e-05
3.95775e-05
3.92581e-05
3.89725e-05
3.93514e-05
3.93786e-05
1.61273e-05
1.48145e-05
3.95433e-05
3.95875e-05
3.93687e-05
3.93351e-05
3.92212e-05
3.9414e-05
1.98057e-05
1.82627e-05
3.9414e-05
3.8381e-05
3.93015e-05
2.37538e-05
3.95523e-05
3.93037e-05
2.05701e-05
1.90677e-05
8.61204e-07
3.93897e-05
3.92802e-05
3.93193e-05
3.95957e-05
3.95846e-05
3.93716e-05
3.93823e-05
3.95762e-05
3.94232e-05
3.95429e-05
3.9302e-05
3.94739e-05
3.95284e-05
3.88702e-05
3.9399e-05
3.94143e-05
3.93856e-05
3.93214e-05
3.95859e-05
3.9405e-05
3.93971e-05
3.94799e-05
3.94913e-05
3.94024e-05
3.9568e-05
3.95839e-05
3.95818e-05
3.9059e-05
3.95795e-05
3.89916e-05
3.95906e-05
3.95509e-05
3.87503e-05
3.85211e-05
3.95536e-05
3.95945e-05
3.93832e-05
3.93942e-05
3.94934e-05
3.92916e-05
3.95874e-05
3.89148e-05
3.94422e-05
3.94418e-05
3.93171e-05
3.90256e-05
3.95537e-05
3.93976e-05
3.9592e-05
3.9447e-05
1.91843e-05
1.76689e-05
3.93151e-05
3.94082e-05
3.95205e-05
1.46639e-05
1.34536e-05
3.87547e-05
1.88436e-05
3.93022e-05
3.94765e-05
3.95897e-05
3.93675e-05
3.9427e-05
3.9583e-05
3.95233e-05
3.92873e-05
3.9516e-05
3.92954e-05
3.95672e-05
3.94306e-05
3.94282e-05
1.93281e-05
3.94079e-05
3.95376e-05
3.93843e-05
3.95954e-05
3.88025e-05
3.94143e-05
3.9415e-05
3.96061e-05
3.93406e-05
3.84133e-05
3.93416e-05
3.81674e-05
3.92602e-05
3.93878e-05
3.94517e-05
3.94681e-05
3.94573e-05
3.95442e-05
3.9474e-05
3.94752e-05
3.91669e-05
3.94091e-05
3.92177e-05
3.95401e-05
3.95827e-05
3.95984e-05
3.93722e-05
3.95918e-05
3.95837e-05
3.94698e-05
3.94147e-05
3.96088e-05
3.9493e-05
3.93896e-05
3.95943e-05
3.93716e-05
3.93236e-05
2.09186e-05
3.95719e-05
3.95598e-05
3.95182e-05
3.95876e-05
3.95586e-05
3.92899e-05
3.93759e-05
3.93325e-05
3.95761e-05
3.95128e-05
3.95582e-05
3.90753e-05
3.95779e-05
3.92359e-05
3.95391e-05
3.94375e-05
3.95725e-05
3.95589e-05
3.95572e-05
3.93777e-05
3.93813e-05
3.93889e-05
3.9576e-05
3.93966e-05
3.94016e-05
3.91767e-05
3.88871e-05
3.95644e-05
3.95398e-05
3.94085e-05
3.95115e-05
3.9295e-05
3.85244e-05
1.8829e-05
1.73415e-05
3.94493e-05
3.94865e-05
1.83734e-05
3.94495e-05
3.92041e-05
3.96e-05
3.93484e-05
3.95929e-05
3.94399e-05
3.94906e-05
3.94291e-05
2.02868e-05
1.87237e-05
3.96041e-05
3.95776e-05
3.95079e-05
3.94334e-05
3.95804e-05
3.95078e-05
3.94258e-05
3.94872e-05
3.94213e-05
3.9441e-05
3.94336e-05
1.88492e-05
3.94081e-05
3.94462e-05
3.94348e-05
3.9575e-05
3.9349e-05
3.95957e-05
3.86302e-05
3.95721e-05
3.94469e-05
2.72743e-05
3.95923e-05
3.9359e-05
3.95963e-05
3.94271e-05
3.93948e-05
3.90094e-05
3.95999e-05
3.95862e-05
3.93296e-05
3.96073e-05
3.88017e-05
3.95734e-05
3.94315e-05
3.93717e-05
3.94391e-05
3.93726e-05
3.95796e-05
3.95686e-05
3.9521e-05
3.92226e-05
3.93803e-05
3.95635e-05
3.95979e-05
3.94211e-05
3.87645e-05
3.93413e-05
3.96101e-05
3.94374e-05
3.91174e-05
3.9403e-05
3.95888e-05
3.96009e-05
3.95805e-05
3.96035e-05
3.95606e-05
3.93212e-05
3.94157e-05
3.9581e-05
3.9423e-05
3.96009e-05
3.96043e-05
3.95702e-05
3.93652e-05
3.94731e-05
3.95806e-05
3.95953e-05
3.9604e-05
3.9605e-05
3.94247e-05
3.93851e-05
3.94024e-05
3.93176e-05
3.95912e-05
3.95032e-05
3.95711e-05
3.95738e-05
3.94626e-05
3.93423e-05
3.94528e-05
3.95031e-05
3.92897e-05
3.94691e-05
1.82244e-05
1.67663e-05
3.95682e-05
3.95559e-05
3.94083e-05
1.92601e-05
3.93674e-05
3.9549e-05
1.22249e-05
1.12003e-05
3.95603e-05
3.9397e-05
3.9575e-05
3.94971e-05
3.94856e-05
3.95598e-05
3.93718e-05
3.9469e-05
3.94466e-05
3.94294e-05
3.93688e-05
3.94605e-05
3.95356e-05
3.94201e-05
3.93409e-05
3.93587e-05
3.95978e-05
3.88836e-05
3.94813e-05
3.91715e-05
3.91218e-05
3.8689e-05
3.93913e-05
3.91436e-05
3.95577e-05
3.94048e-05
3.91598e-05
3.87591e-05
3.94311e-05
3.93972e-05
3.95946e-05
3.95586e-05
3.94988e-05
3.89109e-05
3.93841e-05
3.94393e-05
3.96005e-05
3.95663e-05
3.94148e-05
3.95603e-05
3.94273e-05
3.95344e-05
3.95577e-05
3.92678e-05
3.92675e-05
3.95571e-05
3.86428e-05
3.94243e-05
3.94556e-05
3.91349e-05
3.85452e-05
3.9282e-05
3.78244e-06
3.89597e-05
3.96069e-05
3.95609e-05
1.78516e-05
1.64284e-05
3.95976e-05
1.74594e-05
3.95243e-05
3.86644e-05
3.94657e-05
3.95023e-05
3.95936e-05
3.94232e-05
3.94075e-05
1.9654e-05
1.81274e-05
3.9465e-05
3.94208e-05
1.07576e-05
9.84539e-06
3.95301e-05
3.95748e-05
3.94193e-05
3.84793e-05
3.95256e-05
3.95121e-05
3.87698e-05
3.95373e-05
3.96034e-05
1.83945e-05
3.87295e-05
3.94291e-05
3.95286e-05
3.95801e-05
1.77516e-05
3.95361e-05
5.21343e-06
3.95992e-05
3.89248e-05
3.93147e-05
3.9572e-05
3.94731e-05
3.92882e-05
3.93729e-05
3.95646e-05
3.95552e-05
3.95465e-05
3.95398e-05
3.91344e-05
3.95245e-05
3.95433e-05
3.95777e-05
3.95277e-05
3.94118e-05
3.95782e-05
3.94697e-05
6.6573e-06
3.94838e-05
3.93505e-05
3.95906e-05
3.94122e-05
3.95978e-05
1.72489e-05
1.58597e-05
1.69374e-05
3.95525e-05
3.95275e-05
3.94798e-05
2.38925e-06
3.93802e-05
3.95913e-05
3.95859e-05
3.94331e-05
9.29646e-06
8.49669e-06
3.95976e-05
3.95747e-05
8.10435e-06
3.95367e-05
3.9395e-05
3.95772e-05
-1.31455e-07
-1.60981e-07
-1.40866e-07
3.9452e-05
3.95904e-05
3.95589e-05
3.88464e-05
3.94286e-05
3.93559e-05
3.95531e-05
3.89695e-05
2.44164e-05
3.93474e-05
3.932e-05
1.63112e-05
3.93531e-05
3.84416e-05
3.93913e-05
3.95717e-05
3.95471e-05
3.95757e-05
3.9079e-05
3.94023e-05
1.10907e-06
1.00327e-06
9.55397e-06
3.94375e-05
3.94014e-05
2.50877e-05
3.94903e-05
3.93956e-05
3.95406e-05
3.95742e-05
3.95332e-05
1.68723e-05
1.55098e-05
3.95056e-05
3.95578e-05
3.94914e-05
3.95442e-05
3.95142e-05
3.94328e-05
3.95174e-05
1.93177e-05
1.78013e-05
3.93685e-05
3.94619e-05
3.95348e-05
3.95951e-05
3.94963e-05
3.95993e-05
3.95647e-05
3.95486e-05
3.94032e-05
3.90005e-05
3.95909e-05
3.95678e-05
3.9332e-05
3.93859e-05
3.93794e-05
3.95082e-05
3.93689e-05
1.48692e-05
3.96014e-05
2.68269e-06
2.99525e-06
3.94829e-05
1.60054e-05
1.62729e-05
1.49478e-05
3.93268e-05
3.9542e-05
3.91467e-05
3.94721e-05
3.95538e-05
3.95041e-05
3.9356e-05
3.95247e-05
3.95169e-05
3.9609e-05
3.92102e-05
3.95927e-05
3.93821e-05
3.95494e-05
1.78981e-05
3.9461e-05
3.88318e-05
3.95552e-05
3.92158e-05
3.95927e-05
3.93875e-05
3.92764e-05
3.95139e-05
3.95649e-05
1.35282e-06
1.16559e-06
3.89106e-05
1.54885e-05
3.90716e-05
3.95208e-05
3.96041e-05
3.93779e-05
3.94341e-05
3.94504e-05
3.95607e-05
3.95999e-05
1.87114e-05
1.72203e-05
1.74189e-05
3.93926e-05
3.96001e-05
3.95249e-05
3.96025e-05
3.88115e-05
3.95617e-05
3.95292e-05
3.95998e-05
3.9428e-05
3.94179e-05
3.94256e-05
3.87999e-05
1.54073e-05
1.41416e-05
3.95958e-05
3.95539e-05
3.95559e-05
3.95073e-05
3.94336e-05
3.93982e-05
3.95209e-05
3.96084e-05
3.95632e-05
3.95564e-05
3.93645e-05
3.95596e-05
3.94406e-05
1.45499e-05
3.95358e-05
1.48027e-05
1.35827e-05
3.93879e-05
3.87289e-05
3.93925e-05
3.95495e-05
3.96132e-05
3.95997e-05
3.94285e-05
1.83406e-05
1.68845e-05
1.69768e-05
3.95499e-05
3.95442e-05
1.4037e-05
1.443e-05
1.32376e-05
3.90572e-05
3.94372e-05
3.93841e-05
3.93885e-05
3.94184e-05
3.94656e-05
3.95535e-05
3.9477e-05
3.95481e-05
3.83755e-05
1.35848e-05
3.93627e-05
3.96008e-05
3.95551e-05
1.38238e-05
1.26765e-05
3.95815e-05
3.95556e-05
3.95568e-05
1.77399e-05
1.63163e-05
3.83035e-05
3.9432e-05
3.82232e-05
3.9386e-05
3.84253e-05
3.84987e-05
3.90106e-05
3.96068e-05
1.34524e-05
1.23337e-05
2.31821e-05
1.64536e-05
3.84509e-05
3.95917e-05
1.25894e-05
1.2847e-05
1.17741e-05
1.85403e-05
2.01227e-05
1.98301e-05
2.16079e-05
1.59707e-05
1.73624e-05
1.59685e-05
3.95961e-05
3.90253e-05
3.94377e-05
2.25324e-05
3.93898e-05
3.95697e-05
1.21351e-05
1.24761e-05
1.1432e-05
3.96018e-05
3.95343e-05
3.95289e-05
3.61211e-05
2.85936e-05
3.96069e-05
3.93792e-05
3.9602e-05
1.34411e-06
1.16183e-05
3.94045e-05
1.1872e-05
1.08742e-05
3.95299e-05
3.85382e-05
3.95553e-05
1.55189e-05
1.67619e-05
1.54042e-05
1.11687e-05
3.72643e-05
1.14997e-05
1.05305e-05
3.923e-05
3.94003e-05
3.9449e-05
3.93938e-05
3.86972e-05
3.94122e-05
3.9598e-05
3.95402e-05
3.9561e-05
1.08958e-05
9.97313e-06
3.93303e-05
3.94135e-05
2.92766e-05
3.96056e-05
1.63826e-05
1.50531e-05
3.9207e-05
3.67774e-05
1.01694e-05
1.05224e-05
9.62819e-06
3.93608e-05
3.95818e-05
3.96073e-05
3.95807e-05
3.96064e-05
3.93533e-05
3.83463e-05
3.92518e-05
3.94196e-05
1.50046e-05
3.94404e-05
3.96026e-05
9.71898e-06
3.96078e-05
3.95456e-05
1.21625e-06
3.94112e-05
3.9439e-05
3.93903e-05
3.94572e-05
3.94202e-05
3.94247e-05
2.32385e-05
1.45206e-05
3.9586e-05
3.9542e-05
1.58891e-05
1.45919e-05
3.82609e-05
3.95671e-05
3.95157e-05
3.95847e-05
9.426e-06
8.616e-06
3.95204e-05
3.93911e-05
3.95874e-05
3.9564e-05
3.93984e-05
3.94439e-05
3.94828e-05
3.94538e-05
3.95986e-05
8.72073e-06
3.91054e-05
2.65482e-05
9.06118e-06
8.27941e-06
2.34086e-05
3.94253e-05
3.17476e-05
3.93969e-05
3.8665e-05
3.86559e-05
1.40656e-05
8.26828e-06
1.53017e-05
1.40469e-05
3.70248e-05
3.96058e-05
3.91437e-05
3.95633e-05
3.93997e-05
3.95569e-05
7.95664e-06
7.25905e-06
3.94024e-05
3.90517e-05
3.94521e-05
3.96027e-05
3.94099e-05
7.27014e-06
3.93768e-05
1.35522e-05
7.59313e-06
6.92364e-06
1.49204e-05
1.36911e-05
3.93988e-05
3.95964e-05
3.95888e-05
3.94933e-05
6.81796e-06
3.95442e-05
6.98194e-06
6.35891e-06
3.94206e-05
3.94002e-05
3.95843e-05
3.94457e-05
3.94122e-05
6.61525e-06
6.02087e-06
1.43143e-05
1.313e-05
3.94533e-05
3.94041e-05
3.93928e-05
3.96051e-05
5.82002e-06
3.95374e-05
6.00587e-06
5.45812e-06
3.95124e-05
1.31005e-05
3.94618e-05
3.95566e-05
3.95595e-05
3.94153e-05
3.9486e-05
3.9602e-05
5.36191e-06
5.63925e-06
5.11995e-06
3.95658e-05
1.26153e-05
3.93273e-05
3.95731e-05
1.39411e-05
1.27854e-05
3.94501e-05
3.94122e-05
3.94058e-05
4.3682e-06
3.92532e-05
4.52297e-06
4.08803e-06
1.21029e-05
1.33388e-05
1.22285e-05
1.89976e-05
2.06438e-05
3.94617e-05
4.16625e-06
3.7596e-06
3.92219e-05
3.89448e-06
3.88923e-05
3.95617e-05
2.01701e-05
2.20018e-05
3.94937e-05
2.51111e-05
3.76874e-05
3.86238e-05
3.52153e-06
3.16081e-06
2.27355e-05
3.48438e-05
3.95546e-05
3.93792e-05
3.94538e-05
3.94062e-05
1.16501e-05
1.78478e-06
1.57077e-06
3.94488e-05
1.29648e-05
1.18833e-05
3.17329e-06
2.84227e-06
3.95613e-05
3.93733e-05
3.94063e-05
3.94096e-05
3.95586e-05
2.90839e-06
1.11338e-05
3.94258e-05
3.94459e-05
1.23623e-05
1.13267e-05
3.9608e-05
3.94619e-05
3.95444e-05
3.9529e-05
1.9276e-06
1.68008e-06
3.93706e-05
3.94604e-05
3.95194e-05
3.94845e-05
3.94835e-05
3.9545e-05
3.94043e-05
1.19884e-05
1.09817e-05
3.9093e-05
3.95644e-05
3.94558e-05
3.78477e-05
3.89143e-05
1.06848e-05
3.95684e-05
3.96101e-05
1.01984e-05
2.30544e-05
2.37203e-06
2.20037e-05
1.13857e-05
1.04253e-05
3.95215e-05
7.25451e-07
3.95906e-05
3.67572e-05
3.93092e-05
3.76874e-05
3.96118e-05
9.68415e-06
3.9459e-05
1.10111e-05
1.00794e-05
3.94115e-05
2.20214e-05
3.94166e-05
1.04053e-05
9.51996e-06
3.85707e-05
3.45888e-05
3.94254e-05
9.23564e-06
3.94385e-05
8.74846e-06
3.36501e-07
1.55561e-07
3.93444e-05
3.94273e-05
9.92504e-06
9.07788e-06
3.95252e-05
3.94234e-05
3.94516e-05
3.94099e-05
3.9419e-05
3.9596e-05
8.23363e-06
3.95055e-05
9.55262e-06
8.73322e-06
3.8092e-05
3.9599e-05
3.95662e-05
3.95674e-05
3.95505e-05
3.95423e-05
3.95473e-05
8.93461e-06
8.16172e-06
3.94907e-05
7.78412e-06
3.9438e-05
3.95728e-05
1.16554e-06
7.29817e-06
3.91579e-05
8.45812e-06
7.72345e-06
3.91047e-05
3.85712e-05
3.92529e-05
3.95719e-05
3.95661e-05
3.95446e-05
3.94303e-05
6.78518e-06
3.93e-05
3.886e-05
8.08609e-06
7.37898e-06
3.67855e-05
4.26822e-05
3.92474e-05
3.95539e-05
3.91073e-05
3.94791e-05
7.47109e-06
6.81048e-06
3.95052e-05
3.90918e-05
6.33269e-06
3.9411e-05
3.92027e-05
3.9214e-05
5.84363e-06
7.10337e-06
6.47141e-06
2.30713e-05
3.93165e-05
3.92853e-05
3.94578e-05
3.92036e-05
3.95521e-05
2.16834e-05
3.05364e-05
3.95631e-05
3.94573e-05
5.33485e-06
6.49785e-06
5.91227e-06
3.94703e-05
3.94599e-05
3.95928e-05
3.96057e-05
3.94531e-05
3.93809e-05
3.9466e-05
6.12767e-06
5.57082e-06
3.76708e-05
3.46937e-05
4.8762e-06
3.84714e-05
3.93253e-05
3.92599e-05
3.9565e-05
3.04357e-05
4.38218e-06
3.95109e-05
5.51455e-06
5.0042e-06
3.92382e-05
3.95699e-05
3.88043e-06
5.03311e-06
4.56107e-06
3.93689e-05
2.95692e-05
3.71121e-05
3.94408e-05
3.94331e-05
3.95848e-05
4.66402e-06
4.21951e-06
2.07211e-05
3.9505e-05
3.92585e-05
3.94625e-05
3.94334e-05
3.39642e-06
3.91918e-05
4.0262e-06
3.62815e-06
3.95735e-05
3.94428e-05
2.88748e-06
3.92785e-05
3.95214e-05
2.52213e-05
3.6683e-06
3.29957e-06
3.95061e-05
3.94528e-05
3.92526e-05
2.42755e-06
3.91876e-05
7.30663e-07
7.16065e-07
8.26728e-07
3.91429e-05
3.01465e-06
2.69155e-06
2.0315e-05
3.9458e-05
3.93208e-05
3.94798e-05
3.91712e-05
3.94442e-05
3.94366e-05
3.94182e-05
2.5014e-06
2.21683e-06
3.94129e-05
3.80603e-05
3.93749e-05
3.14785e-05
2.2129e-06
1.95938e-06
3.93702e-05
3.94496e-05
2.33721e-05
3.94258e-05
3.94159e-05
3.94094e-05
3.92019e-05
2.71715e-05
3.92474e-05
3.47578e-05
3.94354e-05
2.16066e-05
3.95625e-05
3.94378e-05
3.92718e-05
3.96096e-05
3.76067e-05
3.63097e-05
3.717e-05
3.42325e-05
3.91932e-05
3.95684e-05
1.84455e-06
3.94021e-05
3.94037e-05
1.44705e-06
1.24151e-06
2.33861e-05
7.01792e-07
3.94938e-05
3.61696e-05
3.95203e-05
3.91601e-05
3.95237e-05
3.93472e-05
3.75444e-05
2.22669e-05
3.96044e-05
3.93181e-05
3.89795e-05
3.87743e-05
3.94316e-05
3.95551e-05
3.95902e-05
2.51926e-05
1.24837e-06
2.43907e-05
3.79443e-05
3.9323e-05
9.18258e-07
3.32299e-07
4.64641e-07
3.95398e-05
3.95832e-05
3.93408e-05
3.9589e-05
3.91836e-05
2.2881e-05
1.30093e-06
1.36933e-06