/*--------------------------------*- C++ -*----------------------------------*\
  =========                 |
  \\      /  F ield         | OpenFOAM: The Open Source CFD Toolbox
   \\    /   O peration     | Website:  https://openfoam.org
    \\  /    A nd           | Version:  8
     \\/     M anipulation  |
\*---------------------------------------------------------------------------*/
FoamFile
{
    version     2.0;
    format      ascii;
    class       volScalarField;
    location    "10";
    object      p;
}
// * * * * * * * * * * * * * * * * * * * * * * * * * * * * * * * * * * * * * //

dimensions      [0 2 -2 0 0 0 0];

internalField   nonuniform List<scalar> 
5490
(
4.34142e-06
4.65003e-06
3.62106e-06
4.42111e-06
6.22944e-07
8.54617e-06
8.90926e-06
8.88318e-06
3.03429e-06
8.84547e-06
3.38703e-06
3.4382e-06
2.61192e-06
3.17396e-06
2.94249e-06
8.84426e-06
8.91196e-06
8.6486e-06
4.51583e-06
3.12515e-06
2.58743e-06
8.91037e-06
8.57895e-06
8.91053e-06
2.47545e-06
2.38059e-06
2.69278e-06
4.25699e-06
8.37073e-06
1.47285e-06
4.09473e-06
8.89835e-06
6.46344e-06
5.35368e-06
1.81559e-06
4.24064e-06
8.26631e-06
4.51691e-06
9.687e-07
2.19834e-06
4.37024e-06
8.32058e-06
3.53427e-06
8.33125e-06
8.65717e-06
5.60332e-06
1.38423e-06
1.05785e-06
4.50537e-06
7.42505e-06
8.82409e-06
1.56132e-06
1.90803e-06
7.83353e-07
2.53216e-06
5.32239e-06
7.76171e-06
8.85145e-06
3.02554e-06
1.55584e-06
8.35024e-06
2.51912e-07
5.28378e-06
8.89286e-06
8.9109e-06
8.75269e-06
8.83381e-06
8.21052e-06
1.30966e-06
8.69941e-06
9.5852e-07
2.15516e-06
8.87024e-06
8.89186e-06
8.82258e-06
1.94824e-06
8.53063e-06
2.51601e-07
4.80277e-06
3.62647e-06
8.31748e-06
7.58503e-06
8.50397e-06
4.60834e-06
6.52857e-07
5.16353e-06
8.69756e-06
8.62827e-06
1.994e-06
8.24231e-06
8.84379e-06
8.51195e-06
8.36126e-07
8.77844e-06
4.34877e-06
8.85394e-06
3.18604e-06
8.45404e-06
8.16018e-06
2.62623e-06
3.28991e-06
2.0287e-06
5.77503e-06
8.86028e-06
5.46421e-06
5.23456e-06
1.9991e-06
8.18492e-06
8.89807e-06
8.90038e-06
8.86309e-06
8.89053e-06
8.71846e-06
5.61691e-06
3.78318e-06
8.27463e-06
4.73813e-06
8.70505e-06
8.62595e-06
1.63132e-06
5.55787e-06
6.42063e-06
8.43481e-06
4.70055e-06
8.82026e-06
8.82364e-06
3.11741e-06
4.47842e-07
8.8644e-06
2.99139e-06
8.67614e-06
8.2801e-06
2.5551e-06
3.676e-06
1.14231e-06
8.90685e-06
8.89849e-06
8.87197e-06
8.82198e-06
5.59154e-06
8.86073e-06
8.92384e-06
2.2357e-06
8.23642e-06
8.88372e-06
8.77864e-06
-2.50234e-08
8.79098e-06
1.77152e-06
8.4145e-06
8.90213e-06
8.90131e-06
3.37492e-06
8.9281e-06
8.18857e-06
8.91403e-06
8.9009e-06
8.7066e-06
8.76727e-06
3.04215e-06
3.94986e-06
7.97245e-06
8.21053e-06
8.79327e-06
8.88977e-06
8.70589e-06
8.89277e-06
2.09609e-07
8.41899e-06
1.32418e-07
8.85912e-06
5.11568e-07
2.45658e-06
8.8993e-06
3.26866e-06
1.33891e-06
1.75465e-06
8.92521e-06
2.29802e-06
2.87479e-06
8.66714e-06
8.8999e-06
4.59272e-06
4.42825e-06
8.91417e-06
1.20149e-06
1.73693e-06
7.24594e-07
8.89774e-06
8.83975e-06
8.83252e-06
1.14758e-06
4.65341e-06
8.89759e-06
8.84053e-06
3.8681e-06
5.3399e-06
8.91693e-06
8.47563e-06
1.64695e-06
8.78419e-06
5.47344e-06
8.91777e-06
8.86248e-06
7.34897e-06
9.0499e-06
8.89361e-06
8.76497e-06
3.69219e-06
8.28352e-06
8.78963e-06
8.91174e-06
4.17597e-06
4.01308e-06
3.72866e-06
5.67704e-06
3.86104e-06
3.46242e-06
8.96262e-06
8.91489e-06
8.61566e-06
8.89524e-06
7.75436e-06
2.45632e-06
2.41752e-06
5.9529e-07
1.93589e-06
1.89774e-06
8.71697e-07
8.91886e-06
8.37147e-07
8.26725e-06
8.89945e-06
8.845e-06
5.45271e-06
8.1437e-06
8.79923e-06
8.89967e-06
8.92303e-06
2.77471e-06
8.91791e-06
4.00028e-06
1.60985e-07
1.64392e-06
8.92503e-06
8.62812e-06
8.37258e-06
6.34271e-06
8.27391e-06
8.89787e-06
8.91629e-06
6.97194e-06
8.71588e-06
8.26399e-06
1.53947e-06
5.53312e-06
6.46552e-06
2.03858e-06
3.2118e-06
8.81542e-06
8.09756e-06
4.5006e-06
4.61725e-06
8.91144e-06
8.89502e-06
8.47532e-06
5.48877e-06
8.09904e-06
8.90049e-06
8.86257e-06
8.8916e-06
3.74963e-06
8.89975e-06
8.70717e-06
6.92118e-06
8.8964e-06
8.88617e-06
9.6761e-07
4.22199e-06
5.41451e-06
8.91576e-06
8.89806e-06
8.92128e-06
8.17318e-06
3.34239e-06
8.87242e-06
8.20127e-06
8.89768e-06
8.0326e-06
3.2226e-06
6.22432e-07
8.31807e-06
8.5313e-06
5.59983e-06
2.89821e-06
8.41172e-06
8.77565e-06
8.89687e-06
6.77711e-07
8.42761e-06
4.77692e-06
8.79441e-06
4.42488e-06
8.47594e-06
2.74987e-06
9.11108e-07
8.94049e-06
8.84591e-06
5.00705e-06
1.09509e-06
2.31307e-06
8.59952e-06
8.41472e-06
5.28701e-06
3.35462e-06
5.33627e-06
1.40924e-07
8.69011e-06
7.51085e-06
8.92289e-06
8.88475e-06
1.79227e-06
2.90451e-06
8.85947e-06
8.73861e-06
9.87551e-07
5.09383e-07
2.76518e-06
8.67776e-06
4.19258e-06
5.45144e-06
8.89381e-06
8.89673e-06
8.12347e-06
3.98984e-06
1.32959e-06
8.92145e-06
3.1347e-06
8.92079e-06
8.66641e-06
8.7931e-06
8.85863e-06
4.91496e-06
5.46896e-06
3.43367e-06
9.03192e-07
9.14622e-07
8.89941e-06
4.95207e-06
8.00679e-07
8.92785e-06
5.13008e-06
1.83438e-06
1.81402e-06
3.13056e-06
8.89567e-06
3.47953e-06
5.89005e-06
8.78132e-06
4.55084e-06
4.98347e-06
2.70283e-06
8.74171e-06
7.3319e-07
1.09765e-06
4.21895e-07
7.20139e-07
8.87759e-06
8.77314e-06
5.03191e-06
9.48375e-07
1.75323e-06
1.71255e-06
8.89382e-06
7.72357e-06
8.89375e-06
8.9218e-06
2.42355e-06
8.8639e-06
8.458e-06
9.58615e-07
1.90886e-06
5.32277e-06
5.61027e-06
6.78792e-06
2.75431e-06
3.36541e-06
2.19701e-06
2.483e-06
8.8973e-06
8.25677e-06
2.85161e-06
8.87336e-06
4.80189e-07
2.33347e-06
2.32934e-06
2.32291e-06
8.89583e-06
1.14814e-06
1.75117e-06
8.7127e-06
7.80382e-06
6.48556e-07
8.57542e-06
2.68546e-06
8.90169e-06
8.92323e-06
8.89582e-06
8.8852e-06
1.57233e-06
5.38123e-06
8.9212e-06
4.55893e-06
7.43286e-06
3.45169e-06
2.33006e-06
1.8983e-06
8.91714e-06
8.92047e-06
5.06149e-06
1.67244e-06
4.69838e-06
5.82889e-06
3.22674e-06
8.23274e-06
8.7005e-06
3.08623e-06
8.89257e-06
8.58388e-07
8.91031e-06
3.36445e-06
3.36052e-06
3.35363e-06
2.71569e-07
8.6871e-06
8.89837e-06
8.80749e-06
8.18942e-06
2.50722e-06
1.05744e-06
5.59564e-06
4.04936e-06
9.02642e-07
8.57361e-06
4.45563e-06
8.8507e-06
5.52255e-06
8.88771e-06
8.90707e-06
8.41339e-06
3.96144e-06
8.66318e-06
3.36254e-06
2.91148e-06
3.96066e-06
3.96039e-06
8.89463e-06
8.89783e-06
4.809e-06
4.38999e-06
4.56221e-06
9.30562e-07
5.4429e-06
6.14419e-06
8.69238e-06
5.66187e-06
4.04969e-06
8.64435e-06
5.03578e-06
7.07914e-06
5.73925e-06
3.95578e-06
3.52729e-06
3.30541e-06
5.84223e-08
8.31898e-06
8.45714e-06
5.59591e-06
5.94235e-06
8.88596e-06
8.89051e-06
5.64882e-06
4.90305e-06
8.81048e-08
4.12799e-06
9.28128e-07
8.80125e-06
5.23312e-06
3.79109e-06
1.33631e-07
2.93257e-06
4.82852e-07
4.82848e-06
8.85844e-06
8.36055e-06
8.88616e-06
8.86009e-06
8.90169e-06
1.10804e-06
7.50859e-07
1.04145e-06
1.04164e-06
8.90437e-06
8.91061e-06
8.73844e-06
4.63167e-06
2.08958e-06
5.16803e-06
8.0556e-06
8.45351e-06
8.6917e-06
8.29531e-06
8.8863e-06
8.87419e-06
8.88575e-06
8.90304e-06
8.3867e-06
9.04242e-07
4.91598e-06
8.67794e-06
8.55171e-06
8.89885e-06
8.16745e-06
8.23559e-06
8.90049e-06
8.87404e-06
1.24853e-06
8.65884e-06
8.85993e-06
4.23737e-07
8.91545e-06
1.18574e-06
8.86827e-06
8.84966e-06
5.14903e-06
7.28589e-06
8.89366e-06
8.28878e-06
8.91848e-06
2.8762e-06
8.75633e-06
8.30235e-06
8.78816e-06
7.61073e-06
8.88317e-06
8.86098e-06
8.14509e-06
8.17829e-06
8.70734e-06
8.9095e-06
4.33683e-06
6.78136e-06
4.24352e-07
8.75361e-06
8.88588e-06
1.29706e-06
8.44997e-06
8.86144e-06
3.55173e-07
8.88447e-06
8.92693e-06
8.88569e-06
8.90116e-06
8.73238e-06
7.97152e-06
6.55244e-06
8.6762e-06
6.30547e-06
1.24929e-06
8.67725e-06
3.75282e-07
7.99526e-06
8.90503e-06
8.81013e-06
8.90579e-06
8.9242e-06
8.55338e-06
5.71955e-06
7.51835e-06
1.63405e-06
8.90126e-06
8.13146e-06
8.3069e-06
9.98059e-07
5.77456e-06
7.20128e-07
7.77014e-06
8.88447e-06
8.84039e-06
8.88984e-06
8.39898e-06
8.73211e-06
8.89857e-06
8.58603e-06
8.88713e-06
8.8587e-06
8.65877e-06
8.92391e-06
8.85141e-06
8.8549e-06
8.19024e-07
2.05693e-06
8.50241e-06
8.92721e-06
4.44498e-06
9.83613e-07
3.38202e-06
8.57025e-06
1.14802e-06
5.62742e-06
8.88271e-06
8.86633e-06
7.99443e-06
3.51926e-06
3.93427e-06
1.00408e-06
8.64783e-06
8.28472e-06
8.89631e-06
6.15261e-06
8.85706e-06
1.04237e-06
9.65932e-07
1.59374e-06
1.1304e-07
8.89473e-06
8.8619e-06
4.14856e-06
8.52684e-06
7.91889e-06
8.88217e-06
8.271e-06
8.67512e-06
7.29204e-06
8.30056e-06
1.45438e-06
6.24144e-06
1.16016e-06
8.25448e-06
8.80829e-06
8.82754e-06
8.35536e-06
8.9002e-06
8.8998e-06
8.44391e-06
8.17704e-07
6.01681e-06
8.8007e-06
8.57898e-06
2.2151e-06
6.98101e-06
8.26358e-06
5.76659e-06
8.92567e-06
8.69486e-06
8.60956e-06
8.90241e-06
8.37304e-06
8.21485e-06
8.21452e-06
8.30894e-06
5.37737e-06
8.13762e-06
8.88307e-06
1.4387e-06
8.87247e-06
4.98871e-06
6.91812e-06
8.35244e-06
8.71856e-06
8.86321e-06
8.89051e-06
8.49006e-06
8.7963e-06
8.64908e-06
8.24758e-06
8.66124e-06
3.25231e-06
8.49677e-06
8.19616e-06
8.86357e-06
8.17884e-06
5.48227e-06
5.69507e-06
4.95833e-06
8.83994e-06
8.88539e-06
8.83992e-06
8.89828e-06
1.12287e-06
8.23883e-06
8.90229e-06
2.76889e-06
5.40648e-06
8.77663e-06
8.85853e-06
8.28299e-06
8.89578e-06
6.08412e-06
8.17692e-06
8.32932e-06
2.57501e-06
5.99187e-06
8.26055e-06
3.85115e-06
8.88909e-06
8.47594e-06
8.27747e-06
8.26679e-06
6.0926e-06
8.45452e-06
8.26293e-06
8.51077e-06
8.78812e-06
8.9038e-06
8.86978e-06
8.89759e-06
6.31073e-06
5.91311e-06
8.10055e-06
8.83812e-06
5.78507e-06
3.18159e-06
8.78159e-06
1.30283e-06
8.56276e-06
8.89887e-06
5.61465e-06
5.39656e-06
4.79141e-06
8.87245e-06
8.14138e-06
8.10664e-06
8.2638e-06
8.40158e-06
8.88046e-06
8.50538e-06
8.27984e-06
5.54404e-06
8.90062e-06
8.29942e-06
7.41122e-06
4.47379e-06
7.51786e-06
3.30026e-06
8.73779e-06
8.38052e-06
8.89953e-06
8.28313e-06
8.91367e-06
8.64287e-06
5.83336e-07
8.6537e-06
8.82842e-06
8.81551e-06
6.00648e-06
8.49651e-06
8.89897e-06
8.25579e-06
8.24416e-06
8.49539e-06
8.8863e-06
6.07814e-06
8.8911e-06
2.71772e-06
8.90344e-06
8.78731e-06
5.82682e-06
3.10185e-06
3.45003e-06
8.77875e-06
5.70796e-06
8.4867e-06
5.89276e-06
8.56908e-06
8.36434e-06
8.74696e-06
1.05342e-06
8.49946e-06
8.90087e-06
3.18741e-06
8.6927e-06
7.28577e-06
8.10184e-06
4.35811e-06
5.8815e-06
7.99246e-06
8.8997e-06
8.87579e-06
8.5208e-06
8.65084e-06
8.73216e-06
6.17709e-06
5.24731e-06
8.28481e-06
8.48756e-06
4.57885e-06
8.63621e-06
8.87736e-06
8.75727e-06
3.40994e-07
8.43412e-06
8.52943e-06
4.10242e-06
8.69902e-06
8.87993e-06
8.90831e-06
8.52658e-06
4.99718e-06
8.77639e-06
8.65839e-06
8.82733e-06
6.04185e-06
8.77712e-06
6.57405e-06
8.53736e-06
8.53751e-06
8.90844e-06
2.18943e-06
5.97663e-06
4.68461e-07
3.30936e-06
8.67238e-06
5.23251e-06
8.71028e-06
7.95268e-06
3.33371e-06
1.40983e-06
8.85213e-06
8.5224e-06
8.90788e-06
8.7329e-06
2.86219e-06
6.32072e-06
7.14085e-06
8.91251e-06
8.91229e-06
8.63377e-06
8.83137e-06
8.87853e-06
2.26449e-06
8.60253e-06
1.90203e-06
6.47997e-06
8.29588e-06
5.63879e-06
8.34527e-06
8.87281e-06
8.62927e-06
8.14083e-06
1.84194e-06
1.7462e-06
8.47014e-06
8.61706e-06
8.82306e-06
8.87254e-06
8.74248e-06
8.8845e-06
8.76665e-06
5.92108e-06
8.77709e-06
8.89746e-06
1.31071e-06
2.514e-06
8.44005e-06
8.58431e-06
6.96966e-07
8.90919e-06
8.77561e-06
5.49705e-06
8.8539e-06
6.7524e-06
8.29118e-06
7.07645e-06
8.74963e-06
8.87856e-06
2.80812e-06
6.30442e-06
8.56508e-06
2.93384e-06
8.7095e-06
7.50258e-06
6.07289e-06
5.93179e-06
8.80686e-06
8.76555e-06
8.26373e-06
8.75931e-06
8.64091e-06
5.00939e-06
8.90241e-06
8.89422e-06
8.49725e-06
7.00335e-07
3.53772e-06
5.4423e-06
4.86231e-07
8.6746e-06
8.78804e-06
6.40328e-06
6.09192e-06
8.6188e-06
8.05796e-06
8.76441e-06
8.86269e-06
8.49446e-06
8.56349e-06
6.52387e-06
9.04615e-07
8.88051e-06
5.79085e-06
8.87548e-06
5.83261e-06
5.8658e-06
8.82485e-06
8.64977e-06
8.6911e-06
8.92309e-06
8.54092e-06
8.89017e-06
8.76911e-06
8.75712e-06
8.33935e-06
5.64866e-07
8.87701e-06
8.82145e-06
8.89795e-06
7.71031e-06
8.79179e-06
5.54675e-06
5.14179e-06
8.81672e-06
8.62227e-06
8.58199e-06
8.63571e-06
8.80046e-06
7.17669e-06
8.8676e-06
8.77534e-06
8.88191e-06
8.73625e-06
8.78723e-06
8.88032e-06
8.45755e-06
8.69189e-06
8.8311e-06
8.84123e-06
6.30438e-06
5.98006e-06
8.78083e-06
8.87112e-06
8.91489e-06
8.82202e-06
8.86457e-06
8.86989e-06
8.74772e-06
8.86355e-06
8.91745e-06
6.34784e-06
8.89629e-06
6.1202e-06
8.85691e-06
8.92425e-06
8.7419e-06
8.83496e-06
8.3234e-06
8.74917e-06
5.68855e-06
8.71984e-06
8.55437e-06
8.74454e-06
8.24176e-06
8.82776e-06
8.8116e-06
8.86137e-06
5.77077e-06
6.25566e-06
8.51978e-06
8.35354e-06
8.90756e-06
8.43862e-06
6.84871e-06
5.76264e-06
8.82579e-06
8.86177e-06
1.16311e-06
7.39232e-06
8.78334e-06
8.87379e-06
6.60651e-06
8.68881e-06
5.56267e-06
8.82316e-06
8.84951e-06
8.87783e-06
6.0133e-06
8.7232e-06
8.83387e-06
8.78304e-06
8.58534e-06
5.73869e-06
8.76717e-06
8.87431e-06
4.65095e-07
6.06874e-06
1.8882e-06
8.91132e-06
8.92121e-06
8.87845e-06
8.84032e-06
8.85484e-06
8.87925e-06
8.31192e-06
8.52465e-06
8.86697e-06
8.75212e-06
5.77799e-06
8.67085e-06
8.75739e-06
8.86699e-06
7.97016e-07
8.82734e-06
8.88016e-06
8.8578e-06
8.83683e-06
8.79425e-06
8.88131e-06
8.69717e-06
1.23371e-06
8.87828e-06
8.96844e-06
8.72563e-06
8.90049e-06
8.89793e-06
8.89116e-06
2.5993e-06
8.83132e-06
8.45105e-06
6.1305e-06
8.88661e-06
8.86785e-06
8.91542e-06
8.81275e-06
8.71898e-06
8.87175e-06
8.89991e-06
8.88136e-06
8.91347e-06
8.70505e-06
6.36985e-06
8.87705e-06
8.87669e-06
8.86074e-06
8.6147e-06
8.71364e-06
8.88854e-06
8.88858e-06
8.88514e-06
8.73196e-06
8.89173e-06
8.34226e-06
6.43784e-06
8.88184e-06
8.8221e-06
8.81705e-06
5.66041e-06
8.85132e-06
8.89573e-06
8.87837e-06
8.90275e-06
8.89009e-06
8.7304e-06
8.87947e-06
8.78449e-06
8.72072e-06
4.50074e-06
8.88854e-06
8.86695e-06
5.67022e-06
8.81634e-06
8.35845e-06
8.88793e-06
8.69933e-06
8.8669e-06
7.19579e-06
8.90354e-06
8.89882e-06
8.7684e-06
4.74573e-06
8.88465e-06
8.90185e-06
5.93656e-06
8.82294e-06
8.88276e-06
8.87728e-06
8.88021e-06
8.8541e-06
8.9001e-06
8.79464e-06
8.89475e-06
8.76277e-06
3.22165e-06
5.63665e-06
8.85794e-06
8.72844e-06
8.87963e-06
8.90087e-06
2.77902e-06
8.50264e-06
8.73705e-06
8.46468e-06
8.84634e-06
5.19521e-06
8.8495e-06
8.84879e-06
8.80044e-06
8.9075e-06
8.29563e-06
8.87678e-06
8.63713e-06
4.97341e-06
2.15801e-06
8.89259e-06
8.75679e-06
8.83748e-06
8.83513e-06
8.913e-06
4.30916e-06
8.79083e-06
8.81723e-06
5.70048e-06
8.69055e-06
8.86956e-06
8.76684e-06
8.6932e-06
8.88467e-06
8.88033e-06
1.65832e-06
8.88617e-06
8.91748e-06
6.21341e-06
8.24654e-06
5.55758e-06
5.40523e-06
8.90721e-06
8.87904e-06
8.8822e-06
8.90868e-06
8.86996e-06
6.12781e-06
4.83631e-06
8.76525e-06
8.87432e-06
8.90666e-06
5.78607e-06
8.8387e-06
8.89256e-06
8.84326e-06
8.87477e-06
8.90123e-06
8.89084e-06
8.87708e-06
8.90716e-06
8.90038e-06
6.02467e-06
8.8311e-06
8.88301e-06
5.86872e-06
8.88028e-06
8.80327e-06
8.9167e-06
8.82684e-06
8.87927e-06
4.3291e-06
8.84674e-06
8.90737e-06
8.8836e-06
8.78278e-06
8.81551e-06
5.36005e-06
8.88199e-06
8.74994e-06
8.80206e-06
8.88544e-06
8.88356e-06
8.90377e-06
8.8971e-06
8.74101e-06
8.88424e-06
8.90794e-06
8.90317e-06
5.54147e-06
6.43249e-06
8.90492e-06
6.18211e-06
8.82937e-06
8.87565e-06
8.88324e-06
8.90659e-06
6.23822e-06
3.60429e-06
8.87432e-06
8.81257e-06
8.87317e-06
8.87474e-06
8.72313e-06
8.90226e-06
8.80666e-06
5.29911e-06
8.84409e-06
8.87994e-06
8.79708e-06
5.97643e-06
8.886e-06
5.94052e-06
8.75052e-06
8.80543e-06
8.88168e-06
8.87391e-06
8.90793e-06
8.71721e-06
8.89332e-06
8.86065e-06
8.84332e-06
8.87318e-06
8.87938e-06
8.84101e-06
8.88368e-06
6.01876e-06
8.88545e-06
8.89881e-06
8.87062e-06
8.70873e-06
8.87881e-06
8.88432e-06
8.77225e-06
8.7566e-06
1.64711e-06
8.87402e-06
8.88267e-06
8.86187e-06
8.87254e-06
8.90989e-06
8.8355e-06
8.79942e-06
5.46402e-06
8.90002e-06
8.87893e-06
8.72661e-06
5.85382e-06
8.8864e-06
8.85436e-06
-2.35054e-07
8.89635e-06
8.78828e-06
8.8257e-06
8.85639e-06
8.91615e-06
2.24356e-06
4.21055e-06
8.83684e-06
8.79941e-06
8.84346e-06
5.54368e-06
8.83969e-06
3.07142e-06
8.88589e-06
8.83299e-06
8.8868e-06
8.91802e-06
5.59831e-06
8.80053e-06
5.88314e-06
8.83616e-06
5.98008e-06
8.82067e-06
8.84633e-06
8.87088e-06
8.78781e-06
8.90404e-06
8.88919e-06
8.53118e-06
8.84788e-06
8.874e-06
8.89134e-06
8.38745e-06
8.90519e-06
8.88165e-06
8.91079e-06
8.77156e-06
8.86871e-06
5.43152e-06
8.88184e-06
8.90498e-06
8.87913e-06
8.30666e-06
8.84434e-06
8.82556e-06
5.79445e-06
5.85943e-06
3.27735e-06
8.89023e-06
8.91212e-06
5.88166e-06
8.85572e-06
8.8897e-06
8.65885e-06
8.88749e-06
8.87603e-06
8.8885e-06
8.83259e-06
8.8292e-06
8.89966e-06
8.85937e-06
8.87842e-06
8.89215e-06
8.87975e-06
8.78489e-06
8.76219e-06
8.89142e-06
8.9046e-06
5.98134e-06
8.62842e-06
8.78974e-06
8.75217e-06
8.86785e-06
4.76732e-06
3.87325e-06
8.90932e-06
8.88122e-06
8.84497e-06
8.82857e-06
8.87121e-06
5.77886e-06
8.88384e-06
8.86858e-06
5.85777e-06
8.67734e-06
8.87723e-06
8.90797e-06
8.75165e-06
8.91314e-06
8.762e-06
2.77207e-06
2.78498e-06
9.0167e-06
8.86753e-06
8.90479e-06
8.905e-06
5.68911e-06
8.83356e-06
8.87414e-06
8.77821e-06
8.91813e-06
8.86493e-06
8.89853e-06
8.90383e-06
2.60036e-06
5.82913e-06
8.87454e-07
8.90173e-06
8.88417e-06
1.75574e-06
8.87075e-06
5.93273e-06
8.91547e-06
4.74994e-06
8.8131e-06
8.90051e-06
8.62835e-06
8.88224e-06
6.03099e-06
5.88568e-06
5.55322e-06
8.86622e-06
8.91323e-06
8.91466e-06
8.89203e-06
8.87607e-06
8.81076e-06
6.01858e-06
8.90569e-06
8.87994e-06
8.89899e-06
8.85362e-06
8.88073e-06
3.01542e-06
8.87586e-06
8.90274e-06
8.88808e-06
8.89589e-06
8.89573e-06
5.51878e-06
8.87493e-06
8.92816e-06
8.85428e-06
8.77316e-06
8.91494e-06
8.90337e-06
8.89977e-06
4.84705e-06
8.64751e-06
8.72514e-06
8.81992e-06
8.90575e-06
8.89653e-06
8.87869e-06
8.59721e-06
8.77108e-06
4.64991e-06
5.31325e-06
8.89103e-06
8.91174e-06
8.64046e-06
8.87651e-06
8.8784e-06
8.78811e-06
8.84921e-06
2.12936e-06
8.89618e-06
8.90806e-06
5.35378e-06
8.88308e-06
5.27171e-06
8.88348e-06
8.42066e-06
8.87996e-06
8.89583e-06
8.904e-06
5.71582e-06
8.74072e-06
8.86085e-06
8.88355e-06
8.83622e-06
8.91574e-06
8.88427e-06
8.91685e-06
8.89728e-06
5.40953e-06
8.91304e-06
8.89231e-06
8.89378e-06
8.79103e-06
8.8804e-06
8.88014e-06
3.28087e-06
5.00607e-06
8.87587e-06
5.30076e-06
8.91042e-06
8.76185e-06
8.90809e-06
8.89352e-06
8.89393e-06
8.83726e-06
8.83898e-06
8.78496e-06
8.8958e-06
8.90021e-06
8.78888e-06
8.83481e-06
6.46789e-06
8.92171e-06
8.84928e-06
8.78845e-06
8.79875e-06
8.89749e-06
8.89441e-06
8.90823e-06
8.84743e-06
5.15811e-06
8.74644e-06
8.9009e-06
5.23557e-06
8.88518e-06
5.42205e-06
8.91972e-06
8.90133e-06
8.88124e-06
8.89345e-06
8.8691e-06
8.90886e-06
4.23283e-06
8.83402e-06
8.91483e-06
8.85748e-06
8.8783e-06
8.83822e-06
8.89761e-06
8.80751e-06
8.90108e-06
8.87947e-06
8.90461e-06
4.90513e-06
8.90062e-06
8.79071e-06
8.69384e-06
8.91413e-06
5.47728e-06
8.91419e-06
8.86422e-06
8.78275e-06
8.76739e-06
8.75741e-06
5.45299e-06
8.90454e-06
8.91513e-06
8.75962e-06
8.89518e-06
8.89823e-06
8.90326e-06
5.64756e-06
8.89656e-06
8.87776e-06
5.27926e-06
8.86458e-06
8.90308e-06
8.88893e-06
8.77684e-06
8.86367e-06
8.78381e-06
8.80385e-06
5.08808e-06
5.16635e-06
8.72979e-06
8.21246e-07
8.93171e-06
8.89438e-06
8.87506e-06
8.92786e-06
5.2315e-06
8.75889e-06
8.77002e-06
8.89737e-06
8.88156e-06
8.89136e-06
5.50583e-06
5.68531e-06
5.10464e-06
5.24001e-06
5.19658e-06
9.82065e-07
2.24131e-06
8.90236e-06
8.90562e-06
4.92474e-06
5.12909e-06
4.98974e-06
8.91082e-06
8.8491e-06
8.91579e-06
8.87917e-06
8.89766e-06
8.90139e-06
8.89996e-06
8.90813e-06
8.89148e-06
8.89952e-06
8.89387e-06
8.90111e-06
3.27419e-06
8.89694e-06
8.90471e-06
8.8998e-06
8.90193e-06
8.89903e-06
8.89621e-06
5.2334e-06
8.26201e-06
8.90275e-06
8.85936e-06
8.86153e-06
8.92603e-06
5.02736e-06
8.78108e-06
8.90088e-06
3.87259e-06
8.84253e-06
8.91549e-06
5.15112e-06
5.27139e-06
5.45436e-06
5.5271e-06
5.07159e-06
8.76921e-06
8.8882e-06
8.90928e-06
8.79625e-06
8.90142e-06
8.89895e-06
8.78539e-06
5.11275e-06
5.02709e-06
8.79254e-06
8.91384e-06
8.89324e-06
8.90216e-06
8.91311e-06
5.5699e-06
5.14273e-06
5.15723e-06
8.90109e-06
8.8961e-06
8.85797e-06
8.90149e-06
8.84112e-06
8.87788e-06
5.89052e-06
8.77654e-06
8.90872e-06
4.48063e-06
5.10802e-06
5.20834e-06
8.87808e-06
8.37891e-06
8.89363e-06
1.04993e-06
4.67872e-06
5.60663e-06
8.91404e-06
8.81806e-06
5.20365e-06
8.88427e-06
5.05858e-06
8.90239e-06
8.78309e-06
8.90232e-06
4.9836e-06
8.77759e-06
8.81318e-06
8.90651e-06
8.91952e-06
8.91236e-06
4.49666e-06
8.90279e-06
5.09202e-06
8.90311e-06
8.87461e-06
8.80876e-06
5.15243e-06
8.89988e-06
5.01573e-06
8.88327e-06
8.78404e-06
5.03409e-06
8.88916e-06
4.91907e-06
8.91756e-06
4.82449e-06
5.37966e-06
8.87613e-06
8.90489e-06
4.96879e-06
5.30443e-06
5.37394e-06
5.34474e-06
8.90411e-06
8.84749e-06
8.89604e-06
4.83643e-06
8.87896e-06
1.0714e-06
8.91757e-06
5.07516e-06
8.87285e-06
4.93805e-06
4.91092e-06
1.59656e-06
4.93144e-06
4.89115e-06
8.8873e-06
5.10323e-06
5.24883e-06
2.01836e-06
4.77155e-06
4.88204e-06
4.94585e-06
5.31421e-06
8.88812e-06
5.32394e-06
8.9092e-06
5.23067e-06
5.34814e-06
5.02384e-06
3.85484e-06
8.92087e-06
3.92417e-06
4.82227e-06
4.94248e-06
4.42373e-06
5.25677e-06
8.90558e-06
4.32897e-06
4.79707e-06
4.21571e-06
8.85346e-06
5.1622e-06
4.77683e-06
5.27485e-06
4.79698e-06
4.86251e-06
2.92297e-06
2.96489e-06
4.50156e-06
5.36349e-06
4.73718e-06
4.3245e-06
4.67939e-06
5.03556e-06
5.4309e-06
4.70259e-06
4.50929e-06
4.31549e-06
4.12146e-06
5.04238e-06
4.71146e-06
4.86592e-06
8.91608e-06
4.82207e-06
5.07877e-06
4.587e-06
4.80553e-06
5.10453e-06
4.54524e-06
4.67292e-06
5.16092e-06
5.22401e-06
4.97893e-06
4.66315e-06
4.60639e-06
4.62307e-06
4.35351e-06
4.41684e-06
8.89515e-06
4.68972e-06
2.15778e-06
4.71197e-06
4.72431e-06
4.62758e-06
4.26262e-06
4.04124e-06
8.90767e-06
4.52445e-06
3.18742e-06
4.4827e-06
4.53164e-06
4.70777e-06
4.66195e-06
3.78795e-06
4.5779e-06
4.66319e-06
4.45251e-06
4.8921e-06
4.759e-06
4.88118e-06
5.42486e-06
4.44774e-06
4.89967e-06
4.74519e-06
4.21669e-06
4.72527e-06
4.52284e-06
4.3913e-06
4.8694e-06
4.56829e-06
4.39582e-06
4.4083e-06
4.62631e-06
4.41582e-06
4.66446e-06
4.64425e-06
4.06132e-06
4.79585e-06
4.30372e-06
4.22827e-06
5.35928e-06
3.99581e-06
4.30242e-06
4.13502e-06
4.56885e-06
4.37784e-06
4.6121e-06
4.41113e-06
8.89254e-06
4.55797e-06
4.31698e-06
4.42667e-06
4.22641e-06
4.29857e-06
4.39662e-06
4.22021e-06
4.68957e-06
4.72796e-06
4.31559e-06
4.25332e-06
4.30091e-06
8.91991e-06
4.22917e-06
5.06606e-06
4.26487e-06
4.14084e-06
4.14119e-06
4.06197e-06
4.47188e-06
4.38311e-06
4.09382e-06
4.2189e-06
4.32621e-06
4.53295e-06
4.1857e-06
4.35134e-06
4.13572e-06
4.05137e-06
4.17524e-06
4.37454e-06
4.14038e-06
4.48639e-06
4.01623e-06
4.34203e-06
4.32357e-06
4.28876e-06
3.89357e-06
3.96917e-06
4.05389e-06
3.93556e-06
4.05199e-06
4.30519e-06
4.15893e-06
4.13627e-06
4.13756e-06
4.05953e-06
4.22405e-06
5.00307e-06
3.92165e-06
4.26978e-06
4.24155e-06
3.98326e-06
4.17278e-06
3.83088e-06
4.10481e-06
3.9659e-06
3.97775e-06
4.46656e-06
3.85078e-06
3.83258e-06
4.10104e-06
4.09442e-06
2.77336e-06
3.90971e-06
4.06746e-06
3.76525e-06
3.7588e-06
3.88957e-06
4.15418e-06
3.81362e-06
4.02522e-06
3.88777e-06
4.04955e-06
4.04311e-06
3.57011e-06
3.68097e-06
3.90384e-06
3.98357e-06
4.03237e-06
4.30312e-06
3.53072e-06
3.64451e-06
3.72568e-06
3.30626e-06
3.76093e-06
3.9523e-06
3.8156e-06
3.81159e-06
3.14383e-06
3.41121e-06
3.45295e-06
3.57741e-06
3.86328e-06
3.60073e-06
3.43505e-06
3.67289e-06
3.49944e-06
3.88084e-06
3.62822e-06
3.89032e-06
3.76253e-06
3.48923e-06
3.64028e-06
3.34349e-06
3.41218e-06
3.30776e-06
3.56554e-06
3.74667e-06
3.43494e-06
3.62432e-06
3.71643e-06
3.56918e-06
3.52575e-06
3.80252e-06
3.41712e-06
3.48248e-06
3.78487e-06
3.43127e-06
3.54981e-06
3.69073e-06
3.53654e-06
3.80764e-06
3.21791e-06
3.57531e-06
3.96455e-06
3.5077e-06
3.68677e-06
3.47933e-06
3.33687e-06
3.6496e-06
3.27474e-06
3.39658e-06
3.50612e-06
3.56664e-06
3.74321e-06
3.40815e-06
3.42154e-06
3.36216e-06
3.46406e-06
3.33774e-06
3.44841e-06
4.91579e-06
3.24987e-06
3.48308e-06
9.93031e-07
1.03849e-06
3.34082e-06
3.40916e-06
3.31809e-06
3.22406e-06
3.51247e-06
3.41769e-06
2.69417e-06
3.30653e-06
3.48758e-06
3.42467e-06
3.15967e-06
3.42562e-06
3.83729e-06
3.18809e-06
3.35992e-06
3.68163e-06
3.25827e-06
3.07795e-06
3.18693e-06
3.22944e-06
3.393e-06
3.39624e-06
3.03259e-06
3.45337e-06
3.29279e-06
2.80009e-06
3.27662e-06
2.95918e-06
3.12893e-06
3.16738e-06
3.15121e-06
3.28782e-06
2.71214e-06
4.50279e-06
3.23909e-06
2.94776e-06
3.03042e-06
2.9383e-06
3.11281e-06
2.74888e-06
2.8492e-06
3.02592e-06
2.83903e-06
2.86181e-06
3.05354e-06
2.96894e-06
2.9945e-06
2.89117e-06
3.09355e-06
2.87546e-06
2.78887e-06
3.25613e-06
3.07413e-06
3.12205e-06
2.94885e-06
2.75564e-06
2.99837e-06
3.04574e-06
2.91203e-06
2.9364e-06
3.16607e-06
2.87418e-06
2.65611e-06
2.96044e-06
2.84485e-06
2.8188e-06
3.01472e-06
1.94179e-06
2.70258e-06
2.74036e-06
2.85876e-06
2.87099e-06
2.88882e-06
3.32492e-06
2.28043e-06
2.77704e-06
2.55493e-06
2.50318e-06
2.92408e-06
2.85338e-06
2.84969e-06
2.68015e-06
2.78978e-06
2.69782e-06
2.56188e-06
2.70404e-06
2.59943e-06
2.21771e-06
1.9195e-06
2.3679e-06
2.01497e-06
3.41027e-06
2.45965e-06
2.66288e-06
2.13874e-06
2.60547e-06
2.59175e-06
2.50873e-06
2.2717e-06
2.05473e-06
2.64105e-06
2.77112e-06
2.52411e-06
2.51418e-06
2.23122e-06
2.60845e-06
1.74847e-06
2.35174e-06
1.84569e-06
2.64228e-06
2.4061e-06
2.11716e-06
2.52716e-06
2.58307e-06
2.41507e-06
2.5403e-06
2.61013e-06
2.41217e-06
2.32032e-06
2.72126e-06
2.41905e-06
1.65623e-06
1.95793e-06
2.47538e-06
2.5151e-06
2.44371e-06
2.44853e-06
2.49701e-06
2.36355e-06
2.09258e-06
2.36342e-06
2.01186e-06
2.23192e-06
2.15804e-06
2.30924e-06
2.4408e-06
2.18306e-06
2.31172e-06
2.3566e-06
2.36593e-06
3.20531e-06
2.45358e-06
2.37631e-06
2.15159e-06
2.42045e-06
2.78969e-06
2.45323e-06
2.5344e-06
2.35323e-06
2.24486e-06
2.19959e-06
2.07418e-06
2.38263e-06
2.21787e-06
2.17898e-06
2.41479e-06
2.51106e-06
2.29401e-06
2.14282e-06
1.85658e-06
2.24832e-06
2.41087e-06
2.27298e-06
1.94265e-06
2.23367e-06
2.15805e-06
2.18477e-06
2.36269e-06
2.15292e-06
2.06715e-06
2.00129e-06
1.90115e-06
2.13698e-06
1.63397e-06
1.71162e-06
2.05592e-06
2.01809e-06
2.00105e-06
2.27349e-06
1.80087e-06
1.84859e-06
2.10378e-06
2.1349e-06
2.05876e-06
1.95598e-06
1.82358e-06
1.94185e-06
1.99044e-06
1.77684e-06
1.83688e-06
1.84881e-06
2.03244e-06
1.92032e-06
2.08224e-06
1.53554e-06
1.83618e-06
1.82567e-06
1.74405e-06
1.69039e-06
2.79292e-06
1.93106e-06
1.89652e-06
1.88576e-06
1.97991e-06
2.08791e-06
1.64581e-06
1.98399e-06
1.82387e-06
1.83788e-06
1.59877e-06
1.61766e-06
1.7301e-06
1.74816e-06
1.85665e-06
1.82718e-06
1.72858e-06
1.98788e-06
1.56069e-06
1.9205e-06
1.50584e-06
1.8354e-06
1.2892e-06
1.61314e-06
1.65321e-06
1.42577e-06
1.49844e-06
1.76548e-06
1.35685e-06
1.39746e-06
2.38475e-06
1.55467e-06
1.66889e-06
1.52429e-06
1.50716e-06
1.30547e-06
1.35835e-06
1.38023e-06
1.45311e-06
1.36787e-06
1.53443e-06
1.40355e-06
1.38824e-06
1.35226e-06
1.4321e-06
1.48346e-06
1.21424e-06
1.2238e-06
1.36327e-06
1.22179e-06
1.43743e-06
1.2334e-06
1.3176e-06
1.51814e-06
1.40171e-06
1.1983e-06
1.12441e-06
1.39701e-06
1.15336e-06
1.27806e-06
1.44156e-06
1.16957e-06
1.03554e-06
1.26984e-06
1.13308e-06
1.14252e-06
1.12673e-06
1.19729e-06
9.47138e-07
1.11345e-06
1.00378e-06
1.08034e-06
1.31248e-06
1.0181e-06
1.26961e-06
1.22891e-06
9.2635e-07
1.41206e-06
1.00798e-06
3.07403e-06
1.12572e-06
1.65893e-06
1.0817e-06
1.02382e-06
1.01539e-06
3.64602e-06
2.83348e-06
2.63823e-06
1.9091e-06
1.26828e-06
1.5086e-06
8.02567e-07
9.52984e-07
9.26856e-07
1.71408e-06
8.58652e-07
1.16672e-06
4.69072e-06
1.99969e-06
2.46292e-06
1.79331e-06
1.18384e-06
2.7834e-06
2.99759e-06
2.82056e-06
2.04398e-06
1.50541e-06
4.03913e-06
1.45798e-06
3.54613e-06
1.08045e-06
8.74121e-07
1.07162e-06
4.20979e-06
1.06859e-06
5.22998e-06
2.2348e-06
2.40767e-06
2.57708e-06
2.42016e-06
4.19151e-06
2.55815e-06
1.89859e-06
1.83698e-06
2.57532e-06
2.67899e-06
2.69892e-06
8.58489e-07
3.44789e-06
3.41682e-06
1.65547e-06
4.44371e-06
2.67886e-06
4.2597e-07
2.11601e-06
9.86376e-07
2.99743e-06
5.30027e-06
5.7355e-06
1.68697e-06
1.21367e-06
1.18192e-06
3.88393e-06
1.23896e-06
3.93816e-06
1.0704e-06
4.11031e-06
4.37567e-06
1.60217e-06
5.7657e-06
1.01118e-06
1.02269e-06
2.91952e-06
4.46292e-06
3.27225e-06
3.71522e-06
3.92741e-06
4.60956e-06
1.98886e-06
6.35928e-06
1.02816e-06
2.98536e-06
1.18798e-06
5.14957e-06
5.55265e-06
9.85139e-07
5.09128e-07
5.35127e-06
4.28216e-06
4.52941e-06
4.79613e-06
5.54928e-06
5.89899e-07
6.42575e-07
3.79917e-06
4.04298e-06
5.53782e-06
4.36919e-06
1.07905e-06
3.20451e-06
5.47871e-06
4.06139e-06
1.09609e-06
3.86541e-06
5.76865e-06
4.53955e-06
5.83986e-06
2.40921e-06
1.55084e-06
1.41724e-06
9.98146e-07
5.37546e-06
5.01761e-06
4.55282e-06
8.19028e-07
9.06128e-07
1.32885e-06
5.43722e-06
8.94617e-07
1.04474e-06
1.05313e-06
1.52043e-06
1.78648e-06
1.08648e-06
9.74932e-07
1.81876e-06
1.07347e-06
1.19007e-06
1.52186e-06
1.32033e-06
1.71028e-06
1.20003e-06
1.52232e-06
1.74218e-06
1.32876e-06
1.58302e-06
1.45431e-06
1.8771e-06
1.82906e-06
1.46905e-06
1.48991e-06
1.47232e-06
1.57959e-06
2.24484e-06
1.5499e-06
2.3017e-06
1.43631e-06
1.54429e-06
1.60359e-06
1.42547e-06
2.41589e-06
1.56449e-06
2.10386e-06
1.67399e-06
1.68591e-06
2.33414e-06
1.70369e-06
2.51838e-06
2.85729e-06
2.21949e-06
1.76068e-06
2.78446e-06
2.54861e-06
2.58939e-06
2.60305e-06
2.42127e-06
2.33251e-06
2.48921e-06
1.8181e-06
2.50679e-06
2.33128e-06
2.4604e-06
1.78254e-06
2.50574e-06
3.14329e-06
2.57222e-06
2.65848e-06
2.69508e-06
2.45389e-06
3.21372e-06
2.50059e-06
2.64865e-06
2.7152e-06
2.96154e-06
2.64273e-06
2.54088e-06
3.0355e-06
3.34019e-06
2.95302e-06
3.17582e-06
3.15391e-06
3.74769e-06
3.05467e-06
3.23619e-06
2.55008e-06
3.72074e-06
3.12141e-06
3.33122e-06
3.43677e-06
3.10097e-06
3.36514e-06
3.63104e-06
3.91249e-06
3.45624e-06
3.53699e-06
3.61553e-06
4.0481e-06
3.66555e-06
3.54388e-06
3.85397e-06
4.16551e-06
3.8907e-06
3.58725e-06
3.54471e-06
3.49746e-06
3.94911e-06
3.96147e-06
3.63911e-06
3.60104e-06
3.6607e-06
3.95282e-06
3.72604e-06
4.02152e-06
3.68715e-06
4.10213e-06
3.77255e-06
4.25708e-06
4.09603e-06
4.02378e-06
4.61278e-06
4.18287e-06
4.23498e-06
4.13753e-06
4.52202e-06
4.23317e-06
3.76829e-06
4.78669e-06
4.16981e-06
8.92159e-06
4.4328e-06
5.00371e-06
4.46209e-06
4.8869e-06
4.95586e-06
8.88283e-06
4.61103e-06
5.0789e-06
5.13653e-06
9.64755e-07
4.63294e-06
4.79128e-06
8.90312e-06
5.16177e-06