/*--------------------------------*- C++ -*----------------------------------*\
  =========                 |
  \\      /  F ield         | OpenFOAM: The Open Source CFD Toolbox
   \\    /   O peration     | Website:  https://openfoam.org
    \\  /    A nd           | Version:  8
     \\/     M anipulation  |
\*---------------------------------------------------------------------------*/
FoamFile
{
    version     2.0;
    format      ascii;
    class       volScalarField;
    location    "10";
    object      p;
}
// * * * * * * * * * * * * * * * * * * * * * * * * * * * * * * * * * * * * * //

dimensions      [0 2 -2 0 0 0 0];

internalField   nonuniform List<scalar> 
1642
(
7.91837e-05
6.54287e-05
6.46667e-05
6.85692e-05
7.92016e-05
7.91561e-05
7.89698e-05
7.90243e-05
7.88861e-05
7.9077e-05
7.05873e-05
7.84669e-05
7.91099e-05
7.90374e-05
7.90328e-05
7.85296e-05
7.9152e-05
7.91765e-05
7.9203e-05
7.91963e-05
7.90982e-05
7.89563e-05
7.90523e-05
7.83471e-05
7.91381e-05
7.89749e-05
7.9164e-05
7.64345e-05
1.50987e-06
1.37337e-06
1.32775e-06
7.91388e-05
7.73895e-05
7.91805e-05
7.91619e-05
7.90316e-05
7.83678e-05
7.91662e-05
7.90974e-05
7.90383e-05
7.91224e-05
7.92028e-05
7.91984e-05
5.90437e-05
8.15668e-05
7.91337e-05
7.917e-05
7.91835e-05
7.91926e-05
7.90767e-05
7.92043e-05
7.91478e-05
7.91871e-05
6.87758e-05
6.95682e-05
7.89969e-05
7.89393e-05
7.91698e-05
7.8219e-05
7.92783e-05
7.91657e-05
7.91527e-05
7.91934e-05
7.86637e-05
7.90525e-05
7.91962e-05
7.91922e-05
7.91969e-05
7.89963e-05
7.92067e-05
7.92104e-05
7.91465e-05
7.92121e-05
7.92095e-05
7.90873e-05
7.8672e-05
4.47871e-07
4.96079e-07
5.29097e-07
7.91483e-05
7.91942e-05
7.91957e-05
7.81884e-05
7.90484e-05
8.05081e-05
7.8797e-05
7.89249e-05
7.91265e-05
7.88742e-05
7.91738e-05
7.90913e-05
7.91191e-05
7.88028e-05
7.89832e-05
7.9043e-05
7.90986e-05
7.91132e-05
7.90717e-05
7.91003e-05
7.89388e-05
7.89713e-05
7.85998e-05
7.91515e-05
2.50241e-05
2.63255e-05
2.84601e-05
2.83948e-05
3.50214e-05
2.19232e-05
1.91564e-05
3.56625e-05
2.16331e-05
3.50358e-05
8.34433e-06
8.63445e-06
6.20158e-06
5.93838e-06
3.33069e-06
4.64329e-05
5.11867e-05
5.98372e-06
4.75098e-05
4.64326e-05
7.87661e-05
7.90498e-05
7.92343e-05
7.91168e-05
7.91816e-05
7.91076e-05
7.90798e-05
7.92251e-05
7.9132e-05
7.91715e-05
7.99477e-05
7.91916e-05
7.91926e-05
7.91161e-05
7.92091e-05
7.91322e-05
7.82661e-05
7.91084e-05
7.91971e-05
7.91954e-05
7.92182e-05
7.90227e-05
7.91704e-05
7.91724e-05
7.92009e-05
7.9102e-05
7.91177e-05
7.91668e-05
7.91641e-05
7.91884e-05
7.91658e-05
7.86002e-05
7.91466e-05
7.9175e-05
7.92031e-05
7.91635e-05
7.91482e-05
7.92018e-05
7.9197e-05
7.91648e-05
7.89834e-05
7.91835e-05
7.91661e-05
7.91806e-05
7.91865e-05
7.91592e-05
7.90116e-05
7.90936e-05
7.91852e-05
7.92043e-05
7.91977e-05
7.91466e-05
7.91822e-05
7.90847e-05
7.91458e-05
7.9146e-05
8.03027e-05
7.88917e-05
7.91992e-05
7.85697e-05
7.92044e-05
7.9201e-05
7.90962e-05
7.91834e-05
7.91919e-05
7.90911e-05
7.89681e-05
7.89991e-05
7.91903e-05
7.91962e-05
7.91139e-05
7.92367e-05
7.90905e-05
7.87592e-05
7.91907e-05
7.90346e-05
7.91359e-05
7.91935e-05
7.92008e-05
7.88231e-05
7.9019e-05
7.89356e-05
7.91965e-05
7.91529e-05
2.66918e-05
2.28841e-05
2.11227e-05
2.14823e-05
2.30812e-05
2.73398e-05
2.81403e-05
2.37521e-05
3.70521e-05
2.71893e-05
3.78623e-05
2.1933e-05
2.57461e-05
3.06684e-05
2.06449e-05
3.2263e-05
1.41913e-05
2.90763e-05
2.11455e-05
2.19762e-05
4.51927e-05
2.38403e-05
2.02765e-05
3.85395e-05
2.78612e-05
3.13329e-05
2.22469e-05
2.97371e-05
2.49463e-05
2.62434e-05
3.29262e-05
4.09871e-05
1.86982e-05
4.60098e-05
2.88012e-05
3.94777e-05
4.78313e-05
1.90713e-05
6.60564e-06
4.00776e-05
4.70553e-05
4.74568e-05
6.34114e-06
6.30912e-06
3.38467e-05
4.92061e-05
4.654e-05
1.03048e-05
9.80748e-06
1.24436e-05
4.42628e-05
3.02635e-05
1.06172e-05
4.41247e-05
4.22767e-05
4.30079e-05
6.57205e-06
4.67953e-05
4.14345e-05
2.02814e-05
3.20229e-05
4.94956e-05
3.78369e-05
4.14735e-05
9.50508e-06
1.2435e-05
4.06877e-05
4.36545e-05
5.34218e-05
3.94957e-05
3.52606e-05
3.46391e-05
3.59653e-05
1.98502e-05
1.13934e-05
3.53255e-05
5.21506e-05
4.80755e-06
1.38447e-05
2.94757e-05
4.5812e-05
1.38159e-05
3.272e-05
1.34921e-05
1.85276e-05
3.72081e-05
1.74699e-05
1.10707e-05
3.10822e-05
4.76307e-06
5.49701e-05
5.89877e-05
3.3624e-05
9.85596e-06
7.09346e-06
8.9944e-06
1.5907e-05
7.36668e-06
2.94056e-05
1.28624e-06
1.85096e-05
7.88944e-06
8.70186e-06
8.17193e-06
1.94682e-05
4.33842e-05
5.12651e-05
3.76947e-05
1.34633e-05
1.67679e-05
9.83087e-06
2.2014e-05
3.3156e-06
5.82848e-05
2.30462e-05
2.78077e-06
2.89093e-05
4.93412e-05
5.62954e-05
2.86687e-05
4.57415e-05
1.11762e-06
3.45839e-05
3.93269e-05
4.22636e-05
7.28419e-06
1.22174e-05
2.82795e-05
1.26862e-05
8.97215e-06
7.24896e-06
2.45856e-05
1.93808e-05
1.76656e-05
2.5164e-05
5.01491e-05
2.67393e-05
1.18847e-05
5.1086e-05
5.47884e-05
5.37348e-05
1.82525e-05
1.1877e-05
3.68233e-05
4.56118e-05
8.98958e-06
5.64916e-05
1.30295e-05
2.62719e-06
1.22092e-05
2.83605e-06
5.67519e-05
1.70772e-05
2.54543e-05
2.35179e-05
2.22804e-05
2.43461e-05
2.35332e-05
1.78484e-05
2.63467e-05
3.61284e-05
2.54718e-05
5.67342e-05
1.50661e-06
3.44613e-05
3.44362e-05
1.54508e-05
2.27048e-05
5.06279e-05
3.3718e-05
4.27203e-05
4.31186e-05
3.87383e-05
3.53258e-05
3.70584e-05
1.41647e-05
2.43233e-05
1.62586e-05
1.50756e-05
2.58956e-05
5.56594e-06
2.74873e-05
2.3886e-05
3.69295e-05
5.00139e-05
2.63148e-05
5.81822e-06
4.59574e-05
3.51052e-06
5.3513e-05
1.90512e-05
3.04089e-05
1.5872e-05
4.64383e-05
3.19967e-05
3.80826e-05
6.43712e-06
4.0217e-06
1.15649e-05
5.56182e-06
3.05358e-05
4.1567e-05
1.507e-05
3.2688e-05
3.77392e-05
4.39644e-05
1.59158e-05
4.72653e-05
4.66365e-05
4.5253e-05
5.53562e-06
4.90231e-05
2.79939e-05
5.78839e-06
3.09946e-05
8.9715e-06
5.60129e-06
1.3316e-05
3.2944e-06
3.14652e-05
1.15855e-05
3.28243e-05
2.11082e-05
3.89522e-05
4.0553e-05
3.96479e-05
1.62437e-05
1.58617e-05
3.54561e-05
4.77726e-05
3.35923e-05
4.44e-05
2.28447e-05
3.42993e-05
4.8183e-05
3.21304e-05
2.02394e-05
1.32985e-05
1.70473e-05
1.10932e-05
1.86625e-05
4.39553e-05
1.14157e-05
2.98693e-05
5.22421e-05
3.60973e-05
3.61902e-05
3.45227e-05
4.21079e-05
3.19313e-06
1.54409e-05
4.36362e-05
1.67917e-05
3.02806e-05
2.58056e-06
3.11244e-05
4.81154e-05
4.23507e-05
4.73604e-05
5.08514e-05
3.3055e-05
4.32757e-05
3.18815e-05
5.31036e-05
4.46017e-05
5.67818e-05
4.05452e-05
5.11607e-05
4.47925e-05
4.14078e-05
8.10649e-06
3.93221e-06
2.14477e-05
2.89396e-05
3.54394e-05
1.06964e-05
2.01715e-06
2.10857e-05
1.98781e-05
1.6231e-05
8.17958e-06
2.46098e-05
4.89879e-05
2.66481e-05
3.85928e-05
4.03691e-05
1.74541e-05
4.33431e-05
3.186e-05
4.19978e-05
2.51293e-05
3.37241e-05
6.24796e-05
2.19857e-06
3.86756e-05
4.27173e-05
4.25419e-06
6.03056e-05
2.97775e-05
4.29965e-05
1.46279e-05
1.42658e-05
2.70151e-05
4.60241e-05
3.34938e-05
3.51193e-05
9.77809e-06
4.82177e-05
1.66577e-05
2.71777e-05
2.27321e-05
1.21733e-05
4.88816e-05
1.9504e-05
1.30099e-05
1.26674e-05
5.22483e-05
5.02715e-05
5.47805e-05
2.14837e-06
2.31785e-05
3.98186e-05
7.89634e-06
2.44499e-06
4.07961e-05
3.9675e-05
3.79321e-05
6.15076e-05
5.04549e-06
3.88025e-05
2.33497e-05
4.26431e-06
4.41502e-05
1.79001e-05
2.38196e-05
4.49734e-05
6.39982e-06
1.9659e-06
2.54243e-05
8.67839e-06
5.33541e-05
2.37149e-05
4.12018e-05
4.16825e-05
9.47486e-06
2.51873e-06
1.93968e-05
5.31438e-05
4.5039e-05
2.7542e-05
1.42873e-05
2.78146e-05
3.53409e-06
1.45637e-05
4.18936e-05
2.46258e-05
4.02489e-05
2.72259e-05
1.02701e-05
8.13267e-06
5.00361e-06
1.13754e-05
2.70537e-05
3.6334e-05
2.62181e-05
4.83128e-05
3.0768e-05
2.75164e-05
1.25094e-05
4.82406e-05
4.24232e-05
1.66719e-05
4.50003e-05
2.46306e-05
2.54353e-05
2.80414e-05
1.82729e-05
3.12197e-05
2.96055e-05
2.86161e-05
2.92549e-05
2.65439e-05
3.69575e-05
2.83843e-05
2.41485e-05
4.68794e-05
2.49152e-05
7.12154e-06
2.59332e-05
3.73584e-05
4.73732e-06
1.00837e-05
1.05834e-05
7.3962e-06
3.2856e-05
2.30107e-05
1.53623e-05
2.06921e-05
3.40207e-05
2.57827e-05
3.62477e-05
4.74072e-05
4.04197e-06
1.76363e-05
3.23916e-05
4.49551e-05
1.07254e-05
3.32592e-05
1.79697e-05
4.0786e-06
1.46492e-05
3.32068e-05
1.10194e-05
2.18923e-05
1.70992e-05
9.77722e-06
4.53173e-05
1.61615e-05
4.46399e-05
4.56029e-05
2.40474e-05
3.75807e-05
4.32545e-06
4.78454e-05
2.94182e-05
1.33167e-05
4.16053e-05
1.49304e-05
3.8447e-05
3.98809e-05
2.0319e-05
1.27581e-05
4.01782e-05
1.85569e-05
1.65477e-05
1.69609e-05
1.7357e-05
2.38071e-06
2.61261e-06
3.89557e-05
3.80271e-05
1.58208e-06
3.81479e-05
1.29703e-05
3.15801e-05
1.17011e-05
1.57388e-05
1.37674e-05
1.41242e-05
3.89203e-05
4.19211e-05
4.06802e-05
4.08983e-05
4.69644e-05
3.42161e-05
3.4127e-05
3.48223e-05
1.08927e-05
4.61335e-05
4.78277e-06
1.93545e-05
4.59665e-05
2.01521e-05
4.10476e-05
5.42032e-05
1.97077e-05
1.05766e-05
1.77585e-05
4.4591e-05
3.34221e-05
3.93126e-05
4.89571e-05
1.80157e-06
3.2621e-05
3.02198e-05
3.18199e-05
5.03843e-05
3.15779e-06
3.98053e-05
3.10199e-05
3.01243e-05
4.96588e-05
4.74017e-05
1.50351e-05
4.58301e-05
4.37138e-05
1.18878e-05
4.27883e-05
1.5053e-05
4.40942e-05
3.23527e-06
3.47531e-06
4.28078e-05
4.55787e-05
1.01495e-05
1.88384e-05
1.36265e-05
1.53623e-05
1.44957e-05
3.98016e-06
4.65122e-05
7.92013e-05
7.91878e-05
7.91952e-05
7.92193e-05
7.90446e-05
7.92017e-05
7.9047e-05
7.91887e-05
7.91682e-05
7.91978e-05
7.91506e-05
2.93236e-05
2.76047e-05
2.66033e-05
2.31785e-05
2.50891e-05
2.55272e-05
2.581e-05
2.5007e-05
2.30969e-05
3.11487e-05
3.32851e-05
3.0319e-05
3.41522e-05
2.41421e-05
2.90108e-05
3.27767e-05
3.71216e-05
3.19673e-05
2.82056e-05
2.74069e-05
3.35819e-05
3.0609e-05
1.63234e-05
1.97892e-05
1.62463e-05
1.7848e-05
1.74362e-05
1.7194e-05
1.66333e-05
2.02356e-05
2.98157e-05
1.94414e-05
1.89253e-05
1.86451e-05
1.70462e-05
2.42347e-05
1.80622e-05
1.58226e-05
3.42416e-05
3.80005e-05
3.76912e-05
1.46437e-05
3.88752e-05
1.5447e-05
3.97494e-05
3.14043e-05
3.74283e-05
1.50128e-05
3.34514e-05
1.33912e-05
1.30446e-05
4.06104e-05
4.23538e-05
1.45867e-05
1.42008e-05
1.38426e-05
4.41073e-05
4.1481e-05
1.54517e-05
1.22473e-05
3.85706e-05
1.25853e-05
4.12971e-05
3.94708e-05
1.11084e-05
3.77756e-05
4.32299e-05
4.03905e-05
4.49836e-05
1.28474e-05
1.17741e-05
1.14476e-05
4.58583e-05
4.2177e-05
1.06542e-05
1.09714e-05
1.02402e-05
4.09825e-05
4.48998e-05
4.75475e-05
4.30567e-05
3.93754e-05
1.1979e-05
3.85751e-05
4.39528e-05
4.40282e-05
4.01702e-05
4.60673e-05
4.96466e-05
4.67177e-05
1.37192e-05
4.6155e-05
4.46615e-05
4.50429e-06
5.03922e-05
4.27114e-06
3.00505e-06
3.73142e-06
3.50997e-06
4.58135e-05
2.79487e-06
2.17058e-06
5.41626e-05
2.36324e-06
5.54366e-05
4.91669e-05
7.86297e-05
7.81444e-05
7.92019e-05
7.91958e-05
7.9159e-05
7.92081e-05
7.91869e-05
7.86015e-05
3.23893e-05
2.94961e-05
3.67183e-05
2.05861e-05
2.09467e-05
1.81622e-05
3.65809e-05
2.05731e-05
3.71983e-05
7.36249e-06
7.64101e-06
4.44015e-05
5.29635e-06
5.03835e-06
7.52803e-06
5.04814e-06
5.26206e-05
2.12944e-06
4.72473e-05
4.70534e-05
4.75388e-05
7.91897e-05
3.24138e-05
2.92049e-05
3.67639e-05
1.75331e-05
1.99626e-05
2.03255e-05
3.66227e-05
1.98936e-05
3.72717e-05
6.74574e-06
7.01786e-06
4.42565e-05
5.38443e-06
5.28465e-05
5.13154e-06
6.85795e-06
4.7241e-05
5.10721e-06
4.7572e-05
4.8263e-05
7.92007e-05
7.92124e-05
7.91779e-05
7.91862e-05
7.91814e-05
7.92048e-05
7.91079e-05
7.90841e-05
7.92035e-05
7.92051e-05
7.90994e-05
7.91488e-05
7.91638e-05
7.92008e-05
7.91918e-05
7.90607e-05
7.92015e-05
7.89116e-05
7.88742e-05
7.92033e-05
7.92291e-05
7.91991e-05
7.91993e-05
7.8628e-05
7.82055e-05
7.89806e-05
7.90655e-05
7.90257e-05
7.92025e-05
7.90217e-05
7.91751e-05
7.91205e-05
7.8726e-05
7.9048e-05
7.96831e-05
7.91472e-05
7.9202e-05
7.91578e-05
7.91807e-05
7.91898e-05
7.91531e-05
7.91953e-05
7.89262e-05
7.91306e-05
7.77586e-05
7.91795e-05
7.91774e-05
7.91251e-05
7.91883e-05
7.91126e-05
7.92019e-05
7.92037e-05
7.92159e-05
7.9038e-05
7.91258e-05
7.9104e-05
7.91361e-05
7.91507e-05
7.89777e-05
7.91567e-05
7.92096e-05
7.91489e-05
7.90882e-05
7.90921e-05
7.92171e-05
7.91923e-05
4.68214e-05
5.19128e-05
4.35937e-05
3.63993e-05
3.57894e-05
3.58469e-05
3.15164e-05
1.8249e-06
7.90852e-05
7.90732e-05
7.9052e-05
7.89962e-05
7.9143e-05
7.91917e-05
7.914e-05
2.99588e-05
7.91588e-05
5.84302e-06
6.10357e-06
2.46895e-05
4.69628e-05
4.92164e-05
5.8906e-06
5.18803e-05
4.75389e-05
6.64921e-06
3.93389e-06
3.40633e-06
4.64822e-05
6.82612e-06
6.55564e-06
4.73321e-05
8.97653e-06
9.28004e-06
9.27359e-06
8.25741e-06
8.54493e-06
2.63917e-05
3.59871e-05
3.53706e-05
3.53615e-05
1.97819e-05
1.90554e-05
2.51065e-05
2.23124e-05
2.80966e-05
2.85481e-05
2.1531e-05
2.59746e-05
2.22035e-05
2.87027e-05
2.25509e-05
2.1838e-05
7.90375e-05
7.90419e-05
7.90731e-05
7.92081e-05
7.90162e-05
7.90775e-05
7.91954e-05
7.77199e-05
7.79655e-05
2.1128e-05
2.07671e-05
2.07683e-05
3.15616e-05
1.83477e-05
3.5895e-05
7.73677e-06
3.00033e-05
3.58313e-05
4.21243e-06
7.82932e-06
3.64593e-05
4.68145e-05
2.49129e-06
7.54764e-06
4.35092e-05
5.20112e-05
4.69983e-05
4.56213e-06
4.31759e-06
4.76737e-05
7.90489e-05
7.91683e-05
7.90578e-05
7.91726e-05
7.89947e-05
7.90386e-05
7.9165e-05
3.06971e-05
2.15707e-05
4.26009e-05
8.60218e-06
7.94456e-05
7.78382e-05
7.91553e-05
7.89673e-05
7.89308e-05
7.89167e-05
7.8878e-05
7.91414e-05
7.91771e-05
7.91222e-05
7.88917e-05
7.91983e-05
7.87113e-05
7.88669e-05
7.90429e-05
7.91838e-05
7.88451e-05
7.91922e-05
7.92052e-05
7.91941e-05
7.90241e-05
7.91928e-05
7.91887e-05
7.91727e-05
7.91274e-05
7.90303e-05
7.91847e-05
7.91991e-05
7.89598e-05
7.91874e-05
7.91419e-05
7.9086e-05
7.91875e-05
7.9177e-05
7.91359e-05
7.90177e-05
7.92155e-05
1.96807e-06
1.57198e-06
1.71602e-06
9.36927e-06
4.17995e-05
2.22922e-05
3.01874e-05
5.04373e-05
4.53903e-05
4.83754e-05
9.44495e-06
9.14592e-06
2.25008e-05
3.48721e-05
3.26618e-05
2.2721e-05
2.75909e-05
2.59576e-05
2.39836e-05
7.90921e-05
7.91069e-05
7.89632e-05
7.90658e-05
7.87897e-05
7.90765e-05
7.92009e-05
7.91991e-05
7.87953e-05
7.91905e-05
7.89961e-05
7.90809e-05
7.90538e-05
7.91265e-05
7.88956e-05
7.90487e-05
7.90752e-05
7.90698e-05
7.90325e-05
5.29546e-05
4.76025e-05
4.84816e-06
5.02974e-05
7.62031e-06
4.81878e-05
2.69768e-06
4.90889e-06
5.16264e-06
7.72446e-06
7.44743e-06
4.33293e-05
3.61514e-05
2.06552e-05
3.68179e-05
1.82416e-05
3.62341e-05
2.06709e-05
3.18991e-05
2.10329e-05
2.91459e-05
5.1712e-05
4.76249e-05
4.8358e-05
5.38319e-05
1.90747e-06
6.64733e-06
2.91462e-06
2.12432e-06
2.6855e-06
6.91684e-06
4.64403e-05
5.7508e-06
4.63163e-05
4.6527e-05
3.49637e-06
5.11565e-05
5.00567e-05
5.73608e-06
4.5704e-05
4.68646e-05
1.11986e-05
3.73432e-06
5.99782e-06
5.09312e-05
3.0014e-06
6.75651e-06
4.20559e-06
4.46965e-05
4.47551e-05
1.03345e-05
1.20626e-05
4.7388e-05
4.41726e-05
1.72664e-05
8.40468e-06
1.29306e-05
8.45726e-06
4.40233e-05
8.16929e-06
4.26189e-05
3.69683e-05
4.07486e-05
4.31233e-05
4.65164e-05
1.34835e-05
1.07409e-05
1.10587e-05
4.20523e-05
1.15377e-05
1.18661e-05
4.5606e-05
1.31331e-05
1.81393e-05
3.98795e-05
1.4668e-05
1.64005e-05
1.23356e-05
4.10231e-05
4.46878e-05
1.37992e-05
3.90434e-05
1.90173e-05
4.00294e-05
1.2675e-05
4.37725e-05
1.42874e-05
1.39268e-05
3.90664e-05
1.55347e-05
3.82333e-05
3.81439e-05
4.19869e-05
1.47225e-05
1.50913e-05
1.67167e-05
3.50026e-05
4.2872e-05
1.6319e-05
3.45805e-05
4.1113e-05
1.59014e-05
3.76359e-05
3.56092e-05
4.02427e-05
3.93748e-05
1.55202e-05
3.85065e-05
3.49865e-05
3.27854e-05
1.8971e-05
1.71138e-05
1.79123e-05
3.45192e-05
3.24399e-05
1.98662e-05
3.32585e-05
3.36667e-05
2.14416e-05
3.37897e-05
1.8715e-05
2.76893e-05
3.16234e-05
2.89632e-05
3.08131e-05
1.95205e-05
2.83427e-05
2.13927e-05
3.10695e-05
3.06456e-05
3.02704e-05
2.54871e-05
2.42272e-05
2.86676e-05
2.94686e-05
2.17464e-05
2.62848e-05
2.78722e-05
2.55922e-05
2.7081e-05
2.43119e-05
7.90085e-05
7.89854e-05
8.49142e-06
4.25726e-05
2.14851e-05
3.10457e-05
7.91884e-05
7.91498e-05
7.89323e-05
7.8836e-05
7.86425e-05
7.88165e-05
7.8977e-05
7.91514e-05
7.91877e-05
7.90429e-05
7.87404e-05
7.91006e-05
7.92263e-05
7.908e-05
7.9204e-05
7.90426e-05
7.9196e-05
2.47227e-05
2.67463e-05
2.71223e-05
4.55405e-05
3.43889e-05
4.89225e-05
4.5272e-05
3.21957e-05
2.34406e-05
9.86061e-06
1.01685e-05
2.32783e-05
4.97967e-05
7.84074e-05
7.91445e-05
7.9138e-05
7.91984e-05
7.91911e-05
7.90666e-05
7.91936e-05
7.90046e-05
6.30126e-05
7.91902e-05
7.91048e-05
7.87392e-05
7.91852e-05
7.91924e-05
7.8908e-05
7.92053e-05
7.88745e-05
7.85594e-05
9.46823e-06
4.16455e-05
2.23751e-05
2.98316e-05
4.84867e-05
4.58608e-05
4.81834e-05
4.54842e-05
9.3656e-06
9.06803e-06
3.51889e-05
3.29942e-05
2.24078e-05
2.26441e-05
2.79169e-05
2.58795e-05
2.39123e-05
7.8925e-05
7.91371e-05
7.91919e-05
7.80782e-05
7.89465e-05
5.23123e-05
4.50927e-05
4.55431e-05
4.92146e-05
9.94497e-06
1.0253e-05
3.40713e-05
3.18665e-05
2.47881e-05
2.68252e-05
2.33657e-05
2.67841e-05
2.3517e-05
7.8376e-05
7.91319e-05
-1.66896e-07
2.75491e-07
-5.61906e-07
-3.3849e-07
-2.60105e-07
9.07054e-10
7.91922e-05
7.91988e-05
7.87259e-05
7.91983e-05
7.90607e-05
7.90585e-05
7.83975e-05
7.91925e-05
7.86683e-05
7.92052e-05
7.92022e-05
7.90835e-05
7.88251e-05
7.90849e-05
8.0241e-05
7.94057e-05
7.89134e-05
7.9017e-05
7.91114e-05
7.91953e-05
7.91963e-05
7.92059e-05
1.73564e-06
1.89999e-06
7.91507e-05
6.63112e-05
7.9186e-05
7.91575e-05
6.40066e-05
7.91868e-05
7.91752e-05
1.32005e-06
1.52199e-06
7.82925e-05
7.91971e-05
7.84828e-05
7.91967e-05
7.85018e-05
7.9343e-05
7.88992e-05
7.91958e-05
7.89588e-05
7.88403e-05
7.90982e-05
7.91962e-05
7.92176e-05
7.91469e-05
2.16279e-06
7.90468e-05
7.88424e-05
7.91752e-05
7.90501e-05
7.9094e-05
7.8829e-05
7.86982e-05
7.91848e-05
7.91902e-05
7.91996e-05
7.91602e-05
7.91862e-05
7.91517e-05
7.90005e-05
7.91934e-05
7.91633e-05
7.89508e-05
7.85708e-05
7.91549e-05
7.88588e-05
2.3794e-06
2.1838e-06
2.12576e-06
7.91664e-05
7.91191e-05
5.8839e-05
7.91814e-05
7.90681e-05
7.65169e-05
7.90943e-05
7.89568e-05
7.90261e-05
7.92007e-05
7.92076e-05
7.91822e-05
5.53656e-05
7.92047e-05
7.89101e-05
7.93682e-05
7.76022e-05
7.91959e-05
7.82458e-05
7.92052e-05
7.8319e-05
7.88929e-05
7.91874e-05
7.8995e-05
8.21524e-05
7.91989e-05
7.81648e-05
7.8825e-05
7.90218e-05
7.61214e-05
7.91574e-05
5.3904e-05
7.90895e-05
7.91989e-05
7.91221e-05
7.85919e-05
7.99729e-05
7.89922e-05
7.91997e-05
7.92567e-05
7.90992e-05
7.93158e-05
7.91644e-05
7.71807e-05
7.91101e-05
5.79598e-05
7.9203e-05
7.91926e-05
7.90049e-05
7.91705e-05
7.90523e-05
7.91252e-05
6.66483e-05
7.86413e-05
4.86408e-05
7.89458e-05
6.44805e-05
7.80222e-05
7.45546e-05
7.91329e-05
7.91816e-05
7.90671e-05
7.90788e-05
7.86033e-05
7.90717e-05
1.14457e-06
1.2351e-06
1.45692e-06
7.89907e-05
7.9202e-05
7.91969e-05
7.9217e-05
7.91621e-05
5.67046e-05
7.91557e-05
7.91851e-05
7.91123e-05
7.85616e-05
7.31732e-05
6.06491e-05
7.91467e-05
7.87639e-05
7.1925e-05
7.89699e-05
7.91629e-05
7.89798e-05
7.91437e-05
7.92027e-05
7.90566e-05
7.85813e-05
7.8989e-05
7.91878e-05
7.91384e-05
7.91835e-05
7.9249e-05
7.91433e-05
7.91887e-05
7.89955e-05
7.90101e-05
5.74348e-05
7.91791e-05
7.89315e-05
7.91415e-05
7.9091e-05
7.83282e-05
7.90977e-05
7.92049e-05
7.8457e-05
7.88678e-05
7.91751e-05
7.90367e-05
7.90643e-05
7.91478e-05
7.87288e-05
7.92313e-05
7.92378e-05
7.90559e-05
7.90884e-05
7.87028e-05
7.91265e-05
9.64343e-07
6.58535e-05
7.97421e-05
7.91909e-05
7.89908e-05
7.88698e-05
8.08554e-05
7.89689e-05
7.90628e-05
7.92063e-05
7.32919e-07
5.36371e-07
7.85137e-05
7.9163e-05
7.91362e-05
7.89026e-05
7.91027e-05
7.06735e-05
7.91825e-05
7.91998e-05
1.85216e-06
7.90546e-05
7.88791e-05
1.64839e-06
1.5224e-06
7.92016e-05
7.75359e-05
7.82827e-05
7.91997e-05
6.18223e-05
7.43951e-05
-3.51518e-07
-5.08458e-07
-2.03585e-07
7.7309e-05
7.92009e-05
7.91127e-05
6.83656e-05
7.44357e-05
6.65632e-05
6.8113e-05
7.27659e-05
7.88434e-05
7.91306e-05
5.12934e-05
7.85534e-05
7.90428e-05
8.02886e-05
7.91969e-05
6.97627e-05
7.78855e-05
6.14779e-05
7.82718e-05
7.90557e-05
1.44966e-06
1.53934e-06
7.89128e-05
7.80795e-05
7.84644e-05
5.1684e-05
5.18863e-05
7.91825e-05
1.69075e-06
7.41943e-05
6.95463e-05
7.91757e-05
7.91721e-05
7.76943e-05
7.90839e-05
6.95817e-05
7.88544e-05
7.45409e-05
5.46879e-05
5.60243e-05
9.69885e-07
9.3641e-07
1.05284e-06
7.86838e-05
7.88132e-05
6.28419e-05
6.85477e-05
6.62589e-05
6.63462e-05
3.99321e-05
4.01971e-05
7.78918e-05
5.70506e-08
1.98344e-08
-8.97338e-09
-9.70288e-07
-9.84723e-07
-1.04675e-06
7.25173e-05
-2.96946e-07
-3.82666e-07
7.84523e-05
-5.16216e-07
-1.4041e-06
3.24393e-07
-1.42513e-06
2.94614e-07
-1.50711e-06
2.71547e-07
)
;

boundaryField
{
    back
    {
        type            empty;
    }
    front
    {
        type            empty;
    }
    ingreso
    {
        type            zeroGradient;
    }
    salida
    {
        type            fixedValue;
        value           uniform 0;
    }
    defaultFaces
    {
        type            zeroGradient;
    }
}


// ************************************************************************* //
