/*--------------------------------*- C++ -*----------------------------------*\
  =========                 |
  \\      /  F ield         | OpenFOAM: The Open Source CFD Toolbox
   \\    /   O peration     | Website:  https://openfoam.org
    \\  /    A nd           | Version:  8
     \\/     M anipulation  |
\*---------------------------------------------------------------------------*/
FoamFile
{
    version     2.0;
    format      ascii;
    class       volScalarField;
    location    "10";
    object      p;
}
// * * * * * * * * * * * * * * * * * * * * * * * * * * * * * * * * * * * * * //

dimensions      [0 2 -2 0 0 0 0];

internalField   nonuniform List<scalar> 
17372
(
3.13087e-06
6.61752e-06
1.74422e-06
4.31878e-06
6.64155e-06
6.61924e-06
1.24775e-06
6.38759e-06
9.25676e-07
6.30587e-06
2.94177e-06
6.63121e-06
6.22058e-06
6.53592e-06
1.12342e-06
4.16275e-06
6.63349e-06
6.59548e-06
6.526e-06
6.31424e-06
1.08532e-06
4.34526e-07
3.26026e-06
6.32335e-06
6.60945e-06
1.0457e-06
3.49317e-06
1.83834e-06
6.84911e-06
3.39915e-06
1.01386e-06
6.64771e-06
3.30603e-06
1.00692e-06
6.15733e-06
4.2301e-06
9.65598e-07
6.61824e-06
1.13931e-06
5.69995e-06
3.58713e-06
5.9864e-07
1.82379e-06
6.32645e-06
4.93569e-06
3.21499e-06
6.63951e-06
3.75914e-06
9.27793e-07
4.08371e-06
6.6222e-06
1.16207e-06
2.04198e-06
1.6977e-06
6.59881e-06
6.63313e-06
8.84589e-07
1.48787e-07
1.10199e-06
6.41428e-06
4.12551e-06
6.40025e-06
3.35234e-06
4.49207e-06
1.90352e-06
6.405e-06
1.17869e-06
2.2437e-07
1.08754e-07
6.61146e-06
6.42407e-06
2.76062e-06
1.37938e-06
4.20584e-06
5.81739e-06
4.93453e-06
1.48421e-06
4.93094e-06
5.15632e-06
5.33331e-06
6.63412e-06
1.31825e-06
1.26352e-06
6.6417e-06
6.63044e-06
4.86706e-06
4.12697e-06
4.46459e-06
8.45915e-07
6.50603e-06
3.87831e-07
6.45586e-07
6.43245e-06
6.59114e-06
6.43302e-06
3.681e-06
6.55961e-06
6.64192e-06
6.60116e-06
6.36546e-06
6.4338e-06
3.38281e-06
6.61493e-06
6.43257e-06
1.19067e-06
7.6558e-07
3.57589e-06
5.91955e-06
6.64136e-06
3.47731e-06
1.35752e-07
6.56681e-06
3.57159e-06
3.99539e-06
8.81362e-07
4.53714e-07
3.66585e-06
7.27089e-07
4.70671e-07
3.7604e-06
9.69546e-07
3.85502e-06
1.05793e-06
8.3798e-07
6.60771e-06
1.14629e-06
2.04159e-06
6.41109e-06
6.63328e-06
3.94897e-06
1.23504e-06
2.13017e-06
3.4461e-06
4.04004e-06
1.9525e-06
6.41504e-06
2.95705e-06
1.86306e-06
5.39321e-06
6.63921e-06
6.36322e-06
1.77332e-06
1.63851e-06
1.32379e-06
6.46602e-06
1.54752e-06
1.4579e-06
6.53915e-06
6.31182e-06
4.28466e-06
4.72475e-07
4.36521e-06
2.26665e-07
1.20797e-06
6.57604e-06
1.36094e-06
4.39449e-06
6.64043e-06
6.43e-06
3.28929e-06
1.27939e-06
6.63985e-06
1.61846e-06
6.57822e-06
3.77497e-06
6.3629e-06
3.62392e-06
6.53321e-06
4.20795e-07
4.0061e-06
1.27057e-07
6.11734e-07
4.61687e-06
6.55914e-06
2.21934e-06
1.65802e-06
1.53576e-06
6.30524e-06
6.38879e-06
6.63672e-06
6.23009e-06
3.0604e-06
6.51795e-06
4.63301e-07
1.90878e-06
1.61312e-06
4.70725e-07
6.64832e-06
1.06906e-07
6.64694e-06
3.22272e-07
5.07987e-06
9.09026e-07
6.48971e-06
3.90185e-06
6.65157e-06
3.50723e-06
7.11511e-07
6.59859e-06
5.79695e-06
6.65237e-06
6.36847e-06
6.62041e-06
2.05895e-06
2.42173e-07
6.64111e-06
3.09586e-06
6.38254e-06
4.82747e-06
1.41179e-06
3.45616e-06
3.54013e-06
3.23059e-06
3.37203e-06
6.64566e-06
6.85602e-07
3.26149e-06
5.8062e-06
6.44055e-06
2.87017e-07
1.95483e-06
6.39689e-06
6.6503e-06
6.47631e-06
1.36818e-06
6.62299e-06
4.06552e-06
6.1528e-06
6.39924e-06
3.19638e-06
6.62104e-06
3.13578e-06
6.4551e-06
5.12476e-06
5.10343e-06
6.63871e-06
6.40645e-06
6.42523e-07
1.20516e-07
2.10919e-06
2.15206e-06
4.20277e-06
6.64077e-06
6.58036e-06
6.25944e-06
3.86876e-06
6.53377e-06
1.99823e-06
2.774e-07
6.63976e-06
6.63504e-06
2.13119e-06
1.05578e-07
6.05864e-07
6.63994e-06
3.32383e-06
2.35623e-06
6.6385e-06
1.5948e-06
6.5636e-06
3.87305e-07
5.48277e-07
6.5824e-06
6.62441e-06
6.63388e-06
6.63345e-06
3.88474e-06
6.57234e-06
5.53353e-07
6.65335e-06
5.5906e-06
3.91561e-06
6.43808e-06
6.33272e-06
6.5786e-06
4.36827e-06
3.80762e-06
6.43154e-06
6.59913e-06
6.39737e-06
6.58351e-06
6.64827e-06
5.06461e-06
6.65361e-06
3.63402e-06
5.12272e-06
3.87855e-06
1.30435e-06
8.33585e-07
6.47576e-06
3.04258e-06
6.22999e-06
3.10309e-06
3.0689e-06
6.4351e-06
1.43123e-06
4.82228e-06
6.48469e-06
5.24134e-06
4.40726e-07
3.44528e-07
6.65374e-06
8.36617e-07
6.65285e-06
6.63481e-06
6.3078e-06
5.63059e-06
3.07082e-06
1.01823e-06
6.57967e-06
5.27857e-06
6.50737e-06
3.28205e-06
6.65358e-06
6.38069e-06
6.31328e-06
4.00864e-06
6.55647e-06
6.6099e-06
6.89995e-07
5.51402e-06
6.37074e-06
1.50242e-06
6.41169e-06
5.7999e-06
6.42896e-06
6.44888e-06
6.65347e-06
6.54301e-06
4.87918e-06
1.7274e-06
6.03047e-06
6.63758e-06
1.26034e-06
2.48267e-06
9.65742e-07
6.653e-06
1.46625e-06
1.51901e-06
6.56735e-06
1.65761e-06
6.55055e-06
6.20315e-06
3.20036e-06
4.62877e-07
1.74849e-06
6.64819e-06
4.3996e-07
6.44369e-07
5.47276e-06
6.65247e-06
6.32885e-06
6.6495e-06
6.19645e-07
1.42677e-06
6.64074e-06
6.30696e-06
4.10774e-06
6.65185e-06
1.05896e-06
6.57416e-06
6.65094e-06
1.56731e-06
1.33482e-06
1.15446e-06
6.65034e-06
6.6325e-06
6.34751e-06
1.2433e-06
6.4563e-06
5.97454e-06
6.63499e-06
6.63816e-06
6.45709e-06
6.01517e-06
6.64957e-06
4.75184e-07
5.38841e-06
6.34323e-06
6.63488e-06
6.65108e-06
3.00735e-06
6.33265e-06
3.71299e-06
6.64166e-06
6.41852e-06
4.01401e-06
2.6433e-06
6.41413e-06
6.34637e-06
6.43906e-06
6.6446e-06
3.72794e-06
5.36103e-06
6.64213e-06
2.3842e-07
6.24268e-06
6.625e-06
6.63481e-06
6.58967e-06
2.57295e-06
6.41161e-06
6.46964e-06
4.14586e-06
1.52441e-06
1.47994e-06
6.38491e-06
1.38392e-07
6.62886e-06
5.17919e-06
6.64175e-06
6.0605e-06
1.42905e-07
1.86217e-06
1.59269e-06
6.63331e-06
4.05485e-06
6.64635e-06
5.3528e-06
4.91288e-06
6.47893e-06
6.55066e-06
1.67998e-06
6.4041e-06
1.47352e-06
5.4998e-06
6.50128e-06
6.73967e-07
5.96342e-06
6.27418e-06
6.35888e-06
5.35147e-06
2.43372e-06
3.98159e-06
9.21387e-07
5.5635e-06
6.43186e-06
2.56236e-06
6.649e-06
6.62823e-06
6.37842e-06
6.64798e-06
6.2136e-06
6.57471e-06
6.63408e-06
6.40419e-06
6.64361e-06
1.64574e-07
2.41749e-06
6.4482e-06
6.6285e-06
6.6258e-06
1.29044e-06
1.33749e-06
7.3625e-07
6.63751e-06
6.65346e-06
6.39397e-06
6.02638e-06
6.2502e-06
6.43843e-06
3.96489e-06
6.39029e-06
2.6691e-06
1.58977e-07
2.68635e-06
6.48968e-06
4.79398e-06
6.59879e-06
3.54968e-06
1.20273e-06
5.41172e-06
6.62495e-06
6.541e-06
6.40087e-06
6.55967e-06
3.81343e-07
6.64401e-06
1.28357e-06
6.6537e-06
4.01075e-06
4.94405e-06
6.34203e-06
9.51368e-07
6.49938e-06
6.49287e-06
8.03127e-07
6.64618e-06
6.62831e-06
4.72062e-07
4.26029e-06
7.58213e-08
5.96e-07
1.6832e-06
3.49066e-07
6.64763e-06
3.61864e-06
6.6419e-06
6.51411e-06
6.41695e-06
3.82192e-06
5.62852e-07
6.64667e-06
6.56746e-06
6.65371e-06
5.4278e-07
6.64767e-06
6.48608e-06
5.64105e-07
6.46505e-06
1.50709e-06
3.80407e-06
2.86891e-06
6.40478e-06
4.08957e-06
4.68804e-07
6.47083e-06
4.03348e-06
4.95505e-06
3.86148e-06
6.55324e-06
6.38493e-06
1.76774e-06
6.65347e-06
6.57074e-06
6.64516e-06
2.7582e-06
4.24529e-06
6.51535e-06
6.3574e-06
3.95193e-06
8.60389e-08
6.58174e-06
5.02574e-06
4.07473e-06
2.10881e-06
3.637e-06
6.65327e-06
3.32718e-06
6.39693e-06
5.64395e-07
4.04283e-06
6.51126e-06
6.37032e-06
6.23929e-06
6.60423e-06
6.53885e-06
6.53077e-06
6.43004e-06
4.13451e-06
4.84883e-06
6.00381e-06
6.64398e-06
3.81081e-07
4.19141e-06
6.53628e-06
6.64113e-06
6.59867e-06
6.65275e-06
4.22681e-06
4.12113e-06
1.80924e-06
3.26319e-06
2.50846e-06
3.46661e-07
6.40773e-06
1.3837e-06
6.63199e-06
4.31923e-06
4.97703e-07
8.28827e-07
5.16447e-06
6.4598e-06
6.64911e-06
4.41009e-06
5.20593e-06
6.65215e-06
3.53901e-06
1.45731e-06
6.53685e-06
4.54689e-06
1.30612e-06
2.7991e-06
5.89341e-06
5.0538e-06
5.70851e-06
6.11154e-06
1.30967e-06
6.38529e-06
4.33482e-06
5.88887e-06
6.62857e-06
6.70043e-06
6.19549e-06
6.56833e-06
2.8464e-06
6.62216e-06
6.65139e-06
6.56284e-07
4.60644e-07
4.17136e-06
2.76466e-06
6.37852e-06
4.17509e-06
6.03564e-06
6.69126e-06
6.62385e-06
6.63383e-06
4.50284e-06
7.443e-07
4.43812e-07
6.59992e-06
6.19083e-06
6.65063e-06
6.50494e-06
6.51978e-06
3.82043e-06
1.24463e-06
3.91473e-06
5.60663e-07
3.52449e-06
4.87223e-06
1.89406e-06
4.02934e-06
3.73777e-06
3.54628e-06
6.50797e-06
9.3783e-07
6.53288e-06
6.3944e-06
6.58864e-06
6.40025e-06
2.49165e-07
6.59817e-06
6.45938e-07
2.73007e-06
6.42412e-06
6.04813e-07
6.30511e-06
1.81799e-06
6.4272e-06
6.33838e-06
6.52066e-06
7.40987e-07
6.63854e-06
6.41613e-06
1.67353e-06
4.82703e-06
1.21946e-07
6.59684e-06
5.69797e-06
6.68446e-06
6.35892e-06
6.60029e-07
4.78231e-06
4.9182e-06
4.78444e-06
6.39699e-06
6.60466e-06
5.07189e-06
6.61976e-06
6.10532e-06
6.56277e-06
4.96602e-06
6.65208e-06
6.30349e-06
2.93477e-06
1.1798e-07
2.30794e-06
1.99601e-06
3.42999e-06
1.19998e-06
6.48027e-06
5.74452e-06
6.57813e-06
4.87074e-06
6.61832e-06
8.06011e-07
6.26027e-06
3.90297e-06
4.82196e-07
1.12437e-06
6.62102e-06
4.89954e-06
1.82926e-06
6.47892e-06
6.58682e-06
3.75597e-06
1.29112e-07
3.61605e-06
5.06857e-06
3.96224e-06
4.73753e-06
6.63584e-06
6.5317e-06
1.66637e-08
6.49418e-06
6.59058e-06
5.01942e-07
6.6232e-06
1.38053e-06
7.42023e-08
6.61584e-06
6.5145e-06
7.73714e-08
3.03452e-06
6.61187e-06
5.99336e-06
1.06368e-06
2.66421e-06
3.99799e-06
2.6938e-06
4.69334e-06
6.63573e-06
3.41518e-06
4.26257e-06
1.96035e-07
5.57548e-06
7.4902e-07
6.61283e-06
1.63644e-06
3.80431e-06
6.52654e-06
6.1398e-06
3.27277e-06
9.21873e-07
6.64817e-06
6.60935e-06
5.86507e-06
5.89922e-06
6.44267e-06
4.34659e-06
4.09102e-06
1.82334e-06
6.60919e-06
6.5521e-06
4.92898e-07
4.0722e-06
6.64912e-06
3.02206e-06
4.92276e-06
6.42751e-06
6.58611e-06
6.60629e-06
4.61295e-06
6.64778e-06
6.63853e-06
6.46998e-06
6.59974e-06
2.00018e-06
1.90783e-06
6.64877e-06
4.67653e-06
6.49514e-06
6.31617e-06
6.60289e-06
4.55295e-06
4.68961e-06
6.62984e-06
6.44128e-06
3.90679e-06
4.18204e-06
6.52788e-06
5.05331e-06
6.5315e-06
5.55221e-07
2.4479e-06
3.26331e-07
1.39349e-06
4.97251e-06
6.26587e-06
6.59668e-06
3.60039e-06
6.3467e-06
1.56387e-06
6.51184e-06
3.43014e-06
6.54183e-06
5.19381e-07
1.1267e-06
6.64815e-06
3.94542e-06
4.76008e-06
3.81954e-06
6.49264e-06
5.13188e-06
6.63327e-06
1.2907e-06
6.59358e-06
6.14466e-07
3.71252e-06
2.25517e-06
6.47925e-06
1.57909e-06
6.56893e-06
6.42451e-06
4.14667e-07
6.52395e-06
1.55166e-06
6.5138e-06
6.5858e-06
5.87564e-06
6.18276e-07
6.57827e-06
6.42206e-06
6.27081e-06
5.84503e-06
6.07457e-06
5.64718e-06
2.96846e-06
1.47474e-06
2.56709e-06
6.13626e-06
6.43326e-06
6.62414e-06
3.97136e-07
4.31083e-06
2.56561e-06
4.73834e-06
6.43247e-06
6.41357e-06
6.64339e-06
2.87985e-06
1.15125e-06
6.43797e-06
6.55496e-06
5.42397e-07
4.35076e-06
1.82835e-06
3.44503e-07
5.98372e-06
6.49027e-06
6.56629e-06
6.06942e-06
5.23558e-06
2.852e-06
6.40975e-06
6.50326e-06
6.13401e-06
6.62269e-06
6.49704e-06
7.92021e-07
1.40916e-06
4.39899e-06
3.3156e-06
6.61754e-06
8.42163e-07
1.43531e-06
1.77061e-06
5.50793e-06
2.90599e-06
6.63483e-06
6.42688e-06
6.17612e-06
6.56262e-06
6.63178e-06
2.30408e-06
1.06782e-07
6.63418e-06
6.22508e-06
5.20545e-06
2.9921e-07
6.45034e-06
5.33774e-06
9.33876e-07
6.63659e-06
1.85638e-06
6.41713e-06
6.59861e-06
6.41325e-06
4.48922e-06
6.55304e-06
3.86293e-06
1.99702e-06
9.77023e-07
5.3098e-06
4.56096e-06
4.28562e-07
6.53996e-06
1.0152e-06
5.84373e-06
3.68173e-06
6.62161e-06
4.05576e-06
4.51667e-06
6.64366e-06
6.64319e-06
1.35303e-06
3.97434e-06
6.63296e-06
6.59512e-06
5.57002e-06
6.42759e-06
6.30572e-06
6.6149e-06
8.79853e-07
6.63321e-06
5.62964e-07
6.19443e-06
3.49698e-06
6.41626e-06
6.61249e-06
3.11092e-06
6.41792e-06
4.92939e-06
6.70574e-07
4.13287e-06
4.03289e-06
2.64657e-08
6.33926e-06
4.42774e-06
4.57987e-06
2.77547e-08
1.21424e-07
6.27363e-06
1.95465e-06
3.80925e-06
6.40794e-06
4.10057e-06
6.52249e-06
3.58298e-06
6.40805e-06
5.12607e-06
6.6491e-06
4.77198e-06
6.64762e-06
3.35442e-06
4.21911e-06
4.98174e-06
6.44514e-06
4.24825e-06
4.6289e-06
6.22713e-06
6.03101e-06
6.56012e-06
6.64182e-06
6.41233e-06
3.9975e-06
1.17838e-06
6.61658e-06
2.5977e-06
6.62041e-06
2.46492e-06
4.55725e-06
4.30694e-06
6.32112e-06
2.0808e-06
6.63371e-06
4.33846e-06
4.43874e-06
6.64744e-06
6.25998e-06
6.47581e-06
6.26674e-06
4.39494e-06
6.63542e-06
6.64823e-06
3.33629e-06
6.61652e-06
4.55951e-06
1.48485e-06
5.82258e-08
8.93068e-08
2.21749e-07
6.2703e-06
2.71122e-08
3.9965e-08
3.72476e-06
6.44647e-06
2.18238e-06
4.67015e-06
6.61169e-06
6.64901e-06
6.64636e-06
4.03896e-06
6.61207e-06
6.03226e-06
6.64997e-06
6.62971e-06
4.24899e-06
6.51249e-06
6.59389e-06
2.42768e-06
6.61286e-06
6.61412e-06
6.30827e-06
9.77757e-07
6.01727e-08
3.89337e-07
5.65161e-06
2.05411e-06
1.6261e-06
2.77608e-06
1.81493e-06
6.41005e-06
1.12307e-07
6.61906e-06
4.59125e-06
5.11537e-06
4.15669e-06
6.53799e-06
2.07217e-06
6.53199e-06
6.54128e-06
4.15935e-06
1.53183e-06
6.41409e-06
6.6326e-06
6.61325e-06
6.45857e-06
5.00467e-06
5.09336e-06
6.49378e-06
5.88798e-07
6.43624e-06
3.51673e-06
2.48877e-06
6.48977e-06
4.48316e-06
2.59889e-06
4.4723e-06
4.05757e-06
6.4921e-06
3.78861e-06
4.75939e-06
6.26507e-06
6.29947e-06
2.90351e-06
9.35556e-07
9.06992e-08
6.32075e-06
3.33812e-06
5.64525e-07
6.63012e-06
6.04446e-06
6.54408e-06
5.69318e-06
3.36599e-07
4.06937e-06
6.38696e-06
6.57539e-06
6.53183e-06
6.546e-06
1.49887e-06
6.63701e-06
2.08551e-06
6.48418e-06
6.61447e-06
5.78387e-06
6.53462e-06
2.69543e-06
6.64039e-06
6.32506e-06
4.67511e-07
1.43761e-06
1.76191e-06
1.28914e-06
6.51864e-06
6.63007e-06
6.35137e-06
1.19758e-06
6.29698e-06
6.63946e-06
6.52547e-06
6.49805e-06
5.26756e-07
3.97875e-06
4.60518e-06
4.05986e-06
6.55499e-06
4.57137e-06
1.06561e-06
1.05698e-06
2.77339e-06
6.34889e-06
1.47471e-06
6.54039e-06
6.43342e-06
1.66232e-06
6.53881e-06
5.1977e-06
6.60792e-06
5.76003e-06
5.65951e-06
6.44474e-06
6.51443e-06
6.63483e-06
6.48254e-06
2.7689e-06
6.6285e-06
4.84721e-06
4.67637e-06
5.35906e-07
6.61672e-06
5.3711e-06
1.10871e-06
2.99842e-07
2.4376e-07
6.36376e-06
6.62672e-06
6.35332e-06
6.79662e-06
8.90872e-07
3.40407e-07
4.19269e-06
3.57645e-07
3.87848e-06
9.13204e-07
6.36905e-06
6.09784e-06
6.13154e-06
6.60097e-06
3.46004e-07
2.73661e-07
3.79498e-06
3.96305e-06
5.45651e-06
6.61918e-06
6.31015e-06
4.77289e-06
6.36034e-06
7.19415e-07
8.5405e-07
6.39705e-06
6.61013e-06
4.43294e-06
6.26457e-06
3.84351e-07
6.37824e-06
4.65953e-06
6.55851e-06
6.61621e-06
6.55333e-06
6.61372e-06
5.15553e-07
2.41721e-08
6.61693e-06
6.32013e-06
4.50837e-07
6.52285e-06
1.72222e-06
6.54174e-06
2.83579e-07
6.31618e-06
6.61664e-06
4.52719e-06
6.63422e-06
6.65455e-06
6.35869e-06
1.1571e-06
1.37028e-06
4.1718e-07
5.76383e-06
3.62736e-06
6.59795e-06
5.57095e-06
6.38019e-06
5.66601e-06
6.61295e-06
1.25159e-06
6.63957e-06
6.5914e-06
3.0584e-07
6.63441e-06
6.64943e-06
4.14947e-06
3.86741e-06
6.62821e-06
4.85444e-07
4.93405e-06
8.04537e-07
6.03603e-06
6.3576e-06
4.08863e-06
6.34681e-06
6.65089e-06
4.38318e-06
6.5942e-06
3.23221e-06
1.29614e-06
6.62772e-06
3.9298e-06
4.54558e-06
7.23142e-08
5.88815e-08
5.49606e-06
6.51957e-06
3.24326e-06
2.14683e-06
6.56208e-06
6.57122e-06
6.65157e-06
6.59361e-06
2.96547e-07
6.55777e-06
6.55541e-06
3.39987e-06
6.6139e-06
6.57838e-06
6.17611e-06
3.77235e-06
6.30693e-06
5.62514e-07
4.91413e-06
6.63761e-06
6.65236e-06
3.63021e-06
6.43781e-06
2.55144e-07
1.42277e-06
1.39007e-06
5.28408e-06
5.26072e-06
6.60106e-06
3.38121e-06
6.43336e-06
2.17428e-06
6.64291e-06
6.48179e-06
3.67746e-06
6.58853e-06
6.65548e-06
6.65303e-06
1.0291e-06
3.26824e-06
6.64503e-06
6.10837e-06
5.44541e-06
3.92135e-06
6.01442e-06
5.65794e-06
3.51431e-07
6.62722e-06
6.53427e-06
7.23532e-07
4.21137e-07
1.25034e-06
3.20863e-07
3.58304e-06
1.20238e-06
6.65362e-06
6.46348e-06
4.23719e-06
6.62888e-06
6.25759e-06
6.53149e-06
4.78857e-06
6.46521e-06
4.85494e-07
6.52074e-06
3.0301e-07
6.62659e-06
6.63789e-06
8.98677e-07
3.13616e-07
6.21433e-06
4.71244e-06
6.5454e-06
6.65412e-06
6.54164e-06
9.28421e-08
6.33696e-08
1.00396e-06
5.04139e-06
6.50072e-06
6.54333e-06
6.1563e-06
6.48376e-06
6.62671e-06
3.67388e-06
4.07473e-07
6.59423e-06
4.78175e-06
6.65436e-06
3.51512e-07
2.1728e-06
6.50991e-06
5.30282e-06
6.20889e-06
6.50505e-06
5.37969e-06
6.43597e-06
6.53491e-06
1.34342e-06
6.24751e-06
6.33587e-06
6.44152e-06
7.67761e-07
6.6545e-06
6.37361e-06
6.25287e-06
6.64733e-06
5.17831e-06
3.45187e-07
5.05934e-06
5.14435e-06
6.54814e-06
4.87493e-06
6.51644e-06
6.50966e-06
6.64355e-06
6.62919e-06
2.00281e-07
5.8067e-07
6.65438e-06
2.8311e-07
3.79499e-07
6.23179e-06
6.2885e-06
5.9856e-06
5.21712e-06
6.53621e-06
6.26599e-06
1.73149e-06
6.59224e-06
6.61049e-06
6.61458e-06
4.72615e-06
6.61083e-06
6.65431e-06
6.64955e-06
6.67895e-06
6.38007e-06
3.22738e-08
6.24321e-06
1.20237e-06
5.32233e-06
6.62954e-06
9.65722e-07
6.46011e-06
6.33715e-06
6.34675e-07
6.46922e-06
6.46108e-06
1.37719e-06
6.6512e-06
3.07475e-08
1.39564e-06
5.46531e-06
6.49234e-06
6.51009e-06
6.65684e-06
5.014e-06
6.08267e-06
6.35935e-07
4.23816e-06
3.48893e-06
6.62908e-06
6.64481e-06
6.36744e-06
6.2658e-06
6.5294e-06
4.71014e-06
4.53597e-06
6.64654e-06
3.78352e-06
6.64111e-06
3.83613e-07
5.85509e-06
6.48032e-06
5.35969e-06
8.63198e-07
3.89864e-07
3.22114e-06
5.11603e-06
6.29409e-06
4.29378e-06
5.46171e-07
6.40871e-06
7.26939e-07
3.64709e-07
9.63739e-07
6.6155e-06
6.30681e-06
6.654e-06
6.594e-06
6.61937e-06
5.54416e-06
1.62783e-06
6.61312e-06
4.86695e-06
4.36992e-07
6.32542e-06
4.85381e-06
3.39403e-06
6.63279e-06
5.59717e-06
5.43081e-06
6.50588e-06
6.4612e-06
6.46016e-06
6.57794e-06
6.61416e-06
4.92742e-06
6.51267e-06
6.55768e-06
4.6155e-06
6.6078e-06
5.07483e-06
6.65674e-06
6.37615e-06
4.45172e-06
5.92274e-06
6.23904e-06
6.02576e-06
6.65109e-06
6.65611e-06
1.10351e-06
3.06532e-06
3.70858e-07
8.60695e-07
8.18923e-07
5.22456e-06
6.26693e-06
6.64466e-06
6.36306e-06
6.23806e-06
6.42933e-06
6.31102e-06
6.1243e-06
6.63012e-06
9.61015e-07
6.2657e-06
5.34508e-06
4.70275e-06
1.04953e-06
6.63398e-06
5.91174e-06
5.81848e-06
6.64418e-06
6.51102e-06
6.61685e-06
1.86205e-06
5.59331e-06
6.52615e-06
6.64096e-06
6.64192e-06
6.63596e-06
6.25011e-06
7.91462e-08
6.3235e-06
3.99395e-06
1.44506e-06
2.26363e-06
6.62898e-06
5.00145e-06
6.61178e-06
6.61172e-06
6.29269e-06
6.43449e-06
1.11105e-06
6.1697e-06
5.21316e-06
2.07111e-07
5.163e-06
6.44578e-06
8.1464e-07
6.38463e-06
6.18989e-06
1.42341e-07
3.47373e-06
1.20355e-06
9.11594e-07
5.78391e-06
6.23358e-06
1.07797e-06
1.27105e-06
5.01014e-06
6.41777e-06
6.2203e-06
6.65505e-06
6.2343e-06
6.61873e-06
4.18069e-06
1.29786e-06
3.33519e-07
1.09364e-06
6.27337e-06
6.0111e-06
6.17673e-06
6.55002e-06
5.67958e-06
6.65652e-06
3.1502e-06
6.28673e-06
6.28212e-06
6.43152e-06
6.53907e-06
6.6152e-06
6.62147e-06
4.26193e-07
6.54164e-06
6.13036e-06
5.64675e-06
1.12276e-06
6.63069e-06
6.26683e-06
6.5097e-06
6.51217e-06
3.13107e-07
5.91272e-06
3.10698e-06
6.50944e-06
3.34825e-06
2.33273e-06
3.6777e-07
5.4114e-06
1.00467e-06
2.43449e-06
1.4939e-06
6.61487e-06
6.57001e-06
2.4884e-07
6.49575e-06
6.23421e-06
6.58383e-06
6.62029e-06
4.80841e-07
1.17822e-06
6.43961e-06
5.79548e-06
3.47508e-07
6.60467e-06
6.44013e-06
5.20754e-07
6.26492e-06
6.23322e-06
5.56611e-06
6.3851e-06
6.63091e-06
5.90741e-06
3.53534e-06
6.10218e-06
6.41583e-06
4.16791e-07
6.52778e-06
5.57117e-06
6.20818e-06
5.16206e-06
1.7886e-06
6.4607e-06
6.46409e-06
1.56812e-06
2.84534e-06
6.634e-06
6.20906e-06
4.3665e-06
6.17325e-06
6.40927e-06
6.64138e-06
6.45406e-06
6.64663e-06
6.6131e-06
6.61864e-06
6.4544e-06
1.09801e-06
5.36093e-06
4.80585e-06
5.53699e-06
5.90597e-06
6.51777e-06
6.61235e-06
6.62636e-06
1.58884e-06
5.23045e-06
5.21155e-06
6.63587e-06
5.72809e-06
6.65615e-06
4.32051e-06
5.27291e-07
5.34969e-06
6.62123e-06
6.60137e-06
3.981e-07
6.6399e-06
6.6032e-06
1.15543e-06
3.99236e-07
5.1651e-06
6.62316e-06
4.95155e-06
2.52064e-07
6.13298e-06
4.32649e-06
5.52204e-06
5.04939e-06
6.60227e-06
6.6282e-06
6.51195e-06
6.6474e-06
6.3797e-06
6.61998e-06
4.69256e-06
6.1429e-06
2.47347e-06
6.64417e-06
6.54726e-06
6.60485e-06
6.63264e-06
4.50066e-06
6.37434e-06
6.33561e-06
6.58211e-06
6.40055e-06
6.49213e-06
6.34826e-06
1.24918e-06
6.03381e-06
6.64601e-06
6.16756e-06
6.53975e-06
6.4238e-06
6.40848e-06
6.63832e-06
5.7124e-06
5.22568e-06
6.45328e-06
3.14813e-06
6.65692e-06
3.61409e-06
6.56074e-06
6.62851e-06
6.36225e-06
6.41007e-06
6.61483e-06
5.10612e-06
5.4085e-06
1.1685e-06
3.15835e-07
4.03525e-07
6.5868e-06
6.29821e-06
6.31773e-06
6.42465e-06
6.55131e-06
6.33863e-06
6.27321e-06
6.29372e-06
6.29756e-06
6.52119e-06
2.38244e-06
5.26147e-06
3.66995e-07
6.5542e-06
6.612e-06
6.23628e-06
3.37482e-07
6.39295e-06
6.38499e-06
6.50062e-06
5.75621e-06
6.37547e-06
6.17342e-06
5.54151e-06
6.36116e-06
6.63734e-06
6.52523e-06
6.19893e-06
4.06049e-06
5.61635e-06
6.38303e-06
6.6402e-06
6.39323e-06
6.6247e-06
6.64419e-06
6.64819e-06
5.09752e-06
5.99925e-06
6.61245e-06
5.85855e-06
6.6111e-06
6.62134e-06
4.77638e-06
4.40403e-07
6.33016e-06
6.24324e-06
6.23846e-06
1.72036e-06
6.36676e-06
6.63664e-06
4.03641e-06
6.16467e-06
4.95514e-06
6.49506e-06
6.37636e-06
5.04107e-06
6.33052e-06
6.25525e-06
6.40183e-06
6.61354e-06
6.23217e-06
5.71163e-06
4.37689e-06
6.3773e-06
5.51334e-06
4.77384e-07
6.28413e-06
6.61459e-06
4.20425e-06
6.30697e-06
4.00744e-07
6.59119e-06
6.6349e-06
6.46716e-06
6.38964e-06
1.1989e-06
6.27562e-06
6.62881e-06
6.4478e-06
5.48478e-06
6.61553e-06
6.33709e-06
5.28747e-06
4.16641e-06
6.45022e-06
6.60925e-06
6.21013e-06
6.32446e-06
3.53599e-06
1.54196e-06
6.61642e-06
1.08122e-06
6.59242e-06
6.40589e-06
5.97396e-06
6.64369e-06
4.60005e-07
6.55602e-06
5.98629e-07
6.63738e-06
6.65669e-06
6.40379e-06
6.63693e-06
3.55709e-06
6.6314e-06
6.00785e-07
6.36689e-06
5.09007e-06
1.42251e-06
6.32348e-06
2.85514e-07
6.14904e-06
6.62071e-06
6.27765e-06
6.44699e-06
5.2127e-06
6.61e-06
6.36756e-06
1.34306e-06
5.80931e-06
5.00039e-06
5.23702e-06
3.75536e-07
6.33666e-06
5.44205e-06
6.53433e-06
6.27548e-06
6.36663e-06
6.62633e-06
6.55618e-06
5.4842e-06
1.84496e-06
6.11569e-06
1.07977e-06
5.16346e-06
4.77656e-06
6.29507e-06
6.24331e-06
5.3285e-06
5.38069e-06
6.61731e-06
6.61791e-06
6.29248e-06
6.45391e-06
6.36534e-06
6.59942e-06
5.26121e-06
6.25669e-06
6.59894e-06
6.32719e-06
5.64341e-06
3.18773e-06
6.56261e-06
6.46e-06
6.39381e-06
6.4471e-06
6.37988e-06
6.54971e-06
3.7363e-07
5.16284e-06
5.25351e-06
1.45363e-06
6.38562e-06
6.47939e-06
6.39156e-06
6.56776e-06
3.68888e-06
6.34395e-06
5.56928e-06
6.49536e-06
6.44251e-06
6.63505e-06
3.77073e-07
6.61727e-06
6.44161e-06
5.13887e-06
6.38041e-06
6.35217e-06
5.76443e-06
6.631e-06
6.6069e-06
6.08289e-06
6.36964e-06
6.36273e-06
6.62132e-06
9.64171e-07
6.40184e-06
5.04719e-06
6.38563e-06
6.64391e-06
1.53332e-06
6.34926e-06
6.62385e-06
6.36387e-06
6.60864e-06
6.63467e-06
4.59228e-06
4.38857e-06
6.90089e-07
1.31688e-06
6.1661e-06
6.40683e-06
5.50718e-06
6.38895e-06
6.57124e-06
6.36921e-06
6.30709e-06
6.52746e-06
6.05804e-06
6.64331e-06
6.65665e-06
6.35213e-06
6.2358e-06
5.3428e-06
6.36726e-06
6.64281e-06
6.62942e-06
2.45899e-06
5.43959e-06
6.51114e-06
1.2962e-06
6.37601e-06
6.33878e-06
4.87451e-06
6.64394e-06
2.00636e-06
6.36955e-06
5.40164e-06
5.41603e-06
4.73627e-06
6.63122e-06
6.53102e-06
6.4256e-06
3.89848e-07
1.95147e-06
1.18278e-06
6.42728e-06
6.19651e-06
6.59613e-06
5.82695e-07
2.34286e-06
6.4969e-06
6.44967e-06
6.44218e-06
6.46847e-06
6.16092e-06
6.46249e-06
6.42043e-06
1.2622e-06
6.59964e-06
5.81469e-06
6.42553e-06
6.46057e-06
6.49008e-06
6.63807e-06
9.37832e-07
6.37783e-06
6.60842e-06
6.62968e-06
6.63408e-06
5.34927e-06
6.35123e-06
6.4538e-06
4.88963e-07
6.63691e-06
6.50817e-06
5.17178e-07
5.31069e-06
6.19136e-06
6.48852e-06
6.46844e-06
6.43624e-06
6.14006e-06
6.35536e-06
6.50238e-06
6.48664e-06
6.46386e-06
5.72567e-06
5.87615e-06
6.52906e-06
6.64407e-06
5.30597e-06
6.33376e-06
6.60526e-06
6.32307e-06
6.32305e-06
6.62248e-06
3.58679e-06
6.32474e-06
6.59594e-06
6.37136e-06
6.38903e-06
4.05032e-07
6.45256e-06
6.46013e-06
5.09958e-06
4.96774e-06
6.62638e-06
4.95887e-06
5.17678e-06
6.62167e-06
2.64809e-06
6.2905e-06
6.53612e-06
6.1841e-06
6.3273e-06
6.45774e-06
6.51399e-06
5.93869e-06
6.632e-06
6.61883e-06
6.62255e-06
6.62116e-06
5.09152e-06
6.43639e-06
6.65635e-06
7.82355e-07
6.60705e-06
6.62764e-06
6.56292e-06
6.41788e-06
5.86453e-06
6.6444e-06
5.40146e-06
6.54427e-06
2.76969e-06
6.75398e-06
6.0524e-06
5.85862e-06
6.62402e-06
5.22991e-06
5.16699e-06
6.47584e-06
5.31955e-06
6.42621e-06
6.58435e-06
5.07967e-07
6.63527e-06
6.51424e-06
4.92553e-06
6.42996e-06
6.38863e-06
6.37607e-06
5.97401e-06
6.29026e-06
6.46196e-06
4.99245e-06
6.16708e-06
6.45999e-06
6.43335e-06
6.53959e-06
6.4513e-06
6.27552e-06
6.47241e-06
6.47968e-06
6.55436e-06
5.95451e-06
6.44101e-06
6.37092e-06
6.5352e-06
6.14984e-06
5.32269e-06
4.97871e-06
6.48821e-06
6.36984e-06
6.55436e-06
6.00788e-06
4.92481e-06
6.44492e-06
8.65968e-07
6.38454e-06
6.10269e-06
5.0036e-06
6.36494e-06
6.35515e-06
6.63929e-06
5.00199e-06
6.46501e-06
6.43863e-06
4.80225e-07
6.53907e-06
6.44105e-06
6.39753e-06
5.0303e-07
6.32276e-06
6.56272e-06
6.36546e-06
6.38966e-06
6.45793e-06
6.64503e-06
6.6438e-06
6.50209e-06
6.50602e-06
5.05297e-06
6.63464e-06
6.41006e-06
6.63004e-06
6.49896e-06
6.44917e-06
6.5251e-06
6.56871e-06
5.50918e-06
6.38292e-06
6.4264e-06
4.98406e-06
6.45696e-06
6.33711e-06
6.49067e-06
6.31695e-06
4.64645e-06
4.13335e-07
6.15572e-06
6.43226e-06
5.43227e-06
6.35053e-06
6.10178e-06
4.05268e-07
6.16662e-06
6.61176e-06
5.1249e-06
6.53403e-06
6.37239e-06
6.40769e-06
6.33345e-06
6.46811e-06
4.12519e-06
6.4489e-06
6.56125e-06
6.5988e-06
6.55576e-06
6.43977e-06
6.63574e-06
5.24171e-06
6.38776e-06
6.09125e-06
6.55048e-06
6.54682e-06
5.22447e-06
6.26884e-06
6.44174e-06
6.31459e-06
6.39829e-06
6.61388e-06
6.51252e-06
5.84827e-06
4.2381e-07
6.55873e-06
6.62473e-06
6.54452e-06
6.5236e-06
6.43567e-06
6.64148e-06
6.53791e-06
6.42698e-06
5.40317e-06
6.5872e-06
6.34705e-06
6.37648e-06
6.36563e-06
6.21811e-06
6.64014e-06
6.54168e-06
6.6169e-06
6.44628e-06
6.98667e-07
6.61706e-06
6.33622e-06
6.62208e-06
6.3816e-06
6.35382e-06
6.45125e-06
6.56543e-06
6.01981e-06
5.9171e-06
6.52932e-06
6.31815e-06
3.99169e-06
5.05191e-06
6.5611e-06
1.4368e-06
6.49826e-06
6.65591e-06
6.64302e-06
6.42945e-06
6.623e-06
6.32814e-06
5.24099e-06
6.14137e-06
6.4193e-06
6.51862e-06
6.62511e-06
6.36448e-06
6.63266e-06
6.47006e-06
5.8389e-06
3.13833e-06
6.57705e-06
6.26128e-06
6.3588e-06
6.62902e-06
6.4993e-06
6.33782e-06
6.62437e-06
6.00949e-06
6.47889e-06
6.50097e-06
6.49615e-06
6.39322e-06
6.62604e-06
6.64482e-06
6.64629e-06
6.35807e-06
6.4239e-06
6.62605e-06
6.60431e-06
6.61137e-06
6.29823e-06
6.38917e-06
5.01279e-06
5.37257e-07
8.75197e-07
6.63156e-06
5.13305e-06
6.52402e-06
6.50647e-06
6.29632e-06
1.87089e-06
6.38231e-06
6.46899e-06
6.55162e-06
6.50628e-06
6.6272e-06
6.39943e-06
6.50576e-06
6.65564e-06
6.6189e-06
6.35203e-06
4.41484e-06
6.52593e-06
6.36801e-06
6.46494e-06
6.62135e-06
5.4239e-06
6.3947e-06
6.47485e-06
6.62841e-06
6.62398e-06
5.39979e-06
6.3164e-06
6.57232e-06
6.38442e-06
6.34174e-06
4.76171e-06
6.50913e-06
5.02069e-06
6.54303e-06
6.56301e-06
6.62653e-06
6.6264e-06
6.45259e-06
5.9742e-06
6.51675e-06
4.9358e-06
6.61885e-06
1.66331e-07
1.21653e-06
6.37605e-06
6.609e-06
6.58678e-06
6.52051e-06
6.48032e-06
4.58422e-07
6.56005e-06
6.49538e-06
1.64202e-06
2.25286e-06
2.58262e-06
2.72441e-06
3.14682e-06
3.75688e-06
3.89716e-06
4.22877e-06
4.3717e-06
6.39581e-06
6.36951e-06
6.35785e-06
6.36928e-06
6.36505e-06
6.63388e-06
6.34451e-06
6.60854e-06
6.48885e-06
6.63225e-06
6.61809e-06
6.61865e-06
5.66848e-06
6.30924e-06
4.66785e-06
6.41268e-06
6.50022e-06
6.6461e-06
6.63224e-06
4.7146e-06
6.63434e-06
4.16537e-06
6.33786e-06
6.50091e-06
4.80897e-06
4.85667e-06
5.6512e-07
6.62343e-06
6.51717e-06
6.61081e-06
6.55571e-06
6.39363e-06
6.33882e-06
6.395e-06
6.63317e-06
4.59475e-07
6.52726e-06
6.54328e-06
6.63677e-06
6.6302e-06
4.94288e-06
6.05145e-06
6.62718e-06
6.38623e-06
6.18598e-06
6.39261e-06
6.37815e-06
6.34053e-06
1.29676e-07
5.64372e-06
6.46279e-06
6.52959e-06
5.74715e-06
6.53519e-06
6.60017e-06
6.30351e-06
5.1033e-06
6.46009e-06
6.53269e-06
6.51495e-06
4.63678e-06
6.34824e-06
6.06203e-06
6.59457e-06
6.62676e-06
5.79865e-06
6.34853e-06
6.5036e-06
6.61246e-06
6.60933e-06
4.88718e-06
6.27533e-06
6.42203e-06
6.43646e-06
6.51817e-06
6.37906e-06
6.55824e-06
6.55191e-06
6.59969e-06
6.53739e-06
6.49909e-06
6.40516e-06
6.64062e-06
6.64783e-06
6.64639e-06
6.44313e-06
6.52313e-06
4.2019e-06
6.04131e-06
6.52224e-06
4.80027e-06
6.62262e-06
5.1858e-06
6.65533e-06
6.3945e-06
6.54034e-06
4.65051e-06
6.10442e-06
6.58004e-06
6.64089e-06
6.45853e-06
4.89994e-06
6.40838e-06
6.61442e-06
5.33641e-06
6.4633e-06
1.52093e-06
6.59694e-06
6.48416e-06
6.1965e-06
6.64562e-06
6.61717e-06
6.58876e-06
6.54592e-06
6.02356e-06
6.56224e-06
6.3585e-06
5.5905e-06
3.26889e-07
6.46639e-06
6.63475e-06
6.60024e-06
2.16479e-07
6.27114e-06
6.42277e-06
2.28614e-06
6.6009e-06
6.62428e-06
6.52369e-06
4.95901e-06
5.64937e-06
6.59153e-06
6.19997e-06
6.25103e-06
6.38965e-06
6.59957e-06
6.61262e-06
6.63577e-06
6.49113e-06
6.34784e-06
6.52426e-06
6.43045e-06
1.24921e-06
6.55889e-06
6.61761e-06
6.38103e-06
6.45823e-06
6.61804e-06
6.60969e-06
6.65387e-06
6.57527e-06
6.36875e-06
6.62138e-06
5.48217e-06
6.60329e-06
6.48811e-06
6.37332e-06
6.61769e-06
6.65499e-06
5.39509e-06
6.53495e-06
6.56126e-06
6.41206e-06
6.63425e-06
6.62736e-06
6.28366e-06
6.63167e-06
6.54933e-06
6.4947e-06
6.54946e-06
6.4039e-06
6.55217e-06
6.42685e-06
6.56126e-06
6.35942e-06
6.4146e-06
6.62081e-06
6.5646e-06
6.51432e-06
6.44209e-06
6.57133e-06
5.42768e-06
6.49119e-06
6.62903e-06
5.22668e-06
6.48776e-06
6.56176e-06
6.39882e-06
6.51878e-06
6.49181e-06
6.47489e-06
6.32545e-06
6.37269e-06
6.63888e-06
6.49932e-06
6.63991e-06
6.49702e-06
6.4767e-06
6.53052e-06
5.93781e-06
4.52864e-06
6.56031e-06
5.97254e-07
6.35964e-06
5.58458e-06
6.45113e-06
6.55111e-06
6.47617e-06
6.44504e-06
9.68406e-07
6.51361e-06
6.37522e-06
6.50938e-06
6.61954e-06
3.05608e-06
6.2924e-06
7.28775e-07
6.5152e-06
6.64042e-06
6.63149e-06
5.23237e-06
6.48137e-06
6.65204e-06
5.84416e-07
4.8613e-06
6.16924e-06
6.55396e-06
6.5501e-06
5.73885e-06
6.62645e-06
4.90485e-06
5.00209e-06
5.60886e-06
6.62496e-06
6.5616e-06
6.63296e-06
6.53696e-06
6.62455e-06
6.52464e-06
6.64274e-06
4.81679e-06
6.60557e-06
6.71703e-06
6.59495e-06
6.52334e-06
7.08121e-07
6.56331e-06
6.6043e-06
6.62381e-06
5.3634e-06
4.4824e-06
6.55958e-06
4.97839e-06
4.34313e-06