/*--------------------------------*- C++ -*----------------------------------*\
  =========                 |
  \\      /  F ield         | OpenFOAM: The Open Source CFD Toolbox
   \\    /   O peration     | Website:  https://openfoam.org
    \\  /    A nd           | Version:  8
     \\/     M anipulation  |
\*---------------------------------------------------------------------------*/
FoamFile
{
    version     2.0;
    format      ascii;
    class       volScalarField;
    location    "10";
    object      p;
}
// * * * * * * * * * * * * * * * * * * * * * * * * * * * * * * * * * * * * * //

dimensions      [0 2 -2 0 0 0 0];

internalField   nonuniform List<scalar> 
6388
(
9.51327e-06
9.5344e-06
9.41203e-06
9.20917e-06
7.07374e-06
6.04815e-06
9.23203e-06
8.94427e-06
9.36927e-06
8.9803e-06
7.54127e-06
8.94687e-06
9.13457e-06
6.15358e-06
9.16696e-06
9.05364e-06
8.9376e-06
6.67645e-06
9.13254e-06
9.26283e-06
9.06433e-06
8.97586e-06
6.69254e-06
6.56881e-06
6.69529e-06
9.10189e-06
9.12893e-06
9.0083e-06
9.02787e-06
9.31574e-06
6.55009e-06
6.5586e-06
7.28626e-06
8.06832e-06
6.38292e-06
7.36548e-06
6.8406e-06
8.60203e-06
9.13353e-06
6.18866e-06
9.19332e-06
9.16484e-06
9.45605e-06
6.81211e-06
9.35578e-06
8.92654e-06
9.55296e-06
9.27354e-06
9.23307e-06
8.94495e-06
9.41124e-06
9.39096e-06
9.25563e-06
9.202e-06
8.87989e-06
9.43555e-06
8.92306e-06
9.20571e-06
9.25426e-06
9.24235e-06
6.64771e-06
9.28349e-06
9.06749e-06
9.15576e-06
8.78224e-06
9.42083e-06
8.92206e-06
9.0713e-06
8.65348e-06
9.41514e-06
7.98813e-06
6.46817e-06
6.0297e-06
8.1671e-06
9.43279e-06
9.24734e-06
6.33319e-06
9.31262e-06
9.20428e-06
6.62089e-06
8.99304e-06
5.86344e-08
5.43981e-08
5.45666e-08
5.33845e-08
5.81296e-08
7.57527e-06
6.20481e-08
5.75192e-08
5.74126e-08
6.0761e-08
5.36565e-08
9.42312e-06
9.36179e-06
9.07377e-06
9.31902e-06
9.41944e-06
6.28663e-06
9.18572e-06
8.83318e-06
9.10308e-06
8.46746e-06
8.94633e-06
8.96222e-06
8.98549e-06
7.72991e-06
9.34194e-06
8.90262e-06
9.04621e-06
9.4165e-06
9.20622e-06
6.95333e-06
7.12273e-06
9.26944e-06
9.39996e-06
9.37302e-06
7.30669e-06
9.4051e-06
9.12828e-06
9.43051e-06
5.79014e-06
9.38407e-06
9.07724e-06
9.37028e-06
6.77138e-06
9.20547e-06
9.35952e-06
9.14672e-06
9.41793e-06
9.1448e-06
7.01525e-06
8.99503e-06
9.35203e-06
9.33082e-06
9.42773e-06
6.65423e-06
6.34195e-06
8.28991e-06
9.33025e-06
9.00062e-06
7.11616e-06
9.36353e-06
9.0746e-06
9.32575e-06
9.41512e-06
8.86484e-06
9.32293e-06
9.41368e-06
8.98872e-06
9.42055e-06
8.95172e-06
9.19324e-06
9.03973e-06
6.90117e-06
8.92232e-06
9.16427e-06
8.54854e-06
9.41819e-06
6.82331e-06
7.90387e-06
9.3739e-06
9.24695e-06
6.22011e-06
8.47063e-06
9.41652e-06
8.16667e-06
5.9451e-06
5.88308e-06
5.84704e-06
9.31958e-06
6.12554e-06
8.97239e-06
8.97302e-06
9.41232e-06
8.34878e-06
6.41548e-06
9.3479e-06
9.1433e-06
9.43135e-06
8.96186e-06
8.44716e-06
8.79019e-06
6.26117e-06
5.3938e-06
8.93429e-06
7.96172e-06
9.40922e-06
6.84186e-06
8.7751e-06
7.00497e-06
7.12839e-06
8.83658e-06
7.28312e-06
9.63352e-06
8.95576e-06
9.37293e-06
9.41556e-06
9.37421e-06
5.98744e-06
5.5454e-06
5.53909e-06
6.016e-06
9.40941e-06
5.67069e-06
5.7006e-06
5.76536e-06
5.84887e-06
6.58973e-06
9.40213e-06
9.18555e-06
6.14515e-06
6.44498e-06
5.89237e-06
8.1802e-06
4.37594e-06
4.33382e-06
4.28772e-06
4.2627e-06
6.2925e-06
8.97961e-06
4.31253e-06
9.33279e-06
5.16076e-06
6.53883e-06
9.39957e-06
5.35086e-06
6.8961e-06
4.66882e-06
4.60747e-06
4.55774e-06
4.53226e-06
8.41864e-06
5.40865e-06
9.30999e-06
8.96347e-06
4.58392e-06
8.20275e-06
5.44744e-06
5.09801e-06
5.9931e-06
5.08311e-06
5.02984e-06
4.99907e-06
7.6348e-06
5.3579e-06
5.3014e-06
5.26926e-06
5.54674e-06
6.30433e-06
7.44252e-06
9.38828e-06
5.95144e-06
5.69311e-06
5.63309e-06
5.57094e-06
5.54043e-06
5.84456e-06
5.6939e-06
5.2798e-06
6.00001e-06
3.64025e-06
5.96322e-06
6.0632e-06
3.58108e-06
3.93365e-06
5.40665e-06
5.43797e-06
5.49735e-06
4.04743e-06
4.00441e-06
3.98094e-06
3.83373e-06
4.19956e-06
5.81001e-06
8.95769e-06
4.21249e-06
9.3973e-06
7.40275e-06
4.63369e-06
4.25104e-06
5.0324e-06
4.54696e-06
4.63834e-06
8.98215e-06
4.65199e-06
9.09197e-06
5.07308e-06
4.81068e-06
9.09543e-06
6.13576e-06
5.8394e-06
8.97695e-06
6.93045e-06
9.18797e-06
5.07411e-06
5.10595e-06
9.42376e-06
5.0787e-06
5.83301e-06
8.98023e-06
6.87584e-06
7.15332e-06
9.43266e-06
4.86152e-06
4.95513e-06
5.35765e-06
4.81598e-06
4.8446e-06
4.89672e-06
4.13762e-06
9.43729e-06
7.27963e-06
9.40394e-06
7.89331e-06
6.35307e-06
9.38269e-06
6.5911e-06
4.38595e-06
9.20519e-06
5.50906e-06
5.77334e-06
9.33879e-06
5.56267e-06
5.69371e-06
4.65254e-06
9.03554e-06
8.55718e-06
6.76767e-06
6.7445e-06
3.54092e-06
3.4961e-07
3.43018e-07
3.48579e-07
3.44596e-07
3.27519e-07
4.11451e-06
3.91185e-06
6.96189e-06
6.84461e-06
8.35734e-06
8.86061e-06
4.22859e-06
3.82331e-06
9.28669e-06
3.79903e-06
5.21846e-06
9.22581e-06
3.9104e-06
4.81218e-06
4.67898e-06
4.70533e-06
4.7567e-06
6.72984e-06
6.84587e-06
4.06854e-06
4.90161e-06
7.03012e-06
4.44202e-06
7.56549e-06
5.24423e-06
5.13087e-06
5.16199e-06
5.21702e-06
6.39221e-06
8.97075e-06
7.496e-06
3.1814e-06
4.52277e-06
8.96189e-06
4.39792e-06
4.42328e-06
4.47112e-06
3.44744e-06
6.9204e-06
6.93933e-06
4.77485e-06
8.03229e-06
3.679e-06
4.91517e-06
4.92727e-06
8.97149e-06
9.40096e-06
3.75382e-06
3.71373e-06
3.69223e-06
8.89718e-06
8.93976e-06
4.91446e-06
4.78283e-06
9.33041e-06
4.69002e-06
5.22969e-06
4.48221e-06
4.50933e-06
9.39672e-06
6.30235e-06
4.77555e-06
7.21139e-06
4.4844e-06
4.77345e-06
9.02824e-06
9.18943e-06
8.96428e-06
9.26745e-06
4.35951e-06
5.20095e-06
5.25464e-06
9.14194e-06
9.3574e-06
3.34568e-06
8.93174e-06
9.40615e-06
9.34056e-06
3.12047e-06
3.10282e-06
3.15443e-06
7.63072e-06
9.35808e-06
9.34114e-06
3.92017e-06
9.15579e-06
9.40759e-06
3.9634e-06
4.3909e-06
9.32388e-06
3.12306e-06
3.47235e-06
7.94893e-06
9.35089e-06
4.95855e-06
9.41038e-06
3.35795e-06
8.36251e-06
4.33687e-06
7.17514e-06
3.46682e-06
9.34235e-06
4.10614e-06
3.43609e-06
4.35914e-06
4.12304e-06
4.14737e-06
4.1919e-06
8.20681e-06
3.97716e-06
4.51519e-06
3.32127e-06
3.4936e-06
9.04038e-06
3.05879e-06
8.96009e-06
7.24487e-06
4.67442e-06
6.43649e-06
7.87358e-06
4.08009e-06
9.30534e-06
8.54229e-06
3.17397e-06
3.83714e-06
3.85963e-06
3.90119e-06
3.70129e-06
3.16695e-06
3.25057e-06
3.26939e-06
3.30472e-06
3.76728e-06
9.30859e-06
3.05339e-06
4.26428e-06
9.40892e-06
3.76388e-06
9.22109e-06
3.78723e-06
6.73829e-06
8.81898e-06
9.36021e-06
3.65741e-06
6.72052e-06
7.36847e-06
4.21595e-06
3.61665e-06
4.05648e-06
3.39966e-06
4.05986e-06
3.61266e-06
9.41599e-06
5.73367e-06
3.50489e-06
9.4316e-06
3.25292e-06
3.32289e-06
3.322e-06
8.99902e-06
3.31739e-06
6.44588e-06
3.7762e-06
3.9353e-06
7.05018e-06
5.52115e-06
9.06107e-06
9.43075e-06
3.68216e-06
8.31506e-06
3.17986e-06
3.20684e-06
9.41731e-06
6.99404e-06
9.14943e-06
3.567e-06
7.84865e-06
2.97923e-06
9.36158e-06
8.62802e-06
7.08156e-06
9.01702e-06
8.91729e-06
2.90526e-06
7.02729e-06
2.85823e-06
6.872e-06
6.92745e-06
6.69773e-06
9.42107e-06
7.663e-06
9.15792e-06
9.02572e-06
9.04641e-06
7.82761e-06
9.34891e-06
2.79316e-06
8.97654e-06
5.64989e-06
8.98156e-06
9.41713e-06
9.32688e-06
8.37832e-06
9.40324e-06
8.9496e-06
6.9673e-06
9.37377e-06
9.39278e-06
9.43254e-06
9.29259e-06
9.2212e-06
9.35023e-06
8.84512e-06
9.37904e-06
9.38901e-06
9.28332e-06
9.06005e-06
7.95995e-06
9.37903e-06
6.93939e-06
9.22275e-06
9.41888e-06
7.96983e-06
9.36705e-06
9.17857e-06
8.95525e-06
6.54272e-06
9.22349e-06
9.17595e-06
8.25213e-06
7.69826e-06
9.38061e-06
8.76339e-06
9.35071e-06
7.5219e-06
7.643e-06
9.34872e-06
9.2063e-06
9.30518e-06
6.97121e-06
9.28512e-06
6.8405e-06
5.57538e-07
5.97428e-07
5.87964e-07
5.90095e-07
5.97315e-07
2.69175e-06
2.70645e-06
2.73634e-06
8.94366e-06
7.58755e-06
8.10285e-06
9.06688e-06
9.18814e-06
7.53226e-06
9.32108e-06
7.04128e-06
9.41558e-06
9.39543e-06
9.62825e-06
5.78817e-06
8.01295e-06
9.30973e-06
7.7123e-06
9.36904e-06
8.85074e-06
9.39578e-06
9.43017e-06
9.20061e-06
8.68705e-06
9.41451e-06
6.86341e-06
8.86387e-06
9.41863e-06
9.09399e-06
9.0299e-06
9.33034e-06
8.30395e-06
6.84531e-06
9.40771e-06
7.0629e-06
7.92029e-06
9.3752e-06
2.76433e-06
2.03371e-07
2.03725e-07
1.9935e-07
2.03176e-07
8.75149e-06
1.61946e-07
8.58813e-06
9.0348e-06
5.90246e-06
9.42034e-06
7.94935e-06
9.07748e-06
9.06248e-06
2.75099e-06
6.43996e-06
9.33521e-06
5.18982e-06
9.43256e-06
9.42494e-06
2.44573e-06
7.29475e-06
8.69508e-06
8.63453e-06
6.89727e-06
2.41686e-07
2.52991e-07
2.59369e-07
2.49792e-07
2.48321e-07
8.63825e-06
7.2271e-06
9.21542e-06
7.83018e-06
9.17301e-06
9.39218e-06
8.40521e-06
7.39842e-06
2.37197e-06
7.98486e-06
7.84353e-06
8.61797e-06
6.5478e-06
9.34649e-06
9.38407e-06
9.3687e-06
9.34815e-06
6.62977e-06
9.37533e-06
9.42002e-06
9.25584e-06
6.6978e-06
9.30822e-06
8.74356e-06
2.43715e-07
2.52809e-07
2.44756e-07
2.42145e-07
2.46573e-07
9.2767e-06
9.40797e-06
9.3694e-06
1.81129e-07
2.08333e-07
2.11128e-07
2.07276e-07
2.04076e-07
7.27262e-06
6.77926e-06
8.96939e-06
5.76811e-06
9.25742e-06
9.24302e-06
6.60699e-06
9.2031e-06
7.5817e-06
7.34573e-06
8.78935e-06
8.86015e-06
8.95295e-06
9.16964e-06
6.9895e-06
9.21144e-06
9.41793e-06
9.13469e-06
9.15593e-06
9.24058e-06
8.9857e-06
8.29277e-06
8.85513e-06
9.40804e-06
9.31212e-06
9.38357e-06
9.1691e-06
9.42186e-06
9.30672e-06
6.18045e-06
7.31989e-06
6.68379e-06
7.92356e-06
8.99164e-06
9.40241e-06
6.97475e-06
9.02529e-06
7.7277e-06
8.84928e-06
8.96056e-06
9.41421e-06
7.89321e-06
7.45253e-06
9.3246e-06
9.22493e-06
9.34582e-06
4.59164e-06
9.08561e-06
8.99827e-06
7.51195e-06
2.72585e-06
9.43408e-06
9.39188e-06
8.30661e-06
9.43065e-06
3.20073e-06
9.23834e-06
8.46786e-06
5.64086e-06
8.84348e-06
9.41506e-06
8.82905e-06
9.24635e-06
6.31382e-06
2.66072e-06
8.42052e-06
7.11336e-06
6.55732e-06
7.00184e-06
6.39688e-06
7.76359e-06
9.35351e-06
7.42073e-06
8.44607e-06
9.19834e-06
9.12776e-06
9.40116e-06
7.17239e-06
9.12836e-06
5.93887e-06
5.87677e-06
5.84071e-06
2.85788e-07
9.39798e-06
9.41872e-06
9.12543e-06
9.40628e-06
8.34283e-06
3.17494e-07
3.19254e-07
3.32017e-07
3.20688e-07
7.88845e-06
7.96992e-06
9.07157e-06
7.98091e-06
9.27392e-06
9.42051e-06
9.18316e-06
9.18847e-06
9.40934e-06
7.71869e-06
9.41472e-06
9.3306e-06
9.40559e-06
8.50004e-06
9.32277e-06
9.39764e-06
8.92316e-06
9.41626e-06
9.30873e-06
8.62333e-06
6.03293e-06
9.08014e-06
9.2451e-06
8.0614e-06
5.50287e-06
9.29129e-06
8.40047e-06
8.67836e-06
8.10569e-06
9.0666e-06
8.97841e-06
7.04598e-06
7.49497e-06
7.68362e-06
8.9019e-06
9.41286e-06
9.40594e-06
6.85101e-06
5.97578e-06
7.81374e-06
9.33117e-06
9.37006e-06
9.09444e-06
9.39097e-06
8.88971e-06
7.74444e-06
9.52258e-06
7.31865e-06
9.10468e-06
6.45751e-06
5.65975e-06
6.09886e-06
9.42036e-06
9.03613e-06
9.33195e-06
8.9555e-06
9.38817e-06
9.35952e-06
9.40422e-06
5.94122e-06
9.31679e-06
8.98707e-06
9.42399e-06
8.89371e-06
5.77275e-06
9.36404e-06
2.58565e-06
9.3769e-06
8.95176e-06
8.98125e-06
8.77235e-06
3.54703e-06
6.42086e-06
9.2544e-06
9.37593e-06
9.40859e-06
9.38458e-06
2.51638e-06
9.43257e-06
9.13825e-06
8.88323e-06
7.53368e-06
9.06291e-06
6.28316e-06
6.82364e-06
6.71207e-06
9.18618e-06
6.2398e-06
6.20642e-06
1.30275e-06
3.95181e-06
3.90959e-06
3.88701e-06
9.35199e-06
9.07414e-06
9.41554e-06
6.67697e-06
9.3086e-06
8.5772e-06
9.38785e-06
7.44083e-06
9.43077e-06
9.30218e-06
9.03479e-06
2.59576e-06
2.56737e-06
2.55348e-06
7.20077e-06
9.43431e-06
9.05967e-06
7.79205e-06
9.34969e-06
5.6507e-06
6.58494e-06
9.26592e-06
4.59513e-07
4.58046e-07
4.50457e-07
8.871e-06
1.35921e-06
9.20224e-06
9.02717e-06
4.20281e-06
4.67872e-07
8.96847e-06
9.17727e-06
6.46408e-06
6.57337e-06
9.15174e-06
9.15191e-06
5.75781e-06
6.33733e-06
6.44427e-06
6.39471e-07
8.00038e-06
9.29514e-06
6.8129e-06
6.72774e-06
8.88191e-06
3.31933e-06
8.01233e-06
4.89212e-06
3.58097e-06
9.28873e-06
9.41209e-06
5.62384e-07
9.33229e-06
6.26826e-06
6.16434e-06
7.82517e-06
4.99346e-06
8.3356e-06
5.64241e-06
9.21788e-06
1.00967e-06
9.2991e-06
6.13801e-06
9.43297e-06
5.36175e-06
8.90762e-06
1.20266e-06
1.18359e-06
1.18848e-06
1.12931e-06
8.83831e-06
2.32563e-06
6.76961e-06
1.7119e-06
1.01271e-06
6.0567e-06
1.57753e-06
8.11362e-06
9.08028e-06
7.37879e-06
2.6122e-06
5.46888e-06
8.23079e-06
9.28258e-06
9.10671e-06
5.93324e-06
9.4026e-06
9.15068e-06
2.6002e-06
2.5718e-06
2.55786e-06
8.93259e-06
9.31891e-06
3.01297e-06
2.9803e-06
2.96382e-06
5.60353e-06
5.55769e-06
5.50087e-06
5.46585e-06
1.58841e-06
9.12319e-06
9.17956e-07
6.28141e-06
9.41078e-06
2.32728e-06
1.10991e-06
9.27332e-06
9.40576e-06
1.78922e-06
9.31009e-06
9.43006e-06
8.59352e-06
9.1462e-06
1.34657e-06
1.32513e-06
1.33093e-06
2.30747e-06
1.15684e-06
1.44212e-06
1.4255e-06
1.41911e-06
8.94252e-06
8.91374e-06
1.82195e-06
2.01968e-06
1.98708e-06
1.99713e-06
2.62859e-06
1.15616e-06
9.41497e-06
1.73107e-06
1.70327e-06
1.71148e-06
8.77961e-06
9.02253e-06
7.7813e-07
9.06197e-06
9.3145e-06
1.50738e-06
9.43306e-06
9.43152e-06
8.83551e-07
8.72745e-07
8.69773e-07
8.24078e-07
6.05096e-06
9.17877e-06
9.00822e-06
6.84236e-07
6.34155e-06
5.98999e-06
1.57394e-06
8.99164e-06
8.83933e-07
2.48346e-06
2.23166e-06
9.12692e-06
8.3051e-06
1.06122e-06
2.30955e-06
2.27209e-06
2.28407e-06
3.05791e-06
6.22991e-06
2.20534e-06
9.37669e-06
2.61211e-06
1.93568e-06
1.26752e-06
1.29934e-06
1.19832e-06
1.06168e-06
1.6346e-06
1.60839e-06
1.616e-06
9.14734e-06
1.59761e-06
1.57204e-06
1.57935e-06
4.3481e-06
2.03255e-06
1.43987e-06
3.03378e-06
1.87464e-06
1.84445e-06
1.85356e-06
1.20568e-06
2.1658e-06
1.9614e-06
2.8274e-06
2.84294e-06
2.87422e-06
1.55273e-06
2.18953e-06
9.22741e-06
2.05385e-06
7.72055e-06
9.40366e-06
2.61124e-06
2.33247e-06
2.33201e-06
3.02566e-06
9.41663e-06
2.94416e-06
2.46806e-06
1.34972e-06
1.58601e-06
1.56061e-06
1.56789e-06
1.92332e-06
1.90175e-06
1.89232e-06
7.81871e-06
2.4249e-06
2.4119e-06
2.45178e-06
1.75651e-06
2.13663e-06
8.7118e-07
8.90147e-06
1.63944e-06
9.40844e-06
2.81426e-06
9.20615e-06
2.16376e-06
2.12875e-06
2.13974e-06
3.71037e-06
9.41999e-06
8.49158e-06
9.235e-06
6.51596e-06
8.69087e-07
9.3796e-06
1.49049e-06
1.47335e-06
1.46668e-06
2.76962e-06
9.32682e-06
1.7791e-06
1.759e-06
1.7505e-06
2.89039e-06
2.09581e-06
7.62144e-07
2.21231e-06
2.18779e-06
2.1765e-06
9.19108e-07
1.01268e-06
1.20555e-06
9.40566e-06
9.00916e-06
2.34515e-06
9.1252e-06
2.04919e-06
2.47109e-06
1.70158e-06
9.4283e-06
2.45409e-06
2.41421e-06
2.42715e-06
1.31211e-06
1.29837e-06
2.23921e-06
1.5912e-06
7.63338e-06
2.17845e-06
2.89682e-06
9.1963e-07
1.48948e-06
2.06793e-06
2.03453e-06
2.04487e-06
1.57664e-06
1.30343e-06
2.02181e-06
9.27393e-06
9.1763e-06
9.18611e-06
8.02346e-07
2.1926e-06
9.19504e-06
1.95149e-06
8.94816e-06
2.31991e-06
8.85443e-06
2.88771e-06
1.49727e-06
1.34899e-06
2.05031e-06
9.37663e-06
4.0885e-07
4.23073e-07
4.17595e-07
2.20789e-06
1.44744e-06
2.6407e-06
3.89857e-07
7.77399e-07
9.42882e-06
1.963e-06
2.05116e-06
2.08199e-06
1.41414e-06
1.42033e-06
1.437e-06
2.51716e-06
2.1811e-06
1.4388e-06
2.74817e-06
2.74986e-06
2.22824e-06
1.35255e-06
7.61217e-06
6.0696e-06
2.76195e-06
1.60711e-06
1.47859e-06
8.83473e-07
3.69341e-06
9.40688e-06
1.96011e-06
2.35752e-06
2.31928e-06
2.33151e-06
1.62297e-06
1.13565e-06
2.10024e-06
7.97687e-06
2.46997e-06
2.24529e-06
1.88336e-06
8.90416e-06
2.37818e-06
4.1212e-07
1.29721e-06
1.28208e-06
1.27659e-06
1.22016e-06
5.6974e-06
6.26744e-07
2.46899e-06
9.19512e-06
2.9096e-06
9.39018e-06
3.95106e-06
9.15807e-06
1.8803e-06
1.80583e-06
3.03161e-06
2.79416e-06
7.15669e-06
2.50255e-06
2.4751e-06
2.46189e-06
3.77335e-06
1.90734e-06
6.4506e-06
6.55997e-06
3.54487e-06
3.56529e-06
3.60394e-06
1.90175e-06
8.93992e-06
2.09823e-06
2.19645e-06
1.73248e-06
6.67361e-07
6.66971e-07
7.72471e-06
2.19791e-06
6.54398e-07
2.4713e-06
2.17577e-06
2.96071e-06
4.70158e-07
4.63437e-07
4.60258e-07
4.72859e-07
2.53986e-06
4.65207e-07
4.5999e-07
4.58461e-07
4.65102e-07
4.36118e-07
2.65592e-06
8.98885e-06
2.1268e-06
2.13786e-06
2.16183e-06
3.16794e-06
9.20948e-06
9.28084e-06
1.74914e-06
4.09492e-06
4.0512e-06
4.02776e-06
1.82855e-06
9.00555e-06
9.2898e-06
3.39863e-06
3.45525e-06
3.41828e-06
8.11486e-07
8.55383e-07
8.58419e-07
8.6901e-07
4.24714e-06
8.93348e-06
7.95283e-06
9.09591e-06
2.01038e-06
3.41561e-06
2.393e-06
5.74519e-06
2.49167e-06
1.7147e-06
1.88233e-06
9.41731e-06
9.44699e-07
7.76759e-06
8.95089e-06
8.96826e-06
1.83244e-06
3.52815e-06
9.0769e-06
2.93374e-06
1.83309e-06
1.88552e-06
2.97358e-06
9.37051e-06
7.14684e-06
7.04279e-06
9.0495e-07
2.90051e-06
1.9141e-06
2.36979e-06
7.00747e-06
3.53027e-06
5.69987e-06
5.6431e-06
5.60564e-06
2.08631e-06
2.46499e-06
3.16524e-06
8.56281e-06
8.84493e-06
6.70201e-07
8.84557e-06
7.54607e-07
7.55256e-07
7.01602e-07
6.94095e-07
1.15556e-06
3.2183e-06
1.45307e-06
7.50211e-07
6.0137e-06
1.7632e-06
7.25129e-07
2.74666e-06
2.7168e-06
2.70186e-06
2.67044e-06
2.79333e-06
8.97279e-06
2.68798e-06
9.41443e-06
1.14187e-06
8.94708e-06
2.51426e-06
9.35734e-06
6.04811e-06
2.12779e-06
3.68091e-06
9.40074e-06
4.64533e-06
3.30476e-06
2.68077e-06
1.39117e-06
3.39744e-06
6.8492e-06
2.48754e-06
8.76304e-07
8.78767e-07
2.25244e-06
3.20393e-06
9.34765e-06
3.05482e-06
3.077e-06
1.69713e-06
1.05432e-06
3.49754e-06
7.81549e-06
3.56049e-06
1.47189e-06
9.04464e-06
4.06552e-06
3.62597e-06
1.31804e-06
2.83466e-06
3.66063e-06
9.49584e-07
1.611e-06
3.67514e-06
8.90654e-06
9.40653e-06
8.52884e-07
9.4382e-06
9.40942e-06
4.70641e-06
9.95011e-07
9.9879e-07
1.01092e-06
9.46316e-07
7.77789e-07
7.65609e-07
7.68185e-07
7.24338e-07
3.77473e-06
2.18288e-06
9.12725e-06
2.38797e-06
3.86059e-06
2.33217e-06
2.3446e-06
2.37067e-06
3.19192e-06
4.54977e-07
3.30752e-06
3.9622e-06
9.17147e-06
3.57819e-06
9.36572e-06
8.18053e-06
8.56484e-06
1.07108e-06
1.12662e-06
1.13078e-06
1.14455e-06
9.41711e-06
2.30994e-06
9.01791e-06
9.14076e-06
2.9109e-06
5.76619e-07
5.31754e-07
5.73274e-07
5.81897e-07
5.73906e-07
4.36197e-06
2.75964e-06
1.4165e-06
1.56804e-06
3.58699e-06
1.06222e-06
9.12561e-06
1.09717e-06
6.48508e-06
6.37749e-06
2.02749e-06
7.25228e-06
1.47417e-06
1.63659e-06
9.40433e-06
2.09486e-06
7.14709e-06
1.59368e-06
2.04789e-06
2.05837e-06
2.08153e-06
1.97288e-06
3.86442e-06
9.3931e-06
8.05191e-06
2.17341e-06
4.44843e-06
3.53888e-06
9.41663e-06
9.14491e-06
2.391e-06
3.08578e-06
3.35421e-06
6.60915e-07
7.07573e-07
7.08888e-07
7.18333e-07
6.32202e-06
6.42889e-06
6.15709e-07
6.26423e-07
6.26227e-07
7.244e-06
5.94825e-07
3.96627e-06
7.14163e-07
5.07984e-06
1.35095e-06
3.67463e-06
3.44689e-06
1.74008e-06
3.82148e-06
2.69426e-06
3.86619e-06
9.3595e-06
3.8046e-06
9.39704e-06
6.66803e-06
1.43201e-06
3.48352e-06
5.59294e-06
8.85991e-06
3.91855e-06
1.73799e-06
9.13574e-07
1.4053e-06
2.22676e-06
1.17792e-06
9.4689e-07
5.55501e-06
7.27004e-06
1.4927e-06
9.42948e-06
7.93392e-06
3.70482e-06
1.8014e-06
1.16378e-06
4.21498e-06
9.16904e-06
7.57087e-07
3.72717e-06
4.10238e-06
5.14018e-07
9.38386e-06
4.13803e-06
3.82126e-06
9.1084e-06
6.60239e-06
4.25714e-06
9.41101e-06
3.35044e-06
8.48188e-06
1.16275e-06
3.44115e-06
5.62507e-06
7.57054e-07
7.47785e-07
7.45245e-07
7.05904e-07
9.36682e-06
2.38582e-06
2.40725e-06
5.20374e-07
5.12059e-07
5.14084e-07
5.20899e-07
4.86049e-07
9.06561e-06
9.10621e-06
3.76157e-06
3.85018e-06
4.11229e-06
8.87145e-07
4.40418e-06
9.33672e-06
3.79012e-06
4.00573e-06
2.89738e-06
2.86605e-06
2.85003e-06
1.14608e-06
2.61821e-06
2.08949e-06
4.50198e-06
6.17627e-06
1.91589e-06
1.90896e-06
9.27862e-06
9.02719e-06
3.7202e-06
3.62289e-06
9.30789e-06
3.93603e-06
1.14026e-06
5.22241e-06
5.415e-06
9.41262e-06
1.97051e-06
3.91657e-06
9.05042e-06
1.97819e-06
1.05989e-06
1.31554e-06
9.93064e-07
1.0431e-06
1.04718e-06
1.05982e-06
2.16382e-06
2.09635e-06
4.09793e-06
6.21515e-06
1.27419e-06
1.33955e-06
1.33395e-06
1.35542e-06
5.12717e-06
2.21783e-06
2.47297e-06
2.48634e-06
2.51388e-06
8.90195e-06
4.03329e-06
9.41803e-06
7.95664e-07
2.50475e-06
5.1286e-06
1.88245e-06
4.4018e-06
9.28301e-06
4.66707e-06
8.31244e-07
8.34644e-07
9.02809e-06
9.09418e-06
2.37404e-06
2.56653e-06
9.06527e-06
3.89986e-06
9.43503e-06
4.1476e-06
4.00137e-06
1.6298e-06
6.87117e-06
7.09018e-06
7.48791e-06
4.1922e-06
4.14752e-06
4.1234e-06
2.34106e-06
2.18016e-06
2.37447e-06
3.08455e-06
3.05122e-06
3.03416e-06
4.69072e-06
9.04435e-06
4.59504e-06
1.75629e-06
6.54572e-08
6.64653e-08
6.84234e-08
5.0899e-08
5.77749e-08
6.95962e-08
6.7705e-08
6.82341e-08
6.71596e-08
6.87608e-08
4.33566e-06
4.28948e-06
4.26448e-06
9.19978e-06
1.07095e-06
9.02629e-06
2.48246e-06
1.73943e-06
9.08934e-06
1.64311e-06
8.76878e-06
6.77598e-06
2.94069e-06
2.89266e-06
2.90891e-06
5.96585e-06
8.91158e-06
1.31024e-06
8.91476e-06
9.41451e-06
4.30243e-06
2.76094e-06
6.33421e-07
9.27297e-06
4.94402e-06
3.2502e-06
2.68679e-06
4.27206e-06
4.38688e-06
8.8972e-06
8.9565e-06
9.30101e-06
9.41135e-06
4.5462e-06
9.26497e-06
9.04105e-06
9.37723e-06
1.67729e-06
1.77088e-06
4.16725e-06
1.68336e-06
9.02173e-06
2.6486e-06
2.61969e-06
2.60548e-06
3.37351e-06
3.33725e-06
3.31831e-06
9.01982e-06
9.32014e-06
9.59754e-07
3.51552e-06
2.05186e-06
2.48177e-06
2.48512e-06
2.03075e-06
2.11618e-06
5.26982e-06
3.6289e-06
9.35992e-06
3.03316e-06
2.79082e-06
8.63147e-06
2.62873e-06
9.32005e-06
2.16413e-06
5.72449e-06
1.4879e-06
9.41562e-06
4.53331e-06
1.84137e-06
1.85046e-06
1.8715e-06
6.33855e-06
2.88905e-06
3.62869e-06
5.36095e-06
2.42297e-06
2.43591e-06
2.46296e-06
1.61739e-06
4.78917e-06
2.59583e-06
3.51932e-06
3.48158e-06
3.46168e-06
7.31222e-06
6.01803e-06
2.52141e-06
8.58815e-06
2.92166e-06
4.74369e-07
4.57136e-06
4.08263e-06
5.20428e-06
3.33083e-06
3.29494e-06
3.27636e-06
2.015e-06
3.17737e-06
2.48825e-06
1.89642e-06
4.4355e-06
2.52887e-06
9.12886e-06
7.98253e-06
9.07875e-06
3.14201e-06
4.85498e-06
3.35084e-06
8.67759e-06
1.38262e-06
9.15603e-06
1.36697e-06
6.96507e-06
2.18971e-06
6.2792e-06
6.36433e-06
6.25908e-06
8.86059e-06
9.40543e-06
7.21115e-06
3.09616e-06
2.15095e-06
2.13984e-06
2.17505e-06
4.80411e-06
9.37682e-06
8.97518e-06
3.10693e-06
2.91055e-06
2.60661e-06
1.9125e-06
2.69781e-06
9.03835e-06
5.26266e-07
5.43964e-07
5.40222e-07
5.26317e-07
4.55806e-06
1.35172e-06
2.33611e-06
4.83882e-06
2.10033e-06
4.4803e-06
4.43262e-06
4.40672e-06
2.9561e-06
8.94476e-06
2.6605e-06
2.66786e-06
5.49211e-06
4.70567e-06
2.28149e-06
2.29351e-06
2.31909e-06
2.19527e-06
9.2941e-06
1.05736e-06
2.24429e-06
2.80155e-06
9.13946e-06
2.77513e-06
6.19821e-06
9.39126e-06
9.07942e-06
2.22362e-06
9.13457e-06
5.88924e-06
5.0748e-06
1.08053e-06
1.0711e-06
1.37451e-06
5.9274e-06
9.41459e-06
3.18933e-06
3.13722e-06
3.15487e-06
3.61685e-06
3.55756e-06
3.57814e-06
2.62159e-06
9.00581e-06
2.90853e-06
2.9653e-06
4.13253e-06
2.14919e-06
1.89191e-06
2.34347e-06
1.43491e-06
1.42854e-06
1.45167e-06
2.4773e-06
9.41955e-06
2.95287e-06
5.27199e-06
9.15398e-06
2.50068e-06
6.1224e-06
2.97985e-06
2.04313e-06
2.1926e-06
2.06416e-06
1.08109e-06
5.10355e-06
4.37611e-06
5.40872e-06
6.33569e-06
7.79753e-06
2.97375e-06
5.21306e-06
9.28233e-06
4.97192e-06
6.11994e-06
4.27849e-06
3.22793e-06
5.33271e-06
4.57357e-06
9.42863e-06
2.65072e-06
8.9156e-06
2.68654e-06
7.74263e-06
2.49447e-06
1.36744e-06
9.39254e-06
6.18068e-06
9.19271e-06
6.86077e-06
2.60783e-06
2.20898e-06
4.01123e-06
4.52828e-06
4.48007e-06
4.45392e-06
7.32368e-06
5.5455e-06
8.94096e-06
9.44833e-06
1.93946e-06
4.52404e-06
2.8092e-06
3.83937e-06
7.2066e-07
2.6155e-06
4.06369e-06
8.88821e-06
5.23436e-06
8.10626e-06
9.41961e-06
7.99211e-07
2.3352e-06
9.03832e-06
1.35167e-06
9.04343e-06
3.76123e-06
3.72105e-06
3.69954e-06
3.7611e-06
2.95761e-06
5.22339e-06
2.70829e-06
9.18698e-06
3.19192e-06
7.59499e-06
1.198e-06
5.01962e-06
6.32984e-06
7.42601e-06
4.96981e-06
4.91723e-06
4.88799e-06
3.20116e-06
4.71997e-06
4.67511e-06
4.62539e-06
4.59827e-06
6.47888e-06
3.33625e-06
4.25791e-06
5.21614e-06
1.99766e-06
2.00778e-06
2.03043e-06
9.13038e-06
9.16724e-06
4.97605e-06
9.06549e-06
6.66107e-06
6.55173e-06
4.82106e-06
1.63001e-06
4.92872e-06
4.8767e-06
4.84749e-06
4.77552e-06
4.72488e-06
4.69691e-06
5.66673e-06
1.92452e-06
3.34238e-06
9.27411e-06
7.22722e-06
9.33248e-06
9.22876e-06
6.39032e-06
5.37196e-06
1.44032e-06
1.462e-06
5.5032e-06
9.41966e-06
4.24932e-06
4.23824e-06
4.19299e-06
4.16872e-06
7.32105e-06
6.51713e-06
8.71106e-06
4.50947e-06
1.17103e-06
7.23035e-06
3.81783e-06
2.32244e-06
8.80793e-06
1.70617e-06
1.69808e-06
1.72576e-06
9.17322e-06
2.26971e-06
2.28175e-06
2.30717e-06
3.03993e-06
2.05045e-06
1.18313e-06
2.35375e-06
8.99693e-06
4.11148e-06
2.80916e-06
1.7742e-06
1.57689e-06
5.64513e-06
4.92418e-07
4.94766e-07
4.88501e-07
4.87464e-07
4.57575e-07
8.92525e-06
1.1603e-06
3.99815e-06
5.40409e-06
9.10192e-06
3.38236e-06
5.36336e-06
5.30711e-06
5.27481e-06
6.2033e-06
8.92244e-06
8.92653e-06
5.2748e-06
7.33504e-06
4.76653e-06
5.21643e-06
5.1616e-06
5.13045e-06
7.45175e-06
3.43423e-06
5.16575e-06
6.59406e-06
5.00143e-06
5.11375e-06
5.05976e-06
5.02955e-06
3.46696e-07
4.69584e-06
2.63116e-06
9.41193e-06
1.62967e-06
3.38432e-06
1.70931e-06
1.64744e-06
9.4018e-06
5.80914e-06
3.26952e-06
4.55429e-06
1.34473e-06
2.61616e-06
2.63037e-06
2.65944e-06
1.91031e-06
6.7863e-06
9.41506e-06
1.3127e-06
4.70694e-06
6.26716e-06
1.57796e-06
4.48526e-06
2.029e-06
4.49976e-06
4.93465e-06
7.73557e-06
2.82642e-06
5.75116e-06
1.98378e-06
1.99381e-06
2.01633e-06
9.29573e-06
9.2725e-06
1.32062e-06
9.30257e-06
9.30559e-06
4.57187e-06
2.97934e-06
9.41278e-06
4.28969e-06
1.87392e-06
9.42152e-06
7.95202e-06
9.20957e-06
4.35936e-06
2.04166e-06
1.43032e-06
9.39968e-06
9.42091e-06
2.32667e-06
7.12897e-06
9.12868e-06
8.97411e-07
1.22832e-06
1.28598e-06
1.29142e-06
1.3067e-06
7.71484e-06
2.34338e-06
9.3347e-06
9.00163e-06
5.17967e-06
8.09249e-06
1.7468e-06
2.53008e-06
1.73513e-06
4.99021e-06
5.03371e-06
1.48646e-06
1.03144e-06
9.98096e-07
4.69085e-06
7.60277e-06
3.40062e-06
5.86227e-06
7.70585e-06
4.74164e-06
5.13297e-06
4.95071e-06
2.66708e-06
1.75268e-06
9.39861e-06
1.78498e-06
9.5615e-07
1.00631e-06
1.01003e-06
1.02234e-06
6.64992e-06
2.67356e-06
1.59442e-06
7.22039e-06
1.44684e-06
5.00885e-06
8.95939e-06
2.53342e-06
6.71082e-06
3.80833e-06
3.74589e-06
3.76766e-06
5.46377e-06
7.11376e-06
8.97771e-06
4.78918e-06
4.96667e-06
5.40885e-06
5.35302e-06
5.31955e-06
2.03755e-06
2.11122e-06
5.47447e-06
9.10813e-06
4.92892e-06
6.05786e-06
6.13653e-06
6.03503e-06
4.29981e-06
8.99265e-06
4.79638e-06
7.77767e-06
9.33594e-06
9.35109e-06
1.85523e-06
1.86442e-06
1.8856e-06
8.29437e-06
1.48247e-06
1.47588e-06
1.49978e-06
1.41337e-06
5.42145e-06
6.57054e-06
5.43603e-06
9.30614e-06
8.23087e-06
9.29684e-07
9.86004e-07
9.98332e-07
9.82868e-07
6.30155e-07
6.32832e-07
6.24602e-07
6.2313e-07
5.84653e-07
1.90501e-06
7.57505e-06
5.62164e-06
9.40728e-06
7.52928e-06
7.49903e-06
5.69046e-06
9.38078e-06
1.88274e-06
9.43089e-06
5.6643e-06
5.60626e-06
5.57053e-06
9.3755e-06
5.38101e-06
5.2867e-06
6.42227e-06
3.64334e-06
9.20285e-06
9.37777e-06
1.7149e-06
1.72315e-06
1.74289e-06
8.77434e-06
9.11845e-06
4.05521e-06
5.2357e-06
5.56467e-06
2.3383e-06
9.36251e-06
9.39849e-06
1.75457e-06
8.79005e-07
9.41789e-06
4.99076e-06
6.19838e-06
6.27983e-06
4.98203e-06
2.28792e-06
1.21212e-06
1.2706e-06
1.27578e-06
1.291e-06
9.41325e-06
7.06827e-06
1.49186e-06
6.13647e-06
5.84342e-06
1.16498e-06
1.63641e-06
9.2608e-06
1.56404e-06
1.5569e-06
1.58218e-06
9.42083e-06
7.57909e-06
2.24056e-06
2.18939e-06
2.20084e-06
2.22545e-06
1.61704e-06
5.37414e-06
4.04778e-06
4.00461e-06
3.98136e-06
7.04655e-06
5.72989e-06
7.44854e-06
6.43524e-06
9.15837e-06
2.55149e-06
7.15853e-06
5.79286e-06
7.25684e-06
5.66123e-06
1.61973e-06
1.20897e-06
4.31018e-06
5.96296e-06
9.3484e-06
9.38848e-06
9.42472e-06
9.2841e-06
1.56599e-06
8.1461e-06
6.91074e-06
9.0274e-06
9.01397e-06
1.1441e-06
1.14863e-06
1.16243e-06
1.08976e-06
9.41241e-06
6.4759e-06
7.33583e-06
5.69653e-06
5.42981e-07
2.07846e-06
1.72439e-06
6.73124e-06
9.20285e-06
1.51295e-06
5.98719e-06
6.93378e-06
6.89058e-06
9.37663e-06
3.06824e-06
8.97573e-06
8.9942e-06
7.03548e-06
9.09044e-06
1.337e-06
1.29393e-06
9.42852e-06
1.94732e-06
6.62046e-06
6.51081e-06
1.83285e-06
1.9046e-06
1.91409e-06
1.93579e-06
9.0958e-06
9.15746e-06
1.60085e-06
9.19378e-06
3.04615e-06
2.99637e-06
3.01325e-06
2.26131e-06
1.32686e-06
2.24084e-06
9.36715e-06
5.88241e-06
8.92308e-06
1.29678e-06
7.68243e-06
1.30726e-06
9.41235e-06
6.27571e-06
1.45334e-06
6.6026e-06
6.49338e-06
6.51387e-06
1.76577e-06
8.57214e-06
8.98801e-06
1.82269e-06
5.80202e-06
1.20103e-06
6.4258e-06
9.00088e-06
7.07858e-06
9.18677e-06
8.9512e-06
8.40592e-06
9.01413e-06
4.22689e-06
9.39913e-06
9.16757e-06
3.47117e-06
3.43391e-06
3.41433e-06
1.74858e-06
6.25255e-06
9.31029e-06
9.42727e-06
5.56116e-06
9.16215e-06
8.294e-06
9.43279e-06
8.94358e-06
8.95696e-06
7.68385e-06
6.79303e-06
6.18958e-06
8.94003e-06
8.38422e-06
6.01044e-06
6.07835e-06
5.97794e-06
9.34103e-06
6.36612e-06
1.65371e-06
9.33664e-06
1.28683e-06
7.22952e-06
5.99944e-06
6.0773e-06
9.36985e-06
4.6238e-06
4.57464e-06
4.5478e-06
6.04989e-06
7.73301e-07
7.02142e-06
6.91368e-06
1.95067e-06
5.79134e-06
6.00309e-06
9.40743e-06
9.18785e-06
8.99302e-06
8.71481e-06
9.22932e-06
6.61539e-07
8.92436e-06
4.66973e-06
9.35305e-06
6.20005e-06
6.30447e-06
9.12455e-06
6.53133e-06
8.32798e-06
9.42742e-06
6.95575e-06
9.39713e-06
9.15573e-06
9.34461e-06
1.02492e-06
6.5317e-06
7.65662e-06
9.26229e-06
9.32862e-06
5.42445e-06
5.13092e-06
7.16143e-06
9.35987e-06
6.21425e-06
5.0737e-06
5.02028e-06
4.99008e-06
8.68098e-06
1.15182e-06
1.13361e-06
1.13819e-06
1.08057e-06
9.38282e-06
5.50557e-06
9.43014e-06
8.95677e-06
5.66748e-06
8.73103e-06
1.02859e-06
8.74615e-06
1.02051e-06
1.73719e-06
9.97132e-07
9.14194e-06
6.14183e-06
6.21598e-06
6.1132e-06
9.14981e-06
7.99711e-06
8.72431e-06
9.36071e-06
9.40762e-06
8.35428e-06
9.17962e-06
8.7081e-06
5.92119e-06
1.77294e-06
8.77048e-06
9.37202e-06
8.85045e-06
6.94198e-06
6.83347e-06
9.01679e-06
9.29439e-06
8.77298e-06
9.42217e-06
2.76239e-06
9.41025e-06
8.85755e-06
3.05874e-06
8.8708e-06
9.41692e-06
6.62055e-06
6.91259e-06
6.29408e-06
6.18981e-06
6.21955e-06
9.23179e-06
7.25107e-06
9.08627e-06
6.63723e-06
6.4086e-07
9.37747e-06
1.18925e-06
1.1938e-06
1.20823e-06
1.13191e-06
1.53029e-06
6.71427e-06
8.68067e-06
1.48471e-06
9.41869e-06
6.17999e-06
9.00366e-06
9.39394e-06
6.11952e-06
7.05983e-07
7.44957e-07
7.47572e-07
7.56817e-07
6.74861e-06
6.63825e-06
7.47956e-06
6.9682e-06
6.63323e-06
9.0049e-07
9.40742e-06
9.43019e-06
9.39919e-06
9.41082e-06
4.21108e-06
9.30802e-06
1.32785e-06
9.17864e-06
6.51392e-06