/*--------------------------------*- C++ -*----------------------------------*\
  =========                 |
  \\      /  F ield         | OpenFOAM: The Open Source CFD Toolbox
   \\    /   O peration     | Website:  https://openfoam.org
    \\  /    A nd           | Version:  8
     \\/     M anipulation  |
\*---------------------------------------------------------------------------*/
FoamFile
{
    version     2.0;
    format      ascii;
    class       surfaceScalarField;
    location    "10";
    object      phi;
}
// * * * * * * * * * * * * * * * * * * * * * * * * * * * * * * * * * * * * * //

dimensions      [0 3 -1 0 0 0 0];

internalField   nonuniform List<scalar> 
5897
(
4.40384e-10
-1.53639e-10
8.11187e-10
-1.09793e-09
-1.12435e-08
1.26152e-08
-1.23904e-08
1.10187e-08
9.49641e-09
-9.43792e-09
1.55274e-10
-2.13764e-10
1.53145e-10
-1.26427e-09
1.15839e-09
-4.72606e-11
1.24299e-08
-1.07522e-08
1.6289e-10
-1.84063e-09
-8.02771e-09
-2.74897e-09
6.76493e-09
4.01175e-09
-4.86196e-09
3.79002e-10
-6.27416e-10
5.11037e-09
1.37802e-08
7.76564e-09
-1.8318e-10
-2.13627e-08
-8.68024e-09
1.89319e-09
-7.14442e-10
7.50149e-09
2.88459e-09
9.32499e-09
-9.99215e-09
-2.21742e-09
-1.3128e-11
6.54884e-10
-7.24214e-10
8.24582e-11
-1.44343e-09
8.99081e-09
1.8093e-09
1.76042e-08
7.95069e-10
-1.51208e-08
-3.27848e-09
1.36529e-08
8.49056e-10
-2.07206e-09
1.59456e-09
1.65964e-10
-3.45586e-10
-1.41494e-09
-1.95128e-08
1.5214e-08
1.18858e-08
-7.58706e-09
4.30678e-09
5.04987e-09
-5.62685e-09
-3.7298e-09
-1.03385e-10
5.28272e-10
1.17145e-10
-5.42032e-10
6.06712e-11
-3.80349e-10
-9.60512e-11
4.15729e-10
1.00207e-08
-2.44324e-09
-1.00814e-08
2.50387e-09
-1.67794e-08
2.01691e-08
-5.78463e-09
2.39491e-09
4.46598e-09
-9.31699e-09
-3.17669e-09
1.09741e-08
-4.20962e-09
-8.09073e-09
1.32623e-09
-1.00182e-12
4.60471e-10
-1.93063e-08
1.88468e-08
6.93136e-09
-2.55628e-09
-9.87993e-09
5.50485e-09
-9.40462e-09
-7.05946e-09
5.55757e-09
1.09065e-08
-4.60481e-10
2.40666e-09
1.00777e-09
-2.95395e-09
-1.46975e-08
1.98515e-08
-9.78541e-09
4.63147e-09
2.67074e-10
-1.14281e-10
-2.08348e-10
5.55546e-11
-1.57495e-08
3.26703e-09
-7.03038e-09
-9.22359e-09
1.77599e-08
2.89495e-09
-1.14313e-08
-8.4929e-09
1.24804e-08
-1.49303e-08
1.09428e-08
-1.17857e-08
4.89587e-10
1.48505e-09
9.81108e-09
1.30065e-08
9.00776e-09
-6.45318e-10
-2.13689e-08
-9.51583e-09
-1.36905e-08
6.0629e-09
1.71434e-08
-8.54507e-09
5.61058e-10
7.98401e-09
3.97974e-09
-5.23194e-09
-3.21402e-09
4.46622e-09
1.74074e-08
-1.58935e-08
-7.11795e-09
5.604e-09
5.88e-09
-6.15328e-09
9.04461e-10
-6.31182e-10
9.39016e-09
-1.24961e-08
-8.98018e-09
1.20861e-08
-1.14348e-09
9.66698e-10
2.05174e-09
-1.87496e-09
4.54798e-10
-5.71742e-09
-2.15598e-10
5.47822e-09
2.80337e-09
-3.90516e-09
1.04585e-08
-2.37745e-09
3.60794e-09
-3.8187e-09
2.58821e-09
-1.49157e-08
1.63097e-08
-2.94001e-09
1.54592e-09
1.49929e-10
-1.84489e-09
-3.12471e-10
2.00743e-09
8.37635e-09
1.15627e-09
-1.73681e-09
-7.7958e-09
3.9042e-11
4.22144e-11
-8.12564e-11
-1.48102e-10
6.99974e-11
3.67116e-10
-2.89011e-10
-1.21936e-09
3.3422e-09
-1.89861e-08
1.68632e-08
-6.35704e-09
4.50108e-09
-5.21487e-10
-6.74888e-09
-2.20391e-08
5.60919e-09
2.31788e-08
1.72165e-09
-3.94962e-09
9.78845e-09
-7.56047e-09
6.87746e-09
-7.6667e-09
-1.95974e-09
-2.55372e-09
1.29101e-09
1.96013e-10
7.52471e-09
-7.72072e-09
5.89828e-10
6.72112e-09
-7.31095e-09
-8.59875e-09
2.60068e-11
8.57274e-09
5.65831e-10
-1.4692e-08
-1.5368e-10
1.42798e-08
8.37023e-09
-5.90004e-09
4.14405e-10
-8.92104e-09
1.15864e-11
8.90945e-09
-8.84697e-09
1.18635e-11
8.83511e-09
-8.62038e-09
8.75267e-12
8.61163e-09
1.05911e-08
-6.45438e-09
-4.13675e-09
-4.05165e-11
-1.71724e-08
1.72203e-08
-7.36051e-12
-4.02652e-11
-1.68777e-08
1.69248e-08
-6.77053e-12
-1.21546e-10
2.75317e-10
-1.24421e-09
1.09044e-09
6.50806e-10
6.1267e-09
-1.65478e-10
-6.61202e-09
-2.56964e-11
1.66259e-08
-8.2454e-12
-1.6592e-08
-8.60648e-09
1.8606e-12
8.60462e-09
4.35813e-10
-1.63559e-09
1.41622e-09
-2.16441e-10
-4.85746e-11
1.66317e-08
1.07123e-11
-1.65939e-08
1.58122e-08
-1.51432e-08
-9.67593e-10
2.98535e-10
-8.57728e-09
-2.12052e-12
8.5794e-09
1.62264e-09
-3.03738e-09
3.50371e-09
-2.08897e-09
2.05388e-10
1.63093e-08
-7.02481e-10
-1.4925e-09
4.90915e-10
2.62423e-09
-3.15679e-11
1.662e-08
-1.16196e-11
-1.65768e-08
2.0988e-09
5.17526e-09
-4.3029e-09
-2.97116e-09
2.54268e-09
-2.30377e-09
1.93061e-09
-2.16952e-09
1.65503e-08
3.08213e-09
-3.32272e-09
5.78397e-10
-1.60534e-09
1.46276e-09
-8.54644e-09
-2.16672e-12
8.54861e-09
2.74465e-10
-1.65505e-08
1.64576e-08
-1.81575e-10
-3.53148e-09
-8.75143e-09
3.2763e-09
9.00661e-09
-2.14427e-11
1.65887e-08
-2.37635e-11
-1.65435e-08
-7.88336e-09
5.42005e-09
-4.20319e-09
6.66649e-09
-1.74049e-11
1.7076e-08
-2.90975e-11
-1.70295e-08
-1.7138e-11
1.67833e-08
-2.86709e-11
-1.67374e-08
-2.7068e-09
-1.01456e-08
4.96907e-09
-1.76165e-11
1.65561e-08
-2.51814e-11
-1.65133e-08
-8.51097e-09
-4.55508e-12
8.51552e-09
-1.66914e-08
-1.00838e-09
6.57241e-10
1.70425e-08
-8.81999e-09
-3.69223e-12
8.82368e-09
-8.74812e-09
-3.51263e-12
8.75163e-09
1.406e-09
-1.72729e-11
1.65113e-08
-2.84972e-11
-1.64655e-08
-1.96116e-11
1.7028e-08
-2.21292e-11
-1.69863e-08
-1.93593e-11
1.67358e-08
-2.21581e-11
-1.66943e-08
2.94977e-09
3.71152e-09
-4.56249e-09
5.17375e-09
4.1264e-09
-6.35038e-09
-7.37103e-12
1.73052e-08
-7.3144e-11
-1.72247e-08
-8.48978e-12
1.70068e-08
-7.02963e-11
-1.6928e-08
-3.44731e-09
1.47241e-09
-1.48045e-08
1.90446e-09
7.94823e-09
-2.64803e-09
-7.20466e-09
-1.29508e-08
3.703e-09
-6.50161e-09
1.11894e-10
3.47955e-10
-4.08471e-10
-5.13789e-11
-1.00786e-11
-1.64228e-08
1.64664e-08
-3.35219e-11
-8.78567e-09
-1.02876e-12
8.7867e-09
-8.71421e-09
-1.01979e-12
8.71523e-09
-1.62546e-11
-1.69494e-08
1.69976e-08
-3.18958e-11
-1.60373e-11
-1.66562e-08
1.67045e-08
-3.22556e-11
2.22421e-11
-5.66216e-09
-2.38939e-10
5.87886e-09
-2.93756e-11
1.7201e-08
-1.71514e-08
-2.01838e-11
-2.89913e-11
1.69059e-08
-1.68571e-08
-1.98285e-11
7.11067e-09
1.10456e-08
-1.8363e-08
2.06712e-10
-8.7427e-09
-5.98853e-09
1.11998e-08
3.2906e-10
1.81044e-08
-1.74874e-08
-9.4601e-10
3.18347e-10
1.77878e-08
-1.71839e-08
-9.22277e-10
-8.75746e-09
-3.62851e-13
8.75783e-09
-8.68615e-09
-4.83998e-13
8.68664e-09
9.1715e-09
8.06471e-10
-6.52982e-10
6.1283e-09
-7.73897e-09
7.23484e-09
-5.62417e-09
-2.20992e-11
1.71727e-08
-1.71246e-08
-2.59757e-11
-2.17577e-11
1.68782e-08
-1.68308e-08
-2.56129e-11
3.66235e-09
-3.43287e-09
-4.71144e-10
2.41663e-10
5.15028e-10
2.18539e-09
-2.12683e-09
-5.73587e-10
-9.98918e-12
1.69391e-08
-9.02103e-12
-1.69201e-08
-9.00181e-12
1.66292e-08
-2.35435e-11
-1.65966e-08
-1.42719e-08
-4.51955e-09
1.58514e-08
-2.39509e-11
1.71468e-08
-1.71001e-08
-2.27878e-11
-2.36118e-11
1.68529e-08
-1.68069e-08
-2.23468e-11
4.45036e-09
3.89706e-09
-3.17367e-09
-1.90101e-11
1.71218e-08
-1.70914e-08
-1.13567e-11
-1.87353e-11
1.68284e-08
-1.67984e-08
-1.1239e-11
-6.11642e-10
-4.64313e-10
3.05724e-10
7.70231e-10
-5.23588e-09
4.13509e-09
5.12543e-09
-4.02464e-09
9.94484e-10
-3.95519e-10
-5.72711e-10
-2.62536e-11
-2.76797e-11
1.69593e-08
2.41665e-11
-1.69558e-08
-1.54083e-11
1.65998e-08
-3.99161e-12
-1.65804e-08
-7.95301e-12
1.6324e-08
-2.31983e-11
-1.62928e-08
-8.37449e-09
-7.08623e-12
8.38158e-09
3.48085e-09
2.43219e-09
-3.27464e-09
-2.63839e-09
-2.00435e-11
1.71146e-08
-1.61547e-11
-1.70784e-08
-1.97929e-11
1.68213e-08
-1.58668e-11
-1.67856e-08
-1.02526e-08
-1.28882e-08
1.18972e-08
3.10919e-10
-3.00897e-09
-4.96996e-11
2.74775e-09
-8.67833e-09
-1.083e-11
8.68916e-09
-8.61103e-09
-1.04172e-11
8.62145e-09
-8.96155e-09
-8.88724e-09
8.752e-10
1.90304e-09
-2.26321e-09
9.19437e-09
-8.63845e-09
-1.24941e-09
6.93488e-10
-4.51301e-09
-4.14929e-09
4.99712e-09
3.66518e-09
2.56743e-09
5.12222e-10
-2.76874e-09
-3.46196e-11
-1.69536e-08
1.69857e-08
2.54419e-12
-2.55245e-11
-1.65871e-08
1.66068e-08
5.78697e-12
3.49425e-10
-9.83139e-10
-1.45095e-08
-8.64732e-09
-2.00337e-09
1.94072e-09
-8.9861e-12
1.63033e-08
-2.58302e-12
-1.62917e-08
-8.65869e-09
8.70113e-09
-4.24465e-11
-8.70899e-09
8.68185e-09
2.71319e-11
-1.33351e-08
-3.49053e-09
-8.57398e-09
8.54829e-09
-8.33469e-09
-1.31006e-11
8.34779e-09
-9.71322e-10
8.02734e-10
4.43331e-10
-2.74743e-10
-4.08161e-09
-6.36346e-09
3.53596e-09
6.90911e-09
-8.65195e-09
-8.66692e-09
8.0391e-12
8.65888e-09
-8.58737e-09
5.57446e-13
8.58681e-09
8.5944e-09
1.57152e-09
-1.78957e-09
1.58384e-08
-1.57963e-08
3.82461e-10
-4.24577e-10
-5.70411e-11
1.63754e-08
9.01607e-11
-1.64085e-08
-2.08877e-08
1.19377e-08
-8.62792e-09
-8.15026e-09
8.47753e-09
-3.27262e-10
-7.837e-09
8.35818e-09
-5.2118e-10
7.37314e-10
1.70596e-09
-1.56808e-09
-1.81521e-08
5.72963e-09
-1.42064e-08
-1.78022e-08
5.54452e-09
-1.38859e-08
-1.71429e-08
5.35686e-09
-1.37557e-08
-7.2168e-12
1.64317e-08
-1.63912e-08
-3.32572e-11
-8.34403e-09
1.79327e-11
8.3261e-09
9.41512e-09
-9.20974e-09
1.05838e-08
1.07537e-09
-2.46477e-09
-6.54158e-11
1.64614e-08
-5.21722e-11
-1.63438e-08
-8.5949e-09
-8.70995e-09
2.04117e-11
8.68954e-09
-8.58878e-09
1.02404e-11
8.57854e-09
-6.37753e-11
1.78756e-09
-1.14539e-09
-9.74082e-12
1.64047e-08
-1.63715e-08
-2.34651e-11
-3.71891e-09
6.16801e-09
3.02643e-09
-5.47553e-09
1.6843e-08
-1.7368e-08
-3.52785e-10
8.77745e-10
3.60869e-10
-1.62544e-10
-4.10866e-10
2.12541e-10
-8.50913e-12
1.697e-08
-3.1139e-11
-1.69304e-08
-9.28339e-12
1.66752e-08
-3.19772e-11
-1.6634e-08
3.94337e-09
-5.84475e-10
3.03459e-10
-8.85984e-11
-8.57009e-09
-3.41299e-11
-8.67486e-09
-8.9472e-09
8.93983e-09
-8.87095e-09
8.86246e-09
-8.56371e-09
-6.76139e-09
7.17666e-09
-4.15271e-10
-4.37784e-12
1.638e-08
-1.63491e-08
-2.65061e-11
-6.08163e-11
-1.69555e-08
1.69277e-08
-2.23662e-10
-1.62913e-08
1.64808e-08
-8.53965e-09
8.00392e-11
8.45961e-09
3.19375e-10
1.59634e-08
-4.4436e-10
-2.5047e-11
6.38845e-11
9.95056e-11
-1.38343e-10
-8.8374e-09
-8.76526e-09
-2.27176e-09
3.97775e-09
8.31476e-09
6.25612e-10
1.45594e-09
-1.34424e-09
1.22363e-08
-1.30987e-08
2.80045e-09
-2.46968e-09
-7.66482e-09
7.33404e-09
-6.31549e-12
1.63566e-08
-2.48677e-11
-1.63254e-08
-4.39239e-10
-7.71103e-09
-7.50424e-09
-3.32765e-10
-8.52105e-09
8.91555e-09
-8.94493e-09
8.84215e-09
-8.87114e-09
-5.13637e-10
-1.58552e-08
1.59296e-08
-8.80529e-09
-8.73357e-09
-4.28885e-09
-8.75175e-09
8.07414e-09
4.96646e-09
-1.95369e-09
4.97964e-09
7.94817e-09
2.46695e-09
5.77835e-09
-5.86533e-09
-2.37997e-09
-8.92202e-09
8.89992e-09
-8.84853e-09
8.82677e-09
1.69354e-08
-1.66753e-08
-1.0473e-10
-1.55373e-10
-3.70487e-09
7.67923e-09
-6.55017e-09
2.57582e-09
-8.9797e-11
-6.67159e-09
-8.38682e-09
-1.69786e-10
8.5566e-09
4.14577e-09
-4.71048e-09
-8.17799e-09
4.02348e-10
1.63509e-08
-1.70112e-08
1.69727e-08
-3.04017e-10
3.42493e-10
8.87612e-09
-8.90008e-09
8.80324e-09
-8.82685e-09
-1.71652e-10
1.46715e-10
1.20932e-09
-1.18438e-09
-8.77372e-09
-8.70219e-09
3.3398e-10
-7.60635e-09
6.70449e-09
5.67885e-10
-3.79475e-10
1.85033e-08
3.73317e-10
-1.84971e-08
1.60716e-08
-1.27347e-08
-2.12206e-08
1.78837e-08
1.69356e-08
-1.24571e-08
-2.3441e-08
1.89626e-08
1.65639e-08
-1.21892e-08
-2.30205e-08
1.86459e-08
-1.68248e-08
-2.40415e-10
4.3239e-10
1.66328e-08
5.34144e-09
-7.33198e-09
-1.55976e-09
3.55029e-09
8.8602e-09
-8.87921e-09
8.78752e-09
-8.80626e-09
-1.51648e-08
1.56042e-08
-1.65009e-10
1.67542e-08
3.25655e-11
-1.03937e-10
-1.66828e-08
9.39867e-09
-9.06962e-09
9.30306e-09
-8.98471e-09
-9.65177e-09
1.16937e-08
-1.30764e-08
1.10344e-08
1.67489e-08
-2.4466e-11
2.96952e-11
-8.86386e-09
8.84382e-09
-8.79124e-09
8.77145e-09
1.44804e-10
-2.20614e-10
1.59768e-10
-9.0355e-11
-3.17971e-10
2.48558e-10
-1.18561e-11
1.69637e-08
-2.05295e-11
-1.69313e-08
-4.48079e-11
1.66085e-08
1.87892e-11
-1.65825e-08
-1.62601e-08
1.62611e-08
1.0698e-11
-1.17347e-11
-1.67116e-08
1.66686e-08
-4.38546e-11
8.68543e-11
7.25742e-11
4.86094e-13
-1.63331e-08
7.07146e-11
-3.33338e-11
2.41826e-10
3.00315e-10
-1.81272e-10
-1.62498e-08
1.62601e-08
6.82619e-12
-1.70965e-11
-1.66221e-08
1.66032e-08
-2.4933e-11
4.38285e-11
-6.95715e-09
7.19604e-09
2.56156e-09
-8.68832e-09
-8.62003e-09
-8.38245e-09
-1.40946e-10
-1.84921e-08
1.2716e-10
1.85059e-08
-2.32612e-09
8.10383e-09
-1.00666e-08
-1.62481e-08
1.62614e-08
-8.11344e-12
-5.23406e-12
-1.6579e-08
1.65875e-08
-1.37225e-11
5.25032e-12
1.39883e-09
-1.20235e-09
-3.68135e-10
-1.62473e-08
1.62583e-08
-7.59767e-12
-3.35034e-12
-1.65735e-08
1.65779e-08
-1.20202e-11
7.56684e-12
4.56998e-10
-3.09036e-10
1.62453e-08
-1.62445e-08
-1.67867e-11
1.59925e-11
1.65448e-08
-1.65535e-08
-2.18894e-11
3.0618e-11
2.14482e-08
-8.30931e-09
-1.32437e-10
-2.16792e-11
3.30178e-11
7.03297e-11
-2.38781e-11
1.55853e-08
-1.45503e-10
-1.55808e-08
-8.48698e-09
8.47976e-09
-1.62018e-08
1.62078e-08
-2.50136e-11
1.89586e-11
-1.64867e-08
1.6488e-08
-2.6953e-11
2.55574e-11
1.56743e-08
-3.43433e-11
-5.46324e-11
-8.6946e-09
-8.60277e-09
-8.34368e-09
-1.6179e-08
1.61829e-08
-2.03225e-11
1.64022e-11
-1.64558e-08
1.64577e-08
-2.09993e-11
1.91344e-11
2.32663e-08
2.71403e-11
-2.34568e-09
-2.09477e-08
-1.18524e-08
2.30747e-08
-1.75234e-08
6.30114e-09
-1.37717e-08
2.31918e-08
-1.60289e-08
6.60877e-09
-1.35527e-08
2.27336e-08
-1.57772e-08
6.59634e-09
1.57584e-08
2.96349e-11
-1.13682e-10
-1.5821e-08
1.58861e-08
-9.88742e-11
3.3789e-11
-1.61499e-08
1.61601e-08
-2.16751e-11
1.14724e-11
-1.64235e-08
1.64334e-08
-2.18356e-11
1.20203e-11
8.45155e-09
-8.46129e-09
-1.61295e-08
1.61407e-08
-1.95613e-11
8.3819e-12
-1.64026e-08
1.64139e-08
-1.9404e-11
8.10332e-12
-6.03062e-12
1.79975e-11
2.40946e-11
1.04643e-13
1.59306e-08
-1.59192e-08
-5.74595e-12
-5.71379e-12
-2.1419e-09
-7.71072e-09
7.38294e-09
-1.61108e-08
1.61172e-08
-2.9453e-11
2.3088e-11
-1.63837e-08
1.639e-08
-2.94036e-11
2.30822e-11
3.94528e-10
-1.61918e-08
1.59003e-08
-1.59008e-08
1.65288e-11
-1.60154e-11
-4.87158e-09
3.96054e-09
2.10802e-08
4.72138e-11
-1.09823e-10
-1.60397e-08
1.60758e-08
-3.67927e-11
6.98457e-13
-1.63113e-08
1.63477e-08
-3.69669e-11
5.32284e-13
1.59176e-08
2.44093e-11
-5.591e-11
-8.74457e-09
-8.6143e-09
-3.32749e-09
-2.2907e-10
1.23689e-10
-8.40108e-09
8.42733e-09
-8.43171e-09
-1.5859e-08
1.58682e-08
1.47084e-11
-2.38991e-11
-1.60197e-08
1.60593e-08
-2.41184e-11
-1.54878e-11
-1.62907e-08
1.6331e-08
-2.43312e-11
-1.59225e-11
1.62312e-08
-8.43407e-12
2.25657e-11
1.65222e-08
-1.03868e-11
3.29656e-11
3.7641e-12
1.03335e-11
4.38207e-12
9.61119e-12
-1.60192e-08
1.60406e-08
-2.24541e-11
1.04073e-12
-1.62906e-08
1.63122e-08
-2.25092e-11
8.98909e-13
-1.58134e-08
1.58312e-08
-6.43218e-13
-1.71749e-11
-1.59978e-08
1.60198e-08
-3.08528e-11
8.79579e-12
-1.62687e-08
1.6291e-08
-3.07194e-11
8.47813e-12
-1.57998e-08
1.58097e-08
1.64213e-11
-2.63426e-11
-8.40754e-09
8.40123e-09
1.59218e-08
-5.08963e-12
1.38897e-11
8.72414e-09
-8.73265e-09
8.65378e-09
-8.66307e-09
-1.59463e-08
1.59869e-08
-2.51932e-11
-1.54178e-11
-1.62163e-08
1.62574e-08
-2.52144e-11
-1.58907e-11
-1.66884e-09
1.56148e-09
8.37271e-09
-8.26535e-09
-1.57475e-08
1.5767e-08
8.73135e-12
-2.8273e-11
-8.60507e-09
-1.5941e-08
1.59733e-08
-2.0158e-11
-1.20824e-11
-1.62106e-08
1.62424e-08
-2.05474e-11
-1.12947e-11
-2.48142e-09
1.15727e-09
-1.33678e-08
1.05139e-11
3.22712e-12
2.62067e-11
-1.81735e-12
8.65098e-12
-1.02638e-11
-5.71886e-10
5.95048e-10
-1.57023e-08
1.5726e-08
-3.97067e-13
-2.32399e-11
-3.69356e-09
-2.15285e-09
2.80903e-09
-1.61062e-08
1.59323e-08
1.68848e-10
4.97262e-12
-1.58399e-08
1.56702e-08
1.6724e-10
2.46338e-12
-1.48373e-08
-6.96894e-09
7.33293e-09
1.44733e-08
1.70156e-09
-7.95382e-09
-6.3615e-10
6.88841e-09
1.58888e-08
-1.16266e-11
2.31389e-11
-1.56628e-08
1.56995e-08
-1.31867e-11
-2.34481e-11
-1.56345e-08
1.56683e-08
-7.44636e-12
-2.63859e-11
-8.06744e-09
-1.56016e-08
1.56502e-08
-2.6934e-11
-2.16615e-11
-1.52126e-09
-5.86995e-09
1.33359e-09
6.05761e-09
-1.55927e-08
1.56519e-08
-5.6749e-11
-2.47333e-12
3.49346e-11
-5.50409e-12
4.38874e-11
-8.29743e-12
-7.68289e-09
7.24254e-09
-5.87006e-12
2.6861e-11
8.68407e-09
-1.05687e-08
1.44999e-08
-1.83904e-08
-5.94567e-09
1.58432e-08
-1.58361e-08
3.28044e-11
-1.01301e-11
5.77477e-09
2.73054e-09
-6.02659e-09
-2.47871e-09
1.28791e-08
7.35431e-09
-5.56975e-09
-1.46636e-08
3.10827e-11
-2.24775e-12
3.58599e-11
-3.64276e-12
-1.05278e-09
-8.151e-09
5.65331e-10
5.17115e-09
-1.40943e-08
1.65467e-08
-7.62364e-09
1.3701e-10
-1.65298e-10
-1.74362e-10
2.0265e-10
1.90614e-10
-8.86203e-10
8.39461e-11
-1.6071e-08
4.12849e-11
-1.00338e-11
-1.6343e-08
4.19904e-11
-1.03256e-11
-7.04537e-12
3.68948e-11
-1.9366e-10
1.28209e-10
-1.57703e-08
3.60868e-11
-1.32399e-11
3.135e-11
1.69351e-12
3.34446e-11
7.11709e-13
4.34686e-10
-3.10461e-10
-2.72328e-10
-8.73846e-09
8.7266e-09
-8.65818e-09
8.61337e-09
1.36268e-09
-1.77444e-08
-9.86252e-10
-1.60305e-08
1.36563e-11
-2.8441e-12
-1.63016e-08
1.40687e-11
-3.21522e-12
3.80914e-10
-4.42076e-09
-8.22116e-10
-1.89185e-12
3.39501e-11
-1.90159e-08
2.86979e-10
1.89293e-08
-2.00346e-10
1.97215e-10
5.39764e-09
-1.40736e-08
8.47872e-09
1.2068e-09
-1.60402e-09
-5.06578e-09
5.463e-09
-1.57267e-08
3.65736e-11
-1.21902e-11
-1.85003e-08
3.27138e-10
-3.18922e-10
3.64887e-10
-4.15537e-10
2.60922e-11
4.43489e-12
2.67233e-11
4.00258e-12
-1.48827e-08
-7.25046e-10
1.88747e-08
-1.56878e-08
3.51691e-11
-1.01623e-11
2.89527e-12
2.85551e-11
2.95791e-11
3.54329e-13
2.98939e-11
3.37376e-13
7.81668e-09
-1.92909e-09
-1.83656e-11
3.06154e-09
1.8405e-08
-1.59619e-08
2.14084e-11
-5.8225e-12
-1.6232e-08
2.17994e-11
-6.08771e-12
1.31565e-08
-1.39677e-08
-3.77889e-09
4.59003e-09
-1.56592e-08
3.682e-11
-1.21266e-11
1.84739e-12
3.75392e-11
5.12128e-11
-5.04708e-12
5.2042e-11
-4.98367e-12
3.16636e-10
3.30459e-10
-4.05269e-10
7.47642e-09
-1.10009e-09
-1.16766e-09
-5.20868e-09
-1.56264e-08
2.80079e-11
-3.20443e-12
-5.19056e-09
3.974e-09
-5.11723e-09
3.87892e-09
-4.83602e-09
3.76465e-09
2.92036e-10
-1.82332e-10
1.02384e-09
-1.13355e-09
-1.64756e-09
6.78871e-10
1.87565e-08
-1.69442e-09
7.07012e-10
1.90918e-08
-4.39038e-10
-1.05833e-09
2.65307e-10
1.23206e-09
3.55308e-12
3.67591e-11
2.90712e-11
1.62644e-11
2.9772e-11
1.63904e-11
-1.59034e-08
1.70418e-11
4.64664e-11
-1.61711e-08
1.87737e-11
4.61245e-11
1.77421e-09
-1.74684e-09
-7.4328e-10
7.15917e-10
-1.20432e-08
8.22235e-09
9.4778e-09
-8.70305e-09
-7.74756e-10
-8.26216e-09
7.69368e-09
-1.42793e-09
6.93793e-10
1.14223e-08
-1.06882e-08
-2.99329e-10
1.22248e-10
-3.12023e-10
1.2979e-10
-6.41017e-11
-8.39879e-09
4.25851e-10
8.03704e-09
-1.56151e-08
1.48401e-11
7.61612e-12
-1.74474e-11
4.59995e-11
-1.68897e-11
4.50843e-11
1.42978e-08
-2.30929e-08
3.95031e-09
4.84475e-09
1.404e-08
-2.26672e-08
3.8948e-09
4.73242e-09
1.24075e-08
-1.72803e-08
9.3094e-11
4.7797e-09
-8.71061e-10
2.39339e-10
1.11705e-09
-4.85333e-10
-2.37396e-11
4.501e-11
-2.32794e-11
4.43695e-11
-2.36804e-11
4.58929e-11
-2.32506e-11
4.5297e-11
-1.81989e-11
3.98756e-11
-1.78424e-11
3.93235e-11
-1.21792e-11
3.53941e-11
-1.19247e-11
3.48113e-11
7.84543e-12
3.02709e-11
2.53663e-11
1.47477e-11
2.60406e-11
1.43634e-11
1.71172e-08
-1.12841e-08
7.20563e-09
-1.30388e-08
1.68018e-08
-1.10939e-08
7.09803e-09
-1.2806e-08
-1.21796e-08
-1.1931e-08
-1.1702e-08
-3.16218e-09
-2.20946e-08
2.69523e-08
-1.69555e-09
4.95748e-11
-2.89428e-11
4.84073e-11
-2.93411e-11
-1.81403e-08
6.52925e-09
1.5024e-08
-3.41289e-09
2.73849e-09
8.70178e-09
-6.86904e-09
-4.57124e-09
1.41198e-09
-1.1795e-09
3.93132e-10
3.45894e-11
8.22047e-12
3.52241e-11
8.20189e-12
3.80188e-10
5.27186e-10
-5.90738e-10
1.53201e-08
-1.65395e-08
1.46724e-08
6.47728e-10
1.41058e-10
1.73288e-09
-2.79383e-10
1.79727e-11
-7.90999e-12
9.362e-13
2.05296e-11
1.14423e-11
2.88293e-11
-3.87034e-09
3.83741e-09
-7.24866e-09
7.28159e-09
-8.06144e-09
-1.59382e-10
-1.6342e-09
9.85503e-09
-5.91593e-09
2.5594e-09
6.09502e-09
-1.96604e-08
-5.12693e-09
-1.92944e-08
-5.02032e-09
-3.23572e-11
4.12852e-11
-2.19375e-11
3.54285e-11
-4.61672e-09
6.60786e-09
-6.20075e-09
4.15776e-11
1.63416e-11
4.22722e-11
1.67064e-11
-2.55128e-11
3.39579e-11
-1.85277e-08
1.87279e-08
1.16246e-09
3.04849e-11
-2.29527e-11
-1.61304e-09
2.52098e-09
1.39722e-09
-2.30516e-09
-4.53854e-11
2.48486e-09
7.76585e-10
7.24617e-10
-1.15064e-09
-3.50564e-10
5.17877e-10
-5.1658e-10
-4.25336e-10
4.24038e-10
1.19694e-09
-1.46992e-09
-2.46641e-09
2.73939e-09
-1.05508e-08
-2.41836e-09
-4.29039e-09
-7.18264e-09
4.65864e-09
6.81439e-09
-8.24012e-09
1.36167e-11
2.82868e-11
-1.83736e-08
8.48857e-11
1.01118e-09
-4.7681e-09
-6.1497e-10
4.37188e-09
1.03974e-08
-2.59993e-09
-9.58496e-09
1.78754e-09
-5.01564e-09
6.60255e-09
1.70645e-08
-1.86514e-08
-2.83298e-10
3.65975e-10
2.47782e-10
5.82145e-10
1.84936e-08
-1.86152e-08
-7.3468e-10
8.68447e-10
-7.74012e-09
2.64371e-11
1.94603e-11
2.77538e-11
1.90618e-11
-7.88103e-09
-1.75737e-10
-4.67058e-12
-1.64243e-08
1.77385e-08
-2.91233e-09
1.59808e-09
3.73468e-10
-4.8807e-09
3.76647e-09
7.40769e-10
-1.56227e-08
-1.03058e-10
1.5611e-08
1.14741e-10
-7.76724e-09
-5.3497e-09
5.72631e-09
7.39063e-09
-1.70397e-09
1.01197e-09
-1.79066e-10
-1.6292e-09
-2.55667e-10
1.80901e-10
1.93624e-09
-1.81181e-08
-1.56252e-09
2.31315e-09
-7.28488e-09
-3.7532e-10
5.34705e-09
-1.07567e-11
1.72426e-08
-9.56703e-12
1.69462e-08
2.21795e-11
1.29089e-11
-1.12645e-08
-4.65899e-09
2.97268e-09
-4.30823e-09
7.12123e-09
-7.10338e-09
2.1085e-11
4.88067e-11
2.25999e-11
4.87635e-11
2.49223e-11
1.22639e-09
-8.33832e-09
-1.33446e-09
8.42337e-09
-4.26482e-09
7.16505e-09
-7.20846e-09
-5.61849e-12
1.66344e-08
-1.64902e-09
2.68422e-11
1.66309e-08
-3.64985e-09
5.54268e-09
1.17365e-08
-1.36294e-08
9.68382e-09
6.19978e-10
-7.99065e-09
-1.75494e-11
1.66081e-08
-3.05119e-11
1.71028e-08
-2.99919e-11
1.68097e-08
-1.13231e-08
-3.3652e-09
1.10384e-08
2.72972e-09
8.70057e-10
-2.40283e-09
-2.51774e-11
1.676e-08
-2.52821e-11
1.70523e-08
-2.25286e-11
1.65765e-08
-2.10754e-11
1.67251e-08
-2.07294e-11
1.70179e-08
5.23743e-09
-4.79631e-09
7.65687e-10
-2.95571e-11
1.66483e-08
-2.18629e-11
1.69501e-08
-1.02131e-11
1.66106e-08
1.81813e-11
1.69492e-08
9.21579e-12
1.66078e-08
1.9412e-11
1.69867e-08
-2.46141e-11
1.65337e-08
-4.10301e-09
6.69649e-09
-6.8583e-09
7.91406e-11
-4.45099e-10
-5.17593e-10
-2.80552e-10
4.75669e-10
3.22475e-10
-1.66445e-09
1.09124e-08
-1.06759e-08
-2.72699e-11
1.64891e-08
3.27743e-10
-1.16244e-10
5.55754e-11
3.81727e-09
1.23788e-09
-4.04397e-09
-1.86567e-08
8.94605e-11
-1.54414e-08
-4.82898e-10
1.55448e-08
-1.94788e-08
-1.12757e-09
-1.91164e-08
-1.10036e-09
1.30857e-10
-8.93015e-09
9.25317e-09
-4.53875e-10
1.52133e-09
8.09839e-09
-1.00306e-08
1.21834e-08
9.46221e-09
-1.16149e-08
1.89125e-10
-2.98719e-10
-1.16076e-10
2.25669e-10
-1.91394e-11
1.6336e-08
-1.92307e-11
1.63094e-08
5.53534e-11
1.63379e-08
7.94004e-11
-1.65014e-09
2.87379e-10
1.28336e-09
-3.64744e-10
1.61584e-08
7.68713e-11
1.64646e-08
1.30525e-08
-1.2865e-08
-7.92837e-09
7.7409e-09
9.36677e-09
9.38159e-09
-6.26796e-09
1.05463e-08
-1.07334e-08
8.80914e-10
-3.14612e-10
1.77208e-10
-8.03879e-09
-2.27558e-09
2.07228e-09
8.24209e-09
8.11792e-09
-1.03495e-08
9.97101e-09
-7.73939e-09
-7.81853e-09
1.64378e-11
9.30467e-10
3.71012e-11
-9.84006e-10
-2.54934e-09
1.68595e-09
2.74338e-09
-1.88e-09
-6.99347e-09
1.81526e-09
4.71738e-11
5.13104e-09
3.26943e-09
-3.04581e-09
-3.27488e-09
3.05126e-09
-2.07682e-08
1.79504e-08
2.81779e-09
6.36194e-09
3.81614e-09
-3.10082e-09
-7.07726e-09
-1.50322e-09
-1.76451e-08
1.81807e-08
2.06143e-10
3.08351e-09
1.8075e-09
-1.63798e-09
-3.25304e-09
8.21573e-09
5.72805e-09
-1.05397e-08
-9.48074e-09
7.6597e-09
1.23608e-08
2.0988e-09
-1.32785e-08
2.38334e-10
1.17136e-10
-1.49328e-10
8.2435e-09
-8.82761e-09
1.57981e-08
-7.13064e-09
6.69034e-09
5.83729e-09
-5.39699e-09
3.22091e-10
-7.82739e-09
-4.98512e-10
8.00381e-09
-9.52229e-09
1.89508e-09
-2.39962e-09
1.00268e-08
-4.77746e-10
7.7058e-09
-7.87834e-09
6.50286e-10
-1.15104e-10
5.82116e-09
-7.39428e-09
-6.19412e-09
-9.49426e-09
9.38953e-09
5.03616e-09
-4.39151e-09
-4.74765e-09
2.66613e-10
-6.29352e-10
5.38713e-10
-1.75975e-10
-1.74127e-08
8.73279e-10
3.20683e-09
-4.88127e-10
-4.10209e-09
1.38338e-09
1.95716e-09
-1.99879e-09
8.33346e-10
-7.91714e-10
-1.27516e-08
1.76763e-08
-1.03678e-08
5.443e-09
2.13837e-10
4.07798e-10
7.09188e-09
-7.71351e-09
-1.83955e-09
5.61755e-09
2.32841e-09
-6.10642e-09
4.00533e-09
2.8283e-09
-3.15423e-09
-3.67941e-09
8.08065e-10
3.87915e-09
-8.6994e-10
-3.40116e-09
-8.70472e-09
2.5836e-09
4.21769e-11
-1.87071e-08
-9.47669e-11
1.44538e-10
-4.97714e-11
6.66984e-11
-3.74371e-11
-3.33167e-09
-3.56786e-10
4.28036e-10
3.26042e-09
2.57317e-09
-1.35224e-08
1.54462e-09
-1.80946e-08
4.4923e-10
-1.91261e-08
-3.39099e-10
-5.80917e-10
-1.13786e-08
1.15011e-08
4.58421e-10
-7.43802e-10
4.26723e-10
5.83692e-10
8.03399e-09
-4.36383e-10
6.32325e-10
-8.22993e-09
1.29177e-09
-1.13349e-09
1.79888e-09
8.22268e-10
3.77791e-09
-7.05658e-09
2.4564e-09
-2.03174e-10
2.29817e-10
-2.66428e-11
-9.46084e-11
1.39236e-10
3.21347e-10
-2.36662e-09
-1.79576e-09
-2.01826e-09
9.88655e-11
-1.45624e-09
-6.35987e-10
5.17574e-09
-4.23406e-09
8.71849e-09
-1.16151e-08
-4.16135e-10
5.94958e-10
-3.57173e-10
1.7835e-10
-8.36013e-09
8.05105e-09
7.7865e-10
-4.69574e-10
-6.1373e-10
-1.07925e-09
-9.49277e-09
-1.17878e-09
1.25666e-08
8.8649e-09
-9.16892e-09
-3.24791e-10
-7.27256e-10
1.89841e-10
-9.19367e-11
-5.39799e-10
-2.8026e-10
-7.72784e-09
6.568e-10
7.9798e-11
2.87185e-11
-8.35772e-10
-1.32867e-08
7.42549e-09
4.90853e-09
-4.30965e-09
9.82892e-09
-1.04278e-08
-2.45631e-08
1.78142e-08
-1.07344e-09
2.56e-09
5.90851e-09
-7.39506e-09
-4.92791e-11
-4.54878e-11
-7.13858e-09
9.3586e-09
-2.22003e-09
-6.03638e-10
7.10557e-10
9.46995e-10
-1.05391e-09
-7.87345e-09
7.93675e-09
-2.20282e-10
1.5698e-10
2.28774e-09
2.69824e-09
-2.39228e-09
-2.59369e-09
-7.51351e-10
1.10037e-08
-6.60143e-10
-9.59224e-09
-1.03671e-09
9.17515e-10
-4.84443e-10
1.18762e-09
-1.90586e-09
5.05961e-09
-4.77768e-09
8.20634e-09
-8.48828e-09
-3.0306e-09
9.97758e-09
-6.94698e-09
-4.23616e-10
1.51144e-09
3.70257e-10
-1.45808e-09
-7.90505e-09
-1.35928e-09
1.22553e-09
1.7403e-09
-1.89171e-09
-1.04264e-10
-1.91476e-08
-2.68121e-10
-1.95139e-08
-2.76967e-10
3.95068e-09
4.27117e-09
-4.09546e-09
1.32954e-09
-1.24682e-08
1.32375e-08
-7.89527e-09
3.98019e-10
8.77416e-09
-7.05772e-09
-8.31838e-09
6.60194e-09
-7.55005e-11
7.71323e-10
-4.85331e-10
-2.10491e-10
3.46142e-09
-1.24596e-09
5.14265e-10
3.82527e-09
-3.99606e-09
6.65149e-09
-6.48071e-09
6.04927e-09
-7.33228e-09
-8.70914e-09
4.98375e-10
-1.92521e-08
1.92108e-08
9.00287e-10
-9.79551e-10
7.89822e-10
-3.33686e-10
-7.97896e-09
8.13691e-09
2.73701e-09
-2.17949e-09
5.98041e-10
2.4515e-09
2.52807e-10
3.49393e-09
-1.459e-09
-4.53366e-10
-1.62039e-09
2.85191e-09
-2.93876e-09
2.35302e-09
-2.26616e-09
1.54401e-09
1.72314e-11
-3.20317e-09
4.25732e-09
-3.01446e-09
1.96031e-09
4.79716e-10
2.52356e-10
-1.93359e-10
4.20457e-10
7.28067e-09
-8.15537e-09
3.76563e-10
2.87155e-09
1.94597e-09
-1.35611e-09
-3.64276e-10
2.69929e-10
3.17047e-09
-3.07612e-09
-9.8104e-10
7.75572e-10
-1.97402e-09
-7.92161e-09
-5.6745e-10
4.29084e-09
1.15104e-09
-1.1966e-09
-4.24528e-09
5.30836e-10
-2.93487e-09
2.27691e-09
1.27123e-10
4.7021e-10
-3.80077e-10
5.98139e-10
-6.88272e-10
-4.52031e-09
4.70659e-09
4.24574e-10
5.4258e-09
-2.07246e-09
5.66539e-11
6.45127e-09
-1.2705e-09
3.41885e-10
-7.89591e-09
-3.67589e-10
1.87823e-09
2.01975e-09
-3.06463e-09
-8.29676e-09
-1.09434e-09
-1.9746e-09
-1.2575e-08
8.08872e-09
1.34494e-09
4.53886e-10
1.08158e-08
-1.27699e-08
1.37321e-09
-1.29567e-09
3.25252e-09
-2.32112e-09
-6.94634e-09
7.26668e-09
5.50082e-09
-2.64569e-09
1.80711e-10
-5.95106e-09
-4.54115e-09
1.03115e-08
-8.03951e-10
2.4999e-10
-2.03227e-09
1.97478e-09
-1.80606e-08
-1.02258e-09
8.97395e-09
1.40513e-09
-1.42718e-09
1.05663e-08
1.67672e-09
-7.73121e-09
7.44112e-09
8.4555e-10
-3.36916e-09
-8.59576e-09
-1.88802e-11
3.50844e-10
8.2638e-09
7.09964e-10
4.55839e-10
-7.2542e-10
-2.80022e-10
-2.02878e-09
-6.26065e-10
1.82106e-09
-1.79121e-09
2.71353e-09
-8.32703e-10
1.0855e-10
8.43535e-10
-6.94325e-10
-5.44729e-10
-7.65398e-09
-1.5195e-09
1.02249e-09
-3.92421e-10
4.12682e-10
1.6857e-09
-1.01428e-08
7.23467e-10
7.91494e-09
1.50442e-09
9.07983e-09
-4.17105e-09
-9.14284e-09
2.9548e-10
-6.34687e-11
1.95338e-09
-6.89913e-10
-1.4211e-10
4.15887e-10
2.85249e-09
7.43208e-11
-8.92622e-09
-3.80699e-09
1.19819e-08
5.35728e-09
3.69845e-09
1.57057e-10
5.61755e-10
-7.94313e-10
-9.55663e-09
8.44201e-09
9.88878e-09
-6.27798e-09
-2.29678e-09
2.19452e-09
6.38025e-09
9.30018e-09
-9.66169e-10
-6.91168e-10
-2.59644e-12
-1.38938e-10
-7.72807e-09
1.76711e-10
3.77347e-09
2.92427e-11
-4.45264e-09
-5.01047e-09
4.64362e-09
4.81949e-09
8.42874e-09
1.29649e-10
-4.86164e-11
-8.10322e-11
-1.05718e-10
2.58891e-10
-5.9631e-10
-1.13154e-09
6.9114e-10
-7.01325e-09
-2.72338e-09
7.65172e-09
2.08491e-09
-2.59443e-09
4.72536e-09
8.12914e-10
-2.94385e-09
2.29451e-10
-2.59827e-10
2.576e-10
-2.27223e-10
-1.29283e-08
1.05674e-08
2.23695e-10
2.13726e-09
-1.83171e-08
1.82562e-08
8.64992e-10
-4.7581e-10
4.13721e-10
-8.02903e-10
3.07224e-09
-8.87749e-09
-7.12306e-09
1.22444e-09
4.70022e-09
-4.96343e-09
-9.61229e-10
7.51282e-10
-6.73562e-10
-6.00363e-10
5.22643e-10
-6.77849e-09
-4.68739e-09
2.32817e-10
-8.82791e-11
-3.61494e-10
2.45065e-10
5.86639e-10
-6.16434e-10
7.75055e-10
9.14156e-09
-9.50241e-10
8.86253e-09
7.73431e-09
1.1913e-09
-8.09823e-09
-8.27381e-10
-1.40235e-09
3.69062e-09
1.9829e-09
-6.04016e-09
5.10241e-09
-5.09133e-11
1.80562e-10
-2.90625e-09
7.12079e-10
3.03972e-09
3.56365e-10
1.91455e-11
-3.7551e-10
7.10929e-09
-6.96846e-09
3.99075e-09
-4.68392e-10
7.96186e-09
-4.56456e-10
-7.94179e-09
1.79313e-10
-9.87085e-11
-2.60037e-10
1.79433e-10
1.8061e-09
1.16849e-09
-1.03277e-09
-1.35711e-10
-4.86095e-09
5.37145e-09
-5.105e-10
-8.15099e-10
1.12862e-10
3.52128e-09
-2.81904e-09
-7.04128e-11
-1.4344e-09
6.09759e-09
2.21427e-09
2.96688e-10
1.57194e-09
-1.12807e-08
1.001e-09
1.16092e-08
-1.87157e-08
-3.76666e-11
4.63117e-11
-1.33988e-09
5.37978e-09
-5.87945e-09
-4.63728e-10
-1.21053e-10
-7.14329e-09
-1.20676e-09
-6.88375e-09
7.06446e-09
-1.44327e-09
1.35034e-09
2.26758e-10
-1.33832e-10
-8.28376e-09
-3.02233e-09
4.24838e-09
-8.16544e-10
6.18725e-10
9.55451e-09
-4.49647e-09
-3.64478e-10
4.11441e-09
4.48501e-09
-4.77414e-09
-2.94752e-09
2.75369e-10
2.67215e-09
1.0601e-09
-7.63312e-09
1.61836e-09
1.55165e-09
-3.73656e-09
4.11747e-09
-6.139e-09
-9.99577e-10
1.4358e-08
-8.91333e-09