/*--------------------------------*- C++ -*----------------------------------*\
  =========                 |
  \\      /  F ield         | OpenFOAM: The Open Source CFD Toolbox
   \\    /   O peration     | Website:  https://openfoam.org
    \\  /    A nd           | Version:  8
     \\/     M anipulation  |
\*---------------------------------------------------------------------------*/
FoamFile
{
    version     2.0;
    format      ascii;
    class       surfaceScalarField;
    location    "10";
    object      phi;
}
// * * * * * * * * * * * * * * * * * * * * * * * * * * * * * * * * * * * * * //

dimensions      [0 3 -1 0 0 0 0];

internalField   nonuniform List<scalar> 
15173
(
6.68151e-09
-5.88454e-09
-2.19139e-10
-5.77834e-10
5.05849e-09
-1.56414e-10
9.51388e-11
-4.99722e-09
-3.2272e-11
5.22384e-09
-5.17528e-09
-1.62941e-11
8.52777e-09
-4.11147e-10
6.96195e-10
-8.81281e-09
-6.21391e-09
6.52716e-09
-2.58541e-10
-5.47011e-11
7.67303e-10
-9.29354e-09
9.08333e-09
-5.57087e-10
-4.30313e-09
-7.83643e-10
1.14634e-09
3.94043e-09
5.45068e-09
-5.47418e-09
4.13885e-10
-3.9039e-10
-2.03999e-09
2.16657e-09
6.57343e-11
-1.92317e-10
7.07102e-10
-3.33086e-10
4.55923e-09
-4.93324e-09
5.20384e-09
-5.23089e-09
6.82932e-11
-4.12492e-11
6.98408e-09
-7.95106e-11
-2.23057e-10
-2.58463e-09
2.47136e-09
-1.8585e-09
1.97177e-09
5.17744e-09
-5.1457e-09
2.96878e-10
-3.28618e-10
-4.76794e-09
5.03525e-09
4.83527e-11
-3.15654e-10
2.41747e-09
-2.67249e-09
2.55021e-10
5.18123e-09
1.13139e-10
-9.05266e-11
-3.87079e-10
-1.37449e-10
-4.24342e-09
7.96646e-10
-7.22011e-10
-7.46345e-11
-2.87008e-09
-8.80012e-10
1.36969e-09
2.38041e-09
2.07455e-09
-4.80722e-11
-2.1014e-09
7.49245e-11
-3.27981e-09
2.91381e-09
3.18196e-09
-2.81596e-09
-5.21712e-09
4.59077e-11
-5.96713e-11
6.13797e-09
4.36334e-10
-6.35145e-09
-2.22851e-10
7.03629e-09
6.38383e-10
-7.27468e-10
-6.94721e-09
-1.52108e-10
4.92197e-11
-5.51182e-11
1.58007e-10
5.17887e-09
-7.44458e-09
2.81874e-09
-5.53036e-10
-1.96714e-09
3.51067e-09
-2.23964e-09
6.96106e-10
7.99346e-09
-5.99745e-09
4.99381e-10
-2.49539e-09
-2.81654e-10
8.56903e-10
7.95252e-09
-5.98343e-09
-5.09645e-09
7.77118e-09
3.3087e-09
6.01756e-09
4.90258e-10
-8.09203e-11
-6.4269e-09
7.80092e-09
2.68063e-09
-8.86577e-09
-1.61578e-09
8.70457e-10
-1.24012e-09
5.40432e-09
-5.03466e-09
4.86976e-09
1.46524e-10
-4.90322e-09
-1.13061e-10
4.83094e-09
1.44321e-09
-6.29353e-09
1.93862e-11
4.92409e-09
-5.08117e-09
-9.19951e-11
2.49075e-10
-5.20249e-09
-6.92079e-09
3.11259e-09
9.01069e-09
-1.28207e-09
-8.70827e-09
8.31163e-09
1.67871e-09
-6.371e-09
1.80022e-09
-2.74198e-10
4.84498e-09
5.14123e-09
-1.11255e-10
5.27055e-12
5.38307e-09
6.94325e-10
-5.05281e-10
-5.57211e-09
-6.52171e-09
6.48033e-09
-7.70703e-12
4.90904e-11
5.00767e-09
1.05718e-11
4.02454e-11
-1.84315e-09
1.95423e-10
-3.92259e-10
-3.60336e-09
1.80351e-10
-2.98614e-10
3.72162e-09
-1.31762e-10
9.2076e-11
2.74794e-09
1.65978e-10
-3.73956e-09
8.25642e-10
-5.69629e-09
-6.62906e-11
5.73031e-09
-1.15411e-10
2.98366e-10
-2.70571e-10
8.76157e-11
-1.69143e-09
-2.56397e-09
1.67077e-09
4.92524e-09
1.30575e-10
-4.81446e-11
6.29011e-09
2.94929e-10
-5.94175e-09
-6.43292e-10
6.68709e-10
-5.80474e-09
5.98114e-09
-8.45108e-10
-8.68906e-09
2.20441e-09
6.71622e-09
-2.31572e-10
8.00464e-10
-7.27535e-10
5.61723e-11
-1.29101e-10
-8.45271e-10
7.16876e-10
-2.92378e-09
3.05217e-09
5.21915e-10
-5.41834e-09
8.68691e-10
4.02773e-09
-6.41039e-09
6.52685e-09
-1.99813e-10
8.33488e-11
-1.69661e-09
-7.47933e-10
1.82845e-09
6.16092e-10
6.39942e-09
-6.45917e-09
-3.36367e-11
9.33856e-11
-7.14592e-09
6.31057e-09
3.5195e-09
-2.68415e-09
-1.91648e-09
3.70337e-09
-3.6634e-09
1.87652e-09
3.67991e-09
5.00192e-09
-1.57975e-09
-7.10208e-09
-7.49719e-09
1.44753e-10
4.62608e-10
6.88983e-09
2.80689e-11
7.1637e-09
-6.70807e-11
-7.12469e-09
6.49059e-09
-6.47935e-09
1.68336e-11
-1.04276e-10
-5.94784e-10
8.226e-11
6.168e-10
2.00777e-09
-6.13196e-10
-5.69771e-09
7.52149e-11
-4.53674e-11
6.36958e-09
2.69514e-09
-2.62344e-09
-2.40537e-09
2.33366e-09
5.23427e-09
-2.02106e-10
-5.173e-09
1.40836e-10
-3.3779e-10
1.24711e-09
7.27662e-09
-8.18594e-09
-1.68304e-09
8.89836e-10
-9.0341e-10
2.67924e-09
2.07782e-09
-2.06192e-09
-3.66357e-09
3.62738e-09
3.6192e-11
2.51865e-12
-1.59347e-11
-6.50829e-09
-4.94622e-11
7.06143e-11
-1.41099e-10
-5.59972e-09
6.54149e-10
5.08667e-09
-2.20353e-09
4.22907e-09
7.33115e-09
-3.50399e-09
-3.47343e-09
4.4136e-09
2.56382e-09
-7.15172e-09
7.37898e-09
-3.30273e-10
1.03013e-10
-1.00505e-09
9.03799e-10
-5.04445e-09
-3.60177e-09
4.52228e-09
3.5316e-09
-4.4521e-09
4.21046e-09
-3.86726e-09
-3.43204e-10
5.067e-09
-1.23309e-10
-3.69468e-09
-1.24901e-09
2.10438e-09
3.89319e-09
-3.90884e-09
-2.08872e-09
-6.33752e-09
6.36117e-09
-2.92703e-11
5.6208e-12
-5.25258e-09
2.9412e-09
-2.64801e-09
4.95939e-09
1.85794e-09
-3.42347e-09
-5.6852e-10
2.13404e-09
1.69816e-09
6.3345e-11
3.13047e-10
-4.96764e-09
4.98481e-09
1.89303e-11
-3.60987e-11
6.94616e-11
4.84824e-10
-8.63422e-11
-4.67943e-10
-6.44317e-09
-5.36455e-09
5.82428e-09
1.34195e-09
4.44216e-09
-4.16725e-09
-1.61686e-09
-4.9962e-09
2.4318e-09
-4.69269e-09
7.25709e-09
-1.84753e-10
6.34138e-10
-4.87433e-10
3.80484e-11
3.34138e-09
-5.38915e-09
-3.13306e-09
5.18083e-09
-3.2077e-09
3.32768e-09
2.42979e-09
-2.54977e-09
2.44965e-11
-3.68807e-09
6.65216e-09
1.35454e-09
-1.73125e-09
-6.27544e-09
6.47404e-09
-3.41665e-09
-4.17246e-09
1.11507e-09
4.82169e-09
1.64991e-09
-2.14774e-09
-4.32386e-09
7.96983e-09
8.50938e-10
-7.34444e-09
-1.47633e-09
3.11608e-09
2.70791e-10
-6.87822e-10
-2.69905e-09
7.6232e-09
-7.96099e-09
-4.22832e-10
6.87555e-11
4.23538e-10
-2.59624e-09
-2.60066e-09
2.57346e-09
5.63617e-09
-4.8513e-09
-4.68412e-09
3.89925e-09
-4.70983e-09
4.60252e-09
1.97884e-10
-9.05818e-11
5.7711e-09
-5.51407e-09
5.00152e-09
-5.25855e-09
-1.8961e-09
1.68703e-09
4.83486e-09
-4.62579e-09
-7.39732e-09
-2.64272e-09
2.89412e-09
5.38387e-09
-9.04654e-11
7.94259e-12
-5.30135e-09
2.8656e-09
-3.8837e-10
1.30756e-09
-3.78479e-09
6.80788e-09
6.55936e-11
-1.48343e-10
-6.72513e-09
-5.7255e-09
-2.70122e-09
3.17414e-09
-6.97965e-09
5.88762e-11
6.96081e-09
-4.00349e-11
-1.31775e-10
9.95136e-10
2.25272e-09
-4.87885e-09
4.90931e-09
3.3183e-11
-6.36397e-11
-7.71004e-10
-5.50818e-09
6.52698e-11
-6.62518e-09
-6.10095e-10
8.18377e-10
6.41689e-09
1.86642e-10
5.34042e-09
-4.3523e-10
-5.09183e-09
2.98514e-10
5.8686e-09
-6.02176e-09
-1.45357e-10
3.93462e-09
-3.47721e-09
-1.66574e-09
1.20832e-09
-3.16586e-09
2.27333e-11
2.29786e-09
-5.52489e-09
-3.5166e-10
4.96968e-09
9.0687e-10
-7.20554e-10
8.06901e-10
-4.16139e-09
4.07504e-09
-1.4292e-09
6.09291e-10
-4.13874e-09
4.95864e-09
1.15541e-09
-8.98373e-09
8.59562e-09
-4.94432e-09
3.44423e-11
-5.77634e-11
3.27416e-09
-2.52082e-09
1.80653e-09
-2.55986e-09
1.68701e-09
-1.12094e-09
-3.61978e-09
3.05371e-09
-6.31014e-09
-8.62719e-10
6.40186e-09
-4.92983e-09
-2.04292e-10
5.09831e-11
5.08314e-09
4.76658e-09
2.64227e-10
-1.06711e-10
9.41393e-09
9.22453e-10
-9.02616e-09
-1.31023e-09
-2.19091e-09
-3.88679e-09
4.23775e-09
1.83994e-09
1.07962e-10
-4.79032e-11
-6.34738e-09
4.77221e-12
5.09434e-12
3.14339e-09
2.85473e-09
-2.0635e-09
-5.26029e-10
4.8283e-10
-4.8905e-09
4.9337e-09
-4.7613e-09
3.73384e-09
-3.72581e-10
1.40004e-09
1.12353e-08
-6.7106e-09
-7.35144e-09
2.8267e-09
-6.3704e-11
5.24953e-10
2.35753e-11
7.48646e-09
-2.35329e-09
1.77058e-09
-6.90374e-09
1.28271e-09
5.28892e-09
-1.18856e-09
-4.73671e-09
-3.06681e-10
1.13558e-10
5.96093e-09
-5.55141e-09
2.28263e-09
-2.69215e-09
-4.36693e-09
-8.62753e-10
4.50913e-09
5.80479e-09
-6.95149e-09
-1.30998e-10
1.27769e-09
-3.31736e-09
-3.17999e-09
2.7589e-09
3.73844e-09
5.01991e-09
-2.75795e-09
-3.39177e-09
1.12981e-09
-4.7747e-09
4.8096e-09
3.52548e-11
-7.01558e-11
6.45434e-09
-1.04323e-11
-3.7223e-12
-6.44019e-09
-4.67836e-09
4.67683e-09
-1.89708e-11
2.05019e-11
9.89178e-10
-1.76144e-09
-2.24031e-09
3.01257e-09
-5.10083e-10
2.52825e-09
1.25599e-09
-5.23143e-09
5.22235e-09
-2.48266e-11
3.39066e-11
-5.35704e-09
5.54907e-09
-2.42638e-10
5.0605e-11
-1.12986e-09
3.80819e-09
-5.97869e-10
-2.08046e-09
-4.73197e-09
4.71371e-09
-2.82469e-11
4.65088e-11
1.93191e-09
7.15814e-09
-7.44407e-09
-1.64599e-09
-4.80338e-09
4.77674e-09
-3.28285e-11
5.94703e-11
-5.1843e-09
5.14497e-09
-3.27178e-11
7.20426e-11
5.39811e-09
2.85071e-10
-2.32499e-10
4.1169e-09
-4.1773e-09
-3.54137e-09
1.71615e-09
-2.34184e-09
-1.08129e-08
5.16681e-10
-5.74627e-09
-3.88125e-10
5.61771e-09
-4.86392e-09
4.84665e-09
-2.81633e-11
4.54387e-11
-5.35632e-09
5.31825e-09
1.91822e-10
-1.53753e-10
-5.08039e-09
5.04867e-09
-3.11228e-11
6.28414e-11
-4.90516e-09
4.89277e-09
-2.42654e-11
3.66554e-11
2.85487e-09
-4.05989e-09
2.16558e-09
-9.60561e-10
-4.98323e-09
4.95939e-09
-3.05842e-11
5.44246e-11
-1.23528e-09
2.8454e-09
-2.73998e-09
-2.02006e-10
-4.16705e-09
4.36906e-09
-2.16792e-09
6.68905e-10
-6.05718e-10
2.10473e-09
-1.64833e-11
3.63226e-09
-3.61577e-09
-5.84052e-11
-3.08537e-11
7.07334e-09
-1.66612e-10
4.37707e-09
3.36382e-09
2.89556e-09
-3.03952e-09
-3.21986e-09
-1.85328e-09
9.08762e-10
-9.81773e-10
1.92629e-09
1.02193e-11
-1.78089e-11
-4.66755e-09
5.41365e-11
-1.48479e-10
4.76189e-09
3.12352e-09
-2.67913e-09
1.66601e-09
-2.1104e-09
-4.04264e-10
7.10148e-11
-8.95829e-11
-5.58414e-09
4.28337e-09
-5.95337e-10
3.44317e-09
-3.42303e-09
-2.01343e-11
-3.7183e-09
3.83491e-09
1.74133e-09
5.20858e-09
4.71165e-11
-2.14214e-11
-1.8602e-10
-2.63304e-09
2.81906e-09
8.4811e-09
-5.42521e-09
-3.49599e-09
4.40101e-10
1.85774e-09
2.15227e-10
-3.30824e-09
-3.23248e-11
2.05347e-10
5.01912e-09
-5.19214e-09
-1.01583e-09
1.08842e-09
9.85049e-10
-1.05763e-09
-3.15723e-11
2.53154e-10
-2.46699e-11
-1.96912e-10
-1.10143e-09
-3.3813e-09
1.61265e-09
-6.33987e-09
-3.79405e-12
-3.7237e-12
-4.55884e-09
-3.92983e-10
2.15116e-10
4.82408e-09
-7.97067e-11
1.80874e-10
2.81753e-11
-7.73941e-11
6.2403e-11
-2.69554e-11
4.94936e-09
-2.19867e-10
2.03628e-10
-6.53629e-09
6.55252e-09
-6.94575e-11
-4.47207e-09
4.54153e-09
-8.85867e-10
8.68671e-10
-9.98639e-10
6.79655e-09
-4.02327e-10
1.32626e-10
6.32642e-10
-1.16762e-10
-1.88055e-09
1.36467e-09
7.54696e-11
1.64068e-10
-6.39183e-11
-1.75619e-10
-4.83871e-09
2.62445e-11
-6.63862e-11
2.69227e-09
-2.44771e-09
-5.85469e-09
5.61013e-09
2.02457e-10
-8.82085e-11
1.90373e-09
-1.59738e-09
-3.06352e-10
-1.58883e-09
9.40564e-10
7.68456e-09
-6.37539e-09
-5.26992e-11
6.41161e-09
-5.16213e-10
3.02484e-10
-4.34511e-09
-1.306e-09
1.81533e-09
-5.27063e-09
-6.45661e-09
6.38796e-09
-1.51216e-10
1.27667e-11
1.39027e-11
-2.66694e-11
-6.47291e-09
7.11821e-10
6.4298e-09
-5.08474e-09
1.45815e-09
2.86154e-09
7.65047e-10
5.11965e-09
5.12388e-10
-4.11932e-09
-1.51272e-09
6.39924e-09
3.5943e-09
-5.20997e-09
5.59727e-11
-3.02996e-11
3.4437e-09
5.78002e-09
-5.64087e-09
-3.58285e-09
-6.22599e-09
-5.64937e-09
5.43219e-09
-7.50177e-09
1.64628e-09
-1.50233e-09
7.35783e-09
1.41684e-11
6.50092e-09
4.05764e-11
-2.81949e-11
3.55276e-09
5.3594e-09
-2.60159e-09
3.92798e-09
-1.15e-10
-4.24803e-09
4.35048e-10
6.5666e-11
-1.22078e-10
-3.47851e-10
-1.94577e-10
2.18739e-11
-4.65893e-11
2.19292e-10
1.54629e-10
-5.7072e-09
5.70254e-09
-1.49967e-10
3.29217e-09
-3.01164e-09
3.26501e-09
-3.54554e-09
-6.3523e-09
-6.46219e-11
4.15296e-11
-5.42743e-09
-7.39123e-10
5.64361e-09
5.22946e-10
1.62507e-09
-4.65738e-09
-1.83879e-09
4.87109e-09
-1.02291e-11
6.4682e-12
6.4581e-09
8.25631e-09
-7.07482e-09
-3.00702e-10
-8.80789e-10
6.18416e-09
-6.09203e-09
1.11504e-10
4.51982e-09
-4.65609e-09
-5.62672e-11
1.9254e-10
2.33061e-10
6.42195e-09
-4.70853e-10
-4.35568e-09
-6.70403e-11
8.21267e-11
4.34059e-09
-4.47986e-09
2.05139e-09
3.88064e-09
-1.45217e-09
3.65004e-09
-1.77783e-11
-9.39372e-09
-4.53988e-11
8.75448e-09
6.84636e-10
-5.98662e-09
-4.46503e-09
5.24916e-09
-4.41865e-09
4.01551e-11
4.37951e-09
-1.01423e-12
-2.46317e-10
5.43282e-09
-5.31261e-09
1.26106e-10
1.53039e-09
7.14176e-09
-8.68405e-09
1.19025e-11
1.70489e-10
-1.47477e-10
1.941e-11
-4.24224e-11
-2.99952e-11
3.47316e-09
6.30644e-09
-6.2886e-09
-5.63418e-11
3.85087e-11
-3.3422e-09
1.3223e-10
3.20997e-09
6.53275e-09
-5.50208e-10
3.48043e-10
-6.33059e-09
4.28841e-09
-2.48909e-09
-3.99023e-09
2.88074e-11
-7.46668e-11
1.17931e-08
3.7293e-10
-4.19622e-09
4.75456e-09
-3.36396e-09
1.52726e-09
-2.91786e-09
5.98308e-09
1.22835e-09
-1.47954e-09
-5.73189e-09
-3.35687e-09
3.00166e-09
1.40074e-09
-1.04553e-09
-4.36406e-10
-6.71964e-09
3.43555e-10
6.81249e-09
-6.19603e-09
6.21744e-09
-5.43234e-11
3.29092e-11
6.59015e-09
-1.78671e-11
1.13378e-10
-6.68566e-09
-6.47837e-09
1.63503e-10
6.79924e-09
-4.84378e-10
8.08155e-10
-8.95781e-10
-7.9824e-10
-5.11422e-09
6.50835e-11
-3.12544e-11
-4.46357e-11
2.05486e-11
-4.54347e-09
1.18481e-09
4.98373e-09
-3.19263e-09
-2.81243e-09
3.74126e-09
2.2638e-09
-1.87601e-10
2.08962e-10
-2.136e-11
2.76398e-09
-2.65879e-09
-2.70143e-09
-1.88105e-09
-5.60039e-09
9.79319e-10
6.50213e-09
-6.11951e-09
6.14058e-09
-3.88642e-11
1.77984e-11
2.96221e-09
-5.11817e-09
4.26033e-09
4.57987e-11
-6.52497e-09
6.50739e-09
-2.82184e-11
-5.72803e-09
1.4069e-10
5.74197e-09
-1.96814e-09
-3.5611e-09
1.5553e-09
3.97394e-09
2.91508e-09
-2.9474e-09
6.71321e-09
-6.70805e-09
-8.86206e-12
3.70844e-12
-6.25783e-09
-6.24026e-11
3.16288e-11
-6.70917e-11
3.20808e-11
1.43871e-09
-4.28497e-09
-2.23847e-09
-1.96474e-09
4.21986e-09
-1.27722e-09
1.27373e-09
1.09191e-09
-1.75096e-09
1.98922e-09
-3.20976e-09
2.9715e-09
3.04969e-12
-2.40503e-10
-5.76861e-09
6.00606e-09
-6.70768e-09
1.56484e-10
-1.47683e-10
6.69888e-09
-4.7247e-09
3.83002e-11
-8.83e-11
-1.25561e-10
1.83953e-11
-4.03114e-11
-5.24134e-09
5.41768e-09
2.47106e-09
-2.6474e-09
-2.48551e-09
-8.36662e-09
5.42692e-09
5.46979e-09
5.75623e-10
-2.40625e-10
4.2294e-09
-3.30206e-09
-1.54415e-09
6.16803e-10
3.81529e-10
5.59777e-09
-2.81938e-09
-3.15991e-09
-4.2005e-09
-3.97894e-11
3.46303e-11
4.20566e-09
-7.92679e-09
4.59987e-09
-3.84322e-09
7.17014e-09
2.44644e-09
-2.63023e-09
-4.86254e-09
5.04633e-09
6.04308e-09
-3.85513e-12
-6.05961e-09
2.03844e-11
-2.32976e-09
1.96079e-09
2.4941e-10
3.74742e-09
3.08501e-11
-4.02768e-09
1.14127e-10
4.39991e-09
5.78346e-12
-7.71016e-12
-5.95684e-09
5.95338e-09
1.1172e-11
2.24993e-09
-3.36267e-09
1.66021e-09
-5.47474e-10
1.74716e-10
-4.0071e-09
4.27825e-09
-4.45861e-10
1.75746e-11
-3.89277e-11
-1.04208e-10
4.97292e-09
5.63878e-10
-1.08293e-09
-4.45386e-09
3.09211e-09
-2.67208e-09
-3.21078e-09
2.79075e-09
-5.01389e-09
5.0332e-10
4.18751e-09
3.23058e-10
2.77961e-09
-1.46923e-09
1.09427e-09
-2.40465e-09
-4.64834e-09
5.25599e-09
2.52047e-09
-6.46507e-09
-1.78091e-09
-1.46426e-09
2.2814e-09
2.9532e-09
-3.77034e-09
-2.29662e-09
-7.48297e-10
8.76997e-10
2.45607e-09
-2.84025e-09
-2.30714e-09
2.69133e-09
6.64039e-11
-3.56484e-11
2.90144e-09
-2.71479e-09
-2.42308e-09
-4.81777e-09
3.24038e-09
4.00047e-09
3.32338e-09
-3.30119e-09
-2.21894e-11
6.06463e-10
2.29184e-09
-1.76479e-09
-1.13351e-09
-2.03748e-09
5.94078e-10
2.04987e-09
-5.01629e-09
6.14413e-11
-2.8385e-11
-6.16689e-09
-5.62559e-11
2.7122e-11
2.93327e-09
2.28825e-10
-2.44522e-09
4.13876e-09
7.32577e-10
-4.04656e-09
-8.24771e-10
-3.94532e-10
7.39627e-10
-3.45095e-10
-1.41118e-09
-2.75777e-09
2.57255e-09
1.5964e-09
-5.3593e-09
4.70042e-09
7.10567e-10
-5.16909e-11
1.86909e-10
1.57931e-09
-7.64804e-12
-1.75857e-09
-7.7406e-11
-2.97448e-09
3.05189e-09
2.59709e-11
-6.63584e-11
6.19387e-09
8.83256e-10
-2.12005e-10
-6.86512e-09
5.63506e-09
-6.68701e-09
4.32596e-09
-3.27401e-09
-1.48272e-09
4.82768e-09
-5.22601e-09
-1.37595e-09
-4.02327e-09
1.68092e-09
5.95794e-09
-7.47307e-10
-5.38595e-09
1.75312e-10
4.01498e-09
8.77472e-11
-6.50471e-12
-4.09622e-09
-1.08138e-09
1.11474e-09
-5.92294e-09
5.88958e-09
-1.40802e-09
-3.56557e-09
1.61672e-09
-3.3496e-09
1.49159e-09
3.13244e-09
-1.27443e-09
-4.1597e-11
-5.96014e-09
5.98742e-09
1.43127e-11
-3.78304e-10
1.44279e-09
-2.25388e-09
1.1894e-09
1.78564e-10
5.38635e-09
-5.00703e-09
-5.57885e-10
-3.68346e-09
1.93726e-09
-2.14059e-09
2.79342e-09
7.13538e-09
-3.33994e-09
-6.58886e-09
2.30848e-09
4.91891e-09
-2.10412e-09
-5.12327e-09
-4.08773e-09
6.16029e-09
1.62247e-09
-3.69503e-09
-2.20942e-09
2.32477e-09
2.97675e-09
6.94227e-09
-1.39666e-09
-6.95604e-09
1.41043e-09
-7.21119e-09
7.3263e-09
-2.04769e-09
1.93258e-09
6.49574e-09
-6.46956e-09
-3.38909e-11
-1.89484e-09
1.67479e-09
4.06962e-10
-2.64608e-09
2.54393e-09
-1.58929e-09
1.18871e-10
3.32137e-09
-3.44024e-09
-1.9243e-10
2.11702e-10
-8.66281e-10
8.4701e-10
5.18716e-09
-4.08357e-09
-1.88724e-09
1.46068e-09
4.07956e-09
-5.36553e-09
-6.04239e-09
5.77209e-09
1.23414e-09
-9.63832e-10
-6.04083e-11
3.12975e-11
-2.60901e-12
-1.48011e-09
-6.10276e-09
-3.13244e-11
1.45674e-11
2.20907e-09
-9.3995e-09
-3.11335e-10
1.42485e-09
-5.25738e-10
-8.99109e-10
-2.20561e-09
6.91976e-09
3.24216e-10
-5.03836e-09
2.86124e-09
3.94555e-09
-3.14287e-09
3.21744e-09
-7.45633e-11
-1.63586e-09
-8.20044e-09
7.14447e-09
2.69183e-09
2.48646e-09
-2.6701e-09
3.21115e-09
-3.02751e-09
-3.32691e-09
-6.34901e-12
3.33326e-09
1.02971e-09
3.79797e-09
1.2927e-09
5.95668e-10
-1.88837e-09
-6.16572e-11
6.35115e-09
-9.05623e-10
-8.44584e-10
-7.7988e-09
7.27434e-09
1.36904e-09
4.92219e-11
-5.68024e-09
-3.11461e-11
5.66217e-09
2.13489e-09
-1.29845e-09
-8.36439e-10
-4.92628e-09
4.24354e-11
-2.1315e-11
4.5755e-09
-4.56307e-09
1.44012e-11
-2.68317e-11
-2.22912e-10
-5.91538e-09
4.74562e-10
5.66373e-09
8.45045e-09
-1.2973e-09
-5.11223e-09
5.20543e-09
-1.42468e-10
4.92696e-11
-3.1395e-09
-1.62792e-09
3.88741e-09
-2.72909e-09
7.21118e-11
2.65698e-09
2.24979e-09
-3.16771e-09
4.20809e-09
-3.29017e-09
7.50966e-09
1.37829e-10
2.34904e-09
3.98566e-09
-3.27901e-09
-3.0557e-09
5.13675e-09
-5.28162e-09
-7.80436e-11
3.96773e-10
-1.05833e-09
1.47549e-09
-8.13933e-10
-2.31203e-09
-1.34082e-09
7.57583e-10
2.89527e-09
4.56227e-09
-3.92389e-09
3.61356e-11
-1.28188e-10
4.89869e-10
-2.47481e-09
-7.05694e-10
2.69064e-09
1.29856e-10
2.42224e-09
-1.56292e-09
3.79244e-11
-9.43012e-11
1.86047e-10
-1.2967e-10
-3.30471e-09
3.68636e-09
-4.04956e-09
3.66791e-09
5.94176e-09
-1.78238e-11
-1.08463e-12
-5.92285e-09
-7.30736e-11
8.9799e-11
-1.67254e-11
-2.02445e-09
7.64416e-09
-7.8729e-09
2.25319e-09
-2.25922e-09
2.4228e-09
4.63992e-09
-4.8035e-09
5.72686e-11
5.72762e-09
-5.73567e-09
3.2417e-10
5.283e-09
-1.37372e-10
-2.37454e-10
-2.07537e-09
1.93452e-09
-1.4503e-11
5.20626e-12
2.00013e-10
-1.90717e-10
8.22344e-11
-8.10452e-09
1.06006e-10
-3.24888e-09
2.59678e-11
5.94347e-09
1.27571e-11
-5.9822e-09
6.08139e-09
-2.63194e-11
1.5254e-11
-6.07032e-09
-1.50687e-10
-6.93975e-09
6.9267e-09
1.63736e-10
-2.03627e-09
6.07169e-10
-6.08378e-10
-3.15896e-09
1.61967e-09
-3.82001e-09
-2.22061e-09
8.42053e-09
-8.77634e-09
2.57642e-09
-5.99088e-09
6.64531e-12
6.03003e-09
-1.65335e-09
2.55274e-10
2.49631e-09
-4.1665e-09
6.96215e-11
1.60057e-09
6.42929e-09
-2.11688e-09
-3.94375e-09
-3.68661e-10
-1.19339e-09
-3.64155e-09
1.35774e-09
-4.73725e-11
1.50154e-11
6.47897e-11
-3.24326e-11
-1.11024e-10
6.87328e-09
-6.91294e-09
2.34764e-11
-4.97908e-11
6.01972e-11
-2.78132e-11
2.18921e-10
-5.05086e-09
1.11282e-09
3.71912e-09
9.27685e-10
-2.08168e-09
-3.85989e-09
-1.5261e-12
2.77079e-12
-2.03667e-10
2.02422e-10
-1.71299e-09
-6.51316e-09
2.18376e-09
-4.81332e-10
-1.26691e-09
-1.50568e-09
-1.63828e-09
-3.95024e-10
2.35409e-09
1.04259e-09
-6.58991e-09
7.00348e-09
-1.47948e-10
-2.65623e-10
-3.16652e-09
7.92619e-10
4.19401e-09
-1.82011e-09
-3.00214e-09
-7.04811e-10
4.20159e-09
-4.94639e-10
-1.30158e-10
7.36254e-11
8.56997e-10
1.2012e-10
-8.75502e-10
4.62344e-11
7.09147e-10
-6.49772e-09
6.51485e-09
-5.87257e-11
3.38569e-10
-3.01518e-10
2.74566e-11
-6.45077e-11
-3.85835e-09
-6.49341e-09
1.62213e-09
8.72963e-09
-3.61972e-09
-5.78e-09
6.09971e-09
3.30001e-09
2.91023e-09
2.11341e-10
-2.6317e-09
3.77511e-09
-2.34953e-09
1.31767e-09
-2.74326e-09
-5.84585e-09
2.04198e-11
-6.18866e-11
5.88732e-09
6.44815e-10
-7.01191e-10
1.76497e-10
-5.34635e-09
1.5261e-09
-2.02892e-10
4.02314e-09
1.20313e-09
-2.92571e-09
-7.44328e-10
2.46691e-09
-4.60811e-09
-6.22052e-09
6.7409e-09
-1.54796e-09
3.25535e-10
3.08491e-09
-1.86249e-09
3.27023e-10
-6.48156e-09
6.26054e-09
2.60235e-09
7.16182e-09
-8.0318e-09
-1.73237e-09
3.47808e-09
-4.98385e-10
-4.64283e-11
-6.50539e-10
2.33204e-09
4.45647e-09
2.63591e-09
-1.21765e-09
4.67584e-09
-6.0941e-09
-6.85162e-09
6.73626e-09
2.02652e-10
-8.729e-11
-5.6183e-09
5.62187e-09
2.67388e-11
-3.03095e-11
-1.82247e-10
2.24039e-10
2.83174e-10
-7.60067e-09
-8.3018e-09
2.97736e-09
9.51095e-10
-2.38582e-09
-1.7318e-09
5.22214e-09
-1.94685e-10
9.49081e-11
-5.12236e-09
3.81815e-09
-4.15296e-09
5.61691e-09
-5.2821e-09
-3.06191e-09
2.38133e-09
-2.14036e-09
2.82094e-09
5.76102e-09
2.49732e-09
-4.66894e-09
-3.5894e-09
-1.93285e-10
8.50426e-10
-8.49572e-10
-3.50235e-09
-3.64195e-09
3.53585e-09
3.60846e-09
6.39738e-10
3.43046e-09
-1.18026e-09
4.69207e-09
6.0099e-09
4.44922e-09
-5.28025e-09
-3.79105e-09
-3.35382e-09
3.64252e-09
1.34881e-08
-4.98096e-09
-5.71376e-09
2.63938e-09
-3.0129e-09
-3.53705e-09
3.91057e-09
-3.74017e-09
4.3441e-09
-2.67217e-09
2.06824e-09
-5.31264e-11
1.37195e-10
3.29854e-11
-1.17054e-10
-4.26907e-09
3.73417e-09
-3.66734e-09
4.20225e-09
-2.79119e-09
2.87957e-09
-8.83857e-11
-5.6173e-09
5.63601e-09
1.91601e-11
-3.7868e-11
1.34833e-09
4.60183e-10
-6.4977e-10
-1.15874e-09
9.07377e-11
-6.64243e-10
-1.5403e-10
3.83778e-09
-1.08564e-09
8.66488e-10
-3.61863e-09
-5.65412e-09
-6.52332e-11
5.46636e-09
2.52991e-10
-1.67049e-09
2.48545e-09
5.61433e-09
3.74018e-10
-3.22523e-10
6.67476e-10
-7.18971e-10
3.21624e-10
-1.1528e-11
3.61789e-09
-1.09106e-10
-4.67784e-09
6.22539e-11
4.19168e-10
7.34432e-09
-5.55442e-09
1.60114e-09
4.07587e-09
-3.7123e-09
-1.96472e-09
1.28947e-11
-1.5082e-09
-3.74603e-09
1.70741e-09
-2.09739e-09
-7.52059e-10
1.14203e-09
-4.11247e-09
3.81234e-09
-3.96894e-09
-4.14945e-09
4.44124e-09
3.97905e-09
-4.27085e-09
-1.59596e-11
-3.3516e-09
3.36756e-09
6.15076e-09
-2.50662e-09
2.77598e-09
-5.95172e-09
-7.57438e-10
3.93318e-09
4.57719e-09
2.13655e-11
3.07695e-13
-4.59887e-09
-5.9103e-11
4.78941e-09
-4.76288e-09
3.25798e-11
-8.67391e-10
1.02292e-09
5.97859e-09
-6.13412e-09
2.46555e-10
8.80342e-10
-9.15196e-10
4.82317e-10
2.61699e-09
-1.05465e-09
1.40266e-09
-2.96501e-09
-1.5375e-09
6.91419e-09
-6.98461e-09
1.60792e-09
-6.89733e-10
-9.19905e-09
-8.36384e-10
-4.73602e-09
2.57267e-09
2.7875e-09
-2.5669e-09
2.44518e-09
-2.66578e-09
-5.64277e-12
1.17261e-11
-1.53083e-10
1.47e-10
2.16922e-10
-1.06441e-10
1.53698e-09
4.17985e-10
-6.06635e-10
5.6287e-09
-5.64556e-09
-2.96027e-11
4.64697e-11
4.8571e-09
-4.83567e-09
2.11346e-09
5.12097e-09
-6.26488e-11
1.50255e-10
-5.68485e-09
-4.469e-11
4.92953e-11
-2.81856e-11
3.85856e-11
2.40019e-09
5.818e-11
-5.29078e-11
-2.40546e-09
3.52116e-09
-1.91626e-09
-1.6049e-09
2.95446e-09
-2.39058e-09
2.00422e-09
-2.04588e-09
7.10568e-10
-7.08042e-09
-1.37378e-09
7.52756e-09
9.2664e-10
-4.07264e-11
-5.83435e-09
2.92211e-11
3.35268e-09
-2.9305e-11
-5.18047e-09
-1.25917e-09
2.10346e-09
4.33617e-09
-3.30094e-09
-5.8753e-11
4.75865e-10
4.28331e-09
-5.82771e-09
2.76284e-09
3.06487e-09
7.55512e-11
3.25934e-09
-1.81835e-09
-1.51654e-09
6.3671e-09
5.83003e-09
-8.67763e-09
2.35876e-09
5.12978e-09
-1.85238e-09
-4.49357e-09
-7.4698e-10
4.71452e-09
-7.71764e-09
6.49491e-09
1.12988e-11
-3.26709e-11
-1.41025e-09
-3.6276e-09
3.66637e-09
1.37149e-09
4.12929e-09
-5.57572e-09
-2.6255e-11
5.86046e-09
4.93296e-11
-5.88353e-09
1.85791e-09
-3.28563e-09
-1.63419e-09
-4.27765e-09
3.80976e-09
2.60489e-09
-2.13701e-09
-4.88377e-09
4.99997e-09
-1.83235e-09
1.71616e-09
1.29765e-10
-7.32357e-11
-1.10525e-10
5.39954e-11
9.66459e-10
-7.85726e-10
-4.53441e-09
1.54519e-10
-3.87548e-11
-1.18719e-09
4.04113e-10
1.24326e-09
-4.06252e-09
2.87748e-09
4.14724e-09
3.93096e-10
8.4392e-10
-1.63155e-09
-1.82377e-09
2.13801e-09
-3.14235e-10
-6.57929e-10
3.48121e-12
-2.21054e-10
5.78038e-09
4.73327e-11
-5.80857e-09
-1.91442e-11
-2.98326e-09
3.14938e-09
-2.29002e-09
2.12391e-09
5.01354e-09
1.86542e-10
-7.91056e-11
6.5156e-10
2.57319e-09
-1.5266e-09
-2.25109e-11
5.7564e-09
4.64981e-11
-1.87667e-10
-4.43197e-09
1.84109e-10
-2.78274e-10
4.52613e-09
-3.94109e-09
-2.47333e-09
9.19519e-10
5.4949e-09
7.15631e-09
-7.45474e-10
4.47317e-09
2.1898e-10
1.08808e-10
-4.80095e-09
1.388e-11
7.28105e-09
-7.20049e-09
-9.44471e-11
5.51197e-11
-2.20063e-11
-6.98647e-10
2.5209e-09
-2.29412e-09
4.71873e-10
-5.94009e-09
5.986e-09
2.63036e-11
-7.22147e-11
3.7471e-09
5.34186e-09
-4.8054e-09
-4.28356e-09
3.80664e-11
-3.29478e-09
3.27343e-09
-1.67199e-11
-3.42881e-09
2.39255e-09
-1.96587e-09
-9.35896e-11
1.617e-10
5.9709e-10
-5.75636e-09
4.90328e-10
2.25536e-09
-3.22634e-09
1.7106e-09
7.42932e-10
-6.88068e-10
3.36337e-10
-3.912e-10
-5.74216e-09
3.59122e-10
5.0916e-09
-3.81577e-09
5.49984e-11
-6.40858e-09
6.40091e-09
-5.74992e-09
5.86788e-09
-2.3324e-10
1.15278e-10
-9.36857e-11
5.00122e-09
2.29219e-10
7.98839e-09
-8.40275e-09
1.89036e-10
2.25326e-10
-5.64814e-09
-3.37415e-11
3.63188e-11
-3.4059e-11
2.03844e-10
2.23041e-09
-1.89221e-09
-6.96346e-09
3.18672e-09
-3.16877e-09
-1.79444e-11
-3.19599e-09
3.25771e-09
-3.22068e-09
-6.00829e-09
6.01355e-09
-2.63702e-12
-2.61888e-12
2.31293e-09
4.31631e-09
-3.30127e-09
-3.32797e-09
-5.45204e-09
9.10856e-11
-1.52519e-10
5.51347e-09
-5.3958e-09
-2.77151e-09
-3.47913e-10
8.51522e-09
4.97172e-09
-8.16132e-10
-4.15558e-09
4.32831e-10
-3.77503e-09
-5.73365e-09
4.14115e-10
2.36472e-09
-4.1638e-09
-1.18256e-09
2.98165e-09
-8.89349e-09
-1.62892e-09
1.04593e-09
-6.85766e-09
-3.00621e-09
8.81794e-09
2.7809e-09
-6.19285e-10
-2.0854e-09
-7.62106e-11
7.00931e-09
-1.52071e-09
2.05478e-09
-7.54338e-09
2.85954e-10
-6.61262e-09
-9.2235e-09
6.70132e-09
3.96547e-09
-1.4433e-09
-9.76178e-10
2.74232e-10
9.48501e-10
-2.46563e-09
-7.16161e-09
2.22992e-09
3.33311e-09
-3.23747e-09
2.54646e-10
-3.50284e-10
-6.008e-09
5.99819e-09
-1.3012e-11
2.28242e-11
-6.53948e-09
-3.39701e-09
3.0157e-09
9.49131e-10
5.10966e-09
-2.32495e-09
-3.7047e-10
3.60987e-09
-3.63442e-09
-4.41698e-10
-1.88897e-09
-9.83449e-10
-6.13204e-11
1.2371e-09
-1.92329e-10
5.79654e-09
-2.69918e-11
8.47494e-12
-5.77803e-09
2.32823e-09
-5.3679e-09
8.84155e-09
-5.80187e-09
-7.08341e-09
7.13234e-09
-1.07333e-10
-1.27663e-09
3.2254e-09
-1.87322e-09
5.56085e-09
-3.3142e-10
-1.14276e-09
1.12654e-09
3.47639e-10
-9.4361e-09
7.07646e-09
7.23772e-10
3.96289e-09
-2.55992e-09
-4.70768e-09
5.75422e-10
-4.90485e-10
2.39059e-10
-3.23996e-10
-2.24597e-09
-6.78027e-09
7.13403e-09
-7.99019e-09
5.64571e-09
-3.06379e-10
4.77203e-10
-5.81653e-09
5.9647e-09
-5.98183e-09
-1.51875e-11
3.23183e-11
5.17881e-09
-1.14438e-10
1.67731e-10
-5.2321e-09
-8.20212e-11
-2.70917e-09
2.91054e-09
1.71248e-10
-3.87951e-10
-2.69383e-09
1.07114e-09
1.3756e-09
3.34163e-10
8.58788e-11
-1.79913e-10
-5.0182e-09
7.67451e-09
-4.92971e-09
-3.82618e-09
4.67383e-09
-4.08679e-09
2.85666e-09
-6.38949e-09
-7.15297e-11
6.42029e-09
-6.79204e-09
6.80774e-09
-4.20228e-11
-2.38237e-10
-8.47951e-10
1.02739e-10
-5.71485e-09
1.5601e-11
-4.72739e-11
5.74652e-09
3.30256e-09
-3.32882e-09
-4.02903e-09
3.39327e-09
3.00049e-09
3.80015e-11
6.47787e-10
-4.0974e-11
8.94663e-09
-9.1422e-09
1.2395e-09
-1.04393e-09
-2.81966e-09
2.76056e-09
-2.79393e-09
2.04767e-09
1.72271e-09
-9.76445e-10
2.37594e-09
-3.38384e-09
1.69089e-09
-2.04722e-09
7.63589e-09
-7.83825e-09
-1.54652e-09
1.74889e-09
-1.09174e-08
-1.77318e-09
8.08245e-09
-2.93984e-09
-7.5616e-10
5.05247e-09
-1.35648e-09
5.9569e-09
-1.47662e-09
-1.9194e-09
-3.81405e-09
3.76643e-09
1.96701e-09
-4.93735e-09
-3.37026e-10
-3.26019e-10
3.25526e-10
-5.93685e-09
6.59064e-09
-4.75165e-11
-7.15548e-09
7.21688e-09
3.5097e-09
-3.62947e-09
3.80612e-09
4.41037e-09
-2.87291e-09
3.24256e-09
-4.43217e-09
1.9348e-09
-3.14928e-10
-1.39105e-09
1.04101e-09
-1.58959e-09
1.61971e-09
-2.21484e-09
2.05883e-09
-2.36481e-09
3.36719e-09
-3.30309e-09
1.64853e-09
-1.71263e-09
1.55032e-09
-2.17023e-09
-3.74119e-09
4.36111e-09
-5.64939e-09
-3.39484e-10
2.38959e-10
5.2804e-09
-3.47428e-09
-1.81515e-09
9.02526e-12
5.40585e-09
-1.38204e-10
7.27683e-11
-4.68513e-10
3.66767e-09
-3.19916e-09
3.30971e-09
-4.86148e-09
2.47946e-09
-5.67041e-09
5.69273e-09
2.62024e-11
-4.85217e-11
-9.04966e-10
-4.55537e-09
5.22986e-10
8.27089e-09
2.30106e-09
-2.07072e-09
-4.67797e-10
9.1901e-12
1.667e-10
-8.05861e-12
-1.67832e-10
-2.9535e-10
1.46029e-09
-1.81753e-09
6.52589e-10
-2.15099e-09
1.6509e-09
3.27969e-09
6.69228e-09
-1.72057e-09
-1.16083e-09
1.19302e-09
-3.21935e-11
3.08373e-09
-3.13351e-09
-2.51712e-09
-6.69579e-10
-2.57823e-09
1.58578e-09
1.66202e-09
-1.99395e-11
3.79173e-11
-5.73705e-09
5.71907e-09
-1.95756e-11
-3.21834e-09
3.23792e-09
-3.75168e-10
3.71483e-10
2.7293e-09
1.22921e-09
-2.73674e-09
-1.22178e-09
2.06675e-09
-2.07839e-09
-4.65473e-09
2.52526e-09
-4.68766e-10
2.59824e-09
-2.40934e-11
2.86565e-11
5.46249e-10
-4.98164e-11
1.80463e-09
1.77197e-09
-8.24806e-10
-3.94309e-09
2.99592e-09
-7.01459e-09
6.97289e-09
-2.60101e-09
-2.12304e-10
3.06078e-09
-3.75868e-09
6.51878e-09
-5.82088e-09
-3.4299e-09
-3.92034e-10
4.41195e-09
-5.90015e-10
-2.13748e-09
-2.76446e-09
2.81282e-09
-2.31251e-09
2.78085e-09
-2.55002e-09
4.39659e-10
-4.26556e-11
4.15215e-09
-2.47558e-09
2.07082e-09
-3.74739e-09
4.83112e-09
-3.19172e-09
8.46051e-10
5.47305e-09
-2.50602e-09
-5.66825e-09
-3.81894e-09
5.04701e-09
8.61438e-11
-1.31422e-09
-6.0479e-09
2.0434e-11
6.05438e-09
-2.69194e-11
3.39645e-10
-3.03192e-10
1.85374e-10
-2.21827e-10
3.66123e-09
-3.67166e-09
-3.07783e-10
1.16335e-09
-1.18699e-09
-3.2001e-09
3.18016e-09
-2.16971e-09
-4.82509e-09
1.81433e-09
-3.35714e-10
-7.11844e-10
-8.17594e-09
-6.71019e-09
7.00404e-09
-7.89581e-12
2.66668e-09
7.75917e-09
8.09498e-10
6.14466e-09
-3.20174e-09
3.01828e-09
-5.96119e-09
-7.42159e-09
7.00659e-09
3.39651e-09
-2.9815e-09
1.84863e-11
6.98845e-10
1.81033e-10
2.92146e-09
-3.10249e-09
1.72722e-11
-2.20911e-11
-2.56116e-11
3.15317e-09
-3.12756e-09
-7.98709e-10
-4.28557e-09
5.90714e-10
-3.5036e-09
-2.66271e-09
4.24982e-09
-2.65667e-09
2.78968e-09
6.16502e-09
-6.29804e-09
3.00113e-09
8.93198e-10
-2.18692e-09
4.47211e-09
-3.35398e-09
3.71281e-09
1.56789e-09
-1.5705e-09
9.85859e-10
-6.37234e-10
-3.14256e-09
-2.10024e-10
5.46853e-09
-8.87858e-09
-9.12795e-10
8.5093e-09
-5.17177e-09
1.13435e-09
-1.39001e-09
1.33176e-09
-2.86116e-09
2.52146e-09
-9.92063e-10