/*--------------------------------*- C++ -*----------------------------------*\
  =========                 |
  \\      /  F ield         | OpenFOAM: The Open Source CFD Toolbox
   \\    /   O peration     | Website:  https://openfoam.org
    \\  /    A nd           | Version:  8
     \\/     M anipulation  |
\*---------------------------------------------------------------------------*/
FoamFile
{
    version     2.0;
    format      ascii;
    class       surfaceScalarField;
    location    "10";
    object      phi;
}
// * * * * * * * * * * * * * * * * * * * * * * * * * * * * * * * * * * * * * //

dimensions      [0 3 -1 0 0 0 0];

internalField   nonuniform List<scalar> 
9048
(
7.03558e-09
-6.56294e-09
-3.26474e-09
2.7921e-09
-1.53565e-09
-1.38816e-09
1.73379e-09
1.19001e-09
8.66438e-09
-2.59598e-09
-6.53614e-09
4.67738e-10
-2.29635e-09
5.22438e-09
1.17828e-09
-4.10631e-09
-4.63273e-09
-3.38242e-09
1.8138e-09
6.20134e-09
3.12822e-09
-2.2503e-09
6.27499e-09
-7.15291e-09
-2.54595e-09
1.95943e-09
1.96343e-09
-1.37691e-09
3.16518e-10
-2.71958e-10
-5.76841e-11
1.31239e-11
5.43843e-09
-3.92414e-09
3.30902e-09
-4.82332e-09
7.52514e-09
-3.54843e-09
-7.0626e-09
3.08589e-09
1.42895e-09
-5.63448e-09
4.11564e-09
8.98893e-11
5.74777e-09
-4.99958e-09
-2.56315e-09
1.81495e-09
-5.83424e-09
2.09125e-09
5.60851e-09
-1.86552e-09
4.85469e-09
4.34354e-09
-2.63993e-09
-6.55831e-09
6.6922e-09
-6.20534e-09
-2.829e-09
2.34213e-09
-7.11756e-09
5.46079e-09
2.14747e-09
-4.90703e-10
-8.61078e-09
6.63298e-09
2.56382e-09
-5.86021e-10
8.63748e-09
-6.72463e-09
-3.1194e-09
1.20654e-09
7.54526e-09
-6.73329e-09
-3.21341e-09
2.40144e-09
6.30296e-09
-5.6377e-09
-2.71822e-09
2.05297e-09
-6.28691e-09
5.84358e-09
2.35151e-09
-1.90818e-09
-5.616e-09
5.30409e-09
2.19743e-09
-1.88552e-09
5.72715e-09
-5.20512e-09
-2.31472e-09
1.79269e-09
6.44776e-09
-6.07333e-09
-3.0923e-09
2.71787e-09
-6.02063e-09
5.7549e-09
2.46342e-09
-2.19769e-09
-7.22912e-09
7.23703e-09
3.18161e-09
-3.18952e-09
5.5703e-09
-5.40209e-09
-2.61253e-09
2.44431e-09
5.64819e-09
-5.48264e-09
-2.70735e-09
2.5418e-09
5.76935e-09
-5.59883e-09
-2.76533e-09
2.59481e-09
7.09036e-09
-5.60529e-09
-2.49621e-09
1.01114e-09
7.88096e-09
-6.18971e-09
-2.93901e-09
1.24777e-09
5.96551e-09
-5.66206e-09
-2.76939e-09
2.46594e-09
-5.73654e-09
5.44583e-09
2.39512e-09
-2.10441e-09
6.62884e-09
-6.15092e-09
-3.00223e-09
2.52431e-09
7.38801e-09
-7.1124e-09
-3.64766e-09
3.37205e-09
7.54899e-09
-5.95482e-09
-2.71267e-09
1.1185e-09
7.26353e-09
-5.7327e-09
-2.61001e-09
1.07918e-09
7.38997e-09
-5.83225e-09
-2.65446e-09
1.09675e-09
-6.57185e-09
6.35826e-09
2.09944e-09
-1.88586e-09
-5.44722e-09
2.40098e-09
5.28e-09
-2.23377e-09
-4.17493e-09
3.68481e-09
-3.505e-09
3.99513e-09
8.02192e-09
-8.23096e-09
2.89739e-09
-2.68836e-09
3.04058e-09
-3.52555e-09
5.58595e-09
-5.10097e-09
2.85051e-09
-3.34321e-09
5.15977e-09
-4.66707e-09
2.80004e-09
-3.29789e-09
5.08325e-09
-4.58539e-09
-3.93362e-09
-4.39783e-09
4.15652e-09
3.28641e-09
-3.91778e-09
5.87865e-09
-5.24728e-09
2.83319e-09
-3.33409e-09
5.05124e-09
-4.55034e-09
3.10632e-09
-3.59183e-09
5.5855e-09
-5.09999e-09
-3.39655e-09
2.81604e-09
5.63135e-09
-5.05084e-09
-1.64263e-09
1.54058e-09
-5.56332e-09
5.66537e-09
1.56243e-09
-1.84696e-09
-5.32696e-09
5.61149e-09
-8.51349e-09
3.12924e-09
-1.99533e-09
7.37958e-09
3.47573e-09
-3.41852e-09
-4.64018e-09
4.58296e-09
-2.79361e-09
3.26493e-09
2.53015e-09
-3.00148e-09
3.80313e-09
4.2534e-09
-3.84031e-09
-4.21622e-09
5.17306e-09
-6.59485e-09
2.58876e-10
1.16292e-09
-3.36693e-10
3.22624e-10
-6.59651e-13
1.47292e-11
-3.98197e-09
-4.63232e-09
4.01485e-09
4.59944e-09
3.99744e-09
-5.26509e-09
-5.95012e-09
7.21777e-09
5.12334e-09
3.55423e-09
-4.82863e-09
-3.84894e-09
4.23554e-09
3.96724e-09
-4.36042e-09
-3.84236e-09
3.19581e-09
-4.0594e-09
-4.82539e-09
5.68897e-09
4.91613e-09
4.67504e-09
-5.09663e-09
-4.49454e-09
-2.33186e-09
2.37054e-09
3.63943e-09
-3.6781e-09
-4.69732e-09
-4.83572e-09
3.73408e-09
5.79897e-09
5.71285e-09
2.47584e-09
-2.46005e-09
-5.72865e-09
4.97084e-09
4.96106e-09
-4.37251e-09
-5.5594e-09
3.5424e-09
-4.73735e-09
-5.27257e-09
6.46753e-09
-2.32839e-09
2.87186e-09
4.31123e-09
-2.22022e-09
2.29114e-09
2.51237e-09
-2.58328e-09
1.14781e-09
1.77378e-09
-1.61891e-09
-1.30268e-09
-1.01411e-09
6.18173e-09
2.81057e-09
-7.97819e-09
-4.20458e-09
-4.13365e-09
3.25407e-09
5.08416e-09
4.37374e-09
3.97845e-09
-4.44926e-09
-3.90293e-09
5.29109e-09
4.88608e-09
-5.41896e-09
-4.75821e-09
2.55549e-09
-1.14309e-09
7.47915e-10
-2.16032e-09
-5.01698e-09
4.31056e-09
4.39123e-09
4.62448e-09
-4.34628e-09
2.15793e-09
-2.43614e-09
4.15593e-09
-3.97552e-09
1.9669e-09
-2.14732e-09
3.74302e-09
5.91688e-09
-4.27545e-09
-5.38445e-09
2.17492e-09
6.00862e-09
-2.77363e-09
-5.40992e-09
6.66146e-09
-4.73169e-09
5.56336e-09
-7.49314e-09
-5.78164e-09
-3.90512e-09
4.79582e-09
4.89094e-09
4.21195e-09
-4.66984e-09
-5.04206e-09
-3.86315e-09
4.92648e-09
3.97873e-09
7.67982e-09
-4.90362e-09
-4.27617e-09
1.49997e-09
-5.27015e-09
3.73784e-09
-4.68463e-09
6.21694e-09
-4.89398e-09
-3.25137e-09
3.98608e-09
4.15927e-09
-5.07594e-09
-3.38233e-09
4.14659e-09
4.31169e-09
-4.97405e-09
-3.30983e-09
4.05669e-09
4.22718e-09
-4.79604e-09
-3.1818e-09
3.90253e-09
4.07532e-09
-1.45754e-11
-5.60001e-12
-4.61029e-09
-1.34153e-10
-3.08531e-10
5.05298e-09
3.41606e-09
-3.4636e-09
1.63611e-09
-1.58857e-09
4.03734e-09
1.94507e-09
-8.15535e-10
-5.16687e-09
-2.88262e-10
-7.30532e-09
6.57647e-09
1.01711e-09
-4.61468e-09
4.49041e-09
4.43431e-09
-4.31003e-09
-1.23749e-09
6.28386e-09
1.26688e-10
-4.68979e-09
4.99578e-09
4.27774e-09
-4.58374e-09
-5.52186e-09
3.90983e-09
-4.81127e-09
6.4233e-09
-4.5855e-09
3.33114e-09
-4.25215e-09
5.50652e-09
3.64531e-09
8.52536e-09
-5.03156e-10
-1.16675e-08
-7.27094e-09
5.01912e-09
-4.92392e-09
7.17574e-09
7.18985e-10
3.42795e-09
-1.59145e-09
-3.50611e-10
2.22471e-11
3.28389e-10
-2.4988e-14
-4.26971e-09
-4.40743e-09
4.01049e-09
4.66665e-09
-4.77076e-09
-1.52873e-09
1.89415e-09
4.40534e-09
-4.0473e-09
6.14436e-09
2.87378e-09
-2.81617e-09
4.07244e-09
-4.67479e-09
5.25184e-09
5.56626e-09
-5.37967e-09
3.85474e-10
-3.42279e-10
-8.12218e-12
-3.50725e-11
-2.80182e-09
2.37652e-09
8.60637e-10
-4.3534e-10
5.56094e-09
5.60584e-09
-4.51117e-09
-6.65561e-09
2.74245e-09
-3.22211e-09
-1.18442e-09
1.66407e-09
2.75809e-09
-2.50748e-09
4.66239e-09
-4.913e-09
-2.97701e-09
3.17767e-09
3.99345e-09
-4.19412e-09
6.88973e-12
-3.6356e-10
6.05915e-12
-4.23812e-09
3.06209e-11
4.52551e-09
-3.18006e-10
5.98552e-09
-4.28915e-09
4.65098e-09
-6.34736e-09
-5.22428e-09
5.25375e-09
2.20118e-09
-2.23065e-09
5.70876e-09
-4.46248e-09
5.14349e-09
-6.38977e-09
-4.5509e-09
1.33068e-09
-4.12281e-10
3.6325e-09
-5.14749e-09
4.93283e-09
-5.29488e-09
5.50955e-09
-6.09961e-09
4.40383e-09
-5.35524e-09
7.05102e-09
6.46789e-09
-5.96826e-09
6.62065e-09
-7.12029e-09
-5.46413e-09
5.08307e-09
-5.51599e-09
5.89706e-09
-6.65554e-09
4.78047e-09
-5.17197e-09
7.04704e-09
5.66446e-09
-4.64133e-09
5.90258e-09
-6.92571e-09
5.3105e-09
-5.00571e-09
5.08337e-09
-5.38816e-09
-5.63168e-09
4.99671e-09
-5.47979e-09
6.11476e-09
5.34906e-09
-4.86317e-09
5.18259e-09
-5.66849e-09
5.97221e-09
-4.80672e-09
6.09315e-09
-7.25864e-09
5.05813e-09
-4.29638e-09
5.59702e-09
-6.35877e-09
4.95774e-09
-4.5932e-09
4.56442e-09
-4.92896e-09
1.57721e-09
-3.8515e-09
3.79406e-09
-1.51977e-09
6.23454e-09
-4.18452e-09
3.55714e-09
-5.60716e-09
5.6148e-09
5.64304e-09
-5.15382e-09
-6.10402e-09
-7.12294e-10
1.27031e-09
-3.30436e-09
2.74634e-09
5.662e-09
5.57438e-09
-4.96817e-09
-6.26821e-09
-5.09425e-09
-5.18977e-09
4.15073e-09
6.13329e-09
-4.95414e-09
-5.08924e-09
4.14407e-09
5.8993e-09
-4.68139e-09
-3.50549e-09
4.64815e-09
3.53873e-09
4.352e-09
3.69019e-09
-4.54257e-09
-3.49962e-09
5.28475e-09
5.00473e-09
-4.96489e-09
-5.32459e-09
5.16484e-09
4.9128e-09
-4.84064e-09
-5.237e-09
5.48943e-09
5.42546e-09
-4.97154e-09
-5.94335e-09
5.71531e-09
5.62344e-09
-5.20318e-09
-6.13557e-09
5.59564e-09
5.50543e-09
-5.10127e-09
-5.9998e-09
4.30018e-09
-4.67302e-09
-2.41705e-09
2.78989e-09
-6.19667e-09
4.68588e-09
-3.68859e-09
5.19939e-09
7.56304e-09
-5.87299e-10
-2.42708e-11
-6.95147e-09
-3.07689e-09
3.32865e-09
4.08952e-09
-4.34128e-09
5.7957e-09
-5.01067e-09
-9.54061e-10
1.69033e-10
3.87245e-09
1.21925e-09
-3.61791e-09
-1.47379e-09
6.56158e-09
-4.71442e-09
5.13787e-09
-6.98504e-09
-4.30244e-09
2.10155e-09
-8.59711e-10
3.0606e-09
5.67384e-09
-7.73681e-09
7.91983e-09
-5.85686e-09
-1.45626e-09
-2.29837e-09
2.46422e-09
1.29041e-09
2.64154e-09
-5.00192e-09
-2.29893e-09
4.65931e-09
-5.08555e-09
4.61278e-09
-4.61589e-09
5.08867e-09
3.32181e-11
3.09795e-11
-6.41975e-11
-2.64343e-09
-3.48517e-10
2.42998e-10
2.74895e-09
-1.77549e-09
3.04003e-09
-7.22305e-09
5.95851e-09
3.00455e-10
9.19083e-11
-7.50485e-09
-4.96612e-09
8.81366e-09
3.65731e-09
-8.52587e-10
1.57997e-09
1.04692e-09
-1.7743e-09
1.26884e-09
1.25258e-09
-1.37361e-09
-8.41959e-11
9.01551e-11
-2.6346e-10
2.57501e-10
-3.82284e-09
3.326e-09
4.74378e-09
-4.24694e-09
-3.08579e-09
-9.14021e-10
3.26656e-09
7.33255e-10
-1.9417e-09
3.35885e-09
-8.01681e-09
6.59966e-09
5.56078e-10
4.55516e-09
-4.8052e-09
-3.06041e-10
2.98461e-09
-3.34898e-09
4.17e-09
-3.80563e-09
4.8213e-09
-1.17026e-09
-3.55542e-09
-9.56182e-11
5.37998e-09
6.50946e-10
-1.95473e-09
-4.0762e-09
2.56526e-09
-1.55467e-09
2.64056e-09
-3.65115e-09
4.98713e-09
-5.32929e-09
5.20966e-09
-4.86749e-09
-3.71476e-10
-4.64189e-11
3.91693e-10
2.62017e-11
5.55763e-09
-5.49505e-09
-4.77354e-09
4.71096e-09
-6.28597e-09
-3.98898e-09
5.05067e-09
-2.32778e-09
-5.67596e-09
5.01624e-09
2.98751e-09
-1.87953e-09
2.91066e-09
-6.19545e-09
5.16432e-09
4.15917e-09
-4.30127e-09
-3.88656e-09
4.02865e-09
1.90809e-09
-9.7713e-10
-1.84011e-09
9.09154e-10
2.16465e-09
4.0231e-09
-2.15041e-09
3.6916e-09
-4.98156e-10
-4.28147e-09
1.08803e-09
-1.44377e-09
-2.54309e-09
1.24806e-09
2.7388e-09
-1.82693e-09
5.22736e-09
-5.04306e-09
-5.70934e-10
1.05834e-09
-3.03335e-09
2.92523e-09
-5.18155e-09
4.89785e-09
3.11505e-09
-3.43367e-09
-5.87805e-09
4.78822e-09
5.21049e-09
-4.17234e-09
-5.82637e-09
7.18636e-10
4.88732e-09
-5.40469e-09
-2.01262e-10
2.58878e-10
4.16333e-11
-1.93308e-10
-1.07204e-10
-2.68076e-09
-4.17971e-09
2.938e-09
3.92246e-09
5.01137e-09
-3.43066e-09
-4.39688e-09
-2.92209e-09
1.29573e-09
-5.00854e-09
6.63489e-09
-3.32907e-09
3.26502e-09
2.52317e-09
-2.45912e-09
4.34277e-09
-3.14768e-09
-7.73067e-09
6.53558e-09
8.12332e-10
-5.31958e-10
9.88464e-10
-4.02456e-09
5.45136e-09
-5.83891e-09
4.41211e-09
-1.21495e-10
3.87169e-11
-2.59501e-10
-4.472e-09
4.8376e-09
-6.0741e-09
5.7085e-09
-3.55947e-09
4.36496e-09
-5.86097e-09
5.05548e-09
-3.54534e-09
3.37419e-09
-4.88782e-09
5.05897e-09
3.72445e-09
-4.1238e-09
5.40541e-09
-5.00605e-09
-8.99838e-09
2.67957e-10
6.52174e-09
2.20868e-09
-3.20381e-09
-1.2844e-09
1.10129e-09
3.38692e-09
-6.45874e-10
8.09657e-10
-6.32594e-09
6.16216e-09
-2.59711e-09
-1.24373e-10
7.80517e-11
4.42551e-09
-2.45861e-09
-1.9669e-09
-1.89279e-09
9.08207e-09
-8.20339e-09
4.87618e-09
-2.71825e-09
-2.15793e-09
-1.57734e-09
-5.1093e-09
1.91588e-09
-3.35088e-09
1.50132e-09
-2.10357e-09
3.95313e-09
-8.42033e-10
2.97712e-09
-2.84738e-09
3.90344e-09
-2.26732e-09
-1.63611e-09
3.46202e-10
1.78669e-10
4.29643e-09
-2.52253e-09
-1.54059e-09
2.61935e-09
-4.49887e-09
5.63287e-09
-7.06399e-09
5.92998e-09
-2.696e-09
2.78892e-09
3.76887e-09
-3.86179e-09
-2.37753e-10
3.02658e-10
1.33423e-10
-1.98328e-10
6.63457e-09
-7.26856e-09
1.16235e-09
-5.28364e-10
4.37217e-09
-4.31008e-09
3.13529e-09
-3.33131e-09
4.5707e-09
-4.37469e-09
-5.91771e-10
2.07592e-09
4.23934e-10
-2.78919e-09
-5.81853e-09
5.42229e-09
3.18543e-09
-5.10035e-09
5.03911e-09
5.24844e-09
-5.18721e-09
-3.88912e-09
-5.81168e-09
4.39987e-09
5.30093e-09
1.40372e-10
-1.76667e-10
3.61102e-10
-3.24807e-10
5.65265e-09
-4.68638e-09
5.90958e-09
-6.87585e-09
-4.81214e-09
-3.35712e-09
4.61514e-09
3.55412e-09
-5.32594e-09
4.90593e-09
-6.02882e-09
6.44882e-09
-4.39103e-09
4.65508e-09
-5.15371e-09
4.88966e-09
-1.10659e-09
-3.12779e-09
3.2562e-09
9.78187e-10
4.29888e-09
4.91257e-09
-3.88068e-09
-5.33076e-09
3.44416e-09
-3.85631e-09
5.24418e-09
-4.83203e-09
-2.54957e-10
-3.13635e-10
3.76062e-09
-3.19203e-09
-2.86754e-09
4.36986e-09
2.70426e-09
-4.20658e-09
-4.1925e-09
-4.35222e-10
4.47099e-09
1.56728e-10
2.23904e-09
-2.71615e-09
1.28592e-10
2.89879e-09
-4.13212e-09
-2.42929e-09
3.66262e-09
-9.77409e-09
4.7212e-09
-5.08273e-09
1.01356e-08
-4.37251e-09
-5.89901e-09
4.86281e-09
5.40871e-09
6.34929e-09
6.63891e-09
-7.61607e-09
-5.37212e-09
3.49829e-09
5.40911e-09
-3.45612e-09
-5.45128e-09
-3.12036e-09
-1.19004e-09
3.84393e-09
4.45241e-09
-3.5493e-09
-4.74704e-09
-3.40506e-09
-5.33255e-09
3.55174e-09
5.18587e-09
3.63598e-09
5.01091e-09
-4.06223e-09
-4.58466e-09
4.51579e-09
5.53202e-09
-5.2394e-09
-4.80841e-09
4.0237e-09
5.63625e-09
-4.34742e-09
-5.31253e-09
-4.00931e-09
-6.00484e-09
4.52902e-09
5.48513e-09
-3.24992e-09
-4.19095e-09
3.86854e-09
3.57232e-09
3.7305e-09
5.4333e-09
-3.76066e-09
-5.40315e-09
-3.31857e-09
-4.2794e-09
3.94879e-09
3.64918e-09
-3.08738e-09
-4.42834e-09
2.58295e-09
4.93277e-09
-4.36061e-09
-6.26635e-09
4.89057e-09
5.73638e-09
4.84277e-09
-4.18756e-09
-6.0038e-09
5.34858e-09
-2.46041e-09
-1.43512e-09
2.6307e-09
1.26484e-09
-2.08128e-10
2.05007e-09
-2.16277e-09
3.20823e-10
3.9264e-09
-3.11683e-09
7.24012e-09
-8.04969e-09
-4.96818e-09
-4.02994e-09
5.15865e-09
3.83947e-09
3.42652e-09
-3.56078e-09
5.72497e-09
-5.59071e-09
3.50669e-09
-3.28698e-09
5.66157e-09
-5.88129e-09
-3.30778e-09
3.83022e-09
-6.09121e-09
5.56877e-09
-4.58488e-09
4.12769e-09
-5.22134e-09
5.67853e-09
1.3626e-09
-2.66127e-09
2.56898e-09
-6.62032e-09
6.36124e-09
-7.13741e-09
7.3965e-09
-4.52189e-09
-1.98948e-09
4.68444e-09
6.82712e-11
1.28921e-10
-1.31091e-10
-6.61019e-11
6.06308e-09
-5.75359e-09
6.98588e-09
-7.29538e-09
-5.25364e-09
3.79918e-09
-4.96797e-09
6.42243e-09
7.33583e-09
4.86392e-09
-5.85047e-09
3.51624e-09
-4.19676e-09
5.65117e-09
-4.97065e-09
-1.01533e-08
6.64056e-09
1.2259e-09
-5.88539e-09
-1.98106e-09
-4.79909e-09
5.91403e-09
3.75863e-09
-4.87357e-09
5.46658e-09
-6.31882e-09
5.36803e-09
4.94663e-09
-5.63665e-09
4.71373e-09
-4.28962e-09
5.21358e-09
-4.24253e-09
-4.20515e-09
5.10525e-09
-4.15001e-09
4.83662e-09
-5.63737e-09
4.53124e-09
-4.3404e-09
5.38804e-09
-4.13501e-09
-5.37699e-09
6.50894e-09
-5.14126e-09
-5.59986e-09
6.77528e-09
-5.53603e-09
4.53138e-09
-5.21359e-09
4.31818e-09
-5.64661e-09
6.97726e-09
4.43199e-09
-5.76264e-09
-5.22907e-09
6.22199e-09
-4.88203e-09
4.77687e-09
-5.17621e-09
4.69822e-09
-4.81545e-09
5.7769e-09
-4.36652e-09
4.29404e-09
-4.64785e-09
4.19773e-09
-3.20495e-10
-2.20586e-09
-7.07562e-11
-5.70308e-09
6.82254e-09
-5.49198e-09
-7.75451e-09
-9.5165e-10
7.53462e-09
1.17153e-09
-4.89157e-09
-5.85924e-09
4.21142e-09
6.53939e-09
4.05104e-09
4.25426e-09
-5.3207e-09
6.96233e-10
-7.44573e-10
4.21119e-10
-3.72779e-10
5.25075e-09
2.33017e-09
-2.57516e-09
-5.00576e-09
4.46325e-09
-7.76877e-09
8.03952e-09
-4.734e-09
4.92527e-09
-5.46786e-09
4.04087e-09
2.40357e-09
-3.11216e-09
-3.56711e-09
4.27571e-09
-2.73315e-09
6.07569e-09
-5.49299e-09
2.15045e-09
-5.43151e-09
1.79509e-09
-3.80009e-09
3.39382e-09
-7.09858e-09
-5.95706e-09
-5.24946e-09
4.80286e-09
6.40366e-09
-4.88337e-09
4.5177e-09
4.66473e-09
-4.29906e-09
2.22939e-09
4.3953e-09
-2.25252e-09
-1.23809e-09
-7.87155e-10
-7.42114e-09
9.44638e-09
4.18604e-09
6.24221e-09
-4.86731e-09
3.3578e-09
-3.08733e-09
4.35402e-09
-4.6245e-09
7.0029e-09
4.62452e-10
-6.71609e-09
-7.4926e-10
-7.48917e-09
7.32468e-09
2.61017e-10
-9.65231e-11
-5.10282e-09
-5.39575e-09
5.39823e-09
-7.97777e-09
-9.87871e-10
7.48923e-09
1.47641e-09
-2.53008e-09
2.18986e-09
-6.36908e-10
2.11662e-09
5.92362e-09
6.24142e-10
-6.15552e-09
-4.20694e-09
5.8251e-09
4.53737e-09
5.77907e-09
4.73767e-09
-4.56871e-09
-5.94803e-09
-2.3078e-09
2.10704e-09
3.82535e-09
-3.6246e-09
-5.45404e-09
5.47566e-09
4.13755e-09
3.80485e-09
5.93981e-09
-4.0359e-09
2.12718e-09
7.11327e-09
-1.0567e-09
-8.18375e-09
3.07658e-11
1.15465e-09
6.56825e-09
-5.05036e-09
3.73396e-09
-5.38315e-09
7.04421e-10
6.59095e-09
-1.91223e-09
5.39588e-09
6.01749e-09
-6.42624e-09
-5.4335e-09
-6.74196e-09
5.05117e-09
7.12429e-09
3.65075e-09
3.45114e-09
-3.38591e-09
-3.71598e-09
4.9918e-09
6.01494e-09
-4.55905e-09
-6.44769e-09
-6.61414e-09
7.29754e-09
7.1762e-09
-7.85961e-09
-7.17588e-09
2.19827e-09
4.31103e-09
6.66581e-10
-2.92e-09
7.63507e-10
-9.29294e-10
-6.13656e-09
7.82157e-09
5.06356e-09
-6.74857e-09
4.42492e-09
6.7073e-09
-5.57459e-09
-3.39188e-09
-5.2553e-09
3.49968e-09
-3.9504e-09
-6.33608e-09
4.18686e-09
4.49657e-09
6.78439e-09
-5.30876e-09
4.34797e-09
6.89074e-09
-4.77081e-09
-3.78894e-09
-5.46628e-09
3.79108e-09
3.86429e-09
5.76426e-09
-4.57042e-09
2.61962e-09
3.32167e-09
-3.19069e-09
-2.75059e-09
-4.95281e-09
-6.8967e-09
5.19397e-09
-4.06107e-09
-5.5647e-09
3.99409e-09
3.58718e-09
5.30229e-09
-3.57897e-09
4.44111e-09
6.28621e-09
-5.06285e-09
3.51197e-09
5.47659e-09
-3.6395e-09
-5.38286e-09
-6.95115e-10
1.22693e-09
4.85105e-09
1.19913e-09
5.07689e-09
7.29208e-09
-1.14834e-09
-5.9979e-09
-1.45842e-10
6.03776e-09
-2.22697e-10
-6.02261e-09
2.07553e-10
6.97253e-09
-1.4189e-10
-7.03044e-09
1.998e-10
7.66322e-09
-2.23021e-10
-8.46729e-09
1.02709e-09
-6.56733e-09
4.30223e-09
1.60108e-09
6.64018e-10
5.5196e-09
-6.07575e-09
2.27876e-10
3.28267e-10
-7.11581e-09
7.25228e-09
-1.22315e-10
-1.4155e-11
-7.47012e-09
7.50292e-09
-4.08948e-11
8.09524e-12
-7.22136e-09
6.93469e-09
-1.94005e-10
4.80671e-10
-8.14871e-09
7.05908e-09
2.12452e-09
-1.03489e-09
-8.4476e-09
8.64361e-09
-3.13889e-10
1.17883e-10
-6.5909e-09
6.75498e-09
-2.58112e-10
9.40341e-11
-5.59638e-09
6.75042e-09
-3.8461e-11
-1.11558e-09
-6.35734e-09
5.23231e-09
1.55551e-09
-4.30486e-10
-6.38351e-09
5.20769e-09
-5.37789e-10
1.71361e-09
-5.71413e-09
6.89515e-09
-4.38423e-11
-1.13718e-09
-8.26162e-09
8.00337e-09
-9.85897e-11
3.5684e-10
-5.56435e-09
6.52595e-09
8.21474e-12
-9.69818e-10
-6.64942e-09
6.68769e-09
-9.09253e-11
5.26628e-11
-6.77094e-09
6.85894e-09
-8.66214e-11
-1.37725e-12
-6.6692e-09
6.65698e-09
-1.33847e-10
1.46062e-10
-8.05819e-09
8.23086e-09
-1.08911e-10
-6.37631e-11
7.24467e-09
-8.7979e-09
7.50264e-11
1.47821e-09
8.84023e-09
-8.52408e-09
1.85559e-10
-5.01709e-10
-4.23293e-09
-1.7457e-09
4.50161e-09
1.47702e-09
6.16915e-09
-6.615e-09
-2.00026e-10
5.83569e-09
1.40367e-09
-5.69879e-09
-4.56658e-09
1.04709e-09
6.39437e-09
-6.78814e-09
-4.93552e-09
-5.94583e-09
5.53589e-09
3.92617e-09
2.02201e-09
4.81689e-09
-4.23817e-09
-2.60073e-09
-1.63184e-09
-2.28483e-09
-4.43878e-09
4.35203e-09
-4.41211e-09
4.87489e-09
-5.20966e-09
5.73065e-09
-2.28342e-09
6.17211e-09
1.36206e-09
-3.75222e-09
6.05825e-09
-5.22994e-09
2.92392e-09
1.50955e-10
-2.46058e-11
-1.26349e-10
3.89367e-09
5.6625e-09
-3.94136e-09
4.20298e-09
6.22389e-09
-4.76486e-09
-3.98517e-09
-5.34173e-09
4.23265e-09
-6.14302e-09
7.87416e-09
-6.69726e-09
2.36398e-10
-4.40036e-10
7.76668e-09
-7.16427e-09
7.2638e-09
-3.85176e-09
4.75328e-09
-4.84131e-09
-1.4893e-09
-5.11997e-09
-3.91666e-09
4.08249e-09
-3.23665e-09
-4.99371e-09
3.54898e-09
3.04417e-09
4.9374e-09
-3.62957e-09
3.75726e-09
5.58218e-09
-4.0547e-09
3.6886e-09
5.46088e-09
-3.98463e-09
-2.07931e-09
5.46438e-09
-5.34276e-09
-5.48807e-09
4.40822e-09
6.42262e-09
1.53775e-09
-2.38747e-09
-1.67281e-09
-1.71518e-10
-1.0327e-10
5.68747e-11
2.17914e-10
-3.46859e-09
3.72041e-09
5.98273e-09
5.29329e-09
4.95626e-09
-6.05292e-09
-4.19663e-09
6.4452e-09
-7.2835e-09
-2.78573e-09
3.62403e-09
1.45519e-09
-6.60349e-09
5.97398e-10
-3.8545e-10
3.6221e-11
-3.11318e-09
-3.70036e-09
2.99069e-09
-4.7668e-09
-1.10241e-09
5.20682e-09
6.62388e-10
7.64689e-09
-6.20496e-10
-3.91822e-10
5.86783e-09
-4.85307e-09
6.20056e-09
-7.21531e-09
5.48498e-09
-4.13169e-09
4.8726e-09
-6.22589e-09
3.81831e-09
5.88353e-09
-3.98652e-09
3.68167e-09
5.65503e-09
-3.84727e-09
3.73758e-09
5.75731e-09
-3.89924e-09
-2.16087e-09
3.00921e-09
-4.17741e-09
-4.64313e-09
-4.29633e-09
5.23815e-09
3.70131e-09
4.88164e-09
5.91904e-09
-4.02467e-09
-6.77601e-09
2.51564e-09
-6.44196e-09
-2.26288e-09
6.1892e-09
-1.03243e-09
4.25698e-09
-5.00143e-09
3.57804e-09
-4.22948e-09
5.65287e-09
-2.93989e-10
4.41393e-09
1.35855e-09
-4.30324e-09
-3.01257e-09
-1.02924e-09
4.36912e-09
1.75759e-09
-1.65318e-09
-4.47352e-09
-6.37173e-09
-4.16327e-09
5.78533e-09
4.74967e-09
-5.18892e-09
4.68696e-09
-4.89495e-09
5.39691e-09
7.56518e-09
2.29795e-09
-3.65214e-09
-6.21099e-09
-7.74384e-09
7.10683e-09
-2.14049e-09
2.7775e-09
-5.57447e-09
6.70402e-09
-4.59814e-09
4.38421e-10
-2.40799e-09
6.48271e-09
2.98397e-09
-6.60049e-09
-2.86619e-09
-7.23749e-09
3.72502e-09
-3.38908e-09
6.90155e-09
-5.41663e-09
-2.92642e-10
3.26412e-10
5.28608e-09
1.93652e-09
-3.64417e-09
-3.57843e-09
-5.5444e-09
6.81521e-09
-4.25762e-09
2.98681e-09
-5.78169e-09
5.06381e-09
5.40377e-09
3.19207e-09
-7.61018e-09
6.5453e-09
-2.46786e-09
1.56275e-09
-1.8052e-09
2.7103e-09
-5.85969e-09
1.19592e-09
5.1471e-09
-4.83335e-10
-1.84674e-09
8.34091e-09
-8.38696e-09
-3.74152e-09
-3.6572e-09
4.71797e-09
-3.05658e-09
4.90946e-09
-6.64892e-09
-3.16813e-09
5.10325e-09
-6.90916e-09
-3.23223e-09
5.2158e-09
-7.05951e-09
-3.11779e-09
5.01474e-09
-6.79093e-09
-2.44046e-09
-4.92459e-09
3.08516e-09
-3.70596e-09
5.54539e-09
-4.82676e-09
6.60492e-09
4.70455e-09
-5.7175e-09
-7.1382e-09
8.55285e-09
4.30286e-09
-1.10454e-10
-6.02349e-10
-4.5219e-12
7.17325e-10
-4.40744e-09
6.07472e-09
-8.28142e-09
5.95639e-09
1.11935e-09
-6.42859e-09
-6.47145e-10
-6.86509e-09
-1.50486e-09
7.26705e-09
1.10291e-09
-7.24968e-09
-1.20889e-09
1.09685e-11
-6.12794e-09
-1.12707e-09
6.64108e-10
-6.00503e-09
-1.4336e-09
1.05512e-09
-4.54856e-09
-9.30491e-10
-1.17329e-10
-4.64155e-09
-9.54622e-10
-1.17955e-10
6.31781e-09
1.45051e-09
-1.12776e-09
6.03191e-09
1.03219e-09
1.80571e-10
4.48106e-09
5.37444e-09
-5.45863e-09
-4.39687e-09
5.59568e-09
-5.68726e-09
2.48097e-09
-2.38939e-09
-3.18895e-09
-1.44632e-09
5.34787e-10
5.36652e-09
-5.54176e-09
-3.59551e-10
-4.83439e-09
-6.79768e-09
6.13702e-09
-3.317e-09
5.87982e-09
-7.60488e-09
-3.04121e-10
1.2608e-10
-2.91103e-10
5.7874e-09
5.41463e-10
-6.10323e-11
-8.22455e-11
-4.6087e-10
6.66727e-09
1.45682e-09
5.90219e-10
-6.31687e-09
-8.40679e-10
3.60056e-10
-5.98004e-09
-4.55759e-10
-3.30996e-10
6.56561e-09
1.01766e-09
-1.10609e-10
3.92173e-10
-3.44824e-10
6.52292e-09
7.56593e-10
9.84802e-10
-7.31283e-09
-1.82069e-09
-2.18033e-10
6.00017e-10
1.89762e-11
8.2023e-11
-1.02188e-10
1.87973e-10
2.20774e-11
1.02133e-10
6.70072e-10
-5.97238e-09
-1.05504e-09
-1.30389e-10
-2.26268e-10
-5.86875e-11
3.87176e-12
-1.9826e-10
6.08338e-09
6.40832e-10
-2.67323e-10
6.61812e-09
5.08135e-10
-2.64533e-10
6.47136e-09
4.80861e-10
-3.00797e-10
6.37341e-09
5.8437e-10
-3.18636e-10
7.7563e-09
7.93203e-10
-5.35331e-11
9.58583e-11
6.01451e-10
-8.08311e-09
-1.04242e-09
9.47318e-10
-1.21111e-09
-1.27186e-09
6.01189e-09
-3.33113e-10
1.42373e-09
-7.10251e-09
-4.26127e-09
1.67215e-09
-9.96627e-10
3.58575e-09
-2.70169e-09
7.14654e-09
1.61339e-09
-4.03619e-09
5.0195e-09
-5.25303e-09
8.02814e-10
-3.69843e-09
-5.48626e-11
2.95048e-09
-6.52505e-09
-1.71563e-09
4.96837e-10
4.03866e-09
-4.10962e-09
-3.27802e-09
-3.44047e-09
-7.05033e-09
6.98383e-09
3.50697e-09
3.03905e-10
5.52905e-09
-5.17738e-09
-6.55582e-10
-3.76385e-09
-5.99514e-09
2.15013e-09
3.89943e-09
-3.13821e-09
-2.91136e-09
-3.91392e-09
-4.87408e-09
2.41627e-09
-3.67696e-09
6.03202e-09
-8.13671e-09
-1.2666e-09
1.82983e-09
3.63215e-09
-4.19538e-09
-5.37519e-09
-4.97294e-09
5.57459e-09
-2.43573e-09
-7.57238e-09
5.71299e-09
4.29512e-09
8.29871e-10
3.67889e-09
-4.50876e-09
1.13495e-09
3.69356e-09
-4.82852e-09
1.36774e-09
4.81118e-09
-6.17892e-09
-3.64738e-09
3.26466e-09
-4.1531e-09
4.53582e-09
-4.23484e-09
4.63891e-09
-5.85661e-09
5.45253e-09
2.89557e-09
-3.14157e-09
5.47831e-09
4.14313e-09
-3.89938e-09
4.89755e-09
-5.14129e-09
-3.86249e-09
5.13293e-09
-7.13063e-11
-3.50518e-09
4.57159e-09
2.98463e-09
-2.39522e-09
3.15889e-09
-1.08416e-09
4.73209e-09
-2.22761e-10
-3.833e-11
-5.63812e-09
5.63426e-09
7.3014e-09
3.62157e-09
5.32124e-09
-4.46174e-09
1.39467e-10
-2.72505e-10
3.76121e-10
-2.43083e-10
4.22802e-10
-6.90613e-09
-7.85232e-10
4.93615e-09
3.17439e-09
-5.18532e-09
-5.80715e-09
-4.69859e-09
5.54629e-09
4.95946e-09
3.82475e-09
-3.92277e-09
7.1571e-09
-6.70604e-09
-2.03132e-09
7.59585e-10
7.35687e-09
-7.51946e-09
-4.24712e-10
-5.18818e-09
3.19433e-09
6.54864e-09
-4.55479e-09
-6.84884e-09
-4.48549e-09
4.71401e-09
6.52506e-09
4.12704e-09
-4.58902e-09
-6.94406e-09
5.24816e-09
5.25303e-09
-4.854e-09
-3.59381e-09
3.86293e-09
-5.68096e-09
-3.94465e-09
4.37197e-09
4.86734e-10
-2.51952e-09
-3.62434e-10
-6.16525e-09
3.97526e-09
-3.30546e-09
5.49546e-09
6.47011e-09
5.79028e-10
-6.62634e-09
-4.4917e-09
2.39904e-10
-2.34305e-09
6.53603e-09
-5.11822e-09
-5.49858e-09
3.58201e-09
-5.65312e-09
4.47031e-09
5.73377e-09
3.79875e-09
-3.81017e-09
5.98474e-09
-5.97332e-09
-6.93976e-10
-7.70225e-09
8.4129e-09
-1.66818e-11
2.81198e-10
6.18721e-09
8.56276e-10
3.88198e-10
5.99526e-09
6.19437e-10
-6.71593e-09
4.41482e-09
-4.43292e-09
6.73402e-09
3.7376e-09
2.38018e-09
-1.38127e-09
-4.7365e-09
3.9704e-09
5.50319e-09
-3.53549e-09
-5.9381e-09
-5.7716e-09
1.32152e-09
-2.08812e-09
6.5382e-09
-8.84949e-09
6.05347e-09
1.44125e-09
1.35477e-09
9.1866e-10
3.67397e-09
-6.13834e-09
1.54571e-09
2.84712e-10
1.30025e-09
-1.26624e-09
-3.18719e-10
-6.38158e-09
-6.64373e-10
-4.41383e-10
7.48734e-09
-5.2768e-09
-3.58963e-09
3.89824e-09
-4.22973e-09
4.73168e-09
-6.1824e-09
5.68045e-09
-4.69139e-09
-4.54455e-09
4.34437e-09
4.21016e-09
-4.03396e-09
3.3109e-09
-3.4871e-09
5.10863e-09
-4.52247e-09
5.70203e-09
-6.28818e-09
3.55958e-10
-2.0177e-10
-4.92098e-09
4.36013e-10
-4.19435e-10
-5.10415e-10
4.93837e-10
-3.30218e-09
4.01898e-09
-3.69381e-09
3.62955e-09
-4.02623e-09
6.9548e-09
-6.55813e-09
5.0707e-09
3.95137e-09
-5.1804e-09
-3.84168e-09
-9.06157e-11
3.72586e-10
5.68702e-09
1.62949e-09
-1.88987e-09
-5.42665e-09
5.49701e-09
-6.30594e-09
5.68382e-09
-1.04338e-09
-2.71866e-09
4.98351e-09
-7.62872e-09
1.09898e-08
-8.34464e-09
4.12965e-09
-4.17589e-09
-1.0933e-09
1.13954e-09
3.42009e-09
5.47886e-09
-4.59672e-09
1.74423e-10
1.43866e-10
-7.48901e-09
7.17072e-09
5.21978e-09
-7.32084e-09
5.29313e-09
4.22739e-10
7.96244e-09
-2.20345e-09
-3.97531e-09
4.40484e-09
-5.65947e-09
2.43795e-09
-2.44519e-09
-3.73428e-09
5.03503e-09
1.29067e-09
-5.40704e-09
7.39822e-09
3.44401e-10
-7.76689e-09
1.20239e-10
-2.23486e-10
-6.77094e-09
6.92869e-09
6.72121e-10
-6.59576e-09
6.55551e-09
1.17521e-09
-8.5288e-09
8.80102e-09
1.09552e-09
7.36904e-09
-6.23072e-09
5.94964e-09
1.09073e-09
5.43953e-11
-4.82897e-09
6.97879e-09
-8.67004e-09
-2.03357e-10
1.8946e-09
-4.21358e-09
3.89418e-09
5.27714e-09
4.40029e-09
-3.98206e-09
-5.21355e-09
4.79532e-09
4.99813e-09
7.33378e-09
-5.1557e-09
-3.99506e-10
-4.99158e-10
3.95418e-10
5.03246e-10
-4.46568e-09
-1.07227e-09
5.96762e-10
4.94119e-09
-2.3512e-10
-2.26795e-11
3.16224e-10
-5.8424e-11
3.31169e-09
-4.40484e-09
4.01707e-09
-1.42572e-09
6.76346e-09
3.49292e-10
3.13712e-09
6.03504e-10
-6.5658e-09
5.69013e-09
6.90758e-09
-3.80126e-09
4.3558e-09
5.76327e-09
5.08538e-09
-4.32807e-09
-5.39886e-09
4.98017e-09
-4.24067e-09
-5.28806e-09
-4.47788e-09
3.33153e-09
-4.98159e-09
3.50096e-09
-5.53693e-09
-4.82911e-09
-2.47779e-09
4.47621e-09
3.95797e-09
2.66064e-09
-5.23161e-09
-4.67871e-09
3.57736e-09
-4.13604e-09
-5.44635e-09
3.69923e-09
-2.481e-09
-4.29512e-09
6.89678e-09
-5.92652e-09
-4.00699e-09
4.43126e-09
1.72586e-09
-2.58203e-09
8.62903e-10
7.67147e-10
4.9752e-11
-9.95527e-10
1.78628e-10
-9.37062e-10
-5.90399e-09
-9.13456e-10
7.48748e-09
1.47135e-10
4.98995e-09
4.13564e-09
-4.7719e-09
-4.35369e-09
-5.19556e-09
3.24026e-09
-2.61321e-09
4.56851e-09
-9.26062e-09
6.48067e-09
6.40951e-09
-2.80795e-10
7.19763e-09
6.56608e-09
8.07965e-10
-1.99407e-09
-1.10061e-10
-5.21494e-10
5.21101e-10
-4.941e-09
4.13906e-09
5.31556e-09
-4.51362e-09
-1.53436e-09
2.26372e-09
-1.79097e-09
1.06161e-09
1.66358e-09
-1.48097e-09
-5.29191e-09
-2.83537e-09
-1.1065e-09
4.06014e-09
-4.20238e-09
-3.15994e-09
1.54627e-09
4.44477e-09
-1.05256e-09
-4.93848e-09
-7.03438e-09
4.70361e-09
-4.26877e-09
2.8781e-09
6.31594e-09
-5.61539e-09
-5.30772e-09
5.20561e-09
1.15037e-10
-4.58681e-10
-1.38101e-10
4.81745e-10
-5.56128e-09
3.60393e-09
-5.53072e-09
5.47944e-09
1.71485e-09
7.72166e-10
6.88974e-09
3.6292e-09
-3.58514e-09
4.25204e-09
-4.29611e-09
-6.57914e-09
3.9125e-09
5.01025e-09
-4.41411e-09
4.41943e-09
-5.01557e-09
-5.62341e-09
4.79822e-09
-4.94444e-09
5.76963e-09
2.29416e-09
-1.94482e-09
6.56321e-09
-6.91255e-09
4.73968e-09
-3.03588e-09
-5.13747e-09
6.72625e-09
-6.82296e-09
-5.5499e-09
-4.62705e-09
4.9012e-09
4.25723e-09
5.8313e-09
-5.86229e-09
-4.7681e-09
-5.92691e-09
5.81731e-09
5.57618e-09
4.47135e-09
-4.42481e-09
-4.2517e-09
4.56735e-09
-4.51331e-09
-4.34367e-09
-5.34069e-09
5.87914e-09
4.40818e-09
-4.96029e-09
5.645e-09
4.15191e-09
5.66425e-09
-6.332e-09
-4.70924e-09
4.20765e-09
-4.423e-09
-4.12505e-09
5.76898e-09
-5.83073e-09
-5.53811e-09
4.05202e-09
-3.38719e-09
-7.35837e-09
-1.18682e-09
7.16565e-09
1.37954e-09
1.09277e-09
-3.73601e-09
7.46927e-09
-4.87694e-09
3.96926e-09
-5.18363e-09
5.32428e-09
-4.7137e-09
4.57306e-09
4.07504e-11
-7.86767e-09
7.97078e-09
-4.19655e-09
4.24354e-09
1.04578e-09
-1.39473e-09
1.51773e-09
-1.96311e-09
-7.9449e-10
-9.58492e-10
6.82161e-10
1.07082e-09
6.78453e-09
-4.42524e-09
3.62623e-09
-5.1748e-09
-4.38816e-09
4.89718e-09
4.66577e-09
3.46988e-10
-4.6558e-11
3.18672e-09
-5.12118e-09
7.0578e-09
-6.29998e-09
-4.2068e-09
-5.24898e-09
-4.36677e-10
7.20565e-09
-1.51999e-09
-4.9533e-09
4.13164e-09
6.79604e-09
-5.97438e-09
3.7242e-09
3.43875e-09
-3.38385e-09
-3.7791e-09
5.74367e-09
-4.41971e-09
-6.40951e-09
2.25366e-09
-3.7261e-09
-1.50781e-09
2.98025e-09
1.07053e-09
-9.47381e-10
1.15825e-09
-1.2814e-09
4.51864e-09
-4.99798e-09
-3.55586e-09
4.0352e-09
4.38138e-09
-5.17481e-09
7.45489e-09
-5.34106e-09
-5.70837e-09
6.35965e-09
7.38158e-09
-5.71891e-09
3.40803e-09
2.12045e-09
-1.63732e-09
5.8845e-10
-1.07159e-09
-8.99855e-10
-4.29675e-10
5.45918e-09
-2.4605e-09
2.91089e-09
-5.63194e-09
-5.12224e-09
-3.3645e-09
4.34809e-09
4.13865e-09
-4.00012e-09
-5.89418e-09
-2.63075e-09
2.6527e-09
2.5433e-09
7.70183e-10
-3.8063e-09