/*--------------------------------*- C++ -*----------------------------------*\
  =========                 |
  \\      /  F ield         | OpenFOAM: The Open Source CFD Toolbox
   \\    /   O peration     | Website:  https://openfoam.org
    \\  /    A nd           | Version:  8
     \\/     M anipulation  |
\*---------------------------------------------------------------------------*/
FoamFile
{
    version     2.0;
    format      ascii;
    class       surfaceScalarField;
    location    "10";
    object      phi;
}
// * * * * * * * * * * * * * * * * * * * * * * * * * * * * * * * * * * * * * //

dimensions      [0 3 -1 0 0 0 0];

internalField   nonuniform List<scalar> 
33977
(
3.59059e-09
-1.55855e-10
-3.86409e-09
4.29353e-10
-8.17087e-10
-1.65731e-09
1.72461e-09
7.49786e-10
3.62875e-09
-2.63636e-10
1.36412e-10
-3.50153e-09
3.53529e-09
-3.46364e-09
-2.94156e-10
2.22509e-10
1.98762e-11
-2.29672e-10
-5.02489e-10
7.12285e-10
-1.91501e-09
1.53702e-09
-4.39093e-10
-3.26936e-09
4.23866e-09
-2.29466e-09
1.32536e-09
-1.81526e-09
-2.09578e-09
1.35619e-09
2.55484e-09
3.57816e-09
-3.69322e-09
1.80636e-10
-6.55707e-11
-1.01326e-09
2.10029e-09
-3.15568e-09
2.06865e-09
2.54655e-09
3.63146e-10
-3.0371e-09
1.27404e-10
-1.32808e-09
1.37746e-09
-7.06982e-10
6.57601e-10
-5.93655e-09
-4.50444e-09
4.92852e-09
5.51248e-09
-3.40987e-09
-3.97567e-09
4.48866e-09
2.89689e-09
2.45294e-09
-2.87504e-09
-2.343e-09
2.7651e-09
-1.07286e-09
1.21659e-09
-1.43734e-10
7.41373e-10
-8.17994e-10
-1.25146e-09
-2.712e-09
1.11878e-10
1.71946e-09
8.80661e-10
5.41295e-09
-8.77309e-10
-5.78077e-09
1.24514e-09
2.74314e-09
-1.4993e-09
-2.68333e-09
1.43949e-09
2.59664e-09
2.57812e-09
-2.72181e-09
-1.28286e-09
5.31441e-09
-4.46432e-09
4.32767e-10
-3.9471e-09
3.96329e-09
7.87141e-12
-2.40599e-11
2.61803e-09
-1.36255e-09
1.08901e-09
-2.34449e-09
-2.08809e-09
9.71445e-10
-9.36941e-10
2.05358e-09
2.54518e-09
-2.51703e-09
2.56848e-09
3.91602e-09
-3.91908e-09
-2.72954e-11
3.0351e-11
3.5472e-09
-3.13443e-09
7.18334e-11
-4.84611e-10
-4.46633e-10
-1.08061e-09
6.94539e-09
-5.41815e-09
3.93484e-09
-3.93177e-09
-3.11424e-11
2.80744e-11
3.69586e-09
-3.69825e-09
7.58601e-13
1.63532e-12
8.99755e-10
-8.20216e-10
-4.84418e-11
-3.10965e-11
-3.95214e-09
-2.52374e-11
3.02764e-11
2.64342e-09
2.46917e-09
-2.5674e-09
-3.22816e-09
1.85097e-09
-1.45704e-09
2.83423e-09
1.37445e-09
2.03279e-09
-2.85933e-09
-5.47921e-10
2.45773e-09
2.66877e-09
-2.48308e-09
1.01009e-09
-9.86717e-10
1.52161e-09
-1.54499e-09
-2.8794e-09
-2.286e-11
-7.87497e-11
2.98101e-09
-2.30425e-09
-2.16021e-09
2.41602e-09
2.04844e-09
3.90517e-09
-3.9078e-09
-4.57465e-11
4.83806e-11
3.64476e-09
1.1736e-10
-2.19396e-10
-3.54272e-09
-5.90165e-10
-6.47448e-12
4.14384e-09
2.3336e-09
-2.69564e-09
2.45969e-09
-2.09766e-09
1.30229e-10
-5.84413e-11
2.96759e-09
-3.03938e-09
3.98331e-09
-9.46174e-13
-1.90732e-11
-1.22881e-09
-2.82287e-10
2.77523e-10
1.23357e-09
-1.20145e-09
1.89017e-09
-6.88722e-10
2.60281e-09
2.50849e-09
-2.65358e-09
-2.92325e-09
2.92866e-09
-7.99908e-12
2.59066e-12
-1.74752e-09
7.98083e-10
1.13088e-09
-1.81441e-10
-3.04032e-09
-2.49783e-09
2.66311e-09
2.99923e-09
2.11704e-11
-2.15993e-11
-2.9988e-09
3.72652e-09
-1.0093e-10
3.15794e-12
-2.31507e-09
4.86983e-10
-8.83911e-10
-3.92199e-10
3.09381e-10
1.33502e-09
-1.2522e-09
2.5782e-09
-2.57032e-09
2.59493e-09
-2.59534e-11
7.46178e-10
-3.89454e-09
3.17432e-09
3.67761e-09
-3.66488e-09
-2.27477e-11
1.00113e-11
2.39829e-09
-1.8363e-09
-1.44587e-09
8.83882e-10
-2.85695e-09
2.89066e-11
-7.69169e-11
2.90496e-09
-1.83776e-09
1.89293e-09
1.78985e-09
-1.84502e-09
2.46315e-11
-4.19346e-11
3.1067e-09
-3.36943e-09
-8.81654e-10
1.14438e-09
-3.62295e-10
-9.23597e-12
-2.76289e-09
2.69534e-09
1.48296e-09
-1.78e-09
6.19559e-11
-3.00234e-09
-2.60773e-11
2.96646e-09
1.65488e-10
-1.81697e-09
3.55196e-09
-1.90047e-09
2.65037e-09
-3.78307e-09
7.71899e-09
-6.58629e-09
-1.06782e-09
1.13045e-09
-1.63662e-09
1.57398e-09
2.2037e-09
-1.7376e-10
2.18955e-09
-4.21949e-09
1.32735e-09
-1.48967e-09
1.62316e-10
-4.27473e-09
1.19571e-09
-1.20657e-09
4.28559e-09
3.35155e-12
-3.04048e-09
6.74527e-11
2.96968e-09
2.79862e-09
-2.86104e-09
-2.24183e-09
3.27858e-10
3.78718e-09
-3.98481e-09
3.12364e-09
-5.71463e-11
2.99055e-12
-3.06949e-09
-4.40826e-09
4.22873e-09
5.07393e-10
-5.4901e-09
-1.97592e-09
4.95259e-09
2.51343e-09
3.08802e-09
-1.76085e-09
1.33815e-09
-2.66532e-09
1.36308e-09
-3.14692e-11
2.21858e-11
-1.3538e-09
-2.74253e-09
2.78316e-09
-5.18933e-11
1.126e-11
2.88642e-09
7.18256e-12
9.91257e-11
-2.99273e-09
-6.13504e-10
5.39751e-10
-4.74359e-10
5.48111e-10
-1.04706e-11
1.32745e-09
4.61011e-11
-4.34629e-09
-3.32405e-10
3.144e-10
4.3643e-09
-2.92482e-09
-2.43367e-11
2.59042e-11
1.45985e-09
-9.38015e-10
2.58487e-09
2.67204e-09
2.66541e-09
-2.75925e-09
-2.32208e-09
2.38189e-09
-1.21039e-10
6.12298e-11
8.64104e-10
-4.1143e-09
4.96137e-09
-1.71118e-09
2.53363e-09
-2.79863e-09
2.9743e-09
-2.70929e-09
1.86238e-10
3.52235e-09
-7.00839e-10
-3.00775e-09
3.36952e-09
5.12762e-10
-2.53766e-09
-1.34462e-09
-3.73373e-09
-2.15761e-11
1.09582e-09
2.65948e-09
3.89627e-09
-3.886e-09
-4.8987e-11
3.8719e-11
2.65094e-09
-3.29284e-09
6.41899e-10
2.86025e-10
-1.2e-09
-3.14835e-10
7.41883e-10
-7.97655e-10
-2.2593e-09
-2.58751e-09
-1.62453e-09
6.87146e-10
3.52489e-09
1.04816e-10
5.21722e-09
-4.72839e-09
-5.93651e-10
-2.67587e-09
2.66059e-09
-1.97019e-11
3.49793e-11
-1.61764e-09
1.55992e-09
-1.57017e-09
-4.50911e-10
8.08166e-10
1.21292e-09
3.63999e-09
-3.62643e-09
-2.74396e-11
1.38802e-11
2.50264e-09
-2.70276e-09
-2.58663e-09
2.78675e-09
-2.98132e-10
3.98588e-09
-3.77492e-09
8.71714e-11
1.04579e-09
-6.12194e-09
5.41009e-09
-3.3394e-10
-5.19126e-10
1.02508e-09
-1.33509e-09
8.29135e-10
-2.71752e-09
2.69931e-09
-1.47521e-11
3.29651e-11
7.98173e-09
-7.30461e-09
1.66307e-09
-2.34019e-09
-2.01828e-09
1.9902e-09
7.56141e-10
-7.28064e-10
-2.75804e-09
2.73589e-09
-1.25272e-11
3.46816e-11
2.91532e-09
-2.93119e-09
1.63982e-11
-5.29409e-13
-1.50209e-10
4.57737e-10
3.27063e-09
2.95988e-09
5.18016e-12
-2.99557e-09
3.05017e-11
-2.80382e-09
2.77676e-09
-1.29236e-11
3.99859e-11
-2.69266e-09
2.35984e-09
2.83545e-09
-5.60892e-10
1.07759e-10
-4.94604e-09
5.39917e-09
-2.85064e-09
2.82261e-09
-1.19632e-11
3.999e-11
-2.57421e-11
2.83761e-11
-2.89333e-09
2.86511e-09
-1.11276e-11
3.93518e-11
5.25676e-12
-2.58914e-11
-1.49677e-09
-2.0615e-09
1.33455e-10
3.42481e-09
1.23318e-09
-1.62201e-09
1.51927e-09
9.11817e-12
-3.40075e-11
3.21754e-09
-3.20045e-09
-3.85388e-11
2.14504e-11
-2.67982e-09
-2.006e-09
1.4759e-09
3.20992e-09
-2.02713e-10
4.8758e-10
-4.3677e-10
1.51903e-10
2.90121e-09
-1.04879e-11
2.46012e-11
-3.59772e-09
1.15147e-11
-4.02205e-11
3.17089e-09
-3.16676e-09
-1.62947e-11
1.21659e-11
1.89672e-11
-3.47142e-11
2.92675e-13
-2.82204e-12
3.26728e-09
-3.24557e-09
-3.67358e-11
1.50237e-11
-2.27585e-09
2.85789e-09
2.10498e-10
-7.92545e-10
-3.25697e-09
2.78458e-09
3.66493e-10
1.05897e-10
3.31242e-09
-3.29159e-09
-3.38996e-11
1.30746e-11
1.54441e-09
-3.53196e-10
-4.6635e-09
3.47228e-09
8.26513e-10
-8.34071e-10
-1.02461e-09
1.03217e-09
-3.3763e-09
2.35427e-09
-1.7202e-09
2.74224e-09
3.37612e-09
-3.34687e-09
-5.09661e-11
2.17117e-11
3.50303e-09
-3.51201e-09
-1.24662e-11
2.14469e-11
3.58104e-09
-3.55278e-09
-4.38995e-11
1.56391e-11
5.60735e-10
-1.5026e-09
-2.73894e-09
3.68081e-09
3.48473e-09
-3.49702e-09
3.86805e-12
8.42312e-12
3.50835e-09
-3.49373e-09
-2.62519e-11
1.16286e-11
-1.11129e-09
-6.17573e-09
5.61292e-09
1.67409e-09
-3.8962e-09
-1.09547e-10
3.1317e-09
8.74047e-10
3.90967e-11
3.56322e-09
-6.70238e-11
1.80967e-09
-1.80518e-09
-4.48796e-12
7.12955e-10
3.09162e-09
-3.80206e-09
-2.51341e-12
5.87098e-09
-4.58506e-10
1.43009e-10
-5.55549e-09
-4.26666e-09
-8.70414e-11
-1.65528e-11
4.37025e-09
3.26214e-10
-2.96782e-10
-1.98764e-09
1.95821e-09
2.95759e-09
-1.16403e-11
4.75217e-11
-2.99347e-09
-5.15008e-09
-1.6546e-09
4.14347e-09
2.66122e-09
-7.28848e-11
-5.43814e-10
7.59177e-11
5.40781e-10
-1.4605e-09
-2.7767e-09
1.26413e-09
2.97307e-09
-2.63283e-09
2.63078e-09
-1.32029e-11
1.52605e-11
-3.38155e-11
1.71292e-11
9.98061e-10
7.41789e-10
-9.13337e-10
3.07845e-09
-7.34301e-10
-2.58198e-09
2.37826e-10
-1.5699e-09
2.43421e-09
1.93302e-09
-2.79733e-09
3.87226e-09
-3.85185e-09
-4.28119e-11
2.24028e-11
3.18936e-09
-2.56094e-10
8.00635e-10
-3.7339e-09
-3.69814e-10
3.62116e-09
-3.28639e-09
3.50467e-11
-3.00684e-09
2.92473e-09
2.03634e-09
-1.95423e-09
1.78213e-11
1.79185e-09
1.23694e-09
2.14794e-09
-3.18361e-09
-2.01272e-10
4.00792e-09
-4.20835e-09
-1.1041e-09
1.30452e-09
2.87221e-09
5.98034e-11
-2.71296e-09
-2.19053e-10
-5.37485e-12
-4.09348e-09
3.52827e-09
5.70578e-10
-1.88472e-09
1.93514e-09
9.41181e-10
-9.91594e-10
3.14515e-09
-3.13264e-09
-2.4989e-11
1.24812e-11
-4.39426e-11
-3.16131e-09
1.63157e-10
3.0421e-09
-3.12493e-09
3.09241e-09
-7.54175e-11
1.07934e-10
9.45658e-10
-3.55108e-09
2.87964e-09
-2.74223e-10
-2.11452e-09
2.01108e-09
-1.73433e-09
-1.00868e-09
9.31951e-10
-8.40193e-10
9.16925e-10
-3.25564e-09
2.10002e-10
9.53427e-10
2.09221e-09
-3.37834e-09
1.37594e-11
1.07612e-10
4.91906e-11
-1.39803e-10
-2.23147e-09
-1.47504e-09
1.36313e-09
1.11916e-10
2.98536e-09
-2.98985e-09
-6.31155e-12
1.08008e-11
-3.65672e-09
3.62931e-09
7.4933e-11
-4.75224e-11
-5.26258e-10
4.6826e-09
-4.71724e-09
-9.9851e-10
2.391e-10
-4.13691e-10
1.1731e-09
2.51009e-09
-5.56505e-09
7.59337e-09
-4.53841e-09
-9.528e-11
2.71242e-10
-1.93442e-10
1.74795e-11
2.5974e-10
-3.52645e-09
-7.91973e-11
3.34591e-09
1.8929e-09
-1.40803e-09
-4.84864e-10
-9.55826e-11
-6.76493e-11
2.93057e-09
-2.76734e-09
-1.84842e-09
-7.27034e-10
1.61317e-09
9.6228e-10
2.25883e-11
-1.47129e-11
2.35756e-10
7.83281e-10
-2.83802e-10
-7.35234e-10
2.56228e-09
-6.76556e-10
-1.8065e-09
-7.92293e-11
-2.0686e-10
1.17278e-09
-4.98724e-09
4.02133e-09
1.45387e-09
-6.742e-10
7.36026e-10
-1.5157e-09
-4.04587e-09
4.45275e-09
-4.12722e-09
3.72035e-09
-8.0105e-10
8.25048e-10
2.11757e-10
1.56194e-09
2.35352e-09
-2.45293e-09
-1.46253e-09
2.74007e-09
-1.2312e-09
1.05777e-09
-2.56664e-09
-1.66381e-09
-2.1401e-09
6.93219e-10
3.1107e-09
-3.91292e-10
6.06844e-11
3.08885e-09
-2.75824e-09
6.20206e-10
5.13619e-11
-3.79103e-11
-6.33658e-10
-3.60484e-09
3.16085e-10
-8.95914e-11
4.5769e-09
-1.97453e-09
-3.71248e-09
1.1101e-09
4.42249e-09
-4.38874e-09
-1.35548e-11
-2.02033e-11
3.53042e-09
-3.14327e-11
9.36442e-12
2.99366e-09
-2.94615e-09
-6.31333e-11
1.56283e-11
3.45889e-11
-4.84982e-11
-3.15354e-09
3.35831e-09
-3.15677e-10
1.109e-10
3.06911e-09
-3.0312e-09
-5.84349e-11
2.05237e-11
-8.58438e-10
4.56786e-10
9.06958e-10
-5.05307e-10
-1.5005e-09
7.71374e-10
3.19331e-09
-2.46419e-09
-8.97315e-10
1.17703e-09
-2.98972e-09
2.71e-09
-1.999e-09
2.75255e-09
2.04508e-09
-1.35784e-10
4.67877e-09
-4.63064e-09
8.76545e-11
4.98248e-09
-3.07684e-09
-1.12577e-09
-7.79868e-10
-1.01357e-10
3.46547e-09
-6.25804e-11
-3.30153e-09
-2.26614e-09
3.09845e-09
1.86302e-09
8.84472e-10
-8.37058e-10
3.21943e-10
-3.69356e-10
2.30577e-09
-5.09845e-09
-1.53223e-09
4.32491e-09
1.54656e-11
-3.78236e-11
2.06487e-09
-1.40054e-09
2.07573e-09
3.27743e-09
1.23041e-09
-2.30213e-09
-2.20572e-09
-3.42644e-09
3.17245e-09
9.18592e-10
-6.64601e-10
-1.24577e-09
-1.04136e-09
2.04708e-09
2.40048e-10
-2.61087e-09
2.61223e-09
-1.00097e-11
8.65249e-12
-1.37859e-09
1.41889e-09
-1.02701e-09
-4.35496e-09
7.90204e-10
-4.00815e-11
2.78916e-09
-2.74135e-09
-8.51766e-10
8.03956e-10
1.0582e-09
-4.51069e-09
-8.54768e-10
4.30726e-09
4.29995e-09
-4.34815e-09
1.1064e-09
-4.51849e-09
-1.46693e-09
6.6443e-09
-6.58875e-10
1.59498e-09
-1.43628e-09
-2.61138e-09
2.45269e-09
1.51646e-09
-1.70594e-10
-1.34587e-09
1.16572e-09
-4.67124e-09
6.01561e-09
-1.27388e-09
2.9904e-09
-2.1647e-09
4.48181e-10
3.90606e-09
3.66906e-10
-4.44573e-09
1.72764e-10
-1.92816e-11
-3.54455e-09
3.54239e-09
2.14486e-11
5.62172e-10
-5.88716e-11
-5.76185e-10
-2.73396e-09
1.22395e-09
-6.8108e-10
2.19109e-09
4.99802e-09
1.31876e-09
-3.26416e-09
-3.05262e-09
-3.82313e-09
3.83799e-09
1.93276e-11
-3.41869e-11
4.78662e-09
-4.47072e-09
-3.72577e-09
-6.34435e-12
2.99335e-09
1.22251e-11
3.90594e-11
2.80373e-09
5.07521e-11
-2.89355e-09
4.33923e-10
-4.32013e-10
1.04435e-10
-1.06345e-10
2.64306e-10
-5.1978e-10
-2.15548e-10
4.71022e-10
2.24491e-09
1.81426e-09
-3.92811e-09
-1.3106e-10
7.86927e-09
-5.92372e-09
7.04817e-10
3.19734e-09
1.28164e-09
-1.94536e-09
4.94293e-10
-9.52122e-11
-5.0487e-10
1.05789e-10
-1.48632e-09
-2.16443e-09
-7.8541e-12
3.6586e-09
3.07854e-09
-3.09602e-09
7.483e-12
1.00001e-11
-1.18973e-09
1.1552e-09
-2.75503e-10
3.10035e-10
1.46092e-10
-1.9257e-10
-3.23877e-09
1.24913e-09
3.51488e-09
-1.52523e-09
4.68581e-09
7.46936e-10
-4.56864e-09
3.67586e-09
-4.41661e-11
1.30681e-11
-8.24323e-10
-3.57325e-09
2.82767e-09
1.94672e-09
-1.29085e-09
1.40901e-09
5.92017e-11
3.04891e-10
-5.23347e-10
1.59254e-10
-1.12367e-09
9.16347e-10
-9.23072e-10
1.1304e-09
-4.553e-09
4.60622e-09
-4.27582e-10
3.74365e-10
4.60666e-10
-2.25676e-09
-3.9932e-10
2.19541e-09
1.08626e-10
-1.02007e-10
-4.03745e-09
4.03083e-09
-6.44888e-10
1.37307e-10
-1.73417e-10
6.80998e-10
2.67852e-09
5.87271e-11
-2.91653e-10
-2.44559e-09
-3.81197e-09
-3.09712e-11
1.98132e-11
-1.60336e-09
2.8953e-09
-2.75244e-09
-5.77867e-09
-2.18592e-09
1.76035e-09
6.20424e-09
2.30878e-09
-1.99358e-09
-2.47607e-09
2.16088e-09
9.53667e-11
1.07486e-10
-3.05383e-09
2.85098e-09
3.0909e-11
-1.64353e-11
-5.63228e-09
5.6846e-09
-9.23426e-11
4.00226e-11
-3.68473e-09
2.24075e-09
1.26337e-09
1.80611e-10
-2.34804e-09
2.22386e-09
1.71915e-09
-2.242e-09
2.39769e-09
2.15309e-09
2.07747e-10
5.04336e-10
-5.92023e-10
-1.20059e-10
1.57652e-09
-4.40222e-09
3.80167e-09
-9.7598e-10
6.16725e-10
-5.95019e-10
2.50393e-10
-2.72099e-10
4.40213e-11
-5.55572e-11
3.85038e-09
-6.1241e-09
6.00414e-09
-3.73041e-09
-1.48012e-09
-1.98518e-09
7.75475e-10
2.68982e-09
7.33875e-11
-2.63732e-09
-4.57291e-11
2.60966e-09
-1.22097e-09
-1.85628e-09
4.53004e-10
2.62425e-09
2.69641e-09
-1.93978e-09
1.18852e-09
-1.94516e-09
-1.17236e-09
-1.29819e-10
1.30218e-09
3.05091e-10
-3.32212e-09
4.98866e-09
-1.97163e-09
-2.59033e-09
2.57454e-09
-1.54333e-11
3.12181e-11
7.36319e-10
-6.3289e-10
-1.81749e-09
1.71406e-09
1.85503e-10
-2.58671e-09
2.82964e-09
-4.2843e-10
-3.05495e-09
3.00336e-09
-3.27792e-11
8.43688e-11
-1.02434e-09
-1.9906e-09
3.0467e-09
-3.17687e-11
5.43498e-09
-4.48052e-09
-1.41232e-09
4.5786e-10
-3.53638e-09
-4.44696e-09
2.49324e-09
3.69197e-09
-2.51698e-11
-3.67188e-09
5.0838e-12
4.89054e-09
-3.04836e-10
-4.88224e-09
2.96544e-10
5.651e-10
-5.37488e-10
2.47262e-10
-2.74874e-10
-2.96258e-09
3.82069e-09
-9.04812e-10
4.67053e-11
1.0239e-10
-7.52207e-10
-1.51233e-10
-1.73666e-10
-3.18328e-10
1.59129e-10
3.32865e-10
2.04138e-09
3.05861e-09
-2.76639e-09
-7.31076e-10
8.91394e-10
-4.68372e-09
4.5234e-09
3.32016e-09
5.29122e-10
-4.36687e-11
-3.80562e-09
-1.96072e-10
-9.64306e-10
1.16038e-09
-8.01427e-10
1.94354e-09
8.95897e-10
-2.03801e-09
1.8677e-09
-1.22795e-09
2.44827e-09
-4.65106e-09
-3.89833e-09
3.54609e-09
5.0033e-09
-3.10049e-09
-1.10637e-10
5.75886e-11
5.11593e-10
-4.92057e-10
2.24764e-10
-2.443e-10
-2.39303e-09
2.53687e-10
-1.49e-10
2.28834e-09
-1.79074e-09
-3.48587e-09
1.48449e-09
3.79211e-09
-3.79921e-09
3.80679e-09
1.72689e-11
-2.48545e-11
-3.29267e-10
8.47849e-10
-2.03914e-09
1.52056e-09
1.15776e-09
-1.17254e-09
-2.13284e-09
2.14762e-09
2.4247e-09
-2.66414e-09
-2.55919e-09
-1.13318e-09
4.53113e-09
-3.39796e-09
-3.6584e-09
2.7169e-09
3.9018e-09
-2.9603e-09
7.25018e-12
-1.62507e-11
1.303e-10
-5.99335e-09
-1.49482e-10
6.01253e-09
-1.54019e-09
-4.3398e-09
5.14892e-09
-6.79401e-10
-2.86289e-10
9.65689e-10
9.38127e-11
-3.09469e-09
-7.32851e-10
4.72397e-10
-4.30128e-10
2.1439e-10
-2.56659e-10
2.41012e-10
-7.4184e-10
-2.21711e-09
2.71794e-09
-2.96416e-09
5.70339e-12
1.88426e-10
2.77003e-09
3.44206e-09
-8.36382e-11
1.77042e-11
1.33488e-09
-5.54702e-09
5.25793e-09
1.08521e-09
-6.58155e-10
-1.16193e-09
7.34877e-10
2.12983e-11
-1.58492e-10
3.06725e-09
-2.93006e-09
3.25598e-09
-4.00615e-09
7.7116e-10
-2.09873e-11
-3.04425e-09
6.47514e-11
3.02381e-09
-4.4309e-11
3.89119e-10
-3.63666e-10
1.96986e-10
-2.22439e-10
4.21326e-09
-4.4885e-09
-1.02215e-09
1.29738e-09
-3.5483e-09
3.50292e-09
9.2412e-11
-4.70277e-11
1.04281e-09
7.57464e-10
-1.80028e-09
-2.57457e-12
7.23808e-11
-2.50351e-09
2.1559e-09
-3.58512e-10
7.06121e-10
-1.20324e-09
1.19989e-09
3.05016e-09
-3.04681e-09
1.31947e-10
-1.12859e-09
1.60608e-10
4.10007e-09
-4.0763e-09
-1.84378e-10
-3.5872e-09
3.18492e-10
3.36409e-09
-9.53806e-11
5.82216e-10
-3.19304e-10
-3.05002e-10
4.20892e-11
4.38276e-09
-1.8509e-09
-3.81472e-09
8.55462e-11
-7.43087e-11
4.00673e-09
-4.01796e-09
8.34696e-11
-2.45717e-10
2.83751e-09
-2.67526e-09
3.38538e-10
-3.21539e-10
1.7814e-10
-1.95139e-10
-3.07888e-09
3.87825e-09
-1.56075e-09
7.61376e-10
2.6131e-10
-3.75349e-10
3.92695e-09
3.11309e-10
-1.98229e-09
-2.25597e-09
-3.44779e-09
3.38943e-09
8.50257e-11
-2.66658e-11
-5.28722e-11
4.30815e-11
4.43714e-10
9.78817e-10
2.70998e-09
-3.28166e-11
-3.51046e-09
3.49077e-09
5.25017e-11
3.0023e-10
-2.86393e-10
1.59358e-10
-1.73195e-10
-3.24275e-09
3.12741e-09
1.76065e-10
-6.07229e-11
1.99698e-09
2.4396e-10
-1.72891e-09
-5.12034e-10
2.76208e-10
-3.00616e-10
1.44561e-10
-1.20153e-10
-3.21465e-11
1.1315e-10
-3.35208e-09
3.3106e-09
6.57589e-11
-2.42754e-11
-3.37111e-09
3.42459e-09
-2.67436e-11
-2.6743e-11
2.22407e-10
-2.01133e-10
1.46517e-10
-1.6779e-10
-2.62512e-10
2.80215e-10
1.81779e-10
-1.99482e-10
-1.65808e-09
1.20113e-09
-2.91935e-09
-3.28678e-09
3.3112e-09
-1.21876e-11
-1.22297e-11
-5.54378e-09
2.70606e-11
-1.1556e-10
1.8763e-09
-1.79882e-09
-3.47505e-09
3.39757e-09
1.03494e-09
-1.01185e-09
-1.14676e-09
-8.43329e-10
9.04017e-10
1.02452e-09
-4.49893e-09
-2.13689e-09
1.88596e-09
4.74986e-09
2.52676e-09
-2.85935e-09
3.50877e-09
-3.17618e-09
1.78631e-10
1.13259e-10
-1.2903e-10
-1.6286e-10
3.18052e-11
-3.06827e-09
-1.40935e-11
3.05055e-09
1.39935e-09
-4.26371e-09
3.04031e-09
-1.75951e-10
-3.59835e-09
3.43155e-09
1.66795e-10
3.89302e-10
1.75824e-10
-1.52357e-10
-4.12769e-10
2.8783e-10
-3.41608e-10
-2.53212e-09
2.52376e-09
-1.60568e-11
2.4424e-11
-2.00738e-09
2.19457e-09
1.46136e-09
-1.64855e-09
3.40906e-11
-1.53e-11
-1.40962e-12
-2.43195e-12
9.23149e-11
-8.84734e-11
-3.37972e-09
5.60218e-10
-3.74118e-10
3.19362e-09
-2.21117e-09
-3.45948e-09
3.19326e-09
2.47739e-09
3.06934e-09
3.03187e-11
-3.15511e-09
5.54558e-11
-2.74647e-09
-1.211e-09
2.52119e-09
-3.47931e-09
3.23653e-09
2.01368e-09
-1.77091e-09
-7.07318e-10
-2.56788e-09
1.02654e-10
3.17254e-09
6.81967e-10
4.41865e-11
-6.59142e-10
-6.70119e-11
3.67506e-11
-5.04926e-11
-6.28134e-09
5.08741e-09
5.04431e-09
6.5317e-10
-5.6351e-10
5.59977e-10
-6.49637e-10
5.55547e-09
-5.41339e-09
-2.13262e-10
7.11827e-11
5.55409e-10
2.25588e-09
-2.83908e-09
2.77932e-11
1.1399e-11
-1.17304e-11
-1.80264e-11
1.83578e-11
3.46212e-10
-1.83165e-10
-3.36714e-10
-2.4644e-09
3.51537e-09
7.32893e-10
-1.78387e-09
3.05579e-09
-2.9484e-09
9.85906e-11
-2.05975e-10
-3.9959e-09
-3.94915e-09
2.74141e-09
5.20365e-09
2.36479e-09
-4.55341e-10
4.69205e-10
-2.37866e-09
-3.87851e-09
3.81495e-09
2.45261e-10
-1.81707e-10
9.56338e-10
-4.38008e-09
4.39129e-09
-9.67554e-10
8.86173e-11
-5.11491e-11
-3.06206e-09
3.12787e-09
-3.72421e-09
-3.42556e-09
-1.43212e-09
1.16391e-09
3.69376e-09
1.4806e-09
-6.60235e-10
5.57096e-10
-1.78224e-09
-4.30451e-09
1.57606e-09
6.00038e-11
-5.46591e-11
5.56827e-10
1.9122e-09
-2.52979e-09
-8.31989e-10
1.44958e-09
1.35384e-09
-4.15078e-09
-2.76811e-09
2.63375e-11
2.96279e-09
-3.7685e-12
5.16535e-12
8.41893e-13
3.73577e-10
-3.26322e-10
-2.49967e-10
-3.80217e-09
-3.53278e-11
3.82918e-11
1.33782e-10
-4.81095e-10
7.46899e-10
-3.99585e-10
2.92175e-09
-1.02497e-09
2.13867e-10
-2.11065e-09
-4.5406e-09
8.68058e-10
-6.73746e-10
2.9489e-09
-2.15435e-09
-1.16952e-09
3.74964e-10
3.50395e-09
-6.99842e-09
-1.91057e-09
5.40504e-09
-4.58349e-11
3.00726e-09
1.61956e-10
-3.12338e-09
5.77894e-09
3.59585e-11
8.64219e-11
-3.12929e-11
-4.51169e-09
-1.58239e-09
4.87258e-09
1.22151e-09
-8.69824e-10
2.71247e-09
5.82006e-10
-2.42466e-09
-4.36728e-09
-1.99516e-10
4.67494e-10
4.09931e-09
-3.78618e-09
3.99679e-09
3.9329e-09
-4.14351e-09
1.9658e-09
-2.23285e-10
-2.62228e-09
8.79763e-10
-2.58953e-09
1.52706e-09
-1.74902e-09
2.81149e-09
4.36525e-09
2.50503e-09
-5.47093e-09
-1.19121e-09
-2.1596e-09
2.94841e-09
4.02405e-10
6.62613e-10
-3.41838e-09
2.62916e-09
1.26602e-10
-5.4628e-09
1.11665e-10
8.82528e-10
4.4686e-09
-2.99293e-09
3.41089e-09
3.69577e-10
-7.87541e-10
1.60237e-09
-1.44728e-09
-2.31264e-09
2.15755e-09
2.83524e-09
-3.13021e-09
3.7526e-10
-8.0298e-11
1.70911e-09
-2.15166e-09
4.20981e-09
-3.76726e-09
-1.65959e-09
7.18204e-10
-2.99214e-10
1.2406e-09
-1.85223e-09
2.09198e-09
2.50052e-10
-3.19185e-10
2.9047e-10
-2.21337e-10
-8.17011e-11
1.0332e-09
-2.82542e-09
1.87392e-09
3.27086e-10
-2.19066e-09
2.32424e-09
-1.6098e-10
2.86717e-10
-2.73964e-10
1.48227e-10
-2.14203e-09
-1.44735e-09
2.09692e-09
1.49246e-09
2.13571e-10
7.46073e-10
-1.46587e-10
-8.13057e-10
3.48948e-09
-5.34452e-09
2.48387e-09
-6.28823e-10
-8.59175e-10
1.3921e-09
-3.11442e-09
2.58149e-09
2.05305e-09
-3.20988e-09
-4.46528e-10
-3.18098e-12
4.75865e-12
-8.96421e-11
8.80644e-11
1.66418e-09
-8.03793e-10
1.08633e-09
-1.68603e-09
-2.67773e-09
1.09441e-09
-2.96766e-09
2.91436e-09
-2.09369e-11
7.4237e-11
6.90099e-11
-6.14635e-11
3.98919e-09
-3.99673e-09
7.32626e-12
1.38363e-10
-4.30008e-12
-1.41389e-10
2.10038e-10
-2.38201e-10
-1.98845e-09
-1.84558e-09
2.01877e-09
-3.29331e-09
3.70044e-09
-4.19331e-09
2.19271e-09
8.16389e-10
-3.45892e-09
4.49816e-10
3.03934e-09
-1.22239e-09
-2.52426e-09
-4.40815e-09
-1.06492e-09
9.2007e-10
-3.55534e-09
-1.92224e-09
3.44853e-09
2.02905e-09
2.90015e-09
-2.89822e-09
2.21489e-11
-2.40816e-11
3.40999e-10
8.04739e-09
-1.98831e-09
-6.40008e-09
-3.29772e-09
1.12229e-10
3.22328e-09
-3.77898e-11
-2.35141e-09
-2.84592e-09
2.88457e-09
2.31276e-09
3.3073e-09
-2.92591e-09
-1.40573e-09
-2.06401e-09
1.63334e-09
-1.09659e-09
1.52726e-09
-1.72032e-10
-1.87514e-09
2.04717e-09
3.61914e-09
-2.4208e-09
1.68656e-09
-6.33297e-09
3.69354e-09
9.52873e-10
3.04325e-12
4.82867e-12
-7.87192e-12
2.83199e-09
-3.86143e-09
-1.9774e-09
-2.09302e-09
-1.20441e-09
2.41256e-09
8.84875e-10
-1.08605e-09
9.78352e-10
-3.59701e-10
4.67398e-10
2.07459e-10
-4.12502e-09
4.06049e-09
-1.42929e-10
8.86853e-10
-5.395e-10
3.41374e-09
-2.4667e-09
-3.2417e-09
2.4957e-10
-2.79489e-10
-3.21614e-11
-3.44951e-09
3.42159e-09
6.00806e-11
1.62355e-10
-3.00759e-09
-1.23714e-10
2.96894e-09
1.79801e-09
-2.34268e-09
2.09561e-09
-1.55094e-09
2.05563e-09
-3.2928e-09
1.45591e-09
-2.18741e-10
1.61226e-09
9.35669e-10
-3.22281e-10
-2.22565e-09
2.47874e-09
7.80875e-11
-1.74932e-10
-2.58494e-09
2.55421e-09
-6.83248e-10
5.45372e-10
-4.83526e-10
6.21402e-10
6.82172e-10
-1.73974e-09
1.82847e-09
-7.70896e-10
-4.13873e-09
4.20651e-09
9.28267e-11
1.60777e-09
-1.56867e-09
1.72794e-09
-3.7865e-09
-1.22477e-09
3.28333e-09
-4.64817e-09
7.84313e-11
-1.76124e-10
4.74587e-09
9.38483e-12
-7.93326e-11
-8.14965e-10
5.56208e-09
1.43975e-10
-4.89109e-09
3.22141e-10
-3.49311e-10
2.67423e-10
-2.40253e-10
3.31702e-11
-1.44575e-11
-3.74762e-11
4.67818e-11
6.109e-10
3.52021e-09
-5.06173e-09
9.76756e-10
5.6476e-10
-1.6025e-09
1.98126e-09
1.51417e-09
1.79735e-11
-3.18351e-11
2.81989e-09
-2.53093e-09
-3.1714e-09
2.88245e-09
7.4714e-10
3.44602e-10
-1.91988e-10
2.2435e-09
-2.50887e-10
-4.00602e-09
2.0134e-09
2.36618e-10
-2.62513e-10
2.60238e-10
4.0487e-09
-3.81986e-10
3.77104e-12
-1.06077e-11
-2.86562e-11
3.54928e-11
-4.11107e-09
5.09899e-09
-3.33933e-09
7.728e-11
-4.08226e-09
4.11361e-09
-2.17934e-09
2.05379e-09
-3.62059e-09
3.74614e-09
1.28823e-10
-2.7747e-09
1.57538e-11
2.63012e-09
-1.37503e-10
3.81487e-09
-3.83138e-09
1.54012e-10
-2.71698e-09
3.61472e-09
2.81578e-11
-9.25904e-10
-1.18558e-09
3.03556e-09
7.54125e-10
-2.6041e-09
3.62759e-09
-3.62346e-09
2.31475e-11
-2.72816e-11
4.19784e-09
-3.30267e-09
-1.42143e-09
2.01373e-09
-8.24077e-11
-1.86046e-09
-7.08623e-11
2.39228e-09
-1.32602e-09
-2.5103e-09
2.50577e-09
2.5487e-12
1.98313e-12
3.02576e-09
-3.04168e-09
3.84713e-11
-2.2554e-11
-4.13753e-10
-1.29067e-09
6.18378e-10
-1.94851e-09
2.97007e-09
-2.95821e-09
1.74768e-11
2.94203e-09
-1.29089e-12
2.21618e-10
-2.41278e-10
-5.80696e-10
5.59398e-10
-5.85158e-10
5.69688e-10
-7.23939e-10
7.39409e-10
2.86616e-09
-2.86015e-09
1.80799e-11
-2.40853e-11
2.96498e-09
6.41617e-11
-3.71871e-11
-2.99195e-09
3.73201e-09
3.49039e-09
-3.15836e-09
-4.06405e-09
-2.853e-09
3.41611e-09
-2.22119e-09
3.05909e-09
-3.03294e-09
-3.02765e-11
4.1215e-12
2.77939e-09
4.99649e-09
2.05848e-10
1.5172e-09
1.98988e-09
-1.07288e-09
-2.6902e-09
2.63166e-09
9.9955e-11
-4.14091e-11
-2.56916e-09
3.4009e-10
2.84334e-09
-2.63373e-09
-1.48349e-09
-4.48382e-11
1.78797e-09
-1.74313e-09
2.06515e-10
-2.47524e-10
3.22762e-11
-6.36567e-11
-4.12801e-09
-1.2042e-09
2.27015e-09
-1.50814e-09
1.76838e-09
3.02069e-09
-2.98996e-09
-4.00595e-11
9.33528e-12
5.76399e-10
-5.6831e-09
5.54697e-09
-4.40263e-10
-1.93263e-09
-5.67539e-10
9.29997e-10
-3.49915e-09
9.38761e-10
2.86548e-09
7.15381e-10
-1.0795e-09
-1.69989e-09
-2.27392e-10
-2.21518e-09
2.31155e-09
1.31026e-10
-4.59928e-09
-2.06673e-10
4.69186e-09
1.1409e-10
-5.39617e-09
-4.55122e-10
5.26877e-09
5.82522e-10
2.97622e-09
-2.9579e-09
-2.72918e-11
8.97459e-12
2.55964e-09
-4.32265e-11
-2.54072e-09
2.4301e-11
1.75297e-11
-4.02858e-09
-3.18989e-11
4.04295e-09
4.34515e-11
-4.21919e-11
4.48459e-13
-1.70806e-12
-1.06143e-10
4.83335e-11
3.74978e-09
-4.12712e-09
-3.44784e-10
5.93396e-10
3.75842e-09
4.52816e-09
-5.04805e-09
-3.23853e-09
6.0828e-11
-7.22482e-11
5.05713e-10
1.13504e-09
1.71557e-09
-1.37813e-09
-1.47248e-09
1.81356e-10
-2.06484e-10
2.95802e-09
-2.9626e-09
-4.82461e-12
9.40543e-12
4.30814e-11
1.40718e-10
-2.86713e-09
2.68333e-09
-1.63165e-09
-2.51775e-09
3.09023e-09
1.05917e-09
1.32018e-10
2.36436e-09
1.21831e-10
-2.61821e-09
-3.03406e-09
-8.97527e-10
3.86972e-09
6.1871e-11
-6.02471e-09
6.4066e-09
-1.19686e-09
1.09177e-09
-1.24494e-09
-2.32792e-09
2.48109e-09
6.92413e-11
-3.35488e-11
2.51528e-11
-2.78273e-11
1.2856e-10
-1.25886e-10
2.93957e-09
-2.89717e-09
-6.33784e-11
2.09742e-11
-5.95424e-12
-1.64689e-09
1.65284e-09
5.94393e-11
-5.52836e-11
3.97039e-09
-3.97454e-09
1.45741e-09
3.00543e-09
-4.10772e-09
-3.55122e-10
-5.82327e-11
-2.44031e-09
5.0331e-11
2.44821e-09
-6.48411e-11
1.419e-11
-2.26734e-11
7.33245e-11
2.8405e-09
-2.80285e-09
-5.58614e-11
1.82106e-11
3.54017e-09
-1.66885e-09
-3.62169e-12
1.63461e-10
-1.84771e-10
-2.77472e-09
2.87967e-09
7.64836e-12
-1.12598e-10
-3.30502e-09
3.71456e-09
-7.554e-10
3.45862e-10
3.9778e-09
4.99684e-09
-5.21622e-09
2.76102e-09
-2.74881e-09
-1.11305e-11
-1.07621e-12
1.71585e-10
-3.34607e-09
3.24788e-09
-2.84694e-09
-5.69008e-11
-5.38937e-11
2.95774e-09
2.42005e-09
-5.75635e-12
-6.61936e-09
4.20507e-09
-3.08206e-09
-6.74094e-11
3.19426e-09
-4.47873e-11
7.30582e-09
-6.08212e-09
-1.2237e-09
7.77448e-10
-5.08886e-09
5.64629e-09
-4.10743e-09
2.59299e-09
-1.99441e-09
-2.52956e-09
2.25139e-09
2.27257e-09
-4.19546e-09
-4.71476e-09
3.76014e-09
-3.09245e-09
2.96975e-09
1.33472e-09
-1.48945e-09
4.69368e-10
-3.14637e-10
-1.82472e-09
2.25591e-09
-4.3119e-10
1.33182e-09
-4.26369e-09
-4.94564e-10
1.80029e-09
-1.9225e-10
-1.28183e-09
2.8222e-09
-2.81778e-09
1.88419e-11
-2.32604e-11
7.13179e-11
-8.04458e-11
1.44143e-11
-5.2863e-12
1.42874e-10
-1.53059e-10
-4.05136e-09
6.13188e-11
4.07558e-09
5.07217e-09
-5.04713e-09
-1.00519e-10
7.54722e-11
1.61553e-09
-1.63482e-09
-2.68989e-09
2.48293e-09
-1.2065e-10
3.27609e-10
1.19488e-09
-1.12544e-09
-5.4233e-09
5.35387e-09
3.64089e-09
-3.60496e-09
1.78e-11
-5.37319e-11
-2.44474e-09
2.34789e-09
2.62361e-09
-5.33401e-09
1.50354e-09
3.85379e-09
-2.33158e-11
-5.746e-11
5.97699e-11
-3.78383e-12
1.47395e-12
-3.0964e-10
1.72698e-10
-1.81386e-10
1.0427e-10
-3.40852e-09
3.3303e-09
-2.60477e-11
-4.55362e-09
4.68928e-09
-2.4309e-10
1.07431e-10
-4.67338e-09
2.16616e-10
4.25321e-09
2.03559e-10
-1.37679e-09
-1.31418e-09
9.69208e-10
1.72176e-09
-3.2546e-09
1.3004e-09
-1.27397e-09
1.50007e-10
-2.28216e-10
-4.39043e-09
3.85526e-09
-1.00238e-09
1.53754e-09
1.8196e-09
-1.74605e-09
2.67291e-09
-2.74647e-09
-2.72029e-11
2.91546e-09
-2.8803e-09
2.82493e-09
-1.91208e-11
7.44927e-11
-2.82309e-11
-3.38025e-09
3.35022e-09
5.82604e-11
-3.84379e-09
3.13027e-09
3.53927e-09
-2.82575e-09
3.12014e-11
-1.28346e-11
4.76901e-09
-4.75802e-09
-6.15094e-11
5.05197e-11
2.87373e-09
2.40903e-10
-3.07651e-09
-3.8117e-11
-1.75133e-09
4.32458e-11
1.70808e-09
-2.43006e-09
2.27929e-09
-1.60056e-09
3.29383e-11
-2.45377e-10
-2.38211e-09
2.02518e-09
1.1297e-09
-7.72774e-10
-9.69775e-11
-3.83372e-09
1.98525e-10
3.73217e-09
2.98286e-09
-4.76632e-09
2.83667e-09
-1.05321e-09
-3.33937e-09
2.39311e-09
-1.04814e-09
1.58199e-09
-1.57783e-09
-1.94948e-09
1.94532e-09
-2.40201e-09
-1.85302e-09
2.26658e-09
-7.15969e-11
1.4145e-10
-3.13838e-09
3.06853e-09
2.4662e-09
2.2861e-09
-1.38278e-09
-7.73782e-11
1.29431e-10
-4.70023e-09
-1.6369e-10
-3.1872e-09
5.31707e-11
-2.27863e-10
-3.59174e-09
4.39881e-10
1.63754e-09
-2.37995e-09
-3.10137e-09
1.96091e-09
-2.96766e-09
2.55788e-09
-1.55113e-09
9.58759e-12
-4.40417e-11
-1.12647e-09
4.64105e-10
-1.97284e-09
2.6352e-09
-5.49093e-09
9.07141e-10
-7.98689e-10
3.64005e-09
-1.03224e-10
-2.73813e-09
3.48337e-09
-1.33576e-09
4.7324e-10
-2.62085e-09
-2.37959e-11
-9.28436e-11
-4.61371e-12
1.21253e-10
-2.10985e-09
-1.45284e-09
1.42067e-09
2.92394e-09
-2.94657e-09
2.17208e-11
9.11635e-13
4.79105e-09
-3.49585e-11
1.29164e-11
1.08628e-08
-3.05349e-09
-7.46833e-09
1.02705e-09
1.37275e-09
-9.4593e-10
-4.18933e-09
2.23616e-09
-1.23213e-09
3.1853e-09
-6.08822e-09
1.42166e-09
5.82227e-09
-1.15571e-09
2.84921e-09
-1.20586e-09
2.82226e-10
-1.92558e-09
-1.7694e-11
4.47804e-09
-4.53773e-09
4.78153e-09
-4.98217e-12
1.45108e-11
-4.70382e-09
-1.28268e-10
7.40642e-11
2.85324e-09
3.69648e-12
1.03844e-11
-2.86732e-09
-2.62505e-09
1.76502e-10
-5.27089e-10
2.97563e-09
2.92351e-09
-1.91655e-09
1.45924e-09
-3.27927e-09
6.02154e-10
-1.30894e-11
1.09533e-10
-1.20366e-10
1.70509e-11
-6.21777e-12
-3.95035e-09
-1.9562e-10
5.43707e-10
3.60226e-09
-8.07703e-10
9.13179e-10
-1.76527e-10
1.83468e-10
-4.71076e-09
-1.17091e-10
5.30239e-12
-1.45621e-11
1.2635e-10
-1.0796e-09