/*--------------------------------*- C++ -*----------------------------------*\
  =========                 |
  \\      /  F ield         | OpenFOAM: The Open Source CFD Toolbox
   \\    /   O peration     | Website:  https://openfoam.org
    \\  /    A nd           | Version:  8
     \\/     M anipulation  |
\*---------------------------------------------------------------------------*/
FoamFile
{
    version     2.0;
    format      ascii;
    class       surfaceScalarField;
    location    "10";
    object      phi;
}
// * * * * * * * * * * * * * * * * * * * * * * * * * * * * * * * * * * * * * //

dimensions      [0 3 -1 0 0 0 0];

internalField   nonuniform List<scalar> 
10659
(
-8.50178e-09
8.71445e-09
2.02301e-10
-4.14979e-10
3.23844e-10
-7.33475e-10
8.34553e-09
-7.9359e-09
8.37852e-09
-7.62248e-09
4.20915e-10
-1.17696e-09
-8.22394e-09
-4.15653e-10
1.37818e-10
-1.31677e-08
3.45682e-09
1.04501e-08
-7.39183e-10
-3.14913e-10
6.03212e-09
-6.31685e-09
5.99647e-10
1.08867e-10
4.38027e-11
-7.6735e-11
-7.59348e-11
-1.50945e-09
-2.43301e-09
2.38442e-09
1.55804e-09
8.74409e-09
-8.59094e-09
2.05582e-11
-1.73713e-10
-2.50058e-09
2.19287e-09
-4.08991e-09
4.39762e-09
-9.13648e-09
-4.41365e-11
1.0958e-10
9.07104e-09
-3.66109e-10
4.26823e-09
-3.90212e-09
-8.50125e-09
8.80133e-09
1.95392e-10
-4.95468e-10
1.35172e-10
8.06336e-09
-3.04094e-10
-7.89444e-09
-6.94299e-11
3.02556e-10
8.51097e-09
-2.04804e-09
-3.79531e-09
3.34277e-09
-2.19573e-10
2.15224e-10
4.34891e-12
-2.01212e-09
-5.95385e-09
4.27627e-09
3.6897e-09
-6.99721e-09
-3.47021e-10
1.00076e-09
6.34347e-09
-8.32769e-09
-2.56724e-10
-6.52052e-12
-4.12673e-09
4.18991e-09
-6.31775e-11
8.88848e-11
-1.1374e-10
1.33722e-10
5.037e-09
3.06608e-09
-7.5975e-09
-5.05583e-10
-1.30688e-10
5.05027e-09
-4.88592e-09
-1.64354e-10
-9.40741e-09
-1.82504e-10
6.90446e-10
8.89947e-09
-8.25103e-09
-3.52623e-10
1.02399e-10
8.90906e-09
1.7317e-10
-3.67778e-10
5.57833e-09
-2.44994e-09
-6.61584e-09
3.48744e-09
8.62873e-09
-8.49792e-09
-1.23565e-11
-1.18458e-10
-9.06427e-09
9.37993e-09
6.44638e-10
-9.60298e-10
2.34552e-10
1.09621e-10
-2.2375e-10
-1.20422e-10
-7.54754e-09
6.14104e-09
3.77723e-09
-2.37072e-09
-1.19843e-08
3.02714e-09
9.38972e-09
-4.32571e-10
-9.32577e-09
-1.37957e-10
4.26294e-10
9.03744e-09
6.6243e-09
3.80336e-10
-6.87287e-09
-1.31766e-10
6.59977e-09
-5.86586e-09
-2.73235e-10
-4.6067e-10
7.20721e-09
-6.20885e-10
1.66986e-10
-6.75331e-09
-9.92949e-09
1.89784e-10
-2.01306e-10
9.94101e-09
1.28566e-10
7.53999e-09
9.21437e-10
-8.59e-09
-7.66326e-09
1.18257e-09
8.19557e-09
-1.71488e-09
4.52004e-09
-9.75352e-10
3.05507e-09
8.96349e-09
2.61897e-10
-8.46863e-10
5.44257e-09
3.04465e-09
-3.77016e-09
-4.71706e-09
-2.56059e-09
2.47169e-09
9.31317e-09
-9.22427e-09
-3.43448e-10
-7.24462e-09
1.77893e-10
7.41017e-09
-4.33122e-11
3.81679e-11
8.63388e-09
-9.35838e-09
2.99007e-10
-8.70107e-10
-1.55843e-09
-8.34716e-09
1.71512e-09
8.19046e-09
-7.94794e-09
6.18066e-09
-6.54109e-09
8.30837e-09
1.2433e-09
4.94993e-09
-5.35731e-09
-8.35913e-10
-8.40109e-09
-4.53857e-11
-5.14453e-11
-6.60341e-10
-8.73346e-09
6.80316e-11
-8.90218e-09
-2.51876e-11
-2.19072e-11
8.94928e-09
9.22666e-09
1.5731e-10
-5.82636e-10
1.71919e-10
-7.74542e-09
7.26593e-11
7.50084e-09
-1.21608e-08
-2.00576e-10
-3.51342e-10
1.27127e-08
-2.74093e-09
5.91507e-09
-1.07252e-08
7.55108e-09
8.95927e-09
-8.46643e-10
-8.4204e-09
3.07775e-10
-9.51678e-09
9.6173e-09
-3.34977e-09
3.24925e-09
-2.15159e-09
4.68668e-09
3.04324e-09
9.45427e-09
-1.6508e-09
6.29078e-10
-8.43255e-09
-8.26338e-09
-1.43084e-09
6.62807e-09
3.06615e-09
1.26861e-09
-2.34068e-09
2.26033e-09
-1.18826e-09
5.88725e-12
7.06924e-11
1.86668e-10
-2.63248e-10
-5.72982e-10
1.52972e-09
-5.88273e-09
4.926e-09
-5.73609e-10
2.3287e-09
-3.80312e-09
-7.06663e-09
-1.06675e-09
8.13338e-09
-4.28762e-10
8.07236e-09
5.68186e-11
-7.70042e-09
-4.87552e-10
9.28569e-09
3.08596e-10
-9.10674e-09
8.86915e-09
7.27815e-11
-8.75215e-09
-9.04024e-09
-5.10262e-10
1.56646e-09
7.98404e-09
1.82739e-11
3.47363e-09
-9.48618e-11
-3.39705e-09
-2.79173e-09
-7.35174e-10
3.54862e-09
-2.17215e-11
4.50252e-09
-4.3229e-09
1.06368e-09
-8.10532e-09
-2.54534e-10
7.69941e-10
7.58991e-09
3.72412e-09
3.79021e-09
-1.82865e-09
-5.68568e-09
-4.41243e-10
-9.0971e-09
1.18251e-10
9.42009e-09
7.03692e-09
-1.47635e-09
1.33651e-09
-6.89708e-09
9.38982e-09
-1.53409e-09
-8.53586e-09
6.80122e-10
2.30723e-09
-5.64926e-10
2.77774e-09
5.34486e-09
-4.41515e-09
4.76773e-09
-5.69745e-09
-4.39679e-09
5.37824e-09
-4.92543e-09
3.94397e-09
-7.10122e-09
4.39067e-10
-3.35054e-10
1.16959e-08
4.95872e-10
-3.47531e-09
-8.7165e-09
-5.60405e-10
8.43088e-09
9.18256e-11
-7.9623e-09
-1.52121e-09
5.00633e-09
-3.48512e-09
2.51241e-09
-6.74497e-10
8.21275e-10
-2.65919e-09
1.17676e-08
-3.95935e-09
-8.66218e-09
8.53942e-10
-5.22662e-09
-1.98036e-10
-4.41202e-10
-5.11316e-09
4.71214e-09
1.9321e-09
-1.53108e-09
3.3926e-10
-1.85493e-09
8.11302e-09
-6.59734e-09
-8.76291e-09
1.55199e-09
-6.06975e-10
7.8179e-09
-8.51022e-09
-6.491e-11
2.80667e-10
8.29447e-09
2.0638e-09
6.42355e-09
-4.7294e-09
-3.75794e-09
-3.99792e-09
3.99405e-09
2.03939e-09
-2.03552e-09
-9.45229e-09
-8.46325e-10
1.9821e-09
8.31652e-09
5.4624e-09
4.32521e-09
-6.25796e-09
-3.52965e-09
-4.64091e-09
1.12054e-08
3.10644e-09
-9.67094e-09
7.41698e-09
-2.63598e-09
-8.64211e-09
3.86111e-09
-4.23494e-09
4.39997e-09
-1.65035e-10
7.41927e-09
-1.72257e-10
-5.81769e-11
-7.18884e-09
1.94833e-09
-6.02182e-09
5.25117e-09
-1.17768e-09
-3.88986e-09
-2.2555e-09
2.14744e-09
-1.03593e-08
6.76683e-11
-1.69268e-09
9.93769e-11
4.72459e-10
9.03125e-09
-9.60308e-09
-5.64941e-09
-7.66867e-09
3.88634e-09
9.43174e-09
-5.56157e-10
-5.67814e-09
1.18574e-08
-5.62315e-09
-2.70202e-09
-5.85879e-10
7.78079e-10
2.50982e-09
-1.4914e-10
-2.89389e-10
2.28656e-10
2.09873e-10
3.33048e-09
-2.87109e-09
2.92825e-09
-3.38764e-09
3.11806e-09
9.12338e-11
-3.04448e-09
-1.64818e-10
7.62444e-09
-8.7794e-09
1.33471e-09
-1.7975e-10
7.62583e-09
-3.91879e-11
-2.48613e-10
-7.33802e-09
-9.67339e-09
-7.01769e-10
2.01043e-09
8.36473e-09
-1.21708e-09
7.12561e-09
-7.58903e-09
1.6805e-09
1.2194e-08
-3.03669e-10
-7.289e-09
-4.60138e-09
8.15218e-09
-3.00792e-10
-2.26948e-10
-1.39255e-10
3.47632e-10
8.62054e-09
-8.82892e-09
-3.5731e-09
3.42648e-09
-9.37016e-09
-3.42364e-10
-9.76745e-09
8.95748e-11
1.00202e-08
7.27468e-09
-7.03162e-09
-7.30674e-09
7.06368e-09
-6.26909e-09
2.53538e-09
6.67461e-09
-2.94089e-09
4.79971e-10
-5.44279e-10
5.19799e-09
1.14287e-10
1.02685e-09
-6.33913e-09
4.3361e-09
2.73062e-10
-3.90661e-09
-7.02554e-10
-4.5607e-09
4.69587e-09
-6.52209e-11
-1.04219e-08
-1.00043e-09
1.14875e-08
3.68534e-09
2.5008e-09
-2.85566e-09
8.67472e-09
-8.27593e-09
-5.95951e-10
1.97158e-10
-6.38942e-10
-9.00083e-09
9.15222e-09
-1.49007e-09
-3.28626e-10
6.82546e-09
-5.00676e-09
-6.50438e-09
5.17724e-09
1.22524e-09
1.01893e-10
-2.06314e-10
-7.32876e-09
7.17378e-11
7.46334e-09
-4.19795e-10
1.46161e-10
-9.08475e-09
-2.35225e-09
2.50601e-09
-1.53762e-10
8.87819e-09
-1.08743e-10
3.55756e-10
-9.1252e-09
-3.2229e-09
3.22705e-09
1.4118e-11
-1.74326e-09
-3.4709e-09
3.16945e-09
2.04472e-09
-8.05559e-09
-2.01135e-10
7.85142e-09
4.053e-10
-2.35912e-09
-4.08385e-09
3.57188e-09
-6.56114e-10
7.20757e-10
-6.4643e-11
-9.5646e-09
1.42158e-09
-8.97217e-10
6.43611e-09
6.29585e-10
-2.02998e-09
-5.03572e-09
4.17774e-12
-8.09427e-11
1.82189e-10
-1.05424e-10
7.71368e-09
3.72548e-09
-1.02129e-08
-1.2263e-09
-2.67778e-09
-3.69256e-10
-1.21936e-08
-1.37428e-09
2.28199e-09
6.80597e-09
-8.25478e-09
2.59079e-09
-4.40337e-09
1.00674e-08
-4.19773e-09
4.36955e-09
5.29058e-09
-1.41216e-10
1.90437e-10
-8.78295e-12
-4.0438e-11
-3.51534e-10
4.42753e-10
-2.19955e-09
2.10833e-09
-1.77915e-10
-4.05702e-09
-1.09507e-09
1.19331e-09
-9.82483e-11
2.25707e-09
5.18538e-09
-5.48782e-09
-1.95463e-09
2.60401e-11
3.35803e-10
-6.09426e-11
-3.009e-10
-1.03231e-10
7.39419e-11
1.97049e-09
-1.9412e-09
-8.75828e-10
5.81049e-09
2.90711e-09
-7.84177e-09
-1.31918e-09
5.00519e-09
-6.31443e-09
2.62842e-09
-8.75206e-09
6.67943e-10
9.7502e-09
-1.66608e-09
-6.73557e-09
6.54336e-09
2.92455e-10
-1.00247e-10
8.14398e-09
-2.29562e-09
1.33952e-10
-5.98231e-09
-2.16092e-09
1.49938e-09
7.09765e-09
7.70016e-10
-5.09361e-09
-7.55005e-10
5.0786e-09
-2.36437e-09
2.12353e-09
3.97486e-09
4.44822e-09
-4.97563e-09
-3.44745e-09
3.81745e-10
4.94535e-12
4.66291e-12
-3.91353e-10
-1.33396e-09
4.60908e-10
1.03273e-08
-9.03545e-09
4.67784e-12
-1.32492e-09
1.03557e-08
1.03515e-08
-4.19084e-09
2.16758e-09
-8.32823e-09
1.84384e-09
-1.05762e-09
-9.73547e-09
8.94925e-09
9.42537e-09
1.07563e-09
-4.49321e-10
-1.00517e-08
7.16759e-11
-2.23765e-10
-6.35229e-09
2.49525e-10
-1.64113e-10
-9.53003e-09
9.62655e-10
-8.84915e-10
-3.98577e-10
-7.41693e-10
-1.02916e-08
1.14319e-08
-1.69837e-09
-9.44634e-09
2.46493e-09
8.67978e-09
8.79024e-11
-1.08017e-09
1.18309e-09
-1.90817e-10
-2.11877e-09
-8.97029e-09
2.71583e-09
8.37323e-09
-8.62383e-10
-9.09385e-09
1.87042e-09
8.08581e-09
-9.28503e-09
-9.26298e-10
9.51782e-09
6.93511e-10
2.54082e-09
-1.70806e-09
1.22488e-09
-2.05763e-09
-6.2178e-10
-9.07508e-09
1.56323e-09
8.13363e-09
2.42811e-11
-5.64827e-12
7.18858e-09
-2.21112e-10
2.54138e-10
-3.30268e-11
4.9522e-10
-7.71775e-09
7.71093e-09
-4.88398e-10
6.70357e-09
5.71587e-10
-2.42508e-10
-7.03265e-09
1.89249e-10
-1.0689e-08
-2.66799e-09
-1.53934e-09
-1.49309e-10
1.55295e-09
1.35707e-10
4.24897e-09
-1.10835e-09
-4.88388e-09
1.28509e-09
4.05977e-09
4.0402e-09
-3.54498e-09
9.40915e-09
4.14283e-09
-1.35793e-09
7.43119e-10
2.07916e-10
-7.48101e-10
-2.02933e-10
-8.4172e-10
3.58231e-09
-3.48916e-09
7.48575e-10
-1.02027e-08
1.19574e-09
-6.66447e-10
8.63511e-09
5.52149e-10
-9.01534e-09
5.00518e-10
-4.52084e-10
-1.47527e-10
9.90923e-11
5.26521e-09
-2.49613e-09
-4.51468e-09
1.7456e-09
2.79031e-10
-1.6448e-10
-8.51564e-09
-2.35967e-09
2.09058e-09
7.08374e-10
-4.39278e-10
-2.19855e-09
-7.14262e-10
-6.62539e-09
9.5382e-09
-3.62314e-11
-3.49874e-10
3.86105e-10
-2.50755e-09
2.30302e-09
-8.3177e-09
7.1714e-09
-6.70846e-09
7.85476e-09
-1.58992e-09
9.40921e-09
2.25698e-09
3.13119e-10
-7.9797e-10
-3.41208e-10
8.26059e-10
-4.11547e-10
-2.625e-09
6.76869e-10
-6.26235e-09
-1.16377e-09
7.38745e-09
3.86617e-11
2.89686e-09
-9.12605e-09
1.05641e-08
-4.33488e-09
-3.16477e-09
-6.57063e-09
-1.66588e-10
9.90198e-09
-4.96957e-10
-2.34318e-09
2.64128e-09
1.98859e-10
-4.31371e-10
2.76159e-10
1.01995e-08
-2.11087e-09
1.29125e-09
-1.31424e-09
1.98807e-10
-6.50705e-09
-1.89377e-10
-7.90155e-09
3.53426e-11
-1.3514e-10
7.35272e-09
-1.26612e-10
-7.09097e-09
-3.33409e-10
1.60414e-10
1.31989e-09
-9.72992e-09
-1.07039e-09
9.48042e-09
8.02241e-11
4.05391e-10
-3.60003e-10
-1.25612e-10
2.9056e-09
-3.13985e-09
-6.28916e-09
6.52341e-09
9.59065e-11
-8.46604e-11
-1.55059e-09
6.46233e-09
7.55946e-09
-9.44883e-09
-4.57296e-09
-2.05818e-10
2.50654e-11
2.52201e-09
-8.17079e-09
3.93925e-11
5.60939e-09
-9.38841e-09
9.42293e-09
3.4223e-09
-1.12154e-10
1.37289e-10
7.39414e-09
2.48093e-09
-1.74575e-09
-8.54446e-09
7.80929e-09
1.22728e-11
-4.5303e-11
-3.25324e-10
-1.96013e-09
2.13713e-09
1.48321e-10
3.76948e-10
-4.66117e-09
4.28422e-09
4.04769e-09
-7.22106e-10
-6.646e-09
3.32042e-09
-2.16488e-10
3.67197e-11
-3.39041e-09
1.23901e-09
-1.39241e-09
3.54381e-09
3.00166e-10
-3.98651e-09
3.68635e-09
-8.21537e-09
5.23924e-09
-2.42164e-09
5.39777e-09
-4.2116e-10
6.78492e-10
1.83325e-09
-2.14303e-10
2.17316e-09
-2.06208e-09
-2.57543e-10
-1.66524e-09
1.80249e-09
1.203e-10
2.32899e-11
-8.29784e-09
2.35246e-11
5.55437e-10
-1.67979e-10
1.1306e-10
-1.42978e-09
2.17572e-09
-7.72763e-09
6.98169e-09
1.46719e-08
-1.29936e-08
1.07981e-09
-2.75811e-09
3.3172e-09
7.29177e-09
-7.15095e-09
-3.45801e-09
-2.20271e-10
1.52904e-09
1.03804e-10
-1.41257e-09
2.68856e-09
-6.40384e-09
6.62089e-09
-5.33561e-09
5.37773e-09
4.22608e-09
-4.2682e-09
-4.22375e-09
1.47368e-09
5.83217e-09
-3.0821e-09
-6.94205e-09
-2.64981e-09
6.88245e-09
2.70941e-09
-7.5663e-10
2.13029e-09
1.16716e-09
-3.75277e-10
4.1927e-10
8.17345e-09
6.43828e-09
-5.96179e-09
-8.64994e-09
-8.52699e-09
8.66835e-09
1.54451e-10
-2.95805e-10
-5.86646e-09
5.05507e-09
1.0353e-09
-2.23899e-10
-6.36236e-09
-2.78475e-10
6.96351e-10
5.94449e-09
1.43958e-10
-7.6639e-09
7.96557e-09
-4.45636e-10
-1.02469e-08
5.19425e-09
-4.59308e-09
9.64573e-09
-8.80627e-09
-6.67582e-10
1.36853e-09
4.2509e-10
-8.6332e-09
-1.19586e-10
5.76178e-09
2.56507e-10
-1.68218e-09
1.42421e-08
-1.03327e-08
-8.55036e-09
-1.2396e-10
-8.25001e-09
1.50029e-10
4.37479e-09
-4.05095e-09
4.15126e-09
-5.22811e-09
6.143e-09
-5.06614e-09
1.17513e-10
-1.49415e-09
1.47254e-09
4.91038e-09
-7.97037e-10
-7.00673e-09
2.89338e-09
-5.91819e-10
9.16219e-10
-9.95818e-09
9.63378e-09
1.16206e-08
-1.56436e-09
-9.73524e-09
-3.21018e-10
-1.79324e-09
6.08715e-11
1.80631e-09
1.25919e-10
-6.09545e-10
-5.45051e-11
5.38131e-10
7.30322e-10
-3.22529e-10
2.74271e-10
-6.82064e-10
8.32436e-09
-2.56674e-09
-7.07185e-09
7.31916e-10
-1.00473e-10
1.11676e-10
5.71715e-09
-1.57411e-09
-6.63277e-09
2.48973e-09
6.05451e-09
-8.91324e-09
9.88251e-09
-7.02378e-09
2.7008e-10
-1.21518e-09
-2.52794e-10
1.1979e-09
-1.98306e-09
2.63362e-09
-2.46859e-09
1.81803e-09
7.87407e-09
-7.60486e-09
2.12908e-10
-4.8211e-10
-2.15145e-11
8.50227e-09
3.90157e-11
-8.51977e-09
-9.92652e-09
9.49378e-09
-1.59085e-10
-2.88362e-10
3.14402e-10
-1.85084e-10
8.92948e-10
-9.1219e-10
2.04327e-10
-7.68313e-10
-3.49367e-10
9.11338e-10
2.06343e-10
6.3248e-09
-3.11162e-09
-4.75123e-09
1.53805e-09
-5.09147e-09
5.04733e-09
3.46597e-09
-3.03958e-09
-1.26511e-09
8.38723e-10
2.96728e-09
5.52717e-09
-4.89476e-09
-3.59968e-09
-8.63258e-10
-6.51515e-12
-1.92195e-09
-9.259e-09
1.03463e-09
-1.84465e-09
1.0069e-08
-2.65887e-10
8.14142e-09
-1.80738e-10
-7.69479e-09
-7.97139e-09
3.04135e-09
8.29552e-09
-3.36548e-09
-7.59044e-09
-1.78588e-09
2.43427e-09
2.57269e-09
-2.11367e-09
-4.8558e-09
-4.71211e-09
-6.51565e-11
4.77727e-09
-4.80687e-09
4.73744e-09
2.97015e-09
1.16013e-08
-6.38129e-09
-8.19013e-09
7.50749e-09
-7.36488e-10
-8.14529e-09
-9.18276e-11
6.98625e-10
-3.30882e-09
-5.36444e-09
6.16085e-09
-7.538e-10
-4.26053e-11
1.72924e-09
-4.99857e-09
-4.78304e-09
8.05237e-09
-2.53964e-10
8.44576e-09
2.29917e-10
-8.42171e-09
1.76212e-09
-1.9517e-10
-1.98811e-09
-8.68489e-09
9.12907e-09
-8.59838e-10
-6.37997e-09
5.73193e-09
6.02629e-09
5.15071e-09
1.3015e-09
-6.70054e-09
2.48332e-10
-8.40557e-10
-8.43912e-09
8.35614e-09
9.23538e-10
8.33327e-10
-8.85994e-09
9.3465e-09
9.90887e-10
-1.11881e-09
-3.38327e-10
4.66254e-10
8.47389e-09
-5.87667e-10
1.263e-10
-8.01253e-09
-5.49891e-10
-8.32219e-09
8.38151e-09
4.90571e-10
-5.17721e-09
4.9947e-09
-3.6469e-09
-6.33614e-09
6.84319e-09
-4.84827e-09
-4.24253e-09
4.89307e-09
1.20047e-09
9.1632e-09
-1.98043e-09
-8.38323e-09
7.00564e-09
2.50221e-10
-7.64849e-09
3.9263e-10
7.31251e-10
8.30105e-09
-3.97197e-10
3.61327e-09
-2.2901e-10
-9.18393e-09
5.79968e-09
-9.1402e-09
-7.83778e-10
-1.23197e-08
-6.33121e-09
1.03332e-08
-6.98324e-11
-5.86281e-10
3.70134e-11
-1.41849e-10
5.23985e-09
-5.37781e-09
9.93956e-13
9.95859e-09
-1.28486e-09
-3.14406e-09
3.55248e-10
3.31177e-09
-5.22965e-10
8.21597e-09
4.00769e-10
-8.13535e-09
-4.81387e-10
-1.13257e-10
8.55113e-09
-8.97988e-09
5.42e-10
2.56516e-09
1.13604e-08
-3.29997e-09
-1.06256e-08
-3.03007e-09
4.37477e-10
1.0885e-08
-8.29245e-09
3.41625e-09
2.84957e-09
-3.95858e-09
5.20924e-09
-5.03607e-09
-2.55559e-10
-1.06942e-08
8.75118e-09
1.06761e-10
3.58855e-10
-1.38416e-10
-3.27201e-10
-1.56938e-10
2.0312e-10
-3.22431e-10
2.76248e-10
-5.48868e-09
-2.57642e-09
5.85384e-09
2.21125e-09
6.13003e-09
-5.4854e-09
-4.79482e-09
4.7515e-09
-6.49378e-10
-1.64176e-10
7.43722e-10
-6.70745e-09
1.08479e-08
-4.39721e-09
5.26426e-10
-5.34215e-11
-4.73005e-10
9.43305e-10
-9.89642e-09
2.2573e-11
8.93054e-09
-1.11987e-09
-8.87168e-09
1.14039e-09
8.85115e-09
-7.96917e-10
7.07351e-10
-2.42523e-10
3.3209e-10
-8.72599e-09
3.59834e-09
-2.0338e-09
7.16145e-09
-4.11063e-09
4.25459e-09
-7.35386e-09
-3.95445e-10
7.57139e-09
9.66485e-10
-5.00076e-10
8.9036e-09
-9.37e-09
-9.25442e-09
1.45799e-09
2.49075e-09
-2.25684e-09
-4.48211e-10
-6.58617e-09
-1.11104e-10
6.34481e-09
3.52465e-10
1.0327e-08
-8.38297e-09
-1.56709e-09
-1.00744e-09
-8.76274e-11
-6.9207e-09
-3.04383e-09
7.35769e-09
2.60685e-09
1.09497e-09
-8.4301e-09
7.89254e-09
-5.57407e-10
1.13478e-08
-9.3053e-09
-2.11615e-09
7.36096e-11
6.21055e-10
-7.01442e-10
-8.67167e-09
-1.42146e-10
-2.71704e-10
2.56912e-10
-4.66916e-09
4.93106e-09
-6.5021e-10
-8.55056e-09
8.29333e-09
9.07445e-10
6.91037e-09
-5.73784e-09
2.54527e-09
-3.7178e-09
-2.25265e-09
3.29972e-09
8.36208e-09
8.31927e-09
-8.44612e-09
1.61368e-10
-3.45101e-11
-8.61731e-09
9.10491e-09
-8.40227e-10
3.57862e-10
7.1204e-09
6.46111e-10
-8.12438e-09
-4.93584e-09
4.91065e-09
-3.8392e-10
-4.37329e-09
4.75721e-09
-9.78194e-09
-1.52918e-09
1.03324e-08
9.78757e-10
-1.63898e-09
-8.24414e-09
1.91173e-09
3.3484e-09
-1.78606e-09
-2.6176e-09
1.05525e-09
5.69508e-09
7.03016e-09
-5.81487e-09
-8.10873e-09
7.9078e-09
6.68425e-10
-4.67491e-10
4.75316e-09
-4.86642e-09
1.00393e-08
-6.44637e-09
-7.19619e-09
3.60328e-09
-5.06677e-10
3.02205e-09
8.83247e-09
4.90401e-13
-1.24568e-11
3.93711e-10
6.00901e-09
-7.49462e-09
2.96472e-10
7.4697e-10
-1.98888e-10
9.77641e-11
-6.67189e-10
8.6844e-09
-8.83459e-09
2.63082e-10
-1.12888e-10
-1.95834e-10
3.59999e-10
3.30947e-09
2.20139e-09
-2.18345e-09
-6.28704e-09
-8.63964e-09
1.56456e-10
8.53059e-09
-4.74118e-11
-4.02775e-09
3.91559e-09
-4.23713e-09
7.53817e-09
-4.76146e-09
1.46042e-09
-2.4147e-09
8.25164e-09
2.44939e-09
-8.28633e-09
6.7843e-09
4.22058e-09
-2.83143e-09
-8.50958e-11
-4.65096e-09
4.73606e-09
-8.83584e-09
-1.43525e-09
2.3707e-09
7.90039e-09
-1.06091e-08
9.20883e-09
-1.14072e-09
2.54101e-09
-4.99483e-09
5.15214e-09
-8.72675e-11
3.39075e-10
-2.37879e-10
-1.39286e-11
-6.78642e-09
-5.93259e-10
8.00926e-09
8.52877e-09
-8.3645e-09
-3.08049e-10
1.43783e-10
-1.96293e-09
-2.01654e-09
2.18983e-09
1.78965e-09
-9.92531e-09
8.7254e-10
-3.96418e-10
9.44919e-09
4.62418e-10
-1.55044e-10
8.37702e-09
9.43304e-10
9.37457e-09
-9.85546e-09
-1.01842e-08
1.56286e-09
-2.85444e-09
-1.08645e-09
1.24369e-09
2.6972e-09
-8.24721e-09
-1.16619e-09
9.02948e-09
-5.3411e-09
4.83442e-09
5.63988e-10
-9.04206e-09
-6.6213e-10
4.21257e-09
-5.47176e-09
-5.80525e-09
7.06444e-09
-1.13851e-09
6.10108e-09
-6.38227e-09
-2.13232e-09
2.54434e-09
5.97024e-09
-8.64685e-09
8.7452e-09
6.4353e-11
-1.62709e-10
-2.31212e-09
9.22414e-10
-6.95479e-10
2.08519e-09
-3.45312e-10
-1.38162e-09
1.50666e-09
1.80653e-09
-7.86665e-11
9.14736e-11
-1.81934e-09
4.35943e-11
-7.27834e-11
-2.07239e-10
2.36429e-10
-8.95027e-09
9.41502e-09
-5.10144e-10
3.65407e-10
-1.03635e-08
1.02108e-08
-2.1267e-10
-3.99909e-10
-1.63619e-09
1.77855e-09
8.14908e-09
-1.38531e-09
-9.01642e-09
-6.48147e-09
4.56595e-09
8.09618e-09
8.87852e-09
-9.01309e-09
1.62507e-10
-2.79371e-11
4.53124e-09
-4.68628e-09
-4.18626e-10
5.26749e-09
-4.84886e-09
-4.92026e-10
-1.92757e-09
2.09427e-09
5.9855e-11
-1.30728e-10
-5.78505e-10
2.01018e-09
-8.59148e-09
9.09971e-09
-2.51841e-09
9.48822e-09
-8.49763e-09
-1.7809e-10
5.66988e-10
3.30514e-09
-1.05612e-09
-9.52921e-09
7.28018e-09
-7.74319e-09
2.09975e-09
-1.83674e-09
7.48017e-09
-4.84353e-09
4.01028e-09
4.88094e-09
7.91753e-10
6.05238e-09
-1.08584e-09
-5.75829e-09
-3.92822e-10
1.80248e-10
3.96587e-10
6.02534e-11
-4.51895e-10
-6.98358e-10
1.89449e-10
-7.78895e-10
-2.29689e-09
2.57883e-09
5.80445e-10
-1.44432e-10
8.44251e-09
1.03335e-09
9.39596e-09
-9.84887e-09
-9.21159e-09
7.14914e-10
-9.79628e-09
1.06467e-08
-1.29169e-09
1.9929e-09
5.39885e-09
-2.26042e-09
-5.13134e-09
-9.91991e-10
9.98081e-10
-1.91174e-10
1.56797e-09
-1.69564e-10
3.63716e-10
3.07086e-09
-6.30247e-09
1.6496e-11
4.79917e-09
-4.81566e-09
-7.39862e-09
-3.74574e-10
1.68326e-10
-1.01656e-08
3.11549e-10
1.02194e-08
8.41644e-09
-8.47749e-09
1.2809e-10
-6.70421e-11
-4.85078e-09
4.92356e-09
-4.8952e-09
4.88887e-10
3.43096e-09
1.63971e-11
-4.70628e-09
4.68989e-09
8.87015e-10
-3.03697e-10
4.07568e-10
7.79216e-09
9.85523e-11
-2.64886e-10
5.19527e-10
-3.18141e-10
-1.7634e-10
-2.50462e-11
1.2942e-09
-1.44955e-09
1.45454e-09
-1.29919e-09
-1.03634e-08
-1.85993e-09
1.13974e-08
8.25981e-10
2.48078e-10
-1.0725e-10
8.27562e-09
2.78502e-09
-6.01325e-09
8.78526e-09
-5.55703e-09
-4.69724e-09
4.55281e-09
-1.44592e-10
4.50718e-09
-4.36259e-09
2.79455e-10
9.44573e-09
-9.47711e-09
-9.99815e-09
7.49153e-11
2.63426e-09
-2.59725e-09
-3.08456e-10
-1.88682e-10
2.73387e-10
1.94794e-09
5.08066e-09
-7.19425e-09
1.65655e-10
-8.55567e-09
8.55106e-09
-8.11242e-12
1.2717e-11
8.53465e-09
-8.48661e-09
-3.06422e-12
-4.49739e-11
4.47172e-09
-4.25881e-09
2.0682e-10
-3.92025e-10
7.97736e-09
-2.69035e-09
-8.24852e-09
8.69986e-09
2.23901e-09
-5.62332e-09
9.85486e-10
6.63074e-09
-7.91538e-09
-1.56799e-11
5.51637e-09
-6.71461e-09
2.23262e-11
-4.32801e-11
-5.12377e-09
-4.48426e-09
3.40508e-09
6.20295e-09
-5.83419e-09
7.84437e-09
-8.60268e-09
-6.71192e-09
7.07134e-09
8.24326e-09
-8.39909e-09
-8.1831e-10
1.30202e-09
-4.54042e-09
4.43317e-09
-1.79542e-10
4.72518e-09
-4.54563e-09
-8.00522e-09
-1.24678e-09
1.50882e-09
2.33482e-09
-6.91823e-09
-1.18843e-08
3.97585e-09
6.77761e-09
-9.2452e-09
-1.50826e-09
5.86756e-10
-8.59189e-09
-1.03032e-09
-9.86385e-09
-8.37799e-10
-8.65402e-09
-3.66772e-10
8.37058e-09
-4.46964e-11
3.11798e-10
-3.48406e-10
8.13039e-11
-1.35442e-09
1.6088e-09
-2.61875e-09
-4.48494e-09
4.2838e-09
-6.88937e-09
8.3318e-09
-2.12402e-09
6.81586e-10
8.83633e-09
8.26107e-09
-7.34147e-09
-9.75593e-09
-4.6441e-09
3.66379e-11
4.60746e-09
-7.57487e-10
-8.30924e-09
8.22617e-09
-9.64293e-09
-5.98755e-10
9.12181e-09
-2.25612e-10
3.87994e-10
3.53086e-09
2.20715e-09
-5.73802e-09
9.73075e-09
-5.9854e-09
-3.91749e-09
1.72145e-10
-2.63013e-09
-6.91674e-09
3.81814e-09
5.72873e-09
-1.07819e-08
6.09281e-09
7.25421e-09
9.25629e-09
2.82084e-10
-9.40747e-09
-1.30908e-10
1.34052e-09
2.12321e-09
-1.39345e-09
-2.07028e-09
-1.98147e-09
4.83823e-09
-4.09353e-09
1.23678e-09
-4.08586e-10
3.1713e-11
3.32176e-10
2.18643e-10
6.31342e-10
-1.39231e-10
-7.10754e-10
-9.6805e-11
-2.2549e-10
2.33595e-10
8.87007e-11
-8.31005e-09
-5.96684e-10
8.35684e-09
-7.94016e-09
-1.14001e-09
7.44119e-09
1.43833e-10
-3.61406e-11
-7.57829e-09
7.4706e-09
3.34817e-10
-8.42968e-09
8.23869e-09
-3.76296e-10
1.99026e-09
-1.9655e-09
-1.79654e-10
-2.1726e-09
4.68993e-09
4.11063e-09
-4.69551e-09
-4.10505e-09
-4.86711e-09
1.1585e-10
4.75126e-09
2.03461e-09
-1.31047e-09
-9.53041e-09
-1.81071e-09
-7.42628e-09
1.21216e-09
8.02483e-09
6.92292e-09
-2.51552e-09
1.96678e-09
-6.37419e-09
4.48829e-09
-5.77198e-09
5.60891e-09
3.58945e-09
-1.10019e-09
3.00974e-09
-5.499e-09
6.02521e-09
2.19263e-10
1.82873e-11
-1.93956e-10
-3.34611e-10
2.92448e-10
-7.50777e-11
1.17241e-10
9.577e-11
-3.83734e-10
4.16719e-10
-1.28755e-10
2.37001e-11
-1.81798e-10
-1.63772e-11
1.74475e-10
1.90274e-09
-3.42395e-09
-4.16339e-09
4.07017e-09
9.32153e-11
-2.54416e-10
8.61538e-09
1.12929e-10
2.93472e-09
-3.69727e-09
4.60255e-09
-3.84e-09
-6.29746e-09
3.30602e-10
6.30612e-09
-6.97099e-10
1.93833e-09
-1.99786e-09
-3.67526e-11
-9.40889e-09
8.82492e-09
6.2073e-10
-5.81417e-10
-3.93883e-09
-7.06375e-10
2.45525e-09
-5.63278e-11
-3.5973e-10
2.96297e-09
7.4516e-10
8.09117e-09
2.55687e-10
-3.71856e-10
-7.975e-09
5.61505e-09
2.48541e-09
-2.70161e-09
1.28255e-09
-2.03962e-09
2.09759e-09
9.56599e-09
5.07902e-10
-9.50236e-09
-5.71535e-10
3.5472e-11
-7.49458e-11
4.03137e-10
-5.03933e-10
-8.22139e-09
9.56381e-09
1.7297e-09
-9.40546e-09
-1.88805e-09
9.01763e-09
-1.81229e-09
2.1619e-09
-9.36724e-09
-2.35377e-10
5.09345e-09
-4.85808e-09
1.00445e-08
-1.29971e-08
2.95257e-09
4.68688e-10
-3.61437e-10
-2.06692e-09
-9.24013e-09
8.65723e-09
-1.73216e-10
1.97374e-09
-1.80052e-09
5.07427e-09
-5.07328e-09
5.33767e-09
-3.94775e-09
-6.83435e-09
5.44443e-09
-1.80985e-10
-6.13157e-09
6.49753e-09
-1.84983e-10
4.94636e-10
5.09671e-09
-4.90354e-09
-6.87814e-10
8.2258e-09
6.08723e-09
-5.82282e-09
-8.4902e-09
1.65076e-10
-1.90464e-10
4.19408e-10
-3.94019e-10
-1.70465e-09
1.31678e-09
-1.1822e-09
1.57007e-09
4.17376e-09
-6.59326e-09
3.07447e-09
-6.54967e-10
7.10042e-09
1.94508e-09
-7.48921e-09
-1.55629e-09
3.51182e-09
-3.87287e-09
5.41073e-09
-5.04968e-09
-1.24389e-09
1.30911e-09
1.18373e-09
-1.24895e-09
-3.42854e-10
6.99792e-10
-7.83415e-09
7.47721e-09
1.0024e-08
7.09954e-09
-1.06853e-08
1.07773e-09
-2.44496e-10
8.59213e-09
2.26649e-10
-5.02851e-09
5.37732e-10
4.26413e-09
1.6932e-09
-1.30706e-09
-3.31019e-09
2.92405e-09
-4.24766e-09
-4.14498e-09
6.74887e-10
6.38747e-10
-9.88094e-09
1.01188e-08
-8.76624e-10
1.87136e-09
-2.29346e-09
-8.77705e-09
-3.83503e-10
6.34472e-11
1.24206e-10
-2.12001e-10
2.51458e-10
-1.63663e-10
-8.45915e-10
9.19535e-10
-7.36199e-11
4.35162e-10
1.39873e-11
-3.5338e-10
-1.12618e-09
8.21501e-09
1.12715e-09
4.6297e-09
-1.93763e-09
7.61629e-09
-1.03084e-08
1.00454e-08
-5.49185e-09
5.47043e-09
-4.33033e-09
5.00464e-09
4.51112e-09
9.23535e-09
-3.70103e-09
1.75089e-09
9.06921e-09
-3.01713e-09
-7.80296e-09
8.88989e-09
-9.32233e-09
1.47938e-09
-1.04694e-09
-8.6757e-09
7.43632e-09
4.33421e-09
-3.09483e-09
-1.35827e-09
7.35297e-09
5.62592e-09
-1.98013e-11
4.13888e-11
-1.33798e-10
1.12211e-10
-3.89221e-10
3.49089e-10
4.55858e-09
-4.51844e-09
-1.26948e-09
1.58721e-09
-1.01483e-09
-1.29145e-10
1.6522e-09
-1.52306e-09
-5.44095e-10
-7.75414e-09
9.96782e-10
7.30145e-09
-1.19272e-10
-4.59284e-09
-6.21367e-09
7.23204e-09
-1.2198e-09
-9.91051e-09
1.82356e-09
9.30674e-09
-2.48282e-10
2.50208e-10
-9.87311e-11
3.08107e-10
1.17435e-08
-1.16294e-08
-4.22197e-10
-2.47144e-10
5.58918e-09
-3.90128e-09
-1.44076e-09
-4.19953e-09
-3.51441e-09
4.70875e-09
-7.03499e-09
5.84065e-09
5.14172e-10
-8.80177e-10
8.66078e-09
-8.29478e-09
-6.27221e-09
5.23079e-09
-3.4394e-10
1.25282e-10
-3.87725e-10
5.1878e-10
-1.24987e-09
6.99979e-11
4.77042e-10
-2.75124e-11
-9.08792e-09
2.53602e-09
9.52204e-09
4.71762e-09
-4.54046e-09
5.16052e-09
-1.37182e-10
1.67749e-09
-1.68962e-09
-3.42264e-09
8.11351e-11
4.31523e-10
-9.59392e-11
4.93614e-09
-2.68089e-09
-4.61437e-09
9.84045e-09
1.33223e-09
-2.2828e-09
5.85035e-11
-9.16908e-10
9.84221e-10
-1.25816e-10
-2.54097e-09
-3.93429e-09
4.21975e-09
-2.73201e-10
3.63299e-10
-8.82718e-09
2.68154e-09
7.69763e-09
3.94051e-09
-2.19241e-09
-7.39751e-09
-1.08294e-09
-3.30303e-10
4.57794e-09
-3.1647e-09
-1.0564e-10
-1.29712e-09
1.40276e-09
-3.66827e-09
3.69255e-09
-8.52185e-09
2.09393e-09
-1.87382e-09
8.30175e-09
-7.74978e-09
-1.7392e-09
1.48375e-09
-9.64718e-09
-1.79501e-09
1.80936e-09
9.63284e-09
-2.90928e-10
1.42535e-10
-7.25022e-09
3.86413e-09
-3.0431e-10
-3.55982e-09
-2.64288e-10
-9.52724e-11
3.78137e-11
3.21747e-10
-1.11458e-09
1.02816e-09
-1.1259e-09
1.21232e-09
8.34445e-10
1.47782e-08
-6.42215e-09
-9.19047e-09
-7.11267e-09
-4.13386e-10
1.72195e-10
-3.50319e-09
7.18332e-09
6.51941e-09
6.39528e-10
-6.9714e-10
3.27159e-09
8.32794e-10
5.73606e-09
-1.79448e-09
5.26733e-09
-6.05325e-09
2.5804e-09
-1.92603e-10
-3.72267e-10
9.68879e-09
-9.73056e-09
4.14037e-10
8.87147e-09
8.06446e-10
-9.25594e-09
-4.21976e-10
-9.06474e-11
-8.67349e-09
1.24499e-10
-8.28053e-09
5.42761e-10
8.16686e-09
-4.29088e-10
3.30388e-09
-9.15744e-09
9.28005e-09
4.79452e-09
-2.56846e-09
-1.05543e-08
8.32826e-09
4.06358e-10
-1.40026e-10
9.25233e-11
6.34211e-10
2.91783e-10
-4.30626e-11
-4.72516e-11
1.02762e-08
3.08892e-10
-1.19529e-09
-9.38983e-09
-3.14837e-09
7.3124e-09
-8.93906e-11
9.59679e-11
-6.97955e-11
6.32182e-11
-5.08269e-09
2.38776e-09
3.8144e-09
-1.11947e-09
-7.29494e-09
8.21444e-09
1.86553e-09
6.9838e-09
-3.74875e-09
3.54522e-09
-6.78028e-09
3.23671e-09
-5.63757e-09
-1.85337e-09
4.25424e-09
2.68469e-09
-5.65141e-09
1.2584e-08
1.10895e-08
-9.26875e-09
8.20338e-09
-5.64e-09
4.4718e-09
-3.91449e-09
8.09544e-11
-1.20448e-10
9.06643e-09
-9.02694e-09
2.86147e-11
-9.2077e-09
-3.11436e-10
9.49052e-09
5.78119e-09
-5.78597e-09
-1.44992e-09
1.4547e-09
8.94585e-10
7.19031e-11
-7.35396e-11
-2.90179e-09
2.39897e-09
5.69029e-10
-6.62045e-11
-5.64188e-09
2.52355e-09
-2.94897e-09
6.06731e-09
1.33252e-09
-1.22052e-09
7.98816e-10
-1.08319e-08
8.65411e-09
1.37901e-09
5.14044e-10
-6.57405e-09
-5.17263e-09
1.12326e-08
-5.9408e-09
-5.67167e-09
7.96557e-09
2.00935e-09
9.26566e-09
-9.85343e-09
-4.96042e-09
4.70055e-09
7.24367e-09
-9.25198e-09
9.56009e-09
3.69221e-09
5.01839e-09
-6.76228e-09
-7.87412e-10
-8.95784e-09
1.14135e-09
-1.50584e-09
-4.47526e-09
-4.98162e-09
3.07461e-09
3.28669e-11
-4.63501e-12
-1.40447e-09
1.37624e-09
-9.53666e-09
2.84685e-10
7.2079e-09
-2.7085e-09
-6.52938e-09
-2.34321e-09
-6.42832e-09
-6.50565e-09
6.27085e-09
5.38127e-11
-1.68103e-09
-1.00909e-08
1.40837e-09
-4.53658e-09
6.25913e-09
4.60225e-09
-2.08653e-10
-4.35531e-10
4.5372e-10
-5.00244e-09
1.29023e-10
4.87341e-09
3.07201e-10
-1.31681e-10
8.70267e-09
-2.46231e-09
-9.17917e-10
-5.34576e-09
4.61725e-09
-8.80963e-09
-1.71163e-09
-8.11467e-09
2.23586e-09
3.33334e-09
4.86841e-09
5.60459e-10
1.96802e-10
-9.47382e-09
-7.90878e-10
1.42567e-09
8.83903e-09
-7.28304e-09
9.24275e-10
6.35877e-09
-4.76607e-09
4.87148e-09
-2.52848e-09
-5.93378e-09
2.49358e-09
5.96868e-09
-3.902e-09
5.47933e-09
-1.01848e-09
1.14911e-08
-9.50997e-09
-5.02762e-09
5.51357e-09
-2.86931e-09
2.38337e-09
9.43684e-09
-7.39999e-10
-1.00551e-08
-1.16496e-09
1.36716e-09
-8.99584e-10
7.52175e-09
-6.62217e-09
-5.16452e-09
-3.80902e-09
8.25928e-09
-2.89279e-10
-9.61323e-09
1.35052e-10
1.05615e-08
-4.95432e-09
4.84508e-09
-1.04522e-08
9.46647e-09
2.3828e-10
-2.04494e-10
-1.0657e-10
4.0079e-09
-1.62692e-10
7.64035e-10
-4.60925e-09
-1.23895e-10
1.59332e-10
-2.66901e-11
-4.59361e-09
-3.57486e-09
5.76114e-11
1.50222e-09
-1.52696e-09
-2.03175e-10
1.06994e-10
1.77264e-10
-6.44927e-09
6.01257e-09
-1.16016e-09
1.59685e-09
1.27277e-09
-5.00236e-09
-4.47594e-10
4.17719e-09
-5.80293e-09
-3.58594e-09
7.32195e-09
-3.92147e-10
-7.24297e-11
-2.7666e-10
-9.69421e-09
9.5986e-09
6.53499e-09
-1.48801e-09
-5.97518e-10
1.19287e-09
-9.31521e-09
8.55226e-09
-4.29922e-10
8.47662e-09
-3.13656e-10
-8.36707e-09
2.04107e-10
-5.62179e-09
-2.7918e-09
7.13648e-09
1.27711e-09
3.86622e-09
1.00428e-08
-1.27133e-08
1.04281e-09
1.96755e-10
-1.13224e-09
-1.07325e-10
-8.53076e-09
7.3264e-12
8.52811e-09
3.00808e-11
-3.18966e-10
-5.64667e-09
4.10012e-09
8.24452e-10
-1.24973e-09
-6.7943e-09
8.0568e-09