/*--------------------------------*- C++ -*----------------------------------*\
  =========                 |
  \\      /  F ield         | OpenFOAM: The Open Source CFD Toolbox
   \\    /   O peration     | Website:  https://openfoam.org
    \\  /    A nd           | Version:  8
     \\/     M anipulation  |
\*---------------------------------------------------------------------------*/
FoamFile
{
    version     2.0;
    format      ascii;
    class       volVectorField;
    location    "10";
    object      U;
}
// * * * * * * * * * * * * * * * * * * * * * * * * * * * * * * * * * * * * * //

dimensions      [0 1 -1 0 0 0 0];

internalField   nonuniform List<vector> 
7843
(
(0.000751803 0.00134601 -1.86093e-22)
(0.000552545 0.000977322 9.07945e-22)
(0.000560573 0.00100273 0)
(0.000993664 -7.8805e-06 5.58641e-22)
(0.000725768 0.00126498 -2.36503e-22)
(0.000997086 3.79516e-05 -6.67416e-23)
(0.000573575 0.000544555 -1.96804e-21)
(0.000619759 0.00107378 0)
(0.000217844 9.53632e-05 2.71766e-21)
(0.000539021 0.000964412 0)
(0.000571891 0.00101233 7.17179e-22)
(0.000756211 0.00134934 0)
(0.000321253 5.25711e-05 0)
(0.000564936 0.00101762 0)
(0.000573529 0.000969395 1.20957e-21)
(0.000302194 0.000528807 7.29618e-22)
(0.000569824 0.00100978 2.1638e-24)
(0.000576457 0.000947122 0)
(6.38232e-06 8.24477e-05 8.11124e-22)
(0.000252775 0.000376707 0)
(0.000205464 0.000142677 2.33791e-21)
(0.000413976 0.00044728 -3.89855e-22)
(0.000572094 0.00101462 2.15988e-24)
(8.70998e-05 0.000875426 -1.08266e-22)
(0.000737803 0.0012083 -4.39656e-22)
(1.70057e-05 -5.33684e-06 0)
(0.000618391 0.00136598 -2.89029e-23)
(6.09063e-05 0.000372913 2.35819e-21)
(0.000656166 0.00119774 -8.94865e-23)
(0.00100803 7.07371e-07 -6.34071e-22)
(0.000892884 0.000154724 -8.23256e-22)
(0.000568538 0.00104157 2.61754e-22)
(0.000826205 -9.80123e-05 7.69178e-22)
(0.000623452 0.00108326 9.99857e-23)
(0.000546225 0.000963148 6.996e-22)
(0.000771965 0.00123475 -1.5889e-21)
(0.000570218 0.000967071 -5.20849e-22)
(0.000939312 0.000347395 1.07044e-24)
(0.000982217 4.53154e-05 -8.61144e-23)
(0.00050917 0.00094483 7.70366e-22)
(0.000572301 0.00097596 -1.38465e-23)
(0.000631378 0.00111301 -8.39792e-22)
(0.000718202 0.00122822 0)
(0.000554725 0.000976752 -1.8284e-21)
(0.000224589 7.68859e-05 -8.23013e-22)
(0.000189803 0.000465499 5.42335e-22)
(0.000569104 0.00101589 7.6776e-22)
(0.000211255 0.000590888 1.09193e-21)
(0.000613892 0.00109634 9.59783e-22)
(1.03977e-05 3.27031e-05 2.14227e-23)
(0.000355876 4.08977e-05 -7.77199e-22)
(0.000555609 0.000972118 1.00543e-23)
(0.000612332 0.00108271 0)
(0.000778612 0.000535984 6.89339e-22)
(0.000680234 0.00117789 -1.77821e-22)
(6.95442e-06 8.32663e-05 0)
(0.00037119 0.000442835 2.07957e-21)
(0.000572729 8.46784e-05 7.93908e-22)
(0.000713094 0.00125802 -2.90942e-24)
(9.98421e-05 0.000171648 -1.06646e-21)
(0.000715038 0.00122783 2.84604e-22)
(0.00104573 0.000451575 7.20928e-23)
(7.1816e-05 0.000560833 -3.6608e-21)
(0.000829177 0.000120595 -1.41037e-21)
(0.00066409 0.00126297 6.25189e-24)
(0.000770045 0.00136323 -4.78282e-22)
(0.000721788 0.00122534 0)
(1.00189e-05 6.63188e-05 0)
(0.000574743 0.000530031 0)
(0.000714065 0.00122682 0)
(0.000360635 -0.000143038 -7.59838e-22)
(0.000567663 0.000984437 7.65183e-22)
(0.000220347 0.00119536 1.60983e-23)
(9.95117e-05 0.000163759 6.96924e-22)
(0.000346777 -0.000101822 -6.90071e-22)
(0.00037912 0.000673956 5.96792e-22)
(0.000718654 0.00122772 2.29497e-22)
(0.000715934 0.00122822 -9.66259e-23)
(0.00064009 0.00112547 0)
(0.000948138 4.80596e-05 0)
(0.00047573 -2.66947e-05 -1.08271e-21)
(0.000666716 0.00121779 0)
(0.000559351 0.00102516 -8.9765e-22)
(0.000706388 0.000323547 1.69149e-21)
(0.000397014 0.000692116 -4.83212e-22)
(0.000622491 0.00107305 -4.97906e-22)
(0.000461672 0.000356565 0)
(0.000712758 0.00123646 -5.89131e-23)
(0.000840047 0.000301948 -1.29625e-21)
(0.000217952 0.000465683 7.90819e-22)
(0.000193037 0.000168524 -4.44307e-21)
(0.000580434 0.000992708 -4.29731e-22)
(1.39783e-05 4.94321e-05 9.25715e-26)
(0.000873583 0.000134404 2.44988e-21)
(0.000526821 0.000343912 0)
(0.000789651 0.00137441 7.27983e-22)
(2.13426e-05 6.86279e-05 -1.73027e-21)
(0.000457199 0.00105125 -1.7601e-23)
(0.000418612 3.14326e-05 1.1802e-21)
(0.000384612 0.000697847 -6.04631e-22)
(0.000491713 0.0011455 0)
(0.000609033 0.00125604 1.23357e-22)
(0.000384281 0.000405796 0)
(0.000735105 0.00145506 0)
(0.000199712 0.000204893 -1.13276e-21)
(0.000134585 0.00106349 -9.48709e-22)
(8.45684e-06 4.79906e-05 1.57247e-22)
(0.00035261 -0.000190656 -7.71423e-22)
(0.000488209 0.000898348 -6.2664e-22)
(0.000551995 0.000954248 0)
(0.00070936 0.00128301 1.09597e-23)
(0.000600847 0.000573542 -7.01782e-22)
(0.00107636 0.000401372 6.7041e-23)
(0.000634575 0.00108567 -5.65599e-22)
(0.000170969 0.000315156 -2.14966e-21)
(0.000690004 0.00138561 -5.08703e-22)
(0.000837722 0.000274479 1.97961e-24)
(0.000777257 0.00135741 7.62357e-23)
(0.000191882 0.000213286 0)
(0.000578645 0.000985696 1.37812e-21)
(0.000725282 0.00126215 4.41171e-22)
(0.000711703 0.00124589 8.25596e-23)
(0.000552815 0.000990005 -7.52874e-22)
(0.000664744 0.00112764 1.86657e-22)
(0.000497598 3.85748e-05 -9.90869e-22)
(0.000385323 0.000499828 0)
(0.000630639 0.00107181 0)
(0.000177799 0.000892546 -1.75895e-21)
(0.00055821 0.00069443 -8.97582e-23)
(0.000987875 4.29209e-05 0)
(0.000580375 0.000990932 4.33594e-22)
(0.000180586 0.000380822 4.12327e-22)
(0.000357821 0.000180639 1.42658e-21)
(0.000713089 0.00122826 -4.74088e-22)
(0.000518781 0.000978163 -2.01062e-21)
(0.000565857 0.000960317 -7.78259e-22)
(0.000995875 3.59986e-05 4.20749e-23)
(0.000311639 0.000732887 -1.56877e-23)
(0.000571732 0.000974029 -4.83757e-24)
(0.000713366 0.00123198 1.87896e-22)
(0.00047966 6.38707e-05 -8.45093e-22)
(0.000605255 0.000846292 1.00467e-21)
(0.000716404 0.000239262 5.20982e-23)
(0.00097376 -0.000232662 1.03864e-21)
(1.38634e-05 5.23982e-05 9.64224e-26)
(0.0007902 -3.32345e-05 6.12616e-22)
(0.00062948 0.00112168 -8.92877e-22)
(0.000489542 0.000957193 -1.5798e-23)
(0.000723036 0.000867792 1.2886e-21)
(7.84148e-05 0.000862116 9.93379e-22)
(0.000600875 0.00104334 7.55552e-24)
(0.000547451 0.000568382 -8.12235e-22)
(0.000785878 0.000179957 7.84714e-22)
(0.000575375 0.000977303 0)
(0.000723143 0.00122433 6.72257e-22)
(0.000560484 0.000982593 -7.64215e-22)
(4.27557e-05 0.000298516 -1.39552e-21)
(0.000194505 0.000393213 -5.71365e-22)
(0.000574601 0.00101045 1.90624e-21)
(0.000572623 0.000990191 0)
(0.000347683 0.000113902 1.69508e-21)
(0.000562135 0.000982943 -1.55033e-21)
(0.00133461 0.000374339 5.00283e-23)
(0.000564346 0.000986313 -6.59887e-24)
(0.000576213 0.00100896 -9.33164e-22)
(0.000615574 0.001076 -3.07986e-22)
(0.000713743 0.000297576 -9.90338e-22)
(0.000378208 0.00136331 0)
(0.000631297 0.00109601 -1.96529e-22)
(0.000566057 0.000990865 8.0706e-22)
(0.000611912 0.00108546 0)
(0.000572994 0.00100351 9.04125e-22)
(0.000567299 0.000993884 -3.28141e-24)
(0.000130224 0.000326172 -2.2036e-21)
(0.000569903 0.000998154 -8.66758e-22)
(0.000332741 9.69826e-05 -4.83747e-26)
(0.000402042 0.000728287 0)
(0.000234068 2.23151e-05 9.20976e-23)
(0.000382727 0.000690281 7.02941e-22)
(0.000765968 0.00135367 -2.73909e-22)
(0.000410813 0.000709004 2.11074e-22)
(0.000631291 0.0010917 -4.35717e-23)
(3.63771e-05 0.000240395 7.96025e-26)
(0.000569599 0.0010081 0)
(0.000548887 0.000961039 7.65135e-22)
(0.000419638 0.000567302 -3.46147e-23)
(8.31174e-06 4.44307e-05 1.99779e-23)
(0.000564888 0.000585493 7.68505e-22)
(0.000375383 0.000637849 0)
(0.000224333 0.000471054 0)
(0.00056845 0.000983572 -3.61934e-22)
(0.000309008 0.000540742 8.5573e-22)
(0.000899073 9.60977e-05 7.25753e-22)
(0.000327225 7.54912e-05 0)
(0.000557493 0.000987461 -8.2541e-22)
(9.94005e-05 0.000111527 2.52843e-22)
(2.2959e-05 -1.26654e-06 0)
(0.000259323 0.000351732 2.4418e-21)
(0.000713314 0.00123094 -6.91714e-23)
(0.000460842 0.000933269 1.02092e-21)
(0.000555519 0.000966216 1.83732e-21)
(0.000712914 0.00124235 9.58592e-23)
(0.00057816 0.00099379 8.34319e-22)
(0.000719361 0.00123964 2.97322e-22)
(0.000409009 0.000771123 6.27765e-23)
(9.38903e-05 0.00010277 -3.46184e-22)
(0.000717194 0.00127554 6.45251e-23)
(1.35463e-05 0.000165957 2.74404e-22)
(1.4668e-05 -7.60214e-06 -5.15712e-22)
(0.000577181 0.000983672 -4.66278e-22)
(0.000805128 0.000748653 0)
(0.000553766 0.00096006 -9.34874e-22)
(0.000176438 0.000371755 6.35867e-22)
(0.000728731 0.00123514 2.89669e-22)
(0.000723447 0.00122207 1.85465e-22)
(0.000442528 0.000908386 2.08729e-21)
(0.000729409 0.000224185 -1.77206e-22)
(0.000719545 0.00125988 0)
(2.12723e-06 7.12335e-07 0)
(0.000766853 0.000507112 0)
(0.000482945 0.000349201 3.62588e-22)
(4.10736e-05 0.000503136 2.71838e-22)
(0.000350846 0.0010911 0)
(0.000575987 0.0010103 9.30806e-22)
(0.000708501 0.000711288 1.7372e-22)
(0.000880725 0.00012334 0)
(0.00124454 0.000305797 0)
(0.000719019 0.00122675 0)
(0.000575338 0.00101103 4.83046e-24)
(0.001004 0.000474216 0)
(0.000200842 0.000617014 0)
(6.97447e-06 4.09639e-05 -3.88131e-23)
(3.73288e-06 2.37773e-05 -3.38138e-22)
(0.000640253 0.00110705 1.28849e-22)
(0.000545944 0.000460469 -5.4638e-22)
(0.000723066 0.00122081 -3.63403e-22)
(0.000654181 0.00112967 0)
(0.000384008 0.000871734 -1.58709e-22)
(0.000722939 0.00122471 6.53894e-22)
(0.000525862 0.00123644 0)
(0.000646126 0.0011445 -5.78121e-22)
(0.000555489 0.000947938 2.65962e-22)
(0.000647397 0.0011521 5.50952e-22)
(0.000555461 0.000961654 -6.03385e-22)
(0.000255178 0.000557971 0)
(0.000383304 0.000691525 1.69576e-22)
(0.000996752 6.88361e-05 8.14172e-23)
(0.000918941 0.000318391 -2.5273e-21)
(0.000540488 0.000944439 0)
(0.000618868 0.00106986 -1.37013e-23)
(0.000967649 5.25862e-05 2.22483e-22)
(3.30624e-06 1.83241e-05 -3.09921e-26)
(0.000376705 0.000641549 -9.45694e-22)
(0.000720791 0.00121754 0)
(0.000350824 0.000660896 5.01779e-23)
(0.000804838 0.00138216 -3.55233e-22)
(0.000373277 0.000740765 0)
(0.000721906 0.00121874 1.83926e-22)
(0.000678909 0.00145771 -1.66621e-23)
(0.000617056 8.59206e-05 -1.19738e-21)
(0.000825689 8.05869e-05 -4.76575e-22)
(0.000348694 0.000464993 -1.64549e-21)
(0.00054216 0.00118783 8.0129e-23)
(0.000717412 0.00121336 8.07174e-22)
(0.000791663 0.0013733 -2.97588e-22)
(0.00084091 0.00055452 3.01163e-21)
(8.70036e-05 9.44024e-05 8.83682e-23)
(0.000574069 0.00100507 0)
(3.51266e-06 2.09681e-05 3.37047e-22)
(0.000268216 0.000887973 -2.05293e-24)
(0.000467641 -7.02737e-05 -6.81817e-22)
(5.72077e-07 2.21911e-05 0)
(0.000340587 -0.000238168 7.5419e-22)
(0.000183256 0.00122305 0)
(0.00071386 0.00121016 9.59295e-22)
(0.000439301 0.000352805 -9.82935e-25)
(0.000721836 0.00123924 3.51632e-22)
(0.000652264 0.00113035 2.63356e-22)
(0.00052589 0.000541077 1.27406e-24)
(0.000329044 0.000545208 -8.15805e-22)
(0.00078095 0.00137169 1.2794e-22)
(0.000719657 0.00121573 -7.74807e-22)
(0.000579459 0.00098793 4.461e-22)
(0.000496289 0.00033738 -1.38841e-21)
(0.000881722 0.00010205 3.75174e-25)
(0.000106511 0.00012176 -1.55346e-22)
(0.000488182 0.000485974 7.18476e-22)
(0.000627126 0.00109335 7.96459e-22)
(0.000769805 0.00137144 2.08296e-22)
(0.000574746 0.000973543 1.86066e-24)
(3.14599e-06 1.57787e-05 -3.38409e-22)
(0.000810878 0.000174242 0)
(0.000924559 0.000113595 -3.14402e-21)
(0.000594884 0.00101925 -1.35474e-22)
(0.000319672 0.00054282 2.26082e-21)
(0.000645934 0.00112237 -8.6028e-22)
(0.000548191 0.000952692 0)
(0.00116017 0.000192248 -2.47382e-21)
(0.000577804 0.000853797 -2.32362e-22)
(0.000715068 0.00121677 1.06292e-21)
(0.000378974 0.000794888 -2.16734e-22)
(0.000178217 0.000426266 7.92107e-22)
(0.000548384 0.000945262 0)
(0.00064611 0.00113471 -3.98253e-22)
(0.00015434 0.000295989 0)
(0.000368549 0.000570939 -7.38416e-22)
(3.00222e-06 1.33281e-05 3.28249e-22)
(0.000444432 0.000900379 -8.83777e-22)
(0.000326099 0.000529301 -1.14247e-21)
(0.000208213 0.000570926 1.37688e-24)
(0.00032994 0.000552287 6.25722e-22)
(0.000468079 0.000876043 1.83449e-22)
(0.000843757 0.000259107 -9.94746e-22)
(0.000396344 6.62181e-05 -1.87056e-21)
(0.000249694 8.4915e-06 -7.34668e-22)
(0.000572958 0.000345949 -2.34364e-22)
(0.000574913 0.00100691 1.8451e-21)
(0.000314885 0.000543844 0)
(0.000462621 -0.000374203 0)
(0.000368365 0.000625274 4.73232e-22)
(0.000185087 -2.28918e-06 4.8986e-22)
(0.000204199 3.31813e-06 0)
(0.000570687 0.000999813 -8.88863e-22)
(0.000716304 0.00121202 -1.09622e-22)
(0.000372265 0.000316137 -9.86806e-22)
(0.000195321 0.000729868 0)
(-0.000267806 -3.07321e-06 0)
(0.000259473 0.000278891 2.0346e-21)
(0.000197668 0.000610276 -6.29521e-22)
(0.000158771 1.67972e-05 0)
(0.000319696 0.000558683 0)
(0.000718524 0.00121456 7.85309e-22)
(0.000986577 4.81149e-05 -2.4751e-22)
(0.00076256 8.00286e-05 1.52168e-21)
(-0.000215639 0.00115622 0)
(0.000240778 0.000459527 5.41875e-21)
(0.000535317 0.00111276 -4.83195e-23)
(0.000542688 0.000947665 -1.33603e-21)
(0.000679579 0.00108566 -2.17872e-21)
(0.000359452 0.000450437 2.03117e-25)
(0.000224121 0.000492059 -6.61411e-22)
(0.000646601 0.00113566 -7.43823e-22)
(0.000235637 5.86462e-05 3.20904e-22)
(0.00056758 0.00102085 8.88019e-23)
(0.000331095 0.000683132 1.50566e-23)
(0.000603964 0.00135303 -3.05118e-23)
(0.000617386 0.00108481 3.9197e-22)
(0.0010123 0.000210284 7.71197e-22)
(0.000314292 0.000536849 8.58047e-25)
(0.000600056 0.00126337 0)
(0.000966755 3.53971e-05 5.96972e-22)
(0.000722328 0.00123779 4.13251e-22)
(0.000174023 2.29493e-05 1.45487e-22)
(0.000350953 1.94173e-05 -7.47853e-22)
(0.000353671 0.000588269 3.17068e-22)
(8.54132e-05 3.96877e-05 -1.67832e-22)
(0.00058231 0.000564301 7.21927e-22)
(0.000354315 0.000546267 2.10865e-21)
(0.000641842 0.00112285 -3.97346e-24)
(0.000575982 0.000980494 -9.58244e-22)
(-0.000193842 0.00017767 -1.27823e-22)
(0.000713133 0.0012093 -9.75766e-22)
(0.00122717 0.000262817 -5.1445e-22)
(4.01478e-05 0.00014034 -4.69608e-22)
(0.000968755 -1.53647e-06 1.01592e-21)
(0.000626456 0.00109094 4.64905e-22)
(0.0003653 0.000596239 0)
(0.00106726 0.000193404 -9.15534e-22)
(0.000373798 0.000309325 -1.55968e-21)
(0.00035645 0.000631993 -1.20117e-22)
(0.000132074 0.00100205 0)
(0.000515422 6.08487e-05 1.0157e-21)
(0.000636157 0.00108476 3.15336e-22)
(0.00073791 0.000483015 3.01688e-21)
(0.000641982 0.00111017 3.36785e-22)
(-0.000341453 0.000166895 2.55254e-22)
(0.000567983 0.000995094 8.42559e-22)
(0.000545039 0.00095915 -8.13459e-22)
(0.000627298 0.00107077 0)
(0.000948366 2.09519e-05 0)
(0.000560987 0.000983549 -5.11402e-24)
(0.000225706 0.000362233 -7.19437e-22)
(0.000640185 9.96945e-05 -5.62239e-23)
(0.000436565 0.000513472 -1.34972e-21)
(0.00071197 0.00133206 7.66842e-24)
(0.000599414 0.00102859 0)
(0.000559689 0.000984213 7.25656e-22)
(9.6102e-05 0.000183906 -6.09383e-22)
(0.000378954 0.000730953 -3.89609e-23)
(0.000425015 0.000730464 4.22881e-22)
(0.000546174 0.000958024 6.99524e-24)
(0.000161371 0.000264484 -8.70763e-22)
(-2.43123e-06 0.000287528 1.07199e-21)
(2.11555e-05 -1.26324e-06 0)
(0.000821301 0.000574322 -1.80377e-24)
(0.000645274 0.00113437 5.80133e-24)
(5.89907e-07 9.23676e-06 -3.27753e-22)
(0.00155924 0.000341143 6.55895e-22)
(0.000663481 0.000109601 0)
(0.000651377 0.00112899 2.18951e-22)
(0.000591862 0.00100946 -4.03374e-22)
(0.000217388 4.72808e-05 -2.38461e-22)
(2.45738e-05 1.27701e-06 8.30018e-22)
(0.000347836 0.00117374 -1.03945e-23)
(0.000348487 0.000613082 9.38414e-22)
(0.000673596 0.0011299 2.29039e-22)
(0.00071238 0.00120914 8.98804e-22)
(0.000762676 0.00140811 9.97312e-22)
(0.000216858 -1.1101e-05 -6.80546e-22)
(0.000188311 0.000612536 -4.43813e-22)
(0.00116576 0.000123941 -3.85759e-22)
(0.000647488 0.00113731 -7.0672e-22)
(0.000475474 0.000945632 -2.09419e-21)
(0.000513215 0.000257633 -3.72119e-22)
(0.000511379 0.00106119 0)
(0.00050438 2.7492e-05 1.10875e-21)
(2.58142e-06 6.58327e-06 -2.95142e-22)
(0.000742632 0.00140569 2.49997e-22)
(0.000715064 0.00121103 -7.27639e-22)
(0.000571377 0.00100165 -8.96205e-22)
(0.000916009 0.000274174 0)
(0.000215654 0.000563127 -4.9962e-22)
(2.42004e-05 7.81675e-07 1.15435e-23)
(0.000645516 0.0011278 -2.0754e-22)
(0.000553922 0.00161044 -1.76936e-23)
(0.00041992 0.00135494 0)
(0.000337415 0.000480534 -1.62664e-25)
(0.000487804 0.00122244 -3.73271e-23)
(0.000815748 0.000303935 2.36463e-22)
(0.000516054 0.000569637 2.49126e-25)
(8.39256e-06 9.24884e-05 -4.12644e-23)
(6.21354e-05 4.25845e-05 0)
(0.000722087 0.00123844 7.72241e-22)
(5.11529e-06 3.65917e-05 -1.28625e-24)
(0.00176299 0.000575807 -1.43929e-21)
(9.18257e-05 0.00071151 0)
(0.000151376 0.000266505 -1.50323e-21)
(0.000400863 0.00068182 -3.02422e-21)
(0.000643883 0.00113113 0)
(5.38522e-05 4.32406e-05 1.21068e-21)
(0.000643591 0.00109967 0)
(0.000228424 0.00026445 -1.01421e-21)
(0.000979897 0.000197502 -7.49675e-22)
(0.000315195 -6.08897e-05 -1.225e-21)
(0.000633961 0.00122014 -7.28428e-22)
(0.00111876 0.000178875 0)
(0.000481291 0.000257162 0)
(0.000113208 0.00094228 -6.76571e-22)
(0.000688734 -0.000220605 -2.44578e-21)
(0.000690326 0.0013099 2.47824e-22)
(0.000639932 0.00111554 -7.08757e-24)
(0.000613329 0.00108032 0)
(0.000775108 0.00049534 0)
(0.0011666 0.000134708 8.59801e-22)
(0.000601611 0.000265152 -1.07545e-22)
(0.000573187 0.000977238 2.14861e-22)
(0.000747257 0.00124133 0)
(0.000331852 0.000291722 0)
(0.000437306 0.00103486 -1.33135e-21)
(7.95309e-05 3.54855e-05 -6.08691e-22)
(0.00052703 0.000416416 -8.30562e-22)
(0.000668589 0.00120955 -6.77894e-23)
(0.000533423 0.00128383 -6.84928e-23)
(0.000571274 0.00140477 -1.02556e-23)
(0.000555443 0.000422084 5.93742e-22)
(0.000643409 0.00143737 -3.84433e-24)
(0.000441808 0.000472133 -1.11006e-21)
(0.000348631 0.000516596 1.74597e-21)
(1.4775e-05 -3.88665e-06 0)
(0.000941292 0.000722996 -7.43734e-22)
(0.000312908 0.000543785 -2.38017e-22)
(0.000638592 0.00112348 1.93035e-22)
(0.000145182 -2.39169e-05 0)
(7.75941e-06 8.0032e-05 0)
(0.000117143 0.000449149 1.39957e-21)
(0.000575405 0.00102076 3.17586e-22)
(0.000549914 0.00109819 0)
(6.48529e-05 2.8068e-05 -1.06318e-21)
(0.000172712 0.000633222 -4.12266e-22)
(0.000575834 0.000966845 5.07966e-22)
(0.00127385 0.000241725 -8.39163e-22)
(0.000388492 0.000381935 0)
(0.00084292 0.00017117 -1.78376e-21)
(0.000194116 0.000235076 -1.09575e-21)
(0.000957157 0.000650432 1.07814e-21)
(0.000776173 0.000463634 -1.498e-22)
(0.000372746 0.00063142 -5.41124e-24)
(0.000432554 0.00109679 1.321e-21)
(0.00029728 0.000968799 -2.41168e-23)
(0.000559635 0.000975019 -6.32354e-24)
(0.00054467 0.000975384 -1.36948e-23)
(0.000227269 0.00136256 -1.03765e-22)
(9.22648e-05 4.40127e-05 7.86765e-22)
(0.000572667 0.00102667 -2.94793e-22)
(0.000236265 0.000331422 -1.26593e-21)
(0.000959671 4.20906e-05 -4.8273e-22)
(0.000388508 0.00128502 -1.02158e-23)
(0.000288804 0.00102102 -2.47048e-24)
(0.000460314 0.000322055 -7.94227e-22)
(1.68912e-05 1.89233e-06 -1.7423e-22)
(0.00056053 0.0009531 -5.14654e-22)
(0.00014872 -1.20869e-05 -6.41699e-22)
(0.000641153 0.00111235 8.61469e-23)
(-0.0003805 0.00113812 -9.09321e-22)
(0.000568166 0.000976629 3.6623e-22)
(0.000641699 0.00110958 2.40747e-22)
(0.000640515 0.00111364 -8.65369e-23)
(0.000227959 0.000119147 -1.19048e-21)
(0.000318917 0.000549872 4.4048e-22)
(0.000267381 0.00051726 0)
(0.000252563 3.07011e-05 4.47335e-22)
(0.000960756 3.18835e-05 0)
(0.00064243 0.0011297 -5.05351e-22)
(0.000371176 0.000629668 4.53445e-22)
(0.000782948 0.000599151 8.74539e-22)
(0.000360131 0.000627447 -8.1271e-22)
(0.000223592 0.000633752 1.10404e-21)
(0.0010769 -9.46136e-06 0)
(0.000313953 0.0001936 0)
(0.00108378 0.000483198 -5.96055e-23)
(0.000425898 0.00094271 1.26092e-21)
(0.000520857 0.000800814 -2.89845e-21)
(0.000649769 0.00112112 -2.53003e-22)
(0.000712696 0.00120885 -8.8046e-22)
(0.000768124 0.000469942 7.94676e-22)
(0.000502917 0.00102911 0)
(0.000659969 0.00112342 0)
(0.000329507 0.000273624 -8.3141e-22)
(0.000237579 0.000714774 -6.58417e-22)
(0.000820512 0.000349337 1.54087e-21)
(1.37239e-05 -6.20777e-06 2.05808e-22)
(7.01014e-05 3.26524e-05 5.86776e-22)
(0.000544016 0.000944777 -6.54579e-24)
(0.000132289 -2.43246e-05 3.70971e-22)
(0.000413671 0.00034221 7.53978e-22)
(-0.000133218 0.000151743 0)
(1.4612e-05 0.00025703 9.15682e-23)
(6.00784e-05 4.14901e-05 0)
(0.000656597 0.00111948 0)
(0.000626044 0.000484176 3.0133e-22)
(0.000567304 0.000971677 -3.51951e-22)
(0.000197206 0.000173949 -2.53707e-21)
(0.000655861 0.00111794 8.69311e-22)
(0.000667549 0.00123736 -4.327e-23)
(0.000595533 0.000936994 5.40433e-22)
(0.000709505 0.00036945 0)
(0.000695868 0.00128106 8.97562e-23)
(0.000548717 0.000952006 0)
(0.000767863 0.00136796 -3.02671e-22)
(0.000568394 0.000996416 1.73276e-21)
(0.000100101 0.000265442 1.26833e-24)
(0.000664807 0.00120022 9.69119e-22)
(0.000949419 0.000118759 0)
(3.7425e-05 0.000390246 -3.35691e-22)
(0.000512471 0.000561001 4.17949e-22)
(0.000548246 0.000948285 9.2575e-22)
(0.000371707 0.000983156 -4.90755e-21)
(-0.000494915 0.000780799 1.71474e-22)
(3.7348e-05 5.98893e-05 -1.24967e-21)
(0.000640507 0.00110548 -1.40002e-22)
(0.000469881 0.000964998 2.72568e-21)
(0.00070711 0.00124556 -2.22547e-22)
(0.000622323 0.00118566 -9.61474e-22)
(0.000559042 0.00097734 7.11606e-22)
(0.000976073 7.04353e-05 -6.15865e-22)
(0.000641255 0.00111141 9.39694e-23)
(0.000213517 0.000137584 1.94868e-21)
(0.000672954 0.0011855 3.37586e-22)
(0.000360746 0.000612656 1.15391e-21)
(0.00017642 0.000590758 8.64074e-22)
(0.000679947 0.00120853 9.44406e-22)
(0.000465225 0.000842798 -2.8422e-23)
(0.00061297 0.00108918 5.97614e-23)
(0.000951213 6.41437e-05 0)
(3.05222e-05 0.000510168 -3.14963e-22)
(0.000292696 0.00070339 9.78605e-22)
(0.000632049 0.0010734 4.92287e-24)
(0.000632713 0.000360504 -3.44324e-21)
(0.00113167 0.000102232 0)
(0.000688608 0.00128946 -2.36251e-22)
(0.000174137 -0.000126112 9.64552e-22)
(0.000938603 9.72146e-05 0)
(0.000716568 0.00124265 -3.56856e-22)
(0.00101005 -0.000128987 -1.70055e-21)
(9.93187e-05 4.9041e-05 -3.10165e-22)
(0.00110291 0.000344276 1.21048e-25)
(4.04453e-05 0.000435353 1.07878e-22)
(0.000685168 0.00121107 0)
(0.000976253 0.000329844 5.89965e-22)
(0.000702837 0.000243948 0)
(0.000326121 0.000470313 0)
(0.00044024 0.000342699 0)
(9.23109e-05 -3.82664e-05 -1.45453e-21)
(0.000641291 0.00112766 -5.4693e-22)
(0.00129227 0.000528287 -2.69357e-21)
(0.00079396 0.00138136 2.71881e-22)
(0.000308043 0.000173186 -3.47799e-22)
(0.000515685 0.00103418 -9.28191e-22)
(0.000116023 -4.21975e-05 0)
(0.00106354 0.000182739 4.54174e-22)
(0.000837256 0.00054398 2.14585e-22)
(3.25809e-05 5.04086e-05 6.95171e-22)
(0.000723176 0.0012404 2.08335e-22)
(0.000326665 0.00121234 0)
(0.000485105 0.00146976 3.27687e-23)
(0.000554321 0.00117977 -8.29646e-22)
(0.000686601 0.00121056 9.14639e-22)
(0.000639274 0.00110449 0)
(0.000307938 0.000536256 7.32663e-22)
(1.81576e-05 0.00031942 4.10483e-22)
(0.00017269 -0.000107828 1.21808e-21)
(0.00055935 0.000978678 -8.72942e-22)
(0.000879689 0.00111471 6.19626e-22)
(0.000645969 0.000720893 -2.14044e-22)
(0.000721029 0.0012375 5.10657e-22)
(0.000770016 0.0013581 -9.01038e-22)
(9.5399e-05 -4.70465e-05 1.43981e-21)
(0.000640517 0.00112433 -2.31813e-24)
(0.000352521 0.000633399 0)
(0.000655239 0.000384334 4.0894e-22)
(5.61374e-05 4.94822e-05 0)
(0.00101208 -1.81477e-05 5.54024e-22)
(0.00031588 0.00053601 8.40238e-22)
(0.000230547 0.000416913 7.955e-23)
(0.000501366 9.45728e-05 -1.61443e-23)
(0.000372796 0.00051372 -2.50886e-21)
(0.00135577 0.000253899 1.73397e-22)
(0.00098161 0.000188103 -6.94881e-23)
(0.000513743 0.000559157 2.17847e-21)
(0.000499812 0.00113692 0)
(0.00038179 0.000627547 -3.30622e-22)
(0.000327297 0.000930987 0)
(0.000317692 0.0011876 7.51737e-22)
(0.000805596 0.00136727 6.18044e-22)
(0.000792822 0.000603889 8.6657e-22)
(0.000575764 0.00132517 -4.03866e-23)
(0.00042356 0.000323191 0)
(0.000187966 0.00017037 0)
(0.00014659 -0.000101127 -1.19028e-22)
(0.000177016 0.000366263 4.49797e-22)
(0.000268898 0.000617346 -2.41395e-22)
(0.000171784 0.00064087 0)
(0.000580494 0.00117997 -1.31427e-23)
(0.000544962 0.000960587 0)
(0.000557094 0.000994739 -7.07509e-22)
(0.000359377 0.000656709 3.52582e-22)
(0.000203755 0.000567278 -5.88765e-22)
(0.000637998 0.00112175 -6.32809e-22)
(0.000411216 0.000861511 1.02737e-21)
(0.000940349 0.000100232 7.85977e-22)
(0.000194705 4.10803e-05 1.34397e-22)
(2.0914e-05 1.76454e-06 -3.11898e-22)
(0.000117111 -0.0001861 0)
(0.0003209 0.000554316 7.49661e-22)
(5.8826e-05 0.000558497 1.23221e-21)
(0.000405615 8.20608e-05 1.68685e-21)
(0.000444652 0.000298048 0)
(0.000168772 0.000329416 2.02295e-21)
(0.000655191 0.00111552 -1.08885e-22)
(0.000365053 0.000618941 1.5866e-21)
(0.000551303 0.00117766 8.35857e-25)
(0.000336441 0.000198751 0)
(0.000218284 1.23712e-05 1.68054e-22)
(0.000578079 0.000390179 0)
(0.000639487 0.00111876 -1.41324e-22)
(0.000193983 4.76578e-05 0)
(0.000434547 0.000541549 1.41244e-22)
(0.00103226 0.000374368 6.77736e-23)
(0.000573983 0.000981506 -4.24202e-22)
(0.000728283 0.00126351 5.88115e-23)
(0.000382647 0.000571314 -8.6322e-22)
(0.000488592 0.000991459 7.03458e-22)
(0.000318836 0.000547305 -5.85274e-22)
(0.000224079 0.000563271 -8.52021e-22)
(0.000173002 3.79686e-06 0)
(9.37464e-05 0.000653828 1.14356e-21)
(0.000563981 0.00106467 0)
(0.000863303 0.000283928 1.26119e-21)
(0.00032734 0.000491495 1.01669e-21)
(0.000711932 0.00121061 -9.28333e-22)
(2.22294e-05 3.11454e-05 8.71028e-23)
(0.000384165 0.000694116 -1.65671e-22)
(0.000128313 -4.12969e-05 -7.10012e-23)
(0.000344157 0.000621322 -1.0526e-22)
(0.000777839 0.000569231 0)
(0.00098355 -4.86578e-05 -7.41644e-23)
(0.000727302 0.00126499 -1.85018e-22)
(0.000882238 -0.000360138 9.56068e-24)
(0.000761087 0.000106208 1.59802e-21)
(0.00120442 0.000636237 -1.57256e-21)
(0.000548154 0.000973108 0)
(0.000316029 0.000566177 -7.86119e-22)
(0.000712727 0.00121208 -1.06199e-21)
(0.000359048 0.000610511 5.52336e-24)
(0.000528305 0.000677876 9.17709e-22)
(5.50624e-05 0.000559114 3.78831e-21)
(0.00096743 0.000274344 2.58579e-22)
(0.000195063 0.000247725 0)
(0.000593509 0.000919966 -8.81356e-22)
(0.000277693 0.000135155 0)
(0.000209163 0.000474497 4.44272e-22)
(0.00065763 0.00111873 1.87311e-22)
(0.000983701 5.54995e-05 -3.43523e-22)
(0.000445654 0.00097898 1.66027e-21)
(0.000653956 0.00113109 1.739e-22)
(0.000393528 -7.8523e-05 -6.04756e-22)
(0.000164689 8.9179e-05 3.75559e-22)
(-3.94133e-08 0.000206211 -1.05717e-21)
(-8.25758e-06 0.0010659 1.03406e-21)
(0.00014807 2.01642e-07 -6.00626e-22)
(0.000363258 0.000616227 -5.56976e-22)
(0.000145586 7.6452e-05 -3.48984e-22)
(0.000609845 0.00107952 -4.21996e-23)
(0.000299042 0.000360326 -4.81629e-22)
(0.000561955 0.00121649 0)
(0.000247808 -6.28907e-05 -1.43989e-21)
(0.000846183 -1.94926e-05 3.58834e-22)
(0.000566255 0.00099231 1.65652e-21)
(0.000175265 5.36456e-05 -1.74313e-21)
(0.000647732 0.00119245 -9.61466e-22)
(0.00107776 3.80588e-06 -7.07996e-22)
(0.000286483 0.000160904 1.73863e-22)
(0.000525949 9.56812e-05 0)
(0.0006422 0.00111185 8.24688e-22)
(0.000396466 0.000695962 2.21908e-22)
(0.000184199 0.000652329 3.07595e-22)
(0.000823153 0.000530676 0)
(0.000735947 0.000588781 2.16957e-21)
(9.78987e-05 -1.27555e-05 -6.59212e-22)
(0.00139939 0.000308635 -1.99561e-22)
(0.000522331 1.98107e-05 -1.1447e-21)
(0.00121014 0.000233821 4.00945e-22)
(0.000706355 0.00124454 0)
(0.000283555 0.00056007 0)
(0.000668784 0.00117267 6.60248e-23)
(0.000645733 0.00113461 4.27986e-22)
(0.000678555 0.00125366 -1.65697e-22)
(0.000824799 0.00141637 8.35074e-22)
(0.000409788 0.00130141 9.11313e-22)
(0.000648964 0.000337245 5.30669e-22)
(0.000563346 0.00114001 0)
(0.000624751 0.00116934 -1.91492e-23)
(0.000393239 3.54912e-05 4.15853e-22)
(0.000759543 0.000523343 -1.52281e-22)
(0.000179323 6.64632e-05 9.02606e-27)
(0.000234539 -0.000199102 1.27333e-21)
(0.000246403 0.000629738 4.39793e-22)
(0.000170539 0.000422217 7.5557e-22)
(0.000298692 0.000466279 1.83089e-21)
(0.000340328 0.000553326 -1.16348e-21)
(0.000313881 0.000573999 -4.02233e-22)
(0.000181789 0.000645522 -7.29497e-22)
(0.000101036 -1.81319e-05 3.67927e-25)
(4.21088e-05 0.000603961 -2.03186e-21)
(0.000501891 0.00122723 0)
(0.000621489 0.00121028 0)
(0.000699538 0.000547844 0)
(0.00057563 0.000448159 1.54974e-21)
(0.000721088 0.00125742 3.2526e-22)
(0.000804145 0.000540562 2.36185e-21)
(0.00105384 0.000336054 0)
(0.000304833 0.000337776 2.42055e-22)
(0.000164123 0.000612003 5.55464e-22)
(0.000565247 0.000967197 6.86589e-22)
(4.47797e-05 3.44536e-05 0)
(0.000912917 3.49131e-05 -1.08857e-21)
(0.00013177 0.000400831 6.235e-22)
(0.00080672 0.000547071 -2.97062e-22)
(0.000336137 0.0005399 2.76215e-22)
(0.000355286 0.000376912 1.2173e-21)
(0.000639813 0.00117186 0)
(6.24208e-05 2.74739e-05 1.64524e-22)
(0.000141587 -8.34765e-05 -1.48288e-22)
(0.000738179 0.00137806 2.54276e-22)
(0.000670511 0.0011663 -4.13616e-22)
(0.000575087 0.000996153 3.15575e-22)
(0.00067563 0.00118613 3.23766e-22)
(0.000975994 1.88095e-08 -2.10964e-22)
(0.000221545 0.000634565 0)
(0.000390361 6.037e-05 -1.38056e-21)
(0.000709018 0.00124665 0)
(0.000998469 0.000115735 0)
(0.000639085 0.00114712 -1.19338e-22)
(0.000384541 0.000913879 -1.04171e-21)
(0.000769566 0.00140139 -4.396e-23)
(6.02614e-07 7.38888e-06 -3.26847e-22)
(0.000309675 0.00047932 -1.28823e-21)
(0.000100208 -3.25318e-06 -1.76094e-21)
(0.00066748 0.0011779 1.19538e-22)
(0.000176688 0.000485097 -4.62788e-22)
(0.000190481 0.000534631 6.37733e-22)
(0.000743021 3.85673e-05 1.14762e-21)
(0.000499079 0.00111775 0)
(0.00101783 0.000311689 3.99782e-22)
(0.000715504 0.00104435 7.78985e-23)
(0.000317019 0.000513786 8.82906e-22)
(0.000114476 -5.07006e-05 -2.03827e-23)
(0.000534804 3.6739e-05 8.45054e-25)
(0.000342032 0.000389852 -2.34234e-21)
(0.000320718 0.000453247 1.04801e-21)
(9.99357e-05 5.64441e-06 -8.0847e-22)
(0.000246913 0.000365899 -2.23723e-21)
(0.000729872 0.00141041 -1.26472e-21)
(0.000641536 0.00112803 1.07675e-21)
(0.000343502 0.000528043 -8.42285e-22)
(0.000645929 0.00113454 -4.29745e-22)
(0.000705272 0.000215667 -4.99035e-22)
(0.000269615 -0.00016454 -2.18004e-21)
(0.000338652 0.000515339 -1.60383e-21)
(0.000653266 0.00111416 8.24467e-22)
(0.00122884 0.000168606 -7.51304e-23)
(0.000721148 0.00123947 3.32589e-22)
(0.000178083 0.000134921 -8.26385e-22)
(0.00057193 0.00100609 4.7516e-22)
(0.00067746 0.0011837 -1.04192e-22)