/*--------------------------------*- C++ -*----------------------------------*\
  =========                 |
  \\      /  F ield         | OpenFOAM: The Open Source CFD Toolbox
   \\    /   O peration     | Website:  https://openfoam.org
    \\  /    A nd           | Version:  8
     \\/     M anipulation  |
\*---------------------------------------------------------------------------*/
FoamFile
{
    version     2.0;
    format      ascii;
    class       volVectorField;
    location    "10";
    object      U;
}
// * * * * * * * * * * * * * * * * * * * * * * * * * * * * * * * * * * * * * //

dimensions      [0 1 -1 0 0 0 0];

internalField   nonuniform List<vector> 
5119
(
(0.000902577 0.00142662 9.0744e-23)
(0.000205917 6.41554e-05 4.12306e-21)
(0.000832582 1.84435e-05 -2.39722e-21)
(0.000607881 0.000804488 -1.16491e-24)
(0.00076936 0.00126266 1.81602e-22)
(0.000864523 6.50914e-05 1.2309e-21)
(0.000270426 0.000203522 -1.25922e-21)
(3.206e-05 -4.08884e-06 -6.12449e-23)
(0.00021022 0.00109397 -1.05248e-21)
(0.000956249 0.00147417 7.39647e-23)
(0.000644059 0.00080187 1.57019e-24)
(0.000741592 0.00113477 -3.09596e-22)
(0.000733427 0.00118776 -2.11405e-22)
(0.000713991 0.000492512 9.57295e-22)
(0.000831603 0.00131467 -7.0595e-23)
(0.000672244 0.0011702 0)
(0.000809525 0.00141767 2.71719e-22)
(0.000830576 0.00129869 -9.45848e-23)
(0.000921017 0.00144363 2.70403e-22)
(0.000769231 0.00121093 6.03583e-23)
(0.000741555 0.00123256 2.68818e-22)
(0.000681375 0.00108504 7.1522e-22)
(0.000689962 0.00110674 -1.484e-22)
(0.000830881 0.00126734 1.06093e-22)
(0.000728583 0.00116632 0)
(0.000942203 0.0014713 6.15159e-22)
(0.000728762 0.00111772 0)
(0.000746784 0.00114082 8.12981e-23)
(0.000762399 0.00116518 3.111e-22)
(0.000684778 0.00107126 8.37802e-23)
(0.000774046 0.00118806 -2.77504e-22)
(0.000763514 0.00116969 -8.23725e-24)
(0.000697111 0.00110935 5.28129e-22)
(0.000818734 0.00128138 0)
(0.000970155 0.0014723 -9.00415e-23)
(0.000728532 0.00113632 2.67128e-22)
(0.000701995 0.00109391 2.61372e-22)
(0.000713848 0.00111274 3.54889e-23)
(0.00069957 0.0011673 -1.05465e-24)
(0.000691536 0.00107944 8.67993e-22)
(0.00060284 0.000163096 4.97377e-25)
(0.000896552 0.00149429 -3.80331e-22)
(0.000753933 0.00130037 2.07792e-22)
(0.000689641 0.00118621 0)
(0.000683235 0.00116126 -2.23657e-22)
(0.000618366 0.000147918 -1.90791e-21)
(0.000798784 0.00135657 -6.96855e-22)
(0.000698052 0.00118446 0)
(0.000771656 0.00129583 7.76388e-24)
(0.000752123 0.00129352 -1.93695e-22)
(0.000603834 0.000402942 -1.48966e-21)
(9.32761e-05 0.00062636 -9.98513e-22)
(0.000946563 4.02823e-05 -5.05296e-22)
(0.000649163 7.23056e-05 2.05963e-21)
(1.39851e-05 0.00041892 -2.95398e-21)
(0.000712959 0.00116354 8.11813e-22)
(0.000695508 0.000757444 1.36469e-24)
(3.55351e-05 -1.64131e-06 8.61424e-22)
(0.000737762 0.00123914 0)
(0.000876627 0.00147135 0)
(0.000656303 0.00120334 -1.38954e-21)
(0.00068662 0.00116136 2.13965e-21)
(0.000722358 0.00118203 0)
(0.00080667 0.00135872 1.14012e-21)
(0.000491413 0.000112586 1.12045e-21)
(0.000792521 0.00135219 7.97718e-22)
(0.000761111 0.000368961 2.43095e-24)
(0.000893756 0.000579491 9.83887e-22)
(0.000792835 0.00133115 0)
(0.000696546 0.000507541 -2.91093e-22)
(0.000199268 0.000356622 -1.36381e-24)
(0.000174393 -2.47828e-05 -4.46062e-21)
(0.000900104 0.000315908 1.33116e-21)
(0.000690258 0.00117632 3.82387e-22)
(0.000734278 0.00116686 -1.31527e-21)
(0.00090702 0.00141131 0)
(0.000319338 9.37395e-05 9.18789e-22)
(0.000611945 0.000202576 5.63236e-22)
(0.000534706 0.00104442 0)
(0.000492841 0.000932144 -7.25362e-22)
(2.5299e-05 0.00068519 0)
(0.000958757 0.000519039 0)
(0.000946028 0.00150654 0)
(0.000690238 0.00137992 1.5035e-23)
(0.00062884 9.91231e-05 0)
(0.000686673 0.00124077 1.26327e-22)
(0.000778889 -3.98076e-05 2.15986e-21)
(0.000728285 0.00125488 1.82299e-21)
(0.000574136 0.00116618 3.28979e-23)
(0.000597711 0.00121019 0)
(0.000584568 0.0011856 0)
(0.000561664 0.00114288 0)
(3.43765e-05 -1.22442e-06 -1.39238e-21)
(0.000427145 0.000773489 -1.36683e-21)
(0.000430133 0.000770171 0)
(0.000466238 0.000679762 2.30256e-21)
(0.000876389 7.77744e-06 0)
(0.000714106 0.00122784 1.51057e-21)
(0.000685865 0.000777615 1.37386e-21)
(0.000705954 0.00121994 -1.28208e-22)
(0.000762141 0.00140614 5.99027e-22)
(0.000654954 0.00118096 0)
(0.00150021 0.000945976 -2.22237e-21)
(0.000757731 0.00165111 -3.94238e-22)
(0.000317506 0.00011609 1.99261e-21)
(3.6606e-05 5.2844e-06 1.02575e-21)
(0.000690977 0.0012906 -1.8674e-21)
(0.000578907 0.000311223 4.29465e-22)
(0.00085078 0.000586669 1.24308e-22)
(0.000670742 3.33991e-05 0)
(0.000410875 0.00129876 -2.42792e-21)
(3.63094e-05 1.98895e-06 -1.79834e-26)
(0.000242898 -3.62466e-05 7.9652e-22)
(0.000798532 0.00129896 -1.96362e-22)
(0.000299514 0.000162972 4.06709e-21)
(0.000478595 0.000638329 -2.17813e-22)
(0.000516492 0.000791867 -1.73e-21)
(3.84941e-05 4.05915e-06 -1.9249e-21)
(0.000505525 0.000565221 -3.77226e-21)
(0.000805174 0.00132081 9.67916e-23)
(0.000786493 0.000359922 0)
(0.000836302 0.00138581 -6.29437e-22)
(0.000178439 0.000865736 -4.31644e-22)
(0.000712742 0.00125463 1.19863e-21)
(0.000856221 0.00147786 -1.57236e-21)
(0.000923641 0.00157616 4.09026e-22)
(0.000735173 0.00131719 -2.52678e-24)
(0.00086507 0.00154144 -2.28335e-22)
(0.00082169 0.00134813 4.24818e-22)
(0.000705482 0.00121282 -3.12855e-22)
(0.00071845 0.00125843 -1.27159e-21)
(0.000709039 0.00119441 -2.05602e-22)
(0.000860862 0.0014066 -4.1789e-22)
(0.000771378 0.00127947 -3.98591e-22)
(0.000810415 1.68292e-05 -1.42296e-21)
(0.000578343 0.000334278 1.48759e-25)
(0.000648169 0.00132612 0)
(0.00075969 0.00126949 0)
(0.00023401 0.000324128 1.21125e-21)
(0.000818938 0.00134662 0)
(0.000686408 0.00118958 -9.77961e-22)
(0.000671359 0.00115913 3.26758e-22)
(0.000647584 0.00113957 2.51123e-22)
(0.000686105 0.00110761 1.08567e-22)
(0.000744667 0.00125046 3.46849e-22)
(0.000732319 0.00122222 1.36414e-22)
(0.000734182 0.00122159 -8.85599e-23)
(0.000758978 0.00127172 0)
(0.000743153 0.00124511 -8.99815e-23)
(0.000864241 0.000907798 -3.24191e-22)
(0.00064174 0.0012927 0)
(0.000890236 0.000191265 0)
(0.000645561 0.0011938 0)
(0.000451019 0.000759713 2.2313e-21)
(0.000335361 0.00062482 2.05411e-21)
(0.000881734 0.00145562 3.18659e-23)
(0.000397477 0.00063721 2.76604e-21)
(0.000973155 9.51113e-05 0)
(0.000280498 0.000268463 9.84242e-22)
(0.000183652 0.000711687 2.03496e-22)
(0.000712621 0.00147608 -9.41556e-22)
(5.02209e-06 1.55394e-06 0)
(0.000146973 0.000270499 -2.15423e-21)
(0.000786731 0.00139727 -9.04437e-22)
(3.7058e-05 4.1044e-06 4.78732e-22)
(0.000991393 0.00024482 2.24545e-21)
(3.2174e-05 0.000187009 -5.9049e-21)
(0.00014947 -1.77862e-05 -1.41436e-21)
(4.03267e-05 -7.38167e-07 1.69482e-21)
(0.000129098 0.00057204 0)
(0.000267602 0.000357659 1.58918e-22)
(0.000861979 0.00155078 4.15333e-22)
(0.000478832 0.000555779 2.15445e-21)
(0.000481163 0.000466337 -2.15483e-22)
(0.00040189 0.000604528 2.22005e-21)
(0.000536009 0.000473418 -2.09055e-21)
(0.000151218 0.0003182 -1.60424e-24)
(0.000643028 0.00115808 1.06627e-22)
(3.55904e-05 8.70686e-06 -1.61453e-21)
(0.000789953 0.00143141 2.22538e-22)
(0.000794552 0.000335326 -2.92067e-21)
(0.000738359 0.000378227 0)
(0.00073666 0.0012275 0)
(0.000563254 0.000963602 -1.32846e-21)
(0.000255395 7.17214e-05 -2.61946e-21)
(0.000469726 0.000703015 -3.65379e-22)
(0.00046352 0.00010719 1.07382e-21)
(0.000320972 0.000303994 -1.03215e-21)
(0.000582663 0.000376027 -1.62683e-21)
(0.000263585 0.00017977 -1.05408e-21)
(0.000155952 0.000711109 0)
(0.000562969 0.0012613 -4.26273e-22)
(0.000778095 0.00130066 9.55424e-22)
(0.000535689 0.000558119 1.91565e-21)
(2.4251e-05 -4.58769e-06 0)
(0.000340421 0.000760388 0)
(0.000697545 1.57769e-05 -1.34642e-21)
(0.000710033 0.000394478 4.95927e-21)
(0.0004346 0.000889846 1.01737e-21)
(0.000943731 0.000179677 1.83514e-22)
(0.000136336 -1.33022e-05 -3.75144e-21)
(0.000574021 0.000981887 0)
(4.03267e-05 1.13199e-06 -1.72237e-22)
(0.000752704 0.00133029 -2.58533e-22)
(0.000668988 0.00123397 0)
(0.000694146 0.00125406 2.37424e-22)
(0.000663401 0.00114214 1.10417e-21)
(0.000530111 0.00122577 -3.12176e-21)
(0.000312741 0.000407191 7.61464e-22)
(0.000794584 0.000563939 -4.17984e-21)
(0.000161318 0.000255149 2.15011e-21)
(0.000418897 0.000595358 4.36965e-23)
(0.000921886 0.000318414 -1.67165e-24)
(0.000463318 0.000650894 -1.35248e-21)
(0.00060536 0.0002997 3.98467e-22)
(0.000330773 0.000413598 -9.78127e-22)
(0.000250255 0.000319623 2.91238e-26)
(0.000375462 0.000522858 -1.15327e-21)
(0.000372401 0.000620594 -2.02389e-24)
(0.000345594 0.000298565 7.15595e-22)
(0.00070926 0.0014973 9.41326e-22)
(0.000436563 0.000648013 0)
(3.11514e-05 7.25514e-06 0)
(0.000696367 0.0012892 -7.21355e-22)
(0.000458572 0.000638303 -1.08865e-22)
(0.000563091 0.000804231 0)
(0.000248041 9.52448e-05 -2.68996e-25)
(0.000681171 0.000189789 0)
(0.000804594 0.00141231 0)
(0.000681251 0.00123299 1.96457e-22)
(2.99972e-05 1.79627e-05 -3.80821e-21)
(0.00080255 0.00136118 -4.85337e-22)
(0.000636191 0.00115032 6.96752e-22)
(0.000787817 0.00141392 1.51372e-21)
(0.000695502 0.00117024 0)
(0.000283103 0.000379459 8.59998e-23)
(0.000733231 0.00122593 1.53248e-21)
(0.000644732 0.00112188 0)
(5.77589e-05 0.000401587 3.248e-22)
(0.00045182 0.00105977 -2.07857e-22)
(0.000451112 0.000571401 -2.40145e-21)
(0.000127099 0.000259677 2.86551e-25)
(0.000450433 0.000725402 4.24081e-23)
(0.00130222 0.00136128 0)
(0.000774169 0.0014032 -1.05231e-21)
(0.000869423 0.00159973 -2.28684e-22)
(0.000761014 0.00132872 -3.5398e-22)
(0.000311535 0.000375017 1.41258e-21)
(0.000655281 0.00110896 3.35371e-22)
(0.000615158 0.00112671 1.41697e-22)
(0.00069995 0.00118809 0)
(0.000894542 0.00151961 0)
(0.000702072 0.00120749 0)
(0.000695171 0.00127725 2.7397e-22)
(0.000642745 0.00114153 -3.78615e-22)
(0.000683381 0.00116199 -9.95594e-22)
(0.000656328 0.00116553 0)
(0.000612307 0.00113098 -1.86947e-22)
(0.000831486 0.00147333 3.93417e-22)
(0.000817868 0.000471905 -7.34741e-22)
(0.000300375 0.000286117 0)
(5.83553e-05 -0.000172801 -6.84564e-22)
(0.00121288 0.000942073 0)
(0.000712949 0.00126003 4.05157e-22)
(0.000675439 0.00118402 3.92991e-22)
(0.000698592 0.0012118 2.12207e-22)
(0.000741079 0.00129197 -5.29078e-22)
(0.000687449 0.0012157 0)
(0.000199525 0.000328752 1.63079e-22)
(0.00088251 0.00162607 -5.04126e-22)
(0.000567394 0.000358888 4.46164e-22)
(1.38732e-05 -7.04997e-06 0)
(0.000893803 0.00152314 3.77294e-22)
(0.000772219 0.00138511 1.7994e-21)
(0.000730684 0.00120991 6.46266e-23)
(0.000915962 7.46657e-06 2.86053e-21)
(0.00155617 0.00107945 1.81809e-21)
(0.000692756 0.00113878 0)
(0.000606393 0.00100533 3.83459e-23)
(0.000748207 0.00118893 1.01619e-21)
(0.000625591 0.00096886 1.07585e-21)
(0.000545892 0.000925683 -3.76097e-22)
(0.000534614 0.0009073 -4.96263e-22)
(0.000590159 0.000949297 3.6527e-22)
(0.000527559 0.000897516 0)
(0.000610638 0.0010464 -6.15857e-22)
(0.000692292 0.00115732 2.64458e-22)
(0.000590865 0.000954047 0)
(0.000703112 0.00117676 1.62647e-22)
(0.000585711 0.00100509 3.8505e-23)
(0.000647731 0.000969117 -1.02986e-21)
(0.000534648 0.000928801 -3.15647e-22)
(0.000580953 0.000869915 4.50045e-22)
(0.000164016 0.00023702 4.76029e-21)
(0.000690068 0.00116747 1.12941e-22)
(0.000794416 0.00134108 -1.16984e-21)
(0.000723775 0.00122767 0)
(0.000491459 0.000484702 1.99609e-22)
(2.04557e-05 0.000108057 1.27208e-21)
(0.000666018 0.00117239 0)
(0.00141088 0.000269339 0)
(0.000647465 0.00100855 4.53911e-22)
(0.000298023 0.00061164 0)
(0.000910456 0.000134836 2.46528e-21)
(0.000457685 0.000542432 0)
(0.000980688 0.000239403 0)
(0.00095159 4.9602e-05 0)
(0.00057291 0.00103513 9.9682e-23)
(0.000457498 0.000660365 2.56323e-22)
(0.00079039 0.00126164 -2.46819e-24)
(0.000624882 0.00102546 -1.31524e-22)
(0.000663168 0.0011473 0)
(0.000692578 0.00116268 6.7561e-22)
(0.000735435 0.00119253 -2.80571e-22)
(0.000719961 0.00122473 0)
(0.000799508 0.00131015 3.6041e-22)
(0.000266391 7.01575e-05 5.45391e-21)
(0.000856285 -9.74144e-05 1.74028e-21)
(0.000807465 0.00144327 -3.3154e-22)
(0.000833671 0.0014055 -6.63686e-22)
(0.000682882 0.000811275 1.39192e-22)
(0.000653843 0.00117034 3.21725e-24)
(0.000611339 0.00105718 -6.06157e-22)
(0.000909668 0.000144891 0)
(0.000438684 0.000768616 -1.16081e-21)
(0.000640993 0.00128136 -3.06984e-22)
(0.00076166 0.00070055 -2.51312e-21)
(0.000781804 0.00140582 -4.93569e-22)
(0.000798904 0.00134777 -2.72041e-24)
(3.11932e-05 0.000583431 -2.29069e-21)
(0.000749808 0.00120141 7.03431e-22)
(0.000958687 0.00161558 -8.51668e-22)
(0.000591087 0.00126518 1.43306e-22)
(0.00027031 0.000338527 9.6575e-22)
(0.000872447 5.57213e-05 0)
(0.000712122 0.0011234 1.39275e-22)
(0.000521478 0.000941054 -3.3111e-22)
(0.000624935 0.00114359 1.19876e-21)
(0.000676786 0.0011104 -1.68089e-22)
(0.000689451 0.00119885 -1.58692e-22)
(0.00055564 0.00100861 1.06614e-21)
(0.00059075 0.00099503 2.61633e-22)
(0.000672237 0.00080451 3.79865e-23)
(0.000702154 0.00127499 -3.24651e-22)
(0.000557926 0.00100617 -9.26452e-22)
(0.000527879 0.000919355 -1.10228e-22)
(0.000641131 0.00105527 -4.18765e-22)
(0.000527059 0.000919857 0)
(0.000313138 0.000568392 1.28075e-21)
(0.00031379 0.000634877 0)
(0.00071019 0.00120766 -3.89403e-22)
(0.000680776 0.00110351 -1.05504e-21)
(0.000746378 0.001233 3.35593e-22)
(0.000839919 0.00136066 -8.78165e-22)
(0.00073657 0.00117675 -6.23055e-22)
(0.000680474 0.00112688 -2.01097e-21)
(0.000738054 0.00123567 0)
(0.00072232 0.00123655 0)
(0.000735807 0.00120179 -2.51525e-22)
(0.000888256 0.00138058 1.12174e-21)
(0.00085604 0.00143551 3.8215e-22)
(0.000667436 0.00113711 -1.67285e-23)
(0.000673924 0.00114367 0)
(0.000687654 0.00109078 6.11286e-22)
(0.000680004 0.00109844 -1.94922e-22)
(0.000688413 0.00116836 -2.77523e-23)
(0.00085427 0.00142297 0)
(0.000673729 0.00110674 2.89745e-22)
(0.000681108 0.00115143 -7.5786e-22)
(0.000694984 0.0011768 4.44997e-22)
(0.000681163 0.00113976 0)
(0.000838483 0.00141522 -2.5784e-22)
(0.000880095 0.00147865 1.08728e-21)
(0.000876992 0.00149297 1.03009e-21)
(0.000528548 0.000692389 -1.22129e-24)
(0.000821902 0.000598008 2.08737e-21)
(0.000624637 0.000424644 1.5007e-21)
(0.000523274 0.000537232 -1.17473e-21)
(0.00079697 0.00143654 2.30064e-22)
(0.000757791 4.11712e-05 1.23086e-21)
(0.000190513 0.000688363 0)
(0.00029912 0.000260759 -1.29042e-21)
(0.000610137 0.000981627 -3.1456e-22)
(0.000658358 0.00117774 1.96918e-22)
(0.000705811 0.001204 0)
(0.000689451 0.0013883 1.03147e-21)
(1.80486e-05 -1.54171e-06 -3.41938e-26)
(0.000564984 0.000972526 2.27133e-22)
(0.000623196 0.00104526 1.89901e-22)
(0.000544608 0.000955977 6.79058e-22)
(0.000999883 0.000211969 -2.55791e-21)
(0.000875554 0.000193265 -1.74392e-21)
(0.000676845 0.00145237 -7.82826e-22)
(0.000587451 0.000279634 -3.89373e-22)
(0.000528617 0.000929234 0)
(0.000509346 0.000915219 3.29323e-22)
(0.000516954 0.000864226 5.74984e-23)
(0.000552916 0.000959019 -2.34745e-22)
(0.000544151 0.000938702 -1.17027e-22)
(0.000761299 0.000390688 -1.95325e-21)
(0.000709378 0.00125809 3.26341e-22)
(0.000351809 0.000281305 3.83747e-22)
(1.913e-05 -6.56036e-06 -2.74481e-25)
(0.0006226 0.00131862 4.85559e-22)
(0.000813506 0.00138543 -1.30432e-21)
(0.00109956 0.000566741 -1.50718e-25)
(0.000140794 0.000831658 0)
(3.76654e-05 8.18404e-06 8.93195e-22)
(0.000115904 0.000553077 0)
(0.000562622 0.000900639 -8.43608e-22)
(0.000696236 0.00129436 0)
(0.000841628 0.00141639 0)
(0.000754393 0.00131147 5.66234e-22)
(0.000570182 0.000981547 0)
(0.000550451 0.000943905 -4.94549e-23)
(0.000558061 0.000960793 1.03183e-22)
(0.000288347 0.000845707 -1.95321e-21)
(0.000679054 0.0012058 -1.01282e-21)
(0.000818018 0.00132358 0)
(0.000762716 0.000285814 2.88329e-21)
(0.000570532 0.000287364 3.32247e-21)
(0.00065363 0.00117152 0)
(0.000466836 0.000572378 2.32982e-21)
(0.000584213 0.000350766 1.07057e-21)
(0.000290895 0.000356256 -3.32575e-22)
(0.000523539 0.000644954 2.77865e-22)
(0.000872186 0.000291282 2.24474e-21)
(0.00065938 0.00121724 4.17288e-22)
(0.000712188 0.00130267 0)
(0.000872711 8.07545e-05 9.56013e-22)
(0.000533079 0.00105453 2.8573e-22)
(0.000738526 0.00117866 2.03139e-22)
(0.000867557 0.00135635 -1.92034e-23)
(0.000966865 0.000188305 -2.93779e-21)
(0.000313645 0.000548586 0)
(0.000680376 0.000414215 0)
(0.000598095 0.00120509 -8.21296e-22)
(0.000640838 0.00129458 -1.5137e-21)
(0.000894185 0.000138981 2.48376e-21)
(0.000370806 0.000320808 1.54103e-21)
(0.000108311 0.000761136 1.67448e-22)
(0.000921557 0.000330244 0)
(0.000348483 0.000764994 6.21645e-22)
(0.000628743 0.00116778 0)
(0.000655053 0.0012114 5.20989e-23)
(0.00066997 0.00123684 0)
(0.000643277 0.00119144 0)
(0.000325408 0.000280108 3.78755e-25)
(0.000820494 0.00102337 2.10451e-22)
(0.000816593 0.00140679 1.68479e-22)
(0.00135034 0.000766023 -1.09851e-21)
(3.51788e-05 5.61713e-05 0)
(0.0009337 0.00153473 -7.23537e-22)
(0.000653689 0.00115428 0)
(0.000820873 0.001435 0)
(0.000842078 0.00142819 -4.54015e-22)
(0.000657598 0.00114868 -1.33096e-23)
(0.00066523 0.00112783 2.03031e-22)
(0.000659984 0.00114108 1.54076e-22)
(0.000674301 0.001165 -6.16478e-22)
(0.000668088 0.00114045 -1.02562e-21)
(0.000833868 0.00147813 -3.73331e-22)
(0.000693826 0.00124173 -7.29817e-24)
(0.000738427 0.00116991 0)
(0.00032947 0.00039467 -3.55236e-22)
(0.000516986 -0.000143861 1.71459e-21)
(0.000825224 0.00140904 -9.54684e-22)
(0.000739525 0.00129455 -1.1852e-22)
(0.000720475 0.00123342 -2.96402e-22)
(0.000637494 0.00109395 3.51236e-22)
(0.00073207 0.00123875 6.35303e-22)
(0.000778643 0.00131922 3.21223e-22)
(0.000693901 0.00118136 8.84497e-22)
(0.000673253 0.0011183 8.70684e-22)
(0.000704546 0.00122545 0)
(0.000726964 0.00122851 -7.30475e-22)
(0.000694415 0.00118437 0)
(0.000834204 0.00137187 -4.94591e-22)
(0.0008539 0.00143932 3.43529e-22)
(0.000676193 0.00116272 1.4771e-22)
(0.000668475 0.00115595 -3.36016e-22)
(0.000690426 0.00118825 -7.88038e-22)
(0.000643966 0.00108826 5.24072e-22)
(0.00066766 0.00109303 -8.01143e-22)
(0.00083617 0.00141721 -8.80486e-22)
(0.00064189 0.00110488 -1.62801e-23)
(0.000668109 0.00117418 -6.863e-22)
(0.00065417 0.00114857 -2.66832e-22)
(0.000654181 0.0011318 -3.9221e-22)
(0.000801952 0.00141897 0)
(0.000878231 0.00151489 0)
(0.000853582 0.00145811 0)
(0.00020239 4.05418e-05 -3.33178e-25)
(0.00111604 0.000630469 9.34403e-24)
(0.000472821 5.21875e-05 -5.62952e-22)
(0.000760861 0.00140329 -3.85707e-22)
(0.000514159 0.0011233 -1.24545e-23)
(0.000338469 0.000145355 3.43901e-21)
(0.00090912 9.06403e-05 0)
(0.000476303 0.000447281 7.85714e-25)
(0.00119111 0.000361553 2.12642e-21)
(0.000647257 0.000173134 1.24984e-21)
(0.00065636 0.00129921 1.99215e-21)
(8.91358e-05 0.000774309 -2.18419e-21)
(0.000884256 0.000279695 -2.63307e-21)
(0.000773867 0.00141278 0)
(1.02858e-05 0.000539315 0)
(0.000679376 0.00120977 8.89402e-22)
(0.000288374 0.00122645 -1.17962e-21)
(0.00039876 0.00071588 -1.31477e-22)
(0.000387846 0.000724704 -1.24104e-22)
(0.000485286 0.000932715 -3.87463e-23)
(0.000481246 0.000765005 -3.55593e-22)
(0.000715291 0.00127665 0)
(0.000654409 0.00117124 2.56304e-22)
(0.00078491 0.00131878 3.48694e-22)
(0.000330785 0.000660523 1.87475e-21)
(0.000463831 0.000492225 0)
(0.000185902 0.000243177 1.99405e-21)
(0.000435331 0.000584304 4.17238e-21)
(0.000944232 0.00158983 3.7737e-22)
(0.000590332 0.00092525 2.91561e-22)
(2.50417e-05 2.24288e-05 7.58815e-22)
(0.000575441 0.00129237 1.28826e-21)
(0.000147073 0.000727595 1.43724e-21)
(0.000848724 0.00155092 -3.05116e-22)
(0.000848713 0.00148066 1.91586e-22)
(0.000785963 0.00130801 7.43024e-24)
(0.000862335 0.000165356 5.835e-22)
(0.000585568 0.00102207 1.43898e-21)
(0.000640988 0.00126413 -1.01582e-21)
(0.000626992 0.00113134 -9.5113e-23)
(0.000603818 0.00113445 0)
(0.000507117 0.000925209 0)
(0.000580615 0.0010623 2.18425e-22)
(0.000185322 0.000227457 -4.6615e-21)
(0.000862334 -3.53689e-06 -2.93796e-21)
(0.000497751 0.0012948 3.02395e-22)
(0.000706566 0.000739125 -1.31457e-21)
(0.000607776 0.00105065 -1.52546e-22)
(0.000495746 0.000944759 -1.22279e-21)
(0.000595601 0.00104548 -3.85774e-22)
(0.000904549 0.00131255 4.02339e-22)
(0.000844132 0.00149782 3.25926e-22)
(0.000886191 0.00149564 0)
(0.000716199 0.00120162 1.12893e-21)
(0.000684204 0.00117129 -1.56822e-21)
(0.00115272 0.000385373 1.63852e-21)
(0.000686374 0.000793937 -1.1883e-21)
(0.000750554 0.00135918 9.48492e-23)
(0.000866675 0.000542143 4.59339e-24)
(0.000720699 0.00130944 0)
(0.000622451 0.00022971 0)
(5.63533e-05 -0.00013235 -1.21818e-22)
(0.000890945 4.98848e-05 0)
(0.000548118 0.001005 -1.30431e-21)
(0.000729322 0.0013268 -3.11001e-23)
(0.000538421 0.0010449 0)
(0.000485533 0.000720159 5.25485e-22)
(0.000734473 0.00117163 0)
(0.000446222 0.000816692 0)
(7.75338e-05 4.24966e-05 0)
(0.0005191 0.000773203 1.31258e-21)
(0.000758275 0.00145395 4.8881e-24)
(0.00088595 -4.49583e-06 -2.91978e-21)
(3.48464e-05 8.00175e-06 -1.82428e-21)
(0.00077394 0.000482286 2.26065e-21)
(0.000752045 0.00141051 -5.59834e-23)
(0.000274898 0.00031406 -1.2977e-21)
(0.00143845 0.000189901 -1.64803e-21)
(5.55217e-05 0.000865598 -6.86026e-22)
(0.000728406 0.00127266 0)
(0.000880245 0.000216996 0)
(0.000883469 0.000112543 -2.3948e-21)
(0.000902431 0.000338357 -1.45056e-21)
(0.000619116 0.00118258 -3.91006e-22)
(0.000345539 0.00075036 -7.43463e-22)
(0.000637833 0.000256416 0)
(0.000882718 0.000190802 0)
(1.83956e-05 -1.08384e-05 -1.971e-21)
(0.000545964 0.00124153 -5.91943e-23)
(0.000504696 0.00122074 3.38763e-23)
(0.000702107 0.00156063 0)
(0.0011901 0.00111509 1.40078e-21)
(0.000762323 0.000552406 -4.3193e-24)
(0.000486833 0.000541909 -1.01977e-21)
(0.000976481 5.67192e-05 -4.66544e-25)
(0.000819579 -1.22721e-05 -1.40968e-21)
(0.00065443 0.00112206 -4.78468e-24)
(0.000715957 0.00124226 2.30518e-22)
(5.58372e-05 4.57234e-05 1.86964e-26)
(0.000530267 8.20227e-05 -8.39792e-22)
(2.39584e-06 2.88781e-05 -2.14368e-22)
(0.000558672 0.00104305 -2.37625e-22)
(0.00075298 0.000513299 1.78647e-21)
(0.00025125 0.000342046 -1.26593e-21)
(0.000916411 0.00158471 1.87114e-21)
(0.000721055 0.00121164 -3.49787e-22)
(0.000711077 0.00122705 -3.29416e-22)
(0.000696404 0.00120256 -4.68323e-22)
(0.000689071 0.00118268 -5.8376e-22)
(0.000899685 0.00148416 1.11265e-22)
(0.000713763 0.00122807 0)
(0.000852457 0.00144024 -5.00402e-22)
(0.000688768 0.00115702 1.27704e-22)
(0.000432281 0.00084656 0)
(0.000864483 7.67272e-05 3.22731e-21)
(0.00016103 0.000896817 -1.35993e-21)
(0.000170111 0.000211316 3.24034e-21)
(3.04233e-05 -9.67854e-05 2.04108e-21)
(0.000746075 0.00136538 -6.71174e-22)
(0.000857853 0.000206402 0)
(0.000982188 0.000552431 -2.88295e-22)
(0.000590782 0.00101309 1.26707e-21)
(0.000625217 0.00143078 3.50095e-22)
(0.000841675 0.000164729 5.58915e-25)
(0.000523626 0.000487237 1.28835e-21)
(2.97349e-05 5.09213e-05 0)
(0.000571385 0.00106243 0)
(0.000259841 0.000251206 -2.67092e-21)
(0.000627236 0.000285713 4.40709e-25)
(0.000295157 0.000333418 3.28309e-22)
(0.000517985 0.000749897 -3.75702e-22)
(0.000475387 0.000159331 1.04433e-21)
(0.000644824 0.00119459 0)
(0.000755346 0.00137478 -2.76307e-22)
(0.00142291 0.000759791 0)
(2.17767e-05 5.75832e-05 -6.81188e-21)
(0.000599414 0.000329613 -2.95541e-21)
(0.000649133 0.000311196 3.85419e-22)
(0.000838809 0.000215362 -1.22228e-21)
(4.66078e-05 0.000492746 2.83707e-21)
(0.000402289 0.00103635 2.86759e-22)
(0.000751902 0.00125266 7.07756e-24)
(0.000716031 0.00126007 -2.3041e-22)
(0.00101281 0.000382042 5.22128e-21)
(0.000513652 0.00124697 -9.62215e-22)
(0.000860188 0.00156015 -1.20194e-22)
(0.000704504 0.00123904 0)
(0.00073952 0.00134915 0)
(0.000887682 0.00157872 5.1911e-22)
(0.000643261 0.00120648 -2.80592e-22)
(0.00065743 0.00123104 -2.81953e-22)
(0.000696443 0.00126802 0)
(0.000653941 0.00120934 1.28669e-22)
(0.000722598 0.00137471 0)
(0.000627752 0.00118513 0)
(0.000837598 0.00154872 -5.94992e-22)
(0.000460361 0.000470725 -7.94131e-22)
(0.000732915 0.00136957 1.23584e-21)
(0.000342981 0.000647728 -1.27387e-21)
(0.000704754 0.00122983 4.25603e-23)
(0.000835152 2.62824e-05 1.24781e-21)
(0.000882989 0.00024109 1.10953e-21)
(0.000360659 0.000652056 2.14223e-21)
(0.000251826 4.23028e-05 0)
(7.55506e-06 0.000133886 -4.40567e-21)
(0.000643877 0.00112782 -1.69375e-23)
(0.00085673 0.000280586 -1.364e-21)
(3.3942e-05 5.56113e-06 -2.0455e-21)
(0.000667787 0.00124341 1.22136e-21)
(0.000693267 0.00128608 1.62793e-22)
(0.000720679 0.0011877 0)
(0.000660637 0.00143275 -1.80186e-21)
(0.000534534 -8.00574e-05 -4.72097e-21)
(0.000584515 0.00128871 3.25187e-22)
(0.000243061 0.000766694 0)
(1.33226e-05 0.000167027 4.25169e-25)
(0.000821185 0.000730688 -1.59253e-22)
(0.00072238 0.00128731 0)
(0.000715215 0.00124941 1.28611e-22)
(0.000739526 -1.03409e-05 0)
(3.66887e-06 0.000194819 1.67869e-21)
(-3.33352e-06 0.00103902 -1.41823e-21)
(0.000150305 0.000691263 1.52846e-21)
(0.000611896 -8.02989e-05 1.95043e-21)
(0.000732273 0.00127632 -9.02694e-22)
(0.000160517 0.000328525 0)
(0.000558 0.000156644 -6.51815e-22)
(0.000918015 0.000624674 -1.22825e-21)
(0.000682605 0.00120063 0)
(0.000643248 0.00109793 2.28373e-22)
(0.000539962 0.000988322 -6.00712e-22)
(0.000582656 0.00102881 0)
(0.000530174 0.000937114 -1.01114e-23)
(0.000506151 0.000193653 6.0702e-22)
(0.000314643 0.000683863 4.02647e-23)
(0.000303976 0.000675903 9.21459e-24)
(0.000410293 0.000901916 3.44254e-23)
(0.000570887 0.00133975 9.438e-22)
(0.000890415 0.000218421 0)
(0.000906066 0.000112375 1.35179e-21)
(0.000484841 0.00103216 -6.58067e-22)
(0.000212104 0.000293808 -2.21007e-21)
(0.000503008 0.000921052 0)
(0.000316991 0.000736276 9.04696e-24)
(0.000358161 0.000832277 9.53655e-24)
(0.000717053 5.83385e-05 9.08485e-26)
(0.000593645 0.00102292 -1.57377e-22)
(0.000706988 0.0013415 3.07639e-22)
(0.000765861 0.00132855 -9.71115e-22)
(0.000640024 0.00120505 0)
(0.000682441 0.00119442 4.2066e-22)
(0.000615892 0.000944093 0)
(0.000549454 0.000670167 -4.92706e-25)
(0.000524147 0.000920092 0)
(2.31865e-05 0.000177741 -3.36913e-25)
(0.000630826 0.000190783 3.12123e-22)
(0.000434243 0.000551955 -1.09081e-21)
(9.69847e-05 4.86202e-05 0)
(0.000873125 0.000320261 0)
(0.00044298 5.07086e-05 -5.78749e-24)
(0.000642898 0.000764713 1.53012e-21)
(0.00106741 0.000472471 5.76099e-22)
(0.000709707 0.00120758 -1.90796e-22)
(0.000436394 0.000473234 6.7002e-22)
(0.000586573 0.00137443 -2.26455e-21)
(0.000663827 0.00149609 -2.20411e-22)
(0.000530811 0.000981088 1.62133e-21)
(0.000556529 0.000170626 0)
(0.000831419 0.000430736 -4.51321e-22)
(0.000711148 0.00117037 3.27384e-24)
(0.000297465 0.000309151 0)
(0.000559501 0.00101262 -4.95269e-22)
(0.000491617 0.000579388 -4.66995e-21)
(0.00016427 0.000193914 1.71866e-21)
(0.000831173 0.00148567 1.0225e-22)
(0.000806923 0.000664154 -1.75458e-21)
(0.000556729 0.00118608 5.35206e-22)
(0.000986491 7.72404e-05 -1.56137e-21)
(0.00067903 0.000533094 1.04861e-21)
(0.000805532 0.00136449 -7.1262e-23)
(0.000517322 0.00057495 -5.80202e-25)
(0.00116069 0.000342957 -4.66068e-22)
(0.000413697 0.000328487 1.24039e-21)
(0.000273646 0.000615271 8.60073e-24)
(0.000279215 0.000627861 8.71408e-24)
(0.000286206 0.000644097 8.82442e-24)
(0.000335564 0.000759499 -7.93141e-23)
(0.000266824 0.000600382 3.47171e-23)
(0.000186752 0.000181809 0)
(0.000771978 0.00052104 0)
(0.000553544 0.000827279 -1.759e-21)
(0.000867793 1.57515e-05 0)
(0.000172841 2.45346e-05 1.7649e-21)
(2.24828e-05 6.11665e-05 3.19024e-21)
(0.000509299 0.000408255 -1.27598e-21)
(0.000419626 0.000656109 2.106e-21)
(0.00119008 0.000641439 3.13846e-21)
(0.000523407 0.000917916 4.23656e-22)
(0.000552751 0.000950725 -8.42157e-22)
(0.000532938 0.000927843 2.1435e-22)
(0.000559715 0.00099691 -9.69919e-22)
(0.000708119 0.00122901 0)
(0.000698193 0.00124534 2.38111e-22)
(7.02812e-05 4.98288e-05 1.81692e-21)
(0.000878263 0.000275257 1.46604e-21)
(0.000425232 0.000749675 -8.73278e-22)
(0.000430877 0.000775422 -6.44556e-22)
(0.000584327 0.000953045 -2.95374e-22)
(0.000475946 0.000780759 3.32682e-22)
(0.000465645 0.000693682 3.69844e-22)
(0.000394402 0.000689305 8.41029e-22)
(0.000549734 0.000756554 2.45113e-23)
(0.000483858 0.000662012 0)
(0.00050195 0.000851799 -6.22067e-22)
(0.000417779 0.000764232 5.41093e-22)
(0.000564662 0.000825686 -4.10225e-22)
(0.000537072 0.000884789 -6.04563e-22)
(0.000415897 0.000707545 -1.82657e-22)
(0.000406349 0.000693027 3.72534e-22)
(0.000489483 0.000861256 0)
(0.000438558 0.000664975 -8.51893e-22)
(0.000405496 0.0006922 2.09127e-22)
(0.000414086 0.000706052 3.99503e-22)
(0.000719612 0.000983342 -1.63729e-22)
(0.000409009 0.000728115 -1.53303e-22)
(0.000411364 0.000738066 0)
(0.000402633 0.000723428 3.2772e-22)
(0.00042714 0.000695894 0)
(0.00038366 0.000686299 2.13705e-23)
(0.000485683 0.000874747 -7.85785e-24)
(0.000501897 0.000841638 9.95067e-24)
(0.000584239 0.000973583 0)
(0.000490664 0.000706233 3.13304e-21)
(0.000506966 0.000896538 5.58126e-22)
(0.000539533 0.000894369 -1.71419e-21)
(0.000401192 0.000704772 -7.43874e-22)
(0.000502127 0.000733997 0)
(0.000435043 0.000764944 -6.80474e-22)
(0.000482228 0.000846021 3.4973e-22)
(0.000463091 0.000773393 0)
(0.000873551 0.000160257 -1.09471e-21)
(0.000743169 0.00136715 2.05981e-22)
(2.47362e-05 8.59482e-06 1.04354e-21)
(0.000817629 0.00150551 -1.49061e-22)
(0.000902137 3.91213e-05 -1.23889e-21)
(4.11161e-05 3.97175e-07 2.20845e-21)
(4.01813e-05 -2.31022e-06 0)
(0.000121025 0.000286281 1.16768e-21)
(0.000691308 0.00118132 -3.7262e-22)
(0.000710372 0.00122425 0)
(0.000774911 0.00131843 -1.8047e-21)
(1.37783e-05 4.98821e-05 -1.99943e-21)
(0.000206799 0.000534641 0)
(7.00187e-06 -7.85478e-06 -1.77473e-21)
(0.000743856 0.000152448 1.52854e-21)
(0.000871251 2.98264e-05 -5.60272e-22)
(0.000741391 0.00124648 1.47127e-21)
(0.000420293 0.00113845 -5.75945e-22)
(0.000281906 0.000407119 -9.75217e-23)
(0.000411277 0.00080402 1.60231e-21)
(0.000207797 0.000569609 -1.5958e-21)
(0.0010893 0.000468648 6.96085e-23)
(0.000166814 0.000829904 1.62055e-21)
(0.000825292 0.000346793 7.375e-22)
(6.8485e-05 4.09872e-05 3.25565e-21)
(0.00101156 -3.11929e-05 3.39955e-21)
(0.000779404 0.00130771 -1.32526e-23)
(0.000614884 0.000262745 -1.99679e-21)
(0.00102328 0.000257973 1.13665e-24)
(5.39533e-05 0.000334139 -1.28759e-21)
(0.000634711 0.00125679 -4.06847e-24)
(0.000623248 0.00126167 0)