/*--------------------------------*- C++ -*----------------------------------*\
  =========                 |
  \\      /  F ield         | OpenFOAM: The Open Source CFD Toolbox
   \\    /   O peration     | Website:  https://openfoam.org
    \\  /    A nd           | Version:  8
     \\/     M anipulation  |
\*---------------------------------------------------------------------------*/
FoamFile
{
    version     2.0;
    format      ascii;
    class       volVectorField;
    location    "10";
    object      U;
}
// * * * * * * * * * * * * * * * * * * * * * * * * * * * * * * * * * * * * * //

dimensions      [0 1 -1 0 0 0 0];

internalField   nonuniform List<vector> 
3080
(
(0.000104571 6.35271e-05 -1.01668e-20)
(0.00108575 0.00175646 -2.37583e-21)
(0.001022 -3.47158e-06 4.6017e-22)
(9.41767e-05 8.32495e-05 0)
(0.001459 0.000179233 -4.57117e-21)
(0.000720524 -0.000396381 0)
(8.22293e-05 0.000576835 2.05056e-21)
(0.00234995 0.00430456 0)
(0.0010344 -1.1186e-05 -3.52007e-21)
(0.000989478 1.01684e-06 4.92486e-21)
(1.50256e-05 6.78365e-05 0)
(0.000954943 1.02696e-05 0)
(0.000944246 0.00237004 6.64734e-21)
(0.00155272 0.000189217 -6.23895e-23)
(2.70375e-05 0.000165774 -1.94844e-21)
(0.0015449 0.00108353 0)
(0.000984531 3.66257e-06 7.42369e-21)
(1.52769e-05 -7.32537e-05 2.04881e-21)
(1.19297e-05 4.92863e-05 0)
(0.00107715 3.92931e-05 -3.74866e-21)
(0.00224633 0.00412817 9.94453e-21)
(0.000957596 -0.000462807 1.11227e-21)
(0.00117398 -2.10755e-05 -6.71733e-21)
(0.00263592 0.00436593 -3.26525e-21)
(0.00132143 0.00011022 -1.76648e-20)
(0.000226502 0.00170242 -2.21638e-23)
(5.94288e-05 -0.000303875 -4.21903e-21)
(0.00167309 0.00068002 2.32918e-21)
(8.97295e-06 2.70184e-05 -2.46251e-22)
(0.00140556 0.000982477 1.1347e-20)
(0.00126948 0.00283477 1.60823e-20)
(0.00221195 0.00452431 -6.1228e-21)
(0.000432281 0.00215831 -8.53782e-21)
(0.00188122 0.00404051 2.88283e-21)
(0.00155615 0.00441265 4.26705e-21)
(0.000906058 -3.36545e-05 1.49532e-21)
(0.000225985 -0.00063491 -1.34475e-21)
(0.000589072 0.00414862 0)
(0.000619603 -0.000128462 1.78777e-21)
(0.000658509 0.00153182 8.61476e-21)
(0.000230861 6.72407e-05 0)
(0.000591668 -6.44505e-05 -3.64235e-21)
(0.000937671 2.41686e-06 6.1994e-21)
(0.000456816 -6.46226e-05 0)
(0.00182246 0.0002924 0)
(3.65586e-05 0.000223603 -5.28379e-22)
(0.000970153 0.000100567 -5.96986e-21)
(6.6628e-06 2.23672e-06 -1.95269e-21)
(4.0751e-05 -6.53878e-06 4.62437e-21)
(0.000278396 0.00201736 5.05079e-21)
(0.000521732 -6.06482e-05 -3.81429e-22)
(0.000778969 0.00356685 -1.71417e-22)
(0.000199375 0.00108812 5.52059e-21)
(0.000739051 -0.000315779 9.71684e-22)
(0.00168988 0.000257362 6.14489e-23)
(0.00082022 -7.36764e-06 0)
(0.000816116 3.17661e-06 -1.0121e-21)
(0.00112605 0.0020026 -5.33507e-22)
(0.00173047 0.00336831 4.08878e-21)
(0.00102856 8.59779e-06 -6.17076e-21)
(0.00114157 0.00207674 4.33065e-22)
(0.00112985 0.00205971 0)
(0.00113448 0.00201082 -4.018e-22)
(0.00086432 -1.71833e-05 0)
(0.00237571 0.00403789 -1.10985e-21)
(0.00233738 0.00396844 -1.08475e-21)
(2.33256e-05 -0.000142072 1.30628e-21)
(0.000686472 -0.000146115 3.79697e-21)
(0.00224321 0.003881 -1.49967e-22)
(0.00113539 0.00201176 7.4583e-22)
(3.45886e-05 -0.000186922 9.42475e-25)
(0.00226227 0.00389652 -4.36998e-22)
(0.00195592 0.00380155 3.90289e-21)
(0.00113416 0.00200951 1.1783e-21)
(0.000358361 -9.50547e-05 -7.32833e-21)
(0.00206217 0.00393032 0)
(0.000325115 -8.31615e-05 -2.05389e-22)
(0.00227108 0.00389831 -2.88307e-22)
(0.000529911 0.000150374 -1.45559e-20)
(0.000347674 6.72245e-05 -9.34198e-21)
(0.00204211 0.000406363 0)
(6.21044e-05 -0.000185866 -1.06333e-21)
(0.00113175 0.00200649 -1.43447e-21)
(0.00144944 0.00291073 2.82177e-21)
(0.00106004 0.000197665 1.80398e-21)
(0.00227405 0.00389661 4.46841e-22)
(0.000972006 0.000168488 3.80022e-21)
(0.00237949 0.00402902 -6.61126e-22)
(0.00234132 0.00395976 -3.70019e-22)
(0.000969859 0.000132276 4.61702e-24)
(0.002274 0.00389358 0)
(0.00112903 0.00200221 3.31472e-22)
(0.00226495 0.00389297 -8.98313e-23)
(0.00114217 0.00207262 1.19838e-21)
(0.00113059 0.00205584 -1.34701e-21)
(0.00102968 -8.21347e-06 9.51948e-22)
(0.00227261 0.00388996 6.16429e-22)
(0.00237726 0.00402563 1.91035e-21)
(0.00233918 0.00395633 2.08587e-21)
(0.000557994 0.000183641 1.78783e-21)
(0.000598968 0.000230695 0)
(0.00236805 0.00403443 -3.07987e-22)
(0.00232972 0.00396476 -4.39635e-22)
(0.00210855 0.00391416 3.98768e-21)
(0.000916952 0.000269442 1.17418e-21)
(0.00133702 0.000834824 2.45541e-23)
(1.12101e-05 -4.5072e-05 -5.79675e-22)
(0.00227132 0.00388641 -1.44623e-21)
(0.00113965 0.0020684 1.42519e-21)
(0.00112803 0.0020517 1.36145e-21)
(0.00237606 0.00402307 0)
(0.00233799 0.0039534 0)
(0.000503535 -0.000158434 0)
(0.00237884 0.0040344 -1.64194e-22)
(0.00234064 0.00396503 6.80114e-22)
(0.00189841 0.00369561 1.89737e-21)
(0.00101284 0.000210538 -6.69901e-21)
(0.0023683 0.00404306 5.47041e-23)
(0.00232901 0.00397299 6.18297e-23)
(0.00113777 0.00206475 -1.59315e-21)
(0.00112606 0.00204808 -1.73887e-21)
(0.00100512 6.65675e-06 -1.92204e-21)
(0.00107583 3.90131e-05 -9.82484e-25)
(0.00238028 0.004033 5.78727e-22)
(0.00234206 0.00396366 8.35059e-22)
(4.10648e-05 0.000421375 -5.53159e-22)
(0.000250238 -1.65636e-05 5.80244e-21)
(0.0023723 0.00402265 -2.01296e-21)
(0.00233475 0.00394766 -2.18647e-21)
(0.00170395 0.000395856 -3.93649e-21)
(0.0023796 0.00403167 -8.53928e-22)
(0.00234133 0.0039624 -1.18825e-21)
(0.000582922 0.000268192 6.23403e-21)
(0.00237881 0.00403029 0)
(0.00234056 0.00396106 0)
(1.64395e-05 0.00010796 2.04488e-20)
(0.00101401 -0.000137275 8.84183e-21)
(0.000102139 1.83486e-05 2.57199e-21)
(0.00236998 0.00403534 5.5087e-22)
(0.00233193 0.00394676 2.99556e-21)
(0.0022633 0.00387629 -1.09716e-21)
(0.00112287 0.0019864 5.22087e-22)
(0.000465279 8.5463e-05 -9.9203e-21)
(0.00237882 0.00402894 -1.11074e-21)
(0.00234058 0.00395975 -1.21633e-21)
(0.000950778 0.00169824 -2.44807e-21)
(0.000345397 -3.7684e-06 -1.10634e-21)
(0.00113499 0.00205556 2.43046e-22)
(0.00112155 0.00203977 0)
(0.00114524 0.00208365 4.70125e-22)
(0.00113328 0.00206646 5.21804e-22)
(0.00021717 -1.38262e-05 6.5982e-21)
(0.000998451 5.69465e-05 2.75116e-21)
(0.000580043 0.000338215 0)
(0.000312466 -1.11688e-05 -1.03103e-21)
(0.00236616 0.00404142 -2.42457e-21)
(0.0023286 0.00395199 -1.97561e-21)
(0.00181423 0.00359589 0)
(0.00112831 0.00200762 4.32794e-22)
(0.000618843 0.00030794 -6.29334e-21)
(0.00225999 0.0038788 -1.2411e-21)
(0.00117227 0.00206462 -3.27952e-22)
(0.0011168 0.00206654 9.66716e-24)
(0.00163868 0.000275398 1.73192e-21)
(0.00111051 0.00198186 2.22826e-22)
(0.00112238 0.00197989 -5.9094e-22)
(8.82016e-05 3.82218e-05 0)
(0.000938911 -0.00012177 -5.21663e-21)
(0.00113436 0.00201477 1.54177e-21)
(0.00113583 0.00205284 -2.68221e-22)
(0.00111997 0.00203556 0)
(0.000966288 0.000122518 3.59383e-21)
(0.00226347 0.00372083 -1.64586e-21)
(0.00225372 0.00391053 2.65483e-21)
(0.00172302 0.0035744 1.80211e-21)
(0.001135 0.00201451 0)
(0.00113206 0.00197897 3.72951e-22)
(0.00121225 0.00196072 2.16596e-21)
(0.00019101 -7.52697e-06 2.45128e-25)
(0.00232851 0.00421262 9.62568e-24)
(0.00226894 0.00413561 9.96137e-24)
(0.00221194 0.0040463 0)
(0.00226825 0.00388047 7.91071e-22)
(0.00112433 0.00198098 -3.18958e-21)
(0.00133262 0.00216156 7.38562e-21)
(0.000992491 6.76053e-05 2.98929e-21)
(0.00226489 0.0039037 -1.39388e-21)
(0.00113274 0.00201093 -2.60915e-22)
(0.00114214 0.00206396 2.93831e-22)
(0.00112 0.0020357 -2.53913e-21)
(8.1289e-05 -0.000166084 9.78694e-21)
(0.00226678 0.00387735 3.48549e-21)
(0.000729844 0.00052984 -3.26725e-21)
(0.00213204 0.00415977 -8.74865e-22)
(2.68548e-05 -4.2444e-05 1.1815e-21)
(0.00237426 0.00401808 -1.60585e-23)
(0.00233602 0.00394812 -2.49697e-21)
(5.21605e-05 0.000460883 3.52878e-22)
(0.00118112 0.00204788 -2.70956e-21)
(0.00111654 0.0020647 -2.93737e-21)
(0.00113622 0.00207247 -2.65909e-22)
(0.00112347 0.00205478 -2.99676e-22)
(0.00113029 0.00200755 0)
(0.00112032 0.00165568 0)
(0.00226544 0.00387547 -9.03614e-22)
(0.00237643 0.00403318 -6.81516e-22)
(0.00234331 0.0038912 0)
(0.00113235 0.00202387 3.46461e-21)
(0.00228852 0.00374521 -1.53799e-21)
(8.98908e-06 -1.11076e-05 2.42629e-21)
(0.00114145 0.00207323 1.54463e-22)
(0.00112983 0.00205646 1.38575e-21)
(0.00110431 2.50675e-05 8.97887e-21)
(0.000175682 1.18031e-06 -2.89465e-20)
(0.000786223 0.00160247 4.55288e-21)
(0.000900609 5.77166e-06 -1.26081e-20)
(0.00226375 0.00387352 -1.97214e-21)
(0.001139 0.00188708 -3.89871e-22)
(0.00117678 0.0018744 7.33126e-22)
(0.00112779 0.00200283 1.80552e-21)
(0.00114645 0.00208268 7.08951e-22)
(0.00113464 0.00206567 1.56853e-22)
(0.00236589 0.00377989 0)
(0.00113916 0.00206957 0)
(0.00112742 0.00205287 1.95129e-22)
(0.000639174 0.000596094 -5.67886e-21)
(0.0012463 4.70826e-05 2.37142e-21)
(0.000455663 0.00055334 -9.00822e-21)
(0.00114665 0.00208188 6.01408e-22)
(0.0011349 0.00206488 -9.95435e-23)
(0.002249 0.00406642 -3.51542e-21)
(0.000612757 0.000519211 3.36674e-21)
(0.00105851 0.00159242 -4.07885e-22)
(0.00115009 0.00201709 3.74725e-21)
(0.00103655 0.000174846 3.48875e-21)
(0.00220711 0.00401781 0)
(0.00238357 0.00407758 -3.32157e-21)
(0.00114586 0.0020797 8.42858e-22)
(0.00113418 0.00206274 9.25996e-22)
(0.000109409 0.000106295 -1.04185e-20)
(0.00113724 0.0020662 0)
(0.0011253 0.00204948 0)
(0.000990988 0.000145772 2.61664e-21)
(0.00266498 0.00439743 3.20773e-21)
(0.00238677 0.00426243 -5.07302e-23)
(0.00248269 0.0044646 0)
(0.00242744 0.00438512 -2.91798e-23)
(0.00235965 0.0040236 -3.23525e-21)
(0.000967754 1.43743e-05 0)
(0.00114537 0.00207771 0)
(0.00113374 0.00206077 1.0353e-21)
(0.00104698 0.00279712 0)
(0.00232804 0.00404836 -2.91966e-21)
(0.00116449 0.00210879 9.14839e-24)
(0.00114798 0.0020883 1.89411e-22)
(0.00151737 0.00178621 -1.8587e-22)
(0.00233685 0.00405215 -5.50543e-21)
(0.001144 0.00207611 9.66295e-22)
(0.00113237 0.00205921 2.23082e-21)
(0.00234686 0.00409861 3.45789e-21)
(3.75087e-05 3.68848e-06 8.3418e-21)
(0.00236009 0.00403637 3.18645e-21)
(0.0023219 0.00395081 0)
(0.00223992 0.00395631 2.90857e-21)
(0.00232047 0.004038 9.67069e-24)
(0.00224943 0.00395404 -3.05168e-21)
(0.00232362 0.00403933 2.76854e-21)
(2.79908e-05 -3.67704e-05 -6.69886e-23)
(0.00223047 0.00395577 4.43585e-23)
(0.00229545 0.0040279 2.56446e-21)
(0.000892819 -1.74051e-05 1.38536e-20)
(0.00113529 0.00205498 2.00729e-21)
(0.00112094 0.00203926 2.4516e-21)
(0.00112083 0.00198476 5.50907e-22)
(0.00261366 0.00443914 2.94159e-21)
(0.000577775 0.000589259 5.33957e-21)
(0.002232 0.00395609 -2.52852e-23)
(0.00228504 0.00403037 0)
(0.000124105 0.000109377 -5.36589e-21)
(0.00223336 0.00395577 0)
(0.00228282 0.00403138 0)
(0.00239644 0.00405682 3.35543e-21)
(0.00223307 0.00395218 -2.4272e-21)
(0.00227965 0.00402357 -6.58219e-21)
(0.00210074 0.00409158 4.70245e-22)
(0.0022259 0.00394958 -8.57592e-21)
(0.00229963 0.00402494 0)
(0.00222049 0.00375275 5.91742e-21)
(0.00112733 0.00199969 0)
(0.0022352 0.00395084 0)
(0.00227624 0.00401809 0)
(0.00218741 0.0037808 8.09861e-24)
(0.00113755 0.00205736 2.66965e-22)
(0.0011202 0.00203675 -2.39477e-21)
(0.00112083 0.00197889 -1.68604e-23)
(0.00223354 0.0039486 -2.08019e-21)
(0.00227352 0.00401468 -6.59537e-23)
(0.00297053 0.00340332 1.28488e-20)
(0.00224165 0.00436584 -3.86508e-23)
(0.00230407 0.00441333 -6.33602e-23)
(0.00225747 0.00434064 -1.15959e-23)
(0.00217528 0.00380473 3.97338e-23)
(0.00218556 0.0038404 2.68388e-21)
(0.00223198 0.00394655 0)
(0.00227151 0.00401229 0)
(0.00112633 0.00199676 -1.71779e-21)
(0.00223055 0.00394489 -1.76046e-21)
(0.00226998 0.00401065 -1.64709e-21)
(0.00222455 0.00395038 0)
(0.00228305 0.00402321 -3.39583e-23)
(0.00220694 0.00385735 4.86872e-21)
(0.000916728 1.00584e-05 4.26029e-21)
(0.0022287 0.00394169 -1.65122e-21)
(0.0022681 0.00400739 0)
(0.0022269 0.00371027 1.62354e-21)
(0.00220962 0.00385352 -2.94295e-23)
(0.00229215 0.00426734 -1.26164e-20)
(0.00217718 0.00382491 -2.67328e-21)
(0.00222821 0.00393459 -1.43808e-21)
(0.00226747 0.00400012 -6.56571e-23)
(0.00219601 0.00385158 -5.15928e-21)
(0.00114834 0.00206937 -2.35884e-21)
(0.00112072 0.00203975 -2.57319e-21)
(5.05277e-05 0.000384654 5.07916e-22)
(0.00112184 0.0019902 2.56749e-21)
(0.001125 0.00199356 2.30428e-21)
(0.00220725 0.00384954 -2.02588e-21)
(0.00222821 0.00393525 1.19333e-21)
(0.0022675 0.00400082 1.0889e-21)
(0.00223179 0.00395342 2.23658e-21)
(0.00227539 0.00402428 4.21871e-21)
(0.00222693 0.00395131 -5.21553e-21)
(0.0022785 0.00402651 -2.38246e-21)
(0.00222538 0.00393435 0)
(0.00226476 0.00399993 9.54743e-22)
(0.00220507 0.00384608 -3.08376e-23)
(0.00222309 0.00393135 9.02723e-22)
(0.00226234 0.00399691 8.20685e-22)
(0.00220393 0.00384353 0)
(0.00112388 0.00199085 8.01898e-24)
(0.00220952 0.00385632 -4.78007e-21)
(0.00113586 0.00206047 0)
(0.00112352 0.00204411 1.96733e-21)
(0.00222441 0.003931 0)
(0.00226366 0.00399648 -6.13252e-22)
(0.00103883 4.63121e-05 -2.6289e-24)
(0.00220202 0.00383974 1.49962e-21)
(0.00113403 0.00203932 2.14816e-21)
(0.00221858 0.00393349 1.03615e-21)
(0.00225788 0.00399854 9.3056e-22)
(0.00141792 0.00319251 -6.90788e-21)
(0.00223018 0.0039528 4.86416e-21)
(0.00227821 0.00402533 -2.39335e-23)
(0.00220303 0.00385684 5.10856e-21)
(9.86916e-05 3.28669e-05 -5.70584e-21)
(0.00219979 0.00383605 1.33835e-21)
(0.000401938 -9.64649e-05 0)
(0.00222703 0.00401612 -6.04716e-22)
(0.00218852 0.00395111 -6.84887e-22)
(0.00172306 0.00148014 1.20942e-20)
(0.00093032 3.58279e-05 0)
(0.00220933 0.00385269 2.12987e-21)
(0.00219815 0.00383314 2.07862e-24)
(0.00219639 0.00383082 8.48754e-22)
(0.00115693 0.00195639 3.04719e-21)
(0.0021943 0.00383179 1.29951e-21)
(0.000105909 0.000740716 4.57469e-21)
(0.00219074 0.00384247 0)
(0.00222859 0.00394695 -2.29973e-21)
(0.00227062 0.00401507 0)
(0.000926706 2.47544e-05 0)
(0.00221005 0.00385609 4.65158e-21)
(0.00104336 0.00189337 3.434e-21)
(0.00230219 0.00484365 6.52594e-21)
(0.00220691 0.00384792 5.74027e-21)
(0.000634854 0.00044824 -1.43227e-20)
(0.00215963 0.00450641 -1.13879e-21)
(0.00222786 0.00394464 2.05629e-21)
(0.00226828 0.00401085 3.81125e-21)
(0.000994681 4.93337e-05 -8.43594e-21)
(0.00107206 0.00142667 -1.52134e-20)
(3.07689e-05 -8.63663e-06 -2.65216e-26)
(1.23486e-05 9.43106e-05 4.92869e-21)
(0.00222584 0.00393539 1.43924e-21)
(0.00226513 0.00400084 2.69824e-21)
(0.00220901 0.0038523 -2.14537e-21)
(0.0022321 0.00387531 9.02302e-23)
(0.00220396 0.00384257 7.08854e-23)
(0.00222664 0.00394269 0)
(0.00226631 0.00400815 -1.83076e-21)
(4.19422e-05 -1.01808e-05 3.58209e-21)
(0.0011613 0.00207301 -2.78344e-23)
(0.00111903 0.00204977 2.71445e-21)
(0.00205417 0.00428315 -2.72664e-21)
(0.00222395 0.00393122 7.1885e-23)
(0.00226318 0.00399648 6.64253e-23)
(6.64143e-05 0.000539084 -2.44681e-21)
(0.00220737 0.00384905 -1.93127e-21)
(0.00273505 0.00453487 0)
(0.00173788 0.00313603 2.06504e-21)
(0.00042032 0.000354025 4.00974e-24)
(0.00220196 0.00383833 1.39473e-21)
(0.00265069 0.00441912 -3.00983e-21)
(1.78236e-05 -4.56884e-05 -5.80435e-22)
(0.00222506 0.00394103 -8.27798e-24)
(0.00226453 0.00400638 3.29423e-21)
(0.00129753 0.00101055 -6.12572e-21)
(0.00220003 0.00383515 0)
(0.00220563 0.00384677 0)
(0.0022245 0.00393979 1.64159e-21)
(0.00226394 0.00400527 0)
(0.000971932 0.000131663 9.60293e-22)
(0.00217314 0.00406138 0)
(0.00222022 0.00392706 -3.64964e-23)
(0.00225944 0.0039923 1.37156e-21)
(0.00112506 0.00115719 -1.31447e-20)
(0.00219842 0.00383303 9.30222e-22)
(0.0022042 0.00384333 -1.58185e-21)
(0.00222436 0.00393752 0)
(0.0022638 0.00400298 3.2035e-23)
(3.34684e-05 -3.31357e-05 -3.39563e-21)
(0.000974044 0.000257984 5.09216e-22)
(0.00219578 0.00383246 -7.00768e-22)
(0.00227483 0.00382492 -3.47009e-23)
(0.00222044 0.00374332 -2.0192e-23)
(0.00216573 0.0036098 -1.23436e-23)
(7.95122e-05 -9.25218e-05 2.33189e-20)
(0.00237619 0.00401768 0)
(0.00242125 0.00408984 0)
(2.90927e-05 0.000138189 -8.24654e-26)
(0.00220208 0.00383959 0)
(0.00222293 0.00393362 -1.27707e-21)
(0.00226233 0.00399897 -2.39884e-21)
(0.00220839 0.00394057 1.20721e-21)
(0.00224732 0.00400554 1.07491e-21)
(0.00016688 8.68819e-05 -8.33617e-21)
(0.00144583 0.000160163 1.23633e-20)
(0.00101261 -0.000171994 -6.38984e-21)
(0.000974359 0.000180154 1.09368e-20)
(0.0010524 0.000681965 -9.1976e-21)
(0.00233235 0.00396344 1.51406e-23)
(0.00237295 0.00403307 1.3866e-23)
(0.000945624 3.54016e-05 -1.97407e-21)
(0.00219192 0.00383814 4.96406e-22)
(0.0023817 0.0040416 1.34256e-22)
(0.00234328 0.00397204 -1.65659e-22)
(0.00262701 0.00462516 -7.47398e-24)
(0.00257118 0.00454116 2.0035e-22)
(0.00247879 0.00443277 2.27828e-23)
(9.20918e-05 -0.000106955 -1.48957e-20)
(0.00238294 0.00404071 3.47592e-22)
(0.0023446 0.00397119 1.82988e-22)
(0.00238288 0.00403899 0)
(0.00234452 0.00396952 -9.12998e-22)
(0.00238199 0.00403749 0)
(0.00234361 0.00396809 2.52732e-22)
(0.00238144 0.00403585 1.0892e-21)
(0.00234306 0.00396649 1.15793e-21)
(0.00220024 0.00383632 2.44154e-21)
(0.000552469 -8.33579e-05 0)
(0.00222109 0.00393109 -2.25245e-21)
(0.00226045 0.00399634 -2.05413e-21)
(0.00238076 0.00446519 -1.9942e-22)
(0.00233563 0.00438978 -5.9967e-23)
(0.00243549 0.00447305 5.0919e-23)
(0.00253632 0.00465747 6.96993e-23)
(0.0024805 0.00457498 1.36385e-22)
(0.00347821 0.000931842 8.70666e-21)
(0.00237668 0.00402361 -2.26583e-21)
(0.00233844 0.00395371 0)
(0.00134756 0.00157791 0)
(0.00079729 1.50518e-05 0)
(0.000160569 4.82454e-06 -4.50878e-21)
(0.0022196 0.00393086 0)
(0.00225897 0.00399621 0)
(4.32322e-05 -3.02742e-05 0)
(-9.23294e-05 0.00187588 8.32271e-21)
(-0.000154645 0.00167624 -8.56095e-21)
(2.89169e-05 0.000183734 -1.88842e-22)
(0.00236416 0.00404309 -3.13627e-21)
(0.00232639 0.0039561 4.7875e-21)
(0.00219885 0.00383378 9.92746e-22)
(0.000844205 1.48674e-05 7.61217e-21)
(0.000954952 4.27622e-05 0)
(0.000774591 -6.32996e-06 -4.69437e-21)
(0.00261612 0.00464449 2.27427e-22)
(0.00256354 0.00455887 0)
(0.00227051 0.00388732 -2.39614e-21)
(0.00226933 0.0038865 -1.70276e-21)
(0.00100791 2.69135e-05 -1.57327e-23)
(0.00221919 0.00392973 2.40532e-21)
(0.00225856 0.00399505 1.47138e-21)
(0.00226878 0.00388577 0)
(0.00213938 0.00457817 1.69232e-21)
(0.0022668 0.00388351 3.45386e-23)
(0.00026845 0.000112869 0)
(0.0010509 0.0024595 7.64367e-21)
(8.92126e-05 -7.05878e-05 -3.37604e-26)
(7.38874e-05 8.76181e-06 4.64933e-25)
(0.000246027 0.000138152 7.9227e-21)
(0.00121609 0.00149359 1.83783e-20)
(0.000849739 4.37137e-05 -2.27397e-24)
(0.000976744 0.00011798 -6.58018e-21)
(0.00219622 0.00383211 7.39324e-22)
(0.00249172 0.00444991 1.03835e-22)
(0.000339867 0.00024878 0)
(0.000914416 0.000636825 -8.76288e-21)
(0.00223556 0.000224569 1.20902e-20)
(3.28246e-05 -2.72551e-05 -3.9719e-21)
(0.00255633 0.00437353 0)
(0.000997243 0.000117178 -1.75656e-21)
(0.00221626 0.00392872 -1.8129e-21)
(0.0022557 0.00399383 -1.08362e-21)
(0.000968204 4.33577e-05 0)
(0.000893704 0.00403976 -5.98161e-21)
(0.000446829 0.000480751 -1.87269e-20)
(0.00217854 0.00386496 2.73632e-22)
(0.000924505 -4.46159e-05 -6.63609e-21)
(0.000114881 -0.000126372 1.05043e-20)
(0.000105338 -0.000132587 -7.02429e-21)
(0.0019616 0.00445606 -3.65537e-21)
(0.000942307 1.54401e-05 0)
(0.00237293 0.00403569 4.42867e-22)
(0.00233447 0.00396622 0)
(0.00219391 0.00383567 0)
(0.00122729 0.000783034 -1.89086e-20)
(0.000872577 6.04185e-05 -5.96928e-25)
(0.00221189 0.00393643 -1.38583e-21)
(0.00225119 0.00400148 -1.24047e-21)
(0.000119042 -0.000104373 1.99735e-20)
(0.000988422 4.87158e-05 9.74258e-22)
(0.000889587 6.43933e-05 0)
(0.00226777 0.00389534 8.75478e-22)
(0.000659345 0.000482616 -1.4086e-20)
(0.00225633 0.00389078 5.57299e-22)
(0.00139274 0.000224149 0)
(0.000946295 4.30452e-05 0)
(0.0022719 0.00389428 -3.81816e-22)
(0.00237869 0.00402743 3.23139e-22)
(0.00234052 0.00395824 1.35141e-21)
(0.00134763 0.000281991 -3.5478e-21)
(0.000225965 0.000137206 7.55384e-21)
(0.00233849 0.0039549 -1.56143e-21)
(0.00237655 0.0040241 -1.42919e-21)
(0.00227267 0.00389191 0)
(0.00233708 0.00395216 1.80666e-21)
(0.00237513 0.00402165 1.6556e-21)
(0.000381737 0.000343783 0)
(0.00233427 0.00394611 -2.15931e-21)
(0.00237219 0.00401888 0)
(0.00233163 0.00394515 -5.99349e-22)
(0.00236897 0.00402919 -5.52407e-22)
(0.00232836 0.00394845 5.13345e-21)
(0.00236676 0.00403927 -5.84057e-22)
(0.00227133 0.0038884 0)
(0.000913201 7.56689e-05 -4.95341e-21)
(0.00216292 0.00402518 3.74815e-21)
(5.13144e-05 -2.49519e-05 1.42142e-20)
(0.000979799 0.000691996 4.3502e-21)
(0.00227013 0.00388489 -6.89716e-22)
(1.04078e-05 3.43619e-05 0)
(0.000296102 0.00023453 -1.21193e-20)
(0.00250889 0.00446347 0)
(0.00232342 0.00368857 3.23782e-21)
(0.00259898 0.00464747 -3.26407e-22)
(0.00254669 0.0045616 2.513e-22)
(0.000976491 0.000358197 9.65699e-21)
(0.000933621 3.75574e-05 -2.52875e-21)
(0.000737763 0.00193148 -1.21997e-20)
(1.81025e-05 -3.01466e-05 5.72587e-22)
(0.00226226 0.00387407 2.17674e-21)
(0.00225992 0.00387462 0)
(0.00225383 0.00389345 0)
(0.000162149 0.000134383 0)
(0.00228972 0.00379182 1.55046e-21)
(0.00225303 0.00392086 2.82057e-21)
(0.00080323 0.00131513 1.46435e-20)
(0.00237318 0.0048334 8.60911e-21)
(0.00112541 0.000652912 0)
(4.58391e-05 -3.16706e-05 -7.66204e-21)
(0.000945319 1.77517e-05 -4.88844e-25)
(0.000472269 0.00130518 8.06522e-21)
(0.000993497 0.000107642 -5.3435e-22)
(2.12989e-05 -0.000103331 -4.83865e-22)
(0.000302653 0.000133355 0)
(0.000968021 5.26346e-05 1.07904e-20)
(0.000229817 0.000374024 5.40358e-25)
(4.63197e-05 0.00216444 0)
(0.000933294 7.80134e-05 0)
(0.00222298 0.00439203 -3.79039e-21)
(2.45998e-05 -2.74363e-05 2.92834e-21)
(0.00045503 0.000149207 1.41921e-20)
(0.000942887 -0.000662172 1.07536e-21)
(0.000714103 0.0011606 1.56591e-20)
(0.00118994 0.000921809 -7.74433e-21)
(2.21458e-05 -2.34376e-05 -1.22401e-20)
(0.00171119 0.00122754 1.34505e-20)
(0.0011925 0.000154719 -2.71319e-21)
(0.000964298 2.25649e-05 -9.12277e-22)
(0.00117556 8.37431e-05 9.38833e-21)
(0.00096234 4.28961e-05 -1.34837e-22)
(1.77193e-05 -3.77309e-05 0)
(0.000962974 -4.30598e-05 -1.56819e-20)
(0.00138145 0.00219419 3.47549e-21)
(0.000929065 7.28737e-05 1.15419e-20)
(3.55299e-05 -7.03612e-05 0)
(2.86996e-05 0.0017224 -3.18637e-21)
(0.000237845 -0.000280905 0)
(0.000167903 0.000167003 8.78959e-21)
(0.00255908 0.00458683 6.04067e-21)
(0.000951955 2.25955e-05 -1.22603e-21)
(0.000490117 -0.000384214 0)
(0.000511651 0.000127002 8.67725e-21)
(0.000301215 0.000273905 2.47413e-24)
(0.00115321 6.65835e-05 0)
(0.00252684 0.00447419 2.93233e-23)
(1.71161e-05 -3.64599e-07 0)
(0.00218352 0.00385075 0)
(0.000267834 0.000301811 0)
(0.000194133 0.0015447 0)
(0.00193078 0.00451519 5.35102e-21)
(0.00276661 0.00454925 6.2328e-21)
(0.000915249 0.000784299 7.74729e-21)
(4.81275e-05 -7.15731e-05 4.65897e-21)
(0.000974117 2.99472e-05 0)
(0.000154154 0.000187188 0)
(0.000507568 0.000215647 -2.06746e-21)
(2.40214e-05 -8.97438e-07 0)
(3.93811e-05 -2.0815e-05 4.66326e-21)
(0.000295275 0.000108538 7.07933e-25)
(0.000174188 0.000148051 0)
(0.000431809 0.000190455 1.08679e-20)
(0.00116019 0.000149917 -3.5234e-21)
(7.39641e-05 -9.38591e-06 -5.80467e-21)
(0.000998048 7.838e-05 1.32919e-22)
(0.000111348 -0.00016511 2.26474e-24)
(0.00118302 0.00014455 2.23056e-21)
(0.00134194 0.00210714 9.88578e-21)
(0.000965028 4.1343e-05 1.31677e-22)
(3.86018e-05 -7.89961e-05 0)
(0.00126212 0.00314652 0)
(0.000957589 2.14843e-05 -5.80134e-22)
(3.67671e-05 -9.53412e-05 2.58932e-21)
(0.00116696 0.00161997 2.91183e-21)
(0.00128583 0.000440728 2.57587e-21)
(0.000187252 0.00283227 0)
(0.000776891 6.39506e-05 -2.23403e-21)
(1.11096e-05 -1.59442e-06 0)
(-1.96049e-05 0.000728462 6.47418e-21)
(0.000121628 -1.63669e-05 9.03387e-21)
(0.000971639 1.29404e-05 -3.93294e-24)
(0.000241367 -0.000442599 -5.76636e-21)
(0.000554505 0.00100077 -1.45204e-20)
(0.000110049 -2.15337e-05 0)
(0.00116102 0.000712021 -2.68754e-23)
(0.000915195 -5.47547e-07 0)
(0.00078669 2.16732e-05 6.68968e-21)
(0.000142206 0.000120177 -5.08671e-21)
(0.000947452 1.73989e-05 2.25567e-21)
(0.00013553 -0.00015383 3.1052e-24)
(0.00256049 0.00457887 3.14538e-22)
(0.0026128 0.00466552 0)
(0.000541872 0.000258622 9.51446e-21)
(0.00107045 0.00091084 -1.96815e-24)
(0.000957274 1.92748e-05 1.12843e-21)
(0.00131389 0.000626002 5.23266e-21)
(7.65154e-05 2.4174e-05 1.21236e-20)
(0.000217335 0.000167494 5.46128e-21)
(0.000855488 8.83749e-05 2.56718e-20)
(0.0010185 -1.8616e-06 -2.70951e-20)
(0.00279214 0.00458761 9.67875e-21)
(0.000131267 -9.54721e-06 2.00389e-20)
(0.000955937 3.95931e-05 0)
(0.000277476 0.000140292 -8.36991e-21)
(0.000201616 0.000129896 7.90333e-21)
(0.000161671 -0.000368374 2.32225e-21)
(0.000155212 0.000120788 1.5397e-20)
(0.000395816 0.00012512 9.49719e-21)
(0.000134548 -0.000127171 2.59085e-24)
(0.000384704 0.000160573 3.73583e-25)
(3.53496e-05 -5.83441e-05 0)
(0.000966717 4.64412e-05 0)
(0.000950425 3.11572e-05 1.92763e-21)
(0.0002353 0.00018985 1.12139e-20)
(0.000395203 0.000151954 0)
(0.00038474 -4.48318e-05 6.15944e-21)
(0.000194418 0.000106166 0)
(0.000954248 3.04616e-05 -2.04086e-21)
(0.000323229 -0.000349148 4.72145e-21)
(0.000169589 -0.000190292 1.34705e-20)
(7.3468e-05 -5.62354e-05 1.48838e-21)
(0.000468953 0.000192829 -1.29952e-24)
(0.000517362 0.000226146 0)
(0.000368611 0.000395132 0)
(0.000959123 2.776e-05 0)
(0.000193807 0.000178408 -3.19974e-21)
(0.000983703 4.66816e-05 -8.3065e-21)
(0.000126913 -0.000177118 -6.87832e-21)
(0.000283504 0.00155239 5.11483e-21)
(0.00013312 0.000139438 0)
(0.000814401 0.00075936 0)
(0.000417951 -9.78809e-06 0)
(0.000961323 -7.36651e-05 1.72048e-20)
(0.000912355 0.000697467 -1.17979e-20)
(8.89761e-05 0.00103108 4.96368e-21)
(4.72803e-05 -7.38522e-05 0)
(0.00186562 0.00455803 5.01026e-22)
(0.000961983 -2.06896e-05 2.16357e-21)
(0.000862765 0.000828926 1.59197e-20)
(0.000932726 -2.73604e-05 -5.75049e-25)
(0.000270472 0.000265573 -7.95735e-21)
(0.00102788 1.28524e-05 0)
(8.33379e-05 6.57568e-05 4.26836e-21)
(0.000181581 -0.000223869 -4.85186e-21)
(0.000315715 0.000167961 8.85214e-21)
(4.92457e-05 -9.28514e-05 -9.62917e-21)
(9.45041e-05 1.36523e-05 -3.66358e-21)
(0.000994529 4.71001e-05 4.92368e-21)
(0.000196824 1.5361e-05 4.06291e-21)
(0.000915746 0.00100215 0)
(0.00111552 0.00017688 1.54442e-20)
(0.000247042 9.67757e-06 0)
(7.85671e-05 -1.64741e-05 -5.55212e-21)
(0.000229571 -0.000234556 -8.55175e-21)
(0.000430874 0.000952322 -5.77339e-21)
(0.000949568 3.09865e-05 8.96084e-21)
(0.000567985 0.000300981 -7.31144e-21)
(8.06382e-05 2.51314e-05 -1.02574e-20)
(0.00142308 0.000646018 -1.25328e-20)
(0.000314967 0.000679838 -2.11079e-20)
(0.000967341 -2.94232e-05 0)
(5.09995e-05 -0.000107462 0)
(0.000969759 2.36866e-05 -1.26456e-22)
(0.00031249 -0.00027541 -8.566e-21)
(0.00101682 3.63188e-05 4.43869e-21)
(0.000951374 2.11898e-05 -7.92193e-21)
(2.22207e-06 1.2123e-05 -9.87562e-22)
(2.97274e-05 -2.05786e-05 -5.37286e-21)
(0.000248449 -0.000342358 -5.91789e-21)
(0.000118345 -3.10221e-05 0)
(0.00100871 2.82477e-05 0)
(0.000685198 0.000147538 -2.58636e-22)
(2.83209e-05 1.84227e-05 7.16074e-21)
(0.00113194 0.000471137 -1.61821e-21)
(0.00254131 0.00445988 2.8827e-22)
(0.000110679 -6.00688e-05 -2.72261e-25)
(0.00112912 0.000412495 6.44601e-21)
(0.00022873 0.000567123 4.16373e-25)
(8.72235e-05 -5.09516e-05 -4.09269e-21)
(0.00100807 2.80011e-05 0)
(2.08529e-05 -1.37711e-06 -7.99224e-21)
(6.8945e-05 -4.91918e-05 0)
(0.00100018 -3.1916e-05 0)
(0.00095533 9.10718e-06 -2.61581e-22)
(0.000727434 0.000282203 -1.38731e-20)
(0.000500506 0.000283549 -5.39178e-21)
(0.00111229 0.001306 9.39197e-21)
(2.27077e-06 1.79467e-05 0)
(0.000246882 0.000261401 8.31265e-21)
(4.06614e-05 2.41865e-06 -4.67074e-21)
(0.00050962 0.000564232 7.4376e-21)
(0.000311129 0.000311502 8.41569e-21)
(0.000966458 2.84079e-05 -2.60672e-22)
(3.32961e-05 1.30767e-05 0)
(0.000223893 9.75463e-06 0)
(4.45908e-06 0.000124835 1.00004e-21)
(-3.18225e-06 0.000592911 -8.00809e-21)
(0.000125615 0.00029647 -9.86301e-25)
(0.00101797 7.41114e-06 -4.76703e-22)
(0.000651165 -0.000270027 -5.77379e-21)
(0.0001758 1.9514e-05 4.21358e-21)
(0.000977224 0.000922708 -9.12937e-21)
(0.00253825 0.0044783 6.30684e-23)
(0.000521358 -0.000262379 -1.41044e-20)
(0.000960564 2.8465e-05 -8.75869e-22)
(0.000925835 0.000850875 -2.4721e-20)
(-3.16343e-06 0.000812406 0)
(0.000129698 -9.09095e-05 0)
(0.00125628 0.000589018 0)
(0.000953903 9.65101e-06 0)
(3.52979e-06 0.000538852 0)
(0.000838798 9.14212e-05 -3.98671e-21)
(-3.63949e-06 0.000287242 -6.33199e-21)
(0.000968815 5.29979e-05 -1.24015e-21)
(0.000176078 0.000194813 0)
(9.69099e-06 0.000454641 -4.18509e-21)
(-1.89753e-05 0.000724431 -7.4459e-21)
(0.00242278 0.00481847 2.46899e-23)
(0.00116803 6.72418e-05 -1.53781e-20)
(0.00074351 0.000653805 -4.02715e-21)
(0.000987233 2.32972e-05 0)
(0.000132361 -0.000107009 -9.67289e-21)
(6.7564e-05 4.13167e-05 4.18115e-21)
(0.00013413 0.000161339 7.0917e-21)
(1.10776e-05 0.000262212 3.12794e-21)
(0.000929163 5.49779e-06 0)
(0.000939238 3.02174e-05 0)
(-4.34595e-06 0.000210009 0)
(0.000857239 0.000635745 6.53991e-21)
(3.76861e-06 0.000158304 1.92209e-21)
(0.000473291 0.000879111 -1.51716e-20)
(0.000219211 0.000110147 8.52765e-21)
(1.02094e-06 0.0001929 -3.76921e-21)
(0.000939427 -2.16392e-05 0)
(7.87963e-05 -0.000157828 0)
(0.00102332 7.18692e-06 2.20214e-21)
(7.37747e-05 2.45906e-05 -1.62278e-20)
(4.31003e-05 3.14635e-06 6.88409e-21)
(0.000347016 -4.89447e-05 -8.78173e-22)
(3.86723e-07 0.000101358 -2.5395e-21)
(0.00098077 -6.83267e-05 9.00349e-21)
(0.000959472 4.18873e-06 -1.04095e-21)
(0.00013837 -0.000311686 3.47111e-21)
(3.77323e-05 3.13844e-05 -3.80572e-22)
(0.000242313 0.000112867 1.89523e-25)
(0.000770906 4.30022e-05 0)
(0.000461074 -2.1244e-05 -9.95684e-25)
(0.000289626 0.000171958 -8.01699e-21)
(0.000166013 -0.000159322 0)
(0.00244365 0.00441925 3.4848e-21)
(7.29891e-05 5.07414e-05 4.82807e-21)
(0.000773622 0.000308413 8.43497e-21)
(0.000335844 -0.000584462 1.04818e-20)
(0.000480634 0.000163279 -9.30398e-21)
(0.000380581 8.59166e-05 -8.63484e-21)
(0.000245538 0.000231535 -1.49275e-20)
(0.000149805 0.000156858 -5.47786e-21)
(0.000905049 0.000404638 0)
(1.33279e-06 3.59583e-05 -4.00042e-21)
(0.0010145 -2.2578e-06 2.18579e-21)
(0.00101964 1.99388e-05 0)
(0.000934119 1.26305e-05 1.56007e-21)
(0.000656658 0.000118546 4.89726e-21)
(0.000952234 3.20159e-05 0)