/*--------------------------------*- C++ -*----------------------------------*\
  =========                 |
  \\      /  F ield         | OpenFOAM: The Open Source CFD Toolbox
   \\    /   O peration     | Website:  https://openfoam.org
    \\  /    A nd           | Version:  8
     \\/     M anipulation  |
\*---------------------------------------------------------------------------*/
FoamFile
{
    version     2.0;
    format      ascii;
    class       volVectorField;
    location    "10";
    object      U;
}
// * * * * * * * * * * * * * * * * * * * * * * * * * * * * * * * * * * * * * //

dimensions      [0 1 -1 0 0 0 0];

internalField   nonuniform List<vector> 
1642
(
(4.01454e-06 -4.5965e-06 1.46699e-26)
(0.00193192 0.0051758 9.17126e-21)
(0.00228652 0.00477089 5.30142e-21)
(0.00214311 0.00355196 2.90824e-20)
(0.000853116 1.34166e-05 1.34497e-21)
(0.000703633 0.00014007 3.43939e-20)
(0.00103733 0.000158911 8.37785e-21)
(0.00103202 0.00022343 -2.46308e-24)
(0.000696328 0.000480455 8.15853e-21)
(0.000858679 0.000237687 2.16836e-20)
(0.00255352 0.00312 -1.59609e-20)
(0.000336074 0.000933286 -1.76335e-20)
(0.000762355 0.000352844 2.13706e-20)
(0.000894573 0.000185249 -1.45476e-20)
(0.000489087 0.000400695 0)
(0.000708937 0.000544721 0)
(2.41513e-05 0.000242573 -1.14833e-20)
(1.13867e-06 0.000205022 1.90236e-20)
(1.46323e-05 1.96531e-05 3.39822e-25)
(2.71604e-05 1.08057e-05 3.92902e-21)
(0.000910539 0.000159784 -5.56444e-21)
(0.000957761 0.00023868 6.38391e-21)
(0.000906401 0.000151146 0)
(0.00217858 5.0107e-05 -1.88823e-20)
(0.00034547 0.000243801 -3.17621e-20)
(4.64144e-05 0.000520223 -4.07641e-21)
(0.000840011 -7.6081e-05 1.24759e-20)
(0.000108257 0.000237297 0)
(0.00431945 0.0045495 3.90726e-22)
(0.00433183 0.00455375 1.42982e-22)
(0.00446572 0.0046917 -1.61976e-22)
(0.000999534 8.69251e-05 -9.72821e-21)
(0.000297726 0.00120752 0)
(4.23972e-05 -4.43621e-05 -4.15198e-21)
(0.000366962 0.000215186 9.6567e-21)
(0.000411672 0.000439795 -1.80976e-21)
(0.000894402 0.000457664 -3.16011e-20)
(0.00093204 3.3427e-05 3.0146e-22)
(0.000416292 0.000314345 -6.73278e-25)
(0.000904249 0.00025676 -9.52659e-21)
(0.000864587 0.000159622 0)
(1.82191e-05 4.50219e-05 -2.23524e-21)
(3.4243e-05 8.21806e-06 0)
(0.000947763 0.005065 -1.94925e-20)
(-0.00182633 -1.25709e-05 -1.85303e-21)
(0.000774221 3.40291e-05 -2.09352e-21)
(0.000870366 1.94545e-05 6.22555e-22)
(0.00049122 0.000105677 -4.34544e-21)
(0.000357043 0.000125148 -1.22309e-20)
(0.000679393 0.000391966 -1.87153e-20)
(3.26132e-05 8.57052e-05 -4.59826e-21)
(0.000753948 0.000390353 -5.96605e-21)
(1.50122e-05 -5.54488e-06 3.259e-21)
(6.90068e-05 0.00469943 0)
(0.00253752 0.00373556 -1.43147e-20)
(0.0005732 0.000489198 9.42223e-22)
(0.00103346 0.000191622 -4.23674e-21)
(0.000195745 8.8081e-06 -6.33477e-21)
(0.00120484 0.000389948 -2.53304e-20)
(0.000360672 -0.000343497 0)
(0.00027653 0.000142741 0)
(0.00092637 6.04345e-05 -1.18952e-21)
(9.08898e-05 -6.90142e-05 3.49128e-21)
(0.00136244 0.000150832 -1.77782e-20)
(7.72829e-05 0.000422619 1.46542e-20)
(5.5616e-05 9.75798e-06 1.08859e-21)
(0.000110846 0.000126187 0)
(4.87e-05 1.72686e-05 -4.43076e-21)
(0.000455817 0.000531969 4.91712e-21)
(6.21061e-06 5.95189e-05 -4.13558e-21)
(0.0003136 9.13991e-05 -1.18035e-20)
(7.08777e-05 0.000281901 -1.30151e-20)
(0.000254097 7.20793e-05 1.56486e-20)
(0.000905032 4.11972e-05 1.21331e-21)
(0.000477513 0.000619242 7.72109e-21)
(0.00130108 0.00152895 -2.00483e-21)
(0.00434243 0.00451584 4.07017e-25)
(0.00420584 0.00438348 0)
(0.00418506 0.00437514 -2.02655e-22)
(0.000436662 0.000183118 5.55132e-21)
(5.76205e-05 9.91372e-08 2.23102e-21)
(3.45162e-05 2.00457e-05 1.53931e-20)
(0.00110196 0.000372269 -1.64564e-20)
(0.000989537 0.000447269 1.02037e-20)
(-0.00209888 0.000446721 0)
(0.000489149 0.000650179 -3.71381e-21)
(0.000428653 0.000526246 -1.41962e-20)
(6.55022e-06 -9.3211e-05 0)
(0.000561274 0.000588553 3.62233e-21)
(3.20405e-05 -3.23395e-05 -1.67509e-21)
(0.00101303 0.000120521 -6.66926e-21)
(0.000124964 0.000331763 2.6959e-20)
(0.000756431 0.000557624 -1.69885e-20)
(0.000462557 0.000476466 -7.35681e-21)
(0.000549798 0.000392362 -2.90556e-20)
(6.11736e-05 -0.000189764 -9.72256e-22)
(0.000789843 0.000172305 -2.35458e-20)
(0.000583412 0.000337738 2.49668e-20)
(0.000357708 0.000321474 1.47309e-20)
(0.000458379 0.00051902 -9.79375e-21)
(0.000426196 0.000626927 1.82416e-20)
(0.000507212 0.000760162 0)
(2.13119e-05 -0.000158383 8.15261e-21)
(0.00501036 0.00488779 -1.18079e-22)
(0.00485488 0.0047388 1.5913e-20)
(0.00483615 0.00472476 4.30386e-21)
(0.00434694 0.00414332 1.71377e-20)
(0.00434337 0.00413948 1.88282e-22)
(0.00449033 0.00426657 3.21783e-21)
(0.00435798 0.00413938 -1.08892e-22)
(0.00430184 0.00409918 5.38461e-21)
(0.00435122 0.00412881 -6.59647e-21)
(0.00448351 0.00427696 0)
(0.00449245 0.00426684 5.1134e-21)
(0.00436047 0.00413969 1.45446e-21)
(0.00435905 0.00414031 2.92938e-21)
(0.00449059 0.00426878 -9.32447e-22)
(0.00434472 0.00417663 0)
(0.00392487 0.00333874 0)
(0.00396479 0.00374321 7.6688e-21)
(0.00435066 0.00413637 -8.14917e-22)
(0.00351225 0.00305794 -2.15269e-20)
(0.00375422 0.00344432 0)
(0.000409165 0.000620838 3.60294e-21)
(0.000571244 0.000589177 0)
(0.000318874 -8.68755e-05 2.34415e-21)
(0.000953945 0.000201405 1.35278e-20)
(6.78027e-06 -5.52198e-05 0)
(0.000562542 0.000281117 4.59943e-21)
(0.000613767 0.000326162 -1.35503e-20)
(0.000420123 1.68474e-05 0)
(0.00020837 -0.000112349 -2.28812e-21)
(2.12416e-05 -4.35266e-05 -9.8185e-22)
(0.000759297 6.61184e-05 8.44053e-21)
(5.6354e-05 -1.03063e-05 -1.1e-25)
(3.34091e-05 -5.57364e-05 1.02867e-21)
(0.00062493 0.000272729 -2.53407e-21)
(0.000313439 -7.28173e-06 2.52219e-21)
(0.000638441 0.000201862 0)
(0.00073686 0.000488158 0)
(1.81215e-05 0.000386282 7.8448e-21)
(5.83103e-05 1.93542e-05 -1.47949e-21)
(9.64294e-05 7.41284e-05 0)
(0.000342869 5.9275e-05 1.06769e-20)
(0.000628726 0.000449674 3.68451e-20)
(6.67486e-05 0.000223772 1.38192e-20)
(0.000860048 9.00263e-05 0)
(4.68489e-05 0.000131658 1.90452e-20)
(0.000887575 0.000124248 -2.4033e-21)
(0.0007142 0.000175089 3.98111e-20)
(0.000282359 0.00018414 1.60013e-20)
(0.00086251 4.86412e-05 3.61781e-21)
(6.53837e-05 -1.72311e-05 -2.09221e-21)
(0.00032158 0.000236956 0)
(0.00102391 -7.42257e-05 1.14753e-20)
(0.000884716 0.000128932 0)
(0.000915067 9.00653e-05 -1.97547e-21)
(4.78305e-06 2.16657e-05 -1.31594e-20)
(5.45932e-06 -4.38118e-05 -6.24186e-23)
(-1.17815e-05 0.000294502 0)
(8.76294e-05 7.72181e-05 3.60739e-20)
(6.50333e-05 4.98351e-05 -3.8368e-21)
(0.000134822 -4.79651e-05 1.04069e-21)
(0.000927334 0.000154743 0)
(4.81547e-06 -2.73834e-05 0)
(0.000863678 6.85052e-05 0)
(0.000920325 6.07685e-05 0)
(5.17182e-05 -1.87519e-05 -2.31421e-21)
(0.000869919 1.3935e-05 -5.24936e-21)
(9.94648e-06 -0.000179479 -1.93176e-21)
(-1.00553e-05 0.000296542 -1.94458e-20)
(-1.01354e-06 0.000170345 -1.68051e-20)
(5.2233e-06 4.61066e-05 4.07431e-21)
(3.03132e-06 0.000143062 1.70703e-20)
(0.000687701 -1.03697e-05 -6.1643e-21)
(1.7796e-05 -9.6e-05 1.84442e-21)
(0.000803693 0.000232008 9.77528e-21)
(0.000357178 0.000137705 1.43647e-20)
(0.000604748 0.0002222 0)
(0.000572886 0.000410446 -3.71183e-21)
(0.000991344 0.000348322 8.52863e-21)
(3.92841e-05 2.01956e-05 1.37698e-20)
(0.000763848 0.000832087 3.69634e-21)
(4.44297e-06 3.15369e-05 6.58975e-21)
(5.1508e-06 0.00011762 0)
(0.000550678 0.000313055 1.01395e-20)
(0.000629964 7.83509e-05 8.99884e-22)
(4.93761e-05 -9.77109e-06 -9.14429e-21)
(0.000201296 -0.0002013 1.2471e-21)
(0.000927015 0.000354682 1.71624e-24)
(0.00046746 0.000479175 3.33516e-25)
(0.000385394 0.00012945 -1.1681e-20)
(4.83837e-05 3.1349e-05 1.7526e-21)
(0.000310088 0.000279065 -7.70286e-21)
(0.000186751 -8.27352e-05 -2.19743e-21)
(0.000720819 -3.84843e-05 2.00705e-24)
(0.000408313 0.000627824 -8.69588e-22)
(5.00241e-05 -2.70666e-06 7.26221e-21)
(0.000302234 0.000425159 -1.82948e-20)
(0.000601152 0.00021751 3.11263e-20)
(6.24389e-05 9.58914e-06 -4.15759e-21)
(8.05046e-05 1.67006e-06 -2.60572e-22)
(0.000540724 0.000688183 -3.78555e-21)
(0.00062677 0.000437836 1.13203e-20)
(0.00104057 0.000128975 0)
(4.22227e-05 8.15429e-06 1.15142e-20)
(0.000404424 0.00021589 -8.67103e-21)
(0.0045004 0.00428327 -1.597e-20)
(0.00435839 0.00414332 -6.97404e-21)
(0.00436698 0.00415435 -6.34176e-21)
(0.00449708 0.00428594 -9.61518e-21)
(0.00449372 0.00428618 0)
(0.00221766 0.00220702 3.90246e-21)
(0.00221686 0.00220562 -2.16426e-23)
(0.00435601 0.00414126 -7.07199e-21)
(0.00449366 0.00428761 5.68735e-21)
(0.00436512 0.00415208 -8.06307e-21)
(0.00448754 0.00429062 -5.56643e-21)
(0.00436611 0.0041538 6.53274e-21)
(0.0022048 0.00219799 0)
(0.00450053 0.00428724 0)
(0.00221739 0.0021949 -3.11842e-21)
(0.00449796 0.00428334 -4.958e-21)
(0.0043664 0.00414392 -4.20119e-21)
(0.00450177 0.00428877 -1.28596e-20)
(0.00435881 0.00414315 0)
(0.00217628 0.00216342 -3.18018e-21)
(0.00535054 0.00454787 -2.72802e-20)
(0.00222555 0.00219101 1.41179e-20)
(0.00215641 0.00214549 -6.02564e-21)
(0.00221261 0.00220081 -1.13925e-20)
(0.00215328 0.00214774 -8.19795e-21)
(0.00221886 0.00220726 9.29417e-21)
(0.00222372 0.00219645 -9.81978e-21)
(0.00222168 0.00220885 -9.82785e-23)
(0.00220433 0.00219756 7.36195e-21)
(0.00214737 0.00214179 1.16264e-20)
(0.00221502 0.00220472 1.94898e-20)
(0.00447571 0.00428314 -6.17229e-21)
(0.00436714 0.00415444 -2.86764e-21)
(0.00540698 0.0046498 2.06511e-20)
(0.00437017 0.00415589 -1.15516e-22)
(0.00446694 0.00429035 5.76198e-21)
(0.00533013 0.00478948 -1.45568e-20)
(0.00450263 0.00428978 2.86134e-21)
(0.00435919 0.00415135 9.17356e-22)
(0.00218387 0.00218787 5.99956e-21)
(0.00315938 0.00290218 -1.41878e-20)
(0.00457251 0.00420191 0)
(0.00449088 0.00427763 -8.79999e-22)
(0.00221462 0.0022047 1.85773e-21)
(0.00449658 0.00428202 -1.02352e-20)
(0.00472868 0.00426045 0)
(0.00520896 0.0044965 6.7292e-21)
(0.00450101 0.00428036 1.47415e-21)
(0.00436885 0.00415377 1.54023e-21)
(0.00436581 0.00414653 -1.81747e-21)
(0.00488589 0.0044496 1.50047e-20)
(0.00435608 0.0041446 9.07759e-21)
(0.00436868 0.00415214 -1.51991e-21)
(0.0043664 0.00415247 0)
(0.00442196 0.00426424 0)
(0.00449896 0.00429331 -1.26435e-20)
(0.00216146 0.00215221 1.93403e-21)
(0.002793 0.00253993 -1.36618e-20)
(0.00439729 0.00425053 6.13096e-21)
(0.00436005 0.00414305 0)
(0.0043723 0.00416338 -9.67902e-21)
(0.00346154 0.00330503 -2.47506e-22)
(0.00444285 0.00422614 5.70279e-21)
(0.00213755 0.00215754 -6.17599e-21)
(0.00450105 0.00428162 -1.49385e-21)
(0.00218178 0.00217559 3.67086e-21)
(0.00435282 0.00415267 6.12275e-21)
(0.00502919 0.00437886 6.49588e-21)
(0.00469732 0.00438853 0)
(0.00222673 0.00220284 -2.32781e-20)
(0.00441718 0.00417949 1.0721e-20)
(0.00449741 0.0042832 5.24497e-21)
(0.00217941 0.00216354 1.2712e-22)
(0.00223002 0.00220555 -5.86344e-21)
(0.0021497 0.00214192 1.7897e-21)
(0.00220984 0.00219757 -5.23835e-21)
(0.00340021 0.00330813 -1.53878e-20)
(0.00448097 0.00427897 -1.42618e-21)
(0.00437282 0.00415804 0)
(0.00216057 0.00215375 4.20618e-21)
(0.00443786 0.00416396 0)
(0.00216897 0.00215961 -2.08333e-21)
(0.00217053 0.00216224 1.44384e-20)
(0.00450534 0.00428637 0)
(0.00436526 0.0041492 5.64866e-21)
(0.00436012 0.00414704 5.56632e-21)
(0.00450528 0.0042894 5.32855e-21)
(0.00220465 0.00219471 1.74002e-21)
(0.00216571 0.0021547 0)
(0.00219502 0.00218998 3.45488e-21)
(0.00285067 0.00275102 1.63185e-20)
(0.00284209 0.00279002 0)
(0.00438686 0.00416914 1.02235e-20)
(0.00436198 0.00414559 2.96161e-21)
(0.00219909 0.00219219 -1.13009e-21)
(0.00436652 0.00415331 -2.62804e-21)
(0.00218501 0.00217566 4.56098e-21)
(0.0021455 0.0021393 -3.39872e-21)
(0.00435569 0.00414235 -8.93371e-21)
(0.00208728 0.00195947 0)
(0.00216794 0.00215698 -1.12143e-20)
(0.00221426 0.00220329 1.11803e-21)
(0.00449862 0.00428071 -2.54181e-21)
(0.00215954 0.00215004 1.1596e-21)
(0.00216378 0.00214941 0)
(0.00221564 0.00221154 6.3811e-21)
(0.00351704 0.00340135 0)
(0.00221586 0.00219269 -1.66238e-20)
(0.0022247 0.00221334 -2.031e-21)
(0.00217262 0.0021627 4.25007e-25)
(0.00216992 0.0021625 -5.88466e-21)
(0.00435719 0.00414212 -6.5076e-21)
(0.00445542 0.00428016 -9.93973e-22)
(0.00316175 0.00335109 -8.27707e-21)
(0.00221466 0.00218459 -3.53404e-21)
(0.00211041 0.00210125 0)
(0.00217272 0.00214582 1.28687e-20)
(0.00528609 0.00471153 -1.47044e-20)
(0.00445538 0.00476774 8.09564e-21)
(0.00215244 0.00214758 0)
(0.00507026 0.00439857 6.36287e-21)
(0.00213862 0.00200515 2.1186e-22)
(0.00435536 0.00414471 0)
(0.00219683 0.00219142 -1.17302e-20)
(0.00217157 0.00216442 -2.48765e-20)
(0.00435132 0.00414212 -1.14563e-21)
(0.00437074 0.00415741 5.36335e-21)
(0.00450221 0.00428742 4.27263e-21)
(0.0045056 0.00428719 3.81668e-21)
(0.00218005 0.00217194 -1.26031e-21)
(0.00217514 0.00216938 2.13539e-21)
(0.00216186 0.00214693 0)
(0.00218508 0.00216906 2.92949e-21)
(0.00436433 0.00414727 0)
(0.00435941 0.00415771 -4.55387e-24)
(0.00477454 0.00429383 0)
(0.00216448 0.00213201 1.1874e-20)
(0.0045032 0.00428613 5.21594e-21)
(0.00257828 0.00247337 0)
(0.00338127 0.00338384 8.34184e-21)
(0.00352202 0.00344683 -2.41147e-20)
(0.00223112 0.00221006 0)
(0.00222557 0.00221205 0)
(0.00220139 0.00218121 -5.42692e-21)
(0.00215902 0.00215537 -6.68097e-21)
(0.00435834 0.00414503 2.68826e-21)
(0.0043949 0.00440851 0)
(0.00437292 0.00415828 3.91991e-21)
(0.0044221 0.00426373 3.38563e-22)
(0.00216972 0.00215879 0)
(0.0042923 0.00413533 -1.31083e-21)
(0.00336933 0.0034334 3.93925e-23)
(0.00436936 0.00415749 5.00427e-21)
(0.00218251 0.00216004 -3.83662e-21)
(0.00217084 0.00214842 6.97046e-21)
(0.00449398 0.00428558 6.59785e-21)
(0.00436314 0.00415889 1.20823e-22)
(0.00436227 0.00415873 -3.3896e-21)
(0.00215962 0.00214507 2.6971e-21)
(0.00435345 0.00414692 3.93968e-21)
(0.00221633 0.00220203 1.07357e-20)
(0.00435271 0.00414681 -7.52516e-21)
(0.00411463 0.0048295 0)
(0.00210104 0.00197085 -4.08036e-22)
(0.00217103 0.0021603 -5.05944e-21)
(0.00440107 0.00417231 -5.04469e-21)
(0.00437283 0.00416195 6.86426e-21)
(0.00215157 0.00213527 0)
(0.00506419 0.00489686 -1.52153e-20)
(0.0043553 0.00414391 -1.00554e-20)
(0.00214228 0.00216229 1.26346e-20)
(0.0021577 0.00215438 -6.52785e-21)
(0.00442912 0.00423907 1.16318e-20)
(0.00216806 0.00215814 0)
(0.00216999 0.00216147 1.0979e-20)
(0.00218063 0.00217633 8.30532e-21)
(0.00215885 0.0021342 0)
(0.00437182 0.00416115 4.92673e-21)
(0.00450581 0.00428875 -8.75825e-21)
(0.00449833 0.00428219 -3.83842e-21)
(0.00449155 0.00428118 9.01664e-22)
(0.00450122 0.00428739 8.32099e-21)
(0.00448804 0.00428304 -1.05537e-20)
(0.00221604 0.0022019 0)
(0.00244835 0.00236933 -1.50455e-20)
(0.002169 0.00214394 3.88987e-21)
(0.00436129 0.00415439 -9.38824e-22)
(0.00259409 0.00239159 -1.94435e-20)
(0.00211676 0.00211414 1.05822e-21)
(0.00279839 0.00268663 -8.00773e-21)
(0.00221559 0.00219419 -5.73278e-21)
(0.00437019 0.00416277 4.41814e-21)
(0.00450584 0.00428854 2.31082e-21)
(0.00216459 0.00216167 -6.90528e-21)
(0.00435538 0.00414531 0)
(0.00436041 0.00414785 3.36307e-20)
(0.00435094 0.00414258 1.94509e-21)
(0.00219475 0.0021906 -1.18391e-21)
(0.00216803 0.00216305 -1.80863e-21)
(0.00216283 0.00215939 1.63885e-21)
(0.00221667 0.00220477 2.25867e-20)
(0.00435107 0.0041516 1.2325e-20)
(0.00222988 0.00221518 4.44785e-21)
(0.0021604 0.00214833 4.85144e-21)
(0.00221066 0.00219912 -2.24262e-20)
(0.00216006 0.00215563 6.34956e-21)
(0.00436605 0.00414994 2.26938e-21)
(0.00220481 0.00219178 2.10871e-20)
(0.00449949 0.00418079 -1.40774e-20)
(0.00242704 0.00230556 -6.0521e-21)
(0.00219799 0.00219178 0)
(0.00234895 0.00229252 2.16128e-20)
(0.0043672 0.0041521 -4.27665e-21)
(0.00214517 0.00213948 0)
(0.00216628 0.00215969 -4.57967e-21)
(0.00215866 0.00214906 3.36601e-24)
(0.00433946 0.00414098 0)
(0.00436689 0.00414597 -1.9314e-21)
(0.0021719 0.00216697 2.51867e-21)
(0.00449894 0.00428605 4.77341e-21)
(0.00436537 0.00414539 -3.58385e-21)
(0.00437776 0.00416432 4.97491e-21)
(0.00217 0.00215765 -6.22741e-21)
(0.00435875 0.00415026 -1.17104e-20)
(0.00439929 0.00424682 -2.3619e-20)
(0.00440807 0.00424482 1.18031e-20)
(0.00216178 0.00214513 2.37353e-21)
(0.00221772 0.00220264 0)
(0.0043574 0.00414557 -2.11494e-20)
(0.00304045 0.00277652 0)
(0.00216461 0.00215644 5.11662e-21)
(0.00522675 0.00445971 6.6433e-21)
(0.00216554 0.00215349 3.50869e-21)
(0.00216937 0.00215331 5.03833e-21)
(0.00334425 0.00312789 7.13621e-21)
(0.0022124 0.00220283 9.95662e-23)
(0.002174 0.00216034 -5.84396e-21)
(0.00217119 0.00216483 -3.97882e-21)
(0.00217271 0.00215393 -5.03649e-21)
(0.00450382 0.00428465 -1.74325e-21)
(0.00215942 0.00214551 2.87114e-21)
(0.00213936 0.00214577 -6.19831e-21)
(0.0043715 0.00415607 -1.79339e-21)
(0.00450125 0.0042889 -8.99285e-21)
(0.0047598 0.00436609 0)
(0.00443346 0.00419231 1.0848e-20)
(0.00217303 0.00216231 1.06259e-20)
(0.00221437 0.00220205 2.56948e-20)
(0.00212645 0.00214824 -2.51317e-20)
(0.00428096 0.00412597 -1.88637e-21)
(0.00217524 0.00215952 -6.90135e-21)
(0.00464148 0.004347 6.014e-21)
(0.00436655 0.00415051 0)
(0.00215966 0.00215214 1.34234e-20)
(0.00216281 0.00215165 -3.31046e-22)
(0.00435626 0.00414525 0)
(0.00225797 0.00222738 -4.07971e-24)
(0.00464255 0.00428879 -1.91058e-20)
(0.00527958 0.00459512 -7.13963e-21)
(0.00520338 0.00475585 7.36047e-21)
(0.00449716 0.00428348 0)
(0.00435305 0.00415026 6.29555e-21)
(0.00216692 0.00215454 4.76007e-21)
(0.00495416 0.00477299 0)
(0.00228025 0.00222939 0)
(0.00287827 0.00278625 -2.50691e-20)
(0.00217871 0.00216747 0)
(0.00478734 0.00433483 0)
(0.00215524 0.00215137 0)
(0.00217209 0.00216341 0)
(0.00215924 0.002154 -1.16102e-21)
(0.00214158 0.00213836 1.15063e-21)
(0.0022179 0.00219386 1.2932e-20)
(0.00221946 0.00220726 1.7251e-20)
(0.00449793 0.00428333 -5.22765e-21)
(0.00217917 0.0021739 1.50846e-21)
(0.0043983 0.00424776 -1.06001e-22)
(0.00215787 0.00214333 6.36532e-21)
(0.00449878 0.00428775 2.97274e-21)
(0.00214128 0.00214648 -9.68745e-21)
(0.00436492 0.00415346 2.46519e-21)
(0.00435883 0.00414565 0)
(0.00524745 0.00484031 -7.45411e-21)
(0.0021568 0.00215511 0)
(0.00222059 0.00219782 5.66955e-21)
(0.00221064 0.00219626 -6.0747e-21)
(0.00221691 0.00219874 0)
(0.00210718 0.0021353 -9.00591e-23)
(0.00217156 0.00216271 4.67293e-21)
(0.00214261 0.00216269 6.21517e-21)
(0.00216982 0.00214119 -7.43526e-21)
(0.00220989 0.00219982 1.01104e-20)
(0.00265124 0.00305816 3.64579e-20)
(0.00427004 0.00412172 -3.15116e-23)
(0.00447551 0.00429244 -5.8291e-21)
(0.00212137 0.00214803 -1.88717e-20)
(0.00214348 0.00213942 5.71606e-22)
(0.00311508 0.00321305 -8.6616e-21)
(0.00216088 0.0021353 1.34846e-20)
(0.00481222 0.0043174 6.36862e-21)
(0.00215471 0.00214408 6.58445e-21)
(0.00220931 0.00219795 6.42064e-21)
(0.00220636 0.00217469 4.09972e-21)
(0.00287778 0.00265818 -7.11989e-21)
(0.00217021 0.00215424 0)
(0.00217841 0.0021609 1.03833e-20)
(0.00215448 0.00214498 2.94342e-21)
(0.00213586 0.00204544 2.15053e-20)
(0.00222884 0.00221217 0)
(0.00217826 0.00215098 -1.2136e-20)
(0.00436658 0.00415777 0)
(0.00218355 0.00218752 -3.57414e-21)
(0.00319604 0.00298341 7.4659e-21)
(0.00436601 0.00415283 0)
(0.00215937 0.00214833 -2.94038e-24)
(0.00221495 0.00220148 -2.81764e-24)
(0.00269144 0.00257712 0)
(0.00332326 0.00316257 -7.3823e-21)
(0.00459296 0.00440288 -1.62472e-20)
(0.00212766 0.00210425 -7.35784e-24)
(0.00215367 0.00215459 0)
(0.00435826 0.00415261 5.87581e-21)
(0.00449699 0.00428078 -2.3805e-21)
(0.00214159 0.0021197 7.29424e-22)
(0.00215541 0.00217138 -6.02497e-21)
(0.00217281 0.00216339 0)
(0.00217125 0.00216303 -1.11997e-20)
(0.00269153 0.00269724 1.67947e-20)
(0.00434942 0.00415264 -2.17926e-21)
(0.00217863 0.00216836 -1.13906e-20)
(0.00219895 0.00219318 0)
(0.00433766 0.00415263 -5.63503e-22)
(0.00236594 0.00230745 -1.96839e-20)
(0.00436855 0.0041552 -2.67377e-21)
(0.00214039 0.0021368 -7.05984e-21)
(0.00439524 0.00415709 0)
(0.00215402 0.00214896 -3.87704e-21)
(0.00218007 0.00215447 9.75514e-23)
(0.00221609 0.0021808 3.72517e-21)
(0.00221321 0.00220203 2.55343e-21)
(0.00189391 0.00200093 0)
(0.00217786 0.0021658 3.56207e-21)
(0.00218851 0.00219026 -1.22939e-20)
(0.00453119 0.00428081 2.52102e-20)
(0.00220926 0.00219797 2.85214e-21)
(0.00426127 0.00411244 4.59884e-22)
(0.00435889 0.00414626 -5.70217e-21)
(0.00467444 0.00489672 7.63466e-21)
(0.00260422 0.00246466 -6.60091e-21)
(0.00215161 0.00211847 -4.23883e-21)
(0.00450599 0.00428794 6.62396e-21)
(0.00219548 0.00216681 4.28444e-21)
(0.00432625 0.00415319 4.87483e-22)
(0.00218378 0.00218569 -2.44831e-23)
(0.0023428 0.00240056 -1.8785e-20)
(0.00214373 0.00213856 0)
(0.00446505 0.00428942 0)
(0.00434766 0.00414521 1.19184e-20)
(0.00222054 0.00220977 1.57002e-21)
(0.00435896 0.00414362 1.16509e-21)
(0.00214356 0.00213857 3.60535e-21)
(0.00218734 0.00219046 0)
(0.00214658 0.00214192 -8.05637e-21)
(0.0043577 0.00414541 0)
(0.00220177 0.00216832 -7.95249e-21)
(0.00465628 0.00423023 -1.44368e-20)
(0.00214497 0.00211865 4.53363e-21)
(0.00215702 0.00215543 -4.1817e-21)
(0.00213049 0.00213537 -3.67428e-21)
(0.00530071 0.00466795 1.4687e-20)
(0.0043495 0.00415018 -1.27054e-20)
(0.00450524 0.00428824 0)
(0.00501872 0.00444296 1.05113e-20)
(0.00220932 0.00217437 -3.84645e-25)
(0.00214395 0.00213884 -3.87197e-21)
(0.00216451 0.00213755 4.17583e-21)
(0.00450275 0.00429001 0)
(0.00436978 0.00416324 0)
(0.00436968 0.00415881 -4.47763e-21)
(0.00220289 0.00217522 8.55818e-21)
(0.00216123 0.00215818 -8.69121e-21)
(0.00221095 0.00220296 0)
(0.00444173 0.00420952 2.18685e-20)
(0.00216184 0.00215881 1.25619e-20)
(0.00219851 0.00219278 0)
(0.00539532 0.00474364 0)
(0.00215551 0.00215405 -7.34861e-21)
(0.00449807 0.00428 -2.19629e-21)
(0.00215694 0.00212672 3.85863e-21)
(0.00220768 0.00217042 0)
(0.00214228 0.00213841 -1.42379e-21)
(0.00213665 0.00214067 4.47847e-21)
(0.00216534 0.00215656 1.61679e-21)
(0.00436653 0.0041529 2.22464e-21)
(0.00435498 0.00414498 9.7747e-21)
(0.0021412 0.00213773 -6.8009e-21)
(0.00218211 0.00218304 -1.2029e-22)
(0.00449873 0.00428604 3.0779e-21)
(0.00215196 0.00211734 0)
(0.00215433 0.00215293 0)
(0.00449653 0.0042854 0)
(0.00127206 0.00155401 0)
(0.00446879 0.00427824 0)
(0.00218313 0.00217363 -2.526e-21)
(0.00214823 0.00212068 9.68335e-21)
(0.00210753 0.00193915 -6.73779e-21)
(0.00436244 0.0041453 3.20761e-21)
(0.00216983 0.00214484 1.97724e-20)
(0.00214131 0.00214572 -2.77721e-21)
(0.00219207 0.00221983 0)
(0.00437351 0.0041609 -2.22128e-21)
(0.00214289 0.00211339 0)
(0.00213982 0.00214935 1.03344e-22)
(0.00216554 0.00215072 -6.45249e-21)
(0.0021438 0.00214738 7.53612e-21)
(0.00219117 0.002194 2.93441e-21)
(0.00192649 0.00172729 -1.37231e-20)
(0.00218527 0.00218362 -2.41842e-23)
(0.00218851 0.00217153 -1.33324e-20)
(0.00174729 0.0015523 6.83867e-21)
(0.00215202 0.00215259 0)
(0.00216317 0.00213527 0)
(0.00213642 0.00216607 0)
(0.00117991 0.00211002 2.22635e-20)
(0.0021958 0.00216834 -7.65127e-24)
(0.00213194 0.00213643 3.99867e-21)
(0.00226141 0.00225561 -1.8739e-20)
(0.00213071 0.00213445 -2.50498e-23)
(0.00215475 0.00213003 -2.32887e-20)
(0.00221734 0.00224327 0)
(0.00436776 0.00415358 5.99417e-21)
(0.00213957 0.00214608 0)
(0.00215555 0.00212949 -1.2199e-20)
(0.0021848 0.00218044 0)
(0.00213126 0.0021334 7.36001e-21)
(0.00218421 0.0021821 2.50105e-21)
(0.00213068 0.0021331 5.10998e-21)
(0.00220208 0.00228067 4.25359e-22)
(0.00214562 0.00222555 -3.34425e-22)
(0.00221804 0.00218376 -5.89155e-21)
(0.00215027 0.00213405 -5.72899e-21)
(0.00225015 0.00245821 4.83743e-22)
(0.00220359 0.0021674 -1.15681e-20)
(0.00218484 0.0021882 3.89463e-21)
(0.00214015 0.0021152 4.7325e-21)
(0.00213367 0.00213774 0)
(0.00212843 0.00213183 4.52898e-21)
(0.00218145 0.00218535 -2.13765e-21)
(0.00212866 0.00213397 -2.19224e-21)
(0.00217121 0.00217615 -5.96213e-21)
(0.00216094 0.00213522 -1.27007e-20)
(0.00224611 0.00223288 -1.81314e-20)
(0.00226157 0.00230529 -6.13051e-21)
(0.00224174 0.00250294 4.44586e-21)
(0.00220423 0.00217444 -5.11755e-21)
(0.00216517 0.00213892 1.03214e-20)
(0.00214346 0.00210403 -1.05847e-20)
(0.00213197 0.00213693 0)
(0.00180266 0.00162414 -2.04268e-20)
(0.00433124 0.00414068 0)
(0.00218827 0.00218253 -5.69321e-21)
(0.00156921 0.00141567 -2.08907e-20)
(0.00218773 0.00218267 -3.08296e-21)
(0.00216634 0.00213915 1.22624e-20)
(0.00192894 0.00221169 2.64514e-20)
(0.00214346 0.00214835 8.80112e-21)
(0.00218566 0.00218959 0)
(0.00218658 0.00218253 -5.24243e-21)
(0.00205298 0.00192512 6.17968e-21)
(0.00221315 0.00218541 1.99348e-20)
(0.00216263 0.00213653 -1.1751e-20)
(0.00206724 0.0019493 0)
(0.00219159 0.00239748 8.88339e-22)
(0.00220258 0.00217551 1.97705e-20)
(0.00220602 0.00217756 0)
(0.00221024 0.00218234 -6.94281e-24)
(0.00189757 0.00180804 1.19834e-24)
(0.00211733 0.00210865 5.25293e-24)
(0.00222043 0.00219606 -6.12166e-21)
(0.00219989 0.00217184 -7.53145e-24)
(0.00216862 0.00216242 1.34362e-20)
(0.00199762 0.00187443 -1.48263e-20)
(0.00216524 0.00211086 -7.24684e-21)
(0.0021643 0.00215948 -6.89505e-21)
(0.00212837 0.00202293 4.07026e-24)
(0.00217273 0.00215339 -1.32529e-20)
(0.00214184 0.00214865 -3.57631e-21)
(0.00240396 0.00249836 -6.5435e-21)
(0.00436856 0.00414811 -2.3556e-21)
(0.00241443 0.00258741 -2.14649e-20)
(0.00220351 0.00224851 -5.03852e-22)
(0.0021476 0.00219431 -8.41752e-23)
(0.00217381 0.00215105 0)
(0.00218444 0.00216691 0)
(0.00214306 0.00215238 -1.59153e-21)
(0.00214369 0.00214808 -1.30229e-22)
(0.00214189 0.00214712 -1.9819e-21)
(0.00214224 0.00214728 -4.48472e-21)
(0.00214021 0.00214622 4.50582e-21)
(0.00430897 0.00413764 1.71148e-21)
(0.00218632 0.00215951 -1.39009e-20)
(3.00995e-05 2.24406e-05 -9.44883e-21)
(4.48584e-05 -1.63524e-05 4.66612e-21)
(9.14098e-05 0.000118597 1.30914e-21)
(0.000189271 -3.8107e-05 2.0408e-21)
(0.000970619 9.92557e-05 0)
(6.85575e-05 7.17105e-05 -8.43935e-22)
(0.00062525 0.000380054 3.50679e-20)
(5.93535e-05 0.000147487 0)
(0.000212732 -4.93944e-05 0)
(7.90567e-05 -1.61243e-05 -1.37019e-22)
(0.000642036 0.000114715 -1.3446e-20)
(0.00483657 0.00472529 -8.5766e-21)
(0.00483462 0.00472497 4.0561e-21)
(0.00501218 0.00489145 6.00824e-23)
(0.00435809 0.00414143 1.0409e-20)
(0.00435076 0.00413172 1.11313e-20)
(0.00485213 0.00473958 0)
(0.0050114 0.00489039 -3.89545e-21)
(0.00482896 0.00472766 -7.39817e-21)
(0.00485019 0.00474549 0)
(0.00486116 0.00474376 0)
(0.00434385 0.00414409 -9.88245e-21)
(0.00486118 0.00474455 -8.81045e-21)
(0.0043473 0.00414359 5.31502e-21)
(0.00482847 0.00472952 3.74271e-21)
(0.00501011 0.00489147 0)
(0.00486589 0.00473647 4.97171e-21)
(0.00483796 0.00472463 1.62054e-20)
(0.00486141 0.00474181 9.53014e-21)
(0.00501107 0.0048929 0)
(0.00501212 0.00489276 0)
(0.0048719 0.00473026 -1.51216e-20)
(0.00500886 0.00489077 4.47128e-21)
(0.00482661 0.00473199 0)
(0.004829 0.00472808 0)
(0.00500417 0.0048953 0)
(0.00500345 0.00489476 -5.29925e-21)
(0.0048498 0.00474596 0)
(0.00482705 0.00473047 -2.62774e-21)
(0.00484837 0.00474548 -4.88439e-21)
(0.00500576 0.00489376 3.08993e-21)
(0.00500914 0.00489144 -4.50368e-21)
(0.00500486 0.00489406 1.15869e-20)
(0.00482721 0.00472779 0)
(0.00500372 0.00489428 -5.58228e-21)
(0.00500358 0.0048949 0)
(0.00500761 0.00488787 -7.18812e-21)
(0.00482601 0.00472929 2.66227e-21)
(0.00484782 0.00474652 -6.89423e-21)
(0.00448623 0.00427851 0)
(0.00483691 0.00472467 -1.13894e-20)
(0.00486145 0.00469742 -5.61003e-21)
(0.00500279 0.00489822 -8.78367e-21)
(0.00483613 0.00472393 -1.15248e-20)
(0.00500401 0.00489612 0)
(0.00483431 0.0047252 0)
(0.00500929 0.00489128 9.41639e-21)
(0.00447968 0.00428912 1.10714e-20)
(0.00484569 0.00474881 2.25636e-21)
(0.00448305 0.00427858 -5.03101e-21)
(0.00484652 0.00475136 4.02759e-21)
(0.00500186 0.00490073 3.95593e-21)
(0.00483294 0.00472589 -6.13486e-21)
(0.00483277 0.00472672 6.43648e-21)
(0.00482403 0.00473527 4.38921e-21)
(0.00484614 0.00475139 -4.25698e-21)
(0.00500204 0.00490061 -4.14957e-21)
(0.00484142 0.00470821 0)
(0.00483294 0.00472697 6.0911e-21)
(0.00482417 0.00473421 -4.64835e-21)
(0.00500132 0.00490091 -3.58648e-21)
(0.00482765 0.004695 -1.17533e-20)
(0.00484638 0.00475152 -3.64701e-21)
(0.00475011 0.00462849 0)
(0.00479358 0.00468197 -5.93834e-21)
(0.00482631 0.00473478 -4.94481e-21)
(0.00500258 0.00489387 -1.11622e-20)
(0.0048349 0.00472154 -1.94297e-20)
(0.00476737 0.00465918 1.2065e-20)
(0.00485192 0.00468878 -6.78377e-21)
(0.00482528 0.00473476 7.54381e-21)
(0.00484589 0.00475198 0)
(0.00499989 0.00490123 0)
(0.00486854 0.00466493 1.38152e-20)
(0.0047459 0.00458967 0)
(0.00499971 0.00490111 1.54156e-21)
(0.00484611 0.00475192 1.57582e-21)
(0.00482603 0.00473467 3.04802e-21)
(0.00499836 0.00488233 0)
(0.00489551 0.00431529 -1.17689e-20)
(0.00492523 0.0046234 0)
(0.00475767 0.00453195 1.29171e-20)
(0.00499557 0.00489786 -5.80568e-21)
(0.00482537 0.00473506 3.40199e-21)
(0.0049991 0.00489689 0)
(0.00481096 0.00444236 6.54402e-21)
(0.00523243 0.00462686 1.29504e-20)
(0.00499342 0.0048964 6.08666e-21)
(0.00430888 0.00361474 1.46751e-20)
(0.00415273 0.00379105 7.50737e-21)
(0.00489136 0.0046431 -6.97773e-21)
(0.00482485 0.00473488 -6.05179e-21)
(0.00413489 0.00337728 6.86764e-21)
(0.00528477 0.0045945 0)
(0.00482906 0.00476771 1.34919e-21)
(0.00405967 0.00376322 -1.53696e-20)
(0.00498268 0.00491825 1.27877e-21)
(0.00479019 0.00477995 1.37203e-21)
(0.00481446 0.00476804 6.15223e-22)
(0.0049682 0.00491855 -5.80563e-22)
(0.00390327 0.00346602 1.41041e-20)
(0.00494354 0.00493005 0)
(0.00491096 0.00492048 6.30768e-22)
(0.00463289 0.00458059 8.06912e-21)
(0.00475835 0.00477005 1.04258e-21)
(0.00445496 0.00460211 1.64038e-20)
(0.0047401 0.00474341 2.93085e-20)
(0.000798183 0.000574446 -7.63772e-21)
(-2.63819e-05 0.0011725 2.90555e-24)
(3.53035e-05 2.81427e-05 -7.85327e-21)
(5.04223e-05 4.38683e-06 -1.84318e-21)
(6.49494e-05 0.000261345 0)
(0.000119106 -2.46399e-05 -6.394e-21)
(6.68802e-05 -3.52391e-06 2.69327e-22)
(0.000734217 0.000652555 -7.71177e-24)
(0.00216958 0.00214408 -1.46001e-20)
(0.00485971 0.00474498 4.29035e-21)
(0.00216405 0.00213538 0)
(0.00214337 0.00213997 3.04882e-21)
(0.00219298 0.00218702 6.27149e-21)
(0.002136 0.00213701 -2.68283e-21)
(0.00220787 0.00217178 1.64031e-20)
(0.00214878 0.0021522 0)
(0.00214119 0.00210803 5.55923e-21)
(0.00219199 0.002195 -3.26917e-21)
(0.0021361 0.00214173 -1.22123e-22)
(0.00222246 0.00212175 -6.78096e-21)