/*--------------------------------*- C++ -*----------------------------------*\
  =========                 |
  \\      /  F ield         | OpenFOAM: The Open Source CFD Toolbox
   \\    /   O peration     | Website:  https://openfoam.org
    \\  /    A nd           | Version:  8
     \\/     M anipulation  |
\*---------------------------------------------------------------------------*/
FoamFile
{
    version     2.0;
    format      ascii;
    class       volVectorField;
    location    "10";
    object      U;
}
// * * * * * * * * * * * * * * * * * * * * * * * * * * * * * * * * * * * * * //

dimensions      [0 1 -1 0 0 0 0];

internalField   nonuniform List<vector> 
6388
(
(0.000946744 3.40983e-05 1.05435e-21)
(0.00094138 2.64097e-05 0)
(0.000154112 -2.29674e-05 0)
(0.000879154 0.000327528 -4.24122e-22)
(0.000742727 0.00131345 2.85515e-21)
(0.000661746 0.00115305 -1.93006e-23)
(0.000444449 0.000484455 2.04207e-21)
(0.000634345 0.000778795 2.00253e-21)
(0.000351808 0.00026313 -8.75617e-22)
(0.000129818 0.000671639 0)
(0.000576744 0.00116034 0)
(9.35823e-05 0.000686349 0)
(0.000599728 0.00060245 2.3754e-25)
(0.000671283 0.00123909 2.17565e-21)
(0.000500387 0.000567383 2.98233e-21)
(0.000622374 0.000702649 0)
(0.000565657 0.000884946 2.27682e-21)
(0.00063585 0.00115434 -2.80641e-23)
(0.000292456 0.000577918 0)
(0.000146136 0.00045416 2.049e-24)
(0.000520648 0.000693604 -1.06186e-21)
(0.000670276 0.000813448 0)
(0.000664085 0.00121953 -8.9476e-22)
(0.000748431 0.00131046 8.55331e-22)
(0.000702117 0.00117742 -2.17733e-21)
(0.000218563 0.000600946 -1.83826e-22)
(0.000655599 0.000596483 0)
(0.000483873 0.000749614 5.37125e-22)
(0.000358411 0.000692925 8.93113e-22)
(0.000725797 0.000252756 -2.12033e-21)
(0.000661567 0.00119606 0)
(0.000679321 0.00122921 8.57663e-22)
(0.000679625 0.00110035 -2.30529e-21)
(0.000595408 0.00123257 1.23175e-21)
(0.00066733 0.00119796 1.57976e-21)
(0.000585322 0.00111261 0)
(0.000706973 0.00116328 5.35586e-22)
(0.000195829 0.000897178 7.31775e-22)
(0.000632993 0.000603138 5.32477e-22)
(0.000623812 0.00119516 1.21063e-21)
(0.00018455 0.000518752 2.53867e-21)
(0.000183166 0.000543792 -1.1578e-21)
(0.00093517 -1.06971e-05 -1.0429e-21)
(0.000646703 0.00121364 6.89553e-24)
(0.000604992 0.000200959 -2.52025e-21)
(0.000314254 0.000747423 -5.21864e-22)
(0.000980482 4.57398e-05 -1.05239e-21)
(0.000304848 0.000426617 4.76345e-22)
(0.000974506 0.000196312 -6.93157e-26)
(0.000902903 0.000713328 -1.16223e-21)
(0.000163081 -5.669e-05 6.07598e-22)
(0.000862669 1.46236e-05 4.20818e-21)
(0.000334308 0.000446477 -3.12369e-21)
(0.000212087 0.000512489 1.1652e-21)
(0.000155064 0.00072925 1.22725e-21)
(2.70893e-05 6.72e-05 0)
(0.000773528 0.000842665 1.77971e-21)
(0.000856928 0.000353909 0)
(5.62717e-05 0.000447747 -1.40657e-21)
(0.000348854 0.000473531 -1.77035e-21)
(0.000506188 0.000829087 8.45964e-22)
(0.000707719 0.000334435 0)
(0.0004035 0.000661493 1.82479e-24)
(0.000981125 0.000294208 3.64977e-22)
(0.000446706 0.0010962 1.83502e-21)
(3.78187e-05 1.97077e-06 1.28179e-21)
(0.00057208 0.000824682 1.23068e-21)
(0.000596071 0.000686999 9.72114e-22)
(0.000174278 0.000812682 1.51406e-22)
(3.74539e-05 -2.36595e-06 0)
(0.00143167 0.00103186 -1.25471e-21)
(0.00067643 0.00117494 -1.0305e-21)
(0.000703942 0.00107706 4.15325e-22)
(0.000524811 0.00142941 1.74527e-21)
(1.10163e-05 0.000113052 -1.76242e-22)
(0.00053108 0.000458092 2.52135e-25)
(0.000659287 0.00118638 7.07423e-24)
(0.000597053 0.000320078 -1.40192e-21)
(0.000905364 0.000312968 8.82485e-22)
(0.000681845 0.0011754 -6.80025e-22)
(0.00028406 0.000696551 2.78039e-22)
(0.000582862 0.00139615 -1.35238e-23)
(0.000437725 0.00114376 0)
(0.000428631 0.00112814 -1.34894e-23)
(0.000416269 0.00110335 0)
(0.000508731 0.00127377 -1.39203e-23)
(0.000673215 0.00131044 -1.32581e-21)
(0.000645918 0.00150241 1.40861e-23)
(0.000451805 0.00117572 -1.03221e-24)
(0.000476262 0.00121306 -1.08623e-23)
(0.000546453 0.00133572 -1.11851e-23)
(0.000407082 0.00108612 -1.03725e-23)
(3.69819e-05 1.57603e-06 -3.829e-21)
(0.000948906 0.00015099 1.30505e-21)
(0.000564597 0.000677682 0)
(0.000911041 0.000186972 0)
(3.86991e-05 7.62658e-07 -2.60088e-21)
(0.000760558 0.00137262 6.30671e-22)
(0.000967807 0.000265659 -2.13001e-21)
(0.00115653 0.000527868 -1.36796e-21)
(0.000314091 0.000609628 -1.56876e-21)
(0.000406477 0.00131617 -9.64719e-24)
(0.000635779 0.00082886 0)
(0.000170122 0.000689163 2.49718e-21)
(0.00016088 0.000680574 -1.83156e-21)
(0.000467293 0.000770597 2.30839e-21)
(0.000312676 0.000322578 -2.20165e-21)
(0.000495216 0.000916767 0)
(0.000400309 0.000678614 1.5011e-21)
(0.000200886 4.57753e-06 -2.48372e-21)
(0.000382305 0.000516728 -1.35287e-21)
(0.000677531 0.00114047 -1.13955e-21)
(0.000482622 0.000969542 0)
(3.05376e-05 0.000451498 2.66548e-22)
(0.000979402 8.66725e-05 5.48958e-22)
(0.000982605 0.000103216 -1.87258e-21)
(0.00075999 0.00122424 0)
(0.000964134 0.00010771 -4.52349e-22)
(0.000665921 0.000593274 1.34963e-22)
(8.16186e-06 0.000145149 0)
(0.000749424 0.00131523 0)
(0.000186667 -0.000140862 0)
(0.000463415 0.00066302 -1.69245e-22)
(0.000327765 0.000267038 -3.47746e-22)
(0.000686849 0.0011813 -3.54168e-22)
(0.000965667 0.000225062 1.36875e-21)
(0.000411761 0.000282521 -2.61122e-21)
(0.000523527 0.000589569 -2.0186e-21)
(3.21502e-05 0.000206056 -4.01019e-22)
(0.00016332 0.000573907 -1.51162e-21)
(0.00062863 0.00114219 8.68792e-22)
(0.000447353 0.000773236 1.41848e-21)
(0.000294765 0.000303866 -1.14527e-21)
(0.000921974 0.000178196 0)
(2.0689e-05 7.06746e-06 2.3549e-21)
(0.000833319 0.00130005 -7.60305e-22)
(0.000824372 0.00132756 1.14017e-21)
(0.000542577 0.0014486 1.08019e-21)
(0.000623437 0.000293642 -1.56934e-21)
(0.000296341 0.00069397 0)
(0.00068809 0.00128825 3.00555e-22)
(0.000881486 3.29288e-05 -1.25313e-23)
(0.000446917 0.000665948 3.16092e-23)
(0.000729093 0.00022752 1.86292e-21)
(0.000127607 0.000165427 1.01028e-21)
(0.000854077 0.000903117 0)
(0.000282405 0.000362844 1.2095e-21)
(3.52878e-05 -2.75998e-06 2.38297e-21)
(0.000812406 0.000724754 2.22896e-23)
(0.000877835 -3.11197e-06 0)
(0.000426482 0.000775701 -2.72476e-21)
(0.000961714 0.000262926 1.74455e-21)
(0.000297841 0.000709368 -1.45738e-21)
(0.00066215 0.00108314 5.46374e-22)
(0.000161614 0.000711102 2.31645e-22)
(0.00055667 0.000553169 0)
(-3.8136e-06 0.000670208 -1.11892e-22)
(0.000171226 -1.89557e-06 9.06914e-22)
(0.000736416 0.00127989 -6.90232e-22)
(0.000831898 0.00118735 2.00157e-21)
(0.000635467 0.000163014 -1.8169e-21)
(0.000972509 0.000106339 -1.64786e-21)
(0.000664183 0.00117385 -2.02474e-21)
(0.000375698 0.000906649 1.74311e-21)
(3.87525e-05 -1.09164e-06 -1.35563e-21)
(0.000572464 0.00109397 0)
(0.000633163 0.00113372 -1.11921e-21)
(0.000643935 0.00114014 8.25001e-24)
(0.000619619 0.00111037 -3.3373e-21)
(0.000129208 -0.000314549 1.68042e-21)
(0.000672645 0.00122127 1.75651e-21)
(0.000426283 0.000766652 -1.03244e-21)
(0.000637911 0.000837419 4.51911e-21)
(3.36836e-05 -3.46864e-06 0)
(0.00136136 0.000157565 9.16189e-22)
(0.00067862 0.00120717 3.90033e-21)
(0.000420029 0.000296436 -5.19263e-22)
(0.000116816 -0.000428876 8.17804e-22)
(0.000978489 4.37123e-05 -2.55033e-21)
(0.000433383 0.000776702 0)
(0.00132781 0.000783875 3.47902e-22)
(0.000276756 0.00082299 0)
(0.000675834 0.0012185 -8.82581e-22)
(0.000718105 0.00126084 6.11088e-22)
(0.00070023 0.000865096 -1.29569e-21)
(0.000674137 0.0014405 -2.5494e-21)
(0.000301709 -0.000118837 3.08333e-21)
(0.000737383 0.00128374 2.15218e-21)
(0.000835282 0.000988767 -1.34535e-22)
(0.000630218 0.00111397 -1.01562e-23)
(0.000642949 0.00113737 -4.55148e-21)
(0.000432688 0.000859738 -2.09252e-24)
(0.000675945 0.00116188 7.42969e-22)
(0.000865628 4.73822e-05 0)
(0.000588057 0.000837717 -2.55643e-21)
(0.00028358 -0.000185623 1.88924e-21)
(3.99544e-05 -2.01988e-06 0)
(0.000230442 -0.000159399 1.10204e-21)
(0.000671689 0.00122104 -2.61361e-21)
(0.000711766 0.00125161 9.17365e-22)
(0.00062209 0.00105141 1.48187e-21)
(0.000570538 0.00101585 7.76264e-22)
(2.73276e-05 -4.83369e-06 4.74223e-21)
(0.000616375 0.00109007 1.43963e-21)
(0.000639022 0.00112354 -6.03254e-24)
(0.000629786 0.00111297 0)
(0.000733285 0.00129395 -8.05805e-22)
(0.000719967 0.00128697 -9.39059e-22)
(0.000118367 -5.83251e-05 6.70952e-26)
(0.000606897 0.000530604 9.34584e-22)
(0.000723768 0.0012652 0)
(0.000746888 0.00133286 7.27446e-22)
(0.000580654 0.000990396 0)
(0.000576878 0.00107804 1.22107e-21)
(0.000688071 0.00121738 -1.27953e-21)
(0.000601817 0.00108978 0)
(0.000609325 0.00110286 6.32085e-22)
(0.000589328 0.00106739 6.28599e-22)
(0.000753552 0.00132192 -7.19844e-22)
(0.000568647 0.00108398 -1.80824e-21)
(0.000760015 0.00133954 -7.95975e-22)
(0.000587693 0.000279194 0)
(0.000804414 0.00142287 -7.4175e-22)
(0.000731151 0.00115829 -1.75857e-21)
(0.000131629 -6.73258e-05 -1.40863e-21)
(0.000644401 0.00103053 -3.14789e-23)
(0.000726282 0.00128159 9.96052e-22)
(0.00068934 0.00121773 6.73431e-22)
(0.000606153 0.00108873 0)
(0.000613964 0.00110171 -6.45786e-22)
(0.000593271 0.00106642 -6.42172e-22)
(0.000446436 0.000922052 -1.0255e-21)
(0.000733359 0.00130295 1.42529e-21)
(0.000291885 0.000373503 -6.72449e-22)
(0.000435975 0.000769482 2.10079e-21)
(0.000771116 0.00134013 -1.3629e-21)
(0.000489459 0.00105079 4.89266e-21)
(0.000831309 0.00146005 1.10356e-21)
(0.000676524 0.00117585 -9.18516e-22)
(0.00070647 0.00123711 -2.0205e-21)
(0.000615128 0.00108227 0)
(0.000621988 0.00109514 0)
(0.000602646 0.00105982 0)
(0.000635002 0.00128841 1.13427e-21)
(0.000627474 0.00111443 1.32768e-23)
(0.000634545 0.00112749 1.3012e-23)
(0.00061459 0.00109151 1.30745e-23)
(0.000710493 0.00127009 1.27298e-21)
(0.000767602 0.00138842 3.77912e-22)
(0.00067508 0.00119205 0)
(6.33757e-06 -5.5631e-05 0)
(0.000802302 0.00139279 -3.05811e-22)
(0.000730452 0.00127826 0)
(0.000598438 0.00107249 5.6854e-24)
(0.000605525 0.00108355 -9.39529e-22)
(0.00058592 0.0010505 -9.13117e-22)
(0.000677907 0.00122696 -8.43872e-22)
(0.00068046 0.00122626 -2.07704e-24)
(0.000826656 0.00144973 6.03217e-22)
(0.000688 0.00105483 -1.53451e-21)
(0.000685912 0.0012154 1.66823e-23)
(0.000665467 0.00103689 2.22624e-21)
(0.000679053 0.0010589 7.68113e-22)
(0.000754183 0.00137041 8.92627e-22)
(0.000686713 0.00121649 -5.86062e-22)
(0.000585651 0.0010577 8.72178e-22)
(0.000604606 0.00109205 -1.70848e-21)
(0.000597993 0.00107989 8.86777e-22)
(0.000609645 0.0010898 -1.78077e-21)
(0.00061715 0.00110298 -5.86386e-22)
(0.000597139 0.00106732 -5.82952e-22)
(0.000743596 0.00132674 -5.51276e-22)
(0.000630016 0.00110848 -6.83852e-22)
(0.000853714 0.00143201 -3.45223e-22)
(0.000354422 0.000752195 -8.29413e-22)
(0.00066207 0.00116404 6.08271e-22)
(0.000214971 -0.000120311 0)
(0.000594245 0.00107557 0)
(0.000650858 0.00116416 5.62497e-22)
(0.000589009 0.00105141 -4.80138e-24)
(0.00077599 0.00137722 1.43307e-23)
(0.000709299 0.00125052 0)
(0.000675415 0.00120344 -5.94305e-22)
(0.000888524 0.000688139 1.90023e-21)
(0.00059243 0.0010879 1.13897e-21)
(0.000921547 0.000466788 1.2503e-21)
(0.000637056 0.00113297 7.24789e-22)
(0.000728562 0.00126234 8.64294e-24)
(0.000397546 0.000644152 2.32994e-21)
(0.000755371 0.00136915 -2.45803e-22)
(0.000789512 0.00138322 -6.66909e-22)
(0.000406963 0.000751699 -3.75717e-22)
(0.000737999 0.00126999 -1.3067e-21)
(0.00036771 0.000536931 1.28991e-21)
(0.000667018 0.00117831 7.57263e-22)
(0.000734289 0.00128215 1.43688e-21)
(2.56816e-05 -6.63789e-07 0)
(0.000578042 0.00103998 9.8938e-22)
(0.000628098 0.00105696 9.21646e-22)
(0.000842583 0.000729374 -2.94595e-23)
(0.000721696 0.00139653 -9.72916e-22)
(0.000623589 0.00108781 -2.04835e-21)
(6.99563e-06 1.23495e-05 -4.05848e-21)
(0.000783661 0.00137141 5.97911e-22)
(0.000679804 0.00119599 8.15694e-22)
(0.000677995 0.0012098 1.31132e-21)
(0.000651105 0.000993867 -7.55355e-22)
(0.000671674 0.00102705 -7.59866e-22)
(0.000664266 0.00101491 -7.67999e-22)
(0.000814265 0.00144037 -3.76496e-22)
(2.19631e-05 5.27978e-05 -1.54428e-21)
(0.000633144 0.00110903 -1.07261e-21)
(0.000153804 0.000201803 3.06355e-22)
(0.000548542 0.00107209 -1.28036e-21)
(0.000347057 0.000581139 2.9264e-21)
(0.000512846 0.000154947 -4.52521e-21)
(0.000792028 0.00141661 9.36372e-22)
(0.000819833 0.00142253 0)
(0.000351839 0.000517065 -4.23403e-22)
(0.000663313 0.00116793 -1.46937e-21)
(0.000665665 0.0011132 1.8697e-21)
(0.000285785 0.00032975 6.13699e-22)
(0.000875259 0.00138056 -6.42371e-22)
(0.000622302 0.00105352 8.14622e-22)
(0.00081904 0.00145686 2.23606e-21)
(0.000382339 0.0006951 8.60709e-25)
(0.000524553 0.000810888 -1.16482e-21)
(0.000645068 0.00110932 -1.96813e-21)
(0.000723649 0.00128804 -5.01418e-24)
(0.000591906 0.00105036 0)
(0.000654613 0.00122365 -3.0312e-23)
(0.000564143 0.00106911 1.23618e-22)
(0.000577147 0.00109181 1.25676e-22)
(0.000585389 0.00110558 1.24249e-22)
(0.00072083 0.00133469 1.18211e-22)
(0.000806478 0.00125573 -5.52264e-22)
(0.000636285 0.0011291 4.7062e-24)
(0.00063496 0.00110691 0)
(0.000621298 0.00108268 -1.89039e-21)
(0.000560299 0.00103448 0)
(3.32682e-05 0.000708256 7.95402e-22)
(0.000686119 0.00121773 6.20746e-22)
(0.000594559 0.00105141 -5.47193e-22)
(0.000550655 0.000386352 -7.59471e-22)
(0.000704741 0.00127549 5.57666e-22)
(0.000634782 0.00113213 7.48624e-22)
(0.000336304 0.000487032 -1.59467e-21)
(0.000659909 0.00116814 -5.7109e-22)
(0.0006857 0.00121037 -1.44828e-21)
(0.000598058 0.00105086 2.88942e-21)
(0.000618816 0.00108539 2.90531e-21)
(0.000611018 0.00107277 1.16157e-21)
(0.000617137 0.00109205 -9.75897e-22)
(0.000631072 0.00111633 0)
(0.000710872 0.00127141 -1.72531e-21)
(0.000769552 0.00136559 8.65352e-22)
(0.000650453 0.00106977 -6.08109e-22)
(0.000757168 0.00134696 6.26784e-24)
(0.000562117 0.00107027 2.11282e-21)
(0.000687286 0.00119928 8.54721e-22)
(0.000602893 0.00109501 0)
(0.000622788 0.0011312 0)
(0.000615739 0.001118 0)
(0.000483602 0.000840628 -9.85796e-22)
(0.000452125 0.000788539 -2.36609e-21)
(0.000800622 0.00127925 -3.98518e-22)
(0.000749591 0.00131834 4.64173e-22)
(0.000687366 0.00121712 6.54194e-22)
(0.000635023 0.000815052 -4.1527e-21)
(0.000587991 0.00106621 4.73672e-24)
(0.000608169 0.00110159 4.76718e-24)
(0.000600584 0.00108856 0)
(0.000783635 0.00140963 4.94323e-22)
(0.000691829 0.00119369 3.38288e-22)
(0.000618243 0.00109249 -9.46237e-22)
(0.00078435 0.00140091 -1.53606e-21)
(0.000632358 0.00147228 8.45075e-22)
(0.000779947 0.00138093 0)
(0.000621935 0.000984028 0)
(0.000637042 0.00113643 0)
(0.000478194 0.000787829 8.33845e-22)
(6.5859e-06 -1.65717e-05 -9.83138e-22)
(0.000612866 0.00109376 -5.32012e-22)
(0.000620483 0.001107 0)
(0.000600215 0.00107119 0)
(0.000520842 0.000850102 0)
(0.000538348 0.000816247 -9.93352e-22)
(0.000663126 0.00116354 7.29391e-22)
(0.00057237 0.00103945 -1.19865e-21)
(0.000443611 0.00032139 1.25761e-21)
(0.000770251 0.00134009 1.26543e-21)
(0.000597027 0.00106422 -1.39834e-21)
(0.000646744 0.00113334 0)
(0.000591317 0.00106323 -5.91022e-22)
(7.60367e-06 -3.01708e-05 -7.98588e-22)
(0.000819343 0.00145684 0)
(0.000637362 0.00113424 -1.33766e-21)
(0.000726903 0.00127585 3.17443e-21)
(0.000675488 0.00117963 -5.8856e-22)
(0.000655181 0.00116169 -7.70436e-22)
(0.000340516 0.000694293 1.09167e-21)
(0.000385971 0.000536676 -1.74549e-21)
(0.000655323 0.000850938 -2.38724e-21)
(0.000804939 0.000297918 0)
(0.000763283 0.00118464 0)
(0.00066393 0.00116859 -7.37608e-22)
(0.000741808 0.00130028 -1.2896e-21)
(0.000572966 0.000585442 4.27775e-21)
(0.000783035 -1.56277e-05 1.1181e-24)
(0.000685262 0.00121329 5.03252e-22)
(7.31235e-05 0.000703893 1.08662e-21)
(1.84838e-05 -6.69891e-06 -4.85017e-21)
(0.000812547 -3.7648e-05 -1.07737e-21)
(0.000617207 0.00107272 5.25168e-22)
(0.000597187 0.00103785 5.22194e-22)
(0.000609768 0.00105983 5.30877e-22)
(0.000467738 0.00123843 0)
(0.000430023 0.000276226 3.86612e-22)
(0.000586765 0.000245751 -1.28152e-21)
(0.000849292 0.00129824 -3.02793e-22)
(0.000282129 0.000562974 2.81773e-21)
(2.04872e-05 -2.72048e-06 1.84551e-21)
(0.00059414 0.00105093 -5.96418e-22)
(0.00058127 0.00104751 6.94925e-22)
(0.000917988 0.000183233 0)
(0.000601044 0.00107599 -8.28761e-22)
(0.000649325 0.00115775 -4.21442e-22)
(0.000673497 0.00159864 6.55025e-22)
(0.000267945 0.000310118 5.61924e-22)
(0.000725908 0.00126811 0)
(2.8853e-05 -2.49712e-06 3.74905e-26)
(0.000734661 0.00131168 3.74537e-22)
(0.000693833 0.00142305 -5.65233e-22)
(0.000625785 0.00109321 6.09524e-24)
(0.000557151 0.000880729 1.19612e-22)
(0.000672431 0.00119925 -8.33749e-22)
(0.000937348 0.000173793 0)
(0.000592092 0.00105264 -2.10763e-23)
(0.000753591 0.0013342 4.27594e-22)
(0.000658897 0.00115988 1.38923e-21)
(0.000591793 0.00106603 6.34663e-24)
(0.000611559 0.00110163 6.36677e-24)
(0.000604156 0.00108849 6.0576e-22)
(0.000606945 0.00115806 -1.02819e-21)
(0.000751437 0.00130708 9.81525e-22)
(0.000824376 0.00145006 -2.19986e-21)
(0.000743406 0.0013123 -5.40847e-22)
(0.000684446 0.00121423 -1.00548e-21)
(0.000741491 0.000698175 4.26566e-22)
(0.000810475 0.0014517 4.15297e-22)
(0.000670742 0.000852723 -1.24449e-21)
(0.000613067 0.0010746 1.06438e-21)
(0.000702887 0.00126765 2.56281e-23)
(0.000796443 0.00141316 -1.91556e-21)
(0.000652012 0.00139259 -7.69937e-22)
(0.000685283 0.00121578 5.87813e-22)
(0.00027491 0.000394252 -1.64834e-21)
(0.000459074 0.000556691 2.04555e-21)
(0.000623481 0.00108412 -5.9189e-22)
(0.000597845 0.00106656 0)
(0.000617972 0.00110214 0)
(0.000610413 0.00108901 0)
(0.00073043 0.00132144 0)
(0.000652486 0.00113369 0)
(0.00061865 0.0010847 1.22636e-21)
(0.000639517 0.00112128 1.23343e-21)
(0.000631667 0.00110767 1.24678e-21)
(0.000636199 0.00113232 5.595e-22)
(0.000539921 0.000348157 3.07521e-21)
(0.000713859 0.00124067 -2.39016e-23)
(0.000806962 0.00143372 0)
(2.48454e-05 -2.94231e-06 -1.80446e-21)
(0.000657771 0.00117071 5.29498e-22)
(0.000223439 0.000501238 2.85776e-21)
(0.000684541 0.00121468 -1.09549e-21)
(0.000768963 0.00140794 9.54824e-22)
(0.0005933 0.00100836 -1.0627e-21)
(0.000970617 0.000101763 1.4261e-21)
(0.00070692 0.00127917 1.58249e-21)
(0.00068658 0.00124945 0)
(0.000724237 0.00127488 -3.4241e-21)
(0.000713159 0.00125058 5.17465e-22)
(0.000637601 0.00113112 5.08689e-22)
(0.000633702 0.00112182 -6.03484e-22)
(0.000589677 0.00105009 0)
(0.000660966 0.00116553 -1.78172e-21)
(0.000659035 0.00116986 -5.20275e-22)
(3.75951e-05 -6.88292e-07 0)
(0.000578744 0.00100589 -1.40887e-21)
(0.000715591 0.00127815 4.85502e-22)
(3.73197e-05 3.94105e-05 2.19161e-21)
(0.000587889 0.00104531 0)
(0.000650723 0.00113854 4.21543e-22)
(0.000785755 0.00141037 -5.01034e-22)
(0.000784539 0.000722773 -3.57083e-22)
(0.000676589 0.00118529 -8.15382e-22)
(0.000783029 0.00133636 -6.78091e-22)
(0.000776197 0.00134321 -5.25536e-22)
(0.000704074 0.00127183 0)
(0.000729649 0.00128179 -1.82016e-23)
(0.000510792 0.000775485 -1.1557e-21)
(0.00115761 6.95905e-05 -1.83272e-21)
(2.91591e-05 3.66632e-05 2.06322e-21)
(0.00059149 0.0010497 9.35217e-24)
(0.000911414 0.0010454 6.44956e-21)
(0.000784392 0.00140374 4.99315e-22)
(0.00074001 0.00129729 -4.27086e-22)
(3.84662e-05 -1.88141e-07 3.08103e-21)
(0.000565269 0.00133133 0)
(0.000774459 0.000514499 3.09503e-21)
(0.000779983 0.00139961 0)
(0.000505159 0.00125657 2.4361e-22)
(0.000594327 0.00103822 9.27012e-22)
(0.000803741 2.12337e-05 -1.02062e-21)
(0.000703854 0.000948803 -4.03884e-22)
(0.000613325 0.00106988 1.03904e-21)
(0.000841958 0.000655945 -7.10975e-22)
(0.000631924 0.000862535 -1.21054e-21)
(0.000800349 0.00140637 4.21375e-22)
(0.00087885 0.00155882 0)
(0.000582423 0.00102454 9.98761e-22)
(0.000762564 0.00130989 -7.19202e-24)
(0.000505266 0.00120408 -2.17531e-21)
(0.000494346 0.000847212 -8.57151e-22)
(0.000127041 0.000135108 -1.87822e-21)
(0.00069965 0.00117 7.01972e-22)
(0.000987678 0.000277977 4.39521e-22)
(0.000595686 0.000745951 8.1619e-22)
(0.000712727 0.00070147 -1.47879e-21)
(0.000715591 0.00144994 6.9981e-22)
(0.000442518 0.000285036 -6.57203e-26)
(0.00079371 0.00140177 -9.25696e-22)
(0.00059772 0.000813957 1.25018e-21)
(0.000759476 0.00130647 7.97534e-22)
(0.000434974 0.000763871 -9.99593e-22)
(4.07825e-05 -5.41246e-07 1.11632e-21)
(0.000302432 0.000349976 1.39051e-21)
(0.00054481 0.00104038 0)
(0.000343827 -0.00016536 -2.7384e-21)
(0.000768764 0.00079834 -2.96054e-21)
(0.000307057 0.000523466 0)
(0.000708771 -8.48581e-06 1.58284e-24)
(0.000269585 -0.000134275 -4.51008e-21)
(2.88186e-05 4.20896e-05 -1.97259e-21)
(0.000839384 0.000243345 -1.58112e-21)
(0.000411431 0.000497498 1.01714e-21)
(0.000812604 -4.99999e-08 -1.98384e-21)
(0.000962312 0.000798291 1.34454e-21)
(0.000276845 0.000866526 8.30771e-22)
(0.00045315 0.000185144 -2.73261e-22)
(0.000157299 0.000427876 0)
(0.000679767 0.000679607 -2.38753e-24)
(0.00057362 0.000839754 2.40836e-23)
(0.000483 0.000194629 9.02501e-22)
(0.000590521 0.000961362 -2.21812e-22)
(0.000394855 0.000497667 -1.00946e-21)
(0.00012262 0.000147549 1.51788e-21)
(0.0006081 0.00130636 -1.38054e-21)
(0.000401258 0.000247034 0)
(0.000635587 0.000536146 0)
(2.76059e-05 0.000671122 3.55436e-22)
(0.000487682 0.000839835 -1.43554e-21)
(0.000367601 0.000492778 -8.59844e-22)
(0.000959429 0.000311365 1.73663e-21)
(0.00104971 0.00127789 5.67379e-22)
(0.000703034 0.0013456 -7.05795e-22)
(0.000327997 0.000230435 -1.49373e-21)
(0.000556872 0.000796191 0)
(0.000733379 -4.69251e-05 3.52582e-21)
(0.000746909 0.00129176 -1.50899e-21)
(0.000761206 0.00134436 5.83005e-23)
(0.000386173 0.000303687 0)
(0.000397879 0.000522379 9.63645e-22)
(0.000659431 0.000306551 -2.18408e-25)
(0.000649263 0.00138082 1.86964e-21)
(0.000970317 0.000124743 1.69563e-21)
(0.000748143 0.00129143 0)
(0.000801515 0.00138319 1.9488e-23)
(0.000735116 0.00126829 -4.3394e-24)
(0.000642245 0.00110837 2.07954e-23)
(0.00066418 0.00114619 -4.75331e-23)
(0.000655938 0.00113185 2.11276e-23)
(0.000596989 0.00105571 -4.06706e-22)
(0.000617079 0.00109081 -4.08924e-22)
(0.000609559 0.0010779 -7.47968e-24)
(0.000375596 0.00077888 7.51427e-22)
(0.000721455 0.001341 1.83255e-21)
(0.000495799 0.000985992 -1.28318e-23)
(0.000364602 0.000662012 1.46045e-21)
(0.000349895 0.000539205 4.47204e-22)
(0.000463715 0.000891319 0)
(0.000463524 0.000345728 1.35147e-21)
(0.00077716 0.00135301 -1.24799e-21)
(0.000391641 -5.61836e-05 1.07966e-25)
(0.000501305 0.000135671 0)
(0.00097895 6.5e-05 2.10792e-21)
(0.000765057 0.00131444 0)
(0.000560779 0.00108501 -2.06868e-21)
(0.00091558 0.000186448 0)
(0.000649878 0.00131765 -8.68822e-22)
(0.00075781 1.59378e-05 -9.77848e-22)
(0.0010562 0.000689102 1.78689e-21)
(0.000531893 0.000130456 6.02701e-24)
(1.57296e-05 6.99662e-06 -1.89439e-21)
(0.000763472 0.000430481 1.69533e-21)
(0.000426349 0.000235976 0)
(0.000178618 -2.37711e-05 -2.49463e-21)
(0.000518608 0.00083879 2.56019e-22)
(0.00024835 0.000757447 0)
(4.09475e-05 8.03476e-07 -1.07946e-21)
(0.000463924 0.000641811 7.56406e-23)
(0.000963718 0.000536007 1.03819e-21)
(0.000721915 0.000216485 1.96965e-21)
(0.00049159 0.000606635 2.87648e-21)
(0.000862114 0.00158212 9.57986e-22)
(2.31025e-05 -6.0793e-06 1.9905e-21)
(0.000700476 0.00123129 8.92245e-22)
(0.000462356 0.000793425 0)
(4.5318e-05 0.000277374 -8.81094e-22)
(0.000625806 0.00111494 -8.71929e-22)
(0.000681747 0.00138193 -5.34822e-23)
(0.000655859 0.0013411 1.26245e-23)
(0.000753615 0.00150717 -5.17913e-23)
(0.000608021 0.00125233 -3.64157e-23)
(0.000786539 0.000913372 -4.88562e-21)
(0.000847685 0.00167005 0)
(0.00123893 0.000761182 5.56977e-22)
(0.00093729 0.000568661 9.1754e-22)
(0.000550808 0.000960014 0)
(3.9932e-05 1.92482e-06 -3.22586e-21)
(0.00063231 0.00125316 0)
(0.000506354 0.000671378 5.30228e-22)
(0.000929228 0.000517734 4.91292e-22)
(0.000652218 0.001152 4.50693e-24)
(0.000746258 0.00132318 -2.7185e-21)
(0.000474468 0.000315837 0)
(0.000895705 0.00157051 -1.57356e-21)
(3.95856e-05 4.14414e-05 0)
(3.20947e-05 4.29826e-06 1.38324e-21)
(0.000592037 0.00104812 0)
(0.000773728 0.00127299 -9.19754e-22)
(0.00108951 0.000857225 -1.08853e-21)
(0.00113808 0.000905339 9.69434e-22)
(0.000761471 0.00132247 -2.09797e-21)
(0.000509058 0.00106483 -4.02427e-23)
(0.000644187 0.00130054 -4.15818e-23)
(0.000554709 0.00115326 5.39049e-23)
(0.000576789 0.00118401 -4.12402e-23)
(0.000738436 0.00146573 -4.88913e-23)
(0.00104365 0.000937124 2.11789e-21)
(0.000777128 0.00130937 0)
(0.000197085 0.000496243 0)
(0.000261867 0.00119029 1.2339e-21)
(0.000262707 0.000535767 -3.18413e-21)
(4.10509e-05 -7.06754e-05 0)
(0.000332531 0.000484034 0)
(0.000802499 0.00137467 -7.89239e-22)
(0.000818383 0.00143013 3.41891e-22)
(0.000822187 0.00137831 -1.0774e-21)
(0.000636896 0.00113246 -6.50847e-22)
(0.000422357 0.000899969 -6.41719e-24)
(0.000742305 0.00128632 7.29111e-24)
(0.000629468 0.000226892 -3.37753e-21)
(0.000868613 2.33849e-05 0)
(0.000763075 4.17674e-05 2.8334e-21)
(0.00011811 0.000337639 -9.15169e-22)
(0.000761672 0.00131751 3.32935e-22)
(0.000724172 7.8165e-05 0)
(0.000189893 1.25356e-05 1.14546e-21)
(0.000302471 0.000452882 -1.73093e-24)
(0.000745892 0.00128667 -3.58773e-22)
(0.000861536 -1.9371e-05 0)
(0.000437684 0.000403801 -2.9635e-21)
(0.000672204 0.00135883 0)
(0.000603236 0.00124197 0)
(0.000533829 0.00111829 0)
(0.000512557 0.00108008 0)
(0.000525317 0.00110367 0)
(0.000742305 0.000332818 6.72139e-22)
(8.73012e-05 0.000213994 -2.12187e-21)
(0.000299543 0.000269584 2.44063e-21)
(0.000775979 0.00156259 -4.52944e-23)
(0.000608068 0.00126905 -8.57793e-23)
(0.00062183 0.00129451 -8.69886e-23)
(0.000630789 0.00130982 -8.54219e-23)
(0.000704466 0.00144092 -8.4335e-23)
(0.00079899 0.00135645 2.8522e-21)
(0.000790328 0.00137031 0)
(0.00080287 0.00076323 1.5707e-21)
(0.000632181 0.00112479 9.2855e-22)
(0.000352035 0.000453917 1.51175e-21)
(0.000902716 0.000277833 1.13805e-21)
(0.000580367 0.00104092 9.2387e-22)
(0.000450181 0.000501853 -5.95487e-22)
(0.000351617 0.000574135 1.09654e-21)
(0.000747735 0.00129115 0)
(0.00100088 0.000834345 -1.81829e-21)
(0.000489266 0.00093119 -5.91864e-22)
(0.000435141 0.000823796 4.46639e-22)
(9.12672e-05 0.000542179 -8.65818e-22)
(0.000751962 0.00130049 6.61843e-22)
(0.000753301 0.000420922 -1.79927e-21)
(3.90037e-05 -6.41438e-08 1.31698e-21)
(0.00106058 2.83166e-05 0)
(0.000246733 0.000554728 2.0312e-24)
(0.000333597 0.000472865 9.08993e-22)
(0.000767108 0.000749626 -2.5578e-22)
(0.00159085 0.000427242 6.36406e-22)
(0.000143418 0.000748771 7.44928e-22)
(0.000473645 -6.9502e-05 0)
(0.000726678 0.000268485 0)
(6.87868e-05 -0.000109387 -3.69856e-22)
(0.000999884 0.000151056 1.89412e-21)
(3.82274e-05 3.77015e-06 5.73241e-26)
(0.000487369 0.00037058 -3.45759e-25)
(0.000885271 0.00154444 -6.1776e-22)
(0.000632807 0.00109742 3.03512e-21)
(0.000716537 0.00127048 0)
(0.000343328 0.000575034 0)
(0.000493261 0.000765714 -2.15244e-21)
(0.000553415 -0.000193778 2.22001e-21)
(0.000675459 0.0011969 -7.02073e-22)
(0.000736716 0.000721319 -5.01256e-22)
(0.000354199 0.0005791 1.06572e-21)
(0.00115802 5.45618e-05 -3.19951e-21)
(0.000792032 0.000787277 -1.67966e-24)
(3.77707e-05 -3.66095e-06 -1.31209e-21)
(0.00033257 0.000610975 2.24383e-21)
(0.000635975 0.00111313 2.11677e-21)
(0.000920625 0.000189247 8.02634e-22)
(0.000888773 0.000295319 -1.04744e-21)
(0.000562207 0.000257685 2.75182e-21)
(0.000813524 0.00136623 2.95238e-22)
(0.000378812 0.000636702 0)
(0.000845886 0.000692415 -8.28294e-22)
(0.000726778 0.00129028 -2.99344e-21)
(0.000588578 0.00103543 -1.29429e-23)
(2.38474e-06 1.6595e-05 -1.39667e-21)
(0.000168997 0.000236891 -1.1684e-21)
(0.000525332 0.000708484 -5.8541e-21)
(1.04945e-05 7.83268e-06 0)
(0.00068612 0.00121426 4.63551e-22)
(0.000366548 0.000467933 1.64976e-21)
(0.000674935 0.00116223 2.10105e-21)
(0.00063095 0.00113289 -8.1068e-22)
(0.000990602 0.000761668 -4.42186e-21)
(0.000212858 -2.61019e-05 1.95458e-25)
(0.000939833 0.000848612 7.39691e-24)
(0.000555278 0.000459401 -2.07856e-22)
(0.000758313 0.0013353 1.449e-22)
(0.000807994 0.00142259 1.70084e-23)
(-9.91028e-05 0.001125 -1.19905e-21)
(0.000892137 0.00159892 -8.87035e-22)
(0.000702724 0.00119443 -9.86204e-22)
(0.000509192 0.000881935 2.20929e-21)
(0.000740333 0.00128962 -3.39861e-22)
(0.000374747 0.000641106 0)
(0.000378589 0.000281676 -1.20291e-21)
(0.00149774 0.00116242 -7.6099e-22)
(0.000333619 0.00052535 0)
(0.000950856 0.000292558 0)
(0.000820014 0.000508272 4.11147e-21)
(1.35996e-05 -2.54192e-05 3.97968e-21)
(0.000745633 0.0012829 0)
(0.000697325 0.000585884 4.19831e-22)
(0.00066432 0.00111724 7.67856e-22)
(0.000676055 0.00112848 3.84846e-22)
(0.00065072 0.00109424 0)
(0.000805292 0.00146875 -6.38463e-23)
(0.000501659 0.000101618 -1.28272e-21)
(0.000151179 1.21663e-05 2.75039e-22)
(0.000718774 0.000576815 -1.64073e-21)
(1.55949e-05 -3.19017e-06 -4.00649e-21)
(0.000625425 0.00106154 -1.16145e-21)
(0.000564338 0.00107161 1.97931e-23)
(0.000696304 0.00129867 -5.98578e-23)
(0.000621569 0.00116655 2.99647e-23)
(0.000630356 0.00118676 -6.05101e-23)
(0.000891635 0.0015204 3.50054e-21)
(0.00123308 0.00133174 8.28326e-24)
(0.000718351 0.000664475 -1.11202e-24)
(0.000287796 0.000581988 -5.52989e-21)
(0.00053329 0.000412325 -6.22012e-25)
(0.000148161 0.000138602 3.94922e-21)
(0.000498934 0.000540823 -7.63611e-21)
(0.000116544 0.000532912 5.49882e-22)
(8.56249e-05 0.000195512 3.25731e-21)
(0.000391177 0.000793753 -2.19845e-24)
(0.000273828 2.84271e-05 -8.69955e-22)
(0.000621038 0.000264352 5.09715e-21)
(0.000509221 5.30959e-05 -3.3396e-25)
(0.000482504 0.00102141 6.78706e-22)
(6.98585e-05 0.00038332 -2.01984e-21)
(0.000590991 4.23077e-05 -5.74977e-24)
(0.00121665 0.000223066 -1.32819e-21)
(4.17154e-05 -1.78863e-06 -7.56464e-22)
(0.000892571 0.000210891 2.51381e-21)
(0.000750344 0.0010237 -1.16233e-21)
(0.000896988 0.00154413 4.49906e-22)
(0.000243898 0.000620111 -7.15174e-22)
(0.00060134 0.00043601 4.53229e-22)
(0.000630043 0.00121294 1.08967e-21)
(0.000629851 0.00113382 1.59828e-21)
(0.000737931 -0.000349314 0)
(0.000420127 0.00133115 -5.53941e-22)
(0.00106155 0.000903981 0)
(-0.000150794 0.00108908 1.01841e-21)
(0.000899963 0.000535999 8.91858e-22)
(0.000361159 0.000743264 0)
(0.000747757 0.00127719 0)
(0.000313351 0.000575351 0)
(0.000613462 0.00111154 4.18811e-21)
(0.000213199 0.000732768 -1.33413e-21)
(3.55387e-05 -3.79536e-06 -2.16165e-21)
(2.16182e-05 -9.62078e-06 1.90253e-21)
(0.000503 0.000860437 2.56848e-21)