/*--------------------------------*- C++ -*----------------------------------*\
  =========                 |
  \\      /  F ield         | OpenFOAM: The Open Source CFD Toolbox
   \\    /   O peration     | Website:  https://openfoam.org
    \\  /    A nd           | Version:  8
     \\/     M anipulation  |
\*---------------------------------------------------------------------------*/
FoamFile
{
    version     2.0;
    format      ascii;
    class       volVectorField;
    location    "10";
    object      U;
}
// * * * * * * * * * * * * * * * * * * * * * * * * * * * * * * * * * * * * * //

dimensions      [0 1 -1 0 0 0 0];

internalField   nonuniform List<vector> 
17372
(
(0.000661177 0.00114442 1.09097e-21)
(7.83157e-05 0.000246194 4.02125e-21)
(0.000591947 0.00103225 1.19411e-23)
(0.000543931 0.000966677 1.47326e-21)
(0.000108759 2.67438e-05 -2.36622e-22)
(6.85142e-05 0.000250447 -1.85965e-21)
(0.00064317 0.00110165 9.57532e-23)
(0.000257431 0.000544154 -4.48473e-22)
(0.000592737 0.00103583 -1.92107e-22)
(0.000479026 0.000633468 4.73515e-22)
(0.000559993 0.000913261 -1.06548e-21)
(0.000131357 0.000184897 9.7274e-22)
(0.00120165 6.40516e-05 1.31993e-21)
(0.000955784 8.88696e-05 1.00261e-21)
(0.000641771 0.00110933 -1.04555e-22)
(0.000194786 0.000381194 -5.12843e-22)
(0.000129134 0.000175759 -1.48319e-21)
(0.000402183 0.000192562 1.02844e-21)
(0.000979309 3.44761e-05 3.01545e-25)
(0.000193794 0.000598569 0)
(0.00063927 0.00110846 -4.88679e-23)
(0.000594648 0.00111759 -1.39642e-22)
(0.000664389 0.00115075 -1.42092e-21)
(0.000212343 0.000594878 -3.08707e-21)
(0.000426999 0.000126022 -2.85088e-21)
(0.000638175 0.00111042 4.8996e-23)
(0.000663957 0.00115076 4.13316e-24)
(0.000553917 0.000930314 3.93508e-22)
(0.00101195 8.98644e-05 7.85729e-22)
(0.000664135 0.00115089 -7.19856e-22)
(0.00059989 0.00103953 -2.01742e-22)
(8.97643e-05 8.85493e-05 1.30951e-21)
(0.00066431 0.00115084 -5.36651e-24)
(0.00063738 0.00111014 -2.30141e-22)
(0.000171972 0.000724127 5.1087e-22)
(0.000473542 0.000834609 -4.51222e-24)
(0.000638348 0.00111107 0)
(0.000262612 0.000176518 -2.86211e-23)
(0.00049809 0.000868327 2.68568e-22)
(0.000446066 0.000814448 3.45795e-23)
(0.000663902 0.00115056 4.52266e-24)
(0.000555297 0.000987819 2.3059e-22)
(0.000582537 0.00100714 3.15785e-22)
(0.000660894 0.000581705 2.64209e-23)
(0.00047995 0.000827741 0)
(0.000664489 0.00115071 6.97626e-22)
(4.524e-05 0.00020094 3.81562e-22)
(0.000243606 0.000429781 -8.82531e-23)
(0.000637552 0.0011107 -1.64823e-22)
(0.000488558 0.000834834 4.30547e-22)
(3.36269e-05 0.000260993 9.2365e-22)
(0.000641691 0.00110667 2.91945e-22)
(0.000492441 0.000839125 -4.85888e-24)
(0.000599803 0.0010436 7.13371e-22)
(0.00041126 0.000183643 -8.2295e-22)
(0.00021998 0.000121701 -2.60627e-22)
(0.000636817 0.00111057 -1.89086e-22)
(0.000509418 0.00095017 1.35571e-23)
(0.000600045 0.00103646 -2.25557e-22)
(0.00022174 0.000511446 -7.54436e-22)
(0.000479149 0.00082602 9.39272e-24)
(0.000463834 0.000566431 -3.85635e-22)
(0.000664206 0.0011509 7.13193e-22)
(0.000611051 0.00103749 5.92586e-22)
(0.00055511 0.000897925 -5.46944e-24)
(0.000213008 0.000516359 9.3228e-22)
(0.000471918 0.0008252 -2.50033e-22)
(0.000465654 0.000857916 -4.63692e-23)
(0.000475895 0.00125966 -1.75279e-24)
(0.000273389 0.000196882 1.97677e-22)
(0.000713022 0.000411359 0)
(0.000236133 0.000414065 1.68446e-22)
(0.000738728 0.00127891 -2.93263e-22)
(0.000479773 0.000831017 8.93347e-22)
(0.000557824 0.00091023 -9.24666e-22)
(0.000596689 0.00102779 -9.76545e-22)
(0.000529991 0.000916719 -3.19765e-22)
(0.000624506 0.00109018 0)
(0.000541818 0.00119634 4.47289e-22)
(0.000510528 0.000951137 -2.44427e-21)
(9.29525e-06 0.000227132 0)
(0.000458606 0.000814413 3.14568e-22)
(0.000509004 0.000865283 -7.23884e-22)
(0.000112479 3.27605e-05 -1.26135e-21)
(8.21054e-06 0.000234231 -1.20415e-22)
(0.000638011 0.00111806 0)
(0.000485015 0.000830982 -8.78267e-22)
(0.000534267 0.000939051 -9.1693e-25)
(0.000637856 0.00111112 1.4799e-22)
(1.15226e-05 0.00041901 0)
(0.000703571 0.00127665 -6.59019e-23)
(0.00063395 0.00111472 5.99527e-23)
(0.000469955 0.000489579 0)
(0.000592088 -4.02556e-05 -8.84482e-22)
(7.94698e-06 0.000498047 -6.09013e-22)
(0.000664067 0.00115025 7.94106e-22)
(0.000925013 -4.45267e-05 0)
(4.51499e-05 0.000192894 1.75897e-22)
(0.000418081 0.000168598 -9.04488e-22)
(0.000242619 0.000560255 1.68014e-25)
(0.000873145 0.000271483 -5.15021e-22)
(0.000470063 0.000811874 7.44782e-22)
(0.000267972 0.000186523 -1.12938e-22)
(0.000154861 0.000343856 -9.90414e-22)
(0.000598418 0.00103242 0)
(0.000636319 0.00111215 6.67975e-24)
(0.000609021 0.00103989 1.48606e-24)
(0.000967477 0.000878628 -3.92569e-21)
(0.000125857 0.000123114 0)
(0.000473808 0.00081838 -1.33132e-21)
(0.00074836 0.00149229 0)
(0.000299786 0.000302073 9.62995e-22)
(0.000476835 0.000823491 7.75703e-22)
(0.000489522 0.0008397 -8.36739e-22)
(0.000581139 0.00101287 0)
(0.000464282 0.000812793 -9.17874e-23)
(0.000479964 0.000828968 -7.93774e-22)
(0.000634707 0.00111182 -1.37475e-22)
(0.000653028 0.00118043 0)
(0.000483184 0.000834245 0)
(0.000596668 0.00103616 2.01667e-22)
(0.000486188 0.000838543 -2.02764e-22)
(0.000598766 0.00103479 2.19897e-22)
(0.000498824 0.000875726 1.01346e-22)
(0.000280269 0.000207589 -1.16621e-22)
(0.000597757 0.00103128 2.31502e-22)
(0.000567823 0.00097898 6.76942e-22)
(0.000496993 0.000510372 3.34902e-22)
(6.75566e-05 -9.24486e-06 -6.09358e-22)
(0.000488854 0.000840138 -4.10367e-22)
(0.000595598 0.00102685 -2.54244e-22)
(0.000564188 0.000973841 0)
(0.000664014 0.00115085 7.3682e-22)
(0.000489159 0.000836929 4.2482e-22)
(0.000571986 0.000985985 2.1579e-22)
(0.000485489 0.000520628 4.54148e-22)
(0.000502719 0.000918877 -5.20741e-22)
(0.000575213 0.000991905 -1.98956e-22)
(0.000586818 0.00133021 -5.48941e-22)
(0.000134741 0.000139145 -7.89519e-22)
(0.000499464 0.000605083 8.24949e-22)
(0.00057866 0.000997847 1.914e-22)
(0.000585453 0.00101042 0)
(0.00059242 0.00102089 -2.74449e-22)
(4.11367e-05 0.00048466 7.93792e-23)
(0.000585618 0.00101101 0)
(0.000587791 0.00101316 4.54442e-24)
(0.000972237 3.98917e-05 -7.54102e-22)
(0.000676011 0.000651013 -7.72453e-22)
(0.000544043 0.000974026 -1.04596e-24)
(0.000277993 0.000486212 -8.5478e-23)
(0.000498852 0.0008537 -7.63535e-22)
(0.000612222 0.0013213 -4.02428e-24)
(0.00074063 0.00128013 2.65438e-22)
(2.18534e-05 0.000347328 7.31625e-22)
(0.000508934 0.000879002 3.19775e-22)
(0.00101094 0.0009239 5.89283e-22)
(8.23619e-05 1.87206e-05 -4.46583e-23)
(8.06817e-05 0.000517076 -1.67146e-21)
(0.000467398 0.000806521 9.20443e-22)
(0.000595714 0.00102728 -5.32827e-22)
(0.000127532 0.00014075 -4.12059e-22)
(0.000559384 0.000971795 6.48332e-22)
(0.00060622 0.000124377 1.94527e-21)
(0.000664624 0.00114981 4.20249e-24)
(0.000692542 0.000520582 7.67321e-22)
(0.000564714 0.000970952 -1.14457e-21)
(0.000648442 0.000240186 -9.36691e-22)
(0.000280385 0.000488775 1.68029e-22)
(0.000477908 0.000813957 -4.98799e-22)
(0.00039375 0.000931758 -4.98637e-23)
(0.000472223 0.000816927 1.34977e-22)
(0.000507795 0.000892149 1.77248e-21)
(0.000282519 0.000320422 9.52103e-22)
(0.000562135 0.000971223 -9.89993e-22)
(0.000484263 0.000843355 3.64097e-22)
(0.000547288 0.00091731 -1.67534e-22)
(0.000189848 0.000589669 9.27299e-22)
(0.000485785 0.000571437 2.40443e-22)
(0.000135429 0.000154561 -5.34518e-23)
(0.000173492 0.000715733 1.02238e-21)
(0.000556125 0.000950217 1.30892e-21)
(8.46463e-06 0.000404172 0)
(0.000217204 0.000395739 4.51896e-23)
(0.000492654 0.00084805 -3.86685e-22)
(0.000600008 0.00103518 -4.07254e-24)
(0.000660397 0.00120518 -4.84147e-23)
(5.75929e-05 0.000144105 2.70963e-22)
(0.000474485 0.00122913 -1.72561e-23)
(4.34244e-05 3.39117e-05 3.42829e-22)
(0.000482007 0.000879594 5.54091e-23)
(0.00026381 0.00049882 -6.55142e-22)
(0.000508703 0.000901362 -2.25308e-22)
(0.000253109 0.000433807 0)
(0.000487302 0.00083903 1.23787e-21)
(5.43313e-05 0.000120784 0)
(0.000421834 0.000839638 0)
(0.000669496 0.00117934 1.30237e-22)
(0.000236172 0.000248441 -5.16371e-22)
(0.00118152 0.000819867 0)
(4.79695e-05 0.000119623 -3.67212e-22)
(0.00043622 0.000633827 -6.32264e-23)
(0.000430345 -1.57472e-05 -2.68004e-25)
(0.000514167 0.000889938 -5.29095e-22)
(0.000416941 0.00075776 -1.10348e-23)
(9.63519e-05 2.39081e-05 9.37029e-22)
(0.000550564 0.000960206 0)
(0.000825991 0.000403922 1.34451e-22)
(0.000637552 0.00110972 -5.18772e-24)
(0.000588491 0.00101663 2.99496e-22)
(0.000521099 0.000894609 -7.55162e-22)
(0.000663882 0.00115069 7.54931e-22)
(0.000542564 0.000926171 -2.03758e-21)
(0.000528921 0.00090839 7.23366e-22)
(5.86369e-05 0.000162278 0)
(0.000525647 0.000905506 0)
(0.000537359 0.000936871 9.95701e-22)
(0.000550799 0.000962489 1.84387e-21)
(0.000885998 0.000250832 5.28175e-22)
(0.000614137 0.00116589 -6.26249e-23)
(0.000534889 0.000906142 -3.94461e-22)
(0.000203568 0.000528679 0)
(5.75754e-05 0.000131985 9.15926e-23)
(0.000960859 0.000139324 -2.77172e-21)
(0.000592013 0.00102096 -2.8675e-22)
(0.000409854 -8.20221e-06 2.36269e-21)
(0.000631111 0.00109196 3.37156e-23)
(0.000281758 0.000766834 2.89189e-21)
(-0.000454176 0.000371401 -1.4367e-23)
(0.000466449 0.000804169 0)
(0.000257119 0.000166704 2.40185e-22)
(0.000573819 0.000996869 9.83833e-22)
(0.000474655 0.000458552 -1.36427e-21)
(0.000710814 0.00129224 1.02329e-21)
(0.0007126 0.00127899 2.09056e-21)
(0.000974887 5.74974e-05 1.13701e-22)
(0.000393277 0.000530417 -7.51186e-22)
(0.000231107 0.000414261 0)
(0.000422249 0.00114156 5.50665e-24)
(0.000466091 0.000825595 -5.57363e-22)
(0.000617658 0.00106711 -3.67438e-22)
(0.000551211 0.000972172 8.25189e-22)
(8.67691e-05 2.0339e-05 0)
(0.000442441 0.000228686 9.99194e-22)
(0.000879392 0.000481494 9.60146e-22)
(0.000666033 0.00114944 0)
(0.000954989 9.06154e-05 -8.37237e-22)
(0.00049418 0.000844124 -4.13238e-22)
(0.000432305 0.000779792 2.53957e-23)
(6.58641e-05 1.32275e-05 -1.84047e-22)
(7.46997e-05 -1.88877e-06 2.24732e-21)
(0.000508178 0.000874574 -5.18941e-22)
(0.00045168 0.00115229 7.68626e-25)
(0.000631056 0.00111442 1.51222e-22)
(7.34928e-05 1.54183e-05 1.24726e-21)
(0.000502213 0.000872086 -9.05002e-25)
(0.000557083 0.000965388 7.9814e-22)
(3.86354e-05 0.00021038 -2.19791e-22)
(0.000549367 0.000918941 -1.8386e-22)
(0.000630963 0.000151671 9.51862e-23)
(0.000749934 0.00136105 6.88758e-23)
(0.00056232 0.000997082 -3.65484e-24)
(0.000606757 0.000112697 -1.11519e-21)
(0.000392869 -3.19777e-06 -2.96726e-21)
(6.47622e-05 -4.99698e-06 8.97876e-22)
(0.000185357 0.000140675 -4.23776e-22)
(0.000747976 0.00127813 -8.09545e-22)
(0.000369596 0.000272548 3.27588e-21)
(0.000643827 0.00115215 0)
(4.69836e-05 0.000104025 -4.44695e-22)
(0.000415318 0.000758966 -1.37037e-21)
(0.00066753 0.00114918 -4.58947e-24)
(6.46983e-05 0.000509002 4.80565e-21)
(0.00110404 -0.00017407 -1.93688e-22)
(0.000646317 8.33654e-05 0)
(0.000472419 0.000843198 0)
(0.000484353 0.000835641 -6.06916e-22)
(0.00102824 -7.621e-06 -3.85374e-22)
(0.000587982 -1.32023e-06 7.33025e-22)
(0.000399775 0.000541471 2.09339e-22)
(0.000635134 7.97815e-05 0)
(6.35612e-05 6.30627e-05 -1.67975e-21)
(0.000427413 0.00104324 0)
(4.35015e-05 9.35698e-05 6.85355e-22)
(0.000663934 0.00115044 -7.72385e-22)
(0.00147373 0.00111712 -1.97538e-21)
(0.000551363 0.000968339 0)
(0.000462602 0.000787948 -1.07797e-24)
(0.000464702 0.000792087 0)
(0.000347877 0.000441487 0)
(0.000203142 0.000355743 0)
(0.000856056 0.000551475 -7.58461e-22)
(0.00046459 0.000800886 -5.27869e-22)
(0.000317513 0.000532185 -1.05433e-22)
(0.000335548 0.000493475 2.08793e-21)
(0.000534201 0.000909566 -1.54714e-22)
(0.00044202 0.000796193 6.42123e-22)
(0.000899698 0.000168044 2.78609e-25)
(0.00050204 0.00120577 5.95532e-22)
(0.000566275 0.00100596 -1.60903e-24)
(0.000657529 0.00126345 -3.70838e-24)
(4.01028e-05 8.39538e-05 7.585e-22)
(0.000574225 0.00100043 -1.56826e-22)
(4.59943e-05 0.000113947 3.85883e-22)
(4.88823e-05 -2.88435e-06 1.01009e-21)
(0.00067297 0.000607266 -2.35661e-22)
(0.000695987 0.00120877 -9.31881e-22)
(0.000547373 0.000906268 0)
(0.000183941 0.000351715 0)
(0.000333246 0.000265434 1.02353e-21)
(0.000589388 0.00106118 4.35615e-24)
(0.000969698 0.000101422 3.89427e-21)
(0.000538427 0.000922062 7.07515e-22)
(3.67255e-05 7.49926e-05 5.19492e-23)
(0.000334432 0.000556647 -9.22558e-22)
(0.000185436 0.000588594 7.04534e-22)
(0.000670702 0.0011497 -8.82749e-22)
(0.000208017 0.000337447 -3.42258e-23)
(0.000463169 -9.15775e-05 -1.90454e-21)
(0.00063403 0.0011071 -1.23322e-22)
(8.25994e-05 0.000903772 -1.02003e-22)
(0.000876915 0.000375248 0)
(0.000587763 0.00101455 0)
(0.0010967 3.86004e-05 1.03368e-22)
(0.000627511 0.00112633 0)
(0.000177698 8.20766e-05 5.67256e-22)
(1.71773e-05 0.000488198 0)
(3.36682e-05 6.70503e-05 4.25703e-23)
(0.000427113 0.000317725 6.19389e-22)
(0.000489367 0.000871223 0)
(0.000580909 0.00100401 0)
(0.000911162 0.000794055 -1.0664e-23)
(0.000176867 0.000111828 3.09935e-22)
(0.000523103 0.000904521 -7.01694e-23)
(0.00058438 0.00101261 -6.77838e-22)
(0.000551265 0.000952009 0)
(3.05727e-05 5.95359e-05 -3.63629e-22)
(0.000739307 0.00127807 3.17525e-22)
(0.000594128 0.001019 -3.31298e-22)
(0.000437289 2.86236e-05 0)
(0.000600294 0.00103971 3.3134e-22)
(0.000261633 0.000338677 2.48054e-21)
(0.000521766 0.000736021 -1.06678e-21)
(0.000577182 0.000989274 1.0843e-21)
(0.000629845 0.00115193 -4.82919e-23)
(0.000500937 0.000875681 -3.30605e-22)
(5.82927e-05 5.21348e-05 -4.23065e-22)
(0.000604398 0.00112624 3.5531e-23)
(0.000652067 0.00115199 -3.37079e-22)
(0.000416619 0.000764932 1.11108e-21)
(2.79756e-05 5.29948e-05 3.72812e-22)
(7.20486e-05 0.000611453 -3.67116e-22)
(5.89917e-05 0.000138877 -9.49006e-22)
(0.000557213 0.00100436 -8.98133e-23)
(0.000584579 0.00100449 -3.1015e-22)
(6.62353e-05 1.66521e-05 -7.20235e-22)
(0.000192531 0.000595341 1.33191e-21)
(0.00055525 0.000966446 -8.25738e-22)
(2.5631e-05 4.69558e-05 -3.64141e-22)
(0.000563708 0.000970556 -2.29217e-22)
(0.000315587 0.000284881 1.29195e-21)
(2.30773e-05 4.05178e-05 5.2274e-22)
(0.000596564 0.00102544 3.1751e-22)
(0.000577245 0.0009937 0)
(0.000576007 0.000994198 -2.35131e-22)
(2.1337e-05 3.60969e-05 -8.56307e-23)
(4.26371e-05 -8.35451e-06 1.7987e-22)
(0.000517586 0.000624386 -6.45646e-22)
(0.000572186 0.000987267 -2.72418e-22)
(0.00102058 -8.54431e-06 4.14881e-22)
(0.000504416 0.000876325 -7.8422e-22)
(0.000181376 0.000129014 -9.36909e-22)
(0.00017026 0.000116977 9.94058e-23)
(0.000979423 0.000147248 0)
(0.000760696 0.000883475 0)
(1.9542e-05 3.18894e-05 -1.71373e-22)
(0.000479676 0.000855015 -9.52248e-23)
(0.000645349 0.00126306 -9.63894e-24)
(0.000667631 1.47669e-05 -1.06147e-22)
(5.74591e-05 -3.68604e-06 0)
(5.58534e-05 0.000125895 6.82228e-22)
(0.000460762 0.000792957 -8.60538e-22)
(0.000202892 0.000588227 0)
(0.000481275 0.000830858 0)
(1.62494e-05 1.14242e-06 4.41774e-22)
(0.000543038 0.000498599 -1.42229e-21)
(0.000598994 0.00104474 4.50911e-22)
(0.000488997 0.000835357 -5.16767e-24)
(0.000387416 0.000521909 -8.4609e-25)
(0.00068264 0.000542437 -1.42191e-24)
(0.000217922 0.000492809 4.84844e-22)
(0.00010523 5.8608e-05 -3.88199e-26)
(0.000664245 0.00115007 1.1459e-23)
(0.00130557 0.00111599 1.31569e-21)
(0.000123727 4.06264e-05 1.72652e-21)
(0.000694042 0.00144214 3.72688e-24)
(-9.1349e-05 0.00102249 2.50738e-24)
(2.48873e-06 -4.06342e-06 0)
(5.19079e-05 -3.01989e-06 -1.49747e-21)
(0.000463429 -0.000192806 -1.67675e-21)
(0.000553107 0.000943595 2.94942e-22)
(0.000904948 -0.000312897 0)
(0.000444901 0.000438417 9.03578e-22)
(0.000671328 0.00115543 0)
(0.000737427 0.00127524 0)
(0.000538881 0.000911534 1.63954e-22)
(0.000872935 0.000357696 -1.15051e-21)
(0.000401458 0.000843174 0)
(0.00013174 0.000192027 0)
(0.000699295 0.00128582 -1.0062e-21)
(8.62847e-05 2.53029e-05 -9.1733e-23)
(4.13134e-05 0.00100856 -1.01337e-21)
(0.000500509 0.00126197 -1.08006e-23)
(0.000491887 0.000849695 7.71124e-22)
(0.000587394 0.00101426 -3.32799e-22)
(7.29456e-05 -1.08104e-05 0)
(0.000671787 0.00115063 -1.79605e-21)
(0.0001107 7.22621e-05 8.27504e-22)
(0.000414307 0.000805106 -1.99791e-21)
(0.000635718 0.00111942 4.84142e-22)
(0.000563773 0.00026359 1.14961e-21)
(0.00103746 -1.36062e-05 -1.43853e-21)
(0.000510868 0.000890052 -3.76873e-22)
(0.00104144 -7.77258e-07 4.03341e-22)
(0.000589413 0.00101347 3.02212e-22)
(0.000475239 0.00105995 8.03862e-22)
(5.30347e-05 0.000439424 1.3716e-21)
(0.000729008 0.00128177 -2.14195e-22)
(0.00113923 0.00066664 -6.44395e-22)
(0.000229465 0.000652799 5.66705e-22)
(0.00065291 0.000549898 1.3113e-21)
(0.000658711 0.00126371 0)
(0.000466398 0.000837156 -1.73548e-22)
(0.000633222 0.00100397 -1.27967e-23)
(0.000735291 0.00127966 1.546e-22)
(0.000808536 0.000615936 2.13557e-21)
(0.000235239 0.000498821 0)
(0.000504234 0.000871882 0)
(0.0009328 -1.31884e-05 -1.07345e-21)
(0.000241402 0.000133376 -1.34944e-21)
(0.000488421 0.000588035 -6.45901e-22)
(4.60074e-05 4.2195e-05 -4.04648e-23)
(5.21972e-05 0.000730207 1.22279e-21)
(0.000358062 0.000272478 1.08175e-21)
(4.34506e-05 -4.74945e-06 0)
(0.000135551 0.000528492 9.94611e-22)
(0.00012232 7.53991e-05 1.55674e-21)
(0.000538832 0.00111741 -1.18522e-23)
(0.000570134 0.000994167 -2.49936e-23)
(5.15911e-05 0.000494826 4.23728e-22)
(1.31283e-05 -1.2011e-06 -3.42918e-22)
(0.000376531 9.41257e-07 0)
(0.000641263 0.00110019 -1.99985e-22)
(0.000523876 0.000898701 -1.46785e-22)
(0.000656964 0.00115175 2.30986e-24)
(2.44654e-05 4.77156e-07 0)
(4.54851e-05 9.88786e-05 -6.25412e-22)
(0.000269325 0.000532576 1.87793e-21)
(0.00112311 0.000604966 -1.98749e-24)
(0.00056086 0.000733589 -1.53667e-21)
(0.000220821 0.000492095 0)
(0.000731789 0.00123768 1.55382e-22)
(0.000787824 0.000415683 0)
(0.000544921 0.000937255 0)
(0.000546269 0.00131976 2.18222e-23)
(0.000513244 0.000895623 -5.65354e-22)
(0.000929155 0.000148045 1.78551e-21)
(0.000568218 0.000968555 6.45002e-22)
(0.000179609 0.000262741 -1.6019e-22)
(0.000282663 0.000497435 -6.38687e-22)
(0.000643741 0.00110616 1.5918e-22)
(0.000473487 0.00111505 8.88474e-22)
(3.27395e-07 -8.33703e-07 -1.88894e-22)
(0.000650851 0.000224201 -4.4902e-22)
(0.000112071 0.000542021 3.09799e-22)
(5.83667e-05 -0.000191438 0)
(0.000616442 0.00113858 1.1598e-22)
(0.000113975 7.76391e-05 -1.94586e-21)
(0.000643112 0.00110448 1.04766e-22)
(4.17313e-05 8.86587e-05 -4.7545e-23)
(0.000552628 0.000959404 8.66942e-24)
(0.000527285 0.00092454 5.73561e-22)
(0.000303321 0.000580696 -9.20132e-22)
(0.000486746 0.000858878 6.99258e-24)
(0.000366425 0.000403887 1.99858e-21)
(1.01074e-05 0.000434232 -4.35309e-22)
(0.00063697 0.00111139 -1.74807e-22)
(9.7472e-05 9.50553e-05 -9.45537e-22)
(0.000350077 4.79825e-05 -9.42602e-22)
(0.000633619 0.00116082 9.04005e-23)
(0.000248372 0.000427781 -1.64858e-21)
(0.00024971 0.000793382 0)
(0.00072517 0.00129151 2.17729e-22)
(0.000585599 0.00101013 0)
(0.000600505 0.00110017 3.92488e-23)
(5.08491e-05 4.45506e-05 0)
(0.000478006 0.000825376 0)
(9.52898e-05 3.03094e-05 0)
(0.000660613 0.000266554 0)
(0.00043335 0.000556722 1.64432e-23)
(0.000665203 0.00114958 0)
(0.0006259 0.00111767 0)
(8.55292e-05 9.49383e-05 1.57892e-21)
(0.000474879 -0.000274543 1.85164e-21)
(3.84166e-05 7.93797e-05 -7.4951e-22)
(0.000607388 0.0010796 -1.88464e-22)
(1.1553e-06 7.06817e-06 0)
(0.000925067 0.000146051 -1.67591e-21)
(0.000646394 0.00115793 0)
(0.0006984 0.000347684 1.09324e-21)
(0.000472684 0.000801454 0)
(0.000662363 0.00115799 8.29717e-22)
(0.000501464 0.000854817 9.26392e-22)
(0.000368125 0.00053354 -2.48525e-21)
(0.000605533 0.00103115 -1.25436e-21)
(0.000664059 0.00121104 -5.73783e-23)
(-0.00041215 0.000441847 -2.76993e-21)
(0.000657539 0.00114364 -5.33284e-22)
(0.000489681 0.000835398 1.15814e-21)
(0.000525175 0.000909843 -8.38507e-22)
(6.67275e-05 -0.000207606 3.35797e-22)
(0.000807784 0.000406187 -1.29072e-22)
(0.00049012 0.000848846 0)
(3.56368e-05 7.0698e-05 8.78165e-23)
(0.000307632 0.000292387 -3.07944e-21)
(0.000103948 0.000102119 1.48111e-24)
(0.000540565 0.000931326 3.25789e-22)
(0.000508724 0.00086963 0)
(0.000765651 -0.000255616 -9.22628e-22)
(0.000532297 0.000595102 6.06343e-22)
(0.000527267 0.00091046 1.71221e-21)
(0.000700329 0.00152337 -4.06629e-24)
(0.000592384 0.000128045 8.35005e-22)
(0.000500831 0.000864846 -1.19133e-21)
(0.000517444 0.000909545 -3.27979e-23)
(0.000577762 0.000994409 -7.00217e-23)
(0.000252629 0.000483346 7.05054e-22)
(3.22166e-05 6.32302e-05 -8.8377e-23)
(0.000532305 0.000914322 -3.76034e-24)
(0.000869357 0.000339593 8.32948e-22)
(0.000265041 0.000468023 1.69696e-22)
(0.000524626 0.000905152 0)
(0.000981416 6.5153e-05 -3.94185e-22)
(0.000180678 0.000405609 1.86103e-22)
(0.000831679 0.000584897 1.27275e-21)
(0.000176705 0.00025283 -6.35969e-22)
(2.90244e-05 0.000403135 -7.67013e-22)
(0.000903564 9.13349e-05 6.18442e-23)
(0.000989582 0.000161 4.50791e-22)
(0.000521477 0.000900327 5.9513e-24)
(0.000489525 0.000842772 0)
(3.62285e-05 0.000805509 3.92027e-22)
(7.49281e-06 1.80654e-06 8.18864e-22)
(0.000569988 0.0010202 0)
(0.000670765 0.0011582 0)
(0.000964677 8.6223e-05 -8.66975e-22)
(7.40121e-05 1.98428e-05 -2.6015e-21)
(0.000201863 0.000253744 3.53297e-22)
(2.92336e-05 5.62056e-05 -2.34096e-23)
(0.000519935 0.000898567 -9.57369e-25)
(0.000482656 0.000820188 2.38415e-22)
(0.000608586 0.00105028 0)
(0.000506123 0.000816897 4.32314e-22)
(0.000489064 0.00083851 -2.11907e-22)
(0.000620611 0.00117567 3.27975e-23)
(0.000558212 0.000457349 -1.84976e-21)
(0.000526415 0.000900552 5.16179e-24)
(2.1373e-05 -1.50372e-06 -1.56351e-21)
(0.000518041 0.000893755 -1.41429e-21)
(0.00025595 0.000446976 -1.32935e-26)
(0.000659856 0.0011515 -8.61492e-23)
(0.000620947 0.00110364 8.42985e-22)
(0.000328877 0.000463206 -1.41107e-21)
(2.32495e-06 1.47342e-05 -5.19306e-23)
(0.000511608 0.000883284 4.99437e-22)
(0.000521917 0.000819346 7.28795e-22)
(2.67561e-05 4.99438e-05 3.7915e-22)
(0.000496145 0.000866298 -7.8955e-22)
(0.000533107 0.000930156 6.37518e-24)
(0.000959001 8.40904e-05 2.53751e-21)
(0.000507614 0.000876622 5.21683e-22)
(0.000591434 0.0010093 4.92209e-22)
(0.000489115 0.000824691 5.89373e-22)
(0.0013685 0.000395349 0)
(0.000487703 0.000839941 9.91127e-22)
(0.00167888 0.000224937 0)
(0.000882063 0.000738323 -1.11692e-21)
(0.000636271 0.00108859 2.39501e-22)
(0.000187554 0.000539937 -4.19412e-21)
(0.00138396 0.000916452 5.68397e-22)
(0.000542808 0.00092882 -2.16843e-21)
(0.000203452 0.000157292 1.90142e-21)
(0.000368791 -4.44354e-07 0)
(0.000297846 0.000722849 5.76131e-24)
(3.32921e-05 0.00036677 0)
(0.000536368 0.000924832 -6.75773e-22)
(1.35261e-06 -1.29675e-05 7.67695e-22)
(2.43453e-05 4.45063e-05 1.86941e-22)
(0.000653779 0.00115592 1.32827e-22)
(0.000788807 0.00142224 4.45827e-23)
(0.000255706 0.000430942 -8.17486e-22)
(0.000460585 0.000800092 5.94462e-22)
(0.00102618 -0.000120214 -2.06749e-22)
(0.000600636 0.00103014 0)
(0.000704012 0.000891748 1.50078e-21)
(0.00101829 -2.44717e-05 6.11769e-22)
(1.55182e-06 -8.34473e-06 -4.48834e-22)
(4.77577e-05 -5.29413e-06 -1.55273e-21)
(0.000503777 0.0008699 0)
(0.00073218 0.00128942 4.39147e-22)
(0.000712761 0.00130367 -3.2678e-24)
(0.000293469 0.000225134 1.07545e-21)
(0.000146377 0.000697719 -2.25937e-22)
(2.25533e-05 3.80272e-05 0)
(0.000889391 0.000129355 -4.24638e-22)
(0.000614149 0.000299859 -1.26431e-21)
(0.000523919 0.000906591 -8.47335e-22)
(0.000516343 0.000887257 -4.20754e-22)
(0.000547978 0.000951661 8.07153e-22)
(0.000679357 0.00120686 -6.89015e-24)
(0.000474957 0.00082023 -1.91449e-22)
(0.000784165 0.00140401 9.83901e-22)
(0.00051135 0.000885076 1.11501e-22)
(0.000167364 0.000493827 0)
(0.000418509 0.000651885 0)
(0.000481961 0.000845975 0)
(0.000272777 0.000400597 0)
(0.000591595 0.00102934 -3.05224e-22)
(0.000830711 8.49197e-05 6.66693e-26)
(0.000182978 0.00052945 1.82123e-21)
(0.000469955 0.000191005 -3.29455e-25)
(0.000278329 0.000524487 5.42002e-22)
(0.000446676 0.000833501 -2.24518e-25)
(0.000570398 -4.1346e-05 2.49799e-21)
(0.000729028 0.00129048 -1.22796e-22)
(0.000513036 0.000894228 5.69358e-22)
(0.000549579 0.000487359 1.25431e-21)
(0.000677748 0.00119704 0)
(0.000195645 0.000608653 0)
(0.000577839 0.000996418 -5.87716e-22)
(0.000453035 0.000495398 -1.79971e-21)
(0.00100226 -0.000110541 -1.99647e-22)
(0.000478637 -0.000420174 -3.04198e-24)
(0.00062335 0.00110524 0)
(2.3308e-05 8.57965e-07 -3.40887e-22)
(0.000131374 0.000518618 5.06996e-22)
(0.000489231 0.000847905 7.0479e-22)
(0.000790686 0.00140394 0)
(0.000540202 0.00138332 -2.02862e-23)
(0.00022975 0.000256317 5.06378e-22)
(0.000330469 0.00129651 -5.80574e-22)
(0.00101777 -6.81019e-05 4.17129e-22)
(0.000387718 0.000590171 0)
(0.000730817 0.00128894 1.26791e-22)
(0.000795313 0.00140334 0)
(0.000775111 0.00140352 9.52707e-22)
(0.000471474 0.000817085 1.06627e-21)
(0.000313893 0.000533941 8.93636e-22)
(0.000555079 -3.58336e-05 3.10027e-21)
(0.000514592 0.00088257 1.04406e-21)
(1.45752e-06 -1.99872e-05 -6.08923e-24)
(0.000271581 0.000738243 0)
(0.000290195 0.000311132 9.67392e-22)
(0.000762563 0.00140253 -9.07891e-22)
(1.88512e-06 2.45429e-05 -1.6444e-21)
(0.000188834 0.000606402 -3.35369e-25)
(0.000532605 0.000919114 -1.05181e-21)
(0.000512718 0.00134662 0)
(0.000558352 0.000967675 -7.884e-22)
(0.000619689 0.00106002 4.08143e-22)
(0.00049017 0.000856703 5.11834e-24)
(0.000642499 0.00110586 1.05152e-22)
(0.000559545 0.000399326 7.3016e-22)
(0.000479661 0.00094706 -6.91766e-22)
(0.000347077 0.000268724 -2.70285e-21)
(0.000492413 0.000850606 1.73604e-21)
(1.56279e-06 -2.39802e-05 -7.68507e-22)
(0.00063791 0.00111314 5.91681e-23)
(0.000788037 0.000581834 -1.76665e-21)
(0.000736277 0.00127917 -4.48547e-24)
(0.000505335 0.000861552 -1.70155e-22)
(0.000507845 0.000899132 2.43648e-22)
(1.40498e-06 -1.63505e-05 0)
(0.000541029 0.000946321 2.65211e-22)
(0.00050273 0.000885181 2.7198e-22)
(0.000988045 0.000120672 -1.73501e-21)
(0.000572727 0.00012132 -2.0795e-23)
(0.000661441 0.00115878 0)
(0.000386176 0.00109645 -1.12455e-23)
(0.000545323 0.000968131 4.28814e-22)
(0.000608369 0.00112129 0)
(0.000669216 0.00114921 8.63844e-22)
(0.000798715 0.00140229 -9.81156e-22)
(5.91335e-05 -7.64978e-07 -1.41699e-21)
(0.000143866 0.000391821 -1.244e-21)
(0.000503466 0.0010858 4.0978e-24)
(1.16894e-05 5.65336e-05 -9.02585e-22)
(0.000372421 0.000226273 1.51061e-25)
(0.000612609 0.0010906 1.78442e-22)
(1.27546e-06 -9.78605e-06 6.4568e-22)
(0.000582613 0.00100202 0)
(0.000283144 0.000855986 0)
(1.74917e-06 -3.06108e-05 1.56877e-21)
(0.000979308 2.98564e-05 -1.88428e-22)
(0.000259692 0.000824951 1.58865e-23)
(0.000535671 0.000902934 -5.12127e-24)
(0.000395369 0.000135832 8.63224e-22)
(0.000840832 0.000857902 0)
(0.000735829 0.00128034 0)
(0.000439849 0.000767235 0)
(0.000738736 0.00128027 6.26514e-24)
(0.000210479 0.000355972 5.58602e-22)
(0.000801414 0.00140106 9.31882e-24)
(5.3194e-05 -6.10917e-07 0)
(0.000526028 0.000902567 0)
(0.000596777 0.00102461 4.41363e-22)
(0.000666052 0.00147335 -3.01421e-23)
(0.000466069 0.00102793 -1.72288e-21)
(0.000658143 0.00115456 -1.92517e-22)
(2.07367e-06 -3.84663e-05 7.91936e-22)
(0.000461902 0.000818508 3.67846e-22)
(0.00048957 0.000853147 0)
(0.000849708 0.000112128 -1.41787e-21)
(0.000389098 0.000645159 1.57816e-21)
(0.000615795 0.00104234 -3.59432e-22)
(0.000661555 0.00115126 -9.99445e-23)
(7.74571e-05 6.96604e-05 -7.88823e-22)
(0.000409034 0.000138333 0)
(0.000307731 0.00115615 -1.49589e-21)
(-0.000369378 0.00104524 -2.12564e-21)
(0.00030849 0.000489162 1.43802e-21)
(0.000665003 0.00116205 7.80966e-22)
(0.000741014 0.00128156 -9.40069e-22)
(0.000469907 0.000793002 -2.14931e-22)
(2.39373e-06 -4.78026e-05 -1.5765e-21)
(3.17437e-05 0.000384382 0)
(0.000715919 0.00129814 0)
(0.000253756 0.000425776 -9.7686e-24)
(6.78539e-05 6.24238e-05 -3.15419e-23)
(0.000531431 0.000915947 -3.62312e-22)
(0.000493314 0.000852485 -1.17124e-21)
(0.000223028 0.000502581 0)
(1.05718e-05 0.000323085 0)
(2.71161e-06 -5.51494e-05 6.35369e-24)
(0.000453266 0.000795121 -9.81518e-22)
(7.43897e-05 6.60896e-05 0)
(0.00017525 7.96714e-05 3.77482e-22)
(0.00100065 0.000115563 0)
(0.000159045 0.00027069 -2.04724e-21)
(0.000497857 0.000860241 -4.66693e-22)
(0.000574723 0.000990874 -2.06715e-22)
(6.62938e-05 6.55586e-05 0)
(0.000509384 0.000874264 -5.472e-22)
(0.000262096 0.000422218 0)
(0.000187182 0.000589689 9.19447e-22)
(3.14386e-06 -6.34915e-05 7.98328e-22)
(0.00032936 0.000510582 1.23881e-21)
(0.000795296 0.00139274 1.00306e-21)
(0.000337119 4.04043e-05 -4.94699e-27)
(0.000412895 -0.00056095 0)
(0.000528532 0.000914931 0)
(0.000739782 0.00128083 5.41085e-22)
(0.000109579 0.000396387 0)
(0.000591061 0.00102595 -5.51774e-22)
(9.06547e-05 0.000394727 8.58245e-22)
(0.000718872 0.00129407 -8.63792e-23)
(0.000564479 0.000977085 -2.69904e-22)
(0.000535774 0.000938848 -5.62212e-23)
(0.000511161 0.000881006 -5.12278e-22)
(0.000606462 0.00103056 1.79201e-21)
(0.000621418 0.000690704 1.28984e-21)
(3.91363e-06 -7.84124e-05 0)
(0.00076776 0.00129706 -1.45278e-21)
(0.000561123 0.0006015 1.29039e-21)
(0.000472128 0.000845759 -3.36409e-22)
(9.9024e-05 0.00042349 5.79615e-23)
(0.000471662 0.000814851 -7.52385e-22)
(0.000412534 0.000323244 0)
(0.00067498 0.00121007 9.03945e-23)
(0.000529752 0.00090465 -6.11658e-23)
(7.40771e-05 5.87782e-05 -4.86391e-22)
(0.000468588 0.000789092 -4.65111e-22)
(0.000608584 0.00104898 1.02637e-21)
(0.000543499 0.000944219 7.99687e-22)
(0.000369608 0.000413496 0)
(0.00069599 0.00124497 1.12076e-21)
(2.30752e-05 -1.27896e-06 -5.25335e-23)
(0.000517712 0.000889573 0)
(0.000216926 0.000266195 -3.63933e-25)
(0.000791989 0.00140161 0)
(0.000767611 0.0012925 7.18564e-22)
(0.000643499 0.00111671 4.86205e-22)
(0.000236286 0.000443399 -1.70371e-21)
(0.000486828 0.000844599 -4.38285e-24)
(2.1949e-05 -0.000153117 -7.95425e-22)
(0.000529848 0.00049571 7.69706e-22)
(0.000453962 0.000795597 4.45292e-24)
(0.000146829 0.000400739 8.65144e-22)
(0.000503513 0.000859293 1.96022e-22)
(0.000280632 0.000391578 -1.78307e-21)
(1.54143e-05 -0.000113172 1.57573e-21)
(0.00130819 9.52876e-05 2.39783e-22)
(0.000799571 0.0014139 -5.0304e-24)
(1.82828e-05 -0.000131335 0)
(0.000335547 0.000506691 -9.1757e-22)
(0.0010031 0.000408831 1.18978e-22)
(0.00059937 0.000783448 -1.26107e-21)
(0.0012224 0.000375895 -4.89412e-22)
(0.000402692 0.00128177 7.62851e-22)