/*--------------------------------*- C++ -*----------------------------------*\
  =========                 |
  \\      /  F ield         | OpenFOAM: The Open Source CFD Toolbox
   \\    /   O peration     | Website:  https://openfoam.org
    \\  /    A nd           | Version:  7
     \\/     M anipulation  |
\*---------------------------------------------------------------------------*/
FoamFile
{
    version     2.0;
    format      ascii;
    class       surfaceScalarField;
    location    "60";
    object      phi;
}
// * * * * * * * * * * * * * * * * * * * * * * * * * * * * * * * * * * * * * //

dimensions      [0 3 -1 0 0 0 0];

internalField   nonuniform List<scalar> 
1111
(
6.52617e-09
1.31941e-08
-1.58735e-08
-3.84667e-09
6.58651e-09
-1.18141e-08
1.17537e-08
-1.4734e-08
5.19473e-09
9.2402e-09
2.99092e-10
5.23868e-10
-6.06015e-10
-1.42383e-08
1.43204e-08
-1.41554e-08
1.38961e-08
7.83078e-10
-1.64819e-09
1.48915e-08
2.18528e-09
-3.71025e-09
9.73575e-09
-1.04979e-08
4.47243e-09
-6.69802e-09
-1.26183e-08
1.25893e-08
6.72707e-09
-5.04662e-08
-2.59171e-08
7.63833e-08
-8.12224e-09
7.60574e-09
7.10301e-09
3.52708e-09
3.46237e-10
-3.60709e-09
-2.66235e-10
1.56441e-08
-1.59592e-08
-2.30487e-08
2.33638e-08
-9.63963e-09
-7.91078e-09
8.78519e-09
8.76522e-09
-3.53358e-08
1.76101e-08
-3.23362e-08
5.00619e-08
9.52674e-09
-1.95249e-09
-1.42723e-08
-1.57656e-09
2.30943e-09
-3.64575e-09
2.91288e-09
-3.77494e-09
1.33104e-08
1.94552e-09
-1.1481e-08
8.84062e-09
-2.43932e-09
-1.5035e-08
8.63367e-09
3.76799e-08
-3.0513e-08
-7.16687e-09
-1.93937e-08
2.39129e-10
1.73709e-08
1.78374e-09
-8.29198e-10
4.10093e-09
-1.78871e-08
1.46153e-08
-6.12203e-08
-3.96264e-09
6.51829e-08
1.55487e-10
-1.28027e-09
-3.59377e-10
1.48416e-09
-1.43358e-09
-1.3551e-08
-1.61769e-10
-3.08792e-10
2.66299e-10
2.04261e-10
-1.01546e-08
-8.23214e-09
1.26372e-08
5.74954e-09
7.15383e-10
-2.14115e-09
-8.43019e-09
9.85595e-09
8.11548e-09
9.15061e-10
-9.05195e-09
2.14068e-11
-2.85149e-09
-7.85125e-09
1.09206e-08
-2.17848e-10
1.13802e-08
-6.67942e-10
-1.87162e-09
-9.67032e-10
9.49638e-10
6.19116e-11
-4.45177e-11
-2.49136e-10
8.41092e-10
4.02843e-10
-9.94799e-10
-5.70041e-10
-4.03562e-11
6.07237e-10
3.15995e-12
5.71421e-12
-9.72527e-10
1.01899e-10
8.64914e-10
-6.43173e-11
-8.97e-10
8.20728e-10
-1.84454e-08
-1.76905e-09
-4.81709e-10
5.22666e-11
-1.40599e-10
1.34122e-08
-1.32625e-08
3.95122e-09
-4.12607e-10
6.21906e-10
3.883e-10
-5.976e-10
-3.26683e-10
-2.16395e-09
1.67932e-09
8.11313e-10
-2.13935e-09
9.93387e-09
-1.15048e-08
-3.58156e-10
-1.89005e-10
6.54519e-11
-8.79895e-09
1.01888e-08
-9.51208e-09
1.20577e-08
-1.70886e-08
4.89451e-09
1.36363e-10
8.08502e-11
-1.96233e-10
-2.42774e-10
2.40306e-10
8.69555e-10
-1.60223e-10
-5.95635e-08
7.42738e-08
-1.47104e-08
1.11795e-09
-3.30662e-10
-1.27892e-09
4.91634e-10
1.12355e-09
1.03187e-08
-1.37315e-08
2.28927e-09
-1.16811e-09
7.21331e-09
-8.67481e-09
2.62961e-09
-6.54082e-09
5.74834e-09
5.53507e-09
-4.74258e-09
-7.2593e-09
-2.08722e-09
2.01967e-09
7.32685e-09
-1.8234e-10
-9.09263e-08
9.13115e-08
-2.02825e-10
-2.5731e-10
-8.97648e-08
9.01725e-08
-1.50462e-10
8.30926e-08
-1.49739e-09
1.13977e-10
-8.17092e-08
-3.10732e-09
-2.46528e-10
7.66824e-10
8.96501e-10
-5.45377e-10
4.00049e-09
-1.53063e-09
3.32514e-09
-5.79499e-09
-1.06657e-09
9.76209e-10
-1.4976e-08
6.61567e-09
9.41952e-09
9.94437e-10
-1.01357e-08
-2.78244e-10
-6.24838e-09
1.30727e-08
1.33279e-09
-8.15712e-09
1.43308e-08
-4.24994e-09
3.43999e-09
-1.35208e-08
1.54237e-08
1.72354e-09
-1.71847e-09
-3.87303e-10
-1.99905e-08
-7.26915e-09
2.7647e-08
1.39445e-08
-8.41265e-09
-2.10495e-09
7.75243e-09
-1.18959e-08
-7.84352e-11
1.86779e-10
-1.38726e-09
-3.63776e-08
-2.31859e-08
8.11731e-09
1.27298e-10
3.81311e-09
-7.0138e-09
1.08398e-08
6.36279e-09
-6.62597e-10
3.70822e-10
5.34215e-10
-2.42441e-10
5.88159e-09
-4.67656e-09
3.58685e-09
-4.79189e-09
-5.74623e-10
-6.89673e-10
2.91769e-10
7.61699e-10
-7.00156e-10
-9.95135e-11
-1.04285e-09
8.9323e-10
-1.77942e-08
2.48387e-09
1.49345e-09
1.38169e-08
2.73066e-10
-7.78427e-10
-1.57235e-10
-3.96082e-09
-1.49039e-08
1.07059e-09
5.65512e-09
1.18849e-08
-5.23135e-09
-1.23087e-08
1.64633e-08
6.00649e-10
-1.59317e-08
-1.13227e-09
-7.46654e-10
5.19323e-10
5.98153e-10
-6.7734e-10
3.559e-10
3.2144e-10
-7.21902e-09
-3.71013e-09
4.38832e-09
-3.1318e-10
4.63179e-10
-1.49999e-10
1.30147e-09
-1.54169e-08
-8.40514e-10
9.26334e-09
-1.05622e-08
-1.08309e-09
-7.76854e-10
1.27079e-08
4.3896e-09
-4.13138e-09
-1.29661e-08
1.94131e-10
7.02578e-09
-7.74956e-09
6.47212e-09
-1.83535e-09
-8.65568e-09
7.94361e-09
2.54742e-09
-1.79687e-09
6.22954e-10
-1.373e-08
-1.84849e-10
-1.28331e-10
-1.95958e-10
1.03459e-09
-8.09794e-09
7.37687e-10
1.73226e-08
-1.59698e-09
-1.31725e-08
1.44577e-08
-1.28516e-09
1.2079e-08
1.4062e-08
-1.55822e-08
-1.05588e-08
-6.94558e-10
1.21384e-09
-5.19284e-10
9.04418e-10
-1.07849e-09
1.74071e-10
1.40517e-09
-1.79529e-09
3.90114e-10
1.6592e-09
-1.36933e-09
-2.89871e-10
-1.10732e-08
5.49333e-10
1.05239e-08
2.34917e-09
-6.89969e-10
8.91366e-09
-1.52685e-08
6.93685e-09
-8.30091e-09
5.85228e-11
3.86917e-09
-4.00604e-10
-2.6954e-09
2.75393e-09
-6.99153e-09
8.31742e-09
-1.32589e-09
-7.52646e-10
4.15753e-09
5.95606e-10
1.72517e-08
-1.45102e-08
-1.61792e-09
-5.67295e-09
5.25166e-09
-1.10934e-09
-2.31379e-10
6.27615e-09
-6.302e-09
2.58539e-11
7.00754e-09
4.40912e-09
1.27564e-10
-1.59824e-08
1.04635e-08
1.75979e-08
5.70648e-09
8.32683e-09
8.25343e-09
-6.82918e-09
1.06791e-09
-1.21411e-08
9.45365e-10
5.94994e-10
-1.27863e-08
3.19022e-09
-4.3629e-10
1.24348e-08
-1.18342e-08
-1.73452e-10
-9.73954e-10
-1.37738e-08
7.31472e-09
8.53077e-10
-3.26802e-11
-8.91935e-09
5.1408e-09
-3.09003e-08
-1.25115e-08
-2.62867e-09
1.36635e-09
1.39336e-08
1.09466e-08
-1.06585e-08
-1.42217e-08
1.57121e-08
-3.1177e-09
-1.25944e-08
1.6789e-09
3.89679e-09
-1.3243e-09
-9.51467e-10
-9.69801e-10
1.28538e-09
6.35888e-10
-2.76106e-10
4.01812e-10
4.08509e-10
6.21367e-08
-6.21616e-08
2.48773e-11
6.20573e-08
-6.23612e-08
3.03863e-10
8.37017e-10
6.47507e-08
-6.55787e-08
8.28063e-10
6.41415e-08
6.0915e-10
-2.24425e-10
-6.65259e-08
9.47121e-10
-6.20438e-08
6.19105e-08
1.33344e-10
1.31818e-09
-6.78441e-08
-6.22025e-08
1.58675e-10
1.22696e-08
-9.79878e-10
1.58865e-09
-3.71324e-09
3.10447e-09
3.95967e-10
-1.25729e-09
1.07265e-09
-7.38187e-10
1.45802e-09
-1.72103e-09
1.0012e-09
1.50384e-09
-1.6534e-09
3.36339e-10
-8.5573e-11
-3.36133e-09
2.97719e-09
-2.22419e-09
2.60832e-09
-7.21256e-10
-2.83168e-09
2.57306e-09
-3.76087e-09
-5.65827e-09
6.31772e-10
-7.05072e-10
1.36809e-09
1.16258e-09
-6.57676e-09
8.00479e-09
2.98109e-09
2.00832e-08
-4.37107e-09
-7.86587e-10
2.98931e-10
1.11943e-09
-1.00508e-08
-2.63268e-08
5.43345e-09
-4.42055e-09
-3.12415e-09
2.11125e-09
1.27071e-10
1.76937e-11
4.62472e-10
-2.73236e-09
3.45695e-09
8.73808e-09
8.56089e-10
-4.57143e-10
2.18686e-09
-2.45097e-09
2.12412e-09
1.47714e-08
1.32242e-08
-2.69901e-08
3.25834e-08
6.24357e-09
-2.28543e-08
-1.03793e-08
1.82395e-08
-1.77919e-08
1.0499e-08
-2.05479e-10
-8.2981e-11
-1.36494e-09
-1.84184e-09
-2.81976e-09
3.8807e-09
1.48434e-08
-5.97757e-10
-1.36227e-08
-2.14117e-10
-2.67297e-09
5.54075e-11
1.54434e-08
1.75675e-08
1.3661e-08
6.8912e-10
-1.57353e-09
-1.27766e-08
-1.76619e-09
6.01888e-09
1.23441e-08
-6.85388e-10
-1.18557e-09
-3.54366e-09
2.73802e-09
3.78283e-09
2.44354e-09
1.42573e-08
4.14779e-09
-1.40154e-08
1.76851e-08
-1.77115e-09
2.73798e-09
-3.56194e-09
1.87941e-09
-4.68223e-09
1.29194e-08
-1.20121e-08
-1.3962e-08
5.03914e-10
8.77587e-09
-1.87819e-09
1.57543e-09
1.67085e-09
-8.68378e-09
6.41397e-10
-4.4691e-09
-6.05309e-09
1.22165e-08
-1.48471e-08
1.30987e-09
1.6665e-09
-2.20963e-09
1.65695e-08
-1.60264e-08
-9.87835e-10
1.40511e-08
2.90846e-09
-4.21435e-09
-1.39627e-08
7.37538e-09
-1.71317e-08
-8.0356e-09
6.60203e-09
5.86092e-09
1.44152e-08
-9.71324e-09
3.1139e-09
9.14677e-09
9.87496e-09
3.83631e-09
-4.1332e-09
2.15221e-08
-1.892e-08
4.77319e-09
-1.02437e-08
2.20937e-09
5.52506e-09
1.36535e-08
-1.22994e-10
1.26465e-08
-1.35114e-08
-1.7843e-09
2.2565e-09
-1.32998e-09
8.57783e-10
1.08737e-08
-6.38684e-09
7.39802e-09
-1.06466e-08
1.39732e-09
-4.7526e-09
1.1323e-08
-1.18018e-08
-7.50719e-09
9.06363e-09
9.3173e-09
1.27441e-08
8.58593e-10
-1.37257e-08
1.62521e-09
8.22747e-10
-1.09653e-08
-6.715e-09
1.01732e-08
-1.64179e-09
2.52207e-09
-8.89269e-09
4.80563e-09
-5.15609e-09
1.13813e-08
-3.49193e-09
-1.1569e-08
3.67958e-09
-4.50865e-09
1.11374e-08
2.02829e-09
1.17235e-09
-5.05804e-09
-1.75556e-08
1.0387e-08
1.22266e-08
8.26799e-10
-1.08499e-08
-9.82682e-09
1.56187e-08
1.2375e-08
2.79386e-09
-9.64385e-09
-1.3241e-08
-2.79117e-10
-1.26544e-08
2.0826e-10
-7.14363e-10
1.14267e-08
1.24496e-08
-8.18405e-09
1.63855e-08
-1.57658e-08
3.52804e-09
-4.47991e-10
1.70741e-09
1.25574e-08
-3.87673e-09
-1.25633e-08
-5.12206e-09
1.145e-09
4.57205e-09
1.20299e-08
-7.32863e-09
8.10093e-10
-1.38276e-09
1.28227e-09
-1.6838e-09
5.98816e-09
2.6033e-08
-3.40582e-10
-1.12248e-08
1.15654e-08
2.83741e-08
-2.21468e-08
2.19521e-08
1.95243e-08
-1.26428e-08
-2.6408e-09
1.49207e-08
2.15052e-10
-1.212e-08
-3.1939e-10
-6.02917e-09
-1.92815e-09
2.32497e-09
1.63148e-09
-1.33212e-10
-1.09026e-08
1.11746e-08
-1.38739e-10
2.96703e-09
-5.45948e-09
-1.07634e-08
1.03853e-08
-8.13063e-10
-1.05479e-08
-8.16881e-11
-1.08671e-08
-2.76637e-09
-1.19e-08
2.24113e-09
7.8421e-09
5.11478e-09
-4.16965e-11
-1.16507e-08
1.15592e-08
6.4105e-10
-8.60175e-09
5.24052e-09
-1.1868e-09
2.55514e-09
-2.79291e-09
-1.30064e-08
-1.30243e-08
1.2642e-08
-1.02118e-08
-1.57969e-08
1.00263e-08
9.13977e-09
8.6595e-10
2.59185e-09
-1.38166e-08
1.1121e-08
1.70306e-09
4.00197e-09
3.49436e-10
-5.83188e-10
-3.40872e-10
-4.062e-09
2.64839e-09
-1.25936e-09
2.81433e-10
-3.29362e-10
4.79287e-11
-2.58575e-09
1.27982e-08
2.16257e-09
2.56696e-09
-5.99281e-10
-1.67199e-09
-2.52825e-10
-2.48705e-09
-5.49887e-10
1.27752e-08
9.87865e-09
-4.26027e-10
6.99651e-09
-1.20709e-09
-5.36339e-09
-9.68451e-09
-5.07723e-09
2.18225e-10
6.32082e-11
4.80368e-09
1.32227e-09
-1.69759e-08
-5.04421e-10
-8.70639e-10
-2.62556e-09
9.60691e-10
2.76162e-09
6.19358e-08
-8.77283e-11
-6.18481e-08
6.23522e-08
1.87532e-10
-6.25397e-08
-1.41885e-08
-1.54854e-11
1.45518e-08
-3.47806e-10
2.8646e-09
-1.98384e-09
2.71152e-09
1.79439e-09
-4.40763e-09
-4.3231e-10
-6.01617e-10
4.87799e-10
-1.28622e-10
5.48986e-10
-3.88555e-10
1.93391e-08
1.11426e-09
-1.56496e-08
-2.46517e-10
-1.95237e-09
1.22717e-08
2.23807e-09
1.7579e-09
5.26052e-09
-1.97149e-09
-7.72351e-08
-2.41776e-08
-4.78388e-09
1.57627e-08
2.3315e-09
-5.08277e-10
-3.23813e-09
-1.27804e-09
5.73216e-10
-4.80737e-10
-1.12133e-08
-3.20778e-10
1.15341e-08
-1.07125e-08
-6.64149e-09
1.0639e-08
-9.34552e-09
8.77966e-09
5.35686e-12
1.74287e-09
1.0696e-08
-1.05084e-08
-1.87652e-10
6.93969e-10
7.65473e-11
1.01707e-08
9.22201e-10
-1.01889e-09
-2.538e-10
-1.42452e-08
-5.17267e-10
-1.35818e-08
1.23624e-08
-1.16566e-08
-6.59933e-08
6.49494e-08
1.04394e-09
3.75039e-10
-3.57346e-10
1.17806e-08
-3.44227e-10
1.48648e-11
-2.02767e-09
2.7786e-09
-3.41952e-09
-1.3509e-08
-1.65359e-09
2.57217e-09
-4.76046e-09
-1.39123e-08
1.6969e-09
5.60428e-09
9.51489e-09
-8.84963e-09
-3.72861e-10
2.8634e-11
-9.34603e-09
-1.30335e-08
1.49641e-10
-6.27097e-08
2.38113e-10
6.24716e-08
6.96599e-10
6.34449e-08
-2.2579e-10
-1.25162e-09
-1.44202e-08
1.06306e-10
-6.33746e-08
6.32683e-08
1.81188e-10
-6.29237e-08
6.27425e-08
4.64651e-10
6.18051e-08
1.51898e-10
-6.1957e-08
6.16351e-08
1.70069e-10
-8.79064e-08
8.85157e-08
-2.30565e-13
9.33979e-08
-9.31057e-08
-2.67292e-10
-8.66456e-08
-4.32668e-10
9.33569e-08
-1.83384e-10
-8.49309e-08
-7.67575e-10
9.34875e-08
1.73293e-10
-5.20123e-10
1.96121e-09
9.23633e-08
-6.93414e-08
6.21489e-08
-6.23313e-08
-6.2967e-08
6.14914e-08
1.43648e-10
-3.014e-09
2.82837e-09
-1.38298e-08
6.99104e-11
1.48314e-10
1.91926e-09
9.03849e-09
-1.14778e-08
3.82983e-08
-3.44626e-08
-1.66221e-08
1.37804e-08
-6.48839e-11
-2.22979e-10
2.35628e-10
8.4241e-10
-1.59951e-10
3.71643e-10
4.59545e-09
1.0278e-09
-3.74384e-09
-3.01919e-10
3.54186e-10
-2.36467e-10
-2.47793e-09
1.29567e-08
2.31944e-09
-1.44505e-08
-2.52002e-09
-3.53781e-09
5.6525e-09
1.0542e-09
-2.65445e-09
1.42061e-08
-1.16462e-09
-3.0565e-09
4.12395e-09
-8.1675e-09
-1.90579e-08
-1.32493e-08
7.78022e-09
5.97296e-09
-2.88267e-10
-5.32679e-10
3.14591e-09
1.44289e-08
2.10179e-09
-1.63926e-09
-4.45242e-10
4.90414e-10
-2.76551e-10
1.60039e-08
-5.01226e-10
-1.58234e-08
-1.88462e-09
-1.48723e-09
3.00112e-10
-2.2795e-10
3.53269e-09
-1.70621e-08
5.69832e-10
-1.64274e-09
-2.25261e-09
-2.40393e-09
1.53682e-08
-9.06048e-08
-1.40304e-10
9.16909e-08
-1.91831e-10
-8.91806e-08
-4.77913e-10
9.31106e-08
-2.75254e-10
-9.2923e-08
-5.94871e-10
-1.73784e-09
1.64339e-08
9.19924e-08
-1.9416e-10
3.18369e-11
-2.20954e-10
1.02629e-08
2.48356e-09
-8.42311e-09
-1.19989e-08
-5.67313e-09
8.46221e-09
1.40783e-09
-6.88894e-09
-6.16935e-09
9.01387e-09
-1.55617e-10
1.01574e-08
1.93917e-08
-1.77834e-08
3.05142e-09
-1.25353e-08
3.02338e-09
-6.99526e-08
3.95926e-09
-2.03893e-08
-1.30387e-08
-5.58144e-10
-5.94248e-09
-1.53223e-08
9.14476e-09
-1.52264e-08
5.19813e-10
4.3912e-10
-1.6727e-09
-1.6321e-08
1.68552e-08
8.12402e-09
-8.37054e-09
-5.22453e-09
1.51471e-08
-1.71422e-09
7.73227e-10
-1.28636e-09
3.71069e-10
1.19163e-08
3.33624e-09
7.09376e-08
-1.80933e-08
8.6226e-10
-1.4815e-08
-2.74269e-10
-3.20972e-10
-1.15059e-10
6.09536e-08
-6.12289e-08
-6.33428e-08
-6.31179e-08
-6.24074e-11
-2.62527e-10
-9.25981e-08
-6.04553e-08
6.24165e-08
6.50634e-08
-6.0282e-08
6.45432e-08
-6.04654e-08
6.37757e-08
-6.07327e-08
6.3343e-08
9.23211e-08
3.42377e-10
-6.43074e-09
7.51098e-08
-6.53429e-08
7.54253e-11
-7.54253e-11
1.13905e-09
-3.5943e-10
1.54988e-08
-7.74151e-11
7.74151e-11
4.23733e-10
1.5701e-09
1.38587e-08
1.32246e-08
-2.77539e-09
3.75355e-09
6.34431e-09
1.93881e-09
4.25634e-10
-2.98091e-10
-2.95089e-09
1.44798e-08
1.48384e-08
-4.26869e-09
1.17867e-08
2.29605e-10
1.82682e-10
2.89318e-09
-9.48533e-10
-1.67514e-09
-5.89193e-09
-1.70022e-10
-4.48518e-10
1.52796e-08
3.18489e-10
1.16715e-10
1.52784e-08
-2.59383e-08
1.74906e-08
2.60692e-09
1.39594e-09
2.40791e-09
-3.68544e-09
1.91427e-08
-1.78652e-08
-1.09424e-10
5.6703e-10
-1.44319e-09
-7.92221e-08
-7.07846e-08
1.42014e-09
-8.56006e-10
6.94902e-10
2.28504e-08
1.84934e-08
-6.41285e-09
1.04938e-10
-4.41412e-09
-2.3809e-09
2.99913e-08
1.52971e-10
1.48186e-08
7.35821e-08
7.82025e-11
5.4355e-10
-1.9307e-10
-2.56234e-10
-3.78693e-09
2.41715e-08
-1.48415e-08
1.13116e-09
-1.39825e-08
-7.28884e-11
2.02759e-08
-2.86823e-08
9.07249e-10
2.23932e-09
-5.07431e-10
)
;

boundaryField
{
    back
    {
        type            empty;
        value           nonuniform 0();
    }
    ingreso
    {
        type            calculated;
        value           nonuniform List<scalar> 
14
(
-1.54286e-08
-1.54288e-08
-1.54288e-08
-1.54288e-08
-1.54286e-08
-1.54283e-08
-1.54288e-08
-1.54288e-08
-1.54286e-08
-1.54286e-08
-1.54288e-08
-1.5428e-08
-1.5428e-08
-1.54286e-08
)
;
    }
    salida
    {
        type            calculated;
        value           nonuniform List<scalar> 2(1.01413e-07 1.14587e-07);
    }
    front
    {
        type            empty;
        value           nonuniform 0();
    }
    defaultFaces
    {
        type            calculated;
        value           uniform 0;
    }
}


// ************************************************************************* //
