/*--------------------------------*- C++ -*----------------------------------*\
  =========                 |
  \\      /  F ield         | OpenFOAM: The Open Source CFD Toolbox
   \\    /   O peration     | Website:  https://openfoam.org
    \\  /    A nd           | Version:  8
     \\/     M anipulation  |
\*---------------------------------------------------------------------------*/
FoamFile
{
    version     2.0;
    format      ascii;
    class       volScalarField;
    location    "8";
    object      p;
}
// * * * * * * * * * * * * * * * * * * * * * * * * * * * * * * * * * * * * * //

dimensions      [0 2 -2 0 0 0 0];

internalField   nonuniform List<scalar> 
7843
(
1.74449e-06
5.5077e-06
5.89617e-06
7.38347e-06
1.29717e-06
7.48726e-06
7.09988e-06
9.97095e-07
7.344e-06
1.64719e-06
4.17582e-06
1.68602e-06
7.3416e-06
4.39935e-06
3.29566e-06
3.96767e-06
4.09831e-06
3.3626e-06
7.36909e-06
7.22868e-06
7.33425e-06
7.1732e-06
4.25135e-06
6.61488e-06
3.24894e-06
7.32992e-06
2.12093e-07
7.23423e-06
6.75914e-07
7.35843e-06
7.24544e-06
2.21781e-06
7.28155e-06
1.136e-06
3.95601e-06
3.65052e-06
3.07096e-06
7.09702e-06
7.35153e-06
6.08672e-06
3.22442e-06
4.67524e-06
1.30255e-06
5.42317e-06
7.34398e-06
7.15342e-06
4.32554e-06
7.00525e-06
5.89772e-06
7.35438e-06
7.34243e-06
5.34022e-06
2.47946e-06
7.04887e-06
1.48343e-06
7.36319e-06
7.10947e-06
7.31869e-06
5.12423e-07
7.34074e-06
1.14995e-06
6.97057e-06
7.05511e-06
7.27997e-06
3.05323e-07
3.83057e-06
3.82724e-06
7.36045e-06
7.10932e-06
1.0719e-06
7.32635e-06
2.3107e-06
6.19619e-06
7.34286e-06
7.33345e-06
3.60496e-06
1.37628e-06
1.22646e-06
1.95199e-06
7.47451e-06
7.34282e-06
4.93872e-07
4.47458e-06
7.21026e-06
1.63879e-06
1.78221e-06
7.22398e-06
6.80501e-07
7.18067e-06
7.15021e-06
7.33321e-06
4.92108e-06
7.35754e-06
7.25314e-06
7.22836e-06
2.04774e-06
7.35972e-06
2.03136e-07
7.334e-06
3.69479e-06
2.59633e-07
2.49913e-07
7.20048e-06
3.40737e-07
7.3223e-06
6.43623e-06
7.35766e-06
7.31373e-06
6.48009e-06
5.09742e-06
6.56735e-07
7.03114e-06
6.97287e-06
1.98287e-06
7.27078e-06
6.0514e-06
7.18996e-06
9.96161e-07
7.31706e-06
5.15402e-06
1.37094e-06
1.05993e-06
4.56173e-06
1.14819e-06
7.33527e-06
7.04488e-06
4.75727e-06
6.72471e-06
6.52828e-06
7.46291e-06
4.99926e-06
7.22055e-06
7.3152e-06
1.38702e-06
6.10481e-06
2.99197e-06
7.31211e-06
6.9441e-06
3.14881e-06
7.6009e-07
7.33097e-06
6.64429e-06
7.24866e-06
7.20474e-06
7.35851e-06
7.30242e-06
4.58666e-06
6.20434e-06
6.76645e-06
6.77876e-06
1.78669e-06
7.08184e-06
7.26319e-06
5.37842e-06
4.05194e-06
4.07747e-06
7.30425e-06
7.21192e-06
5.69904e-06
2.56436e-06
7.33579e-06
4.23589e-06
6.74801e-06
4.39388e-06
5.43372e-06
9.17332e-07
7.22275e-06
1.09589e-07
2.40776e-06
4.55273e-06
7.54282e-07
5.18823e-06
4.71158e-06
7.26051e-06
4.94957e-06
7.33631e-06
5.82001e-07
7.34381e-06
4.22237e-06
1.61095e-06
1.57398e-06
1.35742e-06
7.33324e-06
5.79566e-06
4.17574e-06
7.07034e-06
7.35689e-06
7.00974e-06
2.0332e-06
7.14007e-06
2.23291e-06
2.38968e-06
7.28319e-06
7.34544e-06
4.84597e-06
7.34913e-06
7.33464e-06
7.23835e-06
8.37661e-07
6.29226e-06
5.25872e-06
5.98355e-07
4.84271e-06
1.82827e-06
4.03825e-07
7.35039e-06
4.16666e-07
7.35185e-06
7.32857e-06
5.23e-06
6.82999e-06
5.17787e-06
6.43476e-06
3.18131e-06
4.27858e-06
6.36596e-06
7.25069e-06
1.84348e-06
7.34762e-06
7.06545e-06
7.23174e-06
7.13096e-06
1.39938e-07
5.51892e-06
6.92134e-06
7.2627e-06
6.83812e-06
3.75552e-06
5.60704e-06
6.97465e-06
6.9806e-06
7.3565e-06
7.35341e-06
1.5296e-06
7.15323e-06
4.35445e-06
1.66425e-06
6.79349e-06
3.97651e-06
2.36918e-07
1.81455e-06
2.83557e-06
1.73716e-06
3.08114e-06
7.04169e-06
4.14634e-06
7.29172e-06
7.12028e-06
4.85946e-06
4.10168e-06
7.45187e-06
7.35199e-06
1.95311e-06
4.50635e-06
5.67103e-06
1.89538e-06
6.92146e-06
4.43008e-06
2.39872e-07
7.31616e-06
7.29373e-06
7.15696e-06
2.59577e-07
4.73432e-06
1.67495e-06
6.98577e-06
7.35122e-06
5.26861e-06
7.35268e-06
6.80559e-06
7.33644e-06
7.355e-06
7.29783e-06
6.77014e-06
4.96346e-06
7.23332e-06
2.14105e-06
1.51158e-06
7.07147e-06
4.90727e-06
7.75792e-07
4.58225e-06
5.07679e-06
7.23684e-06
7.28804e-06
7.34765e-06
7.13684e-06
4.8653e-06
6.30262e-07
5.44887e-06
7.35134e-06
7.25193e-06
7.29019e-06
1.7045e-06
7.05517e-06
2.46441e-06
2.83661e-06
6.99987e-06
6.75659e-06
5.50826e-06
6.86397e-06
7.18642e-06
2.76258e-06
2.44636e-06
7.28479e-06
7.07184e-06
7.35073e-06
6.28132e-06
7.08993e-06
7.0273e-06
7.07092e-06
6.76014e-06
7.20283e-06
7.33951e-06
7.34298e-06
7.22348e-06
5.35034e-06
4.50771e-06
7.27215e-06
2.82743e-06
7.34102e-06
7.34285e-06
5.02888e-06
4.81034e-06
7.11994e-06
6.8854e-06
7.40027e-06
7.28321e-06
6.95147e-06
7.34284e-06
2.63292e-06
4.65821e-06
7.29144e-06
7.32026e-06
6.70881e-06
7.15298e-06
2.89407e-07
2.60033e-06
6.13467e-06
7.16459e-06
7.11978e-06
2.28797e-06
7.3428e-06
3.19872e-07
6.98136e-06
2.77769e-07
2.52939e-06
7.13771e-06
7.08035e-06
1.70578e-07
7.37642e-06
2.45735e-06
7.34379e-06
7.34276e-06
2.1136e-06
7.34763e-06
7.08392e-06
7.08119e-06
2.10151e-06
5.30497e-06
7.6551e-06
5.04051e-06
6.91349e-06
7.89014e-06
7.35891e-06
2.40226e-06
5.69388e-06
7.11209e-06
7.25972e-06
5.52101e-06
5.39163e-06
7.29831e-06
1.90777e-06
7.09329e-06
1.29373e-06
7.45772e-06
4.79078e-06
4.32578e-06
4.33271e-06
7.4833e-06
4.99773e-06
7.22983e-06
7.39153e-06
7.11469e-06
3.17134e-07
2.39754e-06
4.32787e-06
7.33845e-06
2.00257e-07
3.12572e-06
4.25175e-06
7.30089e-06
7.29504e-06
7.33338e-06
7.00659e-06
2.68342e-06
7.35084e-06
6.69802e-06
7.28562e-06
1.2758e-06
1.62247e-06
7.34499e-06
7.33733e-06
5.40389e-08
5.67685e-06
5.64819e-06
5.19466e-06
5.76914e-06
7.3409e-06
6.96419e-06
7.03434e-06
2.12969e-06
6.18854e-06
7.27641e-06
6.05782e-06
7.34264e-06
7.3491e-06
5.71696e-06
4.88672e-06
5.10844e-06
7.17257e-06
7.04514e-06
7.33935e-06
2.17922e-06
1.75952e-07
1.48646e-07
7.14857e-06
1.83555e-07
7.30463e-06
7.05525e-06
7.36265e-06
7.34958e-06
2.29896e-06
7.35655e-06
6.16336e-06
6.87067e-06
7.30059e-06
5.59598e-06
2.92121e-06
7.35005e-06
1.88427e-06
7.29572e-06
7.16827e-06
7.33814e-06
5.84112e-06
7.07009e-06
7.05266e-06
6.50438e-06
7.27534e-06
5.82599e-06
8.98646e-07
8.36376e-07
7.07844e-06
7.03633e-06
7.10308e-06
2.72511e-06
2.27932e-06
7.2717e-06
6.1925e-06
7.34734e-06
7.18167e-06
5.85e-07
1.58487e-07
1.4999e-07
7.17943e-06
2.16943e-07
7.14735e-06
7.10449e-06
7.32955e-06
6.83325e-06
2.78273e-06
7.36803e-07
7.33634e-06
7.36054e-06
7.18178e-06
2.035e-06
5.94889e-06
7.34715e-06
6.96836e-06
5.51584e-06
6.85323e-06
7.21762e-06
7.25092e-06
7.30901e-06
6.87135e-06
7.09866e-06
2.59103e-06
6.1318e-06
7.55174e-08
5.09395e-07
4.69047e-06
6.05916e-06
7.3478e-06
2.12372e-06
7.26369e-06
7.42556e-06
6.27524e-08
7.63937e-08
7.25068e-06
7.344e-06
2.91271e-06
7.33941e-06
1.05708e-06
6.56653e-06
2.15693e-06
1.37223e-06
9.78183e-07
7.33984e-06
2.30328e-06
6.2132e-06
7.34428e-06
7.35491e-06
3.00088e-06
2.74905e-06
6.97792e-06
5.59058e-06
6.91602e-06
7.24121e-06
7.31409e-06
6.90174e-06
6.44918e-06
6.73383e-06
2.1854e-06
5.11755e-06
7.10378e-06
6.12984e-06
5.43182e-06
7.28115e-06
6.81555e-06
7.16026e-06
7.32835e-06
7.34694e-06
4.93805e-06
7.33634e-06
7.23405e-06
7.146e-06
7.2735e-06
7.34742e-06
5.19867e-06
7.20075e-06
2.07892e-06
7.32952e-06
5.11967e-06
3.95265e-07
5.6527e-06
7.17256e-06
5.77847e-07
2.17553e-06
3.66801e-06
4.87024e-06
7.31061e-06
5.58505e-06
7.2699e-06
7.22961e-06
7.07222e-06
5.01706e-06
6.32066e-06
6.91156e-06
7.3549e-06
1.6078e-06
6.32739e-06
5.20829e-06
5.65009e-06
4.24847e-06
7.32076e-06
1.13602e-06
7.3347e-06
1.57241e-06
3.38282e-06
6.98942e-06
5.46589e-06
2.30834e-06
6.70777e-07
7.3296e-06
6.97567e-06
5.78301e-06
4.83056e-06
7.1976e-06
7.06654e-06
5.25151e-07
7.31163e-06
7.2863e-06
1.14616e-06
7.1831e-06
7.34813e-06
6.98462e-06
7.19772e-06
5.32559e-06
7.09238e-06
7.24553e-06
7.15702e-06
7.23677e-06
7.32975e-06
3.23847e-06
6.68042e-06
1.57226e-06
7.32211e-06
6.06343e-06
7.33056e-06
7.12884e-06
7.01908e-06
7.35404e-06
1.59346e-06
7.48393e-08
1.11869e-07
5.39372e-06
5.17787e-06
3.85284e-06
2.85914e-06
7.27846e-06
7.31547e-06
5.07404e-06
6.29639e-06
6.94512e-06
3.01272e-06
5.20783e-06
7.32683e-06
3.47697e-06
5.37002e-06
7.18387e-06
7.35144e-06
7.37072e-06
4.75165e-06
7.01743e-06
7.18726e-06
7.11538e-06
6.65524e-06
7.17865e-06
7.08119e-06
5.96605e-06
7.02024e-06
6.85733e-06
6.54108e-06
3.73211e-06
7.00214e-06
2.20993e-07
7.24755e-06
7.31967e-06
7.31186e-06
7.23177e-06
7.03217e-06
6.92146e-06
5.63672e-06
4.48626e-06
4.48581e-06
7.28556e-07
7.03941e-06
3.63628e-06
6.93675e-06
7.2818e-06
7.34431e-06
7.3419e-06
7.28028e-06
7.06565e-06
6.94014e-06
7.21302e-06
7.25778e-06
7.26209e-06
4.96174e-06
3.14529e-06
5.56083e-06
7.3102e-06
7.34218e-06
7.19071e-06
8.18296e-07
7.34622e-06
7.08965e-06
7.01753e-06
2.64608e-06
1.54678e-06
6.98677e-06
6.21513e-06
3.32667e-06
7.04529e-06
7.34347e-06
6.95384e-06
5.90492e-06
7.17984e-06
7.13017e-06
5.34976e-06
7.35181e-06
3.99437e-06
7.33071e-06
4.89842e-06
7.00095e-06
7.24425e-06
1.13682e-06
7.06915e-06
7.29633e-06
6.70312e-06
4.40043e-06
2.49288e-06
5.42843e-06
3.54214e-06
6.84629e-06
7.05587e-06
7.11935e-06
7.30199e-06
3.42442e-06
7.17115e-06
6.99212e-06
1.06579e-06
7.34059e-06
6.33323e-06
1.73264e-06
7.34007e-06
7.34727e-06
7.33531e-06
6.99718e-06
7.34075e-06
3.30403e-06
7.34707e-06
5.61691e-07
7.23306e-06
3.24403e-07
7.33143e-06
7.39827e-06
4.63238e-06
7.34557e-06
5.62832e-06
7.18686e-06
7.32595e-06
7.30997e-06
3.72285e-06
1.34158e-06
6.92298e-06
7.04611e-06
7.01732e-06
7.33671e-06
6.62948e-06
7.21944e-06
6.94455e-06
4.97214e-06
7.06186e-06
8.07634e-07
2.60472e-06
4.59406e-07
5.62649e-06
6.25851e-06
7.21132e-06
5.84304e-06
4.39257e-07
7.34457e-06
7.0579e-06
7.34568e-06
7.29456e-06
6.97368e-06
7.19753e-06
7.15846e-06
7.07298e-06
7.0585e-06
6.94284e-06
7.33564e-06
6.90163e-06
2.34957e-07
6.25729e-06
7.10603e-06
7.0367e-06
1.6952e-06
7.04895e-06
7.02437e-06
7.24779e-06
6.98615e-06
2.00013e-06
7.34972e-06
7.31449e-06
7.21587e-06
7.03497e-06
7.08325e-06
7.21818e-06
5.09277e-07
7.34651e-06
7.31965e-06
3.48241e-06
9.69597e-07
2.47851e-06
9.46112e-07
7.45937e-06
6.96503e-06
7.33669e-06
5.68385e-06
7.20565e-06
7.54033e-07
6.45736e-06
5.14409e-07
7.3503e-06
7.14959e-06
7.33817e-06
7.2507e-07
7.13936e-06
7.08288e-06
7.3109e-06
6.55086e-06
7.06096e-06
6.63001e-06
7.10216e-06
7.32734e-06
7.32444e-06
7.21001e-06
7.16912e-06
7.33951e-06
7.23414e-06
5.89738e-06
3.15937e-06
7.0959e-06
2.52534e-06
7.26575e-06
7.31354e-06
7.06071e-06
4.80307e-06
6.87692e-06
1.98319e-06
7.33941e-06
6.65737e-06
1.18672e-06
4.69201e-07
7.10222e-06
7.01445e-06
2.15898e-06
7.19118e-06
6.99307e-06
7.42785e-06
7.17325e-06
7.11241e-06
4.62227e-06
7.18097e-06
6.75423e-06
7.1836e-06
7.08768e-06
7.33536e-06
7.08728e-06
6.85114e-06
7.09187e-06
3.71532e-06
2.36682e-06
7.08724e-06
7.3534e-06
7.25943e-06
3.04194e-07
7.2828e-06
2.37819e-06
7.26448e-06
7.34103e-06
9.22806e-07
7.33913e-06
7.315e-06
7.02931e-06
7.33887e-06
1.21179e-06
5.86515e-06
7.31687e-06
7.22175e-06
7.09267e-06
7.10377e-06
7.29587e-06
1.29255e-06
6.70642e-06
6.77709e-06
7.32613e-06
6.44497e-06
7.30789e-06
7.19918e-06
7.02166e-06
5.75152e-06
7.14558e-06
7.27969e-06
7.21065e-06
4.02232e-07
7.35797e-06
6.51191e-06
7.24621e-06
6.91419e-06
7.25663e-06
7.34553e-06
7.09036e-06
6.28396e-06
7.22491e-06
6.93065e-06
7.35568e-06
7.3331e-06
7.23473e-06
7.14363e-06
6.57811e-06
7.35052e-06
6.77132e-06
7.3166e-06
5.05652e-06
1.19017e-06
6.60427e-06
4.76892e-06
7.05563e-06
6.68316e-06
7.32642e-06
7.34639e-06
7.13367e-06
7.10003e-06
7.12117e-06
5.52913e-06
5.83706e-06
7.1969e-06
7.33062e-06
7.0077e-06
6.14698e-06
7.32508e-06
7.03478e-06
7.03801e-06
7.0251e-06
7.31965e-06
7.11434e-06
1.92092e-06
7.33825e-06
6.17438e-06
1.5194e-06
7.35396e-06
1.45431e-06
7.25937e-06
7.16021e-06
7.09359e-06
7.28712e-06
7.09311e-06
4.72329e-06
7.23069e-06
5.35493e-06
7.248e-06
7.3088e-06
7.264e-06
1.37347e-06
7.22667e-06
4.0941e-06
7.25926e-06
7.23781e-06
5.59931e-06
7.15755e-06
3.57243e-06
6.42887e-06
7.12455e-06
7.19668e-06
7.25826e-06
6.5367e-07
7.46225e-07
7.17804e-06
7.11145e-06
7.2372e-06
7.11487e-06
3.79457e-06
7.0396e-06
1.19769e-07
4.46418e-07
7.19758e-06
7.34503e-06
7.16925e-06
6.29572e-06
7.25345e-06
7.333e-06
1.86078e-06
7.16484e-06
7.3281e-06
7.34935e-06
9.96792e-07
7.20217e-06
7.07661e-06
1.10601e-06
7.30868e-06
7.2796e-06
7.09122e-06
6.36002e-06
7.22716e-06
4.14245e-07
7.24557e-06
7.35112e-06
7.28975e-06
7.33298e-06
2.10437e-06
1.9717e-06
6.96954e-06
7.17579e-06
7.34134e-06
7.25994e-06
7.35024e-06
7.09969e-06
6.2258e-06
7.26745e-06
7.27221e-06
7.18733e-06
7.2229e-06
6.37406e-06
7.3205e-06
6.91812e-06
7.19208e-06
1.46164e-06
7.32904e-06
7.25905e-06
7.21294e-06
7.30888e-06
7.27497e-06
7.307e-06
7.20187e-06
4.40763e-06
2.09899e-06
7.33962e-06
7.3411e-06
6.15987e-06
6.01307e-06
7.31389e-06
7.32226e-06
7.2669e-06
7.07091e-06
7.24344e-06
7.10313e-06
7.29281e-06
7.20283e-06
7.22957e-06
6.55517e-06
5.86957e-06
7.06044e-06
7.22211e-06
7.32228e-06
5.64579e-06
7.23042e-06
7.30412e-06
7.04683e-06
7.21326e-06
7.28227e-06
7.29721e-06
7.30311e-06
7.32174e-06
6.0721e-06
7.11244e-06
7.32967e-06
7.34488e-06
7.27605e-06
1.7748e-06
7.25685e-06
7.24869e-06
7.24008e-06
7.23195e-06
7.35492e-06
7.27221e-06
6.01131e-06
7.27114e-06
6.20608e-06
7.06364e-06
7.12076e-06
5.93299e-06
4.31698e-07
7.29589e-06
7.25891e-06
7.02506e-06
7.31266e-06
7.31976e-06
7.35031e-06
5.9213e-06
7.2948e-06
7.2865e-06
7.00362e-06
5.71421e-06
2.33723e-06
7.32295e-06
7.19856e-07
7.29606e-06
7.35071e-06
7.34052e-06
7.33119e-06
6.12219e-06
7.33325e-06
7.31312e-06
7.32312e-06
5.94602e-06
7.31746e-06
6.65722e-06
7.34679e-06
5.67645e-06
6.77845e-06
7.16188e-06
6.90336e-06
5.6718e-06
7.19126e-06
5.57002e-06
7.35471e-06
7.24862e-06
7.263e-06
7.35712e-06
6.13963e-06
7.35721e-06
7.34127e-06
5.04081e-06
7.1851e-06
7.35165e-06
7.34868e-06
7.33316e-06
7.3153e-06
7.02297e-06
7.27904e-06
7.2566e-06
7.0111e-06
5.58052e-06
7.31405e-06
7.32245e-06
5.62869e-06
7.31256e-06
7.25309e-06
6.0348e-06
4.47335e-06
7.24621e-06
2.57541e-06
7.32207e-06
7.35214e-06
7.34454e-06
7.21528e-06
7.29743e-06
7.35188e-06
7.27368e-06
7.34327e-06
5.52716e-06
5.68445e-06
3.08004e-06
7.29142e-06
6.66509e-06
5.35845e-06
7.32393e-06
7.24224e-06
7.20775e-06
7.34138e-06
7.30676e-06
6.35532e-06
7.3432e-06
7.32446e-06
7.27792e-06
7.3418e-06
5.60458e-07
7.09181e-06
7.34234e-06
1.69462e-06
4.56453e-06
6.05211e-06
3.18957e-07
7.27068e-06
7.20995e-06
7.3271e-06
5.85189e-06
7.34265e-06
7.34654e-06
1.45764e-06
3.55648e-06
6.33971e-06
7.34134e-06
7.30959e-06
7.31274e-06
5.91749e-06
7.08951e-06
7.30551e-06
7.1545e-06
7.34619e-06
5.64573e-06
7.29986e-06
5.9318e-06
4.64357e-06
7.15921e-06
7.09347e-06
1.07122e-06
7.28819e-06
5.20431e-06
7.34531e-06
6.00683e-06
7.27735e-06
7.33709e-06
2.02477e-06
7.3321e-06
5.53591e-06
7.32623e-06
7.32453e-06
7.15763e-06
7.34739e-06
3.58403e-06
7.34607e-06
7.32959e-06
7.34023e-06
5.02086e-07
7.09579e-06
7.31207e-06
7.30366e-06
7.06423e-06
7.25102e-06
5.277e-06
5.91682e-07
7.34863e-06
7.21616e-06
7.31774e-06
7.32504e-06
7.31154e-06
7.29988e-06
7.15649e-06
6.082e-06
7.26224e-06
6.29757e-06
7.33555e-06
3.53577e-06
7.28897e-06
7.22941e-06
5.43309e-06
7.0221e-06
7.27466e-06
7.08096e-06
7.20364e-06
7.33237e-06
7.34692e-06
7.32944e-06
5.50421e-06
7.35599e-06
7.34092e-06
7.33818e-06
2.97222e-06
7.1228e-06
5.89537e-06
7.29326e-06
3.87405e-06
7.35352e-06
7.33198e-06
6.9626e-06
5.99006e-06
5.64854e-06
7.31441e-06
5.7011e-06
5.51194e-06
7.27208e-06
7.31793e-06
5.51869e-06
5.91781e-06
7.34175e-06
7.29735e-06
5.79176e-06
4.96867e-06
7.34529e-06
2.01943e-06
7.30861e-06
7.08399e-06
7.32792e-06
7.07639e-06
7.25118e-06
7.34452e-06
7.03048e-06
7.34581e-06
5.15402e-07
7.33294e-06
7.078e-06
7.34371e-06
5.92502e-06
5.75698e-06
5.83103e-06
5.84528e-06
7.29779e-06
7.35266e-06
7.26886e-06
7.33713e-06
7.07602e-06
7.34291e-06
5.10297e-06
7.34596e-06
7.35356e-06
7.18186e-06
7.35193e-06
7.26149e-06
5.63918e-06
5.90445e-06
7.34583e-06
7.33317e-06
7.29304e-06
1.78115e-06
7.30587e-06
6.06058e-06
7.34974e-06
7.30709e-06
7.32899e-06
7.35192e-06
7.3715e-06
6.03087e-06
7.34913e-06
5.80689e-06
7.32121e-06
7.34873e-06
7.33636e-06
6.23497e-06
7.34506e-06
1.6145e-06
7.34142e-06
5.76339e-06
6.31607e-06
7.33346e-06
7.34516e-06
7.06508e-06
5.62466e-06
7.28098e-06
6.05135e-06
7.34499e-06
7.34516e-06
7.33747e-06
7.32384e-06
7.32966e-06
6.04536e-06
5.90875e-06
3.59664e-07
7.32708e-06
4.80495e-07
7.28567e-06
7.24449e-06
7.3225e-06
7.35454e-06
6.84728e-06
6.9911e-06
7.29771e-06
7.34166e-06
7.29414e-06
6.84086e-06
5.94441e-06
6.17044e-06
5.44629e-06
7.33332e-06
7.32158e-06
7.35e-06
7.30697e-06
7.32241e-06
7.36415e-06
5.83153e-06
7.31035e-06
7.3518e-06
7.34675e-06
7.34527e-06
7.25472e-06
7.26255e-06
7.21482e-06
7.31948e-06
6.52476e-06
5.90759e-06
7.21235e-06
5.81093e-06
7.32076e-06
7.27413e-06
7.32288e-06
7.34205e-06
3.75074e-06
7.28611e-06
5.44956e-06
7.04832e-06
5.74608e-06
7.35192e-06
7.353e-06
5.66284e-06
6.83958e-06
7.10822e-06
5.91434e-06
7.21968e-06
7.34446e-06
7.36024e-06
5.5765e-06
5.82791e-06
7.3382e-06
7.29512e-06
6.02298e-06
7.32413e-06
7.31091e-06
7.4763e-06
6.43771e-06
7.32078e-06
7.32594e-06
7.3512e-06
7.29053e-06
7.3304e-06
7.14304e-06
7.33386e-06
7.35054e-06
7.31746e-06
7.33113e-06
7.30285e-06
7.32393e-06
2.20892e-06
7.35287e-06
5.81059e-06
7.33779e-06
5.89102e-06
7.32788e-06
7.34933e-06
7.38751e-06
7.343e-06
7.31563e-06
7.35208e-06
7.32423e-06
7.40668e-06
7.32346e-06
7.32514e-06
7.36391e-06
7.34731e-06
7.31565e-06
7.033e-06
5.6682e-06
7.34383e-06
7.35128e-06
7.34604e-06
7.29849e-06
6.72225e-07
5.46138e-06
7.3504e-06
7.3165e-06
7.34706e-06
7.34735e-06
7.34977e-06
7.34976e-06
5.7394e-06
5.66514e-06
7.35787e-06
6.73183e-06
4.57159e-06
7.35239e-06
5.36986e-06
7.30924e-06
7.32426e-06
5.71851e-06
7.34115e-06
7.35817e-06
7.31985e-06
7.34765e-06
7.32587e-06
7.35274e-06
7.34704e-06
7.35098e-06
7.35743e-06
7.06931e-06
7.27392e-06
5.79239e-06
5.83971e-06
7.34259e-06
7.34626e-06
7.32533e-06
5.32348e-06
5.72726e-06
7.28955e-06
7.35015e-06
7.34682e-06
5.39499e-06
7.31594e-06
7.34573e-06
7.34558e-06
5.85798e-06
6.85417e-06
7.3591e-06
7.35598e-06
5.22222e-07
7.34395e-06
7.35758e-06
7.34823e-06
7.34675e-06
7.34762e-06
5.39022e-06
7.34893e-06
5.74447e-06
7.37083e-06
7.34101e-06
7.32797e-06
7.33894e-06
7.27268e-06
7.35367e-06
7.36416e-06
7.3464e-06
7.14215e-06
7.34293e-06
7.35689e-06
7.32561e-06
5.81919e-06
5.96269e-06
7.35141e-06
7.37035e-06
7.32316e-06
7.34427e-06
7.34944e-06
7.34739e-06
7.35293e-06
7.34973e-06
7.14056e-06
7.35116e-06
7.19677e-06
6.79846e-06
7.35235e-06
7.10433e-06
7.329e-06
7.32822e-06
5.29278e-06
7.31637e-06
5.72459e-06
7.34156e-06
7.32509e-06
7.35366e-06
5.20853e-06
7.33546e-06
7.34971e-06
7.35297e-06
7.32638e-06
7.33306e-06
7.33861e-06
7.35088e-06
7.32578e-06
7.32591e-06
7.20648e-06
5.28813e-06
7.35505e-06
7.34912e-06
7.3471e-06
5.58699e-06
1.68503e-06
7.35233e-06
7.33293e-06
7.35561e-06
7.3545e-06
7.33779e-06
7.29177e-06
7.4277e-06
7.32938e-06
7.29484e-06
7.31704e-06
7.34545e-06
7.35269e-06
7.32721e-06
7.29339e-06
5.92818e-06
7.32539e-06
7.33326e-06
5.65606e-06
7.33493e-06
7.35069e-06
7.34934e-06
6.02807e-06
2.25755e-06
5.82347e-06
7.34423e-06
5.79198e-06
7.34433e-06
5.84606e-06
7.32586e-06
5.23887e-06
6.01768e-06
7.3106e-06
5.58347e-06
7.32755e-06
7.29731e-06
7.28842e-06
6.05447e-07
5.12933e-06
7.33175e-06
4.33997e-07
7.32426e-06
7.35418e-06
5.81847e-06
7.32324e-06
5.76437e-06
7.34201e-06
7.334e-06
7.33911e-06
7.34203e-06
7.31947e-06
7.32454e-06
7.33459e-06
7.34921e-06
7.34339e-06
6.04755e-06
5.62857e-06
7.34251e-06
7.35584e-06
5.63243e-06
7.31813e-06
7.34882e-06
7.35165e-06
6.81838e-06
7.35269e-06
5.50347e-06
7.3401e-06
7.35928e-06
7.34078e-06
1.95219e-06
5.81075e-06
7.32447e-06
5.21545e-06
7.32407e-06
3.45198e-06
7.32151e-06
7.25707e-06
7.34775e-06
7.34072e-06
7.33087e-06
5.58724e-06
7.32741e-06
7.32671e-06
7.33619e-06
7.35209e-06
7.35203e-06
7.32718e-06
7.32569e-06
5.69252e-06
5.25012e-06
7.34743e-06
7.33995e-06
7.29854e-06
5.51012e-06
7.32097e-06
7.47626e-06
7.32527e-06
7.33246e-06
7.33271e-06
7.32292e-06
7.22428e-06
5.57524e-06
5.75258e-06
7.32455e-06
7.10023e-06
7.318e-06
7.31852e-06
7.35076e-06
7.33494e-06
7.33519e-06
7.34355e-06
7.33558e-06
5.31488e-06
7.3422e-06
7.31325e-06
5.5712e-06
7.3132e-06
7.35341e-06
7.3259e-06
7.34172e-06
7.3399e-06
5.56559e-06
7.34253e-06
7.31596e-06
5.17505e-06
7.33782e-06
7.33379e-06
5.67834e-06
7.31498e-06
5.63674e-06
7.33933e-06
7.3514e-06
7.33062e-06
5.66913e-06
7.35071e-06
7.34392e-06
7.3238e-06
7.29322e-06
5.36785e-06
5.60895e-06
7.3322e-06
7.31818e-06
7.35389e-06
7.33646e-06
7.33493e-06
7.35969e-06
7.36732e-06
7.32395e-06
7.3104e-06
5.65187e-06
7.32648e-06
7.32523e-06
7.35537e-06
7.2902e-06
7.32744e-06
5.5725e-06
5.53747e-06
7.28003e-06
5.73976e-06
7.31528e-06
7.34324e-06
7.32112e-06
7.29532e-06
7.32748e-06
5.49541e-06
7.35396e-06
5.75276e-06
7.34804e-06
5.10555e-06
7.32643e-06
7.09164e-06
7.32429e-06
7.32794e-06
7.32496e-06
7.32427e-06
7.34736e-06
7.32804e-06
7.31645e-06
7.33174e-06
5.54938e-06
7.45874e-06
7.35337e-06
7.31313e-06
7.35958e-06
7.32682e-06
7.33051e-06
7.30706e-06
7.33619e-06
7.3337e-06
7.35865e-06
7.32332e-06
5.42034e-06
5.43364e-06
5.36472e-06
2.39774e-06
7.33162e-06
7.33041e-06
7.31384e-06
5.59647e-06
7.3171e-06
7.29566e-06
5.13755e-06
5.72873e-06
5.6527e-06
5.50003e-06
7.34405e-06
5.6706e-06
7.32478e-06
1.94032e-06
7.32584e-06
7.32534e-06
7.29759e-06
7.33344e-06
1.14596e-06
7.32719e-06
7.30451e-06
7.30025e-06
7.32832e-06
7.33164e-06
7.33013e-06
5.5186e-06
7.29997e-06
7.31879e-06
4.42406e-07
7.33029e-06
7.32427e-06
7.34685e-06
7.3463e-06
7.34429e-06
7.30512e-06
7.33694e-06
7.34475e-06
7.29605e-06
7.34211e-06
7.32111e-06
7.34791e-06
7.33437e-06
7.28858e-06
5.54906e-06
7.30907e-06
7.3284e-06
7.33605e-06
7.33526e-06
7.33384e-06
7.33398e-06
7.31977e-06
7.34302e-06
5.46675e-06
7.3075e-06
7.24576e-06
7.32521e-06
5.38497e-06
7.3539e-06
7.30368e-06
5.41613e-06
5.40853e-06
7.33032e-06
5.35796e-06
7.32146e-06
5.66323e-06
6.86276e-06
5.05941e-06
5.46843e-06
7.31691e-06
1.30155e-06
7.32307e-06
7.35421e-06
5.44205e-06
7.33257e-06
5.30448e-06
7.29979e-06
7.35398e-06
7.34104e-06
7.30328e-06
5.48683e-06
5.57652e-06
7.35365e-06
7.32092e-06
5.40489e-06
5.3576e-06
5.50033e-06
5.479e-06
7.33314e-06
5.50638e-06
7.32921e-06
5.46436e-06
7.32787e-06
7.33165e-06
5.25084e-06
5.49011e-06
5.51641e-06
5.46578e-06
7.33067e-06
7.33279e-06
7.33626e-06
5.16186e-06
7.33075e-06
7.30761e-06
1.95403e-06
7.24847e-06
7.31596e-06
5.05073e-06
4.98176e-06
7.33325e-06
5.2819e-06
5.38876e-06
6.88235e-06
7.32363e-06
7.33794e-06
7.36183e-06
5.43141e-06
5.49306e-06
5.38984e-06
5.44143e-06
7.32203e-06
7.31883e-06
7.51061e-06
5.34234e-06
5.33699e-06
7.31684e-06
7.33774e-06
7.33923e-06
7.34055e-06
7.33653e-06
5.28167e-06
7.32175e-06
5.56067e-06
7.33603e-06
5.47099e-06
5.43707e-06
7.3421e-06
7.03508e-06
7.34271e-06
7.55177e-06
7.32439e-06
7.34225e-06
7.33241e-06
7.3344e-06
5.4233e-06
5.57703e-06
7.32974e-06
7.34214e-06
5.4104e-06
5.52541e-06
7.34045e-06
5.27742e-06
5.2579e-06
7.33972e-06
5.30981e-06
5.28688e-06
5.20844e-06
7.31844e-06
7.32747e-06
7.32619e-06
5.26662e-06
5.64353e-06
7.31964e-06
5.32961e-06
5.24976e-06
5.20577e-06
7.35023e-06
7.31592e-06
5.35793e-06
7.32284e-06
4.90812e-06
7.31807e-06
7.33292e-06
7.33695e-06
5.22458e-06
5.17874e-06
5.26736e-06
7.34778e-06
5.2311e-06
5.34551e-06
5.34632e-06
4.92937e-06
5.32943e-06
4.92169e-06
4.82417e-06
5.27887e-06
5.28348e-06
4.85041e-06
5.39816e-06
5.23843e-06
5.42617e-06
7.31148e-06
5.12984e-06
5.16095e-06
5.17028e-06
5.15251e-06
4.7621e-06
7.32305e-06
5.078e-06
5.48579e-06
5.19982e-06
5.09955e-06
7.34367e-06
5.23784e-06
5.23829e-06
7.29664e-06
5.05742e-06
7.3056e-06
7.33637e-06
4.82924e-06
4.75337e-06
5.1578e-06
5.18873e-06
5.08752e-06
5.1871e-06
5.05387e-06
7.34002e-06
4.66926e-06
5.02041e-06
5.07397e-06
7.33121e-06
5.13301e-06
4.57137e-06
5.39329e-06
5.12068e-06
4.97764e-06
5.18861e-06
4.5946e-06
4.90537e-06
4.98777e-06
4.9084e-06
4.99504e-06
4.82885e-06
4.94117e-06
4.5575e-06
4.53243e-06
4.78897e-06
7.34079e-06
5.04148e-06
4.90112e-06
5.01324e-06
4.98174e-06
4.86834e-06
4.50763e-06
4.47701e-06
5.1072e-06
5.03068e-06
4.49226e-06
4.92474e-06
5.00476e-06
4.91557e-06
4.8654e-06
4.96222e-06
4.98428e-06
7.34855e-06
4.86183e-06
5.16755e-06
4.65504e-06
4.85476e-06
4.82806e-06
4.88565e-06
4.94829e-06
4.90471e-06
4.42478e-06
4.96085e-06
4.62187e-06
5.00766e-06
4.78256e-06
5.03862e-06
4.94152e-06
4.93141e-06
4.8003e-06
4.8255e-06
4.69584e-06
4.53689e-06
4.41261e-06
4.85149e-06
4.8353e-06
4.8718e-06
4.88287e-06
5.02786e-06
4.99825e-06
4.77205e-06
4.95121e-06
4.81442e-06
5.00315e-06
4.81059e-06
4.34691e-06
4.88221e-06
4.78942e-06
7.3483e-06
4.74843e-06
4.70317e-06
4.75352e-06
4.73527e-06
4.77511e-06
4.80348e-06
4.44071e-06
4.82552e-06
4.45758e-06
4.33829e-06
4.26364e-06
7.29885e-06
7.34132e-06
4.26817e-06
4.76206e-06
4.76867e-06
4.7132e-06
4.62376e-06
4.67001e-06
4.63741e-06
4.52427e-06
4.8689e-06
4.73455e-06
4.6166e-06
4.75939e-06
4.65934e-06
4.70953e-06
4.72408e-06
4.68915e-06
5.16003e-06
4.32019e-06
4.54442e-06
4.71272e-06
4.24729e-06
4.19045e-06
4.58521e-06
4.59725e-06
4.58311e-06
4.83899e-06
4.76016e-06
4.79219e-06
4.5614e-06
4.39181e-06
4.18712e-06
4.46511e-06
4.64462e-06
4.63335e-06
4.11339e-06
4.50055e-06
4.35775e-06
4.50693e-06
4.56519e-06
4.4478e-06
4.44709e-06
4.50099e-06
4.5345e-06
4.4253e-06
4.45494e-06
4.67973e-06
4.52314e-06
4.47135e-06
4.38577e-06
4.04586e-06
4.58609e-06
4.41875e-06
4.59889e-06
4.3721e-06
4.55373e-06
4.4743e-06
4.40961e-06
4.48545e-06
4.37538e-06
4.43069e-06
4.46579e-06
4.50511e-06
4.36195e-06
7.17679e-07
4.0375e-06
4.52094e-06
4.4858e-06
4.37156e-06
4.12221e-06
4.39677e-06
3.90031e-06
4.58609e-06
3.97271e-06
7.83035e-07
4.30643e-06
4.36859e-06
3.96545e-06
4.44143e-06
4.33812e-06
4.29846e-06
4.35425e-06
4.60032e-06
4.40642e-06
4.39487e-06
3.38763e-06
4.37115e-06
4.26811e-06
4.31223e-06
3.90289e-06
4.32701e-06
4.37802e-06
4.42431e-06
4.22703e-06
4.25838e-06
4.2927e-06
3.41232e-06
4.2192e-06
4.03422e-06
3.50073e-06
3.61447e-06
4.34737e-06
4.27768e-06
4.33382e-06
4.14766e-06
4.31516e-06
4.02077e-06
4.23567e-06
4.24758e-06
4.28239e-06
4.02132e-06
4.17927e-06
4.45145e-06
3.22666e-06
3.66181e-06
3.8453e-06
4.1003e-06
4.20101e-06
4.29207e-06
4.07393e-06
4.1434e-06
4.1395e-06
4.06026e-06
4.18277e-06
4.18865e-06
4.06632e-06
4.06833e-06
4.55104e-06
3.70571e-06
4.05792e-06
4.10844e-06
3.98607e-06
3.25988e-06
4.16805e-06
4.15621e-06
4.21299e-06
3.74061e-06
4.14267e-06
4.12427e-06
3.70166e-06
4.1533e-06
3.81389e-06
4.08839e-06
4.08847e-06
3.7764e-06
3.8842e-06
4.13881e-06
4.10289e-06
4.18317e-06
3.989e-06
3.85747e-06
4.04737e-06
3.64578e-06
3.98109e-06
4.16706e-06
3.98671e-06
3.88065e-06
4.03132e-06
4.26032e-06
3.77975e-06
4.06234e-06
4.13722e-06
3.89543e-06
4.07652e-06
3.99704e-06
3.62849e-06
4.02786e-06
3.90965e-06
3.8847e-06
4.00898e-06
4.04384e-06
4.10714e-06
3.58599e-06
4.02147e-06
4.01544e-06
3.94837e-06
3.97016e-06
4.06432e-06
3.54967e-06
3.9944e-06
3.66816e-06
4.0066e-06
3.3833e-06
3.54808e-06
3.30719e-06
3.80067e-06
3.96418e-06
3.82199e-06
3.83032e-06
3.90136e-06
3.72653e-06
3.93851e-06
3.64009e-06
3.83273e-06
3.92957e-06
4.0212e-06
3.91763e-06
3.90907e-06
3.94321e-06
3.89246e-06
3.85016e-06
3.95573e-06
3.98985e-06
3.41237e-06
3.22788e-06
3.81589e-06
3.38985e-06
3.75592e-06
3.75105e-06
3.65845e-06
3.85617e-06
4.05438e-06
3.81463e-06
3.49051e-06
3.83798e-06
3.75852e-06
3.4682e-06
3.91742e-06
3.32974e-06
3.77072e-06
3.80518e-06
3.97499e-06
3.32789e-06
3.74043e-06
3.83538e-06
3.50851e-06
3.77885e-06
3.31113e-06
3.67174e-06
3.73697e-06
3.91495e-06
3.66292e-06
3.31281e-06
3.73936e-06
3.92866e-06
3.5933e-06
3.60353e-06
4.13348e-06
3.80664e-06
3.19325e-06
3.25444e-06
3.68345e-06
3.69118e-06
3.59247e-06
3.67918e-06
3.45649e-06
3.73618e-06
3.21636e-06
3.74253e-06
3.74579e-06
3.72735e-06
3.70861e-06
3.80712e-06
3.74847e-06
3.47211e-06
3.23338e-06
3.61161e-06
3.65989e-06
3.64771e-06
3.6554e-06
3.67986e-06
3.60346e-06
3.58423e-06
3.136e-06
3.51311e-06
3.60132e-06
3.59957e-06
3.50382e-06
3.52018e-06
3.14647e-06
3.40749e-06
3.52356e-06
3.67644e-06
3.53217e-06
3.56671e-06
3.52817e-06
3.41835e-06
3.53092e-06
3.58337e-06
3.69455e-06
3.51067e-06
3.06074e-06
3.58671e-06
3.48704e-06
3.43371e-06
3.42493e-06
3.04564e-06
3.47142e-06
3.45277e-06
3.44086e-06
3.04603e-06
3.35415e-06
3.48824e-06
3.19411e-06
3.1059e-06
3.02037e-06
3.53531e-06
3.19783e-06
3.37332e-06
3.11506e-06
3.43426e-06
3.52425e-06
3.39999e-06
3.42716e-06
3.11065e-06
3.27411e-06
2.98376e-06
3.34565e-06
3.39439e-06
3.21945e-06
3.18498e-06
3.57757e-06
2.82971e-06
3.33901e-06
3.35724e-06
3.25273e-06
3.33858e-06
3.35778e-06
3.36125e-06
3.28179e-06
2.90654e-06
3.18467e-06
3.39829e-06
3.29378e-06
3.49807e-06
3.26583e-06
3.26501e-06
2.97207e-06
3.28464e-06
3.2007e-06
2.82997e-06
2.90616e-06
3.5174e-06
3.6567e-06
3.21418e-06
3.33032e-06
3.26349e-06
3.59705e-06
2.75343e-06
3.17116e-06
3.23896e-06
3.29123e-06
3.28001e-06
3.32794e-06
3.32238e-06
3.26448e-06
2.76048e-06
3.18545e-06
3.12137e-06
2.82186e-06
3.13213e-06
3.23735e-06
3.21685e-06
2.75454e-06
3.16988e-06
3.13446e-06
3.02655e-06
3.16933e-06
3.1231e-06
3.29e-06
3.15014e-06
3.11378e-06
2.87905e-06
3.11816e-06
3.09007e-06
2.68037e-06
3.18602e-06
3.25054e-06
3.04178e-06
3.1842e-06
3.27502e-06
3.13232e-06
2.65016e-06
3.2024e-06
3.09197e-06
2.74521e-06
3.09815e-06
3.10575e-06
3.0357e-06
3.05626e-06
3.05472e-06
3.07857e-06
3.04418e-06
3.09961e-06
2.7264e-06
2.66719e-06
2.97503e-06
2.57956e-06
3.17343e-06
2.81581e-06
2.73657e-06
2.72885e-06
2.96228e-06
2.66133e-06
2.96199e-06
2.99212e-06
2.99127e-06
3.05657e-06
2.5864e-06
2.89536e-06
2.96502e-06
2.74025e-06
3.08532e-06
3.11628e-06
2.97016e-06
2.67593e-06
2.95581e-06
2.88297e-06
2.90958e-06
2.93216e-06
2.94697e-06
2.88472e-06
2.92278e-06
2.74024e-06
2.50083e-06
3.03089e-06
2.62936e-06
2.88556e-06
2.56911e-06
2.75441e-06
2.80374e-06
2.83621e-06
2.77928e-06
2.85174e-06
2.87817e-06
2.78777e-06
2.49592e-06
2.96842e-06
2.82811e-06
2.80586e-06
2.50774e-06
2.80631e-06
2.16072e-06
2.8532e-06
2.57795e-06
2.70838e-06
2.68577e-06
2.4125e-06
2.94118e-06
2.88963e-06
2.7245e-06
2.56761e-06
2.78911e-06
2.77407e-06
2.86195e-06
2.79707e-06
2.74685e-06
2.24205e-06
2.74681e-06
2.7826e-06
2.61545e-06
2.32835e-06
2.32361e-06
2.64521e-06
2.77363e-06
2.62933e-06
2.63852e-06
2.7034e-06
2.76873e-06
2.63838e-06
2.70918e-06
2.85023e-06