/*--------------------------------*- C++ -*----------------------------------*\
  =========                 |
  \\      /  F ield         | OpenFOAM: The Open Source CFD Toolbox
   \\    /   O peration     | Website:  https://openfoam.org
    \\  /    A nd           | Version:  8
     \\/     M anipulation  |
\*---------------------------------------------------------------------------*/
FoamFile
{
    version     2.0;
    format      ascii;
    class       volScalarField;
    location    "8";
    object      p;
}
// * * * * * * * * * * * * * * * * * * * * * * * * * * * * * * * * * * * * * //

dimensions      [0 2 -2 0 0 0 0];

internalField   nonuniform List<scalar> 
4320
(
2.53424e-06
6.79898e-07
2.46145e-06
1.07651e-05
1.07134e-05
1.71325e-06
8.33049e-07
5.27818e-06
9.16015e-06
8.60129e-07
2.07828e-06
5.76593e-06
1.9692e-06
3.96072e-06
9.86915e-06
2.83319e-06
6.39067e-06
1.09803e-05
2.18329e-06
2.61713e-06
2.39989e-06
4.47712e-06
1.05596e-05
2.26447e-06
6.37206e-06
6.67052e-06
6.15981e-06
6.8309e-06
2.36514e-06
1.0748e-05
7.52061e-06
5.58491e-06
3.65948e-06
5.48619e-06
1.12077e-06
7.75522e-07
2.29054e-06
4.67516e-07
1.04339e-05
3.13873e-06
3.44595e-06
7.45162e-06
1.07179e-05
6.94854e-06
1.0441e-05
7.224e-06
-7.51202e-08
4.02266e-06
1.02337e-05
3.15335e-06
2.03473e-06
2.40837e-06
1.06998e-05
1.00979e-05
8.78166e-06
5.42737e-06
9.31959e-07
5.37465e-06
-2.41439e-08
1.07655e-05
2.50823e-06
1.28813e-06
1.51142e-06
2.93991e-06
1.06411e-05
2.1585e-06
1.07271e-05
1.83019e-06
4.35705e-06
3.95588e-07
5.20886e-06
6.1111e-06
6.83974e-06
7.81732e-06
3.36484e-06
4.92873e-06
7.60024e-07
1.02034e-05
1.07717e-05
1.06531e-05
1.77092e-06
4.64951e-06
6.91572e-06
6.14284e-06
1.07765e-05
1.06837e-06
1.07793e-05
3.19894e-06
1.05344e-05
5.4979e-06
1.05687e-05
1.6124e-06
1.0158e-05
1.07637e-05
2.71593e-06
1.62704e-06
7.01728e-06
2.72555e-06
6.35465e-06
1.01583e-05
1.0783e-05
3.58193e-06
1.49508e-06
3.89943e-06
2.18029e-07
6.9687e-06
7.50495e-06
1.07478e-05
1.04354e-05
6.03995e-06
1.08377e-05
2.48646e-06
7.67694e-06
2.70886e-06
6.93666e-06
9.6781e-07
1.02239e-05
9.95427e-06
1.07888e-05
2.94258e-07
7.53651e-06
6.72052e-06
9.38965e-07
1.01728e-05
3.4646e-06
3.2894e-06
1.87365e-06
3.69441e-06
6.92486e-06
5.53601e-06
7.74479e-06
4.78361e-06
2.56557e-06
4.06832e-06
1.05103e-05
1.07672e-05
2.2362e-06
1.07674e-05
3.70065e-06
1.07493e-05
1.58526e-06
1.53721e-06
9.49222e-08
6.33107e-08
1.05388e-05
7.60759e-06
4.19643e-06
1.07484e-05
3.76294e-06
8.71143e-08
3.04718e-06
3.22583e-07
1.02704e-05
1.01555e-05
1.53518e-06
1.11156e-06
1.03995e-05
1.01492e-05
1.07634e-05
1.39536e-06
1.07861e-05
6.65886e-06
4.43007e-07
8.24525e-07
6.96648e-06
1.24679e-06
6.45529e-06
1.02294e-05
8.25765e-06
8.23369e-06
3.84293e-06
1.66091e-06
8.1143e-07
4.97567e-07
1.07408e-05
1.03896e-05
1.05457e-05
7.44106e-06
7.66747e-06
1.72869e-06
1.04651e-05
7.9466e-06
1.04846e-05
1.06194e-05
9.99033e-06
9.88432e-06
1.07878e-05
2.71371e-07
2.58201e-06
1.05342e-05
9.67942e-07
4.76352e-06
1.04938e-05
1.12456e-06
1.06397e-05
7.30273e-06
6.76559e-06
7.72476e-07
1.64383e-06
3.25899e-06
1.04542e-05
2.82739e-06
6.24729e-06
4.33855e-06
8.20161e-06
7.08214e-06
9.32589e-07
1.07845e-05
8.15632e-06
1.06198e-05
4.03144e-06
1.07698e-05
1.04394e-05
1.07862e-05
1.07787e-05
1.07865e-05
1.07756e-05
1.07843e-05
1.0563e-05
1.03086e-05
1.07345e-05
1.75808e-06
1.07638e-05
8.47955e-06
6.77675e-06
1.06105e-05
1.01836e-05
9.61652e-06
1.04943e-05
1.07713e-05
7.81576e-06
1.01028e-05
6.2417e-06
4.12698e-06
7.58235e-06
1.07364e-05
7.46239e-06
3.31299e-06
1.27764e-06
4.32247e-06
1.0249e-05
9.97737e-06
8.76303e-06
2.41952e-06
1.90002e-06
4.2789e-08
1.06467e-05
1.07323e-05
3.80811e-06
3.21854e-06
6.69413e-06
3.61691e-07
5.42689e-06
6.19147e-06
6.09044e-06
2.141e-06
1.0782e-05
7.35261e-07
6.74124e-06
3.04159e-07
1.8246e-06
9.98086e-06
4.23448e-06
4.11172e-06
1.06989e-05
3.47236e-06
1.06752e-05
7.58663e-07
9.86638e-06
1.07439e-05
4.4429e-06
1.07854e-05
1.6563e-06
5.71964e-06
1.05891e-05
6.87096e-06
1.07317e-05
4.81665e-06
1.07633e-05
1.07885e-05
1.07313e-05
7.80405e-06
6.32934e-06
1.06364e-05
4.86752e-06
7.00117e-06
7.02264e-06
1.07476e-05
5.98395e-06
1.00284e-05
6.2141e-06
4.78893e-06
1.07797e-05
1.10714e-06
1.03651e-05
8.44779e-07
6.81435e-06
6.58878e-07
7.843e-06
7.78697e-06
1.07831e-05
4.95768e-06
3.37616e-06
1.13273e-06
4.00827e-06
9.94257e-06
4.90288e-06
6.51752e-07
3.32045e-06
1.54226e-06
2.59959e-06
6.08979e-06
1.00661e-05
1.04962e-05
4.64996e-06
9.01995e-07
1.07545e-05
5.87844e-06
1.01711e-05
2.61443e-06
7.4127e-06
1.07849e-05
1.06867e-05
1.07889e-05
7.12932e-06
1.0791e-05
7.68435e-06
1.03729e-05
9.9693e-06
6.48003e-07
4.23654e-06
2.98896e-06
4.64387e-06
1.07808e-05
1.01143e-05
7.9396e-06
9.96311e-06
1.07601e-05
6.76309e-06
1.07487e-05
6.38041e-06
7.93528e-06
5.54864e-06
1.00382e-05
1.00976e-05
1.07914e-05
1.06959e-05
1.03472e-05
1.00333e-05
1.07659e-05
7.23279e-06
6.05658e-06
1.077e-05
9.35683e-06
5.63518e-06
1.03369e-05
7.2596e-06
8.09251e-06
6.22224e-06
4.53323e-06
1.02678e-05
7.30281e-06
5.26891e-06
9.93407e-06
8.1914e-06
1.10038e-06
1.07777e-05
1.06116e-05
1.06713e-05
5.21935e-06
3.80777e-06
1.03292e-05
6.50106e-06
1.04569e-05
8.83026e-06
1.07141e-05
2.73781e-07
4.85516e-06
1.07683e-05
6.91257e-06
1.07772e-05
9.51373e-06
1.03371e-05
7.80026e-06
1.05627e-05
7.89348e-06
1.07882e-05
1.0727e-05
5.59648e-07
1.07789e-05
4.98835e-07
1.06124e-05
1.07696e-05
1.07653e-05
7.17178e-06
1.07567e-05
2.94703e-06
9.31099e-06
8.10199e-06
5.98404e-06
9.81061e-06
1.01204e-05
1.01919e-05
1.07149e-05
1.07796e-05
9.43137e-06
7.99702e-06
5.77038e-06
6.76221e-07
6.05331e-06
8.85065e-06
1.02937e-05
1.02515e-05
1.07327e-05
7.62145e-06
1.07636e-05
4.68205e-06
1.06773e-05
9.84804e-06
9.69271e-06
4.15884e-07
1.07454e-05
7.55392e-06
1.07269e-05
2.46719e-06
1.01287e-05
9.0957e-06
1.01916e-05
1.07802e-05
1.0728e-05
1.06691e-05
6.20114e-06
1.07648e-05
1.06343e-05
9.91753e-06
1.07773e-05
7.84757e-06
7.33586e-07
6.30592e-06
1.0482e-05
4.07946e-06
1.07183e-05
1.04828e-05
1.07785e-05
8.00237e-06
1.07397e-05
6.25817e-06
1.05357e-05
7.75772e-06
9.82699e-06
8.15106e-06
1.04158e-05
1.07668e-05
7.16549e-06
1.02331e-05
1.07851e-05
7.84958e-06
9.839e-06
1.07282e-05
1.07827e-05
1.07251e-05
1.05099e-05
1.03209e-05
7.764e-06
9.78194e-06
5.16285e-06
7.15937e-06
1.05144e-05
1.03026e-05
1.07847e-05
7.69387e-06
1.04699e-05
1.00988e-05
1.00115e-05
7.471e-06
4.14332e-06
5.1551e-06
1.04084e-05
9.31398e-06
1.07673e-05
6.73022e-06
1.07735e-05
6.30237e-06
1.07826e-05
1.05883e-05
1.02894e-05
7.78521e-06
7.9378e-06
1.07293e-05
7.3782e-06
1.0037e-05
1.0762e-05
7.33242e-06
1.04874e-05
1.13301e-05
1.03935e-05
6.97597e-06
1.0343e-05
1.06703e-05
1.03808e-05
1.00973e-05
9.08445e-06
6.15943e-06
1.03941e-05
9.96743e-06
5.87407e-06
4.97214e-06
7.56893e-06
5.01434e-06
1.0675e-05
5.71209e-06
1.04603e-05
1.17712e-06
8.97412e-06
2.19961e-06
2.17719e-06
6.78884e-07
6.54134e-07
9.26096e-06
1.05386e-05
6.65553e-06
1.0761e-05
6.71432e-06
1.07581e-05
1.0191e-05
1.06184e-05
1.01564e-05
9.21739e-06
5.46578e-07
1.026e-05
1.05901e-05
1.02314e-05
1.07808e-05
7.78572e-06
1.06117e-05
7.61786e-06
1.06713e-05
1.21821e-06
1.0577e-05
7.436e-06
1.07865e-05
7.12716e-06
9.76515e-06
1.0795e-05
1.05511e-05
1.00299e-06
7.83613e-06
1.04585e-05
1.06787e-05
1.0481e-05
1.04949e-05
1.07808e-05
1.0296e-05
1.07296e-05
8.35693e-07
1.00374e-05
7.34218e-06
5.43921e-06
1.05758e-05
1.07055e-05
7.0364e-06
1.65547e-06
1.07854e-05
1.05654e-05
7.25931e-06
5.77039e-06
9.71513e-06
1.05802e-05
1.07358e-05
7.52955e-06
1.03213e-05
1.07665e-05
1.0617e-05
1.05149e-05
1.06599e-05
7.58379e-06
1.07871e-05
1.06886e-05
1.05532e-05
1.05589e-05
7.66378e-06
1.06879e-05
1.05329e-05
7.81697e-06
1.07751e-05
1.03542e-05
1.0348e-05
7.45341e-06
1.07395e-05
1.03475e-05
7.49466e-06
7.12543e-06
1.06466e-05
2.05006e-06
1.07722e-05
1.0609e-05
5.38766e-07
7.01046e-06
1.04265e-05
7.67945e-06
1.07915e-05
1.03593e-05
1.07006e-05
1.0511e-05
1.06399e-05
1.03913e-05
1.0642e-05
1.06114e-05
1.07839e-05
1.06622e-05
5.91376e-06
1.0581e-05
7.47265e-06
7.07396e-06
1.07178e-06
1.07022e-05
1.06791e-05
1.078e-05
1.07955e-05
1.07742e-05
1.07088e-05
1.02547e-05
1.0327e-05
5.60034e-06
1.07755e-05
4.98819e-06
1.06608e-05
1.06807e-05
1.0786e-05
1.0214e-05
3.3606e-06
6.68163e-06
7.69763e-06
4.79398e-06
1.0789e-05
1.02431e-05
1.06017e-05
1.06055e-05
1.07527e-05
1.0775e-05
8.4558e-06
1.042e-05
7.39142e-06
3.83338e-07
9.369e-07
1.06509e-05
1.07386e-05
2.24141e-06
7.37925e-06
1.05818e-05
9.18787e-07
9.52309e-06
1.07808e-05
9.81581e-06
7.05054e-06
1.07576e-05
5.76945e-06
6.63919e-06
1.07014e-05
3.25512e-06
1.07547e-05
6.84525e-06
7.54722e-06
1.0772e-05
1.07521e-05
7.04588e-06
1.07692e-05
6.9489e-06
1.03636e-05
1.07499e-05
1.07603e-05
1.0728e-05
1.04005e-05
1.06273e-05
7.13786e-06
1.07743e-05
1.0632e-05
1.07824e-05
6.54236e-06
1.06891e-05
9.93799e-06
7.20816e-06
7.30641e-06
1.06284e-05
1.0574e-05
1.07461e-05
1.07143e-05
1.06547e-05
1.07556e-05
1.07879e-05
7.12543e-06
1.06801e-05
1.0701e-05
7.33752e-06
1.00451e-05
1.07856e-05
1.07483e-05
1.07586e-05
1.06613e-05
1.04274e-05
7.45944e-06
1.07535e-05
1.06754e-05
1.07183e-05
1.07298e-05
1.07232e-05
1.07296e-05
1.02865e-05
1.07742e-05
9.9657e-06
1.08222e-05
3.41395e-06
1.07453e-05
9.62562e-06
7.13028e-06
1.07466e-05
7.32918e-06
1.07046e-05
1.07119e-05
1.07143e-05
7.27501e-06
1.05458e-05
6.71408e-06
1.07506e-05
5.66742e-06
1.07247e-05
1.06684e-05
6.15801e-06
1.07188e-05
1.06792e-05
1.0774e-05
1.06357e-05
1.07444e-05
1.07533e-05
1.06848e-05
6.96572e-06
1.06385e-05
1.07131e-05
1.74512e-06
2.12275e-06
1.07413e-05
1.07689e-05
1.03258e-05
6.8705e-06
1.0759e-05
1.0778e-05
1.01274e-05
6.64339e-06
1.07746e-05
1.07662e-05
1.70156e-06
5.65911e-06
1.06524e-05
1.07298e-05
1.0758e-05
7.06732e-06
7.16802e-06
6.87846e-06
6.92708e-06
1.04709e-05
1.06874e-05
1.07282e-05
6.6091e-06
7.3531e-06
8.52139e-07
7.07859e-06
1.07488e-05
1.07647e-05
1.07595e-05
1.07369e-05
1.66872e-06
1.05632e-05
6.90758e-06
7.18678e-06
2.47648e-06
1.04311e-05
1.06479e-05
1.07355e-05
6.97908e-06
1.07716e-05
6.76663e-06
7.55295e-06
1.0665e-05
1.07541e-05
1.07469e-05
1.07745e-05
1.07028e-05
1.06478e-05
9.22767e-06
1.07784e-05
6.71148e-06
7.1029e-06
1.07417e-05
1.07688e-05
7.22568e-06
1.07495e-05
6.96085e-06
7.09041e-06
6.78658e-06
1.07833e-05
1.07663e-05
1.07683e-05
1.07789e-05
1.04355e-06
1.07318e-05
1.06874e-05
1.0782e-05
6.65377e-06
1.07491e-05
1.04664e-05
1.07183e-05
1.07459e-05
1.06938e-05
1.05687e-05
1.06895e-05
1.05636e-05
1.07781e-05
7.76565e-07
1.075e-05
1.07662e-05
6.97305e-06
1.07412e-05
1.07726e-05
7.12227e-06
6.92553e-06
7.24837e-06
6.24547e-06
1.07705e-05
1.03674e-05
1.06513e-05
1.07802e-05
6.85008e-06
1.07337e-05
1.07166e-05
7.17428e-06
6.76831e-06
1.07746e-05
1.07787e-05
5.54746e-06
7.10557e-06
7.01138e-06
1.07666e-05
6.69378e-06
1.07732e-05
1.07764e-05
1.07793e-05
7.0415e-06
1.0773e-05
1.0721e-05
1.07601e-05
6.9891e-06
1.07766e-05
1.86457e-06
1.07489e-05
1.06504e-05
1.0666e-05
1.0768e-05
1.07771e-05
1.07772e-05
1.07381e-05
1.07742e-05
1.07558e-05
1.06587e-05
1.07754e-05
1.06121e-05
1.06797e-05
1.07264e-05
1.07761e-05
1.07401e-05
6.46059e-06
1.07356e-05
1.05136e-05
1.07717e-05
7.00754e-06
6.62834e-06
1.07648e-05
1.07303e-05
1.07687e-05
1.07593e-05
1.0749e-05
1.07771e-05
1.06771e-05
7.01743e-06
1.07708e-05
1.07735e-05
1.0762e-05
1.06687e-05
6.84278e-06
1.07689e-05
1.07715e-05
7.01829e-06
9.9046e-06
1.06946e-05
6.53189e-06
1.06794e-05
1.07319e-05
6.61809e-06
7.08284e-06
1.07411e-05
1.06123e-05
1.07649e-05
1.07832e-05
7.2576e-06
1.06322e-05
1.07404e-05
1.07467e-05
1.07506e-05
6.86471e-06
1.07464e-05
1.07442e-05
6.89671e-06
1.07833e-05
1.07671e-05
6.51543e-06
1.07064e-05
1.0745e-05
7.07043e-06
1.07573e-05
6.96096e-06
1.06331e-05
6.71436e-06
1.07797e-05
1.05651e-05
1.07798e-05
1.07853e-05
6.28163e-06
1.07501e-05
1.07433e-05
1.07466e-05
1.0782e-05
6.78187e-06
6.92666e-06
1.07519e-05
6.92235e-06
1.07823e-05
6.51582e-06
6.46667e-06
6.77616e-06
1.07869e-05
1.07787e-05
1.07e-05
1.07538e-05
1.07623e-05
1.07528e-05
6.81832e-06
6.59841e-06
1.07218e-05
6.87847e-06
6.79914e-06
6.67859e-06
6.41151e-06
1.07573e-05
1.06732e-05
6.98163e-06
1.07669e-05
1.07491e-05
1.07535e-05
1.07683e-05
6.73755e-06
1.07513e-05
1.07299e-05
7.03416e-06
1.07733e-05
5.83202e-06
1.07509e-05
1.07652e-05
1.93779e-06
1.07125e-05
1.07249e-05
1.0752e-05
1.07741e-05
1.07556e-05
6.38481e-06
6.67128e-06
1.07194e-05
6.93691e-06
1.07659e-05
1.07638e-05
1.07547e-05
1.07338e-05
1.02088e-05
6.17514e-06
1.06786e-05
1.06887e-05
6.81925e-06
6.58185e-06
6.65992e-06
1.01305e-05
1.07473e-05
1.0761e-05
6.60763e-06
6.46111e-06
1.07822e-05
6.52674e-06
6.31299e-06
6.24083e-06
1.07703e-05
1.07585e-05
1.06745e-05
6.71735e-06
5.88753e-06
4.41928e-06
1.07614e-05
1.0709e-05
1.07038e-05
6.42738e-06
1.07339e-05
6.45375e-06
1.07579e-05
2.90946e-06
2.98853e-06
1.07533e-05
6.36598e-06
6.37706e-06
1.07773e-05
6.44718e-06
6.24433e-06
6.26251e-06
6.04219e-06
1.07543e-05
6.23697e-06
1.0801e-05
6.32757e-06
6.51486e-06
1.07162e-05
1.07622e-05
6.26382e-06
6.08853e-06
6.34887e-06
6.43611e-06
6.14612e-06
7.33065e-06
6.35827e-06
6.40786e-06
6.09222e-06
6.18668e-06
1.07423e-05
6.1329e-06
6.26467e-06
6.29896e-06
6.33444e-06
5.93162e-06
6.37576e-06
6.22703e-06
1.07359e-05
1.07435e-05
1.08039e-05
6.82913e-06
6.08916e-06
5.90217e-06
6.39881e-06
7.208e-06
5.95215e-06
6.18133e-06
6.06523e-06
6.14503e-06
6.12064e-06
6.26325e-06
6.17821e-06
6.25033e-06
6.24424e-06
5.40044e-06
6.45845e-06
6.07798e-06
6.19869e-06
5.81144e-06
2.44667e-06
6.01751e-06
1.044e-05
5.47678e-06
5.8429e-06
1.06877e-05
5.68469e-06
5.97069e-06
1.08002e-05
5.94504e-06
6.14976e-06
6.68107e-06
5.71993e-06
6.05386e-06
6.03929e-06
5.60477e-06
5.95649e-06
5.98573e-06
5.91889e-06
6.14011e-06
5.85367e-06
5.49055e-06
5.26311e-06
5.33445e-06
1.07604e-05
5.5974e-06
5.26313e-06
5.74858e-06
5.90187e-06
6.17656e-06
5.55913e-06
5.83545e-06
5.6254e-06
4.33357e-06
5.29906e-06
5.46868e-06
6.04723e-06
5.58005e-06
6.09892e-06
4.7829e-06
5.67787e-06
5.39477e-06
5.66708e-06
6.37684e-06
5.43134e-06
2.81532e-06
5.60714e-06
5.11814e-06
5.57737e-06
5.51653e-06
5.65149e-06
5.81861e-06
5.21475e-06
5.40258e-06
4.91585e-06
5.5632e-06
4.76487e-06
5.51745e-06
5.01706e-06
5.56069e-06
5.37316e-06
4.69742e-06
5.14479e-06
5.49104e-06
5.45301e-06
5.07856e-06
5.37728e-06
5.33411e-06
5.26657e-06
5.49197e-06
5.57113e-06
5.39083e-06
5.49896e-06
5.15484e-06
5.44547e-06
5.75929e-06
5.47233e-06
5.37962e-06
5.72146e-06
5.34287e-06
5.16289e-06
5.64806e-06
5.3701e-06
5.33755e-06
5.3688e-06
5.20769e-06
5.2335e-06
5.83981e-06
5.1878e-06
5.47819e-06
5.09585e-06
5.25221e-06
5.96109e-06
5.22418e-06
5.29112e-06
5.17969e-06
5.42716e-06
5.35387e-06
5.15746e-06
5.02241e-06
5.12553e-06
4.89801e-06
5.11185e-06
5.22074e-06
5.27047e-06
5.31143e-06
5.60011e-06
4.92679e-06
4.96462e-06
5.5748e-06
5.13138e-06
5.0188e-06
4.7054e-06
5.05649e-06
4.83867e-06
5.3924e-06
4.75355e-06
5.00321e-06
5.14396e-06
5.50568e-06
5.11354e-06
5.18991e-06
5.2874e-06
4.8594e-06
4.91304e-06
4.99266e-06
4.99226e-06
4.72335e-06
4.81132e-06
4.84638e-06
5.60747e-06
4.6939e-06
4.80775e-06
4.90729e-06
4.75868e-06
4.93306e-06
4.64926e-06
4.37405e-06
4.6911e-06
4.83686e-06
4.64918e-06
4.62402e-06
4.70261e-06
4.73641e-06
5.23452e-06
4.80968e-06
4.93153e-06
4.20354e-06
4.80542e-06
4.70554e-06
4.59355e-06
4.56139e-06
4.82804e-06
4.74676e-06
1.19078e-06
1.25285e-06
4.78294e-06
4.43389e-06
4.56498e-06
4.64958e-06
4.48751e-06
4.97777e-06
4.61522e-06
4.54694e-06
4.02445e-06
4.53356e-06
4.56809e-06
4.4369e-06
4.40313e-06
4.90108e-06
4.8006e-06
4.61882e-06
4.42568e-06
4.67674e-06
3.78125e-06
4.53779e-06
3.99984e-06
4.60066e-06
4.33202e-06
4.32679e-06
4.79916e-06
4.21323e-06
5.04937e-06
3.81965e-06
4.47539e-06
4.31629e-06
4.40885e-06
4.33685e-06
4.45713e-06
4.46738e-06
4.40747e-06
3.91263e-06
3.85705e-06
4.19266e-06
4.32811e-06
4.48567e-06
3.94116e-06
4.11258e-06
4.08461e-06
4.32992e-06
3.99542e-06
4.21746e-06
4.1989e-06
4.13259e-06
4.01746e-06
4.3079e-06
4.22692e-06
4.11521e-06
4.1544e-06
4.2323e-06
4.07298e-06
4.95052e-06
4.51399e-06
4.30594e-06
4.09646e-06
4.0265e-06
4.45419e-06
4.01398e-06
4.15229e-06
4.02609e-06
4.1519e-06
3.65159e-06
4.00145e-06
4.24149e-06
4.04632e-06
4.03047e-06
3.73852e-06
3.96003e-06
3.76707e-06
3.84345e-06
4.28787e-06
3.70645e-06
4.10057e-06
3.93777e-06
3.66405e-06
3.97283e-06
3.94624e-06
4.15717e-06
3.89612e-06
3.83473e-06
3.96827e-06
3.92037e-06
4.10808e-06
3.83294e-06
3.90745e-06
4.04841e-06
3.85305e-06
3.85589e-06
3.83018e-06
3.70142e-06
4.50878e-06
3.30119e-06
3.98178e-06
3.21348e-06
3.0622e-06
4.07728e-06
4.23284e-06
3.83117e-06
2.43653e-06
3.76232e-06
3.04828e-06
3.15371e-06
3.3736e-06
3.38746e-06
3.74322e-06
2.20115e-06
3.44988e-06
3.89116e-06
3.5534e-06
2.79775e-06
3.32031e-06
3.53156e-06
3.7185e-06
3.65412e-06
2.33684e-06
4.2748e-06
2.23553e-06
3.87507e-06
3.66658e-06
3.67183e-06
2.10823e-06
4.54029e-06
3.12442e-06
2.98802e-06
3.56198e-06
3.57902e-06
3.7298e-06
3.61315e-06
2.53299e-06
2.57294e-06
3.38653e-06
3.17222e-06
3.482e-06
3.63659e-06
2.63455e-06
3.37613e-06
3.75913e-06
3.65967e-06
2.89711e-06
3.55411e-06
3.48297e-06
2.46516e-06
3.52437e-06
3.58736e-06
3.91222e-06
3.73495e-06
3.64541e-06
3.178e-06
3.62029e-06
3.45895e-06
3.51139e-06
3.29016e-06
3.48356e-06
2.83643e-06
3.5014e-06
3.48085e-06
3.17574e-06
3.274e-06
3.41546e-06
2.8531e-06
3.56628e-06
3.39652e-06
3.49428e-06
3.39227e-06
3.69611e-06
3.28965e-06
3.52071e-06
3.40354e-06
3.38056e-06
3.70828e-06
3.29928e-06
3.60096e-06
3.39058e-06
3.4935e-06
3.26428e-06
3.21998e-06
3.2848e-06
3.42628e-06
3.55129e-06
3.72058e-06
2.98628e-06
3.45462e-06
3.28593e-06
3.56295e-06
3.14046e-06
3.29603e-06
3.38769e-06
2.97322e-06
3.62455e-06
3.60993e-06
3.7292e-06
3.16422e-06
3.20474e-06
3.41689e-06
2.94339e-06
3.1235e-06
3.27985e-06
2.63579e-06
3.2018e-06
3.02817e-06
3.18757e-06
3.15858e-06
3.03848e-06
3.23181e-06
3.04077e-06
3.18061e-06
3.13455e-06
3.25134e-06
2.66668e-06
3.31245e-06
2.25883e-06
2.96157e-06
3.80073e-06
3.07721e-06
3.06085e-06
3.43937e-06
2.61587e-06
3.08924e-06
2.93278e-06
2.89446e-06
3.07044e-06
2.96281e-06
2.909e-06
2.91495e-06
2.95607e-06
2.87714e-06
2.92997e-06
3.10406e-06
2.77616e-06
3.20195e-06
3.37847e-06
2.69397e-06
2.74436e-06
2.23189e-06
2.27594e-06
2.83531e-06
3.07322e-06
4.24789e-06
2.81688e-06
2.75849e-06
2.7321e-06
2.47927e-06
2.96449e-06
2.98413e-06
2.59275e-06
2.6541e-06
2.81971e-06
2.94996e-06
3.04714e-06
2.56951e-06
3.09693e-06
2.71809e-06
2.70525e-06
3.69433e-06
2.52693e-06
2.67756e-06
2.12062e-06
2.4627e-06
2.72525e-06
2.82992e-06
2.56407e-06
2.74381e-06
2.60803e-06
2.41653e-06
2.66368e-06
2.68247e-06
2.17079e-06
2.48148e-06
2.49206e-06
2.50009e-06
2.48276e-06
2.36013e-06
2.8188e-06
2.60251e-06
2.46395e-06
2.49993e-06
2.05609e-06
2.12803e-06
2.54188e-06
2.24406e-06
2.29173e-06
2.42276e-06
2.37266e-06
2.50768e-06
2.57378e-06
2.38384e-06
2.39217e-06
2.45568e-06
2.57275e-06
2.44482e-06
2.65565e-06
2.32111e-06
2.53574e-06
2.49575e-06
2.49188e-06
2.58928e-06
2.39439e-06
2.28465e-06
2.35845e-06
2.36028e-06
2.29654e-06
2.21218e-06
2.14001e-06
2.20187e-06
2.14451e-06
2.18655e-06
1.89018e-06
1.62621e-06
2.28114e-06
2.18125e-06
2.53348e-06
2.06559e-06
2.0775e-06
2.16236e-06
2.35529e-06
2.08167e-06
2.19121e-06
2.06855e-06
2.19566e-06
2.08841e-06
2.21358e-06
1.98069e-06
1.86144e-06
2.13818e-06
2.08739e-06
2.13279e-06
1.85286e-06
2.00717e-06
1.99645e-06
1.96417e-06
2.04822e-06
1.97712e-06
2.15518e-06
2.18169e-06
2.3994e-06
1.59625e-06
2.00439e-06
1.91592e-06
2.08791e-06
1.69439e-06
1.74363e-06
1.37008e-06
1.85235e-06
1.80758e-06
1.96483e-06
1.77665e-06
2.84597e-06
1.79794e-06
1.91755e-06
1.80813e-06
1.71656e-06
1.78143e-06
1.88879e-06
1.74874e-06
1.78019e-06
1.43486e-06
1.86857e-06
1.71212e-06
1.61087e-06
1.59589e-06
1.06244e-06
1.54655e-06
1.72442e-06
1.51684e-06
1.67897e-06
1.67311e-06
2.00212e-06
1.57411e-06
1.46772e-06
1.54301e-06
1.83486e-06
1.70989e-06
1.78752e-06
1.97524e-06
1.60998e-06
1.33116e-06
2.06451e-06
1.59177e-06
1.46409e-06
1.63739e-06
1.68495e-06
1.50025e-06
1.18893e-06
1.5928e-06
1.60914e-06
1.39724e-06
7.74018e-07
1.49404e-06
9.51586e-07
1.27862e-06
1.49856e-06
1.07655e-06
1.30728e-06
1.68429e-06
1.50343e-06
1.46361e-06
1.33879e-06
1.42836e-06
1.81705e-06
1.39321e-06
1.34444e-06
6.73119e-06
4.22932e-06
1.39083e-06
1.27957e-06
3.61298e-06
1.42783e-06
1.25934e-06
1.31757e-06
4.20566e-06
6.10735e-06
1.2436e-06
7.61698e-06
6.0109e-06
8.5739e-07
1.21731e-06
7.12788e-06
1.28856e-06
9.65262e-07
9.67299e-07
1.20436e-06
8.77469e-07
6.01699e-06
1.19725e-06
1.1072e-06
1.15531e-06
4.44036e-06
1.1943e-06
5.28194e-06
1.9427e-06
4.86949e-06
5.8763e-06
5.98945e-07
7.70279e-06
1.8506e-06
1.12611e-06
7.04162e-06
5.77212e-06
7.48577e-07
4.95035e-06
3.03363e-06
9.27208e-07
7.84243e-07
1.26556e-06
1.39323e-06
1.11168e-06
7.85949e-06
6.42122e-06
1.71968e-06
5.89107e-06
4.86349e-06
2.76652e-07
6.22522e-07
6.84553e-06
1.19808e-06
4.76164e-06
1.36587e-06
4.65669e-06
6.59924e-07
1.26399e-06
3.69162e-06
4.54891e-06
1.17937e-06
3.59324e-06
1.05548e-06
1.67541e-06
4.96878e-06
7.13782e-07
7.87409e-07
1.37462e-06
4.61053e-07
3.73214e-06
1.37725e-06
6.2878e-06
7.92849e-06
5.35138e-07
3.8919e-07
4.54133e-06
7.13355e-06
1.37946e-06
1.16984e-06
8.34724e-07
6.62991e-06
7.75937e-06
5.27583e-06
6.87772e-06
6.7198e-06
5.9528e-06
1.57689e-06
8.70425e-07
1.60508e-06
8.93342e-07
7.21148e-06
6.84722e-06
6.81349e-06
5.65473e-06
6.14572e-06
2.07728e-06
6.14862e-06
9.09502e-07
3.00329e-06
3.43033e-06
6.42572e-06
8.97423e-07
8.43922e-07
1.51882e-06
1.10405e-06
3.51564e-06
7.51946e-07
1.24392e-06
1.01753e-06
5.15193e-06
1.93558e-06
9.54389e-07
1.85079e-06
1.14722e-06
1.37933e-06
1.01072e-06
1.81003e-06
1.39528e-06
1.36031e-06
1.26545e-06
1.05638e-06
1.1957e-06
1.01426e-06
5.02592e-06
4.91722e-06
1.25551e-06
1.27751e-06
1.21581e-06
2.31543e-06
2.07959e-06
1.2775e-06
1.43559e-06
1.4963e-06
1.50053e-06
1.8002e-06
3.05894e-06
2.12178e-06
2.3903e-06
1.94685e-06
1.78721e-06
2.0099e-06
2.05422e-06
1.89672e-06
2.2106e-06
2.13204e-06
2.06936e-06
1.93008e-06
2.15485e-06
2.16135e-06
2.00943e-06
2.77036e-06
2.05193e-06
2.26886e-06
2.88137e-06
2.31056e-06
3.00264e-06
2.94441e-06
2.30513e-06
2.3997e-06
2.60394e-06
2.86363e-06
2.58035e-06
2.80459e-06
2.2915e-06
2.85368e-06
2.71924e-06
2.89108e-06
2.74478e-06
3.42607e-06
4.06932e-06
3.31062e-06
3.25099e-06
3.54404e-06
3.85722e-06
3.95186e-06
4.351e-06
3.5565e-06
3.85231e-06
3.49481e-06
3.96461e-06
3.81411e-06
3.59903e-06
3.84636e-06
3.96264e-06
4.17886e-06
4.1614e-06
3.83488e-06
3.99875e-06
4.29639e-06
4.43424e-06
3.93269e-06
4.40762e-06
3.80096e-06
3.82116e-06
4.52339e-06
4.34835e-06
3.75891e-06
4.21299e-06
4.24388e-06
4.34924e-06
3.92704e-06
4.06011e-06
4.02927e-06
3.92331e-06
4.69495e-06
4.46271e-06
4.78872e-06
4.55617e-06
3.62967e-06
3.6255e-06
4.4847e-06
4.68187e-06
4.49388e-06
5.06825e-06
4.64729e-06
4.36871e-06
5.01919e-06
4.94224e-06
5.10047e-06
4.98499e-06
4.60872e-06
4.89509e-06
4.89555e-06
4.82185e-06
5.3911e-06
4.82299e-06
4.62827e-06
5.01361e-06
4.91557e-06
5.00712e-06
5.74953e-06
4.90702e-06
5.76946e-06
5.38822e-06
5.99984e-06
6.10275e-06
4.71017e-06
5.49189e-06
5.32947e-06
5.4226e-06
4.73363e-06
5.0181e-06
5.17684e-06
5.56524e-06
1.09025e-05
5.98098e-06
5.47113e-06
1.0727e-05
4.83498e-06
4.62817e-06
1.08846e-05
5.54851e-06
5.89637e-06
5.03869e-06
1.07084e-05
5.4987e-06
1.08096e-05
5.6974e-06
4.56988e-06
1.06785e-05
5.56551e-06
5.66804e-06
5.28711e-06
1.08821e-05
5.06995e-06
1.43745e-06
5.43998e-06
5.41835e-06
5.49313e-06
5.39199e-06
1.32887e-06
1.46221e-06
5.25433e-06
5.69314e-06
5.74573e-06
6.50388e-06
6.07438e-06
5.65834e-06
1.55999e-06
6.58986e-06
1.07768e-05
6.07018e-06
6.2072e-06
6.28721e-06
6.31013e-06
1.07312e-05
1.05318e-05
1.37379e-06
5.8273e-06
1.07188e-05
5.66773e-06
6.98695e-06
5.75651e-06
6.88428e-06
1.07591e-05
1.06713e-05
1.00784e-05
1.07692e-05
1.16893e-06
1.37195e-06
1.0757e-05
6.75253e-06
1.07685e-05
6.45587e-06
6.53763e-06
6.31204e-06
1.27372e-06
1.05465e-06
1.07129e-05
1.07549e-05
6.84896e-06
1.07824e-05
1.07467e-05
8.72543e-07
6.2674e-06
6.90341e-06
1.07626e-05
1.0767e-05
1.07221e-05
7.26539e-06
1.07744e-05
6.76243e-06
1.07791e-05
1.04132e-05
1.07677e-05
6.39374e-06
1.07564e-05
1.05997e-06
1.07206e-05
1.07261e-05
1.07711e-05
1.07831e-05
6.68977e-06
1.07512e-05
1.07371e-05
1.07903e-05
1.07756e-05
1.07344e-05
6.69826e-06
1.07373e-05
1.07743e-05
1.07076e-05
1.06752e-05
1.07346e-05
1.07735e-05
6.59907e-06
7.08673e-06
1.07608e-05
1.07866e-05
7.3495e-06
1.07538e-05
6.80262e-06
7.52797e-06
1.07526e-05
1.07877e-05
1.07444e-05
1.07291e-05
1.07494e-05
1.07398e-05
6.96598e-06
1.60395e-06
6.55196e-06
1.06239e-05
1.07287e-05
1.07397e-05
1.07444e-05
1.07506e-05
1.06498e-05
6.54377e-07
1.07843e-05
4.33964e-06
1.06962e-05
1.07144e-05
6.91548e-06
1.0748e-05
1.0759e-05
6.49276e-06
1.07534e-05
1.0782e-05
1.07868e-05
1.04552e-05
1.0745e-05
1.07488e-05
1.00277e-05
1.0746e-05
1.07441e-05
1.07809e-05
1.07374e-05
1.0692e-05
1.07457e-05
1.07437e-05
1.07442e-05
1.07584e-05
1.07488e-05
1.03887e-06
1.07619e-05
1.07652e-05
1.07827e-05
1.07488e-05
1.0731e-05
1.07289e-05
1.07421e-05
1.07839e-05
1.07194e-05
1.06696e-05
1.06487e-05
1.07495e-05
1.08342e-06
1.06962e-05
1.07832e-05
1.07714e-05
1.15281e-06
1.06294e-06
1.05078e-05
1.07402e-05
6.88816e-06
1.06794e-05
1.06868e-05
1.0777e-05
1.06999e-05
1.07673e-05
1.07802e-05
7.16312e-06
1.07786e-05
1.06944e-05
7.76027e-06
1.06697e-05
1.0744e-05
1.07807e-05
1.07049e-05
1.06889e-05
1.07843e-05
1.0727e-05
1.0783e-05
1.07425e-05
1.07628e-05
1.07548e-05
1.06638e-05
1.07222e-05
1.66546e-06
1.07431e-05
1.07816e-05
1.07524e-05
7.31047e-06
1.077e-05
1.07783e-05
1.07515e-05
1.06984e-05
1.07524e-05
1.07706e-05
1.06937e-05
1.07594e-05
1.06246e-05
1.08027e-05
1.06804e-05
1.06395e-05
1.07555e-05
1.07412e-05
1.07778e-05
1.07582e-05
1.07809e-05
7.28729e-06
1.07813e-05
1.07565e-05
1.07622e-05
1.07502e-05
1.07425e-05
1.07579e-05
7.16302e-06
1.07694e-05
1.07818e-05
1.07527e-05
1.07539e-05
1.07752e-05
1.07608e-05
1.07621e-05
1.07566e-05
1.06604e-05
1.07804e-05
1.06141e-05
1.06974e-05
1.07732e-05
1.07571e-05
1.07668e-05
1.07707e-05
1.07605e-05
1.07607e-05
1.07468e-05
1.07703e-05
7.21096e-06
1.07481e-05
1.05699e-05
7.64996e-06
1.07443e-05
1.07802e-05
1.0539e-05
1.078e-05
6.84669e-06
1.07665e-05
1.07587e-05
1.0761e-05
1.07586e-05
1.06802e-05
1.07723e-05
1.07752e-05
1.07764e-05
1.07759e-05
2.00005e-06
1.05312e-05
1.07874e-05
1.0768e-05
1.07755e-05
1.07551e-05
1.07541e-05
1.07718e-05
1.06634e-05
1.07801e-05
1.07766e-05
1.0774e-05
1.07688e-05
1.07788e-05
1.07685e-05
3.00972e-06
1.06086e-05
1.07737e-05
1.07771e-05
1.07269e-05
1.07535e-05
1.07348e-05
1.0771e-05
1.07732e-05
1.0797e-05
1.06866e-05
1.07638e-05
1.07651e-05
1.07674e-05
1.07801e-05
1.06701e-05
7.21977e-06
1.07762e-05
1.07448e-05
1.07678e-05
1.066e-05
4.59229e-06
1.04688e-05
1.075e-05
1.06741e-05
1.07766e-05
1.04982e-05
1.07577e-05
1.06755e-05
1.07933e-05
1.06741e-05
1.0751e-05
1.07717e-05
5.76785e-06
1.07613e-05
2.1498e-06
1.07928e-05
1.07568e-05
1.07601e-05
1.07571e-05
1.07567e-05
1.0766e-05
1.07592e-05
1.06441e-05
7.51703e-06
1.07545e-05
6.86967e-06
1.06108e-05
1.07729e-05
2.49433e-06
1.07307e-05
1.06847e-05
1.0694e-05
3.28996e-06
1.07679e-05
1.07661e-05
1.07476e-05
8.01971e-06
1.07601e-05
6.28499e-06
1.07146e-05
1.07733e-05
4.78905e-06
1.07572e-05
1.07155e-05
1.06378e-05
1.0787e-05
1.07371e-05
1.05826e-05
1.06761e-05
1.07164e-05
1.07655e-05
1.01788e-05
9.85153e-07
1.06509e-05
1.076e-05
1.07655e-05
1.07027e-05
1.07729e-05
1.07764e-05
1.07687e-05
1.07223e-05
1.03938e-05
1.06709e-05
1.07722e-05
1.07574e-05
4.53291e-07
1.0765e-05
1.07543e-05
1.07696e-05
1.05557e-05
1.07159e-05
1.07876e-05
1.07668e-05
1.0732e-05
1.07658e-05
1.06458e-05
1.07704e-05
5.80867e-06
1.07256e-05
1.07746e-05
1.06866e-05
8.66919e-07
1.07262e-05
1.07685e-05
1.07754e-05
2.75088e-06
1.07554e-05
1.07064e-05
1.07624e-05
1.07599e-05
1.0295e-05
1.06759e-05
9.99276e-06
1.07843e-05
1.07521e-05
1.07737e-05
6.62677e-06
1.07398e-05
1.0792e-05
1.07737e-05
1.07565e-05
1.06341e-05
1.07575e-05
1.07534e-05
1.00864e-06
1.07089e-05
1.0202e-05
1.0699e-05
1.07709e-05
6.75947e-06
1.0628e-05
1.07789e-05
1.07544e-05
1.90061e-06
1.05137e-05
1.07892e-05
1.06476e-05
4.73381e-06
1.07535e-05
1.07743e-05
6.92563e-06
1.07687e-05
1.06227e-05
4.90101e-06
1.07171e-05
7.73825e-06
1.07709e-05
1.07615e-05
1.07923e-05
1.06921e-05
1.06557e-05
4.72221e-06
1.06964e-05
1.07488e-05
1.07709e-05
5.79548e-07
1.07688e-05
1.07738e-05
1.07091e-05
1.05436e-05
4.70735e-06
7.10505e-06
7.10357e-06
1.07759e-05
1.07424e-05
1.07587e-05
9.67175e-06
1.07888e-05
1.05149e-05
1.06591e-05
1.07199e-05
1.07411e-05
1.06731e-05
3.93689e-07
1.07066e-05
8.81269e-07
1.07748e-05
1.07212e-05
1.04932e-05
1.07648e-05
1.06414e-05
1.07872e-05
1.06072e-05
1.00965e-05
1.07559e-05
7.16263e-06
1.06166e-05
1.07265e-05
1.07671e-05
1.06112e-05
2.25022e-06
6.07272e-09
1.07327e-05
1.06236e-05
1.06046e-05
1.06781e-05
1.0743e-05
1.07366e-05
1.07054e-05
1.03057e-05
1.07158e-05
3.33929e-06
1.07834e-05
1.06492e-05
1.07721e-05
1.06655e-05
1.06608e-05
7.98933e-06
1.0694e-05
1.0751e-05
1.07284e-05
1.07476e-05
1.05069e-05
1.06269e-05
1.07799e-05
1.05101e-05
1.0785e-05
1.06636e-05
6.27404e-06
1.07594e-05
1.06443e-05
1.06155e-05
1.07281e-05
1.07131e-05
1.07547e-05
2.40245e-06
1.0684e-05
6.84718e-07
1.07075e-05
1.06209e-05
1.06024e-05
1.06394e-05
1.07545e-05
9.25588e-07
1.06009e-05
1.07585e-05
1.06319e-05
1.05974e-05
6.07108e-06
1.07482e-05
7.03506e-06
6.03002e-06
1.07462e-05
1.06006e-05
1.07904e-05
4.15846e-06
1.07893e-05
1.40947e-06
4.46797e-06
1.07809e-05
1.07954e-05
1.01229e-05
1.01453e-05
8.00575e-06
1.0756e-05
1.03519e-05
1.07525e-05
1.06162e-05
1.05117e-05
1.06722e-05
1.0786e-05
1.05835e-05
1.43577e-06
1.07254e-05
1.07506e-05
1.06744e-05
1.07045e-05
9.03843e-07
4.81937e-06
1.07486e-05
1.04173e-05
1.70927e-06
4.83591e-06
1.06906e-05
1.05923e-06
7.67105e-06
1.06742e-05
1.05396e-05
1.27698e-06
7.00808e-06
1.0644e-05
1.07855e-05
8.23102e-06
1.07761e-05
9.1701e-07
1.06728e-05
7.04475e-06
1.06507e-05
1.03385e-05
9.98387e-07
1.07527e-05
1.03777e-05
1.06494e-05
1.07497e-05
1.07331e-05
1.05977e-05
1.0778e-05
4.67054e-06
2.33979e-06
4.58884e-06
6.15988e-06
2.08462e-06
1.06306e-05
1.04549e-05
9.93559e-07
1.87065e-06
1.06241e-05
1.04429e-05
5.65429e-07
5.87253e-06
1.07459e-05
1.06648e-05
1.03867e-05
1.07175e-05