/*--------------------------------*- C++ -*----------------------------------*\
  =========                 |
  \\      /  F ield         | OpenFOAM: The Open Source CFD Toolbox
   \\    /   O peration     | Website:  https://openfoam.org
    \\  /    A nd           | Version:  8
     \\/     M anipulation  |
\*---------------------------------------------------------------------------*/
FoamFile
{
    version     2.0;
    format      ascii;
    class       volScalarField;
    location    "8";
    object      p;
}
// * * * * * * * * * * * * * * * * * * * * * * * * * * * * * * * * * * * * * //

dimensions      [0 2 -2 0 0 0 0];

internalField   nonuniform List<scalar> 
4280
(
4.71233e-06
1.12771e-06
4.71156e-06
4.59125e-06
2.56493e-06
2.98493e-06
2.40686e-06
1.05663e-06
2.7465e-06
4.37946e-07
4.70135e-06
5.35685e-07
4.71304e-06
4.49809e-06
2.50071e-06
1.23153e-06
3.76666e-06
3.62401e-06
4.21979e-06
1.11009e-06
4.69339e-06
6.68455e-07
4.66606e-06
1.71476e-06
1.86954e-06
5.67442e-07
7.31941e-07
2.11194e-06
1.50397e-06
3.58383e-06
2.51797e-06
3.36966e-07
3.00871e-06
2.88537e-06
4.64757e-06
1.37745e-06
2.69625e-06
3.73965e-06
4.78078e-07
2.81341e-06
4.35735e-06
3.47579e-06
4.18129e-06
1.67043e-06
4.97745e-07
3.75292e-06
3.6116e-06
1.31862e-06
2.02719e-06
2.77883e-06
2.84068e-06
1.29211e-06
1.50069e-06
4.26776e-06
4.50944e-06
1.17085e-06
4.11971e-06
2.45894e-06
2.23801e-06
1.25889e-06
1.37556e-06
9.26431e-07
3.3907e-06
2.91871e-06
2.17773e-06
9.39985e-07
4.1182e-06
4.39038e-06
1.24699e-06
1.13148e-06
7.2434e-07
1.67505e-06
7.67207e-07
2.64816e-06
4.42005e-06
4.2153e-06
2.19719e-06
3.39503e-07
1.41809e-06
4.10812e-06
4.95147e-07
8.08459e-07
4.69947e-06
1.41654e-06
2.50487e-06
4.05398e-06
5.50671e-07
6.72349e-07
4.06072e-06
1.21413e-07
9.5005e-07
3.97889e-06
2.54055e-07
5.50588e-07
3.37414e-06
1.2157e-06
2.85438e-06
1.3129e-06
2.34559e-06
1.56486e-06
2.86913e-06
3.36121e-06
1.82189e-06
2.08275e-06
1.19677e-06
2.92485e-06
3.02001e-06
3.19881e-06
1.79795e-06
4.32141e-06
4.25272e-06
3.02886e-06
2.56478e-06
4.18653e-06
4.69691e-06
1.7306e-06
4.59379e-06
3.4923e-06
4.28781e-06
4.5338e-06
3.77709e-06
8.51213e-07
9.56655e-07
8.4604e-07
2.28588e-06
3.9301e-06
4.32364e-06
6.71317e-07
4.70517e-06
2.8841e-06
2.47249e-06
1.2522e-06
7.87482e-07
2.32495e-06
3.56628e-06
7.77362e-08
1.94441e-06
1.22057e-06
1.34206e-06
1.15228e-06
2.9232e-06
4.01409e-07
4.56043e-06
2.97936e-06
2.68624e-06
2.78169e-06
4.66972e-06
5.85068e-07
4.40735e-06
2.80723e-06
4.05379e-06
3.72111e-06
9.47668e-07
4.41119e-06
3.47723e-06
1.08578e-06
4.19635e-06
1.57664e-06
2.59373e-06
1.90889e-06
2.71855e-06
3.23094e-06
4.69766e-06
3.87718e-06
3.42921e-06
4.02623e-06
1.15176e-06
1.99635e-06
1.35434e-06
4.87872e-07
2.17422e-06
8.26921e-07
2.62579e-06
6.59847e-08
4.3407e-06
4.47542e-07
4.3636e-06
3.03158e-06
7.37076e-07
1.74307e-06
4.30149e-06
4.19954e-06
4.24735e-06
3.04616e-06
2.50656e-06
3.3348e-06
3.63885e-06
4.62194e-06
1.43378e-06
2.93102e-07
4.41227e-06
3.49239e-06
1.54389e-06
1.5555e-06
6.81587e-07
3.35554e-06
1.80127e-06
2.6514e-06
1.51654e-06
2.93601e-06
4.29708e-06
3.94142e-06
1.62765e-06
6.48877e-07
1.86295e-06
3.27726e-06
2.30125e-06
7.93062e-07
1.50992e-06
2.04553e-06
2.11245e-06
4.42505e-06
2.26396e-06
4.43666e-06
9.54759e-07
3.52761e-06
4.50708e-06
2.23372e-06
7.42209e-07
4.20287e-06
1.28945e-06
4.69299e-06
3.81027e-06
4.03111e-06
3.31282e-06
4.26146e-06
4.24551e-06
2.19428e-06
3.08413e-06
3.32258e-06
4.61244e-06
1.47996e-06
4.65392e-06
3.83994e-06
1.67021e-06
4.64006e-06
3.69878e-06
2.41321e-06
4.05313e-06
6.70867e-07
9.95854e-07
3.06991e-06
2.91914e-06
3.99791e-06
1.11718e-06
6.79825e-07
7.2669e-07
1.04365e-06
1.00284e-06
9.0564e-07
3.29358e-06
2.04257e-06
3.15833e-06
6.16378e-07
3.72123e-07
1.31344e-06
4.49147e-06
1.85848e-06
4.4786e-06
3.38591e-06
3.47487e-06
4.64442e-06
4.34576e-06
6.07519e-07
4.26176e-06
2.05797e-06
2.78971e-06
2.58114e-06
2.93887e-06
4.01136e-06
1.5302e-07
1.91566e-06
1.28056e-06
1.95411e-06
2.23698e-06
1.34336e-06
4.36456e-06
1.06423e-06
2.0371e-06
4.46746e-06
2.15843e-06
3.33569e-06
1.21949e-06
4.66803e-06
1.912e-06
4.69105e-06
2.94637e-06
1.1047e-06
1.7992e-06
7.62762e-07
5.19165e-07
3.19849e-07
2.92269e-07
3.06156e-06
2.88002e-06
3.86014e-06
3.22498e-07
3.59974e-06
9.86166e-07
2.39335e-06
3.69402e-06
4.7111e-06
2.82298e-06
4.61711e-06
6.10284e-07
8.7238e-07
4.65869e-06
4.63836e-06
2.91817e-06
4.92924e-07
1.60717e-06
4.65011e-06
1.43826e-06
3.76621e-06
3.85821e-06
4.38747e-07
4.68014e-06
4.03643e-06
8.19636e-07
8.44649e-07
4.13931e-06
4.39237e-06
4.11811e-08
2.04294e-06
4.9498e-07
4.43772e-06
3.80504e-07
4.20981e-06
1.32889e-06
1.93536e-06
4.62717e-06
5.90367e-07
3.18325e-06
4.10755e-06
3.26484e-06
4.51115e-07
1.34844e-06
2.72689e-06
3.01996e-06
1.40616e-06
4.63767e-06
1.42991e-06
3.4187e-06
2.19398e-06
5.8117e-07
1.46786e-06
3.88319e-06
4.31137e-06
6.48201e-07
2.08494e-06
3.97509e-06
4.1569e-06
3.81972e-06
4.45594e-07
4.60688e-06
3.50943e-06
2.78527e-06
4.10292e-06
1.01114e-06
2.15238e-06
4.69759e-06
3.91205e-06
3.66459e-06
1.73352e-06
1.98022e-06
3.06932e-06
2.52989e-06
3.62697e-06
2.16679e-06
2.97089e-06
6.00746e-07
2.24188e-06
1.07948e-06
4.44414e-06
2.74731e-06
3.38609e-06
2.3149e-06
4.70113e-06
3.76193e-07
3.41373e-06
4.65792e-06
3.98605e-06
4.70566e-06
4.07053e-06
4.27284e-07
2.65148e-06
4.13651e-06
3.83895e-07
3.7155e-06
4.31834e-06
3.82412e-06
4.28499e-07
4.03865e-06
4.47018e-06
3.03329e-06
2.35396e-06
7.12071e-07
4.61244e-06
4.50933e-06
2.556e-06
3.42165e-06
1.25545e-06
6.6797e-07
7.14968e-07
2.26988e-06
3.76758e-06
2.8023e-06
1.8889e-06
8.93601e-07
3.08521e-06
1.36729e-06
4.7026e-06
3.1395e-06
2.10942e-06
1.4655e-06
3.9688e-07
4.68551e-06
1.76822e-06
3.56149e-06
4.1709e-06
4.54881e-07
4.08476e-06
2.10047e-06
3.76861e-06
2.12089e-06
3.02374e-06
2.28807e-06
3.40769e-06
3.05005e-06
3.24567e-06
1.31121e-06
2.88062e-06
4.09657e-06
3.63791e-06
4.62688e-06
4.44085e-06
4.53954e-06
1.31974e-06
4.44832e-06
4.37157e-06
2.7305e-06
1.67443e-06
4.03852e-06
1.54364e-07
1.57213e-06
3.45889e-06
4.35113e-06
3.86007e-06
4.26018e-06
3.78953e-06
4.47416e-06
4.32348e-06
3.08687e-06
3.864e-06
2.52602e-07
4.02621e-06
3.45158e-06
3.78087e-06
4.24351e-06
4.55234e-06
3.36431e-06
5.21698e-06
4.01499e-06
4.71617e-06
8.7211e-07
3.4774e-06
3.76507e-06
3.18941e-06
3.90383e-06
2.35396e-07
4.7772e-07
4.26353e-06
4.28227e-06
4.61525e-07
2.01976e-07
4.2747e-06
1.61822e-06
3.50769e-06
1.49704e-06
3.02752e-06
5.62656e-06
4.27723e-06
2.72069e-06
1.6677e-06
1.12031e-06
5.13267e-07
2.88845e-06
4.58051e-06
3.97435e-06
4.49344e-06
2.7344e-06
4.0646e-06
4.27248e-06
6.1881e-07
4.71376e-06
3.91801e-06
3.3088e-06
3.14224e-06
1.41547e-06
3.13221e-06
2.82035e-06
4.45505e-06
3.68124e-06
4.30002e-06
3.87208e-06
3.12194e-06
2.01973e-06
1.7683e-06
1.91084e-06
4.57735e-06
2.2498e-06
4.32044e-06
4.30563e-06
4.68907e-06
3.17925e-06
1.32412e-06
4.14529e-06
4.577e-06
5.03966e-07
3.89897e-06
2.96776e-06
3.74624e-06
4.55824e-07
3.95182e-06
4.42843e-06
4.22265e-06
3.63154e-06
1.73942e-06
4.5846e-06
4.09227e-06
1.63025e-06
3.50268e-06
3.91417e-06
3.68825e-06
4.43671e-06
2.9421e-06
5.09357e-07
2.65911e-06
3.23383e-06
2.95378e-06
6.32038e-07
4.65395e-06
4.53917e-06
4.59853e-06
3.47659e-06
4.66475e-06
7.62174e-07
5.02701e-07
4.60094e-06
3.37394e-06
3.69503e-06
3.54134e-06
2.77895e-06
4.70593e-06
4.16661e-06
4.49438e-06
3.47289e-06
1.05382e-06
3.84944e-06
2.57687e-06
4.61641e-06
3.17095e-06
7.77468e-07
2.6066e-06
4.55097e-06
7.28776e-07
3.53504e-06
5.17068e-07
3.83886e-06
1.87888e-06
3.18993e-06
4.19056e-06
4.59342e-06
4.5199e-06
6.74982e-07
3.57888e-07
4.40497e-06
6.13789e-07
3.25795e-06
3.60636e-06
5.30294e-07
4.23595e-07
3.53777e-06
3.34153e-06
3.77782e-06
3.51826e-06
4.75063e-06
3.26962e-06
4.1093e-06
4.6876e-06
2.96595e-06
2.48415e-06
4.25359e-06
4.16611e-06
4.2067e-06
7.18893e-07
3.02651e-06
3.20985e-06
3.9975e-06
2.70287e-06
4.63866e-06
4.6493e-06
4.6587e-06
1.07384e-06
4.07636e-06
4.6598e-06
3.58721e-06
2.65594e-06
2.3701e-06
4.19266e-06
4.60566e-06
3.44606e-06
4.57188e-07
1.68854e-06
5.26695e-07
2.14045e-06
4.66209e-06
3.4501e-06
1.53619e-06
3.35557e-06
4.6146e-06
4.68944e-06
1.25264e-06
3.08486e-06
5.46565e-07
4.71199e-06
2.77894e-06
4.13215e-06
4.63896e-06
4.63706e-06
4.71667e-07
3.47041e-07
2.37759e-06
3.48228e-06
4.70273e-06
2.84204e-06
4.74338e-06
2.75782e-06
3.45222e-06
3.65903e-06
1.81158e-06
4.71807e-06
2.88635e-06
4.75928e-06
4.40771e-07
4.3187e-06
3.06471e-06
4.54056e-06
4.73682e-06
2.54872e-06
3.06078e-06
3.5537e-06
5.78147e-07
4.59863e-06
2.59492e-06
4.64465e-06
5.22626e-07
4.59858e-06
4.15696e-06
3.27707e-06
4.64576e-06
2.85922e-06
2.90717e-07
3.55921e-06
3.34202e-06
2.8946e-06
2.82163e-06
2.81666e-06
3.61023e-06
2.50604e-06
4.32631e-06
4.54111e-06
3.96711e-07
2.76195e-06
2.78622e-06
3.02363e-06
3.54226e-06
4.48435e-06
3.36906e-06
4.7183e-06
4.68835e-07
4.72274e-06
4.45396e-06
3.60192e-06
3.70805e-06
3.79024e-06
3.5e-06
3.68997e-06
4.62635e-06
2.87236e-06
3.41555e-06
2.76057e-06
2.82391e-06
3.6546e-06
3.48007e-06
2.41651e-06
2.62897e-06
4.73234e-06
3.03103e-06
2.50284e-06
3.54532e-06
3.36531e-06
6.6491e-07
3.7915e-06
2.93919e-06
2.3712e-06
4.30652e-06
3.18973e-06
3.0238e-06
4.2939e-06
3.01385e-06
1.34313e-06
4.63203e-06
3.36758e-06
3.23824e-06
2.98701e-06
3.82226e-06
3.56169e-06
4.09841e-06
3.12e-06
4.69595e-06
3.56261e-06
3.12884e-06
4.51483e-06
2.93284e-06
4.78258e-06
4.72757e-06
4.70335e-06
2.98912e-06
4.71531e-06
2.94236e-06
7.27067e-07
5.89462e-07
6.38795e-07
3.45578e-06
4.70416e-06
3.37984e-06
2.40829e-06
4.70286e-06
3.10271e-06
4.69433e-06
2.51542e-06
4.66577e-06
4.69678e-06
3.0659e-06
3.2844e-06
4.41562e-06
3.0526e-06
2.56348e-06
2.8609e-06
4.70808e-06
4.53079e-06
2.82557e-06
3.19172e-06
2.69613e-06
2.87171e-06
2.42283e-06
2.61241e-06
3.29863e-06
2.64235e-06
6.52146e-07
4.63864e-06
4.17709e-06
2.99828e-06
3.30274e-06
2.82806e-06
3.13572e-06
2.7246e-06
2.77026e-06
4.54521e-06
4.95127e-07
2.86597e-06
3.44243e-06
4.70261e-06
4.73529e-06
2.92101e-06
3.07059e-06
4.11222e-06
2.67551e-06
4.18424e-07
7.02692e-07
3.24398e-06
4.71131e-06
3.25897e-06
3.22164e-06
2.9623e-06
4.72121e-06
3.63866e-06
2.67447e-06
2.8507e-06
4.69013e-06
3.53061e-06
4.71022e-06
3.08094e-06
3.73255e-06
2.44275e-06
3.2575e-06
7.75378e-07
2.73597e-06
3.23197e-06
2.50829e-06
4.69386e-06
2.77833e-06
2.71429e-06
4.71507e-06
4.69766e-06
2.55014e-06
3.40361e-06
3.20845e-06
1.62456e-06
5.19816e-07
3.20214e-06
3.12598e-06
-1.70662e-07
2.90402e-06
2.80417e-06
4.68596e-06
4.71303e-06
1.44712e-06
4.49186e-06
2.80111e-06
3.22423e-06
3.27443e-06
2.82817e-06
3.37366e-06
1.97748e-06
3.13931e-06
4.68708e-06
3.33512e-06
4.71595e-06
3.18487e-06
3.30417e-06
2.71391e-06
3.24305e-06
3.01289e-06
3.24533e-06
3.17842e-06
4.57253e-06
3.09867e-06
3.62778e-06
2.6063e-06
3.16108e-06
3.30362e-06
2.75898e-06
2.45389e-06
2.89925e-06
2.63467e-06
3.09315e-06
4.70661e-06
2.59642e-06
4.70352e-06
2.53556e-06
3.17452e-06
3.13305e-06
3.72856e-06
3.12467e-06
7.13499e-07
2.69296e-06
3.30281e-06
3.08172e-06
2.74737e-06
2.77393e-06
4.6433e-06
3.23707e-06
4.60226e-06
2.56937e-06
3.10171e-06
4.44414e-06
3.58174e-06
3.11105e-06
3.20759e-06
3.35599e-06
3.16465e-06
2.61008e-06
2.58843e-06
3.20178e-06
4.35149e-06
3.72191e-06
3.09428e-06
3.15375e-06
3.02719e-06
3.12772e-06
8.37226e-07
4.70655e-06
3.15345e-06
2.63919e-06
3.0709e-06
2.71457e-06
3.17845e-06
2.99916e-06
3.18149e-06
3.00092e-06
2.21209e-06
3.11411e-06
4.68937e-06
7.79095e-07
2.88036e-06
3.05966e-06
3.04364e-06
2.44447e-06
4.60322e-06
3.21113e-06
3.09559e-06
2.72619e-06
3.05119e-06
3.17378e-06
2.16357e-06
2.92237e-06
2.26393e-06
2.72052e-06
2.96228e-06
3.03457e-06
2.57193e-06
4.71212e-06
2.5596e-06
4.68724e-06
3.06554e-06
3.13946e-06
8.28561e-07
2.63215e-06
1.98144e-06
3.06588e-06
2.52258e-06
2.97518e-06
7.74754e-07
2.5486e-06
2.09251e-06
2.74012e-06
3.00513e-06
2.89084e-06
4.63568e-06
2.14776e-06
3.07971e-06
2.65164e-06
2.08964e-06
2.03643e-06
2.98502e-06
3.05544e-06
3.00717e-06
3.091e-06
4.44041e-06
2.56988e-06
3.08988e-06
2.89776e-06
2.99707e-06
2.93608e-06
2.98498e-06
2.72639e-06
2.58963e-06
2.91658e-06
2.30879e-06
2.54946e-06
3.04071e-06
2.46794e-06
2.52133e-06
2.83009e-06
4.71416e-06
2.89632e-06
2.50468e-06
2.90683e-06
2.55512e-06
2.47901e-06
2.49424e-06
2.83346e-06
2.99378e-06
8.40451e-07
2.83635e-06
2.93157e-06
2.68148e-06
2.86876e-06
2.84003e-06
2.35565e-06
2.8602e-06
2.19052e-06
2.95078e-06
2.87105e-06
2.03882e-06
2.3064e-06
3.18883e-06
2.2705e-06
3.01775e-06
2.27578e-06
1.91045e-06
2.99357e-06
2.50592e-06
2.36634e-06
2.9244e-06
2.81081e-06
2.76939e-06
2.49135e-06
1.41427e-06
2.40085e-06
2.77393e-06
2.3166e-06
2.91606e-06
2.27253e-06
2.84847e-06
2.44124e-06
2.76913e-06
4.08083e-06
2.35666e-06
2.41615e-06
2.14061e-06
8.56222e-07
2.81991e-06
2.92559e-06
2.30284e-06
2.95221e-06
2.75979e-06
2.7055e-06
2.79755e-06
2.74916e-06
2.67066e-06
2.7441e-06
2.30675e-06
2.29588e-06
2.40838e-06
2.80066e-06
2.1246e-06
2.92848e-06
2.31083e-06
4.70248e-06
2.80889e-06
2.24908e-06
2.2658e-06
2.11456e-06
2.16517e-06
2.70744e-06
2.79355e-06
2.60878e-06
2.38044e-06
2.70702e-06
2.20016e-06
2.06407e-06
2.64283e-06
2.64163e-06
2.21916e-06
2.27232e-06
2.44791e-06
2.77689e-06
2.73386e-06
2.20049e-06
2.7556e-06
2.83485e-06
2.6091e-06
2.23968e-06
2.93167e-06
2.6395e-06
2.65364e-06
2.80577e-06
2.11761e-06
2.71969e-06
2.71716e-06
2.78151e-06
2.64796e-06
2.12781e-06
2.32625e-06
1.90385e-06
1.68435e-06
1.96823e-06
2.45181e-06
2.62354e-06
2.67114e-06
9.13805e-07
2.57757e-06
2.03127e-06
1.98405e-06
2.57216e-06
2.17495e-06
2.93359e-06
1.74038e-06
2.92918e-06
2.55185e-06
2.58501e-06
2.58082e-06
2.47795e-06
2.07567e-06
2.31129e-06
2.14243e-06
2.51321e-06
2.65893e-06
2.18052e-06
2.1661e-06
2.12312e-06
2.54172e-06
2.26535e-06
2.58622e-06
2.13595e-06
2.53918e-06
2.08827e-06
2.21032e-06
2.56111e-06
2.75312e-06
1.88851e-06
2.64353e-06
2.15379e-06
2.02665e-06
2.56212e-06
2.06629e-06
1.79027e-06
2.11401e-06
2.15602e-06
2.60793e-06
2.50561e-06
2.09513e-06
2.6224e-06
2.43287e-06
2.22351e-06
2.37634e-06
2.59133e-06
2.28785e-06
2.51271e-06
2.49389e-06
3.11115e-06
2.68029e-06
2.55952e-06
2.44773e-06
2.54643e-06
2.18772e-06
2.2307e-06
2.09471e-06
2.44028e-06
2.35174e-06
2.55728e-06
2.43998e-06
2.70597e-06
2.13106e-06
2.38003e-06
2.01873e-06
2.2466e-06
2.44903e-06
2.34651e-06
2.34834e-06
1.98381e-06
1.92646e-06
9.65426e-07
2.40725e-06
1.86681e-06
2.35434e-06
1.94252e-06
1.96585e-06
1.02607e-06
2.51938e-06
2.46355e-06
2.40809e-06
2.41119e-06
2.28617e-06
2.43692e-06
1.04449e-06
2.39761e-06
2.3707e-06
1.99796e-06
2.05258e-06
1.92343e-06
2.3778e-06
2.50007e-06
2.04219e-06
2.52939e-06
2.209e-06
2.3437e-06
2.31063e-06
1.83918e-06
1.58652e-06
6.48675e-07
1.88343e-06
1.01198e-06
1.93813e-06
2.54478e-06
1.86713e-06
2.51046e-06
1.91027e-06
1.83939e-06
1.85554e-06
2.27481e-06
2.24068e-06
2.41441e-06
2.45614e-06
1.09464e-06
1.89264e-06
1.82953e-06
2.3368e-06
1.87697e-06
1.97411e-06
1.84404e-06
2.29123e-06
2.30603e-06
1.95654e-06
2.26579e-06
2.41546e-06
2.31434e-06
1.82004e-06
1.97959e-06
2.10507e-06
1.86788e-06
2.39946e-06
2.27716e-06
1.70203e-06
1.73372e-06
2.24127e-06
2.14153e-06
1.80133e-06
1.766e-06
2.021e-06
2.09087e-06
1.64795e-06
2.35858e-06
1.85551e-06
1.38343e-06
1.73012e-06
1.89775e-06
2.24669e-06
2.33748e-06
1.90581e-06
2.17218e-06
2.20361e-06
1.93244e-06
1.10333e-06
1.51218e-06
2.48023e-06
1.53036e-06
1.80538e-06
2.20491e-06
2.33383e-06
2.08492e-06
1.92158e-06
2.19774e-06
2.23973e-06
2.26837e-06
2.14654e-06
2.31963e-06
2.1027e-06
1.79986e-06
1.31165e-06
2.39461e-06
2.13434e-06
2.30549e-06
2.25979e-06
2.17538e-06
2.22557e-06
1.74753e-06
2.20266e-06
2.205e-06
1.79782e-06
1.3858e-06
1.15989e-06
1.43168e-06
2.22216e-06
1.68629e-06
2.18009e-06
2.14021e-06
1.36261e-06
2.16564e-06
2.33173e-06
1.73952e-06
1.69837e-06
2.11036e-06
2.05354e-06
1.57503e-06
2.1417e-06
2.16719e-06
2.07002e-06
2.0746e-06
1.38384e-06
1.65673e-06
1.82544e-06
1.69764e-06
2.08066e-06
2.10829e-06
1.60717e-06
1.61926e-06
1.56866e-06
2.0098e-06
1.25748e-06
2.04062e-06
2.00991e-06
1.70116e-06
2.12882e-06
1.59476e-06
1.367e-06
1.62832e-06
1.97013e-06
2.22492e-06
2.2817e-06
2.01491e-06
1.63637e-06
1.44834e-06
2.01378e-06
1.48906e-06
2.14953e-06
1.9894e-06
1.78572e-06
1.30119e-06
2.02172e-06
1.67565e-06
1.95546e-06
1.50588e-06
1.58289e-06
1.38338e-06
1.9455e-06
1.7611e-06
1.22397e-06
1.23616e-06
1.64495e-06
2.03929e-06
2.11092e-06
1.52204e-06
2.07112e-06
1.71435e-06
1.52273e-06
2.12674e-06
1.9735e-06
2.00725e-06
1.31354e-06
1.22497e-06
1.53715e-06
1.84763e-06
1.54838e-06
2.21389e-06
1.6548e-06
2.00142e-06
1.48083e-06
1.57499e-06
1.21737e-06
1.94941e-06
2.05009e-06
1.91622e-06
1.1723e-06
1.84138e-06
1.70055e-06
2.01314e-06
1.73109e-06
1.79211e-06
1.89029e-06
1.90765e-06
1.42373e-06
1.88105e-06
2.00399e-06
2.12934e-06
1.51158e-06
1.8785e-06
1.53438e-06
1.98041e-06
1.94163e-06
1.96077e-06
1.23443e-06
1.46905e-06
1.93342e-06
1.97238e-06
1.28699e-06
1.43877e-06
1.6701e-06
1.55845e-06
1.72458e-06
1.81655e-06
1.41891e-06
1.91543e-06
1.90884e-06
8.80303e-07
2.06615e-06
2.06482e-06
1.48646e-06
1.80227e-06
1.73481e-06
8.78887e-07
9.27919e-07
1.88385e-06
1.84442e-06
1.47008e-06
9.22572e-07
1.29968e-06
1.57929e-06
1.41003e-06
1.43244e-06
1.2933e-06
1.85676e-06
1.82064e-06
1.79062e-06
1.53261e-06
1.75218e-06
2.26904e-06
1.33577e-06
1.28979e-06
2.27587e-06
1.71682e-06
9.91513e-07
1.94091e-06
1.31557e-06
1.46535e-06
1.34379e-06
1.35474e-06
1.44014e-06
1.72909e-06
1.86031e-06
1.41098e-06
1.72345e-06
1.56138e-06
1.34964e-06
1.76228e-06
1.78851e-06
1.75813e-06
1.87638e-06
1.81146e-06
1.23799e-06
1.35759e-06
1.77697e-06
1.8189e-06
1.21692e-06
1.85612e-06
1.93781e-06
1.38214e-06
1.21428e-06
1.68865e-06
1.2872e-06
1.3782e-06
1.77931e-06
1.27686e-06
1.53205e-06
1.87462e-06
1.81181e-06
1.62538e-06
1.45677e-06
1.31484e-06
1.29046e-06
1.74725e-06
1.59825e-06
2.46649e-06
1.27134e-06
1.7764e-06
1.67601e-06
1.69198e-06
1.05886e-06
1.44248e-06
1.31177e-06
1.62797e-06
1.73802e-06
1.52755e-06
1.46272e-06
1.14456e-06
1.72957e-06
1.36937e-06
1.66031e-06
1.39258e-06
1.6258e-06
1.57405e-06
1.32337e-06
1.88746e-06
1.19895e-06
1.26762e-06
1.65452e-06
1.65607e-06
1.42908e-06
1.57043e-06
1.59577e-06
1.65858e-06
1.64595e-06
1.12792e-06
1.97709e-06
1.58904e-06
1.19153e-06
1.50688e-06
1.51131e-06
1.4126e-06
1.13366e-06
1.53294e-06
1.13798e-06
1.79292e-06
1.68302e-06
1.18612e-06
1.48477e-06
1.64819e-06
1.59314e-06
1.33245e-06
1.12226e-06
1.44753e-06
1.18996e-06
1.5286e-06
1.70442e-06
1.05656e-06
1.08477e-06
1.53904e-06
1.61369e-06
1.51286e-06
1.0983e-06
1.61019e-06
7.77633e-07
1.4673e-06
1.38297e-06
1.42507e-06
1.40514e-06
1.64424e-06
1.5913e-06
1.10574e-06
1.03901e-06
1.92855e-06
9.73391e-07
1.61731e-06
1.4824e-06
1.53244e-06
9.83972e-07
1.5386e-06
1.46776e-06
1.04313e-06
1.36451e-06
1.05167e-06
9.85525e-07
1.15539e-06
1.40246e-06
1.41181e-06
1.63822e-06
1.62283e-06
9.04559e-07
1.0452e-06
6.6709e-07
1.121e-06
1.37588e-06
1.03098e-06
1.08377e-06
9.92167e-07
1.36803e-06
1.48261e-06
1.3747e-06
1.33753e-06
1.58403e-06
1.50237e-06
1.38337e-06
1.41573e-06
1.32372e-06
1.40778e-06
9.21613e-07
1.34305e-06
1.55647e-06
1.34246e-06
1.38e-06
1.29955e-06
1.56308e-06
1.42496e-06
9.3435e-07
1.31553e-06
1.32965e-06
1.50349e-06
1.48685e-06
1.35548e-06
1.27364e-06
1.3749e-06
1.51089e-06
8.21801e-07
8.48665e-07
1.34615e-06
1.23122e-06
1.09318e-06
8.40722e-07
7.99887e-07
8.47205e-07
8.58583e-07
1.35305e-06
1.47636e-06
1.25738e-06
1.27342e-06
7.26196e-07
9.83933e-07
1.17741e-06
9.07923e-07
1.55835e-06
1.70871e-06
1.7968e-06
1.16115e-06
1.30599e-06
1.20999e-06
8.19073e-07
1.12475e-06
7.78872e-07
1.32157e-06
1.31663e-06
7.6774e-07
1.19724e-06
1.11436e-06
1.04302e-06
7.85635e-07
8.9162e-07
7.80062e-07
1.22427e-06
7.28468e-07
1.32989e-06
1.14545e-06
1.04178e-06
1.26912e-06
1.13684e-06
9.96038e-07
7.77825e-07
1.17542e-06
1.38939e-06
1.09145e-06
9.56606e-07
9.72066e-07
1.27482e-06
1.19781e-06
1.24692e-06
9.61703e-07
1.11913e-06
1.39253e-06
1.062e-06
1.0868e-06
7.81001e-07
7.21196e-07
1.15783e-06
1.02337e-06
1.0802e-06
1.01206e-06
9.07731e-07
6.68049e-07
1.31316e-06
1.03664e-06
1.23867e-06
1.02729e-06
1.04183e-06
1.12749e-06
9.74364e-07
1.1191e-06
6.34669e-07
1.1074e-06
1.30244e-06
1.2087e-06
1.01429e-06
1.16588e-06
9.70431e-07
1.17108e-06
1.00076e-06
1.0189e-06
1.0756e-06
9.78724e-07
9.47862e-07
1.04103e-06
9.35715e-07
9.58664e-07
9.02688e-07
8.72204e-07
9.70939e-07
8.24705e-07
9.00907e-07
9.05178e-07
8.82676e-07
1.02217e-06
1.37401e-06
7.95618e-07
8.1086e-07
9.71255e-07
1.0185e-06
8.33898e-07
9.29701e-07
9.02041e-07
6.89289e-07
8.80725e-07
8.40046e-07
1.03868e-06
1.20027e-06
8.2168e-07
7.70052e-07
7.52177e-07
8.82544e-07
8.15884e-07
8.30563e-07
8.03104e-07
9.27995e-07
7.45783e-07
9.56934e-07
8.3478e-07
7.52331e-07
6.93037e-07
7.7283e-07
8.90751e-07
7.80278e-07
9.04507e-07
6.88664e-07
8.59749e-07
7.69685e-07
7.18156e-07
7.62058e-07
6.97962e-07
8.90067e-07
7.69311e-07
6.67606e-07
7.3244e-07
8.42335e-07
3.47124e-06
3.2392e-06
1.59536e-06
2.35114e-06
7.39397e-07
3.38136e-06
3.31948e-06
2.33042e-06
3.44872e-06
9.88508e-07
2.52165e-06
1.56643e-06
3.08541e-06
9.30359e-07
3.27016e-06
6.80157e-07
3.01138e-06
3.19422e-06
1.49402e-06
2.73134e-06
9.62036e-07
2.94774e-06
3.31815e-06
2.62532e-06
2.08115e-06
3.37067e-06
2.62194e-06
2.35544e-06
2.73136e-06
8.56534e-07
2.48523e-06
8.82769e-07
2.67237e-06
8.62085e-07
5.19147e-07
9.58528e-07
3.24863e-06
2.93942e-06
2.36599e-06
1.08258e-06
3.01049e-06
2.5045e-06
2.2337e-06
2.56549e-06
2.41322e-06
1.70738e-06
3.17049e-06
8.38982e-07
1.72699e-06
6.21905e-07
9.68016e-07
2.79899e-06
9.66189e-07
2.28123e-06
1.32094e-06
4.82471e-07
8.25804e-07
1.98855e-06
1.61357e-06
2.24266e-06
5.39912e-07
2.29367e-06
2.77045e-07
1.47781e-06
3.69952e-07
7.59139e-07
2.71266e-06
3.92734e-07
2.8315e-06
1.67437e-06
7.98165e-07
2.74973e-06
1.73202e-06
2.51455e-06
2.68112e-06
2.49091e-06
2.58038e-06
3.16107e-06
1.39435e-06
3.37914e-07
2.80884e-07
2.59003e-06
5.57124e-07
2.86779e-06
1.19618e-06
2.4293e-06
6.61257e-07
7.78235e-07
2.22419e-06
1.55301e-06
1.59734e-06
4.51794e-07
2.45626e-06
1.28645e-06
2.30273e-06
1.90577e-06
8.95596e-07
1.54653e-06
2.19377e-06
4.8637e-07
2.42578e-06
2.49025e-06
2.18858e-06
2.16043e-06
2.65912e-06
2.14444e-06
5.22976e-07
2.45515e-06
2.44163e-06
5.8965e-07
6.96509e-07
3.19691e-06
2.63695e-06
8.98602e-07
2.73192e-06
8.81994e-07
2.43134e-06
2.5703e-06
9.68516e-07
7.0841e-07
6.54777e-07
8.64144e-07
9.14553e-07
1.10769e-06
7.96768e-07
1.08931e-06
1.04431e-06
8.69246e-07
1.10581e-06
9.48905e-07
1.03216e-06
6.91132e-07
7.45731e-07
7.97126e-07
9.26347e-07
1.26019e-06
1.16059e-06
1.05423e-06
1.78379e-06
8.67335e-07
9.28304e-07
1.14117e-06
8.04146e-07
6.88343e-07
1.06742e-06
1.19512e-06
8.63783e-07
8.29596e-07
1.0425e-06
9.74696e-07
1.24446e-06
9.70201e-07
1.71601e-06
1.48579e-06
1.10175e-06
9.52572e-07
1.49173e-06
9.94383e-07
1.62234e-06
1.02356e-06
8.68727e-07
9.60721e-07
1.48223e-06
8.91227e-07
1.04596e-06
2.17526e-06
1.1388e-06
9.02836e-07
1.74284e-06
8.33404e-07
1.60076e-06
2.26448e-06
1.4533e-06
1.25453e-06
1.2079e-06
1.50162e-06
1.34093e-06
1.02517e-06
1.55719e-06
1.35822e-06
1.54782e-06
1.2364e-06
1.05482e-06
1.25861e-06
1.1871e-06
9.97895e-07
1.2509e-06
1.31944e-06
1.29041e-06
1.40242e-06
9.54215e-07
1.18765e-06
1.34673e-06
1.27539e-06
1.82608e-06
9.80761e-07
1.07453e-06
1.85248e-06
2.0744e-06
1.26898e-06
1.00558e-06
1.72624e-06
2.34962e-06
1.82471e-06
1.18485e-06
1.20587e-06
1.18062e-06
1.37498e-06
1.20841e-06
1.68637e-06
1.10552e-06
1.33698e-06
1.2811e-06
2.6189e-06
1.18235e-06
2.08929e-06
1.25586e-06
1.20988e-06
1.73931e-06
2.05298e-06
1.38843e-06
1.48449e-06
1.1924e-06
1.62538e-06
1.86314e-06
2.31114e-06
1.40442e-06
1.88652e-06
1.9913e-06
2.21285e-06
1.56525e-06
1.4696e-06
2.06362e-06
2.04556e-06
1.78781e-06
1.58927e-06
1.95124e-06
1.38056e-06
1.74858e-06
2.15937e-06
1.5862e-06
1.57221e-06
2.31278e-06
1.84067e-06
2.00179e-06
2.19945e-06
1.92369e-06
1.49123e-06
1.92973e-06
1.85776e-06
1.80585e-06
2.42987e-06
1.57281e-06
2.13006e-06
2.01539e-06
3.65292e-06
1.66152e-06
1.68564e-06
1.94552e-06
1.6442e-06
2.06033e-06
1.5927e-06
2.37652e-06
1.5929e-06
1.69116e-06
1.99987e-06
1.7938e-06
2.06991e-06
1.4548e-06
2.03872e-06
1.97902e-06
1.8613e-06
1.67363e-06
1.43386e-06
1.6805e-06
2.15681e-06
2.52466e-06
2.12857e-06
2.25099e-06
2.19631e-06
1.7118e-06
1.75842e-06
1.45162e-06
1.66185e-06
1.42267e-06
2.12645e-06
2.5015e-06
2.06938e-06
2.67301e-06
1.63199e-06
1.93932e-06
1.9678e-06
2.20764e-06
2.45984e-06
1.76005e-06
2.52493e-06
1.76397e-06
2.13849e-06
2.43795e-06
2.21944e-06
1.82047e-06
2.48125e-06
1.93439e-06
2.59598e-06
2.17665e-06
1.82014e-06
2.4679e-06
1.73537e-06
1.91987e-06
1.63532e-06
2.5305e-06
2.74313e-06
2.41669e-06
1.86499e-06
1.60344e-06
2.75395e-06
2.1257e-06
1.79313e-06
3.15672e-06
1.91324e-06
1.71599e-06
2.53032e-06
2.73217e-06
2.48013e-06
2.24668e-06
1.76988e-06
2.02413e-06
2.07864e-06
2.80651e-06
2.52667e-06
1.92713e-06
2.1631e-06
1.77974e-06
2.47293e-06
2.30679e-06
2.00697e-06
2.42085e-06
1.98243e-06
1.95054e-06
2.43518e-06
2.44228e-06
2.02643e-06
8.78917e-07
2.64618e-06
2.4148e-06
1.84526e-06
2.36442e-06
2.36416e-06
2.51136e-06
1.91946e-06
2.3539e-06
2.24297e-06
2.66951e-06
2.69309e-06
2.36866e-06
1.86838e-06
2.22205e-06
7.40568e-07
6.91514e-07
2.2239e-06
9.56998e-07
2.37593e-06
1.90572e-06
2.68683e-06
2.15453e-06
2.02933e-06
2.25964e-06
2.0078e-06
2.30131e-06
2.80797e-06
1.88717e-06
2.59888e-06
2.45589e-06
2.2294e-06
2.31896e-06
2.79722e-06
7.08699e-07
1.98518e-06
2.4398e-06
2.38999e-06
2.67453e-06
1.24301e-06
2.25127e-06
2.51664e-06
2.52661e-06
2.47737e-06
2.79434e-06
2.68153e-06
2.34528e-06
2.05845e-06
2.31923e-06
2.54472e-06
7.20281e-07
2.19303e-06
2.62683e-06
2.07709e-06
2.34123e-06
1.95473e-06
2.86703e-06
7.59564e-07
2.28129e-06
2.66972e-06
3.471e-06
2.29825e-06
1.30914e-06
4.56816e-07
2.48787e-06
2.41025e-06
2.10721e-06
2.32147e-06
8.38896e-07
5.9914e-07
8.10375e-07
7.91473e-07
5.05969e-07
2.85573e-06
2.47411e-06
2.39513e-06
2.12068e-06
2.74112e-06
6.13289e-07
8.98677e-07
2.50566e-06
2.88297e-06
6.44709e-07
2.74872e-06
1.0231e-06
2.77627e-06
4.67039e-06
2.49154e-06
2.96029e-06
2.42139e-06
2.63563e-06
1.62438e-06
4.65441e-06
2.6107e-06
2.39454e-06
6.34348e-07
1.19328e-06
2.36571e-06
2.59029e-06
2.98781e-06
3.04786e-06
2.76845e-06
7.67614e-07
7.13976e-07
2.73338e-06
3.64697e-06
4.70524e-06
3.10453e-06
4.64992e-06
6.2945e-07
4.73279e-06
6.36301e-07
2.60038e-06
3.95893e-06
2.58751e-06
6.65417e-07
6.14527e-07
4.70719e-06
6.7833e-07
4.31916e-06
4.70414e-06
4.70074e-06
1.55927e-06
5.64967e-07
4.1152e-06
3.60183e-06
7.74399e-07
3.03091e-06
2.61445e-06
2.86608e-06
2.81593e-06
4.6692e-06
1.40501e-06
4.70873e-06
1.30881e-06
3.33615e-06
4.70025e-06
2.6323e-06
2.98096e-06
2.68187e-06
3.29367e-06
2.7044e-06
2.15324e-06
3.01426e-06
4.40777e-06
3.17672e-06
6.67183e-07
1.53576e-06
3.42785e-06
7.24394e-07
7.1594e-07
7.90694e-07
2.87499e-06
4.61802e-06
3.12368e-06
1.73648e-06
2.97262e-06
5.88179e-07
3.92622e-06
3.1915e-06
2.47881e-06
2.89692e-06
3.65388e-06
2.8908e-06
1.04932e-07
3.47383e-06
3.33065e-06
3.15383e-06
6.21644e-07
2.58247e-06
4.69545e-06
2.65615e-06
1.17351e-06
4.62327e-06
4.09181e-06
8.59352e-07
4.69617e-06
3.12493e-06
6.89175e-07
2.80632e-06
2.83157e-06
4.71018e-06
4.71024e-06
4.71742e-06
6.6111e-07
2.92637e-06
3.84418e-06
2.91076e-06
4.68955e-06
1.24138e-06
2.8694e-06
6.25272e-07
1.61079e-06
2.03047e-06
1.22379e-06
4.67615e-06
1.0641e-06
4.71139e-06
1.61654e-06
2.18328e-06
2.79807e-07
3.30733e-06
2.70613e-06
4.70978e-06
4.58864e-06
4.25217e-06
6.66616e-07
2.94579e-06
3.93363e-06
1.47196e-06
8.52111e-07
4.69663e-06
7.14283e-07
4.71017e-06
3.43446e-06
4.71669e-06
4.70282e-06
5.74401e-07
4.70016e-06
6.54545e-07
6.21404e-07
4.71424e-06
4.69696e-06
2.1806e-06
4.69335e-06
3.35797e-06
5.62493e-07
3.23798e-06
4.72443e-06
2.85026e-06
4.72748e-06
2.60399e-06
5.83471e-07
2.38679e-06
7.15966e-07
4.71805e-06
3.60326e-06
2.3138e-06
6.25664e-07
4.56935e-07
4.4306e-06
2.65866e-06
1.85523e-06
3.62772e-06
4.71149e-06
3.27949e-06
5.74052e-07
4.70245e-06
2.99671e-06
4.64647e-07
3.23095e-06
8.94135e-07
4.65002e-06
3.81332e-06
2.85117e-06
4.70719e-06
1.09328e-06
2.97081e-06
1.12829e-06
3.04777e-06
3.3605e-06
4.71601e-06
2.08019e-06
4.71508e-06
4.71141e-06
2.94953e-06
1.44046e-06
4.71099e-06
2.61919e-06
3.38816e-06
4.39501e-06
4.71279e-06
2.90391e-07
3.25074e-06
1.98443e-06
4.30895e-07
4.62961e-06
4.45688e-07
1.64719e-06
4.21308e-06
4.70731e-06
2.84928e-06
4.67104e-06
5.36387e-06
9.54432e-07
1.00344e-06
2.81195e-06
4.60106e-06
2.71085e-06
4.90638e-07
3.32863e-06
4.60365e-06
4.71298e-06
1.84553e-06
2.5405e-06
2.88412e-06
1.54762e-06
4.67116e-06
2.10556e-06
1.92753e-07
4.69268e-06
1.43328e-06
1.94427e-06
1.23489e-06
5.6089e-07
4.7087e-06
6.15209e-07
5.68825e-07
3.30864e-06
4.68433e-06
4.67055e-06
4.71516e-06
4.50702e-06
4.31255e-07
4.70633e-06
4.60472e-06
1.89434e-07
2.89741e-06
4.68831e-06
4.56308e-06
4.70953e-06
5.47724e-07
5.44019e-07
4.06595e-06
4.71131e-06
4.46262e-06
1.75523e-06
2.54166e-06
1.48763e-06
2.47022e-06
3.5536e-06
4.71201e-06
2.86733e-06
4.82032e-07
1.09356e-06
4.71411e-06
3.04084e-06
4.71447e-06
3.18464e-06
3.74894e-06
2.53566e-06
1.39932e-06
1.79604e-06
5.05664e-07
3.58041e-06
2.11688e-06
4.63735e-06
7.88971e-07
4.7216e-06
2.91759e-06
4.4854e-07
4.71375e-06
3.90365e-06
4.77089e-06
1.67536e-06
4.70456e-06
4.70825e-06
2.70643e-06
1.16435e-06
2.8143e-06
2.62196e-06
4.31021e-06
8.38768e-07
2.94705e-06
9.6093e-07
4.61067e-06
4.59457e-06
4.68993e-06
4.51331e-06
4.09406e-06
4.55422e-06
2.37805e-06
4.18593e-06
4.48762e-06
3.47069e-06
5.63515e-07
6.24037e-07
2.59147e-06
4.6959e-06
4.56658e-06
3.38315e-06
1.15592e-06
3.37066e-06
3.32517e-07
4.71151e-06
1.06564e-06
2.84869e-06
6.01967e-07
3.25592e-06
2.84203e-06
4.07494e-06
3.4084e-06
4.64911e-06
4.71676e-06
5.14803e-07
3.24312e-06
3.71273e-06
3.98016e-06
1.23544e-06
4.35472e-07
6.37252e-07
2.88936e-06
3.97674e-06
3.50648e-07
3.19367e-07
1.43231e-06
4.0257e-06
5.5873e-07
4.59973e-07
6.99043e-07
4.70918e-06
4.68057e-06
4.56101e-06
4.54024e-06
2.14685e-06
3.20295e-06
1.45162e-06
2.12475e-06
3.10101e-06
4.69869e-06
1.69474e-06
4.66442e-06
4.57747e-06
8.67164e-07
2.56427e-06
5.86637e-07
3.1243e-06
2.72038e-06
5.69976e-07
2.68517e-06
3.46887e-06
4.11156e-06
3.18665e-06
4.533e-06
2.50763e-06
1.03776e-06
4.71669e-06
4.59879e-06
4.61539e-06
1.30183e-06