/*--------------------------------*- C++ -*----------------------------------*\
  =========                 |
  \\      /  F ield         | OpenFOAM: The Open Source CFD Toolbox
   \\    /   O peration     | Website:  https://openfoam.org
    \\  /    A nd           | Version:  8
     \\/     M anipulation  |
\*---------------------------------------------------------------------------*/
FoamFile
{
    version     2.0;
    format      ascii;
    class       volScalarField;
    location    "8";
    object      p;
}
// * * * * * * * * * * * * * * * * * * * * * * * * * * * * * * * * * * * * * //

dimensions      [0 2 -2 0 0 0 0];

internalField   nonuniform List<scalar> 
1642
(
8.13756e-05
6.77988e-05
6.67161e-05
7.06596e-05
8.1419e-05
8.1366e-05
8.12054e-05
8.12525e-05
8.11048e-05
8.13007e-05
7.27462e-05
8.06299e-05
8.13266e-05
8.12704e-05
8.12278e-05
8.07448e-05
8.13321e-05
8.13608e-05
8.13933e-05
8.13865e-05
8.13164e-05
8.11736e-05
8.13094e-05
8.06032e-05
8.13256e-05
8.1144e-05
8.13855e-05
7.84751e-05
1.64929e-06
1.5086e-06
1.45981e-06
8.13479e-05
7.94678e-05
8.13726e-05
8.13521e-05
8.12186e-05
8.05755e-05
8.13767e-05
8.12835e-05
8.12624e-05
8.13897e-05
8.13924e-05
8.13892e-05
6.10032e-05
8.40324e-05
8.13423e-05
8.13947e-05
8.13828e-05
8.13861e-05
8.12968e-05
8.13934e-05
8.13737e-05
8.13792e-05
7.07427e-05
7.17587e-05
8.11898e-05
8.11585e-05
8.13593e-05
8.05067e-05
8.15026e-05
8.13582e-05
8.13596e-05
8.139e-05
8.09101e-05
8.12265e-05
8.13867e-05
8.13796e-05
8.13872e-05
8.11826e-05
8.13958e-05
8.14041e-05
8.13271e-05
8.14062e-05
8.14467e-05
8.12839e-05
8.0931e-05
5.91565e-07
6.36387e-07
6.78882e-07
8.13431e-05
8.1385e-05
8.13857e-05
8.03665e-05
8.12752e-05
8.26682e-05
8.09477e-05
8.11058e-05
8.13176e-05
8.10734e-05
8.13664e-05
8.13075e-05
8.12993e-05
8.10674e-05
8.11717e-05
8.12427e-05
8.12809e-05
8.13244e-05
8.12756e-05
8.12877e-05
8.1126e-05
8.11424e-05
8.07693e-05
8.13493e-05
2.64362e-05
2.7931e-05
3.00864e-05
3.0101e-05
3.69378e-05
2.32005e-05
2.04207e-05
3.77237e-05
2.29552e-05
3.68732e-05
9.04761e-06
9.39628e-06
6.85015e-06
6.54341e-06
3.85429e-06
4.92034e-05
5.35823e-05
6.61481e-06
4.95195e-05
4.80988e-05
8.09283e-05
8.12437e-05
8.14423e-05
8.13536e-05
8.13753e-05
8.13093e-05
8.1285e-05
8.14244e-05
8.13164e-05
8.13638e-05
8.21571e-05
8.13828e-05
8.13873e-05
8.13215e-05
8.14005e-05
8.13421e-05
8.04433e-05
8.12851e-05
8.13885e-05
8.13847e-05
8.14122e-05
8.12361e-05
8.13542e-05
8.14191e-05
8.1389e-05
8.1379e-05
8.13294e-05
8.13543e-05
8.1386e-05
8.13812e-05
8.13575e-05
8.08428e-05
8.14252e-05
8.14229e-05
8.1393e-05
8.13561e-05
8.133e-05
8.13902e-05
8.1387e-05
8.1353e-05
8.12312e-05
8.13753e-05
8.13923e-05
8.142e-05
8.13782e-05
8.13803e-05
8.11987e-05
8.12702e-05
8.13701e-05
8.13934e-05
8.1384e-05
8.13556e-05
8.13796e-05
8.13035e-05
8.13361e-05
8.13516e-05
8.26013e-05
8.11164e-05
8.13895e-05
8.07958e-05
8.13942e-05
8.13883e-05
8.12942e-05
8.1396e-05
8.13837e-05
8.12781e-05
8.11913e-05
8.11894e-05
8.13849e-05
8.13862e-05
8.12993e-05
8.14398e-05
8.12765e-05
8.09173e-05
8.13821e-05
8.12151e-05
8.13413e-05
8.13854e-05
8.13928e-05
8.10083e-05
8.12211e-05
8.11799e-05
8.13874e-05
8.13491e-05
2.81769e-05
2.42613e-05
2.24842e-05
2.27424e-05
2.44078e-05
2.88534e-05
2.96859e-05
2.51678e-05
3.89681e-05
2.88369e-05
3.98089e-05
2.33293e-05
2.71916e-05
3.23169e-05
2.18697e-05
3.39799e-05
1.51826e-05
3.06581e-05
2.24471e-05
2.33139e-05
4.73274e-05
2.51988e-05
2.15979e-05
4.05118e-05
2.95431e-05
3.30098e-05
2.3538e-05
3.13471e-05
2.63557e-05
2.78447e-05
3.46714e-05
4.31414e-05
1.99431e-05
4.80647e-05
3.05267e-05
4.1489e-05
4.96218e-05
2.02303e-05
7.26495e-06
4.21686e-05
4.8996e-05
4.99759e-05
6.95412e-06
6.91753e-06
3.56317e-05
5.17118e-05
4.90372e-05
1.1093e-05
1.06242e-05
1.33558e-05
4.69261e-05
3.19673e-05
1.14742e-05
4.64664e-05
4.45518e-05
4.54155e-05
7.22632e-06
4.92455e-05
4.36377e-05
2.15431e-05
3.39073e-05
5.13577e-05
3.98813e-05
4.37217e-05
1.02574e-05
1.33459e-05
4.28523e-05
4.60099e-05
5.5742e-05
4.15759e-05
3.72666e-05
3.64563e-05
3.79965e-05
2.10409e-05
1.22866e-05
3.71692e-05
5.46009e-05
5.34519e-06
1.48515e-05
3.12352e-05
4.82369e-05
1.48225e-05
3.45348e-05
1.44137e-05
1.97108e-05
3.92214e-05
1.85635e-05
1.18909e-05
3.29209e-05
5.29907e-06
5.72894e-05
6.12728e-05
3.55805e-05
1.06506e-05
7.73791e-06
9.77037e-06
1.69721e-05
8.06155e-06
3.10712e-05
1.61041e-06
1.96864e-05
8.56858e-06
9.41741e-06
8.90635e-06
2.075e-05
4.57321e-05
5.32135e-05
3.97408e-05
1.43818e-05
1.78697e-05
1.06242e-05
2.33531e-05
3.77701e-06
6.04019e-05
2.43703e-05
3.22612e-06
3.05543e-05
5.17002e-05
5.85799e-05
3.03899e-05
4.83584e-05
1.43076e-06
3.64811e-05
4.13474e-05
4.4509e-05
7.9594e-06
1.31465e-05
2.98285e-05
1.35732e-05
9.72639e-06
7.92307e-06
2.60388e-05
2.05989e-05
1.8807e-05
2.67111e-05
5.26073e-05
2.83656e-05
1.27378e-05
5.34835e-05
5.71023e-05
5.57182e-05
1.93784e-05
1.27301e-05
3.88592e-05
4.80531e-05
9.74432e-06
5.87846e-05
1.39963e-05
3.05219e-06
1.31395e-05
3.28482e-06
5.87401e-05
1.82417e-05
2.69466e-05
2.49866e-05
2.35732e-05
2.58553e-05
2.5004e-05
1.90489e-05
2.78789e-05
3.80024e-05
2.69648e-05
5.86208e-05
1.84964e-06
3.63545e-05
3.64186e-05
1.65313e-05
2.41371e-05
5.25105e-05
3.55771e-05
4.51068e-05
4.54164e-05
4.07905e-05
3.72573e-05
3.90661e-05
1.51539e-05
2.58302e-05
1.7382e-05
1.60632e-05
2.73466e-05
6.14238e-06
2.90048e-05
2.52473e-05
3.88346e-05
5.24705e-05
2.78459e-05
6.43561e-06
4.84785e-05
3.99723e-06
5.58385e-05
2.02095e-05
3.22132e-05
1.68965e-05
4.89149e-05
3.37772e-05
4.01334e-05
7.0711e-06
4.51802e-06
1.24372e-05
6.15069e-06
3.2179e-05
4.37673e-05
1.6054e-05
3.46095e-05
3.96748e-05
4.63083e-05
1.69795e-05
4.97715e-05
4.91088e-05
4.78619e-05
6.10818e-06
5.15292e-05
2.96808e-05
6.40252e-06
3.2731e-05
9.74586e-06
6.19329e-06
1.42675e-05
3.75392e-06
3.3148e-05
1.24594e-05
3.4747e-05
2.24078e-05
4.10416e-05
4.26946e-05
4.17229e-05
1.73624e-05
1.68811e-05
3.73925e-05
5.01854e-05
3.54469e-05
4.66336e-05
2.42207e-05
3.62957e-05
5.00809e-05
3.38416e-05
2.14999e-05
1.42485e-05
1.82057e-05
1.19141e-05
1.99042e-05
4.66166e-05
1.23093e-05
3.14842e-05
5.45843e-05
3.81172e-05
3.81598e-05
3.63346e-05
4.44396e-05
3.66063e-06
1.65214e-05
4.61917e-05
1.78934e-05
3.2079e-05
3.00287e-06
3.28661e-05
5.06384e-05
4.46534e-05
4.97604e-05
5.32601e-05
3.48062e-05
4.55748e-05
3.37612e-05
5.54661e-05
4.72679e-05
5.90972e-05
4.27041e-05
5.3552e-05
4.71847e-05
4.36081e-05
8.82073e-06
4.43679e-06
2.27062e-05
3.05171e-05
3.72871e-05
1.15294e-05
2.40308e-06
2.24457e-05
2.10697e-05
1.7311e-05
8.91618e-06
2.60642e-05
5.08086e-05
2.8196e-05
4.065e-05
4.25177e-05
1.85472e-05
4.59225e-05
3.36351e-05
4.43126e-05
2.66751e-05
3.55032e-05
6.45316e-05
2.60165e-06
4.06447e-05
4.51562e-05
4.78302e-06
6.23313e-05
3.14601e-05
4.53523e-05
1.56706e-05
1.5216e-05
2.85157e-05
4.79766e-05
3.54549e-05
3.71402e-05
1.05927e-05
5.07927e-05
1.77145e-05
2.87477e-05
2.4165e-05
1.30411e-05
5.12916e-05
2.0787e-05
1.39787e-05
1.35535e-05
5.46014e-05
5.26993e-05
5.70954e-05
2.54422e-06
2.45726e-05
4.19461e-05
8.57682e-06
2.85629e-06
4.29647e-05
4.17943e-05
3.99766e-05
6.37515e-05
5.62006e-06
4.08835e-05
2.46874e-05
4.79715e-06
4.63786e-05
1.91056e-05
2.53056e-05
4.73515e-05
7.03193e-06
2.34363e-06
2.68536e-05
9.39303e-06
5.5685e-05
2.51292e-05
4.34306e-05
4.39191e-05
1.02256e-05
2.94088e-06
2.06179e-05
5.49937e-05
4.70953e-05
2.92084e-05
1.52403e-05
2.9347e-05
4.02477e-06
1.55304e-05
4.40111e-05
2.61495e-05
4.23258e-05
2.87969e-05
1.10565e-05
8.84808e-06
5.57954e-06
1.22088e-05
2.86955e-05
3.8309e-05
2.76841e-05
5.08421e-05
3.25834e-05
2.91035e-05
1.34542e-05
5.05964e-05
4.46724e-05
1.77348e-05
4.76302e-05
2.60239e-05
2.69977e-05
2.96493e-05
1.93997e-05
3.30653e-05
3.13699e-05
3.01785e-05
3.09149e-05
2.80242e-05
3.89925e-05
3.00084e-05
2.55215e-05
4.87841e-05
2.63842e-05
7.76876e-06
2.75185e-05
3.9314e-05
5.28418e-06
1.09153e-05
1.14384e-05
8.09516e-06
3.46769e-05
2.44594e-05
1.63598e-05
2.19179e-05
3.5982e-05
2.7291e-05
3.81264e-05
4.91166e-05
4.54119e-06
1.87746e-05
3.4284e-05
4.75325e-05
1.15603e-05
3.50978e-05
1.91258e-05
4.61243e-06
1.56921e-05
3.51334e-05
1.18697e-05
2.32895e-05
1.82176e-05
1.05422e-05
4.81803e-05
1.71908e-05
4.69074e-05
4.84545e-05
2.54782e-05
3.96134e-05
4.892e-06
4.96062e-05
3.10124e-05
1.42991e-05
4.35597e-05
1.59904e-05
4.05202e-05
4.19607e-05
2.16411e-05
1.36852e-05
4.23326e-05
1.96975e-05
1.76841e-05
1.80262e-05
1.85318e-05
2.84304e-06
3.09973e-06
4.09666e-05
4.01541e-05
1.9823e-06
4.01384e-05
1.3872e-05
3.34353e-05
1.26087e-05
1.68373e-05
1.47023e-05
1.51452e-05
4.10187e-05
4.41443e-05
4.26596e-05
4.29862e-05
4.90013e-05
3.60199e-05
3.6004e-05
3.68264e-05
1.17628e-05
4.9197e-05
5.33235e-06
2.05299e-05
4.84352e-05
2.13593e-05
4.32377e-05
5.65454e-05
2.09389e-05
1.13759e-05
1.88616e-05
4.73274e-05
3.51904e-05
4.14274e-05
5.16569e-05
2.22386e-06
3.43548e-05
3.18487e-05
3.35197e-05
5.30135e-05
3.6178e-06
4.18015e-05
3.26843e-05
3.18218e-05
5.23885e-05
4.98375e-05
1.6062e-05
4.86518e-05
4.59745e-05
1.27768e-05
4.49319e-05
1.60802e-05
4.62764e-05
3.73589e-06
4.00462e-06
4.50556e-05
4.78587e-05
1.0961e-05
2.00319e-05
1.45913e-05
1.64033e-05
1.54985e-05
4.4884e-06
4.8844e-05
8.13916e-05
8.13798e-05
8.13831e-05
8.14185e-05
8.1256e-05
8.1391e-05
8.12558e-05
8.1374e-05
8.13537e-05
8.13906e-05
8.13593e-05
3.09872e-05
2.91944e-05
2.80871e-05
2.46334e-05
2.65651e-05
2.7095e-05
2.72583e-05
2.64792e-05
2.45495e-05
3.29885e-05
3.51238e-05
3.21169e-05
3.60295e-05
2.55755e-05
3.05905e-05
3.46921e-05
3.91333e-05
3.3843e-05
2.97537e-05
2.89231e-05
3.5541e-05
3.22545e-05
1.74034e-05
2.10284e-05
1.72824e-05
1.89556e-05
1.86162e-05
1.83144e-05
1.77736e-05
2.14444e-05
3.14265e-05
2.06173e-05
2.01239e-05
1.97873e-05
1.81175e-05
2.56124e-05
1.92227e-05
1.6923e-05
3.60443e-05
4.00512e-05
3.97723e-05
1.56108e-05
4.09635e-05
1.64451e-05
4.18759e-05
3.30867e-05
3.93713e-05
1.60749e-05
3.52194e-05
1.43773e-05
1.39458e-05
4.27789e-05
4.45926e-05
1.5593e-05
1.52247e-05
1.47773e-05
4.64082e-05
4.36858e-05
1.64964e-05
1.31173e-05
4.06576e-05
1.3533e-05
4.34793e-05
4.15618e-05
1.19619e-05
3.97311e-05
4.55e-05
4.25064e-05
4.73272e-05
1.37769e-05
1.26852e-05
1.2284e-05
4.82356e-05
4.44325e-05
1.14565e-05
1.18447e-05
1.10553e-05
4.30444e-05
4.73051e-05
5.00497e-05
4.53787e-05
4.13938e-05
1.28716e-05
4.05711e-05
4.6322e-05
4.63659e-05
4.22157e-05
4.90697e-05
5.23429e-05
4.9147e-05
1.46866e-05
4.92222e-05
4.71058e-05
5.06494e-06
5.29774e-05
4.79816e-06
3.477e-06
4.24854e-06
3.99783e-06
4.81361e-05
3.24222e-06
2.57269e-06
5.64782e-05
2.78452e-06
5.7767e-05
5.09092e-05
8.08416e-05
8.02996e-05
8.13924e-05
8.13872e-05
8.13415e-05
8.14047e-05
8.13781e-05
8.0829e-05
3.41892e-05
3.12551e-05
3.87109e-05
2.1923e-05
2.21851e-05
1.93762e-05
3.8497e-05
2.1845e-05
3.93286e-05
8.02635e-06
8.35718e-06
4.65838e-05
5.8976e-06
5.61626e-06
8.22331e-06
5.61117e-06
5.49058e-05
2.5756e-06
4.95043e-05
4.87028e-05
5.00886e-05
8.13805e-05
3.42144e-05
3.09486e-05
3.87582e-05
1.87162e-05
2.12677e-05
2.15366e-05
3.85327e-05
2.11338e-05
3.93911e-05
7.38469e-06
7.7046e-06
4.64984e-05
5.99587e-06
5.51029e-05
5.70343e-06
7.52408e-06
4.91892e-05
5.70137e-06
4.9229e-05
5.09238e-05
8.13914e-05
8.14129e-05
8.13641e-05
8.13762e-05
8.1373e-05
8.1395e-05
8.13201e-05
8.1297e-05
8.1394e-05
8.13962e-05
8.13166e-05
8.13597e-05
8.1352e-05
8.13892e-05
8.13822e-05
8.12703e-05
8.13911e-05
8.10859e-05
8.10492e-05
8.13925e-05
8.14298e-05
8.13882e-05
8.13872e-05
8.07704e-05
8.02691e-05
8.11634e-05
8.1297e-05
8.12253e-05
8.13934e-05
8.12259e-05
8.13641e-05
8.133e-05
8.08815e-05
8.12882e-05
8.19324e-05
8.13316e-05
8.13902e-05
8.13827e-05
8.13702e-05
8.13788e-05
8.13432e-05
8.13861e-05
8.11556e-05
8.132e-05
7.98962e-05
8.1366e-05
8.13688e-05
8.13288e-05
8.13802e-05
8.13165e-05
8.13924e-05
8.13942e-05
8.14105e-05
8.12578e-05
8.13111e-05
8.13128e-05
8.13473e-05
8.13352e-05
8.11552e-05
8.13593e-05
8.14032e-05
8.13325e-05
8.13057e-05
8.12743e-05
8.14109e-05
8.1385e-05
4.84401e-05
5.42232e-05
4.552e-05
3.85002e-05
3.7665e-05
3.78006e-05
3.32782e-05
2.26459e-06
8.12608e-05
8.12534e-05
8.12288e-05
8.12128e-05
8.13545e-05
8.13824e-05
8.13327e-05
3.17375e-05
8.13433e-05
6.44002e-06
6.74345e-06
2.60854e-05
4.94549e-05
5.1572e-05
6.51042e-06
5.42401e-05
4.96965e-05
7.30787e-06
4.4849e-06
3.89215e-06
4.94598e-05
7.50536e-06
7.18775e-06
4.8974e-05
9.70723e-06
1.00525e-05
1.00666e-05
8.95624e-06
9.30045e-06
2.80001e-05
3.804e-05
3.73043e-05
3.72131e-05
2.10781e-05
2.03165e-05
2.6523e-05
2.36675e-05
2.97062e-05
3.01764e-05
2.28497e-05
2.75613e-05
2.36158e-05
3.04255e-05
2.38541e-05
2.31119e-05
8.12248e-05
8.12241e-05
8.1293e-05
8.13996e-05
8.11886e-05
8.12626e-05
8.13862e-05
7.98662e-05
8.01692e-05
2.23719e-05
2.20487e-05
2.21137e-05
3.3324e-05
1.95712e-05
3.78503e-05
8.43843e-06
3.17831e-05
3.77052e-05
4.77208e-06
8.55335e-06
3.85629e-05
4.90938e-05
2.97391e-06
8.21852e-06
4.55179e-05
5.42624e-05
4.8453e-05
5.13637e-06
4.85708e-06
5.00485e-05
8.12385e-05
8.1358e-05
8.12494e-05
8.13812e-05
8.12176e-05
8.12794e-05
8.13508e-05
3.24212e-05
2.29542e-05
4.45507e-05
9.343e-06
8.16857e-05
7.99894e-05
8.13791e-05
8.12426e-05
8.1151e-05
8.10875e-05
8.1116e-05
8.13277e-05
8.13698e-05
8.13395e-05
8.11351e-05
8.1389e-05
8.08815e-05
8.10382e-05
8.1184e-05
8.13732e-05
8.10838e-05
8.13832e-05
8.13955e-05
8.13846e-05
8.1204e-05
8.14268e-05
8.13803e-05
8.13614e-05
8.13452e-05
8.12454e-05
8.13744e-05
8.13895e-05
8.11858e-05
8.13752e-05
8.13245e-05
8.12806e-05
8.13789e-05
8.13781e-05
8.13423e-05
8.12404e-05
8.14167e-05
2.31474e-06
1.89252e-06
2.04678e-06
1.01451e-05
4.38757e-05
2.37089e-05
3.18888e-05
5.22077e-05
4.81497e-05
5.09419e-05
1.02448e-05
9.88313e-06
2.38616e-05
3.68766e-05
3.43958e-05
2.4032e-05
2.92573e-05
2.74744e-05
2.54764e-05
8.1288e-05
8.13109e-05
8.12062e-05
8.12503e-05
8.09564e-05
8.12936e-05
8.13954e-05
8.13882e-05
8.09767e-05
8.13819e-05
8.12444e-05
8.12999e-05
8.12725e-05
8.13105e-05
8.10648e-05
8.12678e-05
8.12972e-05
8.12934e-05
8.12588e-05
5.52535e-05
4.9869e-05
5.43518e-06
5.28227e-05
8.31793e-06
4.97902e-05
3.12928e-06
5.47529e-06
5.76625e-06
8.44096e-06
8.11116e-06
4.5537e-05
3.80363e-05
2.19333e-05
3.88914e-05
1.94599e-05
3.82056e-05
2.20095e-05
3.36782e-05
2.22738e-05
3.08882e-05
5.43034e-05
4.99103e-05
5.0546e-05
5.61528e-05
2.34272e-06
7.27752e-06
3.4138e-06
2.58027e-06
3.15968e-06
7.5954e-06
4.83407e-05
6.37365e-06
4.90607e-05
4.85698e-05
4.00407e-06
5.36027e-05
5.26106e-05
6.33532e-06
4.85762e-05
4.94731e-05
1.20555e-05
4.27186e-06
6.63934e-06
5.33993e-05
3.51154e-06
7.41555e-06
4.7384e-06
4.72428e-05
4.73872e-05
1.11525e-05
1.29582e-05
4.9834e-05
4.66006e-05
1.83931e-05
9.13825e-06
1.3865e-05
9.21144e-06
4.61984e-05
8.8658e-06
4.45024e-05
3.8886e-05
4.27366e-05
4.52475e-05
4.88785e-05
1.44736e-05
1.15465e-05
1.19359e-05
4.41603e-05
1.23777e-05
1.27805e-05
4.79231e-05
1.40414e-05
1.93027e-05
4.1884e-05
1.56791e-05
1.74907e-05
1.32097e-05
4.31015e-05
4.69727e-05
1.47715e-05
4.1042e-05
2.02165e-05
4.20829e-05
1.36265e-05
4.60416e-05
1.53173e-05
1.48703e-05
4.11295e-05
1.65861e-05
4.02043e-05
4.02404e-05
4.42108e-05
1.57003e-05
1.61606e-05
1.78608e-05
3.6842e-05
4.51236e-05
1.73551e-05
3.63981e-05
4.32998e-05
1.70079e-05
3.96699e-05
3.76653e-05
4.23935e-05
4.14892e-05
1.65267e-05
4.05806e-05
3.69018e-05
3.46048e-05
2.0226e-05
1.81873e-05
1.9024e-05
3.64145e-05
3.43283e-05
2.1165e-05
3.51777e-05
3.55242e-05
2.27553e-05
3.55742e-05
1.9861e-05
2.92818e-05
3.34784e-05
3.06101e-05
3.26314e-05
2.06984e-05
3.00474e-05
2.27678e-05
3.2736e-05
3.23679e-05
3.19015e-05
2.69191e-05
2.56641e-05
3.02342e-05
3.10661e-05
2.30168e-05
2.77524e-05
2.94075e-05
2.71609e-05
2.85832e-05
2.56931e-05
8.11779e-05
8.1255e-05
9.22825e-06
4.47028e-05
2.28636e-05
3.27857e-05
8.13801e-05
8.13647e-05
8.11092e-05
8.10545e-05
8.07896e-05
8.10588e-05
8.12132e-05
8.13701e-05
8.13752e-05
8.12191e-05
8.09553e-05
8.12831e-05
8.14612e-05
8.12986e-05
8.14018e-05
8.124e-05
8.13873e-05
2.62508e-05
2.82986e-05
2.87677e-05
4.83603e-05
3.63909e-05
5.16091e-05
4.7727e-05
3.39112e-05
2.47832e-05
1.06293e-05
1.10032e-05
2.46736e-05
5.15084e-05
8.06382e-05
8.13356e-05
8.13667e-05
8.13884e-05
8.13822e-05
8.12746e-05
8.13839e-05
8.11998e-05
6.52075e-05
8.1382e-05
8.13237e-05
8.09113e-05
8.13731e-05
8.13835e-05
8.10743e-05
8.14453e-05
8.10398e-05
8.07165e-05
1.0248e-05
4.3625e-05
2.37936e-05
3.15162e-05
5.02019e-05
4.82267e-05
5.07607e-05
4.80105e-05
1.01611e-05
9.80236e-06
3.72177e-05
3.47437e-05
2.37646e-05
2.3952e-05
2.96022e-05
2.73922e-05
2.54022e-05
8.11199e-05
8.14138e-05
8.13914e-05
8.02348e-05
8.11641e-05
5.40195e-05
4.79369e-05
4.81397e-05
5.18028e-05
1.07163e-05
1.10914e-05
3.60257e-05
3.35669e-05
2.63186e-05
2.83813e-05
2.47642e-05
2.84104e-05
2.48623e-05
8.05792e-05
8.13409e-05
2.30881e-07
7.7304e-07
-2.08016e-07
2.90253e-08
1.91891e-07
4.69812e-07
8.13836e-05
8.13878e-05
8.08758e-05
8.13887e-05
8.12356e-05
8.1265e-05
8.05284e-05
8.13833e-05
8.09052e-05
8.13931e-05
8.13919e-05
8.13077e-05
8.09853e-05
8.12979e-05
8.25193e-05
8.16271e-05
8.11642e-05
8.11904e-05
8.12999e-05
8.1383e-05
8.13853e-05
8.13958e-05
2.07046e-06
2.25045e-06
8.13687e-05
6.85463e-05
8.13778e-05
8.13594e-05
6.62372e-05
8.13787e-05
8.13596e-05
1.72599e-06
1.94327e-06
8.04459e-05
8.13857e-05
8.07629e-05
8.13838e-05
8.07129e-05
8.15386e-05
8.11281e-05
8.13866e-05
8.11328e-05
8.1003e-05
8.13128e-05
8.13869e-05
8.14144e-05
8.13297e-05
2.52897e-06
8.12579e-05
8.10646e-05
8.13774e-05
8.12579e-05
8.12755e-05
8.10708e-05
8.08795e-05
8.13704e-05
8.14007e-05
8.13885e-05
8.13638e-05
8.13796e-05
8.1379e-05
8.11777e-05
8.13835e-05
8.13655e-05
8.11223e-05
8.08092e-05
8.13721e-05
8.11028e-05
2.56264e-06
2.37063e-06
2.30589e-06
8.13587e-05
8.13449e-05
6.10876e-05
8.14183e-05
8.1244e-05
7.88023e-05
8.13084e-05
8.11242e-05
8.12338e-05
8.13908e-05
8.14068e-05
8.13742e-05
5.76763e-05
8.13943e-05
8.1078e-05
8.16009e-05
7.96865e-05
8.13857e-05
8.04835e-05
8.13958e-05
8.04617e-05
8.10529e-05
8.13797e-05
8.11671e-05
8.46115e-05
8.13894e-05
8.03729e-05
8.09947e-05
8.11978e-05
7.83479e-05
8.13535e-05
5.62669e-05
8.12994e-05
8.13885e-05
8.13028e-05
8.07784e-05
8.21949e-05
8.1161e-05
8.13896e-05
8.14962e-05
8.12936e-05
8.15204e-05
8.13842e-05
7.93084e-05
8.13319e-05
6.02979e-05
8.1392e-05
8.13795e-05
8.1179e-05
8.13805e-05
8.12258e-05
8.1337e-05
6.86716e-05
8.0782e-05
5.11652e-05
8.11031e-05
6.65277e-05
8.01299e-05
7.67398e-05
8.13364e-05
8.13742e-05
8.13159e-05
8.12911e-05
8.07288e-05
8.12816e-05
1.41161e-06
1.50436e-06
1.72603e-06
8.12152e-05
8.13919e-05
8.13834e-05
8.17174e-05
8.1354e-05
5.90078e-05
8.13377e-05
8.13771e-05
8.13105e-05
8.07602e-05
7.50996e-05
6.28834e-05
8.13818e-05
8.09146e-05
7.41133e-05
8.11644e-05
8.14001e-05
8.11888e-05
8.13406e-05
8.13917e-05
8.13396e-05
8.07346e-05
8.12173e-05
8.13796e-05
8.13349e-05
8.13761e-05
8.14619e-05
8.13477e-05
8.13808e-05
8.12073e-05
8.12094e-05
5.96686e-05
8.13741e-05
8.11539e-05
8.13278e-05
8.1316e-05
8.04372e-05
8.12759e-05
8.13935e-05
8.06001e-05
8.10911e-05
8.13817e-05
8.13087e-05
8.12427e-05
8.13485e-05
8.08831e-05
8.14645e-05
8.14378e-05
8.12383e-05
8.13144e-05
8.08458e-05
8.13365e-05
1.41079e-06
6.80982e-05
8.19683e-05
8.13779e-05
8.12105e-05
8.10983e-05
8.31486e-05
8.11953e-05
8.12858e-05
8.14034e-05
1.16253e-06
9.57833e-07
8.06469e-05
8.13646e-05
8.13542e-05
8.11716e-05
8.13142e-05
7.29304e-05
8.13746e-05
8.13902e-05
2.14122e-06
8.12678e-05
8.10999e-05
1.92279e-06
1.78502e-06
8.14035e-05
7.96746e-05
8.03952e-05
8.13901e-05
6.40313e-05
7.65182e-05
4.45416e-08
-1.08344e-07
2.06011e-07
7.94579e-05
8.13912e-05
8.13265e-05
7.05074e-05
7.64611e-05
6.87385e-05
7.00825e-05
7.47284e-05
8.10266e-05
8.13457e-05
5.37598e-05
8.06959e-05
8.12422e-05
8.25534e-05
8.13841e-05
7.20159e-05
8.00317e-05
6.34784e-05
8.04003e-05
8.1242e-05
1.64133e-06
1.73977e-06
8.11359e-05
8.01949e-05
8.06098e-05
5.41433e-05
5.36043e-05
8.1367e-05
1.90461e-06
7.62764e-05
7.17985e-05
8.13601e-05
8.13571e-05
7.98262e-05
8.12622e-05
7.15621e-05
8.10688e-05
7.6703e-05
5.72411e-05
5.77283e-05
1.0341e-06
9.99519e-07
1.12243e-06
8.09053e-05
8.10456e-05
6.50548e-05
7.06957e-05
6.83915e-05
6.83852e-05
4.24697e-05
4.20284e-05
8.00235e-05
9.02452e-08
4.87373e-08
1.66794e-08
-9.43447e-07
-9.68192e-07
-1.03497e-06
7.46593e-05
-8.86492e-08
-1.98978e-07
8.07598e-05
-3.47794e-07
-1.25861e-06
4.36794e-07
-1.28894e-06
4.05988e-07
-1.36799e-06
3.87801e-07
)
;

boundaryField
{
    back
    {
        type            empty;
    }
    front
    {
        type            empty;
    }
    ingreso
    {
        type            zeroGradient;
    }
    salida
    {
        type            fixedValue;
        value           uniform 0;
    }
    defaultFaces
    {
        type            zeroGradient;
    }
}


// ************************************************************************* //
