/*--------------------------------*- C++ -*----------------------------------*\
  =========                 |
  \\      /  F ield         | OpenFOAM: The Open Source CFD Toolbox
   \\    /   O peration     | Website:  https://openfoam.org
    \\  /    A nd           | Version:  8
     \\/     M anipulation  |
\*---------------------------------------------------------------------------*/
FoamFile
{
    version     2.0;
    format      ascii;
    class       volScalarField;
    location    "8";
    object      p;
}
// * * * * * * * * * * * * * * * * * * * * * * * * * * * * * * * * * * * * * //

dimensions      [0 2 -2 0 0 0 0];

internalField   nonuniform List<scalar> 
3080
(
4.10531e-05
3.86519e-05
4.08421e-05
4.10573e-05
3.9881e-05
4.0866e-05
4.09133e-05
2.27172e-05
4.07987e-05
4.09263e-05
4.10685e-05
4.09536e-05
3.77057e-05
3.9681e-05
4.10735e-05
3.91152e-05
4.09115e-05
4.09818e-05
4.10626e-05
4.05381e-05
2.71965e-05
4.06272e-05
4.03362e-05
2.42626e-05
4.00578e-05
3.93693e-05
4.08517e-05
3.92741e-05
4.10578e-05
3.94904e-05
3.51487e-05
2.47877e-05
3.94238e-05
2.60755e-05
3.08605e-05
4.10907e-05
4.06618e-05
3.16861e-05
4.09439e-05
3.94929e-05
4.10349e-05
4.09623e-05
4.1018e-05
4.09789e-05
3.91763e-05
4.10698e-05
4.0781e-05
4.10516e-05
4.1015e-05
3.874e-05
4.09768e-05
3.35353e-05
4.04283e-05
4.0889e-05
3.9433e-05
4.08706e-05
4.08367e-05
2.83021e-06
3.15038e-05
4.08752e-05
3.10214e-06
3.44041e-06
4.31123e-06
4.09116e-05
3.93867e-06
4.34914e-06
4.09462e-05
4.09269e-05
2.21231e-06
5.83402e-06
4.09206e-05
3.6725e-06
2.87834e-05
7.37218e-06
4.10056e-05
2.78865e-05
4.10014e-05
5.19164e-06
4.09484e-05
4.10136e-05
3.87653e-05
4.0934e-05
8.91301e-06
3.48197e-05
4.05866e-05
6.72544e-06
4.07148e-05
1.01374e-05
1.10706e-05
4.07326e-05
8.26545e-06
1.04568e-05
1.31105e-06
9.27183e-06
1.01325e-05
4.08189e-05
9.80781e-06
1.15752e-05
1.26288e-05
4.09409e-05
4.09112e-05
2.54955e-06
2.83749e-06
2.80552e-05
4.06805e-05
3.97448e-05
4.09936e-05
1.135e-05
1.07078e-05
1.16892e-05
1.30128e-05
1.41869e-05
4.09669e-05
4.88149e-06
5.37286e-06
2.38799e-05
4.06344e-05
1.68564e-06
1.89043e-06
1.2146e-05
1.32479e-05
4.08948e-05
4.06244e-05
5.83218e-06
6.40396e-06
4.10175e-05
4.10174e-05
1.54024e-05
1.67768e-05
3.92602e-05
6.78713e-06
7.43943e-06
4.08858e-05
7.74615e-06
8.47887e-06
4.10717e-05
4.07964e-05
4.10393e-05
1.68495e-05
1.8337e-05
1.70055e-05
1.61119e-05
4.09904e-05
8.70407e-06
9.51684e-06
3.90261e-05
4.10096e-05
1.45385e-05
1.58418e-05
3.56614e-06
3.94445e-06
4.10256e-05
4.08137e-05
4.08623e-05
4.10165e-05
1.83207e-05
1.99e-05
2.98378e-05
3.31518e-06
4.08697e-05
1.85426e-05
1.99008e-05
2.16079e-05
3.95289e-05
1.87792e-06
1.76492e-05
4.10446e-05
4.08347e-05
4.81886e-06
1.59713e-05
1.7397e-05
4.07659e-05
2.39252e-05
2.00897e-05
3.11381e-05
6.34774e-06
2.3291e-05
2.12743e-05
4.10225e-05
3.45376e-07
3.61495e-07
2.85661e-07
1.2379e-05
1.91825e-05
2.7845e-05
4.07965e-05
2.17181e-05
7.88723e-06
1.74209e-05
1.89544e-05
4.09469e-05
1.34085e-05
4.06781e-05
2.49361e-05
4.09982e-05
1.39689e-05
1.52224e-05
4.09948e-05
2.03982e-05
2.21739e-05
2.20217e-06
2.46058e-06
9.42981e-06
2.43083e-05
1.4435e-05
2.07844e-05
2.25885e-05
2.07562e-05
2.34387e-05
4.10048e-05
9.75275e-06
1.06538e-05
4.04916e-05
4.10274e-05
3.92723e-05
4.08703e-05
1.5464e-05
2.37623e-05
2.15706e-05
1.09716e-05
4.50091e-06
4.95989e-06
2.40167e-05
1.11902e-05
1.22119e-05
4.06686e-05
4.03024e-05
4.08008e-05
5.44824e-06
5.98768e-06
2.62967e-05
4.07227e-05
2.43334e-05
2.25152e-05
4.06523e-05
2.46504e-05
2.48828e-05
6.40123e-06
7.02102e-06
4.10555e-05
1.2628e-05
1.37702e-05
4.07214e-05
2.3447e-05
5.04316e-07
5.10043e-07
5.91403e-07
2.37542e-05
4.0927e-05
7.35631e-06
8.05655e-06
3.72235e-05
2.1549e-05
1.37367e-06
1.55559e-06
3.81103e-05
2.10209e-05
8.31508e-06
9.09553e-06
2.55514e-05
4.10449e-05
1.93196e-05
2.09512e-05
2.17197e-05
2.00286e-05
2.22276e-05
2.05117e-05
4.10012e-05
2.06969e-05
1.90673e-05
4.08747e-05
1.50167e-05
1.63612e-05
1.66247e-05
2.17617e-05
4.07172e-05
1.96672e-05
1.81004e-05
4.10533e-05
1.86305e-05
1.71275e-05
2.42848e-05
1.7592e-05
1.6158e-05
2.57199e-05
2.12089e-05
1.95483e-05
2.16009e-05
1.2e-05
1.60355e-05
1.47187e-05
2.11302e-05
1.64512e-05
1.79175e-05
1.81596e-05
1.49944e-05
1.37572e-05
2.85282e-05
3.94912e-07
2.69588e-07
3.28852e-07
2.06578e-05
1.96674e-05
1.39572e-05
1.28002e-05
1.30289e-05
1.29199e-05
1.18434e-05
2.01837e-05
1.8588e-05
1.81245e-05
4.08734e-05
1.1879e-05
1.08832e-05
2.43289e-05
1.65798e-05
2.65791e-05
2.01732e-05
1.03139e-05
9.43907e-06
1.91533e-05
1.7914e-05
1.9477e-05
4.10244e-05
1.96955e-05
1.40563e-05
1.50319e-05
8.75682e-06
8.0019e-06
1.70796e-05
1.56826e-05
1.91502e-05
1.76135e-05
7.72505e-06
7.05006e-06
1.34862e-05
6.68638e-06
6.09213e-06
1.2459e-05
1.50822e-05
1.76088e-05
1.35847e-05
1.48069e-05
5.11815e-06
4.64435e-06
4.07685e-05
1.09137e-05
2.13108e-05
4.06931e-06
3.67516e-06
3.33794e-05
1.81129e-05
1.66459e-05
1.86387e-05
4.10404e-05
9.37016e-06
4.09903e-05
2.24442e-06
2.51667e-06
3.82326e-05
4.08639e-05
1.60631e-05
7.82705e-06
6.28095e-06
2.3093e-05
4.72843e-06
4.0774e-05
3.15546e-06
1.65555e-05
1.51992e-05
4.08655e-05
1.70955e-05
3.84948e-05
2.56411e-05
1.40011e-05
4.07587e-05
2.77074e-05
1.55154e-05
1.42383e-05
4.08288e-05
3.93296e-05
4.10116e-05
4.10696e-05
1.08318e-05
9.91681e-06
1.55495e-05
1.73698e-06
1.14303e-05
1.44768e-05
1.32796e-05
4.10136e-05
1.89027e-05
2.05218e-05
2.55564e-05
9.27215e-06
8.47741e-06
4.09451e-05
1.45143e-05
2.27322e-05
2.48629e-05
4.09322e-05
9.88664e-06
2.2289e-05
4.09961e-05
1.34393e-05
1.23226e-05
3.96239e-05
8.34252e-06
1.29744e-05
1.24014e-05
1.13652e-05
4.07483e-05
2.53507e-05
5.63797e-06
5.12434e-06
3.96475e-05
6.79812e-06
1.19435e-05
1.13603e-05
1.0405e-05
4.10041e-05
4.06684e-05
5.24917e-06
1.83872e-07
2.53846e-07
1.96212e-07
4.09853e-05
1.44795e-06
1.2873e-06
4.10704e-05
1.03993e-05
9.79933e-06
8.96475e-06
3.02167e-06
2.70871e-06
4.10453e-05
3.99245e-05
4.06978e-05
4.0672e-05
4.02316e-05
2.3487e-06
2.10256e-06
4.08603e-05
3.68416e-06
4.41121e-06
4.86216e-06
1.08774e-06
1.20744e-06
1.11037e-06
4.0983e-05
5.35877e-06
5.89031e-06
6.31171e-06
6.92367e-06
7.26873e-06
7.96125e-06
8.22742e-06
9.00014e-06
8.85528e-06
4.09572e-05
8.24291e-06
7.52792e-06
1.39134e-06
1.53166e-06
7.78367e-07
7.6112e-07
8.51873e-07
3.5471e-05
1.34918e-05
1.47058e-05
3.87612e-05
4.0892e-05
4.10306e-05
7.20794e-06
6.57319e-06
4.10047e-05
3.85921e-05
3.75306e-05
4.10731e-05
1.88219e-05
2.0424e-05
7.31215e-06
4.0881e-05
4.08649e-05
4.09046e-05
1.50718e-06
1.67243e-06
1.18651e-05
1.28957e-05
4.03492e-05
6.16859e-06
5.61485e-06
1.39236e-05
2.66816e-05
1.49509e-05
4.10295e-05
3.78717e-05
4.09972e-05
4.10351e-05
4.10336e-05
3.90946e-05
4.08685e-05
4.07495e-05
5.76535e-06
1.41515e-06
4.09985e-05
4.04233e-05
3.75433e-05
4.10067e-05
2.46872e-05
4.07448e-05
4.59642e-06
4.16248e-06
4.08697e-05
3.51902e-05
4.08683e-05
2.10301e-06
4.08677e-05
4.09795e-05
4.09665e-05
2.64645e-05
4.08796e-05
3.46641e-06
3.83648e-06
4.20757e-06
3.99374e-05
4.08581e-05
3.54493e-06
3.19124e-06
4.0985e-05
4.08209e-05
4.0847e-05
4.67489e-06
4.07256e-05
3.16761e-06
4.00238e-05
4.08819e-05
6.20543e-06
9.65667e-06
1.05497e-05
4.00817e-05
4.10391e-05
1.21059e-05
1.10925e-05
7.74503e-06
1.36648e-05
1.25309e-05
4.09518e-05
1.62543e-05
1.49192e-05
1.78134e-05
1.63634e-05
1.93751e-05
1.78189e-05
9.28685e-06
4.0835e-05
2.70811e-05
4.10112e-05
4.02973e-05
1.08289e-05
4.10598e-05
4.10056e-05
1.78598e-06
2.3342e-05
1.84867e-06
2.06169e-06
4.05686e-05
4.08728e-05
3.87524e-05
4.10013e-05
1.64842e-05
1.80224e-05
1.95654e-05
4.10527e-05
2.28816e-05
2.11386e-05
3.97382e-05
2.44357e-05
4.01685e-05
4.10094e-05
4.08782e-05
3.99782e-05
4.07601e-05
4.09672e-05
4.10211e-05
4.08522e-05
4.09882e-05
3.67815e-05
4.08217e-05
2.85869e-05
4.10035e-05
4.09939e-05
4.02029e-05
4.00154e-05
3.98466e-05
4.10052e-05
3.86668e-05
4.04074e-05
4.09557e-05
4.05013e-05
4.08656e-05
4.09984e-05
4.08608e-05
2.61689e-05
4.08344e-05
4.09879e-05
3.89295e-05
4.093e-05
4.10479e-05
2.21312e-05
4.08944e-05
4.09333e-05
4.0972e-05
4.09957e-05
4.05465e-05
2.21148e-06
4.10103e-05
2.627e-06
4.10002e-05
3.96333e-05
2.7624e-05
2.32294e-05
4.02898e-05
4.09967e-05
4.08828e-05
4.10487e-05
4.09437e-05
4.10181e-05
4.10067e-05
4.10253e-05
4.10475e-05
4.09775e-05
4.04769e-05
4.10223e-05
4.07465e-05
4.09552e-05
4.04944e-05
2.47207e-05
4.08765e-05
4.09841e-05
3.60411e-05
4.08878e-05
4.09771e-05
3.88282e-05
4.00811e-05
3.56231e-05
4.08807e-05
4.10086e-05
4.05631e-05
4.10239e-05
4.09337e-05
4.08796e-05
4.03614e-05
4.10208e-05
4.00769e-05
4.08768e-05
4.06895e-05
4.10531e-05
4.08872e-05
4.0964e-05
2.4948e-06
2.23776e-06
4.09207e-05
3.99695e-05
4.0894e-05
3.99045e-05
4.10382e-05
4.10348e-05
4.08551e-05
4.09269e-05
2.42197e-05
4.10261e-05
4.08716e-05
4.10271e-05
4.10446e-05
4.08366e-05
4.105e-05
4.10009e-05
4.09778e-05
4.10034e-05
4.09928e-05
4.0854e-05
4.08687e-05
4.1034e-05
4.0996e-05
4.10059e-05
4.10432e-05
4.08794e-05
4.09024e-05
4.09569e-05
4.10045e-05
4.09738e-05
4.09411e-05
4.09259e-05
4.08869e-05
4.10412e-05
4.08346e-05
4.09471e-05
3.95824e-05
4.10528e-05
4.0376e-05
4.09928e-05
4.08439e-05
4.03679e-05
4.04137e-05
4.09888e-05
2.7733e-05
4.10277e-05
4.02652e-05
4.08737e-05
4.10078e-05
4.08517e-05
4.10538e-05
4.09349e-05
4.10175e-05
4.09835e-05
4.10367e-05
4.08433e-05
4.10281e-05
4.00626e-05
4.0525e-05
4.10249e-05
4.1021e-05
4.09454e-05
4.04423e-05
4.08882e-05
4.08912e-05
4.10387e-05
3.97556e-05
4.07661e-05
4.1073e-05
4.09733e-05
4.09448e-05
4.09332e-05
4.08545e-05
4.08773e-05
4.10572e-05
4.10089e-05
4.08813e-05
4.10178e-05
4.08526e-05
4.09064e-05
4.10512e-05
4.02685e-05
2.23966e-06
4.10043e-05
4.03621e-05
4.08905e-05
4.10043e-05
4.0863e-05
4.10107e-05
4.10045e-05
4.10265e-05
4.09611e-05
4.08048e-05
4.09212e-05
3.95035e-05
4.10586e-05
4.10165e-05
4.10246e-05
4.07623e-05
4.09881e-05
4.08878e-05
4.10481e-05
4.1027e-05
4.10782e-05
4.08095e-05
4.1037e-05
4.08621e-05
4.0909e-05
4.10323e-05
4.00635e-05
2.67163e-06
4.0927e-05
4.09579e-05
4.01837e-05
4.06178e-05
4.09949e-05
4.00541e-05
4.09896e-05
4.08578e-05
4.08617e-05
4.10481e-05
4.08575e-05
4.10481e-05
4.09363e-05
4.06741e-05
2.40559e-05
4.05258e-05
4.05229e-05
4.09e-05
4.0987e-05
4.10476e-05
4.10553e-05
4.10495e-05
4.08838e-05
4.10096e-05
4.1065e-05
4.04868e-05
4.10763e-05
4.05285e-05
4.1039e-05
4.10719e-05
4.09863e-05
4.09655e-05
4.08613e-05
4.10428e-05
4.10272e-05
4.09955e-05
4.10759e-05
4.08284e-05
4.09053e-05
4.08865e-05
4.1051e-05
4.10354e-05
4.08888e-05
4.09927e-05
4.10232e-05
4.09687e-05
2.27267e-05
4.10506e-05
4.07774e-05
4.07409e-05
4.09801e-05
4.10054e-05
4.10264e-05
4.10487e-05
4.05806e-05
4.10633e-05
4.08771e-05
4.08385e-05
4.08884e-05
4.09193e-05
4.09787e-05
4.09432e-05
4.10265e-05
4.08391e-05
4.10665e-05
4.09678e-05
4.09619e-05
4.10455e-05
4.07356e-05
4.09041e-05
4.09705e-05
4.09848e-05
4.10776e-05
4.10566e-05
4.09217e-05
4.08443e-05
4.1008e-05
4.08715e-05
4.09919e-05
4.10738e-05
4.08509e-05
4.08361e-05
4.09659e-05
4.08873e-05
4.07691e-05
4.08163e-05
4.08955e-05
4.10781e-05
4.10315e-05
4.09866e-05
4.03994e-05
4.07864e-05
4.08794e-05
2.95958e-06
2.66145e-06
4.09905e-05
4.10479e-05
4.08375e-05
4.05286e-05
4.04406e-05
3.15664e-06
4.0956e-05
4.09368e-05
4.10548e-05
4.08966e-05
4.08494e-05
4.09543e-05
4.07503e-05
4.036e-05
4.09707e-05
4.03318e-05
4.03919e-05
4.05026e-05
4.10524e-05
4.10537e-05
4.0348e-05
4.08188e-05
4.08161e-05
4.07558e-05
4.10657e-05
4.04657e-05
4.02177e-05
4.10439e-05
4.10221e-05
4.08408e-05
3.5467e-05
4.10386e-05
4.06487e-05
4.09168e-05
4.0391e-05
4.10308e-05
4.0288e-05
4.05815e-05
4.1056e-05
4.02659e-05
4.05341e-05
4.08653e-05
4.10077e-05
4.09678e-05
3.96711e-05
4.02599e-05
4.04473e-05
4.04894e-05
4.1058e-05
4.08281e-05
4.08938e-05
4.05973e-05
4.05122e-05
4.08452e-05
4.0793e-05
4.07707e-05
4.07824e-05
4.03731e-05
4.05599e-05
4.01731e-05
3.65322e-06
4.10271e-05
4.08539e-05
4.09606e-05
3.44297e-06
3.10377e-06
4.05809e-05
3.01677e-06
2.70653e-06
4.07699e-05
3.97445e-05
4.10292e-05
4.10324e-05
4.0812e-05
4.10269e-05
4.06383e-05
4.08001e-05
4.09213e-05
4.10089e-05
4.06154e-05
4.10491e-05
4.08003e-05
4.08266e-05
4.06502e-05
4.06961e-05
3.56081e-06
3.94036e-06
2.26942e-05
4.06885e-05
4.04607e-05
4.09099e-05
4.06142e-05
4.072e-05
4.07201e-05
4.10445e-05
4.09127e-05
3.95476e-05
4.05401e-05
3.98099e-05
4.06621e-05
4.11741e-05
4.05684e-05
4.09589e-05
4.07697e-05
3.76722e-06
4.08088e-05
3.97252e-05
4.06276e-05
4.05058e-05
4.06884e-05
4.05819e-05
4.15557e-06
4.0853e-05
4.10068e-05
4.00782e-05
4.06832e-05
4.4479e-06
4.02819e-06
4.01861e-05
4.06675e-05
2.09965e-06
1.8684e-06
2.25808e-05
4.1033e-05
4.03633e-05
4.06781e-05
4.66462e-06
4.01474e-05
4.10294e-05
4.03309e-05
4.0828e-05
4.0778e-05
4.5005e-06
4.96045e-06
4.0893e-05
5.17686e-06
4.05707e-05
4.05952e-05
4.01916e-05
4.05927e-05
5.31819e-06
5.68929e-06
4.0857e-05
5.47806e-06
4.97785e-06
4.10012e-05
6.2036e-06
5.45697e-06
5.9974e-06
5.12551e-06
5.63821e-06
3.98635e-05
6.71853e-06
4.10173e-05
5.93551e-06
6.51619e-06
6.8608e-06
7.23173e-06
2.2848e-05
6.41535e-06
7.03631e-06
7.74529e-06
2.52363e-05
7.55375e-06
6.89262e-06
8.25959e-06
8.07074e-06
7.36968e-06
8.40217e-06
8.77412e-06
8.58495e-06
7.84378e-06
9.28805e-06
9.8028e-06
8.32168e-06
9.10286e-06
9.94643e-06
8.80041e-06
9.62174e-06
1.03174e-05
8.4792e-06
9.27321e-06
1.0831e-05
1.01409e-05
9.27945e-06
1.13456e-05
9.76102e-06
1.06628e-05
1.18609e-05
1.14889e-05
1.11847e-05
1.02426e-05
1.08264e-05
9.91195e-06
1.23755e-05
1.07234e-05
1.17058e-05
1.22266e-05
1.1204e-05
1.28891e-05
1.27448e-05
1.1682e-05
1.34002e-05
1.32633e-05
1.21602e-05
1.39161e-05
1.26384e-05
1.37816e-05
1.25143e-05
6.86214e-06
2.41099e-05
2.47187e-05
2.31608e-05
2.08542e-05
2.2552e-05
2.94727e-06
2.64914e-06
1.16708e-05
1.27325e-05
6.50644e-06
5.92705e-06
1.40634e-05
2.30481e-05
2.13803e-05
9.94526e-06
2.07217e-05
1.3118e-05
2.40116e-05
1.43015e-05
3.8117e-06
2.48228e-05
1.76982e-05
1.61523e-05
1.03971e-06
8.95951e-07
2.19286e-05
2.35209e-06
1.14858e-05
1.11738e-05
1.02327e-05
2.10595e-05
1.94027e-05
2.25107e-05
1.44283e-05
1.84366e-05
1.69331e-05
2.96424e-05
1.99975e-05
1.84075e-05
6.88164e-06
8.40145e-06
9.61704e-06
8.79664e-06
7.54141e-06
1.42914e-05
1.31094e-05
2.3564e-05
4.45408e-06
4.03575e-06
2.21629e-05
5.32787e-06
2.46019e-05
2.69948e-05
5.47648e-06
4.97752e-06
2.69753e-05
1.98407e-06
1.76344e-06
2.53964e-05
8.57727e-06
7.8371e-06
2.87088e-05
2.2112e-05
1.84199e-05
1.92425e-05
2.00072e-05
1.94887e-05
1.79305e-05
2.23333e-05
1.69275e-05
1.55434e-05
2.05298e-05
2.00809e-05
1.35427e-05
2.15862e-05
2.10573e-05
2.53457e-05
1.95673e-05
1.89127e-05
1.80312e-05
1.35965e-05
1.55966e-05
2.48537e-05
1.98779e-05
1.45685e-05
1.64744e-05
1.93966e-05
2.16615e-05
1.75168e-05
1.70025e-05
2.22196e-05
2.03553e-05
1.40761e-05
1.58591e-05
1.53395e-05
1.90531e-05
1.63795e-05
1.6899e-05
1.482e-05
1.59936e-05
2.02182e-05
1.74423e-05
1.50363e-05
1.85429e-05
2.11313e-05
1.59762e-05
2.43703e-05
2.41198e-05
1.45561e-05
2.26876e-05
2.06083e-05
2.18996e-05
1.74177e-05
1.71379e-05
1.53265e-05
1.40643e-05
1.79357e-05
2.26359e-05
1.64893e-05
1.86717e-05
2.40875e-05
1.8971e-05
1.68809e-05
1.54961e-05
1.55152e-05
2.44913e-05
1.49444e-05
1.69561e-05
2.3633e-05
1.54598e-05
2.27444e-05
2.08735e-05
2.53535e-05
2.31487e-05
2.22357e-05
1.84528e-05
2.47069e-05
2.30836e-05
2.46536e-05
2.37237e-05
2.27839e-05
2.08203e-05
4.05518e-05
2.14771e-05
2.17218e-05
2.12771e-05
2.1912e-05
4.07342e-05
4.08535e-05
4.07063e-05
2.35864e-05
4.08645e-05
4.10267e-05
4.06606e-05
2.05087e-05
4.06906e-05
4.06398e-05
4.09947e-05
4.08237e-05
4.08885e-05
2.43466e-05
4.03966e-05
2.16544e-05
4.063e-05
4.07542e-05
4.06769e-05
4.03244e-05
4.04934e-05
3.92577e-05
2.09984e-05
2.40019e-05
4.06816e-05
4.05093e-05
2.39429e-05
4.07312e-05
4.06154e-05
2.11886e-05
4.07711e-05
4.05356e-05
4.10286e-05
4.10249e-05
4.10324e-05
4.0805e-05
4.06029e-05
4.08505e-05
4.08389e-05
3.89118e-05
4.06036e-05
4.05694e-05
4.085e-05
3.96976e-05
1.88578e-05
1.73349e-05
4.07825e-05
4.08697e-05
4.10973e-05
4.10008e-05
2.33133e-05
4.05228e-05
4.09577e-05
4.05144e-05
4.04433e-05
4.10447e-05
3.98678e-05
4.0814e-05
4.04361e-05
4.07445e-05
4.07465e-05
4.04726e-05
4.07621e-05
4.01728e-05
4.10065e-05
4.07857e-05
4.09311e-05
4.07185e-05
4.05567e-05
4.04406e-05
4.07195e-05
4.08162e-05
4.07099e-05
4.08728e-05
4.09468e-05
4.08412e-05
4.08811e-05
4.09074e-05
4.08308e-05
4.01769e-05
4.07099e-05
4.08646e-05
4.07968e-05
2.15603e-05
1.98819e-05
4.09023e-05
4.07786e-05
4.04169e-05
4.07299e-05
4.07566e-05
4.08689e-05
4.08912e-05
4.09475e-05
4.0733e-05
4.09011e-05
2.12385e-05
4.07116e-05
4.10014e-05
4.06732e-05
4.09234e-05
4.00814e-05
4.10332e-05
4.01118e-05
4.07483e-05
4.08472e-05
4.05529e-05
4.06626e-05
4.10173e-05
4.04438e-05
4.04394e-05
4.08537e-05
4.10096e-05
4.07304e-05
4.09829e-05
4.10117e-05
4.10473e-05
2.58436e-05
4.0988e-05
4.106e-05
4.10486e-05
4.09184e-05
4.08274e-05
4.08014e-05
4.08622e-05
4.08665e-05
4.10532e-05
4.10095e-05
4.09124e-05
4.07843e-05
4.0837e-05
4.10639e-05
4.104e-05
4.10287e-05
4.10111e-05
4.07375e-05
4.10439e-05
4.1009e-05
4.1035e-05
4.07191e-05
4.04236e-05
4.0833e-05
4.08595e-05
1.72959e-05
1.58839e-05
4.10007e-05
4.10455e-05
4.08424e-05
4.08067e-05
4.06738e-05
4.0876e-05
2.12031e-05
1.95339e-05
4.08945e-05
3.98219e-05
4.07659e-05
2.52725e-05
4.10099e-05
4.07711e-05
2.20688e-05
2.03762e-05
1.02268e-06
4.08703e-05
4.07541e-05
4.07844e-05
4.10538e-05
4.10424e-05
4.08552e-05
4.08623e-05
4.10336e-05
4.08896e-05
4.10009e-05
4.07726e-05
4.09571e-05
4.10137e-05
4.03163e-05
4.08691e-05
4.08937e-05
4.08554e-05
4.07984e-05
4.10435e-05
4.08669e-05
4.0858e-05
4.09425e-05
4.09745e-05
4.08772e-05
4.10257e-05
4.10417e-05
4.10395e-05
4.05107e-05
4.10372e-05
4.04471e-05
4.10488e-05
4.1008e-05
4.01961e-05
3.99683e-05
4.10105e-05
4.10526e-05
4.08599e-05
4.08735e-05
4.09786e-05
4.07505e-05
4.10452e-05
4.03698e-05
4.0929e-05
4.08984e-05
4.07723e-05
4.04774e-05
4.1011e-05
4.08733e-05
4.105e-05
4.09021e-05
2.05474e-05
1.8918e-05
4.07776e-05
4.08841e-05
4.09766e-05
1.57404e-05
1.44463e-05
4.02148e-05
2.02421e-05
4.07789e-05
4.096e-05
4.10477e-05
4.08326e-05
4.09063e-05
4.10407e-05
4.09812e-05
4.07474e-05
4.09723e-05
4.07596e-05
4.10247e-05
4.09176e-05
4.09148e-05
2.07274e-05
4.08884e-05
4.09958e-05
4.08359e-05
4.10535e-05
4.02527e-05
4.09021e-05
4.08955e-05
4.10647e-05
4.08163e-05
3.98603e-05
4.08138e-05
3.9606e-05
4.0715e-05
4.08456e-05
4.09116e-05
4.09278e-05
4.09405e-05
4.10012e-05
4.09337e-05
4.0959e-05
4.06194e-05
4.08865e-05
4.06713e-05
4.09965e-05
4.10398e-05
4.10564e-05
4.08293e-05
4.10493e-05
4.10417e-05
4.09243e-05
4.087e-05
4.10678e-05
4.09537e-05
4.08709e-05
4.10515e-05
4.08258e-05
4.07775e-05
2.23037e-05
4.10295e-05
4.10174e-05
4.09751e-05
4.10455e-05
4.10155e-05
4.07427e-05
4.08289e-05
4.07848e-05
4.10337e-05
4.09703e-05
4.10157e-05
4.05276e-05
4.10355e-05
4.06882e-05
4.09964e-05
4.08952e-05
4.103e-05
4.10164e-05
4.10148e-05
4.08511e-05
4.08522e-05
4.08594e-05
4.10336e-05
4.08669e-05
4.08703e-05
4.06257e-05
4.03428e-05
4.10218e-05
4.09963e-05
4.08773e-05
4.09693e-05
4.07481e-05
3.99752e-05
2.01643e-05
1.85662e-05
4.09294e-05
4.0945e-05
1.97199e-05
4.09306e-05
4.06735e-05
4.10586e-05
4.08253e-05
4.1051e-05
4.09193e-05
4.09727e-05
4.08946e-05
2.17239e-05
2.00207e-05
4.10623e-05
4.1035e-05
4.09642e-05
4.08991e-05
4.10385e-05
4.09924e-05
4.09059e-05
4.09483e-05
4.09017e-05
4.09235e-05
4.08886e-05
2.0224e-05
4.08869e-05
4.09302e-05
4.09163e-05
4.10324e-05
4.08215e-05
4.1054e-05
4.00822e-05
4.1031e-05
4.09286e-05
2.87147e-05
4.10503e-05
4.08369e-05
4.10545e-05
4.09128e-05
4.08646e-05
4.04598e-05
4.10581e-05
4.10446e-05
4.08085e-05
4.10658e-05
4.02553e-05
4.10307e-05
4.09166e-05
4.08502e-05
4.09209e-05
4.0845e-05
4.10372e-05
4.10256e-05
4.09802e-05
4.06807e-05
4.08593e-05
4.10209e-05
4.10562e-05
4.08993e-05
4.02149e-05
4.08041e-05
4.1069e-05
4.09054e-05
4.05682e-05
4.08845e-05
4.10465e-05
4.10593e-05
4.10408e-05
4.1062e-05
4.10175e-05
4.07936e-05
4.0897e-05
4.10389e-05
4.09074e-05
4.10586e-05
4.10632e-05
4.1028e-05
4.0839e-05
4.09304e-05
4.10379e-05
4.10534e-05
4.10631e-05
4.10637e-05
4.08858e-05
4.08501e-05
4.08835e-05
4.07762e-05
4.10491e-05
4.09841e-05
4.10284e-05
4.10316e-05
4.09449e-05
4.07971e-05
4.09088e-05
4.09895e-05
4.07422e-05
4.09535e-05
1.95221e-05
1.79552e-05
4.10259e-05
4.10141e-05
4.08898e-05
2.0609e-05
4.08247e-05
4.10066e-05
1.31483e-05
1.20546e-05
4.10194e-05
4.08698e-05
4.10339e-05
4.09573e-05
4.09456e-05
4.10174e-05
4.0827e-05
4.09277e-05
4.09095e-05
4.0886e-05
4.08222e-05
4.09243e-05
4.09926e-05
4.09022e-05
4.07938e-05
4.08157e-05
4.10558e-05
4.03352e-05
4.09383e-05
4.06227e-05
4.05705e-05
4.01437e-05
4.08473e-05
4.05938e-05
4.10148e-05
4.08609e-05
4.06113e-05
4.0206e-05
4.09115e-05
4.08783e-05
4.10517e-05
4.1016e-05
4.09568e-05
4.03654e-05
4.08487e-05
4.09216e-05
4.10593e-05
4.10239e-05
4.08794e-05
4.10176e-05
4.09043e-05
4.09912e-05
4.1015e-05
4.07307e-05
4.07278e-05
4.10142e-05
4.00924e-05
4.08927e-05
4.09385e-05
4.05855e-05
3.99907e-05
4.07315e-05
4.17685e-06
4.04068e-05
4.10658e-05
4.10181e-05
1.91265e-05
1.75871e-05
4.10559e-05
1.87298e-05
4.09818e-05
4.01112e-05
4.09475e-05
4.09592e-05
4.10537e-05
4.09041e-05
4.08874e-05
2.10578e-05
1.93981e-05
4.092e-05
4.08877e-05
1.15892e-05
1.06159e-05
4.099e-05
4.10325e-05
4.08968e-05
3.99263e-05
4.10085e-05
4.09697e-05
4.02247e-05
4.0995e-05
4.10626e-05
1.97477e-05
4.01809e-05
4.09109e-05
4.09849e-05
4.10378e-05
1.90568e-05
4.09922e-05
5.70088e-06
4.10575e-05
4.03753e-05
4.07725e-05
4.10298e-05
4.09288e-05
4.07442e-05
4.08272e-05
4.10227e-05
4.10125e-05
4.10038e-05
4.09967e-05
4.05952e-05
4.09815e-05
4.10005e-05
4.10357e-05
4.09838e-05
4.08649e-05
4.10363e-05
4.09586e-05
7.23811e-06
4.09427e-05
4.08195e-05
4.10485e-05
4.08792e-05
4.1056e-05
1.84842e-05
1.69876e-05
1.81796e-05
4.10098e-05
4.09846e-05
4.09352e-05
2.69075e-06
4.08427e-05
4.10492e-05
4.10439e-05
4.09206e-05
1.00362e-05
9.18337e-06
4.10558e-05
4.10323e-05
8.77848e-06
4.0994e-05
4.08628e-05
4.10362e-05
-1.09666e-07
-1.43213e-07
-1.20464e-07
4.09088e-05
4.10489e-05
4.1016e-05
4.02921e-05
4.09101e-05
4.0831e-05
4.10104e-05
4.04197e-05
2.58742e-05
4.0821e-05
4.07738e-05
1.75177e-05
4.08078e-05
3.98828e-05
4.08654e-05
4.10294e-05
4.10058e-05
4.10333e-05
4.05286e-05
4.08804e-05
1.21996e-06
1.1073e-06
1.03211e-05
4.09178e-05
4.08804e-05
2.6579e-05
4.09464e-05
4.08763e-05
4.09976e-05
4.10317e-05
4.09902e-05
1.80863e-05
1.66178e-05
4.09655e-05
4.10153e-05
4.0947e-05
4.10012e-05
4.09704e-05
4.09128e-05
4.09741e-05
2.06832e-05
1.90515e-05
4.08197e-05
4.09492e-05
4.09919e-05
4.10543e-05
4.09557e-05
4.10583e-05
4.10261e-05
4.10058e-05
4.08861e-05
4.04497e-05
4.10489e-05
4.10252e-05
4.07854e-05
4.08666e-05
4.08571e-05
4.09641e-05
4.08431e-05
1.59788e-05
4.10597e-05
3.00706e-06
3.33639e-06
4.09426e-05
1.71831e-05
1.74478e-05
1.60244e-05
4.0789e-05
4.10002e-05
4.05983e-05
4.09316e-05
4.10114e-05
4.09598e-05
4.082e-05
4.0982e-05
4.09741e-05
4.10677e-05
4.06603e-05
4.10506e-05
4.08454e-05
4.1006e-05
1.92099e-05
4.09175e-05
4.02853e-05
4.10118e-05
4.06666e-05
4.10507e-05
4.08668e-05
4.0729e-05
4.09702e-05
4.10223e-05
1.62245e-06
1.42661e-06
4.03573e-05
1.66376e-05
4.05269e-05
4.09772e-05
4.10631e-05
4.08357e-05
4.09183e-05
4.09091e-05
4.10181e-05
4.10581e-05
2.00412e-05
1.84423e-05
1.86946e-05
4.08509e-05
4.10578e-05
4.09812e-05
4.10609e-05
4.02584e-05
4.10187e-05
4.09856e-05
4.10583e-05
4.09103e-05
4.09002e-05
4.08854e-05
4.02453e-05
1.65301e-05
1.5174e-05
4.10541e-05
4.10117e-05
4.10132e-05
4.09638e-05
4.09156e-05
4.08731e-05
4.09776e-05
4.10674e-05
4.10205e-05
4.10135e-05
4.08213e-05
4.10168e-05
4.09061e-05
1.56375e-05
4.09929e-05
1.58862e-05
1.45808e-05
4.08623e-05
4.018e-05
4.08673e-05
4.10059e-05
4.10723e-05
4.1058e-05
4.09123e-05
1.96463e-05
1.80757e-05
1.82129e-05
4.1007e-05
4.10011e-05
1.50924e-05
1.54905e-05
1.42152e-05
4.05054e-05
4.08993e-05
4.08571e-05
4.08619e-05
4.0879e-05
4.09496e-05
4.1011e-05
4.09327e-05
4.10051e-05
3.98193e-05
1.46103e-05
4.08228e-05
4.10591e-05
4.10125e-05
1.48461e-05
1.36202e-05
4.10428e-05
4.10142e-05
4.1014e-05
1.90061e-05
1.74727e-05
3.97456e-05
4.08897e-05
3.96647e-05
4.08641e-05
3.98628e-05
3.99407e-05
4.04599e-05
4.1065e-05
1.44527e-05
1.32577e-05
2.46813e-05
1.76649e-05
3.9902e-05
4.10503e-05
1.3552e-05
1.3809e-05
1.26635e-05
1.98224e-05
2.14927e-05
2.12439e-05
2.31162e-05
1.71513e-05
1.86069e-05
1.71018e-05
4.10544e-05
4.04759e-05
4.0901e-05
2.4313e-05
4.08673e-05
4.10275e-05
1.30676e-05
1.34152e-05
1.23006e-05
4.10603e-05
4.09919e-05
4.0986e-05
3.75626e-05
3.00355e-05
4.1066e-05
4.08545e-05
4.10603e-05
1.59124e-06
1.25184e-05
4.08809e-05
1.27734e-05
1.17084e-05
4.09863e-05
3.99845e-05
4.10125e-05
1.66671e-05
1.79666e-05
1.65061e-05
1.20395e-05
3.8697e-05
1.23772e-05
1.13429e-05
4.06979e-05
4.08698e-05
4.09304e-05
4.08728e-05
4.01439e-05
4.0881e-05
4.10561e-05
4.09967e-05
4.10183e-05
1.17352e-05
1.07507e-05
4.07836e-05
4.08967e-05
3.07279e-05
4.10642e-05
1.75655e-05
1.61347e-05
4.066e-05
3.82038e-05
1.09761e-05
1.13392e-05
1.03852e-05
4.08346e-05
4.10397e-05
4.10673e-05
4.10382e-05
4.10653e-05
4.08249e-05
3.97913e-05
4.07266e-05
4.08972e-05
1.61223e-05
4.09224e-05
4.10609e-05
1.04965e-05
4.10662e-05
4.10025e-05
1.4386e-06
4.08931e-05
4.0919e-05
4.0867e-05
4.09388e-05
4.09059e-05
4.0906e-05
2.47568e-05
1.56069e-05
4.1046e-05
4.09996e-05
1.70418e-05
1.56491e-05
3.97029e-05
4.10246e-05
4.09723e-05
4.10429e-05
1.0173e-05
9.309e-06
4.09765e-05
4.08632e-05
4.10458e-05
4.10215e-05
4.08799e-05
4.09256e-05
4.09394e-05
4.09096e-05
4.1057e-05
9.43431e-06
4.05603e-05
2.79689e-05
9.78652e-06
8.95292e-06
2.48163e-05
4.09081e-05
3.31798e-05
4.08746e-05
4.0112e-05
4.0106e-05
1.51223e-05
8.95241e-06
1.64172e-05
1.50732e-05
3.84391e-05
4.10644e-05
4.05953e-05
4.10208e-05
4.08712e-05
4.10141e-05
8.61275e-06
7.86914e-06
4.08711e-05
4.05017e-05
4.0934e-05
4.10608e-05
4.08919e-05
7.8908e-06
4.08534e-05
1.45766e-05
8.22727e-06
7.51392e-06
1.6012e-05
1.46964e-05
4.0871e-05
4.10538e-05
4.10471e-05
4.09502e-05
7.40976e-06
4.10007e-05
7.5785e-06
6.91492e-06
4.09037e-05
4.08721e-05
4.10428e-05
4.0928e-05
4.08932e-05
7.18874e-06
6.55588e-06
1.5367e-05
1.41009e-05
4.09501e-05
4.0881e-05
4.08615e-05
4.10638e-05
6.34828e-06
4.09946e-05
6.54076e-06
5.95801e-06
4.09692e-05
1.4095e-05
4.09602e-05
4.10139e-05
4.10168e-05
4.08965e-05
4.09483e-05
4.10606e-05
5.86123e-06
6.15126e-06
5.59896e-06
4.10232e-05
1.35788e-05
4.0799e-05
4.10304e-05
1.49714e-05
1.37363e-05
4.09299e-05
4.08899e-05
4.08763e-05
4.80427e-06
4.07079e-05
4.96495e-06
4.50243e-06
1.30338e-05
1.43316e-05
1.31457e-05
2.03079e-05
2.20411e-05
4.09208e-05
4.58628e-06
4.15429e-06
4.06717e-05
4.30149e-06
4.0342e-05
4.10191e-05
2.16796e-05
2.36041e-05
4.09528e-05
2.66116e-05
3.91278e-05
4.0079e-05
3.90468e-06
3.52139e-06
2.44963e-05
3.62983e-05
4.10115e-05
4.08535e-05
4.09168e-05
4.08881e-05
1.25517e-05
2.04136e-06
1.81405e-06
4.09322e-05
1.39344e-05
1.27796e-05
3.53416e-06
3.1832e-06
4.1019e-05
4.08475e-05
4.08839e-05
4.08758e-05
4.10155e-05
3.2498e-06
1.20025e-05
4.09058e-05
4.09317e-05
1.32945e-05
1.21891e-05
4.10667e-05
4.09265e-05
4.10015e-05
4.0987e-05
2.21216e-06
1.94953e-06
4.08219e-05
4.09439e-05
4.09778e-05
4.09428e-05
4.09411e-05
4.10023e-05
4.08587e-05
1.2897e-05
1.18225e-05
4.05435e-05
4.10219e-05
4.09194e-05
3.92892e-05
4.0363e-05
1.15244e-05
4.10261e-05
4.1069e-05
1.1007e-05
2.46209e-05
2.68316e-06
2.3628e-05
1.22561e-05
1.12313e-05
4.09821e-05
9.09921e-07
4.10482e-05
3.81635e-05
4.07838e-05
3.91176e-05
4.10709e-05
1.04599e-05
4.09165e-05
1.18578e-05
1.08637e-05
4.08929e-05
2.34322e-05
4.09e-05
1.12144e-05
1.02697e-05
4.00153e-05
3.60099e-05
4.09074e-05
9.98216e-06
4.0924e-05
9.46406e-06
6.0198e-07
4.0951e-07
4.07985e-05
4.08832e-05
1.07026e-05
9.79894e-06
4.09815e-05
4.09069e-05
4.09333e-05
4.08863e-05
4.08998e-05
4.10557e-05
8.91635e-06
4.09624e-05
1.03074e-05
9.43342e-06
3.95323e-05
4.10583e-05
4.10233e-05
4.10252e-05
4.10076e-05
4.09991e-05
4.10045e-05
9.65163e-06
8.82733e-06
4.0972e-05
8.4379e-06
4.09223e-05
4.10307e-05
1.35621e-06
7.92107e-06
4.06105e-05
9.14474e-06
8.36151e-06
4.05583e-05
4.0016e-05
4.07267e-05
4.10296e-05
4.10237e-05
4.10017e-05
4.09117e-05
7.37524e-06
4.07775e-05
4.03088e-05
8.75052e-06
7.99682e-06
3.82097e-05
4.41798e-05
4.07003e-05
4.10483e-05
4.05655e-05
4.09364e-05
8.09753e-06
7.39355e-06
4.09631e-05
4.05531e-05
6.89374e-06
4.08875e-05
4.06545e-05
4.06683e-05
6.37381e-06
7.70692e-06
7.0338e-06
2.44987e-05
4.07858e-05
4.07614e-05
4.09576e-05
4.06555e-05
4.10093e-05
2.32345e-05
3.20104e-05
4.10205e-05
4.09151e-05
5.83224e-06
7.06421e-06
6.441e-06
4.09639e-05
4.09171e-05
4.10507e-05
4.10641e-05
4.09388e-05
4.08551e-05
4.09307e-05
6.67017e-06
6.07759e-06
3.9113e-05
3.61372e-05
5.34488e-06
3.99163e-05
4.07996e-05
4.07129e-05
4.10224e-05
3.19059e-05
4.81991e-06
4.09701e-05
6.01878e-06
5.47589e-06
4.06984e-05
4.10273e-05
4.28523e-06
5.50645e-06
5.00458e-06
4.08484e-05
3.10148e-05
3.8532e-05
4.09038e-05
4.09163e-05
4.10427e-05
5.11452e-06
4.6421e-06
2.2351e-05
4.09628e-05
4.07096e-05
4.09568e-05
4.08891e-05
3.77168e-06
4.06529e-05
4.43846e-06
4.01511e-06
4.10315e-05
4.09066e-05
3.23134e-06
4.07388e-05
4.098e-05
2.67441e-05
4.05926e-06
3.66751e-06
4.09656e-05
4.09476e-05
4.07056e-05
2.73545e-06
4.0646e-05
8.95341e-07
8.63441e-07
9.75008e-07
4.05934e-05
3.36865e-06
3.02555e-06
2.17075e-05
4.09151e-05
4.07996e-05
4.096e-05
4.06296e-05
4.09245e-05
4.09231e-05
4.08724e-05
2.82316e-06
2.52145e-06
4.08655e-05
3.9509e-05
4.08384e-05
3.28921e-05
2.50716e-06
2.23802e-06
4.08279e-05
4.09119e-05
2.4881e-05
4.0886e-05
4.08717e-05
4.08692e-05
4.06753e-05
2.86703e-05
4.07235e-05
3.61163e-05
4.08958e-05
2.31936e-05
4.102e-05
4.09004e-05
4.07471e-05
4.10684e-05
3.90516e-05
3.77396e-05
3.86e-05
3.57108e-05
4.06514e-05
4.10258e-05
2.12366e-06
4.08585e-05
4.0876e-05
1.6777e-06
1.4583e-06
2.47862e-05
9.02773e-07
4.09513e-05
3.76025e-05
4.10013e-05
4.06152e-05
4.10152e-05
4.08066e-05
3.89906e-05
2.37779e-05
4.1063e-05
4.07895e-05
4.04413e-05
4.02387e-05
4.0895e-05
4.10124e-05
4.10479e-05
2.67639e-05
1.48012e-06
2.59133e-05
3.93871e-05
4.07967e-05
1.12974e-06
4.94161e-07
6.35297e-07
4.09964e-05
4.10409e-05
4.08013e-05
4.1047e-05
4.06385e-05
2.45274e-05
1.38161e-06
1.44844e-06
1.29382e-06
4.08094e-05