/*--------------------------------*- C++ -*----------------------------------*\
  =========                 |
  \\      /  F ield         | OpenFOAM: The Open Source CFD Toolbox
   \\    /   O peration     | Website:  https://openfoam.org
    \\  /    A nd           | Version:  8
     \\/     M anipulation  |
\*---------------------------------------------------------------------------*/
FoamFile
{
    version     2.0;
    format      ascii;
    class       volScalarField;
    location    "8";
    object      p;
}
// * * * * * * * * * * * * * * * * * * * * * * * * * * * * * * * * * * * * * //

dimensions      [0 2 -2 0 0 0 0];

internalField   nonuniform List<scalar> 
5119
(
3.80063e-06
1.03196e-05
1.025e-05
9.87862e-06
4.47235e-06
1.03092e-05
1.02944e-05
1.03087e-05
9.45296e-06
1.76285e-06
9.88247e-06
1.83887e-06
4.7963e-06
1.0098e-05
3.34802e-06
5.95542e-06
6.86112e-06
9.80689e-07
2.50052e-06
2.59222e-06
5.97465e-06
5.24222e-06
3.44583e-06
1.6151e-06
6.36777e-06
5.64465e-06
3.535e-06
3.56217e-06
3.5868e-06
9.43171e-07
1.24472e-06
2.50611e-06
5.81242e-06
3.3036e-06
3.94663e-06
9.96909e-07
9.76963e-07
9.91988e-07
4.28602e-06
7.63147e-06
1.02834e-05
4.47064e-06
7.02781e-06
7.06082e-06
7.44661e-06
1.0292e-05
7.81756e-06
7.47702e-06
7.44751e-06
6.61616e-06
1.01818e-05
9.91999e-06
1.04724e-05
1.03057e-05
1.01535e-05
7.83631e-06
9.91493e-06
1.03116e-05
5.35607e-06
7.98218e-06
7.29798e-06
7.01706e-06
7.85859e-06
7.40458e-06
1.02982e-05
8.18538e-06
1.01725e-05
9.97325e-06
7.86102e-06
1.00978e-05
1.02171e-05
1.03144e-05
1.01562e-05
7.87795e-06
6.62606e-06
7.60151e-06
1.03127e-05
1.02804e-05
8.12644e-06
8.04239e-06
9.6206e-06
9.97417e-06
9.26384e-07
4.16248e-07
1.02954e-05
6.75332e-07
1.02825e-05
7.16203e-06
4.39013e-07
4.43663e-07
4.44396e-07
4.24118e-07
1.031e-05
9.85144e-06
8.03549e-06
9.94387e-06
1.04303e-05
8.09457e-06
9.90342e-06
9.16513e-07
5.88398e-06
5.90092e-06
9.11827e-06
7.94132e-06
1.03117e-05
1.032e-05
8.39285e-06
1.02345e-05
9.98622e-06
1.02966e-05
9.15504e-06
1.03187e-05
1.03155e-05
1.7405e-06
1.03065e-05
9.98735e-06
9.86945e-06
1.03186e-05
1.00644e-05
7.60371e-07
1.0175e-05
3.81584e-06
9.41029e-06
5.40817e-06
6.29501e-06
2.86141e-06
5.44245e-06
5.11897e-06
1.96842e-06
3.94965e-06
5.84055e-06
1.49538e-06
1.49151e-06
3.00193e-06
1.02856e-05
1.02221e-05
9.05651e-06
2.94812e-06
1.02398e-05
3.64992e-06
5.31997e-06
7.16662e-06
4.80968e-06
3.80777e-06
3.95156e-06
3.93043e-06
1.53663e-06
1.56789e-06
1.55692e-06
9.77753e-06
8.60623e-06
1.02769e-05
8.26838e-06
9.86609e-06
9.96396e-06
7.46975e-07
9.96782e-06
1.04245e-05
1.02655e-05
9.77372e-06
8.51348e-06
1.03278e-05
1.02718e-05
8.05399e-06
1.03166e-05
1.0142e-05
1.0318e-05
1.03131e-05
1.03142e-05
9.99166e-06
1.02115e-05
8.1616e-06
1.00627e-05
1.01447e-05
1.00139e-05
1.01352e-05
1.02411e-05
2.7295e-06
1.03216e-05
4.12563e-06
1.01893e-05
1.01732e-05
8.05553e-06
7.98634e-06
1.0316e-05
9.92435e-06
1.03097e-05
1.02455e-05
1.01961e-05
1.02999e-05
9.75824e-06
8.85468e-06
8.1144e-06
1.00723e-05
1.03058e-05
9.78777e-06
1.02979e-05
1.01693e-05
9.40008e-06
1.02862e-05
1.03141e-05
8.3007e-06
1.03152e-05
1.72281e-06
3.12504e-06
3.85202e-06
5.30762e-06
8.60956e-06
1.01857e-05
1.00296e-05
1.0281e-05
7.60506e-06
1.01405e-05
7.69234e-06
1.02375e-05
1.01701e-05
1.02379e-05
7.64013e-06
9.98864e-06
1.02475e-05
8.15154e-06
9.97557e-06
1.03232e-05
8.42293e-06
9.98303e-06
9.86887e-06
1.03135e-05
1.02833e-05
4.95295e-06
1.98301e-06
1.03267e-05
2.46307e-06
5.93032e-06
5.09271e-06
4.57984e-06
1.01978e-05
6.6642e-06
7.20383e-06
1.01932e-05
9.16005e-06
1.0056e-05
1.02799e-05
9.90177e-06
8.66578e-06
3.08781e-06
2.03669e-06
5.12229e-06
1.02006e-05
5.8921e-06
2.86408e-06
5.46583e-06
6.35885e-06
7.01347e-06
2.69789e-06
2.96273e-06
6.44001e-06
2.97955e-06
2.95211e-06
3.31549e-06
1.00906e-05
1.0256e-05
1.0228e-05
9.44652e-06
6.67665e-06
4.49923e-06
4.52522e-06
4.69504e-06
5.43251e-06
1.0238e-05
7.36542e-06
1.02089e-05
1.03025e-05
1.36032e-06
5.48401e-06
1.71156e-06
1.04072e-05
8.68896e-06
6.82838e-06
8.84344e-07
6.35832e-06
7.02474e-06
2.92279e-06
2.90786e-06
6.43086e-06
2.88464e-06
2.51851e-06
3.19182e-06
5.46932e-06
9.75274e-07
1.82985e-06
6.62639e-06
2.77711e-06
5.85546e-06
1.02883e-05
3.03682e-06
5.95148e-06
7.53255e-06
1.0125e-05
1.0333e-05
8.29722e-06
9.63353e-06
5.17949e-06
9.95734e-06
1.03306e-05
1.0075e-05
1.0159e-05
1.04001e-05
1.28266e-06
9.96303e-06
8.378e-06
1.36733e-06
5.42477e-06
4.60234e-06
4.64948e-06
5.06609e-06
4.62774e-06
1.03149e-05
1.03075e-05
5.53928e-06
5.53242e-06
9.86745e-06
7.96749e-06
3.15718e-06
1.03103e-05
9.85073e-06
8.95852e-06
9.93913e-06
2.63943e-06
4.36002e-06
1.00195e-05
4.86819e-06
4.3347e-06
8.80028e-06
1.02271e-05
1.03265e-05
3.77053e-06
5.84697e-06
6.81306e-06
1.08382e-06
2.27397e-06
5.88303e-06
2.55488e-06
9.88078e-06
5.60549e-06
6.2589e-06
3.49764e-06
1.56811e-06
1.01911e-06
1.00038e-05
9.93633e-06
4.18744e-06
4.36235e-06
4.32352e-06
4.14085e-06
5.16579e-06
5.07656e-06
3.92787e-06
3.76554e-06
3.36393e-06
6.06123e-06
2.56403e-06
2.42128e-06
2.4453e-06
6.39951e-06
2.30893e-06
2.46031e-06
2.16563e-06
1.90508e-06
2.02034e-06
2.03193e-06
1.98064e-06
1.78741e-06
6.76338e-06
7.11947e-06
9.95913e-06
1.00053e-05
1.01701e-05
1.00812e-05
2.88025e-06
1.03541e-05
9.81557e-06
1.02674e-05
7.9042e-06
2.46196e-06
8.10167e-06
8.55598e-06
1.03035e-05
2.4166e-06
3.2409e-06
5.70123e-06
1.0138e-05
1.02819e-05
8.66798e-06
1.02481e-05
7.55076e-06
5.16859e-06
3.41696e-06
3.57188e-06
3.55442e-06
1.01599e-05
7.02986e-06
1.0258e-05
1.03037e-05
8.76548e-06
4.15744e-06
9.84274e-06
9.51485e-06
1.032e-05
1.00356e-05
9.78566e-06
8.19423e-06
1.98976e-06
3.53543e-06
1.08023e-06
1.064e-06
1.08106e-06
9.50992e-06
4.99282e-06
5.75082e-06
1.02267e-05
1.02478e-05
6.71043e-06
1.00451e-05
1.02126e-05
1.02139e-05
9.99657e-06
1.01834e-05
4.86701e-06
4.58441e-07
1.03398e-05
8.66903e-06
4.86033e-06
6.81815e-06
1.01572e-05
1.0036e-05
1.01625e-05
9.11307e-06
8.38558e-06
1.03193e-05
1.0234e-05
9.61735e-06
1.01132e-05
9.80521e-06
6.16353e-07
6.47387e-07
6.50135e-07
6.38224e-07
1.02573e-05
9.71838e-06
6.89468e-06
9.41937e-06
1.03317e-05
4.41678e-06
5.76404e-06
3.03052e-06
2.74005e-06
2.57797e-06
2.47374e-06
2.60388e-06
2.61976e-06
6.75823e-06
6.61528e-06
2.15313e-06
6.49245e-06
1.01872e-05
1.03229e-05
4.30104e-06
8.86173e-07
3.96381e-06
4.19814e-06
4.12075e-06
4.00224e-06
5.37213e-06
5.28985e-06
3.75515e-06
3.56378e-06
3.18329e-06
6.27677e-06
2.35904e-06
2.23046e-06
2.19896e-06
2.24334e-06
6.62948e-06
2.10097e-06
1.98585e-06
1.72695e-06
1.84362e-06
1.83065e-06
1.80086e-06
1.60573e-06
6.92446e-06
7.36707e-06
1.03145e-05
9.7925e-06
1.03086e-05
8.41525e-06
8.40871e-06
1.03079e-05
1.03464e-05
1.01604e-05
9.87316e-06
1.02856e-05
9.11934e-06
9.58322e-06
1.01815e-05
6.39962e-07
1.0042e-05
4.16672e-06
8.90062e-06
2.36195e-07
2.77249e-07
2.81467e-07
9.87344e-06
2.19367e-06
6.29547e-06
5.59367e-06
9.92775e-06
1.01209e-05
1.02863e-05
1.00382e-05
4.131e-06
1.86371e-06
1.03283e-05
8.71704e-06
9.73717e-06
4.76744e-06
5.96867e-06
4.79496e-06
1.02871e-05
8.54688e-06
7.94554e-06
6.71997e-07
9.09809e-06
5.84079e-06
6.05316e-06
1.02914e-05
1.02894e-05
8.41162e-06
9.92968e-06
1.9762e-06
6.27462e-06
5.6188e-06
7.84042e-06
5.25051e-06
4.53503e-06
4.46571e-06
4.42428e-06
9.91855e-06
9.8949e-06
6.43987e-06
1.00179e-05
8.36703e-06
1.02766e-05
1.02632e-05
1.03512e-05
7.09587e-06
2.22651e-06
7.71462e-06
9.91198e-06
4.60169e-06
9.80959e-06
1.03238e-05
9.88727e-06
9.16181e-06
1.03522e-05
1.0321e-05
1.00982e-05
2.43477e-06
1.02408e-05
9.07352e-06
9.522e-06
5.05362e-06
1.02519e-05
1.0327e-05
1.01454e-05
8.72077e-06
9.81822e-06
1.02553e-05
1.0258e-05
1.03014e-05
1.83331e-07
1.83148e-07
1.84619e-07
9.22078e-06
1.00504e-05
1.00803e-05
1.03407e-05
1.02744e-05
4.11152e-06
3.69777e-06
1.0327e-05
1.03105e-05
1.03343e-05
8.4807e-06
1.00824e-05
1.02256e-05
6.42896e-06
6.56646e-06
2.73608e-06
2.71989e-06
2.71277e-06
3.15648e-06
5.56564e-06
2.89372e-06
2.61952e-06
8.34825e-06
1.03347e-05
9.45233e-06
1.02956e-05
1.02737e-05
6.05389e-06
1.02626e-05
9.93211e-06
7.51475e-06
9.34059e-06
1.02854e-05
1.01244e-05
1.03342e-05
8.89573e-06
1.0274e-05
1.02396e-05
1.02296e-05
9.9025e-06
1.02982e-05
5.92392e-06
4.77534e-06
9.35903e-06
1.03364e-05
1.02227e-05
1.02301e-05
1.02567e-05
1.01061e-05
8.77489e-06
4.58706e-06
1.3314e-06
1.00351e-05
8.97376e-06
1.38651e-06
5.14343e-06
1.25905e-06
6.02305e-06
3.16928e-06
3.18672e-06
6.64435e-06
6.10825e-06
2.91871e-06
3.14666e-06
3.49031e-06
1.01387e-05
7.46159e-06
9.95082e-06
4.46242e-07
1.03056e-05
1.02301e-05
9.94088e-06
1.03162e-05
1.03409e-05
4.7238e-07
1.02075e-05
1.032e-05
7.08874e-06
1.44473e-06
7.46223e-06
9.19815e-06
1.03461e-05
8.6259e-06
9.72227e-06
1.03245e-05
9.90055e-06
6.13768e-07
9.76219e-07
1.02473e-05
1.02814e-05
9.21453e-06
9.79094e-06
1.03142e-05
9.11567e-06
1.02249e-05
1.02982e-05
9.9289e-06
4.81767e-06
1.4902e-06
2.87535e-06
3.61367e-06
5.32043e-06
1.02835e-05
2.25593e-07
2.15772e-07
2.62982e-07
9.20255e-06
1.02576e-05
1.03389e-05
6.05179e-06
1.02554e-05
7.19262e-06
2.36176e-07
2.60962e-07
1.02971e-05
7.95397e-07
2.21488e-06
6.29683e-06
3.0824e-06
5.55801e-06
6.50386e-06
9.97951e-06
5.443e-06
1.03249e-05
1.02768e-05
1.00678e-05
1.03235e-05
1.01651e-05
1.03107e-05
9.90514e-06
9.92519e-06
7.47168e-06
1.01334e-05
8.90765e-06
8.86041e-06
8.34874e-06
1.02837e-05
1.01105e-05
8.29813e-06
1.02432e-05
7.44828e-06
1.00511e-05
1.03017e-05
1.68515e-06
9.95307e-06
9.49969e-06
1.03341e-05
1.00826e-05
8.91083e-06
1.00551e-05
9.92911e-06
1.02283e-05
2.01923e-07
2.06725e-07
2.11572e-07
2.42835e-07
1.94601e-07
1.03022e-05
1.0064e-05
8.3185e-06
1.03144e-05
1.03165e-05
1.03338e-05
1.01822e-05
9.96419e-06
9.6665e-06
4.3969e-06
4.363e-06
4.41988e-06
4.79203e-06
4.42768e-06
4.73224e-06
1.03262e-05
1.02038e-05
3.89339e-06
4.04929e-06
4.47586e-06
4.78228e-06
4.87276e-06
4.93421e-06
5.18678e-06
5.10064e-06
3.76459e-06
3.47898e-06
5.74494e-06
2.74089e-06
2.56484e-06
2.4551e-06
2.28219e-06
6.13114e-06
2.57158e-06
2.58794e-06
2.56845e-06
2.11403e-06
2.14995e-06
2.1362e-06
6.47638e-06
2.00758e-06
1.89507e-06
6.5927e-06
1.65306e-06
7.20713e-06
7.03329e-06
7.12834e-06
4.50648e-06
4.43704e-06
4.45743e-06
4.26801e-06
4.67796e-06
1.02885e-05
8.60246e-06
1.0325e-05
3.34202e-06
1.07186e-05
1.03158e-05
1.03142e-05
1.02683e-05
4.72964e-06
4.77442e-06
4.4835e-06
1.03359e-05
1.00393e-05
1.03004e-05
1.02833e-05
1.03265e-05
7.69856e-06
9.57188e-06
1.01826e-05
9.23369e-06
1.00021e-05
9.91225e-06
9.56371e-06
1.01666e-05
1.03251e-05
1.02921e-05
4.4734e-06
1.02503e-05
1.01068e-05
1.02507e-05
3.4706e-07
3.4418e-07
3.30452e-07
1.03232e-05
9.92751e-06
1.01636e-05
1.03346e-05
8.94496e-06
1.03039e-05
5.77338e-06
1.0219e-05
1.02492e-05
1.02883e-05
9.36641e-06
9.79509e-06
9.59411e-06
1.03198e-05
1.03163e-05
1.01253e-05
7.37582e-06
1.00643e-05
4.23442e-06
4.23186e-06
8.34329e-06
9.20792e-06
1.02916e-05
1.02558e-05
1.02824e-05
1.03437e-05
8.7757e-06
1.02965e-05
1.03636e-05
9.57065e-06
1.03093e-05
9.94412e-06
4.2186e-06
4.18917e-06
5.19055e-06
4.02242e-06
5.17452e-06
5.0237e-06
4.86022e-06
5.58267e-06
3.48684e-06
3.24894e-06
3.19253e-06
6.06116e-06
2.52748e-06
1.73123e-06
1.84593e-06
1.80964e-06
1.86167e-06
2.06866e-06
6.88798e-06
6.75647e-06
9.85685e-06
7.10875e-06
5.3217e-06
6.50152e-06
1.0315e-05
1.03135e-05
8.8906e-06
9.92827e-06
1.00078e-05
1.02218e-05
9.65554e-06
8.0915e-06
9.81924e-06
4.52482e-06
9.04959e-06
1.02023e-05
7.93645e-06
9.86412e-06
1.01893e-05
8.52293e-06
9.95496e-06
5.97131e-06
7.15159e-06
9.49048e-06
9.94362e-06
9.69846e-06
9.28855e-06
9.00142e-06
9.63863e-06
9.80447e-06
1.03319e-05
9.55359e-06
1.01867e-05
9.78583e-06
1.02236e-05
9.81534e-06
9.66412e-06
7.18349e-06
5.0175e-06
1.01951e-05
9.47995e-06
9.90323e-06
1.02142e-05
6.90646e-06
8.95035e-06
7.20997e-06
1.02934e-05
9.77929e-06
8.26511e-06
9.77038e-06
9.77543e-06
1.03267e-05
9.95796e-06
8.77672e-06
1.03314e-05
8.52894e-06
4.74001e-06
5.13632e-06
5.24207e-06
3.32425e-06
3.54376e-06
3.07327e-06
5.59576e-06
2.99019e-06
3.01399e-06
6.25877e-06
3.10008e-06
3.07978e-06
6.32211e-06
6.69714e-06
6.05458e-06
2.28862e-06
1.03215e-05
9.97876e-06
9.82757e-06
9.53575e-06
9.9984e-06
9.72019e-06
1.01559e-05
8.94864e-06
4.48088e-06
1.03118e-05
4.75529e-06
4.73844e-06
8.20758e-06
4.52235e-06
1.03235e-05
1.03113e-05
6.27695e-06
9.8619e-06
1.0243e-05
6.69011e-06
6.75862e-06
6.61887e-06
7.23792e-06
1.01868e-05
1.03063e-05
7.23046e-06
6.69792e-06
7.01426e-06
1.00813e-05
9.81902e-06
1.04805e-05
1.0309e-05
9.94645e-06
9.75666e-06
1.03455e-05
6.41254e-06
7.37176e-06
1.01467e-05
1.0316e-05
1.02556e-05
1.02975e-05
8.28588e-06
1.0311e-05
6.29141e-06
8.2045e-06
1.02176e-05
2.04687e-06
1.02096e-05
9.68112e-06
1.02337e-05
7.52074e-06
1.02373e-05
9.82743e-06
5.37849e-06
5.28103e-06
3.72713e-06
3.67098e-06
3.16354e-06
6.29065e-06
2.50399e-06
2.32453e-06
2.33091e-06
6.62248e-06
2.34564e-06
2.20252e-06
2.0724e-06
1.69055e-06
1.81951e-06
1.8103e-06
1.7899e-06
1.54529e-06
6.83481e-06
7.35963e-06
4.20336e-06
4.07804e-06
4.23489e-06
3.96224e-06
1.02886e-05
1.02679e-05
8.67686e-06
1.02786e-05
1.00344e-05
1.0068e-05
1.02311e-05
1.02987e-05
1.01452e-05
6.22445e-07
1.02763e-05
5.83106e-06
3.006e-06
2.9199e-06
2.71245e-06
2.62392e-06
2.71812e-06
2.73561e-06
6.73032e-06
6.56291e-06
1.03152e-05
2.5475e-06
6.85642e-06
4.70199e-06
1.02168e-05
9.88609e-06
9.97753e-06
1.01058e-05
1.00335e-05
1.01678e-05
1.03058e-05
1.02027e-05
1.01303e-05
9.63835e-06
1.02315e-05
1.91387e-06
1.01472e-05
1.03275e-05
4.03708e-06
4.05722e-06
4.88142e-06
4.94878e-06
4.54018e-06
1.01624e-05
1.03124e-05
1.00106e-05
1.02204e-05
4.47102e-06
9.72657e-06
1.03323e-05
1.01869e-05
9.93608e-06
1.0985e-06
1.08255e-06
1.10416e-06
3.85128e-06
9.96004e-06
1.01926e-05
1.02924e-05
8.45482e-06
8.97172e-06
9.64893e-06
1.02986e-05
1.03163e-05
9.96381e-06
1.02886e-05
1.02037e-05
9.82805e-06
1.03274e-05
4.9251e-06
1.0283e-05
1.03127e-05
1.00644e-05
1.0282e-05
9.83887e-06
6.54899e-06
9.27408e-06
1.03197e-05
1.01408e-05
4.23433e-06
1.01845e-05
4.78036e-06
9.62897e-06
1.02542e-05
9.55734e-06
8.40995e-06
1.00533e-05
4.50947e-06
4.67284e-06
4.50545e-06
1.00524e-05
1.02321e-05
1.02305e-05
9.71511e-06
9.80419e-06
1.01511e-05
9.93905e-06
4.68146e-06
4.703e-06
4.63347e-06
8.11463e-06
1.02877e-05
1.02376e-05
1.00623e-05
9.74664e-06
1.03313e-05
9.83878e-06
9.99398e-06
9.79084e-06
1.03137e-05
1.02477e-05
1.01782e-05
1.03294e-05
1.01141e-05
1.00167e-05
9.63363e-06
1.01575e-05
1.02072e-05
4.69471e-06
4.73557e-06
7.63793e-06
1.00431e-05
1.0296e-05
9.76995e-06
1.03315e-05
1.0008e-05
9.56135e-06
1.01701e-05
4.11474e-06
1.02262e-05
8.03056e-06
1.03642e-05
1.03228e-05
9.89846e-06
1.02354e-05
9.95403e-06
1.03214e-05
1.00003e-05
1.02871e-05
1.02566e-05
1.01168e-05
1.0303e-05
4.63066e-06
4.5677e-06
4.6524e-06
9.81455e-06
1.01737e-05
1.02502e-05
1.02858e-05
1.02432e-05
1.03356e-05
9.76922e-06
1.00172e-05
9.6518e-06
1.35094e-06
3.26652e-06
2.46159e-06
5.79834e-06
1.03163e-05
1.03244e-05
1.0191e-05
1.03106e-05
9.97079e-06
1.03228e-05
1.03163e-05
1.03181e-05
1.01686e-05
7.50711e-06
1.03169e-05
1.02536e-05
1.01573e-05
1.35594e-06
1.33768e-06
1.36381e-06
7.36194e-06
1.03052e-05
1.03073e-05
1.02777e-05
1.03092e-05
1.03085e-05
9.80696e-06
1.02038e-05
1.02548e-05
9.72707e-06
1.01336e-05
4.56767e-06
9.99544e-06
1.02952e-05
1.03211e-05
4.34518e-06
1.02629e-05
9.83541e-06
1.02004e-05
9.99782e-06
9.021e-06
1.02875e-05
1.00064e-05
1.03132e-05
1.01535e-05
1.0302e-05
1.02307e-05
9.33982e-06
1.02314e-05
1.03049e-05
1.02696e-05
1.01752e-05
1.02586e-05
9.90649e-06
1.02818e-05
9.85277e-06
1.03024e-05
4.44839e-06
3.47295e-06
5.24658e-06
1.84128e-06
2.59203e-06
2.42631e-06
5.86551e-06
1.10224e-06
5.90722e-06
6.85262e-06
1.01581e-05
1.02313e-05
1.02928e-05
1.03228e-05
9.39021e-06
9.69834e-06
1.0158e-05
1.02774e-05
1.03154e-05
9.90651e-06
1.02517e-05
9.1339e-06
9.97982e-06
1.02006e-05
3.07413e-06
3.09177e-06
5.28675e-06
6.16958e-06
4.84752e-06
3.42161e-06
3.0712e-06
6.23429e-06
2.02753e-06
6.77789e-06
2.82467e-06
1.14929e-06
1.27105e-06
1.00582e-05
1.02567e-05
1.03072e-05
1.02976e-05
1.01936e-05
1.0079e-05
9.98804e-06
9.22541e-06
9.68772e-06
8.13735e-06
1.00375e-05
1.03256e-05
1.04498e-05
1.03269e-05
9.51161e-06
1.00861e-05
1.02792e-05
1.02363e-05
9.1646e-06
3.51484e-07
1.0307e-05
6.48868e-06
1.02842e-05
9.7273e-06
7.99637e-06
1.03128e-05
1.03149e-05
1.03293e-05
7.43861e-06
9.95964e-06
1.01864e-05
1.02957e-05
8.86632e-06
1.00657e-05
9.74793e-06
1.03304e-05
1.01734e-05
1.00889e-05
9.58601e-06
9.81761e-06
9.70543e-06
1.03264e-05
9.81649e-06
1.01313e-05
1.01399e-05
1.02318e-05
9.71605e-06
1.02829e-05
1.02288e-05
1.02922e-05
1.02726e-05
1.01019e-05
5.34274e-07
5.26976e-07
5.11282e-07
5.37195e-07
5.42651e-07
8.3889e-06
1.02147e-05
9.62453e-06
1.01506e-05
2.73793e-07
2.58428e-07
9.84335e-06
7.24764e-06
1.03193e-05
1.01623e-05
1.0234e-05
9.92522e-06
8.70128e-06
3.66315e-06
1.03333e-05
1.00879e-05
1.02667e-05
1.03227e-05
1.01724e-05
1.00233e-05
5.44492e-06
1.02956e-05
9.83953e-06
9.76829e-06
9.83031e-06
1.02178e-05
9.71478e-06
9.79414e-06
1.04481e-06
5.32122e-06
1.01759e-05
3.49739e-06
3.53466e-06
3.5553e-06
5.6717e-06
1.57342e-06
6.35335e-06
1.03243e-05
9.95109e-06
1.03005e-05
9.73839e-06
1.01842e-05
1.00442e-05
2.10853e-06
2.98914e-06
5.71481e-06
6.4651e-06
4.4047e-06
9.7717e-06
1.03076e-05
9.34418e-06
4.82606e-06
4.85077e-06
4.44377e-06
4.28373e-06
1.03326e-05
9.79479e-06
1.02455e-05
9.70917e-06
3.13448e-06
1.03085e-05
1.04214e-05
9.91205e-06
9.78177e-06
1.02311e-05
9.75987e-06
2.33407e-07
9.85735e-06
1.02267e-05
1.03223e-05
1.02949e-05
1.00675e-05
1.02174e-05
4.44735e-06
9.72299e-06
1.02494e-05
1.14971e-06
1.02109e-05
1.01401e-05
2.39865e-07
2.27053e-07
2.39861e-07
2.38265e-07
2.34744e-07
1.03227e-05
1.03128e-05
1.02971e-05
6.19436e-06
1.00679e-05
9.67575e-06
9.62425e-06
9.94005e-06
1.01996e-05
1.02723e-05
1.02871e-05
1.03336e-05
1.03079e-05
1.02973e-05
1.03246e-05
1.02975e-05
9.82292e-06
1.02603e-05
9.97327e-06
1.02375e-05
9.04484e-06
7.74625e-06
1.02938e-05
9.87776e-06
7.73116e-06
1.02958e-05
6.59677e-06
4.65302e-06
1.03281e-05
1.03167e-05
1.00911e-05
3.32432e-06
7.79757e-06
1.03213e-05
9.90596e-06
9.53924e-06
1.02171e-05
1.01127e-05
1.02465e-05
1.0319e-05
9.92652e-06
1.03223e-05
1.02707e-05
1.02688e-05
1.03197e-05
1.03011e-05
1.03348e-05
4.32516e-06
1.01758e-05
9.82674e-06
1.032e-05
9.88649e-06
1.02351e-05
9.94122e-06
1.02942e-05
9.47252e-06
9.86227e-06
4.38217e-06
1.01762e-05
9.72e-06
1.03582e-05
1.03196e-05
9.91522e-06
1.00916e-05
1.03191e-05
1.00897e-05
9.15722e-06
1.01227e-05
1.02617e-05
9.84636e-06
4.80262e-06
1.03209e-05
1.01533e-05
1.03203e-05
1.02698e-05
1.03082e-05
1.03242e-05
1.03018e-05
1.02007e-05
3.51055e-06
5.52004e-06
2.74616e-06
1.60358e-06
6.6788e-06
1.00449e-05
8.72022e-06
8.46367e-06
9.75813e-06
9.83924e-06
1.03118e-05
1.02986e-05
9.40574e-06
1.00957e-05
4.28466e-06
4.3122e-06
1.01072e-05
2.05722e-07
2.1354e-07
1.03049e-05
4.61355e-06
1.01491e-05
9.96254e-06
1.03156e-05
1.02294e-05
1.03003e-05
7.22144e-06
1.03134e-05
1.02616e-05
1.02663e-05
5.47296e-06
1.06018e-05
1.03156e-05
1.00143e-05
1.00828e-05
1.02634e-05
1.01626e-05
7.83076e-06
9.91277e-06
9.96569e-06
1.03182e-05
7.73917e-06
8.14738e-06
9.67353e-06
1.02722e-05
1.03191e-05
1.01459e-05
9.85344e-06
1.01332e-05
9.79918e-06
1.03142e-05
9.76998e-06
9.58313e-06
8.1008e-06
2.70842e-07
1.00181e-05
1.03163e-05
7.90756e-06
1.03148e-05
9.98096e-06
1.01525e-05
9.66243e-06
9.89557e-06
1.00568e-05
1.03148e-05
1.00567e-05
7.80104e-06
9.54502e-06
9.01958e-06
1.03068e-05
9.6687e-06
4.69972e-06
9.93828e-06
9.30773e-06
9.79761e-06
1.03129e-05
1.03257e-05
9.27465e-07
9.15068e-07
9.1734e-07
5.87706e-06
1.02458e-05
6.01262e-06
1.02568e-05
3.99402e-06
1.03473e-05
9.84736e-06
1.01295e-05
1.00468e-05
1.02494e-05
9.71913e-06
8.12796e-06
9.93858e-06
9.845e-06
5.37318e-06
1.01786e-05
1.03256e-05
1.0303e-05
1.05594e-05
1.02349e-05
1.0318e-05
6.15716e-06
1.04112e-05
1.0136e-05
1.02628e-05
1.03374e-05
1.00785e-05
4.87149e-06
7.04187e-06
9.63607e-06
1.01203e-05
9.71607e-06
1.01609e-05
8.99599e-06
1.01134e-05
1.01148e-05
1.03256e-05
1.02457e-05
9.89823e-06
9.29054e-06
1.03274e-05
1.03149e-05
9.94377e-06
1.03174e-05
7.27695e-06
1.0296e-05
1.01312e-05
9.67189e-06
1.02072e-05
9.76471e-06
9.72086e-06
9.93068e-06
1.03068e-05
1.01311e-05
1.00676e-05
1.03132e-05
1.03251e-05
7.63958e-06
1.03217e-05
8.10059e-06
1.03202e-05
1.01149e-05
1.00038e-05
1.03165e-05
9.94544e-06
1.03279e-05
1.02379e-05
1.01974e-05
1.03199e-05
9.97369e-06
9.84559e-06
1.01191e-05
1.03329e-05
9.82857e-06
1.03147e-05
9.75321e-06
7.78848e-06
1.03238e-05
7.66978e-06
1.03545e-05
1.03245e-05
1.03142e-05
1.02948e-05
1.00078e-05
1.03037e-05
1.03226e-05
1.00572e-05
1.02601e-05
1.64269e-06
1.63206e-06
1.6088e-06
7.24109e-06
1.03133e-05
1.02748e-05
9.77163e-06
9.57091e-06
1.02808e-05
9.84961e-06
1.02987e-05
1.02784e-05
1.0609e-05
1.07188e-05
1.04095e-05
1.03301e-05
9.87227e-06
7.59273e-06
1.02193e-05
9.84808e-06
9.91715e-06
8.00511e-06
1.02482e-05
1.03259e-05
1.01948e-05
1.01719e-05
1.02133e-05
1.00794e-05
1.01085e-05
1.03132e-05
1.02965e-05
1.01693e-05
5.50207e-06
7.35298e-06
1.03146e-05
7.29218e-06
6.90285e-06
9.70814e-06
7.56818e-06
1.03269e-05
9.84398e-06
1.01139e-05
1.03117e-05
1.02784e-05
1.01018e-05
1.01271e-05
6.87069e-06
1.0304e-05
9.99811e-06
6.39859e-06
1.02146e-05
1.01688e-05
1.02321e-05
1.02633e-05
1.03103e-05
1.0052e-05
9.93606e-06
1.03599e-05
1.00923e-05
1.00768e-05
3.75854e-06
9.97561e-06
1.02569e-05
1.03232e-05
1.03034e-05
9.88721e-06
1.02214e-05
6.54167e-07
1.03837e-05
1.80207e-06
1.02999e-05
1.01308e-05
1.0289e-05
1.03251e-05
1.03186e-05
1.0086e-05
1.02155e-05
9.76064e-06
1.02742e-05
3.4052e-06
1.23421e-06
3.16482e-06
1.50353e-06
2.33001e-06
5.90469e-06
5.64462e-06
2.61085e-06
1.0279e-05
1.0245e-05
1.02753e-05
1.03057e-05
1.03164e-05
6.10233e-06
9.68375e-06
1.02978e-05
9.89871e-06
9.93991e-06
9.9567e-06
6.34956e-06
1.0321e-05
9.90473e-06
1.03322e-05
1.02029e-05
1.03007e-05
1.02881e-05
9.90008e-06
1.02802e-05
1.00952e-05
1.03196e-05
1.01149e-05
9.19951e-06
1.02977e-05
1.03395e-05
1.03262e-05
1.01814e-05
1.02412e-05
1.02065e-05
1.02999e-05
1.03077e-05
1.00172e-05
1.02558e-05
1.01042e-05
3.85418e-06
1.02982e-05
1.02324e-05
1.03008e-05
1.01938e-05
6.70541e-06
9.99962e-06
2.67165e-06
1.01862e-05
1.00611e-05
1.02881e-05
1.03336e-05
9.67422e-07
9.77211e-06
1.03274e-05
1.02278e-05
1.03256e-05
9.52775e-06
1.00499e-05
1.02756e-05
1.02658e-05
9.84879e-06
1.02609e-05
9.95411e-06
1.03221e-05
9.42045e-06
1.03087e-05
1.00636e-05
1.00728e-05
1.02693e-05
9.72504e-06
1.0052e-05
9.86099e-06
1.00224e-05
1.03186e-05
1.00916e-05
9.94623e-06
4.79027e-06
1.02966e-05
1.01111e-05
1.02994e-05
1.02315e-05
1.0318e-05
9.95184e-06
9.27332e-06
3.57216e-06
1.03095e-05
1.03209e-05
8.41536e-06
8.15981e-06
1.01941e-05
1.03055e-05
1.03031e-05
1.03269e-05
1.0425e-05
9.4523e-07
9.94284e-07
9.80097e-07
9.99535e-07
1.24674e-06
1.22333e-06
1.23988e-06
3.38054e-06
1.43417e-06
6.45943e-06
3.41799e-06
3.43831e-06
5.63172e-06
4.66822e-06
3.71824e-06
1.50553e-06
1.01596e-05
1.02214e-05
9.85632e-06
9.68666e-06
1.03223e-05
9.49419e-06
3.0858e-06
2.19272e-06
1.37249e-06
5.47556e-06
2.0116e-06
6.18634e-06
1.01369e-05
6.03121e-06
3.04149e-06
1.58106e-06
9.82247e-06
7.73293e-06
4.74835e-06
9.99861e-06
1.02959e-05
1.03214e-05
6.93527e-06
1.01267e-05
8.5233e-07
8.9582e-07
8.82775e-07
9.00469e-07
1.02736e-05
1.03238e-05
9.89832e-06
1.03348e-05
1.01271e-05
1.02947e-05
1.01228e-05
4.44335e-06
7.48838e-06
5.05471e-06
3.23735e-06
3.25426e-06
3.22184e-06
3.53238e-06
5.87856e-06
3.04948e-06
5.95463e-06
6.50972e-06
2.26345e-06
1.37122e-06
1.13623e-06
1.02885e-05
1.01104e-05
9.75648e-06
1.03185e-05
1.024e-05
8.07513e-06
9.81128e-06
1.00665e-05
3.22504e-06
5.39826e-06
6.11647e-06
2.34943e-06
2.17771e-06
8.94968e-07
1.02965e-05
9.93238e-06
1.01096e-05
1.03394e-05
1.02749e-05
1.03049e-05
1.03193e-05
9.85303e-06
6.60231e-06
1.02937e-05
6.76017e-06
1.02355e-05
1.00444e-05
1.02979e-05
1.03345e-05
1.0109e-05
1.03316e-05
1.0331e-05
1.02452e-05
1.00044e-05
1.03223e-05
9.80038e-06
1.014e-05
1.0323e-05
1.03165e-05
1.02719e-05
1.03153e-05
1.03259e-05
1.03235e-05
1.00761e-05
6.92884e-06
9.86316e-06
1.03005e-05
9.81766e-06
9.87411e-06
1.03223e-05
1.00255e-05
1.01984e-05
7.09788e-06
8.95756e-06
1.01158e-05
1.01936e-05
1.00688e-05
1.03167e-05
1.00537e-05
1.03083e-05
1.03162e-05
1.03146e-05
1.00467e-05
1.0161e-05
9.48298e-06
6.356e-07
6.6012e-07
6.71521e-07
6.69612e-07
9.92287e-06
1.02916e-05
1.01653e-05
1.55131e-06
1.02927e-05
7.6522e-06
1.02491e-05
1.03314e-05
1.00579e-05
1.03251e-05
1.03239e-05
1.0098e-05
1.03059e-05
2.7807e-06
1.00992e-05
1.03132e-05
1.03255e-05
9.76794e-06
9.96848e-06
1.03254e-05
1.01921e-05
9.79881e-06
1.03117e-05
1.03247e-05
1.00263e-05
1.02813e-05
1.03304e-05
1.03094e-05
9.71003e-06
1.0292e-05
1.03197e-05
1.03071e-05
9.82129e-06
1.01935e-05
1.01275e-05
9.93508e-06
1.44815e-06
1.42558e-06
1.45605e-06
7.26973e-06
1.03204e-05
1.03184e-05
1.03085e-05
1.03076e-05
1.03415e-05
1.03e-05
9.58013e-06
1.00922e-05
1.03034e-05
1.0331e-05
1.02867e-05
1.03065e-05
1.03128e-05
7.55806e-06
1.03241e-05
9.84155e-06
1.03328e-05
9.85894e-06
9.35143e-06
1.0318e-05
1.00883e-05
1.00069e-05
1.0331e-05
1.02132e-05
1.03172e-05
9.8904e-06
1.0323e-05
8.11865e-06
1.02816e-05
1.03233e-05
1.02847e-05
1.0321e-05
1.03247e-05
1.02597e-05
1.03113e-05
1.0015e-05
1.03349e-05
1.03105e-05
1.0318e-05
1.01813e-05
1.029e-05
1.0317e-05
1.02627e-05
9.98918e-06
9.66342e-06
1.00349e-05
1.00929e-05
1.03093e-05
1.02672e-05
1.02913e-05
1.02844e-05
1.02686e-05
1.6761e-07
1.14438e-07
1.70345e-07
1.75018e-07
1.75474e-07
1.03213e-05
1.0324e-05
1.0305e-05
1.03123e-05
1.0304e-05
1.03099e-05
1.03261e-05
1.0023e-05
1.02147e-05
1.0313e-05
1.03264e-05
1.03135e-05
1.02718e-05
1.02903e-05
1.00273e-05
1.01691e-05
1.02918e-05
1.03038e-05
7.18746e-06
1.031e-05
1.02223e-05
1.03166e-05
7.68579e-06
1.02805e-05
1.03311e-05
8.9259e-06
9.96551e-06
9.44264e-06
1.0035e-05
9.38345e-06
9.97412e-06
1.03172e-05
1.03186e-05
1.01369e-05
1.03071e-05
1.01582e-05
8.45766e-06
1.02121e-05
1.01789e-05
1.03179e-05
9.76578e-06
1.02807e-05
1.03017e-05
1.03293e-05
9.68472e-06
1.00033e-05
1.02807e-05
9.89388e-06
1.03304e-05
1.01715e-05
1.03781e-05
1.02007e-05
7.75251e-06
1.03205e-05
1.01491e-05
9.86145e-06
9.8109e-06
1.02954e-05
9.57268e-06
1.0308e-05
1.03894e-05
1.00738e-05
1.03049e-05
1.03277e-05
6.45866e-06
1.03184e-05
1.01141e-05
1.03332e-05
1.03286e-05
1.01169e-05
7.86564e-06
1.03099e-05
1.03188e-05
1.03037e-05
1.03185e-05
1.02665e-05
7.85308e-06
1.03022e-05
1.03101e-05
1.03161e-05
7.30171e-06
1.03068e-05
1.03194e-05
1.03184e-05
1.03202e-05
1.03293e-05
1.01313e-05
1.03178e-05
1.03019e-05
1.03341e-05
7.93899e-06
1.03957e-05
1.02866e-05
1.03197e-05
1.00852e-05
9.98145e-06
1.03085e-05
1.03713e-05
9.5716e-06
1.0022e-05
6.81669e-06
7.65866e-06
1.0312e-05
1.03099e-05
4.87969e-07
1.02976e-05
7.26171e-06
1.03234e-05
1.03283e-05
6.82949e-06
6.38241e-06
5.92385e-06
5.9999e-06
6.71369e-06
5.83604e-06
4.88828e-06
3.86754e-06
6.74104e-06
2.55407e-06
2.08713e-06
2.36703e-06
3.08193e-06
3.10066e-06
7.05465e-06
3.48787e-06
2.54643e-06
5.59736e-06
6.47662e-06
3.38524e-06
4.85798e-06
4.05436e-06
4.0891e-06
7.31866e-06
6.32139e-06
2.2836e-06
6.38495e-06
3.79765e-06
5.22415e-06
2.09035e-06
5.38867e-06
4.73291e-06
1.54908e-06
3.83966e-06
5.34387e-06
5.40656e-06
2.06978e-06
6.97172e-06
1.92716e-06
5.42828e-06
2.07776e-06
2.11671e-06
5.65556e-06
5.98083e-06
2.12968e-06
2.92606e-06
2.94348e-06
6.24425e-06
4.93232e-06
6.46112e-06
5.44598e-06
6.75786e-06
3.02858e-06
4.98235e-06
2.65296e-06
1.59908e-06
5.10637e-06
4.46351e-06
5.85017e-06
2.96951e-06
2.67566e-06
7.21973e-06
4.9003e-06
3.29661e-06
3.74434e-06
3.02996e-06
6.51658e-06
1.41473e-06
2.65829e-06
1.89628e-06
3.97296e-06
4.87224e-06
4.24385e-06
6.57432e-06
4.01552e-06
7.59859e-06
8.82017e-07
4.04504e-06
7.00964e-06
4.25342e-06
2.15227e-06
2.1117e-06
2.12328e-06
7.14107e-06
6.65357e-06
3.07498e-06
6.72463e-06
2.37035e-06
7.36606e-06
3.15433e-06
3.24579e-06
2.71781e-06
1.98351e-06
2.40252e-06
1.94256e-06
3.17535e-06
2.42871e-06
5.31369e-06
2.09146e-06
1.17792e-06
2.92304e-06
6.09409e-06
6.74463e-06
2.75546e-06
9.97702e-07
2.67945e-06
6.1617e-06
5.26243e-06
5.66711e-06
3.50001e-06
4.29267e-06
5.52625e-06
1.35174e-06
3.05342e-06
3.58523e-06
3.83699e-06
5.44129e-06
2.45556e-06
3.41414e-06
1.70755e-06
1.95631e-06
5.64629e-06
3.77182e-06
1.70594e-06
1.08433e-06
6.03288e-06
5.5419e-06
5.54763e-06
1.28427e-06
4.02816e-06
1.45596e-06
5.76261e-06
3.21197e-06
6.56171e-06
1.26905e-06
5.68365e-06
2.38874e-06
5.9556e-06
5.17897e-06
6.11155e-06
5.00064e-06
5.53437e-06
5.42637e-06
2.13802e-06
4.18898e-06
2.85492e-06
6.92687e-06
1.92938e-06
5.58647e-06
2.13763e-06
5.37733e-06
4.11995e-06
2.47931e-06
5.17417e-06
2.2254e-06
4.27897e-06
3.81398e-06
3.84414e-06
4.98658e-06
3.6327e-06
2.98203e-06
1.54295e-06
2.66753e-06
5.08264e-06
6.33497e-06
3.99869e-06
3.68186e-06
5.46331e-06
1.37244e-06
5.09461e-06
2.46476e-06
7.45968e-06
5.68236e-06
8.57533e-06
1.00399e-05
1.10716e-06
6.02392e-06
2.90293e-06
5.16392e-06
5.70699e-06
1.02256e-05
6.8023e-06
5.57838e-06
1.84297e-06
3.0695e-06
4.20792e-06
7.71855e-06
8.28403e-06
6.45151e-06
2.92034e-06
2.77299e-06
4.24312e-06
1.6521e-06
2.74769e-06
2.80107e-06
3.09378e-06
2.69187e-06
6.20038e-06
6.19458e-06
7.74461e-06
6.6973e-06
1.26316e-06
6.90424e-06
1.88557e-06
6.42416e-06
4.50698e-06
6.01074e-06
5.5528e-06
6.04559e-06
1.85231e-06
2.49062e-06
2.42449e-06
3.24703e-06
6.44162e-06
2.73062e-06
1.8388e-06
7.96517e-06
5.28118e-06
3.75594e-06
1.89853e-06
1.89281e-06
3.81583e-06
3.78652e-06
2.7311e-06
2.22381e-06
6.52693e-06
5.12218e-06
7.30978e-06
1.64885e-06
3.79369e-06
1.99827e-06
3.6022e-06
2.0707e-06
7.38072e-06
3.65955e-06
3.09247e-06
5.27385e-06
3.96987e-06
5.70526e-06
2.33686e-06
1.09387e-06
1.18381e-06
4.09082e-06
6.32714e-06
4.95238e-06
5.67112e-06
2.3486e-06
5.68043e-06
5.19248e-06
3.84512e-06
3.25929e-06
5.37058e-06
5.1377e-06
3.71452e-06
1.35227e-06
2.91943e-06
5.22538e-06
2.70442e-06
3.99462e-06
1.75429e-06
2.88081e-06
6.11655e-06
4.87656e-06
6.06009e-06
2.58408e-06
1.02771e-06
2.36403e-06
4.04244e-06
7.58173e-06
1.90036e-06
2.49703e-06
5.08681e-06
2.90923e-06
5.69638e-06
3.15278e-06
4.9637e-06
2.49084e-06
6.81782e-06
1.295e-06
2.32532e-06
3.24781e-06
5.73147e-06
3.89508e-06
2.4996e-06