/*--------------------------------*- C++ -*----------------------------------*\
  =========                 |
  \\      /  F ield         | OpenFOAM: The Open Source CFD Toolbox
   \\    /   O peration     | Website:  https://openfoam.org
    \\  /    A nd           | Version:  8
     \\/     M anipulation  |
\*---------------------------------------------------------------------------*/
FoamFile
{
    version     2.0;
    format      ascii;
    class       surfaceScalarField;
    location    "8";
    object      phi;
}
// * * * * * * * * * * * * * * * * * * * * * * * * * * * * * * * * * * * * * //

dimensions      [0 3 -1 0 0 0 0];

internalField   nonuniform List<scalar> 
11624
(
-7.9138e-09
8.10395e-09
1.58512e-10
-3.48661e-10
-7.32046e-09
-2.65324e-10
-3.28016e-10
-2.10681e-09
1.4227e-10
1.85301e-09
1.11533e-10
8.74966e-09
-7.6547e-09
1.85131e-09
-2.94627e-09
-6.0912e-09
5.74374e-09
1.49002e-11
3.32555e-10
-6.1549e-09
4.33565e-09
1.48862e-09
3.30634e-10
-1.45911e-09
-2.86178e-10
-2.96574e-09
4.71102e-09
-8.64973e-10
2.31089e-09
3.17983e-09
-4.62575e-09
3.02976e-09
-2.36245e-09
-3.33574e-09
2.66843e-09
-3.39348e-09
-1.59912e-09
2.64932e-09
2.34329e-09
5.04568e-09
-4.63176e-09
-2.0741e-10
-2.0651e-10
2.01829e-09
4.80164e-09
-2.00279e-09
-4.81714e-09
-2.82544e-09
-4.29542e-09
2.26737e-09
4.85349e-09
-4.03238e-09
5.18763e-09
-1.21307e-09
5.78267e-11
-1.56799e-09
4.43751e-09
-3.95502e-09
1.0855e-09
-3.98226e-09
2.84969e-09
-2.73939e-09
3.87196e-09
4.18859e-09
-4.16156e-09
-8.43987e-11
5.73766e-11
-3.733e-09
4.83763e-09
-1.19879e-09
9.41616e-11
-2.75229e-09
3.88536e-09
-4.5587e-09
3.42563e-09
-3.2281e-09
-1.58355e-09
1.94524e-09
2.86641e-09
3.34531e-09
-3.80015e-09
2.29532e-10
2.25306e-10
-3.63382e-09
4.44997e-09
-3.5207e-10
-4.64074e-10
5.40011e-09
-5.41815e-09
5.03253e-11
-3.22844e-11
6.22319e-09
-2.06162e-09
8.86698e-10
-5.04827e-09
5.09237e-09
-4.7936e-09
-3.07146e-10
8.37686e-12
-4.8817e-09
1.45956e-09
4.29626e-09
-8.74123e-10
2.48623e-09
-4.02755e-09
-3.39928e-09
4.9406e-09
2.58359e-09
-2.41243e-09
-3.13789e-09
2.96673e-09
-2.76342e-09
3.35654e-09
-4.29018e-09
3.69706e-09
-5.92782e-09
4.60709e-09
-3.96659e-09
5.28731e-09
5.38183e-09
-3.52918e-10
6.34592e-11
5.29317e-09
-1.88311e-10
2.95248e-10
-5.5318e-09
5.13458e-09
5.35202e-10
-1.37978e-10
-5.43863e-09
4.6515e-09
1.05196e-09
-2.6483e-10
5.62113e-09
-2.43043e-10
3.74424e-12
-4.51507e-10
-3.46197e-11
-5.1171e-09
6.09335e-10
-2.85837e-10
-8.62623e-10
4.9799e-09
-5.54118e-09
1.4239e-09
-3.59475e-09
3.25553e-09
-7.24238e-10
1.90461e-10
-3.95339e-09
1.752e-09
-1.22748e-09
3.42886e-09
2.62705e-09
-4.19751e-09
-2.40407e-09
3.97453e-09
2.64341e-10
8.11723e-11
7.75843e-09
6.39123e-11
-4.84349e-09
-6.3857e-10
5.471e-09
-2.98596e-10
-6.22069e-09
1.04829e-09
2.11081e-09
-1.83786e-09
-2.88182e-09
2.60887e-09
-9.24468e-09
-3.27835e-10
2.25205e-09
3.22415e-09
9.19106e-10
-1.75862e-09
-2.38464e-09
8.73263e-09
-7.34827e-09
4.82093e-09
-6.2053e-09
4.1971e-09
-3.95671e-09
3.08777e-09
-3.32816e-09
-1.83172e-09
-6.10862e-10
3.35771e-10
3.85852e-09
-4.23398e-09
-4.94218e-09
5.31764e-09
1.09418e-09
-1.05968e-09
3.5747e-09
-3.60919e-09
-3.61644e-09
-1.09935e-09
4.75744e-09
-4.16491e-11
3.28623e-09
5.15313e-09
-5.49895e-09
-2.94041e-09
6.71125e-10
-4.50997e-10
2.33777e-10
-4.53905e-10
2.02376e-09
-9.09626e-10
5.10525e-09
-6.21938e-09
-2.07002e-09
2.59905e-09
8.22063e-09
-5.40585e-09
1.68756e-09
-1.0397e-10
3.82227e-09
3.42044e-09
-3.73528e-09
8.40474e-10
-5.25633e-10
-2.836e-09
3.68483e-09
1.50455e-09
-2.35339e-09
4.6256e-09
-3.965e-09
-2.88683e-09
2.22622e-09
-6.02888e-10
1.55065e-09
-5.17596e-09
4.2282e-09
-7.04824e-09
5.97723e-09
-3.15112e-09
4.22214e-09
1.64545e-09
-7.50834e-10
-3.85941e-09
2.9648e-09
-2.20386e-10
2.37012e-10
-2.32658e-10
2.16032e-10
-1.61806e-09
4.3657e-09
-3.61262e-09
2.41564e-09
-3.83363e-09
3.36008e-09
-1.94209e-09
-4.82031e-09
-6.01343e-11
4.01782e-09
2.16782e-10
2.24982e-10
-2.23266e-10
-2.18498e-10
2.45204e-09
7.35529e-09
-1.0684e-08
8.76641e-10
2.73067e-09
-2.80251e-09
-3.54805e-09
3.61988e-09
1.72379e-09
4.85267e-09
-1.31997e-09
-5.25649e-09
4.08838e-09
-3.60005e-09
-3.56354e-09
3.07521e-09
-1.01842e-09
5.88785e-11
1.47656e-09
-5.17015e-10
-4.73298e-09
-2.64038e-09
3.00206e-09
4.37129e-09
-2.67762e-09
-3.49807e-09
3.45947e-09
2.71621e-09
-4.91112e-09
4.62687e-09
-6.07909e-10
8.92167e-10
-5.1063e-09
-7.86711e-09
5.31872e-09
-2.87746e-09
2.73589e-09
3.70821e-09
-3.56664e-09
-1.55601e-09
3.24136e-09
-4.17558e-09
2.49022e-09
-3.79639e-09
9.49417e-10
-5.80904e-09
-2.93682e-09
6.77047e-10
-4.71752e-09
-2.88165e-09
6.6016e-10
-4.64857e-09
-2.80837e-09
6.3935e-10
-4.54642e-09
-3.35759e-09
8.0487e-10
-5.26985e-09
4.90837e-09
-5.02863e-09
2.37713e-10
-1.17452e-10
-4.05209e-09
1.04952e-09
-6.36181e-09
-2.93859e-09
6.85778e-10
-4.91787e-09
-3.09515e-09
7.30076e-10
-5.06128e-09
-3.49815e-09
8.56858e-10
-5.59051e-09
-2.69262e-09
6.10087e-10
-4.51894e-09
-2.26838e-10
2.57612e-10
1.92223e-10
-2.22997e-10
5.17301e-09
5.75869e-09
-8.31603e-09
-2.61566e-09
-4.12709e-09
2.75723e-09
3.7855e-09
-5.71442e-09
-5.17823e-09
4.32707e-09
6.56558e-09
-2.2971e-10
2.39743e-10
-2.34129e-10
2.24096e-10
1.02304e-09
-1.12852e-09
4.91788e-09
-4.8124e-09
4.63073e-09
6.51756e-09
-6.94157e-09
-4.20671e-09
6.33325e-09
7.68985e-09
-9.72416e-09
-4.29894e-09
-1.09413e-09
4.68965e-10
-4.24027e-09
4.86543e-09
2.25676e-09
3.11108e-09
-2.43997e-09
-2.92787e-09
-4.36185e-09
-3.76746e-11
4.12145e-09
2.7807e-10
-3.71127e-09
2.39492e-09
-3.17457e-09
4.49092e-09
-3.55062e-09
-3.05544e-09
2.89478e-09
-2.02191e-09
1.65266e-09
2.63079e-09
-2.26154e-09
-2.37043e-09
3.07931e-09
-2.62177e-09
1.91289e-09
1.14165e-10
3.71867e-09
3.55756e-10
2.37455e-09
3.27888e-09
-4.87033e-09
-7.83106e-10
-3.49555e-10
1.48517e-09
-1.58678e-09
4.51171e-10
3.91235e-09
5.72783e-10
-3.72689e-09
-7.5824e-10
-4.34261e-11
-4.43858e-09
-6.35091e-10
3.24358e-09
-3.88056e-09
3.01079e-09
-2.3738e-09
-2.73149e-09
4.05691e-10
4.7378e-09
-2.412e-09
2.15989e-09
8.54553e-09
-1.27969e-09
-9.42573e-09
3.19652e-09
7.92756e-09
-8.96418e-09
5.44354e-09
6.5981e-10
-1.19498e-09
-2.58214e-10
5.46496e-10
8.25725e-09
-3.41359e-09
-3.11169e-09
2.49774e-09
-1.07734e-09
6.7747e-10
1.13887e-09
-7.38995e-10
5.78523e-10
-1.27116e-10
5.44111e-09
-5.89252e-09
-4.91831e-10
7.36928e-10
-2.16604e-09
1.92094e-09
1.48284e-09
-3.84987e-09
3.72853e-09
-1.3615e-09
1.43393e-09
-1.21771e-09
2.81353e-09
2.78482e-09
-3.61325e-09
3.81121e-09
-2.98278e-09
4.62282e-09
8.98763e-09
-2.78158e-09
-1.08289e-08
-2.06775e-09
-2.42976e-09
2.97447e-09
1.52303e-09
1.21651e-09
4.22852e-09
-2.8584e-09
-2.58663e-09
1.02112e-10
-1.84616e-10
-1.87833e-09
1.96083e-09
3.04074e-09
3.60848e-09
-4.02217e-09
3.29653e-10
-9.15271e-10
5.40939e-09
-4.82377e-09
3.33185e-10
3.00712e-09
3.5425e-10
-3.69456e-09
3.00277e-09
-2.73239e-09
-2.64081e-09
-6.18309e-09
-5.67546e-09
6.14413e-09
8.77169e-11
1.50399e-10
-5.02963e-11
-1.8782e-10
7.59202e-09
-1.45099e-09
-6.34649e-10
-5.50637e-09
-5.23362e-09
-1.12813e-09
7.08513e-10
5.65323e-09
4.32262e-09
-4.77138e-09
-3.97212e-09
4.42087e-09
2.24577e-09
-4.05514e-09
-3.10176e-09
3.87721e-09
-4.12396e-09
-1.30925e-09
4.14165e-09
3.32e-09
-4.21808e-09
4.40231e-09
-3.56274e-09
-6.16883e-09
5.32927e-09
1.75051e-09
-3.9104e-09
3.64273e-09
-5.12273e-09
-3.06067e-09
2.25558e-09
-2.20693e-09
7.91773e-10
1.48957e-09
-7.44125e-11
-3.6353e-09
-2.58022e-09
4.30127e-09
1.91425e-09
2.38918e-09
-3.283e-09
3.50159e-09
-2.60777e-09
2.46112e-10
-2.48959e-10
2.20259e-10
-2.17412e-10
-4.13183e-09
4.08468e-09
-3.77322e-09
3.82038e-09
7.71871e-09
1.49199e-09
-2.82447e-09
-6.38623e-09
-3.27192e-09
2.28136e-09
-3.39224e-09
4.38281e-09
3.18066e-09
-7.65e-09
9.10007e-09
1.22795e-10
-5.30339e-10
-2.47818e-09
2.88572e-09
-3.58764e-10
4.38049e-09
-4.27388e-09
2.52158e-10
5.42228e-09
-4.38758e-09
-7.04442e-10
-3.30266e-10
-1.62418e-09
-4.04593e-09
2.21845e-09
3.45166e-09
-6.0725e-09
-6.92349e-10
6.76485e-09
-1.62712e-09
2.59656e-10
1.48185e-09
-1.14379e-10
-8.97509e-10
-4.4462e-09
7.49597e-10
4.59411e-09
-3.66323e-09
-4.02305e-09
4.43101e-09
3.25527e-09
-4.24403e-09
-4.48502e-09
2.78424e-09
5.94481e-09
5.0553e-09
-5.3606e-09
7.55072e-09
-7.24543e-09
9.82315e-10
-4.83097e-09
4.87169e-09
4.6756e-09
-4.49762e-09
4.80193e-09
-2.35598e-10
-2.22611e-10
2.31868e-10
2.26341e-10
-4.40846e-09
4.31792e-09
8.73895e-11
3.14826e-12
5.73089e-09
-5.28556e-09
4.69667e-10
-9.14993e-10
5.78797e-09
-5.2788e-09
5.14173e-10
-1.02334e-09
5.61028e-09
-5.17507e-09
4.60953e-10
-8.96161e-10
3.03647e-09
-3.81512e-09
1.05758e-10
6.72897e-10
-4.97071e-09
4.97097e-09
-7.93866e-11
7.91233e-11
2.954e-09
-3.17151e-09
3.11879e-09
-2.90128e-09
-4.1278e-10
4.13674e-09
6.61501e-10
-4.38546e-09
2.26414e-10
-2.59682e-10
2.30863e-10
-1.97595e-10
-1.25649e-08
1.40592e-08
-6.82856e-09
5.33418e-09
5.02117e-09
-5.53663e-09
-1.95451e-12
5.17415e-10
-2.78706e-09
-3.07578e-09
2.3328e-09
3.53004e-09
2.40081e-09
-1.4681e-09
2.62316e-09
-3.55588e-09
-7.85514e-09
-8.30308e-09
8.39314e-09
7.76509e-09
2.9136e-09
-3.23152e-09
7.68782e-09
-9.20834e-09
-6.44816e-09
7.96869e-09
-2.45333e-09
2.344e-09
-3.11226e-09
3.22159e-09
-1.15462e-10
1.6592e-10
-6.47778e-09
5.12778e-09
-1.81433e-10
1.53143e-09
3.97037e-09
-2.12611e-09
1.92094e-09
-3.76519e-09
-3.36005e-09
4.48763e-09
2.78255e-09
-3.91013e-09
-3.14905e-09
1.03224e-10
3.52871e-10
2.69295e-09
4.94931e-09
-8.55539e-10
-4.99128e-09
4.56715e-09
-4.15441e-09
-3.382e-09
2.96926e-09
-4.54086e-09
5.18293e-09
2.22321e-11
-6.64301e-10
-4.61889e-09
5.29478e-09
2.68164e-11
-7.02703e-10
-3.34881e-09
4.16272e-09
8.30839e-10
-1.64474e-09
-3.42964e-09
3.83527e-09
-2.84966e-09
2.44404e-09
6.85089e-10
7.32394e-09
-8.00902e-09
-2.10975e-10
-3.7508e-09
-1.9979e-10
-5.82681e-10
2.83137e-09
9.63063e-10
-3.21175e-09
2.86719e-10
-3.05534e-10
2.36949e-09
-6.19616e-10
6.76962e-10
-2.42684e-09
4.97993e-09
-6.324e-11
5.42796e-11
4.81922e-09
-4.78045e-09
2.12887e-11
-6.00579e-11
4.53126e-09
-4.40076e-09
7.61381e-12
-1.38113e-10
3.50358e-09
-3.41219e-09
-3.06669e-09
2.9753e-09
2.02349e-10
-1.62269e-10
-2.02681e-10
1.626e-10
4.02186e-09
1.61705e-09
-2.8634e-11
4.15973e-09
1.65442e-09
-2.61799e-11
4.10756e-09
1.65318e-09
-2.98603e-11
-4.74201e-09
5.95695e-09
-1.29711e-09
8.2165e-11
5.4626e-09
-5.34017e-09
-2.91883e-10
1.69461e-10
-1.23349e-09
1.32162e-09
7.23367e-10
-8.11499e-10
-2.28269e-09
-4.64974e-09
3.64228e-09
3.29015e-09
-5.41149e-09
4.6593e-09
9.96507e-10
-2.44323e-10
6.83562e-09
6.58384e-11
-1.43886e-09
3.53643e-09
2.93845e-09
-2.45922e-09
-4.01566e-09
-4.41058e-09
2.31702e-10
4.23768e-09
-5.88009e-11
4.98083e-09
-4.98187e-09
-2.49903e-12
3.54073e-12
-4.39255e-09
4.40408e-09
-4.52276e-11
3.3697e-11
-4.4523e-09
4.46384e-09
-4.5927e-11
3.43831e-11
-4.30096e-09
4.31246e-09
-4.43161e-11
3.28208e-11
1.5915e-09
-1.67366e-10
4.09978e-09
3.37256e-09
-5.40873e-09
-2.06361e-09
5.04391e-09
-4.6268e-09
-2.81875e-10
-1.35227e-10
-4.43259e-09
4.04723e-09
2.63113e-09
-6.06845e-09
5.67273e-09
-1.49431e-10
5.45152e-10
-4.67068e-09
-1.11476e-09
2.48811e-10
-1.57126e-09
-7.88273e-10
1.12604e-09
5.44087e-09
-5.88299e-10
-3.21311e-10
5.29352e-09
-5.29839e-09
6.38445e-12
-1.51883e-12
-4.96193e-09
4.97831e-09
-5.44949e-11
3.81113e-11
-4.42728e-09
4.38806e-09
-1.38945e-10
1.78164e-10
-4.48749e-09
4.44801e-09
-1.40561e-10
1.80038e-10
-4.33464e-09
4.29617e-09
-1.36599e-10
1.75068e-10
3.90761e-09
-3.98629e-09
-5.86341e-10
6.6502e-10
6.15562e-09
1.606e-10
-1.497e-09
2.84265e-09
-3.4727e-09
3.01924e-09
-3.15458e-09
2.4524e-09
2.98354e-09
5.97126e-09
-5.11571e-09
-5.34515e-11
-8.02097e-10
4.89378e-09
3.73586e-10
-1.35975e-09
7.22619e-09
-7.07389e-09
-7.71479e-10
6.19175e-10
4.26768e-09
-4.35336e-09
-6.45656e-11
1.50244e-10
-1.1478e-11
-7.12257e-11
3.56493e-09
-3.67878e-09
-1.88101e-10
3.01947e-10
3.61172e-09
-3.72725e-09
-1.8964e-10
3.05173e-10
3.49103e-09
-3.60218e-09
-1.8478e-10
2.95929e-10
5.67291e-10
3.46622e-10
-5.94255e-09
-4.46829e-09
5.11972e-09
-7.34629e-10
8.32071e-11
-4.52553e-09
5.18771e-09
-7.47701e-10
8.55257e-11
-4.37545e-09
5.01288e-09
-7.18568e-10
8.11306e-11
-5.16964e-09
5.49788e-11
-1.36312e-09
5.37546e-09
-1.43808e-09
-5.0659e-09
-3.57815e-09
-3.00034e-09
3.84273e-09
2.73577e-09
4.04541e-10
-1.58698e-10
-4.80939e-10
2.35096e-10
2.64642e-09
-4.43538e-09
5.29254e-09
1.23914e-09
-6.26394e-11
3.94424e-09
-5.22498e-11
2.15574e-10
3.99313e-09
-4.9733e-11
2.16338e-10
3.8624e-09
-5.09451e-11
2.10399e-10
5.04115e-09
-1.17075e-10
5.58581e-11
-2.97728e-10
1.69235e-10
1.10701e-09
5.07294e-11
-4.25859e-09
-1.75433e-10
-8.44777e-10
4.96077e-09
-4.95714e-09
6.18364e-12
-9.81013e-12
-4.36399e-09
1.59931e-10
-9.71011e-10
-4.45682e-09
1.62036e-10
-9.90772e-10
6.44366e-09
-5.48744e-09
6.20918e-11
-1.01831e-09
-4.96545e-09
4.96824e-09
6.19935e-12
-8.98786e-12
-6.5938e-10
1.46338e-10
-6.8489e-10
1.52483e-10
-6.73707e-10
1.49652e-10
-4.40638e-09
4.4214e-09
-1.54279e-11
4.04383e-13
-4.46622e-09
4.48149e-09
-1.5832e-11
5.61195e-13
-4.31473e-09
4.32935e-09
-1.49216e-11
3.01096e-13
-5.48697e-09
5.42169e-09
-1.38367e-10
2.03649e-10
-3.99655e-09
4.42293e-09
-4.90489e-10
6.41094e-11
6.2681e-09
3.47498e-09
-6.20665e-09
2.80681e-09
3.41164e-09
-3.5348e-09
-2.68365e-09
-4.74422e-09
4.77261e-09
-2.69108e-11
-1.48168e-12
-4.80556e-10
2.35822e-09
-4.04066e-09
4.37834e-09
-1.42492e-11
-3.23433e-10
5.34814e-09
-4.77832e-09
-2.89946e-11
-5.40827e-10
-4.24113e-09
4.2756e-09
-4.86267e-11
1.41556e-11
5.03171e-09
7.66233e-10
-1.25212e-10
4.09088e-09
-4.11652e-09
-9.14523e-11
1.17085e-10
5.67678e-09
-4.81255e-09
5.8148e-11
-9.22386e-10
3.22604e-09
-3.99938e-09
3.58196e-09
-2.80863e-09
-4.32337e-09
5.04684e-09
2.10131e-10
-9.33602e-10
6.41907e-09
1.77758e-09
-4.42642e-09
-3.77023e-09
-4.61988e-09
4.63927e-09
3.92255e-12
-2.3306e-11
-5.18751e-09
4.99305e-09
-5.50403e-11
2.49501e-10
-8.11365e-10
4.17154e-09
5.15698e-10
-3.87587e-09
-1.17255e-09
6.25532e-09
-1.64893e-10
3.6798e-09
-2.69326e-09
3.50848e-09
-4.49502e-09
2.93156e-09
-4.31242e-09
3.50753e-09
-2.12667e-09
-4.60276e-09
-2.02205e-10
-6.38889e-10
4.67352e-10
4.08388e-09
5.15408e-09
-4.35377e-09
-4.53986e-11
-7.54914e-10
-5.44817e-09
5.29896e-09
-1.00301e-10
2.49512e-10
-2.53571e-10
2.07344e-10
4.62271e-11
3.39667e-09
-3.56704e-09
7.95933e-12
1.62414e-10
4.4986e-09
-4.25978e-09
1.89084e-10
-4.27902e-10
-3.66001e-09
-3.11103e-09
2.63921e-09
5.81142e-09
-5.81838e-09
-8.33899e-11
9.03408e-11
-4.51755e-09
-4.17327e-11
1.84173e-11
-1.47956e-10
8.99165e-11
1.42504e-10
-8.44647e-11
6.83883e-09
-5.44045e-09
1.907e-10
-1.58908e-09
4.78407e-09
6.84532e-11
-5.84841e-10
-5.04144e-09
5.53543e-09
3.20878e-11
-5.26087e-10
4.62505e-09
-9.63987e-10
-1.70034e-10
4.78677e-09
-9.96058e-10
-1.78993e-10
4.72333e-09
-9.83396e-10
-1.75002e-10
5.18418e-09
-5.3835e-09
4.5182e-10
-2.52495e-10
-4.75661e-10
1.09965e-10
-1.77088e-10
5.42784e-10
-4.56629e-09
-8.82321e-11
3.56284e-11
6.36947e-10
-1.9218e-09
-6.37461e-10
1.92232e-09
-3.66016e-09
4.32484e-09
2.53313e-10
-9.17991e-10
2.86256e-09
-1.35801e-09
-1.50455e-09
-3.96334e-10
4.25043e-09
7.53858e-10
-4.60795e-09
5.85543e-09
-5.8553e-09
-1.8675e-11
1.85499e-11
-6.12262e-09
5.95463e-09
-8.50834e-11
2.53075e-10
-3.88303e-09
3.99742e-09
4.58393e-10
-4.80222e-09
-4.44025e-10
2.04811e-10
4.63984e-09
1.55017e-10
-4.21633e-09
-2.43839e-09
2.40961e-09
3.10809e-09
-5.93935e-09
-1.32313e-09
1.88601e-10
2.37262e-10
-1.39428e-10
-5.91243e-09
7.0478e-09
1.87485e-10
-1.32285e-09
3.24825e-09
-3.63712e-09
1.01063e-10
-8.6565e-10
-3.2217e-09
4.72065e-10
4.65802e-09
3.94229e-11
-8.60769e-11
4.24106e-09
-4.25246e-09
1.85194e-11
-7.12106e-12
6.04465e-09
-2.38507e-10
-5.27655e-09
-5.29595e-10
5.22708e-09
-2.25221e-10
-4.57598e-09
-4.25877e-10
5.34208e-09
-2.27998e-10
-4.67495e-09
-4.39134e-10
5.41978e-09
-2.28879e-10
-4.74102e-09
-4.49886e-10
6.66007e-09
-2.44831e-10
-5.79812e-09
-6.17125e-10
6.02512e-09
-1.2481e-09
2.66886e-10
4.60659e-09
-4.56384e-09
-8.01364e-11
3.73825e-11
4.21893e-09
-8.13574e-11
1.15721e-09
4.12883e-09
-8.08446e-11
1.13495e-09
-2.18888e-10
2.0137e-10
-4.39094e-09
-7.31867e-09
1.05222e-09
1.96425e-10
6.07002e-09
4.97595e-09
-1.51085e-12
6.38774e-12
-4.26413e-09
4.26542e-09
6.41184e-12
-7.70297e-12
2.89568e-09
-3.27169e-09
3.74086e-09
-3.36486e-09
5.21604e-09
-5.17893e-09
-8.61533e-11
4.90402e-11
-4.62184e-09
-7.82762e-12
9.78195e-12
-4.20153e-10
4.34734e-09
-5.0675e-10
4.78556e-09
-4.76664e-09
-1.99653e-11
1.04038e-12
-2.51691e-10
7.38331e-11
-1.77036e-10
4.67448e-10
-1.82096e-10
4.8138e-10
-1.80075e-10
4.76127e-10
-7.21441e-10
-6.25886e-11
4.91286e-09
-7.37679e-10
-6.43925e-11
5.021e-09
-5.20346e-09
5.16967e-09
-1.76011e-10
2.09804e-10
5.05812e-09
5.76523e-11
-8.40702e-11
1.00231e-10
-3.0709e-10
-4.06702e-09
4.14519e-10
9.29933e-10
-4.82448e-09
3.63621e-11
7.47454e-10
1.02535e-09
-2.50925e-10
1.14118e-09
2.69522e-10
1.18121e-09
2.79252e-10
1.16603e-09
2.74912e-10
2.63269e-09
-2.57964e-09
-3.53749e-09
3.1723e-09
-3.00137e-09
3.36657e-09
-6.83887e-09
-8.11691e-10
6.37569e-09
1.27487e-09
-5.38424e-09
5.43964e-09
-5.90704e-11
3.67683e-12
-1.28398e-11
9.2854e-12
-2.42603e-10
-4.53202e-09
-7.80041e-11
7.32101e-11
-8.00752e-11
7.57863e-11
-7.921e-11
7.47187e-11
5.73252e-09
-5.73561e-09
-9.03547e-11
9.34402e-11
3.95634e-09
-3.66028e-09
-3.15086e-09
2.8548e-09
-4.36564e-09
-4.77349e-10
-2.57245e-11
4.86872e-09
-1.09816e-09
2.43848e-10
4.19754e-09
-3.46922e-09
-5.01984e-09
5.53014e-09
-8.25773e-10
3.15479e-10
4.53363e-09
-8.33131e-10
-3.03831e-10
4.67891e-09
3.18791e-11
-7.15266e-11
3.18724e-09
-3.64741e-09
-3.07732e-09
-1.01078e-10
1.30782e-10
-9.63509e-11
6.66469e-11
-4.42631e-09
4.4881e-09
-8.42772e-11
2.24915e-11
-4.48654e-09
4.54918e-09
-8.5465e-11
2.28338e-11
-4.3341e-09
4.39458e-09
-8.24865e-11
2.20002e-11
-3.78076e-09
4.15763e-09
2.99545e-09
-3.37232e-09
-3.31616e-09
-2.08266e-09
4.38193e-09
-1.91306e-11
7.91287e-10
-3.80394e-10
5.90653e-10
-2.14811e-10
3.9073e-09
8.92087e-10
-4.58457e-09
1.7563e-09
-3.3181e-11
1.17751e-09
6.96315e-10
4.13032e-09
-1.6994e-10
1.38776e-09
3.98752e-09
-2.17634e-11
1.08108e-09
-3.12983e-11
1.10231e-10
2.6671e-10
-3.45643e-10
-5.89727e-09
-7.32405e-10
-6.4799e-12
6.63616e-09
-1.64732e-10
6.53238e-11
-5.27551e-09
5.29694e-09
-6.6432e-12
-1.47904e-11
4.47543e-09
-9.69726e-11
1.29832e-09
-5.17854e-10
8.72366e-11
-4.80441e-10
3.94028e-09
-4.74136e-09
1.28152e-09
-3.93937e-09
4.01057e-09
-7.10091e-10
-2.38859e-10
4.33792e-09
4.25788e-09
-5.26938e-09
4.39829e-09
-3.38679e-09
5.51117e-09
-1.09457e-09
-3.25715e-10
1.24864e-09
-6.69806e-11
7.03909e-10
3.53827e-12
3.85494e-09
-5.04865e-09
1.82996e-09
-6.3625e-10
-2.49805e-09
-6.28753e-09
6.18989e-09
2.59569e-09
-4.94914e-09
4.94327e-09
-2.04718e-12
7.91318e-12
-5.35335e-09
1.92277e-09
5.44887e-09
1.59564e-10
-7.62922e-11
8.10184e-11
-1.6429e-10
-6.08719e-09
-3.01187e-09
6.60101e-09
-4.42941e-09
3.83063e-09
7.90988e-10
-1.92209e-10
-4.27855e-09
3.70115e-09
7.63126e-10
-1.85725e-10
-4.36979e-09
3.77979e-09
7.79726e-10
-1.89722e-10
-3.81942e-09
-3.26614e-10
-4.85724e-10
-2.53181e-09
-2.32299e-09
-2.13623e-09
-5.1686e-09
2.87225e-09
5.48825e-09
-1.45516e-09
1.15109e-09
-3.26733e-09
-3.48053e-09
3.99557e-09
1.20272e-10
1.76052e-10
-1.3676e-10
-4.27106e-09
-2.08736e-12
9.0251e-12
-2.38313e-10
-1.5291e-11
-7.90486e-09
5.9883e-09
-4.26654e-09
-4.22515e-09
4.72896e-09
-4.93468e-10
-1.03424e-11
-4.73887e-09
5.32556e-09
-5.69463e-10
-1.72282e-11
-4.40665e-09
4.15892e-09
4.57035e-09
2.77881e-09
-2.21443e-09
1.69406e-10
-5.79595e-11
1.73852e-10
2.31815e-10
-2.03317e-10
-5.40408e-09
6.20155e-09
-7.96488e-10
-9.80441e-13
4.91216e-09
-5.58376e-09
-1.07016e-10
2.40789e-10
3.22746e-09
-4.19222e-09
3.85043e-09
-2.88567e-09
-4.93026e-09
5.64562e-09
-7.13625e-10
-1.74133e-12
-6.57283e-09
6.76294e-09
-8.09496e-09
-2.59674e-12
7.13164e-12
5.05254e-09
-9.46616e-11
1.48579e-09
-2.1411e-10
-5.46728e-11
1.72316e-11
-1.95007e-11
1.84247e-11
-2.08011e-11
1.79179e-11
-2.02162e-11
-4.7512e-09
-1.09711e-09
4.09682e-10
5.27108e-10
1.10465e-11
9.32132e-10
-6.95583e-12
-6.0614e-11
-2.7109e-10
1.15983e-11
3.37304e-14
3.50115e-09
3.13594e-09
-2.43428e-09
-4.20281e-09
-5.72286e-09
6.45148e-09
-7.45259e-10
1.66328e-11
3.92967e-09
2.183e-09
-2.1423e-09
4.3753e-09
1.62291e-11
-1.31869e-11
5.53371e-10
3.23165e-10
-1.0036e-10
5.85135e-11
4.21201e-09
3.40716e-09
-3.42162e-09
-9.48504e-13
1.1444e-11
-2.13731e-09
1.76325e-09
3.21671e-09
2.58075e-09
5.2315e-10
-3.1039e-09
-4.32407e-09
3.68194e-09
8.55744e-10
-2.13618e-10
1.47681e-11
-1.95162e-11
1.52422e-11
-2.02957e-11
1.50862e-11
-1.99944e-11
1.88032e-10
-2.53789e-10
-4.69649e-09
4.06034e-09
8.38487e-10
-2.02342e-10
-5.14264e-09
1.00256e-09
-1.3847e-10
-5.32465e-09
1.0383e-09
-1.43051e-10
-5.25239e-09
1.02392e-09
-1.41319e-10
4.63465e-09
-7.46579e-11
4.66007e-11
3.68571e-09
-7.61606e-10
-4.94463e-09
2.02053e-09
-5.16121e-09
4.46028e-09
9.22763e-10
-2.21831e-10
1.29875e-10
4.41254e-10
-1.89534e-10
-1.76052e-10
2.03317e-10
4.80602e-09
-6.68628e-11
4.63999e-11
1.12939e-09
-3.76158e-09
-9.84249e-10
-5.9344e-13
1.16917e-11
-5.08589e-11
6.98197e-12
4.69173e-09
-4.99526e-09
3.96071e-10
-9.25394e-11
-8.58305e-09
4.34139e-09
7.43818e-09
5.25458e-09
-1.13633e-10
7.50966e-11
-4.64166e-09
-9.55634e-11
6.65511e-11
-4.95372e-09
-2.29808e-10
-9.19793e-11
5.64455e-10
-2.56748e-10
6.67367e-11
-1.70954e-10
6.40267e-11
-2.0494e-10
4.21223e-09
1.71497e-11
1.16847e-11
3.94011e-12
2.03213e-12
7.93615e-11
-2.03594e-10
2.69958e-10
-2.67587e-10
3.33872e-09
3.26954e-09
-2.92846e-09
9.19578e-11
-2.41455e-10
1.23818e-11
4.68057e-10
-4.15252e-10
-6.51876e-11
3.95935e-11
-5.25135e-11
1.19041e-09
-1.88922e-10
5.70091e-09
-8.44926e-12
4.00595e-11
4.17336e-09
-4.33705e-09
4.24836e-09
1.09954e-09
-1.50402e-10
5.25903e-09
3.87374e-10
1.94561e-09
4.77068e-10
-8.66156e-12
9.32254e-11
-1.02486e-10
8.5856e-12
-1.00292e-11
2.58827e-09
1.43343e-09
-2.1061e-09
-1.9156e-09
-7.24392e-09
8.52335e-09
7.4092e-09
-8.68863e-09
4.25437e-10
-3.90729e-10
-2.2326e-11
-1.58918e-12
1.45447e-11
-5.69897e-09
5.39722e-09
6.25397e-10
-3.23641e-10
7.22328e-11
-9.41795e-11
1.20265e-09
-1.62318e-10
2.28264e-10
2.73561e-10
-2.69958e-10
-4.88381e-09
5.55762e-09
-1.23956e-09
5.65744e-10
-6.32103e-09
-9.57781e-10
1.57769e-09
5.70112e-09
1.703e-10
-3.75768e-10
-4.7875e-09
2.77425e-09
5.07567e-09
-3.06242e-09
3.66254e-09
-1.20606e-10
1.18703e-09
-2.47145e-09
2.74724e-09
-6.56332e-09
2.27432e-09
4.57472e-09
-2.92474e-09
-3.9243e-09
-1.79205e-11
2.75797e-11
3.92658e-09
-4.21549e-09
-3.23921e-09
3.52812e-09
4.29984e-09
-3.89369e-10
5.13763e-09
-1.17271e-10
1.43113e-09
-5.47755e-09
3.43109e-09
3.27716e-09
-1.2307e-09
4.00023e-09
-3.26702e-11
-3.0502e-10
3.77263e-09
-3.46793e-09
2.8206e-09
-3.1253e-09
-4.02943e-09
7.80043e-10
-1.63441e-09
2.64626e-09
-2.7389e-09
1.72149e-09
-2.57738e-10
-1.72454e-09
2.60788e-10
3.96841e-09
3.09646e-09
-2.88871e-09
-4.17616e-09
-7.20644e-09
2.57686e-09
-2.41866e-09
-4.17038e-09
-2.96135e-09
4.05641e-09
3.07532e-09
4.88856e-09
-3.45535e-09
2.06795e-09
4.42269e-09
4.27695e-09
-2.66805e-09
-2.40891e-09
2.00118e-09
5.71995e-09
-2.53177e-12
-5.79794e-10
-4.02628e-09
5.5355e-10
-5.48291e-09
1.09366e-10
5.30788e-09
6.56634e-11
-3.63294e-09
2.921e-09
-2.45956e-09
2.36717e-10
-3.33408e-10
3.23033e-10
2.01397e-09
-2.88736e-09
-1.79713e-10
-4.5903e-09
3.59432e-10
2.96931e-10
-4.02866e-09
-5.75987e-09
4.88835e-09
-2.18344e-09
3.05496e-09
2.27958e-09
-2.17935e-09
-2.78147e-09
-5.97011e-09
7.03795e-09
1.71363e-09
2.31497e-09
5.92669e-12
-3.57611e-11
4.55271e-10
-2.45148e-09
-6.1747e-09
5.86699e-09
2.75919e-09
9.29712e-10
3.55332e-09
-3.46689e-09
-1.01614e-09
-5.84656e-09
-2.71207e-09
-1.19003e-09
-7.25522e-09
5.94849e-09
2.49675e-09
-1.93478e-09
1.33522e-09
1.12937e-09
-3.81792e-09
5.09956e-09
-2.41101e-09
1.48874e-09
-1.49867e-09
-3.21817e-09
1.39903e-10
-5.50454e-09
9.45421e-10
4.41921e-09
-3.00058e-09
3.75099e-09
-4.41363e-09
-4.56823e-09
1.74938e-09
3.94823e-09
3.73793e-09
3.89441e-09
-4.57842e-09
-3.05393e-09
6.01727e-10
-3.39891e-09
2.32452e-10
-7.17892e-10
-3.47739e-09
3.43588e-09
-3.85892e-09
3.90043e-09
2.27943e-09
-3.02602e-09
-1.68316e-09
-3.82397e-09
-2.90783e-09
4.44912e-09
-2.8132e-10
6.0488e-09
6.98391e-10
-6.46587e-09
2.57964e-09
-2.64626e-09
-3.70145e-09
-3.32551e-09
3.57999e-09
-5.79421e-09
5.53973e-09
5.88709e-09
-4.19682e-09
-5.71332e-09
-3.44205e-09
3.26548e-09
4.59925e-09
-4.13279e-09
1.017e-10
4.1859e-09
-1.54805e-10
3.24954e-09
7.79484e-10
-3.61438e-09
-4.1465e-10
6.24769e-09
-2.83927e-09
-3.12349e-09
3.51375e-09
-1.96832e-09
-5.78588e-09
9.15336e-10
3.81061e-10
4.92621e-09
-1.1443e-09
5.14303e-09
-4.20736e-09
2.12001e-09
-3.05568e-09
-5.36629e-10
2.75878e-10
-9.69408e-09
2.7974e-09
-1.77707e-09
8.67375e-09
-3.12909e-09
3.47218e-09
9.09932e-11
-1.49099e-09
-5.93171e-09
7.33171e-09
8.07451e-11
-5.40694e-09
-1.35047e-09
6.67666e-09
6.56536e-11
-1.16194e-09
-4.70253e-09
5.79882e-09
6.88521e-11
-1.20586e-09
-4.86924e-09
6.00624e-09
6.73847e-11
-1.18768e-09
-4.80289e-09
5.92318e-09
4.27128e-09
-4.13703e-09
8.17954e-11
-2.16047e-10
4.42171e-09
-4.28206e-09
8.48131e-11
-2.24463e-10
4.3623e-09
-4.22498e-09
8.36815e-11
-2.21006e-10
2.45406e-09
-2.4734e-09
3.75618e-09
-3.73685e-09
-3.38423e-09
-4.28707e-09
4.5478e-09
3.39816e-10
-3.95483e-09
-4.51509e-11
-3.49395e-09
6.69442e-10
-9.43023e-10
3.76753e-09
4.99595e-10
3.96518e-09
-2.53002e-09
2.62614e-09
-3.03851e-10
4.52115e-09
-4.43211e-09
3.86102e-09
-4.07406e-09
4.35469e-09
-5.38551e-10
-2.95538e-09
2.84161e-09
6.52317e-10
-3.79747e-09
4.05865e-09
-6.57518e-10
2.00694e-09
-5.59067e-09
7.93204e-09
-4.34831e-09
4.86386e-10
-6.09642e-09
4.81352e-11
4.24976e-09
5.95879e-10
7.98055e-09
-7.17048e-09
-3.25464e-09
-3.01829e-09
-6.10901e-09
2.73459e-09
8.22931e-09
-1.88699e-10
-8.47227e-09
4.31665e-10
-9.07391e-10
-4.05082e-09
1.16075e-09
8.94353e-11
-1.65718e-10
-8.13268e-11
1.57609e-10
3.20388e-10
5.2222e-09
1.09519e-09
-6.63778e-09
-2.11511e-09
6.70316e-11
2.42028e-09
-3.72201e-10
-1.83441e-09
2.78482e-09
3.54597e-09
-3.01079e-09
-3.7727e-09
-6.75263e-10
8.17448e-11
4.36622e-09
-2.35509e-10
-3.30314e-10
3.36114e-10
-1.31542e-09
-3.92824e-09
1.39379e-09
7.04249e-09
-2.5266e-09
-6.49606e-09
1.98018e-09
5.25059e-09
4.07726e-10
-6.65929e-09
1.00097e-09
2.51727e-09
7.29553e-10
-3.24683e-09
-3.61475e-09
7.12529e-09
2.87147e-09
-6.38201e-09
-2.27627e-10
1.58365e-10
4.39499e-09
3.04226e-09
-3.30136e-09
-4.13588e-09
4.23003e-09
-6.19835e-09
-2.33594e-09
5.22367e-10
2.80613e-09
-9.92558e-10
4.44034e-09
-4.13525e-09
1.30284e-10
-4.35378e-10
-3.14981e-09
3.70334e-09
5.1784e-09
-5.73193e-09
-2.94376e-09
3.61974e-09
4.90602e-09
-5.582e-09
-3.46994e-09
4.02015e-09
5.7331e-09
-6.28331e-09
-2.82495e-09
3.37215e-09
4.61562e-09
-5.16282e-09
7.00502e-10
-4.41412e-09
4.60814e-09
-8.94524e-10
-3.77504e-09
4.468e-09
6.37759e-09
-7.07056e-09
3.94164e-09
4.56999e-09
-4.06506e-09
-4.44658e-09
-3.03838e-09
7.0629e-09
3.01797e-09
-2.9753e-09
2.92846e-09
-3.11468e-10
3.30825e-10
1.85524e-10
-5.10653e-09
5.19621e-09
-2.75201e-10
1.66669e-09
-3.57518e-09
-1.95822e-09
3.86671e-09
6.52351e-09
-2.5547e-09
-6.49542e-09
4.68234e-09
-4.53592e-09
8.88336e-11
-2.3526e-10
3.03943e-10
6.85631e-10
-2.26355e-09
-3.33427e-09
3.01443e-09
2.58339e-09
4.31507e-09
-6.66674e-09
-4.39795e-09
6.74963e-09
-1.12288e-10
5.86273e-10
-1.06373e-11
-4.46578e-11
3.36272e-10
-2.80977e-10
-4.19218e-09
4.21698e-09
1.72118e-11
-4.20166e-11
-4.09258e-09
4.68692e-09
-4.4749e-09
5.22985e-09
2.61797e-09
-5.46674e-09
-2.38108e-09
3.60793e-09
5.56356e-09
-3.7537e-09
-3.8234e-09
4.448e-09
-5.29778e-09
-5.60622e-10
1.29036e-09
4.56804e-09
-6.52913e-09
-6.47632e-10
1.45357e-09
5.72319e-09
-5.75997e-09
-6.65498e-10
1.445e-09
4.98047e-09
-5.9202e-09
-6.065e-10
1.37745e-09
5.14925e-09
-7.43476e-09
-7.92346e-10
1.67353e-09
6.55358e-09
9.91917e-10
-5.25407e-10
-6.16548e-09
-3.633e-09
3.50729e-09
-4.66905e-09
4.79476e-09
-3.7651e-09
-1.28764e-09
-2.20051e-09
4.3102e-09
4.62324e-09
-6.73293e-09
3.99429e-09
-4.31318e-09
-2.94844e-09
5.86017e-10
4.09707e-10
-8.29363e-10
-1.66361e-10
2.29839e-09
5.77276e-09
-4.77925e-09
-5.08609e-09
-6.03816e-09
5.96545e-09
-1.78831e-11
9.05904e-11
6.07103e-09
-4.40441e-09
2.76438e-09
-4.2926e-09
-3.68237e-11
4.37141e-09
-4.19882e-11
3.76815e-09
-4.6462e-10
-3.20247e-09
-3.19041e-09
3.35057e-09
6.21622e-09
1.54008e-09
-3.18176e-09
-4.57454e-09
6.50982e-09
1.39155e-09
-2.84532e-09
-5.05605e-09
2.69358e-09
-6.05536e-09
2.73733e-09
-1.82529e-09
-3.31164e-09
2.3996e-09
-3.4018e-09
-4.16997e-09
4.38136e-09
3.24037e-10
-6.12793e-09
4.146e-09
1.65789e-09
1.44431e-09
3.00513e-10
4.01419e-09
3.04144e-10
-3.15723e-09
7.97626e-09
-4.84523e-09
-6.14291e-09
-2.54049e-09
-1.71656e-10
2.83494e-09
-6.3005e-10
1.29478e-09
5.99535e-09
-5.93026e-10
1.2357e-09
5.40197e-09
-5.4864e-10
1.16219e-09
4.80623e-09
-5.34534e-10
1.13868e-09
4.62293e-09
-5.43919e-10
1.15466e-09
4.73134e-09
-8.94642e-10
-9.44922e-10
-5.60215e-09
7.44171e-09
-2.84267e-09
2.69705e-09
1.99362e-10
-5.37443e-11
-3.6835e-09
7.33617e-10
3.21211e-09
-2.62225e-10
-4.08325e-09
4.26857e-09
6.17638e-09
-6.3617e-09
-3.22667e-09
3.49083e-09
4.82486e-09
-5.08902e-09
-3.29581e-09
3.55717e-09
4.93205e-09
-5.19342e-09
-3.34278e-09
3.59858e-09
5.00676e-09
-5.26256e-09
-3.71705e-09
3.94388e-09
5.59415e-09
-5.82099e-09
3.81506e-09
2.97837e-09
-1.02067e-09
3.36377e-09
-4.39029e-09
4.79914e-09
5.74377e-09
-6.24291e-10
4.19714e-10
-5.5392e-09
4.60947e-09
1.46973e-10
-4.27005e-09
-3.83287e-09
-9.62095e-10
4.04055e-09
-6.04883e-09
-4.40304e-09
6.41133e-09
8.42077e-10
-4.90189e-09
3.03745e-11
1.58099e-09
-6.18854e-10
-5.47071e-09
4.50857e-09
-1.19043e-10
-2.44561e-09
2.56465e-09
-3.21991e-09
-1.80311e-09
6.30704e-09
-5.69395e-09
-2.18259e-09
-3.09281e-09
3.78498e-09
1.49041e-09
3.48564e-09
-3.4176e-09
3.10426e-09
-5.48744e-09
8.93453e-10
4.79782e-09
-2.03838e-10
-3.01899e-09
1.13308e-09
-6.04993e-09
5.23724e-09
2.29472e-10
-1.04027e-08
-6.54773e-09
9.70652e-09
3.24768e-09
-2.84688e-09
3.59349e-09
1.11726e-09
3.29791e-09
3.51445e-09
-2.46919e-09
3.62282e-09
-4.66808e-09
3.04024e-09
1.13107e-08
-1.12707e-09
-1.32238e-08
-5.64101e-09
3.92588e-09
5.00137e-09
-1.42083e-09
1.52142e-09
3.4041e-09
-3.50469e-09
1.74191e-09
-2.92551e-09
5.7907e-09
7.34476e-10
9.55999e-10
-9.56203e-10
-7.34271e-10
-5.48377e-09
-7.51199e-09
5.27823e-09
7.71753e-09