/*--------------------------------*- C++ -*----------------------------------*\
  =========                 |
  \\      /  F ield         | OpenFOAM: The Open Source CFD Toolbox
   \\    /   O peration     | Website:  https://openfoam.org
    \\  /    A nd           | Version:  8
     \\/     M anipulation  |
\*---------------------------------------------------------------------------*/
FoamFile
{
    version     2.0;
    format      ascii;
    class       surfaceScalarField;
    location    "8";
    object      phi;
}
// * * * * * * * * * * * * * * * * * * * * * * * * * * * * * * * * * * * * * //

dimensions      [0 3 -1 0 0 0 0];

internalField   nonuniform List<scalar> 
33977
(
3.52356e-09
-1.53357e-10
-3.79026e-09
4.20056e-10
-8.13825e-10
-1.65373e-09
1.71839e-09
7.49165e-10
3.80945e-09
-2.75557e-10
1.52269e-10
-3.68616e-09
3.68227e-09
-3.62183e-09
-3.10377e-10
2.49938e-10
2.17472e-11
-2.31711e-10
-5.06526e-10
7.1649e-10
-1.91668e-09
1.54083e-09
-4.37977e-10
-3.21044e-09
4.14969e-09
-2.24462e-09
1.30538e-09
-1.80461e-09
-2.09319e-09
1.34752e-09
2.55028e-09
3.75689e-09
-3.87171e-09
1.85722e-10
-7.08994e-11
-9.987e-10
2.07782e-09
-3.14447e-09
2.06536e-09
2.70492e-09
3.58658e-10
-3.19506e-09
1.31486e-10
-1.32764e-09
1.37599e-09
-7.06158e-10
6.57806e-10
-5.92796e-09
-4.50298e-09
4.93171e-09
5.49923e-09
-3.40309e-09
-3.96892e-09
4.47931e-09
2.8927e-09
2.40171e-09
-2.80839e-09
-2.29442e-09
2.70111e-09
-1.18033e-09
1.34038e-09
-1.60047e-10
7.41451e-10
-8.17186e-10
-1.25191e-09
-2.69734e-09
1.07337e-10
1.71303e-09
8.76974e-10
5.40997e-09
-9.43389e-10
-5.77094e-09
1.30436e-09
2.73073e-09
-1.49824e-09
-2.67126e-09
1.43877e-09
2.53513e-09
2.52496e-09
-2.65838e-09
-1.2357e-09
5.19466e-09
-4.36865e-09
4.09685e-10
-3.86291e-09
3.87884e-09
7.753e-12
-2.36819e-11
2.60076e-09
-1.36132e-09
1.08901e-09
-2.32846e-09
-2.08397e-09
9.62615e-10
-9.28671e-10
2.05003e-09
2.49036e-09
-2.46196e-09
2.50673e-09
3.83239e-09
-3.83532e-09
-2.69847e-11
2.99147e-11
3.70449e-09
-3.28329e-09
8.33898e-11
-5.04588e-10
-3.71495e-10
-1.15267e-09
6.92363e-09
-5.39946e-09
3.85088e-09
-3.84785e-09
-3.0697e-11
2.76611e-11
3.8733e-09
-3.87588e-09
6.73681e-13
1.90833e-12
8.99429e-10
-8.23569e-10
-4.57723e-11
-3.00876e-11
-3.86784e-09
-2.4846e-11
2.97738e-11
2.58063e-09
2.41856e-09
-2.50883e-09
-3.19897e-09
1.82636e-09
-1.43985e-09
2.81246e-09
1.41046e-09
2.11233e-09
-2.93275e-09
-5.90033e-10
2.4032e-09
2.60456e-09
-2.42713e-09
1.01071e-09
-9.87906e-10
1.51736e-09
-1.54017e-09
-3.01685e-09
-2.56076e-11
-8.03984e-11
3.12286e-09
-2.37611e-09
-2.24459e-09
2.47712e-09
2.14359e-09
3.82167e-09
-3.82418e-09
-4.51517e-11
4.76689e-11
3.79996e-09
1.29611e-10
-2.28392e-10
-3.70117e-09
-6.10409e-10
-1.56785e-12
4.31646e-09
2.33575e-09
-2.68871e-09
2.43814e-09
-2.08518e-09
1.28703e-10
-6.05902e-11
3.08046e-09
-3.14857e-09
3.8986e-09
-1.09737e-12
-1.86677e-11
-1.22702e-09
-2.83312e-10
2.79188e-10
1.23114e-09
-1.31934e-09
2.06485e-09
-7.45512e-10
2.54265e-09
2.45414e-09
-2.59359e-09
-3.05514e-09
3.05952e-09
-8.73385e-12
4.35459e-12
-1.74611e-09
7.95554e-10
1.13141e-09
-1.8086e-10
-2.97199e-09
-2.4432e-09
2.60681e-09
3.12755e-09
2.52524e-11
-2.53451e-11
-3.12746e-09
3.90647e-09
-1.02736e-10
5.71625e-12
-2.30949e-09
4.8094e-10
-8.68791e-10
-3.95767e-10
3.12569e-10
1.33426e-09
-1.25107e-09
2.51873e-09
-2.51061e-09
2.53453e-09
-2.92599e-11
7.5669e-10
-4.0717e-09
3.34427e-09
3.8551e-09
-3.84272e-09
-2.34303e-11
1.10546e-11
2.38168e-09
-1.82517e-09
-1.43958e-09
8.83064e-10
-2.97054e-09
3.31704e-11
-8.08346e-11
3.0182e-09
-1.83815e-09
1.89242e-09
1.79011e-09
-1.84438e-09
2.42917e-11
-4.12456e-11
3.19318e-09
-3.42099e-09
-9.21749e-10
1.14956e-09
-3.80807e-10
-1.10776e-11
-2.8914e-09
2.67253e-09
1.4799e-09
-1.77075e-09
6.27631e-11
-3.12833e-09
-2.67149e-11
3.09229e-09
1.67067e-10
-1.83225e-09
3.64845e-09
-1.98327e-09
2.42141e-09
-3.50162e-09
7.54081e-09
-6.46059e-09
-1.06791e-09
1.1303e-09
-1.63074e-09
1.56835e-09
2.19593e-09
-1.74038e-10
2.1749e-09
-4.19679e-09
1.46728e-09
-1.63838e-09
1.71106e-10
-4.19792e-09
1.17163e-09
-1.18406e-09
4.21035e-09
5.61144e-12
-3.15937e-09
6.47412e-11
3.08901e-09
2.76628e-09
-2.86743e-09
-2.27496e-09
3.2062e-10
3.78898e-09
-3.9809e-09
3.28078e-09
-6.04278e-11
4.31168e-12
-3.22466e-09
-4.3258e-09
4.15496e-09
4.91461e-10
-5.4109e-09
-1.93336e-09
4.83723e-09
2.50703e-09
3.14418e-09
-1.78081e-09
1.39925e-09
-2.76263e-09
1.38201e-09
-3.42818e-11
2.48098e-11
-1.37254e-09
-2.85774e-09
2.90487e-09
-5.77952e-11
1.06601e-11
3.02102e-09
1.16541e-11
9.46647e-11
-3.12734e-09
-6.13831e-10
5.42562e-10
-4.74828e-10
5.46098e-10
-9.92917e-12
1.34742e-09
4.45197e-11
-4.24432e-09
-3.17219e-10
2.98462e-10
4.26308e-09
-3.06036e-09
-2.49911e-11
3.02134e-11
1.48503e-09
-9.94499e-10
2.70265e-09
2.61332e-09
2.60685e-09
-2.70144e-09
-2.35291e-09
2.41318e-09
-1.24752e-10
6.4479e-11
8.73954e-10
-4.1167e-09
4.99564e-09
-1.7529e-09
2.48634e-09
-2.74069e-09
2.90766e-09
-2.65331e-09
1.92991e-10
3.504e-09
-7.02233e-10
-2.99476e-09
3.34212e-09
5.08823e-10
-2.52426e-09
-1.32669e-09
-3.75324e-09
-1.89714e-11
1.095e-09
2.67721e-09
3.81283e-09
-3.80265e-09
-4.84474e-11
3.82674e-11
2.81368e-09
-3.43677e-09
6.23089e-10
2.8907e-10
-1.19968e-09
-3.16415e-10
7.37447e-10
-7.90091e-10
-2.25685e-09
-2.57458e-09
-1.6169e-09
6.88325e-10
3.50315e-09
1.01954e-10
5.20113e-09
-4.71101e-09
-5.92076e-10
-2.80614e-09
2.79145e-09
-2.17524e-11
3.6444e-11
-1.61243e-09
1.55523e-09
-1.57826e-09
-4.48549e-10
8.12344e-10
1.21446e-09
3.81779e-09
-3.80465e-09
-2.8465e-11
1.5325e-11
2.44507e-09
-2.6421e-09
-2.53106e-09
2.72809e-09
-3.06239e-10
4.16736e-09
-3.96072e-09
9.95957e-11
1.05747e-09
-6.07327e-09
5.35923e-09
-3.43426e-10
-5.20087e-10
1.02624e-09
-1.33535e-09
8.29191e-10
-2.84725e-09
2.82938e-09
-1.64032e-11
3.42729e-11
8.05249e-09
-7.29225e-09
1.56749e-09
-2.32773e-09
-2.01214e-09
1.98365e-09
7.57066e-10
-7.28567e-10
-2.88728e-09
2.86531e-09
-1.3972e-11
3.59434e-11
3.04439e-09
-3.06119e-09
1.86785e-11
-1.88608e-12
-1.64596e-10
4.7458e-10
3.4469e-09
3.07088e-09
8.42386e-12
-3.10726e-09
2.79524e-11
-2.93264e-09
2.90563e-09
-1.43743e-11
4.13828e-11
-2.63338e-09
2.30363e-09
2.77482e-09
-5.37842e-10
1.0263e-10
-4.86297e-09
5.29818e-09
-2.97922e-09
2.95108e-09
-1.34044e-11
4.15354e-11
-2.80533e-11
2.9641e-11
-3.02208e-09
2.99338e-09
-1.26618e-11
4.1359e-11
5.89528e-12
-2.66746e-11
-1.54869e-09
-2.16264e-09
1.44897e-10
3.56643e-09
1.23281e-09
-1.61742e-09
1.51491e-09
1.02596e-11
-3.51897e-11
3.39749e-09
-3.38083e-09
-4.04696e-11
2.38102e-11
-2.66253e-09
-2.00392e-09
1.46966e-09
3.19679e-09
-2.04205e-10
4.89983e-10
-4.38112e-10
1.52335e-10
3.02994e-09
-1.24987e-11
2.69514e-11
-3.77602e-09
1.28746e-11
-4.15068e-11
3.35062e-09
-3.34685e-09
-1.74444e-11
1.36758e-11
1.87705e-11
-3.42326e-11
2.40596e-12
-4.07256e-12
3.44729e-09
-3.42572e-09
-3.83381e-11
1.67673e-11
-2.27412e-09
2.85811e-09
2.03628e-10
-7.87621e-10
-3.39499e-09
2.89803e-09
3.82021e-10
1.14934e-10
3.49186e-09
-3.47151e-09
-3.48015e-11
1.44538e-11
1.59695e-09
-3.91372e-10
-4.56633e-09
3.36075e-09
8.26948e-10
-8.33726e-10
-1.0257e-09
1.03247e-09
-3.3647e-09
2.35045e-09
-1.71478e-09
2.72904e-09
3.55509e-09
-3.52644e-09
-5.26374e-11
2.3987e-11
3.68284e-09
-3.69317e-09
-1.33665e-11
2.36953e-11
3.76007e-09
-3.73208e-09
-4.52424e-11
1.7246e-11
5.6478e-10
-1.49724e-09
-2.73418e-09
3.66664e-09
3.66302e-09
-3.6761e-09
3.52535e-12
9.55712e-12
3.68753e-09
-3.67241e-09
-2.83021e-11
1.3187e-11
-1.16856e-09
-6.17709e-09
5.62293e-09
1.72272e-09
-3.88454e-09
-9.47822e-11
3.12462e-09
8.54712e-10
4.72562e-11
3.71052e-09
-7.5507e-11
2.01206e-09
-2.00638e-09
-5.67896e-12
7.26059e-10
3.20736e-09
-3.92647e-09
-6.94862e-12
5.74224e-09
-3.80228e-10
7.35169e-11
-5.43553e-09
-4.18739e-09
-8.36613e-11
-1.70573e-11
4.28811e-09
3.19151e-10
-2.93348e-10
-1.98254e-09
1.95673e-09
3.08725e-09
-1.26714e-11
4.82128e-11
-3.12279e-09
-5.42607e-09
-1.69215e-09
4.57871e-09
2.53951e-09
-7.25583e-11
-5.45548e-10
7.56797e-11
5.42427e-10
-1.44613e-09
-2.76299e-09
1.25454e-09
2.95458e-09
-2.7635e-09
2.76217e-09
-1.45366e-11
1.58705e-11
-3.47946e-11
1.88477e-11
9.98285e-10
7.42704e-10
-9.1404e-10
3.20356e-09
-7.88693e-10
-2.65666e-09
2.41795e-10
-1.56738e-09
2.4245e-09
1.92799e-09
-2.78511e-09
3.78903e-09
-3.76874e-09
-4.28889e-11
2.25968e-11
3.17721e-09
-2.56351e-10
7.98857e-10
-3.71971e-09
-3.84966e-10
3.80917e-09
-3.46769e-09
4.34837e-11
-3.00023e-09
2.91737e-09
2.02613e-09
-1.94327e-09
2.12161e-11
1.99085e-09
1.27076e-09
2.23745e-09
-3.28737e-09
-2.20845e-10
3.8504e-09
-4.0723e-09
-1.12942e-09
1.35132e-09
2.99571e-09
6.70488e-11
-2.83372e-09
-2.29039e-10
-8.25144e-12
-4.19806e-09
3.63232e-09
5.74e-10
-1.87838e-09
1.92733e-09
9.40779e-10
-9.89722e-10
3.32451e-09
-3.31192e-09
-2.67671e-11
1.41833e-11
-4.5377e-11
-3.27369e-09
1.6335e-10
3.15572e-09
-3.26835e-09
3.24282e-09
-8.50729e-11
1.10602e-10
9.42994e-10
-3.52796e-09
2.86317e-09
-2.78209e-10
-2.11244e-09
2.00889e-09
-1.7346e-09
-1.00771e-09
9.32552e-10
-8.38587e-10
9.13741e-10
-3.24383e-09
2.13018e-10
9.47213e-10
2.08359e-09
-3.5184e-09
1.03157e-11
1.13099e-10
5.19536e-11
-1.44811e-10
-2.26006e-09
-1.63386e-09
1.50429e-09
1.29572e-10
3.11348e-09
-3.11827e-09
-7.98085e-12
1.27721e-11
-3.83231e-09
3.80499e-09
8.02756e-11
-5.29531e-11
-5.02703e-10
4.58562e-09
-4.62076e-09
-9.9825e-10
2.41355e-10
-4.14406e-10
1.1713e-09
2.30051e-09
-5.32492e-09
7.48579e-09
-4.46139e-09
-9.47316e-11
2.72095e-10
-1.94836e-10
1.74719e-11
2.75462e-10
-3.63815e-09
-8.84236e-11
3.45111e-09
2.09033e-09
-1.56851e-09
-5.21819e-10
-1.10734e-10
-6.57892e-11
3.07523e-09
-2.89871e-09
-1.84625e-09
-7.28176e-10
1.61161e-09
9.62818e-10
2.45254e-11
-1.66657e-11
2.37727e-10
7.84423e-10
-2.85621e-10
-7.36529e-10
2.71308e-09
-7.06424e-10
-1.9292e-09
-7.74637e-11
-2.07902e-10
1.17011e-09
-5.02145e-09
4.05924e-09
1.44973e-09
-6.74803e-10
7.35551e-10
-1.51048e-09
-4.00218e-09
4.44077e-09
-4.11227e-09
3.67368e-09
-8.01781e-10
8.25605e-10
2.13904e-10
1.56206e-09
2.34417e-09
-2.44022e-09
-1.466e-09
2.71944e-09
-1.23473e-09
1.06886e-09
-2.55357e-09
-1.7078e-09
-2.23894e-09
7.49564e-10
3.19718e-09
-3.82822e-10
6.33125e-11
3.16265e-09
-2.84314e-09
6.21005e-10
5.13745e-11
-3.76031e-11
-6.34777e-10
-3.74926e-09
3.2733e-10
-9.64758e-11
4.55151e-09
-1.96359e-09
-3.70083e-09
1.11291e-09
4.32698e-09
-4.29337e-09
-7.64936e-12
-2.59547e-11
3.70987e-09
-3.32707e-11
1.09254e-11
3.1544e-09
-3.10847e-09
-6.29676e-11
1.70356e-11
3.4148e-11
-4.77987e-11
-3.30507e-09
3.50537e-09
-3.21174e-10
1.20872e-10
3.22587e-09
-3.18983e-09
-5.77922e-11
2.17489e-11
-8.54555e-10
4.5895e-10
9.03964e-10
-5.0836e-10
-1.51425e-09
7.79468e-10
3.2894e-09
-2.55462e-09
-9.02978e-10
1.18999e-09
-3.07453e-09
2.78752e-09
-1.99765e-09
2.74359e-09
2.02035e-09
-1.41587e-10
4.66257e-09
-4.61251e-09
9.15247e-11
4.96903e-09
-3.05561e-09
-1.14095e-09
-7.72472e-10
-1.13629e-10
3.58723e-09
-6.4289e-11
-3.40931e-09
-2.25886e-09
3.07999e-09
1.8514e-09
8.85073e-10
-8.37927e-10
3.23847e-10
-3.70994e-10
2.30305e-09
-5.08617e-09
-1.53287e-09
4.316e-09
1.71898e-11
-3.93941e-11
2.05292e-09
-1.40504e-09
2.07156e-09
3.29111e-09
1.25693e-09
-2.35518e-09
-2.19285e-09
-3.39585e-09
3.14715e-09
9.07588e-10
-6.58887e-10
-1.25127e-09
-1.03309e-09
2.05928e-09
2.25088e-10
-2.74203e-09
2.74408e-09
-1.10509e-11
9.00549e-12
-1.37489e-09
1.41528e-09
-1.0283e-09
-4.51537e-09
8.06726e-10
-4.06153e-11
2.77885e-09
-2.72968e-09
-8.55732e-10
8.06565e-10
1.03588e-09
-4.43243e-09
-8.27116e-10
4.22367e-09
4.2196e-09
-4.27409e-09
1.09037e-09
-4.51511e-09
-1.47526e-09
6.62409e-09
-6.33724e-10
1.59241e-09
-1.43406e-09
-2.60005e-09
2.4417e-09
1.67577e-09
-1.87238e-10
-1.48854e-09
1.0025e-09
-4.55849e-09
5.85649e-09
-1.30106e-09
3.07659e-09
-2.25561e-09
4.80085e-10
3.92021e-09
3.5924e-10
-4.46621e-09
1.86754e-10
-2.25029e-11
-3.6926e-09
3.69116e-09
2.39435e-11
5.63953e-10
-5.83385e-11
-5.78173e-10
-2.72525e-09
1.20453e-09
-6.65444e-10
2.18617e-09
4.98342e-09
1.34827e-09
-3.28318e-09
-3.04851e-09
-3.73977e-09
3.75477e-09
2.06396e-11
-3.56445e-11
4.77024e-09
-4.45844e-09
-3.71489e-09
-7.12638e-12
3.12205e-09
1.26245e-11
4.72472e-11
2.91101e-09
5.73045e-11
-3.01556e-09
4.35703e-10
-4.33952e-10
1.04463e-10
-1.06214e-10
2.64461e-10
-5.22183e-10
-2.15157e-10
4.7288e-10
2.3497e-09
1.86291e-09
-4.07749e-09
-1.35123e-10
7.62269e-09
-5.75648e-09
5.55193e-10
3.13622e-09
1.26656e-09
-1.91643e-09
4.96543e-10
-9.54612e-11
-5.06744e-10
1.05663e-10
-1.52855e-09
-2.26984e-09
-1.31333e-11
3.81152e-09
3.25542e-09
-3.27269e-09
6.7845e-12
1.04838e-11
-1.18825e-09
1.15212e-09
-2.7633e-10
3.12453e-10
1.49036e-10
-2.13828e-10
-3.21831e-09
1.2507e-09
3.48632e-09
-1.51871e-09
4.62321e-09
7.57226e-10
-4.50648e-09
3.83102e-09
-4.71263e-11
1.60658e-11
-8.18561e-10
-3.56083e-09
2.81201e-09
1.93996e-09
-1.29857e-09
1.41153e-09
5.76052e-11
3.07466e-10
-5.26031e-10
1.60959e-10
-1.12504e-09
9.15416e-10
-9.21398e-10
1.13103e-09
-4.62407e-09
4.66784e-09
-4.3334e-10
3.89574e-10
4.53776e-10
-2.25073e-09
-3.9371e-10
2.19066e-09
1.13537e-10
-1.06528e-10
-3.95109e-09
3.94408e-09
-6.46635e-10
1.40393e-10
-1.75388e-10
6.8163e-10
2.84024e-09
5.46703e-11
-2.88203e-10
-2.60671e-09
-3.72834e-09
-3.32001e-11
2.17743e-11
-1.58558e-09
2.88205e-09
-2.7426e-09
-5.86219e-09
-2.21625e-09
1.81473e-09
6.26371e-09
2.29987e-09
-2.00033e-09
-2.46321e-09
2.16367e-09
9.93525e-11
1.09089e-10
-3.16838e-09
2.95994e-09
3.2379e-11
-1.82101e-11
-5.71156e-09
5.76563e-09
-9.98796e-11
4.58162e-11
-3.66464e-09
2.23477e-09
1.24535e-09
1.84513e-10
-2.33967e-09
2.21445e-09
1.71763e-09
-2.24499e-09
2.38775e-09
2.1571e-09
2.07263e-10
5.06518e-10
-5.93732e-10
-1.20049e-10
1.52354e-09
-4.46063e-09
3.93329e-09
-9.96205e-10
6.18076e-10
-5.9615e-10
2.5184e-10
-2.73765e-10
4.34917e-11
-5.48449e-11
3.71938e-09
-6.16753e-09
6.05528e-09
-3.60714e-09
-1.49929e-09
-2.06374e-09
7.88768e-10
2.77426e-09
7.26798e-11
-2.75526e-09
-4.79013e-11
2.73048e-09
-1.25972e-09
-1.94709e-09
4.95212e-10
2.7116e-09
2.68007e-09
-1.93009e-09
1.18791e-09
-1.93789e-09
-1.29009e-09
-1.43889e-10
1.43398e-09
2.94543e-10
-3.33268e-09
4.9946e-09
-1.95646e-09
-2.72185e-09
2.70582e-09
-1.73734e-11
3.34087e-11
7.77456e-10
-6.62457e-10
-1.98441e-09
1.86941e-09
1.88999e-10
-2.57677e-09
2.81922e-09
-4.31448e-10
-3.20847e-09
3.15764e-09
-3.61726e-11
8.70003e-11
-1.06102e-09
-2.10169e-09
3.1962e-09
-3.34957e-11
5.4035e-09
-4.4618e-09
-1.40929e-09
4.67589e-10
-3.47144e-09
-4.36762e-09
2.42816e-09
3.84842e-09
-2.58857e-11
-3.82751e-09
4.97829e-12
4.78232e-09
-3.28594e-10
-4.78238e-09
3.28648e-10
5.66206e-10
-5.38611e-10
2.48955e-10
-2.7655e-10
-3.13467e-09
4.02431e-09
-9.38676e-10
4.90385e-11
1.04031e-10
-7.53461e-10
-1.52351e-10
-1.7434e-10
-3.20232e-10
1.59735e-10
3.34837e-10
2.04509e-09
3.05028e-09
-2.75962e-09
-6.74198e-10
8.18517e-10
-4.61904e-09
4.47472e-09
3.45848e-09
5.36584e-10
-4.70868e-11
-3.94797e-09
-2.02588e-10
-1.05995e-09
1.26253e-09
-7.9536e-10
1.93691e-09
8.91483e-10
-2.03304e-09
1.92309e-09
-1.23095e-09
2.45205e-09
-4.64036e-09
-3.89177e-09
3.54041e-09
4.99173e-09
-3.25481e-09
-1.1364e-10
6.33754e-11
5.12686e-10
-4.93132e-10
2.26309e-10
-2.45863e-10
-2.38399e-09
2.55353e-10
-1.53841e-10
2.28248e-09
-1.77012e-09
-3.46089e-09
1.46647e-09
3.76454e-09
-3.71578e-09
3.72305e-09
1.82139e-11
-2.5479e-11
-3.29558e-10
8.44922e-10
-2.03243e-09
1.51706e-09
1.1592e-09
-1.17613e-09
-2.11308e-09
2.13001e-09
2.38922e-09
-2.61931e-09
-2.5106e-09
-1.18937e-09
4.77418e-09
-3.58481e-09
-3.64965e-09
2.70671e-09
3.89523e-09
-2.95229e-09
8.27062e-12
-1.7664e-11
1.40703e-10
-5.98042e-09
-1.62882e-10
6.0026e-09
-1.47137e-09
-4.2951e-09
5.09227e-09
-6.92555e-10
-2.97307e-10
9.89862e-10
1.01427e-10
-3.12227e-09
-7.3239e-10
4.73942e-10
-4.31268e-10
2.15818e-10
-2.58492e-10
2.42838e-10
-7.37089e-10
-2.21131e-09
2.70556e-09
-3.09425e-09
4.08775e-12
1.95279e-10
2.89488e-09
3.62183e-09
-8.67385e-11
1.99999e-11
1.32887e-09
-5.48592e-09
5.21451e-09
1.08519e-09
-6.61438e-10
-1.16087e-09
7.37122e-10
2.43338e-11
-1.64612e-10
3.22443e-09
-3.08415e-09
3.43405e-09
-4.20797e-09
7.94337e-10
-2.04158e-11
-3.22125e-09
6.79515e-11
3.20255e-09
-4.9246e-11
3.90119e-10
-3.64743e-10
1.98524e-10
-2.23899e-10
4.13511e-09
-4.40227e-09
-1.00513e-09
1.27229e-09
-3.72331e-09
3.67862e-09
9.69558e-11
-5.22664e-11
1.10119e-09
7.7284e-10
-1.87403e-09
-3.80306e-12
7.7957e-11
-2.49242e-09
2.15309e-09
-3.66671e-10
7.06001e-10
-1.20396e-09
1.20533e-09
3.0272e-09
-3.02856e-09
1.40265e-10
-1.15026e-09
1.69756e-10
4.01076e-09
-3.98848e-09
-1.92038e-10
-3.70159e-09
3.24123e-10
3.47814e-09
-1.00668e-10
5.83523e-10
-3.1861e-10
-3.07491e-10
4.25771e-11
4.29615e-09
-1.79398e-09
-3.73787e-09
8.79967e-11
-7.67006e-11
3.92103e-09
-3.93232e-09
8.68517e-11
-2.4421e-10
2.94323e-09
-2.78588e-09
3.3961e-10
-3.22647e-10
1.79642e-10
-1.96604e-10
-3.0569e-09
3.84433e-09
-1.55353e-09
7.66104e-10
2.63614e-10
-3.7679e-10
4.11825e-09
3.39485e-10
-2.10615e-09
-2.35159e-09
-3.62431e-09
3.56634e-09
8.78083e-11
-2.9842e-11
-5.29209e-11
4.30634e-11
4.45561e-10
9.78555e-10
2.69517e-09
-3.56971e-11
-3.65748e-09
3.6374e-09
5.57833e-11
3.01374e-10
-2.87721e-10
1.6089e-10
-1.74543e-10
-3.42249e-09
3.3058e-09
1.84009e-10
-6.73212e-11
1.98989e-09
2.47438e-10
-1.72515e-09
-5.12175e-10
2.77474e-10
-3.00984e-10
1.45878e-10
-1.22369e-10
-3.69527e-11
1.18637e-10
-3.52994e-09
3.48891e-09
6.80395e-11
-2.70043e-11
-3.55323e-09
3.60896e-09
-2.54758e-11
-3.02563e-11
2.23231e-10
-2.02047e-10
1.47905e-10
-1.69089e-10
-2.64018e-10
2.81924e-10
1.82647e-10
-2.00554e-10
-1.65647e-09
1.19887e-09
-2.90711e-09
-3.46549e-09
3.4914e-09
-1.1725e-11
-1.4194e-11
-5.62615e-09
3.89301e-11
-1.24342e-10
1.87119e-09
-1.79832e-09
-3.40036e-09
3.3275e-09
1.03429e-09
-1.01282e-09
-1.14651e-09
-8.44815e-10
9.05633e-10
1.02437e-09
-4.49346e-09
-2.1286e-09
1.88303e-09
4.73902e-09
2.50142e-09
-2.82039e-09
3.48434e-09
-3.16537e-09
1.79494e-10
1.14585e-10
-1.29876e-10
-1.64203e-10
2.64617e-11
-3.1978e-09
-1.39524e-11
3.18529e-09
1.33035e-09
-4.19408e-09
3.00036e-09
-1.36625e-10
-3.93453e-09
3.76172e-09
1.72806e-10
3.91155e-10
1.76112e-10
-1.52982e-10
-4.14285e-10
2.89644e-10
-3.43148e-10
-2.6614e-09
2.65215e-09
-1.74405e-11
2.66901e-11
-2.00171e-09
2.18594e-09
1.4613e-09
-1.64553e-09
3.53196e-11
-1.68753e-11
-1.58827e-12
-2.22961e-12
9.45266e-11
-9.07087e-11
-3.37034e-09
5.54341e-10
-3.6981e-10
3.18581e-09
-2.22472e-09
-3.56421e-09
3.23716e-09
2.55177e-09
3.19072e-09
3.31086e-11
-3.28207e-09
5.82342e-11
-2.73517e-09
-1.20944e-09
2.51056e-09
-3.46842e-09
3.2246e-09
2.00675e-09
-1.76293e-09
-7.03085e-10
-2.55824e-09
1.08491e-10
3.15284e-09
6.84654e-10
4.3416e-11
-6.6094e-10
-6.71307e-11
3.64957e-11
-5.0114e-11
-6.26423e-09
4.95786e-09
5.02575e-09
6.52476e-10
-5.65713e-10
5.63297e-10
-6.5006e-10
5.45282e-09
-5.31823e-09
-2.78134e-10
1.4355e-10
4.8489e-10
2.23782e-09
-2.79767e-09
7.49693e-11
1.19693e-11
-1.24846e-11
-1.84054e-11
1.89206e-11
3.48567e-10
-1.83549e-10
-3.39357e-10
-2.45792e-09
3.47839e-09
7.47224e-10
-1.76769e-09
3.2277e-09
-3.12437e-09
1.0847e-10
-2.118e-10
-3.98445e-09
-3.89737e-09
2.7188e-09
5.16302e-09
2.35706e-09
-4.59967e-10
4.72831e-10
-2.36993e-09
-3.79335e-09
3.73125e-09
2.37266e-10
-1.75161e-10
9.39275e-10
-4.30047e-09
4.31337e-09
-9.52175e-10
9.11414e-11
-5.67849e-11
-3.05334e-09
3.11484e-09
-3.71115e-09
-3.40896e-09
-1.47996e-09
1.19629e-09
3.69264e-09
1.4804e-09
-6.60123e-10
5.55719e-10
-1.72938e-09
-4.23884e-09
1.53578e-09
5.9473e-11
-5.39671e-11
5.58447e-10
1.88447e-09
-2.50912e-09
-8.43334e-10
1.46799e-09
1.46473e-09
-4.04957e-09
-2.74008e-09
2.82487e-11
3.09008e-09
-4.84728e-12
5.95713e-12
7.78725e-13
3.77743e-10
-3.29803e-10
-2.52145e-10
-3.71878e-09
-3.37887e-11
3.67839e-11
1.34316e-10
-4.85082e-10
7.49111e-10
-3.98345e-10
3.21427e-09
-1.0612e-09
2.16094e-10
-2.36916e-09
-4.43313e-09
8.39888e-10
-6.51079e-10
2.97082e-09
-2.17591e-09
-1.19692e-09
4.02013e-10
3.45538e-09
-6.99114e-09
-1.92172e-09
5.45748e-09
-4.68535e-11
3.13854e-09
1.63915e-10
-3.25561e-09
5.86232e-09
4.40136e-11
8.94822e-11
-3.5172e-11
-4.41672e-09
-1.54445e-09
4.76825e-09
1.19292e-09
-8.67438e-10
2.69627e-09
5.82755e-10
-2.41159e-09
-4.28517e-09
-1.90657e-10
4.5404e-10
4.02179e-09
-3.77735e-09
3.98317e-09
3.89622e-09
-4.10204e-09
1.9588e-09
-2.23843e-10
-2.61072e-09
8.75759e-10
-2.58925e-09
1.52692e-09
-1.74638e-09
2.8087e-09
4.30768e-09
2.42682e-09
-5.40415e-09
-1.21941e-09
-2.24219e-09
3.03025e-09
4.31354e-10
7.02666e-10
-3.57441e-09
2.73553e-09
1.36217e-10
-5.35314e-09
1.08255e-10
8.65801e-10
4.37908e-09
-3.08989e-09
3.52671e-09
4.27102e-10
-8.63918e-10
1.59155e-09
-1.43891e-09
-2.30443e-09
2.15179e-09
2.9692e-09
-3.26729e-09
3.8443e-10
-8.63393e-11
1.77562e-09
-2.17429e-09
4.23189e-09
-3.83322e-09
-1.65586e-09
7.18405e-10
-3.02861e-10
1.24031e-09
-1.85289e-09
2.09089e-09
2.51201e-10
-3.22868e-10
2.92234e-10
-2.20567e-10
-8.41702e-11
1.02536e-09
-2.80504e-09
1.86385e-09
3.21451e-10
-2.18578e-09
2.3181e-09
-1.61753e-10
2.88721e-10
-2.75865e-10
1.48898e-10
-2.13126e-09
-1.43642e-09
2.08582e-09
1.48186e-09
2.10514e-10
7.48984e-10
-1.44395e-10
-8.15103e-10
3.44901e-09
-5.22308e-09
2.43938e-09
-6.65308e-10
-8.69097e-10
1.41166e-09
-3.21167e-09
2.66911e-09
2.04708e-09
-3.19336e-09
-4.39303e-10
-3.00578e-12
4.55259e-12
-9.17279e-11
9.01811e-11
1.65945e-09
-8.07327e-10
1.08784e-09
-1.66613e-09
-2.62446e-09
1.08015e-09
-3.1233e-09
3.06979e-09
-2.35513e-11
7.70564e-11
7.01337e-11
-6.25901e-11
3.90414e-09
-3.91169e-09
7.02456e-12
1.39507e-10
-3.77965e-12
-1.42752e-10
2.11358e-10
-2.39917e-10
-1.9769e-09
-1.8405e-09
2.01279e-09
-3.29095e-09
3.67051e-09
-4.15692e-09
2.18657e-09
8.0856e-10
-3.44324e-09
4.48109e-10
3.02459e-09
-1.21238e-09
-2.5153e-09
-4.50994e-09
-1.07407e-09
9.59941e-10
-3.53937e-09
-1.92206e-09
3.43632e-09
2.02512e-09
3.0766e-09
-3.07574e-09
2.48636e-11
-2.57281e-11
4.90701e-10
7.68028e-09
-1.99659e-09
-6.17438e-09
-3.4392e-09
1.12551e-10
3.36585e-09
-3.92043e-11
-2.35484e-09
-2.84696e-09
2.88562e-09
2.31618e-09
3.33747e-09
-2.93594e-09
-1.46255e-09
-2.05635e-09
1.63294e-09
-1.09403e-09
1.51744e-09
-1.83863e-10
-2.09004e-09
2.27391e-09
3.54371e-09
-2.36601e-09
1.66595e-09
-6.21515e-09
3.62343e-09
9.25769e-10
3.79084e-12
5.30503e-12
-9.09587e-12
2.81735e-09
-3.84319e-09
-1.97439e-09
-2.08446e-09
-1.19773e-09
2.40267e-09
8.7952e-10
-1.09127e-09
9.81984e-10
-3.71859e-10
4.81146e-10
2.20558e-10
-4.15128e-09
4.07944e-09
-1.48717e-10
8.86798e-10
-5.41967e-10
3.33657e-09
-2.40717e-09
-3.17402e-09
2.51188e-10
-2.81132e-10
-3.46819e-11
-3.59555e-09
3.56871e-09
6.15179e-11
2.29135e-10
-3.25312e-09
-1.77382e-10
3.20136e-09
1.79388e-09
-2.33696e-09
2.08596e-09
-1.54287e-09
2.15139e-09
-3.40907e-09
1.50055e-09
-2.42866e-10
1.60936e-09
9.26373e-10
-3.17989e-10
-2.21775e-09
2.50977e-09
8.03299e-11
-1.76916e-10
-2.52447e-09
2.49569e-09
-6.86756e-10
5.49044e-10
-4.85398e-10
6.2311e-10
6.7362e-10
-1.73857e-09
1.826e-09
-7.61053e-10
-4.04982e-09
4.11645e-09
1.03128e-10
1.78152e-09
-1.73426e-09
1.80285e-09
-3.65468e-09
-1.26199e-09
3.11382e-09
-4.55905e-09
8.41252e-11
-1.80385e-10
4.65531e-09
1.07302e-11
-8.20703e-11
-7.77714e-10
5.50511e-09
1.39746e-10
-4.86715e-09
3.23294e-10
-3.49973e-10
2.68513e-10
-2.41834e-10
3.4334e-11
-1.59837e-11
-3.59236e-11
4.52762e-11
6.11653e-10
3.49854e-09
-5.02654e-09
9.68914e-10
5.59087e-10
-1.6005e-09
1.98185e-09
1.51107e-09
1.87582e-11
-3.27221e-11
2.7628e-09
-2.47821e-09
-3.09623e-09
2.81164e-09
7.49713e-10
3.44411e-10
-1.94695e-10
2.23339e-09
-2.76829e-10
-3.94507e-09
1.98851e-09
2.38332e-10
-2.64257e-10
2.90942e-10
4.2317e-09
-4.04392e-10
4.2543e-12
-1.12559e-11
-2.95606e-11
3.65621e-11
-4.09532e-09
5.07872e-09
-3.33824e-09
8.25218e-11
-3.99417e-09
4.02519e-09
-2.17914e-09
2.04942e-09
-3.60534e-09
3.73507e-09
1.38286e-10
-2.89486e-09
1.50269e-11
2.74155e-09
-1.43476e-10
3.86293e-09
-3.87438e-09
1.54924e-10
-2.84303e-09
3.75975e-09
2.79732e-11
-9.44691e-10
-1.18443e-09
3.01936e-09
7.56595e-10
-2.59152e-09
3.79771e-09
-3.79573e-09
2.54852e-11
-2.747e-11
4.1166e-09
-3.23501e-09
-1.3843e-09
2.03307e-09
-9.24531e-11
-1.86055e-09
-8.00632e-11
2.37528e-09
-1.30889e-09
-2.68662e-09
2.67442e-09
1.96746e-11
-7.47066e-12
3.17993e-09
-3.19501e-09
4.05891e-11
-2.55022e-11
-4.31216e-10
-1.29628e-09
6.3622e-10
-1.94319e-09
2.95533e-09
-3.08558e-09
1.81159e-11
3.06906e-09
-1.60078e-12
2.2363e-10
-2.42821e-10
-5.81083e-10
5.58827e-10
-5.8713e-10
5.70396e-10
-7.21959e-10
7.38693e-10
3.04283e-09
-3.0374e-09
2.01862e-11
-2.56192e-11
3.09684e-09
6.5385e-11
-4.32562e-11
-3.11897e-09
3.69855e-09
3.45787e-09
-3.12308e-09
-4.03335e-09
-2.83782e-09
3.3987e-09
-2.21735e-09
3.21323e-09
-3.18671e-09
-3.09392e-11
4.41232e-12
2.6562e-09
5.12727e-09
2.69017e-10
1.51712e-09
1.98429e-09
-1.07691e-09
-2.83216e-09
2.7748e-09
1.02696e-10
-4.53393e-11
-2.66987e-09
3.62588e-10
2.84877e-09
-2.62969e-09
-1.52014e-09
-5.83461e-11
1.99045e-09
-1.9321e-09
2.08089e-10
-2.49239e-10
3.51216e-11
-6.4059e-11
-4.10372e-09
-1.20822e-09
2.2586e-09
-1.66965e-09
1.96059e-09
3.1749e-09
-3.14358e-09
-4.18857e-11
1.05614e-11
5.49285e-10
-5.69669e-09
5.55276e-09
-4.05358e-10
-1.93291e-09
-5.61711e-10
9.16368e-10
-3.4972e-09
9.30376e-10
2.86137e-09
7.20104e-10
-1.07666e-09
-1.69978e-09
-2.30902e-10
-2.21458e-09
2.31131e-09
1.34175e-10
-4.58412e-09
-2.04185e-10
4.6749e-09
1.13409e-10
-5.3759e-09
-4.461e-10
5.2515e-09
5.705e-10
3.12956e-09
-3.1109e-09
-2.89176e-11
1.02595e-11
2.71818e-09
-4.18523e-11
-2.70167e-09
2.53495e-11
9.6921e-12
-4.05694e-09
-2.64246e-11
4.07368e-09
4.49015e-11
-4.42943e-11
9.89929e-13
-1.59717e-12
-1.11506e-10
5.2514e-11
3.90741e-09
-4.03689e-09
-3.35519e-10
5.79063e-10
3.76423e-09
4.51726e-09
-5.04361e-09
-3.23788e-09
6.07108e-11
-7.18879e-11
5.0772e-10
1.12925e-09
1.70925e-09
-1.37252e-09
-1.46597e-09
1.82826e-10
-2.0796e-10
3.11177e-09
-3.1177e-09
-4.53892e-12
1.04703e-11
4.64776e-11
1.43133e-10
-2.98713e-09
2.79752e-09
-1.67589e-09
-2.53048e-09
3.11508e-09
1.09129e-09
1.28261e-10
2.47857e-09
1.19982e-10
-2.72682e-09
-3.14914e-09
-9.01131e-10
3.98808e-09
6.21859e-11
-5.88813e-09
6.2495e-09
-1.13908e-09
1.07941e-09
-1.23587e-09
-2.33583e-09
2.49229e-09
7.14735e-11
-3.71293e-11
2.5355e-11
-2.80869e-11
1.2959e-10
-1.26858e-10
3.09506e-09
-3.05268e-09
-6.55728e-11
2.31942e-11
-6.54323e-12
-1.82145e-09
1.82799e-09
5.97791e-11
-5.56483e-11
3.88587e-09
-3.89e-09
1.4487e-09
3.015e-09
-4.11052e-09
-3.53185e-10
-5.46106e-11
-2.43218e-09
4.88917e-11
2.4379e-09
-6.58006e-11
1.49451e-11
-2.34895e-11
7.4345e-11
2.995e-09
-2.95723e-09
-5.78371e-11
2.00636e-11
3.6718e-09
-1.75376e-09
5.05099e-12
1.64925e-10
-1.86198e-10
-2.93334e-09
3.04155e-09
1.37828e-11
-1.21994e-10
-3.43153e-09
3.82202e-09
-7.62944e-10
3.72449e-10
3.98056e-09
4.98448e-09
-5.20082e-09
2.9154e-09
-2.90299e-09
-1.12819e-11
-1.13063e-12
1.71286e-10
-3.37807e-09
3.27946e-09
-2.94985e-09
-6.58161e-11
-5.66239e-11
3.07229e-09
2.39907e-09
1.37814e-11
-6.61568e-09
4.20283e-09
-3.18251e-09
-7.32883e-11
3.30191e-09
-4.61035e-11
7.73244e-09
-6.45127e-09
-1.28118e-09
7.77788e-10
-5.05287e-09
5.60395e-09
-4.06549e-09
2.57064e-09
-1.98205e-09
-2.51481e-09
2.23686e-09
2.26e-09
-4.25641e-09
-4.87464e-09
3.70498e-09
-3.03284e-09
2.90637e-09
1.33492e-09
-1.48773e-09
4.69618e-10
-3.16811e-10
-1.90479e-09
2.36593e-09
-4.61141e-10
1.33023e-09
-4.22844e-09
-4.97639e-10
1.80105e-09
-1.95313e-10
-1.28659e-09
2.9982e-09
-2.99449e-09
2.08878e-11
-2.46032e-11
7.38755e-11
-8.32414e-11
1.5281e-11
-5.91505e-12
1.44139e-10
-1.54386e-10
-3.96364e-09
6.40638e-11
3.98757e-09
4.99986e-09
-4.97065e-09
-8.8388e-11
5.91781e-11
1.78863e-09
-1.81114e-09
-2.81523e-09
2.60789e-09
-1.31977e-10
3.39309e-10
1.21384e-09
-1.13888e-09
-5.41649e-09
5.34154e-09
3.81634e-09
-3.78085e-09
2.01786e-11
-5.5671e-11
-2.42673e-09
2.32699e-09
2.60116e-09
-5.35481e-09
1.42164e-09
3.93806e-09
-4.88557e-12
-5.95529e-11
6.20121e-11
-4.36781e-12
1.90863e-12
-3.11663e-10
1.73464e-10
-1.82033e-10
1.02883e-10
-3.51688e-09
3.44068e-09
-2.66799e-11
-4.47494e-09
4.60602e-09
-2.35887e-10
1.04802e-10
-4.59275e-09
2.22017e-10
4.18349e-09
1.87242e-10
-1.3737e-09
-1.31496e-09
9.68259e-10
1.7204e-09
-3.22653e-09
1.28306e-09
-1.25551e-09
1.51369e-10
-2.29122e-10
-4.37215e-09
3.84505e-09
-9.9682e-10
1.52392e-09
1.81121e-09
-1.73616e-09
2.66501e-09
-2.74006e-09
-3.24861e-11
3.06894e-09
-3.03621e-09
2.97965e-09
-2.18244e-11
7.83792e-11
-3.08756e-11
-3.52807e-09
3.49942e-09
5.95245e-11
-3.7689e-09
3.06317e-09
3.47937e-09
-2.77365e-09
3.23432e-11
-1.42785e-11
4.70474e-09
-4.70137e-09
-2.25864e-11
1.92151e-11
3.00977e-09
2.49091e-10
-3.21773e-09
-4.11254e-11
-1.92131e-09
3.2692e-11
1.88862e-09
-2.59617e-09
2.43245e-09
-1.75759e-09
3.80908e-11
-2.58347e-10
-2.36829e-09
2.01845e-09
1.12724e-09
-7.77409e-10
-9.909e-11
-3.84512e-09
1.96076e-10
3.74814e-09
2.95735e-09
-4.74297e-09
2.82937e-09
-1.04374e-09
-3.31548e-09
2.38232e-09
-1.04889e-09
1.57107e-09
-1.56532e-09
-1.94757e-09
1.94183e-09
-2.38812e-09
-1.84477e-09
2.25599e-09
-8.07786e-11
1.61711e-10
-3.23542e-09
3.15449e-09
2.44997e-09
2.27696e-09
-1.3848e-09
-7.96983e-11
1.33613e-10
-4.61297e-09
-1.69829e-10
-3.32829e-09
5.89205e-11
-2.22626e-10
-3.58057e-09
4.32853e-10
1.62166e-09
-2.33925e-09
-3.0513e-09
1.95148e-09
-2.94733e-09
2.54229e-09
-1.54644e-09
1.06549e-11
-4.52326e-11
-1.11527e-09
4.5916e-10
-1.96868e-09
2.62479e-09
-5.57526e-09
9.26901e-10
-8.07794e-10
3.59137e-09
-8.15525e-11
-2.70203e-09
3.49746e-09
-1.33957e-09
4.86612e-10
-2.6445e-09
-2.34958e-11
-9.3857e-11
-4.82881e-12
1.22182e-10
-2.10024e-09
-1.44358e-09
1.41255e-09
3.05098e-09
-3.07407e-09
2.21895e-11
9.00341e-13
4.72221e-09
-8.6306e-12
-8.83683e-12
1.06164e-08
-2.81677e-09
-7.30894e-09
1.02364e-09
1.37297e-09
-9.46879e-10
-4.15021e-09
2.12611e-09
-1.17713e-09
3.20123e-09
-6.08012e-09
1.34632e-09
5.80569e-09
-1.07189e-09
2.83966e-09
-1.19666e-09
2.7656e-10
-1.91956e-09
-1.98715e-11
4.38949e-09
-4.44932e-09
4.70905e-09
1.33801e-11
-2.25588e-13
-4.65341e-09
-7.19034e-11
2.39418e-11
2.96998e-09
5.46627e-12
7.60328e-12
-2.98305e-09
-2.61732e-09
1.66106e-10
-5.16786e-10
2.968e-09
2.91384e-09
-1.9289e-09
1.46503e-09
-3.44095e-09
6.25282e-10
-1.64961e-11
1.13023e-10
-1.24133e-10
1.80526e-11
-6.9432e-12
-3.90313e-09
-2.21864e-10
5.64893e-10
3.5601e-09
-8.07707e-10
9.1297e-10
-9.44064e-11
1.09323e-10
-4.66832e-09
-1.19907e-10
5.94806e-12