/*--------------------------------*- C++ -*----------------------------------*\
  =========                 |
  \\      /  F ield         | OpenFOAM: The Open Source CFD Toolbox
   \\    /   O peration     | Website:  https://openfoam.org
    \\  /    A nd           | Version:  8
     \\/     M anipulation  |
\*---------------------------------------------------------------------------*/
FoamFile
{
    version     2.0;
    format      ascii;
    class       volVectorField;
    location    "8";
    object      U;
}
// * * * * * * * * * * * * * * * * * * * * * * * * * * * * * * * * * * * * * //

dimensions      [0 1 -1 0 0 0 0];

internalField   nonuniform List<vector> 
5119
(
(0.000902335 0.00141808 9.40696e-23)
(0.000205594 6.58142e-05 4.24706e-21)
(0.00083608 1.5514e-05 -2.47386e-21)
(0.000602726 0.000803777 -9.97941e-25)
(0.000775398 0.00125987 1.88195e-22)
(0.000869597 6.96529e-05 1.27166e-21)
(0.000270074 0.000203426 -1.29716e-21)
(3.25861e-05 -4.23967e-06 -6.30983e-23)
(0.000216288 0.0010871 -1.08483e-21)
(0.000960471 0.00148048 7.62545e-23)
(0.000636817 0.000802925 1.39611e-24)
(0.000733248 0.00112932 -3.18253e-22)
(0.000724947 0.0011722 -2.18383e-22)
(0.00070998 0.000490711 9.87779e-22)
(0.000823549 0.0013109 -7.2715e-23)
(0.000665013 0.00114902 0)
(0.00080783 0.00140956 2.81693e-22)
(0.000820763 0.00129151 -9.88589e-23)
(0.000922697 0.00146064 2.79555e-22)
(0.000760001 0.00120399 6.24464e-23)
(0.000735161 0.001219 2.77476e-22)
(0.000671418 0.00107444 7.39309e-22)
(0.000678919 0.00109127 -1.53688e-22)
(0.000819263 0.00125871 1.09428e-22)
(0.000721921 0.00115465 0)
(0.000943395 0.00147791 6.40668e-22)
(0.000711576 0.00110202 0)
(0.000730595 0.00112517 8.39928e-23)
(0.000747124 0.00115036 3.21456e-22)
(0.000671644 0.00105389 8.69764e-23)
(0.000760665 0.00117393 -2.89418e-22)
(0.000749592 0.00115622 -8.28278e-24)
(0.000689227 0.00109307 5.43726e-22)
(0.000808763 0.00127312 0)
(0.000966507 0.00147773 -9.31458e-23)
(0.000713759 0.0011186 2.77003e-22)
(0.000687086 0.00107552 2.70963e-22)
(0.000698648 0.00109422 3.65099e-23)
(0.000677941 0.00114009 -6.9488e-25)
(0.00068108 0.00106795 8.95772e-22)
(0.000597261 0.000160596 -4.98019e-25)
(0.000883644 0.00148335 -3.94743e-22)
(0.000740431 0.0012789 2.15322e-22)
(0.000673303 0.00116105 0)
(0.000664745 0.00113482 -2.30637e-22)
(0.000612629 0.000149279 -1.96764e-21)
(0.000785128 0.00133858 -7.21693e-22)
(0.000680536 0.00115836 0)
(0.00075502 0.00127502 7.72722e-24)
(0.000737638 0.0012742 -2.00238e-22)
(0.000600178 0.000403127 -1.53611e-21)
(9.53204e-05 0.000628313 -1.02694e-21)
(0.000940696 3.81208e-05 -5.23072e-22)
(0.00064285 7.31847e-05 2.12428e-21)
(1.46412e-05 0.000424792 -3.04219e-21)
(0.000687887 0.00113012 8.35935e-22)
(0.000690981 0.000757687 1.39368e-24)
(3.59942e-05 -1.61477e-06 8.87486e-22)
(0.000729565 0.00123221 0)
(0.000868269 0.00145581 0)
(0.000633831 0.00117023 -1.43034e-21)
(0.000671238 0.00113254 2.20716e-21)
(0.00070164 0.00115871 0)
(0.000796175 0.00133934 1.17992e-21)
(0.000485767 0.00010924 1.15436e-21)
(0.000784273 0.00134037 8.26228e-22)
(0.000756172 0.000367216 2.31228e-24)
(0.000888862 0.00057798 1.01636e-21)
(0.000779043 0.00130887 0)
(0.000695109 0.000508351 -3.00292e-22)
(0.000198768 0.000355826 -1.41022e-24)
(0.000175216 -2.40254e-05 -4.59553e-21)
(0.00089717 0.00031797 1.37567e-21)
(0.000674436 0.00115773 3.95325e-22)
(0.000718684 0.00114035 -1.35987e-21)
(0.00089511 0.00139607 0)
(0.000317809 9.57455e-05 9.4655e-22)
(0.000608955 0.000205386 5.80804e-22)
(0.000563273 0.00106712 0)
(0.000511983 0.000954332 -7.5174e-22)
(2.42677e-05 0.000694611 0)
(0.000954056 0.000523595 0)
(0.000941526 0.00151594 0)
(0.000677518 0.00136426 1.59132e-23)
(0.000621121 9.85157e-05 0)
(0.000676228 0.00122221 1.33585e-22)
(0.000772041 -4.17864e-05 2.22864e-21)
(0.000719171 0.00123057 1.88585e-21)
(0.000558772 0.00114156 3.48104e-23)
(0.000582188 0.00118617 0)
(0.000568897 0.00116084 0)
(0.000547179 0.00111959 0)
(3.48992e-05 -1.18567e-06 -1.43451e-21)
(0.000422278 0.000771467 -1.40733e-21)
(0.000448327 0.00079738 0)
(0.000459521 0.000677123 2.37208e-21)
(0.00087821 -2.39059e-06 0)
(0.000695682 0.0012047 1.55896e-21)
(0.000681409 0.000779268 1.41756e-21)
(0.000693003 0.00119961 -1.3238e-22)
(0.000755656 0.0013889 6.20422e-22)
(0.00064573 0.00115549 0)
(0.0014976 0.000959322 -2.30994e-21)
(0.0007772 0.00162122 -4.12831e-22)
(0.000315584 0.000116795 2.05268e-21)
(3.6867e-05 5.26157e-06 1.05673e-21)
(0.000690229 0.00127985 -1.93566e-21)
(0.000574548 0.000310853 4.42798e-22)
(0.000843019 0.000587705 1.28372e-22)
(0.00066324 3.09367e-05 0)
(0.000410944 0.00127676 -2.50389e-21)
(3.62867e-05 2.05783e-06 -2.00618e-26)
(0.000241609 -3.39805e-05 8.20695e-22)
(0.000783391 0.00128167 -2.01652e-22)
(0.000299702 0.000163769 4.1898e-21)
(0.00047078 0.000635826 -2.24392e-22)
(0.000510054 0.00079097 -1.78297e-21)
(3.88593e-05 4.23828e-06 -1.98305e-21)
(0.000500677 0.000565894 -3.88718e-21)
(0.000793306 0.00131046 1.00184e-22)
(0.000781626 0.000359573 0)
(0.000824546 0.00136795 -6.49683e-22)
(0.000170417 0.000854674 -4.43892e-22)
(0.000696599 0.00122713 1.24094e-21)
(0.000847483 0.00146172 -1.63279e-21)
(0.000921935 0.00157194 4.2457e-22)
(0.000720617 0.00129409 -3.26565e-24)
(0.000867817 0.00154765 -2.36634e-22)
(0.000811071 0.00133368 4.37006e-22)
(0.000686851 0.00117884 -3.22351e-22)
(0.000705054 0.00123565 -1.31429e-21)
(0.000688234 0.0011646 -2.13943e-22)
(0.000850826 0.00139714 -4.31046e-22)
(0.000758111 0.0012657 -4.1112e-22)
(0.000801369 1.60839e-05 -1.4686e-21)
(0.000575915 0.000333378 2.78931e-25)
(0.000646026 0.00130732 0)
(0.000737761 0.00123955 0)
(0.000233886 0.000323623 1.24744e-21)
(0.000804155 0.00133194 0)
(0.000671778 0.00116684 -1.00837e-21)
(0.000657017 0.00113889 3.37758e-22)
(0.000638325 0.00112345 2.60227e-22)
(0.000674833 0.00109608 1.12489e-22)
(0.000729184 0.00122543 3.5826e-22)
(0.000716614 0.00119596 1.41959e-22)
(0.000711314 0.00118864 -9.22804e-23)
(0.000737556 0.0012388 0)
(0.000721324 0.00121155 -9.36891e-23)
(0.000858531 0.000908223 -3.35026e-22)
(0.000634564 0.00126008 0)
(0.000889605 0.000189718 0)
(0.00064477 0.00116973 0)
(0.000442701 0.000758754 2.29789e-21)
(0.00033359 0.000620952 2.11431e-21)
(0.000873328 0.00145174 3.28223e-23)
(0.000396436 0.000634461 2.84654e-21)
(0.000962551 9.1994e-05 0)
(0.000279044 0.000267728 1.01382e-21)
(0.000179723 0.000707688 2.09331e-22)
(0.000726989 0.00145809 -9.78201e-22)
(5.43701e-06 1.67254e-06 0)
(0.000145742 0.000269091 -2.21864e-21)
(0.000772127 0.00137294 -9.38208e-22)
(3.7347e-05 4.14382e-06 4.93186e-22)
(0.000990694 0.000245314 2.32412e-21)
(3.34253e-05 0.000187926 -6.08253e-21)
(0.000149734 -1.70352e-05 -1.45713e-21)
(4.07459e-05 -7.7749e-07 1.74609e-21)
(0.000128169 0.000569063 0)
(0.00026578 0.000355815 1.63675e-22)
(0.000858001 0.00152781 4.32518e-22)
(0.000475231 0.000552115 2.21994e-21)
(0.000477595 0.000464977 -2.22067e-22)
(0.000398397 0.00060393 2.28636e-21)
(0.000533304 0.000473435 -2.15476e-21)
(0.000149917 0.000316521 -1.67519e-24)
(0.000648528 0.00116511 1.09816e-22)
(3.58918e-05 8.59086e-06 -1.66329e-21)
(0.000789691 0.00142756 2.30253e-22)
(0.000791634 0.000336026 -3.0152e-21)
(0.000734223 0.00037771 0)
(0.000714959 0.00120201 0)
(0.000562436 0.000969084 -1.37082e-21)
(0.000255917 7.27957e-05 -2.69829e-21)
(0.000463283 0.000702579 -3.76356e-22)
(0.000461515 0.000107833 1.10665e-21)
(0.000318791 0.000303347 -1.06318e-21)
(0.00057836 0.000375288 -1.67747e-21)
(0.000262182 0.000180197 -1.08586e-21)
(0.000151572 0.000705518 0)
(0.000562515 0.00123506 -4.39798e-22)
(0.000755231 0.00127445 9.85668e-22)
(0.000530551 0.000554957 1.97412e-21)
(2.46847e-05 -4.72449e-06 0)
(0.000334776 0.000754095 0)
(0.000693167 1.50076e-05 -1.38912e-21)
(0.000705764 0.0003937 5.11706e-21)
(0.000425375 0.000883972 1.0467e-21)
(0.000938975 0.00018824 1.89967e-22)
(0.000136591 -1.31916e-05 -3.86479e-21)
(0.000582314 0.00104249 0)
(4.10036e-05 1.38559e-06 -1.77442e-22)
(0.000745931 0.0013198 -2.67145e-22)
(0.000660711 0.00121268 0)
(0.000688209 0.00123646 2.44549e-22)
(0.000651316 0.0011171 1.1361e-21)
(0.000522744 0.00119626 -3.21867e-21)
(0.000311117 0.000407351 7.8427e-22)
(0.000791667 0.000561411 -4.31493e-21)
(0.000161506 0.000254069 2.21462e-21)
(0.000436325 0.000626836 4.53449e-23)
(0.000920516 0.000314938 -1.58865e-24)
(0.000486007 0.00069381 -1.40846e-21)
(0.000602114 0.000300328 4.10864e-22)
(0.00032946 0.000411369 -1.00742e-21)
(0.000248541 0.000318551 6.56149e-26)
(0.000388848 0.000551327 -1.19153e-21)
(0.000363641 0.000619206 -1.98615e-24)
(0.000343305 0.000296716 7.37106e-22)
(0.000713786 0.00151609 9.83632e-22)
(0.000429355 0.000646789 0)
(3.15286e-05 7.43983e-06 0)
(0.000671718 0.00124725 -7.44303e-22)
(0.000452356 0.000635854 -1.12155e-22)
(0.00055709 0.000803275 0)
(0.000247027 9.66389e-05 -3.1081e-25)
(0.000676273 0.000189718 0)
(0.000802592 0.00140983 0)
(0.000674414 0.0012136 2.02843e-22)
(3.05386e-05 1.805e-05 -3.9232e-21)
(0.000791649 0.00134546 -4.97219e-22)
(0.000628326 0.00113244 7.20926e-22)
(0.000779446 0.00140149 1.56998e-21)
(0.000702575 0.00118759 0)
(0.000280649 0.000378128 8.85187e-23)
(0.000724529 0.00121283 1.58251e-21)
(0.000631667 0.00109908 0)
(5.6187e-05 0.000400731 3.34378e-22)
(0.000439103 0.00104651 -2.13733e-22)
(0.000447397 0.000571947 -2.47422e-21)
(0.000125838 0.000258248 4.20451e-25)
(0.000444822 0.000724952 4.36658e-23)
(0.0013065 0.00139059 0)
(0.000768145 0.00140121 -1.09484e-21)
(0.000866507 0.0015956 -2.37265e-22)
(0.000755659 0.00131894 -3.66047e-22)
(0.000309518 0.000373851 1.4548e-21)
(0.000646073 0.00108905 3.46626e-22)
(0.000604404 0.00110429 1.47176e-22)
(0.000684703 0.00116417 0)
(0.000884867 0.00150746 0)
(0.000688798 0.00118731 0)
(0.000690749 0.00126123 2.81876e-22)
(0.000630638 0.00111959 -3.9222e-22)
(0.000659571 0.00113569 -1.02365e-21)
(0.000644658 0.00114431 0)
(0.000600709 0.00110671 -1.93125e-22)
(0.000828829 0.00147226 4.08685e-22)
(0.000814622 0.000474795 -7.58889e-22)
(0.000298743 0.000285475 0)
(6.39105e-05 -0.00017436 -7.05533e-22)
(0.00119288 0.000948162 0)
(0.000707364 0.00124887 4.18846e-22)
(0.000657154 0.00115938 4.06224e-22)
(0.000678931 0.00118366 2.19483e-22)
(0.000739322 0.00127525 -5.45497e-22)
(0.000673305 0.00118965 0)
(0.000197122 0.00032784 1.67939e-22)
(0.00088437 0.00161025 -5.28622e-22)
(0.000563943 0.000357839 4.59971e-22)
(1.40951e-05 -7.49783e-06 0)
(0.000880912 0.00150376 3.92045e-22)
(0.000768002 0.00136907 1.86779e-21)
(0.000742815 0.00122678 6.71073e-23)
(0.000916086 1.20645e-05 2.95656e-21)
(0.00158283 0.00113073 1.89268e-21)
(0.000684119 0.00111515 0)
(0.000608048 0.0010095 3.9613e-23)
(0.000753249 0.00122423 1.05635e-21)
(0.000621025 0.000971468 1.10807e-21)
(0.000543795 0.000931436 -3.88924e-22)
(0.000532121 0.000912021 -5.13233e-22)
(0.000578853 0.000951263 3.7535e-22)
(0.000524682 0.000901408 0)
(0.00061356 0.00104757 -6.33887e-22)
(0.000701734 0.00118472 2.75001e-22)
(0.000587357 0.000966278 0)
(0.000712056 0.00119433 1.68137e-22)
(0.000588912 0.00100436 3.99831e-23)
(0.000647557 0.000982668 -1.06291e-21)
(0.000532154 0.000928653 -3.27454e-22)
(0.000578694 0.000877358 4.65439e-22)
(0.000162907 0.000236775 4.90289e-21)
(0.000689673 0.00117821 1.17285e-22)
(0.000773247 0.001313 -1.21197e-21)
(0.000713852 0.00120724 0)
(0.000488268 0.000485321 2.05671e-22)
(2.0747e-05 0.000108035 1.31036e-21)
(0.000659577 0.00114968 0)
(0.00140941 0.000272858 0)
(0.000651834 0.00102585 4.67742e-22)
(0.000293173 0.000605341 0)
(0.000905089 0.000133568 2.54724e-21)
(0.000455163 0.000541475 0)
(0.000982428 0.000238573 0)
(0.000942409 6.41398e-05 0)
(0.000575323 0.00103362 1.03031e-22)
(0.000453561 0.000658561 2.64027e-22)
(0.000775431 0.00123443 -1.14202e-24)
(0.000626108 0.00102373 -1.36456e-22)
(0.000651569 0.00112556 0)
(0.000674344 0.00113296 6.97673e-22)
(0.000718536 0.00116042 -2.89719e-22)
(0.000726848 0.00123921 0)
(0.000786367 0.00128816 3.71689e-22)
(0.000263727 7.07607e-05 5.61829e-21)
(0.000853023 -0.00011051 1.79559e-21)
(0.000803862 0.00144462 -3.43462e-22)
(0.000832007 0.00140348 -6.86784e-22)
(0.000677797 0.000812608 1.43569e-22)
(0.000640323 0.00114381 3.23851e-24)
(0.000624807 0.00106037 -6.28512e-22)
(0.000908017 0.000142818 0)
(0.000431306 0.000765829 -1.19582e-21)
(0.000627197 0.00125182 -3.17202e-22)
(0.00075844 0.000697481 -2.59343e-21)
(0.000774856 0.00139018 -5.07668e-22)
(0.000783467 0.00131967 -2.72698e-24)
(3.53771e-05 0.000579636 -2.35772e-21)
(0.000728115 0.0011728 7.27438e-22)
(0.000950707 0.00160397 -8.85477e-22)
(0.000582179 0.00124489 1.48338e-22)
(0.000268478 0.00033735 9.94635e-22)
(0.000868303 5.3648e-05 0)
(0.000723823 0.00113688 1.44662e-22)
(0.000527951 0.000944669 -3.43089e-22)
(0.000640333 0.00115828 1.2432e-21)
(0.000681121 0.00111474 -1.75381e-22)
(0.00071537 0.00121427 -1.6472e-22)
(0.000564502 0.00101429 1.1015e-21)
(0.000597838 0.000995045 2.7013e-22)
(0.000664729 0.000807086 3.91808e-23)
(0.000720049 0.00129378 -3.38399e-22)
(0.000562573 0.00100281 -9.54997e-22)
(0.000535773 0.000908212 -1.14301e-22)
(0.000646987 0.00105431 -4.32217e-22)
(0.000531503 0.000913405 0)
(0.000311725 0.000564759 1.31822e-21)
(0.000309146 0.000632523 0)
(0.000692302 0.00118803 -4.01868e-22)
(0.000666789 0.00108142 -1.08939e-21)
(0.000731051 0.00120697 3.47677e-22)
(0.00083012 0.00133794 -9.09947e-22)
(0.000724491 0.00115631 -6.44991e-22)
(0.000672773 0.00110486 -2.08168e-21)
(0.000725813 0.0012099 0)
(0.000708455 0.0012106 0)
(0.000722362 0.00117204 -2.59994e-22)
(0.00088105 0.00136872 1.16287e-21)
(0.000846222 0.00142436 3.9881e-22)
(0.000653327 0.00111054 -1.69168e-23)
(0.00065944 0.00111929 0)
(0.000674254 0.00106509 6.32245e-22)
(0.00066396 0.00107589 -2.03302e-22)
(0.000674467 0.0011447 -2.8239e-23)
(0.000846047 0.00140168 0)
(0.000662038 0.00107902 3.0168e-22)
(0.000667561 0.00112202 -7.86824e-22)
(0.000682106 0.00114792 4.6181e-22)
(0.000667398 0.00110769 0)
(0.000832607 0.00139735 -2.70091e-22)
(0.000876453 0.00146937 1.13626e-21)
(0.000878649 0.00148256 1.07658e-21)
(0.000524697 0.000692883 -1.27005e-24)
(0.000816052 0.000603053 2.15485e-21)
(0.000620323 0.00042619 1.54771e-21)
(0.000521155 0.000537122 -1.21053e-21)
(0.000783677 0.00141649 2.37723e-22)
(0.000783112 4.34196e-05 1.27242e-21)
(0.00018586 0.000684085 0)
(0.00029711 0.00026014 -1.3292e-21)
(0.000642906 0.00106975 -3.28933e-22)
(0.000664524 0.00118252 2.02582e-22)
(0.000692061 0.00117968 0)
(0.000703111 0.00136693 1.06917e-21)
(1.92382e-05 -1.37516e-06 -3.38699e-26)
(0.000572539 0.000964383 2.33774e-22)
(0.00063025 0.00104559 1.97101e-22)
(0.000545835 0.000948299 6.99915e-22)
(0.00100438 0.00021397 -2.64872e-21)
(0.000873962 0.000191697 -1.80221e-21)
(0.000687206 0.00142969 -8.11105e-22)
(0.000583759 0.000280246 -4.01371e-22)
(0.00053003 0.000925451 0)
(0.000512335 0.00091225 3.40846e-22)
(0.000522193 0.000865086 5.96969e-23)
(0.000559413 0.000953441 -2.42455e-22)
(0.00054948 0.000931866 -1.21017e-22)
(0.00075781 0.000390664 -2.01596e-21)
(0.000696244 0.00124023 3.36641e-22)
(0.000351583 0.000280926 3.95268e-22)
(1.92812e-05 -6.73271e-06 -2.86938e-25)
(0.000622097 0.00130055 5.02821e-22)
(0.000800004 0.00135869 -1.34265e-21)
(0.00109313 0.000569308 3.09282e-26)
(0.000134632 0.000818565 0)
(3.79148e-05 8.47422e-06 9.20183e-22)
(0.000113125 0.000548445 0)
(0.000552706 0.000902251 -8.68908e-22)
(0.000667203 0.00124546 0)
(0.000834321 0.00140516 0)
(0.000740641 0.00128518 5.84759e-22)
(0.000574239 0.000972814 0)
(0.000553244 0.000934878 -5.33946e-23)
(0.000561424 0.000951358 1.0753e-22)
(0.000281243 0.000837913 -2.00903e-21)
(0.000672591 0.00118503 -1.04757e-21)
(0.000801476 0.00129396 0)
(0.000759368 0.00028656 2.9762e-21)
(0.000568208 0.000286507 3.42524e-21)
(0.000639802 0.00114724 0)
(0.000462261 0.000569229 2.40045e-21)
(0.000580546 0.00035037 1.10392e-21)
(0.000288827 0.000354768 -3.42532e-22)
(0.00051762 0.000644637 2.86282e-22)
(0.000869314 0.000289969 2.31861e-21)
(0.000647507 0.00119247 4.30728e-22)
(0.000693046 0.0012949 0)
(0.00086401 7.73289e-05 9.87854e-22)
(0.000547669 0.00106696 2.9718e-22)
(0.000725489 0.00114975 2.10479e-22)
(0.00085153 0.00135039 -1.98864e-23)
(0.000970324 0.000191362 -3.04024e-21)
(0.000309243 0.000541427 0)
(0.000674723 0.000415806 0)
(0.000578837 0.00119818 -8.49241e-22)
(0.000638257 0.00126554 -1.56805e-21)
(0.000889289 0.000137161 2.56579e-21)
(0.000370641 0.000319727 1.5873e-21)
(9.34121e-05 0.000749812 1.72224e-22)
(0.000913715 0.000331013 0)
(0.00034424 0.000762389 6.39301e-22)
(0.000607102 0.00113735 0)
(0.000631832 0.00117958 5.43331e-23)
(0.000646819 0.00120585 0)
(0.000620464 0.00115968 0)
(0.000323339 0.000279325 3.98953e-25)
(0.000807631 0.00102183 2.17282e-22)
(0.000807807 0.00138561 1.74023e-22)
(0.00134593 0.000769117 -1.14143e-21)
(3.55403e-05 5.62395e-05 0)
(0.000926857 0.00152543 -7.53657e-22)
(0.00064919 0.00113088 0)
(0.000822003 0.00143768 0)
(0.000835446 0.00142105 -4.73351e-22)
(0.000642193 0.00112414 -1.37819e-23)
(0.000647517 0.00110393 2.11377e-22)
(0.000648011 0.00112187 1.59667e-22)
(0.00066273 0.00114669 -6.39585e-22)
(0.00065903 0.00111474 -1.05473e-21)
(0.000836908 0.0014726 -3.89927e-22)
(0.000679886 0.0012217 -7.42062e-24)
(0.000719886 0.00115446 0)
(0.000327288 0.000393081 -3.6588e-22)
(0.000509344 -0.000143152 1.76795e-21)
(0.000815497 0.00140114 -9.88438e-22)
(0.000716927 0.00127061 -1.2531e-22)
(0.000705987 0.00121175 -3.064e-22)
(0.000627141 0.00106702 3.62463e-22)
(0.000719038 0.00121246 6.57469e-22)
(0.00077064 0.0012926 3.32488e-22)
(0.000686414 0.00115986 9.13652e-22)
(0.000664988 0.00109534 8.99853e-22)
(0.000695838 0.00119373 0)
(0.000714758 0.00119449 -7.55012e-22)
(0.000680854 0.00114965 0)
(0.000828438 0.00135773 -5.12775e-22)
(0.000845722 0.00142477 3.59176e-22)
(0.000661625 0.0011312 1.53473e-22)
(0.000653536 0.00112532 -3.47324e-22)
(0.000676293 0.00115725 -8.17741e-22)
(0.000635503 0.00105967 5.41712e-22)
(0.000655835 0.001069 -8.3675e-22)
(0.000829003 0.00139836 -9.19512e-22)
(0.000631445 0.00107383 -1.66246e-23)
(0.000658376 0.00114365 -7.11073e-22)
(0.000643793 0.00111754 -2.76814e-22)
(0.000642139 0.00109797 -4.06298e-22)
(0.000797564 0.00139491 0)
(0.0008761 0.00150096 0)
(0.000858385 0.00145417 0)
(0.000201243 4.16976e-05 -1.629e-25)
(0.00111054 0.000630771 8.95961e-24)
(0.000468392 5.13809e-05 -5.80042e-22)
(0.000768082 0.0013786 -3.99652e-22)
(0.000519812 0.00112371 -1.26572e-23)
(0.000337615 0.00014505 3.54271e-21)
(0.000905389 8.65596e-05 0)
(0.000472251 0.000446731 8.09736e-25)
(0.0011894 0.000364955 2.20266e-21)
(0.00064296 0.000177526 1.28916e-21)
(0.000657724 0.00129626 2.0583e-21)
(8.1005e-05 0.00076539 -2.24443e-21)
(0.000878737 0.000277193 -2.72066e-21)
(0.000754 0.00139018 0)
(1.16875e-05 0.000543527 0)
(0.000689915 0.00122407 9.23164e-22)
(0.00029097 0.00121462 -1.21977e-21)
(0.000413712 0.000728945 -1.35666e-22)
(0.000399987 0.000734175 -1.28017e-22)
(0.000512241 0.000962167 -4.07444e-23)
(0.000474896 0.000763916 -3.66392e-22)
(0.000706389 0.00126211 0)
(0.000637253 0.00113967 2.64565e-22)
(0.000775709 0.00130246 3.60327e-22)
(0.00032474 0.00065732 1.93016e-21)
(0.000459316 0.000490974 0)
(0.000185712 0.000242128 2.05384e-21)
(0.000429712 0.000581714 4.29834e-21)
(0.000938758 0.00158134 3.92013e-22)
(0.000588935 0.000924607 2.9982e-22)
(2.54513e-05 2.27139e-05 7.81733e-22)
(0.000563769 0.00125612 1.33017e-21)
(0.000143902 0.00072236 1.4781e-21)
(0.000857228 0.00155216 -3.18568e-22)
(0.000840243 0.00146459 1.98108e-22)
(0.000774439 0.00129017 7.53291e-24)
(0.000858924 0.000161936 6.02704e-22)
(0.000602936 0.00106757 1.49189e-21)
(0.00066638 0.00127877 -1.06337e-21)
(0.000644808 0.00114016 -9.87428e-23)
(0.000605537 0.0011294 0)
(0.000512528 0.000928689 0)
(0.000593445 0.00107653 2.2572e-22)
(0.000184471 0.000228163 -4.80135e-21)
(0.000860244 -9.13972e-07 -3.03369e-21)
(0.000517138 0.00126597 3.14206e-22)
(0.0007008 0.000739526 -1.3563e-21)
(0.000612673 0.00105346 -1.56693e-22)
(0.000493556 0.00094458 -1.26098e-21)
(0.000606117 0.00106724 -4.00272e-22)
(0.000910186 0.00137209 4.20758e-22)
(0.000841585 0.00149788 3.39039e-22)
(0.000881272 0.00149174 0)
(0.00069937 0.00117269 1.16645e-21)
(0.000668032 0.00113949 -1.62006e-21)
(0.00115147 0.000387461 1.69674e-21)
(0.000678455 0.000793412 -1.22594e-21)
(0.000744116 0.00134363 9.76273e-23)
(0.000864203 0.000541299 4.73904e-24)
(0.000702114 0.00126905 0)
(0.000620516 0.000227048 0)
(5.98425e-05 -0.000132688 -1.25525e-22)
(0.000884688 4.73077e-05 0)
(0.000551515 0.00101399 -1.34475e-21)
(0.000728371 0.0013162 -3.19459e-23)
(0.000545817 0.00104417 0)
(0.000478551 0.000717316 5.41383e-22)
(0.000713518 0.00114201 0)
(0.000441021 0.000817694 0)
(7.83476e-05 4.26453e-05 0)
(0.000512847 0.000773425 1.35253e-21)
(0.000754844 0.00144864 4.60103e-24)
(0.000887706 -4.2781e-06 -3.01481e-21)
(3.50915e-05 8.36214e-06 -1.87934e-21)
(0.000771954 0.000482631 2.33319e-21)
(0.000747373 0.00139777 -5.76564e-23)
(0.000273315 0.000312971 -1.33653e-21)
(0.00148242 0.000192429 -1.7134e-21)
(5.42996e-05 0.000858754 -7.05041e-22)
(0.00071541 0.00124738 0)
(0.000878419 0.000213034 0)
(0.000878038 0.000108812 -2.47416e-21)
(0.000900346 0.000340497 -1.49875e-21)
(0.000628815 0.00117271 -4.05081e-22)
(0.000340942 0.000746321 -7.65233e-22)
(0.000633875 0.000255292 0)
(0.000874704 0.000191374 0)
(1.89029e-05 -1.10165e-05 -2.03063e-21)
(0.000508418 0.00121642 -6.12626e-23)
(0.000466614 0.00118619 3.37657e-23)
(0.000661448 0.00154491 0)
(0.00117836 0.0011089 1.45357e-21)
(0.000758488 0.00055381 -4.19203e-24)
(0.000484975 0.000539843 -1.05074e-21)
(0.000977808 6.54252e-05 -8.57496e-25)
(0.000812192 -1.4496e-05 -1.455e-21)
(0.000638079 0.00109559 -5.02447e-24)
(0.000740219 0.00125294 2.39823e-22)
(5.56638e-05 4.60282e-05 2.94671e-26)
(0.000524745 8.23431e-05 -8.6561e-22)
(2.5019e-06 2.88856e-05 -2.20849e-22)
(0.000577053 0.00105207 -2.46372e-22)
(0.000749056 0.000514381 1.84375e-21)
(0.000250463 0.000340502 -1.30379e-21)
(0.000904589 0.00156688 1.956e-21)
(0.000698701 0.00118033 -3.60209e-22)
(0.000693349 0.00120385 -3.4077e-22)
(0.000678862 0.00117842 -4.85352e-22)
(0.000670583 0.00115514 -6.02745e-22)
(0.0008919 0.00148637 1.15289e-22)
(0.00070006 0.00119981 0)
(0.000844552 0.00143316 -5.19661e-22)
(0.000672164 0.00113269 1.32675e-22)
(0.000444721 0.000847094 0)
(0.000857543 7.66051e-05 3.33377e-21)
(0.00015922 0.000893137 -1.39892e-21)
(0.000170472 0.000210373 3.33752e-21)
(3.16525e-05 -9.71091e-05 2.10319e-21)
(0.000732893 0.00133849 -6.94669e-22)
(0.000851561 0.00020645 0)
(0.000974865 0.000554679 -2.98069e-22)
(0.000595368 0.00102161 1.31141e-21)
(0.00062475 0.00140882 3.62906e-22)
(0.000836143 0.000161802 4.36991e-25)
(0.000520376 0.000483925 1.32801e-21)
(2.99628e-05 5.08797e-05 0)
(0.000586768 0.00109597 0)
(0.00025873 0.000249792 -2.75115e-21)
(0.000622424 0.000285992 3.99407e-25)
(0.000293422 0.000332232 3.38139e-22)
(0.000514366 0.000748387 -3.87162e-22)
(0.000470596 0.000159148 1.07636e-21)
(0.000650757 0.00121315 0)
(0.00074786 0.00137061 -2.86412e-22)
(0.00141829 0.000755987 0)
(2.25374e-05 5.72724e-05 -7.01747e-21)
(0.000596606 0.000330396 -3.04742e-21)
(0.000645359 0.000311229 3.97504e-22)
(0.000835028 0.000213742 -1.26251e-21)
(4.49588e-05 0.000491494 2.92017e-21)
(0.000420539 0.00102883 2.95856e-22)
(0.000738203 0.0012292 7.38174e-24)
(0.000702748 0.00123481 -2.38592e-22)
(0.00100887 0.000380399 5.40083e-21)
(0.000508628 0.00122572 -9.92437e-22)
(0.000858288 0.00156209 -1.24415e-22)
(0.000685874 0.00121629 0)
(0.000728011 0.00133317 0)
(0.000879801 0.00156886 5.41892e-22)
(0.000629249 0.00118234 -2.90425e-22)
(0.000643748 0.00120788 -2.91876e-22)
(0.000683519 0.0012468 0)
(0.000638107 0.00118325 1.32364e-22)
(0.000713546 0.00135513 0)
(0.000613617 0.00116107 0)
(0.000834712 0.00154926 -6.18207e-22)
(0.000456838 0.000469025 -8.18257e-22)
(0.000722353 0.00133912 1.27943e-21)
(0.00033666 0.000648178 -1.31117e-21)
(0.000715001 0.00125053 4.47901e-23)
(0.000826004 2.74084e-05 1.28841e-21)
(0.000877298 0.000238575 1.14624e-21)
(0.000357506 0.000647451 2.20461e-21)
(0.000250427 4.37608e-05 0)
(6.70053e-06 0.000138486 -4.53805e-21)
(0.000648365 0.00113976 -1.54991e-23)
(0.000853379 0.000280607 -1.40896e-21)
(3.41071e-05 5.69951e-06 -2.10729e-21)
(0.000652713 0.00120845 1.25746e-21)
(0.000680026 0.00126018 1.68568e-22)
(0.000693239 0.00116353 0)
(0.000641865 0.00141722 -1.86414e-21)
(0.000534326 -7.95102e-05 -4.86641e-21)
(0.000583571 0.00127899 3.38218e-22)
(0.000235987 0.000763555 0)
(1.32842e-05 0.000172344 3.09126e-25)
(0.000815621 0.000730933 -1.64454e-22)
(0.000738519 0.00131351 0)
(0.000703601 0.00122718 1.33432e-22)
(0.00075833 -2.81271e-06 0)
(4.04929e-06 0.000199571 1.72909e-21)
(-2.48961e-06 0.00103284 -1.45884e-21)
(0.000144874 0.000684107 1.5718e-21)
(0.000609445 -8.09016e-05 2.01009e-21)
(0.000710768 0.00128771 -9.34899e-22)
(0.000159382 0.000325517 0)
(0.000556777 0.00015823 -6.71839e-22)
(0.00091441 0.000624646 -1.26902e-21)
(0.000694485 0.00121677 0)
(0.000649236 0.0011038 2.35612e-22)
(0.000550992 0.000988669 -6.23102e-22)
(0.000593552 0.00102867 0)
(0.000532043 0.000933315 -9.81903e-24)
(0.000504359 0.000193631 6.25581e-22)
(0.00032295 0.00068686 4.20401e-23)
(0.000308863 0.000673931 9.68735e-24)
(0.000424047 0.000911245 3.79542e-23)
(0.000565796 0.00132031 9.76621e-22)
(0.000890255 0.000213208 0)
(0.000899971 0.000109612 1.39674e-21)
(0.000495233 0.00102519 -6.77947e-22)
(0.000210802 0.000292383 -2.27614e-21)
(0.000506479 0.000919135 0)
(0.000321075 0.000726017 9.56443e-24)
(0.000363749 0.000824781 1.01918e-23)
(0.000714847 5.92476e-05 2.06917e-25)
(0.000594459 0.001026 -1.62285e-22)
(0.00069449 0.00131593 3.18242e-22)
(0.000745382 0.00130602 -1.00427e-21)
(0.000624223 0.00117598 0)
(0.000663086 0.00116679 4.35261e-22)
(0.000609337 0.000944262 0)
(0.000544976 0.000669417 -3.57288e-25)
(0.000526472 0.000923389 0)
(2.37952e-05 0.000177958 -3.69995e-25)
(0.00062753 0.000188552 3.21959e-22)
(0.000432459 0.000548999 -1.12379e-21)
(9.71914e-05 4.88639e-05 0)
(0.000872286 0.000316925 0)
(0.000441006 5.2693e-05 -5.96373e-24)
(0.000636771 0.000764078 1.57779e-21)
(0.00106371 0.000474761 5.95804e-22)
(0.000696371 0.00118691 -1.9653e-22)
(0.00043224 0.000470909 6.90378e-22)
(0.000597486 0.0013481 -2.33857e-21)
(0.000671147 0.00147045 -2.28177e-22)
(0.000543385 0.00100141 1.67559e-21)
(0.000550862 0.000170734 0)
(0.000830772 0.000428881 -4.65849e-22)
(0.000709838 0.00114439 4.14927e-24)
(0.00029564 0.000308161 0)
(0.000560056 0.00101314 -5.10974e-22)
(0.000486336 0.000577419 -4.8119e-21)
(0.000163944 0.000193489 1.77023e-21)
(0.00083888 0.00149053 1.05705e-22)
(0.000802381 0.000664859 -1.81148e-21)
(0.000541955 0.00117718 5.52687e-22)
(0.000989871 8.38974e-05 -1.61444e-21)
(0.00067453 0.000533322 1.08173e-21)
(0.000803832 0.00139429 -7.37756e-23)
(0.000511597 0.000573893 -8.19275e-25)
(0.00116116 0.000346168 -4.82749e-22)
(0.000411155 0.000328176 1.2778e-21)
(0.000275016 0.000606383 8.84582e-24)
(0.00028054 0.000618757 8.96778e-24)
(0.000287766 0.000635277 9.09878e-24)
(0.000339691 0.000754866 -8.06998e-23)
(0.000268596 0.000592477 3.55057e-23)
(0.000185169 0.000181718 0)
(0.000765931 0.000521069 0)
(0.000557517 0.000846487 -1.81725e-21)
(0.000859198 1.57338e-05 0)
(0.000172803 2.58146e-05 1.8182e-21)
(2.23318e-05 6.12112e-05 3.28653e-21)
(0.000506596 0.00040567 -1.315e-21)
(0.000415225 0.000653291 2.1685e-21)
(0.0011821 0.000644588 3.25006e-21)
(0.000525597 0.000928005 4.3743e-22)
(0.000554489 0.000955421 -8.70206e-22)
(0.000535508 0.0009379 2.21303e-22)
(0.000571107 0.00100508 -1.00081e-21)
(0.000727422 0.0012606 0)
(0.000685036 0.00121768 2.46314e-22)
(7.06656e-05 5.01768e-05 1.87168e-21)
(0.000876023 0.000276594 1.51493e-21)
(0.000430653 0.000778218 -9.02741e-22)
(0.000446442 0.000808447 -6.67713e-22)
(0.000593323 0.000976577 -3.05478e-22)
(0.00048974 0.000795184 3.45289e-22)
(0.000469916 0.000722173 3.8284e-22)
(0.000408976 0.000719014 8.70645e-22)
(0.000563451 0.000788755 2.46006e-23)
(0.000487264 0.000683709 0)
(0.000521183 0.000876199 -6.40604e-22)
(0.000430606 0.000792412 5.58963e-22)
(0.000569978 0.000866279 -4.25178e-22)
(0.000543263 0.00092132 -6.31052e-22)
(0.000419201 0.000728672 -1.89169e-22)
(0.000409534 0.000715476 3.87878e-22)
(0.000508314 0.000906233 0)
(0.000436104 0.00068619 -8.82233e-22)
(0.000412441 0.000715309 2.1689e-22)
(0.000421456 0.000730568 4.14196e-22)
(0.00071622 0.000995282 -1.68289e-22)
(0.000417617 0.000750979 -1.59373e-22)
(0.000421435 0.000764197 0)
(0.000412155 0.000748048 3.40358e-22)
(0.000441413 0.000712628 0)
(0.000392861 0.000711388 2.2215e-23)
(0.000508838 0.000920786 -8.56806e-24)
(0.00052383 0.000899644 1.09656e-23)
(0.000609549 0.00101101 0)
(0.000497925 0.00072941 3.23297e-21)
(0.000538383 0.000950871 5.84243e-22)
(0.000571604 0.000941947 -1.80072e-21)
(0.000403226 0.000726532 -7.68652e-22)
(0.000507094 0.000749598 0)
(0.000448513 0.000795082 -7.04679e-22)
(0.000496278 0.000885752 3.62947e-22)
(0.000474645 0.000785125 0)
(0.000868575 0.000155798 -1.13072e-21)
(0.000752629 0.00134769 2.13345e-22)
(2.5161e-05 8.6616e-06 1.07505e-21)
(0.000807396 0.00149215 -1.54397e-22)
(0.000910209 3.05638e-05 -1.28454e-21)
(4.17535e-05 5.82698e-07 2.27524e-21)
(4.04165e-05 -2.43716e-06 0)
(0.000121098 0.000285924 1.20251e-21)
(0.000670505 0.00115866 -3.85442e-22)
(0.000687658 0.00119855 0)
(0.000762448 0.00129606 -1.86025e-21)
(1.43294e-05 5.05656e-05 -2.05979e-21)
(0.000206627 0.000528008 0)
(7.22659e-06 -8.13082e-06 -1.82843e-21)
(0.000740251 0.000150941 1.57814e-21)
(0.000864319 2.82381e-05 -5.78817e-22)
(0.000729622 0.00122228 1.51605e-21)
(0.000414286 0.00112134 -5.9385e-22)
(0.000280138 0.000405898 -1.00434e-22)
(0.000413069 0.000809396 1.64987e-21)
(0.000208197 0.000567655 -1.64238e-21)
(0.0010851 0.000470286 7.20436e-23)
(0.000161528 0.00082733 1.667e-21)
(0.000824166 0.000344032 7.61542e-22)
(6.94806e-05 4.11127e-05 3.35379e-21)
(0.00100917 -1.47506e-05 3.52779e-21)
(0.00075826 0.00127808 -1.37104e-23)
(0.000611042 0.000262454 -2.05896e-21)
(0.00102209 0.000257391 1.34341e-24)
(5.27794e-05 0.000331574 -1.32599e-21)
(0.000621551 0.00123027 -6.60022e-24)