/*--------------------------------*- C++ -*----------------------------------*\
  =========                 |
  \\      /  F ield         | OpenFOAM: The Open Source CFD Toolbox
   \\    /   O peration     | Website:  https://openfoam.org
    \\  /    A nd           | Version:  8
     \\/     M anipulation  |
\*---------------------------------------------------------------------------*/
FoamFile
{
    version     2.0;
    format      ascii;
    class       volVectorField;
    location    "8";
    object      U;
}
// * * * * * * * * * * * * * * * * * * * * * * * * * * * * * * * * * * * * * //

dimensions      [0 1 -1 0 0 0 0];

internalField   nonuniform List<vector> 
3080
(
(0.000106721 6.3613e-05 -1.05407e-20)
(0.00108124 0.0017493 -2.46605e-21)
(0.00102282 -5.0569e-06 4.77481e-22)
(9.52835e-05 8.30639e-05 0)
(0.00145198 0.000178984 -4.73996e-21)
(0.000697351 -0.000384764 0)
(8.74277e-05 0.000575533 2.12634e-21)
(0.00237713 0.00419532 0)
(0.00103883 -9.24999e-06 -3.65207e-21)
(0.000984243 4.37588e-06 5.11066e-21)
(1.62381e-05 6.83289e-05 0)
(0.000945635 1.19983e-05 0)
(0.00094423 0.00236546 6.91829e-21)
(0.00155303 0.000195138 -6.47297e-23)
(2.82256e-05 0.000166559 -2.02022e-21)
(0.001536 0.00108031 0)
(0.000988412 -3.12072e-06 7.70004e-21)
(1.61954e-05 -7.49572e-05 2.12429e-21)
(1.25937e-05 5.01365e-05 0)
(0.00107848 4.38151e-05 -3.89184e-21)
(0.00218263 0.00410497 1.05596e-20)
(0.000949139 -0.000470264 1.15296e-21)
(0.00117973 -2.39399e-05 -6.9697e-21)
(0.0026101 0.00422007 -3.46355e-21)
(0.00132257 0.000117142 -1.833e-20)
(0.000235894 0.00170176 -2.18166e-23)
(7.02487e-05 -0.000308451 -4.37467e-21)
(0.00167272 0.00068945 2.41725e-21)
(9.38516e-06 2.74599e-05 -2.55319e-22)
(0.00139471 0.000986605 1.17753e-20)
(0.00126272 0.00281634 1.67725e-20)
(0.00214547 0.00458194 -6.48346e-21)
(0.000418585 0.0021437 -8.8675e-21)
(0.00189105 0.00405625 3.06129e-21)
(0.00155002 0.00439148 4.50489e-21)
(0.000923943 -2.53945e-05 1.55158e-21)
(0.000220261 -0.000659842 -1.39571e-21)
(0.000569146 0.00416263 0)
(0.000616985 -0.000125607 1.854e-21)
(0.000653787 0.00152984 8.94064e-21)
(0.000231625 6.80232e-05 0)
(0.000589103 -6.25074e-05 -3.7772e-21)
(0.000921852 -3.96353e-07 6.43406e-21)
(0.000453329 -6.10058e-05 0)
(0.00182561 0.000292653 0)
(3.85758e-05 0.00022474 -5.47847e-22)
(0.000966042 0.000100536 -6.19296e-21)
(7.29249e-06 2.42217e-06 -2.02459e-21)
(4.14782e-05 -6.68902e-06 4.79471e-21)
(0.000287395 0.00201082 5.24474e-21)
(0.000520605 -5.99112e-05 -3.95512e-22)
(0.000782536 0.00355988 -1.71126e-22)
(0.000198686 0.00108365 5.7227e-21)
(0.000732078 -0.000314289 1.00777e-21)
(0.00169173 0.000258651 6.37718e-23)
(0.000851749 -2.97312e-06 0)
(0.000850454 5.07176e-06 -1.05027e-21)
(0.0011899 0.00212215 -5.9894e-22)
(0.00171658 0.00333855 4.26937e-21)
(0.001029 1.17621e-05 -6.4033e-21)
(0.00120895 0.00222051 4.84052e-22)
(0.00118849 0.00218703 0)
(0.00119752 0.00212922 -4.43395e-22)
(0.000885868 -2.48259e-05 0)
(0.00239274 0.00403911 -1.22793e-21)
(0.00234128 0.00394822 -1.19571e-21)
(2.49428e-05 -0.000144631 1.35442e-21)
(0.000683922 -0.000147182 3.93742e-21)
(0.00223697 0.00386282 -1.6986e-22)
(0.00119793 0.00212941 8.14796e-22)
(3.76476e-05 -0.000190366 1.00146e-24)
(0.00225773 0.00387779 -4.86007e-22)
(0.00190633 0.00382812 4.11237e-21)
(0.00119633 0.00212699 1.2804e-21)
(0.000357809 -9.33778e-05 -7.59862e-21)
(0.00202825 0.00396581 0)
(0.000325517 -7.96933e-05 -2.1296e-22)
(0.0022663 0.00387928 -3.17347e-22)
(0.000526553 0.000152122 -1.50899e-20)
(0.000348108 6.79552e-05 -9.68591e-21)
(0.00205011 0.000415761 0)
(6.53743e-05 -0.000187794 -1.10257e-21)
(0.00119334 0.00212398 -1.55126e-21)
(0.00143492 0.00289988 2.94583e-21)
(0.00105647 0.000195005 1.8714e-21)
(0.00226897 0.00387797 4.86157e-22)
(0.000968814 0.000172776 3.9421e-21)
(0.00239668 0.00403152 -7.13385e-22)
(0.00234531 0.00394083 -3.98758e-22)
(0.00096334 0.000130292 5.13056e-24)
(0.00226933 0.00387544 0)
(0.00119022 0.00211961 3.56994e-22)
(0.00224216 0.00386594 -1.05732e-22)
(0.00120813 0.00221423 1.29284e-21)
(0.00118793 0.0021811 -1.45137e-21)
(0.00103324 -8.7094e-06 9.87755e-22)
(0.00226859 0.00387221 6.6666e-22)
(0.00239473 0.00402859 2.05682e-21)
(0.00234347 0.00393794 2.24423e-21)
(0.000556979 0.000182365 1.85395e-21)
(0.000598375 0.00023167 0)
(0.00238457 0.00403555 -3.45975e-22)
(0.00233242 0.00394465 -4.92402e-22)
(0.00206381 0.00390399 4.22473e-21)
(0.000910502 0.00026963 1.21779e-21)
(0.00133611 0.00083159 2.45671e-23)
(1.19283e-05 -4.58797e-05 -6.01026e-22)
(0.00226784 0.00386864 -1.56053e-21)
(0.00120543 0.0022098 1.53572e-21)
(0.00118522 0.0021768 1.46588e-21)
(0.00239369 0.00402628 0)
(0.00234247 0.0039354 0)
(0.000499718 -0.000155652 0)
(0.0023956 0.00403591 -1.8002e-22)
(0.0023443 0.00394513 7.44823e-22)
(0.00193265 0.00384629 2.04633e-21)
(0.00100947 0.000211192 -6.94587e-21)
(0.00238485 0.00404219 6.29851e-23)
(0.00233225 0.00395094 7.04813e-23)
(0.00120347 0.00220599 -1.71394e-21)
(0.00118321 0.0021731 -1.86953e-21)
(0.00100985 1.17702e-05 -1.99472e-21)
(0.0010788 4.55628e-05 -1.54822e-24)
(0.00239649 0.00403461 6.31586e-22)
(0.0023452 0.00394386 9.0966e-22)
(4.1808e-05 0.000423101 -5.73564e-22)
(0.00025172 -1.49699e-05 6.01619e-21)
(0.00239113 0.00402347 -2.15305e-21)
(0.00233991 0.0039307 -2.3458e-21)
(0.00169992 0.000391337 -4.08556e-21)
(0.00239569 0.00403353 -9.29688e-22)
(0.00234428 0.00394284 -1.29085e-21)
(0.000578156 0.000266994 6.46425e-21)
(0.00239549 0.00403249 0)
(0.00234405 0.00394181 0)
(1.72672e-05 0.000109402 2.12018e-20)
(0.00101345 -0.000141857 9.17199e-21)
(0.00010239 1.78495e-05 2.66663e-21)
(0.00238783 0.00403494 5.92007e-22)
(0.00233748 0.00392993 3.2115e-21)
(0.00226052 0.0038616 -1.17865e-21)
(0.00118463 0.00210362 5.60938e-22)
(0.000464205 8.64217e-05 -1.02862e-20)
(0.00239572 0.00403144 -1.20238e-21)
(0.00234429 0.00394081 -1.31496e-21)
(0.000951937 0.00170034 -2.54175e-21)
(0.00034743 -6.57594e-07 -1.14711e-21)
(0.00119979 0.00219692 2.60817e-22)
(0.00117868 0.00216471 0)
(0.00121215 0.00222683 5.20946e-22)
(0.00119145 0.00219319 5.75725e-22)
(0.000218206 -1.30081e-05 6.84129e-21)
(0.0009957 5.85813e-05 2.85405e-21)
(0.000577198 0.000335577 0)
(0.000312634 -9.7277e-06 -1.06903e-21)
(0.00238755 0.00405211 -2.60404e-21)
(0.00233599 0.00393151 -2.11516e-21)
(0.00178827 0.00360848 0)
(0.00119101 0.00212616 4.81174e-22)
(0.000618571 0.000307874 -6.52532e-21)
(0.00225811 0.00386265 -1.32514e-21)
(0.0012441 0.0022097 -3.50489e-22)
(0.00117517 0.00217632 9.90106e-24)
(0.00163423 0.000275728 1.79727e-21)
(0.00117256 0.0021013 2.57441e-22)
(0.00118374 0.00209783 -6.34526e-22)
(8.84591e-05 3.84622e-05 0)
(0.000934435 -0.000124282 -5.41148e-21)
(0.00119664 0.00213256 1.69321e-21)
(0.00120037 0.00219132 -2.8744e-22)
(0.00117674 0.00216059 0)
(0.000964116 0.000123485 3.72822e-21)
(0.00228131 0.00370963 -1.75694e-21)
(0.00225355 0.00387366 2.8464e-21)
(0.00172383 0.00354513 1.89125e-21)
(0.00119704 0.00213175 0)
(0.00117783 0.00215024 3.97384e-22)
(0.00127923 0.00214027 2.32652e-21)
(0.000191049 -6.2818e-06 1.79883e-25)
(0.00226238 0.00417695 1.39402e-23)
(0.00218763 0.0040799 1.38493e-23)
(0.0021249 0.00398831 0)
(0.00226455 0.00386382 8.52648e-22)
(0.00118594 0.00209472 -3.42356e-21)
(0.00137984 0.0022535 7.82422e-21)
(0.000987868 6.78106e-05 3.1014e-21)
(0.00224722 0.00390085 -1.47811e-21)
(0.00119463 0.00212809 -2.82959e-22)
(0.00120373 0.00219854 3.14484e-22)
(0.00117625 0.0021604 -2.72051e-21)
(8.1919e-05 -0.000166801 1.01477e-20)
(0.00226325 0.00386141 3.75249e-21)
(0.000730648 0.000531493 -3.38811e-21)
(0.00215919 0.00408736 -9.25775e-22)
(2.74121e-05 -4.28093e-05 1.22503e-21)
(0.00239208 0.00402213 -1.70408e-23)
(0.00234089 0.00393114 -2.6823e-21)
(5.52526e-05 0.000461846 3.65908e-22)
(0.00125127 0.00220099 -2.89661e-21)
(0.00117298 0.00218188 -3.12572e-21)
(0.0012032 0.00221636 -3.02665e-22)
(0.00118162 0.00218201 -3.38214e-22)
(0.00119194 0.00212465 0)
(0.00120843 0.00183846 0)
(0.00226276 0.00386014 -9.72758e-22)
(0.00237901 0.00404864 -7.2868e-22)
(0.00233587 0.00391307 0)
(0.0011923 0.00211111 3.7021e-21)
(0.00228224 0.00377366 -1.64231e-21)
(9.31641e-06 -1.14044e-05 2.51567e-21)
(0.0012075 0.00221465 1.66582e-22)
(0.00118724 0.00218154 1.4926e-21)
(0.00110053 2.23415e-05 9.31739e-21)
(0.000176647 1.72092e-06 -3.00126e-20)
(0.000786844 0.00159234 4.72725e-21)
(0.00089784 6.34567e-06 -1.30734e-20)
(0.00226115 0.00385878 -2.12037e-21)
(0.00119116 0.00208637 -4.18335e-22)
(0.00124754 0.00206023 7.89935e-22)
(0.00118923 0.00211986 1.94232e-21)
(0.00121339 0.00222523 7.79843e-22)
(0.00119284 0.00219181 1.71963e-22)
(0.00238692 0.00378913 0)
(0.00120482 0.00221085 0)
(0.00118451 0.00217784 2.10101e-22)
(0.000637649 0.000593031 -5.88893e-21)
(0.00124314 4.45194e-05 2.46067e-21)
(0.000453971 0.00055262 -9.34083e-21)
(0.00121345 0.00222382 6.57642e-22)
(0.00119299 0.00219043 -1.0844e-22)
(0.00227968 0.00408364 -3.73478e-21)
(0.000608208 0.000516909 3.49102e-21)
(0.00118214 0.00170711 -4.36631e-22)
(0.00120311 0.00214147 3.98473e-21)
(0.00103347 0.000179271 3.61917e-21)
(0.00229872 0.00390107 0)
(0.00235656 0.00404576 -3.53092e-21)
(0.00121244 0.00222145 9.17004e-22)
(0.00119209 0.00218809 1.00555e-21)
(0.000110221 0.000107234 -1.08022e-20)
(0.00120287 0.00220728 0)
(0.00118244 0.00217439 0)
(0.000984036 0.000151158 2.71365e-21)
(0.00259299 0.00428702 3.4059e-21)
(0.00232292 0.00417187 -6.52417e-23)
(0.00242589 0.00440176 0)
(0.00236209 0.00430029 -3.35223e-23)
(0.00229646 0.00398825 -3.46689e-21)
(0.000963647 1.6467e-05 0)
(0.00121165 0.00221932 0)
(0.00119137 0.00218601 1.1216e-21)
(0.00104369 0.00279843 0)
(0.00233744 0.00405758 -3.09421e-21)
(0.0012251 0.00225084 1.17102e-23)
(0.00119928 0.00221343 2.21195e-22)
(0.0015061 0.00176905 -1.93202e-22)
(0.00232942 0.00405913 -5.85632e-21)
(0.00121 0.00221763 1.04856e-21)
(0.00118976 0.00218439 2.41822e-21)
(0.00235925 0.00408355 3.67745e-21)
(3.80142e-05 3.65377e-06 8.64898e-21)
(0.00237847 0.00404919 3.38775e-21)
(0.0023322 0.00393228 0)
(0.00222296 0.00395617 3.1167e-21)
(0.0023103 0.00405284 1.01471e-23)
(0.00222143 0.00395085 -3.27097e-21)
(0.00231429 0.00405025 2.97959e-21)
(2.89188e-05 -3.74391e-05 -6.94564e-23)
(0.00222012 0.00395983 4.80524e-23)
(0.00229419 0.00405774 2.74617e-21)
(0.000888942 -1.85102e-05 1.43681e-20)
(0.00119968 0.00219598 2.15333e-21)
(0.00117793 0.00216412 2.62969e-21)
(0.00118219 0.00210174 5.91625e-22)
(0.00250133 0.00434077 3.15045e-21)
(0.000576129 0.000589287 5.5369e-21)
(0.00222055 0.00395978 -2.69698e-23)
(0.00228602 0.0040593 0)
(0.000124636 0.000110703 -5.56333e-21)
(0.00222157 0.0039581 0)
(0.00227913 0.00405297 0)
(0.00234358 0.00402249 3.5668e-21)
(0.00222065 0.00395516 -2.60187e-21)
(0.0022755 0.00404551 -7.05501e-21)
(0.00209547 0.00407628 4.9888e-22)
(0.0022153 0.00395414 -9.18729e-21)
(0.00229556 0.00404951 0)
(0.00218883 0.00378459 6.34456e-21)
(0.00118878 0.00211654 0)
(0.00222247 0.00395282 0)
(0.0022743 0.00404095 0)
(0.00217884 0.00381141 3.59256e-24)
(0.00120177 0.00219342 2.86095e-22)
(0.00117657 0.00216188 -2.56733e-21)
(0.00118202 0.00209679 -1.81042e-23)
(0.00222092 0.00395163 -2.23333e-21)
(0.00227248 0.00403945 -6.99407e-23)
(0.00298069 0.00339611 1.35259e-20)
(0.00218199 0.00428336 -4.92413e-23)
(0.00226662 0.00436469 -6.58635e-23)
(0.0022093 0.00427053 -8.3178e-24)
(0.0021801 0.00383071 4.02496e-23)
(0.00219231 0.00385235 2.88168e-21)
(0.00221939 0.00395012 0)
(0.00227096 0.0040381 0)
(0.00118815 0.00211403 -1.84955e-21)
(0.00221863 0.00394841 -1.89381e-21)
(0.00227017 0.00403652 -1.77258e-21)
(0.00221439 0.0039565 0)
(0.00228466 0.00405633 -3.64254e-23)
(0.0022008 0.00385335 5.22329e-21)
(0.000912381 1.14354e-05 4.41968e-21)
(0.0022173 0.00394569 -1.77757e-21)
(0.00226886 0.00403364 0)
(0.00226714 0.00367386 1.73486e-21)
(0.00220179 0.00384997 -3.1029e-23)
(0.00225379 0.00423937 -1.3401e-20)
(0.0021859 0.00384505 -2.86767e-21)
(0.00221729 0.00393986 -1.5511e-21)
(0.00226865 0.00402753 -6.98051e-23)
(0.00219731 0.00385508 -5.53397e-21)
(0.00120815 0.00220511 -2.52901e-21)
(0.00117648 0.00216258 -2.75102e-21)
(5.35551e-05 0.000386461 5.2664e-22)
(0.00118415 0.00209573 2.75373e-21)
(0.00118706 0.00211064 2.47915e-21)
(0.00220027 0.00384674 -2.1742e-21)
(0.00221741 0.00394076 1.29106e-21)
(0.0022688 0.00402866 1.17973e-21)
(0.00221889 0.003956 2.39894e-21)
(0.00227134 0.00404594 4.52364e-21)
(0.00221526 0.00395559 -5.58731e-21)
(0.00227803 0.00405282 -2.55081e-21)
(0.00221485 0.00393975 0)
(0.00226629 0.00402774 1.03757e-21)
(0.00219823 0.00384416 -3.27455e-23)
(0.0022137 0.003936 9.82558e-22)
(0.00226525 0.0040238 8.95251e-22)
(0.00219743 0.00384225 0)
(0.0011855 0.00210797 8.60783e-24)
(0.00220196 0.00385228 -5.12886e-21)
(0.00120129 0.0022017 0)
(0.00118071 0.002169 2.11229e-21)
(0.00221411 0.00393581 0)
(0.00226558 0.00402327 -6.75076e-22)
(0.00103411 4.72433e-05 -2.76821e-24)
(0.00219607 0.00383883 1.61781e-21)
(0.00119334 0.00212375 2.28307e-21)
(0.00220844 0.0039406 1.14977e-21)
(0.0022597 0.00402808 1.03727e-21)
(0.00141425 0.00316204 -7.22249e-21)
(0.00221797 0.00395582 5.21389e-21)
(0.00227401 0.00404694 -2.53111e-23)
(0.00219983 0.00385492 5.47932e-21)
(9.9754e-05 3.448e-05 -5.91592e-21)
(0.00219412 0.00383545 1.44661e-21)
(0.000400122 -9.31756e-05 0)
(0.00223033 0.00404182 -6.91509e-22)
(0.00217976 0.00395442 -7.76295e-22)
(0.00173278 0.0014749 1.25655e-20)
(0.000928015 3.75749e-05 0)
(0.00220167 0.00384931 2.28866e-21)
(0.00219284 0.00383276 2.24373e-24)
(0.00219148 0.00383081 9.25545e-22)
(0.00120687 0.0021178 3.26027e-21)
(0.00218969 0.00383161 1.42767e-21)
(0.000105824 0.000738563 4.74332e-21)
(0.00218528 0.00384108 0)
(0.00221692 0.00395128 -2.46666e-21)
(0.00226893 0.00403968 0)
(0.000923111 2.42838e-05 0)
(0.00220196 0.00385207 4.99341e-21)
(0.00104734 0.00190867 3.56693e-21)
(0.00225558 0.00488075 6.90964e-21)
(0.0022 0.00384568 6.17402e-21)
(0.000633079 0.000446893 -1.48486e-20)
(0.00212269 0.00446247 -1.20157e-21)
(0.00221622 0.0039491 2.20774e-21)
(0.00226794 0.00403669 4.09312e-21)
(0.000991437 4.93362e-05 -8.75187e-21)
(0.00106296 0.00141203 -1.57934e-20)
(3.13753e-05 -8.91041e-06 -5.18974e-26)
(1.20575e-05 9.56996e-05 5.11021e-21)
(0.00221502 0.00394096 1.55235e-21)
(0.00226645 0.00402868 2.91206e-21)
(0.00220163 0.00384921 -2.3052e-21)
(0.00222816 0.00386064 1.06198e-22)
(0.00219775 0.00384148 7.54406e-23)
(0.00221477 0.00394816 0)
(0.00226636 0.00403582 -1.96718e-21)
(4.25096e-05 -1.03024e-05 3.71406e-21)
(0.00122497 0.00221219 -2.96241e-23)
(0.00117588 0.00216516 2.9015e-21)
(0.00201736 0.00426405 -2.87984e-21)
(0.00221392 0.00393833 7.63396e-23)
(0.00226523 0.00402591 7.04975e-23)
(7.09652e-05 0.000539681 -2.53721e-21)
(0.0022005 0.0038464 -2.07382e-21)
(0.00263191 0.0043895 0)
(0.0016707 0.00322468 2.19935e-21)
(0.000419748 0.000353287 4.11902e-24)
(0.00219605 0.00383765 1.50694e-21)
(0.00252832 0.00432104 -3.22664e-21)
(1.82154e-05 -4.63452e-05 -6.01818e-22)
(0.00221344 0.00394667 -8.78315e-24)
(0.00226501 0.00403445 3.54491e-21)
(0.00129454 0.000998832 -6.35746e-21)
(0.00219448 0.00383474 0)
(0.00219895 0.0038452 0)
(0.0022134 0.00394485 1.7672e-21)
(0.002265 0.00403264 0)
(0.000971558 0.000130813 9.95987e-22)
(0.00214884 0.0040079 0)
(0.00221056 0.00393305 -3.88375e-23)
(0.00226201 0.0040205 1.50424e-21)
(0.00112562 0.0011584 -1.36421e-20)
(0.00219326 0.00383291 1.0124e-21)
(0.00219785 0.00384209 -1.70382e-21)
(0.00221321 0.00394261 0)
(0.00226481 0.00403029 3.40914e-23)
(3.37857e-05 -3.35894e-05 -3.52073e-21)
(0.000970703 0.000260551 5.28145e-22)
(0.00219101 0.00383257 -7.67138e-22)
(0.00223856 0.00378281 -1.60216e-24)
(0.00217524 0.00367851 1.53054e-23)
(0.00211264 0.0035508 3.37466e-23)
(8.15147e-05 -9.32932e-05 2.41782e-20)
(0.00235334 0.00398324 0)
(0.00241189 0.00407624 0)
(2.96176e-05 0.00013885 -8.82994e-26)
(0.00219618 0.00383865 0)
(0.00221225 0.00393981 -1.3797e-21)
(0.00226374 0.00402739 -2.59334e-21)
(0.00219826 0.00394642 1.35464e-21)
(0.00224916 0.00403386 1.21462e-21)
(0.000167246 8.76397e-05 -8.64317e-21)
(0.0014398 0.000153812 1.28198e-20)
(0.00105069 -0.000195788 -6.6303e-21)
(0.00096746 0.000178535 1.13426e-20)
(0.00104822 0.000681108 -9.5406e-21)
(0.00233223 0.00394199 1.62349e-23)
(0.00238497 0.004033 1.48079e-23)
(0.000943522 3.46441e-05 -2.0472e-21)
(0.00218776 0.00383792 5.51475e-22)
(0.00239829 0.00404238 1.48212e-22)
(0.00234674 0.00395138 -1.81589e-22)
(0.0025431 0.004532 -9.92051e-24)
(0.00247654 0.00442895 2.18613e-22)
(0.00238423 0.00431406 2.39813e-23)
(9.25077e-05 -0.000107092 -1.54447e-20)
(0.00239916 0.00404152 3.80567e-22)
(0.0023477 0.00395058 2.00068e-22)
(0.00239875 0.00404009 0)
(0.00234727 0.00394919 -9.92713e-22)
(0.00239816 0.004039 0)
(0.00234656 0.00394815 2.74284e-22)
(0.00239795 0.00403771 1.17963e-21)
(0.00234639 0.00394689 1.25307e-21)
(0.0021946 0.00383568 2.64315e-21)
(0.000550109 -7.94146e-05 0)
(0.00221144 0.00393806 -2.43946e-21)
(0.00226293 0.00402573 -2.22808e-21)
(0.00235567 0.00440664 -2.09993e-22)
(0.00229862 0.00431119 -5.41198e-23)
(0.00235593 0.00435269 6.17411e-23)
(0.00246339 0.00456704 7.91249e-23)
(0.00239642 0.00446472 1.55533e-22)
(0.00351183 0.000931726 9.05882e-21)
(0.00239423 0.00402703 -2.43471e-21)
(0.00234298 0.00393594 0)
(0.00134723 0.00157574 0)
(0.00079402 1.44561e-05 0)
(0.000161521 5.25152e-06 -4.6749e-21)
(0.00221061 0.0039367 0)
(0.00226205 0.00402447 0)
(4.43558e-05 -3.06023e-05 0)
(-0.000104415 0.00190619 8.64912e-21)
(-0.000194523 0.00168911 -8.89692e-21)
(3.00748e-05 0.000184455 -1.95798e-22)
(0.00238588 0.00405585 -3.36714e-21)
(0.00233568 0.00393462 5.13109e-21)
(0.00219365 0.00383335 1.0791e-21)
(0.000841567 1.56813e-05 7.89554e-21)
(0.000950703 3.87061e-05 0)
(0.000772536 -5.3363e-06 -4.86866e-21)
(0.00254321 0.0045416 2.53274e-22)
(0.00247907 0.00443641 0)
(0.00226684 0.00386953 -2.58304e-21)
(0.00226494 0.00386923 -1.83416e-21)
(0.00105685 3.17071e-05 -1.51997e-23)
(0.00220912 0.003935 2.62518e-21)
(0.00226077 0.00402246 1.60939e-21)
(0.00226463 0.00386859 0)
(0.0020932 0.0045422 1.78828e-21)
(0.00226321 0.00386723 3.67458e-23)
(0.000268825 0.000113818 0)
(0.00105555 0.0024614 7.95635e-21)
(9.10035e-05 -7.05017e-05 -2.56011e-26)
(7.40106e-05 9.00401e-06 4.59128e-25)
(0.000246031 0.000138631 8.2145e-21)
(0.00121357 0.00149725 1.90788e-20)
(0.000847563 4.30401e-05 -2.10892e-24)
(0.000970775 0.000114861 -6.82459e-21)
(0.0021914 0.00383213 8.0843e-22)
(0.00240913 0.00432418 1.2083e-22)
(0.000340487 0.000247875 0)
(0.000911055 0.000635823 -9.08843e-21)
(0.00226401 0.000209532 1.25669e-20)
(3.34165e-05 -2.78324e-05 -4.11823e-21)
(0.00257261 0.00426692 0)
(0.000994678 0.000115776 -1.82145e-21)
(0.00220602 0.00393554 -1.99641e-21)
(0.0022576 0.00402267 -1.19811e-21)
(0.00096906 4.18497e-05 0)
(0.000877697 0.00403473 -6.24259e-21)
(0.000448013 0.000476417 -1.94176e-20)
(0.0021726 0.00386171 3.15495e-22)
(0.000918461 -4.42691e-05 -6.88299e-21)
(0.000117621 -0.000128319 1.08911e-20)
(0.000107665 -0.000132196 -7.28332e-21)
(0.00192569 0.00444708 -3.85281e-21)
(0.000935135 1.0631e-05 0)
(0.00239008 0.00403724 4.92135e-22)
(0.00233852 0.00394635 0)
(0.00218891 0.00383553 0)
(0.00122732 0.000776754 -1.96167e-20)
(0.000869345 6.02319e-05 -3.98893e-25)
(0.00220142 0.00394184 -1.54558e-21)
(0.00225279 0.00402944 -1.39088e-21)
(0.00012181 -0.000103975 2.07091e-20)
(0.000987703 4.73389e-05 1.01065e-21)
(0.000886209 6.2801e-05 0)
(0.00226338 0.00387685 9.63709e-22)
(0.000656972 0.000480185 -1.46068e-20)
(0.00225196 0.00387292 6.24483e-22)
(0.00138501 0.000218623 0)
(0.000942983 4.6739e-05 0)
(0.00226721 0.00387611 -4.17055e-22)
(0.00239589 0.00403007 3.48833e-22)
(0.00234452 0.00393945 1.4583e-21)
(0.00134714 0.000276299 -3.68117e-21)
(0.000226505 0.000137982 7.83207e-21)
(0.00234292 0.0039368 -1.6815e-21)
(0.00239416 0.00402737 -1.54033e-21)
(0.00226812 0.00387409 0)
(0.00234167 0.00393438 1.94205e-21)
(0.00239289 0.0040251 1.7807e-21)
(0.000380628 0.000343576 0)
(0.00233955 0.00392936 -2.31692e-21)
(0.00239084 0.00402137 0)
(0.0023371 0.00392874 -6.42574e-22)
(0.00238757 0.00402655 -5.93664e-22)
(0.00233544 0.00392964 5.49145e-21)
(0.00238708 0.00404801 -6.22244e-22)
(0.00226752 0.00387099 0)
(0.000910652 7.57362e-05 -5.13804e-21)
(0.00216713 0.00405505 3.97439e-21)
(5.23483e-05 -2.51397e-05 1.47376e-20)
(0.000974882 0.000689664 4.51214e-21)
(0.0022667 0.00386748 -7.4487e-22)
(1.09605e-05 3.48211e-05 0)
(0.00029466 0.000234626 -1.25658e-20)
(0.00242529 0.00433768 0)
(0.00228503 0.00366573 3.45898e-21)
(0.00252426 0.00454563 -3.71845e-22)
(0.00246102 0.00443982 2.8541e-22)
(0.000974342 0.000353362 1.00167e-20)
(0.000928602 3.57627e-05 -2.62258e-21)
(0.000723174 0.00193068 -1.26734e-20)
(1.87358e-05 -3.06034e-05 5.93683e-22)
(0.00225987 0.00385977 2.33869e-21)
(0.0022579 0.00386111 0)
(0.00225395 0.00386477 0)
(0.000163447 0.000133927 0)
(0.0022631 0.00384433 1.65738e-21)
(0.00224749 0.00389576 2.98209e-21)
(0.000803444 0.00130837 1.51936e-20)
(0.0022945 0.00482283 9.17215e-21)
(0.00111987 0.000650988 0)
(4.547e-05 -3.17944e-05 -7.9442e-21)
(0.000942911 1.62708e-05 -5.3763e-25)
(0.000468747 0.00130391 8.36807e-21)
(0.000992945 0.000107545 -5.54168e-22)
(2.30733e-05 -0.000104724 -5.01694e-22)
(0.000302401 0.000133738 0)
(0.000965 5.03053e-05 1.11913e-20)
(0.0002309 0.000373066 5.6272e-25)
(7.3963e-05 0.00220275 0)
(0.000930744 8.08084e-05 0)
(0.00217272 0.00438416 -3.99374e-21)
(2.50794e-05 -2.77157e-05 3.03621e-21)
(0.000456071 0.00014931 1.47142e-20)
(0.000964728 -0.000702757 1.11588e-21)
(0.000713468 0.00115658 1.62443e-20)
(0.00118967 0.000921009 -8.03525e-21)
(2.2515e-05 -2.40819e-05 -1.26911e-20)
(0.00171411 0.00122396 1.39677e-20)
(0.00118757 0.000155471 -2.81491e-21)
(0.000961586 1.90046e-05 -9.46532e-22)
(0.00117263 8.8872e-05 9.74098e-21)
(0.000959668 4.15202e-05 -1.39894e-22)
(1.81427e-05 -3.82848e-05 0)
(0.000960107 -4.27737e-05 -1.62677e-20)
(0.00144662 0.00227148 3.692e-21)
(0.000929802 7.26705e-05 1.1968e-20)
(3.66116e-05 -7.11588e-05 0)
(1.56871e-05 0.00175485 -3.30858e-21)
(0.000242842 -0.000278227 0)
(0.000168243 0.000167523 9.1133e-21)
(0.00255045 0.00444515 6.53295e-21)
(0.000949783 2.12312e-05 -1.27201e-21)
(0.000488601 -0.000369971 0)
(0.000510498 0.000128738 8.99754e-21)
(0.000301657 0.000274317 2.5258e-24)
(0.00114666 6.78565e-05 0)
(0.00244615 0.00434346 3.10169e-23)
(1.85126e-05 -1.57112e-07 0)
(0.00217956 0.00385031 0)
(0.000267829 0.000302175 0)
(0.000196787 0.00155277 0)
(0.00189066 0.00449746 5.6491e-21)
(0.00265907 0.00439469 6.67608e-21)
(0.000910954 0.000782695 8.03605e-21)
(4.96531e-05 -7.32472e-05 4.8306e-21)
(0.000970946 2.97933e-05 0)
(0.00015454 0.000188759 0)
(0.000505537 0.000221911 -2.14318e-21)
(2.58926e-05 -1.51324e-06 0)
(4.02894e-05 -2.08182e-05 4.83504e-21)
(0.00029533 0.000109391 6.8904e-25)
(0.000174214 0.000149133 0)
(0.000429663 0.000193988 1.12681e-20)
(0.00115534 0.000153015 -3.65501e-21)
(7.44087e-05 -8.80876e-06 -6.01829e-21)
(0.00099729 7.59419e-05 1.37875e-22)
(0.000115286 -0.000164967 2.36785e-24)
(0.00117423 0.000152729 2.31248e-21)
(0.00137909 0.00216715 1.05413e-20)
(0.000962636 4.15873e-05 1.36615e-22)
(4.01262e-05 -7.95215e-05 0)
(0.00125247 0.00314885 0)
(0.00095711 1.94808e-05 -6.01901e-22)
(3.80991e-05 -9.6415e-05 2.68476e-21)
(0.00117251 0.00160013 3.02353e-21)
(0.00128158 0.000439852 2.67235e-21)
(0.000170308 0.00286453 0)
(0.000771594 6.09694e-05 -2.31683e-21)
(1.21556e-05 -1.53539e-06 0)
(-2.81572e-05 0.000744158 6.7123e-21)
(0.000122745 -1.5981e-05 9.36664e-21)
(0.000969019 9.18899e-06 -4.08058e-24)
(0.000249811 -0.000434904 -5.97983e-21)
(0.000560993 0.000997897 -1.50607e-20)
(0.000111131 -2.12293e-05 0)
(0.0011587 0.000706654 -2.74806e-23)
(0.000908512 9.75767e-07 0)
(0.000807712 3.50982e-05 6.93998e-21)
(0.000143326 0.00012079 -5.27406e-21)
(0.000944364 1.54403e-05 2.33976e-21)
(0.000139174 -0.000154757 3.13559e-24)
(0.00247489 0.00445412 3.55456e-22)
(0.00253754 0.00456064 0)
(0.000541538 0.00026189 9.86573e-21)
(0.00106797 0.000903731 -1.80785e-24)
(0.000954417 1.8781e-05 1.17063e-21)
(0.00130832 0.000627794 5.42911e-21)
(7.70399e-05 2.48619e-05 1.25698e-20)
(0.000216812 0.00016829 5.66244e-21)
(0.00085305 8.88586e-05 2.6628e-20)
(0.00101605 -3.85079e-06 -2.81056e-20)
(0.00272433 0.00442984 1.03631e-20)
(0.000132151 -8.83975e-06 2.07771e-20)
(0.000952837 4.03121e-05 0)
(0.000277954 0.000141313 -8.67818e-21)
(0.000202286 0.000130539 8.19441e-21)
(0.000169473 -0.000361582 2.40818e-21)
(0.000155457 0.000121836 1.59641e-20)
(0.000395588 0.000126839 9.84721e-21)
(0.000136972 -0.00012713 2.64503e-24)
(0.000385723 0.000161476 4.08783e-25)
(3.67931e-05 -5.87551e-05 0)
(0.000966051 4.57438e-05 0)
(0.000948256 2.8335e-05 1.99915e-21)
(0.000236344 0.000189869 1.1627e-20)
(0.000391285 0.000150381 0)
(0.000384004 -4.53703e-05 6.38587e-21)
(0.000194946 0.000106848 0)
(0.00095125 2.90075e-05 -2.11764e-21)
(0.000328347 -0.000340506 4.89576e-21)
(0.000172791 -0.000189854 1.39675e-20)
(7.46939e-05 -5.68557e-05 1.54322e-21)
(0.000467097 0.000191508 -1.63616e-24)
(0.000521125 0.000224681 0)
(0.000368294 0.000395977 0)
(0.000956549 2.59676e-05 0)
(0.000194583 0.000179711 -3.31751e-21)
(0.000981385 4.62481e-05 -8.6159e-21)
(0.000129278 -0.00017644 -7.13209e-21)
(0.000286529 0.00154571 5.30771e-21)
(0.000132209 0.000139694 0)
(0.000815719 0.000752032 0)
(0.000415796 -5.97065e-06 0)
(0.000957733 -7.42696e-05 1.78485e-20)
(0.000911346 0.000694562 -1.22367e-20)
(9.21961e-05 0.00103675 5.14927e-21)
(4.81201e-05 -7.44859e-05 0)
(0.00187124 0.00452832 5.26422e-22)
(0.000953379 -1.81502e-05 2.2454e-21)
(0.000861048 0.000824382 1.65125e-20)
(0.000930992 -3.15519e-05 -3.83802e-25)
(0.000270286 0.000265494 -8.25044e-21)
(0.00102661 1.76888e-05 0)
(8.23461e-05 6.49008e-05 4.42545e-21)
(0.000188932 -0.000221232 -5.03087e-21)
(0.000315747 0.000168862 9.1783e-21)
(5.06332e-05 -9.4027e-05 -9.98396e-21)
(9.54611e-05 1.42083e-05 -3.79848e-21)
(0.000991321 4.77102e-05 5.10855e-21)
(0.000197919 1.63561e-05 4.21254e-21)
(0.000917414 0.000999131 0)
(0.00111387 0.000174402 1.60228e-20)
(0.000247733 1.12014e-05 0)
(7.91154e-05 -1.60131e-05 -5.75668e-21)
(0.000232888 -0.000232176 -8.86725e-21)
(0.000426849 0.000947079 -5.98926e-21)
(0.000947097 3.51305e-05 9.29677e-21)
(0.000568505 0.000300548 -7.58161e-21)
(8.06844e-05 2.66587e-05 -1.06352e-20)
(0.00141903 0.000646131 -1.30044e-20)
(0.000318789 0.000677755 -2.18864e-20)
(0.000959113 -2.72243e-05 0)
(5.20058e-05 -0.000108373 0)
(0.000968254 2.06054e-05 -1.31207e-22)
(0.00031824 -0.000269382 -8.88222e-21)
(0.00101823 3.68606e-05 4.60483e-21)
(0.000953102 1.85591e-05 -8.21862e-21)
(2.39396e-06 1.30168e-05 -1.02393e-21)
(2.9711e-05 -2.08522e-05 -5.57076e-21)
(0.000261419 -0.000332567 -6.13635e-21)
(0.000119561 -3.07621e-05 0)
(0.00100527 2.87522e-05 0)
(0.000683035 0.00014683 -2.682e-22)
(2.88367e-05 1.86962e-05 7.42439e-21)
(0.00112431 0.000471115 -1.67842e-21)
(0.00247448 0.00433013 3.28112e-22)
(0.000113042 -5.96412e-05 -3.02444e-25)
(0.00112487 0.000407136 6.68605e-21)
(0.000230246 0.00056622 3.43274e-25)
(8.81616e-05 -5.08582e-05 -4.24349e-21)
(0.00100589 2.88753e-05 0)
(2.21075e-05 -1.0923e-06 -8.28665e-21)
(6.97628e-05 -4.91588e-05 0)
(0.00100353 -2.59981e-05 0)
(0.000946062 9.5742e-06 -2.71438e-22)
(0.000723344 0.000282878 -1.43871e-20)
(0.000494933 0.000282107 -5.58948e-21)
(0.00111268 0.00130505 9.74855e-21)
(2.42124e-06 1.91451e-05 0)
(0.000247269 0.000261542 8.61891e-21)
(4.29932e-05 2.8299e-06 -4.84277e-21)
(0.000509105 0.000562938 7.71253e-21)
(0.000311783 0.00031186 8.72579e-21)
(0.000965651 2.76021e-05 -2.70466e-22)
(3.31625e-05 1.32444e-05 0)
(0.000224811 1.0578e-05 0)
(4.64175e-06 0.000131168 1.03688e-21)
(-6.13011e-06 0.000615878 -8.30452e-21)
(0.000125452 0.000296771 -9.34558e-25)
(0.00101898 8.63054e-06 -4.94684e-22)
(0.000645792 -0.000267206 -5.98779e-21)
(0.000176463 2.01111e-05 4.36876e-21)
(0.000976057 0.000920455 -9.47285e-21)
(0.00245797 0.00434719 6.78426e-23)
(0.00051587 -0.00025559 -1.46259e-20)
(0.000962835 2.65956e-05 -9.08754e-22)
(0.000922679 0.000844971 -2.56433e-20)
(6.60111e-06 0.000836089 0)
(0.000131647 -9.11921e-05 0)
(0.00125628 0.000588869 0)
(0.000943982 6.87496e-06 0)
(2.2595e-06 0.000560841 0)
(0.000840689 9.22135e-05 -4.13439e-21)
(-5.21865e-06 0.000296822 -6.56546e-21)
(0.000966547 5.5002e-05 -1.28679e-21)
(0.000176606 0.000194908 0)
(7.90933e-06 0.00047383 -4.33969e-21)
(-2.64704e-05 0.000745051 -7.71934e-21)
(0.00236528 0.00474268 1.50751e-23)
(0.00116295 7.66212e-05 -1.59562e-20)
(0.000738224 0.00064778 -4.17632e-21)
(0.000987124 2.25175e-05 0)
(0.000134313 -0.000106879 -1.00295e-20)
(6.80116e-05 4.20037e-05 4.33509e-21)
(0.000134449 0.000160863 7.35241e-21)
(1.1395e-05 0.000271129 3.24325e-21)
(0.000926219 2.49853e-06 0)
(0.000924425 3.58945e-05 0)
(-5.62693e-06 0.000219494 0)
(0.000854177 0.000636151 6.78284e-21)
(3.70501e-06 0.00016593 1.99289e-21)
(0.000468701 0.000877175 -1.57353e-20)
(0.000219708 0.00011086 8.8417e-21)
(5.05334e-07 0.000201952 -3.90806e-21)
(0.000923504 -3.32319e-05 0)
(8.25106e-05 -0.000160005 0)
(0.00101922 8.30902e-06 2.28361e-21)
(7.41036e-05 2.45054e-05 -1.68254e-20)
(4.51486e-05 3.76018e-06 7.13765e-21)
(0.000346011 -4.54956e-05 -9.10542e-22)
(-3.02232e-07 0.000105765 -2.633e-21)
(0.000976315 -6.88086e-05 9.34022e-21)
(0.000954722 3.71081e-06 -1.07987e-21)
(0.000147107 -0.000313024 3.59921e-21)
(3.82445e-05 3.2186e-05 -3.94582e-22)
(0.000242548 0.000113616 1.73642e-25)
(0.000766674 4.62518e-05 0)
(0.000461553 -1.86126e-05 -9.73943e-25)
(0.000290118 0.000172735 -8.31233e-21)
(0.000169117 -0.000158601 0)
(0.00244766 0.00429165 3.75873e-21)
(7.36828e-05 5.12987e-05 5.00582e-21)
(0.000770488 0.00030565 8.74785e-21)
(0.000343327 -0.000583409 1.0874e-20)
(0.000478775 0.000165322 -9.64717e-21)
(0.000379984 8.70507e-05 -8.95314e-21)
(0.000245789 0.000231998 -1.54775e-20)
(0.000150355 0.000158306 -5.6795e-21)
(0.000903915 0.000401223 0)
(1.32025e-06 3.80423e-05 -4.14773e-21)
(0.00101152 -3.06907e-06 2.26851e-21)
(0.0010182 1.95393e-05 0)
(0.000927446 1.48049e-05 1.61765e-21)
(0.000654089 0.000121759 5.07884e-21)
(0.000941649 4.72836e-05 0)
(0.000445947 -0.000286336 -4.4182e-21)