/*--------------------------------*- C++ -*----------------------------------*\
  =========                 |
  \\      /  F ield         | OpenFOAM: The Open Source CFD Toolbox
   \\    /   O peration     | Website:  https://openfoam.org
    \\  /    A nd           | Version:  8
     \\/     M anipulation  |
\*---------------------------------------------------------------------------*/
FoamFile
{
    version     2.0;
    format      ascii;
    class       volVectorField;
    location    "8";
    object      U;
}
// * * * * * * * * * * * * * * * * * * * * * * * * * * * * * * * * * * * * * //

dimensions      [0 1 -1 0 0 0 0];

internalField   nonuniform List<vector> 
6388
(
(0.000944837 2.82966e-05 1.11553e-21)
(0.000935241 1.82232e-05 0)
(0.000154572 -2.14482e-05 0)
(0.00087448 0.000326068 -4.48523e-22)
(0.000748123 0.00132443 3.05496e-21)
(0.000656744 0.00114219 -2.08899e-23)
(0.000444641 0.000479856 2.14899e-21)
(0.000627451 0.00078054 2.11244e-21)
(0.000350204 0.000263111 -9.22098e-22)
(0.000126006 0.000664336 0)
(0.000590272 0.00115376 0)
(9.14908e-05 0.000679221 0)
(0.000594784 0.000601025 2.15756e-25)
(0.000669157 0.00122825 2.31517e-21)
(0.000495219 0.000566221 3.14251e-21)
(0.000615768 0.000701197 0)
(0.000558812 0.000886364 2.40362e-21)
(0.000630765 0.0011413 -2.88954e-23)
(0.000288093 0.000575051 0)
(0.000144995 0.000453172 2.22209e-24)
(0.000515598 0.000694366 -1.11977e-21)
(0.000666429 0.000811671 0)
(0.000662403 0.00121565 -9.51308e-22)
(0.000762873 0.00132173 9.18699e-22)
(0.000696374 0.00116696 -2.30959e-21)
(0.000215937 0.000597578 -1.93413e-22)
(0.000652784 0.000595125 0)
(0.000477547 0.000748222 5.66259e-22)
(0.000353756 0.000689121 9.40624e-22)
(0.00072193 0.000252085 -2.23843e-21)
(0.000656781 0.00118687 0)
(0.000674344 0.0012209 9.11808e-22)
(0.000675822 0.00109987 -2.44952e-21)
(0.000600885 0.00123599 1.30935e-21)
(0.000660508 0.00119144 1.68024e-21)
(0.00059328 0.00111929 0)
(0.000701261 0.00115252 5.67992e-22)
(0.000190461 0.000884828 7.71488e-22)
(0.000629681 0.000605832 5.61779e-22)
(0.000612169 0.0011884 1.28584e-21)
(0.000182132 0.000516661 2.67237e-21)
(0.000181891 0.000538415 -1.21902e-21)
(0.00093716 -2.05925e-05 -1.10344e-21)
(0.000645906 0.00121323 5.92773e-24)
(0.000600818 0.000201118 -2.65678e-21)
(0.000310458 0.00074506 -5.49466e-22)
(0.000975922 3.35631e-05 -1.11248e-21)
(0.000300936 0.00042345 5.01305e-22)
(0.000976643 0.000215346 -7.78268e-27)
(0.000895653 0.000717927 -1.23009e-21)
(0.000164287 -5.67831e-05 6.39766e-22)
(0.000861849 1.03942e-05 4.44232e-21)
(0.0003332 0.000444294 -3.28905e-21)
(0.000210384 0.000508142 1.22677e-21)
(0.000150187 0.000721798 1.29105e-21)
(2.76654e-05 6.72365e-05 0)
(0.000766979 0.000842054 1.88158e-21)
(0.00085216 0.000352703 0)
(5.68571e-05 0.000444545 -1.48034e-21)
(0.000346518 0.000471973 -1.8644e-21)
(0.00051675 0.000852552 8.98485e-22)
(0.000702789 0.000334334 0)
(0.000398223 0.000658125 1.73176e-24)
(0.000982921 0.000292992 3.86179e-22)
(0.00043872 0.0010876 1.94066e-21)
(3.79216e-05 2.07756e-06 1.34946e-21)
(0.000564636 0.000825708 1.29799e-21)
(0.000593536 0.000687372 1.02538e-21)
(0.000162303 0.000798793 1.59385e-22)
(3.75495e-05 -2.51159e-06 0)
(0.00141977 0.00104484 -1.34447e-21)
(0.000667351 0.00116249 -1.0936e-21)
(0.000705211 0.00107657 4.4118e-22)
(0.000532623 0.00141281 1.85165e-21)
(1.06589e-05 0.000113505 -1.85521e-22)
(0.00052707 0.000455737 3.97324e-25)
(0.000650625 0.00117654 7.49292e-24)
(0.00059186 0.000320681 -1.47859e-21)
(0.000903834 0.000313678 9.3351e-22)
(0.000673698 0.00116163 -7.21685e-22)
(0.000278332 0.000693315 2.92671e-22)
(0.00053882 0.00138249 -1.48831e-23)
(0.000397154 0.0011148 0)
(0.000388114 0.00109765 -1.45289e-23)
(0.000376765 0.00107295 0)
(0.000464975 0.00124972 -1.51446e-23)
(0.0006978 0.00133583 -1.41725e-21)
(0.00059968 0.00149609 1.58457e-23)
(0.000409823 0.00114645 -1.00901e-24)
(0.000432075 0.00118678 -1.16977e-23)
(0.000499062 0.00131512 -1.21928e-23)
(0.000366809 0.00105513 -1.10834e-23)
(3.71352e-05 1.79496e-06 -4.03126e-21)
(0.000944914 0.000152735 1.38004e-21)
(0.000559307 0.0006756 0)
(0.000908649 0.000186544 0)
(3.87766e-05 7.69403e-07 -2.73817e-21)
(0.00074021 0.0013391 6.71351e-22)
(0.000965761 0.000263475 -2.25452e-21)
(0.00115697 0.000527697 -1.45172e-21)
(0.000309231 0.00060545 -1.6518e-21)
(0.00040719 0.00129956 -9.18191e-24)
(0.000632765 0.00082713 0)
(0.00016523 0.000683397 2.62701e-21)
(0.000158031 0.000678021 -1.92727e-21)
(0.000494987 0.000835792 2.46531e-21)
(0.000311916 0.000320439 -2.318e-21)
(0.000487341 0.000915711 0)
(0.0003975 0.000671865 1.58003e-21)
(0.000201775 7.60279e-06 -2.615e-21)
(0.000378827 0.00051418 -1.42487e-21)
(0.000673111 0.00113373 -1.20991e-21)
(0.000498985 0.000982463 0)
(3.16774e-05 0.000452605 2.80469e-22)
(0.000982994 9.00575e-05 5.79856e-22)
(0.000985557 0.000114585 -1.97811e-21)
(0.000786971 0.00125179 0)
(0.000962178 0.000106428 -4.78232e-22)
(0.000662343 0.000590621 1.42453e-22)
(8.14189e-06 0.000149015 0)
(0.000732782 0.0012738 0)
(0.000189714 -0.000139156 0)
(0.000458559 0.000662111 -1.78366e-22)
(0.0003259 0.000266 -3.66193e-22)
(0.000677875 0.00116688 -3.75863e-22)
(0.000962862 0.000225898 1.44919e-21)
(0.00041071 0.000284482 -2.75044e-21)
(0.000519548 0.000588977 -2.12762e-21)
(3.37113e-05 0.000207144 -4.22077e-22)
(0.00016182 0.000571414 -1.59102e-21)
(0.000615132 0.0011365 9.22919e-22)
(0.000441287 0.000771633 1.49371e-21)
(0.000292912 0.000303922 -1.20575e-21)
(0.000921277 0.000175015 0)
(2.10596e-05 7.40789e-06 2.47928e-21)
(0.000836939 0.00130242 -8.16651e-22)
(0.000828647 0.00132942 1.22322e-21)
(0.000538352 0.00143298 1.1616e-21)
(0.000619471 0.000293714 -1.65547e-21)
(0.00029124 0.000689544 0)
(0.000678494 0.00126524 3.19373e-22)
(0.000877983 3.47889e-05 -1.2685e-23)
(0.000442557 0.000664629 3.33097e-23)
(0.000718761 0.000227378 1.96607e-21)
(0.000127707 0.000165466 1.06337e-21)
(0.000850731 0.000909012 0)
(0.000280644 0.000361875 1.27337e-21)
(3.53593e-05 -2.844e-06 2.50888e-21)
(0.000806724 0.000723269 2.35684e-23)
(0.000874791 -7.62102e-06 0)
(0.000421327 0.000773234 -2.87034e-21)
(0.000959517 0.000258744 1.84705e-21)
(0.00029254 0.000708009 -1.53209e-21)
(0.000659901 0.00108064 5.8013e-22)
(0.000156585 0.000706133 2.43737e-22)
(0.00055208 0.000550675 0)
(-1.23844e-05 0.00068724 -1.17823e-22)
(0.000171687 -1.14388e-06 9.54811e-22)
(0.00070973 0.00124217 -7.33033e-22)
(0.000829174 0.00121582 2.13152e-21)
(0.000629968 0.000162406 -1.91715e-21)
(0.000973658 0.000124973 -1.74551e-21)
(0.000665748 0.0011689 -2.15469e-21)
(0.000355506 0.000890554 1.83716e-21)
(3.88488e-05 -1.16637e-06 -1.42718e-21)
(0.000578378 0.00110555 0)
(0.000621706 0.0011234 -1.18773e-21)
(0.00063284 0.00113262 9.29941e-24)
(0.000608168 0.00110001 -3.53805e-21)
(0.000141844 -0.000308033 1.76999e-21)
(0.000667969 0.00122537 1.87078e-21)
(0.000421123 0.000763695 -1.08786e-21)
(0.000631626 0.000836637 4.77176e-21)
(3.38784e-05 -3.55125e-06 0)
(0.00139825 0.000142926 9.75363e-22)
(0.000677847 0.00121572 4.16035e-21)
(0.000416761 0.000295468 -5.47092e-22)
(0.000121674 -0.000427851 8.63266e-22)
(0.000981421 4.85318e-05 -2.69561e-21)
(0.000428853 0.000774015 0)
(0.00131727 0.000792342 3.69985e-22)
(0.000271179 0.00081512 0)
(0.000671225 0.00122447 -9.41601e-22)
(0.000708784 0.00125309 6.52029e-22)
(0.000691999 0.000866588 -1.36954e-21)
(0.000672167 0.00140366 -2.7097e-21)
(0.000301044 -0.000115433 3.24699e-21)
(0.000713828 0.00124413 2.28627e-21)
(0.000829485 0.000988099 -1.42557e-22)
(0.000615328 0.0010986 -1.00966e-23)
(0.000627724 0.00112168 -4.8284e-21)
(0.000425956 0.000854458 -2.20104e-24)
(0.000663768 0.00114907 7.88201e-22)
(0.000876378 3.36149e-05 0)
(0.000584899 0.000838901 -2.69845e-21)
(0.000287481 -0.000175399 1.98957e-21)
(4.05371e-05 -1.95984e-06 0)
(0.000233861 -0.00015623 1.16055e-21)
(0.0006683 0.00122517 -2.7835e-21)
(0.000715715 0.00125955 9.80783e-22)
(0.000619035 0.00104515 1.57512e-21)
(0.000588737 0.00105275 8.3163e-22)
(2.75472e-05 -4.93292e-06 4.99316e-21)
(0.000604297 0.00108355 1.52666e-21)
(0.000627053 0.00111906 -6.01749e-24)
(0.000617549 0.00110651 0)
(0.000730415 0.00129548 -8.60566e-22)
(0.000717185 0.0012918 -1.00343e-21)
(0.000119252 -5.83041e-05 -1.35112e-26)
(0.000603755 0.000529779 9.85967e-22)
(0.000722943 0.00126814 0)
(0.000739271 0.00132673 7.76954e-22)
(0.000603097 0.00102573 0)
(0.000581006 0.00107907 1.29258e-21)
(0.000684474 0.00122035 -1.36476e-21)
(0.000595142 0.00108712 0)
(0.000603352 0.00110173 6.72706e-22)
(0.000582738 0.00106451 6.67508e-22)
(0.000745545 0.0013176 -7.69175e-22)
(0.000562303 0.00107582 -1.91817e-21)
(0.000764353 0.00134633 -8.53312e-22)
(0.000583835 0.000279703 0)
(0.000806773 0.00143974 -8.03387e-22)
(0.000734088 0.00116648 -1.87565e-21)
(0.000133099 -6.66436e-05 -1.48316e-21)
(0.000643072 0.00102191 -3.33268e-23)
(0.000723093 0.00128747 1.06364e-21)
(0.000686956 0.001222 7.18804e-22)
(0.000597807 0.00108853 0)
(0.000606417 0.00110307 -6.86801e-22)
(0.000584956 0.00106596 -6.81484e-22)
(0.00043976 0.000928904 -1.083e-21)
(0.000729912 0.00130362 1.52326e-21)
(0.000289573 0.000371739 -7.0797e-22)
(0.000430053 0.000767095 2.2131e-21)
(0.000769598 0.00134535 -1.46298e-21)
(0.000483804 0.00104563 5.16884e-21)
(0.000834834 0.00147671 1.19369e-21)
(0.000679534 0.00118196 -9.80143e-22)
(0.000711694 0.00124619 -2.15945e-21)
(0.000614525 0.00107736 0)
(0.000622273 0.00109169 0)
(0.000601961 0.00105482 0)
(0.000657309 0.00132509 1.21336e-21)
(0.000620616 0.00110634 1.43446e-23)
(0.000628638 0.00112095 1.41114e-23)
(0.000607708 0.00108335 1.40926e-23)
(0.000702022 0.00126138 1.35767e-21)
(0.000745429 0.00135131 4.02257e-22)
(0.000661893 0.00117372 0)
(6.44012e-06 -5.78598e-05 0)
(0.000797308 0.0013901 -3.27534e-22)
(0.000729941 0.00128574 0)
(0.000594325 0.00107052 6.00478e-24)
(0.000602038 0.00108347 -9.98873e-22)
(0.000581859 0.00104835 -9.68522e-22)
(0.000674783 0.00122841 -9.00073e-22)
(0.000677989 0.00122804 -2.31539e-24)
(0.000826411 0.00146709 6.53423e-22)
(0.000687319 0.00105199 -1.62996e-21)
(0.000683194 0.00121869 1.77222e-23)
(0.000664102 0.00103232 2.36027e-21)
(0.000677731 0.0010545 8.15374e-22)
(0.000751291 0.00137496 9.60808e-22)
(0.000683681 0.00121958 -6.25973e-22)
(0.000582555 0.00105517 9.25077e-22)
(0.000602331 0.0010912 -1.81525e-21)
(0.000594913 0.0010775 9.41863e-22)
(0.000603941 0.00108585 -1.89261e-21)
(0.000612251 0.0011005 -6.23715e-22)
(0.000591409 0.00106322 -6.187e-22)
(0.000743417 0.00134224 -5.93375e-22)
(0.000627786 0.0011097 -7.26624e-22)
(0.000852554 0.00142843 -3.68986e-22)
(0.00035018 0.000747492 -8.73419e-22)
(0.000659078 0.00116472 6.48213e-22)
(0.00021604 -0.000118289 0)
(0.000586351 0.00106581 0)
(0.000641579 0.00115522 5.97298e-22)
(0.000584655 0.00104797 -5.03342e-24)
(0.000784722 0.00140048 1.54311e-23)
(0.00071426 0.0012589 0)
(0.000669113 0.00119663 -6.3301e-22)
(0.000883365 0.000694978 2.0094e-21)
(0.000581931 0.0010798 1.2107e-21)
(0.000916544 0.000465426 1.32268e-21)
(0.00063203 0.0011315 7.69185e-22)
(0.000728779 0.00126922 9.19312e-24)
(0.000395239 0.000642466 2.45431e-21)
(0.000736016 0.00133337 -2.61896e-22)
(0.000790951 0.00138425 -7.1378e-22)
(0.000400099 0.000748155 -3.95825e-22)
(0.000712631 0.00123409 -1.38799e-21)
(0.000363849 0.000534834 1.35856e-21)
(0.000662463 0.00117292 8.05245e-22)
(0.000732913 0.00128538 1.53628e-21)
(2.69821e-05 -6.42171e-07 0)
(0.000575012 0.00103705 1.05069e-21)
(0.000622448 0.00105246 9.78246e-22)
(0.000836764 0.000731677 -3.11497e-23)
(0.000751584 0.00142511 -1.04904e-21)
(0.000610234 0.00107848 -2.16915e-21)
(7.05494e-06 1.24035e-05 -4.27282e-21)
(0.000778911 0.00137124 6.41188e-22)
(0.00067997 0.00120182 8.70602e-22)
(0.000667197 0.00120296 1.39669e-21)
(0.000652632 0.000995069 -8.0134e-22)
(0.000674373 0.00102995 -8.07854e-22)
(0.000665974 0.00101633 -8.15883e-22)
(0.000821932 0.00145169 -4.07365e-22)
(2.23556e-05 5.30229e-05 -1.62575e-21)
(0.000619815 0.0010993 -1.1373e-21)
(0.000153861 0.000201734 3.22466e-22)
(0.000544646 0.00106281 -1.3518e-21)
(0.000357142 0.000616834 3.11796e-21)
(0.000508802 0.000156914 -4.76878e-21)
(0.000799145 0.00143661 1.01123e-21)
(0.000825671 0.00143828 0)
(0.000347774 0.000516083 -4.45858e-22)
(0.000657284 0.00116835 -1.56463e-21)
(0.000669166 0.00110682 1.98668e-21)
(0.000284063 0.000328422 6.46116e-22)
(0.000887709 0.0014014 -6.95603e-22)
(0.000618687 0.00104845 8.65196e-22)
(0.000823092 0.00147036 2.42152e-21)
(0.000377793 0.000695279 9.71001e-25)
(0.000516979 0.000817895 -1.22788e-21)
(0.000641945 0.00110146 -2.08864e-21)
(0.000720243 0.00129201 -5.15209e-24)
(0.000585765 0.00104649 0)
(0.000640317 0.00121247 -3.27566e-23)
(0.000548286 0.00105321 1.34153e-22)
(0.00056106 0.00107579 1.36677e-22)
(0.000569883 0.00109081 1.3536e-22)
(0.000711287 0.00133108 1.32495e-22)
(0.000817188 0.00127299 -5.93601e-22)
(0.000631924 0.00112906 4.9661e-24)
(0.00062457 0.00109733 0)
(0.000611439 0.00107348 -2.00409e-21)
(0.000558417 0.00105181 0)
(2.7732e-05 0.000701702 8.37015e-22)
(0.000682578 0.0012205 6.63287e-22)
(0.000587979 0.00104731 -5.81614e-22)
(0.000547411 0.000384572 -8.00768e-22)
(0.000702399 0.00128307 5.96518e-22)
(0.000630408 0.00113079 7.9486e-22)
(0.000332156 0.000483614 -1.67916e-21)
(0.000655519 0.00116904 -6.08823e-22)
(0.000684687 0.00121578 -1.54561e-21)
(0.00059371 0.00105353 3.06604e-21)
(0.000615565 0.00108993 3.08956e-21)
(0.000606786 0.00107573 1.23448e-21)
(0.000606913 0.00108092 -1.03393e-21)
(0.000620328 0.00110463 0)
(0.000708405 0.00128252 -1.84698e-21)
(0.000782738 0.00139105 9.37618e-22)
(0.000652604 0.00106905 -6.45981e-22)
(0.000758192 0.0013526 7.51149e-24)
(0.000555706 0.00106302 2.23847e-21)
(0.000685891 0.00120037 9.12172e-22)
(0.000596028 0.00108759 0)
(0.000616809 0.00112548 0)
(0.000608855 0.0011107 0)
(0.000494799 0.000862161 -1.04587e-21)
(0.000446798 0.000786809 -2.49408e-21)
(0.000792522 0.00126121 -4.2434e-22)
(0.000753938 0.00133094 4.99869e-22)
(0.000684154 0.00122053 6.97194e-22)
(0.000633802 0.000814583 -4.3845e-21)
(0.000580494 0.0010642 5.12035e-24)
(0.000601362 0.00110132 5.16988e-24)
(0.000593035 0.00108676 0)
(0.000790676 0.00143465 5.36593e-22)
(0.000681163 0.00117723 3.59027e-22)
(0.000604447 0.00107889 -1.00447e-21)
(0.000794724 0.00142454 -1.66426e-21)
(0.000633654 0.0014436 8.98045e-22)
(0.000786137 0.00140957 0)
(0.000621641 0.000986227 0)
(0.00063122 0.00113371 0)
(0.000473206 0.000785794 8.78857e-22)
(6.76773e-06 -1.69228e-05 -1.03518e-21)
(0.000606159 0.00108887 -5.65731e-22)
(0.000614545 0.00110357 0)
(0.000593529 0.00106616 0)
(0.000514311 0.000845586 0)
(0.000531197 0.000813503 -1.04752e-21)
(0.000659185 0.00116265 7.76876e-22)
(0.000568949 0.001043 -1.27392e-21)
(0.000441392 0.000320397 1.32501e-21)
(0.000767132 0.00134637 1.35969e-21)
(0.000590171 0.00105736 -1.48648e-21)
(0.000641393 0.00112891 0)
(0.000583143 0.00105814 -6.28509e-22)
(8.06405e-06 -3.06754e-05 -8.40862e-22)
(0.000819704 0.00146985 0)
(0.00063215 0.00113264 -1.4207e-21)
(0.000723761 0.00127986 3.38853e-21)
(0.000670615 0.00117745 -6.27198e-22)
(0.000652609 0.00116249 -8.209e-22)
(0.000336638 0.000692385 1.14949e-21)
(0.000382281 0.00053403 -1.83836e-21)
(0.000647285 0.00085019 -2.52135e-21)
(0.000802295 0.000295521 0)
(0.00077185 0.0011984 0)
(0.000660512 0.00116749 -7.85809e-22)
(0.000739212 0.00130304 -1.37876e-21)
(0.000570397 0.000584408 4.51045e-21)
(0.000776362 -1.58816e-05 1.73378e-24)
(0.000682829 0.00121709 5.37946e-22)
(7.27957e-05 0.000697965 1.14338e-21)
(1.8736e-05 -6.92501e-06 -5.10687e-21)
(0.000807959 -3.85687e-05 -1.13779e-21)
(0.000614885 0.0010711 5.59067e-22)
(0.000594067 0.0010347 5.54656e-22)
(0.000606667 0.00105679 5.64687e-22)
(0.000479268 0.00122517 0)
(0.000428581 0.000275785 4.07269e-22)
(0.000584433 0.000245791 -1.35156e-21)
(0.000867988 0.00132861 -3.28101e-22)
(0.000279552 0.00056116 2.96632e-21)
(2.1234e-05 -2.78771e-06 1.94317e-21)
(0.000587776 0.00104745 -6.33079e-22)
(0.000575459 0.00104354 7.38563e-22)
(0.000912458 0.000179898 0)
(0.000592155 0.00106647 -8.81661e-22)
(0.000641403 0.00114993 -4.47911e-22)
(0.000671129 0.00157677 6.99258e-22)
(0.000265878 0.000309019 5.91569e-22)
(0.000725428 0.00127228 0)
(2.98453e-05 -2.60162e-06 3.55125e-26)
(0.000730365 0.0013098 4.01067e-22)
(0.000681151 0.00140907 -6.02153e-22)
(0.000625686 0.00109425 6.52907e-24)
(0.000562175 0.000906955 1.27115e-22)
(0.000665354 0.00119244 -8.89097e-22)
(0.000935518 0.000171897 0)
(0.000586593 0.00104889 -2.22754e-23)
(0.00075471 0.00134398 4.60379e-22)
(0.000655687 0.00115959 1.48036e-21)
(0.000586701 0.00106243 6.76934e-24)
(0.000607248 0.00109971 6.79874e-24)
(0.000599071 0.00108506 6.44191e-22)
(0.000605558 0.00117059 -1.09202e-21)
(0.000758295 0.00132623 1.0552e-21)
(0.000828714 0.00146498 -2.38199e-21)
(0.000747067 0.00132339 -5.8235e-22)
(0.000681836 0.00121788 -1.07476e-21)
(0.000737538 0.000699958 4.50613e-22)
(0.000814616 0.00146606 4.50938e-22)
(0.000663258 0.000853616 -1.31481e-21)
(0.000602026 0.00106519 1.12943e-21)
(0.000704968 0.00127319 2.73188e-23)
(0.000801916 0.00143385 -2.06838e-21)
(0.000657014 0.00137071 -8.19494e-22)
(0.000682275 0.00121915 6.27843e-22)
(0.000273115 0.000394401 -1.73527e-21)
(0.000460387 0.000571388 2.16067e-21)
(0.000623936 0.00108542 -6.28984e-22)
(0.000591868 0.00106289 0)
(0.000612804 0.00110012 0)
(0.000604449 0.00108551 0)
(0.00073015 0.00133752 0)
(0.000651817 0.00113502 0)
(0.00060947 0.00107589 1.30243e-21)
(0.000631033 0.00111389 1.31293e-21)
(0.000622413 0.00109889 1.32604e-21)
(0.000630686 0.00113074 5.94485e-22)
(0.000536703 0.000347172 3.24192e-21)
(0.000715875 0.00124736 -2.54134e-23)
(0.000811757 0.00144853 0)
(2.56723e-05 -3.04962e-06 -1.89994e-21)
(0.000652856 0.00117081 5.6473e-22)
(0.000222399 0.000500207 3.00825e-21)
(0.000681848 0.00121832 -1.17049e-21)
(0.000784902 0.00143103 1.02967e-21)
(0.000579946 0.00100452 -1.12353e-21)
(0.000971439 0.00011007 1.5075e-21)
(0.00070542 0.00128533 1.69306e-21)
(0.000681729 0.00124942 0)
(0.000720274 0.00127733 -3.65395e-21)
(0.00071659 0.00126578 5.53919e-22)
(0.000632493 0.00112973 5.40682e-22)
(0.000630486 0.00112297 -6.41146e-22)
(0.000583539 0.00104619 0)
(0.000657282 0.00116706 -1.89888e-21)
(0.000654889 0.00117029 -5.54893e-22)
(3.88706e-05 -6.90815e-07 0)
(0.000597183 0.00103811 -1.50908e-21)
(0.00071525 0.00128445 5.19957e-22)
(3.7795e-05 3.97898e-05 2.30732e-21)
(0.000582837 0.0010424 0)
(0.000644742 0.00113301 4.48251e-22)
(0.000793651 0.00143372 -5.43972e-22)
(0.000779309 0.000723476 -3.77387e-22)
(0.000669792 0.00118042 -8.69739e-22)
(0.000782805 0.00134576 -7.32495e-22)
(0.00079249 0.00137702 -5.70332e-22)
(0.000701299 0.00128131 0)
(0.000726734 0.00128682 -1.91388e-23)
(0.000529839 0.000815412 -1.23966e-21)
(0.00115695 7.47299e-05 -1.94732e-21)
(2.90286e-05 3.69511e-05 2.17209e-21)
(0.000585298 0.001046 9.8859e-24)
(0.000897809 0.00108317 6.85198e-21)
(0.000793935 0.00142694 5.42167e-22)
(0.00073571 0.00129755 -4.57228e-22)
(3.97736e-05 -1.78679e-07 3.24378e-21)
(0.000612742 0.00138692 0)
(0.000771868 0.000516678 3.26956e-21)
(0.000786032 0.00142659 0)
(0.000493712 0.00122923 2.57708e-22)
(0.000589596 0.00103485 9.86194e-22)
(0.000797348 2.16566e-05 -1.07719e-21)
(0.000694785 0.000956554 -4.26712e-22)
(0.000602284 0.00106121 1.1033e-21)
(0.000837533 0.000657654 -7.51778e-22)
(0.000626075 0.000860304 -1.27792e-21)
(0.000807983 0.00142597 4.58363e-22)
(0.000861803 0.00152722 0)
(0.000580334 0.00102304 1.0623e-21)
(0.000743979 0.00128393 -7.78268e-24)
(0.000548658 0.00129115 -2.36067e-21)
(0.000504875 0.000866624 -9.0956e-22)
(0.000126725 0.000135914 -1.97697e-21)
(0.000693894 0.00115348 7.4429e-22)
(0.000984197 0.000275526 4.65101e-22)
(0.000590896 0.000746653 8.61323e-22)
(0.000707892 0.000702327 -1.5617e-21)
(0.000715416 0.00141434 7.44879e-22)
(0.000439726 0.000282972 -1.87241e-25)
(0.000803825 0.00142369 -1.00631e-21)
(0.000594891 0.000812196 1.31996e-21)
(0.000738489 0.0012647 8.46938e-22)
(0.00042869 0.000760869 -1.05333e-21)
(4.14339e-05 -4.81907e-07 1.1753e-21)
(0.000301103 0.000348638 1.46398e-21)
(0.000542642 0.00104769 0)
(0.000340929 -0.000162277 -2.88416e-21)
(0.000763572 0.000797048 -3.12949e-21)
(0.000323323 0.000556884 0)
(0.000703067 -7.78433e-06 1.86665e-24)
(0.000272687 -0.000128346 -4.74955e-21)
(2.89669e-05 4.24984e-05 -2.07668e-21)
(0.00083865 0.000240773 -1.67033e-21)
(0.000406129 0.000497326 1.07138e-21)
(0.000804204 -3.9752e-06 -2.09508e-21)
(0.000957741 0.00080221 1.42429e-21)
(0.000281504 0.000855573 8.72337e-22)
(0.000448815 0.000186108 -2.87938e-22)
(0.000158699 0.000424678 0)
(0.000676675 0.00067913 -2.322e-24)
(0.000576334 0.000863834 2.35467e-23)
(0.000481332 0.000193345 9.51151e-22)
(0.000602574 0.00100368 -2.37619e-22)
(0.000393231 0.000496366 -1.06329e-21)
(0.000122301 0.000147072 1.5977e-21)
(0.000607039 0.00127605 -1.46117e-21)
(0.000398985 0.00024567 0)
(0.000631902 0.00053683 0)
(2.34689e-05 0.000665531 3.73967e-22)
(0.000498692 0.000860309 -1.52331e-21)
(0.000365871 0.000491593 -9.05501e-22)
(0.000958251 0.000312898 1.83753e-21)
(0.00104415 0.00129985 6.01829e-22)
(0.000705898 0.00132235 -7.51984e-22)
(0.000325773 0.000230322 -1.57294e-21)
(0.000546713 0.00079671 0)
(0.000726358 -4.51962e-05 3.72118e-21)
(0.000729526 0.00125879 -1.60154e-21)
(0.000755278 0.00131853 6.20378e-23)
(0.000381353 0.000303457 0)
(0.000393668 0.000522074 1.0149e-21)
(0.00065459 0.000304827 -5.54902e-26)
(0.000693288 0.00141855 2.01548e-21)
(0.000969113 0.000131172 1.79285e-21)
(0.000729368 0.00126062 0)
(0.000799813 0.00137579 2.2038e-23)
(0.000728414 0.00125277 -4.14058e-24)
(0.000632442 0.00108813 2.27254e-23)
(0.000655104 0.00112705 -5.0844e-23)
(0.000646084 0.00111143 2.31401e-23)
(0.000593014 0.00105462 -4.324e-22)
(0.000614005 0.00109147 -4.35772e-22)
(0.000605647 0.00107702 -8.06208e-24)
(0.000371187 0.000775886 7.91563e-22)
(0.000711123 0.00129827 1.94474e-21)
(0.000495371 0.000987031 -1.314e-23)
(0.000359887 0.000663083 1.53806e-21)
(0.00034791 0.000538012 4.70924e-22)
(0.000473556 0.000899571 0)
(0.000461133 0.000344181 1.42416e-21)
(0.000758806 0.00132275 -1.32665e-21)
(0.000390268 -5.4555e-05 1.67306e-25)
(0.000498892 0.000135076 0)
(0.000976237 5.96369e-05 2.23024e-21)
(0.000745126 0.00127866 0)
(0.000554007 0.00107437 -2.18655e-21)
(0.000912943 0.000182112 0)
(0.000644108 0.00128045 -9.21536e-22)
(0.000756335 1.76738e-05 -1.03204e-21)
(0.00105342 0.00068853 1.89363e-21)
(0.000531142 0.000132728 6.35148e-24)
(1.59612e-05 7.01322e-06 -1.99444e-21)
(0.000759119 0.000427733 1.79073e-21)
(0.000411077 0.000233555 0)
(0.000178503 -2.39008e-05 -2.62645e-21)
(0.000526744 0.00085097 2.71885e-22)
(0.000243304 0.000753332 0)
(4.16281e-05 8.78605e-07 -1.13648e-21)
(0.00045904 0.000639597 7.97132e-23)
(0.000962124 0.000540035 1.09865e-21)
(0.000719026 0.000215116 2.07876e-21)
(0.000502538 0.000626321 3.0429e-21)
(0.000846921 0.00155002 1.02466e-21)
(2.33082e-05 -6.26999e-06 2.09583e-21)
(0.000687828 0.00121035 9.47068e-22)
(0.000484603 0.000818453 0)
(4.50511e-05 0.000277161 -9.27148e-22)
(0.000625541 0.00111814 -9.27913e-22)
(0.000657253 0.00135546 -5.98682e-23)
(0.000630437 0.0013146 1.49063e-23)
(0.000731368 0.00148238 -5.89913e-23)
(0.000583783 0.00122366 -4.10865e-23)
(0.000779633 0.000922596 -5.17245e-21)
(0.000828914 0.00165675 0)
(0.00124879 0.000763184 5.88332e-22)
(0.000935178 0.000571107 9.70468e-22)
(0.00056866 0.000992951 0)
(4.05413e-05 1.97414e-06 -3.39627e-21)
(0.00064743 0.00126874 0)
(0.000501274 0.000670106 5.59002e-22)
(0.000925066 0.000519652 5.1968e-22)
(0.000650966 0.00115614 4.81088e-24)
(0.000764568 0.00133422 -2.92067e-21)
(0.000472195 0.000314876 0)
(0.000880438 0.00154274 -1.68864e-21)
(4.03768e-05 4.08958e-05 0)
(3.26054e-05 4.31499e-06 1.45631e-21)
(0.000587441 0.00104508 0)
(0.000762914 0.00125439 -9.77636e-22)
(0.00108695 0.00086255 -1.15463e-21)
(0.00113849 0.000910563 1.02819e-21)
(0.00073924 0.00128713 -2.22671e-21)
(0.000484458 0.00104276 -4.42092e-23)
(0.000619882 0.00128705 -4.63042e-23)
(0.000528327 0.0011315 5.94447e-23)
(0.00055215 0.00116634 -4.55322e-23)
(0.000715354 0.0014613 -5.67685e-23)
(0.00103538 0.00095588 2.23612e-21)
(0.000750242 0.00127356 0)
(0.000196385 0.000493542 0)
(0.000258546 0.00118417 1.30418e-21)
(0.00025995 0.000532696 -3.35166e-21)
(4.17637e-05 -7.11553e-05 0)
(0.00034559 0.000514115 0)
(0.000780274 0.00133722 -8.38944e-22)
(0.000825456 0.00145085 3.71446e-22)
(0.000799904 0.00139545 -1.14919e-21)
(0.000643227 0.00113042 -6.90357e-22)
(0.000409888 0.000895267 -5.99087e-24)
(0.00072405 0.00125537 7.84289e-24)
(0.000621163 0.000225313 -3.56241e-21)
(0.000863908 2.06199e-05 0)
(0.000756739 4.13998e-05 2.99179e-21)
(0.000117778 0.00033647 -9.63172e-22)
(0.000740476 0.00128019 3.53404e-22)
(0.000720136 6.9959e-05 0)
(0.000190285 1.33148e-05 1.206e-21)
(0.000299572 0.000452707 -1.71006e-24)
(0.000728257 0.00125545 -3.80765e-22)
(0.000854419 -2.091e-05 0)
(0.000437046 0.000404637 -3.11507e-21)
(0.000648686 0.00134984 0)
(0.000578085 0.00122465 0)
(0.000509111 0.0010974 0)
(0.000487996 0.00105809 0)
(0.000500242 0.00108148 0)
(0.000739673 0.000331968 7.09501e-22)
(8.72571e-05 0.000213109 -2.2335e-21)
(0.000299446 0.000267777 2.56936e-21)
(0.000756043 0.00154562 -5.4251e-23)
(0.000585798 0.00123967 -9.59158e-23)
(0.000599134 0.00126491 -9.75127e-23)
(0.000608565 0.00128153 -9.5995e-23)
(0.000682287 0.00141603 -9.60613e-23)
(0.000776251 0.00131877 3.03086e-21)
(0.000769471 0.00133853 0)
(0.000798267 0.000764218 1.66018e-21)
(0.000625847 0.00112686 9.86295e-22)
(0.000348599 0.000452532 1.59191e-21)
(0.000900031 0.000282652 1.20357e-21)
(0.000612267 0.00114599 1.00352e-21)
(0.000442929 0.000499779 -6.27356e-22)
(0.000360791 0.000592647 1.15873e-21)
(0.000724794 0.00126114 0)
(0.000993914 0.000837265 -1.92697e-21)
(0.000477575 0.000925838 -6.2441e-22)
(0.000430416 0.000821556 4.70651e-22)
(9.25182e-05 0.000535886 -9.11083e-22)
(0.00073179 0.00126818 7.02521e-22)
(0.000746873 0.000423516 -1.90021e-21)
(3.90562e-05 -9.18244e-08 1.3865e-21)
(0.00108729 2.43907e-05 0)
(0.000244105 0.000550116 2.22633e-24)
(0.00033229 0.000472495 9.57096e-22)
(0.000762395 0.000749905 -2.70364e-22)
(0.00160964 0.000427502 6.75998e-22)
(0.000141326 0.000743711 7.83374e-22)
(0.000470798 -6.64532e-05 0)
(0.000721692 0.000263455 0)
(7.05497e-05 -0.000110447 -3.89515e-22)
(0.00100105 0.000167727 2.00717e-21)
(3.8765e-05 3.89319e-06 7.43029e-26)
(0.000484686 0.000371546 -3.0093e-25)
(0.00086874 0.00152002 -6.62591e-22)
(0.000614585 0.00108496 3.21433e-21)
(0.000691183 0.00123363 0)
(0.000356611 0.000592985 0)
(0.000486006 0.000763866 -2.26938e-21)
(0.000549579 -0.000185871 2.34066e-21)
(0.000664889 0.00117694 -7.45913e-22)
(0.000732216 0.000721826 -5.29522e-22)
(0.000366572 0.000597947 1.12907e-21)
(0.00118391 5.94139e-05 -3.40164e-21)
(0.00078771 0.000786033 -1.94958e-24)
(3.8099e-05 -3.72501e-06 -1.38145e-21)
(0.000366343 0.0006545 2.39079e-21)
(0.000620115 0.00110184 2.24451e-21)
(0.000908822 0.00019051 8.48631e-22)
(0.00088361 0.000292582 -1.10796e-21)
(0.000559943 0.00025854 2.90137e-21)
(0.000812801 0.00136694 3.16416e-22)
(0.000377844 0.000633691 0)
(0.000838571 0.000696628 -8.75903e-22)
(0.000723089 0.00129097 -3.19155e-21)
(0.000586014 0.0010333 -1.36102e-23)
(2.6148e-06 1.7275e-05 -1.47041e-21)
(0.000168562 0.000236587 -1.22988e-21)
(0.000515085 0.000709078 -6.18144e-21)
(1.05707e-05 7.92912e-06 0)
(0.000683593 0.00121757 4.95727e-22)
(0.000363811 0.000466762 1.73759e-21)
(0.000664002 0.00115896 2.22833e-21)
(0.000625175 0.00113406 -8.59559e-22)
(0.000988177 0.000764202 -4.68423e-21)
(0.000213268 -2.48722e-05 1.51669e-25)
(0.000938313 0.000847778 7.59163e-24)
(0.000551766 0.000460413 -2.19122e-22)
(0.000732239 0.00129973 1.53847e-22)
(0.000818032 0.00144384 1.84707e-23)
(-9.53148e-05 0.00111183 -1.26178e-21)
(0.000878862 0.001564 -9.5037e-22)
(0.000682352 0.00115794 -1.04745e-21)
(0.000517688 0.000897811 2.34466e-21)
(0.000719646 0.00126054 -3.60732e-22)
(0.000403363 0.000680968 0)
(0.000377476 0.000278108 -1.26675e-21)
(0.00150439 0.00121293 -8.17421e-22)
(0.000338313 0.000550172 0)
(0.000950187 0.000293166 0)
(0.000816275 0.000507436 4.34528e-21)
(1.40217e-05 -2.58236e-05 4.19029e-21)
(0.000724125 0.00125203 0)
(0.000695274 0.00058708 4.43255e-22)
(0.000660454 0.00110457 8.14812e-22)
(0.000671473 0.00111821 4.08645e-22)
(0.000646797 0.00108161 0)
(0.000798926 0.00146772 -7.22786e-23)
(0.00049745 0.000102084 -1.35153e-21)
(0.000151728 1.34111e-05 2.89559e-22)
(0.000715079 0.000578503 -1.73254e-21)
(1.62562e-05 -3.35791e-06 -4.21856e-21)
(0.000622273 0.00108449 -1.23009e-21)
(0.000552089 0.0010542 2.1743e-23)
(0.000687967 0.00128946 -6.58078e-23)
(0.000606316 0.00114933 3.26257e-23)
(0.000619993 0.00117322 -6.6286e-23)
(0.00089593 0.00147811 3.75431e-21)
(0.00122587 0.00133571 7.46349e-24)
(0.000715056 0.000665461 -1.30801e-24)
(0.000324486 0.000632166 -5.89555e-21)
(0.00052926 0.000408919 -6.2911e-25)
(0.000148555 0.000138433 4.15697e-21)
(0.000499414 0.000538057 -8.04287e-21)
(0.000116193 0.00052939 5.78732e-22)
(8.48104e-05 0.000195693 3.42852e-21)
(0.000405873 0.000806201 -1.90097e-24)
(0.000272455 3.12699e-05 -9.16017e-22)
(0.000617427 0.000264198 5.37629e-21)
(0.000504272 5.54082e-05 -4.45239e-25)
(0.00046775 0.00101654 7.16172e-22)
(6.80318e-05 0.000382817 -2.12536e-21)
(0.000588839 4.1969e-05 -6.20594e-24)
(0.00121966 0.000224266 -1.40984e-21)
(4.21248e-05 -1.702e-06 -7.96452e-22)
(0.000889499 0.000210798 2.65758e-21)
(0.000736349 0.00102946 -1.23253e-21)
(0.000878046 0.00151873 4.8233e-22)
(0.000238472 0.000616783 -7.52793e-22)
(0.000595234 0.000435324 4.78069e-22)
(0.000640826 0.00124149 1.1615e-21)
(0.000625653 0.00113457 1.69422e-21)
(0.000722089 -0.000362921 0)
(0.000425001 0.00131739 -5.87175e-22)
(0.00105698 0.000907092 0)
(-0.000147281 0.00108415 1.07572e-21)
(0.000896073 0.000535679 9.43238e-22)
(0.000355336 0.000740739 0)
(0.00072337 0.00124344 0)
(0.000341823 0.00061081 0)
(0.000598282 0.00109432 4.42929e-21)
(0.000209597 0.000727756 -1.40374e-21)
(3.57729e-05 -3.75812e-06 -2.27596e-21)
(2.19693e-05 -9.7656e-06 2.00323e-21)
(0.00051221 0.000878625 2.72536e-21)