/*--------------------------------*- C++ -*----------------------------------*\
  =========                 |
  \\      /  F ield         | OpenFOAM: The Open Source CFD Toolbox
   \\    /   O peration     | Website:  https://openfoam.org
    \\  /    A nd           | Version:  8
     \\/     M anipulation  |
\*---------------------------------------------------------------------------*/
FoamFile
{
    version     2.0;
    format      ascii;
    class       volVectorField;
    location    "8";
    object      U;
}
// * * * * * * * * * * * * * * * * * * * * * * * * * * * * * * * * * * * * * //

dimensions      [0 1 -1 0 0 0 0];

internalField   nonuniform List<vector> 
4280
(
(3.20137e-05 1.51068e-05 -6.73623e-23)
(0.000652072 0.00111653 2.15715e-22)
(1.78958e-05 3.08971e-05 -9.73881e-22)
(0.000308996 0.000401772 -6.67101e-22)
(0.000532745 0.000940204 3.4518e-22)
(0.000557373 0.000998297 0)
(0.00054206 0.000916725 0)
(0.000611594 0.00105647 1.86036e-22)
(0.000301935 0.000530396 -4.15234e-22)
(0.000575553 0.00108541 1.17073e-22)
(3.88783e-05 -7.09401e-08 4.32548e-24)
(0.000680624 0.00126334 -2.98361e-22)
(3.58555e-05 8.21933e-05 -9.98814e-22)
(0.000588009 0.000458753 -1.27335e-21)
(0.000320091 0.000573988 -3.45364e-22)
(0.000620812 0.0010689 -1.79863e-22)
(0.000457062 0.000832868 4.19308e-22)
(0.000331645 0.00105218 -5.97519e-22)
(0.000191197 0.000764285 1.55949e-22)
(0.00061265 0.00105961 0)
(3.44337e-05 -2.63936e-06 -3.34207e-25)
(0.000697986 0.00126586 0)
(3.92981e-05 -6.75152e-05 5.51644e-22)
(0.000701859 0.00122655 0)
(0.000583173 0.00103092 -5.27312e-22)
(0.000501864 0.000864964 -7.85435e-23)
(0.000703657 0.00126282 0)
(0.000574854 0.000995143 -3.25861e-22)
(0.000608811 0.00106163 -2.41709e-22)
(0.000473807 0.000975317 2.83506e-22)
(0.000541483 0.000943066 -7.16094e-22)
(0.000491976 0.00113085 0)
(0.000509577 0.000905412 -4.34937e-22)
(0.000485833 0.000878472 -8.40077e-22)
(3.5807e-05 0.000322513 7.92613e-22)
(0.000566398 0.00100357 5.55235e-22)
(0.000716283 0.00122764 -1.23188e-23)
(0.000453987 0.000841748 6.15534e-22)
(0.00070707 0.00131394 -1.26045e-22)
(0.000568971 0.000988278 5.33268e-24)
(0.000680039 0.000595388 2.29452e-22)
(0.000615698 0.00131882 -4.24234e-22)
(0.000582521 0.00080243 0)
(0.000558269 0.000897383 0)
(0.000534862 0.000975628 -1.62167e-22)
(0.000497073 0.000904308 0)
(0.000934327 0.00118154 -1.71707e-22)
(0.00061366 0.00108017 -1.89624e-22)
(0.000542943 0.000942487 8.98702e-24)
(0.000882629 0.00148728 3.34284e-22)
(0.000344561 0.000623319 0)
(0.00061992 0.00106533 0)
(0.000550822 0.000963133 -2.36083e-22)
(9.345e-05 0.000695994 -7.45088e-22)
(0.000149002 0.000633717 -3.18606e-22)
(0.000619617 0.00106867 1.70725e-22)
(9.13859e-05 -0.000393156 -2.43858e-22)
(0.000680912 0.00120458 -3.68123e-22)
(0.000514921 0.000890762 -5.71588e-24)
(0.000613527 0.00108043 1.87492e-22)
(0.000565492 0.000981713 4.82542e-24)
(0.000604943 0.00105868 2.85871e-22)
(0.000686467 0.0012391 8.29307e-22)
(0.000562535 0.00100178 -8.22005e-22)
(0.000567829 0.000981235 6.93257e-22)
(0.000718553 0.00126471 0)
(0.00081531 0.000818159 0)
(0.000167667 0.000610073 -4.51035e-22)
(0.00056418 0.000992609 -1.67772e-22)
(0.000613225 0.00107232 -1.73411e-22)
(0.000514737 0.000892406 -1.06577e-22)
(0.000625736 0.00109383 -2.46233e-22)
(0.000712757 0.00122847 -2.14729e-22)
(0.000677958 0.00118789 4.13935e-22)
(0.000832813 0.000438265 -8.79779e-26)
(0.000198837 0.000739146 -8.31288e-22)
(0.000346094 0.000606234 0)
(0.00052005 0.000928938 0)
(0.000613886 0.00106155 5.6189e-24)
(0.000215625 0.000843042 -2.20884e-22)
(0.000574744 0.00109141 4.84621e-23)
(0.000711362 0.00126391 5.45389e-23)
(0.000363366 3.68567e-05 -1.66777e-21)
(0.000542801 0.000943658 -4.86743e-24)
(0.000545819 0.000946511 7.18211e-22)
(0.00090179 0.00085484 -8.4206e-22)
(0.000689706 0.00127809 1.26106e-22)
(0.000500268 0.000873637 1.00372e-22)
(0.000221122 0.000887016 -4.20565e-22)
(0.000355043 0.00100299 0)
(0.000720725 0.00126684 2.39606e-22)
(0.000317979 0.0010056 1.45057e-21)
(0.000471058 0.000912318 1.68407e-23)
(0.000500042 0.000878681 -1.57119e-22)
(0.000513398 0.000903488 0)
(0.000523381 0.000885117 3.08254e-22)
(0.000757114 0.00137863 0)
(0.000566387 0.000989565 -1.84112e-22)
(0.000667208 0.00112586 4.39515e-24)
(0.000511576 0.000885782 -7.18777e-22)
(0.000564538 0.000977997 -4.37432e-22)
(0.000660486 0.00131096 6.97794e-24)
(0.000706445 0.00123743 0)
(0.000519348 0.000903382 -2.94203e-22)
(0.000613437 0.00107681 1.69487e-22)
(0.000559673 0.000973035 -4.54702e-24)
(0.000530008 0.000902785 -4.42191e-22)
(0.000627018 0.00113948 -7.69376e-22)
(0.000332685 0.000595744 0)
(0.000384635 0.000701135 0)
(0.000289468 0.00074689 5.09105e-22)
(0.000520656 0.000891003 4.99969e-22)
(0.000543516 0.000940452 -7.23633e-22)
(0.000497193 0.000808455 -5.12709e-22)
(4.29842e-05 -2.43309e-06 -4.36779e-24)
(0.000518661 0.000896395 0)
(8.18565e-05 -0.000203811 -1.05736e-21)
(0.000523106 0.000932446 0)
(0.000549847 0.000725628 5.95718e-22)
(0.000561931 0.000431327 0)
(0.000423863 0.000918472 -2.84464e-22)
(0.000503397 0.000892477 1.27913e-22)
(0.000697781 0.00122556 2.88313e-22)
(0.000523018 0.00089652 2.58168e-22)
(0.000512956 0.000925295 0)
(0.00047416 0.00100307 4.1232e-22)
(0.000399996 0.000701179 0)
(0.000505502 0.0009293 -1.97354e-22)
(2.34739e-05 0.000233648 1.37781e-22)
(0.000779995 0.00141836 -3.40297e-23)
(0.000260005 0.0004617 -3.51852e-22)
(0.000657399 0.00115332 2.11834e-22)
(0.00058905 0.00106393 1.17885e-22)
(0.000610306 0.00103675 -2.85221e-22)
(0.000513488 0.000922462 1.04299e-21)
(0.000205417 0.00120571 0)
(0.000708622 0.00122703 0)
(0.000818702 0.00135719 -1.00886e-25)
(0.000259359 0.000455795 -1.90822e-22)
(0.000723679 0.00126582 -5.01583e-24)
(0.000525588 0.000907395 -7.13807e-24)
(0.000493805 0.000880205 0)
(0.000249338 0.000458405 1.50315e-22)
(0.000550662 0.000970034 0)
(0.000537815 0.000931299 -3.90704e-22)
(0.000622147 0.00106183 1.22727e-21)
(0.000500414 0.000143736 4.92435e-22)
(0.000635471 0.00115929 3.51496e-24)
(0.000427111 0.000614246 0)
(0.000532387 0.000919833 0)
(0.000336323 0.000882231 0)
(0.00158036 0.000123746 0)
(0.000587579 0.00103222 -2.89902e-22)
(0.000502862 0.000584752 0)
(0.000365845 0.00119998 -9.28835e-24)
(0.000722308 0.00126642 -8.79511e-24)
(0.00065809 0.000799019 0)
(0.000551636 0.000935867 2.83283e-22)
(0.000517919 0.000877275 4.12244e-22)
(0.000251995 0.000444131 0)
(0.00060684 0.00101574 0)
(0.000607237 0.00128108 8.0219e-22)
(0.000501472 0.000113136 7.51001e-22)
(0.000422748 0.00105789 -9.33838e-22)
(0.000578566 0.00133705 0)
(0.000700821 0.000943768 1.48462e-23)
(0.000725734 0.00126698 1.55852e-22)
(0.000588449 0.00099464 7.34866e-24)
(0.00061829 0.00106213 2.01633e-22)
(0.000722681 0.00125288 3.00659e-23)
(0.000533909 0.000900143 0)
(0.000585146 0.00105258 9.63516e-23)
(0.000541315 0.000935321 4.62202e-24)
(0.000369862 0.00161641 -3.35832e-23)
(0.000996823 0.000417401 -7.9896e-22)
(0.000568417 0.00109464 5.58548e-24)
(0.00091415 0.000398235 0)
(0.000204518 0.000549325 7.05841e-22)
(0.000584173 0.00104803 -6.67846e-23)
(0.000625872 0.00107333 -2.18044e-22)
(0.00060306 0.000696468 -6.09369e-22)
(0.00079345 0.000742464 3.25995e-22)
(0.000157825 0.000740219 -6.22629e-22)
(0.000774366 0.00144664 -4.05133e-22)
(0.00100324 0.00148818 3.60998e-22)
(0.000534356 0.000941628 0)
(0.000503769 0.000913931 9.5875e-24)
(0.000818569 7.55257e-05 -8.53574e-23)
(0.000679111 0.0012209 2.68253e-22)
(0.000506844 0.000928595 -2.97962e-23)
(0.000211971 0.000621286 1.02231e-22)
(0.000470802 0.00100911 0)
(0.000541345 0.000932396 -9.08908e-24)
(0.000430615 0.000675278 -2.42392e-23)
(0.000579515 0.00104929 -4.81181e-23)
(0.000573834 0.00110407 -6.82573e-22)
(0.000586985 0.00101564 0)
(0.000654683 0.00111687 -4.03433e-22)
(0.000717604 0.00122667 0)
(0.000781149 0.00143176 -4.90857e-22)
(0.00048745 0.000711456 -4.56749e-24)
(0.000940056 0.000890622 -5.99875e-22)
(0.000497635 0.000881821 0)
(0.000643887 0.00115876 0)
(0.000661101 0.00114646 -5.48563e-22)
(0.000693809 0.00125759 -1.87238e-22)
(0.000523646 0.00090739 8.12551e-22)
(0.000707049 0.00125752 -2.23329e-22)
(0.000526859 0.000923865 -3.54358e-22)
(0.000688433 0.00119331 3.22619e-22)
(0.000710286 0.00122641 -6.91147e-22)
(0.000276051 0.000613453 -5.99514e-23)
(0.000322858 0.000571511 4.75788e-22)
(0.000429322 0.000565943 1.19528e-21)
(0.000609065 0.00104993 0)
(0.000593874 0.00111477 4.93551e-22)
(0.000974463 0.000177684 -6.61563e-22)
(0.000661937 0.00110844 -1.27877e-22)
(0.00070957 0.00126893 1.81158e-22)
(0.000310739 0.000780268 5.32343e-22)
(0.000524132 0.000889339 4.72095e-23)
(3.09272e-05 -1.33869e-05 -2.54902e-24)
(0.000517121 0.00088863 1.03342e-21)
(0.000851824 0.000857017 2.76394e-22)
(0.000252183 0.000639082 -4.76032e-22)
(0.000562316 0.000738388 0)
(0.00103247 0.000411538 5.98169e-22)
(0.000317319 0.000556845 -3.15055e-22)
(0.000578591 0.00101834 0)
(0.000535277 0.00104394 -5.36699e-22)
(0.000955797 7.51823e-05 2.88536e-22)
(0.00054282 0.000937961 -2.10622e-22)
(0.000890055 4.34295e-05 -1.53453e-22)
(0.000436103 0.000813062 -4.23605e-22)
(0.000534412 0.000918789 -7.50692e-22)
(0.000505722 0.000219222 -5.37228e-22)
(0.000497256 0.000908893 -5.21179e-22)
(0.000656527 0.00112512 -2.90308e-22)
(0.000364623 0.000866894 -8.10063e-22)
(0.000705603 0.00121526 -9.22644e-23)
(0.00061023 0.0010639 -1.45837e-22)
(0.000538641 0.000936291 4.00074e-22)
(0.000725021 0.00126803 -1.22653e-22)
(0.000468021 0.0010458 -8.39841e-22)
(0.000718833 0.0012065 -1.62952e-22)
(0.00058357 0.00114578 0)
(0.000409328 0.000709696 1.53766e-23)
(0.000808237 0.00140699 1.53873e-23)
(0.000588376 0.00103221 1.59644e-22)
(0.000507083 0.000899276 1.27301e-22)
(0.000401172 0.00121557 5.18407e-22)
(0.000505717 0.000874391 0)
(0.000540349 0.000967243 5.00035e-22)
(0.000499603 0.000867954 -1.73543e-22)
(0.0007832 0.00147679 2.75269e-23)
(0.000564279 0.000998579 -9.29542e-24)
(0.000476085 0.000522165 9.19675e-22)
(0.000523507 0.000899461 0)
(0.000625878 0.000461485 6.03276e-22)
(0.000857293 0.00096527 1.4428e-21)
(0.000657714 0.00124431 0)
(0.000383867 0.000245977 -5.84422e-22)
(5.37507e-05 0.00061201 0)
(0.000507302 0.000886278 9.50562e-23)
(0.00112291 0.000379677 -1.23372e-21)
(0.000581516 0.00098521 4.95373e-24)
(0.000486044 0.000844964 3.81152e-22)
(0.000731394 0.00125351 -3.26576e-22)
(0.000513551 0.00091345 0)
(0.000944709 0.000857673 8.94001e-22)
(0.000489451 0.00137124 2.53979e-23)
(0.000274073 0.000473329 2.71263e-22)
(0.000725607 0.00126881 -1.92236e-22)
(0.00054994 0.000937989 7.46328e-24)
(0.000537501 0.000909901 -3.62333e-22)
(0.00072599 0.00127093 -2.03034e-22)
(0.000717714 0.000586907 1.11951e-23)
(0.000611919 0.00106794 -3.23929e-22)
(0.00067374 0.00120074 -3.08065e-22)
(0.000776639 0.000359587 1.27577e-21)
(0.000706422 0.0012186 -1.05316e-21)
(0.000551439 0.00099647 -1.52629e-22)
(0.000514663 0.000919297 -2.02135e-22)
(0.000400065 0.000241926 0)
(0.000333252 0.000537787 7.25905e-22)
(2.11524e-05 -1.18834e-05 2.14379e-24)
(0.00103115 0.00144364 -1.09245e-21)
(0.00081837 0.00141937 0)
(0.000639826 0.0010942 1.25958e-22)
(0.000586532 0.00105241 2.11697e-22)
(0.000596782 0.00112966 -1.82995e-22)
(0.000723195 0.00150542 -2.64094e-23)
(0.000443794 0.000864827 0)
(0.000884359 0.00142518 -5.32334e-22)
(0.000304658 0.000514498 4.0749e-22)
(0.000439979 0.000832208 1.97289e-22)
(0.000477757 0.00100309 -3.86036e-23)
(0.000680159 0.00120546 8.7142e-22)
(0.000552351 0.000965742 1.5272e-22)
(0.000339351 0.000608671 1.55443e-22)
(0.000433597 0.000952955 9.10623e-22)
(0.000936392 0.000113871 -9.56855e-22)
(0.00070997 0.00123798 -8.48574e-22)
(0.000471537 0.000293662 3.91784e-22)
(0.000694808 0.00127378 2.21036e-23)
(0.000715604 0.0012632 1.72191e-22)
(0.00097838 6.23212e-05 0)
(0.000948434 8.74883e-05 2.40342e-23)
(0.000757993 0.00143493 1.13022e-22)
(0.000588495 0.00111823 8.337e-23)
(0.000537832 0.000926513 -5.99437e-25)
(0.000700132 0.000102073 -1.62388e-21)
(0.000559041 0.000971265 2.32217e-22)
(0.000453689 0.000995912 8.37539e-22)
(0.00059414 0.000849716 5.20213e-22)
(0.000744772 0.00132413 -4.77968e-23)
(1.57794e-05 -2.11008e-05 8.02541e-24)
(0.000812262 0.000895349 4.10778e-22)
(0.00071576 0.00127002 -1.32679e-22)
(0.000593813 0.00105355 -4.98908e-23)
(0.000225964 0.000817334 1.18107e-24)
(0.00102679 0.000153496 0)
(0.000243139 0.001012 1.36288e-23)
(0.000525043 0.00088451 0)
(0.00048776 0.000866834 1.53168e-22)
(0.00100885 0.000191215 0)
(0.000445449 0.000815105 -1.30988e-22)
(0.0002667 0.000765709 -7.30474e-22)
(0.000482717 0.000780375 3.48002e-22)
(0.000601917 0.0010034 4.98678e-22)
(0.00026641 0.000343083 1.89009e-21)
(0.000684296 0.00126322 -4.88347e-23)
(0.000533707 0.000943236 -5.20982e-22)
(0.000491912 0.000946288 6.04442e-22)
(0.000554034 0.00104618 3.52739e-22)
(0.000615712 0.0011704 0)
(0.000298539 0.000507113 -1.94157e-22)
(0.000667721 0.00115657 3.89887e-22)
(0.000793158 0.00144296 7.3541e-22)
(0.000726355 0.00127118 0)
(0.000101209 -8.79128e-05 1.29259e-21)
(0.000269627 0.00047036 0)
(0.000653159 0.00105407 9.07211e-22)
(0.000524199 0.000871137 3.63315e-22)
(0.000586758 0.00109401 5.6927e-23)
(0.000727605 0.00126868 -2.3975e-22)
(0.000317733 0.000898349 3.63072e-22)
(0.000330596 0.000708962 -2.30647e-22)
(0.000600824 0.0010952 0)
(0.000631611 0.00105496 1.55521e-22)
(3.67839e-05 0.00079442 0)
(0.000256151 0.000812718 -3.26793e-22)
(0.00134355 0.000216847 0)
(0.000687813 0.00131041 -1.77801e-22)
(0.000760301 0.000108816 3.40198e-23)
(0.000663751 0.00119357 4.62993e-22)
(0.000733461 0.00127254 -1.29825e-22)
(0.000291585 0.000862246 4.15519e-22)
(0.000708184 0.00124332 -1.23763e-22)
(0.000637544 0.00106274 -1.54888e-22)
(4.47933e-05 0.000185703 4.5255e-22)
(0.000533425 0.00107069 6.42564e-24)
(0.000706247 0.00118171 -4.2971e-22)
(0.000531625 0.000912585 -2.74679e-22)
(0.000612013 0.00107736 0)
(0.000544061 0.000996395 0)
(0.000514029 0.000865287 -7.83299e-22)
(0.000523693 0.00102086 0)
(0.000310852 0.000512131 -6.18515e-22)
(0.000598873 0.00105759 -1.6969e-22)
(0.00058371 0.00107793 -2.8831e-23)
(0.000443191 0.000753331 2.53573e-22)
(0.00081848 0.0014166 -4.80172e-23)
(0.000348097 0.000640438 7.83921e-22)
(0.000534491 0.00092447 0)
(0.00049491 0.0010829 -2.73477e-22)
(0.000534838 0.00087401 3.09993e-23)
(0.000135172 0.000159994 0)
(0.000625655 0.00118503 6.23009e-23)
(0.000529646 0.000939735 3.13969e-24)
(0.000732167 3.85457e-05 2.11897e-24)
(0.0003362 0.000928965 5.59978e-24)
(3.39952e-05 1.98525e-07 8.52364e-22)
(0.000301338 0.000949331 3.40067e-22)
(0.00063278 0.00120715 -2.08723e-22)
(0.000712129 0.00138372 -5.68157e-22)
(0.000476113 0.000858536 -6.05373e-22)
(0.000561236 0.000955382 -3.30941e-23)
(0.000485831 0.00100392 0)
(0.000976771 0.000747577 5.1317e-22)
(-0.000169773 0.0010423 -3.87299e-22)
(0.000653157 0.00128312 0)
(0.000302008 0.000903753 -8.4438e-22)
(0.000494832 0.000508996 6.4191e-22)
(0.000597794 0.00106362 0)
(0.000635438 0.00106306 3.4253e-22)
(0.000650801 0.00115801 -5.48046e-23)
(0.000314236 0.000355725 -1.99502e-21)
(0.000444298 0.000436804 -1.36013e-22)
(0.000583662 0.00101646 -3.2235e-22)
(0.000371646 0.000883394 3.0919e-22)
(0.000586603 0.00101949 -1.81463e-22)
(0.000650558 0.00116179 -1.34441e-22)
(0.000606576 0.001096 0)
(0.000734769 0.00120771 -3.61036e-24)
(0.00033964 0.000971809 0)
(0.000657336 0.00115407 4.10844e-24)
(0.000612106 0.00103398 1.49742e-22)
(0.000594059 0.00105324 -2.423e-22)
(0.000776172 0.00144407 3.9922e-22)
(0.000273296 0.000474393 1.93038e-22)
(4.44943e-05 -6.20135e-07 3.23854e-23)
(0.000409815 0.00117258 -4.64623e-22)
(0.000530135 0.000892219 3.38492e-22)
(0.000723871 0.00122519 3.93148e-24)
(0.000722396 0.00152195 0)
(1.94785e-05 -3.0298e-05 -5.46031e-22)
(0.000460789 0.000803796 -7.17152e-22)
(0.000643574 0.00122285 0)
(0.000588847 0.000827677 -4.09321e-22)
(0.000522641 0.000980489 0)
(0.000357395 0.00084144 7.04495e-22)
(0.000626843 0.00108747 3.40929e-22)
(0.000845598 0.00115555 -4.0563e-22)
(0.000575322 0.000976253 0)
(0.00080167 0.00144451 5.70951e-22)
(0.000641777 0.00107136 1.58933e-22)
(0.000534771 0.00100579 2.56731e-22)
(0.000538522 0.00090719 -4.34102e-22)
(0.000566959 0.00107171 -2.02765e-22)
(0.000733524 0.00124515 1.63525e-22)
(0.000225848 0.00082455 -1.29153e-21)
(0.000262258 0.000860122 -3.85091e-22)
(0.000470116 0.000865115 -3.91045e-22)
(0.000733184 0.000109153 -3.12981e-22)
(0.000645766 0.000493108 1.5972e-21)
(0.000907728 0.000204149 -1.37133e-22)
(0.000591757 0.00102643 -5.34566e-24)
(0.000385283 0.00055408 -6.99254e-22)
(0.000858177 0.000480095 1.18336e-21)
(0.000733886 0.00126986 -3.64406e-22)
(0.000515358 0.000884825 0)
(0.000541759 0.000984539 6.10401e-22)
(0.0003462 0.000864179 0)
(0.000707954 0.00121992 -2.83383e-22)
(0.000675226 0.00123786 -3.78212e-24)
(0.000647436 0.000640945 -8.57035e-22)
(0.000477398 0.000914275 4.5521e-22)
(0.00065679 0.000723165 -7.80097e-22)
(0.000484479 0.000968711 -2.93022e-22)
(0.000417676 0.00050493 1.95377e-22)
(0.00063046 0.000663768 6.0902e-22)
(0.000804134 0.00143522 1.67687e-23)
(0.000603348 0.00098687 1.74564e-23)
(0.00051648 0.0011366 0)
(0.000378983 0.000956329 5.72536e-22)
(0.000573227 0.00104295 -9.75881e-22)
(0.000406333 0.00101467 -6.50633e-22)
(0.000644815 0.000741326 9.26022e-22)
(0.000211624 0.000470868 4.02323e-22)
(0.000547455 0.00134697 -2.53016e-22)
(0.000369357 0.000172951 0)
(0.000640854 0.000781438 -2.41341e-21)
(2.07422e-05 2.71717e-05 -4.09338e-22)
(0.000367581 0.000615526 -1.22869e-22)
(0.000561148 0.00104752 -1.42954e-21)
(0.00055913 0.00105388 1.98969e-21)
(0.000381461 0.000774383 0)
(0.000460067 0.000924003 -1.0816e-21)
(0.000589236 0.00135967 -3.92658e-23)
(0.000661006 0.00125616 6.24531e-24)
(2.27296e-05 0.000741848 0)
(0.000668418 0.00068478 -2.25268e-21)
(0.00064556 0.00116396 -1.26108e-22)
(0.000763991 0.00152019 -5.51492e-24)
(0.000611804 0.000708783 -6.49161e-22)
(0.000536263 0.000971078 -7.41293e-22)
(0.000528891 0.00106612 -4.38529e-22)
(0.000530627 0.000923321 -4.18387e-24)
(0.000544013 0.000972163 -7.39973e-25)
(0.000587916 4.65106e-05 -1.4923e-22)
(0.000278624 0.000739547 -1.03933e-21)
(0.000654582 0.00111667 -4.05883e-22)
(0.000529227 0.000929723 -1.04894e-23)
(0.000551691 0.000959075 -1.8069e-22)
(0.000570618 0.00108911 -6.39673e-23)
(0.000593188 0.00105408 0)
(0.000783177 0.000238286 9.2255e-22)
(0.000582865 0.0010118 -3.85042e-22)
(0.000628083 0.000431969 5.20203e-22)
(0.000658757 0.00115445 1.18474e-21)
(0.000755753 0.00090025 0)
(0.00108976 0.000367661 5.90295e-22)
(0.000572157 0.00105398 3.64956e-25)
(5.25778e-05 9.94743e-05 -5.24201e-22)
(0.000631285 0.0010468 0)
(0.000214681 0.000485622 4.74085e-22)
(0.000756758 0.00143013 -6.90449e-22)
(0.000614365 0.0010653 0)
(0.000592034 0.00106556 0)
(0.000701305 0.00134619 0)
(0.000885884 0.00036877 -5.52157e-22)
(0.000465508 0.0010331 0)
(0.000508621 0.000713809 -1.60804e-21)
(0.000393168 0.000970244 -1.9353e-21)
(0.00130319 0.00133346 -6.43363e-22)
(0.000622447 0.00104776 -1.49291e-22)
(0.000706305 0.00123824 -8.43575e-25)
(0.000511777 0.00086387 4.88352e-22)
(0.000557649 0.000350068 -3.82747e-22)
(0.000701117 0.00122465 0)
(0.000509787 0.000689292 -5.14727e-22)
(0.000550115 0.000704224 6.95263e-22)
(3.29476e-05 -1.18239e-05 0)
(0.000564604 0.00105979 -1.86256e-22)
(0.000532288 0.000905363 1.59199e-22)
(0.000360082 0.00079554 0)
(0.000812108 0.000199898 3.8739e-22)
(0.000666778 0.00120434 0)
(0.00041643 0.000944258 2.54665e-22)
(0.000782525 0.00143307 8.74751e-22)
(0.000485865 0.000956712 -8.63716e-22)
(0.000607422 0.00115288 -5.37097e-23)
(0.000398889 0.00100888 -1.27481e-21)
(0.000488923 0.000577601 -1.42596e-21)
(0.000617681 0.00076164 -1.96851e-25)
(0.000438264 0.00108092 9.81047e-23)
(0.000623424 0.00102287 7.07417e-23)
(0.000565048 0.000369145 7.74365e-22)
(0.000683208 0.000884983 -2.02609e-21)
(0.000365368 0.000612948 0)
(0.000669538 0.00122636 4.63757e-22)
(0.000578029 0.000992139 -1.83977e-21)
(0.000432101 0.000947736 0)
(0.00088128 0.000350203 1.24619e-21)
(0.000597789 0.00105637 0)
(0.000771757 0.00140015 -9.13895e-23)
(0.000817993 0.00142501 -4.73625e-22)
(0.000746998 0.00143596 3.87415e-22)
(0.000787751 0.0014353 -6.18649e-22)
(0.000678606 0.00125945 -1.47305e-22)
(0.000460302 0.000237407 2.33182e-25)
(0.000498689 0.000431014 -1.04702e-21)
(0.000590639 0.000249306 0)
(0.000553499 0.00105923 9.15305e-22)
(0.00089442 8.54704e-05 -3.47102e-22)
(0.000655919 0.0011432 0)
(0.0006475 0.00119766 0)
(0.000211173 0.000406933 4.09803e-22)
(0.000606823 0.00127162 0)
(0.000613369 0.00117918 -2.10905e-21)
(0.000493028 0.00109395 4.26074e-22)
(0.000800007 0.00142151 5.69008e-22)
(0.000264601 -1.64904e-05 -4.27499e-22)
(0.000547123 0.000825489 -7.0046e-22)
(0.000103525 0.000529703 -5.46136e-22)
(0.000866477 0.00125928 -1.56819e-21)
(0.000552177 0.000963691 -1.61714e-22)
(0.00067243 0.00108046 1.1913e-21)
(0.000664225 0.00116412 -9.44224e-23)
(0.000672189 0.000170058 3.73944e-24)
(0.000805206 0.00142714 4.80264e-22)
(0.000614321 0.00109426 1.74682e-22)
(0.000665706 0.0011621 4.66683e-23)
(6.36544e-05 0.000507798 0)
(0.000612309 0.00110168 0)
(0.000544994 0.00103339 -1.11396e-21)
(0.000630313 0.00113326 3.65485e-23)
(0.000564143 0.00102861 -9.56475e-22)
(0.000588249 0.00100946 -2.39445e-24)
(0.000572635 0.00104599 0)
(0.000616455 0.000796819 -5.03344e-22)
(0.00079444 -4.72892e-05 -1.53129e-21)
(0.000583627 0.000407693 0)
(0.000583721 0.0010427 5.51854e-23)
(0.00056379 0.000982913 -3.25405e-23)
(0.000687954 0.000552602 1.41361e-21)
(0.000577363 0.00104343 6.07654e-25)
(0.000758583 0.00139156 -6.82194e-24)
(0.0004984 0.00104696 -3.58955e-22)
(0.000672906 0.00122877 -8.13332e-23)
(0.00064051 0.00121297 -5.54648e-23)
(0.000687792 0.00120472 0)
(0.000409609 0.00132814 1.0843e-21)
(0.00063738 0.00112412 8.16003e-22)
(0.000554776 0.00117184 -5.80906e-22)
(0.000350622 -4.83742e-05 1.39178e-25)
(0.000594287 0.00114825 -4.42711e-22)
(0.00043316 0.000896198 1.06335e-21)
(0.000373622 0.000155251 6.09304e-22)
(0.000666223 0.00116556 0)
(0.000602964 0.00105125 7.90089e-22)
(0.000344077 0.000754463 -1.73117e-22)
(0.00114779 -1.14695e-05 4.86776e-22)
(0.000304951 0.000785069 5.63258e-22)
(0.000713826 0.00122746 9.88957e-23)
(0.000666909 0.00116642 -4.73759e-22)
(0.000573261 0.00102011 -6.11325e-22)
(0.000595851 0.0009338 1.64753e-21)
(0.000815909 0.00142759 3.62021e-22)
(0.000592222 0.000223697 -1.18514e-21)
(0.000575228 0.000179796 1.36302e-21)
(0.000628239 0.000116501 -1.41008e-21)
(0.000778822 0.00135895 2.34044e-23)
(0.000415535 0.000922338 -2.10314e-21)
(0.000653567 5.37215e-05 7.39744e-22)
(0.000620116 0.00122454 0)
(0.000815281 0.00142729 -3.68672e-22)
(0.000614236 0.00105069 7.26999e-22)
(0.00032554 0.00081629 -1.89153e-22)
(0.00025875 0.000388456 -9.7008e-23)
(0.000563556 0.00104801 6.01566e-24)
(0.00061637 0.00113078 1.75946e-22)
(0.000612399 0.00106946 -4.01521e-22)
(0.00057758 0.00106862 0)
(0.000515948 0.00088387 -6.9369e-22)
(0.000685791 -4.34223e-06 7.71449e-22)
(0.000573617 0.00107265 -4.51922e-22)
(0.00069871 0.00122289 4.31564e-22)
(0.000921201 0.00139539 -4.02435e-23)
(0.000591142 0.000242099 0)
(0.000429043 0.000141957 -5.52534e-22)
(0.000651066 0.00111848 -5.40657e-24)
(0.000668465 0.00116766 -4.98566e-22)
(0.000587914 0.0010814 2.58586e-23)
(2.02673e-05 1.61205e-05 1.15924e-22)
(0.000661078 0.00116025 1.00837e-22)
(0.000460089 0.000777882 -8.66312e-22)
(0.000822401 4.88227e-05 7.24204e-22)
(0.000663142 0.000135711 7.2128e-22)
(0.000761578 0.00140856 -1.45048e-23)
(0.000621235 0.00124125 0)
(0.000351111 0.000599943 -7.10961e-22)
(0.000273067 0.000512958 0)
(7.13849e-05 -4.01509e-06 6.12428e-22)
(0.000662821 0.00116189 -3.12134e-22)
(0.000779659 6.99804e-05 -8.54738e-22)
(0.000658389 0.00115584 -4.01177e-22)
(0.000533595 0.00110199 4.46231e-22)
(0.000508533 0.000978536 4.94057e-22)
(0.000721131 0.0012226 -3.91991e-22)
(5.64692e-05 0.000139731 1.97092e-21)
(0.000788798 0.00142604 1.54072e-22)
(0.000922692 7.13736e-05 0)
(0.000545215 0.00102145 7.46704e-23)
(0.000461003 0.000694456 -4.35701e-24)
(0.000599965 0.0010348 0)
(0.000578034 0.000455135 -2.0812e-21)
(0.00088664 7.93791e-06 0)
(0.000665188 0.00116185 8.95355e-23)
(0.000587292 0.00105879 5.67522e-22)
(0.000679952 0.00121978 -1.35445e-21)
(0.000640605 0.00113886 -1.18412e-22)
(0.000827737 0.000154917 -8.37466e-23)
(0.000599297 0.00104915 0)
(4.26763e-05 0.000345312 -1.24828e-22)
(0.00080166 0.00141165 0)
(0.000178013 0.000355488 0)
(4.60957e-05 0.0007527 -2.98809e-22)
(0.000542659 0.00111936 -7.94956e-22)
(0.00064205 0.000184255 -6.47101e-22)
(0.000650434 0.00112247 8.06005e-22)
(0.000469716 0.000968645 1.26636e-22)
(0.000751965 0.00121042 -9.1188e-22)
(0.000503632 0.0013069 0)
(0.000623928 0.00109436 3.33875e-22)
(0.000787109 0.00140514 0)
(0.000806984 0.00143791 -6.44956e-24)
(0.000575603 0.00109696 9.87794e-22)
(0.000609893 0.00104589 8.17348e-23)
(0.000564516 0.000669131 1.73016e-21)
(0.000470144 0.000419132 1.09738e-21)
(0.00052521 0.00104613 0)
(0.000624966 0.00109424 -1.03916e-22)
(0.000795546 0.00140487 0)
(0.000595759 0.00102772 0)
(0.000584021 0.00112668 -1.05805e-21)
(0.000975568 0.000155008 5.93648e-22)
(0.0005174 0.00122025 0)
(0.000203915 5.82387e-06 8.1181e-22)
(0.000545241 0.00101708 -6.40537e-23)
(2.4693e-05 0.000122407 9.4609e-22)
(0.000681739 0.000484282 -8.50581e-23)
(0.000711622 0.00121229 4.40876e-22)
(0.000842544 0.00113932 8.52035e-22)
(0.000701618 0.00111222 -4.35133e-22)
(0.000503972 0.00129151 0)
(0.000563544 0.00107648 5.00347e-22)
(2.65847e-05 0.000390515 3.20711e-23)
(0.000595515 0.00105591 -3.68232e-22)
(0.000553848 0.00107962 -2.32483e-22)
(0.00081156 0.00143361 -3.24003e-22)
(0.000795496 0.0014217 -7.47174e-25)
(0.000574344 0.0010451 0)
(0.000648246 0.00126182 4.39743e-22)
(0.000629602 0.00105293 -7.12768e-22)
(0.000624662 0.00109177 1.8671e-22)
(0.000897287 0.00018092 4.31223e-22)
(0.000617862 0.00109358 6.85026e-22)
(0.000625594 0.00108742 0)
(0.000561558 0.00114287 0)
(0.000562609 0.00110441 4.57193e-22)
(0.000511878 0.000891659 -9.07229e-23)
(0.000579325 0.00101456 1.00033e-21)
(0.000662121 0.00116213 0)
(0.000517183 0.000886679 3.86856e-22)
(0.00103299 0.000376086 7.8539e-24)
(0.000657998 0.00118611 2.30912e-22)
(0.000610729 0.00105684 -6.91787e-22)
(0.000614324 0.000674518 5.01347e-22)
(0.000652618 0.00115385 -7.06014e-22)
(0.00072799 0.00127047 4.2691e-25)
(0.000762554 5.06374e-05 -1.27886e-21)
(0.000590727 0.00120861 1.67751e-22)
(0.000237577 0.000932894 0)
(0.000630826 0.00110064 -9.44856e-22)
(0.000445476 0.000977721 5.16397e-25)
(0.000404046 0.00132478 0)
(0.000343009 0.00090444 6.37577e-22)
(0.000646363 0.00115158 -8.95016e-22)
(3.50262e-05 -2.24414e-06 1.31464e-21)
(0.000222659 0.00134648 -7.41609e-22)
(0.000662261 0.00117404 -4.67442e-22)
(0.000655944 0.000435907 3.94464e-22)
(0.000594803 0.00105464 3.35332e-22)
(0.000582757 -0.00043432 -8.88106e-23)
(0.000869891 7.82039e-05 0)
(5.88897e-05 -1.62884e-06 0)
(0.000589171 0.00105691 -1.18671e-21)
(4.04853e-06 2.18708e-05 6.29393e-23)
(0.000653459 0.0011533 7.76741e-22)
(0.000587236 0.00104218 8.92886e-23)
(0.000592014 0.00107347 7.99936e-23)
(0.000647021 0.00114204 1.40035e-22)
(0.000549671 0.00122025 5.12519e-22)
(4.28248e-05 2.33807e-06 -1.41916e-22)
(0.000667664 0.00127626 -7.70561e-22)
(0.000629533 0.00109246 -1.38084e-22)
(0.00029249 5.36449e-05 0)
(0.000604362 0.00107288 3.8687e-22)
(5.04202e-05 -8.07782e-06 0)
(0.000652086 0.00111352 -8.0334e-22)
(6.03249e-06 -5.83652e-05 0)
(4.53779e-05 -6.21492e-06 0)
(0.000714547 0.00126418 2.60251e-22)
(0.000583036 0.00110268 4.05492e-22)
(0.000384502 0.000600656 -1.63465e-22)
(0.000590121 0.00105325 -6.30192e-22)
(0.000624433 0.00108917 -5.67346e-22)
(0.000662087 0.00115403 -3.89966e-22)
(3.78447e-05 0.000216108 -2.45968e-22)
(0.000912159 8.46948e-05 0)
(0.000808969 0.00143362 0)
(0.000625378 0.00133092 -4.38608e-22)
(0.000625632 0.00109314 5.09022e-22)
(0.000660355 0.00116072 0)
(0.00060849 0.00105266 -1.35455e-21)
(0.000608331 0.00104435 -1.4798e-21)
(0.000638874 0.00123961 0)
(0.000602005 0.00104578 0)
(0.000600981 0.00107844 -1.74436e-22)
(0.000406569 0.000301754 4.15928e-22)
(0.000534289 0.00081951 -4.88192e-25)
(0.000623696 0.00109614 -1.17185e-22)
(0.000688074 0.00127651 1.84505e-22)
(0.000624926 0.00109462 5.51362e-22)
(0.00061042 0.0010988 -5.74341e-22)
(0.000805297 0.00142358 -1.04345e-21)
(0.000601388 0.00105569 3.64063e-23)
(0.000632288 0.000364679 -2.17473e-21)
(0.000643506 0.00120171 -6.09911e-24)
(0.000628827 0.00109459 -1.59606e-22)
(0.000672615 0.00123322 -2.88256e-24)
(4.87708e-05 7.77306e-06 -2.8658e-23)
(1.73539e-05 9.57614e-05 -9.32049e-22)
(0.000595453 0.00105387 6.23198e-22)
(0.00063143 0.00111725 -5.82959e-22)
(0.000841029 0.000796718 0)
(0.000603318 0.00105321 6.74628e-22)
(0.000645548 0.0012515 -2.6941e-23)
(0.000686782 0.00126632 -4.9189e-23)
(0.000507352 0.00114414 -1.18115e-21)
(1.5718e-05 7.97326e-05 -3.6717e-22)
(0.000691629 0.00129089 0)
(0.000663104 0.00117365 0)
(0.000621501 0.00109433 4.53576e-22)
(-3.16203e-06 3.8593e-05 9.66872e-25)
(0.000530444 0.00112202 0)
(0.00081044 0.00142158 4.33396e-22)
(0.000607694 0.00105285 7.27202e-22)
(5.8018e-05 0.000236577 0)
(0.000670061 0.0012235 0)
(4.76597e-05 1.17405e-05 2.79144e-23)
(0.000615702 0.00106578 1.28823e-21)
(0.000379045 0.00106055 6.57088e-22)
(0.000823842 0.00141827 2.79637e-22)
(0.000634519 0.00115274 -2.25847e-22)
(0.000592299 0.00104895 -1.51181e-22)
(0.000629782 0.0010933 0)
(0.000592421 0.0011163 -4.84418e-22)
(0.000669053 0.00116234 0)
(5.27777e-05 -2.2044e-05 -5.28148e-22)
(0.000796471 0.00141609 -1.33927e-21)
(0.000819181 0.00142722 7.2726e-22)
(1.7299e-05 0.000119446 1.51169e-21)
(5.70436e-05 -1.08515e-05 0)
(0.000810759 0.00141254 3.5769e-22)
(0.000665399 0.00125815 -3.34345e-25)
(0.00059835 0.00110072 5.86993e-23)
(0.000606075 0.0010612 -2.49501e-22)
(0.000623244 0.00115424 6.45473e-23)
(0.000605329 0.00107246 -9.78391e-22)
(0.000631443 0.00113096 -4.80266e-22)
(0.000509067 0.00118621 8.99136e-24)
(0.000665194 0.00116377 4.27648e-22)
(0.000601244 0.00104979 -9.34624e-23)
(6.06879e-05 0.000279754 0)
(2.83113e-05 1.99516e-05 2.19156e-22)
(0.00071726 0.00124496 -3.93943e-22)
(0.000921726 8.72071e-05 2.29026e-22)
(0.000604774 0.00106334 0)