/*--------------------------------*- C++ -*----------------------------------*\
  =========                 |
  \\      /  F ield         | OpenFOAM: The Open Source CFD Toolbox
   \\    /   O peration     | Website:  https://openfoam.org
    \\  /    A nd           | Version:  8
     \\/     M anipulation  |
\*---------------------------------------------------------------------------*/
FoamFile
{
    version     2.0;
    format      ascii;
    class       volVectorField;
    location    "8";
    object      U;
}
// * * * * * * * * * * * * * * * * * * * * * * * * * * * * * * * * * * * * * //

dimensions      [0 1 -1 0 0 0 0];

internalField   nonuniform List<vector> 
17372
(
(0.000648354 0.00112288 1.204e-21)
(7.87145e-05 0.000243603 4.37572e-21)
(0.000620057 0.00108518 1.30432e-23)
(0.000563955 0.00101035 1.6362e-21)
(0.000109681 2.61044e-05 -2.57495e-22)
(6.77818e-05 0.000250916 -2.02349e-21)
(0.000630376 0.00107944 1.06059e-22)
(0.00025477 0.00054284 -4.88666e-22)
(0.000621864 0.00108596 -2.18927e-22)
(0.000473611 0.000632116 5.16894e-22)
(0.000591917 0.000958397 -1.18445e-21)
(0.000131286 0.000185049 1.0586e-21)
(0.00119906 6.45224e-05 1.45573e-21)
(0.000954156 8.78428e-05 1.09906e-21)
(0.000626637 0.00108519 -1.16287e-22)
(0.000215785 0.000417895 -5.66107e-22)
(0.000129289 0.000175593 -1.61411e-21)
(0.00039943 0.000190519 1.12037e-21)
(0.000981268 4.84521e-05 4.08253e-25)
(0.000192094 0.000596677 0)
(0.000624006 0.00108444 -5.43538e-23)
(0.000576125 0.00109451 -1.57172e-22)
(0.000650415 0.00112606 -1.57105e-21)
(0.000210174 0.000591736 -3.36355e-21)
(0.000425273 0.000126725 -3.10605e-21)
(0.000622726 0.00108546 5.44925e-23)
(0.000649905 0.00112606 4.5209e-24)
(0.000578667 0.000977732 4.39453e-22)
(0.00100829 7.09853e-05 8.58652e-22)
(0.000650116 0.00112621 -7.95769e-22)
(0.000629031 0.00108888 -2.29523e-22)
(8.98712e-05 8.84995e-05 1.42498e-21)
(0.000650322 0.00112616 -5.87455e-24)
(0.000622223 0.00108583 -2.55787e-22)
(0.000169562 0.000718255 5.57344e-22)
(0.000494166 0.000864308 -4.97359e-24)
(0.000622942 0.00108559 0)
(0.000261855 0.000176762 -3.11574e-23)
(0.000521708 0.00090976 3.00871e-22)
(0.00045697 0.000843849 3.79522e-23)
(0.000649802 0.00112587 5.00928e-24)
(0.00057798 0.00103146 2.6284e-22)
(0.000602042 0.0010455 3.52264e-22)
(0.000656646 0.000581132 2.87938e-23)
(0.000496524 0.000859235 0)
(0.000650561 0.00112602 7.71483e-22)
(4.54503e-05 0.000200489 4.1521e-22)
(0.000269418 0.000468174 -9.71313e-23)
(0.000622972 0.00108595 -1.83467e-22)
(0.000510818 0.000872076 4.7569e-22)
(3.29466e-05 0.000261347 1.00483e-21)
(0.000626741 0.00108206 3.24427e-22)
(0.000513939 0.000874479 -5.49304e-24)
(0.000628741 0.0010944 8.06711e-22)
(0.000409992 0.000183174 -8.96577e-22)
(0.000219738 0.000122588 -2.83697e-22)
(0.000621776 0.00108454 -2.11095e-22)
(0.00053351 0.000995548 1.74133e-23)
(0.000629429 0.00108601 -2.56181e-22)
(0.000220231 0.000508249 -8.21565e-22)
(0.00049721 0.000860375 1.04391e-23)
(0.000464685 0.000566353 -4.20779e-22)
(0.000650191 0.00112623 7.88287e-22)
(0.000622387 0.00105786 6.55368e-22)
(0.000579808 0.000940996 -5.29543e-24)
(0.00021078 0.000512848 1.01544e-21)
(0.000491654 0.000860267 -2.77259e-22)
(0.000476672 0.000883883 -5.10121e-23)
(0.000432095 0.00122972 -1.96708e-24)
(0.000272363 0.000196943 2.1521e-22)
(0.000710304 0.000408557 0)
(0.000259492 0.000455015 1.86626e-22)
(0.000726029 0.00125579 -3.28493e-22)
(0.00050079 0.000863302 9.84834e-22)
(0.000550028 0.000923392 -1.01457e-21)
(0.000595857 0.0010278 -1.07531e-21)
(0.000557162 0.000962199 -3.57605e-22)
(0.0006116 0.00107135 0)
(0.000540325 0.00117424 4.93703e-22)
(0.000524699 0.000976767 -2.69343e-21)
(1.00527e-05 0.000230262 0)
(0.00047826 0.000851411 3.4906e-22)
(0.000530252 0.000906569 -8.10441e-22)
(0.000112917 3.33378e-05 -1.37278e-21)
(9.06092e-06 0.000237556 -1.31038e-22)
(0.000620804 0.0010933 0)
(0.000508125 0.000868653 -9.70516e-22)
(0.000553781 0.00097208 -9.48918e-25)
(0.000624269 0.00108636 1.65094e-22)
(1.11798e-05 0.000424804 0)
(0.000706643 0.00128424 -7.64267e-23)
(0.00062037 0.00109141 6.70511e-23)
(0.000465906 0.000488085 0)
(0.00058521 -4.20843e-05 -9.6459e-22)
(6.31137e-06 0.000501221 -6.63302e-22)
(0.000649903 0.00112555 8.77553e-22)
(0.000969884 -3.45535e-05 0)
(4.58136e-05 0.000192694 1.91404e-22)
(0.000417502 0.000168322 -9.85381e-22)
(0.000239465 0.000558156 2.60968e-25)
(0.000869605 0.00027008 -5.64362e-22)
(0.000493246 0.000851498 8.23337e-22)
(0.000267145 0.000186631 -1.22954e-22)
(0.000154019 0.000345756 -1.07814e-21)
(0.000628067 0.00108238 0)
(0.000621996 0.00108759 7.27412e-24)
(0.000638305 0.00108883 1.62245e-24)
(0.000962621 0.000865149 -4.32642e-21)
(0.000126133 0.000123285 0)
(0.000496756 0.000857513 -1.47153e-21)
(0.000737795 0.00150124 0)
(0.000298851 0.000301406 1.04872e-21)
(0.000499564 0.000862159 8.57311e-22)
(0.000511292 0.000876851 -9.24417e-22)
(0.000610063 0.00106514 0)
(0.000482782 0.000841635 -1.0309e-22)
(0.000502431 0.000867146 -8.77145e-22)
(0.000619649 0.00108703 -1.5382e-22)
(0.00063921 0.00116095 0)
(0.000505374 0.000871937 0)
(0.000625626 0.00108582 2.29426e-22)
(0.000508131 0.000875857 -2.24025e-22)
(0.000628199 0.00108446 2.49832e-22)
(0.000519244 0.00091685 1.12904e-22)
(0.000279421 0.000207496 -1.26975e-22)
(0.000627539 0.00108137 2.62851e-22)
(0.000600325 0.0010338 7.63218e-22)
(0.00049419 0.000508546 3.6543e-22)
(6.75897e-05 -9.0717e-06 -6.63206e-22)
(0.000510624 0.000877351 -4.5337e-22)
(0.000625599 0.00107742 -2.88275e-22)
(0.000596776 0.00102903 0)
(0.000649969 0.00112617 8.14473e-22)
(0.000511089 0.000874051 4.69408e-22)
(0.000604218 0.00104038 2.43386e-22)
(0.000484228 0.000520869 4.95529e-22)
(0.000524142 0.000965929 -5.79586e-22)
(0.000607048 0.00104579 -2.24534e-22)
(0.000592258 0.00129569 -6.08674e-22)
(0.000134694 0.00013933 -8.59198e-22)
(0.000498544 0.00060248 9.0064e-22)
(0.000610124 0.00105085 2.16057e-22)
(0.000616238 0.00106225 0)
(0.000622709 0.00107216 -3.10353e-22)
(4.30725e-05 0.000483959 8.64342e-23)
(0.000616248 0.00106265 0)
(0.000618545 0.00106461 5.04537e-24)
(0.00097533 4.63181e-05 -8.2714e-22)
(0.000675384 0.00064668 -8.45342e-22)
(0.000564944 0.00101641 -1.55787e-24)
(0.000308227 0.00054075 -1.00486e-22)
(0.000517056 0.000887012 -8.41229e-22)
(0.000584361 0.00130097 -4.94158e-24)
(0.000726681 0.00125625 2.9746e-22)
(2.33678e-05 0.000345254 7.96136e-22)
(0.000531933 0.000917472 3.57272e-22)
(0.00103772 0.00101936 6.74095e-22)
(8.26285e-05 1.89081e-05 -4.86032e-23)
(8.15867e-05 0.000513798 -1.82063e-21)
(0.00049095 0.000846566 1.01761e-21)
(0.000625619 0.00107787 -6.03868e-22)
(0.000127788 0.000140933 -4.48416e-22)
(0.000581101 0.00100709 7.25034e-22)
(0.000604089 0.000124095 2.12254e-21)
(0.000650258 0.0011251 4.61246e-24)
(0.00068993 0.000517127 8.39011e-22)
(0.000594924 0.00102143 -1.28602e-21)
(0.000645246 0.00024009 -1.02236e-21)
(0.000311679 0.000543368 1.97783e-22)
(0.000496715 0.000850577 -5.49756e-22)
(0.000366503 0.000907038 -5.44281e-23)
(0.000491081 0.00085399 1.52079e-22)
(0.000522295 0.00091821 1.95362e-21)
(0.000281652 0.000319674 1.0368e-21)
(0.000594818 0.00102652 -1.11556e-21)
(0.000500224 0.000876263 4.03534e-22)
(0.000574082 0.000960482 -1.86743e-22)
(0.00018818 0.000586078 1.01044e-21)
(0.000485475 0.000571861 2.62344e-22)
(0.000135253 0.000154628 -5.81699e-23)
(0.000172193 0.000713259 1.11504e-21)
(0.000576018 0.000990172 1.45432e-21)
(7.72834e-06 0.000409655 0)
(0.000235699 0.00043865 5.1058e-23)
(0.000513543 0.000884746 -4.29168e-22)
(0.000629863 0.00108385 -4.59807e-24)
(0.000643052 0.00118198 -5.50462e-23)
(5.73113e-05 0.000143708 2.94853e-22)
(0.000436828 0.00120669 -2.05467e-23)
(4.36237e-05 3.36811e-05 3.73091e-22)
(0.0004964 0.000908081 6.3007e-23)
(0.000292165 0.000546506 -7.2476e-22)
(0.000532293 0.0009462 -2.52774e-22)
(0.000252321 0.000434189 0)
(0.000509166 0.000876287 1.36757e-21)
(5.47153e-05 0.000121068 0)
(0.000448262 0.000889344 0)
(0.000673972 0.00118815 1.46903e-22)
(0.000235295 0.000248609 -5.62161e-22)
(0.00117161 0.000821024 0)
(4.82037e-05 0.000119653 -3.99585e-22)
(0.000436667 0.000630688 -6.90081e-23)
(0.000427035 -1.55666e-05 -2.18473e-25)
(0.000534067 0.000932196 -5.87128e-22)
(0.000428264 0.000777637 -1.22696e-23)
(9.65818e-05 2.38795e-05 1.01981e-21)
(0.000572288 0.00100098 0)
(0.00082149 0.000400559 1.47198e-22)
(0.000622367 0.00108658 -5.54578e-24)
(0.000619128 0.0010682 3.38995e-22)
(0.000548847 0.000943506 -8.39439e-22)
(0.000649801 0.00112601 8.34383e-22)
(0.000568795 0.000971339 -2.26461e-21)
(0.000555727 0.000955799 8.03862e-22)
(5.88957e-05 0.000162146 0)
(0.000538612 0.000928492 0)
(0.000549087 0.000958566 1.09947e-21)
(0.000540945 0.000960695 2.02193e-21)
(0.000882517 0.00025046 5.78553e-22)
(0.000602457 0.00116348 -7.18074e-23)
(0.000553283 0.00093904 -4.38663e-22)
(0.000201011 0.000526354 0)
(5.78473e-05 0.00013202 9.96742e-23)
(0.000959067 0.000138226 -3.0398e-21)
(0.000622343 0.00107215 -3.24165e-22)
(0.000407804 -6.55436e-06 2.57404e-21)
(0.000633612 0.00110204 3.73112e-23)
(0.000278907 0.000760254 3.1555e-21)
(-0.000460052 0.00037216 -1.50978e-23)
(0.000490258 0.00084453 0)
(0.000256534 0.000167105 2.6145e-22)
(0.000595505 0.00103508 1.0944e-21)
(0.000471746 0.000458642 -1.48793e-21)
(0.000698945 0.00126657 1.13402e-21)
(0.000699579 0.001256 2.31625e-21)
(0.000973955 5.2854e-05 1.24678e-22)
(0.000391337 0.000528884 -8.19026e-22)
(0.000253957 0.000458846 0)
(0.000378179 0.00111221 6.20958e-24)
(0.000485963 0.000860307 -6.16278e-22)
(0.000622373 0.00107095 -4.07373e-22)
(0.000574426 0.00101295 9.16559e-22)
(8.70691e-05 2.05093e-05 0)
(0.000440187 0.000228972 1.08866e-21)
(0.000876598 0.000486525 1.05201e-21)
(0.000651199 0.00112472 0)
(0.000952064 9.03664e-05 -9.18266e-22)
(0.00051524 0.000880508 -4.58761e-22)
(0.000449123 0.000810042 2.85982e-23)
(6.61354e-05 1.3363e-05 -2.00306e-22)
(7.47098e-05 -1.56581e-06 2.44591e-21)
(0.000530005 0.000915768 -5.77345e-22)
(0.000409867 0.00111694 8.42883e-25)
(0.000619546 0.00109523 1.70343e-22)
(7.38552e-05 1.55664e-05 1.35744e-21)
(0.000523858 0.000910737 -6.82867e-25)
(0.000589391 0.00102074 8.98377e-22)
(3.89308e-05 0.000210376 -2.39174e-22)
(0.000575298 0.000959732 -2.04926e-22)
(0.000625256 0.00015095 1.0391e-22)
(0.000736145 0.00134732 7.9835e-23)
(0.000585265 0.0010397 -4.04352e-24)
(0.000603821 0.00011349 -1.21668e-21)
(0.000392072 -2.00931e-06 -3.23209e-21)
(6.52998e-05 -4.45099e-06 9.77192e-22)
(0.000185172 0.000141643 -4.61209e-22)
(0.000759042 0.00129538 -9.08087e-22)
(0.000367805 0.000272407 3.56846e-21)
(0.000628029 0.00112791 0)
(4.73404e-05 0.000104089 -4.83904e-22)
(0.000445321 0.00080443 -1.50787e-21)
(0.000652425 0.00112444 -5.10921e-24)
(6.49782e-05 0.000505914 5.23393e-21)
(0.00112078 -0.000178217 -2.12747e-22)
(0.000645248 8.61845e-05 0)
(0.000489373 0.00087555 0)
(0.000506458 0.000873169 -6.70542e-22)
(0.00104342 -1.08378e-05 -4.2417e-22)
(0.000585776 1.58227e-06 7.99509e-22)
(0.000398155 0.000540609 2.2825e-22)
(0.000635017 8.06085e-05 0)
(6.32756e-05 6.35149e-05 -1.82789e-21)
(0.000450957 0.00105908 0)
(4.37342e-05 9.37074e-05 7.45795e-22)
(0.000649791 0.00112576 -8.53639e-22)
(0.00144844 0.00114093 -2.21593e-21)
(0.000567554 0.00099171 0)
(0.000482795 0.000824674 -1.19593e-24)
(0.000485214 0.000833111 0)
(0.000345386 0.000439756 0)
(0.000222607 0.000392402 0)
(0.000855804 0.000555069 -8.30911e-22)
(0.000488322 0.000841588 -5.83783e-22)
(0.000342615 0.000578033 -1.16856e-22)
(0.000333801 0.000491374 2.27548e-21)
(0.000561666 0.000955302 -1.73024e-22)
(0.000464613 0.000835197 7.08398e-22)
(0.000893302 0.000169526 2.49461e-25)
(0.000495841 0.00118 6.55492e-22)
(0.00059033 0.00104911 -1.76247e-24)
(0.000634381 0.00124041 -4.25453e-24)
(4.03242e-05 8.40858e-05 8.25398e-22)
(0.000604812 0.00105379 -1.79268e-22)
(4.60795e-05 0.000114104 4.19907e-22)
(4.91511e-05 -2.82494e-06 1.09934e-21)
(0.000671487 0.000608488 -2.577e-22)
(0.0006968 0.00118113 -1.03398e-21)
(0.000568765 0.00094414 0)
(0.000203392 0.000380688 0)
(0.000331282 0.000264771 1.1148e-21)
(0.000594125 0.00107385 4.26657e-24)
(0.000967721 0.000101103 4.2723e-21)
(0.000564576 0.00096685 7.86168e-22)
(3.69442e-05 7.50907e-05 5.65311e-23)
(0.000332104 0.000555471 -1.00563e-21)
(0.000184005 0.000584095 7.67689e-22)
(0.000655791 0.00112456 -9.75309e-22)
(0.000207986 0.000336304 -3.72577e-23)
(0.000461224 -8.9115e-05 -2.07543e-21)
(0.000621414 0.00108664 -1.37989e-22)
(9.27315e-05 0.000946224 -1.11577e-22)
(0.0008753 0.000375319 0)
(0.000618238 0.00106583 0)
(0.00109411 4.36019e-05 1.13819e-22)
(0.000627074 0.00110559 0)
(0.000182325 8.30571e-05 6.16396e-22)
(1.78096e-05 0.000490444 0)
(3.38431e-05 6.7234e-05 4.63254e-23)
(0.000425008 0.000316665 6.75056e-22)
(0.000510488 0.000908684 0)
(0.000612143 0.00105658 0)
(0.000903037 0.000783594 -1.02768e-23)
(0.000176736 0.000112276 3.37328e-22)
(0.000551135 0.000950959 -7.85889e-23)
(0.000615836 0.00106503 -7.62905e-22)
(0.000584294 0.0010074 0)
(3.07738e-05 5.96829e-05 -3.95712e-22)
(0.00072503 0.00125443 3.55212e-22)
(0.000624626 0.00106895 -3.7447e-22)
(0.000457817 3.1441e-05 0)
(0.000630136 0.001089 3.74637e-22)
(0.000260906 0.000337238 2.70093e-21)
(0.000515845 0.000732943 -1.16585e-21)
(0.00059855 0.00102604 1.2048e-21)
(0.000612745 0.00112774 -5.47779e-23)
(0.000516453 0.000905259 -3.66383e-22)
(5.86187e-05 5.2078e-05 -4.60382e-22)
(0.000587168 0.00110469 4.00576e-23)
(0.000637012 0.00112767 -3.7959e-22)
(0.000433439 0.000794281 1.21969e-21)
(2.8174e-05 5.31546e-05 4.05707e-22)
(7.40966e-05 0.000607101 -4.0008e-22)
(5.92488e-05 0.000139006 -1.03271e-21)
(0.000585808 0.00106009 -1.02812e-22)
(0.000615539 0.00105629 -3.50831e-22)
(6.65127e-05 1.67627e-05 -7.83855e-22)
(0.000190897 0.000592765 1.45124e-21)
(0.000578157 0.00100752 -9.16929e-22)
(2.5831e-05 4.71104e-05 -3.96274e-22)
(0.000596389 0.00102468 -2.60614e-22)
(0.000314086 0.000284717 1.40694e-21)
(2.30468e-05 4.05567e-05 5.68871e-22)
(0.000626925 0.00107494 3.589e-22)
(0.00060876 0.00104671 0)
(0.000607582 0.00104697 -2.66794e-22)
(2.1552e-05 3.62656e-05 -9.31889e-23)
(4.28804e-05 -8.30883e-06 1.95763e-22)
(0.000515735 0.000621088 -7.05117e-22)
(0.000604088 0.00104086 -3.08816e-22)
(0.00103554 -1.15083e-05 4.56455e-22)
(0.000489971 0.000866781 -8.58101e-22)
(0.000181562 0.000128736 -1.01964e-21)
(0.00017027 0.00011726 1.08192e-22)
(0.000977703 0.000147049 0)
(0.000751901 0.000879012 0)
(1.96987e-05 3.20534e-05 -1.86499e-22)
(0.000498965 0.000893199 -1.08861e-22)
(0.00064724 0.00123116 -9.84769e-24)
(0.000729672 1.82208e-05 -1.16934e-22)
(5.77151e-05 -3.69973e-06 0)
(5.61423e-05 0.000125943 7.42391e-22)
(0.00048466 0.000833396 -9.51303e-22)
(0.000201487 0.000587212 0)
(0.000503658 0.000868832 0)
(1.67032e-05 1.2827e-06 4.80783e-22)
(0.000541281 0.000497487 -1.5524e-21)
(0.000610582 0.00106333 4.98389e-22)
(0.000507333 0.000869349 -5.59653e-24)
(0.000385394 0.000520333 -8.67992e-25)
(0.000680147 0.000540579 -1.46456e-24)
(0.000217412 0.000489529 5.2796e-22)
(0.000105939 5.91285e-05 -5.74131e-26)
(0.000649989 0.00112537 1.26007e-23)
(0.00127064 0.00111779 1.47006e-21)
(0.000123296 4.08069e-05 1.87906e-21)
(0.000664219 0.00142364 4.0092e-24)
(-7.01266e-05 0.00100927 2.796e-24)
(2.58714e-06 -4.14623e-06 0)
(5.2255e-05 -2.95892e-06 -1.62978e-21)
(0.00046075 -0.000187614 -1.82766e-21)
(0.000587009 0.00100085 3.31844e-22)
(0.000894173 -0.000316539 0)
(0.000440955 0.000438531 9.84821e-22)
(0.000657537 0.00112934 0)
(0.000724045 0.00125258 0)
(0.00056608 0.000956677 1.83025e-22)
(0.000869365 0.000356881 -1.26041e-21)
(0.000396383 0.000847513 0)
(0.00013104 0.000191482 0)
(0.000691498 0.00125966 -1.11532e-21)
(8.6524e-05 2.55523e-05 -9.98371e-23)
(5.0615e-05 0.0010023 -1.10936e-21)
(0.000465622 0.00123849 -1.28625e-23)
(0.000512807 0.000886174 8.55892e-22)
(0.000617833 0.00106567 -3.76176e-22)
(7.39348e-05 -1.10816e-05 0)
(0.000657445 0.00112506 -1.98443e-21)
(0.000110469 7.15008e-05 9.00493e-22)
(0.000463616 0.000882688 -2.21799e-21)
(0.000618592 0.00109418 5.33388e-22)
(0.000564312 0.000271835 1.25468e-21)
(0.00103737 -5.75507e-06 -1.58056e-21)
(0.000533581 0.000926783 -4.2015e-22)
(0.00105704 -2.71937e-06 4.43945e-22)
(0.00061992 0.00106416 3.41938e-22)
(0.000466186 0.0010356 8.82017e-22)
(5.31492e-05 0.000436373 1.49342e-21)
(0.000714108 0.00125815 -2.42409e-22)
(0.00113197 0.000667293 -7.10586e-22)
(0.000229202 0.000650286 6.1782e-22)
(0.000652837 0.000550498 1.43321e-21)
(0.000660055 0.00123609 0)
(0.000485675 0.000869572 -1.91784e-22)
(0.000663088 0.00105277 -1.39003e-23)
(0.000720648 0.00125381 1.73903e-22)
(0.000827379 0.000651192 2.35258e-21)
(0.000233643 0.000497899 0)
(0.000527886 0.000912068 0)
(0.00094438 -1.40974e-05 -1.17689e-21)
(0.000241694 0.000133093 -1.4685e-21)
(0.000487631 0.000588362 -7.05038e-22)
(4.60396e-05 4.21498e-05 -4.40352e-23)
(5.1887e-05 0.00072564 1.33367e-21)
(0.00035619 0.000272847 1.17821e-21)
(4.37462e-05 -4.74206e-06 0)
(0.000134061 0.000525525 1.08342e-21)
(0.000122112 7.56947e-05 1.69411e-21)
(0.00051301 0.00110041 -1.27499e-23)
(0.000584181 0.00102202 -2.77848e-23)
(5.34995e-05 0.000490907 4.61337e-22)
(1.3418e-05 -1.26899e-06 -3.73224e-22)
(0.000375861 2.02051e-06 0)
(0.000630998 0.00108096 -2.21994e-22)
(0.000552171 0.000945589 -1.64327e-22)
(0.00064232 0.00112738 2.6114e-24)
(2.46427e-05 4.75188e-07 0)
(4.58147e-05 9.91163e-05 -6.80567e-22)
(0.00026753 0.000531387 2.04628e-21)
(0.00111541 0.000603829 -2.10253e-24)
(0.00055787 0.000731713 -1.6804e-21)
(0.000218389 0.000489296 0)
(0.000744494 0.00125872 1.74332e-22)
(0.000784426 0.000415936 0)
(0.000578937 0.000994604 0)
(0.000503874 0.00128009 2.49594e-23)
(0.000534407 0.000934838 -6.27574e-22)
(0.000930244 0.000147166 1.95551e-21)
(0.000577422 0.000986964 7.11328e-22)
(0.00017787 0.000262095 -1.74355e-22)
(0.000316972 0.000552399 -7.1745e-22)
(0.000629783 0.00108168 1.7672e-22)
(0.000466031 0.00109384 9.75742e-22)
(3.71172e-07 -1.00437e-06 -2.05588e-22)
(0.000647428 0.000224713 -4.90184e-22)
(0.000110847 0.000539247 3.37506e-22)
(6.079e-05 -0.000192583 0)
(0.000616928 0.00114568 1.31427e-22)
(0.000113544 7.82608e-05 -2.11749e-21)
(0.0006293 0.00107938 1.16327e-22)
(4.19476e-05 8.87857e-05 -5.17381e-23)
(0.000575625 0.00100117 9.57455e-24)
(0.000587532 0.000996102 6.41732e-22)
(0.000301255 0.000579432 -1.00275e-21)
(0.000512246 0.000898857 7.84048e-24)
(0.000363558 0.000403415 2.1777e-21)
(8.9295e-06 0.000440235 -4.7399e-22)
(0.000622511 0.00108603 -1.95393e-22)
(9.82081e-05 9.57466e-05 -1.02888e-21)
(0.000349239 4.90825e-05 -1.02652e-21)
(0.000616107 0.00113647 1.02586e-22)
(0.000274275 0.000474655 -1.83093e-21)
(0.000222747 0.000766457 0)
(0.000709566 0.00126846 2.47759e-22)
(0.000616337 0.0010619 0)
(0.000592166 0.00108982 4.45317e-23)
(5.09404e-05 4.47881e-05 0)
(0.000500667 0.000863866 0)
(9.53042e-05 3.08434e-05 0)
(0.000655243 0.000265728 0)
(0.000433217 0.000556554 1.79366e-23)
(0.00065062 0.00112487 0)
(0.00060991 0.00109326 0)
(8.4999e-05 9.55589e-05 1.71812e-21)
(0.000470164 -0.000269618 2.01999e-21)
(3.86479e-05 7.95029e-05 -8.15615e-22)
(0.000631658 0.00112994 -2.18364e-22)
(1.31888e-06 7.35532e-06 0)
(0.000922437 0.000144843 -1.83681e-21)
(0.000630173 0.00113334 0)
(0.000696826 0.000347258 1.19454e-21)
(0.000492331 0.000835584 0)
(0.000669739 0.00117224 9.19709e-22)
(0.000521513 0.000888498 1.02444e-21)
(0.000365282 0.000531476 -2.7093e-21)
(0.000635309 0.00107971 -1.4074e-21)
(0.000647129 0.00118838 -6.55084e-23)
(-0.000411376 0.000443378 -3.01738e-21)
(0.000653718 0.00114052 -5.90431e-22)
(0.000519814 0.000894992 1.2894e-21)
(0.000551684 0.000956217 -9.31253e-22)
(6.97328e-05 -0.000209306 3.65692e-22)
(0.000803697 0.000404755 -1.41308e-22)
(0.000511312 0.0008853 0)
(3.60554e-05 7.0822e-05 9.55622e-23)
(0.000306186 0.000291975 -3.35357e-21)
(0.000103992 0.000102418 1.61166e-24)
(0.000574553 0.000988856 3.66245e-22)
(0.000531129 0.0009071 0)
(0.000758931 -0.000254537 -1.00868e-21)
(0.000528225 0.000594651 6.62193e-22)
(0.000554176 0.000956514 1.90162e-21)
(0.000684558 0.00153772 -5.65231e-24)
(0.000590629 0.000129317 9.10963e-22)
(0.00052751 0.000910447 -1.31981e-21)
(0.000538002 0.000947845 -3.63001e-23)
(0.000580488 0.00100277 -7.74694e-23)
(0.000285907 0.00053614 7.91668e-22)
(3.24305e-05 6.33715e-05 -9.6174e-23)
(0.000558896 0.000960855 -4.25762e-24)
(0.000864632 0.000339361 9.12697e-22)
(0.000290325 0.000521073 1.96598e-22)
(0.000551943 0.000951473 0)
(0.000981584 7.06397e-05 -4.32794e-22)
(0.000178412 0.000406889 2.02516e-22)
(0.000828762 0.000585913 1.39416e-21)
(0.000175006 0.000252169 -6.92155e-22)
(3.09249e-05 0.000402582 -8.35037e-22)
(0.000900865 9.1047e-05 6.77416e-23)
(0.000985547 0.000161482 4.9468e-22)
(0.000548864 0.00094673 6.6009e-24)
(0.000519845 0.000895941 0)
(3.14183e-05 0.000812329 4.28602e-22)
(7.73402e-06 1.97219e-06 8.91174e-22)
(0.000592993 0.00106305 0)
(0.000656792 0.00113217 0)
(0.00096412 8.47476e-05 -9.5059e-22)
(7.43609e-05 2.0025e-05 -2.8313e-21)
(0.0002003 0.000251776 3.84503e-22)
(2.94342e-05 5.63582e-05 -2.54769e-23)
(0.000547435 0.000945434 -1.05271e-24)
(0.000504069 0.00085351 2.63287e-22)
(0.000617961 0.00106506 0)
(0.000526557 0.000849937 4.7572e-22)
(0.0005049 0.000872685 -2.34267e-22)
(0.000599996 0.0011499 3.77222e-23)
(0.000555781 0.000460356 -2.01853e-21)
(0.000554475 0.000947088 5.68609e-24)
(2.15471e-05 -1.52486e-06 -1.70167e-21)
(0.00054609 0.000941225 -1.57032e-21)
(0.000283213 0.000494253 -5.50385e-26)
(0.000645442 0.00112709 -9.6618e-23)
(0.000620933 0.00110834 9.31486e-22)
(0.000326782 0.000462132 -1.53742e-21)
(2.35503e-06 1.49425e-05 -5.65144e-23)
(0.000539967 0.000931656 5.54497e-22)
(0.000538332 0.000854663 8.02807e-22)
(2.69552e-05 5.01066e-05 4.12608e-22)
(0.000525793 0.00091499 -8.77617e-22)
(0.000552351 0.000965025 6.49475e-24)
(0.000957319 8.18011e-05 2.78321e-21)
(0.000536254 0.000925679 5.79172e-22)
(0.000597076 0.00101966 5.46477e-22)
(0.000506739 0.000855492 6.51536e-22)
(0.00136685 0.000402001 0)
(0.000502201 0.000869099 1.09014e-21)
(0.00176258 0.000230089 0)
(0.000875022 0.000731846 -1.22649e-21)
(0.000630777 0.00107882 2.65124e-22)
(0.00018605 0.000536315 -4.56657e-21)
(0.00140454 0.000967408 6.38658e-22)
(0.000526842 0.000918502 -2.37673e-21)
(0.000203548 0.000157065 2.06952e-21)
(0.000386721 6.26751e-06 0)
(0.000292838 0.000717352 5.90918e-24)
(3.44563e-05 0.000367262 0)
(0.000570436 0.000982663 -7.59475e-22)
(1.42611e-06 -1.34169e-05 8.35546e-22)
(2.45243e-05 4.47985e-05 2.03437e-22)
(0.000638266 0.00113114 1.49621e-22)
(0.000773779 0.00140293 5.17435e-23)
(0.000283659 0.000476528 -9.07894e-22)
(0.000482238 0.000839126 6.57632e-22)
(0.00102519 -0.000123431 -2.26783e-22)
(0.000631122 0.00107996 0)
(0.000697816 0.000885519 1.64562e-21)
(0.00102267 -7.68972e-06 6.72034e-22)
(1.61619e-06 -8.59906e-06 -4.88501e-22)
(4.80266e-05 -5.25591e-06 -1.68991e-21)
(0.000518557 0.000899237 0)
(0.000719261 0.00126728 4.96643e-22)
(0.000698585 0.00128375 -3.66842e-24)
(0.000293644 0.000225014 1.17094e-21)
(0.000143273 0.000690564 -2.46357e-22)
(2.27818e-05 3.81144e-05 0)
(0.000886088 0.00012653 -4.65122e-22)
(0.000611515 0.000299739 -1.38007e-21)
(0.000550076 0.000953072 -9.41032e-22)
(0.000545135 0.000934877 -4.7133e-22)
(0.000571719 0.000994377 8.96496e-22)
(0.000665108 0.00118389 -7.44368e-24)
(0.000497875 0.000859214 -2.11609e-22)
(0.0007821 0.00137964 1.1018e-21)
(0.000534631 0.000924306 1.23516e-22)
(0.000195765 0.000542876 0)
(0.00045299 0.00070601 0)
(0.000510129 0.000894155 0)
(0.000270927 0.000398804 0)
(0.000593367 0.00103302 -3.40135e-22)
(0.000824977 8.72312e-05 -4.82137e-26)
(0.000182157 0.000526484 1.98374e-21)
(0.000468705 0.000191267 -2.50056e-25)
(0.00027626 0.000522088 5.906e-22)
(0.000457943 0.000860165 -1.794e-26)
(0.000567466 -4.04771e-05 2.72476e-21)
(0.000713882 0.0012672 -1.39335e-22)
(0.000534038 0.000933568 6.31573e-22)
(0.000547416 0.000486084 1.3692e-21)
(0.00066466 0.00117697 0)
(0.000194159 0.000605066 0)
(0.000609358 0.00104976 -6.63385e-22)
(0.00044969 0.000493988 -1.96295e-21)
(0.00101664 -0.000112804 -2.18969e-22)
(0.000474499 -0.000413586 -3.06554e-24)
(0.00062814 0.00111467 0)
(2.3464e-05 9.15885e-07 -3.70997e-22)
(0.000130373 0.000515612 5.52204e-22)
(0.000510551 0.000884467 7.82965e-22)
(0.000785245 0.00137974 0)
(0.000491018 0.00135703 -2.34345e-23)
(0.000229149 0.000256234 5.51263e-22)
(0.000344805 0.0012766 -6.39965e-22)
(0.00101676 -5.5453e-05 4.57625e-22)
(0.000385574 0.000588586 0)
(0.000716054 0.00126393 1.43733e-22)
(0.000787671 0.00137907 0)
(0.000778005 0.00137849 1.06623e-21)
(0.000489652 0.00085084 1.17485e-21)
(0.000310448 0.000532872 9.73923e-22)
(0.000554654 -3.07398e-05 3.38091e-21)
(0.000541375 0.000927405 1.15622e-21)
(1.50938e-06 -2.06187e-05 -6.62745e-24)
(0.000262978 0.000732123 0)
(0.000289062 0.000310346 1.05349e-21)
(0.000771816 0.00137648 -1.01601e-21)
(2.17764e-06 2.52819e-05 -1.78959e-21)
(0.000187393 0.000604524 -3.24342e-25)
(0.000566619 0.00097731 -1.18177e-21)
(0.000464905 0.0013231 0)
(0.000591054 0.00102308 -8.8764e-22)
(0.00062229 0.00106335 4.52959e-22)
(0.000514013 0.000898486 5.4691e-24)
(0.00062724 0.00108104 1.16812e-22)
(0.000558666 0.000398645 7.96728e-22)
(0.000464781 0.00093031 -7.59597e-22)
(0.000345989 0.000268482 -2.94381e-21)
(0.000520527 0.000899609 1.92478e-21)
(1.60458e-06 -2.473e-05 -8.36444e-22)
(0.000624864 0.00109019 6.61234e-23)
(0.000782105 0.000581508 -1.93471e-21)
(0.000721806 0.00125427 -4.94259e-24)
(0.000528387 0.000896485 -1.93592e-22)
(0.000527725 0.00093477 2.72351e-22)
(1.46971e-06 -1.68873e-05 0)
(0.000581903 0.00100879 2.96311e-22)
(0.000518365 0.000913686 3.00525e-22)
(0.00098695 0.000121894 -1.90196e-21)
(0.000570491 0.000121795 -2.26836e-23)
(0.000668927 0.00117351 0)
(0.00034788 0.00106726 -1.27321e-23)
(0.000556215 0.000984763 4.72484e-22)
(0.000594721 0.00109452 0)
(0.000653977 0.00112433 9.54472e-22)
(0.000789634 0.00137808 -1.09919e-21)
(5.94284e-05 -6.88623e-07 -1.54218e-21)
(0.000143825 0.000390402 -1.35425e-21)
(0.000518026 0.00112958 5.41874e-24)
(1.14973e-05 5.58654e-05 -9.82262e-22)
(0.000370937 0.000226005 1.24576e-25)
(0.000638531 0.0011402 2.0839e-22)
(1.35661e-06 -1.01448e-05 7.02748e-22)
(0.000613608 0.00105417 0)
(0.000254548 0.000828965 0)
(1.78989e-06 -3.15434e-05 1.70746e-21)
(0.00098392 4.05338e-05 -2.06921e-22)
(0.000230499 0.000795716 1.70954e-23)
(0.000558758 0.000939734 -5.77494e-24)
(0.000394175 0.000136117 9.40323e-22)
(0.000827416 0.000857661 0)
(0.000721411 0.00125622 0)
(0.000463484 0.000809009 0)
(0.000723433 0.0012554 6.94082e-24)
(0.000233391 0.00039293 6.17487e-22)
(0.000791399 0.00137694 1.03082e-23)
(5.35216e-05 -5.31038e-07 0)
(0.000553219 0.000950806 0)
(0.000627619 0.00107525 4.94965e-22)
(0.00063105 0.001458 -3.62385e-23)
(0.000457271 0.00100615 -1.89072e-21)
(0.000643029 0.00112967 -2.1626e-22)
(2.12457e-06 -3.96293e-05 8.61963e-22)
(0.000480429 0.000854711 4.07194e-22)
(0.000513173 0.000894015 0)
(0.000845473 0.000113207 -1.55171e-21)
(0.00037907 0.000644806 1.72108e-21)
(0.00062492 0.0010561 -3.97532e-22)
(0.000647255 0.0011268 -1.11814e-22)
(7.7648e-05 6.99301e-05 -8.58441e-22)
(0.000407473 0.000138879 0)
(0.000315531 0.0011429 -1.64241e-21)
(-0.000355307 0.00105326 -2.34235e-21)
(0.000306873 0.000488312 1.56685e-21)
(0.000651933 0.00113805 8.62132e-22)
(0.000727862 0.00125806 -1.04307e-21)
(0.00049036 0.000828582 -2.38477e-22)
(2.43556e-06 -4.92362e-05 -1.71594e-21)
(3.13354e-05 0.000382947 0)
(0.000700727 0.00127679 0)
(0.000281305 0.000470383 -1.07937e-23)
(6.77977e-05 6.17298e-05 -3.43201e-23)
(0.000565602 0.000974482 -4.07006e-22)
(0.000521258 0.000900896 -1.29808e-21)
(0.000220892 0.000500609 0)
(1.11422e-05 0.000327383 0)
(2.76554e-06 -5.68138e-05 6.90717e-24)
(0.000530429 0.0009231 -1.11583e-21)
(7.46127e-05 6.64562e-05 0)
(0.000175919 8.08659e-05 4.10728e-22)
(0.000999802 0.00011515 0)
(0.000158953 0.000271747 -2.22774e-21)
(0.000522129 0.000900783 -5.18968e-22)
(0.000606632 0.00104485 -2.33249e-22)
(6.70461e-05 6.56875e-05 0)
(0.000532985 0.00091609 -6.05691e-22)
(0.000262111 0.00042131 0)
(0.000184536 0.000587196 1.00183e-21)
(3.21768e-06 -6.54143e-05 8.68982e-22)
(0.000356305 0.000556496 1.36838e-21)
(0.000786179 0.00137341 1.12351e-21)
(0.000336247 4.16899e-05 -1.43684e-26)
(0.0004069 -0.000551493 0)
(0.000555092 0.000960677 0)
(0.000728112 0.00125777 6.00871e-22)
(0.000110355 0.000394442 0)
(0.000598994 0.00104174 -6.08607e-22)
(9.02804e-05 0.000393517 9.34294e-22)
(0.000701297 0.00127033 -9.8074e-23)
(0.000595898 0.00103197 -3.03904e-22)
(0.000562737 0.000985583 -6.49738e-23)
(0.000527143 0.000909833 -5.69428e-22)
(0.000614223 0.00104549 1.98103e-21)
(0.000617907 0.000686625 1.41078e-21)
(4.00763e-06 -8.08104e-05 0)
(0.000773013 0.00130561 -1.63191e-21)
(0.000558847 0.000598884 1.40947e-21)
(0.00048901 0.000879508 -3.73506e-22)
(9.92103e-05 0.000421987 6.3103e-23)
(0.00049481 0.000854335 -8.31688e-22)
(0.000410567 0.00032351 0)
(0.000659659 0.0011863 1.03129e-22)
(0.000558099 0.000950115 -6.86497e-23)
(7.43797e-05 5.86024e-05 -5.29342e-22)
(0.000489874 0.000822535 -5.12887e-22)
(0.000607334 0.00105016 1.13099e-21)
(0.000567915 0.000987831 8.88324e-22)
(0.000367937 0.000412989 0)
(0.000690575 0.00123149 1.24107e-21)
(2.32525e-05 -1.44354e-06 -5.71755e-23)
(0.000546491 0.000937071 0)
(0.000217158 0.000265787 -3.5519e-25)
(0.000783373 0.00138739 0)
(0.000776833 0.00130375 8.07073e-22)
(0.00064779 0.00112301 5.40156e-22)
(0.000235979 0.000440992 -1.85551e-21)
(0.000508231 0.000881589 -4.82456e-24)
(2.37303e-05 -0.000154665 -8.66041e-22)
(0.000527351 0.000495925 8.40162e-22)
(0.000471704 0.000826529 4.97419e-24)
(0.000146493 0.000399372 9.41877e-22)
(0.000528301 0.000898867 2.18618e-22)
(0.000278637 0.000390212 -1.94206e-21)
(1.66176e-05 -0.000114238 1.71535e-21)
(0.00134049 9.46003e-05 2.65025e-22)
(0.000785628 0.00139178 -5.53024e-24)
(1.97446e-05 -0.000132607 0)
(0.000333894 0.000503629 -9.99903e-22)
(0.000998955 0.000409265 1.30648e-22)
(0.000601775 0.000809161 -1.38565e-21)
(0.00121941 0.000376837 -5.3942e-22)
(0.000416548 0.00125891 8.41253e-22)
(0.000474166 0.000850969 -4.70945e-22)
(0.000547654 0.000947012 -1.58516e-23)