/*--------------------------------*- C++ -*----------------------------------*\
  =========                 |
  \\      /  F ield         | OpenFOAM: The Open Source CFD Toolbox
   \\    /   O peration     | Website:  https://openfoam.org
    \\  /    A nd           | Version:  8
     \\/     M anipulation  |
\*---------------------------------------------------------------------------*/
FoamFile
{
    version     2.0;
    format      ascii;
    class       volVectorField;
    location    "8";
    object      U;
}
// * * * * * * * * * * * * * * * * * * * * * * * * * * * * * * * * * * * * * //

dimensions      [0 1 -1 0 0 0 0];

internalField   nonuniform List<vector> 
4320
(
(0.000618779 0.00167344 3.0836e-22)
(0.000439968 0.00114225 1.01431e-22)
(0.000425068 0.00102795 0)
(3.40832e-05 7.87907e-07 5.81809e-22)
(0.000662141 -2.01479e-05 0)
(0.000658716 0.00179543 0)
(0.000696824 0.00188778 7.97239e-23)
(0.000679378 0.0018632 4.84288e-24)
(0.000152144 0.00156779 -7.94248e-22)
(0.000585029 0.00165389 -1.87366e-22)
(0.000656915 0.00177737 -2.01002e-22)
(0.000647069 0.00176087 -9.33072e-25)
(0.000649921 0.0017698 1.97352e-22)
(0.000585045 0.00163039 8.71741e-22)
(0.000851126 0.000801749 1.34561e-21)
(0.000652872 0.00175474 4.46783e-22)
(0.000326412 0.000954985 -2.03136e-21)
(0.00024527 0.000669035 -2.90771e-21)
(0.000657308 0.00177341 -3.4201e-24)
(0.000655063 0.00176066 0)
(0.000657112 0.00176481 6.04872e-22)
(0.00066286 0.00186594 4.85345e-22)
(0.000423973 0.000521914 3.17546e-21)
(0.00062223 0.00175191 -2.27871e-22)
(0.000599223 0.00167207 6.8867e-22)
(0.000711013 0.00193226 1.49013e-21)
(0.000640878 0.00171534 1.67258e-21)
(0.000664057 0.00172117 -1.61918e-22)
(0.00062165 0.0017456 -4.91598e-22)
(0.000485418 2.98642e-05 1.14813e-21)
(0.000600735 0.00171208 -4.07437e-22)
(0.000672665 0.00186692 0)
(0.000664886 0.00186676 4.78334e-24)
(0.000568328 0.00165113 -1.96004e-21)
(0.000392403 0.00110677 -2.2257e-23)
(0.000658263 0.00192568 1.70054e-23)
(0.000658053 0.0017662 -5.65895e-22)
(0.000664941 0.00177392 -1.27829e-22)
(0.0010997 6.42049e-06 1.41525e-22)
(0.000375225 0.00104422 8.66851e-22)
(0.000629028 0.00174167 -1.78113e-22)
(0.000636147 0.0017206 3.74412e-22)
(0.000460067 0.000164141 0)
(0.000599439 0.00149446 1.60172e-21)
(8.06664e-05 0.000736146 6.20523e-22)
(0.000666259 0.00185763 3.72302e-22)
(0.000411973 0.00188275 1.94455e-23)
(0.000614108 0.00169764 -9.65559e-23)
(7.30085e-05 0.000881059 -2.72773e-22)
(0.000650082 0.00174478 0)
(0.000646901 0.00174867 0)
(0.000670075 0.00185648 2.54096e-22)
(0.000751246 -8.38746e-05 5.58803e-22)
(0.000118926 0.000962975 0)
(0.000102097 0.00162327 -1.4351e-21)
(0.000639149 0.00171377 -2.28855e-22)
(0.000581254 0.00165223 2.07113e-22)
(0.000593042 0.00169349 -2.14979e-21)
(0.000341131 0.00171246 -1.24306e-23)
(0.000260215 6.77505e-05 3.997e-22)
(0.000656089 0.00176118 -2.56842e-22)
(0.000608862 0.00176648 -2.72007e-22)
(0.000613419 0.00173669 1.61068e-22)
(0.000651845 0.00175081 -3.93272e-22)
(0.000912989 -0.000425549 1.09276e-22)
(0.000620841 0.00176981 0)
(0.000435788 0.000155919 3.94921e-21)
(0.000601808 0.00166421 6.10043e-22)
(0.000481994 0.00148462 2.43676e-22)
(0.000616556 0.00186668 -7.90705e-23)
(0.000449126 0.00106068 -1.60189e-24)
(0.000684036 0.00187514 1.37029e-21)
(0.000617973 0.00157821 5.9524e-22)
(0.000636553 0.00156878 5.36454e-23)
(0.000646175 0.00173716 0)
(0.000663357 0.00167331 -2.43092e-22)
(0.000435822 0.00109399 -6.07465e-23)
(0.000401141 0.000889607 -1.57754e-21)
(9.92322e-05 0.000236631 8.36351e-24)
(0.000814206 -0.000103407 0)
(0.000636104 0.00175072 -1.04662e-22)
(0.000369585 0.0010394 1.3012e-21)
(0.00037374 0.00105653 -6.75586e-22)
(0.000652667 0.00177272 -5.84007e-22)
(9.12935e-05 0.000212839 -2.14077e-21)
(0.000381832 0.0010201 2.71803e-23)
(9.54368e-05 0.000172736 -2.07954e-21)
(0.000631264 0.00165801 6.90654e-22)
(0.00104774 4.0591e-05 0)
(0.00063584 0.00187687 1.2555e-21)
(0.000895643 -0.000200313 -1.83361e-22)
(0.0006967 0.00187359 0)
(0.00126924 0.000201688 3.39888e-21)
(0.000193513 -1.39252e-06 -1.983e-21)
(0.000601435 0.00167514 -1.53608e-22)
(0.000610218 0.00171263 2.99846e-24)
(0.000362723 0.00103361 5.70746e-24)
(0.00065421 0.00175645 1.36554e-22)
(0.000661405 0.00177569 3.87942e-24)
(0.000989858 0.000802236 -1.02067e-21)
(7.71995e-05 0.00017163 0)
(0.000641248 0.00172717 0)
(0.000647111 0.00187956 3.18719e-22)
(0.000404444 0.00109759 -1.24261e-21)
(0.000482605 0.00182616 -3.15578e-24)
(0.000342835 0.00101312 1.71404e-21)
(0.000368083 0.0010328 7.50043e-22)
(0.000485872 -0.000100731 1.02152e-25)
(3.26188e-05 0.000718445 8.67968e-22)
(0.000356565 0.00104078 5.40036e-24)
(0.000986574 -7.01874e-05 0)
(0.000681185 0.0018783 2.6134e-22)
(0.000587792 0.00173718 -1.49355e-21)
(0.00068585 0.00187211 0)
(0.000595792 0.00157936 -7.2339e-22)
(0.000657571 0.00185434 -6.8797e-23)
(0.000203571 0.000883071 -6.32316e-22)
(0.000656285 0.00108984 1.62662e-21)
(3.35827e-05 7.64635e-05 2.3165e-21)
(0.000542689 0.00178844 -8.80593e-24)
(0.000695399 0.00196924 -1.02725e-21)
(0.000385401 0.00103363 0)
(0.000643852 0.00186048 8.39674e-23)
(0.000592046 0.000841341 0)
(0.000679107 0.00186885 3.72226e-22)
(0.000668288 0.0018866 -1.07667e-21)
(0.000740864 0.00205532 -1.0095e-22)
(0.000640343 0.00172049 4.01153e-22)
(0.000647416 0.0017049 -6.85244e-22)
(0.000648237 0.00171479 4.65404e-22)
(0.000563649 0.00172245 -2.66992e-24)
(0.000656547 0.00186679 2.08017e-21)
(0.000399416 0.00109352 9.71562e-24)
(0.000668281 0.00189163 4.08902e-22)
(0.000101836 0.000678 -6.14796e-22)
(0.000211313 4.98272e-05 -6.27752e-22)
(0.000325434 0.0010203 3.86164e-22)
(0.000192738 2.26662e-05 -3.75663e-22)
(0.000615678 0.00163138 0)
(0.000524606 2.2085e-05 -2.81358e-21)
(0.000352238 0.000929221 -3.62261e-22)
(0.000659753 0.00183893 1.68892e-22)
(0.000376024 0.00182498 1.4146e-23)
(0.000320104 0.00171802 -9.99753e-24)
(0.000110101 0.000615111 0)
(0.000534246 0.00172337 -8.99493e-22)
(0.000601812 0.00167204 0)
(1.24192e-05 -9.71149e-06 4.51789e-22)
(0.000565536 0.00170119 0)
(0.000441049 0.00205952 -1.17444e-23)
(0.00065183 0.00174738 -2.43277e-22)
(0.000550195 0.00199253 1.03534e-22)
(0.000625572 0.000744346 1.33512e-21)
(0.000602174 0.000790251 0)
(0.000668187 0.0018599 0)
(0.000736517 0.00204501 -1.80404e-23)
(0.00091846 0.000412586 -4.7416e-21)
(8.80151e-05 0.000967327 6.76189e-22)
(0.000106014 0.000260407 0)
(0.000610597 0.00175684 -1.44412e-22)
(6.4247e-05 0.00013737 0)
(0.000362336 0.00105718 1.85513e-21)
(0.000600021 0.00168495 6.02135e-23)
(0.000633956 0.00185726 -9.99829e-23)
(0.00070265 0.00187504 9.05822e-22)
(0.000623441 0.00172569 -3.5226e-22)
(0.000705159 0.0019246 1.11324e-21)
(0.000244001 0.000882082 1.46194e-21)
(0.00166001 0.00141848 0)
(0.000562892 0.00170473 2.98174e-21)
(0.000600196 0.00169115 0)
(0.000670704 0.0018434 0)
(0.000353019 0.00109724 -8.8847e-23)
(0.0006878 0.00206443 1.98553e-23)
(0.000534056 -6.97425e-05 -2.04975e-21)
(0.000397488 0.000737688 -7.93615e-22)
(0.000392675 0.000542724 1.41423e-21)
(0.000678396 0.00196112 4.38628e-21)
(0.000665693 0.00200049 1.44521e-21)
(0.000427479 0.00110071 -3.48277e-22)
(0.000778227 0.000411157 0)
(0.000593931 0.00187454 -1.19428e-21)
(0.000880886 0.000319095 1.2844e-21)
(0.000992488 5.83289e-05 -6.63315e-22)
(0.0011583 0.000636635 -4.21073e-21)
(2.17379e-05 0.00115573 1.05218e-22)
(5.23643e-05 0.000106635 -1.22782e-22)
(0.000619101 0.00210676 1.00663e-22)
(0.000538908 0.00160141 2.904e-22)
(0.000432368 0.000558404 -3.08182e-21)
(0.000616764 0.00170127 -1.59951e-22)
(0.000646473 0.00169946 -2.37217e-22)
(0.00102957 6.00513e-05 1.91893e-21)
(0.000697027 0.00191678 9.86056e-24)
(0.000984452 -3.9838e-05 -1.09639e-21)
(0.000644691 0.00171584 7.23628e-22)
(0.000682498 0.00190896 -6.56971e-22)
(0.000668802 0.00195702 2.692e-23)
(0.000669135 0.00186136 3.53471e-22)
(0.000648601 0.00173989 -3.523e-22)
(0.000896457 0.00034944 -1.56891e-21)
(0.000598328 0.00167421 3.20488e-22)
(0.000618923 0.00168396 0)
(0.000628437 0.00171193 4.33816e-22)
(0.00094304 0.00194021 -1.8269e-21)
(0.000439036 0.00136653 0)
(0.000682614 0.00195026 0)
(7.04644e-05 0.000153652 -1.6332e-23)
(0.000566683 0.0018263 0)
(0.00100281 1.59338e-05 0)
(0.000685821 0.00192373 1.86233e-22)
(0.000238834 6.57328e-05 1.18625e-21)
(0.00038556 0.00067472 -1.7943e-21)
(5.88243e-05 0.000122447 0)
(5.92544e-06 1.76981e-05 2.97277e-22)
(4.04919e-05 8.50071e-05 4.11797e-21)
(8.23433e-06 5.70309e-06 2.76699e-22)
(4.51047e-05 9.47268e-05 -1.94685e-21)
(0.000972308 6.9606e-05 -2.3365e-21)
(0.000630813 0.000700021 -3.95674e-21)
(0.000578073 -0.000216184 -1.71139e-21)
(0.000605738 0.00170052 -3.46844e-22)
(0.000215926 2.92189e-05 -2.34137e-22)
(0.000730209 0.00188462 -1.88747e-23)
(0.000701526 0.00192866 6.87107e-22)
(5.69793e-05 0.000550819 0)
(0.000547637 0.000866823 0)
(0.000835716 0.000341597 -7.19265e-22)
(0.000754516 0.000433063 1.63879e-21)
(0.000996673 2.55478e-05 -1.45495e-25)
(0.000620573 0.00201336 1.76554e-22)
(0.00104111 0.000672363 1.67167e-21)
(0.000377045 0.00105027 -6.08219e-22)
(0.000615169 0.00168277 -1.29972e-22)
(0.000616863 0.00175483 0)
(0.000281462 -0.000123833 -1.29971e-24)
(0.000662973 0.00190849 6.36929e-22)
(0.000638943 0.00165324 0)
(0.000636913 0.00179965 -9.58424e-23)
(0.00067343 0.00185631 0)
(0.00118373 0.000243472 -2.05166e-21)
(0.00112684 0.000764056 -3.21473e-21)
(0.000837157 0.00179802 -1.91455e-21)
(0.0006866 0.00186219 -1.49132e-22)
(0.000679842 0.0018523 2.08175e-22)
(0.000393697 0.00198254 0)
(0.000359852 0.000392251 -2.2208e-22)
(0.000494854 0.000100725 1.70488e-21)
(0.000682126 0.00183286 0)
(0.000373955 0.00100851 -3.13661e-22)
(0.000655659 0.00180497 1.45574e-21)
(0.000514023 0.0015258 -3.44238e-23)
(0.000671132 0.00191229 -1.71602e-23)
(0.000740045 0.0020312 -1.97573e-21)
(0.000751232 0.00203255 0)
(0.000630874 0.00148638 9.28182e-22)
(7.71409e-06 3.29772e-05 8.07017e-24)
(0.000618484 0.00172744 -8.21901e-23)
(0.000353091 0.00100071 0)
(0.000597538 0.00174596 8.35577e-23)
(0.000700795 0.00192423 5.22111e-22)
(0.00119754 0.000549937 2.89622e-21)
(0.000728262 0.00176337 -5.75701e-22)
(0.000704041 0.00193049 7.26861e-22)
(0.000435662 0.000302984 3.51724e-21)
(0.000644307 0.00173167 0)
(0.000908625 -0.000152275 -1.3506e-22)
(0.000360782 0.00105027 -1.15061e-22)
(0.000776231 0.00101376 -2.22417e-21)
(0.000472124 4.00055e-05 -1.63167e-21)
(0.000634351 0.00169218 -5.10339e-22)
(9.29837e-06 5.19549e-05 0)
(0.000622476 0.00173165 0)
(0.00116928 0.00170549 0)
(0.000971874 -0.000118075 0)
(0.000650191 0.00175948 -1.34442e-21)
(0.000311046 -0.000141242 -5.17836e-22)
(0.000356634 0.000973867 -4.92146e-22)
(5.04046e-05 -4.16052e-07 2.29194e-21)
(1.09557e-05 6.7906e-05 -2.97857e-22)
(0.000489738 9.33364e-05 8.10791e-25)
(0.00060518 0.00190976 3.4123e-22)
(0.000632042 0.00182856 -4.14849e-22)
(0.000700707 0.000202696 -3.58354e-21)
(0.000642502 0.00168545 -2.54675e-22)
(0.000581558 0.00175802 4.06655e-22)
(0.000637785 0.00169545 -7.25136e-22)
(0.000168305 -3.7728e-05 -1.95135e-21)
(0.000729399 0.00206405 -1.84992e-22)
(0.000719946 0.000897669 -9.21656e-22)
(0.000649774 0.00172355 5.31827e-22)
(0.000683059 0.0018804 -8.72034e-22)
(6.34815e-06 2.24394e-05 0)
(0.000702361 0.00192586 1.03917e-22)
(0.000984921 0.000354258 -3.5766e-21)
(0.000671056 0.00194892 0)
(0.000637105 0.00178384 -2.57223e-21)
(0.000705596 0.00203933 1.48967e-23)
(0.000477372 0.00198582 1.70481e-23)
(0.00062468 0.00191453 8.52013e-22)
(8.08801e-06 3.87841e-05 -2.57854e-22)
(0.000618427 0.00165696 -1.46457e-22)
(0.000673975 0.00186273 -7.27405e-22)
(0.000662406 0.00181985 -2.66743e-22)
(0.000703873 0.00181559 7.0694e-22)
(0.00134598 0.000480444 1.53222e-21)
(0.000678882 0.00185713 -1.00503e-21)
(0.000691433 0.00191642 0)
(0.000702318 0.00193722 -2.24909e-23)
(0.000668993 0.00186213 -1.74244e-22)
(0.000662949 0.00184055 1.4731e-22)
(0.000648412 0.00174812 9.69473e-24)
(0.000425374 0.000984677 -3.09973e-21)
(0.0004529 0.000589516 -1.31403e-21)
(0.000628479 0.00167846 5.41767e-22)
(0.000671746 0.00193021 -4.21971e-23)
(0.000337143 0.000124214 4.13869e-21)
(0.000652792 0.00174259 0)
(0.000187503 0.000937562 -1.60721e-22)
(0.000610125 0.00167058 1.39473e-22)
(0.000697092 0.00196882 0)
(8.81058e-06 4.53288e-05 -9.08333e-24)
(0.000260878 -0.000217514 0)
(1.02167e-05 6.02848e-05 2.18283e-22)
(0.00178948 0.0017533 -8.09886e-22)
(2.00173e-05 7.99669e-05 7.49307e-22)
(0.000638945 0.00190568 0)
(3.88757e-05 0.000742744 0)
(0.0013143 0.000165657 -3.53129e-22)
(0.000669539 0.00196779 -7.86955e-23)
(0.000641691 0.00171221 -5.71168e-23)
(0.000634692 0.00187489 6.76237e-22)
(0.000632365 0.00188523 5.62059e-22)
(6.86406e-06 2.74771e-05 2.6029e-22)
(0.00115301 0.000531564 3.92771e-21)
(0.000520887 0.00203594 9.81026e-22)
(0.000850377 0.000940818 -1.23361e-21)
(0.000197915 -5.87768e-05 -2.07571e-21)
(0.000644994 0.00175245 -6.73753e-22)
(4.95354e-05 0.000332025 -1.59812e-21)
(0.000753449 0.00204738 0)
(0.000641421 0.00186378 -6.1981e-22)
(0.000649749 0.00173434 0)
(0.00077619 0.000925233 0)
(0.000360914 0.000938197 1.27398e-21)
(1.48777e-05 8.02371e-05 -1.239e-22)
(0.000224192 -0.000183928 3.88383e-21)
(0.00105964 0.000315691 1.07921e-21)
(0.00130336 0.000125448 8.78505e-22)
(0.000124718 0.000238673 -6.89134e-24)
(0.000712695 0.00193751 -5.25952e-22)
(0.000690596 0.00200456 -8.03199e-22)
(0.00019044 4.31699e-05 -3.82346e-22)
(0.000538942 0.00138666 1.55912e-21)
(0.000635278 0.00167152 -5.29237e-24)
(0.000417882 0.000759887 1.31434e-21)
(0.000678274 0.0018612 -8.14585e-22)
(0.000540852 0.00189309 3.30291e-24)
(0.00063703 0.00192756 2.59314e-21)
(0.000676453 0.00185529 4.57178e-22)
(0.000275099 0.000837322 0)
(0.000691761 0.00194935 5.61637e-22)
(0.000582313 0.00164697 -1.74306e-22)
(0.000678344 0.000897758 -1.50641e-21)
(0.000364401 0.00196127 -4.19205e-22)
(0.000679107 0.00185989 -1.82716e-22)
(5.599e-06 1.34275e-05 -5.39211e-22)
(0.000934585 2.80997e-05 0)
(0.000374498 -0.000268733 -6.45479e-22)
(0.000644341 0.00172727 -1.16009e-21)
(0.000643203 0.00171547 -1.10269e-22)
(0.000425238 0.000743314 -1.13521e-21)
(0.000673066 0.00186127 7.28524e-22)
(0.000338577 0.00065951 3.83111e-21)
(0.000513091 0.00170768 2.73327e-22)
(0.000171365 -0.00013201 -8.49936e-22)
(0.000565758 0.00171186 3.43641e-23)
(0.000621612 0.00166163 0)
(0.000229412 8.57952e-05 0)
(0.000659788 0.00185051 -6.52053e-22)
(5.33557e-06 8.88545e-06 1.35308e-22)
(0.000973588 0.00128587 -1.3062e-23)
(0.000981999 0.00046087 1.53193e-21)
(0.000589334 0.00191063 1.20612e-21)
(6.25897e-05 0.000604792 1.37855e-22)
(0.000597086 0.00189603 1.36758e-21)
(-2.59376e-06 7.56374e-05 1.31187e-21)
(0.000476793 -0.000158543 0)
(0.000685058 0.00191682 0)
(6.90828e-05 6.53217e-05 -1.38941e-21)
(0.000709867 0.002111 -1.95339e-22)
(0.00070863 0.000254847 -1.45637e-21)
(2.63993e-05 3.98125e-06 -2.54219e-22)
(0.000114776 2.16406e-06 1.23347e-21)
(0.000643879 0.00187322 3.20933e-21)
(0.0004265 -3.47962e-05 1.49486e-21)
(0.000627963 0.00176651 2.09308e-22)
(0.00118724 0.000676217 1.17129e-21)
(0.000641667 0.00185239 1.62672e-21)
(0.000650238 0.00174757 -9.74478e-24)
(0.00027353 0.00114455 -1.84156e-21)
(0.000429393 0.000932108 2.03026e-21)
(7.13183e-05 0.00086584 0)
(0.000668534 -0.000174087 2.59476e-21)
(6.22458e-05 5.10641e-05 -7.86184e-22)
(0.000274627 0.00137209 -1.5176e-21)
(0.000546829 0.00191057 -5.16243e-22)
(0.000652242 0.00173873 -6.89206e-22)
(0.000651701 0.00188848 5.80077e-22)
(0.000660069 0.00178683 -5.38624e-22)
(0.000503938 0.00174337 -3.38613e-23)
(0.000870504 0.000547681 0)
(0.000624405 0.00085522 2.47698e-21)
(0.000365513 -0.000152297 -8.86986e-22)
(0.000656904 0.00198467 -1.12912e-21)
(0.000103691 4.4857e-06 2.24589e-26)
(0.00064007 0.00166056 4.80423e-22)
(0.000965057 1.1893e-05 8.8585e-23)
(0.00083847 0.00116591 -1.52284e-23)
(0.00145214 0.000454558 0)
(0.000551528 0.00159746 -1.38083e-23)
(0.000324513 -9.49507e-05 5.98741e-22)
(0.00070813 0.00215468 -6.58541e-22)
(0.000145198 -0.000124056 2.47231e-21)
(0.000452216 0.0012619 0)
(0.00114371 0.000459286 -2.80723e-21)
(0.000604788 0.00167355 -1.01809e-21)
(0.000515991 0.000860478 -5.51505e-22)
(8.07529e-05 6.6063e-05 7.91046e-22)
(0.000972332 2.00494e-05 -4.81873e-22)
(0.000334495 0.000393769 -3.38772e-22)
(0.000675758 0.00186284 0)
(9.78686e-05 1.6275e-05 8.43732e-22)
(0.000300392 0.000459186 -1.16351e-21)
(0.000938244 0.000979509 2.98029e-22)
(9.72619e-05 6.64762e-05 -2.03917e-21)
(0.000681851 0.00205947 -4.61389e-21)
(0.000614673 0.00184442 2.92688e-23)
(0.00067792 0.00186476 6.24738e-22)
(0.00103959 2.80115e-05 0)
(0.000669865 0.00185936 0)
(2.72307e-05 -0.000101474 1.02862e-21)
(0.000664019 0.00052439 5.61885e-21)
(4.63028e-05 3.87836e-05 1.97113e-21)
(0.00076577 0.00200274 7.3463e-21)
(9.86845e-06 -3.35854e-05 1.68137e-23)
(0.000608693 0.00166601 -3.14101e-22)
(0.000789066 0.000300795 -4.50649e-21)
(0.000628189 0.00188175 0)
(0.00129072 0.000712364 2.02094e-21)
(0.000604267 0.0019629 2.83581e-22)
(0.00095571 0.00029804 1.42883e-21)
(7.74119e-05 2.74009e-06 1.18263e-21)
(0.000648123 0.00214188 6.362e-22)
(0.000323543 0.000857009 -1.41866e-21)
(3.9401e-05 6.94188e-05 -1.7259e-21)
(0.000649851 0.00194535 7.01292e-22)
(0.00089929 0.00101119 1.00409e-21)
(0.000964107 9.45909e-06 5.7854e-22)
(4.59333e-05 6.28435e-05 -4.23188e-22)
(0.000121595 -0.000109287 -2.44091e-22)
(0.000632422 0.000478511 -1.5869e-22)
(0.000243172 0.000795707 1.77082e-21)
(0.000660479 0.00199172 3.25098e-22)
(0.000246158 0.00114698 0)
(0.000742412 0.00205498 -1.88493e-21)
(0.000750896 0.00203459 0)
(0.00090836 0.00027658 -3.03347e-21)
(6.91431e-05 0.000795562 -7.30382e-22)
(4.02662e-05 6.76146e-05 2.25787e-21)
(0.000654098 0.00192849 6.8973e-25)
(0.00091479 0.000289071 6.37195e-24)
(0.000874517 0.000781566 0)
(0.000889156 0.000868102 -5.92703e-22)
(0.000640004 0.00175959 0)
(0.000693214 0.00192564 -1.7784e-22)
(0.000605902 0.0016516 0)
(0.00106542 0.000181142 -4.14693e-21)
(0.000893928 0.00145321 6.57537e-23)
(0.000313538 6.06238e-05 1.28339e-21)
(0.000649751 0.00173038 -6.22651e-22)
(4.87264e-05 3.16517e-05 0)
(0.000638443 0.00184514 -1.08637e-24)
(7.81821e-05 0.000135967 2.02707e-21)
(0.000961519 -5.39949e-05 4.74827e-22)
(0.000779304 0.000662489 -1.72918e-21)
(0.000645552 0.00186394 2.66359e-22)
(0.000640909 0.00198913 -1.48091e-22)
(0.000965241 1.52283e-05 1.97696e-22)
(0.000670124 0.00184782 6.05687e-22)
(0.000835878 0.000873006 1.75415e-21)
(3.48131e-05 3.68442e-06 -1.40093e-21)
(0.000684851 0.00218333 -3.99478e-22)
(0.000586541 0.000518179 0)
(-8.21817e-05 0.000627654 2.9961e-21)
(0.0010256 0.00026901 0)
(0.000654647 0.00176182 -6.93187e-22)
(0.00109007 0.000248866 0)
(0.000659283 -0.000206031 1.87722e-22)
(0.000319592 0.000755155 9.3519e-22)
(0.000398908 0.000954068 9.75454e-22)
(0.000841385 0.00143742 -1.71126e-21)
(0.000312538 0.000947011 -9.71716e-22)
(-3.27402e-05 0.000562374 6.81564e-22)
(0.000781256 0.000861968 1.50026e-21)
(0.000701337 0.00192915 -5.47907e-22)
(0.000631832 0.00167006 -2.67529e-22)
(0.000671937 0.00192804 8.102e-22)
(0.000734468 0.00199864 -3.5918e-21)
(0.000585968 0.000224449 4.34893e-24)
(0.000752253 0.00206062 0)
(0.00046769 0.000591355 0)
(0.000668215 0.00186039 0)
(0.00102976 0.00162296 4.98761e-21)
(0.000392737 0.00104225 3.26783e-24)
(0.000629561 0.00184249 2.36962e-22)
(0.000634574 0.00181398 -4.94644e-23)
(0.000652351 0.00192925 -1.48454e-22)
(0.00011487 -0.000699015 6.03604e-22)
(0.000506588 0.000505317 -1.98928e-21)
(0.000715362 0.00194449 -1.19544e-21)
(7.82043e-05 -9.11189e-06 -4.19549e-22)
(0.000630321 0.00178445 -1.22913e-21)
(3.52379e-05 -1.98415e-06 0)
(0.00043758 0.000858202 2.23486e-22)
(0.000633526 0.000313091 -3.47361e-21)
(0.00104271 0.000601698 1.24147e-21)
(0.000638593 0.0015109 -1.01309e-21)
(0.000609966 0.00176959 2.17223e-23)
(0.000540391 0.000814045 -2.16805e-21)
(0.000336679 0.00050583 -5.85898e-24)
(0.000797248 0.000717999 2.36472e-21)
(3.51095e-05 4.86111e-05 2.80292e-22)
(0.000632901 0.00186684 0)
(0.000395745 0.000464928 -4.58546e-24)
(0.000676419 0.0019807 -3.53086e-22)
(0.000940471 7.71011e-07 8.0508e-22)
(0.0006492 0.00181379 2.34305e-22)
(0.000835483 -0.000349756 -2.49497e-21)
(0.000711641 0.00195573 3.66164e-22)
(1.57235e-05 0.000121388 -2.76087e-22)
(0.000587822 0.00209663 -2.17381e-22)
(0.000383101 0.00121394 4.66505e-23)
(2.4231e-05 8.63632e-05 0)
(0.000297063 0.00058282 -7.4898e-22)
(0.000697459 0.00189486 5.28132e-23)
(0.000640718 0.00195994 -5.36553e-22)
(0.00042895 0.000643882 4.26492e-21)
(0.000571625 0.000263419 -2.49684e-21)
(0.000379492 0.000635279 -1.55611e-24)
(0.000336156 0.000622746 -3.03735e-21)
(2.89529e-05 5.17288e-05 5.21478e-22)
(0.000780446 0.00068083 2.74101e-21)
(9.97296e-05 -9.50814e-05 5.10429e-22)
(0.000659594 0.00180784 1.33809e-22)
(6.37963e-05 0.00100612 -4.98535e-22)
(0.000697423 0.00216726 0)
(0.000646814 0.00173255 -1.18511e-21)
(0.000393192 0.000508397 -2.65376e-21)
(0.000556473 0.000129428 1.08967e-21)
(0.000700545 0.00192477 -2.24219e-21)
(0.000702879 0.00193365 -3.02918e-22)
(6.70617e-05 0.000106728 1.2927e-22)
(0.000338149 0.000541191 -2.69007e-21)
(0.000691067 0.00222447 -3.11782e-22)
(0.000632148 0.00184901 -6.98612e-22)
(0.00062078 0.00116077 -2.95902e-21)
(0.000810745 0.000195437 2.08178e-21)
(7.4344e-05 -7.25584e-05 -1.60733e-23)
(0.000689714 0.00198258 0)
(0.00106999 0.000424362 0)
(0.000314625 2.25258e-05 2.15343e-21)
(0.000334843 0.000458472 5.04696e-21)
(0.000883322 0.000295464 -3.35023e-26)
(0.000299077 0.000427048 1.22372e-21)
(0.000646595 0.00190836 -7.39005e-22)
(1.814e-05 0.000149531 -1.06386e-21)
(0.000562201 0.000208886 -1.30955e-21)
(0.00109529 -2.78137e-05 0)
(0.00060706 0.000423932 0)
(0.000642893 0.00189791 7.10714e-22)
(0.000103588 0.000439417 2.47797e-24)
(-2.35039e-05 0.000624926 -5.79375e-22)
(0.000643868 0.00193256 1.55647e-21)
(3.54593e-05 2.55883e-05 1.66745e-21)
(0.000719027 0.000644564 -8.91032e-22)
(0.000598609 0.000674218 -2.40467e-22)
(0.000671082 0.00186777 5.22729e-22)
(0.000473815 -3.33616e-05 -6.64334e-25)
(0.00112116 0.000109416 -1.92674e-21)
(0.000685683 0.00196754 -7.6218e-22)
(0.000696868 0.00194255 -7.04954e-22)
(0.000357427 0.000420769 0)
(0.00036885 0.0010445 9.84431e-23)
(4.22541e-05 1.9071e-05 -1.22459e-22)
(0.000297622 0.000496327 1.17744e-21)
(0.000657685 0.00198695 1.60202e-22)
(0.000746711 0.00200561 -1.83951e-21)
(0.000646441 0.000586886 0)
(0.00065428 0.00195199 0)
(1.4157e-05 0.000129792 0)
(0.000931421 0.000466179 2.1926e-21)
(0.000677857 4.70138e-05 6.97913e-22)
(0.000662504 0.000471166 2.76252e-21)
(-2.85838e-06 0.000473654 0)
(0.000636593 0.000621338 3.54094e-22)
(0.000766432 0.000195326 1.81193e-21)
(0.000628867 0.000327703 6.08004e-21)
(8.50165e-05 7.79826e-05 0)
(0.000980907 -2.30362e-05 -7.7418e-23)
(0.000621667 0.00170605 2.16238e-22)
(0.000299224 0.000550346 1.30314e-21)
(0.00066439 0.00189009 -1.86829e-22)
(0.000658138 0.00176386 -2.24349e-24)
(0.000663747 0.00185543 2.45763e-23)
(0.000330316 0.000319357 3.33222e-22)
(0.000791529 1.72489e-05 0)
(2.0958e-05 3.1911e-05 -1.37058e-26)
(0.000946857 -4.34855e-05 1.43373e-21)
(1.56092e-05 9.38064e-06 -3.49867e-22)
(0.00047376 -0.000237227 -1.15773e-21)
(0.00119446 9.64104e-05 0)
(0.00108111 0.000222688 1.66295e-21)
(0.00053305 0.00159181 -1.04592e-24)
(4.43384e-05 2.80311e-05 0)
(0.000749487 0.00206897 3.19346e-22)
(0.000720998 0.000124098 5.81267e-22)
(0.000961504 9.30187e-06 -2.54146e-22)
(2.15122e-05 0.000185609 0)
(0.00108605 0.000489802 -3.74398e-21)
(0.00064326 0.00168641 -3.42032e-22)
(0.000748155 0.0020901 -2.54512e-21)
(0.000630773 0.00190974 -1.65921e-24)
(0.000652486 0.00166826 0)
(7.41543e-07 0.000104363 -8.12195e-23)
(0.000704919 0.000742707 -6.10386e-22)
(0.0009595 4.79445e-05 -2.4876e-21)
(0.000816864 0.000186643 -2.83173e-21)
(0.000387532 6.85905e-05 6.51369e-21)
(5.08725e-05 2.44436e-05 -8.03507e-22)
(0.000680754 0.00176225 -8.53838e-21)
(0.000278784 0.000726886 6.235e-25)
(0.00068936 0.0019574 -2.53548e-23)
(0.000661025 0.0020481 -4.03158e-23)
(0.000660513 0.00182023 0)
(0.000979212 2.58557e-05 0)
(6.43639e-05 -6.32005e-05 0)
(0.000680252 0.00187542 -1.79315e-22)
(0.000668568 0.00187772 -1.60641e-21)
(0.000624587 0.000381201 -3.72813e-21)
(0.000702947 0.00190559 0)
(0.00151701 0.000537629 3.38628e-22)
(1.89838e-05 3.55197e-05 -4.2157e-22)
(0.00134041 0.000653222 -8.64995e-23)
(0.000727611 0.00211916 1.10099e-21)
(7.54749e-05 -1.59923e-05 1.99546e-21)
(0.000661569 0.00182007 -1.18031e-21)
(0.000659265 0.00179847 -9.0818e-22)
(0.000993149 1.36791e-05 -7.5911e-23)
(0.000647465 0.00170446 3.24483e-22)
(0.000403177 4.34676e-05 -2.17197e-21)
(0.000670211 0.00186146 0)
(0.000656929 0.00188462 -2.90039e-22)
(3.62105e-05 1.66032e-05 0)
(0.000436175 1.03077e-05 7.08678e-25)
(0.000689063 0.00209412 9.04924e-24)
(0.000642994 -0.000378105 9.16409e-22)
(0.00035825 0.000998942 6.47054e-24)
(0.00106898 5.75657e-05 1.22154e-22)
(0.000154111 -4.80367e-05 2.14461e-21)
(0.000339279 -1.11465e-05 -1.2885e-21)
(0.000987755 1.06033e-05 1.43534e-21)
(0.000640928 0.000591979 4.41662e-22)
(0.000720843 0.000160625 2.20229e-21)
(0.00063783 0.00174608 -8.12201e-22)
(0.00013751 0.000170986 -1.16351e-21)
(0.000763435 -0.000216628 5.40713e-22)
(2.55418e-05 4.03106e-05 1.7154e-21)
(0.000753084 0.00208043 -2.10104e-21)
(0.000311297 0.000357427 0)
(0.000759434 0.00094447 2.48972e-21)
(0.000698631 0.00214817 0)
(0.00069508 0.00195408 0)
(0.000932803 3.46097e-05 0)
(0.000659092 0.000394417 -2.17642e-24)
(0.000316713 -5.66156e-05 2.84598e-26)
(0.000310198 -0.000211572 -1.55991e-21)
(0.00055985 0.000291244 -5.29631e-21)
(0.000305402 -1.87462e-05 1.22381e-21)
(1.9351e-05 0.000165976 1.06935e-21)
(0.000703383 0.00212708 0)
(0.000308543 -0.000255194 5.41525e-21)
(0.000147201 -0.000154078 1.09093e-21)
(0.000712208 0.00194929 -1.67307e-22)
(0.000387393 0.000962361 0)
(6.04879e-05 8.84578e-05 -1.59192e-21)
(0.000308894 -0.000105471 1.96625e-21)
(0.000353916 8.49336e-05 -3.74729e-21)
(0.000958582 3.27135e-05 3.35853e-21)
(0.000944804 0.000341578 2.99979e-21)
(0.000670578 0.00194981 -5.76137e-22)
(0.00092 -8.11462e-05 0)
(0.00057506 -0.000178261 1.31829e-21)
(0.000580965 -0.000119261 3.45503e-21)
(0.000572255 -6.70005e-05 -4.36893e-21)
(0.000541604 5.25572e-05 1.94252e-21)
(0.00057782 -3.899e-06 -1.06533e-21)
(-3.03021e-05 -0.000396033 7.53435e-22)
(3.97272e-05 2.55792e-05 2.38301e-22)
(0.000780986 0.000882074 -4.08316e-21)
(0.00089426 -3.82489e-05 0)
(0.000654388 0.00181544 -1.56387e-22)
(0.000422152 0.000114233 -8.38597e-22)
(0.000252194 0.00129133 -1.60529e-21)
(0.000707141 0.0019348 -8.7288e-22)
(0.000143609 -6.19532e-05 1.8173e-23)
(0.000696451 0.00214369 -7.66109e-22)
(0.000710128 -3.00921e-06 6.13947e-22)
(0.000352869 0.000285828 3.16718e-22)
(0.000574425 9.89372e-05 0)
(0.000675183 0.00187749 0)
(0.000717195 0.000364044 3.35443e-21)
(0.000691954 0.00191318 -5.78942e-22)
(0.000220253 -9.30693e-05 -1.86701e-21)
(0.00065992 0.00182424 6.11968e-22)
(0.00096798 -3.50043e-07 3.02111e-24)
(8.02251e-06 0.000435459 0)
(0.000674242 0.00187132 1.64894e-22)
(0.000653858 -0.000111089 2.19705e-21)
(0.000288878 0.000388683 -2.50463e-21)
(1.28061e-05 1.42804e-06 1.01474e-21)
(0.000965417 2.93082e-05 -3.86816e-21)
(0.000262641 -8.74744e-05 4.67239e-21)
(0.000983642 -2.49298e-05 -2.01847e-21)
(0.000839935 -0.000160286 1.26183e-21)
(0.000747389 0.0021137 -1.34713e-21)
(0.00097986 1.38955e-05 2.62111e-22)
(0.000106463 -0.000119333 -1.51323e-21)
(0.000656775 0.00184775 5.45138e-24)
(0.00046016 0.00108623 -5.77241e-22)
(0.000971599 6.48019e-06 -9.81125e-22)
(0.000939898 -2.80315e-06 3.40375e-21)
(0.00109487 0.000131873 0)
(0.0006804 0.00185088 -4.73919e-22)
(0.00035545 3.04272e-06 1.27448e-21)
(1.94376e-05 2.75218e-05 1.73706e-21)
(0.000530536 0.000911361 -3.12847e-22)
(0.000375418 0.00158105 -1.30762e-21)
(9.36425e-06 1.24359e-06 -1.01118e-21)
(2.8542e-05 0.000277109 -7.14093e-23)
(0.000710531 0.00188836 0)
(0.000650202 0.00173531 7.15457e-23)
(0.000690102 0.000198059 -1.02482e-21)
(0.0009801 -1.67183e-05 -4.6757e-21)
(2.99965e-05 0.000305547 0)
(0.000671486 0.00186806 4.38324e-23)
(0.000674325 0.00187342 -7.17224e-22)
(0.00074767 0.00210173 1.41111e-23)
(0.000751189 0.00207999 0)
(0.000599707 0.000566556 -1.68468e-21)
(0.000164104 -0.000196347 0)
(0.000637092 -4.70071e-05 1.15896e-21)
(0.00075744 0.00207811 3.33221e-21)
(0.00068171 0.00186968 4.1073e-21)
(0.00064962 0.00186973 0)
(0.000687727 0.00187044 -1.49778e-24)
(0.000967367 5.73079e-06 0)
(0.000279539 4.72343e-05 1.34052e-21)
(0.000360324 4.70559e-05 -2.31361e-21)
(0.000428404 -0.000160374 0)
(0.000633981 0.0017515 1.80428e-22)
(-1.89622e-06 -0.00025147 1.90229e-21)
(0.000735003 0.0020978 1.3849e-21)
(0.000732307 0.00215415 -8.61066e-22)
(0.000523082 0.00170898 -3.95792e-22)
(0.000984203 4.91913e-05 0)
(0.000890274 2.36039e-05 1.24986e-22)
(0.000214218 -7.72415e-05 -3.2645e-22)
(0.000690601 0.00204369 1.03699e-21)
(1.86466e-05 3.30528e-07 0)
(0.000743258 0.00208986 0)
(0.000668479 0.0019463 8.11635e-22)
(0.000832718 -7.28311e-05 0)
(0.000134129 -3.60789e-05 -6.52401e-23)
(0.000961265 8.13255e-07 -4.71727e-22)
(1.64715e-05 0.000250639 6.22715e-22)
(0.000126113 -0.000144592 7.73796e-22)
(0.000824828 7.4313e-05 1.15097e-21)
(0.00121747 0.00139479 -3.18282e-21)
(2.29918e-05 4.06842e-05 -1.81918e-21)
(0.000714886 0.00195263 2.45266e-21)
(0.000698097 0.00194907 -1.92043e-21)
(0.00100548 2.90719e-06 0)
(0.000849171 1.19683e-05 -9.65868e-24)
(0.000692032 0.00195138 1.32073e-21)
(0.000124032 -5.15473e-05 -1.0469e-21)
(0.000686575 0.00186872 -9.51428e-23)
(0.000770506 0.00208226 6.68583e-22)
(0.000721429 0.00202622 -2.14124e-21)
(2.97937e-05 5.60878e-05 -5.46072e-22)
(7.66467e-05 0.000256628 6.75181e-23)
(5.05745e-05 8.82727e-06 1.14033e-21)
(1.51888e-05 2.59702e-05 4.56438e-22)
(0.000657921 0.00186141 0)
(0.000161164 -6.35027e-05 -6.88513e-26)
(0.000746707 -1.37053e-05 0)
(2.09799e-05 4.28192e-05 2.25611e-22)
(0.000641839 0.0017395 7.16201e-22)
(9.66059e-05 -4.2307e-05 0)
(0.000294179 0.000689812 -1.42856e-21)
(0.000955926 -1.66148e-05 0)
(1.55804e-05 -1.8108e-05 5.22443e-22)
(0.000730776 -0.000195142 0)
(0.000935718 4.76135e-05 0)
(0.000735626 3.8566e-05 6.23387e-22)
(3.08578e-05 -0.000254769 0)