/*--------------------------------*- C++ -*----------------------------------*\
  =========                 |
  \\      /  F ield         | OpenFOAM: The Open Source CFD Toolbox
   \\    /   O peration     | Website:  https://openfoam.org
    \\  /    A nd           | Version:  7
     \\/     M anipulation  |
\*---------------------------------------------------------------------------*/
FoamFile
{
    version     2.0;
    format      ascii;
    class       surfaceScalarField;
    location    "11";
    object      phi;
}
// * * * * * * * * * * * * * * * * * * * * * * * * * * * * * * * * * * * * * //

dimensions      [0 3 -1 0 0 0 0];

internalField   nonuniform List<scalar> 
1111
(
5.88485e-09
1.34819e-08
-1.51398e-08
-4.22694e-09
6.00023e-09
-1.13388e-08
1.12234e-08
-1.4225e-08
4.19468e-09
1.00368e-08
-6.41492e-12
1.21732e-10
-1.42401e-10
-1.38457e-08
1.38663e-08
-1.38313e-08
1.36591e-08
2.93947e-10
-1.04487e-09
1.48155e-08
1.65793e-09
-3.65124e-09
9.09131e-09
-1.14039e-08
5.9638e-09
-6.33239e-09
-1.23061e-08
1.23147e-08
6.32376e-09
-5.10905e-08
-2.53051e-08
7.63955e-08
-8.05542e-09
7.37981e-09
6.67584e-09
3.79839e-09
3.98825e-10
-3.88743e-09
-3.09791e-10
1.54427e-08
-1.58579e-08
-2.21258e-08
2.2541e-08
-9.70442e-09
-8.59468e-09
9.173e-09
9.1261e-09
-3.40233e-08
1.69572e-08
-3.20493e-08
4.91154e-08
9.68082e-09
-1.80909e-09
-1.42041e-08
-4.25966e-09
3.93786e-09
-3.06793e-09
3.38973e-09
-3.7231e-09
1.29104e-08
2.02627e-09
-1.12135e-08
8.897e-09
-2.07992e-09
-1.49645e-08
8.14744e-09
3.89507e-08
-3.25834e-08
-6.36723e-09
-1.90133e-08
-4.68333e-10
1.80284e-08
1.45321e-09
-1.29718e-10
3.73325e-09
-1.81402e-08
1.45367e-08
-6.5009e-08
-2.83341e-09
6.78424e-08
2.36608e-10
-1.42764e-09
-4.36751e-10
1.62779e-09
-9.26626e-10
-1.30344e-08
-2.86007e-10
-3.86504e-10
3.78984e-10
2.93527e-10
-1.00407e-08
-8.08417e-09
1.22356e-08
5.88933e-09
9.56109e-10
-2.27718e-09
-8.47252e-09
9.79359e-09
7.57407e-09
1.17066e-09
-8.28868e-09
-4.56057e-10
-2.5289e-09
-7.78924e-09
1.04248e-08
-1.06685e-10
1.10218e-08
9.21875e-11
-2.21695e-09
-1.15749e-09
1.11865e-09
1.67499e-10
-1.28659e-10
-4.85602e-10
1.02498e-09
6.69194e-10
-1.20858e-09
-7.38315e-10
-5.2199e-11
7.83395e-10
7.11903e-12
4.66781e-11
-1.20786e-09
8.09177e-11
1.08026e-09
-8.86453e-12
-1.10195e-09
5.62676e-10
-1.78232e-08
-1.75272e-09
-6.48767e-10
8.21973e-11
-1.71745e-10
1.31439e-08
-1.31835e-08
3.77278e-09
-5.18465e-10
7.26551e-10
5.11716e-10
-7.19803e-10
-1.08927e-09
-2.70902e-09
2.11248e-09
1.68581e-09
-1.75689e-09
8.03649e-09
-9.93084e-09
-5.05218e-10
-2.50321e-10
1.06772e-10
-8.83162e-09
9.92492e-09
-9.14872e-09
1.15486e-08
-1.63909e-08
5.14066e-09
-2.98363e-10
1.32803e-10
-2.68096e-10
-3.69925e-10
3.43698e-10
1.01549e-09
-2.40534e-10
-6.03858e-08
7.4731e-08
-1.43452e-08
1.25592e-09
-4.61053e-10
-1.47044e-09
6.75571e-10
6.55905e-10
1.03339e-08
-1.34593e-08
2.46949e-09
-6.10739e-11
6.28785e-09
-7.47895e-09
1.25217e-09
-6.28532e-09
5.84996e-09
5.3672e-09
-4.93185e-09
-6.63731e-09
-2.56237e-09
2.34841e-09
6.85126e-09
6.14288e-10
-8.84814e-08
8.7641e-08
2.26142e-10
6.88813e-10
-9.00888e-08
8.97647e-08
-3.64711e-10
8.31984e-08
-1.58042e-09
1.02514e-10
-8.17205e-08
-3.34002e-09
1.36758e-10
9.36201e-10
1.0027e-09
-6.82979e-10
4.18629e-09
-1.98707e-09
3.24996e-09
-5.44918e-09
-1.24401e-09
1.12665e-09
-1.50723e-08
6.61293e-09
8.84847e-09
1.12058e-09
-9.56905e-09
-3.99988e-10
-5.88288e-09
1.22879e-08
1.52225e-09
-7.92726e-09
1.39663e-08
-3.66048e-09
3.09481e-09
-1.34007e-08
1.52833e-08
1.50877e-09
-1.36331e-09
9.08531e-11
-2.02787e-08
-7.89268e-09
2.80806e-08
1.32476e-08
-8.11284e-09
-2.22959e-09
7.50237e-09
-1.11557e-08
-2.00097e-10
4.02961e-10
-1.6733e-09
-3.75332e-08
-2.28526e-08
7.83363e-09
-2.58231e-10
3.97323e-09
-6.49535e-09
1.03912e-08
6.02906e-09
-7.82304e-10
4.6026e-10
6.35263e-10
-3.13218e-10
5.99284e-09
-4.52003e-09
3.49118e-09
-4.964e-09
-7.79853e-10
-7.83437e-10
3.55432e-10
9.33134e-10
-9.04416e-10
-3.12948e-10
-1.35318e-09
1.18052e-09
-1.6875e-08
2.24246e-09
1.4611e-09
1.31714e-08
3.59761e-10
-9.17401e-10
-2.24665e-10
-3.24172e-09
-1.45825e-08
9.49285e-10
5.63315e-09
1.14562e-08
-5.23859e-09
-1.18507e-08
1.6235e-08
6.04551e-10
-1.5725e-08
-1.11456e-09
-8.70001e-10
6.28632e-10
7.01629e-10
-1.26954e-09
7.00769e-10
5.68768e-10
-6.87258e-09
-3.93984e-09
4.52711e-09
-5.41237e-10
7.60104e-10
-2.18867e-10
1.33194e-09
-1.46144e-08
-4.89876e-10
8.30156e-09
-9.56857e-09
-1.2766e-09
-1.58249e-09
1.23317e-08
4.39058e-09
-4.1928e-09
-1.25295e-08
4.14759e-10
6.84135e-09
-7.50337e-09
6.51199e-09
-2.12049e-09
-8.13431e-09
7.52612e-09
2.72868e-09
-1.77126e-09
5.66243e-10
-1.33775e-08
-3.44068e-10
-1.97169e-10
-7.48504e-10
1.46958e-09
-7.35839e-09
8.70016e-10
1.69601e-08
-1.59509e-09
-1.61193e-08
1.72428e-08
-1.12349e-09
1.16009e-08
1.3734e-08
-1.5288e-08
-1.00469e-08
-1.05518e-09
1.71896e-09
-6.63781e-10
2.02903e-09
-2.70067e-09
6.71644e-10
3.78995e-09
-5.73382e-09
1.94387e-09
2.309e-09
-1.95558e-09
-3.53421e-10
-1.30546e-08
1.17164e-10
1.29375e-08
3.10859e-09
-7.99589e-10
8.81008e-09
-1.47001e-08
6.27825e-09
-7.08783e-09
1.88896e-10
4.11023e-09
-5.00731e-10
-3.50742e-09
3.69631e-09
-8.54134e-09
9.98994e-09
-1.4486e-09
-1.10316e-09
3.99744e-09
1.29201e-09
1.65815e-08
-1.44805e-08
-1.4451e-09
-5.05361e-09
4.98993e-09
-1.9234e-09
-2.9508e-10
7.58523e-09
-7.44582e-09
-1.39411e-10
7.06889e-09
4.29115e-09
4.4654e-10
-1.54199e-08
1.01205e-08
1.69002e-08
5.67455e-09
8.23569e-09
8.1996e-09
-6.58171e-09
4.18946e-10
-1.34736e-08
1.7333e-09
-4.99053e-10
-1.21398e-08
4.11222e-09
-4.15906e-10
1.52493e-08
-1.46447e-08
-1.79451e-11
-1.26752e-09
-1.32909e-08
6.92316e-09
1.02813e-09
-7.65321e-11
-8.96777e-09
5.64574e-09
-3.24926e-08
-1.23996e-08
-2.14549e-09
1.25427e-09
1.34582e-08
1.09809e-08
-1.07033e-08
-1.37357e-08
1.7516e-08
-3.11734e-09
-1.43986e-08
1.88482e-09
3.7413e-09
-1.59451e-09
-1.04739e-09
-1.13258e-09
1.46941e-09
7.1056e-10
-3.46651e-10
4.88028e-10
4.93885e-10
6.58271e-08
-6.57119e-08
-1.15213e-10
6.58831e-08
-6.60966e-08
2.13481e-10
8.74089e-10
6.36409e-08
-6.50453e-08
1.40447e-09
6.26567e-08
9.84152e-10
-2.69509e-10
-6.6319e-08
1.2737e-09
-6.45248e-08
6.47435e-08
-2.18689e-10
1.53769e-09
-6.78567e-08
-6.42244e-08
-3.00331e-10
1.19492e-08
-1.34368e-09
2.01757e-09
-3.78556e-09
3.11167e-09
5.05246e-10
-1.38099e-09
1.2698e-09
-9.46093e-10
1.57965e-09
-1.878e-09
1.24444e-09
1.65151e-09
-1.8208e-09
5.72261e-10
-1.298e-10
-3.27608e-09
3.20672e-09
-2.50915e-09
2.57851e-09
-1.06821e-09
-2.98237e-09
2.7069e-09
-4.03653e-09
-5.41535e-09
7.06571e-10
-8.36443e-10
1.58529e-09
1.26417e-09
-6.61722e-09
7.96934e-09
2.93904e-09
2.18667e-08
-4.35072e-09
-8.79992e-10
3.09037e-10
1.27753e-09
-9.85079e-09
-2.76824e-08
5.51313e-09
-4.56173e-09
-3.0476e-09
2.0962e-09
1.45532e-10
-8.30589e-12
6.46168e-10
-2.96117e-09
3.61471e-09
8.49131e-09
1.00213e-09
-7.46713e-10
2.29996e-09
-2.62146e-09
2.4828e-09
1.43274e-08
1.28648e-08
-2.64655e-08
3.20575e-08
5.81575e-09
-2.19764e-08
-1.03049e-08
1.76578e-08
-1.72884e-08
1.06115e-08
-3.80234e-10
1.33044e-10
-1.57361e-09
-2.05245e-09
-1.43578e-09
3.04814e-09
1.43347e-08
-4.28279e-10
-1.33402e-08
3.90156e-10
-3.08656e-09
-2.85969e-10
1.48678e-08
1.71174e-08
1.33286e-08
7.60412e-10
-1.5167e-09
-1.25723e-08
-2.07148e-09
5.94142e-09
1.20235e-08
-9.86213e-10
-1.38326e-09
-3.4995e-09
2.7373e-09
3.96891e-09
2.38709e-09
1.38321e-08
4.18192e-09
-1.36234e-08
1.6726e-08
-1.44199e-09
2.98073e-09
-3.73272e-09
1.90829e-09
-4.43087e-09
1.25522e-08
-1.18444e-08
-1.34687e-08
4.73096e-10
8.56474e-09
-1.9826e-09
1.69441e-09
1.87348e-09
-8.97979e-09
5.54881e-10
-3.97472e-09
-5.92609e-09
1.19386e-08
-1.49923e-08
1.5618e-09
1.65232e-09
-2.10656e-09
1.60242e-08
-1.557e-08
-9.58723e-10
1.3859e-08
2.39527e-09
-3.46674e-09
-1.36287e-08
7.22076e-09
-1.6578e-08
-7.93115e-09
6.3104e-09
5.80653e-09
1.3967e-08
-9.19889e-09
3.20742e-09
8.72014e-09
9.6747e-09
3.96919e-09
-4.04269e-09
2.11186e-08
-1.85705e-08
4.6727e-09
-9.6563e-09
2.34223e-09
4.87881e-09
1.33083e-08
-8.09572e-11
1.21697e-08
-1.30475e-08
-1.53561e-09
2.82229e-09
-2.07293e-09
7.86248e-10
1.05233e-08
-6.26149e-09
7.19433e-09
-1.00109e-08
1.47514e-09
-4.75284e-09
1.09569e-08
-1.14426e-08
-7.37972e-09
8.67067e-09
9.23237e-09
1.2293e-08
1.03638e-09
-1.34104e-08
1.82939e-09
9.04196e-10
-1.0676e-08
-6.76016e-09
1.00564e-08
-1.91946e-09
2.52197e-09
-8.38889e-09
4.59488e-09
-5.09848e-09
1.10403e-08
-3.50643e-09
-1.11759e-08
3.64204e-09
-4.54948e-09
1.0837e-08
2.25195e-09
1.27185e-09
-4.8658e-09
-1.72558e-08
1.03297e-08
1.17919e-08
9.48922e-10
-1.05257e-08
-9.79088e-09
1.54507e-08
1.17854e-08
2.68128e-09
-9.58787e-09
-1.31509e-08
-2.42376e-10
-1.23374e-08
3.47989e-10
-6.1231e-10
1.06891e-08
1.25089e-08
-8.10103e-09
1.58469e-08
-1.5111e-08
3.44603e-09
-5.75026e-10
1.58269e-09
1.21637e-08
-3.87305e-09
-1.21705e-08
-5.15149e-09
1.87331e-10
4.4651e-09
1.17221e-08
-7.57568e-09
9.58367e-10
-9.84494e-10
2.10273e-09
-2.65385e-09
5.94917e-09
2.57809e-08
-1.23695e-09
-1.43085e-08
1.55454e-08
2.72164e-08
-2.17356e-08
2.14434e-08
1.92053e-08
-1.23656e-08
-2.33564e-09
1.47527e-08
1.2785e-10
-1.17948e-08
-4.14688e-10
-5.98059e-09
-2.04101e-09
2.50374e-09
1.78921e-09
3.72559e-10
-1.04497e-08
1.02708e-08
-1.93649e-10
1.6483e-09
-5.54762e-09
-1.03439e-08
1.00449e-08
-6.09111e-10
-1.00141e-08
-1.72732e-11
-1.01609e-08
-3.04479e-09
-1.15179e-08
2.34924e-09
7.69993e-09
5.07543e-09
4.62765e-10
-1.1275e-08
1.11848e-08
7.41112e-10
-8.26266e-09
5.28639e-09
-4.87118e-10
2.87664e-09
-3.6738e-09
-1.26927e-08
-1.34694e-08
1.26952e-08
-9.80954e-09
-1.54461e-08
9.83583e-09
9.04961e-09
7.84462e-10
2.3881e-09
-1.66966e-08
1.05308e-08
1.63351e-09
4.07219e-09
4.32796e-10
-6.82692e-10
-5.29959e-10
-4.01535e-09
2.80773e-09
-1.87893e-09
5.08257e-10
-5.93059e-10
8.48018e-11
-2.40374e-09
1.23057e-08
1.88347e-09
2.52913e-09
-1.47365e-09
-2.01911e-09
9.97086e-11
-2.70002e-09
-8.92707e-10
1.24872e-08
9.56758e-09
-6.14561e-10
7.18694e-09
-1.16376e-09
-5.40862e-09
-9.90157e-09
-4.67298e-09
4.01041e-10
1.07216e-10
4.13939e-09
1.42956e-09
-1.60946e-08
-7.4774e-10
-1.02191e-09
-1.78484e-09
6.77267e-10
2.4006e-09
6.5294e-08
-3.58366e-10
-6.49356e-08
6.38473e-08
-2.81925e-10
-6.35654e-08
-1.40174e-08
2.12131e-10
1.43627e-08
-5.57374e-10
2.34897e-09
-2.18171e-09
2.91568e-09
1.78801e-09
-4.73677e-09
-7.2093e-10
-7.19433e-10
5.84511e-10
-1.78297e-10
7.2073e-10
-5.38256e-10
1.82811e-08
1.1726e-09
-1.53143e-08
-4.05451e-10
-1.96872e-09
1.19392e-08
2.19322e-09
1.76146e-09
4.61678e-09
-1.66397e-09
-8.07638e-08
-2.38507e-08
-4.83991e-09
1.53679e-08
2.38241e-09
-1.07323e-09
-3.50572e-09
-1.50851e-09
8.72526e-10
-7.47281e-10
-1.40078e-08
-3.3752e-10
1.43453e-08
-1.04637e-08
-6.69719e-09
1.04007e-08
-9.06144e-09
8.90824e-09
-3.4261e-10
2.09167e-09
1.34772e-08
-1.31496e-08
-3.2758e-10
8.37331e-10
3.50029e-11
9.17854e-09
1.07498e-09
-1.36389e-09
-4.87229e-10
-1.40426e-08
-5.30638e-10
-1.30343e-08
1.17044e-08
-1.10712e-08
-6.60202e-08
6.48424e-08
1.17777e-09
6.58946e-10
-6.67253e-10
1.13869e-08
-6.25965e-10
3.29059e-11
-1.62943e-09
2.7401e-09
-3.46158e-09
-1.34198e-08
-1.51467e-09
2.46298e-09
-4.35602e-09
-1.36463e-08
1.90768e-09
5.60733e-09
9.24665e-09
-8.72147e-09
-6.48976e-10
2.3011e-11
-9.42284e-09
-1.1984e-08
-3.77124e-10
-6.2643e-08
-7.10488e-10
6.33535e-08
7.43226e-10
6.19135e-08
-4.17917e-10
-6.13447e-10
-1.41588e-08
1.62479e-10
-6.41195e-08
6.3957e-08
1.89016e-11
-6.33581e-08
6.33392e-08
6.56138e-10
6.53658e-08
-1.82786e-10
-6.5183e-08
6.54281e-08
-6.23221e-11
-8.85618e-08
8.93187e-08
2.27261e-10
8.53318e-08
-8.52471e-08
-1.99941e-10
-8.70422e-08
-1.15112e-10
8.5117e-08
-5.47085e-11
-8.52326e-08
-5.35852e-10
8.51111e-08
2.19373e-10
-4.96583e-10
1.72944e-09
8.42558e-08
-6.94371e-08
6.47936e-08
-6.41794e-08
-6.19542e-08
6.54377e-08
-9.64037e-12
-3.09278e-09
2.72995e-09
-1.32606e-08
1.11381e-10
2.89659e-10
2.69123e-09
1.06642e-08
-1.27441e-08
3.84511e-08
-3.46061e-08
-1.59848e-08
1.43837e-08
-1.06766e-10
-2.10725e-10
3.92987e-10
1.04924e-09
-2.16849e-10
4.54707e-10
4.71503e-09
1.09533e-09
-3.90207e-09
-5.77936e-10
6.60133e-10
-4.71164e-10
-2.4498e-09
1.25565e-08
2.19901e-09
-1.43792e-08
-2.11683e-09
-3.94816e-09
5.68871e-09
1.12253e-09
-2.33287e-09
1.38029e-08
-1.14027e-09
-5.45556e-09
9.59709e-09
-7.70435e-09
-1.86228e-08
-1.26749e-08
7.77505e-09
5.37298e-09
-3.14738e-10
-5.22443e-10
3.34093e-09
1.42371e-08
1.48846e-09
-9.10113e-10
-5.14437e-10
5.44128e-10
-3.2477e-10
1.57116e-08
-4.20575e-10
-1.56286e-08
-6.80371e-09
-3.18977e-09
2.99363e-10
-3.12722e-10
4.79446e-09
-1.92586e-08
7.14152e-10
-1.78223e-09
-2.41993e-09
-1.98246e-09
1.51003e-08
-8.92884e-08
8.25879e-10
8.69697e-08
3.89333e-10
-8.9967e-08
4.07013e-11
8.55521e-08
-1.6468e-10
-8.57458e-08
-7.09376e-10
-1.87244e-09
1.58781e-08
8.64098e-08
-2.34133e-10
9.48329e-11
-1.12926e-10
1.20162e-08
1.91236e-09
-1.08867e-08
-1.16736e-08
-5.3575e-09
8.42609e-09
1.42498e-09
-6.91203e-09
-6.63404e-09
9.11478e-09
-3.38361e-10
1.01181e-08
1.87161e-08
-1.74566e-08
3.0057e-09
-1.22306e-08
3.06586e-09
-6.99099e-08
3.88973e-09
-2.01223e-08
-1.23084e-08
-6.57341e-10
-5.7442e-09
-1.52648e-08
9.21419e-09
-1.49866e-08
6.40292e-10
5.46796e-10
-1.42024e-09
-1.58844e-08
1.64222e-08
1.08931e-08
-1.07564e-08
-5.56741e-09
1.44877e-08
-1.47351e-09
7.88732e-10
-1.64495e-09
7.38313e-10
1.17321e-08
3.60257e-09
7.11284e-08
-1.77061e-08
9.51531e-10
-1.43582e-08
-3.45093e-10
-3.88208e-10
-3.19085e-10
6.51539e-08
-6.53186e-08
-6.40246e-08
-6.35923e-08
1.92135e-10
-1.19095e-10
-8.58188e-08
-6.50058e-08
6.67352e-08
6.49449e-08
-6.47864e-08
6.44483e-08
-6.48411e-08
6.39125e-08
-6.5041e-08
6.37974e-08
8.60472e-08
4.37164e-10
-6.48565e-09
7.49616e-08
-6.48734e-08
1.70129e-10
-1.70129e-10
2.62457e-09
-3.92056e-10
1.54229e-08
-1.99517e-10
1.99517e-10
5.64343e-10
1.03951e-09
1.43893e-08
1.25351e-08
-2.29929e-09
3.34876e-09
6.53025e-09
1.88309e-09
5.06395e-10
-3.63461e-10
-2.86855e-09
1.42425e-08
1.47872e-08
-4.43167e-09
1.12658e-08
3.1046e-10
2.38085e-10
3.05478e-09
-1.1e-09
-1.85746e-09
-5.63425e-09
-1.85025e-10
-5.38173e-10
1.51042e-08
4.27368e-10
2.15243e-10
1.78054e-08
-2.48184e-08
1.69479e-08
2.52232e-09
1.55134e-09
1.98664e-09
-3.45279e-09
1.88156e-08
-1.73494e-08
-1.7394e-10
1.13917e-09
-1.44228e-09
-7.91004e-08
-7.08794e-08
1.49597e-09
-1.33917e-09
7.61532e-10
2.25379e-08
1.76216e-08
-6.37224e-09
2.5383e-10
-4.53991e-09
-1.64517e-09
3.01032e-08
2.49024e-10
1.40286e-08
6.73938e-08
1.38844e-10
5.98078e-10
-2.56051e-10
-3.29327e-10
-3.94531e-09
2.30448e-08
-1.46551e-08
1.29597e-09
-1.28928e-08
-1.1953e-10
2.02605e-08
-2.77736e-08
9.14174e-10
2.79338e-09
-8.25701e-10
)
;

boundaryField
{
    back
    {
        type            empty;
        value           nonuniform 0();
    }
    ingreso
    {
        type            calculated;
        value           nonuniform List<scalar> 
14
(
-1.54286e-08
-1.54288e-08
-1.54288e-08
-1.54288e-08
-1.54286e-08
-1.54283e-08
-1.54288e-08
-1.54288e-08
-1.54286e-08
-1.54286e-08
-1.54288e-08
-1.5428e-08
-1.5428e-08
-1.54286e-08
)
;
    }
    salida
    {
        type            calculated;
        value           nonuniform List<scalar> 2(1.04615e-07 1.11386e-07);
    }
    front
    {
        type            empty;
        value           nonuniform 0();
    }
    defaultFaces
    {
        type            calculated;
        value           uniform 0;
    }
}


// ************************************************************************* //
