/*--------------------------------*- C++ -*----------------------------------*\
  =========                 |
  \\      /  F ield         | OpenFOAM: The Open Source CFD Toolbox
   \\    /   O peration     | Website:  https://openfoam.org
    \\  /    A nd           | Version:  7
     \\/     M anipulation  |
\*---------------------------------------------------------------------------*/
FoamFile
{
    version     2.0;
    format      ascii;
    class       volScalarField;
    location    "38.5";
    object      p;
}
// * * * * * * * * * * * * * * * * * * * * * * * * * * * * * * * * * * * * * //

dimensions      [0 2 -2 0 0 0 0];

internalField   nonuniform List<scalar> 
591
(
0.000123967
0.000123985
0.000123996
0.000123953
0.000123954
0.000124031
0.000124023
0.000123986
0.000117015
0.000123996
0.000124163
0.000122894
0.000124001
0.000119768
0.000123987
0.00012404
0.000123937
0.000124026
0.000122012
0.000123369
0.000123959
-3.50546e-06
0.000124162
0.000123963
0.000124121
0.000123982
0.000124064
0.000124082
0.000123994
0.000124015
0.00012414
0.000124117
0.000124136
0.000124134
0.000124137
0.00012347
0.000124132
0.000123967
0.000124157
0.000124076
0.000124056
0.000124129
0.000123992
0.000124011
0.000124126
0.000124144
0.00011928
0.000124148
0.000124001
0.000124113
0.000124084
0.000124121
2.39376e-05
3.05912e-05
4.78587e-05
0.000124001
0.000124151
0.000124134
0.000124146
0.000123969
0.000124051
0.000123988
0.00012399
0.000124044
0.000122613
0.000123988
0.000123993
0.000124143
0.000120775
0.000124006
0.000123995
0.000124149
0.00012411
0.00012413
0.000124135
0.000124112
0.000123962
0.000124146
0.000123966
0.00012389
0.000123745
0.000124151
0.000124113
0.000124083
0.000124158
0.000123977
0.000124069
0.000124141
0.000124105
0.000123859
0.000124118
0.000124053
0.000124076
0.000123972
0.000124157
0.000124112
0.000123675
0.000123572
0.00012371
0.000124161
0.000124073
0.000123982
0.000124165
0.000123955
0.000124164
0.000123993
0.000123984
0.000124115
0.000124155
0.000124159
0.000124044
0.000124132
0.000124006
0.00012414
0.00012416
0.000124136
0.000124085
0.000124091
0.000123642
0.000124052
0.00012399
0.000124003
0.000124044
0.000123976
0.000124131
0.000120266
0.000124163
0.000124137
0.000123745
0.000124136
0.000123981
0.000123669
0.000124098
0.000124095
0.000124139
0.000124
0.000122647
0.000124164
0.000123985
0.000123644
0.00012371
0.000124066
0.000124142
0.000124157
0.000124152
7.61601e-06
3.68531e-06
2.08577e-06
3.81638e-05
3.67071e-05
5.68145e-06
3.83082e-05
1.57522e-05
3.72829e-05
1.78169e-05
0.000123989
0.000123977
0.00012415
0.000124148
0.000124154
0.000124152
0.000124145
0.000124143
0.000124147
0.000124148
0.000124108
0.000124155
0.00012415
0.000124155
0.000124086
0.000123448
0.000124157
0.000122182
0.00012413
0.000124139
0.000124081
0.000123996
0.000124139
0.000124149
0.000124144
0.000123554
0.000122531
0.000123107
0.000123514
0.000124142
0.000124147
0.000124083
0.000123963
0.000124139
0.000123019
0.000123371
0.000123965
0.000124137
0.000123833
0.000124131
0.00012414
0.000124112
0.000123804
0.000123952
0.000124137
0.000124148
0.000124142
0.000123936
0.000124124
0.000123932
0.000124156
0.000123986
0.000123982
0.000124153
0.000123771
0.000123953
0.000123997
0.000123616
0.000124102
0.000123762
0.000124048
0.000124051
0.000124128
0.000123533
0.000124041
0.000123941
0.00012395
0.000124113
0.000123869
0.000124031
0.000123939
0.000123846
0.000123943
0.000124159
0.000123912
0.000124152
0.000123992
0.000124127
0.000123983
0.000123981
0.000124159
0.000123883
0.000124149
0.000123876
0.000123922
0.000123993
0.00012397
0.000123999
0.000123989
0.00012375
0.000123959
0.000123906
0.00012412
0.00012398
0.000123815
0.000124107
0.000123374
0.000123917
0.000123276
0.000123146
0.000123975
0.00012394
0.000123973
0.00012397
0.000123926
0.000124157
0.000124016
0.000124098
0.000124017
0.00012402
0.000124033
0.000124107
0.000123761
0.000124152
0.000123799
0.000123692
0.000124006
0.000124127
0.000123711
0.000124152
0.000124053
0.000124097
0.000124111
0.000124001
0.000123961
0.000123772
0.000123936
0.000123952
0.000124006
0.000124052
0.000124125
0.000124138
0.000124146
0.000123915
0.000124013
0.000124131
0.00012414
0.000124136
0.000123937
0.000124147
0.000124019
0.000124123
0.000123904
0.000124148
0.000123895
0.000124127
0.000124031
0.000123962
1.16478e-05
2.19162e-05
0.000123933
0.00012399
0.000124155
0.000123924
0.000124156
0.000124002
0.000124148
0.000124128
0.000123882
0.000124122
0.000123956
0.00012415
0.000123995
-2.11919e-07
0.000123833
0.00012413
0.000124127
0.000123843
0.000123967
0.000124002
0.000124122
0.000123906
0.000124143
0.000124036
0.000123989
0.00012412
0.000123952
0.000123877
0.000123902
0.000124003
4.74359e-05
0.000124137
0.000124121
0.000123983
0.000124143
0.000124061
0.000124007
0.000123983
0.000123984
0.000124131
0.000124018
0.000123917
0.000124017
0.00012392
0.000124143
0.000123928
0.000123975
0.000124014
0.000124096
1.98798e-05
2.73352e-05
3.43013e-05
9.63929e-06
0.000123965
3.30589e-05
2.59978e-05
0.00012414
1.90823e-05
1.70429e-05
3.81955e-05
7.57104e-06
3.99493e-05
5.61702e-06
4.08448e-05
3.70876e-06
4.28275e-05
1.89176e-06
3.63961e-05
2.31992e-05
2.94501e-05
1.5005e-05
0.000123837
0.00012415
0.000124034
0.000124042
0.00012096
0.000124094
0.000124145
0.000124117
0.000123939
0.000124151
0.000124145
0.000124133
0.00012413
0.0001239
0.000123985
0.000124129
0.000124134
0.000123974
0.000123859
0.00012388
0.000123466
0.000123925
0.000124161
0.000124137
0.000123997
0.000124158
0.000123842
0.000124002
0.000123799
0.000122919
0.000124131
0.000124142
0.000124159
0.000123849
0.000124013
0.000123801
0.000124005
0.000123989
2.60384e-05
2.18754e-05
3.30405e-05
1.16256e-05
0.000124165
0.000123847
1.98258e-05
2.82548e-05
3.56088e-05
9.58308e-06
0.000123976
0.000124086
0.000123942
0.000123947
0.000123999
0.000124092
0.000123885
0.000124128
0.000124056
0.000123162
0.000123952
0.00012392
5.93131e-05
0.000123286
0.000124155
0.000123974
0.000123878
0.000124144
0.000124147
0.000123961
0.000123755
0.000123991
0.000124064
0.000123835
0.000124103
0.000122969
0.000123933
0.00012393
0.000124101
0.000100861
0.000123949
0.000123551
0.000123911
0.000124157
0.000123808
1.09021e-05
2.11185e-05
3.53747e-05
2.81846e-05
1.368e-05
5.91779e-08
4.20619e-05
2.69745e-06
4.01564e-05
4.77094e-06
3.94211e-05
6.81858e-06
3.86299e-05
8.86092e-06
3.72972e-05
1.36827e-05
3.17306e-05
3.05825e-05
2.39388e-05
2.52799e-05
1.77807e-05
1.2949e-05
1.57293e-05
0.00012415
0.000102501
0.000123967
0.000123907
0.000124153
0.000124049
0.000124159
0.00012388
0.000124029
0.000124124
0.000124118
0.000124144
0.000123885
0.000124002
0.000123864
0.000124088
0.000123935
0.000124154
0.000124011
0.000123842
0.000123846
0.000124014
0.000124006
0.000124161
0.000124151
0.000124157
0.000124123
0.000124161
0.000123798
0.000123991
0.000124155
0.000123935
0.00012407
0.00012399
0.000124008
0.000123864
0.000124122
0.000124121
0.000123437
0.000121419
0.000123167
0.000123711
0.000123991
0.000123816
0.000124011
0.000124159
0.000124116
0.000123998
0.0001236
0.000123584
0.000124155
0.000124125
0.000124015
0.000124092
0.000123636
5.83464e-05
4.01227e-05
0.000124097
0.000124114
0.00012348
0.000122815
0.000123973
0.000123693
0.000123437
0.000123996
0.000123869
0.000124138
0.000124018
0.000124048
0.000119064
5.44906e-05
0.000124014
8.12364e-05
1.86779e-06
-3.82641e-07
0.000123984
0.000123955
0.000124124
0.00012416
0.000124147
0.000124155
0.000124149
0.000123971
-2.30086e-06
0.000122896
0.000124003
0.000124104
0.000122074
0.000124153
0.000124154
0.000122346
0.000124085
0.000124125
0.000121734
0.000124153
7.64017e-05
0.000124152
0.000123681
0.000124117
0.000122442
0.00012369
0.000123729
0.000124018
0.000124156
0.000124111
0.000124153
0.000124164
0.000123999
0.000116245
)
;

boundaryField
{
    back
    {
        type            empty;
    }
    ingreso
    {
        type            zeroGradient;
    }
    salida
    {
        type            fixedValue;
        value           uniform 0;
    }
    front
    {
        type            empty;
    }
    defaultFaces
    {
        type            zeroGradient;
    }
}


// ************************************************************************* //
