/*--------------------------------*- C++ -*----------------------------------*\
  =========                 |
  \\      /  F ield         | OpenFOAM: The Open Source CFD Toolbox
   \\    /   O peration     | Website:  https://openfoam.org
    \\  /    A nd           | Version:  7
     \\/     M anipulation  |
\*---------------------------------------------------------------------------*/
FoamFile
{
    version     2.0;
    format      ascii;
    class       surfaceScalarField;
    location    "89";
    object      phi;
}
// * * * * * * * * * * * * * * * * * * * * * * * * * * * * * * * * * * * * * //

dimensions      [0 3 -1 0 0 0 0];

internalField   nonuniform List<scalar> 
1111
(
6.89403e-09
1.30123e-08
-1.60199e-08
-3.88642e-09
6.8614e-09
-1.18104e-08
1.1843e-08
-1.47507e-08
5.63475e-09
8.93119e-09
1.84746e-10
8.21626e-10
-9.4581e-10
-1.4355e-08
1.44792e-08
-1.43087e-08
1.40812e-08
1.04916e-09
-1.63418e-09
1.49123e-08
2.15044e-09
-3.03625e-09
9.55031e-09
-9.76529e-09
3.25122e-09
-6.71797e-09
-1.26147e-08
1.26002e-08
6.73251e-09
-5.03e-08
-2.60461e-08
7.63461e-08
-8.12847e-09
7.69527e-09
7.29461e-09
3.35367e-09
3.63208e-10
-3.4352e-09
-2.81673e-10
1.58516e-08
-1.62191e-08
-2.32051e-08
2.35727e-08
-9.66283e-09
-7.89504e-09
8.80139e-09
8.75648e-09
-3.55531e-08
1.76983e-08
-3.23174e-08
5.01722e-08
9.50331e-09
-1.96352e-09
-1.42578e-08
-6.97913e-10
1.63361e-09
-3.11422e-09
2.17852e-09
-3.91727e-09
1.33412e-08
1.96598e-09
-1.13899e-08
8.81663e-09
-2.63327e-09
-1.50484e-08
8.86506e-09
3.73251e-08
-2.99977e-08
-7.32744e-09
-1.94521e-08
3.72275e-10
1.72378e-08
1.8421e-09
-1.03615e-09
4.22604e-09
-1.78542e-08
1.46643e-08
-6.12228e-08
-3.96234e-09
6.51851e-08
1.40992e-10
-1.17256e-09
-3.35374e-10
1.36694e-09
-1.71343e-09
-1.36315e-08
-9.72681e-11
-2.49846e-10
1.94351e-10
1.52764e-10
-1.03474e-08
-8.48446e-09
1.30105e-08
5.82138e-09
6.84464e-10
-2.12469e-09
-8.30407e-09
9.74429e-09
8.52924e-09
7.99972e-10
-9.56386e-09
2.34653e-10
-2.87709e-09
-7.98156e-09
1.10551e-08
-1.96415e-10
1.14054e-08
-9.56935e-10
-1.63185e-09
-8.38506e-10
8.39074e-10
3.37322e-12
-3.94136e-12
-1.1452e-10
7.10542e-10
2.46389e-10
-8.42411e-10
-4.54753e-10
-3.93474e-11
4.87337e-10
6.76327e-12
-3.65299e-11
-8.13347e-10
1.11813e-10
7.38064e-10
-9.72621e-11
-7.77774e-10
9.46417e-10
-1.84252e-08
-1.97333e-09
-3.73713e-10
4.13818e-11
-1.22421e-10
1.33865e-08
-1.32418e-08
4.08128e-09
-3.62296e-10
5.59186e-10
3.33164e-10
-5.30053e-10
-6.86074e-11
-1.5287e-09
1.26268e-09
3.34633e-10
-2.00876e-09
1.0528e-08
-1.15554e-08
-2.6689e-10
-1.55155e-10
4.83321e-11
-8.75388e-09
1.04369e-08
-9.81147e-09
1.22363e-08
-1.71481e-08
4.62405e-09
2.87772e-10
5.64937e-11
-1.54196e-10
-1.69187e-10
1.72182e-10
7.7586e-10
-1.08967e-10
-5.95328e-08
7.42304e-08
-1.46976e-08
1.02853e-09
-2.43564e-10
-1.15215e-09
3.67179e-10
1.14873e-09
1.03112e-08
-1.37161e-08
2.25616e-09
-1.71214e-09
7.67804e-09
-8.93077e-09
2.96487e-09
-6.697e-09
5.63932e-09
5.65529e-09
-4.59761e-09
-7.6199e-09
-1.7264e-09
1.75463e-09
7.59167e-09
-1.80771e-10
-9.09176e-08
9.13032e-08
-2.04829e-10
-2.55792e-10
-8.97524e-08
9.01621e-08
-1.53933e-10
8.30789e-08
-1.49343e-09
1.10063e-10
-8.16955e-08
-2.89568e-09
-4.49594e-10
6.51795e-10
8.31782e-10
-4.55046e-10
3.92885e-09
-1.13833e-09
3.45353e-09
-6.24404e-09
-9.53884e-10
8.82503e-10
-1.49414e-08
6.5905e-09
9.75884e-09
1.04833e-09
-1.05331e-08
-2.74019e-10
-6.12218e-09
1.34219e-08
1.06155e-09
-8.36126e-09
1.43678e-08
-4.49844e-09
3.71375e-09
-1.35831e-08
1.54004e-08
1.6817e-09
-1.65327e-09
-1.92539e-10
-2.00632e-08
-7.42667e-09
2.76824e-08
1.43361e-08
-8.72215e-09
-1.92922e-09
7.95812e-09
-1.21511e-08
3.19548e-12
6.59171e-11
-1.22126e-09
-3.62135e-08
-2.33193e-08
8.29219e-09
2.60931e-10
3.6832e-09
-7.00968e-09
1.10936e-08
6.353e-09
-5.88835e-10
3.14244e-10
4.74773e-10
-2.00183e-10
5.76013e-09
-4.77327e-09
3.65438e-09
-4.64124e-09
-4.48243e-10
-6.23056e-10
2.57952e-10
6.48297e-10
-5.75831e-10
-7.68024e-12
-8.16008e-10
7.09168e-10
-1.80984e-08
2.42703e-09
1.5593e-09
1.41121e-08
2.18769e-10
-6.86552e-10
-1.21051e-10
-4.12579e-09
-1.51091e-08
1.13649e-09
5.61128e-09
1.2055e-08
-5.22677e-09
-1.24395e-08
1.64248e-08
6.9607e-10
-1.58882e-08
-1.2326e-09
-6.70256e-10
4.47348e-10
5.37153e-10
-3.89204e-10
1.94149e-10
1.95055e-10
-7.40156e-09
-3.57046e-09
4.27502e-09
-2.21786e-10
3.42373e-10
-1.20587e-10
1.15808e-09
-1.56313e-08
-8.13712e-10
9.80901e-09
-1.10041e-08
-9.47315e-10
-3.96884e-10
1.29079e-08
4.41618e-09
-4.1628e-09
-1.31613e-08
9.68811e-11
7.14735e-09
-7.91466e-09
6.40663e-09
-1.67216e-09
-8.93972e-09
8.16831e-09
2.44357e-09
-1.88829e-09
6.69143e-10
-1.389e-08
-1.22203e-10
-9.95829e-11
1.88156e-10
7.57478e-10
-8.56553e-09
7.50727e-10
1.72893e-08
-1.61527e-09
-1.22653e-08
1.36248e-08
-1.35955e-09
1.22129e-08
1.39536e-08
-1.55083e-08
-1.06582e-08
-5.35566e-10
9.8336e-10
-4.47794e-10
3.88569e-10
-3.14524e-10
-7.40458e-11
3.83131e-10
-9.18675e-11
-2.91263e-10
1.38721e-09
-1.12435e-09
-2.62855e-10
-1.06159e-08
8.35884e-10
9.78002e-09
2.02467e-09
-6.37465e-10
8.96401e-09
-1.53917e-08
7.54582e-09
-9.0698e-09
5.74065e-11
3.69603e-09
-3.99764e-10
-2.38788e-09
2.44529e-09
-6.57255e-09
7.90572e-09
-1.33317e-09
-5.57202e-10
4.24735e-09
2.38698e-10
1.72703e-08
-1.44822e-08
-1.63937e-09
-6.01128e-09
5.38969e-09
-5.16742e-10
-1.93193e-10
5.88809e-09
-5.88206e-09
-6.02761e-12
6.89858e-09
4.51685e-09
-8.31492e-12
-1.5994e-08
1.04621e-08
1.77448e-08
5.77178e-09
8.27414e-09
8.19998e-09
-6.84875e-09
1.34866e-09
-1.19646e-08
4.24619e-10
1.24214e-09
-1.29749e-08
2.86975e-09
-4.24463e-10
1.15145e-08
-1.08185e-08
-2.50181e-10
-7.94396e-10
-1.38058e-08
7.61455e-09
7.40427e-10
-6.30368e-12
-8.89896e-09
5.04007e-09
-3.01902e-08
-1.25095e-08
-2.79082e-09
1.49446e-09
1.40877e-08
1.10157e-08
-1.07778e-08
-1.43257e-08
1.54245e-08
-3.1273e-09
-1.22972e-08
1.61909e-09
3.96985e-09
-1.07353e-09
-9.01931e-10
-8.63721e-10
1.16086e-09
6.04796e-10
-2.33956e-10
3.54496e-10
3.54233e-10
6.21393e-08
-6.2165e-08
2.56753e-11
6.20599e-08
-6.23638e-08
3.0388e-10
8.37122e-10
6.47347e-08
-6.55613e-08
8.26667e-10
6.41272e-08
6.07501e-10
-2.24434e-10
-6.65066e-08
9.4531e-10
-6.20534e-08
6.19188e-08
1.34574e-10
1.31553e-09
-6.78222e-08
-6.22133e-08
1.59889e-10
1.25605e-08
-7.25543e-10
1.33845e-09
-3.70022e-09
3.08731e-09
3.24373e-10
-1.18667e-09
9.36537e-10
-5.88989e-10
1.39261e-09
-1.6301e-09
8.26481e-10
1.40848e-09
-1.51331e-09
1.7075e-10
-5.50915e-11
-3.42505e-09
2.78028e-09
-2.01107e-09
2.65584e-09
-4.81886e-10
-2.74882e-09
2.50516e-09
-3.57998e-09
-5.7909e-09
5.87282e-10
-6.1922e-10
1.2155e-09
1.11365e-09
-6.49104e-09
7.92818e-09
3.07971e-09
1.97791e-08
-4.35458e-09
-7.08602e-10
2.86189e-10
1.0097e-09
-1.00941e-08
-2.61194e-08
5.32476e-09
-4.28782e-09
-3.16836e-09
2.13143e-09
1.0426e-10
2.3342e-11
3.59735e-10
-2.58051e-09
3.34726e-09
8.93338e-09
7.46254e-10
-2.5781e-10
2.1036e-09
-2.32768e-09
1.88325e-09
1.4734e-08
1.33073e-08
-2.69423e-08
3.26998e-08
6.34034e-09
-2.28299e-08
-1.04528e-08
1.84785e-08
-1.79682e-08
1.05054e-08
-8.61362e-11
-1.87171e-10
-1.24001e-09
-1.71716e-09
-2.93628e-09
3.55582e-09
1.5079e-08
-6.09736e-10
-1.38001e-08
-6.15943e-10
-2.37765e-09
2.44769e-10
1.54684e-08
1.77441e-08
1.37048e-08
7.25107e-10
-1.68162e-09
-1.27483e-08
-1.55757e-09
5.9851e-09
1.25341e-08
-5.10478e-10
-1.06169e-09
-3.62015e-09
2.77898e-09
3.62146e-09
2.48809e-09
1.44546e-08
4.24868e-09
-1.42871e-08
1.79808e-08
-1.76529e-09
2.51044e-09
-3.40785e-09
1.89901e-09
-4.90236e-09
1.29471e-08
-1.1962e-08
-1.40358e-08
3.41212e-10
8.79218e-09
-1.81274e-09
1.5145e-09
1.51374e-09
-8.65908e-09
7.06771e-10
-4.55717e-09
-6.01172e-09
1.21984e-08
-1.48458e-08
1.11734e-09
1.67025e-09
-2.20851e-09
1.67665e-08
-1.62282e-08
-1.07434e-09
1.41694e-08
3.05444e-09
-4.41337e-09
-1.40327e-08
7.53782e-09
-1.73557e-08
-8.15028e-09
6.78868e-09
5.8675e-09
1.45722e-08
-9.97615e-09
3.03685e-09
9.38288e-09
9.85648e-09
3.84348e-09
-4.18815e-09
2.1718e-08
-1.91634e-08
4.98316e-09
-1.05298e-08
2.17277e-09
5.6501e-09
1.389e-08
-2.85502e-10
1.27905e-08
-1.35793e-08
-1.90604e-09
1.85183e-09
-8.56398e-10
9.10611e-10
1.1028e-08
-6.37552e-09
7.40254e-09
-1.09266e-08
1.44513e-09
-4.74639e-09
1.14642e-08
-1.19446e-08
-7.56657e-09
9.19144e-09
9.40309e-09
1.28991e-08
6.54458e-10
-1.38391e-08
1.48344e-09
7.91062e-10
-1.11074e-08
-6.72342e-09
1.02643e-08
-1.43944e-09
2.51568e-09
-8.97532e-09
4.79605e-09
-5.25768e-09
1.15595e-08
-3.48525e-09
-1.17679e-08
3.6936e-09
-4.4795e-09
1.12926e-08
1.87123e-09
1.12671e-09
-5.03546e-09
-1.77723e-08
1.04768e-08
1.23309e-08
7.5183e-10
-1.09984e-08
-9.99453e-09
1.59574e-08
1.25717e-08
2.85905e-09
-9.78065e-09
-1.33195e-08
-3.20205e-10
-1.27548e-08
1.63171e-10
-7.65515e-10
1.16574e-08
1.25351e-08
-8.23564e-09
1.66278e-08
-1.60067e-08
3.62755e-09
-4.72318e-10
1.76564e-09
1.28188e-08
-3.91862e-09
-1.26837e-08
-5.0767e-09
1.7061e-09
4.61275e-09
1.22513e-08
-7.25025e-09
9.33417e-10
-1.61701e-09
7.46804e-10
-1.03583e-09
5.87264e-09
2.63508e-08
-1.34399e-10
-9.90667e-09
1.00411e-08
2.85484e-08
-2.23035e-08
2.20869e-08
1.97322e-08
-1.27157e-08
-2.683e-09
1.50871e-08
1.89417e-10
-1.21437e-08
-4.21712e-10
-6.01874e-09
-1.86848e-09
2.22015e-09
1.51956e-09
-3.79555e-10
-1.10859e-08
1.14874e-08
-2.19232e-11
3.09912e-09
-5.21096e-09
-1.10576e-08
1.06092e-08
-9.0618e-10
-1.0786e-08
-1.9389e-10
-1.12454e-08
-2.57268e-09
-1.20329e-08
2.18306e-09
7.90376e-09
5.13965e-09
-3.46941e-10
-1.1802e-08
1.17694e-08
5.79958e-10
-8.80625e-09
5.16661e-09
-1.47813e-09
2.29836e-09
-2.20928e-09
-1.30514e-08
-1.26616e-08
1.21803e-08
-1.0212e-08
-1.57922e-08
1.00102e-08
9.26641e-09
8.41046e-10
2.66779e-09
-1.25745e-08
1.14325e-08
1.67003e-09
3.92389e-09
2.96749e-10
-5.04431e-10
-2.4056e-10
-4.13601e-09
2.55418e-09
-7.95816e-10
1.90156e-10
-2.23666e-10
3.35093e-11
-2.67459e-09
1.30298e-08
2.21649e-09
2.54767e-09
-4.00052e-11
-1.43306e-09
-4.71275e-10
-2.34723e-09
-3.25839e-10
1.29811e-08
1.00536e-08
-3.35914e-10
6.83608e-09
-1.23483e-09
-5.26534e-09
-9.79666e-09
-5.11658e-09
1.45129e-10
4.50282e-11
4.87734e-09
1.32134e-09
-1.7197e-08
-3.61377e-10
-7.72157e-10
-2.77037e-09
1.0226e-09
3.01843e-09
6.19409e-08
-8.59893e-11
-6.18549e-08
6.23642e-08
1.88949e-10
-6.25531e-08
-1.41341e-08
-2.07728e-10
1.44925e-08
-1.50697e-10
3.05941e-09
-1.82833e-09
2.54378e-09
1.80022e-09
-4.49017e-09
-3.31235e-10
-5.27363e-10
4.27906e-10
-1.00726e-10
4.403e-10
-2.98706e-10
1.96508e-08
1.06959e-09
-1.58431e-08
-1.55266e-10
-1.93552e-09
1.24849e-08
2.26939e-09
1.79178e-09
5.34157e-09
-2.10398e-09
-7.72337e-08
-2.41776e-08
-4.91855e-09
1.58343e-08
2.42549e-09
-1.37878e-10
-3.00516e-09
-1.10419e-09
3.56018e-10
-3.13514e-10
-1.01407e-08
-3.54893e-10
1.04956e-08
-1.08413e-08
-6.60013e-09
1.0718e-08
-9.45926e-09
8.75808e-09
1.86557e-10
1.5274e-09
9.65919e-09
-9.57229e-09
-8.69011e-11
6.05772e-10
8.5391e-11
1.06516e-08
6.41908e-10
-8.05144e-10
-1.12493e-10
-1.4244e-08
-4.81521e-10
-1.37898e-08
1.26448e-08
-1.18573e-08
-6.60341e-08
6.49887e-08
1.04543e-09
2.56772e-10
-2.3343e-10
1.19858e-08
-2.33036e-10
9.37008e-12
-2.04902e-09
2.76563e-09
-3.42912e-09
-1.34758e-08
-1.62612e-09
2.57269e-09
-4.72666e-09
-1.40723e-08
1.60193e-09
5.56744e-09
9.65276e-09
-9.01353e-09
-2.57765e-10
2.47298e-11
-9.32359e-09
-1.33164e-08
1.50871e-10
-6.26996e-08
2.363e-10
6.24633e-08
6.9512e-10
6.3432e-08
-2.24154e-10
-1.5807e-09
-1.44877e-08
1.08009e-10
-6.34001e-08
6.32921e-08
1.83416e-10
-6.29414e-08
6.2758e-08
3.58742e-10
6.18027e-08
1.5042e-10
-6.19531e-08
6.16338e-08
1.68945e-10
-8.78921e-08
8.85015e-08
-1.90768e-12
9.3396e-08
-9.31027e-08
-2.67615e-10
-8.6631e-08
-4.34504e-10
9.33549e-08
-1.83313e-10
-8.49171e-08
-7.68577e-10
9.34857e-08
1.73111e-10
-5.22662e-10
1.96102e-09
9.23618e-08
-6.93156e-08
6.21436e-08
-6.23244e-08
-6.29554e-08
6.14912e-08
1.42599e-10
-3.10297e-09
2.93767e-09
-1.41218e-08
5.08e-11
9.43287e-11
1.40726e-09
8.75147e-09
-1.13847e-08
3.82964e-08
-3.45244e-08
-1.6747e-08
1.37944e-08
-4.26415e-11
-2.13853e-10
1.59062e-10
6.63347e-10
-1.29178e-10
3.23129e-10
4.481e-09
1.03625e-09
-3.61825e-09
-1.85284e-10
2.26666e-10
-1.36952e-10
-2.56101e-09
1.31776e-08
2.41323e-09
-1.44357e-08
-2.62484e-09
-3.34823e-09
5.567e-09
1.04543e-09
-2.65397e-09
1.42892e-08
-1.15847e-09
-2.03214e-09
2.30792e-09
-8.12561e-09
-1.90589e-08
-1.34618e-08
7.97257e-09
5.83045e-09
-2.28305e-10
-5.57869e-10
3.00633e-09
1.4476e-08
2.26607e-09
-1.82981e-09
-3.91816e-10
4.41811e-10
-2.43189e-10
1.5963e-08
-5.73578e-10
-1.57443e-08
-3.24995e-10
-4.64786e-10
3.22865e-10
-2.48081e-10
3.46089e-09
-1.64133e-08
4.68864e-10
-1.53655e-09
-2.12696e-09
-2.32432e-09
1.56278e-08
-9.05952e-08
-1.38968e-10
9.16826e-08
-1.90467e-10
-8.91677e-08
-4.76647e-10
9.31057e-08
-2.75461e-10
-9.29162e-08
-5.52485e-10
-1.62153e-09
1.67529e-08
9.19839e-08
-1.96806e-10
2.89624e-11
-2.2117e-10
9.8717e-09
2.52346e-09
-7.52969e-09
-1.21696e-08
-5.67819e-09
8.42595e-09
1.47402e-09
-6.82026e-09
-6.01428e-09
9.0283e-09
-8.04582e-11
1.01448e-08
1.94951e-08
-1.79702e-08
3.08094e-09
-1.26894e-08
3.08671e-09
-6.99765e-08
3.94238e-09
-2.0576e-08
-1.30819e-08
-4.9094e-10
-5.9489e-09
-1.52835e-08
9.08874e-09
-1.51563e-08
4.35592e-10
3.68376e-10
-1.87438e-09
-1.65965e-08
1.70341e-08
7.34494e-09
-7.79454e-09
-4.76936e-09
1.52776e-08
-1.6804e-09
6.92087e-10
-9.81796e-10
1.57473e-10
1.19461e-08
3.32106e-09
7.09093e-08
-1.82395e-08
7.50654e-10
-1.49918e-08
-2.36355e-10
-2.76047e-10
-9.16031e-11
6.09533e-08
-6.12287e-08
-6.33711e-08
-6.31382e-08
-6.39591e-11
-2.62396e-10
-9.25899e-08
-6.04543e-08
6.24153e-08
6.50988e-08
-6.02812e-08
6.45761e-08
-6.04645e-08
6.38075e-08
-6.07321e-08
6.3373e-08
9.23127e-08
2.84227e-10
-6.36962e-09
7.51139e-08
-6.54232e-08
4.11955e-11
-4.11955e-11
3.58556e-10
-3.27182e-10
1.54844e-08
-2.85561e-11
2.85561e-11
3.40049e-10
1.53147e-09
1.38973e-08
1.33889e-08
-2.73252e-09
3.72543e-09
6.55274e-09
1.84618e-09
3.72795e-10
-2.54654e-10
-2.97882e-09
1.45813e-08
1.48465e-08
-4.28464e-09
1.18184e-08
1.86038e-10
1.48989e-10
2.76191e-09
-8.39282e-10
-1.55273e-09
-5.83892e-09
-2.05443e-10
-4.00446e-10
1.53062e-08
2.58552e-10
6.83251e-11
1.45712e-08
-2.61726e-08
1.77477e-08
2.64639e-09
1.27912e-09
2.4955e-09
-3.72394e-09
1.92937e-08
-1.80652e-08
-8.10071e-11
2.06834e-10
-1.4402e-09
-7.92099e-08
-7.07558e-08
1.32441e-09
-5.40525e-10
6.45992e-10
2.29816e-08
1.86005e-08
-6.35186e-09
7.66632e-11
-4.29658e-09
-2.51259e-09
2.99486e-08
1.53551e-10
1.48184e-08
7.35811e-08
5.1902e-11
5.17445e-10
-1.58165e-10
-2.17465e-10
-3.66009e-09
2.42517e-08
-1.48676e-08
9.90721e-10
-1.41695e-08
-5.31336e-11
2.03817e-08
-2.86827e-08
9.35434e-10
1.98292e-09
-3.05784e-10
)
;

boundaryField
{
    back
    {
        type            empty;
        value           nonuniform 0();
    }
    ingreso
    {
        type            calculated;
        value           nonuniform List<scalar> 
14
(
-1.54286e-08
-1.54288e-08
-1.54288e-08
-1.54288e-08
-1.54286e-08
-1.54283e-08
-1.54288e-08
-1.54288e-08
-1.54286e-08
-1.54286e-08
-1.54288e-08
-1.5428e-08
-1.5428e-08
-1.54286e-08
)
;
    }
    salida
    {
        type            calculated;
        value           nonuniform List<scalar> 2(1.01411e-07 1.14589e-07);
    }
    front
    {
        type            empty;
        value           nonuniform 0();
    }
    defaultFaces
    {
        type            calculated;
        value           uniform 0;
    }
}


// ************************************************************************* //
