/*--------------------------------*- C++ -*----------------------------------*\
  =========                 |
  \\      /  F ield         | OpenFOAM: The Open Source CFD Toolbox
   \\    /   O peration     | Website:  https://openfoam.org
    \\  /    A nd           | Version:  7
     \\/     M anipulation  |
\*---------------------------------------------------------------------------*/
FoamFile
{
    version     2.0;
    format      ascii;
    class       volScalarField;
    location    "27";
    object      p;
}
// * * * * * * * * * * * * * * * * * * * * * * * * * * * * * * * * * * * * * //

dimensions      [0 2 -2 0 0 0 0];

internalField   nonuniform List<scalar> 
591
(
0.000123999
0.000124015
0.00012403
0.000123993
0.000123994
0.000124084
0.000124054
0.000124026
0.000116982
0.000124028
0.000124185
0.000122903
0.000124058
0.000119785
0.000124028
0.000124068
0.00012395
0.000124061
0.000122033
0.00012341
0.000123994
-3.58428e-06
0.000124184
0.000123996
0.000124143
0.000124014
0.00012408
0.000124106
0.000124024
0.000124059
0.000124162
0.000124139
0.000124158
0.000124156
0.000124159
0.000123505
0.000124154
0.000124009
0.000124179
0.000124094
0.000124082
0.000124151
0.000124024
0.000124046
0.000124148
0.000124166
0.000119295
0.000124169
0.000124038
0.000124141
0.000124103
0.000124143
2.38681e-05
3.05449e-05
4.78425e-05
0.000124048
0.000124173
0.000124154
0.000124167
0.000124
0.000124078
0.00012402
0.000124026
0.000124096
0.00012264
0.000124022
0.000124027
0.000124165
0.000120765
0.000124048
0.000124026
0.000124171
0.000124129
0.000124152
0.000124157
0.000124133
0.000123993
0.000124168
0.000123998
0.000123916
0.000123781
0.000124172
0.000124135
0.000124103
0.00012418
0.000124006
0.000124097
0.000124163
0.000124127
0.000123886
0.00012414
0.000124072
0.000124098
0.000124006
0.000124179
0.000124136
0.000123711
0.000123607
0.000123727
0.000124183
0.000124094
0.000124008
0.000124186
0.000123997
0.000124185
0.000124028
0.000124015
0.000124136
0.000124176
0.000124181
0.000124064
0.000124153
0.000124044
0.000124161
0.000124181
0.000124158
0.000124104
0.000124113
0.000123658
0.000124069
0.000124025
0.000124066
0.000124063
0.000124011
0.000124155
0.000120284
0.000124184
0.000124157
0.000123782
0.000124158
0.000124013
0.000123706
0.000124118
0.000124117
0.000124161
0.000124038
0.000122677
0.000124186
0.000124022
0.000123663
0.000123724
0.00012409
0.000124162
0.000124178
0.000124174
7.54227e-06
3.61608e-06
1.9704e-06
3.81454e-05
3.66898e-05
5.59107e-06
3.82827e-05
1.57299e-05
3.72516e-05
1.77913e-05
0.000124022
0.000124007
0.000124171
0.000124169
0.000124175
0.000124173
0.000124167
0.000124165
0.000124167
0.000124168
0.000124128
0.000124176
0.000124171
0.000124177
0.000124104
0.000123463
0.000124179
0.000122181
0.000124149
0.00012416
0.000124101
0.000124027
0.00012416
0.000124169
0.000124165
0.000123572
0.000122528
0.000123115
0.000123535
0.000124164
0.000124168
0.000124117
0.000123999
0.00012416
0.000123024
0.000123388
0.000124001
0.00012416
0.000123859
0.000124153
0.000124159
0.00012413
0.000123831
0.000123985
0.000124158
0.00012417
0.000124162
0.000123953
0.000124144
0.00012395
0.000124177
0.000124025
0.000124017
0.000124173
0.000123802
0.000123988
0.000124038
0.00012364
0.000124124
0.000123787
0.00012407
0.000124067
0.000124147
0.000123561
0.000124065
0.000123973
0.000123987
0.000124134
0.000123893
0.000124058
0.000123964
0.000123867
0.00012398
0.00012418
0.000123933
0.000124173
0.000124007
0.000124147
0.000124008
0.000124004
0.00012418
0.000123913
0.000124171
0.000123909
0.000123956
0.000124034
0.000124007
0.000124027
0.000124025
0.000123778
0.000123988
0.000123933
0.000124139
0.000124011
0.000123834
0.000124128
0.000123394
0.000123948
0.000123313
0.000123161
0.000124013
0.000123976
0.000124007
0.000124003
0.000123949
0.000124177
0.000124046
0.000124121
0.00012404
0.00012405
0.000124062
0.000124127
0.000123783
0.000124173
0.000123824
0.000123719
0.000124036
0.000124149
0.000123734
0.000124174
0.000124073
0.00012412
0.000124131
0.000124041
0.00012399
0.000123788
0.000123974
0.000123986
0.000124034
0.000124073
0.000124147
0.000124158
0.000124168
0.000123946
0.000124038
0.000124151
0.000124161
0.000124158
0.000123968
0.000124169
0.00012404
0.000124141
0.000123934
0.00012417
0.000123929
0.000124148
0.000124069
0.000123993
1.16063e-05
2.18872e-05
0.000123974
0.00012402
0.000124175
0.000123959
0.000124176
0.000124033
0.00012417
0.00012415
0.000123921
0.000124144
0.000123985
0.00012417
0.000124032
-2.11853e-07
0.000123847
0.000124151
0.000124148
0.00012388
0.000123988
0.000124018
0.000124144
0.000123945
0.000124164
0.000124063
0.000124027
0.000124141
0.000123993
0.000123915
0.000123937
0.000124045
4.73834e-05
0.000124159
0.000124141
0.000124011
0.000124165
0.000124087
0.000124037
0.00012401
0.00012402
0.000124152
0.00012407
0.000123953
0.000124037
0.000123957
0.000124165
0.000123963
0.000124001
0.000124044
0.000124124
1.98541e-05
2.72469e-05
3.42793e-05
9.57335e-06
0.000123998
3.30282e-05
2.59373e-05
0.000124162
1.9065e-05
1.70142e-05
3.81738e-05
7.48524e-06
3.99271e-05
5.50121e-06
4.08288e-05
3.5642e-06
4.28148e-05
1.75768e-06
3.63686e-05
2.31537e-05
2.93832e-05
1.49374e-05
0.000123865
0.000124172
0.000124064
0.000124076
0.00012099
0.000124149
0.000124167
0.000124139
0.000123977
0.000124172
0.000124165
0.000124155
0.000124152
0.000123928
0.00012402
0.000124149
0.000124153
0.000123995
0.00012389
0.00012388
0.000123475
0.00012394
0.000124182
0.000124159
0.00012403
0.000124181
0.000123878
0.000124024
0.000123834
0.00012295
0.000124153
0.000124164
0.00012418
0.000123881
0.000124031
0.000123838
0.000124036
0.000124011
2.59654e-05
2.18451e-05
3.30088e-05
1.15379e-05
0.000124187
0.000123884
1.98283e-05
2.81926e-05
3.55854e-05
9.50529e-06
0.000123995
0.000124109
0.000123979
0.000123973
0.000124056
0.00012411
0.000123902
0.00012415
0.000124073
0.000123175
0.00012398
0.000123948
5.92415e-05
0.000123302
0.000124177
0.000124011
0.000123916
0.000124166
0.000124169
0.000124001
0.000123789
0.000124028
0.000124093
0.000123866
0.000124123
0.000122995
0.000123973
0.00012396
0.000124118
0.000100844
0.000123964
0.000123566
0.000123948
0.000124179
0.000123844
1.07872e-05
2.10869e-05
3.53651e-05
2.81039e-05
1.36001e-05
-1.90876e-08
4.20234e-05
2.6006e-06
4.01244e-05
4.65959e-06
3.93917e-05
6.71897e-06
3.86069e-05
8.7478e-06
3.72839e-05
1.36668e-05
3.16878e-05
3.05139e-05
2.3897e-05
2.52254e-05
1.77812e-05
1.28532e-05
1.56893e-05
0.000124171
0.000102491
0.000124001
0.000123946
0.000124175
0.000124071
0.000124181
0.000123908
0.000124082
0.000124146
0.00012414
0.000124195
0.000123913
0.000124052
0.00012388
0.000124111
0.000123974
0.000124175
0.000124026
0.000123858
0.00012386
0.000124065
0.000124071
0.000124183
0.000124173
0.000124177
0.000124144
0.000124181
0.000123827
0.000124026
0.000124177
0.000123971
0.000124122
0.000124024
0.000124025
0.000123892
0.000124144
0.000124143
0.000123471
0.000121422
0.000123206
0.000123741
0.000124025
0.000123849
0.000124066
0.00012418
0.000124135
0.000124042
0.000123632
0.00012362
0.000124177
0.000124147
0.000124054
0.00012411
0.000123665
5.8323e-05
4.0104e-05
0.000124118
0.000124135
0.000123515
0.000122826
0.00012401
0.000123703
0.000123451
0.000124048
0.000123886
0.000124157
0.000124047
0.000124085
0.000119089
5.44824e-05
0.000124053
8.11792e-05
1.74323e-06
-4.04079e-07
0.000124022
0.000123995
0.000124145
0.000124181
0.000124167
0.000124177
0.000124169
0.00012401
-2.36028e-06
0.000122921
0.000124038
0.000124125
0.0001221
0.000124175
0.000124175
0.000122341
0.00012412
0.000124147
0.00012175
0.000124173
7.63793e-05
0.000124174
0.000123654
0.000124138
0.000122455
0.000123723
0.000123745
0.000124057
0.000124176
0.000124132
0.000124174
0.000124186
0.00012403
0.000116255
)
;

boundaryField
{
    back
    {
        type            empty;
    }
    ingreso
    {
        type            zeroGradient;
    }
    salida
    {
        type            fixedValue;
        value           uniform 0;
    }
    front
    {
        type            empty;
    }
    defaultFaces
    {
        type            zeroGradient;
    }
}


// ************************************************************************* //
