/*--------------------------------*- C++ -*----------------------------------*\
  =========                 |
  \\      /  F ield         | OpenFOAM: The Open Source CFD Toolbox
   \\    /   O peration     | Website:  https://openfoam.org
    \\  /    A nd           | Version:  7
     \\/     M anipulation  |
\*---------------------------------------------------------------------------*/
FoamFile
{
    version     2.0;
    format      ascii;
    class       volScalarField;
    location    "15.5";
    object      p;
}
// * * * * * * * * * * * * * * * * * * * * * * * * * * * * * * * * * * * * * //

dimensions      [0 2 -2 0 0 0 0];

internalField   nonuniform List<scalar> 
591
(
0.00012432
0.000124334
0.000124362
0.000124321
0.000124322
0.000124454
0.000124375
0.000124357
0.000117185
0.000124349
0.000124496
0.000123196
0.000124436
0.000120072
0.00012436
0.000124377
0.000124248
0.000124388
0.000122297
0.000123724
0.000124321
-1.41106e-06
0.000124495
0.000124321
0.00012445
0.000124329
0.000124381
0.000124415
0.000124339
0.000124398
0.00012447
0.000124447
0.000124467
0.000124465
0.000124468
0.000123827
0.000124463
0.00012434
0.000124487
0.000124399
0.000124382
0.00012446
0.000124346
0.000124375
0.000124457
0.000124474
0.000119613
0.000124477
0.000124352
0.000124461
0.000124408
0.000124451
2.38193e-05
3.02524e-05
4.81024e-05
0.00012439
0.000124481
0.000124461
0.000124475
0.000124313
0.000124389
0.000124338
0.000124348
0.000124469
0.000122926
0.000124342
0.000124348
0.000124473
0.000121058
0.000124385
0.000124344
0.000124479
0.000124434
0.00012446
0.000124465
0.000124439
0.000124308
0.000124475
0.000124315
0.00012423
0.000124103
0.00012448
0.000124444
0.000124407
0.000124488
0.000124324
0.000124412
0.00012447
0.000124435
0.000124201
0.000124449
0.000124375
0.000124405
0.000124328
0.000124487
0.000124448
0.000124034
0.000123924
0.000124038
0.00012449
0.000124403
0.000124328
0.000124493
0.000124326
0.000124491
0.000124351
0.00012434
0.00012444
0.000124486
0.000124489
0.000124374
0.000124459
0.00012436
0.000124468
0.000124489
0.00012447
0.000124407
0.000124421
0.000123956
0.000124372
0.000124347
0.000124462
0.000124373
0.000124328
0.000124467
0.000120521
0.000124493
0.00012446
0.000124105
0.000124466
0.000124333
0.000124026
0.00012443
0.000124426
0.000124469
0.000124365
0.000122995
0.000124494
0.000124346
0.000123965
0.000124028
0.000124399
0.00012447
0.000124486
0.000124481
8.93446e-06
5.12665e-06
3.57826e-06
3.85728e-05
3.70156e-05
7.07209e-06
3.86401e-05
1.62829e-05
3.76116e-05
1.81005e-05
0.000124344
0.00012432
0.000124479
0.000124477
0.000124483
0.00012448
0.000124474
0.000124472
0.000124475
0.000124475
0.000124432
0.000124484
0.000124479
0.000124484
0.000124407
0.000123765
0.000124487
0.000122465
0.000124454
0.000124468
0.000124407
0.000124343
0.000124468
0.000124477
0.000124472
0.000123875
0.000122825
0.000123409
0.000123835
0.000124472
0.000124476
0.000124448
0.00012432
0.000124468
0.000123306
0.000123685
0.000124322
0.000124469
0.000124173
0.000124461
0.000124466
0.000124434
0.000124139
0.000124307
0.000124465
0.000124481
0.000124467
0.000124258
0.000124447
0.00012426
0.000124484
0.000124351
0.000124345
0.00012448
0.000124116
0.00012431
0.00012437
0.000123942
0.000124433
0.000124093
0.000124377
0.00012437
0.000124453
0.000123867
0.000124374
0.000124292
0.000124316
0.000124439
0.000124205
0.000124369
0.000124276
0.000124177
0.000124306
0.000124487
0.00012424
0.00012448
0.000124309
0.000124454
0.000124321
0.000124315
0.000124486
0.000124232
0.000124479
0.000124228
0.000124275
0.000124369
0.000124332
0.000124344
0.000124343
0.000124085
0.000124305
0.000124248
0.000124445
0.000124335
0.000124148
0.000124433
0.000123695
0.000124275
0.000123626
0.000123451
0.000124339
0.000124292
0.00012433
0.000124327
0.00012426
0.000124483
0.000124361
0.000124429
0.00012435
0.000124367
0.000124377
0.000124432
0.000124094
0.00012448
0.000124136
0.000124025
0.000124359
0.000124458
0.000124038
0.000124482
0.000124378
0.000124422
0.000124439
0.000124371
0.000124309
0.000124091
0.000124302
0.000124315
0.000124347
0.000124378
0.000124456
0.000124464
0.000124475
0.000124264
0.000124349
0.000124457
0.00012447
0.000124466
0.000124289
0.00012448
0.000124347
0.000124446
0.000124248
0.000124477
0.000124248
0.000124455
0.000124387
0.000124315
1.26678e-05
2.20023e-05
0.000124301
0.000124344
0.000124483
0.000124278
0.000124483
0.000124352
0.000124477
0.000124458
0.000124244
0.000124452
0.000124303
0.000124477
0.000124361
-1.60612e-08
0.000124144
0.000124457
0.000124455
0.000124206
0.000124295
0.000124318
0.00012445
0.000124271
0.000124472
0.000124373
0.000124356
0.000124448
0.000124323
0.00012424
0.000124262
0.00012437
4.77022e-05
0.000124466
0.000124448
0.000124329
0.000124472
0.000124397
0.000124355
0.000124324
0.000124334
0.000124459
0.000124444
0.000124276
0.000124342
0.000124281
0.000124474
0.000124287
0.000124313
0.00012436
0.00012444
2.00325e-05
2.69277e-05
3.42506e-05
1.08206e-05
0.000124323
3.28003e-05
2.58731e-05
0.00012447
1.92854e-05
1.74441e-05
3.8336e-05
8.94862e-06
4.03141e-05
7.04866e-06
4.13436e-05
5.13152e-06
4.31742e-05
3.22157e-06
3.67171e-05
2.30445e-05
2.9008e-05
1.56301e-05
0.000124178
0.00012448
0.000124378
0.000124399
0.000121238
0.000124514
0.000124475
0.000124446
0.000124302
0.00012448
0.000124471
0.000124464
0.000124461
0.000124244
0.000124321
0.000124454
0.000124458
0.000124304
0.000124202
0.000124163
0.000123772
0.000124244
0.000124491
0.000124467
0.00012434
0.000124491
0.000124205
0.000124326
0.000124156
0.000123248
0.000124462
0.000124472
0.000124487
0.000124193
0.000124335
0.000124163
0.000124353
0.000124312
2.57035e-05
2.18558e-05
3.29249e-05
1.26455e-05
0.000124497
0.000124212
1.99006e-05
2.78032e-05
3.56532e-05
1.08307e-05
0.000124304
0.000124417
0.000124303
0.000124288
0.000124445
0.000124415
0.000124203
0.000124459
0.000124378
0.000123471
0.000124297
0.000124265
5.95411e-05
0.000123605
0.000124484
0.000124341
0.00012424
0.000124473
0.000124476
0.000124331
0.000124107
0.000124363
0.000124401
0.000124179
0.000124429
0.000123304
0.000124301
0.000124279
0.000124421
0.000101073
0.000124263
0.00012387
0.000124272
0.000124488
0.000124167
1.19684e-05
2.1184e-05
3.54114e-05
2.79468e-05
1.44375e-05
1.51372e-06
4.23606e-05
4.21888e-06
4.0498e-05
6.21528e-06
3.97918e-05
8.1536e-06
3.90139e-05
1.00808e-05
3.76068e-05
1.44807e-05
3.14218e-05
3.02738e-05
2.39255e-05
2.49724e-05
1.80488e-05
1.3815e-05
1.62315e-05
0.000124478
0.000102636
0.000124323
0.000124272
0.000124483
0.000124382
0.000124489
0.000124224
0.000124454
0.000124455
0.000124448
0.000124563
0.00012422
0.00012442
0.000124187
0.000124418
0.000124299
0.000124483
0.000124325
0.000124164
0.000124163
0.000124432
0.000124475
0.000124493
0.000124481
0.000124485
0.000124451
0.000124488
0.000124137
0.000124347
0.000124485
0.000124288
0.000124497
0.000124344
0.00012433
0.000124206
0.000124452
0.000124452
0.000123791
0.00012175
0.000123517
0.000124052
0.000124333
0.000124168
0.000124448
0.000124487
0.000124439
0.000124381
0.000123943
0.000123942
0.000124485
0.000124455
0.000124384
0.000124416
0.000123975
5.85829e-05
4.03266e-05
0.000124424
0.000124442
0.000123827
0.000123118
0.00012434
0.000123997
0.000123752
0.000124426
0.000124193
0.000124461
0.000124355
0.000124408
0.000119308
5.46441e-05
0.000124384
8.14168e-05
2.32761e-06
5.2292e-07
0.000124343
0.000124326
0.000124454
0.000124488
0.000124473
0.000124486
0.000124474
0.000124333
-1.45378e-06
0.000123216
0.000124364
0.000124432
0.00012235
0.000124483
0.000124483
0.000122636
0.000124447
0.000124456
0.000122058
0.00012448
7.65898e-05
0.000124482
0.000123899
0.000124446
0.00012274
0.000124039
0.00012405
0.000124382
0.000124482
0.00012444
0.000124482
0.000124496
0.000124337
0.000116463
)
;

boundaryField
{
    back
    {
        type            empty;
    }
    ingreso
    {
        type            zeroGradient;
    }
    salida
    {
        type            fixedValue;
        value           uniform 0;
    }
    front
    {
        type            empty;
    }
    defaultFaces
    {
        type            zeroGradient;
    }
}


// ************************************************************************* //
