/*--------------------------------*- C++ -*----------------------------------*\
  =========                 |
  \\      /  F ield         | OpenFOAM: The Open Source CFD Toolbox
   \\    /   O peration     | Website:  https://openfoam.org
    \\  /    A nd           | Version:  7
     \\/     M anipulation  |
\*---------------------------------------------------------------------------*/
FoamFile
{
    version     2.0;
    format      ascii;
    class       volScalarField;
    location    "66.5";
    object      p;
}
// * * * * * * * * * * * * * * * * * * * * * * * * * * * * * * * * * * * * * //

dimensions      [0 2 -2 0 0 0 0];

internalField   nonuniform List<scalar> 
591
(
0.000123901
0.000123918
0.000123923
0.000123876
0.000123879
0.000123949
0.000123944
0.000123911
0.000116997
0.000123928
0.000124106
0.000122842
0.000123917
0.000119744
0.000123911
0.00012396
0.000123889
0.000123953
0.000121964
0.00012329
0.000123892
-3.52579e-06
0.000124104
0.000123895
0.000124062
0.000123915
0.000124014
0.000124023
0.000123928
0.000123937
0.000124081
0.000124057
0.000124076
0.000124075
0.000124077
0.000123402
0.000124072
0.000123895
0.000124099
0.000124018
0.000123982
0.000124069
0.000123923
0.000123944
0.000124066
0.000124086
0.000119258
0.00012409
0.000123928
0.000124046
0.000124033
0.000124066
2.39435e-05
3.05878e-05
4.78453e-05
0.000123922
0.000124094
0.000124081
0.000124087
0.000123901
0.000123988
0.000123918
0.000123917
0.000123966
0.000122583
0.000123919
0.000123922
0.000124084
0.000120736
0.000123932
0.000123927
0.000124091
0.000124059
0.00012407
0.000124076
0.000124052
0.000123896
0.000124088
0.000123898
0.000123832
0.000123676
0.000124093
0.000124053
0.000124031
0.0001241
0.000123909
0.000124
0.000124083
0.000124045
0.000123798
0.000124058
0.000124002
0.000124019
0.000123901
0.000124098
0.000124053
0.000123606
0.000123505
0.000123661
0.000124104
0.000124012
0.000123929
0.000124108
0.000123875
0.000124108
0.00012392
0.000123917
0.000124057
0.000124099
0.000124103
0.00012399
0.000124078
0.000123934
0.000124084
0.000124102
0.000124081
0.000124034
0.000124031
0.000123593
0.000124002
0.00012392
0.000123915
0.000123995
0.000123901
0.000124072
0.000120212
0.000124107
0.000124083
0.000123673
0.000124077
0.000123911
0.000123598
0.000124042
0.000124039
0.00012408
0.000123925
0.000122635
0.000124106
0.000123913
0.000123592
0.000123656
0.000124006
0.000124088
0.000124099
0.000124094
7.61742e-06
3.679e-06
2.07143e-06
3.81597e-05
3.66997e-05
5.6617e-06
3.83102e-05
1.57418e-05
3.72906e-05
1.78083e-05
0.000123919
0.00012391
0.000124095
0.000124089
0.000124096
0.000124095
0.000124088
0.000124084
0.000124094
0.000124093
0.000124057
0.000124097
0.000124092
0.000124099
0.000124035
0.000123406
0.000124099
0.000122134
0.000124078
0.00012408
0.000124027
0.000123929
0.00012408
0.000124093
0.000124091
0.000123504
0.000122485
0.000123061
0.000123459
0.000124084
0.00012409
0.000124006
0.000123891
0.000124085
0.000122978
0.000123316
0.000123893
0.000124078
0.000123774
0.000124072
0.000124087
0.000124061
0.000123743
0.000123882
0.000124085
0.000124092
0.000124089
0.000123886
0.000124073
0.000123882
0.000124101
0.000123914
0.000123912
0.000124097
0.000123706
0.000123883
0.000123923
0.000123558
0.000124048
0.000123704
0.000123992
0.000124001
0.000124076
0.000123472
0.000123982
0.000123875
0.000123877
0.000124054
0.000123812
0.000123968
0.000123881
0.000123791
0.00012387
0.000124102
0.000123856
0.000124098
0.000123945
0.000124074
0.000123923
0.000123924
0.000124104
0.000123818
0.000124091
0.000123808
0.000123855
0.000123919
0.000123898
0.000123934
0.00012392
0.000123689
0.000123894
0.000123845
0.000124062
0.000123913
0.000123761
0.000124048
0.000123314
0.000123869
0.000123209
0.00012309
0.000123905
0.00012387
0.000123907
0.000123904
0.00012387
0.000124102
0.000123949
0.000124034
0.000123959
0.000123954
0.000123967
0.000124054
0.000123705
0.000124098
0.000123742
0.000123632
0.000123937
0.000124073
0.000123654
0.000124095
0.000124001
0.000124029
0.000124052
0.000123929
0.000123898
0.000123726
0.000123865
0.000123891
0.000123944
0.000123998
0.000124066
0.000124082
0.000124088
0.000123848
0.000123952
0.000124075
0.000124082
0.000124078
0.000123872
0.000124089
0.000123963
0.00012407
0.000123835
0.00012409
0.000123824
0.000124068
0.000123958
0.000123899
1.16425e-05
2.19126e-05
0.000123853
0.000123925
0.0001241
0.000123854
0.000124101
0.000123935
0.00012409
0.000124068
0.000123808
0.000124062
0.000123893
0.000124096
0.000123927
-2.09651e-07
0.000123786
0.000124073
0.000124068
0.000123769
0.000123912
0.000123953
0.000124063
0.000123826
0.000124084
0.00012397
0.000123919
0.000124061
0.000123873
0.0001238
0.000123832
0.000123929
4.7474e-05
0.000124079
0.000124062
0.000123918
0.000124085
0.000123998
0.000123941
0.000123922
0.000123911
0.000124071
0.000123937
0.000123845
0.000123964
0.000123849
0.000124084
0.000123856
0.000123911
0.000123947
0.000124032
1.98734e-05
2.7333e-05
3.42944e-05
9.63944e-06
0.000123896
3.30534e-05
2.60013e-05
0.000124081
1.90743e-05
1.70302e-05
3.81853e-05
7.57578e-06
3.99375e-05
5.60418e-06
4.08323e-05
3.68827e-06
4.28158e-05
1.87547e-06
3.64025e-05
2.31979e-05
2.94495e-05
1.49926e-05
0.000123774
0.000124092
0.000123963
0.000123969
0.000120907
0.000124015
0.000124087
0.000124058
0.000123863
0.000124092
0.000124092
0.000124073
0.00012407
0.000123836
0.000123912
0.000124075
0.000124081
0.000123919
0.000123793
0.000123855
0.000123423
0.000123874
0.000124105
0.000124077
0.000123923
0.0001241
0.000123769
0.000123946
0.000123727
0.000122877
0.000124072
0.000124083
0.000124104
0.00012378
0.000123961
0.000123727
0.000123935
0.000123925
2.60427e-05
2.18773e-05
3.30351e-05
1.16186e-05
0.000124108
0.000123774
1.98199e-05
2.82544e-05
3.56018e-05
9.58805e-06
0.000123922
0.000124024
0.000123876
0.000123886
0.000123913
0.000124041
0.000123833
0.000124068
0.000124006
0.000123115
0.00012389
0.000123857
5.93559e-05
0.000123239
0.000124097
0.000123905
0.000123802
0.000124086
0.000124089
0.000123888
0.000123687
0.000123915
0.000123982
0.000123769
0.000124043
0.000122928
0.000123852
0.000123866
0.000124049
0.000100887
0.000123898
0.000123501
0.000123836
0.000124098
0.000123736
1.0896e-05
2.11148e-05
3.53666e-05
2.81902e-05
1.36624e-05
5.44371e-08
4.20798e-05
2.68956e-06
4.01587e-05
4.76167e-06
3.94169e-05
6.81452e-06
3.86237e-05
8.85732e-06
3.72893e-05
1.36744e-05
3.17269e-05
3.05829e-05
2.39376e-05
2.52767e-05
1.77654e-05
1.29385e-05
1.57079e-05
0.000124091
0.000102422
0.000123895
0.000123829
0.000124095
0.000123987
0.000124101
0.000123819
0.000123949
0.000124063
0.000124058
0.000124067
0.000123821
0.000123919
0.000123817
0.000124025
0.000123858
0.000124096
0.000123962
0.000123794
0.000123798
0.00012393
0.000123922
0.000124102
0.000124093
0.000124102
0.000124063
0.000124105
0.000123735
0.000123916
0.000124097
0.000123862
0.00012399
0.00012392
0.000123957
0.000123801
0.000124062
0.000124061
0.000123375
0.000121388
0.000123104
0.000123648
0.000123917
0.000123747
0.000123928
0.000124102
0.000124064
0.000123922
0.000123536
0.000123516
0.000124097
0.000124065
0.000123936
0.000124031
0.000123574
5.83219e-05
4.01176e-05
0.000124036
0.000124053
0.000123416
0.000122761
0.000123903
0.000123643
0.000123389
0.000123914
0.000123814
0.000124085
0.000123946
0.000123973
0.000119016
5.4478e-05
0.000123943
8.12377e-05
1.86164e-06
-3.81237e-07
0.000123912
0.000123882
0.000124063
0.000124104
0.000124093
0.000124096
0.000124095
0.000123898
-2.30758e-06
0.000122844
0.000123936
0.000124043
0.000122023
0.000124095
0.000124095
0.000122302
0.000124012
0.000124065
0.000121709
0.000124099
7.63527e-05
0.000124093
0.000123723
0.000124057
0.00012239
0.000123624
0.00012368
0.000123946
0.000124101
0.00012405
0.000124094
0.000124106
0.000123918
0.00011619
)
;

boundaryField
{
    back
    {
        type            empty;
    }
    ingreso
    {
        type            zeroGradient;
    }
    salida
    {
        type            fixedValue;
        value           uniform 0;
    }
    front
    {
        type            empty;
    }
    defaultFaces
    {
        type            zeroGradient;
    }
}


// ************************************************************************* //
