/*--------------------------------*- C++ -*----------------------------------*\
  =========                 |
  \\      /  F ield         | OpenFOAM: The Open Source CFD Toolbox
   \\    /   O peration     | Website:  https://openfoam.org
    \\  /    A nd           | Version:  7
     \\/     M anipulation  |
\*---------------------------------------------------------------------------*/
FoamFile
{
    version     2.0;
    format      ascii;
    class       volScalarField;
    location    "7";
    object      p;
}
// * * * * * * * * * * * * * * * * * * * * * * * * * * * * * * * * * * * * * //

dimensions      [0 2 -2 0 0 0 0];

internalField   nonuniform List<scalar> 
591
(
0.000126275
0.000126283
0.000126338
0.00012624
0.000126247
0.000126542
0.000126333
0.000126303
0.000119139
0.000126298
0.000126445
0.000125137
0.000126505
0.000121972
0.000126293
0.000126307
0.000126164
0.000126328
0.000124193
0.000125624
0.000126273
1.15285e-06
0.000126438
0.000126234
0.000126387
0.00012627
0.000126303
0.000126348
0.000126275
0.000126362
0.000126407
0.000126384
0.000126406
0.000126403
0.000126408
0.000125777
0.000126403
0.000126293
0.000126423
0.000126334
0.000126283
0.000126399
0.000126296
0.000126329
0.000126396
0.00012641
0.000121527
0.000126414
0.000126258
0.00012641
0.000126336
0.00012638
2.77367e-05
3.37699e-05
4.96765e-05
0.000126364
0.000126417
0.000126397
0.000126412
0.000126226
0.00012632
0.000126262
0.000126277
0.000126572
0.000124814
0.000126283
0.000126297
0.000126412
0.000122849
0.000126353
0.000126277
0.000126415
0.000126364
0.000126397
0.000126401
0.000126375
0.000126244
0.000126412
0.00012624
0.000126178
0.000126044
0.000126416
0.000126386
0.000126333
0.000126423
0.000126259
0.000126342
0.000126407
0.000126376
0.000126144
0.000126391
0.000126303
0.000126331
0.000126259
0.000126422
0.000126374
0.000125982
0.000125851
0.000125985
0.000126424
0.000126352
0.000126293
0.000126426
0.000126242
0.000126423
0.000126299
0.0001263
0.000126366
0.000126431
0.000126425
0.000126326
0.000126392
0.000126254
0.000126406
0.000126423
0.000126423
0.000126337
0.000126366
0.000125897
0.000126301
0.000126288
0.00012659
0.000126329
0.000126225
0.000126409
0.000122229
0.000126428
0.000126383
0.000126043
0.000126403
0.000126263
0.00012596
0.000126385
0.000126357
0.000126406
0.000126304
0.000125014
0.000126429
0.000126278
0.000125894
0.000125969
0.000126328
0.000126406
0.000126421
0.000126417
1.06729e-05
6.54541e-06
5.06698e-06
4.01922e-05
3.83157e-05
8.58206e-06
4.08495e-05
1.91427e-05
3.98603e-05
2.12705e-05
0.000126285
0.000126274
0.000126419
0.000126413
0.000126418
0.000126415
0.000126412
0.000126409
0.00012641
0.00012641
0.000126362
0.00012642
0.000126415
0.000126418
0.000126338
0.000125695
0.000126423
0.000124342
0.000126385
0.000126405
0.000126332
0.000126282
0.000126404
0.000126413
0.000126408
0.000125819
0.000124732
0.000125319
0.000125756
0.000126409
0.000126412
0.000126409
0.000126251
0.000126402
0.000125213
0.00012562
0.000126254
0.000126412
0.000126115
0.000126397
0.000126399
0.000126364
0.000126056
0.000126251
0.000126399
0.000126427
0.0001264
0.000126188
0.000126373
0.000126212
0.000126417
0.00012629
0.000126287
0.000126415
0.000126041
0.000126233
0.000126324
0.000125852
0.000126362
0.000126009
0.000126303
0.0001263
0.000126385
0.000125773
0.000126301
0.000126255
0.000126262
0.000126369
0.000126154
0.000126299
0.000126222
0.000126127
0.000126239
0.000126421
0.00012618
0.000126417
0.000126245
0.000126388
0.000126264
0.000126255
0.000126415
0.000126161
0.000126415
0.000126153
0.000126226
0.000126334
0.000126275
0.000126281
0.000126275
0.000125998
0.000126251
0.000126197
0.000126377
0.00012629
0.000126092
0.00012636
0.000125602
0.000126279
0.000125507
0.000125382
0.000126286
0.000126191
0.000126295
0.000126288
0.000126205
0.000126414
0.000126295
0.00012636
0.000126282
0.000126303
0.000126313
0.000126359
0.000126039
0.000126414
0.000126079
0.000125935
0.000126318
0.000126397
0.000125959
0.000126418
0.000126304
0.000126337
0.000126374
0.000126319
0.000126241
0.000126025
0.000126249
0.000126309
0.000126282
0.000126304
0.000126393
0.000126399
0.000126412
0.000126214
0.000126283
0.000126389
0.00012641
0.000126404
0.00012625
0.000126425
0.000126277
0.000126376
0.000126142
0.000126414
0.000126171
0.00012639
0.000126294
0.000126266
1.49736e-05
2.55577e-05
0.000126228
0.000126305
0.000126419
0.000126198
0.000126416
0.000126295
0.000126414
0.000126396
0.000126162
0.000126388
0.000126253
0.000126412
0.000126316
2.58519e-07
0.000126058
0.00012639
0.000126387
0.000126144
0.000126227
0.000126244
0.000126383
0.000126201
0.00012641
0.000126298
0.00012633
0.00012638
0.000126246
0.000126173
0.000126207
0.000126283
4.96268e-05
0.000126399
0.00012638
0.000126275
0.000126409
0.000126328
0.0001263
0.000126269
0.000126217
0.000126395
0.000126547
0.000126194
0.00012627
0.000126206
0.000126415
0.000126215
0.000126243
0.000126298
0.00012637
2.34231e-05
3.10598e-05
3.63964e-05
1.28694e-05
0.000126226
3.52942e-05
2.96494e-05
0.000126407
2.25981e-05
2.04786e-05
3.98185e-05
1.06928e-05
4.20374e-05
8.64733e-06
4.35918e-05
6.62559e-06
4.51956e-05
4.5584e-06
3.86314e-05
2.6848e-05
3.30403e-05
1.83788e-05
0.000126096
0.000126417
0.000126313
0.00012631
0.000123016
0.000126589
0.000126411
0.000126383
0.000126224
0.000126416
0.000126402
0.000126402
0.0001264
0.000126187
0.000126172
0.000126383
0.000126388
0.000126241
0.000126131
0.000126096
0.000125686
0.000126207
0.000126429
0.000126405
0.000126223
0.000126434
0.000126145
0.000126231
0.000126093
0.000125137
0.000126399
0.000126409
0.000126427
0.000126136
0.000126263
0.000126102
0.00012629
0.000126215
2.98505e-05
2.56737e-05
3.5537e-05
1.49879e-05
0.00012644
0.000126153
2.34542e-05
3.19213e-05
3.75118e-05
1.2874e-05
0.000126253
0.000126351
0.000126251
0.000126236
0.000126571
0.000126348
0.000126134
0.000126397
0.000126311
0.000125411
0.000126248
0.000126216
6.14418e-05
0.000125539
0.00012642
0.000126278
0.000126177
0.000126408
0.000126411
0.000126277
0.000126042
0.000126303
0.00012632
0.000126104
0.000126365
0.000125235
0.000126226
0.000126233
0.00012635
0.000102777
0.000126183
0.000125803
0.000126198
0.000126428
0.000126106
1.41535e-05
2.47421e-05
3.72913e-05
3.16457e-05
1.70534e-05
3.22783e-06
4.46094e-05
5.69507e-06
4.31327e-05
7.79439e-06
4.24616e-05
9.90046e-06
4.12687e-05
1.20504e-05
3.94033e-05
1.70425e-05
3.47338e-05
3.34592e-05
2.75981e-05
2.89741e-05
2.12418e-05
1.62444e-05
1.91524e-05
0.000126415
0.000104598
0.000126228
0.000126204
0.00012642
0.000126317
0.000126426
0.000126163
0.000126558
0.000126395
0.000126388
0.00012665
0.000126151
0.000126497
0.000126125
0.00012635
0.000126224
0.00012642
0.000126242
0.000126101
0.000126092
0.000126514
0.000126608
0.000126432
0.000126418
0.000126419
0.000126386
0.000126421
0.000126053
0.000126253
0.000126421
0.000126197
0.000126599
0.00012627
0.000126264
0.000126138
0.000126391
0.000126393
0.000125721
0.000123643
0.000125376
0.000125973
0.000126211
0.000126108
0.000126566
0.000126421
0.000126369
0.000126343
0.000125861
0.000125896
0.000126421
0.000126393
0.000126316
0.000126351
0.000125889
6.01947e-05
4.20401e-05
0.000126358
0.000126376
0.000125732
0.000125073
0.00012629
0.00012591
0.000125695
0.000126544
0.00012614
0.00012639
0.000126234
0.000126314
0.000121329
5.63101e-05
0.000126338
8.31912e-05
3.02639e-06
1.71727e-06
0.000126262
0.00012627
0.000126392
0.000126422
0.00012641
0.000126424
0.000126405
0.000126265
-2.32371e-07
0.00012517
0.000126308
0.000126367
0.000124161
0.000126421
0.000126419
0.000124602
0.000126358
0.000126395
0.00012403
0.000126414
7.84945e-05
0.000126419
0.000125779
0.00012638
0.000124666
0.000125968
0.000125983
0.000126309
0.000126416
0.000126376
0.000126419
0.000126442
0.000126217
0.000118474
)
;

boundaryField
{
    back
    {
        type            empty;
    }
    ingreso
    {
        type            zeroGradient;
    }
    salida
    {
        type            fixedValue;
        value           uniform 0;
    }
    front
    {
        type            empty;
    }
    defaultFaces
    {
        type            zeroGradient;
    }
}


// ************************************************************************* //
