/*--------------------------------*- C++ -*----------------------------------*\
  =========                 |
  \\      /  F ield         | OpenFOAM: The Open Source CFD Toolbox
   \\    /   O peration     | Website:  https://openfoam.org
    \\  /    A nd           | Version:  7
     \\/     M anipulation  |
\*---------------------------------------------------------------------------*/
FoamFile
{
    version     2.0;
    format      ascii;
    class       volVectorField;
    location    "7";
    object      U;
}
// * * * * * * * * * * * * * * * * * * * * * * * * * * * * * * * * * * * * * //

dimensions      [0 1 -1 0 0 0 0];

internalField   nonuniform List<vector> 
591
(
(0.00081524 -4.79658e-05 1.22607e-18)
(0.000738964 -4.74307e-05 -6.74079e-19)
(0.000832648 -5.31197e-05 5.78505e-20)
(0.000819323 1.55236e-05 -1.50542e-19)
(0.000814335 2.32163e-05 2.27671e-19)
(0.000629009 -1.08823e-05 -1.41238e-19)
(0.000500028 -0.000371412 8.09189e-19)
(0.000808085 -1.33617e-05 2.12127e-18)
(0.00568761 0.00247882 1.00546e-18)
(0.000781023 -2.69032e-05 2.43818e-18)
(7.31772e-05 0.000180325 1.23575e-18)
(0.000885616 0.00123278 9.58609e-21)
(0.000766253 1.5566e-05 1.31387e-18)
(0.00150616 0.00238281 -8.00484e-19)
(0.000799548 7.7446e-05 -4.47919e-19)
(0.000184667 -0.000255767 3.61336e-22)
(0.000127397 0.000651708 7.17676e-19)
(0.000866167 3.12785e-05 -5.01737e-19)
(0.0020033 0.000441556 4.77433e-19)
(0.00131282 0.000320423 -2.53249e-19)
(0.000795649 4.24134e-05 3.72583e-19)
(0.00396554 0.0076452 3.8973e-20)
(4.45626e-05 8.07816e-05 2.75687e-19)
(0.00080694 2.89663e-06 -4.5216e-19)
(2.12615e-05 -2.75446e-05 3.65629e-19)
(0.000813597 2.0909e-05 0)
(8.99517e-05 0.000473917 1.62868e-19)
(0.000503543 3.49925e-05 -1.82241e-19)
(0.00071187 7.68906e-05 1.15391e-18)
(0.000818477 -7.34055e-05 5.99946e-19)
(7.1423e-05 1.63213e-06 3.31967e-24)
(5.33046e-05 -5.76078e-05 3.58852e-19)
(5.00413e-05 -5.40975e-06 -4.72689e-20)
(6.02553e-05 -6.53212e-06 0)
(6.49527e-05 -1.74908e-05 1.15045e-18)
(0.00114803 0.000157071 1.83841e-19)
(4.42901e-05 -8.67594e-06 4.55631e-20)
(0.000802637 4.40659e-06 3.93924e-23)
(4.21272e-05 5.68091e-05 2.70674e-19)
(8.79218e-05 -0.000161269 -8.7017e-19)
(0.000502769 -0.000143933 9.74402e-19)
(3.73285e-05 -1.1346e-05 4.63449e-20)
(0.000791227 -1.11923e-05 -1.57556e-18)
(0.000818637 -1.8196e-05 -6.8379e-19)
(2.78379e-05 -1.35277e-05 0)
(6.7023e-05 1.32379e-05 8.6799e-20)
(0.00125875 0.00455981 9.10446e-19)
(8.97173e-05 2.67057e-05 8.79954e-20)
(0.00078679 8.60546e-05 0)
(0.000353149 -0.000105898 6.91042e-19)
(0.000363966 0.000281661 5.21511e-21)
(0.000381279 9.03866e-05 -1.02278e-18)
(0.00605781 0.00965425 -7.22955e-19)
(0.00621297 0.00984203 1.15218e-20)
(0.00569802 0.0105509 1.51744e-18)
(0.000799893 -7.62497e-05 0)
(7.79996e-05 4.15012e-05 0)
(0.000345997 3.00994e-05 5.08393e-24)
(7.62765e-05 1.80973e-05 -3.52919e-19)
(0.000918062 -2.32107e-05 0)
(0.000589835 2.71249e-05 3.22762e-19)
(0.000754398 4.29343e-05 2.20519e-18)
(0.000733695 -8.81096e-06 -5.47213e-19)
(0.00064279 1.38213e-05 -3.18737e-19)
(0.00169883 0.000532593 5.54887e-19)
(0.000807342 -1.06083e-05 -1.14494e-18)
(0.000759602 3.58545e-05 -5.21056e-19)
(9.94708e-05 7.82295e-06 -1.76615e-19)
(0.000799085 0.00234692 0)
(0.00080096 1.65974e-05 0)
(0.000696088 1.37996e-05 -1.39376e-18)
(4.70948e-05 2.18216e-05 0)
(0.000276491 0.000277216 3.32969e-19)
(5.65137e-05 -2.37801e-05 0)
(5.42642e-05 -8.35132e-06 1.6248e-19)
(4.20076e-05 -6.33243e-05 -3.42976e-20)
(0.000745576 3.12127e-05 2.46856e-19)
(5.41529e-05 1.5822e-05 0)
(0.000767868 8.51196e-05 4.48004e-19)
(0.000732488 0.000301954 2.14755e-19)
(0.00095091 6.26678e-05 -4.0575e-20)
(5.23114e-05 3.06548e-05 -4.60409e-20)
(6.06797e-06 -5.40406e-05 0)
(0.000412003 0.000227134 1.73378e-19)
(2.94433e-07 4.18188e-05 0)
(0.000711462 -5.50266e-05 -6.09608e-19)
(0.000532457 -9.10505e-05 0)
(7.95682e-05 4.60341e-06 -1.77729e-19)
(3.91922e-06 -7.09086e-05 0)
(0.000794005 0.000232565 -3.47797e-19)
(4.19689e-06 -3.39056e-05 0)
(0.000407653 0.000322116 -1.22092e-23)
(0.000496175 0.000118146 0)
(0.000786863 2.93066e-05 1.40227e-23)
(2.40253e-06 2.89144e-05 -4.29684e-20)
(0.000420472 2.43858e-05 1.79701e-18)
(0.0010017 7.99027e-05 4.2429e-20)
(0.00105672 1.57738e-05 6.53707e-22)
(0.00072855 0.000639753 2.72431e-19)
(2.96284e-07 7.71579e-05 0)
(7.52008e-06 -0.000143929 -3.18142e-19)
(1.38005e-05 -0.000242288 -1.12125e-18)
(-3.23943e-06 0.000118002 -6.06718e-19)
(0.0007848 -2.80268e-06 0)
(-2.07524e-06 0.000148339 0)
(0.000769379 -2.68447e-05 2.19423e-18)
(0.000705785 6.50083e-05 1.52118e-18)
(0.000390268 -2.56684e-05 0)
(6.2996e-05 0.000237477 -9.09376e-19)
(-5.25418e-07 0.000231172 5.04652e-19)
(0.000105569 0.000513717 6.36767e-19)
(0.000276318 0.000145236 -9.49484e-19)
(0.00083806 -1.87802e-05 1.37234e-19)
(0.000272403 9.51534e-06 5.40937e-19)
(-2.48386e-07 5.52858e-05 0)
(7.07013e-05 0.000333162 -1.10824e-18)
(0.00030839 0.000329392 -1.64731e-19)
(8.31491e-06 -0.000104889 1.49339e-19)
(0.000619565 0.000747068 0)
(0.000349422 0.000387201 5.85168e-20)
(0.000820779 -1.0023e-06 1.05088e-18)
(0.000636581 -8.33571e-05 -2.74211e-18)
(4.98826e-06 -0.000192651 0)
(0.0008011 -9.89476e-06 -1.13334e-19)
(0.00031229 -3.43592e-05 1.267e-18)
(0.00276508 0.000831814 -3.41777e-19)
(-1.14558e-05 0.000180822 -6.23753e-19)
(-3.10719e-05 0.000227836 1.64756e-18)
(0.000920608 1.86421e-05 -3.96122e-20)
(7.71668e-05 -1.37266e-06 -7.63437e-19)
(0.00076917 5.16512e-05 -3.95924e-19)
(0.000978182 2.53999e-05 -4.1783e-20)
(8.85077e-05 0.000415951 -6.07359e-19)
(0.000458944 8.60967e-05 -5.03252e-19)
(6.24426e-05 -1.22383e-06 1.59078e-19)
(0.000850579 -3.52887e-05 -1.07788e-18)
(0.00164829 0.000244366 -1.14775e-18)
(-3.90521e-06 8.99253e-05 5.0512e-19)
(0.00077187 4.75038e-07 -5.08432e-19)
(0.000866904 0.000528502 -7.99977e-20)
(0.000144635 0.000913059 0)
(0.000538626 7.00303e-05 0)
(0.000257715 6.47326e-05 -1.63231e-18)
(7.11094e-05 6.91864e-05 -1.40005e-18)
(3.812e-05 2.67e-05 0)
(0.00434524 0.00818833 -1.34883e-20)
(0.00434693 0.00814908 5.47159e-20)
(0.00453624 0.00831145 -3.6407e-20)
(0.00395353 0.0075206 0)
(0.00408623 0.00761349 5.44444e-19)
(0.00435441 0.00818261 -1.35697e-19)
(0.00379632 0.00759889 5.16544e-19)
(0.00428309 0.00819374 0)
(0.00378254 0.00818072 6.55235e-19)
(0.00427583 0.00820757 2.67579e-19)
(0.000809193 -2.19779e-05 -1.36478e-18)
(0.000713758 7.86807e-05 0)
(0.000219406 8.18313e-05 1.30123e-19)
(6.06515e-05 2.2939e-05 8.88336e-20)
(8.81272e-05 5.58974e-05 6.92867e-19)
(0.000117802 5.37491e-05 -3.48112e-19)
(0.000113236 1.89414e-05 0)
(5.94462e-05 9.28592e-06 8.33593e-20)
(0.000203444 0.00015069 0)
(0.000176768 6.6876e-05 -5.34236e-20)
(0.000329252 0.000232542 -5.18797e-21)
(6.40706e-05 5.32335e-05 -4.45929e-19)
(0.000102471 3.92912e-05 -8.68591e-20)
(9.97662e-05 7.39049e-05 1.33669e-21)
(0.000244494 0.000370576 -6.78651e-19)
(0.000168141 0.00112759 0)
(5.02683e-05 6.07945e-05 3.49544e-19)
(0.000222717 0.00185796 0)
(0.000204599 0.000261961 7.17873e-19)
(4.68569e-05 -8.04816e-06 1.13407e-19)
(0.000455103 0.000172272 -1.75533e-19)
(0.000790144 2.89745e-05 -1.8864e-18)
(5.38627e-05 1.32331e-06 4.99098e-24)
(0.000158731 4.59551e-05 2.28633e-19)
(0.000236447 0.000117101 -9.16331e-20)
(0.000852779 0.000679191 3.41263e-19)
(0.000677686 0.0016475 -9.40855e-21)
(0.000430654 0.00133293 -9.61705e-21)
(0.000995258 0.000552724 0)
(0.000117427 -9.67913e-06 1.13911e-18)
(0.000131977 3.21256e-05 -4.51605e-20)
(0.000404566 -0.000196732 -1.15953e-18)
(0.00079331 4.3875e-05 0)
(0.000182496 4.97931e-05 3.68934e-19)
(0.000215499 0.00141873 0)
(0.00101386 0.000718869 -7.43983e-20)
(0.000800274 4.73596e-05 -1.85864e-19)
(9.86271e-05 -1.77542e-05 -3.05564e-19)
(0.000791987 0.000290073 -2.11992e-20)
(8.98915e-05 -2.47359e-05 -6.08992e-19)
(0.000225717 0.000186681 8.79733e-20)
(0.00022341 0.000312799 -3.51481e-19)
(0.000851854 0.000229806 0)
(0.000767229 1.93134e-05 0)
(0.000259263 0.000155664 1.80097e-19)
(0.000235864 2.74877e-05 2.67801e-24)
(0.000184705 0.000216204 0)
(0.000279446 0.000629518 -5.65209e-21)
(0.000322941 2.26691e-05 0)
(0.000308447 0.000575604 0)
(0.000118216 9.70582e-05 -1.37211e-21)
(0.000782667 -2.96222e-05 -9.51204e-19)
(0.00086205 -2.38336e-05 7.85754e-19)
(0.000137542 7.50809e-05 -1.52684e-19)
(0.000925048 0.000150059 8.67753e-20)
(0.000813457 4.98077e-05 3.33329e-19)
(0.000780955 3.14556e-05 -2.99159e-19)
(0.000969789 0.000402079 0)
(0.000417155 0.000128254 6.36232e-19)
(0.000862439 0.000311774 2.13103e-20)
(0.000539415 0.000170853 0)
(0.000277804 0.000432823 4.17308e-19)
(0.000253216 0.000230643 -8.60035e-20)
(0.00107758 0.000384458 -7.96933e-19)
(0.000577751 0.000123197 -1.8269e-19)
(0.000781532 0.0001271 -7.44193e-21)
(0.000803982 3.22875e-05 9.50926e-20)
(0.000120752 -9.81145e-05 -2.01807e-18)
(0.000711837 0.000369603 2.23405e-19)
(0.00061894 7.92456e-05 2.34777e-20)
(0.000674553 0.000270345 1.3359e-23)
(0.000695165 0.000434716 -4.16907e-19)
(0.000821608 2.94673e-05 9.14423e-20)
(7.9224e-05 9.35858e-05 0)
(0.000622669 0.00042968 -4.74644e-20)
(0.000184462 0.000117291 0)
(0.000361644 0.000515498 -2.68737e-19)
(0.000307872 0.000184867 0)
(0.000644634 0.000212061 3.62012e-19)
(0.000616912 0.000278473 -4.45579e-20)
(8.27473e-05 0.000110174 6.29839e-19)
(0.00090168 0.00010644 -1.59854e-18)
(6.85097e-05 3.02338e-05 2.62056e-19)
(0.000920909 8.62965e-05 -1.65287e-18)
(0.000736993 -9.94126e-06 1.62415e-19)
(0.00077633 -1.20666e-05 1.9251e-18)
(0.000790549 2.5676e-06 -1.33933e-19)
(0.000670719 7.44412e-05 0)
(0.000888676 1.65301e-05 9.01132e-19)
(0.000909931 0.000246456 -4.34946e-19)
(0.000736142 8.0726e-05 -4.87495e-19)
(0.00074686 0.000234056 -8.98157e-20)
(0.000254216 -8.30613e-05 -2.11835e-18)
(0.000706524 9.56376e-05 9.04646e-19)
(0.000575807 0.000572678 0)
(0.000141794 -8.46086e-05 0)
(0.00115314 0.000448227 5.04e-19)
(0.000850103 -0.000224624 -3.28697e-18)
(0.00123128 0.00041249 5.81543e-19)
(0.0012553 0.000731002 -6.4683e-20)
(0.0007845 5.45645e-05 -2.1485e-19)
(0.000787343 9.70907e-05 -1.42786e-18)
(0.000758268 9.85803e-05 1.58348e-18)
(0.000746063 -5.38223e-05 9.75141e-20)
(0.000650664 0.000341856 -4.48792e-20)
(0.00011401 0.000154752 5.0413e-23)
(0.000682546 -7.18104e-05 2.70222e-19)
(0.000270964 -0.00015642 -7.50411e-19)
(0.000590892 0.000196939 0)
(0.000658068 2.69989e-05 1.00016e-19)
(0.000641406 5.17564e-06 -3.83369e-19)
(0.000371875 0.000186327 3.99789e-20)
(0.000754224 0.00049289 -1.68629e-19)
(0.000158726 9.57473e-05 1.38466e-25)
(0.000785355 0.000378728 0)
(0.000940011 0.000319605 4.2362e-20)
(0.000703116 -0.000116548 -6.27147e-19)
(0.000332193 0.000110367 5.05722e-19)
(0.000869197 0.000408984 0)
(5.87412e-05 3.97785e-05 1.36239e-19)
(0.000458844 0.000273271 2.17965e-19)
(0.00043408 -7.6156e-05 -7.22738e-19)
(0.000200078 -0.000122657 -1.07891e-18)
(0.000742092 -3.79967e-05 -4.85677e-19)
(0.000781697 -0.000110177 -1.96199e-19)
(0.000535755 0.000750764 -1.18579e-18)
(0.000814205 7.34889e-05 -6.72938e-20)
(0.000790706 -0.000115654 1.28055e-18)
(0.000648265 0.000101875 2.32119e-20)
(0.000500746 0.000223179 -1.68792e-19)
(4.69059e-05 -2.74931e-05 -8.92349e-20)
(0.000219018 -2.00707e-05 2.4319e-18)
(3.86768e-05 7.69941e-07 -1.98461e-19)
(0.000758682 7.88892e-05 3.65226e-19)
(0.000620603 0.000147388 0)
(0.000211541 -3.85577e-05 -1.06436e-18)
(0.000134009 1.86044e-05 3.1811e-19)
(0.000149064 -3.27856e-05 -1.94006e-23)
(0.000774241 0.000114872 -3.18084e-19)
(0.000159128 -5.06077e-06 0)
(0.000557049 0.000247014 0)
(0.000111525 0.000341477 -3.69643e-19)
(0.000801612 0.000160222 2.10121e-18)
(3.16509e-05 1.72155e-06 0)
(0.000791029 -3.47425e-05 0)
(5.85135e-05 -2.72385e-05 0)
(0.000838014 2.28848e-05 -4.46308e-21)
(0.000818011 -6.67578e-05 0)
(0.00432634 0.00819256 9.51401e-20)
(0.00423017 0.00818824 1.35321e-19)
(0.00083216 1.21636e-05 0)
(0.000734124 -6.87957e-05 8.27328e-19)
(0.000154559 0.000141904 1.52019e-19)
(0.000913981 5.99333e-05 8.0269e-19)
(0.000136197 0.000119646 2.38819e-20)
(0.000720105 -7.73607e-05 6.3576e-19)
(4.35457e-05 1.41435e-05 0)
(4.12686e-05 -1.96645e-05 -4.56975e-20)
(0.000852277 9.01311e-05 -4.86099e-19)
(5.27132e-05 -3.79585e-05 -6.82245e-19)
(0.000728562 0.000132726 -4.31391e-20)
(0.000167367 0.000176123 -1.9164e-19)
(0.000789593 1.76218e-05 0)
(0.00459896 0.00853148 1.88805e-21)
(0.000163148 0.000768225 3.39931e-19)
(0.000140574 -4.49395e-05 -9.28167e-19)
(8.08064e-05 -3.64607e-05 -1.18936e-18)
(0.000848249 2.13919e-05 1.92818e-20)
(0.000548656 0.000419212 0)
(0.000383375 0.000420178 -2.6028e-19)
(0.000126429 -4.44358e-05 1.20551e-18)
(0.000806393 6.02038e-06 7.85124e-20)
(5.23725e-05 1.85341e-06 4.14634e-19)
(0.000615584 -5.18863e-05 1.19397e-18)
(0.000768239 2.45074e-07 -6.07174e-19)
(0.000100808 -5.32962e-05 1.74102e-18)
(0.000822732 9.53249e-06 3.77996e-24)
(0.000823297 1.71227e-05 -3.83757e-20)
(0.000808511 9.64798e-05 0)
(0.00075429 4.68505e-05 0)
(0.00576689 0.00721452 2.74316e-19)
(4.01989e-05 6.509e-06 -1.21799e-19)
(0.000206557 -6.43817e-05 7.85313e-19)
(0.000696514 0.000116955 -7.09833e-19)
(4.48329e-05 -1.2208e-06 2.05184e-19)
(0.000552888 -1.45729e-05 -7.37568e-19)
(0.000669855 -2.68671e-05 1.55308e-18)
(0.000670248 0.000156554 -3.622e-19)
(0.000786516 -6.78783e-05 3.64157e-19)
(0.00010961 -2.62233e-05 1.13699e-18)
(0.000642697 1.92808e-05 -3.25817e-19)
(0.00083598 7.63428e-05 0)
(0.000516873 0.000305671 4.28986e-20)
(0.000884229 1.91859e-05 -9.36665e-19)
(3.88679e-05 -5.63199e-06 9.27745e-19)
(0.000768059 -1.07968e-05 9.57885e-19)
(0.00077241 -7.9403e-05 -9.69304e-19)
(0.000674615 3.36355e-05 -5.74207e-19)
(0.000471712 -3.2843e-05 -5.35635e-19)
(0.00424913 0.0081975 2.97874e-19)
(0.00423156 0.00824336 -3.89635e-19)
(0.00423878 0.00782511 3.43783e-19)
(0.00433676 0.00818683 3.02901e-19)
(0.000830121 7.28924e-06 1.45488e-19)
(0.00413088 0.0080059 0)
(0.00416819 0.00813888 -5.72773e-19)
(6.06363e-05 -6.63257e-07 -1.01495e-18)
(0.00421276 0.00824759 -5.97346e-20)
(0.0042163 0.00822921 -3.2767e-19)
(0.00633613 0.0103203 0)
(0.00600155 0.00967349 3.93782e-20)
(0.00628005 0.0103983 0)
(0.00599819 0.00966626 1.78673e-19)
(0.00619027 0.0105309 2.86277e-19)
(0.00596693 0.00964525 2.78643e-20)
(0.00606335 0.0106594 -8.24695e-19)
(0.00598727 0.00960599 2.93923e-20)
(0.00360734 0.00904445 -1.96008e-19)
(0.00419472 0.00825985 4.5372e-21)
(0.0042885 0.00816253 1.08413e-19)
(0.00422851 0.00824591 6.14653e-20)
(0.000842271 0.000172763 4.55261e-20)
(2.34531e-05 2.66424e-06 0)
(0.000623559 -0.000147042 0)
(0.000795933 3.45093e-05 0)
(0.00239923 0.00105867 4.26722e-21)
(0.000615337 -9.36953e-06 1.74484e-19)
(5.04057e-05 9.54619e-06 4.62502e-20)
(2.69174e-05 -3.23732e-05 1.6833e-18)
(0.000832066 3.33544e-05 0)
(3.52136e-05 1.77445e-05 -1.95354e-19)
(0.000147913 0.000233555 0)
(4.18778e-05 -1.12868e-06 0)
(3.48521e-05 -2.07283e-06 0)
(0.000794209 0.000138021 1.15607e-20)
(0.000853438 2.81134e-05 1.78891e-19)
(3.78394e-05 0.000356513 2.17571e-22)
(0.00016228 0.000278833 -1.87647e-18)
(0.000583835 0.000347168 -8.73151e-20)
(0.00086169 0.00011778 6.00788e-19)
(0.000734829 -0.000554749 6.74075e-19)
(0.000312466 0.00109055 0)
(0.000474367 0.000516829 2.70315e-18)
(0.000105272 0.000149233 -1.82528e-18)
(4.75864e-05 6.31232e-07 0)
(0.000870366 -2.84809e-06 3.63988e-20)
(2.25878e-05 4.75514e-05 1.67572e-18)
(0.000883753 2.79361e-05 2.74803e-19)
(0.000124095 -0.000361923 3.85287e-18)
(0.000910467 4.58123e-05 -2.74286e-19)
(0.00155784 9.70093e-05 7.62018e-19)
(4.95855e-05 -1.3993e-05 8.41275e-20)
(4.61719e-05 1.10926e-05 -8.74495e-19)
(4.42894e-05 0.000171508 0)
(0.000851641 0.000116645 5.95708e-19)
(0.000472467 0.000374109 2.41582e-19)
(0.000876294 1.65621e-05 -3.94511e-20)
(0.000716035 -1.75527e-05 2.60389e-19)
(0.000646434 -0.000228965 0)
(0.00608721 0.00968477 -1.91492e-19)
(0.00605726 0.00964545 3.11245e-19)
(0.00631946 0.00999242 -6.68514e-19)
(0.00601672 0.00966077 -9.84608e-20)
(4.61519e-05 0.000117207 8.13791e-19)
(0.000870622 4.41553e-05 1.14245e-22)
(0.00605655 0.00965011 -3.11901e-19)
(0.00613515 0.00973219 6.14644e-19)
(0.00636178 0.0101787 -4.7117e-19)
(0.00601727 0.00966908 -7.29751e-20)
(0.000113397 0.000620661 -2.05782e-20)
(0.000203684 -0.000164062 -8.09947e-19)
(0.000880669 -1.45523e-06 -7.69609e-19)
(0.000696854 0.000215485 0)
(0.000656686 -2.43074e-05 0)
(0.000185486 0.000392372 3.42603e-19)
(0.000607536 0.00059014 -5.40972e-19)
(2.62774e-05 -3.33775e-06 1.81782e-19)
(0.000211206 0.000463243 -7.52245e-19)
(0.00098797 0.000951485 -1.14848e-19)
(0.000714304 0.000174472 0)
(0.000758125 0.000164679 1.32762e-19)
(0.00631158 0.00582348 1.18364e-18)
(0.000666498 0.00111152 8.435e-20)
(4.71982e-05 4.66934e-05 -7.58793e-20)
(0.000852272 3.13801e-05 0)
(0.000861159 1.01922e-05 -3.59941e-20)
(4.62568e-05 7.5687e-06 -2.00296e-19)
(4.03245e-05 9.0741e-06 1.96549e-19)
(0.000803231 2.07372e-05 5.40389e-19)
(0.000944593 0.00011253 6.71153e-19)
(0.000779867 8.72921e-05 0)
(0.000262788 -0.000243073 -4.08336e-19)
(0.000864336 0.000135661 3.94965e-19)
(4.71944e-05 -9.13623e-05 2.06892e-19)
(0.00151969 0.000380059 -2.59211e-18)
(0.000793117 2.74842e-06 0)
(0.000765289 0.000122964 3.76641e-19)
(9.13256e-05 0.00040734 0)
(0.00103088 0.00818116 4.70579e-19)
(0.000465457 0.00051824 -1.23094e-18)
(0.000521809 0.000949866 -1.87208e-19)
(0.000851983 2.44753e-05 -1.47328e-19)
(2.19111e-05 3.39002e-05 0)
(0.000900896 7.78536e-05 6.1585e-19)
(0.00422618 0.0081989 9.43044e-20)
(0.00419633 0.00824917 4.5561e-20)
(0.00422727 0.00798738 4.78849e-19)
(0.00413641 0.00809389 -3.25071e-19)
(0.00601731 0.00965742 9.85495e-20)
(0.00423535 0.00814912 2.45781e-20)
(0.00531914 0.00788493 -5.90463e-19)
(0.00434333 0.00825453 5.07247e-21)
(0.00497768 0.00794144 5.496e-19)
(0.0043271 0.00821652 -8.23864e-20)
(0.00468332 0.00787273 0)
(0.00429823 0.00819839 -1.1415e-19)
(0.00445703 0.00786548 5.26249e-19)
(0.0042701 0.00819332 9.58606e-20)
(0.00431743 0.00791369 0)
(0.00431028 0.00820337 2.13669e-19)
(0.00431934 0.00802696 7.6923e-19)
(0.00412121 0.00806193 -5.00005e-19)
(0.00421788 0.00817765 4.21154e-19)
(0.00422201 0.00827694 3.70167e-19)
(0.00605228 0.00965187 -4.05329e-21)
(0.00421703 0.00822079 3.89872e-20)
(0.00603914 0.00964996 0)
(3.31859e-05 1.07492e-05 -1.93454e-19)
(0.00210401 0.00648856 2.3374e-19)
(0.000833609 4.49294e-06 1.10927e-19)
(0.000843342 2.04033e-05 0)
(4.81456e-06 5.305e-06 -4.06671e-19)
(0.000122287 -0.000209552 7.03872e-19)
(2.26707e-05 7.11755e-05 2.12374e-18)
(0.000795709 0.000188169 -9.18057e-20)
(0.000634405 5.63013e-06 7.11788e-19)
(5.48407e-06 -6.18292e-06 3.15882e-19)
(2.96233e-05 -5.102e-05 -1.87962e-18)
(0.000631717 6.37186e-06 1.64695e-19)
(0.000790143 0.000107286 -3.04516e-20)
(0.000632126 -4.69515e-06 1.49279e-19)
(0.000434131 0.000665152 0)
(0.00014939 -0.000150118 1.17345e-18)
(0.00082962 2.38072e-05 1.53718e-19)
(2.65453e-05 3.10543e-05 0)
(0.000100952 0.00055626 -6.4254e-19)
(0.000621022 0.000534885 1.3117e-18)
(0.000329796 0.000723396 0)
(0.000626939 -2.91978e-06 0)
(0.000636812 0.000112794 1.18406e-18)
(2.93525e-05 5.13398e-05 -3.57669e-18)
(2.44515e-05 1.22847e-05 3.80697e-19)
(0.00010916 0.000157425 0)
(7.03433e-05 -4.6925e-05 0)
(8.13045e-05 0.000126649 2.04205e-19)
(0.000886149 0.000182553 3.56337e-19)
(0.000753925 -8.21502e-05 -1.3982e-18)
(3.0541e-05 4.27906e-05 0)
(0.000637979 0.000129182 -6.11231e-20)
(0.000646223 8.43698e-06 -1.57936e-19)
(0.000884765 -5.64803e-06 1.05335e-18)
(0.000244929 0.000543873 6.43567e-19)
(0.000816323 0.00012996 0)
(3.93085e-05 -3.67184e-05 5.48656e-19)
(4.71926e-06 -1.94411e-05 -3.25992e-19)
(0.00118885 -2.07345e-05 0)
(0.000891238 0.00206133 0)
(0.00106312 -0.000168245 0)
(0.000961018 0.00019311 4.35108e-19)
(0.000869121 -4.5885e-06 -2.83826e-19)
(0.000879877 0.000129099 -6.88864e-19)
(0.000640663 4.10992e-05 0)
(4.71326e-05 8.08778e-05 -1.74837e-19)
(0.000172522 0.000331593 1.10142e-18)
(0.000773744 2.04163e-05 -4.47099e-23)
(0.0010617 0.000176053 -6.8178e-19)
(0.00105971 0.000123324 0)
(3.88969e-06 1.66645e-05 2.55784e-19)
(3.00247e-05 -2.40344e-05 -1.97969e-19)
(0.000757891 5.61567e-05 7.00545e-21)
(6.36023e-05 -0.000122966 0)
(0.00101109 0.000264769 9.68425e-19)
(0.00510202 0.00986251 -2.93313e-19)
(0.0029503 0.00960498 1.3226e-18)
(0.000105235 -0.000125455 -1.94975e-19)
(9.72136e-05 -8.786e-05 1.89485e-18)
(0.00116911 0.00022947 1.70454e-19)
(0.00124775 0.0010314 2.38493e-19)
(0.000814648 2.04894e-05 -7.36784e-19)
(0.000218614 0.000913332 -2.43321e-19)
(0.000766776 0.000866462 -2.21764e-19)
(0.000658221 -4.58829e-05 0)
(0.000121162 0.000752401 0)
(0.000100778 0.000287379 -6.544e-23)
(0.00084457 -1.21495e-05 -5.23627e-23)
(0.000830888 -2.52068e-05 1.53821e-19)
(0.00257481 0.00191283 -1.26243e-18)
(0.00163768 0.00923908 -1.21474e-19)
(0.000742185 4.43803e-05 4.87685e-19)
(0.00622615 0.00402707 -1.85416e-19)
(0.00606986 0.00982041 -3.42976e-20)
(0.00463489 0.00845021 1.42924e-20)
(0.000756943 0.000118068 -2.18706e-18)
(0.000808994 3.99081e-05 -5.16495e-24)
(1.8781e-05 -1.51506e-05 -3.5455e-19)
(5.296e-05 0.000103745 -3.55901e-19)
(9.1968e-05 0.000283748 8.92418e-19)
(1.86233e-05 2.342e-05 4.99693e-19)
(9.56699e-05 0.000242767 3.76716e-19)
(0.000800096 6.90987e-05 0)
(0.00519091 0.008994 -3.26585e-21)
(0.00137776 0.000601807 -2.64311e-20)
(0.00081854 1.539e-05 3.60215e-19)
(7.93738e-05 -0.000101365 0)
(0.00192192 0.000642346 5.56787e-19)
(1.63035e-05 1.34598e-05 -2.7528e-19)
(4.20806e-05 3.71649e-05 9.90236e-20)
(0.0013201 0.00143205 6.50476e-19)
(0.000842206 2.85421e-05 1.81863e-19)
(1.67387e-05 -4.378e-06 -1.73438e-19)
(0.00202388 0.00144866 -1.07928e-18)
(0.000131731 0.00019306 -8.32147e-19)
(0.00402107 0.00853227 -1.12758e-18)
(1.48342e-05 3.7762e-06 8.98132e-20)
(0.000219768 -0.00047763 -1.25712e-18)
(7.19395e-05 -6.21091e-05 4.13327e-20)
(0.00149506 0.000871723 0)
(0.000994312 0.000145833 -4.88062e-22)
(0.000411517 0.000850405 -4.09648e-20)
(0.000845217 1.94212e-05 -2.3304e-19)
(8.54437e-05 0.000201632 7.47821e-19)
(6.48097e-05 -7.73584e-05 4.11713e-19)
(2.51453e-05 2.10212e-05 -9.65066e-20)
(4.37413e-05 0.000110326 -3.26222e-19)
(0.000213019 -0.000338196 -5.50098e-19)
(0.00327066 0.00344216 2.82667e-21)
)
;

boundaryField
{
    back
    {
        type            empty;
    }
    ingreso
    {
        type            fixedValue;
        value           uniform (0.0008 0 0);
    }
    salida
    {
        type            zeroGradient;
    }
    front
    {
        type            empty;
    }
    defaultFaces
    {
        type            noSlip;
    }
}


// ************************************************************************* //
