/*--------------------------------*- C++ -*----------------------------------*\
  =========                 |
  \\      /  F ield         | OpenFOAM: The Open Source CFD Toolbox
   \\    /   O peration     | Website:  https://openfoam.org
    \\  /    A nd           | Version:  7
     \\/     M anipulation  |
\*---------------------------------------------------------------------------*/
FoamFile
{
    version     2.0;
    format      ascii;
    class       volScalarField;
    location    "45.5";
    object      p;
}
// * * * * * * * * * * * * * * * * * * * * * * * * * * * * * * * * * * * * * //

dimensions      [0 2 -2 0 0 0 0];

internalField   nonuniform List<scalar> 
591
(
0.000123932
0.00012395
0.000123959
0.000123914
0.000123915
0.000123988
0.000123985
0.000123947
0.000116999
0.00012396
0.000124131
0.000122866
0.000123958
0.000119747
0.000123948
0.000124003
0.000123907
0.000123989
0.000121978
0.000123331
0.000123923
-3.52356e-06
0.00012413
0.000123927
0.000124089
0.000123947
0.000124034
0.000124049
0.000123959
0.000123975
0.000124108
0.000124085
0.000124103
0.000124102
0.000124104
0.000123434
0.0001241
0.000123929
0.000124125
0.000124044
0.000124019
0.000124097
0.000123956
0.000123975
0.000124094
0.000124112
0.00011927
0.000124116
0.000123963
0.000124078
0.000124054
0.000124089
2.39349e-05
3.05811e-05
4.78433e-05
0.000123961
0.00012412
0.000124103
0.000124114
0.000123933
0.000124017
0.000123951
0.000123952
0.000124003
0.000122588
0.000123952
0.000123956
0.000124111
0.000120756
0.000123967
0.00012396
0.000124117
0.00012408
0.000124098
0.000124103
0.00012408
0.000123927
0.000124114
0.00012393
0.000123857
0.000123709
0.000124119
0.00012408
0.000124052
0.000124126
0.000123941
0.000124033
0.000124109
0.000124072
0.000123825
0.000124086
0.000124023
0.000124044
0.000123935
0.000124125
0.000124079
0.000123638
0.000123537
0.00012368
0.000124129
0.00012404
0.000123951
0.000124133
0.000123916
0.000124133
0.000123955
0.000123949
0.000124083
0.000124123
0.000124127
0.000124013
0.000124101
0.000123969
0.000124107
0.000124128
0.000124104
0.000124055
0.000124059
0.000123613
0.000124022
0.000123953
0.000123957
0.000124015
0.000123938
0.000124098
0.000120231
0.000124131
0.000124106
0.000123708
0.000124104
0.000123944
0.000123632
0.000124066
0.000124063
0.000124107
0.000123962
0.000122622
0.000124132
0.000123948
0.000123613
0.000123679
0.000124033
0.00012411
0.000124125
0.00012412
7.61326e-06
3.67692e-06
2.07163e-06
3.81503e-05
3.66932e-05
5.65768e-06
3.82975e-05
1.57407e-05
3.72751e-05
1.78064e-05
0.000123952
0.000123941
0.000124118
0.000124116
0.000124122
0.00012412
0.000124114
0.000124111
0.000124116
0.000124117
0.000124078
0.000124123
0.000124118
0.000124124
0.000124055
0.000123418
0.000124125
0.000122159
0.000124099
0.000124107
0.000124049
0.000123961
0.000124107
0.000124118
0.000124113
0.000123525
0.000122507
0.000123078
0.000123482
0.00012411
0.000124115
0.000124046
0.000123926
0.000124109
0.000122992
0.00012334
0.000123927
0.000124105
0.0001238
0.000124099
0.000124109
0.000124081
0.000123771
0.000123916
0.000124106
0.000124115
0.000124111
0.000123906
0.000124094
0.000123902
0.000124125
0.000123948
0.000123945
0.000124121
0.000123736
0.000123917
0.000123959
0.000123583
0.000124071
0.000123729
0.000124016
0.000124021
0.000124097
0.000123498
0.000124008
0.000123906
0.000123912
0.000124081
0.000123837
0.000123997
0.000123907
0.000123815
0.000123905
0.000124127
0.00012388
0.000124121
0.000123963
0.000124096
0.00012395
0.000123949
0.000124128
0.000123849
0.000124117
0.00012384
0.000123886
0.000123954
0.000123931
0.000123965
0.000123952
0.000123716
0.000123924
0.000123873
0.000124088
0.000123944
0.000123784
0.000124075
0.000123341
0.000123886
0.000123239
0.000123114
0.000123938
0.000123903
0.000123937
0.000123934
0.000123894
0.000124126
0.00012398
0.000124065
0.000123984
0.000123985
0.000123998
0.000124075
0.000123729
0.000124121
0.000123767
0.000123658
0.000123971
0.000124095
0.000123678
0.000124121
0.000124023
0.000124062
0.000124078
0.000123964
0.000123926
0.000123744
0.000123899
0.000123918
0.000123972
0.00012402
0.000124093
0.000124107
0.000124114
0.00012388
0.000123979
0.0001241
0.000124108
0.000124104
0.000123903
0.000124116
0.000123987
0.000124092
0.000123868
0.000124116
0.000123858
0.000124095
0.000123993
0.000123927
1.16399e-05
2.19076e-05
0.000123894
0.000123955
0.000124123
0.000123887
0.000124124
0.000123966
0.000124116
0.000124095
0.000123844
0.00012409
0.000123922
0.000124119
0.000123959
-2.09679e-07
0.000123804
0.000124099
0.000124095
0.000123805
0.000123936
0.000123972
0.00012409
0.000123867
0.00012411
0.000124001
0.000123952
0.000124088
0.000123913
0.000123839
0.000123866
0.000123965
4.74452e-05
0.000124105
0.000124089
0.000123948
0.000124111
0.000124028
0.000123972
0.00012395
0.000123946
0.000124099
0.000123975
0.00012388
0.000123986
0.000123883
0.000124111
0.000123891
0.000123941
0.000123979
0.000124062
1.98698e-05
2.73267e-05
3.42889e-05
9.63624e-06
0.000123929
3.30471e-05
2.59921e-05
0.000124108
1.90715e-05
1.70289e-05
3.81808e-05
7.56674e-06
3.99337e-05
5.59581e-06
4.08282e-05
3.68678e-06
4.28117e-05
1.87763e-06
3.63862e-05
2.3192e-05
2.94421e-05
1.49918e-05
0.000123803
0.000124118
0.000123998
0.000124003
0.000120923
0.000124053
0.000124113
0.000124085
0.0001239
0.000124119
0.000124114
0.000124101
0.000124098
0.000123866
0.000123947
0.000124098
0.000124103
0.000123942
0.000123824
0.000123858
0.00012344
0.000123895
0.000124129
0.000124104
0.000123959
0.000124126
0.000123805
0.00012397
0.000123762
0.000122891
0.000124099
0.00012411
0.000124128
0.000123813
0.000123982
0.000123763
0.000123968
0.000123955
2.6034e-05
2.18697e-05
3.30289e-05
1.16185e-05
0.000124134
0.000123809
1.98155e-05
2.82473e-05
3.55963e-05
9.58288e-06
0.000123944
0.000124054
0.000123905
0.000123913
0.000123955
0.000124062
0.000123855
0.000124096
0.000124026
0.000123134
0.000123918
0.000123886
5.93277e-05
0.000123258
0.000124123
0.000123937
0.00012384
0.000124112
0.000124115
0.000123924
0.000123719
0.000123952
0.000124026
0.0001238
0.000124071
0.000122946
0.000123894
0.000123895
0.00012407
0.000100858
0.000123919
0.000123522
0.000123873
0.000124124
0.000123771
1.08945e-05
2.11108e-05
3.53606e-05
2.818e-05
1.36662e-05
5.59874e-08
4.20597e-05
2.68914e-06
4.01468e-05
4.75801e-06
3.94093e-05
6.80966e-06
3.86177e-05
8.85359e-06
3.72837e-05
1.36728e-05
3.17197e-05
3.05744e-05
2.39318e-05
2.5272e-05
1.77656e-05
1.29375e-05
1.57115e-05
0.000124118
0.000102457
0.00012393
0.000123868
0.000124121
0.000124015
0.000124127
0.000123847
0.000123986
0.000124091
0.000124086
0.000124103
0.000123852
0.000123959
0.000123835
0.000124055
0.000123897
0.000124122
0.000123982
0.000123813
0.000123817
0.00012397
0.000123962
0.000124129
0.00012412
0.000124125
0.00012409
0.000124129
0.000123764
0.000123953
0.000124123
0.000123897
0.000124028
0.000123953
0.000123977
0.00012383
0.00012409
0.000124089
0.000123403
0.000121402
0.000123132
0.000123676
0.000123953
0.00012378
0.000123968
0.000124127
0.000124085
0.000123958
0.000123565
0.000123548
0.000124123
0.000124092
0.000123976
0.000124059
0.000123601
5.83279e-05
4.0103e-05
0.000124064
0.000124081
0.000123444
0.000122785
0.000123936
0.000123664
0.000123409
0.000123954
0.000123837
0.000124107
0.00012398
0.00012401
0.000119027
5.44636e-05
0.000123977
8.12297e-05
1.86283e-06
-3.79973e-07
0.000123946
0.000123918
0.000124091
0.000124129
0.000124116
0.000124123
0.000124118
0.000123933
-2.30648e-06
0.000122867
0.000123968
0.000124071
0.000122037
0.000124121
0.000124122
0.000122327
0.000124047
0.000124093
0.000121715
0.000124121
7.63729e-05
0.00012412
0.000123675
0.000124085
0.000122413
0.000123655
0.0001237
0.00012398
0.000124124
0.000124078
0.000124121
0.000124132
0.000123961
0.000116212
)
;

boundaryField
{
    back
    {
        type            empty;
    }
    ingreso
    {
        type            zeroGradient;
    }
    salida
    {
        type            fixedValue;
        value           uniform 0;
    }
    front
    {
        type            empty;
    }
    defaultFaces
    {
        type            zeroGradient;
    }
}


// ************************************************************************* //
