/*--------------------------------*- C++ -*----------------------------------*\
  =========                 |
  \\      /  F ield         | OpenFOAM: The Open Source CFD Toolbox
   \\    /   O peration     | Website:  https://openfoam.org
    \\  /    A nd           | Version:  7
     \\/     M anipulation  |
\*---------------------------------------------------------------------------*/
FoamFile
{
    version     2.0;
    format      ascii;
    class       volVectorField;
    location    "45.5";
    object      U;
}
// * * * * * * * * * * * * * * * * * * * * * * * * * * * * * * * * * * * * * //

dimensions      [0 1 -1 0 0 0 0];

internalField   nonuniform List<vector> 
591
(
(0.000817437 -3.60556e-05 1.21833e-18)
(0.00080104 -3.09363e-05 -6.62984e-19)
(0.000854628 -3.73187e-05 5.69768e-20)
(0.000846625 4.67393e-08 -1.49213e-19)
(0.000829874 1.30434e-05 2.25266e-19)
(0.000797441 -3.89522e-05 -1.39567e-19)
(0.000546154 -0.000347566 8.05667e-19)
(0.000799554 1.11373e-06 2.0664e-18)
(0.00574253 0.00249095 9.87731e-19)
(0.000789531 -1.63659e-05 2.4391e-18)
(5.3782e-05 0.000175186 1.21848e-18)
(0.000911599 0.00135491 9.40845e-21)
(0.000795346 8.32006e-06 1.29905e-18)
(0.00159862 0.00237455 -7.87853e-19)
(0.000801731 7.30653e-06 -4.3808e-19)
(9.52883e-05 -0.000233821 2.54505e-22)
(0.000133237 0.000674642 7.05294e-19)
(0.000821758 4.13353e-05 -4.89823e-19)
(0.00194717 0.000379883 4.72921e-19)
(0.00135255 0.000264227 -2.47256e-19)
(0.000832582 1.988e-06 3.72161e-19)
(0.00339999 0.00656001 -8.14562e-20)
(3.16619e-05 7.38709e-05 2.7104e-19)
(0.000830729 -2.86653e-06 -4.50985e-19)
(1.51553e-05 -1.981e-05 3.59076e-19)
(0.000760704 2.81431e-05 0)
(9.13246e-05 0.000478776 1.60009e-19)
(0.000525787 2.22881e-05 -1.78917e-19)
(0.000748699 5.08946e-05 1.15004e-18)
(0.000817611 2.77868e-05 5.85078e-19)
(6.3202e-05 -2.17506e-06 -3.72626e-24)
(4.04057e-05 -5.08924e-05 3.52323e-19)
(4.22791e-05 -3.65222e-06 -4.6413e-20)
(5.08498e-05 -1.10465e-05 0)
(5.97467e-05 -1.37592e-05 1.13186e-18)
(0.00117019 0.000128215 1.79958e-19)
(3.63668e-05 -6.40696e-06 4.47331e-20)
(0.000826453 1.32848e-05 3.50826e-23)
(3.0998e-05 4.77709e-05 2.66135e-19)
(3.71245e-05 -0.00012871 -8.54978e-19)
(0.000597539 -0.000199823 9.59053e-19)
(2.9795e-05 -8.26833e-06 4.55011e-20)
(0.000793677 -4.51304e-06 -1.57219e-18)
(0.000825983 2.93156e-05 -6.82707e-19)
(2.09864e-05 -9.88526e-06 0)
(5.96935e-05 9.23824e-06 8.52211e-20)
(0.00133407 0.00451382 8.93253e-19)
(8.15277e-05 2.00807e-05 8.63959e-20)
(0.000796105 2.04669e-05 0)
(0.000371871 -0.000174111 6.78075e-19)
(0.00037484 0.000278164 5.12085e-21)
(0.000387867 6.25256e-05 -1.00419e-18)
(0.00634731 0.0109418 -7.68315e-19)
(0.0062247 0.0107966 1.529e-20)
(0.00561342 0.0103803 1.45565e-18)
(0.000810798 1.31478e-05 0)
(7.1283e-05 3.50125e-05 0)
(0.000319589 2.63787e-05 9.88043e-24)
(6.80688e-05 1.33531e-05 -3.46595e-19)
(0.000820548 -7.86352e-06 0)
(0.000620056 2.77561e-05 3.17705e-19)
(0.000823044 -1.66081e-06 2.21273e-18)
(0.000785563 1.38795e-05 -5.45794e-19)
(0.000795811 1.86396e-05 -3.15896e-19)
(0.00172001 0.000468811 5.42762e-19)
(0.000789451 3.47258e-06 -1.15463e-18)
(0.000820543 3.93566e-06 -5.24245e-19)
(8.82839e-05 1.08651e-06 -1.7348e-19)
(0.000682795 0.00227884 0)
(0.000824485 2.57774e-05 0)
(0.000765206 1.55605e-05 -1.38543e-18)
(4.14295e-05 1.81767e-05 0)
(0.000284423 0.00027491 3.26952e-19)
(4.62783e-05 -1.89593e-05 0)
(4.68221e-05 -6.42706e-06 1.59536e-19)
(2.48169e-05 -5.14803e-05 -3.36814e-20)
(0.000777325 7.0148e-05 2.4721e-19)
(4.81496e-05 1.26235e-05 0)
(0.000790555 5.69838e-05 4.47272e-19)
(0.000759471 0.000296366 2.10808e-19)
(0.000964668 5.98406e-05 -3.98115e-20)
(4.64725e-05 2.58794e-05 -4.52041e-20)
(6.94252e-06 -3.33423e-05 0)
(0.000425533 0.000221431 1.70245e-19)
(2.6845e-06 2.86195e-05 0)
(0.00077136 2.97913e-05 -6.09546e-19)
(0.000578423 -0.000119258 0)
(7.07363e-05 7.71744e-07 -1.74547e-19)
(4.99403e-06 -4.51876e-05 0)
(0.000817484 0.000246558 -3.41405e-19)
(4.86851e-06 -2.03395e-05 0)
(0.000417242 0.00032464 -1.27509e-23)
(0.00051806 0.00011514 0)
(0.000797008 4.9275e-05 -3.74201e-24)
(3.03016e-06 1.87801e-05 -4.2188e-20)
(0.000441794 -1.33699e-06 1.76428e-18)
(0.0010231 7.29677e-05 4.16212e-20)
(0.000890669 4.21574e-05 6.40865e-22)
(0.000730287 0.000656645 2.69592e-19)
(5.98662e-06 5.75475e-05 0)
(5.58132e-06 -7.75854e-05 -3.12499e-19)
(-1.15954e-06 -0.000146147 -1.09932e-18)
(2.92312e-06 9.01356e-05 -5.96335e-19)
(0.000662865 -1.25576e-05 0)
(6.69402e-06 0.000116185 0)
(0.000797131 1.43747e-05 2.2126e-18)
(0.000773739 2.02514e-05 1.52552e-18)
(0.000409171 -5.39189e-05 0)
(4.75469e-05 0.000226342 -8.95489e-19)
(-1.2737e-06 0.000187487 4.96514e-19)
(7.04344e-05 0.000436633 6.25168e-19)
(0.00029964 9.73664e-05 -9.37405e-19)
(0.000803365 1.69728e-05 1.37096e-19)
(0.000264125 -2.11392e-05 5.31429e-19)
(3.78608e-06 3.97534e-05 0)
(2.84311e-05 0.000302968 -1.09397e-18)
(0.000315712 0.000327661 -1.61755e-19)
(5.44586e-06 -6.10349e-05 1.46639e-19)
(0.000665613 0.000807481 0)
(0.000362772 0.000391617 5.74601e-20)
(0.000808223 4.59855e-06 1.07129e-18)
(0.000794924 -1.77468e-06 -2.68519e-18)
(8.23262e-06 -9.46121e-05 0)
(0.000703797 -2.47352e-05 -1.12371e-19)
(0.000319382 -8.34421e-05 1.24374e-18)
(0.00266072 0.000793341 -3.35915e-19)
(2.4955e-06 0.00014735 -6.13169e-19)
(-1.28864e-06 0.000180007 1.61928e-18)
(0.000768314 1.94569e-05 -3.89621e-20)
(6.94519e-05 -1.0564e-05 -7.50467e-19)
(0.00079635 2.33955e-05 -3.89213e-19)
(0.000816103 2.64664e-05 -4.10172e-20)
(4.6584e-05 0.000350984 -5.96774e-19)
(0.000474784 7.70062e-05 -4.94114e-19)
(5.39484e-05 -2.54208e-06 1.56216e-19)
(0.000822789 1.42181e-05 -1.08012e-18)
(0.00159156 0.000226233 -1.13625e-18)
(2.84023e-06 7.17999e-05 4.96433e-19)
(0.000804448 1.38653e-05 -4.95978e-19)
(0.000894347 0.000539288 -7.85387e-20)
(0.000135182 0.000813146 0)
(0.000567122 6.65855e-05 0)
(0.000272873 6.11898e-05 -1.61028e-18)
(6.64058e-05 6.26722e-05 -1.37462e-18)
(3.34902e-05 2.27542e-05 0)
(0.00424675 0.00739994 -1.01999e-20)
(0.00422518 0.00737151 3.16359e-20)
(0.00442715 0.00757453 -4.98014e-21)
(0.00420687 0.00773586 0)
(0.00419945 0.00760095 5.77123e-19)
(0.00424414 0.00740083 -9.19269e-20)
(0.00421023 0.00804419 4.84284e-19)
(0.00428924 0.00742085 0)
(0.00420797 0.00853834 6.16581e-19)
(0.00432636 0.00744904 2.23916e-19)
(0.000812581 -1.81956e-06 -1.37138e-18)
(0.000757916 5.00549e-05 0)
(0.000216833 6.2831e-05 1.27732e-19)
(5.41603e-05 1.82919e-05 8.72189e-20)
(8.14923e-05 4.9182e-05 6.80281e-19)
(0.000110086 4.64818e-05 -3.41799e-19)
(0.000105463 1.03834e-05 0)
(5.24987e-05 6.44226e-06 8.1867e-20)
(0.000204948 0.000140699 0)
(0.000168941 5.15036e-05 -5.24445e-20)
(0.000338922 0.000228038 -5.09423e-21)
(5.88775e-05 4.65885e-05 -4.37825e-19)
(9.48937e-05 3.20668e-05 -8.52803e-20)
(9.359e-05 6.66856e-05 1.31244e-21)
(0.000250492 0.000370499 -6.66387e-19)
(0.000112277 0.00102748 0)
(4.45349e-05 5.61421e-05 3.43194e-19)
(0.000207807 0.00176784 0)
(0.00020677 0.000258175 7.04895e-19)
(4.24375e-05 -4.74552e-06 1.11457e-19)
(0.00047362 0.000167847 -1.72362e-19)
(0.000750359 2.76033e-05 -1.92492e-18)
(4.68475e-05 -6.67597e-07 4.18379e-24)
(0.000153309 3.19673e-05 2.24672e-19)
(0.000241552 0.000101505 -8.99656e-20)
(0.000879195 0.000710354 3.35051e-19)
(0.000723869 0.00162597 -9.2329e-21)
(0.00038138 0.00142887 -9.39467e-21)
(0.00101866 0.000555014 0)
(0.000109329 -1.21885e-05 1.11918e-18)
(0.00012152 2.25089e-05 -4.43327e-20)
(0.000437473 -0.0002783 -1.13602e-18)
(0.000804895 3.13736e-05 0)
(0.000184373 1.5306e-05 3.63426e-19)
(0.000300651 0.00132743 0)
(0.00105341 0.000762682 -7.3045e-20)
(0.000823126 3.77578e-05 -1.86275e-19)
(8.48172e-05 -1.9355e-05 -3.00107e-19)
(0.000814994 0.000318995 -2.08128e-20)
(6.62193e-05 -2.17455e-05 -5.99751e-19)
(0.000226047 0.000181138 8.64169e-20)
(0.000227504 0.000311847 -3.45126e-19)
(0.000875407 0.000242154 0)
(0.000803672 4.73858e-05 0)
(0.000260388 0.000146053 1.76908e-19)
(0.000234725 1.27821e-05 5.31832e-25)
(0.000184514 0.000211026 0)
(0.000284802 0.000653832 -5.55876e-21)
(0.000337376 1.02916e-05 0)
(0.000353655 0.000601482 0)
(0.000112225 8.80565e-05 -1.34721e-21)
(0.000810259 1.58469e-05 -9.33247e-19)
(0.000810766 1.30542e-05 7.77094e-19)
(0.000132026 6.41955e-05 -1.49912e-19)
(0.000946249 0.000153272 8.51052e-20)
(0.00082921 4.64009e-05 3.32913e-19)
(0.000807187 2.046e-05 -2.94113e-19)
(0.00100326 0.000406451 0)
(0.000431211 0.000125566 6.24674e-19)
(0.000888114 0.000317062 2.0922e-20)
(0.000563623 0.000161532 0)
(0.000271879 0.000445146 4.09769e-19)
(0.000260013 0.000222903 -8.4446e-20)
(0.00109292 0.000375545 -7.82231e-19)
(0.000608574 0.000110447 -1.79366e-19)
(0.000797567 7.49287e-05 -7.45917e-21)
(0.000830738 2.88928e-05 9.36781e-20)
(9.4236e-05 -8.93415e-05 -1.98214e-18)
(0.000730732 0.000382178 2.19312e-19)
(0.000653254 6.21746e-05 2.30691e-20)
(0.000696921 0.000277498 1.58277e-23)
(0.00072031 0.000455403 -4.09722e-19)
(0.000837574 3.80151e-05 9.06751e-20)
(7.4714e-05 8.54223e-05 0)
(0.000646929 0.000416432 -4.65891e-20)
(0.000184749 0.000103483 0)
(0.000371655 0.000503182 -2.64915e-19)
(0.000309305 0.00017457 0)
(0.000665614 0.000202603 3.5537e-19)
(0.000639097 0.000262919 -4.3742e-20)
(8.27091e-05 0.000107849 6.19392e-19)
(0.000873221 9.4133e-05 -1.63041e-18)
(6.16874e-05 2.49343e-05 2.57292e-19)
(0.000874102 5.64115e-05 -1.67035e-18)
(0.000829174 8.10663e-05 1.6221e-19)
(0.000802796 2.54978e-05 1.90658e-18)
(0.000801083 2.47631e-05 -1.30574e-19)
(0.000722508 7.39991e-05 0)
(0.00080652 3.10567e-05 8.93653e-19)
(0.000942863 0.000229828 -4.27281e-19)
(0.000758278 8.51798e-05 -4.83825e-19)
(0.000771242 0.000227111 -8.81589e-20)
(0.000228594 -0.000135946 -2.08019e-18)
(0.000730295 8.52269e-05 8.86759e-19)
(0.000636485 0.00059689 0)
(0.00011295 -0.000107719 0)
(0.0012004 0.00046952 4.97286e-19)
(0.000703197 -7.36143e-05 -3.23426e-18)
(0.00132285 0.000430694 5.75893e-19)
(0.00123385 0.000719174 -6.38743e-20)
(0.000798687 3.73991e-05 -2.11267e-19)
(0.000825121 6.95121e-05 -1.42462e-18)
(0.000813031 1.81223e-05 1.55795e-18)
(0.000813175 2.99321e-05 9.61059e-20)
(0.000664855 0.000348053 -4.40564e-20)
(0.000104174 0.000131371 5.50021e-24)
(0.000732835 -5.32135e-05 2.65212e-19)
(0.00023247 -0.000230361 -7.34422e-19)
(0.000610623 0.000189367 0)
(0.00069204 3.31367e-05 9.90831e-20)
(0.000670567 1.0273e-05 -3.80974e-19)
(0.00038261 0.0001763 3.935e-20)
(0.000794464 0.000500035 -1.65531e-19)
(0.000152222 8.28814e-05 2.57463e-25)
(0.000805631 0.000402351 0)
(0.000968077 0.000321588 4.15938e-20)
(0.000739501 -8.71409e-05 -6.16566e-19)
(0.000342207 0.000112563 4.97963e-19)
(0.000898494 0.000420993 0)
(5.27429e-05 3.43436e-05 1.33763e-19)
(0.000473978 0.000271689 2.14024e-19)
(0.000469 -0.000121995 -7.09584e-19)
(0.000161388 -0.000144572 -1.05945e-18)
(0.000816804 2.24502e-05 -4.76753e-19)
(0.000792097 -0.00010734 -1.9392e-19)
(0.000559208 0.000724753 -1.17476e-18)
(0.000835871 4.52065e-05 -6.71179e-20)
(0.000694494 -2.92275e-05 1.26125e-18)
(0.00068251 9.90398e-05 2.27877e-20)
(0.000519772 0.000214975 -1.65741e-19)
(3.7301e-05 -2.38566e-05 -8.76172e-20)
(0.000182555 -3.2393e-05 2.40704e-18)
(2.44773e-05 9.07117e-07 -1.94896e-19)
(0.00080718 0.000101917 3.62724e-19)
(0.000645433 0.000138463 0)
(0.000196842 -6.63665e-05 -1.04848e-18)
(0.000127671 -9.24558e-06 3.13026e-19)
(0.000121765 -3.27883e-05 4.79056e-24)
(0.000787218 0.000110798 -3.19391e-19)
(0.000157742 -6.1996e-06 0)
(0.000575316 0.00024362 0)
(0.000111156 0.000335767 -3.6297e-19)
(0.000849323 9.87464e-05 2.11088e-18)
(1.99551e-05 1.49556e-06 0)
(0.000864906 4.87754e-05 0)
(4.98034e-05 -2.65359e-05 0)
(0.000812611 3.69703e-05 -4.45939e-21)
(0.000797375 -5.80062e-05 0)
(0.00425916 0.00740583 8.06932e-20)
(0.0043623 0.00748543 1.43809e-19)
(0.000842553 2.25301e-06 0)
(0.000769912 -5.5455e-05 8.12268e-19)
(0.000153553 0.000131646 1.4926e-19)
(0.000843929 7.40644e-05 8.0461e-19)
(0.000132624 0.000108217 2.3448e-20)
(0.000766132 -3.65271e-05 6.25825e-19)
(3.81987e-05 1.11921e-05 0)
(3.33633e-05 -1.55851e-05 -4.48656e-20)
(0.000881528 5.09262e-05 -4.86003e-19)
(4.0585e-05 -3.46032e-05 -6.70024e-19)
(0.000745017 0.000118872 -4.23415e-20)
(0.000167932 0.000169189 -1.88163e-19)
(0.0008115 1.97486e-05 0)
(0.0046818 0.00815357 8.996e-22)
(0.000169189 0.00078498 3.33704e-19)
(0.000129594 -5.12972e-05 -9.14873e-19)
(6.92166e-05 -3.51747e-05 -1.16918e-18)
(0.00070562 1.64765e-05 1.89923e-20)
(0.000575409 0.00041254 0)
(0.00040928 0.000438411 -2.56414e-19)
(9.95922e-05 -5.54697e-05 1.18408e-18)
(0.000662947 1.80711e-06 7.65712e-20)
(4.60214e-05 2.44096e-06 4.07239e-19)
(0.000671736 -5.87862e-05 1.17216e-18)
(0.000807689 3.02336e-05 -5.9704e-19)
(7.89378e-05 -5.54324e-05 1.70977e-18)
(0.00084013 -8.45602e-06 -4.86319e-24)
(0.000681894 8.43777e-06 -3.76678e-20)
(0.000858688 6.29378e-05 0)
(0.000824597 3.24315e-05 0)
(0.00591984 0.00723727 2.59206e-19)
(2.56538e-05 -7.91061e-07 -1.19611e-19)
(0.000154042 -8.75496e-05 7.73195e-19)
(0.000713063 0.000121587 -6.96738e-19)
(2.93518e-05 -4.72037e-07 2.01548e-19)
(0.000591125 -2.91165e-05 -7.24135e-19)
(0.000730366 3.2878e-05 1.55874e-18)
(0.000693673 0.000157334 -3.55576e-19)
(0.000806579 -1.43558e-05 3.56405e-19)
(8.78934e-05 -3.09964e-05 1.11647e-18)
(0.000794938 9.09223e-06 -3.21883e-19)
(0.000857944 4.59915e-05 0)
(0.000532232 0.000303056 4.21166e-20)
(0.000844456 4.75175e-05 -9.35761e-19)
(2.5868e-05 1.1597e-06 9.11371e-19)
(0.000840454 4.51456e-05 9.55851e-19)
(0.000846979 -7.75992e-06 -9.59204e-19)
(0.000725419 2.13808e-06 -5.69446e-19)
(0.000497951 -5.91233e-05 -5.25867e-19)
(0.00432914 0.00745202 2.47859e-19)
(0.00422399 0.00752986 -2.78779e-19)
(0.0042219 0.00758759 2.66734e-19)
(0.00425533 0.00741026 1.9791e-19)
(0.000846168 -1.29106e-05 1.44053e-19)
(0.00447561 0.00751145 0)
(0.00440308 0.00751643 -3.86554e-19)
(3.87019e-05 -2.04738e-07 -9.98333e-19)
(0.00417085 0.00747003 -6.33588e-20)
(0.00414652 0.00743319 -2.2151e-19)
(0.00602927 0.0106063 0)
(0.00654029 0.0111877 3.70996e-20)
(0.00600915 0.0105761 0)
(0.00655595 0.0112111 1.30755e-19)
(0.00599628 0.0106005 2.69664e-19)
(0.00659229 0.0112273 1.24641e-20)
(0.00593486 0.0106135 -7.76613e-19)
(0.00662246 0.0111463 8.16808e-21)
(0.00390257 0.00920306 -1.90915e-19)
(0.0041877 0.00748938 3.86075e-21)
(0.00423876 0.00755296 7.93415e-20)
(0.00415086 0.00743526 4.12023e-20)
(0.000859668 0.000184601 4.46932e-20)
(1.43987e-05 2.05598e-06 0)
(0.000674033 -0.000141268 0)
(0.000693034 4.07327e-05 0)
(0.00243933 0.00111588 4.23967e-21)
(0.000745316 -2.9735e-05 1.72669e-19)
(4.45202e-05 7.04214e-06 4.54233e-20)
(1.5898e-05 -3.15012e-05 1.6532e-18)
(0.000841201 1.9998e-05 0)
(3.07563e-05 1.44842e-05 -1.91803e-19)
(0.000142731 0.000228705 0)
(2.57139e-05 -1.23319e-06 0)
(2.1255e-05 -1.78468e-06 0)
(0.00080643 0.00012859 1.13578e-20)
(0.000809177 -1.04769e-05 1.77631e-19)
(3.40484e-05 0.000294905 -1.92953e-23)
(0.000159938 0.000276881 -1.84255e-18)
(0.000594885 0.000334414 -8.57302e-20)
(0.000893039 0.000122634 5.99663e-19)
(0.000697299 -0.000315726 6.73116e-19)
(0.000349407 0.00111078 0)
(0.00045805 0.000569478 2.71604e-18)
(9.35968e-05 0.00015178 -1.8035e-18)
(3.10677e-05 3.52602e-07 0)
(0.000816712 -4.32249e-05 3.63605e-20)
(1.89324e-05 4.05771e-05 1.64513e-18)
(0.000899775 2.75875e-05 2.71378e-19)
(2.09315e-05 -9.22756e-05 3.78798e-18)
(0.000928448 3.94499e-05 -2.69178e-19)
(0.00138447 0.000146244 7.47799e-19)
(4.12078e-05 -1.185e-05 8.26046e-20)
(4.19526e-05 5.84097e-06 -8.59331e-19)
(4.96395e-05 0.000150379 0)
(0.000896808 7.68389e-05 5.98136e-19)
(0.000488723 0.000369359 2.37223e-19)
(0.000729447 1.77615e-05 -3.89065e-20)
(0.000763868 -1.08872e-05 2.56806e-19)
(0.000728395 -0.000212674 0)
(0.00632069 0.0108967 -1.68107e-19)
(0.00637918 0.0109736 4.05754e-19)
(0.00615995 0.0107314 -6.18306e-19)
(0.00650089 0.0111324 -8.10036e-20)
(3.80684e-05 0.000123371 8.00839e-19)
(0.000902755 5.81115e-05 1.51533e-22)
(0.00641087 0.0110065 -3.86402e-19)
(0.00628113 0.0108468 5.48173e-19)
(0.00608011 0.0106732 -4.16713e-19)
(0.00652153 0.0111647 -6.81428e-20)
(8.45101e-05 0.0005324 -2.01912e-20)
(0.000130198 -0.000199807 -7.92992e-19)
(0.000725771 -1.57977e-05 -7.59986e-19)
(0.000715911 0.000221008 0)
(0.000796144 1.61488e-06 0)
(0.00018414 0.000393378 3.36409e-19)
(0.000595163 0.000533681 -5.41745e-19)
(1.53603e-05 -2.4384e-06 1.78471e-19)
(0.000205949 0.000465099 -7.38637e-19)
(0.0010004 0.000971816 -1.12754e-19)
(0.000732359 0.000168641 0)
(0.000779602 0.000176414 1.31077e-19)
(0.00635967 0.00587334 1.13082e-18)
(0.00073472 0.00113309 8.27124e-20)
(4.22724e-05 4.18434e-05 -7.44997e-20)
(0.000815337 3.05315e-05 0)
(0.000875435 2.51303e-05 -3.57079e-20)
(4.01498e-05 4.81467e-06 -1.96755e-19)
(3.4578e-05 6.26743e-06 1.93054e-19)
(0.000826807 2.33137e-05 5.36044e-19)
(0.000963112 0.000104654 6.58801e-19)
(0.000625176 3.63206e-05 0)
(0.00021963 -0.000314749 -3.97022e-19)
(0.000903731 0.000150023 3.89787e-19)
(2.68621e-05 -7.47231e-05 2.03204e-19)
(0.00143653 0.000404978 -2.58224e-18)
(0.000656615 -2.45608e-06 0)
(0.000782394 0.000144359 3.75639e-19)
(9.22043e-05 0.000403899 0)
(0.00118302 0.00816887 4.62059e-19)
(0.000475835 0.000504234 -1.22471e-18)
(0.000544097 0.000984964 -1.83814e-19)
(0.000870661 2.2238e-05 -1.45887e-19)
(1.62637e-05 2.86331e-05 0)
(0.000925391 7.52084e-05 6.12004e-19)
(0.00410826 0.0073969 8.14215e-20)
(0.00417239 0.00747486 4.73245e-20)
(0.00449902 0.00751408 4.53986e-19)
(0.00444452 0.00754107 -3.27757e-19)
(0.0064748 0.0111083 8.10825e-20)
(0.00391496 0.00714715 -9.54949e-22)
(0.00550807 0.0077945 -5.64622e-19)
(0.0040982 0.00737303 5.21307e-21)
(0.00518786 0.0078549 5.11541e-19)
(0.00408053 0.00734206 -4.86634e-20)
(0.00495265 0.00771404 0)
(0.00408713 0.00736676 -8.55751e-20)
(0.00474139 0.00758601 4.92447e-19)
(0.00409961 0.00737718 8.74908e-20)
(0.00457409 0.0075256 0)
(0.00428305 0.00741932 1.39756e-19)
(0.00424 0.0075991 5.80167e-19)
(0.00446707 0.00752625 -5.52517e-19)
(0.00438725 0.00750411 3.71266e-19)
(0.00422914 0.00752601 3.22784e-19)
(0.00643047 0.011042 -4.97097e-21)
(0.00411927 0.00740246 3.11591e-20)
(0.00645796 0.0110723 0)
(2.79993e-05 7.72804e-06 -1.89939e-19)
(0.00199187 0.00654068 2.28466e-19)
(0.000844131 -2.52022e-05 1.09859e-19)
(0.000857776 1.57331e-05 0)
(2.81571e-06 2.69415e-06 -3.99278e-19)
(3.73163e-05 -0.00018011 6.91856e-19)
(2.4817e-05 6.18522e-05 2.08981e-18)
(0.000815533 0.000180347 -9.01073e-20)
(0.000793939 1.16347e-05 7.06763e-19)
(3.08484e-06 -2.96609e-06 3.10124e-19)
(2.43014e-05 -4.01441e-05 -1.84637e-18)
(0.000755102 2.75663e-05 1.63237e-19)
(0.000857122 0.000127671 -3.07647e-20)
(0.000794235 -9.63819e-06 1.46791e-19)
(0.000401606 0.000670132 0)
(9.0554e-05 -0.000152748 1.15128e-18)
(0.000850783 1.48896e-05 1.52385e-19)
(2.21753e-05 2.69023e-05 0)
(0.000107979 0.000566607 -6.31411e-19)
(0.000604454 0.000602002 1.31835e-18)
(0.000333107 0.000735885 0)
(0.000795359 -1.79588e-05 0)
(0.000794025 9.26826e-06 1.16849e-18)
(2.11118e-05 5.29908e-05 -3.51634e-18)
(1.97025e-05 9.29843e-06 3.73778e-19)
(0.000114919 0.000152543 0)
(5.61063e-05 -4.34308e-05 0)
(6.64628e-05 0.00011871 2.01079e-19)
(0.000920902 0.00017779 3.50592e-19)
(0.000798495 1.31214e-05 -1.38808e-18)
(2.51993e-05 3.71007e-05 0)
(0.000525442 2.964e-05 -6.03058e-20)
(0.000799224 3.97867e-05 -1.56421e-19)
(0.000829437 2.46626e-05 1.04051e-18)
(0.000257277 0.000545252 6.32442e-19)
(0.000854078 0.000152494 0)
(2.60907e-05 -2.85485e-05 5.38906e-19)
(3.87649e-06 -1.06784e-05 -3.20105e-19)
(0.00103655 2.44693e-05 0)
(0.00103335 0.00224024 0)
(0.000995536 -2.29429e-05 0)
(0.000990266 0.000200082 4.27378e-19)
(0.000812773 -2.46613e-05 -2.8206e-19)
(0.000912272 0.000115749 -6.85093e-19)
(0.000795201 4.05779e-06 0)
(4.36218e-05 7.47711e-05 -1.71635e-19)
(0.000173469 0.000330361 1.08152e-18)
(0.000794509 2.66585e-05 4.11586e-24)
(0.0010742 0.000200729 -6.69039e-19)
(0.0010881 0.000119815 0)
(3.30952e-06 9.77274e-06 2.51135e-19)
(2.31838e-05 -1.88071e-05 -1.94396e-19)
(0.000623757 3.31152e-05 6.88888e-21)
(3.19529e-05 -9.9493e-05 0)
(0.00103946 0.000249059 9.50233e-19)
(0.00502814 0.0097488 -2.83155e-19)
(0.00311927 0.00962253 1.27209e-18)
(6.87519e-05 -0.000116568 -1.91379e-19)
(7.36212e-05 -8.03736e-05 1.86038e-18)
(0.00119155 0.000231102 1.67063e-19)
(0.00133615 0.00107447 2.3417e-19)
(0.000818671 1.89191e-06 -7.3256e-19)
(0.000211729 0.000949653 -2.38801e-19)
(0.000796932 0.000902918 -2.18657e-19)
(0.000797042 -5.26813e-06 0)
(9.25458e-05 0.000656346 0)
(9.72193e-05 0.000286387 -4.46619e-23)
(0.000731107 -3.11308e-05 -1.68999e-23)
(0.000813712 4.65061e-05 1.5075e-19)
(0.00262303 0.00206385 -1.23188e-18)
(0.00175723 0.00924392 -1.17149e-19)
(0.000829292 3.44916e-05 4.86221e-19)
(0.00633582 0.00403857 -1.7576e-19)
(0.00672036 0.0115571 -1.36643e-20)
(0.00473357 0.00784418 4.9374e-21)
(0.000799681 1.97305e-05 -2.17635e-18)
(0.000827286 2.47178e-05 -1.12182e-24)
(1.30155e-05 -1.03135e-05 -3.48169e-19)
(4.77969e-05 9.63453e-05 -3.49422e-19)
(7.4505e-05 0.000279625 8.7584e-19)
(1.3849e-05 1.89479e-05 4.90615e-19)
(9.01288e-05 0.000237824 3.69904e-19)
(0.000821347 3.27837e-05 0)
(0.00534767 0.00949249 1.94935e-20)
(0.00154414 0.00061168 -2.61215e-20)
(0.000820565 2.67098e-05 3.55766e-19)
(5.30428e-05 -9.1182e-05 0)
(0.00184345 0.00074676 5.46206e-19)
(1.21484e-05 9.7663e-06 -2.7027e-19)
(3.73928e-05 3.21224e-05 9.72237e-20)
(0.0013129 0.00137966 6.36534e-19)
(0.000740493 4.00804e-05 1.832e-19)
(9.30089e-06 -2.71787e-06 -1.70279e-19)
(0.002063 0.00154683 -1.05649e-18)
(0.00012713 0.000185732 -8.19049e-19)
(0.00392085 0.00848505 -1.09114e-18)
(8.7163e-06 2.41648e-06 8.81802e-20)
(0.000177731 -0.000225033 -1.25057e-18)
(6.0965e-05 -6.01549e-05 4.0583e-20)
(0.00153029 0.000967396 0)
(0.00102838 0.000141304 -4.17784e-22)
(0.000452096 0.000853289 -4.02344e-20)
(0.000801308 2.30257e-05 -2.34089e-19)
(8.71606e-05 0.000192101 7.36343e-19)
(4.49849e-05 -6.88563e-05 4.04206e-19)
(2.08348e-05 1.77339e-05 -9.47507e-20)
(3.57529e-05 0.000100468 -3.2042e-19)
(0.000199418 -0.000327939 -5.40946e-19)
(0.00324729 0.00344477 2.79116e-21)
)
;

boundaryField
{
    back
    {
        type            empty;
    }
    ingreso
    {
        type            fixedValue;
        value           uniform (0.0008 0 0);
    }
    salida
    {
        type            zeroGradient;
    }
    front
    {
        type            empty;
    }
    defaultFaces
    {
        type            noSlip;
    }
}


// ************************************************************************* //
