/*--------------------------------*- C++ -*----------------------------------*\
  =========                 |
  \\      /  F ield         | OpenFOAM: The Open Source CFD Toolbox
   \\    /   O peration     | Website:  https://openfoam.org
    \\  /    A nd           | Version:  7
     \\/     M anipulation  |
\*---------------------------------------------------------------------------*/
FoamFile
{
    version     2.0;
    format      ascii;
    class       surfaceScalarField;
    location    "118.5";
    object      phi;
}
// * * * * * * * * * * * * * * * * * * * * * * * * * * * * * * * * * * * * * //

dimensions      [0 3 -1 0 0 0 0];

internalField   nonuniform List<scalar> 
1111
(
7.28157e-09
1.27923e-08
-1.60687e-08
-4.00515e-09
7.19556e-09
-1.1746e-08
1.1832e-08
-1.47189e-08
6.00076e-09
8.66854e-09
4.95797e-11
1.06719e-09
-1.24528e-09
-1.4413e-08
1.45911e-08
-1.43801e-08
1.42379e-08
1.20945e-09
-1.59716e-09
1.49162e-08
2.10947e-09
-2.29099e-09
9.12246e-09
-8.87225e-09
2.04077e-09
-6.7241e-09
-1.26089e-08
1.25945e-08
6.73853e-09
-5.01555e-08
-2.61289e-08
7.62843e-08
-8.06773e-09
7.7413e-09
7.52199e-09
3.16563e-09
3.89912e-10
-3.23955e-09
-3.1599e-10
1.58618e-08
-1.62828e-08
-2.32708e-08
2.36918e-08
-9.66703e-09
-7.90154e-09
8.80299e-09
8.76558e-09
-3.56096e-08
1.77454e-08
-3.23963e-08
5.02605e-08
9.48876e-09
-1.95705e-09
-1.42558e-08
-9.85152e-11
1.08042e-09
-2.2893e-09
1.3074e-09
-3.97562e-09
1.32462e-08
1.9726e-09
-1.12432e-08
8.80583e-09
-2.71681e-09
-1.50668e-08
8.97775e-09
3.71231e-08
-2.9785e-08
-7.33807e-09
-1.93867e-08
2.34007e-10
1.7215e-08
1.93768e-09
-1.0885e-09
4.2278e-09
-1.78263e-08
1.4687e-08
-6.123e-08
-3.961e-09
6.5191e-08
1.32794e-10
-1.04645e-09
-3.14369e-10
1.22803e-09
-1.83166e-09
-1.3637e-08
-4.15778e-11
-1.81592e-10
1.21838e-10
1.01332e-10
-1.04318e-08
-8.73213e-09
1.33659e-08
5.79807e-09
6.88749e-10
-2.15541e-09
-8.16101e-09
9.62767e-09
8.99097e-09
7.02718e-10
-1.00693e-08
3.75559e-10
-2.85253e-09
-8.18667e-09
1.12658e-08
-2.26608e-10
1.14182e-08
-1.12042e-09
-1.49192e-09
-6.98069e-10
7.15748e-10
-5.48515e-11
3.71731e-11
1.44447e-11
5.62369e-10
9.29037e-11
-6.69718e-10
-3.33521e-10
-4.14216e-11
3.64151e-10
1.07916e-11
-8.11472e-11
-6.41625e-10
1.19038e-10
6.03734e-10
-1.2981e-10
-6.49407e-10
1.04938e-09
-1.83371e-08
-2.09896e-09
-2.62065e-10
3.20226e-11
-1.03479e-10
1.33773e-08
-1.32489e-08
4.09938e-09
-3.15629e-10
4.9122e-10
2.82545e-10
-4.58137e-10
2.07755e-10
-8.59015e-10
7.69449e-10
-1.18189e-10
-1.69169e-09
1.07373e-08
-1.13366e-08
-1.75562e-10
-1.19526e-10
3.30226e-11
-8.6882e-09
1.07454e-08
-1.01249e-08
1.23022e-08
-1.71228e-08
4.46717e-09
3.53438e-10
3.45473e-11
-1.10902e-10
-9.92076e-11
1.00684e-10
6.73171e-10
-5.81069e-11
-5.94858e-08
7.4221e-08
-1.47352e-08
9.29379e-10
-1.50282e-10
-1.01419e-09
2.35098e-10
1.1264e-09
1.031e-08
-1.37139e-08
2.2775e-09
-2.01848e-09
7.99475e-09
-8.89329e-09
2.91702e-09
-6.84866e-09
5.50732e-09
5.77554e-09
-4.4342e-09
-8.05169e-09
-1.30434e-09
1.45531e-09
7.90072e-09
-1.82975e-10
-9.09121e-08
9.12982e-08
-2.03126e-10
-2.57687e-10
-8.97484e-08
9.01586e-08
-1.52552e-10
8.3079e-08
-1.49102e-09
1.09755e-10
-8.16977e-08
-2.64797e-09
-6.52743e-10
5.25362e-10
7.60821e-10
-3.56804e-10
3.85032e-09
-6.73988e-10
3.63886e-09
-6.81519e-09
-8.29693e-10
7.80093e-10
-1.49035e-08
6.56589e-09
1.01522e-08
1.08845e-09
-1.09297e-08
-3.10925e-10
-6.0039e-09
1.373e-08
8.06988e-10
-8.53313e-09
1.44059e-08
-4.65201e-09
3.89326e-09
-1.36472e-08
1.53816e-08
1.67206e-09
-1.62481e-09
-1.59451e-10
-2.00941e-08
-7.45634e-09
2.77099e-08
1.46921e-08
-8.97438e-09
-1.79602e-09
8.12828e-09
-1.23362e-08
8.5336e-11
-5.85209e-11
-1.04101e-09
-3.60715e-08
-2.34143e-08
8.39533e-09
3.44684e-10
3.56222e-09
-6.93559e-09
1.1464e-08
6.21694e-09
-5.09145e-10
2.5488e-10
4.11709e-10
-1.57444e-10
5.61074e-09
-4.87255e-09
3.7209e-09
-4.4591e-09
-3.18034e-10
-5.48175e-10
2.24584e-10
5.24688e-10
-4.47072e-10
7.25117e-11
-5.62183e-10
5.04116e-10
-1.83611e-08
2.36063e-09
1.6335e-09
1.4367e-08
1.62593e-10
-5.86727e-10
-8.50117e-11
-4.32439e-09
-1.52467e-08
1.20994e-09
5.6363e-09
1.21529e-08
-5.24793e-09
-1.25413e-08
1.63434e-08
7.81836e-10
-1.58046e-08
-1.32067e-09
-5.87837e-10
3.70153e-10
4.72563e-10
-1.49324e-10
6.02511e-11
8.90731e-11
-7.58821e-09
-3.41237e-09
4.15192e-09
-1.46123e-10
2.40945e-10
-9.4822e-11
9.75599e-10
-1.57318e-08
-6.7316e-10
1.03416e-08
-1.13601e-08
-7.99209e-10
-7.68134e-11
1.3042e-08
4.52056e-09
-4.23246e-09
-1.33301e-08
1.86724e-11
7.28956e-09
-8.09096e-09
6.30871e-09
-1.49859e-09
-9.26678e-09
8.41443e-09
2.35094e-09
-2.00603e-09
7.16416e-10
-1.39571e-08
-7.1614e-11
-7.45093e-11
5.54032e-10
4.83393e-10
-9.08912e-09
8.10904e-10
1.72466e-08
-1.71404e-09
-1.16541e-08
1.30647e-08
-1.41059e-09
1.2339e-08
1.39089e-08
-1.55016e-08
-1.07464e-08
-4.00188e-10
7.77687e-10
-3.77498e-10
-1.74313e-11
2.8911e-10
-2.71679e-10
-4.96864e-10
1.17023e-09
-6.73367e-10
1.15409e-09
-9.10479e-10
-2.43607e-10
-1.04629e-08
1.07148e-09
9.3914e-09
1.74155e-09
-5.87465e-10
8.98695e-09
-1.5435e-08
8.18704e-09
-9.65148e-09
7.5112e-11
3.51437e-09
-4.23856e-10
-2.13146e-09
2.20657e-09
-6.27613e-09
7.61334e-09
-1.33721e-09
-3.19315e-10
4.34305e-09
-1.73411e-10
1.72403e-08
-1.44768e-08
-1.63703e-09
-6.32613e-09
5.51272e-09
1.39419e-10
-1.59245e-10
5.58738e-09
-5.53983e-09
-4.75462e-11
6.76634e-09
4.61995e-09
-9.42452e-11
-1.58317e-08
1.05245e-08
1.76463e-08
5.87536e-09
8.18054e-09
8.14085e-09
-6.84713e-09
1.48607e-09
-1.19489e-08
-6.75039e-11
1.73612e-09
-1.30324e-08
2.62505e-09
-4.18476e-10
1.08432e-08
-1.00614e-08
-3.25261e-10
-6.03759e-10
-1.38446e-08
7.97577e-09
6.21552e-10
1.93543e-11
-8.86766e-09
4.92684e-09
-2.99445e-08
-1.25251e-08
-2.87891e-09
1.55944e-09
1.41556e-08
1.11523e-08
-1.08787e-08
-1.44293e-08
1.533e-08
-3.21687e-09
-1.21131e-08
1.5881e-09
4.0579e-09
-7.38355e-10
-8.49251e-10
-7.45583e-10
1.02277e-09
5.72064e-10
-1.90837e-10
3.05673e-10
2.96873e-10
6.21484e-08
-6.21746e-08
2.62149e-11
6.20676e-08
-6.2372e-08
3.04372e-10
8.37651e-10
6.47296e-08
-6.55569e-08
8.27298e-10
6.41214e-08
6.08176e-10
-2.23625e-10
-6.6502e-08
9.45143e-10
-6.20642e-08
6.19295e-08
1.34719e-10
1.31408e-09
-6.78161e-08
-6.22239e-08
1.59739e-10
1.2874e-08
-4.22882e-10
1.04632e-09
-3.69498e-09
3.07154e-09
2.47926e-10
-1.10781e-09
7.8392e-10
-4.23819e-10
1.32101e-09
-1.52362e-09
6.26424e-10
1.29653e-09
-1.34159e-09
-1.34618e-11
-2.32829e-11
-3.49302e-09
2.54519e-09
-1.76457e-09
2.71241e-09
-2.07472e-10
-2.64005e-09
2.42464e-09
-3.36997e-09
-5.93678e-09
5.39978e-10
-5.24741e-10
1.04061e-09
1.06432e-09
-6.37201e-09
7.8095e-09
3.18245e-09
1.9712e-08
-4.38203e-09
-6.19647e-10
2.69275e-10
8.9035e-10
-1.00516e-08
-2.60199e-08
5.18012e-09
-4.12024e-09
-3.22616e-09
2.16629e-09
7.63734e-11
2.66475e-11
2.6113e-10
-2.40874e-09
3.23495e-09
9.07541e-09
6.20415e-10
-3.4863e-11
2.00426e-09
-2.17687e-09
1.6112e-09
1.46986e-08
1.3366e-08
-2.69184e-08
3.27285e-08
6.30787e-09
-2.28709e-08
-1.03554e-08
1.86014e-08
-1.80957e-08
1.06466e-08
4.58181e-11
-2.97209e-10
-1.0902e-09
-1.57194e-09
-2.71383e-09
2.943e-09
1.52445e-08
-6.64652e-10
-1.38634e-08
-1.07939e-09
-2.02852e-09
4.67848e-10
1.55018e-08
1.77982e-08
1.36824e-08
7.93322e-10
-1.76533e-09
-1.27104e-08
-1.32045e-09
5.99404e-09
1.26843e-08
-3.32454e-10
-9.20712e-10
-3.71566e-09
2.8447e-09
3.41615e-09
2.52901e-09
1.4654e-08
4.37157e-09
-1.4505e-08
1.82245e-08
-1.77003e-09
2.23858e-09
-3.2187e-09
1.94317e-09
-4.97474e-09
1.29035e-08
-1.19044e-08
-1.40583e-08
2.87498e-10
8.79606e-09
-1.73804e-09
1.45058e-09
1.32807e-09
-8.67133e-09
6.77832e-10
-4.53164e-09
-5.99032e-09
1.21651e-08
-1.48461e-08
8.92645e-10
1.7018e-09
-2.20458e-09
1.69417e-08
-1.64389e-08
-1.19201e-09
1.42098e-08
3.161e-09
-4.54661e-09
-1.40494e-08
7.62289e-09
-1.75391e-08
-8.17953e-09
7.02234e-09
5.90361e-09
1.47444e-08
-1.02335e-08
2.9753e-09
9.60915e-09
9.76393e-09
3.92094e-09
-4.26912e-09
2.18891e-08
-1.93737e-08
5.10753e-09
-1.08149e-08
2.16951e-09
5.75458e-09
1.41034e-08
-4.47256e-10
1.28435e-08
-1.35883e-08
-1.94635e-09
1.38682e-09
-3.81232e-10
9.40762e-10
1.11394e-08
-6.3536e-09
7.3671e-09
-1.12075e-08
1.48106e-09
-4.73682e-09
1.15947e-08
-1.21058e-08
-7.60157e-09
9.30296e-09
9.43806e-09
1.30199e-08
4.53036e-10
-1.39202e-08
1.32808e-09
7.59013e-10
-1.12278e-08
-6.71836e-09
1.03446e-08
-1.1975e-09
2.50447e-09
-9.04317e-09
4.74879e-09
-5.4005e-09
1.17497e-08
-3.44874e-09
-1.19814e-08
3.68036e-09
-4.44212e-09
1.1455e-08
1.69133e-09
1.08733e-09
-5.10629e-09
-1.79754e-08
1.06215e-08
1.24602e-08
6.71214e-10
-1.11755e-08
-1.0111e-08
1.61801e-08
1.27543e-08
2.90151e-09
-9.90122e-09
-1.33651e-08
-3.17425e-10
-1.27527e-08
1.84605e-10
-7.72904e-10
1.18541e-08
1.25554e-08
-8.23569e-09
1.68083e-08
-1.61521e-08
3.71534e-09
-5.47443e-10
1.83877e-09
1.30757e-08
-3.94614e-09
-1.28276e-08
-4.86472e-09
2.05008e-09
4.55076e-09
1.25112e-08
-7.23737e-09
1.03878e-09
-1.70585e-09
1.9239e-10
-4.32889e-10
6.02247e-09
2.65132e-08
1.3011e-10
-8.81121e-09
8.68109e-09
2.87322e-08
-2.24758e-08
2.21393e-08
1.98757e-08
-1.2715e-08
-2.75984e-09
1.51996e-08
1.27875e-10
-1.21492e-08
-4.75613e-10
-5.98671e-09
-1.8078e-09
2.10747e-09
1.39166e-09
-6.36762e-10
-1.12474e-08
1.17294e-08
1.54773e-10
2.8553e-09
-4.803e-09
-1.13318e-08
1.08584e-08
-9.52242e-10
-1.10282e-08
-3.36826e-10
-1.15451e-08
-2.3268e-09
-1.2187e-08
2.11979e-09
7.86438e-09
5.17285e-09
-6.89452e-10
-1.18267e-08
1.18794e-08
5.16626e-10
-9.0058e-09
5.06676e-09
-1.62802e-09
1.97617e-09
-1.63194e-09
-1.30696e-08
-1.22654e-08
1.17061e-08
-1.01212e-08
-1.58543e-08
1.01437e-08
9.32037e-09
7.63334e-10
2.80473e-09
-1.16159e-08
1.16713e-08
1.6639e-09
3.8383e-09
2.38861e-10
-4.10325e-10
-1.4657e-10
-4.167e-09
2.42197e-09
-2.83486e-10
1.162e-10
-1.37509e-10
2.13097e-11
-2.74762e-09
1.32365e-08
2.26545e-09
2.50897e-09
5.23183e-10
-1.15621e-09
-7.12942e-10
-2.15032e-09
-9.60957e-11
1.31945e-08
1.02545e-08
-2.61623e-10
6.6573e-09
-1.26155e-09
-5.13413e-09
-9.89073e-09
-5.18315e-09
8.63176e-11
2.98817e-11
4.83074e-09
1.38601e-09
-1.73922e-08
-2.21369e-10
-6.59262e-10
-2.77228e-09
1.031e-09
3.33156e-09
6.1951e-08
-8.57201e-11
-6.18653e-08
6.23749e-08
1.88601e-10
-6.25635e-08
-1.40894e-08
-4.24424e-10
1.44089e-08
1.04913e-10
3.33686e-09
-1.64005e-09
2.34429e-09
1.80023e-09
-4.59236e-09
-1.6921e-10
-4.47035e-10
3.63519e-10
-7.39288e-11
3.25969e-10
-2.06634e-10
1.98495e-08
9.77281e-10
-1.5996e-08
-6.93253e-11
-1.95929e-09
1.27208e-08
2.31417e-09
1.83799e-09
5.34135e-09
-2.15045e-09
-7.72309e-08
-2.41786e-08
-5.11247e-09
1.58314e-08
2.52721e-09
2.57939e-10
-2.69174e-09
-9.03817e-10
1.29968e-10
-1.46863e-10
-9.34088e-09
-3.73935e-10
9.71481e-09
-1.09811e-08
-6.53289e-09
1.07956e-08
-9.58433e-09
8.7217e-09
3.58175e-10
1.28658e-09
8.93817e-09
-8.96698e-09
2.8809e-11
5.09281e-10
8.78506e-11
1.10533e-08
3.39194e-10
-5.73163e-10
2.75195e-11
-1.42632e-08
-4.02711e-10
-1.39081e-08
1.28672e-08
-1.1953e-08
-6.60367e-08
6.49949e-08
1.04179e-09
1.57824e-10
-1.31177e-10
1.22158e-08
-1.41739e-10
4.2288e-12
-2.17939e-09
2.74339e-09
-3.39572e-09
-1.34648e-08
-1.62823e-09
2.5802e-09
-4.60307e-09
-1.42448e-08
1.45565e-09
5.5128e-09
9.8085e-09
-9.18012e-09
-1.61318e-10
1.95794e-11
-9.26096e-09
-1.35697e-08
1.50924e-10
-6.26905e-08
2.35548e-10
6.2455e-08
6.95457e-10
6.3426e-08
-2.23552e-10
-1.72705e-09
-1.45176e-08
1.07443e-10
-6.34105e-08
6.3303e-08
1.8526e-10
-6.29518e-08
6.27666e-08
2.57635e-10
6.17964e-08
1.50554e-10
-6.1947e-08
6.16275e-08
1.68891e-10
-8.78884e-08
8.84975e-08
-9.05976e-13
9.33918e-08
-9.30983e-08
-2.67293e-10
-8.66281e-08
-4.3305e-10
9.33509e-08
-1.82659e-10
-8.49155e-08
-7.67418e-10
9.34814e-08
1.73785e-10
-5.2247e-10
1.96174e-09
9.23574e-08
-6.93072e-08
6.21379e-08
-6.23209e-08
-6.29482e-08
6.14851e-08
1.42431e-10
-3.19956e-09
2.97897e-09
-1.42844e-08
3.46887e-11
5.16286e-11
8.58474e-10
8.67613e-09
-1.13929e-08
3.83526e-08
-3.45864e-08
-1.67986e-08
1.38314e-08
-2.27667e-11
-1.83129e-10
9.06089e-11
4.4613e-10
-9.95084e-11
2.72189e-10
4.33807e-09
1.06995e-09
-3.46486e-09
-8.83642e-11
1.20386e-10
-5.53421e-11
-2.63081e-09
1.33869e-08
2.48041e-09
-1.44158e-08
-2.61693e-09
-3.17641e-09
5.4441e-09
1.06026e-09
-2.59109e-09
1.4432e-08
-1.21942e-09
-1.22798e-09
1.03682e-09
-8.1606e-09
-1.90923e-08
-1.35512e-08
8.09653e-09
5.74219e-09
-1.51788e-10
-5.88086e-10
2.84734e-09
1.45042e-08
2.29454e-09
-1.88246e-09
-3.3077e-10
3.80913e-10
-2.09387e-10
1.58585e-08
-6.18352e-10
-1.5614e-08
7.34825e-10
3.36889e-10
3.46555e-10
-2.92682e-10
3.32232e-09
-1.60517e-08
3.65065e-10
-1.4074e-09
-1.98395e-09
-2.26885e-09
1.58579e-08
-9.05928e-08
-1.34063e-10
9.16778e-08
-1.90963e-10
-8.91633e-08
-4.77711e-10
9.3101e-08
-2.75233e-10
-9.29115e-08
-5.17803e-10
-1.47706e-09
1.69623e-08
9.19793e-08
-1.98635e-10
2.97047e-11
-2.20874e-10
9.58593e-09
2.30377e-09
-6.95254e-09
-1.23716e-08
-5.67462e-09
8.34276e-09
1.55125e-09
-6.71156e-09
-5.96613e-09
9.07334e-09
-2.07952e-11
1.01083e-08
1.94938e-08
-1.79784e-08
3.0926e-09
-1.28779e-08
3.14285e-09
-6.99574e-08
3.92072e-09
-2.05923e-08
-1.30339e-08
-4.18651e-10
-5.91149e-09
-1.53243e-08
9.08664e-09
-1.50395e-08
3.46527e-10
2.93907e-10
-1.97633e-09
-1.68452e-08
1.72263e-08
6.90296e-09
-7.5557e-09
-4.14931e-09
1.53777e-08
-1.7022e-09
7.56501e-10
-6.29822e-10
-2.66069e-11
1.19604e-08
3.31109e-09
7.09099e-08
-1.82284e-08
6.01773e-10
-1.51422e-08
-1.99233e-10
-2.2636e-10
-1.75544e-10
6.09477e-08
-6.12229e-08
-6.33808e-08
-6.31505e-08
-6.41691e-11
-2.62225e-10
-9.25851e-08
-6.04506e-08
6.24124e-08
6.51046e-08
-6.02768e-08
6.45822e-08
-6.04595e-08
6.38147e-08
-6.07268e-08
6.33817e-08
9.23079e-08
2.2428e-10
-6.32693e-09
7.51325e-08
-6.54945e-08
1.58628e-11
-1.58628e-11
-2.2498e-10
-2.85958e-10
1.54726e-08
7.76734e-12
-7.76734e-12
2.51661e-10
1.51176e-09
1.3917e-08
1.35062e-08
-2.698e-09
3.71086e-09
6.77142e-09
1.64591e-09
3.1674e-10
-2.103e-10
-2.95271e-09
1.45625e-08
1.484e-08
-4.29426e-09
1.18215e-08
1.42458e-10
1.1651e-10
2.6038e-09
-7.13222e-10
-1.41441e-09
-5.86333e-09
-1.79764e-10
-3.50785e-10
1.53149e-08
1.95699e-10
2.64395e-11
1.41141e-08
-2.62954e-08
1.79253e-08
2.73173e-09
1.14804e-09
2.50117e-09
-3.72439e-09
1.94672e-08
-1.8244e-08
-5.57518e-11
-1.32054e-10
-1.4411e-09
-7.92148e-08
-7.07483e-08
1.14648e-09
-2.09854e-10
5.77453e-10
2.30161e-08
1.86171e-08
-6.47774e-09
8.05094e-11
-4.15438e-09
-2.5241e-09
2.99691e-08
1.6163e-10
1.48185e-08
7.35779e-08
2.85628e-11
4.92641e-10
-1.22471e-10
-1.78399e-10
-3.50829e-09
2.43797e-08
-1.48666e-08
8.04576e-10
-1.42145e-08
-3.57653e-11
2.04125e-08
-2.87824e-08
9.76938e-10
1.77165e-09
-1.0825e-10
)
;

boundaryField
{
    back
    {
        type            empty;
        value           nonuniform 0();
    }
    ingreso
    {
        type            calculated;
        value           nonuniform List<scalar> 
14
(
-1.54286e-08
-1.54288e-08
-1.54288e-08
-1.54288e-08
-1.54286e-08
-1.54283e-08
-1.54288e-08
-1.54288e-08
-1.54286e-08
-1.54286e-08
-1.54288e-08
-1.5428e-08
-1.5428e-08
-1.54286e-08
)
;
    }
    salida
    {
        type            calculated;
        value           nonuniform List<scalar> 2(1.01409e-07 1.1459e-07);
    }
    front
    {
        type            empty;
        value           nonuniform 0();
    }
    defaultFaces
    {
        type            calculated;
        value           uniform 0;
    }
}


// ************************************************************************* //
