/*--------------------------------*- C++ -*----------------------------------*\
  =========                 |
  \\      /  F ield         | OpenFOAM: The Open Source CFD Toolbox
   \\    /   O peration     | Website:  https://openfoam.org
    \\  /    A nd           | Version:  7
     \\/     M anipulation  |
\*---------------------------------------------------------------------------*/
FoamFile
{
    version     2.0;
    format      ascii;
    class       surfaceScalarField;
    location    "81.5";
    object      phi;
}
// * * * * * * * * * * * * * * * * * * * * * * * * * * * * * * * * * * * * * //

dimensions      [0 3 -1 0 0 0 0];

internalField   nonuniform List<scalar> 
1111
(
6.79376e-09
1.30667e-08
-1.59952e-08
-3.86526e-09
6.78257e-09
-1.18228e-08
1.1834e-08
-1.47524e-08
5.53321e-09
9.00412e-09
2.15098e-10
7.46105e-10
-8.56899e-10
-1.43315e-08
1.44423e-08
-1.42773e-08
1.40343e-08
9.89106e-10
-1.64425e-09
1.49097e-08
2.16316e-09
-3.2236e-09
9.61757e-09
-9.97136e-09
3.57739e-09
-6.71429e-09
-1.26166e-08
1.25999e-08
6.73092e-09
-5.03647e-08
-2.60064e-08
7.63711e-08
-8.13527e-09
7.67596e-09
7.24188e-09
3.39973e-09
3.57502e-10
-3.48161e-09
-2.75619e-10
1.5815e-08
-1.61728e-08
-2.31609e-08
2.35187e-08
-9.65871e-09
-7.89377e-09
8.7982e-09
8.75428e-09
-3.55205e-08
1.76748e-08
-3.22964e-08
5.01421e-08
9.50912e-09
-1.96315e-09
-1.42603e-08
-8.76464e-10
1.78237e-09
-3.28086e-09
2.37495e-09
-3.88386e-09
1.33464e-08
1.96063e-09
-1.14232e-08
8.82151e-09
-2.59559e-09
-1.50445e-08
8.81858e-09
3.74311e-08
-3.01217e-08
-7.30943e-09
-1.94524e-08
3.8653e-10
1.7249e-08
1.81691e-09
-9.99808e-10
4.2078e-09
-1.78615e-08
1.46535e-08
-6.12214e-08
-3.96273e-09
6.51841e-08
1.43857e-10
-1.20225e-09
-3.40917e-10
1.39931e-09
-1.65714e-09
-1.362e-08
-1.1323e-10
-2.65967e-10
2.13185e-10
1.66013e-10
-1.03074e-08
-8.41615e-09
1.29127e-08
5.81082e-09
6.88359e-10
-2.12515e-09
-8.33806e-09
9.77485e-09
8.41797e-09
8.28312e-10
-9.43152e-09
1.85233e-10
-2.87412e-09
-7.94032e-09
1.10159e-08
-2.01446e-10
1.14011e-08
-8.93425e-10
-1.68612e-09
-8.73173e-10
8.68682e-10
1.88618e-11
-1.4371e-11
-1.48185e-10
7.46695e-10
2.86364e-10
-8.84875e-10
-4.8528e-10
-3.91609e-11
5.18675e-10
5.76529e-12
-2.50538e-11
-8.55913e-10
1.0963e-10
7.71337e-10
-8.88623e-11
-8.09365e-10
9.12972e-10
-1.84436e-08
-1.92178e-09
-4.02051e-10
4.40507e-11
-1.2728e-10
1.33929e-08
-1.32411e-08
4.05599e-09
-3.74807e-10
5.75803e-10
3.46814e-10
-5.4781e-10
-1.21714e-10
-1.70994e-09
1.37699e-09
4.5467e-10
-2.05962e-09
1.04166e-08
-1.15806e-08
-2.90473e-10
-1.64129e-10
5.25505e-11
-8.77132e-09
1.03643e-08
-9.7282e-09
1.22024e-08
-1.71453e-08
4.68451e-09
2.58386e-10
6.25125e-11
-1.6515e-10
-1.87836e-10
1.90158e-10
8.00818e-10
-1.22294e-10
-5.95281e-08
7.42284e-08
-1.47003e-08
1.05267e-09
-2.6633e-10
-1.18668e-09
4.00343e-10
1.14768e-09
1.03152e-08
-1.37194e-08
2.25656e-09
-1.59493e-09
7.56687e-09
-8.89233e-09
2.92038e-09
-6.65728e-09
5.66994e-09
5.62395e-09
-4.63661e-09
-7.52038e-09
-1.82623e-09
1.82613e-09
7.52049e-09
-1.83383e-10
-9.09196e-08
9.13057e-08
-2.02785e-10
-2.57822e-10
-8.9756e-08
9.01661e-08
-1.52256e-10
8.30814e-08
-1.49387e-09
1.09981e-10
-8.16975e-08
-2.95909e-09
-3.92282e-10
6.82687e-10
8.49051e-10
-4.79071e-10
3.9468e-09
-1.24623e-09
3.41447e-09
-6.11505e-09
-9.83575e-10
9.07403e-10
-1.49524e-08
6.59999e-09
9.66592e-09
1.03346e-09
-1.04283e-08
-2.71062e-10
-6.15278e-09
1.33354e-08
1.1287e-09
-8.31135e-09
1.43603e-08
-4.44752e-09
3.65337e-09
-1.35661e-08
1.54071e-08
1.68979e-09
-1.6681e-09
-1.90609e-10
-2.0063e-08
-7.42353e-09
2.76772e-08
1.42332e-08
-8.64429e-09
-1.96921e-09
7.9068e-09
-1.20904e-08
-1.94395e-11
9.76531e-11
-1.26489e-09
-3.62563e-08
-2.32718e-08
8.25301e-09
2.31146e-10
3.71827e-09
-7.02037e-09
1.10152e-08
6.36947e-09
-6.08406e-10
3.29119e-10
4.90396e-10
-2.11108e-10
5.79425e-09
-4.74841e-09
3.63716e-09
-4.683e-09
-4.8124e-10
-6.41342e-10
2.66668e-10
6.78735e-10
-6.08266e-10
-2.74744e-11
-8.78661e-10
7.5795e-10
-1.80241e-08
2.44283e-09
1.54066e-09
1.40406e-08
2.32995e-10
-7.11076e-10
-1.30326e-10
-4.08141e-09
-1.5062e-08
1.11938e-09
5.61761e-09
1.20195e-08
-5.22472e-09
-1.24124e-08
1.64402e-08
6.71143e-10
-1.59051e-08
-1.20624e-09
-6.90487e-10
4.66428e-10
5.53178e-10
-4.58742e-10
2.33192e-10
2.2555e-10
-7.35502e-09
-3.60753e-09
4.30527e-09
-2.43612e-10
3.71345e-10
-1.27733e-10
1.20329e-09
-1.55921e-08
-8.33007e-10
9.66817e-09
-1.08948e-08
-9.84154e-10
-4.86217e-10
1.28633e-08
4.40073e-09
-4.14798e-09
-1.3116e-08
1.19961e-10
7.11391e-09
-7.87046e-09
6.4265e-09
-1.7149e-09
-8.86407e-09
8.10988e-09
2.46909e-09
-1.85857e-09
6.55212e-10
-1.38587e-08
-1.37031e-10
-1.06581e-10
9.12259e-11
8.28571e-10
-8.44018e-09
7.42725e-10
1.73011e-08
-1.60358e-09
-1.24639e-08
1.38064e-08
-1.34256e-09
1.21821e-08
1.39801e-08
-1.5523e-08
-1.06392e-08
-5.73791e-10
1.03997e-09
-4.66174e-10
5.0537e-10
-5.01001e-10
-4.36898e-12
6.22716e-10
-5.06867e-10
-1.15849e-10
1.45263e-09
-1.18382e-09
-2.6881e-10
-1.06976e-08
7.64086e-10
9.93349e-09
2.10343e-09
-6.50803e-10
8.9531e-09
-1.53698e-08
7.37993e-09
-8.88363e-09
5.53453e-11
3.74156e-09
-3.97174e-10
-2.46093e-09
2.51628e-09
-6.66556e-09
7.99603e-09
-1.33047e-09
-6.10364e-10
4.22384e-09
3.33324e-10
1.72737e-08
-1.44869e-08
-1.63904e-09
-5.92389e-09
5.35437e-09
-6.7671e-10
-2.02447e-10
5.9772e-09
-5.98062e-09
3.4184e-12
6.9293e-09
4.48891e-09
1.91527e-11
-1.60192e-08
1.04623e-08
1.7739e-08
5.75099e-09
8.29222e-09
8.21561e-09
-6.84649e-09
1.29082e-09
-1.19884e-08
5.61353e-10
1.08163e-09
-1.29336e-08
2.94337e-09
-4.27085e-10
1.17211e-08
-1.105e-08
-2.30943e-10
-8.42073e-10
-1.37973e-08
7.53164e-09
7.70249e-10
-1.32845e-11
-8.90583e-09
5.06848e-09
-3.03123e-08
-1.25057e-08
-2.75543e-09
1.46385e-09
1.4061e-08
1.09858e-08
-1.07424e-08
-1.43044e-08
1.54698e-08
-3.11542e-09
-1.23544e-08
1.63016e-09
3.94992e-09
-1.14581e-09
-9.14865e-10
-8.92262e-10
1.19429e-09
6.12835e-10
-2.44919e-10
3.66769e-10
3.68545e-10
6.2137e-08
-6.21622e-08
2.52079e-11
6.20583e-08
-6.23619e-08
3.0362e-10
8.36903e-10
6.47388e-08
-6.55653e-08
8.26484e-10
6.41313e-08
6.07483e-10
-2.24929e-10
-6.65105e-08
9.45173e-10
-6.20487e-08
6.19145e-08
1.34127e-10
1.31554e-09
-6.7826e-08
-6.22081e-08
1.59402e-10
1.24814e-08
-7.95691e-10
1.40611e-09
-3.70185e-09
3.09143e-09
3.43324e-10
-1.20551e-09
9.73332e-10
-6.29373e-10
1.40977e-09
-1.65447e-09
8.74074e-10
1.43454e-09
-1.55243e-09
2.15539e-10
-6.31215e-11
-3.4082e-09
2.83485e-09
-2.06908e-09
2.64243e-09
-5.46815e-10
-2.77227e-09
2.52339e-09
-3.62891e-09
-5.75612e-09
5.98978e-10
-6.4219e-10
1.25703e-09
1.12607e-09
-6.51661e-09
7.95285e-09
3.05266e-09
1.98343e-08
-4.36454e-09
-7.29861e-10
2.90038e-10
1.0388e-09
-1.00816e-08
-2.61747e-08
5.3564e-09
-4.32537e-09
-3.15599e-09
2.12496e-09
1.10767e-10
2.21432e-11
3.85765e-10
-2.62082e-09
3.37568e-09
8.88566e-09
7.76217e-10
-3.12164e-10
2.1265e-09
-2.36115e-09
1.94783e-09
1.4751e-08
1.32901e-08
-2.69543e-08
3.26877e-08
6.34036e-09
-2.28271e-08
-1.04676e-08
1.8433e-08
-1.79302e-08
1.0483e-08
-1.18284e-10
-1.59616e-10
-1.27453e-09
-1.7511e-09
-2.94618e-09
3.67142e-09
1.50223e-08
-6.02288e-10
-1.37648e-08
-5.06713e-10
-2.45781e-09
1.92254e-10
1.54688e-08
1.77153e-08
1.37021e-08
7.10116e-10
-1.65149e-09
-1.27608e-08
-1.61412e-09
5.99497e-09
1.24859e-08
-5.55859e-10
-1.09558e-09
-3.59813e-09
2.76573e-09
3.66725e-09
2.47695e-09
1.44016e-08
4.21795e-09
-1.42189e-08
1.79109e-08
-1.76922e-09
2.57354e-09
-3.451e-09
1.89137e-09
-4.85654e-09
1.29506e-08
-1.19779e-08
-1.40219e-08
3.73234e-10
8.79212e-09
-1.83035e-09
1.5303e-09
1.55708e-09
-8.65932e-09
7.02549e-10
-4.54895e-09
-6.02653e-09
1.22099e-08
-1.48427e-08
1.17023e-09
1.66765e-09
-2.21395e-09
1.67206e-08
-1.61743e-08
-1.04594e-09
1.41458e-08
3.01968e-09
-4.36833e-09
-1.40212e-08
7.49914e-09
-1.7303e-08
-8.12643e-09
6.73694e-09
5.86545e-09
1.45312e-08
-9.90997e-09
3.05562e-09
9.32345e-09
9.86895e-09
3.83489e-09
-4.17175e-09
2.16687e-08
-1.91016e-08
4.932e-09
-1.04575e-08
2.17765e-09
5.62066e-09
1.38309e-08
-2.38605e-10
1.27639e-08
-1.35712e-08
-1.88014e-09
1.96146e-09
-9.78774e-10
8.9745e-10
1.09906e-08
-6.38094e-09
7.40981e-09
-1.08555e-08
1.43155e-09
-4.74776e-09
1.14308e-08
-1.19078e-08
-7.55351e-09
9.15855e-09
9.3856e-09
1.28632e-08
7.10953e-10
-1.38128e-08
1.52127e-09
7.9909e-10
-1.10738e-08
-6.72035e-09
1.02407e-08
-1.4954e-09
2.51775e-09
-8.96024e-09
4.8073e-09
-5.22712e-09
1.15134e-08
-3.48944e-09
-1.1716e-08
3.69206e-09
-4.48703e-09
1.12526e-08
1.91388e-09
1.13769e-09
-5.03084e-09
-1.77169e-08
1.04433e-08
1.23044e-08
7.71655e-10
-1.09568e-08
-9.955e-09
1.58809e-08
1.2522e-08
2.84468e-09
-9.74602e-09
-1.33019e-08
-3.11324e-10
-1.27433e-08
1.69234e-10
-7.59602e-10
1.16063e-08
1.25184e-08
-8.22978e-09
1.65716e-08
-1.5956e-08
3.60239e-09
-4.59765e-10
1.74901e-09
1.27513e-08
-3.90752e-09
-1.26529e-08
-5.10215e-09
1.57342e-09
4.61036e-09
1.21909e-08
-7.2631e-09
8.98643e-10
-1.56559e-09
8.88834e-10
-1.20339e-09
5.85954e-09
2.62922e-08
-1.88982e-10
-1.02254e-08
1.04144e-08
2.85091e-08
-2.22631e-08
2.20547e-08
1.97063e-08
-1.27061e-08
-2.66965e-09
1.50462e-08
2.0635e-10
-1.21428e-08
-3.94165e-10
-6.02392e-09
-1.88368e-09
2.24767e-09
1.54989e-09
-3.18806e-10
-1.10416e-08
1.1414e-08
-5.3605e-11
3.11299e-09
-5.29476e-09
-1.09819e-08
1.0548e-08
-8.90391e-10
-1.07248e-08
-1.6221e-10
-1.11565e-08
-2.6267e-09
-1.1996e-08
2.19822e-09
7.89967e-09
5.13406e-09
-2.6542e-10
-1.17766e-08
1.17232e-08
5.95892e-10
-8.75377e-09
5.18857e-09
-1.41322e-09
2.36923e-09
-2.3614e-09
-1.3043e-08
-1.27575e-08
1.23031e-08
-1.02319e-08
-1.5785e-08
9.99767e-09
9.24067e-09
8.53579e-10
2.63828e-09
-1.28637e-08
1.13603e-08
1.67752e-09
3.94536e-09
3.10939e-10
-5.26579e-10
-2.656e-10
-4.1156e-09
2.58093e-09
-9.23146e-10
2.11773e-10
-2.48753e-10
3.698e-11
-2.65348e-09
1.2974e-08
2.20144e-09
2.55607e-09
-1.81949e-10
-1.49868e-09
-4.12032e-10
-2.38849e-09
-3.84716e-10
1.29264e-08
1.00064e-08
-3.57628e-10
6.87933e-09
-1.22756e-09
-5.29414e-09
-9.7682e-09
-5.10399e-09
1.62399e-10
4.93738e-11
4.8719e-09
1.31596e-09
-1.71446e-08
-3.9801e-10
-7.9919e-10
-2.75319e-09
1.01497e-09
2.9475e-09
6.19375e-08
-8.64618e-11
-6.1851e-08
6.23585e-08
1.88356e-10
-6.25469e-08
-1.41498e-08
-1.55123e-10
1.45137e-08
-2.08743e-10
3.0049e-09
-1.87163e-09
2.59011e-09
1.79926e-09
-4.46799e-09
-3.60707e-10
-5.47047e-10
4.43738e-10
-1.078e-10
4.68879e-10
-3.2207e-10
1.95853e-08
1.0853e-09
-1.57987e-08
-1.77895e-10
-1.93722e-09
1.24276e-08
2.261e-09
1.78153e-09
5.33239e-09
-2.07992e-09
-7.72336e-08
-2.41774e-08
-4.86933e-09
1.5818e-08
2.3977e-09
-2.35522e-10
-3.07612e-09
-1.15206e-09
4.13204e-10
-3.56721e-10
-1.0388e-08
-3.45384e-10
1.07334e-08
-1.08076e-08
-6.61258e-09
1.06998e-08
-9.42999e-09
8.76196e-09
1.40308e-10
1.58563e-09
9.89307e-09
-9.77837e-09
-1.14707e-10
6.29307e-10
8.37882e-11
1.05356e-08
7.16181e-10
-8.62545e-10
-1.4921e-10
-1.42426e-08
-4.94972e-10
-1.3743e-08
1.25761e-08
-1.1817e-08
-6.6029e-08
6.49824e-08
1.04659e-09
2.85157e-10
-2.63014e-10
1.19312e-08
-2.59518e-10
1.07641e-11
-2.04054e-09
2.77124e-09
-3.4336e-09
-1.3482e-08
-1.62997e-09
2.57183e-09
-4.74647e-09
-1.40291e-08
1.63098e-09
5.57887e-09
9.61607e-09
-8.97035e-09
-2.85411e-10
2.58926e-11
-9.33328e-09
-1.32506e-08
1.50488e-10
-6.27005e-08
2.3579e-10
6.24647e-08
6.95302e-10
6.3436e-08
-2.24711e-10
-1.5143e-09
-1.44744e-08
1.07296e-10
-6.33927e-08
6.32854e-08
1.85045e-10
-6.29347e-08
6.27497e-08
3.8551e-10
6.18049e-08
1.50921e-10
-6.19558e-08
6.16356e-08
1.69341e-10
-8.78956e-08
8.85052e-08
-2.03965e-12
9.33978e-08
-9.31048e-08
-2.67872e-10
-8.66343e-08
-4.34821e-10
9.33565e-08
-1.83605e-10
-8.49199e-08
-7.69268e-10
9.34872e-08
1.72925e-10
-5.22933e-10
1.9609e-09
9.23632e-08
-6.93199e-08
6.21471e-08
-6.23305e-08
-6.29583e-08
6.14926e-08
1.43e-10
-3.07647e-09
2.91856e-09
-1.4061e-08
5.53868e-11
1.07012e-10
1.54464e-09
8.79542e-09
-1.1391e-08
3.82902e-08
-3.45043e-08
-1.67195e-08
1.37843e-08
-4.8066e-11
-2.18181e-10
1.77763e-10
7.16178e-10
-1.36987e-10
3.35805e-10
4.51326e-09
1.03128e-09
-3.65318e-09
-2.13199e-10
2.57249e-10
-1.60649e-10
-2.54095e-09
1.31233e-08
2.39167e-09
-1.44414e-08
-2.61219e-09
-3.39488e-09
5.59293e-09
1.0453e-09
-2.67092e-09
1.42618e-08
-1.1476e-09
-2.26714e-09
2.71014e-09
-8.14221e-09
-1.90494e-08
-1.34208e-08
7.92623e-09
5.86777e-09
-2.45581e-10
-5.50796e-10
3.04404e-09
1.44661e-08
2.23944e-09
-1.79591e-09
-4.06325e-10
4.55768e-10
-2.5189e-10
1.5981e-08
-5.5512e-10
-1.57713e-08
-6.64508e-10
-7.18823e-10
3.16562e-10
-2.40636e-10
3.47299e-09
-1.65363e-08
4.95191e-10
-1.56619e-09
-2.161e-09
-2.3505e-09
1.55605e-08
-9.06003e-08
-1.3418e-10
9.16854e-08
-1.91259e-10
-8.91711e-08
-4.77715e-10
9.31081e-08
-2.75745e-10
-9.29188e-08
-5.62453e-10
-1.65454e-09
1.66797e-08
9.19868e-08
-1.98442e-10
2.94075e-11
-2.21363e-10
9.95666e-09
2.53396e-09
-7.72481e-09
-1.21233e-08
-5.67843e-09
8.43967e-09
1.45531e-09
-6.84232e-09
-6.04103e-09
9.01858e-09
-9.81368e-11
1.01494e-08
1.94818e-08
-1.79393e-08
3.07554e-09
-1.26465e-08
3.06914e-09
-6.99804e-08
3.95133e-09
-2.05387e-08
-1.30898e-08
-5.08777e-10
-5.95887e-09
-1.52829e-08
9.09894e-09
-1.5181e-08
4.57889e-10
3.87068e-10
-1.82985e-09
-1.65247e-08
1.69861e-08
7.50971e-09
-7.90199e-09
-4.9042e-09
1.52514e-08
-1.68898e-09
6.99386e-10
-1.07046e-09
2.10955e-10
1.19191e-08
3.31903e-09
7.09094e-08
-1.82186e-08
7.81984e-10
-1.49498e-08
-2.45985e-10
-2.88073e-10
-8.56086e-11
6.09542e-08
-6.12299e-08
-6.33633e-08
-6.31332e-08
-6.35091e-11
-2.62664e-10
-9.25927e-08
-6.04543e-08
6.24152e-08
6.50924e-08
-6.02813e-08
6.45695e-08
-6.04649e-08
6.38002e-08
-6.07328e-08
6.33654e-08
9.23155e-08
2.99455e-10
-6.39073e-09
7.51101e-08
-6.54004e-08
4.90428e-11
-4.90428e-11
5.49153e-10
-3.36407e-10
1.54886e-08
-3.9787e-11
3.9787e-11
3.61873e-10
1.54158e-09
1.38872e-08
1.33583e-08
-2.74461e-09
3.73183e-09
6.48644e-09
1.87972e-09
3.86755e-10
-2.65971e-10
-2.97879e-09
1.45677e-08
1.48471e-08
-4.28043e-09
1.18155e-08
1.97282e-10
1.57559e-10
2.79836e-09
-8.69548e-10
-1.58576e-09
-5.84224e-09
-2.023e-10
-4.12946e-10
1.53015e-08
2.74036e-10
8.01736e-11
1.47194e-08
-2.61045e-08
1.76908e-08
2.6322e-09
1.31072e-09
2.48511e-09
-3.72323e-09
1.92528e-08
-1.80147e-08
-8.79891e-11
3.02154e-10
-1.43979e-09
-7.92112e-08
-7.07597e-08
1.35562e-09
-6.25469e-10
6.60374e-10
2.29495e-08
1.85869e-08
-6.34683e-09
8.041e-11
-4.32925e-09
-2.49621e-09
2.99586e-08
1.49713e-10
1.48184e-08
7.35821e-08
5.83501e-11
5.24047e-10
-1.67262e-10
-2.27393e-10
-3.69514e-09
2.42018e-08
-1.48646e-08
1.03231e-09
-1.41366e-08
-5.79691e-11
2.03637e-08
-2.86522e-08
9.26714e-10
2.04563e-09
-3.58385e-10
)
;

boundaryField
{
    back
    {
        type            empty;
        value           nonuniform 0();
    }
    ingreso
    {
        type            calculated;
        value           nonuniform List<scalar> 
14
(
-1.54286e-08
-1.54288e-08
-1.54288e-08
-1.54288e-08
-1.54286e-08
-1.54283e-08
-1.54288e-08
-1.54288e-08
-1.54286e-08
-1.54286e-08
-1.54288e-08
-1.5428e-08
-1.5428e-08
-1.54286e-08
)
;
    }
    salida
    {
        type            calculated;
        value           nonuniform List<scalar> 2(1.01411e-07 1.14589e-07);
    }
    front
    {
        type            empty;
        value           nonuniform 0();
    }
    defaultFaces
    {
        type            calculated;
        value           uniform 0;
    }
}


// ************************************************************************* //
