/*--------------------------------*- C++ -*----------------------------------*\
  =========                 |
  \\      /  F ield         | OpenFOAM: The Open Source CFD Toolbox
   \\    /   O peration     | Website:  https://openfoam.org
    \\  /    A nd           | Version:  7
     \\/     M anipulation  |
\*---------------------------------------------------------------------------*/
FoamFile
{
    version     2.0;
    format      ascii;
    class       volScalarField;
    location    "64.5";
    object      p;
}
// * * * * * * * * * * * * * * * * * * * * * * * * * * * * * * * * * * * * * //

dimensions      [0 2 -2 0 0 0 0];

internalField   nonuniform List<scalar> 
591
(
0.000123901
0.000123919
0.000123924
0.000123878
0.00012388
0.00012395
0.000123946
0.000123913
0.000116997
0.000123929
0.000124107
0.000122842
0.000123919
0.000119744
0.000123913
0.000123962
0.000123889
0.000123955
0.000121962
0.000123291
0.000123893
-3.52592e-06
0.000124104
0.000123896
0.000124062
0.000123916
0.000124014
0.000124023
0.000123929
0.000123938
0.000124082
0.000124058
0.000124077
0.000124075
0.000124078
0.000123403
0.000124073
0.000123896
0.000124099
0.000124018
0.000123984
0.00012407
0.000123924
0.000123945
0.000124067
0.000124086
0.00011926
0.00012409
0.000123929
0.000124047
0.000124033
0.000124067
2.39416e-05
3.05855e-05
4.78431e-05
0.000123924
0.000124094
0.000124081
0.000124088
0.000123902
0.000123989
0.000123919
0.000123918
0.000123967
0.000122582
0.00012392
0.000123923
0.000124085
0.000120737
0.000123933
0.000123929
0.000124092
0.000124059
0.000124071
0.000124077
0.000124053
0.000123897
0.000124088
0.000123899
0.000123832
0.000123677
0.000124093
0.000124053
0.000124031
0.0001241
0.00012391
0.000124001
0.000124083
0.000124045
0.000123798
0.000124058
0.000124002
0.00012402
0.000123903
0.000124099
0.000124054
0.000123607
0.000123506
0.000123661
0.000124104
0.000124013
0.000123929
0.000124108
0.000123877
0.000124108
0.000123921
0.000123918
0.000124058
0.000124099
0.000124103
0.00012399
0.000124079
0.000123935
0.000124084
0.000124102
0.000124081
0.000124035
0.000124032
0.000123593
0.000124002
0.000123921
0.000123916
0.000123995
0.000123903
0.000124072
0.000120211
0.000124107
0.000124083
0.000123675
0.000124078
0.000123912
0.000123599
0.000124043
0.000124039
0.000124081
0.000123927
0.000122633
0.000124107
0.000123915
0.000123592
0.000123657
0.000124007
0.000124088
0.0001241
0.000124094
7.61675e-06
3.67854e-06
2.07112e-06
3.8157e-05
3.66972e-05
5.66112e-06
3.83073e-05
1.57406e-05
3.72874e-05
1.7807e-05
0.00012392
0.000123911
0.000124095
0.00012409
0.000124097
0.000124095
0.000124088
0.000124085
0.000124094
0.000124094
0.000124057
0.000124097
0.000124093
0.000124099
0.000124035
0.000123406
0.0001241
0.000122134
0.000124078
0.00012408
0.000124027
0.00012393
0.00012408
0.000124093
0.000124091
0.000123504
0.000122485
0.000123061
0.000123459
0.000124084
0.00012409
0.000124008
0.000123893
0.000124085
0.000122978
0.000123316
0.000123894
0.000124079
0.000123774
0.000124073
0.000124087
0.000124061
0.000123744
0.000123884
0.000124085
0.000124092
0.000124089
0.000123886
0.000124073
0.000123882
0.000124101
0.000123915
0.000123913
0.000124098
0.000123707
0.000123885
0.000123924
0.000123559
0.000124049
0.000123705
0.000123992
0.000124001
0.000124076
0.000123473
0.000123982
0.000123876
0.000123879
0.000124054
0.000123812
0.000123969
0.000123881
0.000123791
0.000123871
0.000124102
0.000123857
0.000124098
0.000123944
0.000124075
0.000123924
0.000123924
0.000124104
0.000123819
0.000124092
0.000123809
0.000123856
0.00012392
0.000123899
0.000123935
0.000123922
0.00012369
0.000123895
0.000123846
0.000124063
0.000123914
0.000123762
0.000124049
0.000123315
0.000123868
0.00012321
0.00012309
0.000123906
0.000123871
0.000123907
0.000123905
0.00012387
0.000124102
0.00012395
0.000124035
0.00012396
0.000123955
0.000123968
0.000124054
0.000123705
0.000124098
0.000123742
0.000123633
0.000123938
0.000124074
0.000123654
0.000124095
0.000124001
0.00012403
0.000124053
0.00012393
0.000123898
0.000123726
0.000123866
0.000123891
0.000123944
0.000123998
0.000124066
0.000124082
0.000124088
0.000123849
0.000123953
0.000124076
0.000124083
0.000124078
0.000123873
0.00012409
0.000123963
0.00012407
0.000123836
0.000124091
0.000123825
0.000124068
0.000123959
0.000123899
1.16416e-05
2.19109e-05
0.000123855
0.000123926
0.0001241
0.000123856
0.000124101
0.000123936
0.00012409
0.000124068
0.000123809
0.000124063
0.000123893
0.000124097
0.000123928
-2.09651e-07
0.000123785
0.000124073
0.000124069
0.00012377
0.000123913
0.000123953
0.000124063
0.000123828
0.000124084
0.000123971
0.000123921
0.000124061
0.000123874
0.000123802
0.000123833
0.00012393
4.74706e-05
0.000124079
0.000124063
0.000123919
0.000124085
0.000123999
0.000123942
0.000123923
0.000123912
0.000124072
0.000123938
0.000123846
0.000123964
0.00012385
0.000124084
0.000123858
0.000123912
0.000123948
0.000124033
1.98719e-05
2.73307e-05
3.4292e-05
9.63867e-06
0.000123897
3.30511e-05
2.59994e-05
0.000124082
1.90729e-05
1.70289e-05
3.81829e-05
7.57499e-06
3.9935e-05
5.60347e-06
4.08297e-05
3.68779e-06
4.28133e-05
1.8752e-06
3.63989e-05
2.31961e-05
2.94472e-05
1.49915e-05
0.000123775
0.000124092
0.000123964
0.00012397
0.000120907
0.000124017
0.000124087
0.000124058
0.000123865
0.000124093
0.000124092
0.000124074
0.000124071
0.000123837
0.000123913
0.000124075
0.000124081
0.00012392
0.000123794
0.000123854
0.000123423
0.000123875
0.000124105
0.000124077
0.000123925
0.0001241
0.00012377
0.000123946
0.000123729
0.000122877
0.000124072
0.000124083
0.000124104
0.000123782
0.000123961
0.000123728
0.000123936
0.000123926
2.60408e-05
2.18756e-05
3.30328e-05
1.16178e-05
0.000124109
0.000123776
1.98183e-05
2.82522e-05
3.55994e-05
9.58728e-06
0.000123922
0.000124025
0.000123876
0.000123887
0.000123915
0.000124041
0.000123834
0.000124068
0.000124006
0.000123115
0.000123891
0.000123858
5.93525e-05
0.000123239
0.000124098
0.000123906
0.000123804
0.000124086
0.000124089
0.000123889
0.000123688
0.000123917
0.000123984
0.00012377
0.000124044
0.000122929
0.000123854
0.000123867
0.000124049
0.000100884
0.000123898
0.000123501
0.000123837
0.000124098
0.000123738
1.08952e-05
2.11131e-05
3.53642e-05
2.8188e-05
1.36615e-05
5.42687e-08
4.20768e-05
2.68923e-06
4.01559e-05
4.76113e-06
3.94142e-05
6.81386e-06
3.86211e-05
8.85656e-06
3.72869e-05
1.36734e-05
3.17245e-05
3.05805e-05
2.39358e-05
2.52747e-05
1.77641e-05
1.29376e-05
1.57069e-05
0.000124092
0.000102422
0.000123896
0.000123831
0.000124095
0.000123987
0.000124101
0.000123819
0.00012395
0.000124064
0.000124059
0.000124068
0.000123822
0.00012392
0.000123817
0.000124026
0.00012386
0.000124096
0.000123962
0.000123794
0.000123798
0.000123931
0.000123923
0.000124103
0.000124094
0.000124102
0.000124063
0.000124105
0.000123736
0.000123917
0.000124098
0.000123863
0.000123992
0.000123921
0.000123957
0.000123802
0.000124063
0.000124061
0.000123376
0.000121388
0.000123105
0.000123649
0.000123919
0.000123748
0.00012393
0.000124102
0.000124064
0.000123923
0.000123537
0.000123517
0.000124097
0.000124065
0.000123938
0.000124031
0.000123575
5.83202e-05
4.01137e-05
0.000124037
0.000124054
0.000123416
0.000122761
0.000123904
0.000123643
0.000123389
0.000123915
0.000123814
0.000124085
0.000123948
0.000123975
0.000119015
5.4474e-05
0.000123945
8.12348e-05
1.86154e-06
-3.81305e-07
0.000123914
0.000123884
0.000124064
0.000124104
0.000124093
0.000124097
0.000124096
0.0001239
-2.30759e-06
0.000122845
0.000123937
0.000124043
0.000122022
0.000124095
0.000124096
0.000122303
0.000124013
0.000124066
0.000121709
0.000124099
7.63516e-05
0.000124094
0.000123717
0.000124057
0.00012239
0.000123625
0.000123681
0.000123947
0.000124101
0.000124051
0.000124095
0.000124106
0.00012392
0.00011619
)
;

boundaryField
{
    back
    {
        type            empty;
    }
    ingreso
    {
        type            zeroGradient;
    }
    salida
    {
        type            fixedValue;
        value           uniform 0;
    }
    front
    {
        type            empty;
    }
    defaultFaces
    {
        type            zeroGradient;
    }
}


// ************************************************************************* //
