/*--------------------------------*- C++ -*----------------------------------*\
  =========                 |
  \\      /  F ield         | OpenFOAM: The Open Source CFD Toolbox
   \\    /   O peration     | Website:  https://openfoam.org
    \\  /    A nd           | Version:  7
     \\/     M anipulation  |
\*---------------------------------------------------------------------------*/
FoamFile
{
    version     2.0;
    format      ascii;
    class       volVectorField;
    location    "64.5";
    object      U;
}
// * * * * * * * * * * * * * * * * * * * * * * * * * * * * * * * * * * * * * //

dimensions      [0 1 -1 0 0 0 0];

internalField   nonuniform List<vector> 
591
(
(0.000827329 -2.68468e-05 1.21821e-18)
(0.000815512 -2.42863e-05 -6.64033e-19)
(0.000857077 -1.21754e-05 5.68888e-20)
(0.000856906 -8.47908e-06 -1.49148e-19)
(0.000840348 4.85817e-06 2.2561e-19)
(0.000801792 -4.08828e-05 -1.39651e-19)
(0.000557772 -0.000303183 8.06564e-19)
(0.000802735 3.97012e-06 2.07737e-18)
(0.0057348 0.0024993 9.87845e-19)
(0.000797607 -1.37906e-05 2.45518e-18)
(4.98846e-05 0.000170534 1.21849e-18)
(0.000928003 0.00137562 9.40918e-21)
(0.000798648 5.43161e-06 1.32552e-18)
(0.00160132 0.00238814 -7.87753e-19)
(0.000803222 2.98705e-06 -4.4304e-19)
(6.96995e-05 -0.000207735 2.42403e-22)
(0.000136084 0.000677307 7.05086e-19)
(0.000818873 6.20663e-05 -4.89298e-19)
(0.00193208 0.00039192 4.73668e-19)
(0.00135744 0.00025475 -2.47156e-19)
(0.000833396 -3.85813e-06 3.72411e-19)
(0.00340015 0.00655931 -8.15139e-20)
(2.80693e-05 7.06934e-05 2.70994e-19)
(0.000834703 -1.34681e-05 -4.50924e-19)
(1.18709e-05 -1.66069e-05 3.58998e-19)
(0.000770705 3.19974e-05 0)
(9.28759e-05 0.000475087 1.5999e-19)
(0.00054093 1.28157e-05 -1.78876e-19)
(0.000753016 4.82787e-05 1.14975e-18)
(0.000812544 4.62198e-05 5.91792e-19)
(5.8447e-05 -3.44044e-06 -3.92199e-24)
(3.38483e-05 -4.71317e-05 3.52245e-19)
(3.7475e-05 -3.16571e-06 -4.64315e-20)
(4.62508e-05 -1.17959e-05 0)
(5.54111e-05 -1.32729e-05 1.13168e-18)
(0.00117445 0.000130908 1.79952e-19)
(3.20051e-05 -5.53231e-06 4.47231e-20)
(0.000826812 6.36187e-06 3.04168e-23)
(2.78263e-05 4.43349e-05 2.66079e-19)
(1.76773e-05 -0.000105599 -8.54962e-19)
(0.000631208 -0.00020407 9.60416e-19)
(2.57889e-05 -6.97422e-06 4.54912e-20)
(0.000800007 4.14371e-07 -1.58079e-18)
(0.00083001 4.03204e-05 -6.90887e-19)
(1.76873e-05 -8.21735e-06 0)
(5.57289e-05 7.30475e-06 8.52031e-20)
(0.0013449 0.00450308 8.93084e-19)
(7.69524e-05 1.6726e-05 8.63783e-20)
(0.00079994 1.70024e-05 0)
(0.000380747 -0.000201542 6.77738e-19)
(0.000380403 0.000274326 5.11998e-21)
(0.000392892 5.15374e-05 -1.00398e-18)
(0.00634818 0.0109419 -7.68495e-19)
(0.00622522 0.0107973 1.52868e-20)
(0.00561465 0.0103803 1.45584e-18)
(0.000809679 2.61341e-05 0)
(6.77558e-05 3.16555e-05 0)
(0.000317644 1.64626e-05 1.39118e-23)
(6.38339e-05 1.10034e-05 -3.46523e-19)
(0.000815721 -8.1541e-06 0)
(0.000633798 2.87457e-05 3.17628e-19)
(0.000831961 7.03933e-06 2.20898e-18)
(0.000797618 2.72463e-05 -5.42638e-19)
(0.00079916 1.57002e-05 -3.15811e-19)
(0.00171242 0.000480728 5.4254e-19)
(0.00079678 1.20803e-05 -1.15479e-18)
(0.000826723 1.66382e-05 -5.24295e-19)
(8.19937e-05 -1.86758e-06 -1.73444e-19)
(0.000688869 0.00226365 0)
(0.000834409 3.5504e-05 0)
(0.000776088 1.59192e-05 -1.39183e-18)
(3.86333e-05 1.6396e-05 0)
(0.000287874 0.000271336 3.26898e-19)
(4.13491e-05 -1.75847e-05 0)
(4.24987e-05 -5.98004e-06 1.59502e-19)
(1.71565e-05 -4.58073e-05 -3.36736e-20)
(0.000788276 7.5699e-05 2.46983e-19)
(4.49515e-05 1.10288e-05 0)
(0.000798687 5.66642e-05 4.4745e-19)
(0.00076982 0.000293784 2.10765e-19)
(0.000964822 6.18658e-05 -3.98008e-20)
(4.35482e-05 2.35431e-05 -4.51946e-20)
(5.87116e-06 -2.46453e-05 0)
(0.000432014 0.00021749 1.70214e-19)
(2.85433e-06 2.36155e-05 0)
(0.000788107 3.60327e-05 -6.07361e-19)
(0.000602923 -0.000120724 0)
(6.58462e-05 -1.23848e-06 -1.74512e-19)
(3.58509e-06 -3.37558e-05 0)
(0.000826163 0.000242524 -3.41329e-19)
(3.95257e-06 -1.47295e-05 0)
(0.000422067 0.000323647 -1.2962e-23)
(0.000527681 0.000112521 0)
(0.000804541 4.57847e-05 -3.34157e-24)
(2.77823e-06 1.50681e-05 -4.21791e-20)
(0.000451972 -1.09818e-05 1.76388e-18)
(0.00102374 7.22607e-05 4.16112e-20)
(0.000842453 4.41756e-05 6.41164e-22)
(0.000736982 0.000657527 2.69545e-19)
(6.63332e-06 5.01191e-05 0)
(1.26528e-06 -5.21128e-05 -3.12018e-19)
(-1.734e-05 -9.40877e-05 -1.10059e-18)
(3.93029e-06 7.96998e-05 -5.96401e-19)
(0.000628175 -1.92418e-05 0)
(7.97153e-06 0.000104694 0)
(0.000807988 2.31615e-05 2.18877e-18)
(0.000785216 2.27521e-05 1.53226e-18)
(0.000422177 -7.57124e-05 0)
(4.32329e-05 0.000219764 -8.95549e-19)
(-4.70426e-07 0.000171901 4.96688e-19)
(6.31286e-05 0.000415008 6.25195e-19)
(0.000304409 8.51688e-05 -9.37276e-19)
(0.000803107 1.98448e-05 1.37363e-19)
(0.000261803 -3.79444e-05 5.31322e-19)
(4.14741e-06 3.35795e-05 0)
(2.27749e-05 0.000289262 -1.09403e-18)
(0.000319394 0.000324636 -1.61729e-19)
(2.18034e-06 -4.22533e-05 1.4652e-19)
(0.000670134 0.000813478 0)
(0.00036718 0.000388666 5.74506e-20)
(0.000814178 1.34854e-05 1.07044e-18)
(0.000799105 1.37468e-06 -2.71328e-18)
(6.31988e-06 -5.17568e-05 0)
(0.000678479 -3.16312e-05 -1.12339e-19)
(0.000320457 -0.000107827 1.24347e-18)
(0.00264762 0.000804437 -3.362e-19)
(5.11897e-06 0.000135067 -6.13218e-19)
(3.88002e-06 0.000164704 1.61948e-18)
(0.000719559 2.17293e-05 -3.89979e-20)
(6.43525e-05 -1.30468e-05 -7.50307e-19)
(0.000804857 2.71511e-05 -3.88118e-19)
(0.000767994 2.61447e-05 -4.10472e-20)
(3.83528e-05 0.000335363 -5.96942e-19)
(0.000483983 6.82604e-05 -4.9402e-19)
(4.94004e-05 -3.20885e-06 1.56183e-19)
(0.000831237 2.64718e-05 -1.09452e-18)
(0.00156703 0.000238038 -1.13709e-18)
(4.04202e-06 6.40351e-05 4.9647e-19)
(0.000808836 2.58757e-05 -4.95525e-19)
(0.000908199 0.000541998 -7.8524e-20)
(0.00014393 0.00079408 0)
(0.000579084 6.5118e-05 0)
(0.000275042 5.50349e-05 -1.60997e-18)
(6.36259e-05 5.9037e-05 -1.37434e-18)
(3.11165e-05 2.08294e-05 0)
(0.00424708 0.0074001 -1.01973e-20)
(0.00422551 0.00737194 3.16492e-20)
(0.00442772 0.00757472 -4.96641e-21)
(0.00420673 0.00773552 0)
(0.00419909 0.00760131 5.77185e-19)
(0.0042443 0.00740138 -9.20003e-20)
(0.00421042 0.00804332 4.84407e-19)
(0.00428931 0.00742186 0)
(0.00420864 0.00853661 6.16707e-19)
(0.00432569 0.00745025 2.2391e-19)
(0.000821688 4.61632e-06 -1.37379e-18)
(0.000767029 5.25937e-05 0)
(0.000214163 5.43454e-05 1.27716e-19)
(5.07737e-05 1.61033e-05 8.72007e-20)
(7.82224e-05 4.52693e-05 6.80143e-19)
(0.000106087 4.17699e-05 -3.41731e-19)
(0.000100595 5.92826e-06 0)
(4.86736e-05 5.05246e-06 8.18527e-20)
(0.000205891 0.000133851 0)
(0.000165894 4.34403e-05 -5.24376e-20)
(0.00034251 0.000223348 -5.09339e-21)
(5.61312e-05 4.33092e-05 -4.37735e-19)
(9.09453e-05 2.77717e-05 -8.52628e-20)
(9.05669e-05 6.2326e-05 1.31218e-21)
(0.000254607 0.000367008 -6.66279e-19)
(0.000106647 0.00100564 0)
(4.22446e-05 5.29789e-05 3.43124e-19)
(0.000201536 0.00175296 0)
(0.000207493 0.00025419 7.04776e-19)
(3.84344e-05 -3.89566e-06 1.11516e-19)
(0.000481485 0.000164698 -1.72331e-19)
(0.00075872 2.45046e-05 -1.92449e-18)
(4.3214e-05 -1.18295e-06 4.45854e-24)
(0.000148739 2.53818e-05 2.2463e-19)
(0.000243592 9.3668e-05 -8.99488e-20)
(0.000881067 0.000706285 3.34995e-19)
(0.000719098 0.00163376 -9.23718e-21)
(0.000392837 0.00142492 -9.39514e-21)
(0.00102324 0.000548922 0)
(0.000103058 -1.51345e-05 1.11892e-18)
(0.000116266 1.63997e-05 -4.43229e-20)
(0.000452137 -0.000287605 -1.13621e-18)
(0.000812384 3.77972e-05 0)
(0.000181975 3.6949e-06 3.63364e-19)
(0.00030036 0.00131468 0)
(0.00107478 0.000772519 -7.3032e-20)
(0.000826108 3.4203e-05 -1.86555e-19)
(7.80034e-05 -2.09734e-05 -3.00038e-19)
(0.000826041 0.000319908 -2.08086e-20)
(5.78399e-05 -2.14522e-05 -5.99615e-19)
(0.000226206 0.000176277 8.64022e-20)
(0.000229289 0.000309535 -3.45068e-19)
(0.000883665 0.000246953 0)
(0.000813333 5.04699e-05 0)
(0.000262717 0.000137802 1.76877e-19)
(0.000234068 3.22507e-06 2.8958e-24)
(0.000184406 0.000206678 0)
(0.000292786 0.000653914 -5.55788e-21)
(0.000345893 -2.75279e-06 0)
(0.000368846 0.000600397 0)
(0.000109074 8.29021e-05 -1.34695e-21)
(0.000809808 2.65795e-05 -9.39752e-19)
(0.000808377 1.95284e-05 7.9687e-19)
(0.000129007 5.81752e-05 -1.49883e-19)
(0.000956306 0.000150842 8.50721e-20)
(0.000835671 4.35806e-05 3.33027e-19)
(0.000815477 2.59835e-05 -2.9477e-19)
(0.00101676 0.000412602 0)
(0.000437167 0.000120466 6.24551e-19)
(0.000896606 0.00031991 2.09177e-20)
(0.000574861 0.000157039 0)
(0.000271662 0.000446988 4.09705e-19)
(0.000261299 0.000217871 -8.44317e-20)
(0.00109466 0.000377326 -7.82268e-19)
(0.000621225 0.000105549 -1.79326e-19)
(0.000807493 7.2984e-05 -7.45142e-21)
(0.000839089 2.94294e-05 9.3959e-20)
(7.98701e-05 -8.76612e-05 -1.98174e-18)
(0.000737285 0.000381947 2.19272e-19)
(0.000665832 6.28437e-05 2.30668e-20)
(0.000705155 0.000279192 1.59885e-23)
(0.000728008 0.000459271 -4.09738e-19)
(0.000844361 3.11035e-05 9.06546e-20)
(7.21638e-05 8.04818e-05 0)
(0.000654547 0.000418967 -4.65968e-20)
(0.000183741 9.63962e-05 0)
(0.000374249 0.000501814 -2.64878e-19)
(0.000309678 0.000168725 0)
(0.000673188 0.000203993 3.55294e-19)
(0.000647703 0.000260349 -4.37332e-20)
(8.1569e-05 0.000104467 6.19269e-19)
(0.000875041 9.23245e-05 -1.62038e-18)
(5.81532e-05 2.2318e-05 2.57239e-19)
(0.000884227 6.6647e-05 -1.68478e-18)
(0.000838417 8.76855e-05 1.63052e-19)
(0.000808687 3.17331e-05 1.8941e-18)
(0.000813404 3.22127e-05 -1.3285e-19)
(0.000734287 7.285e-05 0)
(0.000806122 2.67229e-05 8.95791e-19)
(0.000956396 0.000229823 -4.27185e-19)
(0.000770206 9.21457e-05 -4.83796e-19)
(0.000777409 0.000230555 -8.81393e-20)
(0.00021575 -0.00015966 -2.07989e-18)
(0.000743747 8.097e-05 8.87645e-19)
(0.000639742 0.000596353 0)
(9.37425e-05 -0.000115121 0)
(0.00121749 0.000471521 4.97299e-19)
(0.000639101 -6.21837e-05 -3.25462e-18)
(0.00134027 0.000420159 5.76427e-19)
(0.00123756 0.000718063 -6.38673e-20)
(0.000809751 3.05167e-05 -2.10986e-19)
(0.000833489 6.74235e-05 -1.42494e-18)
(0.000814336 2.46245e-05 1.57309e-18)
(0.000816563 2.85447e-05 9.78428e-20)
(0.0006687 0.00035156 -4.4048e-20)
(0.000101958 0.000124368 5.40207e-24)
(0.000747694 -4.22569e-05 2.65138e-19)
(0.00021943 -0.000256523 -7.32999e-19)
(0.000620669 0.000186928 0)
(0.000705734 4.30626e-05 9.90597e-20)
(0.000689342 1.01489e-05 -3.80886e-19)
(0.000387864 0.000171816 3.93429e-20)
(0.000804553 0.000504697 -1.65502e-19)
(0.000149306 7.65384e-05 3.04295e-25)
(0.000810195 0.000410228 0)
(0.000977347 0.000319159 4.1585e-20)
(0.000753061 -7.77386e-05 -6.1638e-19)
(0.000346931 0.000106758 4.97886e-19)
(0.00090322 0.000424707 0)
(4.9692e-05 3.16622e-05 1.33735e-19)
(0.000481645 0.000268458 2.13986e-19)
(0.000500168 -0.000145516 -7.09652e-19)
(0.000137403 -0.000158036 -1.05759e-18)
(0.000822889 3.06337e-05 -4.86947e-19)
(0.000779092 -9.15359e-05 -1.94307e-19)
(0.000549931 0.000728516 -1.17456e-18)
(0.000844857 4.66039e-05 -6.74265e-20)
(0.000641739 -2.44356e-05 1.27209e-18)
(0.00069916 9.94773e-05 2.27824e-20)
(0.000529107 0.00021064 -1.65712e-19)
(3.22709e-05 -2.21031e-05 -8.75994e-20)
(0.000170349 -4.20007e-05 2.40652e-18)
(1.93108e-05 7.59483e-07 -1.94871e-19)
(0.000823854 0.000111011 3.63814e-19)
(0.000659453 0.000136737 0)
(0.000188279 -8.24201e-05 -1.0483e-18)
(0.000122351 -1.67007e-05 3.12967e-19)
(0.000110905 -3.54518e-05 1.16425e-23)
(0.000795595 0.000107131 -3.19321e-19)
(0.000153883 -1.14517e-05 0)
(0.000582702 0.00024233 0)
(0.000111222 0.000330918 -3.62908e-19)
(0.000857999 0.000100236 2.09508e-18)
(1.57437e-05 1.17494e-06 0)
(0.00087613 5.25596e-05 0)
(4.46364e-05 -2.61083e-05 0)
(0.000815334 4.42747e-05 -4.46705e-21)
(0.000791069 -4.76689e-05 0)
(0.00425986 0.00740631 8.07029e-20)
(0.00436133 0.00748591 1.43608e-19)
(0.000843907 -4.08267e-06 0)
(0.000783269 -4.97084e-05 8.10137e-19)
(0.000152839 0.000126006 1.49233e-19)
(0.00085067 6.93523e-05 8.07745e-19)
(0.000130353 0.000102751 2.34435e-20)
(0.000776804 -2.9843e-05 6.24621e-19)
(3.54171e-05 9.92339e-06 0)
(2.92603e-05 -1.39573e-05 -4.4856e-20)
(0.000893638 4.95364e-05 -4.86657e-19)
(3.45678e-05 -3.25784e-05 -6.69921e-19)
(0.000753689 0.000120724 -4.23319e-20)
(0.000168249 0.000163774 -1.88129e-19)
(0.000814149 2.62546e-05 0)
(0.00468258 0.0081536 9.00844e-22)
(0.000177368 0.000786919 3.33571e-19)
(0.000119403 -5.71328e-05 -9.14688e-19)
(6.24998e-05 -3.51579e-05 -1.16895e-18)
(0.000655533 1.44322e-05 1.89888e-20)
(0.000579906 0.000409196 0)
(0.000416723 0.000441869 -2.56371e-19)
(8.70325e-05 -5.92033e-05 1.18388e-18)
(0.000613384 7.60813e-07 7.70387e-20)
(4.27414e-05 1.99195e-06 4.07168e-19)
(0.000694238 -5.40857e-05 1.17186e-18)
(0.000809965 3.21017e-05 -5.96047e-19)
(6.78758e-05 -5.5297e-05 1.70955e-18)
(0.000842437 -2.05529e-05 -5.50864e-24)
(0.000632038 7.06734e-06 -3.76574e-20)
(0.00086501 6.82022e-05 0)
(0.000836268 3.74029e-05 0)
(0.00591696 0.00723857 2.59566e-19)
(2.0173e-05 -1.98604e-06 -1.19599e-19)
(0.000131852 -9.87046e-05 7.73098e-19)
(0.000721471 0.000119235 -6.96572e-19)
(2.33479e-05 -1.29283e-07 2.01538e-19)
(0.000614145 -3.4177e-05 -7.23957e-19)
(0.000739939 3.70774e-05 1.55835e-18)
(0.000701513 0.000159325 -3.55501e-19)
(0.000807648 -1.29644e-05 3.60507e-19)
(7.86431e-05 -3.33496e-05 1.11621e-18)
(0.000799022 7.36611e-06 -3.22755e-19)
(0.000864444 4.27596e-05 0)
(0.000538806 0.000303331 4.21087e-20)
(0.00085377 5.04008e-05 -9.46094e-19)
(2.06717e-05 2.17363e-06 9.1136e-19)
(0.000850254 4.6726e-05 9.65663e-19)
(0.000854706 4.82948e-06 -9.60318e-19)
(0.00074443 -1.55759e-06 -5.69292e-19)
(0.000515008 -6.91339e-05 -5.25746e-19)
(0.00432855 0.00745235 2.47506e-19)
(0.0042229 0.0075298 -2.78824e-19)
(0.00422151 0.00758782 2.66556e-19)
(0.0042558 0.00741056 1.9797e-19)
(0.000845159 -2.40631e-05 1.43975e-19)
(0.00447494 0.00751146 0)
(0.00440252 0.00751631 -3.86922e-19)
(3.16723e-05 -1.41417e-07 -9.98224e-19)
(0.00417052 0.00746941 -6.33647e-20)
(0.00414584 0.00743238 -2.21508e-19)
(0.00603003 0.0106068 0)
(0.00654049 0.0111877 3.71388e-20)
(0.00600999 0.0105766 0)
(0.00655618 0.0112112 1.30871e-19)
(0.00599739 0.0106006 2.69674e-19)
(0.00659283 0.011228 1.24592e-20)
(0.005936 0.0106134 -7.7671e-19)
(0.00662306 0.0111469 8.14969e-21)
(0.00390371 0.00920094 -1.90872e-19)
(0.00418686 0.00748881 3.87432e-21)
(0.00423797 0.00755278 7.93555e-20)
(0.00415029 0.00743463 4.12029e-20)
(0.000873517 0.000190293 4.46827e-20)
(1.12111e-05 1.60271e-06 0)
(0.000695534 -0.000126589 0)
(0.000669665 4.83942e-05 0)
(0.00244425 0.00110853 4.24685e-21)
(0.00075286 -3.15823e-05 1.72618e-19)
(4.12334e-05 6.01224e-06 4.54138e-20)
(1.1595e-05 -2.83604e-05 1.65355e-18)
(0.000848092 1.61258e-05 0)
(2.84334e-05 1.30192e-05 -1.91762e-19)
(0.000140702 0.000224592 0)
(1.96954e-05 -1.074e-06 0)
(1.60782e-05 -1.45528e-06 0)
(0.000818811 0.000136429 1.13709e-20)
(0.000809956 -1.61115e-05 1.79308e-19)
(3.58877e-05 0.000278682 -1.85905e-23)
(0.000158288 0.000273994 -1.84223e-18)
(0.000600342 0.0003305 -8.57146e-20)
(0.000895783 0.000111533 6.00195e-19)
(0.000670035 -0.000239129 6.72955e-19)
(0.000363337 0.00110872 0)
(0.000467718 0.000574486 2.71568e-18)
(9.10735e-05 0.000147473 -1.80335e-18)
(2.43048e-05 1.35756e-07 0)
(0.000820191 -5.48284e-05 3.63173e-20)
(1.69967e-05 3.72593e-05 1.6448e-18)
(0.000899934 3.08974e-05 2.71261e-19)
(-8.31703e-06 -1.63301e-05 3.80334e-18)
(0.000930002 3.9511e-05 -2.69106e-19)
(0.00135916 0.000151976 7.47401e-19)
(3.67269e-05 -1.09961e-05 8.25867e-20)
(3.80472e-05 4.2679e-06 -8.59214e-19)
(5.05144e-05 0.00014455 0)
(0.000906189 7.81304e-05 5.98641e-19)
(0.000492374 0.000368378 2.37183e-19)
(0.000679647 1.7956e-05 -3.89215e-20)
(0.000774513 -5.91014e-06 2.57156e-19)
(0.000736102 -0.000190363 0)
(0.00632094 0.0108973 -1.68125e-19)
(0.00637925 0.0109744 4.05834e-19)
(0.00616081 0.0107318 -6.18389e-19)
(0.00650154 0.011133 -8.09873e-20)
(3.53442e-05 0.000120326 8.00682e-19)
(0.000915563 5.93197e-05 1.46872e-22)
(0.00641181 0.0110069 -3.86461e-19)
(0.006282 0.0108472 5.48286e-19)
(0.00608088 0.0106737 -4.16755e-19)
(0.00652202 0.0111654 -6.81462e-20)
(8.11e-05 0.000512529 -2.01852e-20)
(9.45128e-05 -0.000203772 -7.93937e-19)
(0.000684919 -2.03351e-05 -7.62949e-19)
(0.000721775 0.000220663 0)
(0.000799714 7.80787e-07 0)
(0.000185269 0.000391674 3.36354e-19)
(0.000596511 0.000518818 -5.41916e-19)
(1.12409e-05 -1.87444e-06 1.78432e-19)
(0.000202318 0.000466667 -7.38516e-19)
(0.00100498 0.000969686 -1.127e-19)
(0.00073998 0.000166423 0)
(0.000785482 0.000182093 1.31048e-19)
(0.00635466 0.00587707 1.13143e-18)
(0.000740563 0.0011267 8.26667e-20)
(3.97579e-05 3.92039e-05 -7.44839e-20)
(0.000812083 1.75167e-05 0)
(0.000875364 2.63049e-05 -3.56989e-20)
(3.62559e-05 3.67994e-06 -1.9674e-19)
(3.13125e-05 5.10944e-06 1.93028e-19)
(0.000831717 2.08882e-05 5.37347e-19)
(0.000968874 0.000107728 6.58642e-19)
(0.000581845 3.74054e-05 0)
(0.000221899 -0.000305605 -3.98088e-19)
(0.000912587 0.000149235 3.89688e-19)
(1.66676e-05 -6.53408e-05 2.03159e-19)
(0.00144617 0.000440369 -2.58098e-18)
(0.000612109 -6.01727e-06 0)
(0.000788512 0.000144604 3.75552e-19)
(9.37703e-05 0.000397954 0)
(0.00118695 0.00816357 4.62206e-19)
(0.000486136 0.000500964 -1.22477e-18)
(0.000542695 0.00100234 -1.83784e-19)
(0.000878135 1.94433e-05 -1.4608e-19)
(1.4038e-05 2.63714e-05 0)
(0.000940106 7.6833e-05 6.1185e-19)
(0.00410636 0.00739532 8.14306e-20)
(0.00417143 0.007474 4.73124e-20)
(0.00449856 0.00751409 4.54032e-19)
(0.00444394 0.00754071 -3.28681e-19)
(0.00647548 0.01111 8.1065e-20)
(0.00391498 0.00714601 -9.63882e-22)
(0.00550687 0.00779544 -5.64737e-19)
(0.00409801 0.00737162 5.21866e-21)
(0.00518735 0.00785552 5.11656e-19)
(0.0040798 0.00734004 -4.87161e-20)
(0.00495236 0.00771489 0)
(0.00408508 0.00736438 -8.5655e-20)
(0.00474105 0.00758638 4.92491e-19)
(0.0040983 0.00737599 8.7517e-20)
(0.00457366 0.00752597 0)
(0.00428339 0.00742044 1.39759e-19)
(0.00423966 0.00759933 5.79809e-19)
(0.00446639 0.00752603 -5.53663e-19)
(0.00438685 0.00750386 3.71345e-19)
(0.00422806 0.00752569 3.22843e-19)
(0.00643093 0.0110435 -4.97463e-21)
(0.00411777 0.00740146 3.11613e-20)
(0.00645898 0.0110733 0)
(2.53062e-05 6.4048e-06 -1.89899e-19)
(0.0019994 0.00654315 2.28339e-19)
(0.000840426 -4.20895e-05 1.09635e-19)
(0.000857353 1.11765e-05 0)
(1.93399e-06 1.7243e-06 -3.99195e-19)
(5.50741e-06 -0.000148598 6.92005e-19)
(2.46154e-05 5.83973e-05 2.08941e-18)
(0.000823898 0.000179246 -9.00941e-20)
(0.000799147 9.92443e-06 7.06559e-19)
(1.88731e-06 -1.67018e-06 3.10055e-19)
(2.04674e-05 -3.59344e-05 -1.84607e-18)
(0.00076106 2.77769e-05 1.6319e-19)
(0.000865311 0.000124538 -3.0806e-20)
(0.000799879 -9.41566e-06 1.48172e-19)
(0.000408566 0.000678536 0)
(5.75921e-05 -0.000149429 1.15158e-18)
(0.000859905 1.03948e-05 1.52548e-19)
(2.06503e-05 2.48115e-05 0)
(0.00011307 0.00056274 -6.31334e-19)
(0.000605939 0.000597057 1.31817e-18)
(0.000326831 0.000746981 0)
(0.000800344 -1.74703e-05 0)
(0.000799955 3.33077e-06 1.17156e-18)
(1.86071e-05 5.0521e-05 -3.51565e-18)
(1.76219e-05 7.8288e-06 3.737e-19)
(0.000115903 0.000147609 0)
(4.85535e-05 -4.18103e-05 0)
(6.31738e-05 0.00011451 2.01039e-19)
(0.000932232 0.000185391 3.50511e-19)
(0.0007998 1.61584e-05 -1.39521e-18)
(2.35908e-05 3.44178e-05 0)
(0.000476882 1.39828e-05 -6.03865e-20)
(0.000801274 3.97275e-05 -1.56379e-19)
(0.000837997 3.28139e-05 1.06319e-18)
(0.000258277 0.000542838 6.32341e-19)
(0.000869801 0.000155728 0)
(2.10192e-05 -2.52171e-05 5.38793e-19)
(2.95474e-06 -7.17881e-06 -3.20034e-19)
(0.000993123 3.01428e-05 0)
(0.00103255 0.00226032 0)
(0.000952546 -9.0967e-06 0)
(0.000998705 0.000205633 4.27277e-19)
(0.000816161 -3.18385e-05 -2.83745e-19)
(0.000925258 0.000110272 -6.84932e-19)
(0.000799942 3.31524e-06 0)
(4.25317e-05 7.07589e-05 -1.71601e-19)
(0.000174082 0.000328258 1.08133e-18)
(0.000797903 1.81408e-05 -1.43046e-23)
(0.00108502 0.000208047 -6.69147e-19)
(0.00109041 0.000123905 0)
(2.77668e-06 7.26413e-06 2.51082e-19)
(1.99366e-05 -1.64146e-05 -1.94355e-19)
(0.00058706 3.74867e-05 6.95168e-21)
(1.64555e-05 -8.61706e-05 0)
(0.00105489 0.000252905 9.50237e-19)
(0.0050289 0.00974964 -2.83043e-19)
(0.00312099 0.00962 1.27243e-18)
(4.98155e-05 -0.000109397 -1.91378e-19)
(6.09108e-05 -7.68718e-05 1.85993e-18)
(0.00119225 0.000241695 1.67311e-19)
(0.00132836 0.00108085 2.34129e-19)
(0.000812824 1.49218e-07 -7.32352e-19)
(0.000200871 0.000952381 -2.38392e-19)
(0.000810436 0.000926634 -2.18623e-19)
(0.000799746 -3.22111e-06 0)
(8.64835e-05 0.00063266 0)
(9.59929e-05 0.00028384 -4.09792e-23)
(0.000720829 -3.97556e-05 -1.68169e-23)
(0.000820795 6.16204e-05 1.50682e-19)
(0.00263032 0.00206407 -1.23152e-18)
(0.00175918 0.00924032 -1.17195e-19)
(0.000833709 4.77146e-05 4.9231e-19)
(0.0063282 0.00404485 -1.75931e-19)
(0.00672102 0.0115578 -1.36477e-20)
(0.00473428 0.00784388 4.92991e-21)
(0.000801268 1.40698e-05 -2.19031e-18)
(0.000834396 1.22658e-05 3.79257e-24)
(1.00691e-05 -8.40459e-06 -3.48094e-19)
(4.68773e-05 9.19542e-05 -3.49351e-19)
(6.85907e-05 0.000273374 8.75465e-19)
(1.18817e-05 1.70337e-05 4.90512e-19)
(8.97066e-05 0.000232849 3.69837e-19)
(0.000822465 2.66576e-05 0)
(0.00534809 0.00949242 1.9505e-20)
(0.00153133 0.000631047 -2.6113e-20)
(0.000819966 3.27676e-05 3.59949e-19)
(4.00656e-05 -8.52563e-05 0)
(0.00184797 0.000739074 5.46131e-19)
(1.02793e-05 8.22978e-06 -2.70213e-19)
(3.50003e-05 2.96128e-05 9.72033e-20)
(0.00132354 0.00139363 6.36657e-19)
(0.000736068 4.65916e-05 1.83146e-19)
(6.21407e-06 -1.96618e-06 -1.70241e-19)
(0.00206408 0.0015552 -1.05614e-18)
(0.000126548 0.000181259 -8.18908e-19)
(0.00392148 0.00848781 -1.09111e-18)
(6.40568e-06 1.81969e-06 8.81618e-20)
(0.000146123 -0.000145343 -1.2556e-18)
(5.24758e-05 -5.84938e-05 4.05738e-20)
(0.001528 0.000976982 0)
(0.00103718 0.000139053 -4.08147e-22)
(0.000454485 0.00084999 -4.02168e-20)
(0.000802576 2.67597e-05 -2.33958e-19)
(8.7157e-05 0.000187468 7.36211e-19)
(3.57459e-05 -6.40749e-05 4.04107e-19)
(1.91716e-05 1.60247e-05 -9.47309e-20)
(3.28048e-05 9.50734e-05 -3.20357e-19)
(0.00020328 -0.000279318 -5.44996e-19)
(0.00325196 0.00345645 2.81601e-21)
)
;

boundaryField
{
    back
    {
        type            empty;
    }
    ingreso
    {
        type            fixedValue;
        value           uniform (0.0008 0 0);
    }
    salida
    {
        type            zeroGradient;
    }
    front
    {
        type            empty;
    }
    defaultFaces
    {
        type            noSlip;
    }
}


// ************************************************************************* //
