/*--------------------------------*- C++ -*----------------------------------*\
  =========                 |
  \\      /  F ield         | OpenFOAM: The Open Source CFD Toolbox
   \\    /   O peration     | Website:  https://openfoam.org
    \\  /    A nd           | Version:  7
     \\/     M anipulation  |
\*---------------------------------------------------------------------------*/
FoamFile
{
    version     2.0;
    format      ascii;
    class       volScalarField;
    location    "119";
    object      p;
}
// * * * * * * * * * * * * * * * * * * * * * * * * * * * * * * * * * * * * * //

dimensions      [0 2 -2 0 0 0 0];

internalField   nonuniform List<scalar> 
591
(
0.00012383
0.000123845
0.000123851
0.000123793
0.000123797
0.000123868
0.000123852
0.000123832
0.000116963
0.000123853
0.000124043
0.000122799
0.000123839
0.000119688
0.000123832
0.000123873
0.00012384
0.000123886
0.000121913
0.000123218
0.000123815
-3.52153e-06
0.000124035
0.000123816
0.000123989
0.000123839
0.000123961
0.000123948
0.000123853
0.000123866
0.00012401
0.000123983
0.000124004
0.000124003
0.000124005
0.000123327
0.000124
0.000123817
0.000124029
0.000123941
0.000123888
0.000123996
0.000123849
0.000123876
0.000123993
0.000124015
0.000119195
0.00012402
0.000123852
0.000123957
0.000123977
0.000124003
2.39527e-05
3.05997e-05
4.78464e-05
0.000123849
0.000124024
0.00012402
0.000124017
0.000123825
0.000123911
0.000123847
0.000123842
0.000123895
0.000122524
0.000123844
0.000123849
0.000124014
0.000120695
0.000123863
0.000123851
0.000124021
0.000124003
0.000123998
0.000124004
0.000123979
0.00012382
0.000124017
0.000123822
0.000123763
0.000123592
0.000124022
0.00012398
0.000123972
0.00012403
0.000123834
0.000123914
0.000124012
0.000123973
0.000123727
0.000123985
0.000123945
0.000123952
0.000123825
0.000124028
0.000123982
0.000123525
0.000123425
0.000123603
0.000124035
0.000123944
0.00012388
0.000124041
0.000123788
0.000124043
0.000123847
0.000123841
0.00012398
0.000124038
0.000124041
0.000123936
0.000124017
0.00012386
0.000124015
0.000124032
0.000124024
0.00012398
0.000123963
0.000123541
0.000123947
0.000123846
0.000123836
0.000123921
0.000123822
0.000123994
0.000120153
0.000124044
0.000124024
0.00012359
0.000124005
0.000123835
0.000123518
0.000123986
0.000123972
0.000124009
0.000123853
0.000122591
0.000124038
0.000123837
0.000123529
0.000123609
0.000123934
0.000124027
0.000124031
0.000124023
7.62147e-06
3.68244e-06
2.07492e-06
3.81714e-05
3.67103e-05
5.66563e-06
3.83251e-05
1.57469e-05
3.73097e-05
1.78142e-05
0.000123847
0.000123836
0.000124032
0.000124019
0.000124028
0.000124027
0.000124018
0.000124013
0.000124034
0.000124029
0.000123999
0.000124028
0.000124023
0.000124032
0.000123982
0.000123356
0.00012403
0.000122091
0.000124021
0.000124008
0.000123964
0.000123853
0.000124008
0.000124027
0.00012403
0.000123449
0.000122438
0.000123011
0.000123397
0.000124012
0.000124021
0.000123903
0.000123814
0.000124018
0.000122932
0.000123256
0.000123813
0.000124006
0.000123705
0.000124
0.000124029
0.000124005
0.000123671
0.000123805
0.000124026
0.000124027
0.000124031
0.000123835
0.000124007
0.000123832
0.000124035
0.000123839
0.000123839
0.000124031
0.000123627
0.000123804
0.00012385
0.000123491
0.000123986
0.000123635
0.000123925
0.000123949
0.000124019
0.000123402
0.00012391
0.000123798
0.000123797
0.000123979
0.000123748
0.000123893
0.000123813
0.000123729
0.000123788
0.000124035
0.000123795
0.000124035
0.000123894
0.000124016
0.000123854
0.000123857
0.000124038
0.000123738
0.000124021
0.000123726
0.000123777
0.000123844
0.000123821
0.000123859
0.000123847
0.000123616
0.000123818
0.000123774
0.000123978
0.000123837
0.000123702
0.000123973
0.000123247
0.000123821
0.000123135
0.000123025
0.000123829
0.000123792
0.000123832
0.000123827
0.000123806
0.000124038
0.000123873
0.000123937
0.000123891
0.000123877
0.000123889
0.000123994
0.000123642
0.000124034
0.000123677
0.000123562
0.000123863
0.000124014
0.000123589
0.000124025
0.000123942
0.000123936
0.000123969
0.000123857
0.000123834
0.000123675
0.000123785
0.000123834
0.000123869
0.000123935
0.000123993
0.000124012
0.000124018
0.00012377
0.000123881
0.000124003
0.000124012
0.000124005
0.000123795
0.000124021
0.000123899
0.000124014
0.000123756
0.00012402
0.000123742
0.000123995
0.000123888
0.000123832
1.16466e-05
2.19201e-05
0.000123762
0.000123851
0.000124038
0.000123776
0.000124037
0.000123861
0.000124019
0.000123995
0.000123723
0.000123989
0.000123818
0.000124036
0.000123855
-2.09369e-07
0.00012374
0.000124
0.000123996
0.000123679
0.000123853
0.000123898
0.000123989
0.000123733
0.000124013
0.000123892
0.000123847
0.000123988
0.000123787
0.000123708
0.000123751
0.000123859
4.75087e-05
0.000124007
0.000123983
0.000123843
0.000124015
0.000123919
0.000123865
0.00012385
0.000123832
0.000123999
0.000123862
0.000123761
0.000123903
0.000123768
0.000124012
0.000123775
0.000123841
0.000123871
0.000123951
1.98796e-05
2.73185e-05
3.43061e-05
9.64358e-06
0.000123816
3.30668e-05
2.60244e-05
0.00012401
1.90801e-05
1.70356e-05
3.8195e-05
7.58014e-06
3.99458e-05
5.60849e-06
4.08394e-05
3.69205e-06
4.28213e-05
1.87913e-06
3.64226e-05
2.32022e-05
2.94534e-05
1.49975e-05
0.000123701
0.000124022
0.000123883
0.000123903
0.000120851
0.000123935
0.000124016
0.000123986
0.000123779
0.000124022
0.000124033
0.000124001
0.000123997
0.000123759
0.000123833
0.000124018
0.000124024
0.000123857
0.000123713
0.000123815
0.00012337
0.00012382
0.000124042
0.000124004
0.000123844
0.000124029
0.000123681
0.000123855
0.000123641
0.000122806
0.000123999
0.000124012
0.00012404
0.000123699
0.000123904
0.000123639
0.00012386
0.000123852
2.60598e-05
2.18848e-05
3.30458e-05
1.16226e-05
0.000124042
0.000123691
1.98264e-05
2.82673e-05
3.56125e-05
9.59226e-06
0.000123871
0.000123934
0.000123812
0.000123816
0.000123834
0.000123987
0.000123775
0.000123994
0.000123953
0.000123063
0.000123818
0.000123784
5.9401e-05
0.00012319
0.000124028
0.000123828
0.000123712
0.000124016
0.000124019
0.000123807
0.000123605
0.000123845
0.000123874
0.000123691
0.00012397
0.000122856
0.000123759
0.000123791
0.000123996
0.000100864
0.000123841
0.000123451
0.000123749
0.000124027
0.000123652
1.09004e-05
2.11207e-05
3.53787e-05
2.82169e-05
1.36667e-05
5.76138e-08
4.20995e-05
2.69328e-06
4.01704e-05
4.76563e-06
3.94272e-05
6.81864e-06
3.86347e-05
8.86152e-06
3.73011e-05
1.36785e-05
3.17378e-05
3.06014e-05
2.39479e-05
2.52704e-05
1.77712e-05
1.2943e-05
1.57129e-05
0.000124021
0.000102364
0.000123816
0.000123737
0.000124025
0.000123916
0.000124032
0.000123745
0.000123876
0.00012399
0.000123985
0.000123997
0.000123743
0.000123839
0.000123765
0.000123945
0.000123771
0.000124026
0.000123911
0.000123738
0.000123748
0.000123849
0.000123844
0.000124032
0.000124023
0.000124039
0.00012399
0.00012404
0.000123659
0.00012384
0.000124027
0.000123786
0.00012392
0.000123849
0.000123906
0.000123726
0.000123989
0.000123988
0.000123303
0.000121336
0.000123032
0.000123573
0.000123838
0.000123667
0.000123852
0.000124034
0.000124009
0.000123846
0.000123459
0.000123436
0.000124026
0.000123991
0.000123869
0.000123956
0.000123501
5.83121e-05
4.0127e-05
0.000123958
0.000123979
0.000123342
0.000122708
0.000123826
0.000123593
0.000123337
0.000123834
0.000123768
0.000124027
0.000123868
0.000123904
0.000118964
5.44678e-05
0.000123874
8.1264e-05
1.86345e-06
-3.79727e-07
0.000123834
0.000123802
0.000123991
0.000124037
0.000124033
0.000124026
0.000124036
0.000123821
-2.30582e-06
0.000122782
0.000123866
0.000123967
0.000121969
0.000124024
0.000124025
0.000122255
0.000123945
0.000123992
0.000121653
0.000124038
7.63222e-05
0.000124023
0.000123783
0.000123984
0.000122334
0.000123545
0.000123631
0.000123873
0.00012404
0.000123976
0.000124024
0.000124039
0.000123826
0.000116133
)
;

boundaryField
{
    back
    {
        type            empty;
    }
    ingreso
    {
        type            zeroGradient;
    }
    salida
    {
        type            fixedValue;
        value           uniform 0;
    }
    front
    {
        type            empty;
    }
    defaultFaces
    {
        type            zeroGradient;
    }
}


// ************************************************************************* //
