/*--------------------------------*- C++ -*----------------------------------*\
  =========                 |
  \\      /  F ield         | OpenFOAM: The Open Source CFD Toolbox
   \\    /   O peration     | Website:  https://openfoam.org
    \\  /    A nd           | Version:  7
     \\/     M anipulation  |
\*---------------------------------------------------------------------------*/
FoamFile
{
    version     2.0;
    format      ascii;
    class       surfaceScalarField;
    location    "119";
    object      phi;
}
// * * * * * * * * * * * * * * * * * * * * * * * * * * * * * * * * * * * * * //

dimensions      [0 3 -1 0 0 0 0];

internalField   nonuniform List<scalar> 
1111
(
7.28784e-09
1.27887e-08
-1.60688e-08
-4.00768e-09
7.20096e-09
-1.17447e-08
1.18316e-08
-1.47182e-08
6.00631e-09
8.66464e-09
4.72425e-11
1.07033e-09
-1.24908e-09
-1.44137e-08
1.45925e-08
-1.43807e-08
1.424e-08
1.21108e-09
-1.5967e-09
1.49163e-08
2.10901e-09
-2.27793e-09
9.11312e-09
-8.8563e-09
2.02111e-09
-6.72405e-09
-1.26088e-08
1.25944e-08
6.73848e-09
-5.01547e-08
-2.61295e-08
7.62843e-08
-8.06665e-09
7.74173e-09
7.52588e-09
3.16235e-09
3.90402e-10
-3.23605e-09
-3.16705e-10
1.5861e-08
-1.62832e-08
-2.32702e-08
2.36925e-08
-9.667e-09
-7.90153e-09
8.80299e-09
8.76554e-09
-3.56103e-08
1.77457e-08
-3.23967e-08
5.02612e-08
9.48865e-09
-1.95687e-09
-1.42558e-08
-9.11517e-11
1.07152e-09
-2.27322e-09
1.29285e-09
-3.97556e-09
1.3244e-08
1.97242e-09
-1.12408e-08
8.80572e-09
-2.71754e-09
-1.5067e-08
8.97887e-09
3.71216e-08
-2.9783e-08
-7.33866e-09
-1.93852e-08
2.32216e-10
1.72142e-08
1.93886e-09
-1.0885e-09
4.22735e-09
-1.7826e-08
1.46871e-08
-6.12302e-08
-3.961e-09
6.51912e-08
1.32694e-10
-1.04419e-09
-3.14019e-10
1.22551e-09
-1.8324e-09
-1.36368e-08
-4.0695e-11
-1.80382e-10
1.20613e-10
1.00464e-10
-1.04325e-08
-8.73571e-09
1.33712e-08
5.797e-09
6.89066e-10
-2.15639e-09
-8.15843e-09
9.62576e-09
8.99912e-09
7.01338e-10
-1.00775e-08
3.77063e-10
-2.85147e-09
-8.19059e-09
1.12701e-08
-2.28031e-10
1.14183e-08
-1.12216e-09
-1.49046e-09
-6.95607e-10
7.13582e-10
-5.5846e-11
3.78709e-11
1.64782e-11
5.59886e-10
9.03501e-11
-6.66714e-10
-3.31438e-10
-4.1476e-11
3.62052e-10
1.0862e-11
-8.19329e-11
-6.38631e-10
1.19154e-10
6.01409e-10
-1.30374e-10
-6.47167e-10
1.05063e-09
-1.83358e-08
-2.10003e-09
-2.60151e-10
3.18834e-11
-1.03171e-10
1.33773e-08
-1.3249e-08
4.09903e-09
-3.14861e-10
4.90024e-10
2.81716e-10
-4.5688e-10
2.13391e-10
-8.48539e-10
7.60951e-10
-1.25803e-10
-1.68466e-09
1.07384e-08
-1.13317e-08
-1.74005e-10
-1.18932e-10
3.27851e-11
-8.68743e-09
1.07505e-08
-1.01297e-08
1.23026e-08
-1.71222e-08
4.46554e-09
3.54074e-10
3.42109e-11
-1.10172e-10
-9.80441e-11
9.94595e-11
6.71368e-10
-5.72457e-11
-5.94851e-08
7.42206e-08
-1.47355e-08
9.27621e-10
-1.48669e-10
-1.01181e-09
2.32859e-10
1.12577e-09
1.03103e-08
-1.3714e-08
2.27792e-09
-2.02144e-09
7.99791e-09
-8.89041e-09
2.91394e-09
-6.85123e-09
5.50496e-09
5.77755e-09
-4.43128e-09
-8.05974e-09
-1.29676e-09
1.44993e-09
7.90657e-09
-1.80706e-10
-9.09133e-08
9.12988e-08
-2.04776e-10
-2.55904e-10
-8.97482e-08
9.01579e-08
-1.53756e-10
8.30791e-08
-1.49099e-09
1.0972e-10
-8.16978e-08
-2.64415e-09
-6.55697e-10
5.23148e-10
7.59564e-10
-3.55092e-10
3.84869e-09
-6.65759e-10
3.64238e-09
-6.82531e-09
-8.27503e-10
7.78293e-10
-1.4903e-08
6.56566e-09
1.01591e-08
1.0889e-09
-1.0936e-08
-3.11994e-10
-6.00192e-09
1.37347e-08
8.028e-10
-8.53562e-09
1.44066e-08
-4.65418e-09
3.89578e-09
-1.36482e-08
1.53814e-08
1.67214e-09
-1.6247e-09
-1.57639e-10
-2.00951e-08
-7.45775e-09
2.77105e-08
1.46972e-08
-8.97801e-09
-1.79411e-09
8.13067e-09
-1.23385e-08
8.67287e-11
-6.06068e-11
-1.03793e-09
-3.60708e-08
-2.34143e-08
8.39644e-09
3.45776e-10
3.5604e-09
-6.93429e-09
1.14707e-08
6.21405e-09
-5.07751e-10
2.53857e-10
4.10611e-10
-1.56716e-10
5.60802e-09
-4.87431e-09
3.72206e-09
-4.45577e-09
-3.15794e-10
-5.46875e-10
2.24038e-10
5.22526e-10
-4.44849e-10
7.37966e-11
-5.57741e-10
5.00421e-10
-1.8365e-08
2.35941e-09
1.63467e-09
1.4371e-08
1.6163e-10
-5.84984e-10
-8.43986e-11
-4.32793e-09
-1.52484e-08
1.21124e-09
5.63724e-09
1.21544e-08
-5.2483e-09
-1.25433e-08
1.63418e-08
7.83e-10
-1.5803e-08
-1.32184e-09
-5.86395e-10
3.68811e-10
4.7144e-10
-1.45483e-10
5.81308e-11
8.73518e-11
-7.59155e-09
-3.40945e-09
4.14977e-09
-1.44957e-10
2.39368e-10
-9.44102e-11
9.72775e-10
-1.57332e-08
-6.69864e-10
1.03501e-08
-1.13649e-08
-7.96622e-10
-7.16871e-11
1.3044e-08
4.52255e-09
-4.23347e-09
-1.33331e-08
1.74346e-11
7.2921e-09
-8.09396e-09
6.30682e-09
-1.49559e-09
-9.27282e-09
8.41898e-09
2.34943e-09
-2.00773e-09
7.16954e-10
-1.39576e-08
-7.08461e-11
-7.41117e-11
5.59725e-10
4.78912e-10
-9.09838e-09
8.12202e-10
1.72459e-08
-1.71625e-09
-1.16455e-08
1.30569e-08
-1.41141e-09
1.23414e-08
1.3909e-08
-1.55021e-08
-1.07483e-08
-3.98057e-10
7.74386e-10
-3.76329e-10
-2.43916e-11
2.97872e-10
-2.7348e-10
-5.1126e-10
1.1887e-09
-6.77443e-10
1.1504e-09
-9.07079e-10
-2.43317e-10
-1.04618e-08
1.07435e-09
9.38748e-09
1.73705e-09
-5.86651e-10
8.98706e-09
-1.54354e-08
8.1975e-09
-9.65922e-09
7.55104e-11
3.51126e-09
-4.24422e-10
-2.12745e-09
2.20296e-09
-6.2719e-09
7.60912e-09
-1.33722e-09
-3.14836e-10
4.34491e-09
-1.81386e-10
1.72397e-08
-1.44769e-08
-1.63709e-09
-6.3309e-09
5.51464e-09
1.50499e-10
-1.5869e-10
5.58284e-09
-5.5345e-09
-4.83426e-11
6.76398e-09
4.62159e-09
-9.60792e-11
-1.58293e-08
1.05265e-08
1.76441e-08
5.87736e-09
8.17872e-09
8.13972e-09
-6.84704e-09
1.48742e-09
-1.19492e-08
-7.54308e-11
1.74244e-09
-1.30331e-08
2.62139e-09
-4.18429e-10
1.08333e-08
-1.00503e-08
-3.26525e-10
-6.00472e-10
-1.38452e-08
7.98245e-09
6.19493e-10
1.97859e-11
-8.86714e-09
4.92511e-09
-2.99406e-08
-1.25253e-08
-2.87964e-09
1.55975e-09
1.41569e-08
1.11542e-08
-1.08795e-08
-1.44316e-08
1.53287e-08
-3.2186e-09
-1.21101e-08
1.58762e-09
4.05957e-09
-7.32025e-10
-8.48314e-10
-7.43489e-10
1.02031e-09
5.71488e-10
-1.90101e-10
3.04829e-10
2.95882e-10
6.21485e-08
-6.21748e-08
2.62197e-11
6.20678e-08
-6.23722e-08
3.04368e-10
8.37646e-10
6.47297e-08
-6.5557e-08
8.27277e-10
6.41215e-08
6.08181e-10
-2.23629e-10
-6.65021e-08
9.45086e-10
-6.20644e-08
6.19297e-08
1.34768e-10
1.31405e-09
-6.78161e-08
-6.22243e-08
1.59859e-10
1.28792e-08
-4.17378e-10
1.04096e-09
-3.69488e-09
3.0713e-09
2.46602e-10
-1.10635e-09
7.81184e-10
-4.20825e-10
1.31975e-09
-1.52175e-09
6.22826e-10
1.29432e-09
-1.33851e-09
-1.64152e-11
-2.27374e-11
-3.49424e-09
2.54094e-09
-1.76013e-09
2.71343e-09
-2.02535e-10
-2.63801e-09
2.42316e-09
-3.36613e-09
-5.93946e-09
5.39152e-10
-5.23078e-10
1.03747e-09
1.06347e-09
-6.36978e-09
7.8073e-09
3.18407e-09
1.97118e-08
-4.38316e-09
-6.18065e-10
2.68969e-10
8.88247e-10
-1.00507e-08
-2.60201e-08
5.17742e-09
-4.11716e-09
-3.2273e-09
2.16703e-09
7.58626e-11
2.66864e-11
2.59503e-10
-2.40558e-09
3.23301e-09
9.07714e-09
6.18174e-10
-3.1069e-11
2.0025e-09
-2.17396e-09
1.60629e-09
1.46986e-08
1.33673e-08
-2.69185e-08
3.27288e-08
6.30829e-09
-2.28719e-08
-1.03549e-08
1.86033e-08
-1.80979e-08
1.06487e-08
4.82766e-11
-2.99203e-10
-1.08758e-09
-1.56924e-09
-2.70798e-09
2.93068e-09
1.52463e-08
-6.65731e-10
-1.38636e-08
-1.08773e-09
-2.02214e-09
4.7187e-10
1.55029e-08
1.7799e-08
1.3682e-08
7.94322e-10
-1.76598e-09
-1.27103e-08
-1.31618e-09
5.99504e-09
1.26862e-08
-3.29394e-10
-9.18245e-10
-3.71743e-09
2.84601e-09
3.41237e-09
2.5297e-09
1.46571e-08
4.37348e-09
-1.4508e-08
1.82282e-08
-1.77064e-09
2.23377e-09
-3.21525e-09
1.9441e-09
-4.97478e-09
1.29028e-08
-1.19036e-08
-1.40582e-08
2.87165e-10
8.79626e-09
-1.73672e-09
1.44948e-09
1.3247e-09
-8.67154e-09
6.77143e-10
-4.53087e-09
-5.99078e-09
1.21651e-08
-1.48459e-08
8.88605e-10
1.70265e-09
-2.20502e-09
1.69446e-08
-1.64422e-08
-1.19358e-09
1.42098e-08
3.16232e-09
-4.54835e-09
-1.40493e-08
7.6233e-09
-1.75419e-08
-8.17925e-09
7.02679e-09
5.90476e-09
1.47474e-08
-1.0238e-08
2.9744e-09
9.61298e-09
9.7619e-09
3.92277e-09
-4.2707e-09
2.18915e-08
-1.93768e-08
5.10855e-09
-1.08199e-08
2.16952e-09
5.7561e-09
1.41068e-08
-4.49188e-10
1.2844e-08
-1.35884e-08
-1.94628e-09
1.37846e-09
-3.73068e-10
9.40884e-10
1.11409e-08
-6.35327e-09
7.36672e-09
-1.12124e-08
1.4814e-09
-4.73652e-09
1.15971e-08
-1.21089e-08
-7.60187e-09
9.30452e-09
9.43827e-09
1.30216e-08
4.5032e-10
-1.39212e-08
1.32532e-09
7.58459e-10
-1.12299e-08
-6.71792e-09
1.03459e-08
-1.19309e-09
2.50426e-09
-9.04476e-09
4.74845e-09
-5.40307e-09
1.17531e-08
-3.4479e-09
-1.19851e-08
3.67989e-09
-4.44131e-09
1.14579e-08
1.68809e-09
1.08671e-09
-5.10798e-09
-1.79785e-08
1.06237e-08
1.24628e-08
6.69803e-10
-1.11786e-08
-1.01124e-08
1.6183e-08
1.27571e-08
2.90204e-09
-9.90305e-09
-1.33656e-08
-3.16925e-10
-1.27524e-08
1.85604e-10
-7.7325e-10
1.18577e-08
1.25552e-08
-8.23563e-09
1.68108e-08
-1.6154e-08
3.71669e-09
-5.48916e-10
1.84002e-09
1.30799e-08
-3.94629e-09
-1.28305e-08
-4.85972e-09
2.05359e-09
4.54857e-09
1.25158e-08
-7.23745e-09
1.03986e-09
-1.70579e-09
1.83304e-10
-4.23797e-10
6.02432e-09
2.65159e-08
1.35056e-10
-8.79472e-09
8.65966e-09
2.87351e-08
-2.24785e-08
2.214e-08
1.98788e-08
-1.27147e-08
-2.76142e-09
1.52006e-08
1.27534e-10
-1.21492e-08
-4.7566e-10
-5.98605e-09
-1.80676e-09
2.10549e-09
1.38936e-09
-6.41574e-10
-1.125e-08
1.17329e-08
1.58607e-10
2.84944e-09
-4.79523e-09
-1.13361e-08
1.08626e-08
-9.53292e-10
-1.10323e-08
-3.39707e-10
-1.15496e-08
-2.32212e-09
-1.21895e-08
2.11867e-09
7.86344e-09
5.17367e-09
-6.95391e-10
-1.18264e-08
1.18802e-08
5.15536e-10
-9.00913e-09
5.06494e-09
-1.62878e-09
1.97039e-09
-1.62259e-09
-1.30697e-08
-1.22586e-08
1.16983e-08
-1.01201e-08
-1.58555e-08
1.01464e-08
9.32077e-09
7.61764e-10
2.80722e-09
-1.16019e-08
1.1675e-08
1.66418e-09
3.83687e-09
2.37868e-10
-4.08692e-10
-1.44971e-10
-4.16682e-09
2.41933e-09
-2.7465e-10
1.1507e-10
-1.36188e-10
2.11182e-11
-2.74871e-09
1.32398e-08
2.266e-09
2.5084e-09
5.32243e-10
-1.15121e-09
-7.17234e-10
-2.14654e-09
-9.22526e-11
1.31981e-08
1.02582e-08
-2.60512e-10
6.65423e-09
-1.262e-09
-5.13172e-09
-9.89192e-09
-5.18454e-09
8.54233e-11
2.96461e-11
4.82922e-09
1.38766e-09
-1.73955e-08
-2.19002e-10
-6.57268e-10
-2.77192e-09
1.03105e-09
3.33724e-09
6.19512e-08
-8.57231e-11
-6.18655e-08
6.23752e-08
1.88834e-10
-6.25641e-08
-1.4089e-08
-4.28157e-10
1.44077e-08
1.09388e-10
3.34249e-09
-1.63661e-09
2.34067e-09
1.8002e-09
-4.59436e-09
-1.6574e-10
-4.45625e-10
3.62392e-10
-7.34842e-11
3.23983e-10
-2.05048e-10
1.98524e-08
9.75314e-10
-1.59985e-08
-6.78092e-11
-1.96012e-09
1.27249e-08
2.31511e-09
1.83885e-09
5.34124e-09
-2.15084e-09
-7.7231e-08
-2.41786e-08
-5.11501e-09
1.58304e-08
2.52853e-09
2.64747e-10
-2.68594e-09
-9.00342e-10
1.26122e-10
-1.44025e-10
-9.32949e-09
-3.73915e-10
9.7034e-09
-1.09836e-08
-6.5315e-09
1.07972e-08
-9.58666e-09
8.72062e-09
3.60896e-10
1.28231e-09
8.92833e-09
-8.95932e-09
3.09917e-11
5.07583e-10
8.78532e-11
1.10594e-08
3.33838e-10
-5.69156e-10
2.97099e-11
-1.42637e-08
-4.01154e-10
-1.39093e-08
1.28702e-08
-1.1954e-08
-6.60369e-08
6.49951e-08
1.04179e-09
1.56277e-10
-1.29591e-10
1.22199e-08
-1.40333e-10
4.14467e-12
-2.18319e-09
2.74315e-09
-3.39511e-09
-1.34648e-08
-1.62842e-09
2.58035e-09
-4.60058e-09
-1.42477e-08
1.4528e-09
5.51175e-09
9.81135e-09
-9.18284e-09
-1.59818e-10
1.94847e-11
-9.2597e-09
-1.35742e-08
1.50945e-10
-6.26934e-08
2.3637e-10
6.2457e-08
6.95415e-10
6.34261e-08
-2.23557e-10
-1.72823e-09
-1.45179e-08
1.07966e-10
-6.34105e-08
6.33025e-08
1.8328e-10
-6.29521e-08
6.27688e-08
2.5596e-10
6.17964e-08
1.5037e-10
-6.19468e-08
6.16276e-08
1.6882e-10
-8.78885e-08
8.84976e-08
-9.20933e-13
9.33919e-08
-9.30984e-08
-2.67283e-10
-8.66282e-08
-4.3305e-10
9.3351e-08
-1.82662e-10
-8.49157e-08
-7.67441e-10
9.34816e-08
1.7379e-10
-5.22487e-10
1.96175e-09
9.23574e-08
-6.93071e-08
6.21373e-08
-6.2318e-08
-6.29493e-08
6.14852e-08
1.42409e-10
-3.20088e-09
2.9795e-09
-1.42866e-08
3.44365e-11
5.09865e-11
8.49125e-10
8.67559e-09
-1.13931e-08
3.83533e-08
-3.45871e-08
-1.67992e-08
1.38319e-08
-2.24417e-11
-1.82492e-10
8.94607e-11
4.42597e-10
-9.90155e-11
2.71306e-10
4.33545e-09
1.0707e-09
-3.46204e-09
-8.68469e-11
1.1873e-10
-5.40625e-11
-2.63189e-09
1.33904e-08
2.4813e-09
-1.44156e-08
-2.61636e-09
-3.17362e-09
5.44178e-09
1.0607e-09
-2.59074e-09
1.44347e-08
-1.22019e-09
-1.21574e-09
1.0191e-09
-8.16267e-09
-1.90924e-08
-1.35522e-08
8.09783e-09
5.74155e-09
-1.50376e-10
-5.88636e-10
2.8445e-09
1.45045e-08
2.29437e-09
-1.88262e-09
-3.29675e-10
3.79809e-10
-2.08824e-10
1.58563e-08
-6.18507e-10
-1.56117e-08
7.47997e-10
3.49554e-10
3.46898e-10
-2.93567e-10
3.31995e-09
-1.60464e-08
3.63298e-10
-1.40504e-09
-1.98139e-09
-2.26902e-09
1.58612e-08
-9.05909e-08
-1.39082e-10
9.1678e-08
-1.90459e-10
-8.91635e-08
-4.76775e-10
9.31011e-08
-2.75227e-10
-9.29116e-08
-5.17265e-10
-1.47442e-09
1.69648e-08
9.19794e-08
-1.96637e-10
2.95236e-11
-2.20887e-10
9.58154e-09
2.29838e-09
-6.94497e-09
-1.23753e-08
-5.67455e-09
8.34101e-09
1.55255e-09
-6.70949e-09
-5.96563e-09
9.0741e-09
-1.9852e-11
1.01074e-08
1.94936e-08
-1.79778e-08
3.09277e-09
-1.28813e-08
3.14357e-09
-6.99576e-08
3.92066e-09
-2.05914e-08
-1.30336e-08
-4.17391e-10
-5.91113e-09
-1.5325e-08
9.08695e-09
-1.50375e-08
3.45e-10
2.92634e-10
-1.97706e-09
-1.68486e-08
1.72294e-08
6.89773e-09
-7.55343e-09
-4.13776e-09
1.53795e-08
-1.70321e-09
7.58332e-10
-6.2427e-10
-2.95502e-11
1.19599e-08
3.31085e-09
7.09097e-08
-1.82276e-08
5.98833e-10
-1.51445e-08
-1.98597e-10
-2.25489e-10
-1.77351e-10
6.09478e-08
-6.1223e-08
-6.3381e-08
-6.31488e-08
-6.41713e-11
-2.62211e-10
-9.25852e-08
-6.04507e-08
6.24125e-08
6.51048e-08
-6.02769e-08
6.45824e-08
-6.04596e-08
6.38149e-08
-6.07269e-08
6.33819e-08
9.2308e-08
2.23264e-10
-6.3267e-09
7.51327e-08
-6.54952e-08
1.54969e-11
-1.54969e-11
-2.33133e-10
-2.85195e-10
1.54725e-08
8.35676e-12
-8.35676e-12
2.50119e-10
1.51169e-09
1.39171e-08
1.35086e-08
-2.69766e-09
3.71075e-09
6.77395e-09
1.64145e-09
3.15774e-10
-2.09543e-10
-2.95227e-09
1.45617e-08
1.48399e-08
-4.29432e-09
1.18216e-08
1.4173e-10
1.1597e-10
2.60093e-09
-7.10944e-10
-1.41194e-09
-5.86389e-09
-1.79019e-10
-3.49931e-10
1.5315e-08
1.94608e-10
2.57909e-11
1.41075e-08
-2.62958e-08
1.79278e-08
2.73346e-09
1.14571e-09
2.50138e-09
-3.72472e-09
1.947e-08
-1.82467e-08
-5.53497e-11
-1.368e-10
-1.44107e-09
-7.9215e-08
-7.07481e-08
1.14257e-09
-2.04499e-10
5.76226e-10
2.30161e-08
1.86175e-08
-6.48054e-09
8.07863e-11
-4.15181e-09
-2.52398e-09
2.99695e-08
1.61586e-10
1.48185e-08
7.35779e-08
2.82092e-11
4.9223e-10
-1.21869e-10
-1.77733e-10
-3.50553e-09
2.4381e-08
-1.48665e-08
8.01275e-10
-1.42153e-08
-3.54891e-11
2.04128e-08
-2.87831e-08
9.77736e-10
1.7671e-09
-1.05009e-10
)
;

boundaryField
{
    back
    {
        type            empty;
        value           nonuniform 0();
    }
    ingreso
    {
        type            calculated;
        value           nonuniform List<scalar> 
14
(
-1.54286e-08
-1.54288e-08
-1.54288e-08
-1.54288e-08
-1.54286e-08
-1.54283e-08
-1.54288e-08
-1.54288e-08
-1.54286e-08
-1.54286e-08
-1.54288e-08
-1.5428e-08
-1.5428e-08
-1.54286e-08
)
;
    }
    salida
    {
        type            calculated;
        value           nonuniform List<scalar> 2(1.0141e-07 1.14591e-07);
    }
    front
    {
        type            empty;
        value           nonuniform 0();
    }
    defaultFaces
    {
        type            calculated;
        value           uniform 0;
    }
}


// ************************************************************************* //
