/*--------------------------------*- C++ -*----------------------------------*\
  =========                 |
  \\      /  F ield         | OpenFOAM: The Open Source CFD Toolbox
   \\    /   O peration     | Website:  https://openfoam.org
    \\  /    A nd           | Version:  7
     \\/     M anipulation  |
\*---------------------------------------------------------------------------*/
FoamFile
{
    version     2.0;
    format      ascii;
    class       volVectorField;
    location    "119";
    object      U;
}
// * * * * * * * * * * * * * * * * * * * * * * * * * * * * * * * * * * * * * //

dimensions      [0 1 -1 0 0 0 0];

internalField   nonuniform List<vector> 
591
(
(0.000841054 6.45859e-06 1.21562e-18)
(0.000839402 6.7065e-06 -6.60141e-19)
(0.000849784 3.25421e-05 5.69109e-20)
(0.000869893 -3.34208e-05 -1.49018e-19)
(0.000859667 -1.63224e-05 2.25445e-19)
(0.00080369 -3.71181e-05 -1.39566e-19)
(0.000551464 -0.000189319 8.0667e-19)
(0.000803405 4.02457e-06 2.10737e-18)
(0.00571966 0.00251267 9.88052e-19)
(0.000825923 1.11099e-05 2.43034e-18)
(4.46176e-05 0.000153972 1.21784e-18)
(0.000940211 0.0014013 9.40681e-21)
(0.000801543 4.49351e-06 1.32333e-18)
(0.00160607 0.00240665 -7.87411e-19)
(0.000803207 1.48539e-06 -4.46881e-19)
(3.05227e-05 -0.000113087 2.41657e-22)
(0.000142186 0.000661364 7.04801e-19)
(0.000818496 8.31809e-05 -4.97795e-19)
(0.00189081 0.000393333 4.73799e-19)
(0.00135655 0.000261631 -2.47134e-19)
(0.000829152 -8.85939e-06 3.73068e-19)
(0.0034009 0.00656054 -8.14019e-20)
(2.08631e-05 5.9106e-05 2.70849e-19)
(0.000834892 -2.71808e-05 -4.51585e-19)
(3.5245e-06 -8.23729e-06 3.5877e-19)
(0.000801373 5.14691e-05 0)
(9.57367e-05 0.000461437 1.5993e-19)
(0.000595189 -7.38189e-06 -1.7876e-19)
(0.0007758 5.11722e-05 1.149e-18)
(0.000803849 7.67998e-05 5.84865e-19)
(4.32669e-05 -6.73849e-06 -5.64813e-24)
(1.41605e-05 -3.37568e-05 3.52033e-19)
(2.25831e-05 -2.27438e-06 -4.64035e-20)
(3.22261e-05 -1.22418e-05 0)
(4.00997e-05 -1.27464e-05 1.13099e-18)
(0.00116663 0.000144049 1.798e-19)
(1.86573e-05 -3.48741e-06 4.46967e-20)
(0.000822928 1.32682e-06 3.06406e-23)
(2.05897e-05 3.46795e-05 2.65927e-19)
(-2.23634e-05 -3.59702e-05 -8.53828e-19)
(0.00066512 -0.000169814 9.58854e-19)
(1.38811e-05 -3.83511e-06 4.54643e-20)
(0.00082173 3.00045e-05 -1.57265e-18)
(0.000830916 5.24841e-05 -6.9053e-19)
(8.49921e-06 -4.05551e-06 0)
(4.30431e-05 1.80951e-06 8.51539e-20)
(0.00135156 0.00450139 8.92766e-19)
(6.20845e-05 6.33149e-06 8.63297e-20)
(0.000803392 1.80765e-05 0)
(0.000400171 -0.00023564 6.76788e-19)
(0.000395477 0.000260848 5.11761e-21)
(0.000412719 1.96515e-05 -1.00338e-18)
(0.00634788 0.0109401 -7.6885e-19)
(0.00622459 0.0107951 1.52804e-20)
(0.00561488 0.010378 1.45618e-18)
(0.000803857 5.71342e-05 0)
(5.65375e-05 2.1042e-05 0)
(0.000324276 -2.4942e-05 3.63284e-23)
(5.04461e-05 3.79673e-06 -3.46325e-19)
(0.000811602 -6.18431e-06 0)
(0.000682163 2.76575e-05 3.17425e-19)
(0.000852358 3.86976e-05 2.20893e-18)
(0.000816068 4.33957e-05 -5.42743e-19)
(0.000799937 1.0845e-05 -3.15644e-19)
(0.00171355 0.000487396 5.42326e-19)
(0.00081756 3.95136e-05 -1.14399e-18)
(0.000843974 4.50951e-05 -5.22428e-19)
(6.25237e-05 -1.06848e-05 -1.73343e-19)
(0.000692083 0.00225398 0)
(0.000847716 5.36385e-05 0)
(0.000801085 3.71973e-05 -1.3916e-18)
(3.01492e-05 1.12058e-05 0)
(0.000296053 0.000256866 3.26753e-19)
(2.633e-05 -1.40213e-05 0)
(2.89017e-05 -5.26399e-06 1.59411e-19)
(5.18201e-07 -2.71823e-05 -3.36512e-20)
(0.000811219 7.99019e-05 2.46807e-19)
(3.48061e-05 6.47362e-06 0)
(0.000818907 5.73492e-05 4.47029e-19)
(0.000786945 0.000298792 2.10651e-19)
(0.000957813 7.25755e-05 -3.97472e-20)
(3.46968e-05 1.65753e-05 -4.51688e-20)
(1.93838e-06 -4.96243e-06 0)
(0.000449789 0.000206228 1.70129e-19)
(2.48704e-06 1.25042e-05 0)
(0.000810993 5.50186e-05 -6.08555e-19)
(0.000672039 -0.000107663 0)
(5.00098e-05 -7.07324e-06 -1.74412e-19)
(-3.07431e-07 -8.16333e-06 0)
(0.00084184 0.00024677 -3.41124e-19)
(9.36435e-07 -2.2637e-06 0)
(0.000439858 0.000315625 -1.37894e-23)
(0.000557442 0.000103726 0)
(0.000820246 4.66652e-05 -3.21163e-24)
(1.81415e-06 6.97983e-06 -4.2155e-20)
(0.000489755 -4.02183e-05 1.76276e-18)
(0.00101358 7.715e-05 4.15672e-20)
(0.000759409 4.91589e-05 6.41934e-22)
(0.000753207 0.000661764 2.69411e-19)
(6.76852e-06 3.25657e-05 0)
(-8.43168e-06 3.23643e-06 -3.12175e-19)
(-3.49593e-05 2.72305e-05 -1.10069e-18)
(5.48869e-06 5.61453e-05 -5.96147e-19)
(0.000584092 -3.36455e-05 0)
(9.60023e-06 7.85131e-05 0)
(0.000824534 3.97767e-05 2.18044e-18)
(0.000809038 4.6414e-05 1.53355e-18)
(0.00047031 -0.000133254 0)
(3.7715e-05 0.00019903 -8.95027e-19)
(2.29818e-06 0.000140169 4.96871e-19)
(5.36332e-05 0.000379099 6.25099e-19)
(0.000315975 5.21557e-05 -9.36926e-19)
(0.000801847 2.0118e-05 1.37366e-19)
(0.000252651 -9.45529e-05 5.31004e-19)
(4.01378e-06 1.96352e-05 0)
(1.80212e-05 0.000257446 -1.09401e-18)
(0.000330423 0.000313554 -1.61659e-19)
(-2.65724e-06 1.4187e-06 1.46546e-19)
(0.000672904 0.000798246 0)
(0.000379926 0.000374872 5.74249e-20)
(0.000831775 3.7813e-05 1.07019e-18)
(0.000799711 1.91346e-06 -2.72567e-18)
(2.20602e-06 3.5799e-05 0)
(0.000656999 -4.53106e-05 -1.12266e-19)
(0.000326379 -0.000173115 1.24259e-18)
(0.00261182 0.000811564 -3.36573e-19)
(9.52366e-06 0.000107007 -6.13125e-19)
(1.03648e-05 0.000135477 1.61969e-18)
(0.000628347 2.70952e-05 -3.89642e-20)
(4.65205e-05 -1.82017e-05 -7.49867e-19)
(0.000815843 4.431e-05 -3.9173e-19)
(0.000681042 2.88234e-05 -4.10538e-20)
(3.00098e-05 0.000305765 -5.97097e-19)
(0.000519716 4.1257e-05 -4.93751e-19)
(3.56647e-05 -5.08434e-06 1.56089e-19)
(0.000845819 4.79991e-05 -1.08089e-18)
(0.00152242 0.000237865 -1.13648e-18)
(5.60584e-06 4.48238e-05 4.96241e-19)
(0.000815134 3.94476e-05 -5.0331e-19)
(0.000930124 0.000561145 -7.8483e-20)
(0.000151453 0.000773256 0)
(0.000618743 5.94506e-05 0)
(0.000280727 2.70934e-05 -1.60885e-18)
(5.5373e-05 4.69323e-05 -1.37359e-18)
(2.41049e-05 1.51547e-05 0)
(0.00424803 0.00740167 -1.01979e-20)
(0.00422612 0.00737316 3.16812e-20)
(0.00442828 0.00757587 -5.00296e-21)
(0.00420512 0.0077332 0)
(0.00419754 0.00759913 5.77395e-19)
(0.00424498 0.00740268 -9.20705e-20)
(0.004209 0.00804047 4.84632e-19)
(0.00429068 0.00742419 0)
(0.00420758 0.00853301 6.16968e-19)
(0.0043272 0.00745285 2.24e-19)
(0.000843945 3.24585e-05 -1.37067e-18)
(0.000794667 6.84425e-05 0)
(0.000208004 2.5227e-05 1.27662e-19)
(4.01672e-05 9.68514e-06 8.71509e-20)
(6.8098e-05 3.22552e-05 6.79767e-19)
(9.33859e-05 2.51782e-05 -3.41542e-19)
(8.28078e-05 -7.66829e-06 0)
(3.66918e-05 1.29432e-06 8.18046e-20)
(0.000209254 0.000110121 0)
(0.000155061 1.57502e-05 -5.24156e-20)
(0.000352321 0.000207379 -5.09106e-21)
(4.74656e-05 3.29461e-05 -4.37489e-19)
(7.79608e-05 1.374e-05 -8.5215e-20)
(8.13608e-05 4.72615e-05 1.31147e-21)
(0.000266097 0.000353901 -6.65997e-19)
(0.000112197 0.000987976 0)
(3.57833e-05 4.2518e-05 3.42934e-19)
(0.000200431 0.00173604 0)
(0.000210141 0.000238275 7.04459e-19)
(2.49077e-05 -2.50313e-06 1.11451e-19)
(0.000503531 0.000154879 -1.72246e-19)
(0.000788482 3.75977e-05 -1.92231e-18)
(3.1162e-05 -2.1089e-06 5.10465e-24)
(0.000133228 3.18349e-06 2.24513e-19)
(0.000248488 6.7948e-05 -8.9902e-20)
(0.00088665 0.00069406 3.34845e-19)
(0.000722494 0.00163441 -9.23308e-21)
(0.000392017 0.00141695 -9.37912e-21)
(0.00103653 0.000552969 0)
(7.96066e-05 -2.52935e-05 1.1183e-18)
(9.9365e-05 -3.51446e-06 -4.4275e-20)
(0.00048078 -0.000246775 -1.1361e-18)
(0.000829807 4.41564e-05 0)
(0.000168576 -3.19522e-05 3.63191e-19)
(0.000309568 0.0012958 0)
(0.00109093 0.000771799 -7.29981e-20)
(0.000825787 2.38457e-05 -1.86477e-19)
(5.60878e-05 -2.59614e-05 -2.99858e-19)
(0.000848174 0.000313937 -2.07969e-20)
(3.5609e-05 -2.07903e-05 -5.9924e-19)
(0.000229715 0.000155907 8.63624e-20)
(0.000233683 0.000298164 -3.44911e-19)
(0.000906211 0.000257259 0)
(0.000834034 6.09582e-05 0)
(0.000270222 0.00011 1.76792e-19)
(0.000229583 -3.5612e-05 1.09717e-23)
(0.000186099 0.000189503 0)
(0.000309271 0.000639922 -5.55519e-21)
(0.00037444 -5.29978e-05 0)
(0.000383876 0.000598479 0)
(0.000100163 6.53361e-05 -1.34621e-21)
(0.000809666 2.88028e-05 -9.53952e-19)
(0.000805179 1.65981e-05 7.86936e-19)
(0.000118682 3.80735e-05 -1.49802e-19)
(0.000984145 0.000147309 8.49994e-20)
(0.000842219 3.37284e-05 3.33378e-19)
(0.000824836 4.0077e-05 -2.94057e-19)
(0.00104027 0.000423032 0)
(0.000458737 9.84372e-05 6.24196e-19)
(0.000925917 0.000326812 2.0906e-20)
(0.000604535 0.000147352 0)
(0.000279695 0.000438316 4.09538e-19)
(0.000264939 0.000200125 -8.4393e-20)
(0.00111295 0.00038806 -7.81781e-19)
(0.000653938 0.00010274 -1.79218e-19)
(0.000830814 8.07902e-05 -7.45748e-21)
(0.000847967 1.83604e-05 9.38459e-20)
(3.21626e-05 -8.23178e-05 -1.98065e-18)
(0.000750051 0.000379268 2.19165e-19)
(0.000700424 7.2423e-05 2.3056e-20)
(0.000724224 0.00027829 1.63512e-23)
(0.00074662 0.000463308 -4.09536e-19)
(0.000859104 8.33099e-06 9.06208e-20)
(6.48106e-05 6.48711e-05 0)
(0.000667687 0.000426713 -4.65774e-20)
(0.000179825 7.2351e-05 0)
(0.000375069 0.000499776 -2.64771e-19)
(0.000315923 0.000147486 0)
(0.000695635 0.000204518 3.55089e-19)
(0.00066847 0.000259188 -4.37092e-20)
(7.71823e-05 9.03941e-05 6.1893e-19)
(0.000894888 9.7905e-05 -1.63598e-18)
(4.7087e-05 1.42581e-05 2.57092e-19)
(0.000907722 7.27935e-05 -1.68582e-18)
(0.000856891 9.21156e-05 1.63022e-19)
(0.000818446 4.00094e-05 1.93147e-18)
(0.000822497 3.05467e-05 -1.32562e-19)
(0.000756261 7.05426e-05 0)
(0.000804891 1.86822e-05 9.00172e-19)
(0.000980597 0.000243729 -4.26923e-19)
(0.00080079 0.000104477 -4.83548e-19)
(0.000788372 0.000239862 -8.80872e-20)
(0.000182614 -0.000209611 -2.07414e-18)
(0.00077741 8.648e-05 8.87183e-19)
(0.000648249 0.00058917 0)
(3.39895e-05 -0.000122698 0)
(0.00123485 0.000481148 4.97184e-19)
(0.000504322 -4.73067e-05 -3.2718e-18)
(0.00136075 0.000422758 5.76245e-19)
(0.00125872 0.000724071 -6.389e-20)
(0.000818391 3.6257e-05 -2.12662e-19)
(0.000847693 6.51742e-05 -1.42692e-18)
(0.000812621 2.62595e-05 1.5844e-18)
(0.000812839 1.808e-05 9.75825e-20)
(0.00068177 0.000352387 -4.40252e-20)
(9.65472e-05 0.000105105 1.1728e-23)
(0.000776697 -2.03002e-05 2.64806e-19)
(0.000199748 -0.000244429 -7.3382e-19)
(0.000654243 0.000179833 0)
(0.000739617 5.22828e-05 9.89958e-20)
(0.000738087 1.173e-05 -3.80648e-19)
(0.000404168 0.000155092 3.9323e-20)
(0.000817928 0.000510285 -1.65422e-19)
(0.000141063 5.43801e-05 4.83195e-25)
(0.000828165 0.000411336 0)
(0.00099817 0.000316512 4.15604e-20)
(0.00077687 -4.69992e-05 -6.15698e-19)
(0.000362738 8.14768e-05 4.97678e-19)
(0.000909587 0.00042659 0)
(4.04941e-05 2.33128e-05 1.33659e-19)
(0.000504331 0.000256128 2.13878e-19)
(0.000571243 -0.000177448 -7.08989e-19)
(6.67182e-05 -0.000177043 -1.05615e-18)
(0.000827395 4.56567e-05 -4.86475e-19)
(0.000749665 -4.3652e-05 -1.94699e-19)
(0.000558658 0.000726742 -1.17388e-18)
(0.000859169 4.24209e-05 -6.72851e-20)
(0.000524436 -1.77554e-06 1.28341e-18)
(0.000729438 9.91573e-05 2.27683e-20)
(0.000554861 0.000199238 -1.65629e-19)
(1.76625e-05 -1.59793e-05 -8.75511e-20)
(0.000133238 -7.48112e-05 2.40497e-18)
(8.34877e-06 4.01016e-07 -1.94791e-19)
(0.00085366 0.000121593 3.636e-19)
(0.00069512 0.000134059 0)
(0.000154492 -0.000131519 -1.04785e-18)
(0.000101117 -3.56259e-05 3.12633e-19)
(7.72937e-05 -4.55507e-05 9.56151e-24)
(0.00082153 0.000107767 -3.19137e-19)
(0.000135532 -3.40363e-05 0)
(0.000608419 0.000234434 0)
(0.000111311 0.000314969 -3.62748e-19)
(0.000875977 0.000102393 2.10708e-18)
(6.76846e-06 4.513e-07 0)
(0.000896466 4.86623e-05 0)
(2.77972e-05 -2.3245e-05 0)
(0.000815158 4.90386e-05 -4.46631e-21)
(0.000775134 -1.37356e-05 0)
(0.00426113 0.00740844 8.07358e-20)
(0.00436305 0.00748887 1.43384e-19)
(0.000841376 -2.85925e-05 0)
(0.000806706 -1.94792e-05 8.10981e-19)
(0.000150228 0.000106069 1.4916e-19)
(0.000869952 6.51914e-05 8.08349e-19)
(0.000123645 8.39932e-05 2.34312e-20)
(0.000803863 -8.83594e-06 6.23055e-19)
(2.68012e-05 6.3712e-06 0)
(1.70741e-05 -9.37166e-06 -4.483e-20)
(0.000914804 4.44779e-05 -4.86352e-19)
(1.74243e-05 -2.42936e-05 -6.69538e-19)
(0.000781629 0.000131117 -4.23062e-20)
(0.000170011 0.00014365 -1.8804e-19)
(0.000812023 3.33566e-05 0)
(0.00468251 0.00815348 9.00943e-22)
(0.000202482 0.000791132 3.3336e-19)
(7.94232e-05 -7.45075e-05 -9.14163e-19)
(3.98229e-05 -3.36807e-05 -1.16836e-18)
(0.000556627 1.27051e-05 1.89324e-20)
(0.000590424 0.00040031 0)
(0.000430811 0.000446267 -2.56254e-19)
(4.93888e-05 -6.63029e-05 1.18332e-18)
(0.000524085 -3.27006e-06 7.66855e-20)
(3.18566e-05 1.79497e-07 4.06929e-19)
(0.000740871 -3.27799e-05 1.17107e-18)
(0.000812201 3.17245e-05 -6.05937e-19)
(3.482e-05 -5.15516e-05 1.70895e-18)
(0.000840292 -5.38607e-05 -6.78836e-24)
(0.000534649 5.32122e-06 -3.74046e-20)
(0.00088566 7.1448e-05 0)
(0.000848516 6.13774e-05 0)
(0.00591411 0.00724408 2.60116e-19)
(8.16281e-06 -3.3007e-06 -1.19559e-19)
(6.80475e-05 -0.000124544 7.72787e-19)
(0.000751146 0.00011398 -6.96141e-19)
(1.04762e-05 3.95439e-07 2.01493e-19)
(0.000677217 -3.3417e-05 -7.23475e-19)
(0.000767156 3.77638e-05 1.55738e-18)
(0.000726877 0.000154503 -3.55298e-19)
(0.000807078 -1.06294e-05 3.60586e-19)
(5.11765e-05 -3.86065e-05 1.11554e-18)
(0.000802349 6.81678e-06 -3.22432e-19)
(0.00088259 2.95474e-05 0)
(0.000560456 0.000298592 4.20867e-20)
(0.000874298 4.52278e-05 -9.47464e-19)
(9.04237e-06 3.04536e-06 9.11363e-19)
(0.000867475 3.49463e-05 9.6524e-19)
(0.00086713 3.82102e-05 -9.63529e-19)
(0.000776599 7.99121e-06 -5.68915e-19)
(0.000575251 -9.05112e-05 -5.25404e-19)
(0.00433015 0.00745507 2.47106e-19)
(0.00422232 0.00752778 -2.5366e-19)
(0.00421997 0.00758566 2.67009e-19)
(0.00425675 0.00741216 1.98064e-19)
(0.000845201 -4.19687e-05 1.4421e-19)
(0.004477 0.0075155 0)
(0.00440462 0.00751958 -3.86904e-19)
(1.53293e-05 -1.94616e-07 -9.97858e-19)
(0.00416962 0.00746814 -6.33879e-20)
(0.00414514 0.00743141 -2.21601e-19)
(0.00602933 0.0106046 0)
(0.00654025 0.0111865 3.71699e-20)
(0.00600926 0.0105744 0)
(0.00655594 0.0112101 1.31028e-19)
(0.00599677 0.0105984 2.69731e-19)
(0.00659264 0.011227 1.24809e-20)
(0.00593572 0.010611 -7.76959e-19)
(0.00662292 0.011146 8.17452e-21)
(0.00390348 0.00919668 -1.90816e-19)
(0.00418583 0.00748713 3.90056e-21)
(0.00423681 0.00755112 7.93852e-20)
(0.00414964 0.00743372 4.12202e-20)
(0.00090505 0.000199441 4.46549e-20)
(4.5125e-06 5.99356e-07 0)
(0.000741219 -8.45861e-05 0)
(0.000657058 5.9698e-05 0)
(0.0024489 0.00111991 4.24004e-21)
(0.000759421 -2.94111e-05 1.72505e-19)
(3.09232e-05 3.1903e-06 4.53878e-20)
(2.23405e-06 -1.64818e-05 1.6523e-18)
(0.000871474 -3.11326e-06 0)
(2.13563e-05 8.93125e-06 -1.91653e-19)
(0.000139004 0.000208865 0)
(6.48684e-06 -6.5678e-07 0)
(4.5845e-06 -5.82059e-07 0)
(0.000848237 0.000153556 1.13735e-20)
(0.000810939 -1.68032e-05 1.79566e-19)
(3.93199e-05 0.000245232 -5.43033e-24)
(0.000155725 0.000260493 -1.84139e-18)
(0.000620784 0.000324359 -8.56715e-20)
(0.000910412 0.000119181 6.01166e-19)
(0.000550174 -0.000108392 6.75733e-19)
(0.00035985 0.00112049 0)
(0.0004863 0.00057513 2.71457e-18)
(8.67299e-05 0.000130801 -1.80254e-18)
(9.39287e-06 -4.65787e-07 0)
(0.000823358 -6.49598e-05 3.64036e-20)
(1.18315e-05 2.72934e-05 1.64387e-18)
(0.000888974 3.69784e-05 2.71003e-19)
(-2.74549e-05 0.000112582 3.80616e-18)
(0.000920725 4.34949e-05 -2.68868e-19)
(0.00132582 0.000161749 7.47462e-19)
(2.32648e-05 -8.51591e-06 8.25381e-20)
(2.51967e-05 1.15676e-06 -8.58778e-19)
(5.04469e-05 0.000127101 0)
(0.000928024 9.37072e-05 5.98237e-19)
(0.000505253 0.000364259 2.37073e-19)
(0.000581537 1.68786e-05 -3.88881e-20)
(0.000798163 1.68904e-05 2.57027e-19)
(0.000721553 -0.000107179 0)
(0.00632104 0.010895 -1.68123e-19)
(0.00637878 0.0109727 4.05995e-19)
(0.0061601 0.0107297 -6.18645e-19)
(0.00650126 0.0111318 -8.102e-20)
(2.96388e-05 0.000105226 8.00229e-19)
(0.000936103 6.26907e-05 1.43868e-22)
(0.00641135 0.0110052 -3.86617e-19)
(0.00628202 0.0108446 5.4866e-19)
(0.0060802 0.0106714 -4.16911e-19)
(0.00652178 0.0111643 -6.81777e-20)
(7.75406e-05 0.000478488 -2.01783e-20)
(2.41087e-05 -0.000174943 -7.92838e-19)
(0.000616802 -1.7292e-05 -7.67471e-19)
(0.00073946 0.000219324 0)
(0.000800288 3.43058e-07 0)
(0.000192579 0.000380111 3.36209e-19)
(0.000607732 0.000511888 -5.41708e-19)
(2.3936e-06 -4.4989e-07 1.78324e-19)
(0.000202067 0.000463321 -7.38208e-19)
(0.001029 0.000981246 -1.12666e-19)
(0.000765041 0.000168056 0)
(0.000804571 0.000184124 1.30971e-19)
(0.00634668 0.00588432 1.13238e-18)
(0.000733369 0.00112931 8.26495e-20)
(3.2231e-05 3.06129e-05 -7.44408e-20)
(0.000809767 1.22609e-05 0)
(0.000865943 1.78676e-05 -3.5679e-20)
(2.41318e-05 1.18028e-06 -1.96679e-19)
(2.13099e-05 2.42663e-06 1.92933e-19)
(0.00083523 9.80977e-06 5.36998e-19)
(0.000998356 0.000116004 6.5776e-19)
(0.000519868 5.38592e-05 0)
(0.00021927 -0.00023142 -4.00143e-19)
(0.000926176 0.000144744 3.89423e-19)
(-3.92925e-06 -3.26838e-05 2.02944e-19)
(0.00145666 0.000449497 -2.57966e-18)
(0.000540759 -1.8091e-05 0)
(0.000809918 0.000142 3.75324e-19)
(9.78929e-05 0.000378609 0)
(0.00118951 0.00816087 4.62082e-19)
(0.000502309 0.000494727 -1.22421e-18)
(0.000543819 0.00101834 -1.8371e-19)
(0.000895041 8.87522e-06 -1.46008e-19)
(8.78557e-06 1.91308e-05 0)
(0.000970569 8.01246e-05 6.11334e-19)
(0.00410574 0.00739466 8.14718e-20)
(0.00417046 0.00747262 4.73241e-20)
(0.00450074 0.00751828 4.54221e-19)
(0.00444607 0.00754389 -3.29458e-19)
(0.00647519 0.0111088 8.10972e-20)
(0.00391459 0.00714575 -9.39176e-22)
(0.00550704 0.00780095 -5.64908e-19)
(0.00409758 0.00737124 5.22003e-21)
(0.00518866 0.00786089 5.11843e-19)
(0.00407932 0.00733958 -4.87654e-20)
(0.0049541 0.00772044 0)
(0.0040845 0.00736383 -8.5718e-20)
(0.00474303 0.00759131 4.92665e-19)
(0.00409775 0.00737544 8.75645e-20)
(0.00457579 0.00753084 0)
(0.00428465 0.00742263 1.39804e-19)
(0.00423817 0.00759722 5.80819e-19)
(0.00446849 0.0075294 -5.55589e-19)
(0.00438882 0.00750709 3.71506e-19)
(0.00422689 0.0075237 2.87869e-19)
(0.00643053 0.011042 -4.97812e-21)
(0.00411718 0.00740077 3.11758e-20)
(0.00645867 0.0110719 0)
(1.71536e-05 3.37685e-06 -1.89791e-19)
(0.00200378 0.00654815 2.28161e-19)
(0.000838726 -6.435e-05 1.09485e-19)
(0.000848991 -5.05e-06 0)
(1.80279e-07 -7.68851e-08 -3.98962e-19)
(-4.50456e-05 -4.08925e-05 6.91091e-19)
(2.17961e-05 4.74578e-05 2.08832e-18)
(0.000848447 0.000192494 -9.00314e-20)
(0.000801854 8.48241e-06 7.06134e-19)
(-6.48662e-07 8.30631e-07 3.0987e-19)
(8.81633e-06 -2.24565e-05 -1.84481e-18)
(0.000763205 2.64203e-05 1.63096e-19)
(0.000879968 0.000127875 -3.07865e-20)
(0.000801183 -6.34559e-06 1.48075e-19)
(0.000444426 0.000677722 0)
(-1.86834e-05 -0.00011689 1.15077e-18)
(0.000882701 -7.94273e-06 1.52476e-19)
(1.61014e-05 1.85518e-05 0)
(0.000122055 0.000549229 -6.31123e-19)
(0.000616937 0.00058081 1.31724e-18)
(0.000341498 0.000757965 0)
(0.000802109 -1.31366e-05 0)
(0.000801887 3.20918e-06 1.17678e-18)
(1.30248e-05 4.01654e-05 -3.51378e-18)
(1.16426e-05 4.3757e-06 3.73487e-19)
(0.000116391 0.000129091 0)
(2.52207e-05 -3.59342e-05 0)
(5.65025e-05 0.000100291 2.00931e-19)
(0.000947279 0.000190334 3.50294e-19)
(0.000803033 1.64468e-05 -1.37787e-18)
(1.87038e-05 2.6336e-05 0)
(0.000387032 4.08528e-07 -6.04736e-20)
(0.000798604 3.47414e-05 -1.56299e-19)
(0.000855018 5.71631e-05 1.06546e-18)
(0.00024879 0.000543159 6.32072e-19)
(0.000888943 0.000159663 0)
(8.90438e-06 -1.57276e-05 5.38432e-19)
(4.8162e-07 6.49072e-08 -3.19838e-19)
(0.00092399 3.67769e-05 0)
(0.00105073 0.00227316 0)
(0.000886376 6.18254e-06 0)
(0.00101276 0.000210515 4.27002e-19)
(0.000819458 -3.70644e-05 -2.84167e-19)
(0.000950144 0.000119779 -6.84497e-19)
(0.000801322 3.88981e-06 0)
(3.83225e-05 5.80313e-05 -1.71508e-19)
(0.000174759 0.000317767 1.08085e-18)
(0.000801834 1.46599e-05 -2.63066e-23)
(0.00111705 0.00020797 -6.68292e-19)
(0.00108597 0.000130828 0)
(1.34353e-06 2.20166e-06 2.50936e-19)
(1.06495e-05 -9.81398e-06 -1.94243e-19)
(0.000544224 5.27085e-05 6.94803e-21)
(-1.82209e-05 -4.11103e-05 0)
(0.00108398 0.000258634 9.49537e-19)
(0.00502898 0.00974833 -2.82877e-19)
(0.0031218 0.00961623 1.27259e-18)
(-4.68382e-06 -7.89608e-05 -1.91249e-19)
(2.10474e-05 -6.48792e-05 1.85865e-18)
(0.00119641 0.00026273 1.67285e-19)
(0.00133257 0.00107448 2.34028e-19)
(0.000810422 4.58784e-06 -7.37239e-19)
(0.000205379 0.000945516 -2.38203e-19)
(0.000820263 0.000946461 -2.18526e-19)
(0.000800476 -1.779e-06 0)
(8.11854e-05 0.00060084 0)
(9.38043e-05 0.000270806 -3.31151e-23)
(0.000722132 -4.89778e-05 -1.66828e-23)
(0.00082886 6.90502e-05 1.52553e-19)
(0.00263487 0.00206939 -1.23121e-18)
(0.00176116 0.00923773 -1.17204e-19)
(0.00083298 7.90142e-05 4.91447e-19)
(0.00631501 0.00405487 -1.76308e-19)
(0.00672081 0.0115567 -1.36715e-20)
(0.00473386 0.00784347 4.93988e-21)
(0.000806842 1.42733e-05 -2.19446e-18)
(0.000845933 -2.26494e-06 8.89028e-24)
(2.775e-06 -3.59623e-06 -3.4788e-19)
(4.36632e-05 7.72007e-05 -3.49161e-19)
(5.95786e-05 0.000251888 8.75159e-19)
(7.12645e-06 1.15187e-05 4.90232e-19)
(9.00313e-05 0.000215707 3.69659e-19)
(0.000818064 1.3035e-05 0)
(0.00534835 0.00949244 1.94836e-20)
(0.00155226 0.000643631 -2.6113e-20)
(0.000818646 4.23465e-05 3.6005e-19)
(3.71015e-07 -6.16566e-05 0)
(0.00185 0.000749962 5.45878e-19)
(5.60023e-06 4.49586e-06 -2.70059e-19)
(2.7862e-05 2.21212e-05 9.71476e-20)
(0.00133757 0.00139943 6.36531e-19)
(0.000741013 4.97597e-05 1.83043e-19)
(-1.6164e-07 -1.45605e-07 -1.70139e-19)
(0.0020673 0.00156451 -1.05556e-18)
(0.000127201 0.000164104 -8.1854e-19)
(0.00392012 0.00848943 -1.09088e-18)
(1.75018e-06 5.49346e-07 8.81117e-20)
(7.93878e-05 -5.28647e-06 -1.25816e-18)
(2.39823e-05 -4.92903e-05 4.05491e-20)
(0.00153674 0.000990588 0)
(0.00104644 0.00014591 -3.96096e-22)
(0.000460508 0.000843134 -4.01989e-20)
(0.000803905 2.74739e-05 -2.33996e-19)
(8.67349e-05 0.000170859 7.35852e-19)
(9.50608e-06 -4.5233e-05 4.03838e-19)
(1.42866e-05 1.12242e-05 -9.46768e-20)
(2.6208e-05 7.83842e-05 -3.20183e-19)
(0.000213134 -0.000115017 -5.45774e-19)
(0.00325291 0.00347028 2.87892e-21)
)
;

boundaryField
{
    back
    {
        type            empty;
    }
    ingreso
    {
        type            fixedValue;
        value           uniform (0.0008 0 0);
    }
    salida
    {
        type            zeroGradient;
    }
    front
    {
        type            empty;
    }
    defaultFaces
    {
        type            noSlip;
    }
}


// ************************************************************************* //
