/*--------------------------------*- C++ -*----------------------------------*\
  =========                 |
  \\      /  F ield         | OpenFOAM: The Open Source CFD Toolbox
   \\    /   O peration     | Website:  https://openfoam.org
    \\  /    A nd           | Version:  7
     \\/     M anipulation  |
\*---------------------------------------------------------------------------*/
FoamFile
{
    version     2.0;
    format      ascii;
    class       surfaceScalarField;
    location    "115.5";
    object      phi;
}
// * * * * * * * * * * * * * * * * * * * * * * * * * * * * * * * * * * * * * //

dimensions      [0 3 -1 0 0 0 0];

internalField   nonuniform List<scalar> 
1111
(
7.24379e-09
1.28141e-08
-1.60676e-08
-3.99037e-09
7.1627e-09
-1.17532e-08
1.18343e-08
-1.4723e-08
5.96675e-09
8.69259e-09
6.36483e-11
1.04751e-09
-1.22128e-09
-1.44086e-08
1.45823e-08
-1.43764e-08
1.4225e-08
1.19892e-09
-1.60006e-09
1.49162e-08
2.11241e-09
-2.36907e-09
9.17773e-09
-8.96794e-09
2.15928e-09
-6.72431e-09
-1.26093e-08
1.25948e-08
6.73879e-09
-5.01609e-08
-2.61248e-08
7.62858e-08
-8.07446e-09
7.73865e-09
7.49851e-09
3.18523e-09
3.87006e-10
-3.26042e-09
-3.11817e-10
1.58663e-08
-1.62803e-08
-2.32735e-08
2.36875e-08
-9.66714e-09
-7.90155e-09
8.80297e-09
8.76571e-09
-3.56059e-08
1.77433e-08
-3.23936e-08
5.02562e-08
9.48947e-09
-1.95808e-09
-1.42557e-08
-1.4438e-10
1.13457e-09
-2.38456e-09
1.39437e-09
-3.97532e-09
1.32594e-08
1.97345e-09
-1.12575e-08
8.8065e-09
-2.71204e-09
-1.5065e-08
8.97054e-09
3.71324e-08
-2.97974e-08
-7.33502e-09
-1.93958e-08
2.45526e-10
1.722e-08
1.93024e-09
-1.08805e-09
4.2304e-09
-1.78286e-08
1.46863e-08
-6.12297e-08
-3.96106e-09
6.51907e-08
1.33426e-10
-1.05989e-09
-3.16483e-10
1.24295e-09
-1.82639e-09
-1.3638e-08
-4.68551e-11
-1.88807e-10
1.29139e-10
1.06524e-10
-1.04275e-08
-8.71019e-09
1.33335e-08
5.80423e-09
6.87035e-10
-2.14983e-09
-8.17638e-09
9.63917e-09
8.94227e-09
7.11226e-10
-1.00194e-08
3.65886e-10
-2.85839e-09
-8.16336e-09
1.12405e-08
-2.18764e-10
1.14171e-08
-1.10932e-09
-1.50127e-09
-7.1275e-10
7.28635e-10
-4.88692e-11
3.29847e-11
2.67828e-12
5.77248e-10
1.07886e-10
-6.87813e-10
-3.4596e-10
-4.11066e-11
3.76698e-10
1.03686e-11
-7.6477e-11
-6.59468e-10
1.18337e-10
6.17608e-10
-1.26439e-10
-6.62789e-10
1.04161e-09
-1.83454e-08
-2.09199e-09
-2.73495e-10
3.28662e-11
-1.05332e-10
1.33776e-08
-1.32484e-08
4.10125e-09
-3.20231e-10
4.98329e-10
2.87516e-10
-4.65614e-10
1.72171e-10
-9.21499e-10
8.20724e-10
-7.13969e-11
-1.73277e-09
1.07292e-08
-1.13655e-08
-1.84865e-10
-1.23083e-10
3.44527e-11
-8.69314e-09
1.07144e-08
-1.00957e-08
1.22995e-08
-1.71265e-08
4.47762e-09
3.49352e-10
3.65618e-11
-1.1526e-10
-1.06167e-10
1.08009e-10
6.83886e-10
-6.32614e-11
-5.94913e-08
7.42239e-08
-1.47326e-08
9.39775e-10
-1.59918e-10
-1.02829e-09
2.48433e-10
1.13014e-09
1.03084e-08
-1.37134e-08
2.27491e-09
-1.99935e-09
7.9745e-09
-8.90947e-09
2.93433e-09
-6.83335e-09
5.52144e-09
5.76354e-09
-4.45164e-09
-8.0039e-09
-1.34959e-09
1.48746e-09
7.86602e-09
-1.82965e-10
-9.09124e-08
9.12985e-08
-2.03137e-10
-2.57703e-10
-8.97486e-08
9.01589e-08
-1.52538e-10
8.3079e-08
-1.49128e-09
1.09912e-10
-8.16976e-08
-2.67112e-09
-6.34784e-10
5.38483e-10
7.68279e-10
-3.66987e-10
3.86017e-09
-7.23102e-10
3.61807e-09
-6.75514e-09
-8.4268e-10
7.9077e-10
-1.49065e-08
6.56735e-09
1.01106e-08
1.08563e-09
-1.08914e-08
-3.0487e-10
-6.01589e-09
1.37014e-08
8.32331e-10
-8.51789e-09
1.44018e-08
-4.63875e-09
3.8777e-09
-1.36408e-08
1.53828e-08
1.67169e-09
-1.62567e-09
-1.69845e-10
-2.00886e-08
-7.44832e-09
2.77068e-08
1.46609e-08
-8.95222e-09
-1.80777e-09
8.11354e-09
-1.23217e-08
7.69041e-11
-4.5702e-11
-1.05949e-09
-3.60775e-08
-2.34138e-08
8.38834e-09
3.38016e-10
3.57317e-09
-6.94355e-09
1.14237e-08
6.23419e-09
-5.17438e-10
2.60979e-10
4.18249e-10
-1.6179e-10
5.62694e-09
-4.86216e-09
3.71408e-09
-4.47887e-09
-3.31399e-10
-5.55929e-10
2.2786e-10
5.37563e-10
-4.60333e-10
6.54229e-11
-5.88861e-10
5.26116e-10
-1.83372e-08
2.36784e-09
1.62647e-09
1.43428e-08
1.6834e-10
-5.97102e-10
-8.8676e-11
-4.30306e-09
-1.52362e-08
1.2021e-09
5.63095e-09
1.21445e-08
-5.24568e-09
-1.25297e-08
1.6353e-08
7.74623e-10
-1.58142e-08
-1.31338e-09
-5.96411e-10
3.78142e-10
4.79248e-10
-1.72341e-10
7.29976e-11
9.9343e-11
-7.56841e-09
-3.42974e-09
4.1648e-09
-1.53161e-10
2.5046e-10
-9.72985e-11
9.92827e-10
-1.57234e-08
-6.92329e-10
1.02901e-08
-1.13305e-08
-8.14646e-10
-1.06918e-10
1.30301e-08
4.5086e-09
-4.22618e-09
-1.33126e-08
2.61418e-11
7.27447e-09
-8.07302e-09
6.31999e-09
-1.51663e-09
-9.23087e-09
8.38744e-09
2.36006e-09
-1.99549e-09
7.12931e-10
-1.39536e-08
-7.62598e-11
-7.6902e-11
5.19379e-10
5.10466e-10
-9.03374e-09
8.03194e-10
1.72508e-08
-1.701e-09
-1.17068e-08
1.31125e-08
-1.40572e-09
1.23249e-08
1.39093e-08
-1.54986e-08
-1.07356e-08
-4.13031e-10
7.97535e-10
-3.84503e-10
2.10393e-11
2.3732e-10
-2.58359e-10
-4.09491e-10
1.05713e-09
-6.47638e-10
1.17633e-09
-9.30959e-10
-2.45374e-10
-1.047e-08
1.05328e-09
9.41669e-09
1.7687e-09
-5.9237e-10
8.98611e-09
-1.54326e-08
8.12365e-09
-9.60362e-09
7.27898e-11
3.53301e-09
-4.20578e-10
-2.15571e-09
2.2285e-09
-6.302e-09
7.63917e-09
-1.33717e-09
-3.45949e-10
4.3319e-09
-1.25784e-10
1.72436e-08
-1.44767e-08
-1.63675e-09
-6.2969e-09
5.50106e-09
7.27365e-11
-1.62573e-10
5.61497e-09
-5.57216e-09
-4.28067e-11
6.78043e-09
4.61005e-09
-8.58794e-11
-1.58475e-08
1.05129e-08
1.76595e-08
5.86356e-09
8.19134e-09
8.14742e-09
-6.84761e-09
1.4774e-09
-1.19474e-08
-1.89293e-11
1.69652e-09
-1.30285e-08
2.6473e-09
-4.18803e-10
1.09036e-08
-1.0129e-08
-3.17654e-10
-6.23431e-10
-1.38412e-08
7.9361e-09
6.33819e-10
1.67737e-11
-8.87073e-09
4.93742e-09
-2.99672e-08
-1.25242e-08
-2.87406e-09
1.55709e-09
1.41483e-08
1.11409e-08
-1.0873e-08
-1.44161e-08
1.5338e-08
-3.20648e-09
-1.21315e-08
1.59099e-09
4.04803e-09
-7.7591e-10
-8.54835e-10
-7.57996e-10
1.03732e-09
5.75511e-10
-1.9523e-10
3.10703e-10
3.02776e-10
6.21481e-08
-6.21743e-08
2.62316e-11
6.20673e-08
-6.23717e-08
3.04369e-10
8.37635e-10
6.473e-08
-6.55573e-08
8.27352e-10
6.41218e-08
6.082e-10
-2.23619e-10
-6.65026e-08
9.45268e-10
-6.2064e-08
6.19292e-08
1.34736e-10
1.31429e-09
-6.78169e-08
-6.22237e-08
1.59756e-10
1.28429e-08
-4.55658e-10
1.07816e-09
-3.69553e-09
3.07302e-09
2.55814e-10
-1.1164e-09
8.00042e-10
-4.41144e-10
1.32871e-09
-1.53541e-09
6.47843e-10
1.30911e-09
-1.36062e-09
5.81303e-12
-2.6546e-11
-3.48577e-09
2.57044e-09
-1.79101e-09
2.70634e-09
-2.36943e-10
-2.65219e-09
2.43348e-09
-3.39278e-09
-5.92101e-09
5.44898e-10
-5.34615e-10
1.05927e-09
1.06948e-09
-6.38528e-09
7.82267e-09
3.17267e-09
1.97136e-08
-4.37559e-09
-6.29036e-10
2.71093e-10
9.02841e-10
-1.00576e-08
-2.60199e-08
5.19612e-09
-4.13856e-09
-3.21955e-09
2.16198e-09
7.94039e-11
2.64007e-11
2.70893e-10
-2.42757e-09
3.2466e-09
9.06459e-09
6.3374e-10
-5.78673e-11
2.01488e-09
-2.19395e-09
1.64042e-09
1.46988e-08
1.33588e-08
-2.69186e-08
3.27273e-08
6.30632e-09
-2.28651e-08
-1.03598e-08
1.85901e-08
-1.8083e-08
1.06337e-08
3.10598e-11
-2.85695e-10
-1.10599e-09
-1.58747e-09
-2.74779e-09
3.01605e-09
1.52329e-08
-6.58162e-10
-1.38618e-08
-1.02963e-09
-2.06643e-09
4.43865e-10
1.54954e-08
1.77936e-08
1.36852e-08
7.87043e-10
-1.7609e-09
-1.27114e-08
-1.34609e-09
5.98867e-09
1.26724e-08
-3.50681e-10
-9.3554e-10
-3.70516e-09
2.83705e-09
3.43855e-09
2.52493e-09
1.46354e-08
4.35995e-09
-1.44867e-08
1.82017e-08
-1.76675e-09
2.26716e-09
-3.23922e-09
1.9377e-09
-4.97399e-09
1.29081e-08
-1.19094e-08
-1.40586e-08
2.89622e-10
8.79501e-09
-1.746e-09
1.45722e-09
1.34806e-09
-8.67001e-09
6.82262e-10
-4.53649e-09
-5.98801e-09
1.21652e-08
-1.48472e-08
9.16718e-10
1.69689e-09
-2.20237e-09
1.69241e-08
-1.64186e-08
-1.18211e-09
1.42092e-08
3.15283e-09
-4.53596e-09
-1.40495e-08
7.61984e-09
-1.75219e-08
-8.18091e-09
6.996e-09
5.89721e-09
1.47269e-08
-1.02069e-08
2.98076e-09
9.58624e-09
9.77591e-09
3.91032e-09
-4.25986e-09
2.18742e-08
-1.93552e-08
5.10082e-09
-1.07854e-08
2.16945e-09
5.74523e-09
1.4083e-08
-4.34913e-10
1.28408e-08
-1.3588e-08
-1.94641e-09
1.43704e-09
-4.30708e-10
9.40074e-10
1.11305e-08
-6.35568e-09
7.36967e-09
-1.11787e-08
1.47892e-09
-4.73854e-09
1.15805e-08
-1.20877e-08
-7.59962e-09
9.29344e-09
9.43665e-09
1.30089e-08
4.70055e-10
-1.39139e-08
1.34445e-09
7.62352e-10
-1.12155e-08
-6.72078e-09
1.03367e-08
-1.22371e-09
2.50572e-09
-9.03409e-09
4.75138e-09
-5.38548e-09
1.17295e-08
-3.45373e-09
-1.19588e-08
3.68309e-09
-4.44686e-09
1.14378e-08
1.71053e-09
1.09113e-09
-5.09642e-09
-1.79565e-08
1.06077e-08
1.24452e-08
6.79596e-10
-1.11569e-08
-1.01023e-08
1.61627e-08
1.27372e-08
2.89821e-09
-9.89017e-09
-1.3362e-08
-3.20255e-10
-1.27545e-08
1.79064e-10
-7.71214e-10
1.18327e-08
1.25565e-08
-8.23609e-09
1.67929e-08
-1.61402e-08
3.70719e-09
-5.38707e-10
1.83121e-09
1.30503e-08
-3.94501e-09
-1.28109e-08
-4.89392e-09
2.02734e-09
4.5631e-09
1.24833e-08
-7.23705e-09
1.03191e-09
-1.70503e-09
2.47153e-10
-4.88531e-10
6.01038e-09
2.64975e-08
1.0055e-10
-8.91149e-09
8.81094e-09
2.87151e-08
-2.24591e-08
2.2136e-08
1.98569e-08
-1.27168e-08
-2.75041e-09
1.51928e-08
1.30696e-10
-1.2149e-08
-4.74813e-10
-5.99065e-09
-1.81406e-09
2.11929e-09
1.4053e-09
-6.08292e-10
-1.12318e-08
1.17077e-08
1.32415e-10
2.88915e-09
-4.84874e-09
-1.13059e-08
1.08329e-08
-9.46365e-10
-1.10035e-08
-3.19955e-10
-1.15178e-08
-2.35476e-09
-1.2172e-08
2.12649e-09
7.87014e-09
5.16825e-09
-6.53725e-10
-1.18285e-08
1.18739e-08
5.23123e-10
-8.98588e-09
5.07766e-09
-1.62222e-09
2.01083e-09
-1.68852e-09
-1.30687e-08
-1.23064e-08
1.17532e-08
-1.0128e-08
-1.58471e-08
1.01276e-08
9.31772e-09
7.72668e-10
2.78995e-09
-1.17014e-08
1.1649e-08
1.66255e-09
3.84696e-09
2.448e-10
-4.20113e-10
-1.56086e-10
-4.16749e-09
2.43744e-09
-3.36389e-10
1.23026e-10
-1.45488e-10
2.24625e-11
-2.74097e-09
1.32162e-08
2.26195e-09
2.51258e-09
4.68349e-10
-1.18581e-09
-6.87354e-10
-2.17284e-09
-1.18959e-10
1.31732e-08
1.0233e-08
-2.68352e-10
6.67572e-09
-1.25891e-09
-5.14846e-09
-9.88323e-09
-5.17503e-09
9.17237e-11
3.13016e-11
4.8395e-09
1.37644e-09
-1.73728e-08
-2.35487e-10
-6.71124e-10
-2.77442e-09
1.03069e-09
3.29772e-09
6.19508e-08
-8.56979e-11
-6.18651e-08
6.23747e-08
1.88611e-10
-6.25633e-08
-1.40923e-08
-4.02162e-10
1.44162e-08
7.83204e-11
3.30354e-09
-1.66048e-09
2.36578e-09
1.80042e-09
-4.58057e-09
-1.8961e-10
-4.55424e-10
3.70225e-10
-7.65906e-11
3.37806e-10
-2.1609e-10
1.98321e-08
9.88863e-10
-1.59815e-08
-7.83521e-11
-1.95462e-09
1.26963e-08
2.30869e-09
1.8329e-09
5.34203e-09
-2.14793e-09
-7.72313e-08
-2.41785e-08
-5.09649e-09
1.58371e-08
2.51886e-09
2.17101e-10
-2.72633e-09
-9.24711e-10
1.52874e-10
-1.63703e-10
-9.41072e-09
-3.73797e-10
9.78452e-09
-1.09662e-08
-6.54109e-09
1.07865e-08
-9.57057e-09
8.72782e-09
3.41973e-10
1.31217e-09
8.99883e-09
-9.01453e-09
1.5705e-11
5.19384e-10
8.78097e-11
1.10166e-08
3.71141e-10
-5.97354e-10
1.46158e-11
-1.42603e-08
-4.11898e-10
-1.39009e-08
1.28489e-08
-1.19469e-08
-6.60361e-08
6.49943e-08
1.04181e-09
1.67146e-10
-1.40745e-10
1.21912e-08
-1.50221e-10
4.73218e-12
-2.1577e-09
2.74499e-09
-3.39942e-09
-1.34652e-08
-1.62718e-09
2.57929e-09
-4.61786e-09
-1.42275e-08
1.47258e-09
5.51903e-09
9.79166e-09
-9.16374e-09
-1.70362e-10
2.01408e-11
-9.26848e-09
-1.35431e-08
1.50934e-10
-6.26909e-08
2.35553e-10
6.24553e-08
6.95473e-10
6.34263e-08
-2.23534e-10
-1.71917e-09
-1.45158e-08
1.07424e-10
-6.34103e-08
6.33029e-08
1.8527e-10
-6.29517e-08
6.27664e-08
2.67676e-10
6.17968e-08
1.50547e-10
-6.19473e-08
6.16279e-08
1.68882e-10
-8.78886e-08
8.84977e-08
-8.90714e-13
9.33921e-08
-9.30986e-08
-2.67276e-10
-8.66282e-08
-4.33045e-10
9.33511e-08
-1.82656e-10
-8.49156e-08
-7.67346e-10
9.34817e-08
1.73765e-10
-5.22357e-10
1.96171e-09
9.23577e-08
-6.93082e-08
6.21383e-08
-6.23213e-08
-6.29486e-08
6.14855e-08
1.42413e-10
-3.19136e-09
2.97577e-09
-1.42712e-08
3.6208e-11
5.55154e-11
9.1452e-10
8.67968e-09
-1.13917e-08
3.83484e-08
-3.45818e-08
-1.67951e-08
1.38285e-08
-2.47175e-11
-1.86915e-10
9.74499e-11
4.67503e-10
-1.02459e-10
2.77453e-10
4.35364e-09
1.06562e-09
-3.48155e-09
-9.75117e-11
1.30378e-10
-6.30594e-11
-2.62428e-09
1.33655e-08
2.47496e-09
-1.44172e-08
-2.62022e-09
-3.19321e-09
5.45788e-09
1.05774e-09
-2.59386e-09
1.4416e-08
-1.21449e-09
-1.30222e-09
1.14522e-09
-8.14907e-09
-1.90916e-08
-1.35451e-08
8.08831e-09
5.74646e-09
-1.60137e-10
-5.84835e-10
2.86426e-09
1.45021e-08
2.29523e-09
-1.88113e-09
-3.3727e-10
3.87458e-10
-2.1276e-10
1.58713e-08
-6.16935e-10
-1.56281e-08
6.53036e-10
2.59712e-10
3.44439e-10
-2.87412e-10
3.33712e-09
-1.60844e-08
3.75626e-10
-1.42139e-09
-1.99916e-09
-2.26875e-09
1.58376e-08
-9.05931e-08
-1.34057e-10
9.16781e-08
-1.90954e-10
-8.91635e-08
-4.77738e-10
9.31013e-08
-2.75212e-10
-9.29117e-08
-5.21069e-10
-1.49269e-09
1.69464e-08
9.19795e-08
-1.98631e-10
2.9705e-11
-2.20862e-10
9.61262e-09
2.33521e-09
-6.99923e-09
-1.23496e-08
-5.67499e-09
8.3531e-09
1.54347e-09
-6.7239e-09
-5.96914e-09
9.06876e-09
-2.64978e-11
1.01136e-08
1.94956e-08
-1.79823e-08
3.09165e-09
-1.28576e-08
3.13838e-09
-6.99574e-08
3.92124e-09
-2.05973e-08
-1.30359e-08
-4.26145e-10
-5.91373e-09
-1.53202e-08
9.08494e-09
-1.50511e-08
3.55641e-10
3.01512e-10
-1.97132e-09
-1.68238e-08
1.72073e-08
6.93558e-09
-7.57036e-09
-4.21725e-09
1.53668e-08
-1.69645e-09
7.45715e-10
-6.6493e-10
-9.81105e-12
1.19636e-08
3.31271e-09
7.09112e-08
-1.82335e-08
6.19265e-10
-1.51282e-08
-2.03021e-10
-2.31548e-10
-1.64737e-10
6.09481e-08
-6.12233e-08
-6.33806e-08
-6.31503e-08
-6.41892e-11
-2.62213e-10
-9.25853e-08
-6.04511e-08
6.24128e-08
6.51042e-08
-6.02773e-08
6.45819e-08
-6.046e-08
6.38145e-08
-6.07272e-08
6.33815e-08
9.23082e-08
2.30354e-10
-6.32838e-09
7.51316e-08
-6.54905e-08
1.80886e-11
-1.80886e-11
-1.74772e-10
-2.9047e-10
1.54733e-08
4.1533e-12
-4.1533e-12
2.60849e-10
1.51232e-09
1.39165e-08
1.34927e-08
-2.7002e-09
3.71161e-09
6.75535e-09
1.6719e-09
3.22497e-10
-2.14817e-10
-2.95554e-09
1.45669e-08
1.48408e-08
-4.29385e-09
1.18211e-08
1.46822e-10
1.19739e-10
2.62089e-09
-7.26941e-10
-1.4291e-09
-5.85993e-09
-1.84313e-10
-3.55878e-10
1.53147e-08
2.02212e-10
3.02949e-11
1.41541e-08
-2.62924e-08
1.79098e-08
2.7215e-09
1.16187e-09
2.5003e-09
-3.72285e-09
1.94503e-08
-1.82278e-08
-5.81718e-11
-1.02566e-10
-1.44125e-09
-7.92146e-08
-7.07494e-08
1.1698e-09
-2.42345e-10
5.85064e-10
2.30161e-08
1.86154e-08
-6.46105e-09
7.89999e-11
-4.16972e-09
-2.52476e-09
2.99669e-08
1.61757e-10
1.48185e-08
7.35781e-08
3.06513e-11
4.95122e-10
-1.26076e-10
-1.82374e-10
-3.52468e-09
2.43722e-08
-1.48672e-08
8.24886e-10
-1.421e-08
-3.74262e-11
2.04112e-08
-2.87776e-08
9.72235e-10
1.79826e-09
-1.27261e-10
)
;

boundaryField
{
    back
    {
        type            empty;
        value           nonuniform 0();
    }
    ingreso
    {
        type            calculated;
        value           nonuniform List<scalar> 
14
(
-1.54286e-08
-1.54288e-08
-1.54288e-08
-1.54288e-08
-1.54286e-08
-1.54283e-08
-1.54288e-08
-1.54288e-08
-1.54286e-08
-1.54286e-08
-1.54288e-08
-1.5428e-08
-1.5428e-08
-1.54286e-08
)
;
    }
    salida
    {
        type            calculated;
        value           nonuniform List<scalar> 2(1.0141e-07 1.1459e-07);
    }
    front
    {
        type            empty;
        value           nonuniform 0();
    }
    defaultFaces
    {
        type            calculated;
        value           uniform 0;
    }
}


// ************************************************************************* //
