/*--------------------------------*- C++ -*----------------------------------*\
  =========                 |
  \\      /  F ield         | OpenFOAM: The Open Source CFD Toolbox
   \\    /   O peration     | Website:  https://openfoam.org
    \\  /    A nd           | Version:  7
     \\/     M anipulation  |
\*---------------------------------------------------------------------------*/
FoamFile
{
    version     2.0;
    format      ascii;
    class       volVectorField;
    location    "115.5";
    object      U;
}
// * * * * * * * * * * * * * * * * * * * * * * * * * * * * * * * * * * * * * //

dimensions      [0 1 -1 0 0 0 0];

internalField   nonuniform List<vector> 
591
(
(0.000840393 4.31997e-06 1.21569e-18)
(0.000838332 4.65542e-06 -6.60456e-19)
(0.000850509 3.02421e-05 5.69074e-20)
(0.000869593 -3.21139e-05 -1.49005e-19)
(0.000859138 -1.54382e-05 2.25426e-19)
(0.000803695 -3.73081e-05 -1.39558e-19)
(0.000554338 -0.000195887 8.06482e-19)
(0.000803438 4.06336e-06 2.10758e-18)
(0.00571996 0.00251228 9.87979e-19)
(0.000824276 8.91262e-06 2.43341e-18)
(4.48275e-05 0.000155171 1.21777e-18)
(0.000939922 0.00140062 9.40635e-21)
(0.000801543 4.46836e-06 1.32317e-18)
(0.00160595 0.00240633 -7.8736e-19)
(0.000803215 1.44665e-06 -4.468e-19)
(3.26757e-05 -0.000120137 2.48077e-22)
(0.000142056 0.000662771 7.04747e-19)
(0.000818291 8.27857e-05 -4.97575e-19)
(0.00189177 0.000392993 4.73741e-19)
(0.0013572 0.000260947 -2.47107e-19)
(0.000829561 -8.92649e-06 3.73048e-19)
(0.00340087 0.00656046 -8.14147e-20)
(2.12441e-05 5.99518e-05 2.70835e-19)
(0.000835146 -2.70364e-05 -4.51545e-19)
(3.99296e-06 -8.75467e-06 3.58754e-19)
(0.000799958 5.00862e-05 0)
(9.55214e-05 0.00046246 1.59919e-19)
(0.000591379 -6.55317e-06 -1.78751e-19)
(0.000773928 5.02137e-05 1.14894e-18)
(0.000804243 7.59742e-05 5.84684e-19)
(4.42894e-05 -6.53925e-06 -5.56935e-24)
(1.55079e-05 -3.46436e-05 3.52015e-19)
(2.35583e-05 -2.31752e-06 -4.64013e-20)
(3.31712e-05 -1.225e-05 0)
(4.1175e-05 -1.27564e-05 1.13094e-18)
(0.00116728 0.00014352 1.79794e-19)
(1.95319e-05 -3.60128e-06 4.46945e-20)
(0.000823111 1.08105e-06 3.06349e-23)
(2.10098e-05 3.53176e-05 2.65914e-19)
(-1.96609e-05 -4.03053e-05 -8.53742e-19)
(0.000664472 -0.000173907 9.58734e-19)
(1.46522e-05 -4.01719e-06 4.5462e-20)
(0.000820339 2.82401e-05 -1.57328e-18)
(0.000831181 5.21852e-05 -6.90499e-19)
(9.06455e-06 -4.3004e-06 0)
(4.39101e-05 2.15711e-06 8.51496e-20)
(0.00135133 0.00450182 8.92723e-19)
(6.30879e-05 7.01343e-06 8.63252e-20)
(0.000803244 1.78014e-05 0)
(0.000399364 -0.000235573 6.76767e-19)
(0.000394574 0.00026179 5.1173e-21)
(0.000411133 2.18872e-05 -1.00333e-18)
(0.00634764 0.01094 -7.68687e-19)
(0.00622456 0.0107952 1.52876e-20)
(0.00561482 0.0103781 1.45592e-18)
(0.000804153 5.56994e-05 0)
(5.73073e-05 2.17567e-05 0)
(0.00032359 -2.17819e-05 3.45094e-23)
(5.13574e-05 4.27411e-06 -3.46308e-19)
(0.000811657 -6.31273e-06 0)
(0.000678912 2.77346e-05 3.17409e-19)
(0.000851368 3.6765e-05 2.20842e-18)
(0.000815343 4.26329e-05 -5.42715e-19)
(0.00079997 1.08915e-05 -3.15625e-19)
(0.00171359 0.000486963 5.42305e-19)
(0.000816518 3.84395e-05 -1.14387e-18)
(0.000843191 4.369e-05 -5.22593e-19)
(6.38041e-05 -1.01439e-05 -1.73335e-19)
(0.000691955 0.00225438 0)
(0.000847478 5.29961e-05 0)
(0.000799639 3.54075e-05 -1.39163e-18)
(3.07183e-05 1.15436e-05 0)
(0.000295583 0.000257956 3.26733e-19)
(2.73243e-05 -1.42292e-05 0)
(2.98138e-05 -5.29983e-06 1.59403e-19)
(1.47073e-06 -2.84333e-05 -3.36506e-20)
(0.000809923 7.97906e-05 2.46807e-19)
(3.54944e-05 6.76727e-06 0)
(0.000817913 5.68536e-05 4.47029e-19)
(0.000786108 0.00029828 2.10639e-19)
(0.000958336 7.19265e-05 -3.97474e-20)
(3.52885e-05 1.70334e-05 -4.51665e-20)
(2.20054e-06 -6.07077e-06 0)
(0.000448644 0.000207006 1.70119e-19)
(2.5221e-06 1.31127e-05 0)
(0.000810351 5.38505e-05 -6.08456e-19)
(0.000668032 -0.000109199 0)
(5.10942e-05 -6.68462e-06 -1.74403e-19)
(-9.95719e-08 -9.542e-06 0)
(0.000840872 0.00024591 -3.41106e-19)
(1.11464e-06 -2.948e-06 0)
(0.00043862 0.000316303 -1.37375e-23)
(0.000555244 0.000104424 0)
(0.000819723 4.62165e-05 -3.22755e-24)
(1.87329e-06 7.41278e-06 -4.21528e-20)
(0.000486806 -3.82488e-05 1.76267e-18)
(0.0010144 7.64117e-05 4.15658e-20)
(0.000763183 4.88546e-05 6.41829e-22)
(0.000752335 0.000661426 2.69396e-19)
(6.79861e-06 3.35777e-05 0)
(-8.33746e-06 -3.67892e-07 -3.12165e-19)
(-3.5767e-05 2.0196e-05 -1.10079e-18)
(5.42269e-06 5.74778e-05 -5.96115e-19)
(0.000585133 -3.29306e-05 0)
(9.53556e-06 7.9998e-05 0)
(0.000824065 3.89926e-05 2.18042e-18)
(0.000807778 4.49782e-05 1.53364e-18)
(0.000467127 -0.000130167 0)
(3.78743e-05 0.000200422 -8.94981e-19)
(2.12576e-06 0.000141856 4.96824e-19)
(5.39673e-05 0.000380712 6.25061e-19)
(0.000315241 5.43704e-05 -9.36863e-19)
(0.000801803 2.00363e-05 1.37358e-19)
(0.000253368 -9.07614e-05 5.30978e-19)
(4.04906e-06 2.04097e-05 0)
(1.80914e-05 0.000259226 -1.09392e-18)
(0.000329748 0.000314358 -1.61649e-19)
(-2.45065e-06 -7.11151e-07 1.4653e-19)
(0.000672211 0.000799354 0)
(0.000379046 0.000375871 5.74214e-20)
(0.000830867 3.64533e-05 1.07014e-18)
(0.000799721 1.87423e-06 -2.72556e-18)
(3.20091e-06 3.19395e-05 0)
(0.000657099 -4.47833e-05 -1.1226e-19)
(0.000326068 -0.000169782 1.24255e-18)
(0.00261261 0.000811221 -3.36537e-19)
(9.3124e-06 0.0001086 -6.13083e-19)
(1.0124e-05 0.000136943 1.61954e-18)
(0.000632795 2.68974e-05 -3.89623e-20)
(4.77752e-05 -1.79057e-05 -7.4983e-19)
(0.000815227 4.36166e-05 -3.916e-19)
(0.000685157 2.86402e-05 -4.10496e-20)
(3.01765e-05 0.000307312 -5.97046e-19)
(0.000516945 4.29215e-05 -4.93724e-19)
(3.65807e-05 -4.96913e-06 1.56082e-19)
(0.000845443 4.71542e-05 -1.0812e-18)
(0.0015238 0.00023736 -1.13638e-18)
(5.55075e-06 4.59541e-05 4.96216e-19)
(0.000814975 3.92672e-05 -5.03284e-19)
(0.000929326 0.000560369 -7.84787e-20)
(0.000151215 0.000774198 0)
(0.000615809 5.99364e-05 0)
(0.000280323 2.9377e-05 -1.60877e-18)
(5.59267e-05 4.77777e-05 -1.37351e-18)
(2.45664e-05 1.55262e-05 0)
(0.00424802 0.0074016 -1.0197e-20)
(0.0042261 0.00737309 3.16738e-20)
(0.00442827 0.0075758 -4.99738e-21)
(0.00420516 0.00773325 0)
(0.00419758 0.00759917 5.77285e-19)
(0.00424497 0.0074026 -9.20538e-20)
(0.00420903 0.00804054 4.84535e-19)
(0.00429068 0.00742412 0)
(0.00420759 0.00853312 6.16845e-19)
(0.00432719 0.00745278 2.2397e-19)
(0.000842657 3.08557e-05 -1.37108e-18)
(0.000793062 6.73126e-05 0)
(0.000208384 2.73846e-05 1.27654e-19)
(4.08872e-05 1.01021e-05 8.71464e-20)
(6.8804e-05 3.31541e-05 6.79731e-19)
(9.4298e-05 2.63614e-05 -3.41523e-19)
(8.41308e-05 -6.83587e-06 0)
(3.74951e-05 1.52982e-06 8.18006e-20)
(0.000209036 0.00011181 0)
(0.000155876 1.77145e-05 -5.24124e-20)
(0.000351653 0.00020854 -5.09076e-21)
(4.80591e-05 3.36535e-05 -4.37466e-19)
(7.89046e-05 1.46777e-05 -8.52106e-20)
(8.20006e-05 4.83349e-05 1.3114e-21)
(0.000265468 0.000354778 -6.65955e-19)
(0.000111935 0.000988328 0)
(3.62094e-05 4.32428e-05 3.42916e-19)
(0.000200171 0.00173618 0)
(0.000209937 0.00023947 7.04416e-19)
(2.58187e-05 -2.57034e-06 1.11445e-19)
(0.000502007 0.00015563 -1.72236e-19)
(0.000786608 3.57177e-05 -1.92261e-18)
(3.19976e-05 -2.05541e-06 5.04479e-24)
(0.000134348 4.77948e-06 2.245e-19)
(0.000248189 6.98203e-05 -8.9897e-20)
(0.000885938 0.000693966 3.34826e-19)
(0.000723502 0.00163458 -9.23297e-21)
(0.000392209 0.00141685 -9.37901e-21)
(0.0010356 0.000552109 0)
(8.13021e-05 -2.46653e-05 1.11824e-18)
(0.000100563 -2.12337e-06 -4.42736e-20)
(0.00048009 -0.000250959 -1.13609e-18)
(0.000829293 4.42111e-05 0)
(0.00016969 -2.94848e-05 3.6317e-19)
(0.000309088 0.00129572 0)
(0.00109068 0.000772052 -7.2994e-20)
(0.000825996 2.42928e-05 -1.86467e-19)
(5.75746e-05 -2.57046e-05 -2.99844e-19)
(0.000847343 0.000313791 -2.07958e-20)
(3.69971e-05 -2.08526e-05 -5.99211e-19)
(0.000229387 0.000157457 8.63572e-20)
(0.000233435 0.000299101 -3.44891e-19)
(0.000905114 0.00025663 0)
(0.000833004 6.0579e-05 0)
(0.0002697 0.000111922 1.76781e-19)
(0.000230046 -3.26795e-05 1.04603e-23)
(0.000185915 0.000190807 0)
(0.000309343 0.000640568 -5.55484e-21)
(0.000372494 -4.95371e-05 0)
(0.000383906 0.000598385 0)
(0.000100754 6.65866e-05 -1.34614e-21)
(0.000809875 2.9261e-05 -9.53995e-19)
(0.000805018 1.63471e-05 7.86662e-19)
(0.000119423 3.94941e-05 -1.49794e-19)
(0.000982543 0.000146836 8.49958e-20)
(0.000842166 3.43721e-05 3.33398e-19)
(0.00082457 3.9349e-05 -2.93997e-19)
(0.00103926 0.000422968 0)
(0.000457044 0.000100099 6.24163e-19)
(0.000924139 0.000326243 2.09048e-20)
(0.000602668 0.000147775 0)
(0.000278906 0.000439263 4.09512e-19)
(0.000264642 0.000201435 -8.43879e-20)
(0.00111171 0.000387715 -7.81747e-19)
(0.000651805 0.00010266 -1.79209e-19)
(0.000829526 8.01453e-05 -7.45707e-21)
(0.000847664 1.89531e-05 9.38549e-20)
(3.54678e-05 -8.29346e-05 -1.98055e-18)
(0.000749528 0.000379242 2.19153e-19)
(0.000698143 7.20689e-05 2.30547e-20)
(0.000723037 0.000278401 1.6327e-23)
(0.000745792 0.000463022 -4.09513e-19)
(0.000858314 9.30579e-06 9.06498e-20)
(6.52964e-05 6.59396e-05 0)
(0.000667058 0.000426622 -4.65747e-20)
(0.000180108 7.40889e-05 0)
(0.000374765 0.000500201 -2.64755e-19)
(0.00031536 0.000149049 0)
(0.000693998 0.000204843 3.5507e-19)
(0.000667124 0.000259298 -4.37068e-20)
(7.75043e-05 9.14647e-05 6.18897e-19)
(0.000893613 9.79075e-05 -1.63635e-18)
(4.78375e-05 1.47954e-05 2.57079e-19)
(0.000906409 7.32087e-05 -1.68573e-18)
(0.000855866 9.19668e-05 1.63013e-19)
(0.000817937 3.97377e-05 1.93104e-18)
(0.000822728 3.10553e-05 -1.3262e-19)
(0.000754603 7.03536e-05 0)
(0.000804865 1.85958e-05 9.00374e-19)
(0.000979725 0.000242912 -4.269e-19)
(0.000799066 0.000104004 -4.83521e-19)
(0.000787498 0.000239724 -8.80825e-20)
(0.000184538 -0.000208159 -2.07393e-18)
(0.00077538 8.55701e-05 8.87135e-19)
(0.000647627 0.000589389 0)
(3.77021e-05 -0.000123002 0)
(0.00123408 0.00048048 4.97145e-19)
(0.000511123 -4.89752e-05 -3.27114e-18)
(0.00135998 0.000422235 5.76207e-19)
(0.00125817 0.000723313 -6.38844e-20)
(0.000818371 3.60962e-05 -2.12651e-19)
(0.000847286 6.55457e-05 -1.42712e-18)
(0.000812914 2.65128e-05 1.58424e-18)
(0.000812993 1.8135e-05 9.76295e-20)
(0.000680721 0.000352624 -4.40227e-20)
(9.68958e-05 0.000106396 1.12208e-23)
(0.000775056 -2.18328e-05 2.648e-19)
(0.000201162 -0.000247288 -7.33737e-19)
(0.00065214 0.000180207 0)
(0.000737544 5.21491e-05 9.89909e-20)
(0.000735501 1.11899e-05 -3.80628e-19)
(0.000402996 0.000156429 3.93208e-20)
(0.00081714 0.000510482 -1.65413e-19)
(0.000141639 5.59838e-05 4.74625e-25)
(0.000827087 0.000411585 0)
(0.000996947 0.000316197 4.15582e-20)
(0.000775928 -4.93594e-05 -6.1568e-19)
(0.000361624 8.33112e-05 4.97646e-19)
(0.000908705 0.000426921 0)
(4.11087e-05 2.38759e-05 1.33652e-19)
(0.000502919 0.000256946 2.13866e-19)
(0.000568064 -0.000177254 -7.09018e-19)
(7.05653e-05 -0.000177381 -1.05604e-18)
(0.000827413 4.50006e-05 -4.86453e-19)
(0.000751418 -4.66135e-05 -1.94689e-19)
(0.00055743 0.000727009 -1.17382e-18)
(0.000858816 4.31119e-05 -6.7296e-20)
(0.000530339 -2.98454e-06 1.28314e-18)
(0.000727866 9.92073e-05 2.27671e-20)
(0.000553272 0.000199885 -1.6562e-19)
(1.86164e-05 -1.63955e-05 -8.75466e-20)
(0.000135907 -7.26256e-05 2.40486e-18)
(8.92799e-06 4.22085e-07 -1.9478e-19)
(0.000852185 0.000121378 3.6358e-19)
(0.000693255 0.000134168 0)
(0.00015696 -0.000128564 -1.04778e-18)
(0.000102719 -3.43761e-05 3.12622e-19)
(7.95905e-05 -4.49198e-05 9.48155e-24)
(0.000819935 0.0001073 -3.19119e-19)
(0.000137065 -3.2372e-05 0)
(0.000606585 0.000235017 0)
(0.000111337 0.000316082 -3.62726e-19)
(0.000874962 0.000102335 2.10702e-18)
(7.2414e-06 4.89485e-07 0)
(0.00089533 4.93377e-05 0)
(2.8931e-05 -2.34756e-05 0)
(0.000815135 4.90947e-05 -4.46604e-21)
(0.000776307 -1.61796e-05 0)
(0.00426112 0.00740838 8.07251e-20)
(0.00436306 0.0074888 1.43656e-19)
(0.000841569 -2.67443e-05 0)
(0.000805505 -2.19109e-05 8.11033e-19)
(0.00015043 0.000107519 1.49152e-19)
(0.000869079 6.55763e-05 8.08329e-19)
(0.000124099 8.53504e-05 2.34299e-20)
(0.000801985 -1.09873e-05 6.23263e-19)
(2.73838e-05 6.59465e-06 0)
(1.78813e-05 -9.66677e-06 -4.48278e-20)
(0.000913712 4.5019e-05 -4.86324e-19)
(1.85468e-05 -2.48651e-05 -6.69503e-19)
(0.000779805 0.000130486 -4.2304e-20)
(0.000169884 0.000145121 -1.88029e-19)
(0.000812333 3.31807e-05 0)
(0.00468252 0.0081535 9.00729e-22)
(0.000201382 0.000791455 3.3334e-19)
(8.23389e-05 -7.35438e-05 -9.14116e-19)
(4.1361e-05 -3.38344e-05 -1.16829e-18)
(0.000561572 1.27643e-05 1.89357e-20)
(0.000589555 0.000400831 0)
(0.000429952 0.000446273 -2.56239e-19)
(5.19139e-05 -6.6089e-05 1.18325e-18)
(0.000527924 -2.99121e-06 7.66893e-20)
(3.26169e-05 3.0393e-07 4.06909e-19)
(0.000738561 -3.42788e-05 1.17101e-18)
(0.00081244 3.18111e-05 -6.06017e-19)
(3.69452e-05 -5.19544e-05 1.70884e-18)
(0.000840372 -5.24861e-05 -6.70629e-24)
(0.000539128 5.46104e-06 -3.74143e-20)
(0.000884507 7.17538e-05 0)
(0.000848397 5.98965e-05 0)
(0.0059142 0.00724395 2.60055e-19)
(8.81125e-06 -3.26684e-06 -1.19551e-19)
(7.21094e-05 -0.000123461 7.72753e-19)
(0.000749131 0.000113819 -6.96105e-19)
(1.11647e-05 3.807e-07 2.01479e-19)
(0.00067353 -3.40209e-05 -7.23439e-19)
(0.000765376 3.70163e-05 1.55729e-18)
(0.000725095 0.00015492 -3.55279e-19)
(0.0008071 -1.07809e-05 3.60601e-19)
(5.29924e-05 -3.841e-05 1.11548e-18)
(0.000802275 6.74357e-06 -3.22439e-19)
(0.000881321 3.06465e-05 0)
(0.000558918 0.00029913 4.20844e-20)
(0.000873419 4.60499e-05 -9.47441e-19)
(9.67515e-06 3.03645e-06 9.11293e-19)
(0.000866615 3.60186e-05 9.65638e-19)
(0.000866683 3.61698e-05 -9.63647e-19)
(0.000774982 6.53759e-06 -5.68886e-19)
(0.000570969 -8.96744e-05 -5.25379e-19)
(0.00433011 0.00745496 2.47597e-19)
(0.00422171 0.00752802 -2.78912e-19)
(0.00422002 0.00758568 2.668e-19)
(0.00425674 0.00741209 1.98035e-19)
(0.000845176 -4.15537e-05 1.44203e-19)
(0.00447701 0.00751552 0)
(0.00440444 0.00751944 -3.86976e-19)
(1.62593e-05 -1.83919e-07 -9.97803e-19)
(0.00416967 0.00746818 -6.33815e-20)
(0.00414519 0.00743145 -2.21571e-19)
(0.00602931 0.0106047 0)
(0.00654024 0.0111866 3.71629e-20)
(0.00600924 0.0105744 0)
(0.00655593 0.0112102 1.31e-19)
(0.00599674 0.0105985 2.69683e-19)
(0.00659263 0.0112271 1.24773e-20)
(0.00593568 0.010611 -7.76812e-19)
(0.00662291 0.0111461 8.17063e-21)
(0.00390348 0.00919681 -1.90793e-19)
(0.00418586 0.0074874 3.8753e-21)
(0.00423667 0.00755089 7.93784e-20)
(0.00414968 0.00743375 4.12149e-20)
(0.000903673 0.000198997 4.46526e-20)
(4.85928e-06 6.52011e-07 0)
(0.000739274 -8.74408e-05 0)
(0.000656974 5.94604e-05 0)
(0.00244849 0.00111979 4.23921e-21)
(0.000759394 -2.95489e-05 1.72495e-19)
(3.16227e-05 3.36652e-06 4.53855e-20)
(2.74315e-06 -1.73114e-05 1.65221e-18)
(0.000870082 -1.91666e-06 0)
(2.18292e-05 9.1896e-06 -1.91643e-19)
(0.000138976 0.000210047 0)
(7.2075e-06 -6.77797e-07 0)
(5.21933e-06 -6.29255e-07 0)
(0.000846552 0.000152979 1.13729e-20)
(0.000810938 -1.7058e-05 1.7955e-19)
(3.92178e-05 0.000247039 -6.10522e-24)
(0.000155781 0.000261562 -1.84128e-18)
(0.000619376 0.00032459 -8.56666e-20)
(0.000909192 0.000118493 6.01281e-19)
(0.000558002 -0.000114952 6.75473e-19)
(0.000359225 0.00111989 0)
(0.000485816 0.000575199 2.71441e-18)
(8.69543e-05 0.000132026 -1.80244e-18)
(1.02033e-05 -4.33284e-07 0)
(0.000823275 -6.49305e-05 3.64016e-20)
(1.21422e-05 2.7946e-05 1.64379e-18)
(0.000889864 3.69375e-05 2.70991e-19)
(-2.88519e-05 0.000108116 3.80682e-18)
(0.000921725 4.32712e-05 -2.68857e-19)
(0.00132732 0.000160821 7.47365e-19)
(2.41553e-05 -8.67268e-06 8.2534e-20)
(2.6053e-05 1.32042e-06 -8.5873e-19)
(5.05125e-05 0.000128317 0)
(0.000926757 9.33091e-05 5.98181e-19)
(0.000504191 0.000364719 2.37059e-19)
(0.000586388 1.69253e-05 -3.88863e-20)
(0.000796468 1.47937e-05 2.57048e-19)
(0.000722849 -0.000112188 0)
(0.00632038 0.0108953 -1.68169e-19)
(0.00637873 0.0109727 4.05942e-19)
(0.00616013 0.0107297 -6.18526e-19)
(0.00650125 0.0111318 -8.10095e-20)
(2.99436e-05 0.000106378 8.00191e-19)
(0.000935221 6.2653e-05 1.4389e-22)
(0.00641134 0.0110052 -3.86564e-19)
(0.00628144 0.0108451 5.48419e-19)
(0.00608017 0.0106715 -4.16817e-19)
(0.00652177 0.0111643 -6.81679e-20)
(7.77585e-05 0.000480319 -2.01768e-20)
(2.73906e-05 -0.000177962 -7.92753e-19)
(0.000620022 -1.77534e-05 -7.67285e-19)
(0.000738079 0.000219322 0)
(0.000800293 3.14978e-07 0)
(0.00019212 0.000381024 3.36189e-19)
(0.00060704 0.000511627 -5.41676e-19)
(2.86885e-06 -5.22471e-07 1.78316e-19)
(0.000201579 0.000464015 -7.38162e-19)
(0.00102827 0.000981246 -1.12661e-19)
(0.000763274 0.000167756 0)
(0.000803091 0.00018428 1.30964e-19)
(0.00634686 0.00588413 1.13224e-18)
(0.000733646 0.00112989 8.26443e-20)
(3.27263e-05 3.12028e-05 -7.4437e-20)
(0.000809392 1.20726e-05 0)
(0.000866666 1.87241e-05 -3.56768e-20)
(2.49265e-05 1.31381e-06 -1.96666e-19)
(2.19631e-05 2.57472e-06 1.92923e-19)
(0.000835224 1.00312e-05 5.36969e-19)
(0.00099638 0.000115789 6.57763e-19)
(0.000521829 5.26689e-05 0)
(0.000219598 -0.000238038 -4.001e-19)
(0.000925218 0.000144184 3.89405e-19)
(-2.8293e-06 -3.48368e-05 2.02928e-19)
(0.00145623 0.00044831 -2.57956e-18)
(0.000543286 -1.73765e-05 0)
(0.000808426 0.000141877 3.75304e-19)
(9.76331e-05 0.000379917 0)
(0.00118943 0.0081611 4.62044e-19)
(0.00050154 0.000495182 -1.22414e-18)
(0.000542981 0.0010185 -1.83699e-19)
(0.000893998 9.75557e-06 -1.45998e-19)
(9.08037e-06 1.96166e-05 0)
(0.000969555 7.9766e-05 6.11307e-19)
(0.00410579 0.00739469 8.14601e-20)
(0.00417051 0.00747272 4.73266e-20)
(0.00450074 0.00751823 4.54133e-19)
(0.00444599 0.00754406 -3.29051e-19)
(0.00647517 0.0111088 8.10867e-20)
(0.00391463 0.00714578 -9.43414e-22)
(0.00550706 0.00780086 -5.64807e-19)
(0.00409763 0.00737128 5.21952e-21)
(0.00518865 0.00786079 5.11743e-19)
(0.00407937 0.00733962 -4.87552e-20)
(0.00495409 0.00772035 0)
(0.00408455 0.00736387 -8.5703e-20)
(0.00474302 0.00759123 4.92573e-19)
(0.0040978 0.00737548 8.75518e-20)
(0.00457579 0.00753078 0)
(0.00428464 0.00742257 1.39786e-19)
(0.00423819 0.00759719 5.80361e-19)
(0.00446847 0.00752956 -5.54325e-19)
(0.00438869 0.00750688 3.71403e-19)
(0.00422683 0.00752396 3.22927e-19)
(0.00643052 0.011042 -4.97672e-21)
(0.00411723 0.0074008 3.11715e-20)
(0.00645865 0.0110719 0)
(1.76824e-05 3.54418e-06 -1.89781e-19)
(0.00200351 0.00654803 2.28143e-19)
(0.000838602 -6.39115e-05 1.09514e-19)
(0.00084949 -3.9248e-06 0)
(2.63502e-07 5.24987e-09 -3.98942e-19)
(-4.34631e-05 -4.71507e-05 6.91029e-19)
(2.20332e-05 4.822e-05 2.08821e-18)
(0.000846758 0.000191698 -9.0027e-20)
(0.000801835 8.41154e-06 7.06094e-19)
(-5.35446e-07 7.17643e-07 3.09856e-19)
(9.57515e-06 -2.34226e-05 -1.84479e-18)
(0.000763303 2.64284e-05 1.63087e-19)
(0.000878687 0.000127535 -3.07848e-20)
(0.00080117 -6.42053e-06 1.48067e-19)
(0.000443123 0.000677826 0)
(-1.48521e-05 -0.000119829 1.15075e-18)
(0.000881526 -6.56463e-06 1.52468e-19)
(1.64061e-05 1.89632e-05 0)
(0.000121775 0.000549847 -6.31083e-19)
(0.000616677 0.000581096 1.31719e-18)
(0.000340308 0.000758038 0)
(0.000802136 -1.33004e-05 0)
(0.000801886 3.19542e-06 1.17676e-18)
(1.33355e-05 4.09152e-05 -3.51359e-18)
(1.20206e-05 4.57021e-06 3.73468e-19)
(0.000116431 0.000130441 0)
(2.67425e-05 -3.63689e-05 0)
(5.68727e-05 0.000101318 2.0092e-19)
(0.000946612 0.000190373 3.50275e-19)
(0.000802741 1.61455e-05 -1.37747e-18)
(1.90303e-05 2.68725e-05 0)
(0.000390693 7.20145e-07 -6.04673e-20)
(0.00079877 3.47909e-05 -1.5629e-19)
(0.00085438 5.56583e-05 1.0653e-18)
(0.000249447 0.000543053 6.32033e-19)
(0.000888212 0.000159335 0)
(9.60981e-06 -1.63505e-05 5.38399e-19)
(6.19394e-07 -3.01912e-07 -3.19826e-19)
(0.000927067 3.6474e-05 0)
(0.00105078 0.00227285 0)
(0.000889224 5.7062e-06 0)
(0.0010119 0.000210176 4.2698e-19)
(0.000819358 -3.71961e-05 -2.84152e-19)
(0.000949067 0.000118611 -6.84462e-19)
(0.000801309 3.86256e-06 0)
(3.86349e-05 5.89019e-05 -1.71498e-19)
(0.00017477 0.000318623 1.08078e-18)
(0.000801683 1.44599e-05 -2.59919e-23)
(0.00111563 0.000208103 -6.68289e-19)
(0.00108638 0.00013054 0)
(1.42542e-06 2.45419e-06 2.50923e-19)
(1.12384e-05 -1.02404e-05 -1.94233e-19)
(0.000545209 5.19921e-05 6.94759e-21)
(-1.66564e-05 -4.43338e-05 0)
(0.00108287 0.000258374 9.49493e-19)
(0.00502894 0.00974832 -2.82831e-19)
(0.00312178 0.00961638 1.27236e-18)
(-1.18298e-06 -8.14285e-05 -1.91243e-19)
(2.36343e-05 -6.58998e-05 1.85857e-18)
(0.0011954 0.000262279 1.67275e-19)
(0.00133252 0.00107465 2.34014e-19)
(0.000810448 4.42872e-06 -7.37092e-19)
(0.000204235 0.000946227 -2.38181e-19)
(0.000820058 0.000946691 -2.18513e-19)
(0.00080046 -1.80809e-06 0)
(8.12235e-05 0.000602328 0)
(9.38757e-05 0.000271861 -3.3569e-23)
(0.000721766 -4.88845e-05 -1.66918e-23)
(0.000828702 6.92076e-05 1.52543e-19)
(0.00263455 0.00206925 -1.23114e-18)
(0.00176112 0.00923791 -1.17183e-19)
(0.000833145 7.80299e-05 4.91662e-19)
(0.00631529 0.00405457 -1.76271e-19)
(0.0067208 0.0115568 -1.36675e-20)
(0.00473389 0.00784351 4.93815e-21)
(0.000806792 1.40655e-05 -2.19119e-18)
(0.000845658 -1.99402e-06 8.73017e-24)
(3.17688e-06 -3.87418e-06 -3.47867e-19)
(4.39111e-05 7.82333e-05 -3.49142e-19)
(5.99058e-05 0.000253345 8.75082e-19)
(7.3942e-06 1.18738e-05 4.90207e-19)
(8.99744e-05 0.000216928 3.69638e-19)
(0.000818062 1.30945e-05 0)
(0.00534833 0.00949243 1.94857e-20)
(0.0015517 0.000642649 -2.6111e-20)
(0.000818743 4.20996e-05 3.60029e-19)
(2.84332e-06 -6.36173e-05 0)
(0.00184975 0.000749874 5.45849e-19)
(5.86788e-06 4.71179e-06 -2.70045e-19)
(2.83323e-05 2.26155e-05 9.71426e-20)
(0.00133735 0.00139934 6.36496e-19)
(0.000740844 4.97813e-05 1.83032e-19)
(1.43682e-07 -2.33165e-07 -1.7013e-19)
(0.00206714 0.00156427 -1.05551e-18)
(0.000127116 0.000165391 -8.18491e-19)
(0.00392007 0.00848935 -1.09076e-18)
(1.97881e-06 6.15064e-07 8.81072e-20)
(8.22106e-05 -1.12727e-05 -1.25808e-18)
(2.58734e-05 -5.0072e-05 4.05471e-20)
(0.00153615 0.000990117 0)
(0.00104586 0.000145027 -3.96773e-22)
(0.000459361 0.000843632 -4.01963e-20)
(0.000803827 2.74797e-05 -2.33982e-19)
(8.67612e-05 0.000172071 7.3581e-19)
(1.12285e-05 -4.66183e-05 4.03819e-19)
(1.46086e-05 1.15281e-05 -9.4672e-20)
(2.65754e-05 7.95109e-05 -3.20165e-19)
(0.000214612 -0.000124453 -5.45735e-19)
(0.00325273 0.00346992 2.88117e-21)
)
;

boundaryField
{
    back
    {
        type            empty;
    }
    ingreso
    {
        type            fixedValue;
        value           uniform (0.0008 0 0);
    }
    salida
    {
        type            zeroGradient;
    }
    front
    {
        type            empty;
    }
    defaultFaces
    {
        type            noSlip;
    }
}


// ************************************************************************* //
