/*--------------------------------*- C++ -*----------------------------------*\
  =========                 |
  \\      /  F ield         | OpenFOAM: The Open Source CFD Toolbox
   \\    /   O peration     | Website:  https://openfoam.org
    \\  /    A nd           | Version:  8
     \\/     M anipulation  |
\*---------------------------------------------------------------------------*/
FoamFile
{
    version     2.0;
    format      ascii;
    class       volScalarField;
    location    "7.6";
    object      p;
}
// * * * * * * * * * * * * * * * * * * * * * * * * * * * * * * * * * * * * * //

dimensions      [0 2 -2 0 0 0 0];

internalField   nonuniform List<scalar> 
17372
(
3.54554e-06
7.34964e-06
2.02789e-06
4.91919e-06
7.37716e-06
7.35182e-06
1.42062e-06
7.10548e-06
1.08695e-06
7.02959e-06
3.34208e-06
7.36507e-06
7.01226e-06
7.32601e-06
1.28111e-06
4.70999e-06
7.36742e-06
7.33488e-06
7.33007e-06
7.02398e-06
1.23813e-06
5.03156e-07
3.69163e-06
7.03454e-06
7.35132e-06
1.19372e-06
3.95394e-06
2.10803e-06
7.66565e-06
3.84805e-06
1.18824e-06
7.38282e-06
3.7432e-06
1.1503e-06
6.85832e-06
4.77619e-06
1.10381e-06
7.35356e-06
1.31118e-06
6.41053e-06
4.05971e-06
7.03602e-07
2.0822e-06
7.06759e-06
5.56191e-06
3.64061e-06
7.37331e-06
4.2342e-06
1.06115e-06
4.6205e-06
7.35459e-06
1.32478e-06
2.32372e-06
1.97461e-06
7.3389e-06
7.36903e-06
1.01251e-06
2.08112e-07
1.28934e-06
7.13279e-06
4.65606e-06
7.1312e-06
3.79536e-06
5.09039e-06
2.17605e-06
7.1225e-06
1.34335e-06
2.49077e-07
1.25806e-07
7.34672e-06
7.17531e-06
3.16471e-06
1.5846e-06
4.74521e-06
6.52648e-06
5.56077e-06
1.70278e-06
5.55738e-06
5.82207e-06
6.01572e-06
7.36764e-06
1.4982e-06
1.45054e-06
7.37736e-06
7.36356e-06
5.48912e-06
4.66947e-06
5.05686e-06
9.69146e-07
7.22972e-06
4.69923e-07
7.45098e-07
7.16441e-06
7.34186e-06
7.1535e-06
4.16539e-06
7.32922e-06
7.37597e-06
7.34152e-06
7.08097e-06
7.20198e-06
3.82949e-06
7.3502e-06
7.14138e-06
1.39113e-06
8.7946e-07
4.13103e-06
6.6807e-06
7.37598e-06
3.93588e-06
1.94446e-07
7.29952e-06
4.04204e-06
4.51963e-06
1.0364e-06
5.22989e-07
4.14811e-06
8.36156e-07
5.53116e-07
4.25446e-06
1.13721e-06
4.36096e-06
1.23875e-06
9.61585e-07
7.34286e-06
1.34016e-06
2.36744e-06
7.14319e-06
7.36828e-06
4.46699e-06
1.44207e-06
2.46897e-06
3.90093e-06
4.57053e-06
2.26531e-06
7.14609e-06
3.39015e-06
2.16261e-06
6.11635e-06
7.37372e-06
7.09527e-06
2.05946e-06
1.90496e-06
1.54413e-06
7.18877e-06
1.80072e-06
1.69796e-06
7.33523e-06
7.06257e-06
4.87904e-06
5.74365e-07
4.91449e-06
2.7322e-07
1.3905e-06
7.30527e-06
1.56036e-06
5.18538e-06
7.37582e-06
7.14939e-06
3.72419e-06
1.49303e-06
7.37436e-06
1.85223e-06
7.32925e-06
4.27125e-06
7.10877e-06
4.1865e-06
7.2849e-06
5.14621e-07
4.52041e-06
1.43375e-07
7.08516e-07
5.2039e-06
7.29082e-06
2.57081e-06
1.88348e-06
1.75892e-06
7.01358e-06
7.11982e-06
7.37102e-06
6.93623e-06
3.48599e-06
7.2423e-06
5.37949e-07
2.17099e-06
1.87557e-06
5.53522e-07
7.38342e-06
1.36061e-07
7.38258e-06
3.76363e-07
5.74888e-06
1.04614e-06
7.2148e-06
4.41375e-06
7.38678e-06
4.00278e-06
8.28007e-07
7.33204e-06
6.56816e-06
7.38758e-06
7.09885e-06
7.36405e-06
2.34541e-06
2.74861e-07
7.37674e-06
3.52964e-06
7.14188e-06
5.44375e-06
1.64545e-06
3.93949e-06
4.0068e-06
3.68333e-06
3.84176e-06
7.38004e-06
7.87926e-07
3.68901e-06
6.51182e-06
7.21137e-06
3.43067e-07
2.22382e-06
7.11388e-06
7.3855e-06
7.26175e-06
1.5953e-06
7.36536e-06
4.61202e-06
6.85715e-06
7.124e-06
3.61968e-06
7.3563e-06
3.57638e-06
7.18832e-06
5.82116e-06
5.79482e-06
7.43888e-06
7.13146e-06
7.52463e-07
1.41703e-07
2.3915e-06
2.44131e-06
4.78452e-06
7.37633e-06
7.32103e-06
7.01082e-06
4.37703e-06
7.3253e-06
2.27312e-06
3.28664e-07
7.37511e-06
7.37012e-06
2.4402e-06
1.25007e-07
7.02331e-07
7.37529e-06
3.75804e-06
2.72654e-06
7.37245e-06
1.82427e-06
7.31715e-06
4.64264e-07
6.47178e-07
7.33403e-06
7.36577e-06
7.36888e-06
7.36832e-06
4.47793e-06
7.30828e-06
6.43112e-07
7.38889e-06
6.29723e-06
4.42992e-06
7.15812e-06
7.10291e-06
7.33327e-06
4.93017e-06
4.30758e-06
7.24088e-06
7.35093e-06
7.1219e-06
7.33694e-06
7.38381e-06
5.74021e-06
7.38922e-06
4.11251e-06
5.9146e-06
4.39299e-06
1.48427e-06
9.56584e-07
7.20355e-06
3.43879e-06
6.97645e-06
3.51469e-06
3.48528e-06
7.15943e-06
1.64302e-06
5.42454e-06
7.262e-06
5.90867e-06
5.26423e-07
4.05022e-07
7.38943e-06
9.8284e-07
7.38817e-06
7.36976e-06
7.04799e-06
6.39094e-06
3.4889e-06
1.15202e-06
7.31454e-06
5.9569e-06
7.29851e-06
3.73969e-06
7.38929e-06
7.10104e-06
7.02311e-06
4.53508e-06
7.28505e-06
7.35407e-06
7.94426e-07
6.19274e-06
7.13445e-06
1.74907e-06
7.22226e-06
6.55876e-06
7.14579e-06
7.17063e-06
7.38931e-06
7.2794e-06
5.52584e-06
2.00697e-06
6.78889e-06
7.37268e-06
1.44892e-06
2.87543e-06
1.13324e-06
7.38887e-06
1.68334e-06
1.76735e-06
7.3027e-06
1.92734e-06
7.28001e-06
6.92333e-06
3.64327e-06
5.40383e-07
1.98494e-06
7.38361e-06
5.11009e-07
7.46132e-07
6.14352e-06
7.38837e-06
7.04239e-06
7.38473e-06
7.33351e-07
1.6617e-06
7.37616e-06
7.0158e-06
4.67576e-06
7.38778e-06
1.24065e-06
7.30789e-06
7.3868e-06
1.82258e-06
1.55672e-06
1.34938e-06
7.38625e-06
7.3673e-06
7.0804e-06
1.45186e-06
7.26723e-06
6.67865e-06
7.36965e-06
7.37309e-06
7.24188e-06
6.74979e-06
7.3854e-06
5.59641e-07
6.1037e-06
7.15357e-06
7.36984e-06
7.38635e-06
3.40691e-06
7.04405e-06
4.20112e-06
7.37702e-06
7.15513e-06
4.54851e-06
2.99324e-06
7.13955e-06
7.08949e-06
7.15932e-06
7.37985e-06
4.21826e-06
6.14372e-06
7.3779e-06
2.93186e-07
7.02481e-06
7.35908e-06
7.36979e-06
7.3341e-06
2.97848e-06
7.18015e-06
7.2019e-06
4.69046e-06
1.74976e-06
1.69747e-06
7.14978e-06
1.63808e-07
7.36271e-06
5.87906e-06
7.37736e-06
6.77687e-06
1.8068e-07
2.11818e-06
1.85245e-06
7.36832e-06
4.58741e-06
7.38175e-06
6.08796e-06
5.54002e-06
7.21238e-06
7.36603e-06
1.92153e-06
7.2123e-06
1.71497e-06
6.17516e-06
7.22535e-06
7.84823e-07
6.73495e-06
6.98365e-06
7.10015e-06
6.06359e-06
2.75387e-06
4.6043e-06
1.06567e-06
6.27895e-06
7.15248e-06
2.91617e-06
7.44889e-06
7.36412e-06
7.10993e-06
7.38347e-06
6.92064e-06
7.31026e-06
7.36897e-06
7.1213e-06
7.37893e-06
1.79333e-07
2.75566e-06
7.16886e-06
7.36295e-06
7.36642e-06
1.4693e-06
1.53736e-06
8.49933e-07
7.37261e-06
7.38904e-06
7.11217e-06
6.79773e-06
6.98276e-06
7.15917e-06
4.56722e-06
7.14625e-06
3.08576e-06
1.92608e-07
3.05509e-06
7.26864e-06
5.41329e-06
7.33101e-06
4.09761e-06
1.37085e-06
6.0823e-06
7.35902e-06
7.29401e-06
7.11786e-06
7.29144e-06
4.45535e-07
7.37933e-06
1.46122e-06
7.38936e-06
4.56609e-06
5.67882e-06
7.05689e-06
1.09198e-06
7.2298e-06
7.21578e-06
9.21038e-07
7.38128e-06
7.36806e-06
5.51954e-07
4.8503e-06
7.55125e-08
6.99013e-07
1.95611e-06
4.1099e-07
7.38314e-06
4.09499e-06
7.37756e-06
7.26698e-06
7.14796e-06
4.32418e-06
6.52092e-07
7.38188e-06
7.31467e-06
7.38942e-06
6.56202e-07
7.38367e-06
7.26662e-06
6.56023e-07
7.21653e-06
1.71419e-06
4.331e-06
3.24727e-06
7.12854e-06
4.71405e-06
5.52235e-07
7.19844e-06
4.57327e-06
5.65547e-06
4.39612e-06
7.28495e-06
7.14248e-06
2.0117e-06
7.38918e-06
7.30406e-06
7.38015e-06
3.18731e-06
4.81038e-06
7.27862e-06
7.09133e-06
4.49919e-06
1.24058e-07
7.33232e-06
5.70297e-06
4.61648e-06
2.39182e-06
4.19337e-06
7.38914e-06
3.79076e-06
7.16223e-06
6.7566e-07
4.60257e-06
7.31092e-06
7.07806e-06
6.98622e-06
7.3369e-06
7.26556e-06
7.3094e-06
7.21575e-06
4.70629e-06
5.52107e-06
6.70104e-06
7.37967e-06
4.59407e-07
4.74182e-06
7.33073e-06
7.37659e-06
7.33132e-06
7.38864e-06
4.81088e-06
4.65142e-06
2.06728e-06
3.66434e-06
2.85071e-06
4.09503e-07
7.13964e-06
1.58955e-06
7.36678e-06
4.91567e-06
5.9069e-07
9.54391e-07
5.84001e-06
7.18505e-06
7.38514e-06
5.01864e-06
5.87311e-06
7.38806e-06
4.03451e-06
1.67429e-06
7.32895e-06
5.174e-06
1.48744e-06
3.16213e-06
6.67665e-06
5.68891e-06
6.4289e-06
6.86915e-06
1.49151e-06
7.10033e-06
5.12167e-06
6.59466e-06
7.36315e-06
7.45968e-06
6.90211e-06
7.29584e-06
3.28786e-06
7.35598e-06
7.38724e-06
7.60049e-07
5.56697e-07
4.74814e-06
3.1333e-06
7.14981e-06
4.81115e-06
6.76845e-06
7.51392e-06
7.35779e-06
7.36866e-06
5.07883e-06
8.66395e-07
5.26806e-07
7.3347e-06
6.89266e-06
7.38653e-06
7.28365e-06
7.26811e-06
4.34891e-06
1.43213e-06
4.45748e-06
6.59129e-07
3.98901e-06
5.60193e-06
2.15966e-06
4.6164e-06
4.29989e-06
4.04397e-06
7.23435e-06
1.07211e-06
7.30546e-06
7.11035e-06
7.33174e-06
7.11905e-06
2.89686e-07
7.34834e-06
7.55458e-07
3.10357e-06
7.16153e-06
7.08759e-07
7.01474e-06
2.11082e-06
7.15765e-06
7.10714e-06
7.2683e-06
8.61099e-07
7.37373e-06
7.13403e-06
1.90575e-06
5.5512e-06
1.41364e-07
7.33009e-06
6.42632e-06
7.49872e-06
7.08087e-06
7.70402e-07
5.5009e-06
5.65306e-06
5.39561e-06
7.11724e-06
7.35427e-06
5.75468e-06
7.3534e-06
6.8027e-06
7.29483e-06
5.70599e-06
7.38842e-06
7.01236e-06
3.38866e-06
1.44262e-07
2.67196e-06
2.27e-06
3.89351e-06
1.36743e-06
7.22112e-06
6.43317e-06
7.31337e-06
5.53329e-06
7.35186e-06
9.25039e-07
7.00569e-06
4.44373e-06
5.67175e-07
1.28988e-06
7.35476e-06
5.62012e-06
2.06922e-06
7.27005e-06
7.33601e-06
4.27681e-06
1.4977e-07
4.08062e-06
5.71101e-06
4.48263e-06
5.45071e-06
7.37089e-06
7.25739e-06
5.09268e-08
7.2073e-06
7.32778e-06
6.07238e-07
7.35712e-06
1.60897e-06
7.64911e-08
7.34921e-06
7.31507e-06
7.9194e-08
3.4465e-06
7.35224e-06
6.73072e-06
1.22702e-06
3.02011e-06
4.55152e-06
3.04909e-06
5.40069e-06
7.37076e-06
3.89157e-06
4.91169e-06
2.47398e-07
6.25485e-06
8.64599e-07
7.34602e-06
1.85538e-06
4.31449e-06
7.29931e-06
6.8392e-06
3.71582e-06
1.0593e-06
7.38383e-06
7.35012e-06
6.59237e-06
6.62702e-06
7.16618e-06
4.9161e-06
4.65688e-06
2.07031e-06
7.34218e-06
7.27848e-06
5.82521e-07
4.63535e-06
7.38463e-06
3.48868e-06
5.58989e-06
7.14764e-06
7.31539e-06
7.33912e-06
5.41038e-06
7.38308e-06
7.37369e-06
7.26092e-06
7.33184e-06
2.28075e-06
2.21405e-06
7.38406e-06
5.30184e-06
7.22059e-06
7.02603e-06
7.33556e-06
5.14419e-06
5.39408e-06
7.36928e-06
7.1885e-06
4.44781e-06
4.76003e-06
7.25301e-06
5.69272e-06
7.25687e-06
6.51949e-07
2.83226e-06
3.8973e-07
1.58667e-06
5.62416e-06
7.00119e-06
7.32907e-06
4.15568e-06
7.08108e-06
1.77955e-06
7.23584e-06
3.88278e-06
7.27718e-06
6.12727e-07
1.29878e-06
7.38384e-06
4.44886e-06
5.3736e-06
4.34957e-06
7.22223e-06
5.82132e-06
7.36816e-06
1.48436e-06
7.32592e-06
7.32109e-07
4.28163e-06
2.56869e-06
7.20307e-06
1.79946e-06
7.29997e-06
7.16059e-06
4.79232e-07
7.24918e-06
1.77752e-06
7.24198e-06
7.3175e-06
6.66059e-06
7.36247e-07
7.30965e-06
7.14545e-06
7.04237e-06
6.55708e-06
6.85561e-06
6.37804e-06
3.37082e-06
1.68119e-06
2.91151e-06
6.91786e-06
7.15531e-06
7.35812e-06
4.70231e-07
4.90578e-06
2.90613e-06
5.3446e-06
7.16042e-06
7.1361e-06
7.37883e-06
3.24478e-06
1.32634e-06
7.16572e-06
7.28591e-06
6.36604e-07
5.01339e-06
2.09192e-06
4.27812e-07
6.73972e-06
7.23049e-06
7.32767e-06
6.77153e-06
5.90585e-06
3.22575e-06
7.12769e-06
7.22669e-06
6.8656e-06
7.35656e-06
7.22068e-06
9.20174e-07
1.60068e-06
5.006e-06
3.96656e-06
7.35102e-06
9.69547e-07
1.64893e-06
2.02207e-06
6.23173e-06
3.29438e-06
7.37158e-06
7.14559e-06
6.92765e-06
7.32591e-06
7.36653e-06
2.62189e-06
1.43426e-07
7.36918e-06
6.92976e-06
5.91068e-06
3.5176e-07
7.17119e-06
6.03606e-06
1.06836e-06
7.37181e-06
2.11157e-06
7.15485e-06
7.32967e-06
7.13121e-06
5.10838e-06
7.28034e-06
4.4597e-06
2.31636e-06
1.12862e-06
5.96886e-06
5.25019e-06
5.05559e-07
7.33226e-06
1.16447e-06
6.56928e-06
4.15334e-06
7.35539e-06
4.67475e-06
5.19977e-06
7.37865e-06
7.37873e-06
1.53825e-06
4.52488e-06
7.36769e-06
7.34021e-06
6.25327e-06
7.14952e-06
7.06361e-06
7.34821e-06
1.01958e-06
7.36804e-06
6.73793e-07
6.89886e-06
3.98717e-06
7.13677e-06
7.35023e-06
3.53512e-06
7.13014e-06
5.5796e-06
7.9591e-07
4.76303e-06
4.55528e-06
3.10758e-08
7.05131e-06
5.09836e-06
5.21118e-06
2.89578e-08
1.3845e-07
6.98005e-06
2.22316e-06
4.33752e-06
7.12759e-06
4.63917e-06
7.33921e-06
4.13184e-06
7.19538e-06
5.76633e-06
7.38498e-06
5.4243e-06
7.38319e-06
3.87019e-06
4.86169e-06
5.72323e-06
7.1733e-06
4.83689e-06
5.26466e-06
6.94403e-06
6.73469e-06
7.28689e-06
7.37795e-06
7.13254e-06
4.55106e-06
1.34518e-06
7.3474e-06
3.00305e-06
7.3541e-06
2.85123e-06
5.16847e-06
4.96279e-06
7.0318e-06
2.35703e-06
7.36863e-06
4.99639e-06
5.11529e-06
7.38303e-06
6.99975e-06
7.24795e-06
6.97389e-06
5.06451e-06
7.37045e-06
7.38374e-06
3.77708e-06
7.35275e-06
5.24006e-06
1.69329e-06
6.31348e-08
9.29299e-08
2.57808e-07
6.98727e-06
2.96021e-08
4.26232e-08
4.24203e-06
7.24323e-06
2.46828e-06
5.31377e-06
7.34481e-06
7.38417e-06
7.38183e-06
4.57811e-06
7.3504e-06
6.7259e-06
7.38585e-06
7.3693e-06
4.89403e-06
7.25392e-06
7.32529e-06
2.75539e-06
7.34835e-06
7.34928e-06
7.09815e-06
1.12985e-06
6.07249e-08
4.55277e-07
6.37582e-06
2.32792e-06
1.85237e-06
3.14678e-06
2.06483e-06
7.14135e-06
1.35344e-07
7.35266e-06
5.2022e-06
5.76295e-06
4.73141e-06
7.30928e-06
2.35895e-06
7.28183e-06
7.31434e-06
4.79146e-06
1.74623e-06
7.1914e-06
7.36737e-06
7.34983e-06
7.2197e-06
5.75404e-06
5.77185e-06
7.23032e-06
6.87107e-07
7.15931e-06
4.05828e-06
2.81005e-06
7.23095e-06
5.16688e-06
2.94223e-06
5.14919e-06
4.67488e-06
7.22715e-06
4.27876e-06
5.41563e-06
7.03041e-06
7.0518e-06
3.29743e-06
1.07474e-06
1.22333e-07
7.05807e-06
3.8402e-06
6.55887e-07
7.36925e-06
6.79213e-06
7.27318e-06
6.46956e-06
3.89356e-07
4.68845e-06
7.10787e-06
7.30762e-06
7.26238e-06
7.28682e-06
1.7197e-06
7.3734e-06
2.41778e-06
7.20739e-06
7.35133e-06
6.51296e-06
7.26638e-06
3.04828e-06
7.37601e-06
7.07439e-06
5.46181e-07
1.64004e-06
2.00514e-06
1.50447e-06
7.29938e-06
7.36389e-06
7.06466e-06
1.37878e-06
7.04477e-06
7.37482e-06
7.26811e-06
7.26873e-06
6.15022e-07
4.58471e-06
5.30048e-06
4.6215e-06
7.31366e-06
5.26998e-06
1.22907e-06
1.21996e-06
3.15342e-06
7.07033e-06
1.67939e-06
7.31603e-06
7.16462e-06
1.93341e-06
7.31249e-06
5.84305e-06
7.33902e-06
6.54117e-06
6.35767e-06
7.22434e-06
7.29555e-06
7.36983e-06
7.21711e-06
3.13406e-06
7.3672e-06
5.51681e-06
5.31775e-06
6.24316e-07
7.35015e-06
6.04e-06
1.26981e-06
3.51373e-07
2.85489e-07
7.09257e-06
7.36095e-06
7.07931e-06
7.61169e-06
1.0316e-06
4.14947e-07
4.75266e-06
4.06315e-07
4.41629e-06
1.07346e-06
7.08761e-06
6.80411e-06
6.82951e-06
7.33355e-06
4.28479e-07
3.27582e-07
4.3747e-06
4.51212e-06
6.17781e-06
7.35562e-06
7.01785e-06
5.39607e-06
7.08511e-06
8.51433e-07
9.77171e-07
7.1276e-06
7.35343e-06
4.99972e-06
7.03776e-06
4.55371e-07
7.14851e-06
5.37432e-06
7.32369e-06
7.35269e-06
7.29548e-06
7.34903e-06
6.1814e-07
6.23423e-08
7.3525e-06
7.03891e-06
5.35913e-07
7.25642e-06
1.96051e-06
7.26808e-06
3.38897e-07
7.02679e-06
7.35242e-06
5.21823e-06
7.37115e-06
7.39e-06
7.09318e-06
1.33292e-06
1.55588e-06
4.88451e-07
6.48877e-06
4.09215e-06
7.33052e-06
6.29933e-06
7.1036e-06
6.3505e-06
7.41278e-06
1.43996e-06
7.37452e-06
7.32716e-06
3.52736e-07
7.36947e-06
7.38527e-06
4.78061e-06
4.40382e-06
7.36748e-06
5.68516e-07
5.61803e-06
9.34129e-07
6.73234e-06
7.07089e-06
4.65447e-06
7.07087e-06
7.38683e-06
5.04748e-06
7.32648e-06
3.67122e-06
1.48067e-06
7.36367e-06
4.51638e-06
5.15067e-06
9.95568e-08
8.54377e-08
6.17069e-06
7.24582e-06
3.67239e-06
2.43035e-06
7.30489e-06
7.30918e-06
7.38748e-06
7.32998e-06
3.44207e-07
7.28532e-06
7.3221e-06
3.84037e-06
7.34715e-06
7.37431e-06
6.88262e-06
4.29601e-06
7.01671e-06
6.52845e-07
5.55544e-06
7.37275e-06
7.3883e-06
4.13477e-06
7.23495e-06
3.02842e-07
1.63406e-06
1.58652e-06
5.94642e-06
5.92653e-06
7.41155e-06
3.90099e-06
7.15291e-06
2.51941e-06
7.3787e-06
7.20464e-06
4.18837e-06
7.32058e-06
7.39101e-06
7.38897e-06
1.18009e-06
3.69605e-06
7.38057e-06
6.8217e-06
6.1641e-06
4.42975e-06
6.71496e-06
6.35131e-06
4.21182e-07
7.3621e-06
7.28523e-06
8.40926e-07
4.95221e-07
1.4384e-06
3.80206e-07
4.08126e-06
1.37505e-06
7.38955e-06
7.22538e-06
4.79335e-06
7.36719e-06
7.00023e-06
7.32684e-06
5.53316e-06
7.19671e-06
5.75502e-07
7.26201e-06
3.55249e-07
7.36685e-06
7.37153e-06
1.04076e-06
3.87978e-07
6.91609e-06
5.32743e-06
7.32502e-06
7.39003e-06
7.29778e-06
1.09947e-07
7.29962e-08
1.17701e-06
5.75467e-06
7.28428e-06
7.33649e-06
6.86321e-06
7.2586e-06
7.36635e-06
4.16961e-06
4.96412e-07
7.32502e-06
5.39293e-06
7.39018e-06
4.22208e-07
2.45966e-06
7.23443e-06
6.01377e-06
6.91077e-06
7.24673e-06
6.05259e-06
7.15704e-06
7.26285e-06
1.53387e-06
7.00054e-06
7.09412e-06
7.16154e-06
9.06092e-07
7.39026e-06
7.08971e-06
7.06092e-06
7.38253e-06
5.83029e-06
4.04582e-07
5.71928e-06
5.80554e-06
7.32934e-06
5.66753e-06
7.25865e-06
7.25023e-06
7.37829e-06
7.36785e-06
2.60046e-07
6.785e-07
7.39008e-06
3.39041e-07
4.4693e-07
7.014e-06
7.0069e-06
6.68808e-06
5.87498e-06
7.30839e-06
6.97167e-06
1.98825e-06
7.33684e-06
7.34355e-06
7.34961e-06
5.34335e-06
7.35681e-06
7.39007e-06
7.38462e-06
7.50205e-06
7.09667e-06
4.32255e-08
6.94606e-06
1.37529e-06
6.05192e-06
7.36521e-06
1.11662e-06
7.25845e-06
7.04383e-06
7.313e-07
7.25065e-06
7.1859e-06
1.58255e-06
7.38632e-06
3.29029e-08
1.60346e-06
6.19678e-06
7.20742e-06
7.29506e-06
7.39281e-06
5.71347e-06
6.85375e-06
7.35928e-07
4.88294e-06
3.97445e-06
7.36262e-06
7.38039e-06
7.08474e-06
7.01299e-06
7.25966e-06
5.32505e-06
5.16052e-06
7.3822e-06
4.30852e-06
7.37681e-06
4.55537e-07
6.57875e-06
7.20284e-06
6.0414e-06
1.01651e-06
4.60447e-07
3.65934e-06
5.8718e-06
6.99807e-06
4.9453e-06
6.34071e-07
7.12558e-06
8.38918e-07
4.40389e-07
1.11436e-06
7.35026e-06
7.02556e-06
7.38945e-06
7.33899e-06
7.35736e-06
6.24725e-06
1.85442e-06
7.35125e-06
5.50217e-06
5.16411e-07
7.03638e-06
5.48658e-06
3.83471e-06
7.36758e-06
6.27726e-06
6.13918e-06
7.31379e-06
7.19419e-06
7.2163e-06
7.31062e-06
7.35732e-06
5.68506e-06
7.23698e-06
7.28527e-06
5.32197e-06
7.34072e-06
5.83384e-06
7.39263e-06
7.14797e-06
5.06639e-06
6.61412e-06
6.99428e-06
6.72689e-06
7.38643e-06
7.39185e-06
1.27237e-06
3.53824e-06
4.33481e-07
9.99976e-07
9.42835e-07
5.90209e-06
7.07602e-06
7.38042e-06
7.08738e-06
6.99466e-06
7.16767e-06
7.02123e-06
6.82411e-06
7.36438e-06
1.11106e-06
7.01315e-06
6.01291e-06
5.42646e-06
1.21118e-06
7.36884e-06
6.66058e-06
6.53749e-06
7.3798e-06
7.29441e-06
7.35155e-06
2.1344e-06
6.27221e-06
7.25532e-06
7.37653e-06
7.37803e-06
7.37322e-06
7.00319e-06
9.34776e-08
7.03006e-06
4.60208e-06
1.65947e-06
2.62137e-06
7.36832e-06
5.6521e-06
7.34653e-06
7.35373e-06
7.01852e-06
7.17381e-06
1.28066e-06
6.8725e-06
5.92376e-06
2.40585e-07
5.81587e-06
7.22137e-06
9.60958e-07
7.1021e-06
6.91973e-06
1.61992e-07
3.92397e-06
1.38546e-06
1.0474e-06
6.54987e-06
6.98884e-06
1.2431e-06
1.44595e-06
5.66386e-06
7.13774e-06
6.9263e-06
7.39055e-06
6.93665e-06
7.35296e-06
4.75861e-06
1.49232e-06
3.88354e-07
1.27964e-06
7.04236e-06
6.70695e-06
6.8776e-06
7.28497e-06
6.36286e-06
7.39245e-06
3.56771e-06
6.99285e-06
7.02579e-06
7.22637e-06
7.26542e-06
7.34794e-06
7.35865e-06
5.07787e-07
7.31323e-06
6.85702e-06
6.33917e-06
1.28554e-06
7.36987e-06
7.02196e-06
7.23502e-06
7.23632e-06
3.61463e-07
6.62311e-06
3.58613e-06
7.29164e-06
3.81487e-06
2.64315e-06
4.35524e-07
6.15642e-06
1.15235e-06
2.77066e-06
1.71482e-06
7.35381e-06
7.31925e-06
2.96885e-07
7.22493e-06
7.00811e-06
7.31697e-06
7.35445e-06
5.69574e-07
1.35535e-06
7.1798e-06
6.49084e-06
4.29417e-07
7.33743e-06
7.25225e-06
6.15617e-07
6.99229e-06
6.94886e-06
6.29054e-06
7.10183e-06
7.37003e-06
6.63488e-06
4.08385e-06
6.88912e-06
7.1379e-06
4.85563e-07
7.27158e-06
6.33558e-06
6.91056e-06
5.8299e-06
2.08021e-06
7.1989e-06
7.25978e-06
1.82406e-06
3.22465e-06
7.36966e-06
6.93759e-06
4.98229e-06
6.90424e-06
7.12863e-06
7.37709e-06
7.18503e-06
7.38241e-06
7.34765e-06
7.35303e-06
7.21438e-06
1.25754e-06
6.12783e-06
5.43269e-06
6.24197e-06
6.70553e-06
7.32236e-06
7.34799e-06
7.36686e-06
1.82252e-06
5.88752e-06
5.89565e-06
7.37327e-06
6.48777e-06
7.39213e-06
4.89525e-06
6.07426e-07
6.01331e-06
7.35533e-06
7.33455e-06
4.82164e-07
7.37512e-06
7.33644e-06
1.32242e-06
4.76459e-07
5.83715e-06
7.35731e-06
5.59627e-06
2.93963e-07
6.84182e-06
4.98489e-06
6.2857e-06
5.80454e-06
7.39808e-06
7.36169e-06
7.30941e-06
7.38289e-06
7.10557e-06
7.35433e-06
5.30525e-06
6.8805e-06
2.80663e-06
7.37981e-06
7.33846e-06
7.3381e-06
7.36916e-06
5.12158e-06
7.09089e-06
7.05253e-06
7.31491e-06
7.11863e-06
7.21513e-06
7.06108e-06
1.42801e-06
6.73082e-06
7.38112e-06
6.90003e-06
7.31601e-06
7.14883e-06
7.1275e-06
7.37351e-06
6.41102e-06
5.99115e-06
7.19181e-06
3.63326e-06
7.39293e-06
4.17406e-06
7.28833e-06
7.36647e-06
7.10614e-06
7.14878e-06
7.34934e-06
5.76844e-06
6.19616e-06
1.34583e-06
3.79032e-07
4.83982e-07
7.31992e-06
7.02671e-06
7.03507e-06
7.14583e-06
7.27824e-06
7.06112e-06
6.99288e-06
7.0138e-06
7.03165e-06
7.2459e-06
2.70489e-06
5.93803e-06
4.25176e-07
7.28149e-06
7.40871e-06
6.94043e-06
4.06575e-07
7.10945e-06
7.10085e-06
7.22629e-06
6.54641e-06
7.09323e-06
6.90069e-06
6.28093e-06
7.07813e-06
7.37431e-06
7.25185e-06
6.95665e-06
4.59397e-06
6.34075e-06
7.10067e-06
7.37561e-06
7.12357e-06
7.36226e-06
7.3798e-06
7.38397e-06
5.81423e-06
6.728e-06
7.34578e-06
6.58421e-06
7.34444e-06
7.35563e-06
5.58608e-06
5.2542e-07
7.03937e-06
7.00085e-06
6.96902e-06
1.9584e-06
7.09946e-06
7.37168e-06
4.64084e-06
6.89297e-06
5.72823e-06
7.23369e-06
7.09193e-06
5.81146e-06
7.08133e-06
7.0137e-06
7.12026e-06
7.34691e-06
6.93554e-06
6.43823e-06
4.97856e-06
7.10862e-06
6.24191e-06
5.61194e-07
7.02408e-06
7.34803e-06
4.84285e-06
7.0386e-06
4.75455e-07
7.3245e-06
7.3721e-06
7.2171e-06
7.12242e-06
1.4008e-06
7.03502e-06
7.36262e-06
7.18524e-06
6.21927e-06
7.349e-06
7.05736e-06
5.96518e-06
4.70369e-06
7.17807e-06
7.3426e-06
6.99587e-06
7.03213e-06
4.02786e-06
1.76928e-06
7.34994e-06
1.26592e-06
7.32555e-06
7.11979e-06
6.70166e-06
7.37921e-06
5.34893e-07
7.29943e-06
6.94393e-07
7.37247e-06
7.39254e-06
7.13413e-06
7.37201e-06
4.11266e-06
7.36868e-06
7.06389e-07
7.08547e-06
5.73831e-06
1.63143e-06
7.07507e-06
3.34797e-07
6.93304e-06
7.35522e-06
6.99384e-06
7.17027e-06
5.86576e-06
7.34323e-06
7.08439e-06
1.53374e-06
6.5369e-06
5.64552e-06
5.89278e-06
4.51507e-07
7.0507e-06
6.17188e-06
7.27274e-06
7.03604e-06
7.08114e-06
7.35902e-06
7.31643e-06
6.20509e-06
2.08695e-06
6.83075e-06
1.24636e-06
5.81159e-06
5.39163e-06
7.05743e-06
6.95058e-06
6.06525e-06
6.06279e-06
7.36026e-06
7.35152e-06
7.0257e-06
7.24897e-06
7.07983e-06
7.33264e-06
5.96876e-06
6.97349e-06
7.33143e-06
7.0592e-06
6.37162e-06
3.67813e-06
7.30258e-06
7.18394e-06
7.12486e-06
7.22401e-06
7.10675e-06
7.27688e-06
4.47747e-07
5.92352e-06
5.9359e-06
1.65061e-06
7.11291e-06
7.20147e-06
7.15768e-06
7.29552e-06
4.2011e-06
7.07885e-06
6.27843e-06
7.23702e-06
7.16255e-06
7.3701e-06
4.50563e-07
7.35083e-06
7.1625e-06
5.78629e-06
7.11941e-06
7.06552e-06
6.50499e-06
7.36983e-06
7.34072e-06
6.78043e-06
7.10519e-06
7.0866e-06
7.35578e-06
1.0974e-06
7.13107e-06
5.69015e-06
7.12301e-06
7.37926e-06
1.74804e-06
7.09967e-06
7.35814e-06
7.09742e-06
7.35657e-06
7.36966e-06
5.22563e-06
4.9637e-06
7.97805e-07
1.51099e-06
6.93894e-06
7.13691e-06
6.23005e-06
7.12758e-06
7.30745e-06
7.1065e-06
7.04221e-06
7.30006e-06
6.79845e-06
7.37883e-06
7.39255e-06
7.0757e-06
6.94439e-06
6.03409e-06
7.09566e-06
7.37828e-06
7.3666e-06
2.78502e-06
6.12483e-06
7.2495e-06
1.48097e-06
7.10134e-06
7.0448e-06
5.49599e-06
7.37953e-06
2.27606e-06
7.08795e-06
6.12734e-06
6.12201e-06
5.343e-06
7.36593e-06
7.26444e-06
7.15194e-06
4.62106e-07
2.2078e-06
1.38184e-06
7.14638e-06
6.93312e-06
7.32898e-06
6.7609e-07
2.66131e-06
7.29313e-06
7.17382e-06
7.17319e-06
7.18988e-06
6.94762e-06
7.18339e-06
7.13884e-06
1.45216e-06
7.34521e-06
6.54364e-06
7.18276e-06
7.18198e-06
7.24815e-06
7.37323e-06
1.08485e-06
7.11772e-06
7.34181e-06
7.36424e-06
7.36934e-06
5.95764e-06
7.06978e-06
7.18812e-06
5.62919e-07
7.37394e-06
7.23858e-06
6.01542e-07
5.96755e-06
6.92975e-06
7.21148e-06
7.19087e-06
7.15568e-06
6.88108e-06
7.09058e-06
7.22592e-06
7.20985e-06
7.18824e-06
6.43665e-06
6.6328e-06
7.25445e-06
7.37962e-06
6.01564e-06
7.04867e-06
7.35398e-06
7.08734e-06
7.06109e-06
7.35647e-06
4.07231e-06
7.05914e-06
7.32922e-06
7.10594e-06
7.10887e-06
4.96406e-07
7.17629e-06
7.18154e-06
5.75459e-06
5.72218e-06
7.36445e-06
5.59128e-06
5.94066e-06
7.35602e-06
2.99741e-06
7.00668e-06
7.27967e-06
6.96494e-06
7.05617e-06
7.18774e-06
7.25902e-06
6.65119e-06
7.36762e-06
7.35248e-06
7.35694e-06
7.35503e-06
5.84592e-06
7.15585e-06
7.3923e-06
9.0197e-07
7.34041e-06
7.36222e-06
7.32336e-06
7.1449e-06
6.57645e-06
7.38e-06
6.12308e-06
7.27092e-06
3.15691e-06
7.56451e-06
6.75361e-06
6.5484e-06
7.35825e-06
5.93221e-06
5.84153e-06
7.19895e-06
6.00404e-06
7.15386e-06
7.3997e-06
5.91647e-07
7.37219e-06
7.23834e-06
5.64956e-06
7.159e-06
7.11809e-06
7.1496e-06
6.68703e-06
7.01493e-06
7.18384e-06
5.73759e-06
6.86602e-06
7.18186e-06
7.16164e-06
7.32884e-06
7.17265e-06
6.99715e-06
7.21143e-06
7.21846e-06
7.34174e-06
6.64788e-06
7.16398e-06
7.10282e-06
7.31551e-06
6.88102e-06
6.01106e-06
5.76698e-06
7.22707e-06
7.11502e-06
7.36944e-06
6.71828e-06
5.55788e-06
7.18588e-06
1.00475e-06
7.15241e-06
6.8575e-06
5.64139e-06
7.08157e-06
7.07102e-06
7.37453e-06
5.75917e-06
7.18724e-06
7.16863e-06
5.68262e-07
7.26535e-06
7.17923e-06
7.11886e-06
5.84199e-07
7.08925e-06
7.32333e-06
7.08308e-06
7.12586e-06
7.19759e-06
7.38061e-06
7.37931e-06
7.24516e-06
7.23176e-06
5.80353e-06
7.36975e-06
7.17684e-06
7.36826e-06
7.23837e-06
7.1797e-06
7.25027e-06
7.31208e-06
6.23484e-06
7.11366e-06
7.15963e-06
5.62278e-06
7.19426e-06
7.07373e-06
7.22839e-06
7.11167e-06
5.45337e-06
4.82773e-07
6.89076e-06
7.17282e-06
6.15771e-06
7.06988e-06
6.8209e-06
4.96095e-07
6.89208e-06
7.42652e-06
5.76733e-06
7.26429e-06
7.08776e-06
7.12524e-06
7.0555e-06
7.20093e-06
4.65566e-06
7.17892e-06
7.2896e-06
7.33639e-06
7.34295e-06
7.16902e-06
7.37068e-06
5.92675e-06
7.10455e-06
6.83769e-06
7.2777e-06
7.27802e-06
5.98551e-06
6.9892e-06
7.16124e-06
7.08579e-06
7.13144e-06
7.3548e-06
7.23807e-06
6.5587e-06
4.93788e-07
7.28566e-06
7.35882e-06
7.27097e-06
7.24935e-06
7.17314e-06
7.37697e-06
7.26819e-06
7.16671e-06
6.09701e-06
7.32972e-06
7.05512e-06
7.094e-06
7.08657e-06
6.97022e-06
7.37541e-06
7.27259e-06
7.35136e-06
7.18543e-06
8.28285e-07
7.35125e-06
7.06961e-06
7.35612e-06
7.10706e-06
7.0699e-06
7.19126e-06
7.30696e-06
6.75255e-06
6.63557e-06
7.33748e-06
7.081e-06
4.58305e-06
5.8077e-06
7.34792e-06
1.63928e-06
7.25481e-06
7.39191e-06
7.37834e-06
7.14856e-06
7.35703e-06
7.0394e-06
5.97841e-06
6.87031e-06
7.13768e-06
7.24611e-06
7.35837e-06
7.08281e-06
7.36843e-06
7.2659e-06
6.59572e-06
3.55669e-06
7.31441e-06
7.0362e-06
7.07292e-06
7.36595e-06
7.22474e-06
7.06431e-06
7.35838e-06
6.76498e-06
7.23906e-06
7.24543e-06
7.21971e-06
7.12559e-06
7.36034e-06
7.38046e-06
7.38193e-06
7.07403e-06
7.14851e-06
7.36393e-06
7.3514e-06
7.35362e-06
7.0411e-06
7.11959e-06
5.67213e-06
6.34536e-07
1.00668e-06
7.3669e-06
5.89166e-06
7.27044e-06
7.25182e-06
7.05687e-06
2.17084e-06
7.10083e-06
7.20665e-06
7.28386e-06
7.28995e-06
7.36149e-06
7.16738e-06
7.24983e-06
7.39166e-06
7.35379e-06
7.08145e-06
5.08719e-06
7.33412e-06
7.09313e-06
7.20438e-06
7.36082e-06
6.14502e-06
7.16489e-06
7.19695e-06
7.36133e-06
7.35806e-06
6.11745e-06
7.08921e-06
7.30344e-06
7.10294e-06
7.13471e-06
5.41456e-06
7.24828e-06
5.77108e-06
7.26888e-06
7.29098e-06
7.36558e-06
7.36072e-06
7.1816e-06
6.73511e-06
7.24255e-06
5.57354e-06
7.35363e-06
1.94728e-07
1.39114e-06
7.11917e-06
7.35624e-06
7.37997e-06
7.2527e-06
7.27718e-06
5.4559e-07
7.32233e-06
7.22272e-06
1.87045e-06
2.55796e-06
2.92905e-06
3.08847e-06
3.56394e-06
4.25119e-06
4.40939e-06
4.78331e-06
4.94433e-06
7.11353e-06
7.08362e-06
7.07153e-06
7.16011e-06
7.15671e-06
7.36876e-06
7.11207e-06
7.34191e-06
7.24932e-06
7.36619e-06
7.35319e-06
7.3572e-06
6.38528e-06
7.03017e-06
5.30914e-06
7.17034e-06
7.23886e-06
7.38175e-06
7.36722e-06
5.36168e-06
7.36883e-06
4.70025e-06
7.1071e-06
7.26642e-06
5.46755e-06
5.52091e-06
6.75795e-07
7.36378e-06
7.25677e-06
7.34688e-06
7.31818e-06
7.16575e-06
7.11086e-06
7.12318e-06
7.3687e-06
5.58118e-07
7.26722e-06
7.29834e-06
7.37102e-06
7.36566e-06
5.57578e-06
6.77955e-06
7.36057e-06
7.10973e-06
6.99056e-06
7.11176e-06
7.11379e-06
7.06347e-06
1.50173e-07
6.35717e-06
7.19797e-06
7.25581e-06
6.451e-06
7.2662e-06
7.34907e-06
7.03081e-06
5.7426e-06
7.25502e-06
7.27235e-06
7.2457e-06
5.27642e-06
7.07714e-06
6.85203e-06
7.33051e-06
7.3611e-06
6.50935e-06
7.13948e-06
7.2333e-06
7.3586e-06
7.35519e-06
5.62173e-06
7.02907e-06
7.16081e-06
7.17038e-06
7.32481e-06
7.10899e-06
7.28656e-06
7.35896e-06
7.34801e-06
7.27091e-06
7.25653e-06
7.17484e-06
7.3766e-06
7.38326e-06
7.38119e-06
7.16588e-06
7.26286e-06
4.74186e-06
6.8022e-06
7.25102e-06
5.44161e-06
7.35682e-06
5.84023e-06
7.39136e-06
7.122e-06
7.29784e-06
5.28926e-06
6.83736e-06
7.3349e-06
7.37602e-06
7.25385e-06
5.52721e-06
7.13282e-06
7.35067e-06
6.04646e-06
7.18508e-06
1.73165e-06
7.33492e-06
7.20649e-06
6.95049e-06
7.38118e-06
7.35575e-06
7.3378e-06
7.31427e-06
6.73748e-06
7.28966e-06
7.10868e-06
6.37376e-06
3.85112e-07
7.24167e-06
7.36923e-06
7.33719e-06
2.48591e-07
7.0289e-06
7.1553e-06
2.60213e-06
7.34051e-06
7.36337e-06
7.27736e-06
5.70454e-06
6.35662e-06
7.3237e-06
6.98263e-06
6.95516e-06
7.11598e-06
7.33492e-06
7.35171e-06
7.36915e-06
7.23392e-06
7.06285e-06
7.31773e-06
7.15614e-06
1.42781e-06
7.29304e-06
7.35374e-06
7.12093e-06
7.23441e-06
7.35512e-06
7.3433e-06
7.38992e-06
7.33196e-06
7.08664e-06
7.35924e-06
6.18141e-06
7.33597e-06
7.27556e-06
7.10657e-06
7.34971e-06
7.39104e-06
6.10531e-06
7.26081e-06
7.28854e-06
7.12944e-06
7.3709e-06
7.36687e-06
7.01291e-06
7.36964e-06
7.30376e-06
7.27881e-06
7.31583e-06
7.12562e-06
7.34105e-06
7.17674e-06
7.31315e-06
7.0825e-06
7.1452e-06
7.35727e-06
7.30158e-06
7.25836e-06
7.17881e-06
7.3313e-06
6.14255e-06
7.27534e-06
7.36808e-06
5.99703e-06
7.21623e-06
7.37408e-06
7.15776e-06
7.30282e-06
7.27534e-06
7.20105e-06
7.07351e-06
7.09444e-06
7.37361e-06
7.22848e-06
7.37516e-06
7.28105e-06
7.23796e-06
7.33538e-06
6.66309e-06
5.15242e-06
7.28844e-06
6.86056e-07
7.0761e-06
6.31688e-06
7.17177e-06
7.33635e-06
7.27389e-06
7.16646e-06
1.11174e-06
7.2566e-06
7.09972e-06
7.25166e-06
7.35324e-06
3.46173e-06
7.01341e-06
8.61789e-07
7.25386e-06
7.37571e-06
7.36944e-06
5.94358e-06
7.24331e-06
7.46751e-06
6.8397e-07
5.49306e-06
6.95787e-06
7.34526e-06
7.34335e-06
6.43887e-06
7.36076e-06
5.57466e-06
5.66206e-06
6.31637e-06
7.35931e-06
7.29563e-06
7.36961e-06
7.34023e-06
7.36562e-06
7.3092e-06
7.37815e-06
5.45866e-06
7.33908e-06
7.53227e-06
7.32811e-06
7.24804e-06
8.2338e-07
7.30178e-06
7.33744e-06
7.35789e-06
6.10435e-06
5.10024e-06