/*--------------------------------*- C++ -*----------------------------------*\
  =========                 |
  \\      /  F ield         | OpenFOAM: The Open Source CFD Toolbox
   \\    /   O peration     | Website:  https://openfoam.org
    \\  /    A nd           | Version:  8
     \\/     M anipulation  |
\*---------------------------------------------------------------------------*/
FoamFile
{
    version     2.0;
    format      ascii;
    class       volScalarField;
    location    "7.6";
    object      p;
}
// * * * * * * * * * * * * * * * * * * * * * * * * * * * * * * * * * * * * * //

dimensions      [0 2 -2 0 0 0 0];

internalField   nonuniform List<scalar> 
7843
(
1.78703e-06
5.61464e-06
6.00876e-06
7.52456e-06
1.32679e-06
7.62399e-06
7.22592e-06
1.02136e-06
7.4702e-06
1.6819e-06
4.26016e-06
1.72752e-06
7.46831e-06
4.48727e-06
3.36122e-06
4.04903e-06
4.18127e-06
3.42869e-06
7.49523e-06
7.35283e-06
7.46002e-06
7.29812e-06
4.33685e-06
6.73379e-06
3.32583e-06
7.45594e-06
2.19762e-07
7.35735e-06
6.93733e-07
7.49712e-06
7.37927e-06
2.26048e-06
7.41435e-06
1.16235e-06
4.03416e-06
3.73101e-06
3.13225e-06
7.23e-06
7.48776e-06
6.19967e-06
3.28882e-06
4.76865e-06
1.3365e-06
5.52861e-06
7.47024e-06
7.27652e-06
4.41214e-06
7.1264e-06
6.01067e-06
7.48045e-06
7.46935e-06
5.44431e-06
2.53005e-06
7.17797e-06
1.51704e-06
7.48932e-06
7.2324e-06
7.44781e-06
5.31602e-07
7.46646e-06
1.18086e-06
7.10342e-06
7.1764e-06
7.41283e-06
3.16946e-07
3.91906e-06
3.91556e-06
7.48653e-06
7.2357e-06
1.10125e-06
7.45353e-06
2.35797e-06
6.31248e-06
7.46863e-06
7.46057e-06
3.68908e-06
1.41169e-06
1.25889e-06
1.99091e-06
7.61879e-06
7.47116e-06
5.08451e-07
4.56274e-06
7.34027e-06
1.67464e-06
1.81962e-06
7.34977e-06
7.02621e-07
7.31246e-06
7.27332e-06
7.45911e-06
5.01836e-06
7.48365e-06
7.38678e-06
7.35522e-06
2.09628e-06
7.48578e-06
2.08786e-07
7.46121e-06
3.78038e-06
2.6674e-07
2.56593e-07
7.32569e-06
3.56956e-07
7.44784e-06
6.55367e-06
7.48372e-06
7.44061e-06
6.59842e-06
5.19744e-06
6.74422e-07
7.15492e-06
7.10633e-06
2.02424e-06
7.39543e-06
6.17857e-06
7.32152e-06
1.02449e-06
7.44253e-06
5.25554e-06
1.40224e-06
1.08607e-06
4.65151e-06
1.17579e-06
7.46311e-06
7.16722e-06
4.85129e-06
6.84394e-06
6.64527e-06
7.60051e-06
5.09798e-06
7.34435e-06
7.44146e-06
1.41907e-06
6.21919e-06
3.05179e-06
7.45212e-06
7.06554e-06
3.21171e-06
7.83627e-07
7.45848e-06
6.76449e-06
7.37841e-06
7.33883e-06
7.48459e-06
7.43491e-06
4.67901e-06
6.31972e-06
6.89184e-06
6.89804e-06
1.82303e-06
7.20763e-06
7.39451e-06
5.48413e-06
4.14506e-06
4.16036e-06
7.42914e-06
7.33577e-06
5.80964e-06
2.6165e-06
7.46277e-06
4.32154e-06
6.8826e-06
4.48223e-06
5.54037e-06
9.40197e-07
7.35263e-06
1.14053e-07
2.45728e-06
4.64385e-06
7.74006e-07
5.29066e-06
4.8055e-06
7.38488e-06
5.04778e-06
7.46294e-06
5.97439e-07
7.47017e-06
4.31892e-06
1.65125e-06
1.60845e-06
1.38704e-06
7.45889e-06
5.90738e-06
4.25795e-06
7.19385e-06
7.48294e-06
7.13341e-06
2.07775e-06
7.26301e-06
2.27871e-06
2.43832e-06
7.41889e-06
7.47224e-06
4.94066e-06
7.47501e-06
7.46065e-06
7.36272e-06
8.62522e-07
6.40892e-06
5.36144e-06
6.19037e-07
4.93869e-06
1.86873e-06
4.16426e-07
7.47631e-06
4.34476e-07
7.47759e-06
7.45458e-06
5.33292e-06
6.95625e-06
5.2793e-06
6.55491e-06
3.25554e-06
4.37649e-06
6.48427e-06
7.38079e-06
1.88413e-06
7.47364e-06
7.19441e-06
7.35809e-06
7.25352e-06
1.42462e-07
5.62695e-06
7.04788e-06
7.39614e-06
6.97314e-06
3.8423e-06
5.7164e-06
7.1068e-06
7.10151e-06
7.48258e-06
7.47949e-06
1.56169e-06
7.27974e-06
4.45398e-06
1.69823e-06
6.91492e-06
4.06805e-06
2.44595e-07
1.85474e-06
2.89256e-06
1.77571e-06
3.14377e-06
7.16357e-06
4.2413e-06
7.42852e-06
7.2531e-06
4.9554e-06
4.18305e-06
7.59003e-06
7.47806e-06
1.99602e-06
4.60912e-06
5.8058e-06
1.94199e-06
7.04325e-06
4.53123e-06
2.52781e-07
7.44545e-06
7.42651e-06
7.28102e-06
2.69199e-07
4.84201e-06
1.71657e-06
7.11372e-06
7.47716e-06
5.37246e-06
7.47876e-06
6.9263e-06
7.46435e-06
7.48105e-06
7.42445e-06
6.89672e-06
5.07614e-06
7.35929e-06
2.18788e-06
1.54301e-06
7.19535e-06
5.00358e-06
7.98889e-07
4.68668e-06
5.17692e-06
7.36334e-06
7.42356e-06
7.47351e-06
7.26232e-06
4.96038e-06
6.50155e-07
5.55602e-06
7.4774e-06
7.38413e-06
7.42646e-06
1.73918e-06
7.17723e-06
2.5264e-06
2.89444e-06
7.13564e-06
6.87815e-06
5.63559e-06
6.98559e-06
7.30994e-06
2.81812e-06
2.49921e-06
7.4096e-06
7.19498e-06
7.47678e-06
6.39826e-06
7.2128e-06
7.14852e-06
7.19367e-06
6.88107e-06
7.33515e-06
7.46691e-06
7.46937e-06
7.3507e-06
5.45559e-06
4.59564e-06
7.40102e-06
2.88791e-06
7.46721e-06
7.46916e-06
5.12847e-06
4.91966e-06
7.24276e-06
7.00537e-06
7.52463e-06
7.40843e-06
7.07149e-06
7.4689e-06
2.68576e-06
4.76428e-06
7.42984e-06
7.45284e-06
6.83487e-06
7.27626e-06
2.96608e-07
2.65342e-06
6.26713e-06
7.28878e-06
7.24273e-06
2.33766e-06
7.46877e-06
3.26487e-07
7.10327e-06
2.86724e-07
2.58092e-06
7.27201e-06
7.20288e-06
1.80661e-07
7.51293e-06
2.51052e-06
7.46993e-06
7.46967e-06
2.15369e-06
7.47366e-06
7.21022e-06
7.20447e-06
2.14294e-06
5.40927e-06
7.78552e-06
5.1549e-06
7.04912e-06
8.02454e-06
7.49697e-06
2.45118e-06
5.81723e-06
7.24721e-06
7.3853e-06
5.63718e-06
5.51962e-06
7.42714e-06
1.9476e-06
7.22303e-06
1.32178e-06
7.58571e-06
4.88612e-06
4.41102e-06
4.4176e-06
7.62558e-06
5.09545e-06
7.35389e-06
7.54004e-06
7.23891e-06
3.3268e-07
2.4471e-06
4.41295e-06
7.46412e-06
2.0528e-07
3.19839e-06
4.33534e-06
7.42616e-06
7.42015e-06
7.45941e-06
7.13645e-06
2.741e-06
7.47687e-06
6.83162e-06
7.41546e-06
1.30324e-06
1.65573e-06
7.47119e-06
7.46334e-06
5.44229e-08
5.80453e-06
5.76852e-06
5.31272e-06
5.89732e-06
7.4672e-06
7.08446e-06
7.17109e-06
2.17618e-06
6.30349e-06
7.40352e-06
6.17126e-06
7.47116e-06
7.47513e-06
5.84771e-06
4.9977e-06
5.20945e-06
7.30548e-06
7.16695e-06
7.46537e-06
2.22264e-06
1.83154e-07
1.52127e-07
7.27243e-06
1.91766e-07
7.437e-06
7.17988e-06
7.48873e-06
7.4756e-06
2.34896e-06
7.48265e-06
6.2986e-06
6.99012e-06
7.42563e-06
5.70634e-06
2.98356e-06
7.47608e-06
1.92177e-06
7.4212e-06
7.30306e-06
7.46478e-06
5.97143e-06
7.20613e-06
7.17581e-06
6.62085e-06
7.4049e-06
5.95015e-06
9.19819e-07
8.57634e-07
7.20784e-06
7.17286e-06
7.2338e-06
2.77997e-06
2.33696e-06
7.39722e-06
6.30666e-06
7.47337e-06
7.30798e-06
6.01571e-07
1.65776e-07
1.55984e-07
7.3059e-06
2.26953e-07
7.27251e-06
7.22799e-06
7.45555e-06
6.964e-06
2.83818e-06
7.55269e-07
7.46248e-06
7.48654e-06
7.30498e-06
2.07456e-06
6.06132e-06
7.47317e-06
7.08881e-06
5.62452e-06
6.98778e-06
7.34302e-06
7.38288e-06
7.43438e-06
7.00246e-06
7.22862e-06
2.64679e-06
6.24564e-06
7.56251e-08
5.24897e-07
4.78278e-06
6.17754e-06
7.47383e-06
2.16459e-06
7.38841e-06
7.56545e-06
6.4605e-08
7.6679e-08
7.37679e-06
7.47001e-06
2.97108e-06
7.4656e-06
1.08098e-06
6.68916e-06
2.20135e-06
1.40165e-06
1.00072e-06
7.46596e-06
2.34297e-06
6.32715e-06
7.4707e-06
7.49196e-06
3.06485e-06
2.80794e-06
7.10648e-06
5.7089e-06
7.03589e-06
7.37453e-06
7.44028e-06
7.03484e-06
6.56587e-06
6.85462e-06
2.22886e-06
5.23373e-06
7.23392e-06
6.24418e-06
5.54595e-06
7.40678e-06
6.9343e-06
7.29166e-06
7.45436e-06
7.47295e-06
5.03528e-06
7.46249e-06
7.35982e-06
7.26735e-06
7.3976e-06
7.47347e-06
5.30774e-06
7.33026e-06
2.12197e-06
7.45524e-06
5.22709e-06
4.08041e-07
5.76835e-06
7.3018e-06
5.94024e-07
2.22098e-06
3.75351e-06
4.96701e-06
7.43604e-06
5.70754e-06
7.4055e-06
7.35309e-06
7.19678e-06
5.11565e-06
6.43627e-06
7.03608e-06
7.4809e-06
1.64106e-06
6.44305e-06
5.31717e-06
5.77548e-06
4.33219e-06
7.45855e-06
1.16129e-06
7.46048e-06
1.60758e-06
3.45457e-06
7.11002e-06
5.58687e-06
2.36034e-06
6.87874e-07
7.46719e-06
7.09696e-06
5.92017e-06
4.92571e-06
7.32584e-06
7.20223e-06
5.40106e-07
7.43781e-06
7.42245e-06
1.17419e-06
7.31904e-06
7.47416e-06
7.11861e-06
7.32104e-06
5.44448e-06
7.2257e-06
7.37488e-06
7.28103e-06
7.36239e-06
7.4558e-06
3.30725e-06
6.81283e-06
1.61111e-06
7.44827e-06
6.17598e-06
7.45669e-06
7.26566e-06
7.14915e-06
7.48007e-06
1.62911e-06
7.73161e-08
1.16319e-07
5.53181e-06
5.29417e-06
3.93109e-06
2.91599e-06
7.40305e-06
7.44174e-06
5.17323e-06
6.42477e-06
7.0714e-06
3.07715e-06
5.32571e-06
7.45291e-06
3.55066e-06
5.48257e-06
7.31182e-06
7.47752e-06
7.50723e-06
4.84539e-06
7.13843e-06
7.31844e-06
7.23917e-06
6.79094e-06
7.31256e-06
7.20618e-06
6.07955e-06
7.14282e-06
6.98311e-06
6.6659e-06
3.81821e-06
7.13177e-06
2.27921e-07
7.37342e-06
7.4452e-06
7.43809e-06
7.35572e-06
7.15406e-06
7.04142e-06
5.76324e-06
4.57339e-06
4.57382e-06
7.47285e-07
7.16111e-06
3.71317e-06
7.06235e-06
7.41788e-06
7.47051e-06
7.46789e-06
7.4063e-06
7.18838e-06
7.0608e-06
7.33891e-06
7.3838e-06
7.38671e-06
5.06588e-06
3.21228e-06
5.6908e-06
7.43644e-06
7.4684e-06
7.318e-06
8.38102e-07
7.47242e-06
7.21366e-06
7.15063e-06
2.69952e-06
1.58213e-06
7.1079e-06
6.33031e-06
3.39276e-06
7.16683e-06
7.46969e-06
7.07459e-06
6.01632e-06
7.31202e-06
7.25379e-06
5.47202e-06
7.47787e-06
4.08619e-06
7.45685e-06
5.00116e-06
7.12894e-06
7.38066e-06
1.1638e-06
7.1969e-06
7.4278e-06
6.83672e-06
4.48705e-06
2.54386e-06
5.55313e-06
3.61712e-06
6.968e-06
7.17663e-06
7.25293e-06
7.42713e-06
3.50283e-06
7.2975e-06
7.11229e-06
1.09169e-06
7.47651e-06
6.4499e-06
1.76787e-06
7.46737e-06
7.47335e-06
7.46038e-06
7.12924e-06
7.46686e-06
3.37418e-06
7.47304e-06
5.77772e-07
7.3579e-06
3.34553e-07
7.45775e-06
7.53821e-06
4.72489e-06
7.47173e-06
5.75202e-06
7.32639e-06
7.45217e-06
7.43777e-06
3.79825e-06
1.37637e-06
7.04292e-06
7.17602e-06
7.14489e-06
7.46275e-06
6.76585e-06
7.3511e-06
7.0808e-06
5.07616e-06
7.18418e-06
8.28272e-07
2.66073e-06
4.71911e-07
5.76275e-06
6.38691e-06
7.33985e-06
5.95564e-06
4.51843e-07
7.47462e-06
7.18727e-06
7.47174e-06
7.42081e-06
7.09472e-06
7.32095e-06
7.28242e-06
7.1959e-06
7.18112e-06
7.0632e-06
7.46167e-06
7.02256e-06
2.43231e-07
6.38283e-06
7.23529e-06
7.16175e-06
1.73284e-06
7.17863e-06
7.15808e-06
7.37279e-06
7.10682e-06
2.04182e-06
7.47576e-06
7.44967e-06
7.33952e-06
7.16482e-06
7.2066e-06
7.34308e-06
5.23368e-07
7.47259e-06
7.44578e-06
3.56521e-06
9.93145e-07
2.52934e-06
9.6878e-07
7.5992e-06
7.08536e-06
7.46401e-06
5.81734e-06
7.34203e-06
7.74216e-07
6.57394e-06
5.32568e-07
7.47633e-06
7.27318e-06
7.46429e-06
7.44238e-07
7.2624e-06
7.20515e-06
7.44238e-06
6.67634e-06
7.19464e-06
6.75711e-06
7.22518e-06
7.45346e-06
7.4532e-06
7.33489e-06
7.29319e-06
7.46551e-06
7.35829e-06
6.02296e-06
3.22659e-06
7.21905e-06
2.57976e-06
7.39597e-06
7.44012e-06
7.18325e-06
4.90398e-06
7.01482e-06
2.02681e-06
7.46534e-06
6.78301e-06
1.21396e-06
4.83009e-07
7.22502e-06
7.14727e-06
2.20346e-06
7.31553e-06
7.11416e-06
7.56369e-06
7.29662e-06
7.23856e-06
4.71244e-06
7.30563e-06
6.88013e-06
7.30814e-06
7.20931e-06
7.4622e-06
7.21228e-06
6.97008e-06
7.21704e-06
3.79384e-06
2.41808e-06
7.21255e-06
7.47948e-06
7.38628e-06
3.14664e-07
7.40953e-06
2.42976e-06
7.38847e-06
7.46711e-06
9.49062e-07
7.46506e-06
7.44235e-06
7.15642e-06
7.46588e-06
1.23977e-06
5.97905e-06
7.4527e-06
7.34712e-06
7.21815e-06
7.22554e-06
7.42053e-06
1.32202e-06
6.8256e-06
6.90315e-06
7.45568e-06
6.5636e-06
7.44022e-06
7.32237e-06
7.14256e-06
5.86332e-06
7.26926e-06
7.41063e-06
7.33569e-06
4.15205e-07
7.48406e-06
6.64808e-06
7.37047e-06
7.03635e-06
7.38237e-06
7.47156e-06
7.21471e-06
6.43589e-06
7.34948e-06
7.05775e-06
7.48172e-06
7.45922e-06
7.36984e-06
7.27722e-06
6.69662e-06
7.47656e-06
6.89102e-06
7.44641e-06
5.1625e-06
1.22215e-06
6.72284e-06
4.86218e-06
7.17738e-06
6.80234e-06
7.45351e-06
7.4724e-06
7.2572e-06
7.22503e-06
7.24381e-06
5.65079e-06
5.94864e-06
7.32358e-06
7.45911e-06
7.12863e-06
6.27078e-06
7.45489e-06
7.16364e-06
7.16835e-06
7.15361e-06
7.44567e-06
7.23766e-06
1.9631e-06
7.46479e-06
6.29055e-06
1.55775e-06
7.49698e-06
1.4868e-06
7.38556e-06
7.28349e-06
7.22726e-06
7.41351e-06
7.21542e-06
4.82256e-06
7.35478e-06
5.46734e-06
7.38319e-06
7.43723e-06
7.38814e-06
1.40446e-06
7.35068e-06
4.17469e-06
7.38573e-06
7.36156e-06
5.70892e-06
7.28066e-06
3.6547e-06
6.55301e-06
7.24716e-06
7.32285e-06
7.3936e-06
6.70804e-07
7.64813e-07
7.30203e-06
7.2336e-06
7.3619e-06
7.24491e-06
3.87474e-06
7.16129e-06
1.23923e-07
4.58503e-07
7.32087e-06
7.47077e-06
7.3049e-06
6.41966e-06
7.37833e-06
7.46148e-06
1.90088e-06
7.30124e-06
7.46436e-06
7.47542e-06
1.02461e-06
7.32699e-06
7.21061e-06
1.13172e-06
7.43467e-06
7.40444e-06
7.21645e-06
6.47747e-06
7.36218e-06
4.25014e-07
7.37008e-06
7.47701e-06
7.41537e-06
7.45955e-06
2.14829e-06
2.01501e-06
7.09015e-06
7.31076e-06
7.46739e-06
7.38426e-06
7.47629e-06
7.22523e-06
6.35099e-06
7.39812e-06
7.39769e-06
7.31249e-06
7.35784e-06
6.50017e-06
7.44644e-06
7.05036e-06
7.31682e-06
1.49416e-06
7.45506e-06
7.3842e-06
7.33999e-06
7.43477e-06
7.39956e-06
7.43604e-06
7.33e-06
4.49418e-06
2.14361e-06
7.46668e-06
7.46715e-06
6.28355e-06
6.14138e-06
7.44429e-06
7.44842e-06
7.39283e-06
7.19333e-06
7.36834e-06
7.22696e-06
7.41777e-06
7.33202e-06
7.36436e-06
6.68299e-06
6.00481e-06
7.19338e-06
7.34574e-06
7.45268e-06
5.75534e-06
7.35411e-06
7.42961e-06
7.16907e-06
7.3367e-06
7.4078e-06
7.42387e-06
7.43397e-06
7.44771e-06
6.19492e-06
7.23589e-06
7.45711e-06
7.4709e-06
7.40218e-06
1.81332e-06
7.38256e-06
7.37438e-06
7.36564e-06
7.35751e-06
7.48096e-06
7.40339e-06
6.14062e-06
7.39548e-06
6.32355e-06
7.18577e-06
7.24477e-06
6.05863e-06
4.494e-07
7.42174e-06
7.38322e-06
7.15356e-06
7.4476e-06
7.44526e-06
7.49099e-06
6.06293e-06
7.4288e-06
7.41116e-06
7.13093e-06
5.8356e-06
2.38643e-06
7.45899e-06
7.38706e-07
7.42997e-06
7.47671e-06
7.46759e-06
7.45733e-06
6.23713e-06
7.46026e-06
7.44444e-06
7.4491e-06
6.07489e-06
7.44352e-06
6.78212e-06
7.47278e-06
5.794e-06
6.90268e-06
7.29545e-06
7.0252e-06
5.78269e-06
7.32242e-06
5.68433e-06
7.49642e-06
7.38508e-06
7.39827e-06
7.48312e-06
6.26435e-06
7.50024e-06
7.4673e-06
5.1466e-06
7.31102e-06
7.49512e-06
7.47471e-06
7.45947e-06
7.44137e-06
7.1503e-06
7.406e-06
7.38079e-06
7.1325e-06
5.69847e-06
7.4402e-06
7.44835e-06
5.74382e-06
7.44291e-06
7.37889e-06
6.15802e-06
4.56308e-06
7.3808e-06
2.62917e-06
7.4476e-06
7.47802e-06
7.47058e-06
7.34991e-06
7.43337e-06
7.47779e-06
7.40041e-06
7.46986e-06
5.6533e-06
5.79658e-06
3.14561e-06
7.4166e-06
6.78478e-06
5.46586e-06
7.44988e-06
7.36637e-06
7.33845e-06
7.46793e-06
7.4326e-06
6.48322e-06
7.46997e-06
7.45008e-06
7.41385e-06
7.46825e-06
5.75379e-07
7.2146e-06
7.46888e-06
1.73163e-06
4.6606e-06
6.16804e-06
3.28999e-07
7.39628e-06
7.33871e-06
7.45307e-06
5.98438e-06
7.46921e-06
7.47256e-06
1.49093e-06
3.63179e-06
6.45681e-06
7.46815e-06
7.43529e-06
7.43813e-06
6.04616e-06
7.21466e-06
7.43465e-06
7.2908e-06
7.47223e-06
5.76607e-06
7.42539e-06
6.05439e-06
4.74124e-06
7.28472e-06
7.21709e-06
1.10059e-06
7.41316e-06
5.30854e-06
7.47172e-06
6.1208e-06
7.40672e-06
7.46313e-06
2.06421e-06
7.45831e-06
5.64391e-06
7.45167e-06
7.45052e-06
7.28324e-06
7.47363e-06
3.66804e-06
7.47183e-06
7.45509e-06
7.46597e-06
5.16773e-07
7.22036e-06
7.43796e-06
7.42972e-06
7.18666e-06
7.37514e-06
5.38773e-06
6.11338e-07
7.47468e-06
7.34292e-06
7.44707e-06
7.45233e-06
7.43893e-06
7.42505e-06
7.2824e-06
6.20813e-06
7.38762e-06
6.41476e-06
7.46158e-06
3.61024e-06
7.41412e-06
7.35335e-06
5.5423e-06
7.14308e-06
7.41165e-06
7.20531e-06
7.32867e-06
7.46098e-06
7.47294e-06
7.4558e-06
5.61581e-06
7.48202e-06
7.46684e-06
7.46437e-06
3.03356e-06
7.24664e-06
6.0119e-06
7.42932e-06
3.95588e-06
7.47956e-06
7.45857e-06
7.083e-06
6.11193e-06
5.76149e-06
7.44032e-06
5.82865e-06
5.61869e-06
7.39702e-06
7.4434e-06
5.62577e-06
6.03226e-06
7.46781e-06
7.42294e-06
5.91076e-06
5.06832e-06
7.47164e-06
2.06256e-06
7.43965e-06
7.20737e-06
7.45393e-06
7.20109e-06
7.38666e-06
7.47119e-06
7.15165e-06
7.47194e-06
5.29247e-07
7.45937e-06
7.20079e-06
7.4695e-06
6.04738e-06
5.88694e-06
5.95858e-06
5.96764e-06
7.43546e-06
7.49641e-06
7.39573e-06
7.46438e-06
7.1994e-06
7.46897e-06
5.21787e-06
7.47197e-06
7.47952e-06
7.30704e-06
7.47797e-06
7.38702e-06
5.76548e-06
6.0253e-06
7.47186e-06
7.45949e-06
7.41785e-06
1.81973e-06
7.44058e-06
6.17847e-06
7.47583e-06
7.4324e-06
7.45603e-06
7.47802e-06
7.51201e-06
6.15457e-06
7.47496e-06
5.9238e-06
7.44784e-06
7.47462e-06
7.4626e-06
6.35093e-06
7.47108e-06
1.65e-06
7.46748e-06
5.88854e-06
6.44274e-06
7.45987e-06
7.47119e-06
7.18833e-06
5.73385e-06
7.41856e-06
6.17261e-06
7.47101e-06
7.47128e-06
7.46296e-06
7.44979e-06
7.45567e-06
6.16043e-06
6.04503e-06
3.72085e-07
7.46362e-06
4.94064e-07
7.41017e-06
7.37198e-06
7.44854e-06
7.48062e-06
6.96744e-06
7.11965e-06
7.42277e-06
7.46805e-06
7.42e-06
6.96309e-06
6.06022e-06
6.2965e-06
5.55205e-06
7.46022e-06
7.44762e-06
7.47588e-06
7.43252e-06
7.44836e-06
7.50504e-06
5.95557e-06
7.43633e-06
7.47772e-06
7.47275e-06
7.47145e-06
7.37918e-06
7.38884e-06
7.34139e-06
7.44533e-06
6.64374e-06
6.02747e-06
7.34867e-06
5.92409e-06
7.44925e-06
7.41031e-06
7.44885e-06
7.4681e-06
3.83775e-06
7.4126e-06
5.55593e-06
7.17764e-06
5.87366e-06
7.47793e-06
7.47893e-06
5.79069e-06
6.95919e-06
7.23351e-06
6.03131e-06
7.34358e-06
7.47055e-06
7.48627e-06
5.68523e-06
5.94898e-06
7.48176e-06
7.42125e-06
6.1487e-06
7.4501e-06
7.43834e-06
7.6148e-06
6.55613e-06
7.44685e-06
7.45226e-06
7.47718e-06
7.41868e-06
7.45595e-06
7.26619e-06
7.45999e-06
7.47654e-06
7.44607e-06
7.45717e-06
7.43934e-06
7.45005e-06
2.25702e-06
7.47884e-06
5.93334e-06
7.46397e-06
6.01195e-06
7.4535e-06
7.47536e-06
7.52837e-06
7.47049e-06
7.45136e-06
7.47806e-06
7.45042e-06
7.54823e-06
7.44948e-06
7.45145e-06
7.48997e-06
7.47327e-06
7.44165e-06
7.15727e-06
5.78797e-06
7.46938e-06
7.47719e-06
7.47209e-06
7.4246e-06
6.90532e-07
5.56831e-06
7.47644e-06
7.45177e-06
7.47307e-06
7.47338e-06
7.4758e-06
7.47578e-06
5.8589e-06
5.79175e-06
7.48391e-06
6.85473e-06
4.66362e-06
7.47841e-06
5.4743e-06
7.43505e-06
7.44933e-06
5.8301e-06
7.48403e-06
7.48422e-06
7.44589e-06
7.47368e-06
7.45186e-06
7.4785e-06
7.47307e-06
7.477e-06
7.48348e-06
7.19232e-06
7.40058e-06
5.90706e-06
5.961e-06
7.4687e-06
7.47228e-06
7.45131e-06
5.42726e-06
5.8388e-06
7.41554e-06
7.4762e-06
7.47284e-06
5.50019e-06
7.44206e-06
7.48631e-06
7.47161e-06
5.97409e-06
6.98215e-06
7.48524e-06
7.48204e-06
5.36052e-07
7.47001e-06
7.48365e-06
7.47428e-06
7.47321e-06
7.47364e-06
5.49576e-06
7.47501e-06
5.86645e-06
7.50815e-06
7.46657e-06
7.47025e-06
7.46501e-06
7.40302e-06
7.47974e-06
7.49033e-06
7.4724e-06
7.27812e-06
7.46865e-06
7.48296e-06
7.45158e-06
5.93886e-06
6.08007e-06
7.47745e-06
7.49649e-06
7.44926e-06
7.47028e-06
7.47547e-06
7.47344e-06
7.47892e-06
7.47575e-06
7.26314e-06
7.47706e-06
7.32423e-06
6.91816e-06
7.4784e-06
7.22615e-06
7.45511e-06
7.45421e-06
5.39582e-06
7.4424e-06
5.84541e-06
7.46785e-06
7.45107e-06
7.47969e-06
5.3107e-06
7.46155e-06
7.47559e-06
7.47903e-06
7.45237e-06
7.4591e-06
7.46463e-06
7.47693e-06
7.45179e-06
7.45189e-06
7.33207e-06
5.39179e-06
7.48109e-06
7.47517e-06
7.47314e-06
5.71295e-06
1.71933e-06
7.47827e-06
7.45901e-06
7.49212e-06
7.48057e-06
7.46383e-06
7.41769e-06
7.56963e-06
7.45552e-06
7.43083e-06
7.44304e-06
7.47148e-06
7.47873e-06
7.45515e-06
7.41947e-06
6.04226e-06
7.45138e-06
7.45929e-06
5.77394e-06
7.461e-06
7.47649e-06
7.47645e-06
6.14904e-06
2.30523e-06
5.93607e-06
7.47045e-06
5.92914e-06
7.47037e-06
5.96065e-06
7.45183e-06
5.34169e-06
6.13575e-06
7.43692e-06
5.70816e-06
7.45355e-06
7.42318e-06
7.41454e-06
6.22111e-07
5.23003e-06
7.4578e-06
4.45349e-07
7.45029e-06
7.48023e-06
5.93402e-06
7.44929e-06
5.87893e-06
7.46807e-06
7.47516e-06
7.46521e-06
7.46809e-06
7.44539e-06
7.45074e-06
7.46061e-06
7.47522e-06
7.46944e-06
6.16449e-06
5.73936e-06
7.46858e-06
7.48189e-06
5.74257e-06
7.44403e-06
7.47478e-06
7.47766e-06
6.93792e-06
7.47864e-06
5.62711e-06
7.46615e-06
7.4854e-06
7.46683e-06
1.99103e-06
5.92878e-06
7.45045e-06
5.31713e-06
7.45003e-06
3.51955e-06
7.4475e-06
7.39328e-06
7.47379e-06
7.46676e-06
7.4569e-06
5.70391e-06
7.45342e-06
7.4527e-06
7.46222e-06
7.47808e-06
7.47807e-06
7.45327e-06
7.45176e-06
5.82204e-06
5.35252e-06
7.47351e-06
7.46598e-06
7.42466e-06
5.63393e-06
7.44694e-06
7.61191e-06
7.46672e-06
7.45848e-06
7.45876e-06
7.44888e-06
7.36194e-06
5.69148e-06
5.86587e-06
7.45048e-06
7.22544e-06
7.44391e-06
7.44462e-06
7.47683e-06
7.46098e-06
7.46109e-06
7.46962e-06
7.46162e-06
5.41912e-06
7.46825e-06
7.43917e-06
5.68674e-06
7.43925e-06
7.47945e-06
7.45189e-06
7.46774e-06
7.46595e-06
5.68261e-06
7.46859e-06
7.44187e-06
5.27601e-06
7.46387e-06
7.45994e-06
5.79128e-06
7.441e-06
5.74692e-06
7.46539e-06
7.4774e-06
7.45664e-06
5.78739e-06
7.47674e-06
7.46995e-06
7.44988e-06
7.41908e-06
5.47291e-06
5.71966e-06
7.4582e-06
7.44429e-06
7.47986e-06
7.46207e-06
7.46026e-06
7.48578e-06
7.49354e-06
7.44995e-06
7.43653e-06
5.76547e-06
7.45249e-06
7.45125e-06
7.48118e-06
7.41621e-06
7.4535e-06
5.69925e-06
5.64648e-06
7.40589e-06
5.85043e-06
7.44132e-06
7.46929e-06
7.44721e-06
7.4221e-06
7.45355e-06
5.61001e-06
7.48e-06
5.87258e-06
7.47386e-06
5.20521e-06
7.45243e-06
7.21667e-06
7.45029e-06
7.45411e-06
7.45094e-06
7.4502e-06
7.47335e-06
7.45405e-06
7.44253e-06
7.45778e-06
5.65806e-06
7.60232e-06
7.47935e-06
7.43896e-06
7.48561e-06
7.45282e-06
7.45677e-06
7.43292e-06
7.46228e-06
7.45976e-06
7.48472e-06
7.44936e-06
5.54231e-06
5.55571e-06
5.47687e-06
2.44676e-06
7.45767e-06
7.45643e-06
7.43987e-06
5.70784e-06
7.44296e-06
7.42166e-06
5.2377e-06
5.8427e-06
5.76969e-06
5.62336e-06
7.46985e-06
5.79733e-06
7.45081e-06
1.98194e-06
7.45188e-06
7.45135e-06
7.42349e-06
7.45948e-06
1.17684e-06
7.45321e-06
7.43051e-06
7.42623e-06
7.45433e-06
7.45766e-06
7.45614e-06
5.63433e-06
7.4258e-06
7.44476e-06
4.5463e-07
7.4563e-06
7.45028e-06
7.47287e-06
7.47238e-06
7.47033e-06
7.43101e-06
7.46299e-06
7.47075e-06
7.42197e-06
7.46816e-06
7.44703e-06
7.47391e-06
7.4604e-06
7.41445e-06
5.65817e-06
7.43506e-06
7.45441e-06
7.46208e-06
7.46129e-06
7.45988e-06
7.46003e-06
7.44579e-06
7.46952e-06
5.57405e-06
7.43333e-06
7.38271e-06
7.45117e-06
5.49086e-06
7.4799e-06
7.42955e-06
5.52909e-06
5.52201e-06
7.45636e-06
5.47814e-06
7.44744e-06
5.77514e-06
6.98892e-06
5.15813e-06
5.57567e-06
7.44297e-06
1.32959e-06
7.44898e-06
7.48016e-06
5.55598e-06
7.45857e-06
5.40895e-06
7.42579e-06
7.47997e-06
7.46709e-06
7.42941e-06
5.60206e-06
5.68798e-06
7.47959e-06
7.44745e-06
5.52765e-06
5.47808e-06
5.61032e-06
5.58835e-06
7.45917e-06
5.62146e-06
7.45524e-06
5.5718e-06
7.45386e-06
7.45766e-06
5.36098e-06
5.60417e-06
5.62626e-06
5.57263e-06
7.45671e-06
7.45881e-06
7.46228e-06
5.26323e-06
7.45677e-06
7.43361e-06
1.99287e-06
7.37499e-06
7.44189e-06
5.15008e-06
5.07909e-06
7.4593e-06
5.3877e-06
5.49456e-06
7.00262e-06
7.4496e-06
7.46399e-06
7.48792e-06
5.55315e-06
5.60216e-06
5.49577e-06
5.55046e-06
7.44797e-06
7.44484e-06
7.65311e-06
5.46276e-06
5.44833e-06
7.44276e-06
7.46379e-06
7.46528e-06
7.4666e-06
7.4626e-06
5.4006e-06
7.44781e-06
5.67154e-06
7.46205e-06
5.57854e-06
5.54545e-06
7.46817e-06
7.1645e-06
7.46874e-06
7.69356e-06
7.45034e-06
7.46828e-06
7.45844e-06
7.46043e-06
5.53185e-06
5.68755e-06
7.45576e-06
7.46812e-06
5.51805e-06
5.63339e-06
7.46646e-06
5.38126e-06
5.36763e-06
7.46577e-06
5.4142e-06
5.39737e-06
5.32563e-06
7.44444e-06
7.45348e-06
7.45217e-06
5.3769e-06
5.75593e-06
7.44554e-06
5.44142e-06
5.3592e-06
5.32316e-06
7.47627e-06
7.44196e-06
5.46482e-06
7.44882e-06
5.00476e-06
7.44412e-06
7.47339e-06
7.46302e-06
5.32764e-06
5.28687e-06
5.37285e-06
7.47378e-06
5.33408e-06
5.45255e-06
5.4582e-06
5.02649e-06
5.44042e-06
5.01791e-06
4.91933e-06
5.38427e-06
5.40216e-06
4.946e-06
5.506e-06
5.34151e-06
5.53964e-06
7.43754e-06
5.24566e-06
5.26262e-06
5.27814e-06
5.25409e-06
4.856e-06
7.44904e-06
5.17977e-06
5.61054e-06
5.30372e-06
5.20607e-06
7.47029e-06
5.34265e-06
5.34152e-06
7.42266e-06
5.17159e-06
7.4316e-06
7.46238e-06
4.92356e-06
4.84627e-06
5.26109e-06
5.30592e-06
5.18924e-06
5.29577e-06
5.16812e-06
7.46608e-06
4.76132e-06
5.12532e-06
5.17413e-06
7.45723e-06
5.24869e-06
4.6608e-06
5.49938e-06
5.22307e-06
5.09031e-06
5.29257e-06
4.68498e-06
5.00126e-06
5.0866e-06
5.00582e-06
5.0938e-06
4.92487e-06
5.04447e-06
4.64735e-06
4.62174e-06
4.8896e-06
7.46681e-06
5.14236e-06
5.01216e-06
5.1185e-06
5.09437e-06
4.97056e-06
4.59572e-06
4.565e-06
5.21426e-06
5.13156e-06
4.5803e-06
5.02217e-06
5.10361e-06
5.01291e-06
4.97588e-06
5.06158e-06
5.08229e-06
7.47454e-06
4.96352e-06
5.27078e-06
4.75266e-06
4.95677e-06
4.9376e-06
4.99637e-06
5.05212e-06
5.0158e-06
4.51151e-06
5.07315e-06
4.71291e-06
5.10786e-06
4.88257e-06
5.13821e-06
5.05368e-06
5.0345e-06
4.8957e-06
4.93487e-06
4.79464e-06
4.63246e-06
4.49897e-06
4.95297e-06
4.93119e-06
4.96962e-06
4.98071e-06
5.13332e-06
5.0985e-06
4.87194e-06
5.05057e-06
4.91528e-06
5.10217e-06
4.91971e-06
4.43206e-06
4.98474e-06
4.89821e-06
7.47439e-06
4.84303e-06
4.80158e-06
4.84795e-06
4.84281e-06
4.87553e-06
4.89981e-06
4.5282e-06
4.93503e-06
4.55152e-06
4.42405e-06
4.34814e-06
7.42479e-06
7.46734e-06
4.35183e-06
4.85666e-06
4.86435e-06
4.82044e-06
4.72064e-06
4.76294e-06
4.74297e-06
4.62742e-06
4.96423e-06
4.83381e-06
4.71379e-06
4.85506e-06
4.76527e-06
4.80855e-06
4.81889e-06
4.78331e-06
5.26186e-06
4.40508e-06
4.63972e-06
4.8075e-06
4.33074e-06
4.27278e-06
4.67657e-06
4.70177e-06
4.68744e-06
4.93619e-06
4.85486e-06
4.88849e-06
4.66535e-06
4.48436e-06
4.27014e-06
4.55882e-06
4.73792e-06
4.72661e-06
4.19432e-06
4.59037e-06
4.44379e-06
4.60967e-06
4.65697e-06
4.54939e-06
4.54862e-06
4.59117e-06
4.62961e-06
4.51426e-06
4.54844e-06
4.77387e-06
4.62626e-06
4.56551e-06
4.47787e-06
4.12621e-06
4.67782e-06
4.5071e-06
4.70361e-06
4.46021e-06
4.64547e-06
4.56451e-06
4.51033e-06
4.58779e-06
4.46727e-06
4.5318e-06
4.55446e-06
4.59542e-06
4.44999e-06
7.36238e-07
4.1171e-06
4.61204e-06
4.57607e-06
4.47154e-06
4.204e-06
4.48448e-06
3.978e-06
4.67779e-06
4.05161e-06
8.01143e-07
4.39692e-06
4.46827e-06
4.04381e-06
4.531e-06
4.42508e-06
4.38918e-06
4.45375e-06
4.7051e-06
4.49517e-06
4.48356e-06
3.45484e-06
4.47107e-06
4.35438e-06
4.40317e-06
3.98034e-06
4.41425e-06
4.47034e-06
4.51329e-06
4.31593e-06
4.34398e-06
4.37929e-06
3.4796e-06
4.30834e-06
4.11437e-06
3.56976e-06
3.6859e-06
4.43503e-06
4.37555e-06
4.43294e-06
4.23494e-06
4.40233e-06
4.10015e-06
4.32131e-06
4.3333e-06
4.36892e-06
4.1028e-06
4.26353e-06
4.54107e-06
3.2908e-06
3.73411e-06
3.92185e-06
4.18317e-06
4.29726e-06
4.39015e-06
4.16004e-06
4.23852e-06
4.22703e-06
4.14615e-06
4.27871e-06
4.27351e-06
4.15976e-06
4.15402e-06
4.64683e-06
3.77964e-06
4.14339e-06
4.19191e-06
4.07775e-06
3.32459e-06
4.25224e-06
4.24032e-06
4.29806e-06
3.81481e-06
4.23785e-06
4.21891e-06
3.77497e-06
4.24103e-06
3.88971e-06
4.17113e-06
4.17114e-06
3.85115e-06
3.96147e-06
4.23368e-06
4.18626e-06
4.26798e-06
4.07308e-06
3.93448e-06
4.14043e-06
3.71773e-06
4.06534e-06
4.2511e-06
4.07864e-06
3.97009e-06
4.12403e-06
4.34639e-06
3.85522e-06
4.15561e-06
4.22429e-06
3.97442e-06
4.1591e-06
4.0781e-06
3.70029e-06
4.1099e-06
3.99212e-06
3.96362e-06
4.09014e-06
4.1258e-06
4.20148e-06
3.65684e-06
4.1034e-06
4.0972e-06
4.02893e-06
4.06163e-06
4.15786e-06
3.61979e-06
4.07888e-06
3.74054e-06
4.08798e-06
3.45016e-06
3.61807e-06
3.37284e-06
3.8787e-06
4.04461e-06
3.903e-06
3.91118e-06
3.98399e-06
3.80041e-06
4.01893e-06
3.71452e-06
3.9107e-06
4.00921e-06
4.10266e-06
3.99717e-06
3.99916e-06
4.02333e-06
3.98235e-06
3.92828e-06
4.0468e-06
4.08163e-06
3.47979e-06
3.29174e-06
3.89335e-06
3.45677e-06
3.83553e-06
3.83033e-06
3.73331e-06
3.93501e-06
4.13641e-06
3.90295e-06
3.55947e-06
3.916e-06
3.83502e-06
3.53674e-06
3.99753e-06
3.39573e-06
3.84732e-06
3.88259e-06
4.0555e-06
3.39374e-06
3.81949e-06
3.91662e-06
3.58103e-06
3.85617e-06
3.37693e-06
3.74942e-06
3.82372e-06
3.99782e-06
3.74069e-06
3.37815e-06
3.81563e-06
4.00819e-06
3.6669e-06
3.68704e-06
4.21703e-06
3.89438e-06
3.25761e-06
3.31913e-06
3.76859e-06
3.76626e-06
3.66852e-06
3.75416e-06
3.52463e-06
3.81212e-06
3.28138e-06
3.82192e-06
3.8223e-06
3.8039e-06
3.78452e-06
3.8877e-06
3.82488e-06
3.54142e-06
3.2978e-06
3.68515e-06
3.74504e-06
3.72239e-06
3.73975e-06
3.7654e-06
3.6744e-06
3.66766e-06
3.19851e-06
3.58754e-06
3.68507e-06
3.67304e-06
3.57833e-06
3.59212e-06
3.20918e-06
3.47725e-06
3.60559e-06
3.75443e-06
3.60418e-06
3.63954e-06
3.60074e-06
3.48821e-06
3.60343e-06
3.65952e-06
3.77002e-06
3.59237e-06
3.12191e-06
3.66033e-06
3.55833e-06
3.50655e-06
3.49785e-06
3.10588e-06
3.54264e-06
3.52327e-06
3.51128e-06
3.10781e-06
3.42539e-06
3.56e-06
3.2621e-06
3.17229e-06
3.0821e-06
3.60796e-06
3.26151e-06
3.4423e-06
3.18143e-06
3.51428e-06
3.60612e-06
3.46919e-06
3.49812e-06
3.17244e-06
3.34372e-06
3.04367e-06
3.41695e-06
3.47386e-06
3.29406e-06
3.25279e-06
3.65046e-06
2.88641e-06
3.40673e-06
3.43554e-06
3.32858e-06
3.40691e-06
3.42581e-06
3.43014e-06
3.34916e-06
2.96497e-06
3.24934e-06
3.47662e-06
3.36125e-06
3.56945e-06
3.33551e-06
3.33073e-06
3.03123e-06
3.36136e-06
3.26903e-06
2.88701e-06
2.96423e-06
3.59217e-06
3.73111e-06
3.28014e-06
3.40118e-06
3.33024e-06
3.67346e-06
2.80895e-06
3.23881e-06
3.31448e-06
3.35766e-06
3.34993e-06
3.3962e-06
3.40002e-06
3.33387e-06
2.81612e-06
3.25348e-06
3.18805e-06
2.87807e-06
3.2058e-06
3.31311e-06
3.29206e-06
2.80982e-06
3.23459e-06
3.19888e-06
3.09133e-06
3.23453e-06
3.18742e-06
3.36656e-06
3.22383e-06
3.17672e-06
2.9367e-06
3.19115e-06
3.15375e-06
2.73427e-06
3.26067e-06
3.31982e-06
3.10681e-06
3.25841e-06
3.34126e-06
3.19568e-06
2.70336e-06
3.26825e-06
3.15802e-06
2.80005e-06
3.16129e-06
3.17194e-06
3.10046e-06
3.12813e-06
3.11762e-06
3.14151e-06
3.10699e-06
3.16337e-06
2.7831e-06
2.7208e-06
3.03641e-06
2.63187e-06
3.23734e-06
2.87416e-06
2.7934e-06
2.78346e-06
3.02571e-06
2.71514e-06
3.02204e-06
3.05339e-06
3.06163e-06
3.12792e-06
2.6386e-06
2.95522e-06
3.02629e-06
2.79553e-06
3.15746e-06
3.17869e-06
3.04023e-06
2.73002e-06
3.01897e-06
2.94477e-06
2.96922e-06
2.99281e-06
3.00995e-06
2.95346e-06
2.99208e-06
2.80514e-06
2.55153e-06
3.10245e-06
2.6859e-06
2.94532e-06
2.62092e-06
2.81011e-06
2.86392e-06
2.89355e-06
2.84541e-06
2.91963e-06
2.94649e-06
2.84754e-06
2.54671e-06
3.0388e-06
2.88602e-06
2.86408e-06
2.55878e-06
2.86233e-06
2.20525e-06
2.91232e-06
2.63176e-06
2.76652e-06
2.7406e-06
2.46167e-06
3.00192e-06
2.95805e-06
2.78305e-06
2.62125e-06
2.84902e-06
2.83168e-06
2.92117e-06
2.857e-06
2.81254e-06
2.28813e-06
2.80304e-06
2.8403e-06
2.67176e-06
2.37615e-06
2.37118e-06
2.70215e-06
2.83315e-06
2.68596e-06
2.69173e-06
2.75959e-06
2.82532e-06
2.69512e-06
2.76744e-06
2.90848e-06
2.71972e-06
2.67868e-06