/*--------------------------------*- C++ -*----------------------------------*\
  =========                 |
  \\      /  F ield         | OpenFOAM: The Open Source CFD Toolbox
   \\    /   O peration     | Website:  https://openfoam.org
    \\  /    A nd           | Version:  8
     \\/     M anipulation  |
\*---------------------------------------------------------------------------*/
FoamFile
{
    version     2.0;
    format      ascii;
    class       surfaceScalarField;
    location    "7.6";
    object      phi;
}
// * * * * * * * * * * * * * * * * * * * * * * * * * * * * * * * * * * * * * //

dimensions      [0 3 -1 0 0 0 0];

internalField   nonuniform List<scalar> 
33977
(
3.50845e-09
-1.52821e-10
-3.77364e-09
4.18013e-10
-8.13296e-10
-1.6529e-09
1.71699e-09
7.49203e-10
3.8477e-09
-2.7747e-10
1.55828e-10
-3.72605e-09
3.7132e-09
-3.65557e-09
-3.1398e-10
2.56345e-10
2.23038e-11
-2.3227e-10
-5.07445e-10
7.17411e-10
-1.9171e-09
1.54171e-09
-4.37904e-10
-3.19726e-09
4.13005e-09
-2.23366e-09
1.30087e-09
-1.80239e-09
-2.09268e-09
1.3457e-09
2.54937e-09
3.79514e-09
-3.90969e-09
1.86654e-10
-7.21022e-11
-9.95492e-10
2.07277e-09
-3.14183e-09
2.06455e-09
2.73994e-09
3.58431e-10
-3.22988e-09
1.31506e-10
-1.32753e-09
1.37566e-09
-7.05994e-10
6.57866e-10
-5.92586e-09
-4.50388e-09
4.93306e-09
5.49668e-09
-3.40154e-09
-3.96725e-09
4.47725e-09
2.89154e-09
2.39077e-09
-2.79414e-09
-2.28399e-09
2.68736e-09
-1.2075e-09
1.37154e-09
-1.64042e-10
7.41474e-10
-8.17032e-10
-1.25197e-09
-2.69383e-09
1.06309e-10
1.71167e-09
8.75844e-10
5.40969e-09
-9.56632e-10
-5.76957e-09
1.31651e-09
2.72812e-09
-1.49805e-09
-2.66867e-09
1.4386e-09
2.52199e-09
2.51357e-09
-2.64479e-09
-1.22572e-09
5.16852e-09
-4.34768e-09
4.04878e-10
-3.84481e-09
3.8607e-09
7.72128e-12
-2.36147e-11
2.59689e-09
-1.361e-09
1.08895e-09
-2.32484e-09
-2.08305e-09
9.60693e-10
-9.26876e-10
2.04924e-09
2.4786e-09
-2.45005e-09
2.49344e-09
3.8144e-09
-3.8173e-09
-2.69221e-11
2.98248e-11
3.73792e-09
-3.3161e-09
8.69414e-11
-5.08765e-10
-3.55103e-10
-1.16775e-09
6.91748e-09
-5.39462e-09
3.83283e-09
-3.8298e-09
-3.06062e-11
2.75769e-11
3.91101e-09
-3.91363e-09
6.35014e-13
1.98605e-12
8.99253e-10
-8.2428e-10
-4.51487e-11
-2.98238e-11
-3.8497e-09
-2.4769e-11
2.96676e-11
2.56731e-09
2.40758e-09
-2.49629e-09
-3.19267e-09
1.82098e-09
-1.43625e-09
2.80794e-09
1.41758e-09
2.12912e-09
-2.94723e-09
-5.99466e-10
2.39146e-09
2.59087e-09
-2.41502e-09
1.01079e-09
-9.88128e-10
1.51645e-09
-1.53911e-09
-3.04675e-09
-2.62791e-11
-8.06779e-11
3.1537e-09
-2.38877e-09
-2.26381e-09
2.48944e-09
2.16315e-09
3.80371e-09
-3.80621e-09
-4.50226e-11
4.75196e-11
3.83261e-09
1.3246e-10
-2.30067e-10
-3.735e-09
-6.143e-10
6.96437e-14
4.35216e-09
2.33638e-09
-2.68736e-09
2.43327e-09
-2.08229e-09
1.28374e-10
-6.11343e-11
3.10461e-09
-3.17185e-09
3.88043e-09
-1.15208e-12
-1.85837e-11
-1.22659e-09
-2.83521e-10
2.79534e-10
1.23058e-09
-1.34871e-09
2.10763e-09
-7.58919e-10
2.52996e-09
2.44233e-09
-2.58084e-09
-3.08308e-09
3.08718e-09
-8.90551e-12
4.80129e-12
-1.74564e-09
7.94985e-10
1.1316e-09
-1.80941e-10
-2.95721e-09
-2.43162e-09
2.5947e-09
3.15496e-09
2.60624e-11
-2.6089e-11
-3.15493e-09
3.9442e-09
-1.02806e-10
6.30212e-12
-2.30822e-09
4.79653e-10
-8.65263e-10
-3.96724e-10
3.1327e-10
1.33413e-09
-1.25068e-09
2.506e-09
-2.49778e-09
2.52175e-09
-3.03169e-11
7.58564e-10
-4.11052e-09
3.38228e-09
3.89284e-09
-3.88057e-09
-2.35628e-11
1.12961e-11
2.37805e-09
-1.82263e-09
-1.43838e-09
8.82958e-10
-2.99475e-09
3.4309e-11
-8.18405e-11
3.04228e-09
-1.83826e-09
1.89241e-09
1.79023e-09
-1.84438e-09
2.42281e-11
-4.11029e-11
3.21082e-09
-3.4302e-09
-9.30734e-10
1.15012e-09
-3.85612e-10
-1.08894e-11
-2.9196e-09
2.66764e-09
1.47924e-09
-1.76883e-09
6.30544e-11
-3.1551e-09
-2.68223e-11
3.11887e-09
1.67074e-10
-1.83397e-09
3.6678e-09
-2.00091e-09
2.37294e-09
-3.44139e-09
7.50149e-09
-6.43303e-09
-1.06788e-09
1.13021e-09
-1.62948e-09
1.56715e-09
2.19437e-09
-1.74239e-10
2.1717e-09
-4.19182e-09
1.50288e-09
-1.67608e-09
1.73195e-10
-4.18135e-09
1.16631e-09
-1.1789e-09
4.19394e-09
6.25204e-12
-3.18432e-09
6.37563e-11
3.11431e-09
2.76022e-09
-2.86846e-09
-2.28053e-09
3.18893e-10
3.78711e-09
-3.97763e-09
3.315e-09
-6.11316e-11
4.71395e-12
-3.25858e-09
-4.30697e-09
4.13801e-09
4.87853e-10
-5.39056e-09
-1.92329e-09
4.80983e-09
2.50402e-09
3.15507e-09
-1.78496e-09
1.41337e-09
-2.78349e-09
1.38541e-09
-3.48816e-11
2.5412e-11
-1.37594e-09
-2.88248e-09
2.93115e-09
-5.91009e-11
1.04346e-11
3.05018e-09
1.28599e-11
9.34926e-11
-3.15653e-09
-6.13808e-10
5.43168e-10
-4.74951e-10
5.45591e-10
-9.7693e-12
1.35104e-09
4.41432e-11
-4.22267e-09
-3.1412e-10
2.95243e-10
4.24155e-09
-3.08946e-09
-2.48893e-11
3.12697e-11
1.48973e-09
-1.00742e-09
2.72851e-09
2.6008e-09
2.5943e-09
-2.68909e-09
-2.35847e-09
2.41877e-09
-1.25475e-10
6.51791e-11
8.75869e-10
-4.11393e-09
4.99898e-09
-1.76093e-09
2.47615e-09
-2.72816e-09
2.89325e-09
-2.64124e-09
1.94382e-10
3.49991e-09
-7.02518e-10
-2.99177e-09
3.33593e-09
5.08063e-10
-2.52148e-09
-1.32251e-09
-3.75594e-09
-1.83425e-11
1.09446e-09
2.67983e-09
3.7949e-09
-3.78475e-09
-4.8323e-11
3.817e-11
2.85552e-09
-3.47244e-09
6.16919e-10
2.8973e-10
-1.19962e-09
-3.16709e-10
7.36589e-10
-7.88423e-10
-2.25638e-09
-2.57179e-09
-1.61533e-09
6.88609e-10
3.49851e-09
1.00912e-10
5.19779e-09
-4.70713e-09
-5.91578e-10
-2.83457e-09
2.82007e-09
-2.22426e-11
3.67445e-11
-1.61132e-09
1.55423e-09
-1.58059e-09
-4.48125e-10
8.13518e-10
1.2152e-09
3.85568e-09
-3.84266e-09
-2.86769e-11
1.56637e-11
2.43256e-09
-2.62925e-09
-2.51892e-09
2.7156e-09
-3.06946e-10
4.20517e-09
-4.00043e-09
1.02206e-10
1.06218e-09
-6.06267e-09
5.34828e-09
-3.47792e-10
-5.2029e-10
1.02647e-09
-1.33537e-09
8.29184e-10
-2.87545e-09
2.8577e-09
-1.68022e-11
3.45457e-11
8.066e-09
-7.28857e-09
1.54459e-09
-2.32202e-09
-2.01086e-09
1.98223e-09
7.57271e-10
-7.2864e-10
-2.91527e-09
2.8934e-09
-1.43202e-11
3.61989e-11
3.07183e-09
-3.08874e-09
1.91243e-11
-2.21783e-12
-1.67977e-10
4.78002e-10
3.48512e-09
3.09418e-09
9.08908e-12
-3.13075e-09
2.74879e-11
-2.96043e-09
2.93349e-09
-1.47199e-11
4.16591e-11
-2.621e-09
2.29155e-09
2.76201e-09
-5.32277e-10
1.00897e-10
-4.84356e-09
5.27494e-09
-3.00683e-09
2.97874e-09
-1.37426e-11
4.18303e-11
-2.8569e-11
2.98886e-11
-3.04958e-09
3.02086e-09
-1.30092e-11
4.1733e-11
6.06142e-12
-2.6857e-11
-1.55958e-09
-2.18499e-09
1.47758e-10
3.59682e-09
1.23266e-09
-1.61643e-09
1.51398e-09
1.05321e-11
-3.54256e-11
3.4369e-09
-3.42041e-09
-4.08611e-11
2.43712e-11
-2.65854e-09
-2.00356e-09
1.4684e-09
3.19369e-09
-2.04574e-10
4.90462e-10
-4.38318e-10
1.52431e-10
3.05737e-09
-1.29615e-11
2.74198e-11
-3.81409e-09
1.32098e-11
-4.1785e-11
3.39011e-09
-3.38646e-09
-1.76812e-11
1.40299e-11
1.87332e-11
-3.41349e-11
2.82895e-12
-4.38427e-12
3.48656e-09
-3.4651e-09
-3.86401e-11
1.71788e-11
-2.27369e-09
2.85814e-09
2.01881e-10
-7.86337e-10
-3.4245e-09
2.92223e-09
3.84988e-10
1.17282e-10
3.53086e-09
-3.51068e-09
-3.4962e-11
1.47852e-11
1.6068e-09
-3.98961e-10
-4.5446e-09
3.33676e-09
8.27028e-10
-8.33639e-10
-1.0259e-09
1.03251e-09
-3.36244e-09
2.34987e-09
-1.71342e-09
2.72599e-09
3.59387e-09
-3.56542e-09
-5.29874e-11
2.4533e-11
3.7216e-09
-3.73225e-09
-1.35605e-11
2.42177e-11
3.79835e-09
-3.77048e-09
-4.54875e-11
1.76144e-11
5.65675e-10
-1.49592e-09
-2.733e-09
3.66324e-09
3.70145e-09
-3.71469e-09
3.41382e-12
9.83053e-12
3.72611e-09
-3.71092e-09
-2.87191e-11
1.35318e-11
-1.1802e-09
-6.17765e-09
5.62533e-09
1.73252e-09
-3.88194e-09
-9.1531e-11
3.12347e-09
8.5e-10
4.89591e-11
3.7415e-09
-7.72511e-11
2.06197e-09
-2.05623e-09
-5.74658e-12
7.28783e-10
3.23108e-09
-3.95156e-09
-8.29977e-12
5.71432e-09
-3.63206e-10
5.8431e-11
-5.40955e-09
-4.17019e-09
-8.2996e-11
-1.71171e-11
4.2703e-09
3.17359e-10
-2.92322e-10
-1.98131e-09
1.95628e-09
3.11491e-09
-1.28564e-11
4.79836e-11
-3.15004e-09
-5.4873e-09
-1.69958e-09
4.67819e-09
2.50868e-09
-7.2492e-11
-5.45883e-10
7.56178e-11
5.42757e-10
-1.4429e-09
-2.76002e-09
1.25248e-09
2.95045e-09
-2.79213e-09
2.791e-09
-1.48593e-11
1.59865e-11
-3.49889e-11
1.92533e-11
9.98307e-10
7.42964e-10
-9.14242e-10
3.23032e-09
-8.01352e-10
-2.6716e-09
2.42628e-10
-1.56674e-09
2.42259e-09
1.92684e-09
-2.78269e-09
3.77116e-09
-3.7509e-09
-4.28628e-11
2.26038e-11
3.17468e-09
-2.56362e-10
7.98179e-10
-3.7165e-09
-3.87911e-10
3.85001e-09
-3.50775e-09
4.56477e-11
-2.99853e-09
2.91554e-09
2.02404e-09
-1.94106e-09
2.20819e-11
2.03989e-09
1.27763e-09
2.25625e-09
-3.30851e-09
-2.25369e-10
3.81495e-09
-4.04106e-09
-1.1338e-09
1.35991e-09
3.02224e-09
6.89807e-11
-2.85975e-09
-2.31474e-10
-9.24367e-12
-4.21832e-09
3.65306e-09
5.74506e-10
-1.87703e-09
1.92567e-09
9.40622e-10
-9.89262e-10
3.36399e-09
-3.35146e-09
-2.71103e-11
1.45797e-11
-4.56844e-11
-3.29683e-09
1.63038e-10
3.17947e-09
-3.29965e-09
3.27549e-09
-8.69664e-11
1.11123e-10
9.42286e-10
-3.5231e-09
2.85974e-09
-2.78928e-10
-2.11223e-09
2.00865e-09
-1.73468e-09
-1.00744e-09
9.32745e-10
-8.3816e-10
9.12859e-10
-3.24131e-09
2.13331e-10
9.46151e-10
2.08183e-09
-3.54798e-09
9.34283e-12
1.14136e-10
5.25507e-11
-1.4589e-10
-2.26513e-09
-1.67253e-09
1.53926e-09
1.33272e-10
3.1407e-09
-3.14556e-09
-8.34304e-12
1.32043e-11
-3.86927e-09
3.84225e-09
8.12073e-11
-5.41826e-11
-4.97188e-10
4.56444e-09
-4.59953e-09
-9.98179e-10
2.41855e-10
-4.14561e-10
1.17088e-09
2.25525e-09
-5.27146e-09
7.46159e-09
-4.44538e-09
-9.45724e-11
2.7224e-10
-1.95131e-10
1.74636e-11
2.79305e-10
-3.6608e-09
-9.05617e-11
3.47205e-09
2.13793e-09
-1.60714e-09
-5.30786e-10
-1.1404e-10
-6.54205e-11
3.10647e-09
-2.92701e-09
-1.84588e-09
-7.28468e-10
1.61136e-09
9.62988e-10
2.48892e-11
-1.70989e-11
2.3815e-10
7.84649e-10
-2.86002e-10
-7.36796e-10
2.74746e-09
-7.13233e-10
-1.95778e-09
-7.64454e-11
-2.07874e-10
1.1687e-09
-5.02506e-09
4.06424e-09
1.44888e-09
-6.74909e-10
7.35328e-10
-1.5093e-09
-3.99147e-09
4.43736e-09
-4.10856e-09
3.66267e-09
-8.01894e-10
8.25691e-10
2.14352e-10
1.5622e-09
2.34265e-09
-2.43759e-09
-1.46726e-09
2.71492e-09
-1.23543e-09
1.0714e-09
-2.5509e-09
-1.7167e-09
-2.26031e-09
7.62331e-10
3.21468e-09
-3.80786e-10
6.39022e-11
3.17702e-09
-2.86014e-09
6.21144e-10
5.14067e-11
-3.75539e-11
-6.34997e-10
-3.77925e-09
3.29355e-10
-9.80868e-11
4.54576e-09
-1.9609e-09
-3.69837e-09
1.11351e-09
4.30631e-09
-4.27285e-09
-6.50828e-12
-2.69557e-11
3.74839e-09
-3.35665e-11
1.12835e-11
3.18933e-09
-3.14396e-09
-6.2728e-11
1.73577e-11
3.40574e-11
-4.7649e-11
-3.33762e-09
3.53662e-09
-3.22183e-10
1.23184e-10
3.25977e-09
-3.22419e-09
-5.76463e-11
2.20618e-11
-8.53601e-10
4.59346e-10
9.03295e-10
-5.0904e-10
-1.51616e-09
7.80949e-10
3.30874e-09
-2.57353e-09
-9.03587e-10
1.19214e-09
-3.09138e-09
2.80284e-09
-1.99474e-09
2.73987e-09
2.01508e-09
-1.42879e-10
4.65906e-09
-4.60839e-09
9.22072e-11
4.96499e-09
-3.05048e-09
-1.14525e-09
-7.69264e-10
-1.16384e-10
3.61233e-09
-6.43966e-11
-3.43155e-09
-2.25725e-09
3.07574e-09
1.84915e-09
8.85183e-10
-8.38093e-10
3.24249e-10
-3.71339e-10
2.30256e-09
-5.08361e-09
-1.53303e-09
4.31408e-09
1.75687e-11
-3.96556e-11
2.05042e-09
-1.40597e-09
2.07047e-09
3.2919e-09
1.26218e-09
-2.36524e-09
-2.18885e-09
-3.38934e-09
3.1419e-09
9.04721e-10
-6.57275e-10
-1.25254e-09
-1.03117e-09
2.06279e-09
2.20926e-10
-2.77084e-09
2.77306e-09
-1.13104e-11
9.0918e-12
-1.37406e-09
1.41451e-09
-1.02857e-09
-4.54839e-09
8.0987e-10
-4.07329e-11
2.7767e-09
-2.72707e-09
-8.56658e-10
8.07025e-10
1.03167e-09
-4.41512e-09
-8.21963e-10
4.20541e-09
4.20199e-09
-4.25728e-09
1.08696e-09
-4.51466e-09
-1.47771e-09
6.61913e-09
-6.26767e-10
1.59184e-09
-1.43349e-09
-2.59764e-09
2.43929e-09
1.71542e-09
-1.9111e-10
-1.52431e-09
9.67183e-10
-4.53343e-09
5.82149e-09
-1.3064e-09
3.09394e-09
-2.27481e-09
4.87272e-10
3.92033e-09
3.57443e-10
-4.46782e-09
1.90043e-10
-2.32568e-11
-3.72354e-09
3.72205e-09
2.47481e-11
5.64316e-10
-5.8221e-11
-5.78587e-10
-2.72321e-09
1.20026e-09
-6.61978e-10
2.18494e-09
4.97914e-09
1.35499e-09
-3.287e-09
-3.04714e-09
-3.72188e-09
3.73692e-09
2.08382e-11
-3.58805e-11
4.76676e-09
-4.45582e-09
-3.71248e-09
-7.08763e-12
3.14947e-09
1.25732e-11
4.9329e-11
2.93359e-09
5.89121e-11
-3.04183e-09
4.36069e-10
-4.34352e-10
1.04469e-10
-1.06186e-10
2.64483e-10
-5.22661e-10
-2.15088e-10
4.73266e-10
2.3724e-09
1.87262e-09
-4.10895e-09
-1.36063e-10
7.56977e-09
-5.71946e-09
5.22626e-10
3.12239e-09
1.26329e-09
-1.90953e-09
4.97009e-10
-9.55154e-11
-5.0713e-10
1.05636e-10
-1.53711e-09
-2.29299e-09
-1.45131e-11
3.84461e-09
3.29454e-09
-3.31164e-09
6.46463e-12
1.06375e-11
-1.1879e-09
1.15137e-09
-2.7645e-10
3.12981e-10
1.49209e-10
-2.18537e-10
-3.21372e-09
1.25114e-09
3.48011e-09
-1.51754e-09
4.6071e-09
7.59389e-10
-4.49062e-09
3.86351e-09
-4.76758e-11
1.67686e-11
-8.17064e-10
-3.55807e-09
2.8084e-09
1.93856e-09
-1.30016e-09
1.41202e-09
5.72116e-11
3.08046e-10
-5.26582e-10
1.61324e-10
-1.12534e-09
9.15238e-10
-9.21055e-10
1.13116e-09
-4.63687e-09
4.67827e-09
-4.34102e-10
3.92707e-10
4.52296e-10
-2.24942e-09
-3.92537e-10
2.18966e-09
1.14717e-10
-1.07619e-10
-3.93246e-09
3.92537e-09
-6.46998e-10
1.41113e-10
-1.75805e-10
6.8169e-10
2.87478e-09
5.40045e-11
-2.87395e-10
-2.64139e-09
-3.71037e-09
-3.363e-11
2.21244e-11
-1.58136e-09
2.87895e-09
-2.7405e-09
-5.87847e-09
-2.22222e-09
1.82647e-09
6.27422e-09
2.29796e-09
-2.00211e-09
-2.46029e-09
2.16444e-09
9.99676e-11
1.09499e-10
-3.19238e-09
2.98291e-09
3.26485e-11
-1.86182e-11
-5.72605e-09
5.78062e-09
-1.01737e-10
4.71684e-11
-3.66065e-09
2.23388e-09
1.2414e-09
1.85371e-10
-2.33788e-09
2.21238e-09
1.71735e-09
-2.24562e-09
2.38557e-09
2.158e-09
2.07091e-10
5.07002e-10
-5.94062e-10
-1.20031e-10
1.51164e-09
-4.47371e-09
3.96222e-09
-1.00014e-09
6.18347e-10
-5.96372e-10
2.52142e-10
-2.74117e-10
4.33853e-11
-5.46915e-11
3.6883e-09
-6.17497e-09
6.06218e-09
-3.57552e-09
-1.50294e-09
-2.08133e-09
7.91559e-10
2.79271e-09
7.20535e-11
-2.78074e-09
-4.82184e-11
2.75691e-09
-1.26793e-09
-1.96707e-09
5.05063e-10
2.72994e-09
2.67636e-09
-1.92762e-09
1.18784e-09
-1.93658e-09
-1.32e-09
-1.47208e-10
1.4672e-09
2.93139e-10
-3.3353e-09
4.99546e-09
-1.9533e-09
-2.75078e-09
2.73467e-09
-1.7858e-11
3.39619e-11
7.86926e-10
-6.68854e-10
-2.02503e-09
1.90696e-09
1.89465e-10
-2.57463e-09
2.81721e-09
-4.32042e-10
-3.24188e-09
3.19134e-09
-3.69441e-11
8.74814e-11
-1.06893e-09
-2.12621e-09
3.22849e-09
-3.33446e-11
5.39645e-09
-4.45738e-09
-1.40861e-09
4.69549e-10
-3.45513e-09
-4.34983e-09
2.4144e-09
3.88131e-09
-2.61341e-11
-3.86013e-09
4.95429e-12
4.7583e-09
-3.33773e-10
-4.76038e-09
3.35854e-10
5.66422e-10
-5.38833e-10
2.49311e-10
-2.769e-10
-3.17287e-09
4.0686e-09
-9.4531e-10
4.95796e-11
1.04394e-10
-7.53706e-10
-1.52581e-10
-1.74485e-10
-3.20631e-10
1.59869e-10
3.35247e-10
2.04604e-09
3.04876e-09
-2.75843e-09
-6.6183e-10
8.02764e-10
-4.60711e-09
4.46618e-09
3.4878e-09
5.38782e-10
-4.81295e-11
-3.97845e-09
-2.03962e-10
-1.08452e-09
1.28848e-09
-7.94101e-10
1.93541e-09
8.90609e-10
-2.03192e-09
1.93478e-09
-1.23139e-09
2.45168e-09
-4.6377e-09
-3.89124e-09
3.53961e-09
4.98933e-09
-3.28812e-09
-1.14205e-10
6.47028e-11
5.12901e-10
-4.93342e-10
2.26635e-10
-2.46194e-10
-2.38215e-09
2.55652e-10
-1.54826e-10
2.28133e-09
-1.7656e-09
-3.45541e-09
1.46239e-09
3.75862e-09
-3.69776e-09
3.705e-09
1.85575e-11
-2.57988e-11
-3.29772e-10
8.44382e-10
-2.03096e-09
1.51635e-09
1.15945e-09
-1.17685e-09
-2.10893e-09
2.12633e-09
2.3811e-09
-2.60922e-09
-2.50004e-09
-1.20141e-09
4.83065e-09
-3.62924e-09
-3.64779e-09
2.7042e-09
3.89398e-09
-2.95038e-09
8.51084e-12
-1.7985e-11
1.42978e-10
-5.97707e-09
-1.66006e-10
6.0001e-09
-1.45603e-09
-4.28677e-09
5.08097e-09
-6.95936e-10
-3.00113e-10
9.96049e-10
1.03197e-10
-3.1272e-09
-7.31943e-10
4.7426e-10
-4.3149e-10
2.16109e-10
-2.58878e-10
2.43221e-10
-7.35948e-10
-2.21002e-09
2.70275e-09
-3.12234e-09
3.49076e-12
1.966e-10
2.92225e-09
3.66069e-09
-8.73977e-11
2.05762e-11
1.32826e-09
-5.47279e-09
5.20671e-09
1.08516e-09
-6.62231e-10
-1.16052e-09
7.37585e-10
2.51957e-11
-1.6588e-10
3.25856e-09
-3.11788e-09
3.47283e-09
-4.25133e-09
7.98853e-10
-2.03545e-11
-3.26044e-09
6.84586e-11
3.24237e-09
-5.03869e-11
3.90315e-10
-3.64957e-10
1.98846e-10
-2.24204e-10
4.11837e-09
-4.38385e-09
-1.00146e-09
1.26694e-09
-3.76065e-09
3.71631e-09
9.77763e-11
-5.3427e-11
1.11637e-09
7.7646e-10
-1.89283e-09
-4.12936e-12
7.90565e-11
-2.48994e-09
2.15275e-09
-3.68797e-10
7.05986e-10
-1.20406e-09
1.20636e-09
3.0219e-09
-3.02421e-09
1.42256e-10
-1.15402e-09
1.71876e-10
3.99151e-09
-3.96954e-09
-1.93849e-10
-3.72441e-09
3.25079e-10
3.50124e-09
-1.01906e-10
5.83794e-10
-3.18434e-10
-3.08059e-10
4.26988e-11
4.27765e-09
-1.78181e-09
-3.72156e-09
8.86148e-11
-7.73011e-11
3.90255e-09
-3.91386e-09
8.79126e-11
-2.44177e-10
2.96558e-09
-2.80931e-09
3.39823e-10
-3.22869e-10
1.79955e-10
-1.96909e-10
-3.05236e-09
3.83686e-09
-1.55217e-09
7.67677e-10
2.64102e-10
-3.77097e-10
4.15986e-09
3.46459e-10
-2.13437e-09
-2.37195e-09
-3.66238e-09
3.60464e-09
8.8316e-11
-3.05756e-11
-5.29362e-11
4.30641e-11
4.45941e-10
9.78487e-10
2.69192e-09
-3.62379e-11
-3.68796e-09
3.6679e-09
5.62971e-11
3.01603e-10
-2.87996e-10
1.61212e-10
-1.74819e-10
-3.46183e-09
3.34515e-09
1.85596e-10
-6.89184e-11
1.98829e-09
2.48199e-10
-1.72432e-09
-5.12174e-10
2.77747e-10
-3.01029e-10
1.46151e-10
-1.22869e-10
-3.80437e-11
1.19636e-10
-3.56856e-09
3.52772e-09
6.84994e-11
-2.76571e-11
-3.59288e-09
3.6491e-09
-2.51394e-11
-3.10746e-11
2.23403e-10
-2.02236e-10
1.4819e-10
-1.69357e-10
-2.64324e-10
2.82269e-10
1.8283e-10
-2.00775e-10
-1.65616e-09
1.19833e-09
-2.90461e-09
-3.50444e-09
3.53068e-09
-1.15495e-11
-1.46862e-11
-5.64126e-09
4.15062e-11
-1.26298e-10
1.86836e-09
-1.79693e-09
-3.38323e-09
3.31181e-09
1.03413e-09
-1.013e-09
-1.14647e-09
-8.45061e-10
9.0593e-10
1.0243e-09
-4.4921e-09
-2.1265e-09
1.88215e-09
4.73645e-09
2.49622e-09
-2.81209e-09
3.47764e-09
-3.16176e-09
1.79671e-10
1.14858e-10
-1.30035e-10
-1.64495e-10
2.55219e-11
-3.22559e-09
-1.41145e-11
3.21418e-09
1.31641e-09
-4.17842e-09
2.99115e-09
-1.29143e-10
-4.01046e-09
3.83652e-09
1.73944e-10
3.9154e-10
1.76171e-10
-1.53114e-10
-4.14597e-10
2.90027e-10
-3.43471e-10
-2.68982e-09
2.68043e-09
-1.77708e-11
2.71646e-11
-2.00064e-09
2.18412e-09
1.46131e-09
-1.6448e-09
3.55519e-11
-1.7242e-11
-1.6296e-12
-2.18717e-12
9.49611e-11
-9.11444e-11
-3.36831e-09
5.53203e-10
-3.68993e-10
3.1841e-09
-2.22661e-09
-3.58531e-09
3.24478e-09
2.56714e-09
3.21621e-09
3.38681e-11
-3.30878e-09
5.86989e-11
-2.7327e-09
-1.20891e-09
2.50812e-09
-3.46613e-09
3.22217e-09
2.00523e-09
-1.76127e-09
-7.02173e-10
-2.55599e-09
1.09892e-10
3.14827e-09
6.85235e-10
4.32299e-11
-6.61293e-10
-6.71717e-11
3.64316e-11
-5.00149e-11
-6.25632e-09
4.93002e-09
5.0146e-09
6.52304e-10
-5.66161e-10
5.64001e-10
-6.50144e-10
5.42994e-09
-5.29744e-09
-2.92278e-10
1.5978e-10
4.68434e-10
2.23582e-09
-2.79022e-09
8.5966e-11
1.20947e-11
-1.26483e-11
-1.84781e-11
1.90317e-11
3.49057e-10
-1.83624e-10
-3.39918e-10
-2.45658e-09
3.47038e-09
7.50595e-10
-1.7644e-09
3.26542e-09
-3.16352e-09
1.10967e-10
-2.12868e-10
-3.98178e-09
-3.88545e-09
2.71486e-09
5.15237e-09
2.35546e-09
-4.61283e-10
4.73724e-10
-2.3679e-09
-3.77509e-09
3.7132e-09
2.35561e-10
-1.73669e-10
9.35661e-10
-4.28303e-09
4.2961e-09
-9.48737e-10
9.15822e-11
-5.79677e-11
-3.05139e-09
3.11208e-09
-3.70848e-09
-3.40252e-09
-1.48967e-09
1.20295e-09
3.68924e-09
1.48043e-09
-6.60116e-10
5.55348e-10
-1.71911e-09
-4.22416e-09
1.52815e-09
5.93638e-11
-5.38264e-11
5.58778e-10
1.87781e-09
-2.50435e-09
-8.4666e-10
1.4732e-09
1.49068e-09
-4.02776e-09
-2.73438e-09
2.85942e-11
3.11716e-09
-5.06191e-12
6.14242e-12
7.61127e-13
3.78689e-10
-3.30581e-10
-2.52682e-10
-3.70077e-09
-3.36141e-11
3.66303e-11
1.34441e-10
-4.86001e-10
7.49598e-10
-3.98039e-10
3.27667e-09
-1.06306e-09
2.15292e-10
-2.42891e-09
-4.41035e-09
8.33714e-10
-6.4604e-10
2.97536e-09
-2.18067e-09
-1.20368e-09
4.08981e-10
3.44592e-09
-6.98787e-09
-1.92528e-09
5.46723e-09
-4.6877e-11
3.16671e-09
1.63793e-10
-3.28362e-09
5.8776e-09
4.59923e-11
8.997e-11
-3.60422e-11
-4.39592e-09
-1.53631e-09
4.74549e-09
1.18674e-09
-8.66926e-10
2.69276e-09
5.82961e-10
-2.40879e-09
-4.26754e-09
-1.88525e-10
4.50983e-10
4.00508e-09
-3.77463e-09
3.97938e-09
3.88854e-09
-4.09329e-09
1.95743e-09
-2.24138e-10
-2.60844e-09
8.75142e-10
-2.58931e-09
1.52702e-09
-1.74578e-09
2.80807e-09
4.29401e-09
2.41018e-09
-5.38777e-09
-1.22506e-09
-2.25954e-09
3.04673e-09
4.37868e-10
7.11256e-10
-3.60736e-09
2.75791e-09
1.3819e-10
-5.32921e-09
1.07605e-10
8.61671e-10
4.35993e-09
-3.11339e-09
3.55416e-09
4.42353e-10
-8.8312e-10
1.58935e-09
-1.43718e-09
-2.30275e-09
2.15057e-09
2.99807e-09
-3.2965e-09
3.86333e-10
-8.79009e-11
1.78953e-09
-2.17854e-09
4.23489e-09
-3.84588e-09
-1.6552e-09
7.18554e-10
-3.03683e-10
1.24033e-09
-1.85318e-09
2.09082e-09
2.51446e-10
-3.23689e-10
2.92595e-10
-2.20352e-10
-8.50114e-11
1.02371e-09
-2.80052e-09
1.86183e-09
3.20299e-10
-2.18473e-09
2.31672e-09
-1.61916e-10
2.89139e-10
-2.76261e-10
1.49039e-10
-2.12888e-09
-1.4341e-09
2.08338e-09
1.4796e-09
2.09715e-10
7.49619e-10
-1.43856e-10
-8.15478e-10
3.43828e-09
-5.19257e-09
2.42805e-09
-6.73765e-10
-8.70748e-10
1.41519e-09
-3.2313e-09
2.68685e-09
2.04617e-09
-3.19007e-09
-4.37463e-10
-2.96254e-12
4.50477e-12
-9.21382e-11
9.0596e-11
1.65845e-09
-8.0801e-10
1.08811e-09
-1.66125e-09
-2.61302e-09
1.07702e-09
-3.15745e-09
3.10397e-09
-2.41981e-11
7.76717e-11
7.04429e-11
-6.28948e-11
3.88581e-09
-3.89336e-09
6.95922e-12
1.3972e-10
-3.65327e-12
-1.43026e-10
2.11632e-10
-2.40283e-10
-1.97441e-09
-1.83944e-09
2.01145e-09
-3.28982e-09
3.66414e-09
-4.14896e-09
2.1856e-09
8.06824e-10
-3.44027e-09
4.47843e-10
3.02131e-09
-1.2102e-09
-2.51328e-09
-4.52982e-09
-1.07565e-09
9.68598e-10
-3.53599e-09
-1.92207e-09
3.43374e-09
2.02432e-09
3.11595e-09
-3.1154e-09
2.55325e-11
-2.60913e-11
5.22503e-10
7.59941e-09
-1.99705e-09
-6.12486e-09
-3.46914e-09
1.12579e-10
3.39613e-09
-3.95675e-11
-2.35607e-09
-2.84722e-09
2.88615e-09
2.31713e-09
3.34095e-09
-2.93578e-09
-1.4741e-09
-2.05445e-09
1.63291e-09
-1.09348e-09
1.51502e-09
-1.86425e-10
-2.14239e-09
2.32881e-09
3.52719e-09
-2.35435e-09
1.66145e-09
-6.18982e-09
3.60837e-09
9.20004e-10
3.9607e-12
5.40675e-12
-9.36745e-12
2.81406e-09
-3.83875e-09
-1.97384e-09
-2.0826e-09
-1.19636e-09
2.4006e-09
8.78366e-10
-1.0923e-09
9.82644e-10
-3.7436e-10
4.84015e-10
2.23147e-10
-4.1535e-09
4.07998e-09
-1.49626e-10
8.86733e-10
-5.42576e-10
3.31983e-09
-2.39471e-09
-3.15877e-09
2.51528e-10
-2.81478e-10
-3.52398e-11
-3.62608e-09
3.59963e-09
6.16846e-11
2.42082e-10
-3.30378e-09
-1.89349e-10
3.25105e-09
1.79321e-09
-2.33609e-09
2.0839e-09
-1.54102e-09
2.17233e-09
-3.4334e-09
1.50969e-09
-2.48626e-10
1.60883e-09
9.24234e-10
-3.17008e-10
-2.21606e-09
2.51533e-09
8.07446e-11
-1.77309e-10
-2.51162e-09
2.48317e-09
-6.87525e-10
5.49905e-10
-4.85861e-10
6.23482e-10
6.71805e-10
-1.73827e-09
1.82545e-09
-7.58984e-10
-4.03085e-09
4.09722e-09
1.05511e-10
1.8247e-09
-1.77574e-09
1.81668e-09
-3.62481e-09
-1.26961e-09
3.07775e-09
-4.53944e-09
8.54558e-11
-1.81654e-10
4.63564e-09
1.10587e-11
-8.26209e-11
-7.68374e-10
5.48908e-09
1.38467e-10
-4.85917e-09
3.23524e-10
-3.50066e-10
2.68741e-10
-2.42199e-10
3.45611e-11
-1.63437e-11
-3.55836e-11
4.49355e-11
6.11792e-10
3.49385e-09
-5.01837e-09
9.66902e-10
5.57624e-10
-1.60004e-09
1.9822e-09
1.51025e-09
1.88724e-11
-3.28581e-11
2.75075e-09
-2.4672e-09
-3.0801e-09
2.79655e-09
7.50312e-10
3.44276e-10
-1.95336e-10
2.23123e-09
-2.82399e-10
-3.93254e-09
1.98371e-09
2.38693e-10
-2.64624e-10
2.98124e-10
4.2707e-09
-4.08967e-10
4.36397e-12
-1.1394e-11
-2.97228e-11
3.67529e-11
-4.09201e-09
5.07399e-09
-3.33805e-09
8.37726e-11
-3.9754e-09
4.00635e-09
-2.17913e-09
2.04857e-09
-3.60193e-09
3.73248e-09
1.4017e-10
-2.92076e-09
1.4983e-11
2.76561e-09
-1.44613e-10
3.87052e-09
-3.88084e-09
1.54935e-10
-2.87043e-09
3.79048e-09
2.79442e-11
-9.47992e-10
-1.18414e-09
3.01564e-09
7.57108e-10
-2.58861e-09
3.83378e-09
-3.83223e-09
2.5957e-11
-2.75047e-11
4.09965e-09
-3.22064e-09
-1.3762e-09
2.03913e-09
-9.51272e-11
-1.86107e-09
-8.29379e-11
2.37017e-09
-1.30487e-09
-2.72491e-09
2.71145e-09
2.29417e-11
-9.48344e-12
3.21347e-09
-3.22833e-09
4.10417e-11
-2.61858e-11
-4.34789e-10
-1.29745e-09
6.39944e-10
-1.94215e-09
2.95192e-09
-3.11273e-09
1.82116e-11
3.09617e-09
-1.65661e-12
2.24066e-10
-2.43149e-10
-5.81174e-10
5.58608e-10
-5.87627e-10
5.70547e-10
-7.21408e-10
7.38488e-10
3.08236e-09
-3.07712e-09
2.07038e-11
-2.5947e-11
3.12528e-09
6.52423e-11
-4.4558e-11
-3.14596e-09
3.69142e-09
3.45084e-09
-3.11507e-09
-4.02718e-09
-2.83442e-09
3.39498e-09
-2.21672e-09
3.2467e-09
-3.22013e-09
-3.10572e-11
4.47916e-12
2.62644e-09
5.15551e-09
2.84054e-10
1.51721e-09
1.98317e-09
-1.0778e-09
-2.86413e-09
2.80721e-09
1.03258e-10
-4.6337e-11
-2.69091e-09
3.67781e-10
2.84817e-09
-2.62698e-09
-1.5276e-09
-6.15202e-11
2.04018e-09
-1.97866e-09
2.08416e-10
-2.49591e-10
3.58089e-11
-6.41571e-11
-4.09842e-09
-1.20925e-09
2.25628e-09
-1.7104e-09
2.00852e-09
3.20848e-09
-3.17711e-09
-4.2221e-11
1.08491e-11
5.45071e-10
-5.69933e-09
5.55343e-09
-3.99166e-10
-1.93337e-09
-5.60571e-10
9.13354e-10
-3.49626e-09
9.28857e-10
2.86054e-09
7.2139e-10
-1.07604e-09
-1.6998e-09
-2.31654e-10
-2.21422e-09
2.31102e-09
1.34845e-10
-4.58082e-09
-2.03732e-10
4.67124e-09
1.13312e-10
-5.37167e-09
-4.43879e-10
5.24794e-09
5.67608e-10
3.16309e-09
-3.14437e-09
-2.92995e-11
1.05735e-11
2.75357e-09
-4.1739e-11
-2.73755e-09
2.57182e-11
8.20996e-12
-4.06118e-09
-2.54416e-11
4.07841e-09
4.51981e-11
-4.47373e-11
1.11118e-12
-1.57197e-12
-1.12832e-10
5.34708e-11
3.94067e-09
-4.01756e-09
-3.33364e-10
5.75838e-10
3.76609e-09
4.51461e-09
-5.04197e-09
-3.23873e-09
6.06867e-11
-7.18148e-11
5.08138e-10
1.12785e-09
1.70783e-09
-1.37118e-09
-1.4645e-09
1.83134e-10
-2.08269e-10
3.14539e-09
-3.15163e-09
-4.49841e-12
1.074e-11
4.70466e-11
1.4366e-10
-3.01275e-09
2.82205e-09
-1.68436e-09
-2.53174e-09
3.11809e-09
1.09801e-09
1.26588e-10
2.5034e-09
1.20248e-10
-2.75024e-09
-3.17329e-09
-9.01415e-10
4.01243e-09
6.22698e-11
-5.85702e-09
6.21459e-09
-1.12595e-09
1.0767e-09
-1.23362e-09
-2.33783e-09
2.49475e-09
7.18983e-11
-3.80015e-11
2.54011e-11
-2.81377e-11
1.2979e-10
-1.27054e-10
3.12916e-09
-3.08688e-09
-6.60077e-11
2.37322e-11
-6.66184e-12
-1.86465e-09
1.87131e-09
5.99017e-11
-5.57712e-11
3.86766e-09
-3.87179e-09
1.4463e-09
3.01548e-09
-4.10885e-09
-3.52934e-10
-5.37088e-11
-2.43048e-09
4.85646e-11
2.43562e-09
-6.59964e-11
1.51071e-11
-2.36638e-11
7.45532e-11
3.02908e-09
-2.99134e-09
-5.82547e-11
2.05191e-11
3.70093e-09
-1.77331e-09
7.15757e-12
1.65232e-10
-1.86498e-10
-2.96897e-09
3.07735e-09
1.53243e-11
-1.23709e-10
-3.45794e-09
3.84358e-09
-7.63722e-10
3.78081e-10
3.9812e-09
4.98224e-09
-5.19735e-09
2.9496e-09
-2.93714e-09
-1.13221e-11
-1.13351e-12
1.70835e-10
-3.38253e-09
3.28375e-09
-2.97163e-09
-6.76589e-11
-5.73941e-11
3.09668e-09
2.39411e-09
1.90456e-11
-6.61543e-09
4.20227e-09
-3.20363e-09
-7.4823e-11
3.32471e-09
-4.62503e-11
7.83108e-09
-6.53487e-09
-1.29621e-09
7.78638e-10
-5.04558e-09
5.59521e-09
-4.05486e-09
2.56444e-09
-1.9794e-09
-2.51172e-09
2.23375e-09
2.25738e-09
-4.2636e-09
-4.91105e-09
3.68736e-09
-3.01872e-09
2.89234e-09
1.33497e-09
-1.48735e-09
4.69666e-10
-3.17287e-10
-1.92415e-09
2.3927e-09
-4.68544e-10
1.32927e-09
-4.22049e-09
-4.98127e-10
1.80113e-09
-1.9603e-10
-1.28774e-09
3.03769e-09
-3.03419e-09
2.13978e-11
-2.49013e-11
7.43862e-11
-8.37968e-11
1.54667e-11
-6.05606e-12
1.44411e-10
-1.54661e-10
-3.94494e-09
6.47412e-11
3.96882e-09
4.98416e-09
-4.95409e-09
-8.55695e-11
5.5504e-11
1.83132e-09
-1.85458e-09
-2.8424e-09
2.63562e-09
-1.34777e-10
3.41556e-10
1.21744e-09
-1.14158e-09
-5.41412e-09
5.33827e-09
3.85357e-09
-3.81824e-09
2.0725e-11
-5.60574e-11
-2.42222e-09
2.32257e-09
2.59587e-09
-5.35859e-09
1.40408e-09
3.95636e-09
-1.85392e-12
-5.99759e-11
6.247e-11
-4.49844e-12
2.0043e-12
-3.12085e-10
1.73626e-10
-1.82172e-10
1.02202e-10
-3.53887e-09
3.46329e-09
-2.66238e-11
-4.4576e-09
4.58749e-09
-2.34405e-10
1.04514e-10
-4.57538e-09
2.23173e-10
4.16838e-09
1.83829e-10
-1.37313e-09
-1.31512e-09
9.68111e-10
1.72013e-09
-3.22035e-09
1.27933e-09
-1.25164e-09
1.51655e-10
-2.29281e-10
-4.36836e-09
3.8431e-09
-9.95903e-10
1.52117e-09
1.80943e-09
-1.73399e-09
2.66305e-09
-2.73849e-09
-3.37294e-11
3.10259e-09
-3.07058e-09
3.01385e-09
-2.24805e-11
7.92078e-11
-3.1485e-11
-3.55926e-09
3.53101e-09
5.97406e-11
-3.75238e-09
3.0486e-09
3.46606e-09
-2.76228e-09
3.25727e-11
-1.46226e-11
4.69017e-09
-4.68827e-09
-1.53754e-11
1.34715e-11
3.03925e-09
2.50745e-10
-3.2481e-09
-4.18942e-11
-1.96244e-09
2.94243e-11
1.93301e-09
-2.63353e-09
2.46739e-09
-1.79629e-09
3.95045e-11
-2.61013e-10
-2.36504e-09
2.01715e-09
1.12673e-09
-7.78847e-10
-9.95576e-11
-3.84513e-09
1.95505e-10
3.74918e-09
2.95157e-09
-4.73826e-09
2.8281e-09
-1.04141e-09
-3.31014e-09
2.38016e-09
-1.04942e-09
1.5687e-09
-1.56261e-09
-1.94719e-09
1.9411e-09
-2.38484e-09
-1.84295e-09
2.25339e-09
-8.29128e-11
1.66384e-10
-3.25462e-09
3.17115e-09
2.44669e-09
2.27499e-09
-1.38576e-09
-8.05551e-11
1.34614e-10
-4.5935e-09
-1.71147e-10
-3.3583e-09
6.03014e-11
-2.21622e-10
-3.57802e-09
4.3134e-10
1.61751e-09
-2.33019e-09
-3.0397e-09
1.94964e-09
-2.94293e-09
2.53856e-09
-1.54526e-09
1.091e-11
-4.54643e-11
-1.11286e-09
4.58142e-10
-1.96779e-09
2.62251e-09
-5.59129e-09
9.30262e-10
-8.10102e-10
3.58141e-09
-7.65936e-11
-2.69472e-09
3.49808e-09
-1.33957e-09
4.89144e-10
-2.64765e-09
-2.34113e-11
-9.40484e-11
-4.89012e-12
1.2235e-10
-2.09814e-09
-1.44163e-09
1.41088e-09
3.07813e-09
-3.1013e-09
2.22707e-11
9.00347e-13
4.7068e-09
-3.57103e-12
-1.30577e-11
1.05614e-08
-2.76461e-09
-7.2743e-09
1.02277e-09
1.3732e-09
-9.47095e-10
-4.14163e-09
2.10004e-09
-1.16408e-09
3.20568e-09
-6.07853e-09
1.32967e-09
5.8017e-09
-1.05284e-09
2.83768e-09
-1.19482e-09
2.75549e-10
-1.91841e-09
-2.06662e-11
4.37043e-09
-4.43032e-09
4.69318e-09
1.69868e-11
-3.3719e-12
-4.64162e-09
-6.14465e-11
1.48038e-11
2.99502e-09
5.90714e-12
6.93834e-12
-3.00787e-09
-2.61571e-09
1.63846e-10
-5.14382e-10
2.96625e-09
2.91196e-09
-1.93179e-09
1.46652e-09
-3.47678e-09
6.29962e-10
-1.73169e-11
1.13709e-10
-1.2487e-10
1.82668e-11
-7.10544e-12
-3.89251e-09
-2.27784e-10
5.69418e-10
3.55088e-09
-8.07657e-10
9.12855e-10
-7.8986e-11
9.55896e-11
-4.65823e-09
-1.20422e-10
6.09367e-12
-1.56719e-11
1.3e-10
-1.07918e-09