/*--------------------------------*- C++ -*----------------------------------*\
  =========                 |
  \\      /  F ield         | OpenFOAM: The Open Source CFD Toolbox
   \\    /   O peration     | Website:  https://openfoam.org
    \\  /    A nd           | Version:  8
     \\/     M anipulation  |
\*---------------------------------------------------------------------------*/
FoamFile
{
    version     2.0;
    format      ascii;
    class       surfaceScalarField;
    location    "7.6";
    object      phi;
}
// * * * * * * * * * * * * * * * * * * * * * * * * * * * * * * * * * * * * * //

dimensions      [0 3 -1 0 0 0 0];

internalField   nonuniform List<scalar> 
3021
(
1.92513e-10
-1.92513e-10
-2.15548e-08
-2.19657e-08
3.2581e-08
1.09394e-08
-1.67519e-08
-1.19455e-08
2.32272e-08
5.47021e-09
-2.91953e-08
-3.1663e-09
1.56096e-08
9.76331e-10
-1.29327e-08
1.19564e-08
9.00953e-09
-6.8706e-09
7.30783e-09
-9.44676e-09
-7.88113e-11
-1.62864e-08
1.55709e-08
7.94284e-10
-7.43017e-10
3.57518e-10
-1.91282e-08
1.95137e-08
1.09169e-08
-9.87002e-09
-6.9742e-09
5.92732e-09
-1.45231e-08
-3.32798e-09
1.0826e-08
7.02505e-09
-1.47461e-08
-1.73788e-08
1.05701e-08
6.30935e-09
-6.62554e-09
1.20761e-08
-1.17599e-08
1.75972e-08
2.2915e-09
-1.1029e-08
-8.85964e-09
-5.55528e-09
-1.71939e-08
8.22605e-09
6.74796e-09
-7.58158e-09
-6.52665e-09
7.36028e-09
-7.75667e-09
6.61705e-09
8.18692e-09
-7.0473e-09
-4.09e-09
-2.30099e-09
6.39099e-09
-3.17189e-09
-9.18107e-10
2.69367e-10
3.41163e-10
-2.28662e-10
-3.81869e-10
4.52088e-11
-3.45104e-10
-6.02469e-11
3.60142e-10
-1.04972e-08
-2.72657e-09
1.63902e-08
-3.16643e-09
-2.35747e-08
1.72764e-08
1.8547e-08
2.23912e-09
-2.07301e-09
-2.10082e-08
6.37395e-09
1.46343e-08
-6.72173e-09
1.57957e-09
8.59554e-09
-3.45338e-09
6.09176e-10
-9.28307e-09
7.01418e-09
1.65971e-09
3.01289e-09
-1.27845e-08
-6.92775e-10
1.04643e-08
1.15098e-08
-2.9653e-09
-2.94473e-09
-5.59974e-09
3.18276e-08
-2.51895e-08
-2.3828e-08
1.719e-08
3.22803e-08
-2.54124e-08
-2.39186e-08
1.70508e-08
3.3414e-08
-2.6289e-08
-2.47537e-08
1.76287e-08
-4.88786e-09
5.83575e-09
-1.68917e-08
1.59438e-08
-2.24275e-08
-1.51988e-08
5.52844e-09
3.20979e-08
6.51233e-10
-7.47409e-10
7.47732e-10
-6.51556e-10
-5.72384e-09
2.64016e-09
-3.63805e-09
7.48657e-09
3.84669e-09
-4.5853e-09
3.89799e-09
8.67221e-09
5.02697e-09
1.40123e-08
1.19331e-09
-1.46069e-08
-5.98652e-10
9.35362e-09
-5.7723e-09
2.91806e-09
-6.49938e-09
-1.4818e-08
1.19136e-08
7.81035e-09
-4.90598e-09
-7.3497e-09
2.48839e-09
1.84814e-10
8.34847e-10
-4.0073e-10
-6.1893e-10
-5.09684e-11
5.48802e-10
9.35177e-11
-5.91351e-10
-4.33855e-08
1.73912e-08
1.40488e-08
-5.68303e-09
-1.98641e-09
7.66944e-09
1.44295e-08
1.50513e-09
-1.29218e-08
9.61861e-10
1.34357e-08
-3.85258e-10
-2.2746e-09
6.85856e-09
4.90214e-09
-9.4861e-09
2.54306e-09
-5.35243e-09
-2.91447e-09
1.00579e-09
4.20162e-09
5.70949e-09
-6.15536e-10
3.28703e-10
-1.24334e-09
1.53017e-09
-5.60761e-09
-9.98099e-09
5.71858e-09
4.00145e-10
-2.07633e-10
-1.51993e-08
-2.69178e-08
2.01514e-08
1.63684e-08
2.04322e-08
-2.87006e-08
-8.09991e-09
7.71447e-09
6.32814e-09
-7.01256e-09
-7.03005e-09
1.88257e-08
-3.53396e-09
-6.00419e-11
-4.15675e-10
4.00967e-09
-1.09872e-08
3.4637e-09
2.10544e-08
-1.35309e-08
-4.29342e-09
4.88204e-09
-5.85097e-09
5.26235e-09
-5.54558e-09
6.19461e-09
1.89402e-09
1.37844e-08
1.76739e-09
-1.43585e-08
-1.3666e-09
-2.08709e-09
1.42843e-09
2.02526e-09
-1.76598e-08
-1.96837e-08
2.63563e-08
-5.85275e-09
5.58798e-09
-2.06367e-09
2.32845e-09
8.80648e-10
-9.24794e-10
2.37967e-10
-1.93821e-10
-2.81006e-09
1.22009e-09
-9.88762e-10
2.57873e-09
4.13391e-10
9.30167e-10
-4.62911e-10
8.67455e-09
1.84973e-09
-5.51036e-09
-5.01392e-09
-8.9215e-10
-2.63618e-10
1.15577e-09
1.779e-09
-3.98292e-09
-3.34166e-09
6.94917e-10
-9.54463e-10
-5.80113e-09
6.06067e-09
2.72459e-09
3.97613e-09
-4.92172e-09
1.97104e-09
-1.03011e-09
-1.55479e-08
-1.00721e-08
-4.74962e-09
6.46037e-09
8.36136e-09
-1.0444e-08
-1.42237e-08
1.89474e-08
5.72039e-09
-5.35655e-09
5.86319e-09
3.29073e-08
-5.1998e-09
5.63348e-09
3.18466e-08
-5.36613e-09
5.55378e-09
3.16399e-08
6.7387e-09
-3.96794e-09
-6.5887e-09
3.81794e-09
-9.22695e-10
3.70952e-12
-5.80831e-12
2.98247e-10
6.49811e-10
-8.38562e-10
-1.09496e-10
-1.45931e-08
1.84911e-08
1.06391e-08
-1.1455e-08
8.85858e-09
-8.04276e-09
-3.68953e-09
7.00917e-10
-7.32155e-09
-4.99631e-09
1.16169e-08
-5.02938e-09
3.63182e-09
1.31773e-09
-1.83019e-09
5.12457e-10
9.66047e-09
-6.03377e-09
-8.65608e-09
-4.97776e-10
5.16499e-10
6.32511e-10
-1.77251e-08
9.90113e-09
-7.5978e-09
1.54218e-08
7.76894e-09
-5.83835e-09
-1.23568e-09
5.54418e-09
-8.24584e-09
8.70622e-09
-6.00456e-09
9.65774e-09
-8.11517e-09
3.07173e-10
-1.10345e-08
-7.40099e-10
-1.30891e-09
1.30835e-08
-6.88842e-10
2.57199e-09
1.36837e-09
-3.25151e-09
6.5265e-09
-5.30293e-09
9.93059e-09
-1.11542e-08
-9.88895e-09
-1.31383e-09
1.68317e-10
-2.39254e-09
8.6912e-09
3.05496e-09
8.36585e-10
1.2453e-08
-7.17131e-09
-2.07272e-09
9.94495e-09
-1.05044e-08
2.38768e-09
-4.99073e-09
1.31074e-08
3.18031e-09
-4.46141e-09
1.2811e-09
-2.36806e-08
2.36769e-08
8.08958e-11
-7.71488e-11
2.28665e-08
-5.44054e-11
6.13771e-11
-2.28734e-08
-2.26493e-08
2.26475e-08
5.10068e-11
-4.91495e-11
-2.05624e-08
-7.984e-11
2.06127e-08
2.95142e-11
2.04546e-08
-3.85091e-11
-2.0441e-08
2.48739e-11
-1.11142e-11
3.08901e-11
2.12432e-08
-2.1263e-08
-2.0535e-08
-1.29477e-11
2.55723e-11
2.05223e-08
-5.36347e-11
-2.05115e-08
2.05557e-08
9.38667e-12
-5.45259e-12
2.67832e-11
2.0331e-08
-2.03523e-08
2.13584e-08
-2.35954e-11
-2.13559e-08
2.10445e-11
4.31665e-13
4.81841e-13
2.12516e-08
-2.12525e-08
1.09865e-12
8.87385e-12
2.05324e-08
-2.05423e-08
-2.05205e-08
2.04831e-08
3.17729e-11
5.63573e-12
-2.12442e-08
2.12141e-08
2.99974e-11
1.3849e-13
7.28721e-11
-1.11237e-10
-2.04284e-08
2.04667e-08
1.78071e-08
-2.20877e-09
1.29352e-09
-1.68918e-08
1.88295e-08
-6.88768e-10
-1.86052e-08
4.64423e-10
-2.03473e-08
2.03484e-08
-2.34376e-11
2.23237e-11
1.59465e-08
-8.17234e-11
1.12276e-10
-1.59771e-08
1.77917e-08
-1.58016e-09
-1.72356e-08
1.02398e-09
-3.57233e-09
-1.09205e-08
-1.14574e-08
6.26812e-09
1.92978e-10
2.10024e-09
4.90295e-09
-1.59906e-09
-5.40413e-09
-1.31356e-08
9.7982e-09
-7.15975e-09
4.33008e-10
8.84723e-10
2.44346e-09
-1.17672e-08
1.07364e-08
-1.41262e-09
2.52623e-09
-9.97172e-09
-3.46708e-11
5.50702e-09
-6.72353e-09
1.25119e-09
-3.05591e-09
1.85182e-09
3.30433e-09
-8.43781e-10
-2.69266e-10
6.15271e-10
-1.23016e-08
-2.44738e-10
-8.60076e-10
1.82119e-10
-1.15818e-09
-5.67242e-09
-9.70141e-09
3.60661e-09
7.81193e-10
4.53593e-09
-5.3518e-09
8.14941e-09
-1.33151e-09
2.19163e-09
-4.86893e-09
-7.43269e-09
7.89916e-09
3.3773e-10
-8.23689e-09
9.74874e-10
-1.04698e-09
4.85495e-10
2.36734e-09
-1.16021e-09
-1.99024e-09
7.83114e-10
1.88172e-09
-3.57631e-10
5.33746e-09
-1.03294e-08
5.99772e-09
3.06206e-09
-3.04704e-09
-2.31601e-09
-9.06469e-09
2.04284e-08
4.64543e-10
-7.29793e-10
-1.81977e-09
2.08502e-09
4.66591e-09
8.97712e-09
-9.32122e-09
5.39421e-09
3.44056e-09
1.22814e-09
1.35181e-08
-3.19952e-10
1.0757e-09
-1.00049e-09
2.03848e-09
4.9353e-09
-1.65009e-08
-1.15894e-09
-8.0774e-09
5.76855e-10
-3.07487e-10
6.15457e-10
5.43653e-09
1.85903e-09
1.63301e-10
3.45008e-10
1.11338e-09
1.0821e-09
-8.68886e-10
-1.3266e-09
-8.97302e-10
7.33985e-10
2.17104e-09
-2.00772e-09
1.15743e-08
1.18047e-08
2.20675e-10
3.94782e-10
-1.37658e-08
1.3617e-08
1.37695e-09
1.7419e-08
-6.78305e-09
3.31176e-10
-4.34338e-10
-7.56914e-10
1.62756e-09
2.49146e-09
-1.22315e-10
5.55884e-09
-2.63505e-09
-5.36846e-10
-7.07337e-10
-2.17051e-09
9.00875e-10
-1.01871e-08
1.14117e-10
9.17214e-09
6.61277e-10
-4.11097e-09
-1.34766e-08
1.22846e-08
1.97906e-09
-5.44977e-09
6.61184e-09
2.31627e-09
-7.78706e-10
-6.78855e-09
7.87028e-09
-5.29687e-09
4.21514e-09
-1.66009e-08
7.6899e-09
-5.36532e-09
1.42763e-08
5.00585e-10
7.27829e-10
-9.88901e-09
1.2307e-08
8.26823e-09
-1.06862e-08
-1.30482e-10
-1.78556e-09
-3.84946e-10
1.10684e-08
-1.64585e-09
2.52897e-09
9.07147e-09
-1.10145e-08
-5.85966e-10
7.85044e-10
-7.19826e-10
1.169e-10
2.7838e-09
-3.65066e-09
-2.18905e-09
1.2486e-08
-1.2481e-08
7.41898e-09
-7.42395e-09
-6.13897e-09
4.67607e-09
-5.61148e-09
6.72058e-10
8.03401e-10
-1.22913e-09
7.43214e-09
3.02542e-09
-2.94287e-09
1.76927e-09
-1.13389e-08
3.73221e-09
8.50752e-09
-7.47447e-09
1.13151e-08
-7.41295e-09
7.91651e-10
-2.89702e-12
-4.77297e-09
-9.42432e-09
7.52712e-09
6.67017e-09
-5.09632e-09
1.07567e-08
9.51424e-10
-1.07747e-09
2.68464e-10
-1.30807e-09
7.5841e-12
1.31558e-09
-1.5099e-11
-5.59354e-09
-1.07719e-08
8.74473e-09
7.3646e-09
1.14446e-08
8.39887e-10
-1.39216e-08
1.63715e-09
-6.98359e-10
3.98151e-10
-1.62703e-10
7.77672e-09
-2.19841e-11
2.14019e-08
-2.14408e-08
6.08892e-11
-2.05147e-08
2.05254e-08
2.97007e-13
-1.10552e-11
-2.07126e-08
-6.17827e-12
2.07193e-08
-5.37571e-13
-2.14468e-08
6.72575e-12
2.1463e-08
-2.29168e-11
1.84855e-11
2.14476e-08
-2.14161e-08
-4.9927e-11
-1.1713e-08
1.1691e-08
1.09976e-11
-1.1724e-08
-2.053e-08
1.24555e-11
2.91076e-12
-2.14042e-08
-2.37336e-11
2.14021e-08
2.58216e-11
-3.30671e-11
-2.06507e-08
2.06146e-08
6.91497e-11
-1.08266e-11
-2.14308e-08
3.73832e-11
-2.07328e-08
1.52824e-11
4.90051e-12
1.15979e-08
-1.16411e-08
4.32041e-11
2.04449e-11
-2.14343e-08
2.14501e-08
-3.63127e-11
1.15856e-08
-1.15669e-08
-1.87067e-11
2.01982e-11
2.14088e-08
-2.1387e-08
-4.20296e-11
1.52194e-11
2.05744e-08
-2.05956e-08
6.00579e-12
1.34245e-11
2.14591e-08
-2.14599e-08
-1.26383e-11
2.05438e-08
-2.05254e-08
5.90972e-12
-2.43342e-11
-1.42784e-11
1.12117e-08
-1.11974e-08
-2.30591e-08
2.23153e-08
-9.65407e-10
1.70915e-09
1.15218e-08
-4.2167e-11
-1.14797e-08
1.12305e-08
-1.12285e-08
-1.99244e-12
-1.16852e-08
1.16744e-08
-1.13054e-08
1.12723e-08
1.17127e-08
-1.16923e-08
-1.15403e-08
-1.98376e-11
1.15602e-08
-1.17207e-08
1.17341e-08
1.15626e-08
3.53219e-11
-1.12377e-08
1.12157e-08
2.19552e-11
1.16779e-08
-1.16577e-08
6.8417e-11
-2.13936e-08
2.14221e-08
-9.69558e-11
-2.84936e-14
-2.07146e-08
2.07326e-08
-1.78878e-11
-1.31539e-09
-2.37856e-08
2.04187e-09
-2.2641e-11
2.06796e-08
-2.07158e-08
5.88126e-11
2.06247e-11
2.14449e-08
-2.14488e-08
-1.67236e-11
-1.0853e-09
-2.48678e-08
2.44254e-08
1.52766e-09
9.75887e-12
-2.14808e-08
2.15111e-08
-4.0124e-11
1.51065e-11
2.07397e-08
-2.07341e-08
-2.07521e-11
1.16888e-08
-1.16682e-08
-1.46796e-08
1.33642e-08
2.06094e-08
-1.50117e-10
-2.07589e-08
2.99597e-10
1.30612e-11
2.14447e-08
-2.14414e-08
-1.63642e-11
-1.15514e-08
1.15644e-08
-2.13588e-08
1.04388e-11
2.13616e-08
-1.31841e-11
-2.12432e-08
-3.66891e-10
2.09797e-08
6.30412e-10
-8.78233e-10
2.23594e-08
-2.31632e-08
1.68199e-09
2.14463e-08
-2.1478e-08
3.50597e-12
2.82663e-11
-2.07282e-08
2.07288e-08
-1.56688e-11
1.50503e-11
5.10614e-12
-2.05842e-08
2.05852e-08
-6.12884e-12
2.29104e-08
-3.03528e-10
-2.76777e-08
5.07084e-09
2.04729e-08
-1.6108e-11
-2.04766e-08
1.97983e-11
-2.0758e-08
3.68478e-12
2.61161e-11
2.05189e-08
1.63257e-11
-2.05139e-08
-2.12282e-11
-2.11901e-08
2.10832e-08
1.32862e-12
1.05517e-10
-2.16433e-08
-1.00763e-10
5.53978e-10
-1.12263e-08
1.12414e-08
1.24273e-08
-1.33056e-08
2.1073e-08
3.22156e-11
-2.20347e-11
1.51435e-11
2.05673e-08
-3.86026e-11
-2.58646e-12
-2.07399e-08
2.07591e-08
-1.65991e-11
-1.71579e-08
1.60726e-08
-2.09209e-08
-6.18434e-11
2.08546e-08
1.28211e-10
-1.15598e-08
1.16283e-08
2.14466e-08
-1.68585e-11
1.65318e-11
1.12814e-08
-1.12763e-08
-2.05436e-08
8.66226e-13
2.05385e-08
4.23693e-12
-2.18025e-08
2.15183e-08
-2.84741e-10
5.68983e-10
-3.4904e-10
2.19091e-08
-2.19711e-08
4.11035e-10
4.83804e-11
1.14836e-08
-1.1532e-08
-1.70231e-11
2.07312e-08
-2.07419e-08
2.76847e-11
-9.38274e-12
-2.13579e-08
8.46026e-12
-1.13648e-08
1.13478e-08
1.16092e-08
-2.3575e-11
-1.12745e-08
2.75802e-11
1.12469e-08
-1.16462e-08
1.16368e-08
-1.65214e-08
2.34124e-10
1.62873e-08
-1.12836e-11
-2.14752e-08
2.14544e-08
3.21251e-11
1.00096e-11
2.07693e-08
-2.07886e-08
9.27e-12
1.13502e-08
-1.13728e-08
-2.89475e-11
-2.05312e-08
2.05115e-08
4.86556e-11
-1.12753e-08
1.12853e-08
-1.70466e-11
-1.1283e-08
1.13e-08
1.02911e-11
2.14952e-08
-2.15176e-08
1.20628e-11
-5.6426e-12
2.06026e-08
-2.05835e-08
-1.34842e-11
-2.05052e-08
-2.80814e-11
2.05013e-08
3.19377e-11
-3.30745e-12
2.15338e-08
-2.15193e-08
-1.11892e-11
-1.16109e-08
2.98951e-11
1.1581e-08
3.17127e-12
1.13953e-08
-1.13984e-08
1.15399e-08
-1.15512e-08
1.36565e-08
-1.40055e-08
5.06582e-11
1.41777e-08
-1.42283e-08
-2.07356e-08
2.07403e-08
9.06679e-12
-1.37834e-11
-9.104e-12
2.05666e-08
-2.05732e-08
1.57092e-11
-1.15587e-08
7.3256e-12
-4.74597e-13
2.0715e-08
1.42634e-11
-1.12666e-08
-6.9227e-12
1.12735e-08
-1.1227e-08
7.12572e-13
-1.63641e-11
3.99857e-11
2.04493e-08
-1.12761e-08
-9.02052e-10
1.21782e-08
-1.12507e-08
1.12451e-08
7.98505e-12
-1.15667e-08
2.14322e-08
-9.73318e-13
1.53135e-11
-1.12345e-08
7.47033e-12
1.12393e-08
-8.73667e-12
1.14634e-08
6.15658e-11
-1.15249e-08
-1.77297e-08
5.71776e-10
1.13905e-08
-1.14218e-08
3.1285e-11
-1.16124e-08
1.16227e-08
2.44251e-13
-1.12668e-08
1.12576e-08
-1.12667e-08
-1.42873e-11
2.1392e-08
-4.4636e-11
-2.14333e-08
8.59361e-11
-9.79908e-10
1.61864e-08
-1.52065e-08
2.14781e-11
-1.11316e-08
1.11102e-08
-1.10744e-08
1.10948e-08
-2.03837e-11
-2.4288e-08
-7.44418e-10
2.422e-08
8.1243e-10
2.34428e-08
-1.48436e-09
-2.29383e-08
4.47962e-11
-6.9516e-11
2.21422e-08
2.86774e-10
-1.16088e-08
-9.36256e-10
1.25451e-08
2.04572e-08
-1.34874e-11
-2.04587e-08
1.50349e-11
3.60292e-12
-1.13352e-08
-1.95913e-11
1.13548e-08
-3.39304e-12
2.05371e-08
-2.05615e-08
2.78329e-11
-2.07602e-08
-5.55256e-12
2.07548e-08
1.09395e-11
2.14594e-08
-1.005e-11
9.74432e-12
2.14833e-08
-5.67893e-12
1.75726e-11
1.09147e-11
1.12467e-08
-1.12212e-08
1.12178e-08
-1.11873e-08
2.64049e-12
1.11846e-08
-1.12327e-08
-1.79824e-11
2.05795e-08
2.17464e-11
1.38089e-12
2.07132e-08
2.48813e-11
-3.45521e-11
-2.07035e-08
-4.77617e-10
-2.15153e-08
7.49706e-10
-1.11113e-08
1.11477e-08
-3.63624e-11
-6.07398e-12
2.14762e-08
1.32281e-11
1.21348e-08
-1.26124e-08
-3.35013e-10
-1.76931e-08
-3.65587e-11
-1.16189e-08
1.16384e-08
-1.94602e-11
-1.1617e-08
2.56627e-11
-1.12762e-08
1.1302e-08
-2.58524e-11
2.0562e-08
1.54828e-11
2.1927e-08
-6.9536e-11
-2.18068e-08
-5.2508e-12
1.43809e-11
-2.73418e-11
2.13438e-08
7.55357e-11
-1.12801e-08
2.06234e-08
-2.06755e-08
7.36636e-11
-1.68911e-08
-8.0202e-10
2.07626e-08
2.28054e-11
-2.0754e-08
-3.13875e-11
-1.41872e-11
-1.11731e-08
-1.1303e-11
1.12217e-08
-1.12104e-08
-1.91019e-11
2.07225e-08
1.09158e-11
-2.02109e-11
2.07206e-08
-9.39826e-12
1.12521e-08
-1.12392e-08
-1.28781e-11
2.05191e-08
1.91565e-11
-2.04924e-08
-4.58895e-11
-1.16524e-08
6.25438e-12
2.05246e-08
-1.97274e-11
1.472e-09
2.40037e-08
-2.34093e-09
-2.31348e-08
-1.12627e-08
-9.20842e-10
1.21835e-08
-5.28788e-12
-1.12785e-08
1.12838e-08
1.37062e-11
-1.81091e-11
-2.07755e-08
8.45437e-12
2.07856e-08
-1.8564e-11
2.30265e-12
1.12194e-08
2.4897e-08
-2.45575e-08
-3.76055e-10
2.04467e-08
5.16416e-12
1.14954e-08
-3.20712e-11
-1.13344e-08
-8.07716e-13
-2.10039e-08
1.31398e-10
-1.1292e-08
1.12941e-08
-1.13077e-08
1.36373e-11
1.12737e-08
-1.12585e-08
-1.11995e-08
9.1774e-12
-2.20093e-11
-2.15237e-08
-2.56614e-12
2.15194e-08
6.80824e-12
-4.99099e-11
8.50112e-11
2.13668e-08
-1.32246e-11
-1.72506e-11
2.96131e-11
-6.28896e-11
-2.13954e-08
-1.16507e-08
-1.79355e-12
1.17679e-08
-1.11539e-08
-1.31284e-11
2.0767e-08
-1.42096e-11
1.23578e-08
-1.11901e-08
5.84493e-11
5.02108e-10
1.31544e-08
-2.07506e-08
2.07357e-08
1.80351e-11
-5.5663e-12
-2.15267e-08
8.57297e-12
-1.13051e-08
2.04827e-08
-2.04683e-08
-3.1414e-11
-2.05258e-08
-1.07805e-12
2.17142e-11
2.05438e-08
-2.75205e-11
2.07448e-11
1.15127e-08
2.72122e-11
1.23815e-11
1.1269e-08
1.57023e-11
-1.11903e-08
1.11746e-08
-7.92701e-12
-2.0535e-08
-2.82096e-11
-1.16385e-08
1.16359e-08
1.13777e-08
-1.13803e-08
-1.602e-11
-1.13183e-08
-2.05964e-08
2.05874e-08
2.0367e-12
6.92966e-11
-1.13744e-08
1.47499e-10
1.2428e-08
-7.0131e-11
1.15245e-08
2.43399e-10
7.37286e-11
1.12283e-08
-1.13074e-08
1.12913e-08
-1.12349e-08
2.05137e-08
4.58745e-11
2.61096e-12
-1.24042e-11
1.14681e-08
1.43812e-11
-3.98226e-11
2.05798e-08
1.78549e-11
9.73829e-12
-9.34431e-12
1.12176e-08
-2.05312e-08
-1.97343e-11
2.51612e-11
2.10562e-08
3.22908e-11
-1.54795e-11
-2.38479e-11
7.61189e-11
-1.12749e-08
1.12841e-08
-1.16441e-08
-2.04415e-12
-2.04814e-08
2.47019e-11
1.21073e-09
-1.45163e-08
8.41323e-13
-5.89153e-10
1.10196e-09
-1.11971e-08
1.13706e-08
-1.13615e-08
1.39297e-09
2.80313e-11
5.3364e-10
-1.21244e-08
1.15908e-08
2.43449e-11
-1.76826e-11
2.17489e-08
6.62328e-10
-2.07829e-08
6.66408e-11
1.16472e-08
-6.44126e-11
2.0374e-08
-2.7328e-11
-2.04417e-08
9.49403e-11
1.12925e-08
1.8008e-09
-1.66332e-11
2.24671e-11
1.14407e-08
7.38783e-12
-1.35365e-12
-2.13892e-08
2.13646e-08
-7.53704e-12
-2.38166e-08
1.86415e-09
-2.39754e-08
-7.84167e-11
1.04544e-11
-3.58807e-11
2.0526e-08
-2.31441e-11
-2.0701e-11
-8.67697e-10
1.72145e-10
-1.13556e-08
-9.65542e-13
1.13566e-08
-5.41932e-10
7.75531e-10
2.55582e-11
-1.11378e-08
1.10837e-08
5.40776e-11
-2.13728e-08
2.11159e-11
2.28925e-12
1.68106e-10
-1.61517e-10
2.13372e-08
-1.12347e-08
-2.14719e-08
-3.24569e-11
-1.11146e-08
1.1114e-08
6.4625e-13
2.07192e-08
3.33737e-12
-2.74699e-12
6.01e-10
-1.12119e-08
1.11951e-08
1.67877e-11
-1.15559e-08
1.16351e-08
1.149e-08
-1.14914e-08
1.15236e-08
-1.11746e-08
-1.25781e-08
-2.62839e-09
1.65937e-10
-1.618e-10
2.06192e-08
1.77134e-11
3.34297e-11
-1.12235e-08
-1.54191e-08
-1.1063e-08
-1.14373e-11
1.90691e-10
1.7244e-11
2.35719e-11
-1.13509e-08
1.13659e-08
-1.49819e-11
1.23988e-08
-1.12506e-08
-1.0964e-08
1.11211e-08
-1.57093e-10
-9.00141e-12
-3.18789e-11
-1.1122e-08
-9.94e-12
1.1493e-08
-1.14828e-08
-1.02505e-11
-1.55428e-08
1.02653e-09
-2.07166e-08
-6.7527e-12
1.28063e-10
-1.1191e-08
1.11841e-08
6.91817e-12
6.32035e-12
2.14328e-08
7.43134e-12
-2.06289e-10
-1.10564e-08
-3.99293e-11
1.13369e-08
-1.13358e-08
-1.437e-08
1.41671e-10
2.0733e-08
-4.73866e-12
3.88025e-11
-1.15375e-08
1.15158e-08
2.1748e-11
2.07131e-08
5.33311e-11
-1.18097e-08
-3.43677e-11
-1.11911e-08
1.11898e-08
1.28837e-12
-2.83283e-11
-1.13999e-08
1.14386e-08
-3.87547e-11
-1.15677e-08
-9.64545e-09
9.11683e-09
5.28618e-10
-9.33439e-11
-1.15845e-08
2.03901e-08
-2.22331e-10
-3.41581e-11
-1.35584e-09
-4.57706e-11
-1.10656e-08
2.54179e-11
-1.13399e-08
-1.0991e-11
9.59923e-11
-1.14516e-08
1.14613e-08
-9.65362e-12
1.17013e-08
-1.19977e-08
2.96429e-10
-1.12057e-08
1.45346e-11
-6.65934e-11
-4.516e-11
-2.04791e-08
2.60513e-11
1.15011e-08
-8.09518e-12
3.46342e-11
3.355e-11
-3.39995e-11
4.64216e-10
-1.0998e-08
1.09902e-08
7.79219e-12
-1.12303e-08
1.83804e-11
-1.11541e-08
1.11634e-08
-9.3473e-12
1.42991e-09
-9.82212e-12
-1.88884e-12
-5.60572e-09
-4.1047e-11
1.00465e-11
-2.72494e-11
-2.76101e-11
-1.21351e-11
4.23931e-11
-1.13429e-08
3.05411e-12
1.12491e-08
-1.12749e-08
2.57952e-11
1.02992e-10
1.88571e-11
2.51082e-11
2.03283e-09
-1.11929e-08
1.11913e-08
1.59172e-12
-1.30018e-12
-2.69449e-11
-1.13669e-08
-2.17031e-11
1.13886e-08
3.67536e-11
-1.1183e-08
1.11896e-08
-6.61858e-12
-1.41765e-11
-2.07166e-11
1.11882e-08
1.65444e-12
-1.14412e-08
-1.0394e-11
-2.75587e-11
1.1037e-08
-1.10443e-08
7.31467e-12
2.18728e-12
2.75697e-11
-7.58512e-09
6.46605e-09
1.11907e-09
4.8271e-11
-1.10226e-08
1.10042e-08
1.84409e-11
-1.11679e-08
1.1605e-08
-4.37073e-10
8.88225e-12
-1.11066e-08
1.30189e-12
1.11053e-08
1.11159e-08
-1.11135e-08
-2.37476e-12
1.16031e-08
-1.1533e-08
-7.01081e-11
1.42365e-11
1.4314e-11
-1.11151e-08
1.11271e-08
-1.20202e-11
1.26377e-12
-1.15122e-08
1.15213e-08
-9.11561e-12
-1.0288e-08
-8.79908e-10
-1.14425e-08
1.26305e-12
1.10643e-08
-1.10972e-08
3.28777e-11
-9.01979e-09
-1.26825e-09
3.67255e-13
-1.10164e-08
1.10288e-08
-1.24202e-11
1.127e-08
-1.11952e-08
-7.48247e-11
2.55089e-09
-1.0136e-08
-1.13515e-08
8.5697e-12
-1.11474e-08
-6.68686e-12
1.14535e-08
-1.15394e-08
8.59359e-11
-1.11335e-08
1.11388e-08
-5.29403e-12
-1.10119e-08
-4.41974e-12
1.11467e-08
-1.13838e-08
2.37088e-10
7.24844e-13
1.11102e-08
-1.11048e-08
-5.49753e-12
-1.10165e-08
1.10144e-08
2.0908e-12
-1.14446e-08
1.144e-08
4.58617e-12
-1.11355e-08
1.11287e-08
6.79026e-12
-1.14388e-08
-3.71324e-12
-1.11501e-08
1.46143e-11
1.1908e-08
-1.17205e-08
-1.87556e-10
1.1567e-08
-1.13874e-08
-1.79597e-10
1.13561e-08
-1.13617e-08
5.54721e-12
-1.10303e-08
1.10008e-08
2.94821e-11
1.23763e-08
-4.68263e-10
-1.08042e-11
-1.1474e-08
-8.72875e-12
6.2086e-12
1.11716e-08
-8.21084e-12
-4.84877e-12
-1.2761e-11
-8.55793e-12
1.16454e-10
1.10213e-08
-1.10263e-08
5.02188e-12
1.1391e-08
6.24086e-11
3.17464e-10
1.20697e-08
-1.2368e-08
2.98349e-10
1.14534e-08
-4.50563e-12
-1.14489e-08
-1.17777e-11
-1.10948e-08
-4.6467e-12
-1.10396e-08
-1.13698e-11
1.08979e-08
-1.41844e-09
-9.47943e-09
2.04844e-08
6.60485e-11
-1.14577e-08
1.31568e-11
-1.28589e-09
-7.73389e-09
-1.14678e-08
1.00825e-11
4.79511e-12
5.87385e-10
-1.02328e-08
1.11228e-08
-1.11361e-08
1.3363e-11
-1.10614e-11
1.18364e-12
-1.22158e-08
1.63182e-08
-4.10242e-09
1.1446e-08
7.41882e-12
2.50341e-12
-1.06306e-08
-3.33386e-10
1.20259e-08
-4.58971e-10
1.14229e-08
2.31165e-11
-1.13745e-08
2.29889e-11
1.13978e-08
2.51023e-11
1.01077e-08
-5.65559e-10
-9.54215e-09
2.93899e-11
2.32922e-11
-5.22879e-10
1.11575e-08
-3.64514e-11
1.50005e-11
-1.31788e-09
1.10433e-08
2.10693e-11
-4.87338e-12
-1.21844e-08
1.86754e-10
6.76328e-12
-1.14763e-10
-1.17392e-10
-1.17314e-10
1.69258e-11
-1.11342e-08
3.70079e-11
1.11307e-08
-3.55067e-12
9.23434e-12
-1.111e-08
5.24578e-12
1.11061e-08
7.87648e-12
-3.88564e-12
9.67919e-11
2.32923e-11
3.91065e-10
4.85991e-10
-2.27245e-10
2.38639e-10
-6.2729e-10
-1.36744e-09
2.19352e-09
1.03295e-09
-9.53764e-10
3.08188e-09
2.00403e-09
-1.2601e-09
-1.61337e-09
8.6945e-10
-9.82855e-09
-3.36832e-09
1.24568e-08
-1.14676e-09
-2.03831e-09
1.06495e-09
2.12012e-09
-1.18339e-09
-4.47991e-10
-1.18003e-09
8.50529e-09
-2.26445e-08
3.52173e-11
-3.90049e-11
2.26413e-08
2.36768e-08
-2.36642e-08
4.83238e-11
1.10145e-11
-2.05608e-08
2.0551e-08
5.90325e-12
-2.03787e-08
2.0375e-08
-4.68537e-11
2.28788e-08
8.12188e-11
2.26411e-08
-2.26379e-08
2.28839e-08
-2.28829e-08
2.28722e-08
-2.28798e-08
-4.55962e-12
-2.04576e-08
2.04511e-08
7.82738e-12
2.28894e-08
8.58565e-13
-1.48221e-11
-5.32582e-12
2.26493e-08
2.36809e-08
-2.36771e-08
-1.64241e-11
2.2889e-08
-2.28712e-08
-2.71673e-11
-2.26367e-08
2.54574e-11
2.26432e-08
-7.34979e-12
2.36726e-08
1.80437e-11
3.79599e-11
-1.47414e-11
-2.28703e-08
2.36834e-08
-2.36762e-08
-4.34368e-11
-2.26456e-08
2.26424e-08
5.29611e-12
2.26414e-08
-2.97911e-11
-2.26458e-08
-2.36989e-08
2.36911e-08
1.63505e-11
-2.36783e-08
2.36853e-08
-1.81633e-11
2.28872e-08
-3.02403e-11
-2.28884e-08
-2.26651e-08
2.82826e-12
2.28886e-08
-2.33569e-11
2.36878e-08
-2.34068e-11
-2.36969e-08
-1.14265e-11
2.36778e-08
-3.01073e-11
2.26506e-08
-2.26876e-11
-2.80904e-11
-1.5465e-11
-6.75668e-11
2.36815e-08
-1.3124e-11
2.28833e-08
-1.32817e-11
2.13566e-08
-2.69789e-12
-2.26472e-08
3.21366e-11
-2.28163e-08
9.62832e-11
2.28483e-08
-2.37013e-08
2.37098e-08
1.69567e-11
-2.26212e-08
-7.82767e-13
-3.45579e-12
-2.26233e-08
8.40116e-12
-3.31323e-11
-2.36829e-08
-2.98029e-11
2.13262e-08
-2.13181e-08
2.28964e-08
1.1199e-12
2.13476e-08
1.64669e-11
-2.28947e-08
2.28831e-08
2.59957e-11
-2.3707e-08
2.3694e-08
3.0526e-11
-2.26137e-08
-5.40132e-12
2.26308e-08
-2.26241e-08
-1.65746e-11
-2.26522e-08
2.26607e-08
-2.55535e-12
1.09296e-11
1.48939e-11
2.26226e-08
-2.26126e-08
-3.12316e-11
-1.1066e-11
-3.0229e-12
2.36942e-08
1.30595e-11
-2.27732e-08
8.82286e-11
2.28835e-08
1.05682e-11
2.26275e-08
-2.25117e-08
-1.37823e-10
-2.27038e-08
6.77351e-12
2.26553e-08
-2.26709e-08
2.45241e-11
-2.36818e-08
2.36893e-08
-2.45669e-11
-9.18109e-11
-2.26118e-08
-2.91136e-11
2.2654e-08
-2.26517e-08
-8.3715e-12
2.28935e-08
1.4324e-11
2.37056e-08
1.66054e-11
-2.25632e-08
-4.21216e-15
-2.23916e-08
-1.45401e-11
2.36064e-11
2.37103e-08
2.2598e-11
2.2897e-08
2.26612e-08
9.83946e-12
2.36902e-08
-2.36852e-08
-1.01908e-10
2.2225e-08
5.38436e-09
-2.25386e-08
2.25038e-08
-2.24442e-08
2.39992e-10
-2.23093e-08
4.71685e-10
2.36752e-08
-2.3674e-08
-1.78449e-11
8.60766e-13
1.11342e-11
1.7165e-09
-2.33883e-08
4.32491e-10
2.35248e-08
-5.04453e-11
-1.84647e-08
-1.08981e-09
1.82367e-08
-1.91327e-08
-8.35501e-10
1.94453e-08
8.80688e-11
-3.38877e-12
-2.0761e-09
1.00027e-09
-2.32866e-08
2.2919e-08
-2.29416e-08
7.59468e-11
-8.68765e-10
2.37364e-08
-2.37496e-08
6.14442e-11
-2.29242e-08
2.28742e-08
1.23683e-10
9.07402e-11
2.37344e-08
8.79446e-11
1.8643e-08
-2.13716e-09
2.36774e-08
1.32529e-10
-1.46679e-11
2.35306e-08
-2.2425e-08
-6.76218e-11
2.26207e-08
-1.28496e-11
2.27253e-08
-2.43653e-10
-2.22509e-08
-4.88401e-10
-2.33578e-08
2.34701e-08
-8.29939e-09
9.04951e-09
-1.61181e-08
5.71437e-10
5.47457e-10
-1.00529e-10
-3.5596e-09
8.20525e-10
5.94435e-10
1.8512e-09
-1.71165e-09
8.24267e-09
-8.37801e-09
-7.13525e-09
7.27059e-09
1.86719e-11
1.10866e-08
4.172e-11
2.28901e-08
-1.94968e-11
1.10483e-08
1.272e-12
1.12025e-08
-1.12037e-08
2.16294e-11
-1.14894e-08
2.38504e-11
-1.11739e-08
-2.03227e-11
1.14089e-08
2.31116e-11
-1.11592e-08
-6.26111e-12
1.1007e-08
1.70248e-11
1.15044e-08
-1.15214e-08
2.32522e-11
1.11631e-08
-1.11863e-08
-8.08094e-11
1.16858e-08
2.71396e-11
-2.29299e-08
6.66479e-11
-2.26997e-08
2.26991e-08
-5.70647e-12
1.1165e-08
-1.11593e-08
2.0216e-11
-2.37377e-08
2.07173e-10
8.90966e-09
-4.0108e-10
-1.15304e-08
1.19315e-08
-6.67593e-10
-6.36621e-09
7.0338e-09
1.83676e-10
6.28237e-09
1.6819e-09
6.96e-09
-8.6419e-09
-3.60829e-10
4.19773e-10
-1.49143e-09
1.43249e-09
2.04475e-08
2.22968e-11
-2.05482e-08
2.7533e-11
2.04232e-08
-2.04172e-08
-2.05086e-08
2.05022e-08
-2.05459e-08
1.21658e-11
-2.12389e-08
2.12371e-08
2.13379e-08
-3.20854e-11
-2.03187e-08
2.0312e-08
2.04454e-08
-2.03554e-08
-2.12436e-08
1.64291e-11
-2.05191e-08
2.18817e-11
2.12289e-08
-2.08772e-08
2.05057e-08
4.55307e-12
1.84167e-08
-1.82771e-08
2.12258e-08
8.4589e-12
-2.0331e-08
-2.19484e-11
1.63006e-08
-1.02167e-09
2.03852e-08
2.98159e-11
1.71035e-08
-1.74083e-08
1.59795e-08
7.06504e-10
-1.50041e-08
1.22322e-09
1.86667e-09
2.37414e-09
3.5376e-09
-2.11655e-09
-3.79518e-09
-5.14814e-10
-2.14156e-09
6.00443e-10
2.05593e-09
-5.63531e-10
-8.71292e-10
7.99886e-10
4.36059e-09
-1.98635e-09
7.55635e-09
-1.88639e-10
-1.19929e-08
1.21815e-08
8.24154e-10
-9.70875e-10
-1.85607e-09
1.76103e-09
-1.01266e-08
1.19071e-08
3.76375e-09
-1.56254e-08
-2.95904e-09
1.02766e-08
8.30783e-09
4.2517e-09
2.95456e-09
-3.7657e-09
-1.69149e-09
-1.32697e-09
-2.60452e-09
2.08891e-09
1.84258e-09
-6.92589e-09
-2.73434e-09
1.07333e-09
6.35388e-10
9.71573e-09
-1.01474e-08
1.26822e-09
1.34476e-09
8.96502e-10
-2.535e-09
-8.76503e-10
2.08453e-09
4.50075e-09
8.76499e-10
1.35589e-09
5.29155e-10
-1.06089e-09
-1.16837e-08
-1.92263e-09
1.26737e-09
1.23389e-08
8.80232e-09
1.47282e-09
-1.02751e-08
-1.10973e-08
1.25714e-09
1.44632e-08
-5.14774e-10
8.82227e-09
-8.16274e-09
-6.25308e-09
-2.4889e-09
2.82065e-09
2.39284e-09
-6.02493e-09
-8.11526e-09
-3.5472e-12
3.30268e-11
8.45246e-09
3.90399e-09
-1.01648e-08
-2.44131e-09
7.57104e-10
-1.98125e-08
1.18748e-08
7.18056e-09
-7.08499e-09
4.62038e-09
-5.29205e-09
3.03708e-09
3.2531e-09
1.6098e-09
-1.3318e-08
-1.47837e-09
-2.8158e-11
4.47449e-09
1.39567e-09
1.22094e-09
7.41279e-10
5.28605e-09
-2.11298e-08
8.36645e-10
-4.46988e-09
-1.21315e-09
2.04788e-09
2.74308e-09
-2.41681e-09
-1.33193e-09
4.14484e-10
4.21462e-10
9.88893e-09
-5.44816e-10
7.56967e-10
6.17871e-10
6.62591e-10
3.01829e-09
-1.54442e-08
2.50933e-09
1.2395e-08
5.39853e-10
6.74324e-09
3.62309e-09
-9.42051e-09
3.17289e-09
1.73041e-09
-4.45453e-09
5.97723e-09
2.8772e-09
1.57954e-08
-3.12338e-09
-1.75598e-08
-4.6174e-09
7.33856e-10
5.61395e-09
5.10247e-09
8.5644e-09
-2.5599e-09
-1.1107e-08
6.70423e-09
3.3884e-09
-2.6605e-09
-8.25117e-10
-9.18444e-10
-4.27545e-10
6.70992e-09
-1.68071e-10
9.07773e-09
4.81086e-11
1.16377e-08
-2.32001e-11
1.10302e-08
-1.89473e-11
1.14279e-08
-2.16323e-11
1.10699e-08
1.37812e-11
1.10728e-08
-2.02248e-08
5.57165e-10
1.92666e-08
-1.19664e-09
3.11283e-09
6.14564e-09
-4.21438e-09
4.25938e-09
6.28325e-09
-4.39699e-09
1.04712e-08
-1.45361e-08
2.5377e-09
6.97145e-10
-6.98958e-10
-1.08385e-12
-1.44895e-09
-1.83066e-11
1.10085e-08
2.30041e-09
-3.80038e-09
-2.37249e-08
-2.29124e-08
-2.13556e-08
-2.31664e-08
2.28218e-08
-2.38492e-08
2.36891e-08
-2.26773e-08
-2.26752e-08
2.26488e-08
-6.25393e-09
1.11873e-08
-1.12769e-08
1.13498e-08
2.26768e-08
-2.26931e-08
-8.18591e-09
1.11687e-08
1.15045e-08
-2.35115e-08
2.3459e-08
1.15217e-08
-1.64043e-11
1.11471e-08
1.11907e-08
2.37179e-08
-2.371e-08
2.29078e-08
-2.28956e-08
2.05948e-08
-2.2862e-08
2.2875e-08
-2.26374e-08
2.26236e-08
-2.36737e-08
2.36713e-08
1.11895e-08
2.28934e-08
-2.28858e-08
2.13328e-08
1.11786e-08
-2.04553e-08
2.0426e-08
2.26527e-08
-2.26502e-08
-2.06691e-08
-9.76307e-12
1.1198e-08
2.2869e-08
1.15046e-08
2.37049e-08
-2.36969e-08
-3.0354e-10
-6.9471e-09
-2.65528e-09
1.10896e-08
-8.73784e-09
-7.21086e-09
-1.23443e-08
1.08374e-09
2.18852e-10
8.6292e-09
-3.72764e-11
6.33892e-10
2.10269e-08
-1.55085e-08
9.02796e-09
1.95468e-11
-1.52163e-11
3.16779e-11
-1.93733e-11
-2.05446e-08
-7.03477e-12
5.77233e-12
2.04377e-08
2.35777e-11
2.92822e-11
-1.55743e-11
-3.94065e-11
-2.03166e-08
-2.66015e-11
1.22008e-11
-2.05656e-08
-3.68974e-11
5.97398e-11
-1.02881e-10
1.75995e-11
-4.37961e-12
-8.92399e-11
-1.74331e-09
1.15211e-09
6.12617e-11
1.80644e-10
8.28847e-12
-3.15019e-13
2.13696e-08
-9.26348e-11
-3.5654e-10
-5.59574e-10
2.19574e-11
2.05597e-08
1.99969e-11
2.12673e-08
7.085e-10
-7.0607e-10
-8.43285e-09
-3.09955e-09
-1.21463e-09
-9.42413e-10
-1.24092e-08
-3.60527e-09
-1.39166e-08
5.57784e-09
1.15695e-08
-1.46381e-08
-8.13552e-10
1.22061e-09
-9.82481e-12
7.50393e-12
2.044e-08
-1.36046e-12
-2.0553e-08
-9.83285e-11
5.52377e-11
2.14127e-08
-7.58537e-12
-2.03255e-08
-5.40665e-09
-1.72194e-08
-4.44791e-09
-2.67574e-09
2.43431e-08
5.11692e-10
2.57898e-09
-5.11812e-09
3.3463e-09
1.0816e-08
-1.21067e-08
6.86857e-09
2.59318e-09
-9.10963e-09
-1.89181e-08
1.7483e-08
9.125e-09
-7.2112e-11
4.15486e-09
2.02269e-10
1.01095e-08
-4.90108e-09
2.00341e-08
-1.32931e-08
4.70363e-09
-4.91379e-10
-1.33733e-08
2.3014e-09
2.15872e-09
8.91319e-09
1.24436e-08
-9.69235e-09
-1.58035e-10
-2.29105e-09
1.10934e-08
6.40202e-09
-5.98446e-10
-1.05692e-11