/*--------------------------------*- C++ -*----------------------------------*\
  =========                 |
  \\      /  F ield         | OpenFOAM: The Open Source CFD Toolbox
   \\    /   O peration     | Website:  https://openfoam.org
    \\  /    A nd           | Version:  7
     \\/     M anipulation  |
\*---------------------------------------------------------------------------*/
FoamFile
{
    version     2.0;
    format      ascii;
    class       volScalarField;
    location    "58";
    object      p;
}
// * * * * * * * * * * * * * * * * * * * * * * * * * * * * * * * * * * * * * //

dimensions      [0 2 -2 0 0 0 0];

internalField   nonuniform List<scalar> 
591
(
0.000123921
0.000123939
0.000123946
0.000123899
0.000123901
0.000123972
0.000123969
0.000123933
0.000117009
0.000123949
0.000124125
0.00012286
0.000123941
0.000119758
0.000123934
0.000123985
0.000123905
0.000123976
0.000121974
0.000123312
0.000123913
-3.52562e-06
0.000124123
0.000123917
0.000124081
0.000123936
0.00012403
0.000124041
0.000123949
0.00012396
0.000124101
0.000124077
0.000124096
0.000124094
0.000124097
0.000123422
0.000124092
0.000123917
0.000124118
0.000124037
0.000124006
0.000124089
0.000123944
0.000123965
0.000124086
0.000124105
0.000119278
0.000124109
0.00012395
0.000124068
0.00012405
0.000124084
2.39441e-05
3.05905e-05
4.7851e-05
0.000123946
0.000124113
0.000124099
0.000124106
0.000123922
0.000124008
0.00012394
0.000123939
0.000123989
0.000122596
0.00012394
0.000123944
0.000124104
0.000120755
0.000123954
0.000123949
0.00012411
0.000124076
0.00012409
0.000124096
0.000124072
0.000123917
0.000124107
0.000123919
0.00012385
0.000123697
0.000124112
0.000124072
0.000124048
0.000124119
0.00012393
0.000124022
0.000124102
0.000124064
0.000123817
0.000124077
0.000124019
0.000124037
0.000123923
0.000124117
0.000124072
0.000123627
0.000123526
0.000123677
0.000124123
0.000124032
0.000123947
0.000124127
0.000123899
0.000124127
0.000123942
0.000123938
0.000124076
0.000124117
0.000124121
0.000124007
0.000124096
0.000123956
0.000124102
0.000124121
0.000124099
0.000124051
0.000124051
0.00012361
0.000124018
0.000123941
0.000123938
0.000124011
0.000123924
0.000124091
0.000120226
0.000124125
0.000124101
0.000123695
0.000124097
0.000123933
0.00012362
0.00012406
0.000124057
0.0001241
0.000123947
0.000122639
0.000124125
0.000123935
0.000123609
0.000123674
0.000124025
0.000124105
0.000124118
0.000124113
7.61706e-06
3.67858e-06
2.07127e-06
3.81616e-05
3.67019e-05
5.66123e-06
3.83118e-05
1.57417e-05
3.72915e-05
1.7808e-05
0.00012394
0.000123931
0.000124113
0.000124109
0.000124115
0.000124114
0.000124107
0.000124104
0.000124111
0.000124111
0.000124074
0.000124116
0.000124111
0.000124117
0.000124052
0.000123421
0.000124118
0.000122152
0.000124095
0.000124099
0.000124044
0.00012395
0.000124099
0.000124112
0.000124108
0.000123521
0.000122502
0.000123077
0.000123476
0.000124103
0.000124109
0.000124031
0.000123914
0.000124103
0.000122992
0.000123334
0.000123915
0.000124098
0.000123793
0.000124092
0.000124104
0.000124077
0.000123763
0.000123904
0.000124102
0.00012411
0.000124107
0.000123903
0.00012409
0.000123899
0.000124119
0.000123935
0.000123934
0.000124116
0.000123726
0.000123905
0.000123946
0.000123577
0.000124066
0.000123723
0.00012401
0.000124018
0.000124093
0.000123491
0.000124001
0.000123896
0.000123899
0.000124073
0.00012383
0.000123988
0.0001239
0.000123809
0.000123892
0.00012412
0.000123874
0.000124115
0.000123961
0.000124092
0.000123942
0.000123942
0.000124122
0.000123839
0.00012411
0.00012383
0.000123876
0.000123941
0.000123919
0.000123955
0.000123941
0.000123709
0.000123914
0.000123865
0.000124082
0.000123934
0.000123779
0.000124068
0.000123334
0.000123885
0.000123229
0.000123108
0.000123926
0.000123891
0.000123927
0.000123925
0.000123888
0.00012412
0.00012397
0.000124056
0.000123978
0.000123974
0.000123987
0.000124071
0.000123723
0.000124116
0.00012376
0.000123651
0.000123959
0.000124091
0.000123672
0.000124114
0.000124018
0.000124051
0.000124072
0.000123951
0.000123918
0.000123742
0.000123887
0.000123911
0.000123964
0.000124015
0.000124085
0.000124101
0.000124107
0.000123869
0.000123972
0.000124094
0.000124101
0.000124097
0.000123893
0.000124108
0.000123981
0.000124087
0.000123857
0.000124109
0.000123846
0.000124087
0.00012398
0.000123918
1.16424e-05
2.19131e-05
0.000123877
0.000123945
0.000124118
0.000123876
0.000124119
0.000123956
0.000124109
0.000124087
0.000123831
0.000124082
0.000123913
0.000124114
0.000123948
-2.09474e-07
0.000123801
0.000124092
0.000124088
0.000123792
0.00012393
0.000123969
0.000124082
0.000123851
0.000124103
0.000123991
0.00012394
0.000124081
0.000123897
0.000123824
0.000123854
0.000123952
4.74747e-05
0.000124098
0.000124081
0.000123939
0.000124104
0.000124018
0.000123962
0.000123941
0.000123933
0.000124091
0.00012396
0.000123867
0.000123982
0.00012387
0.000124103
0.000123878
0.000123932
0.000123968
0.000124054
1.98729e-05
2.73093e-05
3.42969e-05
9.63923e-06
0.000123918
3.30569e-05
2.60158e-05
0.000124101
1.90736e-05
1.703e-05
3.81882e-05
7.57453e-06
3.99407e-05
5.60284e-06
4.08357e-05
3.68781e-06
4.28199e-05
1.87556e-06
3.64024e-05
2.31941e-05
2.94439e-05
1.49925e-05
0.000123794
0.000124111
0.000123985
0.00012399
0.00012092
0.000124038
0.000124106
0.000124077
0.000123886
0.000124112
0.00012411
0.000124093
0.00012409
0.000123856
0.000123934
0.000124093
0.000124099
0.000123937
0.000123813
0.000123866
0.00012344
0.000123891
0.000124123
0.000124097
0.000123946
0.000124119
0.000123791
0.000123964
0.00012375
0.000122892
0.000124091
0.000124102
0.000124122
0.000123802
0.000123978
0.000123749
0.000123956
0.000123947
2.60507e-05
2.18767e-05
3.30368e-05
1.16191e-05
0.000124127
0.000123797
1.98192e-05
2.8258e-05
3.56042e-05
9.58779e-06
0.000123939
0.000124045
0.000123895
0.000123906
0.000123937
0.000124058
0.000123851
0.000124087
0.000124023
0.000123132
0.00012391
0.000123877
5.93574e-05
0.000123256
0.000124116
0.000123926
0.000123826
0.000124105
0.000124108
0.000123911
0.000123708
0.000123938
0.000124009
0.000123789
0.000124063
0.000122948
0.000123877
0.000123886
0.000124066
0.000100889
0.000123916
0.000123518
0.000123859
0.000124117
0.000123758
1.08959e-05
2.11132e-05
3.53692e-05
2.82066e-05
1.36633e-05
5.48781e-08
4.20815e-05
2.68972e-06
4.01612e-05
4.76128e-06
3.94197e-05
6.81404e-06
3.86266e-05
8.85684e-06
3.72921e-05
1.36744e-05
3.17281e-05
3.05907e-05
2.39405e-05
2.52616e-05
1.77653e-05
1.29385e-05
1.57085e-05
0.00012411
0.000102437
0.000123917
0.000123853
0.000124114
0.000124006
0.00012412
0.000123838
0.000123972
0.000124083
0.000124078
0.000124089
0.000123842
0.000123942
0.000123833
0.000124046
0.000123881
0.000124115
0.000123978
0.000123811
0.000123814
0.000123953
0.000123945
0.000124121
0.000124112
0.00012412
0.000124082
0.000124123
0.000123755
0.000123939
0.000124116
0.000123884
0.000124013
0.000123942
0.000123974
0.000123822
0.000124082
0.00012408
0.000123394
0.000121406
0.000123124
0.000123668
0.00012394
0.000123769
0.000123951
0.000124121
0.000124081
0.000123944
0.000123556
0.000123537
0.000124116
0.000124084
0.00012396
0.000124051
0.000123593
5.83306e-05
4.01164e-05
0.000124056
0.000124073
0.000123435
0.000122779
0.000123924
0.00012366
0.000123407
0.000123937
0.000123831
0.000124102
0.000123968
0.000123996
0.000119028
5.44766e-05
0.000123965
8.12427e-05
1.8619e-06
-3.80815e-07
0.000123935
0.000123905
0.000124083
0.000124122
0.00012411
0.000124115
0.000124113
0.00012392
-2.30732e-06
0.000122863
0.000123958
0.000124063
0.000122033
0.000124114
0.000124114
0.000122323
0.000124034
0.000124085
0.000121725
0.000124116
7.63651e-05
0.000124113
0.000123714
0.000124077
0.000122407
0.000123645
0.000123697
0.000123968
0.000124119
0.00012407
0.000124114
0.000124125
0.000123943
0.000116205
)
;

boundaryField
{
    back
    {
        type            empty;
    }
    ingreso
    {
        type            zeroGradient;
    }
    salida
    {
        type            fixedValue;
        value           uniform 0;
    }
    front
    {
        type            empty;
    }
    defaultFaces
    {
        type            zeroGradient;
    }
}


// ************************************************************************* //
