/*--------------------------------*- C++ -*----------------------------------*\
  =========                 |
  \\      /  F ield         | OpenFOAM: The Open Source CFD Toolbox
   \\    /   O peration     | Website:  https://openfoam.org
    \\  /    A nd           | Version:  7
     \\/     M anipulation  |
\*---------------------------------------------------------------------------*/
FoamFile
{
    version     2.0;
    format      ascii;
    class       volVectorField;
    location    "58";
    object      U;
}
// * * * * * * * * * * * * * * * * * * * * * * * * * * * * * * * * * * * * * //

dimensions      [0 1 -1 0 0 0 0];

internalField   nonuniform List<vector> 
591
(
(0.000824454 -3.01782e-05 1.21842e-18)
(0.000811037 -2.67587e-05 -6.63836e-19)
(0.000856393 -1.96684e-05 5.69137e-20)
(0.000853752 -5.43874e-06 -1.49181e-19)
(0.000836756 7.67613e-06 2.25506e-19)
(0.000800823 -4.06913e-05 -1.39676e-19)
(0.000553571 -0.000318731 8.06589e-19)
(0.000802018 3.40179e-06 2.06535e-18)
(0.00573537 0.00249612 9.87876e-19)
(0.000794659 -1.48467e-05 2.45403e-18)
(5.10107e-05 0.00017221 1.21863e-18)
(0.000923447 0.00137148 9.41213e-21)
(0.000797752 6.14894e-06 1.32053e-18)
(0.00160218 0.00238327 -7.87909e-19)
(0.000802967 3.89541e-06 -4.38634e-19)
(7.75308e-05 -0.00021699 2.47923e-22)
(0.000135051 0.000677017 7.05202e-19)
(0.000819169 5.61462e-05 -4.8981e-19)
(0.00193738 0.000388722 4.73417e-19)
(0.00135597 0.00025732 -2.47201e-19)
(0.000833284 -2.13848e-06 3.72093e-19)
(0.00340012 0.00655905 -8.15068e-20)
(2.91928e-05 7.18303e-05 2.71032e-19)
(0.000833878 -9.96605e-06 -4.50558e-19)
(1.29945e-05 -1.7682e-05 3.59053e-19)
(0.000766911 3.05196e-05 0)
(9.23994e-05 0.000476448 1.6001e-19)
(0.000535481 1.60777e-05 -1.78904e-19)
(0.000751471 4.91391e-05 1.14993e-18)
(0.000814176 3.95092e-05 5.9258e-19)
(6.0097e-05 -3.0104e-06 -3.97275e-24)
(3.61216e-05 -4.84752e-05 3.523e-19)
(3.91534e-05 -3.32101e-06 -4.64387e-20)
(4.78424e-05 -1.15668e-05 0)
(5.69714e-05 -1.3385e-05 1.13186e-18)
(0.00117365 0.000129684 1.79964e-19)
(3.35254e-05 -5.82126e-06 4.47301e-20)
(0.00082703 8.63921e-06 3.0968e-23)
(2.88492e-05 4.54863e-05 2.66119e-19)
(2.38604e-05 -0.000113701 -8.54971e-19)
(0.000621719 -0.000203398 9.60266e-19)
(2.71804e-05 -7.40254e-06 4.54982e-20)
(0.000797543 -1.66242e-06 -1.57972e-18)
(0.000828765 3.70872e-05 -6.89459e-19)
(1.88201e-05 -8.77058e-06 0)
(5.71084e-05 7.97016e-06 8.5216e-20)
(0.00134252 0.00450578 8.93187e-19)
(7.85533e-05 1.78962e-05 8.63912e-20)
(0.000798915 1.78492e-05 0)
(0.000377753 -0.000193024 6.77931e-19)
(0.000378486 0.000275714 5.12068e-21)
(0.000391064 5.52377e-05 -1.00413e-18)
(0.00634831 0.010942 -7.68585e-19)
(0.00622516 0.0107973 1.52813e-20)
(0.00561464 0.0103806 1.45604e-18)
(0.000810548 2.22726e-05 0)
(6.89797e-05 3.28276e-05 0)
(0.000317978 2.01122e-05 1.23103e-23)
(6.53096e-05 1.18217e-05 -3.46575e-19)
(0.000816966 -8.13201e-06 0)
(0.000628904 2.85074e-05 3.17679e-19)
(0.000829057 3.35176e-06 2.21055e-18)
(0.000793787 2.31489e-05 -5.44105e-19)
(0.000798486 1.67415e-05 -3.15862e-19)
(0.00171458 0.000474099 5.42385e-19)
(0.000794183 8.69589e-06 -1.15556e-18)
(0.000824502 1.22883e-05 -5.24291e-19)
(8.41746e-05 -8.38352e-07 -1.7347e-19)
(0.000688083 0.00226653 0)
(0.000831182 3.21085e-05 0)
(0.000772688 1.53265e-05 -1.39072e-18)
(3.95968e-05 1.70081e-05 0)
(0.000286718 0.000272659 3.26942e-19)
(4.30411e-05 -1.80358e-05 0)
(4.40053e-05 -6.12569e-06 1.59526e-19)
(1.9677e-05 -4.78176e-05 -3.3679e-20)
(0.000784867 7.42295e-05 2.47069e-19)
(4.60676e-05 1.15766e-05 0)
(0.000795969 5.69544e-05 4.47488e-19)
(0.000766539 0.000294394 2.10796e-19)
(0.000965107 6.09964e-05 -3.98075e-20)
(4.45555e-05 2.43494e-05 -4.52014e-20)
(6.26606e-06 -2.75009e-05 0)
(0.000429802 0.000218833 1.70238e-19)
(2.8327e-06 2.52349e-05 0)
(0.000782606 3.40698e-05 -6.0801e-19)
(0.000594497 -0.000120716 0)
(6.75555e-05 -5.43233e-07 -1.74538e-19)
(4.08478e-06 -3.75726e-05 0)
(0.000823454 0.000243849 -3.41381e-19)
(4.30461e-06 -1.65535e-05 0)
(0.000420309 0.000324112 -1.28873e-23)
(0.000524394 0.000113421 0)
(0.000801805 4.70284e-05 -3.67204e-24)
(2.88256e-06 1.62711e-05 -4.21855e-20)
(0.000448418 -7.62891e-06 1.76416e-18)
(0.00102398 7.24261e-05 4.16178e-20)
(0.000857329 4.358e-05 6.41101e-22)
(0.000734669 0.000657307 2.69582e-19)
(6.46643e-06 5.25528e-05 0)
(2.76801e-06 -6.02394e-05 -3.12345e-19)
(-1.20764e-05 -0.000111196 -1.10026e-18)
(3.62286e-06 8.30816e-05 -5.96433e-19)
(0.000638597 -1.70388e-05 0)
(7.60287e-06 0.000108428 0)
(0.000804277 2.02868e-05 2.1969e-18)
(0.000781622 2.12662e-05 1.52981e-18)
(0.000417431 -6.82422e-05 0)
(4.45194e-05 0.000222038 -8.95646e-19)
(-7.69262e-07 0.000176846 4.96678e-19)
(6.52542e-05 0.000421547 6.25219e-19)
(0.000302886 8.91552e-05 -9.37395e-19)
(0.000803365 1.92608e-05 1.37387e-19)
(0.000262603 -3.1956e-05 5.31402e-19)
(4.05732e-06 3.55891e-05 0)
(2.43076e-05 0.000293773 -1.0941e-18)
(0.000318092 0.000325731 -1.61751e-19)
(3.26648e-06 -4.84129e-05 1.46565e-19)
(0.000669429 0.000812683 0)
(0.000365714 0.000389844 5.74583e-20)
(0.00081211 1.01882e-05 1.07056e-18)
(0.00079837 9.1229e-07 -2.69344e-18)
(6.92065e-06 -6.5807e-05 0)
(0.000685665 -2.93627e-05 -1.12358e-19)
(0.000319981 -9.9386e-05 1.24366e-18)
(0.00265022 0.000800429 -3.36095e-19)
(4.33311e-06 0.000139064 -6.13259e-19)
(2.41174e-06 0.000169505 1.61955e-18)
(0.000734904 2.08922e-05 -3.89986e-20)
(6.61667e-05 -1.22629e-05 -7.50422e-19)
(0.0008027 2.50774e-05 -3.8846e-19)
(0.000783002 2.60926e-05 -4.10475e-20)
(4.06749e-05 0.00034016 -5.96924e-19)
(0.000480637 7.13949e-05 -4.94091e-19)
(5.09811e-05 -2.96863e-06 1.56207e-19)
(0.000828425 2.298e-05 -1.09119e-18)
(0.00157626 0.000236336 -1.1369e-18)
(3.69197e-06 6.66131e-05 4.96503e-19)
(0.000807621 2.23462e-05 -4.95516e-19)
(0.000903589 0.000540595 -7.85352e-20)
(0.000141313 0.000799365 0)
(0.000574995 6.55603e-05 0)
(0.000274356 5.73597e-05 -1.61021e-18)
(6.45801e-05 6.03182e-05 -1.37455e-18)
(3.1933e-05 2.14913e-05 0)
(0.00424718 0.00740013 -1.01984e-20)
(0.00422554 0.00737175 3.16498e-20)
(0.00442772 0.00757451 -4.96865e-21)
(0.0042067 0.00773588 0)
(0.00419907 0.00760155 5.77261e-19)
(0.00424437 0.00740123 -9.19993e-20)
(0.00421032 0.00804383 4.84464e-19)
(0.00428948 0.00742181 0)
(0.0042085 0.00853731 6.16786e-19)
(0.00432596 0.00745024 2.23925e-19)
(0.000818698 1.78943e-06 -1.37331e-18)
(0.000763773 5.14651e-05 0)
(0.000215023 5.72935e-05 1.27731e-19)
(5.19482e-05 1.68573e-05 8.72138e-20)
(7.93467e-05 4.66498e-05 6.80244e-19)
(0.000107464 4.3457e-05 -3.41781e-19)
(0.000102338 7.48275e-06 0)
(5.00096e-05 5.52588e-06 8.18644e-20)
(0.000205526 0.000136289 0)
(0.000166938 4.63044e-05 -5.2444e-20)
(0.000341311 0.000225006 -5.09408e-21)
(5.70837e-05 4.44497e-05 -4.378e-19)
(9.23182e-05 2.92875e-05 -8.52756e-20)
(9.16019e-05 6.38719e-05 1.31237e-21)
(0.000253147 0.00036833 -6.66369e-19)
(0.000106729 0.00101122 0)
(4.30136e-05 5.40969e-05 3.43175e-19)
(0.000203891 0.00175592 0)
(0.000207228 0.000255654 7.04873e-19)
(3.98665e-05 -4.15151e-06 1.11533e-19)
(0.000478826 0.000165765 -1.72355e-19)
(0.000755635 2.53882e-05 -1.92478e-18)
(4.44939e-05 -1.0264e-06 4.3436e-24)
(0.000150387 2.76985e-05 2.24662e-19)
(0.000242914 9.63829e-05 -8.99617e-20)
(0.000880739 0.000708392 3.35042e-19)
(0.000718 0.00163229 -9.23876e-21)
(0.000387936 0.00142711 -9.39348e-21)
(0.00102181 0.000550816 0)
(0.000105315 -1.4048e-05 1.11909e-18)
(0.000118082 1.85353e-05 -4.43297e-20)
(0.000447373 -0.000286443 -1.13619e-18)
(0.000809577 3.55639e-05 0)
(0.000182962 7.70675e-06 3.63415e-19)
(0.000300733 0.00131944 0)
(0.00106844 0.000769856 -7.30423e-20)
(0.000825343 3.52879e-05 -1.86486e-19)
(8.03829e-05 -2.03919e-05 -3.00085e-19)
(0.000822258 0.000320305 -2.08117e-20)
(6.06485e-05 -2.15376e-05 -5.99709e-19)
(0.000226068 0.000178079 8.64141e-20)
(0.000228675 0.000310418 -3.45115e-19)
(0.000880744 0.000245443 0)
(0.000810331 4.90543e-05 0)
(0.000261853 0.000140735 1.76902e-19)
(0.000234311 6.7227e-06 2.01522e-24)
(0.000184389 0.000208259 0)
(0.000289658 0.000654606 -5.55862e-21)
(0.000342936 2.0075e-06 0)
(0.000364037 0.000601026 0)
(0.000110135 8.47213e-05 -1.34714e-21)
(0.000809811 2.36845e-05 -9.39952e-19)
(0.000809172 1.84332e-05 7.95215e-19)
(0.000130068 6.02962e-05 -1.49905e-19)
(0.000952916 0.000152024 8.50898e-20)
(0.000833768 4.4576e-05 3.33023e-19)
(0.000813234 2.41115e-05 -2.92617e-19)
(0.00101229 0.000410498 0)
(0.000435072 0.000122407 6.24641e-19)
(0.000893635 0.000318961 2.09208e-20)
(0.000571056 0.000158565 0)
(0.000271537 0.000446698 4.09759e-19)
(0.000260896 0.000219641 -8.44433e-20)
(0.00109374 0.000376266 -7.82351e-19)
(0.000617035 0.000106975 -1.79354e-19)
(0.00080412 7.33635e-05 -7.45243e-21)
(0.000836694 2.96976e-05 9.39551e-20)
(8.49221e-05 -8.81169e-05 -1.98203e-18)
(0.000735061 0.000382303 2.19303e-19)
(0.000661644 6.2119e-05 2.30694e-20)
(0.000702461 0.000278832 1.59428e-23)
(0.000725393 0.000458301 -4.09771e-19)
(0.000842197 3.38918e-05 9.06682e-20)
(7.30336e-05 8.22003e-05 0)
(0.000652066 0.000417887 -4.65978e-20)
(0.000184108 9.888e-05 0)
(0.000373689 0.000502058 -2.64912e-19)
(0.00030944 0.000170789 0)
(0.000670678 0.000203408 3.55348e-19)
(0.000644872 0.000260988 -4.37396e-20)
(8.19866e-05 0.00010572 6.19361e-19)
(0.000874313 9.15107e-05 -1.61895e-18)
(5.93795e-05 2.32273e-05 2.57278e-19)
(0.000880959 6.35526e-05 -1.68375e-18)
(0.000835657 8.61148e-05 1.6311e-19)
(0.000807053 3.02686e-05 1.89642e-18)
(0.000810087 3.08349e-05 -1.30978e-19)
(0.000730916 7.33553e-05 0)
(0.000806196 2.83646e-05 8.95941e-19)
(0.000952018 0.000229247 -4.27251e-19)
(0.000766111 8.98622e-05 -4.83851e-19)
(0.000775632 0.000229119 -8.81528e-20)
(0.000220096 -0.000151707 -2.08016e-18)
(0.000739377 8.19778e-05 8.87708e-19)
(0.000638861 0.000596835 0)
(0.000100629 -0.000112751 0)
(0.00121246 0.000470889 4.97307e-19)
(0.000659827 -6.40539e-05 -3.24051e-18)
(0.00133538 0.000424467 5.76321e-19)
(0.00123362 0.000718782 -6.38536e-20)
(0.000806625 3.15663e-05 -2.10803e-19)
(0.000830658 6.78678e-05 -1.42457e-18)
(0.000813999 2.25732e-05 1.57182e-18)
(0.000815558 2.95377e-05 9.67349e-20)
(0.000667372 0.000350544 -4.40543e-20)
(0.000102661 0.000126683 5.08842e-24)
(0.000743081 -4.56231e-05 2.65183e-19)
(0.000223131 -0.000249603 -7.33158e-19)
(0.000617047 0.000187801 0)
(0.00070126 3.99696e-05 9.90753e-20)
(0.000682825 1.03233e-05 -3.80945e-19)
(0.000386061 0.000173407 3.93485e-20)
(0.000801717 0.000503009 -1.65525e-19)
(0.000150262 7.87817e-05 2.89437e-25)
(0.000808557 0.00040806 0)
(0.000974391 0.000320176 4.15912e-20)
(0.000748573 -8.08189e-05 -6.16518e-19)
(0.000345273 0.000108957 4.97952e-19)
(0.000902152 0.000423467 0)
(5.07415e-05 3.25938e-05 1.33755e-19)
(0.000478961 0.000269683 2.14016e-19)
(0.000489271 -0.000138247 -7.09698e-19)
(0.000146093 -0.000153252 -1.05855e-18)
(0.000821249 2.8267e-05 -4.87055e-19)
(0.000783528 -9.76372e-05 -1.94304e-19)
(0.000552579 0.00072742 -1.17472e-18)
(0.000841855 4.59554e-05 -6.74051e-20)
(0.000659406 -2.64413e-05 1.26401e-18)
(0.000693858 9.93679e-05 2.2786e-20)
(0.000525892 0.000212129 -1.65735e-19)
(3.3998e-05 -2.27239e-05 -8.76125e-20)
(0.000174438 -3.85521e-05 2.40689e-18)
(2.0976e-05 8.11361e-07 -1.94895e-19)
(0.000818879 0.000108222 3.63824e-19)
(0.000654566 0.000137281 0)
(0.000191346 -7.67682e-05 -1.04844e-18)
(0.000124287 -1.43125e-05 3.13012e-19)
(0.000114608 -3.44234e-05 9.12652e-24)
(0.000792612 0.000108241 -3.19369e-19)
(0.000155344 -9.42512e-06 0)
(0.000580111 0.000242884 0)
(0.00011118 0.000332608 -3.62958e-19)
(0.000854715 9.99649e-05 2.09599e-18)
(1.71048e-05 1.28383e-06 0)
(0.000872812 5.1714e-05 0)
(4.64629e-05 -2.62814e-05 0)
(0.000814853 4.23126e-05 -4.45974e-21)
(0.000792844 -5.11577e-05 0)
(0.00425994 0.00740629 8.07087e-20)
(0.0043615 0.00748593 1.43305e-19)
(0.000843662 -1.81622e-06 0)
(0.000779056 -5.2073e-05 8.10827e-19)
(0.00015308 0.000128007 1.49254e-19)
(0.000848273 7.07007e-05 8.07891e-19)
(0.00013112 0.000104669 2.34469e-20)
(0.000773454 -3.14616e-05 6.25143e-19)
(3.63819e-05 1.03566e-05 0)
(3.06724e-05 -1.45064e-05 -4.48628e-20)
(0.000889883 4.99299e-05 -4.8674e-19)
(3.6621e-05 -3.33225e-05 -6.70024e-19)
(0.000750618 0.000119833 -4.23384e-20)
(0.000168103 0.000165729 -1.88156e-19)
(0.000813404 2.42658e-05 0)
(0.00468263 0.00815376 9.01731e-22)
(0.000174186 0.000786048 3.33636e-19)
(0.000123121 -5.50131e-05 -9.14823e-19)
(6.48919e-05 -3.51829e-05 -1.16913e-18)
(0.000671498 1.50438e-05 1.89921e-20)
(0.000578555 0.000410354 0)
(0.000414444 0.000440775 -2.56406e-19)
(9.13498e-05 -5.79782e-05 1.18404e-18)
(0.000629092 1.04473e-06 7.70514e-20)
(4.38966e-05 2.16635e-06 4.07226e-19)
(0.000686966 -5.60047e-05 1.17206e-18)
(0.000809076 3.15012e-05 -5.96184e-19)
(7.17107e-05 -5.54045e-05 1.70977e-18)
(0.000842077 -1.62405e-05 -5.33849e-24)
(0.000647968 7.38582e-06 -3.76638e-20)
(0.000862726 6.6717e-05 0)
(0.000832956 3.52476e-05 0)
(0.00591681 0.00723724 2.59553e-19)
(2.19513e-05 -1.64919e-06 -1.19613e-19)
(0.000139373 -9.49152e-05 7.73193e-19)
(0.000718382 0.000120287 -6.96682e-19)
(2.52845e-05 -2.39059e-07 2.01558e-19)
(0.00060627 -3.2751e-05 -7.24074e-19)
(0.000736715 3.65301e-05 1.55861e-18)
(0.000698836 0.000158921 -3.55554e-19)
(0.000807481 -1.32632e-05 3.60355e-19)
(8.18262e-05 -3.25433e-05 1.1164e-18)
(0.000798044 7.82745e-06 -3.22811e-19)
(0.00086237 4.3822e-05 0)
(0.000536511 0.000303312 4.21147e-20)
(0.000850474 4.96849e-05 -9.45744e-19)
(2.23674e-05 1.89697e-06 9.1144e-19)
(0.00084733 4.67281e-05 9.65824e-19)
(0.000852286 4.84024e-07 -9.60293e-19)
(0.000738538 -7.20905e-07 -5.69388e-19)
(0.000508961 -6.56661e-05 -5.25832e-19)
(0.00432877 0.00745242 2.46961e-19)
(0.00422357 0.00752959 -2.54498e-19)
(0.00422152 0.00758793 2.66684e-19)
(0.00425585 0.00741055 1.97981e-19)
(0.000845549 -2.04641e-05 1.43934e-19)
(0.00447481 0.00751118 0)
(0.00440275 0.00751643 -3.8675e-19)
(3.39737e-05 -1.57474e-07 -9.98343e-19)
(0.00417057 0.00746927 -6.3366e-20)
(0.00414592 0.00743226 -2.21523e-19)
(0.00603004 0.010607 0)
(0.0065404 0.0111876 3.71369e-20)
(0.00601001 0.0105768 0)
(0.00655609 0.0112111 1.30896e-19)
(0.00599741 0.0106009 2.69715e-19)
(0.0065927 0.0112278 1.24623e-20)
(0.00593603 0.0106137 -7.76819e-19)
(0.00662291 0.0111467 8.15327e-21)
(0.00390345 0.00920183 -1.90913e-19)
(0.00418695 0.00748848 3.89751e-21)
(0.00423819 0.00755304 7.93563e-20)
(0.00415034 0.00743448 4.12056e-20)
(0.000868667 0.000188596 4.46897e-20)
(1.22381e-05 1.75359e-06 0)
(0.000688452 -0.000131699 0)
(0.000675793 4.58207e-05 0)
(0.00244344 0.00110993 4.25201e-21)
(0.000750691 -3.12854e-05 1.72648e-19)
(4.23775e-05 6.36429e-06 4.54206e-20)
(1.29906e-05 -2.95327e-05 1.65382e-18)
(0.00084562 1.76683e-05 0)
(2.92379e-05 1.3518e-05 -1.91791e-19)
(0.00014129 0.000226076 0)
(2.16444e-05 -1.12939e-06 0)
(1.77651e-05 -1.5691e-06 0)
(0.000814726 0.000133642 1.13678e-20)
(0.000809109 -1.45931e-05 1.79279e-19)
(3.52305e-05 0.000283809 -1.98411e-23)
(0.000158814 0.000275093 -1.84249e-18)
(0.000598311 0.000331733 -8.57267e-20)
(0.000895059 0.000114178 5.99527e-19)
(0.000680892 -0.000263098 6.73287e-19)
(0.000361171 0.00110858 0)
(0.000464144 0.000573473 2.71602e-18)
(9.18312e-05 0.000149053 -1.80356e-18)
(2.6501e-05 2.15993e-07 0)
(0.000819034 -5.15615e-05 3.6327e-20)
(1.76459e-05 3.84068e-05 1.64504e-18)
(0.000900299 2.97159e-05 2.71323e-19)
(5.47643e-07 -4.04512e-05 3.79936e-18)
(0.000929871 3.93186e-05 -2.69151e-19)
(0.00136802 0.000151945 7.47599e-19)
(3.82708e-05 -1.12915e-05 8.25994e-20)
(3.94423e-05 4.76231e-06 -8.59322e-19)
(5.02939e-05 0.0001465 0)
(0.000903034 7.68598e-05 5.98482e-19)
(0.000491159 0.000368653 2.37216e-19)
(0.000695536 1.79709e-05 -3.89234e-20)
(0.000771324 -7.56539e-06 2.57055e-19)
(0.000734531 -0.000198543 0)
(0.00632145 0.010897 -1.68065e-19)
(0.00637917 0.0109745 4.05848e-19)
(0.00616074 0.010732 -6.18467e-19)
(0.00650135 0.0111328 -8.09971e-20)
(3.62114e-05 0.000121557 8.00799e-19)
(0.000911537 5.89e-05 1.48302e-22)
(0.00641167 0.0110069 -3.8648e-19)
(0.00628249 0.0108468 5.48476e-19)
(0.00608087 0.0106738 -4.16877e-19)
(0.00652187 0.0111652 -6.8153e-20)
(8.1952e-05 0.000518331 -2.01885e-20)
(0.000105886 -0.000203718 -7.92709e-19)
(0.000697457 -1.94929e-05 -7.60411e-19)
(0.00071985 0.000220905 0)
(0.000799098 1.0349e-06 0)
(0.000184714 0.000392429 3.36399e-19)
(0.000595646 0.000522849 -5.419e-19)
(1.25775e-05 -2.06745e-06 1.7846e-19)
(0.000203416 0.00046617 -7.38615e-19)
(0.00100204 0.000968828 -1.12735e-19)
(0.00073734 0.000166985 0)
(0.000783553 0.000180492 1.31068e-19)
(0.00635505 0.0058752 1.13154e-18)
(0.000740087 0.00112734 8.26802e-20)
(4.06251e-05 4.01311e-05 -7.44952e-20)
(0.000813506 2.13375e-05 0)
(0.000875719 2.62485e-05 -3.57046e-20)
(3.76204e-05 4.05042e-06 -1.96762e-19)
(3.24538e-05 5.49289e-06 1.93053e-19)
(0.000830386 2.22829e-05 5.37281e-19)
(0.000966715 0.000106498 6.58747e-19)
(0.000595236 3.66205e-05 0)
(0.000221003 -0.00030973 -3.98126e-19)
(0.000910129 0.000150395 3.89752e-19)
(2.00534e-05 -6.86904e-05 2.03191e-19)
(0.0014418 0.000433197 -2.5805e-18)
(0.000626063 -4.68941e-06 0)
(0.000786349 0.000144832 3.75611e-19)
(9.32526e-05 0.000400053 0)
(0.00118585 0.00816555 4.62219e-19)
(0.00048288 0.000501917 -1.22494e-18)
(0.000543524 0.000996709 -1.83809e-19)
(0.000875704 2.03763e-05 -1.4609e-19)
(1.4769e-05 2.71692e-05 0)
(0.000935046 7.64103e-05 6.11949e-19)
(0.00410666 0.00739529 8.14355e-20)
(0.00417151 0.00747384 4.73079e-20)
(0.00449832 0.00751381 4.54095e-19)
(0.00444399 0.00754053 -3.28859e-19)
(0.00647527 0.0111098 8.10749e-20)
(0.0039152 0.0071463 -9.58742e-22)
(0.0055065 0.00779463 -5.64813e-19)
(0.00409827 0.0073719 5.21808e-21)
(0.00518684 0.00785474 5.11724e-19)
(0.00408011 0.0073403 -4.87136e-20)
(0.00495191 0.00771429 0)
(0.0040855 0.00736452 -8.56531e-20)
(0.00474062 0.00758582 4.92561e-19)
(0.00409863 0.00737602 8.75199e-20)
(0.00457332 0.00752553 0)
(0.00428352 0.00742036 1.39769e-19)
(0.00423969 0.00759945 5.80084e-19)
(0.00446635 0.00752582 -5.54636e-19)
(0.00438706 0.00750408 3.71415e-19)
(0.00422823 0.00752541 2.89051e-19)
(0.00643076 0.0110434 -4.97477e-21)
(0.004118 0.00740138 3.11634e-20)
(0.00645878 0.0110732 0)
(2.62425e-05 6.8418e-06 -1.89928e-19)
(0.00199825 0.00654281 2.28406e-19)
(0.000841727 -3.66804e-05 1.09661e-19)
(0.000857798 1.28301e-05 0)
(2.22185e-06 2.03253e-06 -3.99255e-19)
(1.55347e-05 -0.00016024 6.91956e-19)
(2.47518e-05 5.95809e-05 2.08971e-18)
(0.000821061 0.000178988 -9.01093e-20)
(0.000797944 1.05027e-05 7.0668e-19)
(2.28705e-06 -2.08828e-06 3.10103e-19)
(2.18323e-05 -3.73875e-05 -1.84637e-18)
(0.000759497 2.79283e-05 1.63218e-19)
(0.000862942 0.000125392 -3.08057e-20)
(0.000799176 -9.77701e-06 1.48198e-19)
(0.000404949 0.000676583 0)
(6.86262e-05 -0.00015106 1.15148e-18)
(0.000856884 1.2082e-05 1.52566e-19)
(2.11698e-05 2.55332e-05 0)
(0.00011136 0.000564368 -6.31409e-19)
(0.000604884 0.000599253 1.31834e-18)
(0.000328272 0.000743298 0)
(0.000799298 -1.78292e-05 0)
(0.000798692 4.23123e-06 1.1734e-18)
(1.94146e-05 5.1465e-05 -3.51617e-18)
(1.83323e-05 8.31752e-06 3.73756e-19)
(0.000115624 0.000149404 0)
(5.11789e-05 -4.23893e-05 0)
(6.42005e-05 0.000115971 2.01069e-19)
(0.000928868 0.000183013 3.50566e-19)
(0.000799599 1.60397e-05 -1.39248e-18)
(2.41445e-05 3.53417e-05 0)
(0.000492548 1.80826e-05 -6.03652e-20)
(0.000800979 4.03304e-05 -1.56404e-19)
(0.000835012 3.00751e-05 1.0604e-18)
(0.000258244 0.000543534 6.32426e-19)
(0.000864972 0.000154972 0)
(2.26938e-05 -2.63485e-05 5.38875e-19)
(3.28071e-06 -8.3129e-06 -3.20084e-19)
(0.00100638 2.87806e-05 0)
(0.0010324 0.00225517 0)
(0.000965979 -1.25866e-05 0)
(0.00099623 0.000204156 4.27345e-19)
(0.000815006 -2.97535e-05 -2.83688e-19)
(0.000921065 0.000111683 -6.85039e-19)
(0.000799031 3.32618e-06 0)
(4.29215e-05 7.21612e-05 -1.71626e-19)
(0.000173872 0.00032907 1.08148e-18)
(0.000796905 2.09536e-05 -9.21929e-24)
(0.00108106 0.000206236 -6.69251e-19)
(0.00109016 0.000122501 0)
(2.96529e-06 8.07016e-06 2.5112e-19)
(2.10516e-05 -1.72214e-05 -1.94384e-19)
(0.000597961 3.59035e-05 6.95284e-21)
(2.16219e-05 -9.08353e-05 0)
(0.00104973 0.000251692 9.50336e-19)
(0.00502886 0.0097498 -2.8309e-19)
(0.00312058 0.00962121 1.27248e-18)
(5.63182e-05 -0.000112067 -1.91378e-19)
(6.53322e-05 -7.8044e-05 1.86024e-18)
(0.00119272 0.000238163 1.67268e-19)
(0.00133063 0.00108039 2.34161e-19)
(0.000814343 2.58439e-07 -7.31873e-19)
(0.000204207 0.000952411 -2.38546e-19)
(0.000806401 0.000918959 -2.18652e-19)
(0.000799358 -3.76767e-06 0)
(8.82578e-05 0.000639516 0)
(9.63849e-05 0.000284835 -4.2157e-23)
(0.000723069 -3.7119e-05 -1.68419e-23)
(0.00081902 5.74536e-05 1.50715e-19)
(0.00262899 0.00206583 -1.23179e-18)
(0.0017587 0.00924199 -1.17191e-19)
(0.000832716 4.28111e-05 4.92362e-19)
(0.00632877 0.00404232 -1.75938e-19)
(0.0067209 0.0115577 -1.36521e-20)
(0.00473445 0.00784417 4.93225e-21)
(0.000800561 1.50958e-05 -2.18769e-18)
(0.000832154 1.60976e-05 2.48096e-24)
(1.10694e-05 -9.04009e-06 -3.48147e-19)
(4.71841e-05 9.35021e-05 -3.49403e-19)
(7.04094e-05 0.00027563 8.75646e-19)
(1.25367e-05 1.76911e-05 4.90587e-19)
(8.97895e-05 0.000234618 3.69889e-19)
(0.000822302 2.89792e-05 0)
(0.00534797 0.00949223 1.95038e-20)
(0.00153325 0.00062557 -2.61066e-20)
(0.000820098 3.0635e-05 3.5967e-19)
(4.45956e-05 -8.73688e-05 0)
(0.00184753 0.000738445 5.46246e-19)
(1.09083e-05 8.73998e-06 -2.70254e-19)
(3.5825e-05 3.04779e-05 9.7218e-20)
(0.0013199 0.00138993 6.36724e-19)
(0.000736516 4.48061e-05 1.83178e-19)
(7.22232e-06 -2.22054e-06 -1.70268e-19)
(0.00206548 0.00155166 -1.05638e-18)
(0.000126658 0.000182873 -8.19021e-19)
(0.00392127 0.00848785 -1.09131e-18)
(7.15085e-06 2.01329e-06 8.81751e-20)
(0.000156497 -0.000170025 -1.25434e-18)
(5.55147e-05 -5.9148e-05 4.05802e-20)
(0.00153094 0.000972572 0)
(0.00103479 0.000139674 -4.11628e-22)
(0.000454467 0.000850912 -4.023e-20)
(0.000802219 2.58599e-05 -2.33807e-19)
(8.71719e-05 0.000189124 7.36315e-19)
(3.89176e-05 -6.58023e-05 4.04174e-19)
(1.97367e-05 1.66101e-05 -9.47452e-20)
(3.3751e-05 9.69462e-05 -3.20404e-19)
(0.000201578 -0.000297816 -5.44885e-19)
(0.00325215 0.00345344 2.78713e-21)
)
;

boundaryField
{
    back
    {
        type            empty;
    }
    ingreso
    {
        type            fixedValue;
        value           uniform (0.0008 0 0);
    }
    salida
    {
        type            zeroGradient;
    }
    front
    {
        type            empty;
    }
    defaultFaces
    {
        type            noSlip;
    }
}


// ************************************************************************* //
