/*--------------------------------*- C++ -*----------------------------------*\
  =========                 |
  \\      /  F ield         | OpenFOAM: The Open Source CFD Toolbox
   \\    /   O peration     | Website:  https://openfoam.org
    \\  /    A nd           | Version:  8
     \\/     M anipulation  |
\*---------------------------------------------------------------------------*/
FoamFile
{
    version     2.0;
    format      ascii;
    class       volScalarField;
    location    "3.4";
    object      p;
}
// * * * * * * * * * * * * * * * * * * * * * * * * * * * * * * * * * * * * * //

dimensions      [0 2 -2 0 0 0 0];

internalField   nonuniform List<scalar> 
3080
(
4.8138e-05
4.5576e-05
4.80627e-05
4.8146e-05
4.70349e-05
4.79859e-05
4.7985e-05
3.03573e-05
4.80172e-05
4.8198e-05
4.81597e-05
4.82324e-05
4.43227e-05
4.67766e-05
4.81634e-05
4.61322e-05
4.81161e-05
4.80638e-05
4.81532e-05
4.77455e-05
3.39162e-05
4.7691e-05
4.74616e-05
3.06054e-05
4.7132e-05
4.6223e-05
4.7921e-05
4.63484e-05
4.81467e-05
4.65132e-05
4.16443e-05
3.28931e-05
4.59606e-05
3.31012e-05
3.75806e-05
4.82527e-05
4.78326e-05
3.87181e-05
4.80452e-05
4.64383e-05
4.81214e-05
4.80708e-05
4.83161e-05
4.80836e-05
4.62745e-05
4.81616e-05
4.79441e-05
4.81396e-05
4.81005e-05
4.57734e-05
4.80746e-05
3.99518e-05
4.74764e-05
4.80351e-05
4.65241e-05
4.80795e-05
4.80497e-05
4.05145e-06
3.82657e-05
4.80637e-05
4.52351e-06
4.79736e-06
5.91391e-06
4.81297e-05
5.62099e-06
5.95435e-06
4.80266e-05
4.80238e-05
3.27985e-06
7.82086e-06
4.79981e-05
5.11999e-06
3.56747e-05
9.74177e-06
4.80987e-05
3.4702e-05
4.80908e-05
7.02244e-06
4.80443e-05
4.8099e-05
4.58807e-05
4.80293e-05
1.16659e-05
4.14648e-05
4.77222e-05
8.93961e-06
4.78545e-05
1.35922e-05
1.43529e-05
4.78847e-05
1.08623e-05
1.35909e-05
2.08373e-06
1.24716e-05
1.31739e-05
4.80388e-05
1.27858e-05
1.54385e-05
1.62972e-05
4.80419e-05
4.79958e-05
3.81622e-06
4.04969e-06
3.48561e-05
4.77807e-05
4.67765e-05
4.80784e-05
1.47121e-05
1.43168e-05
1.51174e-05
1.72862e-05
1.82428e-05
4.80672e-05
6.83909e-06
7.23874e-06
3.12903e-05
4.77594e-05
2.67818e-06
2.83972e-06
1.61645e-05
1.70631e-05
4.81178e-05
4.7843e-05
8.0641e-06
8.52952e-06
4.81091e-05
4.80963e-05
2.0357e-05
2.14775e-05
4.62814e-05
9.29313e-06
9.82433e-06
4.79836e-05
1.05234e-05
1.11202e-05
4.81576e-05
4.79537e-05
4.8127e-05
2.22033e-05
2.34243e-05
2.17708e-05
2.0651e-05
4.80822e-05
1.17508e-05
1.24133e-05
4.59401e-05
4.8096e-05
1.92416e-05
2.03039e-05
5.12521e-06
5.4325e-06
4.81168e-05
4.80107e-05
4.79264e-05
4.81056e-05
2.40478e-05
2.53725e-05
3.67734e-05
4.66246e-06
4.79627e-05
2.36941e-05
2.60138e-05
2.74414e-05
4.65554e-05
2.85216e-06
2.25737e-05
4.81321e-05
4.79879e-05
6.54963e-06
2.1087e-05
2.22479e-05
4.79228e-05
3.02243e-05
2.56275e-05
3.78036e-05
8.46262e-06
2.94009e-05
2.79087e-05
4.81102e-05
4.38661e-07
4.37314e-07
4.30321e-07
1.59965e-05
2.44942e-05
3.46373e-05
4.79757e-05
2.75625e-05
1.0385e-05
2.29258e-05
2.4192e-05
4.80253e-05
1.72809e-05
4.77371e-05
3.25662e-05
4.80844e-05
1.85131e-05
1.95356e-05
4.80644e-05
2.66355e-05
2.8096e-05
3.34534e-06
3.55074e-06
1.23109e-05
3.13079e-05
1.8565e-05
2.71928e-05
2.86251e-05
2.64181e-05
2.95479e-05
4.80906e-05
1.309e-05
1.3825e-05
4.76647e-05
4.8113e-05
4.61967e-05
4.80179e-05
1.98452e-05
3.00578e-05
2.8521e-05
1.42352e-05
6.33756e-06
6.71116e-06
3.05431e-05
1.49374e-05
1.57706e-05
4.77359e-05
4.74458e-05
4.78576e-05
7.55908e-06
7.99874e-06
3.30384e-05
4.77833e-05
3.18186e-05
2.8329e-05
4.77878e-05
3.2186e-05
3.16079e-05
8.78612e-06
9.29156e-06
4.81429e-05
1.67836e-05
1.7715e-05
4.78617e-05
2.97222e-05
1.09309e-06
1.04548e-06
1.11158e-06
3.02821e-05
4.82045e-05
1.00136e-05
1.05846e-05
4.37886e-05
2.81765e-05
2.25085e-06
2.40465e-06
4.50745e-05
2.7505e-05
1.12438e-05
1.18804e-05
3.22966e-05
4.81331e-05
2.52999e-05
2.66705e-05
2.76692e-05
2.62595e-05
2.83287e-05
2.68761e-05
4.80878e-05
2.63676e-05
2.50051e-05
4.80405e-05
1.98585e-05
2.09537e-05
2.12926e-05
2.77489e-05
4.77783e-05
2.50772e-05
2.37767e-05
4.81402e-05
2.37829e-05
2.25468e-05
3.09269e-05
2.24887e-05
2.13169e-05
3.2802e-05
2.70197e-05
2.56323e-05
2.76402e-05
1.55193e-05
2.05373e-05
1.9463e-05
2.70016e-05
2.17031e-05
2.28978e-05
2.32133e-05
1.92404e-05
1.8231e-05
3.55223e-05
7.18139e-07
7.17726e-07
7.65194e-07
2.63584e-05
2.5076e-05
1.79462e-05
1.70026e-05
1.68016e-05
1.66512e-05
1.57735e-05
2.5726e-05
2.44016e-05
2.31575e-05
4.80463e-05
1.53517e-05
1.45398e-05
3.08911e-05
2.12339e-05
3.31553e-05
2.57172e-05
1.33935e-05
1.26792e-05
2.44358e-05
2.35396e-05
2.48438e-05
4.80969e-05
2.51349e-05
1.80855e-05
1.93021e-05
1.14548e-05
1.08386e-05
2.1852e-05
2.07121e-05
2.44313e-05
2.31654e-05
1.01721e-05
9.62188e-06
1.73732e-05
8.87615e-06
8.39255e-06
1.6093e-05
1.93669e-05
2.25152e-05
1.80139e-05
1.90107e-05
6.91398e-06
6.52728e-06
4.79598e-05
1.41629e-05
2.7057e-05
5.61876e-06
5.29769e-06
3.99057e-05
2.31399e-05
2.19336e-05
2.37985e-05
4.81282e-05
1.22372e-05
4.8074e-05
3.44307e-06
3.66616e-06
4.52097e-05
4.80298e-05
2.05901e-05
1.03122e-05
8.38499e-06
2.89615e-05
6.45295e-06
4.77935e-05
4.50064e-06
2.1197e-05
2.00906e-05
4.80254e-05
2.1876e-05
4.54e-05
3.34534e-05
1.80153e-05
4.78189e-05
3.43339e-05
1.98943e-05
1.88525e-05
4.80262e-05
4.62822e-05
4.80991e-05
4.81591e-05
1.40452e-05
1.32988e-05
1.9949e-05
2.68154e-06
1.48062e-05
1.86036e-05
1.76277e-05
4.80997e-05
2.47707e-05
2.61411e-05
3.28641e-05
1.21009e-05
1.14525e-05
4.80214e-05
1.8656e-05
2.89428e-05
3.30741e-05
4.80062e-05
1.28809e-05
2.83964e-05
4.80826e-05
1.7306e-05
1.63952e-05
4.66419e-05
1.0955e-05
1.6736e-05
1.60096e-05
1.51646e-05
4.78948e-05
3.24797e-05
7.56613e-06
7.14749e-06
4.66704e-05
9.02954e-06
1.54474e-05
1.4708e-05
1.39293e-05
4.80893e-05
4.77805e-05
7.10104e-06
9.09481e-07
9.41155e-07
8.59859e-07
4.80693e-05
2.24708e-06
2.12203e-06
4.81544e-05
1.35208e-05
1.27575e-05
1.20766e-05
4.31409e-06
4.05944e-06
4.8132e-05
4.69697e-05
4.79334e-05
4.77903e-05
4.72749e-05
3.4277e-06
3.22714e-06
4.80335e-05
5.1568e-06
6.23107e-06
6.59749e-06
1.58432e-06
1.69401e-06
1.63083e-06
4.80693e-05
7.45234e-06
7.8849e-06
8.6807e-06
9.17898e-06
9.90988e-06
1.0474e-05
1.11397e-05
1.17693e-05
1.15947e-05
4.80462e-05
1.08208e-05
1.02378e-05
2.00383e-06
2.12362e-06
1.17668e-06
1.174e-06
1.25179e-06
4.21914e-05
1.7901e-05
1.88906e-05
4.57256e-05
4.80108e-05
4.81205e-05
9.53238e-06
9.0157e-06
4.80913e-05
4.5352e-05
4.43e-05
4.81641e-05
2.46719e-05
2.60221e-05
9.67024e-06
4.8025e-05
4.8049e-05
4.80313e-05
2.21573e-06
2.35027e-06
1.53549e-05
1.66408e-05
4.75079e-05
8.23163e-06
7.7808e-06
1.7925e-05
3.36281e-05
1.92072e-05
4.81132e-05
4.43447e-05
4.80857e-05
4.8123e-05
4.812e-05
4.60551e-05
4.80076e-05
4.78985e-05
7.74277e-06
2.10782e-06
4.80863e-05
4.74658e-05
4.47623e-05
4.80934e-05
3.11552e-05
4.79055e-05
6.27571e-06
5.92165e-06
4.80677e-05
4.15971e-05
4.79371e-05
3.19141e-06
4.80243e-05
4.80646e-05
4.80501e-05
3.32315e-05
4.80571e-05
5.01249e-06
5.31273e-06
5.80481e-06
4.69666e-05
4.79974e-05
4.97357e-06
4.68618e-06
4.80707e-05
4.80089e-05
4.79846e-05
6.37946e-06
4.77976e-05
4.48612e-06
4.71312e-05
4.80631e-05
8.29288e-06
1.29753e-05
1.37034e-05
4.71628e-05
4.81255e-05
1.56465e-05
1.48205e-05
1.02149e-05
1.75921e-05
1.66683e-05
4.80251e-05
2.08273e-05
1.97396e-05
2.27725e-05
2.15864e-05
2.47193e-05
2.343e-05
1.21386e-05
4.79795e-05
3.38337e-05
4.80968e-05
4.73343e-05
1.40629e-05
4.81494e-05
4.80885e-05
2.66113e-06
2.94823e-05
2.79477e-06
2.96774e-06
4.76816e-05
4.80454e-05
4.55938e-05
4.8088e-05
2.11222e-05
2.30445e-05
2.49762e-05
4.81404e-05
2.88653e-05
2.6908e-05
4.66774e-05
3.23274e-05
4.72122e-05
4.80949e-05
4.80547e-05
4.69495e-05
4.79209e-05
4.80496e-05
4.81051e-05
4.80488e-05
4.80735e-05
4.3481e-05
4.79727e-05
3.53886e-05
4.80891e-05
4.80871e-05
4.71869e-05
4.70105e-05
4.68736e-05
4.80912e-05
4.56448e-05
4.75496e-05
4.81602e-05
4.76532e-05
4.80512e-05
4.80842e-05
4.80287e-05
3.28908e-05
4.79882e-05
4.80699e-05
4.57329e-05
4.80044e-05
4.81304e-05
2.91883e-05
4.80851e-05
4.80454e-05
4.80648e-05
4.8073e-05
4.7716e-05
3.23624e-06
4.80968e-05
3.84384e-06
4.80847e-05
4.65483e-05
3.44268e-05
2.95843e-05
4.7318e-05
4.80836e-05
4.80722e-05
4.81301e-05
4.80394e-05
4.81063e-05
4.80934e-05
4.8111e-05
4.8132e-05
4.80646e-05
4.76103e-05
4.8107e-05
4.79037e-05
4.80428e-05
4.76427e-05
3.14245e-05
4.80643e-05
4.80736e-05
4.25592e-05
4.80833e-05
4.80581e-05
4.58554e-05
4.71494e-05
4.23254e-05
4.80128e-05
4.80955e-05
4.75769e-05
4.81101e-05
4.81293e-05
4.79642e-05
4.73715e-05
4.81069e-05
4.71157e-05
4.80478e-05
4.78241e-05
4.81453e-05
4.80627e-05
4.80456e-05
3.56212e-06
3.35376e-06
4.79949e-05
4.69983e-05
4.8086e-05
4.6931e-05
4.81222e-05
4.81146e-05
4.79903e-05
4.81495e-05
3.08745e-05
4.81125e-05
4.80612e-05
4.81097e-05
4.81334e-05
4.79301e-05
4.81387e-05
4.80925e-05
4.80632e-05
4.80906e-05
4.80818e-05
4.80422e-05
4.80498e-05
4.81205e-05
4.80832e-05
4.81067e-05
4.81301e-05
4.80667e-05
4.79963e-05
4.80413e-05
4.80923e-05
4.80548e-05
4.80201e-05
4.80049e-05
4.8076e-05
4.81255e-05
4.80177e-05
4.80351e-05
4.64651e-05
4.8138e-05
4.74256e-05
4.80824e-05
4.80075e-05
4.74077e-05
4.74376e-05
4.80734e-05
3.42941e-05
4.8315e-05
4.72876e-05
4.80367e-05
4.8087e-05
4.80768e-05
4.8142e-05
4.80175e-05
4.81073e-05
4.80695e-05
4.8127e-05
4.80445e-05
4.81139e-05
4.7095e-05
4.76609e-05
4.8114e-05
4.81106e-05
4.80291e-05
4.74593e-05
4.80772e-05
4.79813e-05
4.81278e-05
4.67875e-05
4.78258e-05
4.83452e-05
4.80581e-05
4.81424e-05
4.80176e-05
4.80546e-05
4.80545e-05
4.8145e-05
4.8097e-05
4.79574e-05
4.81042e-05
4.80608e-05
4.80092e-05
4.81385e-05
4.73434e-05
3.31752e-06
4.80908e-05
4.74478e-05
4.79558e-05
4.80843e-05
4.80708e-05
4.80966e-05
4.80933e-05
4.81659e-05
4.82421e-05
4.79038e-05
4.80011e-05
4.64961e-05
4.81465e-05
4.80945e-05
4.81108e-05
4.7809e-05
4.80713e-05
4.80855e-05
4.81363e-05
4.81147e-05
4.8167e-05
4.7865e-05
4.81213e-05
4.80808e-05
4.80253e-05
4.81176e-05
4.70877e-05
3.84205e-06
4.80132e-05
4.81363e-05
4.71985e-05
4.76901e-05
4.80806e-05
4.71013e-05
4.82891e-05
4.79138e-05
4.79836e-05
4.81395e-05
4.80546e-05
4.81345e-05
4.80025e-05
4.77158e-05
3.15589e-05
4.76966e-05
4.75605e-05
4.81179e-05
4.80733e-05
4.8134e-05
4.81464e-05
4.81273e-05
4.80627e-05
4.83113e-05
4.81494e-05
4.75268e-05
4.81644e-05
4.75647e-05
4.81247e-05
4.81587e-05
4.83495e-05
4.80536e-05
4.80551e-05
4.813e-05
4.81139e-05
4.80851e-05
4.8166e-05
4.79806e-05
4.80915e-05
4.79615e-05
4.81381e-05
4.81212e-05
4.80056e-05
4.80909e-05
4.81052e-05
4.80508e-05
2.99439e-05
4.81387e-05
4.78588e-05
4.78245e-05
4.80781e-05
4.80887e-05
4.81127e-05
4.81328e-05
4.76641e-05
4.8151e-05
4.80862e-05
4.8046e-05
4.80671e-05
4.80274e-05
4.83541e-05
4.80421e-05
4.81133e-05
4.79748e-05
4.81536e-05
4.80385e-05
4.80446e-05
4.81324e-05
4.77674e-05
4.7968e-05
4.82988e-05
4.80505e-05
4.8166e-05
4.81393e-05
4.80107e-05
4.80473e-05
4.80945e-05
4.80007e-05
4.80798e-05
4.81612e-05
4.80337e-05
4.80416e-05
4.8051e-05
4.80185e-05
4.79978e-05
4.79549e-05
4.80907e-05
4.81635e-05
4.81216e-05
4.80795e-05
4.74782e-05
4.79797e-05
4.8074e-05
4.17686e-06
3.93471e-06
4.80747e-05
4.81371e-05
4.79756e-05
4.76059e-05
4.75723e-05
4.4634e-06
4.80333e-05
4.80123e-05
4.81393e-05
4.80877e-05
4.79847e-05
4.80398e-05
4.7951e-05
4.75091e-05
4.82505e-05
4.74449e-05
4.7528e-05
4.75801e-05
4.81393e-05
4.81418e-05
4.75088e-05
4.80266e-05
4.79616e-05
4.79331e-05
4.81548e-05
4.75472e-05
4.72587e-05
4.81232e-05
4.81e-05
4.80534e-05
4.21687e-05
4.8128e-05
4.77535e-05
4.81132e-05
4.75178e-05
4.81129e-05
4.74087e-05
4.76643e-05
4.81441e-05
4.74208e-05
4.76197e-05
4.79509e-05
4.8091e-05
4.81593e-05
4.66987e-05
4.73596e-05
4.75656e-05
4.76159e-05
4.81432e-05
4.79581e-05
4.80863e-05
4.7707e-05
4.75194e-05
4.79754e-05
4.78849e-05
4.79374e-05
4.79063e-05
4.74987e-05
4.77224e-05
4.73129e-05
5.08978e-06
4.81149e-05
4.80653e-05
4.8154e-05
4.79772e-06
4.52154e-06
4.77588e-05
4.29639e-06
4.04342e-06
4.79361e-05
4.67556e-05
4.81189e-05
4.81196e-05
4.79301e-05
4.81135e-05
4.77937e-05
4.79392e-05
4.80353e-05
4.80958e-05
4.7785e-05
4.81355e-05
4.79296e-05
4.79669e-05
4.78155e-05
4.78322e-05
5.11897e-06
5.42821e-06
3.00815e-05
4.78271e-05
4.75757e-05
4.80969e-05
4.77581e-05
4.78875e-05
4.79186e-05
4.81352e-05
4.80065e-05
4.6561e-05
4.76751e-05
4.67606e-05
4.78257e-05
4.84265e-05
4.77061e-05
4.80858e-05
4.79942e-05
5.25742e-06
4.79568e-05
4.67324e-05
4.77036e-05
4.76338e-05
4.78678e-05
4.77409e-05
5.72251e-06
4.8057e-05
4.81917e-05
4.71643e-05
4.78222e-05
6.06774e-06
5.72561e-06
4.73021e-05
4.78114e-05
3.10763e-06
2.91791e-06
2.96405e-05
4.81132e-05
4.75222e-05
4.78335e-05
6.36008e-06
4.71694e-05
4.81161e-05
4.74459e-05
4.79701e-05
4.79619e-05
6.3362e-06
6.71119e-06
4.80062e-05
7.001e-06
4.77564e-05
4.77812e-05
4.72571e-05
4.77292e-05
7.18978e-06
7.64183e-06
4.80473e-05
7.35827e-06
6.9506e-06
4.80896e-05
8.28279e-06
7.56825e-06
8.00875e-06
7.15858e-06
7.57613e-06
4.68874e-05
8.92494e-06
4.8099e-05
8.1861e-06
8.65929e-06
9.1127e-06
9.56604e-06
2.9048e-05
8.80211e-06
9.30829e-06
1.02067e-05
3.21592e-05
9.95407e-06
9.41485e-06
1.08481e-05
1.05977e-05
1.00255e-05
1.10357e-05
1.14902e-05
1.12392e-05
1.06344e-05
1.21318e-05
1.27748e-05
1.12484e-05
1.1886e-05
1.29616e-05
1.18614e-05
1.25322e-05
1.34162e-05
1.14651e-05
1.21118e-05
1.40575e-05
1.31797e-05
1.24762e-05
1.46997e-05
1.30959e-05
1.38319e-05
1.5343e-05
1.48866e-05
1.44851e-05
1.37166e-05
1.40489e-05
1.33033e-05
1.59847e-05
1.43333e-05
1.51347e-05
1.57852e-05
1.49512e-05
1.66264e-05
1.64317e-05
1.55649e-05
1.72646e-05
1.70796e-05
1.61798e-05
1.79061e-05
1.6794e-05
1.77265e-05
1.61601e-05
9.1034e-06
3.0742e-05
3.26741e-05
2.99122e-05
2.73015e-05
2.87784e-05
4.17159e-06
3.93178e-06
1.55528e-05
1.64186e-05
8.64508e-06
8.17267e-06
1.80991e-05
2.94289e-05
2.79277e-05
1.29519e-05
2.64762e-05
1.74115e-05
3.02462e-05
1.83767e-05
5.28606e-06
3.11994e-05
2.26284e-05
2.07028e-05
1.72868e-06
1.61762e-06
2.857e-05
3.4483e-06
1.48777e-05
1.44726e-05
1.37049e-05
2.67906e-05
2.5396e-05
2.92214e-05
1.85477e-05
2.3545e-05
2.23161e-05
3.65966e-05
2.54926e-05
2.41499e-05
9.40052e-06
1.10256e-05
1.2529e-05
1.18598e-05
9.93864e-06
1.83648e-05
1.7401e-05
3.00867e-05
6.07195e-06
5.73176e-06
2.83916e-05
7.18596e-06
3.20709e-05
3.37206e-05
7.356e-06
6.94963e-06
3.27473e-05
2.95448e-06
2.78222e-06
3.21279e-05
1.12325e-05
1.06288e-05
3.56018e-05
2.8105e-05
2.41759e-05
2.45536e-05
2.55017e-05
2.48552e-05
2.35606e-05
3.03974e-05
2.16647e-05
2.05344e-05
2.61464e-05
2.55999e-05
1.7442e-05
2.74516e-05
2.67979e-05
3.18275e-05
2.49614e-05
2.4793e-05
2.30443e-05
1.8025e-05
2.00069e-05
3.19104e-05
2.6035e-05
1.8726e-05
2.17211e-05
2.54161e-05
2.75265e-05
2.24031e-05
2.17614e-05
2.81593e-05
2.66579e-05
1.86421e-05
2.03216e-05
1.96726e-05
2.43238e-05
2.09729e-05
2.16214e-05
1.90231e-05
2.11068e-05
2.57759e-05
2.29456e-05
1.98768e-05
2.36844e-05
2.68852e-05
2.0479e-05
3.21208e-05
3.07025e-05
1.92583e-05
3.06339e-05
2.62422e-05
2.76963e-05
2.22687e-05
2.19335e-05
1.96582e-05
1.86288e-05
2.29158e-05
2.87536e-05
2.11199e-05
2.38534e-05
3.06832e-05
2.42079e-05
2.16021e-05
2.04746e-05
2.04923e-05
3.13103e-05
1.9192e-05
2.23326e-05
3.00449e-05
1.98352e-05
2.87483e-05
2.7268e-05
3.22439e-05
2.94006e-05
2.83062e-05
2.35599e-05
3.15167e-05
3.09985e-05
3.21869e-05
3.0229e-05
2.87742e-05
2.72838e-05
4.76926e-05
2.81546e-05
2.85556e-05
2.79175e-05
2.91169e-05
4.78486e-05
4.79764e-05
4.78835e-05
2.96268e-05
4.80357e-05
4.81149e-05
4.784e-05
2.68483e-05
4.785e-05
4.77978e-05
4.80781e-05
4.79712e-05
4.8006e-05
3.10002e-05
4.75029e-05
2.7752e-05
4.78081e-05
4.79178e-05
4.77567e-05
4.73959e-05
4.75794e-05
4.6263e-05
2.75e-05
3.03227e-05
4.7855e-05
4.7617e-05
3.00791e-05
4.78995e-05
4.77719e-05
2.71145e-05
4.79719e-05
4.76974e-05
4.81145e-05
4.81125e-05
4.81183e-05
4.7955e-05
4.77451e-05
4.8015e-05
4.80009e-05
4.60058e-05
4.77664e-05
4.77284e-05
4.8052e-05
4.67917e-05
2.40724e-05
2.28178e-05
4.79819e-05
4.80095e-05
4.82495e-05
4.80843e-05
2.93673e-05
4.75392e-05
4.8036e-05
4.76487e-05
4.74732e-05
4.81287e-05
4.69713e-05
4.80253e-05
4.75751e-05
4.79086e-05
4.78742e-05
4.75787e-05
4.79454e-05
4.7274e-05
4.80927e-05
4.79361e-05
4.81659e-05
4.78466e-05
4.77213e-05
4.75097e-05
4.78916e-05
4.79946e-05
4.78764e-05
4.80607e-05
4.8125e-05
4.80248e-05
4.80456e-05
4.80981e-05
4.80413e-05
4.72751e-05
4.78857e-05
4.80592e-05
4.7911e-05
2.74774e-05
2.6071e-05
4.80926e-05
4.79148e-05
4.75215e-05
4.78961e-05
4.78891e-05
4.79637e-05
4.79975e-05
4.80525e-05
4.78605e-05
4.80936e-05
2.70998e-05
4.78404e-05
4.8089e-05
4.77946e-05
4.79997e-05
4.71656e-05
4.81188e-05
4.71489e-05
4.78196e-05
4.80392e-05
4.76022e-05
4.77672e-05
4.81007e-05
4.75796e-05
4.75245e-05
4.80117e-05
4.80985e-05
4.78821e-05
4.80507e-05
4.81005e-05
4.81319e-05
3.28323e-05
4.80791e-05
4.81481e-05
4.81368e-05
4.80971e-05
4.79851e-05
4.79866e-05
4.80458e-05
4.79201e-05
4.81417e-05
4.81e-05
4.81514e-05
4.78986e-05
4.79801e-05
4.81562e-05
4.81262e-05
4.81169e-05
4.80967e-05
4.79154e-05
4.81279e-05
4.80953e-05
4.81219e-05
4.78233e-05
4.74537e-05
4.80391e-05
4.80693e-05
2.21256e-05
2.09726e-05
4.80881e-05
4.81337e-05
4.80162e-05
4.79598e-05
4.77297e-05
4.79958e-05
2.70083e-05
2.5612e-05
4.81095e-05
4.68548e-05
4.78974e-05
3.2472e-05
4.8098e-05
4.79227e-05
2.81391e-05
2.66917e-05
1.64849e-06
4.80778e-05
4.79227e-05
4.79147e-05
4.81409e-05
4.81305e-05
4.80674e-05
4.80667e-05
4.81186e-05
4.80151e-05
4.8083e-05
4.79128e-05
4.81721e-05
4.82134e-05
4.73223e-05
4.8015e-05
4.80855e-05
4.79948e-05
4.79852e-05
4.81275e-05
4.7974e-05
4.79756e-05
4.80423e-05
4.81839e-05
4.80508e-05
4.81128e-05
4.81298e-05
4.81256e-05
4.75516e-05
4.81241e-05
4.75411e-05
4.81379e-05
4.80941e-05
4.72139e-05
4.70187e-05
4.80934e-05
4.81397e-05
4.80465e-05
4.80678e-05
4.81968e-05
4.78544e-05
4.81306e-05
4.74509e-05
4.81985e-05
4.79709e-05
4.78365e-05
4.75495e-05
4.80958e-05
4.80385e-05
4.81372e-05
4.7959e-05
2.61922e-05
2.48419e-05
4.78914e-05
4.80588e-05
4.80517e-05
2.01826e-05
1.91274e-05
4.71947e-05
2.58369e-05
4.79585e-05
4.81553e-05
4.81359e-05
4.79572e-05
4.81023e-05
4.81272e-05
4.80717e-05
4.78513e-05
4.80535e-05
4.78791e-05
4.81118e-05
4.81406e-05
4.81402e-05
2.64547e-05
4.80844e-05
4.80851e-05
4.79262e-05
4.81407e-05
4.73145e-05
4.81533e-05
4.80945e-05
4.81522e-05
4.80024e-05
4.69096e-05
4.79751e-05
4.6543e-05
4.77881e-05
4.79282e-05
4.80062e-05
4.80285e-05
4.8149e-05
4.80856e-05
4.80328e-05
4.81706e-05
4.7696e-05
4.80798e-05
4.77425e-05
4.80782e-05
4.81225e-05
4.81412e-05
4.79156e-05
4.81301e-05
4.81299e-05
4.79979e-05
4.7945e-05
4.81573e-05
4.80535e-05
4.80811e-05
4.81309e-05
4.78977e-05
4.7821e-05
2.82135e-05
4.81165e-05
4.81059e-05
4.80599e-05
4.81293e-05
4.80993e-05
4.77892e-05
4.78702e-05
4.78226e-05
4.81192e-05
4.80566e-05
4.81033e-05
4.76042e-05
4.81221e-05
4.77325e-05
4.8081e-05
4.79644e-05
4.81155e-05
4.81017e-05
4.81012e-05
4.80118e-05
4.80052e-05
4.80104e-05
4.8119e-05
4.80187e-05
4.80095e-05
4.76566e-05
4.74409e-05
4.81081e-05
4.80807e-05
4.80168e-05
4.80614e-05
4.77907e-05
4.7052e-05
2.57068e-05
2.43742e-05
4.81109e-05
4.80354e-05
2.51657e-05
4.81316e-05
4.78043e-05
4.81477e-05
4.8019e-05
4.81387e-05
4.81101e-05
4.81611e-05
4.80254e-05
2.7655e-05
2.62236e-05
4.8144e-05
4.81196e-05
4.8048e-05
4.80277e-05
4.81272e-05
4.81809e-05
4.81041e-05
4.80515e-05
4.80999e-05
4.8138e-05
4.79463e-05
2.58118e-05
4.80783e-05
4.81388e-05
4.81202e-05
4.81177e-05
4.79798e-05
4.81417e-05
4.71124e-05
4.81194e-05
4.80968e-05
3.54988e-05
4.81371e-05
4.80323e-05
4.81427e-05
4.81458e-05
4.80097e-05
4.74717e-05
4.81457e-05
4.81355e-05
4.80086e-05
4.81529e-05
4.73525e-05
4.81145e-05
4.81445e-05
4.80464e-05
4.81252e-05
4.80088e-05
4.81245e-05
4.81059e-05
4.80782e-05
4.77806e-05
4.80602e-05
4.81083e-05
4.8144e-05
4.80876e-05
4.7211e-05
4.79273e-05
4.81572e-05
4.80316e-05
4.76397e-05
4.80917e-05
4.81321e-05
4.81479e-05
4.81327e-05
4.81509e-05
4.80981e-05
4.79716e-05
4.80962e-05
4.81259e-05
4.8141e-05
4.81388e-05
4.81557e-05
4.81158e-05
4.80013e-05
4.79961e-05
4.81226e-05
4.81408e-05
4.81541e-05
4.81492e-05
4.79814e-05
4.7973e-05
4.80897e-05
4.78658e-05
4.8136e-05
4.8169e-05
4.81134e-05
4.81196e-05
4.81495e-05
4.78614e-05
4.79829e-05
4.81991e-05
4.77791e-05
4.81708e-05
2.48972e-05
2.36085e-05
4.81138e-05
4.81041e-05
4.80969e-05
2.62711e-05
4.78971e-05
4.80934e-05
1.69456e-05
1.60543e-05
4.81095e-05
4.80229e-05
4.81209e-05
4.80607e-05
4.80437e-05
4.80908e-05
4.78872e-05
4.80269e-05
4.80276e-05
4.7956e-05
4.78643e-05
4.8042e-05
4.80651e-05
4.81072e-05
4.78379e-05
4.78584e-05
4.81422e-05
4.73529e-05
4.80207e-05
4.76801e-05
4.76096e-05
4.71723e-05
4.78963e-05
4.76394e-05
4.80985e-05
4.79081e-05
4.76657e-05
4.7281e-05
4.8108e-05
4.80867e-05
4.81327e-05
4.81044e-05
4.80458e-05
4.73968e-05
4.79698e-05
4.81023e-05
4.81463e-05
4.81118e-05
4.80179e-05
4.81041e-05
4.80724e-05
4.80738e-05
4.81e-05
4.78448e-05
4.78404e-05
4.80996e-05
4.70772e-05
4.80309e-05
4.81207e-05
4.76561e-05
4.70379e-05
4.77877e-05
5.75304e-06
4.74197e-05
4.81552e-05
4.8104e-05
2.44079e-05
2.31412e-05
4.81448e-05
2.39113e-05
4.80682e-05
4.71732e-05
4.81412e-05
4.80324e-05
4.81436e-05
4.81017e-05
4.80886e-05
2.68381e-05
2.54591e-05
4.80064e-05
4.80336e-05
1.50003e-05
1.42069e-05
4.80947e-05
4.812e-05
4.80811e-05
4.69268e-05
4.81911e-05
4.80528e-05
4.72412e-05
4.80833e-05
4.81582e-05
2.51953e-05
4.72079e-05
4.81192e-05
4.80643e-05
4.81243e-05
2.43372e-05
4.80729e-05
7.66052e-06
4.81463e-05
4.74399e-05
4.78717e-05
4.81125e-05
4.80006e-05
4.78192e-05
4.78891e-05
4.81081e-05
4.80995e-05
4.80899e-05
4.80855e-05
4.77025e-05
4.80657e-05
4.80869e-05
4.81201e-05
4.80661e-05
4.79132e-05
4.81262e-05
4.82262e-05
9.58057e-06
4.80275e-05
4.7959e-05
4.81361e-05
4.80123e-05
4.81448e-05
2.36007e-05
2.23746e-05
2.32345e-05
4.80986e-05
4.8072e-05
4.80218e-05
3.8852e-06
4.7949e-05
4.81338e-05
4.81304e-05
4.8134e-05
1.30597e-05
1.23642e-05
4.81443e-05
4.81178e-05
1.15032e-05
4.80829e-05
4.80004e-05
4.81185e-05
-3.69528e-08
-4.85874e-08
-3.98218e-08
4.79934e-05
4.81411e-05
4.81016e-05
4.7309e-05
4.81147e-05
4.79943e-05
4.80987e-05
4.74775e-05
3.30082e-05
4.79914e-05
4.78241e-05
2.24107e-05
4.78873e-05
4.69164e-05
4.80253e-05
4.8116e-05
4.81001e-05
4.81196e-05
4.75721e-05
4.80757e-05
1.76122e-06
1.65892e-06
1.34265e-05
4.8115e-05
4.80852e-05
3.35472e-05
4.80236e-05
4.80824e-05
4.80823e-05
4.81182e-05
4.80749e-05
2.31127e-05
2.19106e-05
4.80671e-05
4.80903e-05
4.80325e-05
4.80877e-05
4.80429e-05
4.81102e-05
4.80615e-05
2.6357e-05
2.49939e-05
4.78611e-05
4.81871e-05
4.80782e-05
4.8145e-05
4.80518e-05
4.81492e-05
4.81135e-05
4.80929e-05
4.81044e-05
4.74756e-05
4.81348e-05
4.81111e-05
4.78585e-05
4.8071e-05
4.80523e-05
4.80386e-05
4.80135e-05
2.04874e-05
4.81472e-05
4.41437e-06
4.68125e-06
4.80456e-05
2.19874e-05
2.23103e-05
2.11475e-05
4.79179e-05
4.80817e-05
4.76463e-05
4.80318e-05
4.80916e-05
4.80447e-05
4.7943e-05
4.80579e-05
4.806e-05
4.8154e-05
4.76939e-05
4.81374e-05
4.79475e-05
4.80888e-05
2.45193e-05
4.7991e-05
4.73689e-05
4.80947e-05
4.76764e-05
4.81375e-05
4.80682e-05
4.77734e-05
4.80567e-05
4.8109e-05
2.54064e-06
2.38046e-06
4.73662e-05
2.13106e-05
4.7621e-05
4.80626e-05
4.81534e-05
4.7936e-05
4.81387e-05
4.79964e-05
4.81052e-05
4.81451e-05
2.55517e-05
2.42317e-05
2.38757e-05
4.79385e-05
4.81355e-05
4.80668e-05
4.81496e-05
4.72619e-05
4.81023e-05
4.80709e-05
4.81477e-05
4.81226e-05
4.81043e-05
4.79811e-05
4.72604e-05
2.1168e-05
2.00636e-05
4.81425e-05
4.81028e-05
4.81007e-05
4.8033e-05
4.81261e-05
4.80402e-05
4.80637e-05
4.81582e-05
4.81073e-05
4.8095e-05
4.78966e-05
4.8104e-05
4.8035e-05
2.00607e-05
4.8078e-05
2.03547e-05
1.92894e-05
4.80324e-05
4.72669e-05
4.80262e-05
4.80849e-05
4.81624e-05
4.81465e-05
4.81325e-05
2.50563e-05
2.37542e-05
2.32687e-05
4.80942e-05
4.80881e-05
1.93829e-05
1.98737e-05
1.88341e-05
4.75475e-05
4.80031e-05
4.80143e-05
4.80267e-05
4.79769e-05
4.81209e-05
4.81e-05
4.80141e-05
4.80876e-05
4.68401e-05
1.87784e-05
4.79234e-05
4.81475e-05
4.8101e-05
1.90652e-05
1.80658e-05
4.81415e-05
4.8093e-05
4.81008e-05
2.42528e-05
2.29961e-05
4.66434e-05
4.79626e-05
4.6638e-05
4.80611e-05
4.68272e-05
4.69143e-05
4.74618e-05
4.81502e-05
1.85809e-05
1.76075e-05
3.30361e-05
2.25926e-05
4.68587e-05
4.81375e-05
1.74591e-05
1.77689e-05
1.68353e-05
2.59221e-05
2.73206e-05
2.78532e-05
2.92704e-05
2.19513e-05
2.37566e-05
2.25193e-05
4.81429e-05
4.75287e-05
4.80134e-05
3.1149e-05
4.80572e-05
4.81156e-05
1.68549e-05
1.72838e-05
1.63755e-05
4.81492e-05
4.80796e-05
4.80711e-05
4.446e-05
3.67445e-05
4.81576e-05
4.80315e-05
4.81477e-05
2.5494e-06
1.6172e-05
4.80396e-05
1.64746e-05
1.56065e-05
4.80713e-05
4.69412e-05
4.80978e-05
2.13445e-05
2.29564e-05
2.17618e-05
1.55716e-05
4.57218e-05
1.59875e-05
1.51445e-05
4.78281e-05
4.80115e-05
4.81342e-05
4.80708e-05
4.71821e-05
4.80159e-05
4.81423e-05
4.80781e-05
4.81039e-05
1.51799e-05
1.43772e-05
4.78601e-05
4.81088e-05
3.76648e-05
4.8153e-05
2.24597e-05
2.12895e-05
4.77268e-05
4.52377e-05
1.42459e-05
1.46902e-05
1.39126e-05
4.80084e-05
4.8127e-05
4.81635e-05
4.81183e-05
4.81564e-05
4.79957e-05
4.67898e-05
4.79085e-05
4.80799e-05
2.06675e-05
4.8129e-05
4.81485e-05
1.36468e-05
4.81514e-05
4.80871e-05
2.28992e-06
4.80985e-05
4.80709e-05
4.80479e-05
4.8146e-05
4.81353e-05
4.81276e-05
3.12524e-05
2.00244e-05
4.81308e-05
4.80864e-05
2.18065e-05
2.06697e-05
4.67399e-05
4.81105e-05
4.80546e-05
4.81294e-05
1.32289e-05
1.25241e-05
4.80534e-05
4.80124e-05
4.81303e-05
4.81095e-05
4.8088e-05
4.81267e-05
4.80249e-05
4.79816e-05
4.81461e-05
1.23215e-05
4.7648e-05
3.51971e-05
1.27551e-05
1.20758e-05
3.30957e-05
4.81152e-05
3.96627e-05
4.80773e-05
4.71501e-05
4.70834e-05
1.94182e-05
1.17195e-05
2.10215e-05
1.99249e-05
4.54826e-05
4.81508e-05
4.76407e-05
4.81084e-05
4.80129e-05
4.80999e-05
1.12824e-05
1.06758e-05
4.80086e-05
4.7529e-05
4.81387e-05
4.81464e-05
4.81082e-05
1.03959e-05
4.80306e-05
1.87395e-05
1.08089e-05
1.02278e-05
2.05138e-05
1.9441e-05
4.80331e-05
4.81301e-05
4.81357e-05
4.80299e-05
9.79518e-06
4.80859e-05
9.99698e-06
9.45684e-06
4.81155e-05
4.80304e-05
4.8127e-05
4.81386e-05
4.8101e-05
9.5114e-06
8.99613e-06
1.97134e-05
1.86807e-05
4.82597e-05
4.80569e-05
4.80031e-05
4.8154e-05
8.47333e-06
4.80805e-05
8.69931e-06
8.22429e-06
4.80429e-05
1.81364e-05
4.82823e-05
4.80998e-05
4.81032e-05
4.81146e-05
4.80427e-05
4.81499e-05
7.86663e-06
8.21727e-06
7.76734e-06
4.81096e-05
1.74937e-05
4.79531e-05
4.8116e-05
1.92214e-05
1.82147e-05
4.80995e-05
4.80752e-05
4.80281e-05
6.54944e-06
4.77843e-05
6.73879e-06
6.36127e-06
1.68155e-05
1.84234e-05
1.74571e-05
2.65467e-05
2.79703e-05
4.80008e-05
6.27161e-06
5.92091e-06
4.77136e-05
5.92805e-06
4.73678e-05
4.81057e-05
2.85256e-05
2.99097e-05
4.80345e-05
3.31974e-05
4.60686e-05
4.70795e-05
5.43122e-06
5.11975e-06
3.17038e-05
4.32082e-05
4.80954e-05
4.80328e-05
4.80275e-05
4.80969e-05
1.62123e-05
3.00986e-06
2.8227e-06
4.81482e-05
1.79247e-05
1.69834e-05
4.94746e-06
4.66182e-06
4.81094e-05
4.80189e-05
4.80805e-05
4.80032e-05
4.80982e-05
4.60951e-06
1.55276e-05
4.8088e-05
4.81428e-05
1.7127e-05
1.62261e-05
4.81554e-05
4.80425e-05
4.80876e-05
4.80608e-05
3.31754e-06
3.09998e-06
4.78609e-05
4.81204e-05
4.80679e-05
4.80201e-05
4.80197e-05
4.80889e-05
4.79241e-05
1.66295e-05
1.57536e-05
4.757e-05
4.81104e-05
4.80347e-05
4.62804e-05
4.74095e-05
1.49287e-05
4.81143e-05
4.81553e-05
1.42847e-05
3.15609e-05
3.91971e-06
3.09654e-05
1.583e-05
1.49943e-05
4.80573e-05
1.62005e-06
4.8126e-05
4.51187e-05
4.79654e-05
4.61552e-05
4.81623e-05
1.3602e-05
4.79873e-05
1.53326e-05
1.4522e-05
4.80871e-05
2.96487e-05
4.81249e-05
1.4531e-05
1.37607e-05
4.70433e-05
4.33358e-05
4.81185e-05
1.30049e-05
4.81496e-05
1.23597e-05
1.48267e-06
1.32379e-06
4.78602e-05
4.7953e-05
1.38848e-05
1.31479e-05
4.80587e-05
4.81177e-05
4.81109e-05
4.80614e-05
4.81081e-05
4.81504e-05
1.16769e-05
4.80443e-05
1.33983e-05
1.26853e-05
4.64881e-05
4.81495e-05
4.81063e-05
4.81132e-05
4.80935e-05
4.80844e-05
4.80908e-05
1.25849e-05
1.19128e-05
4.81229e-05
1.10779e-05
4.8133e-05
4.81192e-05
2.12733e-06
1.04348e-05
4.76616e-05
1.19442e-05
1.13061e-05
4.75753e-05
4.70575e-05
4.79147e-05
4.81185e-05
4.8112e-05
4.80895e-05
4.81076e-05
9.75315e-06
4.79697e-05
4.73619e-05
1.14572e-05
1.08431e-05
4.5298e-05
5.08519e-05
4.77498e-05
4.83261e-05
4.76582e-05
4.80095e-05
1.06461e-05
1.00724e-05
4.80412e-05
4.76755e-05
9.15282e-06
4.80438e-05
4.76894e-05
4.77047e-05
8.50726e-06
1.01587e-05
9.61054e-06
3.06557e-05
4.792e-05
4.79493e-05
4.82792e-05
4.77065e-05
4.80951e-05
2.96229e-05
3.88073e-05
4.81067e-05
4.79917e-05
7.82993e-06
9.35208e-06
8.84445e-06
4.82555e-05
4.79906e-05
4.81374e-05
4.81512e-05
4.81415e-05
4.80243e-05
4.80433e-05
8.86106e-06
8.37814e-06
4.60127e-05
4.31358e-05
7.22415e-06
4.69216e-05
4.79656e-05
4.77537e-05
4.8109e-05
3.8707e-05
6.57366e-06
4.8049e-05
8.04918e-06
7.60649e-06
4.78133e-05
4.81133e-05
5.90354e-06
7.4039e-06
6.99495e-06
4.8049e-05
3.74793e-05
4.53011e-05
4.80367e-05
4.81079e-05
4.81295e-05
6.92201e-06
6.53736e-06
2.9492e-05
4.80484e-05
4.77462e-05
4.82445e-05
4.79608e-05
5.27122e-06
4.77626e-05
6.09433e-06
5.74954e-06
4.812e-05
4.80226e-05
4.6029e-06
4.78117e-05
4.80758e-05
3.33523e-05
5.61288e-06
5.29556e-06
4.80619e-05
4.82433e-05
4.77739e-05
3.96025e-06
4.7709e-05
1.50089e-06
1.50003e-06
1.59266e-06
4.76264e-05
4.76094e-06
4.48211e-06
2.8463e-05
4.7993e-05
4.79983e-05
4.81544e-05
4.77263e-05
4.8083e-05
4.81317e-05
4.79606e-05
4.07546e-06
3.82818e-06
4.79122e-05
4.66003e-05
4.79641e-05
3.93569e-05
3.63782e-06
3.41752e-06
4.79267e-05
4.80225e-05
3.19088e-05
4.79915e-05
4.79399e-05
4.79595e-05
4.78717e-05
3.55014e-05
4.79252e-05
4.32988e-05
4.79992e-05
3.05243e-05
4.8107e-05
4.80122e-05
4.79192e-05
4.81563e-05
4.61322e-05
4.43241e-05
4.56197e-05
4.24175e-05
4.77415e-05
4.81107e-05
3.21934e-06
4.79302e-05
4.80306e-05
2.60947e-06
2.42423e-06
3.28145e-05
1.70623e-06
4.80076e-05
4.43552e-05
4.82082e-05
4.76586e-05
4.8224e-05
4.78878e-05
4.58821e-05
3.07908e-05
4.81522e-05
4.79492e-05
4.75817e-05
4.73708e-05
4.80116e-05
4.81016e-05
4.81338e-05
3.33276e-05
2.41996e-06
3.24867e-05
4.64007e-05
4.79679e-05
1.91379e-06
1.02171e-06
1.16074e-06
4.80816e-05
4.81272e-05
4.78925e-05
4.81351e-05
4.77279e-05
3.20005e-05
1.70688e-06
1.76243e-06
1.68239e-06
4.8005e-05
4.81144e-05