/*--------------------------------*- C++ -*----------------------------------*\
  =========                 |
  \\      /  F ield         | OpenFOAM: The Open Source CFD Toolbox
   \\    /   O peration     | Website:  https://openfoam.org
    \\  /    A nd           | Version:  8
     \\/     M anipulation  |
\*---------------------------------------------------------------------------*/
FoamFile
{
    version     2.0;
    format      ascii;
    class       volScalarField;
    location    "3.4";
    object      p;
}
// * * * * * * * * * * * * * * * * * * * * * * * * * * * * * * * * * * * * * //

dimensions      [0 2 -2 0 0 0 0];

internalField   nonuniform List<scalar> 
6388
(
1.27485e-05
1.27686e-05
1.23334e-05
1.23121e-05
9.92592e-06
8.14773e-06
1.21155e-05
1.17497e-05
1.22773e-05
1.17238e-05
1.02421e-05
1.16729e-05
1.2047e-05
8.28577e-06
1.20295e-05
1.19611e-05
1.181e-05
8.93089e-06
1.19417e-05
1.20989e-05
1.19282e-05
1.18939e-05
9.05557e-06
9.19847e-06
8.98364e-06
1.19126e-05
1.20722e-05
1.18343e-05
1.18061e-05
1.23608e-05
8.79316e-06
8.86632e-06
9.8746e-06
1.09293e-05
8.58149e-06
1.00238e-05
9.17734e-06
1.12821e-05
1.20592e-05
8.33331e-06
1.20205e-05
1.19862e-05
1.26733e-05
9.21487e-06
1.23313e-05
1.16669e-05
1.2798e-05
1.21395e-05
1.23708e-05
1.19357e-05
1.23316e-05
1.25008e-05
1.21202e-05
1.20382e-05
1.15887e-05
1.23506e-05
1.18721e-05
1.22828e-05
1.20924e-05
1.21125e-05
8.97541e-06
1.23112e-05
1.18822e-05
1.2295e-05
1.16372e-05
1.23399e-05
1.17434e-05
1.19702e-05
1.13045e-05
1.23351e-05
1.1219e-05
8.68687e-06
8.1253e-06
1.10691e-05
1.23393e-05
1.21835e-05
8.49111e-06
1.23065e-05
1.23173e-05
8.88922e-06
1.17396e-05
8.77203e-08
8.02401e-08
8.06434e-08
7.85293e-08
8.66176e-08
1.05223e-05
8.85731e-08
7.95085e-08
8.12432e-08
8.69163e-08
7.58996e-08
1.23433e-05
1.25478e-05
1.19559e-05
1.24619e-05
1.23389e-05
8.51828e-06
1.23766e-05
1.19597e-05
1.19242e-05
1.13561e-05
1.18274e-05
1.17057e-05
1.17293e-05
1.07165e-05
1.22284e-05
1.17677e-05
1.18626e-05
1.23346e-05
1.20674e-05
9.34445e-06
9.58422e-06
1.21039e-05
1.25844e-05
1.24913e-05
1.02635e-05
1.26823e-05
1.20676e-05
1.23371e-05
7.77733e-06
1.23157e-05
1.19142e-05
1.2284e-05
9.08801e-06
1.24114e-05
1.22845e-05
1.20267e-05
1.23143e-05
1.19536e-05
9.43205e-06
1.17764e-05
1.22394e-05
1.24659e-05
1.23463e-05
9.24153e-06
8.90446e-06
1.13228e-05
1.23331e-05
1.176e-05
9.59412e-06
1.24549e-05
1.19084e-05
1.23708e-05
1.23182e-05
1.18545e-05
1.22042e-05
1.23342e-05
1.19744e-05
1.25117e-05
1.17304e-05
1.23582e-05
1.17394e-05
9.27648e-06
1.1633e-05
1.20687e-05
1.12114e-05
1.23368e-05
9.15132e-06
1.09139e-05
1.23923e-05
1.25074e-05
8.45063e-06
1.11435e-05
1.23365e-05
1.09332e-05
8.00832e-06
7.90205e-06
7.81973e-06
1.22505e-05
8.37549e-06
1.17649e-05
1.18837e-05
1.2334e-05
1.16025e-05
8.79341e-06
1.22773e-05
1.20952e-05
1.25473e-05
1.1752e-05
1.15602e-05
1.1468e-05
8.5752e-06
7.39058e-06
1.18701e-05
1.08003e-05
1.23433e-05
9.19461e-06
1.17781e-05
9.35183e-06
9.57999e-06
1.15895e-05
9.79417e-06
1.28097e-05
1.18374e-05
1.22967e-05
1.23361e-05
1.23041e-05
8.18126e-06
7.69149e-06
7.49762e-06
8.38172e-06
1.23314e-05
7.6008e-06
7.68405e-06
7.78456e-06
8.10078e-06
9.11635e-06
1.23204e-05
1.21265e-05
8.50215e-06
8.91766e-06
8.18891e-06
1.08935e-05
5.99955e-06
5.81523e-06
5.742e-06
5.67771e-06
8.71564e-06
1.1983e-05
6.00668e-06
1.23197e-05
7.49534e-06
8.96502e-06
1.23238e-05
7.26067e-06
9.51896e-06
6.39318e-06
6.19742e-06
6.1189e-06
6.05098e-06
1.11141e-05
7.494e-06
1.21826e-05
1.17479e-05
6.4029e-06
1.08445e-05
7.91245e-06
6.98258e-06
8.30162e-06
6.81978e-06
6.7348e-06
6.65859e-06
1.06406e-05
7.19969e-06
7.11006e-06
7.0295e-06
7.59247e-06
8.56216e-06
1.00115e-05
1.23105e-05
8.29049e-06
7.88878e-06
7.58016e-06
7.48436e-06
7.40087e-06
7.98494e-06
7.78907e-06
7.68767e-06
8.08079e-06
5.00716e-06
8.00169e-06
8.19489e-06
5.01149e-06
5.40318e-06
7.21684e-06
7.2992e-06
7.3917e-06
5.43436e-06
5.36604e-06
5.30583e-06
5.3774e-06
5.64561e-06
8.06905e-06
1.17162e-05
5.69065e-06
1.23271e-05
9.93928e-06
6.21473e-06
5.72039e-06
7.31438e-06
6.31468e-06
6.27437e-06
1.1995e-05
6.28456e-06
1.2152e-05
6.79775e-06
6.68321e-06
1.19132e-05
8.33701e-06
8.10404e-06
1.17627e-05
9.30552e-06
1.20409e-05
6.84623e-06
7.06839e-06
1.2342e-05
6.87069e-06
7.87078e-06
1.19699e-05
9.81871e-06
9.54131e-06
1.23537e-05
6.76522e-06
6.79269e-06
7.22222e-06
6.43405e-06
6.50657e-06
6.58969e-06
6.00653e-06
1.23572e-05
9.77484e-06
1.22982e-05
1.04177e-05
8.65074e-06
1.2324e-05
9.47166e-06
6.37569e-06
1.20577e-05
7.43148e-06
7.74041e-06
1.2223e-05
8.10717e-06
7.69606e-06
6.75973e-06
1.18396e-05
1.12608e-05
9.09138e-06
9.31614e-06
4.78548e-06
5.42297e-07
5.02603e-07
5.15299e-07
5.10932e-07
5.34449e-07
5.75391e-06
5.2621e-06
9.38565e-06
9.16342e-06
1.11656e-05
1.15747e-05
5.801e-06
5.15904e-06
1.22273e-05
5.27292e-06
6.98887e-06
1.20877e-05
5.29836e-06
6.59128e-06
6.2577e-06
6.32714e-06
6.40877e-06
8.97806e-06
9.19576e-06
5.6641e-06
7.13174e-06
9.45842e-06
6.21712e-06
1.01463e-05
7.17866e-06
6.84601e-06
6.92404e-06
7.01163e-06
8.574e-06
1.17777e-05
1.02253e-05
4.43863e-06
6.19751e-06
1.18511e-05
5.86285e-06
5.92902e-06
6.00481e-06
5.02267e-06
9.28587e-06
9.35816e-06
6.95815e-06
1.09222e-05
5.39605e-06
6.65545e-06
6.60621e-06
1.17848e-05
1.23221e-05
5.04875e-06
4.98525e-06
4.92934e-06
1.17096e-05
1.17729e-05
6.66258e-06
6.48532e-06
1.22625e-05
6.57302e-06
7.09699e-06
6.01948e-06
6.10116e-06
1.23181e-05
9.11948e-06
6.41308e-06
9.92624e-06
6.08545e-06
6.46954e-06
1.18067e-05
1.20484e-05
1.18743e-05
1.23473e-05
6.07302e-06
7.02726e-06
7.27403e-06
1.20491e-05
1.24063e-05
4.61007e-06
1.16608e-05
1.23273e-05
1.23929e-05
4.20263e-06
4.15532e-06
4.25601e-06
1.04016e-05
1.22937e-05
1.23263e-05
5.74091e-06
1.19714e-05
1.23296e-05
5.34502e-06
5.91302e-06
1.24668e-05
4.2366e-06
4.68074e-06
1.10046e-05
1.22385e-05
6.87319e-06
1.23321e-05
4.66792e-06
1.13757e-05
5.82498e-06
9.66576e-06
4.70466e-06
1.24928e-05
5.53195e-06
4.82551e-06
5.88924e-06
5.49241e-06
5.55472e-06
5.62546e-06
1.11078e-05
5.58294e-06
6.55519e-06
4.63502e-06
4.80946e-06
1.1995e-05
4.47426e-06
1.18894e-05
9.74319e-06
6.49999e-06
9.28993e-06
1.07706e-05
5.60177e-06
1.21802e-05
1.13151e-05
4.29153e-06
5.11894e-06
5.17707e-06
5.24295e-06
5.19301e-06
4.30695e-06
4.34479e-06
4.3942e-06
4.45003e-06
5.0718e-06
1.22484e-05
4.25606e-06
6.19878e-06
1.23307e-05
5.10256e-06
1.20586e-05
5.20656e-06
9.64994e-06
1.17443e-05
1.24805e-05
5.07439e-06
9.18968e-06
1.01309e-05
5.87758e-06
4.87911e-06
5.45296e-06
4.59996e-06
5.49348e-06
4.90609e-06
1.23365e-05
7.97126e-06
4.87314e-06
1.23496e-05
4.41661e-06
4.48339e-06
4.83962e-06
1.19721e-05
4.50179e-06
9.05567e-06
5.55053e-06
5.46835e-06
9.71995e-06
7.74628e-06
1.22969e-05
1.23468e-05
4.97253e-06
1.13432e-05
4.65362e-06
4.45848e-06
1.23373e-05
1.01267e-05
1.21581e-05
5.20868e-06
1.04983e-05
4.05911e-06
1.2426e-05
1.14397e-05
9.54726e-06
1.20107e-05
1.17913e-05
4.28769e-06
9.84761e-06
3.88438e-06
9.27177e-06
1.01663e-05
8.98975e-06
1.23286e-05
1.02524e-05
1.23207e-05
1.19123e-05
1.19885e-05
1.06642e-05
1.2285e-05
4.10794e-06
1.18665e-05
7.58407e-06
1.17834e-05
1.23372e-05
1.22091e-05
1.11203e-05
1.2343e-05
1.19028e-05
9.34454e-06
1.24208e-05
1.23203e-05
1.23509e-05
1.23727e-05
1.21047e-05
1.24346e-05
1.18669e-05
1.24022e-05
1.23354e-05
1.21334e-05
1.19972e-05
1.09458e-05
1.23316e-05
9.72205e-06
1.20908e-05
1.23203e-05
1.06893e-05
1.22935e-05
1.21272e-05
1.16736e-05
8.7843e-06
1.20898e-05
1.23026e-05
1.13066e-05
1.05323e-05
1.22862e-05
1.1523e-05
1.23906e-05
1.01229e-05
1.0412e-05
1.22682e-05
1.20663e-05
1.23083e-05
9.97865e-06
1.23776e-05
9.18106e-06
8.53288e-07
8.82456e-07
8.31492e-07
8.41751e-07
8.51852e-07
3.61068e-06
3.6515e-06
3.69819e-06
1.17105e-05
1.0231e-05
1.06575e-05
1.18688e-05
1.20384e-05
1.00863e-05
1.22517e-05
9.50721e-06
1.23726e-05
1.23468e-05
1.29085e-05
7.78377e-06
1.06298e-05
1.24564e-05
1.0352e-05
1.24355e-05
1.1916e-05
1.23685e-05
1.23504e-05
1.22361e-05
1.14115e-05
1.23328e-05
9.30082e-06
1.1558e-05
1.23384e-05
1.19348e-05
1.21027e-05
1.2362e-05
1.10752e-05
9.53912e-06
1.23292e-05
9.48894e-06
1.06435e-05
1.22401e-05
3.76004e-06
3.09021e-07
3.08488e-07
3.14685e-07
3.03782e-07
1.16779e-05
2.87396e-07
1.15672e-05
1.20977e-05
8.20155e-06
1.23397e-05
1.08773e-05
1.19291e-05
1.21227e-05
3.74751e-06
9.08947e-06
1.22702e-05
7.254e-06
1.23492e-05
1.23441e-05
3.33241e-06
9.89629e-06
1.17503e-05
1.16591e-05
9.25922e-06
3.44327e-07
3.99968e-07
3.65815e-07
3.71564e-07
4.21976e-07
1.16372e-05
9.74146e-06
1.20517e-05
1.04877e-05
1.19957e-05
1.23218e-05
1.12442e-05
9.95912e-06
3.4884e-06
1.10262e-05
1.05371e-05
1.12848e-05
8.79162e-06
1.23477e-05
1.24558e-05
1.24423e-05
1.22241e-05
8.89163e-06
1.24263e-05
1.23421e-05
1.2115e-05
8.98839e-06
1.23508e-05
1.14501e-05
3.9699e-07
3.87106e-07
3.55466e-07
3.46698e-07
3.56307e-07
1.23113e-05
1.23003e-05
1.227e-05
3.23224e-07
3.32495e-07
3.40067e-07
3.34567e-07
3.44709e-07
9.81794e-06
9.17441e-06
1.19452e-05
7.74927e-06
1.21298e-05
1.23535e-05
1.00129e-05
1.20944e-05
1.0049e-05
9.89324e-06
1.18229e-05
1.16582e-05
1.17545e-05
1.19853e-05
9.38281e-06
1.22313e-05
1.23375e-05
1.23547e-05
1.19734e-05
1.2106e-05
1.19497e-05
1.1437e-05
1.15406e-05
1.23714e-05
1.23648e-05
1.23126e-05
1.23731e-05
1.23405e-05
1.22364e-05
8.63129e-06
9.74209e-06
8.99081e-06
1.05056e-05
1.18253e-05
1.23723e-05
9.37807e-06
1.19807e-05
1.02884e-05
1.20675e-05
1.19227e-05
1.23352e-05
1.07692e-05
9.97909e-06
1.24919e-05
1.23411e-05
1.23184e-05
6.40098e-06
1.1902e-05
1.19905e-05
1.03332e-05
3.70836e-06
1.23532e-05
1.22823e-05
1.1002e-05
1.23506e-05
4.41337e-06
1.2111e-05
1.13514e-05
7.55965e-06
1.18798e-05
1.2341e-05
1.18425e-05
1.2179e-05
8.49824e-06
3.90898e-06
1.10581e-05
9.96358e-06
8.83515e-06
9.38938e-06
8.59385e-06
1.06005e-05
1.22596e-05
1.06923e-05
1.12276e-05
1.23389e-05
1.21492e-05
1.23217e-05
9.65976e-06
1.20857e-05
7.99522e-06
7.89795e-06
7.80647e-06
5.33377e-07
1.23471e-05
1.23362e-05
1.21153e-05
1.23283e-05
1.12743e-05
5.01694e-07
5.50931e-07
5.15923e-07
5.26255e-07
1.11182e-05
1.12231e-05
1.20303e-05
1.09057e-05
1.22247e-05
1.23271e-05
1.2061e-05
1.20021e-05
1.23086e-05
1.03308e-05
1.23303e-05
1.23287e-05
1.23775e-05
1.12236e-05
1.21706e-05
1.23972e-05
1.21384e-05
1.23364e-05
1.24503e-05
1.15065e-05
8.421e-06
1.1861e-05
1.22077e-05
1.10363e-05
7.36994e-06
1.2361e-05
1.13305e-05
1.17351e-05
1.08067e-05
1.21166e-05
1.17485e-05
9.4674e-06
1.02104e-05
1.01777e-05
1.16044e-05
1.23342e-05
1.23278e-05
9.18979e-06
8.05984e-06
1.0794e-05
1.24573e-05
1.23017e-05
1.19803e-05
1.23729e-05
1.19204e-05
1.03674e-05
1.27977e-05
9.83108e-06
1.19345e-05
8.93488e-06
7.87143e-06
8.52275e-06
1.23389e-05
1.20125e-05
1.24639e-05
1.19022e-05
1.23398e-05
1.25229e-05
1.23004e-05
8.31711e-06
1.22459e-05
1.18402e-05
1.23431e-05
1.16642e-05
8.35856e-06
1.23344e-05
3.5203e-06
1.23045e-05
1.17019e-05
1.19034e-05
1.16574e-05
4.8815e-06
8.65776e-06
1.23322e-05
1.25496e-05
1.23598e-05
1.24414e-05
3.69682e-06
1.23435e-05
1.20725e-05
1.15822e-05
1.02117e-05
1.19005e-05
8.59002e-06
9.16007e-06
8.94416e-06
1.205e-05
8.71376e-06
8.70012e-06
1.85195e-06
5.31252e-06
5.24572e-06
5.1869e-06
1.24929e-05
1.21771e-05
1.23363e-05
8.98533e-06
1.22397e-05
1.13366e-05
1.23173e-05
1.00663e-05
1.23483e-05
1.21494e-05
1.21386e-05
3.5086e-06
3.46425e-06
3.42557e-06
9.73374e-06
1.23529e-05
1.18611e-05
1.02861e-05
1.22989e-05
7.8802e-06
9.00796e-06
1.21109e-05
7.15753e-07
6.87885e-07
6.58361e-07
1.17375e-05
1.96632e-06
1.23899e-05
1.1916e-05
5.85664e-06
6.75754e-07
1.17059e-05
1.19885e-05
8.60587e-06
8.81383e-06
1.19936e-05
1.21654e-05
8.0039e-06
8.45074e-06
8.65501e-06
8.9076e-07
1.07291e-05
1.2209e-05
9.13176e-06
9.00134e-06
1.15844e-05
4.64053e-06
1.07102e-05
6.82542e-06
5.0205e-06
1.22206e-05
1.22999e-05
8.80185e-07
1.22704e-05
8.42626e-06
8.22723e-06
1.04777e-05
6.95159e-06
1.11035e-05
7.55423e-06
1.22224e-05
1.56238e-06
1.22299e-05
8.28598e-06
1.23479e-05
7.17956e-06
1.16066e-05
1.66125e-06
1.62186e-06
1.64005e-06
1.64473e-06
1.15093e-05
3.23491e-06
9.88151e-06
2.34088e-06
1.4587e-06
8.16248e-06
2.19491e-06
1.06662e-05
1.19482e-05
9.9063e-06
3.55773e-06
7.62194e-06
1.08621e-05
1.22201e-05
1.19306e-05
8.58528e-06
1.23642e-05
1.23591e-05
3.51771e-06
3.47348e-06
3.43444e-06
1.19028e-05
1.24465e-05
4.07333e-06
4.02197e-06
3.97712e-06
7.66074e-06
7.46157e-06
7.36937e-06
7.28541e-06
2.23696e-06
1.19282e-05
1.31805e-06
8.47504e-06
1.23323e-05
3.28573e-06
1.50967e-06
1.22816e-05
1.23262e-05
2.5063e-06
1.24468e-05
1.23458e-05
1.12131e-05
1.20946e-05
1.85289e-06
1.80898e-06
1.82935e-06
3.14518e-06
1.65459e-06
1.98407e-06
1.95901e-06
1.93707e-06
1.17015e-05
1.16324e-05
2.59472e-06
2.75042e-06
2.68533e-06
2.71576e-06
3.57089e-06
1.5928e-06
1.23572e-05
2.36742e-06
2.31138e-06
2.33754e-06
1.20209e-05
1.19593e-05
1.08198e-06
1.18946e-05
1.21933e-05
2.16989e-06
1.23504e-05
1.23473e-05
1.24088e-06
1.22516e-06
1.21146e-06
1.22971e-06
8.72919e-06
1.20724e-05
1.16616e-05
1.06818e-06
8.62485e-06
8.19182e-06
2.19316e-06
1.1947e-05
1.28166e-06
3.37218e-06
3.28995e-06
1.22714e-05
1.11779e-05
1.51654e-06
3.13441e-06
3.06022e-06
3.095e-06
4.22374e-06
8.36539e-06
3.27026e-06
1.23071e-05
3.56783e-06
2.70403e-06
1.83519e-06
1.81239e-06
1.65234e-06
1.4621e-06
2.23627e-06
2.18332e-06
2.20793e-06
1.20124e-05
2.19078e-06
2.13894e-06
2.16313e-06
6.05278e-06
2.83864e-06
1.96745e-06
4.11667e-06
2.55839e-06
2.49784e-06
2.52612e-06
1.71442e-06
2.95606e-06
2.78498e-06
3.79622e-06
3.83947e-06
3.88826e-06
2.27047e-06
3.0967e-06
1.22399e-05
2.91505e-06
1.04969e-05
1.23733e-05
3.67635e-06
3.29549e-06
3.16973e-06
4.12312e-06
1.23128e-05
4.10919e-06
3.4771e-06
1.84004e-06
2.17519e-06
2.12369e-06
2.14772e-06
2.61977e-06
2.58664e-06
2.55776e-06
1.04044e-05
3.2772e-06
3.24049e-06
3.31906e-06
2.49249e-06
2.89614e-06
1.21781e-06
1.17935e-05
2.32425e-06
1.23316e-05
3.8921e-06
1.23546e-05
2.9417e-06
2.87208e-06
2.90466e-06
5.20495e-06
1.23366e-05
1.14196e-05
1.20687e-05
9.48108e-06
1.26358e-06
1.23415e-05
2.04495e-06
2.01898e-06
1.99651e-06
3.87638e-06
1.22875e-05
2.42854e-06
2.39779e-06
2.37104e-06
4.05741e-06
3.09688e-06
1.20424e-06
3.00348e-06
2.96554e-06
2.93243e-06
1.27277e-06
1.40412e-06
1.65181e-06
1.2339e-05
1.17665e-05
3.29177e-06
1.21995e-05
2.89256e-06
3.48522e-06
2.5335e-06
1.23469e-05
3.32624e-06
3.2475e-06
3.28444e-06
1.8655e-06
1.77993e-06
3.16479e-06
2.37097e-06
1.0505e-05
3.03625e-06
3.9396e-06
1.41724e-06
2.02399e-06
2.81218e-06
2.74564e-06
2.77664e-06
2.15326e-06
1.79538e-06
2.76541e-06
1.22046e-05
1.20077e-05
1.20117e-05
1.2497e-06
3.10488e-06
1.20187e-05
2.74961e-06
1.17205e-05
3.17987e-06
1.15467e-05
3.93874e-06
2.15493e-06
1.86228e-06
2.90797e-06
1.23075e-05
5.36235e-07
5.80775e-07
5.58432e-07
3.02507e-06
2.048e-06
3.69102e-06
5.40301e-07
1.1207e-06
1.23481e-05
2.90801e-06
2.88319e-06
2.9025e-06
1.9305e-06
1.9522e-06
1.97733e-06
3.5449e-06
2.9658e-06
2.00725e-06
3.85993e-06
3.86668e-06
3.10002e-06
1.95719e-06
1.06639e-05
8.38705e-06
3.82195e-06
2.22153e-06
2.0436e-06
1.38596e-06
5.07913e-06
1.23079e-05
2.90434e-06
3.19637e-06
3.12077e-06
3.15603e-06
2.1982e-06
1.73103e-06
2.97515e-06
1.09944e-05
3.36914e-06
3.1516e-06
2.7757e-06
1.19228e-05
3.35517e-06
6.63719e-07
1.79163e-06
1.76897e-06
1.74918e-06
1.77564e-06
7.63067e-06
8.90027e-07
3.42619e-06
1.21477e-05
4.06477e-06
1.23137e-05
5.48813e-06
1.2316e-05
2.57525e-06
2.54743e-06
4.24842e-06
3.92463e-06
1.04736e-05
3.38778e-06
3.34506e-06
3.30766e-06
5.1146e-06
2.68766e-06
8.6219e-06
8.83078e-06
4.73994e-06
4.79374e-06
4.85476e-06
2.69383e-06
1.18684e-05
2.9515e-06
3.09138e-06
2.36882e-06
9.50212e-07
9.81759e-07
1.06051e-05
3.08127e-06
9.29831e-07
3.43177e-06
3.03009e-06
4.08973e-06
6.8052e-07
6.68947e-07
6.63735e-07
7.01878e-07
3.55198e-06
6.86661e-07
6.79749e-07
6.72202e-07
7.09773e-07
6.87572e-07
3.73581e-06
1.17806e-05
2.86583e-06
2.89821e-06
2.93532e-06
4.28053e-06
1.20659e-05
1.21083e-05
2.5854e-06
5.50349e-06
5.4343e-06
5.37337e-06
2.71765e-06
1.17571e-05
1.23482e-05
4.54252e-06
4.65258e-06
4.59429e-06
1.21388e-06
1.19416e-06
1.20782e-06
1.22321e-06
5.7268e-06
1.16664e-05
1.08551e-05
1.18771e-05
2.95932e-06
4.7537e-06
3.35356e-06
7.85545e-06
3.48995e-06
2.37121e-06
2.63394e-06
1.25749e-05
1.37032e-06
1.05329e-05
1.17412e-05
1.17437e-05
2.51947e-06
4.75542e-06
1.18757e-05
4.11423e-06
2.72274e-06
2.63991e-06
4.10887e-06
1.22949e-05
9.5925e-06
9.36372e-06
1.25769e-06
4.06865e-06
2.72428e-06
3.23653e-06
9.61925e-06
4.79014e-06
7.65503e-06
7.56118e-06
7.47427e-06
3.09043e-06
3.37505e-06
4.5659e-06
1.14409e-05
1.15068e-05
9.15459e-07
1.1647e-05
1.10883e-06
1.1534e-06
9.92655e-07
9.57947e-07
1.61369e-06
4.50248e-06
2.01465e-06
1.08067e-06
8.10866e-06
2.4919e-06
1.04123e-06
3.71054e-06
3.66387e-06
3.62271e-06
3.75511e-06
3.89889e-06
1.17251e-05
3.75099e-06
1.238e-05
1.58664e-06
1.16862e-05
3.43138e-06
1.22882e-05
8.77923e-06
3.12746e-06
4.97617e-06
1.23e-05
6.23916e-06
4.46599e-06
3.71333e-06
2.09494e-06
4.60055e-06
9.20519e-06
3.47832e-06
1.2738e-06
1.32396e-06
3.1852e-06
4.42073e-06
1.24468e-05
4.21737e-06
4.30584e-06
2.53226e-06
1.46206e-06
4.8829e-06
1.07039e-05
4.95275e-06
2.02806e-06
1.20899e-05
5.46586e-06
5.06831e-06
1.80854e-06
3.94893e-06
5.09039e-06
1.32521e-06
2.29215e-06
4.95001e-06
1.1624e-05
1.23011e-05
1.21154e-06
1.23505e-05
1.23298e-05
6.53453e-06
1.37795e-06
1.39358e-06
1.41141e-06
1.39937e-06
1.08558e-06
1.05964e-06
1.07156e-06
1.07541e-06
5.08449e-06
2.98783e-06
1.21865e-05
3.31774e-06
5.39786e-06
3.13627e-06
3.17181e-06
3.21229e-06
4.66335e-06
7.05562e-07
4.84094e-06
5.35109e-06
1.2023e-05
5.22636e-06
1.24064e-05
1.1206e-05
1.15332e-05
1.577e-06
1.55537e-06
1.57278e-06
1.59308e-06
1.23365e-05
3.44779e-06
1.17792e-05
1.19945e-05
4.02525e-06
8.87363e-07
8.52873e-07
8.38703e-07
8.58974e-07
8.48199e-07
5.86179e-06
3.76128e-06
2.01745e-06
2.34436e-06
4.84624e-06
1.44353e-06
1.19425e-05
1.53524e-06
8.70259e-06
8.4972e-06
2.76031e-06
9.76065e-06
2.10136e-06
2.34471e-06
1.23262e-05
2.92192e-06
9.67704e-06
2.24501e-06
2.76332e-06
2.79462e-06
2.8303e-06
2.80367e-06
5.63272e-06
1.23187e-05
1.07421e-05
2.98606e-06
6.16843e-06
4.78885e-06
1.23348e-05
1.20971e-05
3.37406e-06
4.30965e-06
4.69317e-06
1.0382e-06
1.02042e-06
1.03208e-06
1.04501e-06
8.43792e-06
8.64229e-06
8.94992e-07
9.22117e-07
9.58692e-07
9.74188e-06
8.65103e-07
5.33343e-06
1.07963e-06
7.11062e-06
1.9128e-06
4.98247e-06
4.6582e-06
2.37839e-06
5.16352e-06
3.76498e-06
5.22128e-06
1.23378e-05
5.28849e-06
1.23235e-05
9.00009e-06
2.15598e-06
5.08198e-06
8.124e-06
1.17384e-05
5.27296e-06
2.38706e-06
1.28566e-06
2.02503e-06
3.02338e-06
1.70605e-06
1.38759e-06
7.43152e-06
9.75472e-06
2.01756e-06
1.23503e-05
1.06238e-05
5.15163e-06
2.52594e-06
1.63694e-06
5.66379e-06
1.20146e-05
1.10112e-06
5.03461e-06
5.53778e-06
8.58715e-07
1.23133e-05
6.03302e-06
5.1433e-06
1.2077e-05
8.89483e-06
5.71436e-06
1.23303e-05
4.88639e-06
1.12777e-05
1.77297e-06
5.03601e-06
7.62022e-06
1.06647e-06
1.05297e-06
1.04122e-06
1.05677e-06
1.23044e-05
3.25904e-06
3.36873e-06
7.25596e-07
7.07924e-07
7.16581e-07
7.51267e-07
7.24426e-07
1.20097e-05
1.19421e-05
5.47838e-06
5.35008e-06
5.52426e-06
1.39148e-06
6.42044e-06
1.2283e-05
5.21251e-06
5.40867e-06
3.91e-06
3.86086e-06
3.81745e-06
1.64484e-06
3.62945e-06
2.83709e-06
6.05246e-06
8.33449e-06
2.58894e-06
2.61318e-06
1.21274e-05
1.18587e-05
5.4289e-06
5.28108e-06
1.21581e-05
5.40993e-06
1.64149e-06
7.26539e-06
7.24579e-06
1.23312e-05
2.77658e-06
5.30575e-06
1.192e-05
2.71485e-06
1.60309e-06
1.84051e-06
1.4552e-06
1.43455e-06
1.45067e-06
1.46943e-06
2.95006e-06
2.87444e-06
5.68785e-06
8.58926e-06
1.85277e-06
1.84732e-06
1.82684e-06
1.87109e-06
6.86619e-06
3.01925e-06
3.31935e-06
3.35689e-06
3.39982e-06
1.17027e-05
5.86616e-06
1.23262e-05
1.09772e-06
3.40428e-06
6.90468e-06
2.79927e-06
5.90715e-06
1.23716e-05
6.78998e-06
1.14747e-06
1.18785e-06
1.17901e-05
1.18847e-05
3.21703e-06
3.77457e-06
1.21667e-05
5.67522e-06
1.2605e-05
5.59659e-06
5.8336e-06
2.23883e-06
9.41959e-06
9.4582e-06
1.02706e-05
5.63331e-06
5.56266e-06
5.5001e-06
3.16393e-06
2.97773e-06
3.2982e-06
4.15447e-06
4.10198e-06
4.05624e-06
6.58923e-06
1.19786e-05
6.3703e-06
2.37727e-06
1.28269e-07
1.27769e-07
1.16939e-07
1.25237e-07
1.2677e-07
1.22042e-07
1.21901e-07
1.2092e-07
1.19417e-07
1.19267e-07
5.82566e-06
5.75243e-06
5.68792e-06
1.21493e-05
1.49206e-06
1.1789e-05
3.44686e-06
2.41259e-06
1.19759e-05
2.30833e-06
1.14377e-05
9.27543e-06
3.96293e-06
3.86924e-06
3.91296e-06
8.63104e-06
1.18016e-05
1.81676e-06
1.21584e-05
1.23363e-05
6.25012e-06
3.88033e-06
1.03849e-06
1.21314e-05
7.17861e-06
4.41155e-06
3.61089e-06
6.2287e-06
5.91341e-06
1.16264e-05
1.16934e-05
1.22257e-05
1.23333e-05
6.10032e-06
1.21125e-05
1.19289e-05
1.22558e-05
2.3781e-06
2.52601e-06
6.05748e-06
2.40501e-06
1.22242e-05
3.58078e-06
3.53564e-06
3.49612e-06
4.54364e-06
4.48653e-06
4.43619e-06
1.18064e-05
1.24488e-05
1.34563e-06
4.89277e-06
2.80287e-06
3.4995e-06
3.36798e-06
2.79394e-06
2.97411e-06
7.09424e-06
4.89488e-06
1.23013e-05
4.24338e-06
3.7612e-06
1.1336e-05
3.64399e-06
1.22453e-05
2.9854e-06
8.31255e-06
2.0576e-06
1.23364e-05
6.60751e-06
2.49054e-06
2.51865e-06
2.55095e-06
8.56179e-06
4.05155e-06
4.92345e-06
7.24182e-06
3.25951e-06
3.29644e-06
3.33848e-06
2.42135e-06
6.4253e-06
3.52566e-06
4.73813e-06
4.67866e-06
4.62607e-06
9.93295e-06
8.16119e-06
3.40961e-06
1.16905e-05
4.03977e-06
7.17311e-07
6.64251e-06
5.60751e-06
7.56061e-06
4.49757e-06
4.44133e-06
4.39115e-06
2.98728e-06
4.64715e-06
3.41637e-06
2.65526e-06
6.44508e-06
3.44765e-06
1.20019e-05
1.09987e-05
1.19235e-05
4.20327e-06
6.7409e-06
4.6183e-06
1.1295e-05
1.97882e-06
1.22739e-05
1.90323e-06
9.37298e-06
3.05148e-06
8.45954e-06
8.55274e-06
8.35099e-06
1.15562e-05
1.23269e-05
9.97984e-06
4.2035e-06
2.91894e-06
2.88621e-06
2.95615e-06
6.9801e-06
1.22673e-05
1.17264e-05
4.28758e-06
3.9607e-06
3.5677e-06
2.62927e-06
3.96403e-06
1.20395e-05
7.33128e-07
7.80727e-07
7.53589e-07
7.23114e-07
6.32691e-06
2.04078e-06
3.24874e-06
7.02436e-06
3.10714e-06
6.01748e-06
5.94181e-06
5.87527e-06
4.0136e-06
1.19688e-05
3.62704e-06
3.69402e-06
7.43057e-06
6.83661e-06
3.07276e-06
3.10758e-06
3.1472e-06
2.99254e-06
1.24902e-05
1.47463e-06
3.29986e-06
3.92818e-06
1.19397e-05
3.8422e-06
8.30324e-06
1.22662e-05
1.18721e-05
3.03638e-06
1.19752e-05
8.05423e-06
7.37099e-06
1.57019e-06
1.51188e-06
1.9789e-06
8.58785e-06
1.23355e-05
4.3064e-06
4.20447e-06
4.25248e-06
4.86904e-06
4.75386e-06
4.80798e-06
3.68994e-06
1.19679e-05
4.01962e-06
4.00479e-06
5.67332e-06
3.17751e-06
2.60224e-06
3.20386e-06
1.97347e-06
1.95139e-06
1.9987e-06
3.38633e-06
1.23771e-05
4.01164e-06
7.05637e-06
1.19972e-05
3.50366e-06
8.25843e-06
4.14745e-06
2.8528e-06
3.0051e-06
2.93013e-06
1.65562e-06
7.39716e-06
6.00405e-06
7.28988e-06
8.83143e-06
1.05113e-05
4.35977e-06
7.26424e-06
1.21306e-05
7.20984e-06
8.25043e-06
5.87081e-06
4.50725e-06
7.74834e-06
6.26777e-06
1.23389e-05
3.71143e-06
1.16967e-05
3.6543e-06
1.05721e-05
3.72427e-06
1.9799e-06
1.23744e-05
8.45271e-06
1.22011e-05
9.40258e-06
3.6672e-06
3.10492e-06
5.59856e-06
6.08127e-06
6.00474e-06
5.93762e-06
1.00025e-05
7.48414e-06
1.16646e-05
1.27114e-05
2.68912e-06
6.20283e-06
3.81622e-06
5.27695e-06
1.06935e-06
3.62315e-06
5.49761e-06
1.15986e-05
7.58795e-06
1.08765e-05
1.23244e-05
1.25949e-06
3.19483e-06
1.19439e-05
2.05884e-06
1.18136e-05
5.05897e-06
4.99541e-06
4.93933e-06
5.25691e-06
4.02113e-06
6.99349e-06
3.97098e-06
1.20333e-05
4.31921e-06
1.04179e-05
1.71225e-06
6.86291e-06
8.88823e-06
1.01642e-05
6.67128e-06
6.58778e-06
6.51372e-06
4.35839e-06
6.46572e-06
6.27633e-06
6.19739e-06
6.12809e-06
8.85916e-06
4.51607e-06
5.75602e-06
7.05099e-06
2.69875e-06
2.72937e-06
2.76416e-06
1.19661e-05
1.21642e-05
6.80929e-06
1.1981e-05
8.95047e-06
8.73944e-06
6.60177e-06
2.33453e-06
6.6216e-06
6.53914e-06
6.46497e-06
6.41291e-06
6.33271e-06
6.26121e-06
7.63493e-06
2.73892e-06
4.5498e-06
1.21602e-05
1.04973e-05
1.22564e-05
1.23194e-05
8.62857e-06
7.78604e-06
2.03839e-06
2.02622e-06
7.98371e-06
1.23259e-05
5.89784e-06
5.69554e-06
5.62387e-06
5.56092e-06
1.01269e-05
9.12625e-06
1.13653e-05
6.10206e-06
1.78076e-06
9.66638e-06
5.17404e-06
3.2272e-06
1.14834e-05
2.32884e-06
2.30294e-06
2.35879e-06
1.23465e-05
3.05275e-06
3.0873e-06
3.12678e-06
4.10007e-06
2.81522e-06
1.64484e-06
3.30266e-06
1.20384e-05
5.55992e-06
3.94365e-06
2.50915e-06
2.16003e-06
8.19063e-06
7.28691e-07
7.07173e-07
6.97987e-07
6.90822e-07
6.9815e-07
1.16814e-05
1.60488e-06
5.55207e-06
7.41487e-06
1.19087e-05
4.55704e-06
7.20907e-06
7.11995e-06
7.0387e-06
8.97298e-06
1.16446e-05
1.16731e-05
7.22177e-06
9.89859e-06
6.63288e-06
7.01655e-06
6.92949e-06
6.85075e-06
9.94126e-06
4.83022e-06
7.06394e-06
9.12332e-06
6.94393e-06
6.8676e-06
6.78183e-06
6.7054e-06
5.41659e-07
6.33605e-06
3.67862e-06
1.233e-05
2.31121e-06
4.59433e-06
2.54666e-06
2.36067e-06
1.23234e-05
7.89038e-06
4.5512e-06
6.14535e-06
1.9163e-06
3.50677e-06
3.54632e-06
3.59171e-06
2.71658e-06
9.27443e-06
1.23462e-05
1.98168e-06
6.35131e-06
9.09596e-06
2.36047e-06
6.08339e-06
2.83089e-06
6.24794e-06
6.61377e-06
1.04725e-05
3.90991e-06
7.7871e-06
2.67737e-06
2.70758e-06
2.74229e-06
1.21707e-05
1.2306e-05
1.8334e-06
1.23772e-05
1.22834e-05
6.16351e-06
4.37853e-06
1.23322e-05
5.78806e-06
2.55465e-06
1.23276e-05
1.06965e-05
1.20965e-05
5.8889e-06
2.78137e-06
1.96675e-06
1.23256e-05
1.26125e-05
3.17814e-06
9.57346e-06
1.21455e-05
1.39614e-06
1.78805e-06
1.76268e-06
1.78253e-06
1.80541e-06
1.04769e-05
3.27932e-06
1.22483e-05
1.17804e-05
7.17355e-06
1.08126e-05
2.40474e-06
3.56394e-06
2.43421e-06
6.73571e-06
6.9708e-06
2.115e-06
1.58589e-06
1.44911e-06
6.29326e-06
1.0247e-05
4.68347e-06
8.49593e-06
1.03453e-05
6.5714e-06
6.93157e-06
6.69033e-06
3.60502e-06
2.40655e-06
1.22867e-05
2.54896e-06
1.41268e-06
1.39264e-06
1.4083e-06
1.4264e-06
9.18249e-06
3.63962e-06
2.19577e-06
9.72545e-06
2.17518e-06
6.99731e-06
1.17825e-05
3.51425e-06
8.98156e-06
5.12113e-06
5.00004e-06
5.05685e-06
7.465e-06
9.49428e-06
1.19229e-05
6.47466e-06
6.95681e-06
7.26316e-06
7.17338e-06
7.09165e-06
2.79562e-06
2.99289e-06
7.57682e-06
1.19426e-05
6.6613e-06
8.13462e-06
8.24764e-06
8.0533e-06
5.9644e-06
1.17413e-05
6.48941e-06
1.04763e-05
1.22006e-05
1.24695e-05
2.51191e-06
2.54038e-06
2.57279e-06
1.10813e-05
2.03574e-06
2.01307e-06
2.06186e-06
2.04225e-06
7.32513e-06
8.82193e-06
7.5367e-06
1.23811e-05
1.09044e-05
1.38827e-06
1.38497e-06
1.40287e-06
1.3697e-06
9.40483e-07
9.11764e-07
9.00001e-07
8.90192e-07
9.0116e-07
2.61965e-06
1.0188e-05
7.77815e-06
1.22962e-05
1.04504e-05
1.05031e-05
7.79701e-06
1.23638e-05
2.57239e-06
1.23381e-05
7.60888e-06
7.51661e-06
7.42903e-06
1.22627e-05
7.28114e-06
7.33636e-06
9.33873e-06
5.01415e-06
1.23682e-05
1.24928e-05
2.32667e-06
2.353e-06
2.38306e-06
1.14268e-05
1.20005e-05
5.65575e-06
7.08486e-06
7.51657e-06
3.18246e-06
1.2257e-05
1.23243e-05
2.41936e-06
1.25444e-06
1.23359e-05
6.71557e-06
8.33061e-06
8.47732e-06
6.67559e-06
3.37094e-06
1.76695e-06
1.74271e-06
1.76226e-06
1.78498e-06
1.23346e-05
9.5405e-06
2.14535e-06
8.38989e-06
7.89586e-06
1.62746e-06
2.2429e-06
1.23329e-05
2.14074e-06
2.11698e-06
2.16831e-06
1.23263e-05
1.01993e-05
3.11865e-06
2.949e-06
2.98241e-06
3.02049e-06
2.2216e-06
7.19982e-06
5.44064e-06
5.37228e-06
5.31198e-06
1.0231e-05
7.93781e-06
1.03292e-05
8.79895e-06
1.19721e-05
3.56434e-06
9.532e-06
7.83435e-06
9.76561e-06
7.65607e-06
2.29629e-06
1.72994e-06
5.99627e-06
8.11532e-06
1.23375e-05
1.22665e-05
1.23111e-05
1.21415e-05
2.34511e-06
1.11635e-05
9.31928e-06
1.21074e-05
1.21799e-05
1.57572e-06
1.5934e-06
1.61388e-06
1.598e-06
1.23407e-05
8.72489e-06
1.01764e-05
7.68709e-06
8.76534e-07
2.82665e-06
2.35507e-06
9.21544e-06
1.2045e-05
2.09552e-06
8.0936e-06
1.01026e-05
9.51927e-06
1.23056e-05
4.23813e-06
1.18115e-05
1.20614e-05
9.71741e-06
1.21458e-05
1.85135e-06
1.84137e-06
1.2348e-05
2.72282e-06
8.87665e-06
8.66716e-06
2.61277e-06
2.57535e-06
2.60447e-06
2.63777e-06
1.19453e-05
1.19838e-05
2.20831e-06
1.22118e-05
4.11068e-06
4.01337e-06
4.05913e-06
3.17139e-06
1.90394e-06
3.06664e-06
1.2289e-05
8.13973e-06
1.16309e-05
1.96475e-06
1.05487e-05
1.82382e-06
1.23462e-05
8.78116e-06
2.00569e-06
8.85763e-06
8.64884e-06
8.83203e-06
2.42278e-06
1.15647e-05
1.18482e-05
2.57581e-06
8.40477e-06
1.66547e-06
8.66532e-06
1.19382e-05
9.779e-06
1.23902e-05
1.20934e-05
1.11635e-05
1.18099e-05
5.80317e-06
1.23263e-05
1.23271e-05
4.68024e-06
4.62164e-06
4.56951e-06
2.6092e-06
8.44569e-06
1.24377e-05
1.23466e-05
7.74536e-06
1.19823e-05
1.10305e-05
1.23488e-05
1.18471e-05
1.19411e-05
1.03524e-05
9.38069e-06
8.35409e-06
1.16945e-05
1.11185e-05
8.09231e-06
8.18533e-06
7.99243e-06
1.22163e-05
8.79069e-06
2.32718e-06
1.23074e-05
1.77639e-06
9.72455e-06
8.09877e-06
8.79917e-06
1.24764e-05
6.20798e-06
6.1299e-06
6.06128e-06
8.1742e-06
1.21457e-06
9.41195e-06
9.19019e-06
2.67986e-06
8.40554e-06
8.69353e-06
1.23551e-05
1.20218e-05
1.21903e-05
1.17898e-05
1.22187e-05
1.04171e-06
1.20604e-05
6.39876e-06
1.24327e-05
8.26624e-06
8.46607e-06
1.19609e-05
8.81844e-06
1.13716e-05
1.23443e-05
1.01632e-05
1.23618e-05
1.2007e-05
1.22399e-05
1.57865e-06
8.80337e-06
1.04474e-05
1.247e-05
1.22104e-05
7.26259e-06
7.02182e-06
9.80975e-06
1.24628e-05
8.36567e-06
6.82079e-06
6.73596e-06
6.65951e-06
1.17568e-05
1.59868e-06
1.56081e-06
1.57843e-06
1.58421e-06
1.23772e-05
7.36957e-06
1.23453e-05
1.21511e-05
7.6895e-06
1.17735e-05
1.5125e-06
1.17995e-05
1.45367e-06
2.43999e-06
1.39739e-06
1.19782e-05
8.27514e-06
8.36455e-06
8.16736e-06
1.20637e-05
1.06758e-05
1.1462e-05
1.24683e-05
1.2329e-05
1.13369e-05
1.23602e-05
1.13757e-05
8.18267e-06
2.53211e-06
1.15573e-05
1.23864e-05
1.2e-05
9.35844e-06
9.13887e-06
1.18383e-05
1.22167e-05
1.14725e-05
1.23322e-05
3.82518e-06
1.23741e-05
1.15689e-05
4.16231e-06
1.15577e-05
1.23157e-05
8.91785e-06
9.48603e-06
8.4632e-06
8.26372e-06
8.35227e-06
1.22932e-05
9.84807e-06
1.20577e-05
9.67936e-06
1.02179e-06
1.24862e-05
1.63772e-06
1.65595e-06
1.67736e-06
1.65964e-06
2.17851e-06
9.03124e-06
1.14092e-05
2.23059e-06
1.23383e-05
8.54871e-06
1.18214e-05
1.23035e-05
8.51739e-06
1.05087e-06
1.0331e-06
1.04494e-06
1.05834e-06
9.04335e-06
8.83041e-06
1.04874e-05
9.38654e-06
9.73003e-06
1.26982e-06
1.23283e-05
1.23465e-05
1.23205e-05
1.23391e-05
5.69011e-06
1.21709e-05