/*--------------------------------*- C++ -*----------------------------------*\
  =========                 |
  \\      /  F ield         | OpenFOAM: The Open Source CFD Toolbox
   \\    /   O peration     | Website:  https://openfoam.org
    \\  /    A nd           | Version:  8
     \\/     M anipulation  |
\*---------------------------------------------------------------------------*/
FoamFile
{
    version     2.0;
    format      ascii;
    class       volVectorField;
    location    "3.4";
    object      U;
}
// * * * * * * * * * * * * * * * * * * * * * * * * * * * * * * * * * * * * * //

dimensions      [0 1 -1 0 0 0 0];

internalField   nonuniform List<vector> 
1642
(
(4.79578e-06 -5.5732e-06 1.09716e-26)
(0.00195845 0.00509765 1.0969e-20)
(0.0024354 0.0048412 6.41341e-21)
(0.00207933 0.00420825 3.49503e-20)
(0.000895297 1.57844e-05 1.5819e-21)
(0.000718148 0.000128706 4.04046e-20)
(0.00110552 0.000159965 9.86196e-21)
(0.00108628 0.000253593 -6.94552e-24)
(0.000680901 0.000474014 9.59535e-21)
(0.000835822 0.000253935 2.55156e-20)
(0.00262515 0.00307737 -1.90628e-20)
(0.000346827 0.000938005 -2.071e-20)
(0.000784079 0.000410469 2.51264e-20)
(0.000873654 0.000206588 -1.71179e-20)
(0.000477195 0.000393166 0)
(0.000669656 0.000467956 0)
(2.09403e-05 0.000246876 -1.34808e-20)
(-1.05099e-06 0.000208722 2.23334e-20)
(1.51543e-05 1.91676e-05 7.58711e-25)
(2.73051e-05 1.16812e-05 4.61372e-21)
(0.00088994 0.000113094 -6.54096e-21)
(0.00099688 0.000257842 7.50955e-21)
(0.000824201 0.000222099 0)
(0.00250947 6.59065e-05 -2.24842e-20)
(0.000340464 0.000235949 -3.7295e-20)
(2.10068e-05 0.000501746 -4.78428e-21)
(0.000806511 -0.000119534 1.46696e-20)
(8.73799e-05 0.000213031 0)
(0.00392482 0.00407935 6.37706e-22)
(0.00402343 0.00416731 2.45832e-22)
(0.00421058 0.00434943 -3.15747e-22)
(0.00104473 8.87581e-05 -1.14223e-20)
(0.000368238 0.00125836 0)
(4.06576e-05 -4.65892e-05 -4.87595e-21)
(0.000355692 0.000221001 1.13404e-20)
(0.000376889 0.000428914 -2.12516e-21)
(0.00090883 0.000348216 -3.71617e-20)
(0.000940205 2.60105e-05 3.54644e-22)
(0.000410808 0.000336354 -1.2026e-24)
(0.000904248 0.000238098 -1.12082e-20)
(0.000773364 0.000215086 0)
(1.91823e-05 4.52862e-05 -2.62467e-21)
(3.4434e-05 8.73467e-06 0)
(0.00061746 0.00477379 -2.34661e-20)
(-0.00122878 4.44396e-05 -2.18164e-21)
(0.000735558 4.00712e-05 -2.46084e-21)
(0.000850396 1.50584e-05 7.32786e-22)
(0.000484292 0.000114407 -5.10328e-21)
(0.000358605 0.000120439 -1.43633e-20)
(0.000673201 0.000380841 -2.19893e-20)
(3.40053e-05 8.55225e-05 -5.39953e-21)
(0.000741212 0.000433762 -7.01397e-21)
(1.60808e-05 -6.40083e-06 3.82728e-21)
(0.000292229 0.00471996 0)
(0.00253934 0.00378355 -1.70477e-20)
(0.000559602 0.000483678 1.10653e-21)
(0.00109971 0.00018944 -4.98066e-21)
(0.00019654 1.19371e-05 -7.43827e-21)
(0.00122175 0.000438355 -2.99064e-20)
(0.000358179 -0.000343736 0)
(0.000260145 0.000144638 0)
(0.000930851 5.38355e-05 -1.39783e-21)
(8.98525e-05 -7.68937e-05 4.1011e-21)
(0.00144944 0.000177761 -2.09629e-20)
(7.29651e-05 0.000425139 1.72016e-20)
(5.58213e-05 9.64887e-06 1.27837e-21)
(0.00011008 0.000124635 0)
(4.92124e-05 1.78812e-05 -5.20284e-21)
(0.000423674 0.000531972 5.77472e-21)
(5.86109e-06 6.27886e-05 -4.8558e-21)
(0.0003185 0.000100305 -1.38587e-20)
(7.84176e-05 0.000279232 -1.52809e-20)
(0.000246022 7.07067e-05 1.83777e-20)
(0.000852103 3.11673e-05 1.42907e-21)
(0.00047758 0.000626362 9.06837e-21)
(0.00131836 0.00154393 -2.35681e-21)
(0.00407965 0.00424676 1.22122e-24)
(0.00389275 0.00405801 0)
(0.00379044 0.00395811 -3.2746e-22)
(0.000425597 0.000179022 6.52048e-21)
(5.82294e-05 -1.75422e-07 2.61982e-21)
(3.44659e-05 2.05867e-05 1.80753e-20)
(0.00111867 0.00035753 -1.93138e-20)
(0.000940892 0.000471581 1.20102e-20)
(-0.00193004 0.000301891 0)
(0.000386615 0.000604214 -4.3575e-21)
(0.000405819 0.000542835 -1.66755e-20)
(1.03722e-05 -9.51679e-05 0)
(0.000553684 0.000590003 4.25624e-21)
(3.39264e-05 -3.28018e-05 -1.96726e-21)
(0.00106751 0.000124 -7.82976e-21)
(0.000121418 0.000324257 3.16496e-20)
(0.000742153 0.000566463 -1.99589e-20)
(0.000448607 0.000454911 -8.64176e-21)
(0.000532821 0.00040502 -3.4132e-20)
(7.82853e-05 -0.000177693 -1.14222e-21)
(0.000796016 0.000153185 -2.76805e-20)
(0.000566174 0.000337072 2.93335e-20)
(0.00035052 0.000314812 1.72994e-20)
(0.000453093 0.000536681 -1.15006e-20)
(0.000404817 0.00059784 2.14106e-20)
(0.000514425 0.000784769 0)
(2.85742e-05 -0.000210572 9.5784e-21)
(0.00437235 0.00436956 -1.48405e-22)
(0.00417003 0.00417969 2.14289e-20)
(0.00407625 0.00408257 5.75436e-21)
(0.00415264 0.00386872 2.2927e-20)
(0.0040618 0.00378442 2.3784e-22)
(0.0043579 0.00401987 4.3938e-21)
(0.00417619 0.00384546 -1.35682e-22)
(0.00415266 0.00387143 7.12819e-21)
(0.0040826 0.0037521 -8.87592e-21)
(0.00434458 0.00405305 0)
(0.00437157 0.00401761 7.66399e-21)
(0.00418285 0.00384207 2.13591e-21)
(0.00417846 0.00384111 4.5972e-21)
(0.00436716 0.00401624 -1.4821e-21)
(0.00407217 0.00378182 0)
(0.00416262 0.0035877 0)
(0.00400894 0.00361934 9.94635e-21)
(0.00407935 0.00375269 -1.30571e-21)
(0.00410931 0.00291519 -2.84177e-20)
(0.00439755 0.00373522 0)
(0.000399327 0.000639841 4.22886e-21)
(0.000485123 0.000599782 0)
(0.000316695 -8.69999e-05 2.75346e-21)
(0.000948332 0.000251229 1.59265e-20)
(8.24385e-06 -6.38982e-05 0)
(0.000549094 0.000278281 5.40361e-21)
(0.000596814 0.000325414 -1.59209e-20)
(0.000413066 2.77871e-05 0)
(0.000216855 -0.000104207 -2.68758e-21)
(2.32211e-05 -4.21614e-05 -1.15308e-21)
(0.000801769 0.000165281 9.91033e-21)
(5.75143e-05 -1.0228e-05 -5.01359e-26)
(3.26126e-05 -5.8442e-05 1.20809e-21)
(0.00061087 0.000281401 -2.97802e-21)
(0.000322981 -3.37504e-06 2.96029e-21)
(0.000599898 0.00023267 0)
(0.000640019 0.000279818 0)
(3.12573e-05 0.00038623 9.21069e-21)
(5.82575e-05 2.0139e-05 -1.7372e-21)
(9.6762e-05 7.58372e-05 0)
(0.00032328 5.94409e-05 1.25356e-20)
(0.000568161 0.000457649 4.32907e-20)
(6.49789e-05 0.000217463 1.62264e-20)
(0.000765101 0.000121203 0)
(4.92146e-05 0.000130344 2.2364e-20)
(0.000759515 0.000175764 -2.83166e-21)
(0.000693773 0.000187616 4.67949e-20)
(0.000280921 0.000188562 1.87902e-20)
(0.000845712 4.57803e-05 4.25386e-21)
(6.6292e-05 -1.54295e-05 -2.45705e-21)
(0.000315919 0.000235898 0)
(0.00107878 -0.000110644 1.35343e-20)
(0.000797466 0.000161943 0)
(0.000847065 0.000147389 -2.32466e-21)
(4.5157e-06 2.27379e-05 -1.54519e-20)
(6.79272e-06 -4.5614e-05 -7.33126e-23)
(-1.46895e-05 0.000296023 0)
(8.91069e-05 7.28958e-05 4.23564e-20)
(6.61873e-05 5.07374e-05 -4.50539e-21)
(0.000140668 -4.20523e-05 1.22209e-21)
(0.000872606 0.000303913 0)
(5.65887e-06 -3.05025e-05 0)
(0.000842729 6.59375e-05 0)
(0.000848968 9.47912e-05 0)
(5.30439e-05 -1.9674e-05 -2.7176e-21)
(0.000872164 3.85973e-06 -6.17299e-21)
(2.26851e-05 -0.000194128 -2.26899e-21)
(-1.88106e-05 0.000303697 -2.28268e-20)
(-3.46192e-06 0.000176144 -1.97308e-20)
(5.11495e-06 4.87148e-05 4.78386e-21)
(1.46174e-06 0.000148124 2.00422e-20)
(0.000667262 -1.37746e-05 -7.24194e-21)
(2.26061e-05 -0.000115345 2.16633e-21)
(0.000780595 0.000236444 1.1493e-20)
(0.000355843 0.000145905 1.68694e-20)
(0.000605092 0.000226262 0)
(0.00054309 0.000503194 -4.36415e-21)
(0.000960616 0.000384847 1.00404e-20)
(3.99266e-05 2.02776e-05 1.61692e-20)
(0.000776542 0.000744555 4.34696e-21)
(3.64302e-06 3.26994e-05 7.73769e-21)
(3.80116e-06 0.000122613 0)
(0.000544061 0.000310336 1.19034e-20)
(0.000617308 9.40394e-05 1.05746e-21)
(4.96802e-05 -9.59333e-06 -1.07386e-20)
(0.00019749 -0.000185917 1.46369e-21)
(0.000916287 0.000329022 6.02287e-25)
(0.000479045 0.000489403 -4.4561e-26)
(0.000368481 0.000125886 -1.37201e-20)
(4.90443e-05 3.14727e-05 2.05802e-21)
(0.000299146 0.000278038 -9.04766e-21)
(0.000189672 -8.14542e-05 -2.58151e-21)
(0.000717582 -3.58949e-05 3.27078e-25)
(0.000395926 0.000622482 -1.02103e-21)
(5.06167e-05 -2.16937e-06 8.52827e-21)
(0.000296739 0.000433108 -2.14789e-20)
(0.000601047 0.000209395 3.65801e-20)
(6.38285e-05 1.06651e-05 -4.88223e-21)
(8.04473e-05 3.07073e-07 -3.05992e-22)
(0.000521781 0.000662294 -4.44611e-21)
(0.00063291 0.00043398 1.32975e-20)
(0.00102157 0.000136017 0)
(4.17407e-05 8.17574e-06 1.35205e-20)
(0.000397276 0.000221988 -1.0183e-20)
(0.00435522 0.00404439 -2.1176e-20)
(0.00408695 0.00376693 -9.36147e-21)
(0.00418225 0.0038587 -8.68877e-21)
(0.00436459 0.0040506 -1.31403e-20)
(0.00435171 0.00405208 0)
(0.00280173 0.00287091 5.22159e-21)
(0.00280049 0.00286992 -2.66535e-23)
(0.00408544 0.0037735 -9.47738e-21)
(0.00435746 0.0040461 7.4101e-21)
(0.00416908 0.00386781 -1.08135e-20)
(0.00435819 0.00404454 -7.26401e-21)
(0.00417995 0.00386459 8.87424e-21)
(0.00279118 0.00286286 0)
(0.00435709 0.00405074 0)
(0.0027896 0.00286229 -4.23594e-21)
(0.00435507 0.00405086 -6.5874e-21)
(0.00408543 0.00375993 -5.86973e-21)
(0.00435554 0.00404845 -1.73307e-20)
(0.00408775 0.00376073 0)
(0.0026149 0.00270818 -4.2958e-21)
(0.004416 0.0040258 -3.59579e-20)
(0.00280638 0.00284727 1.90019e-20)
(0.00266352 0.00275808 -8.23135e-21)
(0.00280132 0.00287058 -1.49972e-20)
(0.00267256 0.00274836 -1.10111e-20)
(0.00280087 0.00287053 1.22825e-20)
(0.00280279 0.0028551 -1.32831e-20)
(0.00280465 0.00287153 -1.24111e-22)
(0.00279119 0.0028625 9.89037e-21)
(0.00266966 0.00274764 1.56351e-20)
(0.00279441 0.00286673 2.56804e-20)
(0.00435326 0.00405056 -8.10225e-21)
(0.00417928 0.00385163 -3.90907e-21)
(0.0044876 0.00401482 2.7254e-20)
(0.0041691 0.00386879 -1.43738e-22)
(0.00435761 0.00404898 7.61394e-21)
(0.00480914 0.00408393 -1.8799e-20)
(0.00437169 0.00403805 3.94102e-21)
(0.00417509 0.00385303 1.44309e-21)
(0.00280191 0.00287164 7.87724e-21)
(0.00287649 0.00293279 -1.84229e-20)
(0.00407511 0.00378187 0)
(0.00436456 0.00402693 -1.40276e-21)
(0.00279003 0.00287841 2.93158e-21)
(0.00435234 0.00404657 -1.35417e-20)
(0.00410376 0.00377262 0)
(0.0042923 0.00384384 8.86532e-21)
(0.0043721 0.00402357 2.15562e-21)
(0.00418224 0.00384983 2.23647e-21)
(0.00408862 0.00376198 -2.57333e-21)
(0.00423146 0.00401725 1.95721e-20)
(0.0040703 0.00377879 1.21168e-20)
(0.00418279 0.0038491 -2.2071e-21)
(0.00406805 0.00378318 0)
(0.00416251 0.00393749 0)
(0.00418075 0.0039653 -1.64495e-20)
(0.00267553 0.00275968 3.01537e-21)
(0.00271261 0.00279942 -1.80367e-20)
(0.00416508 0.00391658 8.03011e-21)
(0.00408433 0.00376049 0)
(0.00416857 0.00387566 -1.28641e-20)
(0.00310928 0.0031105 -1.76099e-22)
(0.00416812 0.00387923 7.48852e-21)
(0.00279976 0.00286721 -8.18515e-21)
(0.00437138 0.00402445 -2.18438e-21)
(0.00261989 0.00271853 5.19764e-21)
(0.00406815 0.00378459 8.01389e-21)
(0.00436305 0.00404092 8.67754e-21)
(0.00436092 0.00392964 0)
(0.00269011 0.00274591 -3.05863e-20)
(0.00416731 0.00387109 1.41343e-20)
(0.0043533 0.00404606 6.95239e-21)
(0.00267494 0.00274203 1.5388e-22)
(0.00279604 0.00287767 -7.99873e-21)
(0.00265866 0.00275196 2.56509e-21)
(0.00279122 0.00285666 -6.90669e-21)
(0.00342056 0.00334539 -1.95442e-20)
(0.00435878 0.00402429 -2.37359e-21)
(0.0041805 0.00385767 0)
(0.002682 0.00274986 5.64714e-21)
(0.00406929 0.00378303 0)
(0.00267978 0.00275919 -2.92833e-21)
(0.00262365 0.00269158 1.90517e-20)
(0.00436987 0.00402841 0)
(0.00408481 0.00376655 7.70404e-21)
(0.00406987 0.003781 7.3119e-21)
(0.00437398 0.00403608 7.33141e-21)
(0.00277291 0.00287303 2.50165e-21)
(0.0026863 0.00275282 0)
(0.00277937 0.00287037 5.78755e-21)
(0.00292139 0.00291083 2.07606e-20)
(0.00298087 0.00295665 0)
(0.00416644 0.00387445 1.34622e-20)
(0.00408299 0.0037619 4.28553e-21)
(0.00276998 0.00287234 -1.72803e-21)
(0.00418183 0.00384948 -3.90213e-21)
(0.00262416 0.00271379 6.32253e-21)
(0.00265585 0.00275206 -5.17878e-21)
(0.00407066 0.00377784 -1.18497e-20)
(0.00262241 0.00264443 0)
(0.00260764 0.0026935 -1.53034e-20)
(0.00278279 0.00288618 1.70774e-21)
(0.00437095 0.00402395 -3.79835e-21)
(0.00266717 0.00276607 1.75573e-21)
(0.00266707 0.00276468 0)
(0.00280054 0.00286492 8.41513e-21)
(0.00331218 0.00328961 0)
(0.00268473 0.00274592 -2.18572e-20)
(0.00279433 0.0028835 -2.85904e-21)
(0.00261325 0.00269892 1.75163e-25)
(0.00261169 0.00270552 -8.56961e-21)
(0.0040871 0.00376151 -8.77855e-21)
(0.00435074 0.00402296 -1.80213e-21)
(0.00328929 0.00354843 -1.03317e-20)
(0.00279677 0.00284132 -4.76196e-21)
(0.00264812 0.00274251 0)
(0.00262797 0.00267766 1.71002e-20)
(0.00487264 0.00405 -1.91182e-20)
(0.00439225 0.00471347 9.97716e-21)
(0.00267329 0.00274656 0)
(0.0042461 0.00383817 8.46496e-21)
(0.00273808 0.00274976 4.8925e-22)
(0.00406795 0.00377876 0)
(0.00279726 0.00286958 -1.53741e-20)
(0.00263521 0.00269455 -3.25114e-20)
(0.00407943 0.00376204 -1.71425e-21)
(0.00418027 0.00385432 7.69398e-21)
(0.00435531 0.00404663 5.72041e-21)
(0.00436983 0.00402774 5.38489e-21)
(0.00262344 0.00271291 -1.8712e-21)
(0.00262311 0.00271013 3.25099e-21)
(0.00261486 0.00267695 0)
(0.00261836 0.00270949 3.97528e-21)
(0.00408544 0.00376533 0)
(0.00416793 0.00387224 -4.7735e-24)
(0.00413885 0.00376052 0)
(0.0026798 0.00273034 1.59371e-20)
(0.00436971 0.00402738 7.49414e-21)
(0.00267586 0.0027278 0)
(0.0034726 0.00346532 1.03832e-20)
(0.00352088 0.00348566 -2.97962e-20)
(0.00279415 0.00288083 0)
(0.0027911 0.00289151 0)
(0.00268556 0.00274508 -7.13322e-21)
(0.00263467 0.002695 -8.72967e-21)
(0.00408138 0.00376353 3.95264e-21)
(0.00426301 0.00420033 0)
(0.00417994 0.00385537 5.53421e-21)
(0.00433406 0.00401794 6.82684e-22)
(0.00267587 0.00276884 0)
(0.00414402 0.0038423 -2.43308e-21)
(0.00360833 0.00354417 7.26862e-23)
(0.00417735 0.0038583 6.93942e-21)
(0.00263215 0.00268742 -5.1278e-21)
(0.00268739 0.00274491 9.42981e-21)
(0.00435584 0.00405001 8.91536e-21)
(0.00416805 0.0038736 1.52663e-22)
(0.00416872 0.00387393 -4.58371e-21)
(0.00266416 0.0027546 3.70705e-21)
(0.00406753 0.003782 5.28997e-21)
(0.00279889 0.00286057 1.41864e-20)
(0.00407102 0.0037833 -1.01102e-20)
(0.00460959 0.00512274 0)
(0.00257224 0.00259163 -9.29632e-22)
(0.00262474 0.00268577 -6.66255e-21)
(0.00416596 0.00387181 -6.6412e-21)
(0.00418043 0.0038629 9.66485e-21)
(0.00267104 0.0027335 0)
(0.00524722 0.00451216 -1.91837e-20)
(0.00406841 0.00377961 -1.33555e-20)
(0.0028022 0.00286252 1.67102e-20)
(0.00262832 0.00268979 -8.52713e-21)
(0.00416773 0.00387967 1.52834e-20)
(0.00262278 0.00268525 0)
(0.002626 0.00269149 1.43798e-20)
(0.00262274 0.0027106 1.16047e-20)
(0.00267645 0.0027299 0)
(0.00417869 0.00386162 6.86067e-21)
(0.00437063 0.00403305 -1.23176e-20)
(0.00435468 0.00404477 -5.10755e-21)
(0.00436246 0.00402895 1.43892e-21)
(0.00435474 0.00404646 1.10909e-20)
(0.00434778 0.00405211 -1.42033e-20)
(0.00279894 0.0028639 0)
(0.00264258 0.0027025 -1.95569e-20)
(0.00262141 0.00267343 5.20003e-21)
(0.00417424 0.00385359 -1.47821e-21)
(0.00270379 0.0027946 -2.57153e-20)
(0.0026496 0.0027469 1.87742e-21)
(0.00281888 0.00283017 -1.0214e-20)
(0.00278132 0.00286864 -7.84019e-21)
(0.00416786 0.00387086 5.92144e-21)
(0.00437145 0.00403483 3.21789e-21)
(0.00262732 0.00269077 -9.0246e-21)
(0.0040705 0.00378484 0)
(0.0040698 0.00378307 4.39407e-20)
(0.00407951 0.00376162 2.99998e-21)
(0.00278087 0.00288233 -2.05521e-21)
(0.00260937 0.00270442 -2.56933e-21)
(0.0026174 0.00270921 2.61265e-21)
(0.0027997 0.00286924 2.9899e-20)
(0.00406779 0.00378518 1.62197e-20)
(0.00279489 0.00288623 6.21036e-21)
(0.00268175 0.00274885 6.45183e-21)
(0.00279378 0.00286346 -2.95821e-20)
(0.00263639 0.00269276 8.28497e-21)
(0.00408568 0.00376573 3.12796e-21)
(0.00263443 0.00269379 2.74206e-20)
(0.00407206 0.00378185 -1.83895e-20)
(0.00274395 0.00280131 -7.99594e-21)
(0.00277991 0.00287058 0)
(0.00263827 0.00269757 2.81947e-20)
(0.00416892 0.0038685 -5.68831e-21)
(0.00266514 0.00274992 0)
(0.00262134 0.00269091 -6.07062e-21)
(0.00266617 0.00276436 4.93543e-24)
(0.0040742 0.00375871 0)
(0.00408722 0.00376161 -2.70632e-21)
(0.00276626 0.00287016 4.57143e-21)
(0.00435669 0.00405166 6.30979e-21)
(0.00408968 0.00376079 -5.10465e-21)
(0.00416824 0.00387443 6.584e-21)
(0.00260746 0.00270321 -8.43486e-21)
(0.00406876 0.00378363 -1.52729e-20)
(0.00416847 0.0038998 -3.11433e-20)
(0.00416693 0.00388889 1.55213e-20)
(0.00266498 0.00274976 3.30307e-21)
(0.00278289 0.00287453 0)
(0.00406995 0.00377777 -2.77619e-20)
(0.00281553 0.00285854 0)
(0.00261688 0.00268578 6.74381e-21)
(0.00438123 0.0040351 8.77283e-21)
(0.00260906 0.00269528 4.71681e-21)
(0.00267802 0.00274821 6.71019e-21)
(0.00296009 0.00299776 9.26403e-21)
(0.0027938 0.00286687 1.25206e-22)
(0.00260999 0.00270379 -7.93116e-21)
(0.00261239 0.00270588 -5.59654e-21)
(0.00267523 0.00276074 -6.9642e-21)
(0.00437263 0.00402513 -2.51496e-21)
(0.00266325 0.00275715 3.93033e-21)
(0.00278318 0.0027488 -8.11046e-21)
(0.00418364 0.00385147 -2.58258e-21)
(0.00435653 0.00405028 -1.19477e-20)
(0.00428743 0.00381898 0)
(0.00416871 0.00387271 1.43157e-20)
(0.00262818 0.00268996 1.39477e-20)
(0.00279312 0.00286034 3.39068e-20)
(0.00279661 0.00286185 -3.32847e-20)
(0.0040439 0.00375549 -3.38872e-21)
(0.00267911 0.00275978 -9.61823e-21)
(0.00420835 0.00399501 7.91522e-21)
(0.00408614 0.00376723 0)
(0.00268221 0.00274962 1.79753e-20)
(0.0027614 0.00286338 -6.73617e-22)
(0.00407108 0.00378234 0)
(0.00263166 0.00269274 6.89544e-25)
(0.00435265 0.00404617 -2.50858e-20)
(0.00444089 0.00386506 -9.40958e-21)
(0.0050575 0.00428786 9.51276e-21)
(0.00435253 0.00405013 0)
(0.00406874 0.003783 8.16117e-21)
(0.00268798 0.0027545 6.33194e-21)
(0.0049627 0.00453589 0)
(0.00278459 0.00277639 0)
(0.00297907 0.00295005 -3.14744e-20)
(0.00263585 0.00269315 0)
(0.0042006 0.00376978 0)
(0.00263285 0.00269194 0)
(0.0026329 0.00269193 0)
(0.00260754 0.00269545 -1.75143e-21)
(0.0026062 0.00270138 1.97711e-21)
(0.00279559 0.00285599 1.75312e-20)
(0.0028031 0.0028707 2.29626e-20)
(0.00435495 0.00404539 -6.91263e-21)
(0.00262093 0.002715 2.18481e-21)
(0.00432036 0.00401418 -1.74581e-22)
(0.0026688 0.002752 8.66827e-21)
(0.00436983 0.00404084 4.07547e-21)
(0.00258535 0.0026895 -1.33799e-20)
(0.00418062 0.00385036 3.72737e-21)
(0.00408222 0.00378089 0)
(0.00505342 0.00423476 -9.51364e-21)
(0.0026112 0.00269997 0)
(0.00268218 0.00274286 7.50741e-21)
(0.00268919 0.00274429 -7.92621e-21)
(0.00278331 0.00287016 0)
(0.00274183 0.00272729 -1.55484e-22)
(0.0026255 0.00269237 6.17622e-21)
(0.00269609 0.00272801 8.12878e-21)
(0.00268697 0.00273612 -1.00136e-20)
(0.00278814 0.00286083 1.33565e-20)
(0.00265822 0.00317122 4.44874e-20)
(0.00413199 0.00383851 -5.35222e-23)
(0.00435725 0.00404667 -7.66762e-21)
(0.0027192 0.00272536 -2.48505e-20)
(0.00266735 0.0027623 9.92809e-22)
(0.00354395 0.00351411 -1.06134e-20)
(0.0026199 0.0026663 1.78911e-20)
(0.00435548 0.00404511 8.32019e-21)
(0.00266497 0.00274356 9.23735e-21)
(0.00277891 0.00286879 9.01959e-21)
(0.00279175 0.00283797 5.4737e-21)
(0.00282263 0.00289001 -9.26024e-21)
(0.00268539 0.00275095 0)
(0.00268009 0.00274907 1.37868e-20)
(0.00266321 0.00275823 4.3185e-21)
(0.00262679 0.00267525 2.78866e-20)
(0.00279517 0.00288302 0)
(0.00263222 0.0026798 -1.61719e-20)
(0.00417691 0.0038729 0)
(0.00275093 0.00286698 -5.11942e-21)
(0.00295997 0.00293682 9.69853e-21)
(0.00418056 0.00385025 0)
(0.00266748 0.00275422 -3.63588e-24)
(0.00278215 0.00287693 -3.64295e-24)
(0.00272577 0.00276469 0)
(0.00318578 0.00309795 -9.58657e-21)
(0.004374 0.00406791 -2.06936e-20)
(0.00266809 0.0027469 -1.14919e-23)
(0.00259385 0.00269827 0)
(0.00406891 0.00378417 7.70099e-21)
(0.00436993 0.00402461 -3.60124e-21)
(0.00261915 0.00268674 1.39475e-21)
(0.00279658 0.00286687 -7.92405e-21)
(0.00262914 0.0026906 0)
(0.00262649 0.00269195 -1.46874e-20)
(0.00282786 0.0028952 2.07983e-20)
(0.00416958 0.00385027 -3.58765e-21)
(0.00263299 0.00269455 -1.4936e-20)
(0.00278042 0.00286632 0)
(0.00416495 0.00385138 -9.69368e-22)
(0.00279836 0.00286567 -2.59546e-20)
(0.00417955 0.0038535 -3.68823e-21)
(0.00265339 0.00275019 -9.56643e-21)
(0.00406798 0.00378368 0)
(0.002606 0.00269514 -6.02347e-21)
(0.00278692 0.00286715 1.4055e-22)
(0.00279887 0.00284108 4.99946e-21)
(0.00278167 0.00288376 3.81021e-21)
(0.00228958 0.00204691 0)
(0.00262503 0.00269713 4.778e-21)
(0.00269655 0.00274227 -1.60328e-20)
(0.004352 0.00404918 3.31609e-20)
(0.00277842 0.00287766 4.20712e-21)
(0.00403002 0.00374909 8.42411e-22)
(0.00408224 0.00376621 -7.74821e-21)
(0.00518251 0.00487302 9.54899e-21)
(0.00281173 0.00287828 -8.73021e-21)
(0.00267055 0.00271495 -5.67521e-21)
(0.00437093 0.00403148 9.2812e-21)
(0.0027819 0.00283038 5.71153e-21)
(0.00416181 0.00384881 8.81199e-22)
(0.00275308 0.00286464 -3.05533e-23)
(0.0027146 0.00270162 -2.43599e-20)
(0.00266155 0.00275042 0)
(0.00435569 0.00405155 0)
(0.00406476 0.00378156 1.58961e-20)
(0.00278716 0.00288382 2.27859e-21)
(0.00408273 0.00376217 1.7563e-21)
(0.00266385 0.00275556 5.96664e-21)
(0.00275492 0.00286901 0)
(0.00266678 0.00274454 -1.0814e-20)
(0.00407069 0.00377874 0)
(0.00278534 0.00283061 -1.06425e-20)
(0.00408563 0.00378144 -1.88289e-20)
(0.00267263 0.00271815 6.04585e-21)
(0.00261487 0.00269603 -5.587e-21)
(0.00263578 0.00274851 -5.24784e-21)
(0.00462889 0.00391996 1.9286e-20)
(0.00406802 0.00378391 -1.66057e-20)
(0.00437229 0.00403484 0)
(0.00418361 0.00397003 1.39321e-20)
(0.0027921 0.00283279 -5.9029e-25)
(0.00266543 0.00274772 -5.22691e-21)
(0.00262006 0.00266833 5.5613e-21)
(0.0043715 0.00403678 0)
(0.0041665 0.00387394 0)
(0.00416875 0.00386864 -5.93775e-21)
(0.00279161 0.00283886 1.14003e-20)
(0.00261814 0.00269156 -1.15455e-20)
(0.00279728 0.00286699 0)
(0.00416777 0.00387817 2.87772e-20)
(0.00261993 0.00269451 1.6717e-20)
(0.00278401 0.00286173 0)
(0.00461266 0.00402878 0)
(0.0025992 0.00269771 -9.87206e-21)
(0.00437062 0.00402529 -3.37546e-21)
(0.00267266 0.00272472 5.19155e-21)
(0.00279146 0.00284016 0)
(0.0026011 0.00269461 -2.35125e-21)
(0.00264226 0.00275286 6.55617e-21)
(0.00267203 0.00276375 2.33726e-21)
(0.00418089 0.00385113 3.42284e-21)
(0.00406958 0.0037839 1.29657e-20)
(0.0026509 0.00275094 -9.23283e-21)
(0.00275114 0.00286147 -1.5126e-22)
(0.00437069 0.00404447 4.2408e-21)
(0.00267201 0.0027261 0)
(0.00260288 0.00269798 0)
(0.00435655 0.00404734 0)
(0.00170987 0.0016241 0)
(0.00435424 0.00402479 0)
(0.00262473 0.00270499 -3.46929e-21)
(0.00267248 0.00272245 1.28733e-20)
(0.00279311 0.00284699 -8.72638e-21)
(0.00408726 0.00376154 4.55376e-21)
(0.00262347 0.00267474 2.5962e-20)
(0.00258772 0.00268549 -3.79325e-21)
(0.00275766 0.00287258 0)
(0.00418236 0.00386201 -3.13811e-21)
(0.00266307 0.00271853 0)
(0.00258427 0.0026915 1.30845e-22)
(0.00267951 0.00275117 -8.76517e-21)
(0.00258821 0.00268881 1.0372e-20)
(0.00275754 0.00287139 4.30936e-21)
(0.0027884 0.00282957 -1.79913e-20)
(0.00275368 0.00286138 -3.10391e-23)
(0.00262486 0.00267065 -1.73495e-20)
(0.00279336 0.00279275 9.11821e-21)
(0.00259225 0.0026959 0)
(0.00262046 0.00266613 0)
(0.00264196 0.00275366 0)
(0.00123774 0.00172928 2.81305e-20)
(0.00278575 0.00283249 -9.17266e-24)
(0.00263691 0.00274856 5.65731e-21)
(0.00278463 0.00283231 -2.46093e-20)
(0.00263989 0.00274376 -3.02364e-23)
(0.00261556 0.00266151 -3.05454e-20)
(0.00270238 0.00268633 0)
(0.00418313 0.00385281 8.23257e-21)
(0.00258268 0.0026903 0)
(0.00261366 0.00266196 -1.5974e-20)
(0.00275732 0.00285359 0)
(0.00264756 0.00273971 1.02497e-20)
(0.00275223 0.00285817 3.46058e-21)
(0.00264737 0.00274004 7.09344e-21)
(0.00275628 0.00291608 8.52351e-22)
(0.00263848 0.00279794 -7.20028e-22)
(0.00278784 0.00283991 -7.73243e-21)
(0.00267744 0.00271674 -7.55302e-21)
(0.00276876 0.00301851 1.22018e-21)
(0.00278433 0.00283467 -1.52092e-20)
(0.00275204 0.00286723 5.52157e-21)
(0.00266612 0.00271391 6.30348e-21)
(0.00263952 0.00275068 0)
(0.00264092 0.00273883 6.33389e-21)
(0.00274956 0.00286398 -3.00289e-21)
(0.00263499 0.00274487 -3.07551e-21)
(0.0026815 0.00270218 -7.8371e-21)
(0.00261353 0.00266231 -1.66192e-20)
(0.00278814 0.0028418 -2.3797e-20)
(0.00270638 0.00267466 -7.96527e-21)
(0.00275603 0.00291788 5.59772e-21)
(0.00278879 0.00283514 -6.7565e-21)
(0.00261914 0.00266682 1.36007e-20)
(0.00266711 0.00271557 -1.40193e-20)
(0.00263716 0.00275041 0)
(0.00262664 0.00277364 -2.69743e-20)
(0.00407016 0.00375796 0)
(0.0027636 0.00285604 -7.81118e-21)
(0.00277232 0.00267434 -2.79432e-20)
(0.00276134 0.00285724 -4.20533e-21)
(0.0026219 0.0026693 1.60564e-20)
(0.00204237 0.00207872 3.35459e-20)
(0.0025934 0.00268923 1.20098e-20)
(0.00275212 0.00286861 0)
(0.00275682 0.00285775 -7.22183e-21)
(0.00270197 0.00273773 8.06176e-21)
(0.00279545 0.00284762 2.63346e-20)
(0.00262143 0.00266827 -1.53998e-20)
(0.00261898 0.00266389 0)
(0.00264989 0.00289804 2.0103e-21)
(0.00278581 0.0028393 2.61505e-20)
(0.00279667 0.0028413 0)
(0.00279569 0.00284565 -7.7605e-24)
(0.00262375 0.00260213 1.26956e-24)
(0.00259449 0.00268176 1.07425e-23)
(0.00277897 0.00283298 -8.0116e-21)
(0.00278916 0.00283564 -7.76121e-24)
(0.00262392 0.00269407 1.78254e-20)
(0.00262911 0.00265518 -1.93401e-20)
(0.00261971 0.00266665 -9.39115e-21)
(0.00260809 0.00269762 -9.56963e-21)
(0.00273079 0.0028698 1.57795e-23)
(0.00261513 0.00266316 -1.72794e-20)
(0.00258602 0.00269188 -5.08854e-21)
(0.0027191 0.00278325 -8.42518e-21)
(0.00408668 0.00376393 -3.24826e-21)
(0.00273425 0.00285588 -2.75673e-20)
(0.00276109 0.00289181 -9.48704e-22)
(0.00264459 0.00277288 -1.07353e-22)
(0.00262228 0.00267018 0)
(0.00261857 0.00266353 0)
(0.00258866 0.00269355 -2.29608e-21)
(0.00259315 0.00268812 -1.64489e-22)
(0.00258397 0.00269253 -2.78898e-21)
(0.00258615 0.00269206 -6.23571e-21)
(0.00258222 0.00269133 6.26492e-21)
(0.00405949 0.00375758 2.94591e-21)
(0.00262777 0.002672 -1.80198e-20)
(3.05819e-05 2.29137e-05 -1.10952e-20)
(4.53391e-05 -1.6457e-05 5.47976e-21)
(9.29528e-05 0.000121548 1.53713e-21)
(0.000183733 -3.58299e-05 2.39748e-21)
(0.00100769 8.39664e-05 0)
(6.9395e-05 7.31325e-05 -9.90942e-22)
(0.000623121 0.000362308 4.11997e-20)
(5.86418e-05 0.000145857 0)
(0.000216042 -4.24429e-05 0)
(8.04782e-05 -1.78384e-05 -1.60907e-22)
(0.000612219 9.98004e-05 -1.57992e-20)
(0.00407784 0.00408458 -1.1379e-20)
(0.00407243 0.00407928 5.43713e-21)
(0.00437293 0.00437339 7.50095e-23)
(0.00417061 0.00384143 1.41905e-20)
(0.00407526 0.0037501 1.5014e-20)
(0.00416736 0.00417664 0)
(0.00437225 0.00437251 -5.1996e-21)
(0.00406786 0.004085 -9.85084e-21)
(0.00416773 0.00418366 0)
(0.00417892 0.0041777 0)
(0.00406657 0.00378362 -1.30439e-20)
(0.00418407 0.00418055 -1.18146e-20)
(0.004066 0.00378431 6.9975e-21)
(0.00405944 0.00409911 5.00789e-21)
(0.0043708 0.00437004 0)
(0.00417497 0.00417874 6.60201e-21)
(0.00408449 0.00408086 2.12015e-20)
(0.00417664 0.00417702 1.267e-20)
(0.00437144 0.00437293 0)
(0.00437278 0.00437396 0)
(0.00417652 0.00418365 -2.00383e-20)
(0.00436628 0.00436533 5.93718e-21)
(0.00405507 0.00409897 0)
(0.0040591 0.00410187 0)
(0.00434597 0.00438772 0)
(0.00434768 0.00438661 -7.28327e-21)
(0.00416112 0.00419782 0)
(0.00405896 0.00409933 -3.56769e-21)
(0.00416026 0.00419515 -6.80365e-21)
(0.00434866 0.00439065 4.20353e-21)
(0.00436787 0.00436743 -6.04706e-21)
(0.00434756 0.0043915 1.57102e-20)
(0.00405881 0.00409962 0)
(0.00434838 0.00438991 -7.58148e-21)
(0.00434696 0.00438647 0)
(0.0043695 0.0043684 -9.67006e-21)
(0.00405937 0.00409946 3.62278e-21)
(0.00415882 0.00419344 -9.67152e-21)
(0.00434645 0.00405198 0)
(0.00408246 0.00408153 -1.48625e-20)
(0.00418929 0.00417662 -7.38734e-21)
(0.00434521 0.00438935 -1.22461e-20)
(0.0040823 0.00408158 -1.50237e-20)
(0.00434486 0.00438899 0)
(0.00408189 0.00408196 0)
(0.00436449 0.00436615 1.25155e-20)
(0.00434738 0.00405007 1.4558e-20)
(0.00415812 0.00419381 3.15231e-21)
(0.00434978 0.00404968 -6.67141e-21)
(0.00415564 0.00419978 5.72788e-21)
(0.00434642 0.00439358 5.59828e-21)
(0.00408171 0.00408176 -8.03414e-21)
(0.00408117 0.00408282 8.36576e-21)
(0.00405359 0.00410032 6.11808e-21)
(0.00415811 0.00419578 -5.95154e-21)
(0.00434676 0.0043909 -5.8224e-21)
(0.00408112 0.00408184 0)
(0.00408151 0.00408254 7.97808e-21)
(0.00405277 0.00409989 -6.40512e-21)
(0.0043435 0.00439509 -5.12975e-21)
(0.00419189 0.00417579 -1.54154e-20)
(0.00415272 0.00420146 -5.26156e-21)
(0.00423956 0.00414115 0)
(0.00419963 0.00417198 -7.7872e-21)
(0.00405353 0.00410426 -7.11306e-21)
(0.00436793 0.0043692 -1.46776e-20)
(0.00408094 0.00408272 -2.53713e-20)
(0.00421556 0.0041625 1.57428e-20)
(0.00408059 0.00408119 -8.83736e-21)
(0.0040526 0.00410302 1.06654e-20)
(0.00415211 0.00420197 0)
(0.00434269 0.00439519 0)
(0.00407985 0.00407942 1.79932e-20)
(0.00425405 0.00410758 0)
(0.00434326 0.00439539 2.24177e-21)
(0.00415267 0.00420236 2.31048e-21)
(0.00405516 0.00410276 4.47064e-21)
(0.00437234 0.00437609 0)
(0.00421958 0.00402709 -1.52675e-20)
(0.00407197 0.00407609 0)
(0.00425344 0.00407864 1.67847e-20)
(0.00436687 0.0043707 -7.62893e-21)
(0.00405217 0.00410392 4.88696e-21)
(0.00436742 0.00436992 0)
(0.00423295 0.00405491 8.37654e-21)
(0.0043654 0.00436493 1.71046e-20)
(0.00436827 0.00437288 7.93844e-21)
(0.00419514 0.00377665 1.93087e-20)
(0.00406239 0.00375575 9.80355e-21)
(0.00407634 0.00407864 -9.06062e-21)
(0.00405481 0.004102 -8.49399e-21)
(0.00415683 0.00369909 9.11867e-21)
(0.00436839 0.00435832 0)
(0.00415125 0.00421605 2.28936e-21)
(0.00404111 0.00371111 -2.00949e-20)
(0.00434076 0.00440808 2.20977e-21)
(0.00412883 0.00421306 2.54775e-21)
(0.00414149 0.00421343 1.08413e-21)
(0.00433027 0.00440717 -1.0303e-21)
(0.00437564 0.00388819 1.87983e-20)
(0.0043177 0.0044033 0)
(0.00429078 0.00440291 1.32135e-21)
(0.00438394 0.00396482 1.02896e-20)
(0.00410149 0.00421331 2.14376e-21)
(0.00433029 0.00414459 2.07779e-20)
(0.00510314 0.00411363 3.75457e-20)
(0.000811298 0.000589726 -8.9909e-21)
(-2.46137e-05 0.00107995 4.14416e-24)
(3.56691e-05 2.86381e-05 -9.22174e-21)
(5.14955e-05 4.54704e-06 -2.16451e-21)
(6.11301e-05 0.000259076 0)
(0.000117165 -2.76978e-05 -7.50934e-21)
(6.73231e-05 -1.79804e-06 3.16272e-22)
(0.000675988 0.000569407 -9.70472e-24)
(0.00262375 0.00267477 -1.92073e-20)
(0.00418305 0.00418408 5.78119e-21)
(0.00262253 0.00266339 0)
(0.0026491 0.00275139 4.15241e-21)
(0.00276545 0.00286304 8.5216e-21)
(0.00265199 0.00274437 -3.69763e-21)
(0.00279252 0.00284039 2.15405e-20)
(0.00259582 0.00269399 0)
(0.00267597 0.00271981 7.34609e-21)
(0.00276129 0.00287174 -5.05175e-21)
(0.00264499 0.00275222 -1.54731e-22)
(0.00279314 0.00284707 -8.68722e-21)
(0.00415776 0.00421085 2.63786e-21)