/*--------------------------------*- C++ -*----------------------------------*\
  =========                 |
  \\      /  F ield         | OpenFOAM: The Open Source CFD Toolbox
   \\    /   O peration     | Website:  https://openfoam.org
    \\  /    A nd           | Version:  7
     \\/     M anipulation  |
\*---------------------------------------------------------------------------*/
FoamFile
{
    version     2.0;
    format      ascii;
    class       surfaceScalarField;
    location    "80";
    object      phi;
}
// * * * * * * * * * * * * * * * * * * * * * * * * * * * * * * * * * * * * * //

dimensions      [0 3 -1 0 0 0 0];

internalField   nonuniform List<scalar> 
1111
(
6.77403e-09
1.30771e-08
-1.59896e-08
-3.86155e-09
6.76751e-09
-1.18246e-08
1.18311e-08
-1.47521e-08
5.51227e-09
9.01901e-09
2.20869e-10
7.3072e-10
-8.39162e-10
-1.43262e-08
1.44346e-08
-1.42704e-08
1.40248e-08
9.76339e-10
-1.64605e-09
1.4909e-08
2.16563e-09
-3.26043e-09
9.62953e-09
-1.00114e-08
3.64226e-09
-6.71353e-09
-1.2617e-08
1.25995e-08
6.73104e-09
-5.0377e-08
-2.59982e-08
7.63752e-08
-8.13595e-09
7.67175e-09
7.23171e-09
3.40885e-09
3.56454e-10
-3.49073e-09
-2.74576e-10
1.58052e-08
-1.61613e-08
-2.31516e-08
2.35077e-08
-9.65762e-09
-7.89387e-09
8.79727e-09
8.75422e-09
-3.55121e-08
1.76698e-08
-3.22942e-08
5.01365e-08
9.5103e-09
-1.96293e-09
-1.42609e-08
-9.16116e-10
1.81423e-09
-3.3116e-09
2.41348e-09
-3.87658e-09
1.33463e-08
1.95951e-09
-1.14292e-08
8.82258e-09
-2.58705e-09
-1.50437e-08
8.80822e-09
3.74535e-08
-3.01501e-08
-7.30336e-09
-1.94513e-08
3.86056e-10
1.72528e-08
1.81248e-09
-9.91067e-10
4.20293e-09
-1.78631e-08
1.46512e-08
-6.12213e-08
-3.96279e-09
6.51841e-08
1.44475e-10
-1.20804e-09
-3.42065e-10
1.40563e-09
-1.64448e-09
-1.3617e-08
-1.16514e-10
-2.69101e-10
2.16945e-10
1.6867e-10
-1.02985e-08
-8.40253e-09
1.28931e-08
5.80793e-09
6.89514e-10
-2.12559e-09
-8.34489e-09
9.78096e-09
8.39609e-09
8.34133e-10
-9.40499e-09
1.74768e-10
-2.87315e-09
-7.93274e-09
1.10086e-08
-2.02745e-10
1.14001e-08
-8.79616e-10
-1.69787e-09
-8.79975e-10
8.74514e-10
2.19188e-11
-1.64582e-11
-1.55056e-10
7.53687e-10
2.94404e-10
-8.93035e-10
-4.91329e-10
-3.91469e-11
5.24909e-10
5.56609e-12
-2.27706e-11
-8.64314e-10
1.09162e-10
7.77922e-10
-8.71737e-11
-8.1557e-10
9.06239e-10
-1.84466e-08
-1.91097e-09
-4.07687e-10
4.45915e-11
-1.28233e-10
1.33944e-08
-1.32413e-08
4.0499e-09
-3.77341e-10
5.79088e-10
3.49585e-10
-5.51332e-10
-1.33604e-10
-1.74569e-09
1.40039e-09
4.78901e-10
-2.06819e-09
1.03909e-08
-1.15831e-08
-2.95198e-10
-1.65892e-10
5.34034e-11
-8.7745e-09
1.03503e-08
-9.71179e-09
1.21946e-08
-1.71439e-08
4.6976e-09
2.51725e-10
6.37277e-11
-1.67319e-10
-1.91606e-10
1.93723e-10
8.05741e-10
-1.2495e-10
-5.95266e-08
7.42286e-08
-1.4702e-08
1.05738e-09
-2.70896e-10
-1.19337e-09
4.06886e-10
1.14704e-09
1.03159e-08
-1.37202e-08
2.25722e-09
-1.56954e-09
7.54357e-09
-8.88235e-09
2.90832e-09
-6.64926e-09
5.67589e-09
5.61767e-09
-4.64429e-09
-7.50093e-09
-1.84576e-09
1.84019e-09
7.50649e-09
-1.81199e-10
-9.09213e-08
9.13069e-08
-2.04339e-10
-2.56103e-10
-8.97567e-08
9.01661e-08
-1.53318e-10
8.30822e-08
-1.49398e-09
1.10017e-10
-8.16983e-08
-2.97115e-09
-3.80937e-10
6.88768e-10
8.52446e-10
-4.83828e-10
3.95043e-09
-1.26735e-09
3.40714e-09
-6.09022e-09
-9.89493e-10
9.12322e-10
-1.49545e-08
6.60174e-09
9.64778e-09
1.03042e-09
-1.04074e-08
-2.70823e-10
-6.15902e-09
1.33177e-08
1.14249e-09
-8.30113e-09
1.43588e-08
-4.43646e-09
3.6405e-09
-1.35628e-08
1.54085e-08
1.69171e-09
-1.6714e-09
-1.92591e-10
-2.00624e-08
-7.42092e-09
2.7676e-08
1.42125e-08
-8.62821e-09
-1.97753e-09
7.89625e-09
-1.20777e-08
-2.37441e-11
1.03941e-10
-1.27357e-09
-3.62639e-08
-2.32627e-08
8.24459e-09
2.24742e-10
3.72529e-09
-7.02182e-09
1.10006e-08
6.3716e-09
-6.12271e-10
3.32073e-10
4.93491e-10
-2.13293e-10
5.80086e-09
-4.74342e-09
3.63368e-09
-4.69112e-09
-4.87805e-10
-6.449e-10
2.68392e-10
6.84723e-10
-6.14707e-10
-3.2002e-11
-8.90544e-10
7.6749e-10
-1.80089e-08
2.44593e-09
1.53702e-09
1.40259e-08
2.35824e-10
-7.15908e-10
-1.32185e-10
-4.07285e-09
-1.50521e-08
1.11605e-09
5.6195e-09
1.20117e-08
-5.22461e-09
-1.24066e-08
1.64429e-08
6.66075e-10
-1.59082e-08
-1.20079e-09
-6.94486e-10
4.70206e-10
5.56354e-10
-4.73166e-10
2.41265e-10
2.31901e-10
-7.34567e-09
-3.61485e-09
4.31126e-09
-2.48116e-10
3.77309e-10
-1.29193e-10
1.21188e-09
-1.55832e-08
-8.35911e-10
9.63998e-09
-1.08723e-08
-9.91317e-10
-5.05167e-10
1.28537e-08
4.39843e-09
-4.1455e-09
-1.31066e-08
1.24752e-10
7.10737e-09
-7.86171e-09
6.43022e-09
-1.72338e-09
-8.84921e-09
8.09827e-09
2.47432e-09
-1.85318e-09
6.52753e-10
-1.38516e-08
-1.40102e-10
-1.08012e-10
7.18451e-11
8.42772e-10
-8.41555e-09
7.415e-10
1.73034e-08
-1.60196e-09
-1.25063e-08
1.38452e-08
-1.33892e-09
1.21758e-08
1.39859e-08
-1.55265e-08
-1.06352e-08
-5.81654e-10
1.05152e-09
-4.69864e-10
5.30715e-10
-5.37713e-10
6.99755e-12
6.71315e-10
-5.9212e-10
-7.91954e-11
1.46608e-09
-1.196e-09
-2.70085e-10
-1.07168e-08
7.49568e-10
9.96721e-09
2.11958e-09
-6.53497e-10
8.95071e-09
-1.53647e-08
7.34721e-09
-8.8449e-09
5.51093e-11
3.75064e-09
-3.96893e-10
-2.47604e-09
2.53114e-09
-6.68518e-09
8.0151e-09
-1.32992e-09
-6.20749e-10
4.21914e-09
3.52033e-10
1.72739e-08
-1.44881e-08
-1.63874e-09
-5.90637e-09
5.34732e-09
-7.08294e-10
-2.04344e-10
5.99567e-09
-6.00129e-09
5.62227e-12
6.93526e-09
4.48327e-09
2.55481e-11
-1.60223e-08
1.04628e-08
1.77353e-08
5.74714e-09
8.29549e-09
8.21876e-09
-6.8458e-09
1.27788e-09
-1.19947e-08
5.88762e-10
1.04844e-09
-1.29235e-08
2.95882e-09
-4.27679e-10
1.17648e-08
-1.10987e-08
-2.2701e-10
-8.51481e-10
-1.37959e-08
7.51548e-09
7.76138e-10
-1.4673e-11
-8.90706e-09
5.07391e-09
-3.03427e-08
-1.25051e-08
-2.74776e-09
1.45703e-09
1.40546e-08
1.09808e-08
-1.07354e-08
-1.42999e-08
1.54808e-08
-3.11389e-09
-1.23669e-08
1.6327e-09
3.94605e-09
-1.15966e-09
-9.1743e-10
-8.97876e-10
1.20087e-09
6.14432e-10
-2.47107e-10
3.69213e-10
3.71385e-10
6.21368e-08
-6.21619e-08
2.51139e-11
6.20582e-08
-6.23618e-08
3.03573e-10
8.36865e-10
6.47399e-08
-6.55663e-08
8.26474e-10
6.41323e-08
6.07542e-10
-2.25022e-10
-6.65115e-08
9.45143e-10
-6.2048e-08
6.19139e-08
1.34083e-10
1.31557e-09
-6.78271e-08
-6.22074e-08
1.59427e-10
1.24658e-08
-8.09347e-10
1.41936e-09
-3.7023e-09
3.09229e-09
3.47081e-10
-1.20921e-09
9.80553e-10
-6.37297e-10
1.41317e-09
-1.65925e-09
8.83377e-10
1.43962e-09
-1.56e-09
2.24315e-10
-6.47184e-11
-3.40486e-09
2.84548e-09
-2.08044e-09
2.63982e-09
-5.59515e-10
-2.77681e-09
2.52697e-09
-3.6385e-09
-5.74922e-09
6.01293e-10
-6.46722e-10
1.26516e-09
1.12857e-09
-6.52144e-09
7.95743e-09
3.04728e-09
1.98478e-08
-4.367e-09
-7.3403e-10
2.90764e-10
1.04456e-09
-1.00778e-08
-2.6186e-08
5.36243e-09
-4.3326e-09
-3.15361e-09
2.12378e-09
1.12022e-10
2.18842e-11
3.91003e-10
-2.62878e-09
3.38137e-09
8.87574e-09
7.82074e-10
-3.22784e-10
2.13097e-09
-2.3677e-09
1.96054e-09
1.47543e-08
1.32862e-08
-2.69572e-08
3.26846e-08
6.33824e-09
-2.28273e-08
-1.04682e-08
1.84226e-08
-1.79221e-08
1.04802e-08
-1.24608e-10
-1.54187e-10
-1.2812e-09
-1.75772e-09
-2.94517e-09
3.69234e-09
1.50105e-08
-6.01137e-10
-1.37566e-08
-4.85356e-10
-2.4735e-09
1.82053e-10
1.54687e-08
1.77081e-08
1.37008e-08
7.07487e-10
-1.64558e-09
-1.27627e-08
-1.62519e-09
5.99718e-09
1.2476e-08
-5.64892e-10
-1.10216e-09
-3.59388e-09
2.76329e-09
3.67606e-09
2.47467e-09
1.43911e-08
4.2121e-09
-1.42048e-08
1.78965e-08
-1.76988e-09
2.58581e-09
-3.45936e-09
1.89005e-09
-4.84612e-09
1.29505e-08
-1.1981e-08
-1.40188e-08
3.80693e-10
8.79194e-09
-1.83381e-09
1.53345e-09
1.56552e-09
-8.65973e-09
7.00831e-10
-4.54626e-09
-6.02942e-09
1.2212e-08
-1.48423e-08
1.18054e-09
1.66735e-09
-2.21489e-09
1.67112e-08
-1.61637e-08
-1.04072e-09
1.41404e-08
3.01246e-09
-4.35878e-09
-1.40184e-08
7.49095e-09
-1.7292e-08
-8.12103e-09
6.7269e-09
5.86524e-09
1.45231e-08
-9.89662e-09
3.05952e-09
9.31142e-09
9.87083e-09
3.83374e-09
-4.16866e-09
2.16587e-08
-1.9089e-08
4.92123e-09
-1.04429e-08
2.17899e-09
5.61463e-09
1.38188e-08
-2.29433e-10
1.27578e-08
-1.3569e-08
-1.87447e-09
1.98293e-09
-1.00329e-09
8.94824e-10
1.09828e-08
-6.38194e-09
7.41081e-09
-1.08413e-08
1.4288e-09
-4.74807e-09
1.1424e-08
-1.19005e-08
-7.55075e-09
9.15188e-09
9.38168e-09
1.28557e-08
7.22136e-10
-1.38073e-08
1.52874e-09
8.00697e-10
-1.10668e-08
-6.71971e-09
1.02358e-08
-1.50628e-09
2.51813e-09
-8.95694e-09
4.80901e-09
-5.22135e-09
1.15042e-08
-3.49005e-09
-1.17057e-08
3.69156e-09
-4.48852e-09
1.12447e-08
1.92224e-09
1.13996e-09
-5.03082e-09
-1.77057e-08
1.04372e-08
1.22993e-08
7.75575e-10
-1.09487e-08
-9.94673e-09
1.58646e-08
1.2512e-08
2.84163e-09
-9.73899e-09
-1.32981e-08
-3.08996e-10
-1.27402e-08
1.70992e-10
-7.57904e-10
1.15955e-08
1.25146e-08
-8.22806e-09
1.65598e-08
-1.5945e-08
3.59733e-09
-4.57751e-10
1.74586e-09
1.27378e-08
-3.90526e-09
-1.26468e-08
-5.10593e-09
1.54538e-09
4.60898e-09
1.21791e-08
-7.26627e-09
8.91675e-10
-1.55436e-09
9.17052e-10
-1.23716e-09
5.86047e-09
2.62785e-08
-1.99294e-10
-1.02911e-08
1.04903e-08
2.85019e-08
-2.22553e-08
2.20472e-08
1.97e-08
-1.27036e-08
-2.6672e-09
1.50377e-08
2.09186e-10
-1.21424e-08
-3.88603e-10
-6.02478e-09
-1.88673e-09
2.25313e-09
1.55584e-09
-3.06583e-10
-1.10325e-08
1.13988e-08
-5.97258e-11
3.11245e-09
-5.31006e-09
-1.09666e-08
1.0536e-08
-8.86669e-10
-1.07125e-08
-1.56089e-10
-1.1138e-08
-2.63717e-09
-1.19889e-08
2.20124e-09
7.89788e-09
5.13302e-09
-2.49411e-10
-1.17704e-08
1.17132e-08
5.99061e-10
-8.7432e-09
5.19275e-09
-1.3992e-09
2.38324e-09
-2.39222e-09
-1.30411e-08
-1.27762e-08
1.23275e-08
-1.02348e-08
-1.57842e-08
9.99672e-09
9.23491e-09
8.5564e-10
2.6329e-09
-1.2924e-08
1.13451e-08
1.67922e-09
3.94959e-09
3.13706e-10
-5.30827e-10
-2.70684e-10
-4.11169e-09
2.58612e-09
-9.47934e-10
2.16243e-10
-2.53936e-10
3.76922e-11
-2.64916e-09
1.29626e-08
2.19851e-09
2.55755e-09
-2.11002e-10
-1.51143e-09
-4.00474e-10
-2.39625e-09
-3.96381e-10
1.29155e-08
9.99711e-09
-3.61973e-10
6.88767e-09
-1.2261e-09
-5.2996e-09
-9.76238e-09
-5.10164e-09
1.65975e-10
5.0269e-11
4.86979e-09
1.31538e-09
-1.71339e-08
-4.05367e-10
-8.04423e-10
-2.7484e-09
1.01295e-09
2.93384e-09
6.1937e-08
-8.65672e-11
-6.18505e-08
6.23578e-08
1.88502e-10
-6.25463e-08
-1.4153e-08
-1.44787e-10
1.45176e-08
-2.19828e-10
2.99459e-09
-1.88003e-09
2.59913e-09
1.79903e-09
-4.46365e-09
-3.66114e-10
-5.50934e-10
4.46868e-10
-1.09225e-10
4.74546e-10
-3.26731e-10
1.95712e-08
1.0881e-09
-1.57895e-08
-1.82506e-10
-1.93789e-09
1.24163e-08
2.25943e-09
1.7796e-09
5.32978e-09
-2.07432e-09
-7.72336e-08
-2.41774e-08
-4.86035e-09
1.58144e-08
2.3923e-09
-2.54896e-10
-3.08929e-09
-1.16134e-09
4.24547e-10
-3.65363e-10
-1.04399e-08
-3.43483e-10
1.07833e-08
-1.08009e-08
-6.61488e-09
1.06961e-08
-9.42417e-09
8.76273e-09
1.3101e-10
1.59702e-09
9.94257e-09
-9.82242e-09
-1.20155e-10
6.33943e-10
8.34125e-11
1.05117e-08
7.30951e-10
-8.73794e-10
-1.56536e-10
-1.42426e-08
-4.97287e-10
-1.3733e-08
1.25621e-08
-1.18079e-08
-6.60274e-08
6.49807e-08
1.04671e-09
2.90994e-10
-2.6911e-10
1.19204e-08
-2.64979e-10
1.10448e-11
-2.03952e-09
2.77225e-09
-3.43407e-09
-1.34834e-08
-1.63103e-09
2.57176e-09
-4.74964e-09
-1.40206e-08
1.63638e-09
5.58103e-09
9.60883e-09
-8.96173e-09
-2.91094e-10
2.61151e-11
-9.33485e-09
-1.32372e-08
1.5042e-10
-6.27041e-08
2.36698e-10
6.24674e-08
6.95333e-10
6.3437e-08
-2.24835e-10
-1.4993e-09
-1.44714e-08
1.07746e-10
-6.3391e-08
6.32832e-08
1.82937e-10
-6.29336e-08
6.27507e-08
3.90905e-10
6.18052e-08
1.50818e-10
-6.19561e-08
6.16359e-08
1.69343e-10
-8.78965e-08
8.85061e-08
-2.03036e-12
9.33983e-08
-9.31052e-08
-2.6791e-10
-8.66353e-08
-4.34816e-10
9.33569e-08
-1.83652e-10
-8.49207e-08
-7.69363e-10
9.34876e-08
1.72903e-10
-5.22929e-10
1.96089e-09
9.23635e-08
-6.9321e-08
6.21469e-08
-6.23281e-08
-6.29602e-08
6.14928e-08
1.43061e-10
-3.07135e-09
2.91404e-09
-1.40475e-08
5.6331e-11
1.09645e-10
1.57192e-09
8.80619e-09
-1.13932e-08
3.82902e-08
-3.45005e-08
-1.67132e-08
1.37825e-08
-4.91746e-11
-2.18797e-10
1.81599e-10
7.26313e-10
-1.38559e-10
3.38321e-10
4.51948e-09
1.03052e-09
-3.65995e-09
-2.1895e-10
2.63542e-10
-1.65546e-10
-2.53684e-09
1.31123e-08
2.38715e-09
-1.44425e-08
-2.60859e-09
-3.40444e-09
5.59779e-09
1.04548e-09
-2.67348e-09
1.42569e-08
-1.14625e-09
-2.3163e-09
2.79529e-09
-8.14607e-09
-1.90482e-08
-1.34114e-08
7.91643e-09
5.87563e-09
-2.48895e-10
-5.49428e-10
3.05145e-09
1.4464e-08
2.23281e-09
-1.78786e-09
-4.09175e-10
4.58457e-10
-2.53626e-10
1.59841e-08
-5.5133e-10
-1.57763e-08
-7.37349e-10
-7.70887e-10
3.15348e-10
-2.3941e-10
3.47397e-09
-1.65639e-08
5.00434e-10
-1.57194e-09
-2.16768e-09
-2.35571e-09
1.55468e-08
-9.05991e-08
-1.39283e-10
9.16862e-08
-1.90834e-10
-8.91721e-08
-4.76832e-10
9.31087e-08
-2.75793e-10
-9.29194e-08
-5.6452e-10
-1.66092e-09
1.66641e-08
9.19874e-08
-1.9632e-10
2.93536e-11
-2.21414e-10
9.97461e-09
2.53447e-09
-7.76651e-09
-1.21142e-08
-5.67838e-09
8.44205e-09
1.45159e-09
-6.84635e-09
-6.04743e-09
9.01694e-09
-1.01818e-10
1.01502e-08
1.9478e-08
-1.79312e-08
3.07429e-09
-1.26381e-08
3.06562e-09
-6.99803e-08
3.95284e-09
-2.05295e-08
-1.30903e-08
-5.12308e-10
-5.95988e-09
-1.52839e-08
9.10144e-09
-1.51855e-08
4.62305e-10
3.90773e-10
-1.82025e-09
-1.65101e-08
1.69767e-08
7.54564e-09
-7.92658e-09
-4.92932e-09
1.52459e-08
-1.69115e-09
7.0224e-10
-1.08675e-09
2.21751e-10
1.19134e-08
3.31864e-09
7.09099e-08
-1.82128e-08
7.88002e-10
-1.49411e-08
-2.47922e-10
-2.90445e-10
-8.54173e-11
6.09543e-08
-6.12301e-08
-6.33616e-08
-6.31299e-08
-6.34089e-11
-2.62696e-10
-9.25933e-08
-6.04543e-08
6.24152e-08
6.50908e-08
-6.02814e-08
6.45678e-08
-6.0465e-08
6.37985e-08
-6.07329e-08
6.33636e-08
9.23162e-08
3.02484e-10
-6.3949e-09
7.51098e-08
-6.53962e-08
5.06888e-11
-5.06888e-11
5.88602e-10
-3.38181e-10
1.54895e-08
-4.21477e-11
4.21477e-11
3.66188e-10
1.54377e-09
1.3885e-08
1.33515e-08
-2.74705e-09
3.73322e-09
6.47358e-09
1.88591e-09
3.89523e-10
-2.6823e-10
-2.9782e-09
1.45638e-08
1.48471e-08
-4.27956e-09
1.18145e-08
1.99528e-10
1.59288e-10
2.80544e-09
-8.75382e-10
-1.59225e-09
-5.84365e-09
-2.01343e-10
-4.15433e-10
1.53004e-08
2.77103e-10
8.26046e-11
1.47514e-08
-2.60901e-08
1.76786e-08
2.62992e-09
1.31693e-09
2.48218e-09
-3.72261e-09
1.92451e-08
-1.80047e-08
-8.9412e-11
3.20643e-10
-1.43977e-09
-7.92118e-08
-7.07608e-08
1.36153e-09
-6.42049e-10
6.6308e-10
2.2942e-08
1.85832e-08
-6.34771e-09
8.14758e-11
-4.33559e-09
-2.49179e-09
2.99618e-08
1.49145e-10
1.48184e-08
7.35823e-08
5.96696e-11
5.25378e-10
-1.69075e-10
-2.29381e-10
-3.70196e-09
2.41925e-08
-1.48637e-08
1.04012e-09
-1.41279e-08
-5.89575e-11
2.03596e-08
-2.86478e-08
9.25088e-10
2.05794e-09
-3.68839e-10
)
;

boundaryField
{
    back
    {
        type            empty;
        value           nonuniform 0();
    }
    ingreso
    {
        type            calculated;
        value           nonuniform List<scalar> 
14
(
-1.54286e-08
-1.54288e-08
-1.54288e-08
-1.54288e-08
-1.54286e-08
-1.54283e-08
-1.54288e-08
-1.54288e-08
-1.54286e-08
-1.54286e-08
-1.54288e-08
-1.5428e-08
-1.5428e-08
-1.54286e-08
)
;
    }
    salida
    {
        type            calculated;
        value           nonuniform List<scalar> 2(1.01411e-07 1.14589e-07);
    }
    front
    {
        type            empty;
        value           nonuniform 0();
    }
    defaultFaces
    {
        type            calculated;
        value           uniform 0;
    }
}


// ************************************************************************* //
