/*--------------------------------*- C++ -*----------------------------------*\
  =========                 |
  \\      /  F ield         | OpenFOAM: The Open Source CFD Toolbox
   \\    /   O peration     | Website:  https://openfoam.org
    \\  /    A nd           | Version:  7
     \\/     M anipulation  |
\*---------------------------------------------------------------------------*/
FoamFile
{
    version     2.0;
    format      ascii;
    class       volVectorField;
    location    "80";
    object      U;
}
// * * * * * * * * * * * * * * * * * * * * * * * * * * * * * * * * * * * * * //

dimensions      [0 1 -1 0 0 0 0];

internalField   nonuniform List<vector> 
591
(
(0.000832478 -1.7852e-05 1.21747e-18)
(0.00082456 -1.70207e-05 -6.63438e-19)
(0.000856775 2.63336e-06 5.71209e-20)
(0.000862794 -1.60079e-05 -1.49091e-19)
(0.00084805 -2.13296e-06 2.25552e-19)
(0.00080298 -4.01624e-05 -1.39617e-19)
(0.000564575 -0.000266242 8.0628e-19)
(0.000803824 4.48561e-06 2.09526e-18)
(0.00573187 0.00250598 9.87962e-19)
(0.00080513 -9.61467e-06 2.45186e-18)
(4.77906e-05 0.000166305 1.21825e-18)
(0.000935314 0.00138362 9.4083e-21)
(0.000800237 4.38375e-06 1.32518e-18)
(0.00159972 0.00239822 -7.87541e-19)
(0.000803413 1.92728e-06 -4.45299e-19)
(5.53521e-05 -0.0001839 2.26592e-22)
(0.000138462 0.000675468 7.0495e-19)
(0.000818127 7.25267e-05 -4.97655e-19)
(0.00191493 0.000393642 4.73933e-19)
(0.00135968 0.000252913 -2.47102e-19)
(0.000832995 -7.22689e-06 3.73211e-19)
(0.00340005 0.00655945 -8.15057e-20)
(2.56911e-05 6.7772e-05 2.70942e-19)
(0.000835901 -2.02733e-05 -4.51373e-19)
(9.24701e-06 -1.41185e-05 3.58918e-19)
(0.000780489 3.642e-05 0)
(9.37609e-05 0.000471614 1.59966e-19)
(0.000554999 5.67485e-06 -1.78835e-19)
(0.000757612 4.68542e-05 1.14947e-18)
(0.000809422 5.96303e-05 5.87183e-19)
(5.43253e-05 -4.4079e-06 -4.73681e-24)
(2.83911e-05 -4.36501e-05 3.52167e-19)
(3.33554e-05 -2.85847e-06 -4.64213e-20)
(4.24236e-05 -1.20882e-05 0)
(5.14359e-05 -1.30165e-05 1.13143e-18)
(0.00117374 0.000134867 1.79919e-19)
(2.8287e-05 -4.89555e-06 4.47134e-20)
(0.000825622 2.21559e-06 3.13375e-23)
(2.55755e-05 4.16334e-05 2.66023e-19)
(4.71633e-06 -8.56424e-05 -8.54697e-19)
(0.000648108 -0.000201845 9.59579e-19)
(2.2416e-05 -6.01801e-06 4.54813e-20)
(0.000806329 7.20608e-06 -1.58085e-18)
(0.000831934 4.60984e-05 -6.91134e-19)
(1.49797e-05 -6.96933e-06 0)
(5.23246e-05 5.73269e-06 8.5185e-20)
(0.00134711 0.00450198 8.92989e-19)
(7.29847e-05 1.38663e-05 8.63603e-20)
(0.000801432 1.62342e-05 0)
(0.000387353 -0.000218266 6.77396e-19)
(0.000384923 0.000270797 5.11906e-21)
(0.000397681 4.28765e-05 -1.00377e-18)
(0.0063481 0.0109412 -7.68644e-19)
(0.00622476 0.0107963 1.52802e-20)
(0.00561429 0.0103791 1.45603e-18)
(0.000807684 3.59865e-05 0)
(6.47532e-05 2.87791e-05 0)
(0.000318079 6.61201e-06 1.86708e-23)
(6.02098e-05 9.01374e-06 -3.4645e-19)
(0.000813728 -7.76078e-06 0)
(0.000646495 2.88675e-05 3.17553e-19)
(0.000838598 1.64086e-05 2.20749e-18)
(0.000804976 3.39257e-05 -5.39332e-19)
(0.000799914 1.34032e-05 -3.15743e-19)
(0.00171232 0.000488968 5.42796e-19)
(0.000803397 2.16466e-05 -1.15117e-18)
(0.000832313 2.60976e-05 -5.24249e-19)
(7.66799e-05 -4.36242e-06 -1.73407e-19)
(0.000688833 0.00226142 0)
(0.000840754 4.28922e-05 0)
(0.00078373 1.93822e-05 -1.39289e-18)
(3.63061e-05 1.49374e-05 0)
(0.000290466 0.000267828 3.26841e-19)
(3.71896e-05 -1.6525e-05 0)
(3.87931e-05 -5.73674e-06 1.59468e-19)
(1.15958e-05 -4.08015e-05 -3.3666e-20)
(0.000795548 7.78494e-05 2.46905e-19)
(4.22118e-05 9.73424e-06 0)
(0.000805074 5.57829e-05 4.47464e-19)
(0.000776347 0.000293673 2.10722e-19)
(0.000963273 6.4527e-05 -3.97905e-20)
(4.11149e-05 2.16054e-05 -4.51851e-20)
(4.84286e-06 -1.82828e-05 0)
(0.000437189 0.00021434 1.70182e-19)
(2.81086e-06 2.006e-05 0)
(0.000798621 4.10826e-05 -6.06683e-19)
(0.000623163 -0.000119274 0)
(6.16107e-05 -2.90526e-06 -1.74475e-19)
(2.33064e-06 -2.51121e-05 0)
(0.000831535 0.000240797 -3.41252e-19)
(3.06601e-06 -1.06973e-05 0)
(0.000426666 0.000322062 -1.31995e-23)
(0.000535529 0.000110326 0)
(0.000810811 4.35563e-05 -3.03597e-24)
(2.50076e-06 1.24392e-05 -4.21702e-20)
(0.000461219 -1.88808e-05 1.76348e-18)
(0.00102189 7.23326e-05 4.16008e-20)
(0.000812267 4.55711e-05 6.41347e-22)
(0.000742342 0.000658298 2.69494e-19)
(6.85584e-06 4.46809e-05 0)
(-2.52813e-06 -3.48772e-05 -3.12111e-19)
(-2.8821e-05 -5.65585e-05 -1.10141e-18)
(4.53523e-06 7.22775e-05 -5.96352e-19)
(0.000608432 -2.41118e-05 0)
(8.64292e-06 9.64544e-05 0)
(0.000815402 2.9051e-05 2.18222e-18)
(0.000792788 2.8564e-05 1.53424e-18)
(0.00043488 -9.32914e-05 0)
(4.08326e-05 0.000214137 -8.95356e-19)
(2.99917e-07 0.000161392 4.96753e-19)
(5.92241e-05 0.000402048 6.25243e-19)
(0.000307803 7.60514e-05 -9.37129e-19)
(0.000802392 2.01444e-05 1.37387e-19)
(0.00025971 -5.30951e-05 5.31209e-19)
(4.24289e-06 2.915e-05 0)
(2.02078e-05 0.000279253 -1.094e-18)
(0.000322591 0.000321831 -1.61701e-19)
(-2.71265e-07 -2.83163e-05 1.46538e-19)
(0.000670091 0.000811626 0)
(0.000370648 0.000385332 5.74404e-20)
(0.000819458 2.12914e-05 1.07034e-18)
(0.00079963 1.66483e-06 -2.72298e-18)
(5.41479e-06 -2.06187e-05 0)
(0.000666343 -3.65826e-05 -1.1231e-19)
(0.000321962 -0.000128066 1.24319e-18)
(0.00263633 0.000809655 -3.36448e-19)
(6.68456e-06 0.000126239 -6.1319e-19)
(6.54068e-06 0.000154675 1.61951e-18)
(0.000687734 2.37173e-05 -3.89873e-20)
(5.97256e-05 -1.47815e-05 -7.50145e-19)
(0.000808676 3.2991e-05 -3.86857e-19)
(0.000737017 2.66638e-05 -4.10453e-20)
(3.43125e-05 0.000325421 -5.97066e-19)
(0.000492667 6.05359e-05 -4.93921e-19)
(4.5628e-05 -3.76248e-06 1.56148e-19)
(0.000837014 3.37391e-05 -1.09222e-18)
(0.00154591 0.000236033 -1.13708e-18)
(4.68309e-06 5.81787e-05 4.96419e-19)
(0.000811073 3.23631e-05 -4.98163e-19)
(0.000917608 0.000547135 -7.85085e-20)
(0.000147799 0.000785289 0)
(0.000589183 6.39415e-05 0)
(0.000276609 4.86203e-05 -1.60959e-18)
(6.13416e-05 5.58457e-05 -1.37406e-18)
(2.91601e-05 1.92446e-05 0)
(0.00424715 0.0074001 -1.0197e-20)
(0.00422544 0.007372 3.16539e-20)
(0.00442764 0.00757479 -4.96979e-21)
(0.00420639 0.00773429 0)
(0.00419882 0.00760012 5.77298e-19)
(0.00424425 0.00740142 -9.20118e-20)
(0.00421009 0.00804185 4.84516e-19)
(0.00428966 0.00742222 0)
(0.00420834 0.00853491 6.16842e-19)
(0.00432616 0.00745073 2.2393e-19)
(0.000828322 1.28499e-05 -1.37358e-18)
(0.000775026 5.64004e-05 0)
(0.000212295 4.69768e-05 1.27696e-19)
(4.79024e-05 1.43017e-05 8.71823e-20)
(7.5498e-05 4.18259e-05 6.80004e-19)
(0.000102744 3.74776e-05 -3.41661e-19)
(9.61218e-05 2.11452e-06 0)
(4.54073e-05 3.9571e-06 8.18351e-20)
(0.000206844 0.000127702 0)
(0.000163221 3.62494e-05 -5.24294e-20)
(0.000345274 0.000219218 -5.09248e-21)
(5.38003e-05 4.05178e-05 -4.37644e-19)
(8.75488e-05 2.39996e-05 -8.52451e-20)
(8.80788e-05 5.84288e-05 1.31192e-21)
(0.000258146 0.00036354 -6.66165e-19)
(0.00010841 0.000996306 0)
(4.04357e-05 5.02002e-05 3.43054e-19)
(0.000198511 0.00174764 0)
(0.000208167 0.000250331 7.04651e-19)
(3.48155e-05 -3.39774e-06 1.11492e-19)
(0.000487671 0.000162152 -1.72299e-19)
(0.000766812 2.4242e-05 -1.92408e-18)
(4.00299e-05 -1.49471e-06 4.66468e-24)
(0.000144675 1.96222e-05 2.24586e-19)
(0.000245112 8.69937e-05 -8.99312e-20)
(0.000881803 0.000700353 3.34936e-19)
(0.000725986 0.00163446 -9.23536e-21)
(0.000399632 0.00142132 -9.39276e-21)
(0.00102681 0.000546375 0)
(9.72214e-05 -1.79236e-05 1.11868e-18)
(0.000111813 1.10991e-05 -4.43064e-20)
(0.000462982 -0.000283133 -1.13616e-18)
(0.000818957 4.13205e-05 0)
(0.000179064 -5.94315e-06 3.63297e-19)
(0.000301936 0.00130401 0)
(0.0010849 0.000775163 -7.30186e-20)
(0.000827125 3.14607e-05 -1.86551e-19)
(7.21451e-05 -2.24398e-05 -2.99971e-19)
(0.000834457 0.000317388 -2.08042e-20)
(5.13708e-05 -2.1317e-05 -5.99479e-19)
(0.000226835 0.000171429 8.63866e-20)
(0.000230697 0.000307052 -3.45007e-19)
(0.000890851 0.000250067 0)
(0.000820007 5.40903e-05 0)
(0.000264899 0.000130464 1.76844e-19)
(0.000233338 -6.1611e-06 5.00784e-24)
(0.000184628 0.000202534 0)
(0.000300534 0.000650325 -5.55695e-21)
(0.000353489 -1.54235e-05 0)
(0.000377676 0.000598911 0)
(0.000106583 7.83431e-05 -1.34667e-21)
(0.000810488 3.0577e-05 -9.53361e-19)
(0.000806656 1.93818e-05 7.97922e-19)
(0.00012636 5.28982e-05 -1.49853e-19)
(0.000964366 0.000147756 8.50441e-20)
(0.000839119 4.12207e-05 3.3337e-19)
(0.000819453 3.04377e-05 -2.94107e-19)
(0.00102599 0.00041723 0)
(0.00044245 0.00011516 6.24421e-19)
(0.000904406 0.000321864 2.09133e-20)
(0.000583662 0.000153591 0)
(0.000272778 0.000446335 4.09637e-19)
(0.0002622 0.000213419 -8.44166e-20)
(0.0010985 0.000380715 -7.82115e-19)
(0.000630774 0.000103275 -1.79286e-19)
(0.000814991 7.39999e-05 -7.45769e-21)
(0.000843206 2.72301e-05 9.40098e-20)
(6.71956e-05 -8.67584e-05 -1.98133e-18)
(0.000742178 0.000380655 2.19231e-19)
(0.000675617 6.57433e-05 2.30631e-20)
(0.000711071 0.000279365 1.61036e-23)
(0.000734248 0.000460638 -4.09683e-19)
(0.000849066 2.38433e-05 9.06998e-20)
(7.01014e-05 7.62793e-05 0)
(0.000659676 0.000421893 -4.65911e-20)
(0.000182774 9.0198e-05 0)
(0.000374552 0.000501745 -2.64835e-19)
(0.000310706 0.000163474 0)
(0.000679092 0.000205255 3.55217e-19)
(0.000653967 0.00025959 -4.37241e-20)
(8.04762e-05 0.000101102 6.19143e-19)
(0.000879379 9.51559e-05 -1.63243e-18)
(5.51547e-05 2.01074e-05 2.57185e-19)
(0.0008915 7.17817e-05 -1.68611e-18)
(0.000844097 8.97862e-05 1.63009e-19)
(0.000811804 3.4608e-05 1.90876e-18)
(0.00081924 3.37363e-05 -1.32846e-19)
(0.000740649 7.15546e-05 0)
(0.000805799 2.26621e-05 8.95588e-19)
(0.00096562 0.000232957 -4.27087e-19)
(0.000779684 9.68917e-05 -4.83722e-19)
(0.000780685 0.000234282 -8.81196e-20)
(0.000205623 -0.000178296 -2.07716e-18)
(0.000753767 8.01327e-05 8.87512e-19)
(0.000641726 0.000594312 0)
(7.66774e-05 -0.000119703 0)
(0.00122558 0.000473105 4.97272e-19)
(0.000593717 -5.99574e-05 -3.26967e-18)
(0.00134926 0.000414836 5.76479e-19)
(0.00124792 0.000717904 -6.38918e-20)
(0.000814368 3.20195e-05 -2.12437e-19)
(0.00083935 6.69464e-05 -1.4265e-18)
(0.000815035 2.71838e-05 1.58772e-18)
(0.000816846 2.48396e-05 9.7819e-20)
(0.000671946 0.000353103 -4.40393e-20)
(0.000100393 0.000118995 6.79955e-24)
(0.000757272 -3.53751e-05 2.65048e-19)
(0.000213005 -0.000263737 -7.3188e-19)
(0.000629942 0.000184743 0)
(0.000715849 4.84608e-05 9.90363e-20)
(0.000704727 9.64561e-06 -3.80798e-19)
(0.000392206 0.000167756 3.93354e-20)
(0.000809449 0.000508249 -1.65472e-19)
(0.000147077 7.08765e-05 3.50202e-25)
(0.000814816 0.00041299 0)
(0.000983711 0.000316862 4.15757e-20)
(0.0007623 -7.02875e-05 -6.16082e-19)
(0.000351045 0.000100781 4.97802e-19)
(0.000904403 0.000427023 0)
(4.7161e-05 2.93917e-05 1.33707e-19)
(0.000488171 0.000265198 2.13945e-19)
(0.00052469 -0.000160271 -7.09457e-19)
(0.000115726 -0.000168239 -1.05592e-18)
(0.000825593 3.59217e-05 -4.86757e-19)
(0.000769486 -7.76025e-05 -1.94337e-19)
(0.000547599 0.000729718 -1.17436e-18)
(0.000850977 4.71746e-05 -6.74494e-20)
(0.00060219 -1.78616e-05 1.28036e-18)
(0.000710001 9.95942e-05 2.27772e-20)
(0.000536709 0.000207141 -1.6568e-19)
(2.81288e-05 -2.05151e-05 -8.75814e-20)
(0.00016056 -5.071e-05 2.40598e-18)
(1.57093e-05 6.45988e-07 -1.9484e-19)
(0.000834192 0.000116107 3.63732e-19)
(0.00067094 0.000135641 0)
(0.000180116 -9.6323e-05 -1.04812e-18)
(0.000117221 -2.21791e-05 3.12851e-19)
(0.000101936 -3.81895e-05 1.29423e-23)
(0.000803002 0.00010542 -3.19251e-19)
(0.000149794 -1.6955e-05 0)
(0.000589284 0.000240554 0)
(0.000111317 0.000326789 -3.62844e-19)
(0.000864313 0.000100893 2.10387e-18)
(1.27932e-05 9.36798e-07 0)
(0.000882893 5.32e-05 0)
(4.01007e-05 -2.55115e-05 0)
(0.000815409 4.75485e-05 -4.46791e-21)
(0.000787391 -3.93299e-05 0)
(0.00426012 0.00740655 8.07058e-20)
(0.00436203 0.00748663 1.43362e-19)
(0.000843685 -1.02029e-05 0)
(0.000791532 -4.29248e-05 8.12152e-19)
(0.000152228 0.000120937 1.49205e-19)
(0.000856704 6.74847e-05 8.07751e-19)
(0.000128523 9.7944e-05 2.34389e-20)
(0.000784441 -2.6013e-05 6.2434e-19)
(3.30712e-05 8.89955e-06 0)
(2.58525e-05 -1.26686e-05 -4.48464e-20)
(0.000901109 4.8632e-05 -4.86533e-19)
(2.96987e-05 -3.05466e-05 -6.69779e-19)
(0.000761336 0.000123463 -4.23222e-20)
(0.000168691 0.000158727 -1.88095e-19)
(0.000814607 2.97723e-05 0)
(0.00468248 0.00815358 9.00666e-22)
(0.000185516 0.00078968 3.33476e-19)
(0.000109617 -6.23306e-05 -9.14495e-19)
(5.64474e-05 -3.49997e-05 -1.16873e-18)
(0.000621728 1.34385e-05 1.89836e-20)
(0.000582657 0.000406544 0)
(0.000421311 0.000444082 -2.56325e-19)
(7.66499e-05 -6.18991e-05 1.18367e-18)
(0.000580572 -1.76081e-07 7.69501e-20)
(3.98737e-05 1.52229e-06 4.0708e-19)
(0.000710012 -4.85698e-05 1.17157e-18)
(0.000811881 3.27292e-05 -6.02482e-19)
(5.85694e-05 -5.48532e-05 1.70929e-18)
(0.000842177 -3.10364e-05 -5.88527e-24)
(0.000598201 6.67803e-06 -3.76142e-20)
(0.000870927 7.0784e-05 0)
(0.000842332 4.35709e-05 0)
(0.00591732 0.00724196 2.59731e-19)
(1.62858e-05 -2.57986e-06 -1.19583e-19)
(0.000113983 -0.000107422 7.72977e-19)
(0.000729395 0.000116507 -6.96408e-19)
(1.91475e-05 9.13773e-08 2.01519e-19)
(0.000632917 -3.60943e-05 -7.23781e-19)
(0.00074756 3.64511e-05 1.55798e-18)
(0.000708143 0.000159073 -3.55424e-19)
(0.000807624 -1.23282e-05 3.60822e-19)
(7.10285e-05 -3.52237e-05 1.11595e-18)
(0.000800605 6.67007e-06 -3.22676e-19)
(0.000869238 3.99372e-05 0)
(0.000544506 0.000302885 4.21004e-20)
(0.000861061 5.09004e-05 -9.46988e-19)
(1.69391e-05 2.6292e-06 9.11326e-19)
(0.000856299 4.50346e-05 9.65669e-19)
(0.000859383 1.49672e-05 -9.64602e-19)
(0.000756127 -1.76625e-06 -5.69149e-19)
(0.000530522 -7.66539e-05 -5.25625e-19)
(0.00432913 0.00745295 2.47061e-19)
(0.00422344 0.00752894 -2.5356e-19)
(0.0042212 0.00758682 2.6692e-19)
(0.00425589 0.00741063 1.9798e-19)
(0.000844914 -3.15725e-05 1.44232e-19)
(0.00447613 0.00751301 0)
(0.0044036 0.00751725 -3.8689e-19)
(2.65572e-05 -1.26169e-07 -9.9812e-19)
(0.00417054 0.0074692 -6.33691e-20)
(0.00414591 0.00743235 -2.21525e-19)
(0.00602946 0.0106058 0)
(0.00654045 0.0111874 3.71444e-20)
(0.0060094 0.0105755 0)
(0.00655615 0.011211 1.30882e-19)
(0.00599674 0.0105994 2.69712e-19)
(0.00659285 0.0112278 1.24608e-20)
(0.00593546 0.0106122 -7.76848e-19)
(0.00662311 0.0111468 8.15084e-21)
(0.00390367 0.00919879 -1.90848e-19)
(0.0041868 0.00748823 3.89979e-21)
(0.00423798 0.00755231 7.9364e-20)
(0.00415039 0.00743466 4.12057e-20)
(0.000884672 0.000193549 4.46723e-20)
(8.99247e-06 1.27246e-06 0)
(0.000711416 -0.000115 0)
(0.000660796 5.33391e-05 0)
(0.00244377 0.00111254 4.23218e-21)
(0.000756541 -3.13644e-05 1.72573e-19)
(3.84393e-05 5.18978e-06 4.54043e-20)
(8.49804e-06 -2.52916e-05 1.65304e-18)
(0.000854555 1.14046e-05 0)
(2.64871e-05 1.18422e-05 -1.91722e-19)
(0.000139686 0.000220747 0)
(1.54235e-05 -9.46445e-07 0)
(1.2363e-05 -1.18997e-06 0)
(0.000827836 0.000142834 1.13745e-20)
(0.00081098 -1.80479e-05 1.79476e-19)
(3.72467e-05 0.000267705 -1.3204e-23)
(0.00015721 0.00027094 -1.8419e-18)
(0.000605709 0.000328019 -8.56982e-20)
(0.000898093 0.000110115 6.01221e-19)
(0.000639397 -0.0001928 6.73807e-19)
(0.000361517 0.00111109 0)
(0.00047573 0.000575353 2.71524e-18)
(8.95707e-05 0.000143324 -1.8031e-18)
(1.94865e-05 -5.90871e-08 0)
(0.000822014 -6.04877e-05 3.63932e-20)
(1.54761e-05 3.44833e-05 1.64445e-18)
(0.000897845 3.35392e-05 2.71157e-19)
(-2.39482e-05 3.25113e-05 3.80968e-18)
(0.000928937 4.03973e-05 -2.69025e-19)
(0.00134343 0.000150999 7.47189e-19)
(3.29859e-05 -1.02987e-05 8.25689e-20)
(3.45587e-05 3.22734e-06 -8.59085e-19)
(5.07774e-05 0.000139887 0)
(0.000913137 8.31629e-05 5.98517e-19)
(0.000495395 0.000367723 2.37141e-19)
(0.000645899 1.76824e-05 -3.89114e-20)
(0.000781113 -1.48894e-06 2.5737e-19)
(0.000734497 -0.000167246 0)
(0.00632125 0.0108961 -1.6808e-19)
(0.00637902 0.0109738 4.05878e-19)
(0.00616024 0.0107309 -6.1851e-19)
(0.00650149 0.0111327 -8.09891e-20)
(3.3474e-05 0.000116795 8.00524e-19)
(0.000923554 6.0419e-05 1.45208e-22)
(0.00641158 0.0110063 -3.86503e-19)
(0.0062822 0.0108458 5.48529e-19)
(0.00608035 0.0106727 -4.16876e-19)
(0.00652199 0.0111651 -6.81483e-20)
(7.97603e-05 0.000501135 -2.01813e-20)
(7.0151e-05 -0.000200168 -7.92871e-19)
(0.000661031 -2.06783e-05 -7.65553e-19)
(0.000726268 0.00021997 0)
(0.000800206 2.90035e-07 0)
(0.000187118 0.000389223 3.36296e-19)
(0.00059956 0.000512901 -5.41864e-19)
(8.31726e-06 -1.42976e-06 1.78393e-19)
(0.000200512 0.000467318 -7.3839e-19)
(0.00101424 0.000975251 -1.12688e-19)
(0.000746527 0.000165894 0)
(0.000790147 0.000184397 1.31019e-19)
(0.00635339 0.00588143 1.13156e-18)
(0.00073882 0.00112905 8.26613e-20)
(3.76672e-05 3.691e-05 -7.4468e-20)
(0.000809149 1.16585e-05 0)
(0.000873569 2.52838e-05 -3.56904e-20)
(3.29104e-05 2.8678e-06 -1.96715e-19)
(2.85345e-05 4.25552e-06 1.92994e-19)
(0.000833737 1.67885e-05 5.37211e-19)
(0.000975898 0.000111043 6.58301e-19)
(0.000555894 4.08042e-05 0)
(0.000222874 -0.00029179 -3.98109e-19)
(0.000916862 0.000145452 3.89592e-19)
(9.13508e-06 -5.68754e-05 2.03116e-19)
(0.00145212 0.000442709 -2.58181e-18)
(0.00058418 -9.42531e-06 0)
(0.000794035 0.000143372 3.75466e-19)
(9.49001e-05 0.00039279 0)
(0.00118822 0.00816114 4.6216e-19)
(0.000492553 0.000499118 -1.22454e-18)
(0.000540941 0.00101256 -1.83753e-19)
(0.000883289 1.69648e-05 -1.46055e-19)
(1.23974e-05 2.43983e-05 0)
(0.000951501 7.75071e-05 6.11671e-19)
(0.00410635 0.00739548 8.14352e-20)
(0.00417138 0.00747368 4.73077e-20)
(0.00449995 0.00751572 4.54122e-19)
(0.0044451 0.0075415 -3.29463e-19)
(0.00647542 0.0111097 8.10666e-20)
(0.00391483 0.00714608 -9.62379e-22)
(0.00550812 0.00779844 -5.64817e-19)
(0.00409787 0.0073717 5.21915e-21)
(0.00518884 0.00785811 5.11746e-19)
(0.00407968 0.00734015 -4.87248e-20)
(0.00495392 0.0077175 0)
(0.00408498 0.00736455 -8.56656e-20)
(0.00474257 0.00758852 4.9258e-19)
(0.00409825 0.00737615 8.75229e-20)
(0.00457516 0.00752815 0)
(0.00428368 0.00742078 1.39762e-19)
(0.00423942 0.00759842 5.80609e-19)
(0.00446753 0.00752696 -5.55498e-19)
(0.00438779 0.0075048 3.71429e-19)
(0.004228 0.00752486 2.87757e-19)
(0.00643077 0.011043 -4.97744e-21)
(0.0041178 0.00740159 3.11629e-20)
(0.00645888 0.0110729 0)
(2.30319e-05 5.43728e-06 -1.89859e-19)
(0.00200006 0.00654449 2.28255e-19)
(0.000838454 -5.2706e-05 1.09866e-19)
(0.000855415 6.94749e-06 0)
(1.32029e-06 1.0818e-06 -3.99111e-19)
(-1.56271e-05 -0.000118221 6.91846e-19)
(2.40686e-05 5.55059e-05 2.089e-18)
(0.000830609 0.000181899 -9.00708e-20)
(0.000800817 8.82755e-06 7.06386e-19)
(1.01543e-06 -7.82794e-07 3.09988e-19)
(1.71181e-05 -3.24093e-05 -1.84564e-18)
(0.00076315 2.71776e-05 1.63151e-19)
(0.000869093 0.000124 -3.07985e-20)
(0.000800691 -8.27218e-06 1.48134e-19)
(0.00042014 0.000680068 0)
(3.2835e-05 -0.000143456 1.15144e-18)
(0.000867027 5.93274e-06 1.52518e-19)
(1.94062e-05 2.3073e-05 0)
(0.000116715 0.00055838 -6.31251e-19)
(0.000609754 0.000590955 1.31795e-18)
(0.00032728 0.000753903 0)
(0.000801625 -1.613e-05 0)
(0.000801337 2.93595e-06 1.17554e-18)
(1.68315e-05 4.79591e-05 -3.51495e-18)
(1.59227e-05 6.73878e-06 3.73622e-19)
(0.000116344 0.000142955 0)
(4.21265e-05 -4.03202e-05 0)
(6.1007e-05 0.000110867 2.00999e-19)
(0.000938363 0.000189172 3.5043e-19)
(0.000800166 1.51364e-05 -1.39917e-18)
(2.22476e-05 3.21902e-05 0)
(0.000443631 7.27342e-06 -6.04283e-20)
(0.000800847 3.75787e-05 -1.56346e-19)
(0.000844438 3.9296e-05 1.0642e-18)
(0.000256922 0.000542027 6.32233e-19)
(0.000878674 0.000156826 0)
(1.72212e-05 -2.25346e-05 5.38627e-19)
(2.19646e-06 -4.72086e-06 -3.19965e-19)
(0.00096717 3.24771e-05 0)
(0.00103865 0.00226714 0)
(0.000926654 -2.63052e-06 0)
(0.00100334 0.000207691 4.27175e-19)
(0.000817893 -3.54434e-05 -2.84223e-19)
(0.000934216 0.000109514 -6.8477e-19)
(0.000800877 3.39294e-06 0)
(4.15076e-05 6.73238e-05 -1.71566e-19)
(0.0001745 0.000325964 1.08114e-18)
(0.000799774 1.41056e-05 -2.12141e-23)
(0.00109526 0.00020989 -6.68879e-19)
(0.00108978 0.000126876 0)
(2.33358e-06 5.54379e-06 2.51029e-19)
(1.72421e-05 -1.45322e-05 -1.94313e-19)
(0.000567089 4.19426e-05 6.95009e-21)
(4.71515e-06 -7.45607e-05 0)
(0.00106601 0.000255202 9.50029e-19)
(0.0050287 0.00974857 -2.83052e-19)
(0.00312135 0.00961757 1.27275e-18)
(3.43023e-05 -0.00010219 -1.91336e-19)
(5.00798e-05 -7.41148e-05 1.85948e-18)
(0.00119043 0.000250055 1.67347e-19)
(0.00132842 0.00107845 2.34088e-19)
(0.000811017 1.12251e-06 -7.33633e-19)
(0.000197107 0.000950892 -2.3824e-19)
(0.000816888 0.000940081 -2.18586e-19)
(0.000800153 -2.47023e-06 0)
(8.34256e-05 0.000620236 0)
(9.515e-05 0.00028099 -3.87619e-23)
(0.00071888 -4.45314e-05 -1.67758e-23)
(0.000824107 6.75562e-05 1.52606e-19)
(0.00263078 0.00206292 -1.2313e-18)
(0.00175989 0.00923776 -1.17232e-19)
(0.000834845 5.9604e-05 4.92261e-19)
(0.00632591 0.0040501 -1.76034e-19)
(0.00672108 0.0115577 -1.36485e-20)
(0.00473412 0.00784388 4.93003e-21)
(0.000802992 1.36706e-05 -2.18874e-18)
(0.000839087 5.67315e-06 6.09712e-24)
(7.77101e-06 -6.94163e-06 -3.48018e-19)
(4.61046e-05 8.80849e-05 -3.4928e-19)
(6.49843e-05 0.000267645 8.75243e-19)
(1.03989e-05 1.5472e-05 4.90409e-19)
(8.96508e-05 0.000228415 3.69768e-19)
(0.000821965 2.07751e-05 0)
(0.00534811 0.00949244 1.95036e-20)
(0.00153747 0.000636812 -2.61246e-20)
(0.000819769 3.70152e-05 3.60177e-19)
(2.9103e-05 -7.97851e-05 0)
(0.00184777 0.000746335 5.45997e-19)
(8.83869e-06 7.07993e-06 -2.70156e-19)
(3.30159e-05 2.75336e-05 9.71828e-20)
(0.00133084 0.00139713 6.36629e-19)
(0.000737126 4.89205e-05 1.83103e-19)
(4.02864e-06 -1.37945e-06 -1.70204e-19)
(0.00206175 0.00156085 -1.05587e-18)
(0.000126523 0.000177063 -8.18762e-19)
(0.00392117 0.00848716 -1.09092e-18)
(4.81424e-06 1.39965e-06 8.81434e-20)
(0.000122467 -9.39417e-05 -1.25738e-18)
(4.48128e-05 -5.65937e-05 4.05646e-20)
(0.00152604 0.000985029 0)
(0.0010405 0.000138647 -4.03851e-22)
(0.000453402 0.000848437 -4.0204e-20)
(0.000802971 2.7627e-05 -2.34079e-19)
(8.7066e-05 0.000183261 7.36074e-19)
(2.82525e-05 -5.95493e-05 4.04009e-19)
(1.78212e-05 1.46418e-05 -9.4711e-20)
(3.07276e-05 9.05188e-05 -3.20293e-19)
(0.00020968 -0.000230409 -5.45286e-19)
(0.00324995 0.00346233 2.89646e-21)
)
;

boundaryField
{
    back
    {
        type            empty;
    }
    ingreso
    {
        type            fixedValue;
        value           uniform (0.0008 0 0);
    }
    salida
    {
        type            zeroGradient;
    }
    front
    {
        type            empty;
    }
    defaultFaces
    {
        type            noSlip;
    }
}


// ************************************************************************* //
