/*--------------------------------*- C++ -*----------------------------------*\
  =========                 |
  \\      /  F ield         | OpenFOAM: The Open Source CFD Toolbox
   \\    /   O peration     | Website:  https://openfoam.org
    \\  /    A nd           | Version:  7
     \\/     M anipulation  |
\*---------------------------------------------------------------------------*/
FoamFile
{
    version     2.0;
    format      ascii;
    class       volScalarField;
    location    "16";
    object      p;
}
// * * * * * * * * * * * * * * * * * * * * * * * * * * * * * * * * * * * * * //

dimensions      [0 2 -2 0 0 0 0];

internalField   nonuniform List<scalar> 
591
(
0.000124266
0.00012428
0.000124307
0.000124267
0.000124268
0.000124397
0.000124321
0.000124303
0.000117138
0.000124295
0.000124442
0.000123144
0.000124379
0.000120024
0.000124306
0.000124324
0.000124196
0.000124334
0.000122247
0.000123672
0.000124267
-1.54566e-06
0.000124441
0.000124268
0.000124396
0.000124275
0.000124328
0.000124362
0.000124286
0.000124343
0.000124416
0.000124393
0.000124413
0.000124411
0.000124415
0.000123774
0.00012441
0.000124286
0.000124433
0.000124346
0.000124329
0.000124406
0.000124292
0.000124321
0.000124404
0.00012442
0.000119565
0.000124424
0.000124299
0.000124407
0.000124355
0.000124398
2.37691e-05
3.02701e-05
4.8056e-05
0.000124335
0.000124427
0.000124408
0.000124421
0.00012426
0.000124336
0.000124284
0.000124295
0.000124411
0.000122875
0.000124288
0.000124294
0.000124419
0.000121008
0.000124329
0.000124291
0.000124425
0.000124381
0.000124406
0.000124411
0.000124386
0.000124254
0.000124422
0.000124262
0.000124176
0.000124049
0.000124426
0.00012439
0.000124354
0.000124435
0.00012427
0.000124359
0.000124417
0.000124381
0.000124148
0.000124395
0.000124322
0.000124352
0.000124274
0.000124433
0.000124395
0.000123981
0.000123871
0.000123985
0.000124436
0.000124349
0.000124274
0.00012444
0.000124272
0.000124438
0.000124297
0.000124286
0.000124387
0.000124432
0.000124436
0.000124321
0.000124406
0.000124307
0.000124415
0.000124435
0.000124417
0.000124354
0.000124368
0.000123904
0.000124319
0.000124293
0.000124403
0.000124319
0.000124275
0.000124413
0.000120475
0.000124439
0.000124408
0.000124051
0.000124412
0.000124279
0.000123973
0.000124377
0.000124373
0.000124415
0.000124311
0.000122942
0.00012444
0.000124293
0.000123913
0.000123975
0.000124346
0.000124417
0.000124433
0.000124428
8.7963e-06
5.0253e-06
3.48182e-06
3.84953e-05
3.6976e-05
6.95096e-06
3.85609e-05
1.61024e-05
3.75494e-05
1.79704e-05
0.00012429
0.000124267
0.000124426
0.000124423
0.000124429
0.000124426
0.000124421
0.000124419
0.000124421
0.000124422
0.000124379
0.000124431
0.000124425
0.00012443
0.000124354
0.000123712
0.000124433
0.000122414
0.000124401
0.000124415
0.000124354
0.000124289
0.000124414
0.000124423
0.000124419
0.000123822
0.000122772
0.000123357
0.000123783
0.000124418
0.000124422
0.000124394
0.000124266
0.000124414
0.000123255
0.000123633
0.000124268
0.000124415
0.00012412
0.000124407
0.000124412
0.000124381
0.000124086
0.000124253
0.000124412
0.000124427
0.000124414
0.000124205
0.000124394
0.000124207
0.000124431
0.000124297
0.000124291
0.000124427
0.000124063
0.000124257
0.000124316
0.00012389
0.000124379
0.00012404
0.000124324
0.000124317
0.0001244
0.000123815
0.000124321
0.000124238
0.000124262
0.000124386
0.000124152
0.000124316
0.000124223
0.000124124
0.000124252
0.000124434
0.000124187
0.000124427
0.000124257
0.000124401
0.000124267
0.000124261
0.000124432
0.000124178
0.000124425
0.000124174
0.000124221
0.000124314
0.000124278
0.00012429
0.00012429
0.000124033
0.000124251
0.000124195
0.000124392
0.000124281
0.000124095
0.000124379
0.000123643
0.000124221
0.000123574
0.000123399
0.000124285
0.000124239
0.000124276
0.000124273
0.000124207
0.00012443
0.000124308
0.000124375
0.000124296
0.000124313
0.000124323
0.000124379
0.000124041
0.000124426
0.000124083
0.000123972
0.000124305
0.000124404
0.000123986
0.000124428
0.000124325
0.00012437
0.000124386
0.000124316
0.000124256
0.000124039
0.000124248
0.00012426
0.000124293
0.000124325
0.000124402
0.000124411
0.000124422
0.00012421
0.000124296
0.000124404
0.000124416
0.000124412
0.000124235
0.000124426
0.000124294
0.000124393
0.000124195
0.000124424
0.000124194
0.000124402
0.000124334
0.000124261
1.24892e-05
2.19462e-05
0.000124248
0.00012429
0.00012443
0.000124225
0.000124429
0.000124299
0.000124424
0.000124404
0.000124191
0.000124398
0.000124249
0.000124424
0.000124306
-2.97908e-08
0.000124092
0.000124404
0.000124401
0.000124152
0.000124242
0.000124265
0.000124396
0.000124217
0.000124419
0.00012432
0.000124302
0.000124394
0.00012427
0.000124186
0.000124209
0.000124316
4.76497e-05
0.000124412
0.000124395
0.000124275
0.000124419
0.000124344
0.000124301
0.000124271
0.000124281
0.000124406
0.000124386
0.000124222
0.000124289
0.000124227
0.00012442
0.000124234
0.000124259
0.000124306
0.000124386
1.99494e-05
2.69116e-05
3.42495e-05
1.06594e-05
0.000124269
3.27937e-05
2.58468e-05
0.000124416
1.91532e-05
1.7254e-05
3.83279e-05
8.80664e-06
4.02634e-05
6.92588e-06
4.12794e-05
5.02586e-06
4.31166e-05
3.13151e-06
3.66532e-05
2.29674e-05
2.9045e-05
1.54323e-05
0.000124125
0.000124426
0.000124325
0.000124346
0.000121191
0.000124457
0.000124421
0.000124392
0.000124248
0.000124426
0.000124417
0.00012441
0.000124408
0.000124191
0.000124269
0.000124401
0.000124405
0.000124251
0.000124149
0.00012411
0.00012372
0.000124191
0.000124438
0.000124414
0.000124287
0.000124437
0.000124151
0.000124273
0.000124103
0.000123197
0.000124408
0.000124418
0.000124433
0.00012414
0.000124282
0.00012411
0.0001243
0.00012426
2.56825e-05
2.18044e-05
3.2913e-05
1.24575e-05
0.000124444
0.000124158
1.97969e-05
2.78284e-05
3.5637e-05
1.06652e-05
0.00012425
0.000124363
0.000124249
0.000124235
0.000124386
0.000124362
0.000124151
0.000124405
0.000124325
0.000123419
0.000124243
0.000124212
5.94891e-05
0.000123553
0.000124431
0.000124287
0.000124186
0.00012442
0.000124422
0.000124277
0.000124054
0.000124308
0.000124348
0.000124126
0.000124376
0.000123251
0.000124247
0.000124226
0.000124368
0.000101028
0.00012421
0.000123817
0.000124218
0.000124434
0.000124113
1.17903e-05
2.10715e-05
3.54008e-05
2.79505e-05
1.42439e-05
1.42036e-06
4.22996e-05
4.11525e-06
4.04251e-05
6.0964e-06
3.97156e-05
8.01248e-06
3.89508e-05
9.91707e-06
3.75681e-05
1.42953e-05
3.14465e-05
3.0262e-05
2.38764e-05
2.49339e-05
1.78767e-05
1.36298e-05
1.60475e-05
0.000124425
0.000102595
0.00012427
0.000124218
0.00012443
0.000124328
0.000124435
0.00012417
0.000124396
0.000124401
0.000124395
0.000124506
0.000124168
0.000124363
0.000124134
0.000124364
0.000124245
0.000124429
0.000124272
0.000124111
0.00012411
0.000124375
0.000124415
0.000124439
0.000124427
0.000124431
0.000124398
0.000124435
0.000124084
0.000124293
0.000124431
0.000124234
0.000124439
0.00012429
0.000124277
0.000124153
0.000124399
0.000124398
0.000123738
0.000121697
0.000123465
0.000124
0.000124281
0.000124115
0.00012439
0.000124433
0.000124386
0.000124326
0.000123891
0.000123889
0.000124431
0.000124401
0.00012433
0.000124362
0.000123922
5.85329e-05
4.02738e-05
0.000124371
0.000124388
0.000123775
0.000123066
0.000124286
0.000123945
0.000123699
0.000124368
0.00012414
0.000124408
0.000124303
0.000124355
0.000119262
5.46057e-05
0.00012433
8.13694e-05
2.28429e-06
4.66647e-07
0.000124289
0.000124272
0.0001244
0.000124434
0.00012442
0.000124432
0.000124421
0.000124279
-1.51261e-06
0.000123164
0.00012431
0.000124378
0.000122302
0.00012443
0.000124429
0.000122584
0.000124393
0.000124402
0.000122007
0.000124427
7.65422e-05
0.000124428
0.000123849
0.000124392
0.000122689
0.000123986
0.000123997
0.000124328
0.000124429
0.000124386
0.000124428
0.000124443
0.000124285
0.000116418
)
;

boundaryField
{
    back
    {
        type            empty;
    }
    ingreso
    {
        type            zeroGradient;
    }
    salida
    {
        type            fixedValue;
        value           uniform 0;
    }
    front
    {
        type            empty;
    }
    defaultFaces
    {
        type            zeroGradient;
    }
}


// ************************************************************************* //
