/*--------------------------------*- C++ -*----------------------------------*\
  =========                 |
  \\      /  F ield         | OpenFOAM: The Open Source CFD Toolbox
   \\    /   O peration     | Website:  https://openfoam.org
    \\  /    A nd           | Version:  7
     \\/     M anipulation  |
\*---------------------------------------------------------------------------*/
FoamFile
{
    version     2.0;
    format      ascii;
    class       volVectorField;
    location    "16";
    object      U;
}
// * * * * * * * * * * * * * * * * * * * * * * * * * * * * * * * * * * * * * //

dimensions      [0 1 -1 0 0 0 0];

internalField   nonuniform List<vector> 
591
(
(0.000808626 -5.08636e-05 1.22735e-18)
(0.000760175 -4.15685e-05 -6.61159e-19)
(0.000837967 -6.46714e-05 5.76063e-20)
(0.00082546 1.36175e-05 -1.48169e-19)
(0.00081427 2.04683e-05 2.22792e-19)
(0.00072166 -2.20818e-05 -1.3882e-19)
(0.000520273 -0.000393253 7.96163e-19)
(0.0007996 -1.05046e-05 2.08626e-18)
(0.00576325 0.00248991 9.88517e-19)
(0.000776702 -2.54594e-05 2.37992e-18)
(6.60641e-05 0.000180196 1.22005e-18)
(0.00088579 0.00125285 9.43025e-21)
(0.000779161 1.42382e-05 1.29207e-18)
(0.00154552 0.00233332 -7.88248e-19)
(0.000795702 4.45173e-05 -4.39548e-19)
(0.000157176 -0.000260009 2.70795e-22)
(0.00012907 0.000659027 7.06924e-19)
(0.000843239 1.86756e-05 -4.93876e-19)
(0.00201566 0.000394272 4.74085e-19)
(0.00133161 0.000309362 -2.47932e-19)
(0.000819502 2.51054e-05 3.69954e-19)
(0.0034974 0.00708128 -3.14998e-20)
(4.04819e-05 7.85002e-05 2.71418e-19)
(0.00081292 1.03172e-05 -4.45011e-19)
(2.01283e-05 -2.53722e-05 3.5988e-19)
(0.000769202 2.13678e-05 0)
(8.89022e-05 0.00047842 1.60368e-19)
(0.000507503 3.45477e-05 -1.79378e-19)
(0.000735252 6.47809e-05 1.14011e-18)
(0.000819453 -2.1687e-05 5.90773e-19)
(6.99742e-05 4.25601e-07 -9.23703e-25)
(5.03394e-05 -5.61503e-05 3.53201e-19)
(4.87548e-05 -4.79173e-06 -4.65247e-20)
(5.79399e-05 -8.4884e-06 0)
(6.4546e-05 -1.59861e-05 1.13259e-18)
(0.0011579 0.000138169 1.80601e-19)
(4.25597e-05 -8.00978e-06 4.48447e-20)
(0.000811845 1.37658e-05 4.7855e-23)
(3.81524e-05 5.41818e-05 2.66676e-19)
(7.62325e-05 -0.000156531 -8.56598e-19)
(0.000521602 -0.000163673 9.58866e-19)
(3.55992e-05 -1.05261e-05 4.56145e-20)
(0.00079425 -9.19348e-06 -1.54607e-18)
(0.000815871 3.86333e-06 -6.80075e-19)
(2.61312e-05 -1.26362e-05 0)
(6.54539e-05 1.22408e-05 8.54325e-20)
(0.00133732 0.00452763 8.94423e-19)
(8.80733e-05 2.51056e-05 8.66099e-20)
(0.00078531 5.1205e-05 0)
(0.000360018 -0.000122243 6.80024e-19)
(0.000366142 0.000281644 5.1333e-21)
(0.000381665 8.28416e-05 -1.00674e-18)
(0.00644548 0.010943 -7.62154e-19)
(0.00624447 0.0108223 1.62564e-20)
(0.00561677 0.0103712 1.46323e-18)
(0.000804426 -4.89765e-05 0)
(7.65543e-05 3.99896e-05 0)
(0.000332603 3.4232e-05 9.63567e-24)
(7.43814e-05 1.68835e-05 -3.47453e-19)
(0.000861976 -8.69658e-06 0)
(0.00059913 2.6407e-05 3.18533e-19)
(0.000790028 1.35791e-05 2.16293e-18)
(0.000757362 -4.93056e-06 -5.42858e-19)
(0.000734588 1.62528e-05 -3.13523e-19)
(0.00170826 0.000541744 5.45767e-19)
(0.000788482 -5.55703e-06 -1.13435e-18)
(0.000796856 4.1307e-06 -5.12407e-19)
(9.73531e-05 5.86398e-06 -1.73871e-19)
(0.000720141 0.00230249 0)
(0.000809524 5.24039e-06 0)
(0.000725486 1.8836e-05 -1.36655e-18)
(4.57817e-05 2.0951e-05 0)
(0.000278326 0.000277611 3.27743e-19)
(5.3972e-05 -2.20546e-05 0)
(5.28964e-05 -7.61032e-06 1.59931e-19)
(3.78124e-05 -6.00496e-05 -3.37584e-20)
(0.000753615 5.11695e-05 2.42896e-19)
(5.28216e-05 1.50799e-05 0)
(0.000773289 6.63239e-05 4.40779e-19)
(0.000739289 0.000302283 2.11348e-19)
(0.000956151 6.07032e-05 -3.99233e-20)
(5.09885e-05 2.94836e-05 -4.53162e-20)
(7.11184e-06 -4.8761e-05 0)
(0.000414926 0.000226496 1.70662e-19)
(1.51966e-06 3.83814e-05 0)
(0.000734351 -8.78262e-06 -5.99887e-19)
(0.000541257 -0.000104418 0)
(7.76519e-05 3.66973e-06 -1.74977e-19)
(5.18397e-06 -6.45466e-05 0)
(0.000799826 0.000243369 -3.42298e-19)
(5.05625e-06 -3.05668e-05 0)
(0.000410023 0.000323352 -1.18938e-23)
(0.000501738 0.000118459 0)
(0.000790756 3.98595e-05 3.7863e-24)
(2.93063e-06 2.61862e-05 -4.22921e-20)
(0.000426323 1.61009e-05 1.76882e-18)
(0.00101017 7.67453e-05 4.17447e-20)
(0.00100582 2.92269e-05 6.42673e-22)
(0.000718013 0.000644624 2.69282e-19)
(2.97377e-06 7.18094e-05 0)
(8.78984e-06 -0.000128104 -3.13129e-19)
(2.20429e-05 -0.000221182 -1.10388e-18)
(-2.77034e-07 0.00011053 -5.97356e-19)
(0.000746689 -3.65635e-06 0)
(2.02158e-06 0.000139143 0)
(0.000782593 -3.97115e-06 2.17079e-18)
(0.000741257 3.76604e-05 1.49735e-18)
(0.000393329 -2.72951e-05 0)
(5.85499e-05 0.000235858 -8.96329e-19)
(-1.03437e-06 0.00022 4.97046e-19)
(9.19879e-05 0.000490485 6.26913e-19)
(0.000286403 0.000126184 -9.36596e-19)
(0.000817505 2.95288e-06 1.35065e-19)
(0.000269106 2.3006e-06 5.32609e-19)
(1.88068e-06 5.13419e-05 0)
(5.18998e-05 0.000325827 -1.09129e-18)
(0.000310053 0.000329929 -1.62145e-19)
(8.8167e-06 -9.43193e-05 1.46973e-19)
(0.000637087 0.000770268 0)
(0.000353163 0.000390435 5.75989e-20)
(0.000800426 -9.53594e-07 1.03459e-18)
(0.000729305 -4.26797e-05 -2.69492e-18)
(8.20831e-06 -0.00017015 0)
(0.000772458 -1.19842e-05 -1.11621e-19)
(0.000316115 -4.59774e-05 1.24696e-18)
(0.00272351 0.000814941 -3.35856e-19)
(-5.46816e-06 0.000171375 -6.14181e-19)
(-1.90829e-05 0.000213999 1.62221e-18)
(0.000876369 1.84716e-05 -3.8984e-20)
(7.59087e-05 -4.62377e-06 -7.51538e-19)
(0.000773097 3.99691e-05 -3.89739e-19)
(0.000929273 2.84823e-05 -4.11119e-20)
(7.30456e-05 0.000393693 -5.98068e-19)
(0.000462421 8.58287e-05 -4.95348e-19)
(6.06761e-05 -1.63775e-06 1.56604e-19)
(0.000821006 -2.04489e-05 -1.06061e-18)
(0.00166752 0.000216143 -1.13961e-18)
(-9.22198e-07 8.53657e-05 4.97316e-19)
(0.000783838 -2.18382e-06 -5.04554e-19)
(0.000871314 0.000537261 -7.87336e-20)
(0.000135451 0.00088077 0)
(0.000545994 6.96176e-05 0)
(0.000265178 6.54332e-05 -1.61118e-18)
(7.03402e-05 6.78482e-05 -1.37802e-18)
(3.7059e-05 2.57682e-05 0)
(0.00413089 0.0076966 -1.00482e-20)
(0.00415467 0.0077089 4.27799e-20)
(0.00436621 0.00789357 -1.89065e-20)
(0.00420323 0.00769571 0)
(0.0041631 0.00758323 5.81097e-19)
(0.00415369 0.00772077 -9.8178e-20)
(0.00419761 0.00803705 4.87611e-19)
(0.00410737 0.00752641 0)
(0.00417281 0.00853051 6.21052e-19)
(0.00416164 0.00752184 2.25642e-19)
(0.000799442 -7.22825e-06 -1.34377e-18)
(0.000735579 6.26465e-05 0)
(0.000219971 7.67757e-05 1.28058e-19)
(5.92228e-05 2.17484e-05 8.74351e-20)
(8.66188e-05 5.45503e-05 6.81966e-19)
(0.000116214 5.23886e-05 -3.42643e-19)
(0.000111657 1.70091e-05 0)
(5.80104e-05 8.65343e-06 8.20656e-20)
(0.000203898 0.000149201 0)
(0.000174539 6.32634e-05 -5.25775e-20)
(0.00033171 0.000232978 -5.1066e-21)
(6.29204e-05 5.1631e-05 -4.3891e-19)
(0.000100795 3.78721e-05 -8.54915e-20)
(9.84383e-05 7.25126e-05 1.31568e-21)
(0.000245231 0.000371631 -6.67993e-19)
(0.000159411 0.00109817 0)
(4.86362e-05 6.01363e-05 3.44044e-19)
(0.00017292 0.00185004 0)
(0.000205418 0.000261811 7.06605e-19)
(4.67988e-05 -7.134e-06 1.1163e-19)
(0.000459776 0.000172084 -1.72784e-19)
(0.00075742 2.77955e-05 -1.85662e-18)
(5.21305e-05 6.82457e-07 4.25528e-24)
(0.000158831 4.20656e-05 2.25163e-19)
(0.0002375 0.000113787 -9.01894e-20)
(0.000861944 0.000694891 3.35849e-19)
(0.000740063 0.0016341 -9.25316e-21)
(0.000419566 0.00134993 -9.46574e-21)
(0.00100172 0.000559011 0)
(0.000116601 -9.89085e-06 1.12198e-18)
(0.000129876 3.04034e-05 -4.44437e-20)
(0.000409352 -0.000222094 -1.13993e-18)
(0.000796769 3.92086e-05 0)
(0.000184752 3.80816e-05 3.63711e-19)
(0.000252656 0.00138672 0)
(0.00102179 0.000733299 -7.32191e-20)
(0.000808921 4.72303e-05 -1.83659e-19)
(9.5109e-05 -1.7663e-05 -3.00804e-19)
(0.000797671 0.00030236 -2.08659e-20)
(8.22828e-05 -2.31686e-05 -6.0017e-19)
(0.000226203 0.000186049 8.6628e-20)
(0.000224454 0.000313107 -3.45964e-19)
(0.000860188 0.000235258 0)
(0.000778264 3.71913e-05 0)
(0.000258486 0.000155343 1.77343e-19)
(0.00023541 2.49517e-05 1.85813e-24)
(0.000185002 0.000215719 0)
(0.000281985 0.000637487 -5.56731e-21)
(0.000325653 2.3314e-05 0)
(0.000327444 0.00058839 0)
(0.000117247 9.51565e-05 -1.35054e-21)
(0.000802659 -1.63913e-05 -9.43516e-19)
(0.000824581 -2.39869e-05 7.73981e-19)
(0.000136503 7.26843e-05 -1.50282e-19)
(0.000930861 0.000150076 8.51554e-20)
(0.000816725 4.98737e-05 3.28115e-19)
(0.000784775 1.98693e-05 -2.94276e-19)
(0.000978209 0.000403134 0)
(0.000421257 0.000128961 6.26242e-19)
(0.000870012 0.00031549 2.09753e-20)
(0.000545179 0.000168254 0)
(0.000275234 0.000435962 4.10749e-19)
(0.000255728 0.000229423 -8.46523e-20)
(0.00108512 0.000384139 -7.84428e-19)
(0.000585545 0.000120075 -1.79823e-19)
(0.000780907 9.76558e-05 -7.38106e-21)
(0.000811235 2.77636e-05 9.34422e-20)
(0.000115043 -9.45101e-05 -1.98699e-18)
(0.000717352 0.000374958 2.19859e-19)
(0.000629151 7.28558e-05 2.31165e-20)
(0.000680707 0.000271656 1.47846e-23)
(0.000702175 0.000441721 -4.10598e-19)
(0.000825515 3.69785e-05 8.89235e-20)
(7.84152e-05 9.23208e-05 0)
(0.000630032 0.000421693 -4.67021e-20)
(0.000185124 0.000114036 0)
(0.000362841 0.000509843 -2.65483e-19)
(0.000309043 0.000182661 0)
(0.000650489 0.000206643 3.56286e-19)
(0.00062297 0.000272391 -4.38532e-20)
(8.33717e-05 0.000110792 6.20568e-19)
(0.000870864 0.000120476 -1.59845e-18)
(6.69851e-05 2.89171e-05 2.5793e-19)
(0.000878544 6.28471e-05 -1.65669e-18)
(0.000781178 4.23394e-05 1.59834e-19)
(0.000783285 5.56107e-07 1.93128e-18)
(0.000785297 -2.12162e-06 -1.30969e-19)
(0.000684141 7.43374e-05 0)
(0.00084174 2.86498e-05 8.80682e-19)
(0.000918809 0.000241584 -4.28383e-19)
(0.000740753 7.36629e-05 -4.78859e-19)
(0.00075387 0.000231168 -8.83546e-20)
(0.000248074 -9.6394e-05 -2.08512e-18)
(0.000708954 9.52065e-05 8.90003e-19)
(0.000614798 0.000586991 0)
(0.000136132 -9.20923e-05 0)
(0.00116967 0.000463435 4.97774e-19)
(0.000817222 -0.000157052 -3.23997e-18)
(0.00126579 0.000414075 5.75147e-19)
(0.00126486 0.000715758 -6.39871e-20)
(0.000783649 5.83892e-05 -2.11277e-19)
(0.00080502 8.27037e-05 -1.40541e-18)
(0.000786916 5.24257e-05 1.57549e-18)
(0.000779191 -1.05254e-05 9.59678e-20)
(0.000655905 0.000341799 -4.4168e-20)
(0.000110081 0.000146428 1.98605e-23)
(0.000698671 -6.82544e-05 2.65893e-19)
(0.000259639 -0.0001759 -7.38584e-19)
(0.000596201 0.000193428 0)
(0.000666533 2.07537e-05 9.9313e-20)
(0.000647145 7.4788e-06 -3.81961e-19)
(0.000373988 0.000183477 3.93904e-20)
(0.000764079 0.000496679 -1.65948e-19)
(0.000157325 9.23867e-05 2.16824e-25)
(0.000792052 0.000386438 0)
(0.000948295 0.000321325 4.17009e-20)
(0.000715223 -0.000109857 -6.18137e-19)
(0.000334492 0.000114751 4.98247e-19)
(0.000877246 0.00041617 0)
(5.74097e-05 3.84364e-05 1.34095e-19)
(0.000462255 0.000273538 2.14549e-19)
(0.000435201 -7.83864e-05 -7.11245e-19)
(0.000192445 -0.000127014 -1.06205e-18)
(0.000777829 -1.01559e-05 -4.7418e-19)
(0.000800097 -0.000111329 -1.93056e-19)
(0.000558962 0.000724543 -1.17038e-18)
(0.000822343 5.75265e-05 -6.64712e-20)
(0.000776871 -6.83703e-05 1.26118e-18)
(0.00065511 9.89999e-05 2.28469e-20)
(0.000505107 0.000221161 -1.66147e-19)
(4.48503e-05 -2.64569e-05 -8.78331e-20)
(0.000205724 -2.08543e-05 2.40738e-18)
(3.47994e-05 9.48465e-07 -1.95349e-19)
(0.000766678 7.45862e-05 3.58099e-19)
(0.00062627 0.000143064 0)
(0.000208402 -4.42646e-05 -1.05073e-18)
(0.000133474 8.04783e-06 3.13309e-19)
(0.000140515 -3.1682e-05 -5.7574e-24)
(0.000776882 0.000118401 -3.1936e-19)
(0.000160938 -3.23113e-06 0)
(0.000562334 0.000244796 0)
(0.000111543 0.00034113 -3.63848e-19)
(0.000833891 0.000124041 2.07007e-18)
(2.83703e-05 1.79355e-06 0)
(0.000820322 1.15564e-05 0)
(5.67383e-05 -2.6945e-05 0)
(0.000819839 2.21517e-05 -4.38864e-21)
(0.000815091 -6.71951e-05 0)
(0.0040942 0.00760974 8.12118e-20)
(0.00430237 0.00752232 1.46365e-19)
(0.000835213 9.95093e-06 0)
(0.000741439 -6.29007e-05 8.15289e-19)
(0.000154548 0.000139513 1.49627e-19)
(0.000864944 7.26212e-05 7.9039e-19)
(0.000135934 0.000116591 2.35061e-20)
(0.00073919 -6.18526e-05 6.289e-19)
(4.2358e-05 1.32919e-05 0)
(3.95104e-05 -1.84567e-05 -4.49772e-20)
(0.00085902 6.57284e-05 -4.79589e-19)
(5.01805e-05 -3.70951e-05 -6.71521e-19)
(0.000731507 0.000127503 -4.24106e-20)
(0.000167667 0.000175369 -1.88626e-19)
(0.000798917 1.00818e-05 0)
(0.00465112 0.00832159 1.28336e-21)
(0.000162118 0.000775223 3.34627e-19)
(0.000139987 -4.54954e-05 -9.16122e-19)
(7.83081e-05 -3.55864e-05 -1.172e-18)
(0.000808562 2.08443e-05 1.89977e-20)
(0.00055936 0.000416531 0)
(0.000390894 0.000428415 -2.56729e-19)
(0.000119517 -4.74795e-05 1.18692e-18)
(0.000767039 4.8225e-06 7.72721e-20)
(5.07995e-05 2.33714e-06 4.08196e-19)
(0.0006296 -5.6362e-05 1.17522e-18)
(0.000791086 1.57299e-05 -6.01739e-19)
(9.59699e-05 -5.40383e-05 1.71378e-18)
(0.000826679 7.23369e-06 -7.06922e-25)
(0.000783604 1.41589e-05 -3.77736e-20)
(0.000840987 6.5425e-05 0)
(0.000779727 4.30586e-05 0)
(0.0059313 0.0072216 2.60334e-19)
(3.63276e-05 3.42137e-06 -1.19882e-19)
(0.000191253 -6.98539e-05 7.73996e-19)
(0.00070261 0.000118192 -6.98603e-19)
(4.11061e-05 -1.07003e-06 2.0198e-19)
(0.000559223 -1.68641e-05 -7.26e-19)
(0.000699004 1.67226e-06 1.54425e-18)
(0.000677454 0.000153723 -3.56491e-19)
(0.000793919 -4.06147e-05 3.56132e-19)
(0.000102993 -2.738e-05 1.11923e-18)
(0.000732285 1.15328e-05 -3.20208e-19)
(0.000841041 6.08818e-05 0)
(0.000521003 0.000303393 4.22218e-20)
(0.000847937 3.10066e-05 -9.21954e-19)
(3.56289e-05 -2.74269e-06 9.13267e-19)
(0.000802487 1.9211e-05 9.42838e-19)
(0.000810335 -4.01848e-05 -9.66041e-19)
(0.000685241 2.07319e-05 -5.69019e-19)
(0.000476767 -4.199e-05 -5.27236e-19)
(0.00421667 0.0074928 2.52719e-19)
(0.00411276 0.00747724 -2.94999e-19)
(0.00413915 0.00759245 2.64141e-19)
(0.00411122 0.00765676 2.69379e-19)
(0.000837547 1.41581e-06 1.43218e-19)
(0.00446006 0.00757262 0)
(0.00441196 0.00758931 -3.68926e-19)
(5.32687e-05 -4.94056e-07 -9.99106e-19)
(0.00414817 0.00748998 -5.7601e-20)
(0.00414556 0.00752932 -2.75525e-19)
(0.00602739 0.0105867 0)
(0.00647033 0.0106869 4.52478e-20)
(0.00600975 0.0105471 0)
(0.00646844 0.0106506 1.75131e-19)
(0.00599042 0.0105573 2.72106e-19)
(0.00645637 0.0106302 2.12947e-20)
(0.00592142 0.0106003 -7.8272e-19)
(0.00648582 0.0105413 1.81684e-20)
(0.00391283 0.00920569 -1.91434e-19)
(0.00411378 0.00740692 5.13115e-21)
(0.00412766 0.00752778 8.44252e-20)
(0.00414827 0.0075792 4.91935e-20)
(0.000845798 0.000175943 4.45673e-20)
(2.08694e-05 2.60111e-06 0)
(0.000637847 -0.000154288 0)
(0.000769168 2.97281e-05 0)
(0.00244915 0.00105628 4.32339e-21)
(0.000692373 -1.6753e-05 1.71604e-19)
(4.92581e-05 8.73867e-06 4.55347e-20)
(2.4018e-05 -3.35038e-05 1.65705e-18)
(0.000836409 2.949e-05 0)
(3.41782e-05 1.69116e-05 -1.92278e-19)
(0.000147017 0.000233252 0)
(3.75602e-05 -1.30062e-06 0)
(3.11964e-05 -2.12e-06 0)
(0.000794527 0.000133523 1.13494e-20)
(0.000829111 1.30583e-05 1.76339e-19)
(3.51601e-05 0.000333609 4.27769e-23)
(0.000162235 0.000278844 -1.84702e-18)
(0.000587628 0.000342495 -8.59418e-20)
(0.000878012 0.000122956 6.04172e-19)
(0.000724773 -0.000479537 6.65063e-19)
(0.000314345 0.00110325 0)
(0.000459855 0.000540426 2.71913e-18)
(0.000100686 0.000153112 -1.80274e-18)
(4.38219e-05 5.33115e-07 0)
(0.000843604 -1.2469e-05 3.58337e-20)
(2.20704e-05 4.57975e-05 1.64923e-18)
(0.00088932 2.61126e-05 2.71983e-19)
(9.32269e-05 -0.000269572 3.78741e-18)
(0.000917516 4.35717e-05 -2.69923e-19)
(0.00145591 9.85688e-05 7.48932e-19)
(4.78643e-05 -1.3277e-05 8.28103e-20)
(4.61752e-05 9.61791e-06 -8.60763e-19)
(4.59769e-05 0.000163233 0)
(0.000875966 0.000101167 6.00431e-19)
(0.000478333 0.000372591 2.37792e-19)
(0.000834254 1.66467e-05 -3.88625e-20)
(0.000734214 -1.90826e-05 2.55479e-19)
(0.000678659 -0.000236871 0)
(0.00639678 0.0109334 -1.65354e-19)
(0.00649802 0.0109494 4.04271e-19)
(0.00617041 0.0107323 -6.14125e-19)
(0.0065008 0.010779 -8.5412e-20)
(4.40494e-05 0.000122014 8.0186e-19)
(0.00087846 5.4701e-05 1.57606e-22)
(0.00652863 0.0109465 -3.74869e-19)
(0.00632776 0.0108903 5.41704e-19)
(0.00608937 0.0106591 -4.14334e-19)
(0.00649413 0.0107277 -7.40999e-20)
(0.000101048 0.000591968 -2.02544e-20)
(0.000187496 -0.000171728 -7.96206e-19)
(0.000818182 -2.57702e-06 -7.60706e-19)
(0.00070285 0.000217463 0)
(0.000741902 -5.65057e-06 0)
(0.000185016 0.000392606 3.37221e-19)
(0.000603058 0.000572709 -5.43024e-19)
(2.33327e-05 -3.17796e-06 1.78916e-19)
(0.000211546 0.000463083 -7.40417e-19)
(0.000998031 0.000965301 -1.1301e-19)
(0.000719214 0.000173801 0)
(0.000765304 0.000164704 1.31186e-19)
(0.00636615 0.00587069 1.13226e-18)
(0.000685677 0.00113206 8.3021e-20)
(4.608e-05 4.55494e-05 -7.46849e-20)
(0.000819192 4.94984e-05 0)
(0.000866564 1.54555e-05 -3.57884e-20)
(4.52747e-05 6.85428e-06 -1.97162e-19)
(3.9075e-05 8.31105e-06 1.93471e-19)
(0.000810444 1.67169e-05 5.35524e-19)
(0.0009522 0.000107963 6.60456e-19)
(0.000733442 6.15269e-05 0)
(0.000239117 -0.00026935 -4.00162e-19)
(0.00087703 0.000137072 3.89109e-19)
(4.28395e-05 -8.76211e-05 2.03639e-19)
(0.0014715 0.000375842 -2.57752e-18)
(0.000752901 1.1735e-06 0)
(0.000771594 0.000132756 3.7613e-19)
(9.03602e-05 0.000409016 0)
(0.00118234 0.00818493 4.62712e-19)
(0.000459748 0.000511741 -1.22618e-18)
(0.000530115 0.000960846 -1.8425e-19)
(0.000857485 2.65018e-05 -1.45277e-19)
(2.05894e-05 3.21897e-05 0)
(0.000904148 7.28769e-05 6.10381e-19)
(0.004106 0.00762263 1.086e-19)
(0.00412409 0.00743645 5.2968e-20)
(0.00447425 0.00751199 4.42779e-19)
(0.004452 0.00763201 -3.15373e-19)
(0.00651931 0.0108416 8.55081e-20)
(0.00390906 0.00752722 9.88649e-21)
(0.00550149 0.0077824 -5.67563e-19)
(0.00411561 0.00771889 5.11208e-21)
(0.00519114 0.00782331 5.15086e-19)
(0.0040961 0.00766489 -5.23109e-20)
(0.00493588 0.00769155 0)
(0.0040928 0.00765469 -6.88102e-20)
(0.00469504 0.00755042 4.96696e-19)
(0.0040959 0.00764829 7.87269e-20)
(0.00452755 0.00749672 0)
(0.00409677 0.00757926 1.70383e-19)
(0.00413965 0.00760161 5.71246e-19)
(0.00446736 0.00762578 -5.62052e-19)
(0.00437964 0.00755354 3.70776e-19)
(0.00410589 0.00742996 3.18436e-19)
(0.00653797 0.0109326 -4.44168e-21)
(0.00413215 0.00760302 3.88945e-20)
(0.00652785 0.0108844 0)
(3.19071e-05 1.00092e-05 -1.90409e-19)
(0.00197301 0.0065104 2.2896e-19)
(0.000840684 -1.47396e-06 1.0919e-19)
(0.000849796 2.0094e-05 0)
(4.35722e-06 4.63681e-06 -4.0027e-19)
(0.000102468 -0.000206493 6.92946e-19)
(2.35224e-05 6.79973e-05 2.09096e-18)
(0.000801675 0.000191167 -9.03568e-20)
(0.000726905 7.85158e-06 7.00293e-19)
(4.97823e-06 -5.3891e-06 3.10898e-19)
(2.87541e-05 -4.77654e-05 -1.85048e-18)
(0.00070997 1.5536e-05 1.61941e-19)
(0.000828494 0.000120964 -3.03567e-20)
(0.000722916 -4.51598e-06 1.47068e-19)
(0.000417207 0.000647513 0)
(0.000138418 -0.000151541 1.15498e-18)
(0.000833578 2.09801e-05 1.51175e-19)
(2.49458e-05 3.01158e-05 0)
(0.000101285 0.000561772 -6.32785e-19)
(0.000609923 0.000583778 1.30933e-18)
(0.00034022 0.000724555 0)
(0.000718238 -9.78623e-06 0)
(0.000730517 6.28342e-05 1.16226e-18)
(2.66746e-05 5.3521e-05 -3.52277e-18)
(2.31318e-05 1.16169e-05 3.74704e-19)
(0.000111712 0.00015766 0)
(6.73983e-05 -4.58441e-05 0)
(7.49896e-05 0.000124741 2.01373e-19)
(0.000895502 0.0001759 3.50265e-19)
(0.000785619 -3.7141e-05 -1.37401e-18)
(2.83637e-05 4.13897e-05 0)
(0.0006156 8.98365e-05 -6.02033e-20)
(0.000738146 2.10706e-05 -1.55205e-19)
(0.000841109 6.83382e-06 1.03619e-18)
(0.00025081 0.000545985 6.33811e-19)
(0.000821614 0.000136947 0)
(3.55935e-05 -3.45459e-05 5.40222e-19)
(4.79234e-06 -1.7248e-05 -3.20854e-19)
(0.00114743 -3.66071e-06 0)
(0.000932996 0.00215987 0)
(0.00105761 -0.000105168 0)
(0.000970183 0.000191127 4.28506e-19)
(0.000840375 -1.04284e-05 -2.79589e-19)
(0.000886649 0.00012595 -6.85165e-19)
(0.000734433 1.59925e-05 0)
(4.54715e-05 8.0101e-05 -1.72066e-19)
(0.000172628 0.000331379 1.08414e-18)
(0.000773261 4.15968e-05 3.04194e-23)
(0.00106329 0.000178549 -6.71078e-19)
(0.00107033 0.000117977 0)
(3.92034e-06 1.4826e-05 2.51758e-19)
(2.82208e-05 -2.27804e-05 -1.94874e-19)
(0.000714154 3.72374e-05 6.8976e-21)
(5.68439e-05 -0.000118105 0)
(0.00101822 0.000256742 9.53304e-19)
(0.00502024 0.00973689 -2.84238e-19)
(0.00310923 0.00963182 1.27848e-18)
(9.73595e-05 -0.000123748 -1.91911e-19)
(9.23338e-05 -8.57433e-05 1.86505e-18)
(0.00118365 0.000221977 1.67655e-19)
(0.00127743 0.00104663 2.34697e-19)
(0.000824815 1.48536e-05 -7.28716e-19)
(0.000217087 0.000925261 -2.39531e-19)
(0.000771861 0.000872037 -2.19173e-19)
(0.000743388 -2.18051e-05 0)
(0.000109952 0.000722288 0)
(9.96014e-05 0.000287758 -5.13948e-23)
(0.000793126 -1.53709e-05 -2.6244e-23)
(0.000815175 -2.81298e-06 1.5153e-19)
(0.00261245 0.00200731 -1.23242e-18)
(0.00175707 0.00925828 -1.17575e-19)
(0.000792564 3.32255e-05 4.85673e-19)
(0.00635388 0.00403537 -1.76207e-19)
(0.00658961 0.0108653 -2.15555e-20)
(0.00464818 0.00809954 8.49418e-21)
(0.000788754 7.15263e-05 -2.15177e-18)
(0.00081263 4.06866e-05 -1.25865e-23)
(1.75713e-05 -1.36761e-05 -3.48974e-19)
(5.03157e-05 0.000102344 -3.5029e-19)
(8.77591e-05 0.000285538 8.78497e-19)
(1.74795e-05 2.20487e-05 4.91825e-19)
(9.27236e-05 0.000243045 3.70804e-19)
(0.000814784 4.72786e-05 0)
(0.00530166 0.00928629 1.01821e-20)
(0.00144874 0.000624535 -2.62471e-20)
(0.000822535 1.93639e-05 3.56626e-19)
(7.3009e-05 -9.89099e-05 0)
(0.00188861 0.000695144 5.46728e-19)
(1.53304e-05 1.23934e-05 -2.70942e-19)
(4.10021e-05 3.59559e-05 9.7465e-20)
(0.00131932 0.00140434 6.39202e-19)
(0.000790372 2.81847e-05 1.81417e-19)
(1.48879e-05 -3.93741e-06 -1.70704e-19)
(0.00203105 0.00153013 -1.05678e-18)
(0.000129999 0.000191204 -8.20297e-19)
(0.00391399 0.00848701 -1.09409e-18)
(1.32069e-05 3.42317e-06 8.83991e-20)
(0.000222754 -0.000408068 -1.24135e-18)
(7.08175e-05 -6.15644e-05 4.06839e-20)
(0.00146523 0.000933491 0)
(0.00100427 0.000144036 -4.40964e-22)
(0.000426045 0.000855737 -4.03261e-20)
(0.000819262 1.91753e-05 -2.31944e-19)
(8.59307e-05 0.000199258 7.36533e-19)
(5.99348e-05 -7.52637e-05 4.05225e-19)
(2.37662e-05 2.03187e-05 -9.49861e-20)
(4.17081e-05 0.000108241 -3.21138e-19)
(0.000192573 -0.000362861 -5.39001e-19)
(0.00323393 0.00341841 2.60946e-21)
)
;

boundaryField
{
    back
    {
        type            empty;
    }
    ingreso
    {
        type            fixedValue;
        value           uniform (0.0008 0 0);
    }
    salida
    {
        type            zeroGradient;
    }
    front
    {
        type            empty;
    }
    defaultFaces
    {
        type            noSlip;
    }
}


// ************************************************************************* //
