/*--------------------------------*- C++ -*----------------------------------*\
  =========                 |
  \\      /  F ield         | OpenFOAM: The Open Source CFD Toolbox
   \\    /   O peration     | Website:  https://openfoam.org
    \\  /    A nd           | Version:  7
     \\/     M anipulation  |
\*---------------------------------------------------------------------------*/
FoamFile
{
    version     2.0;
    format      ascii;
    class       volScalarField;
    location    "18";
    object      p;
}
// * * * * * * * * * * * * * * * * * * * * * * * * * * * * * * * * * * * * * //

dimensions      [0 2 -2 0 0 0 0];

internalField   nonuniform List<scalar> 
591
(
0.00012399
0.000124004
0.000124028
0.000123989
0.000123991
0.000124109
0.000124045
0.000124027
0.000116884
0.000124019
0.000124167
0.000122871
0.00012409
0.00011976
0.000124029
0.00012405
0.000123923
0.000124058
0.000121981
0.0001234
0.00012399
-2.09965e-06
0.000124166
0.000123992
0.000124122
0.000124001
0.000124055
0.000124088
0.000124012
0.000124064
0.000124142
0.000124119
0.000124139
0.000124137
0.00012414
0.000123498
0.000124135
0.000124008
0.000124159
0.000124071
0.000124058
0.000124132
0.000124016
0.000124045
0.000124129
0.000124146
0.000119298
0.000124149
0.000124027
0.00012413
0.000124081
0.000124124
2.37097e-05
3.03043e-05
4.77977e-05
0.000124054
0.000124153
0.000124134
0.000124147
0.000123987
0.000124062
0.000124009
0.000124019
0.000124123
0.000122604
0.000124013
0.000124019
0.000124145
0.000120738
0.00012405
0.000124015
0.000124151
0.000124107
0.000124132
0.000124137
0.000124112
0.00012398
0.000124148
0.000123987
0.000123901
0.000123773
0.000124153
0.000124116
0.000124081
0.000124161
0.000123995
0.000124084
0.000124143
0.000124107
0.000123872
0.000124121
0.000124049
0.000124079
0.000123999
0.000124159
0.00012412
0.000123704
0.000123596
0.000123709
0.000124162
0.000124074
0.000123998
0.000124166
0.000123995
0.000124164
0.000124021
0.000124009
0.000124114
0.000124158
0.000124162
0.000124046
0.000124132
0.000124035
0.000124141
0.000124162
0.000124141
0.000124081
0.000124093
0.000123631
0.000124046
0.000124017
0.000124109
0.000124044
0.000124001
0.000124138
0.000120219
0.000124165
0.000124135
0.000123775
0.000124138
0.000124004
0.000123697
0.000124101
0.000124099
0.000124141
0.000124034
0.000122667
0.000124166
0.000124017
0.00012364
0.0001237
0.000124072
0.000124143
0.000124159
0.000124154
8.23875e-06
4.59273e-06
3.07047e-06
3.81295e-05
3.66131e-05
6.45105e-06
3.82652e-05
1.56015e-05
3.72559e-05
1.76462e-05
0.000124014
0.000123992
0.000124152
0.000124149
0.000124155
0.000124153
0.000124147
0.000124145
0.000124147
0.000124148
0.000124106
0.000124157
0.000124151
0.000124157
0.000124081
0.000123439
0.000124159
0.000122142
0.000124127
0.000124141
0.000124081
0.000124015
0.00012414
0.00012415
0.000124145
0.000123548
0.000122497
0.000123084
0.00012351
0.000124144
0.000124148
0.000124115
0.000123991
0.000124141
0.000122985
0.00012336
0.000123993
0.000124141
0.000123845
0.000124133
0.000124139
0.000124108
0.000123813
0.000123977
0.000124138
0.000124152
0.000124141
0.000123931
0.000124121
0.000123931
0.000124157
0.00012402
0.000124014
0.000124153
0.000123788
0.000123981
0.000124038
0.000123618
0.000124105
0.000123767
0.000124051
0.000124043
0.000124126
0.000123542
0.000124047
0.000123963
0.000123985
0.000124112
0.000123877
0.000124042
0.000123948
0.000123849
0.000123975
0.00012416
0.000123913
0.000124153
0.000123983
0.000124127
0.000123992
0.000123987
0.000124159
0.000123899
0.000124151
0.000123897
0.000123945
0.000124035
0.000124002
0.000124015
0.000124016
0.00012376
0.000123976
0.000123919
0.000124118
0.000124004
0.000123818
0.000124106
0.000123371
0.000123943
0.000123302
0.000123127
0.000124008
0.000123965
0.000124
0.000123997
0.000123932
0.000124156
0.000124033
0.000124101
0.000124022
0.000124038
0.000124049
0.000124106
0.000123765
0.000124152
0.000123808
0.000123699
0.000124028
0.00012413
0.000123712
0.000124154
0.000124051
0.000124098
0.000124112
0.000124039
0.000123981
0.000123765
0.000123971
0.000123982
0.000124019
0.000124052
0.000124128
0.000124137
0.000124148
0.000123935
0.000124021
0.00012413
0.000124141
0.000124138
0.000123958
0.000124152
0.000124021
0.000124119
0.00012392
0.00012415
0.000123918
0.000124128
0.000124061
0.000123985
1.18131e-05
2.17753e-05
0.00012397
0.000124013
0.000124156
0.00012395
0.000124156
0.000124023
0.00012415
0.00012413
0.000123915
0.000124124
0.000123974
0.00012415
0.00012403
-8.39944e-08
0.00012382
0.00012413
0.000124128
0.000123875
0.000123968
0.000123992
0.000124123
0.00012394
0.000124145
0.000124046
0.000124024
0.00012412
0.000123992
0.000123909
0.000123932
0.000124041
4.73623e-05
0.000124138
0.000124121
0.000124
0.000124145
0.00012407
0.000124026
0.000123996
0.00012401
0.000124132
0.000124098
0.000123946
0.000124016
0.000123951
0.000124146
0.000123957
0.000123985
0.000124031
0.000124111
1.97309e-05
2.69991e-05
3.40369e-05
1.00364e-05
0.000123992
3.27104e-05
2.58101e-05
0.000124142
1.88112e-05
1.68222e-05
3.79979e-05
8.21422e-06
3.98869e-05
6.40541e-06
4.08897e-05
4.5759e-06
4.27954e-05
2.74662e-06
3.63301e-05
2.28725e-05
2.91508e-05
1.4866e-05
0.000123851
0.000124152
0.00012405
0.00012407
0.000120934
0.000124171
0.000124147
0.000124118
0.000123971
0.000124152
0.000124144
0.000124136
0.000124133
0.000123915
0.000124002
0.000124127
0.000124131
0.000123976
0.000123875
0.000123841
0.000123447
0.000123916
0.000124163
0.000124139
0.00012402
0.000124163
0.000123873
0.000124002
0.000123827
0.000122929
0.000124134
0.000124144
0.000124159
0.000123865
0.000124009
0.000123833
0.000124024
0.000123989
2.57245e-05
2.16862e-05
3.28205e-05
1.17569e-05
0.000124169
0.000123881
1.96072e-05
2.79091e-05
3.54184e-05
9.99968e-06
0.000123975
0.000124089
0.000123973
0.00012396
0.000124094
0.000124088
0.000123877
0.000124131
0.000124051
0.000123146
0.000123967
0.000123936
5.92072e-05
0.000123278
0.000124157
0.000124011
0.000123909
0.000124146
0.000124148
0.000124
0.000123778
0.00012403
0.000124075
0.000123852
0.000124102
0.000122976
0.00012397
0.00012395
0.000124095
0.000100777
0.000123938
0.000123543
0.000123941
0.00012416
0.000123837
1.11424e-05
2.08372e-05
3.52133e-05
2.7892e-05
1.35857e-05
1.0239e-06
4.1992e-05
3.66978e-06
4.0083e-05
5.58545e-06
3.93544e-05
7.43054e-06
3.85796e-05
9.29473e-06
3.72434e-05
1.36276e-05
3.14495e-05
3.01782e-05
2.37968e-05
2.49338e-05
1.75009e-05
1.29947e-05
1.54991e-05
0.000124151
0.000102362
0.000123994
0.000123941
0.000124156
0.000124053
0.000124161
0.000123895
0.000124108
0.000124126
0.00012412
0.000124219
0.000123895
0.000124077
0.000123859
0.00012409
0.000123968
0.000124155
0.000124
0.000123836
0.000123836
0.000124088
0.00012412
0.000124164
0.000124153
0.000124157
0.000124124
0.000124161
0.00012381
0.000124019
0.000124157
0.000123961
0.00012415
0.000124015
0.000124003
0.000123878
0.000124124
0.000124124
0.000123462
0.000121417
0.000123194
0.000123726
0.000124014
0.000123839
0.000124099
0.000124159
0.000124112
0.000124048
0.000123617
0.000123612
0.000124157
0.000124127
0.000124052
0.000124088
0.000123649
5.82614e-05
4.0004e-05
0.000124097
0.000124114
0.000123501
0.000122794
0.000124009
0.000123673
0.000123425
0.000124079
0.000123865
0.000124134
0.000124033
0.00012408
0.000119009
5.43771e-05
0.000124053
8.11093e-05
2.09347e-06
2.30235e-07
0.000124016
0.000123994
0.000124126
0.00012416
0.000124146
0.000124158
0.000124147
0.000124004
-1.75512e-06
0.000122891
0.000124034
0.000124104
0.000122043
0.000124156
0.000124155
0.00012231
0.000124117
0.000124128
0.000121734
0.000124153
7.62858e-05
0.000124154
0.000123586
0.000124118
0.000122418
0.000123711
0.000123723
0.000124053
0.000124155
0.000124112
0.000124154
0.000124168
0.000124014
0.000116169
)
;

boundaryField
{
    back
    {
        type            empty;
    }
    ingreso
    {
        type            zeroGradient;
    }
    salida
    {
        type            fixedValue;
        value           uniform 0;
    }
    front
    {
        type            empty;
    }
    defaultFaces
    {
        type            zeroGradient;
    }
}


// ************************************************************************* //
