/*--------------------------------*- C++ -*----------------------------------*\
  =========                 |
  \\      /  F ield         | OpenFOAM: The Open Source CFD Toolbox
   \\    /   O peration     | Website:  https://openfoam.org
    \\  /    A nd           | Version:  8
     \\/     M anipulation  |
\*---------------------------------------------------------------------------*/
FoamFile
{
    version     2.0;
    format      ascii;
    class       volScalarField;
    location    "3";
    object      p;
}
// * * * * * * * * * * * * * * * * * * * * * * * * * * * * * * * * * * * * * //

dimensions      [0 2 -2 0 0 0 0];

internalField   nonuniform List<scalar> 
5101
(
9.57676e-06
1.06593e-05
9.96456e-06
3.84831e-06
1.05379e-05
3.25718e-06
1.71568e-06
1.31271e-05
1.2877e-06
3.64935e-06
9.80328e-06
2.83792e-06
9.08711e-07
2.11125e-06
7.5005e-06
7.13538e-06
5.89897e-06
4.37497e-06
8.35921e-06
1.23156e-05
8.65651e-06
3.67801e-06
6.83114e-06
4.28753e-06
8.29408e-06
5.45856e-06
7.73519e-06
7.92668e-06
9.92657e-06
9.58659e-06
8.73488e-06
7.02366e-06
6.59343e-06
1.25901e-05
8.8024e-06
9.00239e-06
9.46608e-06
9.07626e-06
1.01799e-05
1.29889e-05
1.3347e-05
1.82656e-06
8.14726e-06
6.92909e-06
1.01169e-05
7.0083e-06
1.03258e-05
4.01552e-06
9.20598e-06
8.14122e-06
1.0913e-05
9.23595e-06
8.84027e-06
1.08428e-06
1.3194e-05
1.00038e-05
9.32454e-06
1.25817e-05
1.29505e-05
5.87383e-06
1.48783e-06
7.8806e-06
1.31748e-05
9.68839e-06
7.71638e-06
1.0761e-05
1.89622e-06
5.70766e-06
8.59664e-06
1.33207e-05
3.46061e-06
1.22249e-05
1.31204e-05
7.41855e-06
6.32072e-06
1.26295e-05
4.16204e-06
1.24821e-05
1.28322e-05
3.04148e-06
1.31475e-05
2.26521e-06
4.2518e-06
8.64112e-06
1.31863e-05
9.42107e-06
1.05416e-05
3.68088e-06
1.09855e-05
6.73511e-06
1.24207e-05
6.76238e-07
9.20597e-06
8.80611e-06
9.65214e-06
9.74177e-06
1.24756e-05
1.07543e-05
1.30188e-05
1.13702e-05
8.35779e-06
1.33047e-05
2.50366e-06
1.12669e-05
6.71623e-06
1.24701e-05
9.15111e-06
1.10392e-05
1.2939e-05
4.9836e-06
2.40021e-06
2.62278e-06
9.48932e-06
1.06367e-05
4.99511e-06
1.2484e-05
1.25598e-05
4.99914e-06
7.04492e-06
6.13561e-06
2.72331e-06
4.64962e-06
1.23025e-05
1.12146e-05
6.03751e-06
1.31743e-05
7.34468e-06
1.01863e-05
1.31204e-05
3.27013e-06
9.86368e-06
9.35728e-06
1.0867e-05
1.31862e-05
9.84064e-06
1.04206e-05
1.30219e-05
9.19871e-06
1.26914e-06
1.28469e-05
1.23844e-05
1.14489e-05
1.29657e-05
8.84147e-06
5.61819e-06
5.88319e-06
1.28591e-05
8.54432e-06
1.12156e-05
1.26021e-05
8.8091e-06
1.34242e-05
7.79498e-06
4.75809e-06
1.10229e-05
9.09131e-06
4.27911e-06
1.25943e-05
8.46934e-06
8.69824e-06
8.1422e-07
1.24506e-05
4.77372e-06
1.02402e-05
1.09988e-05
1.01638e-05
7.66827e-06
9.38634e-06
3.85528e-06
1.26873e-05
4.91681e-06
7.97522e-06
8.28417e-06
1.04301e-05
1.09913e-05
4.62288e-06
2.93995e-06
1.33146e-05
6.6349e-06
1.02062e-05
1.05885e-05
5.33925e-06
7.9248e-06
1.24147e-05
1.25236e-05
9.65896e-06
1.31172e-05
7.52237e-06
8.80472e-06
9.37871e-06
1.12176e-05
8.73685e-06
1.26626e-05
1.27044e-05
5.77395e-06
1.01808e-05
1.32956e-05
1.11463e-05
2.17348e-06
2.39252e-06
7.25305e-06
1.09846e-05
1.10044e-05
1.26281e-05
1.30995e-05
9.88118e-06
1.19846e-05
4.45786e-06
1.32549e-05
3.15188e-06
1.09501e-05
8.121e-07
6.51973e-06
1.28291e-05
2.27075e-06
1.49421e-06
1.01271e-05
9.52128e-06
2.61311e-06
4.83696e-06
1.16193e-06
4.64486e-06
1.17684e-05
1.09597e-05
1.14611e-05
1.34837e-05
4.61401e-06
1.07508e-05
3.36304e-06
1.31722e-05
1.23123e-05
1.17319e-05
1.09505e-05
8.34856e-06
1.20494e-05
1.3132e-05
1.31696e-05
4.84728e-06
8.92701e-06
1.05885e-05
3.5709e-06
1.31704e-05
1.31589e-05
1.02205e-05
8.3673e-06
1.05241e-05
8.79585e-06
1.24633e-05
1.05285e-05
9.02924e-06
1.03016e-05
3.01774e-06
2.48283e-06
8.84093e-06
4.94145e-06
6.62609e-06
6.61817e-06
7.99398e-06
5.19243e-06
1.30335e-05
6.43231e-06
5.9756e-06
6.92569e-06
4.64448e-06
4.64193e-06
1.26624e-05
1.01149e-05
3.87563e-06
2.00955e-06
1.24336e-05
5.91392e-06
5.91203e-06
1.25668e-05
6.10443e-06
1.29624e-05
1.23686e-05
1.28669e-05
1.25853e-05
3.77844e-06
3.98276e-06
7.74326e-06
8.81811e-06
7.03176e-06
1.09838e-05
1.24625e-05
8.43859e-06
8.98445e-06
8.07665e-06
1.08699e-05
1.17759e-05
5.8017e-06
1.23322e-05
8.55962e-06
1.28293e-05
6.83143e-06
1.31693e-05
3.66715e-06
9.12906e-06
1.22425e-05
9.30097e-06
1.29822e-05
1.21943e-05
1.00935e-05
7.10341e-07
1.8144e-07
1.1172e-05
8.09845e-06
1.22734e-05
3.75682e-06
1.00674e-05
4.39477e-06
9.32178e-07
1.00582e-05
9.80212e-06
7.8739e-06
1.31697e-05
5.01879e-06
1.20086e-05
8.27335e-06
1.27894e-05
1.11075e-05
1.19024e-05
1.26014e-05
6.17167e-06
3.47653e-06
1.05162e-05
1.29364e-05
1.10009e-05
1.204e-05
4.19119e-06
1.03575e-05
2.95072e-06
1.30162e-05
1.06537e-05
4.54822e-06
1.31705e-05
9.61207e-06
1.00027e-05
9.73018e-06
9.869e-06
1.09835e-05
3.37303e-06
4.81268e-06
1.05824e-06
2.83115e-06
8.9897e-06
8.53492e-06
8.46372e-06
7.82038e-06
1.29336e-05
1.28957e-05
6.8882e-06
8.27267e-06
4.60185e-06
1.19507e-06
1.25527e-05
1.14912e-05
4.39285e-06
1.13959e-05
6.24701e-07
1.31143e-05
3.74496e-06
1.33103e-05
1.00454e-05
9.18884e-06
8.35072e-06
1.12401e-05
1.96459e-06
1.25066e-05
1.00837e-05
1.24851e-05
1.20003e-05
1.10498e-05
9.71251e-06
1.05331e-05
1.03259e-05
1.20719e-05
1.59913e-06
5.72351e-06
5.00068e-06
9.43163e-06
8.05157e-06
1.02219e-05
8.05268e-06
3.7071e-06
2.0074e-06
5.32897e-06
4.60038e-06
9.81734e-06
3.29355e-06
8.42646e-06
8.45211e-06
2.38432e-06
4.20415e-06
2.88713e-06
3.80835e-06
3.41381e-06
9.03428e-06
1.31127e-05
5.1523e-06
8.5844e-06
5.14226e-06
9.19009e-06
4.81082e-06
1.03778e-05
8.49888e-06
8.03944e-06
1.26467e-05
7.56256e-06
1.32117e-05
8.04053e-06
8.99241e-06
1.30846e-05
7.79941e-06
9.97575e-06
8.4096e-06
1.07885e-05
8.17426e-06
1.31587e-05
4.68396e-06
4.6767e-06
7.45879e-06
2.75156e-06
1.15912e-07
9.75725e-06
3.99724e-06
1.31786e-05
5.40952e-06
1.08489e-05
9.92849e-06
6.30097e-06
1.08062e-05
5.0807e-07
1.18568e-05
1.28324e-05
4.68673e-06
1.28228e-05
5.00342e-06
5.00204e-06
8.98428e-07
4.95546e-06
4.95726e-06
8.40213e-06
5.41285e-06
5.61943e-06
6.13048e-06
8.43559e-06
1.02752e-05
4.13499e-06
9.02301e-06
9.82995e-06
7.65149e-06
7.64402e-06
7.57988e-06
7.56995e-06
1.57386e-06
1.27733e-05
1.14312e-05
1.22381e-05
3.04516e-06
1.06266e-05
9.63636e-06
1.15164e-05
5.29234e-06
1.29914e-05
7.30383e-06
8.58328e-06
2.51557e-06
9.75767e-06
1.01459e-05
6.20057e-06
6.19529e-06
1.27807e-05
1.03901e-05
9.43229e-06
1.29622e-05
1.32534e-05
1.28671e-05
1.05254e-05
8.41705e-06
2.38872e-06
3.25637e-06
1.33165e-05
1.28005e-05
9.58813e-06
1.06183e-05
8.9501e-06
1.19317e-05
5.80853e-06
7.1703e-06
8.82394e-06
1.23866e-05
4.40936e-06
4.3858e-07
8.28852e-06
9.7055e-06
5.54932e-06
6.52612e-06
1.21339e-05
3.45845e-06
1.30899e-05
7.67435e-06
1.09507e-05
1.07594e-05
1.06186e-05
4.62309e-06
1.30447e-05
1.04097e-05
4.62569e-06
5.07886e-06
1.25194e-05
4.1857e-06
1.28144e-06
1.02898e-05
2.59572e-06
3.16223e-06
3.74582e-06
1.87631e-06
4.3427e-06
6.55211e-06
6.54123e-06
1.12631e-05
9.95154e-06
6.52392e-06
1.11558e-06
1.03721e-05
1.05867e-05
8.56946e-06
1.31495e-05
1.2291e-05
7.47215e-06
8.07159e-06
3.46608e-06
1.39618e-06
6.54707e-06
5.48206e-06
5.47746e-06
1.2661e-05
5.83692e-06
1.31285e-05
2.71421e-06
5.79727e-06
9.53558e-06
2.27497e-06
2.89947e-06
3.5086e-06
4.11173e-06
4.71231e-06
9.73475e-06
8.51151e-06
9.12866e-06
7.95102e-06
7.32634e-06
4.09191e-06
4.69672e-06
7.99007e-06
8.37487e-06
4.99699e-06
5.00148e-06
6.04685e-06
7.74092e-06
1.20631e-05
1.31172e-05
6.71266e-06
1.14905e-05
6.9923e-06
6.55918e-06
1.27537e-05
5.25282e-06
6.20986e-06
8.46771e-06
6.81275e-07
7.96381e-06
9.22965e-06
1.21166e-05
1.0312e-05
3.79154e-06
1.03372e-06
1.25123e-05
1.13499e-05
1.29439e-05
1.06336e-05
5.07296e-06
1.05676e-05
6.21766e-06
1.20464e-05
1.32792e-05
1.05925e-05
1.11182e-05
1.79738e-06
4.96583e-06
8.21927e-06
6.83552e-06
6.84546e-06
9.04393e-06
2.80112e-06
6.75325e-06
6.78013e-06
2.35139e-06
1.24333e-05
4.32071e-06
1.25848e-05
8.91283e-06
1.2603e-05
3.67425e-06
7.56282e-06
9.96099e-06
7.73772e-06
7.28228e-06
4.64981e-06
4.67059e-06
1.01626e-05
1.05108e-05
1.31627e-05
1.31604e-05
1.17192e-05
1.29193e-05
1.31647e-05
8.49409e-06
1.0851e-05
6.41862e-06
1.31715e-05
9.02734e-06
1.26613e-05
4.92742e-06
9.74881e-06
1.19137e-05
8.21283e-06
1.19534e-05
7.58786e-06
1.00079e-05
9.76152e-06
1.03035e-05
6.86289e-06
1.03979e-05
1.2658e-05
6.14928e-06
6.13587e-06
4.72319e-06
2.27385e-06
4.1271e-06
3.53804e-06
2.94684e-06
1.657e-06
1.24186e-05
5.97434e-06
7.4948e-06
1.09494e-05
7.57675e-06
4.37647e-06
1.10317e-05
1.3237e-05
8.24721e-06
4.08532e-06
1.31693e-05
8.95562e-06
1.05315e-05
8.93783e-07
1.02535e-05
1.31587e-05
1.26262e-05
3.8818e-06
6.34184e-06
6.33704e-06
6.70827e-06
4.54434e-06
2.07843e-06
7.45233e-06
6.66525e-06
8.63664e-06
1.15058e-05
1.09672e-05
6.97411e-06
8.19187e-06
6.69322e-06
1.47137e-06
3.94298e-06
3.35394e-06
2.78084e-06
7.93728e-06
1.05971e-05
1.01864e-05
8.78389e-06
1.27027e-05
1.23625e-05
2.91747e-06
1.2964e-05
1.31705e-05
7.80795e-06
4.21247e-06
5.61065e-06
6.79806e-06
7.11752e-06
1.08241e-05
3.59683e-06
9.25404e-06
1.41436e-06
1.06165e-05
1.06588e-06
3.21787e-06
1.12303e-05
5.19374e-06
3.26088e-06
1.27029e-05
9.15853e-06
7.30757e-06
1.38207e-06
4.62086e-07
7.7032e-06
3.23107e-06
1.00105e-05
1.31712e-05
1.06322e-05
6.64164e-06
1.00088e-05
1.21363e-05
9.1685e-06
9.35691e-06
1.3628e-06
4.7297e-06
8.46098e-06
6.97027e-06
6.94651e-06
2.17997e-06
7.99448e-06
1.23214e-05
1.61116e-06
4.785e-06
8.40354e-06
9.22666e-06
2.61866e-06
7.02644e-06
7.03628e-06
7.38547e-06
3.0898e-06
8.43053e-06
9.76079e-06
8.08098e-06
1.02068e-05
7.80148e-06
1.31749e-05
1.26709e-05
6.68559e-06
8.62151e-06
9.02393e-06
1.61055e-06
9.62639e-06
1.2043e-05
9.30432e-06
6.63889e-06
9.24669e-06
1.32079e-05
7.93182e-06
1.06982e-06
7.05001e-06
9.45379e-06
8.00424e-06
7.37125e-06
1.21977e-05
7.14597e-06
9.83995e-06
1.04213e-05
1.27511e-05
6.76893e-06
1.02809e-05
1.19421e-05
9.54456e-06
9.21542e-06
1.25209e-05
1.02122e-05
1.11298e-05
4.60644e-06
1.13927e-05
6.90716e-06
9.95685e-06
4.63916e-06
1.12402e-05
1.95678e-06
1.28272e-05
4.82253e-06
1.25968e-05
8.91708e-07
1.296e-05
5.21339e-06
7.45076e-06
9.77485e-06
5.35965e-06
1.29747e-05
1.31248e-05
1.17282e-05
1.18079e-05
8.26715e-06
1.63966e-06
8.14047e-06
5.53027e-06
8.69786e-06
8.90133e-06
4.95542e-06
6.47332e-06
8.61794e-06
8.54033e-06
1.10912e-05
8.0796e-06
1.31278e-05
1.27149e-05
1.42052e-06
4.58142e-06
8.60971e-06
9.4247e-06
2.41752e-06
7.22686e-06
7.23994e-06
7.15361e-06
7.17597e-06
1.97572e-06
1.01052e-05
1.31758e-05
1.30101e-05
5.38561e-06
9.4329e-06
1.31678e-05
1.28635e-05
1.3171e-05
1.10979e-05
4.56537e-06
9.97996e-07
1.02715e-06
8.17763e-06
8.9138e-07
9.15791e-07
3.95518e-06
9.97472e-07
9.0327e-06
1.22678e-06
2.14376e-06
8.4252e-06
5.3169e-06
6.96338e-06
1.63804e-06
2.6668e-06
2.61954e-06
1.67645e-06
2.6902e-06
9.24549e-06
6.71389e-06
1.59645e-06
6.98837e-06
4.757e-06
5.32471e-06
2.60365e-06
7.05498e-06
7.04228e-06
6.2136e-06
6.0945e-06
1.29776e-05
1.85238e-06
1.88058e-06
2.57534e-06
2.06104e-06
2.08386e-06
4.95917e-06
7.36721e-06
1.06389e-05
1.04723e-05
3.61294e-06
7.0779e-06
2.56232e-06
9.5446e-06
1.43264e-06
8.87486e-06
1.19627e-06
1.02658e-05
1.06987e-05
1.27548e-05
1.31547e-05
5.70686e-06
1.97336e-06
1.03548e-05
8.35604e-06
1.29763e-05
8.91408e-06
3.42168e-06
9.48969e-06
7.68004e-06
1.2334e-05
1.16987e-06
1.16312e-05
6.35485e-06
5.45831e-06
1.13071e-05
1.01902e-05
4.73378e-06
5.99429e-06
1.27182e-05
9.98015e-06
4.2981e-06
1.33459e-05
5.76956e-06
5.76616e-06
1.24693e-05
2.86732e-06
2.88697e-06
2.82768e-06
9.10429e-06
1.18381e-05
6.33149e-06
9.93033e-06
3.49136e-06
7.81964e-06
1.04831e-05
8.67323e-06
1.00623e-05
1.30368e-05
1.23814e-05
9.34152e-06
7.9821e-06
1.07484e-05
3.46162e-06
1.03285e-05
2.00256e-06
1.19741e-05
3.68794e-06
1.0132e-05
7.75054e-06
4.28861e-06
1.58021e-06
1.22062e-05
2.88766e-06
1.34127e-05
1.07117e-05
1.26799e-06
1.04419e-05
1.31657e-05
4.31186e-06
3.70984e-06
3.10369e-06
2.48566e-06
7.10874e-06
4.90971e-06
4.91446e-06
7.79751e-06
7.12141e-06
1.3183e-05
1.32866e-05
4.66093e-06
1.22365e-05
7.67078e-06
1.26436e-05
2.75999e-06
2.89799e-06
1.22821e-06
1.07507e-05
4.80995e-06
4.81792e-06
1.17358e-05
9.92055e-06
3.90394e-06
1.86343e-06
1.82472e-06
1.00184e-05
1.00342e-06
9.75313e-07
1.2845e-05
7.77198e-06
9.91028e-06
1.10801e-05
6.91407e-06
1.82255e-06
2.81624e-06
8.83654e-06
2.87601e-06
2.83853e-06
1.14891e-05
1.23601e-05
1.07327e-05
8.85768e-06
1.11476e-05
1.24161e-05
1.27234e-05
4.3896e-06
1.84874e-06
7.75595e-06
1.21229e-06
1.25387e-06
2.26349e-06
2.28871e-06
2.20437e-06
1.04099e-05
1.00026e-05
8.60417e-06
1.27853e-05
3.4468e-06
5.54618e-06
1.11952e-05
1.31612e-05
7.79469e-06
5.6126e-06
1.80884e-07
6.79889e-06
9.50834e-06
1.29499e-05
6.15422e-06
1.31839e-05
9.97265e-06
1.07821e-05
7.07902e-06
1.31867e-05
5.63587e-06
5.51348e-06
5.83861e-06
1.28806e-05
8.64465e-06
4.19518e-06
2.83934e-06
6.3369e-06
5.69983e-06
5.69695e-06
9.61156e-06
8.72211e-06
1.2945e-05
7.68195e-06
1.24245e-06
1.11158e-05
2.73664e-06
1.16217e-05
1.02275e-05
8.74735e-06
1.31669e-05
6.92176e-06
1.31659e-05
3.4087e-06
2.06722e-06
2.03125e-06
5.45619e-06
4.83988e-06
8.70365e-06
6.34683e-06
1.02897e-06
1.14997e-05
8.90946e-06
1.2589e-05
7.18129e-06
9.06002e-06
1.33943e-05
5.51684e-06
5.52555e-06
2.40307e-06
9.30623e-06
1.26984e-05
6.4511e-06
3.6056e-06
2.28922e-06
2.23081e-06
2.27119e-06
1.20933e-05
1.19082e-06
1.23055e-06
5.59789e-06
1.30871e-05
9.63346e-06
1.25315e-05
1.31695e-05
8.09049e-06
9.70963e-06
1.20789e-05
1.73318e-06
1.38789e-06
1.80648e-06
2.19957e-06
3.08156e-06
3.4852e-06
8.27139e-06
3.89826e-06
1.00572e-05
3.06463e-06
3.07985e-06
4.32857e-06
3.03341e-06
7.87286e-06
6.31368e-06
9.65124e-06
5.90531e-06
7.4708e-06
8.25957e-06
9.64338e-06
9.2414e-06
7.45552e-06
8.8348e-06
7.86253e-06
7.38702e-06
5.50494e-06
7.39357e-06
5.81066e-06
6.02033e-06
6.01668e-06
3.59652e-06
3.99335e-06
4.38973e-06
4.78852e-06
5.19926e-06
5.64427e-06
3.28694e-06
1.01777e-05
1.00872e-05
1.10914e-05
9.533e-06
4.85435e-07
4.74927e-07
8.16458e-06
6.51502e-06
6.01392e-06
5.88093e-06
1.93889e-06
7.17509e-06
7.19219e-06
7.249e-06
7.26398e-06
4.54498e-06
8.63041e-06
9.44947e-06
1.38438e-06
1.29933e-05
2.1835e-06
4.92431e-06
3.02839e-06
1.26288e-05
1.31479e-05
3.0717e-06
1.15812e-05
3.03159e-06
1.00301e-05
4.36009e-06
8.81628e-06
9.62907e-06
2.21172e-06
7.43718e-06
7.44699e-06
7.36914e-06
7.38073e-06
1.7699e-06
1.07442e-05
9.65e-06
1.8302e-06
1.25726e-05
8.44874e-06
1.25176e-05
1.12699e-05
6.18882e-07
1.2221e-05
1.3163e-05
9.86555e-06
2.61763e-06
7.76229e-06
5.39718e-06
1.25513e-05
1.01251e-05
6.65135e-06
1.17547e-05
7.13103e-06
1.28004e-05
1.31649e-05
1.2618e-05
1.15758e-05
1.05243e-05
1.79914e-06
9.23106e-06
3.24514e-06
9.83985e-06
6.80812e-06
1.06644e-05
1.25674e-05
1.23772e-05
1.2415e-05
1.07008e-05
1.31763e-05
2.18092e-06
3.28516e-06
1.29205e-05
1.0739e-05
9.44639e-06
1.31617e-05
1.27933e-05
1.2941e-05
2.55631e-06
1.2374e-05
1.21652e-05
8.25075e-06
1.05105e-05
9.5938e-06
5.20292e-06
5.40125e-06
5.92492e-06
3.91742e-06
9.22943e-06
1.0033e-05
7.84974e-06
7.85528e-06
7.78932e-06
1.38697e-06
4.79933e-06
5.52448e-06
9.63359e-06
3.49894e-06
8.25381e-06
8.24488e-06
4.40159e-06
5.1344e-06
8.64876e-06
3.08912e-06
4.0053e-06
2.68417e-06
3.61059e-06
3.21494e-06
2.20098e-06
6.415e-06
6.40841e-06
1.80649e-06
1.13406e-05
5.76141e-06
1.07988e-05
1.2485e-05
3.88123e-06
1.30054e-05
1.31377e-05
2.45114e-06
1.31653e-05
1.25773e-05
1.26189e-05
9.50538e-06
2.39085e-06
1.31674e-05
1.31812e-05
1.04105e-05
1.04625e-05
1.26805e-05
1.31698e-05
7.15166e-06
4.87596e-06
1.30961e-05
1.30351e-05
9.13192e-06
1.34369e-06
1.25711e-05
4.88943e-06
4.29624e-06
3.6948e-06
3.08607e-06
1.30819e-05
2.45986e-06
3.54889e-06
1.08873e-05
1.14028e-05
1.31673e-05
1.30854e-05
5.97801e-06
6.38465e-06
1.29707e-05
5.98826e-06
5.98397e-06
1.06924e-05
7.04156e-06
8.6918e-06
1.32873e-05
1.2493e-05
7.63642e-07
7.99993e-06
2.03385e-06
8.83074e-06
5.34287e-06
1.28226e-05
9.72886e-06
2.91647e-06
6.00896e-06
8.2988e-06
1.01012e-05
3.16107e-06
9.83263e-06
1.31719e-05
1.02744e-05
3.64017e-06
1.31661e-05
1.31682e-05
1.38495e-06
1.31719e-05
8.95156e-07
1.24347e-05
6.62825e-06
1.07175e-05
5.12614e-06
1.25907e-05
4.77838e-07
7.50857e-07
9.36897e-06
8.14041e-07
6.30981e-07
7.09481e-06
1.00353e-05
4.0573e-06
9.38845e-07
6.60648e-06
1.31556e-05
2.80029e-06
4.47217e-06
1.31508e-05
8.5128e-07
1.2639e-05
3.26453e-06
9.45992e-06
4.51612e-06
8.54527e-06
6.71979e-06
8.44147e-06
1.18491e-05
1.31726e-05
9.06241e-06
1.17719e-05
1.02884e-05
4.70478e-06
1.24707e-05
1.28612e-05
2.19859e-06
1.02906e-05
1.31756e-05
1.31825e-05
9.42995e-06
8.73059e-06
1.29454e-05
5.56203e-06
5.56284e-06
1.31516e-05
5.30993e-07
1.08159e-05
9.64815e-06
3.28358e-06
6.98981e-06
1.13961e-05
4.12487e-06
7.80909e-06
9.81636e-06
1.32571e-05
7.43763e-07
9.07482e-06
8.19262e-06
1.07721e-05
7.5255e-06
8.20965e-06
5.75903e-06
1.19794e-05
1.31635e-05
1.03143e-05
1.07814e-05
1.31708e-05
6.22596e-06
6.22108e-06
3.39699e-06
2.88003e-06
8.4557e-06
5.30677e-06
7.59936e-06
5.60039e-06
4.72458e-06
9.25791e-06
1.2253e-05
1.11671e-05
4.68502e-06
1.31897e-05
6.26718e-06
8.33241e-06
1.22731e-05
7.1771e-06
9.58815e-06
7.57308e-06
1.3344e-05
1.30853e-05
1.18272e-05
1.25361e-05
8.47096e-06
1.31437e-05
9.15698e-06
1.25726e-05
1.28464e-05
1.27382e-05
3.49318e-06
5.92524e-06
6.11856e-06
1.09839e-05
1.23436e-05
7.56681e-06
1.27878e-05
1.31948e-05
1.06111e-05
9.81576e-06
8.69573e-06
6.54798e-06
1.30632e-06
8.0489e-06
1.26535e-05
1.31747e-05
1.00703e-05
1.15781e-05
5.67356e-06
1.25224e-05
9.34032e-06
5.284e-06
7.58101e-06
4.4413e-06
1.32313e-05
5.58737e-06
1.53019e-06
6.40948e-06
9.00599e-06
9.05499e-06
7.4495e-06
6.0315e-06
1.23422e-05
1.31693e-05
1.26415e-05
9.43116e-06
7.20588e-06
1.05501e-05
9.04371e-06
1.1485e-05
1.31677e-05
1.0719e-05
8.86224e-06
1.28941e-05
1.26244e-05
8.66387e-06
9.8558e-06
8.47612e-06
1.02714e-05
7.61172e-06
3.26311e-06
1.44711e-06
1.39863e-06
2.39183e-06
2.47469e-06
2.43365e-06
5.8044e-06
5.80688e-06
6.81095e-06
6.44716e-06
8.32733e-06
9.57368e-06
1.10693e-05
1.20874e-06
1.75492e-06
1.03705e-07
1.30312e-05
6.23157e-06
4.4916e-07
1.27268e-05
1.26975e-05
1.01951e-05
5.24358e-06
5.24372e-06
6.50532e-06
1.17832e-05
4.43508e-06
6.65623e-06
8.85318e-06
1.07915e-05
6.60014e-06
9.73176e-06
3.80056e-06
1.26632e-05
1.0771e-05
1.31199e-05
1.32076e-05
1.04316e-06
1.25337e-05
5.94203e-06
6.4077e-06
1.31738e-05
7.82915e-06
2.22531e-06
1.262e-05
1.12587e-06
5.44919e-06
9.72821e-06
8.65045e-06
9.9356e-06
3.76114e-06
7.84583e-07
2.1299e-06
9.99319e-06
8.93339e-06
1.30704e-05
1.31619e-05
7.87915e-06
9.36576e-06
1.48847e-06
6.45135e-06
6.10567e-06
1.04722e-05
1.30564e-05
1.33272e-05
1.11239e-05
8.63173e-07
1.15616e-05
5.44258e-06
5.4831e-06
8.07157e-06
6.95447e-06
5.07445e-06
7.58232e-06
1.02231e-05
1.14744e-05
5.28887e-06
5.28919e-06
5.07213e-06
4.49355e-06
3.89587e-06
3.29054e-06
1.25877e-05
2.67097e-06
1.00118e-05
6.21367e-06
1.31764e-05
1.3127e-05
1.25387e-05
9.73113e-06
1.09057e-05
9.05514e-06
1.1136e-05
8.9515e-06
1.17103e-05
7.24342e-06
1.29795e-05
8.04898e-06
5.76218e-06
1.33795e-05
8.44865e-06
1.003e-05
2.75152e-06
2.06971e-06
3.34244e-06
3.92974e-06
6.33969e-06
4.52518e-06
6.36181e-06
1.45272e-06
1.25868e-05
1.30596e-05
1.17802e-05
1.15403e-05
6.12089e-07
6.22707e-07
6.83302e-06
5.36397e-06
9.02914e-06
1.26753e-05
1.22883e-05
1.3173e-05
1.31568e-05
1.31896e-05
1.14067e-05
1.25771e-05
1.24424e-05
2.94266e-06
1.31248e-05
7.2692e-06
9.4505e-06
1.15626e-05
1.3139e-05
1.16708e-05
3.07721e-06
1.0116e-05
4.43474e-06
1.26255e-05
1.09093e-05
1.03813e-05
1.24707e-05
1.27062e-05
1.16929e-06
1.31222e-05
1.60051e-06
2.00672e-06
3.79434e-06
4.19067e-06
3.28186e-06
4.58746e-06
9.443e-06
8.06286e-06
8.07167e-06
3.68914e-06
5.70347e-06
4.99065e-06
7.66103e-06
7.67544e-06
9.04052e-06
9.85467e-06
4.11065e-06
6.1088e-06
5.4155e-06
1.27712e-05
2.94469e-06
1.05595e-05
1.22352e-05
1.27397e-05
6.3071e-06
1.12364e-05
4.39443e-06
8.90552e-06
1.33037e-05
2.98941e-06
1.25589e-05
1.31761e-05
1.13282e-05
8.25106e-06
1.26368e-05
8.84574e-06
1.5923e-06
1.23768e-05
1.0403e-05
1.04965e-05
6.79842e-06
9.66151e-06
3.23963e-06
4.2793e-06
1.05505e-05
1.32362e-05
5.11174e-06
1.30365e-05
5.11354e-06
1.31965e-05
1.2401e-05
1.31625e-05
8.90249e-06
1.24982e-05
7.14233e-06
1.09403e-06
3.67987e-06
1.2494e-05
6.23012e-06
1.31849e-05
6.93156e-07
1.47526e-06
9.91239e-06
1.07756e-05
9.24925e-06
1.27586e-05
9.6866e-06
6.76415e-06
5.26547e-06
8.85425e-07
5.25999e-06
2.68034e-06
7.80575e-06
5.72142e-06
5.11219e-06
8.64813e-06
2.20156e-06
5.72573e-06
5.38804e-06
6.4293e-06
6.42264e-06
3.19869e-06
6.00712e-06
9.33141e-06
2.66876e-06
2.77078e-06
1.19721e-05
6.49002e-06
1.285e-05
1.21283e-05
1.01264e-06
9.8469e-07
7.84258e-06
1.27199e-05
3.2631e-06
3.18772e-06
1.8734e-06
7.11205e-06
6.90222e-06
1.25708e-05
1.25982e-05
1.22289e-05
1.09609e-05
8.251e-06
1.31716e-05
1.33463e-05
1.12462e-05
7.97762e-06
8.50855e-06
1.31783e-05
5.89046e-06
5.4855e-06
1.05441e-05
1.32859e-05
1.18688e-05
1.15988e-05
1.89058e-06
3.21788e-06
5.8586e-06
1.0684e-05
1.2874e-05
4.0638e-06
1.56521e-06
2.85164e-06
1.32257e-05
1.31719e-05
1.32475e-05
1.05161e-05
1.31523e-05
1.08254e-05
3.6632e-06
1.31353e-05
1.23758e-05
5.12133e-06
1.15334e-05
9.92128e-06
8.63221e-06
4.82242e-06
1.32887e-05
1.31266e-05
1.30985e-05
1.31754e-05
1.12711e-05
1.15474e-05
1.25638e-05
7.11071e-06
4.9001e-06
2.48753e-06
1.33386e-05
3.10583e-06
3.70475e-06
4.30564e-06
4.89998e-06
1.24051e-05
1.26811e-05
8.08707e-06
1.34123e-05
2.05312e-06
1.28584e-05
3.11172e-06
1.00817e-05
7.31929e-06
1.28611e-05
5.67381e-06
1.08162e-06
1.12175e-06
1.13667e-05
1.01654e-05
2.03278e-06
2.08073e-06
1.25736e-05
3.0353e-06
5.9882e-06
1.31651e-05
3.0787e-06
8.73005e-06
9.32924e-06
1.10203e-05
1.25743e-05
3.03891e-06
1.30829e-05
7.47811e-06
7.52824e-06
4.49038e-06
3.42484e-06
8.24671e-06
5.77127e-06
1.32478e-05
5.62722e-06
5.62398e-06
9.55074e-06
1.00586e-05
1.31721e-05
1.99517e-06
1.11606e-05
6.88301e-07
8.26361e-07
1.03331e-05
3.47002e-06
1.32773e-05
3.00088e-06
1.18131e-06
1.78858e-06
1.26374e-05
1.31555e-05
1.17768e-05
1.29147e-06
1.24772e-06
2.20701e-06
2.27752e-06
2.25997e-06
7.2678e-06
4.54843e-06
4.53204e-06
1.26276e-05
1.19361e-05
1.27733e-05
4.0848e-06
1.31107e-05
1.89525e-06
1.829e-06
9.21904e-06
1.2571e-05
4.71286e-06
1.33048e-05
1.33297e-05
1.26747e-05
1.10704e-05
3.30714e-06
1.31526e-05
4.04685e-06
2.06469e-06
6.5051e-06
1.90949e-06
7.18731e-06
7.16259e-06
2.41696e-06
9.43846e-06
8.6244e-06
4.54574e-06
7.24387e-06
7.25813e-06
1.40108e-06
1.30833e-05
8.26662e-06
1.05926e-05
1.2898e-05
1.21043e-05
2.8299e-06
1.31393e-05
1.27775e-05
1.03278e-05
2.88649e-06
6.93928e-06
5.06742e-06
1.28423e-05
3.73872e-06
1.17423e-05
2.87306e-06
2.69774e-06
3.30587e-06
3.90456e-06
4.50595e-06
5.07347e-06
1.23965e-05
1.04661e-05
1.10118e-05
6.28258e-06
9.52735e-06
3.76888e-06
1.25113e-05
9.73823e-06
1.18162e-05
1.27305e-05
1.31995e-05
1.20361e-05
8.44351e-06
1.28569e-05
1.31008e-05
1.16476e-05
1.26883e-05
7.54102e-06
4.48952e-06
1.08291e-05
1.26513e-05
1.33623e-05
6.95278e-06
6.33174e-06
9.04746e-06
1.28582e-05
1.23947e-05
8.64427e-06
9.21331e-06
1.06356e-05
1.18737e-05
8.26846e-06
7.35006e-06
1.318e-05
1.28066e-05
8.92932e-06
7.85558e-06
5.73955e-06
5.74221e-06
1.26983e-05
2.59582e-06
1.18019e-05
4.51043e-06
3.9108e-06
3.30616e-06
2.69347e-06
5.48443e-06
1.3166e-05
2.37046e-06
8.34042e-06
1.31832e-05
1.30842e-05
1.67474e-06
8.29457e-06
9.86454e-07
1.13656e-05
6.86372e-06
1.16466e-05
5.79101e-07
5.67778e-07
1.34959e-05
6.15568e-06
1.33346e-05
1.31007e-05
1.23076e-05
5.28602e-06
1.18534e-06
1.12768e-06
1.27127e-05
1.31786e-05
1.32196e-05
1.06802e-05
6.55829e-06
1.30619e-05
1.44712e-06
1.08734e-05
1.3166e-05
6.91262e-06
5.11878e-06
1.10506e-05
5.1151e-06
1.24519e-05
1.31311e-05
1.09379e-05
8.45433e-06
1.27348e-05
1.12473e-05
1.27746e-05
1.31775e-05
1.25551e-05
6.66052e-07
1.28263e-05
1.23257e-05
1.3171e-05
1.29573e-05
1.03749e-05
1.14966e-05
1.31649e-05
1.31518e-05
1.30666e-05
6.20026e-06
1.34525e-05
1.29405e-05
7.58778e-06
1.30891e-05
1.12768e-05
8.07226e-06
2.34415e-06
1.13868e-05
1.15894e-05
8.82609e-06
2.85687e-06
9.43148e-06
6.42402e-06
1.25552e-05
1.07673e-06
1.26149e-05
1.27918e-05
3.05928e-07
1.31935e-05
1.46923e-06
1.42469e-06
2.41111e-06
2.49089e-06
2.46595e-06
1.13853e-05
1.23739e-05
2.06182e-06
1.27092e-06
8.97205e-06
6.55718e-06
6.52225e-06
4.3314e-06
1.87519e-06
3.73817e-06
3.15974e-06
2.55064e-06
4.82508e-07
8.69231e-06
6.97258e-06
6.93428e-06
2.13602e-06
1.59776e-06
4.77997e-06
8.41658e-06
9.21835e-06
2.62596e-06
7.01835e-06
7.03174e-06
1.13705e-05
7.97006e-06
1.24186e-05
1.04714e-05
1.31833e-05
1.31309e-05
1.31583e-05
4.86107e-07
5.98794e-06
1.3162e-05
1.31504e-05
1.29679e-05
5.58483e-06
5.58231e-06
1.19555e-05
9.563e-07
1.07768e-05
1.14826e-05
9.16512e-06
7.48111e-06
7.0096e-06
1.46311e-06
3.93106e-06
3.35232e-06
2.75483e-06
1.31868e-05
1.12975e-05
6.34743e-06
6.33474e-06
4.53784e-06
2.0942e-06
1.15995e-05
1.30186e-05
3.87627e-06
6.2709e-06
1.2463e-05
1.33097e-05
5.29778e-06
1.07256e-05
1.96894e-06
1.30385e-05
1.32327e-05
1.24405e-05
1.3226e-05
3.35488e-07
1.31638e-05
1.27132e-05
3.2479e-06
1.03073e-05
7.35947e-06
4.6622e-06
1.85099e-06
1.7425e-06
1.31657e-05
2.82252e-06
2.88086e-06
1.31668e-05
1.31675e-05
3.63412e-06
3.26239e-06
1.52626e-06
1.32211e-05
8.15358e-06
1.31893e-05
6.00444e-06
2.56498e-06
1.25971e-05
2.87973e-06
3.49358e-06
4.09698e-06
4.69253e-06
1.31714e-05
1.31833e-05
1.31744e-05
7.37754e-06
4.43807e-06
1.126e-05
1.1351e-05
1.21517e-05
1.32159e-05
1.23099e-05
2.83442e-06
1.31675e-05
1.10617e-05
1.24199e-05
7.18078e-07
7.28292e-07
1.19623e-05
1.31859e-05
1.26027e-05
7.36739e-06
4.49647e-06
9.759e-06
1.13097e-05
7.91972e-06
5.16131e-06
1.30604e-05
1.10688e-05
1.2713e-05
1.29808e-05
3.15798e-06
9.38968e-06
3.03931e-06
1.04681e-06
6.12188e-06
1.23318e-05
2.24734e-06
3.07739e-06
1.42795e-06
1.48466e-06
8.04554e-06
1.31633e-05
2.46205e-06
2.48644e-06
2.39454e-06
8.52677e-06
1.26081e-05
1.31653e-05
1.24978e-05
1.26792e-05
1.31695e-05
7.38996e-06
7.37131e-06
9.5606e-06
7.3615e-06
1.31739e-05
8.81727e-06
1.86607e-06
7.29458e-06
4.48607e-06
2.22245e-06
8.78469e-06
1.31526e-05
1.2919e-05
2.21385e-06
2.23152e-06
7.06688e-06
9.85035e-06
1.05101e-05
1.31725e-05
1.32476e-05
2.0347e-06
2.02863e-06
1.04372e-05
1.25796e-05
3.00545e-06
6.27369e-06
1.28356e-05
3.28588e-06
1.24672e-05
2.16478e-06
8.61994e-06
1.32783e-05
1.2356e-05
1.22199e-06
1.77729e-06
5.02951e-06
9.22336e-06
9.85196e-06
6.82954e-06
7.87488e-06
7.0484e-06
1.18531e-05
1.28363e-05
1.08308e-05
4.99886e-06
2.58302e-06
3.89166e-06
4.49448e-06
8.12215e-06
1.31728e-05
1.32256e-05
1.00455e-06
1.31341e-05
5.41711e-06
3.48853e-06
1.9937e-06
5.62083e-06
1.06748e-05
6.98013e-06
2.87458e-06
6.10655e-06
5.84715e-06
1.30067e-05
1.33182e-05
4.41174e-06
1.03555e-05
1.17421e-05
4.092e-06
4.68506e-06
6.92165e-06
8.01851e-07
1.28655e-05
3.33836e-06
3.45293e-06
7.46719e-07
3.43274e-06
4.10401e-06
9.03618e-06
9.8585e-06
7.65956e-06
7.68055e-06
7.59189e-06
7.61358e-06
1.51667e-06
1.30527e-05
2.58202e-06
2.67879e-06
1.6454e-06
1.52951e-06
4.53115e-06
2.43218e-06
2.73881e-06
8.8618e-06
4.05979e-06
6.62573e-07
1.30718e-05
1.40988e-06
4.9984e-06
5.70223e-06
3.68138e-06
9.44418e-06
8.08399e-06
8.06148e-06
1.02593e-05
2.52231e-06
2.97414e-06
1.63693e-06
3.55431e-06
1.68573e-06
1.22788e-05
4.59586e-06
5.30878e-06
8.46591e-06
3.28191e-06
8.44748e-06
9.83903e-06
4.19863e-06
2.88772e-06
3.80061e-06
3.40063e-06
2.37206e-06
1.01719e-05
1.99643e-06
4.14256e-06
6.71034e-06
6.18866e-06
6.18412e-06
2.91606e-06
1.63308e-06
1.69453e-06
1.31696e-05
1.61282e-06
1.65719e-06
1.19664e-06
5.17795e-06
1.32572e-05
5.17588e-06
2.63728e-06
2.16744e-06
1.25455e-05
2.67586e-06
2.67608e-06
2.60437e-06
1.21625e-05
2.68803e-06
2.61761e-06
1.61601e-06
1.16649e-05
1.26445e-05
5.49133e-06
1.31898e-05
1.03995e-05
6.53373e-06
4.10266e-06
4.68557e-06
1.4086e-06
6.02737e-06
8.21176e-06
1.02747e-05
2.1093e-06
2.03743e-06
1.19938e-05
3.96077e-07
8.73146e-07
1.06404e-05
5.93684e-06
5.92993e-06
1.06385e-05
1.31606e-05
2.4447e-06
7.26506e-06
7.28243e-06
4.57308e-06
7.8821e-06
1.0512e-05
1.94276e-06
7.18181e-06
7.146e-06
1.31731e-05
1.23072e-06
1.07243e-05
6.3988e-06
8.17173e-06
8.58853e-06
9.45355e-06
5.68222e-06
5.66998e-06
2.0016e-06
1.26648e-06
3.62265e-06
9.70018e-06
6.52438e-06
8.13319e-06
9.08385e-06
2.04583e-06
2.40058e-06
2.45668e-06
1.31443e-05
3.42489e-06
4.68036e-06
1.31114e-05
3.75119e-06
3.16424e-06
2.62865e-06
3.14091e-06
4.33971e-06
5.51052e-06
1.89468e-06
1.04557e-05
9.48839e-06
7.66215e-06
2.26553e-06
2.2776e-06
1.20411e-05
5.18971e-06
8.00964e-06
4.9187e-06
8.81833e-06
2.49555e-06
3.00711e-06
6.61111e-06
6.61816e-06
6.33032e-06
1.67909e-06
2.69373e-06
8.46613e-06
8.27236e-06
3.46752e-06
3.25262e-06
6.3828e-06
3.65933e-06
9.44401e-06
9.85232e-06
8.63996e-06
1.31741e-05
7.10608e-06
8.88798e-06
1.22726e-05
2.02405e-06
1.66415e-06
6.54949e-06
2.66158e-06
5.46108e-06
3.85047e-06
5.14178e-06
1.00531e-05
1.31406e-06
3.70477e-06
5.52847e-06
5.52566e-06
7.60984e-06
7.60033e-06
9.76898e-06
1.03221e-05
5.52133e-06
5.51939e-06
6.12615e-06
6.3784e-06
3.31193e-06
3.90305e-06
4.49929e-06
5.09505e-06
4.79829e-06
9.03741e-06
8.02436e-06
6.90448e-06
5.07787e-06
7.27464e-06
2.33405e-06
1.46416e-06
7.53608e-06
1.22041e-06
1.24202e-05
9.91134e-06
1.31662e-05
5.18949e-06
3.11427e-06
9.279e-06
3.25558e-06
8.64337e-06
7.31299e-06
4.99683e-06
2.50231e-06
8.6725e-06
3.80673e-06
3.2755e-06
1.50666e-06
4.0669e-06
9.24205e-06
1.01215e-05
4.75309e-06
7.60977e-06
7.51539e-07
7.70947e-07
7.82293e-06
1.19846e-05
5.61939e-06
6.14414e-06
6.13267e-06
5.54563e-06
5.54311e-06
5.32881e-06
6.6773e-06
3.21534e-06
5.75682e-06
3.06438e-06
1.19964e-06
2.32533e-06
3.00841e-06
4.00446e-06
4.40114e-06
8.4541e-06
8.6923e-06
5.88548e-06
5.69617e-06
8.21307e-06
1.00287e-05
7.87874e-06
7.86393e-06
5.67492e-06
6.31544e-06
6.30828e-06
1.84805e-06
7.84836e-06
2.80693e-06
3.11578e-06
3.08191e-06
3.6087e-06
1.38161e-06
3.05324e-06
1.02742e-05
8.09763e-06
8.07751e-06
9.64869e-06
8.53004e-06
3.41018e-06
2.8874e-06
8.33858e-06
3.50786e-06
2.70957e-06
5.37396e-06
2.23303e-06
1.17135e-05
4.88022e-06
7.46053e-06
4.30353e-06
4.87471e-06
5.97179e-06
5.92616e-06
6.87293e-06
4.60004e-06
5.81315e-06
7.50627e-06
1.80713e-06
1.31676e-05