/*--------------------------------*- C++ -*----------------------------------*\
  =========                 |
  \\      /  F ield         | OpenFOAM: The Open Source CFD Toolbox
   \\    /   O peration     | Website:  https://openfoam.org
    \\  /    A nd           | Version:  8
     \\/     M anipulation  |
\*---------------------------------------------------------------------------*/
FoamFile
{
    version     2.0;
    format      ascii;
    class       volScalarField;
    location    "3";
    object      p;
}
// * * * * * * * * * * * * * * * * * * * * * * * * * * * * * * * * * * * * * //

dimensions      [0 2 -2 0 0 0 0];

internalField   nonuniform List<scalar> 
6388
(
1.31783e-05
1.31962e-05
1.27163e-05
1.27208e-05
1.02867e-05
8.40699e-06
1.24922e-05
1.21084e-05
1.26571e-05
1.20811e-05
1.05779e-05
1.20295e-05
1.24264e-05
8.53934e-06
1.24005e-05
1.23389e-05
1.21798e-05
9.20846e-06
1.23063e-05
1.24684e-05
1.22991e-05
1.22708e-05
9.34448e-06
9.52417e-06
9.26785e-06
1.22784e-05
1.2456e-05
1.21979e-05
1.21655e-05
1.2761e-05
9.07074e-06
9.1496e-06
1.01954e-05
1.1291e-05
8.85528e-06
1.03513e-05
9.46796e-06
1.16292e-05
1.24407e-05
8.59988e-06
1.23892e-05
1.23523e-05
1.30986e-05
9.50893e-06
1.27203e-05
1.20205e-05
1.32272e-05
1.25144e-05
1.27771e-05
1.23237e-05
1.27142e-05
1.29091e-05
1.24944e-05
1.24079e-05
1.19414e-05
1.27322e-05
1.2251e-05
1.26857e-05
1.24629e-05
1.24876e-05
9.26265e-06
1.27085e-05
1.2248e-05
1.2706e-05
1.2006e-05
1.27226e-05
1.21041e-05
1.23488e-05
1.16517e-05
1.27179e-05
1.16302e-05
8.96445e-06
8.3862e-06
1.14403e-05
1.27193e-05
1.25671e-05
8.76138e-06
1.26981e-05
1.27252e-05
9.17153e-06
1.20959e-05
9.26245e-08
8.44556e-08
8.49396e-08
8.2664e-08
9.14748e-08
1.08981e-05
9.33681e-08
8.34563e-08
8.50062e-08
9.1151e-08
7.95255e-08
1.27262e-05
1.2969e-05
1.2329e-05
1.28771e-05
1.27217e-05
8.78966e-06
1.27947e-05
1.23674e-05
1.22924e-05
1.17262e-05
1.21976e-05
1.2063e-05
1.20877e-05
1.10843e-05
1.26054e-05
1.21365e-05
1.22267e-05
1.27165e-05
1.24416e-05
9.63993e-06
9.889e-06
1.24729e-05
1.30025e-05
1.28961e-05
1.06332e-05
1.31239e-05
1.24501e-05
1.27178e-05
8.01897e-06
1.27002e-05
1.22807e-05
1.26662e-05
9.37489e-06
1.2835e-05
1.26667e-05
1.24014e-05
1.26937e-05
1.23194e-05
9.73286e-06
1.21372e-05
1.26165e-05
1.28808e-05
1.27286e-05
9.55532e-06
9.20523e-06
1.17141e-05
1.27261e-05
1.2117e-05
9.8997e-06
1.28632e-05
1.22741e-05
1.2771e-05
1.26986e-05
1.22421e-05
1.25804e-05
1.27172e-05
1.23616e-05
1.29171e-05
1.20879e-05
1.27726e-05
1.2089e-05
9.56971e-06
1.19865e-05
1.24471e-05
1.15556e-05
1.27192e-05
9.43836e-06
1.13108e-05
1.27871e-05
1.29372e-05
8.72639e-06
1.14918e-05
1.27194e-05
1.12802e-05
8.2666e-06
8.14495e-06
8.06192e-06
1.26366e-05
8.64795e-06
1.21245e-05
1.22597e-05
1.27172e-05
1.2019e-05
9.08536e-06
1.26608e-05
1.248e-05
1.29531e-05
1.21111e-05
1.19652e-05
1.18124e-05
8.85571e-06
7.63383e-06
1.22471e-05
1.11613e-05
1.27277e-05
9.48017e-06
1.2165e-05
9.63828e-06
9.88538e-06
1.19427e-05
1.01058e-05
1.32272e-05
1.2209e-05
1.26797e-05
1.27192e-05
1.26874e-05
8.44744e-06
7.96094e-06
7.74118e-06
8.65981e-06
1.27147e-05
7.83424e-06
7.91903e-06
8.03366e-06
8.38363e-06
9.43144e-06
1.27028e-05
1.2509e-05
8.79821e-06
9.22538e-06
8.45489e-06
1.12334e-05
6.19715e-06
5.99395e-06
5.90978e-06
5.8448e-06
9.01827e-06
1.23696e-05
6.20001e-06
1.27118e-05
7.77174e-06
9.26606e-06
1.27082e-05
7.49878e-06
9.84552e-06
6.60321e-06
6.38847e-06
6.29834e-06
6.22958e-06
1.14562e-05
7.75444e-06
1.25568e-05
1.21067e-05
6.60914e-06
1.11769e-05
8.21025e-06
7.21437e-06
8.59461e-06
7.03539e-06
6.93786e-06
6.86051e-06
1.10171e-05
7.42644e-06
7.32361e-06
7.24187e-06
7.84119e-06
8.83488e-06
1.0331e-05
1.26939e-05
8.56475e-06
8.16349e-06
7.81884e-06
7.70917e-06
7.62442e-06
8.24557e-06
8.04492e-06
7.97123e-06
8.33153e-06
5.17424e-06
8.25278e-06
8.46246e-06
5.16812e-06
5.58241e-06
7.43545e-06
7.51904e-06
7.62507e-06
5.60249e-06
5.52397e-06
5.46307e-06
5.54665e-06
5.8239e-06
8.33066e-06
1.20707e-05
5.86486e-06
1.27107e-05
1.02553e-05
6.40864e-06
5.89922e-06
7.58585e-06
6.538e-06
6.46283e-06
1.23873e-05
6.48041e-06
1.25514e-05
7.00874e-06
6.91828e-06
1.22765e-05
8.60244e-06
8.37128e-06
1.21218e-05
9.59755e-06
1.24135e-05
7.05219e-06
7.31435e-06
1.27244e-05
7.09291e-06
8.12547e-06
1.23583e-05
1.01734e-05
9.83217e-06
1.27364e-05
6.98403e-06
7.01751e-06
7.43846e-06
6.63e-06
6.70376e-06
6.79896e-06
6.22995e-06
1.27397e-05
1.00847e-05
1.26761e-05
1.073e-05
8.92059e-06
1.27094e-05
9.81857e-06
6.61354e-06
1.24299e-05
7.65171e-06
7.97789e-06
1.25994e-05
8.41629e-06
7.94418e-06
7.01105e-06
1.22029e-05
1.16066e-05
9.3787e-06
9.63654e-06
4.93825e-06
5.70639e-07
5.25796e-07
5.39599e-07
5.34538e-07
5.63078e-07
5.94171e-06
5.42838e-06
9.68843e-06
9.44724e-06
1.15164e-05
1.19296e-05
5.99261e-06
5.32239e-06
1.26094e-05
5.45407e-06
7.20536e-06
1.24602e-05
5.46158e-06
6.80885e-06
6.44721e-06
6.51755e-06
6.61115e-06
9.25459e-06
9.49102e-06
5.85998e-06
7.39778e-06
9.75765e-06
6.41861e-06
1.04695e-05
7.41506e-06
7.05403e-06
7.13324e-06
7.23371e-06
8.84786e-06
1.21385e-05
1.05712e-05
4.57755e-06
6.40143e-06
1.2223e-05
6.03534e-06
6.10226e-06
6.18933e-06
5.20522e-06
9.5774e-06
9.6585e-06
7.21925e-06
1.12897e-05
5.59755e-06
6.86745e-06
6.81216e-06
1.21449e-05
1.27054e-05
5.20662e-06
5.13366e-06
5.07707e-06
1.20719e-05
1.21377e-05
6.86688e-06
6.69364e-06
1.26466e-05
6.78862e-06
7.32824e-06
6.2086e-06
6.29342e-06
1.27015e-05
9.45811e-06
6.61373e-06
1.02636e-05
6.27423e-06
6.66762e-06
1.21667e-05
1.24209e-05
1.2251e-05
1.2753e-05
6.29075e-06
7.23924e-06
7.52585e-06
1.24287e-05
1.28069e-05
4.76518e-06
1.20163e-05
1.27103e-05
1.27926e-05
4.32992e-06
4.28191e-06
4.39119e-06
1.07506e-05
1.26778e-05
1.27167e-05
5.95953e-06
1.23367e-05
1.27128e-05
5.51373e-06
6.09792e-06
1.28829e-05
4.37412e-06
4.83035e-06
1.13989e-05
1.26154e-05
7.11329e-06
1.27153e-05
4.82964e-06
1.17623e-05
6.00885e-06
9.97116e-06
4.85078e-06
1.29084e-05
5.70588e-06
4.97933e-06
6.07021e-06
5.65455e-06
5.71754e-06
5.79886e-06
1.14747e-05
5.7641e-06
6.79847e-06
4.78084e-06
4.97049e-06
1.23778e-05
4.64238e-06
1.22662e-05
1.00534e-05
6.72996e-06
9.63197e-06
1.11353e-05
5.78752e-06
1.2557e-05
1.16644e-05
4.43136e-06
5.27146e-06
5.33028e-06
5.40599e-06
5.35576e-06
4.44332e-06
4.47578e-06
4.52582e-06
4.58997e-06
5.23332e-06
1.26323e-05
4.40689e-06
6.42996e-06
1.27138e-05
5.26117e-06
1.24286e-05
5.37984e-06
1.00005e-05
1.21199e-05
1.28886e-05
5.24987e-06
9.49547e-06
1.04753e-05
6.08623e-06
5.03505e-06
5.62546e-06
4.74783e-06
5.66264e-06
5.05888e-06
1.27195e-05
8.23433e-06
5.04277e-06
1.27318e-05
4.55973e-06
4.62748e-06
5.01595e-06
1.23562e-05
4.64197e-06
9.37035e-06
5.76324e-06
5.65642e-06
1.00517e-05
8.0079e-06
1.27162e-05
1.27288e-05
5.13072e-06
1.1728e-05
4.82603e-06
4.61319e-06
1.27202e-05
1.04964e-05
1.25501e-05
5.39837e-06
1.0835e-05
4.194e-06
1.28264e-05
1.18032e-05
9.85197e-06
1.23996e-05
1.21605e-05
4.45016e-06
1.01936e-05
4.01246e-06
9.56791e-06
1.05519e-05
9.27407e-06
1.27095e-05
1.05774e-05
1.27376e-05
1.22853e-05
1.2368e-05
1.10221e-05
1.26692e-05
4.26333e-06
1.22395e-05
7.81832e-06
1.21443e-05
1.27201e-05
1.25851e-05
1.14661e-05
1.27297e-05
1.22832e-05
9.63678e-06
1.28219e-05
1.27025e-05
1.27334e-05
1.27764e-05
1.24826e-05
1.28406e-05
1.22577e-05
1.27967e-05
1.27205e-05
1.2506e-05
1.23803e-05
1.13361e-05
1.27178e-05
1.00647e-05
1.24651e-05
1.26992e-05
1.10313e-05
1.26768e-05
1.25113e-05
1.20279e-05
9.06385e-06
1.24641e-05
1.27146e-05
1.16989e-05
1.08889e-05
1.2665e-05
1.18801e-05
1.27914e-05
1.0448e-05
1.07635e-05
1.26498e-05
1.24396e-05
1.27025e-05
1.034e-05
1.27712e-05
9.47008e-06
8.9077e-07
9.22862e-07
8.65772e-07
8.76227e-07
8.87912e-07
3.72142e-06
3.7629e-06
3.81644e-06
1.20668e-05
1.05628e-05
1.09721e-05
1.22315e-05
1.24107e-05
1.04067e-05
1.2635e-05
9.81046e-06
1.27623e-05
1.27327e-05
1.33374e-05
8.02781e-06
1.0959e-05
1.28729e-05
1.06841e-05
1.28407e-05
1.23141e-05
1.27595e-05
1.2733e-05
1.26325e-05
1.1766e-05
1.27155e-05
9.60456e-06
1.19064e-05
1.27213e-05
1.23018e-05
1.25064e-05
1.27597e-05
1.1421e-05
9.86546e-06
1.27124e-05
9.78657e-06
1.09934e-05
1.26131e-05
3.88492e-06
3.25892e-07
3.25129e-07
3.34492e-07
3.19585e-07
1.20567e-05
3.08206e-07
1.19449e-05
1.25007e-05
8.47192e-06
1.27225e-05
1.1243e-05
1.22989e-05
1.25234e-05
3.86723e-06
9.40691e-06
1.26542e-05
7.49125e-06
1.27313e-05
1.27266e-05
3.44298e-06
1.02155e-05
1.21453e-05
1.20505e-05
9.5501e-06
3.56002e-07
4.16747e-07
3.78162e-07
3.85105e-07
4.41372e-07
1.20216e-05
1.00512e-05
1.24223e-05
1.08278e-05
1.23641e-05
1.27072e-05
1.15998e-05
1.02735e-05
3.61804e-06
1.1416e-05
1.08737e-05
1.16265e-05
9.07154e-06
1.27403e-05
1.28567e-05
1.28478e-05
1.2601e-05
9.17327e-06
1.28288e-05
1.27254e-05
1.24877e-05
9.27271e-06
1.27517e-05
1.17983e-05
4.15562e-07
4.0397e-07
3.68746e-07
3.59554e-07
3.69894e-07
1.27088e-05
1.26785e-05
1.26494e-05
3.42973e-07
3.49924e-07
3.58444e-07
3.52438e-07
3.65359e-07
1.01307e-05
9.46903e-06
1.23297e-05
7.99103e-06
1.25046e-05
1.2762e-05
1.04351e-05
1.24721e-05
1.0351e-05
1.02097e-05
1.22168e-05
1.20156e-05
1.2114e-05
1.23538e-05
9.67709e-06
1.2628e-05
1.27203e-05
1.27735e-05
1.23411e-05
1.24803e-05
1.2333e-05
1.18564e-05
1.18917e-05
1.27598e-05
1.27652e-05
1.26973e-05
1.27908e-05
1.2723e-05
1.2619e-05
8.91408e-06
1.00379e-05
9.27552e-06
1.0829e-05
1.21914e-05
1.27596e-05
9.67501e-06
1.23651e-05
1.06096e-05
1.24879e-05
1.23043e-05
1.27185e-05
1.11274e-05
1.02933e-05
1.29115e-05
1.27495e-05
1.27073e-05
6.60936e-06
1.22666e-05
1.23791e-05
1.06858e-05
3.83073e-06
1.27355e-05
1.26601e-05
1.13489e-05
1.27331e-05
4.56233e-06
1.24867e-05
1.1717e-05
7.79305e-06
1.22725e-05
1.27249e-05
1.22333e-05
1.25618e-05
8.7733e-06
4.0555e-06
1.1398e-05
1.03107e-05
9.11666e-06
9.68237e-06
8.86897e-06
1.09544e-05
1.26394e-05
1.1114e-05
1.15773e-05
1.27517e-05
1.25446e-05
1.27047e-05
9.96616e-06
1.24715e-05
8.25028e-06
8.13939e-06
8.04544e-06
5.65534e-07
1.27318e-05
1.27187e-05
1.25082e-05
1.27115e-05
1.16462e-05
5.22822e-07
5.80864e-07
5.38586e-07
5.50578e-07
1.15167e-05
1.16336e-05
1.2418e-05
1.127e-05
1.26105e-05
1.27074e-05
1.24367e-05
1.23692e-05
1.2688e-05
1.06651e-05
1.27125e-05
1.27222e-05
1.27663e-05
1.15729e-05
1.25434e-05
1.2792e-05
1.25551e-05
1.27193e-05
1.28669e-05
1.18737e-05
8.70241e-06
1.22245e-05
1.25938e-05
1.14133e-05
7.59739e-06
1.2758e-05
1.17046e-05
1.21354e-05
1.11496e-05
1.25162e-05
1.21047e-05
9.76709e-06
1.05451e-05
1.04854e-05
1.19538e-05
1.27173e-05
1.2711e-05
9.47869e-06
8.32085e-06
1.11754e-05
1.28696e-05
1.26876e-05
1.2356e-05
1.27657e-05
1.23151e-05
1.06986e-05
1.32319e-05
1.01354e-05
1.23042e-05
9.24389e-06
8.13173e-06
8.80921e-06
1.27208e-05
1.23993e-05
1.28777e-05
1.22823e-05
1.27251e-05
1.29403e-05
1.26794e-05
8.59761e-06
1.26281e-05
1.22081e-05
1.27257e-05
1.20195e-05
8.6722e-06
1.27244e-05
3.63687e-06
1.26877e-05
1.20559e-05
1.22807e-05
1.20263e-05
5.04474e-06
8.93491e-06
1.27371e-05
1.29698e-05
1.27468e-05
1.28442e-05
3.83409e-06
1.2725e-05
1.24526e-05
1.19305e-05
1.05468e-05
1.22671e-05
8.87209e-06
9.45179e-06
9.21726e-06
1.24209e-05
9.00316e-06
8.98958e-06
1.92243e-06
5.47798e-06
5.40123e-06
5.3417e-06
1.29073e-05
1.25857e-05
1.27193e-05
9.27033e-06
1.26225e-05
1.16878e-05
1.27022e-05
1.039e-05
1.27307e-05
1.25198e-05
1.25442e-05
3.6207e-06
3.56978e-06
3.53059e-06
1.00457e-05
1.27351e-05
1.22227e-05
1.05936e-05
1.26854e-05
8.14202e-06
9.30639e-06
1.24819e-05
7.54874e-07
7.19728e-07
6.87857e-07
1.21064e-05
2.03689e-06
1.28113e-05
1.22891e-05
6.04311e-06
7.03668e-07
1.20602e-05
1.23555e-05
8.86761e-06
9.09318e-06
1.23637e-05
1.25583e-05
8.26892e-06
8.70944e-06
8.931e-06
9.22839e-07
1.10711e-05
1.25866e-05
9.41906e-06
9.28288e-06
1.19334e-05
4.78842e-06
1.10538e-05
7.04234e-06
5.18021e-06
1.26033e-05
1.26773e-05
9.19122e-07
1.2655e-05
8.69845e-06
8.48262e-06
1.08083e-05
7.18001e-06
1.14561e-05
7.78656e-06
1.2615e-05
1.62851e-06
1.26121e-05
8.55297e-06
1.27294e-05
7.40175e-06
1.19527e-05
1.72015e-06
1.67727e-06
1.69582e-06
1.70522e-06
1.18523e-05
3.34772e-06
1.02509e-05
2.41836e-06
1.51722e-06
8.41081e-06
2.26954e-06
1.09829e-05
1.23191e-05
1.02206e-05
3.67116e-06
7.87501e-06
1.12008e-05
1.26046e-05
1.22967e-05
8.90423e-06
1.27528e-05
1.27826e-05
3.63037e-06
3.57953e-06
3.53999e-06
1.22869e-05
1.28583e-05
4.20499e-06
4.14612e-06
4.10049e-06
7.9115e-06
7.69643e-06
7.59031e-06
7.50543e-06
2.31909e-06
1.2292e-05
1.37051e-06
8.74698e-06
1.27154e-05
3.39351e-06
1.56169e-06
1.26763e-05
1.27092e-05
2.59653e-06
1.28601e-05
1.27279e-05
1.15494e-05
1.24798e-05
1.9173e-06
1.86953e-06
1.89027e-06
3.24972e-06
1.71907e-06
2.0526e-06
2.02385e-06
2.00151e-06
1.20568e-05
1.19842e-05
2.68263e-06
2.84086e-06
2.77018e-06
2.80107e-06
3.689e-06
1.64755e-06
1.27429e-05
2.4469e-06
2.38603e-06
2.41262e-06
1.24483e-05
1.23384e-05
1.11993e-06
1.22602e-05
1.25687e-05
2.24627e-06
1.27327e-05
1.27291e-05
1.28828e-06
1.27031e-06
1.25635e-06
1.27962e-06
9.04931e-06
1.24494e-05
1.20022e-05
1.11445e-06
8.90075e-06
8.4602e-06
2.27443e-06
1.2329e-05
1.33504e-06
3.4834e-06
3.41257e-06
1.26837e-05
1.15452e-05
1.57567e-06
3.23589e-06
3.15538e-06
3.19059e-06
4.36699e-06
8.6334e-06
3.3948e-06
1.26912e-05
3.68201e-06
2.80028e-06
1.90127e-06
1.87505e-06
1.70962e-06
1.51234e-06
2.31176e-06
2.25421e-06
2.27924e-06
1.23842e-05
2.2652e-06
2.20888e-06
2.23348e-06
6.24561e-06
2.93933e-06
2.03269e-06
4.2537e-06
2.64343e-06
2.57765e-06
2.6064e-06
1.77988e-06
3.05532e-06
2.87821e-06
3.91282e-06
3.95681e-06
4.01276e-06
2.35509e-06
3.19947e-06
1.26348e-05
3.01231e-06
1.08491e-05
1.27626e-05
3.79524e-06
3.40362e-06
3.27434e-06
4.25636e-06
1.26912e-05
4.25509e-06
3.59023e-06
1.90057e-06
2.24927e-06
2.1933e-06
2.21772e-06
2.70625e-06
2.66821e-06
2.63891e-06
1.07277e-05
3.37756e-06
3.34034e-06
3.42563e-06
2.58613e-06
2.98943e-06
1.26308e-06
1.21634e-05
2.41323e-06
1.27151e-05
4.02506e-06
1.27642e-05
3.0377e-06
2.96213e-06
2.99515e-06
5.3704e-06
1.27179e-05
1.17953e-05
1.24381e-05
9.83265e-06
1.31638e-06
1.27296e-05
2.11495e-06
2.08516e-06
2.06229e-06
4.01513e-06
1.26743e-05
2.50956e-06
2.47426e-06
2.4471e-06
4.18798e-06
3.21287e-06
1.2582e-06
3.10114e-06
3.05758e-06
3.02399e-06
1.31741e-06
1.45411e-06
1.70735e-06
1.27235e-05
1.21272e-05
3.41019e-06
1.26038e-05
2.99862e-06
3.5988e-06
2.63015e-06
1.27294e-05
3.43365e-06
3.34819e-06
3.38561e-06
1.93642e-06
1.8399e-06
3.26883e-06
2.46304e-06
1.08608e-05
3.14307e-06
4.07152e-06
1.47758e-06
2.08951e-06
2.90427e-06
2.83202e-06
2.86347e-06
2.22429e-06
1.85658e-06
2.85938e-06
1.25882e-05
1.23767e-05
1.23803e-05
1.30375e-06
3.20762e-06
1.23871e-05
2.85075e-06
1.20773e-05
3.28344e-06
1.1896e-05
4.06483e-06
2.23079e-06
1.92533e-06
3.0052e-06
1.26921e-05
5.51935e-07
6.01437e-07
5.75892e-07
3.12494e-06
2.12448e-06
3.82224e-06
5.60513e-07
1.16574e-06
1.27305e-05
3.01655e-06
2.98847e-06
3.00491e-06
1.99461e-06
2.01668e-06
2.0455e-06
3.65983e-06
3.06272e-06
2.07642e-06
3.98369e-06
3.9915e-06
3.20857e-06
2.02716e-06
1.10491e-05
8.67699e-06
3.95276e-06
2.29618e-06
2.11326e-06
1.44706e-06
5.24836e-06
1.26875e-05
3.01416e-06
3.29967e-06
3.2176e-06
3.25335e-06
2.26825e-06
1.79992e-06
3.07386e-06
1.13693e-05
3.4773e-06
3.26559e-06
2.87798e-06
1.23122e-05
3.46468e-06
7.00396e-07
1.85472e-06
1.82872e-06
1.80852e-06
1.84077e-06
7.86518e-06
9.25601e-07
3.54485e-06
1.25334e-05
4.21193e-06
1.26959e-05
5.67871e-06
1.27327e-05
2.66302e-06
2.64201e-06
4.38438e-06
4.0506e-06
1.08915e-05
3.49659e-06
3.44752e-06
3.40962e-06
5.27269e-06
2.78664e-06
8.8899e-06
9.11494e-06
4.88301e-06
4.93754e-06
5.0076e-06
2.79372e-06
1.22433e-05
3.05914e-06
3.20358e-06
2.44666e-06
9.90583e-07
1.02703e-06
1.09662e-05
3.1929e-06
9.67587e-07
3.55078e-06
3.13665e-06
4.22869e-06
7.12888e-07
6.99902e-07
6.94504e-07
7.37894e-07
3.67832e-06
7.21175e-07
7.13138e-07
7.05515e-07
7.46575e-07
7.25104e-07
3.85628e-06
1.21511e-05
2.95526e-06
2.98816e-06
3.03072e-06
4.41753e-06
1.24406e-05
1.24751e-05
2.68215e-06
5.67466e-06
5.59514e-06
5.53349e-06
2.82137e-06
1.21159e-05
1.27494e-05
4.67864e-06
4.79805e-06
4.7311e-06
1.26329e-06
1.2387e-06
1.25271e-06
1.27036e-06
5.90636e-06
1.20231e-05
1.12217e-05
1.22402e-05
3.06676e-06
4.91994e-06
3.47387e-06
8.1127e-06
3.61476e-06
2.44932e-06
2.72825e-06
1.29825e-05
1.4262e-06
1.08799e-05
1.2101e-05
1.2101e-05
2.60364e-06
4.90724e-06
1.22392e-05
4.24577e-06
2.82523e-06
2.73455e-06
4.2484e-06
1.26782e-05
9.89632e-06
9.64665e-06
1.30317e-06
4.19871e-06
2.81622e-06
3.34101e-06
9.94323e-06
4.93911e-06
7.89619e-06
7.78806e-06
7.7001e-06
3.20596e-06
3.48385e-06
4.72998e-06
1.18099e-05
1.18482e-05
9.47888e-07
1.20087e-05
1.15527e-06
1.20687e-06
1.03333e-06
9.93493e-07
1.67045e-06
4.64489e-06
2.08485e-06
1.12408e-06
8.36605e-06
2.58499e-06
1.08144e-06
3.82867e-06
3.77505e-06
3.73334e-06
3.87618e-06
4.03733e-06
1.20776e-05
3.8836e-06
1.27687e-05
1.64253e-06
1.20422e-05
3.54156e-06
1.26724e-05
9.10866e-06
3.23988e-06
5.13457e-06
1.2679e-05
6.43503e-06
4.60868e-06
3.84076e-06
2.17766e-06
4.74827e-06
9.49548e-06
3.60237e-06
1.32597e-06
1.38434e-06
3.29022e-06
4.57007e-06
1.28581e-05
4.36026e-06
4.44273e-06
2.63009e-06
1.51392e-06
5.03627e-06
1.10637e-05
5.12529e-06
2.09735e-06
1.24868e-05
5.6379e-06
5.22833e-06
1.87105e-06
4.08803e-06
5.26719e-06
1.37357e-06
2.37979e-06
5.10751e-06
1.19786e-05
1.26799e-05
1.25717e-06
1.27318e-05
1.27125e-05
6.76285e-06
1.42729e-06
1.44324e-06
1.46374e-06
1.45373e-06
1.12613e-06
1.0979e-06
1.11001e-06
1.11647e-06
5.24591e-06
3.08511e-06
1.25872e-05
3.43308e-06
5.56911e-06
3.23274e-06
3.26877e-06
3.31526e-06
4.83718e-06
7.36539e-07
5.01964e-06
5.5204e-06
1.23945e-05
5.41914e-06
1.28045e-05
1.15853e-05
1.19071e-05
1.63634e-06
1.60937e-06
1.6271e-06
1.65032e-06
1.27191e-05
3.57741e-06
1.2136e-05
1.23668e-05
4.16245e-06
9.27698e-07
8.91012e-07
8.7349e-07
8.95548e-07
8.83212e-07
6.04572e-06
3.88084e-06
2.09524e-06
2.43573e-06
5.00044e-06
1.49247e-06
1.23085e-05
1.59347e-06
8.97915e-06
8.75633e-06
2.85077e-06
1.00742e-05
2.18266e-06
2.42568e-06
1.27095e-05
3.0251e-06
9.98672e-06
2.32738e-06
2.84992e-06
2.88167e-06
2.92264e-06
2.89787e-06
5.84073e-06
1.27029e-05
1.10803e-05
3.08483e-06
6.38306e-06
4.94201e-06
1.2717e-05
1.2483e-05
3.48432e-06
4.46242e-06
4.84191e-06
1.08314e-06
1.0606e-06
1.07259e-06
1.08734e-06
8.69774e-06
8.91915e-06
9.32562e-07
9.62218e-07
1.00446e-06
1.00464e-05
9.00042e-07
5.5019e-06
1.12705e-06
7.34747e-06
1.98462e-06
5.13678e-06
4.80679e-06
2.45838e-06
5.32736e-06
3.89724e-06
5.38675e-06
1.27284e-05
5.47193e-06
1.27073e-05
9.29025e-06
2.2416e-06
5.26907e-06
8.42922e-06
1.21089e-05
5.44002e-06
2.46913e-06
1.33356e-06
2.09667e-06
3.12094e-06
1.77586e-06
1.44549e-06
7.65942e-06
1.0063e-05
2.08492e-06
1.27329e-05
1.09642e-05
5.33093e-06
2.61703e-06
1.6976e-06
5.84194e-06
1.23862e-05
1.14889e-06
5.19451e-06
5.71232e-06
9.02268e-07
1.2698e-05
6.25918e-06
5.30649e-06
1.24654e-05
9.17849e-06
5.89343e-06
1.27129e-05
5.06648e-06
1.16309e-05
1.84524e-06
5.22156e-06
7.85675e-06
1.10867e-06
1.09325e-06
1.0812e-06
1.10151e-06
1.26893e-05
3.36346e-06
3.48832e-06
7.53478e-07
7.34272e-07
7.43123e-07
7.82989e-07
7.54143e-07
1.23836e-05
1.23104e-05
5.68069e-06
5.53611e-06
5.69819e-06
1.4524e-06
6.66164e-06
1.26689e-05
5.38609e-06
5.57985e-06
4.03412e-06
3.97766e-06
3.93369e-06
1.70896e-06
3.75441e-06
2.93011e-06
6.24317e-06
8.60246e-06
2.67351e-06
2.70089e-06
1.24997e-05
1.22228e-05
5.62857e-06
5.47567e-06
1.25294e-05
5.58959e-06
1.70395e-06
7.49604e-06
7.46836e-06
1.27142e-05
2.87823e-06
5.46914e-06
1.22907e-05
2.80449e-06
1.66674e-06
1.90736e-06
1.50987e-06
1.48458e-06
1.50106e-06
1.52258e-06
3.04731e-06
2.96829e-06
5.88534e-06
8.8861e-06
1.92017e-06
1.90928e-06
1.88842e-06
1.9365e-06
7.07855e-06
3.11924e-06
3.42058e-06
3.45862e-06
3.50791e-06
1.2062e-05
6.08374e-06
1.27052e-05
1.1367e-06
3.51435e-06
7.10978e-06
2.90585e-06
6.09194e-06
1.27806e-05
7.04284e-06
1.18781e-06
1.23526e-06
1.21507e-05
1.22466e-05
3.32045e-06
3.91579e-06
1.25726e-05
5.88526e-06
1.3025e-05
5.7733e-06
6.05151e-06
2.31155e-06
9.73459e-06
9.74922e-06
1.0626e-05
5.80848e-06
5.7272e-06
5.66397e-06
3.26611e-06
3.07564e-06
3.4129e-06
4.28527e-06
4.22498e-06
4.17868e-06
6.80373e-06
1.23572e-05
6.5921e-06
2.4525e-06
1.40763e-07
1.41566e-07
1.26516e-07
1.38159e-07
1.40592e-07
1.33935e-07
1.33007e-07
1.32694e-07
1.2914e-07
1.30643e-07
6.00639e-06
5.92234e-06
5.85696e-06
1.25327e-05
1.54387e-06
1.21469e-05
3.56619e-06
2.49648e-06
1.23494e-05
2.39245e-06
1.17874e-05
9.58513e-06
4.08824e-06
3.98657e-06
4.03082e-06
8.95035e-06
1.21722e-05
1.88185e-06
1.25768e-05
1.27195e-05
6.48205e-06
4.0051e-06
1.08807e-06
1.25044e-05
7.44541e-06
4.55415e-06
3.72819e-06
6.46276e-06
6.10019e-06
1.19792e-05
1.20465e-05
1.26084e-05
1.27166e-05
6.29096e-06
1.24849e-05
1.23032e-05
1.26331e-05
2.46767e-06
2.61211e-06
6.28251e-06
2.48754e-06
1.26411e-05
3.69514e-06
3.6433e-06
3.60326e-06
4.68636e-06
4.62074e-06
4.56977e-06
1.21647e-05
1.28619e-05
1.39514e-06
5.06352e-06
2.8962e-06
3.61348e-06
3.47802e-06
2.88843e-06
3.0817e-06
7.30487e-06
5.05149e-06
1.26866e-05
4.37748e-06
3.88241e-06
1.16844e-05
3.76944e-06
1.26277e-05
3.08666e-06
8.62321e-06
2.1264e-06
1.2719e-05
6.85589e-06
2.5698e-06
2.59832e-06
2.6354e-06
8.82644e-06
4.18054e-06
5.07647e-06
7.46028e-06
3.3595e-06
3.39689e-06
3.4452e-06
2.51554e-06
6.62611e-06
3.64094e-06
4.88675e-06
4.81838e-06
4.76516e-06
1.02554e-05
8.42355e-06
3.51846e-06
1.20945e-05
4.17732e-06
7.54785e-07
6.88859e-06
5.79308e-06
7.83991e-06
4.63986e-06
4.57526e-06
4.52438e-06
3.09996e-06
4.82004e-06
3.53159e-06
2.75036e-06
6.68412e-06
3.55714e-06
1.23745e-05
1.13886e-05
1.2291e-05
4.33579e-06
6.9768e-06
4.77354e-06
1.16325e-05
2.05622e-06
1.2681e-05
1.97018e-06
9.66853e-06
3.15871e-06
8.72785e-06
8.82554e-06
8.60662e-06
1.19036e-05
1.271e-05
1.03215e-05
4.33514e-06
3.00959e-06
2.97635e-06
3.05229e-06
7.23989e-06
1.26469e-05
1.20829e-05
4.43269e-06
4.08603e-06
3.68597e-06
2.71537e-06
4.11328e-06
1.24301e-05
7.65e-07
8.19367e-07
7.87841e-07
7.53049e-07
6.54744e-06
2.12235e-06
3.36182e-06
7.28306e-06
3.22449e-06
6.20421e-06
6.1173e-06
6.04991e-06
4.14394e-06
1.23617e-05
3.74263e-06
3.82087e-06
7.65635e-06
7.08918e-06
3.1679e-06
3.20318e-06
3.24869e-06
3.09143e-06
1.29108e-05
1.52748e-06
3.42011e-06
4.06629e-06
1.23044e-05
3.97388e-06
8.55755e-06
1.26412e-05
1.22327e-05
3.13659e-06
1.23453e-05
8.31835e-06
7.64345e-06
1.63501e-06
1.56861e-06
2.05539e-06
8.90821e-06
1.27185e-05
4.44312e-06
4.33249e-06
4.38118e-06
5.02184e-06
4.89688e-06
4.9517e-06
3.80921e-06
1.23502e-05
4.15628e-06
4.13237e-06
5.86107e-06
3.29648e-06
2.6888e-06
3.30725e-06
2.03884e-06
2.01634e-06
2.06775e-06
3.49437e-06
1.27655e-05
4.13774e-06
7.27366e-06
1.23677e-05
3.62777e-06
8.5238e-06
4.29311e-06
2.95391e-06
3.10295e-06
3.02791e-06
1.72466e-06
7.66848e-06
6.20205e-06
7.5067e-06
9.1262e-06
1.08531e-05
4.51876e-06
7.49462e-06
1.25033e-05
7.47502e-06
8.51911e-06
6.06474e-06
4.66692e-06
8.03555e-06
6.47402e-06
1.27202e-05
3.84194e-06
1.20536e-05
3.7738e-06
1.09262e-05
3.86791e-06
2.05107e-06
1.27651e-05
8.73079e-06
1.25953e-05
9.71661e-06
3.78545e-06
3.21662e-06
5.77539e-06
6.27041e-06
6.18253e-06
6.11456e-06
1.03441e-05
7.71098e-06
1.20207e-05
1.31418e-05
2.77962e-06
6.40693e-06
3.94003e-06
5.45235e-06
1.11662e-06
3.74775e-06
5.66588e-06
1.19486e-05
7.86639e-06
1.12253e-05
1.27049e-05
1.31614e-06
3.29768e-06
1.23188e-05
2.14126e-06
1.21735e-05
5.21689e-06
5.14394e-06
5.0871e-06
5.42304e-06
4.15151e-06
7.20943e-06
4.1198e-06
1.24048e-05
4.46012e-06
1.07728e-05
1.779e-06
7.08746e-06
9.18848e-06
1.05032e-05
6.87945e-06
6.78352e-06
6.70858e-06
4.4963e-06
6.67804e-06
6.47152e-06
6.38086e-06
6.31069e-06
9.15239e-06
4.66202e-06
5.93189e-06
7.26478e-06
2.78383e-06
2.8149e-06
2.85485e-06
1.23356e-05
1.25539e-05
7.03259e-06
1.23607e-05
9.23602e-06
9.00674e-06
6.81849e-06
2.41527e-06
6.82774e-06
6.73303e-06
6.6579e-06
6.61163e-06
6.51946e-06
6.44712e-06
7.85889e-06
2.83127e-06
4.69354e-06
1.25361e-05
1.08943e-05
1.2639e-05
1.27256e-05
8.90578e-06
8.07213e-06
2.11446e-06
2.09602e-06
8.27881e-06
1.27063e-05
6.10246e-06
5.87268e-06
5.79034e-06
5.72661e-06
1.04738e-05
9.43114e-06
1.17102e-05
6.29661e-06
1.85391e-06
9.96272e-06
5.33376e-06
3.33979e-06
1.18265e-05
2.40342e-06
2.37712e-06
2.43779e-06
1.27609e-05
3.14728e-06
3.18229e-06
3.22763e-06
4.23082e-06
2.9076e-06
1.70314e-06
3.42035e-06
1.24371e-05
5.73016e-06
4.0701e-06
2.60241e-06
2.23328e-06
8.49568e-06
7.62965e-07
7.39363e-07
7.28739e-07
7.21561e-07
7.31043e-07
1.2037e-05
1.66089e-06
5.74513e-06
7.66128e-06
1.22746e-05
4.70227e-06
7.4365e-06
7.33426e-06
7.25163e-06
9.30281e-06
1.19964e-05
1.20272e-05
7.46069e-06
1.02158e-05
6.84071e-06
7.23796e-06
7.13806e-06
7.0581e-06
1.02449e-05
4.98612e-06
7.29536e-06
9.43797e-06
7.18698e-06
7.08243e-06
6.98391e-06
6.90649e-06
5.6699e-07
6.52693e-06
3.80964e-06
1.27118e-05
2.39826e-06
4.73767e-06
2.64424e-06
2.44233e-06
1.27066e-05
8.1282e-06
4.7106e-06
6.33097e-06
1.98996e-06
3.61319e-06
3.65328e-06
3.70539e-06
2.80813e-06
9.57888e-06
1.27294e-05
2.06062e-06
6.55166e-06
9.43463e-06
2.45207e-06
6.27033e-06
2.93123e-06
6.44561e-06
6.8193e-06
1.08116e-05
4.04339e-06
8.02926e-06
2.76166e-06
2.7923e-06
2.83216e-06
1.25451e-05
1.26997e-05
1.8973e-06
1.27823e-05
1.26718e-05
6.35749e-06
4.53923e-06
1.27148e-05
5.97086e-06
2.63871e-06
1.27083e-05
1.1042e-05
1.24717e-05
6.06886e-06
2.87292e-06
2.03375e-06
1.27098e-05
1.3035e-05
3.28076e-06
9.87112e-06
1.25401e-05
1.45755e-06
1.85359e-06
1.82243e-06
1.84265e-06
1.86886e-06
1.08204e-05
3.39714e-06
1.26279e-05
1.21382e-05
7.42284e-06
1.1157e-05
2.48554e-06
3.67956e-06
2.52233e-06
6.94941e-06
7.21293e-06
2.19563e-06
1.65303e-06
1.50742e-06
6.48973e-06
1.05759e-05
4.84063e-06
8.81167e-06
1.06801e-05
6.80003e-06
7.15228e-06
6.90339e-06
3.71967e-06
2.48768e-06
1.26637e-05
2.63613e-06
1.46769e-06
1.4427e-06
1.45836e-06
1.47906e-06
9.49832e-06
3.75451e-06
2.27218e-06
1.00365e-05
2.26092e-06
7.22164e-06
1.21471e-05
3.63558e-06
9.27042e-06
5.2809e-06
5.14953e-06
5.20701e-06
7.70913e-06
9.78504e-06
1.23028e-05
6.67052e-06
7.18498e-06
7.49125e-06
7.38807e-06
7.30524e-06
2.88731e-06
3.09246e-06
7.83997e-06
1.23109e-05
6.86394e-06
8.38407e-06
8.51045e-06
8.29956e-06
6.17169e-06
1.20974e-05
6.69509e-06
1.08157e-05
1.25748e-05
1.28794e-05
2.59203e-06
2.62095e-06
2.65814e-06
1.14315e-05
2.10264e-06
2.07958e-06
2.13259e-06
2.11495e-06
7.56005e-06
9.10276e-06
7.79962e-06
1.27865e-05
1.12416e-05
1.4426e-06
1.43443e-06
1.45484e-06
1.41882e-06
9.84434e-07
9.5081e-07
9.37428e-07
9.27256e-07
9.42595e-07
2.70605e-06
1.0514e-05
8.04818e-06
1.26758e-05
1.08195e-05
1.08808e-05
8.05351e-06
1.27544e-05
2.65726e-06
1.27185e-05
7.85074e-06
7.74468e-06
7.65555e-06
1.26404e-05
7.51718e-06
7.59279e-06
9.68386e-06
5.18166e-06
1.27842e-05
1.29014e-05
2.40167e-06
2.42841e-06
2.46291e-06
1.17681e-05
1.23745e-05
5.83545e-06
7.31368e-06
7.75777e-06
3.28692e-06
1.26339e-05
1.27082e-05
2.49951e-06
1.30346e-06
1.27181e-05
6.91529e-06
8.59731e-06
8.7502e-06
6.88277e-06
3.49593e-06
1.83153e-06
1.80171e-06
1.82161e-06
1.84764e-06
1.27177e-05
9.84153e-06
2.22072e-06
8.66497e-06
8.15135e-06
1.68709e-06
2.31789e-06
1.27372e-05
2.21021e-06
2.18608e-06
2.24184e-06
1.27067e-05
1.05278e-05
3.22788e-06
3.0405e-06
3.07437e-06
3.1181e-06
2.29667e-06
7.42208e-06
5.60993e-06
5.53142e-06
5.47034e-06
1.06124e-05
8.21419e-06
1.0686e-05
9.08892e-06
1.23401e-05
3.68992e-06
9.82081e-06
8.08932e-06
1.00757e-05
7.90502e-06
2.38349e-06
1.79699e-06
6.1882e-06
8.37102e-06
1.2731e-05
1.26432e-05
1.26877e-05
1.25147e-05
2.43681e-06
1.15397e-05
9.61638e-06
1.25118e-05
1.25952e-05
1.63055e-06
1.64851e-06
1.67199e-06
1.65827e-06
1.27232e-05
9.00325e-06
1.05263e-05
7.92114e-06
9.1866e-07
2.91853e-06
2.43341e-06
9.52237e-06
1.24162e-05
2.16779e-06
8.3556e-06
1.04825e-05
9.84591e-06
1.26876e-05
4.38191e-06
1.21772e-05
1.24646e-05
1.00497e-05
1.25441e-05
1.91659e-06
1.91132e-06
1.27304e-05
2.81991e-06
9.15616e-06
8.92878e-06
2.70157e-06
2.65692e-06
2.68648e-06
2.7247e-06
1.23136e-05
1.23498e-05
2.28361e-06
1.2606e-05
4.24145e-06
4.13582e-06
4.18224e-06
3.2853e-06
1.97955e-06
3.16579e-06
1.26726e-05
8.42283e-06
1.19799e-05
2.04424e-06
1.09019e-05
1.88913e-06
1.27302e-05
9.07407e-06
2.07618e-06
9.1387e-06
8.91209e-06
9.11407e-06
2.50487e-06
1.19467e-05
1.22174e-05
2.67133e-06
8.717e-06
1.72368e-06
8.94292e-06
1.23185e-05
1.01136e-05
1.28044e-05
1.25029e-05
1.15126e-05
1.217e-05
5.99498e-06
1.27104e-05
1.27322e-05
4.82766e-06
4.76035e-06
4.70751e-06
2.70954e-06
8.71726e-06
1.28509e-05
1.27291e-05
8.00185e-06
1.23493e-05
1.1376e-05
1.27307e-05
1.22211e-05
1.23263e-05
1.06841e-05
9.70283e-06
8.62268e-06
1.20496e-05
1.14648e-05
8.34415e-06
8.44889e-06
8.23952e-06
1.25926e-05
9.09325e-06
2.4122e-06
1.2698e-05
1.8376e-06
1.00307e-05
8.36022e-06
9.12417e-06
1.28835e-05
6.40064e-06
6.31095e-06
6.24149e-06
8.43821e-06
1.26945e-06
9.70962e-06
9.4678e-06
2.76814e-06
8.71939e-06
9.0168e-06
1.27415e-05
1.23913e-05
1.26024e-05
1.21947e-05
1.26092e-05
1.08988e-06
1.24643e-05
6.60918e-06
1.28371e-05
8.51912e-06
8.73585e-06
1.233e-05
9.10212e-06
1.17608e-05
1.27265e-05
1.05512e-05
1.27493e-05
1.23787e-05
1.26194e-05
1.64506e-06
9.08204e-06
1.08012e-05
1.28923e-05
1.2587e-05
7.48582e-06
7.25278e-06
1.01397e-05
1.28729e-05
8.62003e-06
7.03467e-06
6.93726e-06
6.8598e-06
1.21554e-05
1.65639e-06
1.61513e-06
1.63314e-06
1.64395e-06
1.27686e-05
7.59732e-06
1.27271e-05
1.25663e-05
7.9185e-06
1.21679e-05
1.57755e-06
1.21957e-05
1.51009e-06
2.52855e-06
1.44791e-06
1.23449e-05
8.53546e-06
8.6325e-06
8.41851e-06
1.24418e-05
1.10111e-05
1.18148e-05
1.28768e-05
1.27122e-05
1.17071e-05
1.27738e-05
1.17192e-05
8.46558e-06
2.6187e-06
1.19115e-05
1.2781e-05
1.24014e-05
9.65906e-06
9.42022e-06
1.2202e-05
1.25998e-05
1.18209e-05
1.27131e-05
3.9563e-06
1.27627e-05
1.19193e-05
4.29407e-06
1.19037e-05
1.26947e-05
9.20192e-06
9.80294e-06
8.73346e-06
8.51697e-06
8.61022e-06
1.26944e-05
1.01653e-05
1.24462e-05
1.00392e-05
1.06938e-06
1.28935e-05
1.69426e-06
1.71286e-06
1.73734e-06
1.72178e-06
2.26191e-06
9.31715e-06
1.17599e-05
2.31843e-06
1.27212e-05
8.84755e-06
1.21841e-05
1.26838e-05
8.79982e-06
1.09127e-06
1.07038e-06
1.08245e-06
1.09784e-06
9.32985e-06
9.09831e-06
1.08717e-05
9.68477e-06
1.00928e-05
1.31797e-06
1.27113e-05
1.27284e-05
1.27038e-05
1.27228e-05
5.86342e-06