/*--------------------------------*- C++ -*----------------------------------*\
  =========                 |
  \\      /  F ield         | OpenFOAM: The Open Source CFD Toolbox
   \\    /   O peration     | Website:  https://openfoam.org
    \\  /    A nd           | Version:  8
     \\/     M anipulation  |
\*---------------------------------------------------------------------------*/
FoamFile
{
    version     2.0;
    format      ascii;
    class       volScalarField;
    location    "3";
    object      p;
}
// * * * * * * * * * * * * * * * * * * * * * * * * * * * * * * * * * * * * * //

dimensions      [0 2 -2 0 0 0 0];

internalField   nonuniform List<scalar> 
17372
(
5.43433e-06
1.07675e-05
3.2747e-06
7.63025e-06
1.08211e-05
1.07731e-05
2.25094e-06
1.045e-05
1.82587e-06
1.03902e-05
5.12315e-06
1.07956e-05
1.07042e-05
1.10164e-05
2.03388e-06
7.18804e-06
1.07974e-05
1.07905e-05
1.10932e-05
1.03306e-05
1.96713e-06
8.19895e-07
5.66161e-06
1.0346e-05
1.08195e-05
1.89864e-06
6.05753e-06
3.31963e-06
1.14493e-05
5.89784e-06
1.98363e-06
1.08207e-05
5.73957e-06
1.83064e-06
1.01252e-05
7.31849e-06
1.75989e-06
1.07908e-05
2.07507e-06
9.67083e-06
6.21641e-06
1.16781e-06
3.25529e-06
1.05249e-05
8.4635e-06
5.58429e-06
1.0799e-05
6.42551e-06
1.6954e-06
7.05021e-06
1.07711e-05
2.10064e-06
3.57833e-06
3.19489e-06
1.07996e-05
1.08103e-05
1.62012e-06
4.82526e-07
2.14087e-06
1.04824e-05
7.1279e-06
1.05387e-05
5.81824e-06
7.79914e-06
3.3895e-06
1.04649e-05
2.13028e-06
3.35881e-07
2.06249e-07
1.07831e-05
1.06866e-05
5.02464e-06
2.51848e-06
7.24875e-06
9.80247e-06
8.45949e-06
2.69595e-06
8.46248e-06
8.89469e-06
9.11526e-06
1.07911e-05
2.34954e-06
2.28697e-06
1.08212e-05
1.07841e-05
8.3727e-06
7.12312e-06
7.73063e-06
1.55713e-06
1.05991e-05
8.25875e-07
1.21718e-06
1.05742e-05
1.08456e-05
1.05049e-05
6.3746e-06
1.10432e-05
1.08031e-05
1.08033e-05
1.04111e-05
1.07806e-05
5.86879e-06
1.0787e-05
1.04565e-05
2.29906e-06
1.42092e-06
6.66141e-06
1.02213e-05
1.08116e-05
6.02877e-06
4.68097e-07
1.07214e-05
6.18824e-06
6.89792e-06
1.74729e-06
8.42216e-07
6.34691e-06
1.3533e-06
8.96432e-07
6.50517e-06
1.9041e-06
6.66311e-06
2.0622e-06
1.52117e-06
1.07782e-05
2.21983e-06
3.83571e-06
1.05534e-05
1.08125e-05
6.81976e-06
2.37833e-06
3.99838e-06
5.9776e-06
6.97429e-06
3.67246e-06
1.05502e-05
5.35085e-06
3.50861e-06
9.42025e-06
1.08081e-05
1.05065e-05
3.34472e-06
3.10078e-06
2.5369e-06
1.05574e-05
2.93801e-06
2.77626e-06
1.10322e-05
1.05892e-05
7.55402e-06
1.02078e-06
7.48297e-06
4.79252e-07
2.22122e-06
1.07031e-05
2.42598e-06
8.86674e-06
1.08189e-05
1.05021e-05
5.70981e-06
2.45754e-06
1.08086e-05
2.91181e-06
1.08414e-05
6.53309e-06
1.05926e-05
6.7455e-06
1.07989e-05
9.39541e-07
6.91898e-06
2.02264e-07
1.17784e-06
7.92449e-06
1.07081e-05
4.16103e-06
2.94463e-06
2.7779e-06
1.03139e-05
1.05252e-05
1.08058e-05
1.02168e-05
5.43956e-06
1.06146e-05
8.53643e-07
3.34705e-06
3.04039e-06
8.98589e-07
1.08177e-05
2.35554e-07
1.08255e-05
5.88112e-07
8.72675e-06
1.66376e-06
1.05983e-05
6.74122e-06
1.08227e-05
6.29891e-06
1.34219e-06
1.07579e-05
1.01377e-05
1.08231e-05
1.05012e-05
1.08415e-05
3.6052e-06
4.21446e-07
1.0821e-05
5.51066e-06
1.06856e-05
8.29623e-06
2.69519e-06
6.137e-06
6.13694e-06
5.7502e-06
5.98233e-06
1.08073e-05
1.27676e-06
5.66484e-06
9.77016e-06
1.0809e-05
6.276e-07
3.41305e-06
1.0456e-05
1.08215e-05
1.09219e-05
2.61629e-06
1.08386e-05
7.05441e-06
1.01288e-05
1.05165e-05
5.55157e-06
1.07935e-05
5.58608e-06
1.06059e-05
8.99527e-06
8.94774e-06
1.11433e-05
1.05044e-05
1.22573e-06
2.15547e-07
3.69715e-06
3.73894e-06
7.3991e-06
1.08208e-05
1.07796e-05
1.05339e-05
6.69131e-06
1.10159e-05
3.5009e-06
5.3141e-07
1.08185e-05
1.0814e-05
3.79553e-06
2.00346e-07
1.15423e-06
1.08185e-05
5.71178e-06
4.40681e-06
1.07999e-05
2.8596e-06
1.08451e-05
8.01906e-07
1.08517e-06
1.08449e-05
1.08341e-05
1.08119e-05
1.08065e-05
7.18941e-06
1.0745e-05
1.05134e-06
1.08268e-05
9.49956e-06
6.77042e-06
1.05099e-05
1.06942e-05
1.0857e-05
7.52878e-06
6.58392e-06
1.09634e-05
1.08649e-05
1.04912e-05
1.08616e-05
1.08241e-05
8.85747e-06
1.08284e-05
6.29545e-06
9.5176e-06
6.72186e-06
2.35422e-06
1.52496e-06
1.05912e-05
5.28203e-06
1.04796e-05
5.3927e-06
5.331e-06
1.05354e-05
2.61506e-06
8.24497e-06
1.0885e-05
8.99514e-06
9.17462e-07
6.6903e-07
1.08294e-05
1.65639e-06
1.08243e-05
1.08128e-05
1.05004e-05
9.8934e-06
5.34758e-06
1.79348e-06
1.07476e-05
9.04499e-06
1.09991e-05
5.8277e-06
1.08295e-05
1.04543e-05
1.03267e-05
6.9284e-06
1.06873e-05
1.08371e-05
1.2897e-06
9.31987e-06
1.06966e-05
2.85676e-06
1.09704e-05
1.00744e-05
1.04842e-05
1.05259e-05
1.08303e-05
1.07167e-05
8.4591e-06
3.26236e-06
1.03284e-05
1.0811e-05
2.31492e-06
4.65482e-06
1.90079e-06
1.08305e-05
2.66969e-06
2.87939e-06
1.0743e-05
3.11998e-06
1.06923e-05
1.02552e-05
5.67636e-06
8.89718e-07
3.08808e-06
1.08244e-05
8.46848e-07
1.21093e-06
9.24681e-06
1.08304e-05
1.03616e-05
1.0821e-05
1.25415e-06
2.71989e-06
1.08197e-05
1.03169e-05
7.24155e-06
1.08303e-05
2.06886e-06
1.07342e-05
1.08298e-05
2.96072e-06
2.55941e-06
2.23519e-06
1.08292e-05
1.08104e-05
1.04947e-05
2.39746e-06
1.09923e-05
9.9342e-06
1.08026e-05
1.081e-05
1.0894e-05
1.01567e-05
1.08283e-05
9.58732e-07
9.37683e-06
1.09043e-05
1.08127e-05
1.08229e-05
5.23219e-06
1.03554e-05
6.4259e-06
1.08201e-05
1.05932e-05
6.95366e-06
4.6198e-06
1.05178e-05
1.05568e-05
1.05133e-05
1.08191e-05
6.45365e-06
9.72597e-06
1.08213e-05
5.28606e-07
1.0644e-05
1.08013e-05
1.08132e-05
1.08074e-05
4.81943e-06
1.07678e-05
1.06152e-05
7.16315e-06
2.7685e-06
2.69444e-06
1.07169e-05
2.66269e-07
1.07917e-05
9.07091e-06
1.08217e-05
1.0085e-05
2.98411e-07
3.26883e-06
3.01902e-06
1.08121e-05
7.00718e-06
1.08229e-05
9.4293e-06
8.44622e-06
1.06375e-05
1.11078e-05
2.97899e-06
1.09323e-05
2.80015e-06
9.29842e-06
1.06015e-05
1.28249e-06
1.03123e-05
1.02861e-05
1.05555e-05
9.31923e-06
4.23716e-06
7.42122e-06
1.71669e-06
9.64023e-06
1.05127e-05
4.49501e-06
1.11356e-05
1.08074e-05
1.05147e-05
1.08255e-05
1.02103e-05
1.07451e-05
1.08121e-05
1.04642e-05
1.08211e-05
2.24868e-07
4.24916e-06
1.05304e-05
1.08056e-05
1.0832e-05
2.32205e-06
2.45229e-06
1.37005e-06
1.08157e-05
1.08281e-05
1.04608e-05
1.03791e-05
1.03939e-05
1.05163e-05
7.29826e-06
1.0676e-05
4.98449e-06
2.89595e-07
4.7014e-06
1.08991e-05
8.28756e-06
1.07501e-05
6.59277e-06
2.17191e-06
9.18483e-06
1.08013e-05
1.08138e-05
1.04588e-05
1.07295e-05
7.28198e-07
1.08188e-05
2.31289e-06
1.0829e-05
7.08262e-06
9.06887e-06
1.03826e-05
1.73572e-06
1.06385e-05
1.05812e-05
1.48236e-06
1.08207e-05
1.08288e-05
9.12e-07
7.48455e-06
7.77501e-08
1.16013e-06
3.18174e-06
6.6142e-07
1.08248e-05
6.26755e-06
1.08216e-05
1.07828e-05
1.05559e-05
6.61228e-06
1.07231e-06
1.08194e-05
1.08119e-05
1.08296e-05
1.15872e-06
1.08282e-05
1.09009e-05
1.07263e-06
1.07247e-05
2.68379e-06
6.72748e-06
4.98191e-06
1.0499e-05
7.56152e-06
9.04842e-07
1.06336e-05
6.99048e-06
8.81122e-06
6.82669e-06
1.0723e-05
1.06757e-05
3.11189e-06
1.08295e-05
1.07289e-05
1.08175e-05
5.1459e-06
7.36468e-06
1.08357e-05
1.05107e-05
6.98218e-06
3.20819e-07
1.08387e-05
8.79988e-06
7.03286e-06
3.72142e-06
6.72462e-06
1.08306e-05
5.90498e-06
1.07389e-05
1.15652e-06
7.13876e-06
1.10647e-05
1.03817e-05
1.04792e-05
1.07558e-05
1.06541e-05
1.09306e-05
1.08722e-05
7.29633e-06
8.57197e-06
9.93869e-06
1.08234e-05
8.26615e-07
7.24012e-06
1.10372e-05
1.082e-05
1.07531e-05
1.08305e-05
7.45596e-06
7.10757e-06
3.21269e-06
5.48814e-06
4.42996e-06
6.68958e-07
1.05432e-05
2.53319e-06
1.08099e-05
7.6175e-06
1.00473e-06
1.52912e-06
8.90772e-06
1.05643e-05
1.0829e-05
7.77649e-06
8.93272e-06
1.08303e-05
6.27695e-06
2.61762e-06
1.10255e-05
8.01672e-06
2.35602e-06
4.85676e-06
1.03016e-05
8.63163e-06
9.94805e-06
1.04041e-05
2.36078e-06
1.04346e-05
8.77064e-06
9.84873e-06
1.07981e-05
1.10388e-05
1.01836e-05
1.06841e-05
5.30688e-06
1.07979e-05
1.08293e-05
1.23166e-06
9.92557e-07
7.33781e-06
4.80827e-06
1.07368e-05
7.71134e-06
1.01648e-05
1.12667e-05
1.07997e-05
1.08115e-05
7.74368e-06
1.41173e-06
9.00047e-07
1.07678e-05
1.01567e-05
1.08291e-05
1.09108e-05
1.07606e-05
6.75095e-06
2.28925e-06
6.92252e-06
1.08098e-06
6.10861e-06
8.94093e-06
3.33356e-06
7.21954e-06
6.8747e-06
6.30502e-06
1.06258e-05
1.7095e-06
1.09081e-05
1.04472e-05
1.08042e-05
1.04652e-05
4.4965e-07
1.08539e-05
1.24463e-06
4.7767e-06
1.06042e-05
1.15757e-06
1.03191e-05
3.42634e-06
1.05576e-05
1.06903e-05
1.07631e-05
1.37074e-06
1.08171e-05
1.04801e-05
2.95521e-06
8.86306e-06
2.40197e-07
1.07547e-05
9.77781e-06
1.12119e-05
1.04349e-05
1.26333e-06
8.78567e-06
9.01848e-06
8.22889e-06
1.04649e-05
1.08561e-05
8.87549e-06
1.07951e-05
1.00484e-05
1.07138e-05
9.09665e-06
1.08331e-05
1.03112e-05
5.46813e-06
2.48471e-07
4.32268e-06
3.49456e-06
5.97068e-06
2.16483e-06
1.06768e-05
9.61602e-06
1.07483e-05
8.55339e-06
1.07934e-05
1.4936e-06
1.04968e-05
6.90098e-06
9.11161e-07
2.0203e-06
1.07965e-05
8.96495e-06
3.19735e-06
1.09588e-05
1.08334e-05
6.64548e-06
2.23563e-07
6.24809e-06
8.68278e-06
6.84947e-06
8.70763e-06
1.0814e-05
1.06422e-05
2.97014e-07
1.05453e-05
1.07708e-05
1.07905e-06
1.07991e-05
2.63965e-06
8.85999e-08
1.07905e-05
1.10175e-05
8.27715e-08
5.27895e-06
1.08133e-05
1.01513e-05
1.96849e-06
4.64195e-06
7.06223e-06
4.7023e-06
8.62954e-06
1.0814e-05
6.06006e-06
7.86976e-06
4.60747e-07
9.40161e-06
1.39057e-06
1.07871e-05
2.88733e-06
6.60151e-06
1.08989e-05
1.00939e-05
5.70235e-06
1.68809e-06
1.08257e-05
1.08136e-05
9.94371e-06
9.99706e-06
1.05353e-05
7.50578e-06
7.21987e-06
3.21912e-06
1.07831e-05
1.06611e-05
9.85273e-07
7.1797e-06
1.08266e-05
5.62887e-06
8.63428e-06
1.05043e-05
1.07124e-05
1.07799e-05
8.99587e-06
1.08234e-05
1.08158e-05
1.0947e-05
1.07543e-05
3.53262e-06
3.59038e-06
1.08236e-05
8.12233e-06
1.06061e-05
1.03304e-05
1.07763e-05
7.79807e-06
8.62456e-06
1.08296e-05
1.06822e-05
6.9047e-06
7.37347e-06
1.06335e-05
8.66531e-06
1.06392e-05
1.08479e-06
4.5724e-06
6.5033e-07
2.49031e-06
8.6029e-06
1.04247e-05
1.07696e-05
6.68508e-06
1.05034e-05
2.79685e-06
1.06107e-05
5.94891e-06
1.07123e-05
1.01152e-06
2.08193e-06
1.08259e-05
6.79907e-06
8.22646e-06
6.76119e-06
1.06242e-05
8.97378e-06
1.08116e-05
2.37003e-06
1.07474e-05
1.26805e-06
6.87241e-06
3.96337e-06
1.05777e-05
2.79726e-06
1.07345e-05
1.05972e-05
7.70336e-07
1.0632e-05
2.76453e-06
1.06395e-05
1.07539e-05
1.03137e-05
1.2727e-06
1.07452e-05
1.05146e-05
1.06421e-05
9.85439e-06
1.04858e-05
9.73439e-06
5.23441e-06
2.64652e-06
4.47829e-06
1.05521e-05
1.05188e-05
1.08001e-05
8.00612e-07
7.60259e-06
4.49211e-06
8.16623e-06
1.05509e-05
1.04974e-05
1.08201e-05
4.98007e-06
2.12605e-06
1.05574e-05
1.06977e-05
1.04309e-06
8.03109e-06
3.25666e-06
8.14653e-07
1.02557e-05
1.06822e-05
1.08838e-05
1.00267e-05
9.00396e-06
4.97113e-06
1.04703e-05
1.05993e-05
1.0268e-05
1.07985e-05
1.0592e-05
1.49548e-06
2.51289e-06
7.75704e-06
7.12003e-06
1.07925e-05
1.54945e-06
2.61613e-06
3.19919e-06
9.53559e-06
5.06629e-06
1.08193e-05
1.04956e-05
1.04448e-05
1.08908e-05
1.08096e-05
4.03566e-06
2.69761e-07
1.08126e-05
1.02028e-05
9.12204e-06
5.79833e-07
1.05306e-05
9.24321e-06
1.7079e-06
1.08166e-05
3.25929e-06
1.05941e-05
1.0746e-05
1.04701e-05
7.91543e-06
1.06733e-05
7.18885e-06
3.75402e-06
1.7947e-06
9.01683e-06
8.39366e-06
8.24188e-07
1.10252e-05
1.84691e-06
9.99273e-06
6.33124e-06
1.07972e-05
7.50375e-06
8.31436e-06
1.08153e-05
1.08195e-05
2.42886e-06
7.01929e-06
1.081e-05
1.08225e-05
9.39578e-06
1.05127e-05
1.06033e-05
1.07894e-05
1.65019e-06
1.08112e-05
1.17783e-06
1.01657e-05
6.21174e-06
1.04935e-05
1.0799e-05
5.42224e-06
1.04573e-05
8.53185e-06
1.36726e-06
7.63573e-06
6.97751e-06
5.05116e-08
1.03656e-05
8.1552e-06
8.07454e-06
2.47555e-08
1.96022e-07
1.02635e-05
3.42474e-06
6.74016e-06
1.04795e-05
7.08543e-06
1.11026e-05
6.64384e-06
1.08581e-05
8.73178e-06
1.08285e-05
8.39223e-06
1.0825e-05
6.23241e-06
7.7906e-06
9.14001e-06
1.05665e-05
7.47943e-06
8.15062e-06
1.0261e-05
9.99927e-06
1.06702e-05
1.08253e-05
1.04982e-05
7.06059e-06
2.1455e-06
1.07543e-05
4.84816e-06
1.07958e-05
4.6063e-06
7.91262e-06
7.95052e-06
1.03409e-05
3.65402e-06
1.08115e-05
7.99496e-06
8.19403e-06
1.08254e-05
1.04517e-05
1.08487e-05
1.02659e-05
8.11238e-06
1.08137e-05
1.08249e-05
5.78968e-06
1.08061e-05
8.39016e-06
2.63904e-06
9.21237e-08
1.21434e-07
4.10349e-07
1.03068e-05
3.4622e-08
5.9692e-08
6.59934e-06
1.09492e-05
3.81784e-06
8.2342e-06
1.07859e-05
1.08187e-05
1.08238e-05
6.99798e-06
1.08038e-05
9.94941e-06
1.08289e-05
1.08306e-05
7.83423e-06
1.07102e-05
1.07435e-05
4.24247e-06
1.07978e-05
1.07972e-05
1.0766e-05
1.81953e-06
6.63717e-08
7.5057e-07
9.70172e-06
3.62043e-06
2.87592e-06
4.83252e-06
3.19012e-06
1.05494e-05
2.18191e-07
1.07942e-05
7.96101e-06
8.75659e-06
7.32117e-06
1.08996e-05
3.63156e-06
1.07854e-05
1.09113e-05
7.67304e-06
2.71797e-06
1.08019e-05
1.08104e-05
1.08026e-05
1.07718e-05
9.19525e-06
8.87231e-06
1.06669e-05
1.11637e-06
1.05281e-05
6.53374e-06
4.33308e-06
1.06886e-05
8.27682e-06
4.54388e-06
8.23513e-06
7.48676e-06
1.06529e-05
6.57043e-06
8.39414e-06
1.05989e-05
1.05753e-05
5.06247e-06
1.7083e-06
2.41767e-07
1.04746e-05
6.18374e-06
1.04851e-06
1.08288e-05
1.03113e-05
1.06766e-05
1.00576e-05
6.31332e-07
7.51133e-06
1.0463e-05
1.07266e-05
1.06957e-05
1.07416e-05
2.68836e-06
1.08201e-05
3.91654e-06
1.05817e-05
1.07959e-05
9.82487e-06
1.06796e-05
4.70149e-06
1.08187e-05
1.05782e-05
9.18979e-07
2.55955e-06
3.10185e-06
2.47893e-06
1.09323e-05
1.0794e-05
1.03897e-05
2.2067e-06
1.05446e-05
1.0818e-05
1.07282e-05
1.08779e-05
1.03279e-06
7.34866e-06
8.47235e-06
7.16294e-06
1.08576e-05
8.44389e-06
1.97306e-06
1.96283e-06
4.85056e-06
1.04227e-05
2.59407e-06
1.09253e-05
1.05685e-05
3.12791e-06
1.09088e-05
8.84219e-06
1.07537e-05
1.02116e-05
9.586e-06
1.08414e-05
1.09324e-05
1.08131e-05
1.06414e-05
4.83529e-06
1.08277e-05
8.55539e-06
8.23139e-06
1.04662e-06
1.07915e-05
9.14021e-06
2.00555e-06
5.72645e-07
4.53349e-07
1.04793e-05
1.08033e-05
1.04506e-05
1.13746e-05
1.64503e-06
7.38022e-07
7.2851e-06
6.31613e-07
6.85812e-06
1.80401e-06
1.04296e-05
1.00796e-05
1.00783e-05
1.07742e-05
8.17728e-07
5.40005e-07
7.02086e-06
7.00321e-06
9.47166e-06
1.08095e-05
1.03196e-05
8.23266e-06
1.04497e-05
1.45518e-06
1.5602e-06
1.05322e-05
1.08274e-05
7.63325e-06
1.06432e-05
7.47049e-07
1.07382e-05
8.61454e-06
1.08937e-05
1.08054e-05
1.07583e-05
1.07977e-05
1.08436e-06
1.48565e-07
1.08019e-05
1.03799e-05
9.18757e-07
1.06813e-05
3.03682e-06
1.06573e-05
6.02953e-07
1.03348e-05
1.08018e-05
8.35998e-06
1.08199e-05
1.0826e-05
1.05106e-05
2.13222e-06
2.42841e-06
8.06976e-07
9.82571e-06
6.26141e-06
1.07554e-05
9.61745e-06
1.04695e-05
9.51281e-06
1.11043e-05
2.29553e-06
1.08117e-05
1.07793e-05
5.62995e-07
1.08133e-05
1.08282e-05
7.6542e-06
6.84233e-06
1.08303e-05
9.71021e-07
8.71689e-06
1.51467e-06
9.97088e-06
1.03945e-05
7.21758e-06
1.04323e-05
1.08298e-05
8.07538e-06
1.07669e-05
5.62707e-06
2.32123e-06
1.08164e-05
7.16073e-06
7.8837e-06
1.88905e-07
1.55883e-07
9.29375e-06
1.06349e-05
5.63144e-06
3.76778e-06
1.07688e-05
1.07512e-05
1.08298e-05
1.077e-05
5.39423e-07
1.06782e-05
1.08944e-05
5.82654e-06
1.07883e-05
1.10542e-05
1.01654e-05
6.6806e-06
1.03148e-05
1.07752e-06
8.47246e-06
1.08157e-05
1.08306e-05
6.43681e-06
1.09493e-05
5.00668e-07
2.5946e-06
2.47984e-06
9.01153e-06
8.99567e-06
1.11899e-05
6.28156e-06
1.05058e-05
4.07913e-06
1.08229e-05
1.05713e-05
6.51814e-06
1.07608e-05
1.08277e-05
1.08311e-05
1.86705e-06
5.68657e-06
1.08236e-05
1.01138e-05
9.45052e-06
6.78254e-06
9.96172e-06
9.53338e-06
7.18987e-07
1.08067e-05
1.07885e-05
1.37171e-06
8.45958e-07
2.2944e-06
6.27245e-07
6.3555e-06
2.16252e-06
1.08313e-05
1.07809e-05
7.31898e-06
1.08263e-05
1.04706e-05
1.10304e-05
8.88349e-06
1.06054e-05
9.68959e-07
1.07176e-05
5.92312e-07
1.0829e-05
1.07969e-05
1.68142e-06
7.19634e-07
1.01854e-05
8.12561e-06
1.09569e-05
1.08313e-05
1.08312e-05
1.68186e-07
1.05427e-07
1.96291e-06
8.90272e-06
1.09185e-05
1.10236e-05
1.01404e-05
1.08797e-05
1.08291e-05
6.40004e-06
9.00828e-07
1.07346e-05
8.22244e-06
1.08308e-05
7.48231e-07
3.7451e-06
1.06142e-05
9.2239e-06
1.01805e-05
1.07061e-05
9.16912e-06
1.05194e-05
1.06585e-05
2.40076e-06
1.05211e-05
1.06329e-05
1.05173e-05
1.54177e-06
1.08303e-05
1.0416e-05
1.07718e-05
1.08211e-05
8.84047e-06
6.72143e-07
8.71765e-06
8.85685e-06
1.09639e-05
9.20239e-06
1.07173e-05
1.0703e-05
1.08125e-05
1.08288e-05
5.56557e-07
1.11636e-06
1.08295e-05
5.66654e-07
7.46956e-07
1.06457e-05
1.03334e-05
9.96423e-06
8.91761e-06
1.09e-05
1.02571e-05
3.14754e-06
1.08221e-05
1.07846e-05
1.07969e-05
8.15338e-06
1.08427e-05
1.08294e-05
1.08187e-05
1.13206e-05
1.04385e-05
7.17145e-08
1.02252e-05
2.16409e-06
9.36893e-06
1.08109e-05
1.79423e-06
1.09664e-05
1.03383e-05
1.17412e-06
1.08751e-05
1.05608e-05
2.52126e-06
1.08214e-05
4.14055e-08
2.54786e-06
9.53618e-06
1.05436e-05
1.09539e-05
1.08331e-05
8.87659e-06
1.04379e-05
1.19006e-06
7.81687e-06
6.19318e-06
1.07899e-05
1.08238e-05
1.04162e-05
1.05122e-05
1.06974e-05
8.12418e-06
7.99143e-06
1.08254e-05
6.6965e-06
1.08195e-05
7.97271e-07
9.89044e-06
1.05694e-05
9.15397e-06
1.71622e-06
8.02344e-07
5.61376e-06
9.33235e-06
1.02814e-05
7.9148e-06
1.03139e-06
1.04662e-05
1.34869e-06
7.71017e-07
1.80024e-06
1.0796e-05
1.03598e-05
1.08254e-05
1.08242e-05
1.08052e-05
9.45061e-06
2.88006e-06
1.0799e-05
8.39234e-06
8.97483e-07
1.03463e-05
8.36621e-06
5.89784e-06
1.08106e-05
9.41847e-06
9.35323e-06
1.10327e-05
1.06211e-05
1.07727e-05
1.07517e-05
1.08315e-05
9.15007e-06
1.06138e-05
1.06793e-05
8.52889e-06
1.07816e-05
9.2961e-06
1.08324e-05
1.07469e-05
7.84525e-06
9.82284e-06
1.05268e-05
9.97621e-06
1.0825e-05
1.08303e-05
2.04335e-06
5.7086e-06
7.08372e-07
1.62331e-06
1.50746e-06
8.98163e-06
1.08165e-05
1.08241e-05
1.04532e-05
1.05315e-05
1.0614e-05
1.03304e-05
1.00886e-05
1.07981e-05
1.79362e-06
1.05143e-05
9.09558e-06
8.70096e-06
1.95017e-06
1.08117e-05
1.01315e-05
9.87832e-06
1.08215e-05
1.09467e-05
1.0797e-05
3.35488e-06
9.41375e-06
1.06609e-05
1.08206e-05
1.08241e-05
1.08245e-05
1.05301e-05
1.16596e-07
1.0321e-05
7.37807e-06
2.63243e-06
4.24188e-06
1.08292e-05
8.61235e-06
1.07927e-05
1.08316e-05
1.03852e-05
1.06237e-05
2.05165e-06
1.01479e-05
9.18907e-06
3.73199e-07
8.83331e-06
1.08387e-05
1.62973e-06
1.04348e-05
1.03147e-05
2.38731e-07
6.03053e-06
2.21365e-06
1.66633e-06
1.00943e-05
1.05434e-05
1.99582e-06
2.2765e-06
8.63497e-06
1.0492e-05
1.02079e-05
1.08268e-05
1.02115e-05
1.07966e-05
7.37613e-06
2.37632e-06
6.30288e-07
2.12111e-06
1.06188e-05
9.9385e-06
1.01408e-05
1.07136e-05
9.52613e-06
1.08328e-05
5.47283e-06
1.02911e-05
1.05013e-05
1.09212e-05
1.0649e-05
1.07711e-05
1.08045e-05
8.79729e-07
1.09083e-05
1.02283e-05
9.52029e-06
2.02567e-06
1.08333e-05
1.05515e-05
1.06186e-05
1.0612e-05
5.66366e-07
9.90114e-06
5.78726e-06
1.09394e-05
5.94992e-06
4.09384e-06
7.2617e-07
9.5131e-06
1.82515e-06
4.27325e-06
2.71668e-06
1.08082e-05
1.0817e-05
4.86773e-07
1.06271e-05
1.06115e-05
1.07593e-05
1.07978e-05
9.51235e-07
2.14584e-06
1.0633e-05
9.71189e-06
8.07562e-07
1.07782e-05
1.10036e-05
1.01895e-06
1.03763e-05
1.02629e-05
9.60591e-06
1.0441e-05
1.08293e-05
9.99824e-06
6.59472e-06
1.05423e-05
1.05002e-05
7.90001e-07
1.07413e-05
9.85747e-06
1.01792e-05
8.86962e-06
3.40294e-06
1.06417e-05
1.09649e-05
2.96922e-06
4.95149e-06
1.08176e-05
1.03278e-05
7.75726e-06
1.03014e-05
1.04752e-05
1.08237e-05
1.05979e-05
1.08261e-05
1.07928e-05
1.0797e-05
1.0757e-05
1.98384e-06
9.63695e-06
8.28549e-06
9.45682e-06
1.03949e-05
1.11264e-05
1.07983e-05
1.08327e-05
2.87969e-06
8.92312e-06
9.08004e-06
1.08257e-05
1.00029e-05
1.08331e-05
7.49894e-06
9.8276e-07
9.08752e-06
1.07971e-05
1.0776e-05
8.48145e-07
1.08181e-05
1.07783e-05
2.08467e-06
8.24953e-07
8.89009e-06
1.08001e-05
8.52972e-06
4.55689e-07
1.01265e-05
7.97916e-06
9.79718e-06
9.24865e-06
1.10862e-05
1.0788e-05
1.10081e-05
1.08234e-05
1.04804e-05
1.07981e-05
8.09401e-06
1.03048e-05
4.31962e-06
1.08227e-05
1.10278e-05
1.07798e-05
1.08131e-05
7.93618e-06
1.04264e-05
1.03794e-05
1.07375e-05
1.04608e-05
1.0586e-05
1.03785e-05
2.24323e-06
9.97537e-06
1.0818e-05
1.03012e-05
1.09245e-05
1.05311e-05
1.04754e-05
1.08171e-05
9.61607e-06
9.47976e-06
1.06365e-05
5.86539e-06
1.0832e-05
6.71775e-06
1.06793e-05
1.08241e-05
1.0579e-05
1.05958e-05
1.07944e-05
8.78205e-06
9.79706e-06
2.15526e-06
6.41578e-07
8.52847e-07
1.07621e-05
1.04051e-05
1.03638e-05
1.05037e-05
1.06665e-05
1.04267e-05
1.03242e-05
1.03488e-05
1.04539e-05
1.06248e-05
4.16649e-06
9.03373e-06
6.88405e-07
1.06735e-05
1.1103e-05
1.02173e-05
7.04237e-07
1.04478e-05
1.04365e-05
1.06113e-05
1.02152e-05
1.0432e-05
1.02622e-05
9.63965e-06
1.04114e-05
1.08246e-05
1.06417e-05
1.04991e-05
7.00522e-06
9.66065e-06
1.04372e-05
1.08192e-05
1.05198e-05
1.08128e-05
1.08219e-05
1.08274e-05
9.04856e-06
1.00835e-05
1.07869e-05
9.93317e-06
1.07858e-05
1.07991e-05
9.17213e-06
8.95681e-07
1.0352e-05
1.054e-05
1.03623e-05
3.03324e-06
1.05155e-05
1.08147e-05
7.37966e-06
1.02749e-05
9.21419e-06
1.06834e-05
1.04262e-05
9.30574e-06
1.06e-05
1.05537e-05
1.04648e-05
1.07878e-05
1.02151e-05
9.77709e-06
7.70618e-06
1.05119e-05
9.56633e-06
9.29572e-07
1.04779e-05
1.07894e-05
7.75386e-06
1.04512e-05
8.17888e-07
1.07666e-05
1.0822e-05
1.07491e-05
1.05368e-05
2.31786e-06
1.05822e-05
1.07927e-05
1.06264e-05
9.55406e-06
1.07903e-05
1.04023e-05
9.05487e-06
7.1982e-06
1.05666e-05
1.07841e-05
1.06448e-05
1.0333e-05
6.27435e-06
2.79896e-06
1.07913e-05
2.10702e-06
1.07676e-05
1.0452e-05
1.00726e-05
1.08223e-05
8.70257e-07
1.0768e-05
1.13103e-06
1.08154e-05
1.0832e-05
1.05358e-05
1.08151e-05
6.72357e-06
1.08236e-05
1.15998e-06
1.04255e-05
8.73419e-06
2.55112e-06
1.05971e-05
5.40558e-07
1.05762e-05
1.07997e-05
1.03136e-05
1.0538e-05
8.88341e-06
1.07843e-05
1.04139e-05
2.40161e-06
9.89249e-06
8.62005e-06
8.919e-06
7.85122e-07
1.03728e-05
9.48318e-06
1.07173e-05
1.05827e-05
1.04082e-05
1.07832e-05
1.08654e-05
9.50183e-06
3.18296e-06
1.01346e-05
2.00394e-06
8.81147e-06
8.26482e-06
1.06166e-05
1.02432e-05
9.40665e-06
9.1962e-06
1.08352e-05
1.0793e-05
1.04386e-05
1.0947e-05
1.04117e-05
1.07746e-05
9.19504e-06
1.0295e-05
1.0772e-05
1.047e-05
9.70636e-06
5.94203e-06
1.07561e-05
1.055e-05
1.053e-05
1.08461e-05
1.04899e-05
1.06639e-05
7.94309e-07
9.39008e-06
9.04246e-06
2.59042e-06
1.04939e-05
1.05619e-05
1.07334e-05
1.06828e-05
6.53451e-06
1.04986e-05
9.50709e-06
1.06958e-05
1.05208e-05
1.08142e-05
8.03547e-07
1.07922e-05
1.05222e-05
8.77949e-06
1.0568e-05
1.03902e-05
9.92605e-06
1.08293e-05
1.07699e-05
1.00231e-05
1.05301e-05
1.04525e-05
1.07998e-05
1.67998e-06
1.05251e-05
8.66416e-06
1.05628e-05
1.08206e-05
2.72249e-06
1.06244e-05
1.08012e-05
1.0512e-05
1.08512e-05
1.08126e-05
8.0971e-06
7.58038e-06
1.29029e-06
2.3546e-06
1.05325e-05
1.05344e-05
9.5359e-06
1.05747e-05
1.07457e-05
1.05385e-05
1.0464e-05
1.08911e-05
1.02393e-05
1.08224e-05
1.08326e-05
1.04357e-05
1.02389e-05
9.17595e-06
1.04778e-05
1.08222e-05
1.08214e-05
4.31627e-06
9.25886e-06
1.07012e-05
2.32261e-06
1.04739e-05
1.03435e-05
8.37235e-06
1.08226e-05
3.54815e-06
1.0427e-05
9.41182e-06
9.37199e-06
8.15382e-06
1.08094e-05
1.06842e-05
1.05353e-05
7.52209e-07
3.41946e-06
2.27993e-06
1.04966e-05
1.03558e-05
1.07699e-05
1.12292e-06
4.10297e-06
1.10141e-05
1.05462e-05
1.05803e-05
1.05515e-05
1.06037e-05
1.0546e-05
1.04856e-05
2.31717e-06
1.08288e-05
9.8895e-06
1.07165e-05
1.05479e-05
1.07804e-05
1.08164e-05
1.74802e-06
1.05691e-05
1.07834e-05
1.08066e-05
1.08083e-05
9.04938e-06
1.04096e-05
1.06097e-05
9.03702e-07
1.08246e-05
1.0646e-05
9.99257e-07
9.00834e-06
1.03623e-05
1.05817e-05
1.05591e-05
1.05098e-05
1.03235e-05
1.05088e-05
1.05986e-05
1.05826e-05
1.05579e-05
9.68819e-06
1.01493e-05
1.06369e-05
1.08228e-05
9.2577e-06
1.03737e-05
1.08539e-05
1.06406e-05
1.05022e-05
1.07984e-05
6.25544e-06
1.04757e-05
1.07709e-05
1.05279e-05
1.04625e-05
9.09924e-07
1.05433e-05
1.0544e-05
8.77655e-06
9.17105e-06
1.08227e-05
8.5198e-06
9.43007e-06
1.07992e-05
4.63047e-06
1.0326e-05
1.0748e-05
1.06048e-05
1.0439e-05
1.0588e-05
1.0724e-05
9.9295e-06
1.08137e-05
1.0794e-05
1.08003e-05
1.07968e-05
9.28833e-06
1.05106e-05
1.0833e-05
1.4494e-06
1.07821e-05
1.08052e-05
1.08735e-05
1.05299e-05
9.84023e-06
1.08235e-05
9.4246e-06
1.0659e-05
4.89516e-06
1.12887e-05
1.00144e-05
9.74908e-06
1.08007e-05
9.14042e-06
8.95664e-06
1.05712e-05
9.12501e-06
1.05427e-05
1.12049e-05
9.70745e-07
1.08209e-05
1.06139e-05
9.00822e-06
1.05527e-05
1.05143e-05
1.0756e-05
9.9695e-06
1.03767e-05
1.05509e-05
9.15242e-06
1.012e-05
1.05465e-05
1.05519e-05
1.10099e-05
1.05328e-05
1.03399e-05
1.06591e-05
1.06642e-05
1.10107e-05
9.86901e-06
1.05323e-05
1.05118e-05
1.09413e-05
1.026e-05
9.14066e-06
9.3096e-06
1.06701e-05
1.05932e-05
1.1133e-05
1.00008e-05
8.48561e-06
1.06414e-05
1.6317e-06
1.07286e-05
1.03829e-05
8.59262e-06
1.04132e-05
1.03998e-05
1.08179e-05
9.21956e-06
1.05528e-05
1.0569e-05
9.4057e-07
1.06516e-05
1.06226e-05
1.04721e-05
9.50063e-07
1.06464e-05
1.0873e-05
1.042e-05
1.05564e-05
1.06478e-05
1.08232e-05
1.08218e-05
1.07091e-05
1.06164e-05
9.2415e-06
1.08141e-05
1.0754e-05
1.08261e-05
1.06923e-05
1.05781e-05
1.0631e-05
1.07876e-05
9.55229e-06
1.05143e-05
1.05749e-05
8.57415e-06
1.06367e-05
1.04999e-05
1.06716e-05
1.0801e-05
9.10844e-06
7.90608e-07
1.03048e-05
1.06244e-05
9.4539e-06
1.04131e-05
1.0141e-05
9.10104e-07
1.02428e-05
1.12288e-05
8.74776e-06
1.06744e-05
1.0419e-05
1.04711e-05
1.04098e-05
1.06204e-05
7.1234e-06
1.05791e-05
1.06903e-05
1.07816e-05
1.1006e-05
1.05637e-05
1.08134e-05
9.09731e-06
1.04367e-05
1.03648e-05
1.06683e-05
1.06903e-05
9.45895e-06
1.0321e-05
1.05145e-05
1.06831e-05
1.05464e-05
1.08229e-05
1.06224e-05
9.8201e-06
8.01588e-07
1.06693e-05
1.0801e-05
1.06579e-05
1.06329e-05
1.06143e-05
1.08202e-05
1.06784e-05
1.06151e-05
9.2519e-06
1.07981e-05
1.03609e-05
1.04256e-05
1.0438e-05
1.04894e-05
1.08185e-05
1.06855e-05
1.07957e-05
1.06323e-05
1.42193e-06
1.07945e-05
1.04855e-05
1.07984e-05
1.05307e-05
1.0398e-05
1.06423e-05
1.07655e-05
1.01423e-05
9.92989e-06
1.1183e-05
1.06347e-05
7.28681e-06
9.24495e-06
1.10082e-05
2.55931e-06
1.07886e-05
1.08332e-05
1.08204e-05
1.05025e-05
1.0799e-05
1.03524e-05
9.32926e-06
1.02549e-05
1.0487e-05
1.06388e-05
1.07836e-05
1.04266e-05
1.08154e-05
1.0979e-05
1.01113e-05
5.42034e-06
1.07565e-05
1.06389e-05
1.03971e-05
1.08197e-05
1.06071e-05
1.04921e-05
1.08004e-05
1.02884e-05
1.0785e-05
1.07178e-05
1.05947e-05
1.05355e-05
1.0803e-05
1.0824e-05
1.08251e-05
1.0405e-05
1.05192e-05
1.08214e-05
1.08434e-05
1.08234e-05
1.05095e-05
1.05183e-05
8.67052e-06
1.05554e-06
1.60843e-06
1.08127e-05
9.349e-06
1.07588e-05
1.07322e-05
1.06045e-05
3.50841e-06
1.04422e-05
1.06462e-05
1.07042e-05
1.09392e-05
1.08039e-05
1.07439e-05
1.07156e-05
1.08332e-05
1.07999e-05
1.04777e-05
8.14289e-06
1.11719e-05
1.04599e-05
1.06531e-05
1.08247e-05
9.43095e-06
1.07516e-05
1.05646e-05
1.07816e-05
1.08001e-05
9.38916e-06
1.06925e-05
1.0722e-05
1.04454e-05
1.08121e-05
8.38338e-06
1.06979e-05
9.19119e-06
1.06529e-05
1.06867e-05
1.08228e-05
1.08034e-05
1.0579e-05
1.02774e-05
1.06264e-05
8.50834e-06
1.07997e-05
2.99249e-07
2.18428e-06
1.05867e-05
1.08497e-05
1.10629e-05
1.06689e-05
1.09835e-05
9.39806e-07
1.08821e-05
1.06169e-05
2.90388e-06
3.93765e-06
4.50132e-06
4.74385e-06
5.46476e-06
6.50005e-06
6.73838e-06
7.30261e-06
7.54746e-06
1.04587e-05
1.04095e-05
1.03948e-05
1.08304e-05
1.08317e-05
1.08115e-05
1.06916e-05
1.07684e-05
1.07969e-05
1.07973e-05
1.08008e-05
1.08176e-05
9.6588e-06
1.03747e-05
8.22222e-06
1.07076e-05
1.06898e-05
1.08247e-05
1.08123e-05
8.30277e-06
1.08069e-05
7.1866e-06
1.06961e-05
1.08282e-05
8.46371e-06
8.54401e-06
1.17842e-06
1.08268e-05
1.07092e-05
1.07866e-05
1.08765e-05
1.07668e-05
1.07107e-05
1.051e-05
1.08162e-05
1.00141e-06
1.07221e-05
1.08298e-05
1.08027e-05
1.08123e-05
8.50363e-06
1.01574e-05
1.07886e-05
1.04766e-05
1.07301e-05
1.04594e-05
1.05436e-05
1.04193e-05
2.64634e-07
9.60868e-06
1.06242e-05
1.06436e-05
9.68483e-06
1.06803e-05
1.08506e-05
1.04036e-05
8.70201e-06
1.09475e-05
1.07252e-05
1.06548e-05
8.17714e-06
1.04608e-05
1.05171e-05
1.07685e-05
1.08038e-05
9.7649e-06
1.08165e-05
1.06372e-05
1.08475e-05
1.08406e-05
8.98158e-06
1.05551e-05
1.06048e-05
1.05891e-05
1.1045e-05
1.05026e-05
1.06841e-05
1.10748e-05
1.08462e-05
1.06928e-05
1.0794e-05
1.07646e-05
1.08233e-05
1.08246e-05
1.08144e-05
1.05448e-05
1.07173e-05
7.24777e-06
1.03449e-05
1.06489e-05
8.33814e-06
1.07995e-05
8.86407e-06
1.08332e-05
1.05051e-05
1.0836e-05
8.18861e-06
1.0239e-05
1.08607e-05
1.0815e-05
1.09558e-05
8.43048e-06
1.0512e-05
1.07917e-05
9.29756e-06
1.05515e-05
2.71887e-06
1.07804e-05
1.05729e-05
1.04652e-05
1.0822e-05
1.08094e-05
1.08305e-05
1.0895e-05
1.00302e-05
1.06789e-05
1.06301e-05
9.99561e-06
6.37055e-07
1.0855e-05
1.08021e-05
1.07795e-05
3.75619e-07
1.05715e-05
1.05656e-05
4.03224e-06
1.07992e-05
1.08206e-05
1.07978e-05
9.10097e-06
9.58429e-06
1.07641e-05
1.06145e-05
1.02349e-05
1.04951e-05
1.07696e-05
1.08062e-05
1.07921e-05
1.06987e-05
1.03885e-05
1.10361e-05
1.05396e-05
2.24187e-06
1.07212e-05
1.07935e-05
1.05778e-05
1.08498e-05
1.08007e-05
1.07715e-05
1.08325e-05
1.08645e-05
1.04226e-05
1.08124e-05
9.36361e-06
1.07601e-05
1.09491e-05
1.05235e-05
1.07682e-05
1.08331e-05
9.3682e-06
1.0645e-05
1.06787e-05
1.04706e-05
1.08161e-05
1.08271e-05
1.04062e-05
1.08266e-05
1.08332e-05
1.09335e-05
1.08888e-05
1.04798e-05
1.10046e-05
1.06602e-05
1.08273e-05
1.04429e-05
1.05459e-05
1.08006e-05
1.0744e-05
1.07254e-05
1.06153e-05
1.08809e-05
9.39244e-06
1.09311e-05
1.0826e-05
9.51383e-06
1.06165e-05
1.11268e-05
1.07127e-05
1.09559e-05
1.09258e-05
1.05886e-05
1.05686e-05
1.04496e-05
1.08085e-05
1.06322e-05
1.08181e-05
1.09435e-05
1.07927e-05
1.11629e-05
9.99851e-06
7.98023e-06
1.06793e-05
1.10408e-06
1.04107e-05
9.66226e-06
1.05277e-05
1.09845e-05
1.09806e-05
1.05284e-05
1.76735e-06
1.07108e-05
1.04708e-05
1.0713e-05
1.07948e-05
5.31317e-06
1.0351e-05
1.47123e-06
1.07015e-05
1.08189e-05
1.08257e-05
9.17755e-06
1.07962e-05
1.12717e-05
1.12252e-06
8.40835e-06
1.06568e-05
1.10342e-05
1.10411e-05
9.65523e-06
1.08034e-05
8.62447e-06
8.65588e-06
9.54735e-06
1.08021e-05
1.07235e-05
1.08217e-05
1.11602e-05
1.08333e-05
1.09584e-05
1.08184e-05
8.35277e-06
1.07665e-05
1.1331e-05
1.07701e-05
1.06267e-05
1.34191e-06
1.07507e-05
1.07632e-05
1.07999e-05
9.48237e-06
7.8984e-06
1.08842e-05