/*--------------------------------*- C++ -*----------------------------------*\
  =========                 |
  \\      /  F ield         | OpenFOAM: The Open Source CFD Toolbox
   \\    /   O peration     | Website:  https://openfoam.org
    \\  /    A nd           | Version:  8
     \\/     M anipulation  |
\*---------------------------------------------------------------------------*/
FoamFile
{
    version     2.0;
    format      ascii;
    class       volScalarField;
    location    "3";
    object      p;
}
// * * * * * * * * * * * * * * * * * * * * * * * * * * * * * * * * * * * * * //

dimensions      [0 2 -2 0 0 0 0];

internalField   nonuniform List<scalar> 
5490
(
6.81761e-06
7.3136e-06
5.80751e-06
6.93704e-06
1.11891e-06
1.19303e-05
1.23992e-05
1.23558e-05
4.846e-06
1.23311e-05
5.38568e-06
5.09531e-06
4.18934e-06
4.74987e-06
4.69442e-06
1.23605e-05
1.24024e-05
1.20202e-05
6.74212e-06
4.98779e-06
3.57716e-06
1.23991e-05
1.21228e-05
1.23987e-05
3.48626e-06
3.79303e-06
4.31268e-06
6.69294e-06
1.16947e-05
2.43057e-06
6.4349e-06
1.2389e-05
9.80591e-06
8.45391e-06
2.93301e-06
6.3234e-06
1.16216e-05
6.71954e-06
1.58694e-06
3.30497e-06
6.52176e-06
1.16418e-05
5.66767e-06
1.16933e-05
1.24264e-05
8.39952e-06
2.29369e-06
1.71996e-06
6.76203e-06
1.06829e-05
1.23237e-05
2.56458e-06
3.04762e-06
1.34808e-06
4.06142e-06
8.49511e-06
1.13363e-05
1.2769e-05
4.79929e-06
2.53542e-06
1.16703e-05
5.93968e-07
7.94504e-06
1.23678e-05
1.24005e-05
1.22253e-05
1.2331e-05
1.16424e-05
2.04837e-06
1.24333e-05
1.62866e-06
3.45346e-06
1.2334e-05
1.23746e-05
1.23029e-05
2.96128e-06
1.19911e-05
5.53375e-07
7.09237e-06
5.74079e-06
1.16538e-05
1.08304e-05
1.18257e-05
6.86107e-06
1.07248e-06
7.75165e-06
1.19929e-05
1.19518e-05
3.20435e-06
1.16061e-05
1.23777e-05
1.18611e-05
1.41137e-06
1.24591e-05
6.5493e-06
1.23669e-05
5.06006e-06
1.18418e-05
1.17502e-05
3.95831e-06
4.88018e-06
3.05312e-06
8.57088e-06
1.23837e-05
8.63987e-06
8.21242e-06
3.02703e-06
1.1421e-05
1.23788e-05
1.23909e-05
1.23918e-05
1.23598e-05
1.22828e-05
8.48524e-06
5.98533e-06
1.16749e-05
7.13921e-06
1.22332e-05
1.2198e-05
2.65044e-06
8.71432e-06
9.86914e-06
1.17704e-05
6.97755e-06
1.23819e-05
1.22869e-05
4.63393e-06
8.07207e-07
1.23983e-05
4.4986e-06
1.23292e-05
1.16196e-05
3.74337e-06
5.57376e-06
1.86163e-06
1.23803e-05
1.26875e-05
1.23276e-05
1.23137e-05
8.25912e-06
1.23871e-05
1.24101e-05
3.581e-06
1.15314e-05
1.23751e-05
1.23985e-05
2.10402e-08
1.23986e-05
2.71597e-06
1.17894e-05
1.23916e-05
1.23877e-05
5.00282e-06
1.24109e-05
1.14717e-05
1.24027e-05
1.23935e-05
1.22925e-05
1.2403e-05
4.5725e-06
5.89436e-06
1.12385e-05
1.14805e-05
1.22384e-05
1.23646e-05
1.21343e-05
1.23852e-05
4.94038e-07
1.19489e-05
2.71319e-07
1.27094e-05
8.94374e-07
3.78983e-06
1.23882e-05
5.18773e-06
2.21876e-06
2.88431e-06
1.24107e-05
3.69564e-06
4.59542e-06
1.23996e-05
1.23789e-05
7.24618e-06
6.58847e-06
1.24039e-05
1.90867e-06
2.65412e-06
1.26782e-06
1.23898e-05
1.23492e-05
1.27653e-05
1.74681e-06
7.03895e-06
1.23885e-05
1.23091e-05
6.11178e-06
8.50134e-06
1.24032e-05
1.18191e-05
2.69115e-06
1.22784e-05
8.17773e-06
1.24062e-05
1.23919e-05
1.04275e-05
1.29386e-05
1.23846e-05
1.22591e-05
5.49755e-06
1.19032e-05
1.25023e-05
1.23892e-05
6.56786e-06
6.29342e-06
5.94326e-06
8.37343e-06
5.82828e-06
5.5298e-06
1.26524e-05
1.24019e-05
1.20927e-05
1.23877e-05
1.10616e-05
3.93217e-06
3.73682e-06
9.82974e-07
2.9234e-06
2.92972e-06
1.49033e-06
1.23982e-05
1.30575e-06
1.16182e-05
1.23889e-05
1.23272e-05
8.11159e-06
1.13702e-05
1.22919e-05
1.23902e-05
1.24047e-05
4.4431e-06
1.24039e-05
6.05595e-06
3.19832e-07
2.53525e-06
1.24085e-05
1.20992e-05
1.17427e-05
9.4086e-06
1.15529e-05
1.23807e-05
1.24065e-05
1.0074e-05
1.23974e-05
1.16109e-05
2.38569e-06
8.21925e-06
9.5727e-06
3.06842e-06
5.11226e-06
1.2269e-05
1.16695e-05
7.05589e-06
7.18918e-06
1.26484e-05
1.23874e-05
1.19838e-05
8.7117e-06
1.16082e-05
1.23923e-05
1.23555e-05
1.23816e-05
5.89684e-06
1.23918e-05
1.22381e-05
1.00558e-05
1.23872e-05
1.23672e-05
1.53435e-06
6.65672e-06
8.7225e-06
1.24041e-05
1.2389e-05
1.24054e-05
1.14565e-05
5.27459e-06
1.23386e-05
1.14353e-05
1.23867e-05
1.12283e-05
4.85462e-06
1.02072e-06
1.16098e-05
1.18924e-05
8.7996e-06
4.59776e-06
1.2075e-05
1.2379e-05
1.23866e-05
1.09013e-06
1.17167e-05
7.48661e-06
1.22861e-05
6.89394e-06
1.17849e-05
4.14164e-06
1.4574e-06
1.26576e-05
1.23393e-05
7.53519e-06
1.72959e-06
3.69223e-06
1.20897e-05
1.18034e-05
7.97086e-06
4.99385e-06
8.4301e-06
1.82777e-07
1.24249e-05
1.06403e-05
1.24097e-05
1.23566e-05
2.86743e-06
4.36721e-06
1.23257e-05
1.23544e-05
1.632e-06
8.48852e-07
4.20823e-06
1.2045e-05
6.55273e-06
8.0457e-06
1.23847e-05
1.23895e-05
1.14437e-05
6.25907e-06
2.19044e-06
1.24106e-05
4.87813e-06
1.24083e-05
1.22884e-05
1.25019e-05
1.23516e-05
7.33346e-06
8.0767e-06
5.12706e-06
1.45544e-06
1.5445e-06
1.2395e-05
7.35972e-06
1.25933e-06
1.24113e-05
7.60304e-06
2.77475e-06
2.94869e-06
4.70267e-06
1.23843e-05
5.51085e-06
8.78791e-06
1.2475e-05
6.87971e-06
7.51001e-06
4.26726e-06
1.24349e-05
1.25408e-06
1.76385e-06
7.43053e-07
1.16556e-06
1.23551e-05
1.24295e-05
8.51881e-06
1.5356e-06
2.82986e-06
2.80506e-06
1.23847e-05
1.0977e-05
1.23851e-05
1.24138e-05
3.86811e-06
1.23343e-05
1.18035e-05
1.54606e-06
2.88246e-06
7.88165e-06
8.3538e-06
9.85388e-06
4.36686e-06
5.09246e-06
3.42204e-06
3.94325e-06
1.23869e-05
1.15458e-05
4.54034e-06
1.23663e-05
7.83319e-07
3.73332e-06
3.7178e-06
3.7286e-06
1.23807e-05
1.93111e-06
2.84526e-06
1.24463e-05
1.10214e-05
1.11431e-06
1.19566e-05
4.27268e-06
1.23916e-05
1.2405e-05
1.23886e-05
1.23763e-05
2.51271e-06
8.95324e-06
1.24011e-05
6.8873e-06
1.0644e-05
5.46711e-06
3.73231e-06
3.04149e-06
1.23944e-05
1.24099e-05
7.951e-06
2.69602e-06
8.43216e-06
9.443e-06
4.82375e-06
1.15503e-05
1.20891e-05
4.6246e-06
1.23836e-05
1.39714e-06
1.23889e-05
5.33224e-06
5.32788e-06
5.32358e-06
5.64399e-07
1.21085e-05
1.23892e-05
1.23009e-05
1.15156e-05
3.9902e-06
1.66596e-06
8.96501e-06
6.39028e-06
1.5081e-06
1.19219e-05
7.03298e-06
1.23439e-05
8.35567e-06
1.23787e-05
1.23895e-05
1.19805e-05
6.25769e-06
1.23209e-05
5.32935e-06
4.62301e-06
6.24906e-06
6.24971e-06
1.23678e-05
1.23869e-05
7.14539e-06
6.92574e-06
7.20154e-06
1.44169e-06
8.22511e-06
9.15189e-06
1.20969e-05
8.42237e-06
6.03283e-06
1.20597e-05
7.82603e-06
1.05297e-05
8.51735e-06
6.25359e-06
5.57337e-06
4.93221e-06
1.29859e-07
1.17744e-05
1.1997e-05
8.83691e-06
8.79485e-06
1.2378e-05
1.2373e-05
8.37722e-06
7.74785e-06
1.04445e-07
6.51004e-06
1.44789e-06
1.25334e-05
8.52686e-06
7.23658e-06
3.56181e-07
4.38501e-06
8.11729e-07
7.31123e-06
1.23548e-05
1.16048e-05
1.23779e-05
1.23523e-05
1.2391e-05
1.70482e-06
1.20987e-06
1.6339e-06
1.60573e-06
1.23917e-05
1.23837e-05
1.2242e-05
7.30898e-06
3.15593e-06
7.66928e-06
1.13234e-05
1.18277e-05
1.21039e-05
1.17065e-05
1.23795e-05
1.23665e-05
1.23788e-05
1.23913e-05
1.15946e-05
1.42802e-06
7.42092e-06
1.20885e-05
1.19269e-05
1.23787e-05
1.162e-05
1.16021e-05
1.23937e-05
1.23524e-05
1.90986e-06
1.20912e-05
1.23583e-05
7.92188e-07
1.24056e-05
1.86342e-06
1.27102e-05
1.26896e-05
8.09117e-06
1.03908e-05
1.23842e-05
1.16007e-05
1.23949e-05
4.28848e-06
1.22853e-05
1.16093e-05
1.22314e-05
1.07677e-05
1.23744e-05
1.23578e-05
1.14273e-05
1.14485e-05
1.22014e-05
1.23892e-05
6.52408e-06
9.86814e-06
7.58681e-07
1.21902e-05
1.23514e-05
2.03154e-06
1.20782e-05
1.2358e-05
7.01546e-07
1.23767e-05
1.24116e-05
1.23763e-05
1.23922e-05
1.23633e-05
1.13901e-05
9.58669e-06
1.20835e-05
9.33401e-06
2.0262e-06
1.23507e-05
6.74402e-07
1.14658e-05
1.23939e-05
1.22659e-05
1.2386e-05
1.24032e-05
1.20773e-05
8.99258e-06
1.08537e-05
2.46901e-06
1.23904e-05
1.17701e-05
1.16256e-05
1.54332e-06
8.79613e-06
1.18997e-06
1.10133e-05
1.2379e-05
1.23339e-05
1.23816e-05
1.20495e-05
1.22506e-05
1.2391e-05
1.19981e-05
1.23786e-05
1.23639e-05
1.23104e-05
1.24106e-05
1.23778e-05
1.2348e-05
1.34837e-06
3.10331e-06
1.1883e-05
1.24084e-05
6.60903e-06
1.61678e-06
5.04994e-06
1.21366e-05
1.79601e-06
8.32411e-06
1.23739e-05
1.23611e-05
1.15807e-05
5.25627e-06
6.18099e-06
1.59516e-06
1.23179e-05
1.16358e-05
1.23859e-05
9.55696e-06
1.26427e-05
1.67425e-06
1.54797e-06
2.60551e-06
2.24073e-07
1.23857e-05
1.23548e-05
6.17156e-06
1.21481e-05
1.13743e-05
1.2375e-05
1.15132e-05
1.23057e-05
1.04672e-05
1.17218e-05
2.40254e-06
9.22834e-06
1.77868e-06
1.15174e-05
1.25599e-05
1.25622e-05
1.16816e-05
1.2391e-05
1.23707e-05
1.18006e-05
1.31218e-06
8.95848e-06
1.25328e-05
1.20684e-05
3.53653e-06
1.02039e-05
1.19705e-05
8.55477e-06
1.24105e-05
1.23742e-05
1.19739e-05
1.23927e-05
1.20852e-05
1.15229e-05
1.14613e-05
1.16088e-05
9.10456e-06
1.13891e-05
1.23768e-05
2.26758e-06
1.26636e-05
7.44316e-06
1.00495e-05
1.16586e-05
1.22242e-05
1.23553e-05
1.25979e-05
1.18454e-05
1.22298e-05
1.19613e-05
1.14852e-05
1.20463e-05
5.15865e-06
1.19049e-05
1.17046e-05
1.23568e-05
1.14327e-05
8.12805e-06
8.92105e-06
8.60545e-06
1.26305e-05
1.23792e-05
1.23046e-05
1.23907e-05
1.77267e-06
1.15175e-05
1.23929e-05
4.40654e-06
8.83331e-06
1.23532e-05
1.23757e-05
1.15651e-05
1.23866e-05
9.40184e-06
1.14305e-05
1.16494e-05
3.90047e-06
9.44217e-06
1.15865e-05
6.08161e-06
1.23878e-05
1.20211e-05
1.15807e-05
1.1637e-05
9.05698e-06
1.18357e-05
1.16333e-05
1.1931e-05
1.25229e-05
1.23808e-05
1.23634e-05
1.23882e-05
9.34577e-06
9.28778e-06
1.15663e-05
1.23529e-05
8.86176e-06
4.75425e-06
1.22304e-05
2.04553e-06
1.19483e-05
1.23898e-05
8.358e-06
8.61285e-06
8.52735e-06
1.23647e-05
1.13853e-05
1.13155e-05
1.16213e-05
1.1772e-05
1.23728e-05
1.20422e-05
1.16216e-05
8.24067e-06
1.23903e-05
1.16479e-05
1.0322e-05
7.06271e-06
1.0729e-05
4.89268e-06
1.22215e-05
1.17251e-05
1.23909e-05
1.16183e-05
1.26268e-05
1.2103e-05
9.81468e-07
1.21291e-05
1.23788e-05
1.22582e-05
8.96141e-06
1.21013e-05
1.23889e-05
1.16063e-05
1.15538e-05
1.19381e-05
1.23799e-05
8.99764e-06
1.23839e-05
4.08949e-06
1.23925e-05
1.24062e-05
9.19035e-06
4.61175e-06
5.11484e-06
1.24826e-05
8.94848e-06
1.18357e-05
9.34676e-06
1.19714e-05
1.17767e-05
1.22394e-05
1.67775e-06
1.18554e-05
1.23927e-05
4.73346e-06
1.20819e-05
1.04673e-05
1.17468e-05
8.25553e-06
9.19148e-06
1.15996e-05
1.23909e-05
1.23682e-05
1.18745e-05
1.20453e-05
1.22259e-05
9.15065e-06
8.2929e-06
1.16439e-05
1.18861e-05
7.13796e-06
1.20024e-05
1.23698e-05
1.22574e-05
6.4796e-07
1.18428e-05
1.18664e-05
8.22958e-06
1.21171e-05
1.23735e-05
1.23977e-05
1.19523e-05
8.3521e-06
1.2361e-05
1.20771e-05
1.2338e-05
9.1547e-06
1.23685e-05
9.63012e-06
1.19673e-05
1.19167e-05
1.23826e-05
3.25506e-06
8.8958e-06
7.85976e-07
5.22088e-06
1.20673e-05
8.25462e-06
1.23965e-05
1.15961e-05
4.97353e-06
2.1848e-06
1.26874e-05
1.21494e-05
1.23985e-05
1.21652e-05
4.51559e-06
9.37387e-06
1.02333e-05
1.23958e-05
1.239e-05
1.20269e-05
1.25812e-05
1.23704e-05
3.60239e-06
1.19482e-05
3.079e-06
9.87724e-06
1.17024e-05
9.35497e-06
1.1597e-05
1.23945e-05
1.20364e-05
1.13643e-05
2.81606e-06
2.77823e-06
1.18844e-05
1.20213e-05
1.23152e-05
1.23854e-05
1.22736e-05
1.23751e-05
1.2218e-05
8.79717e-06
1.25035e-05
1.23882e-05
2.13802e-06
4.00682e-06
1.17812e-05
1.1987e-05
1.11005e-06
1.23984e-05
1.22773e-05
8.13095e-06
1.23554e-05
1.0111e-05
1.19409e-05
1.02405e-05
1.22367e-05
1.23713e-05
4.21757e-06
9.72716e-06
1.19107e-05
4.67102e-06
1.21957e-05
1.07059e-05
9.00014e-06
9.39837e-06
1.22674e-05
1.22622e-05
1.15447e-05
1.22031e-05
1.21201e-05
8.538e-06
1.2392e-05
1.23802e-05
1.18837e-05
1.17918e-06
5.60534e-06
8.07823e-06
8.36353e-07
1.21482e-05
1.23862e-05
9.71454e-06
9.4143e-06
1.19763e-05
1.1287e-05
1.22604e-05
1.23355e-05
1.18986e-05
1.21534e-05
1.00648e-05
1.50429e-06
1.23728e-05
8.63947e-06
1.23785e-05
8.64317e-06
8.72973e-06
1.22948e-05
1.21006e-05
1.20689e-05
1.2407e-05
1.20775e-05
1.23833e-05
1.2283e-05
1.22861e-05
1.16564e-05
9.21319e-07
1.23693e-05
1.26002e-05
1.23867e-05
1.09117e-05
1.25129e-05
8.21517e-06
8.10697e-06
1.23389e-05
1.20286e-05
1.21757e-05
1.20657e-05
1.23147e-05
1.02707e-05
1.23609e-05
1.25012e-05
1.23744e-05
1.24375e-05
1.229e-05
1.2372e-05
1.18739e-05
1.23927e-05
1.2587e-05
1.23348e-05
9.70069e-06
8.84879e-06
1.22333e-05
1.2673e-05
1.23945e-05
1.2279e-05
1.23745e-05
1.23738e-05
1.22461e-05
1.26318e-05
1.24076e-05
9.5609e-06
1.23903e-05
9.24832e-06
1.23564e-05
1.24069e-05
1.22352e-05
1.22915e-05
1.17391e-05
1.25129e-05
9.12953e-06
1.21196e-05
1.19366e-05
1.2281e-05
1.15794e-05
1.25775e-05
1.25482e-05
1.23455e-05
9.17897e-06
9.41988e-06
1.19296e-05
1.17651e-05
1.23967e-05
1.21846e-05
1.00326e-05
8.57513e-06
1.22798e-05
1.23349e-05
1.89467e-06
1.08045e-05
1.22441e-05
1.23669e-05
9.80846e-06
1.21506e-05
8.77075e-06
1.23822e-05
1.23719e-05
1.2363e-05
8.94078e-06
1.2472e-05
1.23915e-05
1.24073e-05
1.22099e-05
9.05171e-06
1.226e-05
1.23602e-05
7.80765e-07
9.41995e-06
2.89191e-06
1.24001e-05
1.24019e-05
1.23708e-05
1.23878e-05
1.23056e-05
1.23794e-05
1.16774e-05
1.19368e-05
1.23592e-05
1.21972e-05
8.74646e-06
1.20742e-05
1.21975e-05
1.23711e-05
1.25219e-06
1.23593e-05
1.23615e-05
1.23505e-05
1.2579e-05
1.22385e-05
1.23743e-05
1.23076e-05
2.0903e-06
1.23708e-05
1.2835e-05
1.24035e-05
1.23899e-05
1.23881e-05
1.23637e-05
4.13395e-06
1.23234e-05
1.18619e-05
9.25585e-06
1.26793e-05
1.23607e-05
1.23935e-05
1.22587e-05
1.21444e-05
1.23654e-05
1.23905e-05
1.23735e-05
1.23989e-05
1.22414e-05
9.575e-06
1.23878e-05
1.23642e-05
1.2374e-05
1.21091e-05
1.23787e-05
1.23493e-05
1.238e-05
1.23897e-05
1.2466e-05
1.23583e-05
1.16408e-05
9.62229e-06
1.23771e-05
1.25639e-05
1.23145e-05
8.99293e-06
1.23467e-05
1.23677e-05
1.23832e-05
1.23925e-05
1.23807e-05
1.22226e-05
1.23722e-05
1.22727e-05
1.23479e-05
7.01909e-06
1.27991e-05
1.23419e-05
8.43847e-06
1.23234e-05
1.16921e-05
1.23799e-05
1.23555e-05
1.23758e-05
1.05054e-05
1.23899e-05
1.23904e-05
1.23993e-05
7.182e-06
1.2378e-05
1.23907e-05
8.9773e-06
1.23694e-05
1.23758e-05
1.23699e-05
1.23386e-05
1.23621e-05
1.239e-05
1.22623e-05
1.23707e-05
1.21828e-05
5.06678e-06
8.37867e-06
1.23934e-05
1.24089e-05
1.23712e-05
1.23753e-05
4.38801e-06
1.22522e-05
1.2451e-05
1.21726e-05
1.23976e-05
8.5594e-06
1.23951e-05
1.23863e-05
1.22921e-05
1.23964e-05
1.16596e-05
1.23979e-05
1.21696e-05
7.81155e-06
3.46342e-06
1.23783e-05
1.23512e-05
1.23716e-05
1.23746e-05
1.23995e-05
6.78293e-06
1.22803e-05
1.23806e-05
8.49642e-06
1.23483e-05
1.23655e-05
1.24682e-05
1.23714e-05
1.23749e-05
1.23325e-05
2.64307e-06
1.23888e-05
1.26079e-05
9.73249e-06
1.15304e-05
8.81649e-06
8.0017e-06
1.23966e-05
1.23751e-05
1.23747e-05
1.23986e-05
1.23618e-05
9.42621e-06
7.58081e-06
1.25341e-05
1.23764e-05
1.23814e-05
8.57506e-06
1.23794e-05
1.23595e-05
1.23302e-05
1.23753e-05
1.2391e-05
1.23967e-05
1.2386e-05
1.23914e-05
1.28211e-05
9.11069e-06
1.25883e-05
1.23743e-05
9.15902e-06
1.2373e-05
1.25577e-05
1.23976e-05
1.25903e-05
1.23895e-05
6.46068e-06
1.23401e-05
1.23968e-05
1.23756e-05
1.25173e-05
1.25519e-05
8.50815e-06
1.23742e-05
1.24443e-05
1.25262e-05
1.28134e-05
1.23798e-05
1.23926e-05
1.23892e-05
1.2415e-05
1.23757e-05
1.23928e-05
1.23925e-05
8.83383e-06
9.69697e-06
1.23947e-05
9.34718e-06
1.23192e-05
1.23679e-05
1.23761e-05
1.23953e-05
9.43846e-06
5.38617e-06
1.23844e-05
1.25386e-05
1.23723e-05
1.23375e-05
1.24394e-05
1.23909e-05
1.23744e-05
8.54533e-06
1.23361e-05
1.23759e-05
1.22916e-05
9.00956e-06
1.23955e-05
8.97946e-06
1.24688e-05
1.25506e-05
1.23733e-05
1.23729e-05
1.23965e-05
1.23889e-05
1.23851e-05
1.23753e-05
1.23518e-05
1.23699e-05
1.23789e-05
1.23398e-05
1.23749e-05
9.67197e-06
1.2381e-05
1.23915e-05
1.23634e-05
1.23906e-05
1.23725e-05
1.2377e-05
1.23865e-05
1.24162e-05
2.66188e-06
1.23704e-05
1.2374e-05
1.23539e-05
1.23647e-05
1.23993e-05
1.23262e-05
1.25518e-05
8.65109e-06
1.23834e-05
1.23573e-05
1.24343e-05
9.15214e-06
1.23769e-05
1.23627e-05
4.4407e-09
1.23876e-05
1.2515e-05
1.23546e-05
1.2349e-05
1.23951e-05
3.59784e-06
6.6376e-06
1.26109e-05
1.23235e-05
1.26274e-05
8.25646e-06
1.23335e-05
4.62879e-06
1.23554e-05
1.22977e-05
1.23769e-05
1.2398e-05
8.33062e-06
1.25459e-05
8.89325e-06
1.23326e-05
9.03861e-06
1.25567e-05
1.23806e-05
1.23761e-05
1.25078e-05
1.23936e-05
1.23799e-05
1.20834e-05
1.23401e-05
1.23694e-05
1.23828e-05
1.16465e-05
1.23949e-05
1.28161e-05
1.23877e-05
1.24167e-05
1.23608e-05
8.59369e-06
1.23753e-05
1.23937e-05
1.23775e-05
1.17259e-05
1.23417e-05
1.25271e-05
8.7577e-06
8.8524e-06
5.19819e-06
1.23829e-05
1.24016e-05
8.70619e-06
1.23488e-05
1.23819e-05
1.23272e-05
1.23822e-05
1.24004e-05
1.23807e-05
1.25903e-05
1.25738e-05
1.23946e-05
1.23523e-05
1.23753e-05
1.23816e-05
1.23722e-05
1.24736e-05
1.23671e-05
1.23639e-05
1.23931e-05
9.09054e-06
1.20189e-05
1.25364e-05
1.2464e-05
1.23521e-05
7.50502e-06
6.12688e-06
1.23984e-05
1.23825e-05
1.23397e-05
1.23497e-05
1.23638e-05
8.72133e-06
1.2373e-05
1.23613e-05
8.84824e-06
1.2345e-05
1.237e-05
1.23974e-05
1.23811e-05
1.24007e-05
1.24837e-05
4.40153e-06
4.42443e-06
1.28142e-05
1.23489e-05
1.23951e-05
1.23814e-05
8.97013e-06
1.23881e-05
1.23663e-05
1.24881e-05
1.23998e-05
1.27616e-05
1.23891e-05
1.23945e-05
4.13923e-06
8.76798e-06
1.39021e-06
1.2392e-05
1.23771e-05
2.66543e-06
1.23629e-05
8.97686e-06
1.23908e-05
7.45651e-06
1.25415e-05
1.23918e-05
1.21215e-05
1.23762e-05
9.12378e-06
8.88127e-06
8.2333e-06
1.23589e-05
1.23961e-05
1.24029e-05
1.23851e-05
1.23745e-05
1.25487e-05
9.10817e-06
1.23943e-05
1.2374e-05
1.23701e-05
1.23457e-05
1.2374e-05
4.49271e-06
1.23687e-05
1.23924e-05
1.23788e-05
1.23857e-05
1.23884e-05
8.28629e-06
1.28013e-05
1.27128e-05
1.23473e-05
1.24344e-05
1.24008e-05
1.23929e-05
1.23874e-05
7.61771e-06
1.23605e-05
1.23998e-05
1.25628e-05
1.23942e-05
1.23817e-05
1.23729e-05
1.19946e-05
1.24068e-05
7.29513e-06
7.86964e-06
1.23943e-05
1.23964e-05
1.2321e-05
1.23676e-05
1.23737e-05
1.23951e-05
1.23413e-05
3.23367e-06
1.23868e-05
1.23889e-05
7.93995e-06
1.23767e-05
7.80208e-06
1.23752e-05
1.18338e-05
1.23725e-05
1.23877e-05
1.23949e-05
8.61602e-06
1.24174e-05
1.23529e-05
1.23734e-05
1.26277e-05
1.23997e-05
1.23774e-05
1.24054e-05
1.2388e-05
8.00937e-06
1.23944e-05
1.23846e-05
1.23835e-05
1.24049e-05
1.23744e-05
1.23717e-05
4.88014e-06
7.86877e-06
1.23685e-05
8.34679e-06
1.239e-05
1.2412e-05
1.23876e-05
1.23856e-05
1.23861e-05
1.23818e-05
1.25728e-05
1.25017e-05
1.23887e-05
1.23913e-05
1.25569e-05
1.23285e-05
9.84366e-06
1.23994e-05
1.23436e-05
1.25044e-05
1.2531e-05
1.23878e-05
1.23863e-05
1.23976e-05
1.23019e-05
8.13396e-06
1.24204e-05
1.239e-05
8.25874e-06
1.23944e-05
8.04204e-06
1.24019e-05
1.23902e-05
1.23741e-05
1.23841e-05
1.23615e-05
1.23981e-05
6.33951e-06
1.25773e-05
1.24037e-05
1.23495e-05
1.23719e-05
1.23303e-05
1.23869e-05
1.22998e-05
1.23912e-05
1.2372e-05
1.23944e-05
7.71605e-06
1.23904e-05
1.24918e-05
1.24022e-05
1.23961e-05
8.12334e-06
1.23967e-05
1.23704e-05
1.25089e-05
1.24626e-05
1.22492e-05
8.20092e-06
1.23932e-05
1.23982e-05
1.22774e-05
1.23869e-05
1.23872e-05
1.23923e-05
8.50721e-06
1.23871e-05
1.23714e-05
7.82779e-06
1.2357e-05
1.23914e-05
1.23797e-05
1.2405e-05
1.23562e-05
1.24743e-05
1.25277e-05
8.00124e-06
8.1251e-06
1.22251e-05
1.3251e-06
1.2714e-05
1.23881e-05
1.23732e-05
1.24099e-05
8.23406e-06
1.24791e-05
1.2393e-05
1.23864e-05
1.2373e-05
1.23836e-05
8.31446e-06
8.51889e-06
8.03692e-06
7.77292e-06
7.71085e-06
1.52066e-06
3.58433e-06
1.23914e-05
1.2392e-05
7.74104e-06
7.59419e-06
7.85547e-06
1.23834e-05
1.23391e-05
1.23988e-05
1.23712e-05
1.23848e-05
1.23901e-05
1.23951e-05
1.23976e-05
1.2384e-05
1.239e-05
1.23852e-05
1.23902e-05
5.18659e-06
1.23859e-05
1.23936e-05
1.23889e-05
1.23911e-05
1.23897e-05
1.23875e-05
8.22611e-06
1.1612e-05
1.23918e-05
1.27329e-05
1.27475e-05
1.24062e-05
7.46669e-06
1.24624e-05
1.23912e-05
6.11576e-06
1.23697e-05
1.23926e-05
8.10088e-06
7.93989e-06
8.22128e-06
8.32049e-06
7.5337e-06
1.24529e-05
1.23789e-05
1.2399e-05
1.25183e-05
1.23908e-05
1.23872e-05
1.24138e-05
7.5996e-06
7.46131e-06
1.25088e-05
1.24004e-05
1.23864e-05
1.23943e-05
1.23974e-05
8.42064e-06
7.77723e-06
7.6534e-06
1.23906e-05
1.23874e-05
1.27126e-05
1.23921e-05
1.26122e-05
1.23703e-05
8.89453e-06
1.24047e-05
1.2399e-05
7.05783e-06
7.57087e-06
7.84986e-06
1.23902e-05
1.16935e-05
1.23841e-05
1.69727e-06
7.38827e-06
8.43081e-06
1.24047e-05
1.23573e-05
7.69645e-06
1.23757e-05
7.9591e-06
1.2367e-05
1.23381e-05
1.23913e-05
7.3989e-06
1.24682e-05
1.23053e-05
1.23969e-05
1.23993e-05
1.23964e-05
7.07915e-06
1.23916e-05
7.98351e-06
1.23963e-05
1.23676e-05
1.25282e-05
8.09657e-06
1.23911e-05
7.46401e-06
1.23789e-05
1.24979e-05
7.89327e-06
1.23816e-05
7.32153e-06
1.24056e-05
7.28482e-06
8.10668e-06
1.2369e-05
1.23944e-05
7.81283e-06
7.99498e-06
8.07242e-06
8.04884e-06
1.23928e-05
1.23399e-05
1.2389e-05
7.18371e-06
1.23737e-05
1.64978e-06
1.23963e-05
7.99625e-06
1.23659e-05
7.77048e-06
7.41805e-06
2.59216e-06
7.32135e-06
7.26591e-06
1.23787e-05
8.04976e-06
7.90796e-06
3.02654e-06
7.49472e-06
7.67386e-06
7.34731e-06
8.01714e-06
1.23806e-05
8.01532e-06
1.23976e-05
7.86708e-06
8.05165e-06
7.91634e-06
5.72259e-06
1.24017e-05
5.85219e-06
7.17915e-06
7.78026e-06
6.59502e-06
7.90817e-06
1.23943e-05
6.46516e-06
7.13663e-06
6.28985e-06
1.23475e-05
7.75625e-06
7.49751e-06
7.78405e-06
7.54021e-06
7.64151e-06
4.38032e-06
4.46221e-06
6.72078e-06
8.08494e-06
7.44714e-06
6.44687e-06
7.36273e-06
7.58879e-06
8.15834e-06
7.00283e-06
6.72143e-06
6.4348e-06
6.16074e-06
7.62061e-06
7.40289e-06
7.65099e-06
1.24027e-05
7.58323e-06
7.6692e-06
7.22589e-06
7.54006e-06
7.69805e-06
6.7837e-06
6.95287e-06
7.77364e-06
7.88077e-06
7.53228e-06
7.27436e-06
6.86113e-06
7.26774e-06
6.49906e-06
6.57702e-06
1.2386e-05
7.36644e-06
3.45878e-06
7.10716e-06
7.03543e-06
6.898e-06
6.3666e-06
6.04704e-06
1.2388e-05
6.74106e-06
5.0487e-06
6.68484e-06
7.13354e-06
6.99193e-06
7.33873e-06
5.98799e-06
6.82097e-06
7.33001e-06
6.99973e-06
7.37963e-06
7.45193e-06
7.36422e-06
8.1675e-06
6.63992e-06
7.39144e-06
7.04949e-06
6.62944e-06
7.11013e-06
6.74232e-06
6.55261e-06
7.35427e-06
7.14733e-06
6.9043e-06
6.92453e-06
6.97962e-06
6.58606e-06
6.93169e-06
6.92781e-06
6.3898e-06
7.23933e-06
6.4249e-06
6.66333e-06
7.88589e-06
6.27883e-06
6.72709e-06
6.50314e-06
7.1962e-06
6.84762e-06
6.86434e-06
6.65104e-06
1.23835e-05
6.87217e-06
6.79353e-06
6.60706e-06
6.63312e-06
6.47798e-06
6.62593e-06
6.30408e-06
7.06819e-06
7.04178e-06
6.77313e-06
6.35486e-06
6.7676e-06
1.24062e-05
6.65439e-06
7.96476e-06
6.65436e-06
6.53052e-06
6.18724e-06
6.07049e-06
6.73603e-06
6.60962e-06
6.11582e-06
6.60636e-06
6.50159e-06
6.83628e-06
6.53853e-06
6.56898e-06
6.48878e-06
6.39164e-06
6.24003e-06
6.61224e-06
6.52108e-06
6.76324e-06
5.99517e-06
6.54442e-06
6.52611e-06
6.59717e-06
5.833e-06
5.94295e-06
6.38965e-06
5.8703e-06
6.08698e-06
6.48753e-06
6.24288e-06
6.52305e-06
6.51541e-06
6.37749e-06
6.64917e-06
7.54603e-06
5.84947e-06
6.39985e-06
6.40726e-06
5.97455e-06
6.30239e-06
5.71561e-06
6.4312e-06
6.24862e-06
5.94662e-06
6.70803e-06
5.74352e-06
5.77098e-06
6.18877e-06
6.18447e-06
4.14976e-06
5.90609e-06
6.1568e-06
5.61539e-06
5.93023e-06
5.81637e-06
6.26617e-06
6.02229e-06
6.08483e-06
6.13718e-06
6.38226e-06
6.32453e-06
5.33141e-06
5.49262e-06
5.94209e-06
6.02625e-06
6.10397e-06
6.49614e-06
5.63826e-06
5.44334e-06
5.90529e-06
4.951e-06
5.94939e-06
5.98278e-06
5.77434e-06
5.70349e-06
4.6792e-06
5.05864e-06
5.15995e-06
5.66397e-06
5.87184e-06
5.37677e-06
5.4741e-06
5.80477e-06
5.55767e-06
5.87957e-06
5.49108e-06
5.88543e-06
5.69337e-06
5.21382e-06
5.78857e-06
5.31831e-06
5.08247e-06
5.02207e-06
5.67737e-06
5.61326e-06
5.44388e-06
5.78162e-06
5.62746e-06
5.63515e-06
5.2689e-06
5.68066e-06
5.11752e-06
5.20468e-06
5.727e-06
5.10466e-06
5.30781e-06
5.5913e-06
5.24223e-06
5.76164e-06
4.82633e-06
5.35001e-06
5.99499e-06
5.56634e-06
5.58617e-06
5.50331e-06
5.00711e-06
5.53032e-06
4.85862e-06
5.08265e-06
5.21285e-06
5.41234e-06
5.67219e-06
5.39113e-06
5.10162e-06
4.9848e-06
5.48815e-06
5.32935e-06
5.46107e-06
7.43727e-06
4.87394e-06
5.28798e-06
1.64562e-06
1.68836e-06
5.29638e-06
5.16843e-06
4.91957e-06
4.91186e-06
5.30663e-06
5.18987e-06
4.0498e-06
5.00902e-06
5.21571e-06
5.40788e-06
4.74537e-06
5.19469e-06
5.80202e-06
4.73373e-06
5.10493e-06
5.494e-06
5.17222e-06
4.62918e-06
5.06837e-06
4.79711e-06
5.37073e-06
5.1398e-06
4.52565e-06
5.23302e-06
5.0009e-06
4.22153e-06
5.21435e-06
4.43447e-06
4.95621e-06
5.02858e-06
4.7797e-06
4.99354e-06
4.13705e-06
7.07678e-06
4.92115e-06
4.4039e-06
4.79981e-06
4.65086e-06
4.93921e-06
4.12245e-06
4.26943e-06
4.61743e-06
4.27194e-06
4.37061e-06
4.84085e-06
4.70711e-06
4.7366e-06
4.33228e-06
4.71768e-06
4.5738e-06
4.25649e-06
4.94045e-06
4.66051e-06
4.75197e-06
4.6426e-06
4.15819e-06
4.54634e-06
4.6266e-06
4.61641e-06
4.46031e-06
4.78821e-06
4.35946e-06
4.01111e-06
4.73568e-06
4.31736e-06
4.47909e-06
4.55898e-06
2.96252e-06
4.08959e-06
4.36136e-06
4.53117e-06
4.38238e-06
4.58438e-06
5.04192e-06
3.43503e-06
4.25037e-06
3.85499e-06
4.01456e-06
4.44155e-06
4.51697e-06
4.33306e-06
4.26911e-06
4.23792e-06
4.29072e-06
3.9008e-06
4.13437e-06
3.90121e-06
3.35826e-06
2.92086e-06
3.56414e-06
3.04466e-06
5.40098e-06
3.70454e-06
4.20815e-06
3.24454e-06
4.16953e-06
4.10561e-06
4.01781e-06
3.43052e-06
3.13348e-06
3.99606e-06
4.21438e-06
4.02314e-06
3.80574e-06
3.41014e-06
4.14324e-06
2.64427e-06
3.74536e-06
2.76288e-06
4.02581e-06
3.6729e-06
3.20685e-06
4.04625e-06
4.14361e-06
3.87889e-06
4.02762e-06
3.95221e-06
3.64163e-06
3.50382e-06
4.13887e-06
3.67678e-06
2.51412e-06
3.00054e-06
3.7689e-06
4.00642e-06
3.90598e-06
3.89782e-06
3.79947e-06
3.4992e-06
3.1693e-06
3.56433e-06
3.07863e-06
3.37283e-06
3.30557e-06
3.50381e-06
3.70282e-06
3.29737e-06
3.50356e-06
3.54711e-06
3.59012e-06
4.87698e-06
3.91381e-06
3.80574e-06
3.25116e-06
3.85797e-06
4.24906e-06
3.68915e-06
3.83281e-06
3.75225e-06
3.41535e-06
3.31636e-06
3.17822e-06
3.58951e-06
3.38222e-06
3.29714e-06
3.65734e-06
3.99229e-06
3.49165e-06
3.27558e-06
2.84945e-06
3.43707e-06
3.83516e-06
3.62539e-06
2.94391e-06
3.40629e-06
3.29876e-06
3.49856e-06
3.74829e-06
3.29847e-06
3.14349e-06
3.08021e-06
2.88618e-06
3.39783e-06
2.51111e-06
2.61291e-06
3.29439e-06
3.05813e-06
3.03361e-06
3.61452e-06
2.74224e-06
2.80821e-06
3.3781e-06
3.41279e-06
3.15098e-06
2.99954e-06
2.78516e-06
2.95919e-06
3.20999e-06
2.70148e-06
2.81056e-06
2.84371e-06
3.27169e-06
3.09319e-06
3.18992e-06
2.3734e-06
2.79277e-06
2.95937e-06
2.69454e-06
2.57579e-06
4.443e-06
3.08745e-06
2.90039e-06
2.88592e-06
3.14955e-06
3.19051e-06
2.54488e-06
3.18898e-06
2.94557e-06
2.99597e-06
2.44363e-06
2.47958e-06
2.65037e-06
2.82536e-06
3.00192e-06
2.94784e-06
2.65835e-06
3.03485e-06
2.41811e-06
3.10845e-06
2.30957e-06
2.91862e-06
1.97455e-06
2.60095e-06
2.5524e-06
2.20765e-06
2.32551e-06
2.70703e-06
2.21737e-06
2.17544e-06
3.78526e-06
2.53696e-06
2.72392e-06
2.33945e-06
2.35149e-06
2.04342e-06
2.10176e-06
2.1121e-06
2.35746e-06
2.13257e-06
2.4724e-06
2.1895e-06
2.20052e-06
2.13038e-06
2.24606e-06
2.43464e-06
1.91157e-06
1.87885e-06
2.08686e-06
1.87088e-06
2.37432e-06
1.9457e-06
2.02763e-06
2.48517e-06
2.30669e-06
1.838e-06
1.77932e-06
2.27073e-06
1.90738e-06
1.9937e-06
2.21706e-06
1.83103e-06
1.64855e-06
2.00994e-06
1.73965e-06
1.87693e-06
1.78661e-06
1.98801e-06
1.51755e-06
1.79575e-06
1.58646e-06
1.81243e-06
2.16626e-06
1.57461e-06
2.08971e-06
2.03221e-06
1.46561e-06
2.16944e-06
1.62433e-06
4.85066e-06
1.86403e-06
2.59207e-06
1.78801e-06
1.70818e-06
1.72711e-06
5.78618e-06
4.49471e-06
4.19274e-06
2.90184e-06
1.94502e-06
2.45573e-06
1.30111e-06
1.60363e-06
1.515e-06
2.67562e-06
1.34455e-06
1.88776e-06
6.98888e-06
3.04533e-06
3.72263e-06
2.72738e-06
1.93276e-06
4.18549e-06
4.62392e-06
4.29918e-06
3.04635e-06
2.34179e-06
6.25007e-06
2.26468e-06
5.6288e-06
1.6509e-06
1.48351e-06
1.72501e-06
6.41308e-06
1.77313e-06
8.23314e-06
3.59077e-06
3.61232e-06
3.8552e-06
3.86401e-06
6.29854e-06
4.0649e-06
2.91169e-06
2.94092e-06
3.90725e-06
4.07516e-06
4.05705e-06
1.40668e-06
5.45195e-06
5.39637e-06
2.71865e-06
6.68571e-06
4.14132e-06
7.39542e-07
3.2145e-06
1.59619e-06
4.54077e-06
8.33118e-06
8.50344e-06
2.57981e-06
2.01919e-06
1.81602e-06
5.75942e-06
2.04371e-06
5.75491e-06
1.77349e-06
6.4196e-06
6.60302e-06
2.45329e-06
8.64569e-06
1.56181e-06
1.67822e-06
4.4502e-06
6.78277e-06
5.19646e-06
5.50918e-06
5.87058e-06
6.85286e-06
3.10716e-06
9.14386e-06
1.64912e-06
4.71961e-06
1.83189e-06
8.1142e-06
8.2536e-06
1.6371e-06
8.67662e-07
8.40727e-06
6.68617e-06
6.72866e-06
6.96277e-06
8.19811e-06
9.92099e-07
1.11607e-06
5.63838e-06
6.38234e-06
8.38924e-06
6.81673e-06
1.76475e-06
4.75748e-06
8.61274e-06
6.20669e-06
1.68863e-06
6.11954e-06
8.87779e-06
7.16992e-06
9.19593e-06
3.83142e-06
2.4333e-06
2.32152e-06
1.68206e-06
7.94456e-06
7.89026e-06
6.8423e-06
1.38107e-06
1.50424e-06
2.21086e-06
8.22801e-06
1.45348e-06
1.76472e-06
1.73375e-06
2.32678e-06
2.88934e-06
1.70606e-06
1.58129e-06
2.92792e-06
1.72538e-06
1.90083e-06
2.37046e-06
2.06812e-06
2.77145e-06
1.88691e-06
2.34718e-06
2.78697e-06
2.08071e-06
2.44079e-06
2.26195e-06
3.02578e-06
2.74617e-06
2.30219e-06
2.30714e-06
2.24772e-06
2.44826e-06
3.37722e-06
2.39858e-06
3.66686e-06
2.23039e-06
2.3836e-06
2.46617e-06
2.21344e-06
3.65985e-06
2.38054e-06
3.23091e-06
2.57324e-06
2.59306e-06
3.54955e-06
2.63998e-06
3.84569e-06
4.34487e-06
3.38123e-06
2.69959e-06
4.22615e-06
3.86534e-06
3.92755e-06
3.944e-06
3.6673e-06
3.56077e-06
3.76984e-06
2.78864e-06
3.80433e-06
3.51665e-06
3.72465e-06
2.72803e-06
3.7774e-06
4.79268e-06
3.91344e-06
4.04767e-06
4.11172e-06
3.70238e-06
4.84774e-06
3.80759e-06
3.97716e-06
4.14352e-06
4.49742e-06
4.02696e-06
3.8294e-06
4.61012e-06
5.29513e-06
4.50452e-06
4.8326e-06
4.76719e-06
5.59167e-06
4.62455e-06
4.91694e-06
3.83104e-06
5.55588e-06
4.71724e-06
5.04846e-06
5.20231e-06
4.67442e-06
5.10952e-06
5.37865e-06
5.91124e-06
5.23121e-06
5.3591e-06
5.47813e-06
6.37439e-06
5.54879e-06
5.37227e-06
5.83546e-06
6.29238e-06
5.88601e-06
5.42796e-06
5.37872e-06
5.31268e-06
6.22894e-06
5.99848e-06
5.4398e-06
5.35443e-06
5.47739e-06
5.98753e-06
5.57029e-06
6.08181e-06
5.48275e-06
6.22376e-06
5.60057e-06
6.43286e-06
6.19041e-06
6.07831e-06
6.97942e-06
6.32194e-06
6.39371e-06
6.50324e-06
6.81707e-06
6.40655e-06
5.62508e-06
7.2407e-06
6.30054e-06
1.24036e-05
6.68701e-06
7.56907e-06
6.74092e-06
7.3922e-06
7.47685e-06
1.23713e-05
6.96555e-06
7.57835e-06
7.73075e-06
1.55469e-06
6.99379e-06
7.24691e-06
1.23928e-05
7.82034e-06
7.67624e-06
8.07417e-06