/*--------------------------------*- C++ -*----------------------------------*\
  =========                 |
  \\      /  F ield         | OpenFOAM: The Open Source CFD Toolbox
   \\    /   O peration     | Website:  https://openfoam.org
    \\  /    A nd           | Version:  8
     \\/     M anipulation  |
\*---------------------------------------------------------------------------*/
FoamFile
{
    version     2.0;
    format      ascii;
    class       volScalarField;
    location    "3";
    object      p;
}
// * * * * * * * * * * * * * * * * * * * * * * * * * * * * * * * * * * * * * //

dimensions      [0 2 -2 0 0 0 0];

internalField   nonuniform List<scalar> 
5119
(
4.54226e-06
1.22267e-05
1.22684e-05
1.17375e-05
5.50859e-06
1.24133e-05
1.22095e-05
1.22279e-05
1.115e-05
2.16543e-06
1.17477e-05
2.13416e-06
5.74793e-06
1.20486e-05
3.95029e-06
7.17715e-06
8.34621e-06
1.34279e-06
3.01591e-06
3.10054e-06
7.18918e-06
6.34052e-06
4.12622e-06
1.92755e-06
7.56519e-06
7.16272e-06
4.1568e-06
4.20964e-06
4.24651e-06
1.22504e-06
1.64244e-06
2.91692e-06
6.89243e-06
3.85957e-06
4.82471e-06
1.28831e-06
1.26157e-06
1.27682e-06
5.19686e-06
9.13909e-06
1.2228e-05
5.46252e-06
8.44078e-06
8.46724e-06
8.84034e-06
1.22481e-05
9.4561e-06
8.97684e-06
8.96425e-06
7.93102e-06
1.21248e-05
1.17206e-05
1.2675e-05
1.22671e-05
1.20325e-05
9.24479e-06
1.18035e-05
1.22303e-05
6.39174e-06
9.74182e-06
8.53813e-06
8.29669e-06
9.34911e-06
8.91861e-06
1.22329e-05
9.92708e-06
1.21692e-05
1.19424e-05
9.4826e-06
1.20396e-05
1.20928e-05
1.22373e-05
1.22081e-05
9.44968e-06
7.91849e-06
9.1862e-06
1.22244e-05
1.22448e-05
9.99097e-06
9.73172e-06
1.13698e-05
1.19787e-05
1.16302e-06
6.77945e-07
1.2253e-05
9.42628e-07
1.22974e-05
8.64632e-06
6.54222e-07
6.65414e-07
6.60691e-07
6.35634e-07
1.22289e-05
1.16144e-05
9.59669e-06
1.17797e-05
1.26004e-05
9.52417e-06
1.1788e-05
1.11032e-06
7.27053e-06
7.03982e-06
1.11931e-05
1.0016e-05
1.22304e-05
1.22371e-05
1.01674e-05
1.21769e-05
1.19551e-05
1.22811e-05
1.08226e-05
1.22381e-05
1.22369e-05
2.16714e-06
1.22245e-05
1.18372e-05
1.16894e-05
1.22352e-05
1.19525e-05
9.37906e-07
1.21865e-05
4.6399e-06
1.11054e-05
6.56369e-06
7.70436e-06
3.61544e-06
6.61713e-06
6.54388e-06
2.3882e-06
4.74382e-06
6.99377e-06
1.86392e-06
1.88968e-06
3.61473e-06
1.23385e-05
1.21625e-05
1.08606e-05
3.51467e-06
1.21342e-05
4.3278e-06
6.38059e-06
8.63447e-06
5.8416e-06
4.59464e-06
4.72055e-06
4.68402e-06
1.91172e-06
1.95103e-06
1.93139e-06
1.17028e-05
1.03047e-05
1.23623e-05
9.97906e-06
1.16588e-05
1.17848e-05
9.48268e-07
1.18147e-05
1.25825e-05
1.21707e-05
1.15243e-05
1.0456e-05
1.22462e-05
1.21729e-05
9.76573e-06
1.22315e-05
1.22976e-05
1.22337e-05
1.22319e-05
1.22331e-05
1.18035e-05
1.21001e-05
1.0037e-05
1.19396e-05
1.20553e-05
1.18762e-05
1.20404e-05
1.21296e-05
3.30601e-06
1.22393e-05
4.99096e-06
1.21927e-05
1.21615e-05
9.61837e-06
9.56256e-06
1.22301e-05
1.17545e-05
1.22456e-05
1.21497e-05
1.21372e-05
1.2211e-05
1.1504e-05
1.05291e-05
9.6612e-06
1.19653e-05
1.22248e-05
1.1533e-05
1.2297e-05
1.21531e-05
1.10726e-05
1.248e-05
1.22339e-05
1.05067e-05
1.22311e-05
2.14936e-06
3.80099e-06
4.56612e-06
6.25903e-06
1.02693e-05
1.20769e-05
1.19744e-05
1.21839e-05
9.21496e-06
1.22135e-05
9.43579e-06
1.21929e-05
1.20575e-05
1.21305e-05
9.11339e-06
1.18493e-05
1.21527e-05
1.02366e-05
1.18113e-05
1.22406e-05
9.99584e-06
1.18261e-05
1.17119e-05
1.2223e-05
1.22864e-05
5.95905e-06
2.41447e-06
1.22442e-05
2.92728e-06
7.15894e-06
6.31876e-06
5.54299e-06
1.20848e-05
7.9828e-06
8.54649e-06
1.20547e-05
1.07955e-05
1.19381e-05
1.21775e-05
1.1713e-05
1.07974e-05
3.75344e-06
2.60098e-06
6.18769e-06
1.20885e-05
7.06021e-06
3.48566e-06
6.46088e-06
7.94077e-06
8.24627e-06
3.16921e-06
3.54442e-06
7.54736e-06
3.5724e-06
3.53973e-06
4.11497e-06
1.20846e-05
1.21599e-05
1.21493e-05
1.15094e-05
8.06955e-06
5.34836e-06
5.38518e-06
5.57479e-06
6.55166e-06
1.21297e-05
9.41072e-06
1.21498e-05
1.22208e-05
1.72676e-06
6.78357e-06
2.21612e-06
1.25748e-05
1.09465e-05
8.12894e-06
1.17843e-06
7.91038e-06
8.25309e-06
3.56668e-06
3.5387e-06
7.53128e-06
3.50494e-06
3.06805e-06
4.09262e-06
6.43764e-06
1.36041e-06
2.33619e-06
7.90339e-06
3.44479e-06
6.98903e-06
1.21973e-05
3.77231e-06
7.23024e-06
8.90763e-06
1.2036e-05
1.22444e-05
9.93623e-06
1.17157e-05
6.24922e-06
1.17866e-05
1.24458e-05
1.19608e-05
1.23284e-05
1.25938e-05
1.53806e-06
1.17999e-05
1.00313e-05
1.7697e-06
6.40917e-06
5.48259e-06
5.55636e-06
6.13421e-06
5.49124e-06
1.22323e-05
1.23755e-05
6.75069e-06
6.67279e-06
1.17368e-05
9.45869e-06
3.91437e-06
1.23831e-05
1.163e-05
1.05939e-05
1.18633e-05
3.19344e-06
5.19657e-06
1.18364e-05
5.81008e-06
5.45963e-06
1.06008e-05
1.212e-05
1.24017e-05
4.63119e-06
7.02222e-06
8.27202e-06
1.44971e-06
2.93022e-06
7.05493e-06
3.14797e-06
1.17464e-05
7.04666e-06
7.42168e-06
4.21965e-06
1.9443e-06
1.36856e-06
1.18414e-05
1.17403e-05
4.97068e-06
5.21214e-06
5.21323e-06
5.02464e-06
6.18915e-06
6.07323e-06
4.7472e-06
4.47222e-06
3.98573e-06
7.31741e-06
3.15111e-06
2.91245e-06
2.95103e-06
7.66461e-06
2.83075e-06
2.97646e-06
2.66705e-06
2.38186e-06
2.45934e-06
2.48097e-06
2.41964e-06
2.21588e-06
8.49926e-06
8.97055e-06
1.18138e-05
1.19647e-05
1.21224e-05
1.19771e-05
3.52063e-06
1.2509e-05
1.157e-05
1.21749e-05
9.9201e-06
3.00063e-06
9.73921e-06
1.03873e-05
1.22208e-05
2.9378e-06
3.87112e-06
6.73068e-06
1.23059e-05
1.23925e-05
1.04942e-05
1.21942e-05
8.98748e-06
6.20434e-06
4.18278e-06
4.30909e-06
4.27833e-06
1.21557e-05
8.37368e-06
1.21645e-05
1.22221e-05
1.05938e-05
4.92926e-06
1.18691e-05
1.12257e-05
1.22377e-05
1.18604e-05
1.15364e-05
9.70944e-06
2.44599e-06
4.25944e-06
1.4319e-06
1.41064e-06
1.42483e-06
1.11773e-05
6.00055e-06
6.85779e-06
1.22317e-05
1.22e-05
8.08966e-06
1.19179e-05
1.21584e-05
1.21048e-05
1.18641e-05
1.22463e-05
5.86079e-06
7.39771e-07
1.24462e-05
1.04666e-05
5.83352e-06
8.38731e-06
1.23246e-05
1.18802e-05
1.21268e-05
1.09656e-05
1.01257e-05
1.24038e-05
1.21363e-05
1.13416e-05
1.21897e-05
1.15568e-05
8.01274e-07
8.3448e-07
8.40998e-07
8.2556e-07
1.21641e-05
1.15825e-05
8.24535e-06
1.14843e-05
1.22458e-05
5.52353e-06
6.80481e-06
3.78956e-06
3.35338e-06
3.11286e-06
3.04193e-06
3.13788e-06
3.16405e-06
7.94964e-06
8.33385e-06
2.61679e-06
7.82124e-06
1.20785e-05
1.22668e-05
5.15905e-06
1.16139e-06
4.71893e-06
5.00966e-06
4.98433e-06
4.79753e-06
6.40984e-06
6.29713e-06
4.50633e-06
4.22749e-06
3.75158e-06
7.54418e-06
2.906e-06
2.71657e-06
2.66873e-06
2.74052e-06
7.89392e-06
2.60981e-06
2.44145e-06
2.14148e-06
2.24226e-06
2.22176e-06
2.19538e-06
1.98524e-06
8.74314e-06
9.23595e-06
1.22277e-05
1.18259e-05
1.22262e-05
1.02327e-05
1.02338e-05
1.22287e-05
1.24681e-05
1.20773e-05
1.19822e-05
1.22778e-05
1.08924e-05
1.12547e-05
1.22598e-05
8.65854e-07
1.18681e-05
5.05414e-06
1.05929e-05
3.7376e-07
3.92225e-07
4.41422e-07
1.16804e-05
2.63157e-06
7.48672e-06
6.73768e-06
1.17481e-05
1.20243e-05
1.21915e-05
1.19094e-05
5.1679e-06
2.23698e-06
1.22456e-05
1.03175e-05
1.14752e-05
6.06559e-06
7.12847e-06
5.70175e-06
1.23582e-05
1.04908e-05
9.95865e-06
1.00885e-06
1.08651e-05
6.91474e-06
7.26233e-06
1.22005e-05
1.23592e-05
1.01099e-05
1.18271e-05
2.44623e-06
7.47558e-06
6.76059e-06
9.97555e-06
6.54366e-06
5.63446e-06
5.33172e-06
5.26608e-06
1.20086e-05
1.17595e-05
7.72277e-06
1.20089e-05
9.86332e-06
1.22499e-05
1.21888e-05
1.24568e-05
8.45465e-06
2.69736e-06
9.06883e-06
1.17172e-05
5.54848e-06
1.15509e-05
1.22382e-05
1.17207e-05
1.1086e-05
1.24311e-05
1.22383e-05
1.20858e-05
2.95451e-06
1.21382e-05
1.10946e-05
1.1208e-05
6.0232e-06
1.23397e-05
1.24124e-05
1.22107e-05
1.05438e-05
1.1574e-05
1.22272e-05
1.22991e-05
1.22197e-05
2.45204e-07
2.22393e-07
2.46748e-07
1.12352e-05
1.20052e-05
1.19565e-05
1.24896e-05
1.23327e-05
4.95384e-06
4.70501e-06
1.22429e-05
1.22481e-05
1.22532e-05
1.03076e-05
1.20463e-05
1.21189e-05
8.10346e-06
7.74204e-06
3.31526e-06
3.28866e-06
3.28731e-06
3.93992e-06
6.61508e-06
3.53542e-06
3.22927e-06
1.00139e-05
1.24173e-05
1.11216e-05
1.22006e-05
1.21898e-05
7.36414e-06
1.23164e-05
1.19502e-05
9.02935e-06
1.14038e-05
1.23416e-05
1.20424e-05
1.22525e-05
1.07558e-05
1.21845e-05
1.2201e-05
1.21269e-05
1.17343e-05
1.22378e-05
7.124e-06
5.86368e-06
1.1456e-05
1.22532e-05
1.21696e-05
1.22015e-05
1.23189e-05
1.19419e-05
1.04401e-05
5.54537e-06
1.599e-06
1.21539e-05
1.06655e-05
1.80723e-06
6.1483e-06
1.58477e-06
7.59536e-06
3.84722e-06
3.87841e-06
7.87782e-06
7.21301e-06
3.49585e-06
3.80527e-06
4.41587e-06
1.20429e-05
8.96779e-06
1.17794e-05
6.21881e-07
1.23844e-05
1.23068e-05
1.17678e-05
1.22351e-05
1.22612e-05
6.57879e-07
1.22579e-05
1.2238e-05
8.37115e-06
1.75837e-06
8.85656e-06
1.10733e-05
1.22965e-05
1.05508e-05
1.14429e-05
1.22362e-05
1.18463e-05
8.54342e-07
1.23414e-06
1.23294e-05
1.21845e-05
1.08785e-05
1.15421e-05
1.22748e-05
1.09951e-05
1.21139e-05
1.22364e-05
1.19159e-05
5.83301e-06
1.94836e-06
3.62049e-06
4.3904e-06
6.26934e-06
1.22119e-05
2.24685e-07
2.23603e-07
2.78079e-07
1.11278e-05
1.23636e-05
1.24401e-05
7.2003e-06
1.21473e-05
8.55304e-06
2.57484e-07
2.87259e-07
1.22967e-05
9.84042e-07
2.74065e-06
7.56314e-06
3.77151e-06
6.67423e-06
7.68232e-06
1.18408e-05
6.42563e-06
1.22355e-05
1.22585e-05
1.19569e-05
1.22396e-05
1.22141e-05
1.22352e-05
1.17755e-05
1.19515e-05
8.76477e-06
1.20333e-05
1.06662e-05
1.07151e-05
9.89896e-06
1.22172e-05
1.21469e-05
9.92267e-06
1.21435e-05
8.75121e-06
1.19334e-05
1.22093e-05
2.13952e-06
1.19117e-05
1.13213e-05
1.25287e-05
1.20195e-05
1.08763e-05
1.19381e-05
1.20351e-05
1.21349e-05
2.24637e-07
2.29408e-07
2.35279e-07
2.77093e-07
2.1746e-07
1.22106e-05
1.20358e-05
9.94759e-06
1.23943e-05
1.22299e-05
1.22512e-05
1.21055e-05
1.17982e-05
1.17218e-05
5.24117e-06
5.2716e-06
5.27764e-06
5.69061e-06
5.51274e-06
5.63636e-06
1.22414e-05
1.22664e-05
4.63346e-06
4.91607e-06
5.37262e-06
5.676e-06
5.88436e-06
5.90663e-06
6.3576e-06
6.12253e-06
4.60318e-06
4.16033e-06
6.97912e-06
3.38882e-06
3.1156e-06
3.0442e-06
2.85077e-06
7.38902e-06
3.11083e-06
3.13879e-06
3.06961e-06
2.60113e-06
2.64443e-06
2.62035e-06
7.79181e-06
2.50808e-06
2.38618e-06
8.30865e-06
2.10334e-06
8.51468e-06
8.83839e-06
9.09237e-06
5.40807e-06
5.21343e-06
5.40036e-06
5.21909e-06
5.58475e-06
1.23394e-05
1.03685e-05
1.22411e-05
4.12604e-06
1.31393e-05
1.22327e-05
1.22336e-05
1.21588e-05
5.66031e-06
5.71347e-06
5.32022e-06
1.22544e-05
1.1884e-05
1.22194e-05
1.22984e-05
1.24271e-05
9.06701e-06
1.12972e-05
1.20671e-05
1.0917e-05
1.18324e-05
1.19669e-05
1.12522e-05
1.21808e-05
1.22411e-05
1.25736e-05
5.3467e-06
1.22186e-05
1.22475e-05
1.21345e-05
4.43697e-07
4.03618e-07
4.08347e-07
1.22413e-05
1.17149e-05
1.23954e-05
1.22529e-05
1.07804e-05
1.22223e-05
6.94488e-06
1.2256e-05
1.21574e-05
1.21912e-05
1.15179e-05
1.16041e-05
1.13052e-05
1.22312e-05
1.24969e-05
1.2283e-05
8.8088e-06
1.19074e-05
5.1175e-06
5.09485e-06
9.99264e-06
1.08801e-05
1.22243e-05
1.21399e-05
1.23408e-05
1.24596e-05
1.04483e-05
1.23017e-05
1.2498e-05
1.1586e-05
1.22286e-05
1.21029e-05
5.06927e-06
4.90594e-06
6.29668e-06
4.92698e-06
6.25383e-06
5.95947e-06
6.10699e-06
6.65328e-06
4.12876e-06
4.0873e-06
3.83772e-06
7.34746e-06
2.98474e-06
2.17785e-06
2.28076e-06
2.25499e-06
2.30575e-06
2.52682e-06
8.23077e-06
8.04395e-06
1.19228e-05
8.62366e-06
6.6383e-06
7.90732e-06
1.22308e-05
1.22312e-05
1.0817e-05
1.17892e-05
1.18368e-05
1.21403e-05
1.13766e-05
1.00519e-05
1.15705e-05
5.51182e-06
1.07542e-05
1.22932e-05
9.51639e-06
1.17278e-05
1.21686e-05
1.01223e-05
1.17806e-05
7.15534e-06
8.61357e-06
1.11981e-05
1.18609e-05
1.16228e-05
1.10407e-05
1.08952e-05
1.13772e-05
1.15526e-05
1.22509e-05
1.15783e-05
1.21364e-05
1.15352e-05
1.21235e-05
1.15594e-05
1.17627e-05
8.53169e-06
6.01118e-06
1.20834e-05
1.11825e-05
1.20167e-05
1.22726e-05
8.30495e-06
1.05913e-05
8.79914e-06
1.2392e-05
1.16192e-05
9.87066e-06
1.14811e-05
1.18371e-05
1.223e-05
1.20735e-05
1.04786e-05
1.22503e-05
1.031e-05
5.86306e-06
6.26098e-06
6.27077e-06
4.01649e-06
4.40086e-06
3.6534e-06
6.73714e-06
3.59512e-06
3.52372e-06
7.36756e-06
3.71515e-06
3.68183e-06
7.60986e-06
7.94109e-06
7.69863e-06
2.75834e-06
1.22366e-05
1.20416e-05
1.16761e-05
1.16833e-05
1.19903e-05
1.15142e-05
1.20645e-05
1.06081e-05
5.33566e-06
1.22227e-05
5.62774e-06
5.643e-06
1.02725e-05
5.43771e-06
1.22398e-05
1.2229e-05
7.57325e-06
1.17223e-05
1.22117e-05
8.08104e-06
8.14604e-06
7.80658e-06
8.59345e-06
1.21157e-05
1.22158e-05
8.70897e-06
7.99231e-06
8.53496e-06
1.19962e-05
1.15745e-05
1.2782e-05
1.22441e-05
1.17593e-05
1.1907e-05
1.22663e-05
7.70823e-06
8.93981e-06
1.23038e-05
1.22334e-05
1.21918e-05
1.22077e-05
1.00139e-05
1.23913e-05
7.61027e-06
9.65899e-06
1.2152e-05
2.57854e-06
1.20955e-05
1.13909e-05
1.21382e-05
9.13425e-06
1.22356e-05
1.15859e-05
6.36547e-06
6.23545e-06
4.55879e-06
4.383e-06
3.81098e-06
7.49465e-06
3.11829e-06
2.85325e-06
2.8545e-06
7.82149e-06
2.88028e-06
2.75847e-06
2.60086e-06
2.16301e-06
2.29087e-06
2.2716e-06
2.25491e-06
2.00462e-06
8.59365e-06
9.16666e-06
5.06911e-06
4.88094e-06
5.14513e-06
4.84975e-06
1.23109e-05
1.21659e-05
1.02728e-05
1.22667e-05
1.19143e-05
1.19483e-05
1.25507e-05
1.22172e-05
1.20834e-05
7.90324e-07
1.21856e-05
6.82553e-06
3.85554e-06
3.60814e-06
3.32328e-06
3.27244e-06
3.32764e-06
3.35735e-06
7.86619e-06
8.20111e-06
1.22339e-05
3.0857e-06
8.06589e-06
5.62499e-06
1.21337e-05
1.16915e-05
1.18378e-05
1.1961e-05
1.21155e-05
1.20938e-05
1.23771e-05
1.23602e-05
1.22823e-05
1.14909e-05
1.21721e-05
2.40911e-06
1.21246e-05
1.2245e-05
4.83789e-06
4.86926e-06
6.03827e-06
5.85701e-06
5.41306e-06
1.22694e-05
1.22306e-05
1.17465e-05
1.23157e-05
5.47677e-06
1.14503e-05
1.22504e-05
1.21829e-05
1.18141e-05
1.39475e-06
1.37956e-06
1.40585e-06
4.81885e-06
1.18156e-05
1.22456e-05
1.23115e-05
1.00249e-05
1.05598e-05
1.13876e-05
1.22404e-05
1.22367e-05
1.20105e-05
1.23384e-05
1.21306e-05
1.16431e-05
1.2243e-05
5.90174e-06
1.22039e-05
1.22193e-05
1.21673e-05
1.22015e-05
1.16014e-05
7.74037e-06
1.1104e-05
1.22347e-05
1.23258e-05
5.27401e-06
1.2301e-05
5.72085e-06
1.13291e-05
1.2166e-05
1.16013e-05
9.97505e-06
1.1999e-05
5.33596e-06
5.86974e-06
5.3594e-06
1.19266e-05
1.2133e-05
1.21234e-05
1.17323e-05
1.17931e-05
1.20388e-05
1.17786e-05
5.65911e-06
5.63834e-06
5.50874e-06
9.66318e-06
1.24287e-05
1.21462e-05
1.1978e-05
1.14682e-05
1.22494e-05
1.16042e-05
1.19416e-05
1.15561e-05
1.22294e-05
1.21566e-05
1.21007e-05
1.22473e-05
1.20084e-05
1.20696e-05
1.13434e-05
1.21408e-05
1.20796e-05
5.64961e-06
5.62779e-06
9.08873e-06
1.18903e-05
1.23413e-05
1.18084e-05
1.22492e-05
1.19925e-05
1.14402e-05
1.23719e-05
4.95187e-06
1.23915e-05
9.39068e-06
1.24758e-05
1.22407e-05
1.18898e-05
1.22467e-05
1.18625e-05
1.23995e-05
1.18561e-05
1.22015e-05
1.21812e-05
1.19735e-05
1.22098e-05
5.52206e-06
5.42642e-06
5.56079e-06
1.17589e-05
1.24469e-05
1.21422e-05
1.23302e-05
1.21248e-05
1.22516e-05
1.15132e-05
1.21229e-05
1.16698e-05
1.73519e-06
3.8775e-06
2.94372e-06
6.83871e-06
1.22363e-05
1.22405e-05
1.21246e-05
1.23884e-05
1.17779e-05
1.22338e-05
1.22344e-05
1.22375e-05
1.20526e-05
8.81791e-06
1.22338e-05
1.21543e-05
1.22997e-05
1.69316e-06
1.67412e-06
1.70825e-06
8.8045e-06
1.2236e-05
1.223e-05
1.21739e-05
1.2221e-05
1.22172e-05
1.15632e-05
1.21971e-05
1.21579e-05
1.14681e-05
1.20744e-05
5.441e-06
1.18669e-05
1.22022e-05
1.22351e-05
5.21773e-06
1.21639e-05
1.17831e-05
1.23604e-05
1.18643e-05
1.12033e-05
1.22555e-05
1.2111e-05
1.22748e-05
1.23137e-05
1.23474e-05
1.21892e-05
1.10454e-05
1.22954e-05
1.22231e-05
1.21648e-05
1.2106e-05
1.22001e-05
1.17203e-05
1.2204e-05
1.16743e-05
1.22208e-05
5.33134e-06
4.21116e-06
6.28006e-06
2.17401e-06
3.14761e-06
3.01529e-06
7.0818e-06
1.44786e-06
7.09186e-06
8.30415e-06
1.23173e-05
1.22024e-05
1.23208e-05
1.22415e-05
1.1094e-05
1.14169e-05
1.20928e-05
1.22218e-05
1.22313e-05
1.17631e-05
1.22645e-05
1.09858e-05
1.20805e-05
1.21483e-05
3.72777e-06
3.75969e-06
6.30222e-06
7.74191e-06
5.93038e-06
4.31814e-06
3.70868e-06
7.34995e-06
2.42453e-06
8.0264e-06
3.35516e-06
1.4259e-06
1.64092e-06
1.207e-05
1.22005e-05
1.22264e-05
1.22046e-05
1.21116e-05
1.20265e-05
1.17984e-05
1.09524e-05
1.13785e-05
9.63115e-06
1.19778e-05
1.22437e-05
1.26643e-05
1.22441e-05
1.15999e-05
1.21038e-05
1.23034e-05
1.21432e-05
1.10161e-05
4.96954e-07
1.22379e-05
7.76968e-06
1.21886e-05
1.14401e-05
9.57795e-06
1.22278e-05
1.22301e-05
1.22474e-05
8.79599e-06
1.17523e-05
1.21674e-05
1.23614e-05
1.07507e-05
1.20039e-05
1.14962e-05
1.22484e-05
1.20595e-05
1.19638e-05
1.14139e-05
1.15502e-05
1.17241e-05
1.22435e-05
1.18311e-05
1.20534e-05
1.23303e-05
1.21449e-05
1.14382e-05
1.23256e-05
1.23088e-05
1.22169e-05
1.22045e-05
1.19885e-05
7.15631e-07
7.06733e-07
6.8774e-07
7.231e-07
7.61517e-07
1.00448e-05
1.21195e-05
1.1318e-05
1.20239e-05
3.4692e-07
3.40201e-07
1.17751e-05
8.53233e-06
1.22358e-05
1.20293e-05
1.21456e-05
1.17782e-05
1.0403e-05
4.48979e-06
1.22485e-05
1.19855e-05
1.22099e-05
1.22395e-05
1.20751e-05
1.18895e-05
6.45351e-06
1.22126e-05
1.19499e-05
1.15255e-05
1.16944e-05
1.21297e-05
1.14426e-05
1.15361e-05
1.33827e-06
6.40628e-06
1.20633e-05
4.19333e-06
4.24661e-06
4.28107e-06
7.08411e-06
1.93388e-06
7.5121e-06
1.22387e-05
1.19592e-05
1.23407e-05
1.14372e-05
1.21675e-05
1.19542e-05
2.59098e-06
3.64237e-06
6.86635e-06
7.7741e-06
5.32609e-06
1.15099e-05
1.23729e-05
1.10011e-05
5.75738e-06
5.82201e-06
5.312e-06
5.07235e-06
1.22501e-05
1.15839e-05
1.226e-05
1.14446e-05
3.91861e-06
1.22347e-05
1.2585e-05
1.18856e-05
1.15151e-05
1.22691e-05
1.15057e-05
4.1107e-07
1.18547e-05
1.21844e-05
1.22323e-05
1.22141e-05
1.22172e-05
1.21872e-05
5.36138e-06
1.14381e-05
1.22551e-05
1.40533e-06
1.21131e-05
1.19926e-05
3.27415e-07
2.89536e-07
3.06358e-07
3.02398e-07
2.98233e-07
1.22392e-05
1.22296e-05
1.22159e-05
7.43804e-06
1.21582e-05
1.17651e-05
1.16499e-05
1.17379e-05
1.21269e-05
1.21773e-05
1.2203e-05
1.22517e-05
1.22266e-05
1.2371e-05
1.22404e-05
1.22156e-05
1.16603e-05
1.21885e-05
1.18117e-05
1.22885e-05
1.08608e-05
9.23497e-06
1.2337e-05
1.17045e-05
9.23428e-06
1.22122e-05
7.98989e-06
5.55198e-06
1.22465e-05
1.22348e-05
1.19984e-05
4.02374e-06
9.19033e-06
1.22377e-05
1.17507e-05
1.14553e-05
1.21112e-05
1.20852e-05
1.21683e-05
1.22356e-05
1.17811e-05
1.22351e-05
1.21843e-05
1.21776e-05
1.22395e-05
1.23931e-05
1.22477e-05
5.26497e-06
1.20518e-05
1.15722e-05
1.2235e-05
1.19049e-05
1.21221e-05
1.17667e-05
1.22118e-05
1.1182e-05
1.16381e-05
5.3405e-06
1.22219e-05
1.14359e-05
1.24875e-05
1.22382e-05
1.17168e-05
1.21383e-05
1.22643e-05
1.22276e-05
1.10142e-05
1.22319e-05
1.21455e-05
1.18624e-05
5.78576e-06
1.22358e-05
1.2248e-05
1.22363e-05
1.21954e-05
1.22294e-05
1.22385e-05
1.22254e-05
1.21072e-05
4.1757e-06
6.54743e-06
3.25145e-06
2.03103e-06
7.85408e-06
1.19951e-05
1.04431e-05
1.02083e-05
1.14935e-05
1.15959e-05
1.2237e-05
1.22168e-05
1.13111e-05
1.22487e-05
5.0935e-06
5.13343e-06
1.21316e-05
2.41022e-07
2.56401e-07
1.22245e-05
5.81609e-06
1.21727e-05
1.18213e-05
1.22312e-05
1.21528e-05
1.22208e-05
8.52881e-06
1.22319e-05
1.21783e-05
1.21926e-05
6.65695e-06
1.30529e-05
1.22289e-05
1.18902e-05
1.1975e-05
1.21669e-05
1.20796e-05
9.57697e-06
1.1717e-05
1.17814e-05
1.22366e-05
9.3446e-06
9.66033e-06
1.14795e-05
1.2165e-05
1.22286e-05
1.21708e-05
1.16959e-05
1.19857e-05
1.1555e-05
1.223e-05
1.17945e-05
1.1417e-05
9.71982e-06
4.66248e-07
1.1896e-05
1.22361e-05
9.93791e-06
1.22329e-05
1.18471e-05
1.20925e-05
1.13732e-05
1.17129e-05
1.22115e-05
1.2234e-05
1.22049e-05
9.42896e-06
1.14733e-05
1.07346e-05
1.22258e-05
1.1362e-05
5.51989e-06
1.17733e-05
1.09589e-05
1.15225e-05
1.2232e-05
1.22432e-05
1.28173e-06
1.10581e-06
1.11451e-06
6.97922e-06
1.21635e-05
7.25994e-06
1.2314e-05
4.99601e-06
1.24665e-05
1.16946e-05
1.2068e-05
1.22297e-05
1.2169e-05
1.15665e-05
9.69853e-06
1.17352e-05
1.17367e-05
6.51118e-06
1.20349e-05
1.22445e-05
1.22257e-05
1.27912e-05
1.21223e-05
1.22348e-05
7.40588e-06
1.25709e-05
1.2094e-05
1.23899e-05
1.22606e-05
1.21068e-05
5.79402e-06
8.54825e-06
1.16791e-05
1.20288e-05
1.14555e-05
1.21588e-05
1.07263e-05
1.20132e-05
1.20603e-05
1.22424e-05
1.24859e-05
1.1802e-05
1.10547e-05
1.22415e-05
1.22283e-05
1.18556e-05
1.22277e-05
8.66538e-06
1.22167e-05
1.23155e-05
1.14207e-05
1.20907e-05
1.15034e-05
1.14449e-05
1.17431e-05
1.22058e-05
1.20177e-05
1.18971e-05
1.22322e-05
1.22425e-05
9.26863e-06
1.22335e-05
9.82391e-06
1.22377e-05
1.19831e-05
1.18831e-05
1.23871e-05
1.17968e-05
1.22445e-05
1.21243e-05
1.20956e-05
1.22383e-05
1.18346e-05
1.16138e-05
1.18122e-05
1.22534e-05
1.15902e-05
1.22368e-05
1.14934e-05
9.35117e-06
1.22308e-05
9.27015e-06
1.25329e-05
1.22397e-05
1.22309e-05
1.21972e-05
1.19384e-05
1.22222e-05
1.24249e-05
1.186e-05
1.22416e-05
2.04525e-06
2.02502e-06
2.00353e-06
8.61806e-06
1.22322e-05
1.22271e-05
1.20001e-05
1.1324e-05
1.22027e-05
1.16161e-05
1.24052e-05
1.23731e-05
1.30503e-05
1.30922e-05
1.26106e-05
1.22457e-05
1.17879e-05
8.9565e-06
1.24178e-05
1.18846e-05
1.18674e-05
1.00252e-05
1.2408e-05
1.22422e-05
1.23559e-05
1.22789e-05
1.21708e-05
1.2072e-05
1.22706e-05
1.22318e-05
1.22173e-05
1.23067e-05
6.57924e-06
8.84185e-06
1.22324e-05
8.7879e-06
8.31756e-06
1.14219e-05
8.91824e-06
1.2243e-05
1.16091e-05
1.19937e-05
1.22278e-05
1.23475e-05
1.23129e-05
1.19791e-05
8.28979e-06
1.22242e-05
1.21295e-05
7.70852e-06
1.23298e-05
1.20965e-05
1.21704e-05
1.21976e-05
1.22285e-05
1.19358e-05
1.18125e-05
1.24699e-05
1.19819e-05
1.19295e-05
4.56313e-06
1.17984e-05
1.2246e-05
1.22341e-05
1.2214e-05
1.17276e-05
1.21202e-05
9.11472e-07
1.25339e-05
2.29295e-06
1.22024e-05
1.23316e-05
1.22072e-05
1.22422e-05
1.22364e-05
1.21961e-05
1.22402e-05
1.1487e-05
1.22875e-05
4.03373e-06
1.58671e-06
3.75147e-06
1.89457e-06
2.81214e-06
6.9631e-06
6.68118e-06
3.10997e-06
1.22768e-05
1.22726e-05
1.22665e-05
1.2226e-05
1.22271e-05
7.44287e-06
1.13735e-05
1.22191e-05
1.18586e-05
1.17885e-05
1.1774e-05
7.5251e-06
1.22329e-05
1.20782e-05
1.2251e-05
1.21195e-05
1.22017e-05
1.24085e-05
1.16863e-05
1.21678e-05
1.19291e-05
1.22347e-05
1.21809e-05
1.11579e-05
1.22152e-05
1.22618e-05
1.22392e-05
1.20841e-05
1.23988e-05
1.23233e-05
1.22171e-05
1.22269e-05
1.19581e-05
1.22846e-05
1.20913e-05
4.71251e-06
1.22128e-05
1.2392e-05
1.22195e-05
1.20883e-05
8.10977e-06
1.18262e-05
3.24118e-06
1.20917e-05
1.19096e-05
1.21955e-05
1.22459e-05
1.29266e-06
1.15253e-05
1.2245e-05
1.23975e-05
1.22436e-05
1.13474e-05
1.18855e-05
1.22022e-05
1.21934e-05
1.16092e-05
1.22714e-05
1.18372e-05
1.22355e-05
1.11415e-05
1.22087e-05
1.19911e-05
1.19661e-05
1.22447e-05
1.17198e-05
1.19391e-05
1.16371e-05
1.1858e-05
1.22276e-05
1.19611e-05
1.2053e-05
5.89708e-06
1.23234e-05
1.21463e-05
1.22185e-05
1.21028e-05
1.2238e-05
1.18288e-05
1.10147e-05
4.28528e-06
1.22312e-05
1.22464e-05
9.95118e-06
9.70009e-06
1.24667e-05
1.22301e-05
1.22216e-05
1.22435e-05
1.26092e-05
1.2047e-06
1.25713e-06
1.24337e-06
1.26729e-06
1.5677e-06
1.53706e-06
1.55443e-06
4.04226e-06
1.79292e-06
7.63906e-06
4.09761e-06
4.13138e-06
7.11207e-06
5.61241e-06
4.67625e-06
1.92455e-06
1.22874e-05
1.25041e-05
1.16551e-05
1.14867e-05
1.22387e-05
1.14074e-05
3.7568e-06
2.70568e-06
1.66824e-06
6.58654e-06
2.55341e-06
7.43982e-06
1.21776e-05
7.24015e-06
3.711e-06
1.92931e-06
1.17589e-05
9.20889e-06
5.6811e-06
1.18725e-05
1.22404e-05
1.22366e-05
8.39879e-06
1.21087e-05
1.09942e-06
1.14571e-06
1.1332e-06
1.15498e-06
1.21756e-05
1.22362e-05
1.17601e-05
1.22491e-05
1.19856e-05
1.22147e-05
1.19874e-05
5.31948e-06
8.93678e-06
6.02706e-06
3.93227e-06
3.96374e-06
3.90492e-06
4.50218e-06
7.40712e-06
3.62972e-06
7.05575e-06
7.72976e-06
2.71051e-06
1.69142e-06
1.4762e-06
1.22076e-05
1.20347e-05
1.14868e-05
1.22261e-05
1.21725e-05
9.79204e-06
1.16276e-05
1.2228e-05
3.92122e-06
6.495e-06
7.36155e-06
2.89126e-06
2.7734e-06
1.19015e-06
1.2211e-05
1.18017e-05
1.19548e-05
1.22545e-05
1.23689e-05
1.22246e-05
1.22353e-05
1.16199e-05
7.83666e-06
1.22112e-05
7.95717e-06
1.22508e-05
1.19765e-05
1.22148e-05
1.22535e-05
1.19536e-05
1.22505e-05
1.22494e-05
1.21708e-05
1.18967e-05
1.22345e-05
1.16442e-05
1.22442e-05
1.2409e-05
1.22375e-05
1.22032e-05
1.22235e-05
1.22414e-05
1.22403e-05
1.19348e-05
8.37119e-06
1.16259e-05
1.22167e-05
1.15836e-05
1.16415e-05
1.22379e-05
1.19345e-05
1.20754e-05
8.37325e-06
1.06608e-05
1.24238e-05
1.23091e-05
1.20646e-05
1.22347e-05
1.21061e-05
1.22265e-05
1.22346e-05
1.22327e-05
1.1986e-05
1.20178e-05
1.16466e-05
8.50835e-07
8.79036e-07
8.94267e-07
8.88352e-07
1.17379e-05
1.21975e-05
1.20598e-05
2.00176e-06
1.22089e-05
9.12708e-06
1.23823e-05
1.225e-05
1.19065e-05
1.2235e-05
1.22332e-05
1.19462e-05
1.22238e-05
3.36579e-06
1.19806e-05
1.22313e-05
1.22334e-05
1.1505e-05
1.18544e-05
1.22425e-05
1.20693e-05
1.16693e-05
1.22207e-05
1.22413e-05
1.19616e-05
1.22024e-05
1.22479e-05
1.22301e-05
1.19283e-05
1.22133e-05
1.2247e-05
1.22242e-05
1.15771e-05
1.21489e-05
1.20069e-05
1.17443e-05
1.81269e-06
1.79227e-06
1.82784e-06
8.68731e-06
1.22311e-05
1.22333e-05
1.22277e-05
1.22279e-05
1.24631e-05
1.22188e-05
1.15107e-05
1.21312e-05
1.22176e-05
1.22442e-05
1.23276e-05
1.22232e-05
1.22318e-05
9.21012e-06
1.22406e-05
1.16538e-05
1.22496e-05
1.17605e-05
1.13176e-05
1.22487e-05
1.22395e-05
1.19155e-05
1.22486e-05
1.2264e-05
1.22355e-05
1.19161e-05
1.22403e-05
9.6886e-06
1.22014e-05
1.22352e-05
1.23408e-05
1.22373e-05
1.2242e-05
1.21831e-05
1.22303e-05
1.18832e-05
1.22557e-05
1.22276e-05
1.22239e-05
1.20681e-05
1.22049e-05
1.22339e-05
1.24107e-05
1.18941e-05
1.14506e-05
1.20276e-05
1.19848e-05
1.22248e-05
1.2312e-05
1.22176e-05
1.22087e-05
1.21637e-05
2.48007e-07
2.1132e-07
2.54484e-07
2.57811e-07
2.58011e-07
1.2232e-05
1.22378e-05
1.22261e-05
1.23891e-05
1.22156e-05
1.22176e-05
1.22412e-05
1.20091e-05
1.21404e-05
1.22289e-05
1.22373e-05
1.22274e-05
1.25872e-05
1.22098e-05
1.18847e-05
1.22904e-05
1.22889e-05
1.23505e-05
8.58956e-06
1.22224e-05
1.23604e-05
1.22259e-05
9.39599e-06
1.22014e-05
1.2246e-05
1.06799e-05
1.18373e-05
1.1144e-05
1.19177e-05
1.12859e-05
1.19013e-05
1.23886e-05
1.22343e-05
1.20192e-05
1.22263e-05
1.20324e-05
1.06312e-05
1.22077e-05
1.23086e-05
1.22364e-05
1.15731e-05
1.24234e-05
1.2223e-05
1.2242e-05
1.16772e-05
1.19227e-05
1.22052e-05
1.16971e-05
1.22425e-05
1.20401e-05
1.24966e-05
1.21656e-05
9.29758e-06
1.22285e-05
1.19968e-05
1.18081e-05
1.15658e-05
1.22099e-05
1.12849e-05
1.22181e-05
1.25819e-05
1.19422e-05
1.22218e-05
1.22418e-05
7.82062e-06
1.22358e-05
1.22305e-05
1.2252e-05
1.22364e-05
1.22504e-05
9.76159e-06
1.23675e-05
1.22361e-05
1.22272e-05
1.22273e-05
1.2263e-05
9.39997e-06
1.22187e-05
1.22251e-05
1.22337e-05
8.79001e-06
1.22279e-05
1.22363e-05
1.22364e-05
1.22368e-05
1.24859e-05
1.21651e-05
1.22359e-05
1.22215e-05
1.22537e-05
9.28781e-06
1.25323e-05
1.22044e-05
1.22364e-05
1.19412e-05
1.18997e-05
1.22278e-05
1.25714e-05
1.14127e-05
1.18936e-05
8.24824e-06
9.24292e-06
1.22305e-05
1.22297e-05
6.7343e-07
1.22175e-05
8.74732e-06
1.22296e-05
1.22385e-05
8.22814e-06
7.74074e-06
6.99681e-06
7.22468e-06
8.0985e-06
6.97278e-06
5.90851e-06
4.60562e-06
8.03533e-06
3.04169e-06
2.55851e-06
2.93695e-06
3.65928e-06
3.6888e-06
8.30574e-06
4.26876e-06
3.06585e-06
6.78309e-06
7.6165e-06
4.05714e-06
5.87393e-06
4.90143e-06
4.87604e-06
9.27192e-06
7.95809e-06
2.84149e-06
7.60152e-06
4.60515e-06
6.54284e-06
2.57083e-06
6.45302e-06
5.79929e-06
1.92748e-06
4.50276e-06
6.31963e-06
6.47277e-06
2.49252e-06
8.36145e-06
2.40944e-06
6.47366e-06
2.62191e-06
2.57595e-06
6.78222e-06
7.17879e-06
2.59935e-06
3.54369e-06
3.57428e-06
7.85627e-06
6.06078e-06
7.74142e-06
6.51608e-06
8.06165e-06
3.69151e-06
5.92165e-06
3.28321e-06
2.00746e-06
6.12287e-06
5.26659e-06
6.94247e-06
3.55687e-06
3.23557e-06
8.61558e-06
5.87193e-06
3.9727e-06
4.44811e-06
3.76434e-06
7.82425e-06
1.80519e-06
3.20668e-06
2.38401e-06
4.72094e-06
6.13231e-06
5.03593e-06
8.26591e-06
4.77857e-06
8.93106e-06
1.19221e-06
4.82149e-06
8.82123e-06
5.05749e-06
2.71523e-06
2.61659e-06
2.63987e-06
8.41395e-06
7.88198e-06
3.63808e-06
8.05208e-06
2.90902e-06
8.66743e-06
3.87428e-06
3.97635e-06
3.39995e-06
2.41687e-06
2.95928e-06
2.51509e-06
4.03701e-06
2.91615e-06
6.37773e-06
2.67354e-06
1.59034e-06
3.46823e-06
7.20206e-06
8.57319e-06
3.35737e-06
1.30424e-06
3.39041e-06
7.31444e-06
6.37824e-06
6.8126e-06
4.16942e-06
5.11457e-06
6.65148e-06
1.7368e-06
3.71414e-06
4.35701e-06
4.67163e-06
6.4755e-06
2.97615e-06
4.19889e-06
2.1537e-06
2.42721e-06
6.71797e-06
4.41714e-06
2.10239e-06
1.39564e-06
7.26586e-06
6.59274e-06
6.55259e-06
1.62243e-06
4.79596e-06
1.86713e-06
6.95454e-06
3.78933e-06
7.72137e-06
1.57068e-06
6.89758e-06
2.98036e-06
7.07114e-06
6.16302e-06
7.33076e-06
6.25579e-06
6.57274e-06
6.42813e-06
2.56866e-06
5.04298e-06
3.52037e-06
8.7946e-06
2.35314e-06
6.64397e-06
2.69836e-06
6.50166e-06
4.91745e-06
3.01822e-06
6.01366e-06
2.6619e-06
5.10605e-06
4.716e-06
4.66526e-06
6.02909e-06
4.33436e-06
3.58502e-06
1.95622e-06
3.28621e-06
6.05768e-06
7.46778e-06
4.7969e-06
4.5452e-06
6.59915e-06
1.72722e-06
6.39025e-06
2.99231e-06
8.87654e-06
6.97059e-06
1.03181e-05
1.18478e-05
1.45349e-06
7.34245e-06
3.52857e-06
6.3167e-06
6.8907e-06
1.25738e-05
8.20411e-06
6.72956e-06
2.28675e-06
3.76204e-06
5.1082e-06
9.6188e-06
1.01555e-05
7.72912e-06
3.55888e-06
3.38004e-06
5.07531e-06
2.04823e-06
3.33085e-06
3.35785e-06
3.73488e-06
3.20469e-06
7.41521e-06
7.50899e-06
9.69281e-06
8.47439e-06
1.61146e-06
8.15649e-06
2.30315e-06
7.72886e-06
5.76276e-06
7.21469e-06
6.67684e-06
7.27842e-06
2.28043e-06
3.06718e-06
3.00605e-06
4.0421e-06
8.16751e-06
3.30179e-06
2.23656e-06
9.64327e-06
6.35581e-06
4.4974e-06
2.32509e-06
2.343e-06
4.58171e-06
4.59071e-06
3.30984e-06
2.71634e-06
7.94439e-06
6.23601e-06
9.15617e-06
2.09437e-06
4.54413e-06
2.42967e-06
4.34478e-06
2.58073e-06
9.15687e-06
4.36508e-06
3.87151e-06
6.67548e-06
4.63822e-06
6.81881e-06
2.83173e-06
1.40405e-06
1.4698e-06
4.9253e-06
7.93925e-06
6.23523e-06
6.71842e-06
2.85619e-06
6.7364e-06
6.32784e-06
4.62127e-06
3.87985e-06
6.51919e-06
6.16247e-06
4.50554e-06
1.74767e-06
3.47797e-06
6.2824e-06
3.27755e-06
4.75622e-06
2.17761e-06
3.44046e-06
7.40491e-06
5.81988e-06
7.20478e-06
3.19023e-06
1.40304e-06
2.82326e-06
4.82374e-06
9.47924e-06
2.37671e-06
3.19993e-06
6.02635e-06
3.53869e-06
6.95954e-06
3.80176e-06
5.98463e-06
3.00901e-06
8.56004e-06
1.62349e-06
2.82309e-06
4.04664e-06
6.87557e-06
4.62753e-06
3.08458e-06