/*--------------------------------*- C++ -*----------------------------------*\
  =========                 |
  \\      /  F ield         | OpenFOAM: The Open Source CFD Toolbox
   \\    /   O peration     | Website:  https://openfoam.org
    \\  /    A nd           | Version:  8
     \\/     M anipulation  |
\*---------------------------------------------------------------------------*/
FoamFile
{
    version     2.0;
    format      ascii;
    class       surfaceScalarField;
    location    "3";
    object      phi;
}
// * * * * * * * * * * * * * * * * * * * * * * * * * * * * * * * * * * * * * //

dimensions      [0 3 -1 0 0 0 0];

internalField   nonuniform List<scalar> 
9048
(
6.9114e-09
-6.21355e-09
-3.21554e-09
2.51769e-09
-1.56404e-09
-1.34966e-09
1.7276e-09
1.1861e-09
8.53022e-09
-2.31785e-09
-6.62465e-09
4.1228e-10
-2.27574e-09
5.09283e-09
1.23456e-09
-4.05166e-09
-4.68663e-09
-3.24529e-09
2.01102e-09
5.92089e-09
3.04621e-09
-2.06583e-09
6.29205e-09
-7.27242e-09
-2.53213e-09
1.90348e-09
1.96012e-09
-1.33147e-09
3.34427e-10
-2.89174e-10
-6.27149e-11
1.74616e-11
4.88521e-09
-3.76174e-09
3.60329e-09
-4.72676e-09
7.65125e-09
-3.53935e-09
-6.9427e-09
2.8308e-09
1.42829e-09
-5.50688e-09
4.07348e-09
5.09764e-12
5.64284e-09
-4.76272e-09
-2.44229e-09
1.56217e-09
-5.58104e-09
2.09624e-09
5.1275e-09
-1.64271e-09
4.78809e-09
4.27981e-09
-2.72534e-09
-6.34256e-09
6.65734e-09
-5.94925e-09
-2.79385e-09
2.08576e-09
-6.40786e-09
4.86383e-09
2.07859e-09
-5.34553e-10
-8.13204e-09
6.15449e-09
2.61021e-09
-6.32658e-10
7.93451e-09
-6.33189e-09
-2.71424e-09
1.11161e-09
7.81938e-09
-6.82582e-09
-3.23183e-09
2.23827e-09
6.13311e-09
-5.34719e-09
-2.59514e-09
1.80922e-09
-6.00102e-09
5.35612e-09
2.39147e-09
-1.74657e-09
-5.29392e-09
4.80626e-09
2.15607e-09
-1.66841e-09
5.42741e-09
-4.7743e-09
-2.21589e-09
1.56278e-09
6.27435e-09
-5.69667e-09
-2.93038e-09
2.3527e-09
-5.71596e-09
5.23056e-09
2.45413e-09
-1.96874e-09
-7.33139e-09
6.9643e-09
3.30501e-09
-2.93792e-09
5.27732e-09
-4.91537e-09
-2.42062e-09
2.05867e-09
5.36612e-09
-5.00017e-09
-2.52577e-09
2.15983e-09
5.50304e-09
-5.12613e-09
-2.59434e-09
2.21744e-09
6.26972e-09
-5.05952e-09
-2.10033e-09
8.90133e-10
7.06105e-09
-5.6908e-09
-2.49902e-09
1.12877e-09
5.71109e-09
-5.20872e-09
-2.61141e-09
2.10904e-09
-5.35849e-09
4.8932e-09
2.33756e-09
-1.87227e-09
6.42822e-09
-5.77931e-09
-2.85915e-09
2.21024e-09
7.54837e-09
-6.9649e-09
-3.62402e-09
3.04054e-09
6.69051e-09
-5.38759e-09
-2.28444e-09
9.81515e-10
6.40382e-09
-5.15927e-09
-2.1865e-09
9.41952e-10
6.52211e-09
-5.2538e-09
-2.22618e-09
9.57873e-10
-5.75492e-09
5.58484e-09
1.85738e-09
-1.68729e-09
-5.20202e-09
2.32518e-09
4.79514e-09
-1.9183e-09
-4.04343e-09
3.64529e-09
-3.44116e-09
3.8393e-09
7.46492e-09
-7.63626e-09
2.67412e-09
-2.50278e-09
2.98389e-09
-3.19168e-09
4.94893e-09
-4.74114e-09
2.71071e-09
-2.95649e-09
4.50494e-09
-4.25916e-09
2.64871e-09
-2.88902e-09
4.41574e-09
-4.17543e-09
-3.8356e-09
-4.27167e-09
4.06384e-09
3.20963e-09
-3.54841e-09
5.31503e-09
-4.97624e-09
2.71002e-09
-2.93113e-09
4.39063e-09
-4.16952e-09
3.03552e-09
-3.22404e-09
4.96531e-09
-4.77679e-09
-3.07125e-09
2.75166e-09
5.04009e-09
-4.72051e-09
-1.66396e-09
1.59158e-09
-5.46247e-09
5.53485e-09
1.46462e-09
-1.70534e-09
-5.2964e-09
5.53713e-09
-8.02579e-09
2.96598e-09
-2.1798e-09
7.23961e-09
3.36457e-09
-3.31108e-09
-4.56124e-09
4.50774e-09
-2.86444e-09
3.26313e-09
3.13948e-09
-3.53817e-09
3.47877e-09
3.55524e-09
-3.36795e-09
-3.66606e-09
5.15193e-09
-6.47758e-09
2.46251e-10
1.0794e-09
-3.52327e-10
3.36871e-10
1.74539e-12
1.37107e-11
-3.99277e-09
-4.23653e-09
3.95616e-09
4.27314e-09
3.92636e-09
-5.05516e-09
-5.44244e-09
6.57124e-09
4.29993e-09
3.26374e-09
-4.27425e-09
-3.28942e-09
3.65609e-09
3.70364e-09
-3.84866e-09
-3.51108e-09
3.0239e-09
-3.81201e-09
-4.1615e-09
4.9496e-09
4.40446e-09
4.53393e-09
-4.67197e-09
-4.26642e-09
-2.28422e-09
2.32162e-09
3.5863e-09
-3.6237e-09
-4.71971e-09
-4.40585e-09
3.78949e-09
5.33606e-09
5.56435e-09
2.42405e-09
-2.40932e-09
-5.57908e-09
4.80565e-09
4.94101e-09
-4.24084e-09
-5.50583e-09
3.4628e-09
-4.46429e-09
-4.71028e-09
5.71178e-09
-2.35828e-09
2.86749e-09
4.27888e-09
-2.19273e-09
2.26415e-09
2.4625e-09
-2.53392e-09
1.13557e-09
1.82505e-09
-1.58214e-09
-1.37849e-09
-1.01943e-09
6.17951e-09
2.75416e-09
-7.91424e-09
-4.14784e-09
-3.59575e-09
3.20514e-09
4.53845e-09
3.84484e-09
3.69512e-09
-3.96191e-09
-3.57804e-09
4.88433e-09
4.70363e-09
-5.01849e-09
-4.56947e-09
2.55313e-09
-1.1772e-09
7.25374e-10
-2.1013e-09
-4.90547e-09
4.19532e-09
4.35544e-09
4.73967e-09
-4.86556e-09
3.12608e-09
-3.0002e-09
4.21183e-09
-4.29237e-09
2.75416e-09
-2.67362e-09
3.77972e-09
6.4986e-09
-4.2818e-09
-5.99652e-09
2.03233e-09
5.99056e-09
-2.6262e-09
-5.39669e-09
6.82013e-09
-4.59494e-09
5.22966e-09
-7.45485e-09
-5.31427e-09
-3.86998e-09
4.25748e-09
4.92677e-09
4.0975e-09
-4.56853e-09
-4.54e-09
-3.83541e-09
4.44932e-09
3.92609e-09
7.38246e-09
-4.84847e-09
-3.99076e-09
1.45676e-09
-4.79529e-09
3.30602e-09
-4.20467e-09
5.69394e-09
-4.29718e-09
-3.12081e-09
3.40436e-09
4.01363e-09
-4.48868e-09
-3.25813e-09
3.56075e-09
4.18606e-09
-4.37625e-09
-3.17738e-09
3.46878e-09
4.08485e-09
-4.21865e-09
-3.06645e-09
3.34167e-09
3.94343e-09
-9.32318e-12
-8.5764e-12
-4.52682e-09
-2.55974e-10
-2.56585e-10
5.03938e-09
3.54631e-09
-3.70322e-09
2.33456e-09
-2.17765e-09
3.99528e-09
1.83283e-09
-7.64886e-10
-5.06323e-09
-3.35214e-10
-7.16295e-09
6.79986e-09
6.983e-10
-4.43473e-09
4.01201e-09
4.21119e-09
-3.78846e-09
-1.28243e-09
6.16099e-09
2.73372e-10
-4.2313e-09
4.76295e-09
3.82329e-09
-4.35493e-09
-5.2812e-09
3.57771e-09
-4.38482e-09
6.08831e-09
-4.16258e-09
2.89882e-09
-3.79741e-09
5.06117e-09
4.36397e-09
8.33738e-09
-8.63037e-10
-1.18383e-08
-6.39821e-09
4.45037e-09
-5.1581e-09
7.10595e-09
6.79001e-10
3.39412e-09
-1.51999e-09
-3.60725e-10
2.45558e-11
3.37333e-10
-1.16377e-12
-4.11478e-09
-4.20657e-09
3.70332e-09
4.61803e-09
-4.68204e-09
-1.52551e-09
1.91258e-09
4.29497e-09
-4.08348e-09
5.9455e-09
2.94364e-09
-2.72275e-09
3.98297e-09
-4.57129e-09
4.57321e-09
5.2518e-09
-4.9398e-09
3.90965e-10
-3.51439e-10
-3.05663e-12
-3.64698e-11
-2.80839e-09
2.36456e-09
7.84712e-10
-3.40881e-10
5.28996e-09
4.99895e-09
-4.1679e-09
-6.12102e-09
2.73321e-09
-3.22643e-09
-1.13337e-09
1.62659e-09
2.58167e-09
-2.335e-09
4.61136e-09
-4.85803e-09
-2.99791e-09
3.1716e-09
3.88933e-09
-4.06302e-09
4.67967e-12
-3.76915e-10
1.15108e-11
-4.19623e-09
-5.28367e-12
4.40087e-09
-1.99355e-10
5.90585e-09
-3.96635e-09
4.08308e-09
-6.02258e-09
-5.14955e-09
5.18093e-09
2.12553e-09
-2.15691e-09
5.39353e-09
-4.08026e-09
4.67025e-09
-5.98352e-09
-4.32172e-09
1.13466e-09
-3.51168e-10
3.53822e-09
-4.77775e-09
4.4302e-09
-4.59776e-09
4.94531e-09
-5.94712e-09
4.14001e-09
-4.85912e-09
6.66623e-09
6.25419e-09
-5.62936e-09
6.34959e-09
-6.97441e-09
-5.11938e-09
4.65596e-09
-4.8796e-09
5.34302e-09
-6.66362e-09
4.62055e-09
-4.92224e-09
6.96531e-09
5.35684e-09
-4.30682e-09
5.38023e-09
-6.43025e-09
4.69454e-09
-4.30664e-09
4.40102e-09
-4.78893e-09
-5.21646e-09
4.53572e-09
-4.88135e-09
5.56209e-09
4.85054e-09
-4.28305e-09
4.46206e-09
-5.02956e-09
5.80976e-09
-4.54099e-09
5.56739e-09
-6.83616e-09
4.78868e-09
-3.9947e-09
5.12305e-09
-5.91703e-09
4.74053e-09
-4.38094e-09
4.35111e-09
-4.7107e-09
1.57689e-09
-3.80471e-09
3.73239e-09
-1.50457e-09
5.65027e-09
-3.99478e-09
3.49209e-09
-5.14758e-09
5.07036e-09
4.94889e-09
-4.5755e-09
-5.44375e-09
-6.99622e-10
1.22373e-09
-3.25365e-09
2.72955e-09
5.37094e-09
5.05004e-09
-4.52156e-09
-5.89943e-09
-4.68827e-09
-4.55614e-09
3.72968e-09
5.51473e-09
-4.5995e-09
-4.47075e-09
3.74454e-09
5.32571e-09
-4.39716e-09
-3.14901e-09
4.32284e-09
3.22332e-09
4.16597e-09
3.28932e-09
-4.2552e-09
-3.20008e-09
4.8954e-09
4.42769e-09
-4.42428e-09
-4.8988e-09
4.76392e-09
4.31488e-09
-4.2876e-09
-4.7912e-09
4.94692e-09
4.62847e-09
-4.34142e-09
-5.23397e-09
5.16825e-09
4.83296e-09
-4.54841e-09
-5.45281e-09
5.04179e-09
4.7104e-09
-4.44258e-09
-5.30961e-09
4.18535e-09
-4.6024e-09
-2.31602e-09
2.73306e-09
-5.35543e-09
4.21089e-09
-3.55928e-09
4.70382e-09
7.4785e-09
-4.93675e-10
-3.89072e-12
-6.98094e-09
-2.91708e-09
2.99169e-09
3.92639e-09
-4.00101e-09
5.58415e-09
-4.9002e-09
-9.93787e-10
3.0983e-10
3.75363e-09
1.25583e-09
-3.58025e-09
-1.4292e-09
6.64427e-09
-4.45606e-09
4.62863e-09
-6.81684e-09
-4.19594e-09
2.06801e-09
-8.96657e-10
3.02459e-09
5.88119e-09
-7.6597e-09
7.22978e-09
-5.45127e-09
-1.41816e-09
-2.2663e-09
2.43352e-09
1.25093e-09
2.50897e-09
-4.85994e-09
-2.16628e-09
4.51725e-09
-4.62065e-09
4.13528e-09
-4.73679e-09
5.22216e-09
3.98091e-11
4.22616e-11
-8.20707e-11
-2.59071e-09
-3.42064e-10
2.3795e-10
2.69482e-09
-1.59298e-09
2.81636e-09
-6.49592e-09
5.27254e-09
3.05754e-10
8.98909e-11
-7.45197e-09
-4.95942e-09
8.74735e-09
3.66404e-09
-8.74723e-10
1.60395e-09
1.06485e-09
-1.79408e-09
1.2549e-09
1.28665e-09
-1.40597e-09
-8.9034e-11
9.54437e-11
-2.63575e-10
2.57165e-10
-3.74695e-09
3.32325e-09
4.49196e-09
-4.06826e-09
-3.03334e-09
-8.77383e-10
3.20411e-09
7.06617e-10
-1.84864e-09
3.22404e-09
-7.32987e-09
5.95447e-09
5.26962e-10
4.42412e-09
-4.68801e-09
-2.63077e-10
3.00225e-09
-3.31938e-09
4.04591e-09
-3.72878e-09
4.67257e-09
-1.01832e-09
-3.55651e-09
-9.77339e-11
5.28549e-09
6.88923e-10
-1.94012e-09
-4.03429e-09
2.48546e-09
-1.52868e-09
2.58687e-09
-3.54366e-09
4.91499e-09
-5.16083e-09
5.8181e-09
-5.57226e-09
-3.83079e-10
-5.02454e-11
4.06338e-10
2.69861e-11
5.50118e-09
-5.21715e-09
-4.87499e-09
4.59095e-09
-6.21452e-09
-3.90545e-09
4.97042e-09
-2.24803e-09
-5.59198e-09
4.94021e-09
2.8998e-09
-1.56626e-09
2.53417e-09
-5.4818e-09
4.51389e-09
3.98174e-09
-4.03211e-09
-4.42783e-09
4.47821e-09
1.92655e-09
-9.38032e-10
-1.86811e-09
8.79591e-10
2.02851e-09
4.03137e-09
-2.0646e-09
3.64643e-09
-5.56277e-10
-4.20602e-09
1.11587e-09
-1.38816e-09
-2.52162e-09
1.20652e-09
2.70327e-09
-1.81986e-09
5.09995e-09
-4.94406e-09
-5.558e-10
1.02391e-09
-3.00025e-09
2.78329e-09
-5.02319e-09
4.74887e-09
3.21892e-09
-3.26338e-09
-5.31098e-09
4.45924e-09
4.61585e-09
-3.86207e-09
-5.21302e-09
6.64886e-10
4.72822e-09
-5.25126e-09
-1.41846e-10
2.74323e-10
4.85259e-11
-2.09656e-10
-1.13193e-10
-2.55917e-09
-4.07338e-09
2.79493e-09
3.83762e-09
4.84824e-09
-3.29142e-09
-4.27958e-09
-2.83826e-09
1.26404e-09
-4.97577e-09
6.54998e-09
-3.16714e-09
3.23886e-09
2.1952e-09
-2.26691e-09
4.27379e-09
-3.28086e-09
-7.57391e-09
6.58098e-09
8.3134e-10
-5.57431e-10
9.80988e-10
-5.32624e-09
6.14587e-09
-7.48499e-09
6.66535e-09
-1.22217e-10
4.16698e-11
-2.70892e-10
-4.39876e-09
4.5894e-09
-5.68552e-09
5.49488e-09
-3.50978e-09
3.98718e-09
-5.26888e-09
4.79148e-09
-3.52746e-09
3.11328e-09
-4.489e-09
4.90317e-09
3.47458e-09
-3.71059e-09
4.74587e-09
-4.50986e-09
-7.94345e-09
4.26188e-10
5.72095e-09
1.79631e-09
-3.17912e-09
-1.23993e-09
1.06586e-09
3.35319e-09
-5.58174e-10
7.67028e-10
-6.23392e-09
6.02506e-09
-2.57814e-09
-1.11595e-10
9.90194e-11
5.31805e-09
-2.5639e-09
-2.75416e-09
-1.82245e-09
8.95749e-09
-8.15447e-09
6.03462e-09
-2.90854e-09
-3.12608e-09
-1.60253e-09
-4.99678e-09
1.91727e-09
-3.29256e-09
1.449e-09
-2.0486e-09
3.89215e-09
-8.10937e-10
2.91559e-09
-2.80427e-09
4.60303e-09
-2.26847e-09
-2.33456e-09
3.32633e-10
9.59545e-11
4.24398e-09
-2.46895e-09
-1.4777e-09
2.55849e-09
-5.37987e-09
6.08276e-09
-6.86294e-09
6.16005e-09
-2.52329e-09
2.64144e-09
3.72731e-09
-3.84545e-09
-2.493e-10
3.14087e-10
1.38134e-10
-2.02922e-10
5.50244e-09
-6.11207e-09
1.03163e-09
-4.22003e-10
4.29985e-09
-4.24147e-09
3.15766e-09
-3.33242e-09
4.41431e-09
-4.23956e-09
-5.55175e-10
2.07475e-09
4.06977e-10
-2.69618e-09
-5.68151e-09
5.26386e-09
3.11382e-09
-5.18131e-09
5.12858e-09
5.00764e-09
-4.95491e-09
-3.78134e-09
-5.28198e-09
4.09134e-09
4.97198e-09
1.46647e-10
-1.77778e-10
3.67186e-10
-3.36054e-10
5.38826e-09
-4.36593e-09
5.38204e-09
-6.40438e-09
-4.48214e-09
-3.03776e-09
4.29883e-09
3.22107e-09
-5.21276e-09
4.61211e-09
-5.44563e-09
6.04628e-09
-4.36887e-09
5.28947e-09
-5.86396e-09
4.94336e-09
-1.05567e-09
-3.0732e-09
3.19692e-09
9.31956e-10
4.12024e-09
4.41967e-09
-3.64176e-09
-4.89815e-09
3.20881e-09
-3.48988e-09
4.67665e-09
-4.39558e-09
-2.34556e-10
-2.35485e-10
3.70377e-09
-3.23373e-09
-2.72686e-09
4.20796e-09
2.3834e-09
-3.86451e-09
-4.1496e-09
-3.64354e-10
4.37197e-09
1.41978e-10
2.22166e-09
-2.64519e-09
8.14642e-11
2.77019e-09
-4.08191e-09
-2.33229e-09
3.64401e-09
-9.99444e-09
5.16652e-09
-4.89524e-09
9.72316e-09
-4.36349e-09
-5.64922e-09
4.83043e-09
5.18227e-09
6.24861e-09
6.38737e-09
-7.16095e-09
-5.47503e-09
3.42826e-09
4.9934e-09
-3.31257e-09
-5.10909e-09
-3.08368e-09
-1.15112e-09
3.62162e-09
3.89122e-09
-3.22882e-09
-4.28402e-09
-3.22683e-09
-4.73047e-09
3.2597e-09
4.6976e-09
3.41615e-09
4.44263e-09
-3.74692e-09
-4.11185e-09
4.47046e-09
5.15844e-09
-5.09378e-09
-4.53511e-09
3.74159e-09
5.02816e-09
-3.93573e-09
-4.83402e-09
-3.93271e-09
-5.52658e-09
4.26845e-09
5.19084e-09
-3.11789e-09
-3.7539e-09
3.67734e-09
3.19445e-09
3.36128e-09
4.76428e-09
-3.29525e-09
-4.83031e-09
-3.19654e-09
-3.85027e-09
3.7713e-09
3.2755e-09
-2.93841e-09
-3.90943e-09
2.33605e-09
4.51179e-09
-4.4612e-09
-6.05027e-09
4.99692e-09
5.51455e-09
4.78047e-09
-4.22326e-09
-5.86007e-09
5.30285e-09
-2.43361e-09
-1.39148e-09
2.59755e-09
1.22754e-09
-2.06434e-10
2.16633e-09
-2.29696e-09
3.37057e-10
3.80428e-09
-3.16661e-09
7.01386e-09
-7.65153e-09
-4.80498e-09
-3.68387e-09
4.89429e-09
3.59456e-09
3.32461e-09
-3.41949e-09
4.9765e-09
-4.88161e-09
3.40326e-09
-3.16504e-09
4.88972e-09
-5.12794e-09
-3.24109e-09
3.83517e-09
-5.63361e-09
5.03953e-09
-4.25996e-09
3.70717e-09
-4.52324e-09
5.07603e-09
1.35315e-09
-2.63274e-09
2.50331e-09
-6.41037e-09
6.02006e-09
-6.73827e-09
7.12858e-09
-4.40592e-09
-1.98905e-09
4.57511e-09
7.23136e-11
1.45169e-10
-1.47904e-10
-6.95782e-11
5.76265e-09
-5.31409e-09
6.40527e-09
-6.85383e-09
-5.10419e-09
3.50829e-09
-4.53072e-09
6.12662e-09
8.11857e-09
4.94978e-09
-6.81974e-09
3.63969e-09
-4.07343e-09
5.57553e-09
-5.14179e-09
-1.09567e-08
5.90557e-09
1.33031e-09
-5.50223e-09
-1.73365e-09
-4.63436e-09
6.27773e-09
3.73026e-09
-5.37362e-09
5.60757e-09
-7.54704e-09
6.40993e-09
4.7089e-09
-6.07329e-09
5.10598e-09
-4.11407e-09
5.55507e-09
-4.63753e-09
-4.01493e-09
5.41732e-09
-4.52028e-09
4.52149e-09
-5.95955e-09
4.79934e-09
-4.11057e-09
5.65523e-09
-4.48307e-09
-5.10814e-09
6.77192e-09
-5.59649e-09
-5.74011e-09
7.71386e-09
-6.43495e-09
4.41115e-09
-5.80604e-09
4.81103e-09
-5.68611e-09
7.68211e-09
4.59755e-09
-6.59354e-09
-4.91529e-09
6.45389e-09
-5.31994e-09
4.65851e-09
-5.80527e-09
5.267e-09
-4.47375e-09
5.93978e-09
-4.69286e-09
4.10613e-09
-5.11808e-09
4.63357e-09
-3.13637e-10
-2.17534e-09
-8.9156e-11
-5.61582e-09
7.35442e-09
-6.10209e-09
-6.84558e-09
-8.18426e-10
6.65998e-09
1.00403e-09
-4.52554e-09
-5.26887e-09
3.85043e-09
5.94398e-09
3.95265e-09
4.21301e-09
-5.16341e-09
6.93196e-10
-7.37828e-10
4.29217e-10
-3.84585e-10
4.67975e-09
2.24641e-09
-2.37255e-09
-4.55361e-09
4.41594e-09
-7.77029e-09
7.9923e-09
-4.63796e-09
4.98953e-09
-6.27693e-09
4.71565e-09
2.39705e-09
-3.15754e-09
-3.38635e-09
4.14684e-09
-2.69473e-09
5.94401e-09
-5.26825e-09
2.01897e-09
-5.33592e-09
1.71329e-09
-3.82405e-09
3.48041e-09
-7.10833e-09
-5.88975e-09
-5.49319e-09
4.39799e-09
6.98496e-09
-4.57255e-09
4.30986e-09
5.07239e-09
-4.8097e-09
2.11163e-09
4.34935e-09
-2.16113e-09
-9.51967e-10
-5.06585e-10
-6.76568e-09
8.22423e-09
3.91204e-09
6.68278e-09
-5.30485e-09
3.1659e-09
-2.8584e-09
3.86566e-09
-4.17317e-09
6.10755e-09
4.37893e-10
-5.89898e-09
-6.46464e-10
-6.52799e-09
6.42658e-09
1.51758e-10
-5.03441e-11
-4.93799e-09
-6.27447e-09
6.03115e-09
-7.25715e-09
-8.82093e-10
6.8315e-09
1.30774e-09
-2.4747e-09
2.1633e-09
-6.26637e-10
1.92816e-09
6.25488e-09
3.47172e-10
-6.12711e-09
-3.97422e-09
5.71665e-09
4.38468e-09
5.32591e-09
4.76083e-09
-4.4025e-09
-5.68425e-09
-2.23013e-09
2.02945e-09
3.84096e-09
-3.64029e-09
-4.77732e-09
4.78047e-09
3.97859e-09
3.82251e-09
6.59005e-09
-5.01903e-09
2.14065e-09
7.0352e-09
-1.04062e-09
-8.13523e-09
-1.49181e-10
1.20651e-09
5.57093e-09
-4.49188e-09
3.49416e-09
-5.26055e-09
6.36596e-10
6.51022e-09
-1.88627e-09
5.21164e-09
5.59392e-09
-5.89057e-09
-4.82045e-09
-6.06613e-09
4.60316e-09
6.28341e-09
3.43932e-09
3.52413e-09
-3.40201e-09
-3.56145e-09
4.43379e-09
5.19616e-09
-4.07281e-09
-5.55714e-09
-6.11766e-09
6.80535e-09
6.80193e-09
-7.48963e-09
-6.52299e-09
2.01572e-09
3.98912e-09
5.18147e-10
-2.87954e-09
7.43728e-10
-8.97525e-10
-6.04959e-09
7.63468e-09
4.93215e-09
-6.51724e-09
4.44781e-09
7.32613e-09
-6.27275e-09
-3.14242e-09
-5.83907e-09
4.20374e-09
-3.89164e-09
-7.34445e-09
5.28897e-09
4.29868e-09
7.39378e-09
-5.8827e-09
4.56794e-09
7.70721e-09
-6.02097e-09
-3.57005e-09
-6.07968e-09
4.53035e-09
3.75162e-09
6.12374e-09
-5.08668e-09
2.63679e-09
3.27598e-09
-3.08361e-09
-2.82916e-09
-4.87316e-09
-8.08088e-09
6.29042e-09
-3.77899e-09
-6.06795e-09
4.63047e-09
3.39176e-09
5.56325e-09
-4.26046e-09
4.24748e-09
6.66761e-09
-5.55825e-09
3.30772e-09
5.83328e-09
-4.29046e-09
-5.19111e-09
-6.35825e-10
9.43108e-10
4.88383e-09
1.24604e-09
4.90464e-09
6.60666e-09
-9.69508e-10
-5.45045e-09
-1.86704e-10
5.36312e-09
-1.04469e-10
-5.41278e-09
1.54134e-10
6.22828e-09
-9.73233e-11
-6.27401e-09
1.43054e-10
6.92934e-09
-1.27177e-10
-7.66181e-09
8.59641e-10
-5.90034e-09
3.95748e-09
1.34967e-09
5.93193e-10
4.88258e-09
-5.43762e-09
2.07158e-10
3.47876e-10
-6.33715e-09
6.43392e-09
-9.50602e-11
-1.70249e-12
-6.6567e-09
6.5738e-09
2.47001e-11
5.81966e-11
-6.31051e-09
6.07798e-09
-1.60347e-10
3.92876e-10
-7.53378e-09
6.64525e-09
1.87828e-09
-9.89743e-10
-7.95895e-09
8.02083e-09
-1.26271e-10
6.43879e-11
-5.85927e-09
5.91446e-09
-1.73498e-10
1.183e-10
-5.06272e-09
5.92392e-09
2.24042e-11
-8.83612e-10
-5.58462e-09
4.67365e-09
1.2956e-09
-3.84632e-10
-5.68341e-09
4.62818e-09
-4.26141e-10
1.48137e-09
-5.19271e-09
6.07582e-09
2.07426e-11
-9.03853e-10
-7.60185e-09
7.38382e-09
-6.76674e-11
2.85704e-10
-4.95483e-09
5.73157e-09
3.05718e-11
-8.07313e-10
-5.83289e-09
5.86978e-09
-4.99145e-11
1.30251e-11
-5.96152e-09
6.04418e-09
-4.70322e-11
-3.56246e-11
-5.80244e-09
5.8071e-09
-9.41633e-11
8.94994e-11
-7.4268e-09
7.56403e-09
-8.65135e-11
-5.0708e-11
6.93577e-09
-8.35183e-09
-5.3562e-11
1.46962e-09
8.26087e-09
-7.99832e-09
2.03128e-10
-4.65685e-10
-4.20899e-09
-1.65843e-09
4.47051e-09
1.39691e-09
6.08206e-09
-6.56796e-09
-7.22753e-11
5.7281e-09
1.45099e-09
-5.58752e-09
-4.52935e-09
9.98004e-10
5.84816e-09
-6.12771e-09
-4.88128e-09
-7.03592e-09
6.64636e-09
4.02926e-09
1.93676e-09
4.68668e-09
-4.15429e-09
-2.46914e-09
-1.58466e-09
-2.26711e-09
-5.53056e-09
6.81604e-09
-6.66535e-09
4.83328e-09
-5.8181e-09
6.19646e-09
-1.96105e-09
5.47788e-09
1.16293e-09
-3.78662e-09
5.58194e-09
-4.95476e-09
3.15944e-09
1.91673e-10
-2.02814e-11
-1.71391e-10
3.72841e-09
6.01261e-09
-4.67067e-09
4.05708e-09
6.6294e-09
-5.31554e-09
-3.66425e-09
-5.73042e-09
4.7064e-09
-6.23819e-09
8.00486e-09
-6.72609e-09
2.50236e-10
-4.07753e-10
7.63602e-09
-6.37573e-09
6.63173e-09
-4.04262e-09
4.65397e-09
-4.75753e-09
-1.49898e-09
-5.57996e-09
-3.60249e-09
4.58295e-09
-3.00762e-09
-5.42888e-09
4.03935e-09
2.93406e-09
5.29016e-09
-4.05826e-09
3.57712e-09
5.89153e-09
-4.57325e-09
3.48596e-09
5.73948e-09
-4.46152e-09
-2.03526e-09
5.35157e-09
-5.00925e-09
-4.86454e-09
4.01942e-09
5.85437e-09
1.51966e-09
-2.38742e-09
-1.60118e-09
-1.8345e-10
-1.05926e-10
5.94383e-11
2.29938e-10
-3.51569e-09
3.59649e-09
5.56947e-09
4.89794e-09
4.39031e-09
-5.55252e-09
-3.73573e-09
6.32181e-09
-7.16351e-09
-2.8406e-09
3.68229e-09
1.37323e-09
-6.1917e-09
4.96747e-10
-3.95322e-10
3.67991e-11
-3.01398e-09
-3.62768e-09
2.89472e-09
-4.68556e-09
-9.31223e-10
5.06862e-09
5.48158e-10
6.4413e-09
-6.38927e-10
-2.99934e-10
5.67614e-09
-4.58353e-09
5.73207e-09
-6.82468e-09
5.02772e-09
-3.67717e-09
4.35176e-09
-5.70231e-09
3.57869e-09
6.2396e-09
-4.65003e-09
3.42942e-09
5.97763e-09
-4.46013e-09
3.48723e-09
6.08482e-09
-4.53026e-09
-1.94786e-09
2.79179e-09
-4.01108e-09
-4.38138e-09
-3.8414e-09
4.87715e-09
3.34563e-09
4.70649e-09
5.18244e-09
-3.98188e-09
-5.90706e-09
2.45921e-09
-6.31461e-09
-2.18494e-09
6.04033e-09
-1.08111e-09
4.20957e-09
-4.59362e-09
3.26079e-09
-3.74738e-09
5.0802e-09
-2.50031e-10
4.3098e-09
1.35857e-09
-4.1876e-09
-2.96545e-09
-9.85138e-10
4.33708e-09
1.63454e-09
-1.55025e-09
-4.42137e-09
-6.23091e-09
-4.13979e-09
5.68491e-09
4.68579e-09
-4.791e-09
4.18554e-09
-4.30752e-09
4.91298e-09
6.73558e-09
2.44524e-09
-3.34808e-09
-5.83274e-09
-7.58464e-09
6.86691e-09
-2.00072e-09
2.71845e-09
-5.39442e-09
7.19357e-09
-5.31483e-09
4.10839e-10
-2.05625e-09
6.08852e-09
2.91613e-09
-6.51711e-09
-2.48754e-09
-7.33752e-09
3.76739e-09
-3.43717e-09
7.0073e-09
-5.15513e-09
-2.5814e-10
2.22157e-10
5.13091e-09
1.98103e-09
-3.5423e-09
-3.56964e-09
-5.12014e-09
6.22827e-09
-3.98127e-09
2.87314e-09
-5.25038e-09
4.47383e-09
4.98744e-09
3.22039e-09
-7.40447e-09
6.32473e-09
-2.44064e-09
1.55627e-09
-1.79024e-09
2.67461e-09
-5.61051e-09
8.91257e-10
5.00342e-09
-2.84172e-10
-1.74967e-09
8.26322e-09
-8.33601e-09
-3.65373e-09
-3.51083e-09
4.60538e-09
-2.83912e-09
4.27774e-09
-5.65728e-09
-2.94397e-09
4.43835e-09
-5.87063e-09
-3.01899e-09
4.55543e-09
-6.02511e-09
-2.89115e-09
4.35623e-09
-5.76226e-09
-2.39344e-09
-4.83637e-09
2.86591e-09
-3.42033e-09
5.39079e-09
-4.42664e-09
6.07434e-09
4.44082e-09
-5.40921e-09
-7.22623e-09
8.51457e-09
4.12088e-09
-9.94554e-11
-6.21095e-10
-4.56137e-12
7.25112e-10
-4.56426e-09
6.08444e-09
-7.63784e-09
5.30087e-09
1.16588e-09
-5.81413e-09
-6.52621e-10
-6.74174e-09
-1.60592e-09
7.29978e-09
1.04788e-09
-6.91771e-09
-1.00585e-09
-3.53897e-11
-5.4639e-09
-9.51899e-10
5.56532e-10
-5.38358e-09
-1.19705e-09
8.97215e-10
-4.17546e-09
-7.89032e-10
-9.82262e-11
-4.28043e-09
-8.1277e-10
-9.9505e-11
5.53156e-09
1.36128e-09
-9.87269e-10
5.71959e-09
1.08399e-09
1.32186e-10
4.22275e-09
4.89607e-09
-4.90797e-09
-4.21085e-09
5.05252e-09
-5.4047e-09
2.34996e-09
-1.99778e-09
-3.13618e-09
-1.39631e-09
4.71514e-10
5.07926e-09
-5.27721e-09
-2.73567e-10
-4.83511e-09
-6.31435e-09
5.93231e-09
-3.15767e-09
5.23758e-09
-6.61991e-09
-1.54628e-10
1.04594e-10
-3.4455e-10
5.23447e-09
4.73197e-10
-3.57576e-11
-7.31194e-11
-6.05083e-10
6.29218e-09
1.24225e-09
6.36538e-10
-5.65106e-09
-8.85815e-10
4.07377e-10
-5.32577e-09
-5.19219e-10
-4.67499e-10
6.02837e-09
8.73046e-10
-1.23012e-10
3.86304e-10
-4.50843e-10
5.90189e-09
6.26931e-10
1.08244e-09
-6.90891e-09
-1.70732e-09
-1.51739e-10
5.70718e-10
5.59442e-11
3.50872e-11
-8.68224e-11
1.9885e-10
6.08938e-11
5.34069e-11
6.97983e-10
-5.32625e-09
-9.56351e-10
-1.0825e-10
-2.18399e-10
-5.24943e-11
9.50776e-12
-2.6416e-10
5.50109e-09
4.94643e-10
-3.69409e-10
5.95147e-09
4.62114e-10
-3.61682e-10
5.7955e-09
4.35967e-10
-3.8232e-10
5.69146e-09
4.97962e-10
-4.87963e-10
7.3215e-09
7.30491e-10
-1.04604e-10
1.36497e-11
7.61537e-10
-7.68789e-09
-1.07196e-09
9.6369e-10
-1.17507e-09
-1.35265e-09
5.94767e-09
-3.17376e-10
1.36437e-09
-6.99467e-09
-4.1661e-09
1.70181e-09
-1.0413e-09
3.5056e-09
-2.625e-09
6.4919e-09
1.71504e-09
-4.03913e-09
5.49361e-09
-5.56926e-09
8.19369e-10
-3.64218e-09
-8.09698e-11
2.90378e-09
-6.48585e-09
-1.5444e-09
4.45603e-10
3.94386e-09
-3.97711e-09
-3.28612e-09
-3.54345e-09
-6.95661e-09
6.85228e-09
3.64779e-09
3.36159e-10
5.48989e-09
-5.12512e-09
-7.00928e-10
-3.44338e-09
-5.94582e-09
2.10758e-09
3.58034e-09
-3.03022e-09
-2.6577e-09
-3.86514e-09
-4.86474e-09
2.49897e-09
-3.56827e-09
5.45027e-09
-7.19627e-09
-1.2342e-09
1.81549e-09
3.61957e-09
-4.20086e-09
-5.29551e-09
-5.85223e-09
6.27275e-09
-2.3939e-09
-7.43168e-09
5.20584e-09
4.61973e-09
9.71066e-10
4.00139e-09
-4.97245e-09
1.19739e-09
3.93259e-09
-5.12998e-09
1.57443e-09
5.40541e-09
-6.97984e-09
-3.51037e-09
3.25422e-09
-4.11727e-09
4.37342e-09
-4.12527e-09
4.35607e-09
-5.39792e-09
5.16712e-09
2.6544e-09
-2.79768e-09
4.81693e-09
4.02907e-09
-3.61916e-09
4.48741e-09
-4.89732e-09
-3.73874e-09
4.92555e-09
5.92268e-11
-3.44411e-09
4.441e-09
2.95576e-09
-2.39841e-09
3.10139e-09
-1.01661e-09
4.56459e-09
-1.52474e-10
-4.01429e-11
-5.75178e-09
5.55824e-09
6.9989e-09
3.45615e-09
5.66805e-09
-4.90145e-09
1.52958e-10
-2.87756e-10
3.81778e-10
-2.4698e-10
7.46671e-10
-6.04183e-09
-8.16907e-10
4.80036e-09
3.03162e-09
-5.04869e-09
-5.90854e-09
-4.49578e-09
5.58853e-09
4.8158e-09
3.64649e-09
-3.68866e-09
6.68742e-09
-6.12254e-09
-1.87382e-09
7.39214e-10
7.22879e-09
-7.35465e-09
-3.67816e-10
-5.68222e-09
3.55183e-09
8.08263e-09
-5.95224e-09
-7.65633e-09
-4.68805e-09
5.93401e-09
7.1198e-09
4.29219e-09
-5.64934e-09
-7.07393e-09
4.99675e-09
5.56926e-09
-5.37298e-09
-3.36392e-09
4.47694e-09
-6.48296e-09
-3.91535e-09
5.29413e-09
4.85264e-10
-2.50187e-09
-3.8181e-10
-5.93781e-09
3.92953e-09
-3.3456e-09
5.35388e-09
5.77489e-09
1.07706e-09
-6.10528e-09
-4.46237e-09
1.36547e-10
-2.15175e-09
6.82138e-09
-5.55839e-09
-5.87581e-09
4.04806e-09
-6.52343e-09
5.33973e-09
5.78184e-09
3.93763e-09
-3.70937e-09
5.64341e-09
-5.87167e-09
-7.03298e-10
-7.42155e-09
8.24963e-09
-1.24783e-10
1.58413e-10
5.53085e-09
7.37319e-10
3.04546e-10
5.30985e-09
4.9315e-10
-6.59642e-09
4.48567e-09
-4.46254e-09
6.57329e-09
3.681e-09
2.2818e-09
-1.44285e-09
-4.51994e-09
3.91832e-09
4.96111e-09
-3.35837e-09
-5.52105e-09
-5.6921e-09
1.28684e-09
-2.028e-09
6.43326e-09
-7.53462e-09
5.1928e-09
1.29935e-09
1.04247e-09
8.22089e-10
3.68077e-09
-6.00864e-09
1.50578e-09
3.94776e-10
1.35369e-09
-1.31501e-09
-4.3346e-10
-6.23306e-09
-6.13393e-10
-3.96088e-10
7.24255e-09
-5.9618e-09
-3.39592e-09
4.55274e-09
-4.20886e-09
4.54788e-09
-5.80225e-09
5.46322e-09
-4.47079e-09
-5.01813e-09
4.96338e-09
4.15983e-09
-3.84357e-09
3.15096e-09
-3.46722e-09
4.69016e-09
-3.97286e-09
4.82291e-09
-5.54021e-09
2.43613e-10
-5.2527e-11
-4.87665e-09
4.4995e-10
-4.19562e-10
-5.26175e-10
4.95787e-10
-3.28703e-09
3.86918e-09
-3.58006e-09
3.56873e-09
-4.01924e-09
6.58784e-09
-6.13733e-09
5.23221e-09
3.81748e-09
-5.17523e-09
-3.87445e-09
-9.30888e-11
3.80176e-10
5.6483e-09
1.56213e-09
-1.86284e-09
-5.34759e-09
5.32045e-09
-5.85722e-09
5.37005e-09
-1.00959e-09
-2.68089e-09
5.38951e-09
-8.06222e-09
1.27242e-08
-1.00515e-08
4.06024e-09
-4.02156e-09
-1.14173e-09
1.10305e-09
3.24985e-09
4.90241e-09
-4.19479e-09
2.1947e-10
8.42511e-11
-7.35414e-09
7.05042e-09
5.12958e-09
-7.06808e-09
5.15889e-09
4.34771e-10
7.82638e-09
-2.08164e-09
-4.12927e-09
4.96384e-09
-5.78932e-09
2.32078e-09
-2.36224e-09
-3.61226e-09
4.86478e-09
1.2688e-09
-5.31148e-09
7.186e-09
3.50261e-10
-7.54015e-09
1.25374e-10
-2.3651e-10
-5.65318e-09
5.39021e-09
1.23404e-09
-5.39232e-09
4.98891e-09
1.6008e-09
-7.38121e-09
6.95257e-09
2.00307e-09
7.24642e-09
-6.13299e-09
5.85772e-09
1.0423e-09
5.04643e-11
-4.74376e-09
7.00219e-09
-8.50702e-09
2.12595e-10
1.29224e-09
-4.06188e-09
3.79353e-09
5.00887e-09
3.97634e-09
-3.72489e-09
-4.57473e-09
4.32328e-09
5.10542e-09
8.15499e-09
-6.45847e-09
-4.11937e-10
-5.04553e-10
3.9985e-10
5.1664e-10
-4.33211e-09
-1.12105e-09
6.64715e-10
4.78844e-09
-2.47692e-10
-6.1284e-12
3.21746e-10
-6.79257e-11
4.07241e-09
-4.96384e-09
4.05086e-09
-1.30167e-09
6.64705e-09
3.02915e-10
3.08373e-09
5.75584e-10
-6.08121e-09
5.37563e-09
6.42518e-09
-3.28871e-09
3.86513e-09
4.95513e-09
4.52589e-09
-4.02743e-09
-4.7789e-09
4.41127e-09
-3.92801e-09
-4.65872e-09
-3.93285e-09
2.94461e-09
-4.47566e-09
3.35368e-09
-5.40925e-09
-4.68616e-09
-2.2574e-09
4.00865e-09
3.54963e-09
2.52788e-09
-5.02469e-09
-4.4209e-09
3.19326e-09
-3.72342e-09
-4.85343e-09
4.39767e-09
-2.69501e-09
-4.61973e-09
6.64403e-09
-5.82671e-09
-3.95525e-09
4.38712e-09
1.67571e-09
-2.56435e-09
8.74273e-10
7.80924e-10
8.6268e-11
-9.73421e-10
1.06228e-10
-7.84929e-10
-5.40535e-09
-6.553e-10
7.37067e-09
6.55671e-11
4.81127e-09
4.21716e-09
-4.79423e-09
-4.23419e-09
-5.18461e-09
3.80755e-09
-3.06771e-09
4.44477e-09
-8.57802e-09
5.84998e-09
6.29676e-09
-1.97816e-10
7.01886e-09
6.39722e-09
7.65175e-10
-1.87691e-09
-1.10991e-10
-5.37222e-10
5.48758e-10
-5.16595e-09
4.48328e-09
6.40417e-09
-5.7215e-09
-1.49754e-09
2.23152e-09
-1.76813e-09
1.03415e-09
1.68558e-09
-1.51562e-09
-5.16673e-09
-2.79447e-09
-1.0685e-09
3.92706e-09
-4.15014e-09
-3.06395e-09
1.54903e-09
4.36342e-09
-1.12721e-09
-4.78525e-09
-8.00702e-09
5.5264e-09
-3.93411e-09
3.01723e-09
5.90641e-09
-5.58612e-09
-5.26154e-09
5.43845e-09
9.58908e-11
-4.72544e-10
-1.37366e-10
5.1402e-10
-5.4404e-09
3.54828e-09
-5.40964e-09
5.36086e-09
1.73435e-09
7.41335e-10
6.8488e-09
3.68816e-09
-3.56987e-09
4.09493e-09
-4.21322e-09
-6.69534e-09
4.66388e-09
4.58161e-09
-3.99408e-09
3.90985e-09
-4.49738e-09
-5.00754e-09
4.52913e-09
-4.669e-09
5.14741e-09
2.22063e-09
-1.97607e-09
6.51377e-09
-6.75833e-09
4.3838e-09
-3.06413e-09
-4.58304e-09
6.55899e-09
-6.60817e-09
-5.63693e-09
-4.05123e-09
4.35424e-09
4.10814e-09
5.38136e-09
-5.37776e-09
-4.63796e-09
-5.52201e-09
5.43224e-09
5.69734e-09
3.95848e-09
-3.91387e-09
-4.05954e-09
4.06051e-09
-4.01189e-09
-4.16269e-09
-4.7686e-09
5.2537e-09
4.2238e-09
-4.374e-09
4.94348e-09
3.95201e-09
5.22361e-09
-5.72976e-09
-4.60198e-09
3.73536e-09
-3.90905e-09
-3.93687e-09
5.50294e-09
-5.59866e-09
-5.64439e-09
3.92794e-09
-3.32614e-09
-6.55959e-09
-1.02084e-09
6.26919e-09
1.31123e-09
1.14158e-09
-3.62449e-09
7.26903e-09
-5.68955e-09
5.06479e-09
-4.97903e-09
5.07404e-09
-4.55922e-09
4.46421e-09
8.1657e-11
-7.7715e-09
7.77409e-09
-4.04642e-09
4.08659e-09
1.10141e-09
-1.35309e-09
1.45998e-09
-1.97499e-09
-8.54004e-10
-1.14059e-09
7.2792e-10
1.26667e-09
6.44193e-09
-5.02686e-09
4.49077e-09
-5.05707e-09
-4.33716e-09
4.83149e-09
4.56273e-09
3.51713e-10
-4.71224e-11
2.83045e-09
-4.62703e-09
6.09651e-09
-5.5212e-09
-4.05889e-09
-4.60278e-09
-4.07608e-10
6.28823e-09
-1.27784e-09
-4.73305e-09
4.00672e-09
6.19441e-09
-5.46808e-09
3.6902e-09
3.34025e-09
-3.28102e-09
-3.74943e-09
6.14859e-09
-4.47248e-09
-6.29676e-09
2.29981e-09
-3.54696e-09
-1.57157e-09
2.81872e-09
1.30789e-09
-1.17329e-09
1.16358e-09
-1.29817e-09
4.47097e-09
-4.83696e-09
-3.60339e-09
3.96937e-09
5.3216e-09
-6.12651e-09
7.62505e-09
-4.91037e-09
-5.11167e-09
5.79074e-09
8.48497e-09
-6.99812e-09
3.74536e-09
2.4367e-09
-1.69109e-09
6.23859e-10
-1.36947e-09
-8.95422e-10
-4.65645e-10
5.42131e-09
-2.31085e-09
2.72016e-09
-5.4325e-09
-4.92366e-09
-3.30639e-09
4.20706e-09
4.023e-09
-4.1066e-09
-5.7924e-09
-2.60936e-09
2.56522e-09
2.5296e-09