/*--------------------------------*- C++ -*----------------------------------*\
  =========                 |
  \\      /  F ield         | OpenFOAM: The Open Source CFD Toolbox
   \\    /   O peration     | Website:  https://openfoam.org
    \\  /    A nd           | Version:  8
     \\/     M anipulation  |
\*---------------------------------------------------------------------------*/
FoamFile
{
    version     2.0;
    format      ascii;
    class       surfaceScalarField;
    location    "3";
    object      phi;
}
// * * * * * * * * * * * * * * * * * * * * * * * * * * * * * * * * * * * * * //

dimensions      [0 3 -1 0 0 0 0];

internalField   nonuniform List<scalar> 
33977
(
3.27639e-09
-1.50849e-10
-3.51276e-09
3.87214e-10
-8.13314e-10
-1.64332e-09
1.6896e-09
7.67038e-10
4.26163e-09
-2.83545e-10
1.97362e-10
-4.17545e-09
4.03701e-09
-4.02552e-09
-3.46327e-10
3.34833e-10
3.59856e-11
-2.4491e-10
-5.21305e-10
7.30229e-10
-1.92535e-09
1.55534e-09
-4.43302e-10
-2.98604e-09
3.83765e-09
-2.07743e-09
1.22581e-09
-1.77698e-09
-2.08546e-09
1.32999e-09
2.53245e-09
4.23529e-09
-4.33793e-09
1.89855e-10
-8.72182e-11
-9.48835e-10
1.99308e-09
-3.09189e-09
2.04764e-09
3.22958e-09
3.33561e-10
-3.64966e-09
8.65236e-11
-1.32407e-09
1.36981e-09
-7.05021e-10
6.59282e-10
-5.91217e-09
-4.54453e-09
4.98846e-09
5.46825e-09
-3.38023e-09
-3.92539e-09
4.45753e-09
2.84809e-09
2.23762e-09
-2.59474e-09
-2.13198e-09
2.48909e-09
-1.82427e-09
2.05892e-09
-2.34658e-10
7.41371e-10
-8.13986e-10
-1.25146e-09
-2.62563e-09
9.27652e-11
1.70297e-09
8.29901e-10
5.41551e-09
-1.12404e-09
-5.78586e-09
1.49438e-09
2.69226e-09
-1.49825e-09
-2.62786e-09
1.43385e-09
2.34133e-09
2.35297e-09
-2.45667e-09
-1.07955e-09
4.78183e-09
-4.03575e-09
3.33475e-10
-3.59123e-09
3.60897e-09
6.15427e-12
-2.38964e-11
2.53813e-09
-1.3585e-09
1.08354e-09
-2.26318e-09
-2.0678e-09
9.31417e-10
-8.99555e-10
2.03594e-09
2.31647e-09
-2.27764e-09
2.3025e-09
3.56048e-09
-3.56279e-09
-2.55474e-11
2.78588e-11
4.10145e-09
-3.72878e-09
1.69459e-10
-5.42122e-10
-1.65322e-10
-1.33777e-09
6.77829e-09
-5.2752e-09
3.57854e-09
-3.57531e-09
-2.9012e-11
2.57788e-11
4.3349e-09
-4.3385e-09
-3.98096e-13
4.00079e-12
8.91583e-10
-8.33422e-10
-3.54675e-11
-2.26936e-11
-3.59481e-09
-2.37396e-11
2.73215e-11
2.38778e-09
2.25175e-09
-2.32305e-09
-3.10778e-09
1.73861e-09
-1.40102e-09
2.7702e-09
1.48429e-09
2.32295e-09
-3.06324e-09
-7.43989e-10
2.2266e-09
2.39763e-09
-2.23646e-09
1.01007e-09
-9.89708e-10
1.50273e-09
-1.52309e-09
-3.39223e-09
-3.38088e-11
-7.82284e-11
3.50427e-09
-2.43129e-09
-2.50702e-09
2.5797e-09
2.35861e-09
3.55003e-09
-3.55246e-09
-4.2502e-11
4.49252e-11
4.18016e-09
1.7301e-10
-2.39369e-10
-4.1138e-09
-6.37895e-10
2.49586e-11
4.71438e-09
2.33826e-09
-2.67092e-09
2.36576e-09
-2.0331e-09
1.23501e-10
-6.84911e-11
3.36568e-09
-3.42069e-09
3.63174e-09
-4.32932e-12
-1.84393e-11
-1.21856e-09
-2.86269e-10
2.83516e-10
1.22131e-09
-1.9847e-09
2.93266e-09
-9.47956e-10
2.36384e-09
2.27622e-09
-2.41346e-09
-3.37958e-09
3.38502e-09
-1.59893e-11
1.05445e-11
-1.73188e-09
7.85033e-10
1.138e-09
-1.91145e-10
-2.74935e-09
-2.27456e-09
2.42917e-09
3.45859e-09
2.33884e-11
-2.61755e-11
-3.4558e-09
4.3569e-09
-9.95125e-11
4.24484e-12
-2.28546e-09
4.59457e-10
-7.99629e-10
-4.22204e-10
3.25351e-10
1.33332e-09
-1.23646e-09
2.33506e-09
-2.31879e-09
2.34757e-09
-3.68024e-11
7.24956e-10
-4.58159e-09
3.89344e-09
4.31868e-09
-4.30849e-09
-2.44979e-11
1.42994e-11
2.32446e-09
-1.78076e-09
-1.43285e-09
8.89157e-10
-3.26114e-09
4.95294e-11
-9.93608e-11
3.31097e-09
-1.83938e-09
1.89374e-09
1.78897e-09
-1.84333e-09
2.31247e-11
-3.93933e-11
3.35125e-09
-3.45683e-09
-1.01187e-09
1.11745e-09
-4.57805e-10
4.6176e-11
-3.31715e-09
2.59762e-09
1.4743e-09
-1.74746e-09
6.94262e-11
-3.4372e-09
-2.82575e-11
3.39603e-09
1.53077e-10
-1.77918e-09
3.83964e-09
-2.21354e-09
1.74715e-09
-2.63249e-09
6.90616e-09
-6.02082e-09
-1.06597e-09
1.12614e-09
-1.61133e-09
1.55116e-09
2.19373e-09
-1.87058e-10
2.11231e-09
-4.11898e-09
2.31941e-09
-2.52643e-09
2.07021e-10
-3.94223e-09
1.08695e-09
-1.10234e-09
3.95762e-09
1.68719e-11
-3.44612e-09
4.54973e-11
3.38375e-09
2.66244e-09
-2.84297e-09
-2.25076e-09
2.91776e-10
3.66974e-09
-3.83801e-09
3.7268e-09
-7.43473e-11
1.67074e-11
-3.66916e-09
-4.01686e-09
3.86887e-09
4.39765e-10
-5.01497e-09
-1.79237e-09
4.39991e-09
2.40743e-09
3.20895e-09
-1.80984e-09
1.63561e-09
-3.03473e-09
1.40784e-09
-4.17611e-11
3.5481e-11
-1.40156e-09
-3.1718e-09
3.23291e-09
-7.06161e-11
9.50078e-12
3.39234e-09
3.17976e-11
7.54221e-11
-3.49956e-09
-6.10342e-10
5.51594e-10
-4.77721e-10
5.36469e-10
-5.59497e-12
1.37632e-09
3.71228e-11
-3.92176e-09
-2.81016e-10
2.63692e-10
3.93909e-09
-3.40661e-09
-1.84762e-11
4.55025e-11
1.5166e-09
-1.21635e-09
3.05099e-09
2.41997e-09
2.42413e-09
-2.50904e-09
-2.397e-09
2.4535e-09
-1.31271e-10
7.4773e-11
8.76867e-10
-3.95597e-09
4.87465e-09
-1.79554e-09
2.32225e-09
-2.53431e-09
2.68048e-09
-2.46843e-09
2.10831e-10
3.43365e-09
-6.97603e-10
-2.94688e-09
3.2185e-09
5.1023e-10
-2.49667e-09
-1.23207e-09
-3.72744e-09
3.95195e-12
1.06548e-09
2.658e-09
3.54212e-09
-3.53268e-09
-4.59684e-11
3.65279e-11
3.86605e-09
-4.24826e-09
3.822e-10
2.98493e-10
-1.19796e-09
-3.19092e-10
7.27103e-10
-7.62255e-10
-2.25031e-09
-2.54467e-09
-1.58562e-09
6.94717e-10
3.43558e-09
3.32061e-11
5.15828e-09
-4.62522e-09
-5.66263e-10
-3.17449e-09
3.16527e-09
-2.96558e-11
3.88688e-11
-1.5956e-09
1.5397e-09
-1.64167e-09
-4.43724e-10
8.40837e-10
1.24455e-09
4.28603e-09
-4.2759e-09
-2.97268e-11
1.95915e-11
2.25435e-09
-2.45581e-09
-2.33957e-09
2.54103e-09
-2.91402e-10
4.6033e-09
-4.44682e-09
1.34922e-10
1.16622e-09
-5.92059e-09
5.2071e-09
-4.52731e-10
-5.22913e-10
1.02858e-09
-1.33451e-09
8.28842e-10
-3.20792e-09
3.19413e-09
-2.29293e-11
3.67255e-11
8.16966e-09
-7.18155e-09
1.11323e-09
-2.10134e-09
-1.99614e-09
1.96052e-09
7.64599e-10
-7.28981e-10
-3.24104e-09
3.22251e-09
-1.95597e-11
3.80895e-11
3.37289e-09
-3.3893e-09
2.49322e-11
-8.51827e-12
-2.20733e-10
5.09091e-10
3.94693e-09
3.31714e-09
8.81484e-12
-3.36377e-09
3.78168e-11
-3.27945e-09
3.25562e-09
-1.96989e-11
4.35311e-11
-2.45024e-09
2.12132e-09
2.58327e-09
-4.38567e-10
6.40141e-11
-4.53361e-09
4.90816e-09
-3.31939e-09
3.29412e-09
-1.84342e-11
4.3701e-11
-3.28399e-11
2.98147e-11
-3.3558e-09
3.32938e-09
-1.80928e-11
4.45112e-11
9.28444e-12
-2.91032e-11
-1.66777e-09
-2.47851e-09
2.00132e-10
3.94614e-09
1.22701e-09
-1.60106e-09
1.50019e-09
1.44848e-11
-3.69366e-11
3.92714e-09
-3.91629e-09
-4.38119e-11
3.29632e-11
-2.5862e-09
-2.00824e-09
1.44788e-09
3.14656e-09
-2.11463e-10
4.95233e-10
-4.37716e-10
1.53945e-10
3.3604e-09
-1.97668e-11
3.22516e-11
-4.24954e-09
1.77418e-11
-4.41016e-11
3.8866e-09
-3.88634e-09
-1.96955e-11
1.94328e-11
1.79407e-11
-3.27686e-11
7.57196e-12
-1.18482e-11
3.96857e-09
-3.95194e-09
-3.97693e-11
2.31392e-11
-2.25925e-09
2.85765e-09
1.59968e-10
-7.5837e-10
-3.76134e-09
3.1785e-09
4.06554e-10
1.76291e-10
4.00468e-09
-3.98904e-09
-3.52995e-11
1.96619e-11
1.68041e-09
-4.82973e-10
-4.20725e-09
3.00982e-09
8.26803e-10
-8.31373e-10
-1.02698e-09
1.03155e-09
-3.33066e-09
2.34017e-09
-1.68179e-09
2.67228e-09
4.06092e-09
-4.03734e-09
-5.61764e-11
3.25934e-11
4.17686e-09
-4.19536e-09
-1.31713e-11
3.16642e-11
4.23818e-09
-4.21412e-09
-4.7304e-11
2.32489e-11
5.88868e-10
-1.48101e-09
-2.71242e-09
3.60456e-09
4.15469e-09
-4.16909e-09
2.54039e-13
1.41522e-11
4.17913e-09
-4.1649e-09
-3.15433e-11
1.73167e-11
-1.36798e-09
-6.19647e-09
5.67654e-09
1.8879e-09
-3.84957e-09
-4.0825e-11
3.14382e-09
7.46575e-10
5.04654e-11
4.06312e-09
-7.65772e-11
3.06721e-09
-3.067e-09
-2.08587e-13
7.60878e-10
3.45177e-09
-4.16793e-09
-4.47117e-11
5.30991e-09
-1.17356e-10
-1.56583e-10
-5.03597e-09
-3.91794e-09
-7.58308e-11
-1.70937e-11
4.01087e-09
2.82115e-10
-2.66239e-10
-1.96664e-09
1.95076e-09
3.42862e-09
-1.05864e-11
2.87186e-11
-3.44675e-09
-6.36574e-09
-1.781e-09
6.0737e-09
2.07304e-09
-7.14574e-11
-5.4883e-10
7.4013e-11
5.46274e-10
-1.39442e-09
-2.71836e-09
1.22239e-09
2.89039e-09
-3.1394e-09
3.14302e-09
-1.9746e-11
1.61239e-11
-3.6409e-11
2.50495e-11
9.97305e-10
7.48322e-10
-9.18825e-10
3.55046e-09
-9.67371e-10
-2.82581e-09
2.42727e-10
-1.53484e-09
2.40859e-09
1.8953e-09
-2.76905e-09
3.51995e-09
-3.50026e-09
-4.1319e-11
2.16289e-11
3.15015e-09
-2.52491e-10
7.6732e-10
-3.66498e-09
-3.79014e-10
4.35744e-09
-4.06299e-09
8.45662e-11
-2.95622e-09
2.88006e-09
2.01921e-09
-1.94305e-09
2.63411e-11
3.04087e-09
1.34363e-09
2.46141e-09
-3.49986e-09
-3.05183e-10
3.29499e-09
-3.5582e-09
-1.153e-09
1.41621e-09
3.32079e-09
1.03178e-10
-3.16355e-09
-2.60422e-10
-4.43576e-11
-4.35734e-09
3.82447e-09
5.77226e-10
-1.85835e-09
1.90525e-09
9.33519e-10
-9.80421e-10
3.86296e-09
-3.85333e-09
-3.06826e-11
2.10472e-11
-5.05422e-11
-3.52225e-09
1.52494e-10
3.4203e-09
-3.67365e-09
3.66899e-09
-9.94764e-11
1.04141e-10
9.29628e-10
-3.45705e-09
2.81511e-09
-2.87683e-10
-2.11941e-09
2.0121e-09
-1.73207e-09
-1.00165e-09
9.37339e-10
-8.28291e-10
8.92605e-10
-3.20467e-09
1.95608e-10
9.45264e-10
2.0638e-09
-3.87276e-09
-3.82048e-12
1.15236e-10
6.10865e-11
-1.60469e-10
-2.29762e-09
-2.43605e-09
2.28005e-09
1.55994e-10
3.44098e-09
-3.44465e-09
-1.32969e-11
1.69756e-11
-4.28171e-09
4.26671e-09
8.9069e-11
-7.4073e-11
-4.22784e-10
4.25405e-09
-4.26983e-09
-9.96694e-10
2.50117e-10
-4.16941e-10
1.16352e-09
1.66713e-09
-4.49188e-09
7.04729e-09
-4.22253e-09
-9.01613e-11
2.72472e-10
-1.99295e-10
1.6985e-11
3.54212e-10
-3.85895e-09
-1.28699e-10
3.63344e-09
3.06598e-09
-2.402e-09
-6.63979e-10
-1.35007e-10
-7.26674e-11
3.46686e-09
-3.25919e-09
-1.84526e-09
-7.4177e-10
1.61549e-09
9.7154e-10
2.70633e-11
-2.24604e-11
2.4384e-10
7.86402e-10
-2.9003e-10
-7.40212e-10
3.25979e-09
-7.92473e-10
-2.44565e-09
-2.16731e-11
-1.9219e-10
1.09336e-09
-4.90293e-09
4.00176e-09
1.43795e-09
-6.71704e-10
7.23748e-10
-1.49e-09
-3.8167e-09
4.34661e-09
-4.02855e-09
3.49864e-09
-8.01272e-10
8.25694e-10
2.19418e-10
1.56586e-09
2.34799e-09
-2.41596e-09
-1.49789e-09
2.63925e-09
-1.24128e-09
1.12157e-09
-2.51954e-09
-1.78239e-09
-2.53342e-09
9.25201e-10
3.3906e-09
-3.30936e-10
5.44036e-11
3.26556e-09
-2.98903e-09
6.21533e-10
5.23374e-11
-3.6652e-11
-6.37218e-10
-4.08523e-09
3.29527e-10
-1.17056e-10
4.45046e-09
-1.91386e-09
-3.66494e-09
1.12834e-09
4.01259e-09
-3.98339e-09
6.80194e-12
-3.60082e-11
4.19669e-09
-3.42116e-11
1.66472e-11
3.61058e-09
-3.57764e-09
-5.46379e-11
2.1706e-11
3.26176e-11
-4.53786e-11
-3.71987e-09
3.89092e-09
-3.25416e-10
1.5436e-10
3.66367e-09
-3.63545e-09
-5.37106e-11
2.5495e-11
-8.37282e-10
4.60898e-10
8.94429e-10
-5.18045e-10
-1.49413e-09
7.97222e-10
3.47924e-09
-2.78233e-09
-8.8502e-10
1.20555e-09
-3.25508e-09
2.93455e-09
-1.88023e-09
2.61096e-09
1.93171e-09
-1.69716e-10
4.61477e-09
-4.54005e-09
9.4992e-11
4.86331e-09
-2.97604e-09
-1.23369e-09
-6.53575e-10
-1.36718e-10
3.8609e-09
-6.8932e-11
-3.65525e-09
-2.23337e-09
2.99676e-09
1.83423e-09
8.85531e-10
-8.39053e-10
3.29326e-10
-3.75803e-10
2.30222e-09
-5.0589e-09
-1.52688e-09
4.28356e-09
2.21051e-11
-3.95393e-11
2.01877e-09
-1.41648e-09
2.03696e-09
3.21244e-09
1.29366e-09
-2.42842e-09
-2.07768e-09
-3.30152e-09
3.06981e-09
8.54073e-10
-6.22366e-10
-1.25648e-09
-1.00127e-09
2.16062e-09
9.71328e-11
-3.12328e-09
3.12893e-09
-1.57407e-11
1.00857e-11
-1.36037e-09
1.40316e-09
-1.03249e-09
-4.87204e-09
8.28589e-10
-4.17781e-11
2.7512e-09
-2.68892e-09
-8.72638e-10
8.10354e-10
9.65628e-10
-4.1611e-09
-7.52901e-10
3.94837e-09
3.95272e-09
-4.00927e-09
1.02218e-09
-4.52418e-09
-1.53122e-09
6.51981e-09
-4.64413e-10
1.58168e-09
-1.42039e-09
-2.56627e-09
2.40498e-09
2.55638e-09
-2.50831e-10
-2.30555e-09
5.21977e-10
-4.1639e-09
5.30905e-09
-1.3351e-09
3.24093e-09
-2.47553e-09
5.69704e-10
3.80133e-09
3.2451e-10
-4.34537e-09
2.19534e-10
-3.19759e-11
-4.03713e-09
4.03205e-09
3.70559e-11
5.68297e-10
-5.60828e-11
-5.83671e-10
-2.68649e-09
1.12819e-09
-6.01508e-10
2.15981e-09
4.86507e-09
1.46764e-09
-3.33591e-09
-2.9968e-09
-3.47034e-09
3.4859e-09
2.18903e-11
-3.74552e-11
4.73182e-09
-4.42907e-09
-3.68298e-09
-9.78963e-14
3.451e-09
7.68311e-12
1.05352e-10
3.16252e-09
6.65971e-11
-3.33447e-09
4.40556e-10
-4.39273e-10
1.04486e-10
-1.05768e-10
2.63974e-10
-5.27509e-10
-2.14863e-10
4.78398e-10
2.64871e-09
1.95652e-09
-4.44441e-09
-1.60815e-10
6.83158e-09
-5.20278e-09
1.18353e-10
2.90505e-09
1.20955e-09
-1.79234e-09
5.02631e-10
-9.61171e-11
-5.11999e-10
1.05485e-10
-1.61083e-09
-2.58462e-09
-5.16396e-11
4.24709e-09
3.80015e-09
-3.81552e-09
-5.75439e-13
1.59441e-11
-1.18093e-09
1.13486e-09
-2.75383e-10
3.21454e-10
1.39974e-10
-2.63173e-10
-3.14702e-09
1.26476e-09
3.38487e-09
-1.50261e-09
4.30253e-09
7.66929e-10
-4.19259e-09
4.20948e-09
-5.28534e-11
2.35333e-11
-7.67074e-10
-3.50088e-09
2.73312e-09
1.91907e-09
-1.31915e-09
1.41885e-09
4.96116e-11
3.17327e-10
-5.33448e-10
1.6651e-10
-1.12883e-09
9.16472e-10
-9.16326e-10
1.12868e-09
-4.68526e-09
4.67945e-09
-4.07189e-10
4.12999e-10
4.32486e-10
-2.23133e-09
-3.77242e-10
2.17609e-09
1.35645e-10
-1.27372e-10
-3.6676e-09
3.65932e-09
-6.51436e-10
1.53954e-10
-1.80721e-10
6.78203e-10
3.27196e-09
7.14531e-11
-2.75449e-10
-3.06796e-09
-3.45747e-09
-3.68673e-11
2.39983e-11
-1.49798e-09
2.81904e-09
-2.71548e-09
-6.02845e-09
-2.27709e-09
1.97008e-09
6.33546e-09
2.2753e-09
-2.06527e-09
-2.39432e-09
2.18429e-09
9.64746e-11
1.12843e-10
-3.43418e-09
3.22486e-09
3.4052e-11
-2.406e-11
-5.83772e-09
5.90194e-09
-1.30619e-10
6.64005e-11
-3.62296e-09
2.24967e-09
1.18115e-09
1.92144e-10
-2.31369e-09
2.1807e-09
1.71468e-09
-2.24517e-09
2.35077e-09
2.16971e-09
2.02912e-10
5.14232e-10
-5.96939e-10
-1.20205e-10
1.36167e-09
-4.61988e-09
4.2863e-09
-1.02809e-09
6.20982e-10
-5.98376e-10
2.55904e-10
-2.78511e-10
4.19274e-11
-5.22639e-11
3.32825e-09
-6.07657e-09
5.90614e-09
-3.15782e-09
-1.5413e-09
-2.3232e-09
8.09899e-10
3.0546e-09
5.69034e-11
-3.08698e-09
-4.8504e-11
3.07858e-09
-1.34869e-09
-2.23648e-09
6.46818e-10
2.93835e-09
2.61129e-09
-1.8757e-09
1.19243e-09
-1.92802e-09
-1.98173e-09
-1.97919e-10
2.17965e-09
3.09797e-10
-3.38673e-09
4.96557e-09
-1.88864e-09
-3.10538e-09
3.08745e-09
-2.56932e-11
4.36158e-11
9.42491e-10
-7.52834e-10
-2.81622e-09
2.62656e-09
1.79027e-10
-2.54302e-09
2.79871e-09
-4.34712e-10
-3.64892e-09
3.60607e-09
-4.51096e-11
8.79513e-11
-1.15343e-09
-2.45051e-09
3.60781e-09
-3.8748e-12
5.28992e-09
-4.38386e-09
-1.38255e-09
4.76487e-10
-3.183e-09
-4.03817e-09
2.2062e-09
4.24961e-09
-3.78346e-11
-4.2163e-09
4.51999e-12
4.40011e-09
-3.99531e-10
-4.44325e-09
4.42672e-10
5.68482e-10
-5.41128e-10
2.53777e-10
-2.81132e-10
-3.67706e-09
4.61404e-09
-1.00283e-09
6.58459e-11
1.09957e-10
-7.55991e-10
-1.55238e-10
-1.76285e-10
-3.25859e-10
1.6189e-10
3.40253e-10
2.05748e-09
3.03343e-09
-2.75265e-09
-4.8301e-10
5.88586e-10
-4.50135e-09
4.39577e-09
3.80779e-09
5.76646e-10
-5.01091e-11
-4.33432e-09
-2.09458e-10
-1.67956e-09
1.88902e-09
-7.80169e-10
1.91062e-09
8.86372e-10
-2.01682e-09
2.0339e-09
-1.20522e-09
2.38027e-09
-4.57018e-09
-3.93286e-09
3.53965e-09
4.96338e-09
-3.6828e-09
-1.16243e-10
7.91748e-11
5.15236e-10
-4.95295e-10
2.30977e-10
-2.50918e-10
-2.36307e-09
2.62061e-10
-1.70957e-10
2.27197e-09
-1.70178e-09
-3.36625e-09
1.3864e-09
3.68164e-09
-3.44035e-09
3.4498e-09
2.46965e-11
-3.41458e-11
-3.42224e-10
8.41304e-10
-2.00751e-09
1.50843e-09
1.16205e-09
-1.18446e-09
-2.05555e-09
2.07796e-09
2.26584e-09
-2.45815e-09
-2.342e-09
-1.34024e-09
5.73879e-09
-4.39855e-09
-3.62126e-09
2.65592e-09
3.8758e-09
-2.91046e-09
1.11544e-11
-2.1367e-11
1.69719e-10
-5.92391e-09
-2.11576e-10
5.96577e-09
-1.20729e-09
-4.20288e-09
4.92717e-09
-7.64146e-10
-3.64047e-10
1.12819e-09
1.34219e-10
-3.16776e-09
-6.939e-10
4.78007e-10
-4.33443e-10
2.19616e-10
-2.6418e-10
2.45863e-10
-7.07376e-10
-2.1922e-09
2.65371e-09
-3.44055e-09
-8.8363e-12
2.03268e-10
3.24612e-09
4.12487e-09
-9.47826e-11
3.08373e-11
1.33577e-09
-5.33134e-09
5.16179e-09
1.08309e-09
-6.7895e-10
-1.1479e-09
7.43761e-10
4.99998e-11
-1.82994e-10
3.65309e-09
-3.5201e-09
3.94563e-09
-4.75987e-09
8.42152e-10
-2.791e-11
-3.77177e-09
6.91132e-11
3.77071e-09
-6.80579e-11
3.92314e-10
-3.67192e-10
2.02861e-10
-2.27982e-10
3.88229e-09
-4.12907e-09
-9.45285e-10
1.19206e-09
-4.19327e-09
4.15915e-09
1.01249e-10
-6.71315e-11
1.46541e-09
8.43902e-10
-2.30931e-09
-1.32337e-11
8.84268e-11
-2.44703e-09
2.15916e-09
-4.18103e-10
7.05971e-10
-1.19837e-09
1.21125e-09
2.93546e-09
-2.94833e-09
1.79094e-10
-1.16021e-09
2.05939e-10
3.71997e-09
-3.70101e-09
-2.24902e-10
-3.91038e-09
3.19057e-10
3.71253e-09
-1.21205e-10
5.87119e-10
-3.15362e-10
-3.17469e-10
4.57127e-11
4.02026e-09
-1.60512e-09
-3.49469e-09
1.00761e-10
-8.9101e-11
3.63966e-09
-3.65132e-09
1.12517e-10
-2.47235e-10
3.2027e-09
-3.06799e-09
3.42027e-10
-3.25182e-10
1.83796e-10
-2.00641e-10
-2.98877e-09
3.71362e-09
-1.52287e-09
7.98022e-10
2.70243e-10
-3.81406e-10
4.67993e-09
4.66563e-10
-2.53973e-09
-2.60676e-09
-4.11644e-09
4.06687e-09
8.98563e-11
-4.02877e-11
-5.29233e-11
4.30241e-11
4.50455e-10
9.78351e-10
2.64354e-09
-4.20081e-11
-3.99474e-09
3.98031e-09
5.64372e-11
3.03943e-10
-2.91171e-10
1.65199e-10
-1.77971e-10
-3.95663e-09
3.85005e-09
2.01203e-10
-9.46255e-11
1.96201e-09
2.58263e-10
-1.71029e-09
-5.09985e-10
2.81594e-10
-3.00353e-10
1.49313e-10
-1.30553e-10
-5.31707e-11
1.26615e-10
-4.03913e-09
4.00436e-09
7.25473e-11
-3.77736e-11
-4.07898e-09
4.14669e-09
-2.34742e-11
-4.42414e-11
2.25681e-10
-2.04486e-10
1.51411e-10
-1.72606e-10
-2.67991e-10
2.86071e-10
1.85125e-10
-2.03206e-10
-1.65111e-09
1.19719e-09
-2.87674e-09
-3.98499e-09
4.01484e-09
-7.20194e-12
-2.26467e-11
-5.75624e-09
7.50714e-11
-1.56546e-10
1.77211e-09
-1.73454e-09
-3.12594e-09
3.08838e-09
1.031e-09
-1.01392e-09
-1.1459e-09
-8.44837e-10
9.07171e-10
1.02075e-09
-4.46588e-09
-2.0912e-09
1.86609e-09
4.691e-09
2.42392e-09
-2.69479e-09
3.34257e-09
-3.0717e-09
1.81738e-10
1.17899e-10
-1.31082e-10
-1.68555e-10
1.74182e-11
-3.53083e-09
-2.04464e-11
3.53386e-09
1.14711e-09
-3.95282e-09
2.85682e-09
-5.11086e-11
-5.16942e-09
5.00895e-09
1.60471e-10
3.96558e-10
1.76775e-10
-1.54571e-10
-4.18763e-10
2.94851e-10
-3.47502e-10
-3.03895e-09
3.03483e-09
-2.29517e-11
2.7072e-11
-1.99001e-09
2.15664e-09
1.46054e-09
-1.62717e-09
3.6574e-11
-2.19017e-11
-2.15128e-12
-1.93992e-12
9.94494e-11
-9.53582e-11
-3.33805e-09
5.52941e-10
-3.6127e-10
3.14638e-09
-2.22027e-09
-3.76166e-09
3.2474e-09
2.73452e-09
3.48388e-09
4.46889e-11
-3.5835e-09
5.49298e-11
-2.69336e-09
-1.19114e-09
2.46412e-09
-3.45072e-09
3.19944e-09
1.98026e-09
-1.72898e-09
-6.8666e-10
-2.51988e-09
1.3735e-10
3.06919e-09
6.91663e-10
4.01195e-11
-6.6509e-10
-6.66922e-11
3.55704e-11
-4.8303e-11
-5.94982e-09
4.58492e-09
4.69316e-09
6.48803e-10
-5.71206e-10
5.73195e-10
-6.50793e-10
5.0782e-09
-4.97193e-09
-4.81001e-10
3.7473e-10
1.85053e-10
2.3683e-09
-2.79569e-09
2.42337e-10
1.3895e-11
-1.48976e-11
-1.92483e-11
2.0251e-11
3.54928e-10
-1.84318e-10
-3.46895e-10
-2.45042e-09
3.36308e-09
8.10449e-10
-1.72311e-09
3.74965e-09
-3.6846e-09
1.54001e-10
-2.19058e-10
-3.93931e-09
-3.69118e-09
2.69524e-09
4.93525e-09
2.33614e-09
-4.99071e-10
4.91789e-10
-2.32885e-09
-3.50856e-09
3.44981e-09
2.14151e-10
-1.55402e-10
8.90007e-10
-4.03123e-09
4.04533e-09
-9.04102e-10
9.03883e-11
-7.03136e-11
-3.01056e-09
3.06083e-09
-3.67153e-09
-3.18764e-09
-1.57608e-09
1.27349e-09
3.49023e-09
1.48442e-09
-6.60839e-10
5.4623e-10
-1.59583e-09
-4.0078e-09
1.44253e-09
5.80098e-11
-5.21146e-11
5.62401e-10
1.75744e-09
-2.40972e-09
-9.28301e-10
1.58058e-09
1.86966e-09
-3.70641e-09
-2.65513e-09
3.06088e-11
3.41797e-09
-7.60583e-12
7.40559e-12
3.65538e-13
3.93876e-10
-3.42311e-10
-2.63027e-10
-3.4402e-09
-3.92174e-11
3.90734e-11
1.36954e-10
-5.01071e-10
7.56143e-10
-3.92026e-10
4.00317e-09
-9.47229e-10
1.73747e-10
-3.22969e-09
-4.09641e-09
7.55497e-10
-5.80854e-10
3.0003e-09
-2.25449e-09
-1.33407e-09
5.88264e-10
3.33904e-09
-6.86932e-09
-2.02531e-09
5.55558e-09
-4.15274e-11
3.48942e-09
1.43738e-10
-3.59163e-09
5.98974e-09
8.19185e-11
9.04065e-11
-4.76943e-11
-4.08538e-09
-1.43078e-09
4.41554e-09
1.10062e-09
-8.59484e-10
2.63895e-09
5.9006e-10
-2.36953e-09
-4.01725e-09
-1.64128e-10
4.03776e-10
3.7776e-09
-3.71698e-09
3.91107e-09
3.78765e-09
-3.98174e-09
1.95338e-09
-2.30872e-10
-2.59396e-09
8.71452e-10
-2.60604e-09
1.54145e-09
-1.73004e-09
2.79463e-09
4.08759e-09
2.15751e-09
-5.09799e-09
-1.25841e-09
-2.44533e-09
3.18765e-09
5.16094e-10
8.01612e-10
-4.00058e-09
3.04459e-09
1.54383e-10
-4.97823e-09
1.0152e-10
7.66231e-10
4.11048e-09
-3.56123e-09
3.98854e-09
7.98537e-10
-1.22585e-09
1.56772e-09
-1.41555e-09
-2.28525e-09
2.13307e-09
3.32036e-09
-3.61785e-09
4.17383e-10
-1.19896e-10
1.94695e-09
-2.20898e-09
4.21332e-09
-3.95129e-09
-1.65346e-09
7.24741e-10
-3.15958e-10
1.24468e-09
-1.87735e-09
2.0981e-09
2.54457e-10
-3.35698e-10
2.96754e-10
-2.15513e-10
-1.11223e-10
1.00606e-09
-2.72844e-09
1.8336e-09
3.09943e-10
-2.17078e-09
2.29332e-09
-1.64085e-10
2.94459e-10
-2.81217e-10
1.50843e-10
-2.0936e-09
-1.40317e-09
2.05014e-09
1.44663e-09
1.921e-10
7.58861e-10
-1.33625e-10
-8.17336e-10
3.25345e-09
-4.6374e-09
2.17892e-09
-7.94967e-10
-8.64725e-10
1.44821e-09
-3.43903e-09
2.85554e-09
2.05374e-09
-3.14592e-09
-4.05799e-10
-2.2387e-12
3.73779e-12
-9.65287e-11
9.50296e-11
1.64555e-09
-8.15844e-10
1.08936e-09
-1.56984e-09
-2.43324e-09
1.01704e-09
-3.58198e-09
3.53211e-09
-3.28344e-11
8.27043e-11
7.72848e-11
-6.95778e-11
3.62511e-09
-3.63282e-09
6.30177e-12
1.41384e-10
-1.24179e-12
-1.46444e-10
2.14904e-10
-2.45358e-10
-1.9437e-09
-1.82698e-09
1.99369e-09
-3.25036e-09
3.57389e-09
-4.04051e-09
2.18077e-09
7.87363e-10
-3.41588e-09
4.47753e-10
2.97272e-09
-1.17474e-09
-2.48463e-09
-4.70946e-09
-1.0599e-09
1.0841e-09
-3.49239e-09
-1.92413e-09
3.40257e-09
2.01395e-09
3.64043e-09
-3.64656e-09
3.70231e-11
-3.08838e-11
9.16096e-10
6.47714e-09
-1.98594e-09
-5.40729e-09
-3.78498e-09
1.125e-10
3.72432e-09
-5.184e-11
-2.39976e-09
-2.84821e-09
2.91202e-09
2.33595e-09
3.25995e-09
-2.8203e-09
-1.59308e-09
-2.01661e-09
1.63689e-09
-1.08873e-09
1.46845e-09
-2.24383e-10
-3.15442e-09
3.3788e-09
3.27766e-09
-2.18935e-09
1.58631e-09
-5.83291e-09
3.40532e-09
8.41288e-10
6.58101e-12
6.74911e-12
-1.33301e-11
2.76227e-09
-3.73942e-09
-1.97907e-09
-2.0526e-09
-1.18199e-09
2.37481e-09
8.59775e-10
-1.10195e-09
9.87527e-10
-4.05423e-10
5.19843e-10
2.55061e-10
-4.04224e-09
3.95e-09
-1.62817e-10
8.84139e-10
-5.55085e-10
3.08617e-09
-2.24073e-09
-2.92287e-09
2.55827e-10
-2.8572e-10
-4.22597e-11
-3.94336e-09
3.92586e-09
5.97599e-11
3.54452e-10
-3.93874e-09
-3.23147e-10
3.90743e-09
1.7957e-09
-2.32983e-09
2.05884e-09
-1.52471e-09
2.44361e-09
-3.68834e-09
1.60123e-09
-3.56493e-10
1.61101e-09
8.84992e-10
-3.0383e-10
-2.19217e-09
2.55151e-09
8.33145e-11
-1.81326e-10
-2.33687e-09
2.30103e-09
-6.9827e-10
5.63863e-10
-4.94472e-10
6.28879e-10
6.47146e-10
-1.73121e-09
1.81598e-09
-7.31922e-10
-3.76273e-09
3.82359e-09
1.45084e-10
2.71337e-09
-2.66291e-09
1.92639e-09
-3.17167e-09
-1.34228e-09
2.58756e-09
-4.25849e-09
1.06109e-10
-2.04836e-10
4.35722e-09
1.55137e-11
-8.60037e-11
-5.91889e-10
5.14043e-09
1.07142e-10
-4.65569e-09
3.26332e-10
-3.49287e-10
2.71391e-10
-2.48436e-10
3.56139e-11
-2.1036e-11
-3.06751e-11
3.95279e-11
6.1268e-10
3.44595e-09
-4.87036e-09
9.13133e-10
5.11285e-10
-1.59247e-09
1.99589e-09
1.49032e-09
1.95493e-11
-3.39055e-11
2.58724e-09
-2.32489e-09
-2.85371e-09
2.59136e-09
7.60942e-10
3.39296e-10
-2.08656e-10
2.17644e-09
-3.50568e-10
-3.77079e-09
1.94493e-09
2.43304e-10
-2.69196e-10
3.9796e-10
4.7153e-09
-4.33329e-10
6.05635e-12
-1.33245e-11
-3.07443e-11
3.80124e-11
-4.05671e-09
4.99532e-09
-3.33836e-09
1.06169e-10
-3.71158e-09
3.74106e-09
-2.19611e-09
2.03808e-09
-3.54071e-09
3.69875e-09
1.53913e-10
-3.21057e-09
2.61474e-11
3.03051e-09
-1.52691e-10
3.85413e-09
-3.84795e-09
1.46511e-10
-3.19381e-09
4.12381e-09
2.91279e-11
-9.59126e-10
-1.17435e-09
2.95042e-09
7.62176e-10
-2.53824e-09
4.2458e-09
-4.24192e-09
2.42148e-11
-2.80962e-11
3.87869e-09
-3.03666e-09
-1.26481e-09
2.26076e-09
-1.74935e-10
-1.91287e-09
-1.72959e-10
2.24508e-09
-1.25291e-09
-3.22136e-09
3.20351e-09
5.07643e-11
-3.2916e-11
3.6212e-09
-3.63078e-09
4.3841e-11
-3.42687e-11
-4.77217e-10
-1.31291e-09
6.88184e-10
-1.9356e-09
2.89367e-09
-3.41541e-09
1.83172e-11
3.39864e-09
-1.54926e-12
2.29706e-10
-2.46994e-10
-5.81374e-10
5.47246e-10
-5.94543e-10
5.73931e-10
-7.10698e-10
7.3131e-10
3.61353e-09
-3.61395e-09
3.00153e-11
-2.95946e-11
3.45631e-09
4.2891e-11
-4.65419e-11
-3.45266e-09
3.60418e-09
3.32817e-09
-2.98445e-09
-3.94791e-09
-2.78512e-09
3.34655e-09
-2.21255e-09
3.65083e-09
-3.6243e-09
-3.2219e-11
5.68446e-12
2.10203e-09
5.55871e-09
5.08931e-10
1.53391e-09
1.97806e-09
-1.10337e-09
-3.29536e-09
3.25595e-09
1.06669e-10
-6.72612e-11
-2.90338e-09
4.35386e-10
2.76602e-09
-2.50578e-09
-1.59535e-09
-1.09841e-10
3.0195e-09
-2.90966e-09
2.12327e-10
-2.53456e-10
4.38948e-11
-6.30229e-11
-4.02215e-09
-1.22171e-09
2.2333e-09
-2.61167e-09
3.00963e-09
3.61661e-09
-3.58719e-09
-4.43422e-11
1.49213e-11
5.39745e-10
-5.72964e-09
5.53208e-09
-3.4219e-10
-1.95498e-09
-5.48076e-10
8.61394e-10
-3.46611e-09
9.15219e-10
2.86068e-09
7.49178e-10
-1.06507e-09
-1.70072e-09
-2.41661e-10
-2.20424e-09
2.30186e-09
1.44039e-10
-4.5376e-09
-1.99983e-10
4.61878e-09
1.18804e-10
-5.32429e-09
-4.04232e-10
5.20578e-09
5.22741e-10
3.57606e-09
-3.55801e-09
-3.32417e-11
1.51909e-11
3.23003e-09
-4.13972e-11
-3.22222e-09
3.35849e-11
1.52453e-12
-4.03998e-09
-2.08274e-11
4.05928e-09
4.88007e-11
-5.04966e-11
2.87944e-12
-1.18353e-12
-1.40663e-10
6.88412e-11
4.32143e-09
-3.74447e-09
-2.98143e-10
5.34055e-10
3.82225e-09
4.4871e-09
-5.00363e-09
-3.30571e-09
6.03786e-11
-7.11303e-11
5.13382e-10
1.10524e-09
1.68459e-09
-1.34952e-09
-1.44031e-09
1.86949e-10
-2.12115e-10
3.56045e-09
-3.56982e-09
-5.56789e-12
1.49335e-11
4.45381e-11
1.43787e-10
-3.29091e-09
3.10259e-09
-1.7498e-09
-2.47269e-09
3.05365e-09
1.16884e-09
8.19235e-11
2.85401e-09
8.85398e-11
-3.02447e-09
-3.42974e-09
-8.79303e-10
4.23956e-09
6.94831e-11
-5.37583e-09
5.70854e-09
-9.24605e-10
1.02728e-09
-1.18468e-09
-2.36543e-09
2.52283e-09
7.55031e-11
-5.14091e-11
2.60741e-11
-2.87494e-11
1.32004e-10
-1.29328e-10
3.5521e-09
-3.51777e-09
-6.61714e-11
3.18419e-11
-6.03059e-12
-2.75293e-09
2.75896e-09
6.33962e-11
-5.91423e-11
3.60883e-09
-3.61309e-09
1.39262e-09
2.95603e-09
-3.97799e-09
-3.70657e-10
-3.65173e-11
-2.40685e-09
4.64676e-11
2.3969e-09
-6.8437e-11
1.72378e-11
-2.5961e-11
7.71601e-11
3.46243e-09
-3.4285e-09
-6.22842e-11
2.83485e-11
4.08156e-09
-2.10186e-09
5.4198e-11
1.69004e-10
-1.90243e-10
-3.44992e-09
3.52752e-09
4.66236e-11
-1.24225e-10
-3.74241e-09
4.0404e-09
-7.43206e-10
4.45221e-10
3.99292e-09
4.97975e-09
-5.15042e-09
3.39145e-09
-3.37856e-09
-1.14103e-11
-1.48078e-12
1.49759e-10
-3.32552e-09
3.23266e-09
-3.21601e-09
-7.84425e-11
-7.26097e-11
3.36707e-09
2.33203e-09
8.42764e-11
-6.60532e-09
4.18902e-09
-3.43035e-09
-1.03687e-10
3.57153e-09
-3.74941e-11
9.61197e-09
-7.83533e-09
-1.77664e-09
8.32516e-10
-4.96677e-09
5.47003e-09
-3.86678e-09
2.4467e-09
-1.94698e-09
-2.46783e-09
2.19107e-09
2.22374e-09
-4.24904e-09
-5.40706e-09
3.29036e-09
-2.80242e-09
2.6943e-09
1.33493e-09
-1.47921e-09
4.72222e-10
-3.27938e-10
-2.28606e-09
2.88747e-09
-6.01405e-10
1.28953e-09
-4.09343e-09
-4.97617e-10
1.79666e-09
-2.06602e-10
-1.30795e-09
3.57355e-09
-3.57631e-09
3.1052e-11
-2.8293e-11
7.99227e-11
-8.97068e-11
1.79443e-11
-8.16031e-12
1.48364e-10
-1.57941e-10
-3.68256e-09
7.77254e-11
3.7056e-09
4.74829e-09
-4.71592e-09
-3.61398e-11
3.7709e-12
2.7035e-09
-2.73548e-09
-3.17191e-09
3.00452e-09
-1.84938e-10
3.52328e-10
1.24892e-09
-1.1668e-09
-5.36302e-09
5.28089e-09
4.27031e-09
-4.2373e-09
2.713e-11
-6.01465e-11
-2.35667e-09
2.26405e-09
2.51654e-09
-5.3987e-09
1.16295e-09
4.20958e-09
2.61725e-11
-6.47428e-11
6.78234e-11
-6.37483e-12
3.29421e-12
-3.17473e-10
1.75761e-10
-1.84147e-10
7.94648e-11
-3.73959e-09
3.67693e-09
-1.6802e-11
-4.18952e-09
4.30758e-09
-2.11034e-10
9.29774e-11
-4.32971e-09
2.47005e-10
3.94648e-09
1.36219e-10
-1.378e-09
-1.31787e-09
9.70563e-10
1.7253e-09
-3.12786e-09
1.22117e-09
-1.20109e-09
1.5552e-10
-2.30193e-10
-4.32805e-09
3.8292e-09
-9.96368e-10
1.49522e-09
1.78261e-09
-1.6932e-09
2.62036e-09
-2.70978e-09
-5.05549e-11
3.51907e-09
-3.50605e-09
3.45134e-09
-3.13417e-11
8.60562e-11
-3.89998e-11
-3.89133e-09
3.87046e-09
5.98696e-11
-3.50587e-09
2.84375e-09
3.26798e-09
-2.60587e-09
3.38143e-11
-1.92277e-11
4.47385e-09
-4.48421e-09
6.10634e-11
-5.07037e-11
3.39004e-09
2.58679e-10
-3.58713e-09
-6.15852e-11
-2.77141e-09
-5.36854e-11
2.82509e-09
-3.1778e-09
3.02012e-09
-2.61372e-09
7.14494e-11
-2.61579e-10
-2.30825e-09
2.00885e-09
1.12125e-09
-8.21849e-10
-1.04603e-10
-3.74596e-09
1.88182e-10
3.66238e-09
2.84269e-09
-4.66944e-09
2.83877e-09
-1.01203e-09
-3.22949e-09
2.35652e-09
-1.07402e-09
1.52189e-09
-1.51574e-09
-1.94198e-09
1.93584e-09
-2.32389e-09
-1.82369e-09
2.20389e-09
-1.18349e-10
2.35737e-10
-3.4001e-09
3.28271e-09
2.42229e-09
2.22971e-09
-1.4335e-09
-9.92109e-11
1.49349e-10
-4.30863e-09
-1.87547e-10
-3.67897e-09
8.15453e-11
-2.14489e-10
-3.53733e-09
4.13776e-10
1.5398e-09
-2.19088e-09
-2.85479e-09
1.93433e-09
-2.86909e-09
2.45837e-09
-1.52362e-09
1.38471e-11
-4.6507e-11
-1.06809e-09
4.43659e-10
-1.96229e-09
2.58672e-09
-5.73216e-09
9.5264e-10
-8.47716e-10
3.45679e-09
2.95754e-12
-2.61203e-09
3.42429e-09
-1.30923e-09
4.99604e-10
-2.61466e-09
-2.12511e-11
-9.60402e-11
-6.52502e-12
1.23816e-10
-2.06726e-09
-1.4177e-09
1.39136e-09
3.3819e-09
-3.40571e-09
2.24394e-11
1.364e-12
4.4846e-09
5.49202e-11
-6.56676e-11
9.6985e-09
-2.00816e-09
-6.77425e-09
1.00586e-09
1.38108e-09
-9.48978e-10
-3.98969e-09
1.65723e-09
-9.27988e-10
3.26045e-09
-6.06826e-09
1.12831e-09
5.75113e-09
-8.11179e-10
2.82241e-09
-1.18187e-09
2.79086e-10
-1.91962e-09
-4.20808e-11
4.10091e-09
-4.15804e-09
4.46542e-09
6.0159e-11
-4.09735e-11
-4.44789e-09
4.50306e-11
-8.1356e-11
3.26734e-09
1.75394e-11
-6.24008e-12
-3.27864e-09
-2.59075e-09
1.29469e-10
-4.70063e-10
2.93134e-09
2.90981e-09
-1.99356e-09
1.50604e-09
-3.93575e-09
6.66852e-10
-2.6456e-11
1.20726e-10
-1.32332e-10
2.1111e-11
-9.505e-12
-3.72769e-09
-3.15245e-10
6.23825e-10
3.41911e-09
-8.04993e-10
9.07165e-10
7.36622e-11
-3.89542e-11
-4.4826e-09
-1.24133e-10
8.32578e-12
-1.83439e-11