/*--------------------------------*- C++ -*----------------------------------*\
  =========                 |
  \\      /  F ield         | OpenFOAM: The Open Source CFD Toolbox
   \\    /   O peration     | Website:  https://openfoam.org
    \\  /    A nd           | Version:  8
     \\/     M anipulation  |
\*---------------------------------------------------------------------------*/
FoamFile
{
    version     2.0;
    format      ascii;
    class       surfaceScalarField;
    location    "3";
    object      phi;
}
// * * * * * * * * * * * * * * * * * * * * * * * * * * * * * * * * * * * * * //

dimensions      [0 3 -1 0 0 0 0];

internalField   nonuniform List<scalar> 
11624
(
-7.73048e-09
8.00135e-09
3.85407e-11
-3.09411e-10
-7.11795e-09
-1.94434e-10
-4.18094e-10
-2.11904e-09
1.52081e-10
1.86617e-09
1.00793e-10
8.6047e-09
-7.54996e-09
1.93346e-09
-2.9882e-09
-6.01693e-09
5.70667e-09
-4.30643e-11
3.53318e-10
-5.6731e-09
4.1049e-09
1.21494e-09
3.5326e-10
-1.34428e-09
-3.09452e-10
-2.96182e-09
4.61555e-09
-1.00174e-09
2.44081e-09
3.07521e-09
-4.51428e-09
2.9693e-09
-2.31057e-09
-3.2999e-09
2.64117e-09
-3.23734e-09
-1.60923e-09
2.56956e-09
2.27701e-09
4.93577e-09
-4.65114e-09
-1.89822e-11
-2.65646e-10
1.95202e-09
4.7082e-09
-2.01905e-09
-4.64117e-09
-2.75388e-09
-4.23158e-09
2.29675e-09
4.68871e-09
-3.91228e-09
5.02009e-09
-1.09861e-09
-9.19875e-12
-1.59437e-09
4.34176e-09
-3.86526e-09
1.11786e-09
-3.91841e-09
2.74221e-09
-2.67461e-09
3.85082e-09
4.12225e-09
-4.1093e-09
-6.44936e-13
-1.23051e-11
-3.59295e-09
4.6437e-09
-1.09538e-09
4.46243e-11
-2.75117e-09
3.80393e-09
-4.44305e-09
3.39029e-09
-3.18465e-09
-1.56903e-09
1.9273e-09
2.82638e-09
3.31168e-09
-3.74205e-09
2.96046e-10
1.34329e-10
-3.58774e-09
4.40733e-09
-3.89863e-10
-4.29727e-10
5.13353e-09
-5.23423e-09
1.18962e-10
-1.82597e-11
6.1814e-09
-2.03949e-09
1.13864e-09
-5.28055e-09
4.86404e-09
-4.56249e-09
-2.74567e-10
-2.69875e-11
-4.77379e-09
1.37212e-09
4.24148e-09
-8.39809e-10
2.41371e-09
-3.91423e-09
-3.37369e-09
4.87421e-09
2.51262e-09
-2.34451e-09
-3.12033e-09
2.95222e-09
-2.73241e-09
3.38358e-09
-4.20518e-09
3.55401e-09
-5.7444e-09
4.47509e-09
-3.94785e-09
5.21716e-09
5.10246e-09
-3.31333e-10
9.29186e-11
5.02634e-09
-1.76566e-10
2.83754e-10
-5.26095e-09
4.86662e-09
5.09042e-10
-1.14704e-10
-5.41076e-09
4.53642e-09
9.42753e-10
-6.84157e-11
5.26535e-09
-2.16542e-10
5.36486e-11
-3.78004e-10
5.28196e-11
-4.86626e-09
5.68848e-10
-2.65076e-10
-6.73595e-10
4.78221e-09
-5.36788e-09
1.25927e-09
-3.62721e-09
3.28704e-09
-6.45401e-10
2.3765e-10
-3.88482e-09
1.74098e-09
-1.2152e-09
3.35904e-09
2.5837e-09
-4.11336e-09
-2.43448e-09
3.96414e-09
7.30873e-11
4.51143e-11
7.88315e-09
1.53934e-10
-4.79705e-09
-5.91114e-10
5.36941e-09
-3.7779e-10
-6.10381e-09
1.1122e-09
2.03418e-09
-1.79208e-09
-2.88117e-09
2.63907e-09
-9.11476e-09
-1.9918e-10
2.19599e-09
3.16914e-09
9.01089e-10
-1.69718e-09
-2.37305e-09
8.46235e-09
-6.8099e-09
4.87299e-09
-6.52545e-09
4.24025e-09
-3.71505e-09
2.98107e-09
-3.50627e-09
-1.86598e-09
-5.46741e-10
2.93682e-10
3.87164e-09
-4.16473e-09
-4.97935e-09
5.27244e-09
1.0587e-09
-1.02909e-09
3.54142e-09
-3.57103e-09
-3.57347e-09
-1.06587e-09
4.62881e-09
1.05246e-11
3.17785e-09
5.00175e-09
-5.33211e-09
-2.84749e-09
6.67078e-10
-4.54661e-10
2.53593e-10
-4.6601e-10
1.89571e-09
-8.09173e-10
5.05112e-09
-6.13766e-09
-2.15248e-09
2.53488e-09
8.22229e-09
-5.27929e-09
1.57994e-09
-1.71043e-10
3.87039e-09
3.35434e-09
-3.668e-09
8.12611e-10
-4.98958e-10
-3.03344e-09
3.85065e-09
2.0143e-09
-2.8315e-09
4.58696e-09
-4.00761e-09
-2.77632e-09
2.19697e-09
-6.31003e-10
1.48666e-09
-5.01671e-09
4.16105e-09
-7.06226e-09
5.95196e-09
-3.13318e-09
4.24348e-09
1.51525e-09
-7.05718e-10
-3.73705e-09
2.92752e-09
-2.23602e-10
2.43006e-10
-2.40013e-10
2.20609e-10
-1.67522e-09
4.27803e-09
-3.60455e-09
2.36651e-09
-3.82688e-09
3.39919e-09
-1.93883e-09
-4.58304e-09
2.95119e-11
3.87994e-09
2.19961e-10
2.31847e-10
-2.27448e-10
-2.2436e-10
2.92618e-09
7.18602e-09
-1.06414e-08
5.29191e-10
2.7934e-09
-2.84274e-09
-3.29029e-09
3.33963e-09
1.62816e-09
4.69235e-09
-1.27978e-09
-5.04073e-09
3.70286e-09
-3.41836e-09
-3.47443e-09
3.18993e-09
-1.03039e-09
7.36818e-11
1.48961e-09
-5.32904e-10
-4.6345e-09
-2.63506e-09
3.08935e-09
4.18022e-09
-2.74723e-09
-3.27851e-09
3.2228e-09
2.80294e-09
-4.80501e-09
4.59142e-09
-6.68755e-10
8.82345e-10
-5.06488e-09
-7.76951e-09
5.28443e-09
-2.906e-09
2.78512e-09
3.40859e-09
-3.28771e-09
-1.45848e-09
3.20756e-09
-4.14849e-09
2.39941e-09
-2.83398e-09
6.04533e-10
-5.5453e-09
-2.13652e-09
4.32697e-10
-4.33771e-09
-2.08821e-09
4.20957e-10
-4.25385e-09
-2.03783e-09
4.09352e-10
-4.16042e-09
-2.45923e-09
5.10179e-10
-4.91199e-09
5.02681e-09
-5.17077e-09
4.06557e-10
-2.62591e-10
-3.05051e-09
6.59348e-10
-6.11964e-09
-2.13488e-09
4.33275e-10
-4.50549e-09
-2.25091e-09
4.57455e-10
-4.67044e-09
-2.56113e-09
5.32181e-10
-5.23086e-09
-1.94263e-09
3.85212e-10
-4.10653e-09
-2.26718e-10
2.62539e-10
1.96387e-10
-2.32208e-10
5.18447e-09
5.65843e-09
-8.23512e-09
-2.60778e-09
-4.06404e-09
2.66724e-09
3.76331e-09
-5.69282e-09
-5.11936e-09
4.2924e-09
6.51977e-09
-2.33572e-10
2.44343e-10
-2.40728e-10
2.29957e-10
9.68841e-10
-1.01571e-09
4.37325e-09
-4.32638e-09
4.67978e-09
6.48275e-09
-6.91014e-09
-4.25239e-09
6.28028e-09
7.75705e-09
-9.73558e-09
-4.30175e-09
-1.03417e-09
3.84433e-10
-4.1701e-09
4.81983e-09
2.35812e-09
2.8305e-09
-2.44545e-09
-2.74317e-09
-4.2986e-09
3.45342e-11
4.01652e-09
2.47545e-10
-3.68237e-09
2.28764e-09
-3.02624e-09
4.42096e-09
-3.47525e-09
-3.02702e-09
2.8199e-09
-2.40874e-09
1.83843e-09
3.7477e-09
-3.17739e-09
-2.34097e-09
3.03239e-09
-2.59881e-09
1.90738e-09
5.69679e-11
3.67353e-09
3.91758e-10
2.34698e-09
3.19992e-09
-4.71306e-09
-8.33844e-10
-3.86438e-10
1.47432e-09
-1.57995e-09
4.92065e-10
3.85238e-09
5.18832e-10
-3.64906e-09
-7.22144e-10
-1.10143e-10
-4.20209e-09
-5.54027e-10
3.24508e-09
-3.77498e-09
3.5337e-09
-3.0038e-09
-2.7171e-09
4.6609e-10
4.69535e-09
-2.44434e-09
2.35457e-09
8.57535e-09
-1.44171e-09
-9.48821e-09
3.36615e-09
7.9027e-09
-8.91429e-09
5.56914e-09
7.47205e-10
-1.28953e-09
-2.23006e-10
4.86319e-10
8.31204e-09
-3.38042e-09
-3.04763e-09
2.51381e-09
-1.09815e-09
6.85049e-10
1.31293e-09
-8.99831e-10
5.12866e-10
-9.60477e-11
4.73365e-09
-5.15047e-09
-4.38114e-10
6.90615e-10
-2.20283e-09
1.95033e-09
1.41633e-09
-3.82449e-09
3.7049e-09
-1.29674e-09
1.42903e-09
-1.21936e-09
2.75963e-09
2.81855e-09
-3.31582e-09
3.50111e-09
-3.00384e-09
4.47028e-09
9.07296e-09
-2.77805e-09
-1.07652e-08
-2.02981e-09
-2.4449e-09
2.99347e-09
1.48124e-09
1.1365e-09
4.19334e-09
-2.84043e-09
-2.48941e-09
1.17868e-10
-2.00692e-10
-1.87516e-09
1.95799e-09
2.99612e-09
3.49828e-09
-3.91071e-09
4.21306e-10
-8.68733e-10
5.07622e-09
-4.62879e-09
2.23071e-10
3.00332e-09
3.76532e-10
-3.60292e-09
2.96235e-09
-2.66488e-09
-2.63844e-09
-6.10439e-09
-5.68658e-09
6.09815e-09
9.15566e-11
1.53681e-10
-5.23332e-11
-1.92904e-10
7.39593e-09
-1.40375e-09
-5.55139e-10
-5.43704e-09
-5.19565e-09
-1.0545e-09
6.75943e-10
5.5742e-09
3.97339e-09
-4.66386e-09
-3.74717e-09
4.43763e-09
2.18319e-09
-4.03155e-09
-2.95665e-09
3.79228e-09
-3.9979e-09
-1.25286e-09
3.78631e-09
3.27087e-09
-3.8121e-09
4.44038e-09
-3.53715e-09
-6.01498e-09
5.11175e-09
1.70824e-09
-3.87366e-09
3.58175e-09
-4.90339e-09
-3.09034e-09
2.24934e-09
-2.18226e-09
7.83139e-10
1.47647e-09
-7.73463e-11
-3.72448e-09
-2.45692e-09
4.28035e-09
1.90105e-09
2.37128e-09
-3.23271e-09
3.45397e-09
-2.59254e-09
2.46352e-10
-2.50785e-10
2.27793e-10
-2.2336e-10
-4.05673e-09
3.99857e-09
-3.76289e-09
3.82104e-09
7.6687e-09
1.46379e-09
-2.81793e-09
-6.31456e-09
-3.19519e-09
2.28422e-09
-3.38746e-09
4.29843e-09
3.21624e-09
-7.57608e-09
9.03961e-09
1.99365e-10
-6.16118e-10
-2.44434e-09
2.86109e-09
-2.66311e-10
4.18873e-09
-4.13154e-09
2.09123e-10
5.30034e-09
-4.25582e-09
-7.2669e-10
-3.17824e-10
-1.5799e-09
-3.97614e-09
2.10649e-09
3.44955e-09
-6.44388e-09
-6.33274e-10
7.07716e-09
-1.62482e-09
2.75105e-10
1.48237e-09
-1.32651e-10
-7.48633e-10
-3.9495e-09
6.34843e-10
4.06329e-09
-3.89856e-09
-4.32033e-09
4.42947e-09
3.78942e-09
-4.22043e-09
-4.41056e-09
2.79389e-09
5.8371e-09
5.3473e-09
-6.18957e-09
7.69014e-09
-6.84787e-09
1.08957e-09
-4.61659e-09
4.49587e-09
4.668e-09
-4.10292e-09
4.21713e-09
-2.4067e-10
-2.28316e-10
2.38565e-10
2.30421e-10
-4.41074e-09
4.22898e-09
1.85083e-10
-3.31823e-12
5.27185e-09
-4.96263e-09
5.07635e-10
-8.1685e-10
5.35424e-09
-5.01265e-09
5.65303e-10
-9.06897e-10
5.16138e-09
-4.85799e-09
4.97065e-10
-8.00457e-10
3.04318e-09
-3.64239e-09
-4.75867e-10
1.07508e-09
-4.78482e-09
4.80258e-09
-7.22651e-11
5.45027e-11
2.92335e-09
-3.09339e-09
3.04347e-09
-2.87343e-09
-4.49515e-10
4.01852e-09
7.32242e-10
-4.30125e-09
2.292e-10
-2.64944e-10
2.39299e-10
-2.03556e-10
-1.38384e-08
1.52336e-08
-6.98841e-09
5.59316e-09
4.83298e-09
-5.40795e-09
-2.22033e-11
5.9717e-10
-2.77636e-09
-2.99314e-09
2.22275e-09
3.54676e-09
2.48232e-09
-1.87312e-09
2.95236e-09
-3.56156e-09
-8.0485e-09
-8.4296e-09
8.58866e-09
7.88944e-09
2.87664e-09
-3.14848e-09
7.83121e-09
-8.8495e-09
-6.59055e-09
7.60883e-09
-2.40458e-09
2.22165e-09
-2.95805e-09
3.14098e-09
-1.34875e-10
1.83041e-10
-6.06999e-09
4.92416e-09
-2.09859e-10
1.35569e-09
3.88406e-09
-2.15696e-09
1.92896e-09
-3.65606e-09
-2.92721e-09
4.14167e-09
2.41111e-09
-3.62557e-09
-3.07918e-09
-8.96372e-12
4.58027e-10
2.63011e-09
4.36375e-09
-7.64037e-10
-4.34835e-09
4.49797e-09
-4.14086e-09
-3.30397e-09
2.94685e-09
-4.21286e-09
4.77488e-09
3.20394e-11
-5.94062e-10
-4.28785e-09
4.87512e-09
3.62682e-11
-6.2354e-10
-3.25775e-09
4.06283e-09
7.53299e-10
-1.55838e-09
-3.16595e-09
3.50843e-09
-2.84588e-09
2.5034e-09
9.96985e-11
7.76405e-09
-7.86375e-09
-1.12952e-10
-3.7408e-09
-2.5555e-10
-4.01697e-10
2.81487e-09
8.37078e-10
-3.25025e-09
2.87517e-10
-3.08226e-10
2.38777e-09
-4.95902e-10
6.21735e-10
-2.5136e-09
4.80872e-09
-4.17548e-11
3.56106e-11
4.73684e-09
-4.69426e-09
1.46156e-11
-5.71929e-11
4.29191e-09
-4.19769e-09
1.48686e-11
-1.0908e-10
3.65406e-09
-3.51482e-09
-3.81464e-09
3.67541e-09
2.12156e-10
-1.67205e-10
-2.10368e-10
1.65417e-10
3.83306e-09
1.38598e-09
-5.7656e-11
3.98509e-09
1.42039e-09
-5.12414e-11
3.91431e-09
1.41605e-09
-5.85127e-11
-4.67631e-09
5.77073e-09
-1.2087e-09
1.14282e-10
5.23572e-09
-5.16492e-09
-2.59174e-10
1.88375e-10
-1.25164e-09
1.32785e-09
7.61172e-10
-8.37382e-10
-2.23486e-09
-4.58789e-09
3.62205e-09
3.2007e-09
-5.22385e-09
4.59309e-09
9.14189e-10
-2.83424e-10
6.45218e-09
5.98789e-11
-1.27634e-09
3.70629e-09
3.65839e-09
-3.07892e-09
-4.28576e-09
-4.27499e-09
2.86376e-10
4.04989e-09
-6.12793e-11
4.80082e-09
-4.79544e-09
-5.1235e-12
-2.57402e-13
-4.17309e-09
4.18693e-09
-2.58508e-11
1.20093e-11
-4.24967e-09
4.26388e-09
-2.65794e-11
1.23673e-11
-4.08622e-09
4.09966e-09
-2.51957e-11
1.17519e-11
1.42132e-09
-1.92998e-10
3.83306e-09
3.34175e-09
-5.24229e-09
-1.93252e-09
5.10602e-09
-4.63736e-09
-2.53403e-10
-2.15254e-10
-4.38497e-09
3.94184e-09
2.62632e-09
-6.01449e-09
5.72447e-09
-2.04058e-10
4.94079e-10
-4.6141e-09
-1.08509e-09
2.91246e-10
-1.56391e-09
-8.40687e-10
1.15296e-09
5.08216e-09
-5.32509e-10
-2.57749e-10
5.11868e-09
-5.12509e-09
1.46584e-11
-8.25068e-12
-4.78892e-09
4.79165e-09
-4.23298e-11
3.95992e-11
-4.19743e-09
4.15517e-09
-1.48786e-10
1.91043e-10
-4.2757e-09
4.23157e-09
-1.51049e-10
1.95177e-10
-4.10911e-09
4.06854e-09
-1.46231e-10
1.86806e-10
3.70768e-09
-3.85245e-09
-5.95937e-10
7.40711e-10
5.93933e-09
1.80459e-10
-1.38295e-09
2.77909e-09
-3.41639e-09
3.00859e-09
-3.05381e-09
2.3843e-09
2.95373e-09
5.85274e-09
-4.98952e-09
-9.29145e-11
-7.70299e-10
4.55655e-09
3.4243e-10
-1.1913e-09
7.0627e-09
-7.06277e-09
-7.41603e-10
7.41674e-10
4.21932e-09
-4.27412e-09
-6.58445e-11
1.20639e-10
-4.61135e-12
-7.8608e-11
3.50148e-09
-3.55058e-09
-2.36639e-10
2.85741e-10
3.56483e-09
-3.61462e-09
-2.41783e-10
2.91574e-10
3.42873e-09
-3.47702e-09
-2.31259e-10
2.79557e-10
5.15436e-10
5.6553e-10
-6.25174e-09
-4.25825e-09
4.82062e-09
-6.38501e-10
7.61306e-11
-4.33644e-09
4.90951e-09
-6.51126e-10
7.80557e-11
-4.1691e-09
4.71989e-09
-6.24953e-10
7.41543e-11
-4.92371e-09
5.21545e-11
-1.19843e-09
4.79096e-09
-1.32499e-09
-4.48168e-09
-3.28021e-09
-2.94999e-09
3.49652e-09
2.73369e-09
4.25529e-10
-1.51209e-10
-5.73435e-10
2.99115e-10
2.79652e-09
-4.2154e-09
5.07294e-09
1.15371e-09
-7.72442e-11
3.81944e-09
-8.84747e-11
1.83347e-10
3.88752e-09
-8.63492e-11
1.83917e-10
3.74005e-09
-8.645e-11
1.79452e-10
4.85566e-09
-9.03982e-11
4.34633e-11
-2.5351e-10
1.85459e-10
1.00054e-09
4.76648e-11
-4.13024e-09
-1.00907e-10
-7.81496e-10
4.79132e-09
-4.78457e-09
5.73303e-12
-1.24828e-11
-4.18802e-09
2.02105e-10
-8.72069e-10
-4.27711e-09
2.04688e-10
-8.9021e-10
6.24755e-09
-5.38072e-09
2.46996e-11
-8.91528e-10
-4.79061e-09
4.79631e-09
5.69502e-12
-1.13878e-11
-5.824e-10
1.53359e-10
-6.07426e-10
1.58511e-10
-5.95024e-10
1.56215e-10
-4.18241e-09
4.19348e-09
-8.76014e-12
-2.30691e-12
-4.25935e-09
4.27058e-09
-8.96729e-12
-2.25753e-12
-4.0952e-09
4.10604e-09
-8.55267e-12
-2.28798e-12
-5.39909e-09
5.33112e-09
-1.7247e-10
2.40439e-10
-3.91152e-09
4.27783e-09
-4.54865e-10
8.85577e-11
5.82153e-09
3.67805e-09
-5.79329e-09
2.72361e-09
3.36292e-09
-3.46915e-09
-2.61738e-09
-4.55903e-09
4.57776e-09
-1.99288e-11
1.20205e-12
-4.02275e-10
2.35193e-09
-3.7944e-09
4.08633e-09
-9.5182e-13
-2.90971e-10
5.04622e-09
-4.52539e-09
-3.97868e-11
-4.81045e-10
-4.02891e-09
4.04695e-09
-2.80821e-11
1.00359e-11
5.16357e-09
7.2543e-10
-1.64531e-10
4.13959e-09
-4.11261e-09
-1.50095e-10
1.23117e-10
5.34138e-09
-4.61469e-09
5.40112e-11
-7.80697e-10
3.0924e-09
-4.07038e-09
3.66145e-09
-2.68347e-09
-4.07212e-09
4.68054e-09
2.00351e-10
-8.08775e-10
6.27871e-09
1.84707e-09
-4.35316e-09
-3.77262e-09
-4.40666e-09
4.42478e-09
1.71956e-12
-1.9845e-11
-5.07748e-09
4.91837e-09
-6.44391e-11
2.23549e-10
-7.64417e-10
4.08688e-09
5.12424e-10
-3.83489e-09
-1.05037e-09
5.54085e-09
-1.17219e-10
3.85697e-09
-2.82755e-09
3.33781e-09
-4.36723e-09
2.8321e-09
-4.24119e-09
3.44911e-09
-2.04002e-09
-4.04872e-09
-1.67094e-10
-5.94328e-10
4.38523e-10
4.00818e-09
4.91986e-09
-4.16369e-09
-5.24453e-11
-7.03723e-10
-5.28173e-09
5.16669e-09
-1.11333e-10
2.26367e-10
-2.89311e-10
2.36196e-10
5.31152e-11
3.34338e-09
-3.41576e-09
-4.68191e-11
1.19203e-10
4.3118e-09
-4.09161e-09
1.95937e-10
-4.16133e-10
-3.62687e-09
-3.0636e-09
2.63375e-09
5.91523e-09
-6.05608e-09
1.18721e-10
2.21311e-11
-4.18659e-09
-6.51156e-11
3.88398e-11
-1.52567e-10
9.17832e-11
1.47835e-10
-8.70505e-11
6.56366e-09
-5.32487e-09
2.2461e-10
-1.4634e-09
4.6662e-09
9.95979e-11
-5.46476e-10
-4.80441e-09
5.24054e-09
1.78946e-11
-4.54023e-10
4.47636e-09
-9.05437e-10
-1.42195e-10
4.6586e-09
-9.41859e-10
-1.51914e-10
4.57267e-09
-9.24196e-10
-1.46994e-10
5.33816e-09
-5.43285e-09
4.36092e-10
-3.41395e-10
-4.79137e-10
9.81289e-11
-1.78973e-10
5.59982e-10
-4.23699e-09
-1.0842e-10
5.7563e-11
6.29902e-10
-1.91551e-09
-6.09398e-10
1.895e-09
-3.41434e-09
3.95291e-09
2.84279e-10
-8.22846e-10
3.68104e-09
-1.66675e-09
-2.0143e-09
-4.22073e-10
4.2044e-09
7.93949e-10
-4.57628e-09
5.85224e-09
-5.88846e-09
1.16042e-11
2.46221e-11
-6.07097e-09
5.96085e-09
-1.22921e-10
2.33042e-10
-3.84896e-09
3.9531e-09
4.14692e-10
-4.62908e-09
-4.04523e-10
2.29193e-10
4.45977e-09
1.53496e-10
-4.1004e-09
-2.3959e-09
2.37614e-09
3.05215e-09
-6.01902e-09
-1.28322e-09
2.39471e-10
2.3062e-10
-1.16512e-10
-5.93408e-09
6.93528e-09
2.00061e-10
-1.20127e-09
3.26502e-09
-3.65044e-09
-2.82973e-11
-6.40121e-10
-3.18403e-09
4.84082e-10
4.33949e-09
3.51152e-11
-8.13532e-11
4.01832e-09
-4.02449e-09
1.40275e-11
-7.86127e-12
5.56878e-09
-3.37059e-10
-4.91882e-09
-3.12909e-10
4.74017e-09
-3.02009e-10
-4.19469e-09
-2.43471e-10
4.84366e-09
-3.06987e-10
-4.28517e-09
-2.51507e-10
4.93616e-09
-3.10912e-10
-4.36552e-09
-2.59728e-10
6.25911e-09
-3.64802e-10
-5.51762e-09
-3.76691e-10
6.04012e-09
-1.23669e-09
3.02587e-10
4.40006e-09
-4.37129e-09
-6.64221e-11
3.76563e-11
3.96e-09
-7.53542e-11
9.90474e-10
3.87792e-09
-7.53225e-11
9.72288e-10
-1.3899e-10
2.2205e-10
-4.4938e-09
-7.10105e-09
9.65506e-10
7.90335e-11
6.05651e-09
4.80022e-09
-3.45865e-12
4.05793e-12
-4.02995e-09
4.03541e-09
3.84734e-12
-9.31037e-12
2.85702e-09
-3.17995e-09
3.69955e-09
-3.37662e-09
5.08768e-09
-5.04479e-09
-6.45919e-11
2.17086e-11
-4.41394e-09
-1.55882e-12
8.84266e-12
-3.96472e-10
4.22514e-09
-4.74329e-10
4.58885e-09
-4.56687e-09
-1.98194e-11
-2.16071e-12
-2.20136e-10
9.74204e-11
-1.89638e-10
5.56881e-10
-1.95486e-10
5.78388e-10
-1.92876e-10
5.68113e-10
-6.36483e-10
-6.75218e-11
4.58192e-09
-6.51262e-10
-6.88321e-11
4.68009e-09
-5.07519e-09
5.01886e-09
-1.87241e-10
2.43579e-10
5.1845e-09
5.584e-11
-7.67655e-11
6.32193e-11
-2.42505e-10
-3.95225e-09
3.9801e-10
8.17364e-10
-4.49645e-09
2.70657e-11
6.74983e-10
9.31835e-10
-2.81792e-10
1.02944e-09
2.13433e-10
1.07228e-09
2.226e-10
1.05207e-09
2.17966e-10
3.14562e-09
-3.09945e-09
-3.45488e-09
3.14919e-09
-2.98404e-09
3.28973e-09
-6.38508e-09
-7.10046e-10
5.97265e-09
1.12247e-09
-5.33337e-09
5.36638e-09
-4.24464e-11
9.4416e-12
-1.29297e-11
9.14124e-12
-2.42365e-10
-4.50575e-09
-7.39536e-11
5.62728e-11
-7.73157e-11
5.92229e-11
-7.56197e-11
5.77077e-11
5.75254e-09
-5.77073e-09
-5.67896e-11
7.4978e-11
3.62546e-09
-3.34345e-09
-3.15469e-09
2.87269e-09
-4.05628e-09
-4.24664e-10
-2.32869e-11
4.50423e-09
-1.04483e-09
2.95255e-10
4.01268e-09
-3.23703e-09
-5.15385e-09
5.59714e-09
-8.54966e-10
4.11675e-10
4.40109e-09
-8.02446e-10
-2.55266e-10
4.45765e-09
3.15928e-11
-6.44572e-11
3.17905e-09
-3.571e-09
-3.06294e-09
-1.03024e-10
1.39087e-10
-1.08837e-10
7.27752e-11
-4.19333e-09
4.24841e-09
-7.3558e-11
1.84776e-11
-4.27038e-09
4.32638e-09
-7.49333e-11
1.89328e-11
-4.10593e-09
4.15988e-09
-7.20077e-11
1.80579e-11
-3.57915e-09
4.04994e-09
2.88288e-09
-3.35367e-09
-3.24633e-09
-2.00804e-09
4.25041e-09
-1.412e-11
6.83564e-10
-3.35681e-10
6.64655e-10
-2.12255e-10
3.89499e-09
8.18195e-10
-4.50093e-09
1.61101e-09
-3.6873e-11
9.87791e-10
6.78608e-10
4.0008e-09
-2.03689e-10
1.24911e-09
3.79306e-09
-5.16742e-11
9.39159e-10
-4.0555e-11
1.07843e-10
2.84113e-10
-3.51401e-10
-5.85151e-09
-6.64531e-10
-1.43204e-11
6.53036e-09
-1.4501e-10
7.72696e-11
-5.11903e-09
5.12452e-09
8.61021e-12
-1.41008e-11
4.29965e-09
-1.08345e-10
1.15007e-09
-4.71437e-10
1.07157e-10
-4.88242e-10
3.85162e-09
-4.64156e-09
1.27818e-09
-3.86951e-09
3.95501e-09
-6.79828e-10
-1.49809e-10
4.20287e-09
4.17809e-09
-5.21344e-09
4.40293e-09
-3.36758e-09
5.5031e-09
-1.08048e-09
-2.83037e-10
1.15762e-09
-8.07753e-11
6.66349e-10
-8.74776e-12
3.80167e-09
-4.99305e-09
1.90667e-09
-7.15298e-10
-2.48518e-09
-6.10242e-09
5.98848e-09
2.59912e-09
-4.78032e-09
4.77341e-09
-1.01022e-12
7.9212e-12
-5.23729e-09
1.83796e-09
5.35136e-09
1.68454e-10
-7.9929e-11
8.20936e-11
-1.70619e-10
-5.9922e-09
-2.96259e-09
6.46961e-09
-4.23659e-09
3.73829e-09
7.11796e-10
-2.13494e-10
-4.07409e-09
3.59521e-09
6.84071e-10
-2.05193e-10
-4.16051e-09
3.67136e-09
6.98762e-10
-2.09609e-10
-3.79767e-09
-1.60586e-10
-6.92891e-10
-2.48268e-09
-2.32349e-09
-2.06312e-09
-5.09976e-09
2.77791e-09
5.71395e-09
-1.51774e-09
1.14194e-09
-3.24444e-09
-3.44015e-09
3.93342e-09
1.24575e-10
2.05942e-10
-1.62063e-10
-4.03588e-09
1.6125e-13
5.77553e-12
-2.08298e-10
-2.75488e-11
-7.70038e-09
5.87135e-09
-4.27536e-09
-3.98927e-09
4.43386e-09
-4.25893e-10
-1.86939e-11
-4.50059e-09
5.03058e-09
-5.05187e-10
-2.47984e-11
-4.29617e-09
4.29537e-09
3.9742e-09
2.74917e-09
-2.18271e-09
1.45716e-10
-5.65053e-11
1.80207e-10
2.69229e-10
-2.37281e-10
-5.21941e-09
5.93953e-09
-7.15048e-10
-5.07825e-12
4.48537e-09
-5.31616e-09
-1.17698e-10
2.06973e-10
3.24755e-09
-4.91253e-09
4.39424e-09
-2.72926e-09
-4.6979e-09
5.34019e-09
-6.35278e-10
-7.01228e-12
-6.51063e-09
6.81874e-09
-8.00849e-09
-1.69964e-13
1.1238e-11
5.00518e-09
-1.20078e-10
1.36245e-09
-2.03961e-10
-5.54134e-11
1.2408e-11
-7.94525e-12
1.28578e-11
-8.3349e-12
1.26522e-11
-8.13809e-12
-4.78538e-09
-9.94555e-10
3.69172e-10
6.6369e-10
-2.26655e-11
8.99577e-10
-3.52612e-11
-6.79491e-11
-2.60249e-10
1.06395e-11
3.58898e-13
3.41396e-09
3.15076e-09
-2.35712e-09
-4.2076e-09
-5.71128e-09
6.39911e-09
-6.92284e-10
4.45263e-12
3.84395e-09
2.21955e-09
-2.17943e-09
4.06854e-09
5.29723e-11
-3.51814e-11
5.05385e-10
3.00376e-10
-7.91057e-11
7.98311e-11
3.80435e-09
3.47772e-09
-3.2694e-09
8.4713e-13
8.75528e-12
-2.128e-09
1.75654e-09
3.15055e-09
3.12956e-09
3.16301e-10
-3.44586e-09
-4.18416e-09
3.63968e-09
7.81027e-10
-2.36549e-10
1.67607e-11
-1.66449e-11
1.74223e-11
-1.72221e-11
1.71176e-11
-1.69682e-11
1.81807e-10
-2.314e-10
-4.52787e-09
3.99568e-09
7.58638e-10
-2.26451e-10
-4.80063e-09
8.87025e-10
-1.60485e-10
-4.994e-09
9.2392e-10
-1.6651e-10
-4.90317e-09
9.0644e-10
-1.63784e-10
4.42245e-09
-6.79303e-11
4.55384e-11
3.62552e-09
-7.04144e-10
-4.86809e-09
1.94671e-09
-5.0323e-09
4.44016e-09
8.42604e-10
-2.50463e-10
9.90167e-11
4.28976e-10
-1.98543e-10
-2.05942e-10
2.37281e-10
4.60683e-09
-6.22239e-11
4.42473e-11
1.12363e-09
-3.71437e-09
-9.82722e-10
3.18045e-13
1.14191e-11
3.96089e-11
-1.28418e-11
4.48811e-09
-4.83333e-09
4.00173e-10
-5.49462e-11
-8.41549e-09
4.49158e-09
7.29006e-09
5.11382e-09
-8.70859e-11
6.09394e-11
-4.5396e-09
-7.76151e-11
3.11012e-12
-4.80225e-09
-2.20281e-10
-9.64968e-11
6.9035e-10
-2.62441e-10
7.31115e-11
-1.51254e-10
8.3156e-11
-1.76622e-10
3.99242e-09
1.14528e-11
1.44446e-11
1.17937e-11
-9.10873e-13
8.76304e-11
-1.78703e-10
3.14721e-10
-3.1119e-10
3.46211e-09
4.03922e-09
-3.64437e-09
1.01231e-10
-2.06815e-10
1.11925e-11
4.75601e-10
-4.28486e-10
-5.83078e-11
4.8217e-11
-4.50631e-11
1.06571e-09
-2.19295e-10
5.71389e-09
1.49382e-11
2.37103e-11
4.09718e-09
-4.32945e-09
4.23084e-09
9.89233e-10
-1.7691e-10
5.16271e-09
4.83614e-10
1.74961e-09
6.25758e-10
-6.56582e-11
7.90295e-11
-1.04967e-10
3.34828e-12
-3.91249e-12
2.87576e-09
2.05866e-09
-2.49401e-09
-2.44041e-09
-7.4123e-09
8.43796e-09
7.69774e-09
-8.7234e-09
4.28815e-10
-3.95799e-10
-2.18233e-11
4.98883e-13
1.04241e-11
-5.72502e-09
5.514e-09
2.30143e-10
-1.91261e-11
7.72792e-11
-7.46674e-11
1.09969e-09
-1.92452e-10
2.34344e-10
3.18942e-10
-3.14721e-10
-5.60915e-09
6.04019e-09
-8.04331e-10
3.73294e-10
-6.25684e-09
-1.00765e-09
1.61733e-09
5.64716e-09
1.79976e-10
-3.53563e-10
-4.3323e-09
2.65059e-09
4.50348e-09
-2.82177e-09
3.50201e-09
-1.29937e-10
1.06179e-09
-2.36516e-09
2.69822e-09
-6.43549e-09
2.09976e-09
4.71941e-09
-2.82538e-09
-3.9938e-09
-3.99445e-11
5.22001e-11
3.92427e-09
-4.22455e-09
-3.12248e-09
3.42276e-09
4.16305e-09
-2.59474e-10
5.1691e-09
-1.36718e-10
1.36673e-09
-4.93152e-09
3.06749e-09
3.01554e-09
-1.15152e-09
3.82004e-09
-3.24039e-11
-2.85628e-10
3.36405e-09
-3.19371e-09
2.66767e-09
-2.83801e-09
-4.97468e-09
6.69419e-10
-1.30389e-09
3.15707e-09
-3.24453e-09
1.72876e-09
-2.57959e-10
-1.7269e-09
2.56099e-10
3.58999e-09
3.06833e-09
-2.61224e-09
-4.04609e-09
-7.18434e-09
2.59945e-09
-2.47738e-09
-4.10118e-09
-2.97751e-09
3.97589e-09
3.1028e-09
4.76043e-09
-3.44382e-09
2.09735e-09
4.14325e-09
3.80278e-09
-2.63496e-09
-2.34346e-09
1.98528e-09
5.74325e-09
2.34866e-13
-5.74381e-10
-4.00446e-09
5.11203e-10
-4.79908e-09
7.684e-11
4.66995e-09
5.22914e-11
-3.53655e-09
2.8878e-09
-2.44465e-09
2.4123e-10
-3.35064e-10
3.24255e-10
2.01532e-09
-2.8719e-09
-1.06861e-10
-4.54673e-09
3.78597e-10
3.55504e-10
-3.83638e-09
-5.67692e-09
4.81688e-09
-2.23012e-09
3.09015e-09
2.96826e-09
-2.90504e-09
-2.72169e-09
-5.91349e-09
7.00731e-09
1.62788e-09
2.31e-09
-4.43951e-12
-3.68565e-11
4.70111e-10
-2.4048e-09
-6.14935e-09
5.75094e-09
2.80321e-09
8.69757e-10
3.53368e-09
-3.47108e-09
-9.32357e-10
-5.75161e-09
-2.60575e-09
-1.11757e-09
-7.18361e-09
5.92747e-09
2.37371e-09
-1.80346e-09
1.39804e-09
1.13494e-09
-3.7749e-09
5.00875e-09
-2.36878e-09
1.44901e-09
-1.41429e-09
-3.21937e-09
7.19434e-11
-5.42974e-09
9.58917e-10
4.39887e-09
-3.57556e-09
4.71977e-09
-5.04277e-09
-4.50656e-09
1.73774e-09
3.90376e-09
3.92513e-09
4.6254e-09
-5.59973e-09
-2.9508e-09
5.88478e-10
-3.36779e-09
2.36267e-10
-6.89762e-10
-3.00898e-09
3.10083e-09
-3.58756e-09
3.4957e-09
2.21584e-09
-2.97489e-09
-1.68584e-09
-3.80564e-09
-2.80793e-09
4.37871e-09
-2.03217e-10
5.86317e-09
7.44913e-10
-6.40486e-09
3.09945e-09
-3.15707e-09
-3.65696e-09
-3.36228e-09
3.58151e-09
-5.71291e-09
5.49368e-09
5.61488e-09
-4.27656e-09
-5.65865e-09
-3.38335e-09
3.31112e-09
4.21549e-09
-4.08001e-09
8.17589e-11
4.11805e-09
-1.19799e-10
3.29069e-09
4.88958e-10
-3.58298e-09
-1.96673e-10
6.10511e-09
-2.83832e-09
-2.77409e-09
3.08387e-09
-1.95248e-09
-5.28029e-09
8.47692e-10
3.87221e-10
4.82899e-09
-1.05797e-09
5.04918e-09
-4.13855e-09
2.1215e-09
-3.03213e-09
-1.33778e-10
1.17882e-10
-9.44943e-09
2.40499e-09
-1.53036e-09
8.5748e-09
-2.77006e-09
3.0797e-09
4.99774e-11
-1.27638e-09
-5.70118e-09
6.92759e-09
4.27132e-11
-5.09023e-09
-1.13144e-09
6.17896e-09
3.21802e-11
-9.58112e-10
-4.34881e-09
5.27474e-09
3.42874e-11
-9.98905e-10
-4.52389e-09
5.4885e-09
3.31831e-11
-9.79339e-10
-4.44175e-09
5.38791e-09
4.06057e-09
-3.97362e-09
9.81608e-11
-1.8511e-10
4.22425e-09
-4.13399e-09
1.02557e-10
-1.92813e-10
4.14738e-09
-4.0587e-09
1.00474e-10
-1.89156e-10
2.37337e-09
-2.38614e-09
3.69918e-09
-3.68641e-09
-2.98098e-09
-3.75311e-09
3.96e-09
3.58403e-10
-3.8137e-09
4.09564e-11
-3.46923e-09
7.482e-10
-9.82816e-10
3.70385e-09
4.55937e-10
3.93569e-09
-2.93254e-09
3.05088e-09
-2.75404e-10
4.44386e-09
-4.38071e-09
3.55354e-09
-3.65712e-09
3.88988e-09
-5.90628e-10
-2.86777e-09
2.80576e-09
6.52633e-10
-3.76946e-09
3.98181e-09
-6.34419e-10
2.48529e-09
-5.75883e-09
7.68759e-09
-4.41405e-09
4.774e-10
-5.37252e-09
2.14664e-11
3.95444e-09
5.80645e-10
7.91061e-09
-7.15861e-09
-2.81706e-09
-2.77616e-09
-6.05005e-09
2.73569e-09
8.23918e-09
-1.58492e-10
-8.42751e-09
3.46819e-10
-9.21463e-10
-4.04869e-09
1.20069e-09
9.30234e-11
-1.71112e-10
-8.61883e-11
1.64277e-10
2.53978e-10
5.16049e-09
1.11412e-09
-6.52858e-09
-1.92276e-09
-9.75333e-11
2.3036e-09
-2.83306e-10
-1.85918e-09
2.79584e-09
4.00873e-09
-3.5337e-09
-3.72934e-09
-5.63367e-10
1.74088e-11
4.27529e-09
-2.39893e-10
-3.31339e-10
3.3766e-10
-1.26504e-09
-3.88838e-09
1.32893e-09
7.02081e-09
-2.59441e-09
-6.49861e-09
2.0722e-09
5.21351e-09
3.50255e-10
-6.56411e-09
1.00034e-09
3.194e-09
5.58318e-10
-3.75231e-09
-3.28887e-09
6.44087e-09
2.67906e-09
-5.83107e-09
-2.35668e-10
1.61699e-10
3.99284e-09
3.03873e-09
-3.2793e-09
-3.75226e-09
4.78598e-09
-6.73846e-09
-2.33132e-09
5.31859e-10
2.77822e-09
-9.78759e-10
4.26275e-09
-4.02817e-09
1.4709e-10
-3.81668e-10
-2.83999e-09
3.68544e-09
4.39097e-09
-5.23641e-09
-2.64348e-09
3.57819e-09
4.15435e-09
-5.08906e-09
-3.17129e-09
4.05617e-09
4.92236e-09
-5.80724e-09
-2.5002e-09
3.30302e-09
3.853e-09
-4.65582e-09
4.68421e-10
-4.35745e-09
4.58734e-09
-6.98312e-10
-3.56077e-09
4.62686e-09
5.6684e-09
-6.73448e-09
3.94239e-09
4.87589e-09
-4.19769e-09
-4.62059e-09
-3.05486e-09
6.98352e-09
3.09215e-09
-3.67541e-09
3.64437e-09
-3.12476e-10
3.33217e-10
8.61367e-11
-5.18624e-09
5.17012e-09
-7.00186e-11
1.58988e-09
-3.55039e-09
-1.91549e-09
3.87599e-09
6.4224e-09
-2.55453e-09
-6.46228e-09
4.5124e-09
-4.41905e-09
1.08876e-10
-2.02234e-10
3.75313e-10
6.10444e-10
-2.26852e-09
-3.24456e-09
2.99744e-09
2.51564e-09
3.93989e-09
-6.0439e-09
-4.05026e-09
6.15427e-09
-1.26302e-10
5.97463e-10
-8.16442e-12
-4.05183e-11
3.44624e-10
-2.95941e-10
-3.97399e-09
3.99322e-09
1.5729e-11
-3.49624e-11
-3.64535e-09
4.26958e-09
-4.39921e-09
5.32802e-09
2.5239e-09
-5.49798e-09
-2.35394e-09
3.49727e-09
5.77314e-09
-3.31699e-09
-3.38995e-09
3.93688e-09
-4.74372e-09
-7.01466e-10
1.43648e-09
4.0087e-09
-5.99839e-09
-8.61412e-10
1.72412e-09
5.13568e-09
-5.18996e-09
-8.13662e-10
1.59644e-09
4.40718e-09
-5.37374e-09
-7.8309e-10
1.58408e-09
4.57275e-09
-6.97559e-09
-1.05958e-09
1.99988e-09
6.0353e-09
5.15902e-10
-1.52525e-10
-6.08839e-09
-3.20227e-09
3.10764e-09
-4.11027e-09
4.20491e-09
-3.67836e-09
-1.27233e-09
-2.18337e-09
4.57726e-09
4.28339e-09
-6.67727e-09
3.89534e-09
-4.22598e-09
-2.9138e-09
5.99216e-10
4.1785e-10
-8.36696e-10
-1.8037e-10
3.05501e-09
5.06452e-09
-4.16163e-09
-4.54824e-09
-6.00691e-09
5.92699e-09
-2.12803e-11
1.01201e-10
5.8465e-09
-4.30815e-09
2.89112e-09
-4.14849e-09
-1.34355e-11
4.22489e-09
-6.29599e-11
3.54875e-09
-5.34653e-10
-3.04239e-09
-2.83881e-09
2.95712e-09
6.0493e-09
1.55545e-09
-3.15925e-09
-4.4455e-09
6.45184e-09
1.33205e-09
-2.74151e-09
-5.04237e-09
2.58914e-09
-5.94097e-09
2.7189e-09
-1.79318e-09
-3.26338e-09
2.33766e-09
-3.01149e-09
-3.67885e-09
3.85153e-09
1.29291e-10
-5.99627e-09
4.29974e-09
1.56724e-09
1.45086e-09
2.98563e-10
3.95437e-09
2.73475e-10
-2.79809e-09
7.78499e-09
-4.73573e-09
-6.01186e-09
-2.52452e-09
-1.86906e-10
2.91079e-09
-8.25885e-10
1.57593e-09
5.50907e-09
-7.47228e-10
1.45384e-09
4.86217e-09
-6.71569e-10
1.32693e-09
4.2808e-09
-6.4784e-10
1.28619e-09
4.10182e-09
-6.60856e-10
1.3088e-09
4.19571e-09
-8.20922e-10
-8.71351e-10
-5.59226e-09
7.28453e-09
-2.80629e-09
2.69533e-09
2.14732e-10
-1.03774e-10
-3.64215e-09
7.08456e-10
3.18077e-09
-2.47074e-10
-3.79551e-09
4.33402e-09
5.41286e-09
-5.95138e-09
-2.85804e-09
3.40118e-09
4.04137e-09
-4.5845e-09
-2.92145e-09
3.46796e-09
4.13275e-09
-4.67926e-09
-2.9789e-09
3.52497e-09
4.21646e-09
-4.76252e-09
-3.36796e-09
3.91985e-09
4.78266e-09
-5.33456e-09
3.35537e-09
2.67385e-09
-9.64697e-10
3.03854e-09
-3.93313e-09
4.25864e-09
5.67409e-09
-5.73805e-10
3.65829e-10
-5.46611e-09
4.42961e-09
1.79369e-10
-4.13158e-09
-3.79296e-09
-9.04129e-10
4.06682e-09
-5.96746e-09
-4.42024e-09
6.32088e-09
1.21963e-09
-6.17717e-09
-1.71386e-11
1.48418e-09
-6.29702e-10
-5.39906e-09
4.54458e-09
-1.64152e-10
-2.92912e-09
3.09328e-09
-2.87171e-09
-1.71464e-09
6.23662e-09
-5.63956e-09
-2.00395e-09
-3.04931e-09
3.66607e-09
1.3872e-09
3.45186e-09
-3.34112e-09
3.03846e-09
-5.33949e-09
8.29382e-10
4.67591e-09
-1.65796e-10
-2.66761e-09
1.04087e-09
-5.94192e-09
5.15503e-09
2.3568e-10
-1.12888e-08
-6.7062e-09
1.05827e-08
3.18102e-09
-2.81317e-09
3.52749e-09
1.09178e-09
3.26226e-09
3.45839e-09
-2.48261e-09
3.62089e-09
-4.59666e-09
3.21573e-09
1.16202e-08
-1.25968e-09
-1.35762e-08
-5.55011e-09
3.75768e-09
4.97028e-09
-1.44981e-09
1.5355e-09
3.28874e-09
-3.37443e-09
1.75115e-09
-2.93282e-09
5.65676e-09
7.66332e-10
9.65436e-10
-9.54914e-10
-7.76854e-10
-5.31425e-09
-7.81987e-09
5.48794e-09