/*--------------------------------*- C++ -*----------------------------------*\
  =========                 |
  \\      /  F ield         | OpenFOAM: The Open Source CFD Toolbox
   \\    /   O peration     | Website:  https://openfoam.org
    \\  /    A nd           | Version:  8
     \\/     M anipulation  |
\*---------------------------------------------------------------------------*/
FoamFile
{
    version     2.0;
    format      ascii;
    class       surfaceScalarField;
    location    "3";
    object      phi;
}
// * * * * * * * * * * * * * * * * * * * * * * * * * * * * * * * * * * * * * //

dimensions      [0 3 -1 0 0 0 0];

internalField   nonuniform List<scalar> 
9107
(
4.38009e-09
-1.09955e-09
1.16273e-09
-4.44326e-09
-4.75472e-09
5.1296e-09
-2.2413e-09
1.86643e-09
-1.96276e-09
4.80957e-09
-4.22406e-09
1.37726e-09
5.445e-09
-1.26238e-09
-5.51917e-09
1.33656e-09
-1.93007e-09
-4.2177e-09
5.29474e-09
8.53024e-10
-5.46874e-09
5.30316e-09
8.89712e-11
7.6616e-11
5.64445e-09
-4.42181e-09
4.05445e-10
-1.62808e-09
-3.20021e-09
1.97731e-09
8.34742e-09
-7.12452e-09
5.43789e-09
-5.64268e-09
6.73506e-11
1.37439e-10
4.00206e-09
-4.48353e-09
4.26912e-11
4.38781e-10
5.3285e-09
-5.173e-09
-1.01798e-10
-5.37039e-11
-5.49174e-09
5.33607e-09
9.84806e-11
5.719e-11
-5.1281e-09
4.04116e-09
1.26676e-09
-1.79825e-10
5.62352e-09
-5.53153e-09
-7.17595e-10
6.25603e-10
-7.40514e-09
6.29674e-10
1.50387e-09
5.27159e-09
3.53341e-09
3.37184e-09
-3.52154e-09
-3.38372e-09
6.68837e-09
-8.53452e-09
-4.64108e-10
2.31026e-09
-6.68837e-09
7.42386e-09
-9.4187e-10
2.06381e-10
6.29735e-09
-5.99601e-09
1.72929e-10
-4.74275e-10
2.0813e-09
-1.79869e-09
-2.574e-09
2.29138e-09
-4.64653e-09
-8.08001e-10
2.54771e-10
5.19976e-09
5.30011e-09
-5.47444e-09
7.91261e-11
9.52042e-11
-5.18247e-09
-2.18041e-09
1.6839e-09
5.67898e-09
5.19954e-09
-9.83995e-10
-4.45627e-09
2.40724e-10
8.70663e-10
-5.03589e-09
-3.82277e-10
4.5475e-09
4.4807e-09
-2.03801e-09
-4.00515e-09
1.56247e-09
-6.21774e-09
-2.05179e-09
8.64399e-10
3.52252e-09
-3.35985e-09
3.02091e-09
-3.18358e-09
-2.62052e-09
-3.04407e-09
3.10294e-09
2.56165e-09
1.41725e-09
4.33459e-09
-4.23335e-10
-5.00659e-09
5.86184e-09
-9.4818e-10
9.29265e-11
-1.8085e-09
-3.85965e-09
4.85929e-09
8.0887e-10
-4.7623e-09
3.45263e-09
-8.7506e-11
1.39717e-09
4.33817e-09
-4.82976e-09
3.3806e-10
1.53534e-10
5.40277e-09
-1.5056e-09
2.05195e-09
-5.94911e-09
1.61852e-09
3.51767e-09
-5.1362e-09
5.92239e-09
1.96163e-11
-5.42567e-09
-5.16333e-10
-6.35945e-09
5.64715e-09
5.88301e-10
1.24004e-10
4.85393e-09
-9.17924e-10
-4.18403e-09
2.48022e-10
-1.46257e-08
-2.74118e-09
7.32836e-09
1.00385e-08
-1.39248e-08
4.5706e-10
-8.85709e-11
1.35563e-08
-2.51517e-09
2.93533e-09
2.95913e-09
-3.37929e-09
6.65377e-09
-1.38119e-10
-2.18296e-10
3.37885e-09
-3.82305e-09
-3.3067e-09
3.7509e-09
2.63025e-09
-3.09902e-09
3.23149e-09
-2.76272e-09
1.22917e-09
-5.65715e-09
-7.54501e-10
-3.16569e-09
3.40389e-09
-2.91364e-09
2.67544e-09
-4.72943e-09
4.45536e-09
2.03172e-11
2.53755e-10
-1.14395e-09
5.69705e-10
-4.69162e-09
5.26587e-09
3.60239e-09
-3.4868e-09
-3.2576e-09
3.14201e-09
-5.60423e-09
-8.68785e-10
-9.47897e-10
7.42091e-09
-5.03533e-10
6.64704e-11
1.08044e-10
8.92572e-10
1.88258e-10
1.21535e-10
3.38194e-09
-3.19566e-09
-1.00412e-08
9.85497e-09
-3.04344e-10
-1.47262e-11
-2.07435e-09
3.00287e-09
1.65734e-09
-2.58585e-09
-7.87841e-09
5.79763e-09
-8.08748e-10
2.88953e-09
7.2486e-09
-2.07237e-09
2.1216e-10
-5.3884e-09
-2.15463e-09
-2.10429e-09
1.91305e-09
2.34586e-09
8.39076e-11
-8.21427e-11
-6.79385e-10
1.11541e-09
-5.15568e-10
1.47893e-10
-4.36799e-11
4.11355e-10
-3.70351e-09
-3.26555e-09
3.39958e-09
3.56948e-09
-3.26023e-09
2.9874e-09
-3.11068e-09
3.3835e-09
-4.91293e-09
5.10687e-09
-4.70588e-10
2.76653e-10
5.59178e-10
6.42526e-10
5.85232e-09
-4.93713e-10
1.32976e-09
4.5682e-09
3.7195e-10
4.62617e-10
-1.17617e-08
-6.12174e-10
-1.55088e-09
-9.34136e-11
-7.52167e-11
3.87889e-09
-3.60995e-09
-2.48137e-10
-2.08071e-11
2.42367e-09
2.24564e-09
-1.74188e-09
-2.92743e-09
-2.89659e-09
-3.26793e-09
3.14683e-09
3.01769e-09
-2.63522e-09
3.3375e-09
-3.02288e-09
2.32059e-09
6.79932e-09
2.92922e-09
-5.32273e-09
-4.40582e-09
6.05014e-10
-4.74888e-09
-5.8557e-10
-4.83577e-09
3.90534e-09
-4.65818e-10
1.39625e-09
-5.0931e-09
-5.16339e-09
5.10722e-09
5.14927e-09
-8.23968e-11
-1.06191e-10
2.39624e-09
-1.78141e-09
1.80883e-09
4.52447e-09
-6.93479e-10
2.66355e-10
-4.09735e-09
-3.17929e-09
-1.89959e-09
6.69866e-10
4.40902e-09
1.8114e-09
-4.46135e-09
-9.4452e-10
3.59447e-09
-1.97417e-09
2.52347e-09
-9.61062e-09
9.06132e-09
3.24796e-09
-3.40215e-09
3.96147e-09
-3.80728e-09
-3.45872e-09
3.54578e-09
2.82373e-09
-2.91079e-09
1.00084e-10
5.81939e-09
-4.74474e-10
-4.69127e-09
-8.90893e-11
-1.3257e-10
-5.00466e-09
4.20532e-09
-3.38924e-09
4.18858e-09
-3.5174e-09
-1.20989e-09
1.0157e-09
3.71158e-09
-2.16579e-10
-1.69163e-09
6.37524e-09
-4.46703e-09
-3.22286e-09
-3.80458e-09
3.76009e-09
3.26735e-09
3.27127e-09
-3.34654e-09
-3.51447e-09
3.58974e-09
-3.55758e-09
3.29208e-09
-3.95514e-09
4.22064e-09
-3.18202e-09
2.77757e-09
3.90004e-09
-3.49559e-09
6.18323e-10
-4.05472e-09
-8.10007e-11
-3.40084e-09
3.44325e-09
2.86175e-09
-2.90416e-09
-2.27897e-09
-4.93184e-09
5.22709e-09
1.98373e-09
3.86742e-09
3.73457e-09
-3.8047e-09
-3.79729e-09
-3.24666e-09
-3.58299e-09
3.60886e-09
3.22079e-09
1.32641e-08
3.25213e-09
-1.69421e-08
4.25861e-10
3.0838e-09
-3.15684e-09
-3.67383e-09
3.74686e-09
5.06206e-09
7.16736e-11
-1.97931e-10
-4.9358e-09
2.55518e-09
-2.82619e-09
-3.18571e-09
3.45673e-09
1.98503e-09
-4.65696e-09
-1.64068e-09
4.31261e-09
3.52844e-09
-3.33457e-09
3.60925e-09
-3.80311e-09
5.35591e-09
-5.83111e-10
2.89263e-10
3.64849e-09
-4.8063e-09
-4.89612e-09
6.05393e-09
2.16223e-09
-1.56715e-09
1.4175e-09
-2.01258e-09
3.14255e-09
-3.4071e-09
3.34835e-09
-3.09662e-09
-3.46731e-09
3.4071e-09
3.66077e-09
-3.47788e-09
-3.92852e-09
3.74563e-09
-4.67007e-09
4.09726e-09
7.01493e-11
5.02653e-10
3.11099e-09
-2.50796e-09
-3.19068e-09
2.58765e-09
-2.39535e-09
-3.37571e-09
2.46757e-09
3.30348e-09
-1.63881e-09
3.58163e-09
3.06343e-09
-2.46003e-09
-3.12849e-09
2.52509e-09
2.78723e-09
-2.7615e-09
2.97085e-09
-2.99659e-09
-2.28292e-09
-2.4999e-09
2.11321e-09
2.66962e-09
3.78626e-09
-3.7127e-09
-3.17019e-09
7.00709e-10
2.77605e-09
-3.47676e-09
9.56454e-10
6.45095e-09
-4.64037e-09
-2.76703e-09
4.7244e-09
-1.17267e-09
1.84406e-09
-5.39579e-09
2.43843e-09
-2.63166e-09
3.24748e-09
-3.05424e-09
-5.2604e-10
9.20103e-11
-8.15379e-11
2.78254e-09
-2.85171e-09
-3.40703e-09
3.4762e-09
-3.25957e-09
3.13982e-09
3.91546e-09
-3.79571e-09
2.80475e-09
-2.62563e-09
2.06652e-09
-5.35528e-09
1.27385e-09
-4.32746e-10
4.51418e-09
3.43204e-09
4.23745e-09
-4.11495e-09
-3.55453e-09
-4.55604e-09
-1.03319e-09
4.44527e-09
5.05439e-10
1.80402e-10
2.68836e-09
6.08907e-09
-7.31656e-09
-1.46088e-09
3.65841e-09
-3.41646e-09
3.80664e-09
-4.04859e-09
4.72552e-09
-5.21607e-09
-3.84064e-09
4.33119e-09
-1.12597e-08
7.09444e-09
-1.20653e-08
1.62305e-08
-4.34981e-09
4.62807e-09
2.91453e-10
3.01486e-09
-3.12763e-09
3.37926e-09
-3.26648e-09
5.74229e-09
1.30534e-09
-3.17747e-10
-6.72988e-09
6.78999e-10
3.10011e-09
-3.84502e-09
6.59078e-11
3.54402e-09
-8.54218e-10
-3.01758e-09
3.27777e-10
-1.91449e-09
2.4219e-09
-1.51331e-08
2.77919e-09
-2.96042e-09
3.188e-09
-3.00677e-09
2.4981e-09
-2.67563e-09
1.32549e-09
-1.14796e-09
5.34824e-09
-5.24311e-09
6.23708e-10
-7.28837e-10
4.57813e-09
4.46211e-09
-3.52886e-09
-5.51138e-09
-4.27139e-09
1.10311e-09
4.97968e-09
3.81703e-09
-5.66315e-10
2.93309e-10
2.42027e-09
6.23474e-09
-2.16867e-09
-6.48635e-09
3.86897e-09
-4.51709e-09
1.15791e-09
-5.09796e-10
4.49287e-09
9.49811e-09
-3.92394e-09
-1.0067e-08
6.00155e-09
-5.27232e-09
6.08824e-11
-7.90105e-10
-2.81724e-09
3.5026e-09
3.29425e-09
-3.9796e-09
-6.65551e-10
4.19358e-09
-3.70553e-09
1.77498e-10
5.6812e-09
-1.03664e-10
-5.83472e-09
2.57184e-10
1.28927e-09
-4.07997e-09
-5.64758e-10
3.35545e-09
2.04036e-09
-7.53153e-10
5.51211e-09
-3.28386e-09
3.50653e-09
-3.46932e-09
3.27466e-09
3.46932e-09
-3.47272e-09
6.02842e-10
4.47454e-09
-5.17938e-10
-4.55944e-09
-1.93329e-09
9.18732e-10
-1.99949e-09
3.01404e-09
-2.73807e-09
3.3781e-09
3.26156e-09
-3.90159e-09
-4.16971e-09
4.58093e-09
1.65013e-10
-5.76236e-10
4.07624e-09
4.02449e-10
2.45712e-10
3.7423e-09
-3.93468e-09
4.84388e-09
-4.6515e-09
2.75448e-09
-2.78968e-09
3.0285e-09
-2.99331e-09
5.94513e-10
-5.6424e-10
-1.39405e-10
5.65433e-09
-7.24731e-09
1.73239e-09
5.45544e-09
-2.62345e-09
-4.98218e-09
2.15019e-09
3.44675e-09
-3.37674e-09
3.29586e-09
-3.36587e-09
-2.74927e-09
2.7217e-09
-3.17817e-09
3.20574e-09
4.60548e-09
-4.58961e-09
-1.64059e-10
1.4819e-10
-4.05202e-12
-6.83908e-11
3.43268e-09
-3.39387e-09
2.867e-09
-2.90581e-09
-2.43146e-09
3.61946e-09
2.48136e-09
-3.66936e-09
3.77236e-09
-3.72689e-09
3.1196e-09
-3.16508e-09
6.75787e-09
8.06441e-09
-1.0516e-08
-4.30633e-09
2.66933e-09
2.78086e-09
-2.89502e-09
1.19951e-09
-4.81655e-09
4.56067e-09
-9.4363e-10
-2.93951e-10
-4.39514e-09
4.54648e-09
1.4262e-10
-1.73205e-09
2.97848e-09
1.91349e-09
-3.15992e-09
4.49451e-09
-4.60684e-09
-8.93718e-11
2.01706e-10
1.83526e-09
1.84492e-09
4.22159e-09
-7.90178e-09
-5.56165e-09
-2.41013e-10
4.91187e-09
8.90792e-10
-3.94158e-09
4.24098e-09
2.81349e-09
-3.1129e-09
3.27976e-09
-1.05015e-08
-2.5531e-09
9.77479e-09
-3.257e-09
3.67648e-09
3.54621e-09
-3.96569e-09
1.57347e-09
-4.4163e-09
3.63083e-09
3.80311e-09
-3.77317e-09
-3.6613e-09
2.79652e-09
4.73221e-09
2.14668e-09
-4.8446e-09
4.9437e-09
-5.6808e-09
4.47224e-11
6.92384e-10
3.85066e-10
5.28103e-10
4.4178e-09
-5.33097e-09
-3.00447e-09
3.37546e-09
3.46582e-09
-3.83681e-09
5.15616e-09
-4.78293e-09
3.91519e-09
-4.28842e-09
-8.44653e-09
-2.42365e-09
6.45456e-09
4.41562e-09
-3.97618e-09
-1.91948e-10
-5.23151e-10
-3.06127e-09
3.22949e-09
3.18013e-09
-3.34835e-09
-5.51748e-09
-2.22439e-10
2.08392e-10
2.83335e-09
2.99659e-09
-3.0474e-09
4.16737e-09
1.87523e-10
-5.37864e-10
4.829e-09
3.72515e-10
-6.0544e-09
8.52891e-10
6.32221e-09
1.31271e-09
-4.7057e-09
-1.77006e-09
8.32536e-09
2.58567e-09
-9.14097e-09
-3.59377e-09
3.65811e-09
-3.18858e-09
3.12425e-09
-4.68203e-09
-6.36466e-09
6.19874e-09
4.84795e-09
-2.84489e-09
-2.48024e-09
2.14584e-09
-1.2719e-08
-7.3918e-09
1.34505e-08
6.66034e-09
3.77214e-09
-3.74739e-09
3.14965e-09
-3.17439e-09
-2.46416e-09
4.17405e-09
-5.83277e-09
4.12288e-09
5.54176e-11
4.63963e-10
-4.56553e-09
4.04615e-09
-5.26411e-09
4.86348e-09
-3.8791e-09
4.27973e-09
-2.06603e-09
-9.72662e-09
6.37833e-09
5.41431e-09
-3.74443e-09
3.8257e-09
2.9542e-09
-3.08717e-09
3.26648e-09
-3.13352e-09
-4.76033e-09
4.78619e-09
1.34065e-10
-1.59922e-10
-4.56271e-09
1.2346e-09
3.32811e-09
3.30966e-09
-3.19722e-09
-3.02151e-09
3.31526e-09
3.64682e-09
3.11494e-09
-3.7469e-09
4.3011e-10
4.02376e-09
-4.40475e-09
-4.91147e-11
-1.58679e-09
-3.46841e-09
3.89347e-09
1.16173e-09
3.70546e-09
-2.79652e-09
-3.3731e-09
-4.5553e-09
-3.14723e-09
4.11054e-09
3.59199e-09
-1.183e-08
3.59158e-10
-2.90925e-10
4.5686e-09
-4.20817e-09
-1.61428e-10
-1.98994e-10
4.47198e-09
1.30027e-10
-4.34641e-10
3.76032e-09
-3.74842e-09
3.15113e-09
-3.16303e-09
-5.68269e-10
-5.3153e-11
9.53814e-11
-4.01601e-09
4.99454e-09
4.13335e-10
-1.39187e-09
-5.36503e-09
5.47883e-10
4.88894e-09
-7.17967e-11
3.4948e-09
-2.71674e-09
3.418e-09
-4.19606e-09
1.73217e-09
4.84485e-09
-9.09738e-10
-5.66729e-09
3.01721e-09
3.74944e-09
-3.67773e-09
-3.08892e-09
7.91092e-09
1.94701e-09
-7.61537e-09
-2.24256e-09
5.59017e-11
-5.92401e-10
5.36499e-10
-2.96632e-09
3.29168e-09
-3.21001e-09
-3.60925e-09
3.47272e-09
4.481e-09
-9.03885e-11
-4.68456e-09
3.76247e-09
-3.75982e-09
-3.16962e-09
3.16697e-09
-6.36799e-10
1.24432e-10
1.95455e-09
-3.06084e-10
-1.66306e-09
1.45988e-11
-5.20287e-09
4.74519e-09
-4.06396e-09
4.52164e-09
2.6905e-09
3.25033e-09
-3.12518e-09
-2.81566e-09
3.23787e-09
-3.17478e-09
3.54497e-09
-3.60806e-09
3.32249e-09
3.021e-09
-3.5643e-09
-3.27838e-09
-3.40275e-09
3.54073e-09
3.14041e-09
3.85964e-09
-3.83272e-09
4.26823e-09
-4.29515e-09
-3.38772e-09
3.70614e-09
-3.22207e-09
-3.54497e-09
3.50747e-09
-5.60056e-09
1.12774e-11
2.01818e-11
5.5691e-09
-5.27884e-09
2.37211e-11
-6.71414e-13
5.25579e-09
4.34244e-09
-1.98914e-11
-1.82374e-11
-4.30431e-09
-4.22444e-09
5.99234e-12
-2.91661e-11
4.24762e-09
4.5142e-09
7.16026e-12
-8.16081e-11
-4.43975e-09
4.4446e-09
1.29232e-11
-7.47807e-11
-4.38274e-09
4.62941e-09
-9.97623e-12
-2.42015e-11
-4.59524e-09
-5.33569e-09
-6.11372e-12
6.51034e-11
5.2767e-09
-1.44463e-08
1.15827e-08
9.49075e-10
-2.62182e-09
2.76746e-09
-2.78086e-09
3.34592e-09
4.00758e-09
-4.91507e-09
-3.32322e-09
2.75036e-09
3.36009e-09
-2.92101e-09
-3.6318e-09
3.15e-09
3.40281e-09
-2.82943e-09
-3.53697e-09
2.99979e-09
3.36661e-09
4.03661e-09
-3.84914e-09
4.04053e-09
-4.228e-09
3.91063e-09
-4.04105e-09
4.03515e-09
-3.90473e-09
-5.46689e-09
-8.35829e-11
7.60301e-11
-5.65758e-09
1.71899e-11
2.61683e-11
5.61422e-09
1.90666e-09
-9.49222e-09
8.7902e-09
-1.20463e-09
4.74683e-09
5.49308e-11
-1.2404e-10
-4.67772e-09
4.87347e-09
4.66146e-11
-1.05796e-10
-4.81429e-09
2.86051e-09
-3.67246e-09
-6.50297e-09
7.31493e-09
-2.03619e-09
-4.42219e-10
-6.05611e-09
1.56933e-09
-9.4102e-09
9.3408e-12
7.83153e-09
3.74296e-09
-4.32548e-09
-5.10887e-09
5.69139e-09
-1.01577e-08
4.14482e-09
-2.43363e-09
1.93738e-09
4.2631e-09
-5.97778e-09
-2.22697e-10
3.74313e-09
-3.74104e-09
-3.15746e-09
3.15536e-09
-3.70827e-09
3.75077e-09
3.15458e-09
-3.19707e-09
-2.99731e-10
4.24404e-09
5.50197e-10
4.05053e-09
-4.53031e-09
3.93252e-09
-3.45273e-09
-2.79632e-09
-3.31292e-09
2.78602e-09
-9.47785e-10
1.72556e-10
4.20803e-09
7.81402e-10
-4.432e-09
-5.5743e-10
-4.42797e-10
1.85011e-10
4.82599e-09
4.995e-09
2.11291e-11
-3.8806e-10
-2.68208e-09
-3.05928e-09
2.99209e-09
-3.90492e-09
3.87824e-09
4.79198e-09
-4.76529e-09
-3.33301e-09
-2.10743e-09
2.38755e-09
3.05289e-09
3.58893e-09
-3.24748e-09
6.60632e-09
-5.0374e-10
-1.89455e-09
3.38737e-09
-3.15454e-09
2.72291e-09
-2.95574e-09
-5.10565e-09
1.68116e-09
6.14341e-09
-2.71892e-09
-2.97085e-09
2.89502e-09
-6.18709e-10
2.63086e-11
-2.14788e-09
3.66479e-09
2.67567e-09
-4.19258e-09
-4.701e-09
-3.40228e-09
4.71556e-09
-3.22818e-09
3.24158e-09
4.81579e-09
-4.82918e-09
3.66758e-09
-3.64248e-09
-6.92093e-09
-1.3361e-08
5.83561e-09
-7.2944e-09
3.89513e-09
6.77753e-09
-3.37826e-09
-3.96849e-09
-3.59668e-09
4.08417e-09
3.481e-09
1.02063e-09
-7.76487e-10
4.13614e-09
-4.38029e-09
-4.64841e-09
-1.87537e-09
6.52378e-09
4.0216e-09
1.08347e-10
-4.66803e-09
5.38082e-10
-7.87546e-11
7.73891e-11
2.93637e-09
1.88904e-09
-1.91711e-09
-2.9083e-09
-2.71173e-09
-3.16355e-09
3.72739e-09
3.92832e-09
4.04859e-09
-4.23461e-09
-9.43451e-10
-4.34641e-10
5.94669e-09
-3.29157e-09
3.58766e-09
4.15537e-09
-4.45146e-09
4.34605e-09
-4.64041e-09
5.45052e-09
3.50087e-09
-4.77648e-09
-3.41158e-09
4.68718e-09
2.72049e-09
2.99331e-09
-2.99209e-09
-6.06531e-10
-1.21782e-11
-6.79032e-11
2.03117e-10
3.83344e-09
-3.96865e-09
-4.59365e-09
3.48991e-09
2.70364e-09
-1.59989e-09
2.74405e-09
3.05928e-09
-3.11283e-09
9.0976e-09
2.53988e-09
-1.65232e-09
-9.98516e-09
4.3865e-09
-4.4268e-09
-1.16903e-10
1.57209e-10
-6.58158e-10
1.63713e-09
5.62735e-09
3.57224e-09
-3.73551e-09
-3.01542e-09
3.17868e-09
-3.20809e-09
-3.21213e-09
3.78856e-09
7.01659e-09
-6.09748e-09
-9.76448e-10
5.73434e-11
-3.90613e-09
4.64137e-09
-4.5209e-09
3.78567e-09
-4.93326e-09
3.52979e-09
5.05196e-09
-3.94136e-09
-4.30521e-09
4.34165e-09
1.67054e-09
-1.98634e-09
3.81305e-09
-3.65148e-09
-3.3041e-09
3.14253e-09
4.82882e-09
-5.30617e-09
3.22017e-09
-3.26026e-09
-4.22076e-09
4.26084e-09
1.15142e-08
-2.67262e-09
-3.94256e-09
4.31508e-09
3.9532e-09
-3.79683e-09
4.60458e-09
-4.76096e-09
2.61692e-09
-5.61002e-09
5.68147e-09
-3.44441e-09
-3.80664e-09
3.77317e-09
-3.1517e-09
-3.6241e-09
-4.91178e-09
7.70365e-10
-6.42124e-10
4.78354e-09
-4.40255e-09
5.32479e-09
-4.03515e-09
3.1129e-09
7.3311e-10
5.11947e-09
-1.71217e-09
-4.14041e-09
3.22944e-09
-3.23687e-09
-4.21554e-09
4.22297e-09
2.53641e-09
-3.665e-09
4.57534e-09
3.63778e-09
-3.28253e-09
3.27983e-09
-2.56606e-09
3.26224e-09
-3.6566e-09
2.24137e-09
4.26912e-09
-3.188e-09
-3.78669e-09
-1.05117e-09
2.48262e-10
-4.5931e-09
4.85539e-09
-5.3603e-09
-3.64835e-09
4.20236e-09
-8.51286e-09
5.95349e-09
1.86642e-10
2.37272e-09
3.9538e-09
-1.4385e-10
-3.80995e-09
3.16429e-09
-2.64325e-09
2.72929e-09
3.85844e-09
-4.49021e-09
-4.82611e-09
5.45789e-09
-3.73019e-09
1.33243e-12
4.74155e-09
-1.01269e-09
3.86798e-09
3.10448e-09
-2.02283e-09
-4.94964e-09
-4.62837e-09
1.05823e-09
3.57014e-09
3.84271e-09
4.37176e-09
-4.26126e-09
3.70235e-09
6.7036e-10
-4.37271e-09
-4.97643e-09
4.45863e-09
3.85591e-09
-3.3381e-09
2.10414e-09
-1.66484e-09
-2.18117e-09
-1.13764e-11
6.157e-09
-6.04554e-09
-6.00467e-09
7.27193e-09
1.16016e-08
-1.28688e-08
4.98642e-09
-4.27576e-12
9.82375e-11
-5.08038e-09
-2.59287e-09
-2.97997e-09
3.00677e-09
-7.52532e-09
6.95277e-09
7.20587e-10
-1.4804e-10
-3.48334e-09
3.44189e-09
2.89009e-09
-2.84864e-09
7.79583e-10
-5.13356e-10
-4.15314e-09
3.88691e-09
-2.07063e-09
2.3235e-09
-5.24153e-09
4.98865e-09
3.49559e-09
-3.50747e-09
3.01226e-09
-3.16555e-09
5.30087e-09
-5.14758e-09
-1.88639e-09
4.87712e-09
1.74483e-10
-3.16522e-09
-5.43978e-10
4.2604e-09
-4.38198e-09
3.71487e-09
4.62865e-09
1.35434e-10
-2.92105e-10
4.58489e-11
-1.77526e-10
8.25057e-10
4.12728e-09
-3.69417e-09
-1.25817e-09
1.14052e-10
-6.11935e-09
6.23758e-09
-2.32292e-10
-5.54744e-12
-4.27352e-09
4.23517e-09
4.38948e-11
-2.5902e-11
-5.69265e-09
5.65907e-09
5.9481e-11
2.29155e-11
4.57875e-09
-4.51242e-09
-8.92427e-11
2.39831e-11
4.38134e-09
-4.28206e-09
-1.23263e-10
-3.6526e-09
6.97391e-11
4.15094e-09
-5.68081e-10
-6.51364e-12
4.39264e-09
-4.36686e-09
-1.92717e-11
5.22832e-12
-5.35729e-09
5.32613e-09
2.59269e-11
8.44185e-12
-5.99752e-09
6.06308e-09
-7.4007e-11
2.55893e-12
-4.22873e-09
4.20723e-09
1.8938e-11
7.32709e-12
-5.66494e-09
5.64294e-09
1.46692e-11
-3.89034e-09
6.88964e-11
4.40953e-09
-5.88088e-10
1.07804e-11
-5.32732e-09
5.30102e-09
1.55242e-11
-3.68593e-09
6.21758e-11
4.16499e-09
-5.41242e-10
-5.52556e-12
4.37111e-09
-4.34611e-09
-1.94675e-11
-5.9365e-09
-7.03931e-12
5.97615e-09
-3.26067e-11
1.56015e-11
-5.6549e-09
5.63396e-09
5.3445e-12
1.65547e-11
-5.30659e-09
5.28097e-09
9.06857e-12
1.78415e-11
-5.64205e-09
5.61894e-09
5.26732e-12
1.47393e-11
-5.62314e-09
5.59286e-09
1.554e-11
6.86324e-09
-6.35993e-09
-6.55463e-10
1.52152e-10
-2.4175e-09
-7.77927e-09
8.42672e-09
3.74912e-09
-3.204e-09
-3.88147e-09
3.33636e-09
-1.59336e-09
5.20506e-09
2.57266e-10
2.75061e-09
-2.81851e-09
5.17293e-09
-4.91763e-09
-7.01074e-10
4.45773e-10
-3.79378e-09
-2.32546e-11
-3.91137e-10
3.35714e-09
-3.58403e-09
3.79767e-09
-3.57078e-09
2.68349e-09
-3.69564e-09
-4.11267e-09
5.12482e-09
-4.68008e-09
4.92262e-09
6.17442e-09
-7.03046e-09
-1.94524e-09
2.80128e-09
2.8706e-09
-3.4172e-09
3.30108e-09
2.37544e-09
-7.54282e-09
4.90727e-09
2.6011e-10
2.88576e-09
-2.97513e-09
-7.70964e-10
1.42325e-09
4.52065e-09
-5.66344e-09
1.5646e-08
4.04248e-09
-1.4025e-08
-2.58603e-09
-2.78352e-10
2.86438e-09
3.42829e-09
-4.16362e-09
5.08138e-09
3.71171e-09
-5.32258e-09
4.29436e-09
2.21354e-10
-5.40257e-10
3.22626e-09
3.49035e-10
-3.13229e-10
-5.64199e-10
5.28393e-10
-3.19285e-09
3.4293e-09
-3.15746e-09
-3.14164e-09
3.42331e-09
-3.1111e-09
-3.0285e-09
3.0474e-09
-3.10108e-09
2.77913e-09
-2.87346e-09
3.1954e-09
-5.47812e-09
-2.89509e-09
8.37321e-09
3.33777e-09
3.09791e-09
-3.22231e-09
3.18713e-09
-4.12699e-09
4.16217e-09
2.23323e-10
1.11742e-09
-1.34995e-09
9.20508e-12
-3.19153e-12
4.14819e-09
-4.08701e-09
-5.79891e-11
-3.48562e-09
4.13201e-09
3.23253e-09
-3.87892e-09
1.41918e-10
-2.67513e-10
-5.53569e-09
-4.26547e-09
3.18384e-09
6.61733e-09
4.59282e-09
8.06636e-11
-4.79899e-10
-3.97892e-09
1.27255e-09
4.26522e-09
-1.55885e-09
-1.80057e-09
-1.30695e-08
1.01881e-08
5.93289e-09
-5.37842e-09
-4.90375e-09
4.34928e-09
3.40081e-09
-3.29586e-09
9.03057e-10
-1.29905e-09
1.46061e-08
-1.42101e-08
2.6702e-09
3.15746e-09
-3.00948e-09
-2.81818e-09
2.61848e-09
3.1111e-09
-2.96027e-09
-2.7693e-09
-3.87952e-09
2.07703e-10
4.27466e-09
3.95717e-09
-4.47982e-09
3.87675e-09
-4.39992e-09
-6.08988e-09
-1.10616e-09
5.29071e-09
1.90533e-09
-5.88004e-09
-1.4954e-10
5.74478e-09
2.84802e-10
-5.44159e-09
-5.45538e-11
5.37153e-09
1.24609e-10
-4.38131e-09
-5.99374e-11
4.30821e-09
1.33039e-10
3.05389e-09
-3.21795e-09
5.24164e-09
-5.19575e-09
1.25895e-11
-5.38364e-09
5.35948e-09
1.15709e-11
-1.31359e-11
4.63143e-09
-4.59067e-09
-2.76306e-11
2.35284e-11
4.32883e-09
-4.25963e-09
-9.27363e-11
-7.70835e-12
4.42512e-09
-4.38723e-09
-3.01846e-11
-7.86564e-12
4.42506e-09
-4.39852e-09
-1.86805e-11
-4.47627e-12
4.66741e-09
-4.63779e-09
-2.51434e-11
-3.95668e-09
1.22918e-10
4.55128e-09
-7.17516e-10
-1.02573e-10
-4.0678e-09
3.61249e-09
5.57888e-10
-5.19807e-09
6.92114e-09
-7.40348e-09
5.68041e-09
3.19744e-09
-3.42587e-09
-4.16652e-09
4.39495e-09
-1.23637e-09
1.68425e-08
-1.4703e-08
-3.21501e-09
3.10667e-09
-3.98362e-09
-2.61206e-09
3.48901e-09
-4.95546e-09
4.96028e-09
4.83653e-12
-9.65838e-12
-3.32839e-09
-4.52819e-10
3.78121e-09
-5.2768e-09
4.97241e-09
1.00036e-09
-6.95971e-10
3.80201e-09
-5.09509e-09
-3.60304e-09
-5.08189e-12
3.7581e-09
-3.75302e-09
3.568e-09
-3.5772e-09
3.25121e-09
-4.30231e-09
4.36077e-09
-3.8781e-09
3.75256e-09
5.34642e-09
3.29374e-11
-4.63336e-09
4.71565e-09
-1.15224e-10
3.55564e-11
-4.55629e-09
4.63296e-09
-1.1223e-10
-7.66177e-10
8.10641e-09
-1.59795e-09
4.91281e-09
1.98898e-11
-3.8622e-10
1.13696e-09
4.78796e-09
-1.36933e-09
-4.55559e-09
3.07181e-09
-3.32625e-09
-5.68532e-09
5.93976e-09
8.10652e-09
-1.03718e-08
5.64726e-09
5.76906e-09
2.64721e-09
-1.05404e-09
-7.36223e-09
3.79358e-09
-3.83606e-09
3.14915e-09
1.97973e-11
-5.02332e-09
5.07105e-09
-6.75313e-11
3.25364e-09
3.24237e-09
-1.33573e-08
1.51997e-08
-7.84703e-09
2.43712e-09
-6.19975e-09
5.82346e-09
-2.06084e-09
-3.79235e-09
4.38404e-09
-5.09155e-09
4.22006e-09
-3.51255e-09
3.64967e-09
2.98783e-09
-3.07284e-09
-3.56466e-09
-1.70626e-10
-5.66473e-09
4.70323e-10
1.96739e-10
-1.09759e-10
3.98838e-09
-4.07536e-09
5.28754e-09
-5.25557e-09
-3.70574e-11
-4.98464e-09
5.02013e-09
1.38239e-11
-4.93147e-11
4.52172e-10
-7.63859e-09
3.17042e-09
4.13672e-09
-3.70077e-09
-3.70147e-09
3.26551e-09
-4.47698e-09
4.75688e-09
-4.28287e-09
4.00297e-09
-3.85461e-09
3.87441e-09
6.9471e-09
-6.14861e-09
-1.38321e-09
5.84719e-10
2.86241e-09
-2.8656e-09
2.78207e-09
-2.73456e-09
3.91096e-09
-5.34198e-09
-3.16263e-09
-1.41602e-09
6.27966e-11
1.49209e-09
-3.01481e-09
3.91896e-09
2.72813e-09
-2.96698e-09
-3.17835e-09
4.21959e-09
5.35117e-10
3.92473e-09
4.29515e-09
-4.34165e-09
-4.71768e-09
-3.31302e-09
4.12456e-09
-4.41254e-09
4.26126e-09
-3.64555e-09
1.4685e-08
-3.83434e-09
-1.65141e-08
3.80939e-09
-3.91651e-09
-2.57877e-10
4.01296e-09
-4.36343e-09
4.34703e-09
-3.36034e-09
-5.45999e-09
-3.97381e-10
1.0216e-09
-4.6329e-09
1.26564e-09
4.65653e-09
-5.19313e-09
-8.79774e-12
9.57921e-11
5.10613e-09
-3.90106e-09
-4.26823e-09
4.23461e-09
-4.18773e-09
1.46096e-11
-4.3408e-11
4.21653e-09
-4.21704e-09
1.78105e-11
9.17411e-12
4.19005e-09
-4.26792e-09
1.02857e-11
1.46318e-11
4.243e-09
-5.28593e-09
2.57469e-11
-1.85256e-11
5.27871e-09
-4.30668e-09
1.31189e-11
8.33223e-12
4.28522e-09
4.77839e-09
-2.06579e-11
1.14249e-11
-4.76916e-09
4.62858e-09
-1.27251e-11
-2.64054e-11
-4.58945e-09
-4.68947e-09
3.75477e-10
-7.84678e-10
5.09867e-09
-3.90042e-09
-2.80698e-09
3.51882e-09
-5.46239e-09
-4.38752e-09
5.42863e-09
4.42128e-09
5.36628e-09
-1.52048e-09
7.92109e-10
-4.63791e-09
-3.33508e-09
3.47052e-09
-3.20506e-09
2.05833e-09
-3.60366e-09
7.81881e-09
-2.3254e-09
-1.22128e-10
2.01302e-10
3.81059e-09
-3.88976e-09
3.42919e-09
-3.33838e-09
4.65967e-09
-4.88295e-09
3.26605e-09
-3.04277e-09
-3.22283e-09
-4.95977e-09
9.37041e-11
5.58004e-09
-7.13976e-10
2.27907e-11
4.56823e-09
-5.10217e-09
5.11151e-10
-7.90164e-12
-5.00487e-09
5.57684e-09
-5.64061e-10
-2.41298e-11
-4.8873e-09
5.43038e-09
-5.18951e-10
5.05209e-09
-7.36505e-09
-2.49291e-09
4.80586e-09
-2.9678e-10
6.2965e-09
-7.42725e-09
1.42753e-09
-9.4524e-09
3.62014e-09
-3.14357e-09
-4.1415e-09
3.15517e-09
4.1299e-09
3.64528e-09
-4.06378e-09
6.15241e-10
3.64248e-09
-3.75256e-09
-3.40007e-09
-1.07575e-11
3.41082e-09
-3.37087e-09
2.9712e-12
3.3679e-09
-3.37446e-09
1.19213e-11
3.36254e-09
-3.39307e-09
1.30989e-11
3.37997e-09
-3.32469e-09
-1.82422e-11
3.34294e-09
3.3732e-10
2.58172e-09
-2.91905e-09
3.77257e-10
3.3167e-09
-3.69396e-09
8.25608e-10
2.7783e-09
-3.60391e-09
6.40378e-11
3.40108e-09
-3.46512e-09
3.13452e-09
6.56151e-11
-3.20014e-09
-5.20397e-12
-3.75295e-09
3.75815e-09
-3.49215e-09
-6.01505e-11
3.5523e-09
8.71977e-10
3.34977e-09
-4.22175e-09
-2.74117e-09
3.38704e-09
-3.28912e-09
2.20371e-09
5.37682e-09
-3.83141e-09
-3.90965e-09
3.18989e-10
2.09584e-11
5.65041e-09
-6.35019e-09
6.78826e-10
4.81531e-09
-4.6204e-09
-2.90337e-09
8.38997e-09
2.94011e-09
-4.97686e-09
5.71343e-10
4.58546e-09
-1.79944e-10
-4.46469e-09
5.20744e-10
-7.45517e-10
-3.15314e-10
-6.41672e-09
1.47251e-09
5.25953e-09
-3.33266e-09
3.3682e-09
-3.96434e-09
3.9288e-09
3.77953e-10
-6.2626e-09
-7.23409e-10
6.60806e-09
-3.724e-09
-3.9117e-09
4.4317e-09
-1.11377e-09
9.94463e-10
-4.30509e-09
4.4244e-09
-5.18777e-09
5.17278e-09
8.5861e-10
-1.84743e-09
5.19465e-09
-4.20584e-09
1.35338e-10
5.6952e-09
-7.2762e-10
-5.10292e-09
4.9827e-09
-4.95749e-09
1.00863e-11
-3.53e-11
4.65179e-09
1.05826e-10
-3.97621e-09
-3.61214e-09
-8.29925e-11
3.69513e-09
3.23264e-09
-3.19686e-09
4.20241e-09
-4.2382e-09
2.96685e-09
3.52734e-09
-3.37926e-09
-3.10799e-09
3.69759e-09
-3.36316e-09
3.07726e-09
3.91366e-09
-5.0449e-09
-3.63672e-09
-3.37412e-09
7.26728e-09
-1.97794e-09
-5.49622e-09
2.06882e-10
4.80394e-09
-5.63598e-09
-2.17548e-09
3.23006e-09
4.04276e-09
1.6536e-10
-3.38306e-09
9.25871e-09
-8.49753e-09
5.99669e-09
3.07429e-09
4.80521e-09
-3.70546e-09
-4.10317e-09
-3.79329e-09
3.9551e-09
2.30536e-11
4.10587e-09
-4.12893e-09
-8.44684e-12
3.87858e-09
-3.87013e-09
1.45794e-11
-3.41483e-09
3.40025e-09
5.65788e-12
-3.21816e-09
3.21251e-09
1.17266e-11
-3.30709e-09
3.29537e-09
2.25612e-11
-3.23553e-09
3.21297e-09
-2.12649e-11
4.10976e-09
-4.08849e-09
1.48417e-11
-3.40559e-09
3.39075e-09
3.26879e-12
-3.58086e-09
3.57759e-09
-9.5208e-12
3.19153e-09
-3.18201e-09
5.62596e-11
-4.78547e-09
-1.39387e-10
4.86859e-09
4.84898e-09
2.17129e-09
-3.40081e-09
-3.66209e-09
3.85377e-09
-3.1188e-09
2.92712e-09
5.7082e-10
1.03794e-10
-3.82384e-09
-3.52386e-09
3.81732e-09
3.53038e-09
3.21596e-09
-5.82008e-11
5.33147e-09
-5.55734e-09
2.84071e-10
-3.51637e-09
3.65043e-09
3.75424e-09
-3.81244e-09
6.77709e-10
4.25631e-09
-4.93402e-09
-3.83784e-09
3.87121e-09
3.46923e-09
-3.76796e-09
3.24021e-09
3.90585e-09
-1.45824e-10
-3.46632e-09
-1.31448e-09
-2.6769e-09
2.03444e-09
1.95694e-09
-5.77685e-10
-2.04069e-10
2.7363e-09
-3.78179e-09
3.06865e-09
-3.64622e-09
4.35936e-09
-5.77338e-09
7.34285e-09
-4.72934e-09
3.15988e-09
-9.16276e-11
1.33578e-09
-1.37117e-09
1.27018e-10
-5.31155e-11
-3.80149e-09
-2.96889e-09
3.00073e-09
3.88744e-09
-4.12824e-09
-5.89922e-10
3.73336e-10
3.64478e-10
3.93884e-11
-4.13277e-11
4.30583e-09
-2.12169e-09
3.99028e-09
-1.70972e-09
1.54756e-09
-3.10512e-09
3.26728e-09
3.54876e-09
9.99798e-10
-4.21281e-10
-3.56541e-09
-6.31182e-10
3.85077e-09
3.45821e-10
3.60424e-09
-4.13311e-09
4.46358e-09
-4.9555e-09
4.3771e-09
-4.09479e-09
4.52212e-09
3.52148e-09
-3.74664e-09
-4.29696e-09
3.06588e-09
-4.69169e-09
4.59995e-09
-1.40939e-09
-1.3483e-09
4.98696e-10
2.25899e-09
5.55099e-12
-3.55402e-09
3.54847e-09
-2.47884e-11
-3.3911e-09
3.41589e-09
-1.30218e-11
3.13301e-09
-3.11999e-09
-1.87823e-11
3.9116e-09
-3.89282e-09
-1.21101e-12
3.13144e-09
-3.13023e-09
-7.81767e-12
3.1394e-09
-3.13158e-09
-5.23399e-12
3.15366e-09
-3.14842e-09
1.76992e-11
3.90197e-09
-3.91967e-09
-3.0722e-09
2.85826e-09
-3.5539e-09
3.76784e-09
2.83884e-09
-2.9486e-09
-7.53086e-09
5.3423e-09
5.97838e-10
1.59073e-09
-3.45467e-09
-3.7806e-09
3.74965e-09
-1.00976e-10
4.86927e-09
1.23325e-09
2.80771e-09
-4.36314e-09
-2.12754e-09
3.68297e-09
-2.91449e-09
3.02283e-09
8.25494e-09
4.30234e-09
-5.02474e-09
5.14679e-09
-3.11753e-09
-2.78604e-11
-5.78671e-10
-4.56924e-09
-7.18814e-10
4.31895e-09
-9.07707e-10
1.34718e-09
-4.75842e-09
-6.03129e-10
-4.81761e-09
3.76012e-10
5.04473e-09
4.64849e-09
-4.90076e-09
-3.78878e-09
2.03665e-09
-2.53533e-09
-1.78276e-09
2.28144e-09
-2.65517e-09
3.59686e-09
-8.8201e-09
-1.28584e-11
4.7968e-09
-5.2198e-11
4.65599e-09
-3.13636e-09
-3.66338e-09
2.70308e-09
4.09665e-09
-2.08864e-11
-4.29881e-09
-3.97585e-11
-5.26495e-09
-4.16182e-09
4.06084e-09
3.76787e-09
1.85926e-10
-4.01085e-09
4.56418e-09
-3.02654e-09
4.00283e-09
3.23833e-09
-4.21462e-09
-2.98681e-09
-3.87769e-09
3.89562e-09
4.92039e-09
5.18431e-11
2.70669e-09
3.55783e-09
-3.53523e-09
2.69187e-09
-2.39841e-09
-3.62612e-09
1.04266e-10
-5.27969e-09
1.77374e-11
-4.28687e-09
1.57141e-11
-4.24057e-09
-6.25317e-12
-4.18671e-09
-4.34671e-09
-2.90203e-11
3.92705e-09
4.48678e-10
-1.85921e-10
3.69454e-09
1.0842e-09
-2.0913e-10
3.94779e-09
1.17415e-09
-2.22404e-10
3.85885e-09
1.35855e-09
-1.19202e-09
7.85002e-09
-7.70974e-09
1.05174e-09
-3.95226e-09
8.29433e-09
-1.07067e-08
2.32634e-09
-2.65023e-09
2.87346e-09
-2.54957e-09
6.4939e-09
-5.15725e-09
-5.19894e-09
3.8623e-09
-8.0922e-10
-7.59127e-10
1.19614e-09
3.72207e-10
4.72155e-09
6.77836e-10
-5.33535e-09
-5.17023e-09
-4.53621e-10
5.61864e-09
1.25391e-10
4.44378e-09
-9.23893e-10
6.14735e-09
-1.37081e-09
-3.49298e-09
-2.4659e-09
3.16256e-09
3.7651e-09
-5.29941e-09
-3.55724e-09
2.99255e-10
4.19248e-09
-7.86533e-10
-3.7052e-09
-4.40474e-09
3.4188e-09
-4.99659e-09
3.56844e-09
-1.99066e-09
4.30526e-09
2.66866e-09
-3.47911e-09
2.30186e-10
-4.86656e-09
6.0838e-09
-1.44742e-09
-4.12807e-09
-2.71893e-12
4.06222e-09
6.85646e-11
-5.03889e-09
-3.80159e-09
4.7373e-09
-2.23438e-10
-4.97721e-09
1.29099e-09
-4.11844e-09
5.84515e-11
4.25382e-09
-1.93829e-10
4.51375e-09
-6.60477e-09
4.44295e-09
-2.35193e-09
-4.8264e-09
5.18577e-09
-3.8121e-09
3.45273e-09
4.37277e-09
-3.59966e-09
-4.32227e-09
3.54916e-09
3.60493e-09
-3.77836e-09
-4.83907e-09
-2.05545e-09
4.92418e-09
1.97033e-09
-5.86437e-09
-6.09751e-10
-1.05674e-09
-4.39724e-09
1.01795e-10
4.61428e-09
-3.18839e-10
4.5347e-09
-4.09916e-09
2.9216e-09
-5.5358e-10