/*--------------------------------*- C++ -*----------------------------------*\
  =========                 |
  \\      /  F ield         | OpenFOAM: The Open Source CFD Toolbox
   \\    /   O peration     | Website:  https://openfoam.org
    \\  /    A nd           | Version:  8
     \\/     M anipulation  |
\*---------------------------------------------------------------------------*/
FoamFile
{
    version     2.0;
    format      ascii;
    class       surfaceScalarField;
    location    "3";
    object      phi;
}
// * * * * * * * * * * * * * * * * * * * * * * * * * * * * * * * * * * * * * //

dimensions      [0 3 -1 0 0 0 0];

internalField   nonuniform List<scalar> 
10659
(
-8.60884e-09
8.822e-09
2.38385e-10
-4.51551e-10
4.20351e-10
-7.15088e-10
8.62447e-09
-8.32973e-09
8.48953e-09
-7.82985e-09
6.19575e-10
-1.27925e-09
-8.37599e-09
-3.67671e-10
1.34825e-10
-1.22544e-08
3.11597e-09
9.7966e-09
-6.58147e-10
-3.50166e-10
5.89317e-09
-6.27871e-09
7.35705e-10
1.13293e-10
4.81207e-11
-8.1864e-11
-7.95496e-11
-1.52616e-09
-2.47269e-09
2.41784e-09
1.58101e-09
8.96496e-09
-8.80683e-09
5.62432e-11
-2.14369e-10
-2.46153e-09
2.1399e-09
-4.08357e-09
4.40521e-09
-9.24757e-09
-1.15042e-10
1.42785e-10
9.21983e-09
-4.26875e-10
6.10567e-09
-5.6788e-09
-8.61634e-09
8.89293e-09
2.43428e-10
-5.20012e-10
1.27595e-10
8.06966e-09
-2.74981e-10
-7.92227e-09
-6.26162e-11
2.99143e-10
8.72843e-09
-1.97606e-09
-3.80185e-09
3.31637e-09
-2.47115e-10
2.49035e-10
-1.92005e-12
-2.17893e-09
-5.88937e-09
4.28686e-09
3.78144e-09
-7.26035e-09
-3.36985e-10
9.68702e-10
6.62863e-09
-8.53809e-09
-2.80595e-10
1.18572e-11
-5.6053e-09
5.89736e-09
-2.92058e-10
9.45292e-11
-1.21528e-10
1.40291e-10
5.07976e-09
3.01076e-09
-7.5005e-09
-5.90017e-10
-1.52586e-10
6.94727e-09
-6.53876e-09
-4.08506e-10
-9.54637e-09
-2.65873e-10
6.91135e-10
9.1211e-09
-8.40991e-09
-3.38867e-10
1.32433e-10
9.05601e-09
1.65534e-10
-3.99537e-10
5.49998e-09
-2.53535e-09
-6.43512e-09
3.47048e-09
8.81208e-09
-8.69409e-09
2.85831e-11
-1.46578e-10
-9.22315e-09
9.54838e-09
5.50539e-10
-8.75767e-10
2.38079e-10
1.1576e-10
-2.24855e-10
-1.28983e-10
-7.60819e-09
6.47473e-09
2.91818e-09
-1.78471e-09
-1.09011e-08
2.5557e-09
8.65599e-09
-3.10554e-10
-9.54472e-09
-1.37158e-10
4.03232e-10
9.27865e-09
6.8964e-09
4.21214e-10
-7.12853e-09
-1.8909e-10
6.36315e-09
-5.68788e-09
-2.00959e-10
-4.74307e-10
7.44308e-09
-5.97424e-10
2.03258e-10
-7.04892e-09
-9.45776e-09
2.09088e-10
-1.77929e-10
9.4266e-09
1.10806e-10
7.69084e-09
9.03613e-10
-8.70526e-09
-7.77974e-09
1.04e-09
8.56059e-09
-1.82084e-09
4.42458e-09
-1.03735e-09
2.97591e-09
9.06506e-09
3.10989e-10
-8.86525e-10
5.39496e-09
3.0143e-09
-3.73357e-09
-4.67569e-09
-2.64512e-09
2.56351e-09
9.3323e-09
-9.2507e-09
-3.13039e-10
-7.47309e-09
1.74381e-10
7.61175e-09
-4.04716e-11
-1.55545e-13
8.85271e-09
-8.91144e-09
3.08817e-10
-8.55138e-10
-1.63782e-09
-8.3723e-09
1.62626e-09
8.38386e-09
-7.748e-09
5.70184e-09
-6.1226e-09
8.16876e-09
1.14352e-09
4.94957e-09
-5.3107e-09
-7.82394e-10
-8.63378e-09
-2.78052e-11
-3.25036e-11
-6.84978e-10
-9.04798e-09
1.88242e-10
-9.08523e-09
-3.82128e-11
-4.35885e-11
9.16703e-09
9.31798e-09
1.74778e-10
-5.99837e-10
7.78349e-10
-8.80269e-09
-3.08675e-10
8.33301e-09
-1.20885e-08
-4.65304e-11
-4.78695e-10
1.26137e-08
-2.73508e-09
6.06397e-09
-1.06144e-08
7.28546e-09
8.55025e-09
-7.81986e-10
-8.05816e-09
2.89896e-10
-8.92514e-09
8.96977e-09
-3.07564e-09
3.03101e-09
-2.19061e-09
4.69719e-09
2.9934e-09
9.76893e-09
-1.81704e-09
7.63808e-10
-8.7157e-09
-8.25567e-09
-1.5903e-09
6.85324e-09
2.99272e-09
1.26668e-09
-2.35675e-09
2.2625e-09
-1.17243e-09
4.54891e-12
7.26368e-11
1.96014e-10
-2.732e-10
-6.20165e-10
1.45468e-09
-5.72987e-09
4.89536e-09
-5.52279e-10
2.33938e-09
-3.76316e-09
-7.71286e-09
-1.16428e-09
8.87714e-09
-4.50657e-10
8.11328e-09
1.47496e-10
-7.81012e-09
-5.11205e-10
9.28667e-09
3.22697e-10
-9.09816e-09
9.01396e-09
8.37106e-11
-8.88859e-09
-8.44808e-09
-4.82145e-10
1.45093e-09
7.4793e-09
3.58407e-11
3.46961e-09
-1.10379e-10
-3.39507e-09
-2.78488e-09
-7.50057e-10
3.5062e-09
2.87381e-11
4.49685e-09
-4.3837e-09
1.03038e-09
-8.20019e-09
-2.50113e-10
7.74722e-10
7.67558e-09
3.67398e-09
3.74458e-09
-1.81156e-09
-5.607e-09
-5.04264e-10
-9.2487e-09
1.67767e-10
9.5852e-09
7.32133e-09
-1.51451e-09
1.22542e-09
-7.03224e-09
8.93884e-09
-1.44219e-09
-8.15185e-09
6.55205e-10
2.47667e-09
-9.1614e-10
2.86405e-09
5.81731e-09
-4.43434e-09
4.53407e-09
-5.91704e-09
-4.4001e-09
5.28374e-09
-4.92113e-09
4.03749e-09
-7.40074e-09
3.91722e-10
-2.51325e-10
1.10734e-08
4.90388e-10
-3.20036e-09
-8.36343e-09
-5.15861e-10
8.51237e-09
1.69223e-10
-8.16574e-09
-1.29424e-09
4.65705e-09
-3.36282e-09
2.44584e-09
-6.82016e-10
8.42894e-10
-2.60671e-09
1.10665e-08
-3.70005e-09
-8.22393e-09
8.57526e-10
-5.14732e-09
-1.45592e-10
-3.94972e-10
-4.95093e-09
4.58508e-09
1.99069e-09
-1.62485e-09
4.58802e-10
-1.81607e-09
7.90704e-09
-6.54978e-09
-8.2057e-09
1.42989e-09
-5.85095e-10
7.3609e-09
-8.4141e-09
-4.57391e-11
3.68607e-10
8.09123e-09
2.35055e-09
8.27391e-09
-5.22396e-09
-5.4005e-09
-3.98785e-09
3.96684e-09
1.96839e-09
-1.94738e-09
-8.83247e-09
-7.73286e-10
1.81442e-09
7.79133e-09
5.40397e-09
4.24686e-09
-6.11551e-09
-3.53532e-09
-4.56129e-09
1.11522e-08
3.01709e-09
-9.60796e-09
6.87156e-09
-2.43534e-09
-7.99199e-09
3.55577e-09
-6.12715e-09
6.2989e-09
-1.71749e-10
7.58679e-09
-1.50805e-10
-9.1433e-11
-7.34455e-09
1.91289e-09
-5.65487e-09
4.97391e-09
-1.23193e-09
-3.88984e-09
-2.17104e-09
2.07303e-09
-9.33696e-09
2.35282e-10
-1.79946e-09
1.97894e-10
3.78421e-10
8.37458e-09
-8.9509e-09
-5.1994e-09
-7.03239e-09
3.62291e-09
8.60888e-09
-3.65745e-10
-5.35906e-09
1.13078e-08
-5.583e-09
-2.70959e-09
-6.02927e-10
7.96508e-10
2.51601e-09
-1.51058e-10
-2.98578e-10
2.35523e-10
2.14114e-10
3.33534e-09
-2.89192e-09
2.80512e-09
-3.24854e-09
3.12342e-09
1.20624e-10
-3.04492e-09
-1.99121e-10
7.57958e-09
-8.54808e-09
1.27214e-09
-3.03642e-10
7.77777e-09
6.09339e-11
-2.61872e-10
-7.57683e-09
-9.0466e-09
-6.56121e-10
1.85751e-09
7.84521e-09
-1.25709e-09
7.19182e-09
-7.53551e-09
1.60078e-09
1.13712e-08
-2.72188e-10
-6.82155e-09
-4.27745e-09
8.02539e-09
-2.44717e-10
-2.01098e-10
-1.00025e-10
3.51823e-10
8.505e-09
-8.7568e-09
-3.30498e-09
3.18426e-09
-8.80442e-09
-5.1729e-10
-8.94047e-09
2.06361e-10
9.2514e-09
6.8181e-09
-7.59902e-09
-7.24553e-09
8.02645e-09
-6.13091e-09
2.55295e-09
6.5414e-09
-2.96344e-09
4.17415e-10
-4.96829e-10
4.9829e-09
-6.54191e-11
1.1555e-09
-6.07298e-09
4.33889e-09
2.86414e-10
-3.89693e-09
-7.28373e-10
-6.45901e-09
6.5866e-09
8.88272e-11
-9.73362e-09
-1.03718e-09
1.0682e-08
3.67905e-09
2.40571e-09
-2.74943e-09
8.57187e-09
-8.25246e-09
-5.18913e-10
1.99502e-10
-6.56386e-10
-8.84587e-09
8.99105e-09
-1.5457e-09
-2.50046e-10
6.74052e-09
-4.94478e-09
-6.82243e-09
5.84638e-09
1.00292e-09
-2.68639e-11
-1.8701e-10
-7.55094e-09
8.86444e-11
7.64931e-09
-3.93318e-10
1.34883e-10
-8.65301e-09
-2.65811e-09
2.84884e-09
-1.90734e-10
8.75256e-09
-3.36838e-11
2.60403e-10
-8.97928e-09
-3.22979e-09
3.22067e-09
4.49625e-11
-1.80687e-09
-3.43675e-09
3.17194e-09
2.07168e-09
-8.19515e-09
-1.5602e-10
7.95198e-09
3.99187e-10
-2.37951e-09
-4.01841e-09
3.50599e-09
-7.5596e-10
8.26834e-10
-7.0874e-11
-8.91141e-09
1.28984e-09
-8.26513e-10
6.45373e-09
5.8901e-10
-2.01828e-09
-5.02445e-09
4.55082e-12
-8.80293e-11
1.91698e-10
-1.08219e-10
7.51947e-09
3.7006e-09
-9.9154e-09
-1.30467e-09
-2.75043e-09
1.81646e-10
-1.12304e-08
-1.29602e-09
2.23432e-09
6.58117e-09
-7.64141e-09
2.45055e-09
-4.04656e-09
9.23743e-09
-4.13653e-09
4.29785e-09
5.24265e-09
-1.46966e-10
1.95119e-10
-1.43412e-11
-3.38112e-11
-3.62409e-10
4.576e-10
-2.2052e-09
2.11e-09
-1.87823e-10
-5.93933e-09
-1.25917e-09
1.3709e-09
-1.11733e-10
2.17012e-09
5.35924e-09
-5.60433e-09
-1.92504e-09
3.25875e-11
3.42975e-10
-6.59664e-11
-3.09596e-10
-8.77612e-11
5.9188e-11
1.98222e-09
-1.95365e-09
-1.01104e-09
5.89411e-09
2.92806e-09
-7.81112e-09
-1.37212e-09
5.03104e-09
-6.29922e-09
2.6403e-09
-8.08653e-09
5.83523e-10
8.99882e-09
-1.49581e-09
-7.06053e-09
6.88889e-09
2.82301e-10
-1.1066e-10
7.92178e-09
-2.19563e-09
2.3983e-10
-5.96598e-09
-2.08316e-09
1.61882e-09
6.91807e-09
7.67042e-10
-5.05856e-09
-7.42026e-10
5.03355e-09
-2.35685e-09
2.09737e-09
3.9411e-09
4.3572e-09
-4.88652e-09
-3.41178e-09
3.91415e-10
5.63895e-12
-1.86637e-13
-3.96867e-10
-1.48781e-09
4.08693e-10
1.08481e-08
-8.91802e-09
6.88349e-11
-1.295e-09
1.01442e-08
1.0075e-08
-3.51863e-09
1.74267e-09
-8.29903e-09
1.95498e-09
-1.02403e-09
-9.79841e-09
8.86746e-09
8.9777e-09
9.69482e-10
-3.95632e-10
-9.55155e-09
9.41273e-11
-2.64382e-10
-6.65218e-09
2.54206e-10
-1.67186e-10
-8.9014e-09
8.70719e-10
-8.0179e-10
-3.78018e-10
-6.82473e-10
-9.68564e-09
1.07461e-08
-1.57676e-09
-8.62742e-09
2.17079e-09
8.0334e-09
1.0022e-10
-1.09537e-09
1.19883e-09
-2.03672e-10
-1.99807e-09
-8.27483e-09
2.41873e-09
7.85417e-09
-7.96513e-10
-8.50777e-09
1.7113e-09
7.59299e-09
-9.22797e-09
-9.48343e-10
9.46847e-09
7.07841e-10
2.5204e-09
-1.68324e-09
1.21954e-09
-2.0567e-09
-6.22214e-10
-8.40735e-09
1.41615e-09
7.61341e-09
2.23192e-11
1.83079e-11
7.40245e-09
-2.53584e-10
2.95394e-10
-4.18096e-11
5.52604e-10
-7.8668e-09
7.84387e-09
-5.29673e-10
6.98028e-09
5.68381e-10
-2.85902e-10
-7.26276e-09
2.51437e-10
-1.00158e-08
-2.49004e-09
-1.55657e-09
-1.37179e-10
1.5689e-09
1.24853e-10
4.19205e-09
-1.15485e-09
-4.84408e-09
6.19763e-10
5.19754e-09
5.99028e-09
-5.43767e-09
8.82694e-09
3.77917e-09
-1.23492e-09
7.54436e-10
2.11018e-10
-7.62574e-10
-2.02879e-10
-8.29733e-10
3.5733e-09
-3.47245e-09
7.28884e-10
-9.53302e-09
1.09643e-09
-6.1001e-10
8.53244e-09
1.09049e-09
-8.84458e-09
5.0881e-10
-4.60276e-10
-1.54712e-10
1.06178e-10
5.2328e-09
-2.51257e-09
-4.5422e-09
1.82197e-09
3.44143e-10
-2.07112e-10
-8.77081e-09
-2.4456e-09
2.15669e-09
8.03859e-10
-5.14947e-10
-2.0029e-09
-6.27722e-10
-6.13935e-09
8.76997e-09
-4.29588e-11
-4.08588e-10
4.51547e-10
-2.4397e-09
2.22891e-09
-7.90081e-09
6.87418e-09
-6.37952e-09
7.40616e-09
-1.22448e-09
9.37519e-09
1.92557e-09
3.17504e-10
-8.15301e-10
-3.44582e-10
8.42379e-10
-5.05402e-10
-2.73071e-09
7.90507e-10
-6.60273e-09
-1.13188e-09
7.69446e-09
4.01528e-11
2.9542e-09
-9.0861e-09
1.02208e-08
-4.08887e-09
-3.28263e-09
-6.62241e-09
-1.44401e-11
9.91948e-09
-5.13476e-10
-2.35986e-09
2.65681e-09
2.16529e-10
-4.47345e-10
2.80203e-10
1.01406e-08
-1.97709e-09
1.38486e-09
-1.44766e-09
4.41386e-10
-6.82358e-09
-1.82979e-10
-8.07422e-09
6.20559e-11
-1.70778e-10
7.62352e-09
-9.65142e-11
-7.35622e-09
-3.19006e-10
1.36496e-10
1.02371e-09
-9.66045e-09
-7.56527e-10
9.39326e-09
8.7044e-11
4.12926e-10
-3.67335e-10
-1.32634e-10
2.82537e-09
-3.05126e-09
-6.21126e-09
6.43715e-09
8.26219e-11
-7.1376e-11
-1.56782e-09
5.99229e-09
7.68364e-09
-9.34398e-09
-4.33196e-09
-2.35308e-10
6.92728e-12
2.37687e-09
-8.51138e-09
-1.14592e-10
6.2491e-09
-8.72314e-09
8.77799e-09
3.06112e-09
-1.16718e-10
1.16153e-10
7.58735e-09
2.45381e-09
-2.09593e-09
-8.29675e-09
7.93888e-09
-4.95265e-12
-6.63149e-11
-3.39846e-10
-1.97747e-09
2.15338e-09
1.63945e-10
4.11546e-10
-6.50632e-09
6.09477e-09
3.92695e-09
-7.30605e-10
-6.55287e-09
3.35653e-09
-2.29908e-10
4.70892e-11
-3.36518e-09
1.28222e-09
-1.39943e-09
3.48238e-09
3.86748e-10
-5.82884e-09
5.44209e-09
-8.07331e-09
5.28285e-09
-2.57061e-09
5.36107e-09
-4.85054e-10
7.56052e-10
1.88569e-09
-1.94021e-10
2.17682e-09
-2.07056e-09
-2.72532e-10
-1.6833e-09
1.81998e-09
1.35849e-10
7.4445e-11
-8.49652e-09
1.21641e-11
5.63275e-10
-1.74884e-10
1.20419e-10
-1.55612e-09
2.09505e-09
-7.74244e-09
7.20352e-09
1.38229e-08
-1.21992e-08
1.53529e-09
-3.1589e-09
3.07956e-09
6.64354e-09
-6.52872e-09
-3.19438e-09
-2.35107e-10
1.54699e-09
1.18314e-10
-1.43019e-09
2.63769e-09
-6.34022e-09
6.5279e-09
-5.30637e-09
5.36542e-09
4.11676e-09
-4.17581e-09
-4.5743e-09
2.12514e-09
5.767e-09
-3.31784e-09
-6.7978e-09
-2.61183e-09
6.72382e-09
2.68582e-09
-7.93228e-10
2.14949e-09
1.16414e-09
-3.8211e-10
4.26195e-10
8.01294e-09
6.0255e-09
-5.89055e-09
-8.14789e-09
-8.45887e-09
8.60124e-09
1.7601e-10
-3.18384e-10
-5.84008e-09
5.05761e-09
9.96957e-10
-2.1449e-10
-6.68718e-09
-3.04798e-10
6.65658e-10
6.32632e-09
1.25538e-10
-7.73178e-09
8.04336e-09
-4.3712e-10
-9.37892e-09
4.14792e-09
-3.49337e-09
8.72436e-09
-8.81312e-09
-7.11889e-10
1.32482e-09
4.7568e-10
-8.85704e-09
-1.56734e-10
5.68637e-09
2.43789e-10
-1.59127e-09
1.39638e-08
-1.03134e-08
-8.2117e-09
-3.86729e-11
-8.45342e-09
1.16102e-10
6.61054e-09
-6.19018e-09
4.17068e-09
-5.23944e-09
6.24568e-09
-5.17692e-09
1.07123e-10
-1.51352e-09
1.48902e-09
4.80872e-09
-9.22152e-10
-6.77739e-09
2.89082e-09
-1.24993e-09
1.3087e-09
-8.82245e-09
8.76368e-09
1.13553e-08
-1.42537e-09
-9.56955e-09
-3.6037e-10
-1.80631e-09
4.73217e-11
1.81818e-09
1.39462e-10
-6.33078e-10
-6.51649e-11
5.58781e-10
7.45341e-10
-3.23619e-10
2.78386e-10
-7.00108e-10
8.02749e-09
-2.49925e-09
-6.9759e-09
7.46806e-10
-1.0244e-10
1.1007e-10
5.59301e-09
-1.0146e-09
-6.30853e-09
1.73012e-09
4.74318e-09
-8.89042e-09
1.00843e-08
-5.93706e-09
2.69077e-10
-1.23576e-09
-2.49172e-10
1.21585e-09
-1.9824e-09
2.61665e-09
-2.44949e-09
1.81524e-09
7.98786e-09
-7.75221e-09
2.07432e-10
-4.43088e-10
-3.1427e-11
8.76575e-09
5.03239e-11
-8.78464e-09
-9.0595e-09
8.77761e-09
-9.6803e-10
-3.34491e-10
3.67079e-10
-1.82936e-10
9.07469e-10
-9.28505e-10
2.03972e-10
-7.73447e-10
-3.56052e-10
9.17138e-10
2.1236e-10
6.23062e-09
-3.07073e-09
-4.71683e-09
1.55694e-09
-7.40992e-09
7.29487e-09
3.46269e-09
-3.02527e-09
-1.30373e-09
8.66315e-10
2.89674e-09
5.49726e-09
-4.81479e-09
-3.57921e-09
-8.37446e-10
9.68532e-12
-1.95712e-09
-9.05111e-09
1.0851e-09
-1.77924e-09
9.74526e-09
-3.13634e-10
8.35271e-09
-1.54738e-10
-7.88434e-09
-7.39333e-09
2.74943e-09
7.69422e-09
-3.05031e-09
-7.46099e-09
-1.84139e-09
2.50457e-09
2.54515e-09
-2.19964e-09
-4.74561e-09
-6.68046e-09
-9.25961e-11
6.77305e-09
-7.00105e-09
6.93843e-09
2.90667e-09
1.16894e-08
-6.37715e-09
-8.21896e-09
7.29968e-09
-7.22173e-10
-7.87353e-09
-1.22471e-10
7.14191e-10
-3.30131e-09
-5.64563e-09
6.50701e-09
-8.31792e-10
-2.95847e-11
1.75666e-09
-5.08723e-09
-4.73472e-09
8.06529e-09
-1.78737e-10
8.61711e-09
1.12829e-10
-8.5512e-09
1.83876e-09
-2.46719e-10
-2.0771e-09
-8.37743e-09
8.76105e-09
-7.5129e-10
-6.26484e-09
5.64763e-09
5.90096e-09
4.77468e-09
1.23909e-09
-6.19083e-09
1.77061e-10
-7.37713e-10
-7.79522e-09
7.71551e-09
8.17431e-10
3.40854e-10
-8.53828e-09
9.22114e-09
1.01385e-09
-1.1449e-09
-3.67165e-10
4.98216e-10
8.46385e-09
-5.91116e-10
2.02873e-10
-8.0756e-09
-4.84928e-10
-7.6934e-09
7.74638e-09
4.31942e-10
-7.43475e-09
7.16888e-09
-3.60683e-09
-6.22348e-09
6.77905e-09
-4.80816e-09
-4.16186e-09
4.8335e-09
1.30407e-09
8.98774e-09
-1.86289e-09
-8.42893e-09
7.10633e-09
2.95994e-10
-7.76283e-09
3.60502e-10
1.07996e-09
8.19193e-09
-7.39459e-10
3.79725e-09
-6.30061e-10
-8.98101e-09
5.81382e-09
-9.07092e-09
-8.13437e-10
-1.18434e-08
-6.03793e-09
9.98049e-09
-7.72509e-11
-6.78709e-10
7.3747e-11
-1.80119e-10
7.48804e-09
-7.6252e-09
-4.75773e-11
9.76736e-09
-1.14792e-09
-3.1131e-09
3.62129e-10
3.29451e-09
-5.43533e-10
8.11613e-09
3.63646e-10
-7.99622e-09
-4.83563e-10
-1.71752e-10
8.73798e-09
-9.15206e-09
5.85832e-10
2.29385e-09
1.04351e-08
-2.93734e-09
-9.79165e-09
-2.86998e-09
4.93535e-10
1.07345e-08
-8.35801e-09
3.47583e-09
2.86246e-09
-3.86163e-09
7.45757e-09
-7.29204e-09
-2.4117e-10
-9.9358e-09
8.17408e-09
1.06233e-10
3.63252e-10
-1.39283e-10
-3.30202e-10
-1.6271e-10
2.098e-10
-3.3337e-10
2.86281e-10
-5.57217e-09
-2.53666e-09
5.91771e-09
2.19112e-09
8.28832e-09
-7.73778e-09
-7.01836e-09
6.97789e-09
-6.58768e-10
-1.72194e-10
7.53711e-10
-6.41435e-09
1.02831e-08
-4.14931e-09
6.12123e-10
-6.03196e-11
-5.51803e-10
8.8042e-10
-9.90412e-09
3.20313e-10
8.70339e-09
-1.15572e-09
-8.86203e-09
1.27068e-09
8.74707e-09
-8.16267e-10
7.24785e-10
-2.61865e-10
3.53348e-10
-8.43342e-09
3.32268e-09
-1.87588e-09
6.98662e-09
-6.01546e-09
6.141e-09
-7.47083e-09
-3.75514e-10
7.65852e-09
8.83886e-10
-5.24693e-10
8.53733e-09
-8.89653e-09
-8.62726e-09
1.30545e-09
2.50232e-09
-2.25511e-09
-4.4123e-10
-6.9181e-09
-1.41037e-10
6.69931e-09
3.59825e-10
1.02883e-08
-8.3874e-09
-1.48939e-09
-1.15802e-09
-1.01152e-10
-6.47045e-09
-2.8475e-09
6.86893e-09
2.44902e-09
1.02001e-09
-7.93727e-09
7.45958e-09
-5.42315e-10
1.13639e-08
-9.4841e-09
-1.96203e-09
8.22452e-11
5.71977e-10
-6.44784e-10
-8.01372e-09
-1.483e-10
-2.72635e-10
2.58225e-10
-6.96243e-09
7.27342e-09
-7.39527e-10
-7.67393e-09
7.48908e-09
9.24374e-10
6.83741e-09
-5.72432e-09
2.59767e-09
-3.71076e-09
-2.09996e-09
3.09282e-09
7.83407e-09
8.30274e-09
-8.43329e-09
1.68636e-10
-3.80891e-11
-8.30814e-09
8.7432e-09
-7.73919e-10
4.11776e-10
7.12538e-09
4.37866e-10
-7.97503e-09
-7.1596e-09
7.12138e-09
-4.17456e-10
-6.63339e-09
7.05084e-09
-9.18485e-09
-1.2979e-09
9.74123e-09
7.41525e-10
-1.46162e-09
-7.64584e-09
1.71413e-09
3.32092e-09
-1.75146e-09
-2.58332e-09
1.01386e-09
5.63539e-09
6.87436e-09
-5.67235e-09
-9.80272e-09
9.26875e-09
-6.1792e-11
5.95755e-10
6.94617e-09
-7.11792e-09
9.41521e-09
-6.02462e-09
-6.74602e-09
3.35542e-09
-5.41622e-10
2.89686e-09
9.00865e-09
-7.04803e-13
-1.25303e-11
4.0465e-10
5.68612e-09
-7.44183e-09
2.99389e-10
7.63456e-10
-2.1348e-10
1.24085e-10
-6.84052e-10
8.91364e-09
-9.05768e-09
2.7529e-10
-1.31251e-10
-1.62749e-10
4.02254e-10
3.2301e-09
2.26134e-09
-2.20222e-09
-6.19003e-09
-8.6211e-09
1.67505e-10
8.51872e-09
-6.5116e-11
-5.82651e-09
5.70979e-09
-3.95748e-09
7.03981e-09
-4.50419e-09
1.42186e-09
-2.25229e-09
7.69001e-09
2.22189e-09
-7.65961e-09
6.47235e-09
4.45667e-09
-2.91608e-09
-7.76663e-11
-6.8264e-09
6.90407e-09
-8.67348e-09
-1.60209e-09
2.27487e-09
8.0007e-09
-1.01657e-08
8.77164e-09
-1.14481e-09
2.53886e-09
-7.25305e-09
7.42783e-09
-9.49618e-11
3.52211e-10
-2.48632e-10
-8.61674e-12
-6.62646e-09
-6.48935e-10
7.8644e-09
8.78989e-09
-8.61832e-09
-3.36224e-10
1.64654e-10
-1.94728e-09
-2.0787e-09
2.21717e-09
1.80881e-09
-9.3001e-09
8.55864e-10
-4.17872e-10
8.86211e-09
4.50792e-10
-1.7894e-10
8.64179e-09
8.68071e-10
8.90543e-09
-9.32271e-09
-9.46695e-09
1.42362e-09
-2.86206e-09
-1.10049e-09
1.27433e-09
2.68822e-09
-8.46095e-09
-1.15435e-09
9.19783e-09
-7.54416e-09
7.00254e-09
5.80778e-10
-8.97295e-09
-6.78742e-10
3.89363e-09
-5.51986e-09
-5.79729e-09
7.42352e-09
-1.40101e-09
6.04371e-09
-6.2217e-09
-2.10709e-09
2.47724e-09
5.85155e-09
-8.91813e-09
9.00116e-09
5.70513e-11
-1.4008e-10
-2.30808e-09
9.30449e-10
-7.07288e-10
2.08492e-09
-3.59853e-10
-1.38751e-09
1.51225e-09
1.8211e-09
-6.16897e-11
7.68282e-11
-1.83624e-09
4.70493e-11
-7.66474e-11
-2.14264e-10
2.43862e-10
-8.6043e-09
9.05497e-09
-4.78477e-10
1.16969e-09
-9.26291e-09
9.17454e-09
-1.08132e-09
-4.13885e-10
-1.6408e-09
1.78215e-09
7.79379e-09
-1.37028e-09
-8.52347e-09
-6.37092e-09
4.35754e-09
7.71522e-09
9.108e-09
-9.22902e-09
1.57276e-10
-3.62552e-11
6.63454e-09
-6.81348e-09
-4.89412e-10
7.46192e-09
-6.9725e-09
-5.05219e-10
-1.93009e-09
2.09546e-09
6.65864e-11
-1.39189e-10
-5.86166e-10
2.10566e-09
-8.75719e-09
9.04325e-09
-2.39172e-09
9.0071e-09
-1.05302e-08
7.02754e-10
2.4777e-11
1.88175e-09
1.73059e-11
-1.05078e-08
8.60879e-09
-7.19642e-09
1.89255e-09
-1.6524e-09
6.95627e-09
-4.94062e-09
3.9497e-09
4.91786e-09
8.31697e-10
5.99569e-09
-9.9734e-10
-5.83004e-09
-3.59129e-10
1.76331e-10
4.05195e-10
6.63366e-11
-4.65892e-10
-6.38607e-10
2.39072e-10
-7.96077e-10
-2.29345e-09
2.57605e-09
5.60604e-10
-1.67621e-10
8.71501e-09
9.31886e-10
8.8881e-09
-9.25938e-09
-8.6222e-09
6.5269e-10
-9.35037e-09
1.02331e-08
-1.387e-09
1.97772e-09
5.34553e-09
-2.24105e-09
-5.0822e-09
-1.00782e-09
1.01298e-09
-1.88095e-10
1.63436e-09
-2.10953e-10
4.15362e-10
3.00758e-09
-6.40962e-09
2.34271e-11
6.94473e-09
-6.96816e-09
-7.56317e-09
-3.40566e-10
1.51527e-10
-8.64919e-09
9.83589e-10
8.83529e-09
8.69605e-09
-8.74245e-09
1.1744e-10
-7.10395e-11
-7.08084e-09
7.16455e-09
-4.87773e-09
2.93464e-10
3.54692e-09
7.07798e-12
-6.85176e-09
6.84468e-09
9.07871e-10
-3.28635e-10
4.34618e-10
7.89917e-09
1.4023e-10
-2.61625e-10
5.34522e-10
-3.33506e-10
-1.83193e-10
-1.78241e-11
1.28786e-09
-1.45305e-09
1.46467e-09
-1.29948e-09
-1.02162e-08
-1.77605e-09
1.12437e-08
7.48508e-10
2.2181e-10
-1.15385e-10
8.58962e-09
2.90196e-09
-6.0812e-09
8.89294e-09
-5.7137e-09
-6.85077e-09
6.68315e-09
-1.87462e-10
6.66175e-09
-6.47428e-09
2.37723e-10
8.96852e-09
-8.98443e-09
-9.31035e-09
1.50467e-11
3.04321e-09
-2.96947e-09
-3.14673e-10
-1.92055e-10
2.81873e-10
1.83897e-09
5.5594e-09
-7.41783e-09
1.94625e-11
-8.82032e-09
8.8214e-09
-8.13454e-12
7.05483e-12
8.77652e-09
-8.70053e-09
-6.4161e-11
-1.18354e-11
6.26724e-09
-6.05981e-09
2.3053e-10
-3.97812e-10
8.06645e-09
-2.60511e-09
-7.46453e-09
7.80832e-09
2.26132e-09
-5.56921e-09
1.09742e-09
6.4495e-09
-7.20937e-09
-7.52879e-11
5.03237e-09
-7.02234e-09
-9.87295e-12
-2.83156e-11
-5.01646e-09
-4.4632e-09
3.32476e-09
6.1549e-09
-7.91052e-09
1.00162e-08
-8.18799e-09
-6.34147e-09
6.81431e-09
7.71515e-09
-7.63168e-09
-8.32302e-10
1.25462e-09
-6.66857e-09
6.55319e-09
-2.04082e-10
6.88703e-09
-6.68295e-09
-7.42703e-09
-1.13998e-09
1.37059e-09
2.96475e-09
-7.11735e-09
-1.09829e-08
3.72434e-09
6.63482e-09
-8.90638e-09
-1.45277e-09
5.40386e-10
-8.47334e-09
-9.85063e-10
-8.8137e-09
-1.04055e-09
-7.77944e-09
-5.54581e-10
7.59449e-09
-4.66708e-11
3.22134e-10
-3.58656e-10
8.3192e-11
-1.37574e-09
1.6202e-09
-2.60131e-09
-6.3299e-09
6.17388e-09
-6.78635e-09
8.41925e-09
-2.33672e-09
7.03824e-10
7.40537e-09
8.37251e-09
-7.07507e-09
-8.70281e-09
-6.78209e-09
4.24711e-11
6.73961e-09
-6.57861e-10
-7.62897e-09
7.54912e-09
-9.53848e-09
-6.54597e-10
9.03735e-09
6.79478e-10
-2.1341e-10
2.02705e-09
6.87806e-09
-8.90511e-09
9.55537e-09
-5.96666e-09
-3.97266e-09
3.83947e-10
-2.45493e-09
-6.42428e-09
3.53614e-09
5.34307e-09
-1.05189e-08
5.80285e-09
7.00991e-09
8.66888e-09
3.43345e-10
-8.85823e-09
-1.53996e-10
1.31489e-09
2.17243e-09
-1.36197e-09
-2.12535e-09
-1.95564e-09
4.53004e-09
-3.92653e-09
1.35214e-09
-4.23065e-10
3.08065e-11
3.45587e-10
2.35609e-10
6.48998e-10
-1.54412e-10
-7.30195e-10
-9.75288e-11
-2.30891e-10
2.39692e-10
8.8728e-11
-7.65197e-09
-5.16968e-10
7.68401e-09
-7.27055e-09
-1.01267e-09
6.8216e-09
1.84478e-10
-7.99782e-11
-7.73357e-09
7.62907e-09
3.40787e-10
-7.92637e-09
7.77006e-09
-3.91027e-10
2.00187e-09
-1.97325e-09
-1.95761e-10
-2.46235e-09
4.65489e-09
4.08471e-09
-4.66893e-09
-4.07068e-09
-6.92011e-09
5.65122e-11
6.86359e-09
1.91456e-09
-1.38976e-09
-9.33792e-09
-1.76182e-09
-7.55644e-09
1.31091e-09
8.00735e-09
6.70911e-09
-2.50164e-09
2.01135e-09
-6.21882e-09
4.47001e-09
-5.76709e-09
5.54394e-09
3.61801e-09
-1.06446e-09
2.95115e-09
-5.5047e-09
6.29841e-09
2.25922e-10
2.21196e-11
-2.00992e-10
-3.45128e-10
3.02401e-10
-8.34573e-11
1.26184e-10
9.69179e-11
-3.94969e-10
4.29187e-10
-1.31135e-10
2.6036e-11
-1.86055e-10
-1.90922e-11
1.79111e-10
1.9885e-09
-3.28274e-09
-6.02693e-09
5.91937e-09
1.07559e-10
-2.61952e-10
8.56937e-09
1.56432e-10
2.85391e-09
-3.68137e-09
4.53897e-09
-3.71151e-09
-6.13053e-09
3.25331e-10
6.26401e-09
-7.13248e-10
1.9479e-09
-2.02788e-09
-3.04916e-11
-9.23558e-09
8.67542e-09
5.90647e-10
-5.63949e-10
-3.91253e-09
-6.70836e-10
2.4534e-09
-7.35537e-11
-4.20122e-10
2.97724e-09
7.63795e-10
7.60353e-09
2.36261e-10
-3.25792e-10
-7.514e-09
5.56778e-09
2.44835e-09
-2.67059e-09
1.27151e-09
-2.10798e-09
2.15136e-09
8.8349e-09
5.22137e-10
-8.74826e-09
-6.08774e-10
4.15092e-11
-8.06443e-11
3.50995e-10
-4.45958e-10
-7.59843e-09
9.53953e-09
1.62023e-09
-9.4278e-09
-1.73197e-09
8.97311e-09
-1.73309e-09
2.1106e-09
-9.35062e-09
-2.72044e-10
7.21343e-09
-6.94138e-09
1.07933e-08
-1.36983e-08
2.90496e-09
4.77176e-10
-3.71648e-10
-2.16216e-09
-8.90318e-09
8.4535e-09
-1.91918e-10
2.24582e-09
-2.0539e-09
6.91486e-09
-6.96243e-09
5.29292e-09
-3.88823e-09
-6.675e-09
5.2703e-09
-1.66893e-10
-5.98244e-09
6.4079e-09
-2.58575e-10
5.05958e-10
5.04083e-09
-4.86086e-09
-6.85925e-10
8.14798e-09
5.64362e-09
-5.40724e-09
-8.38436e-09
1.67106e-10
-1.92864e-10
4.31711e-10
-4.05952e-10
-1.69283e-09
1.32501e-09
-1.25702e-09
1.62484e-09
4.11978e-09
-6.39599e-09
3.01743e-09
-7.41216e-10
7.0186e-09
1.82595e-09
-7.47826e-09
-1.36629e-09
3.43997e-09
-3.81047e-09
5.36555e-09
-4.99504e-09
-1.24499e-09
1.30563e-09
1.19554e-09
-1.25618e-09
-2.92181e-10
7.1935e-10
-8.06381e-09
7.63664e-09
9.10991e-09
6.55905e-09
-9.64345e-09
9.29527e-10
-1.71507e-10
8.21968e-09
1.97471e-10
-5.01735e-09
5.9654e-10
4.22334e-09
1.67629e-09
-1.31391e-09
-3.27963e-09
2.91725e-09
-4.22099e-09
-4.48568e-09
8.3987e-10
6.34827e-10
-9.68808e-09
1.00127e-08
-9.5943e-10
1.9274e-09
-2.34872e-09
-8.90365e-09
-4.2263e-10
7.75822e-11
1.28175e-10
-2.18184e-10
2.55934e-10
-1.65925e-10
-9.73661e-10
1.0578e-09
-8.41346e-11
4.50274e-10
1.16757e-11
-3.65031e-10
-1.16713e-09
8.14082e-09
1.14244e-09
4.45341e-09
-1.8487e-09
7.40186e-09
-1.00066e-08
8.946e-09
-4.73243e-09
4.89634e-09
-4.34991e-09
4.96277e-09
4.1577e-09
8.22279e-09
-3.43449e-09
1.73858e-09
8.66591e-09
-2.86787e-09
-7.53663e-09
8.8155e-09
-9.28386e-09
1.53352e-09
-1.06517e-09
-7.68255e-09
6.90472e-09
3.92193e-09
-3.14409e-09
-1.67231e-09
7.29756e-09
5.73003e-09
-2.40868e-11
4.49615e-11
-1.38204e-10
1.17329e-10
-4.21382e-10
3.68927e-10
4.53243e-09
-4.47998e-09
-1.25146e-09
1.57401e-09
-1.03579e-09
-1.44629e-10
1.88996e-09
-1.74533e-09
-5.6782e-10
-7.80311e-09
1.01345e-09
7.35748e-09
-1.46931e-10
-6.53352e-09
-5.9675e-09
7.52854e-09
-1.23202e-09
-9.73844e-09
1.68868e-09
9.28178e-09
-2.54697e-10
2.55809e-10
-9.86405e-11
3.98278e-10
1.14693e-08
-1.1633e-08
-2.34577e-10
-1.84944e-10
5.5491e-09
-3.9335e-09
-1.43066e-09
-6.10691e-09
-3.19266e-09
4.95937e-09
-8.21332e-09
6.44661e-09
5.34352e-10
-8.58562e-10
8.62448e-09
-8.30027e-09
-6.72045e-09
5.30601e-09
-3.51096e-10
1.23232e-10
-4.21648e-10
5.55049e-10
-1.2783e-09
7.28869e-11
4.90061e-10
-2.84258e-11
-9.40676e-09
2.76281e-09
9.55061e-09
4.6498e-09
-4.44144e-09
5.08456e-09
-1.23365e-10
1.69177e-09
-1.70558e-09
-3.85799e-09
8.78157e-11
4.3795e-10
-9.65795e-11
4.82522e-09
-2.74286e-09
-4.46187e-09
9.64783e-09
1.35772e-09
-2.19005e-09
6.76961e-11
-9.27261e-10
9.97671e-10
-1.38107e-10
-2.46012e-09
-3.90238e-09
4.19145e-09
-2.9542e-10
3.87023e-10
-8.21744e-09
2.50748e-09
7.13985e-09
3.66947e-09
-2.07058e-09
-6.79829e-09
-1.6674e-09
1.74198e-10
4.85976e-09
-3.36655e-09
-1.20262e-10
-1.48922e-09
1.60948e-09
-5.47439e-09
5.49671e-09
-8.0138e-09
1.99341e-09
-1.76234e-09
7.78273e-09
-7.19211e-09
-1.58885e-09
1.35393e-09
-9.51772e-09
-1.91428e-09
1.84806e-09
9.58394e-09
-2.743e-10
1.36166e-10
-7.42503e-09
5.77545e-09
-3.05131e-10
-5.47032e-09
-2.74896e-10
-9.49447e-11
4.00649e-11
3.29776e-10
-1.1218e-09
1.03591e-09
-1.16297e-09
1.24886e-09
1.101e-09
1.4902e-08
-6.64326e-09
-9.35973e-09
-7.27258e-09
-3.80448e-10
1.82201e-10
-3.2846e-09
6.95203e-09
6.47317e-09
5.73572e-10
-6.22414e-10
3.03965e-09
7.95349e-10
5.81283e-09
-1.76796e-09
5.23201e-09
-5.95574e-09
2.49168e-09
-1.99835e-10
-7.4769e-10
8.41071e-09
-8.43731e-09
7.74284e-10
8.62879e-09
8.93896e-10
-9.16968e-09
-3.53002e-10
-1.0511e-10
-8.66219e-09
1.46196e-10
-7.64314e-09
5.0128e-10
7.55982e-09
-4.17957e-10
3.08325e-09
-8.52701e-09
8.62803e-09
4.9906e-09
-2.81112e-09
-9.55953e-09
7.38005e-09
4.12426e-10
-1.49294e-10
1.0012e-10
6.5024e-10
3.10154e-10
-4.27914e-11
-8.31456e-11
1.00473e-08
5.09314e-10
-1.25915e-09
-9.29742e-09
-3.16861e-09
7.31033e-09
-9.55525e-11
9.88199e-11
-7.2275e-11
6.90076e-11
-4.97278e-09
2.348e-09
3.73414e-09
-1.10936e-09
-7.21526e-09
8.04412e-09
2.0731e-09
6.78882e-09
-3.3986e-09
3.21046e-09
-6.60067e-09
3.02161e-09
-5.56764e-09
-1.78136e-09
4.3274e-09
2.52509e-09
-5.25614e-09
1.17008e-08
9.84476e-09
-8.29217e-09
7.68022e-09
-5.42043e-09
4.36419e-09
-3.91653e-09
6.16943e-12
-2.49031e-11
8.92079e-09
-8.90205e-09
6.34733e-11
-9.16116e-09
-3.28589e-10
9.42627e-09
5.62445e-09
-5.73435e-09
-1.41444e-09
1.52434e-09
9.08302e-10
6.91199e-11
-6.99528e-11
-2.8858e-09
2.43315e-09
5.79115e-10
-1.26459e-10
-5.38573e-09
2.51223e-09
-2.98953e-09
5.86303e-09
1.15703e-09
-1.08737e-09
1.23043e-09
-1.00291e-08
7.89884e-09
8.99844e-10
6.5934e-10
-6.68798e-09
-5.13342e-09
1.11621e-08
-5.91851e-09
-5.47376e-09
7.78544e-09
1.82388e-09
8.67791e-09
-9.21196e-09
-4.20226e-09
3.98102e-09
7.01007e-09
-1.07411e-08
1.11394e-08
3.36519e-09
4.79787e-09
-6.25017e-09
-9.05965e-10
-8.87559e-09
1.09541e-09
-1.50368e-09
-4.42181e-09
-4.85034e-09
3.05044e-09
4.29471e-11
-1.33941e-11
-1.41937e-09
1.38981e-09
-1.08364e-08
9.52873e-11
6.93302e-09
-2.71441e-09
-6.2369e-09
-1.99034e-09
-6.44871e-09
-6.34e-09
6.03428e-09
1.38833e-10
-1.74039e-09
-9.05776e-09
1.53524e-09
-4.6365e-09
6.23565e-09
4.63147e-09
-2.11679e-10
-4.48291e-10
4.67106e-10
-6.96049e-09
1.07111e-10
6.85338e-09
2.48147e-10
-8.67664e-11
8.59118e-09
-2.18241e-09
-1.00942e-09
-5.24159e-09
3.68849e-09
-8.32423e-09
-1.70308e-09
-7.87511e-09
2.1172e-09
3.30484e-09
4.79002e-09
5.76488e-10
2.11972e-10
-9.53994e-09
-7.47903e-10
1.44247e-09
8.84537e-09
-8.09669e-09
8.77964e-10
7.21873e-09
-4.7351e-09
4.81968e-09
-2.55581e-09
-5.9078e-09
2.47922e-09
5.98439e-09
-3.88309e-09
5.32217e-09
-7.63963e-10
1.05562e-08
-8.92151e-09
-4.95516e-09
5.35439e-09
-2.83348e-09
2.43425e-09
9.27596e-09
-9.96894e-10
-9.95137e-09
-1.20616e-09
1.40937e-09
-8.82056e-10
8.5147e-09
-7.63264e-09
-4.88462e-09
-3.49788e-09
7.75477e-09
-5.08903e-10
-8.68555e-09
2.53984e-10
1.03245e-08
-3.2476e-09
3.47664e-09
-1.05536e-08
9.2943e-09
2.45014e-10
-2.10013e-10
-1.11648e-10
3.94227e-09
-1.96384e-10
8.5585e-10
-4.60174e-09
-1.08575e-10
1.16635e-10
-6.34099e-12
-4.40083e-09
-3.57542e-09
6.89279e-11
1.51445e-09
-1.54043e-09
-2.0591e-10
-9.11465e-10
1.0265e-09
-6.44282e-09
5.87051e-09
-1.01334e-09
1.58565e-09
1.137e-09
-5.00047e-09
-2.90007e-10
4.15348e-09
-5.82517e-09
-3.51638e-09
7.17939e-09
-4.00041e-10
-8.16285e-11
-8.03477e-10
-8.42357e-09
8.47935e-09
6.39769e-09
-1.54783e-09
-5.42933e-10
1.12801e-09
-9.20157e-09
8.55461e-09
-4.81047e-10
8.12726e-09
-5.87569e-10
-7.84714e-09
3.07455e-10
-5.52121e-09
-2.87455e-09
7.00774e-09
1.38802e-09
3.55624e-09
9.31637e-09
-1.17762e-08
1.04555e-09
2.1623e-10
-1.14625e-09
-1.15531e-10
-8.42897e-09
-5.07352e-11
8.54854e-09
2.12587e-10
-4.31142e-10
-5.6522e-09
4.17816e-09
7.43433e-10
-7.98804e-10
-6.25679e-09
7.23649e-09
-1.80899e-10
-6.28013e-09
5.36441e-09
-6.31097e-09