/*--------------------------------*- C++ -*----------------------------------*\
  =========                 |
  \\      /  F ield         | OpenFOAM: The Open Source CFD Toolbox
   \\    /   O peration     | Website:  https://openfoam.org
    \\  /    A nd           | Version:  8
     \\/     M anipulation  |
\*---------------------------------------------------------------------------*/
FoamFile
{
    version     2.0;
    format      ascii;
    class       volVectorField;
    location    "3";
    object      U;
}
// * * * * * * * * * * * * * * * * * * * * * * * * * * * * * * * * * * * * * //

dimensions      [0 1 -1 0 0 0 0];

internalField   nonuniform List<vector> 
5119
(
(0.00085101 0.0013581 1.13214e-22)
(0.000206064 7.07313e-05 5.03298e-21)
(0.000839923 1.32959e-05 -2.96323e-21)
(0.000588285 0.000792852 -4.86796e-25)
(0.000801973 0.00122809 2.29669e-22)
(0.000869614 0.000105935 1.53277e-21)
(0.000271151 0.00020238 -1.53813e-21)
(3.38921e-05 -4.59099e-06 -7.48459e-23)
(0.000264054 0.00104687 -1.27915e-21)
(0.000919702 0.00145897 9.69425e-23)
(0.000619989 0.000802403 4.63667e-25)
(0.000675995 0.00108417 -3.76439e-22)
(0.000681009 0.00108419 -2.60864e-22)
(0.000696587 0.00048013 1.17765e-21)
(0.000781755 0.00126884 -8.70527e-23)
(0.000637958 0.0010353 0)
(0.00079624 0.00131698 3.41026e-22)
(0.000770085 0.00123533 -1.32886e-22)
(0.00089379 0.00147005 3.45539e-22)
(0.000706641 0.00114856 7.49614e-23)
(0.000703213 0.00113145 3.32517e-22)
(0.000627194 0.000998378 8.88917e-22)
(0.000629285 0.00101417 -1.86081e-22)
(0.000755265 0.00119446 1.33174e-22)
(0.000682096 0.0010749 0)
(0.000911502 0.00144568 8.06252e-22)
(0.000638089 0.00101991 0)
(0.000658349 0.00104235 1.00117e-22)
(0.000675728 0.00106937 3.85269e-22)
(0.000614792 0.000978779 1.11142e-22)
(0.000702487 0.00110106 -3.78367e-22)
(0.0006853 0.00108358 -9.20344e-24)
(0.000642914 0.00100751 6.42384e-22)
(0.000747334 0.00120693 0)
(0.000912271 0.00145823 -1.14091e-22)
(0.000653536 0.00104188 3.52565e-22)
(0.000626942 0.000997235 3.4503e-22)
(0.000637834 0.00101569 4.65284e-23)
(0.000579038 0.00101322 -6.38377e-25)
(0.000629123 0.00099346 1.06824e-21)
(0.000570922 0.000151471 -8.41978e-24)
(0.000794912 0.00137199 -4.80439e-22)
(0.000696772 0.00118491 2.60902e-22)
(0.00061855 0.00106497 0)
(0.000606037 0.00103834 -2.73196e-22)
(0.000592636 0.000156713 -2.34293e-21)
(0.00073085 0.00125827 -8.7373e-22)
(0.000624232 0.00105951 0)
(0.00070371 0.00118263 9.10085e-24)
(0.000685217 0.00119276 -2.4177e-22)
(0.000588438 0.000403652 -1.82941e-21)
(0.000111872 0.000631925 -1.21102e-21)
(0.000935384 4.9898e-05 -6.3264e-22)
(0.000622007 8.16533e-05 2.52979e-21)
(1.62328e-05 0.000429862 -3.60426e-21)
(0.000611346 0.0010117 9.85281e-22)
(0.000677517 0.00076035 1.61378e-24)
(3.70178e-05 -1.34103e-06 1.05264e-21)
(0.000691626 0.00120475 0)
(0.000809946 0.00136889 0)
(0.000551194 0.00102673 -1.6797e-21)
(0.000605313 0.00103373 2.61313e-21)
(0.000628549 0.00105901 0)
(0.000738391 0.00125482 1.42547e-21)
(0.000463277 9.08291e-05 1.37146e-21)
(0.000735583 0.00127075 1.0008e-21)
(0.000735934 0.000358586 2.14385e-24)
(0.000868013 0.000580935 1.21765e-21)
(0.000720485 0.0012095 0)
(0.000696147 0.000510371 -3.57904e-22)
(0.000196191 0.00035635 -1.20132e-24)
(0.00017873 -2.1626e-05 -5.44975e-21)
(0.000886045 0.000327921 1.65386e-21)
(0.000616843 0.00107648 4.73563e-22)
(0.000653185 0.00104806 -1.6279e-21)
(0.00083334 0.00132339 0)
(0.000314232 0.000104015 1.12205e-21)
(0.000611198 0.000222969 6.91773e-22)
(0.000677429 0.00120811 0)
(0.000602124 0.00107575 -9.07507e-22)
(1.60902e-05 0.000714184 0)
(0.000944189 0.000532364 0)
(0.000882332 0.00146643 0)
(0.000626636 0.00130021 2.49797e-23)
(0.000592652 0.000102521 0)
(0.000640295 0.0011387 1.80026e-22)
(0.000755113 -5.05454e-05 2.66374e-21)
(0.000666277 0.00111417 2.26258e-21)
(0.000502884 0.00105494 5.09853e-23)
(0.000526026 0.00110126 0)
(0.000512405 0.00107405 0)
(0.000493539 0.00103629 0)
(3.61759e-05 -1.02847e-06 -1.70147e-21)
(0.000415272 0.000768393 -1.65988e-21)
(0.000526442 0.000929089 0)
(0.000428692 0.000670543 2.80691e-21)
(0.00088634 -3.00268e-05 0)
(0.000626845 0.00109086 1.83569e-21)
(0.00066549 0.000784887 1.68833e-21)
(0.000625054 0.00108583 -1.61746e-22)
(0.00071743 0.00129479 7.65842e-22)
(0.000607951 0.00104706 0)
(0.00146493 0.000988067 -2.84808e-21)
(0.000824888 0.00148151 -5.18707e-22)
(0.000310349 0.000117826 2.43353e-21)
(3.75525e-05 5.04617e-06 1.25301e-21)
(0.000690629 0.00122953 -2.34532e-21)
(0.000560019 0.000309553 5.26887e-22)
(0.000817573 0.000589066 1.5361e-22)
(0.000635718 2.60373e-05 0)
(0.000423943 0.00118408 -2.95783e-21)
(3.58793e-05 2.13539e-06 -2.61412e-26)
(0.000238471 -2.83102e-05 9.73615e-22)
(0.000707634 0.00118021 -2.39885e-22)
(0.000304936 0.000165972 4.96612e-21)
(0.000444144 0.00062393 -2.65789e-22)
(0.00049795 0.000787578 -2.10943e-21)
(3.98235e-05 5.00838e-06 -2.35136e-21)
(0.000481919 0.000567338 -4.6151e-21)
(0.0007131 0.00121527 1.28857e-22)
(0.000762501 0.000355192 0)
(0.000750609 0.00125467 -7.81036e-22)
(0.00014486 0.000838787 -5.23864e-22)
(0.00061399 0.00108526 1.49808e-21)
(0.000779572 0.00136288 -1.99337e-21)
(0.000874144 0.00146961 5.38444e-22)
(0.000642626 0.00116075 -4.47418e-24)
(0.000841121 0.00150326 -3.0121e-22)
(0.000742362 0.00123526 5.32438e-22)
(0.000600285 0.00102284 -3.83179e-22)
(0.000637526 0.00111369 -1.57087e-21)
(0.000599331 0.00102061 -2.66439e-22)
(0.000783898 0.00130904 -5.40914e-22)
(0.000692244 0.0011762 -4.99243e-22)
(0.000764605 1.33562e-05 -1.76153e-21)
(0.000567207 0.000330653 9.45945e-25)
(0.000634994 0.00120117 0)
(0.000644339 0.0010964 0)
(0.000235719 0.000323076 1.47783e-21)
(0.000738286 0.00123723 0)
(0.000606715 0.00106192 -1.20311e-21)
(0.00059147 0.00104156 4.06551e-22)
(0.000594731 0.00104538 3.17908e-22)
(0.000623527 0.00103037 1.36452e-22)
(0.000657449 0.0011191 4.29775e-22)
(0.000641654 0.00108864 1.76614e-22)
(0.000613824 0.00103536 -1.17591e-22)
(0.000641149 0.001083 0)
(0.000624777 0.00105611 -1.18919e-22)
(0.000837727 0.000882331 -4.01618e-22)
(0.000580625 0.00112036 0)
(0.000886233 0.000177954 0)
(0.000622082 0.00109105 0)
(0.000404464 0.000759301 2.71173e-21)
(0.000328623 0.000595857 2.50102e-21)
(0.000801797 0.00137206 4.06156e-23)
(0.000391982 0.000638656 3.36734e-21)
(0.000894302 6.37168e-05 0)
(0.000274813 0.000264671 1.20207e-21)
(0.000166534 0.000696241 2.4647e-22)
(0.000785545 0.00137842 -1.20015e-21)
(6.59559e-06 1.92784e-06 0)
(0.000141012 0.000264631 -2.62807e-21)
(0.000702215 0.00124025 -1.13662e-21)
(3.80592e-05 3.94692e-06 5.84762e-22)
(0.000967986 0.000249742 2.8165e-21)
(3.54935e-05 0.000191603 -7.21052e-21)
(0.00014993 -1.48318e-05 -1.72844e-21)
(4.1727e-05 -1.01471e-06 2.07108e-21)
(0.000132643 0.000569034 0)
(0.000260103 0.000350486 1.93948e-22)
(0.00079426 0.00140119 5.32117e-22)
(0.000461376 0.00054275 2.63322e-21)
(0.000464655 0.00045886 -2.6378e-22)
(0.000389027 0.000598484 2.71111e-21)
(0.000532315 0.000477083 -2.55944e-21)
(0.000145555 0.00031307 -1.45826e-24)
(0.000681919 0.00120597 1.32748e-22)
(3.67551e-05 7.93038e-06 -1.97222e-21)
(0.000778532 0.00137179 2.77411e-22)
(0.000791864 0.000338138 -3.6043e-21)
(0.000717601 0.000379317 0)
(0.000626171 0.00108265 0)
(0.000570134 0.00100354 -1.63591e-21)
(0.000258404 7.48352e-05 -3.19898e-21)
(0.000434213 0.000706022 -4.45077e-22)
(0.000455328 0.000106054 1.31303e-21)
(0.00031315 0.000301698 -1.26081e-21)
(0.000564134 0.000373595 -1.99719e-21)
(0.000258388 0.000182044 -1.28766e-21)
(0.000142404 0.000694324 0)
(0.000560763 0.00111511 -5.22863e-22)
(0.000672211 0.00118207 1.17178e-21)
(0.00051353 0.000539654 2.3409e-21)
(2.58098e-05 -5.08932e-06 0)
(0.000310456 0.000724581 0)
(0.000688141 2.33634e-05 -1.66051e-21)
(0.000689214 0.000391375 6.10727e-21)
(0.000357459 0.00083295 1.23318e-21)
(0.000929901 0.000219427 2.33828e-22)
(0.000136294 -1.35356e-05 -4.58409e-21)
(0.000687541 0.0013238 0)
(4.28784e-05 2.30396e-06 -2.10419e-22)
(0.000706728 0.00125243 -3.36981e-22)
(0.00062174 0.00112687 0)
(0.000657225 0.0011786 2.90512e-22)
(0.000601942 0.00100893 1.34003e-21)
(0.000521707 0.00107351 -3.83072e-21)
(0.000307106 0.000408727 9.29436e-22)
(0.000781113 0.000548213 -5.14887e-21)
(0.000162801 0.000249936 2.62358e-21)
(0.000497835 0.000812956 5.47121e-23)
(0.000920061 0.000290912 -4.46891e-25)
(0.000563947 0.000916199 -1.72728e-21)
(0.000592182 0.000301856 4.89115e-22)
(0.000327771 0.000404954 -1.19409e-21)
(0.000243305 0.000314976 2.6362e-25)
(0.000434943 0.000706328 -1.42314e-21)
(0.000321612 0.00061579 -2.69049e-24)
(0.000334646 0.000291027 8.73895e-22)
(0.00081451 0.0014982 1.2355e-21)
(0.000406237 0.000639904 0)
(3.26002e-05 7.85731e-06 0)
(0.000560703 0.00108277 -8.8234e-22)
(0.000436237 0.000620227 -1.32899e-22)
(0.000532385 0.000802798 0)
(0.000243413 0.000100942 -4.29602e-25)
(0.000662051 0.000189032 0)
(0.000779541 0.00137121 0)
(0.000635693 0.00113054 2.49294e-22)
(3.26289e-05 1.81285e-05 -4.65139e-21)
(0.000728892 0.00124244 -5.83902e-22)
(0.000592836 0.00104597 8.70466e-22)
(0.0007281 0.00130324 1.93034e-21)
(0.000744598 0.0012807 0)
(0.000274248 0.000373464 1.04999e-22)
(0.000678104 0.00112515 1.89385e-21)
(0.000582794 0.000989458 0)
(4.57255e-05 0.000395871 3.95515e-22)
(0.000381486 0.000945583 -2.51106e-22)
(0.000434649 0.000575234 -2.93452e-21)
(0.000123464 0.000252455 1.60896e-24)
(0.000420476 0.000721121 5.16558e-23)
(0.00125248 0.00137841 0)
(0.000748295 0.00136287 -1.33943e-21)
(0.000826086 0.00150549 -3.02466e-22)
(0.000726311 0.0012387 -4.44473e-22)
(0.000303426 0.000371003 1.72402e-21)
(0.000599036 0.000990033 4.16927e-22)
(0.000559688 0.00101385 1.80821e-22)
(0.000627928 0.00107357 0)
(0.000846759 0.00145715 0)
(0.000632747 0.00107941 0)
(0.000658363 0.00118189 3.36452e-22)
(0.000596831 0.00106013 -4.72029e-22)
(0.000590512 0.00102146 -1.19961e-21)
(0.000611769 0.00108687 0)
(0.00056168 0.00102159 -2.32341e-22)
(0.000799615 0.00145292 5.11638e-22)
(0.000810031 0.000481707 -9.09597e-22)
(0.000294406 0.000282945 0)
(8.25383e-05 -0.000174436 -8.38655e-22)
(0.00114471 0.000921542 0)
(0.00066853 0.00118097 5.03927e-22)
(0.000597793 0.00104785 4.84129e-22)
(0.000612198 0.00106428 2.61814e-22)
(0.000703638 0.00119663 -6.47527e-22)
(0.000605181 0.00107161 0)
(0.000186906 0.000323058 1.98805e-22)
(0.000836181 0.00149467 -6.76093e-22)
(0.000551091 0.000353301 5.47125e-22)
(1.45249e-05 -8.81099e-06 0)
(0.000808685 0.00136584 4.95164e-22)
(0.000730933 0.00128613 2.29621e-21)
(0.000789236 0.00126324 8.6217e-23)
(0.000906653 4.4386e-05 3.57091e-21)
(0.00157365 0.00130735 2.35849e-21)
(0.000637765 0.00100724 0)
(0.000622426 0.00104761 4.97153e-23)
(0.000774149 0.00135674 1.30914e-21)
(0.000599161 0.00101068 1.2981e-21)
(0.000539711 0.000971953 -4.67233e-22)
(0.000526528 0.000949097 -6.16279e-22)
(0.000552626 0.000971646 4.39166e-22)
(0.000525459 0.000931466 0)
(0.000628532 0.00106688 -7.56435e-22)
(0.000744649 0.00129569 3.50071e-22)
(0.000579366 0.00102819 0)
(0.000751443 0.00126177 2.21138e-22)
(0.000601428 0.00102318 5.01405e-23)
(0.000634958 0.00105247 -1.2642e-21)
(0.000531364 0.000939458 -4.00656e-22)
(0.000559971 0.000929165 5.57763e-22)
(0.000158398 0.000236854 5.81072e-21)
(0.00070343 0.00123092 1.42531e-22)
(0.000651401 0.00118037 -1.46673e-21)
(0.000656059 0.00110709 0)
(0.000487579 0.000500022 2.4418e-22)
(2.16911e-05 0.000106466 1.55299e-21)
(0.000617005 0.00105528 0)
(0.00139523 0.000265137 0)
(0.000664913 0.00111203 5.52665e-22)
(0.000275589 0.000568606 0)
(0.000886937 0.000117062 3.0669e-21)
(0.000453528 0.000537356 0)
(0.000985667 0.000240471 0)
(0.000915365 0.000157154 0)
(0.000597745 0.00105115 1.23872e-22)
(0.000447417 0.000656343 3.12374e-22)
(0.000702782 0.00110629 1.49356e-24)
(0.000632242 0.0010384 -1.73788e-22)
(0.000612647 0.00101959 0)
(0.000611875 0.00100699 8.29162e-22)
(0.000653123 0.00103223 -3.44603e-22)
(0.000754406 0.0012997 0)
(0.000710765 0.00119099 4.40839e-22)
(0.000254344 7.41204e-05 6.66023e-21)
(0.00082305 -0.000161054 2.15173e-21)
(0.000781042 0.0013983 -4.16459e-22)
(0.000811726 0.00133077 -8.29458e-22)
(0.000668164 0.000812937 1.7053e-22)
(0.000577423 0.00102283 2.68723e-24)
(0.00067273 0.00106956 -7.81682e-22)
(0.000896825 0.000135601 0)
(0.000406819 0.000753647 -1.41251e-21)
(0.000584236 0.00110148 -3.75863e-22)
(0.000748431 0.000684907 -3.09187e-21)
(0.000728214 0.00129266 -6.14911e-22)
(0.000707756 0.00119347 -2.83095e-24)
(5.43125e-05 0.000565767 -2.7833e-21)
(0.000629984 0.00104559 8.70796e-22)
(0.00088021 0.00146536 -1.11467e-21)
(0.000551873 0.00116368 1.78805e-22)
(0.000262975 0.000333262 1.17879e-21)
(0.000869684 3.73996e-05 0)
(0.000754352 0.00116843 1.76459e-22)
(0.000531869 0.00096087 -4.14229e-22)
(0.000673337 0.00120773 1.49948e-21)
(0.000700671 0.0011478 -2.42863e-22)
(0.000798103 0.00124105 -2.09865e-22)
(0.000583453 0.00103212 1.31612e-21)
(0.000628321 0.000989852 3.29771e-22)
(0.000650357 0.000810399 4.64614e-23)
(0.00075788 0.00133848 -4.29336e-22)
(0.000572105 0.000995563 -1.12152e-21)
(0.000557252 0.00087781 -1.38487e-22)
(0.000670632 0.00104725 -5.40832e-22)
(0.00054579 0.000907885 0)
(0.00031468 0.000565369 1.56004e-21)
(0.000289992 0.0006344 0)
(0.000634504 0.00111204 -4.75943e-22)
(0.000614567 0.000980535 -1.3032e-21)
(0.000681579 0.00110093 4.2181e-22)
(0.000772229 0.00121466 -1.10319e-21)
(0.000635447 0.001089 -7.76002e-22)
(0.00063218 0.00101124 -2.49245e-21)
(0.000673496 0.00109009 0)
(0.000661016 0.00108121 0)
(0.000657076 0.00104887 -3.11008e-22)
(0.000822273 0.0012904 1.40356e-21)
(0.000798835 0.00134035 4.91761e-22)
(0.000599916 0.00100115 -2.19955e-23)
(0.000605939 0.00101639 0)
(0.000603469 0.000972369 7.5977e-22)
(0.000613336 0.000972839 -2.51607e-22)
(0.000621266 0.00104288 -3.2676e-23)
(0.000810329 0.0012977 0)
(0.000610815 0.00096822 3.75549e-22)
(0.000610557 0.00100576 -9.60345e-22)
(0.000626593 0.00103156 5.63316e-22)
(0.000609621 0.000984991 0)
(0.000794711 0.00129698 -3.43672e-22)
(0.000850727 0.00140585 1.42616e-21)
(0.000858076 0.00138425 1.35359e-21)
(0.000516285 0.00069533 -1.94748e-24)
(0.000791353 0.000616266 2.57283e-21)
(0.000606347 0.00042913 1.84392e-21)
(0.000515515 0.000540181 -1.43769e-21)
(0.000720092 0.00129718 2.90768e-22)
(0.000868225 3.81215e-05 1.53842e-21)
(0.000170548 0.000672073 0)
(0.000291608 0.000257526 -1.57601e-21)
(0.00080949 0.00135331 -4.15451e-22)
(0.00069874 0.00121744 2.47664e-22)
(0.000604941 0.00106802 0)
(0.000718594 0.00128539 1.29525e-21)
(2.25981e-05 -5.24099e-07 -2.75497e-26)
(0.000598657 0.000940826 2.79678e-22)
(0.000663264 0.0010425 2.47272e-22)
(0.000546074 0.000927376 8.30224e-22)
(0.00102762 0.000223832 -3.20812e-21)
(0.000874144 0.000189619 -2.17118e-21)
(0.000693697 0.00129915 -9.82633e-22)
(0.000573153 0.000283471 -4.76568e-22)
(0.0005331 0.000911141 0)
(0.000521672 0.000902527 4.11934e-22)
(0.000545951 0.000869358 7.3134e-23)
(0.000586653 0.000941479 -2.90851e-22)
(0.000571909 0.000917079 -1.44681e-22)
(0.000746223 0.000391101 -2.40761e-21)
(0.000639224 0.00113691 3.9859e-22)
(0.000356226 0.000277048 4.68525e-22)
(1.9525e-05 -7.22961e-06 -3.50672e-25)
(0.000608308 0.00120943 6.0835e-22)
(0.000736565 0.00122777 -1.59396e-21)
(0.00105964 0.000582665 6.79654e-25)
(0.000101037 0.00078443 0)
(3.8637e-05 9.34139e-06 1.09114e-21)
(9.97361e-05 0.000530449 0)
(0.000524422 0.000900221 -1.02508e-21)
(0.000542555 0.00106647 0)
(0.000777192 0.00131325 0)
(0.000671362 0.00113824 7.09972e-22)
(0.00058647 0.000966391 0)
(0.000561778 0.000926308 -8.11491e-23)
(0.000571448 0.000942715 1.37293e-22)
(0.000257348 0.000808477 -2.36312e-21)
(0.000620998 0.00109786 -1.25401e-21)
(0.000726004 0.00118463 0)
(0.000752533 0.000285269 3.55719e-21)
(0.000563738 0.000280834 4.07371e-21)
(0.000574076 0.00101865 0)
(0.000449836 0.00055845 2.84843e-21)
(0.000570283 0.00035008 1.31424e-21)
(0.000282595 0.000349577 -4.06005e-22)
(0.000501355 0.000643146 3.40245e-22)
(0.00086352 0.000283253 2.78525e-21)
(0.000596403 0.00107545 5.1619e-22)
(0.000580671 0.00125304 0)
(0.000833494 6.57699e-05 1.18765e-21)
(0.000608663 0.00110124 3.68979e-22)
(0.000679024 0.00102029 2.52241e-22)
(0.00078498 0.00127332 -2.41821e-23)
(0.000990636 0.000202001 -3.68467e-21)
(0.000291265 0.00051448 0)
(0.000653458 0.000423375 0)
(0.000536292 0.00111852 -1.02014e-21)
(0.000605888 0.00113959 -1.89711e-21)
(0.000875221 0.000128564 3.0824e-21)
(0.000374911 0.000314414 1.88172e-21)
(3.05176e-05 0.000714299 2.03155e-22)
(0.000865877 0.000341912 0)
(0.000338474 0.000753227 7.52892e-22)
(0.000539297 0.00100541 0)
(0.000559865 0.00104291 7.10083e-23)
(0.000574522 0.0010701 0)
(0.000549595 0.00102379 0)
(0.000315249 0.00027679 4.76867e-25)
(0.000754264 0.00100288 2.59369e-22)
(0.000743739 0.00130191 2.08604e-22)
(0.00130585 0.00079794 -1.40126e-21)
(3.6532e-05 5.62085e-05 0)
(0.000860953 0.00144726 -9.45495e-22)
(0.000609798 0.00103172 0)
(0.000821916 0.00140595 0)
(0.000795473 0.00135668 -5.80083e-22)
(0.000582223 0.00102207 -1.66792e-23)
(0.00057535 0.00100209 2.63603e-22)
(0.000589349 0.00104693 1.92524e-22)
(0.000605132 0.00107398 -7.76847e-22)
(0.000591897 0.00100412 -1.23722e-21)
(0.000810466 0.00142599 -4.91203e-22)
(0.000617319 0.00111065 -8.48408e-24)
(0.000646134 0.00105697 0)
(0.000321714 0.000387451 -4.33792e-22)
(0.000490242 -0.000138033 2.10401e-21)
(0.000776917 0.00133683 -1.18818e-21)
(0.000645345 0.00114594 -1.68933e-22)
(0.000658631 0.00110604 -3.63903e-22)
(0.000578475 0.000967966 4.32794e-22)
(0.000670071 0.00110232 7.97049e-22)
(0.000739141 0.00118283 4.00517e-22)
(0.000650189 0.00104336 1.09117e-21)
(0.000629634 0.000992531 1.07144e-21)
(0.000655361 0.00108152 0)
(0.000665916 0.00106224 -8.99339e-22)
(0.000628231 0.00103589 0)
(0.000806566 0.00125678 -6.17255e-22)
(0.000810993 0.00131874 4.46079e-22)
(0.000603807 0.00100956 1.86922e-22)
(0.000605303 0.00100023 -4.19739e-22)
(0.000618905 0.0010359 -9.9406e-22)
(0.000594845 0.000946984 6.50116e-22)
(0.000619464 0.000972959 -1.04087e-21)
(0.000796547 0.0013015 -1.14279e-21)
(0.000573436 0.000967935 -1.67308e-23)
(0.000609833 0.00103248 -8.71625e-22)
(0.000594069 0.0010065 -3.40098e-22)
(0.000588963 0.000985433 -5.01126e-22)
(0.000769281 0.00129254 0)
(0.000842877 0.00140713 0)
(0.000855372 0.001369 0)
(0.000193926 4.46416e-05 1.00238e-24)
(0.00109256 0.000624661 8.27163e-24)
(0.000454104 4.34276e-05 -6.87327e-22)
(0.000728457 0.00127164 -4.83178e-22)
(0.000550352 0.00112614 -1.48372e-23)
(0.000335331 0.000141903 4.19952e-21)
(0.000894646 6.68237e-05 0)
(0.000460234 0.000442954 9.62252e-25)
(0.00118269 0.000371382 2.6714e-21)
(0.000627674 0.000206263 1.53822e-21)
(0.000655224 0.00122134 2.45837e-21)
(5.26147e-05 0.000719108 -2.63589e-21)
(0.00084787 0.000258086 -3.27609e-21)
(0.000682974 0.00126957 0)
(1.81099e-05 0.000550368 0)
(0.000742694 0.00128362 1.11949e-21)
(0.000345205 0.00117783 -1.46984e-21)
(0.00046622 0.000770141 -1.6818e-22)
(0.000441939 0.000765439 -1.58836e-22)
(0.000598585 0.00103792 -5.43346e-23)
(0.000456679 0.000763851 -4.33436e-22)
(0.000665112 0.00118361 0)
(0.000574086 0.00103214 3.1456e-22)
(0.000736076 0.00122854 4.35041e-22)
(0.000309246 0.000635828 2.28235e-21)
(0.000438714 0.00048437 0)
(0.000188248 0.000237021 2.43411e-21)
(0.000410299 0.000567761 5.0951e-21)
(0.000883216 0.0015042 4.95161e-22)
(0.000591548 0.000927557 3.54192e-22)
(2.67675e-05 2.35561e-05 9.26852e-22)
(0.000490781 0.00110058 1.58134e-21)
(0.000134295 0.000713523 1.73987e-21)
(0.000846203 0.00151745 -4.02545e-22)
(0.000786464 0.00138072 2.37823e-22)
(0.000719636 0.00119882 8.80126e-24)
(0.000852294 0.000156345 7.23472e-22)
(0.000702946 0.00123058 1.82636e-21)
(0.000738257 0.00133782 -1.34496e-21)
(0.000717685 0.00118184 -1.28247e-22)
(0.000612362 0.00113624 0)
(0.000528096 0.000940547 0)
(0.000632083 0.00112977 2.71013e-22)
(0.000181279 0.000230906 -5.691e-21)
(0.000849751 9.48552e-06 -3.64085e-21)
(0.000606084 0.00111729 3.8074e-22)
(0.000684709 0.000729925 -1.61435e-21)
(0.000642695 0.00107422 -1.88837e-22)
(0.00050073 0.000933372 -1.50051e-21)
(0.000630145 0.00113238 -4.89453e-22)
(0.000916786 0.00148678 5.31156e-22)
(0.000839841 0.00143624 4.21841e-22)
(0.000858833 0.00144334 0)
(0.000638084 0.0010654 1.39284e-21)
(0.000611115 0.00102516 -1.92862e-21)
(0.00113786 0.000396361 2.05409e-21)
(0.000654482 0.00077803 -1.45732e-21)
(0.000724009 0.00124172 1.1452e-22)
(0.000855339 0.000536437 5.92082e-24)
(0.000589429 0.00111104 0)
(0.00062399 0.000203931 0)
(7.11393e-05 -0.000132518 -1.49011e-22)
(0.000860501 2.98364e-05 0)
(0.000569464 0.0010357 -1.59589e-21)
(0.000704875 0.00124922 -3.87721e-23)
(0.000576209 0.00103896 0)
(0.000440545 0.000699166 6.39957e-22)
(0.000608774 0.000991972 0)
(0.000408819 0.000803198 0)
(8.07469e-05 4.32239e-05 0)
(0.000489039 0.00077317 1.60213e-21)
(0.000745409 0.00134721 9.5753e-25)
(0.000891148 5.17465e-06 -3.62516e-21)
(3.55623e-05 9.72416e-06 -2.22823e-21)
(0.00076834 0.000481939 2.78843e-21)
(0.000715434 0.00131197 -7.11177e-23)
(0.000268373 0.000309409 -1.58388e-21)
(0.00162736 0.000181705 -2.10076e-21)
(7.13403e-05 0.000842274 -8.27161e-22)
(0.000673525 0.001153 0)
(0.000862314 0.000205904 0)
(0.000867974 9.05217e-05 -2.97072e-21)
(0.000890596 0.000351111 -1.80093e-21)
(0.000691076 0.00119055 -4.92701e-22)
(0.000328486 0.000727688 -9.00712e-22)
(0.000618259 0.000251714 0)
(0.000841366 0.000200694 0)
(2.05193e-05 -1.12953e-05 -2.40872e-21)
(0.000354726 0.001098 -7.68791e-23)
(0.000329856 0.00104817 3.46132e-23)
(0.000475977 0.00142675 0)
(0.00115586 0.00103952 1.77659e-21)
(0.000747347 0.000556938 -5.28337e-24)
(0.000482371 0.000525631 -1.2452e-21)
(0.000986448 0.000114896 -2.87779e-24)
(0.000793452 -1.96788e-05 -1.74433e-21)
(0.00058034 0.000979395 -5.94874e-24)
(0.000818535 0.00126703 3.0334e-22)
(5.45553e-05 4.67106e-05 1.33936e-25)
(0.000507182 8.27357e-05 -1.02781e-21)
(3.05879e-06 2.85639e-05 -2.61873e-22)
(0.000657737 0.00114981 -2.9904e-22)
(0.000732037 0.000517873 2.2012e-21)
(0.000248645 0.00033497 -1.54513e-21)
(0.000856469 0.00147417 2.46138e-21)
(0.000604063 0.00106385 -4.24241e-22)
(0.000638153 0.00112073 -4.1136e-22)
(0.000622546 0.00109353 -5.88222e-22)
(0.000607972 0.00105085 -7.22807e-22)
(0.000873693 0.00145288 1.4275e-22)
(0.000634869 0.00109698 0)
(0.000814966 0.00137274 -6.2873e-22)
(0.000601242 0.00103609 1.6372e-22)
(0.00048328 0.00090485 0)
(0.000834806 8.07134e-05 4.00282e-21)
(0.000162444 0.000882391 -1.6459e-21)
(0.00017263 0.000207003 3.95564e-21)
(3.33056e-05 -9.73847e-05 2.49729e-21)
(0.000651859 0.00122542 -8.34957e-22)
(0.000841718 0.000207464 0)
(0.000942435 0.00055204 -3.58227e-22)
(0.000620128 0.00108589 1.57853e-21)
(0.000644116 0.00130079 4.3883e-22)
(0.000816141 0.000159527 -6.37177e-25)
(0.000512105 0.00046506 1.57709e-21)
(3.06596e-05 5.02075e-05 0)
(0.00067796 0.00120314 0)
(0.000256153 0.000242807 -3.26169e-21)
(0.000608082 0.000289821 3.41367e-25)
(0.000288024 0.000328064 4.00797e-22)
(0.000496763 0.00074127 -4.58602e-22)
(0.000456608 0.000156524 1.27801e-21)
(0.000672542 0.00125451 0)
(0.000696019 0.00131143 -3.50855e-22)
(0.00136334 0.000774015 0)
(2.51514e-05 5.56212e-05 -8.31888e-21)
(0.000589847 0.000335838 -3.6247e-21)
(0.00063324 0.000311648 4.73873e-22)
(0.000827779 0.000206591 -1.51265e-21)
(3.82541e-05 0.000486972 3.45319e-21)
(0.000495578 0.00102611 3.51745e-22)
(0.000685122 0.00112403 9.49501e-24)
(0.000640592 0.00112078 -2.88561e-22)
(0.000991163 0.000390998 6.5359e-21)
(0.000499087 0.00110398 -1.17967e-21)
(0.00082335 0.00149491 -1.60514e-22)
(0.000605872 0.00110322 0)
(0.000671584 0.00122539 0)
(0.000824348 0.00147893 6.84058e-22)
(0.000577484 0.00106619 -3.51106e-22)
(0.000592706 0.00109349 -3.53701e-22)
(0.000611424 0.00111962 0)
(0.000571315 0.00104842 1.55764e-22)
(0.000665221 0.0012375 0)
(0.000564171 0.00104579 0)
(0.000813723 0.0014831 -7.87044e-22)
(0.000445048 0.000464362 -9.71549e-22)
(0.000659962 0.00119561 1.5429e-21)
(0.0003119 0.000657701 -1.55022e-21)
(0.000739116 0.001346 6.51417e-23)
(0.000787725 3.86505e-05 1.54659e-21)
(0.00085614 0.000226449 1.37801e-21)
(0.000356196 0.000626013 2.60668e-21)
(0.000246337 4.72696e-05 0)
(3.79502e-06 0.000152039 -5.37823e-21)
(0.000654556 0.00120377 -4.07593e-24)
(0.000839281 0.000281408 -1.68966e-21)
(3.4478e-05 6.27685e-06 -2.49866e-21)
(0.00059957 0.00106728 1.47622e-21)
(0.000616372 0.00112122 2.0398e-22)
(0.000580338 0.00105996 0)
(0.000646769 0.00128446 -2.24853e-21)
(0.000550057 -8.1974e-05 -5.78144e-21)
(0.00062055 0.00124915 4.17115e-22)
(0.00020998 0.000761566 0)
(1.2472e-05 0.00018882 -1.56575e-25)
(0.000794964 0.000716802 -1.96374e-22)
(0.00081345 0.00141477 0)
(0.000646346 0.00112594 1.65936e-22)
(0.00083383 2.45228e-05 0)
(5.47713e-06 0.000213813 2.04732e-21)
(9.25603e-06 0.00102497 -1.71757e-21)
(0.000125433 0.000657661 1.85068e-21)
(0.00061286 -9.09377e-05 2.38984e-21)
(0.000688515 0.00126122 -1.12443e-21)
(0.000154995 0.000315168 0)
(0.000554971 0.00015955 -7.97709e-22)
(0.000900224 0.000624689 -1.52122e-21)
(0.000750627 0.00128534 0)
(0.000683129 0.00113622 2.977e-22)
(0.000597039 0.000999534 -7.78824e-22)
(0.000639818 0.0010451 0)
(0.000535679 0.000934772 -1.03685e-23)
(0.000501228 0.000194253 7.43074e-22)
(0.000342928 0.000681706 5.48425e-23)
(0.000326343 0.000656683 1.21705e-23)
(0.000459736 0.000911007 5.98643e-23)
(0.000599744 0.00123758 1.17875e-21)
(0.000891796 0.000195654 0)
(0.000874212 8.9405e-05 1.67985e-21)
(0.000537137 0.000997325 -8.03288e-22)
(0.000206444 0.000287874 -2.69606e-21)
(0.00051691 0.000920289 0)
(0.000362075 0.000681722 1.34935e-23)
(0.000412088 0.000779787 1.50745e-23)
(0.00070764 6.50143e-05 1.08535e-24)
(0.000610763 0.00107132 -1.98934e-22)
(0.000637957 0.00118728 3.91524e-22)
(0.000646083 0.0011707 -1.20854e-21)
(0.000561065 0.00104654 0)
(0.000569103 0.00103022 5.23807e-22)
(0.000581998 0.000954694 0)
(0.000529398 0.000664247 -1.56357e-25)
(0.000539851 0.000929445 0)
(2.61976e-05 0.000177442 -5.1506e-25)
(0.000611143 0.000182756 3.85048e-22)
(0.000437223 0.000536258 -1.33336e-21)
(9.77548e-05 4.91955e-05 0)
(0.000875807 0.000300251 0)
(0.00043553 5.68342e-05 -7.07543e-24)
(0.000615483 0.00075771 1.87421e-21)
(0.00102774 0.000510689 7.17246e-22)
(0.000642541 0.00108171 -2.30902e-22)
(0.000418923 0.000460731 8.19745e-22)
(0.00061257 0.00122725 -2.79454e-21)
(0.000693487 0.00133541 -2.75962e-22)
(0.000581648 0.00110455 1.98263e-21)
(0.000530746 0.000172649 0)
(0.000831602 0.000428637 -5.56784e-22)
(0.000678759 0.00105905 8.59263e-24)
(0.000290091 0.000304649 0)
(0.000564273 0.00100995 -6.0193e-22)
(0.000471173 0.000567566 -5.70898e-21)
(0.00016349 0.000191336 2.09813e-21)
(0.00084784 0.00148416 1.34358e-22)
(0.000783291 0.00066392 -2.16449e-21)
(0.00047866 0.00109226 6.60446e-22)
(0.00102262 6.40811e-05 -1.95814e-21)
(0.000658029 0.00053265 1.28848e-21)
(0.00080352 0.00141202 -8.98002e-23)
(0.000492958 0.000573655 -1.34215e-24)
(0.00115496 0.00036589 -5.85409e-22)
(0.000403249 0.000326425 1.51557e-21)
(0.000290832 0.000566246 1.10621e-23)
(0.000296587 0.000577588 1.12545e-23)
(0.000304801 0.000593818 1.15174e-23)
(0.000365737 0.000714537 -8.97077e-23)
(0.000285171 0.000555285 4.08297e-23)
(0.000180098 0.000181356 0)
(0.000740892 0.000519433 0)
(0.000564054 0.000951655 -2.16484e-21)
(0.000836965 2.10046e-05 0)
(0.000172128 2.93505e-05 2.15592e-21)
(2.17059e-05 6.16117e-05 3.89661e-21)
(0.000499433 0.000391562 -1.56237e-21)
(0.000406178 0.000638158 2.56141e-21)
(0.00114704 0.000663111 3.93344e-21)
(0.000553183 0.000990539 5.2205e-22)
(0.000568547 0.000984494 -1.0509e-21)
(0.000564576 0.00100808 2.6424e-22)
(0.000632368 0.00106421 -1.18997e-21)
(0.000803081 0.00139325 0)
(0.000634298 0.00110859 2.94842e-22)
(7.14178e-05 5.07083e-05 2.2188e-21)
(0.000870324 0.000285986 1.82137e-21)
(0.000457762 0.00089655 -1.07391e-21)
(0.000494066 0.000937049 -8.10605e-22)
(0.000612113 0.00107687 -3.70813e-22)
(0.000539119 0.000875524 4.16488e-22)
(0.000484153 0.000855107 4.6005e-22)
(0.000460595 0.000855432 1.04263e-21)
(0.000584836 0.000957772 2.05344e-23)
(0.000477542 0.000809256 0)
(0.000573109 0.000993728 -7.73709e-22)
(0.000474148 0.00090258 6.65487e-22)
(0.000556901 0.00104855 -5.10878e-22)
(0.000578052 0.00108709 -7.77874e-22)
(0.000438342 0.00082487 -2.30793e-22)
(0.000424021 0.000818159 4.7828e-22)
(0.000578172 0.00108607 0)
(0.000410299 0.000784205 -1.0642e-21)
(0.000446958 0.000818275 2.63844e-22)
(0.000458392 0.000838937 5.01483e-22)
(0.00065875 0.00105966 -2.06139e-22)
(0.000444419 0.000845193 -1.98307e-22)
(0.000458859 0.000872159 0)
(0.000447391 0.000850387 4.16029e-22)
(0.000485126 0.000825201 0)
(0.000428634 0.000810296 2.58225e-23)
(0.000581427 0.00110092 -1.35519e-23)
(0.000601351 0.00112795 1.58241e-23)
(0.00068207 0.0011805 0)
(0.000503552 0.000856089 3.80976e-21)
(0.000634078 0.001187 7.34669e-22)
(0.000699276 0.00116439 -2.31018e-21)
(0.000417874 0.000827525 -9.21644e-22)
(0.000501513 0.000828162 0)
(0.00049437 0.000920327 -8.51772e-22)
(0.000542396 0.00104397 4.44165e-22)
(0.000514798 0.000863729 0)
(0.000860346 0.000142076 -1.35511e-21)
(0.000744541 0.00126337 2.58159e-22)
(2.64186e-05 8.52783e-06 1.27461e-21)
(0.000753601 0.00139419 -1.8694e-22)
(0.000911269 1.75021e-06 -1.57436e-21)
(4.37712e-05 1.42685e-06 2.69857e-21)
(4.09288e-05 -2.83468e-06 0)
(0.000122025 0.000286632 1.42351e-21)
(0.000597142 0.00105493 -4.60979e-22)
(0.000605271 0.00109507 0)
(0.000695571 0.00118433 -2.21354e-21)
(1.54201e-05 5.23019e-05 -2.44207e-21)
(0.000215611 0.000500964 0)
(7.87682e-06 -9.17278e-06 -2.16906e-21)
(0.000735521 0.000146247 1.88841e-21)
(0.000839 2.44515e-05 -6.96559e-22)
(0.000666659 0.00111146 1.78021e-21)
(0.000385374 0.00104506 -7.05447e-22)
(0.000275235 0.000401069 -1.1901e-22)
(0.000429325 0.000848353 1.94894e-21)
(0.000207684 0.000562526 -1.94303e-21)
(0.00107271 0.000464959 8.69553e-23)
(0.000152274 0.000824819 1.96148e-21)
(0.000815122 0.000334222 9.11595e-22)
(7.26005e-05 4.14791e-05 3.97599e-21)
(0.00100305 8.25149e-05 4.32032e-21)
(0.000654604 0.0011464 -1.64038e-23)
(0.000596376 0.000260355 -2.45184e-21)
(0.00102756 0.000256235 2.2092e-24)
(4.89726e-05 0.000320185 -1.56974e-21)
(0.000506462 0.00116367 -2.89741e-23)
(0.000474114 0.00113149 0)