/*--------------------------------*- C++ -*----------------------------------*\
  =========                 |
  \\      /  F ield         | OpenFOAM: The Open Source CFD Toolbox
   \\    /   O peration     | Website:  https://openfoam.org
    \\  /    A nd           | Version:  8
     \\/     M anipulation  |
\*---------------------------------------------------------------------------*/
FoamFile
{
    version     2.0;
    format      ascii;
    class       volVectorField;
    location    "3";
    object      U;
}
// * * * * * * * * * * * * * * * * * * * * * * * * * * * * * * * * * * * * * //

dimensions      [0 1 -1 0 0 0 0];

internalField   nonuniform List<vector> 
17372
(
(0.000594281 0.00104575 1.88815e-21)
(8.1848e-05 0.000230136 6.54167e-21)
(0.000701072 0.00121208 1.56159e-23)
(0.000606303 0.00112291 2.59778e-21)
(0.000113664 2.09224e-05 -3.8551e-22)
(6.09583e-05 0.000254985 -3.025e-21)
(0.000586043 0.000988252 1.72102e-22)
(0.000244657 0.000536 -7.32911e-22)
(0.000702536 0.00121322 -3.79211e-22)
(0.000454413 0.000626667 7.79585e-22)
(0.000686982 0.00107065 -1.88076e-21)
(0.000131252 0.000185856 1.58351e-21)
(0.00119707 6.92321e-05 2.27777e-21)
(0.000950432 7.89806e-05 1.68825e-21)
(0.00057973 0.00100811 -1.89012e-22)
(0.000349631 0.000623031 -8.76876e-22)
(0.000130128 0.000174727 -2.41427e-21)
(0.000386736 0.00017576 1.68182e-21)
(0.00098398 9.51244e-05 -9.58837e-26)
(0.0001882 0.000590133 0)
(0.000578148 0.00100782 -8.84412e-23)
(0.000506356 0.00101696 -2.63254e-22)
(0.000607976 0.00104464 -2.46356e-21)
(0.000204757 0.000579319 -5.04451e-21)
(0.00041934 0.000128561 -4.66636e-21)
(0.000571294 0.00100454 8.87023e-23)
(0.000606856 0.00104363 5.9008e-24)
(0.000644674 0.00110831 7.08517e-22)
(0.00098317 -7.64772e-06 1.30212e-21)
(0.000607269 0.00104398 -1.24476e-21)
(0.000708165 0.00121387 -3.95441e-22)
(8.98612e-05 8.7952e-05 2.13138e-21)
(0.000607881 0.00104421 -8.20684e-24)
(0.000574332 0.00101028 -4.17707e-22)
(0.000165136 0.000702845 8.40624e-22)
(0.000549833 0.000938788 -7.78772e-24)
(0.000578591 0.00100501 0)
(0.000259363 0.00017725 -4.66637e-23)
(0.000579968 0.00102749 4.8975e-22)
(0.000500168 0.000894855 5.81231e-23)
(0.000606607 0.00104352 8.75706e-24)
(0.000632819 0.00114137 4.50096e-22)
(0.000643839 0.00112301 5.66186e-22)
(0.00064165 0.000579355 4.33217e-23)
(0.000534758 0.000940716 0)
(0.000608651 0.00104557 1.21097e-21)
(4.61241e-05 0.000198779 6.20669e-22)
(0.000379858 0.00066659 -1.50653e-22)
(0.000582147 0.00100791 -3.01898e-22)
(0.00057205 0.000962075 7.41233e-22)
(2.71624e-05 0.00026423 1.50156e-21)
(0.000577117 0.0010067 5.27977e-22)
(0.000566221 0.000969163 -8.07966e-24)
(0.000707866 0.00121363 1.34412e-21)
(0.00040619 0.000178523 -1.34618e-21)
(0.000217791 0.000125631 -4.24783e-22)
(0.000574968 0.00100406 -3.47507e-22)
(0.000605798 0.00114143 3.93566e-23)
(0.000710001 0.0012121 -4.38535e-22)
(0.000215339 0.000495597 -1.23227e-21)
(0.000533655 0.000955854 1.57289e-23)
(0.000468892 0.000567175 -6.3469e-22)
(0.000607284 0.00104419 1.23425e-21)
(0.000624931 0.0010858 1.02352e-21)
(0.000644416 0.00109041 -3.43731e-24)
(0.000204034 0.000497314 1.52268e-21)
(0.000536719 0.000948933 -4.50852e-22)
(0.000500046 0.000937648 -7.10266e-23)
(0.000301035 0.00113469 -3.42773e-24)
(0.000269325 0.000196734 3.22394e-22)
(0.000704672 0.000403098 0)
(0.000416251 0.00070468 2.94613e-22)
(0.000681236 0.00117899 -5.35911e-22)
(0.00056499 0.000938682 1.54045e-21)
(0.000531615 0.000913614 -1.55619e-21)
(0.000577874 0.000991757 -1.67029e-21)
(0.000640025 0.00108699 -5.814e-22)
(0.000561888 0.00100178 0)
(0.000518406 0.00107354 7.74284e-22)
(0.000561258 0.00103589 -4.17936e-21)
(1.2977e-05 0.000234942 0)
(0.000528465 0.000957872 5.62657e-22)
(0.000582718 0.00102303 -1.31316e-21)
(0.000115511 3.52039e-05 -2.05511e-21)
(1.2661e-05 0.000242351 -1.95843e-22)
(0.000569712 0.00101246 0)
(0.000570614 0.000960059 -1.51246e-21)
(0.00058985 0.00104968 -2.41298e-24)
(0.000578372 0.00101059 2.71845e-22)
(8.56247e-06 0.000433527 0)
(0.000690774 0.0012461 -1.3598e-22)
(0.000571312 0.00101208 1.1132e-22)
(0.000449029 0.000483096 0)
(0.000546595 -5.31427e-05 -1.4521e-21)
(-3.53366e-06 0.000502268 -9.93809e-22)
(0.000606488 0.00104349 1.37e-21)
(0.00120064 0.000100073 0)
(4.86802e-05 0.000191727 2.86101e-22)
(0.000417321 0.000164257 -1.47929e-21)
(0.000226816 0.000557984 7.05829e-25)
(0.000852707 0.000270236 -8.65496e-22)
(0.000565212 0.00096308 1.2921e-21)
(0.000264681 0.000186576 -1.84185e-22)
(0.000150317 0.000361193 -1.61368e-21)
(0.00070996 0.00121092 0)
(0.000572232 0.00100746 1.13844e-23)
(0.000703347 0.00121453 2.8739e-24)
(0.000956293 0.000800559 -6.7631e-21)
(0.000128284 0.000123904 0)
(0.000566817 0.000965712 -2.30738e-21)
(0.000675887 0.0015093 0)
(0.000296793 0.00029766 1.57229e-21)
(0.000568197 0.000967317 1.34388e-21)
(0.000572575 0.000970136 -1.44395e-21)
(0.000692585 0.00120631 0)
(0.000524771 0.00090476 -1.70446e-22)
(0.000569456 0.00096919 -1.37342e-21)
(0.00057368 0.00100835 -2.54675e-22)
(0.000576898 0.00108318 0)
(0.000570698 0.000970826 0)
(0.000705704 0.00121263 3.94891e-22)
(0.000571775 0.000971758 -3.50275e-22)
(0.000709487 0.00121144 4.279e-22)
(0.000566346 0.00104389 1.812e-22)
(0.000276549 0.000206678 -1.90255e-22)
(0.000710311 0.00121032 4.48994e-22)
(0.000701037 0.00119357 1.27132e-21)
(0.000483125 0.000506731 5.5065e-22)
(6.69743e-05 -8.08614e-06 -9.93212e-22)
(0.000572907 0.000971019 -7.08842e-22)
(0.000709415 0.0012089 -4.89041e-22)
(0.000698723 0.00119183 0)
(0.000606777 0.00104395 1.27331e-21)
(0.000572534 0.000966193 7.33391e-22)
(0.000702469 0.00119626 4.05061e-22)
(0.000480604 0.000517004 7.47472e-22)
(0.000575984 0.00110344 -9.3047e-22)
(0.000702907 0.001198 -3.73762e-22)
(0.000585511 0.0011742 -9.63053e-22)
(0.000134456 0.000139677 -1.2853e-21)
(0.000493988 0.000596871 1.36144e-21)
(0.000703924 0.00119897 3.60572e-22)
(0.000705868 0.0012028 0)
(0.000707645 0.00120762 -5.24347e-22)
(5.66011e-05 0.000483446 1.29387e-22)
(0.000705456 0.00120214 0)
(0.000707134 0.00120391 7.67591e-24)
(0.00101907 6.51992e-05 -1.2709e-21)
(0.000686802 0.000626702 -1.29359e-21)
(0.000612498 0.00111713 -5.63187e-24)
(0.000466079 0.000827319 -1.87711e-22)
(0.000556314 0.000949122 -1.31657e-21)
(0.000492847 0.00124012 -1.08398e-23)
(0.00068369 0.00117275 4.87092e-22)
(3.247e-05 0.000332863 1.19018e-21)
(0.000607658 0.00101224 5.69728e-22)
(0.00106613 0.0013695 1.18991e-21)
(8.31991e-05 1.94234e-05 -7.27619e-23)
(8.55509e-05 0.000503175 -2.72791e-21)
(0.000565302 0.000961231 1.59457e-21)
(0.000708834 0.00120926 -1.02226e-21)
(0.000128357 0.000141287 -6.70773e-22)
(0.000635269 0.00110028 1.17485e-21)
(0.000592381 0.000114842 3.20134e-21)
(0.000606517 0.00104306 6.04955e-24)
(0.000680693 0.000491119 1.27397e-21)
(0.000672274 0.0011929 -2.13193e-21)
(0.000626974 0.000236384 -1.54579e-21)
(0.000471572 0.000829785 3.71587e-22)
(0.000540397 0.000940966 -8.59814e-22)
(0.000280548 0.000809498 -7.57806e-23)
(0.000533071 0.000959644 2.59977e-22)
(0.000537595 0.000966486 3.04488e-21)
(0.00027874 0.000316435 1.55418e-21)
(0.000697321 0.00119104 -1.85391e-21)
(0.000524669 0.00096508 6.44337e-22)
(0.000647086 0.00108569 -3.0342e-22)
(0.000185826 0.000569842 1.51635e-21)
(0.000490862 0.00057511 3.95239e-22)
(0.000134503 0.000155192 -8.70143e-23)
(0.000178529 0.000704382 1.67714e-21)
(0.000618552 0.00110442 2.32914e-21)
(3.5499e-06 0.000418245 0)
(0.000341014 0.000669293 8.46047e-23)
(0.00056878 0.000976703 -6.77157e-22)
(0.000711177 0.00120738 -6.44934e-24)
(0.000579263 0.00109971 -9.10092e-23)
(5.56071e-05 0.000141835 4.40847e-22)
(0.00031138 0.00113132 -3.54566e-23)
(4.40116e-05 3.16026e-05 5.58339e-22)
(0.000518374 0.000962 1.01321e-22)
(0.000410333 0.000778209 -1.12798e-21)
(0.000617042 0.00106026 -4.14219e-22)
(0.000248289 0.0004421 0)
(0.00057265 0.000970988 2.13614e-21)
(5.58972e-05 0.000121931 0)
(0.000546934 0.00106597 0)
(0.000646987 0.00116045 2.45197e-22)
(0.00023387 0.000247654 -8.4145e-22)
(0.00113416 0.000813909 0)
(4.87556e-05 0.000119322 -5.97442e-22)
(0.000438372 0.000630817 -1.04206e-22)
(0.00041255 -1.93982e-05 3.30941e-25)
(0.000582747 0.00104266 -9.19114e-22)
(0.000448715 0.000807578 -1.94557e-23)
(9.72051e-05 2.32905e-05 1.52682e-21)
(0.000621198 0.00110386 0)
(0.000801737 0.00038553 2.24659e-22)
(0.00057664 0.0010083 -7.18162e-24)
(0.000705241 0.00120743 5.71021e-22)
(0.000623699 0.00108616 -1.34037e-21)
(0.00060644 0.00104367 1.30283e-21)
(0.000637346 0.00109994 -3.61985e-21)
(0.000626978 0.00109171 1.28354e-21)
(5.95879e-05 0.000162822 0)
(0.000556532 0.000975361 0)
(0.000573732 0.000991571 1.727e-21)
(0.000520175 0.000912512 3.09152e-21)
(0.000872956 0.000246496 8.85886e-22)
(0.00053422 0.00115379 -1.30947e-22)
(0.000578216 0.00102565 -6.94181e-22)
(0.000192595 0.00052544 0)
(5.86208e-05 0.000132028 1.49072e-22)
(0.000954334 0.000139412 -4.66694e-21)
(0.000705913 0.00120859 -5.46836e-22)
(0.00040123 -8.14184e-07 3.86712e-21)
(0.000617539 0.00109013 5.82915e-23)
(0.0002731 0.000739151 4.75705e-21)
(-0.000490411 0.000374437 -2.07729e-23)
(0.00056609 0.000961118 0)
(0.000254814 0.000168135 3.91506e-22)
(0.0006371 0.00112096 1.75221e-21)
(0.000463235 0.000458296 -2.24064e-21)
(0.000654745 0.00118255 1.78762e-21)
(0.000656462 0.00117464 3.65498e-21)
(0.000974945 1.29406e-05 1.91081e-22)
(0.000387314 0.000523384 -1.23154e-21)
(0.00038694 0.000706843 0)
(0.00025622 0.0010097 9.32957e-24)
(0.000523848 0.000947953 -9.725e-22)
(0.000610389 0.00103479 -6.41753e-22)
(0.000622528 0.00111647 1.45328e-21)
(8.78369e-05 2.10797e-05 0)
(0.000437576 0.000221049 1.63391e-21)
(0.000856034 0.000507228 1.61528e-21)
(0.000605953 0.00104271 0)
(0.000942537 9.12714e-05 -1.41132e-21)
(0.000568648 0.000974709 -7.24074e-22)
(0.00048187 0.000883784 4.60376e-23)
(6.68704e-05 1.37109e-05 -2.99888e-22)
(7.42855e-05 -2.4276e-07 3.66255e-21)
(0.000589303 0.00103502 -9.16147e-22)
(0.000284682 0.00100639 1.29597e-24)
(0.000574311 0.00102065 2.86458e-22)
(7.49324e-05 1.59295e-05 2.0322e-21)
(0.000577921 0.00101927 1.30394e-24)
(0.000694909 0.00118896 1.49061e-21)
(3.98706e-05 0.000210679 -3.57451e-22)
(0.000639777 0.00108141 -3.31578e-22)
(0.000602428 0.000144099 1.57157e-22)
(0.000670271 0.00127188 1.41859e-22)
(0.000639281 0.00114468 -6.06206e-24)
(0.000588549 0.000120134 -1.8363e-21)
(0.000388992 3.73986e-07 -4.85237e-21)
(6.74951e-05 -1.63044e-06 1.46313e-21)
(0.000184884 0.000146701 -6.90011e-22)
(0.000752804 0.0013029 -1.49796e-21)
(0.00036262 0.000271703 5.35537e-21)
(0.000575516 0.00104853 0)
(4.80818e-05 0.000103719 -7.2358e-22)
(0.000535235 0.000934323 -2.32377e-21)
(0.000606772 0.00104195 -9.0219e-24)
(6.41826e-05 0.000494797 7.84063e-21)
(0.00115661 -0.000185404 -3.28283e-22)
(0.000642515 9.8044e-05 0)
(0.000527118 0.000959083 0)
(0.000571275 0.000970887 -1.04789e-21)
(0.00107127 -2.53143e-05 -6.56996e-22)
(0.000588545 1.10959e-05 1.20486e-21)
(0.000393487 0.000538775 3.43212e-22)
(0.00063509 7.69502e-05 0)
(6.05765e-05 6.62299e-05 -2.73441e-21)
(0.0005381 0.00108544 0)
(4.43812e-05 9.39629e-05 1.11538e-21)
(0.00060627 0.00104365 -1.33345e-21)
(0.00133108 0.00115393 -3.65405e-21)
(0.000607086 0.00106013 0)
(0.000535931 0.000933425 -2.95174e-25)
(0.000541905 0.000956667 0)
(0.000335341 0.000437808 0)
(0.000340131 0.000600625 0)
(0.000854806 0.000559256 -1.27426e-21)
(0.000564735 0.000959123 -9.17219e-22)
(0.000438751 0.000787238 -1.82775e-22)
(0.000331392 0.000477799 3.41469e-21)
(0.00064501 0.0010832 -2.82422e-22)
(0.000532142 0.000947748 1.10832e-21)
(0.000871093 0.000176636 1.61706e-25)
(0.000468876 0.00106897 1.01567e-21)
(0.000648506 0.00116064 -2.1886e-24)
(0.000552909 0.00116073 -6.7426e-24)
(4.09356e-05 8.43338e-05 1.23452e-21)
(0.000697105 0.00121046 -3.13957e-22)
(4.60171e-05 0.000114529 6.27932e-22)
(4.99165e-05 -2.61664e-06 1.6462e-21)
(0.000671456 0.000611052 -3.92e-22)
(0.00072097 0.00110484 -1.64769e-21)
(0.00062896 0.00103739 0)
(0.000336626 0.000548399 0)
(0.000322165 0.000260848 1.67153e-21)
(0.00058618 0.00106546 4.96623e-24)
(0.000954646 9.69057e-05 6.57903e-21)
(0.000632415 0.00109364 1.25488e-21)
(3.75878e-05 7.51931e-05 8.45527e-23)
(0.000314513 0.000556272 -1.50878e-21)
(0.00018549 0.000569308 1.1514e-21)
(0.000607459 0.00104145 -1.52388e-21)
(0.000209133 0.000330853 -5.5763e-23)
(0.000454816 -8.23526e-05 -3.12145e-21)
(0.000579955 0.00100945 -2.29438e-22)
(0.000111013 0.00112141 -1.68753e-22)
(0.000864284 0.000381479 0)
(0.00070652 0.00120392 0)
(0.00108341 6.1023e-05 1.77e-22)
(0.00062765 0.00104513 0)
(0.000208051 8.50032e-05 9.17133e-22)
(2.32332e-05 0.000487652 0)
(3.4194e-05 6.76091e-05 6.92915e-23)
(0.000414587 0.000315814 1.01407e-21)
(0.000561871 0.00101445 0)
(0.000703964 0.00120192 0)
(0.00089665 0.000757189 -9.07656e-24)
(0.000175473 0.000112701 5.04793e-22)
(0.000642734 0.00107387 -1.29057e-22)
(0.000708535 0.001206 -1.26738e-21)
(0.000690279 0.00118132 0)
(3.13786e-05 5.99994e-05 -5.91966e-22)
(0.000678161 0.00118186 5.77383e-22)
(0.000710021 0.0012024 -6.26938e-22)
(0.00058118 6.5084e-05 0)
(0.000711327 0.00120927 6.25153e-22)
(0.000262314 0.00032776 4.04518e-21)
(0.000495017 0.000716676 -1.7652e-21)
(0.000647862 0.00111262 1.92478e-21)
(0.000556141 0.00104896 -9.30298e-23)
(0.000528605 0.000976531 -5.83239e-22)
(5.97257e-05 5.19031e-05 -6.88729e-22)
(0.000536533 0.00103657 6.76187e-23)
(0.000587297 0.00104795 -6.3238e-22)
(0.000469066 0.000872707 1.87643e-21)
(2.87448e-05 5.34989e-05 6.06938e-22)
(8.44678e-05 0.000592781 -6.00392e-22)
(6.00989e-05 0.000139316 -1.54431e-21)
(0.000674165 0.00123655 -1.80834e-22)
(0.000705265 0.0012003 -5.89086e-22)
(6.71517e-05 1.7039e-05 -1.17348e-21)
(0.000183842 0.000583895 2.17852e-21)
(0.000624162 0.00111326 -1.45461e-21)
(2.63618e-05 4.75017e-05 -5.92868e-22)
(0.000696574 0.00118783 -4.48532e-22)
(0.000308245 0.000283518 2.10927e-21)
(2.24295e-05 4.05102e-05 8.51155e-22)
(0.00071104 0.0012043 6.00822e-22)
(0.000704143 0.00119655 0)
(0.000702528 0.00119753 -4.56313e-22)
(2.21454e-05 3.66301e-05 -1.3944e-22)
(4.35649e-05 -8.23651e-06 2.93166e-22)
(0.000516264 0.000603101 -1.06718e-21)
(0.000701846 0.0011948 -5.24552e-22)
(0.00106175 -2.65481e-05 7.04776e-22)
(0.000446284 0.000812461 -1.30462e-21)
(0.000182815 0.000126826 -1.52534e-21)
(0.000170152 0.000118024 1.61927e-22)
(0.00097084 0.000144302 0)
(0.000726893 0.000846448 0)
(1.99311e-05 3.24415e-05 -2.79054e-22)
(0.000543731 0.000996063 -1.94235e-22)
(0.000637765 0.00113802 -1.13334e-23)
(0.000962995 3.93236e-05 -1.82009e-22)
(5.85256e-05 -3.77294e-06 0)
(5.69684e-05 0.000125979 1.11015e-21)
(0.00056516 0.000951333 -1.49657e-21)
(0.000197624 0.000583643 0)
(0.000570268 0.000969534 0)
(1.79142e-05 1.76778e-06 7.1969e-22)
(0.000535842 0.00049139 -2.34636e-21)
(0.000633556 0.00108298 7.77783e-22)
(0.000542722 0.000956366 -7.87325e-24)
(0.000378377 0.000512464 -1.21654e-24)
(0.000669452 0.000534519 -1.77378e-24)
(0.000217873 0.000472643 7.90835e-22)
(0.000107769 6.18389e-05 -1.08325e-25)
(0.000606278 0.00104349 1.91164e-23)
(0.00117472 0.0010629 2.39309e-21)
(0.000120821 4.07561e-05 2.81251e-21)
(0.000570192 0.0013454 4.74651e-24)
(9.11269e-06 0.00102274 4.50513e-24)
(2.77783e-06 -4.15215e-06 0)
(5.31843e-05 -2.80921e-06 -2.44049e-21)
(0.000454693 -0.000168093 -2.75011e-21)
(0.000701006 0.00118212 5.5117e-22)
(0.000847533 -0.000321453 0)
(0.000415505 0.000446944 1.48012e-21)
(0.000611256 0.00104072 0)
(0.000677915 0.00117557 0)
(0.000647118 0.0010832 2.97441e-22)
(0.000853318 0.000359505 -1.92819e-21)
(0.000347956 0.000818033 0)
(0.000127005 0.000188043 0)
(0.000654443 0.00118416 -1.76083e-21)
(8.70512e-05 2.62884e-05 -1.49439e-22)
(0.000106471 0.000972736 -1.68815e-21)
(0.000348094 0.00115335 -2.20147e-23)
(0.000568485 0.000978083 1.35369e-21)
(0.000705447 0.00120343 -6.30384e-22)
(7.80712e-05 -1.29449e-05 0)
(0.000609649 0.00104022 -3.09748e-21)
(0.000107493 6.57518e-05 1.34721e-21)
(0.000606217 0.00109982 -3.53129e-21)
(0.000565506 0.0010148 8.30889e-22)
(0.000552198 0.000317865 1.89584e-21)
(0.00103022 -9.29803e-07 -2.436e-21)
(0.000608774 0.00101854 -6.67321e-22)
(0.00108418 -1.24878e-05 6.8797e-22)
(0.000706485 0.00120231 5.76394e-22)
(0.000436028 0.00095363 1.35459e-21)
(5.15067e-05 0.000422939 2.23496e-21)
(0.000670672 0.0011814 -4.06932e-22)
(0.00111296 0.000660231 -1.11185e-21)
(0.000234257 0.000649402 9.28228e-22)
(0.000655309 0.000556138 2.17227e-21)
(0.00064725 0.00113879 0)
(0.000523185 0.000953745 -3.03027e-22)
(0.000744502 0.00119492 -2.06598e-23)
(0.000668837 0.00117378 2.8805e-22)
(0.000887639 0.000853323 3.68129e-21)
(0.000227448 0.000499433 0)
(0.000592835 0.00101604 0)
(0.000957627 -6.76941e-06 -1.80037e-21)
(0.000245472 0.00013334 -2.1984e-21)
(0.00048682 0.000595896 -1.06351e-21)
(4.55158e-05 4.1475e-05 -6.58853e-23)
(4.92788e-05 0.000709759 2.00783e-21)
(0.000349754 0.000274533 1.76752e-21)
(4.46106e-05 -4.76405e-06 0)
(0.000129482 0.000515758 1.62471e-21)
(0.000119721 7.65428e-05 2.53524e-21)
(0.00041191 0.00100738 -1.60042e-23)
(0.000619148 0.00107528 -4.39049e-23)
(6.85719e-05 0.000468167 6.90515e-22)
(1.40379e-05 -1.45904e-06 -5.59017e-22)
(0.000373773 5.68872e-06 0)
(0.000591848 0.00100461 -3.60326e-22)
(0.000639992 0.00108104 -2.70019e-22)
(0.00059429 0.00104746 4.38564e-24)
(2.49298e-05 2.97826e-07 0)
(4.68953e-05 9.97998e-05 -1.01783e-21)
(0.000262744 0.000533317 3.0697e-21)
(0.00109056 0.00059138 -2.69693e-24)
(0.000548218 0.000733637 -2.55561e-21)
(0.000204494 0.000476659 0)
(0.00075379 0.00129127 2.88318e-22)
(0.00077428 0.000420153 0)
(0.000693283 0.0011766 0)
(0.000381465 0.00112554 3.93028e-23)
(0.000582272 0.00103431 -9.88711e-22)
(0.000944316 0.000141968 2.99573e-21)
(0.000568929 0.000983702 1.11437e-21)
(0.000169926 0.000258982 -2.60881e-22)
(0.000481402 0.0008204 -1.18581e-21)
(0.000585484 0.000999609 2.87175e-22)
(0.000443121 0.00102574 1.50337e-21)
(5.22702e-07 -1.62856e-06 -3.07967e-22)
(0.000633308 0.000229816 -7.41309e-22)
(0.000107059 0.000531088 5.06236e-22)
(6.78199e-05 -0.000195126 0)
(0.000579396 0.00111517 2.2161e-22)
(0.00011066 8.18603e-05 -3.16783e-21)
(0.000578073 0.00100419 1.88153e-22)
(4.25493e-05 8.89983e-05 -7.73791e-23)
(0.000624901 0.00111118 1.45629e-23)
(0.000753173 0.00120835 1.05008e-21)
(0.000295607 0.000584912 -1.50294e-21)
(0.00058337 0.0010119 1.28187e-23)
(0.000347962 0.000402625 3.26767e-21)
(1.44142e-06 0.000449139 -7.09534e-22)
(0.000573815 0.00100617 -3.23505e-22)
(0.000102716 9.88473e-05 -1.53899e-21)
(0.000346504 5.17939e-05 -1.54e-21)
(0.000557185 0.00105804 1.74209e-22)
(0.000425349 0.000715824 -2.89537e-21)
(0.000145605 0.000658193 0)
(0.000656723 0.00119231 4.23383e-22)
(0.000705552 0.00120326 0)
(0.000534554 0.00103318 7.2419e-23)
(5.07991e-05 4.5395e-05 0)
(0.000568974 0.00096773 0)
(9.49019e-05 3.30058e-05 0)
(0.000635514 0.000264168 0)
(0.000432362 0.00055693 2.70401e-23)
(0.000605916 0.001043 0)
(0.000557532 0.00102018 0)
(8.13796e-05 9.88914e-05 2.56922e-21)
(0.00045555 -0.000260014 3.04911e-21)
(3.9303e-05 7.97573e-05 -1.21989e-21)
(0.000705398 0.0012595 -3.9262e-22)
(1.98198e-06 7.984e-06 0)
(0.000917599 0.000134964 -2.81557e-21)
(0.000575745 0.00105474 0)
(0.000693657 0.000350803 1.80998e-21)
(0.000533364 0.00093389 0)
(0.000665186 0.00116771 1.46456e-21)
(0.000582375 0.000969242 1.60804e-21)
(0.000353698 0.0005201 -4.07136e-21)
(0.000724554 0.00120328 -2.31602e-21)
(0.000596909 0.00112456 -1.09662e-22)
(-0.000412919 0.000475317 -4.53872e-21)
(0.000631304 0.00109026 -9.25107e-22)
(0.000618437 0.00107614 2.05692e-21)
(0.000630227 0.00108705 -1.48164e-21)
(7.84351e-05 -0.000213841 5.49311e-22)
(0.000790748 0.00040705 -2.1573e-22)
(0.000568349 0.000977989 0)
(3.76486e-05 7.10423e-05 1.42938e-22)
(0.000301767 0.000290745 -5.0277e-21)
(0.000104342 0.000104853 2.41048e-24)
(0.000689414 0.00117368 6.07097e-22)
(0.000579668 0.00101811 0)
(0.000734308 -0.000252137 -1.53084e-21)
(0.000513562 0.000599929 1.00135e-21)
(0.000633067 0.00108594 3.0245e-21)
(0.000597293 0.001575 -1.69982e-23)
(0.00059215 0.000137562 1.37171e-21)
(0.000615861 0.00106367 -2.08591e-21)
(0.0005758 0.00104372 -5.67343e-23)
(0.000562887 0.000988898 -1.23167e-22)
(0.000469449 0.000802457 1.30563e-21)
(3.30319e-05 6.36288e-05 -1.43864e-22)
(0.000628869 0.00109343 -7.29537e-24)
(0.00084617 0.000328408 1.39766e-21)
(0.000436422 0.000811752 3.51178e-22)
(0.000633049 0.00108326 0)
(0.000962672 8.10669e-05 -6.67879e-22)
(0.000164958 0.000419058 3.02872e-22)
(0.00083147 0.00057603 2.13568e-21)
(0.000164939 0.000248998 -1.03528e-21)
(3.89532e-05 0.000398796 -1.24992e-21)
(0.000891845 8.7029e-05 1.03475e-22)
(0.000972469 0.00016777 7.61879e-22)
(0.000631595 0.00108079 1.06885e-23)
(0.000620996 0.00106635 0)
(9.17725e-06 0.00081591 6.50744e-22)
(8.26981e-06 2.5958e-06 1.33391e-21)
(0.000651236 0.00117696 0)
(0.000613338 0.00104536 0)
(0.000970599 5.9752e-05 -1.46094e-21)
(7.52896e-05 2.04675e-05 -4.23856e-21)
(0.000193157 0.000241865 5.75508e-22)
(3.00287e-05 5.66773e-05 -3.81322e-23)
(0.000630255 0.00108019 -1.60455e-24)
(0.000566571 0.000936607 4.12543e-22)
(0.000616445 0.0010608 0)
(0.000590355 0.000923135 7.37642e-22)
(0.000523721 0.000959463 -3.70703e-22)
(0.000524998 0.00105595 6.40012e-23)
(0.000546951 0.000473765 -3.04525e-21)
(0.000642074 0.00108072 8.96171e-24)
(2.20254e-05 -1.48809e-06 -2.54837e-21)
(0.000632269 0.00108009 -2.49394e-21)
(0.000431464 0.000744339 -5.70913e-26)
(0.000598398 0.00104707 -1.58809e-22)
(0.000609112 0.00108525 1.45358e-21)
(0.000317477 0.000459305 -2.30696e-21)
(2.28472e-06 1.54259e-05 -8.45481e-23)
(0.000628891 0.00107733 8.80135e-22)
(0.000593249 0.000961485 1.24222e-21)
(2.75239e-05 5.04563e-05 6.17305e-22)
(0.000610559 0.00107589 -1.39856e-21)
(0.000598046 0.00104006 5.97217e-24)
(0.000942149 7.76718e-05 4.27899e-21)
(0.000627146 0.00107552 9.19675e-22)
(0.000585852 0.00100693 8.8837e-22)
(0.000536561 0.000950747 1.02522e-21)
(0.0013628 0.000414604 0)
(0.000528519 0.000949977 1.69292e-21)
(0.00206202 0.000337771 0)
(0.000850575 0.000714918 -1.89631e-21)
(0.000595368 0.00103245 4.28462e-22)
(0.000178957 0.000519403 -6.84736e-21)
(0.00141761 0.00119679 1.07246e-21)
(0.000480376 0.000858885 -3.63336e-21)
(0.000204365 0.000156259 3.0963e-21)
(0.000469442 4.53178e-05 0)
(0.000275482 0.000697548 6.78268e-24)
(3.95313e-05 0.000369182 0)
(0.000686958 0.00117083 -1.2599e-21)
(1.58142e-06 -1.44818e-05 1.25176e-21)
(2.51373e-05 4.57323e-05 3.04354e-22)
(0.000586599 0.00105206 2.49442e-22)
(0.000715792 0.00134112 9.40811e-23)
(0.000433902 0.00071095 -1.43721e-21)
(0.000551195 0.000957632 1.03297e-21)
(0.00101616 -0.000130226 -3.48898e-22)
(0.000720668 0.00120674 0)
(0.000677486 0.000868207 2.52378e-21)
(0.00102691 4.62488e-05 1.03081e-21)
(1.7213e-06 -9.18811e-06 -7.31788e-22)
(4.87372e-05 -5.11109e-06 -2.53052e-21)
(0.000537893 0.000971085 0)
(0.000668548 0.00118838 8.33112e-22)
(0.00065248 0.0012186 -6.4547e-24)
(0.000301263 0.00022389 1.753e-21)
(0.000133318 0.000667932 -3.70542e-22)
(2.35832e-05 3.83648e-05 0)
(0.000881326 0.000117009 -7.10892e-22)
(0.000596172 0.000300326 -2.08466e-21)
(0.000625085 0.00108147 -1.49733e-21)
(0.000635862 0.00107616 -7.73806e-22)
(0.000624462 0.00110944 1.42587e-21)
(0.000618566 0.00110693 -1.10399e-23)
(0.000567722 0.000966162 -3.3187e-22)
(0.000766288 0.00129598 1.80677e-21)
(0.000604252 0.00102201 1.93833e-22)
(0.000381001 0.000785733 0)
(0.000589955 0.000961524 0)
(0.000595551 0.00107129 0)
(0.000265273 0.000387795 0)
(0.000570781 0.00101045 -5.57008e-22)
(0.000791476 0.000107139 -1.07632e-24)
(0.000179486 0.000523689 2.97522e-21)
(0.000473105 0.000188375 2.32271e-25)
(0.000270031 0.000516118 8.86131e-22)
(0.000468957 0.000909908 6.32965e-25)
(0.000562825 -3.28105e-05 4.10729e-21)
(0.000661815 0.00118914 -2.35901e-22)
(0.0005794 0.00103363 9.93616e-22)
(0.000543704 0.000479469 2.07051e-21)
(0.000619687 0.00109521 0)
(0.000192525 0.000588958 0)
(0.000703419 0.00119909 -1.10663e-21)
(0.00043153 0.000487011 -2.95187e-21)
(0.00104642 -0.000116311 -3.36949e-22)
(0.000460838 -0.00039958 -3.38131e-24)
(0.000625209 0.00110034 0)
(2.36111e-05 1.42227e-06 -5.55434e-22)
(0.00012836 0.000505318 8.27818e-22)
(0.000567631 0.000978003 1.24455e-21)
(0.000765759 0.0012953 0)
(0.000323136 0.00127273 -3.81491e-23)
(0.000227064 0.000255778 8.25081e-22)
(0.00040076 0.00118245 -9.97987e-22)
(0.00104284 -1.7165e-05 6.98147e-22)
(0.000388678 0.000583919 0)
(0.000662439 0.00118548 2.43475e-22)
(0.000764125 0.00129451 0)
(0.000769336 0.00129475 1.74597e-21)
(0.000529141 0.000942572 1.83201e-21)
(0.000294387 0.000526695 1.4609e-21)
(0.000566137 -8.3204e-06 5.09029e-21)
(0.000620024 0.00107239 1.8319e-21)
(1.53843e-06 -2.20558e-05 -9.92943e-24)
(0.000235506 0.00070553 0)
(0.000285463 0.000307223 1.5794e-21)
(0.000774519 0.00129243 -1.6635e-21)
(3.35346e-06 2.68223e-05 -2.67791e-21)
(0.000183024 0.00060661 -4.05107e-25)
(0.000683704 0.00116859 -1.95934e-21)
(0.000317655 0.0012392 0)
(0.000695214 0.00119078 -1.47594e-21)
(0.000603866 0.00103689 7.14983e-22)
(0.000573267 0.00101746 7.6287e-24)
(0.000578537 0.00100377 1.89836e-22)
(0.000555243 0.000397389 1.20259e-21)
(0.000425258 0.000869223 -1.16872e-21)
(0.000345059 0.000264655 -4.41242e-21)
(0.000611264 0.00106645 3.04933e-21)
(1.55101e-06 -2.64313e-05 -1.25332e-21)
(0.000577917 0.00101054 1.0943e-22)
(0.000761313 0.000575102 -2.96373e-21)
(0.000675285 0.00117183 -6.71999e-24)
(0.00058099 0.000988882 -3.19995e-22)
(0.000589832 0.00101758 4.37056e-22)
(1.56644e-06 -1.81304e-05 0)
(0.000715373 0.0011961 4.85157e-22)
(0.000535897 0.000971398 4.75458e-22)
(0.000997795 0.000132708 -2.92537e-21)
(0.000562449 0.000124661 -3.42046e-23)
(0.000665243 0.00117615 0)
(0.000245068 0.000961168 -2.02386e-23)
(0.000583699 0.0010088 7.40211e-22)
(0.000551149 0.00100914 0)
(0.00060675 0.00104173 1.49344e-21)
(0.000764266 0.00129347 -1.80355e-21)
(6.02364e-05 -4.593e-07 -2.30919e-21)
(0.000143046 0.000386514 -2.02649e-21)
(0.000543552 0.00130956 1.71566e-23)
(1.00765e-05 4.66563e-05 -1.46887e-21)
(0.000366451 0.000224373 1.17607e-25)
(0.000717741 0.0012604 3.82793e-22)
(1.60808e-06 -1.10181e-05 1.0528e-21)
(0.000704857 0.00119981 0)
(0.000166735 0.000711627 0)
(1.71173e-06 -3.36273e-05 2.55867e-21)
(0.00102499 7.02839e-05 -3.18162e-22)
(0.000146487 0.000685932 2.26364e-23)
(0.000620486 0.00102693 -1.01921e-23)
(0.000389244 0.000136883 1.4115e-21)
(0.000784817 0.000833427 0)
(0.00066934 0.00117845 0)
(0.00054619 0.00094753 0)
(0.00067511 0.00117233 1.00633e-23)
(0.000360609 0.000599909 9.756e-22)
(0.000763859 0.00129188 1.65285e-23)
(5.43808e-05 -3.28804e-07 0)
(0.000626108 0.00108965 0)
(0.000718568 0.00120517 8.13727e-22)
(0.000527146 0.00136698 -7.05964e-23)
(0.000426272 0.000922995 -2.90207e-21)
(0.000593091 0.00105021 -3.57542e-22)
(2.03451e-06 -4.22112e-05 1.2918e-21)
(0.000524751 0.00095389 6.51163e-22)
(0.000567671 0.00101272 0)
(0.000826268 0.000127696 -2.36451e-21)
(0.000343564 0.000641116 2.59116e-21)
(0.00062279 0.00104413 -6.22075e-22)
(0.000600832 0.00104672 -1.82674e-22)
(7.82847e-05 7.04384e-05 -1.28434e-21)
(0.000402096 0.00014005 0)
(0.000363105 0.00109564 -2.52709e-21)
(-0.000253858 0.001105 -3.64932e-21)
(0.000302582 0.0004855 2.35145e-21)
(0.000599967 0.00106057 1.34947e-21)
(0.000675604 0.00117397 -1.66222e-21)
(0.000531613 0.000932233 -3.80316e-22)
(2.25254e-06 -5.23993e-05 -2.57211e-21)
(2.84923e-05 0.000377815 0)
(0.000656156 0.00120524 0)
(0.000432456 0.000704978 -1.57614e-23)
(6.62198e-05 5.67155e-05 -5.13494e-23)
(0.000683623 0.00116736 -6.74898e-22)
(0.000613462 0.00106626 -2.05128e-21)
(0.000217939 0.000498353 0)
(1.483e-05 0.0003345 0)
(2.58561e-06 -6.04951e-05 1.02665e-23)
(0.000793659 0.00127752 -1.90233e-21)
(7.48883e-05 6.74997e-05 0)
(0.000181331 8.95798e-05 6.14746e-22)
(0.000994632 0.000104214 0)
(0.000158599 0.000276458 -3.33368e-21)
(0.000592144 0.00101 -8.23931e-22)
(0.000702738 0.00119794 -3.88352e-22)
(7.08374e-05 6.60705e-05 0)
(0.000593727 0.00102062 -9.50993e-22)
(0.000262747 0.000418399 0)
(0.000176324 0.00058536 1.50344e-21)
(3.0277e-06 -6.96399e-05 1.30296e-21)
(0.000452291 0.000764918 2.11978e-21)
(0.000739098 0.00130161 1.84455e-21)
(0.000333153 4.56809e-05 -9.15684e-26)
(0.000397489 -0.000535853 0)
(0.000632232 0.0010885 0)
(0.000691888 0.00118147 9.51322e-22)
(0.00011239 0.000390827 0)
(0.000596369 0.00104217 -9.40235e-22)
(8.96411e-05 0.000390468 1.39749e-21)
(0.000637796 0.00119671 -1.66171e-22)
(0.000694212 0.00119009 -5.05104e-22)
(0.000625577 0.00111475 -1.0956e-22)
(0.000563962 0.000972568 -9.21826e-22)
(0.000596398 0.00104427 3.09249e-21)
(0.000606424 0.000666887 2.14476e-21)
(3.75286e-06 -8.60692e-05 0)
(0.000753195 0.00128641 -2.70431e-21)
(0.000549484 0.000593893 2.13452e-21)
(0.000525542 0.000968843 -6.01537e-22)
(9.93871e-05 0.000417011 9.4453e-23)
(0.000566297 0.000964434 -1.30483e-21)
(0.000395281 0.000326183 0)
(0.000608713 0.00111398 1.74825e-22)
(0.000649869 0.00107276 -1.13262e-22)
(7.52109e-05 5.631e-05 -7.92204e-22)
(0.000531588 0.00092258 -8.02509e-22)
(0.000576086 0.00100713 1.77162e-21)
(0.00062358 0.00110735 1.4152e-21)
(0.000370133 0.000418953 0)
(0.000658522 0.00117787 1.95794e-21)
(2.36122e-05 -2.0727e-06 -8.56199e-23)
(0.000637439 0.00107676 0)
(0.000218163 0.000266031 -2.45217e-25)
(0.000741761 0.00131835 0)
(0.000765208 0.00127976 1.3337e-21)
(0.000634992 0.00109459 8.51011e-22)
(0.000239044 0.000427753 -2.77894e-21)
(0.000566053 0.000977534 -7.30234e-24)
(2.98943e-05 -0.000157922 -1.29997e-21)
(0.000530234 0.000501467 1.26615e-21)
(0.000510882 0.000896502 9.01827e-24)
(0.000145271 0.000395238 1.40998e-21)
(0.000605993 0.00100844 3.46933e-22)
(0.000271474 0.000386721 -2.91155e-21)
(2.08189e-05 -0.000116484 2.57298e-21)
(0.00143044 8.20514e-05 4.18575e-22)
(0.000737645 0.00131736 -8.94934e-24)
(2.48315e-05 -0.000135284 0)
(0.000337005 0.000487852 -1.50086e-21)
(0.000987015 0.000414864 2.02157e-22)
(0.000590444 0.000877974 -2.14472e-21)
(0.00121132 0.00037607 -8.43263e-22)
(0.000463747 0.00116773 1.3121e-21)
(0.000580637 0.00103466 -7.64286e-22)
(0.000571999 0.000990699 -2.56221e-23)
(0.00054403 0.000939413 -1.67393e-21)
(0.00114384 0.000342997 7.85353e-22)
(0.000275449 0.000474813 -5.72861e-21)