/*--------------------------------*- C++ -*----------------------------------*\
  =========                 |
  \\      /  F ield         | OpenFOAM: The Open Source CFD Toolbox
   \\    /   O peration     | Website:  https://openfoam.org
    \\  /    A nd           | Version:  8
     \\/     M anipulation  |
\*---------------------------------------------------------------------------*/
FoamFile
{
    version     2.0;
    format      ascii;
    class       volVectorField;
    location    "3";
    object      U;
}
// * * * * * * * * * * * * * * * * * * * * * * * * * * * * * * * * * * * * * //

dimensions      [0 1 -1 0 0 0 0];

internalField   nonuniform List<vector> 
4280
(
(3.23465e-05 1.54887e-05 -9.42195e-23)
(0.000639558 0.00107872 3.33995e-22)
(1.8704e-05 3.31665e-05 -1.36225e-21)
(0.000309588 0.000399742 -9.37471e-22)
(0.000578628 0.000966676 5.13857e-22)
(0.000563333 0.0010459 0)
(0.000594047 0.000935118 0)
(0.000666183 0.00112001 3.05909e-22)
(0.000436531 0.000771108 -6.28371e-22)
(0.000560478 0.0010409 1.87521e-22)
(3.99827e-05 2.40815e-07 6.05376e-24)
(0.000621392 0.00120181 -5.15482e-22)
(3.6791e-05 8.31106e-05 -1.39457e-21)
(0.000593078 0.00045425 -1.80445e-21)
(0.000445724 0.000770523 -5.09897e-22)
(0.000663282 0.00112667 -2.8875e-22)
(0.000477026 0.000858722 6.0698e-22)
(0.000310087 0.00099826 -8.70723e-22)
(0.000182386 0.000762972 2.2121e-22)
(0.000663806 0.0011197 0)
(3.69324e-05 -2.44157e-06 -6.57271e-25)
(0.000646759 0.00118371 0)
(4.74021e-05 -7.01108e-05 7.73542e-22)
(0.00072604 0.00130022 0)
(0.000574616 0.001052 -7.9605e-22)
(0.000532044 0.000891234 -1.24072e-22)
(0.000647243 0.00118251 0)
(0.000569743 0.00104513 -4.89556e-22)
(0.000583121 0.00101414 -3.6248e-22)
(0.000436864 0.000926561 4.13843e-22)
(0.000586674 0.000967519 -1.05887e-21)
(0.000392329 0.00105513 0)
(0.000510316 0.000949785 -6.49268e-22)
(0.000498238 0.000925817 -1.26499e-21)
(3.38063e-05 0.000315553 1.10869e-21)
(0.000571336 0.00105419 8.55425e-22)
(0.00076804 0.00126947 -1.90573e-23)
(0.00042863 0.00083298 8.93027e-22)
(0.000666561 0.0012503 -2.27979e-22)
(0.000583281 0.00104266 7.80281e-24)
(0.000662273 0.000581435 3.2799e-22)
(0.000636052 0.00121115 -6.42197e-22)
(0.000544393 0.000796544 0)
(0.000594469 0.000905156 0)
(0.000491959 0.000933143 -2.50029e-22)
(0.00052425 0.000969106 0)
(0.000904758 0.00107372 -2.63204e-22)
(0.000629088 0.00113767 -3.02652e-22)
(0.000544431 0.000947057 1.22249e-23)
(0.000884958 0.00138175 5.76389e-22)
(0.000551112 0.000978002 0)
(0.000663678 0.00112534 0)
(0.000576534 0.00103561 -3.62211e-22)
(8.31272e-05 0.000672717 -1.0598e-21)
(0.000183611 0.000601042 -4.45199e-22)
(0.000665396 0.00112452 2.75433e-22)
(9.17808e-05 -0.000452214 -3.48232e-22)
(0.000710462 0.00130471 -5.95778e-22)
(0.000541301 0.000929709 -8.36681e-24)
(0.00063225 0.00113897 2.99048e-22)
(0.000583542 0.0010391 6.18027e-24)
(0.000636965 0.00114707 4.74845e-22)
(0.000677271 0.0011354 1.24749e-21)
(0.000569161 0.00104442 -1.22549e-21)
(0.000560012 0.00103592 1.04204e-21)
(0.000668027 0.00117465 0)
(0.000798216 0.000819657 0)
(0.000175478 0.000572708 -6.37998e-22)
(0.000582643 0.00103477 -2.60786e-22)
(0.000638479 0.00114406 -2.78019e-22)
(0.000547624 0.000942086 -1.65834e-22)
(0.000577928 0.00101928 -3.68121e-22)
(0.000756316 0.00126898 -3.70536e-22)
(0.000730402 0.00129179 6.67748e-22)
(0.000847314 0.000459842 -3.6165e-25)
(0.000188436 0.000736211 -1.17944e-21)
(0.000451896 0.000845501 0)
(0.000528832 0.000933743 0)
(0.000663749 0.0011205 8.34219e-24)
(0.000216551 0.00083475 -3.14396e-22)
(0.000512074 0.00101165 7.66504e-23)
(0.000664934 0.00118651 9.10885e-23)
(0.000355985 3.61408e-05 -2.33652e-21)
(0.00055481 0.000974926 -6.84745e-24)
(0.000548602 0.000979097 1.06521e-21)
(0.000914562 0.00081059 -1.23467e-21)
(0.000640431 0.00119671 2.1799e-22)
(0.000532162 0.000900707 1.56487e-22)
(0.000237164 0.000854468 -5.99957e-22)
(0.000237142 0.000869646 0)
(0.000675619 0.0011843 3.94397e-22)
(0.000327466 0.000977968 2.08367e-21)
(0.00043746 0.000899755 2.43997e-23)
(0.000527551 0.000917534 -2.44283e-22)
(0.000494409 0.000916564 0)
(0.0005536 0.000908066 4.73943e-22)
(0.000794878 0.00134657 0)
(0.000581734 0.00103901 -2.83961e-22)
(0.000699625 0.00113074 3.77239e-24)
(0.000549355 0.000939531 -1.09627e-21)
(0.000585061 0.00104315 -6.54491e-22)
(0.000628343 0.00119609 8.97891e-24)
(0.000724028 0.001317 0)
(0.000548158 0.000934022 -4.44191e-22)
(0.00063663 0.00114133 2.72424e-22)
(0.000585969 0.00104461 -7.23202e-24)
(0.000539259 0.000973439 -6.69627e-22)
(0.000616706 0.00111078 -1.16779e-21)
(0.000470358 0.000782746 0)
(0.000383076 0.000687991 0)
(0.000274375 0.000724127 7.22694e-22)
(0.000549741 0.000990323 7.44086e-22)
(0.000550266 0.000980116 -1.07202e-21)
(0.000481353 0.000800948 -7.31538e-22)
(4.39223e-05 -2.34583e-06 -6.11295e-24)
(0.000548697 0.000925485 0)
(0.000102381 -0.000200273 -1.48402e-21)
(0.000549108 0.00100138 0)
(0.00055417 0.000717552 8.49984e-22)
(0.000559336 0.000439635 0)
(0.000406261 0.000889543 -4.11403e-22)
(0.000525493 0.000944119 1.96289e-22)
(0.000731497 0.00130065 4.86368e-22)
(0.000547151 0.000932497 3.95862e-22)
(0.000530777 0.000948633 0)
(0.000472021 0.000965164 5.92747e-22)
(0.000353538 0.000689681 0)
(0.000506939 0.000982718 -3.10294e-22)
(2.46901e-05 0.00023593 1.9229e-22)
(0.000808013 0.00135931 -5.4824e-23)
(0.000357614 0.000671063 -5.28731e-22)
(0.000596456 0.00108426 3.27402e-22)
(0.000622146 0.00115893 2.03193e-22)
(0.000577246 0.00100609 -4.27519e-22)
(0.000542572 0.000989501 1.52735e-21)
(0.000106842 0.00113584 0)
(0.000722138 0.00131802 0)
(0.000804573 0.00134318 1.41796e-24)
(0.000361823 0.000658259 -2.91579e-22)
(0.000672996 0.00118692 -7.5313e-24)
(0.000551112 0.000982566 -1.2244e-23)
(0.000485273 0.000879539 0)
(0.000255215 0.000457455 2.10256e-22)
(0.000575463 0.0010545 0)
(0.000550824 0.000981578 -5.77557e-22)
(0.000653913 0.00110792 1.86598e-21)
(0.000506779 0.00012457 6.92986e-22)
(0.000568025 0.001082 6.22863e-24)
(0.000421455 0.0006092 0)
(0.000552239 0.000981723 0)
(0.00031367 0.000863343 0)
(0.00165112 0.000161419 0)
(0.000548238 0.000991146 -4.3924e-22)
(0.000485947 0.0005731 0)
(0.000364675 0.00111034 -7.31196e-24)
(0.000671808 0.00118784 -1.27624e-23)
(0.000637044 0.000792919 0)
(0.000565454 0.00101149 4.32097e-22)
(0.000510284 0.000922857 6.18881e-22)
(0.000353339 0.000646321 0)
(0.000660512 0.00111211 0)
(0.000631309 0.00116879 1.21976e-21)
(0.000491203 0.000117648 1.05673e-21)
(0.00043571 0.00101006 -1.34876e-21)
(0.000604038 0.0012488 0)
(0.000653101 0.000947415 1.51508e-23)
(0.000683807 0.0011775 2.51786e-22)
(0.00060501 0.00103389 9.74676e-24)
(0.000664977 0.00112169 3.21511e-22)
(0.000711745 0.00127181 5.08295e-23)
(0.00057995 0.000945869 0)
(0.00052838 0.000971053 1.47412e-22)
(0.000552073 0.00097971 5.86648e-24)
(0.000192396 0.00158063 -6.24611e-23)
(0.000994729 0.000421435 -1.16242e-21)
(0.00052161 0.00102234 9.16355e-24)
(0.000904573 0.00039481 0)
(0.000341112 0.000751473 1.0851e-21)
(0.000527019 0.000970185 -1.02951e-22)
(0.00059528 0.00100388 -3.27131e-22)
(0.000594071 0.00069485 -8.70665e-22)
(0.000784725 0.000739946 4.71466e-22)
(0.000149482 0.000727673 -8.82478e-22)
(0.000777144 0.00132504 -6.4451e-22)
(0.000947535 0.00150465 6.78412e-22)
(0.000558091 0.00101131 0)
(0.000536308 0.000981855 1.29949e-23)
(0.000807414 7.64848e-05 -1.21987e-22)
(0.000713433 0.0013073 4.41359e-22)
(0.00049475 0.000905266 -4.27864e-23)
(0.000196399 0.000604358 1.44304e-22)
(0.00043374 0.000930812 0)
(0.000560522 0.000973348 -1.30147e-23)
(0.000495939 0.00082923 -3.74573e-23)
(0.000519749 0.000974142 -7.45533e-23)
(0.000698931 0.0010954 -1.04706e-21)
(0.000671651 0.00110447 0)
(0.000638668 0.00105999 -6.0293e-22)
(0.000772105 0.00127256 0)
(0.000819561 0.00135291 -7.88037e-22)
(0.000482706 0.000691494 -4.93441e-24)
(0.000878399 0.000935884 -8.93536e-22)
(0.00053561 0.000930898 0)
(0.000579808 0.00108117 0)
(0.000605274 0.00107034 -8.29731e-22)
(0.000666132 0.00118194 -2.80925e-22)
(0.000549962 0.000929306 1.22254e-21)
(0.000647199 0.00117862 -3.71724e-22)
(0.000545703 0.000941218 -5.40053e-22)
(0.000686728 0.00118882 4.93089e-22)
(0.000683867 0.0011583 -1.05706e-21)
(0.000287501 0.00060853 -8.46243e-23)
(0.000449419 0.000822288 7.32778e-22)
(0.000426837 0.000578911 1.68559e-21)
(0.000567367 0.000975453 0)
(0.000554661 0.00105643 7.21492e-22)
(0.00103398 0.000159879 -9.5045e-22)
(0.000695822 0.00112517 -1.96601e-22)
(0.000661054 0.00118748 3.05493e-22)
(0.000334349 0.000747835 7.57041e-22)
(0.000568648 0.000900754 6.99603e-23)
(3.08773e-05 -1.46608e-05 -3.57164e-24)
(0.000526887 0.00096053 1.50583e-21)
(0.000855517 0.000866338 4.04919e-22)
(0.000398027 0.000844153 -7.43358e-22)
(0.000544967 0.000731182 0)
(0.00100556 0.000409188 8.88273e-22)
(0.000442942 0.00080848 -4.88379e-22)
(0.000550999 0.000959354 0)
(0.00048361 0.000953955 -7.93675e-22)
(0.00096948 4.32816e-05 4.06855e-22)
(0.000559557 0.000973711 -3.16098e-22)
(0.000873439 3.83099e-05 -2.20536e-22)
(0.000455209 0.000847248 -6.12552e-22)
(0.000558542 0.000971607 -1.12495e-21)
(0.000503695 0.000242197 -7.57606e-22)
(0.000527983 0.000974875 -7.61918e-22)
(0.000693563 0.00115508 -4.43102e-22)
(0.000325008 0.000856167 -1.15766e-21)
(0.000749768 0.00126368 -1.60905e-22)
(0.000639286 0.00114689 -2.40866e-22)
(0.000572018 0.00100698 6.01994e-22)
(0.000685081 0.00118663 -1.85713e-22)
(0.000488591 0.0010314 -1.21659e-21)
(0.0007779 0.00127155 -2.73858e-22)
(0.000614367 0.00121189 0)
(0.000589649 0.000980196 2.58939e-23)
(0.00077362 0.00135046 2.59342e-23)
(0.000550586 0.000998725 2.39933e-22)
(0.000527771 0.000940756 1.96471e-22)
(0.000532055 0.00116536 7.38827e-22)
(0.000547173 0.00095811 0)
(0.00060148 0.00104752 7.61794e-22)
(0.00053351 0.000891826 -2.7145e-22)
(0.000720798 0.00143982 5.4362e-23)
(0.000575637 0.00105155 -1.35461e-23)
(0.000472073 0.000506483 1.30092e-21)
(0.000555489 0.000966569 0)
(0.000608825 0.000462068 8.57221e-22)
(0.000807808 0.00117791 2.21596e-21)
(0.000640731 0.00116512 0)
(0.000374867 0.000239968 -8.19052e-22)
(3.36955e-05 0.000627418 0)
(0.000536477 0.000928891 1.4774e-22)
(0.00111175 0.000347107 -1.80966e-21)
(0.000603179 0.00103229 7.2746e-24)
(0.000514737 0.000894088 5.73583e-22)
(0.000763524 0.00129241 -5.2939e-22)
(0.000512205 0.000957229 0)
(0.000952238 0.000879668 1.31243e-21)
(0.000351854 0.00121669 3.90312e-23)
(0.000379412 0.00066774 4.13801e-22)
(0.000675908 0.00118514 -3.06908e-22)
(0.000560929 0.000936267 9.83695e-24)
(0.000582216 0.00095307 -5.41322e-22)
(0.000676362 0.00118555 -3.24126e-22)
(0.000713542 0.000593982 1.60514e-23)
(0.000639137 0.00114599 -5.24039e-22)
(0.000746614 0.00127215 -5.02141e-22)
(0.000722314 0.000328374 1.83812e-21)
(0.000713414 0.00129959 -1.69829e-21)
(0.000506326 0.000948817 -2.25966e-22)
(0.000539139 0.000975123 -3.07823e-22)
(0.000400438 0.000251345 0)
(0.000451639 0.000745122 1.09197e-21)
(2.19354e-05 -1.25768e-05 3.00384e-24)
(0.00103287 0.00134076 -1.76361e-21)
(0.000777923 0.00136111 0)
(0.000618769 0.00107147 1.9059e-22)
(0.000542915 0.000969057 3.26258e-22)
(0.00054078 0.00104982 -2.97145e-22)
(0.000615836 0.00144984 -5.17546e-23)
(0.000424712 0.000869554 0)
(0.000891727 0.00133027 -8.57831e-22)
(0.000443294 0.000720007 6.06089e-22)
(0.000394431 0.000785556 2.83802e-22)
(0.000380457 0.000902636 -6.06274e-23)
(0.000679828 0.00113047 1.30071e-21)
(0.000580486 0.00104354 2.41325e-22)
(0.000436207 0.000857798 2.37849e-22)
(0.000392452 0.000870221 1.32734e-21)
(0.000907621 0.000113167 -1.39422e-21)
(0.000748575 0.00127066 -1.37708e-21)
(0.000461306 0.000288581 5.50514e-22)
(0.00065229 0.00119469 3.73831e-23)
(0.000668275 0.00117596 2.85939e-22)
(0.00100009 5.94225e-05 0)
(0.000933235 0.000116905 3.40666e-23)
(0.000844026 0.00136805 1.84319e-22)
(0.000556271 0.00109852 1.36709e-22)
(0.00055858 0.000973863 -6.19725e-25)
(0.000685027 0.000103299 -2.29774e-21)
(0.00058054 0.00103809 3.55876e-22)
(0.000429942 0.000913284 1.20852e-21)
(0.000560713 0.000945509 7.56106e-22)
(0.000686891 0.00128247 -8.14935e-23)
(1.72262e-05 -2.10079e-05 1.1245e-23)
(0.000792276 0.000910385 5.99742e-22)
(0.000660814 0.00119223 -2.20098e-22)
(0.000550833 0.000974195 -7.66983e-23)
(0.000194751 0.000793545 1.32616e-24)
(0.00107699 0.000151681 0)
(0.000195499 0.000909558 1.63194e-23)
(0.00057448 0.000946053 0)
(0.000509983 0.000902247 2.38502e-22)
(0.00101753 0.000188801 0)
(0.000438119 0.000888711 -2.04149e-22)
(0.000277799 0.000710962 -1.03601e-21)
(0.000638009 0.000989806 5.86742e-22)
(0.000603592 0.00104191 7.51949e-22)
(0.000260218 0.00033122 2.64674e-21)
(0.000630322 0.0011859 -8.34417e-23)
(0.00056072 0.00101561 -7.72653e-22)
(0.000473318 0.000929069 8.70493e-22)
(0.000500446 0.000975507 5.22007e-22)
(0.000557168 0.00110546 0)
(0.000441302 0.000720479 -2.9947e-22)
(0.000630118 0.00106891 5.80703e-22)
(0.000813977 0.00133843 1.18381e-21)
(0.000674669 0.00119143 0)
(0.000108308 -8.84315e-05 1.81554e-21)
(0.000387506 0.000672215 0)
(0.000676803 0.00119327 1.39612e-21)
(0.000555656 0.000924468 5.47537e-22)
(0.000520211 0.00101306 8.9571e-23)
(0.000671878 0.00120405 -3.78727e-22)
(0.000277302 0.000871322 5.23988e-22)
(0.000326573 0.000699205 -3.27102e-22)
(0.00054587 0.00100938 0)
(0.000687249 0.00111652 2.3993e-22)
(2.26167e-05 0.000823318 0)
(0.000254383 0.000797117 -4.64842e-22)
(0.00140323 0.000261379 0)
(0.000643935 0.00123902 -3.27122e-22)
(0.000745151 9.754e-05 4.84295e-23)
(0.000688362 0.00114115 6.93824e-22)
(0.000693054 0.00118829 -1.97116e-22)
(0.000283837 0.000829479 5.91497e-22)
(0.000722557 0.0013187 -2.09806e-22)
(0.000690493 0.00111896 -2.38953e-22)
(4.28802e-05 0.000183932 6.30859e-22)
(0.000544067 0.00104315 6.8566e-24)
(0.000699483 0.00111039 -6.36589e-22)
(0.000559362 0.000969209 -4.10965e-22)
(0.000638938 0.00115013 0)
(0.000566686 0.00108263 0)
(0.00053008 0.000927106 -1.17678e-21)
(0.000507411 0.000941973 0)
(0.000452694 0.00071356 -9.26803e-22)
(0.000547502 0.000977085 -2.53983e-22)
(0.000530843 0.00101463 -4.52848e-23)
(0.000575641 0.00100839 4.04518e-22)
(0.000765661 0.00132701 -8.04224e-23)
(0.000337351 0.000644486 1.1059e-21)
(0.000551144 0.000982106 0)
(0.000471452 0.000997033 -4.05038e-22)
(0.00055962 0.000910916 4.59163e-23)
(0.000135615 0.000163354 0)
(0.000531538 0.00112411 1.06218e-22)
(0.000554059 0.00100903 3.71418e-24)
(0.000736685 3.91867e-05 6.14924e-24)
(0.000321223 0.000890204 5.47613e-24)
(3.41582e-05 -2.19323e-08 1.19278e-21)
(0.00032032 0.000924063 4.85039e-22)
(0.000577015 0.00113812 -3.44543e-22)
(0.000819338 0.00135478 -9.77112e-22)
(0.000450437 0.000836479 -8.6594e-22)
(0.000586791 0.00098968 -5.60308e-23)
(0.00047631 0.000941943 0)
(0.000996258 0.000793 7.37151e-22)
(-0.000140456 0.00107007 -5.67759e-22)
(0.000571071 0.00120688 0)
(0.000317772 0.000867906 -1.20084e-21)
(0.000471979 0.000532631 9.0835e-22)
(0.000534964 0.00098571 0)
(0.000685039 0.00112029 5.23688e-22)
(0.000585871 0.00108503 -8.54251e-23)
(0.000311948 0.000345479 -2.79396e-21)
(0.000400485 0.000414714 -1.92236e-22)
(0.00053621 0.000972513 -4.83905e-22)
(0.000493622 0.000925893 4.89052e-22)
(0.000538696 0.000970453 -2.76574e-22)
(0.000599583 0.00107861 -2.15079e-22)
(0.000548239 0.00101846 0)
(0.000783094 0.00128445 -6.99963e-24)
(0.000315624 0.000921177 0)
(0.000593706 0.00108664 4.39518e-24)
(0.0006759 0.00111161 2.32788e-22)
(0.000538501 0.000977814 -3.69435e-22)
(0.000782185 0.00131776 6.39088e-22)
(0.000389889 0.000676504 2.9211e-22)
(4.5824e-05 -4.63725e-07 4.53369e-23)
(0.000519212 0.00110306 -7.07138e-22)
(0.000576808 0.000945843 5.05919e-22)
(0.000778232 0.00127496 5.07838e-24)
(0.000724495 0.00160265 0)
(2.06793e-05 -3.22408e-05 -7.64631e-22)
(0.000548965 0.000913297 -1.07922e-21)
(0.000631984 0.00114769 0)
(0.00055348 0.000823288 -5.88359e-22)
(0.000438404 0.000897532 0)
(0.000343627 0.000843134 1.00142e-21)
(0.000647131 0.00113949 5.23168e-22)
(0.000864167 0.00108829 -6.07763e-22)
(0.000602295 0.00102999 0)
(0.000793838 0.001354 9.12979e-22)
(0.000687962 0.00112837 2.44797e-22)
(0.000495049 0.000935854 3.79762e-22)
(0.00055208 0.000984971 -6.62054e-22)
(0.000503789 0.000980888 -3.02306e-22)
(0.000773785 0.00129465 2.68837e-22)
(0.000268826 0.000987911 -1.98185e-21)
(0.000252584 0.000847047 -5.49478e-22)
(0.00046021 0.000877405 -5.71106e-22)
(0.000726856 0.000116094 -4.48786e-22)
(0.0006383 0.000480634 2.27572e-21)
(0.000909394 0.00022485 -1.97227e-22)
(0.000537476 0.000970428 -7.81988e-24)
(0.000377971 0.000547995 -9.85159e-22)
(0.000847986 0.000478807 1.70829e-21)
(0.000688714 0.00118635 -5.53629e-22)
(0.000537693 0.00091862 0)
(0.000549222 0.000965741 8.82315e-22)
(0.000266038 0.000810549 0)
(0.000677382 0.00119283 -4.48558e-22)
(0.000672819 0.0011549 -6.19969e-24)
(0.000652917 0.000628373 -1.22369e-21)
(0.00045371 0.000877019 6.55209e-22)
(0.00065136 0.000718265 -1.12148e-21)
(0.000468122 0.000933596 -4.24328e-22)
(0.000398088 0.000486079 2.75409e-22)
(0.000622644 0.000657029 8.69642e-22)
(0.000830051 0.00130369 2.33597e-23)
(0.000579488 0.000947397 1.76376e-23)
(0.000543902 0.00117136 0)
(0.00038299 0.000915205 8.26083e-22)
(0.000626751 0.00113615 -1.45907e-21)
(0.000380604 0.000953017 -9.40231e-22)
(0.000645476 0.000705342 1.32751e-21)
(0.000215276 0.000469337 5.64294e-22)
(0.000618529 0.00128006 -4.00234e-22)
(0.000447547 0.000250949 0)
(0.000589004 0.000893229 -3.50798e-21)
(2.18715e-05 2.74022e-05 -5.72236e-22)
(0.000553984 0.000899242 -2.1042e-22)
(0.000630865 0.00114119 -2.15192e-21)
(0.000524134 0.000998734 2.89109e-21)
(0.000550853 0.000923767 0)
(0.000419175 0.000871143 -1.55969e-21)
(0.00046753 0.00130741 -7.97905e-23)
(0.000578233 0.00117612 1.01898e-23)
(3.63852e-05 0.000743495 0)
(0.000661992 0.000663674 -3.22977e-21)
(0.000635224 0.0011178 -2.13358e-22)
(0.000738836 0.00155358 -3.83738e-24)
(0.00061177 0.000706242 -9.30757e-22)
(0.000564471 0.00104064 -1.13679e-21)
(0.000473697 0.000994626 -6.41177e-22)
(0.000556672 0.000972079 -5.92145e-24)
(0.000567599 0.00106131 2.90284e-25)
(0.000735168 0.00011804 -2.19934e-22)
(0.000261578 0.00074072 -1.47551e-21)
(0.000639993 0.00105699 -6.07802e-22)
(0.000564295 0.000975043 -1.27996e-23)
(0.000571329 0.00103512 -2.83282e-22)
(0.000499872 0.0010266 -1.00786e-22)
(0.000531841 0.000973605 0)
(0.000768849 0.000234471 1.31156e-21)
(0.00056924 0.000989087 -5.5725e-22)
(0.000589104 0.000410692 7.38174e-22)
(0.000597491 0.0010854 1.77132e-21)
(0.000728494 0.000889576 0)
(0.00109233 0.000355464 8.67584e-22)
(0.000508839 0.000983516 -2.40933e-25)
(5.18099e-05 9.99488e-05 -7.32079e-22)
(0.000630424 0.00100276 0)
(0.000443611 0.000780301 7.30214e-22)
(0.000771606 0.00132287 -1.09846e-21)
(0.000585958 0.00100697 0)
(0.000545547 0.000974431 0)
(0.000778177 0.00131359 0)
(0.000922703 0.00036099 -7.97107e-22)
(0.000459575 0.000968692 0)
(0.000502419 0.000708042 -2.29443e-21)
(0.000372536 0.000915856 -2.77934e-21)
(0.00111453 0.00126463 -1.05944e-21)
(0.000677882 0.00111706 -2.31831e-22)
(0.000729421 0.00130759 -6.44596e-25)
(0.000569195 0.000939575 7.32461e-22)
(0.000545366 0.00035414 -5.43361e-22)
(0.000646691 0.00116212 0)
(0.000488894 0.00068509 -7.34513e-22)
(0.000544792 0.000706884 9.92181e-22)
(3.41226e-05 -1.24591e-05 0)
(0.000475252 0.000963213 -2.77368e-22)
(0.000556121 0.000929976 2.4287e-22)
(0.000332945 0.00077403 0)
(0.000811378 0.000196098 5.53921e-22)
(0.000626548 0.00108857 0)
(0.000368579 0.000901725 3.64961e-22)
(0.000802155 0.00131595 1.3995e-21)
(0.000453597 0.000917177 -1.25046e-21)
(0.000537258 0.00107668 -8.45352e-23)
(0.000387041 0.000976687 -1.82925e-21)
(0.000483481 0.000582726 -2.01402e-21)
(0.00062443 0.0007797 -1.34451e-24)
(0.000423178 0.00100948 1.42271e-22)
(0.000684823 0.00111718 1.11359e-22)
(0.000573957 0.000358187 1.09438e-21)
(0.000682197 0.000841518 -2.92809e-21)
(0.000555367 0.00089912 0)
(0.000646572 0.00116713 6.98104e-22)
(0.00052341 0.000961488 -2.6574e-21)
(0.000364438 0.000900878 0)
(0.000870004 0.000320671 1.79805e-21)
(0.000537551 0.000979422 0)
(0.000718441 0.00131485 -1.61855e-22)
(0.000778676 0.00135041 -7.6441e-22)
(0.00078117 0.00129863 6.14858e-22)
(0.000790721 0.00131875 -9.92208e-22)
(0.000608013 0.00117944 -2.47833e-22)
(0.000450033 0.000233899 1.59892e-24)
(0.000505041 0.000445097 -1.47951e-21)
(0.000587266 0.000241652 0)
(0.000635487 0.00115309 1.38027e-21)
(0.00086958 9.13515e-05 -4.98476e-22)
(0.000616972 0.00106187 0)
(0.000583455 0.0011344 0)
(0.000191215 0.000397044 5.75826e-22)
(0.000572968 0.00114861 0)
(0.000622041 0.00111347 -3.11569e-21)
(0.000480051 0.00101818 6.20682e-22)
(0.000768552 0.00132665 9.16417e-22)
(0.00025886 -8.70974e-06 -5.97998e-22)
(0.000540723 0.000812052 -1.00078e-21)
(0.000129751 0.000492448 -7.71641e-22)
(0.000874821 0.00114804 -2.41627e-21)
(0.00057564 0.00104291 -2.54169e-22)
(0.000653285 0.00103632 1.74978e-21)
(0.000615592 0.00108105 -1.41736e-22)
(0.00065388 0.000169369 2.17357e-24)
(0.000840006 0.00128191 7.54937e-22)
(0.000556709 0.00101813 2.71621e-22)
(0.000623957 0.00107498 6.99107e-23)
(7.23351e-05 0.000513285 0)
(0.000561644 0.0010243 0)
(0.000513286 0.000955931 -1.6216e-21)
(0.000582088 0.00105031 5.8479e-23)
(0.000520356 0.000980944 -1.39063e-21)
(0.000542151 0.000960732 -3.18917e-24)
(0.000534436 0.000951438 0)
(0.000595303 0.000788864 -7.22911e-22)
(0.000783389 -7.89355e-05 -2.17645e-21)
(0.000567927 0.000407938 0)
(0.000548716 0.00096662 8.57129e-23)
(0.000579308 0.000983226 -5.36565e-23)
(0.000660691 0.000562074 2.01866e-21)
(0.00053415 0.000964396 8.82063e-25)
(0.000771113 0.00129113 -8.12446e-24)
(0.000459858 0.000979268 -5.22867e-22)
(0.000623793 0.00114863 -1.34116e-22)
(0.000590075 0.00116684 -9.41325e-23)
(0.000703713 0.0011405 0)
(0.000455286 0.00129531 1.62831e-21)
(0.000631376 0.00106847 1.20674e-21)
(0.000542572 0.00108341 -8.56017e-22)
(0.000348227 -4.36434e-05 -5.46487e-25)
(0.000650076 0.00118192 -6.80354e-22)
(0.00043513 0.000865028 1.51763e-21)
(0.000364282 0.000152738 8.4722e-22)
(0.000618003 0.0010854 0)
(0.000559997 0.000986328 1.19027e-21)
(0.00033511 0.000743891 -2.45791e-22)
(0.00119074 -5.15245e-05 7.28366e-22)
(0.000297538 0.000783714 7.98322e-22)
(0.000755702 0.0012683 1.71422e-22)
(0.000615567 0.001089 -7.08836e-22)
(0.000544324 0.00096125 -9.08429e-22)
(0.000526193 0.00093694 2.38127e-21)
(0.00077239 0.0013428 5.83586e-22)
(0.000614671 0.00021946 -1.67404e-21)
(0.000560778 0.000179514 1.92626e-21)
(0.000616439 0.000118434 -1.99462e-21)
(0.000751948 0.00132664 3.92405e-23)
(0.000419363 0.000889752 -3.0057e-21)
(0.000642153 5.27876e-05 1.04719e-21)
(0.000630685 0.00114572 0)
(0.000772662 0.00134837 -5.96719e-22)
(0.000579231 0.00097338 1.09136e-21)
(0.000328184 0.00080873 -2.68704e-22)
(0.000257363 0.000399552 -1.36032e-22)
(0.000529558 0.000977172 7.69482e-24)
(0.000568401 0.00105093 2.783e-22)
(0.000574176 0.00100517 -6.02129e-22)
(0.000525903 0.000987903 0)
(0.000547762 0.000924315 -1.04721e-21)
(0.000666716 -6.66985e-06 1.09563e-21)
(0.000647926 0.00117455 -7.05356e-22)
(0.000657164 0.00118952 6.83534e-22)
(0.000953237 0.00124275 -3.97896e-23)
(0.000574434 0.000238963 0)
(0.00041653 0.000139815 -7.8188e-22)
(0.000643932 0.00106776 -9.42885e-24)
(0.000613949 0.00109013 -7.47216e-22)
(0.000540954 0.00101869 4.06165e-23)
(2.00871e-05 1.6838e-05 1.62227e-22)
(0.000611486 0.00107898 1.50442e-22)
(0.000420516 0.000801265 -1.22614e-21)
(0.000816927 4.97895e-05 1.03658e-21)
(0.000661161 0.00013505 1.0167e-21)
(0.000696965 0.00133342 -2.58265e-23)
(0.000551653 0.00121395 0)
(0.000547355 0.000890103 -1.14798e-21)
(0.000464961 0.000774652 0)
(7.31808e-05 -3.64766e-06 8.57311e-22)
(0.000612114 0.0010803 -4.67355e-22)
(0.000643097 8.99491e-05 -1.23928e-21)
(0.000606835 0.00107499 -6.01236e-22)
(0.000505079 0.00101868 6.52477e-22)
(0.000460251 0.000938663 7.15636e-22)
(0.000769023 0.00129279 -6.3896e-22)
(5.23896e-05 0.000140319 2.75445e-21)
(0.000778407 0.00131705 2.47902e-22)
(0.000862546 0.00010144 0)
(0.000560999 0.00111185 1.21257e-22)
(0.00044531 0.000705859 -2.16828e-24)
(0.00055425 0.00099058 0)
(0.000599167 0.000428398 -2.94223e-21)
(0.00084276 -1.05627e-05 0)
(0.000621811 0.00107479 1.34493e-22)
(0.000524807 0.000974879 8.4996e-22)
(0.000656764 0.00116079 -2.02477e-21)
(0.000598744 0.00105227 -1.88262e-22)
(0.000820306 0.000152578 -1.19492e-22)
(0.000541908 0.000978235 0)
(4.39069e-05 0.000354981 -1.74329e-22)
(0.000777621 0.0013852 0)
(0.000175149 0.000365397 0)
(2.42361e-05 0.000782605 -4.23534e-22)
(0.000507719 0.00102667 -1.18404e-21)
(0.000646122 0.000185715 -9.15622e-22)
(0.000628596 0.0010527 1.19967e-21)
(0.000403835 0.00090252 1.9643e-22)
(0.000740126 0.00114489 -1.3742e-21)
(0.000581504 0.0012428 0)
(0.000566083 0.00101979 4.9401e-22)
(0.000789063 0.00136732 0)
(0.000795956 0.00135668 -9.70349e-24)
(0.000545844 0.00103775 1.44427e-21)
(0.000557771 0.000960492 1.22562e-22)
(0.000550977 0.000661237 2.46887e-21)
(0.000480268 0.000395642 1.54696e-21)
(0.000442759 0.000958923 0)
(0.000568618 0.00102073 -1.54444e-22)
(0.000796119 0.001369 0)
(0.000557731 0.000988285 0)
(0.000572179 0.00104035 -1.55212e-21)
(0.00104153 0.000182549 8.53229e-22)
(0.000626515 0.00122317 0)
(0.000197585 8.69768e-06 1.13697e-21)
(0.00049846 0.000903211 -1.00802e-22)
(2.57895e-05 0.000122456 1.32189e-21)
(0.000674033 0.000474047 -1.21078e-22)
(0.000681157 0.00115222 6.61082e-22)
(0.00077036 0.00111711 1.28179e-21)
(0.000674137 0.00105792 -6.36331e-22)
(0.000536827 0.00119091 0)
(0.000533635 0.00101869 7.29501e-22)
(2.97841e-05 0.000400276 4.48469e-23)
(0.000555687 0.000979798 -5.50762e-22)
(0.000503608 0.00100561 -3.4198e-22)
(0.000767493 0.00134462 -5.20833e-22)
(0.000773367 0.00132845 -1.55873e-24)
(0.000569723 0.00100187 0)
(0.000650245 0.00118993 6.59624e-22)
(0.000689172 0.00111375 -1.08864e-21)
(0.000578478 0.0010208 2.7707e-22)
(0.000845963 0.000270478 6.19452e-22)
(0.000559452 0.00101807 1.0141e-21)
(0.000582226 0.00101679 0)
(0.000537917 0.00106764 0)
(0.000522564 0.00101665 6.73816e-22)
(0.000539717 0.000938177 -1.41396e-22)
(0.000570365 0.000969372 1.45438e-21)
(0.000609417 0.00108825 0)
(0.00055259 0.000918096 5.79956e-22)
(0.00103747 0.000385665 1.17325e-23)
(0.00060541 0.00109142 3.45504e-22)
(0.000555233 0.000987265 -1.03976e-21)
(0.000583161 0.000677582 7.21768e-22)
(0.000597118 0.00107616 -1.05265e-21)
(0.000687872 0.00118883 4.15584e-25)
(0.000742243 3.26965e-05 -1.81385e-21)
(0.000553461 0.001104 2.48294e-22)
(0.000329353 0.00104713 0)
(0.000573937 0.00103338 -1.40311e-21)
(0.000416534 0.000939587 8.86541e-25)
(0.000463382 0.00125565 0)
(0.000331685 0.000883757 9.1097e-22)
(0.000595359 0.00106042 -1.32718e-21)
(3.51433e-05 -1.60509e-06 1.84138e-21)
(0.000303277 0.00130248 -1.12272e-21)
(0.00060213 0.00108773 -6.97365e-22)
(0.000671824 0.000418327 5.63332e-22)
(0.000547841 0.000984857 5.03335e-22)
(0.000578154 -0.000413682 -1.25477e-22)
(0.000790176 0.000106709 0)
(5.98444e-05 -9.25807e-07 0)
(0.000530802 0.000986086 -1.77765e-21)
(4.00853e-06 2.2793e-05 8.80529e-23)
(0.00060056 0.00107588 1.15732e-21)
(0.000553648 0.000971747 1.36957e-22)
(0.000544826 0.000992047 1.25265e-22)
(0.000607309 0.00105567 2.21725e-22)
(0.000524833 0.00110543 7.56442e-22)
(4.35994e-05 2.35113e-06 -1.98644e-22)
(0.000643332 0.00118521 -1.15663e-21)
(0.00058323 0.00100679 -2.05541e-22)
(0.00029201 5.63134e-05 0)
(0.000534541 0.000996549 5.79876e-22)
(5.11441e-05 -7.62481e-06 0)
(0.000638621 0.00105731 -1.20106e-21)
(5.13827e-06 -6.22126e-05 0)
(4.60836e-05 -6.50158e-06 0)
(0.000666448 0.0011798 3.92125e-22)
(0.000538966 0.00101579 5.99269e-22)
(0.000379949 0.000591846 -2.30751e-22)
(0.000553885 0.00096887 -9.38635e-22)
(0.000584762 0.00101593 -8.40797e-22)
(0.000630364 0.00107084 -5.82687e-22)
(4.12194e-05 0.000223683 -3.43908e-22)
(0.000850463 0.000108018 0)
(0.000784042 0.00133945 0)
(0.000683738 0.00128493 -6.9633e-22)
(0.000572055 0.0010195 7.55151e-22)
(0.000612822 0.00107734 0)
(0.000556502 0.000993796 -2.03415e-21)
(0.000563863 0.000934514 -2.22142e-21)
(0.000589535 0.00112275 0)
(0.000544213 0.00098351 0)
(0.000552527 0.000997464 -2.72701e-22)
(0.000402766 0.000302759 5.86954e-22)
(0.000529432 0.000805064 -9.89953e-27)
(0.000579438 0.00101084 -1.7219e-22)
(0.00065943 0.00118636 2.78306e-22)
(0.000567335 0.00102142 8.18179e-22)
(0.000566164 0.00101503 -8.48032e-22)
(0.000777849 0.00133339 -1.68104e-21)
(0.000539043 0.000984272 5.45906e-23)
(0.00062112 0.000353523 -3.07772e-21)
(0.000584241 0.00113845 -9.37646e-24)
(0.000584723 0.0010084 -2.35927e-22)
(0.00064619 0.00118163 -5.84315e-24)
(4.99285e-05 7.94084e-06 -4.01003e-23)
(2.04059e-05 9.9433e-05 -1.30188e-21)
(0.000547233 0.000978863 9.32986e-22)
(0.000578785 0.0010337 -8.67793e-22)
(0.000818762 0.000806244 0)
(0.000563792 0.000977433 1.01069e-21)
(0.000561729 0.00116239 -4.3599e-23)
(0.000644479 0.00120271 -8.22341e-23)
(0.000590213 0.001114 -1.78772e-21)
(1.5265e-05 8.21401e-05 -5.12698e-22)
(0.000659459 0.00119551 0)
(0.000607919 0.00108859 0)
(0.000562879 0.00102032 6.71488e-22)
(-4.5858e-06 3.81333e-05 3.08841e-24)
(0.000512213 0.00104898 0)
(0.000792752 0.00133792 6.98213e-22)
(0.000570878 0.000973891 1.08743e-21)
(6.41089e-05 0.000242146 0)
(0.000667808 0.00114411 0)
(4.86233e-05 1.18044e-05 3.90578e-23)
(0.000560388 0.00100368 1.93709e-21)
(0.000364832 0.000987251 9.49082e-22)
(0.000794819 0.00133496 4.53553e-22)
(0.000585256 0.00107022 -3.32637e-22)
(0.000551719 0.000979228 -2.34509e-22)
(0.000586264 0.00100569 0)
(0.000539497 0.00102793 -7.15639e-22)
(0.000618106 0.00107787 0)
(5.41775e-05 -2.21118e-05 -7.39909e-22)
(0.000780598 0.00133952 -2.16072e-21)
(0.000788516 0.00135054 1.17649e-21)
(1.86469e-05 0.000123897 2.11185e-21)
(5.81892e-05 -1.14087e-05 0)
(0.000761975 0.00133308 5.76765e-22)
(0.000637102 0.00118132 7.36351e-25)
(0.000553183 0.00101659 8.63816e-23)
(0.000575484 0.00100959 -3.73036e-22)
(0.000556719 0.00107482 1.01689e-22)
(0.000568948 0.000993637 -1.44048e-21)
(0.00057843 0.00104131 -7.16188e-22)
(0.000490864 0.00133374 -3.30037e-24)
(0.000616886 0.00108175 6.40573e-22)
(0.000542065 0.000963805 -1.39882e-22)
(6.61456e-05 0.000285902 0)
(2.94087e-05 2.04949e-05 3.06326e-22)
(0.000742173 0.00128994 -6.53181e-22)