/*--------------------------------*- C++ -*----------------------------------*\
  =========                 |
  \\      /  F ield         | OpenFOAM: The Open Source CFD Toolbox
   \\    /   O peration     | Website:  https://openfoam.org
    \\  /    A nd           | Version:  8
     \\/     M anipulation  |
\*---------------------------------------------------------------------------*/
FoamFile
{
    version     2.0;
    format      ascii;
    class       volVectorField;
    location    "3";
    object      U;
}
// * * * * * * * * * * * * * * * * * * * * * * * * * * * * * * * * * * * * * //

dimensions      [0 1 -1 0 0 0 0];

internalField   nonuniform List<vector> 
7843
(
(0.000719616 0.00127258 -3.05041e-22)
(0.000534421 0.000977438 1.34819e-21)
(0.000533915 0.0010027 0)
(0.000945839 4.43295e-05 8.32102e-22)
(0.000662471 0.00116672 -3.8512e-22)
(0.00102903 1.78124e-05 -9.84956e-23)
(0.000587565 0.000517115 -2.84636e-21)
(0.000549321 0.000988449 0)
(0.000216321 9.58601e-05 3.90153e-21)
(0.000563819 0.000969991 0)
(0.000570239 0.00101354 1.09091e-21)
(0.000713223 0.00125797 0)
(0.00031138 5.51664e-05 0)
(0.000573854 0.00103461 0)
(0.000578122 0.000975438 1.81567e-21)
(0.000456237 0.000767603 1.11833e-21)
(0.000567716 0.00101041 3.00623e-24)
(0.000577957 0.000988433 0)
(1.17347e-05 9.63712e-05 1.16261e-21)
(0.000254762 0.000394779 0)
(0.000206172 0.000141911 3.35393e-21)
(0.000407476 0.000442478 -5.614e-22)
(0.000573113 0.00101655 2.39523e-24)
(8.12384e-05 0.000853627 -1.57515e-22)
(0.000742587 0.00121619 -7.16138e-22)
(1.79213e-05 -5.52124e-06 0)
(0.000485169 0.00138267 -6.17913e-23)
(5.2485e-05 0.000393434 3.37547e-21)
(0.000639004 0.00118257 -1.54232e-22)
(0.00103385 1.93369e-05 -9.4441e-22)
(0.000879437 0.000171864 -1.20875e-21)
(0.000516851 0.00100117 3.93301e-22)
(0.000797263 -8.57356e-05 1.12588e-21)
(0.00058515 0.00100092 1.62167e-22)
(0.000531705 0.000962203 1.04826e-21)
(0.000835627 0.00123807 -2.55391e-21)
(0.000576876 0.000965536 -7.83914e-22)
(0.000924296 0.000343927 6.64808e-25)
(0.001037 5.4991e-05 -1.27842e-22)
(0.000506448 0.000920787 1.12988e-21)
(0.000574856 0.000969576 -2.01414e-23)
(0.00058079 0.0010427 -1.26836e-21)
(0.000736117 0.0012494 0)
(0.000543691 0.000976157 -2.71781e-21)
(0.000222901 8.12332e-05 -1.18138e-21)
(0.000190063 0.000455966 7.77904e-22)
(0.000573101 0.0010292 1.16042e-21)
(0.000201618 0.000588802 1.5667e-21)
(0.000576108 0.000994197 1.41833e-21)
(1.09731e-05 3.34151e-05 3.07238e-23)
(0.000353183 4.70941e-05 -1.11757e-21)
(0.000548625 0.000977669 1.48269e-23)
(0.000546345 0.000996859 0)
(0.000759171 0.000521819 1.00879e-21)
(0.000668521 0.00114078 -2.83731e-22)
(7.78804e-06 8.47924e-05 0)
(0.000363361 0.000456945 2.98374e-21)
(0.000531516 0.000114665 1.14815e-21)
(0.000751452 0.00129933 -4.22169e-24)
(9.49622e-05 0.000168616 -1.5285e-21)
(0.000735369 0.00125397 4.90077e-22)
(0.0010248 0.000445167 1.07462e-22)
(6.89951e-05 0.000549697 -5.24966e-21)
(0.000831861 0.000119846 -2.06763e-21)
(0.000633204 0.00129094 9.37827e-24)
(0.000698213 0.00129667 -7.68823e-22)
(0.000762116 0.00123347 0)
(1.02926e-05 6.75334e-05 0)
(0.000568916 0.000520538 0)
(0.000738215 0.00125496 0)
(0.000361247 -0.000129131 -1.09488e-21)
(0.000562349 0.000976265 1.16454e-21)
(0.000220287 0.00110534 2.48999e-23)
(9.97943e-05 0.000165437 9.98986e-22)
(0.000339546 -8.77683e-05 -9.94289e-22)
(0.000515381 0.000983799 9.67339e-22)
(0.000736607 0.00124805 3.86448e-22)
(0.000734491 0.00125248 -1.65695e-22)
(0.00058583 0.00103166 0)
(0.000841156 0.000122426 0)
(0.000462203 -2.02819e-05 -1.56374e-21)
(0.000671174 0.00121193 0)
(0.000568965 0.00103278 -1.35511e-21)
(0.000684546 0.000315124 2.46618e-21)
(0.000540251 0.000913626 -7.66064e-22)
(0.000588248 0.00101761 -7.67884e-22)
(0.000450997 0.000360187 0)
(0.000742042 0.00126669 -1.127e-22)
(0.000826811 0.000314192 -1.90308e-21)
(0.000217449 0.000453436 1.13455e-21)
(0.00018881 0.000179059 -6.37293e-21)
(0.000596906 0.0010011 -6.44232e-22)
(1.52146e-05 5.06713e-05 -9.37625e-29)
(0.000836496 0.000128715 3.60314e-21)
(0.000515989 0.000345823 0)
(0.00075084 0.00131404 1.17206e-21)
(2.5439e-05 6.91395e-05 -2.48058e-21)
(0.00030803 0.000930463 -3.01893e-23)
(0.000406312 3.40808e-05 1.69955e-21)
(0.000528549 0.00101139 -9.76998e-22)
(0.000366031 0.00104452 0)
(0.000474263 0.00115053 2.15755e-22)
(0.000359472 0.000397198 0)
(0.000642984 0.00147297 0)
(0.000205005 0.000202214 -1.62386e-21)
(0.000150329 0.00113589 -1.40617e-21)
(8.41245e-06 4.86887e-05 2.25443e-22)
(0.000353366 -0.0001731 -1.11213e-21)
(0.000414658 0.00086768 -9.11996e-22)
(0.000552233 0.000974854 0)
(0.000664144 0.00121169 1.80132e-23)
(0.000572006 0.000575317 -1.01383e-21)
(0.00105331 0.000419462 9.99965e-23)
(0.000593658 0.000992092 -8.70096e-22)
(0.0001653 0.000313264 -3.08225e-21)
(0.000753325 0.00120549 -7.90937e-22)
(0.000823174 0.000275684 1.57245e-24)
(0.000724597 0.00128692 1.35434e-22)
(0.000186518 0.000206764 0)
(0.000598397 0.000999468 2.0604e-21)
(0.000657374 0.00117688 7.12134e-22)
(0.000638508 0.00116864 1.41998e-22)
(0.000530586 0.000992239 -1.12445e-21)
(0.000670668 0.0011306 3.10691e-22)
(0.000494918 2.06806e-05 -1.43075e-21)
(0.000364218 0.000509676 0)
(0.000608191 0.000983727 0)
(0.000197146 0.000855763 -2.547e-21)
(0.000474335 0.000811099 -1.0533e-22)
(0.00102796 2.56707e-05 0)
(0.000596536 0.00100156 6.50491e-22)
(0.00017557 0.000378124 5.89787e-22)
(0.000353925 0.000180137 2.05142e-21)
(0.000646756 0.00114718 -7.6757e-22)
(0.000505365 0.000977806 -2.95683e-21)
(0.000574382 0.000966082 -1.17228e-21)
(0.000972176 2.97298e-05 6.21882e-23)
(0.000310792 0.000716221 -2.25817e-23)
(0.000575902 0.000966887 -6.7668e-24)
(0.000742325 0.00125867 3.55279e-22)
(0.000474741 8.79058e-05 -1.21807e-21)
(0.00054156 0.000799992 1.47625e-21)
(0.000705435 0.000257563 7.57621e-23)
(0.000944024 -0.000225341 1.54083e-21)
(1.40404e-05 5.27207e-05 1.30623e-25)
(0.000763814 -2.79508e-05 8.9576e-22)
(0.000587046 0.00105354 -1.34549e-21)
(0.000486956 0.00096052 -2.06028e-23)
(0.000679409 0.000841009 1.88711e-21)
(9.48595e-05 0.000850984 1.43567e-21)
(0.000588381 0.00101112 1.13651e-23)
(0.000525586 0.000560036 -1.17477e-21)
(0.00076266 0.000164954 1.14686e-21)
(0.000597688 0.00100039 0)
(0.000762586 0.0012325 1.07864e-21)
(0.000565368 0.00101574 -1.16355e-21)
(5.49575e-05 0.000303011 -1.99975e-21)
(0.000202553 0.000384037 -8.19339e-22)
(0.000549339 0.00101249 2.83723e-21)
(0.000573378 0.000983164 0)
(0.000337212 0.000103375 2.43737e-21)
(0.000567297 0.00101216 -2.34999e-21)
(0.00130619 0.000418879 7.56643e-23)
(0.000565905 0.00101158 -1.07675e-23)
(0.000561275 0.00101767 -1.3941e-21)
(0.000548787 0.000996679 -5.15982e-22)
(0.000699469 0.000303218 -1.44475e-21)
(0.00021665 0.00121008 0)
(0.000583165 0.000997341 -2.97434e-22)
(0.000565072 0.00101466 1.21892e-21)
(0.000549521 0.00101951 0)
(0.000562037 0.0010186 1.35348e-21)
(0.000563802 0.00101609 -5.77234e-24)
(0.000129405 0.000312456 -3.15852e-21)
(0.000563654 0.00101773 -1.30308e-21)
(0.000318835 0.000100067 -1.79713e-25)
(0.000527486 0.000980541 0)
(0.000233204 2.68921e-05 1.32283e-22)
(0.000529227 0.00100389 1.12388e-21)
(0.000713777 0.00125945 -4.50937e-22)
(0.00054597 0.000924633 3.36233e-22)
(0.000582213 0.000994573 -6.85715e-23)
(4.12854e-05 0.000231156 7.44257e-26)
(0.000541797 0.00100915 0)
(0.000548308 0.000982373 1.14069e-21)
(0.00041327 0.000563293 -4.97675e-23)
(8.73397e-06 4.51719e-05 2.86452e-23)
(0.000532122 0.000579561 1.10867e-21)
(0.000537846 0.000887609 0)
(0.000211053 0.000459483 0)
(0.000565939 0.000968907 -5.53579e-22)
(0.000431029 0.000766944 1.30111e-21)
(0.000848054 5.48164e-05 1.07174e-21)
(0.000324243 6.04673e-05 0)
(0.0005329 0.000994696 -1.23013e-21)
(9.96342e-05 0.000111838 3.62471e-22)
(2.33318e-05 -1.13899e-06 0)
(0.000252769 0.000339934 3.50067e-21)
(0.000740196 0.00125686 -1.27291e-22)
(0.000470852 0.000940455 1.49823e-21)
(0.000551043 0.000977523 2.7364e-21)
(0.000747869 0.00127953 1.96352e-22)
(0.000595197 0.00100185 1.25449e-21)
(0.000680585 0.00114779 4.71862e-22)
(0.000536228 0.00104691 1.21218e-22)
(9.43793e-05 0.000103049 -4.96275e-22)
(0.000759426 0.00134064 1.51859e-22)
(1.32397e-05 0.000169434 3.93046e-22)
(1.51769e-05 -7.96532e-06 -7.40275e-22)
(0.000596525 0.0010003 -6.96981e-22)
(0.000800845 0.000761819 0)
(0.000551415 0.000976943 -1.39296e-21)
(0.000357096 0.000602899 9.27789e-22)
(0.000720705 0.00125054 4.69937e-22)
(0.000763246 0.00123238 2.95169e-22)
(0.000459838 0.000919927 3.05497e-21)
(0.000716022 0.000225995 -2.58157e-22)
(0.000649386 0.00116087 0)
(2.87587e-06 8.98134e-07 0)
(0.000753116 0.000483363 0)
(0.000474343 0.000348669 5.22576e-22)
(5.03281e-05 0.000500807 3.89873e-22)
(0.000189233 0.000932177 0)
(0.000559528 0.00101647 1.39182e-21)
(0.000684143 0.000700401 2.5323e-22)
(0.000849922 0.000123843 0)
(0.00125977 0.000302433 0)
(0.000761266 0.00123495 0)
(0.000552737 0.00101619 5.94853e-24)
(0.000972268 0.000460038 0)
(0.000180488 0.000606603 0)
(6.80838e-06 4.17309e-05 -5.56543e-23)
(4.46143e-06 2.45954e-05 -4.84967e-22)
(0.000592195 0.00102456 1.99218e-22)
(0.000535013 0.000454944 -7.89338e-22)
(0.000763604 0.00123252 -5.78704e-22)
(0.000597679 0.00103505 0)
(0.000383183 0.000820686 -2.30076e-22)
(0.000762802 0.00123264 1.0514e-21)
(0.000392813 0.00119292 0)
(0.000641505 0.00114768 -9.1479e-22)
(0.000571736 0.000963098 4.01065e-22)
(0.000645373 0.0011488 8.72503e-22)
(0.000570113 0.00100813 -9.15839e-22)
(0.000245134 0.000549835 0)
(0.000529652 0.00100477 2.71702e-22)
(0.00106794 9.9175e-05 1.21636e-22)
(0.000885989 0.000312697 -3.72781e-21)
(0.000545271 0.000975932 0)
(0.000577714 0.0009873 -1.96706e-23)
(0.000923038 7.30465e-05 3.29568e-22)
(3.95155e-06 1.90319e-05 -3.74546e-26)
(0.000537291 0.000890252 -1.4903e-21)
(0.000762951 0.00123269 0)
(0.000503323 0.000967258 8.29581e-23)
(0.000744824 0.00126758 -5.86647e-22)
(0.000368525 0.000716864 0)
(0.000763623 0.0012321 2.93133e-22)
(0.000520875 0.00146299 -4.45894e-23)
(0.000617664 0.000102381 -1.73417e-21)
(0.000823738 6.80474e-05 -6.98739e-22)
(0.000342071 0.000462681 -2.36673e-21)
(0.000451719 0.00112193 1.72565e-22)
(0.000760618 0.00123245 1.28129e-21)
(0.000737686 0.00126407 -4.89842e-22)
(0.000819198 0.000565891 4.41952e-21)
(8.687e-05 9.46724e-05 1.26696e-22)
(0.000562216 0.00101859 0)
(4.2043e-06 2.17318e-05 4.83421e-22)
(0.000271409 0.00086123 -2.96121e-24)
(0.000462195 -5.91053e-05 -9.81608e-22)
(5.05277e-07 2.67188e-05 0)
(0.00034394 -0.000219416 1.08699e-21)
(0.000276145 0.00113406 0)
(0.000759305 0.00123315 1.51902e-21)
(0.000438838 0.000344512 -1.21868e-24)
(0.000685903 0.00114645 5.51296e-22)
(0.000592454 0.00103503 4.03725e-22)
(0.000493956 0.00053449 1.81572e-24)
(0.0004783 0.00075096 -1.21738e-21)
(0.000723949 0.00127894 2.40943e-22)
(0.000762309 0.00123246 -1.23312e-21)
(0.000597749 0.00100043 6.68672e-22)
(0.0004845 0.00034786 -2.00256e-21)
(0.000864837 8.62181e-05 -7.31158e-25)
(0.000106424 0.000121811 -2.22685e-22)
(0.000468987 0.000469653 1.03642e-21)
(0.000552871 0.000992737 1.18699e-21)
(0.000706554 0.00127767 4.05418e-22)
(0.000595444 0.00100275 3.72602e-24)
(3.74383e-06 1.64232e-05 -4.85381e-22)
(0.000780744 0.000175347 0)
(0.000963445 9.39297e-05 -4.6518e-21)
(0.00059158 0.00101037 -2.05267e-22)
(0.000312518 0.000529408 3.24388e-21)
(0.000724319 0.00120466 -1.41923e-21)
(0.00057177 0.00100727 0)
(0.0011232 0.000195965 -3.70433e-21)
(0.000539777 0.000809999 -3.38105e-22)
(0.000755139 0.00123183 1.68281e-21)
(0.000377042 0.00076113 -3.13391e-22)
(0.000182812 0.000414519 1.13592e-21)
(0.000562366 0.000962485 0)
(0.00063669 0.00114933 -6.19199e-22)
(0.000162729 0.000296013 0)
(0.000363795 0.000567304 -1.06177e-21)
(3.57574e-06 1.39166e-05 4.70821e-22)
(0.000444259 0.000899901 -1.29523e-21)
(0.000312942 0.000529358 -1.64161e-21)
(0.000188323 0.000561271 2.28482e-24)
(0.000329939 0.000545164 8.99459e-22)
(0.000437277 0.000835355 2.65851e-22)
(0.000828024 0.000256243 -1.4585e-21)
(0.000381732 6.08882e-05 -2.69254e-21)
(0.000249136 1.33566e-05 -1.05535e-21)
(0.000575989 0.000357074 -3.38507e-22)
(0.000560856 0.00101902 2.75558e-21)
(0.000461234 0.000755747 0)
(0.000462718 -0.000330426 0)
(0.000533227 0.000878412 7.31491e-22)
(0.000188167 2.09806e-06 7.03194e-22)
(0.000204822 5.51044e-06 0)
(0.000563735 0.00101806 -1.33354e-21)
(0.000760469 0.00123211 -1.73153e-22)
(0.000360772 0.000346717 -1.41593e-21)
(0.000194954 0.00070582 0)
(-0.000321469 -3.40329e-05 0)
(0.00027646 0.00027162 2.91932e-21)
(0.000172533 0.000584841 -9.04655e-22)
(0.000160014 1.80244e-05 0)
(0.000431792 0.00077158 0)
(0.000761855 0.00123222 1.24823e-21)
(0.000917688 1.57161e-05 -3.70704e-22)
(0.00076356 0.000102864 2.22211e-21)
(-0.00013882 0.00119934 0)
(0.000240329 0.000461281 7.7742e-21)
(0.000412192 0.00100408 -8.13449e-23)
(0.000562747 0.0010115 -2.02422e-21)
(0.000698334 0.0011992 -3.31688e-21)
(0.000352963 0.000446261 -4.35474e-26)
(0.000222804 0.000475198 -9.49329e-22)
(0.000637352 0.00114814 -1.15977e-21)
(0.000241091 7.02126e-05 4.60497e-22)
(0.000537921 0.000959787 1.46012e-22)
(0.000327888 0.000669246 2.1673e-23)
(0.000432001 0.00119844 -6.22633e-23)
(0.000546524 0.000984989 5.94505e-22)
(0.000993959 0.000204586 1.14379e-21)
(0.000303559 0.000531512 1.29134e-24)
(0.000482026 0.00134782 0)
(0.000988128 6.08161e-05 8.76093e-22)
(0.000687493 0.00114416 6.44022e-22)
(0.000175786 2.80972e-05 2.08803e-22)
(0.000347032 2.5592e-05 -1.0751e-21)
(0.000522568 0.000768573 4.67231e-22)
(8.61519e-05 4.04402e-05 -2.40739e-22)
(0.000559035 0.000560381 1.04377e-21)
(0.000359797 0.000529167 3.03147e-21)
(0.000562452 0.00103406 -6.52178e-24)
(0.000596931 0.00100042 -1.43062e-21)
(-0.000182472 0.000163927 -1.83054e-22)
(0.000758363 0.00123356 -1.54416e-21)
(0.00120092 0.000244676 -7.74173e-22)
(0.000110215 0.000136066 -6.80404e-22)
(0.000951264 -1.21389e-05 1.49985e-21)
(0.000586773 0.00100126 7.06573e-22)
(0.000502637 0.000913656 0)
(0.00104405 0.00021622 -1.35943e-21)
(0.00036719 0.000307571 -2.24297e-21)
(0.000489991 0.000909805 -1.84947e-22)
(0.000289588 0.00113264 0)
(0.000671621 0.000131226 1.46714e-21)
(0.000591851 0.000975159 4.84336e-22)
(0.000689569 0.000489671 4.40892e-21)
(0.000593641 0.00102658 5.26114e-22)
(-0.000393249 0.000167571 3.71045e-22)
(0.00056358 0.00101711 1.26915e-21)
(0.000536912 0.000988995 -1.21421e-21)
(0.000581034 0.000976013 0)
(0.000847729 2.87135e-05 0)
(0.000539998 0.000990768 -1.02445e-23)
(0.000219949 0.000355603 -1.03059e-21)
(0.000802872 0.000227178 -7.1182e-23)
(0.000417705 0.000513268 -1.94453e-21)
(0.000745226 0.00138726 2.4746e-23)
(0.000594793 0.0010101 0)
(0.000548296 0.000985177 1.08284e-21)
(9.29201e-05 0.000172142 -8.73361e-22)
(0.000369108 0.000717053 -7.87841e-23)
(0.000547932 0.00104398 6.83789e-22)
(0.000545306 0.000987552 1.24854e-23)
(0.000156964 0.00025609 -1.24833e-21)
(-1.41639e-05 0.000280012 1.53579e-21)
(2.08217e-05 -2.38959e-07 0)
(0.000803476 0.000572585 -1.37147e-24)
(0.000636148 0.00115054 7.40666e-24)
(6.66823e-07 1.13236e-05 -4.70079e-22)
(0.00160023 0.00037095 1.00445e-21)
(0.000595115 0.000104458 0)
(0.000591873 0.00103211 3.42118e-22)
(0.000590372 0.001015 -6.12522e-22)
(0.00021569 4.75367e-05 -3.42276e-22)
(2.60193e-05 1.50593e-06 1.19104e-21)
(0.000191685 0.00104001 -1.5218e-23)
(0.000500627 0.00092048 1.46315e-21)
(0.000688068 0.00113465 3.51977e-22)
(0.000757653 0.0012317 1.41949e-21)
(0.000766071 0.00124036 1.56724e-21)
(0.000218146 -7.72011e-06 -9.77009e-22)
(0.00018603 0.00060085 -6.36458e-22)
(0.0011599 0.000159489 -5.78731e-22)
(0.000638097 0.00114831 -1.10504e-21)
(0.000453544 0.000904371 -3.06361e-21)
(0.00051783 0.000243101 -5.36066e-22)
(0.00049009 0.000960977 0)
(0.000493642 1.5065e-05 1.60092e-21)
(3.04547e-06 7.00244e-06 -4.23349e-22)
(0.000698016 0.00128459 3.93672e-22)
(0.000760795 0.001232 -1.15274e-21)
(0.000561712 0.00101914 -1.34288e-21)
(0.000908595 0.000294285 0)
(0.000218491 0.000541282 -7.17561e-22)
(2.52024e-05 1.27777e-06 1.65642e-23)
(0.000561302 0.00101683 -3.11215e-22)
(0.000299629 0.00164159 -3.22766e-23)
(0.000223823 0.00131999 0)
(0.000326145 0.000489286 -6.19063e-25)
(0.000322248 0.00117107 -9.05451e-23)
(0.000873988 0.000378042 3.45828e-22)
(0.000516977 0.000562342 2.84805e-25)
(9.17717e-06 9.46219e-05 -5.91537e-23)
(6.41432e-05 4.15423e-05 0)
(0.000686546 0.00114626 1.20479e-21)
(6.12069e-06 3.76239e-05 -1.84449e-24)
(0.00182872 0.000685196 -2.24659e-21)
(9.7588e-05 0.000701395 0)
(0.000152102 0.000264733 -2.15377e-21)
(0.000493219 0.000897331 -4.50408e-21)
(0.000637716 0.00114912 0)
(5.27653e-05 4.40048e-05 1.73614e-21)
(0.000606 0.000992472 0)
(0.000228554 0.000259249 -1.45435e-21)
(0.000935533 0.000183374 -1.11013e-21)
(0.00032199 -6.75205e-05 -1.76021e-21)
(0.000685777 0.00117936 -1.11788e-21)
(0.00109867 0.00017677 0)
(0.000454774 0.000283566 0)
(7.97852e-05 0.000856507 -9.84753e-22)
(0.000659541 -0.000210113 -3.56031e-21)
(0.000623138 0.00119361 3.78027e-22)
(0.000592788 0.00103822 -9.71712e-24)
(0.000548978 0.00100834 0)
(0.000781473 0.000463674 0)
(0.0011655 0.000135308 1.28942e-21)
(0.000661857 0.000302416 -1.57438e-22)
(0.000575421 0.000972247 3.25958e-22)
(0.000740031 0.00122114 0)
(0.000325718 0.000289578 0)
(0.00041534 0.000987918 -1.95129e-21)
(8.04074e-05 3.5902e-05 -8.73097e-22)
(0.000516141 0.000418879 -1.19923e-21)
(0.000666518 0.00118162 -1.23134e-22)
(0.000405067 0.00135053 -1.99682e-22)
(0.00046757 0.00145356 -2.6362e-23)
(0.000549837 0.000418409 8.57519e-22)
(0.00045806 0.00138861 -8.57482e-24)
(0.000424942 0.000458374 -1.59979e-21)
(0.000336093 0.000494309 2.50914e-21)
(1.54123e-05 -4.29075e-06 0)
(0.000907049 0.000704575 -1.10428e-21)
(0.000429388 0.000765614 -3.57863e-22)
(0.000591641 0.00105198 3.26858e-22)
(0.000146778 -2.18905e-05 0)
(8.2474e-06 8.30518e-05 0)
(0.000110178 0.000452047 2.00661e-21)
(0.000568905 0.00103029 4.71884e-22)
(0.000509107 0.00098286 0)
(6.419e-05 2.74135e-05 -1.5248e-21)
(0.000164255 0.000625422 -5.92427e-22)
(0.000596672 0.00100456 7.60564e-22)
(0.00128182 0.000229788 -1.26713e-21)
(0.000382468 0.000374425 0)
(0.000853528 0.000162126 -2.61459e-21)
(0.00019026 0.000229528 -1.5717e-21)
(0.000928347 0.000641932 1.59977e-21)
(0.00074039 0.000448692 -2.19276e-22)
(0.00053591 0.000883483 -8.5677e-24)
(0.000416862 0.000993855 1.93511e-21)
(0.00014708 0.000783918 -3.00698e-23)
(0.000598912 0.00101298 -1.18472e-23)
(0.000531185 0.000997396 -2.0899e-23)
(0.000319604 0.00127927 -1.55522e-22)
(9.30163e-05 4.48143e-05 1.12857e-21)
(0.000543221 0.00102656 -4.37207e-22)
(0.000251571 0.000340201 -1.81636e-21)
(0.000932828 3.29549e-05 -7.15881e-22)
(0.000172787 0.0011256 -2.04999e-23)
(0.000185292 0.00086255 -2.9764e-24)
(0.000466383 0.000333236 -1.1434e-21)
(1.75638e-05 2.41982e-06 -2.49945e-22)
(0.000573786 0.000964612 -7.77802e-22)
(0.000149567 -9.41459e-06 -9.21436e-22)
(0.000594538 0.00103155 1.3776e-22)
(-0.000323175 0.00122893 -1.33127e-21)
(0.000566239 0.000969807 5.589e-22)
(0.000593644 0.00102558 3.72559e-22)
(0.000592515 0.00103452 -1.38364e-22)
(0.000227623 0.000118164 -1.70849e-21)
(0.00046383 0.000802217 6.28326e-22)
(0.000406715 0.000694598 0)
(0.00025201 3.27815e-05 6.4251e-22)
(0.000940924 3.92533e-05 0)
(0.000637 0.00114885 -7.80219e-22)
(0.000534918 0.00088155 7.02096e-22)
(0.000722597 0.000590876 1.28019e-21)
(0.000491072 0.000910992 -1.2416e-21)
(0.000210281 0.000639218 1.58741e-21)
(0.00125962 0.000165144 0)
(0.00029242 0.000198713 0)
(0.00106463 0.000493364 -8.8844e-23)
(0.000387081 0.000854427 1.832e-21)
(0.000451452 0.000778554 -4.20991e-21)
(0.000631766 0.00100829 -3.80837e-22)
(0.000758055 0.00123285 -1.39374e-21)
(0.000779719 0.000507375 1.1669e-21)
(0.000484672 0.000961231 0)
(0.000684464 0.00112487 0)
(0.000323982 0.000272034 -1.19433e-21)
(0.000222435 0.000700587 -9.48621e-22)
(0.000796259 0.000339976 2.2593e-21)
(1.51718e-05 -6.77604e-06 2.95402e-22)
(7.06366e-05 3.3705e-05 8.41654e-22)
(0.000547663 0.000974872 -1.27615e-23)
(0.000134089 -2.30425e-05 5.32668e-22)
(0.000397446 0.000334573 1.08543e-21)
(-0.000146129 0.000182106 0)
(1.54402e-05 0.00030566 1.31068e-22)
(5.83584e-05 4.48142e-05 0)
(0.00068196 0.00112279 0)
(0.000632134 0.000497265 4.40485e-22)
(0.000566554 0.000971337 -5.39346e-22)
(0.000200081 0.000173445 -3.63817e-21)
(0.000682967 0.00112162 1.32082e-21)
(0.00067709 0.0012526 -8.92729e-23)
(0.000618867 0.00102084 8.14984e-22)
(0.000639386 0.000366866 0)
(0.000614053 0.00121424 1.63423e-22)
(0.000559644 0.000962633 0)
(0.000694393 0.00129482 -4.89852e-22)
(0.000562095 0.0010185 2.60183e-21)
(9.83886e-05 0.000260207 7.70043e-25)
(0.000703015 0.00127898 1.51695e-21)
(0.000943618 0.000106566 0)
(4.00329e-05 0.000389333 -4.80262e-22)
(0.000496476 0.000568492 6.03803e-22)
(0.000550403 0.000973514 1.38284e-21)
(0.00030758 0.000905222 -7.16138e-21)
(-0.000516268 0.000885009 2.51451e-22)
(3.85548e-05 6.03854e-05 -1.79181e-21)
(0.000588576 0.00102516 -2.13386e-22)
(0.000472068 0.000889112 3.97129e-21)
(0.00064193 0.00117267 -3.37261e-22)
(0.000722356 0.00129147 -1.50124e-21)
(0.000547151 0.000986973 1.06282e-21)
(0.000944338 8.81831e-05 -9.1649e-22)
(0.000594112 0.00103017 1.5013e-22)
(0.000208677 0.000139791 2.79512e-21)
(0.000641737 0.00115755 5.39246e-22)
(0.000528242 0.000869465 1.77334e-21)
(0.000151157 0.000571094 1.24093e-21)
(0.000695636 0.00127327 1.48173e-21)
(0.000638819 0.00106751 -4.55486e-23)
(0.000544781 0.000990563 1.02742e-22)
(0.000949384 0.000116316 0)
(4.82113e-05 0.000580079 -4.53435e-22)
(0.000469323 0.000954994 1.56087e-21)
(0.000609359 0.000981717 7.72361e-24)
(0.00059121 0.000349963 -4.99773e-21)
(0.00113847 8.07838e-05 0)
(0.000615152 0.00118615 -4.25577e-22)
(0.000176933 -0.000122263 1.38667e-21)
(0.000952768 6.29571e-05 0)
(0.000663835 0.00116816 -5.9735e-22)
(0.00100513 -0.00015656 -2.52132e-21)
(9.99028e-05 4.98769e-05 -4.44911e-22)
(0.00108659 0.000346648 2.27576e-25)
(4.16732e-05 0.000423587 1.54549e-22)
(0.000693312 0.00127032 0)
(0.000963752 0.000334186 8.74678e-22)
(0.000689397 0.000242645 0)
(0.000327204 0.000459267 0)
(0.000419362 0.000355023 0)
(9.29403e-05 -3.89477e-05 -2.08854e-21)
(0.00063473 0.00114898 -8.40149e-22)
(0.00129277 0.000553489 -4.06443e-21)
(0.000757816 0.00129195 4.48295e-22)
(0.000297063 0.000152825 -4.99686e-22)
(0.000452237 0.000955137 -1.35734e-21)
(0.000118435 -4.15593e-05 0)
(0.00103996 0.000176379 6.76594e-22)
(0.000827506 0.000535358 3.15213e-22)
(3.34901e-05 5.11086e-05 9.96864e-22)
(0.000673269 0.00112227 3.31756e-22)
(0.000160162 0.00107431 0)
(0.000309707 0.00134473 6.91973e-23)
(0.000804605 0.00136804 -1.40394e-21)
(0.000692475 0.00126834 1.4388e-21)
(0.000606082 0.00100994 0)
(0.00042586 0.000761535 1.10102e-21)
(2.08987e-05 0.000312595 5.87646e-22)
(0.000178083 -0.000101267 1.75076e-21)
(0.000540602 0.000990489 -1.29637e-21)
(0.000812651 0.00106601 9.27202e-22)
(0.000630847 0.000704281 -3.1131e-22)
(0.000686055 0.00114402 7.87556e-22)
(0.000704663 0.00129134 -1.4233e-21)
(9.79308e-05 -4.61654e-05 2.0676e-21)
(0.000638672 0.00114807 -4.22635e-24)
(0.000485614 0.000907109 0)
(0.000659348 0.000396797 5.91374e-22)
(5.71702e-05 4.97609e-05 0)
(0.00106542 9.66738e-06 8.15006e-22)
(0.000462874 0.000747298 1.255e-21)
(0.000220484 0.000428824 1.14241e-22)
(0.000610766 9.63982e-05 -2.33298e-23)
(0.000363302 0.000510646 -3.61114e-21)
(0.00133286 0.000302487 2.65338e-22)
(0.000973695 0.000207617 -1.02845e-22)
(0.000519371 0.000536702 3.14141e-21)
(0.000504088 0.00101278 0)
(0.000372934 0.000615321 -4.75995e-22)
(0.000375469 0.000861216 0)
(0.000358159 0.00112783 1.11153e-21)
(0.000776751 0.00125846 9.98158e-22)
(0.000781304 0.0005977 1.27395e-21)
(0.000401453 0.00119247 -7.2711e-23)
(0.000418963 0.000327796 0)
(0.000215012 0.000221053 0)
(0.000146836 -9.70044e-05 -1.71102e-22)
(0.000180154 0.000364129 6.44088e-22)
(0.000262382 0.000613863 -3.46847e-22)
(0.000162159 0.000594455 0)
(0.00073698 0.0013072 -6.24665e-24)
(0.000554447 0.000974992 0)
(0.000536279 0.000988751 -1.05518e-21)
(0.000520868 0.000914749 6.11988e-22)
(0.000222075 0.000571364 -8.44962e-22)
(0.000636489 0.00114796 -9.68591e-22)
(0.000424306 0.000806355 1.49221e-21)
(0.000926961 7.4519e-05 1.16351e-21)
(0.00019304 4.50559e-05 1.9288e-22)
(2.19072e-05 2.33784e-06 -4.47451e-22)
(0.000127611 -0.00018876 0)
(0.00031408 0.000535105 1.07741e-21)
(9.31222e-05 0.000601134 1.77578e-21)
(0.000540777 0.000144782 2.44693e-21)
(0.00042693 0.000302148 0)
(0.000171651 0.000317587 2.89902e-21)
(0.000684306 0.00112096 -1.65537e-22)
(0.000530347 0.000875338 2.44476e-21)
(0.000755902 0.00133345 5.97275e-24)
(0.000332657 0.000203225 0)
(0.000218982 1.53973e-05 2.41306e-22)
(0.000565389 0.000361711 0)
(0.000592751 0.00104391 -2.36528e-22)
(0.000194994 4.53558e-05 0)
(0.000425965 0.000524803 2.03846e-22)
(0.001011 0.000378823 1.00668e-22)
(0.000573426 0.000975239 -6.42302e-22)
(0.000663987 0.00117532 9.44866e-23)
(0.000361965 0.000562718 -1.24174e-21)
(0.000462019 0.000887094 1.03184e-21)
(0.000419464 0.00077694 -8.79267e-22)
(0.000220545 0.000553269 -1.22226e-21)
(0.000171998 3.68392e-06 0)
(0.000115863 0.000657448 1.64374e-21)
(0.000497328 0.000949388 0)
(0.000849402 0.00027821 1.85122e-21)
(0.000334559 0.000469289 1.46114e-21)
(0.000757994 0.00123103 -1.46825e-21)
(2.29288e-05 3.17377e-05 1.24921e-22)
(0.00052995 0.00100666 -2.65944e-22)
(0.000130452 -3.92325e-05 -1.01954e-22)
(0.000478292 0.000898705 -1.60258e-22)
(0.000763939 0.000582694 0)
(0.000961695 -5.45268e-05 -1.09775e-22)
(0.000670203 0.00115608 -3.03141e-22)
(0.000804482 -0.000361873 1.21516e-23)
(0.000786279 5.8788e-05 2.3312e-21)
(0.00118757 0.000620727 -2.37024e-21)
(0.000535984 0.000984129 0)
(0.0004319 0.000775281 -1.1944e-21)
(0.000757125 0.00123136 -1.67837e-21)
(0.000524198 0.000870107 8.82412e-24)
(0.000468664 0.000686443 1.32968e-21)
(6.2897e-05 0.000579006 5.43673e-21)
(0.000949436 0.000277221 3.83269e-22)
(0.000189471 0.000242008 0)
(0.000669245 0.00115845 -1.44175e-21)
(0.000336859 0.000147762 0)
(0.000202082 0.00047907 6.37563e-22)
(0.000676029 0.001128 3.14136e-22)
(0.00104088 6.70729e-05 -5.05693e-22)
(0.000421231 0.000895994 2.4237e-21)
(0.000607704 0.00103215 2.63447e-22)
(0.000393995 -7.13625e-05 -8.70981e-22)
(0.000171387 9.85849e-05 5.38654e-22)
(2.73467e-05 0.000245751 -1.51338e-21)
(6.70481e-05 0.00103388 1.50977e-21)
(0.000149038 1.45339e-06 -8.62271e-22)
(0.000530152 0.000871967 -8.56799e-22)
(0.000143547 7.71931e-05 -5.00479e-22)
(0.000620518 0.00109638 -7.93249e-23)
(0.000287015 0.000348269 -6.91355e-22)
(0.000456086 0.00116918 0)
(0.000226784 -5.517e-05 -2.068e-21)
(0.000921734 -8.7183e-06 5.32022e-22)
(0.000563655 0.00101623 2.49453e-21)
(0.0001671 5.87658e-05 -2.50144e-21)
(0.000705689 0.00128671 -1.50498e-21)
(0.00107941 2.44676e-05 -1.05938e-21)
(0.000276695 0.000163601 2.49788e-22)
(0.000489164 9.23914e-05 0)
(0.000594314 0.00100863 1.25668e-21)
(0.000564295 0.00099593 3.74301e-22)
(0.000145295 0.000640765 4.41853e-22)
(0.000812799 0.000553975 0)
(0.00072259 0.00058976 3.16572e-21)
(0.000100306 -1.16553e-05 -9.45786e-22)
(0.00137679 0.000353026 -3.05273e-22)
(0.000645089 -3.21402e-05 -1.68077e-21)
(0.00118727 0.000252229 6.03831e-22)
(0.000642052 0.00116991 0)
(0.000267739 0.000556533 0)
(0.000621209 0.00109666 1.12119e-22)
(0.000636696 0.00114998 6.64331e-22)
(0.0005978 0.00120408 -2.9325e-22)
(0.000934629 0.00127644 1.33619e-21)
(0.000560951 0.00122845 1.3727e-21)
(0.000633306 0.000338548 7.70324e-22)
(0.000522072 0.00102134 0)
(0.000554952 0.00105629 -3.4777e-23)
(0.000462478 1.96079e-05 5.9932e-22)
(0.000761519 0.0005277 -2.23091e-22)
(0.000181409 6.80726e-05 2.69848e-25)
(0.000238999 -0.000184359 1.83218e-21)
(0.000220539 0.000610264 6.3159e-22)
(0.000180747 0.000431296 1.08266e-21)
(0.000279608 0.000463476 2.62958e-21)
(0.000347355 0.000559382 -1.67018e-21)
(0.000315228 0.000565391 -5.7783e-22)
(0.000190512 0.000653368 -1.04836e-21)
(9.84911e-05 -1.74825e-05 -2.91047e-25)
(5.91991e-05 0.000657905 -2.93138e-21)
(0.000372567 0.00115373 0)
(0.000648294 0.00109248 0)
(0.000706396 0.000559282 0)
(0.000569863 0.000476421 2.2365e-21)
(0.000662197 0.0011545 5.15201e-22)
(0.000815408 0.00051955 3.45647e-21)
(0.00104021 0.00033599 0)
(0.000297913 0.000335801 3.47751e-22)
(0.00017829 0.000621905 7.96271e-22)
(0.000566602 0.000971136 1.05721e-21)
(4.49472e-05 3.48741e-05 0)
(0.000899486 2.38047e-05 -1.60466e-21)
(0.000144455 0.000405532 8.92691e-22)
(0.000777901 0.000535151 -4.35767e-22)
(0.000315652 0.000530165 3.9699e-22)
(0.000346556 0.000353968 1.74871e-21)
(0.000577973 0.00106433 0)
(6.33928e-05 2.91249e-05 2.3604e-22)
(0.000145717 -7.98522e-05 -2.13117e-22)
(0.000682383 0.00129602 3.9591e-22)
(0.000626939 0.00108578 -6.83267e-22)
(0.000576235 0.000962464 4.79451e-22)
(0.000608599 0.00108594 5.34455e-22)
(0.000970373 1.12476e-05 -3.12275e-22)
(0.000218054 0.00061278 0)
(0.000384961 8.31306e-05 -1.98623e-21)
(0.000755685 0.00122929 0)
(0.000981738 0.000114828 0)
(0.000651629 0.00116847 -2.11647e-22)
(0.00034578 0.000834342 -1.514e-21)
(0.000699987 0.00131102 -8.82283e-23)
(6.92282e-07 9.12188e-06 -4.68795e-22)
(0.000333839 0.000475065 -1.85122e-21)
(0.000100231 -1.13367e-06 -2.52752e-21)
(0.000619487 0.00110439 2.0592e-22)
(0.000177264 0.000478741 -6.63516e-22)
(0.000152977 0.00051662 9.16344e-22)
(0.000729277 1.87015e-05 1.67341e-21)
(0.000527532 0.00102062 0)
(0.00100236 0.000315802 5.93775e-22)
(0.000717491 0.000969912 1.16227e-22)
(0.000305655 0.000489016 1.26854e-21)
(0.000116645 -4.91678e-05 -2.92777e-23)
(0.000490419 5.30716e-05 3.35106e-24)
(0.000329496 0.00037269 -3.36557e-21)
(0.000313936 0.000454225 1.50669e-21)
(9.67255e-05 8.14196e-06 -1.1599e-21)
(0.000244063 0.000401871 -3.20766e-21)
(0.000766637 0.0012252 -1.9788e-21)
(0.000635878 0.00114828 1.65779e-21)
(0.000343431 0.000528585 -1.21013e-21)
(0.000636569 0.0011497 -6.66657e-22)
(0.000709503 0.000204733 -7.26664e-22)
(0.000279811 -0.000154106 -3.13737e-21)
(0.000314272 0.000530211 -2.30167e-21)
(0.000679596 0.00112316 1.25539e-21)
(0.00122126 0.000200504 -1.18245e-22)
(0.000685173 0.00114603 5.23077e-22)
(0.000176739 0.000137699 -1.18518e-21)
(0.000564194 0.000925727 7.04683e-22)
(0.000610723 0.00108605 -1.66099e-22)