/*--------------------------------*- C++ -*----------------------------------*\
  =========                 |
  \\      /  F ield         | OpenFOAM: The Open Source CFD Toolbox
   \\    /   O peration     | Website:  https://openfoam.org
    \\  /    A nd           | Version:  8
     \\/     M anipulation  |
\*---------------------------------------------------------------------------*/
FoamFile
{
    version     2.0;
    format      ascii;
    class       volVectorField;
    location    "6.4";
    object      U;
}
// * * * * * * * * * * * * * * * * * * * * * * * * * * * * * * * * * * * * * //

dimensions      [0 1 -1 0 0 0 0];

internalField   nonuniform List<vector> 
7843
(
(0.000736661 0.00132659 -2.30438e-22)
(0.000550234 0.000987507 1.07408e-21)
(0.000554885 0.00100975 0)
(0.000980543 1.65717e-05 6.57744e-22)
(0.000696437 0.00122317 -2.88303e-22)
(0.00100371 2.85991e-05 -7.82322e-23)
(0.00057479 0.000536757 -2.29274e-21)
(0.000591708 0.00103797 0)
(0.000217218 9.5872e-05 3.15281e-21)
(0.000553696 0.000975021 0)
(0.000577439 0.00102299 8.54109e-22)
(0.000743525 0.00131847 0)
(0.000317022 5.41885e-05 0)
(0.000573628 0.00103254 0)
(0.00057871 0.000986075 1.43524e-21)
(0.000359863 0.000624184 8.71201e-22)
(0.000575273 0.00102094 2.67679e-24)
(0.000580904 0.000977986 0)
(8.76573e-06 8.9229e-05 9.40516e-22)
(0.000253144 0.000381645 0)
(0.000205909 0.000142193 2.71154e-21)
(0.000411462 0.000445532 -4.53096e-22)
(0.000578985 0.00102708 2.35303e-24)
(8.31703e-05 0.000870412 -1.26401e-22)
(0.000751895 0.00122645 -5.38553e-22)
(1.7473e-05 -5.44226e-06 0)
(0.000575055 0.0013689 -3.96947e-23)
(5.81382e-05 0.000380092 2.7328e-21)
(0.000657202 0.00120206 -1.12143e-22)
(0.00101441 1.10759e-05 -7.47091e-22)
(0.000884402 0.00015959 -9.64785e-22)
(0.000558034 0.00103357 3.11078e-22)
(0.000813835 -9.4313e-05 9.00102e-22)
(0.000605406 0.00104752 1.21872e-22)
(0.000545516 0.000973408 8.30315e-22)
(0.00080298 0.00125407 -1.93788e-21)
(0.00057879 0.000976794 -6.19366e-22)
(0.000930544 0.000346146 6.43768e-25)
(0.000998724 4.90464e-05 -1.01207e-22)
(0.000509252 0.00093806 9.04886e-22)
(0.000578746 0.000985612 -1.63975e-23)
(0.000611521 0.00108491 -9.97342e-22)
(0.000732867 0.00125092 0)
(0.000555169 0.000985725 -2.16335e-21)
(0.000224071 7.84581e-05 -9.54741e-22)
(0.000189464 0.000461348 6.29168e-22)
(0.000577936 0.00103086 9.12339e-22)
(0.000207918 0.000586371 1.26754e-21)
(0.000594817 0.00105224 1.13181e-21)
(1.07065e-05 3.30535e-05 2.48447e-23)
(0.000354191 4.38701e-05 -9.02474e-22)
(0.000558528 0.000983007 1.16701e-23)
(0.000588244 0.0010461 0)
(0.000770867 0.000532115 8.07529e-22)
(0.000675778 0.00117133 -2.15769e-22)
(7.3494e-06 8.40865e-05 0)
(0.000368085 0.000448184 2.41408e-21)
(0.000557666 9.50173e-05 9.23974e-22)
(0.000734396 0.00128805 -3.56903e-24)
(9.81968e-05 0.000170655 -1.23648e-21)
(0.000731031 0.00125293 3.57652e-22)
(0.00103733 0.000450252 8.50794e-23)
(7.04013e-05 0.000555582 -4.24437e-21)
(0.000824147 0.000118104 -1.64988e-21)
(0.000658909 0.00128195 7.45469e-24)
(0.000741966 0.0013357 -5.84191e-22)
(0.00074508 0.00124313 0)
(1.01461e-05 6.70623e-05 0)
(0.00057081 0.000528269 0)
(0.000731137 0.00125292 0)
(0.000360777 -0.000136372 -8.82785e-22)
(0.000571019 0.000993162 9.12717e-22)
(0.000215002 0.00116407 1.72369e-23)
(9.95738e-05 0.000164583 8.08102e-22)
(0.00034354 -9.55655e-05 -8.01746e-22)
(0.000437111 0.000801132 7.30451e-22)
(0.000734557 0.00124944 2.86888e-22)
(0.000731053 0.00125231 -1.2145e-22)
(0.000612256 0.00108269 0)
(0.000916364 7.41424e-05 0)
(0.000469487 -2.38821e-05 -1.25882e-21)
(0.000669324 0.00122094 0)
(0.000571151 0.00103423 -1.06602e-21)
(0.00069855 0.000321228 1.9757e-21)
(0.00045765 0.000788488 -5.84569e-22)
(0.000603539 0.00104559 -5.9848e-22)
(0.000457263 0.000357498 0)
(0.000731878 0.00126329 -7.73149e-23)
(0.000833603 0.000306326 -1.51873e-21)
(0.000217161 0.000461069 9.17493e-22)
(0.000191389 0.000173003 -5.15243e-21)
(0.000592942 0.00100761 -5.09363e-22)
(1.45314e-05 5.0104e-05 8.4764e-26)
(0.000858478 0.000130873 2.87142e-21)
(0.000522019 0.000344427 0)
(0.000766545 0.00133841 8.9492e-22)
(2.31874e-05 6.89584e-05 -2.00637e-21)
(0.000393725 0.000996137 -2.17953e-23)
(0.000413973 3.23973e-05 1.37111e-21)
(0.000445535 0.000826262 -7.39149e-22)
(0.000433971 0.00109812 0)
(0.000547986 0.00121312 1.57277e-22)
(0.000375128 0.000402391 0)
(0.000703504 0.00145676 0)
(0.000201284 0.000204288 -1.31356e-21)
(0.000142925 0.00110122 -1.11738e-21)
(8.46546e-06 4.83405e-05 1.82345e-22)
(0.000352485 -0.000182761 -8.96496e-22)
(0.000446634 0.000887567 -7.33364e-22)
(0.000560282 0.000973065 0)
(0.000684739 0.00124515 1.34604e-23)
(0.000590059 0.000576331 -8.17322e-22)
(0.00106648 0.000409616 7.91151e-23)
(0.000613686 0.00104019 -6.76932e-22)
(0.000169372 0.000313684 -2.49272e-21)
(0.00072252 0.00130446 -6.14289e-22)
(0.000831333 0.000273434 1.93172e-24)
(0.000757073 0.00132846 9.72514e-23)
(0.000190203 0.000210317 0)
(0.000592859 0.00100346 1.63393e-21)
(0.000696157 0.00122402 5.36945e-22)
(0.000687198 0.00121284 1.02652e-22)
(0.000551518 0.00100083 -8.92669e-22)
(0.000674176 0.00114262 2.30079e-22)
(0.000496029 3.27734e-05 -1.15187e-21)
(0.000375365 0.000505369 0)
(0.000618819 0.00103615 0)
(0.000183528 0.000876969 -2.05039e-21)
(0.00053111 0.000740209 -9.38746e-23)
(0.000997919 3.72018e-05 0)
(0.000593319 0.00100678 5.14337e-22)
(0.000178552 0.00037905 4.77936e-22)
(0.000355235 0.000181104 1.6561e-21)
(0.000685875 0.00119236 -5.7811e-22)
(0.000519436 0.00098499 -2.36375e-21)
(0.00057553 0.000973485 -9.25669e-22)
(0.000989529 3.7957e-05 4.93572e-23)
(0.00030976 0.000726415 -1.82453e-23)
(0.000579109 0.000981188 -5.57553e-24)
(0.000732581 0.00125828 2.44956e-22)
(0.000477016 7.24303e-05 -9.8188e-22)
(0.000578822 0.000840636 1.17971e-21)
(0.000711574 0.000243696 6.07808e-23)
(0.00096176 -0.000234754 1.22264e-21)
(1.40561e-05 5.2564e-05 1.00371e-25)
(0.000778885 -3.04297e-05 7.16394e-22)
(0.000615108 0.0010967 -1.05982e-21)
(0.000495742 0.000965972 -1.7552e-23)
(0.000703513 0.00085902 1.51243e-21)
(8.47316e-05 0.000856666 1.15651e-21)
(0.000598699 0.00103939 8.75616e-24)
(0.000539441 0.000565933 -9.46726e-22)
(0.000781071 0.000175052 9.16935e-22)
(0.000590934 0.00100019 0)
(0.000746189 0.00124265 8.20462e-22)
(0.000571069 0.00100772 -9.10349e-22)
(4.70317e-05 0.000300336 -1.6175e-21)
(0.000196848 0.00038879 -6.62679e-22)
(0.000569541 0.00101942 2.25484e-21)
(0.000576929 0.000995481 0)
(0.000342916 0.000110854 1.96774e-21)
(0.000572158 0.00100643 -1.84354e-21)
(0.00132416 0.00038993 5.9425e-23)
(0.0005728 0.00100783 -7.90204e-24)
(0.000576571 0.00102181 -1.10587e-21)
(0.000589003 0.00104207 -3.80089e-22)
(0.000706372 0.00030012 -1.15711e-21)
(0.000295402 0.00130298 0)
(0.000608732 0.00104961 -2.33803e-22)
(0.000573507 0.00101181 9.59145e-22)
(0.000588117 0.00105733 0)
(0.000575757 0.00101978 1.07257e-21)
(0.000573596 0.001014 -3.95283e-24)
(0.000129915 0.000320043 -2.55486e-21)
(0.000574945 0.00101668 -1.02902e-21)
(0.000326987 9.82535e-05 -6.59651e-26)
(0.000456998 0.000833834 0)
(0.00023357 2.44529e-05 1.06865e-22)
(0.000444364 0.000817921 8.57207e-22)
(0.000749154 0.00131548 -3.39279e-22)
(0.000468272 0.000802702 2.55785e-22)
(0.000607125 0.00104641 -5.25625e-23)
(3.8353e-05 0.000237546 -1.43278e-26)
(0.000563376 0.00101628 0)
(0.000555906 0.00098047 9.06828e-22)
(0.000415264 0.000565716 -4.02388e-23)
(8.53861e-06 4.48192e-05 2.31674e-23)
(0.000554553 0.000584109 8.94835e-22)
(0.000442065 0.000741737 0)
(0.000219329 0.000466487 0)
(0.000572502 0.000987673 -4.32307e-22)
(0.000357599 0.000631168 1.02023e-21)
(0.000882116 8.33969e-05 8.51911e-22)
(0.000326365 7.0401e-05 0)
(0.000555455 0.000999386 -9.78054e-22)
(9.95352e-05 0.00011176 2.93189e-22)
(2.31354e-05 -1.25759e-06 0)
(0.000256832 0.000347832 2.83211e-21)
(0.00073203 0.00125729 -8.91695e-23)
(0.000472344 0.000944433 1.19882e-21)
(0.000560515 0.000979841 2.17569e-21)
(0.000733787 0.00127209 1.28765e-22)
(0.000591499 0.00100918 9.89571e-22)
(0.00070264 0.00120085 3.60131e-22)
(0.000465348 0.00088634 8.14709e-23)
(9.41744e-05 0.000102983 -4.01422e-22)
(0.000740359 0.001315 9.16487e-23)
(1.3855e-05 0.000167727 3.18108e-22)
(1.49229e-05 -7.75127e-06 -5.98305e-22)
(0.000591742 0.0010028 -5.52821e-22)
(0.000800365 0.000755726 0)
(0.000560435 0.000976668 -1.10711e-21)
(0.000233388 0.000460084 7.46921e-22)
(0.000734453 0.0012496 3.54183e-22)
(0.00074684 0.00124147 2.26092e-22)
(0.000455633 0.00092488 2.44934e-21)
(0.000723327 0.000224498 -2.0695e-22)
(0.000688344 0.00121461 0)
(2.48962e-06 8.11963e-07 0)
(0.000764533 0.000496655 0)
(0.00047899 0.00034975 4.21624e-22)
(4.4252e-05 0.000502839 3.15326e-22)
(0.000270525 0.00102279 0)
(0.000574916 0.00102199 1.10336e-21)
(0.000695615 0.000708078 2.03263e-22)
(0.000868916 0.000123052 0)
(0.00124553 0.000300288 0)
(0.000742923 0.00124451 0)
(0.000571525 0.00102175 5.36936e-24)
(0.000991412 0.000468067 0)
(0.000194704 0.000612437 0)
(6.89925e-06 4.13866e-05 -4.50103e-23)
(4.07058e-06 2.42201e-05 -3.92155e-22)
(0.000619204 0.00107254 1.54619e-22)
(0.000540193 0.000458971 -6.36237e-22)
(0.000746741 0.00124085 -4.43077e-22)
(0.000629523 0.00108559 0)
(0.000381516 0.000851344 -1.85214e-22)
(0.000746091 0.00124283 7.97891e-22)
(0.00047227 0.00122729 0)
(0.000649787 0.00115747 -6.99927e-22)
(0.000568597 0.000966432 3.16383e-22)
(0.00065089 0.00116099 6.67034e-22)
(0.000570623 0.000993886 -7.18793e-22)
(0.00025142 0.000551891 0)
(0.000444851 0.000819119 2.06874e-22)
(0.0010212 8.47134e-05 9.59529e-23)
(0.000907143 0.000316553 -2.96615e-21)
(0.000551338 0.000969281 0)
(0.000600482 0.00103554 -1.61429e-23)
(0.00094744 5.72478e-05 2.61194e-22)
(3.60597e-06 1.8702e-05 -3.32971e-26)
(0.000443037 0.000745114 -1.14329e-21)
(0.000745153 0.00123934 0)
(0.000418348 0.000777761 6.38553e-23)
(0.000780586 0.00133854 -4.40116e-22)
(0.000370291 0.000729989 0)
(0.000746072 0.00123972 2.24226e-22)
(0.00062731 0.0014563 -2.5519e-23)
(0.000614703 9.02904e-05 -1.3946e-21)
(0.000820774 7.42279e-05 -5.57796e-22)
(0.00034573 0.000463948 -1.91134e-21)
(0.000501774 0.00116221 1.11207e-22)
(0.000742463 0.00123712 9.82991e-22)
(0.000764814 0.00132359 -3.68327e-22)
(0.000835063 0.000561801 3.52851e-21)
(8.70194e-05 9.45959e-05 1.02472e-22)
(0.000576162 0.0010206 0)
(3.83271e-06 2.1378e-05 3.90896e-22)
(0.000267664 0.000877812 -2.39131e-24)
(0.000465583 -6.49373e-05 -7.92325e-22)
(5.73349e-07 2.43747e-05 0)
(0.00034133 -0.000229378 8.76422e-22)
(0.000215165 0.001188 0)
(0.000739676 0.00123632 1.16782e-21)
(0.000437212 0.000350443 -1.01168e-24)
(0.000706044 0.0012009 4.24766e-22)
(0.00062456 0.00108591 3.15346e-22)
(0.00051507 0.000540182 1.43651e-24)
(0.00038788 0.000630892 -9.66818e-22)
(0.0007547 0.00132918 1.65786e-22)
(0.000744297 0.00123822 -9.43925e-22)
(0.000593343 0.00100477 5.29097e-22)
(0.000490572 0.000340524 -1.61449e-21)
(0.000872673 9.39562e-05 6.35562e-26)
(0.000106592 0.000121892 -1.8013e-22)
(0.000482597 0.000480116 8.3607e-22)
(0.000596095 0.00104705 9.4348e-22)
(0.000741918 0.00132884 2.73579e-22)
(0.00059036 0.000999598 2.59071e-24)
(3.42838e-06 1.6121e-05 -3.92478e-22)
(0.000801131 0.000173736 0)
(0.000933993 0.000108693 -3.69365e-21)
(0.000598228 0.00102272 -1.61628e-22)
(0.000316448 0.00053719 2.62511e-21)
(0.000676528 0.00117075 -1.05931e-21)
(0.000567514 0.000989159 0)
(0.00114651 0.00019552 -2.92436e-21)
(0.000559546 0.000836668 -2.71857e-22)
(0.000737798 0.00124119 1.29772e-21)
(0.000377507 0.000780318 -2.52618e-22)
(0.000178569 0.0004221 9.18811e-22)
(0.000560716 0.000965128 0)
(0.000649835 0.0011526 -4.79957e-22)
(0.000156674 0.00029543 0)
(0.000366106 0.000569187 -8.58374e-22)
(3.27441e-06 1.36384e-05 3.807e-22)
(0.000449435 0.000910506 -1.03763e-21)
(0.000321252 0.000528095 -1.32639e-21)
(0.000200887 0.000565799 1.67556e-24)
(0.000328821 0.000550192 7.26857e-22)
(0.000452707 0.000860184 2.14079e-22)
(0.000838295 0.000255861 -1.16507e-21)
(0.000390033 6.49179e-05 -2.17279e-21)
(0.000249528 1.07065e-05 -8.52544e-22)
(0.000572118 0.000348064 -2.72832e-22)
(0.000576137 0.00102131 2.1873e-21)
(0.000370668 0.000631568 0)
(0.000464331 -0.000354542 0)
(0.000435373 0.000729599 5.69011e-22)
(0.000186284 -3.07199e-07 5.68334e-22)
(0.000204509 4.49259e-06 0)
(0.000575086 0.00101791 -1.05471e-21)
(0.000741927 0.00123645 -1.33397e-22)
(0.000370754 0.000325946 -1.14516e-21)
(0.000193871 0.000720019 0)
(-0.000284574 -1.13713e-05 0)
(0.000265392 0.000275882 2.3599e-21)
(0.000187257 0.000599615 -7.30634e-22)
(0.000159501 1.74571e-05 0)
(0.000366821 0.000645913 0)
(0.000743389 0.00123759 9.5661e-22)
(0.000969039 4.00713e-05 -2.91831e-22)
(0.000759346 8.48636e-05 1.77701e-21)
(-0.000177415 0.00116737 0)
(0.000239985 0.000459162 6.28669e-21)
(0.000480806 0.00106953 -6.01755e-23)
(0.000561726 0.000987722 -1.59184e-21)
(0.000677543 0.00116633 -2.61112e-21)
(0.00035677 0.000448695 1.37917e-25)
(0.000223595 0.00048636 -7.67436e-22)
(0.000650266 0.00115265 -8.96248e-22)
(0.000237254 6.28066e-05 3.72167e-22)
(0.000553866 0.00100506 1.09685e-22)
(0.000328836 0.000677776 1.75112e-23)
(0.000531793 0.00129272 -4.11454e-23)
(0.000589036 0.00104324 4.67354e-22)
(0.00100715 0.00020603 9.06913e-22)
(0.000309322 0.000534697 1.03773e-24)
(0.000560189 0.00129407 0)
(0.00096966 4.31496e-05 6.99408e-22)
(0.000706939 0.00119922 4.98203e-22)
(0.000174989 2.51841e-05 1.68765e-22)
(0.000349472 2.23664e-05 -8.68169e-22)
(0.00042163 0.000667044 3.74619e-22)
(8.5772e-05 4.00659e-05 -1.94649e-22)
(0.000575407 0.000562447 8.41247e-22)
(0.000353898 0.000540146 2.4488e-21)
(0.000606882 0.0010789 -4.84833e-24)
(0.000591307 0.00100139 -1.13571e-21)
(-0.000185695 0.000171236 -1.48039e-22)
(0.000739034 0.00123578 -1.18782e-21)
(0.00121733 0.000259281 -6.09379e-22)
(6.791e-05 0.000141788 -5.47281e-22)
(0.000961572 -1.0021e-05 1.19291e-21)
(0.00060286 0.00104946 5.53728e-22)
(0.000426913 0.000729611 0)
(0.00106423 0.000200293 -1.07752e-21)
(0.000370551 0.000308606 -1.81123e-21)
(0.000413315 0.000746831 -1.44795e-22)
(0.000178192 0.00103975 0)
(0.000565568 8.35086e-05 1.1811e-21)
(0.000615459 0.00103732 3.76604e-22)
(0.00072161 0.00048488 3.52849e-21)
(0.000621972 0.00107482 4.05869e-22)
(-0.000357735 0.000165415 2.98022e-22)
(0.000573814 0.00101522 1.00058e-21)
(0.000550575 0.000978342 -9.64535e-22)
(0.000606013 0.00103133 0)
(0.000918101 2.19751e-05 0)
(0.000560379 0.00099553 -6.47542e-24)
(0.000222623 0.000360424 -8.34142e-22)
(0.000697293 0.000140817 -6.1037e-23)
(0.000430056 0.000511686 -1.56932e-21)
(0.000730823 0.00136652 1.24862e-23)
(0.000601649 0.00103271 0)
(0.000560955 0.000992169 8.59898e-22)
(9.49219e-05 0.000179873 -7.06459e-22)
(0.000374413 0.000741997 -5.30424e-23)
(0.000489257 0.000859114 5.17227e-22)
(0.000552769 0.000979698 8.60066e-24)
(0.000159352 0.000260934 -1.00984e-21)
(-6.15816e-06 0.000286882 1.24273e-21)
(2.11031e-05 -8.49572e-07 0)
(0.00081376 0.000572554 -1.56079e-24)
(0.000648978 0.00115301 6.73665e-24)
(6.46816e-07 1.02391e-05 -3.80113e-22)
(0.00158995 0.000357274 7.81312e-22)
(0.000639936 0.000108145 0)
(0.000624102 0.00108362 2.63875e-22)
(0.000597144 0.00102001 -4.81902e-22)
(0.000216765 4.76248e-05 -2.76646e-22)
(2.52941e-05 1.4161e-06 9.62818e-22)
(0.000268397 0.00110892 -1.18878e-23)
(0.000413951 0.00073871 1.13956e-21)
(0.000684192 0.00114854 2.75633e-22)
(0.000738639 0.00123511 1.0927e-21)
(0.000768087 0.00132823 1.21173e-21)
(0.000217508 -9.63662e-06 -7.89624e-22)
(0.000186725 0.000607175 -5.14944e-22)
(0.00116322 0.000139113 -4.56431e-22)
(0.000650791 0.00115366 -8.53217e-22)
(0.000472407 0.000935571 -2.45742e-21)
(0.000514621 0.000256192 -4.32345e-22)
(0.000502761 0.00101909 0)
(0.000500603 2.52868e-05 1.28925e-21)
(2.80542e-06 6.8008e-06 -3.42307e-22)
(0.000731039 0.00134825 3.0422e-22)
(0.000741091 0.00123628 -8.85942e-22)
(0.000574854 0.00101895 -1.06342e-21)
(0.000912954 0.000280396 0)
(0.000216479 0.000554972 -5.79944e-22)
(2.47337e-05 9.84238e-07 1.33902e-23)
(0.000612385 0.00107558 -2.46737e-22)
(0.000448815 0.0016444 -2.47343e-23)
(0.000338694 0.00135281 0)
(0.000333292 0.000482892 -3.16009e-25)
(0.000423249 0.00121744 -5.37296e-23)
(0.000840478 0.000327325 2.76306e-22)
(0.000511166 0.000569624 3.17e-25)
(8.75413e-06 9.37423e-05 -4.78479e-23)
(6.3039e-05 4.22988e-05 0)
(0.000706427 0.00120033 9.31321e-22)
(5.58697e-06 3.71706e-05 -1.49164e-24)
(0.00178689 0.000594023 -1.73654e-21)
(9.2308e-05 0.000704459 0)
(0.000151789 0.000265851 -1.74304e-21)
(0.000441104 0.000771769 -3.58349e-21)
(0.000648993 0.00115082 0)
(5.34839e-05 4.35572e-05 1.404e-21)
(0.000624944 0.00106008 0)
(0.000228487 0.000261581 -1.17613e-21)
(0.000962649 0.000193034 -8.80972e-22)
(0.000317598 -6.1639e-05 -1.42192e-21)
(0.000676699 0.00121357 -8.77823e-22)
(0.00111 0.000181338 0)
(0.000475396 0.00026496 0)
(0.00010482 0.000909635 -7.90776e-22)
(0.000676312 -0.000214869 -2.85347e-21)
(0.000666672 0.00125662 2.97658e-22)
(0.000620407 0.00108262 -8.20998e-24)
(0.000588244 0.00104971 0)
(0.000774329 0.000487179 0)
(0.00116656 0.000132571 1.01643e-21)
(0.000624823 0.000279004 -1.25744e-22)
(0.00057917 0.000984372 2.55892e-22)
(0.000751754 0.00124849 0)
(0.000328847 0.000290911 0)
(0.000421768 0.00100661 -1.56221e-21)
(8.00175e-05 3.56805e-05 -7.05969e-22)
(0.000521708 0.000416071 -9.66656e-22)
(0.000669105 0.00120978 -8.65798e-23)
(0.000478163 0.00133384 -1.03395e-22)
(0.000529602 0.0014495 -1.54134e-23)
(0.000553022 0.000420145 6.91191e-22)
(0.000563699 0.00141756 -5.60614e-24)
(0.00043536 0.000468067 -1.29086e-21)
(0.000343187 0.000508692 2.02778e-21)
(1.51059e-05 -4.07998e-06 0)
(0.000924563 0.000718244 -8.76912e-22)
(0.000361668 0.000633222 -2.82719e-22)
(0.000619479 0.00109274 2.39104e-22)
(0.000145945 -2.29014e-05 0)
(8.04033e-06 8.16333e-05 0)
(0.000113772 0.000450023 1.62298e-21)
(0.000573482 0.00103124 3.75948e-22)
(0.000536679 0.00104603 0)
(6.46874e-05 2.7893e-05 -1.23307e-21)
(0.000167247 0.000629679 -4.78663e-22)
(0.000591502 0.000997974 6.02701e-22)
(0.00128126 0.000233922 -9.94155e-22)
(0.000385895 0.000379215 0)
(0.000845792 0.000164691 -2.08637e-21)
(0.00019312 0.000232726 -1.27078e-21)
(0.00094464 0.000648745 1.27065e-21)
(0.000763696 0.000459529 -1.75382e-22)
(0.000439599 0.000735624 -6.44258e-24)
(0.000425818 0.00105628 1.54986e-21)
(0.000221142 0.000886215 -2.63116e-23)
(0.000580438 0.00100063 -8.1342e-24)
(0.000548419 0.00099645 -1.63686e-23)
(0.000261525 0.00133892 -1.23182e-22)
(9.26513e-05 4.44198e-05 9.12493e-22)
(0.000562357 0.00103011 -3.48161e-22)
(0.000240413 0.000334611 -1.46886e-21)
(0.000949098 3.50279e-05 -5.67007e-22)
(0.000276629 0.00121249 -1.41052e-23)
(0.000230817 0.000945752 -2.55233e-24)
(0.000459058 0.000325669 -9.22673e-22)
(1.72242e-05 2.13677e-06 -2.02084e-22)
(0.000572052 0.000969348 -6.12456e-22)
(0.000149252 -1.08054e-05 -7.44537e-22)
(0.000621742 0.00107829 1.04739e-22)
(-0.000350896 0.00116585 -1.0653e-21)
(0.000573074 0.000982483 4.37388e-22)
(0.000621818 0.00107418 2.89306e-22)
(0.000620879 0.00107994 -1.05202e-22)
(0.000228047 0.000119176 -1.38093e-21)
(0.000370049 0.000651416 5.12223e-22)
(0.000320646 0.000592435 0)
(0.000252438 3.18523e-05 5.19095e-22)
(0.000950278 3.45174e-05 0)
(0.000647844 0.00114991 -6.0742e-22)
(0.000438077 0.000733696 5.45338e-22)
(0.000766673 0.000596895 1.02432e-21)
(0.00041672 0.000745721 -9.76126e-22)
(0.000217191 0.000633611 1.28189e-21)
(0.00115307 3.27716e-05 0)
(0.000306361 0.000196478 0)
(0.00107468 0.000486813 -7.03427e-23)
(0.000405363 0.00090657 1.4717e-21)
(0.000490502 0.000794743 -3.38512e-21)
(0.000635771 0.00107274 -3.0153e-22)
(0.00073875 0.00123512 -1.07041e-21)
(0.000770057 0.000480713 9.30862e-22)
(0.000494283 0.000991925 0)
(0.000675469 0.00113859 0)
(0.000327298 0.000273221 -9.64994e-22)
(0.00022812 0.000706235 -7.65357e-22)
(0.000812143 0.000346029 1.80525e-21)
(1.43621e-05 -6.46836e-06 2.38759e-22)
(7.03111e-05 3.30686e-05 6.8055e-22)
(0.000554329 0.00096832 -8.15032e-24)
(0.000133212 -2.373e-05 4.30433e-22)
(0.000407424 0.000339487 8.76205e-22)
(-0.000138116 0.000158 0)
(1.59975e-05 0.00027987 1.06129e-22)
(5.94249e-05 4.29057e-05 0)
(0.000673124 0.00113464 0)
(0.000629362 0.000487328 3.52431e-22)
(0.000572911 0.000980669 -4.20984e-22)
(0.000197711 0.000173822 -2.94181e-21)
(0.000672708 0.00113349 1.04103e-21)
(0.000676621 0.00125037 -5.87034e-23)
(0.000620673 0.000994057 6.44636e-22)
(0.000689526 0.000367592 0)
(0.000668772 0.00124852 1.14704e-22)
(0.000560692 0.000970722 0)
(0.000738228 0.00133843 -3.70359e-22)
(0.000573785 0.001016 2.05712e-21)
(9.93951e-05 0.000263558 1.37462e-24)
(0.000695339 0.00125089 1.17233e-21)
(0.000947281 0.000114838 0)
(3.79865e-05 0.000389294 -3.89056e-22)
(0.000506291 0.000562025 4.86838e-22)
(0.000557739 0.0009693 1.09736e-21)
(0.000346417 0.000948114 -5.74645e-21)
(-0.000499447 0.000813544 2.00844e-22)
(3.79503e-05 6.01572e-05 -1.44915e-21)
(0.000616198 0.00107083 -1.67031e-22)
(0.0004696 0.00093449 3.1921e-21)
(0.000681617 0.00121505 -2.66426e-22)
(0.000688042 0.00125146 -1.16173e-21)
(0.000561414 0.000989129 8.4376e-22)
(0.000966334 7.96036e-05 -7.2401e-22)
(0.000621452 0.00107709 1.14058e-22)
(0.000211285 0.000138657 2.26e-21)
(0.000666358 0.00117879 4.09814e-22)
(0.000427943 0.000717562 1.38526e-21)
(0.000167968 0.000581691 1.00281e-21)
(0.000697676 0.00125136 1.1449e-21)
(0.000547885 0.000932476 -3.45844e-23)
(0.00058244 0.0010436 7.42587e-23)
(0.000961831 7.42304e-05 0)
(3.69234e-05 0.000543091 -3.66007e-22)
(0.00036323 0.000783781 1.2002e-21)
(0.000619947 0.0010354 5.765e-24)
(0.000619144 0.000357362 -4.01562e-21)
(0.0011335 9.07288e-05 0)
(0.000657366 0.0012402 -3.01816e-22)
(0.000175664 -0.000123854 1.12013e-21)
(0.000942098 8.38777e-05 0)
(0.000695792 0.00121115 -4.40149e-22)
(0.00100595 -0.000140961 -1.99997e-21)
(9.96385e-05 4.94838e-05 -3.59729e-22)
(0.00109753 0.000343984 1.56021e-25)
(4.1109e-05 0.00043066 1.25082e-22)
(0.000699041 0.00125068 0)
(0.000970655 0.000331767 6.94183e-22)
(0.000697506 0.000243088 0)
(0.000325808 0.000466515 0)
(0.000433263 0.000346229 0)
(9.27561e-05 -3.84553e-05 -1.68773e-21)
(0.000646413 0.00114918 -6.56039e-22)
(0.00128821 0.00054278 -3.19525e-21)
(0.000780123 0.00133732 3.36954e-22)
(0.000304191 0.000165937 -4.03613e-22)
(0.000498139 0.00100272 -1.08911e-21)
(0.000117223 -4.19405e-05 0)
(0.00105523 0.000186042 5.35608e-22)
(0.00083044 0.000541167 2.51702e-22)
(3.30222e-05 5.07656e-05 8.06163e-22)
(0.00070158 0.00119412 2.52423e-22)
(0.000245883 0.00115598 0)
(0.000395286 0.00142389 4.6951e-23)
(0.000680561 0.00131646 -1.04822e-21)
(0.000699512 0.00124961 1.11063e-21)
(0.000625976 0.00106901 0)
(0.000356893 0.00062635 8.70155e-22)
(1.93288e-05 0.000316881 4.75741e-22)
(0.000175334 -0.000104797 1.41408e-21)
(0.00055997 0.0009929 -1.03363e-21)
(0.000845413 0.00110811 7.38878e-22)
(0.00063822 0.000714578 -2.50179e-22)
(0.000705781 0.00119951 6.13277e-22)
(0.000745343 0.00133146 -1.09696e-21)
(9.67319e-05 -4.6682e-05 1.67071e-21)
(0.000647638 0.00114695 -2.89938e-24)
(0.000408941 0.000745438 0)
(0.000653777 0.000385016 4.76489e-22)
(5.66813e-05 4.96926e-05 0)
(0.00102647 -2.93893e-06 6.50417e-22)
(0.000373939 0.000623617 9.96062e-22)
(0.000228104 0.000421216 9.23374e-23)
(0.000543039 9.89511e-05 -1.87703e-23)
(0.000368408 0.0005124 -2.9158e-21)
(0.00134409 0.000269008 2.06899e-22)
(0.000976794 0.000193594 -8.16576e-23)
(0.000514707 0.000554655 2.53313e-21)
(0.000498355 0.00108085 0)
(0.000377586 0.000622493 -3.8452e-22)
(0.000343224 0.000905507 0)
(0.000333818 0.00116053 8.87804e-22)
(0.000789731 0.00131931 7.55285e-22)
(0.000786463 0.000601153 1.01667e-21)
(0.000496355 0.00126723 -5.2417e-23)
(0.000420759 0.000323215 0)
(0.000196859 0.000188637 0)
(0.000147215 -9.91397e-05 -1.38178e-22)
(0.000177524 0.000364959 5.21391e-22)
(0.000265254 0.000615202 -2.80442e-22)
(0.000168236 0.000623346 0)
(0.000676822 0.00126001 -1.14048e-23)
(0.000553838 0.000978975 0)
(0.000553887 0.00100215 -8.38253e-22)
(0.000422031 0.000765457 4.41596e-22)
(0.000207925 0.0005663 -6.83163e-22)
(0.000645334 0.00114548 -7.59209e-22)
(0.000413387 0.000840808 1.20046e-21)
(0.000936741 8.83288e-05 9.23189e-22)
(0.000193865 4.28328e-05 1.55917e-22)
(2.14068e-05 2.01999e-06 -3.61763e-22)
(0.000122217 -0.000187507 0)
(0.000317225 0.000548781 8.70259e-22)
(7.20661e-05 0.000578991 1.43257e-21)
(0.000447569 9.96034e-05 1.96483e-21)
(0.000438149 0.00030022 0)
(0.000169414 0.000324626 2.34539e-21)
(0.000673051 0.00113171 -1.30356e-22)
(0.000432231 0.000723788 1.90579e-21)
(0.000668901 0.00127882 5.08181e-24)
(0.000334531 0.000200286 0)
(0.000218491 1.38973e-05 1.94983e-22)
(0.000572934 0.00038351 0)
(0.00062025 0.00108674 -1.74225e-22)
(0.000194367 4.68779e-05 0)
(0.000432386 0.000534378 1.64269e-22)
(0.0010228 0.000376675 7.98273e-23)
(0.000578296 0.000987531 -5.04947e-22)
(0.00070114 0.00121828 7.15725e-23)
(0.000373935 0.000569331 -1.00303e-21)
(0.000479587 0.000951358 8.26833e-22)
(0.000358995 0.000639026 -6.94642e-22)
(0.000222352 0.00055898 -9.88922e-22)
(0.000172595 3.92636e-06 0)
(0.000100937 0.000652716 1.32782e-21)
(0.000539441 0.00101889 0)
(0.000857261 0.000279547 1.47763e-21)
(0.000328045 0.000482777 1.18067e-21)
(0.000737868 0.00123671 -1.13087e-21)
(2.25546e-05 3.14231e-05 1.01017e-22)
(0.000445622 0.000821799 -2.02312e-22)
(0.00012942 -4.02501e-05 -8.23861e-23)
(0.000399946 0.000733372 -1.26082e-22)
(0.000771406 0.000573234 0)
(0.000973565 -5.31653e-05 -8.71196e-23)
(0.000701468 0.00121533 -2.27087e-22)
(0.000851333 -0.000358751 9.43488e-24)
(0.000765343 9.25244e-05 1.86583e-21)
(0.00119946 0.000628517 -1.86564e-21)
(0.000553738 0.000988499 0)
(0.000363642 0.000651915 -9.37489e-22)
(0.000737437 0.00123825 -1.29475e-21)
(0.000425834 0.000715908 6.57673e-24)
(0.000504002 0.000681152 1.07063e-21)
(5.85223e-05 0.000563718 4.39466e-21)
(0.000959041 0.000275631 3.04182e-22)
(0.000192358 0.000245306 0)
(0.000622349 0.00102117 -1.08277e-21)
(0.000300784 0.000142019 0)
(0.0002066 0.000474382 5.15476e-22)
(0.000670869 0.00113534 2.31851e-22)
(0.00100073 6.25261e-05 -4.03187e-22)
(0.000430014 0.000938783 1.94353e-21)
(0.000632409 0.00108697 2.07475e-22)
(0.00039355 -7.49663e-05 -7.02552e-22)
(0.000167456 9.2965e-05 4.35569e-22)
(1.09056e-05 0.000225216 -1.22521e-21)
(2.66742e-05 0.00103825 1.20956e-21)
(0.000148681 8.49986e-07 -6.96826e-22)
(0.000430613 0.000720788 -6.68718e-22)
(0.000144816 7.69071e-05 -4.04733e-22)
(0.000620088 0.00109825 -5.4406e-23)
(0.000294498 0.000356087 -5.58879e-22)
(0.000518807 0.00119709 0)
(0.000240706 -5.99259e-05 -1.67114e-21)
(0.000886776 -1.17502e-05 4.21816e-22)
(0.000573096 0.00101302 1.96761e-21)
(0.000172367 5.58519e-05 -2.02168e-21)
(0.000690986 0.00125068 -1.16307e-21)
(0.00107593 5.39732e-06 -8.36517e-22)
(0.000282226 0.000162295 2.01761e-22)
(0.000513485 9.56795e-05 0)
(0.00062599 0.00107002 9.83334e-22)
(0.000466022 0.000818999 2.77261e-22)
(0.000171448 0.00064552 3.56839e-22)
(0.000815232 0.000538681 0)
(0.000732163 0.000588301 2.53747e-21)
(9.88526e-05 -1.22474e-05 -7.64743e-22)
(0.00138649 0.000334079 -2.38212e-22)
(0.000573766 5.75349e-06 -1.34039e-21)
(0.00120062 0.000244739 4.74976e-22)
(0.000681017 0.00121378 0)
(0.000277667 0.000558338 0)
(0.000649807 0.00114023 8.21747e-23)
(0.000649394 0.00115287 5.14788e-22)
(0.00064294 0.00121958 -2.0882e-22)
(0.000871029 0.00137643 1.02626e-21)
(0.000468005 0.00126892 1.08488e-21)
(0.000641932 0.000337345 6.1897e-22)
(0.000548471 0.00108302 0)
(0.00059216 0.00111973 -2.44054e-23)
(0.000422858 2.94564e-05 4.82969e-22)
(0.000760452 0.000524359 -1.78274e-22)
(0.00017992 6.74417e-05 5.15214e-26)
(0.000236614 -0.000192259 1.47894e-21)
(0.000236877 0.000624321 5.10774e-22)
(0.00017412 0.000423811 8.76186e-22)
(0.000291569 0.000464583 2.12557e-21)
(0.000339342 0.00055367 -1.35079e-21)
(0.000311254 0.000571045 -4.67253e-22)
(0.000184364 0.000647008 -8.46768e-22)
(0.000100264 -1.78432e-05 2.84487e-25)
(4.99573e-05 0.000631062 -2.36331e-21)
(0.00044176 0.00119837 0)
(0.000631695 0.00115587 0)
(0.000702069 0.000549279 0)
(0.000571386 0.000460522 1.80548e-21)
(0.000693179 0.00121067 3.93945e-22)
(0.000803627 0.000537878 2.76679e-21)
(0.00104845 0.00033665 0)
(0.000301591 0.000336825 2.80942e-22)
(0.000168357 0.000613487 6.44627e-22)
(0.000571971 0.000978668 8.22201e-22)
(4.49205e-05 3.47304e-05 0)
(0.000907568 2.98212e-05 -1.27628e-21)
(0.000136576 0.000401981 7.22905e-22)
(0.000797969 0.000544218 -3.48319e-22)
(0.000329997 0.000536155 3.20769e-22)
(0.000351554 0.000370421 1.41283e-21)
(0.000610288 0.00112402 0)
(6.29697e-05 2.83037e-05 1.90831e-22)
(0.000143788 -8.18081e-05 -1.72121e-22)
(0.000719628 0.00134824 3.06435e-22)
(0.000652483 0.00113249 -5.08501e-22)
(0.000578005 0.00099323 3.76195e-22)
(0.000645854 0.00114037 3.981e-22)
(0.000973261 3.06722e-07 -2.47447e-22)
(0.000219021 0.00062527 0)
(0.000388077 6.88275e-05 -1.60337e-21)
(0.000739284 0.00125409 0)
(0.000990509 0.000115638 0)
(0.000652312 0.0011682 -1.50339e-22)
(0.000365248 0.000877925 -1.21662e-21)
(0.000739751 0.00136131 -5.89153e-23)
(6.64487e-07 8.22159e-06 -3.79069e-22)
(0.000315182 0.000477119 -1.49543e-21)
(0.000100339 -2.2772e-06 -2.0429e-21)
(0.000648266 0.00114648 1.49437e-22)
(0.000176197 0.000481635 -5.36792e-22)
(0.000177156 0.000527926 7.40191e-22)
(0.000734778 3.5022e-05 1.33972e-21)
(0.000504881 0.00107608 0)
(0.00101129 0.000312297 4.70807e-22)
(0.000711115 0.00101038 9.20719e-23)
(0.000312394 0.000505834 1.02478e-21)
(0.000115602 -4.99986e-05 -2.36536e-23)
(0.000521155 4.34311e-05 9.87986e-25)
(0.000337318 0.000383437 -2.71884e-21)
(0.000317682 0.000453556 1.21698e-21)
(9.87586e-05 6.75542e-06 -9.37723e-22)
(0.000246339 0.000376341 -2.59469e-21)
(0.000751924 0.00132329 -1.53269e-21)
(0.000646754 0.00114898 1.29176e-21)
(0.000341949 0.000527028 -9.7798e-22)
(0.000649642 0.0011526 -5.17777e-22)
(0.000705121 0.000211921 -5.82432e-22)
(0.000274085 -0.000159205 -2.53203e-21)
(0.000330407 0.00051806 -1.86241e-21)
(0.0006703 0.00113188 9.8782e-22)
(0.00123081 0.00018288 -9.06673e-23)
(0.000705462 0.00120073 4.01829e-22)
(0.000177658 0.000135795 -9.58298e-22)
(0.000564221 0.000971885 5.60934e-22)
(0.000647605 0.00113879 -1.26733e-22)