/*--------------------------------*- C++ -*----------------------------------*\
  =========                 |
  \\      /  F ield         | OpenFOAM: The Open Source CFD Toolbox
   \\    /   O peration     | Website:  https://openfoam.org
    \\  /    A nd           | Version:  7
     \\/     M anipulation  |
\*---------------------------------------------------------------------------*/
FoamFile
{
    version     2.0;
    format      ascii;
    class       volScalarField;
    location    "1.5";
    object      p;
}
// * * * * * * * * * * * * * * * * * * * * * * * * * * * * * * * * * * * * * //

dimensions      [0 2 -2 0 0 0 0];

internalField   nonuniform List<scalar> 
591
(
0.000144449
0.000144418
0.000144806
0.0001441
0.000144179
0.000145718
0.000144553
0.000144645
0.000136832
0.000144389
0.000144542
0.00014305
0.000145283
0.000139094
0.000144551
0.000144354
0.000143933
0.000144568
0.000143031
0.000144398
0.000144345
4.15208e-06
0.000144491
0.000144115
0.000144401
0.000144466
0.000144205
0.000144318
0.000144188
0.000144585
0.000144435
0.000144395
0.000144433
0.000144439
0.000144434
0.000144341
0.000144424
0.000144448
0.000144455
0.000144333
0.000144231
0.000144419
0.000144415
0.000144623
0.000144415
0.000144443
0.000139682
0.00014445
0.000144556
0.00014445
0.000144296
0.000144362
4.25252e-05
5.04059e-05
7.06763e-05
0.00014467
0.000144453
0.00014439
0.000144444
0.000144253
0.000144285
0.000144251
0.000144358
0.00014607
0.000142579
0.000144449
0.000144698
0.000144453
0.000140185
0.000144659
0.000144285
0.000144454
0.000144328
0.000144414
0.000144412
0.000144395
0.000144393
0.000144449
0.000144198
0.000144205
0.000144148
0.000144455
0.000144435
0.000144296
0.000144421
0.000144471
0.000144291
0.000144432
0.000144436
0.00014415
0.00014443
0.000144257
0.00014429
0.000144329
0.00014444
0.000144336
0.000144124
0.000143917
0.000143883
0.000144382
0.000144468
0.000144464
0.000144353
0.000144106
0.000144346
0.000144654
0.000144534
0.000144331
0.000144521
0.00014441
0.00014457
0.000144343
0.000144314
0.000144428
0.000144395
0.00014466
0.000144288
0.000144448
0.000143805
0.000144243
0.000144492
0.000145687
0.000144488
0.00014403
0.000144421
0.000140891
0.000144376
0.00014437
0.000144132
0.000144403
0.000144363
0.00014406
0.000144628
0.000144325
0.000144438
0.000144539
0.000144247
0.000144374
0.000144405
0.000143794
0.000143952
0.000144283
0.000144382
0.000144456
0.000144459
1.78297e-05
1.19752e-05
9.36003e-06
5.38773e-05
5.1639e-05
1.56719e-05
5.69564e-05
2.81539e-05
5.82541e-05
3.0414e-05
0.000144403
0.000144539
0.000144437
0.000144449
0.00014445
0.000144441
0.000144446
0.000144443
0.000144403
0.000144429
0.000144333
0.00014446
0.000144447
0.000144442
0.000144274
0.000143564
0.000144476
0.000141984
0.000144356
0.000144424
0.000144294
0.00014437
0.000144419
0.000144439
0.000144396
0.000143741
0.000142343
0.000143066
0.000143616
0.000144442
0.000144443
0.000144485
0.000144286
0.000144427
0.000142984
0.000143545
0.000144362
0.000144477
0.000144099
0.000144405
0.000144381
0.00014432
0.000143933
0.000144266
0.000144375
0.000144484
0.000144383
0.000143957
0.000144329
0.000144164
0.00014443
0.000144411
0.000144458
0.000144433
0.000143994
0.000144278
0.000144554
0.000143694
0.000144339
0.000143887
0.000144263
0.000144216
0.000144362
0.000143585
0.00014426
0.000144593
0.0001444
0.000144365
0.000144161
0.000144264
0.000144249
0.000144141
0.000144284
0.000144446
0.000144162
0.000144425
0.000144164
0.000144377
0.000144297
0.000144264
0.000144415
0.000144022
0.000144451
0.000144166
0.000144098
0.000144559
0.000144411
0.000144273
0.000144502
0.00014387
0.000144421
0.000144251
0.000144388
0.000144432
0.000143941
0.000144351
0.00014335
0.000144803
0.000143101
0.000143321
0.000144419
0.000144071
0.00014457
0.000144582
0.00014421
0.000144418
0.000144238
0.000144405
0.000144269
0.000144301
0.00014433
0.000144332
0.000143989
0.000144428
0.000144044
0.000143798
0.000144385
0.000144434
0.000143845
0.000144457
0.000144264
0.000144323
0.000144411
0.000144557
0.000144266
0.000143901
0.000144468
0.000144778
0.000144277
0.000144266
0.00014441
0.000144419
0.000144456
0.000144263
0.000144281
0.000144401
0.000144451
0.000144441
0.000144439
0.000144465
0.000144251
0.000144363
0.000143714
0.000144456
0.000144234
0.000144394
0.000144612
0.000144367
2.31382e-05
3.60225e-05
0.000144149
0.000144426
0.000144427
0.000144096
0.000144425
0.00014432
0.000144452
0.000144415
0.00014396
0.000144397
0.000144398
0.000144407
0.000144512
6.8727e-08
0.000143832
0.000144407
0.00014439
0.0001442
0.000144192
0.000144186
0.000144404
0.000144175
0.000144452
0.000144279
0.000144659
0.000144373
0.00014412
0.000144176
0.00014441
0.000144397
6.94111e-05
0.0001444
0.000144391
0.000144363
0.000144458
0.00014431
0.000144373
0.000144327
0.000144169
0.000144425
0.000145973
0.000144056
0.000144234
0.000144234
0.000144476
0.000144239
0.000144321
0.000144435
0.000144326
3.41355e-05
4.13208e-05
4.96992e-05
2.02001e-05
0.000144007
4.96317e-05
4.20708e-05
0.000144435
3.07502e-05
2.73698e-05
5.85e-05
2.11808e-05
6.23638e-05
1.88383e-05
6.55474e-05
1.62587e-05
6.80555e-05
1.45232e-05
5.91094e-05
3.50784e-05
4.3151e-05
2.5411e-05
0.00014397
0.000144457
0.000144267
0.000144341
0.000141054
0.000145745
0.00014445
0.000144414
0.000144145
0.000144457
0.000144386
0.000144417
0.000144417
0.000144207
0.000143879
0.000144443
0.00014436
0.000144229
0.000143992
0.00014444
0.000143481
0.000144374
0.000144461
0.000144412
0.000144109
0.00014449
0.000144095
0.000144314
0.000144139
0.000143437
0.00014442
0.000144432
0.000144485
0.000144234
0.000144218
0.000144161
0.000144335
0.000144096
4.58851e-05
4.0112e-05
5.31229e-05
2.64231e-05
0.000144499
0.000144211
3.76405e-05
4.8247e-05
5.56713e-05
2.34055e-05
0.00014445
0.000144388
0.000144364
0.000144291
0.000145842
0.000144274
0.000144065
0.000144416
0.000144201
0.000143364
0.000144342
0.000144306
7.83387e-05
0.000143386
0.000144461
0.000144453
0.000144156
0.000144438
0.000144448
0.000144386
0.000144104
0.000144109
0.000144368
0.000143978
0.000144381
0.000143207
0.000144154
0.000144374
0.00014429
0.000119036
0.000144134
0.000143636
0.00014411
0.000144479
0.000144169
2.00019e-05
3.29381e-05
5.22227e-05
4.41168e-05
3.02113e-05
7.0344e-06
6.5169e-05
9.37578e-06
6.24399e-05
1.17157e-05
6.01073e-05
1.42423e-05
5.76372e-05
1.69561e-05
5.49212e-05
2.63737e-05
4.63734e-05
4.63825e-05
3.82695e-05
3.89804e-05
3.42071e-05
2.2739e-05
3.22048e-05
0.000144454
0.00012511
0.000144044
0.000144155
0.000144453
0.000144323
0.000144453
0.000144176
0.00014604
0.000144419
0.000144417
0.000145949
0.000144011
0.000145687
0.000144037
0.000144355
0.000144119
0.000144466
0.000144071
0.000143867
0.000143905
0.000145686
0.000145791
0.000144454
0.000144458
0.000144427
0.000144391
0.000144443
0.000143921
0.00014433
0.000144468
0.000143929
0.000146027
0.00014441
0.000144107
0.000144009
0.000144416
0.000144422
0.000143772
0.000141044
0.000143289
0.000143913
0.000144073
0.000144124
0.000145978
0.000144464
0.000144326
0.000144796
0.000143911
0.000144167
0.00014445
0.000144413
0.000144314
0.000144358
0.000143793
7.78218e-05
6.16411e-05
0.000144356
0.00014438
0.000143616
0.000143153
0.000144473
0.000143705
0.000143607
0.000146038
0.000144239
0.000144373
0.000144107
0.00014455
0.000139167
7.40386e-05
0.000144603
9.87488e-05
1.2646e-05
3.87454e-06
0.00014443
0.00014431
0.000144411
0.000144464
0.000144498
0.000144468
0.0001444
0.000144379
3.33382e-06
0.000143257
0.000144544
0.000144371
0.00014193
0.000144461
0.000144461
0.000142702
0.000144543
0.000144416
0.000142078
0.00014441
9.63277e-05
0.000144457
0.000143868
0.000144381
0.000142734
0.000144035
0.000143812
0.000144723
0.000144419
0.000144387
0.000144462
0.000144508
0.000144258
0.000136163
)
;

boundaryField
{
    back
    {
        type            empty;
    }
    ingreso
    {
        type            zeroGradient;
    }
    salida
    {
        type            fixedValue;
        value           uniform 0;
    }
    front
    {
        type            empty;
    }
    defaultFaces
    {
        type            zeroGradient;
    }
}


// ************************************************************************* //
