/*--------------------------------*- C++ -*----------------------------------*\
  =========                 |
  \\      /  F ield         | OpenFOAM: The Open Source CFD Toolbox
   \\    /   O peration     | Website:  https://openfoam.org
    \\  /    A nd           | Version:  7
     \\/     M anipulation  |
\*---------------------------------------------------------------------------*/
FoamFile
{
    version     2.0;
    format      ascii;
    class       volVectorField;
    location    "1.5";
    object      U;
}
// * * * * * * * * * * * * * * * * * * * * * * * * * * * * * * * * * * * * * //

dimensions      [0 1 -1 0 0 0 0];

internalField   nonuniform List<vector> 
591
(
(0.000831712 -3.34895e-05 1.40236e-18)
(0.00071983 -5.50825e-05 -7.61257e-19)
(0.000825566 -3.21826e-05 6.5639e-20)
(0.000822542 1.4409e-05 -1.71471e-19)
(0.000819799 1.84534e-05 2.59916e-19)
(0.000480647 -8.87097e-07 -1.6276e-19)
(0.000477843 -0.000322743 9.30375e-19)
(0.000793057 -2.27104e-05 2.43004e-18)
(0.00522505 0.00242785 1.14111e-18)
(0.000792816 -2.47675e-05 2.74242e-18)
(7.76528e-05 0.000180556 1.41179e-18)
(0.000857841 0.00124646 1.09489e-20)
(0.000711444 1.7568e-05 1.51265e-18)
(0.00183815 0.00281882 -9.02206e-19)
(0.000776152 7.97752e-05 -5.13248e-19)
(0.000202906 -0.000246351 2.23635e-22)
(0.000138106 0.000644982 8.17836e-19)
(0.000900911 6.12025e-05 -5.74257e-19)
(0.00203397 0.000536872 5.54232e-19)
(0.00128062 0.000304991 -2.91956e-19)
(0.00076429 4.60031e-05 4.26053e-19)
(0.00552982 0.00705199 1.29429e-19)
(4.54826e-05 8.46668e-05 3.14985e-19)
(0.000814935 -2.80854e-05 -5.15837e-19)
(2.07597e-05 -2.87076e-05 4.17547e-19)
(0.000882731 3.14791e-05 0)
(9.9502e-05 0.000464989 1.85933e-19)
(0.000500949 3.57465e-05 -2.08148e-19)
(0.000677212 9.19789e-05 1.30285e-18)
(0.000820014 -0.000121232 6.77593e-19)
(7.19146e-05 2.30665e-06 -5.09052e-24)
(5.45056e-05 -5.87635e-05 4.09985e-19)
(5.04332e-05 -5.95243e-06 -5.40083e-20)
(6.23584e-05 -4.01154e-06 0)
(6.51652e-05 -2.00832e-05 1.3143e-18)
(0.00113848 0.000179396 2.12071e-19)
(4.56718e-05 -8.95022e-06 5.20601e-20)
(0.000797607 -5.90567e-06 3.30535e-22)
(4.52867e-05 5.81686e-05 3.09278e-19)
(8.73885e-05 -0.000163305 -9.9405e-19)
(0.000498413 -0.000153168 1.11541e-18)
(3.85973e-05 -1.18531e-05 5.2952e-20)
(0.000767651 -1.01485e-05 -1.79567e-18)
(0.000829473 -4.32105e-05 -7.93521e-19)
(2.90497e-05 -1.41443e-05 0)
(6.80939e-05 1.39397e-05 9.91817e-20)
(0.000716644 0.0043234 1.06029e-18)
(9.01546e-05 2.77136e-05 1.00548e-19)
(0.000759454 0.00012931 0)
(0.000344626 -9.69381e-05 7.90046e-19)
(0.000363193 0.000281249 5.95663e-21)
(0.00038559 9.48874e-05 -1.16786e-18)
(0.00565124 0.00880158 -8.36889e-19)
(0.0057301 0.00875321 1.22066e-20)
(0.0058465 0.00907362 1.69302e-18)
(0.000808307 -9.86679e-05 0)
(7.87441e-05 4.21536e-05 0)
(0.000359869 2.12766e-05 -1.31376e-22)
(7.76897e-05 1.9043e-05 -4.03016e-19)
(0.000984291 -4.88113e-05 0)
(0.000579592 2.83988e-05 3.68061e-19)
(0.000708419 8.71594e-05 2.50585e-18)
(0.00070677 -1.48968e-05 -6.26523e-19)
(0.000483651 1.32636e-05 -3.6818e-19)
(0.00164974 0.000549384 6.12606e-19)
(0.000839919 -1.55663e-05 -1.31586e-18)
(0.000699693 9.41804e-05 -5.93166e-19)
(9.94879e-05 9.7993e-06 -2.0182e-19)
(0.000819606 0.00248149 0)
(0.000774773 5.80669e-05 0)
(0.000676389 9.14652e-06 -1.59993e-18)
(4.80498e-05 2.22949e-05 0)
(0.000275341 0.000276192 3.80292e-19)
(5.90054e-05 -2.59427e-05 0)
(5.47251e-05 -8.85244e-06 1.8563e-19)
(4.27576e-05 -6.67189e-05 -3.91876e-20)
(0.00075148 1.13062e-05 2.82351e-19)
(5.51588e-05 1.60689e-05 0)
(0.000768 0.000104816 5.12231e-19)
(0.000727624 0.000298825 2.45425e-19)
(0.000950719 6.49012e-05 -4.63917e-20)
(5.32477e-05 3.13004e-05 -5.26106e-20)
(4.24076e-06 -5.67684e-05 0)
(0.000411006 0.000227665 1.98029e-19)
(-2.30213e-06 4.29324e-05 0)
(0.000695358 -0.000115574 -6.96907e-19)
(0.000527226 -7.71398e-05 0)
(8.14676e-05 5.64176e-06 -2.02774e-19)
(1.2317e-06 -7.41564e-05 0)
(0.000790392 0.000212969 -3.97448e-19)
(2.24257e-06 -3.53072e-05 0)
(0.000406165 0.000321418 -7.82946e-24)
(0.000492964 0.000117168 0)
(0.000776646 2.25653e-05 3.57756e-23)
(1.01578e-06 2.99118e-05 -4.90979e-20)
(0.00041834 2.93249e-05 2.05251e-18)
(0.00100145 8.37794e-05 4.85325e-20)
(0.00109126 -9.64182e-06 7.50089e-22)
(0.000750067 0.000642228 3.09774e-19)
(-3.87708e-06 8.02196e-05 0)
(2.10481e-06 -0.000150768 -3.63698e-19)
(-7.31436e-06 -0.000257415 -1.27846e-18)
(-9.71263e-06 0.000122196 -6.92783e-19)
(0.000818678 -3.67399e-06 0)
(-1.01174e-05 0.000154735 0)
(0.000753594 -6.87021e-05 2.51182e-18)
(0.000659733 0.000101098 1.73929e-18)
(0.000387851 -2.98599e-05 0)
(6.51326e-05 0.00023596 -1.03898e-18)
(-4.13409e-06 0.000237306 5.76315e-19)
(0.000128284 0.000528742 7.28713e-19)
(0.00026544 0.000164584 -1.07945e-18)
(0.000824487 -5.00652e-05 1.5711e-19)
(0.000277745 1.39424e-05 6.17492e-19)
(-4.86841e-06 5.68175e-05 0)
(9.80358e-05 0.000343695 -1.26658e-18)
(0.000307276 0.000328429 -1.88127e-19)
(5.00674e-06 -0.000109518 1.70789e-19)
(0.00060195 0.00072366 0)
(0.000346552 0.000384314 6.68353e-20)
(0.0008513 -2.11671e-06 1.21165e-18)
(0.000493414 -0.000108051 -3.15536e-18)
(-3.56136e-06 -0.000204023 0)
(0.000820344 -1.08228e-05 -1.28016e-19)
(0.000308665 -2.88319e-05 1.44769e-18)
(0.00286141 0.000817022 -3.96297e-19)
(-2.26401e-05 0.000189194 -7.12489e-19)
(-4.68624e-05 0.000238566 1.88196e-18)
(0.000950621 1.69591e-05 -4.52899e-20)
(7.83446e-05 2.63721e-06 -8.71584e-19)
(0.000771057 6.1971e-05 -4.52652e-19)
(0.00101007 1.65859e-05 -4.76914e-20)
(0.000109997 0.000432858 -6.94827e-19)
(0.000456831 8.61464e-05 -5.74843e-19)
(6.32249e-05 -4.24908e-07 1.8174e-19)
(0.000906318 -4.27716e-05 -1.23386e-18)
(0.00157688 0.000337823 -1.2932e-18)
(-9.33858e-06 9.28677e-05 5.7675e-19)
(0.000765113 6.1504e-06 -5.8203e-19)
(0.000870121 0.000516131 -9.13814e-20)
(0.000158118 0.000927662 0)
(0.000533768 6.91895e-05 0)
(0.000249107 5.99919e-05 -1.86045e-18)
(7.15554e-05 6.90963e-05 -1.59978e-18)
(3.91427e-05 2.71977e-05 0)
(0.00485116 0.00843073 -1.13068e-20)
(0.00489705 0.00851212 1.16538e-19)
(0.00514763 0.00884036 -9.87599e-20)
(0.00414853 0.00935606 0)
(0.00390776 0.00939426 6.08788e-19)
(0.00483253 0.00839139 -2.55968e-19)
(0.00402526 0.00896217 4.81096e-19)
(0.00483241 0.00843638 0)
(0.00396979 0.00892497 7.57854e-19)
(0.00489539 0.0086153 2.7292e-19)
(0.00083787 -4.27653e-05 -1.55562e-18)
(0.000683397 9.85305e-05 0)
(0.000216051 8.50952e-05 1.48659e-19)
(6.16225e-05 2.3658e-05 1.01508e-19)
(8.87851e-05 5.61241e-05 7.917e-19)
(0.000118103 5.42083e-05 -3.97324e-19)
(0.000114146 1.95495e-05 0)
(6.03278e-05 9.37332e-06 9.52368e-20)
(0.000202982 0.000150425 0)
(0.000178349 6.90675e-05 -6.09495e-20)
(0.000328499 0.000230399 -5.92564e-21)
(6.51472e-05 5.374e-05 -5.09581e-19)
(0.000103138 3.96893e-05 -9.92498e-20)
(0.000100096 7.39595e-05 1.52721e-21)
(0.000244264 0.000369134 -7.74988e-19)
(0.000171326 0.00113609 0)
(5.13139e-05 6.08601e-05 3.99429e-19)
(0.00028498 0.00184046 0)
(0.000203609 0.000261311 8.19934e-19)
(4.6171e-05 -8.28253e-06 1.29552e-19)
(0.000452807 0.000171794 -2.00491e-19)
(0.000826168 3.54209e-05 -2.16247e-18)
(5.59654e-05 2.01327e-06 2.28664e-23)
(0.000156531 4.86439e-05 2.61135e-19)
(0.000236326 0.000117252 -1.04683e-19)
(0.000847208 0.000670125 3.89886e-19)
(0.000599356 0.00162613 -1.07461e-20)
(0.000417419 0.00131665 -1.09815e-20)
(0.000998645 0.000539868 0)
(0.000116536 -1.01212e-05 1.3008e-18)
(0.000132291 3.26645e-05 -5.15672e-20)
(0.000395088 -0.000180213 -1.3259e-18)
(0.000788814 4.38095e-05 0)
(0.000179415 6.09812e-05 4.21463e-19)
(0.000200992 0.00141863 0)
(0.00101532 0.00071338 -8.50177e-20)
(0.000794538 3.84649e-05 -2.12775e-19)
(0.000101596 -1.75639e-05 -3.48916e-19)
(0.000787858 0.000271985 -2.42145e-20)
(9.71158e-05 -2.70303e-05 -6.95791e-19)
(0.000224527 0.000186923 1.00241e-19)
(0.000222583 0.000312022 -4.01475e-19)
(0.000846494 0.000216895 0)
(0.000774128 -5.08678e-06 0)
(0.000261389 0.000153791 2.04509e-19)
(0.000235594 2.77668e-05 -6.78206e-23)
(0.000184082 0.000215579 0)
(0.000269377 0.000622714 -6.43904e-21)
(0.000322524 1.80866e-05 0)
(0.000267502 0.000573271 0)
(0.000117311 9.79181e-05 -1.56767e-21)
(0.000744671 -4.69193e-05 -1.08983e-18)
(0.000939013 -4.14238e-06 9.03061e-19)
(0.00013727 7.63347e-05 -1.74452e-19)
(0.00091395 0.000156174 9.92376e-20)
(0.000800644 5.4285e-05 3.83061e-19)
(0.000785181 4.54162e-05 -3.42247e-19)
(0.000968416 0.000396399 0)
(0.000414124 0.000126825 7.26726e-19)
(0.000859762 0.000300076 2.43415e-20)
(0.000536316 0.000174902 0)
(0.000279324 0.000432199 4.76541e-19)
(0.00025079 0.000230724 -9.82375e-20)
(0.00106941 0.000376546 -9.10787e-19)
(0.000572955 0.000127705 -2.08672e-19)
(0.000790177 0.000155981 -8.51719e-21)
(0.000800875 3.57572e-05 1.08389e-19)
(0.000124813 -0.000103463 -2.30236e-18)
(0.000708995 0.000363586 2.55295e-19)
(0.000610774 8.43172e-05 2.67842e-20)
(0.000669349 0.000271636 1.01547e-23)
(0.000684431 0.000428829 -4.76121e-19)
(0.000813965 1.29885e-05 1.04474e-19)
(8.00497e-05 9.2452e-05 0)
(0.000614612 0.000441695 -5.4247e-20)
(0.000183161 0.000119029 0)
(0.00036412 0.000522763 -3.03465e-19)
(0.000304645 0.000186354 0)
(0.000639435 0.00022068 4.1375e-19)
(0.000611366 0.000286819 -5.09176e-20)
(8.22407e-05 0.000108352 7.18957e-19)
(0.000972566 8.17766e-05 -1.82534e-18)
(6.94774e-05 3.09949e-05 2.9944e-19)
(0.000997396 0.00011578 -1.89036e-18)
(0.000688753 -0.000101169 1.85193e-19)
(0.000764127 -2.15499e-05 2.20283e-18)
(0.000792818 1.80611e-05 -1.53161e-19)
(0.000667524 8.05748e-05 0)
(0.0009328 5.42864e-06 1.04027e-18)
(0.000903435 0.000251109 -4.96159e-19)
(0.000737339 9.61284e-05 -5.57742e-19)
(0.000740934 0.00023337 -1.02677e-19)
(0.000257121 -7.37191e-05 -2.42028e-18)
(0.000703439 9.90752e-05 1.01395e-18)
(0.000520369 0.000565429 0)
(0.000145765 -7.68561e-05 0)
(0.00114702 0.000416313 5.70165e-19)
(0.000864841 -0.000302283 -3.75614e-18)
(0.00120685 0.00043305 6.60675e-19)
(0.00125793 0.000793932 -7.27468e-20)
(0.00078215 3.90873e-05 -2.45981e-19)
(0.00076918 0.000113653 -1.63799e-18)
(0.000717803 0.00015812 1.81209e-18)
(0.000701536 -0.000106254 1.11635e-19)
(0.000645409 0.000345224 -5.12835e-20)
(0.000118493 0.000164069 1.64046e-22)
(0.000668634 -7.48731e-05 3.06135e-19)
(0.000278858 -0.000143003 -8.57529e-19)
(0.000586565 0.000204574 0)
(0.000651569 4.09404e-05 1.14247e-19)
(0.000631909 2.37942e-07 -4.37169e-19)
(0.000371131 0.000185241 4.56701e-20)
(0.000749386 0.000484695 -1.9258e-19)
(0.00015893 9.83622e-05 -7.54511e-25)
(0.000781014 0.000366238 0)
(0.000935036 0.000317367 4.83789e-20)
(0.000684281 -0.000116825 -7.13287e-19)
(0.000331744 0.000104887 5.77544e-19)
(0.000868655 0.000394936 0)
(5.95549e-05 4.05208e-05 1.5568e-19)
(0.000457159 0.000273777 2.48962e-19)
(0.000436791 -8.78752e-05 -8.25692e-19)
(0.00020359 -0.00011725 -1.23212e-18)
(0.000713834 -6.14678e-05 -5.54013e-19)
(0.000749365 -0.0001237 -2.25975e-19)
(0.000501719 0.000789345 -1.33997e-18)
(0.000797383 9.66533e-05 -7.66018e-20)
(0.00079638 -0.000193114 1.4641e-18)
(0.000644028 0.000111973 2.6282e-20)
(0.000498664 0.000225948 -1.92795e-19)
(4.77692e-05 -2.88381e-05 -1.01941e-19)
(0.000232721 -2.06373e-05 2.77746e-18)
(4.11654e-05 1.61468e-07 -2.26781e-19)
(0.000766308 8.68622e-05 4.18144e-19)
(0.000616862 0.00015667 0)
(0.000213888 -3.48467e-05 -1.21463e-18)
(0.000133554 2.87491e-05 3.63417e-19)
(0.000157426 -3.41786e-05 -8.52914e-23)
(0.000765548 0.000101436 -3.64727e-19)
(0.000156782 -8.72245e-06 0)
(0.000552814 0.000252646 0)
(0.000112587 0.000340479 -4.21992e-19)
(0.000756663 0.000209649 2.39917e-18)
(3.38367e-05 1.42947e-06 0)
(0.000771739 -0.000104017 0)
(5.97661e-05 -2.80063e-05 0)
(0.000821827 3.55643e-05 -5.19112e-21)
(0.000803626 -7.90231e-05 0)
(0.00471393 0.00840833 1.11275e-19)
(0.00469372 0.00847041 1.83396e-19)
(0.000833267 1.43285e-05 0)
(0.000732591 -7.78579e-05 9.31085e-19)
(0.000154055 0.000143361 1.73665e-19)
(0.000973314 3.62952e-05 9.18272e-19)
(0.00013521 0.000122207 2.72832e-20)
(0.000689238 -0.000102713 7.13748e-19)
(4.42733e-05 1.48781e-05 0)
(4.23982e-05 -2.08057e-05 -5.22131e-20)
(0.000855812 0.000120502 -5.5512e-19)
(5.30327e-05 -3.933e-05 -7.79444e-19)
(0.000725538 0.000138731 -4.92986e-20)
(0.000166825 0.000175449 -2.1893e-19)
(0.000794005 3.92171e-05 0)
(0.00243051 0.00778015 -2.57025e-21)
(0.000175131 0.000762091 3.87918e-19)
(0.000141244 -4.59027e-05 -1.06032e-18)
(8.34355e-05 -3.73817e-05 -1.35861e-18)
(0.000877464 2.3083e-05 2.19707e-20)
(0.000538886 0.000424064 0)
(0.00037913 0.000410144 -2.9609e-19)
(0.000133301 -4.19479e-05 1.37616e-18)
(0.000836724 7.09982e-06 8.97018e-20)
(5.41521e-05 1.40472e-06 4.73319e-19)
(0.000607577 -4.60594e-05 1.36389e-18)
(0.000740439 -2.12566e-05 -6.93282e-19)
(0.000103804 -5.21553e-05 1.98852e-18)
(0.000826208 1.05945e-05 1.65442e-23)
(0.000853989 1.87372e-05 -4.38434e-20)
(0.000750294 0.000148216 0)
(0.000741677 4.23219e-05 0)
(0.00531512 0.00807396 4.01024e-19)
(4.35388e-05 1.07825e-05 -1.39172e-19)
(0.000219044 -5.99363e-05 8.9594e-19)
(0.00068826 0.000124896 -8.04072e-19)
(4.61946e-05 -1.92034e-06 2.34452e-19)
(0.00055098 -1.23432e-05 -8.42569e-19)
(0.000633968 -6.41414e-05 1.77975e-18)
(0.000664566 0.000164871 -4.13988e-19)
(0.000748573 -0.000108714 4.16794e-19)
(0.000117593 -2.50448e-05 1.29806e-18)
(0.000485786 2.52316e-05 -3.75948e-19)
(0.000838962 9.10637e-05 0)
(0.000513675 0.000310308 4.90129e-20)
(0.000947585 1.4637e-05 -1.07076e-18)
(4.14878e-05 -1.0184e-05 1.06008e-18)
(0.000730104 -5.81845e-05 1.09499e-18)
(0.000727157 -0.000148574 -1.1113e-18)
(0.000674186 5.14194e-05 -6.54259e-19)
(0.000469466 -2.59414e-05 -6.11748e-19)
(0.00470963 0.00835163 3.63181e-19)
(0.00397942 0.00886424 -3.36827e-19)
(0.00368056 0.00885751 3.85102e-19)
(0.00483206 0.0084688 3.66717e-19)
(0.000823966 8.53744e-06 1.64416e-19)
(0.00472704 0.00850292 0)
(0.0046741 0.00836454 -6.18566e-19)
(6.9707e-05 -1.12169e-06 -1.15982e-18)
(0.00400964 0.00883894 -6.52657e-20)
(0.00407243 0.00876872 -3.75013e-19)
(0.00541281 0.0084858 0)
(0.00542905 0.00872178 6.5769e-20)
(0.00561051 0.00835866 0)
(0.00533341 0.00866585 3.29932e-19)
(0.00584673 0.00854506 4.19223e-19)
(0.0053448 0.00894483 6.37007e-20)
(0.00591024 0.00894878 -9.40629e-19)
(0.00533597 0.00888895 9.11437e-20)
(0.00352602 0.00894058 -2.60683e-19)
(0.0041295 0.00903154 3.07315e-20)
(0.00408935 0.00896494 9.25026e-20)
(0.00431161 0.00866786 6.47777e-20)
(0.000835593 0.000160228 5.19716e-20)
(2.513e-05 2.64345e-06 0)
(0.000605084 -0.000130113 0)
(0.000805918 5.33849e-05 0)
(0.00241066 0.00105395 4.57851e-21)
(0.000478359 -3.82118e-06 2.0068e-19)
(5.08842e-05 1.05634e-05 5.28404e-20)
(2.79379e-05 -3.00493e-05 1.92255e-18)
(0.000825546 2.85565e-05 0)
(3.61344e-05 1.83219e-05 -2.23234e-19)
(0.000147962 0.000232654 0)
(4.45142e-05 -5.77126e-07 0)
(3.71406e-05 -1.84207e-06 0)
(0.000791046 0.000127588 1.31739e-20)
(0.000836241 4.55498e-05 2.03483e-19)
(4.32318e-05 0.000385378 1.63786e-21)
(0.000161991 0.000278351 -2.1433e-18)
(0.000578701 0.00035398 -9.97471e-20)
(0.000826708 0.000125333 6.78418e-19)
(0.000719403 -0.000611148 7.71931e-19)
(0.000311227 0.00107915 0)
(0.000493635 0.000476709 3.08504e-18)
(0.00011201 0.000143899 -2.08453e-18)
(4.89205e-05 1.39433e-06 0)
(0.000853131 3.50584e-06 4.15795e-20)
(2.06773e-05 4.77239e-05 1.91394e-18)
(0.000882705 3.1115e-05 3.14087e-19)
(0.00014533 -0.000447652 4.37245e-18)
(0.000908709 4.68464e-05 -3.13446e-19)
(0.00171295 0.000105224 8.46279e-19)
(5.02084e-05 -1.48909e-05 9.61101e-20)
(4.53298e-05 1.13046e-05 -9.99169e-19)
(4.54009e-05 0.000181141 0)
(0.000812217 0.000132387 6.8111e-19)
(0.00046771 0.000375794 2.75926e-19)
(0.000907077 1.65536e-05 -4.50005e-20)
(0.000703942 -2.09939e-05 2.95994e-19)
(0.000623259 -0.000227919 0)
(0.00550327 0.00855363 -2.03662e-19)
(0.00557637 0.0086318 4.63915e-19)
(0.00562836 0.00870351 -8.2379e-19)
(0.00541945 0.00852273 -1.42143e-19)
(4.49474e-05 0.00011135 9.28079e-19)
(0.000876286 2.30142e-05 -3.97406e-22)
(0.00543301 0.00864795 -4.57914e-19)
(0.005667 0.00861641 7.09587e-19)
(0.00549924 0.0087197 -5.26232e-19)
(0.00544681 0.00874287 -1.07132e-19)
(0.00013526 0.000638684 -2.35104e-20)
(0.00021349 -0.000157569 -9.25536e-19)
(0.000974729 -6.68667e-06 -8.72042e-19)
(0.000690825 0.000215665 0)
(0.000498002 -4.01167e-05 0)
(0.000185711 0.000391455 3.91227e-19)
(0.000603937 0.000602201 -6.18173e-19)
(2.80985e-05 -3.41463e-06 2.07698e-19)
(0.00020827 0.000461596 -8.58685e-19)
(0.000977632 0.00095518 -1.31407e-19)
(0.000708564 0.000176419 0)
(0.000750826 0.000163704 1.51833e-19)
(0.00574252 0.00739935 1.50747e-18)
(0.000640565 0.00110417 9.6295e-20)
(4.76741e-05 4.76514e-05 -8.67069e-20)
(0.000925802 -1.08108e-05 0)
(0.000860104 1.14239e-05 -4.10029e-20)
(4.67912e-05 7.71174e-06 -2.28859e-19)
(4.15211e-05 9.27793e-06 2.2458e-19)
(0.000797099 2.70097e-05 6.19451e-19)
(0.000937353 0.000120603 7.67421e-19)
(0.000803638 0.000113092 0)
(0.000288196 -0.000227233 -4.6686e-19)
(0.000856803 0.000143379 4.48051e-19)
(4.63097e-05 -9.43869e-05 2.36427e-19)
(0.00162596 0.000340478 -2.84326e-18)
(0.000825385 3.76873e-06 0)
(0.000756922 0.000112452 4.30706e-19)
(9.87632e-05 0.00040159 0)
(0.000391645 0.00763159 5.5239e-19)
(0.000481424 0.000532927 -1.40498e-18)
(0.000507392 0.000944051 -2.13771e-19)
(0.00084586 2.55909e-05 -1.68378e-19)
(2.07264e-05 3.59595e-05 0)
(0.000899777 8.64737e-05 7.04113e-19)
(0.00416156 0.00898642 1.1894e-19)
(0.00403799 0.00883372 3.55819e-20)
(0.00462792 0.00855603 5.07149e-19)
(0.00466293 0.00848697 -4.47983e-19)
(0.00548249 0.00848117 1.42749e-19)
(0.00366956 0.008348 3.78219e-20)
(0.00499304 0.00818537 -8.53665e-19)
(0.0040345 0.00880767 5.97597e-21)
(0.00466445 0.00822976 7.95264e-19)
(0.00412673 0.00889053 -1.2186e-19)
(0.00457553 0.00832899 0)
(0.0041757 0.00885564 -1.41037e-19)
(0.00452778 0.00829309 4.85302e-19)
(0.00417706 0.00901542 1.07058e-19)
(0.00450749 0.00835208 0)
(0.0047347 0.00834928 2.72469e-19)
(0.0039227 0.00875371 6.9536e-19)
(0.00477207 0.00854751 -5.70043e-19)
(0.00481882 0.00861757 4.95969e-19)
(0.00402273 0.00879264 3.45702e-19)
(0.00561359 0.00898329 -1.25195e-20)
(0.00439224 0.0090819 4.38674e-20)
(0.00566967 0.00877365 0)
(3.43201e-05 1.10435e-05 -2.21061e-19)
(0.00261408 0.00682038 2.6376e-19)
(0.00082697 6.97433e-06 1.25342e-19)
(0.00084155 2.32548e-05 0)
(4.8349e-06 5.55784e-06 -4.64678e-19)
(0.000128944 -0.000207685 8.0402e-19)
(2.1848e-05 7.53679e-05 2.42636e-18)
(0.000791387 0.000172045 -1.04913e-19)
(0.000482359 2.9063e-06 8.21371e-19)
(5.5013e-06 -6.4763e-06 3.60935e-19)
(2.93157e-05 -5.41475e-05 -2.14752e-18)
(0.000484049 2.60184e-06 1.8976e-19)
(0.000731364 8.68813e-05 -3.47429e-20)
(0.000480186 -1.24682e-05 1.71271e-19)
(0.00043821 0.000699969 0)
(0.00015447 -0.000146774 1.34077e-18)
(0.000830443 2.62392e-05 1.77061e-19)
(2.84874e-05 3.15109e-05 0)
(0.000110876 0.000547866 -7.33159e-19)
(0.000636581 0.000467928 1.49733e-18)
(0.000312703 0.00072136 0)
(0.000480243 6.11968e-06 0)
(0.000489449 0.00014377 1.36254e-18)
(3.02552e-05 4.71037e-05 -4.08434e-18)
(2.55044e-05 1.27562e-05 4.35026e-19)
(0.000107041 0.000156387 0)
(7.15015e-05 -4.83126e-05 0)
(9.09098e-05 0.000129402 2.33124e-19)
(0.000877181 0.000189403 4.07076e-19)
(0.000696834 -0.000124494 -1.59968e-18)
(3.35715e-05 4.28871e-05 0)
(0.000663198 0.000181418 -7.00741e-20)
(0.00048532 4.58646e-06 -1.8216e-19)
(0.000937594 -6.09701e-06 1.21695e-18)
(0.00023361 0.000538045 7.33825e-19)
(0.000822653 0.000122536 0)
(4.13599e-05 -3.77131e-05 6.26762e-19)
(4.08086e-06 -2.02118e-05 -3.72486e-19)
(0.00119019 -5.35452e-05 0)
(0.000762307 0.00198312 0)
(0.00108769 -0.000243558 0)
(0.000952001 0.000201832 4.966e-19)
(0.000852136 1.0219e-05 -3.24365e-19)
(0.000878766 0.000134253 -7.87254e-19)
(0.000477522 6.39618e-05 0)
(5.01525e-05 8.01307e-05 -1.99832e-19)
(0.000172996 0.000331522 1.25802e-18)
(0.000747025 -8.0474e-06 -4.70952e-22)
(0.00104973 0.000191035 -7.79558e-19)
(0.00105965 0.000131759 0)
(3.36244e-06 1.73521e-05 2.92264e-19)
(3.1516e-05 -2.45591e-05 -2.26199e-19)
(0.000796921 9.10846e-05 8.09752e-21)
(6.19988e-05 -0.000126574 0)
(0.00100235 0.00027294 1.106e-18)
(0.00554628 0.00888783 -4.1174e-19)
(0.00288119 0.00948505 1.90785e-18)
(0.000109233 -0.000126769 -2.22756e-19)
(9.91667e-05 -8.98987e-05 2.1627e-18)
(0.00114237 0.000260097 1.95417e-19)
(0.00124864 0.00102094 2.72276e-19)
(0.000793855 2.15798e-05 -8.42871e-19)
(0.000225334 0.000904318 -2.77649e-19)
(0.000768238 0.000877474 -2.51972e-19)
(0.000490106 -6.77398e-05 0)
(0.00014032 0.000768775 0)
(0.000105308 0.000286132 -3.00996e-22)
(0.00084702 -1.14896e-05 -2.46826e-22)
(0.000812501 -3.75976e-05 1.76065e-19)
(0.0023395 0.00158125 -1.39747e-18)
(0.00147108 0.00900439 -1.72205e-19)
(0.000664287 5.224e-05 5.58173e-19)
(0.00592332 0.00452922 -2.61322e-19)
(0.00494274 0.00934401 -1.18925e-19)
(0.00347281 0.0082934 3.53242e-20)
(0.000700832 0.000168647 -2.50618e-18)
(0.000810242 2.29356e-05 -5.86783e-23)
(1.87963e-05 -1.65685e-05 -4.05026e-19)
(5.8173e-05 0.000103405 -4.06701e-19)
(9.25123e-05 0.000275957 1.0192e-18)
(1.81202e-05 2.49622e-05 5.71018e-19)
(0.000102759 0.000240242 4.30329e-19)
(0.000766493 9.90347e-05 0)
(0.00510108 0.0102735 -1.96425e-20)
(0.00130012 0.000489891 -2.86225e-20)
(0.000799451 7.29268e-06 4.11345e-19)
(8.29781e-05 -0.000103929 0)
(0.00190956 0.00061562 6.33636e-19)
(1.63116e-05 1.44976e-05 -3.1457e-19)
(4.30273e-05 3.77141e-05 1.13155e-19)
(0.00126529 0.00144588 7.44268e-19)
(0.000849145 3.05923e-05 2.07973e-19)
(1.75108e-05 -4.78433e-06 -1.98164e-19)
(0.001908 0.00138482 -1.25061e-18)
(0.000133301 0.000193817 -9.50457e-19)
(0.00474132 0.00816928 -1.22438e-18)
(1.55248e-05 4.10503e-06 1.02627e-19)
(0.000197994 -0.000499015 -1.4333e-18)
(7.1055e-05 -6.31856e-05 4.72102e-20)
(0.00160787 0.000869278 0)
(0.00098425 0.000155584 -5.21686e-22)
(0.000398964 0.000842527 -4.67496e-20)
(0.000830897 1.6012e-05 -2.67295e-19)
(8.86983e-05 0.000200133 8.54188e-19)
(6.71173e-05 -7.94791e-05 4.70393e-19)
(2.64473e-05 2.15984e-05 -1.1028e-19)
(4.26438e-05 0.000111691 -3.72164e-19)
(0.000250287 -0.000296445 -6.30021e-19)
(0.00340736 0.00345064 -1.16641e-21)
)
;

boundaryField
{
    back
    {
        type            empty;
    }
    ingreso
    {
        type            fixedValue;
        value           uniform (0.0008 0 0);
    }
    salida
    {
        type            zeroGradient;
    }
    front
    {
        type            empty;
    }
    defaultFaces
    {
        type            noSlip;
    }
}


// ************************************************************************* //
