/*--------------------------------*- C++ -*----------------------------------*\
  =========                 |
  \\      /  F ield         | OpenFOAM: The Open Source CFD Toolbox
   \\    /   O peration     | Website:  https://openfoam.org
    \\  /    A nd           | Version:  7
     \\/     M anipulation  |
\*---------------------------------------------------------------------------*/
FoamFile
{
    version     2.0;
    format      ascii;
    class       surfaceScalarField;
    location    "18.5";
    object      phi;
}
// * * * * * * * * * * * * * * * * * * * * * * * * * * * * * * * * * * * * * //

dimensions      [0 3 -1 0 0 0 0];

internalField   nonuniform List<scalar> 
1111
(
5.98659e-09
1.34322e-08
-1.52872e-08
-4.13155e-09
6.12781e-09
-1.14423e-08
1.13011e-08
-1.44194e-08
4.36063e-09
9.85875e-09
1.99994e-10
1.64547e-10
-1.82194e-10
-1.39375e-08
1.39552e-08
-1.38715e-08
1.3689e-08
3.47046e-10
-1.27011e-09
1.48343e-08
1.86437e-09
-3.95054e-09
9.40285e-09
-1.13427e-08
5.89039e-09
-6.46767e-09
-1.24497e-08
1.2414e-08
6.50338e-09
-5.11806e-08
-2.54194e-08
7.66e-08
-8.06626e-09
7.42696e-09
6.76711e-09
3.76441e-09
3.7449e-10
-3.84046e-09
-2.98436e-10
1.56793e-08
-1.58284e-08
-2.2413e-08
2.25621e-08
-9.6589e-09
-8.38219e-09
9.02009e-09
9.021e-09
-3.45327e-08
1.70969e-08
-3.18883e-08
4.93242e-08
9.61105e-09
-1.84788e-09
-1.42308e-08
-3.72969e-09
3.68131e-09
-3.39333e-09
3.4417e-09
-3.7133e-09
1.30115e-08
2.00545e-09
-1.13037e-08
8.88638e-09
-2.06805e-09
-1.50138e-08
8.1955e-09
3.88151e-08
-3.20174e-08
-6.79765e-09
-1.90851e-08
-2.90852e-10
1.77607e-08
1.61532e-09
-2.78283e-10
3.76183e-09
-1.80531e-08
1.45696e-08
-6.24056e-08
-3.60403e-09
6.60096e-08
2.16586e-10
-1.40687e-09
-4.19569e-10
1.60985e-09
-9.72305e-10
-1.31775e-08
-2.67776e-10
-3.72505e-10
3.63725e-10
2.76556e-10
-9.9512e-09
-8.05357e-09
1.22451e-08
5.75964e-09
8.90798e-10
-2.23257e-09
-8.50981e-09
9.85159e-09
7.63746e-09
1.11792e-09
-8.37489e-09
-3.8049e-10
-2.67099e-09
-7.76562e-09
1.05774e-08
-1.40772e-10
1.11719e-08
-1.48885e-10
-2.13659e-09
-1.13026e-09
1.09352e-09
1.48549e-10
-1.11807e-10
-4.49864e-10
9.99053e-10
6.26797e-10
-1.17599e-09
-7.15329e-10
-4.85756e-11
7.59957e-10
3.948e-12
4.35916e-11
-1.17298e-09
8.33624e-11
1.04602e-09
-1.82275e-11
-1.06844e-09
5.61673e-10
-1.79895e-08
-1.65727e-09
-6.24147e-10
7.56208e-11
-1.66803e-10
1.32341e-08
-1.32771e-08
3.80483e-09
-4.99378e-10
7.10369e-10
4.88005e-10
-6.98997e-10
-9.28887e-10
-2.69309e-09
2.06858e-09
1.55339e-09
-1.91459e-09
8.32682e-09
-1.03628e-08
-4.82904e-10
-2.40125e-10
9.88821e-11
-8.80568e-09
9.98006e-09
-9.24064e-09
1.16053e-08
-1.65802e-08
5.15861e-09
-1.8373e-10
1.24026e-10
-2.57848e-10
-3.49082e-10
3.29289e-10
9.94128e-10
-2.29897e-10
-5.99718e-08
7.44945e-08
-1.45227e-08
1.23595e-09
-4.42215e-10
-1.44354e-09
6.49802e-10
8.33766e-10
1.02979e-08
-1.35833e-08
2.45167e-09
-1.91999e-10
6.46143e-09
-7.76046e-09
1.49103e-09
-6.31937e-09
5.84469e-09
5.38712e-09
-4.91243e-09
-6.76063e-09
-2.49806e-09
2.31767e-09
6.94102e-09
-2.90217e-10
-9.10602e-08
9.15557e-08
-2.05238e-10
-3.74332e-10
-8.97738e-08
9.01152e-08
3.29588e-11
8.30771e-08
-1.45349e-09
8.31537e-11
-8.17067e-08
-3.34531e-09
9.7784e-11
9.1181e-10
9.86306e-10
-6.62162e-10
4.14572e-09
-1.95266e-09
3.25009e-09
-5.44315e-09
-1.21608e-09
1.10315e-09
-1.50131e-08
6.57106e-09
8.95294e-09
1.06603e-09
-9.65998e-09
-3.58994e-10
-6.14219e-09
1.25093e-08
1.55453e-09
-7.9216e-09
1.40881e-08
-3.782e-09
3.13082e-09
-1.34369e-08
1.5344e-08
1.62143e-09
-1.53668e-09
2.42846e-11
-2.0107e-08
-7.80178e-09
2.78845e-08
1.33992e-08
-8.11686e-09
-2.30454e-09
7.49016e-09
-1.13278e-08
-1.82824e-10
3.64744e-10
-1.62546e-09
-3.7488e-08
-2.24838e-08
7.83108e-09
-1.88005e-10
3.96221e-09
-6.67457e-09
1.05178e-08
6.13681e-09
-7.63666e-10
4.47217e-10
6.19402e-10
-3.02953e-10
5.98977e-09
-4.53908e-09
3.50017e-09
-4.95087e-09
-7.49876e-10
-7.68335e-10
3.45235e-10
9.08782e-10
-8.73996e-10
-2.77866e-10
-1.30929e-09
1.13729e-09
-1.71127e-08
2.37373e-09
1.44349e-09
1.32954e-08
3.4692e-10
-8.97571e-10
-2.13016e-10
-3.48425e-09
-1.46175e-08
9.89118e-10
5.65256e-09
1.15336e-08
-5.24521e-09
-1.1941e-08
1.63094e-08
5.71127e-10
-1.57893e-08
-1.09116e-09
-8.51391e-10
6.12974e-10
6.85633e-10
-1.17016e-09
6.43408e-10
5.26748e-10
-6.93046e-09
-3.90213e-09
4.51321e-09
-4.96991e-10
7.03334e-10
-2.06343e-10
1.32891e-09
-1.47644e-08
-5.92985e-10
8.44846e-09
-9.77006e-09
-1.25035e-09
-1.44802e-09
1.23832e-08
4.40323e-09
-4.18588e-09
-1.26006e-08
3.75632e-10
6.87196e-09
-7.54206e-09
6.51478e-09
-2.0783e-09
-8.2232e-09
7.59811e-09
2.70339e-09
-1.79484e-09
5.99788e-10
-1.34225e-08
-3.12726e-10
-1.84266e-10
-6.80148e-10
1.41562e-09
-7.49611e-09
8.33196e-10
1.70796e-08
-1.60343e-09
-1.54851e-08
1.66262e-08
-1.14111e-09
1.17049e-08
1.38911e-08
-1.54948e-08
-1.01012e-08
-9.89857e-10
1.62574e-09
-6.35882e-10
1.84077e-09
-2.42378e-09
5.83009e-10
3.35267e-09
-5.02419e-09
1.67152e-09
2.18364e-09
-1.84232e-09
-3.41314e-10
-1.26069e-08
1.58298e-10
1.24486e-08
2.96294e-09
-7.79301e-10
8.80038e-09
-1.48869e-08
6.31635e-09
-7.1885e-09
1.46689e-10
4.09349e-09
-4.75772e-10
-3.33743e-09
3.48411e-09
-8.17473e-09
9.58352e-09
-1.40879e-09
-1.02803e-09
4.0303e-09
1.14345e-09
1.6831e-08
-1.4508e-08
-1.48922e-09
-5.17887e-09
5.04e-09
-1.8138e-09
-2.86523e-10
7.28393e-09
-7.21826e-09
-6.56685e-11
7.08151e-09
4.29538e-09
3.92749e-10
-1.54644e-08
1.01701e-08
1.69992e-08
5.66836e-09
8.28512e-09
8.17368e-09
-6.67981e-09
5.18642e-10
-1.31256e-08
1.62486e-09
-3.42297e-10
-1.23655e-08
3.9156e-09
-4.31486e-10
1.46519e-08
-1.40808e-08
-5.04438e-11
-1.21814e-09
-1.34284e-08
6.97478e-09
1.00356e-09
-6.9345e-11
-8.95596e-09
5.45923e-09
-3.19932e-08
-1.25163e-08
-2.1887e-09
1.27658e-09
1.35245e-08
1.10171e-08
-1.07093e-08
-1.38323e-08
1.70585e-08
-3.10894e-09
-1.39496e-08
1.84765e-09
3.77893e-09
-1.55686e-09
-1.03033e-09
-1.10699e-09
1.44423e-09
6.9309e-10
-3.35996e-10
4.74049e-10
4.81349e-10
6.28451e-08
-6.25093e-08
-3.35779e-10
6.31537e-08
-6.32609e-08
1.07242e-10
7.48119e-10
6.47804e-08
-6.55943e-08
8.13863e-10
6.41433e-08
6.37056e-10
-4.15846e-10
-6.65684e-08
9.74155e-10
-6.19943e-08
6.17616e-08
2.32683e-10
1.33107e-09
-6.78995e-08
-6.23318e-08
3.37444e-10
1.19479e-08
-1.29445e-09
1.94412e-09
-3.76964e-09
3.11998e-09
4.89656e-10
-1.36037e-09
1.24185e-09
-9.1747e-10
1.55947e-09
-1.85371e-09
1.21171e-09
1.62804e-09
-1.80263e-09
5.39336e-10
-1.23909e-10
-3.28541e-09
3.1844e-09
-2.47634e-09
2.57735e-09
-1.02082e-09
-2.95798e-09
2.68435e-09
-3.99838e-09
-5.45313e-09
6.95832e-10
-8.16519e-10
1.55548e-09
1.24584e-09
-6.62257e-09
7.99178e-09
2.92617e-09
2.13941e-08
-4.33557e-09
-8.71227e-10
3.06617e-10
1.26044e-09
-1.00478e-08
-2.74402e-08
5.51415e-09
-4.55083e-09
-3.06296e-09
2.09964e-09
1.43178e-10
-1.16134e-12
6.1794e-10
-2.92818e-09
3.59584e-09
8.51183e-09
9.82614e-10
-7.04864e-10
2.28569e-09
-2.60165e-09
2.43763e-09
1.44691e-08
1.29465e-08
-2.63905e-08
3.2022e-08
6.04608e-09
-2.21987e-08
-1.02379e-08
1.77454e-08
-1.73869e-08
1.06587e-08
-3.5117e-10
8.95732e-11
-1.54103e-09
-2.01924e-09
-1.71017e-09
3.35256e-09
1.44341e-08
-4.90884e-10
-1.33434e-08
2.86502e-10
-3.02571e-09
-2.18763e-10
1.49961e-08
1.72184e-08
1.33962e-08
7.85388e-10
-1.52756e-09
-1.2654e-08
-2.02708e-09
5.95113e-09
1.20847e-08
-9.40021e-10
-1.34656e-09
-3.49797e-09
2.73359e-09
3.94877e-09
2.39175e-09
1.39306e-08
4.16484e-09
-1.36922e-08
1.69854e-08
-1.56219e-09
2.96996e-09
-3.71973e-09
1.90249e-09
-4.45631e-09
1.26454e-08
-1.19024e-08
-1.36054e-08
5.67164e-10
8.5819e-09
-1.96739e-09
1.67307e-09
1.84979e-09
-8.93318e-09
4.95791e-10
-4.07888e-09
-5.89757e-09
1.19896e-08
-1.50252e-08
1.53001e-09
1.64534e-09
-2.09193e-09
1.61147e-08
-1.56681e-08
-9.60267e-10
1.38656e-08
2.46625e-09
-3.65868e-09
-1.36945e-08
7.23895e-09
-1.66923e-08
-7.93358e-09
6.36427e-09
5.8191e-09
1.40626e-08
-9.28508e-09
3.2009e-09
8.78757e-09
9.73065e-09
3.92949e-09
-4.06505e-09
2.1245e-08
-1.86278e-08
4.62169e-09
-9.76246e-09
2.32503e-09
5.10116e-09
1.33277e-08
-7.91817e-11
1.22638e-08
-1.31449e-08
-1.56938e-09
2.7406e-09
-1.96592e-09
7.94704e-10
1.06074e-08
-6.29134e-09
7.21753e-09
-1.01371e-08
1.44069e-09
-4.7549e-09
1.103e-08
-1.15203e-08
-7.37908e-09
8.77489e-09
9.21163e-09
1.23806e-08
1.01848e-09
-1.34782e-08
1.80078e-09
8.89285e-10
-1.07317e-08
-6.74649e-09
1.00991e-08
-1.88056e-09
2.5242e-09
-8.50014e-09
4.62541e-09
-5.09347e-09
1.11002e-08
-3.49901e-09
-1.12458e-08
3.64462e-09
-4.54821e-09
1.08935e-08
2.22216e-09
1.2517e-09
-4.87314e-09
-1.7428e-08
1.0386e-08
1.19152e-08
9.30644e-10
-1.0557e-08
-9.65623e-09
1.53401e-08
1.19121e-08
2.68806e-09
-9.49905e-09
-1.31593e-08
-2.34191e-10
-1.23239e-08
3.48284e-10
-5.93852e-10
1.08229e-08
1.24109e-08
-8.0106e-09
1.59426e-08
-1.52201e-08
3.44239e-09
-5.12854e-10
1.59516e-09
1.22131e-08
-3.8649e-09
-1.2262e-08
-5.13553e-09
3.22867e-10
4.47036e-09
1.17833e-08
-7.55709e-09
8.37193e-10
-1.03494e-09
1.98436e-09
-2.51881e-09
5.9262e-09
2.59775e-08
-9.73089e-10
-1.36699e-08
1.4643e-08
2.74534e-08
-2.18181e-08
2.17273e-08
1.92463e-08
-1.23801e-08
-2.45156e-09
1.47549e-08
1.05345e-10
-1.18459e-08
-3.72572e-10
-5.99302e-09
-2.0277e-09
2.479e-09
1.77086e-09
3.06393e-10
-1.05515e-08
1.04713e-08
-2.26251e-10
1.8678e-09
-5.5123e-09
-1.0403e-08
1.01049e-08
-5.96121e-10
-1.01349e-08
-8.90096e-12
-1.02472e-08
-2.991e-09
-1.15989e-08
2.3338e-09
7.70333e-09
5.06937e-09
3.74909e-10
-1.13229e-08
1.12544e-08
7.271e-10
-8.3147e-09
5.28585e-09
-5.71855e-10
2.83774e-09
-3.54981e-09
-1.28026e-08
-1.34573e-08
1.28592e-08
-9.7581e-09
-1.56592e-08
9.95286e-09
8.99653e-09
8.15743e-10
2.50481e-09
-1.61747e-08
1.06066e-08
1.65702e-09
4.06871e-09
4.19909e-10
-6.68697e-10
-5.01088e-10
-4.00472e-09
2.77987e-09
-1.80086e-09
4.64339e-10
-5.41581e-10
7.72418e-11
-2.39144e-09
1.23553e-08
1.9483e-09
2.52869e-09
-1.34815e-09
-1.97021e-09
4.05495e-11
-2.66942e-09
-8.4183e-10
1.25315e-08
9.62535e-09
-5.83561e-10
7.17923e-09
-1.17574e-09
-5.41993e-09
-9.78401e-09
-4.95596e-09
3.65164e-10
9.91748e-11
4.3261e-09
1.4541e-09
-1.63372e-08
-7.1089e-10
-9.97465e-10
-1.9396e-09
7.03474e-10
2.47965e-09
6.20492e-08
-3.44434e-10
-6.17047e-08
6.26322e-08
2.84024e-10
-6.29162e-08
-1.40814e-08
1.78938e-10
1.44272e-08
-5.24677e-10
2.45784e-09
-2.15589e-09
2.89541e-09
1.78468e-09
-4.52812e-09
-6.66673e-10
-7.02178e-10
5.69953e-10
-1.70728e-10
6.95564e-10
-5.15781e-10
1.85379e-08
1.12327e-09
-1.53351e-08
-3.80535e-10
-1.97244e-09
1.19913e-08
2.19426e-09
1.75302e-09
4.82727e-09
-1.6908e-09
-7.88406e-08
-2.3975e-08
-4.84043e-09
1.54914e-08
2.36061e-09
-9.96338e-10
-3.47394e-09
-1.4756e-09
8.34156e-10
-7.05115e-10
-1.34653e-08
-3.23559e-10
1.37889e-08
-1.05145e-08
-6.68401e-09
1.0452e-08
-9.12796e-09
8.91294e-09
-2.90487e-10
2.03475e-09
1.29451e-08
-1.26275e-08
-3.17574e-10
8.14665e-10
4.404e-11
9.32687e-09
1.13556e-09
-1.31269e-09
-4.534e-10
-1.41053e-08
-5.20188e-10
-1.31581e-08
1.18344e-08
-1.12175e-08
-6.60195e-08
6.49402e-08
1.07924e-09
6.04418e-10
-6.0558e-10
1.14679e-08
-5.69208e-10
2.76264e-11
-1.7638e-09
2.75073e-09
-3.38558e-09
-1.34754e-08
-1.58732e-09
2.50814e-09
-4.5066e-09
-1.36927e-08
1.86213e-09
5.61401e-09
9.29719e-09
-8.68969e-09
-5.96314e-10
2.71055e-11
-9.37205e-09
-1.22372e-08
3.00418e-10
-6.26013e-08
4.0865e-10
6.21926e-08
6.99126e-10
6.34442e-08
-4.60149e-10
-7.03443e-10
-1.42064e-08
7.8086e-11
-6.33286e-08
6.32505e-08
1.30193e-10
-6.32516e-08
6.31215e-08
6.26044e-10
6.14504e-08
-8.1761e-12
-6.14423e-08
6.16324e-08
-1.81939e-10
-8.78693e-08
8.84955e-08
1.08372e-11
9.15119e-08
-9.17659e-08
-8.17787e-11
-8.66467e-08
-4.08685e-10
9.09948e-08
1.01298e-10
-8.49493e-08
-7.23256e-10
9.07564e-08
3.45593e-10
-5.41194e-10
2.03231e-09
8.94722e-08
-6.9353e-08
6.1528e-08
-6.18182e-08
-6.29756e-08
6.1769e-08
-1.36608e-10
-3.03745e-09
2.67712e-09
-1.33318e-08
1.04475e-10
2.60689e-10
2.61986e-09
1.02986e-08
-1.23667e-08
3.84264e-08
-3.46067e-08
-1.61852e-08
1.41584e-08
-1.00529e-10
-2.12844e-10
3.67086e-10
1.01478e-09
-2.07851e-10
4.41808e-10
4.70653e-09
1.08182e-09
-3.88586e-09
-5.26012e-10
6.01632e-10
-4.2713e-10
-2.42391e-09
1.25967e-08
2.18245e-09
-1.44013e-08
-2.16176e-09
-3.88622e-09
5.69504e-09
1.11112e-09
-2.34551e-09
1.39186e-08
-1.18712e-09
-5.11626e-09
8.41656e-09
-7.7387e-09
-1.87955e-08
-1.27742e-08
7.65218e-09
5.68914e-09
-3.23713e-10
-5.17263e-10
3.31997e-09
1.42901e-08
1.57707e-09
-1.03289e-09
-5.0429e-10
5.37761e-10
-3.19995e-10
1.5818e-08
-4.56575e-10
-1.5685e-08
-5.73501e-09
-3.01887e-09
2.91894e-10
-2.63263e-10
4.57069e-09
-1.88032e-08
6.9719e-10
-1.76653e-09
-2.39764e-09
-2.12911e-09
1.51237e-08
-9.05556e-08
-3.74402e-10
9.19254e-08
-8.57376e-11
-8.92271e-08
-4.68632e-10
9.22585e-08
-8.62179e-11
-9.25167e-08
-6.8674e-10
-1.8591e-09
1.59522e-08
9.22177e-08
-3.17921e-11
-3.2486e-11
3.24383e-11
1.1589e-08
1.99931e-09
-1.04475e-08
-1.17406e-08
-5.48234e-09
8.44096e-09
1.39626e-09
-6.91105e-09
-6.59083e-09
9.13284e-09
-3.03104e-10
1.01379e-08
1.89368e-08
-1.75468e-08
3.00144e-09
-1.23018e-08
3.04128e-09
-7.00364e-08
4.0169e-09
-2.02521e-08
-1.23988e-08
-6.43506e-10
-5.70799e-09
-1.53597e-08
9.22176e-09
-1.50819e-08
6.24287e-10
5.308e-10
-1.43841e-09
-1.59552e-08
1.65094e-08
1.02475e-08
-1.01498e-08
-5.55307e-09
1.46349e-08
-1.52699e-09
8.10653e-10
-1.59901e-09
6.82479e-10
1.19171e-08
3.46246e-09
7.1032e-08
-1.78207e-08
9.72275e-10
-1.44453e-08
-3.34424e-10
-3.76209e-10
-2.6619e-10
6.16921e-08
-6.17784e-08
-6.33611e-08
-6.32834e-08
-5.68956e-11
9.38409e-12
-9.24692e-08
-6.20897e-08
6.4122e-08
6.50234e-08
-6.17441e-08
6.44822e-08
-6.16428e-08
6.37589e-08
-6.17246e-08
6.33502e-08
9.23732e-08
4.22124e-10
-6.5637e-09
7.49315e-08
-6.49054e-08
1.50985e-10
-1.50985e-10
2.42013e-09
-3.89883e-10
1.54629e-08
-1.76682e-10
1.76682e-10
5.43907e-10
1.26452e-09
1.41643e-08
1.26764e-08
-2.50187e-09
3.52922e-09
6.47599e-09
1.90063e-09
4.95516e-10
-3.55892e-10
-2.8609e-09
1.4281e-08
1.47911e-08
-4.3528e-09
1.13994e-08
2.95669e-10
2.30931e-10
3.03828e-09
-1.07578e-09
-1.83269e-09
-5.84048e-09
-1.64666e-10
-5.23476e-10
1.51558e-08
4.09905e-10
1.9895e-10
1.71879e-08
-2.49945e-08
1.70261e-08
2.53103e-09
1.53396e-09
2.05102e-09
-3.46771e-09
1.88536e-08
-1.74369e-08
-1.61741e-10
1.05258e-09
-1.52354e-09
-7.9104e-08
-7.08765e-08
1.4881e-09
-1.26868e-09
7.50699e-10
2.26307e-08
1.80334e-08
-6.4131e-09
2.24221e-10
-4.53303e-09
-1.79759e-09
3.01039e-08
1.55538e-10
1.47185e-08
7.11497e-08
1.26423e-10
5.90558e-10
-2.4363e-10
-3.16845e-10
-3.92698e-09
2.33617e-08
-1.46772e-08
1.27199e-09
-1.35199e-08
-1.09703e-10
2.01984e-08
-2.78752e-08
9.0544e-10
2.68155e-09
-7.78486e-10
)
;

boundaryField
{
    back
    {
        type            empty;
        value           nonuniform 0();
    }
    ingreso
    {
        type            calculated;
        value           nonuniform List<scalar> 
14
(
-1.54286e-08
-1.54288e-08
-1.54288e-08
-1.54288e-08
-1.54286e-08
-1.54283e-08
-1.54288e-08
-1.54288e-08
-1.54286e-08
-1.54286e-08
-1.54288e-08
-1.5428e-08
-1.5428e-08
-1.54286e-08
)
;
    }
    salida
    {
        type            calculated;
        value           nonuniform List<scalar> 2(1.02816e-07 1.13184e-07);
    }
    front
    {
        type            empty;
        value           nonuniform 0();
    }
    defaultFaces
    {
        type            calculated;
        value           uniform 0;
    }
}


// ************************************************************************* //
