/*--------------------------------*- C++ -*----------------------------------*\
  =========                 |
  \\      /  F ield         | OpenFOAM: The Open Source CFD Toolbox
   \\    /   O peration     | Website:  https://openfoam.org
    \\  /    A nd           | Version:  8
     \\/     M anipulation  |
\*---------------------------------------------------------------------------*/
FoamFile
{
    version     2.0;
    format      ascii;
    class       volScalarField;
    location    "2";
    object      p;
}
// * * * * * * * * * * * * * * * * * * * * * * * * * * * * * * * * * * * * * //

dimensions      [0 2 -2 0 0 0 0];

internalField   nonuniform List<scalar> 
5490
(
7.64052e-06
8.20104e-06
6.54849e-06
7.77339e-06
1.29578e-06
1.31012e-05
1.36246e-05
1.35762e-05
5.45348e-06
1.35466e-05
6.05829e-06
5.62828e-06
4.71792e-06
5.26593e-06
5.27605e-06
1.35966e-05
1.36283e-05
1.31978e-05
7.46017e-06
5.61575e-06
3.88671e-06
1.36235e-05
1.33698e-05
1.3623e-05
3.82473e-06
4.27237e-06
4.85304e-06
7.50667e-06
1.28619e-05
2.74357e-06
7.22349e-06
1.36152e-05
1.09274e-05
9.45865e-06
3.30679e-06
6.99358e-06
1.27886e-05
7.42805e-06
1.76064e-06
3.64632e-06
7.25794e-06
1.27891e-05
6.38748e-06
1.28634e-05
1.37468e-05
9.31621e-06
2.58889e-06
1.91169e-06
7.50585e-06
1.1814e-05
1.35625e-05
2.89421e-06
3.41742e-06
1.52994e-06
4.57353e-06
9.53739e-06
1.26598e-05
1.42101e-05
5.37731e-06
2.85843e-06
1.28342e-05
7.07887e-07
8.81178e-06
1.35881e-05
1.36256e-05
1.34632e-05
1.35547e-05
1.28976e-05
2.31159e-06
1.37654e-05
1.84063e-06
3.88689e-06
1.35523e-05
1.35969e-05
1.35389e-05
3.29441e-06
1.32014e-05
6.70841e-07
7.82886e-06
6.44535e-06
1.27778e-05
1.19253e-05
1.29567e-05
7.58103e-06
1.18625e-06
8.59058e-06
1.31936e-05
1.3157e-05
3.60626e-06
1.27734e-05
1.3632e-05
1.30358e-05
1.59539e-06
1.37482e-05
7.30243e-06
1.36087e-05
5.68706e-06
1.30413e-05
1.30326e-05
4.38036e-06
5.38767e-06
3.37036e-06
9.49053e-06
1.36276e-05
9.68099e-06
9.17263e-06
3.34439e-06
1.25404e-05
1.36014e-05
1.36167e-05
1.36351e-05
1.35783e-05
1.35631e-05
9.40889e-06
6.72786e-06
1.28771e-05
7.93513e-06
1.3461e-05
1.34597e-05
2.98385e-06
9.71938e-06
1.10503e-05
1.29488e-05
7.7027e-06
1.36336e-05
1.35042e-05
5.11991e-06
9.50447e-07
1.36478e-05
4.99016e-06
1.35822e-05
1.27876e-05
4.08445e-06
6.19901e-06
2.06821e-06
1.36008e-05
1.40148e-05
1.35394e-05
1.3546e-05
9.12867e-06
1.36353e-05
1.36336e-05
4.02044e-06
1.26917e-05
1.36008e-05
1.36862e-05
5.20739e-08
1.36751e-05
3.04251e-06
1.2971e-05
1.36173e-05
1.3614e-05
5.52119e-06
1.36337e-05
1.26199e-05
1.36278e-05
1.36212e-05
1.35572e-05
1.36876e-05
5.07808e-06
6.51598e-06
1.23666e-05
1.26158e-05
1.34494e-05
1.35854e-05
1.33425e-05
1.36117e-05
5.89334e-07
1.31856e-05
3.13555e-07
1.41021e-05
1.0042e-06
4.23171e-06
1.36126e-05
5.82637e-06
2.50093e-06
3.27018e-06
1.36352e-05
4.17021e-06
5.16558e-06
1.37344e-05
1.36011e-05
8.12422e-06
7.28343e-06
1.36295e-05
2.1592e-06
2.94771e-06
1.45298e-06
1.36166e-05
1.35907e-05
1.41363e-05
1.9391e-06
7.84407e-06
1.36144e-05
1.35315e-05
6.8645e-06
9.52626e-06
1.36262e-05
1.29878e-05
3.0364e-06
1.3502e-05
9.06566e-06
1.36307e-05
1.36409e-05
1.15088e-05
1.43475e-05
1.36104e-05
1.34815e-05
6.09283e-06
1.31729e-05
1.38062e-05
1.36118e-05
7.36637e-06
7.06041e-06
6.70741e-06
9.24883e-06
6.46723e-06
6.22359e-06
1.3899e-05
1.36254e-05
1.33187e-05
1.36146e-05
1.22175e-05
4.42707e-06
4.14734e-06
1.09504e-06
3.23109e-06
3.29604e-06
1.68722e-06
1.36215e-05
1.48618e-06
1.2791e-05
1.36143e-05
1.35535e-05
8.98379e-06
1.24825e-05
1.35157e-05
1.3617e-05
1.36284e-05
4.99219e-06
1.36267e-05
6.70758e-06
3.85253e-07
2.85224e-06
1.36328e-05
1.33244e-05
1.29333e-05
1.04431e-05
1.2713e-05
1.36106e-05
1.36327e-05
1.1144e-05
1.36696e-05
1.27738e-05
2.6631e-06
9.09891e-06
1.06729e-05
3.40753e-06
5.75973e-06
1.34824e-05
1.29082e-05
7.90496e-06
8.03528e-06
1.39096e-05
1.36145e-05
1.3222e-05
9.75243e-06
1.28381e-05
1.36198e-05
1.35824e-05
1.36068e-05
6.60161e-06
1.36188e-05
1.34923e-05
1.1186e-05
1.36132e-05
1.35908e-05
1.74378e-06
7.46011e-06
9.786e-06
1.36286e-05
1.3615e-05
1.36273e-05
1.25833e-05
5.91344e-06
1.35571e-05
1.2563e-05
1.36133e-05
1.23429e-05
5.38546e-06
1.15533e-06
1.27581e-05
1.30678e-05
9.81849e-06
5.14493e-06
1.33743e-05
1.36366e-05
1.36125e-05
1.27612e-06
1.2864e-05
8.38288e-06
1.35101e-05
7.69503e-06
1.29229e-05
4.5848e-06
1.66283e-06
1.39277e-05
1.35659e-05
8.35023e-06
1.96136e-06
4.14083e-06
1.3325e-05
1.29914e-05
8.8515e-06
5.50963e-06
9.439e-06
1.99273e-07
1.37598e-05
1.17305e-05
1.36335e-05
1.35737e-05
3.20833e-06
4.83922e-06
1.35409e-05
1.3624e-05
1.83452e-06
1.00174e-06
4.68668e-06
1.32736e-05
7.32862e-06
8.87298e-06
1.36102e-05
1.36172e-05
1.2583e-05
7.01515e-06
2.45834e-06
1.36366e-05
5.39794e-06
1.36323e-05
1.35663e-05
1.37754e-05
1.35784e-05
8.09968e-06
8.92104e-06
5.67661e-06
1.6041e-06
1.74678e-06
1.3626e-05
8.13162e-06
1.44963e-06
1.36343e-05
8.41905e-06
3.06185e-06
3.32107e-06
5.22255e-06
1.36091e-05
6.17447e-06
9.76041e-06
1.3771e-05
7.65981e-06
8.34247e-06
4.76525e-06
1.37348e-05
1.41284e-06
1.95249e-06
8.21141e-07
1.33017e-06
1.35818e-05
1.37012e-05
9.59984e-06
1.70849e-06
3.18495e-06
3.16326e-06
1.36107e-05
1.21171e-05
1.3611e-05
1.36421e-05
4.3437e-06
1.35505e-05
1.29625e-05
1.76606e-06
3.18373e-06
8.70507e-06
9.26272e-06
1.09064e-05
4.89672e-06
5.65752e-06
3.81858e-06
4.41936e-06
1.36122e-05
1.26951e-05
5.10146e-06
1.36059e-05
8.57045e-07
4.19634e-06
4.17416e-06
4.18129e-06
1.36046e-05
2.184e-06
3.2041e-06
1.37773e-05
1.21373e-05
1.29555e-06
1.31581e-05
4.79797e-06
1.36189e-05
1.36275e-05
1.36162e-05
1.36021e-05
2.79888e-06
1.00645e-05
1.36228e-05
7.65537e-06
1.17459e-05
6.14161e-06
4.19492e-06
3.42783e-06
1.36155e-05
1.36362e-05
8.90121e-06
3.03326e-06
9.57058e-06
1.06163e-05
5.34043e-06
1.27107e-05
1.32842e-05
5.1296e-06
1.36092e-05
1.59791e-06
1.36122e-05
5.98765e-06
5.9756e-06
5.97787e-06
6.99356e-07
1.33162e-05
1.36151e-05
1.35265e-05
1.26917e-05
4.4808e-06
1.88393e-06
1.00378e-05
7.16991e-06
1.69139e-06
1.3124e-05
7.87467e-06
1.35705e-05
9.27015e-06
1.36045e-05
1.3614e-05
1.3234e-05
7.02607e-06
1.36095e-05
5.98143e-06
5.18568e-06
7.01054e-06
7.01773e-06
1.35842e-05
1.36124e-05
7.92838e-06
7.7588e-06
8.06825e-06
1.62033e-06
9.13071e-06
1.01818e-05
1.32797e-05
9.34051e-06
6.66752e-06
1.32589e-05
8.73775e-06
1.16787e-05
9.42817e-06
7.01806e-06
6.25833e-06
5.45557e-06
1.54788e-07
1.29913e-05
1.32432e-05
9.89793e-06
9.72175e-06
1.36048e-05
1.35983e-05
9.27736e-06
8.69629e-06
8.2873e-08
7.29879e-06
1.62172e-06
1.38442e-05
9.58217e-06
8.39117e-06
4.32805e-07
4.85054e-06
9.77782e-07
8.12176e-06
1.35822e-05
1.27319e-05
1.36041e-05
1.35787e-05
1.36164e-05
1.89201e-06
1.3809e-06
1.84721e-06
1.79007e-06
1.36168e-05
1.36035e-05
1.3483e-05
8.17749e-06
3.49507e-06
8.49898e-06
1.24662e-05
1.30067e-05
1.33005e-05
1.29127e-05
1.36062e-05
1.35929e-05
1.36057e-05
1.36153e-05
1.26723e-05
1.61433e-06
8.23622e-06
1.32798e-05
1.31119e-05
1.36034e-05
1.28272e-05
1.27622e-05
1.36225e-05
1.35812e-05
2.11636e-06
1.33042e-05
1.35873e-05
9.20684e-07
1.36315e-05
2.10541e-06
1.41283e-05
1.41027e-05
9.04314e-06
1.14467e-05
1.36095e-05
1.27558e-05
1.3616e-05
4.74138e-06
1.35273e-05
1.27703e-05
1.34422e-05
1.18534e-05
1.36003e-05
1.35869e-05
1.26041e-05
1.26091e-05
1.34377e-05
1.36132e-05
7.24207e-06
1.09208e-05
8.55794e-07
1.33976e-05
1.35711e-05
2.29794e-06
1.33801e-05
1.35855e-05
8.44597e-07
1.3603e-05
1.36347e-05
1.36012e-05
1.36192e-05
1.36522e-05
1.25731e-05
1.06401e-05
1.32762e-05
1.03504e-05
2.24132e-06
1.36431e-05
8.08636e-07
1.26814e-05
1.36188e-05
1.34849e-05
1.36099e-05
1.36249e-05
1.33303e-05
1.00272e-05
1.203e-05
2.725e-06
1.36159e-05
1.30459e-05
1.2788e-05
1.73375e-06
9.78983e-06
1.38006e-06
1.20752e-05
1.36071e-05
1.35604e-05
1.3608e-05
1.3346e-05
1.34931e-05
1.3618e-05
1.32714e-05
1.36042e-05
1.35862e-05
1.35791e-05
1.3635e-05
1.36219e-05
1.35747e-05
1.49256e-06
3.4226e-06
1.30391e-05
1.36307e-05
7.30967e-06
1.84577e-06
5.58895e-06
1.3379e-05
2.02376e-06
9.19136e-06
1.35995e-05
1.3588e-05
1.28596e-05
5.81766e-06
6.93537e-06
1.81533e-06
1.36101e-05
1.2804e-05
1.36115e-05
1.06809e-05
1.39614e-05
1.90394e-06
1.76439e-06
2.94385e-06
2.58555e-07
1.36114e-05
1.35815e-05
6.82274e-06
1.3422e-05
1.26197e-05
1.36014e-05
1.26479e-05
1.35655e-05
1.15552e-05
1.29171e-05
2.71416e-06
1.02088e-05
1.97297e-06
1.26525e-05
1.38686e-05
1.3846e-05
1.28435e-05
1.36169e-05
1.35879e-05
1.29817e-05
1.49935e-06
9.91897e-06
1.38423e-05
1.32866e-05
3.96974e-06
1.13036e-05
1.32885e-05
9.47508e-06
1.36338e-05
1.36687e-05
1.31369e-05
1.36186e-05
1.3406e-05
1.26857e-05
1.25831e-05
1.27564e-05
1.02566e-05
1.25263e-05
1.36036e-05
2.56034e-06
1.39929e-05
8.25415e-06
1.11358e-05
1.28121e-05
1.34679e-05
1.35817e-05
1.38413e-05
1.3007e-05
1.34365e-05
1.31873e-05
1.26286e-05
1.32284e-05
5.79801e-06
1.30931e-05
1.29387e-05
1.35836e-05
1.2571e-05
8.97923e-06
9.94253e-06
9.69002e-06
1.39691e-05
1.36063e-05
1.35324e-05
1.36183e-05
2.00468e-06
1.26656e-05
1.36192e-05
4.94778e-06
9.91539e-06
1.36061e-05
1.36166e-05
1.26819e-05
1.36125e-05
1.04691e-05
1.25743e-05
1.28116e-05
4.33092e-06
1.05517e-05
1.27381e-05
6.83231e-06
1.36188e-05
1.32888e-05
1.27363e-05
1.28158e-05
1.00513e-05
1.30294e-05
1.2807e-05
1.3137e-05
1.38324e-05
1.36022e-05
1.35902e-05
1.36139e-05
1.03986e-05
1.03899e-05
1.2777e-05
1.35961e-05
9.8783e-06
5.26288e-06
1.34452e-05
2.29181e-06
1.31425e-05
1.36158e-05
9.25785e-06
9.66299e-06
9.62482e-06
1.35911e-05
1.25312e-05
1.24314e-05
1.27987e-05
1.29425e-05
1.35993e-05
1.32929e-05
1.2775e-05
9.12569e-06
1.36157e-05
1.28374e-05
1.13533e-05
7.91193e-06
1.18407e-05
5.40485e-06
1.34292e-05
1.28985e-05
1.36178e-05
1.27798e-05
1.39066e-05
1.33205e-05
1.14284e-06
1.33538e-05
1.36266e-05
1.34634e-05
9.96051e-06
1.33759e-05
1.36142e-05
1.27629e-05
1.2713e-05
1.31381e-05
1.36069e-05
9.94345e-06
1.36115e-05
4.53467e-06
1.36179e-05
1.36991e-05
1.02744e-05
5.09132e-06
5.63734e-06
1.37805e-05
9.98682e-06
1.30236e-05
1.04559e-05
1.31758e-05
1.29625e-05
1.34605e-05
1.90328e-06
1.30371e-05
1.36197e-05
5.2152e-06
1.32653e-05
1.15588e-05
1.30303e-05
9.5771e-06
1.02467e-05
1.28819e-05
1.36175e-05
1.35946e-05
1.30224e-05
1.32228e-05
1.34736e-05
1.01321e-05
9.31145e-06
1.28178e-05
1.30768e-05
7.95766e-06
1.31805e-05
1.35961e-05
1.34941e-05
7.59881e-07
1.30353e-05
1.30289e-05
9.48587e-06
1.33167e-05
1.36007e-05
1.36235e-05
1.31606e-05
9.35667e-06
1.36322e-05
1.33001e-05
1.35763e-05
1.01849e-05
1.36212e-05
1.06904e-05
1.31794e-05
1.3104e-05
1.36025e-05
3.5659e-06
9.86763e-06
8.97236e-07
5.84947e-06
1.32452e-05
9.24198e-06
1.36918e-05
1.29948e-05
5.50691e-06
2.44172e-06
1.40563e-05
1.34282e-05
1.36249e-05
1.33651e-05
5.05108e-06
1.04212e-05
1.1299e-05
1.36204e-05
1.3611e-05
1.32145e-05
1.38941e-05
1.35961e-05
4.04008e-06
1.30969e-05
3.47844e-06
1.1013e-05
1.2898e-05
1.05381e-05
1.27281e-05
1.3641e-05
1.3228e-05
1.24865e-05
3.14351e-06
3.09208e-06
1.30847e-05
1.32076e-05
1.35406e-05
1.36197e-05
1.35201e-05
1.36007e-05
1.3433e-05
9.75422e-06
1.38155e-05
1.36137e-05
2.39283e-06
4.50075e-06
1.29507e-05
1.31804e-05
1.28642e-06
1.36242e-05
1.35133e-05
8.98884e-06
1.35899e-05
1.11892e-05
1.32338e-05
1.13226e-05
1.34531e-05
1.3598e-05
4.67425e-06
1.08934e-05
1.30731e-05
5.24796e-06
1.34124e-05
1.18125e-05
9.94806e-06
1.05374e-05
1.34761e-05
1.34943e-05
1.26892e-05
1.34204e-05
1.33465e-05
9.61792e-06
1.3617e-05
1.36062e-05
1.30927e-05
1.31542e-06
6.3e-06
8.94266e-06
9.87222e-07
1.33728e-05
1.3657e-05
1.07584e-05
1.04992e-05
1.31478e-05
1.24108e-05
1.34984e-05
1.35636e-05
1.31028e-05
1.34306e-05
1.12278e-05
1.69586e-06
1.35991e-05
9.59001e-06
1.36073e-05
9.55031e-06
9.67806e-06
1.35093e-05
1.33145e-05
1.32346e-05
1.36296e-05
1.3321e-05
1.36109e-05
1.35083e-05
1.35201e-05
1.28137e-05
1.0104e-06
1.35957e-05
1.39278e-05
1.36112e-05
1.20101e-05
1.38116e-05
9.07447e-06
9.08204e-06
1.35784e-05
1.32192e-05
1.34267e-05
1.32727e-05
1.35505e-05
1.13378e-05
1.35873e-05
1.38091e-05
1.36006e-05
1.3755e-05
1.35211e-05
1.35981e-05
1.30756e-05
1.3692e-05
1.38928e-05
1.35615e-05
1.07839e-05
9.77508e-06
1.34476e-05
1.40108e-05
1.36164e-05
1.34978e-05
1.36085e-05
1.36074e-05
1.34804e-05
1.39419e-05
1.36339e-05
1.0627e-05
1.36186e-05
1.02842e-05
1.36e-05
1.36309e-05
1.34595e-05
1.35091e-05
1.29295e-05
1.3835e-05
1.02145e-05
1.33119e-05
1.31479e-05
1.3521e-05
1.27441e-05
1.391e-05
1.38578e-05
1.35675e-05
1.0277e-05
1.0468e-05
1.31234e-05
1.29623e-05
1.36225e-05
1.35097e-05
1.11118e-05
9.51491e-06
1.3496e-05
1.35652e-05
2.1033e-06
1.19596e-05
1.34754e-05
1.35937e-05
1.08831e-05
1.33523e-05
9.81111e-06
1.36411e-05
1.36169e-05
1.35845e-05
9.90971e-06
1.37973e-05
1.36444e-05
1.36875e-05
1.3501e-05
1.01323e-05
1.34838e-05
1.35856e-05
9.06238e-07
1.04751e-05
3.22825e-06
1.36252e-05
1.36253e-05
1.35968e-05
1.36372e-05
1.35126e-05
1.36107e-05
1.28581e-05
1.31302e-05
1.3585e-05
1.34133e-05
9.72395e-06
1.32704e-05
1.34082e-05
1.3596e-05
1.41937e-06
1.35913e-05
1.35902e-05
1.35764e-05
1.38838e-05
1.34484e-05
1.3601e-05
1.35522e-05
2.37625e-06
1.35972e-05
1.42425e-05
1.36952e-05
1.36155e-05
1.36139e-05
1.35831e-05
4.64554e-06
1.35492e-05
1.30552e-05
1.02862e-05
1.40116e-05
1.35876e-05
1.36166e-05
1.34701e-05
1.33465e-05
1.35924e-05
1.36168e-05
1.35995e-05
1.3624e-05
1.34914e-05
1.06345e-05
1.36299e-05
1.3578e-05
1.36118e-05
1.33444e-05
1.3671e-05
1.3565e-05
1.36055e-05
1.36272e-05
1.37705e-05
1.3577e-05
1.27964e-05
1.06858e-05
1.36055e-05
1.3876e-05
1.35431e-05
1.00691e-05
1.35739e-05
1.35866e-05
1.36166e-05
1.36179e-05
1.3606e-05
1.34612e-05
1.35988e-05
1.3499e-05
1.36205e-05
7.83683e-06
1.42319e-05
1.35684e-05
9.35507e-06
1.35413e-05
1.28664e-05
1.36059e-05
1.36466e-05
1.3613e-05
1.16497e-05
1.36157e-05
1.36164e-05
1.36985e-05
7.97921e-06
1.36045e-05
1.36154e-05
9.97884e-06
1.36235e-05
1.36024e-05
1.35965e-05
1.35488e-05
1.35975e-05
1.36155e-05
1.34919e-05
1.35926e-05
1.33766e-05
5.67123e-06
9.28675e-06
1.36445e-05
1.36874e-05
1.35971e-05
1.35939e-05
4.91488e-06
1.35941e-05
1.37531e-05
1.34581e-05
1.36532e-05
9.61619e-06
1.3647e-05
1.36318e-05
1.35199e-05
1.36211e-05
1.28292e-05
1.364e-05
1.33978e-05
8.75129e-06
3.8666e-06
1.36154e-05
1.36266e-05
1.36148e-05
1.36221e-05
1.36243e-05
7.59754e-06
1.34949e-05
1.36413e-05
9.43064e-06
1.36454e-05
1.35888e-05
1.37533e-05
1.36711e-05
1.35938e-05
1.35423e-05
2.94741e-06
1.36249e-05
1.38301e-05
1.08738e-05
1.26933e-05
9.87444e-06
8.84749e-06
1.36221e-05
1.36039e-05
1.36012e-05
1.36241e-05
1.35876e-05
1.05301e-05
8.46501e-06
1.38638e-05
1.3608e-05
1.36021e-05
9.48812e-06
1.36196e-05
1.35783e-05
1.3554e-05
1.36041e-05
1.36182e-05
1.36321e-05
1.3627e-05
1.36186e-05
1.42055e-05
1.01271e-05
1.39008e-05
1.3601e-05
1.02113e-05
1.35996e-05
1.38821e-05
1.36201e-05
1.39151e-05
1.36297e-05
7.14755e-06
1.35668e-05
1.3622e-05
1.3602e-05
1.38317e-05
1.38521e-05
9.54978e-06
1.36005e-05
1.37519e-05
1.38303e-05
1.42227e-05
1.36086e-05
1.36175e-05
1.36156e-05
1.36975e-05
1.3602e-05
1.36208e-05
1.36178e-05
9.8913e-06
1.07769e-05
1.36198e-05
1.03877e-05
1.35386e-05
1.35942e-05
1.36028e-05
1.36204e-05
1.0479e-05
5.95896e-06
1.36179e-05
1.38338e-05
1.36031e-05
1.35527e-05
1.37503e-05
1.36151e-05
1.36349e-05
9.58595e-06
1.35623e-05
1.36044e-05
1.35168e-05
1.00071e-05
1.36348e-05
9.97337e-06
1.37698e-05
1.3859e-05
1.35997e-05
1.36034e-05
1.36212e-05
1.36694e-05
1.36109e-05
1.36124e-05
1.35988e-05
1.35994e-05
1.36098e-05
1.35719e-05
1.36006e-05
1.09021e-05
1.36102e-05
1.36179e-05
1.35898e-05
1.36898e-05
1.35997e-05
1.36031e-05
1.36476e-05
1.36983e-05
3.00856e-06
1.35992e-05
1.35988e-05
1.35795e-05
1.35911e-05
1.36239e-05
1.35475e-05
1.39143e-05
9.6913e-06
1.36028e-05
1.35805e-05
1.37624e-05
1.01901e-05
1.36018e-05
1.35993e-05
4.58771e-08
1.36136e-05
1.38175e-05
1.36104e-05
1.35742e-05
1.36164e-05
4.04755e-06
7.43832e-06
1.39375e-05
1.35777e-05
1.39559e-05
9.16922e-06
1.35602e-05
5.13107e-06
1.35713e-05
1.35233e-05
1.36019e-05
1.36198e-05
9.23073e-06
1.38745e-05
9.87858e-06
1.35604e-05
1.00539e-05
1.38721e-05
1.36268e-05
1.36151e-05
1.38153e-05
1.3619e-05
1.36051e-05
1.33358e-05
1.35663e-05
1.35978e-05
1.36083e-05
1.27877e-05
1.36203e-05
1.42462e-05
1.36089e-05
1.36984e-05
1.35872e-05
9.61779e-06
1.36023e-05
1.36186e-05
1.36077e-05
1.29265e-05
1.35693e-05
1.379e-05
9.7407e-06
9.83376e-06
5.83947e-06
1.36097e-05
1.36273e-05
9.6293e-06
1.35756e-05
1.36085e-05
1.36311e-05
1.36108e-05
1.36487e-05
1.36073e-05
1.3936e-05
1.38831e-05
1.36244e-05
1.35791e-05
1.36047e-05
1.36059e-05
1.35987e-05
1.37632e-05
1.36335e-05
1.35825e-05
1.36177e-05
1.00964e-05
1.3204e-05
1.38578e-05
1.37681e-05
1.35709e-05
8.40066e-06
6.88275e-06
1.36231e-05
1.36198e-05
1.3567e-05
1.35881e-05
1.359e-05
9.6898e-06
1.35971e-05
1.35876e-05
9.82916e-06
1.36405e-05
1.35969e-05
1.36226e-05
1.36656e-05
1.36245e-05
1.37836e-05
4.93696e-06
4.96544e-06
1.41413e-05
1.35656e-05
1.36257e-05
1.36017e-05
1.00308e-05
1.36384e-05
1.35927e-05
1.37949e-05
1.36227e-05
1.41721e-05
1.36148e-05
1.36212e-05
4.64785e-06
9.71648e-06
1.56263e-06
1.36178e-05
1.36031e-05
2.97812e-06
1.35893e-05
9.9694e-06
1.36115e-05
8.33365e-06
1.38521e-05
1.36183e-05
1.33556e-05
1.36036e-05
1.01494e-05
9.87809e-06
9.11056e-06
1.35851e-05
1.36188e-05
1.36275e-05
1.36125e-05
1.36043e-05
1.38608e-05
1.01252e-05
1.36187e-05
1.36021e-05
1.35898e-05
1.3572e-05
1.36018e-05
4.96663e-06
1.35956e-05
1.36177e-05
1.36041e-05
1.36114e-05
1.36154e-05
9.20158e-06
1.42235e-05
1.40143e-05
1.35734e-05
1.37463e-05
1.36258e-05
1.36183e-05
1.36103e-05
8.52723e-06
1.36636e-05
1.36956e-05
1.38658e-05
1.36185e-05
1.36145e-05
1.36024e-05
1.31876e-05
1.36958e-05
8.16479e-06
8.70621e-06
1.3629e-05
1.36217e-05
1.36224e-05
1.35914e-05
1.36022e-05
1.36703e-05
1.35675e-05
3.58803e-06
1.36125e-05
1.3613e-05
8.77083e-06
1.36039e-05
8.60396e-06
1.36015e-05
1.30353e-05
1.35986e-05
1.36139e-05
1.36218e-05
9.57093e-06
1.37082e-05
1.35793e-05
1.35975e-05
1.39789e-05
1.36207e-05
1.36041e-05
1.363e-05
1.36138e-05
8.86095e-06
1.36178e-05
1.36113e-05
1.36088e-05
1.36833e-05
1.35967e-05
1.35978e-05
5.39998e-06
8.80297e-06
1.3595e-05
9.34064e-06
1.36131e-05
1.3692e-05
1.36108e-05
1.3612e-05
1.36127e-05
1.36289e-05
1.38753e-05
1.37925e-05
1.36154e-05
1.36177e-05
1.38877e-05
1.35551e-05
1.09961e-05
1.36208e-05
1.3571e-05
1.38168e-05
1.38445e-05
1.36131e-05
1.36123e-05
1.36227e-05
1.35161e-05
9.11664e-06
1.3705e-05
1.36153e-05
9.26129e-06
1.36365e-05
8.89822e-06
1.36248e-05
1.36146e-05
1.36004e-05
1.36102e-05
1.35875e-05
1.36232e-05
7.02653e-06
1.38819e-05
1.36328e-05
1.35759e-05
1.35994e-05
1.35562e-05
1.36128e-05
1.3524e-05
1.36169e-05
1.35982e-05
1.36198e-05
8.64607e-06
1.36157e-05
1.37878e-05
1.37049e-05
1.36185e-05
8.99487e-06
1.36203e-05
1.36023e-05
1.38184e-05
1.37614e-05
1.34709e-05
9.08682e-06
1.3618e-05
1.36208e-05
1.35298e-05
1.36131e-05
1.3612e-05
1.36176e-05
9.43731e-06
1.36135e-05
1.35984e-05
8.64352e-06
1.35828e-05
1.36161e-05
1.36051e-05
1.36828e-05
1.35823e-05
1.37754e-05
1.38271e-05
8.95315e-06
9.09158e-06
1.34453e-05
1.46467e-06
1.40428e-05
1.3617e-05
1.36042e-05
1.36325e-05
9.21015e-06
1.37864e-05
1.36684e-05
1.36101e-05
1.35981e-05
1.36101e-05
9.24078e-06
9.43551e-06
9.00817e-06
8.58996e-06
8.50641e-06
1.69787e-06
4.02634e-06
1.36166e-05
1.3619e-05
8.66218e-06
8.38408e-06
8.80771e-06
1.36036e-05
1.35613e-05
1.3622e-05
1.35968e-05
1.36089e-05
1.3615e-05
1.36252e-05
1.36235e-05
1.36108e-05
1.36161e-05
1.36112e-05
1.36155e-05
5.81613e-06
1.36105e-05
1.36183e-05
1.36143e-05
1.36159e-05
1.3616e-05
1.36136e-05
9.19632e-06
1.27826e-05
1.36164e-05
1.41346e-05
1.41558e-05
1.36282e-05
8.25531e-06
1.37523e-05
1.36168e-05
6.8609e-06
1.36113e-05
1.36131e-05
9.0696e-06
8.82266e-06
9.1427e-06
9.22189e-06
8.32074e-06
1.37442e-05
1.36043e-05
1.36247e-05
1.38182e-05
1.36163e-05
1.36116e-05
1.36986e-05
8.39338e-06
8.23458e-06
1.3802e-05
1.36258e-05
1.36149e-05
1.36213e-05
1.36225e-05
9.36735e-06
8.64701e-06
8.45923e-06
1.36161e-05
1.36134e-05
1.40983e-05
1.36179e-05
1.396e-05
1.35965e-05
9.87337e-06
1.37034e-05
1.36255e-05
7.90002e-06
8.36829e-06
8.72193e-06
1.36321e-05
1.28645e-05
1.36096e-05
1.92921e-06
8.2888e-06
9.36553e-06
1.36311e-05
1.35757e-05
8.51327e-06
1.36015e-05
8.91114e-06
1.35769e-05
1.3598e-05
1.3616e-05
8.17055e-06
1.37508e-05
1.35303e-05
1.36227e-05
1.3621e-05
1.36188e-05
7.93157e-06
1.36163e-05
8.92236e-06
1.36242e-05
1.35946e-05
1.38258e-05
9.05525e-06
1.36174e-05
8.25457e-06
1.36079e-05
1.38043e-05
8.82981e-06
1.36082e-05
8.0993e-06
1.36304e-05
8.09727e-06
9.00033e-06
1.35958e-05
1.36198e-05
8.75699e-06
8.87779e-06
8.96214e-06
8.95426e-06
1.36177e-05
1.35648e-05
1.36162e-05
7.93394e-06
1.36015e-05
1.83449e-06
1.36176e-05
8.96135e-06
1.3593e-05
8.70001e-06
8.24861e-06
2.93619e-06
8.07926e-06
8.02914e-06
1.36046e-05
9.03432e-06
8.78047e-06
3.32827e-06
8.39351e-06
8.59548e-06
8.12474e-06
8.94231e-06
1.36072e-05
8.89577e-06
1.36234e-05
8.71953e-06
8.94049e-06
8.88369e-06
6.31253e-06
1.36238e-05
6.45628e-06
7.94442e-06
8.72893e-06
7.29814e-06
8.78113e-06
1.3619e-05
7.15311e-06
7.89207e-06
6.95583e-06
1.35748e-05
8.61844e-06
8.3776e-06
8.60252e-06
8.44238e-06
8.54043e-06
4.84666e-06
4.95209e-06
7.43129e-06
8.99302e-06
8.34289e-06
7.13277e-06
8.25008e-06
8.42509e-06
9.05619e-06
7.74787e-06
7.43806e-06
7.12062e-06
6.82024e-06
8.46856e-06
8.28922e-06
8.585e-06
1.36257e-05
8.49792e-06
8.51786e-06
8.09612e-06
8.46239e-06
8.54627e-06
7.50953e-06
7.68874e-06
8.62859e-06
8.76442e-06
8.37946e-06
8.13062e-06
7.59379e-06
8.1414e-06
7.18702e-06
7.28541e-06
1.36118e-05
8.24154e-06
3.88766e-06
7.90958e-06
7.78436e-06
7.63596e-06
7.04056e-06
6.69565e-06
1.36134e-05
7.45515e-06
5.66691e-06
7.39754e-06
7.99436e-06
7.71857e-06
8.22134e-06
6.72213e-06
7.54665e-06
8.19879e-06
7.83922e-06
8.20021e-06
8.32951e-06
8.18512e-06
9.08404e-06
7.34766e-06
8.21265e-06
7.79262e-06
7.42644e-06
7.90725e-06
7.46066e-06
7.25303e-06
8.17594e-06
7.9975e-06
7.7359e-06
7.75188e-06
7.75404e-06
7.28892e-06
7.65764e-06
7.67187e-06
7.16737e-06
8.05622e-06
7.10885e-06
7.46778e-06
8.70187e-06
7.04284e-06
7.51927e-06
7.29291e-06
8.05125e-06
7.64385e-06
7.58646e-06
7.40136e-06
1.36092e-05
7.62429e-06
7.60167e-06
7.32153e-06
7.42685e-06
7.21426e-06
7.38165e-06
6.9721e-06
7.84582e-06
7.79556e-06
7.58389e-06
7.02985e-06
7.59205e-06
1.36294e-05
7.45501e-06
8.9104e-06
7.42856e-06
7.32243e-06
6.84395e-06
6.71497e-06
7.47895e-06
7.34277e-06
6.75957e-06
7.39043e-06
7.22441e-06
7.59793e-06
7.30896e-06
7.31136e-06
7.2629e-06
7.17208e-06
6.89889e-06
7.36189e-06
7.31339e-06
7.52904e-06
6.6264e-06
7.28529e-06
7.26167e-06
7.35436e-06
6.46501e-06
6.5856e-06
7.17062e-06
6.48987e-06
6.74364e-06
7.20249e-06
6.92212e-06
7.31521e-06
7.3011e-06
7.14486e-06
7.44799e-06
8.36788e-06
6.46158e-06
7.10527e-06
7.12966e-06
6.60569e-06
7.01097e-06
6.3178e-06
7.19351e-06
7.00167e-06
6.57541e-06
7.45638e-06
6.35228e-06
6.39091e-06
6.88096e-06
6.87702e-06
4.5873e-06
6.54634e-06
6.83889e-06
6.2128e-06
6.64367e-06
6.43078e-06
6.93635e-06
6.77158e-06
6.77009e-06
6.88822e-06
7.1556e-06
7.07779e-06
5.89521e-06
6.08188e-06
6.60131e-06
6.70187e-06
6.78878e-06
7.22827e-06
6.35834e-06
6.02015e-06
6.64773e-06
5.48848e-06
6.69131e-06
6.65375e-06
6.42466e-06
6.31276e-06
5.17716e-06
5.57823e-06
5.71551e-06
6.35266e-06
6.55736e-06
5.95297e-06
6.16713e-06
6.50282e-06
6.22914e-06
6.54046e-06
6.12055e-06
6.54309e-06
6.338e-06
5.76562e-06
6.51661e-06
5.98371e-06
5.61836e-06
5.59807e-06
6.40017e-06
6.2162e-06
6.09498e-06
6.52264e-06
6.27005e-06
6.30898e-06
5.83577e-06
6.28473e-06
5.66728e-06
5.75452e-06
6.37682e-06
5.62723e-06
5.87224e-06
6.22909e-06
5.77535e-06
6.4191e-06
5.3551e-06
5.9279e-06
6.6694e-06
6.24966e-06
6.219e-06
6.16207e-06
5.54722e-06
6.16471e-06
5.3586e-06
5.63393e-06
5.75283e-06
6.02932e-06
6.31804e-06
6.04932e-06
5.63685e-06
5.49417e-06
6.14792e-06
6.01028e-06
6.12951e-06
8.26832e-06
5.40052e-06
5.89778e-06
1.93919e-06
1.93798e-06
5.9528e-06
5.74055e-06
5.42265e-06
5.46457e-06
5.89033e-06
5.7902e-06
4.47598e-06
5.58189e-06
5.78081e-06
6.07246e-06
5.26599e-06
5.76889e-06
6.45544e-06
5.22286e-06
5.6996e-06
6.08481e-06
5.80241e-06
5.1452e-06
5.70435e-06
5.29461e-06
6.02091e-06
5.72134e-06
4.99556e-06
5.81484e-06
5.55384e-06
4.68084e-06
5.86101e-06
4.91039e-06
5.57412e-06
5.6607e-06
5.3202e-06
5.54273e-06
4.61001e-06
7.91922e-06
5.48493e-06
4.8617e-06
5.38945e-06
5.21633e-06
5.55092e-06
4.5418e-06
4.70708e-06
5.15051e-06
4.72668e-06
4.86881e-06
5.43317e-06
5.25915e-06
5.29529e-06
4.78994e-06
5.25649e-06
5.13261e-06
4.74573e-06
5.50312e-06
5.17579e-06
5.27746e-06
5.18251e-06
4.58866e-06
5.04832e-06
5.13498e-06
5.17309e-06
4.96777e-06
5.31692e-06
4.84634e-06
4.43156e-06
5.32116e-06
4.79888e-06
5.02507e-06
5.06618e-06
3.32957e-06
4.53319e-06
4.89436e-06
5.07491e-06
4.88775e-06
5.13779e-06
5.61626e-06
3.78851e-06
4.73686e-06
4.25328e-06
4.519e-06
4.9366e-06
5.06844e-06
4.82665e-06
4.80279e-06
4.71379e-06
4.81602e-06
4.34903e-06
4.62952e-06
4.29914e-06
3.70948e-06
3.26991e-06
3.9258e-06
3.3466e-06
6.05003e-06
4.08106e-06
4.70499e-06
3.62376e-06
4.68962e-06
4.60437e-06
4.51171e-06
3.7878e-06
3.51252e-06
4.45071e-06
4.68915e-06
4.51974e-06
4.24497e-06
3.80356e-06
4.65907e-06
2.91456e-06
4.19956e-06
3.045e-06
4.48141e-06
4.10176e-06
3.53571e-06
4.55018e-06
4.67085e-06
4.36084e-06
4.50208e-06
4.38257e-06
4.02281e-06
3.87054e-06
4.61323e-06
4.0932e-06
2.7664e-06
3.37059e-06
4.20629e-06
4.49679e-06
4.37631e-06
4.36186e-06
4.23809e-06
3.84354e-06
3.50349e-06
3.93349e-06
3.46226e-06
3.72264e-06
3.69859e-06
3.91311e-06
4.11571e-06
3.63628e-06
3.87573e-06
3.89976e-06
3.9815e-06
5.42884e-06
4.39157e-06
4.27375e-06
3.58525e-06
4.33526e-06
4.73788e-06
4.05817e-06
4.25985e-06
4.21248e-06
3.81124e-06
3.65694e-06
3.55735e-06
3.97757e-06
3.77718e-06
3.64266e-06
4.03818e-06
4.48572e-06
3.88489e-06
3.6548e-06
3.2037e-06
3.84524e-06
4.29099e-06
4.06782e-06
3.24488e-06
3.80448e-06
3.68708e-06
3.93739e-06
4.18918e-06
3.68459e-06
3.48629e-06
3.45546e-06
3.18783e-06
3.80562e-06
2.79573e-06
2.89107e-06
3.70087e-06
3.38079e-06
3.38956e-06
4.05327e-06
3.03239e-06
3.10606e-06
3.80092e-06
3.83711e-06
3.52747e-06
3.33417e-06
3.08572e-06
3.3046e-06
3.61148e-06
2.9906e-06
3.14071e-06
3.16339e-06
3.6788e-06
3.48991e-06
3.56795e-06
2.64668e-06
3.09374e-06
3.3542e-06
3.00344e-06
2.8483e-06
4.98178e-06
3.44418e-06
3.24148e-06
3.22539e-06
3.55218e-06
3.57729e-06
2.82958e-06
3.58563e-06
3.32666e-06
3.38457e-06
2.70842e-06
2.7472e-06
2.93961e-06
3.18429e-06
3.38971e-06
3.32934e-06
2.98733e-06
3.40167e-06
2.71904e-06
3.49922e-06
2.56294e-06
3.25455e-06
2.18492e-06
2.91116e-06
2.86564e-06
2.48181e-06
2.61605e-06
3.03569e-06
2.48123e-06
2.43855e-06
4.24507e-06
2.8638e-06
3.08036e-06
2.61592e-06
2.6474e-06
2.29787e-06
2.354e-06
2.33555e-06
2.64121e-06
2.39496e-06
2.75789e-06
2.4582e-06
2.49435e-06
2.40798e-06
2.53157e-06
2.74577e-06
2.15805e-06
2.08353e-06
2.31112e-06
2.07749e-06
2.69323e-06
2.19035e-06
2.25163e-06
2.80843e-06
2.60242e-06
2.03573e-06
2.01667e-06
2.53603e-06
2.124e-06
2.23699e-06
2.47854e-06
2.05784e-06
1.87467e-06
2.28393e-06
1.93176e-06
2.10063e-06
2.02257e-06
2.24431e-06
1.73039e-06
2.05941e-06
1.79699e-06
2.02703e-06
2.43916e-06
1.75351e-06
2.35158e-06
2.28033e-06
1.65716e-06
2.4076e-06
1.80895e-06
5.43077e-06
2.09062e-06
2.91687e-06
2.00136e-06
1.9208e-06
1.96033e-06
6.49366e-06
5.03993e-06
4.69946e-06
3.21029e-06
2.16396e-06
2.75324e-06
1.48032e-06
1.81179e-06
1.68459e-06
3.02706e-06
1.51774e-06
2.0867e-06
7.7343e-06
3.36158e-06
4.12852e-06
2.9946e-06
2.20571e-06
4.63441e-06
5.14976e-06
4.77747e-06
3.40165e-06
2.63234e-06
6.99319e-06
2.53731e-06
6.30829e-06
1.84257e-06
1.67888e-06
1.90938e-06
7.14119e-06
1.99501e-06
9.23332e-06
4.03876e-06
4.01718e-06
4.28334e-06
4.34123e-06
7.0161e-06
4.55499e-06
3.24708e-06
3.31137e-06
4.35746e-06
4.53314e-06
4.48993e-06
1.56667e-06
6.11764e-06
6.04548e-06
3.07286e-06
7.41215e-06
4.6128e-06
8.29751e-07
3.54599e-06
1.75925e-06
5.03526e-06
9.34267e-06
9.41216e-06
2.84512e-06
2.27848e-06
2.02451e-06
6.33999e-06
2.28326e-06
6.40356e-06
1.98935e-06
7.17958e-06
7.33872e-06
2.71546e-06
9.59755e-06
1.74965e-06
1.91869e-06
4.94136e-06
7.52925e-06
5.83361e-06
6.07199e-06
6.47287e-06
7.57863e-06
3.48807e-06
1.00981e-05
1.83063e-06
5.28222e-06
2.10335e-06
9.09795e-06
9.13899e-06
1.83483e-06
9.71449e-07
9.4274e-06
7.47579e-06
7.43902e-06
7.72189e-06
9.05342e-06
1.108e-06
1.27995e-06
6.21206e-06
7.15925e-06
9.32212e-06
7.6166e-06
2.03207e-06
5.25417e-06
9.61674e-06
6.92765e-06
1.88771e-06
6.87089e-06
9.87158e-06
8.02566e-06
1.0249e-05
4.2963e-06
2.73937e-06
2.60513e-06
1.90015e-06
8.77649e-06
8.82775e-06
7.58292e-06
1.55041e-06
1.72722e-06
2.48908e-06
9.14439e-06
1.60714e-06
1.99682e-06
1.94147e-06
2.57718e-06
3.25303e-06
1.923e-06
1.75915e-06
3.28673e-06
1.97338e-06
2.17156e-06
2.67603e-06
2.30899e-06
3.12152e-06
2.12366e-06
2.60674e-06
3.12458e-06
2.32518e-06
2.72092e-06
2.54086e-06
3.40302e-06
3.10083e-06
2.61323e-06
2.57892e-06
2.48451e-06
2.75125e-06
3.72122e-06
2.68004e-06
4.11885e-06
2.4931e-06
2.68336e-06
2.76329e-06
2.46819e-06
4.05039e-06
2.62914e-06
3.61921e-06
2.8633e-06
2.90861e-06
3.95799e-06
2.96232e-06
4.28482e-06
4.84301e-06
3.76983e-06
2.99563e-06
4.70191e-06
4.31686e-06
4.37817e-06
4.37637e-06
4.06753e-06
3.97498e-06
4.20926e-06
3.11496e-06
4.2227e-06
3.88168e-06
4.13214e-06
3.03974e-06
4.17134e-06
5.32743e-06
4.36514e-06
4.5228e-06
4.59628e-06
4.08097e-06
5.39494e-06
4.21642e-06
4.3788e-06
4.6094e-06
5.00343e-06
4.49122e-06
4.23228e-06
5.11433e-06
5.94681e-06
5.02455e-06
5.37532e-06
5.29009e-06
6.18832e-06
5.13998e-06
5.48152e-06
4.21771e-06
6.14908e-06
5.25073e-06
5.61979e-06
5.79144e-06
5.19152e-06
5.70182e-06
5.92945e-06
6.57392e-06
5.81952e-06
5.95809e-06
6.10357e-06
7.14752e-06
6.17015e-06
5.98284e-06
6.4921e-06
6.99848e-06
6.54747e-06
6.02533e-06
6.01055e-06
5.94139e-06
6.9852e-06
6.67915e-06
6.02187e-06
5.90616e-06
6.06777e-06
6.66555e-06
6.16425e-06
6.76307e-06
6.04371e-06
6.92353e-06
6.1768e-06
7.16238e-06
6.88558e-06
6.75246e-06
7.75836e-06
7.02162e-06
7.11212e-06
7.28614e-06
7.57792e-06
7.12759e-06
6.22757e-06
8.06064e-06
7.00679e-06
1.36261e-05
7.43516e-06
8.41171e-06
7.50086e-06
8.2165e-06
8.32198e-06
1.35955e-05
7.738e-06
8.35461e-06
8.57584e-06
1.77217e-06
7.77842e-06
8.071e-06
1.3618e-05
8.6831e-06
8.52657e-06
8.98006e-06