/*--------------------------------*- C++ -*----------------------------------*\
  =========                 |
  \\      /  F ield         | OpenFOAM: The Open Source CFD Toolbox
   \\    /   O peration     | Website:  https://openfoam.org
    \\  /    A nd           | Version:  8
     \\/     M anipulation  |
\*---------------------------------------------------------------------------*/
FoamFile
{
    version     2.0;
    format      ascii;
    class       volScalarField;
    location    "2";
    object      p;
}
// * * * * * * * * * * * * * * * * * * * * * * * * * * * * * * * * * * * * * //

dimensions      [0 2 -2 0 0 0 0];

internalField   nonuniform List<scalar> 
5119
(
4.90106e-06
1.32258e-05
1.33296e-05
1.26969e-05
6.06622e-06
1.3498e-05
1.32166e-05
1.32401e-05
1.20336e-05
2.37588e-06
1.27158e-05
2.28333e-06
6.22517e-06
1.30563e-05
4.28435e-06
7.79709e-06
9.09778e-06
1.54965e-06
3.29915e-06
3.34194e-06
7.78732e-06
6.92348e-06
4.46766e-06
2.08572e-06
8.17156e-06
7.93707e-06
4.48414e-06
4.54561e-06
4.59044e-06
1.37852e-06
1.82731e-06
3.12911e-06
7.4399e-06
4.13985e-06
5.29863e-06
1.44931e-06
1.41991e-06
1.43366e-06
5.67481e-06
9.91943e-06
1.32385e-05
5.9482e-06
9.14752e-06
9.18848e-06
9.53286e-06
1.32718e-05
1.0303e-05
9.73126e-06
9.71664e-06
8.61039e-06
1.31396e-05
1.26816e-05
1.38388e-05
1.3289e-05
1.30252e-05
9.97594e-06
1.27858e-05
1.32419e-05
6.90278e-06
1.06323e-05
9.14052e-06
8.92651e-06
1.00935e-05
9.68162e-06
1.32481e-05
1.08232e-05
1.32056e-05
1.29745e-05
1.02937e-05
1.30516e-05
1.30798e-05
1.32497e-05
1.32895e-05
1.02543e-05
8.57788e-06
9.98647e-06
1.32246e-05
1.32819e-05
1.09083e-05
1.05753e-05
1.23147e-05
1.30142e-05
1.31137e-06
8.39821e-07
1.3278e-05
1.06507e-06
1.33409e-05
9.36137e-06
7.77267e-07
7.92767e-07
7.84454e-07
7.55462e-07
1.32408e-05
1.25431e-05
1.0372e-05
1.27425e-05
1.37271e-05
1.02459e-05
1.27529e-05
1.22455e-06
7.97506e-06
7.61866e-06
1.22461e-05
1.10289e-05
1.32434e-05
1.32473e-05
1.10582e-05
1.3188e-05
1.29764e-05
1.33229e-05
1.1675e-05
1.325e-05
1.32492e-05
2.39283e-06
1.32324e-05
1.28149e-05
1.2638e-05
1.32448e-05
1.2944e-05
1.04108e-06
1.3224e-05
5.07815e-06
1.2017e-05
7.11713e-06
8.38663e-06
4.03394e-06
7.15293e-06
7.28578e-06
2.63982e-06
5.15454e-06
7.56573e-06
2.06415e-06
2.15258e-06
3.9416e-06
1.34056e-05
1.3175e-05
1.17626e-05
3.81052e-06
1.3131e-05
4.70533e-06
6.91391e-06
9.40006e-06
6.39748e-06
5.02247e-06
5.14325e-06
5.0973e-06
2.12092e-06
2.16465e-06
2.13895e-06
1.26968e-05
1.11594e-05
1.34482e-05
1.08211e-05
1.25909e-05
1.27536e-05
1.0494e-06
1.27979e-05
1.37096e-05
1.31728e-05
1.24532e-05
1.14363e-05
1.32565e-05
1.31728e-05
1.06096e-05
1.32414e-05
1.34307e-05
1.32401e-05
1.32439e-05
1.32448e-05
1.2758e-05
1.30933e-05
1.09587e-05
1.29235e-05
1.30575e-05
1.28577e-05
1.30368e-05
1.31252e-05
3.64622e-06
1.32498e-05
5.43728e-06
1.32344e-05
1.31976e-05
1.03911e-05
1.03771e-05
1.32364e-05
1.27133e-05
1.32642e-05
1.31516e-05
1.31526e-05
1.32124e-05
1.24288e-05
1.1372e-05
1.04232e-05
1.29523e-05
1.32371e-05
1.24438e-05
1.33441e-05
1.31935e-05
1.19413e-05
1.36319e-05
1.32479e-05
1.14785e-05
1.32399e-05
2.40116e-06
4.14353e-06
4.9407e-06
6.74464e-06
1.11093e-05
1.30718e-05
1.29924e-05
1.31844e-05
9.97912e-06
1.32955e-05
1.0272e-05
1.32156e-05
1.30494e-05
1.3126e-05
9.81573e-06
1.28307e-05
1.31541e-05
1.12416e-05
1.27819e-05
1.32514e-05
1.07886e-05
1.27989e-05
1.26711e-05
1.32259e-05
1.33292e-05
6.47198e-06
2.64109e-06
1.32541e-05
3.1949e-06
7.82081e-06
6.94059e-06
6.03643e-06
1.30776e-05
8.61551e-06
9.24898e-06
1.30346e-05
1.16417e-05
1.29263e-05
1.31726e-05
1.26664e-05
1.1889e-05
4.08824e-06
2.95146e-06
6.7509e-06
1.30801e-05
7.67785e-06
3.81166e-06
6.96894e-06
8.77125e-06
8.86713e-06
3.4367e-06
3.86864e-06
8.11657e-06
3.90502e-06
3.85409e-06
4.58516e-06
1.31248e-05
1.31613e-05
1.31669e-05
1.25447e-05
8.7523e-06
5.78436e-06
5.83416e-06
6.03218e-06
7.10499e-06
1.31285e-05
1.03911e-05
1.31654e-05
1.32334e-05
1.91321e-06
7.4555e-06
2.4945e-06
1.37123e-05
1.20245e-05
8.78807e-06
1.35218e-06
8.72932e-06
8.87427e-06
3.88643e-06
3.85017e-06
8.09558e-06
3.82125e-06
3.36888e-06
4.5693e-06
6.937e-06
1.5852e-06
2.59749e-06
8.52129e-06
3.7852e-06
7.60004e-06
1.32043e-05
4.11031e-06
7.87195e-06
9.59355e-06
1.30361e-05
1.3249e-05
1.07592e-05
1.28192e-05
6.80466e-06
1.27479e-05
1.3553e-05
1.295e-05
1.34678e-05
1.37213e-05
1.68136e-06
1.27675e-05
1.08728e-05
1.99306e-06
6.90902e-06
5.94944e-06
6.02491e-06
6.66643e-06
5.9378e-06
1.32412e-05
1.3454e-05
7.34893e-06
7.24182e-06
1.2703e-05
1.02443e-05
4.35126e-06
1.34702e-05
1.25632e-05
1.14368e-05
1.28694e-05
3.53362e-06
5.62678e-06
1.28038e-05
6.28431e-06
6.03296e-06
1.15119e-05
1.31148e-05
1.34967e-05
5.05457e-06
7.60199e-06
8.9621e-06
1.70803e-06
3.32085e-06
7.63124e-06
3.45792e-06
1.27083e-05
7.77033e-06
8.0022e-06
4.62306e-06
2.16732e-06
1.59515e-06
1.28222e-05
1.26975e-05
5.35443e-06
5.65548e-06
5.64799e-06
5.49037e-06
6.65988e-06
6.55743e-06
5.14432e-06
4.82543e-06
4.30871e-06
7.91477e-06
3.43313e-06
3.17623e-06
3.21845e-06
8.32943e-06
3.09902e-06
3.25312e-06
2.90618e-06
2.62859e-06
2.68337e-06
2.71573e-06
2.6602e-06
2.4274e-06
9.38245e-06
9.89525e-06
1.27874e-05
1.29928e-05
1.31352e-05
1.29772e-05
3.87719e-06
1.36203e-05
1.24987e-05
1.31787e-05
1.09466e-05
3.32958e-06
1.05619e-05
1.13156e-05
1.32325e-05
3.24228e-06
4.22009e-06
7.25009e-06
1.34492e-05
1.34991e-05
1.14112e-05
1.32042e-05
9.73427e-06
6.74872e-06
4.58468e-06
4.70809e-06
4.66852e-06
1.32024e-05
9.04673e-06
1.31644e-05
1.32341e-05
1.15072e-05
5.3385e-06
1.2905e-05
1.21389e-05
1.32481e-05
1.28273e-05
1.24787e-05
1.04873e-05
2.73702e-06
4.60946e-06
1.66864e-06
1.64158e-06
1.65413e-06
1.2048e-05
6.53509e-06
7.41802e-06
1.32816e-05
1.32294e-05
8.81579e-06
1.29001e-05
1.31724e-05
1.3099e-05
1.28385e-05
1.33216e-05
6.36268e-06
8.59771e-07
1.35462e-05
1.13823e-05
6.3178e-06
9.16979e-06
1.34714e-05
1.28534e-05
1.31461e-05
1.19015e-05
1.09904e-05
1.34944e-05
1.31357e-05
1.22539e-05
1.3288e-05
1.24786e-05
9.14492e-07
9.51857e-07
9.63086e-07
9.42246e-07
1.31695e-05
1.25356e-05
8.96186e-06
1.25139e-05
1.32519e-05
6.09924e-06
7.32574e-06
4.22623e-06
3.65321e-06
3.39656e-06
3.33784e-06
3.42101e-06
3.4551e-06
8.55403e-06
9.23108e-06
2.86173e-06
8.48078e-06
1.30715e-05
1.3284e-05
5.5995e-06
1.28651e-06
5.08961e-06
5.44302e-06
5.40765e-06
5.24378e-06
6.89115e-06
6.78676e-06
4.89089e-06
4.56266e-06
4.06126e-06
8.14656e-06
3.16626e-06
2.96624e-06
2.92318e-06
3.00292e-06
8.55205e-06
2.87196e-06
2.66404e-06
2.37702e-06
2.47258e-06
2.44383e-06
2.42409e-06
2.18739e-06
9.6573e-06
1.01575e-05
1.32347e-05
1.28689e-05
1.32286e-05
1.11516e-05
1.11442e-05
1.32416e-05
1.35814e-05
1.30855e-05
1.30596e-05
1.33152e-05
1.18068e-05
1.21475e-05
1.33431e-05
1.02612e-06
1.284e-05
5.4969e-06
1.14632e-05
4.3367e-07
4.47989e-07
5.26e-07
1.26265e-05
2.86896e-06
8.14676e-06
7.34587e-06
1.27089e-05
1.30259e-05
1.31879e-05
1.28912e-05
5.71459e-06
2.4461e-06
1.32551e-05
1.11308e-05
1.23994e-05
6.75937e-06
7.71175e-06
6.17179e-06
1.34507e-05
1.15025e-05
1.09427e-05
1.22772e-06
1.1754e-05
7.45537e-06
7.88168e-06
1.32051e-05
1.34554e-05
1.0952e-05
1.28059e-05
2.71197e-06
8.11351e-06
7.35721e-06
1.10042e-05
7.20649e-06
6.227e-06
5.78404e-06
5.70937e-06
1.30857e-05
1.27205e-05
8.39541e-06
1.30431e-05
1.06234e-05
1.32789e-05
1.32061e-05
1.35543e-05
9.10263e-06
2.98383e-06
9.75206e-06
1.26541e-05
6.04555e-06
1.2466e-05
1.32465e-05
1.26792e-05
1.20656e-05
1.35034e-05
1.32487e-05
1.31314e-05
3.2783e-06
1.3136e-05
1.20995e-05
1.20855e-05
6.48714e-06
1.34236e-05
1.35078e-05
1.32759e-05
1.14906e-05
1.24968e-05
1.32505e-05
1.33764e-05
1.32319e-05
2.83745e-07
2.46691e-07
2.87067e-07
1.22663e-05
1.30242e-05
1.294e-05
1.36103e-05
1.3422e-05
5.39833e-06
5.28658e-06
1.32515e-05
1.32601e-05
1.32622e-05
1.12252e-05
1.3069e-05
1.31151e-05
8.93906e-06
8.32982e-06
3.62137e-06
3.5871e-06
3.58957e-06
4.4028e-06
7.13405e-06
3.85861e-06
3.54942e-06
1.08468e-05
1.34958e-05
1.19828e-05
1.32045e-05
1.32015e-05
8.03099e-06
1.33969e-05
1.29888e-05
9.76965e-06
1.24267e-05
1.34203e-05
1.30441e-05
1.32609e-05
1.17113e-05
1.31918e-05
1.32254e-05
1.31248e-05
1.26907e-05
1.32547e-05
7.69933e-06
6.43383e-06
1.25218e-05
1.32612e-05
1.31847e-05
1.32303e-05
1.33983e-05
1.29065e-05
1.12626e-05
5.98209e-06
1.74828e-06
1.32618e-05
1.1515e-05
2.05835e-06
6.64713e-06
1.77305e-06
8.38357e-06
4.19939e-06
4.24021e-06
8.48933e-06
7.77373e-06
3.80953e-06
4.14752e-06
4.93625e-06
1.30438e-05
9.69673e-06
1.27456e-05
7.4964e-07
1.3479e-05
1.33935e-05
1.27284e-05
1.32476e-05
1.32719e-05
7.75169e-07
1.33291e-05
1.32483e-05
9.00802e-06
1.92129e-06
9.5583e-06
1.20276e-05
1.33042e-05
1.15331e-05
1.23485e-05
1.32406e-05
1.28399e-05
1.02736e-06
1.36368e-06
1.34062e-05
1.31815e-05
1.17369e-05
1.24727e-05
1.33043e-05
1.1951e-05
1.31165e-05
1.32442e-05
1.29499e-05
6.34474e-06
2.23866e-06
4.00703e-06
4.80733e-06
6.73834e-06
1.32178e-05
2.43399e-07
2.43229e-07
3.06539e-07
1.20786e-05
1.34552e-05
1.35392e-05
7.78159e-06
1.31386e-05
9.25094e-06
2.73241e-07
3.06118e-07
1.33507e-05
1.0941e-06
3.01057e-06
8.16496e-06
4.12813e-06
7.26776e-06
8.28329e-06
1.28083e-05
6.91136e-06
1.32378e-05
1.32886e-05
1.29549e-05
1.32491e-05
1.32844e-05
1.3244e-05
1.2738e-05
1.30115e-05
9.41453e-06
1.30324e-05
1.1569e-05
1.16544e-05
1.06781e-05
1.32274e-05
1.32105e-05
1.07325e-05
1.31432e-05
9.39355e-06
1.29237e-05
1.32138e-05
2.4205e-06
1.29303e-05
1.22452e-05
1.36723e-05
1.30318e-05
1.1878e-05
1.29229e-05
1.31186e-05
1.3136e-05
2.35287e-07
2.39962e-07
2.46346e-07
2.93021e-07
2.27859e-07
1.32144e-05
1.3075e-05
1.07728e-05
1.34821e-05
1.32362e-05
1.32604e-05
1.31145e-05
1.27686e-05
1.27679e-05
5.67855e-06
5.75492e-06
5.72288e-06
6.15674e-06
6.10112e-06
6.09417e-06
1.32495e-05
1.33412e-05
5.00349e-06
5.33175e-06
5.86191e-06
6.11849e-06
6.34926e-06
6.39396e-06
6.94552e-06
6.62759e-06
5.00655e-06
4.49752e-06
7.56778e-06
3.69834e-06
3.40639e-06
3.34632e-06
3.12714e-06
8.0525e-06
3.39537e-06
3.43001e-06
3.4205e-06
2.85993e-06
2.90256e-06
2.87205e-06
8.48278e-06
2.75998e-06
2.62933e-06
9.19084e-06
2.35387e-06
9.13679e-06
9.7403e-06
1.00154e-05
5.85591e-06
5.5989e-06
5.85669e-06
5.7091e-06
6.02884e-06
1.34096e-05
1.12504e-05
1.325e-05
4.51567e-06
1.43606e-05
1.32429e-05
1.32455e-05
1.31501e-05
6.13678e-06
6.19014e-06
5.75673e-06
1.32646e-05
1.28592e-05
1.32324e-05
1.33443e-05
1.35268e-05
9.75769e-06
1.2176e-05
1.30589e-05
1.17822e-05
1.2796e-05
1.30504e-05
1.21392e-05
1.32283e-05
1.32499e-05
1.37647e-05
5.77178e-06
1.32539e-05
1.33765e-05
1.31205e-05
4.82471e-07
4.36162e-07
4.53024e-07
1.32519e-05
1.26663e-05
1.35728e-05
1.32626e-05
1.17226e-05
1.32344e-05
7.57329e-06
1.33037e-05
1.31565e-05
1.31894e-05
1.26216e-05
1.25527e-05
1.21967e-05
1.32363e-05
1.36271e-05
1.34245e-05
9.4935e-06
1.28512e-05
5.59319e-06
5.55829e-06
1.08282e-05
1.17406e-05
1.32393e-05
1.31249e-05
1.34111e-05
1.35661e-05
1.12976e-05
1.33528e-05
1.36022e-05
1.26074e-05
1.3241e-05
1.32876e-05
5.51455e-06
5.31372e-06
6.80228e-06
5.42638e-06
6.7725e-06
6.41985e-06
6.7365e-06
7.15715e-06
4.49981e-06
4.58393e-06
4.17043e-06
7.94703e-06
3.26867e-06
2.43435e-06
2.52949e-06
2.50482e-06
2.56264e-06
2.8445e-06
8.91684e-06
8.68627e-06
1.29844e-05
9.3967e-06
7.28351e-06
8.61758e-06
1.32369e-05
1.324e-05
1.1784e-05
1.2743e-05
1.28035e-05
1.3144e-05
1.22839e-05
1.09579e-05
1.25016e-05
6.0235e-06
1.16323e-05
1.33861e-05
1.03206e-05
1.26854e-05
1.31954e-05
1.09512e-05
1.27336e-05
7.77373e-06
9.33336e-06
1.20753e-05
1.28575e-05
1.26049e-05
1.1912e-05
1.18314e-05
1.22606e-05
1.24788e-05
1.32611e-05
1.26059e-05
1.31552e-05
1.24557e-05
1.31189e-05
1.24689e-05
1.28399e-05
9.19354e-06
6.47928e-06
1.30769e-05
1.20904e-05
1.31039e-05
1.33507e-05
9.04643e-06
1.14379e-05
9.57245e-06
1.34411e-05
1.25611e-05
1.06761e-05
1.23577e-05
1.28882e-05
1.32259e-05
1.31692e-05
1.1353e-05
1.32603e-05
1.11965e-05
6.42761e-06
6.74851e-06
6.74804e-06
4.36359e-06
4.9007e-06
3.97166e-06
7.319e-06
3.92771e-06
3.84359e-06
7.90383e-06
4.04672e-06
4.00562e-06
8.20594e-06
8.54604e-06
8.50219e-06
3.03656e-06
1.32454e-05
1.31113e-05
1.26291e-05
1.27622e-05
1.30176e-05
1.24489e-05
1.30679e-05
1.14662e-05
5.79992e-06
1.32259e-05
6.05742e-06
6.10742e-06
1.12966e-05
5.87815e-06
1.32496e-05
1.32389e-05
8.23822e-06
1.26764e-05
1.32379e-05
8.782e-06
8.84998e-06
8.35458e-06
9.26986e-06
1.31249e-05
1.32189e-05
9.43611e-06
8.62568e-06
9.29545e-06
1.29944e-05
1.2511e-05
1.3974e-05
1.32565e-05
1.27083e-05
1.29942e-05
1.32777e-05
8.36881e-06
9.73365e-06
1.34373e-05
1.32454e-05
1.32086e-05
1.32114e-05
1.0906e-05
1.34688e-05
8.27797e-06
1.04065e-05
1.31622e-05
2.89851e-06
1.30876e-05
1.22834e-05
1.31419e-05
9.93794e-06
1.32722e-05
1.25085e-05
6.81289e-06
6.70349e-06
4.98492e-06
4.73921e-06
4.16476e-06
8.04223e-06
3.41115e-06
3.13231e-06
3.12931e-06
8.44867e-06
3.16054e-06
3.04201e-06
2.86588e-06
2.43599e-06
2.5655e-06
2.53821e-06
2.52618e-06
2.25891e-06
9.4768e-06
1.00448e-05
5.534e-06
5.27089e-06
5.58852e-06
5.35198e-06
1.33708e-05
1.31632e-05
1.10968e-05
1.3324e-05
1.29049e-05
1.29292e-05
1.37583e-05
1.32298e-05
1.31004e-05
8.91664e-07
1.3189e-05
7.32589e-06
4.35038e-06
3.94918e-06
3.6373e-06
3.60345e-06
3.6509e-06
3.68879e-06
8.46133e-06
9.06397e-06
1.32452e-05
3.41862e-06
8.69229e-06
6.08187e-06
1.31359e-05
1.26401e-05
1.2809e-05
1.29336e-05
1.32025e-05
1.31042e-05
1.3456e-05
1.34939e-05
1.34209e-05
1.24275e-05
1.31913e-05
2.71878e-06
1.3155e-05
1.32548e-05
5.27711e-06
5.31836e-06
6.62192e-06
6.35372e-06
5.86597e-06
1.33755e-05
1.32417e-05
1.26631e-05
1.34056e-05
6.0021e-06
1.23598e-05
1.32602e-05
1.32212e-05
1.27875e-05
1.57382e-06
1.55873e-06
1.59106e-06
5.34928e-06
1.27816e-05
1.33099e-05
1.33468e-05
1.07908e-05
1.13538e-05
1.23176e-05
1.32538e-05
1.32482e-05
1.30684e-05
1.34201e-05
1.31369e-05
1.259e-05
1.32497e-05
6.40406e-06
1.32193e-05
1.32217e-05
1.32727e-05
1.32165e-05
1.25355e-05
8.35674e-06
1.20239e-05
1.32446e-05
1.34893e-05
5.84009e-06
1.34092e-05
6.20005e-06
1.22274e-05
1.31542e-05
1.26262e-05
1.07765e-05
1.30144e-05
5.75528e-06
6.47418e-06
5.80528e-06
1.29121e-05
1.31328e-05
1.31208e-05
1.27615e-05
1.28252e-05
1.30309e-05
1.2729e-05
6.12969e-06
6.11118e-06
5.93732e-06
1.048e-05
1.35264e-05
1.31709e-05
1.29774e-05
1.23686e-05
1.326e-05
1.25465e-05
1.29509e-05
1.24752e-05
1.32402e-05
1.31812e-05
1.31033e-05
1.32571e-05
1.30074e-05
1.31259e-05
1.22433e-05
1.31762e-05
1.30668e-05
6.10478e-06
6.08769e-06
9.85727e-06
1.28667e-05
1.3423e-05
1.28561e-05
1.32587e-05
1.30237e-05
1.24053e-05
1.35389e-05
5.36026e-06
1.35185e-05
1.00921e-05
1.35754e-05
1.3252e-05
1.29274e-05
1.3289e-05
1.28523e-05
1.34767e-05
1.28336e-05
1.32119e-05
1.31955e-05
1.29521e-05
1.32115e-05
5.97791e-06
5.87518e-06
6.02296e-06
1.27601e-05
1.36669e-05
1.31346e-05
1.34077e-05
1.31136e-05
1.32593e-05
1.24299e-05
1.32199e-05
1.26991e-05
1.93819e-06
4.20627e-06
3.20722e-06
7.37623e-06
1.32498e-05
1.32501e-05
1.31375e-05
1.34696e-05
1.27329e-05
1.32393e-05
1.32437e-05
1.32492e-05
1.3036e-05
9.4827e-06
1.32442e-05
1.31541e-05
1.33927e-05
1.88367e-06
1.86535e-06
1.9048e-06
9.56746e-06
1.32504e-05
1.32394e-05
1.31662e-05
1.32229e-05
1.32239e-05
1.24886e-05
1.32347e-05
1.31601e-05
1.23872e-05
1.30863e-05
5.88788e-06
1.28476e-05
1.32053e-05
1.32427e-05
5.65578e-06
1.31625e-05
1.27728e-05
1.34789e-05
1.28339e-05
1.22147e-05
1.32835e-05
1.32038e-05
1.33237e-05
1.34587e-05
1.34195e-05
1.3211e-05
1.19232e-05
1.33687e-05
1.32352e-05
1.31612e-05
1.31116e-05
1.32194e-05
1.26843e-05
1.32103e-05
1.26186e-05
1.32331e-05
5.6994e-06
4.58585e-06
6.84196e-06
2.36229e-06
3.43814e-06
3.36311e-06
7.66272e-06
1.68131e-06
7.69725e-06
9.01617e-06
1.34564e-05
1.32309e-05
1.33771e-05
1.32493e-05
1.19539e-05
1.23178e-05
1.30992e-05
1.3257e-05
1.32422e-05
1.27274e-05
1.33101e-05
1.19149e-05
1.31741e-05
1.31674e-05
4.05955e-06
4.10066e-06
6.80541e-06
8.54329e-06
6.49463e-06
4.79044e-06
4.03603e-06
7.91975e-06
2.65011e-06
8.6541e-06
3.64633e-06
1.59719e-06
1.87766e-06
1.31049e-05
1.32203e-05
1.32388e-05
1.32081e-05
1.31136e-05
1.30395e-05
1.27646e-05
1.18318e-05
1.22657e-05
1.0403e-05
1.29835e-05
1.32553e-05
1.38513e-05
1.32541e-05
1.26717e-05
1.31476e-05
1.3358e-05
1.31481e-05
1.19407e-05
5.90343e-07
1.32371e-05
8.4207e-06
1.31904e-05
1.23424e-05
1.03538e-05
1.32375e-05
1.32357e-05
1.32576e-05
9.49597e-06
1.27119e-05
1.31978e-05
1.34405e-05
1.16821e-05
1.30065e-05
1.24123e-05
1.32586e-05
1.30456e-05
1.29539e-05
1.23459e-05
1.24628e-05
1.27539e-05
1.32533e-05
1.28499e-05
1.30596e-05
1.34849e-05
1.31504e-05
1.2345e-05
1.34077e-05
1.34229e-05
1.32256e-05
1.32142e-05
1.29778e-05
7.98477e-07
7.89377e-07
7.68105e-07
8.09876e-07
8.83808e-07
1.08757e-05
1.3119e-05
1.22051e-05
1.30063e-05
4.02053e-07
4.01045e-07
1.277e-05
9.18779e-06
1.32456e-05
1.30211e-05
1.31448e-05
1.27476e-05
1.12588e-05
4.89315e-06
1.32571e-05
1.29721e-05
1.32285e-05
1.32492e-05
1.30711e-05
1.28696e-05
7.00335e-06
1.3225e-05
1.30166e-05
1.24545e-05
1.26638e-05
1.31329e-05
1.23533e-05
1.24571e-05
1.5141e-06
6.95927e-06
1.30572e-05
4.56298e-06
4.62625e-06
4.67045e-06
7.83367e-06
2.14817e-06
8.1063e-06
1.32447e-05
1.29992e-05
1.3404e-05
1.2317e-05
1.32069e-05
1.29503e-05
2.8372e-06
3.98308e-06
7.47416e-06
8.39323e-06
5.77031e-06
1.24207e-05
1.34436e-05
1.18659e-05
6.23448e-06
6.27534e-06
5.7507e-06
5.47566e-06
1.32593e-05
1.252e-05
1.33026e-05
1.23575e-05
4.2913e-06
1.32516e-05
1.37159e-05
1.29096e-05
1.2424e-05
1.33202e-05
1.24299e-05
5.47548e-07
1.28907e-05
1.3206e-05
1.32361e-05
1.32274e-05
1.33543e-05
1.32139e-05
5.8171e-06
1.23348e-05
1.32974e-05
1.5298e-06
1.31122e-05
1.29661e-05
3.80249e-07
3.2256e-07
3.43129e-07
3.3726e-07
3.32596e-07
1.32499e-05
1.32393e-05
1.32297e-05
8.07986e-06
1.32536e-05
1.28245e-05
1.26906e-05
1.26931e-05
1.31392e-05
1.31745e-05
1.32144e-05
1.32612e-05
1.32389e-05
1.34527e-05
1.32483e-05
1.32277e-05
1.26051e-05
1.32009e-05
1.27865e-05
1.33583e-05
1.17981e-05
9.97404e-06
1.34097e-05
1.26715e-05
9.99606e-06
1.32178e-05
8.7116e-06
6.00942e-06
1.3257e-05
1.32459e-05
1.29972e-05
4.41389e-06
9.92461e-06
1.32473e-05
1.27077e-05
1.2432e-05
1.31061e-05
1.31024e-05
1.31822e-05
1.3245e-05
1.27475e-05
1.32414e-05
1.31889e-05
1.31815e-05
1.32515e-05
1.34849e-05
1.32545e-05
5.75634e-06
1.30401e-05
1.24918e-05
1.32435e-05
1.29709e-05
1.31051e-05
1.27221e-05
1.3224e-05
1.20829e-05
1.25872e-05
5.85633e-06
1.32848e-05
1.23322e-05
1.36013e-05
1.32501e-05
1.26695e-05
1.32086e-05
1.32897e-05
1.33515e-05
1.19537e-05
1.33187e-05
1.31316e-05
1.28964e-05
6.28252e-06
1.32467e-05
1.33465e-05
1.32457e-05
1.32066e-05
1.32446e-05
1.32457e-05
1.32438e-05
1.31068e-05
4.53601e-06
7.07816e-06
3.52212e-06
2.24371e-06
8.45605e-06
1.30187e-05
1.13129e-05
1.10836e-05
1.23858e-05
1.25341e-05
1.32511e-05
1.32289e-05
1.22623e-05
1.33999e-05
5.51392e-06
5.55687e-06
1.31919e-05
2.76724e-07
2.97715e-07
1.32315e-05
6.44587e-06
1.32217e-05
1.27833e-05
1.32406e-05
1.31672e-05
1.32332e-05
9.19256e-06
1.32441e-05
1.31784e-05
1.32111e-05
7.228e-06
1.42745e-05
1.32354e-05
1.28825e-05
1.29693e-05
1.31715e-05
1.30836e-05
1.04583e-05
1.26737e-05
1.27366e-05
1.32482e-05
1.01427e-05
1.043e-05
1.24121e-05
1.31593e-05
1.32312e-05
1.32296e-05
1.26506e-05
1.29604e-05
1.24813e-05
1.324e-05
1.28279e-05
1.23348e-05
1.04958e-05
5.38707e-07
1.28789e-05
1.32463e-05
1.09354e-05
1.32442e-05
1.28166e-05
1.31007e-05
1.22592e-05
1.26516e-05
1.33534e-05
1.32471e-05
1.33292e-05
1.02219e-05
1.24521e-05
1.15903e-05
1.32324e-05
1.22466e-05
5.91437e-06
1.27435e-05
1.18195e-05
1.24267e-05
1.32449e-05
1.32534e-05
1.49544e-06
1.24085e-06
1.25178e-06
7.55744e-06
1.31724e-05
7.93105e-06
1.33943e-05
5.54121e-06
1.35852e-05
1.26463e-05
1.30785e-05
1.33766e-05
1.31766e-05
1.25107e-05
1.04833e-05
1.26822e-05
1.27159e-05
7.04193e-06
1.30087e-05
1.32572e-05
1.3235e-05
1.39123e-05
1.31148e-05
1.32449e-05
8.05779e-06
1.3691e-05
1.31e-05
1.35082e-05
1.32746e-05
1.31589e-05
6.28435e-06
9.32685e-06
1.26907e-05
1.30303e-05
1.23819e-05
1.31882e-05
1.1582e-05
1.30157e-05
1.30777e-05
1.32525e-05
1.36256e-05
1.27848e-05
1.19665e-05
1.32487e-05
1.32354e-05
1.28543e-05
1.3229e-05
9.36839e-06
1.32306e-05
1.34624e-05
1.23058e-05
1.3082e-05
1.24113e-05
1.23559e-05
1.27015e-05
1.32006e-05
1.30112e-05
1.28625e-05
1.3244e-05
1.32529e-05
1.01077e-05
1.32407e-05
1.06958e-05
1.32486e-05
1.29661e-05
1.28286e-05
1.3467e-05
1.27587e-05
1.3254e-05
1.31175e-05
1.30896e-05
1.32498e-05
1.28052e-05
1.25508e-05
1.26933e-05
1.32644e-05
1.25146e-05
1.32458e-05
1.2413e-05
1.01395e-05
1.32285e-05
1.00483e-05
1.3649e-05
1.32494e-05
1.32413e-05
1.31941e-05
1.29378e-05
1.32344e-05
1.35137e-05
1.27949e-05
1.32633e-05
2.2704e-06
2.2447e-06
2.22428e-06
9.34523e-06
1.32437e-05
1.32409e-05
1.31272e-05
1.22387e-05
1.32173e-05
1.25429e-05
1.35114e-05
1.3466e-05
1.43811e-05
1.43297e-05
1.37559e-05
1.32536e-05
1.27697e-05
9.65425e-06
1.35586e-05
1.29357e-05
1.2865e-05
1.10135e-05
1.35594e-05
1.32508e-05
1.34786e-05
1.33761e-05
1.31898e-05
1.31032e-05
1.33904e-05
1.32391e-05
1.32249e-05
1.34271e-05
7.115e-06
9.59483e-06
1.32433e-05
9.54668e-06
9.04225e-06
1.23158e-05
9.60333e-06
1.32512e-05
1.25324e-05
1.29789e-05
1.32369e-05
1.34456e-05
1.34799e-05
1.29589e-05
8.99729e-06
1.32328e-05
1.32386e-05
8.37881e-06
1.342e-05
1.31053e-05
1.31971e-05
1.32187e-05
1.32407e-05
1.29191e-05
1.2787e-05
1.35716e-05
1.29715e-05
1.28952e-05
4.9754e-06
1.27592e-05
1.32854e-05
1.3238e-05
1.32097e-05
1.26893e-05
1.31159e-05
1.10671e-06
1.36491e-05
2.58921e-06
1.32021e-05
1.3483e-05
1.32191e-05
1.32517e-05
1.32473e-05
1.33039e-05
1.32983e-05
1.23876e-05
1.3333e-05
4.36791e-06
1.77093e-06
4.07179e-06
2.10169e-06
3.07057e-06
7.51021e-06
7.21101e-06
3.38204e-06
1.33399e-05
1.33309e-05
1.32944e-05
1.32395e-05
1.32306e-05
8.13655e-06
1.22446e-05
1.32335e-05
1.28681e-05
1.27556e-05
1.27402e-05
8.10217e-06
1.32402e-05
1.32005e-05
1.32613e-05
1.31248e-05
1.3198e-05
1.35356e-05
1.26405e-05
1.31597e-05
1.28996e-05
1.3243e-05
1.32679e-05
1.21563e-05
1.32249e-05
1.32725e-05
1.32458e-05
1.3083e-05
1.35282e-05
1.34376e-05
1.3225e-05
1.32406e-05
1.29736e-05
1.33462e-05
1.31289e-05
5.15927e-06
1.32254e-05
1.35199e-05
1.32323e-05
1.30816e-05
8.82509e-06
1.27923e-05
3.58384e-06
1.30866e-05
1.28818e-05
1.31992e-05
1.32507e-05
1.4577e-06
1.2453e-05
1.3255e-05
1.35395e-05
1.32542e-05
1.22701e-05
1.28603e-05
1.32175e-05
1.32094e-05
1.25508e-05
1.3326e-05
1.28119e-05
1.32428e-05
1.20674e-05
1.32046e-05
1.29885e-05
1.29498e-05
1.32732e-05
1.27625e-05
1.29225e-05
1.25778e-05
1.28294e-05
1.3232e-05
1.29375e-05
1.31485e-05
6.44376e-06
1.3389e-05
1.3211e-05
1.3231e-05
1.30785e-05
1.32503e-05
1.28059e-05
1.18937e-05
4.63984e-06
1.32415e-05
1.32586e-05
1.07411e-05
1.04671e-05
1.36612e-05
1.32478e-05
1.32344e-05
1.3253e-05
1.37319e-05
1.36382e-06
1.42001e-06
1.40624e-06
1.43576e-06
1.75785e-06
1.72131e-06
1.73852e-06
4.38827e-06
2.00383e-06
8.24102e-06
4.4553e-06
4.49907e-06
7.9031e-06
6.10508e-06
5.18386e-06
2.18253e-06
1.34107e-05
1.36734e-05
1.26017e-05
1.24081e-05
1.32481e-05
1.23902e-05
4.10725e-06
2.96429e-06
1.85628e-06
7.19963e-06
2.8655e-06
8.06764e-06
1.32595e-05
7.85349e-06
4.1412e-06
2.11118e-06
1.27616e-05
9.98556e-06
6.18742e-06
1.28475e-05
1.32535e-05
1.32477e-05
9.11602e-06
1.31368e-05
1.24806e-06
1.2982e-06
1.28567e-06
1.31272e-06
1.3175e-05
1.32409e-05
1.27256e-05
1.32548e-05
1.29673e-05
1.32276e-05
1.29684e-05
5.68785e-06
9.69866e-06
6.49405e-06
4.29521e-06
4.33582e-06
4.26036e-06
5.01483e-06
8.17694e-06
3.94156e-06
7.61333e-06
8.34165e-06
2.95317e-06
1.88511e-06
1.64861e-06
1.32218e-05
1.30384e-05
1.23938e-05
1.32269e-05
1.31769e-05
1.07071e-05
1.2574e-05
1.33612e-05
4.27412e-06
7.08299e-06
7.95582e-06
3.15367e-06
3.09106e-06
1.39055e-06
1.32156e-05
1.27689e-05
1.29193e-05
1.32621e-05
1.34466e-05
1.32371e-05
1.32447e-05
1.25523e-05
8.48688e-06
1.32153e-05
8.56891e-06
1.32925e-05
1.29775e-05
1.3223e-05
1.3263e-05
1.29275e-05
1.32607e-05
1.32595e-05
1.31799e-05
1.28692e-05
1.32403e-05
1.25882e-05
1.33333e-05
1.34946e-05
1.32562e-05
1.32259e-05
1.32265e-05
1.32507e-05
1.32501e-05
1.29133e-05
9.15292e-06
1.25613e-05
1.32254e-05
1.25288e-05
1.25749e-05
1.32463e-05
1.2922e-05
1.30657e-05
9.01348e-06
1.15184e-05
1.36351e-05
1.34132e-05
1.31044e-05
1.32461e-05
1.3168e-05
1.32373e-05
1.32457e-05
1.32435e-05
1.29925e-05
1.29973e-05
1.27259e-05
9.9436e-07
1.02633e-06
1.04731e-06
1.0362e-06
1.26937e-05
1.3203e-05
1.30521e-05
2.28472e-06
1.32189e-05
9.87135e-06
1.35018e-05
1.326e-05
1.28816e-05
1.32384e-05
1.32369e-05
1.29172e-05
1.32347e-05
3.71372e-06
1.29791e-05
1.32427e-05
1.32329e-05
1.24315e-05
1.28441e-05
1.32525e-05
1.30528e-05
1.26421e-05
1.32246e-05
1.32505e-05
1.29712e-05
1.3214e-05
1.32573e-05
1.32433e-05
1.30815e-05
1.32264e-05
1.327e-05
1.32336e-05
1.24943e-05
1.31741e-05
1.29925e-05
1.27019e-05
2.01742e-06
1.99774e-06
2.03888e-06
9.43769e-06
1.32364e-05
1.32402e-05
1.32406e-05
1.32415e-05
1.35785e-05
1.32281e-05
1.24968e-05
1.32035e-05
1.32268e-05
1.32475e-05
1.33976e-05
1.3234e-05
1.3244e-05
1.00644e-05
1.32504e-05
1.26e-05
1.32575e-05
1.27554e-05
1.22891e-05
1.32739e-05
1.33604e-05
1.29186e-05
1.32575e-05
1.33308e-05
1.32465e-05
1.29613e-05
1.32508e-05
1.05108e-05
1.32129e-05
1.324e-05
1.34175e-05
1.32462e-05
1.32525e-05
1.3191e-05
1.3244e-05
1.28486e-05
1.32681e-05
1.32377e-05
1.32246e-05
1.30568e-05
1.32108e-05
1.32441e-05
1.35297e-05
1.2881e-05
1.237e-05
1.30673e-05
1.29798e-05
1.32327e-05
1.33827e-05
1.32318e-05
1.32226e-05
1.31637e-05
3.00255e-07
2.81136e-07
3.10305e-07
3.11987e-07
3.11955e-07
1.32369e-05
1.32444e-05
1.32406e-05
1.34873e-05
1.32198e-05
1.32188e-05
1.32491e-05
1.30387e-05
1.31467e-05
1.32388e-05
1.32417e-05
1.32366e-05
1.38115e-05
1.32232e-05
1.28659e-05
1.34058e-05
1.33354e-05
1.34159e-05
9.29385e-06
1.32266e-05
1.34827e-05
1.32325e-05
1.03202e-05
1.32153e-05
1.32527e-05
1.15491e-05
1.28094e-05
1.20068e-05
1.29029e-05
1.22461e-05
1.29059e-05
1.3475e-05
1.32425e-05
1.30093e-05
1.3239e-05
1.30134e-05
1.16421e-05
1.32507e-05
1.34401e-05
1.32482e-05
1.25197e-05
1.35419e-05
1.3239e-05
1.32482e-05
1.26963e-05
1.29145e-05
1.32163e-05
1.26459e-05
1.32476e-05
1.30113e-05
1.36089e-05
1.31942e-05
1.01153e-05
1.32296e-05
1.29683e-05
1.2797e-05
1.24759e-05
1.32164e-05
1.21751e-05
1.3222e-05
1.37146e-05
1.29207e-05
1.3232e-05
1.32495e-05
8.51601e-06
1.32463e-05
1.33523e-05
1.32631e-05
1.32361e-05
1.33811e-05
1.06719e-05
1.34462e-05
1.32467e-05
1.32437e-05
1.32288e-05
1.3306e-05
1.01729e-05
1.32291e-05
1.32315e-05
1.32443e-05
9.58567e-06
1.32416e-05
1.32457e-05
1.32466e-05
1.32474e-05
1.36057e-05
1.32269e-05
1.32465e-05
1.32344e-05
1.32643e-05
9.97007e-06
1.36477e-05
1.3216e-05
1.32462e-05
1.29253e-05
1.28885e-05
1.324e-05
1.37276e-05
1.2353e-05
1.28832e-05
8.9938e-06
1.00591e-05
1.32419e-05
1.32426e-05
7.90456e-07
1.32299e-05
9.54629e-06
1.32285e-05
1.32426e-05
8.9905e-06
8.43249e-06
7.51652e-06
7.82202e-06
8.7202e-06
7.50812e-06
6.42838e-06
4.97199e-06
8.73029e-06
3.323e-06
2.86132e-06
3.23377e-06
3.96435e-06
4.00175e-06
8.94153e-06
4.6476e-06
3.333e-06
7.41702e-06
8.19822e-06
4.39569e-06
6.36937e-06
5.31991e-06
5.29754e-06
1.02254e-05
8.79492e-06
3.11188e-06
8.25417e-06
5.05898e-06
7.24424e-06
2.81392e-06
6.98033e-06
6.3531e-06
2.14443e-06
4.87016e-06
6.82119e-06
7.00946e-06
2.74857e-06
9.03218e-06
2.64202e-06
7.00751e-06
2.90268e-06
2.82696e-06
7.35261e-06
7.78134e-06
2.8558e-06
3.84592e-06
3.88453e-06
8.70162e-06
6.64825e-06
8.38927e-06
7.04025e-06
8.72097e-06
4.04651e-06
6.41752e-06
3.57906e-06
2.28172e-06
6.64352e-06
5.66595e-06
7.49786e-06
3.87068e-06
3.53419e-06
9.38311e-06
6.40655e-06
4.31895e-06
4.80607e-06
4.1793e-06
8.52161e-06
2.01085e-06
3.49749e-06
2.64517e-06
5.12486e-06
6.80963e-06
5.44012e-06
9.11963e-06
5.19339e-06
9.60241e-06
1.35696e-06
5.24273e-06
9.74769e-06
5.48189e-06
3.07638e-06
2.8817e-06
2.91121e-06
9.0617e-06
8.49943e-06
3.92902e-06
8.70204e-06
3.20436e-06
9.32748e-06
4.276e-06
4.37793e-06
3.73768e-06
2.659e-06
3.25477e-06
2.8175e-06
4.47442e-06
3.19382e-06
6.95035e-06
3.00106e-06
1.85567e-06
3.77175e-06
7.76777e-06
9.48461e-06
3.63524e-06
1.51925e-06
3.78489e-06
7.90435e-06
6.9301e-06
7.40261e-06
4.50268e-06
5.55121e-06
7.2023e-06
1.98723e-06
4.00473e-06
4.72104e-06
5.10667e-06
7.02042e-06
3.29952e-06
4.61863e-06
2.38616e-06
2.72473e-06
7.26154e-06
4.76859e-06
2.32043e-06
1.58347e-06
7.88727e-06
7.12165e-06
7.09063e-06
1.83671e-06
5.16254e-06
2.13461e-06
7.5475e-06
4.09516e-06
8.31351e-06
1.77566e-06
7.48789e-06
3.28901e-06
7.64169e-06
6.66322e-06
7.95637e-06
6.89426e-06
7.09866e-06
6.94389e-06
2.82767e-06
5.52241e-06
3.83589e-06
9.69728e-06
2.60206e-06
7.20192e-06
2.97922e-06
7.08155e-06
5.3385e-06
3.30588e-06
6.48858e-06
2.91668e-06
5.48652e-06
5.20614e-06
5.01267e-06
6.58059e-06
4.64927e-06
3.84494e-06
2.25622e-06
3.61532e-06
6.55276e-06
8.04543e-06
5.18668e-06
5.01929e-06
7.11028e-06
1.93188e-06
7.07179e-06
3.27278e-06
9.54961e-06
7.57614e-06
1.12506e-05
1.28047e-05
1.65614e-06
7.98925e-06
3.87183e-06
6.89124e-06
7.47924e-06
1.38157e-05
8.88351e-06
7.32748e-06
2.52409e-06
4.05457e-06
5.54242e-06
1.05464e-05
1.11014e-05
8.35756e-06
3.91181e-06
3.67205e-06
5.51458e-06
2.25109e-06
3.63182e-06
3.6498e-06
4.14947e-06
3.49256e-06
8.06683e-06
8.10409e-06
1.06625e-05
9.36781e-06
1.84968e-06
8.78568e-06
2.55084e-06
8.40772e-06
6.4094e-06
7.78055e-06
7.21498e-06
7.93878e-06
2.53058e-06
3.35311e-06
3.31181e-06
4.36791e-06
9.03625e-06
3.59503e-06
2.46475e-06
1.04496e-05
6.94799e-06
4.89141e-06
2.57721e-06
2.61078e-06
4.99424e-06
4.99764e-06
3.63892e-06
3.02138e-06
8.64075e-06
6.82489e-06
1.00703e-05
2.33456e-06
4.94793e-06
2.66853e-06
4.76059e-06
2.8423e-06
1.00399e-05
4.71753e-06
4.28927e-06
7.41238e-06
4.96138e-06
7.38955e-06
3.10551e-06
1.59393e-06
1.64027e-06
5.37977e-06
8.76244e-06
6.92633e-06
7.24392e-06
3.16479e-06
7.29179e-06
6.91782e-06
4.99919e-06
4.20388e-06
7.13143e-06
6.68426e-06
4.89987e-06
1.99203e-06
3.78108e-06
6.7918e-06
3.58217e-06
5.1529e-06
2.4509e-06
3.74336e-06
8.03327e-06
6.29625e-06
7.79256e-06
3.51072e-06
1.60177e-06
3.07265e-06
5.20438e-06
1.03838e-05
2.61551e-06
3.54579e-06
6.50649e-06
3.82652e-06
7.63407e-06
4.16811e-06
6.5413e-06
3.28098e-06
9.43267e-06
1.80926e-06
3.10924e-06
4.46606e-06
7.43764e-06
4.97241e-06
3.38792e-06
3.31545e-06
3.75194e-06
9.68478e-06
4.42446e-06