/*--------------------------------*- C++ -*----------------------------------*\
  =========                 |
  \\      /  F ield         | OpenFOAM: The Open Source CFD Toolbox
   \\    /   O peration     | Website:  https://openfoam.org
    \\  /    A nd           | Version:  8
     \\/     M anipulation  |
\*---------------------------------------------------------------------------*/
FoamFile
{
    version     2.0;
    format      ascii;
    class       volScalarField;
    location    "2";
    object      p;
}
// * * * * * * * * * * * * * * * * * * * * * * * * * * * * * * * * * * * * * //

dimensions      [0 2 -2 0 0 0 0];

internalField   nonuniform List<scalar> 
6388
(
1.45616e-05
1.45673e-05
1.3945e-05
1.40442e-05
1.1388e-05
9.22088e-06
1.36985e-05
1.32482e-05
1.38705e-05
1.32216e-05
1.16254e-05
1.31783e-05
1.36396e-05
9.33412e-06
1.35884e-05
1.35432e-05
1.33558e-05
1.01e-05
1.34716e-05
1.36479e-05
1.34781e-05
1.34716e-05
1.02332e-05
1.05066e-05
1.01657e-05
1.34461e-05
1.36878e-05
1.33514e-05
1.33137e-05
1.40456e-05
9.94959e-06
1.00195e-05
1.11964e-05
1.244e-05
9.71719e-06
1.1369e-05
1.03841e-05
1.27428e-05
1.36658e-05
9.42467e-06
1.357e-05
1.35212e-05
1.44547e-05
1.04133e-05
1.39682e-05
1.3144e-05
1.45928e-05
1.37218e-05
1.40511e-05
1.35739e-05
1.39413e-05
1.42059e-05
1.3698e-05
1.35903e-05
1.30685e-05
1.39558e-05
1.34548e-05
1.39791e-05
1.36509e-05
1.36906e-05
1.01575e-05
1.39845e-05
1.34184e-05
1.40323e-05
1.31754e-05
1.395e-05
1.32464e-05
1.35643e-05
1.27704e-05
1.39463e-05
1.29373e-05
9.83576e-06
9.18681e-06
1.26096e-05
1.39354e-05
1.3796e-05
9.60967e-06
1.39639e-05
1.4034e-05
1.00589e-05
1.32344e-05
1.15991e-07
1.0301e-07
1.03789e-07
1.0077e-07
1.13404e-07
1.207e-05
1.16519e-07
1.01132e-07
1.02682e-07
1.1141e-07
9.55672e-08
1.39542e-05
1.43209e-05
1.35202e-05
1.42136e-05
1.39496e-05
9.63072e-06
1.41457e-05
1.3682e-05
1.34682e-05
1.28943e-05
1.33673e-05
1.32072e-05
1.32374e-05
1.22406e-05
1.38107e-05
1.33082e-05
1.33843e-05
1.39417e-05
1.36412e-05
1.05719e-05
1.08551e-05
1.36522e-05
1.43303e-05
1.41806e-05
1.17752e-05
1.45448e-05
1.36751e-05
1.39383e-05
8.76556e-06
1.39363e-05
1.34499e-05
1.3894e-05
1.0279e-05
1.42159e-05
1.3889e-05
1.36002e-05
1.39113e-05
1.34893e-05
1.06779e-05
1.32827e-05
1.38246e-05
1.42221e-05
1.39545e-05
1.05249e-05
1.01172e-05
1.29515e-05
1.39901e-05
1.32523e-05
1.08495e-05
1.41683e-05
1.34389e-05
1.40568e-05
1.39183e-05
1.34701e-05
1.3781e-05
1.39465e-05
1.35959e-05
1.41976e-05
1.32224e-05
1.41068e-05
1.32106e-05
1.04898e-05
1.31165e-05
1.36642e-05
1.26506e-05
1.39457e-05
1.03413e-05
1.25595e-05
1.40449e-05
1.43301e-05
9.57783e-06
1.2607e-05
1.3948e-05
1.23654e-05
9.08937e-06
8.89351e-06
8.82937e-06
1.38825e-05
9.49986e-06
1.32668e-05
1.34543e-05
1.3947e-05
1.33396e-05
1.00126e-05
1.38876e-05
1.37081e-05
1.42281e-05
1.32516e-05
1.32667e-05
1.29135e-05
9.73452e-06
8.39963e-06
1.34402e-05
1.23004e-05
1.39548e-05
1.03689e-05
1.34021e-05
1.05391e-05
1.08507e-05
1.30629e-05
1.10852e-05
1.45361e-05
1.339e-05
1.39109e-05
1.39485e-05
1.39191e-05
9.28306e-06
8.81245e-06
8.50931e-06
9.51598e-06
1.39447e-05
8.57052e-06
8.63896e-06
8.82364e-06
9.27423e-06
1.04265e-05
1.39298e-05
1.37378e-05
9.73341e-06
1.01984e-05
9.27126e-06
1.22993e-05
6.82407e-06
6.55733e-06
6.42036e-06
6.36841e-06
9.97372e-06
1.36002e-05
6.80085e-06
1.39757e-05
8.62341e-06
1.02138e-05
1.3944e-05
8.24708e-06
1.08731e-05
7.26887e-06
6.98954e-06
6.84302e-06
6.78815e-06
1.25441e-05
8.57178e-06
1.37533e-05
1.32463e-05
7.23949e-06
1.22269e-05
9.14008e-06
7.94847e-06
9.52429e-06
7.72204e-06
7.56371e-06
7.50023e-06
1.21995e-05
8.14554e-06
7.97834e-06
7.91175e-06
8.62536e-06
9.67527e-06
1.1334e-05
1.39237e-05
9.40434e-06
9.03541e-06
8.58189e-06
8.40378e-06
8.33557e-06
9.06553e-06
8.85087e-06
8.85838e-06
9.10671e-06
5.70823e-06
9.04004e-06
9.30627e-06
5.64657e-06
6.15296e-06
8.12795e-06
8.19594e-06
8.36815e-06
6.13415e-06
6.00649e-06
5.95746e-06
6.06112e-06
6.37798e-06
9.13011e-06
1.31964e-05
6.39268e-06
1.39421e-05
1.12377e-05
7.00873e-06
6.46174e-06
8.41771e-06
7.25239e-06
7.03458e-06
1.3633e-05
7.08804e-06
1.38414e-05
7.66104e-06
7.66085e-06
1.34345e-05
9.41361e-06
9.19345e-06
1.32635e-05
1.05166e-05
1.36071e-05
7.67778e-06
8.09163e-06
1.39507e-05
7.79131e-06
8.92431e-06
1.3599e-05
1.12704e-05
1.07471e-05
1.3964e-05
7.64801e-06
7.72704e-06
8.09047e-06
7.24249e-06
7.3027e-06
7.45688e-06
6.933e-06
1.39671e-05
1.10659e-05
1.38828e-05
1.17088e-05
9.7242e-06
1.39481e-05
1.08915e-05
7.35101e-06
1.36216e-05
8.32403e-06
8.71315e-06
1.3803e-05
9.37236e-06
8.7229e-06
7.78507e-06
1.33611e-05
1.27041e-05
1.02871e-05
1.06466e-05
5.4271e-06
6.77873e-07
6.13819e-07
6.31926e-07
6.24325e-07
6.74972e-07
6.51629e-06
5.94887e-06
1.06474e-05
1.03419e-05
1.26204e-05
1.30674e-05
6.60032e-06
5.84116e-06
1.3828e-05
6.02598e-06
7.87277e-06
1.36521e-05
5.96168e-06
7.49678e-06
7.05158e-06
7.10845e-06
7.25994e-06
1.0124e-05
1.0423e-05
6.47451e-06
8.22029e-06
1.06947e-05
7.03904e-06
1.14737e-05
8.16043e-06
7.71267e-06
7.77753e-06
7.94058e-06
9.70775e-06
1.32809e-05
1.16623e-05
5.00993e-06
7.04837e-06
1.33998e-05
6.5731e-06
6.62638e-06
6.76811e-06
5.76832e-06
1.04978e-05
1.05924e-05
8.02464e-06
1.24455e-05
6.21589e-06
7.5253e-06
7.44956e-06
1.32883e-05
1.39358e-05
5.70744e-06
5.58906e-06
5.54312e-06
1.32137e-05
1.32961e-05
7.48435e-06
7.35419e-06
1.38794e-05
7.44482e-06
8.05551e-06
6.80021e-06
6.89984e-06
1.39319e-05
1.05065e-05
7.23654e-06
1.13239e-05
6.84579e-06
7.26604e-06
1.33139e-05
1.3615e-05
1.34486e-05
1.40593e-05
6.97822e-06
7.88021e-06
8.31992e-06
1.36446e-05
1.40875e-05
5.26274e-06
1.31484e-05
1.39394e-05
1.40715e-05
4.72369e-06
4.68383e-06
4.82272e-06
1.18413e-05
1.39072e-05
1.39683e-05
6.64174e-06
1.35034e-05
1.39427e-05
6.04846e-06
6.67916e-06
1.42258e-05
4.8186e-06
5.2984e-06
1.26354e-05
1.3821e-05
7.87032e-06
1.39451e-05
5.34554e-06
1.29801e-05
6.5868e-06
1.09324e-05
5.30155e-06
1.42405e-05
6.2551e-06
5.45844e-06
6.61865e-06
6.16418e-06
6.21479e-06
6.34704e-06
1.26373e-05
6.32931e-06
7.55007e-06
5.23412e-06
5.48641e-06
1.35989e-05
5.15753e-06
1.34588e-05
1.10169e-05
7.45861e-06
1.06928e-05
1.22775e-05
6.37657e-06
1.37693e-05
1.27687e-05
4.87066e-06
5.7523e-06
5.7999e-06
5.92288e-06
5.85046e-06
4.86438e-06
4.89148e-06
4.93248e-06
5.03643e-06
5.73794e-06
1.38647e-05
4.88828e-06
7.14642e-06
1.39435e-05
5.74726e-06
1.3614e-05
5.93248e-06
1.10858e-05
1.33146e-05
1.41861e-05
5.80622e-06
1.04642e-05
1.15572e-05
6.75248e-06
5.52313e-06
6.16348e-06
5.2232e-06
6.17738e-06
5.52957e-06
1.39485e-05
9.03722e-06
5.58143e-06
1.39573e-05
5.02201e-06
5.08016e-06
5.56332e-06
1.35808e-05
5.07525e-06
1.03321e-05
6.422e-06
6.24641e-06
1.10955e-05
8.79805e-06
1.40808e-05
1.39538e-05
5.6348e-06
1.29481e-05
5.36006e-06
5.10771e-06
1.39488e-05
1.16342e-05
1.38147e-05
5.98388e-06
1.18907e-05
4.63216e-06
1.41034e-05
1.29649e-05
1.07997e-05
1.36409e-05
1.33284e-05
4.94661e-06
1.1253e-05
4.43321e-06
1.04854e-05
1.17428e-05
1.01688e-05
1.39305e-05
1.16008e-05
1.40852e-05
1.34725e-05
1.35849e-05
1.21457e-05
1.38986e-05
4.74632e-06
1.34246e-05
8.53397e-06
1.32894e-05
1.39488e-05
1.37879e-05
1.25545e-05
1.39745e-05
1.34921e-05
1.05571e-05
1.41015e-05
1.39326e-05
1.39602e-05
1.40722e-05
1.36899e-05
1.41485e-05
1.35119e-05
1.40631e-05
1.39551e-05
1.37015e-05
1.36092e-05
1.25921e-05
1.39572e-05
1.11264e-05
1.36623e-05
1.39102e-05
1.20956e-05
1.39045e-05
1.3744e-05
1.31658e-05
9.94268e-06
1.36627e-05
1.40464e-05
1.29347e-05
1.20152e-05
1.38756e-05
1.30078e-05
1.40701e-05
1.14678e-05
1.18726e-05
1.38699e-05
1.36307e-05
1.39721e-05
1.14531e-05
1.40525e-05
1.03804e-05
1.03868e-06
1.07316e-06
9.89418e-07
1.0008e-06
1.01843e-06
4.07481e-06
4.1092e-06
4.19565e-06
1.32001e-05
1.16044e-05
1.19591e-05
1.33876e-05
1.36051e-05
1.14097e-05
1.38603e-05
1.07499e-05
1.40162e-05
1.39692e-05
1.46981e-05
8.77401e-06
1.20059e-05
1.42096e-05
1.17292e-05
1.41419e-05
1.35795e-05
1.40155e-05
1.39601e-05
1.39019e-05
1.29104e-05
1.39426e-05
1.05453e-05
1.30189e-05
1.39495e-05
1.34707e-05
1.37988e-05
1.40381e-05
1.25043e-05
1.08723e-05
1.3942e-05
1.07254e-05
1.2101e-05
1.38046e-05
4.27725e-06
3.96029e-07
3.92886e-07
4.17722e-07
3.83372e-07
1.32568e-05
4.00057e-07
1.31615e-05
1.37945e-05
9.29607e-06
1.39503e-05
1.23814e-05
1.34802e-05
1.38061e-05
4.23906e-06
1.0365e-05
1.38831e-05
8.21091e-06
1.3956e-05
1.39532e-05
3.80794e-06
1.12013e-05
1.3405e-05
1.33027e-05
1.04602e-05
3.97588e-07
4.74464e-07
4.23331e-07
4.32031e-07
5.08153e-07
1.32613e-05
1.10181e-05
1.36114e-05
1.18904e-05
1.3545e-05
1.39463e-05
1.27119e-05
1.12545e-05
4.02139e-06
1.26351e-05
1.19206e-05
1.27099e-05
9.9514e-06
1.39995e-05
1.41301e-05
1.41532e-05
1.38105e-05
1.00615e-05
1.41224e-05
1.39561e-05
1.36806e-05
1.01683e-05
1.40304e-05
1.29069e-05
4.76642e-07
4.60729e-07
4.15415e-07
4.05551e-07
4.18151e-07
1.39854e-05
1.38905e-05
1.38648e-05
4.26516e-07
4.16233e-07
4.2857e-07
4.20628e-07
4.47696e-07
1.11e-05
1.03823e-05
1.35572e-05
8.73593e-06
1.37045e-05
1.4077e-05
1.17495e-05
1.36716e-05
1.13001e-05
1.12018e-05
1.34803e-05
1.31474e-05
1.32513e-05
1.35306e-05
1.06014e-05
1.39069e-05
1.39485e-05
1.41352e-05
1.3516e-05
1.36837e-05
1.35579e-05
1.3158e-05
1.30181e-05
1.40027e-05
1.40502e-05
1.39324e-05
1.41362e-05
1.39497e-05
1.38458e-05
9.77243e-06
1.09669e-05
1.01713e-05
1.18536e-05
1.33579e-05
1.4004e-05
1.05993e-05
1.35947e-05
1.16236e-05
1.38556e-05
1.35206e-05
1.39487e-05
1.22471e-05
1.12858e-05
1.42537e-05
1.40612e-05
1.39579e-05
7.24413e-06
1.34304e-05
1.36204e-05
1.17923e-05
4.23317e-06
1.39612e-05
1.38692e-05
1.24752e-05
1.39597e-05
5.04124e-06
1.36903e-05
1.28677e-05
8.5095e-06
1.35118e-05
1.39579e-05
1.34804e-05
1.37865e-05
9.6378e-06
4.50986e-06
1.24884e-05
1.1369e-05
9.99217e-06
1.06113e-05
9.73071e-06
1.20635e-05
1.38537e-05
1.24435e-05
1.26828e-05
1.40803e-05
1.38171e-05
1.39338e-05
1.0928e-05
1.371e-05
9.05069e-06
8.87731e-06
8.79124e-06
6.73895e-07
1.39633e-05
1.39459e-05
1.37671e-05
1.39414e-05
1.28194e-05
5.92597e-07
6.75953e-07
6.16423e-07
6.28062e-07
1.27605e-05
1.29247e-05
1.36666e-05
1.24039e-05
1.38423e-05
1.39245e-05
1.36435e-05
1.35451e-05
1.39039e-05
1.17235e-05
1.39384e-05
1.39914e-05
1.40133e-05
1.26802e-05
1.37393e-05
1.40581e-05
1.39202e-05
1.39476e-05
1.4217e-05
1.30305e-05
9.55516e-06
1.33874e-05
1.38285e-05
1.25708e-05
8.29862e-06
1.40234e-05
1.28863e-05
1.34097e-05
1.22347e-05
1.38025e-05
1.32347e-05
1.07062e-05
1.15977e-05
1.14508e-05
1.30718e-05
1.39469e-05
1.39408e-05
1.03901e-05
9.13733e-06
1.23723e-05
1.41999e-05
1.39288e-05
1.3558e-05
1.40284e-05
1.35684e-05
1.17283e-05
1.46259e-05
1.10932e-05
1.3482e-05
1.02186e-05
8.92993e-06
9.67414e-06
1.39439e-05
1.36334e-05
1.42134e-05
1.34906e-05
1.39648e-05
1.42788e-05
1.38938e-05
9.44754e-06
1.38535e-05
1.33801e-05
1.39529e-05
1.3147e-05
9.65711e-06
1.39807e-05
4.0208e-06
1.39171e-05
1.31802e-05
1.34861e-05
1.31899e-05
5.56658e-06
9.79907e-06
1.40345e-05
1.43175e-05
1.39882e-05
1.41309e-05
4.26079e-06
1.39495e-05
1.36595e-05
1.30433e-05
1.15969e-05
1.34343e-05
9.75839e-06
1.03739e-05
1.00766e-05
1.36128e-05
9.88218e-06
9.86857e-06
2.16256e-06
6.00207e-06
5.87744e-06
5.82924e-06
1.42408e-05
1.39044e-05
1.39485e-05
1.01593e-05
1.38466e-05
1.27952e-05
1.39383e-05
1.14127e-05
1.39575e-05
1.37019e-05
1.38538e-05
3.98199e-06
3.89987e-06
3.86731e-06
1.10061e-05
1.39609e-05
1.33754e-05
1.15602e-05
1.39229e-05
8.93855e-06
1.02448e-05
1.36673e-05
8.82951e-07
8.2672e-07
7.87412e-07
1.32722e-05
2.2747e-06
1.41766e-05
1.34779e-05
6.61487e-06
8.04876e-07
1.31882e-05
1.35331e-05
9.69336e-06
9.97898e-06
1.35482e-05
1.38165e-05
9.07899e-06
9.52454e-06
9.80517e-06
1.02889e-06
1.21362e-05
1.37922e-05
1.03227e-05
1.01632e-05
1.30514e-05
5.24696e-06
1.21434e-05
7.70555e-06
5.66968e-06
1.38269e-05
1.38846e-05
1.0565e-06
1.38861e-05
9.56713e-06
9.29318e-06
1.18366e-05
7.87595e-06
1.25621e-05
8.50107e-06
1.3876e-05
1.84055e-06
1.38331e-05
9.38991e-06
1.39519e-05
8.08497e-06
1.30599e-05
1.91839e-06
1.86322e-06
1.88015e-06
1.91494e-06
1.29466e-05
3.71674e-06
1.13867e-05
2.65846e-06
1.72062e-06
9.17169e-06
2.49891e-06
1.19857e-05
1.35077e-05
1.12125e-05
4.02587e-06
8.64672e-06
1.22677e-05
1.38414e-05
1.34668e-05
9.88882e-06
1.40013e-05
1.41691e-05
3.98927e-06
3.90719e-06
3.87439e-06
1.35039e-05
1.4185e-05
4.62769e-06
4.533e-06
4.49452e-06
8.70137e-06
8.43889e-06
8.26725e-06
8.19685e-06
2.59576e-06
1.34554e-05
1.55654e-06
9.59664e-06
1.3945e-05
3.73631e-06
1.73031e-06
1.39435e-05
1.39383e-05
2.89757e-06
1.41913e-05
1.3954e-05
1.26309e-05
1.37099e-05
2.13241e-06
2.07109e-06
2.08971e-06
3.59544e-06
1.94094e-06
2.28006e-06
2.23449e-06
2.21454e-06
1.31857e-05
1.31083e-05
2.97024e-06
3.13406e-06
3.04389e-06
3.07023e-06
4.05693e-06
1.82214e-06
1.39801e-05
2.70739e-06
2.62953e-06
2.65269e-06
1.38984e-05
1.35507e-05
1.24712e-06
1.34228e-05
1.37686e-05
2.50036e-06
1.39593e-05
1.39532e-05
1.45106e-06
1.42324e-06
1.4095e-06
1.45766e-06
1.00428e-05
1.36556e-05
1.30902e-05
1.27256e-06
9.74209e-06
9.30431e-06
2.54407e-06
1.35463e-05
1.52225e-06
3.8317e-06
3.7952e-06
1.40158e-05
1.27056e-05
1.78252e-06
3.56232e-06
3.45978e-06
3.48939e-06
4.82802e-06
9.47835e-06
3.77435e-06
1.39246e-05
4.03639e-06
3.11957e-06
2.12691e-06
2.07116e-06
1.89258e-06
1.67536e-06
2.56034e-06
2.48669e-06
2.50857e-06
1.3571e-05
2.51069e-06
2.43854e-06
2.46025e-06
6.83643e-06
3.27144e-06
2.23782e-06
4.68305e-06
2.92043e-06
2.83642e-06
2.86118e-06
2.00564e-06
3.38354e-06
3.18068e-06
4.28483e-06
4.32153e-06
4.41189e-06
2.63027e-06
3.52634e-06
1.39041e-05
3.32568e-06
1.19597e-05
1.40115e-05
4.16939e-06
3.7476e-06
3.59989e-06
4.67139e-06
1.39026e-05
4.71873e-06
3.94855e-06
2.09234e-06
2.49384e-06
2.42213e-06
2.44374e-06
2.98815e-06
2.92728e-06
2.90217e-06
1.17539e-05
3.69125e-06
3.66003e-06
3.76863e-06
2.89827e-06
3.28304e-06
1.41069e-06
1.33327e-05
2.70938e-06
1.39465e-05
4.45516e-06
1.40794e-05
3.34786e-06
3.25151e-06
3.2795e-06
5.87605e-06
1.39378e-05
1.29827e-05
1.36199e-05
1.09199e-05
1.50265e-06
1.39762e-05
2.34696e-06
2.29969e-06
2.27945e-06
4.46189e-06
1.39127e-05
2.77496e-06
2.71861e-06
2.69512e-06
4.59392e-06
3.57755e-06
1.43414e-06
3.4164e-06
3.34645e-06
3.31809e-06
1.46433e-06
1.6154e-06
1.8853e-06
1.39611e-05
1.32813e-05
3.79194e-06
1.38981e-05
3.34448e-06
3.95844e-06
2.94029e-06
1.39563e-05
3.77674e-06
3.668e-06
3.69931e-06
2.17845e-06
2.02991e-06
3.60195e-06
2.76039e-06
1.19666e-05
3.4942e-06
4.48804e-06
1.66848e-06
2.29525e-06
3.20308e-06
3.11092e-06
3.13764e-06
2.44605e-06
2.05084e-06
3.16851e-06
1.38145e-05
1.35586e-05
1.35595e-05
1.48296e-06
3.53655e-06
1.35636e-05
3.1827e-06
1.32114e-05
3.61017e-06
1.30181e-05
4.4562e-06
2.48417e-06
2.12337e-06
3.31844e-06
1.39272e-05
6.03119e-07
6.68303e-07
6.29297e-07
3.43955e-06
2.38302e-06
4.23957e-06
6.26462e-07
1.32961e-06
1.39565e-05
3.35483e-06
3.33283e-06
3.34284e-06
2.20664e-06
2.22635e-06
2.27199e-06
4.02322e-06
3.36648e-06
2.2887e-06
4.37332e-06
4.38171e-06
3.56486e-06
2.26379e-06
1.22381e-05
9.5912e-06
4.37659e-06
2.52863e-06
2.32614e-06
1.64239e-06
5.78835e-06
1.3903e-05
3.36109e-06
3.63176e-06
3.52724e-06
3.55724e-06
2.48585e-06
2.01907e-06
3.39186e-06
1.25256e-05
3.81554e-06
3.63582e-06
3.20165e-06
1.35508e-05
3.813e-06
8.36906e-07
2.06598e-06
2.02497e-06
2.00663e-06
2.06354e-06
8.58989e-06
1.0494e-06
3.93174e-06
1.37684e-05
4.68534e-06
1.39197e-05
6.27929e-06
1.40835e-05
2.95259e-06
2.95431e-06
4.80581e-06
4.44496e-06
1.21839e-05
3.84529e-06
3.76623e-06
3.73464e-06
5.75767e-06
3.11248e-06
9.73141e-06
1.00184e-05
5.33486e-06
5.37936e-06
5.49296e-06
3.12248e-06
1.34161e-05
3.41085e-06
3.5679e-06
2.69044e-06
1.12251e-06
1.1836e-06
1.21108e-05
3.55634e-06
1.09162e-06
3.93865e-06
3.48663e-06
4.67696e-06
8.26297e-07
8.0718e-07
7.99668e-07
8.69848e-07
4.08563e-06
8.39268e-07
8.28503e-07
8.18081e-07
8.85059e-07
8.66887e-07
4.23514e-06
1.33292e-05
3.24316e-06
3.27099e-06
3.33935e-06
4.86028e-06
1.36472e-05
1.36435e-05
2.99041e-06
6.21591e-06
6.08676e-06
6.03692e-06
3.14953e-06
1.32672e-05
1.40453e-05
5.11048e-06
5.26201e-06
5.15352e-06
1.44069e-06
1.39165e-06
1.40544e-06
1.43269e-06
6.47321e-06
1.3165e-05
1.23742e-05
1.34027e-05
3.40536e-06
5.44674e-06
3.86301e-06
8.92233e-06
4.01531e-06
2.689e-06
3.04153e-06
1.42718e-05
1.61074e-06
1.19739e-05
1.32463e-05
1.32363e-05
2.86502e-06
5.37963e-06
1.33991e-05
4.65536e-06
3.14877e-06
3.04849e-06
4.69877e-06
1.39087e-05
1.08547e-05
1.05371e-05
1.44417e-06
4.60341e-06
3.11471e-06
3.66742e-06
1.09599e-05
5.39607e-06
8.65588e-06
8.48085e-06
8.4077e-06
3.56313e-06
3.82411e-06
5.23866e-06
1.29756e-05
1.29427e-05
1.05449e-06
1.31569e-05
1.30611e-06
1.38899e-06
1.17463e-06
1.11095e-06
1.8489e-06
5.08798e-06
2.30794e-06
1.27038e-06
9.15505e-06
2.89458e-06
1.21608e-06
4.20437e-06
4.11772e-06
4.08323e-06
4.25637e-06
4.4773e-06
1.31937e-05
4.30939e-06
1.40152e-05
1.82116e-06
1.31771e-05
3.88365e-06
1.39092e-05
1.01302e-05
3.58988e-06
5.63976e-06
1.38912e-05
7.04079e-06
5.06866e-06
4.25421e-06
2.4508e-06
5.22308e-06
1.03965e-05
4.00548e-06
1.49509e-06
1.58824e-06
3.62482e-06
5.04989e-06
1.4186e-05
4.82087e-06
4.86871e-06
2.94132e-06
1.67604e-06
5.50753e-06
1.21869e-05
5.67193e-06
2.31653e-06
1.37594e-05
6.16874e-06
5.71877e-06
2.0683e-06
4.53257e-06
5.8279e-06
1.53252e-06
2.67478e-06
5.59679e-06
1.31115e-05
1.38952e-05
1.40695e-06
1.39544e-05
1.39399e-05
7.48423e-06
1.59424e-06
1.60944e-06
1.6413e-06
1.64496e-06
1.26978e-06
1.23315e-06
1.24484e-06
1.2719e-06
5.74849e-06
3.39065e-06
1.38741e-05
3.80965e-06
6.09242e-06
3.54077e-06
3.57083e-06
3.64576e-06
5.37358e-06
8.50004e-07
5.57026e-06
6.05718e-06
1.35848e-05
6.00632e-06
1.40898e-05
1.27677e-05
1.3077e-05
1.84408e-06
1.79314e-06
1.80959e-06
1.84608e-06
1.39463e-05
3.97864e-06
1.32746e-05
1.35569e-05
4.60526e-06
1.08308e-06
1.04179e-06
1.00234e-06
1.03143e-06
1.01284e-06
6.61377e-06
4.24883e-06
2.36873e-06
2.73131e-06
5.49368e-06
1.65073e-06
1.34774e-05
1.78898e-06
9.85576e-06
9.57354e-06
3.1345e-06
1.10546e-05
2.45607e-06
2.69281e-06
1.39395e-05
3.3649e-06
1.09496e-05
2.60352e-06
3.12893e-06
3.15587e-06
3.22165e-06
3.20275e-06
6.4845e-06
1.39366e-05
1.21443e-05
3.39808e-06
7.06023e-06
5.4321e-06
1.39422e-05
1.37239e-05
3.83394e-06
4.94777e-06
5.30224e-06
1.25149e-06
1.20424e-06
1.21673e-06
1.23923e-06
9.51681e-06
9.79751e-06
1.06121e-06
1.09713e-06
1.16601e-06
1.10019e-05
1.02118e-06
6.02445e-06
1.30131e-06
8.07384e-06
2.2297e-06
5.609e-06
5.28396e-06
2.71309e-06
5.84811e-06
4.32463e-06
5.91224e-06
1.3985e-05
6.05189e-06
1.39408e-05
1.01945e-05
2.51739e-06
5.84381e-06
9.37907e-06
1.32852e-05
5.95685e-06
2.74119e-06
1.48601e-06
2.33829e-06
3.42185e-06
2.0123e-06
1.63964e-06
8.36125e-06
1.10291e-05
2.30573e-06
1.39598e-05
1.20499e-05
5.89874e-06
2.9202e-06
1.89362e-06
6.39274e-06
1.35771e-05
1.32035e-06
5.70406e-06
6.26461e-06
1.05645e-06
1.3933e-05
6.95642e-06
5.81315e-06
1.3712e-05
1.00653e-05
6.44795e-06
1.39405e-05
5.62019e-06
1.27415e-05
2.08034e-06
5.78955e-06
8.56278e-06
1.25777e-06
1.23418e-06
1.22186e-06
1.26619e-06
1.39229e-05
3.68789e-06
3.87365e-06
8.54677e-07
8.29764e-07
8.38626e-07
8.98168e-07
8.64859e-07
1.35979e-05
1.3487e-05
6.29998e-06
6.12454e-06
6.23706e-06
1.65273e-06
7.40383e-06
1.39069e-05
5.93939e-06
6.12164e-06
4.42986e-06
4.33865e-06
4.30221e-06
1.93169e-06
4.15949e-06
3.21869e-06
6.83165e-06
9.43935e-06
2.9555e-06
2.98736e-06
1.36936e-05
1.33824e-05
6.24062e-06
6.07178e-06
1.37151e-05
6.16189e-06
1.91171e-06
8.17363e-06
8.15304e-06
1.39466e-05
3.21046e-06
5.96857e-06
1.34742e-05
3.09516e-06
1.85766e-06
2.11852e-06
1.70234e-06
1.65398e-06
1.66931e-06
1.70295e-06
3.36278e-06
3.26152e-06
6.5076e-06
9.8222e-06
2.15014e-06
2.11237e-06
2.09351e-06
2.15536e-06
7.73333e-06
3.42506e-06
3.74326e-06
3.77478e-06
3.85432e-06
1.31962e-05
6.75304e-06
1.39154e-05
1.26156e-06
3.84855e-06
7.72683e-06
3.24148e-06
6.66377e-06
1.40943e-05
7.82253e-06
1.32621e-06
1.39745e-06
1.3305e-05
1.33944e-05
3.63896e-06
4.35428e-06
1.38834e-05
6.5302e-06
1.43655e-05
6.33196e-06
6.72459e-06
2.5289e-06
1.07273e-05
1.06525e-05
1.17494e-05
6.36097e-06
6.22883e-06
6.17779e-06
3.60997e-06
3.39262e-06
3.78795e-06
4.70181e-06
4.60426e-06
4.56644e-06
7.45967e-06
1.35565e-05
7.29109e-06
2.68293e-06
1.79085e-07
1.76179e-07
1.55114e-07
1.86485e-07
1.79285e-07
1.62684e-07
1.65825e-07
1.61566e-07
1.62288e-07
1.58441e-07
6.57729e-06
6.44065e-06
6.38788e-06
1.37602e-05
1.70508e-06
1.329e-05
3.95512e-06
2.76922e-06
1.35473e-05
2.67464e-06
1.29209e-05
1.05568e-05
4.48773e-06
4.35853e-06
4.39492e-06
9.93718e-06
1.33465e-05
2.09654e-06
1.3943e-05
1.39492e-05
7.19712e-06
4.39573e-06
1.25562e-06
1.37012e-05
8.26376e-06
5.01477e-06
4.09378e-06
7.18357e-06
6.68694e-06
1.31108e-05
1.31709e-05
1.38314e-05
1.39466e-05
6.88023e-06
1.36802e-05
1.3496e-05
1.3846e-05
2.7636e-06
2.89486e-06
6.97506e-06
2.75961e-06
1.4003e-05
4.06099e-06
3.97736e-06
3.94413e-06
5.1402e-06
5.03385e-06
4.99223e-06
1.33061e-05
1.41914e-05
1.55666e-06
5.60652e-06
3.20189e-06
3.97389e-06
3.81732e-06
3.18159e-06
3.43096e-06
7.93766e-06
5.53982e-06
1.39206e-05
4.79735e-06
4.2757e-06
1.27989e-05
4.17612e-06
1.38517e-05
3.42065e-06
9.58857e-06
2.34444e-06
1.3946e-05
7.62131e-06
2.82749e-06
2.85204e-06
2.91132e-06
9.65054e-06
4.58402e-06
5.54715e-06
8.11792e-06
3.67912e-06
3.71024e-06
3.78815e-06
2.81358e-06
7.24714e-06
4.02619e-06
5.35918e-06
5.2483e-06
5.2049e-06
1.12571e-05
9.22324e-06
3.85379e-06
1.33905e-05
4.62106e-06
8.90472e-07
7.6459e-06
6.3823e-06
8.69841e-06
5.09252e-06
4.98778e-06
4.94593e-06
3.45349e-06
5.35011e-06
3.89363e-06
3.06544e-06
7.42195e-06
3.89585e-06
1.35644e-05
1.26121e-05
1.34619e-05
4.75196e-06
7.7199e-06
5.27069e-06
1.27227e-05
2.314e-06
1.39846e-05
2.18272e-06
1.05853e-05
3.51067e-06
9.54339e-06
9.69352e-06
9.41608e-06
1.30102e-05
1.39396e-05
1.13949e-05
4.74036e-06
3.29401e-06
3.26593e-06
3.36271e-06
8.0389e-06
1.38579e-05
1.32247e-05
4.89971e-06
4.4729e-06
4.07688e-06
2.99328e-06
4.57247e-06
1.36773e-05
8.75033e-07
9.60087e-07
9.05879e-07
8.58361e-07
7.24478e-06
2.38366e-06
3.73212e-06
8.08001e-06
3.58979e-06
6.79252e-06
6.65125e-06
6.59697e-06
4.54463e-06
1.36107e-05
4.10164e-06
4.23208e-06
8.33323e-06
7.8674e-06
3.4725e-06
3.50211e-06
3.5754e-06
3.41577e-06
1.42643e-05
1.69812e-06
3.78638e-06
4.50732e-06
1.34704e-05
4.39981e-06
9.3523e-06
1.38403e-05
1.33874e-05
3.44327e-06
1.35244e-05
9.14931e-06
8.48155e-06
1.85264e-06
1.75053e-06
2.30757e-06
9.90181e-06
1.39477e-05
4.87763e-06
4.73715e-06
4.77728e-06
5.50762e-06
5.34908e-06
5.39376e-06
4.1842e-06
1.35706e-05
4.59788e-06
4.54508e-06
6.45695e-06
3.66772e-06
2.9606e-06
3.64841e-06
2.25101e-06
2.23087e-06
2.29684e-06
3.83014e-06
1.40122e-05
4.52771e-06
7.9428e-06
1.35528e-05
4.02631e-06
9.3536e-06
4.75657e-06
3.28705e-06
3.40872e-06
3.34288e-06
1.94791e-06
8.50183e-06
6.82909e-06
8.16138e-06
1.00276e-05
1.19256e-05
5.01508e-06
8.19021e-06
1.36991e-05
8.28969e-06
9.35095e-06
6.67951e-06
5.17271e-06
8.92202e-06
7.12637e-06
1.39428e-05
4.26043e-06
1.31851e-05
4.14649e-06
1.20354e-05
4.30878e-06
2.29041e-06
1.40158e-05
9.60552e-06
1.38667e-05
1.07038e-05
4.15884e-06
3.58011e-06
6.31898e-06
6.86722e-06
6.72449e-06
6.66964e-06
1.1414e-05
8.38827e-06
1.31611e-05
1.45126e-05
3.05959e-06
7.05172e-06
4.34413e-06
6.01087e-06
1.28655e-06
4.15299e-06
6.17932e-06
1.30655e-05
8.72209e-06
1.23225e-05
1.3925e-05
1.50684e-06
3.61793e-06
1.35138e-05
2.40145e-06
1.3329e-05
5.71826e-06
5.59976e-06
5.55366e-06
5.93297e-06
4.5752e-06
7.87603e-06
4.58186e-06
1.35946e-05
4.90151e-06
1.18923e-05
1.99859e-06
7.79528e-06
1.01017e-05
1.1565e-05
7.53614e-06
7.3802e-06
7.31961e-06
4.91996e-06
7.34918e-06
7.08764e-06
6.94035e-06
6.88379e-06
1.0075e-05
5.11874e-06
6.4677e-06
7.90528e-06
3.05795e-06
3.08444e-06
3.14852e-06
1.35166e-05
1.38055e-05
7.73727e-06
1.35801e-05
1.01394e-05
9.84904e-06
7.49991e-06
2.68241e-06
7.47848e-06
7.32414e-06
7.26346e-06
7.23753e-06
7.08747e-06
7.0292e-06
8.54929e-06
3.1302e-06
5.134e-06
1.37407e-05
1.21065e-05
1.38652e-05
1.40297e-05
9.77212e-06
8.95277e-06
2.37283e-06
2.3151e-06
9.18789e-06
1.39249e-05
6.74722e-06
6.4319e-06
6.29815e-06
6.24671e-06
1.15619e-05
1.03421e-05
1.28148e-05
6.9056e-06
2.08381e-06
1.08942e-05
5.82244e-06
3.70783e-06
1.29206e-05
2.64256e-06
2.61973e-06
2.69736e-06
1.40894e-05
3.45042e-06
3.47988e-06
3.55278e-06
4.65371e-06
3.19555e-06
1.88776e-06
3.80101e-06
1.37118e-05
6.2498e-06
4.46566e-06
2.90996e-06
2.46186e-06
9.43872e-06
8.97202e-07
8.55502e-07
8.40155e-07
8.31681e-07
8.63486e-07
1.31681e-05
1.83928e-06
6.35539e-06
8.43652e-06
1.34453e-05
5.1543e-06
8.15156e-06
7.98534e-06
7.91747e-06
1.0323e-05
1.31167e-05
1.31537e-05
8.21221e-06
1.12193e-05
7.47758e-06
7.93477e-06
7.77234e-06
7.70692e-06
1.12013e-05
5.46796e-06
8.02429e-06
1.04303e-05
7.95009e-06
7.76132e-06
7.60112e-06
7.53841e-06
6.61426e-07
7.10383e-06
4.23501e-06
1.39363e-05
2.68671e-06
5.17763e-06
2.95316e-06
2.71173e-06
1.39365e-05
8.84342e-06
5.21642e-06
6.89165e-06
2.23224e-06
3.95268e-06
3.98548e-06
4.06978e-06
3.10531e-06
1.05328e-05
1.39534e-05
2.30953e-06
7.17968e-06
1.048e-05
2.7425e-06
6.83715e-06
3.26259e-06
7.04952e-06
7.45458e-06
1.18567e-05
4.47522e-06
8.74256e-06
3.03424e-06
3.06033e-06
3.12421e-06
1.37396e-05
1.39593e-05
2.09881e-06
1.40832e-05
1.39158e-05
6.96555e-06
5.04483e-06
1.3942e-05
6.54764e-06
2.90074e-06
1.39294e-05
1.21386e-05
1.36694e-05
6.61512e-06
3.15476e-06
2.24565e-06
1.39429e-05
1.43819e-05
3.60174e-06
1.08149e-05
1.38065e-05
1.65795e-06
2.07746e-06
2.0215e-06
2.03989e-06
2.08122e-06
1.18768e-05
3.78049e-06
1.38414e-05
1.32756e-05
8.20834e-06
1.22446e-05
2.73871e-06
4.04421e-06
2.81699e-06
7.61944e-06
7.97638e-06
2.46317e-06
1.86636e-06
1.71271e-06
7.09748e-06
1.16129e-05
5.34362e-06
9.79116e-06
1.17311e-05
7.521e-06
7.84459e-06
7.57194e-06
4.07387e-06
2.74448e-06
1.38711e-05
2.92078e-06
1.66139e-06
1.61097e-06
1.62624e-06
1.6585e-06
1.04926e-05
4.10991e-06
2.5249e-06
1.10203e-05
2.53253e-06
7.90696e-06
1.33092e-05
4.03042e-06
1.01547e-05
5.78755e-06
5.62093e-06
5.66759e-06
8.47904e-06
1.07023e-05
1.35136e-05
7.26444e-06
7.88612e-06
8.21133e-06
8.0436e-06
7.97572e-06
3.17591e-06
3.41157e-06
8.66581e-06
1.34861e-05
7.47524e-06
9.15063e-06
9.34507e-06
9.07769e-06
6.82522e-06
1.32315e-05
7.33884e-06
1.18772e-05
1.37741e-05
1.4191e-05
2.85157e-06
2.8765e-06
2.936e-06
1.25359e-05
2.31901e-06
2.29854e-06
2.36654e-06
2.35884e-06
8.29721e-06
9.98131e-06
8.62599e-06
1.40905e-05
1.23073e-05
1.63639e-06
1.60373e-06
1.63565e-06
1.58887e-06
1.1473e-06
1.09193e-06
1.07189e-06
1.06082e-06
1.1019e-06
2.973e-06
1.15241e-05
8.89607e-06
1.3892e-05
1.19707e-05
1.20557e-05
8.86189e-06
1.40057e-05
2.91939e-06
1.39373e-05
8.61302e-06
8.44059e-06
8.36578e-06
1.38473e-05
8.26152e-06
8.39606e-06
1.07498e-05
5.71647e-06
1.41204e-05
1.42034e-05
2.64643e-06
2.66972e-06
2.72475e-06
1.28687e-05
1.35699e-05
6.38663e-06
8.03488e-06
8.51522e-06
3.62959e-06
1.38394e-05
1.3943e-05
2.74836e-06
1.4659e-06
1.39435e-05
7.51598e-06
9.38754e-06
9.60194e-06
7.52204e-06
3.88435e-06
2.05313e-06
1.99889e-06
2.01696e-06
2.05803e-06
1.39472e-05
1.07712e-05
2.47216e-06
9.52929e-06
8.95077e-06
1.8832e-06
2.55208e-06
1.40304e-05
2.43425e-06
2.4131e-06
2.48457e-06
1.3925e-05
1.15541e-05
3.58591e-06
3.33397e-06
3.36248e-06
3.43281e-06
2.53449e-06
8.10487e-06
6.14527e-06
6.01771e-06
5.96828e-06
1.17823e-05
9.08467e-06
1.18038e-05
9.99979e-06
1.35196e-05
4.0945e-06
1.07297e-05
8.89062e-06
1.1053e-05
8.68902e-06
2.67495e-06
2.027e-06
6.77822e-06
9.13066e-06
1.39966e-05
1.38504e-05
1.3895e-05
1.37116e-05
2.73027e-06
1.26964e-05
1.05372e-05
1.38099e-05
1.3944e-05
1.81481e-06
1.83155e-06
1.86837e-06
1.86752e-06
1.39429e-05
9.87074e-06
1.16213e-05
8.62037e-06
1.07062e-06
3.20237e-06
2.67808e-06
1.04871e-05
1.36078e-05
2.39482e-06
9.17548e-06
1.16515e-05
1.08737e-05
1.39071e-05
4.84437e-06
1.33418e-05
1.3756e-05
1.10948e-05
1.38161e-05
2.12658e-06
2.15062e-06
1.39565e-05
3.14123e-06
1.00394e-05
9.75171e-06
2.99105e-06
2.92094e-06
2.94628e-06
3.00748e-06
1.3488e-05
1.35216e-05
2.52177e-06
1.38752e-05
4.65671e-06
4.52255e-06
4.56085e-06
3.65119e-06
2.23503e-06
3.47469e-06
1.39048e-05
9.31642e-06
1.30944e-05
2.30294e-06
1.20044e-05
2.0966e-06
1.39616e-05
9.96172e-06
2.30852e-06
1.00291e-05
9.7425e-06
9.98719e-06
2.77228e-06
1.31447e-05
1.33922e-05
2.98525e-06
9.68391e-06
1.9087e-06
9.80911e-06
1.35396e-05
1.11655e-05
1.41255e-05
1.38206e-05
1.26168e-05
1.33155e-05
6.60342e-06
1.39442e-05
1.40416e-05
5.29703e-06
5.18786e-06
5.14454e-06
3.02627e-06
9.56617e-06
1.41728e-05
1.39552e-05
8.78852e-06
1.35269e-05
1.24718e-05
1.39549e-05
1.34079e-05
1.35553e-05
1.17119e-05
1.07167e-05
9.46341e-06
1.3177e-05
1.25552e-05
9.11784e-06
9.28799e-06
9.02237e-06
1.37968e-05
1.00481e-05
2.69696e-06
1.39524e-05
2.03187e-06
1.09843e-05
9.1813e-06
1.01287e-05
1.41812e-05
7.00706e-06
6.86128e-06
6.80536e-06
9.26726e-06
1.45212e-06
1.06475e-05
1.03407e-05
3.04451e-06
9.69029e-06
1.00188e-05
1.39788e-05
1.35723e-05
1.39395e-05
1.34932e-05
1.3862e-05
1.25368e-06
1.37563e-05
7.27165e-06
1.41291e-05
9.317e-06
9.59155e-06
1.35062e-05
9.98706e-06
1.2995e-05
1.39523e-05
1.17386e-05
1.3991e-05
1.35685e-05
1.38378e-05
1.86288e-06
9.9452e-06
1.19165e-05
1.426e-05
1.37956e-05
8.17164e-06
7.97984e-06
1.11748e-05
1.41908e-05
9.4055e-06
7.70822e-06
7.54965e-06
7.48672e-06
1.34253e-05
1.85126e-06
1.79814e-06
1.81485e-06
1.8517e-06
1.4023e-05
8.29778e-06
1.39514e-05
1.39118e-05
8.59848e-06
1.34266e-05
1.79969e-06
1.34753e-05
1.69415e-06
2.82398e-06
1.61103e-06
1.35152e-05
9.33212e-06
9.48626e-06
9.21492e-06
1.36464e-05
1.20596e-05
1.2936e-05
1.41842e-05
1.39418e-05
1.28758e-05
1.40938e-05
1.28183e-05
9.35682e-06
2.90212e-06
1.30308e-05
1.40353e-05
1.3708e-05
1.0612e-05
1.03081e-05
1.33584e-05
1.38277e-05
1.29349e-05
1.39344e-05
4.38056e-06
1.40088e-05
1.30396e-05
4.6997e-06
1.30131e-05
1.39068e-05
1.00875e-05
1.08002e-05
9.59153e-06
9.31723e-06
9.40333e-06
1.39834e-05
1.11554e-05
1.36952e-05
1.11463e-05
1.22921e-06
1.4194e-05
1.88438e-06
1.90156e-06
1.93999e-06
1.93691e-06
2.53888e-06
1.02069e-05
1.28738e-05
2.59806e-06
1.39493e-05
9.78742e-06
1.33348e-05
1.39014e-05
9.66277e-06
1.24658e-06
1.20593e-06
1.21759e-06
1.24151e-06
1.02372e-05
9.94464e-06
1.20661e-05
1.06119e-05
1.12072e-05
1.47393e-06
1.39398e-05
1.39536e-05
1.39334e-05
1.39494e-05
6.39121e-06