/*--------------------------------*- C++ -*----------------------------------*\
  =========                 |
  \\      /  F ield         | OpenFOAM: The Open Source CFD Toolbox
   \\    /   O peration     | Website:  https://openfoam.org
    \\  /    A nd           | Version:  8
     \\/     M anipulation  |
\*---------------------------------------------------------------------------*/
FoamFile
{
    version     2.0;
    format      ascii;
    class       volScalarField;
    location    "2";
    object      p;
}
// * * * * * * * * * * * * * * * * * * * * * * * * * * * * * * * * * * * * * //

dimensions      [0 2 -2 0 0 0 0];

internalField   nonuniform List<scalar> 
7843
(
2.84909e-06
8.21006e-06
8.78328e-06
1.12927e-05
2.13036e-06
1.10252e-05
1.03762e-05
1.71571e-06
1.06725e-05
2.60714e-06
6.39698e-06
2.77739e-06
1.06724e-05
6.68095e-06
4.96869e-06
6.15129e-06
6.29205e-06
5.05315e-06
1.06889e-05
1.04791e-05
1.06513e-05
1.04534e-05
6.49625e-06
9.71299e-06
5.42875e-06
1.06527e-05
4.70729e-07
1.04699e-05
1.2316e-06
1.10588e-05
1.07994e-05
3.34175e-06
1.08157e-05
1.90387e-06
5.94947e-06
5.84863e-06
4.63573e-06
1.06212e-05
1.09373e-05
8.97758e-06
4.8665e-06
7.11608e-06
2.20183e-06
8.09018e-06
1.06736e-05
1.03803e-05
6.58527e-06
1.01806e-05
8.76563e-06
1.06773e-05
1.06804e-05
7.97579e-06
3.78721e-06
1.04262e-05
2.41929e-06
1.06836e-05
1.02962e-05
1.07138e-05
1.11376e-06
1.06425e-05
1.98512e-06
1.04847e-05
1.02735e-05
1.08241e-05
6.64757e-07
6.23899e-06
6.2245e-06
1.06811e-05
1.04161e-05
1.87471e-06
1.06945e-05
3.54314e-06
9.26385e-06
1.06579e-05
1.06894e-05
5.90445e-06
2.30638e-06
2.09372e-06
2.93904e-06
1.14952e-05
1.07476e-05
9.38113e-07
6.78609e-06
1.06387e-05
2.6395e-06
2.74247e-06
1.05316e-05
1.33388e-06
1.06768e-05
1.03851e-05
1.06554e-05
7.44898e-06
1.06826e-05
1.07838e-05
1.05644e-05
3.2958e-06
1.06799e-05
3.8928e-07
1.06599e-05
6.03491e-06
4.9828e-07
4.0976e-07
1.04682e-05
9.37074e-07
1.06129e-05
9.64228e-06
1.06784e-05
1.06696e-05
9.53243e-06
7.64439e-06
1.18271e-06
1.02815e-05
1.05108e-05
3.09362e-06
1.05651e-05
9.42704e-06
1.06671e-05
1.82119e-06
1.06207e-05
7.77245e-06
2.24372e-06
1.83625e-06
6.84824e-06
1.93567e-06
1.07077e-05
1.02434e-05
7.14711e-06
9.83604e-06
9.57171e-06
1.10544e-05
7.55728e-06
1.04679e-05
1.06388e-05
2.31044e-06
9.0479e-06
4.52065e-06
1.12384e-05
1.00935e-05
4.75066e-06
1.44215e-06
1.07059e-05
9.72685e-06
1.0669e-05
1.07607e-05
1.06791e-05
1.07795e-05
6.99256e-06
9.17623e-06
9.98714e-06
9.91101e-06
2.70705e-06
1.03569e-05
1.07555e-05
8.08554e-06
6.55232e-06
6.28616e-06
1.06037e-05
1.04726e-05
8.52735e-06
3.92777e-06
1.06735e-05
6.51036e-06
1.03531e-05
6.72903e-06
8.16919e-06
1.60215e-06
1.06624e-05
1.83948e-07
3.71073e-06
6.94858e-06
1.36562e-06
7.83213e-06
7.16995e-06
1.05295e-05
7.50178e-06
1.06738e-05
1.06853e-06
1.06799e-05
6.7975e-06
2.68192e-06
2.54357e-06
2.15388e-06
1.06506e-05
8.65343e-06
6.25216e-06
1.02891e-05
1.06769e-05
1.02199e-05
3.23458e-06
1.03596e-05
3.43684e-06
3.65807e-06
1.09403e-05
1.06901e-05
7.23376e-06
1.06627e-05
1.06546e-05
1.05172e-05
1.54887e-06
9.29677e-06
7.865e-06
1.22414e-06
7.34208e-06
2.94124e-06
8.41931e-07
1.06653e-05
1.00393e-06
1.06634e-05
1.06512e-05
7.87761e-06
1.01108e-05
7.75519e-06
9.44209e-06
5.23232e-06
6.88402e-06
9.40992e-06
1.06792e-05
2.93734e-06
1.067e-05
1.04401e-05
1.05599e-05
1.03533e-05
2.24112e-07
8.28559e-06
1.01809e-05
1.08014e-05
1.04145e-05
6.11862e-06
8.40488e-06
1.04649e-05
1.01539e-05
1.06781e-05
1.0677e-05
2.37254e-06
1.04519e-05
6.99518e-06
2.52716e-06
9.95765e-06
6.44233e-06
5.20783e-07
2.90304e-06
4.29816e-06
2.79286e-06
4.72809e-06
1.02441e-05
6.68769e-06
1.08814e-05
1.06417e-05
7.30836e-06
6.19234e-06
1.11124e-05
1.06754e-05
3.11664e-06
7.21753e-06
9.00361e-06
3.1257e-06
1.00821e-05
7.10625e-06
6.70951e-07
1.07492e-05
1.08087e-05
1.04131e-05
5.28797e-07
7.55141e-06
2.78568e-06
1.03511e-05
1.06672e-05
7.9432e-06
1.06762e-05
9.90337e-06
1.07167e-05
1.06774e-05
1.06459e-05
1.00674e-05
7.88719e-06
1.0546e-05
3.40602e-06
2.30944e-06
1.02912e-05
7.34613e-06
1.48655e-06
7.32873e-06
7.66522e-06
1.0554e-05
1.08798e-05
1.06596e-05
1.04219e-05
7.23995e-06
1.27201e-06
8.187e-06
1.06746e-05
1.07522e-05
1.09528e-05
2.583e-06
1.02342e-05
4.20061e-06
4.35486e-06
1.06144e-05
9.88453e-06
8.72073e-06
1.00288e-05
1.04433e-05
4.19229e-06
3.8289e-06
1.05544e-05
1.0289e-05
1.06738e-05
9.28246e-06
1.03098e-05
1.02217e-05
1.0291e-05
9.87609e-06
1.06905e-05
1.0705e-05
1.06788e-05
1.05587e-05
8.05539e-06
6.72726e-06
1.06926e-05
4.40423e-06
1.06692e-05
1.06769e-05
7.61182e-06
7.6625e-06
1.03414e-05
1.00186e-05
1.07114e-05
1.05855e-05
1.01145e-05
1.06642e-05
4.003e-06
7.44004e-06
1.10803e-05
1.08299e-05
9.90934e-06
1.03908e-05
4.76787e-07
3.98888e-06
9.40063e-06
1.04259e-05
1.03557e-05
3.59589e-06
1.06712e-05
5.30243e-07
1.01499e-05
5.16999e-07
3.85793e-06
1.07262e-05
1.02881e-05
5.35147e-07
1.09962e-05
3.87056e-06
1.06742e-05
1.06924e-05
3.08916e-06
1.067e-05
1.03558e-05
1.03091e-05
3.15229e-06
7.98237e-06
1.10963e-05
8.00095e-06
1.05506e-05
1.14666e-05
1.10015e-05
3.67457e-06
8.6961e-06
1.07374e-05
1.05605e-05
8.38782e-06
8.56556e-06
1.07478e-05
2.97603e-06
1.04983e-05
2.04848e-06
1.08307e-05
7.2807e-06
6.45378e-06
6.46008e-06
1.14038e-05
7.45032e-06
1.04764e-05
1.08872e-05
1.03494e-05
8.81333e-07
3.68635e-06
6.50278e-06
1.06537e-05
3.65417e-07
5.11088e-06
6.35493e-06
1.06062e-05
1.05954e-05
1.06556e-05
1.04083e-05
4.1748e-06
1.06732e-05
1.03692e-05
1.07197e-05
1.98992e-06
2.46609e-06
1.06724e-05
1.06588e-05
8.85829e-08
8.79488e-06
8.62798e-06
8.23034e-06
9.07988e-06
1.06718e-05
1.01052e-05
1.07134e-05
3.36292e-06
9.13085e-06
1.06205e-05
8.93348e-06
1.07718e-05
1.06718e-05
8.98296e-06
7.7745e-06
7.72219e-06
1.06961e-05
1.02296e-05
1.0662e-05
3.29783e-06
4.77679e-07
3.22209e-07
1.03965e-05
5.19231e-07
1.08533e-05
1.03017e-05
1.0682e-05
1.06714e-05
3.63806e-06
1.06803e-05
9.72346e-06
9.99765e-06
1.0589e-05
8.38932e-06
4.52412e-06
1.06737e-05
2.82855e-06
1.05982e-05
1.07841e-05
1.06719e-05
9.03449e-06
1.07161e-05
1.02503e-05
9.49637e-06
1.07172e-05
8.8541e-06
1.50856e-06
1.48407e-06
1.05245e-05
1.068e-05
1.05144e-05
4.14943e-06
3.83493e-06
1.0573e-05
9.12706e-06
1.06695e-05
1.04857e-05
1.09139e-06
4.08428e-07
2.59278e-07
1.04868e-05
4.98689e-07
1.04256e-05
1.03205e-05
1.06507e-05
1.02398e-05
4.20924e-06
1.29114e-06
1.06645e-05
1.06725e-05
1.04166e-05
3.02975e-06
8.78418e-06
1.06642e-05
1.01241e-05
8.28601e-06
1.04993e-05
1.05216e-05
1.07672e-05
1.06039e-05
1.02982e-05
1.0486e-05
4.05558e-06
9.07739e-06
8.29086e-08
1.00514e-06
7.01141e-06
9.01552e-06
1.06702e-05
3.15047e-06
1.05307e-05
1.1298e-05
1.69909e-07
9.13943e-08
1.05711e-05
1.06662e-05
4.40724e-06
1.06708e-05
1.72295e-06
9.73891e-06
3.32698e-06
2.15748e-06
1.61556e-06
1.0667e-05
3.29838e-06
9.0981e-06
1.06772e-05
1.10108e-05
4.64204e-06
4.28854e-06
1.03248e-05
8.4981e-06
1.00684e-05
1.10091e-05
1.0628e-05
1.04075e-05
9.49355e-06
9.87914e-06
3.27096e-06
8.11521e-06
1.05357e-05
9.04346e-06
8.27468e-06
1.05848e-05
9.9424e-06
1.06378e-05
1.06506e-05
1.0667e-05
7.4207e-06
1.06646e-05
1.05442e-05
1.03774e-05
1.05183e-05
1.06695e-05
7.92404e-06
1.05934e-05
3.217e-06
1.06394e-05
7.80654e-06
7.93164e-07
8.55858e-06
1.0587e-05
1.08096e-06
3.37639e-06
6.01358e-06
7.39138e-06
1.06128e-05
8.77426e-06
1.08717e-05
1.04662e-05
1.03187e-05
7.53223e-06
9.28925e-06
1.01931e-05
1.06746e-05
2.4731e-06
9.28463e-06
7.89743e-06
8.89796e-06
6.39476e-06
1.11644e-05
1.83111e-06
1.06473e-05
2.5492e-06
5.22448e-06
1.01507e-05
8.59763e-06
3.70896e-06
1.20328e-06
1.09666e-05
1.01558e-05
9.1622e-06
7.25612e-06
1.05689e-05
1.06764e-05
9.55433e-07
1.06391e-05
1.0919e-05
1.96923e-06
1.08238e-05
1.06706e-05
1.05358e-05
1.04198e-05
8.39843e-06
1.06265e-05
1.06564e-05
1.04135e-05
1.05302e-05
1.06535e-05
4.9927e-06
1.02054e-05
2.56967e-06
1.0646e-05
8.93556e-06
1.06581e-05
1.07603e-05
1.04335e-05
1.06753e-05
2.58139e-06
9.99927e-08
1.7464e-07
8.85852e-06
8.18918e-06
5.92861e-06
4.31625e-06
1.0561e-05
1.06552e-05
7.55787e-06
9.42996e-06
1.02039e-05
4.69761e-06
8.23482e-06
1.06529e-05
5.34534e-06
8.15981e-06
1.05312e-05
1.06758e-05
1.08823e-05
7.12844e-06
1.01862e-05
1.05974e-05
1.03596e-05
1.02194e-05
1.07553e-05
1.03185e-05
8.84338e-06
1.02109e-05
1.01321e-05
9.65708e-06
6.06973e-06
1.03912e-05
4.362e-07
1.05508e-05
1.06367e-05
1.06451e-05
1.04845e-05
1.02009e-05
1.00651e-05
8.92311e-06
6.6854e-06
6.72819e-06
1.28861e-06
1.02393e-05
5.58089e-06
1.02111e-05
1.09051e-05
1.06694e-05
1.06627e-05
1.06058e-05
1.02647e-05
1.01033e-05
1.06038e-05
1.05664e-05
1.05345e-05
7.57209e-06
4.87368e-06
8.9127e-06
1.06234e-05
1.06729e-05
1.05306e-05
1.40034e-06
1.06826e-05
1.03322e-05
1.05392e-05
4.03988e-06
2.53124e-06
1.01418e-05
9.13461e-06
5.02223e-06
1.0221e-05
1.0679e-05
1.01326e-05
8.74716e-06
1.06765e-05
1.03713e-05
8.46635e-06
1.0674e-05
6.46884e-06
1.06587e-05
7.4598e-06
1.03641e-05
1.09191e-05
1.90332e-06
1.04632e-05
1.08049e-05
1.02002e-05
6.56719e-06
3.82285e-06
8.59013e-06
5.45937e-06
1.00147e-05
1.02338e-05
1.0667e-05
1.05882e-05
5.56333e-06
1.03504e-05
1.01457e-05
1.81421e-06
1.08879e-05
9.35286e-06
2.62724e-06
1.07035e-05
1.06696e-05
1.06284e-05
1.0334e-05
1.06674e-05
5.10838e-06
1.06635e-05
1.06527e-06
1.05157e-05
6.77505e-07
1.06529e-05
1.129e-05
7.05957e-06
1.06792e-05
8.84592e-06
1.09135e-05
1.06727e-05
1.07139e-05
5.73876e-06
2.28225e-06
1.00794e-05
1.04498e-05
1.03436e-05
1.0658e-05
1.02809e-05
1.07015e-05
1.05779e-05
7.54832e-06
1.02771e-05
1.43338e-06
4.06001e-06
8.60203e-07
8.97279e-06
9.54383e-06
1.06069e-05
8.69957e-06
8.37698e-07
1.07621e-05
1.04563e-05
1.0665e-05
1.0616e-05
1.01562e-05
1.0438e-05
1.03971e-05
1.0284e-05
1.02752e-05
1.01047e-05
1.06581e-05
1.00727e-05
4.88481e-07
9.44114e-06
1.04874e-05
1.02909e-05
2.72931e-06
1.04565e-05
1.05719e-05
1.05406e-05
1.01367e-05
3.10777e-06
1.06709e-05
1.09176e-05
1.04631e-05
1.04404e-05
1.03164e-05
1.05263e-05
9.60346e-07
1.06708e-05
1.06499e-05
5.77787e-06
1.66482e-06
3.79715e-06
1.55948e-06
1.13128e-05
1.01148e-05
1.06934e-05
9.01734e-06
1.08564e-05
1.36156e-06
9.48406e-06
1.05805e-06
1.06726e-05
1.03963e-05
1.06699e-05
1.31378e-06
1.03768e-05
1.03043e-05
1.08003e-05
9.79792e-06
1.06052e-05
9.97522e-06
1.03443e-05
1.06552e-05
1.07553e-05
1.04666e-05
1.04291e-05
1.066e-05
1.04822e-05
9.24508e-06
4.87633e-06
1.03196e-05
3.94416e-06
1.07044e-05
1.06536e-05
1.0258e-05
7.33733e-06
1.05675e-05
3.17213e-06
1.06597e-05
9.88908e-06
1.9168e-06
9.06488e-07
1.03282e-05
1.0539e-05
3.32817e-06
1.04647e-05
1.01616e-05
1.0939e-05
1.04139e-05
1.04189e-05
6.89808e-06
1.04681e-05
9.9935e-06
1.04558e-05
1.02845e-05
1.06958e-05
1.03383e-05
9.997e-06
1.03431e-05
5.69769e-06
3.71234e-06
1.03497e-05
1.06764e-05
1.05964e-05
6.48305e-07
1.06193e-05
3.75394e-06
1.05195e-05
1.06676e-05
1.69965e-06
1.06568e-05
1.06869e-05
1.03272e-05
1.0682e-05
2.00768e-06
8.73043e-06
1.09526e-05
1.05048e-05
1.0359e-05
1.02811e-05
1.05604e-05
2.12348e-06
9.76068e-06
1.00962e-05
1.07455e-05
9.5338e-06
1.08199e-05
1.0434e-05
1.01907e-05
8.58097e-06
1.03888e-05
1.07364e-05
1.0488e-05
7.84103e-07
1.06817e-05
1.00993e-05
1.04998e-05
1.00881e-05
1.05676e-05
1.06672e-05
1.03284e-05
9.78695e-06
1.04945e-05
1.01027e-05
1.06766e-05
1.06509e-05
1.08137e-05
1.06985e-05
9.67407e-06
1.06726e-05
9.90064e-06
1.07878e-05
7.69367e-06
2.07339e-06
9.64229e-06
7.11939e-06
1.02318e-05
9.79728e-06
1.06732e-05
1.06677e-05
1.04041e-05
1.03594e-05
1.03652e-05
8.69092e-06
8.63999e-06
1.0534e-05
1.07142e-05
1.01663e-05
9.2032e-06
1.07678e-05
1.04048e-05
1.04563e-05
1.04037e-05
1.06428e-05
1.03495e-05
3.04991e-06
1.06739e-05
9.16723e-06
2.5054e-06
1.13435e-05
2.35564e-06
1.05596e-05
1.03957e-05
1.06432e-05
1.06199e-05
1.03077e-05
7.21968e-06
1.04974e-05
8.15824e-06
1.08323e-05
1.07019e-05
1.05387e-05
2.23972e-06
1.05054e-05
6.12242e-06
1.05884e-05
1.04904e-05
8.35567e-06
1.04151e-05
5.82942e-06
9.51716e-06
1.0352e-05
1.04994e-05
1.08669e-05
1.1799e-06
1.31486e-06
1.04314e-05
1.03053e-05
1.05121e-05
1.05435e-05
5.81506e-06
1.02199e-05
3.53177e-07
8.41976e-07
1.04398e-05
1.06532e-05
1.07491e-05
9.36397e-06
1.05454e-05
1.07666e-05
2.91997e-06
1.08205e-05
1.09819e-05
1.06724e-05
1.80826e-06
1.04732e-05
1.06066e-05
1.79688e-06
1.06305e-05
1.05775e-05
1.03518e-05
9.3662e-06
1.07979e-05
7.38476e-07
1.05063e-05
1.06648e-05
1.05872e-05
1.06794e-05
3.26512e-06
3.13199e-06
1.01385e-05
1.07231e-05
1.06637e-05
1.05241e-05
1.06717e-05
1.03751e-05
9.30648e-06
1.07462e-05
1.05773e-05
1.04675e-05
1.08065e-05
9.57572e-06
1.06408e-05
1.04149e-05
1.04726e-05
2.33439e-06
1.06527e-05
1.0558e-05
1.05577e-05
1.06281e-05
1.05408e-05
1.07292e-05
1.05657e-05
6.61393e-06
3.26918e-06
1.0684e-05
1.06653e-05
9.22178e-06
9.45653e-06
1.0749e-05
1.06528e-05
1.05788e-05
1.02882e-05
1.05319e-05
1.03351e-05
1.0566e-05
1.06561e-05
1.07971e-05
9.69935e-06
9.52564e-06
1.05186e-05
1.04677e-05
1.07707e-05
8.39749e-06
1.04825e-05
1.05997e-05
1.02276e-05
1.04439e-05
1.05841e-05
1.06291e-05
1.07736e-05
1.06451e-05
9.11004e-06
1.0343e-05
1.06876e-05
1.06659e-05
1.06008e-05
2.81686e-06
1.0552e-05
1.05523e-05
1.05453e-05
1.05198e-05
1.06767e-05
1.07146e-05
9.32768e-06
1.05314e-05
9.19126e-06
1.02619e-05
1.03556e-05
9.00363e-06
1.0533e-06
1.06132e-05
1.052e-05
1.03884e-05
1.09077e-05
1.0632e-05
1.12261e-05
9.40463e-06
1.09003e-05
1.05683e-05
1.03065e-05
8.7523e-06
3.61842e-06
1.09683e-05
1.26037e-06
1.09211e-05
1.06698e-05
1.06962e-05
1.06574e-05
9.03802e-06
1.06863e-05
1.07641e-05
1.06452e-05
9.19214e-06
1.06433e-05
9.84002e-06
1.06659e-05
8.63709e-06
9.92597e-06
1.07145e-05
1.00602e-05
8.46324e-06
1.06802e-05
8.41876e-06
1.13202e-05
1.08608e-05
1.08586e-05
1.06762e-05
9.28484e-06
1.12998e-05
1.06632e-05
7.68967e-06
1.04837e-05
1.13079e-05
1.06713e-05
1.06782e-05
1.06426e-05
1.03297e-05
1.06285e-05
1.05182e-05
1.01762e-05
8.50909e-06
1.06471e-05
1.06423e-05
8.52839e-06
1.07725e-05
1.05711e-05
9.07547e-06
6.83835e-06
1.08293e-05
3.96709e-06
1.06224e-05
1.06655e-05
1.06685e-05
1.07974e-05
1.09018e-05
1.06696e-05
1.0615e-05
1.06838e-05
8.70836e-06
8.4928e-06
4.75917e-06
1.0593e-05
9.85478e-06
8.07812e-06
1.06453e-05
1.0498e-05
1.06745e-05
1.06804e-05
1.06243e-05
9.55174e-06
1.06885e-05
1.06364e-05
1.09008e-05
1.06779e-05
1.01498e-06
1.03113e-05
1.06808e-05
2.70112e-06
6.98529e-06
8.99615e-06
6.19802e-07
1.0572e-05
1.05749e-05
1.06464e-05
9.2479e-06
1.06817e-05
1.06685e-05
2.40177e-06
5.46291e-06
9.31108e-06
1.06868e-05
1.06149e-05
1.06086e-05
9.2205e-06
1.03571e-05
1.07225e-05
1.08237e-05
1.06685e-05
8.62755e-06
1.06088e-05
9.0032e-06
7.10199e-06
1.04514e-05
1.0322e-05
1.91679e-06
1.05921e-05
7.84532e-06
1.06844e-05
8.89884e-06
1.07169e-05
1.06614e-05
2.99873e-06
1.06599e-05
8.26414e-06
1.06261e-05
1.06458e-05
1.04466e-05
1.06787e-05
5.92326e-06
1.06574e-05
1.06315e-05
1.06587e-05
9.69183e-07
1.03616e-05
1.06438e-05
1.0649e-05
1.02651e-05
1.05253e-05
8.04106e-06
1.16472e-06
1.06716e-05
1.05403e-05
1.07531e-05
1.06803e-05
1.06991e-05
1.05857e-05
1.04495e-05
9.1796e-06
1.05655e-05
9.32947e-06
1.06573e-05
5.61673e-06
1.05999e-05
1.05021e-05
8.19299e-06
1.01805e-05
1.0956e-05
1.03234e-05
1.04963e-05
1.07561e-05
1.06696e-05
1.06618e-05
8.30672e-06
1.06763e-05
1.06646e-05
1.06615e-05
4.54696e-06
1.0354e-05
8.83641e-06
1.08863e-05
5.93259e-06
1.06756e-05
1.06902e-05
1.01298e-05
9.00413e-06
8.50385e-06
1.06333e-05
8.96797e-06
8.18092e-06
1.05794e-05
1.06158e-05
8.19815e-06
8.81939e-06
1.06661e-05
1.06015e-05
8.72583e-06
7.49447e-06
1.06787e-05
3.15257e-06
1.08323e-05
1.03099e-05
1.06508e-05
1.03209e-05
1.08826e-05
1.06803e-05
1.01991e-05
1.06809e-05
9.03466e-07
1.06694e-05
1.03017e-05
1.06602e-05
8.9361e-06
9.0634e-06
9.11205e-06
8.97356e-06
1.0873e-05
1.13345e-05
1.05995e-05
1.07139e-05
1.02963e-05
1.06666e-05
8.0827e-06
1.06675e-05
1.06701e-05
1.04266e-05
1.06735e-05
1.0562e-05
8.87001e-06
8.89059e-06
1.06683e-05
1.06707e-05
1.05659e-05
2.80308e-06
1.08888e-05
9.04057e-06
1.0674e-05
1.06016e-05
1.0687e-05
1.06782e-05
1.12388e-05
9.13947e-06
1.06586e-05
8.73157e-06
1.06697e-05
1.06631e-05
1.06657e-05
9.17796e-06
1.06681e-05
2.58561e-06
1.06657e-05
8.8854e-06
9.42231e-06
1.06669e-05
1.06678e-05
1.03622e-05
8.39953e-06
1.09544e-05
9.07491e-06
1.06706e-05
1.06712e-05
1.06565e-05
1.06401e-05
1.06525e-05
9.00587e-06
9.35704e-06
7.8086e-07
1.0983e-05
9.22687e-07
1.05498e-05
1.06082e-05
1.06476e-05
1.06781e-05
9.99201e-06
1.03616e-05
1.05962e-05
1.06789e-05
1.06164e-05
1.00198e-05
8.83978e-06
9.36375e-06
8.08354e-06
1.06898e-05
1.06487e-05
1.06635e-05
1.06088e-05
1.06433e-05
1.12669e-05
9.00672e-06
1.06331e-05
1.06665e-05
1.06687e-05
1.0665e-05
1.05129e-05
1.06093e-05
1.05681e-05
1.06357e-05
9.623e-06
8.95474e-06
1.08903e-05
8.67535e-06
1.07279e-05
1.09164e-05
1.06437e-05
1.06675e-05
6.12755e-06
1.0612e-05
8.14976e-06
1.04437e-05
9.00129e-06
1.06717e-05
1.06684e-05
8.92992e-06
9.9566e-06
1.03701e-05
8.90828e-06
1.04957e-05
1.06691e-05
1.06744e-05
8.3073e-06
8.80203e-06
1.13498e-05
1.06222e-05
9.17428e-06
1.06461e-05
1.06693e-05
1.11354e-05
9.44162e-06
1.06303e-05
1.06607e-05
1.06698e-05
1.06812e-05
1.06334e-05
1.03875e-05
1.06669e-05
1.06705e-05
1.07211e-05
1.06565e-05
1.09563e-05
1.06508e-05
3.47941e-06
1.067e-05
8.86806e-06
1.06661e-05
8.87647e-06
1.06322e-05
1.06716e-05
1.12648e-05
1.07188e-05
1.09654e-05
1.06699e-05
1.06565e-05
1.13236e-05
1.06478e-05
1.06665e-05
1.06831e-05
1.06649e-05
1.06402e-05
1.02647e-05
8.60052e-06
1.06413e-05
1.06669e-05
1.06679e-05
1.06287e-05
1.2493e-06
8.17274e-06
1.06727e-05
1.09354e-05
1.06684e-05
1.06701e-05
1.06721e-05
1.06715e-05
8.67406e-06
8.89155e-06
1.0679e-05
9.94543e-06
6.90903e-06
1.0673e-05
7.96262e-06
1.06221e-05
1.06118e-05
8.55069e-06
1.12936e-05
1.06791e-05
1.06462e-05
1.06701e-05
1.06472e-05
1.06639e-05
1.06695e-05
1.06708e-05
1.06777e-05
1.02961e-05
1.05911e-05
8.6888e-06
8.8737e-06
1.06686e-05
1.06686e-05
1.06472e-05
7.89733e-06
8.58e-06
1.0609e-05
1.06724e-05
1.06674e-05
8.00741e-06
1.06482e-05
1.12025e-05
1.06689e-05
8.74205e-06
1.0129e-05
1.06855e-05
1.06771e-05
9.70113e-07
1.06675e-05
1.06811e-05
1.06694e-05
1.06781e-05
1.06696e-05
8.07927e-06
1.06763e-05
8.72435e-06
1.11058e-05
1.06445e-05
1.12235e-05
1.06626e-05
1.07456e-05
1.06762e-05
1.06912e-05
1.06666e-05
1.07374e-05
1.06513e-05
1.06787e-05
1.06472e-05
8.77396e-06
8.8843e-06
1.06738e-05
1.06967e-05
1.06514e-05
1.06665e-05
1.06709e-05
1.06712e-05
1.06711e-05
1.06719e-05
1.03319e-05
1.06654e-05
1.05354e-05
9.86788e-06
1.06749e-05
1.03015e-05
1.0656e-05
1.06494e-05
7.84951e-06
1.06424e-05
8.73458e-06
1.0672e-05
1.0648e-05
1.06739e-05
7.82379e-06
1.06616e-05
1.0663e-05
1.06755e-05
1.06486e-05
1.06577e-05
1.06609e-05
1.06718e-05
1.06497e-05
1.06475e-05
1.0495e-05
7.93092e-06
1.06762e-05
1.06709e-05
1.06699e-05
8.7814e-06
2.57165e-06
1.06677e-05
1.0654e-05
1.10273e-05
1.06764e-05
1.06618e-05
1.06112e-05
1.13204e-05
1.06523e-05
1.0966e-05
1.06424e-05
1.06664e-05
1.06751e-05
1.06816e-05
1.06223e-05
8.85112e-06
1.06484e-05
1.06563e-05
8.55113e-06
1.06581e-05
1.0656e-05
1.07278e-05
9.11531e-06
3.50173e-06
8.71055e-06
1.06787e-05
9.19487e-06
1.0677e-05
8.70738e-06
1.06471e-05
7.8732e-06
9.04423e-06
1.06468e-05
8.77714e-06
1.06494e-05
1.06102e-05
1.06217e-05
1.09897e-06
7.71451e-06
1.06554e-05
8.00502e-07
1.06479e-05
1.06766e-05
8.77531e-06
1.06492e-05
8.60952e-06
1.06666e-05
1.12188e-05
1.06668e-05
1.06659e-05
1.06401e-05
1.06567e-05
1.06578e-05
1.06702e-05
1.06669e-05
8.97713e-06
8.45207e-06
1.06671e-05
1.06782e-05
8.43269e-06
1.06382e-05
1.06681e-05
1.06707e-05
9.96454e-06
1.06689e-05
8.66425e-06
1.06629e-05
1.06816e-05
1.06651e-05
2.93622e-06
8.81e-06
1.06468e-05
7.73373e-06
1.06455e-05
5.33466e-06
1.06432e-05
1.09327e-05
1.06698e-05
1.0664e-05
1.06538e-05
8.50602e-06
1.06507e-05
1.06491e-05
1.06599e-05
1.06705e-05
1.06744e-05
1.06536e-05
1.06515e-05
8.92867e-06
7.78662e-06
1.06712e-05
1.06623e-05
1.06264e-05
8.67142e-06
1.06439e-05
1.11993e-05
1.12229e-05
1.06559e-05
1.06547e-05
1.06439e-05
1.08836e-05
8.43133e-06
8.57903e-06
1.06441e-05
1.03817e-05
1.06397e-05
1.06519e-05
1.06732e-05
1.06605e-05
1.06555e-05
1.06671e-05
1.06598e-05
7.97848e-06
1.0666e-05
1.06345e-05
8.41991e-06
1.06412e-05
1.06758e-05
1.06473e-05
1.06638e-05
1.06627e-05
8.48703e-06
1.06663e-05
1.06353e-05
7.67592e-06
1.06623e-05
1.0662e-05
8.48502e-06
1.0639e-05
8.4533e-06
1.06637e-05
1.06707e-05
1.06526e-05
8.62612e-06
1.06718e-05
1.06663e-05
1.06522e-05
1.06065e-05
8.03641e-06
8.41721e-06
1.06556e-05
1.06472e-05
1.06714e-05
1.06347e-05
1.0623e-05
1.06766e-05
1.06903e-05
1.06458e-05
1.06425e-05
8.55335e-06
1.06495e-05
1.0649e-05
1.06591e-05
1.06185e-05
1.0653e-05
8.76835e-06
8.31124e-06
1.05995e-05
8.51809e-06
1.06432e-05
1.06669e-05
1.06489e-05
1.0636e-05
1.06534e-05
8.3119e-06
1.06759e-05
8.74843e-06
1.06649e-05
7.59235e-06
1.06494e-05
1.03542e-05
1.06507e-05
1.06574e-05
1.06458e-05
1.06431e-05
1.06661e-05
1.06522e-05
1.06479e-05
1.06539e-05
8.31609e-06
1.14417e-05
1.06714e-05
1.06287e-05
1.06762e-05
1.06496e-05
1.06652e-05
1.06204e-05
1.06615e-05
1.06573e-05
1.06807e-05
1.06496e-05
8.5434e-06
8.56192e-06
8.13023e-06
3.68498e-06
1.06564e-05
1.06534e-05
1.06389e-05
8.36552e-06
1.06318e-05
1.06213e-05
7.61863e-06
8.64613e-06
8.53757e-06
8.65882e-06
1.06592e-05
8.89934e-06
1.06495e-05
3.03592e-06
1.06504e-05
1.06491e-05
1.06195e-05
1.06563e-05
2.02458e-06
1.06505e-05
1.06312e-05
1.06242e-05
1.06513e-05
1.06541e-05
1.06522e-05
8.36469e-06
1.06182e-05
1.06378e-05
7.89872e-07
1.06517e-05
1.06481e-05
1.06693e-05
1.06711e-05
1.06685e-05
1.06241e-05
1.06619e-05
1.06653e-05
1.06186e-05
1.06664e-05
1.06414e-05
1.06688e-05
1.06575e-05
1.06058e-05
8.33796e-06
1.06311e-05
1.06524e-05
1.06604e-05
1.06588e-05
1.06579e-05
1.06557e-05
1.06432e-05
1.06824e-05
8.21989e-06
1.06216e-05
1.08636e-05
1.06459e-05
8.10743e-06
1.06726e-05
1.06179e-05
8.19421e-06
8.24892e-06
1.06549e-05
8.45201e-06
1.06446e-05
8.45468e-06
1.01291e-05
7.50644e-06
8.2029e-06
1.06425e-05
2.03607e-06
1.06423e-05
1.06711e-05
8.24749e-06
1.06551e-05
7.99617e-06
1.06253e-05
1.06722e-05
1.06651e-05
1.06341e-05
8.36762e-06
8.43181e-06
1.06695e-05
1.06717e-05
8.54127e-06
8.45199e-06
8.31168e-06
8.27203e-06
1.06551e-05
8.3871e-06
1.06531e-05
8.20532e-06
1.06505e-05
1.06545e-05
8.01303e-06
8.30182e-06
8.24913e-06
8.123e-06
1.06535e-05
1.06559e-05
1.06584e-05
7.76606e-06
1.06536e-05
1.06319e-05
2.92776e-06
1.06023e-05
1.06355e-05
7.60448e-06
7.39695e-06
1.06589e-05
7.96225e-06
8.09143e-06
9.97645e-06
1.06461e-05
1.06632e-05
1.06829e-05
8.55926e-06
8.21569e-06
8.09907e-06
8.15359e-06
1.06435e-05
1.06435e-05
1.14877e-05
8.42949e-06
8.07707e-06
1.06375e-05
1.0662e-05
1.06635e-05
1.06648e-05
1.06614e-05
8.34263e-06
1.06493e-05
8.39554e-06
1.06595e-05
8.22735e-06
8.13455e-06
1.06662e-05
1.04274e-05
1.06655e-05
1.14673e-05
1.0645e-05
1.06643e-05
1.06559e-05
1.066e-05
8.19216e-06
8.33413e-06
1.06539e-05
1.06624e-05
8.09828e-06
8.27791e-06
1.06625e-05
7.93855e-06
7.9598e-06
1.06629e-05
7.98166e-06
8.01449e-06
8.23673e-06
1.06431e-05
1.06505e-05
1.06477e-05
8.0339e-06
8.52005e-06
1.06392e-05
8.13109e-06
7.94994e-06
8.23206e-06
1.06682e-05
1.06444e-05
8.02043e-06
1.06447e-05
7.37379e-06
1.06435e-05
1.10268e-05
1.06617e-05
7.88593e-06
7.8434e-06
7.95352e-06
1.06691e-05
7.87242e-06
8.07263e-06
8.15133e-06
7.43391e-06
8.06655e-06
7.34321e-06
7.27814e-06
7.907e-06
8.34526e-06
7.32418e-06
8.14977e-06
7.88704e-06
8.26892e-06
1.06377e-05
8.12235e-06
7.77924e-06
7.83289e-06
7.76269e-06
7.1818e-06
1.06455e-05
7.66801e-06
8.66337e-06
7.79349e-06
7.72605e-06
1.06908e-05
7.90777e-06
7.90086e-06
1.06231e-05
8.02e-06
1.06306e-05
1.06584e-05
7.1833e-06
7.05733e-06
7.78772e-06
8.20644e-06
7.6356e-06
7.9165e-06
8.01132e-06
1.06639e-05
7.01422e-06
7.60961e-06
7.65361e-06
1.06532e-05
8.12879e-06
6.81882e-06
8.11798e-06
7.67891e-06
7.89925e-06
7.83458e-06
6.89044e-06
7.28906e-06
7.55859e-06
7.44924e-06
7.5438e-06
7.33893e-06
7.4924e-06
6.86173e-06
6.81559e-06
7.3298e-06
1.0663e-05
7.56524e-06
7.78754e-06
7.66063e-06
7.91174e-06
7.44659e-06
6.73757e-06
6.71614e-06
7.7988e-06
7.59687e-06
6.70258e-06
7.45041e-06
7.56177e-06
7.4325e-06
7.74295e-06
7.45043e-06
7.48811e-06
1.06696e-05
7.37531e-06
7.75118e-06
7.08054e-06
7.42613e-06
7.6902e-06
7.76835e-06
7.56421e-06
7.80151e-06
6.59315e-06
7.87732e-06
6.92672e-06
7.51993e-06
7.25823e-06
7.60758e-06
7.85501e-06
7.4808e-06
7.27453e-06
7.67614e-06
7.19176e-06
6.95764e-06
6.58087e-06
7.36317e-06
7.3208e-06
7.36071e-06
7.33539e-06
7.68162e-06
7.54938e-06
7.24556e-06
7.47866e-06
7.31615e-06
7.57558e-06
7.66083e-06
6.46586e-06
7.45432e-06
7.63193e-06
1.0675e-05
7.22744e-06
7.14093e-06
7.20538e-06
7.55158e-06
7.30887e-06
7.22048e-06
6.68886e-06
7.67745e-06
6.84046e-06
6.54287e-06
6.43629e-06
1.06194e-05
1.0663e-05
6.35519e-06
7.22629e-06
7.17281e-06
7.52004e-06
7.02375e-06
7.08598e-06
7.40892e-06
7.25239e-06
7.25172e-06
7.19844e-06
7.07524e-06
7.19512e-06
7.44156e-06
7.21254e-06
7.10452e-06
7.05693e-06
7.79256e-06
6.44331e-06
6.90654e-06
7.12527e-06
6.33733e-06
6.24768e-06
6.95883e-06
7.34487e-06
7.33198e-06
7.3129e-06
7.24212e-06
7.243e-06
7.29789e-06
6.74484e-06
6.328e-06
6.78935e-06
6.98877e-06
7.00809e-06
6.14264e-06
6.83248e-06
6.57272e-06
7.22156e-06
6.87299e-06
7.1414e-06
7.12512e-06
6.89752e-06
6.89436e-06
6.78889e-06
6.77701e-06
7.07769e-06
7.23614e-06
6.86191e-06
6.67244e-06
6.11731e-06
7.00452e-06
6.71063e-06
7.34683e-06
6.59224e-06
6.89092e-06
6.77385e-06
7.07515e-06
7.18643e-06
6.65945e-06
7.1113e-06
6.78159e-06
6.89334e-06
6.61024e-06
1.29473e-06
6.04043e-06
6.8437e-06
6.75704e-06
7.03168e-06
6.23266e-06
6.67329e-06
5.89114e-06
6.9996e-06
6.00925e-06
1.296e-06
6.55501e-06
7.01263e-06
5.94589e-06
6.72686e-06
6.59866e-06
6.60524e-06
7.00101e-06
7.36213e-06
6.6408e-06
6.65697e-06
5.11285e-06
7.01487e-06
6.56867e-06
6.62717e-06
5.86841e-06
6.52444e-06
6.72361e-06
6.79011e-06
6.43806e-06
6.49028e-06
6.47593e-06
5.12983e-06
6.48819e-06
6.10451e-06
5.25085e-06
5.45121e-06
6.67975e-06
6.89061e-06
6.96424e-06
6.32063e-06
6.54002e-06
6.02161e-06
6.42316e-06
6.40809e-06
6.49346e-06
6.16776e-06
6.38375e-06
6.70882e-06
4.86708e-06
5.50814e-06
5.79057e-06
6.27665e-06
6.78013e-06
6.90253e-06
6.27545e-06
6.68131e-06
6.37071e-06
6.25333e-06
6.74163e-06
6.45613e-06
6.56857e-06
6.20392e-06
6.97945e-06
5.59165e-06
6.19052e-06
6.34044e-06
6.46121e-06
4.92385e-06
6.29171e-06
6.3063e-06
6.35968e-06
5.62019e-06
6.69872e-06
6.66963e-06
5.58292e-06
6.39256e-06
5.74915e-06
6.26395e-06
6.17513e-06
5.69669e-06
5.86861e-06
6.68149e-06
6.33875e-06
6.45333e-06
6.08691e-06
5.82999e-06
6.55802e-06
5.48447e-06
6.13621e-06
6.37032e-06
6.47211e-06
6.2951e-06
6.51857e-06
6.55491e-06
5.71059e-06
6.57149e-06
6.3074e-06
5.89268e-06
6.18939e-06
6.07281e-06
5.47631e-06
6.22344e-06
5.96953e-06
5.91e-06
6.05839e-06
6.14328e-06
6.63035e-06
5.37794e-06
6.22361e-06
6.21942e-06
6.10788e-06
6.44687e-06
6.58511e-06
5.33687e-06
6.15797e-06
5.50007e-06
6.15346e-06
5.11192e-06
5.34741e-06
4.99457e-06
5.89049e-06
6.02652e-06
5.90151e-06
5.85261e-06
6.01866e-06
5.62402e-06
6.10277e-06
5.61858e-06
5.91059e-06
5.94185e-06
6.18579e-06
5.95633e-06
6.35074e-06
6.05832e-06
6.3358e-06
5.82542e-06
6.40702e-06
6.45675e-06
5.15029e-06
4.86457e-06
5.77592e-06
5.09433e-06
5.80651e-06
5.73547e-06
5.64485e-06
5.97351e-06
6.12656e-06
6.22434e-06
5.25923e-06
5.83962e-06
5.72303e-06
5.23813e-06
6.02837e-06
5.03249e-06
5.70866e-06
5.7934e-06
6.01012e-06
5.01321e-06
5.72139e-06
5.92346e-06
5.44076e-06
5.85823e-06
5.01082e-06
5.6181e-06
6.1144e-06
6.04105e-06
5.66672e-06
4.97916e-06
5.77452e-06
6.09376e-06
5.56495e-06
5.88103e-06
6.24257e-06
6.18397e-06
4.88664e-06
4.90851e-06
5.99881e-06
5.5921e-06
5.50124e-06
5.6064e-06
5.20907e-06
5.65942e-06
4.89555e-06
5.78449e-06
5.80193e-06
5.77547e-06
5.74695e-06
5.87023e-06
5.79807e-06
5.35221e-06
4.8952e-06
5.47537e-06
6.00597e-06
5.64379e-06
5.95704e-06
6.02602e-06
5.40646e-06
5.89296e-06
4.74405e-06
5.38387e-06
5.91048e-06
5.48974e-06
5.43088e-06
5.37331e-06
4.73459e-06
5.21092e-06
5.7928e-06
5.68905e-06
5.35843e-06
5.44407e-06
5.47579e-06
5.19144e-06
5.4855e-06
5.54932e-06
5.70917e-06
5.77486e-06
4.64303e-06
5.5412e-06
5.32745e-06
5.26704e-06
5.31374e-06
4.57196e-06
5.37965e-06
5.24186e-06
5.25693e-06
4.60768e-06
5.1502e-06
5.40349e-06
4.91334e-06
4.84262e-06
4.66112e-06
5.47695e-06
4.82955e-06
5.12533e-06
4.79665e-06
5.65952e-06
5.76054e-06
5.24382e-06
5.27384e-06
4.66996e-06
5.03217e-06
4.52909e-06
5.19681e-06
5.58958e-06
5.30951e-06
4.90101e-06
5.42575e-06
4.27902e-06
5.12413e-06
5.5401e-06
5.35454e-06
5.07458e-06
5.12167e-06
5.14051e-06
5.02413e-06
4.42153e-06
4.90915e-06
5.55558e-06
5.00859e-06
5.30912e-06
5.07892e-06
4.96036e-06
4.47511e-06
5.42441e-06
4.98586e-06
4.31163e-06
4.38626e-06
5.45385e-06
5.54209e-06
4.89202e-06
5.16681e-06
5.0407e-06
5.57186e-06
4.19967e-06
4.93087e-06
5.33867e-06
5.0392e-06
5.10331e-06
5.09428e-06
5.46728e-06
5.01868e-06
4.20981e-06
4.9601e-06
4.86885e-06
4.26368e-06
5.20864e-06
5.35735e-06
5.30958e-06
4.17311e-06
4.90614e-06
4.77548e-06
4.72564e-06
4.86051e-06
4.79053e-06
5.40686e-06
5.19436e-06
4.79079e-06
4.36537e-06
5.16e-06
4.74357e-06
4.07067e-06
5.25857e-06
5.04809e-06
4.75154e-06
5.24858e-06
5.04462e-06
4.7452e-06
4.02474e-06
4.90747e-06
4.81409e-06
4.15768e-06
4.78326e-06
4.7834e-06
4.67914e-06
5.07584e-06
4.6594e-06
4.76611e-06
4.67399e-06
4.72608e-06
4.20562e-06
4.05026e-06
4.54355e-06
3.94959e-06
4.80569e-06
4.31131e-06
4.19583e-06
4.13234e-06
4.63368e-06
4.06489e-06
4.46652e-06
4.63483e-06
4.97804e-06
5.05628e-06
3.93813e-06
4.42772e-06
4.55749e-06
4.17733e-06
5.08771e-06
4.7254e-06
4.90303e-06
4.0875e-06
4.56148e-06
4.51551e-06
4.50259e-06
4.51065e-06
4.54896e-06
4.79483e-06
4.86199e-06
4.56931e-06
3.81812e-06
5.01362e-06
4.08742e-06
4.44033e-06
3.9163e-06
4.15158e-06
4.39591e-06
4.2747e-06
4.59877e-06
4.73347e-06
4.75039e-06
4.31628e-06
3.83236e-06
4.92657e-06
4.37209e-06
4.32275e-06
3.83475e-06
4.23938e-06
3.33597e-06
4.39416e-06
3.96456e-06
4.20179e-06
4.13293e-06
3.68431e-06
4.49506e-06
4.77662e-06
4.276e-06
3.97238e-06
4.37083e-06
4.27831e-06
4.37956e-06
4.33017e-06
4.56742e-06
3.45107e-06
4.24099e-06
4.2633e-06
4.1063e-06
3.58195e-06
3.55787e-06
4.15622e-06
4.34347e-06
4.12902e-06
3.95988e-06
4.14807e-06
4.26521e-06
4.10152e-06
4.24949e-06