/*--------------------------------*- C++ -*----------------------------------*\
  =========                 |
  \\      /  F ield         | OpenFOAM: The Open Source CFD Toolbox
   \\    /   O peration     | Website:  https://openfoam.org
    \\  /    A nd           | Version:  8
     \\/     M anipulation  |
\*---------------------------------------------------------------------------*/
FoamFile
{
    version     2.0;
    format      ascii;
    class       surfaceScalarField;
    location    "2";
    object      phi;
}
// * * * * * * * * * * * * * * * * * * * * * * * * * * * * * * * * * * * * * //

dimensions      [0 3 -1 0 0 0 0];

internalField   nonuniform List<scalar> 
33977
(
3.2046e-09
-1.55076e-10
-3.42646e-09
3.76935e-10
-8.14556e-10
-1.64162e-09
1.67903e-09
7.77146e-10
4.30954e-09
-2.79421e-10
1.98654e-10
-4.22878e-09
4.06066e-09
-4.06033e-09
-3.37413e-10
3.37083e-10
4.24249e-11
-2.50289e-10
-5.2507e-10
7.32934e-10
-1.92703e-09
1.55867e-09
-4.46197e-10
-2.92212e-09
3.7447e-09
-2.02957e-09
1.20699e-09
-1.77161e-09
-2.08384e-09
1.3305e-09
2.52495e-09
4.29335e-09
-4.39118e-09
1.86e-10
-8.81657e-11
-9.35909e-10
1.96771e-09
-3.07228e-09
2.04048e-09
3.3636e-09
2.94694e-10
-3.71555e-09
5.72543e-11
-1.32164e-09
1.36791e-09
-7.05967e-10
6.59701e-10
-5.91732e-09
-4.55368e-09
5.01665e-09
5.45436e-09
-3.37357e-09
-3.89754e-09
4.45777e-09
2.81335e-09
2.19384e-09
-2.53789e-09
-2.08825e-09
2.4323e-09
-2.11245e-09
2.37345e-09
-2.60998e-10
7.40832e-10
-8.12059e-10
-1.25042e-09
-2.60157e-09
8.64885e-11
1.70696e-09
8.08129e-10
5.41466e-09
-1.16047e-09
-5.79845e-09
1.54426e-09
2.68171e-09
-1.50041e-09
-2.61196e-09
1.43067e-09
2.29184e-09
2.30623e-09
-2.40423e-09
-1.03169e-09
4.66292e-09
-3.93952e-09
3.08294e-10
-3.51855e-09
3.53879e-09
4.45026e-12
-2.46907e-11
2.5202e-09
-1.36136e-09
1.07943e-09
-2.23827e-09
-2.06261e-09
9.22049e-10
-8.90172e-10
2.03073e-09
2.27217e-09
-2.22701e-09
2.24668e-09
3.48613e-09
-3.48813e-09
-2.45348e-11
2.6534e-11
4.13945e-09
-3.79406e-09
1.95087e-10
-5.40471e-10
-1.4268e-10
-1.35796e-09
6.72643e-09
-5.22578e-09
3.50448e-09
-3.50101e-09
-2.79852e-11
2.45162e-11
4.38736e-09
-4.39148e-09
-1.28672e-12
5.41291e-12
8.88004e-10
-8.36341e-10
-3.32067e-11
-1.84567e-11
-3.52097e-09
-2.3333e-11
2.5759e-11
2.33921e-09
2.20601e-09
-2.27305e-09
-3.08526e-09
1.71389e-09
-1.396e-09
2.76736e-09
1.48944e-09
2.35594e-09
-3.05842e-09
-7.86958e-10
2.18171e-09
2.3421e-09
-2.18461e-09
1.00902e-09
-9.8921e-10
1.49811e-09
-1.51792e-09
-3.42337e-09
-3.20092e-11
-7.96603e-11
3.53504e-09
-2.39065e-09
-2.54271e-09
2.56978e-09
2.36358e-09
3.47566e-09
-3.47833e-09
-4.10343e-11
4.36973e-11
4.2146e-09
1.78292e-10
-2.36266e-10
-4.15663e-09
-6.32291e-10
3.10178e-11
4.74072e-09
2.33072e-09
-2.66636e-09
2.35131e-09
-2.01567e-09
1.19788e-10
-6.84377e-11
3.38516e-09
-3.43651e-09
3.56485e-09
-6.81984e-12
-1.92464e-11
-1.21499e-09
-2.87648e-10
2.84356e-10
1.21828e-09
-2.26061e-09
3.24246e-09
-9.81859e-10
2.31802e-09
2.23273e-09
-2.36904e-09
-3.40508e-09
3.41363e-09
-2.16714e-11
1.31172e-11
-1.72412e-09
7.81797e-10
1.14135e-09
-1.99036e-10
-2.68868e-09
-2.23071e-09
2.38151e-09
3.4923e-09
1.76899e-11
-2.11991e-11
-3.48879e-09
4.40832e-09
-9.46453e-11
-4.13287e-12
-2.27898e-09
4.5297e-10
-7.7556e-10
-4.33226e-10
3.29301e-10
1.33232e-09
-1.22839e-09
2.28876e-09
-2.26988e-09
2.29915e-09
-2.64147e-11
6.87128e-10
-4.64842e-09
3.9877e-09
4.37279e-09
-4.36319e-09
-2.412e-11
1.45188e-11
2.30736e-09
-1.76569e-09
-1.43699e-09
8.9532e-10
-3.2823e-09
4.96478e-11
-1.10034e-10
3.34269e-09
-1.83805e-09
1.89245e-09
1.78954e-09
-1.84394e-09
2.25484e-11
-3.90469e-11
3.3306e-09
-3.41872e-09
-9.99556e-10
1.08768e-09
-4.65596e-10
8.18371e-11
-3.41031e-09
2.57885e-09
1.47193e-09
-1.74343e-09
7.23043e-11
-3.45507e-09
-2.89632e-11
3.41173e-09
1.42886e-10
-1.73494e-09
3.8389e-09
-2.24685e-09
1.57882e-09
-2.41439e-09
6.73174e-09
-5.89616e-09
-1.06469e-09
1.12364e-09
-1.60598e-09
1.54703e-09
2.21198e-09
-1.9897e-10
2.08609e-09
-4.0991e-09
2.69326e-09
-2.92213e-09
2.28876e-10
-3.86812e-09
1.06179e-09
-1.08452e-09
3.89085e-09
1.85949e-11
-3.46599e-09
4.49787e-11
3.40241e-09
2.628e-09
-2.80958e-09
-2.20907e-09
2.8368e-10
3.60965e-09
-3.77354e-09
3.78336e-09
-7.69391e-11
2.21428e-11
-3.72857e-09
-3.9295e-09
3.78347e-09
4.2971e-10
-4.88497e-09
-1.7568e-09
4.26635e-09
2.37542e-09
3.17223e-09
-1.79659e-09
1.69661e-09
-3.07225e-09
1.40546e-09
-4.19683e-11
3.85075e-11
-1.402e-09
-3.21069e-09
3.26319e-09
-6.83406e-11
1.58397e-11
3.42989e-09
3.49079e-11
8.06307e-11
-3.54543e-09
-6.08456e-10
5.53809e-10
-4.78868e-10
5.33514e-10
-3.77369e-12
1.37544e-09
3.37962e-11
-3.83407e-09
-2.74284e-10
2.58281e-10
3.85007e-09
-3.43081e-09
-1.5146e-11
4.08809e-11
1.51447e-09
-1.28388e-09
3.10001e-09
2.36536e-09
2.3745e-09
-2.4511e-09
-2.39498e-09
2.44871e-09
-1.30807e-10
7.70831e-11
8.76651e-10
-3.88416e-09
4.77629e-09
-1.76878e-09
2.26927e-09
-2.46748e-09
2.61489e-09
-2.41669e-09
2.16414e-10
3.40954e-09
-6.91805e-10
-2.93414e-09
3.16974e-09
5.2088e-10
-2.49837e-09
-1.19225e-09
-3.69602e-09
1.74247e-11
1.04522e-09
2.63337e-09
3.46858e-09
-3.45954e-09
-4.46919e-11
3.56544e-11
4.34837e-09
-4.6096e-09
2.61238e-10
3.00126e-10
-1.1968e-09
-3.18316e-10
7.23571e-10
-7.52402e-10
-2.25015e-09
-2.54639e-09
-1.56848e-09
6.99185e-10
3.41568e-09
-1.76228e-11
5.15215e-09
-4.58186e-09
-5.5267e-10
-3.21797e-09
3.21082e-09
-3.10834e-11
3.82373e-11
-1.59079e-09
1.53513e-09
-1.6703e-09
-4.424e-10
8.51482e-10
1.26121e-09
4.34205e-09
-4.33268e-09
-2.87802e-11
1.94048e-11
2.20394e-09
-2.40748e-09
-2.2868e-09
2.49034e-09
-2.81616e-10
4.64812e-09
-4.5046e-09
1.381e-10
1.1813e-09
-5.87632e-09
5.16986e-09
-4.74842e-10
-5.2373e-10
1.02896e-09
-1.33363e-09
8.28408e-10
-3.24851e-09
3.23626e-09
-2.41328e-11
3.63749e-11
8.14336e-09
-7.1124e-09
9.71277e-10
-2.00224e-09
-1.99257e-09
1.95267e-09
7.68514e-10
-7.28616e-10
-3.2791e-09
3.26187e-09
-2.05426e-11
3.77746e-11
3.40222e-09
-3.41866e-09
2.72613e-11
-1.0821e-11
-2.32418e-10
5.06824e-10
4.01894e-09
3.31625e-09
3.86867e-12
-3.36725e-09
4.71292e-11
-3.31521e-09
3.29247e-09
-2.05384e-11
4.32754e-11
-2.39639e-09
2.07056e-09
2.52976e-09
-4.12216e-10
5.30543e-11
-4.43649e-09
4.79565e-09
-3.35306e-09
3.32874e-09
-1.92139e-11
4.35374e-11
-3.09508e-11
2.7123e-11
-3.38728e-09
3.36179e-09
-1.94003e-11
4.48888e-11
1.06046e-11
-2.92993e-11
-1.6723e-09
-2.53587e-09
2.18738e-10
3.98943e-09
1.22379e-09
-1.59554e-09
1.49539e-09
1.53207e-11
-3.64529e-11
4.00523e-09
-3.9969e-09
-4.30483e-11
3.47153e-11
-2.56045e-09
-2.014e-09
1.44054e-09
3.13392e-09
-2.13481e-10
4.95583e-10
-4.36493e-10
1.5439e-10
3.39068e-09
-2.13605e-11
3.29027e-11
-4.30717e-09
1.82841e-11
-4.37954e-11
3.96765e-09
-3.96882e-09
-1.94156e-11
2.0586e-11
1.74982e-11
-3.23754e-11
1.00457e-11
-1.5078e-11
4.04313e-09
-4.02845e-09
-3.87116e-11
2.40335e-11
-2.25347e-09
2.85868e-09
1.39371e-10
-7.44582e-10
-3.79784e-09
3.19282e-09
4.02821e-10
2.02198e-10
4.0765e-09
-4.06246e-09
-3.44466e-11
2.04052e-11
1.66966e-09
-5.02385e-10
-4.0986e-09
2.93133e-09
8.25989e-10
-8.30007e-10
-1.0265e-09
1.03051e-09
-3.31758e-09
2.32656e-09
-1.65511e-09
2.64613e-09
4.13121e-09
-4.10883e-09
-5.62876e-11
3.39011e-11
4.23969e-09
-4.25994e-09
-1.31185e-11
3.33704e-11
4.29689e-09
-4.27428e-09
-4.78622e-11
2.5256e-11
5.98947e-10
-1.47644e-09
-2.70723e-09
3.58472e-09
4.21895e-09
-4.23331e-09
-9.32286e-13
1.52991e-11
4.24343e-09
-4.22978e-09
-3.16852e-11
1.80424e-11
-1.43136e-09
-6.1953e-09
5.6899e-09
1.93676e-09
-3.84833e-09
-2.17229e-11
3.17059e-09
6.99458e-10
3.72156e-11
4.08729e-09
-6.38398e-11
3.47547e-09
-3.47623e-09
7.63442e-13
7.56778e-10
3.4559e-09
-4.15794e-09
-5.47331e-11
5.19371e-09
-4.79368e-11
-2.19058e-10
-4.92671e-09
-3.83745e-09
-7.31619e-11
-2.39436e-11
3.93455e-09
2.67935e-10
-2.54671e-10
-1.96452e-09
1.95126e-09
3.4677e-09
-1.0179e-11
2.11895e-11
-3.47871e-09
-6.58805e-09
-1.80106e-09
6.34912e-09
2.03999e-09
-7.10212e-11
-5.48967e-10
7.31373e-11
5.4685e-10
-1.38282e-09
-2.70638e-09
1.21384e-09
2.87536e-09
-3.18581e-09
3.19114e-09
-2.08175e-11
1.54937e-11
-3.56915e-11
2.54135e-11
9.96353e-10
7.49772e-10
-9.20136e-10
3.60368e-09
-1.00343e-09
-2.83879e-09
2.38538e-10
-1.51319e-09
2.41233e-09
1.87893e-09
-2.77807e-09
3.44734e-09
-3.4278e-09
-4.02694e-11
2.07312e-11
3.15075e-09
-2.49927e-10
7.44649e-10
-3.64547e-09
-3.49102e-10
4.44011e-09
-4.19585e-09
1.04844e-10
-2.93576e-09
2.86471e-09
2.03142e-09
-1.96037e-09
1.97181e-11
3.45575e-09
1.34203e-09
2.48543e-09
-3.49582e-09
-3.31644e-10
3.14953e-09
-3.4107e-09
-1.14866e-09
1.40983e-09
3.34892e-09
1.11838e-10
-3.19779e-09
-2.6297e-10
-5.78106e-11
-4.32916e-09
3.81722e-09
5.69751e-10
-1.85317e-09
1.90152e-09
9.28973e-10
-9.77322e-10
3.94497e-09
-3.93666e-09
-3.14138e-11
2.30979e-11
-5.142e-11
-3.53102e-09
1.49521e-10
3.43292e-09
-3.72929e-09
3.72721e-09
-9.43634e-11
9.64372e-11
9.25538e-10
-3.43799e-09
2.80331e-09
-2.90862e-10
-2.12346e-09
2.01326e-09
-1.72785e-09
-9.99032e-10
9.38831e-10
-8.23411e-10
8.83612e-10
-3.19294e-09
1.71308e-10
9.54613e-10
2.06702e-09
-3.90875e-09
5.2404e-12
1.05667e-10
6.34182e-11
-1.64074e-10
-2.29433e-09
-2.75464e-09
2.60204e-09
1.52599e-10
3.47384e-09
-3.47623e-09
-1.52604e-11
1.76454e-11
-4.3348e-09
4.32447e-09
9.03095e-11
-7.99768e-11
-4.22515e-10
4.16721e-09
-4.15691e-09
-9.96467e-10
2.5331e-10
-4.17499e-10
1.16066e-09
1.52959e-09
-4.27099e-09
6.89526e-09
-4.15386e-09
-8.82102e-11
2.71876e-10
-2.00495e-10
1.68294e-11
3.88985e-10
-3.85233e-09
-1.43493e-10
3.60684e-09
3.42647e-09
-2.73289e-09
-6.93582e-10
-1.25699e-10
-8.61906e-11
3.50528e-09
-3.29339e-09
-1.84718e-09
-7.53314e-10
1.62096e-09
9.7954e-10
2.6535e-11
-2.31282e-11
2.45408e-10
7.86e-10
-2.90326e-10
-7.41082e-10
3.3913e-09
-7.81193e-10
-2.61635e-09
6.23456e-12
-1.83502e-10
1.0361e-09
-4.8004e-09
3.9478e-09
1.43534e-09
-6.69735e-10
7.16736e-10
-1.48234e-09
-3.76956e-09
4.30785e-09
-3.97892e-09
3.44063e-09
-8.00177e-10
8.25462e-10
2.20122e-10
1.56562e-09
2.35694e-09
-2.41638e-09
-1.50619e-09
2.61131e-09
-1.2404e-09
1.14336e-09
-2.51427e-09
-1.77746e-09
-2.59029e-09
9.54634e-10
3.41312e-09
-3.08789e-10
3.60307e-11
3.23967e-09
-2.96692e-09
6.2103e-10
5.21715e-11
-3.57374e-11
-6.37464e-10
-4.10969e-09
3.17037e-10
-1.16097e-10
4.41184e-09
-1.89669e-09
-3.65061e-09
1.13545e-09
3.92701e-09
-3.89969e-09
1.0757e-11
-3.80804e-11
4.2585e-09
-3.28078e-11
1.77353e-11
3.67318e-09
-3.64385e-09
-5.06444e-11
2.13112e-11
3.21504e-11
-4.46158e-11
-3.77619e-09
3.93917e-09
-3.21864e-10
1.58884e-10
3.72171e-09
-3.69526e-09
-5.08912e-11
2.44481e-11
-8.3153e-10
4.58484e-10
8.9299e-10
-5.19944e-10
-1.47082e-09
8.12143e-10
3.46947e-09
-2.81079e-09
-8.70316e-10
1.20886e-09
-3.26663e-09
2.92808e-09
-1.83331e-09
2.55265e-09
1.90866e-09
-1.85754e-10
4.60623e-09
-4.5157e-09
9.52213e-11
4.82358e-09
-2.96589e-09
-1.28692e-09
-5.7077e-10
-1.32242e-10
3.873e-09
-7.46033e-11
-3.66616e-09
-2.22773e-09
2.96736e-09
1.83923e-09
8.85148e-10
-8.38607e-10
3.30282e-10
-3.76822e-10
2.30828e-09
-5.06005e-09
-1.51911e-09
4.27087e-09
2.20169e-11
-3.78016e-11
2.00974e-09
-1.42007e-09
2.02163e-09
3.15644e-09
1.28924e-09
-2.41216e-09
-2.03352e-09
-3.27765e-09
3.04571e-09
8.41841e-10
-6.09906e-10
-1.23664e-09
-9.98168e-10
2.20603e-09
2.87759e-11
-3.17172e-09
3.17848e-09
-1.69143e-11
1.01539e-11
-1.35525e-09
1.39925e-09
-1.03321e-09
-4.88477e-09
8.17112e-10
-4.20282e-11
2.7457e-09
-2.68209e-09
-8.78743e-10
8.15125e-10
9.3986e-10
-4.08705e-09
-7.27683e-10
3.87488e-09
3.87913e-09
-3.93415e-09
9.94887e-10
-4.53531e-09
-1.55822e-09
6.47212e-09
-3.78585e-10
1.57834e-09
-1.41406e-09
-2.55872e-09
2.39444e-09
2.91848e-09
-2.64246e-10
-2.65423e-09
4.28789e-10
-4.0579e-09
5.1587e-09
-1.32298e-09
3.23059e-09
-2.49531e-09
5.87701e-10
3.73538e-09
3.07069e-10
-4.25489e-09
2.12443e-10
-3.45267e-11
-4.05724e-09
4.05194e-09
3.98231e-11
5.68917e-10
-5.51699e-11
-5.84768e-10
-2.67151e-09
1.1034e-09
-5.80683e-10
2.14879e-09
4.81663e-09
1.50094e-09
-3.3477e-09
-2.96987e-09
-3.39748e-09
3.41313e-09
2.24108e-11
-3.80663e-11
4.7277e-09
-4.42454e-09
-3.67673e-09
3.34238e-12
3.48305e-09
5.90365e-12
1.39043e-10
3.17147e-09
5.23856e-11
-3.3629e-09
4.41595e-10
-4.40357e-10
1.04389e-10
-1.05627e-10
2.63181e-10
-5.2796e-10
-2.15105e-10
4.79884e-10
2.69414e-09
1.95701e-09
-4.47533e-09
-1.75818e-10
6.61371e-09
-5.05533e-09
2.04285e-11
2.83512e-09
1.1931e-09
-1.75894e-09
5.03814e-10
-9.6219e-11
-5.13254e-10
1.05659e-10
-1.61436e-09
-2.6341e-09
-6.52547e-11
4.31372e-09
3.88684e-09
-3.90461e-09
-1.98498e-12
1.9756e-11
-1.17764e-09
1.12764e-09
-2.74344e-10
3.24344e-10
1.32615e-10
-2.58216e-10
-3.13087e-09
1.2737e-09
3.35631e-09
-1.49914e-09
4.19643e-09
7.68331e-10
-4.08811e-09
4.24808e-09
-5.54176e-11
2.19359e-11
-7.38823e-10
-3.47362e-09
2.69925e-09
1.91311e-09
-1.32359e-09
1.42021e-09
4.6818e-11
3.20431e-10
-5.35335e-10
1.68085e-10
-1.12893e-09
9.1899e-10
-9.15879e-10
1.12582e-09
-4.64821e-09
4.63292e-09
-3.93099e-10
4.08386e-10
4.27755e-10
-2.22652e-09
-3.73096e-10
2.17186e-09
1.42983e-10
-1.34397e-10
-3.58885e-09
3.58027e-09
-6.5224e-10
1.58349e-10
-1.81431e-10
6.75322e-10
3.31767e-09
7.9978e-11
-2.61134e-10
-3.13652e-09
-3.38418e-09
-3.70549e-11
2.37594e-11
-1.46598e-09
2.79245e-09
-2.70929e-09
-6.03491e-09
-2.28672e-09
2.00189e-09
6.31975e-09
2.2665e-09
-2.09395e-09
-2.36363e-09
2.19108e-09
9.23493e-11
1.07996e-10
-3.44712e-09
3.24678e-09
3.31984e-11
-2.44736e-11
-5.84244e-09
5.90886e-09
-1.38614e-10
7.21921e-11
-3.62027e-09
2.2706e-09
1.16571e-09
1.83959e-10
-2.30623e-09
2.16976e-09
1.71481e-09
-2.24527e-09
2.34087e-09
2.1709e-09
2.01067e-10
5.16114e-10
-5.96985e-10
-1.20197e-10
1.3373e-09
-4.62046e-09
4.3118e-09
-1.02864e-09
6.21072e-10
-5.98456e-10
2.5683e-10
-2.79445e-10
4.16758e-11
-5.14258e-11
3.27364e-09
-5.95471e-09
5.78176e-09
-3.10069e-09
-1.54551e-09
-2.38033e-09
8.0616e-10
3.11968e-09
5.81471e-11
-3.13036e-09
-4.78916e-11
3.1201e-09
-1.35474e-09
-2.29779e-09
6.78585e-10
2.97394e-09
2.58764e-09
-1.8549e-09
1.1976e-09
-1.93035e-09
-2.27232e-09
-2.09741e-10
2.48206e-09
3.22784e-10
-3.40461e-09
4.93318e-09
-1.85135e-09
-3.15396e-09
3.13568e-09
-2.73173e-11
4.55893e-11
9.90029e-10
-7.80107e-10
-3.12251e-09
2.91259e-09
1.70948e-10
-2.53362e-09
2.79611e-09
-4.33438e-10
-3.71023e-09
3.66954e-09
-4.38199e-11
8.45142e-11
-1.15691e-09
-2.51058e-09
3.65227e-09
1.52126e-11
5.25886e-09
-4.36057e-09
-1.36969e-09
4.71401e-10
-3.09813e-09
-3.92302e-09
2.13619e-09
4.30192e-09
-4.5051e-11
-4.26183e-09
4.96144e-12
4.28912e-09
-4.12228e-10
-4.35308e-09
4.76185e-10
5.68675e-10
-5.41474e-10
2.54784e-10
-2.81986e-10
-3.7733e-09
4.69241e-09
-9.95511e-10
7.64055e-11
1.11592e-10
-7.55959e-10
-1.5581e-10
-1.76622e-10
-3.27303e-10
1.62536e-10
3.41389e-10
2.05503e-09
3.02908e-09
-2.75339e-09
-4.26111e-10
5.27876e-10
-4.48282e-09
4.38106e-09
3.83335e-09
5.86033e-10
-2.76474e-11
-4.39174e-09
-2.02704e-10
-1.96774e-09
2.17044e-09
-7.78738e-10
1.9014e-09
8.89554e-10
-2.01222e-09
2.01742e-09
-1.18208e-09
2.33689e-09
-4.53697e-09
-3.96873e-09
3.54544e-09
4.96026e-09
-3.73938e-09
-1.14646e-10
7.78315e-11
5.15717e-10
-4.95476e-10
2.32161e-10
-2.52402e-10
-2.36067e-09
2.67714e-10
-1.80636e-10
2.27359e-09
-1.68249e-09
-3.33411e-09
1.35568e-09
3.66092e-09
-3.36488e-09
3.37548e-09
2.6688e-11
-3.72843e-11
-3.49288e-10
8.40521e-10
-1.9985e-09
1.50727e-09
1.1641e-09
-1.18717e-09
-2.04311e-09
2.06618e-09
2.23437e-09
-2.41078e-09
-2.29107e-09
-1.35969e-09
6.00952e-09
-4.64983e-09
-3.60915e-09
2.64071e-09
3.86962e-09
-2.90118e-09
1.09589e-11
-2.17959e-11
1.75472e-10
-5.91078e-09
-2.23961e-10
5.95927e-09
-1.11192e-09
-4.18523e-09
4.87104e-09
-7.97627e-10
-3.9045e-10
1.18808e-09
1.49179e-10
-3.17177e-09
-6.73427e-10
4.78717e-10
-4.33408e-10
2.20557e-10
-2.65866e-10
2.4518e-10
-6.95291e-10
-2.18539e-09
2.6355e-09
-3.47409e-09
-1.3547e-11
1.97951e-10
3.28969e-09
4.19375e-09
-9.61408e-11
3.36e-11
1.34434e-09
-5.32095e-09
5.15791e-09
1.08092e-09
-6.85547e-10
-1.14136e-09
7.45991e-10
6.15431e-11
-1.89007e-10
3.69218e-09
-3.56471e-09
4.01851e-09
-4.82604e-09
8.43178e-10
-3.56469e-11
-3.86344e-09
6.67512e-11
3.86913e-09
-7.24403e-11
3.92604e-10
-3.67537e-10
2.03722e-10
-2.28789e-10
3.8063e-09
-4.05549e-09
-9.26578e-10
1.17578e-09
-4.25444e-09
4.2239e-09
9.92859e-11
-6.8737e-11
1.63533e-09
8.62866e-10
-2.49819e-09
-1.85847e-11
9.2105e-11
-2.4316e-09
2.16547e-09
-4.39219e-10
7.05347e-10
-1.19191e-09
1.2077e-09
2.9046e-09
-2.92039e-09
1.94071e-10
-1.13967e-09
2.1691e-10
3.6401e-09
-3.62146e-09
-2.35556e-10
-3.90122e-09
3.11401e-10
3.71577e-09
-1.25956e-10
5.87629e-10
-3.14619e-10
-3.20166e-10
4.71552e-11
3.95115e-09
-1.55311e-09
-3.42974e-09
1.05369e-10
-9.35383e-11
3.56153e-09
-3.57336e-09
1.21143e-10
-2.46663e-10
3.21952e-09
-3.094e-09
3.42335e-10
-3.25497e-10
1.84597e-10
-2.01435e-10
-2.97253e-09
3.66822e-09
-1.50752e-09
8.11837e-10
2.71427e-10
-3.82747e-10
4.76911e-09
4.9824e-10
-2.62927e-09
-2.63807e-09
-4.18553e-09
4.13883e-09
8.77468e-11
-4.10484e-11
-5.25813e-11
4.28455e-11
4.51331e-10
9.78858e-10
2.62839e-09
-4.32441e-11
-4.01498e-09
4.003e-09
5.52192e-11
3.04192e-10
-2.91658e-10
1.6604e-10
-1.78574e-10
-4.03882e-09
3.93724e-09
2.01201e-10
-9.96193e-11
1.95256e-09
2.59927e-10
-1.70339e-09
-5.091e-10
2.82742e-10
-2.99588e-10
1.49877e-10
-1.33031e-10
-5.57679e-11
1.25793e-10
-4.11382e-09
4.08125e-09
7.25011e-11
-3.99287e-11
-4.15617e-09
4.23154e-09
-2.70086e-11
-4.83607e-11
2.26359e-10
-2.0493e-10
1.519e-10
-1.73329e-10
-2.68833e-10
2.86847e-10
1.85564e-10
-2.03578e-10
-1.65485e-09
1.20637e-09
-2.8691e-09
-4.06319e-09
4.09327e-09
-5.50034e-12
-2.4586e-11
-5.75929e-09
8.27971e-11
-1.65949e-10
1.73319e-09
-1.70788e-09
-3.05173e-09
3.02641e-09
1.02942e-09
-1.01359e-09
-1.14477e-09
-8.43134e-10
9.05868e-10
1.01818e-09
-4.45357e-09
-2.08459e-09
1.86435e-09
4.6738e-09
2.40258e-09
-2.65658e-09
3.2912e-09
-3.0372e-09
1.8213e-10
1.18249e-10
-1.30916e-10
-1.69463e-10
1.66752e-11
-3.55832e-09
-2.3064e-11
3.56471e-09
1.09975e-09
-3.8959e-09
2.82634e-09
-3.01939e-11
-5.51782e-09
5.36907e-09
1.48751e-10
3.97966e-10
1.76767e-10
-1.54673e-10
-4.20061e-10
2.95724e-10
-3.48331e-10
-3.08769e-09
3.08836e-09
-2.4948e-11
2.42709e-11
-1.98671e-09
2.14572e-09
1.45862e-09
-1.61763e-09
3.55856e-11
-2.20563e-11
-2.20734e-12
-2.04451e-12
1.00134e-10
-9.58826e-11
-3.32786e-09
5.63865e-10
-3.59403e-10
3.1234e-09
-2.20611e-09
-3.75012e-09
3.2044e-09
2.75183e-09
3.50984e-09
4.46221e-11
-3.60165e-09
4.71878e-11
-2.6798e-09
-1.18045e-09
2.44618e-09
-3.46055e-09
3.19956e-09
1.97006e-09
-1.70907e-09
-6.81846e-10
-2.50922e-09
1.50389e-10
3.04068e-09
6.91648e-10
3.92274e-11
-6.65524e-10
-6.5351e-11
3.56329e-11
-4.78299e-11
-5.81674e-09
4.49936e-09
4.59102e-09
6.47417e-10
-5.71916e-10
5.75124e-10
-6.50625e-10
4.96766e-09
-4.86377e-09
-5.27257e-10
4.23365e-10
8.68935e-11
2.50203e-09
-2.85576e-09
2.66836e-10
1.44042e-11
-1.54615e-11
-1.94155e-11
2.04728e-11
3.5608e-10
-1.84479e-10
-3.48224e-10
-2.46254e-09
3.33615e-09
8.3945e-10
-1.71306e-09
3.83505e-09
-3.78484e-09
1.65585e-10
-2.15796e-10
-3.93268e-09
-3.62744e-09
2.70407e-09
4.85604e-09
2.33236e-09
-5.19443e-10
4.99066e-10
-2.31199e-09
-3.42448e-09
3.36919e-09
2.09287e-10
-1.53997e-10
8.79642e-10
-3.95807e-09
3.97486e-09
-8.96431e-10
8.75554e-11
-7.05771e-11
-2.99384e-09
3.04015e-09
-3.65546e-09
-3.08802e-09
-1.57436e-09
1.28556e-09
3.37682e-09
1.48692e-09
-6.60981e-10
5.41975e-10
-1.55873e-09
-3.94431e-09
1.41598e-09
5.76867e-11
-5.16922e-11
5.62923e-10
1.71326e-09
-2.3693e-09
-9.61871e-10
1.61792e-09
1.96937e-09
-3.60986e-09
-2.6305e-09
3.05367e-11
3.45127e-09
-7.96406e-12
6.24783e-12
1.30833e-13
3.9864e-10
-3.45529e-10
-2.66591e-10
-3.36302e-09
-4.27608e-11
4.08979e-11
1.3783e-10
-5.05729e-10
7.57805e-10
-3.89906e-10
4.11614e-09
-8.77488e-10
1.40827e-10
-3.37948e-09
-4.00747e-09
7.39835e-10
-5.66436e-10
2.99006e-09
-2.27985e-09
-1.37907e-09
6.68865e-10
3.32217e-09
-6.80568e-09
-2.08343e-09
5.56693e-09
-4.05255e-11
3.52448e-09
1.39507e-10
-3.62346e-09
5.98967e-09
9.46594e-11
8.75104e-11
-4.91416e-11
-3.98539e-09
-1.40457e-09
4.31855e-09
1.07141e-09
-8.57789e-10
2.62197e-09
5.93938e-10
-2.35811e-09
-3.95408e-09
-1.63235e-10
4.01129e-10
3.71618e-09
-3.69787e-09
3.893e-09
3.76056e-09
-3.95569e-09
1.96473e-09
-2.32089e-10
-2.60259e-09
8.69944e-10
-2.62423e-09
1.54938e-09
-1.71317e-09
2.78801e-09
4.03008e-09
2.06467e-09
-4.995e-09
-1.2498e-09
-2.4638e-09
3.1773e-09
5.36304e-10
8.01855e-10
-4.07361e-09
3.11447e-09
1.57287e-10
-4.87903e-09
9.09137e-11
7.34197e-10
4.05392e-09
-3.71163e-09
4.08225e-09
9.64813e-10
-1.33544e-09
1.56462e-09
-1.4109e-09
-2.28265e-09
2.12893e-09
3.34238e-09
-3.65059e-09
4.37562e-10
-1.29353e-10
1.97392e-09
-2.21143e-09
4.18075e-09
-3.94323e-09
-1.65422e-09
7.26965e-10
-3.2024e-10
1.2475e-09
-1.90006e-09
2.10316e-09
2.54934e-10
-3.38819e-10
2.97495e-10
-2.13609e-10
-1.32208e-10
1.00255e-09
-2.70169e-09
1.83135e-09
3.11848e-10
-2.16816e-09
2.28407e-09
-1.64677e-10
2.95808e-10
-2.8237e-10
1.51239e-10
-2.08362e-09
-1.3957e-09
2.04162e-09
1.4377e-09
1.84585e-10
7.61241e-10
-1.30135e-10
-8.15691e-10
3.20737e-09
-4.44804e-09
2.07881e-09
-8.38142e-10
-8.55932e-10
1.46199e-09
-3.46529e-09
2.85923e-09
2.06269e-09
-3.13438e-09
-3.94291e-10
-2.04326e-12
3.48605e-12
-9.73225e-11
9.58797e-11
1.64235e-09
-8.16853e-10
1.08762e-09
-1.5478e-09
-2.36635e-09
9.92028e-10
-3.64897e-09
3.60084e-09
-3.27671e-11
8.08966e-11
8.00188e-11
-7.22005e-11
3.54775e-09
-3.55557e-09
6.38927e-12
1.41315e-10
-3.04751e-13
-1.47399e-10
2.15596e-10
-2.46765e-10
-1.9386e-09
-1.82361e-09
1.9906e-09
-3.2343e-09
3.5453e-09
-4.00887e-09
2.17951e-09
7.86687e-10
-3.41043e-09
4.44233e-10
2.95761e-09
-1.16248e-09
-2.47697e-09
-4.71535e-09
-1.03756e-09
1.10471e-09
-3.48498e-09
-1.92576e-09
3.39734e-09
2.01341e-09
3.73954e-09
-3.74644e-09
3.91077e-11
-3.22048e-11
9.95207e-10
6.18309e-09
-1.98213e-09
-5.19616e-09
-3.80884e-09
1.13044e-10
3.75435e-09
-5.85547e-11
-2.42458e-09
-2.84642e-09
2.92806e-09
2.34294e-09
3.18362e-09
-2.73538e-09
-1.60515e-09
-2.00115e-09
1.64341e-09
-1.09115e-09
1.44888e-09
-2.34559e-10
-3.54683e-09
3.78139e-09
3.19982e-09
-2.14381e-09
1.55959e-09
-5.73008e-09
3.35893e-09
8.11561e-10
7.34248e-12
7.09552e-12
-1.4438e-11
2.74827e-09
-3.6909e-09
-1.99313e-09
-2.03972e-09
-1.17996e-09
2.36835e-09
8.51334e-10
-1.10301e-09
9.87689e-10
-4.12997e-10
5.28316e-10
2.64748e-10
-3.96664e-09
3.87522e-09
-1.73332e-10
8.83155e-10
-5.6074e-10
3.02377e-09
-2.20364e-09
-2.8497e-09
2.56829e-10
-2.8661e-10
-4.29555e-11
-3.96735e-09
3.95192e-09
5.83848e-11
3.65845e-10
-4.0818e-09
-3.27095e-10
4.04305e-09
1.80259e-09
-2.32442e-09
2.05187e-09
-1.53005e-09
2.4982e-09
-3.71345e-09
1.60917e-09
-3.93919e-10
1.61729e-09
8.66893e-10
-2.98795e-10
-2.18539e-09
2.54774e-09
8.34866e-11
-1.82518e-10
-2.28671e-09
2.24459e-09
-7.00715e-10
5.68423e-10
-4.97528e-10
6.29821e-10
6.40264e-10
-1.72762e-09
1.81256e-09
-7.25199e-10
-3.68262e-09
3.74104e-09
1.58497e-10
3.07977e-09
-3.04255e-09
1.93371e-09
-3.04001e-09
-1.34486e-09
2.45116e-09
-4.17593e-09
1.12746e-10
-2.12016e-10
4.2752e-09
1.54509e-11
-8.16403e-11
-5.41571e-10
5.02301e-09
9.02546e-11
-4.57169e-09
3.2718e-10
-3.48392e-10
2.71859e-10
-2.50647e-10
3.46067e-11
-2.12323e-11
-2.99756e-11
3.83571e-11
6.12648e-10
3.44319e-09
-4.81396e-09
8.8742e-10
4.83349e-10
-1.59015e-09
2.00546e-09
1.47714e-09
1.96253e-11
-3.42977e-11
2.54434e-09
-2.2859e-09
-2.7893e-09
2.53087e-09
7.64591e-10
3.37232e-10
-2.13819e-10
2.15543e-09
-3.67184e-10
-3.73436e-09
1.94611e-09
2.444e-10
-2.70157e-10
4.138e-10
4.77716e-09
-4.21849e-10
6.55755e-12
-1.38278e-11
-3.06168e-11
3.7887e-11
-4.05356e-09
4.9694e-09
-3.34043e-09
1.14274e-10
-3.63357e-09
3.66228e-09
-2.21151e-09
2.03893e-09
-3.51112e-09
3.6837e-09
1.54467e-10
-3.23588e-09
3.39302e-11
3.04748e-09
-1.50859e-10
3.80913e-09
-3.79836e-09
1.40088e-10
-3.23266e-09
4.15146e-09
2.79104e-11
-9.46712e-10
-1.16849e-09
2.92633e-09
7.63321e-10
-2.52116e-09
4.30525e-09
-4.29442e-09
1.89798e-11
-2.98105e-11
3.81956e-09
-2.99593e-09
-1.24614e-09
2.40046e-09
-2.27198e-10
-1.95835e-09
-2.14916e-10
2.19862e-09
-1.24829e-09
-3.31374e-09
3.29742e-09
5.22533e-11
-3.59321e-11
3.68412e-09
-3.69155e-09
4.14787e-11
-3.40452e-11
-4.86225e-10
-1.31801e-09
7.0123e-10
-1.94227e-09
2.86913e-09
-3.44898e-09
1.81023e-11
3.43191e-09
-1.02688e-12
2.30748e-10
-2.47506e-10
-5.80612e-10
5.40602e-10
-5.96452e-10
5.75567e-10
-7.06814e-10
7.277e-10
3.71295e-09
-3.71578e-09
3.2716e-11
-2.98863e-11
3.49116e-09
3.59835e-11
-4.1666e-11
-3.48548e-09
3.57748e-09
3.28656e-09
-2.93635e-09
-3.92768e-09
-2.77364e-09
3.33384e-09
-2.21505e-09
3.71178e-09
-3.68518e-09
-3.2721e-11
6.12891e-12
1.87336e-09
5.66184e-09
6.08161e-10
1.55113e-09
1.98245e-09
-1.12125e-09
-3.37699e-09
3.34638e-09
1.05598e-10
-7.49847e-11
-2.91893e-09
4.58055e-10
2.70986e-09
-2.44125e-09
-1.59158e-09
-1.24049e-10
3.40873e-09
-3.28469e-09
2.13117e-10
-2.53921e-10
4.32953e-11
-6.09675e-11
-3.99924e-09
-1.22403e-09
2.22943e-09
-3.01228e-09
3.42608e-09
3.67867e-09
-3.65022e-09
-4.42155e-11
1.57682e-11
5.47618e-10
-5.72607e-09
5.51551e-09
-3.37056e-10
-1.96303e-09
-5.48572e-10
8.41306e-10
-3.45568e-09
9.11906e-10
2.86656e-09
7.59121e-10
-1.05959e-09
-1.70068e-09
-2.43966e-10
-2.2007e-09
2.29819e-09
1.46469e-10
-4.52361e-09
-1.98206e-10
4.60208e-09
1.19734e-10
-5.31668e-09
-3.91054e-10
5.19599e-09
5.11746e-10
3.64029e-09
-3.62273e-09
-3.39383e-11
1.63799e-11
3.32034e-09
-4.11199e-11
-3.31554e-09
3.63145e-11
6.49644e-12
-4.00516e-09
-2.8707e-11
4.02737e-09
4.9546e-11
-5.18482e-11
3.34058e-12
-1.03844e-12
-1.54483e-10
7.58161e-11
4.38059e-09
-3.65972e-09
-2.87411e-10
5.22655e-10
3.84858e-09
4.49596e-09
-4.99454e-09
-3.35e-09
6.01773e-11
-7.10743e-11
5.14711e-10
1.09851e-09
1.67762e-09
-1.3433e-09
-1.43282e-09
1.87774e-10
-2.12976e-10
3.62521e-09
-3.63431e-09
-6.46153e-12
1.55584e-11
3.99769e-11
1.37803e-10
-3.31538e-09
3.1376e-09
-1.74847e-09
-2.42683e-09
2.99911e-09
1.17619e-09
6.76885e-11
2.94598e-09
5.0297e-11
-3.06396e-09
-3.45195e-09
-8.70746e-10
4.24774e-09
7.49493e-11
-5.23056e-09
5.55827e-09
-8.69284e-10
1.00013e-09
-1.16392e-09
-2.36868e-09
2.53248e-09
7.4329e-11
-5.37563e-11
2.61935e-11
-2.88915e-11
1.32546e-10
-1.29848e-10
3.61657e-09
-3.5886e-09
-6.11103e-11
3.31377e-11
-4.72687e-12
-3.11871e-09
3.12343e-09
6.48655e-11
-6.04959e-11
3.53216e-09
-3.53653e-09
1.37159e-09
2.93149e-09
-3.91369e-09
-3.89395e-10
-2.87755e-11
-2.40028e-09
4.63081e-11
2.38275e-09
-6.90352e-11
1.77648e-11
-2.6539e-11
7.78094e-11
3.53495e-09
-3.50302e-09
-6.23943e-11
3.04661e-11
4.15023e-09
-2.21192e-09
7.9112e-11
1.69751e-10
-1.91055e-10
-3.5402e-09
3.5993e-09
6.02295e-11
-1.19327e-10
-3.76976e-09
4.04822e-09
-7.33125e-10
4.5466e-10
3.99637e-09
4.99027e-09
-5.13806e-09
3.46815e-09
-3.45508e-09
-1.09791e-11
-2.09548e-12
1.50541e-10
-3.27249e-09
3.18009e-09
-3.23931e-09
-7.17503e-11
-7.91427e-11
3.3902e-09
2.32227e-09
7.68102e-11
-6.58982e-09
4.19074e-09
-3.45342e-09
-1.07007e-10
3.59039e-09
-2.99549e-11
1.02946e-08
-8.25269e-09
-2.04196e-09
8.76525e-10
-4.95423e-09
5.42205e-09
-3.80896e-09
2.41171e-09
-1.94175e-09
-2.45179e-09
2.17866e-09
2.21488e-09
-4.22096e-09
-5.52787e-09
3.16077e-09
-2.73717e-09
2.63706e-09
1.33478e-09
-1.47458e-09
4.73687e-10
-3.33882e-10
-2.42399e-09
3.06662e-09
-6.42627e-10
1.26818e-09
-4.04853e-09
-4.97299e-10
1.79092e-09
-2.09352e-10
-1.31363e-09
3.67533e-09
-3.68104e-09
3.42811e-11
-2.85662e-11
8.08779e-11
-9.06737e-11
1.85691e-11
-8.77322e-12
1.49725e-10
-1.58641e-10
-3.6053e-09
8.27039e-11
3.62797e-09
4.67103e-09
-4.64114e-09
-1.84001e-11
-1.14978e-11
3.06212e-09
-3.09665e-09
-3.22172e-09
3.07411e-09
-1.97763e-10
3.45374e-10
1.25011e-09
-1.17051e-09
-5.34583e-09
5.26623e-09
4.3217e-09
-4.28798e-09
2.79477e-11
-6.16662e-11
-2.3433e-09
2.24957e-09
2.49631e-09
-5.4079e-09
1.08682e-09
4.29376e-09
2.73176e-11
-6.56589e-11
6.88805e-11
-6.83285e-12
3.61122e-12
-3.18798e-10
1.76326e-10
-1.84831e-10
7.41824e-11
-3.74331e-09
3.68157e-09
-1.24365e-11
-4.10232e-09
4.22687e-09
-2.06851e-10
8.23015e-11
-4.25374e-09
2.6016e-10
3.87249e-09
1.21083e-10
-1.38554e-09
-1.31877e-09
9.73979e-10
1.73033e-09
-3.09991e-09
1.20118e-09
-1.18653e-09
1.5663e-10
-2.29859e-10
-4.323e-09
3.83155e-09
-1.00401e-09
1.49545e-09
1.77042e-09
-1.67633e-09
2.60439e-09
-2.69848e-09
-5.13949e-11
3.58465e-09
-3.57796e-09
3.52487e-09
-3.13647e-11
8.44522e-11
-3.95084e-11
-3.91837e-09
3.89922e-09
5.86587e-11
-3.42391e-09
2.78712e-09
3.20015e-09
-2.56336e-09
3.28184e-11
-1.94586e-11
4.41052e-09
-4.42343e-09
7.8315e-11
-6.54083e-11
3.43826e-09
2.55157e-10
-3.62095e-09
-7.24589e-11
-3.09765e-09
-8.21918e-11
3.17984e-09
-3.32601e-09
3.19975e-09
-2.97139e-09
9.16548e-11
-2.40553e-10
-2.28796e-09
2.01197e-09
1.11951e-09
-8.43526e-10
-1.04321e-10
-3.68498e-09
1.8476e-10
3.60454e-09
2.79256e-09
-4.65251e-09
2.85795e-09
-9.97996e-10
-3.20724e-09
2.35221e-09
-1.08671e-09
1.50109e-09
-1.49322e-09
-1.94326e-09
1.93538e-09
-2.29959e-09
-1.82203e-09
2.18302e-09
-1.32857e-10
2.74743e-10
-3.39103e-09
3.24915e-09
2.4255e-09
2.20724e-09
-1.46301e-09
-1.03261e-10
1.52786e-10
-4.22546e-09
-1.91972e-10
-3.70278e-09
8.59059e-11
-2.15781e-10
-3.52323e-09
4.1115e-10
1.52024e-09
-2.15414e-09
-2.79001e-09
1.93557e-09
-2.8371e-09
2.42001e-09
-1.51847e-09
1.31874e-11
-4.55134e-11
-1.04733e-09
4.39491e-10
-1.96533e-09
2.57318e-09
-5.74272e-09
9.57918e-10
-8.55949e-10
3.42815e-09
2.7896e-11
-2.6001e-09
3.38442e-09
-1.29375e-09
4.94504e-10
-2.58517e-09
-2.01559e-11
-9.6521e-11
-7.36691e-12
1.24044e-10
-2.05839e-09
-1.41256e-09
1.38733e-09
3.41537e-09
-3.43926e-09
2.2017e-11
1.87303e-12
4.4201e-09
6.87046e-11
-7.82862e-11
9.41087e-09
-1.80464e-09
-6.61103e-09
1.00091e-09
1.38309e-09
-9.48656e-10
-3.92048e-09
1.50606e-09
-8.40355e-10
3.25477e-09
-6.07235e-09
1.09321e-09
5.73831e-09
-7.59178e-10
2.82516e-09
-1.19403e-09
2.99952e-10
-1.93108e-09
-5.00708e-11
4.02312e-09
-4.07631e-09
4.39927e-09
6.96918e-11
-4.88594e-11
-4.38753e-09
6.71614e-11
-1.03061e-10
3.28858e-09
2.25461e-11
-1.10977e-11
-3.30003e-09
-2.58355e-09
1.19165e-10
-4.48855e-10
2.91324e-09
2.9186e-09
-2.01863e-09
1.52554e-09
-4.01e-09
6.6127e-10
-2.82682e-11
1.21786e-10
-1.33428e-10
2.18305e-11
-1.01876e-11
-3.67184e-09
-3.45503e-10
6.33238e-10
3.38411e-09
-8.03403e-10
9.029e-10
1.00752e-10
-6.44993e-11
-4.42378e-09
-1.23972e-10
8.99204e-12
-1.90377e-11