/*--------------------------------*- C++ -*----------------------------------*\
  =========                 |
  \\      /  F ield         | OpenFOAM: The Open Source CFD Toolbox
   \\    /   O peration     | Website:  https://openfoam.org
    \\  /    A nd           | Version:  8
     \\/     M anipulation  |
\*---------------------------------------------------------------------------*/
FoamFile
{
    version     2.0;
    format      ascii;
    class       surfaceScalarField;
    location    "2";
    object      phi;
}
// * * * * * * * * * * * * * * * * * * * * * * * * * * * * * * * * * * * * * //

dimensions      [0 3 -1 0 0 0 0];

internalField   nonuniform List<scalar> 
9107
(
4.24396e-09
-1.02914e-09
1.15423e-09
-4.36906e-09
-4.7311e-09
5.18426e-09
-2.25417e-09
1.80101e-09
-1.93513e-09
4.79327e-09
-4.16137e-09
1.30323e-09
5.44317e-09
-1.27674e-09
-5.48121e-09
1.31478e-09
-1.86676e-09
-4.15005e-09
5.18371e-09
8.33106e-10
-5.33626e-09
5.17246e-09
9.35768e-11
7.02218e-11
5.50116e-09
-4.31782e-09
3.79072e-10
-1.56241e-09
-3.16808e-09
1.98642e-09
8.30325e-09
-7.12159e-09
5.31866e-09
-5.51601e-09
4.72921e-11
1.50067e-10
3.9116e-09
-4.40071e-09
6.30962e-11
4.26019e-10
5.16208e-09
-5.03551e-09
-7.0314e-11
-5.62591e-11
-5.36062e-09
5.20437e-09
1.05345e-10
5.08985e-11
-5.03354e-09
3.99432e-09
1.25116e-09
-2.1194e-10
5.44093e-09
-5.38895e-09
-6.45119e-10
5.93136e-10
-7.24841e-09
5.58765e-10
1.43869e-09
5.25096e-09
3.49278e-09
3.44673e-09
-3.47189e-09
-3.46762e-09
6.57164e-09
-8.43293e-09
-4.02631e-10
2.26392e-09
-6.63276e-09
7.25842e-09
-8.34318e-10
2.08667e-10
6.22304e-09
-5.93733e-09
1.90264e-10
-4.75973e-10
2.04136e-09
-1.78026e-09
-2.57097e-09
2.30987e-09
-4.57415e-09
-7.91559e-10
2.31863e-10
5.13384e-09
5.16425e-09
-5.33794e-09
8.71385e-11
8.65568e-11
-5.13411e-09
-2.10237e-09
1.637e-09
5.59948e-09
5.11071e-09
-9.54938e-10
-4.39181e-09
2.3603e-10
8.17103e-10
-4.85833e-09
-3.85876e-10
4.4271e-09
4.51088e-09
-2.0318e-09
-3.9683e-09
1.48922e-09
-6.08083e-09
-2.00923e-09
8.41656e-10
3.44758e-09
-3.28704e-09
3.06431e-09
-3.22484e-09
-2.64004e-09
-2.97122e-09
3.0186e-09
2.59266e-09
1.35619e-09
4.2066e-09
-4.00706e-10
-5.02192e-09
5.85547e-09
-9.08468e-10
7.49159e-11
-1.73819e-09
-3.78159e-09
4.73521e-09
7.84571e-10
-4.69389e-09
3.4963e-09
-9.64289e-11
1.29401e-09
4.34877e-09
-4.8322e-09
3.15574e-10
1.67859e-10
5.27551e-09
-1.4279e-09
1.99844e-09
-5.84605e-09
1.6068e-09
3.75412e-09
-5.36092e-09
5.81151e-09
8.28301e-11
-5.39025e-09
-5.04093e-10
-6.13957e-09
5.5051e-09
5.36331e-10
9.81327e-11
4.7479e-09
-9.19272e-10
-4.09288e-09
2.64247e-10
-1.4579e-08
-2.79623e-09
7.35071e-09
1.00246e-08
-1.38375e-08
4.4872e-10
-6.14728e-11
1.34503e-08
-2.54255e-09
2.95963e-09
2.88584e-09
-3.30292e-09
6.56207e-09
-1.22612e-10
-2.16419e-10
3.31911e-09
-3.763e-09
-3.36812e-09
3.812e-09
2.64733e-09
-3.0139e-09
3.13292e-09
-2.76635e-09
1.21439e-09
-5.62108e-09
-7.2743e-10
-3.05994e-09
3.28071e-09
-2.90478e-09
2.68401e-09
-4.61943e-09
4.37065e-09
-1.11882e-11
2.59963e-10
-1.04937e-09
5.5404e-10
-4.51586e-09
5.01119e-09
3.52299e-09
-3.40974e-09
-3.29831e-09
3.18506e-09
-5.71947e-09
-9.01964e-10
-8.03756e-10
7.42519e-09
-3.94562e-10
6.65047e-11
5.17204e-11
8.79234e-10
1.54465e-10
1.30656e-10
3.37528e-09
-3.19218e-09
-1.00082e-08
9.82513e-09
-2.79337e-10
-8.26977e-12
-2.11755e-09
3.05913e-09
1.87028e-09
-2.81186e-09
-7.82932e-09
5.78332e-09
-8.37717e-10
2.88373e-09
7.18225e-09
-2.04484e-09
2.28803e-10
-5.36621e-09
-2.17286e-09
-2.07807e-09
1.94473e-09
2.3062e-09
4.69722e-11
-6.18292e-11
-6.02565e-10
1.0838e-09
-5.16339e-10
1.49655e-10
-4.47555e-11
4.11439e-10
-3.75066e-09
-3.2385e-09
3.48217e-09
3.507e-09
-3.19891e-09
3.03204e-09
-3.16489e-09
3.33176e-09
-4.7959e-09
4.93866e-09
-4.37837e-10
2.95083e-10
5.19588e-10
6.03522e-10
5.76286e-09
-4.84341e-10
1.29312e-09
4.4971e-09
3.65513e-10
4.129e-10
-1.16975e-08
-5.72578e-10
-1.56742e-09
-9.57467e-11
-7.62622e-11
3.84537e-09
-3.58804e-09
-2.6139e-10
4.05777e-12
2.41022e-09
2.25075e-09
-1.7359e-09
-2.92508e-09
-2.94057e-09
-3.22404e-09
3.20953e-09
2.95508e-09
-2.63773e-09
3.2328e-09
-2.9263e-09
2.33123e-09
6.80032e-09
2.90011e-09
-5.3111e-09
-4.38933e-09
6.07394e-10
-4.6562e-09
-5.70627e-10
-4.80216e-09
3.87603e-09
-4.80382e-10
1.40651e-09
-5.0658e-09
-5.13517e-09
5.07879e-09
5.12218e-09
-8.39313e-11
-1.0423e-10
2.3869e-09
-1.77014e-09
1.79346e-09
4.44784e-09
-6.41573e-10
2.66056e-10
-4.07232e-09
-3.07852e-09
-1.87832e-09
6.53467e-10
4.30337e-09
1.72031e-09
-4.35704e-09
-9.40857e-10
3.57759e-09
-1.9779e-09
2.50095e-09
-9.58363e-09
9.06058e-09
3.27756e-09
-3.42819e-09
3.86652e-09
-3.7159e-09
-3.33727e-09
3.41135e-09
2.82245e-09
-2.89653e-09
1.05583e-10
5.77765e-09
-4.40065e-10
-4.64384e-09
-4.46872e-11
-1.07378e-10
-4.90418e-09
4.11399e-09
-3.43925e-09
4.22944e-09
-3.51629e-09
-1.18549e-09
9.51236e-10
3.75054e-09
-1.29968e-10
-1.63994e-09
6.24132e-09
-4.47141e-09
-3.25752e-09
-3.71619e-09
3.66197e-09
3.31174e-09
3.31871e-09
-3.39015e-09
-3.4414e-09
3.51284e-09
-3.57856e-09
3.32063e-09
-3.84901e-09
4.10694e-09
-3.18723e-09
2.7781e-09
4.07758e-09
-3.66844e-09
5.69841e-10
-4.0315e-09
-5.46348e-11
-3.28272e-09
3.31851e-09
2.85269e-09
-2.88848e-09
-2.26722e-09
-4.909e-09
5.2118e-09
1.96443e-09
3.85319e-09
3.68108e-09
-3.82985e-09
-3.70442e-09
-3.289e-09
-3.50487e-09
3.53155e-09
3.26232e-09
1.32169e-08
3.33874e-09
-1.68848e-08
3.29175e-10
3.10398e-09
-3.17474e-09
-3.57361e-09
3.64438e-09
4.98335e-09
1.11819e-10
-1.62345e-10
-4.93282e-09
2.56006e-09
-2.81659e-09
-3.07619e-09
3.33272e-09
1.98065e-09
-4.64358e-09
-1.64319e-09
4.30613e-09
3.56697e-09
-3.37602e-09
3.87013e-09
-4.06107e-09
5.18121e-09
-5.07655e-10
3.09793e-10
3.65422e-09
-4.79166e-09
-4.88256e-09
6.02e-09
2.18848e-09
-1.6126e-09
1.5978e-09
-2.17369e-09
3.16445e-09
-3.61685e-09
3.55638e-09
-3.11499e-09
-3.67661e-09
3.61685e-09
3.69497e-09
-3.51219e-09
-3.84203e-09
3.65925e-09
-4.55707e-09
4.04044e-09
3.43411e-11
4.82292e-10
3.09407e-09
-2.51878e-09
-3.08362e-09
2.50833e-09
-2.36263e-09
-3.37442e-09
2.4301e-09
3.30695e-09
-1.62673e-09
3.61287e-09
3.04472e-09
-2.46941e-09
-3.02112e-09
2.44581e-09
2.78058e-09
-2.75254e-09
3.12331e-09
-3.15135e-09
-2.22052e-09
-2.51106e-09
2.12657e-09
2.60501e-09
3.68292e-09
-3.61058e-09
-3.18733e-09
6.79619e-10
3.00015e-09
-3.67977e-09
9.42618e-10
6.41069e-09
-4.57631e-09
-2.777e-09
4.5873e-09
-1.09165e-09
1.78272e-09
-5.27838e-09
2.47623e-09
-2.66194e-09
3.45836e-09
-3.27265e-09
-5.26591e-10
9.1314e-11
-8.10615e-11
2.77626e-09
-2.84166e-09
-3.28465e-09
3.35005e-09
-3.25815e-09
3.14326e-09
3.79018e-09
-3.67529e-09
2.7978e-09
-2.61694e-09
2.06989e-09
-5.19039e-09
1.20249e-09
-4.07869e-10
4.39577e-09
3.45509e-09
4.12136e-09
-4.00087e-09
-3.57558e-09
-4.37526e-09
-9.91302e-10
4.31719e-09
4.69333e-10
1.54805e-10
2.65449e-09
6.07854e-09
-7.27697e-09
-1.45606e-09
3.68718e-09
-3.45324e-09
4.05887e-09
-4.29282e-09
4.64313e-09
-5.0953e-09
-3.91739e-09
4.36957e-09
-1.13244e-08
7.01563e-09
-1.21425e-08
1.64513e-08
-4.21485e-09
4.50089e-09
2.67995e-10
3.03812e-09
-3.14919e-09
3.59367e-09
-3.4826e-09
5.73762e-09
1.29748e-09
-3.2556e-10
-6.70954e-09
6.61775e-10
3.16497e-09
-3.85048e-09
2.37349e-11
3.42673e-09
-8.02562e-10
-2.94864e-09
3.24464e-10
-1.88366e-09
2.47307e-09
-1.51685e-08
2.79278e-09
-2.94468e-09
3.33471e-09
-3.18282e-09
2.55117e-09
-2.77818e-09
1.51367e-09
-1.28665e-09
5.22566e-09
-5.12461e-09
6.07219e-10
-7.08272e-10
4.5447e-09
4.44678e-09
-3.52569e-09
-5.46579e-09
-4.11572e-09
1.03024e-09
4.8058e-09
3.67295e-09
-5.38544e-10
2.92332e-10
2.41237e-09
6.19274e-09
-2.16279e-09
-6.44232e-09
3.79785e-09
-4.39867e-09
1.13539e-09
-5.34568e-10
4.42596e-09
9.49691e-09
-3.8559e-09
-1.0067e-08
5.83243e-09
-5.1309e-09
5.82821e-11
-7.59809e-10
-2.82331e-09
3.38032e-09
3.27609e-09
-3.83311e-09
-6.43133e-10
4.05649e-09
-3.6103e-09
1.96952e-10
5.66031e-09
-9.11811e-11
-5.80131e-09
2.32177e-10
1.24007e-09
-3.98303e-09
-5.7117e-10
3.31412e-09
2.01115e-09
-7.31034e-10
5.5202e-09
-3.32738e-09
3.77679e-09
-3.73841e-09
3.3176e-09
3.73841e-09
-3.73731e-09
5.6183e-10
4.30849e-09
-4.60896e-10
-4.40942e-09
-1.90282e-09
9.15555e-10
-2.0161e-09
3.00337e-09
-2.74297e-09
3.25896e-09
3.23596e-09
-3.75195e-09
-4.11716e-09
4.4847e-09
1.74959e-10
-5.42499e-10
3.98561e-09
3.7562e-10
2.26065e-10
3.76676e-09
-3.95536e-09
4.72058e-09
-4.53198e-09
2.75257e-09
-2.78356e-09
3.18302e-09
-3.15204e-09
5.87917e-10
-5.58797e-10
-1.74625e-10
5.57975e-09
-7.09333e-09
1.6882e-09
5.42471e-09
-2.61792e-09
-4.97014e-09
2.16335e-09
3.47759e-09
-3.38873e-09
3.50231e-09
-3.59117e-09
-2.75135e-09
2.72068e-09
-3.07595e-09
3.10661e-09
4.48261e-09
-4.4963e-09
-1.30136e-10
1.43826e-10
-2.10132e-11
-5.57152e-11
3.30981e-09
-3.27211e-09
2.8559e-09
-2.8936e-09
-2.4646e-09
3.61414e-09
2.43281e-09
-3.58234e-09
3.67032e-09
-3.62479e-09
3.13635e-09
-3.18188e-09
6.725e-09
8.04805e-09
-1.04834e-08
-4.28963e-09
2.66812e-09
2.94406e-09
-3.05212e-09
1.14649e-09
-4.73479e-09
4.49949e-09
-9.11195e-10
-2.81764e-10
-4.27916e-09
4.42147e-09
1.3946e-10
-1.67221e-09
2.90471e-09
1.89783e-09
-3.13033e-09
4.36912e-09
-4.47558e-09
-7.65422e-11
1.83002e-10
1.57197e-09
1.88294e-09
4.44108e-09
-7.896e-09
-5.5601e-09
-2.12803e-10
4.88697e-09
8.85933e-10
-4.04753e-09
4.35022e-09
3.03801e-09
-3.3407e-09
3.27944e-09
-1.05051e-08
-2.5157e-09
9.74134e-09
-3.1407e-09
3.61713e-09
3.39087e-09
-3.8673e-09
1.5194e-09
-4.26964e-09
3.66452e-09
4.06107e-09
-4.03062e-09
-4.06641e-09
3.0353e-09
4.8843e-09
2.05481e-09
-4.65113e-09
4.92088e-09
-5.66235e-09
4.97119e-11
6.91756e-10
3.45891e-10
5.73356e-10
4.44247e-09
-5.36171e-09
-3.02023e-09
3.37216e-09
3.37202e-09
-3.72395e-09
5.05281e-09
-4.67831e-09
3.96073e-09
-4.33523e-09
-8.45187e-09
-2.29676e-09
6.39044e-09
4.35819e-09
-3.98382e-09
-1.34047e-10
-5.25977e-10
-3.0842e-09
3.25501e-09
3.38557e-09
-3.55638e-09
-5.38103e-09
-2.05432e-10
1.97517e-10
2.82502e-09
3.15135e-09
-3.20012e-09
4.00648e-09
1.86021e-10
-5.19559e-10
4.93136e-09
2.37078e-10
-6.12237e-09
9.53927e-10
6.32054e-09
1.29902e-09
-4.71944e-09
-1.78721e-09
8.32619e-09
2.51755e-09
-9.05652e-09
-3.48189e-09
3.55678e-09
-3.08169e-09
3.0068e-09
-4.73973e-09
-6.23493e-09
6.06414e-09
4.91053e-09
-2.74232e-09
-2.40809e-09
2.0719e-09
-1.25594e-08
-7.42084e-09
1.33766e-08
6.60366e-09
3.67013e-09
-3.64468e-09
3.16609e-09
-3.19154e-09
-2.53138e-09
4.19321e-09
-5.70976e-09
4.04793e-09
1.19415e-11
4.68205e-10
-4.39966e-09
3.91951e-09
-5.15409e-09
4.7541e-09
-3.92903e-09
4.32902e-09
-2.05704e-09
-9.721e-09
6.38099e-09
5.39705e-09
-3.64052e-09
3.72078e-09
2.97369e-09
-3.10956e-09
3.4826e-09
-3.34673e-09
-4.6168e-09
4.64664e-09
1.28217e-10
-1.58056e-10
-4.71989e-09
1.20972e-09
3.51017e-09
3.19093e-09
-3.08163e-09
-3.21159e-09
3.48235e-09
3.55171e-09
3.13802e-09
-3.65161e-09
4.11361e-10
3.92871e-09
-4.26428e-09
-7.57854e-11
-1.60787e-09
-3.44009e-09
3.92181e-09
1.12616e-09
3.97251e-09
-3.0353e-09
-3.46859e-09
-4.41302e-09
-3.09145e-09
3.94237e-09
3.5621e-09
-1.17463e-08
3.4993e-10
-3.0114e-10
4.3883e-09
-4.04698e-09
-1.40279e-10
-2.01048e-10
4.31341e-09
1.29201e-10
-4.36131e-10
3.65948e-09
-3.64605e-09
3.16726e-09
-3.18069e-09
-5.68957e-10
-5.41897e-11
9.65549e-11
-4.01289e-09
4.95921e-09
4.52148e-10
-1.39847e-09
-5.24922e-09
5.94408e-10
4.76258e-09
-1.07772e-10
3.47998e-09
-2.75357e-09
3.31268e-09
-4.03909e-09
1.64259e-09
4.66651e-09
-8.98757e-10
-5.41035e-09
2.92415e-09
3.6641e-09
-3.58255e-09
-3.0057e-09
7.85895e-09
1.98105e-09
-7.61206e-09
-2.22794e-09
5.56325e-11
-5.978e-10
5.42167e-10
-3.15007e-09
3.45182e-09
-3.25733e-09
-3.87013e-09
3.73731e-09
4.31407e-09
-8.68487e-11
-4.50899e-09
3.66255e-09
-3.65732e-09
-3.18876e-09
3.18353e-09
-6.38166e-10
1.24842e-10
1.94483e-09
-3.05708e-10
-1.66333e-09
2.42095e-11
-5.07617e-09
4.65392e-09
-4.12743e-09
4.54967e-09
2.69255e-09
3.14616e-09
-3.02769e-09
-2.81102e-09
3.2386e-09
-3.17506e-09
3.72431e-09
-3.78784e-09
3.29897e-09
2.92995e-09
-3.43613e-09
-3.26078e-09
-3.36624e-09
3.5285e-09
3.09853e-09
3.87758e-09
-3.85222e-09
4.50609e-09
-4.53145e-09
-3.31944e-09
3.62908e-09
-3.22048e-09
-3.72431e-09
3.68664e-09
-5.49421e-09
7.57482e-12
2.23051e-11
5.46433e-09
-5.15488e-09
2.50912e-11
2.05863e-12
5.12773e-09
4.22588e-09
-1.66257e-11
-2.07975e-11
-4.18846e-09
-4.10462e-09
5.53975e-12
-3.7232e-11
4.13631e-09
4.38459e-09
1.03032e-11
-7.78349e-11
-4.31706e-09
4.31595e-09
1.83681e-11
-7.09131e-11
-4.2634e-09
4.50708e-09
-6.69647e-12
-2.52175e-11
-4.47517e-09
-5.21716e-09
-1.19865e-11
6.64995e-11
5.16264e-09
-1.44888e-08
1.16354e-08
9.69713e-10
-2.62463e-09
2.93096e-09
-2.94406e-09
3.3451e-09
3.8855e-09
-4.75438e-09
-3.20863e-09
2.7454e-09
3.24382e-09
-2.90872e-09
-3.51692e-09
3.03925e-09
3.38639e-09
-2.81563e-09
-3.42651e-09
2.89941e-09
3.34273e-09
3.98711e-09
-3.84483e-09
4.04095e-09
-4.18323e-09
3.93609e-09
-4.06317e-09
4.31199e-09
-4.18492e-09
-5.34046e-09
-7.09847e-11
7.3501e-11
-5.54478e-09
2.07422e-11
3.07656e-11
5.49328e-09
1.88318e-09
-9.43493e-09
8.73853e-09
-1.18678e-09
4.61721e-09
5.19255e-11
-1.22008e-10
-4.54713e-09
4.74411e-09
5.44167e-11
-1.07213e-10
-4.69132e-09
2.84654e-09
-3.62947e-09
-6.47657e-09
7.2595e-09
-1.97614e-09
-3.88758e-10
-6.06803e-09
1.53775e-09
-9.33879e-09
-2.85474e-11
7.82958e-09
3.76239e-09
-4.27529e-09
-5.08685e-09
5.59975e-09
-1.02886e-08
4.30619e-09
-2.46951e-09
1.91744e-09
4.27144e-09
-5.93207e-09
-2.56807e-10
3.64586e-09
-3.63984e-09
-3.17856e-09
3.17254e-09
-3.6092e-09
3.65327e-09
3.17471e-09
-3.21878e-09
-3.20682e-10
4.16867e-09
5.21127e-10
4.29071e-09
-4.59186e-09
3.97622e-09
-3.67508e-09
-2.68945e-09
-3.19403e-09
2.67485e-09
-8.1548e-10
2.73729e-11
4.10191e-09
7.93532e-10
-4.37138e-09
-5.24068e-10
-4.15688e-10
1.81471e-10
4.73132e-09
4.85306e-09
4.43448e-12
-3.56602e-10
-2.68303e-09
-3.22126e-09
3.15294e-09
-3.91792e-09
3.89852e-09
4.66165e-09
-4.64225e-09
-3.20217e-09
-2.10923e-09
2.35426e-09
2.95714e-09
3.78324e-09
-3.45836e-09
6.42328e-09
-3.9389e-10
-1.92748e-09
3.27067e-09
-3.04904e-09
2.72217e-09
-2.9438e-09
-5.10691e-09
1.65284e-09
6.12729e-09
-2.67321e-09
-3.12331e-09
3.05212e-09
-6.24321e-10
2.65209e-11
-2.07349e-09
3.52799e-09
2.58726e-09
-4.04176e-09
-4.58785e-09
-3.29272e-09
4.56113e-09
-3.18268e-09
3.27638e-09
4.70593e-09
-4.79963e-09
3.88835e-09
-3.8683e-09
-7.02337e-09
-1.33884e-08
5.92302e-09
-7.25091e-09
3.8874e-09
6.72785e-09
-3.36434e-09
-3.85006e-09
-3.62693e-09
3.98198e-09
3.49502e-09
9.24745e-10
-6.79857e-10
4.01248e-09
-4.25737e-09
-4.86178e-09
-1.86641e-09
6.72819e-09
3.93417e-09
1.43796e-10
-4.57272e-09
4.94754e-10
-6.6099e-11
7.31269e-11
2.96413e-09
1.86979e-09
-1.89935e-09
-2.93457e-09
-2.60896e-09
-3.03499e-09
3.57046e-09
3.94902e-09
4.29282e-09
-4.47507e-09
-8.89293e-10
-4.12454e-10
5.69005e-09
-3.1678e-09
3.47656e-09
3.97717e-09
-4.28593e-09
4.2626e-09
-4.50967e-09
5.29988e-09
3.42867e-09
-4.65455e-09
-3.3083e-09
4.53418e-09
2.72158e-09
3.15204e-09
-3.15294e-09
-6.11846e-10
-1.24749e-11
-6.83759e-11
1.99028e-10
3.72543e-09
-3.85608e-09
-4.51693e-09
3.41339e-09
2.65102e-09
-1.54748e-09
2.74374e-09
3.22126e-09
-3.27244e-09
9.09725e-09
2.51014e-09
-1.60845e-09
-9.99894e-09
4.27797e-09
-4.33319e-09
-1.14745e-10
1.69956e-10
-5.44591e-10
1.49754e-09
5.47033e-09
3.53505e-09
-3.71138e-09
-3.00602e-09
3.18235e-09
-3.1052e-09
-3.27228e-09
3.71554e-09
6.89755e-09
-6.01384e-09
-9.39333e-10
5.56151e-11
-3.78896e-09
4.52585e-09
-4.39828e-09
3.66139e-09
-4.90855e-09
3.50839e-09
5.05438e-09
-3.95365e-09
-4.53594e-09
4.57166e-09
1.65106e-09
-1.92908e-09
3.70465e-09
-3.54686e-09
-3.32054e-09
3.16275e-09
4.68881e-09
-5.12186e-09
3.10458e-09
-3.14513e-09
-4.06503e-09
4.10558e-09
1.15262e-08
-2.68705e-09
-4.72339e-09
4.96046e-09
4.00141e-09
-3.87513e-09
4.5235e-09
-4.64978e-09
2.5995e-09
-5.60018e-09
5.65517e-09
-3.48394e-09
-4.05887e-09
4.03062e-09
-3.16146e-09
-3.50767e-09
-4.77702e-09
7.5338e-10
-6.14674e-10
4.63831e-09
-4.4312e-09
5.4025e-09
-4.31199e-09
3.3407e-09
7.2915e-10
4.8633e-09
-1.61758e-09
-3.97487e-09
3.11398e-09
-3.12396e-09
-4.06007e-09
4.07005e-09
2.56201e-09
-3.55704e-09
4.47262e-09
3.56054e-09
-3.17663e-09
3.16432e-09
-2.58772e-09
3.15592e-09
-3.51288e-09
2.22764e-09
4.40604e-09
-3.33471e-09
-3.72077e-09
-1.01649e-09
2.40969e-10
-4.44785e-09
4.69652e-09
-5.33983e-09
-3.72924e-09
4.27741e-09
-8.47597e-09
5.94779e-09
1.5533e-10
2.37284e-09
4.30313e-09
-1.53292e-10
-4.14984e-09
3.06568e-09
-2.5438e-09
2.62428e-09
3.74438e-09
-4.33292e-09
-4.69111e-09
5.27964e-09
-3.64583e-09
1.53987e-11
4.57478e-09
-9.44351e-10
3.79746e-09
3.1144e-09
-1.99839e-09
-4.91346e-09
-4.87775e-09
1.08341e-09
3.79434e-09
3.85001e-09
4.7582e-09
-4.6068e-09
4.11141e-09
5.64532e-10
-4.67594e-09
-4.8646e-09
4.27991e-09
3.84973e-09
-3.26504e-09
2.09501e-09
-1.65814e-09
-2.17277e-09
-8.11248e-12
6.00527e-09
-5.89158e-09
-6.03293e-09
7.23064e-09
1.16442e-08
-1.28419e-08
4.85405e-09
-3.98323e-12
9.76076e-11
-4.94767e-09
-2.61451e-09
-3.15603e-09
3.18282e-09
-7.26983e-09
6.73815e-09
6.7064e-10
-1.38962e-10
-3.35311e-09
3.31777e-09
2.87602e-09
-2.84069e-09
7.47811e-10
-5.04681e-10
-4.09706e-09
3.85393e-09
-2.07101e-09
2.31894e-09
-5.1994e-09
4.95146e-09
3.66844e-09
-3.68664e-09
3.00475e-09
-3.16775e-09
5.27402e-09
-5.11102e-09
-1.86294e-09
4.76116e-09
2.4401e-10
-3.14223e-09
-4.9367e-10
4.07892e-09
-4.22838e-09
3.63191e-09
4.47891e-09
1.40767e-10
-3.06267e-10
4.22003e-11
-1.80083e-10
7.98288e-10
4.00953e-09
-3.62397e-09
-1.18385e-09
1.06022e-10
-6.03092e-09
6.15148e-09
-2.26587e-10
-1.20008e-12
-4.14592e-09
4.1059e-09
4.12271e-11
-1.79447e-11
-5.59687e-09
5.56403e-09
5.07847e-11
1.07364e-11
4.44425e-09
-4.36603e-09
-8.89529e-11
1.48252e-11
4.24388e-09
-4.14315e-09
-1.1556e-10
-3.55731e-09
9.38913e-11
4.01214e-09
-5.4872e-10
-1.03915e-11
4.27228e-09
-4.24505e-09
-1.68356e-11
9.4406e-12
-5.24462e-09
5.21638e-09
1.87951e-11
-4.14932e-13
-5.89997e-09
5.96994e-09
-6.95551e-11
2.92103e-12
-4.10015e-09
4.08147e-09
1.57575e-11
1.1001e-11
-5.57041e-09
5.54777e-09
1.16376e-11
-3.79527e-09
9.64459e-11
4.27173e-09
-5.72912e-10
1.56122e-11
-5.21809e-09
5.19113e-09
1.13554e-11
-3.5975e-09
8.40736e-11
4.03982e-09
-5.26389e-10
-7.5888e-12
4.24692e-09
-4.22348e-09
-1.58546e-11
-5.83793e-09
-1.06302e-11
5.87839e-09
-2.98303e-11
1.78976e-11
-5.55847e-09
5.5355e-09
5.07117e-12
2.06166e-11
-5.19324e-09
5.16272e-09
9.90256e-12
2.01237e-11
-5.5406e-09
5.51384e-09
6.63356e-12
1.51367e-11
-5.51458e-09
5.48213e-09
1.73159e-11
6.64572e-09
-6.13518e-09
-6.62743e-10
1.52199e-10
-2.40063e-09
-7.76836e-09
8.38178e-09
3.75714e-09
-3.21086e-09
-4.07763e-09
3.53135e-09
-1.52629e-09
5.09658e-09
2.27557e-10
2.97701e-09
-3.04538e-09
4.96664e-09
-4.71214e-09
-6.6958e-10
4.15077e-10
-3.66092e-09
-1.0529e-13
-3.85948e-10
3.30102e-09
-3.47281e-09
3.65236e-09
-3.48057e-09
2.60879e-09
-3.60707e-09
-4.00556e-09
5.00385e-09
-4.51648e-09
4.75243e-09
6.15794e-09
-7.02286e-09
-1.95635e-09
2.82127e-09
2.85876e-09
-3.29791e-09
3.19173e-09
2.34197e-09
-7.50971e-09
4.90102e-09
2.66718e-10
3.11677e-09
-3.19332e-09
-7.45412e-10
1.3259e-09
4.38616e-09
-5.61228e-09
1.55979e-08
4.19355e-09
-1.41792e-08
-2.79609e-09
-3.01369e-10
3.09746e-09
3.48771e-09
-4.22199e-09
4.99688e-09
3.61111e-09
-5.18888e-09
4.18656e-09
2.16503e-10
-5.10053e-10
3.12639e-09
3.48806e-10
-3.12639e-10
-5.64979e-10
5.28812e-10
-3.18255e-09
3.61688e-09
-3.34305e-09
-3.12902e-09
3.6019e-09
-3.2885e-09
-3.18302e-09
3.20012e-09
-3.09217e-09
2.78327e-09
-3.07129e-09
3.38019e-09
-5.83294e-09
-3.00191e-09
8.83485e-09
3.24017e-09
3.09471e-09
-3.10646e-09
3.07436e-09
-3.9753e-09
4.0074e-09
2.26368e-10
1.12326e-09
-1.35036e-09
7.35086e-13
-4.52963e-12
4.04059e-09
-3.97827e-09
-5.77946e-11
-3.4827e-09
3.99508e-09
3.23085e-09
-3.74323e-09
1.26533e-10
-2.56914e-10
-5.41141e-09
-4.32335e-09
3.24743e-09
6.48734e-09
4.4372e-09
8.12662e-11
-4.61984e-10
-3.82581e-09
1.15983e-09
4.17554e-09
-1.50955e-09
-1.91087e-09
-1.28691e-08
1.00403e-08
5.89775e-09
-5.34585e-09
-4.87281e-09
4.32091e-09
3.59972e-09
-3.50231e-09
8.85044e-10
-1.35328e-09
1.45775e-08
-1.41092e-08
2.67988e-09
3.34305e-09
-2.95225e-09
-3.07068e-09
2.62719e-09
3.2885e-09
-2.90111e-09
-3.01458e-09
-3.79488e-09
1.79553e-10
4.17715e-09
3.8211e-09
-4.32377e-09
3.74374e-09
-4.24558e-09
-6.06041e-09
-1.13895e-09
5.34996e-09
1.84941e-09
-5.7687e-09
-1.44946e-10
5.64556e-09
2.68086e-10
-5.32923e-09
-5.2678e-11
5.25415e-09
1.27752e-10
-4.25318e-09
-5.76044e-11
4.18154e-09
1.29245e-10
3.25941e-09
-3.38955e-09
5.07562e-09
-5.06511e-09
1.28476e-11
-5.26881e-09
5.24407e-09
1.18936e-11
-1.74087e-11
4.50824e-09
-4.46403e-09
-2.67964e-11
1.54539e-11
4.18387e-09
-4.10894e-09
-9.03762e-11
-1.35715e-11
4.28795e-09
-4.25059e-09
-2.37853e-11
-1.12884e-11
4.30253e-09
-4.27852e-09
-1.27186e-11
-5.98286e-12
4.53157e-09
-4.50651e-09
-1.90763e-11
-3.86339e-09
1.35593e-10
4.41397e-09
-6.86174e-10
-1.18457e-10
-3.9283e-09
3.50559e-09
5.41165e-10
-5.17708e-09
6.90606e-09
-7.34388e-09
5.6149e-09
3.04536e-09
-3.31779e-09
-3.9394e-09
4.21184e-09
-1.0843e-09
1.68732e-08
-1.49039e-08
-3.09979e-09
2.99514e-09
-3.82241e-09
-2.53431e-09
3.36157e-09
-4.82699e-09
4.83331e-09
6.06023e-12
-1.23884e-11
-3.86842e-09
-4.48071e-10
4.31649e-09
-5.21367e-09
4.94526e-09
9.7145e-10
-7.03038e-10
3.7496e-09
-5.10496e-09
-3.52719e-09
-4.25547e-12
4.10161e-09
-4.09735e-09
3.48898e-09
-3.49875e-09
3.1335e-09
-4.13916e-09
4.19659e-09
-4.09933e-09
3.97586e-09
5.21987e-09
2.8624e-11
-4.49306e-09
4.58806e-09
-1.23624e-10
3.19397e-11
-4.41632e-09
4.505e-09
-1.20617e-10
-7.51686e-10
8.07655e-09
-1.58725e-09
4.77794e-09
1.09942e-11
-3.67471e-10
1.08406e-09
4.70006e-09
-1.31995e-09
-4.46417e-09
3.08795e-09
-3.31465e-09
-5.67656e-09
5.90326e-09
8.07933e-09
-1.0306e-08
5.60197e-09
5.75346e-09
2.6826e-09
-1.05757e-09
-7.37849e-09
3.67539e-09
-3.71505e-09
3.0348e-09
1.57482e-11
-4.89556e-09
4.94278e-09
-6.29694e-11
3.13736e-09
3.12878e-09
-1.33736e-08
1.51129e-08
-7.77224e-09
2.43101e-09
-6.16312e-09
5.78684e-09
-2.05473e-09
-3.96651e-09
4.31887e-09
-4.98975e-09
4.26614e-09
-3.59526e-09
3.52155e-09
2.97386e-09
-3.05973e-09
-3.43568e-09
-1.56706e-10
-5.60871e-09
5.162e-10
1.95035e-10
-9.9259e-11
3.87994e-09
-3.97571e-09
5.19034e-09
-5.13841e-09
-5.61852e-11
-4.85856e-09
4.893e-09
1.24467e-11
-4.68774e-11
4.35199e-10
-7.62421e-09
3.17613e-09
3.99384e-09
-3.56905e-09
-3.70729e-09
3.2825e-09
-4.26244e-09
4.68883e-09
-4.18595e-09
3.75956e-09
-4.12483e-09
4.14058e-09
6.71463e-09
-5.93041e-09
-1.35497e-09
5.70754e-10
3.08823e-09
-3.09276e-09
2.69468e-09
-2.65119e-09
3.89661e-09
-5.27847e-09
-3.13507e-09
-1.3539e-09
7.51059e-11
1.49169e-09
-3.04169e-09
3.93691e-09
2.62603e-09
-2.84631e-09
-3.07764e-09
4.14964e-09
5.13686e-10
3.93874e-09
4.53145e-09
-4.57166e-09
-4.56044e-09
-3.23792e-09
4.00939e-09
-4.48036e-09
4.6068e-09
-4.00157e-09
1.45862e-08
-3.68534e-09
-1.65132e-08
3.69351e-09
-3.82622e-09
-2.55249e-10
3.94119e-09
-4.22115e-09
4.20659e-09
-3.37417e-09
-5.4296e-09
-4.09584e-10
1.03702e-09
-4.44483e-09
1.22361e-09
4.4613e-09
-5.04826e-09
-8.55586e-12
9.03326e-11
4.96648e-09
-3.92435e-09
-4.50609e-09
4.47507e-09
-4.05529e-09
1.15796e-11
-3.98649e-11
4.08357e-09
-4.08301e-09
1.80416e-11
1.17553e-11
4.05322e-09
-4.14405e-09
1.36756e-11
1.33798e-11
4.117e-09
-5.15861e-09
2.46673e-11
-1.48703e-11
5.14882e-09
-4.18755e-09
1.22262e-11
1.22346e-11
4.16309e-09
4.65484e-09
-2.46963e-11
1.6551e-11
-4.64669e-09
4.50727e-09
-8.16221e-12
-2.88563e-11
-4.47025e-09
-4.48015e-09
3.96785e-10
-7.52007e-10
4.83537e-09
-3.74353e-09
-2.74825e-09
3.41009e-09
-5.35832e-09
-4.25736e-09
5.27168e-09
4.34399e-09
5.15212e-09
-1.41562e-09
7.83599e-10
-4.52009e-09
-3.52879e-09
3.66956e-09
-3.39959e-09
1.99286e-09
-3.486e-09
7.79588e-09
-2.33755e-09
-1.42435e-10
2.15142e-10
3.81742e-09
-3.89013e-09
3.6919e-09
-3.60043e-09
4.92529e-09
-4.92232e-09
3.2874e-09
-3.29038e-09
-3.10745e-09
-4.81531e-09
9.45178e-11
5.41291e-09
-6.92115e-10
1.79838e-11
4.4327e-09
-4.95202e-09
5.01336e-10
-6.27244e-12
-4.86013e-09
5.40907e-09
-5.42674e-10
-2.1858e-11
-4.75388e-09
5.27985e-09
-5.0411e-10
5.05283e-09
-7.34428e-09
-2.50601e-09
4.79745e-09
-2.88497e-10
6.17328e-09
-7.28883e-09
1.40405e-09
-9.36935e-09
3.58204e-09
-3.02389e-09
-3.95797e-09
3.02962e-09
3.95224e-09
3.51578e-09
-3.90681e-09
5.86065e-10
3.8683e-09
-3.97586e-09
-3.625e-09
-9.66931e-12
3.63467e-09
-3.60054e-09
4.51636e-12
3.59602e-09
-3.61061e-09
1.42704e-11
3.59634e-09
-3.63939e-09
1.6486e-11
3.6229e-09
-3.56516e-09
-2.88013e-11
3.59396e-09
3.39835e-10
2.81551e-09
-3.15534e-09
3.79074e-10
3.49189e-09
-3.87097e-09
8.40846e-10
2.97851e-09
-3.81936e-09
6.30133e-11
3.59159e-09
-3.6546e-09
3.33301e-09
6.54977e-11
-3.39851e-09
-1.04027e-11
-3.99653e-09
4.00693e-09
-3.74235e-09
-6.46192e-11
3.80697e-09
8.50196e-10
3.63403e-09
-4.48423e-09
-2.6276e-09
3.25002e-09
-3.16622e-09
2.25139e-09
5.2227e-09
-3.71695e-09
-3.76374e-09
3.01842e-10
2.31674e-11
5.52099e-09
-6.19002e-09
6.4586e-10
4.72737e-09
-4.54895e-09
-2.90569e-09
8.36047e-09
2.927e-09
-4.8695e-09
5.54412e-10
4.51042e-09
-1.95333e-10
-4.3455e-09
5.83785e-10
-7.18431e-10
-3.13261e-10
-6.21392e-09
1.39888e-09
5.1283e-09
-3.22164e-09
3.23384e-09
-3.82923e-09
3.81703e-09
3.35737e-10
-6.23117e-09
-7.34472e-10
6.62991e-09
-3.60463e-09
-3.89815e-09
4.29192e-09
-1.08299e-09
9.54111e-10
-4.20396e-09
4.33285e-09
-5.01586e-09
4.99997e-09
7.88182e-10
-1.66711e-09
4.94833e-09
-4.0694e-09
1.43053e-10
5.66727e-09
-7.05277e-10
-5.10505e-09
4.85673e-09
-4.83206e-09
9.70093e-12
-3.43732e-11
4.64401e-09
1.20632e-10
-3.97111e-09
-3.90323e-09
-7.34069e-11
3.97664e-09
3.11687e-09
-3.08779e-09
4.05182e-09
-4.08091e-09
3.00377e-09
3.72792e-09
-3.59367e-09
-3.13492e-09
3.67159e-09
-3.25841e-09
2.95066e-09
3.87368e-09
-5.03263e-09
-3.5188e-09
-3.37131e-09
7.11543e-09
-1.91804e-09
-5.37836e-09
1.80969e-10
4.68967e-09
-5.46611e-09
-2.09293e-09
3.10521e-09
3.94866e-09
1.77067e-10
-3.32744e-09
9.23462e-09
-8.48756e-09
5.97793e-09
3.09461e-09
5.07111e-09
-3.97251e-09
-4.00307e-09
-3.79128e-09
3.8407e-09
1.79451e-11
4.45154e-09
-4.46949e-09
-8.6864e-12
4.15977e-09
-4.15108e-09
1.70325e-11
-3.64446e-09
3.62743e-09
4.22733e-12
-3.42138e-09
3.41715e-09
1.18902e-11
-3.52606e-09
3.51417e-09
2.16065e-11
-3.45307e-09
3.43147e-09
-2.61527e-11
4.43965e-09
-4.4135e-09
1.25346e-11
-3.63263e-09
3.62009e-09
1.19119e-11
-3.8459e-09
3.83399e-09
-1.08453e-11
3.39988e-09
-3.38904e-09
3.54388e-11
-4.75307e-09
-1.3084e-10
4.84847e-09
5.03488e-09
2.17897e-09
-3.59972e-09
-3.64222e-09
3.83221e-09
-3.10993e-09
2.91994e-09
5.39052e-10
9.93403e-11
-3.80643e-09
-3.49687e-09
3.79974e-09
3.50356e-09
3.10541e-09
-4.25614e-11
5.22533e-09
-5.48047e-09
2.97697e-10
-3.71176e-09
3.83998e-09
4.09745e-09
-4.14001e-09
6.66464e-10
4.54074e-09
-5.2072e-09
-3.67209e-09
3.73141e-09
3.321e-09
-3.60454e-09
3.10955e-09
3.75396e-09
-1.45918e-10
-3.75732e-09
-1.33083e-09
-2.67353e-09
2.03468e-09
1.96967e-09
-5.6566e-10
-2.07541e-10
2.71803e-09
-3.68119e-09
3.12272e-09
-3.62984e-09
4.18831e-09
-5.75385e-09
7.33774e-09
-4.68498e-09
3.10108e-09
-8.4878e-11
1.32976e-09
-1.37535e-09
1.30467e-10
-5.00501e-11
-4.07478e-09
-2.85448e-09
2.88157e-09
3.72921e-09
-3.96083e-09
-5.8921e-10
3.72116e-10
3.66749e-10
3.72985e-11
-3.91299e-11
4.27631e-09
-2.13872e-09
4.02035e-09
-1.65571e-09
1.53274e-09
-3.03979e-09
3.16276e-09
3.4829e-09
9.41034e-10
-4.14404e-10
-3.54387e-09
-7.54341e-10
3.79379e-09
5.04423e-10
3.45184e-09
-3.96651e-09
4.31346e-09
-4.80857e-09
4.22118e-09
-3.94883e-09
4.40485e-09
3.53896e-09
-3.77301e-09
-4.1708e-09
2.98188e-09
-4.56694e-09
4.47908e-09
-1.46852e-09
-1.37859e-09
5.54748e-10
2.29236e-09
9.38037e-12
-3.80004e-09
3.79066e-09
-2.60356e-11
-3.62492e-09
3.65096e-09
-1.19111e-11
3.33252e-09
-3.32061e-09
-2.13441e-11
4.22066e-09
-4.19932e-09
-3.62931e-12
3.33394e-09
-3.33032e-09
-1.00328e-11
3.35134e-09
-3.3413e-09
-5.87941e-12
3.36473e-09
-3.35885e-09
1.55283e-11
4.21435e-09
-4.22988e-09
-3.05759e-09
2.86666e-09
-3.52388e-09
3.71481e-09
3.06177e-09
-3.16103e-09
-7.3348e-09
5.23146e-09
5.71983e-10
1.53135e-09
-3.44235e-09
-3.96866e-09
3.92831e-09
-1.27096e-10
4.77302e-09
1.1865e-09
2.71418e-09
-4.20047e-09
-2.07489e-09
3.56119e-09
-3.15002e-09
3.29381e-09
8.19349e-09
4.28052e-09
-4.86101e-09
4.98282e-09
-3.011e-09
-2.69153e-11
-5.8493e-10
-4.47117e-09
-6.72915e-10
4.20374e-09
-8.99636e-10
1.30158e-09
-4.60568e-09
-6.12644e-10
-4.68118e-09
3.58293e-10
4.93553e-09
4.50888e-09
-4.75576e-09
-3.81628e-09
2.02106e-09
-2.47653e-09
-1.8467e-09
2.30217e-09
-2.64401e-09
3.58258e-09
-8.76789e-09
-8.88882e-12
4.67311e-09
-4.69706e-11
4.5282e-09
-3.07611e-09
-3.90327e-09
2.83973e-09
4.13966e-09
-8.30926e-12
-4.19115e-09
-4.68867e-11
-5.13307e-09
-4.4178e-09
4.29071e-09
4.11141e-09
1.91719e-10
-3.85159e-09
4.38011e-09
-2.89991e-09
3.8543e-09
3.12891e-09
-4.0833e-09
-2.85351e-09
-3.7213e-09
3.72033e-09
4.82885e-09
4.8227e-11
2.60111e-09
3.41701e-09
-3.39384e-09
2.59937e-09
-2.30203e-09
-3.51898e-09
1.16326e-10
-5.14906e-09
1.6093e-11
-4.16377e-09
1.75528e-11
-4.1106e-09
-1.29621e-11
-4.0482e-09
-4.23136e-09
-5.31866e-11
3.85861e-09
4.25933e-10
-1.98113e-10
3.61101e-09
1.02431e-09
-2.2495e-10
3.87911e-09
1.12379e-09
-2.37695e-10
3.77625e-09
1.3145e-09
-1.22004e-09
7.78833e-09
-7.66083e-09
1.09253e-09
-3.95046e-09
8.21113e-09
-1.04956e-08
2.3479e-09
-2.90762e-09
3.07129e-09
-2.51157e-09
6.47045e-09
-5.1301e-09
-5.19031e-09
3.84995e-09
-8.10029e-10
-7.5758e-10
1.19402e-09
3.73591e-10
4.56812e-09
6.51729e-10
-5.15684e-09
-5.02894e-09
-4.31702e-10
5.45024e-09
1.2932e-10
4.26774e-09
-8.81277e-10
6.01884e-09
-1.34328e-09
-3.3348e-09
-2.39039e-09
3.03574e-09
3.69948e-09
-5.11235e-09
-3.57688e-09
3.0054e-10
4.07337e-09
-7.63363e-10
-3.61054e-09
-4.29935e-09
3.4198e-09
-4.84237e-09
3.42412e-09
-2.00155e-09
4.50777e-09
2.66034e-09
-3.68813e-09
2.42039e-10
-4.75762e-09
5.9486e-09
-1.43302e-09
-3.99328e-09
-5.58237e-12
3.92555e-09
7.33095e-11
-4.83136e-09
-3.72129e-09
4.54958e-09
-2.27354e-10
-4.7663e-09
1.22992e-09
-3.98624e-09
5.70407e-11
4.11557e-09
-1.86375e-10
4.42182e-09
-6.56321e-09
4.51848e-09
-2.37709e-09
-4.83979e-09
5.2546e-09
-4.08988e-09
3.67508e-09
4.3266e-09
-3.86886e-09
-4.27789e-09
3.82015e-09
3.50428e-09
-3.67978e-09
-4.68885e-09
-1.8799e-09
4.71601e-09
1.85274e-09
-5.83802e-09
-5.49632e-10
-9.47142e-10
-4.25834e-09
1.03897e-10
4.47345e-09
-3.19003e-10
4.70177e-09
-4.34414e-09