/*--------------------------------*- C++ -*----------------------------------*\
  =========                 |
  \\      /  F ield         | OpenFOAM: The Open Source CFD Toolbox
   \\    /   O peration     | Website:  https://openfoam.org
    \\  /    A nd           | Version:  8
     \\/     M anipulation  |
\*---------------------------------------------------------------------------*/
FoamFile
{
    version     2.0;
    format      ascii;
    class       surfaceScalarField;
    location    "2";
    object      phi;
}
// * * * * * * * * * * * * * * * * * * * * * * * * * * * * * * * * * * * * * //

dimensions      [0 3 -1 0 0 0 0];

internalField   nonuniform List<scalar> 
8330
(
-7.45842e-09
2.7714e-10
5.995e-12
7.17528e-09
8.30984e-09
-6.77698e-09
-1.53286e-09
-6.18147e-09
6.83129e-09
-6.49826e-10
-3.39199e-10
7.54807e-13
5.19796e-10
-1.81352e-10
-3.52434e-09
4.12537e-09
7.26509e-09
-7.86612e-09
5.75255e-09
4.78165e-09
-6.28612e-09
-4.24808e-09
-9.68713e-09
1.04825e-09
-3.39342e-10
8.97823e-09
-9.62092e-10
-8.07221e-09
8.78013e-09
2.54174e-10
-1.29893e-08
-5.17533e-10
-8.55607e-10
1.43624e-08
-7.34252e-09
7.48403e-10
-1.66798e-10
6.76092e-09
8.62593e-09
-8.47131e-09
-4.45542e-11
-1.10059e-10
8.80218e-09
1.92175e-09
-7.02016e-09
-3.70377e-09
-1.98667e-10
8.15263e-09
6.71964e-10
7.28893e-09
-8.05441e-10
3.72312e-10
-6.8558e-09
7.10444e-10
1.33757e-10
-1.00897e-08
9.24548e-09
-7.81458e-09
7.88072e-09
-8.83042e-11
2.21634e-11
-4.16333e-10
6.366e-09
-5.94967e-09
-3.58336e-09
4.45749e-09
-3.57325e-09
2.69911e-09
-8.19683e-09
-3.6557e-10
9.10892e-11
7.96107e-09
-7.913e-09
-1.07422e-10
5.93456e-11
8.05846e-09
-8.01363e-09
-1.47335e-10
1.02509e-10
3.30722e-10
-8.53132e-09
-1.5009e-10
8.35069e-09
7.44217e-09
2.1662e-10
-5.32665e-11
-7.60552e-09
-8.06236e-09
8.18509e-09
-1.13051e-11
-1.11421e-10
7.54351e-09
-5.513e-10
2.27291e-10
-7.2195e-09
-8.25796e-09
4.90341e-10
-2.14997e-10
7.98261e-09
-7.9081e-09
-4.1943e-10
-6.7935e-11
8.39547e-09
3.98766e-10
-8.313e-09
8.58576e-09
-6.71526e-10
-8.0352e-09
-1.20563e-10
9.34025e-11
-2.28863e-09
5.01333e-09
-5.48064e-09
2.75594e-09
7.95953e-09
-7.54438e-09
9.36971e-11
-5.08849e-10
8.67087e-09
4.32451e-10
7.5217e-11
-9.17854e-09
5.25124e-11
-8.4285e-09
1.64482e-12
8.37434e-09
7.32956e-09
-1.40594e-09
7.09322e-10
-6.63294e-09
6.93059e-09
-8.65057e-09
1.71997e-09
8.47609e-09
-9.99649e-09
2.06034e-09
-5.39939e-10
1.0859e-10
-2.46962e-10
5.95631e-10
7.73382e-09
2.20275e-09
-1.05322e-08
4.67054e-11
1.28436e-08
5.2835e-10
-1.34187e-08
-7.01467e-09
7.17355e-09
-1.58879e-10
-7.17753e-09
2.14823e-09
-2.31106e-09
7.34036e-09
1.95174e-10
-5.33343e-10
8.2977e-09
4.0634e-09
5.05577e-09
-4.37368e-09
-4.7455e-09
7.68104e-09
-6.93559e-09
-6.66974e-10
-7.84812e-11
-8.23535e-09
-3.98829e-10
-4.82415e-10
9.11659e-09
1.072e-09
-4.03752e-10
7.86293e-09
-8.53118e-09
-1.31093e-08
-1.48365e-08
-8.48868e-09
1.39299e-09
-1.81143e-10
7.27683e-09
1.11134e-08
2.21701e-10
-4.5091e-10
-1.08842e-08
7.74488e-09
-7.69158e-09
-1.08617e-10
5.53142e-11
-8.55758e-09
-4.2563e-10
1.05647e-08
-1.58151e-09
2.17723e-09
-2.37159e-09
-7.23441e-09
7.42877e-09
9.07237e-09
-9.50279e-09
5.15313e-09
-4.72271e-09
-1.23826e-08
-1.65082e-09
1.40334e-08
-1.65473e-08
1.04531e-08
6.0942e-09
-9.43107e-09
1.99277e-09
-3.82821e-10
7.82112e-09
-3.97915e-11
-7.29321e-09
-9.5164e-12
1.50274e-09
-1.83045e-09
7.65728e-09
9.0127e-09
-9.72366e-09
-2.72791e-09
3.43887e-09
-3.78853e-10
-3.94934e-09
4.52303e-09
-1.94834e-10
8.05629e-11
-1.33125e-10
-7.87102e-09
1.60955e-10
-3.78347e-10
8.08841e-09
-7.46016e-09
7.70691e-09
9.86235e-11
-3.45372e-10
-7.78274e-09
-7.34679e-11
4.16286e-11
-3.62725e-09
1.47967e-08
-1.35702e-08
2.40075e-09
-4.49007e-10
7.65146e-11
-4.45919e-09
7.04265e-09
1.47994e-09
-4.81099e-10
1.77393e-10
7.55452e-09
-7.25082e-09
6.15044e-09
-3.7088e-09
-1.03372e-08
7.89558e-09
-9.17014e-09
-5.56904e-09
3.51238e-09
1.12268e-08
1.57896e-09
7.04887e-09
-8.62783e-09
7.73038e-10
-8.97282e-09
8.15981e-11
8.11818e-09
-7.61291e-09
-1.15924e-09
-6.84308e-11
8.84058e-09
-8.3735e-09
1.96105e-09
-6.07662e-10
7.02012e-09
7.64529e-09
-7.57755e-09
-1.39502e-10
7.17605e-11
8.08423e-09
1.34794e-09
-7.85321e-09
-1.25884e-09
8.62166e-09
-7.36282e-09
3.6052e-09
5.90408e-09
-6.70689e-09
-2.80239e-09
-3.32551e-09
3.67848e-09
-1.51717e-09
1.16421e-09
3.17975e-09
-9.76139e-09
-2.51848e-09
9.10012e-09
7.98191e-09
-7.71358e-09
-8.48008e-11
-1.83525e-10
7.06412e-09
-6.97122e-09
-9.28978e-11
-6.93879e-09
-1.97658e-10
7.13645e-09
8.48348e-09
-8.60782e-09
2.39126e-10
-1.14786e-10
-3.02574e-09
1.11379e-09
-1.41356e-09
2.78908e-10
6.65168e-09
1.21905e-09
-2.58907e-09
-1.50385e-09
2.87388e-09
-7.50156e-09
7.45908e-09
1.91244e-10
-1.48772e-10
-8.65074e-09
1.35871e-08
-1.05478e-08
5.61143e-09
8.56355e-09
3.65199e-10
-2.5788e-10
-2.2453e-09
-1.28262e-08
1.14443e-08
-9.14063e-09
9.37806e-10
-3.45448e-10
8.54827e-09
-6.69082e-09
6.69286e-10
-7.49949e-09
1.3521e-08
2.85108e-09
1.04961e-09
-1.0885e-09
-2.81219e-09
-7.32084e-09
7.41684e-09
-1.2455e-10
2.85526e-11
-6.44324e-10
-6.84332e-09
2.74905e-11
-6.63745e-09
-3.01344e-10
7.02069e-11
-1.0248e-10
8.76445e-09
2.45927e-10
-2.20358e-10
-8.79002e-09
9.02501e-09
-8.77399e-09
4.5942e-10
-2.45233e-09
2.73515e-09
9.36229e-10
-7.44434e-09
7.53852e-09
-1.13949e-10
1.97686e-11
1.36895e-11
-9.84775e-11
8.68623e-09
-8.60144e-09
7.192e-09
-7.32577e-09
1.33769e-10
-7.10366e-09
9.93759e-09
8.17015e-09
-1.10041e-08
1.39039e-10
6.87145e-09
-7.01049e-09
1.84903e-10
-6.92585e-09
6.74095e-09
-4.25384e-09
-5.42074e-09
5.60346e-09
4.07111e-09
-1.24661e-08
1.12323e-08
1.23384e-09
5.43961e-10
-7.04556e-09
6.5016e-09
-4.45749e-10
9.53882e-09
-1.41301e-08
5.03703e-09
7.91925e-10
-3.40029e-10
-9.06848e-09
8.61658e-09
-8.26445e-09
8.35902e-09
-2.12643e-10
1.18075e-10
-5.4381e-10
9.01314e-09
-9.02639e-11
-8.37907e-09
-6.46394e-11
1.32773e-10
1.23992e-09
-7.80252e-09
-1.32487e-09
7.88747e-09
1.03548e-09
-1.09711e-08
7.53078e-10
9.18254e-09
-1.87966e-10
6.79186e-09
1.5474e-09
-8.15129e-09
-2.00802e-10
2.2048e-10
-1.41522e-09
1.39555e-09
-7.97278e-09
7.36085e-09
-6.49173e-09
-1.29661e-09
-7.23441e-09
7.73936e-09
7.91661e-10
7.48976e-09
-7.09099e-09
8.75685e-09
5.72417e-10
-8.08934e-09
-7.51875e-09
4.72152e-09
1.02953e-08
-7.49807e-09
8.7643e-09
-8.83246e-09
1.95123e-10
-1.26959e-10
-9.03757e-09
1.17779e-09
8.53561e-09
-6.75834e-10
-1.78866e-09
9.26565e-09
8.74307e-10
-8.3513e-09
-7.40105e-09
-2.92326e-11
-1.40566e-11
-7.90534e-09
-6.92166e-10
2.845e-10
-7.58128e-09
-2.08231e-09
2.3252e-10
1.94116e-10
4.59435e-10
-8.918e-09
4.46418e-10
8.35926e-09
3.93986e-11
-8.84508e-09
-1.15592e-10
-7.52491e-09
7.64051e-09
-9.48821e-09
9.48513e-10
-4.14204e-10
8.9539e-09
-7.4589e-09
4.21035e-10
-1.19749e-09
3.98249e-10
-3.22914e-09
-1.07174e-10
2.93807e-09
8.65342e-09
-1.52799e-09
-7.12543e-09
-4.56689e-10
2.75404e-09
5.53727e-10
6.78376e-09
-8.64288e-09
2.56302e-09
-7.03902e-10
6.9952e-09
-3.01071e-09
-6.27312e-09
-6.28101e-09
4.71381e-10
5.80963e-09
2.08957e-10
7.30209e-09
-7.46153e-09
-4.95083e-11
6.04191e-09
-1.74805e-08
-9.22695e-09
5.38971e-10
4.48502e-10
-1.03849e-09
-6.86891e-09
-4.32979e-10
4.37887e-10
-7.54928e-09
-8.60598e-09
5.54715e-09
3.22141e-09
-1.62587e-10
-1.01721e-10
9.41768e-11
2.04949e-10
-1.97404e-10
2.0526e-09
4.89237e-09
-1.61208e-10
-1.3842e-08
-4.46781e-09
5.63532e-11
-9.42188e-11
-7.37344e-09
4.37784e-09
1.4107e-08
-1.11114e-08
5.76714e-09
-1.01094e-08
4.97446e-09
-6.32179e-10
-7.64686e-09
5.89524e-09
-8.39603e-10
-7.80258e-09
1.69289e-09
6.94929e-09
1.0837e-09
-2.38848e-09
8.77431e-09
-7.46953e-09
-1.07113e-08
1.27712e-08
2.367e-09
-4.42684e-09
-1.37286e-09
9.28623e-10
1.15576e-08
1.15594e-09
-1.57246e-09
4.095e-09
-2.22569e-10
5.84568e-11
2.21682e-09
-1.99856e-09
-9.97465e-10
7.79203e-10
-2.25217e-10
-7.15475e-09
7.37997e-09
-7.84934e-10
2.40864e-10
7.91137e-09
-7.3673e-09
1.20404e-08
-6.28906e-11
-3.22067e-09
-3.93927e-09
-6.2789e-09
5.80092e-10
9.63808e-09
1.96368e-09
7.90025e-09
-2.49565e-09
-7.36827e-09
-3.57755e-09
1.08964e-08
7.00766e-10
-8.01965e-09
-9.17579e-09
6.54694e-09
3.66433e-09
1.12229e-08
-2.07261e-09
6.71815e-09
-1.58684e-08
-3.07105e-09
2.31892e-09
-6.62374e-09
7.37588e-09
6.57384e-12
-1.36052e-09
5.92841e-10
-1.41699e-09
8.76351e-09
-7.93936e-09
7.80197e-09
-1.19804e-10
-7.68216e-09
-8.47623e-09
-3.73534e-09
9.91723e-09
2.29434e-09
-4.37792e-09
-5.97854e-09
6.10263e-09
-8.2595e-09
9.3197e-09
2.13799e-09
-3.19819e-09
-8.86584e-10
-7.89642e-09
8.23007e-10
7.96e-09
3.17027e-09
-8.16008e-09
5.38465e-09
-3.94841e-10
-8.34763e-09
-1.24915e-09
8.30016e-09
-9.86512e-11
7.57741e-09
-7.47875e-09
3.82309e-09
-9.35558e-09
-3.71499e-09
9.24749e-09
-8.98169e-09
1.55139e-10
9.46945e-10
7.87961e-09
8.71293e-09
-4.54505e-09
-5.23124e-09
1.06336e-09
-1.65908e-09
5.06647e-09
-1.20581e-08
4.807e-09
-5.00456e-09
-1.09365e-08
1.11341e-08
-6.87786e-09
5.82155e-09
-2.52704e-09
1.79976e-09
-1.55002e-09
-8.49835e-10
6.00096e-10
5.98473e-09
-9.73963e-09
-1.19907e-08
1.57456e-08
6.80475e-09
-2.07355e-09
-7.43433e-09
2.70313e-09
8.30942e-09
-1.75383e-09
-5.86363e-11
-7.56557e-09
7.90311e-09
-7.73423e-09
-8.02561e-10
4.81904e-10
8.05489e-09
-8.88097e-09
-9.63932e-09
1.27092e-08
5.81105e-09
-2.03444e-09
-7.68379e-09
7.79272e-09
1.92551e-09
-1.27109e-11
-1.13422e-08
-7.20343e-10
1.20753e-08
8.14451e-09
-8.34615e-09
-1.19408e-10
3.2105e-10
2.76048e-10
-1.98847e-10
-8.18121e-09
8.10401e-09
-8.22197e-09
1.19414e-09
6.32752e-09
7.00313e-10
7.54486e-09
-7.88974e-09
9.0379e-10
-5.58913e-10
8.60925e-11
-1.32374e-10
-3.81807e-09
1.81965e-09
1.55695e-10
-1.24908e-10
-7.35163e-09
-6.30307e-10
2.65715e-10
-1.32927e-09
-9.78972e-11
-7.17881e-09
-2.18502e-09
1.15054e-08
-1.27228e-08
3.40236e-09
-6.73813e-09
-6.52516e-09
6.3277e-09
1.06492e-08
-4.45141e-09
-7.82697e-09
1.62919e-09
8.50999e-10
-1.08651e-09
8.02067e-10
4.65708e-10
-1.02495e-08
1.49518e-08
-1.27398e-08
1.15616e-09
-3.36814e-09
-9.26379e-09
-8.01518e-11
7.60594e-09
1.738e-09
3.58499e-09
-3.56559e-09
1.62087e-09
-7.67456e-09
-2.20581e-09
7.30208e-10
-9.29007e-10
2.46805e-10
-1.90443e-10
-1.14401e-10
5.80389e-11
1.35332e-09
-1.16488e-09
-3.89239e-10
-4.7667e-11
-1.19716e-10
8.31715e-11
8.4212e-11
-6.76374e-10
4.79674e-10
-5.43924e-09
-9.31005e-09
5.19704e-09
9.55225e-09
3.97323e-11
-8.70683e-09
-1.44233e-09
4.27626e-09
-4.44301e-09
5.61289e-09
-5.44614e-09
7.99529e-09
-7.59775e-09
1.74259e-10
-5.71797e-10
-3.62448e-10
-3.32338e-09
-1.15268e-08
-2.60588e-09
3.41627e-09
1.07164e-08
-8.22263e-09
2.40723e-10
7.08622e-09
-7.97214e-09
4.2187e-10
4.64057e-10
4.75431e-09
-8.36784e-09
8.33505e-09
-1.73889e-09
-1.29389e-09
7.49028e-09
3.85837e-09
-8.30795e-09
8.27268e-09
-9.51775e-09
4.32814e-09
1.09453e-08
-5.75572e-09
-8.75694e-09
2.78295e-09
-2.37363e-09
1.15632e-08
-1.30517e-08
6.29549e-09
-1.68902e-11
7.16034e-09
-7.14345e-09
1.05347e-10
-3.04687e-09
8.49939e-09
-1.05152e-10
-3.52207e-11
-3.12872e-09
2.68721e-09
2.97468e-09
-2.53316e-09
-3.09535e-10
-8.36818e-09
9.803e-09
-1.12528e-09
-3.57002e-10
1.37885e-10
-7.28244e-09
6.48505e-09
-2.1012e-09
3.49587e-10
-4.73344e-09
5.21449e-09
-4.51272e-09
5.04441e-09
-5.74619e-09
-1.37475e-08
1.54142e-08
-8.35753e-09
-5.661e-09
5.9254e-09
1.12988e-08
-1.38853e-09
-1.23233e-08
-8.99681e-09
1.05415e-09
-3.61124e-10
8.30378e-09
8.65025e-09
-6.19777e-10
-6.60859e-12
-8.02387e-09
-3.48195e-09
-1.13924e-08
4.31417e-09
-4.94269e-09
3.31479e-09
-2.68627e-09
-4.79924e-09
4.05528e-09
-3.05653e-09
3.80049e-09
-3.2381e-10
-8.085e-09
8.34051e-09
6.83021e-11
-5.1806e-10
-6.49661e-09
8.29092e-09
-2.89233e-09
-3.22244e-10
-5.07634e-09
7.37683e-09
-4.83354e-09
-3.79344e-09
1.25015e-09
9.44058e-09
1.68264e-09
-2.55967e-09
1.11444e-08
3.22188e-09
-6.51762e-09
-7.84871e-09
8.38541e-10
8.67418e-09
1.63172e-09
-5.40433e-09
-3.15339e-10
-1.20858e-09
6.92825e-09
4.48334e-10
-3.77775e-10
-1.42991e-10
7.24314e-11
3.47353e-10
8.35423e-09
-8.07541e-09
-6.26178e-10
9.4688e-11
6.4662e-09
-6.56089e-09
-4.44782e-09
-5.98116e-09
5.9486e-09
-2.37395e-09
4.15755e-09
-7.7322e-09
-1.59468e-09
-1.10742e-08
7.66429e-09
-4.12213e-09
9.16178e-09
1.1108e-09
-9.60135e-09
-1.61662e-09
1.72976e-09
-7.28083e-09
3.14169e-09
3.98569e-09
1.5345e-10
9.89176e-11
-1.37946e-10
1.12078e-08
-1.23212e-08
-1.13186e-09
7.04006e-09
-6.6927e-09
-1.09199e-08
2.91711e-10
1.07619e-08
-9.8967e-10
1.44002e-09
4.56298e-09
7.14345e-09
-7.036e-09
-1.93845e-10
8.63996e-11
-6.17809e-10
7.08263e-10
-1.89096e-10
9.86418e-11
-1.82008e-10
8.77014e-09
-9.87235e-09
-3.43602e-09
4.49259e-09
8.81578e-09
-8.70382e-10
-1.26831e-08
7.27286e-10
7.997e-09
-8.09963e-09
1.32182e-10
-2.95437e-11
-3.53878e-09
3.49048e-09
-3.08043e-09
3.32118e-10
-6.50118e-09
6.16906e-09
-5.00946e-10
5.85694e-10
-4.18066e-10
3.33318e-10
-8.51166e-10
1.00098e-09
-2.75014e-10
1.25196e-10
1.20629e-09
2.40918e-09
-2.28634e-09
-8.02097e-09
7.89813e-09
6.24432e-09
3.66603e-09
2.68544e-11
-9.9372e-09
-8.65309e-09
-5.80842e-09
7.3051e-09
7.15642e-09
-7.45756e-09
3.53282e-10
-6.29955e-10
3.86207e-09
6.50583e-09
8.92804e-12
-1.03768e-08
-3.02771e-10
1.57958e-10
-7.76052e-09
-1.43109e-09
1.30793e-09
-2.21438e-09
2.33754e-09
-8.70631e-09
4.89172e-09
-1.46254e-09
5.27713e-09
4.99962e-09
4.41811e-09
-2.20526e-09
-7.21247e-09
7.88399e-09
3.37554e-10
-9.2716e-10
-7.29439e-09
-3.59915e-09
-8.00114e-09
5.15109e-10
1.10852e-08
3.09031e-10
-1.22963e-10
6.07373e-11
-5.83928e-09
-2.98217e-09
4.80786e-09
4.01358e-09
-1.76109e-09
-9.66255e-09
6.64012e-09
4.78352e-09
2.25922e-09
1.67991e-10
8.49339e-09
-8.39001e-09
-1.21676e-10
1.82978e-11
7.33422e-09
-1.52025e-09
-5.37337e-09
-4.40597e-10
1.39763e-09
-1.03158e-08
-1.14136e-09
1.00595e-08
-7.37226e-09
-5.29576e-10
8.09595e-09
5.25546e-10
-1.53347e-10
7.61355e-11
6.73742e-09
-1.02864e-10
-6.68168e-09
4.71284e-11
8.61857e-09
2.27565e-10
-8.18339e-11
-7.20236e-09
-6.29661e-10
7.49242e-09
3.39602e-10
1.42063e-10
-8.68546e-11
8.13193e-09
-8.18714e-09
2.5162e-09
8.49934e-09
-1.26102e-08
-7.79882e-09
4.03135e-09
-2.16466e-09
5.93213e-09
8.72068e-09
-8.44598e-11
5.88303e-11
-8.69505e-09
-9.43424e-09
-1.74219e-09
2.13887e-09
6.91421e-09
1.08052e-10
7.77716e-09
-7.68912e-09
-1.96085e-10
7.83589e-09
-1.07875e-10
1.55975e-10
-5.52231e-09
6.24186e-09
-5.42973e-09
4.71018e-09
-2.22769e-09
9.45338e-09
1.08372e-09
7.0208e-09
-6.90964e-09
-1.88193e-10
7.70317e-11
2.55061e-09
7.8996e-09
-7.28143e-09
-3.16878e-09
-4.46785e-09
-1.39399e-09
1.53411e-09
4.32772e-09
-7.80556e-09
7.77795e-09
7.90355e-11
-5.14315e-11
-1.03544e-08
-1.52202e-09
1.05036e-08
6.64689e-11
8.22773e-09
-8.16776e-09
-1.43683e-09
1.37685e-09
8.18747e-11
-1.74138e-10
4.04356e-09
-4.74669e-09
-1.69926e-09
2.40239e-09
1.08767e-10
-2.5167e-10
-1.41205e-08
1.5471e-08
1.88023e-10
-1.22998e-09
1.26243e-09
-6.87346e-09
1.47243e-09
7.81021e-09
-7.84159e-09
-6.70143e-09
2.07688e-09
-1.37687e-08
7.42225e-10
-1.4891e-09
1.45156e-08
8.49914e-09
-3.01696e-09
-9.93e-09
-7.2069e-09
1.46345e-10
-4.48904e-10
7.50946e-09
5.56109e-10
-7.58055e-10
8.41027e-09
-8.20832e-09
-1.67854e-09
-7.92646e-09
7.82125e-10
8.82288e-09
6.4302e-11
-1.33046e-10
-5.90248e-09
4.52346e-09
-9.5575e-09
-1.32737e-08
-2.75104e-09
7.2678e-09
-5.47737e-09
2.41777e-09
-5.32898e-09
8.38857e-09
-2.42852e-09
-2.02975e-09
3.02718e-09
7.89284e-09
-3.50888e-09
9.30643e-11
7.86145e-10
2.62967e-09
9.30465e-09
-1.97388e-09
7.81693e-10
-8.11246e-09
-8.55395e-09
8.23186e-09
4.77227e-10
7.56925e-09
-7.67982e-09
1.5834e-10
-4.77657e-11
5.23947e-09
-5.57042e-09
6.64453e-09
-6.31358e-09
-6.45234e-09
4.78066e-09
-3.65739e-09
5.32908e-09
1.11549e-09
7.35225e-11
-1.64101e-09
3.54587e-09
2.1387e-09
-1.15368e-08
8.15324e-09
1.62246e-09
-1.89977e-09
-1.11997e-08
3.90443e-09
-1.8831e-09
-3.5385e-09
-2.53326e-09
-8.56541e-09
1.05569e-08
5.41742e-10
-9.90446e-10
-8.74726e-09
1.60962e-09
8.12809e-09
-1.0629e-10
2.75316e-09
-1.03281e-08
1.63603e-09
-1.95624e-09
1.06484e-08
-7.52232e-10
4.74061e-10
-7.30311e-09
-3.14264e-09
1.0987e-08
1.47531e-09
1.82771e-09
7.46506e-09
-8.22077e-09
9.02269e-09
4.4007e-09
-1.26213e-08
-8.4219e-09
2.05865e-09
9.58513e-09
-5.28675e-09
4.67904e-09
-5.43646e-09
6.04417e-09
6.65849e-09
-6.25781e-09
-9.57648e-09
-3.08328e-09
8.77775e-09
6.49064e-09
-2.92288e-10
-6.2776e-09
7.92415e-11
7.54034e-09
-6.79956e-09
1.44792e-09
-2.1887e-09
-1.35028e-09
-1.05258e-08
8.58041e-09
4.0298e-10
-7.89969e-09
-1.36651e-10
5.16011e-11
-1.05393e-10
3.14133e-09
1.3774e-08
-1.69153e-08
-3.51526e-09
-4.26029e-09
1.7701e-09
6.00545e-09
-7.48993e-09
6.90417e-11
-4.26753e-12
7.42516e-09
-5.61834e-11
6.29407e-11
-7.40781e-09
-9.97947e-09
-3.52923e-09
1.03661e-08
7.74234e-09
-6.95816e-09
-1.6878e-09
9.03618e-10
-8.05944e-09
1.27256e-09
8.40776e-09
-9.33714e-09
-1.55267e-10
8.92344e-09
5.68968e-10
3.00007e-09
-1.75239e-09
1.85496e-09
-3.10264e-09
2.07913e-09
-9.9394e-09
-1.22383e-09
9.0841e-09
6.88515e-09
-1.8934e-10
4.16123e-11
-9.22943e-10
1.45699e-09
3.05094e-09
-1.01559e-08
2.75001e-09
7.54489e-09
4.79756e-11
-9.28895e-11
-9.17372e-11
1.28426e-09
1.15729e-08
-1.85107e-09
-1.1006e-08
-7.56098e-09
9.62947e-09
8.16271e-09
-1.02312e-08
-4.08763e-09
-4.07433e-09
1.2885e-09
2.45791e-10
7.28893e-09
7.6833e-09
-4.9965e-11
1.06693e-09
-1.01696e-09
-5.32832e-09
4.37503e-09
-4.46745e-09
1.90094e-10
9.07578e-09
-5.45193e-10
-6.11105e-10
5.78802e-10
-1.03727e-09
1.06958e-09
-1.45823e-09
1.00527e-09
-9.55025e-09
1.00032e-08
-4.90643e-09
7.59356e-09
3.77057e-09
-6.4577e-09
-2.91092e-11
-3.62144e-10
4.89236e-11
3.4233e-10
8.68446e-11
-1.71019e-09
1.98077e-09
-3.57431e-10
-2.07864e-09
9.47814e-09
-5.89719e-09
-1.50231e-09
-3.68091e-09
4.31124e-09
4.95648e-09
-5.58681e-09
4.36957e-09
-6.26005e-09
-3.667e-09
5.55749e-09
3.94446e-09
1.03733e-08
-6.77744e-09
-9.19836e-09
1.11012e-09
-1.90448e-12
3.22406e-11
-4.66543e-09
4.83245e-09
-3.91401e-09
3.747e-09
-7.14159e-09
-4.83307e-09
-1.1454e-08
-9.94825e-09
8.55398e-09
7.46699e-09
-6.07272e-09
-1.16059e-09
1.08954e-09
-5.40057e-10
-1.05432e-08
-2.06258e-09
-3.83503e-10
-7.7079e-09
7.72205e-09
1.04832e-10
-4.89328e-11
1.96609e-09
8.08372e-09
-1.57372e-09
8.76629e-09
2.61153e-10
-1.06262e-08
1.01438e-08
-2.12352e-09
-5.61128e-09
6.988e-09
-8.66063e-09
7.28391e-09
3.20757e-09
-6.24782e-09
-3.41891e-09
6.45915e-09
-3.74939e-09
-4.29896e-09
4.50957e-09
-5.24761e-09
7.96143e-10
-1.47631e-09
1.29493e-09
2.68229e-10
-7.70592e-09
7.66717e-10
7.27132e-09
-2.7136e-10
-1.45313e-08
9.35238e-09
5.45029e-09
-1.19573e-08
1.03576e-08
2.88402e-09
4.58784e-09
-1.39169e-08
1.18453e-08
-2.03693e-09
3.63083e-10
9.05068e-09
3.89004e-09
1.7255e-09
-2.12506e-09
-8.02192e-09
7.7636e-09
5.52539e-09
-5.26707e-09
1.74817e-09
-1.87008e-09
3.12199e-09
-2.2528e-09
5.50189e-09
-1.25287e-08
-4.44792e-09
-1.13208e-08
-6.93926e-10
4.908e-09
7.94478e-09
-8.09848e-09
1.22334e-09
-8.34649e-10
1.90107e-10
9.95184e-10
-1.19707e-08
-4.42496e-09
1.54005e-08
6.15973e-09
-5.54596e-09
3.07548e-09
-3.68925e-09
-7.56563e-09
1.26799e-09
-9.71509e-10
7.26915e-09
-4.57459e-10
1.01538e-09
3.8315e-10
-9.41069e-10
-7.87819e-10
-6.94695e-09
7.49192e-09
2.42854e-10
7.09699e-09
-7.78183e-09
-4.79253e-09
4.36941e-10
-5.93275e-10
-1.46071e-09
1.61705e-09
-1.17314e-08
8.11942e-09
-4.40993e-09
4.95348e-09
1.30376e-09
5.78316e-09
-1.31651e-09
-7.53372e-09
1.2846e-09
1.29721e-08
3.75638e-09
6.24566e-09
4.61051e-09
-6.38056e-09
-4.47561e-09
1.03612e-09
-4.08537e-10
5.99069e-10
-1.22666e-09
-5.70296e-10
-5.14934e-09
-1.97171e-09
7.69134e-09
-7.34212e-10
6.83241e-10
3.35996e-10
-2.85024e-10
3.19027e-09
-8.6092e-11
1.58657e-10
3.0876e-10
-3.81325e-10
4.94969e-10
-7.70908e-09
-1.10547e-10
7.32466e-09
1.41529e-10
7.64922e-09
-8.79789e-09
1.00715e-09
-1.98999e-10
2.22745e-09
5.65485e-09
-8.33498e-09
1.38081e-08
9.80851e-09
-1.01406e-08
-2.41899e-09
-3.94064e-09
4.52881e-09
-1.02507e-08
-7.94228e-10
9.27405e-10
-5.90636e-10
-3.56107e-09
-7.57726e-09
2.56548e-09
8.57285e-09
6.38024e-09
-6.25081e-09
6.52906e-09
-1.25719e-09
1.13826e-10
-2.15241e-11
7.03053e-09
-9.20665e-09
-5.19613e-09
-2.44257e-09
5.95718e-10
-1.22495e-08
1.2649e-08
4.29851e-10
-8.63227e-10
-8.2381e-10
1.45243e-09
-1.72387e-09
2.0196e-09
7.09155e-09
-4.87239e-09
-2.78945e-09
-6.57604e-09
4.08508e-09
-3.76684e-09
-9.41416e-09
8.83339e-09
-6.68374e-10
6.40035e-09
-6.17047e-09
-1.43167e-09
1.20178e-09
-9.52771e-09
-2.04987e-09
3.02741e-09
8.55018e-09
7.75834e-09
-5.78458e-09
-4.0524e-09
7.66572e-09
6.7846e-09
-7.84403e-09
-6.60629e-09
-8.02607e-10
8.54063e-10
3.78395e-10
8.10445e-09
-8.19159e-09
-2.69065e-10
3.56205e-10
9.16379e-09
-6.04312e-09
1.10115e-08
-6.25117e-09
-1.09918e-08
6.23151e-09
9.51626e-09
-6.2866e-09
8.37476e-09
-1.7922e-09
-7.75374e-09
2.82149e-10
6.67255e-09
-2.15929e-10
3.40179e-11
1.28396e-08
-6.40766e-09
5.16707e-09
-1.1599e-08
-4.3568e-10
6.87748e-10
-3.35432e-09
4.9284e-10
-1.20053e-09
4.06201e-09
8.40657e-09
9.87853e-10
-8.08665e-10
-2.1751e-10
-8.29192e-10
3.1249e-10
-3.10435e-09
9.26778e-10
-2.13227e-09
2.32144e-09
-1.18663e-09
2.74487e-09
1.11899e-08
2.43655e-09
-8.62501e-09
-5.00141e-09
-1.73641e-09
1.54366e-10
9.81391e-09
-1.97928e-09
1.52976e-09
-1.23217e-08
1.13876e-08
7.42618e-09
1.69409e-09
-7.26665e-09
-1.85362e-09
-1.35087e-09
5.53815e-09
-8.09828e-11
-4.55363e-10
1.97147e-10
4.2976e-09
-4.04253e-09
7.50854e-09
7.93374e-09
-1.98146e-09
1.13927e-09
-1.36629e-09
1.20385e-09
-2.36787e-09
2.53031e-09
-3.32563e-09
-1.21518e-08
-8.12154e-09
2.01964e-11
1.70637e-12
-6.8687e-09
-1.34504e-08
1.69935e-08
-1.08285e-08
7.0323e-09
-6.15203e-09
-9.61461e-09
4.353e-09
6.66207e-09
-1.40046e-09
9.39221e-09
-8.20895e-09
3.59739e-09
-1.7923e-10
9.37199e-09
-1.14783e-08
2.28551e-09
6.31198e-09
-6.25546e-09
-5.65218e-11
-7.22956e-09
-6.12034e-10
-7.92342e-09
2.83335e-09
4.93617e-09
-5.03904e-09
-4.41094e-09
4.51381e-09
2.63871e-10
-4.73407e-10
-7.24802e-09
2.33819e-10
2.1598e-10
7.65465e-09
6.55292e-09
-7.44277e-09
-6.90898e-09
4.64996e-09
-4.86189e-09
6.93022e-09
-6.71829e-09
2.32008e-09
9.80312e-09
-3.17237e-09
-8.95083e-09
8.49048e-09
-8.97724e-09
-1.74093e-09
7.93378e-09
-7.87628e-09
9.91133e-10
-1.04864e-09
-1.29723e-08
2.13341e-10
7.15053e-09
-7.16183e-09
2.31719e-09
6.6359e-09
-8.87176e-09
-8.13291e-11
8.08736e-09
4.26228e-09
-7.39616e-09
-3.78065e-10
-8.4449e-09
1.07891e-08
1.69528e-09
8.34737e-09
-1.00426e-08
-1.29622e-09
-6.75709e-09
3.03575e-09
5.01756e-09
-7.86841e-10
-8.47565e-09
9.75283e-09
-1.17529e-09
1.58471e-09
2.25097e-10
-6.34518e-10
-2.4564e-10
8.51381e-09
6.88473e-11
-1.02907e-10
5.06496e-10
-4.72436e-10
8.69927e-09
-7.13951e-09
3.34824e-09
6.91758e-09
-1.23847e-09
1.02826e-09
-6.70737e-09
-1.4882e-09
-7.03999e-09
-1.09613e-08
1.44489e-09
1.11044e-08
-5.80306e-09
-1.01349e-08
-8.9169e-09
4.65076e-09
-4.1017e-09
-2.42022e-10
7.75292e-09
-7.82262e-09
3.11723e-10
6.45324e-09
-5.57715e-09
1.03138e-08
4.30221e-10
-5.95327e-10
6.93254e-10
-5.28148e-10
5.94419e-09
7.92182e-09
2.86147e-10
3.02169e-10
-8.51014e-09
8.5011e-10
8.22907e-09
-2.45791e-10
-1.62313e-08
-3.11419e-09
1.15286e-08
7.81689e-09
4.6124e-10
-1.17855e-09
-5.16543e-09
9.13364e-09
-9.82514e-10
8.02062e-09
7.01254e-10
1.57729e-09
-1.38814e-09
2.45677e-10
-4.34831e-10
-7.48039e-09
-1.88147e-09
5.80079e-09
-8.99661e-09
-3.29345e-09
7.62462e-09
1.107e-09
-4.14815e-11
-7.52852e-09
-9.72149e-10
7.30897e-09
1.1917e-09
9.37217e-09
-1.21815e-09
4.26386e-10
1.69064e-09
8.92614e-09
-1.12852e-08
7.59706e-10
5.80963e-09
2.88404e-09
4.16038e-09
-3.62501e-09
4.11458e-09
1.15831e-09
-8.07317e-09
-7.88327e-09
9.82141e-10
-6.58553e-10
7.14767e-10
3.74007e-10
-1.5787e-09
-6.42304e-09
1.04383e-08
-1.41257e-09
1.24073e-09
1.62427e-09
-8.32235e-09
9.00787e-09
-2.64947e-09
1.25563e-08
8.0671e-09
3.92833e-09
-7.69783e-09
1.07674e-10
7.50696e-09
-4.53842e-11
4.60109e-09
6.09175e-09
-7.22519e-09
-3.46765e-09
-8.09835e-09
8.26899e-10
-3.73299e-10
7.64475e-09
4.35389e-09
7.95241e-09
-1.02156e-08
-2.09069e-09
-1.64462e-09
1.95382e-09
-1.15904e-09
6.91055e-10
7.88487e-09
-3.59668e-09
-8.02312e-09
-6.67259e-10
9.39103e-10
-7.89821e-09
7.62636e-09
1.08574e-08
-7.26697e-09
-7.50327e-09
6.77321e-09
7.99702e-09
9.79833e-10
-1.0566e-09
-1.09434e-09
1.17111e-09
7.23237e-09
2.98097e-10
-1.07807e-09
-2.57434e-09
-8.3243e-09
-5.02399e-09
6.57735e-09
-2.1496e-09
-6.24792e-09
1.45057e-09
-8.23951e-09
-1.77989e-09
1.99763e-09
1.94822e-10
-4.12554e-10
5.88794e-09
-6.39036e-09
-4.35946e-09
1.05715e-09
8.9858e-10
-1.55477e-08
1.3592e-08
5.85021e-09
-5.95308e-09
8.65598e-09
-8.55311e-09
8.24741e-09
1.87816e-09
-3.17058e-09
-3.71952e-09
2.87011e-09
4.01999e-09
-7.23189e-09
2.33126e-12
-5.2634e-10
-2.33168e-11
3.10706e-10
2.38951e-10
-4.45028e-09
-4.79815e-09
7.66973e-09
-4.97736e-09
-8.57169e-09
6.5799e-09
6.96915e-09
1.83912e-09
7.63117e-09
-7.81279e-09
-1.65749e-09
-3.55809e-09
7.77656e-09
-1.07868e-08
1.37385e-08
-1.07283e-08
7.73374e-09
-9.41494e-10
-2.6779e-09
3.19819e-09
-7.80133e-09
7.28105e-09
6.94029e-09
-6.98484e-09
-2.06589e-10
6.43333e-10
-6.40066e-10
2.03322e-10
7.80692e-09
-3.27606e-12
-5.21937e-09
8.14947e-09
7.05467e-09
-7.65699e-09
-3.33696e-09
4.64105e-09
-2.13244e-09
7.66237e-09
-1.0171e-08
8.41129e-09
1.71751e-10
-3.74354e-10
-2.36387e-09
5.76902e-09
6.22431e-09
-7.95963e-09
2.59352e-09
-1.72717e-09
7.09327e-09
-4.17152e-09
-5.63476e-09
-8.87285e-10
6.52204e-09
-6.8577e-09
-2.40341e-09
4.28375e-09
-6.70004e-09
-9.6319e-09
7.67884e-09
-6.1278e-10
4.91403e-10
7.03895e-09
1.27673e-09
-5.05903e-10
4.52513e-10
1.58017e-08
-1.00984e-08
-5.97472e-09
5.28225e-09
3.97987e-09
-4.95831e-10
9.69452e-10
6.07938e-09
-9.25601e-09
6.35397e-09
-3.17733e-09
8.98584e-11
-5.34347e-11
-8.15796e-09
8.09537e-10
-6.78273e-10
-5.23114e-09
3.68439e-09
5.26238e-09
-3.71563e-09
3.90833e-09
-4.30684e-09
-9.21509e-09
9.6136e-09
2.96435e-10
-3.46617e-10
2.81963e-10
-2.31781e-10
1.05713e-08
1.23524e-08
-1.40317e-08
-8.89205e-09
2.02469e-10
7.86041e-11
-1.75632e-10
-1.05441e-10
-5.5721e-09
4.52004e-09
-1.79119e-08
1.60122e-08
5.79507e-09
-4.7521e-09
-4.09458e-10
-6.33512e-10
-2.12828e-10
-6.72382e-10
6.677e-10
4.03065e-09
-1.17173e-09
6.94787e-09
-9.80679e-09
-2.46701e-09
1.05377e-08
-7.90584e-09
-1.64834e-10
2.34018e-09
-9.77196e-09
-8.79952e-09
-2.22058e-09
2.47802e-09
2.33414e-10
-4.9086e-10
-8.30083e-09
6.90604e-09
7.69583e-09
-8.62685e-10
4.42763e-10
-7.2759e-09
5.44934e-09
4.24853e-09
-6.15058e-09
-3.54728e-09
-5.4769e-10
9.26003e-10
7.85535e-11
-9.98447e-10
-4.68243e-10
8.55383e-09
-5.0743e-09
2.97372e-09
-6.43937e-09
8.60838e-09
5.788e-09
-7.95702e-09
-5.51129e-09
-8.45572e-09
-3.61014e-09
3.11205e-09
3.29025e-09
-2.79216e-09
-5.35541e-10
-1.50233e-10
-1.43418e-10
-1.01251e-08
-2.14435e-09
-8.61845e-09
-1.70957e-09
7.13413e-10
7.15916e-09
-2.5087e-09
-8.65532e-10
-3.56553e-09
1.47389e-08
-1.03079e-08
-7.78973e-09
8.86967e-09
-3.85492e-09
1.0787e-08
8.30498e-10
-9.0855e-10
1.05789e-09
2.0281e-09
8.51831e-09
-3.73687e-10
-1.01727e-08
8.98533e-09
-1.06684e-09
9.71125e-09
-2.53538e-09
-7.78865e-09
-4.42087e-10
1.27125e-10
1.3556e-08
5.12093e-09
-1.40891e-08
4.64372e-10
-4.02855e-10
2.34918e-10
7.82866e-09
-9.46779e-09
8.31781e-09
6.63721e-09
-5.48722e-09
-6.1698e-10
5.01927e-10
-1.06024e-09
7.63286e-09
-1.046e-09
5.58082e-10
-7.14495e-09
4.91575e-09
-1.56581e-09
5.05663e-09
-4.34853e-10
5.63836e-09
-1.53019e-08
-1.12923e-09
8.30699e-09
-3.18288e-09
2.85242e-09
-3.27968e-09
-2.96374e-09
-7.70629e-09
1.97679e-09
8.69325e-09
-3.31309e-09
2.30449e-09
-6.30232e-10
6.95975e-10
-2.72332e-10
3.88431e-09
-6.86759e-09
7.15152e-09
7.60401e-09
-7.88794e-09
-9.84371e-09
1.07299e-08
6.14607e-09
6.59043e-09
-6.57024e-09
1.54067e-08
-1.37051e-08
-1.7016e-09
-2.00864e-09
1.14738e-09
2.16919e-09
-1.04792e-09
1.79647e-09
-4.04532e-09
3.29677e-09
4.18752e-09
-1.09432e-08
8.28541e-09
-6.66693e-09
-4.77136e-09
-7.32755e-09
2.22951e-10
8.0101e-09
-7.45485e-10
-7.48756e-09
2.79305e-09
-2.43469e-09
-2.16663e-09
1.80828e-09
-4.12265e-09
1.04015e-08
-8.05329e-10
4.39549e-10
-2.92773e-10
-8.49269e-09
5.77814e-09
3.60514e-09
-8.9059e-10
3.44649e-09
-5.48259e-09
-3.50986e-09
1.95222e-09
-8.45396e-09
9.03809e-09
4.26794e-09
-5.23893e-09
4.52285e-09
6.74157e-09
-4.10526e-09
-8.28365e-09
8.4613e-09
8.69201e-09
7.50511e-09
-3.74694e-09
3.73905e-09
3.89044e-11
1.12092e-10
-2.72725e-09
4.58459e-09
-5.60672e-09
-2.077e-09
1.30896e-10
6.10648e-09
3.60518e-09
-9.14055e-10
2.13184e-10
-4.36136e-10
-7.2973e-09
-4.55062e-10
-7.01888e-09
-2.89377e-09
2.43466e-09
-1.29327e-09
8.32064e-10
7.27707e-09
-6.79687e-10
2.79483e-09
1.17887e-09
-9.23648e-10
-6.44458e-10
2.01462e-09
2.39808e-09
-3.60339e-09
1.81488e-09
4.90056e-09
9.80398e-09
-9.88067e-09
-8.20697e-09
9.87452e-09
-7.68577e-09
-9.66049e-11
5.27368e-09
-1.22686e-08
1.26008e-08
-3.32201e-10
5.43913e-09
-1.32816e-09
6.22717e-09
-5.62114e-09
4.8331e-09
6.36221e-09
-4.51296e-09
-6.30607e-09
6.65921e-09
-3.36385e-09
3.72858e-09
-3.67244e-09
5.98954e-09
-6.29654e-09
3.07001e-10
-1.384e-10
5.68904e-10
-6.92111e-09
-2.25702e-10
-1.20429e-08
-6.28335e-09
5.04749e-09
-1.41893e-09
2.65479e-09
2.58019e-09
4.09801e-09
-3.38796e-09
6.0564e-09
-7.88899e-09
-8.71061e-09
-2.19329e-10
1.02307e-09
-1.83678e-09
-1.19493e-09
6.55835e-09
-1.02801e-08
6.89207e-09
-2.83386e-09
-8.65011e-09
3.7453e-09
-4.94379e-09
-3.9741e-09
5.17259e-09
3.56954e-09
-5.95697e-09
5.98258e-09
-3.59515e-09
7.44941e-09
-1.41969e-09
2.95561e-09
2.46973e-09
5.93416e-09
-8.26237e-09
-8.26374e-09
9.40951e-09
-1.39141e-09
-1.21599e-10
1.05577e-09
-3.60761e-09
2.67343e-09
7.18997e-09
-3.09333e-10
-8.37158e-09
4.10703e-09
8.45207e-09
-4.77159e-09
-8.63173e-10
1.17591e-09
-7.30638e-09
7.39846e-09
7.08269e-09
-5.23684e-09
-5.79649e-09
2.62405e-09
1.52934e-10
-2.00501e-10
4.75669e-11
9.65404e-09
-6.74927e-09
6.89921e-09
6.81469e-10
2.90535e-09
-1.57219e-09
1.55285e-08
2.59397e-09
-1.19891e-08
-6.13331e-09
1.02649e-08
8.1694e-09
6.28909e-09
-6.14068e-09
9.94181e-10
-1.34611e-09
-1.23879e-08
-1.98426e-09
1.63609e-09
-1.3757e-09
-8.1476e-09
5.15885e-10
-1.65146e-10
7.79686e-09
-7.22704e-09
6.80141e-09
6.03949e-09
-3.37116e-09
-1.36115e-08
1.01953e-08
-7.88115e-09
8.25721e-09
-2.50517e-09
-7.04988e-09
-7.08569e-10
4.7947e-09
2.85911e-09
-3.60721e-09
2.54458e-09
-3.4727e-10
-2.70778e-10
2.7143e-10
4.76186e-09
-3.75221e-09
6.93513e-09
2.25822e-09
-1.08844e-08
3.72631e-11
8.58892e-09
1.05267e-10
3.49337e-09
2.77058e-10
-3.26492e-09
-5.05516e-10
6.20272e-11