/*--------------------------------*- C++ -*----------------------------------*\
  =========                 |
  \\      /  F ield         | OpenFOAM: The Open Source CFD Toolbox
   \\    /   O peration     | Website:  https://openfoam.org
    \\  /    A nd           | Version:  8
     \\/     M anipulation  |
\*---------------------------------------------------------------------------*/
FoamFile
{
    version     2.0;
    format      ascii;
    class       surfaceScalarField;
    location    "2";
    object      phi;
}
// * * * * * * * * * * * * * * * * * * * * * * * * * * * * * * * * * * * * * //

dimensions      [0 3 -1 0 0 0 0];

internalField   nonuniform List<scalar> 
11624
(
-7.68474e-09
7.9695e-09
1.3041e-13
-2.84892e-10
-7.04771e-09
-1.92716e-10
-4.44309e-10
-2.119e-09
1.51475e-10
1.86753e-09
9.99886e-11
8.58173e-09
-7.52721e-09
1.95763e-09
-3.01214e-09
-5.91194e-09
5.62846e-09
-9.11424e-11
3.74622e-10
-5.43591e-09
4.0171e-09
1.11228e-09
3.06539e-10
-1.30327e-09
-3.20072e-10
-2.96408e-09
4.58741e-09
-1.07178e-09
2.47436e-09
3.04946e-09
-4.45205e-09
2.95111e-09
-2.29553e-09
-3.28763e-09
2.63206e-09
-3.19041e-09
-1.60889e-09
2.54946e-09
2.24984e-09
4.80944e-09
-4.60859e-09
2.8392e-11
-2.29239e-10
1.93674e-09
4.69566e-09
-2.0356e-09
-4.5968e-09
-2.74378e-09
-4.20585e-09
2.31062e-09
4.63902e-09
-3.85171e-09
4.89977e-09
-1.04325e-09
-4.80676e-12
-1.61703e-09
4.31874e-09
-3.83282e-09
1.13111e-09
-3.88816e-09
2.7068e-09
-2.66641e-09
3.84778e-09
4.11097e-09
-4.08673e-09
8.35507e-12
-3.25993e-11
-3.53198e-09
4.52638e-09
-1.0459e-09
5.15029e-11
-2.74889e-09
3.77798e-09
-4.41252e-09
3.38343e-09
-3.17e-09
-1.56392e-09
1.92168e-09
2.81224e-09
3.29648e-09
-3.71812e-09
3.24695e-10
9.69479e-11
-3.57933e-09
4.39245e-09
-4.04846e-10
-4.08272e-10
4.99369e-09
-5.11337e-09
1.39567e-10
-1.98802e-11
6.06084e-09
-1.98461e-09
1.17493e-09
-5.25116e-09
4.76306e-09
-4.47003e-09
-2.5693e-10
-3.61028e-11
-4.74614e-09
1.34372e-09
4.21954e-09
-8.17121e-10
2.38771e-09
-3.87549e-09
-3.37608e-09
4.86387e-09
2.49532e-09
-2.33593e-09
-3.10816e-09
2.94877e-09
-2.74615e-09
3.40878e-09
-4.18645e-09
3.52381e-09
-5.69675e-09
4.44575e-09
-3.95469e-09
5.2057e-09
4.96983e-09
-3.1223e-10
1.05469e-10
4.89272e-09
-1.69108e-10
2.70077e-10
-5.06504e-09
4.72825e-09
4.49528e-10
-1.12742e-10
-5.34419e-09
4.47459e-09
8.86819e-10
-1.72229e-11
5.09635e-09
-1.82779e-10
5.62527e-11
-3.17341e-10
6.17409e-11
-4.7637e-09
5.51532e-10
-2.57863e-10
-6.19436e-10
4.73496e-09
-5.32157e-09
1.20605e-09
-3.64046e-09
3.28439e-09
-5.66444e-10
2.26881e-10
-3.86963e-09
1.74164e-09
-1.20885e-09
3.33684e-09
2.57656e-09
-4.09552e-09
-2.45842e-09
3.97737e-09
1.8206e-11
1.88881e-11
7.9324e-09
1.96125e-10
-4.74444e-09
-5.6506e-10
5.33846e-09
-3.98764e-10
-6.06989e-09
1.1302e-09
2.02265e-09
-1.78973e-09
-2.89016e-09
2.65723e-09
-9.07068e-09
-2.09206e-10
2.23217e-09
3.15526e-09
9.02643e-10
-1.68618e-09
-2.37172e-09
8.40533e-09
-6.65338e-09
4.82667e-09
-6.57862e-09
4.23163e-09
-3.61808e-09
2.97843e-09
-3.59197e-09
-1.8726e-09
-5.32618e-10
2.86217e-10
3.90062e-09
-4.1446e-09
-4.98215e-09
5.22613e-09
1.04823e-09
-1.01853e-09
3.53022e-09
-3.55993e-09
-3.57286e-09
-1.05614e-09
4.59185e-09
3.7147e-11
3.16255e-09
4.94705e-09
-5.28285e-09
-2.82675e-09
6.65951e-10
-4.55049e-10
2.58286e-10
-4.69188e-10
1.85436e-09
-7.87583e-10
5.04141e-09
-6.10819e-09
-2.19342e-09
2.51001e-09
8.26514e-09
-5.24869e-09
1.54991e-09
-1.9186e-10
3.89064e-09
3.3446e-09
-3.64652e-09
8.01464e-10
-4.99542e-10
-3.05446e-09
3.86747e-09
2.2536e-09
-3.0666e-09
4.56685e-09
-4.04763e-09
-2.73081e-09
2.21159e-09
-6.49534e-10
1.45963e-09
-4.96292e-09
4.15283e-09
-7.05772e-09
5.94733e-09
-3.1355e-09
4.2459e-09
1.45399e-09
-6.7941e-10
-3.71683e-09
2.94226e-09
-2.24028e-10
2.44008e-10
-2.40362e-10
2.20382e-10
-1.70714e-09
4.2499e-09
-3.61453e-09
2.35939e-09
-3.85537e-09
3.42509e-09
-1.92911e-09
-4.53079e-09
4.4433e-11
3.86693e-09
2.20543e-10
2.32139e-10
-2.27897e-10
-2.24785e-10
2.96028e-09
7.11072e-09
-1.05897e-08
5.18658e-10
2.80758e-09
-2.85721e-09
-3.20045e-09
3.25008e-09
1.56623e-09
4.54488e-09
-1.2054e-09
-4.9057e-09
3.54667e-09
-3.34554e-09
-3.4158e-09
3.21468e-09
-1.03501e-09
7.69768e-11
1.49309e-09
-5.3506e-10
-4.61804e-09
-2.62907e-09
3.1306e-09
4.11651e-09
-2.774e-09
-3.19498e-09
3.14456e-09
2.82442e-09
-4.76836e-09
4.59171e-09
-7.07799e-10
8.84453e-10
-5.06552e-09
-7.73312e-09
5.27143e-09
-2.91522e-09
2.80069e-09
3.30916e-09
-3.19462e-09
-1.44224e-09
3.20561e-09
-4.14974e-09
2.38637e-09
-2.54538e-09
5.07232e-10
-5.405e-09
-1.92013e-09
3.63987e-10
-4.19946e-09
-1.87509e-09
3.53795e-10
-4.11233e-09
-1.83149e-09
3.44414e-10
-4.0239e-09
-2.20642e-09
4.27992e-10
-4.76292e-09
4.99742e-09
-5.13526e-09
4.15917e-10
-2.78073e-10
-2.73138e-09
5.52357e-10
-5.97419e-09
-1.91414e-09
3.64458e-10
-4.36226e-09
-2.01879e-09
3.8432e-10
-4.52604e-09
-2.29359e-09
4.45968e-10
-5.07637e-09
-1.74286e-09
3.23833e-10
-3.96897e-09
-2.26036e-10
2.62865e-10
1.96799e-10
-2.33629e-10
5.20267e-09
5.61836e-09
-8.18188e-09
-2.63915e-09
-4.035e-09
2.64366e-09
3.75073e-09
-5.69688e-09
-5.09678e-09
4.28979e-09
6.50386e-09
-2.33921e-10
2.4491e-10
-2.41067e-10
2.30078e-10
9.50173e-10
-9.84147e-10
4.20316e-09
-4.16919e-09
4.6932e-09
6.45774e-09
-6.90201e-09
-4.24893e-09
6.28397e-09
7.77139e-09
-9.76024e-09
-4.29511e-09
-1.02041e-09
3.51773e-10
-4.15864e-09
4.82728e-09
2.41173e-09
2.73322e-09
-2.46072e-09
-2.68423e-09
-4.26411e-09
5.92531e-11
3.97739e-09
2.27462e-10
-3.67876e-09
2.25009e-09
-2.98429e-09
4.41296e-09
-3.45915e-09
-3.02501e-09
2.8054e-09
-2.47646e-09
1.90356e-09
4.16737e-09
-3.59447e-09
-2.33228e-09
3.0171e-09
-2.59315e-09
1.90834e-09
5.65968e-11
3.66763e-09
3.86748e-10
2.35422e-09
3.18194e-09
-4.67771e-09
-8.58443e-10
-3.91953e-10
1.46761e-09
-1.57826e-09
5.02596e-10
3.83794e-09
5.05218e-10
-3.62156e-09
-7.21592e-10
-1.26424e-10
-4.09925e-09
-5.38027e-10
3.26527e-09
-3.7105e-09
3.72706e-09
-3.28183e-09
-2.71272e-09
4.92921e-10
4.67595e-09
-2.45615e-09
2.40098e-09
8.57794e-09
-1.4488e-09
-9.53012e-09
3.3878e-09
7.91477e-09
-8.9016e-09
5.48765e-09
7.54993e-10
-1.24523e-09
-2.27507e-10
4.32089e-10
8.37336e-09
-3.38094e-09
-3.01367e-09
2.51911e-09
-1.09759e-09
6.8218e-10
1.35715e-09
-9.41738e-10
4.71763e-10
-8.33994e-11
4.54068e-09
-4.92904e-09
-4.269e-10
6.81577e-10
-2.21039e-09
1.95571e-09
1.40148e-09
-3.81916e-09
3.69439e-09
-1.27671e-09
1.4249e-09
-1.21405e-09
2.74025e-09
2.83075e-09
-3.21533e-09
3.39332e-09
-3.00874e-09
4.44238e-09
9.11189e-09
-2.80049e-09
-1.07538e-08
-2.01424e-09
-2.45313e-09
3.00286e-09
1.46452e-09
1.10801e-09
4.19301e-09
-2.84093e-09
-2.4601e-09
1.16185e-10
-2.03082e-10
-1.87036e-09
1.95726e-09
2.97861e-09
3.45842e-09
-3.86047e-09
4.32381e-10
-8.24396e-10
4.92112e-09
-4.5291e-09
1.73361e-10
3.01348e-09
3.84855e-10
-3.5717e-09
2.95742e-09
-2.64665e-09
-2.64305e-09
-6.05492e-09
-5.6978e-09
6.05585e-09
9.17353e-11
1.54055e-10
-5.22915e-11
-1.93498e-10
7.21504e-09
-1.31181e-09
-4.85125e-10
-5.41811e-09
-5.12906e-09
-1.02521e-09
6.38453e-10
5.51582e-09
3.84534e-09
-4.69258e-09
-3.70405e-09
4.55129e-09
2.17193e-09
-4.0381e-09
-2.90219e-09
3.75837e-09
-3.95763e-09
-1.24298e-09
3.66425e-09
3.27471e-09
-3.6737e-09
4.43873e-09
-3.53943e-09
-5.93387e-09
5.03457e-09
1.70969e-09
-3.85904e-09
3.55083e-09
-4.84323e-09
-3.1138e-09
2.26027e-09
-2.17064e-09
7.79737e-10
1.46961e-09
-7.87046e-11
-3.74143e-09
-2.42566e-09
4.2447e-09
1.92239e-09
2.36507e-09
-3.21716e-09
3.43686e-09
-2.58477e-09
2.4573e-10
-2.50847e-10
2.28851e-10
-2.23734e-10
-4.03101e-09
3.98026e-09
-3.76516e-09
3.8159e-09
7.6271e-09
1.47465e-09
-2.80748e-09
-6.29428e-09
-3.17445e-09
2.28836e-09
-3.39403e-09
4.28013e-09
3.23074e-09
-7.57372e-09
9.03619e-09
2.52807e-10
-6.58154e-10
-2.43792e-09
2.84327e-09
-2.37028e-10
4.08088e-09
-4.04025e-09
1.96398e-10
5.26683e-09
-4.23506e-09
-7.2447e-10
-3.07307e-10
-1.57009e-09
-3.9582e-09
2.0696e-09
3.45869e-09
-6.52536e-09
-6.13469e-10
7.13882e-09
-1.62338e-09
2.77082e-10
1.48302e-09
-1.36719e-10
-7.0805e-10
-3.82067e-09
6.1062e-10
3.91811e-09
-4.02657e-09
-4.29858e-09
4.42451e-09
3.90064e-09
-4.21006e-09
-4.40138e-09
2.80956e-09
5.80188e-09
5.38287e-09
-6.40296e-09
7.78321e-09
-6.76312e-09
1.06949e-09
-4.46979e-09
4.35048e-09
4.65084e-09
-3.9765e-09
4.06062e-09
-2.4154e-10
-2.28268e-10
2.38807e-10
2.31001e-10
-4.33409e-09
4.1306e-09
2.12749e-10
-9.26235e-12
5.0775e-09
-4.78235e-09
4.75187e-10
-7.70339e-10
5.16561e-09
-4.85202e-09
5.37595e-10
-8.51192e-10
4.97268e-09
-4.6826e-09
4.64761e-10
-7.54847e-10
3.06015e-09
-3.60602e-09
-6.23501e-10
1.16938e-09
-4.67846e-09
4.70256e-09
-5.40287e-11
2.99299e-11
2.91382e-09
-3.07507e-09
3.02726e-09
-2.86601e-09
-4.61898e-10
3.97786e-09
7.52836e-10
-4.2688e-09
2.29712e-10
-2.6566e-10
2.40012e-10
-2.04065e-10
-1.41539e-08
1.55496e-08
-6.98894e-09
5.59331e-09
4.70359e-09
-5.24983e-09
-3.70792e-11
5.83324e-10
-2.77685e-09
-2.96941e-09
2.19248e-09
3.55378e-09
2.47092e-09
-2.00372e-09
3.05377e-09
-3.52097e-09
-8.09058e-09
-8.46848e-09
8.64696e-09
7.91209e-09
2.85981e-09
-3.12043e-09
7.78115e-09
-8.7155e-09
-6.65367e-09
7.58802e-09
-2.38886e-09
2.18067e-09
-2.91235e-09
3.12054e-09
-1.33149e-10
1.58272e-10
-5.88876e-09
4.81897e-09
-2.22789e-10
1.29258e-09
3.86216e-09
-2.15836e-09
1.91543e-09
-3.61923e-09
-2.79116e-09
4.02108e-09
2.30625e-09
-3.53617e-09
-3.06246e-09
-3.6286e-11
4.8592e-10
2.61283e-09
4.19926e-09
-7.29641e-10
-4.17767e-09
4.45799e-09
-4.1204e-09
-3.30736e-09
2.96977e-09
-4.09325e-09
4.61683e-09
3.81261e-11
-5.6171e-10
-4.1681e-09
4.7131e-09
4.096e-11
-5.85963e-10
-3.24003e-09
4.03678e-09
7.29945e-10
-1.5267e-09
-3.06722e-09
3.39748e-09
-2.84824e-09
2.51798e-09
-7.78559e-11
7.90393e-09
-7.82607e-09
-7.60963e-11
-3.74133e-09
-2.69308e-10
-3.6195e-10
2.81458e-09
8.16138e-10
-3.26877e-09
2.8689e-10
-3.07888e-10
2.39381e-09
-4.70104e-10
6.09344e-10
-2.53305e-09
4.7065e-09
-3.34929e-11
2.95512e-11
4.67362e-09
-4.61641e-09
6.62617e-12
-6.38392e-11
4.17482e-09
-4.09309e-09
8.08605e-12
-8.98188e-11
3.70318e-09
-3.54699e-09
-4.0837e-09
3.92751e-09
2.13637e-10
-1.67302e-10
-2.12179e-10
1.65844e-10
3.74795e-09
1.32198e-09
-9.72435e-11
3.90226e-09
1.35637e-09
-9.30192e-11
3.82623e-09
1.35018e-09
-9.89174e-11
-4.60304e-09
5.63009e-09
-1.16274e-09
1.35687e-10
5.12479e-09
-5.06343e-09
-2.51091e-10
1.89731e-10
-1.25928e-09
1.32903e-09
7.68925e-10
-8.38674e-10
-2.23743e-09
-4.55745e-09
3.61258e-09
3.1823e-09
-5.11836e-09
4.52815e-09
8.83199e-10
-2.92994e-10
6.27296e-09
5.90617e-11
-1.20723e-09
3.74262e-09
3.92656e-09
-3.30835e-09
-4.36083e-09
-4.17231e-09
2.89351e-10
3.93818e-09
-5.52248e-11
4.69202e-09
-4.68483e-09
-7.69829e-12
5.04003e-13
-4.06735e-09
4.07937e-09
-1.65082e-11
4.48238e-12
-4.14862e-09
4.16099e-09
-1.70431e-11
4.67732e-12
-3.98374e-09
3.9954e-09
-1.60727e-11
4.41366e-12
1.35956e-09
-2.04951e-10
3.74604e-09
3.37321e-09
-5.23028e-09
-1.88898e-09
5.07808e-09
-4.61822e-09
-2.37077e-10
-2.22779e-10
-4.3701e-09
3.90551e-09
2.63652e-09
-5.93983e-09
5.68085e-09
-2.19919e-10
4.78902e-10
-4.55251e-09
-1.01216e-09
3.14832e-10
-1.56169e-09
-8.53471e-10
1.15588e-09
4.89202e-09
-4.61652e-10
-2.55544e-10
5.01067e-09
-5.01336e-09
1.4805e-11
-1.21215e-11
-4.66845e-09
4.67825e-09
-4.19586e-11
3.21579e-11
-4.06412e-09
4.04526e-09
-1.43427e-10
1.6229e-10
-4.14617e-09
4.12595e-09
-1.46165e-10
1.66388e-10
-3.97996e-09
3.96218e-09
-1.40699e-10
1.58474e-10
3.60137e-09
-3.73466e-09
-5.9632e-10
7.29601e-10
5.79872e-09
1.99256e-10
-1.32435e-09
2.75792e-09
-3.40234e-09
3.00949e-09
-3.02664e-09
2.37192e-09
2.94308e-09
5.77238e-09
-4.90228e-09
-1.00293e-10
-7.69807e-10
4.40897e-09
3.16243e-10
-1.12384e-09
6.89479e-09
-6.90309e-09
-7.17675e-10
7.25979e-10
4.15154e-09
-4.20634e-09
-6.35254e-11
1.18325e-10
4.18705e-12
-7.90706e-11
3.46255e-09
-3.49635e-09
-2.27409e-10
2.61206e-10
3.53132e-09
-3.56525e-09
-2.33755e-10
2.6768e-10
3.39135e-09
-3.42496e-09
-2.21635e-10
2.5525e-10
4.7336e-10
5.90555e-10
-6.19918e-09
-4.14626e-09
4.68352e-09
-6.09645e-10
7.23836e-11
-4.22992e-09
4.77773e-09
-6.22006e-10
7.41984e-11
-4.06048e-09
4.587e-09
-5.96934e-10
7.04216e-11
-4.81085e-09
5.23308e-11
-1.13024e-09
4.60833e-09
-1.28629e-09
-4.30618e-09
-3.16716e-09
-2.93865e-09
3.37799e-09
2.72783e-09
4.27263e-10
-1.49622e-10
-5.94094e-10
3.16453e-10
2.85839e-09
-4.13103e-09
4.97581e-09
1.10986e-09
-9.61766e-11
3.75262e-09
-9.92664e-11
1.72885e-10
3.82663e-09
-9.85189e-11
1.74146e-10
3.67546e-09
-9.69591e-11
1.69442e-10
4.75445e-09
-8.49023e-11
3.69511e-11
-2.42705e-10
1.86311e-10
9.5919e-10
-4.23155e-12
-4.08521e-09
-6.6022e-11
-7.00784e-10
4.68416e-09
-4.67616e-09
6.24914e-12
-1.4248e-11
-4.11286e-09
2.11142e-10
-7.80876e-10
-4.19946e-09
2.14274e-10
-7.9716e-10
6.1168e-09
-5.30107e-09
1.64451e-11
-8.32168e-10
-4.6824e-09
4.68843e-09
7.99899e-12
-1.40301e-11
-5.54162e-10
1.6914e-10
-5.77853e-10
1.74562e-10
-5.65875e-10
1.72235e-10
-4.07269e-09
4.08378e-09
-6.39207e-12
-4.69451e-12
-4.1542e-09
4.16543e-09
-6.5663e-12
-4.66979e-12
-3.98884e-09
3.99972e-09
-6.23431e-12
-4.64544e-12
-5.2791e-09
5.24828e-09
-1.76021e-10
2.06838e-10
-3.85028e-09
4.17613e-09
-4.34932e-10
1.09089e-10
5.6049e-09
3.76296e-09
-5.62524e-09
2.7061e-09
3.35343e-09
-3.45968e-09
-2.59985e-09
-4.44699e-09
4.46525e-09
-2.05832e-11
2.32239e-12
-3.87436e-10
2.35435e-09
-3.68946e-09
3.95899e-09
1.07357e-11
-2.80265e-10
4.90669e-09
-4.40933e-09
-4.02273e-11
-4.57139e-10
-3.9175e-09
3.93308e-09
-2.45179e-11
8.94125e-12
5.13781e-09
7.14002e-10
-1.70964e-10
4.12432e-09
-4.08447e-09
-1.53562e-10
1.1371e-10
5.1796e-09
-4.50833e-09
5.45238e-11
-7.25791e-10
3.05885e-09
-4.09577e-09
3.6518e-09
-2.61488e-09
-3.93997e-09
4.52827e-09
1.68186e-10
-7.56482e-10
6.23308e-09
1.88398e-09
-4.33318e-09
-3.78388e-09
-4.29715e-09
4.31715e-09
-1.2745e-12
-1.87226e-11
-4.98633e-09
4.8436e-09
-6.45962e-11
2.07325e-10
-7.34973e-10
4.06096e-09
5.07847e-10
-3.83383e-09
-1.00178e-09
5.33449e-09
-1.29554e-10
3.89055e-09
-2.87179e-09
3.27653e-09
-4.29529e-09
2.80197e-09
-4.21215e-09
3.43164e-09
-2.02147e-09
-3.89508e-09
-1.62622e-10
-5.82835e-10
4.37548e-10
3.98322e-09
4.8106e-09
-4.06935e-09
-4.70799e-11
-6.94164e-10
-5.17857e-09
5.07713e-09
-1.12897e-10
2.14343e-10
-2.9748e-10
2.4217e-10
5.53101e-11
3.31594e-09
-3.35013e-09
-7.55784e-11
1.09763e-10
4.21528e-09
-4.01944e-09
2.06889e-10
-4.02723e-10
-3.60303e-09
-3.06346e-09
2.63548e-09
5.85274e-09
-6.01556e-09
1.6124e-10
1.58411e-12
-4.06264e-09
-7.37155e-11
4.31048e-11
-1.52861e-10
9.18503e-11
1.48531e-10
-8.75202e-11
6.40444e-09
-5.23338e-09
2.23031e-10
-1.39409e-09
4.55665e-09
1.24998e-10
-5.30103e-10
-4.68745e-09
5.09672e-09
1.46456e-11
-4.23909e-10
4.33729e-09
-8.24724e-10
-1.21222e-10
4.52093e-09
-8.5921e-10
-1.304e-10
4.4298e-09
-8.4168e-10
-1.25562e-10
5.31708e-09
-5.40571e-09
4.202e-10
-3.31565e-10
-4.78365e-10
9.51493e-11
-1.79236e-10
5.62452e-10
-4.11466e-09
-1.13303e-10
5.98622e-11
6.27915e-10
-1.91473e-09
-6.01025e-10
1.88784e-09
-3.28807e-09
3.81045e-09
2.9088e-10
-8.13266e-10
3.97745e-09
-1.72385e-09
-2.2536e-09
-4.2545e-10
4.20934e-09
8.01804e-10
-4.58569e-09
5.77903e-09
-5.81737e-09
1.41911e-11
2.41494e-11
-5.99392e-09
5.91278e-09
-1.30488e-10
2.11628e-10
-3.83762e-09
3.93673e-09
4.06115e-10
-4.5369e-09
-3.77304e-10
2.26754e-10
4.34734e-09
1.60581e-10
-4.03616e-09
-2.38446e-09
2.36532e-09
3.03623e-09
-5.99549e-09
-1.17548e-09
2.67878e-10
2.1946e-10
-9.727e-11
-5.85214e-09
6.80511e-09
1.98237e-10
-1.15121e-09
3.26365e-09
-3.65558e-09
-6.03242e-11
-5.46515e-10
-3.12782e-09
4.72926e-10
4.21857e-09
2.95084e-11
-8.22676e-11
3.91138e-09
-3.9145e-09
1.21603e-11
-9.03304e-12
5.38567e-09
-3.62946e-10
-4.77432e-09
-2.4841e-10
4.567e-09
-3.20193e-10
-4.05818e-09
-1.88627e-10
4.66534e-09
-3.25791e-10
-4.14423e-09
-1.95312e-10
4.76192e-09
-3.30962e-10
-4.22821e-09
-2.02743e-10
6.08969e-09
-3.99172e-10
-5.38536e-09
-3.05159e-10
5.90166e-09
-1.14184e-09
3.1826e-10
4.29302e-09
-4.25916e-09
-6.54864e-11
3.16341e-11
3.85782e-09
-8.08464e-11
9.36123e-10
3.77864e-09
-8.07169e-11
9.18913e-10
-1.24306e-10
2.43981e-10
-4.45377e-09
-7.04544e-09
9.23294e-10
3.19531e-11
6.0902e-09
4.69242e-09
-3.89712e-12
3.49961e-12
-3.91909e-09
3.92571e-09
4.82799e-12
-1.14554e-11
2.84027e-09
-3.15805e-09
3.69161e-09
-3.37383e-09
4.99256e-09
-4.95079e-09
-5.20921e-11
1.0317e-11
-4.30474e-09
-2.12576e-12
9.71982e-12
-3.86658e-10
4.18671e-09
-4.55454e-10
4.48363e-09
-4.45732e-09
-2.03611e-11
-5.95777e-12
-2.12972e-10
1.01174e-10
-1.9199e-10
5.49325e-10
-1.97933e-10
5.72695e-10
-1.95197e-10
5.60875e-10
-5.92452e-10
-5.85424e-11
4.42963e-09
-6.05822e-10
-5.9703e-11
4.52335e-09
-4.94215e-09
4.91551e-09
-1.86055e-10
2.12692e-10
5.15834e-09
5.67166e-11
-7.72505e-11
5.20524e-11
-2.06083e-10
-3.88622e-09
3.86288e-10
7.67867e-10
-4.35013e-09
9.99915e-12
6.50672e-10
8.97676e-10
-2.85052e-10
9.78335e-10
1.83701e-10
1.02032e-09
1.9216e-10
9.99429e-10
1.87738e-10
3.31733e-09
-3.28374e-09
-3.43021e-09
3.13598e-09
-2.97534e-09
3.26956e-09
-6.22371e-09
-6.55563e-10
5.81458e-09
1.06469e-09
-5.24219e-09
5.26868e-09
-3.9626e-11
1.31406e-11
-1.4297e-11
7.71286e-12
-2.38093e-10
-4.48791e-09
-6.35513e-11
4.19943e-11
-6.64073e-11
4.37321e-11
-6.49117e-11
4.28198e-11
5.67545e-09
-5.68925e-09
-4.07508e-11
5.45514e-11
3.513e-09
-3.23238e-09
-3.15857e-09
2.87795e-09
-3.93836e-09
-3.93104e-10
-1.8334e-11
4.3498e-09
-1.00782e-09
3.14029e-10
3.92342e-09
-3.16792e-09
-5.09976e-09
5.52102e-09
-8.29737e-10
4.08477e-10
4.27272e-09
-7.34976e-10
-2.21797e-10
4.35015e-09
3.00796e-11
-6.30787e-11
3.1777e-09
-3.56005e-09
-3.04786e-09
-1.02878e-10
1.40739e-10
-1.1166e-10
7.37981e-11
-4.08348e-09
4.1398e-09
-7.01634e-11
1.38445e-11
-4.16506e-09
4.22242e-09
-7.16082e-11
1.42559e-11
-3.99947e-09
4.05464e-09
-6.86906e-11
1.35182e-11
-3.49677e-09
4.00382e-09
2.85314e-09
-3.36019e-09
-3.21475e-09
-1.98916e-09
4.17513e-09
-1.97447e-11
6.5521e-10
-3.22161e-10
6.54907e-10
-2.15273e-10
3.89693e-09
7.90815e-10
-4.47247e-09
1.55675e-09
-5.45898e-11
9.08397e-10
6.33491e-10
3.92783e-09
-2.19988e-10
1.19885e-09
3.70221e-09
-7.70747e-11
9.03137e-10
-4.29607e-11
1.066e-10
2.87831e-10
-3.5147e-10
-5.77729e-09
-6.1956e-10
-1.47366e-11
6.41159e-09
-1.38247e-10
7.9066e-11
-5.00927e-09
5.00812e-09
1.68754e-11
-1.57213e-11
4.20364e-09
-1.2147e-10
1.09742e-09
-4.52486e-10
1.19288e-10
-4.93357e-10
3.82786e-09
-4.60109e-09
1.26659e-09
-3.84617e-09
3.93978e-09
-6.7645e-10
-1.26063e-10
4.16318e-09
4.16478e-09
-5.20582e-09
4.41216e-09
-3.37112e-09
5.3725e-09
-9.95158e-10
-2.53016e-10
1.11601e-09
-8.86495e-11
6.37197e-10
-1.70528e-11
3.79425e-09
-4.9805e-09
1.93e-09
-7.43748e-10
-2.49917e-09
-6.05066e-09
5.9445e-09
2.60533e-09
-4.67305e-09
4.66575e-09
-9.06104e-13
8.2133e-12
-5.20125e-09
1.80864e-09
5.32935e-09
1.69787e-10
-8.05134e-11
8.19999e-11
-1.71274e-10
-5.97166e-09
-2.96369e-09
6.43618e-09
-4.14522e-09
3.67584e-09
6.85311e-10
-2.1593e-10
-3.98106e-09
3.53046e-09
6.57865e-10
-2.07268e-10
-4.06436e-09
3.60422e-09
6.71784e-10
-2.11639e-10
-3.80294e-09
-1.01169e-10
-7.0448e-10
-2.46863e-09
-2.32246e-09
-2.03601e-09
-5.08073e-09
2.74663e-09
5.63987e-09
-1.46543e-09
1.14264e-09
-3.23374e-09
-3.43324e-09
3.91808e-09
1.24786e-10
2.13369e-10
-1.68368e-10
-3.92311e-09
-8.01502e-13
4.82621e-12
-1.92575e-10
-2.2724e-11
-7.63351e-09
5.86054e-09
-4.28195e-09
-3.88643e-09
4.29356e-09
-3.88235e-10
-1.88972e-11
-4.38914e-09
4.89197e-09
-4.78773e-10
-2.40569e-11
-4.25413e-09
4.33819e-09
3.76129e-09
2.74126e-09
-2.1683e-09
1.38302e-10
-4.75066e-11
1.81065e-10
2.78443e-10
-2.45871e-10
-5.10944e-09
5.79406e-09
-6.79961e-10
-4.66016e-12
4.30289e-09
-5.24943e-09
-1.15007e-10
1.92549e-10
3.23669e-09
-5.11727e-09
4.572e-09
-2.69142e-09
-4.58586e-09
5.19508e-09
-6.02946e-10
-6.27952e-12
-6.50913e-09
6.84851e-09
-7.9729e-09
-1.19505e-12
1.11646e-11
4.93422e-09
-1.35204e-10
1.31778e-09
-1.97415e-10
-4.59326e-11
1.1555e-11
-4.9955e-12
1.19349e-11
-5.14396e-12
1.1752e-11
-5.07003e-12
-4.74757e-09
-9.30506e-10
3.33888e-10
6.67184e-10
-4.46222e-11
8.65304e-10
-5.41156e-11
-5.86176e-11
-2.49356e-10
9.27461e-12
1.83213e-12
3.38791e-09
3.15813e-09
-2.33392e-09
-4.21211e-09
-5.64022e-09
6.29208e-09
-6.51585e-10
-2.75263e-13
3.82968e-09
2.22644e-09
-2.19395e-09
3.9442e-09
6.1393e-11
-4.66055e-11
4.72612e-10
2.8652e-10
-7.75341e-11
7.92745e-11
3.67412e-09
3.47902e-09
-3.22972e-09
3.02015e-12
7.00333e-12
-2.11911e-09
1.74796e-09
3.12908e-09
3.35451e-09
2.45736e-10
-3.60025e-09
-4.10622e-09
3.58881e-09
7.52692e-10
-2.35278e-10
1.67155e-11
-1.64616e-11
1.73789e-11
-1.70107e-11
1.70575e-11
-1.67573e-11
1.59999e-10
-2.12794e-10
-4.4393e-09
3.93734e-09
7.31207e-10
-2.29244e-10
-4.65428e-09
8.419e-10
-1.68679e-10
-4.84813e-09
8.78324e-10
-1.75417e-10
-4.75242e-09
8.60223e-10
-1.72164e-10
4.31811e-09
-6.72548e-11
4.21572e-11
3.6195e-09
-7.01522e-10
-4.84861e-09
1.93063e-09
-4.94607e-09
4.38632e-09
8.13601e-10
-2.53849e-10
7.53949e-11
4.31668e-10
-1.99804e-10
-2.13369e-10
2.45871e-10
4.50328e-09
-6.13153e-11
4.16744e-11
1.11457e-09
-3.70222e-09
-9.8521e-10
2.13143e-12
1.01381e-11
5.77571e-11
-2.23883e-11
4.40656e-09
-4.77174e-09
4.61713e-10
-9.65337e-11
-8.35451e-09
4.51004e-09
7.23227e-09
5.01561e-09
-7.8738e-11
5.56913e-11
-4.47716e-09
-5.533e-11
-2.00138e-11
-4.7098e-09
-2.1066e-10
-8.8817e-11
6.94583e-10
-2.64236e-10
7.26167e-11
-1.43639e-10
8.60728e-11
-1.6911e-10
3.88989e-09
5.58118e-12
1.59097e-11
1.22094e-11
-4.27435e-12
8.7731e-11
-1.70314e-10
3.25858e-10
-3.21988e-10
3.50274e-09
4.30192e-09
-3.91411e-09
1.02186e-10
-1.96018e-10
1.12781e-11
4.75799e-10
-4.31663e-10
-5.54148e-11
4.93399e-11
-4.58811e-11
1.01508e-09
-2.29336e-10
5.64308e-09
1.68226e-11
1.55464e-11
4.06975e-09
-4.31561e-09
4.22613e-09
9.42165e-10
-1.86383e-10
5.07508e-09
4.5966e-10
1.6803e-09
6.39069e-10
-9.89627e-11
5.61748e-11
-9.14498e-11
8.79166e-13
-6.11607e-12
2.95591e-09
2.33665e-09
-2.63819e-09
-2.65438e-09
-7.43416e-09
8.39028e-09
7.75322e-09
-8.70934e-09
4.29162e-10
-3.96428e-10
-2.14555e-11
3.35302e-12
7.85788e-12
-5.66602e-09
5.4656e-09
1.7275e-10
2.7666e-11
7.7636e-11
-7.47742e-11
1.0519e-09
-2.0391e-10
2.34425e-10
3.3024e-10
-3.25858e-10
-5.63636e-09
6.03958e-09
-6.86806e-10
2.83582e-10
-6.22699e-09
-1.01909e-09
1.62877e-09
5.61731e-09
1.63364e-10
-3.31587e-10
-4.16958e-09
2.58816e-09
4.31431e-09
-2.73288e-09
3.40422e-09
-1.33631e-10
1.02297e-09
-2.34178e-09
2.69523e-09
-6.40411e-09
2.0401e-09
4.71713e-09
-2.76845e-09
-3.98879e-09
-4.90324e-11
5.48784e-11
3.9114e-09
-4.22468e-09
-3.07994e-09
3.39322e-09
4.12286e-09
-2.21568e-10
5.09179e-09
-1.47637e-10
1.34792e-09
-4.75981e-09
2.9461e-09
2.93801e-09
-1.1243e-09
3.71015e-09
-2.4309e-11
-2.81625e-10
3.23645e-09
-3.1031e-09
2.60562e-09
-2.73896e-09
-5.07422e-09
5.76742e-10
-1.13888e-09
3.34027e-09
-3.42474e-09
1.73267e-09
-2.60233e-10
-1.7266e-09
2.54161e-10
3.45822e-09
3.03641e-09
-2.52112e-09
-3.97351e-09
-7.17527e-09
2.63413e-09
-2.51658e-09
-4.08602e-09
-2.97639e-09
3.94661e-09
3.11579e-09
4.71904e-09
-3.44072e-09
2.10958e-09
4.02145e-09
3.67376e-09
-2.62535e-09
-2.32353e-09
1.97947e-09
5.65087e-09
1.4008e-11
-5.73084e-10
-4.01011e-09
4.96249e-10
-4.60583e-09
5.67217e-11
4.49766e-09
5.14523e-11
-3.51145e-09
2.87493e-09
-2.43855e-09
2.41901e-10
-3.34934e-10
3.24034e-10
2.0208e-09
-2.87264e-09
-9.46844e-11
-4.45971e-09
3.82084e-10
3.7385e-10
-3.79826e-09
-5.65975e-09
4.79893e-09
-2.2425e-09
3.10332e-09
3.21414e-09
-3.16209e-09
-2.72347e-09
-5.90933e-09
7.02877e-09
1.60402e-09
2.30819e-09
-6.6445e-12
-3.72524e-11
4.73059e-10
-2.40252e-09
-6.13408e-09
5.71304e-09
2.82356e-09
8.50073e-10
3.51899e-09
-3.47674e-09
-8.92322e-10
-5.723e-09
-2.59044e-09
-1.10499e-09
-7.14539e-09
5.9318e-09
2.31858e-09
-1.78676e-09
1.45591e-09
1.13987e-09
-3.77836e-09
4.99026e-09
-2.35177e-09
1.43972e-09
-1.38307e-09
-3.22664e-09
3.73138e-11
-5.39228e-09
9.56564e-10
4.3984e-09
-3.78985e-09
5.12237e-09
-5.35909e-09
-4.48409e-09
1.73778e-09
3.88618e-09
3.94039e-09
4.90278e-09
-5.90052e-09
-2.94265e-09
5.85673e-10
-3.35716e-09
2.398e-10
-6.77764e-10
-2.85837e-09
2.94546e-09
-3.4463e-09
3.35921e-09
2.19559e-09
-2.95997e-09
-1.68875e-09
-3.81469e-09
-2.77124e-09
4.3485e-09
-1.92689e-10
5.83153e-09
7.47516e-10
-6.38636e-09
3.28374e-09
-3.34027e-09
-3.63861e-09
-3.37261e-09
3.58399e-09
-5.68138e-09
5.47e-09
5.4792e-09
-4.2305e-09
-5.54729e-09
-3.37776e-09
3.31652e-09
4.08269e-09
-4.06264e-09
7.47775e-11
4.09747e-09
-1.09611e-10
3.27881e-09
3.81624e-10
-3.56566e-09
-9.47679e-11
6.05695e-09
-2.83591e-09
-2.66438e-09
2.95544e-09
-1.90423e-09
-5.13774e-09
8.18261e-10
3.94771e-10
4.80057e-09
-1.04877e-09
5.03392e-09
-4.11668e-09
2.13269e-09
-3.04992e-09
-4.39992e-11
6.80174e-11
-9.34198e-09
2.33421e-09
-1.59632e-09
8.6041e-09
-2.66137e-09
2.95904e-09
3.00672e-11
-1.19052e-09
-5.58187e-09
6.74232e-09
2.58824e-11
-4.95614e-09
-1.04831e-09
5.97857e-09
1.78635e-11
-8.83628e-10
-4.21793e-09
5.0837e-09
1.93101e-11
-9.22671e-10
-4.39316e-09
5.29652e-09
1.8539e-11
-9.03097e-10
-4.30681e-09
5.19137e-09
3.94728e-09
-3.86892e-09
9.90389e-11
-1.77396e-10
4.11161e-09
-4.03064e-09
1.0387e-10
-1.8484e-10
4.03048e-09
-3.95077e-09
1.01448e-10
-1.81158e-10
2.35008e-09
-2.3629e-09
3.68282e-09
-3.67e-09
-2.85099e-09
-3.59507e-09
3.78168e-09
3.49305e-10
-3.70158e-09
6.42091e-11
-3.46239e-09
7.68387e-10
-9.91487e-10
3.68549e-09
4.3953e-10
3.93474e-09
-3.12677e-09
3.22453e-09
-2.68826e-10
4.42894e-09
-4.37539e-09
3.45214e-09
-3.51945e-09
3.73155e-09
-6.03922e-10
-2.84273e-09
2.80523e-09
6.41418e-10
-3.7533e-09
3.94622e-09
-6.18368e-10
2.65371e-09
-5.83145e-09
7.59336e-09
-4.41563e-09
4.49166e-10
-5.1384e-09
6.87519e-12
3.84003e-09
5.62065e-10
7.89558e-09
-7.13182e-09
-2.68183e-09
-2.69029e-09
-6.05125e-09
2.74726e-09
8.24268e-09
-1.47966e-10
-8.43336e-09
3.38648e-10
-9.17341e-10
-4.05445e-09
1.21849e-09
9.41536e-11
-1.72245e-10
-8.76884e-11
1.6578e-10
2.48554e-10
5.14571e-09
1.12508e-09
-6.51935e-09
-1.86875e-09
-1.59154e-10
2.28918e-09
-2.61277e-10
-1.86386e-09
2.80602e-09
4.19576e-09
-3.72706e-09
-3.72845e-09
-5.15883e-10
5.52566e-12
4.23881e-09
-2.40436e-10
-3.30943e-10
3.37458e-10
-1.248e-09
-3.88327e-09
1.31211e-09
7.01535e-09
-2.61008e-09
-6.51452e-09
2.10925e-09
5.20593e-09
3.29526e-10
-6.53943e-09
1.00397e-09
3.47053e-09
5.01964e-10
-3.97249e-09
-3.17975e-09
6.1841e-09
2.61947e-09
-5.62383e-09
-2.37032e-10
1.62014e-10
3.86813e-09
3.03945e-09
-3.28221e-09
-3.62537e-09
4.99952e-09
-6.90375e-09
-2.333e-09
5.34695e-10
2.76125e-09
-9.62951e-10
4.13978e-09
-3.92161e-09
1.47403e-10
-3.65569e-10
-2.72292e-09
3.67931e-09
4.14091e-09
-5.0973e-09
-2.53378e-09
3.56414e-09
3.91051e-09
-4.94088e-09
-3.04986e-09
4.07004e-09
4.64958e-09
-5.66975e-09
-2.38462e-09
3.27513e-09
3.62224e-09
-4.51276e-09
3.84743e-10
-4.3061e-09
4.53304e-09
-6.11686e-10
-3.45843e-09
4.69055e-09
5.38327e-09
-6.6154e-09
3.91399e-09
5.02549e-09
-4.2444e-09
-4.69509e-09
-3.06452e-09
6.96387e-09
3.116e-09
-3.92751e-09
3.91411e-09
-3.11961e-10
3.32843e-10
5.79805e-11
-5.11883e-09
5.08872e-09
-2.78748e-11
1.56433e-09
-3.55166e-09
-1.90238e-09
3.88972e-09
6.38468e-09
-2.54087e-09
-6.45388e-09
4.3992e-09
-4.31684e-09
1.11219e-10
-1.93583e-10
3.54418e-10
5.7736e-10
-2.26445e-09
-3.21988e-09
2.99133e-09
2.493e-09
3.81783e-09
-5.81846e-09
-3.94164e-09
5.94227e-09
-1.30108e-10
5.99263e-10
-7.65339e-12
-3.88483e-11
3.45715e-10
-2.99214e-10
-3.8627e-09
3.87661e-09
1.45803e-11
-2.84936e-11
-3.50176e-09
4.10457e-09
-4.31331e-09
5.33775e-09
2.50346e-09
-5.51217e-09
-2.32904e-09
3.43105e-09
5.82069e-09
-3.19107e-09
-3.25558e-09
3.78527e-09
-4.54951e-09
-7.43753e-10
1.4599e-09
3.83337e-09
-5.78492e-09
-9.28975e-10
1.79346e-09
4.92043e-09
-4.99956e-09
-8.5369e-10
1.63064e-09
4.22261e-09
-5.17167e-09
-8.37589e-10
1.62956e-09
4.3797e-09
-6.78623e-09
-1.13564e-09
2.10935e-09
5.81253e-09
3.58767e-10
-4.81795e-12
-6.01997e-09
-3.06722e-09
2.98096e-09
-3.92967e-09
4.01593e-09
-3.6513e-09
-1.27447e-09
-2.22378e-09
4.73855e-09
4.16116e-09
-6.67593e-09
3.87549e-09
-4.21534e-09
-2.89389e-09
6.02e-10
4.18288e-10
-8.36197e-10
-1.84091e-10
3.34622e-09
4.85771e-09
-3.98488e-09
-4.37459e-09
-5.9077e-09
5.83409e-09
-2.5236e-11
9.88371e-11
5.76523e-09
-4.17105e-09
2.83032e-09
-4.04134e-09
-2.37769e-11
4.12837e-09
-6.32533e-11
3.47259e-09
-5.48884e-10
-2.98403e-09
-2.73713e-09
2.84584e-09
6.01385e-09
1.56235e-09
-3.15977e-09
-4.41643e-09
6.43746e-09
1.3305e-09
-2.71021e-09
-5.05776e-09
2.57182e-09
-5.92784e-09
2.72001e-09
-1.78786e-09
-3.24583e-09
2.31368e-09
-2.8909e-09
-3.53731e-09
3.69108e-09
4.8986e-11
-5.95725e-09
4.38182e-09
1.52645e-09
1.45231e-09
2.92387e-10
3.93653e-09
2.66955e-10
-2.6922e-09
7.7286e-09
-4.70348e-09
-5.98881e-09
-2.51966e-09
-1.91043e-10
2.96351e-09
-8.8512e-10
1.67101e-09
5.30381e-09
-7.91994e-10
1.51502e-09
4.66265e-09
-7.07033e-10
1.36568e-09
4.10327e-09
-6.80244e-10
1.31796e-09
3.92928e-09
-6.94088e-10
1.34277e-09
4.01665e-09
-7.94183e-10
-8.22005e-10
-5.60877e-09
7.22495e-09
-2.79116e-09
2.69851e-09
2.15698e-10
-1.2305e-10
-3.63309e-09
7.02421e-10
3.16973e-09
-2.39055e-10
-3.64715e-09
4.36256e-09
5.11552e-09
-5.83092e-09
-2.71151e-09
3.36524e-09
3.79349e-09
-4.44721e-09
-2.77124e-09
3.43203e-09
3.87733e-09
-4.53811e-09
-2.8306e-09
3.49578e-09
3.96083e-09
-4.626e-09
-3.21165e-09
3.90939e-09
4.49814e-09
-5.19588e-09
3.22079e-09
2.58533e-09
-9.48404e-10
2.92777e-09
-3.7846e-09
4.09328e-09
5.64875e-09
-5.63472e-10
3.50058e-10
-5.43534e-09
4.31768e-09
1.77349e-10
-4.04586e-09
-3.77627e-09
-8.88781e-10
4.07778e-09
-5.93892e-09
-4.42425e-09
6.28539e-09
1.15741e-09
-6.38934e-09
1.57713e-10
1.4504e-09
-6.69566e-10
-5.39024e-09
4.6094e-09
-1.65906e-10
-3.13086e-09
3.29677e-09
-2.75645e-09
-1.69773e-09
6.21204e-09
-5.61929e-09
-1.94582e-09
-3.03387e-09
3.60114e-09
1.37855e-09
3.43355e-09
-3.31926e-09
3.0217e-09
-5.29959e-09
8.09921e-10
4.64989e-09
-1.60223e-10
-2.55532e-09
1.01537e-09
-5.89488e-09
5.12807e-09
2.35891e-10
-1.15272e-08
-6.72354e-09
1.08166e-08
3.1629e-09
-2.80333e-09
3.51592e-09
1.08742e-09
3.24427e-09
3.44418e-09
-2.48804e-09
3.62004e-09
-4.57619e-09
3.30079e-09
1.17231e-08
-1.35216e-09
-1.36718e-08
-5.52627e-09
3.69632e-09
4.9925e-09
-1.45491e-09
1.53585e-09
3.25425e-09
-3.33519e-09
1.78032e-09
-2.9432e-09
5.60863e-09
7.71288e-10
9.67419e-10
-9.54629e-10
-7.84079e-10
-5.30878e-09
-7.84761e-09
5.53823e-09
7.61816e-09
3.25999e-10
-3.08027e-10