/*--------------------------------*- C++ -*----------------------------------*\
  =========                 |
  \\      /  F ield         | OpenFOAM: The Open Source CFD Toolbox
   \\    /   O peration     | Website:  https://openfoam.org
    \\  /    A nd           | Version:  8
     \\/     M anipulation  |
\*---------------------------------------------------------------------------*/
FoamFile
{
    version     2.0;
    format      ascii;
    class       surfaceScalarField;
    location    "2";
    object      phi;
}
// * * * * * * * * * * * * * * * * * * * * * * * * * * * * * * * * * * * * * //

dimensions      [0 3 -1 0 0 0 0];

internalField   nonuniform List<scalar> 
11231
(
2.3698e-08
-3.04673e-08
-4.89269e-09
1.1662e-08
8.50088e-09
3.74343e-10
-1.02516e-09
-7.85007e-09
-9.57104e-09
9.54863e-09
3.36544e-10
-3.14142e-10
-9.8942e-10
-9.28609e-09
1.5138e-09
8.76171e-09
-9.53615e-09
5.24275e-11
9.53545e-09
-5.17315e-11
-5.58959e-10
-8.70318e-09
8.27272e-09
-8.9414e-11
1.17857e-10
-9.59948e-09
-1.10119e-10
-9.01879e-09
9.03949e-09
-9.53868e-09
9.52631e-09
4.17468e-11
-2.93767e-11
5.97185e-12
-9.58964e-09
4.75216e-11
-5.38146e-11
-9.01662e-09
9.0764e-09
-9.52268e-09
9.51798e-09
3.30731e-11
-2.83726e-11
4.88685e-12
-9.57685e-09
3.32868e-11
-3.56695e-11
-9.03233e-09
9.07288e-09
8.3309e-12
2.25201e-11
-9.55353e-09
9.13552e-09
4.31383e-10
-1.06602e-09
-3.87146e-11
-9.03279e-09
9.07983e-09
-9.51268e-09
3.69215e-11
9.49841e-09
-2.26571e-11
5.45753e-09
1.27337e-08
-1.39043e-08
-4.28701e-09
-9.62489e-09
3.82595e-10
4.6862e-10
8.77368e-09
-4.0251e-12
-9.53969e-09
3.10334e-11
-4.59725e-11
-9.02432e-09
9.06626e-09
-9.4952e-09
9.49493e-09
3.9101e-11
-3.88299e-11
-5.75146e-12
3.16733e-11
-9.52112e-09
-4.39643e-11
-9.02855e-09
9.06677e-09
1.57721e-12
9.47684e-09
-9.51077e-09
3.23465e-11
5.86453e-09
-9.9005e-09
9.4935e-09
-1.31503e-08
3.49139e-09
9.51655e-09
1.42358e-10
-4.58999e-11
-9.02261e-09
9.07008e-09
9.4792e-09
3.30778e-11
-3.54367e-11
1.3193e-11
-4.73868e-11
-1.27668e-08
1.2801e-08
2.25724e-12
9.45067e-09
-9.48219e-09
2.92603e-11
5.70623e-09
-3.66264e-09
1.65209e-09
-3.69568e-09
-4.04657e-11
-9.00771e-09
9.05043e-09
-1.54154e-08
-6.725e-09
7.91822e-09
1.42222e-08
-1.29618e-08
1.27739e-08
2.01039e-10
-6.0656e-10
1.37328e-08
1.15951e-09
9.46079e-09
2.47853e-11
-3.49051e-11
-2.8014e-09
8.1357e-09
-1.06485e-08
5.31423e-09
-7.89994e-12
9.42343e-09
-9.44013e-09
2.45948e-11
-5.74355e-09
-1.55025e-08
1.29085e-08
8.33761e-09
-8.9842e-09
-5.17272e-11
9.02802e-09
-6.42181e-09
6.41227e-09
5.87408e-09
3.49575e-09
1.86069e-10
-3.4124e-09
-2.69417e-10
9.42824e-09
3.26465e-11
-3.74505e-11
-3.06737e-09
1.6254e-08
1.09932e-09
8.80654e-09
-1.27197e-08
-1.68433e-08
2.07564e-08
1.88885e-11
9.36676e-09
-9.39022e-09
4.57202e-12
-9.9119e-09
1.26936e-08
-2.14773e-09
-6.33922e-10
-1.93092e-08
1.30692e-08
3.2524e-09
2.98763e-09
-5.9387e-09
1.37336e-08
1.59048e-08
-2.36997e-08
-1.56836e-11
-8.96747e-09
9.00205e-09
9.38291e-09
-1.42126e-11
-1.93067e-12
-3.26022e-12
9.34204e-09
2.81051e-11
-9.36689e-09
9.01313e-09
-8.97921e-09
7.58073e-12
-4.1501e-11
1.50512e-08
-9.57329e-09
-1.01592e-08
4.68134e-09
-2.79779e-11
-8.95714e-09
8.98185e-09
1.01529e-08
-1.79577e-09
-1.41006e-08
6.66781e-09
1.39472e-08
1.38529e-09
-2.20003e-08
-4.27362e-09
3.93867e-09
-2.68642e-09
3.02138e-09
9.00659e-09
-1.74364e-11
3.40193e-13
-8.98949e-09
-4.08142e-09
1.1291e-08
-9.31743e-09
2.10782e-09
7.95534e-09
-1.78241e-09
-1.32467e-08
7.07378e-09
1.19129e-08
-1.57159e-08
-2.13567e-09
-6.55044e-12
9.32878e-09
-9.33949e-09
1.72605e-11
9.35771e-09
9.53595e-12
-2.52029e-11
3.89853e-08
-3.11916e-08
-7.79372e-09
-6.42959e-09
-8.53748e-09
1.65036e-09
1.33167e-08
6.90731e-09
9.09709e-10
-7.31093e-09
-5.06093e-10
-3.97845e-11
-8.94409e-09
8.97732e-09
-1.79605e-08
-2.21249e-10
1.68128e-08
1.36894e-09
-4.78277e-10
3.85665e-09
-1.71178e-08
1.37394e-08
2.34726e-10
8.05768e-09
-2.88964e-09
-5.40277e-09
-2.36857e-11
9.30678e-09
-9.31775e-09
3.46554e-11
2.45097e-09
2.44958e-09
1.01506e-08
1.03865e-09
1.03648e-08
-9.7017e-09
-1.70174e-09
2.70378e-11
9.3256e-09
-2.38624e-11
-4.76435e-11
-8.92959e-09
8.95355e-09
3.25274e-09
-4.33137e-09
8.25558e-09
-7.17695e-09
-4.34744e-10
-1.00053e-08
8.04034e-11
1.03596e-08
-9.12458e-09
6.57392e-09
8.39002e-09
-5.83936e-09
2.38486e-10
-1.34351e-09
-4.48025e-10
1.55305e-09
9.79861e-09
1.64026e-09
-6.35492e-09
-5.08395e-09
-4.049e-11
9.27138e-09
-9.27343e-09
4.25372e-11
9.3128e-09
1.62523e-11
-2.2274e-11
2.62272e-10
-8.91705e-09
-6.49052e-11
8.94147e-09
-9.52408e-10
-1.24877e-08
-2.91838e-10
-3.57858e-10
3.73576e-10
2.7612e-10
-1.20578e-10
5.19197e-09
6.34836e-10
-1.23838e-08
-2.857e-09
5.66749e-09
9.28222e-09
4.35969e-11
-5.44382e-11
8.93244e-09
-8.92692e-09
4.01357e-11
-4.56558e-11
2.25764e-09
-2.02291e-09
8.38087e-11
-5.48759e-11
4.79397e-11
-2.05615e-11
2.55422e-09
-3.52092e-10
5.85555e-09
8.94663e-09
-8.94091e-09
3.17692e-11
-3.74896e-11
-5.467e-08
6.57304e-08
-1.10604e-08
6.5417e-11
-5.00225e-11
5.21182e-11
-3.24158e-11
-8.94691e-09
-3.49508e-11
4.09575e-11
-8.93324e-09
-4.86695e-11
3.49918e-11
9.39981e-09
-9.41699e-09
2.47556e-11
1.09965e-08
-1.42324e-09
-1.11042e-08
1.53093e-09
-2.72894e-09
-1.10159e-08
-1.36658e-09
1.51114e-08
-1.19399e-09
6.587e-09
-8.28264e-09
-8.9178e-09
-5.47295e-11
3.92942e-11
-3.82874e-11
2.90996e-11
-8.90861e-09
-9.57292e-09
-1.08373e-08
1.39806e-08
-9.40575e-09
-1.52345e-12
9.38984e-09
7.13154e-09
8.93635e-10
-7.74418e-09
-2.80994e-10
1.37568e-10
1.06663e-08
1.9262e-10
9.8431e-09
5.73514e-10
-2.46128e-09
3.72395e-10
8.73902e-09
-7.72932e-09
-1.38209e-09
-1.10659e-09
1.0702e-09
1.72157e-10
-1.35769e-10
1.52078e-08
-9.70419e-09
-7.12827e-09
1.62466e-09
-4.85033e-10
9.94657e-10
6.55585e-10
-1.16521e-09
-7.04529e-10
-3.8076e-11
7.45429e-10
-2.82336e-12
9.81645e-09
1.8194e-12
-9.75299e-09
-6.52823e-11
7.39224e-09
-1.12533e-10
-1.67227e-08
4.94945e-09
1.13385e-08
3.62464e-11
-1.16533e-09
8.08547e-11
1.04823e-09
-4.74249e-09
-5.59995e-12
1.12011e-11
4.73689e-09
-1.06971e-08
8.54211e-09
2.30227e-09
-1.47258e-10
5.20837e-12
-1.07555e-09
-1.03707e-08
-1.9312e-09
4.71521e-09
-4.72347e-09
-6.73378e-12
1.49945e-11
-1.05891e-08
9.82977e-09
3.31359e-09
-1.65754e-09
3.85741e-09
-2.19987e-09
2.19411e-10
-1.63221e-08
-1.85779e-09
-6.20366e-10
8.66141e-11
-1.70777e-10
-1.17618e-08
7.56029e-09
3.00756e-09
1.27377e-08
-1.32575e-08
4.37641e-09
9.42413e-09
-9.31753e-09
-1.24549e-10
1.79431e-11
-4.62692e-09
-1.4913e-11
1.46086e-11
4.62722e-09
-5.10324e-10
6.86659e-10
5.17126e-10
-6.93461e-10
-1.24118e-09
-2.36849e-09
1.89268e-09
1.71699e-09
-1.04973e-09
6.94045e-09
-8.69212e-09
-4.90354e-10
-2.32512e-10
1.02499e-10
-4.58095e-09
-1.44487e-11
8.50992e-12
4.58689e-09
-6.54201e-09
8.93941e-09
-8.81922e-09
1.06127e-08
-1.32324e-08
5.23965e-09
-2.62004e-09
9.82485e-09
-5.13641e-11
4.29654e-11
2.41522e-10
-2.19962e-09
1.41881e-10
-2.70131e-10
-3.62104e-10
-5.81637e-09
-1.00324e-09
-3.41674e-09
4.34845e-09
-4.54894e-09
-9.66609e-12
5.86802e-12
4.55274e-09
3.49823e-10
9.67372e-10
-2.46991e-10
-1.37406e-09
-1.2088e-08
1.20388e-08
-2.01909e-08
3.0311e-08
5.08775e-09
-1.08745e-11
-7.34853e-13
-4.51058e-09
4.52219e-09
-7.96993e-09
6.96112e-09
1.09513e-09
-8.63204e-11
-7.99928e-09
5.29188e-09
-7.09338e-10
-5.0254e-08
-2.71122e-08
7.73661e-08
4.51374e-09
-4.44803e-12
-9.42056e-12
-4.49987e-09
1.19739e-09
-4.55599e-10
-1.39067e-09
6.48883e-10
7.98437e-09
5.03376e-09
-1.15728e-08
-1.44531e-09
8.45051e-09
3.76592e-10
-2.8499e-10
1.12575e-10
5.82251e-09
-6.84491e-09
9.09825e-10
-1.35768e-10
1.49283e-10
-9.97749e-09
9.96398e-09
-1.81252e-08
-8.2779e-09
1.83792e-09
2.45651e-08
4.86271e-09
-6.88606e-09
6.23449e-09
-4.21114e-09
1.11478e-08
-4.79568e-09
5.56076e-09
-1.06356e-08
-2.46085e-09
-3.62627e-09
-6.47635e-09
-2.27685e-09
2.08283e-09
6.67037e-09
-3.09768e-09
-2.09516e-10
-9.41208e-09
1.54885e-08
1.85709e-09
-7.9335e-09
7.90127e-09
-8.17997e-09
5.14141e-09
8.81483e-10
9.51477e-10
-6.35574e-10
3.87282e-09
-1.89988e-09
2.95917e-09
-4.93211e-09
8.24679e-09
-8.25793e-09
-4.35907e-11
-3.03264e-11
9.45628e-09
-1.1644e-09
1.05862e-09
-1.35414e-08
6.57646e-09
-9.72882e-09
9.89987e-10
1.08696e-08
-2.13074e-09
8.46353e-09
5.32844e-10
-8.7732e-09
-2.23166e-10
1.13141e-08
-3.09704e-09
-5.05807e-09
1.15337e-08
1.17551e-09
-7.6511e-09
1.51705e-08
1.05248e-08
-1.32338e-08
-1.24616e-08
9.56663e-09
-3.69442e-09
8.41373e-09
-1.14068e-10
9.80315e-09
-6.63754e-09
6.69847e-09
-4.91227e-10
4.30293e-10
5.76465e-10
-2.0149e-08
-8.15078e-09
2.77233e-08
-6.01606e-09
1.14558e-08
-1.19817e-08
-8.20363e-09
-4.29571e-10
-2.32674e-09
7.8641e-09
-1.05954e-08
6.90946e-09
4.0636e-11
-6.92984e-09
-2.02591e-11
-2.174e-10
3.98627e-10
-1.5719e-09
-1.15546e-11
-9.07207e-09
-2.33901e-10
7.59148e-09
-1.15666e-09
4.17791e-09
-1.56598e-08
1.2825e-08
-3.18127e-09
-3.45491e-09
9.64868e-09
2.74564e-09
-7.38852e-10
4.3034e-10
6.06418e-10
-2.97906e-10
3.05734e-09
-2.10753e-11
-2.82047e-09
-1.28183e-08
5.34602e-09
-4.88772e-09
4.1462e-09
-4.60449e-09
3.54925e-11
-2.67406e-11
6.90071e-09
8.57983e-09
-1.40876e-10
-7.86293e-09
-7.84291e-11
-7.54647e-10
-7.43341e-10
3.32654e-10
8.95344e-10
-8.52565e-10
-3.29656e-10
-1.26656e-09
1.11118e-09
-1.30377e-08
-1.09528e-10
-1.59522e-09
1.47424e-08
-3.65009e-08
-1.3753e-08
3.34685e-10
-8.78747e-10
-1.9479e-10
-1.30438e-08
-1.36793e-09
4.73422e-09
1.16868e-08
-4.64145e-09
-1.17796e-08
1.4904e-08
6.19224e-10
-1.45107e-08
-1.01257e-09
-9.27119e-09
9.25749e-09
5.38375e-11
-8.21978e-10
5.90628e-10
6.6169e-10
1.39444e-12
-6.75182e-09
-1.20997e-11
6.76253e-09
1.01176e-10
9.07155e-09
-8.98633e-09
-1.86395e-10
-1.29916e-09
7.26114e-10
5.73041e-10
-7.16146e-09
-3.49039e-09
3.76579e-09
-7.92614e-09
2.78974e-10
-2.23138e-10
7.8703e-09
-5.5724e-10
7.69754e-10
-2.12514e-10
-2.34381e-10
-9.64316e-09
-4.00913e-10
7.89198e-09
-8.5408e-09
-1.20964e-09
8.33099e-09
-8.25787e-09
2.80576e-11
1.95282e-10
6.64131e-09
1.24525e-10
8.6539e-09
-5.61276e-11
-1.62881e-09
4.34276e-10
8.67105e-09
-4.74734e-11
-7.51075e-09
7.92091e-11
-5.77139e-09
7.5104e-09
6.16227e-09
-1.74213e-09
-8.05231e-09
7.65403e-09
2.14042e-09
2.36628e-09
-2.16522e-09
-1.32449e-08
-3.58234e-10
-1.99006e-10
-7.5074e-10
1.33788e-09
-7.06349e-09
8.05679e-09
2.71723e-12
1.71231e-12
-8.06122e-09
6.75446e-09
1.4529e-11
-6.76541e-09
-3.57978e-12
5.05706e-12
7.3046e-12
-8.06659e-09
8.05423e-09
8.12758e-11
9.22961e-09
-2.39342e-10
8.60406e-10
1.55564e-08
-1.51282e-09
-1.59087e-08
1.70018e-08
-1.09305e-09
1.44501e-08
1.13085e-08
-1.05881e-08
-1.06568e-09
1.71103e-09
-6.45352e-10
-1.17149e-08
-4.39896e-11
1.17588e-08
-9.20771e-09
-1.56001e-09
2.10754e-09
-2.84918e-09
7.41642e-10
-1.32176e-10
-8.5633e-09
4.09036e-09
-5.99856e-09
1.9082e-09
2.36714e-09
-1.94951e-09
-4.17628e-10
-1.27374e-08
3.08088e-11
1.27066e-08
3.45006e-09
-1.08291e-09
1.13037e-08
-1.36515e-08
-3.10334e-09
5.57964e-09
-6.2178e-09
4.17272e-10
3.66164e-09
-5.83162e-10
-3.63612e-09
4.0534e-09
-8.46212e-09
-7.17001e-09
3.3605e-11
-1.0135e-09
3.76706e-09
1.11925e-09
-4.80962e-09
4.63932e-09
-1.72958e-09
-2.95923e-10
-4.77511e-09
6.32706e-09
-1.55195e-09
5.80911e-09
8.37625e-09
3.60148e-11
4.78725e-10
9.25505e-09
2.71135e-11
-9.25039e-09
4.62882e-09
1.25902e-08
-1.24848e-08
7.18606e-09
-1.96075e-09
-8.27212e-09
-4.28398e-09
2.94509e-10
-1.30319e-08
1.62932e-09
-6.16433e-10
-1.56846e-08
9.5222e-09
7.86178e-11
-3.71205e-10
-7.21711e-10
-6.87381e-09
-3.66669e-10
7.04692e-11
8.67241e-09
4.83511e-11
-4.97128e-11
1.50483e-08
-1.44291e-08
-3.05955e-12
-1.20137e-09
-2.13506e-09
6.72729e-09
9.90951e-10
-7.8486e-11
-8.96003e-09
5.95607e-09
-3.06152e-08
4.45824e-10
-8.17668e-09
4.20455e-10
-8.49781e-09
-1.92955e-10
8.27031e-09
-1.57561e-09
-6.79073e-09
1.49253e-09
7.53634e-11
8.65048e-09
-5.34379e-11
9.45326e-09
-6.75188e-09
6.7107e-09
7.55158e-09
1.47704e-08
1.04445e-08
-1.46901e-08
1.30485e-09
3.383e-09
-1.43732e-09
2.14176e-08
1.85427e-08
-2.07602e-08
-1.92e-08
-1.0447e-09
-1.03836e-09
1.37647e-09
7.06594e-10
-9.11172e-09
1.35493e-08
1.00125e-08
-3.22313e-10
4.61985e-10
4.66746e-10
5.038e-09
-6.86495e-09
1.82401e-09
2.93903e-12
-5.19375e-09
7.80333e-09
2.42842e-09
-7.3587e-09
8.19812e-10
-3.26056e-10
-7.65495e-09
-2.62709e-10
-9.381e-09
1.05025e-10
-1.62535e-10
9.43851e-09
-7.8249e-09
3.57204e-10
-1.87252e-10
-7.90644e-09
2.02276e-10
-1.20734e-10
-7.94113e-09
-7.54376e-11
-7.95674e-09
6.69274e-11
-5.13183e-11
-7.96285e-09
5.61389e-11
-5.00229e-11
9.30135e-09
-9.30409e-09
-1.77264e-12
4.50638e-12
9.30326e-09
-9.31403e-09
2.37839e-12
8.3978e-12
9.30303e-09
-9.30494e-09
-1.33009e-12
3.23473e-12
9.30391e-09
-2.48486e-12
-9.30507e-09
3.64e-12
9.30354e-09
-9.31389e-09
7.81888e-12
2.53175e-12
9.31279e-09
-9.30502e-09
-1.68874e-12
-6.07744e-12
9.30436e-09
-9.30773e-09
4.25147e-12
-8.75628e-13
9.30156e-09
-9.31204e-09
1.7834e-12
8.69774e-12
9.30159e-09
-9.30233e-09
-1.77833e-12
2.52173e-12
9.3102e-09
-9.30423e-09
-4.50241e-12
-1.46975e-12
9.30978e-09
-9.30154e-09
-8.06464e-12
-1.8303e-13
-6.0193e-12
9.31125e-09
-1.96982e-12
9.30846e-09
-2.59819e-13
-5.17111e-12
9.3011e-09
-9.30297e-09
-1.80775e-12
3.67846e-12
9.30815e-09
2.0763e-12
-6.31214e-12
9.30851e-09
-5.77646e-12
7.98897e-13
9.30082e-09
-9.3026e-09
-1.82334e-12
3.59355e-12
5.18555e-13
9.30849e-09
3.78053e-12
9.29914e-09
1.38129e-12
3.84034e-12
9.30096e-09
-9.30279e-09
-2.30348e-12
4.13249e-12
-9.32704e-09
9.31776e-09
4.33861e-12
4.93867e-12
-9.32677e-09
9.3185e-09
1.11428e-11
-2.87382e-12
9.31922e-09
-9.31732e-09
-3.19315e-12
1.28689e-12
9.30152e-09
-9.30303e-09
-3.63735e-12
5.15301e-12
-6.05776e-12
9.31021e-09
-2.5927e-12
9.30629e-09
-6.09996e-14
-4.64525e-12
9.31176e-09
-9.30667e-09
-8.48397e-12
3.39722e-12
2.69962e-12
9.30542e-09
2.08256e-12
9.29925e-09
7.22628e-12
3.3126e-12
9.29639e-09
4.94842e-13
4.21676e-12
-3.93503e-12
9.3127e-09
-9.30505e-09
-3.71503e-12
9.32209e-09
-9.32684e-09
4.05857e-12
6.87653e-13
9.31413e-09
-1.45005e-11
-9.31907e-09
1.94392e-11
4.85807e-12
9.30198e-09
-9.30974e-09
2.9064e-12
9.2969e-09
2.54215e-12
1.37877e-12
9.31744e-09
-9.32377e-09
6.70137e-12
-3.64994e-13
1.64661e-12
-9.30144e-09
-3.68884e-12
9.30349e-09
-9.32702e-09
9.31809e-09
7.81471e-12
1.11449e-12
9.29703e-09
1.6901e-12
2.23731e-12
9.31912e-09
-9.31615e-09
-3.83703e-12
8.67477e-13
9.32848e-09
-9.33679e-09
-3.50208e-11
4.3331e-11
9.30602e-09
2.59759e-12
-7.09921e-12
-9.32092e-09
2.73912e-12
-5.69877e-12
9.32388e-09
6.67373e-12
9.30644e-09
-1.35326e-12
9.3514e-09
-9.36555e-09
-5.93424e-11
7.34873e-11
-9.31895e-09
9.32127e-09
-3.22387e-12
9.07466e-13
9.3105e-09
-1.53621e-11
1.89928e-11
9.31832e-09
5.0459e-12
5.07804e-13
-9.32387e-09
4.78105e-12
-9.31835e-09
-2.58848e-12
9.31615e-09
-2.21006e-11
9.31821e-09
3.23697e-11
1.51029e-12
-9.32756e-09
1.08716e-12
9.32496e-09
-4.88164e-12
9.31208e-09
-9.30342e-09
-3.77303e-12
-4.6741e-11
9.34092e-09
5.7219e-11
7.83993e-12
9.30486e-09
-9.31047e-09
-2.2286e-12
1.9694e-12
-6.5909e-13
-9.3186e-09
9.31729e-09
7.30371e-12
-9.31034e-09
9.30263e-09
4.02104e-13
-9.31761e-09
-1.27768e-12
2.49814e-12
9.31638e-09
2.40647e-12
-9.3005e-09
9.30352e-09
-5.41708e-12
2.12116e-12
-7.68249e-12
-9.32068e-09
9.32624e-09
-7.98503e-09
-3.16364e-11
-9.31253e-09
-3.84837e-12
-3.1043e-12
9.31948e-09
9.31502e-09
-9.32322e-09
-2.64392e-12
1.08428e-11
9.39085e-09
-9.40203e-09
-9.62994e-11
1.07482e-10
-5.49917e-12
9.30025e-09
-9.30187e-09
7.12306e-12
9.3251e-09
-7.78621e-12
1.46778e-11
-9.33199e-09
3.56682e-12
9.30398e-09
-9.30932e-09
1.77509e-12
9.46122e-09
-9.48147e-09
-1.50049e-10
1.70303e-10
4.23883e-12
-9.31591e-09
-2.38701e-12
9.31406e-09
-9.70321e-09
4.24669e-10
9.64021e-09
-3.61665e-10
-9.32352e-09
2.17435e-12
7.25662e-12
9.31409e-09
-9.76506e-09
-2.36814e-10
2.98664e-10
9.54335e-09
-2.18278e-10
-9.58748e-09
2.62399e-10
-9.31855e-09
4.78774e-12
-9.49103e-13
9.31471e-09
8.85121e-09
-8.84754e-09
-6.63625e-11
6.26924e-11
9.68723e-09
3.36639e-10
-2.86936e-10
-9.73694e-09
9.45932e-11
-8.79239e-11
9.38418e-09
3.78792e-12
-9.32443e-09
7.49826e-12
9.31315e-09
1.5972e-10
-1.26482e-10
9.42798e-09
2.22056e-12
-6.45693e-14
-9.32551e-09
9.32335e-09
1.15247e-11
9.30356e-09
-9.31604e-09
9.63473e-13
1.32461e-11
-9.3173e-09
-6.9113e-12
9.31097e-09
1.60573e-12
-9.32526e-09
2.86664e-14
9.32362e-09
2.26263e-10
-1.91098e-10
9.50819e-09
-9.85782e-09
9.8079e-09
-3.53254e-10
4.03176e-10
8.20042e-13
9.85407e-12
-9.32489e-09
9.31421e-09
-8.76199e-09
5.2017e-12
2.67054e-12
8.75412e-09
-8.75901e-09
2.96908e-12
-5.95211e-12
3.19649e-10
-2.65183e-10
9.63277e-09
-8.77256e-09
6.25306e-12
7.29999e-12
-8.76566e-09
3.12536e-12
-1.00232e-11
-9.32393e-09
-8.86813e-13
1.10615e-11
9.31376e-09
4.28514e-12
-8.77223e-09
2.28232e-12
2.74776e-13
-6.42424e-13
9.23694e-09
-9.23657e-09
8.7684e-09
-1.89623e-12
-8.78181e-09
1.53019e-11
-9.32089e-09
-6.99129e-13
5.75441e-12
9.31584e-09
-7.98364e-09
4.19278e-11
-4.33133e-11
8.76873e-09
-3.54571e-12
-8.77263e-09
7.45249e-12
8.76873e-09
-3.45104e-12
-8.77227e-09
6.99457e-12
8.76796e-09
-8.78014e-09
4.33871e-12
7.84303e-12
-9.81331e-09
1.73006e-10
-1.24757e-10
9.3718e-09
1.12075e-10
-9.38929e-09
-9.42442e-09
-1.32133e-10
1.51513e-10
9.40504e-09
1.75219e-10
-9.43992e-09
8.76254e-09
-8.77452e-09
-5.82002e-14
1.20364e-11
-2.10988e-11
2.71976e-11
-9.34148e-09
9.33538e-09
9.49376e-09
2.62748e-10
-9.53025e-09
-2.01764e-10
2.30896e-10
9.46463e-09
9.60533e-09
-9.65065e-09
3.64964e-10
-8.76321e-09
8.75304e-09
8.94951e-12
1.2219e-12
-8.74972e-09
-7.98869e-12
-5.49519e-12
-4.08072e-11
5.5844e-11
-9.35591e-09
9.34087e-09
-8.76366e-09
-1.02069e-12
1.49588e-11
-2.91454e-10
3.36627e-10
9.56016e-09
-8.75233e-09
3.12019e-12
-1.44505e-11
-8.76819e-09
6.04975e-12
9.81221e-12
-8.75724e-09
-1.74573e-11
6.50069e-12
-8.77187e-09
1.72243e-11
-2.59298e-12
-9.75574e-09
9.70683e-09
-3.67952e-10
4.1686e-10
-8.17613e-11
8.65229e-11
9.36704e-09
-8.7564e-09
1.93801e-12
-1.74091e-11
2.97853e-12
-8.77188e-09
1.25006e-11
3.67588e-10
-9.86313e-09
-3.06395e-10
9.80194e-09
8.76784e-09
-4.00924e-12
-8.77157e-09
7.74353e-12
-9.89034e-09
-3.22938e-10
3.55451e-10
8.76231e-09
-8.21712e-12
-8.76473e-09
1.06362e-11
-8.75918e-09
8.75468e-09
1.23342e-12
3.26068e-12
-8.75682e-09
7.85678e-12
-1.02111e-11
-8.77099e-09
1.05881e-11
3.58277e-12
-8.76537e-09
-7.74434e-12
2.11765e-12
-8.78113e-09
3.45382e-12
1.23108e-11
8.77794e-09
-1.22606e-11
2.71889e-12
-6.97135e-12
-4.98793e-12
-9.09054e-09
9.1025e-09
-7.98641e-09
3.69075e-11
-3.41459e-11
-5.90309e-12
-3.67832e-12
-7.08724e-12
4.68618e-12
-1.56441e-12
-5.49484e-12
1.62165e-12
2.93205e-12
-2.78147e-12
5.65491e-12
1.51246e-11
-3.80356e-10
-9.98928e-09
4.10413e-10
9.95922e-09
8.77743e-09
-8.58773e-12
-1.16786e-13
7.75509e-12
5.46009e-12
-9.10172e-09
9.0885e-09
8.75996e-09
-8.78139e-09
5.79816e-12
1.56398e-11
-8.51235e-12
8.77766e-09
-4.16389e-13
4.19754e-10
-9.09262e-09
-4.42962e-12
-1.32641e-12
9.09838e-09
-8.29392e-12
8.77674e-09
-4.93531e-13
-2.2638e-12
-9.09205e-09
-3.62232e-12
9.09793e-09
8.76038e-09
-8.78216e-09
5.49446e-12
1.62841e-11
8.77488e-09
-5.6095e-12
-6.73223e-12
3.56308e-12
-7.65196e-13
-9.09879e-09
9.09599e-09
8.76893e-09
-3.15137e-12
-1.27454e-11
1.8158e-13
2.29887e-12
-9.09423e-09
9.09175e-09
8.76053e-09
-8.78212e-09
4.89169e-12
1.66951e-11
-8.13008e-11
-9.95819e-09
9.89604e-09
1.43449e-10
8.76927e-09
-8.77299e-09
-5.85593e-12
9.57776e-12
-2.50411e-12
8.76856e-09
1.78553e-12
1.1545e-11
1.34631e-10
-9.95949e-09
-6.45903e-12
-9.09768e-09
3.3042e-12
9.10083e-09
8.76599e-09
-9.814e-12
-8.7691e-09
1.29274e-11
8.76563e-09
2.51199e-12
-5.83658e-12
-6.83981e-13
3.42139e-12
-9.09704e-09
9.09431e-09
1.88445e-12
-6.83541e-12
8.75963e-09
4.51422e-13
-9.09433e-09
2.95146e-12
9.09093e-09
-8.77647e-09
8.76111e-09
1.59578e-11
-5.9454e-13
9.95496e-09
2.10755e-10
-1.01626e-08
-3.12124e-12
-8.76673e-09
-1.54079e-11
5.6647e-12
8.77795e-09
-6.14953e-12
-1.18407e-11
-8.7831e-09
8.60268e-13
1.55111e-11
3.95488e-12
2.82937e-12
-9.09948e-09
9.09269e-09
-8.77891e-09
-1.81123e-12
-2.37755e-12
2.96428e-12
9.29866e-09
8.76827e-09
1.88778e-13
-8.06992e-12
5.4118e-12
-9.62967e-13
-9.10119e-09
9.09674e-09
-9.83494e-13
-8.79881e-09
2.08865e-11
8.77749e-09
-7.69958e-12
-9.25975e-12
5.23055e-12
-9.10138e-09
-7.49161e-13
9.0969e-09
8.77847e-09
-7.44691e-12
-1.74806e-12
9.8852e-09
8.95205e-12
4.32131e-12
-9.10114e-09
9.08786e-09
8.78686e-09
-5.11423e-12
-8.81557e-09
3.3826e-11
8.76861e-09
1.2164e-12
-3.83851e-12
1.21431e-12
1.53123e-12
-9.09989e-09
9.09715e-09
-4.57636e-12
8.19184e-13
8.76486e-09
-9.09919e-09
4.54355e-12
-1.4866e-13
9.0948e-09
8.8105e-09
-1.58765e-11
-8.83561e-09
4.09848e-11
-7.99345e-09
-2.86204e-11
1.01278e-08
7.79145e-10
-3.854e-10
-1.05215e-08
2.53124e-12
-1.52963e-11
8.79963e-09
-9.12336e-09
1.88757e-11
-7.56825e-12
9.11205e-09
9.21598e-09
8.75164e-11
-9.2338e-09
-6.96933e-11
-1.00702e-08
8.60061e-10
-1.84482e-11
1.84612e-11
8.81049e-09
3.00211e-11
-9.14712e-09
-1.67622e-11
9.13387e-09
-8.00311e-09
4.30132e-11
-3.33576e-11
-1.1437e-10
-9.92135e-09
9.97043e-09
-9.94715e-09
9.98263e-09
-1.49845e-10
-3.21676e-11
3.81839e-11
8.85308e-09
-8.85909e-09
5.27768e-11
-9.17481e-09
-4.35967e-11
9.16563e-09
7.66316e-11
9.20396e-09
-6.46118e-11
9.28282e-09
1.38932e-10
-9.32546e-09
-9.62937e-11
3.46425e-10
-9.88317e-09
-9.8093e-09
6.80897e-11
-5.40674e-11
-8.92273e-09
8.90871e-09
9.998e-09
-3.59081e-11
2.05404e-11
-9.84483e-09
-2.83723e-10
3.13917e-10
9.81464e-09
-7.99978e-09
2.90438e-11
-3.23764e-11
-1.56309e-10
1.6613e-10
9.92568e-09
-9.9355e-09
1.12707e-10
9.27191e-09
-1.01802e-10
9.32514e-09
-9.31528e-09
-8.16623e-12
-1.69506e-12
9.99097e-09
-9.32847e-09
9.31779e-09
4.56538e-12
6.11605e-12
-9.32326e-09
-1.06021e-11
3.92302e-12
9.32993e-09
-9.32492e-09
-3.78807e-12
5.44881e-12
-9.01723e-09
-7.90679e-11
1.1381e-10
8.98248e-09
9.30511e-09
-9.31294e-09
-1.9611e-12
9.78745e-12
1.96367e-10
-9.87507e-09
2.48383e-10
9.95433e-09
-2.11741e-10
-9.81928e-09
9.77883e-09
-9.31932e-09
9.31951e-09
3.57718e-12
-3.76681e-12
-9.3228e-09
-2.99628e-12
6.47228e-12
-9.32304e-09
9.32023e-09
5.33069e-12
-2.51962e-12
8.31027e-09
-8.351e-09
1.11525e-10
-7.07911e-11
3.51529e-10
-1.08995e-08
9.32055e-09
4.90076e-13
2.21012e-12
-9.32325e-09
-9.32183e-09
9.32026e-09
4.13635e-12
-2.56735e-12
-9.3311e-09
3.82219e-12
5.44376e-12
-9.3245e-09
9.32708e-09
-3.1038e-12
5.20455e-13
-9.18959e-09
9.13069e-09
-1.29581e-10
1.88482e-10
9.91005e-09
-2.78661e-10
-9.32541e-09
7.61213e-13
9.32662e-09
-1.97163e-12
2.13169e-12
9.31817e-09
4.83331e-12
-9.32932e-09
-2.5565e-12
9.5176e-12
9.32236e-09
-1.27616e-13
9.3208e-09
1.72017e-12
-9.32239e-09
-9.31998e-09
-2.61662e-13
2.17149e-12
9.31807e-09
-9.23217e-09
1.83891e-10
-1.41304e-10
-9.32807e-09
9.32557e-09
5.60525e-12
-3.10954e-12
-5.70015e-13
-9.32648e-09
9.3303e-09
-3.25905e-12
-9.31827e-09
-3.15697e-12
-7.04379e-12
9.31999e-09
4.58374e-12
-9.3221e-09
-2.47025e-12
9.93514e-09
-1.82908e-10
3.92819e-10
-9.32156e-09
9.32459e-09
-5.63915e-12
2.61028e-12
-9.29061e-09
-1.46848e-10
2.05281e-10
-9.32686e-09
9.32078e-09
6.8594e-12
-7.76517e-13
-9.32898e-09
-1.53372e-12
-2.16583e-13
9.33073e-09
-3.06336e-10
6.81382e-13
4.47674e-13
-9.32021e-09
9.31908e-09
-4.76892e-12
9.31056e-09
-9.32096e-09
-4.91576e-12
-3.10114e-12
-8.81119e-15
9.32965e-09
-9.32731e-09
-2.32812e-12
-6.17947e-12
5.94916e-13
-9.32374e-09
-1.01352e-10
1.4465e-10
-9.06052e-09
-2.30952e-12
-9.3246e-09
2.41589e-12
-9.32364e-09
9.32107e-09
1.723e-12
8.4756e-13
-8.01845e-09
-2.00465e-11
-9.31773e-09
7.3699e-13
-6.65268e-12
-7.45223e-13
-9.32377e-09
1.47039e-12
-1.58463e-12
9.32262e-09
-2.42266e-13
-9.32079e-09
-1.33446e-10
1.76078e-10
-9.33324e-09
-9.3258e-09
7.38052e-12
-3.1407e-12
-9.32385e-09
-4.77089e-12
-2.47738e-12
-3.92744e-12
-9.31879e-09
1.21027e-12
9.32151e-09
9.32065e-09
-9.32365e-09
2.49169e-12
5.00672e-13
-2.45215e-10
9.82882e-09
-9.88994e-09
1.79762e-12
9.32772e-09
-7.42786e-12
-9.32209e-09
-3.97255e-12
9.33025e-09
-9.31754e-09
-8.73469e-12
5.1704e-12
9.32272e-09
-9.32989e-09
1.99386e-12
1.28431e-12
-9.32452e-09
-2.17316e-12
-6.25595e-12
2.50151e-12
-9.31904e-09
-9.32014e-09
-4.64549e-12
9.32071e-09
4.07344e-12
-1.80678e-09
1.80317e-09
3.60385e-12
2.07075e-12
-9.3254e-09
-2.16252e-12
9.32549e-09
8.52972e-09
-8.55819e-09
-1.0497e-10
-9.3204e-09
9.32308e-09
-3.69916e-12
1.0201e-12
9.32094e-09
9.14884e-14
-3.93937e-12
-9.31709e-09
-9.31976e-09
-7.0527e-12
-4.64351e-14
-9.32594e-09
-1.70922e-12
-4.1666e-13
9.65506e-09
-9.7242e-09
-1.81039e-09
1.80778e-09
2.61031e-12
2.30876e-12
-1.52841e-12
9.32381e-09
9.77594e-09
-2.53513e-10
-9.31488e-09
9.32569e-09
-9.71884e-12
-1.0913e-12
-5.23761e-12
9.32159e-09
-9.31949e-09
3.14258e-12
-2.4508e-10
9.71807e-09
3.02949e-10
-5.70209e-13
-9.31855e-09
9.3221e-09
-2.97824e-12
-8.0201e-09
4.14998e-11
-3.98437e-11
-9.31638e-09
-3.56142e-12
5.06582e-12
-9.31942e-09
9.31908e-09
-3.22947e-13
6.61648e-13
8.27759e-09
-6.86762e-11
-1.81044e-09
1.81078e-09
-3.48782e-13
9.31131e-09
-9.30596e-09
-7.70015e-12
2.34987e-12
1.66866e-12
9.31749e-09
-9.32278e-09
3.62134e-12
9.52799e-09
-9.51692e-09
-1.74878e-11
6.42396e-12
-9.31621e-09
9.31773e-09
2.44766e-12
-3.96472e-12
1.35471e-12
-9.32541e-09
7.67095e-12
9.45781e-09
1.886e-12
-9.46087e-09
1.17855e-12
1.83821e-12
9.3176e-09
-9.32144e-09
2.00028e-12
6.03716e-12
-9.32626e-09
-1.86599e-13
-4.8486e-09
4.84576e-09
1.67525e-12
1.16849e-12
8.13997e-12
-1.79936e-09
1.79122e-09
4.8146e-09
2.54734e-11
-4.83193e-09
-4.84552e-09
-9.71603e-13
-2.11764e-12
9.46494e-09
-9.46714e-09
3.29597e-13
1.86744e-12
4.29601e-13
-1.80721e-09
9.54564e-09
-9.60683e-09
5.11644e-10
9.53754e-09
-4.59233e-10
-9.58995e-09
-4.85076e-09
8.11999e-12
4.84307e-09
-9.31769e-09
-3.10141e-12
6.51205e-13
-9.31161e-09
9.32458e-09
-3.41157e-11
2.1145e-11
-2.99316e-12
-9.32104e-09
-1.7639e-12
9.32042e-09
7.31547e-13
2.8755e-12
-9.32402e-09
9.65738e-09
-2.26244e-10
-9.3971e-09
1.76615e-10
9.36514e-09
2.15876e-12
2.86416e-12
9.31818e-09
-9.3232e-09
-9.3168e-09
9.31939e-09
-5.90185e-13
-2.00403e-12
-9.3265e-09
-3.79387e-12
3.41438e-12
9.32688e-09
9.45115e-09
-9.47582e-09
-4.79312e-10
5.03986e-10
-3.27943e-12
-1.80711e-09
9.45169e-09
-9.45533e-09
-1.44698e-11
1.81078e-11
2.1129e-12
9.31623e-09
3.77681e-12
9.32031e-09
-9.3148e-09
-9.28372e-12
1.93091e-12
4.84472e-09
-4.84993e-09
4.36213e-14
-1.81048e-09
1.16406e-11
9.29999e-09
-9.29998e-09
-1.16457e-11
-1.81282e-09
1.81052e-09
2.30318e-12
9.69643e-12
9.26368e-09
-9.26174e-09
-8.02431e-09
3.64153e-11
-3.22028e-11
-4.20402e-12
4.85001e-09
9.30988e-09
1.26328e-13
-9.30178e-09
-8.22336e-12
3.40021e-12
9.43868e-09
-9.44182e-09
-2.61542e-13
-4.65162e-12
-9.44936e-09
2.14586e-12
9.45187e-09
-9.31575e-09
9.31278e-09
-5.10257e-11
5.39917e-11
9.60887e-09
-2.16679e-10
9.50492e-09
-9.48087e-09
-2.0653e-11
9.51209e-09
-9.49194e-09
-2.4798e-11
6.73123e-12
-9.31542e-09
-6.44929e-12
9.31513e-09
9.37616e-09
-9.39077e-09
-3.09782e-10
3.2439e-10
-1.58594e-11
-4.53304e-12
9.54838e-09
-1.62288e-11
9.48806e-09
-1.40211e-11
-9.46009e-09
9.43868e-09
5.55578e-12
9.44095e-09
-9.43985e-09
-1.34573e-11
1.23488e-11
1.98598e-10
-9.44869e-09
-1.47016e-10
-4.85027e-09
4.84784e-09
1.54062e-13
2.27324e-12
8.48444e-09
-1.01571e-10
9.41779e-09
-1.05043e-12
-9.43296e-09
-3.92007e-12
-9.32291e-09
9.32159e-09
9.30687e-09
9.74412e-12
-3.10939e-11
-9.31842e-09
3.79092e-11
-9.35639e-09
9.33568e-09
2.19473e-10
-1.9876e-10
-2.55836e-11
9.48293e-09
7.58988e-12
2.21823e-12
9.41871e-09
-9.44651e-09
9.56131e-09
2.4616e-10
-2.52509e-13
-1.80855e-09
1.80881e-09
-1.57486e-10
-9.50788e-09
9.35353e-09
2.83692e-10
-2.61059e-10
4.84497e-09
7.41738e-13
-4.84596e-09
1.22814e-10
-8.39874e-09
-7.50744e-11
-4.84708e-09
-2.64682e-12
-5.38739e-13
5.69858e-11
-9.29853e-09
-7.42045e-11
-1.86649e-10
9.29681e-09
1.76012e-10
-9.28617e-09
9.09601e-09
-9.31854e-09
-1.51105e-12
9.32374e-09
-3.68609e-12
-9.32065e-09
9.31746e-09
2.80452e-12
3.88758e-13
-4.07229e-12
-1.80875e-09
6.99011e-09
-2.50356e-12
-5.23991e-13
-6.98708e-09
-2.37933e-10
2.35072e-10
1.45046e-11
9.42158e-09
3.31517e-12
-9.4394e-09
-9.31947e-09
9.31639e-09
-2.59242e-12
5.67532e-12
9.4792e-09
-1.30016e-11
3.09879e-13
4.84346e-09
9.31124e-09
-5.4496e-12
-9.30705e-09
1.26106e-12
-4.84669e-09
1.89438e-12
-2.28818e-12
9.33367e-09
1.69685e-10
-1.67671e-10
9.40643e-09
-9.42904e-09
-3.94149e-10
4.16757e-10
8.43309e-09
-8.99574e-11
9.30626e-09
-9.31254e-09
5.37013e-13
5.74126e-12
9.32862e-09
-1.48907e-10
1.53954e-10
-9.32545e-09
6.70446e-12
9.31807e-09
6.73175e-13
2.26539e-12
9.32419e-09
-9.18428e-09
9.20539e-09
-2.306e-10
2.09489e-10
9.51965e-09
9.30706e-09
-9.29574e-09
-9.25767e-11
8.12582e-11
-9.52344e-11
-4.85135e-09
7.49576e-13
3.91095e-12
9.32222e-09
-9.31986e-09
-2.51447e-12
1.57015e-13
9.41742e-09
-9.42215e-09
-1.25582e-11
1.72901e-11
9.32372e-09
-1.28346e-10
1.33249e-10
1.90834e-12
-9.27208e-09
9.2703e-09
3.69502e-11
-4.70794e-11
9.31208e-09
-9.30195e-09
9.31789e-09
6.74191e-12
-2.42007e-12
9.30488e-09
5.77758e-12
-9.30933e-09
-1.32787e-12
7.30329e-13
-9.32066e-09
2.82241e-13
9.31964e-09
-9.17621e-09
-2.77065e-10
2.68999e-10
-2.34504e-12
9.31066e-09
9.31711e-09
-9.86151e-11
1.05226e-10
9.30884e-09
-1.26028e-10
1.1115e-10
-9.29396e-09
8.95744e-11
-9.29934e-09
9.3075e-09
-9.77397e-11
-5.02501e-12
9.45849e-09
-1.25145e-11
-1.21848e-11
1.03882e-11
-4.84655e-09
-1.85197e-12
-2.94591e-12
9.32959e-09
-4.15067e-12
-7.54326e-12
-2.40239e-12
-9.31819e-09
9.32281e-09
-2.22042e-12
9.48204e-09
-1.53493e-10
9.30094e-09
-9.28729e-09
-1.59749e-10
1.46098e-10
9.77246e-12
5.99109e-14
-9.32531e-09
9.31548e-09
9.30846e-09
-9.30579e-09
-5.06895e-12
-9.32166e-09
-1.39527e-12
-2.39301e-12
9.31506e-09
-3.08987e-12
6.22198e-13
9.30618e-09
-1.92516e-12
3.9674e-12
9.41419e-09
-9.42318e-09
7.43959e-14
-9.32068e-09
1.13479e-12
7.90928e-12
-1.18754e-12
-9.32737e-09
-8.56492e-14
-9.31589e-09
-3.87934e-12
3.61447e-10
-3.45786e-10
5.11949e-12
2.37618e-13
-9.3239e-09
-8.036e-09
-3.42886e-11
1.92835e-10
-9.25124e-09
9.26832e-09
-2.09911e-10
9.31553e-09
5.01737e-13
9.32526e-09
-6.35139e-12
-9.31829e-09
9.32011e-09
3.0092e-13
4.84705e-12
-3.33447e-10
-9.15963e-09
3.16862e-10
9.4055e-09
-3.10396e-11
-9.39164e-09
1.71705e-11
-4.84273e-09
-2.72595e-12
-1.09978e-12
-1.23571e-11
-9.29718e-09
9.55359e-12
9.32662e-09
-9.32763e-09
-2.84845e-12
3.85974e-12
1.75047e-10
9.44593e-09
9.32783e-09
-9.11563e-11
8.04348e-11
5.45755e-12
9.40432e-09
9.35833e-12
-9.41914e-09