/*--------------------------------*- C++ -*----------------------------------*\
  =========                 |
  \\      /  F ield         | OpenFOAM: The Open Source CFD Toolbox
   \\    /   O peration     | Website:  https://openfoam.org
    \\  /    A nd           | Version:  8
     \\/     M anipulation  |
\*---------------------------------------------------------------------------*/
FoamFile
{
    version     2.0;
    format      ascii;
    class       volVectorField;
    location    "2";
    object      U;
}
// * * * * * * * * * * * * * * * * * * * * * * * * * * * * * * * * * * * * * //

dimensions      [0 1 -1 0 0 0 0];

internalField   nonuniform List<vector> 
17372
(
(0.000573669 0.00102517 2.20779e-21)
(8.34373e-05 0.000225222 7.58018e-21)
(0.000716391 0.00122086 1.49668e-23)
(0.000606986 0.00113062 3.04494e-21)
(0.000114961 1.84673e-05 -4.47036e-22)
(5.77807e-05 0.000256267 -3.50572e-21)
(0.000575012 0.000955089 2.04804e-22)
(0.00024002 0.000531618 -8.49528e-22)
(0.000715231 0.00122523 -4.58175e-22)
(0.000450492 0.000626833 9.04327e-22)
(0.000712527 0.00107055 -2.20788e-21)
(0.000131328 0.000186012 1.83521e-21)
(0.00119787 7.10209e-05 2.66994e-21)
(0.000950789 7.3645e-05 1.97161e-21)
(0.000568818 0.000987751 -2.2541e-22)
(0.000411356 0.00071295 -1.01791e-21)
(0.000130351 0.000174496 -2.79795e-21)
(0.000381644 0.00017002 1.95128e-21)
(0.000979474 0.000107795 -1.43554e-24)
(0.000187161 0.0005876 0)
(0.000567147 0.00098726 -1.05674e-22)
(0.000481286 0.000996976 -3.16748e-22)
(0.000597919 0.00102212 -2.88016e-21)
(0.000204247 0.000576855 -5.84915e-21)
(0.000417681 0.000128897 -5.41511e-21)
(0.000555985 0.000984748 1.0591e-22)
(0.000596457 0.00101998 4.95024e-24)
(0.000655812 0.00112124 8.34608e-22)
(0.000971734 -2.58598e-05 1.51169e-21)
(0.00059702 0.00102048 -1.4532e-21)
(0.000719746 0.00122599 -4.76494e-22)
(8.99622e-05 8.74571e-05 2.47037e-21)
(0.000597883 0.0010211 -8.08522e-24)
(0.000561224 0.000990117 -4.99121e-22)
(0.000166312 0.000699784 9.75679e-22)
(0.000559222 0.000949602 -9.12023e-24)
(0.00057001 0.000984243 0)
(0.000258694 0.000177281 -5.41061e-23)
(0.000577492 0.00104386 5.7708e-22)
(0.000514547 0.000890758 6.75998e-23)
(0.000596196 0.00101994 1.21047e-23)
(0.000636752 0.00115236 5.41799e-22)
(0.000645798 0.00112387 6.66079e-22)
(0.000637878 0.000577653 5.02127e-23)
(0.000534208 0.000947994 0)
(0.00059899 0.00102418 1.41633e-21)
(4.63401e-05 0.000198287 7.19198e-22)
(0.000411912 0.00074244 -1.76537e-22)
(0.000571595 0.000987398 -3.61349e-22)
(0.00058204 0.000968699 8.63713e-22)
(2.43604e-05 0.000265936 1.73943e-21)
(0.000562577 0.00098696 6.29902e-22)
(0.0005722 0.000980067 -9.011e-24)
(0.000721897 0.00122282 1.58958e-21)
(0.000405657 0.000176184 -1.56194e-21)
(0.000216774 0.000126024 -4.92479e-22)
(0.000562893 0.000986076 -4.1649e-22)
(0.000610404 0.00116277 4.85263e-23)
(0.000722161 0.00122471 -5.27027e-22)
(0.000213658 0.000490623 -1.42765e-21)
(0.000532533 0.000968008 1.82578e-23)
(0.000469499 0.000567393 -7.36866e-22)
(0.000596829 0.00102094 1.44068e-21)
(0.000614018 0.00107599 1.19405e-21)
(0.000654932 0.00111679 -2.92816e-24)
(0.000202648 0.000490846 1.76481e-21)
(0.000537884 0.000955106 -5.36679e-22)
(0.000505762 0.000938724 -7.90007e-23)
(0.000268326 0.00110566 -4.18116e-24)
(0.000268692 0.000196506 3.73824e-22)
(0.000705487 0.000405946 0)
(0.000484761 0.000815181 3.46707e-22)
(0.000666282 0.00115933 -6.38932e-22)
(0.000575847 0.00094163 1.80421e-21)
(0.000521601 0.000892466 -1.81251e-21)
(0.000570258 0.000975125 -1.95311e-21)
(0.000655876 0.00110022 -6.88049e-22)
(0.000548145 0.00098174 0)
(0.000511055 0.00104016 9.07228e-22)
(0.00056694 0.0010338 -4.87513e-21)
(1.38899e-05 0.000234822 0)
(0.000530507 0.00097366 6.68587e-22)
(0.00058611 0.00103667 -1.54003e-21)
(0.000116667 3.55773e-05 -2.38307e-21)
(1.39175e-05 0.000242225 -2.26909e-22)
(0.00055651 0.00098972 0)
(0.000579184 0.000965004 -1.76308e-21)
(0.000591424 0.00105353 -3.50125e-24)
(0.000565597 0.000989932 3.25184e-22)
(7.1755e-06 0.000433378 0)
(0.000681642 0.00122037 -1.63446e-22)
(0.00055493 0.000988399 1.34042e-22)
(0.000441853 0.000482781 0)
(0.000528095 -5.7742e-05 -1.68679e-21)
(-6.83506e-06 0.000500487 -1.15149e-21)
(0.000595961 0.00102023 1.60167e-21)
(0.00129128 0.000176564 0)
(4.95802e-05 0.000191269 3.31514e-22)
(0.000417984 0.000161951 -1.71613e-21)
(0.00022438 0.000560591 1.24524e-24)
(0.000845819 0.000271613 -1.01018e-21)
(0.000578794 0.000975657 1.50773e-21)
(0.000264146 0.000186445 -2.13567e-22)
(0.00015 0.000368555 -1.87005e-21)
(0.000722441 0.00122426 0)
(0.000557953 0.000985532 1.36081e-23)
(0.000708328 0.00122949 3.53092e-24)
(0.000949032 0.00078747 -7.91577e-21)
(0.000129581 0.000124245 0)
(0.00057974 0.000977203 -2.69148e-21)
(0.000659755 0.00149588 0)
(0.000296319 0.000295992 1.82319e-21)
(0.000580729 0.000977872 1.56765e-21)
(0.00058258 0.000977688 -1.68199e-21)
(0.00070697 0.00122258 0)
(0.000527077 0.000903211 -2.04367e-22)
(0.000581539 0.000978882 -1.60082e-21)
(0.000564219 0.000986232 -3.0605e-22)
(0.000555442 0.00105948 0)
(0.000582274 0.00097974 0)
(0.000718145 0.00122472 4.76031e-22)
(0.000582691 0.000980045 -4.08288e-22)
(0.000721816 0.00122418 5.14157e-22)
(0.000566797 0.00107009 2.10247e-22)
(0.000275733 0.00020642 -2.20625e-22)
(0.000723172 0.00122359 5.37824e-22)
(0.000719195 0.0012157 1.50975e-21)
(0.000482337 0.000510997 6.39147e-22)
(6.66409e-05 -7.6376e-06 -1.15192e-21)
(0.000583721 0.000978327 -8.25139e-22)
(0.000722436 0.00122294 -5.84003e-22)
(0.000717452 0.00121492 0)
(0.000596107 0.00102053 1.48955e-21)
(0.000582429 0.000973551 8.55404e-22)
(0.000719688 0.00121711 4.81311e-22)
(0.000481133 0.000511721 8.67476e-22)
(0.000568531 0.00112287 -1.09597e-21)
(0.000719413 0.00121782 -4.43942e-22)
(0.000568919 0.00113565 -1.12517e-21)
(0.000134398 0.000139686 -1.48995e-21)
(0.00049055 0.000597558 1.58128e-21)
(0.000719696 0.00121827 4.28256e-22)
(0.000720748 0.00121841 0)
(0.000721467 0.00122219 -6.26728e-22)
(6.25327e-05 0.000484427 1.49897e-22)
(0.000720333 0.00121835 0)
(0.000721387 0.00122058 8.46699e-24)
(0.0010442 7.15153e-05 -1.48374e-21)
(0.000697307 0.000614264 -1.50724e-21)
(0.000613901 0.00112438 -7.67728e-24)
(0.000527643 0.000937539 -2.31042e-22)
(0.00056299 0.000942414 -1.54108e-21)
(0.000465901 0.00122672 -1.30692e-23)
(0.000670325 0.00114932 5.79218e-22)
(3.62441e-05 0.000328079 1.3791e-21)
(0.000621816 0.00102034 6.64534e-22)
(0.0010632 0.00144592 1.43796e-21)
(8.32523e-05 1.95588e-05 -8.43742e-23)
(8.65409e-05 0.00050071 -3.16107e-21)
(0.00057945 0.000974789 1.86375e-21)
(0.000721474 0.00122334 -1.21971e-21)
(0.000128169 0.000141245 -7.77574e-22)
(0.000635472 0.00111489 1.39308e-21)
(0.000585539 0.000107299 3.72109e-21)
(0.000596014 0.00101987 5.03978e-24)
(0.00067517 0.0004741 1.48303e-21)
(0.000674942 0.00122673 -2.53112e-21)
(0.000617298 0.000233342 -1.79699e-21)
(0.000532591 0.000942091 4.59001e-22)
(0.000544036 0.000948615 -1.00783e-21)
(0.000258204 0.000782345 -8.41618e-23)
(0.000532576 0.000971999 3.1511e-22)
(0.000524063 0.000965864 3.56295e-21)
(0.000277687 0.000315177 1.80225e-21)
(0.000716439 0.00121439 -2.20442e-21)
(0.000517541 0.000977422 7.63955e-22)
(0.000659633 0.00110292 -3.60856e-22)
(0.000186318 0.000562553 1.7585e-21)
(0.000494975 0.000577132 4.58883e-22)
(0.00013417 0.000155443 -1.00873e-22)
(0.000189183 0.000699666 1.94131e-21)
(0.00062 0.00112222 2.74263e-21)
(1.78554e-06 0.000418363 0)
(0.000382346 0.000767316 1.00503e-22)
(0.000575141 0.000985152 -7.90591e-22)
(0.000723551 0.0012206 -6.39628e-24)
(0.000563173 0.00107436 -1.06341e-22)
(5.48926e-05 0.00014128 5.10864e-22)
(0.00028301 0.00111083 -4.11468e-23)
(4.40336e-05 3.06874e-05 6.47418e-22)
(0.000512247 0.000958402 1.1753e-22)
(0.000447839 0.000864665 -1.31581e-21)
(0.000644337 0.00106528 -4.95854e-22)
(0.00024619 0.000448606 0)
(0.000583816 0.000978718 2.48787e-21)
(5.61149e-05 0.000121953 0)
(0.000562187 0.00111107 0)
(0.000624063 0.00114267 2.92694e-22)
(0.000234072 0.000246539 -9.75589e-22)
(0.00112618 0.000802109 0)
(4.88626e-05 0.000119133 -6.92402e-22)
(0.000436451 0.000634361 -1.2089e-22)
(0.000407176 -2.21926e-05 6.66369e-25)
(0.000590695 0.00105692 -1.07133e-21)
(0.000443825 0.000800682 -2.33793e-23)
(9.72641e-05 2.32253e-05 1.77065e-21)
(0.000623265 0.00111642 0)
(0.000795486 0.000379894 2.61861e-22)
(0.000565288 0.000986486 -7.36413e-24)
(0.000717406 0.00122458 6.78624e-22)
(0.000631411 0.00110812 -1.57629e-21)
(0.000595697 0.00102016 1.52195e-21)
(0.000644329 0.0011201 -4.26395e-21)
(0.000633458 0.00111217 1.51024e-21)
(5.95774e-05 0.000163347 0)
(0.00054616 0.000978098 0)
(0.000577803 0.00098487 2.02648e-21)
(0.000519855 0.000891504 3.59554e-21)
(0.000871197 0.000245129 1.0331e-21)
(0.000502279 0.00115937 -1.61729e-22)
(0.000568106 0.00103881 -8.09548e-22)
(0.000191047 0.000529499 0)
(5.88064e-05 0.000132007 1.72768e-22)
(0.000952641 0.000142135 -5.44971e-21)
(0.000717948 0.00122461 -6.51422e-22)
(0.000399775 1.30875e-06 4.48674e-21)
(0.000608965 0.00107002 6.78192e-23)
(0.000272247 0.000733139 5.51818e-21)
(-0.000498616 0.000375058 -2.44242e-23)
(0.000580905 0.000975275 0)
(0.000254407 0.00016832 4.53918e-22)
(0.000632755 0.0011272 2.0658e-21)
(0.00046196 0.000457684 -2.59989e-21)
(0.000643352 0.00115734 2.0965e-21)
(0.000645684 0.00114911 4.28402e-21)
(0.00097702 -7.39377e-06 2.2319e-22)
(0.000387489 0.000522508 -1.42714e-21)
(0.000447042 0.000808016 0)
(0.000232267 0.000980802 1.04412e-23)
(0.000521008 0.00095816 -1.14711e-21)
(0.000602719 0.00100896 -7.47958e-22)
(0.000620929 0.00112938 1.7031e-21)
(8.79515e-05 2.1266e-05 0)
(0.000440096 0.000214867 1.89598e-21)
(0.000850845 0.00051752 1.88414e-21)
(0.000594303 0.00102 0)
(0.000939404 9.21406e-05 -1.64739e-21)
(0.000574386 0.000983586 -8.44077e-22)
(0.000473643 0.000888797 5.39495e-23)
(6.70112e-05 1.37786e-05 -3.47762e-22)
(7.40161e-05 2.13479e-07 4.24771e-21)
(0.000598964 0.00105103 -1.0676e-21)
(0.000254585 0.000976844 1.58834e-24)
(0.000559202 0.000993578 3.45239e-22)
(7.51293e-05 1.59913e-05 2.35659e-21)
(0.000577866 0.00104156 2.06977e-24)
(0.000715873 0.00121415 1.7701e-21)
(4.01181e-05 0.00021082 -4.14215e-22)
(0.000645002 0.00110114 -3.9319e-22)
(0.000594284 0.000139778 1.82727e-22)
(0.000646153 0.0012492 1.71772e-22)
(0.00064438 0.00115513 -6.72027e-24)
(0.000581885 0.000125057 -2.1335e-21)
(0.000387621 5.23328e-07 -5.63012e-21)
(6.82929e-05 -6.14242e-07 1.69688e-21)
(0.000184848 0.000148486 -8.00014e-22)
(0.00073916 0.00129077 -1.77508e-21)
(0.000361347 0.000271294 6.21285e-21)
(0.000561219 0.00102639 0)
(4.80254e-05 0.000103467 -8.38638e-22)
(0.000552997 0.000948876 -2.70608e-21)
(0.000595721 0.00101862 -1.22578e-23)
(6.25289e-05 0.000492189 9.08641e-21)
(0.00115985 -0.000187156 -3.83305e-22)
(0.000640096 0.000101133 0)
(0.00052604 0.00097087 0)
(0.000582869 0.000979458 -1.21937e-21)
(0.00107405 -3.08847e-05 -7.68163e-22)
(0.000594067 1.02474e-05 1.39928e-21)
(0.000392232 0.000538267 3.98038e-22)
(0.000634794 7.41301e-05 0)
(5.93897e-05 6.74903e-05 -3.16986e-21)
(0.000555177 0.00107858 0)
(4.45383e-05 9.39645e-05 1.29283e-21)
(0.00059553 0.00102037 -1.55941e-21)
(0.00129712 0.00113146 -4.32828e-21)
(0.000608288 0.00107544 0)
(0.000542413 0.000947445 2.12381e-25)
(0.000553137 0.000977652 0)
(0.000333176 0.000440562 0)
(0.000391976 0.000684591 0)
(0.000850717 0.000558662 -1.48441e-21)
(0.000580687 0.000973142 -1.07262e-21)
(0.000472594 0.000856798 -2.12893e-22)
(0.000331441 0.00047031 3.95966e-21)
(0.00065923 0.00109917 -3.35923e-22)
(0.000544282 0.000963821 1.29761e-21)
(0.00086568 0.00018093 1.00861e-25)
(0.000464576 0.00103188 1.18487e-21)
(0.000654452 0.00117572 -2.20503e-24)
(0.000531807 0.0011376 -6.90177e-24)
(4.10866e-05 8.43397e-05 1.43098e-21)
(0.000710171 0.00123469 -3.8019e-22)
(4.58448e-05 0.000114544 7.27822e-22)
(5.00939e-05 -2.54846e-06 1.90918e-21)
(0.000673522 0.000610326 -4.56048e-22)
(0.000733095 0.00108409 -1.93678e-21)
(0.000638305 0.00104643 0)
(0.000405416 0.000615264 0)
(0.000317634 0.000258823 1.9382e-21)
(0.000576217 0.0010372 5.89439e-24)
(0.000945226 9.57177e-05 7.69322e-21)
(0.000638563 0.00111319 1.47699e-21)
(3.77689e-05 7.51757e-05 9.80091e-23)
(0.000300286 0.000560484 -1.74942e-21)
(0.000189813 0.000566408 1.33502e-21)
(0.000594797 0.00101834 -1.77397e-21)
(0.000209214 0.000328666 -6.46427e-23)
(0.000452788 -8.08976e-05 -3.62388e-21)
(0.000569723 0.000981498 -2.75189e-22)
(0.000111527 0.00117457 -1.96322e-22)
(0.000859367 0.000383865 0)
(0.000720874 0.00122002 0)
(0.00108105 6.60519e-05 2.0737e-22)
(0.000625966 0.0010311 0)
(0.000217787 8.27435e-05 1.06061e-21)
(2.63359e-05 0.000484922 0)
(3.42672e-05 6.7608e-05 8.03201e-23)
(0.000410352 0.000317982 1.17693e-21)
(0.000563326 0.00103172 0)
(0.000718578 0.00122071 0)
(0.000901018 0.00075338 -8.94107e-24)
(0.000174904 0.000112476 5.85168e-22)
(0.000664504 0.00108118 -1.54044e-22)
(0.000723075 0.00122085 -1.50596e-21)
(0.000710339 0.00121011 0)
(3.15475e-05 6.00309e-05 -6.86227e-22)
(0.000663787 0.00116356 6.8487e-22)
(0.000723701 0.00121847 -7.43245e-22)
(0.00063398 8.8527e-05 0)
(0.000724308 0.00122052 7.3917e-22)
(0.000264198 0.000322803 4.69127e-21)
(0.000489044 0.000710472 -2.04959e-21)
(0.000652798 0.00111823 2.26812e-21)
(0.000540734 0.00102714 -1.11039e-22)
(0.000517133 0.000985768 -6.8879e-22)
(5.99776e-05 5.19265e-05 -7.98459e-22)
(0.000525251 0.00101972 8.15209e-23)
(0.000573838 0.00102571 -7.5206e-22)
(0.000468326 0.000881631 2.18738e-21)
(2.88994e-05 5.35301e-05 7.0359e-22)
(8.85105e-05 0.000588495 -6.96048e-22)
(6.03416e-05 0.000139262 -1.78968e-21)
(0.000692629 0.0012674 -2.19311e-22)
(0.000719829 0.00121957 -7.00462e-22)
(6.72107e-05 1.70973e-05 -1.36076e-21)
(0.000180654 0.000582154 2.52527e-21)
(0.000622716 0.00112661 -1.7047e-21)
(2.64843e-05 4.7585e-05 -6.87301e-22)
(0.000712314 0.00121375 -5.39768e-22)
(0.000306651 0.000282725 2.44596e-21)
(2.20853e-05 4.04517e-05 9.86791e-22)
(0.000724067 0.00121912 7.13546e-22)
(0.000721329 0.00121665 0)
(0.000719768 0.00121881 -5.45798e-22)
(2.22607e-05 3.66497e-05 -1.61661e-22)
(4.37349e-05 -8.26636e-06 3.40013e-22)
(0.000519077 0.000594192 -1.23929e-21)
(0.000719314 0.00121638 -6.2749e-22)
(0.00106416 -3.19788e-05 8.23358e-22)
(0.000434809 0.000791782 -1.51533e-21)
(0.000183175 0.000126419 -1.76791e-21)
(0.00017013 0.000118237 1.87714e-22)
(0.00097023 0.000140678 0)
(0.00071861 0.000834874 0)
(1.99182e-05 3.2517e-05 -3.23527e-22)
(0.000542946 0.00100951 -2.39573e-22)
(0.000639213 0.00111191 -1.2638e-23)
(0.00102985 4.82438e-05 -2.13427e-22)
(5.87259e-05 -3.73397e-06 0)
(5.71507e-05 0.000125967 1.28663e-21)
(0.000583349 0.000966106 -1.75061e-21)
(0.00019614 0.000581957 0)
(0.000582407 0.000978868 0)
(1.8187e-05 1.89378e-06 8.34532e-22)
(0.000533547 0.00048817 -2.72538e-21)
(0.000637616 0.00106916 9.05186e-22)
(0.000539251 0.000966382 -8.81955e-24)
(0.00037683 0.000509011 -1.26229e-24)
(0.000662462 0.000532012 -1.74106e-24)
(0.000219446 0.000466116 9.16757e-22)
(0.000107788 6.28229e-05 -1.09008e-25)
(0.000595421 0.00102051 2.20086e-23)
(0.00116149 0.00104137 2.82714e-21)
(0.000119776 4.0483e-05 3.26076e-21)
(0.000544925 0.00131978 4.89199e-24)
(3.02614e-05 0.00105302 5.29786e-24)
(2.78374e-06 -4.07974e-06 0)
(5.33707e-05 -2.78454e-06 -2.83036e-21)
(0.000454787 -0.00016171 -3.19361e-21)
(0.000725644 0.00121342 6.55584e-22)
(0.000827493 -0.000320515 0)
(0.000403827 0.000452849 1.71743e-21)
(0.000597324 0.00101522 0)
(0.00066677 0.00115413 0)
(0.000662033 0.00109804 3.54089e-22)
(0.000846069 0.000362987 -2.24968e-21)
(0.000322523 0.000799362 0)
(0.000125113 0.000186469 0)
(0.000644013 0.00116331 -2.06386e-21)
(8.70955e-05 2.64269e-05 -1.73262e-22)
(0.000125202 0.00095681 -1.96148e-21)
(0.000316041 0.00112697 -2.53158e-23)
(0.000575245 0.000986518 1.58033e-21)
(0.000719427 0.00121906 -7.47006e-22)
(7.93073e-05 -1.36675e-05 0)
(0.000597113 0.0010164 -3.61142e-21)
(0.000105804 6.30006e-05 1.56177e-21)
(0.000614595 0.00113943 -4.1423e-21)
(0.000553458 0.000992663 9.71634e-22)
(0.00054667 0.00033434 2.20195e-21)
(0.00102796 -6.29905e-06 -2.84422e-21)
(0.000621371 0.00102566 -7.78759e-22)
(0.00108596 -1.65849e-05 8.04364e-22)
(0.000719577 0.00122034 6.84627e-22)
(0.000431873 0.000931149 1.57988e-21)
(4.97432e-05 0.000417814 2.59008e-21)
(0.000664107 0.00116305 -4.89565e-22)
(0.0011108 0.000656519 -1.30409e-21)
(0.00023654 0.000652154 1.07622e-21)
(0.000654651 0.00056072 2.52634e-21)
(0.000638172 0.00111554 0)
(0.00052155 0.000965011 -3.56872e-22)
(0.000754011 0.00122606 -2.40753e-23)
(0.000659941 0.00115517 3.43769e-22)
(0.000887182 0.000926927 4.31657e-21)
(0.000224972 0.000501349 0)
(0.000604173 0.00102175 0)
(0.000954882 -6.69689e-07 -2.09503e-21)
(0.00024681 0.000134065 -2.54923e-21)
(0.000485191 0.000599654 -1.23526e-21)
(4.52004e-05 4.10848e-05 -7.63847e-23)
(4.60791e-05 0.000703187 2.32853e-21)
(0.000347795 0.000274959 2.05032e-21)
(4.48094e-05 -4.79883e-06 0)
(0.000128428 0.000513015 1.88346e-21)
(0.000118396 7.66408e-05 2.93945e-21)
(0.000382913 0.000972368 -1.76405e-23)
(0.000627133 0.00107302 -5.12942e-23)
(7.57361e-05 0.000457839 8.00133e-22)
(1.41344e-05 -1.49531e-06 -6.48393e-22)
(0.000373266 6.92434e-06 0)
(0.000582526 0.000975595 -4.28258e-22)
(0.000655355 0.00109899 -3.21979e-22)
(0.000581395 0.00102519 5.111e-24)
(2.49756e-05 1.92005e-07 0)
(4.71582e-05 9.98445e-05 -1.17976e-21)
(0.000262303 0.000536458 3.55832e-21)
(0.00108318 0.000587497 -2.85127e-24)
(0.000544416 0.000735046 -2.97136e-21)
(0.000198255 0.00047255 0)
(0.000742352 0.00128324 3.42533e-22)
(0.00077257 0.000421738 0)
(0.000717279 0.00120679 0)
(0.000352103 0.0010818 4.59227e-23)
(0.000582617 0.00104477 -1.15516e-21)
(0.00095264 0.000140533 3.49468e-21)
(0.000550946 0.000957719 1.30282e-21)
(0.000167778 0.000258469 -3.02329e-22)
(0.000539383 0.000918931 -1.40612e-21)
(0.000573661 0.000979926 3.42531e-22)
(0.0004435 0.00100639 1.74964e-21)
(5.51851e-07 -1.80136e-06 -3.5723e-22)
(0.000628831 0.000233641 -8.6151e-22)
(0.000106252 0.000529688 5.86956e-22)
(6.90419e-05 -0.00019551 0)
(0.000557225 0.00109674 2.66935e-22)
(0.000109448 8.33581e-05 -3.67237e-21)
(0.000563525 0.000987582 2.24237e-22)
(4.26997e-05 8.89817e-05 -8.96908e-23)
(0.000623891 0.00112594 1.70758e-23)
(0.000787339 0.00125106 1.24026e-21)
(0.000296814 0.000592332 -1.74281e-21)
(0.000592781 0.00103204 1.50781e-23)
(0.000339922 0.000402243 3.7899e-21)
(-1.60738e-06 0.000448917 -8.2196e-22)
(0.000559575 0.000983487 -3.87375e-22)
(0.000104708 9.99844e-05 -1.78389e-21)
(0.000345804 5.21855e-05 -1.7865e-21)
(0.000540362 0.00103611 2.08024e-22)
(0.00048954 0.000805323 -3.3855e-21)
(0.000128677 0.000624603 0)
(0.000641929 0.00117106 5.10669e-22)
(0.000720444 0.0012201 0)
(0.000512494 0.0010123 8.35437e-23)
(5.07353e-05 4.55141e-05 0)
(0.000581592 0.00097786 0)
(9.4717e-05 3.35568e-05 0)
(0.000630978 0.000264316 0)
(0.000432193 0.000556882 3.13874e-23)
(0.000594844 0.00101997 0)
(0.000542346 0.00100208 0)
(7.98384e-05 0.000100514 2.97765e-21)
(0.000452545 -0.000259713 3.54216e-21)
(3.94603e-05 7.97823e-05 -1.41402e-21)
(0.000723041 0.00126886 -4.76216e-22)
(2.19305e-06 8.07718e-06 0)
(0.000920167 0.000130111 -3.28568e-21)
(0.000560133 0.00103306 0)
(0.000694229 0.000354883 2.10578e-21)
(0.000531652 0.00094743 0)
(0.000656164 0.00115389 1.72184e-21)
(0.00059574 0.000971453 1.87989e-21)
(0.000350276 0.000515622 -4.71946e-21)
(0.000742899 0.00121667 -2.73917e-21)
(0.000594706 0.00110815 -1.29266e-22)
(-0.00041258 0.000499922 -5.27007e-21)
(0.000620587 0.00106593 -1.07604e-21)
(0.000638284 0.00110613 2.41482e-21)
(0.000643449 0.0011035 -1.74036e-21)
(8.01854e-05 -0.000214635 6.37836e-22)
(0.000787006 0.000412998 -2.5129e-22)
(0.000575478 0.000986318 0)
(3.80552e-05 7.10479e-05 1.6569e-22)
(0.00030058 0.000290398 -5.8303e-21)
(0.000104668 0.000106053 2.79409e-24)
(0.000713506 0.00120466 7.20453e-22)
(0.000578158 0.00103502 0)
(0.000725674 -0.000251756 -1.78065e-21)
(0.000510432 0.00060737 1.16292e-21)
(0.000645852 0.00110266 3.54491e-21)
(0.000542763 0.00158979 -2.20809e-23)
(0.000598063 0.000145336 1.59383e-21)
(0.000632679 0.00109216 -2.4452e-21)
(0.000573317 0.00105615 -6.61087e-23)
(0.00055046 0.000968121 -1.45443e-22)
(0.000537782 0.000903918 1.54441e-21)
(3.31808e-05 6.36276e-05 -1.66767e-22)
(0.000635021 0.00111324 -8.50005e-24)
(0.000839981 0.000321071 1.6307e-21)
(0.000497427 0.000927862 4.25156e-22)
(0.000646341 0.00110057 0)
(0.000948395 8.24335e-05 -7.81844e-22)
(0.000158358 0.000424564 3.50855e-22)
(0.00083756 0.000571822 2.49119e-21)
(0.000160505 0.000247637 -1.19977e-21)
(4.15065e-05 0.000397525 -1.44885e-21)
(0.000888269 8.54204e-05 1.20622e-22)
(0.000969236 0.000169698 8.90401e-22)
(0.000645511 0.00109879 1.27199e-23)
(0.000640442 0.00109572 0)
(1.93833e-06 0.000812563 7.56564e-22)
(8.34904e-06 2.77782e-06 1.54673e-21)
(0.000658327 0.00119367 0)
(0.00059994 0.00101974 0)
(0.000980249 4.56328e-05 -1.70902e-21)
(7.54131e-05 2.05412e-05 -4.91497e-21)
(0.000190842 0.000238404 6.67144e-22)
(3.01968e-05 5.67055e-05 -4.42134e-23)
(0.000643674 0.00109835 -1.90988e-24)
(0.000580138 0.000944602 4.83175e-22)
(0.000607265 0.00103997 0)
(0.000610057 0.000911095 8.64128e-22)
(0.000509443 0.000967769 -4.36332e-22)
(0.000506199 0.0010279 7.47432e-23)
(0.000545413 0.000478561 -3.53361e-21)
(0.000657828 0.00109817 1.04635e-23)
(2.21178e-05 -1.476e-06 -2.95563e-21)
(0.000646925 0.0010991 -2.91453e-21)
(0.000490767 0.000841913 -9.68299e-26)
(0.000585818 0.00102482 -1.87843e-22)
(0.000608438 0.00107351 1.70092e-21)
(0.000313701 0.000458989 -2.67477e-21)
(2.2162e-06 1.55054e-05 -9.80106e-23)
(0.000645048 0.00109878 1.03278e-21)
(0.000607815 0.000981192 1.44843e-21)
(2.76703e-05 5.04876e-05 7.15628e-22)
(0.000621468 0.00110426 -1.64245e-21)
(0.000602003 0.00104232 6.3039e-24)
(0.000931164 7.93522e-05 5.00304e-21)
(0.000643223 0.00109881 1.07822e-21)
(0.000578683 0.000990667 1.05452e-21)
(0.000528541 0.00096983 1.20551e-21)
(0.00136215 0.000404421 0)
(0.000526146 0.000960368 1.97801e-21)
(0.00214112 0.000419383 0)
(0.000841461 0.000710636 -2.2161e-21)
(0.000587965 0.00101888 5.08724e-22)
(0.000175519 0.000511934 -7.93834e-21)
(0.00138415 0.00127894 1.28357e-21)
(0.000468153 0.000840668 -4.22486e-21)
(0.000204643 0.000156029 3.58949e-21)
(0.00050296 6.02923e-05 0)
(0.000268516 0.000693049 7.15806e-24)
(4.13135e-05 0.00036914 0)
(0.000711699 0.00120304 -1.49707e-21)
(1.58292e-06 -1.46576e-05 1.45208e-21)
(2.53351e-05 4.5917e-05 3.52826e-22)
(0.000571816 0.00103039 2.96584e-22)
(0.00069632 0.00132319 1.15088e-22)
(0.000494893 0.000799138 -1.68238e-21)
(0.0005656 0.000976148 1.20717e-21)
(0.00101356 -0.000130891 -4.07508e-22)
(0.000737816 0.00121901 0)
(0.000672556 0.000868331 2.93635e-21)
(0.00103277 6.47954e-05 1.20098e-21)
(1.70328e-06 -9.28198e-06 -8.48857e-22)
(4.88966e-05 -5.06376e-06 -2.93476e-21)
(0.000534602 0.000977203 0)
(0.000651513 0.00116777 9.99845e-22)
(0.000638296 0.00120123 -7.52294e-24)
(0.000306711 0.000223159 2.03281e-21)
(0.000131345 0.000662788 -4.29743e-22)
(2.38522e-05 3.84713e-05 0)
(0.000883504 0.000116349 -8.29536e-22)
(0.000589126 0.000301912 -2.42173e-21)
(0.000637789 0.00109848 -1.7561e-21)
(0.000652097 0.00109602 -9.22559e-22)
(0.000623773 0.00112544 1.67359e-21)
(0.000605236 0.00108842 -1.29503e-23)
(0.000580727 0.000977177 -3.87312e-22)
(0.000762914 0.0012722 2.13529e-21)
(0.000617368 0.00103103 2.26083e-22)
(0.000459371 0.000870714 0)
(0.000639751 0.00105821 0)
(0.000603285 0.00111239 0)
(0.000264303 0.000382201 0)
(0.000556121 0.000996232 -6.66029e-22)
(0.000772875 0.000119619 -1.44978e-24)
(0.000178055 0.000526839 3.44894e-21)
(0.000477621 0.000185815 5.79189e-25)
(0.000268957 0.000516571 1.02792e-21)
(0.000461678 0.000907965 1.02393e-24)
(0.000563927 -2.84407e-05 4.77261e-21)
(0.000648332 0.00116726 -2.82972e-22)
(0.000578365 0.00104251 1.15957e-21)
(0.000544306 0.000476377 2.40573e-21)
(0.000607523 0.00106582 0)
(0.00019199 0.000584083 0)
(0.000719272 0.0012183 -1.31388e-21)
(0.000419804 0.000481951 -3.42653e-21)
(0.00105049 -0.000116972 -3.93802e-22)
(0.000455696 -0.000397658 -3.29761e-24)
(0.000622235 0.00108743 0)
(2.35837e-05 1.7078e-06 -6.44125e-22)
(0.000128194 0.000502338 9.59592e-22)
(0.000574505 0.000986543 1.45684e-21)
(0.000762071 0.00127108 0)
(0.000286106 0.00124605 -4.44762e-23)
(0.000226209 0.000255802 9.56428e-22)
(0.00041747 0.00114056 -1.16762e-21)
(0.00106545 -8.68461e-06 8.1077e-22)
(0.000399907 0.000581675 0)
(0.000647373 0.0011644 2.92762e-22)
(0.000759568 0.00126997 0)
(0.000766217 0.00127133 2.06178e-21)
(0.000526989 0.000953209 2.14484e-21)
(0.00028677 0.000524051 1.6935e-21)
(0.000574736 5.35181e-07 5.91099e-21)
(0.000629765 0.00109563 2.14386e-21)
(1.484e-06 -2.2284e-05 -1.15188e-23)
(0.000231694 0.000694846 0)
(0.000284442 0.000306275 1.83145e-21)
(0.000770798 0.0012699 -1.96318e-21)
(3.74996e-06 2.70166e-05 -3.1048e-21)
(0.000180993 0.000612399 -4.637e-25)
(0.000708921 0.00120194 -2.32245e-21)
(0.000281128 0.0012092 0)
(0.000713902 0.00121566 -1.74628e-21)
(0.000591773 0.00102143 8.34372e-22)
(0.000575563 0.00103138 7.93203e-24)
(0.000563592 0.000983605 2.26227e-22)
(0.000553957 0.000397558 1.39644e-21)
(0.000416384 0.000852156 -1.36237e-21)
(0.000346716 0.000261814 -5.1182e-21)
(0.000624448 0.00109837 3.57612e-21)
(1.46194e-06 -2.67012e-05 -1.45404e-21)
(0.000564696 0.000986281 1.31135e-22)
(0.000753915 0.000573813 -3.45597e-21)
(0.000663123 0.00114893 -6.35839e-24)
(0.000582977 0.00100135 -3.75548e-22)
(0.000601561 0.00102308 5.11101e-22)
(1.53878e-06 -1.83305e-05 0)
(0.000744682 0.00122496 5.73631e-22)
(0.000521174 0.000974591 5.60719e-22)
(0.00101189 0.000137725 -3.41941e-21)
(0.000559161 0.000127771 -3.97449e-23)
(0.000658168 0.00116517 0)
(0.000225045 0.000932058 -2.37295e-23)
(0.000587082 0.00100916 8.67106e-22)
(0.000538393 0.000987987 0)
(0.000595062 0.00101835 1.74046e-21)
(0.00075997 0.00126849 -2.12824e-21)
(6.0428e-05 -4.06661e-07 -2.678e-21)
(0.000142928 0.000386242 -2.34819e-21)
(0.000540466 0.0013777 2.46885e-23)
(9.32118e-06 4.31797e-05 -1.70172e-21)
(0.000365613 0.000223804 1.3389e-25)
(0.000733364 0.00127032 4.68096e-22)
(1.6652e-06 -1.1161e-05 1.22126e-21)
(0.000720682 0.0012189 0)
(0.000147228 0.000675024 0)
(1.6081e-06 -3.39473e-05 2.96857e-21)
(0.00105002 7.55669e-05 -3.70998e-22)
(0.000127234 0.000654632 2.46465e-23)
(0.000629461 0.00102868 -1.2398e-23)
(0.0003873 0.000137525 1.63757e-21)
(0.000773649 0.000821623 0)
(0.000648635 0.00115881 0)
(0.000564267 0.000970256 0)
(0.000663241 0.00114955 1.06412e-23)
(0.000411295 0.000683212 1.147e-21)
(0.000759283 0.00126628 1.93302e-23)
(5.45445e-05 -3.07073e-07 0)
(0.000633204 0.00111062 0)
(0.000735646 0.00121772 9.62795e-22)
(0.000514414 0.00132164 -8.65311e-23)
(0.000412592 0.000891915 -3.3822e-21)
(0.000578902 0.00102848 -4.24023e-22)
(1.91028e-06 -4.26017e-05 1.49883e-21)
(0.000525348 0.00096828 7.71342e-22)
(0.000564677 0.00102892 0)
(0.000819274 0.000137568 -2.75505e-21)
(0.000333239 0.000641522 3.00481e-21)
(0.000611135 0.00102018 -7.22901e-22)
(0.000588473 0.00102449 -2.1608e-22)
(7.84302e-05 7.03145e-05 -1.48882e-21)
(0.00040062 0.000140177 0)
(0.000376614 0.00108049 -2.94372e-21)
(-0.000204378 0.00111701 -4.26762e-21)
(0.000301841 0.00048496 2.72593e-21)
(0.000579495 0.00104088 1.57466e-21)
(0.000661598 0.00115025 -1.94621e-21)
(0.000527865 0.00094634 -4.49246e-22)
(2.07702e-06 -5.28738e-05 -2.9846e-21)
(2.76426e-05 0.00037625 0)
(0.000644497 0.00118539 0)
(0.000493404 0.000794628 -1.7658e-23)
(6.529e-05 5.45482e-05 -5.95337e-23)
(0.000708798 0.00120126 -8.02016e-22)
(0.000625935 0.00109874 -2.40742e-21)
(0.000219635 0.000499108 0)
(1.65713e-05 0.000335079 0)
(2.394e-06 -6.10501e-05 1.18635e-23)
(0.000838233 0.00133672 -2.27179e-21)
(7.47779e-05 6.76229e-05 0)
(0.00018342 9.35884e-05 7.12779e-22)
(0.000992764 9.67407e-05 0)
(0.000158539 0.000277447 -3.86462e-21)
(0.000603005 0.00101855 -9.63358e-22)
(0.000719201 0.00121804 -4.61686e-22)
(7.2237e-05 6.6021e-05 0)
(0.000602575 0.00102721 -1.11089e-21)
(0.000262978 0.000417138 0)
(0.000174365 0.000588171 1.74226e-21)
(2.80555e-06 -7.02696e-05 1.51215e-21)
(0.00047906 0.000837852 2.46571e-21)
(0.000719827 0.00128232 2.18269e-21)
(0.000332219 4.66279e-05 -1.44245e-25)
(0.000397404 -0.000536684 0)
(0.000644617 0.00110482 0)
(0.000679049 0.00115705 1.1161e-21)
(0.000112367 0.000390229 0)
(0.000589935 0.0010246 -1.09581e-21)
(8.9998e-05 0.000389703 1.61946e-21)
(0.000615827 0.001179 -2.01055e-22)
(0.000713229 0.00121265 -5.98861e-22)
(0.000631495 0.00112948 -1.29679e-22)
(0.000563966 0.000976306 -1.09466e-21)
(0.000583404 0.0010361 3.61878e-21)
(0.000599195 0.000663739 2.49529e-21)
(3.46408e-06 -8.68485e-05 0)
(0.000741689 0.00127062 -3.20098e-21)
(0.000546903 0.000595503 2.47975e-21)
(0.000523992 0.000980545 -7.15182e-22)
(9.92677e-05 0.000415617 1.09463e-22)
(0.000579744 0.000976378 -1.52497e-21)
(0.000383616 0.000326582 0)
(0.000595404 0.00109551 2.06413e-22)
(0.000670343 0.00108543 -1.35217e-22)
(7.53045e-05 5.50213e-05 -9.18501e-22)
(0.000524027 0.000939351 -9.43349e-22)
(0.000562448 0.000983937 2.07134e-21)
(0.000623519 0.00112447 1.6635e-21)
(0.000377334 0.000425967 0)
(0.000649025 0.00116451 2.29297e-21)
(2.36783e-05 -2.23018e-06 -9.93007e-23)
(0.000654358 0.00109614 0)
(0.000218328 0.000266755 -1.80478e-25)
(0.000726537 0.00129846 0)
(0.000751552 0.00126223 1.58138e-21)
(0.000628351 0.00107536 9.9463e-22)
(0.000241816 0.000421491 -3.22116e-21)
(0.000573362 0.000986765 -8.43e-24)
(3.15877e-05 -0.000158511 -1.50909e-21)
(0.000539733 0.000507007 1.47143e-21)
(0.000512899 0.000896814 1.15826e-23)
(0.00014474 0.000393978 1.63422e-21)
(0.000623304 0.00102108 4.05158e-22)
(0.00026965 0.00038672 -3.37479e-21)
(2.19682e-05 -0.000116886 2.98616e-21)
(0.00144239 7.3041e-05 4.92337e-22)
(0.000725949 0.00129599 -1.05981e-23)
(2.62222e-05 -0.000135763 0)
(0.000343414 0.000481231 -1.74128e-21)
(0.000983749 0.000419323 2.36178e-22)
(0.000580704 0.000880464 -2.50565e-21)
(0.00120921 0.00037389 -9.89022e-22)
(0.00047092 0.00114004 1.53426e-21)
(0.000599953 0.00106795 -9.05919e-22)
(0.00057314 0.000988112 -3.04915e-23)
(0.000562757 0.000964665 -1.95742e-21)
(0.00113727 0.000345527 9.21351e-22)