/*--------------------------------*- C++ -*----------------------------------*\
  =========                 |
  \\      /  F ield         | OpenFOAM: The Open Source CFD Toolbox
   \\    /   O peration     | Website:  https://openfoam.org
    \\  /    A nd           | Version:  8
     \\/     M anipulation  |
\*---------------------------------------------------------------------------*/
FoamFile
{
    version     2.0;
    format      ascii;
    class       volVectorField;
    location    "2";
    object      U;
}
// * * * * * * * * * * * * * * * * * * * * * * * * * * * * * * * * * * * * * //

dimensions      [0 1 -1 0 0 0 0];

internalField   nonuniform List<vector> 
5490
(
(0.000268107 0.00191964 1.48766e-21)
(0.000234276 0.00194426 2.37186e-21)
(0.000258427 0.00190695 -2.58669e-23)
(0.00026738 0.0019094 -1.53115e-21)
(0.000293067 0.00195183 -1.74579e-22)
(0.000405714 0.000663614 -5.85913e-21)
(5.06562e-06 1.30401e-05 3.47075e-21)
(0.000249926 0.000227114 6.15945e-22)
(0.00027406 0.0019446 3.11155e-23)
(0.000419954 0.000172507 1.88045e-21)
(0.000276077 0.00192195 -5.21976e-22)
(0.000207464 0.00141975 0)
(0.000276521 0.00191602 -9.1582e-22)
(0.000359344 0.00167131 4.77243e-22)
(0.000271656 0.00194513 9.84236e-22)
(0.00049089 0.000151679 -9.08708e-21)
(-5.56888e-07 2.00208e-05 0)
(0.000118039 0.00067341 0)
(0.000233661 0.00168787 -1.56144e-21)
(0.000276098 0.00192365 -1.0477e-21)
(0.000245288 0.00141737 1.1556e-22)
(5.58061e-06 1.46697e-05 -1.75261e-21)
(0.000826486 0.000385149 0)
(1.38016e-06 1.61162e-05 0)
(0.000287905 0.00163114 6.71714e-22)
(0.000286695 0.00192804 1.50657e-21)
(0.000275079 0.00191157 1.92024e-21)
(0.000278838 0.00193265 0)
(0.000443185 0.000764976 3.54281e-21)
(0.000283267 0.00191828 0)
(0.00029887 0.00196868 -6.22441e-22)
(2.81376e-05 1.96581e-06 0)
(0.000293855 0.00179371 3.70028e-21)
(0.000373614 0.00190652 1.47055e-21)
(0.000271981 0.0019132 -1.32968e-22)
(0.000319599 0.00166679 1.83051e-22)
(0.000595517 0.000778606 2.74746e-21)
(0.000300471 0.00168227 3.80231e-22)
(0.000383899 0.00194752 1.32451e-22)
(0.000274866 0.00168461 6.2431e-22)
(0.000326632 0.00178428 6.75911e-22)
(0.000588445 0.000706591 1.32238e-21)
(0.000264596 0.00191189 -1.78473e-21)
(0.000581484 0.000820447 1.68257e-21)
(0.00110809 -5.48857e-05 3.98272e-21)
(0.000314712 0.00173748 -7.37118e-22)
(0.000294006 0.00192818 4.70006e-22)
(0.000394366 0.00194296 3.71731e-22)
(0.000327352 0.00178461 -9.83057e-23)
(0.000634667 0.00135949 -6.41214e-22)
(0.000427702 0.000274683 0)
(0.000283803 0.00191216 -2.78885e-22)
(0.000287151 0.00188562 2.91518e-22)
(0.000294786 0.00194358 2.56357e-22)
(0.000284388 0.00191701 -1.6055e-21)
(0.00036382 0.00197647 4.88777e-22)
(0.00154244 0.00012334 -1.44121e-21)
(0.000935323 -1.78021e-05 -1.57887e-21)
(0.000326033 0.00194505 0)
(0.000338977 0.00194095 1.00079e-21)
(0.000450005 0.000826586 -1.36261e-21)
(0.000206108 0.00202859 2.05206e-22)
(0.000274921 0.00180294 0)
(0.00020159 0.000189982 -1.1996e-21)
(2.98671e-06 2.49299e-05 0)
(0.000407813 0.000377829 0)
(0.000493009 0.000152407 0)
(0.00153647 0.000304436 1.67985e-22)
(0.00033879 0.00173447 0)
(0.00101165 6.36563e-05 1.58329e-22)
(0.000278199 0.00193114 3.19308e-22)
(0.000350243 0.00193531 -4.69431e-22)
(4.71335e-05 0.000366731 6e-22)
(0.000258048 0.000121415 -4.65855e-22)
(0.000361564 0.000277392 2.28678e-21)
(0.000342477 0.00175212 1.82655e-22)
(0.000628143 0.000543398 4.13075e-21)
(0.000316813 0.00183594 0)
(0.000254265 0.00171309 -9.25505e-22)
(0.000329316 0.00195281 -8.68635e-23)
(0.000551365 0.000575125 7.64088e-22)
(0.000643236 0.000261051 -2.39843e-21)
(0.00020409 0.000749618 2.76239e-21)
(0.000250908 0.00169142 1.50691e-21)
(0.000285978 0.00194694 -5.11864e-23)
(0.000310958 0.00177009 -5.4821e-23)
(-0.000517335 0.000374648 -5.8431e-22)
(0.000295082 0.000482482 1.69023e-21)
(0.000363869 0.00192308 -1.94469e-23)
(0.000673778 0.000857127 -1.95174e-21)
(0.000505933 -0.000200982 -2.45468e-21)
(0.000160097 0.000717204 -2.86109e-21)
(0.000374859 0.00193408 1.04689e-22)
(0.000908923 -3.52158e-05 -1.34673e-22)
(0.000266846 0.00163813 -1.67767e-21)
(0.000485009 9.79009e-05 2.4169e-21)
(0.000367312 0.00193515 6.05635e-22)
(0.000532572 0.000679589 8.85265e-22)
(0.00123905 0.000459244 6.22979e-21)
(0.000298946 0.00171088 8.03775e-22)
(0.000193139 0.00142632 -1.00806e-21)
(0.000285441 0.00167052 -7.02788e-22)
(0.000336009 0.00172458 1.4327e-21)
(0.000487322 7.26437e-05 2.8009e-24)
(0.0004268 0.00188659 0)
(0.000318777 0.00189675 3.84673e-24)
(0.000309784 0.00168602 -5.50774e-22)
(0.000248337 0.000950312 -1.46165e-21)
(0.000224491 0.000106524 7.16931e-22)
(3.14057e-05 2.83274e-06 4.17108e-21)
(0.000498929 -4.14864e-05 5.23948e-21)
(3.19057e-05 0.000309307 2.72691e-22)
(0.000745108 0.000188206 5.61194e-22)
(0.000260987 0.0017523 5.10249e-22)
(0.000360986 0.00193675 4.52578e-24)
(0.000766771 0.000756212 -1.32131e-21)
(0.000344041 0.0018188 0)
(0.00075783 0.000241526 1.22127e-21)
(0.000927509 0.000172934 -3.40333e-22)
(0.000344712 0.00194261 5.34954e-22)
(0.000312995 0.0019059 8.2958e-22)
(0.00105487 0.00184583 5.74082e-22)
(0.000367737 0.000748394 4.50102e-21)
(0.00025486 0.00171121 -1.64284e-21)
(0.000504947 -0.000308453 0)
(0.000326645 0.00033572 -3.06386e-21)
(0.000188726 0.00143679 4.53358e-22)
(0.000245485 0.00180187 2.49859e-22)
(0.000490867 -2.37868e-06 2.4714e-21)
(0.00035101 0.00167633 -4.13061e-22)
(0.00100107 -6.23441e-06 -3.14001e-22)
(0.000616293 0.000795462 3.05377e-21)
(0.000460275 0.00171555 4.93949e-22)
(0.000332414 0.00174547 1.61832e-22)
(0.000386179 0.00193075 -4.11661e-22)
(7.28512e-06 0.000278272 0)
(0.00097537 -3.15483e-05 0)
(3.48756e-05 0.000349461 3.0967e-22)
(0.000471939 0.000267816 -5.96545e-22)
(0.000301232 0.00169354 -5.96473e-22)
(0.00049216 -0.000101851 2.5978e-21)
(-7.70883e-08 7.96322e-05 1.05902e-21)
(0.000352405 0.00192813 7.37199e-24)
(0.00040225 0.000972212 -1.71177e-21)
(1.77853e-05 -5.43992e-06 -1.82751e-21)
(0.000816775 -0.000125083 -5.80966e-21)
(1.13228e-05 0.00163395 -1.61535e-23)
(0.00075791 -0.000168517 0)
(0.000293597 0.00174611 1.22175e-22)
(0.000576878 0.000749221 -6.621e-22)
(2.33148e-05 5.16504e-06 0)
(0.00019318 8.6164e-05 -3.02397e-26)
(0.000187918 0.00141684 5.29652e-22)
(3.23223e-06 0.00013712 0)
(0.000823586 0.000716672 3.74168e-21)
(7.42012e-06 3.55955e-05 -1.00374e-21)
(0.000186805 4.61033e-05 -2.92358e-22)
(0.000838143 0.000233633 -3.40722e-22)
(0.000897125 -8.33082e-06 1.30961e-21)
(0.000343172 0.00167732 2.35153e-22)
(0.000307218 0.00168138 6.47848e-22)
(0.00066252 0.00103616 0)
(0.000327388 0.000953241 1.10156e-21)
(0.000278248 0.000408532 -1.80765e-24)
(0.000205285 0.000207407 5.68091e-25)
(0.000392041 0.000505244 0)
(3.81324e-05 -3.34148e-06 -1.55343e-22)
(0.00021672 0.00207833 9.38208e-23)
(0.000981002 0.000389089 -2.73034e-21)
(0.000253275 0.00179851 -2.57633e-23)
(0.000936535 -2.98032e-06 3.64973e-21)
(0.00036602 0.00194241 9.81145e-23)
(0.000315752 0.00168792 7.38067e-22)
(3.10953e-05 4.29349e-06 0)
(0.000352219 0.00193548 5.57938e-22)
(0.000274863 0.00196338 0)
(0.000287102 0.00189566 1.55522e-22)
(1.68391e-05 0.000119327 0)
(0.000301649 0.00191873 -2.79585e-22)
(0.000280947 0.00194512 0)
(0.00101484 7.01882e-05 -1.4163e-21)
(0.00016279 0.000190849 1.97058e-21)
(0.000253424 0.00192838 0)
(0.000300312 0.00167251 6.81636e-24)
(5.67692e-07 2.68063e-05 0)
(0.000244601 0.00167498 1.57304e-22)
(0.000269235 0.00168484 -4.56757e-22)
(0.000250745 0.00195125 1.68523e-22)
(0.000146174 1.7431e-05 -1.43693e-22)
(0.000438203 0.000199694 1.64552e-21)
(0.00126414 0.000434966 2.62039e-21)
(0.000295623 0.00140602 -5.62194e-22)
(0.000289507 0.00181592 -5.15017e-22)
(7.23382e-05 7.80031e-06 -2.04997e-21)
(0.000288948 0.000304999 0)
(0.000353721 0.00193355 6.04075e-22)
(0.000408478 0.00198122 2.44172e-22)
(1.04582e-05 5.28947e-05 0)
(0.000324729 0.000785499 4.06882e-21)
(0.000296149 0.00190887 1.45602e-22)
(6.78118e-05 -0.00022985 0)
(0.000373225 0.00164807 1.66544e-21)
(7.68554e-08 4.46066e-05 1.10366e-21)
(0.000498734 1.79009e-05 -2.32623e-21)
(0.000312915 0.00143395 -1.18594e-21)
(0.000881341 5.55096e-06 6.43228e-22)
(7.75574e-05 -3.04563e-06 2.76124e-22)
(8.1558e-05 -0.00026047 1.16359e-21)
(0.000275486 0.00167891 0)
(0.00115375 0.000168867 3.51038e-22)
(0.000949453 8.14474e-05 0)
(2.80015e-05 0.000249046 3.2783e-22)
(0.000280339 0.00194484 6.68581e-22)
(0.000328208 0.00193351 1.08775e-21)
(0.000252834 0.00189236 2.45274e-21)
(0.000288636 0.00171039 -2.04481e-22)
(0.000354791 0.00177533 -7.319e-22)
(0.00027078 0.0019229 5.40878e-22)
(0.00107049 -9.02161e-06 -7.10113e-22)
(9.39666e-06 4.28746e-05 -7.24404e-23)
(0.000653396 0.000458547 -4.99983e-21)
(0.000146882 6.14419e-06 1.46123e-22)
(0.000750934 0.00116695 -1.29151e-21)
(0.000300706 0.00193113 -3.47112e-22)
(0.000217677 0.00202107 -9.63342e-22)
(0.000312312 0.00191467 2.64969e-23)
(0.000265364 0.00169239 9.21505e-24)
(0.000322638 0.00175023 5.74813e-22)
(0.000293884 0.00193463 -3.16498e-22)
(2.36249e-05 0.000213239 -3.48218e-23)
(0.000177725 0.00144955 -2.21124e-23)
(0.000669635 0.000810472 0)
(3.1838e-05 8.26523e-07 2.09294e-21)
(0.000361191 0.000255021 1.63754e-21)
(0.000194632 0.00139904 9.21133e-22)
(0.000309286 0.00104809 -4.8024e-22)
(5.93265e-05 -0.000202502 0)
(0.000202479 5.06027e-05 1.16841e-21)
(2.09052e-05 0.000182018 0)
(0.000288375 0.00191103 0)
(1.12486e-05 5.84374e-05 -7.0632e-23)
(0.000302891 0.00179851 1.67595e-22)
(0.000126567 0.00199596 -1.39573e-23)
(0.000305705 0.00173136 7.31157e-22)
(1.86157e-05 0.00015452 -2.76366e-22)
(0.000626885 0.000484478 -3.17684e-21)
(0.00056287 0.000806283 1.43016e-25)
(0.000196661 0.00166431 4.93406e-21)
(0.000351514 0.000848959 7.88317e-21)
(0.000158036 0.000190874 2.15569e-21)
(8.78166e-06 4.38146e-05 -1.05493e-21)
(0.000192393 0.0015781 7.38351e-21)
(0.000996324 -3.50991e-05 0)
(0.000709348 0.000788354 0)
(0.000258873 0.00167362 1.47986e-22)
(0.000372921 0.00167248 -7.64697e-22)
(0.000330375 0.00159303 -1.55249e-23)
(0.000333729 0.00177139 0)
(0.000281683 0.00193348 -5.38827e-22)
(0.000302146 0.000363001 0)
(0.00130333 0.000357547 -2.25813e-21)
(0.00027619 0.00190848 -1.58796e-21)
(0.000331923 0.00158031 -2.42384e-21)
(0.00107422 -4.34889e-05 1.17781e-21)
(0.000134965 4.34689e-06 5.4303e-22)
(0.0008011 0.00047009 0)
(0.000411495 0.00193321 4.48445e-22)
(0.00118008 0.000548091 1.74451e-21)
(0.000171916 3.98745e-05 0)
(8.7389e-06 -6.28782e-05 5.63783e-22)
(6.92549e-05 -9.91408e-06 -5.77746e-22)
(0.000377846 0.00193249 8.08727e-22)
(7.50862e-05 1.08853e-05 5.57911e-26)
(0.000444822 -0.000474683 2.5329e-21)
(0.000605356 0.00160462 9.75772e-22)
(0.000113351 8.7464e-06 -1.99921e-21)
(0.00025121 0.000155794 2.50815e-22)
(0.000331949 0.00168467 -7.78912e-23)
(0.000353741 0.00191825 -1.0478e-21)
(0.000419153 0.0019646 -4.6425e-22)
(5.59354e-07 3.54634e-05 1.07721e-21)
(8.67943e-05 1.07345e-05 0)
(2.82639e-05 9.68009e-05 -1.45085e-22)
(0.000539599 0.000971398 3.3905e-21)
(0.000368123 0.00161357 -1.08169e-21)
(0.00010353 0.000339866 6.92405e-23)
(0.000387033 0.000895494 0)
(0.000279276 0.000101101 -8.64534e-22)
(9.75301e-05 0.00106053 1.59176e-22)
(0.000363609 0.0017854 -5.47209e-22)
(0.000234237 0.00165724 -1.457e-22)
(0.000300054 0.000871037 -5.68184e-21)
(0.000256394 0.000714525 -2.37442e-21)
(0.000203363 0.00157896 1.86122e-21)
(0.000354525 0.0015991 -9.49082e-22)
(0.00121427 7.32855e-05 0)
(0.000755501 -0.000234306 0)
(0.000230495 9.19955e-05 1.96865e-22)
(0.000345235 0.00164315 2.3778e-22)
(0.000110386 0.000878221 -4.86317e-21)
(0.000374095 0.00189592 8.10621e-22)
(3.4157e-05 -0.000204285 -5.66483e-22)
(0.000387747 0.00194379 0)
(0.000186808 0.000809573 3.44892e-21)
(0.000281695 0.00170128 0)
(0.000299617 0.00169053 -7.02786e-23)
(0.00102328 -2.92478e-05 0)
(4.01627e-05 -0.000110646 -5.9431e-22)
(0.000281762 0.00175773 4.28314e-22)
(0.000317593 0.00169766 3.9977e-23)
(0.000338342 0.00157909 -7.5986e-22)
(0.00068703 0.000470057 5.0197e-21)
(0.000617755 0.000727486 5.71718e-22)
(0.000243204 0.00175611 3.55187e-22)
(0.000332577 0.00167889 0)
(0.000403379 0.00197317 -8.18084e-25)
(0.000188548 0.00141695 -2.38583e-24)
(0.00100517 6.48288e-05 1.43585e-21)
(0.000197504 0.00137282 2.80431e-21)
(-7.9907e-07 7.30068e-05 -1.06711e-21)
(3.21175e-05 0.00033416 0)
(0.000377634 0.00163077 5.8424e-24)
(0.000349061 0.00165976 1.77074e-22)
(0.000286285 0.000259551 -3.04897e-21)
(0.000842043 7.46592e-05 0)
(0.000401986 0.00190667 0)
(0.000280917 0.00173842 -7.69891e-23)
(0.000309478 0.00177885 1.80299e-22)
(0.000673478 0.000503951 -2.68671e-24)
(0.000349166 0.00162715 1.9995e-21)
(0.000219237 0.00167122 -6.51697e-22)
(3.47187e-05 -3.45441e-06 -1.84011e-21)
(3.76987e-05 -2.01079e-06 0)
(0.000930099 0.00073829 3.40061e-21)
(0.000361776 0.00161296 -1.77346e-21)
(0.000336993 0.00161085 -9.28702e-22)
(1.28315e-05 7.34183e-05 -1.30152e-21)
(0.000358879 0.00195416 4.33271e-23)
(-7.21544e-07 6.0573e-05 2.21661e-21)
(0.000896539 0.000126193 -5.75398e-22)
(0.000957765 1.11735e-05 1.25037e-21)
(2.83024e-05 -7.86985e-05 -8.87689e-24)
(0.000254696 0.00173854 0)
(0.000166121 0.00140885 -1.65979e-21)
(0.000361512 0.00166695 7.5879e-25)
(0.0002756 0.00195102 -1.48333e-22)
(0.000393197 0.00192026 8.874e-23)
(0.000219249 6.20896e-05 0)
(0.000323415 0.00167034 -7.90879e-22)
(0.000365564 0.00165016 0)
(2.40407e-06 0.000125753 0)
(0.000299359 0.00171597 5.00717e-22)
(0.000334097 0.0016926 1.46589e-22)
(0.00039493 0.00191607 3.57167e-22)
(0.000344105 0.00169414 0)
(3.04325e-05 3.0286e-07 -2.47865e-21)
(0.000356893 0.00162368 5.88428e-22)
(0.000361613 0.00168888 -4.40118e-22)
(0.000942897 -2.77808e-05 -3.18975e-21)
(0.000292941 0.00182076 1.34478e-21)
(0.000343659 0.00173382 -3.96786e-22)
(0.000386105 0.00194615 5.05899e-22)
(0.000872088 9.88462e-05 0)
(0.000333244 0.00161694 -2.46551e-22)
(0.000219056 0.00163769 -3.78414e-22)
(0.000300955 0.00197504 1.14071e-23)
(0.000258105 0.00170785 -2.13077e-22)
(0.000240069 0.000225662 -5.86381e-22)
(0.00083523 -6.62099e-05 -2.15454e-21)
(0.000376349 0.0020696 8.81423e-22)
(0.000202193 0.00161701 0)
(0.00033707 0.00195779 -7.07534e-22)
(0.000338547 0.00190878 2.12038e-22)
(3.99217e-05 -1.84829e-06 2.81002e-27)
(0.000613601 0.00123273 -1.7503e-21)
(6.98745e-05 -3.04109e-06 2.81701e-22)
(3.39756e-05 8.12455e-05 3.60331e-22)
(0.000357193 0.00191657 5.88516e-22)
(4.16356e-05 0.000393768 -1.74402e-21)
(0.000403814 0.00075671 -4.00571e-21)
(0.00035667 0.00173865 0)
(0.000281729 0.00138738 -3.14094e-22)
(0.00032796 0.00169429 -4.21078e-21)
(0.000322803 0.00168746 -1.96227e-22)
(0.000167732 0.00157761 -3.94682e-23)
(0.000265469 0.00161106 0)
(0.000317591 0.00179084 0)
(0.000354246 0.0019212 7.34916e-22)
(0.000337714 0.00162647 -8.04019e-22)
(3.35431e-05 -4.85562e-06 9.84135e-22)
(0.000305604 0.000906003 0)
(0.000356214 0.00191356 -3.61518e-22)
(0.000318056 0.000202574 2.75635e-21)
(0.000252925 0.00190731 8.15199e-23)
(0.000350498 0.00191365 -7.87399e-22)
(0.000327953 0.00193734 -3.90354e-22)
(0.00034729 0.0019145 7.04106e-24)
(0.000234271 0.000138841 9.20953e-22)
(0.000394541 0.00189319 1.5522e-22)
(0.000274807 0.00163011 2.79504e-22)
(0.000998754 5.79905e-05 -1.27299e-21)
(-0.000103753 0.00132135 -1.5948e-21)
(0.000312986 0.00168531 -3.86232e-22)
(0.000248658 0.000650949 0)
(0.000360174 0.00192454 5.50251e-22)
(0.000198971 0.000110561 -2.66554e-22)
(2.80136e-05 0.000152505 -2.43377e-22)
(0.000175306 1.26202e-05 -3.80204e-23)
(2.30635e-05 -7.46885e-06 3.26558e-22)
(0.000390416 0.00195095 -3.03245e-22)
(0.000494717 0.00199663 2.27639e-22)
(3.19801e-05 0.000179973 2.82774e-22)
(0.000320813 0.00180293 -7.91404e-22)
(0.000613517 0.00143133 -1.03853e-21)
(0.000353973 0.00191974 0)
(0.000261361 0.00160342 7.32851e-24)
(0.000268391 0.00161683 3.67463e-24)
(3.64081e-05 0.000211032 3.52551e-22)
(1.19643e-05 6.64927e-05 1.10003e-21)
(0.000358582 0.00192679 6.50996e-22)
(0.000354988 0.00192312 0)
(0.000406461 0.00215749 -4.37305e-22)
(0.000243098 0.00185448 -1.73553e-22)
(0.00031577 0.00169752 4.33419e-22)
(0.000688415 0.000820861 -8.37487e-22)
(1.48019e-05 0.000555626 -1.16862e-22)
(0.000354611 0.00167534 0)
(4.21375e-05 -2.69476e-06 1.80353e-21)
(0.000331391 0.0016977 0)
(4.32442e-05 0.000248682 2.61752e-22)
(0.000357309 0.00191816 -5.49994e-22)
(0.000322322 0.00192572 -5.40946e-22)
(0.000369737 0.00192824 -5.85565e-22)
(0.000213434 0.00185951 4.57602e-23)
(0.000335258 0.000545984 2.31084e-21)
(9.4653e-05 1.27552e-05 4.48649e-24)
(2.82758e-05 -0.000181007 -2.21307e-24)
(0.000777142 0.000819878 -3.07538e-21)
(0.00025637 0.00161413 -1.05326e-22)
(0.000335677 0.00168293 2.55673e-22)
(0.000493639 0.00191241 -9.26695e-22)
(0.0003479 0.00191728 0)
(0.000345626 0.00161311 -1.55949e-22)
(0.00034478 0.000715608 0)
(0.000261205 0.00161166 -9.32286e-22)
(3.50182e-05 -9.88162e-05 5.754e-22)
(0.000276109 0.00174949 0)
(4.17727e-05 -7.05549e-06 3.09808e-22)
(0.000133441 0.000176086 6.58257e-22)
(0.0010401 0.000297358 -9.47041e-24)
(0.000348561 0.00191755 -1.66787e-21)
(0.0010379 0.000110946 3.47506e-21)
(0.000260899 0.00160315 2.8755e-22)
(0.000268671 0.00159569 -1.28289e-22)
(0.00033902 0.00193364 1.29312e-21)
(0.000345496 0.00193004 -5.94777e-22)
(1.17229e-05 0.00032562 0)
(3.42636e-05 2.62798e-06 -3.63908e-21)
(0.000237526 0.00179896 0)
(0.000355936 0.00191982 9.01816e-22)
(0.00035435 0.00190913 0)
(0.000202198 0.00139889 7.53201e-23)
(0.00028837 0.00175424 0)
(0.000310806 0.00169824 0)
(0.000254744 0.000545646 0)
(0.000292592 0.00167347 6.66557e-22)
(0.000307961 0.00169004 -1.70182e-22)
(0.000428484 0.000556337 -1.36598e-21)
(0.000245805 0.00167851 8.39389e-22)
(0.00100479 0.00141718 1.30716e-21)
(0.000285599 0.00168118 -8.87247e-22)
(0.000268769 0.0015973 1.35965e-21)
(0.000271744 0.00160384 -7.39916e-22)
(0.000304053 0.00170222 2.80308e-22)
(3.42706e-05 0.00179168 -2.61559e-23)
(0.000781297 0.00067502 -1.95929e-21)
(0.000956785 0.000391312 -1.58192e-21)
(0.000412758 0.00189884 0)
(0.00025304 0.00168667 4.3596e-22)
(2.83082e-05 -9.20372e-06 -4.55211e-22)
(0.000216917 0.000207139 8.16846e-22)
(0.000208885 0.00141923 -8.41226e-22)
(0.000404536 0.00186065 -1.93633e-21)
(9.56298e-05 0.00174757 2.06454e-23)
(0.000267946 0.00160205 -6.94463e-22)
(0.00027647 0.00168111 -1.58504e-24)
(0.000949216 -1.23891e-05 0)
(0.000375714 0.00201444 0)
(0.000561088 0.00144545 -1.77136e-21)
(0.000215643 0.00185669 0)
(0.000297078 0.00167634 0)
(0.00028053 0.00181763 2.01787e-22)
(0.000327247 0.001789 8.0787e-22)
(0.000211136 -0.000124656 6.36651e-22)
(0.000165485 0.000720219 -1.61289e-21)
(3.21748e-05 -1.38732e-05 0)
(1.84718e-05 -7.09133e-05 1.13328e-21)
(2.77448e-05 5.29056e-06 0)
(0.000278969 0.00169135 8.97718e-23)
(0.000274324 0.00167897 -5.31964e-23)
(0.000248358 0.00169877 -3.30614e-22)
(0.000337191 0.00169721 8.7e-23)
(0.000178391 7.70397e-05 -2.65937e-22)
(7.85885e-06 0.000257664 1.65645e-22)
(0.000602606 0.000326697 -3.4218e-21)
(0.000250972 0.00161982 1.55886e-21)
(0.000300051 0.00179159 0)
(0.000319023 0.00167708 -7.35622e-22)
(0.000436968 0.00107466 9.6599e-23)
(0.000539117 0.000722814 3.91949e-22)
(0.000157284 0.000537363 1.43784e-21)
(0.000985285 0.000722281 1.28657e-21)
(2.14779e-05 -5.99922e-06 -3.17196e-22)
(1.04554e-05 -3.30129e-05 0)
(4.03396e-05 -1.91901e-05 -4.6976e-22)
(2.23938e-05 4.10641e-06 -1.81487e-21)
(0.000192146 0.000329615 6.14751e-22)
(0.000294563 0.00140039 -4.52581e-22)
(0.00027631 0.00175333 1.17574e-21)
(0.000369093 0.000527341 6.39663e-22)
(8.85942e-05 0.000716794 1.4017e-21)
(0.000126704 0.000218359 1.5938e-21)
(0.000943104 0.000763322 -2.02391e-21)
(0.000721773 0.000871658 4.636e-21)
(0.000217641 7.74659e-05 0)
(0.000247427 0.000226119 -2.39673e-21)
(0.000253311 0.00169275 -2.64235e-25)
(0.000332381 0.000588531 -1.90542e-21)
(0.000189967 -0.000117082 -8.82292e-22)
(0.000330122 0.00190128 3.2168e-23)
(8.18999e-06 3.90359e-05 2.25092e-21)
(0.000322549 0.00169998 -4.85884e-23)
(0.000936963 2.28605e-06 -7.83558e-23)
(0.000914054 -5.31891e-06 -1.27948e-21)
(0.000216389 0.0016148 -1.26767e-21)
(-0.000114543 0.00123607 5.88273e-23)
(3.70159e-05 5.70437e-07 0)
(0.00023574 0.000864573 -3.73509e-24)
(5.46553e-06 0.000222228 1.36964e-22)
(0.000181924 0.00144867 0)
(0.000643557 0.000242451 2.42035e-21)
(0.000391593 0.000887187 7.75737e-24)
(0.000249312 0.000423069 5.02758e-21)
(0.000449317 0.00126031 -2.11526e-21)
(4.04986e-05 -2.26135e-05 3.07084e-22)
(0.000145705 -9.66215e-05 -2.91577e-21)
(0.00048945 0.00084047 3.01804e-21)
(0.00035455 0.000929265 0)
(0.000625801 0.00034562 0)
(0.000114389 0.000165817 1.22524e-21)
(0.000335221 0.00175015 1.90929e-22)
(0.000309131 0.00158213 -2.24741e-21)
(0.000348929 0.0019488 0)
(0.000401878 0.00041956 3.69505e-21)
(0.0001205 0.000273127 0)
(0.000216592 0.00168491 0)
(0.00107287 0.000244606 -1.42351e-21)
(0.000161124 -0.000106817 1.83323e-21)
(0.000332149 0.00183361 0)
(2.07815e-05 -1.34465e-05 0)
(8.96488e-07 0.000105017 0)
(3.57994e-05 -1.41535e-05 6.80315e-23)
(0.000208058 9.75007e-05 -7.57391e-22)
(0.000867684 7.65735e-05 -1.32208e-21)
(0.000924363 0.000991402 2.88853e-23)
(0.000269884 0.00162021 -3.41415e-23)
(0.000344768 0.000551119 -8.81568e-22)
(0.000282167 0.00162643 -1.18484e-21)
(0.000277101 0.00192809 1.02825e-22)
(0.000987783 8.82398e-05 -5.91476e-22)
(0.000238112 0.00164669 0)
(0.00117063 0.000790553 6.05943e-22)
(1.49724e-05 4.25096e-06 4.90312e-22)
(0.000204933 0.000416429 -1.3093e-21)
(0.000125377 0.000180321 -6.50068e-26)
(4.81083e-06 0.000190495 -2.78512e-22)
(0.000891168 0.00036978 3.48481e-21)
(0.000191595 0.00156287 1.17195e-23)
(0.000879181 0.00134461 0)
(0.000302895 0.00180286 -2.29805e-22)
(2.89309e-05 6.83933e-06 0)
(0.00132277 4.4374e-05 0)
(0.000444977 0.000899283 -3.42836e-21)
(0.000297149 0.00139752 1.72358e-22)
(0.000385924 0.00181738 2.6672e-21)
(0.00037916 0.00174261 -1.90908e-22)
(0.00101215 0.000380294 -2.54779e-21)
(3.70718e-05 -2.14e-05 -2.06246e-22)
(4.53484e-05 -0.000123781 5.78884e-22)
(3.87619e-05 -9.78785e-06 4.07958e-22)
(0.00114363 0.000136377 5.86014e-21)
(0.000653985 0.000279887 0)
(0.000159338 2.16552e-05 1.20874e-21)
(0.000831494 1.14995e-05 1.11436e-21)
(4.05565e-05 -1.51671e-05 -1.22867e-25)
(0.000485865 -0.000101999 -2.123e-21)
(0.00095676 0.000139096 -8.60613e-22)
(1.49465e-05 9.87045e-05 0)
(0.000518217 6.33958e-05 -2.40154e-21)
(3.16287e-05 -8.82295e-05 0)
(0.000315769 0.00193253 -1.23817e-23)
(0.000281167 0.00164716 6.02671e-22)
(0.000128794 -0.000540908 3.22223e-21)
(4.2892e-06 0.000162145 0)
(0.000233678 0.0013836 -9.12605e-22)
(0.000304279 0.00178586 -1.51154e-22)
(0.000304456 0.00170539 -2.77976e-22)
(0.000923304 0.00022305 -1.31757e-22)
(0.000345572 0.00167668 9.09454e-23)
(0.000155558 0.00139046 -3.20409e-21)
(2.18571e-05 -1.77463e-05 -1.88921e-21)
(0.000117135 -8.54808e-05 1.19404e-21)
(0.00135464 0.000420087 -7.39469e-22)
(0.000359748 0.0016629 2.78519e-22)
(0.000364276 0.001957 1.29304e-21)
(0.000312296 0.0016957 7.81055e-23)
(0.000959499 0.000114226 1.68879e-21)
(0.000641504 0.000825682 -2.45784e-21)
(2.82518e-05 2.87501e-06 1.03863e-21)
(0.000479237 0.00181334 1.83107e-21)
(0.000974415 -5.81151e-05 7.84167e-22)
(0.000348441 0.00174286 -8.52978e-23)
(0.00026291 0.00170075 8.35717e-23)
(0.00032191 0.00194524 -1.68027e-23)
(0.000143541 0.00163116 -5.44545e-24)
(3.30938e-05 1.51245e-06 2.0885e-21)
(2.52035e-05 -7.011e-05 8.93657e-24)
(0.000318103 0.00166584 -5.38064e-22)
(0.00100495 0.000233248 0)
(0.00128687 0.000532719 7.6868e-22)
(1.02848e-05 -9.72975e-06 -3.56113e-22)
(0.000297235 0.000780732 -3.45801e-21)
(0.000949052 0.0001156 -3.31484e-21)
(0.000201474 0.0015146 7.94593e-21)
(0.000700594 0.000742385 1.69477e-21)
(0.00029372 0.00191305 -7.69462e-22)
(0.000257606 0.00163861 -7.21364e-24)
(0.000261341 0.00168837 0)
(0.000343584 0.000869518 1.11364e-21)
(0.000998375 1.78127e-05 0)
(0.000995455 8.62158e-06 -5.8855e-22)
(0.000397239 0.00085088 2.75653e-21)
(8.70608e-05 1.74844e-05 0)
(0.000107981 0.000229161 -3.8151e-22)
(0.000394257 0.000665548 -2.62908e-21)
(0.000291976 0.00169354 -3.18831e-23)
(0.000347888 0.00166769 -1.19824e-23)
(0.00103556 -3.31539e-05 0)
(0.00077118 0.000441727 -1.46662e-21)
(0.000352288 0.00193948 7.42356e-22)
(0.000113537 0.0017396 -2.19151e-21)
(0.00123251 0.000134741 2.47926e-21)
(0.000316381 0.0016865 -2.977e-21)
(-5.11445e-07 9.60682e-05 0)
(0.000974314 3.66761e-05 1.15922e-21)
(0.000265126 0.000638669 -6.45493e-22)
(0.000132055 3.60791e-05 -2.33028e-21)
(0.00114921 0.000120595 0)
(0.000371217 0.000873401 -2.96481e-21)
(0.000177784 0.000913768 1.82349e-21)
(0.000360835 0.000844669 1.25036e-21)
(0.000553629 0.00200705 0)
(0.000438389 0.00106223 0)
(4.35235e-05 -2.59146e-05 -3.75492e-22)
(0.000201095 0.00153324 -5.73531e-23)
(0.000980009 -3.40411e-05 1.17754e-21)
(0.000254539 0.00174112 5.58499e-22)
(0.000494994 0.00155745 -1.35308e-21)
(0.000242928 0.000810018 1.16459e-21)
(0.000600654 0.000346839 3.92624e-21)
(1.66133e-05 -6.30026e-05 -2.25625e-21)
(0.0010789 -4.65056e-06 -7.02189e-22)
(6.8736e-05 0.000766782 0)
(0.000215877 0.000423467 -2.54514e-21)
(0.000601538 8.46586e-05 2.12792e-21)
(0.000259866 0.000939724 -4.17943e-21)
(0.00018526 0.000624691 -8.67855e-22)
(0.000334971 0.00189268 2.14093e-22)
(0.000552413 0.000630548 0)
(0.00105465 0.000646855 -1.92223e-21)
(0.000132843 -9.43317e-05 -1.2523e-21)
(9.18419e-05 0.000966522 -4.73865e-22)
(0.000246704 0.00169517 0)
(0.000305194 0.00188996 0)
(0.00081268 0.00209944 -1.01652e-22)
(0.000976169 -5.86861e-05 0)
(2.32657e-05 -9.88446e-06 0)
(0.000147256 0.000380203 -1.0438e-21)
(0.000173442 2.60728e-05 -1.19662e-21)
(0.000252038 0.00168285 -3.74103e-24)
(0.000316587 0.000787723 2.24144e-21)
(0.000143438 4.10216e-05 1.153e-21)
(0.000357467 0.00192205 -2.29958e-22)
(0.000448426 0.00197759 -2.33041e-22)
(0.000764458 9.47655e-05 4.07143e-22)
(0.000411949 -9.35085e-05 -2.62048e-22)
(0.000291233 0.000915044 9.66377e-22)
(3.43963e-05 5.03064e-06 -2.10192e-21)
(0.000434789 0.00184297 -4.4601e-22)
(0.000353185 0.00097117 5.60381e-22)
(0.000389271 0.000848482 -1.41243e-21)
(0.00034563 0.00175217 9.36176e-23)
(0.000429597 0.00181187 1.01366e-21)
(0.000490334 0.000907938 -5.20082e-21)
(0.000327421 0.0019207 -2.72281e-21)
(0.000117927 -2.29526e-05 0)
(0.000937441 0.000437971 1.61067e-21)
(0.000362936 0.000912015 2.45618e-21)
(0.000733497 0.000809915 2.52483e-21)
(0.000366317 0.0016519 2.14483e-21)
(0.000510922 0.00073872 6.65399e-22)
(0.000725918 0.000801633 1.66149e-21)
(0.00059877 0.000637347 1.26704e-21)
(0.000974831 -5.86241e-05 -1.34402e-22)
(0.000104446 0.000237578 2.14851e-22)
(9.32772e-05 -7.0625e-05 -2.22404e-21)
(3.40711e-05 4.07354e-06 2.04111e-21)
(0.000292505 0.00169796 8.5651e-22)
(0.000451021 0.00184827 -1.79775e-21)
(0.00101972 0.000825168 4.62336e-21)
(0.000432405 -0.000258002 -3.74007e-22)
(0.00021245 0.00173576 1.21054e-21)
(0.000247613 0.00168312 -7.54298e-22)
(0.000464129 0.000347846 -3.17406e-21)
(0.000354859 0.00174013 1.73364e-24)
(6.24273e-05 0.000704099 0)
(3.30163e-05 4.17824e-06 -1.65113e-21)
(0.000377614 0.00165836 1.67267e-21)
(0.000396764 0.00195561 -2.42968e-22)
(0.000622126 0.00207815 0)
(1.13125e-05 -3.79801e-05 3.56237e-23)
(0.000444545 0.00094649 9.64202e-22)
(0.000321516 0.00105666 1.77853e-21)
(0.000729307 0.00080105 0)
(0.000681583 0.000792566 2.48075e-21)
(2.31279e-05 -1.96746e-05 4.21635e-22)
(0.000903145 0.000381741 0)
(0.000652061 0.000799194 -2.32049e-21)
(0.000292995 0.00175306 0)
(3.92482e-05 1.02002e-05 -1.39097e-21)
(0.000518492 0.000901276 -3.57317e-21)
(0.000420136 -0.000992937 0)
(0.000355154 0.00191589 -7.42629e-22)
(7.72829e-05 0.00142137 -1.86945e-21)
(0.00039211 0.00162542 -9.60418e-22)
(6.00493e-05 -0.000305541 1.78334e-21)
(0.00041233 0.000844706 1.53192e-24)
(3.17078e-05 7.41185e-06 0)
(0.000677428 0.000856901 -3.61698e-21)
(0.00105559 -9.14594e-05 1.29816e-21)
(0.000593927 0.000465766 -1.79589e-21)
(0.00031284 0.00164731 8.22852e-23)
(0.000614877 0.000445874 3.24569e-21)
(0.000570117 7.34804e-05 7.98428e-22)
(0.000147096 0.000412404 -3.48741e-21)
(0.000354134 0.00169253 7.12793e-22)
(0.0010068 0.000248197 -2.42465e-21)
(3.98873e-05 7.98945e-06 2.38728e-21)
(0.000680695 0.000869392 0)
(0.000331436 0.000952506 1.40699e-21)
(0.000710767 0.0006064 -1.28627e-21)
(2.65015e-05 -9.77234e-06 0)
(0.000236108 0.00163953 -2.04416e-21)
(7.11107e-05 -6.82008e-06 7.34795e-22)
(0.000300148 0.00169479 1.34522e-24)
(2.65988e-05 1.01852e-05 2.19533e-21)
(0.000736236 -0.000117256 1.84317e-21)
(0.00042467 0.0018367 -2.81859e-21)
(0.000252318 0.00169126 4.49797e-22)
(0.00025232 0.00169634 -2.61048e-22)
(0.00102611 4.3528e-05 -4.70775e-21)
(0.000383708 0.00190637 1.30775e-21)
(0.000286671 0.000726664 -1.68244e-21)
(0.000566754 0.00192051 8.26383e-22)
(0.000407889 0.000623717 2.99625e-21)
(0.000836844 0.000725605 -1.63646e-21)
(0.000536506 0.000333312 -1.58739e-21)
(0.000263981 0.00169156 -1.78742e-22)
(0.000241357 0.000766028 4.38976e-21)
(0.000158006 3.43392e-05 -3.61543e-23)
(0.000293754 0.00174596 6.53363e-22)
(1.9414e-05 0.000584452 6.5669e-23)
(0.000369762 0.00148433 6.2864e-21)
(0.00129991 0.000176176 -3.902e-21)
(0.00069313 0.00247634 -8.25731e-22)
(0.000203899 0.00185809 1.04306e-21)
(0.00137569 3.09725e-05 0)
(3.90528e-05 5.7659e-06 3.21846e-21)
(9.88905e-06 -2.8516e-05 -8.45499e-22)
(0.000139912 0.000715721 -1.00903e-21)
(0.0002322 0.00060952 1.56542e-21)
(0.000542421 0.000349756 -2.53375e-21)
(0.000296606 0.00171792 1.3165e-23)
(0.000329998 0.00193926 0)
(0.000697781 0.000819827 -3.14385e-24)
(0.000538077 0.000677867 -7.14139e-22)
(0.000437316 0.00194772 7.79634e-22)
(2.045e-05 0.000634684 1.63371e-21)
(9.68094e-06 -2.44121e-05 5.55999e-22)
(0.000566414 0.000306387 3.89391e-21)
(0.000301105 0.00189557 0)
(0.000670476 0.000636631 1.88834e-21)
(0.000115585 0.000724855 -3.25125e-21)
(0.000460806 0.00231284 1.66028e-21)
(0.000376749 0.000528088 1.2831e-21)
(2.40227e-05 -2.60424e-05 -4.23949e-22)
(5.66567e-05 4.03657e-05 5.7368e-22)
(0.000537936 0.000626858 -2.49836e-21)
(0.000304265 0.00165376 -3.50494e-21)
(0.000765741 6.18765e-05 -2.44844e-22)
(0.000252227 0.000579451 -2.68894e-21)
(0.000376363 -0.000258584 0)
(0.000308147 0.00178295 -9.68986e-22)
(0.000770146 7.95933e-05 4.34488e-23)
(0.000374975 0.00162095 2.33401e-22)