/*--------------------------------*- C++ -*----------------------------------*\
  =========                 |
  \\      /  F ield         | OpenFOAM: The Open Source CFD Toolbox
   \\    /   O peration     | Website:  https://openfoam.org
    \\  /    A nd           | Version:  8
     \\/     M anipulation  |
\*---------------------------------------------------------------------------*/
FoamFile
{
    version     2.0;
    format      ascii;
    class       volVectorField;
    location    "2";
    object      U;
}
// * * * * * * * * * * * * * * * * * * * * * * * * * * * * * * * * * * * * * //

dimensions      [0 1 -1 0 0 0 0];

internalField   nonuniform List<vector> 
7843
(
(0.000709063 0.00124645 -3.40328e-22)
(0.000525455 0.00096761 1.47528e-21)
(0.000521748 0.000995651 0)
(0.000929832 5.33957e-05 9.18171e-22)
(0.000651718 0.0011448 -4.35283e-22)
(0.00104608 1.46893e-05 -1.08448e-22)
(0.000595409 0.000505782 -3.10712e-21)
(0.000532329 0.000970533 0)
(0.000215904 9.56299e-05 4.25999e-21)
(0.000562409 0.00096501 0)
(0.000563204 0.00100505 1.20534e-21)
(0.000698704 0.0012357 0)
(0.000309148 5.49998e-05 0)
(0.000569196 0.00103182 0)
(0.000576049 0.00096172 1.99257e-21)
(0.000498133 0.000824274 1.23857e-21)
(0.000560376 0.00100063 2.30538e-24)
(0.000576172 0.000982411 0)
(1.28431e-05 9.8623e-05 1.2688e-21)
(0.000255427 0.000401859 0)
(0.000205906 0.000142282 3.66132e-21)
(0.00040543 0.000441348 -6.13064e-22)
(0.00056702 0.00100763 1.39624e-24)
(8.26162e-05 0.000844384 -1.72495e-22)
(0.000738636 0.00119696 -8.07393e-22)
(1.80094e-05 -5.53313e-06 0)
(0.000438273 0.00139475 -7.38707e-23)
(4.98296e-05 0.000399582 3.68361e-21)
(0.000625079 0.00116908 -1.74448e-22)
(0.00104129 2.23257e-05 -1.0414e-21)
(0.000880922 0.00017894 -1.32535e-21)
(0.000490334 0.000983183 4.31569e-22)
(0.00079215 -8.04404e-05 1.23317e-21)
(0.000574414 0.000982511 1.82616e-22)
(0.000523231 0.000951924 1.14918e-21)
(0.000853327 0.00122078 -2.85744e-21)
(0.000573459 0.000954736 -8.60317e-22)
(0.00092326 0.00034208 8.1701e-25)
(0.00105693 5.78617e-05 -1.4088e-22)
(0.000508305 0.00091215 1.23454e-21)
(0.00057032 0.000957672 -2.13823e-23)
(0.000570024 0.00102664 -1.39815e-21)
(0.000734655 0.00124059 0)
(0.000535645 0.000968067 -2.97463e-21)
(0.000222209 8.23077e-05 -1.28989e-21)
(0.000190553 0.000453709 8.48816e-22)
(0.000566168 0.00102239 1.27938e-21)
(0.000196612 0.000592676 1.70952e-21)
(0.000571158 0.000973323 1.54997e-21)
(1.10069e-05 3.35239e-05 3.3539e-23)
(0.000353102 4.81892e-05 -1.21977e-21)
(0.000540156 0.00097142 1.69314e-23)
(0.000526057 0.000978802 0)
(0.000754385 0.000515453 1.10444e-21)
(0.000668994 0.00112333 -3.17815e-22)
(7.96786e-06 8.51383e-05 0)
(0.000360952 0.000460269 3.25147e-21)
(0.000519963 0.000124537 1.25447e-21)
(0.000756617 0.00129686 -3.79708e-24)
(9.32772e-05 0.000167614 -1.66765e-21)
(0.000734101 0.00124593 5.53262e-22)
(0.00101927 0.000442319 1.18117e-22)
(6.85993e-05 0.000547875 -5.73063e-21)
(0.000839786 0.000123844 -2.26939e-21)
(0.000619386 0.00129255 1.13318e-23)
(0.000681213 0.00128267 -8.60583e-22)
(0.000765135 0.00122243 0)
(1.03801e-05 6.74662e-05 0)
(0.000570326 0.000514995 0)
(0.000738591 0.00124729 0)
(0.000361292 -0.0001267 -1.19674e-21)
(0.000556761 0.000961539 1.28272e-21)
(0.000228775 0.00107171 3.24744e-23)
(9.99588e-05 0.00016555 1.08994e-21)
(0.000337935 -8.45594e-05 -1.08645e-21)
(0.000543768 0.00105332 1.08416e-21)
(0.000734602 0.00123975 4.33552e-22)
(0.000732688 0.00124488 -1.86372e-22)
(0.000579112 0.0010139 0)
(0.000799855 0.000144765 0)
(0.000460237 -1.90251e-05 -1.7101e-21)
(0.000669689 0.00120847 0)
(0.00056222 0.00102892 -1.49185e-21)
(0.00067667 0.000311754 2.69851e-21)
(0.000570508 0.000958352 -8.59404e-22)
(0.000590126 0.00100795 -8.48546e-22)
(0.000448815 0.00036192 0)
(0.000743699 0.00125989 -1.30532e-22)
(0.000825562 0.000316663 -2.08658e-21)
(0.000217628 0.000449865 1.23813e-21)
(0.000187681 0.000181058 -6.95685e-21)
(0.000595302 0.000992157 -7.08311e-22)
(1.54127e-05 5.07278e-05 -1.12227e-25)
(0.000828159 0.000128793 3.9534e-21)
(0.00051391 0.000346278 0)
(0.00074584 0.00132594 1.30275e-21)
(2.61276e-05 6.90867e-05 -2.70742e-21)
(0.000275577 0.000909346 -3.49163e-23)
(0.000402375 3.45525e-05 1.85537e-21)
(0.000559375 0.00108216 -1.09515e-21)
(0.000342946 0.00102557 0)
(0.000449736 0.00112592 2.47434e-22)
(0.000352459 0.000395101 0)
(0.000610315 0.00148181 0)
(0.00020696 0.000200811 -1.77163e-21)
(0.000153578 0.00113778 -1.54574e-21)
(8.39862e-06 4.88041e-05 2.46054e-22)
(0.000354028 -0.000169582 -1.21542e-21)
(0.000412494 0.000866759 -9.94824e-22)
(0.000542671 0.000970074 0)
(0.00067073 0.00120773 1.97959e-23)
(0.000564407 0.000572958 -1.1075e-21)
(0.00104813 0.000422374 1.10005e-22)
(0.000588019 0.000978478 -9.63709e-22)
(0.000162431 0.000313971 -3.36458e-21)
(0.000762919 0.00116938 -8.71539e-22)
(0.000821013 0.000277076 1.08239e-24)
(0.000711391 0.00127241 1.53404e-22)
(0.000184664 0.000206097 0)
(0.000597393 0.000990891 2.26248e-21)
(0.000643804 0.00115752 8.04215e-22)
(0.000612577 0.00115184 1.63011e-22)
(0.000517579 0.000983741 -1.23302e-21)
(0.00066583 0.00111816 3.5349e-22)
(0.00049425 1.42193e-05 -1.56476e-21)
(0.000362675 0.000507251 0)
(0.000606274 0.000962997 0)
(0.000204344 0.000847481 -2.78219e-21)
(0.000447541 0.000835882 -1.10747e-22)
(0.00104627 1.97801e-05 0)
(0.000594199 0.0009931 7.15165e-22)
(0.000175095 0.000379077 6.42276e-22)
(0.000354634 0.000178622 2.24161e-21)
(0.000634122 0.00113461 -8.6623e-22)
(0.000495621 0.000971034 -3.23422e-21)
(0.000570542 0.000956742 -1.28521e-21)
(0.000963778 2.5058e-05 6.89108e-23)
(0.000312658 0.000711097 -2.46287e-23)
(0.000571926 0.000954935 -6.91255e-24)
(0.000743552 0.00124997 4.11682e-22)
(0.000474765 9.56896e-05 -1.33105e-21)
(0.000529469 0.000778137 1.61742e-21)
(0.000703604 0.00026532 8.29137e-23)
(0.000937974 -0.000218189 1.68628e-21)
(1.39395e-05 5.27943e-05 1.43165e-25)
(0.000757272 -2.74447e-05 9.81398e-22)
(0.000570314 0.0010376 -1.48098e-21)
(0.000478498 0.000954079 -2.21775e-23)
(0.000670142 0.000834194 2.06338e-21)
(9.92774e-05 0.000845761 1.56878e-21)
(0.000585179 0.000993569 1.18509e-23)
(0.000517691 0.000554632 -1.28338e-21)
(0.000750771 0.000159768 1.25863e-21)
(0.000596701 0.000992834 0)
(0.000765276 0.00122063 1.20209e-21)
(0.000557177 0.00101211 -1.28697e-21)
(5.83925e-05 0.000304496 -2.1836e-21)
(0.000204994 0.000382655 -8.94489e-22)
(0.000537834 0.00100533 3.10746e-21)
(0.000569767 0.000973994 0)
(0.000335876 0.000100033 2.66217e-21)
(0.00055973 0.00100784 -2.59641e-21)
(0.00130058 0.000430304 8.35381e-23)
(0.000558029 0.00100675 -1.33999e-23)
(0.000551131 0.00101099 -1.53027e-21)
(0.000532191 0.000980761 -5.85977e-22)
(0.000697823 0.000304827 -1.58252e-21)
(0.000190073 0.00117363 0)
(0.000572552 0.000980229 -3.27625e-22)
(0.000556624 0.00100953 1.34257e-21)
(0.000532994 0.00100652 0)
(0.000552193 0.00101274 1.4867e-21)
(0.000555008 0.00101086 -7.77472e-24)
(0.00012932 0.000310375 -3.44791e-21)
(0.000554428 0.0010124 -1.43288e-21)
(0.000315576 0.00010073 -2.54001e-25)
(0.000550783 0.00103717 0)
(0.000233208 2.76589e-05 1.44479e-22)
(0.000561099 0.00107637 1.25318e-21)
(0.00069896 0.00124136 -5.04145e-22)
(0.000574809 0.000968127 3.78189e-22)
(0.000574448 0.000975816 -7.63286e-23)
(4.22675e-05 0.000227668 1.82497e-25)
(0.000529766 0.00100193 0)
(0.000540122 0.000977398 1.2478e-21)
(0.000414354 0.000561357 -5.43021e-23)
(8.77159e-06 4.52583e-05 3.1266e-23)
(0.000519375 0.000579087 1.20859e-21)
(0.000574031 0.000943187 0)
(0.000207659 0.00045543 0)
(0.000560651 0.000957166 -6.10875e-22)
(0.000462288 0.000820984 1.43323e-21)
(0.000828982 3.95512e-05 1.17801e-21)
(0.000323457 5.59189e-05 0)
(0.000518714 0.000988269 -1.34679e-21)
(9.96438e-05 0.000111788 3.95568e-22)
(2.34295e-05 -1.07705e-06 0)
(0.00025062 0.000336455 3.82022e-21)
(0.000740223 0.00124778 -1.47141e-22)
(0.000464865 0.000934511 1.63889e-21)
(0.000541958 0.000972044 2.99319e-21)
(0.00075131 0.00127392 2.33371e-22)
(0.000593121 0.000992503 1.38065e-21)
(0.000672126 0.00112856 5.29086e-22)
(0.000559114 0.00110829 1.42974e-22)
(9.43929e-05 0.00010301 -5.41585e-22)
(0.000764003 0.00134443 1.85892e-22)
(1.26441e-05 0.000169912 4.28841e-22)
(1.52608e-05 -8.08382e-06 -8.08349e-22)
(0.000594478 0.000992411 -7.65468e-22)
(0.000804846 0.000756885 0)
(0.000541914 0.000972024 -1.52446e-21)
(0.000415925 0.000660947 1.00735e-21)
(0.000708914 0.0012478 5.29069e-22)
(0.000765845 0.00122067 3.28671e-22)
(0.000456016 0.000912264 3.33667e-21)
(0.000712455 0.000228168 -2.82453e-22)
(0.000635961 0.0011421 0)
(2.9965e-06 9.19187e-07 0)
(0.000744451 0.000479984 0)
(0.000473104 0.000347353 5.7027e-22)
(5.36879e-05 0.000499252 4.25577e-22)
(0.000166012 0.000895049 0)
(0.000549851 0.00100924 1.52652e-21)
(0.000682323 0.000698044 2.7662e-22)
(0.000841817 0.000124431 0)
(0.00126753 0.000307022 0)
(0.000764937 0.00122377 0)
(0.000541764 0.00100924 5.96844e-24)
(0.000964772 0.000456688 0)
(0.000172621 0.000603389 0)
(6.81531e-06 4.17925e-05 -6.07486e-23)
(4.60792e-06 2.46955e-05 -5.29424e-22)
(0.000581791 0.0010073 2.20442e-22)
(0.00053502 0.00045303 -8.62345e-22)
(0.000766445 0.00122119 -6.44845e-22)
(0.000586389 0.00101856 0)
(0.000384983 0.000808504 -2.5125e-22)
(0.000765706 0.00122097 1.17386e-21)
(0.000362208 0.00117432 0)
(0.000635946 0.00113801 -1.0232e-21)
(0.000569812 0.000954216 4.39854e-22)
(0.000641385 0.00113909 9.76721e-22)
(0.000561797 0.00100535 -1.01043e-21)
(0.000242189 0.000551698 0)
(0.000561557 0.00107709 3.03303e-22)
(0.00108831 0.000103186 1.34009e-22)
(0.000875505 0.000311505 -4.09139e-21)
(0.000536072 0.000971691 0)
(0.000571521 0.000968814 -2.13377e-23)
(0.000910203 8.36575e-05 3.63511e-22)
(4.07969e-06 1.91249e-05 -3.88787e-26)
(0.000572427 0.000945651 -1.66291e-21)
(0.000766136 0.00122164 0)
(0.000533414 0.00104516 9.07074e-23)
(0.000732249 0.00124081 -6.54118e-22)
(0.000368169 0.000712737 0)
(0.000766732 0.0012207 3.26457e-22)
(0.000465955 0.001469 -5.80679e-23)
(0.000622692 0.000110539 -1.89686e-21)
(0.000827781 6.82456e-05 -7.66558e-22)
(0.000340609 0.000462041 -2.58331e-21)
(0.000432553 0.00110206 2.07772e-22)
(0.000763895 0.00122194 1.42346e-21)
(0.000730096 0.00124354 -5.47205e-22)
(0.000806565 0.000566207 4.84067e-21)
(8.67406e-05 9.46517e-05 1.38273e-22)
(0.000552705 0.00101231 0)
(4.34289e-06 2.18293e-05 5.27741e-22)
(0.000274022 0.000853452 -3.2268e-24)
(0.000459922 -5.73622e-05 -1.07098e-21)
(4.41987e-07 2.74626e-05 0)
(0.000345305 -0.000215846 1.18781e-21)
(0.000303996 0.00110937 0)
(0.000763316 0.00122244 1.6839e-21)
(0.000441561 0.000341546 -1.50177e-24)
(0.0006785 0.00112638 6.16117e-22)
(0.000581836 0.0010177 4.44749e-22)
(0.000483181 0.000529851 2.23284e-24)
(0.000515737 0.000795932 -1.3316e-21)
(0.00071426 0.00126204 2.83214e-22)
(0.000765528 0.00122168 -1.37137e-21)
(0.000595572 0.000992286 7.34833e-22)
(0.000483001 0.000351577 -2.18587e-21)
(0.000864284 8.45805e-05 -1.37967e-24)
(0.00010627 0.000121713 -2.43004e-22)
(0.000460191 0.000463121 1.13147e-21)
(0.00053467 0.000974885 1.29918e-21)
(0.000694199 0.00125989 4.78744e-22)
(0.000593321 0.000996201 4.26777e-24)
(3.85734e-06 1.65109e-05 -5.29884e-22)
(0.000769681 0.000175297 0)
(0.000980205 8.48617e-05 -5.11321e-21)
(0.000586665 0.0010021 -2.25342e-22)
(0.000313337 0.000526033 3.53758e-21)
(0.000746682 0.00119814 -1.59231e-21)
(0.000565158 0.0010055 0)
(0.00110975 0.000194068 -4.0782e-21)
(0.000534668 0.000798592 -3.68954e-22)
(0.000758553 0.00121872 1.86323e-21)
(0.000376767 0.00075475 -3.4206e-22)
(0.000186067 0.000410194 1.2405e-21)
(0.000559441 0.000953644 0)
(0.000627958 0.00114129 -6.8648e-22)
(0.000166423 0.000297066 0)
(0.000362929 0.000566814 -1.15745e-21)
(3.68279e-06 1.39989e-05 5.13991e-22)
(0.000439232 0.000887168 -1.41748e-21)
(0.000309415 0.000529913 -1.79252e-21)
(0.000182877 0.00056008 2.69078e-24)
(0.000329895 0.000541158 9.82018e-22)
(0.000434019 0.00082436 2.90207e-22)
(0.00082308 0.000258001 -1.59869e-21)
(0.000378682 5.87144e-05 -2.94117e-21)
(0.000249007 1.43094e-05 -1.15248e-21)
(0.000580715 0.000362302 -3.69935e-22)
(0.000550529 0.00101314 3.02464e-21)
(0.000499638 0.000802332 0)
(0.000459605 -0.000321406 0)
(0.000570645 0.00093574 8.08341e-22)
(0.000189222 3.03166e-06 7.67649e-22)
(0.00020499 5.81653e-06 0)
(0.000555046 0.00101223 -1.46381e-21)
(0.000763632 0.00122168 -1.91812e-22)
(0.000353146 0.000357009 -1.5438e-21)
(0.000196294 0.000700082 0)
(-0.000337889 -4.59214e-05 0)
(0.000281635 0.000270667 3.18639e-21)
(0.000166812 0.000580049 -9.88168e-22)
(0.000159997 1.82283e-05 0)
(0.000455908 0.000820183 0)
(0.000765447 0.00122145 1.38789e-21)
(0.000890523 4.14476e-06 -4.10028e-22)
(0.000768346 0.000112828 2.43616e-21)
(-0.000126008 0.00121573 0)
(0.000240394 0.000462228 8.48633e-21)
(0.00038796 0.00097824 -9.24247e-23)
(0.000554976 0.00101189 -2.23289e-21)
(0.000709338 0.00119627 -3.64115e-21)
(0.00035144 0.000445201 -1.63679e-25)
(0.000221592 0.000468946 -1.03605e-21)
(0.000628574 0.00113981 -1.29001e-21)
(0.000243161 7.36363e-05 5.02776e-22)
(0.000540798 0.000925649 1.6972e-22)
(0.000328356 0.000665236 2.36378e-23)
(0.000394377 0.00115425 -7.25347e-23)
(0.000525633 0.000960217 6.54017e-22)
(0.000985548 0.000205633 1.25746e-21)
(0.000301473 0.000529775 1.56743e-24)
(0.000439983 0.00137203 0)
(0.00100026 6.88722e-05 9.58936e-22)
(0.000680413 0.00112374 7.14854e-22)
(0.000175789 2.90988e-05 2.27982e-22)
(0.000345656 2.64437e-05 -1.17416e-21)
(0.00056141 0.000809041 5.07846e-22)
(8.62867e-05 4.05634e-05 -2.62809e-22)
(0.000548584 0.000559348 1.13771e-21)
(0.000364841 0.000524356 3.30885e-21)
(0.000549394 0.00102005 -7.70603e-24)
(0.000595005 0.000992928 -1.57021e-21)
(-0.000185032 0.000161886 -2.00105e-22)
(0.000762074 0.00122337 -1.711e-21)
(0.00119365 0.000237191 -8.5371e-22)
(0.000131218 0.00013005 -7.43492e-22)
(0.000945539 -6.86038e-06 1.64669e-21)
(0.0005906 0.000987021 7.79428e-22)
(0.000527567 0.000982367 0)
(0.00102899 0.000225016 -1.49635e-21)
(0.000366218 0.000307351 -2.44869e-21)
(0.000517637 0.000972939 -2.04004e-22)
(0.000352767 0.0011821 0)
(0.000725554 0.000158938 1.60758e-21)
(0.000582308 0.000947171 5.3675e-22)
(0.000674141 0.000493658 4.8266e-21)
(0.000582819 0.00100948 5.8377e-22)
(-0.000409705 0.000167912 4.05468e-22)
(0.000555048 0.00101148 1.398e-21)
(0.000526852 0.000990596 -1.32929e-21)
(0.000574247 0.000954695 0)
(0.000807857 3.32877e-05 0)
(0.000526619 0.00098488 -1.32939e-23)
(0.000219706 0.000353049 -1.1238e-21)
(0.000850059 0.000274448 -8.03513e-23)
(0.000412538 0.000515977 -2.12186e-21)
(0.00074698 0.00138702 3.2117e-23)
(0.000592829 0.00100091 0)
(0.000538716 0.000978932 1.18749e-21)
(9.22604e-05 0.000168477 -9.53182e-22)
(0.000364662 0.000689539 -9.2279e-23)
(0.000552255 0.00111322 7.66161e-22)
(0.000538455 0.000984377 1.53616e-23)
(0.000156427 0.000254965 -1.36241e-21)
(-1.79674e-05 0.000275364 1.6764e-21)
(2.06557e-05 1.93184e-08 0)
(0.000798631 0.000573611 -1.25995e-24)
(0.000627967 0.00114262 6.05108e-24)
(6.58388e-07 1.16687e-05 -5.13165e-22)
(0.00159319 0.000390194 1.11373e-21)
(0.000573321 0.00010213 0)
(0.000581163 0.00101494 3.79583e-22)
(0.000584696 0.0010081 -6.73046e-22)
(0.000215183 4.75036e-05 -3.73666e-22)
(2.62594e-05 1.46985e-06 1.3004e-21)
(0.000163596 0.00101557 -1.81764e-23)
(0.000525794 0.000990195 1.60711e-21)
(0.000687934 0.00112044 3.8736e-22)
(0.000761028 0.00122143 1.57286e-21)
(0.000764742 0.00121042 1.73154e-21)
(0.000218321 -6.73936e-06 -1.06667e-21)
(0.000186506 0.000598568 -6.94241e-22)
(0.00115728 0.000163436 -6.38161e-22)
(0.000629826 0.00113961 -1.22868e-21)
(0.000440947 0.000889006 -3.3435e-21)
(0.000518389 0.000231894 -5.85649e-22)
(0.000485211 0.000933471 0)
(0.000491035 7.5304e-06 1.75079e-21)
(3.12651e-06 7.06185e-06 -4.6217e-22)
(0.000683612 0.00126436 4.34273e-22)
(0.000764545 0.00122127 -1.27969e-21)
(0.000551954 0.0010138 -1.47576e-21)
(0.000905692 0.00030385 0)
(0.00021981 0.000535824 -7.82908e-22)
(2.53319e-05 1.39878e-06 1.80858e-23)
(0.000537487 0.000994828 -3.41159e-22)
(0.000238342 0.00162257 -4.47073e-23)
(0.000175526 0.001297 0)
(0.000322234 0.00049311 -8.02075e-25)
(0.000271558 0.00114047 -1.17281e-22)
(0.000888036 0.000407046 3.79418e-22)
(0.000523014 0.000556728 1.88742e-25)
(9.28213e-06 9.4754e-05 -6.45582e-23)
(6.45639e-05 4.11394e-05 0)
(0.000679428 0.00112627 1.34145e-21)
(6.31193e-06 3.77304e-05 -2.01343e-24)
(0.00183768 0.000742167 -2.49092e-21)
(0.000102082 0.000702929 0)
(0.00015185 0.000263972 -2.34922e-21)
(0.00051346 0.000945458 -4.93087e-21)
(0.00063005 0.00114118 0)
(5.24091e-05 4.42181e-05 1.89514e-21)
(0.000601559 0.000955919 0)
(0.000228372 0.000259259 -1.58697e-21)
(0.000924124 0.000178723 -1.22136e-21)
(0.00032386 -7.17326e-05 -1.9221e-21)
(0.000680997 0.00115762 -1.22568e-21)
(0.00109618 0.000173984 0)
(0.000443567 0.000293655 0)
(6.13991e-05 0.00082945 -1.07602e-21)
(0.000652602 -0.000209185 -3.89873e-21)
(0.000605555 0.00117322 4.13935e-22)
(0.000582331 0.00102285 -1.03013e-23)
(0.000532426 0.000993701 0)
(0.000786409 0.00045059 0)
(0.0011654 0.00013771 1.42033e-21)
(0.000679531 0.000308807 -1.72748e-22)
(0.000571655 0.000962503 3.59255e-22)
(0.000738788 0.00120233 0)
(0.000324942 0.000289061 0)
(0.000419511 0.000985336 -2.13111e-21)
(8.04749e-05 3.60111e-05 -9.53109e-22)
(0.000514315 0.00041995 -1.30961e-21)
(0.00067032 0.00116195 -1.43464e-22)
(0.000372926 0.0013245 -2.44369e-22)
(0.000433373 0.00143367 -3.13271e-23)
(0.00054834 0.000418661 9.36353e-22)
(0.000424262 0.00138003 -9.99978e-24)
(0.000419372 0.000453437 -1.7465e-21)
(0.000333304 0.000487551 2.73734e-21)
(1.54815e-05 -4.35332e-06 0)
(0.0009021 0.000697677 -1.21084e-21)
(0.000454408 0.000817801 -3.92946e-22)
(0.000580518 0.00103811 3.72991e-22)
(0.000147104 -2.1585e-05 0)
(8.16542e-06 8.34121e-05 0)
(0.000109268 0.000452096 2.18936e-21)
(0.000566727 0.00102477 5.14806e-22)
(0.00049555 0.000963578 0)
(6.39044e-05 2.71369e-05 -1.66436e-21)
(0.000164574 0.000623979 -6.46619e-22)
(0.000594254 0.000998721 8.33541e-22)
(0.00127515 0.000228324 -1.39891e-21)
(0.000380602 0.000372441 0)
(0.000856711 0.000163484 -2.86963e-21)
(0.000187962 0.000227934 -1.71601e-21)
(0.000922445 0.000637217 1.75439e-21)
(0.000730779 0.0004421 -2.39931e-22)
(0.000572351 0.000940218 -1.02006e-23)
(0.000410908 0.000964029 2.114e-21)
(0.000126914 0.000744723 -2.84202e-23)
(0.000603738 0.00101151 -1.38029e-23)
(0.000517811 0.000991181 -2.24986e-23)
(0.000355844 0.00124532 -1.70101e-22)
(9.31155e-05 4.49366e-05 1.23203e-21)
(0.000539505 0.00102356 -4.76991e-22)
(0.000257507 0.000343051 -1.98158e-21)
(0.000926893 3.45727e-05 -7.88739e-22)
(0.000144875 0.00109084 -2.46408e-23)
(0.000173672 0.000835532 -3.25322e-24)
(0.000471377 0.000337053 -1.24862e-21)
(1.76793e-05 2.51089e-06 -2.72877e-22)
(0.000571554 0.000955481 -8.5337e-22)
(0.000149588 -8.96875e-06 -1.00629e-21)
(0.000584167 0.00101489 1.53685e-22)
(-0.000314771 0.00126126 -1.45699e-21)
(0.000560214 0.000960358 6.17426e-22)
(0.000582874 0.0010081 4.11076e-22)
(0.000581502 0.00101882 -1.54378e-22)
(0.000227047 0.000117519 -1.86518e-21)
(0.000507263 0.000867336 6.80002e-22)
(0.000444544 0.000731373 0)
(0.000251658 3.2948e-05 7.01589e-22)
(0.000937374 4.05894e-05 0)
(0.000629361 0.00114111 -8.62799e-22)
(0.000571507 0.000938487 7.78424e-22)
(0.000695299 0.000586877 1.40134e-21)
(0.000517368 0.000974661 -1.36255e-21)
(0.00020764 0.00064356 1.73402e-21)
(0.00130675 0.000242124 0)
(0.000285555 0.000199234 0)
(0.00106154 0.000498877 -9.7598e-23)
(0.000381035 0.000830954 2.00647e-21)
(0.000437269 0.000771055 -4.60105e-21)
(0.000638837 0.000984462 -4.17742e-22)
(0.000761846 0.00122274 -1.54555e-21)
(0.000785982 0.000523841 1.27979e-21)
(0.000484819 0.000960694 0)
(0.000685842 0.0011112 0)
(0.00032256 0.000271304 -1.30357e-21)
(0.000221597 0.000698925 -1.03553e-21)
(0.000789194 0.000337348 2.47763e-21)
(1.54807e-05 -6.87156e-06 3.2256e-22)
(7.08536e-05 3.40779e-05 9.18776e-22)
(0.000537876 0.000971226 -1.73314e-23)
(0.000134345 -2.27559e-05 5.81688e-22)
(0.000392279 0.000332397 1.18547e-21)
(-0.000146885 0.000198255 0)
(1.46303e-05 0.000314081 1.42942e-22)
(5.79021e-05 4.56283e-05 0)
(0.000682585 0.00111024 0)
(0.000635399 0.000503038 4.82075e-22)
(0.000560723 0.000962573 -5.96624e-22)
(0.000201901 0.000173459 -3.97215e-21)
(0.000684994 0.00110848 1.44962e-21)
(0.000672252 0.00124734 -1.05571e-22)
(0.000608538 0.00101928 8.9369e-22)
(0.000611141 0.000368308 0)
(0.000580181 0.00120116 1.90227e-22)
(0.00055072 0.00095179 0)
(0.000678173 0.00127928 -5.49996e-22)
(0.000552378 0.00101376 2.86365e-21)
(9.79948e-05 0.000258943 -2.75688e-25)
(0.000697654 0.00128022 1.67916e-21)
(0.000942319 0.000102956 0)
(4.15301e-05 0.000389287 -5.23739e-22)
(0.000491267 0.000571488 6.59343e-22)
(0.000540739 0.000969291 1.51598e-21)
(0.000288717 0.000888853 -7.82295e-21)
(-0.000528838 0.00092071 2.75985e-22)
(3.86985e-05 6.04355e-05 -1.95579e-21)
(0.000580657 0.0010085 -2.35011e-22)
(0.000473925 0.000873583 4.33545e-21)
(0.000625509 0.00115785 -3.69794e-22)
(0.000722147 0.00129605 -1.66073e-21)
(0.000535404 0.000982624 1.16574e-21)
(0.000935094 8.87046e-05 -1.01267e-21)
(0.000583882 0.00101337 1.6825e-22)
(0.0002082 0.00014006 3.05123e-21)
(0.000626866 0.00114857 6.05878e-22)
(0.000567392 0.000928551 1.95752e-21)
(0.000143837 0.000566891 1.354e-21)
(0.000688044 0.00127293 1.6393e-21)
(0.000668152 0.0011367 -5.08078e-23)
(0.000531523 0.000972418 1.18696e-22)
(0.000935751 0.000139273 0)
(5.27547e-05 0.00059188 -4.94928e-22)
(0.000503884 0.00103536 1.7226e-21)
(0.000607424 0.000960544 9.01888e-24)
(0.000575207 0.000347398 -5.46548e-21)
(0.00114167 8.23462e-05 0)
(0.000597244 0.00117612 -4.94948e-22)
(0.0001776 -0.000122195 1.51311e-21)
(0.000956429 5.57672e-05 0)
(0.00065124 0.00115377 -6.80363e-22)
(0.00100373 -0.000164828 -2.76738e-21)
(9.99685e-05 4.99862e-05 -4.85698e-22)
(0.00107995 0.000349738 2.6014e-25)
(4.18991e-05 0.00042085 1.68612e-22)
(0.000684932 0.00126917 0)
(0.000961007 0.00033478 9.60982e-22)
(0.000686027 0.000242061 0)
(0.000327982 0.000455602 0)
(0.000412604 0.000359099 0)
(9.28957e-05 -3.92841e-05 -2.28068e-21)
(0.000627071 0.00114111 -9.26394e-22)
(0.00129737 0.000555843 -4.47355e-21)
(0.000748732 0.00127569 5.01017e-22)
(0.00029363 0.000146354 -5.45605e-22)
(0.000421856 0.000932121 -1.48262e-21)
(0.000118789 -4.12957e-05 0)
(0.00103433 0.00016902 7.45321e-22)
(0.000830372 0.0005319 3.45014e-22)
(3.36466e-05 5.1206e-05 1.08813e-21)
(0.000663001 0.00108919 3.72233e-22)
(0.000129256 0.00104332 0)
(0.000279221 0.00131026 9.03384e-23)
(0.000828375 0.00136842 -1.56325e-21)
(0.000683751 0.00126681 1.59479e-21)
(0.000598893 0.000985507 0)
(0.000451571 0.000815396 1.2087e-21)
(2.13833e-05 0.000311739 6.40979e-22)
(0.000179017 -9.99597e-05 1.91189e-21)
(0.000527097 0.000985288 -1.41733e-21)
(0.000802385 0.00105493 1.0127e-21)
(0.000627864 0.000700053 -3.40072e-22)
(0.000678629 0.00112345 8.70679e-22)
(0.000688123 0.0012769 -1.57666e-21)
(9.81796e-05 -4.59285e-05 2.25791e-21)
(0.000631469 0.00114089 -5.66589e-24)
(0.000513239 0.000970068 0)
(0.00066478 0.000408328 6.46312e-22)
(5.72207e-05 4.96996e-05 0)
(0.00108852 1.28759e-05 8.89997e-22)
(0.000499599 0.000793794 1.37455e-21)
(0.000215665 0.000430616 1.24467e-22)
(0.000637493 9.21505e-05 -2.55005e-23)
(0.00036177 0.000509855 -3.94174e-21)
(0.00133406 0.000310994 2.93066e-22)
(0.000973409 0.000215929 -1.13029e-22)
(0.00052258 0.000524023 3.42849e-21)
(0.000510088 0.000990713 0)
(0.00037109 0.000612544 -5.19142e-22)
(0.000390195 0.000841157 0)
(0.000366276 0.00111415 1.21228e-21)
(0.000773621 0.00123675 1.11843e-21)
(0.000780874 0.000595668 1.39542e-21)
(0.000372242 0.00117073 -8.35545e-23)
(0.000419918 0.000331478 0)
(0.000222962 0.00023358 0)
(0.000146413 -9.61449e-05 -1.86928e-22)
(0.000181592 0.000363647 7.0267e-22)
(0.000262735 0.000613256 -3.783e-22)
(0.000159501 0.000581766 0)
(0.000744429 0.00131227 -1.48142e-24)
(0.000556443 0.000962525 0)
(0.00052689 0.00097825 -1.15679e-21)
(0.00056219 0.000968631 7.0369e-22)
(0.00023053 0.000575107 -9.22102e-22)
(0.00062936 0.00114116 -1.0655e-21)
(0.000431266 0.000790618 1.63003e-21)
(0.000923158 6.98935e-05 1.27947e-21)
(0.000192915 4.60373e-05 2.10569e-22)
(2.20685e-05 2.44782e-06 -4.88505e-22)
(0.000129387 -0.000188807 0)
(0.000313333 0.000527237 1.17563e-21)
(0.000102192 0.000608562 1.93864e-21)
(0.000588717 0.000171354 2.68083e-21)
(0.00042237 0.00030218 0)
(0.000172263 0.000314041 3.16247e-21)
(0.000685786 0.00110859 -1.81985e-22)
(0.000567694 0.000934303 2.70233e-21)
(0.000768465 0.0013403 2.64007e-24)
(0.000332061 0.000204644 0)
(0.000219233 1.58798e-05 2.63498e-22)
(0.000560431 0.000347612 0)
(0.00058187 0.00102932 -2.69335e-22)
(0.000195309 4.46883e-05 0)
(0.00042137 0.0005225 2.23119e-22)
(0.00100686 0.000379621 1.10625e-22)
(0.000569445 0.000965839 -7.07281e-22)
(0.000650295 0.00116763 1.06487e-22)
(0.000358709 0.000557801 -1.35378e-21)
(0.000452885 0.000856848 1.12681e-21)
(0.000445252 0.00083095 -9.64609e-22)
(0.00022006 0.000550707 -1.33319e-21)
(0.000171788 3.47312e-06 0)
(0.000122086 0.000660344 1.79436e-21)
(0.000476234 0.000915513 0)
(0.000846531 0.000279623 2.02988e-21)
(0.000339546 0.000463875 1.59481e-21)
(0.000762098 0.00121932 -1.62505e-21)
(2.30767e-05 3.18458e-05 1.36365e-22)
(0.00056164 0.00107833 -2.9673e-22)
(0.000130719 -3.89641e-05 -1.11333e-22)
(0.000507307 0.000963946 -1.75693e-22)
(0.000762107 0.000587646 0)
(0.00095764 -5.30015e-05 -1.20566e-22)
(0.00065913 0.00113546 -3.4272e-22)
(0.000785417 -0.000362746 1.17267e-23)
(0.000798745 4.07785e-05 2.55415e-21)
(0.00118056 0.000617034 -2.60845e-21)
(0.000517142 0.000979765 0)
(0.000457949 0.000824357 -1.31539e-21)
(0.000761725 0.00121901 -1.85817e-21)
(0.000561791 0.000930681 1.05662e-23)
(0.000455377 0.000689883 1.45342e-21)
(6.48139e-05 0.000588401 5.93349e-21)
(0.000946429 0.000277171 4.21132e-22)
(0.000189121 0.000240929 0)
(0.00069024 0.00122157 -1.62352e-21)
(0.00035245 0.000145448 0)
(0.000198839 0.000481477 6.95475e-22)
(0.000677972 0.001117 3.57909e-22)
(0.00106264 6.69169e-05 -5.5314e-22)
(0.000419212 0.00088147 2.64961e-21)
(0.00059992 0.00101046 2.88927e-22)
(0.000393925 -7.06694e-05 -9.51443e-22)
(0.000173062 0.000100802 5.87871e-22)
(3.39198e-05 0.00025171 -1.65156e-21)
(8.27173e-05 0.001039 1.65149e-21)
(0.00014898 1.66351e-06 -9.416e-22)
(0.000568267 0.000930945 -9.46586e-22)
(0.000143116 7.72824e-05 -5.46237e-22)
(0.000618018 0.00108959 -9.40616e-23)
(0.000283805 0.000344251 -7.54714e-22)
(0.000430684 0.00115675 0)
(0.00022002 -5.30066e-05 -2.25776e-21)
(0.000931119 -9.37962e-06 5.85409e-22)
(0.000554846 0.0010115 2.74836e-21)
(0.000164628 6.00716e-05 -2.73141e-21)
(0.000701154 0.0012901 -1.66591e-21)
(0.00108638 3.75284e-05 -1.16776e-21)
(0.000274599 0.000163933 2.72894e-22)
(0.00047771 8.96901e-05 0)
(0.000578431 0.000986101 1.39338e-21)
(0.000600745 0.0010651 4.21348e-22)
(0.00013291 0.000640781 4.82605e-22)
(0.00081415 0.000565052 0)
(0.000716979 0.000590431 3.46327e-21)
(0.000101108 -1.14248e-05 -1.03218e-21)
(0.00137667 0.000354482 -3.37093e-22)
(0.000671169 -5.28701e-05 -1.84294e-21)
(0.00118137 0.000254967 6.65983e-22)
(0.000626428 0.00115408 0)
(0.000262761 0.000555156 0)
(0.000609031 0.00108154 1.2809e-22)
(0.000628254 0.00114222 7.35358e-22)
(0.00058901 0.0012142 -3.4354e-22)
(0.000956818 0.00124144 1.47422e-21)
(0.000590113 0.0012079 1.5037e-21)
(0.000632387 0.000339357 8.42221e-22)
(0.000511098 0.00100139 0)
(0.000542298 0.00103265 -4.12848e-23)
(0.000476036 1.75377e-05 6.55558e-22)
(0.000762527 0.000531117 -2.44463e-22)
(0.000182051 6.79989e-05 3.27363e-25)
(0.000239887 -0.000181503 2.00095e-21)
(0.000211372 0.000601553 6.89275e-22)
(0.000184146 0.000436526 1.18082e-21)
(0.000273832 0.000463807 2.86792e-21)
(0.00035472 0.000562378 -1.82276e-21)
(0.000320316 0.000563114 -6.30504e-22)
(0.000193746 0.000656864 -1.14487e-21)
(9.74457e-05 -1.73005e-05 -1.06957e-24)
(6.15275e-05 0.000666211 -3.20146e-21)
(0.000348153 0.00113279 0)
(0.00065298 0.00106914 0)
(0.0007089 0.000564811 0)
(0.000574608 0.000482306 2.43851e-21)
(0.000652549 0.00113451 5.7634e-22)
(0.00082601 0.000503507 3.78627e-21)
(0.00103613 0.000336189 0)
(0.000296755 0.000335305 3.79695e-22)
(0.000183658 0.000627131 8.68427e-22)
(0.000561047 0.000962478 1.16849e-21)
(4.49324e-05 3.48511e-05 0)
(0.000895553 2.2049e-05 -1.76223e-21)
(0.000148057 0.000406956 9.7306e-22)
(0.000761424 0.000527808 -4.77382e-22)
(0.000308202 0.000527102 4.33236e-22)
(0.000344404 0.000344375 1.90897e-21)
(0.000567312 0.00104256 0)
(6.34228e-05 2.92874e-05 2.57699e-22)
(0.000146117 -7.9138e-05 -2.32826e-22)
(0.000660685 0.00127186 4.38886e-22)
(0.000616551 0.00106933 -7.78054e-22)
(0.000575818 0.000942185 5.28626e-22)
(0.00059569 0.00106653 6.08028e-22)
(0.000969369 1.98989e-05 -3.43803e-22)
(0.00021849 0.000608055 0)
(0.000383954 9.02505e-05 -2.1692e-21)
(0.000758178 0.00121128 0)
(0.000980415 0.000113891 0)
(0.000644818 0.00116263 -2.44438e-22)
(0.000340148 0.00082225 -1.65856e-21)
(0.000684895 0.0012932 -1.02691e-22)
(6.8887e-07 9.40888e-06 -5.11772e-22)
(0.000344632 0.000474683 -2.02032e-21)
(0.000100111 -6.28185e-07 -2.75999e-21)
(0.000607115 0.00108972 2.37291e-22)
(0.000177103 0.000478213 -7.24121e-22)
(0.00014198 0.000511212 1.00097e-21)
(0.000731392 8.15355e-06 1.83464e-21)
(0.000538815 0.000999977 0)
(0.000998844 0.000317307 6.52262e-22)
(0.00072251 0.000954374 1.27542e-22)
(0.000303239 0.000480938 1.38538e-21)
(0.000116928 -4.88358e-05 -3.19763e-23)
(0.00047449 5.66857e-05 6.11977e-24)
(0.000325416 0.000367701 -3.67378e-21)
(0.000312462 0.000454003 1.64464e-21)
(9.57159e-05 8.75356e-06 -1.2663e-21)
(0.000241341 0.00041448 -3.50178e-21)
(0.000770938 0.00119127 -2.18522e-21)
(0.000628189 0.00114072 1.83018e-21)
(0.000345133 0.000530484 -1.32023e-21)
(0.000627813 0.00114191 -7.3691e-22)
(0.000710881 0.000202464 -7.96176e-22)
(0.000282417 -0.0001526 -3.42695e-21)
(0.000306855 0.000538651 -2.50959e-21)
(0.000680672 0.00111125 1.37804e-21)
(0.00121861 0.000210744 -1.32844e-22)
(0.000677429 0.00112589 5.8362e-22)
(0.000176159 0.000138459 -1.29385e-21)
(0.000565066 0.000910234 7.74398e-22)
(0.000597923 0.00106741 -1.85341e-22)