/*--------------------------------*- C++ -*----------------------------------*\
  =========                 |
  \\      /  F ield         | OpenFOAM: The Open Source CFD Toolbox
   \\    /   O peration     | Website:  https://openfoam.org
    \\  /    A nd           | Version:  8
     \\/     M anipulation  |
\*---------------------------------------------------------------------------*/
FoamFile
{
    version     2.0;
    format      ascii;
    class       volVectorField;
    location    "2";
    object      U;
}
// * * * * * * * * * * * * * * * * * * * * * * * * * * * * * * * * * * * * * //

dimensions      [0 1 -1 0 0 0 0];

internalField   nonuniform List<vector> 
5119
(
(0.00081917 0.00132002 1.22717e-22)
(0.000207405 7.16056e-05 5.44517e-21)
(0.00083969 1.46365e-05 -3.22002e-21)
(0.000584515 0.000785061 -1.02401e-24)
(0.000807309 0.00120655 2.52028e-22)
(0.000867132 0.000121683 1.66933e-21)
(0.000271878 0.000202076 -1.66506e-21)
(3.41286e-05 -4.62104e-06 -8.10429e-23)
(0.00028185 0.00102279 -1.3752e-21)
(0.000889496 0.00142514 1.07984e-22)
(0.000619247 0.000800376 1.28047e-24)
(0.00064648 0.00105295 -4.0675e-22)
(0.000654985 0.00104878 -2.81533e-22)
(0.000692501 0.000475546 1.27603e-21)
(0.000752528 0.00123376 -9.5359e-23)
(0.000625898 0.00099627 0)
(0.000788987 0.00127528 3.70756e-22)
(0.000752818 0.00120884 -1.55367e-22)
(0.000862887 0.00144254 3.81674e-22)
(0.000674695 0.00111414 7.99607e-23)
(0.000677571 0.00109616 3.59846e-22)
(0.00060171 0.000966143 9.69813e-22)
(0.000598415 0.000977647 -2.02765e-22)
(0.000722126 0.00115687 1.46429e-22)
(0.000656957 0.00104115 0)
(0.000888949 0.001412 8.9172e-22)
(0.000607273 0.000981449 0)
(0.000625822 0.00100319 1.08612e-22)
(0.000642934 0.00103009 4.18613e-22)
(0.000597422 0.000951582 1.24965e-22)
(0.000683897 0.00107489 -4.2192e-22)
(0.000654948 0.00104611 -9.7873e-24)
(0.000616816 0.000973686 6.92622e-22)
(0.000715185 0.00116831 0)
(0.000879824 0.0014258 -1.25996e-22)
(0.000635669 0.00101361 3.98536e-22)
(0.000609021 0.000969048 3.89937e-22)
(0.000619882 0.000987346 5.27195e-23)
(0.000542873 0.000968546 -1.0683e-24)
(0.000602733 0.000962357 1.15914e-21)
(0.000560976 0.000150411 -1.24068e-23)
(0.000755452 0.00132045 -5.21285e-22)
(0.00068445 0.00116021 2.84339e-22)
(0.000602899 0.00104204 0)
(0.000590253 0.0010147 -2.94268e-22)
(0.000586324 0.000161445 -2.53948e-21)
(0.00071499 0.00123623 -9.51049e-22)
(0.00060906 0.00103319 0)
(0.000690146 0.00115876 1.01269e-23)
(0.000674363 0.0011721 -2.63778e-22)
(0.000585598 0.000403749 -1.9824e-21)
(0.000119902 0.00063214 -1.30919e-21)
(0.000933365 5.63318e-05 -6.8855e-22)
(0.00061491 8.71341e-05 2.74126e-21)
(1.68659e-05 0.000428563 -3.89975e-21)
(0.000595485 0.000974216 1.0635e-21)
(0.000673668 0.000765158 2.21992e-24)
(3.71749e-05 -1.21462e-06 1.13973e-21)
(0.000677182 0.00118645 0)
(0.000788839 0.00135061 0)
(0.00052235 0.000981301 -1.80227e-21)
(0.000583237 0.00100644 2.81281e-21)
(0.000608093 0.00103826 0)
(0.000715449 0.00122824 1.54987e-21)
(0.00045581 8.43539e-05 1.48599e-21)
(0.000717411 0.00124004 1.0907e-21)
(0.000728698 0.000353807 2.94583e-24)
(0.000861537 0.000581154 1.32159e-21)
(0.000700358 0.00118935 0)
(0.000698617 0.000510731 -3.87849e-22)
(0.000195273 0.000358136 -4.95428e-25)
(0.000180569 -2.07851e-05 -5.89911e-21)
(0.000882658 0.000330405 1.79956e-21)
(0.000597852 0.00104434 5.12564e-22)
(0.00063154 0.00102081 -1.76527e-21)
(0.000811272 0.00129931 0)
(0.000313798 0.000106946 1.21427e-21)
(0.0006149 0.000231687 7.50095e-22)
(0.000713396 0.00126174 0)
(0.000631905 0.0011211 -9.85041e-22)
(1.30379e-05 0.00071581 0)
(0.000944466 0.000533307 0)
(0.000855994 0.00142131 0)
(0.000611225 0.00127652 3.13489e-23)
(0.000582894 0.000107119 0)
(0.000624862 0.0011149 2.01482e-22)
(0.000750914 -5.38801e-05 2.88936e-21)
(0.000640772 0.00107879 2.44327e-21)
(0.000486947 0.0010274 5.93482e-23)
(0.000510214 0.00107409 0)
(0.00049647 0.00104656 0)
(0.000477982 0.00100961 0)
(3.64017e-05 -9.99578e-07 -1.84225e-21)
(0.000414638 0.000770801 -1.79231e-21)
(0.000550637 0.000971037 0)
(0.00041514 0.000669139 3.03441e-21)
(0.000890058 -3.53347e-05 0)
(0.00060092 0.00104822 1.96989e-21)
(0.000663514 0.000784323 1.828e-21)
(0.00059719 0.00104228 -1.78002e-22)
(0.000702345 0.00126072 8.3912e-22)
(0.000590762 0.0010174 0)
(0.00144967 0.000989275 -3.11765e-21)
(0.000824321 0.00144384 -5.7089e-22)
(0.000309419 0.000117837 2.63363e-21)
(3.7741e-05 4.96747e-06 1.35642e-21)
(0.000693565 0.00120802 -2.54829e-21)
(0.000555996 0.000308076 5.7072e-22)
(0.000812169 0.000584721 1.6661e-22)
(0.000625495 2.61702e-05 0)
(0.000429848 0.0011555 -3.19237e-21)
(3.57992e-05 2.09164e-06 -3.84204e-26)
(0.000238357 -2.76051e-05 1.05402e-21)
(0.00068067 0.00114087 -2.59779e-22)
(0.000308926 0.000166475 5.37441e-21)
(0.000437069 0.000617583 -2.87465e-22)
(0.000498679 0.000789317 -2.28004e-21)
(4.00243e-05 5.24864e-06 -2.54544e-21)
(0.000476212 0.000566979 -4.99674e-21)
(0.000678851 0.00117294 1.46115e-22)
(0.000752409 0.000352959 0)
(0.000716347 0.00120961 -8.52712e-22)
(0.000141274 0.000836941 -5.665e-22)
(0.00058814 0.00102449 1.62363e-21)
(0.000749882 0.00131433 -2.16688e-21)
(0.000843164 0.0014185 6.01624e-22)
(0.000618567 0.00109998 -4.78941e-24)
(0.000828459 0.00147377 -3.36669e-22)
(0.000714464 0.00119522 5.87988e-22)
(0.000569555 0.000973201 -4.13082e-22)
(0.000611622 0.00106797 -1.69722e-21)
(0.000567912 0.000975255 -2.95933e-22)
(0.000753359 0.00126862 -6.10524e-22)
(0.000666475 0.00113561 -5.4568e-22)
(0.000754369 1.33534e-05 -1.91269e-21)
(0.000564003 0.000329379 1.21139e-24)
(0.000619034 0.00116231 0)
(0.000613659 0.00105185 0)
(0.000237203 0.000323295 1.59893e-21)
(0.000712062 0.00119632 0)
(0.000585887 0.001027 -1.30122e-21)
(0.000569283 0.00100924 4.43108e-22)
(0.000578753 0.00101695 3.47702e-22)
(0.000602232 0.000999636 1.48597e-22)
(0.000633122 0.00108023 4.68786e-22)
(0.000616752 0.00105034 1.96244e-22)
(0.000580361 0.000989799 -1.33007e-22)
(0.000607275 0.00103628 0)
(0.000591229 0.00100982 -1.34223e-22)
(0.000825737 0.000865218 -4.35467e-22)
(0.000558756 0.00107095 0)
(0.000886612 0.000171759 0)
(0.000613904 0.00106678 0)
(0.000390877 0.000762224 2.92928e-21)
(0.000326813 0.000582426 2.70658e-21)
(0.000765981 0.0013298 4.52971e-23)
(0.000385372 0.000643149 3.64247e-21)
(0.000867839 4.87356e-05 0)
(0.000273596 0.000263774 1.30114e-21)
(0.000162768 0.000693296 2.65895e-22)
(0.000796305 0.00135613 -1.31043e-21)
(6.85204e-06 1.96044e-06 0)
(0.000139745 0.000263783 -2.84325e-21)
(0.000682496 0.00119459 -1.23468e-21)
(3.81594e-05 3.74187e-06 6.33029e-22)
(0.000955495 0.000251465 3.07717e-21)
(3.53937e-05 0.000192708 -7.80189e-21)
(0.000150127 -1.42648e-05 -1.87141e-21)
(4.17838e-05 -1.14309e-06 2.24247e-21)
(0.000136744 0.000571278 0)
(0.000258632 0.000349362 2.09853e-22)
(0.000773756 0.00135407 5.81424e-22)
(0.000456673 0.000542232 2.85101e-21)
(0.000459789 0.000456047 -2.85636e-22)
(0.000386414 0.000596305 2.93527e-21)
(0.000533702 0.000478824 -2.7717e-21)
(0.000144092 0.000313568 -6.88014e-25)
(0.000696917 0.00122575 1.46646e-22)
(3.6963e-05 7.69184e-06 -2.13502e-21)
(0.000760739 0.001338 3.01411e-22)
(0.000798646 0.000338468 -3.9083e-21)
(0.000712444 0.000379742 0)
(0.000603472 0.00104038 0)
(0.000572494 0.00101208 -1.77334e-21)
(0.000258811 7.47731e-05 -3.46249e-21)
(0.000426911 0.000707916 -4.81044e-22)
(0.000452877 0.000103895 1.4216e-21)
(0.00031193 0.000301128 -1.3647e-21)
(0.00056058 0.000373262 -2.16436e-21)
(0.000257509 0.000182687 -1.39361e-21)
(0.000141361 0.000692428 0)
(0.000554891 0.00107824 -5.63623e-22)
(0.000655707 0.00116921 1.26378e-21)
(0.000508951 0.000534637 2.53226e-21)
(2.60271e-05 -5.18225e-06 0)
(0.0002998 0.000711314 0)
(0.00068962 2.95847e-05 -1.80258e-21)
(0.000681246 0.000390008 6.62447e-21)
(0.000329659 0.000812 1.32981e-21)
(0.000929762 0.000228544 2.58796e-22)
(0.000135839 -1.35607e-05 -4.96381e-21)
(0.000755278 0.00140892 0)
(4.31881e-05 2.56725e-06 -2.27791e-22)
(0.000695437 0.00123034 -3.79178e-22)
(0.000613263 0.00110015 0)
(0.000651342 0.00116067 3.14267e-22)
(0.000586473 0.000981478 1.44372e-21)
(0.000521901 0.00103871 -4.14443e-21)
(0.000306832 0.000409012 1.00562e-21)
(0.000777346 0.000546889 -5.58879e-21)
(0.000163197 0.000248438 2.83797e-21)
(0.000508552 0.000884701 5.92593e-23)
(0.000921651 0.000280459 -1.54755e-25)
(0.000577637 0.00100161 -1.88021e-21)
(0.000589037 0.00030229 5.29884e-22)
(0.000327807 0.000403529 -1.29178e-21)
(0.00024199 0.000314066 3.31896e-25)
(0.000442341 0.000766462 -1.5332e-21)
(0.000305158 0.000615199 -3.08896e-24)
(0.000331787 0.000289941 9.45926e-22)
(0.00084869 0.00147288 1.35644e-21)
(0.000401818 0.000636725 0)
(3.28101e-05 7.86942e-06 0)
(0.000527266 0.0010378 -9.52148e-22)
(0.000433836 0.000612342 -1.438e-22)
(0.000525004 0.000803115 0)
(0.000242234 0.000102226 -7.11801e-25)
(0.000659505 0.000189989 0)
(0.000763335 0.00133911 0)
(0.000619323 0.00110657 2.74113e-22)
(3.32993e-05 1.80908e-05 -5.03492e-21)
(0.000707487 0.00119939 -6.33195e-22)
(0.000579486 0.00101611 9.50248e-22)
(0.000710059 0.00125771 2.1193e-21)
(0.000761138 0.00131415 0)
(0.000273081 0.000372119 1.13782e-22)
(0.000654547 0.0010978 2.04646e-21)
(0.000564342 0.000956207 0)
(4.18996e-05 0.000393643 4.27589e-22)
(0.000362566 0.00090743 -2.70353e-22)
(0.00043098 0.000576714 -3.17586e-21)
(0.000123902 0.000250159 2.55579e-24)
(0.000410666 0.000719033 5.58756e-23)
(0.00121641 0.00134368 0)
(0.000739063 0.0013545 -1.4588e-21)
(0.000810075 0.00146316 -3.41774e-22)
(0.000712378 0.00120303 -4.86024e-22)
(0.000301933 0.000370621 1.86555e-21)
(0.000575921 0.000963581 4.54173e-22)
(0.000546483 0.00098952 1.98273e-22)
(0.000613353 0.00104884 0)
(0.00084195 0.0014437 0)
(0.000609901 0.00104568 0)
(0.000643174 0.00115734 3.67211e-22)
(0.000595539 0.00104661 -5.14595e-22)
(0.000570607 0.000991447 -1.28972e-21)
(0.000610917 0.00107393 0)
(0.00055182 0.000996465 -2.53035e-22)
(0.000791837 0.00145186 5.67805e-22)
(0.00081388 0.000485209 -9.88853e-22)
(0.000293211 0.000282194 0)
(8.7516e-05 -0.000173894 -9.09429e-22)
(0.00114166 0.000904464 0)
(0.000654265 0.001151 5.45489e-22)
(0.000580378 0.00101335 5.25427e-22)
(0.000593751 0.00102904 2.83103e-22)
(0.000687268 0.00117138 -6.99877e-22)
(0.000582533 0.00102827 0)
(0.000182892 0.000320365 2.15048e-22)
(0.000815544 0.00144114 -7.47551e-22)
(0.000546259 0.000351843 5.9251e-22)
(1.45657e-05 -9.08406e-06 0)
(0.000774926 0.00131077 5.50564e-22)
(0.00071434 0.00125759 2.5207e-21)
(0.000799904 0.00128399 9.73689e-23)
(0.000899134 5.79981e-05 3.89315e-21)
(0.00154953 0.00132814 2.58293e-21)
(0.00061436 0.000964561 0)
(0.000629875 0.00107487 5.62132e-23)
(0.000780186 0.00139335 1.44292e-21)
(0.000595005 0.00103089 1.39587e-21)
(0.000540252 0.000992287 -5.08842e-22)
(0.00052659 0.000968115 -6.70274e-22)
(0.000550577 0.000986028 4.71878e-22)
(0.000529359 0.00094816 0)
(0.000636112 0.00108593 -8.26214e-22)
(0.000760096 0.00134286 3.9131e-22)
(0.000579244 0.001053 0)
(0.000765852 0.00129733 2.55138e-22)
(0.000607605 0.00104221 5.5386e-23)
(0.00062791 0.00108066 -1.36183e-21)
(0.000534881 0.000950732 -4.39272e-22)
(0.000552281 0.000950823 6.06165e-22)
(0.000156931 0.000237086 6.28854e-21)
(0.000711302 0.00125726 1.54867e-22)
(0.000597055 0.00114131 -1.59573e-21)
(0.000635503 0.00107653 0)
(0.000492289 0.000508968 2.64458e-22)
(2.20736e-05 0.000105379 1.68062e-21)
(0.000598551 0.00103051 0)
(0.00138357 0.000263632 0)
(0.000669433 0.00114691 5.98768e-22)
(0.000269304 0.000553618 0)
(0.000879412 0.000105715 3.34204e-21)
(0.000457801 0.000536361 0)
(0.000986776 0.000243917 0)
(0.000909539 0.000195157 0)
(0.000605848 0.00106072 1.35493e-22)
(0.000447229 0.000656867 3.37843e-22)
(0.000681074 0.00105041 3.45618e-24)
(0.000630205 0.00104569 -1.93698e-22)
(0.000601951 0.000986464 0)
(0.000592334 0.00096968 8.99644e-22)
(0.000633103 0.000996305 -3.74189e-22)
(0.000765393 0.00131563 0)
(0.000685186 0.00115605 4.76774e-22)
(0.000251777 7.55481e-05 7.20916e-21)
(0.000808085 -0.000173126 2.33748e-21)
(0.000771653 0.00137336 -4.52646e-22)
(0.000790938 0.00130522 -8.99685e-22)
(0.000668569 0.000811898 1.84509e-22)
(0.000555406 0.000982506 2.67491e-24)
(0.000677965 0.00107659 -8.68854e-22)
(0.000890696 0.000131937 0)
(0.000400202 0.000748896 -1.52518e-21)
(0.00057534 0.00105501 -4.0544e-22)
(0.000749101 0.000678055 -3.34953e-21)
(0.000709018 0.00125422 -6.82191e-22)
(0.000679666 0.0011631 -1.868e-24)
(6.02674e-05 0.00056316 -3.00822e-21)
(0.000596433 0.00101513 9.42714e-22)
(0.000847548 0.00141551 -1.23498e-21)
(0.000549551 0.0011446 1.93965e-22)
(0.000261635 0.00033203 1.27564e-21)
(0.000874956 2.97929e-05 0)
(0.000755172 0.0011878 1.92329e-22)
(0.000525017 0.000964546 -4.4877e-22)
(0.000671018 0.00121861 1.62081e-21)
(0.000701119 0.00116016 -2.85823e-22)
(0.000806431 0.00124506 -2.35396e-22)
(0.000580769 0.00103099 1.41988e-21)
(0.000629734 0.000987435 3.6086e-22)
(0.000650908 0.000808294 5.02314e-23)
(0.000762198 0.00134153 -4.75985e-22)
(0.000569145 0.000990012 -1.2044e-21)
(0.000553659 0.000876561 -1.50789e-22)
(0.000669569 0.00104649 -6.03179e-22)
(0.000541372 0.000910894 0)
(0.000317692 0.000567105 1.68807e-21)
(0.000283502 0.000639674 0)
(0.00062173 0.00108697 -5.13113e-22)
(0.000596173 0.000946882 -1.41534e-21)
(0.000668298 0.00106976 4.58164e-22)
(0.000752736 0.00116858 -1.20582e-21)
(0.000597316 0.0010843 -8.36284e-22)
(0.000617172 0.000982582 -2.69692e-21)
(0.00065716 0.00105077 0)
(0.000648078 0.00104037 0)
(0.000637799 0.00101242 -3.36493e-22)
(0.000792229 0.00127628 1.52057e-21)
(0.000784512 0.00130442 5.36258e-22)
(0.000586546 0.000968136 -2.45985e-23)
(0.000592849 0.000982899 0)
(0.000577245 0.000949766 8.27669e-22)
(0.000606575 0.000939227 -2.76014e-22)
(0.000608209 0.00100907 -3.50548e-23)
(0.000800705 0.00126327 0)
(0.000590336 0.000935652 4.1573e-22)
(0.000593655 0.000971299 -1.05168e-21)
(0.000609932 0.000996598 6.18129e-22)
(0.000591573 0.00095017 0)
(0.000781762 0.0012634 -3.82084e-22)
(0.000844659 0.00138238 1.57577e-21)
(0.000846829 0.00135177 1.49211e-21)
(0.0005143 0.000695838 -2.62824e-24)
(0.000782579 0.000618406 2.79274e-21)
(0.00060338 0.000428302 1.99758e-21)
(0.000513465 0.000540648 -1.55703e-21)
(0.000697511 0.00124776 3.21185e-22)
(0.000892505 3.19243e-05 1.67903e-21)
(0.000165415 0.000668358 0)
(0.000290342 0.000256542 -1.70587e-21)
(0.000865595 0.00142098 -4.58288e-22)
(0.000712058 0.00123305 2.75531e-22)
(0.000566498 0.00102607 0)
(0.000708643 0.00126306 1.41108e-21)
(2.33125e-05 -1.98565e-07 -2.86596e-26)
(0.000597425 0.000940579 3.06481e-22)
(0.000663126 0.0010416 2.73312e-22)
(0.000543131 0.000919915 8.95027e-22)
(0.00103907 0.000228068 -3.50476e-21)
(0.000875408 0.000190464 -2.36228e-21)
(0.000682921 0.00125618 -1.06886e-21)
(0.000570558 0.000285192 -5.15723e-22)
(0.000530754 0.00090391 0)
(0.000522338 0.000895043 4.49875e-22)
(0.000546895 0.000866373 7.99837e-23)
(0.000587575 0.00093931 -3.17184e-22)
(0.000571912 0.000914325 -1.57461e-22)
(0.000745031 0.000392541 -2.6129e-21)
(0.000620764 0.00109906 4.29754e-22)
(0.000358628 0.000275541 5.07087e-22)
(1.95839e-05 -7.36039e-06 -4.21685e-25)
(0.000604329 0.00118101 6.61093e-22)
(0.00071357 0.00118447 -1.7287e-21)
(0.00104909 0.000586494 1.18384e-24)
(8.29941e-05 0.000779699 0)
(3.8828e-05 9.52016e-06 1.18122e-21)
(9.52738e-05 0.000523486 0)
(0.000522938 0.000891131 -1.10769e-21)
(0.000500863 0.00101646 0)
(0.000754587 0.0012702 0)
(0.000643481 0.0010836 7.71224e-22)
(0.00058171 0.000969977 0)
(0.000556305 0.000928706 -9.7477e-23)
(0.000566352 0.000945522 1.55474e-22)
(0.00025123 0.000798751 -2.54778e-21)
(0.000599141 0.00106654 -1.36229e-21)
(0.00069822 0.00114842 0)
(0.000751488 0.000285568 3.86153e-21)
(0.000563556 0.000278103 4.41168e-21)
(0.000552585 0.000969554 0)
(0.000447544 0.000554908 3.08316e-21)
(0.000569172 0.000350746 1.42303e-21)
(0.000281084 0.000348022 -4.39382e-22)
(0.000498526 0.000641484 3.68824e-22)
(0.000863313 0.00027948 3.02963e-21)
(0.000579245 0.00103585 5.59668e-22)
(0.000539234 0.00124068 0)
(0.00082358 6.28135e-05 1.29114e-21)
(0.000622365 0.0011091 4.04171e-22)
(0.000672792 0.000981816 2.72008e-22)
(0.00075608 0.00122966 -2.6383e-23)
(0.000998937 0.000208738 -4.02181e-21)
(0.00028615 0.000508614 0)
(0.000645689 0.000424556 0)
(0.000535874 0.00108818 -1.10571e-21)
(0.000589312 0.00109978 -2.05909e-21)
(0.000871103 0.000123187 3.35355e-21)
(0.000377119 0.000312609 2.03703e-21)
(9.665e-06 0.000704693 2.19493e-22)
(0.000845442 0.000348031 0)
(0.000341598 0.000753115 8.12906e-22)
(0.000522408 0.000962427 0)
(0.000542192 0.000998094 8.19123e-23)
(0.000556819 0.00102484 0)
(0.000532044 0.000979494 0)
(0.000312994 0.000276198 5.12455e-25)
(0.000741189 0.000995151 2.80771e-22)
(0.000725898 0.00127466 2.27758e-22)
(0.00129225 0.000801446 -1.52925e-21)
(3.66799e-05 5.62385e-05 0)
(0.000841414 0.00142268 -1.04456e-21)
(0.000585579 0.00100711 0)
(0.000804779 0.00138496 0)
(0.000773702 0.00133028 -6.31572e-22)
(0.00056224 0.000987743 -1.82112e-23)
(0.000551234 0.00096538 2.90459e-22)
(0.000562825 0.00101956 2.10078e-22)
(0.000578408 0.00104702 -8.51106e-22)
(0.000565801 0.000970178 -1.33108e-21)
(0.000791301 0.00140881 -5.42876e-22)
(0.000593296 0.00106134 -8.08203e-24)
(0.000619087 0.00101239 0)
(0.000320779 0.000385786 -4.6946e-22)
(0.000486531 -0.000134592 2.28231e-21)
(0.000766656 0.00130872 -1.28933e-21)
(0.000627229 0.00109848 -1.89066e-22)
(0.00064668 0.00106875 -3.92514e-22)
(0.00056111 0.000939679 4.70011e-22)
(0.000655013 0.00106791 8.65624e-22)
(0.000725312 0.00115678 4.37488e-22)
(0.000627795 0.00100766 1.1756e-21)
(0.000611057 0.000964804 1.15772e-21)
(0.00063842 0.0010513 0)
(0.000652213 0.00102371 -9.72651e-22)
(0.000611102 0.00100766 0)
(0.000791696 0.00122525 -6.67557e-22)
(0.000803042 0.00127977 4.87068e-22)
(0.000586153 0.000972667 2.03941e-22)
(0.000593799 0.000962386 -4.59008e-22)
(0.000601133 0.00099882 -1.08905e-21)
(0.000576786 0.000918433 7.07497e-22)
(0.000608082 0.000946109 -1.14553e-21)
(0.000788914 0.00126759 -1.25489e-21)
(0.00054774 0.00093966 -1.45794e-23)
(0.000592465 0.00100277 -9.62375e-22)
(0.000576543 0.00097693 -3.75615e-22)
(0.000570589 0.000956421 -5.55798e-22)
(0.000756222 0.00126263 0)
(0.000829387 0.00137482 0)
(0.000844345 0.00133543 0)
(0.000190298 4.5458e-05 2.16432e-24)
(0.0010908 0.00062166 8.18056e-24)
(0.000449803 4.02358e-05 -7.43621e-22)
(0.000696474 0.00122918 -5.25604e-22)
(0.000569706 0.00113171 -1.60977e-23)
(0.000334393 0.000140556 4.54418e-21)
(0.000891203 5.93697e-05 0)
(0.000457331 0.000441745 1.04214e-24)
(0.00117884 0.000371174 2.91123e-21)
(0.000621435 0.0002197 1.66985e-21)
(0.00064805 0.00118143 2.66204e-21)
(4.4987e-05 0.000699997 -2.84569e-21)
(0.000831812 0.000248691 -3.5657e-21)
(0.000665292 0.00122295 0)
(2.04399e-05 0.000549377 0)
(0.000762522 0.00130238 1.21716e-21)
(0.000380108 0.00116766 -1.60296e-21)
(0.000477765 0.000782744 -1.81433e-22)
(0.000451895 0.000774541 -1.77011e-22)
(0.000617186 0.00105608 -6.29691e-23)
(0.000454944 0.000770323 -4.67888e-22)
(0.000654721 0.00115985 0)
(0.000559002 0.00100004 3.4164e-22)
(0.00071739 0.0012074 4.75084e-22)
(0.000308462 0.000624223 2.46896e-21)
(0.000430935 0.000479469 0)
(0.000189923 0.000234914 2.63379e-21)
(0.000404475 0.000562159 5.51565e-21)
(0.000855012 0.00146702 5.46853e-22)
(0.000593229 0.00094 3.86669e-22)
(2.71186e-05 2.37517e-05 1.00326e-21)
(0.000460773 0.00105469 1.70781e-21)
(0.000131843 0.000713565 1.87947e-21)
(0.000836486 0.00149598 -4.48179e-22)
(0.00077408 0.00135371 2.57574e-22)
(0.000698396 0.00117391 9.94173e-24)
(0.00085099 0.000157439 7.87054e-22)
(0.000734727 0.00127147 1.99787e-21)
(0.000746674 0.00135328 -1.47764e-21)
(0.000730986 0.00120407 -1.48749e-22)
(0.000617023 0.00115625 0)
(0.000530404 0.000942237 0)
(0.000640247 0.00114353 2.94528e-22)
(0.000180213 0.000231597 -6.15864e-21)
(0.000845794 1.1324e-05 -3.96247e-21)
(0.000629974 0.00106304 4.11513e-22)
(0.000678544 0.000723049 -1.7478e-21)
(0.00065124 0.00108573 -2.07927e-22)
(0.000505602 0.000922309 -1.62962e-21)
(0.000636315 0.00114619 -5.35242e-22)
(0.000929641 0.00146887 5.86277e-22)
(0.000833851 0.0014117 4.64133e-22)
(0.000853742 0.00141722 0)
(0.000621768 0.00103648 1.51102e-21)
(0.000594226 0.000996517 -2.09207e-21)
(0.00113101 0.000398066 2.23831e-21)
(0.000653619 0.000765432 -1.57679e-21)
(0.000714386 0.00121225 1.23093e-22)
(0.000856684 0.000529225 7.55756e-24)
(0.000544231 0.0010658 0)
(0.000627629 0.000193572 0)
(7.42049e-05 -0.000132168 -1.61433e-22)
(0.000851744 2.03447e-05 0)
(0.000576026 0.00103722 -1.71767e-21)
(0.000690494 0.00122656 -4.29249e-23)
(0.000584381 0.00103565 0)
(0.000423734 0.0006865 6.91626e-22)
(0.00057182 0.000942025 0)
(0.000396912 0.000793362 0)
(8.12051e-05 4.34919e-05 0)
(0.000483119 0.000771246 1.73216e-21)
(0.000746362 0.00130689 2.9626e-27)
(0.000890438 1.17646e-05 -3.94345e-21)
(3.56054e-05 1.01419e-05 -2.41213e-21)
(0.00076987 0.000479153 3.02421e-21)
(0.000698792 0.00127267 -7.93312e-23)
(0.000267009 0.000308395 -1.71397e-21)
(0.00166988 0.00017223 -2.29307e-21)
(8.18914e-05 0.000841816 -8.91019e-22)
(0.000670069 0.00114137 0)
(0.000854962 0.000205524 0)
(0.000867668 8.24084e-05 -3.23207e-21)
(0.000888317 0.000354553 -1.95903e-21)
(0.000709653 0.00120961 -5.37866e-22)
(0.000325908 0.000720846 -9.72498e-22)
(0.000613434 0.000251039 0)
(0.000829356 0.000205118 0)
(2.09315e-05 -1.12639e-05 -2.60817e-21)
(0.000315155 0.00105317 -8.4896e-23)
(0.000295819 0.00100383 3.54125e-23)
(0.000424011 0.00137735 0)
(0.00114925 0.00101652 1.94147e-21)
(0.000744455 0.000556303 -5.81826e-24)
(0.000481686 0.000518909 -1.34753e-21)
(0.000991863 0.000134066 -3.57084e-24)
(0.000790104 -2.22101e-05 -1.89681e-21)
(0.000560357 0.000934902 -6.48977e-24)
(0.000826205 0.00127683 3.37376e-22)
(5.40445e-05 4.67711e-05 2.64912e-25)
(0.000503671 8.24476e-05 -1.11236e-21)
(3.27974e-06 2.85593e-05 -2.83451e-22)
(0.00068241 0.00118769 -3.25684e-22)
(0.000722942 0.000520268 2.38495e-21)
(0.000248358 0.000333325 -1.67204e-21)
(0.000840953 0.00145944 2.71974e-21)
(0.0005784 0.00103668 -4.56466e-22)
(0.000620086 0.00110687 -4.48663e-22)
(0.000604315 0.00107921 -6.41836e-22)
(0.000588768 0.00102255 -7.86804e-22)
(0.000876426 0.00143284 1.59624e-22)
(0.000612201 0.00107563 0)
(0.000809986 0.00135389 -6.836e-22)
(0.000581754 0.00101053 1.79929e-22)
(0.000495577 0.000937098 0)
(0.00082828 8.25462e-05 4.35174e-21)
(0.00016385 0.000880343 -1.77408e-21)
(0.000173555 0.000206142 4.28118e-21)
(3.27278e-05 -9.74237e-05 2.70575e-21)
(0.000604563 0.00118813 -9.08342e-22)
(0.000842654 0.000207138 0)
(0.000929723 0.000545109 -3.89224e-22)
(0.000625265 0.00111786 1.70643e-21)
(0.000663849 0.00126882 4.769e-22)
(0.000810812 0.000161783 -1.35409e-24)
(0.000512239 0.00045777 1.70785e-21)
(3.08788e-05 4.98074e-05 0)
(0.000705965 0.0012256 0)
(0.000255463 0.000240405 -3.53035e-21)
(0.00060485 0.000290964 4.729e-25)
(0.000286494 0.000326858 4.33746e-22)
(0.000487564 0.000738642 -4.95933e-22)
(0.000453939 0.000154617 1.38332e-21)
(0.000683614 0.00125196 0)
(0.00067623 0.00127956 -3.84779e-22)
(0.00133959 0.000785476 0)
(2.57861e-05 5.50509e-05 -9.00362e-21)
(0.000589165 0.000340812 -3.92502e-21)
(0.000629913 0.000311977 5.13642e-22)
(0.000825248 0.000203527 -1.64368e-21)
(3.66843e-05 0.00048579 3.73416e-21)
(0.000513757 0.00103405 3.79599e-22)
(0.000665619 0.00110168 9.5116e-24)
(0.000619561 0.00108487 -3.15104e-22)
(0.000986598 0.000401992 7.12972e-21)
(0.00049452 0.00105816 -1.27376e-21)
(0.000804289 0.00144436 -1.82289e-22)
(0.000583523 0.00106263 0)
(0.000648009 0.00117354 0)
(0.000805087 0.00143701 7.55177e-22)
(0.000557224 0.00101703 -3.83483e-22)
(0.000572566 0.00104413 -3.86953e-22)
(0.00058644 0.00107309 0)
(0.00054763 0.00100216 1.67499e-22)
(0.000645899 0.0011886 0)
(0.00054539 0.000997481 0)
(0.000801361 0.0014392 -8.79101e-22)
(0.000442111 0.00046408 -1.05221e-21)
(0.000635449 0.00114844 1.67065e-21)
(0.000304959 0.000663717 -1.67658e-21)
(0.000736001 0.00137454 8.13719e-23)
(0.000772854 4.40714e-05 1.6822e-21)
(0.000850919 0.000221694 1.50001e-21)
(0.000358517 0.000617181 2.81991e-21)
(0.000245809 4.80812e-05 0)
(2.88686e-06 0.000155394 -5.81928e-21)
(0.000649568 0.00122165 3.57471e-24)
(0.000834489 0.000282225 -1.83506e-21)
(3.45375e-05 6.53853e-06 -2.70488e-21)
(0.000583858 0.00103426 1.58235e-21)
(0.000596034 0.00107157 2.22802e-22)
(0.000539664 0.00102524 0)
(0.000651877 0.00123659 -2.44081e-21)
(0.000561525 -8.56026e-05 -6.25533e-21)
(0.000644091 0.00125248 4.56909e-22)
(0.000204477 0.00076145 0)
(1.18653e-05 0.000192938 -3.24432e-25)
(0.000785217 0.000706013 -2.12739e-22)
(0.000831279 0.00144489 0)
(0.000626233 0.0010964 1.82405e-22)
(0.000860565 3.35755e-05 0)
(5.68251e-06 0.000217564 2.21439e-21)
(1.55587e-05 0.00102119 -1.85258e-21)
(0.000120407 0.000649382 1.99975e-21)
(0.000618096 -9.57414e-05 2.58938e-21)
(0.000692748 0.00123043 -1.2182e-21)
(0.000153895 0.000312444 0)
(0.000554529 0.000157985 -8.63014e-22)
(0.000894944 0.000625301 -1.65089e-21)
(0.0007695 0.00130709 0)
(0.000692599 0.00115154 3.37322e-22)
(0.000605473 0.00101245 -8.60059e-22)
(0.000646782 0.00105478 0)
(0.000534569 0.000936917 -1.12934e-23)
(0.000499997 0.000194529 8.04464e-22)
(0.000344445 0.000670636 6.07588e-23)
(0.000329287 0.000643656 1.29122e-23)
(0.000464399 0.000896473 7.25867e-23)
(0.000630746 0.00122696 1.2801e-21)
(0.000890342 0.000192742 0)
(0.00086416 7.81852e-05 1.82926e-21)
(0.00054807 0.000988636 -8.67715e-22)
(0.00020547 0.000286453 -2.91655e-21)
(0.000516673 0.000923177 0)
(0.000378382 0.000668453 1.56713e-23)
(0.000431198 0.000764944 1.75978e-23)
(0.000702621 6.91044e-05 2.0235e-24)
(0.000614236 0.00109056 -2.20183e-22)
(0.000617248 0.00113933 4.28714e-22)
(0.000618598 0.00112498 -1.30411e-21)
(0.000539696 0.00099854 0)
(0.000544523 0.000985511 5.70586e-22)
(0.000575494 0.000957186 0)
(0.000525247 0.000662157 -3.26576e-25)
(0.000541279 0.000927431 0)
(2.69141e-05 0.000176936 -5.17616e-25)
(0.000605094 0.000180901 4.17853e-22)
(0.000445285 0.000531721 -1.44467e-21)
(9.79427e-05 4.91781e-05 0)
(0.000879961 0.000294328 0)
(0.00043398 5.70519e-05 -7.65796e-24)
(0.000610526 0.00075328 2.02659e-21)
(0.00100315 0.000532854 7.79938e-22)
(0.000625482 0.00105106 -2.48482e-22)
(0.000415977 0.000457064 8.87818e-22)
(0.000608879 0.0011921 -3.02759e-21)
(0.000687948 0.00128062 -2.99875e-22)
(0.000587302 0.00112885 2.13526e-21)
(0.000524851 0.00017531 0)
(0.000831022 0.000430645 -6.04218e-22)
(0.000656743 0.0010391 1.03524e-23)
(0.000288549 0.0003037 0)
(0.000566257 0.00100869 -6.45859e-22)
(0.000468352 0.000563139 -6.18176e-21)
(0.000163719 0.000190583 2.27059e-21)
(0.000834522 0.00146616 1.51735e-22)
(0.000780576 0.000660357 -2.34898e-21)
(0.000463542 0.0010554 7.14643e-22)
(0.0010382 4.32957e-05 -2.14042e-21)
(0.000656085 0.000533216 1.39495e-21)
(0.000808587 0.00138148 -9.80174e-23)
(0.000488672 0.000574485 -7.6202e-25)
(0.00115413 0.000373753 -6.379e-22)
(0.00040094 0.00032572 1.64026e-21)
(0.00029556 0.000552281 1.1864e-23)
(0.000301436 0.000563289 1.2081e-23)
(0.000309909 0.00057916 1.23898e-23)
(0.000372923 0.00069718 -9.26942e-23)
(0.00029008 0.000542124 4.30498e-23)
(0.000178801 0.000181369 0)
(0.000732799 0.000517776 0)
(0.00056538 0.000989902 -2.34197e-21)
(0.000833167 2.29514e-05 0)
(0.000171776 3.02273e-05 2.33411e-21)
(2.15107e-05 6.20037e-05 4.2178e-21)
(0.000498241 0.000386479 -1.69188e-21)
(0.000406343 0.000632795 2.76936e-21)
(0.00113282 0.000669435 4.28257e-21)
(0.000562774 0.00101389 5.66854e-22)
(0.000575252 0.000993246 -1.14873e-21)
(0.000575836 0.00103557 2.87005e-22)
(0.000654352 0.00109064 -1.28821e-21)
(0.000822347 0.00143714 0)
(0.000623044 0.00107627 3.19641e-22)
(7.15167e-05 5.06144e-05 2.40154e-21)
(0.000869862 0.000290738 1.98196e-21)
(0.000467258 0.000930693 -1.16022e-21)
(0.000505384 0.00097489 -8.7911e-22)
(0.000606852 0.0011066 -4.05788e-22)
(0.000541652 0.000906825 4.53521e-22)
(0.000488109 0.000892126 4.95521e-22)
(0.000473041 0.000895462 1.12717e-21)
(0.000570235 0.00102048 1.79814e-23)
(0.000460419 0.000854641 0)
(0.000571436 0.00103829 -8.37937e-22)
(0.000484387 0.000935774 7.19394e-22)
(0.000545614 0.00110031 -5.50836e-22)
(0.000588552 0.00113717 -8.48875e-22)
(0.000441952 0.000854372 -2.5282e-22)
(0.000424623 0.000850139 5.24698e-22)
(0.000594026 0.00114059 0)
(0.000399671 0.000813363 -1.15994e-21)
(0.000458301 0.000849162 2.88719e-22)
(0.000470437 0.000871348 5.48018e-22)
(0.000620935 0.00108562 -2.30668e-22)
(0.000450252 0.00087395 -2.19999e-22)
(0.000467861 0.000905255 0)
(0.000455831 0.000881874 4.55015e-22)
(0.000487416 0.000871864 0)
(0.000439444 0.000837778 2.62719e-23)
(0.000598234 0.00115427 -1.60688e-23)
(0.000624187 0.00119658 1.66453e-23)
(0.000683625 0.00123876 0)
(0.000490092 0.000901593 4.09069e-21)
(0.000654918 0.00125419 8.08546e-22)
(0.00072424 0.00124843 -2.55247e-21)
(0.00042581 0.000861123 -9.9793e-22)
(0.000486414 0.000855565 0)
(0.000505385 0.000958558 -9.22387e-22)
(0.000551879 0.00109007 4.86306e-22)
(0.00051781 0.000896164 0)
(0.00086138 0.000139565 -1.47245e-21)
(0.000740727 0.00123805 2.80319e-22)
(2.6681e-05 8.34656e-06 1.37975e-21)
(0.000739449 0.00134526 -2.03752e-22)
(0.000906611 -6.4673e-06 -1.72313e-21)
(4.43608e-05 1.78368e-06 2.92174e-21)
(4.1005e-05 -2.92279e-06 0)
(0.000122015 0.000287839 1.53905e-21)
(0.000578859 0.0010177 -4.98928e-22)
(0.000588518 0.00106593 0)
(0.000673324 0.00114793 -2.39342e-21)
(1.54265e-05 5.27571e-05 -2.64323e-21)
(0.000220775 0.000491793 0)
(8.06056e-06 -9.54576e-06 -2.34883e-21)
(0.000737519 0.000144382 2.05104e-21)
(0.000830638 2.45071e-05 -7.57945e-22)
(0.000641683 0.00107121 1.91365e-21)
(0.000374402 0.00101809 -7.61193e-22)
(0.000273565 0.000399028 -1.28751e-22)
(0.000430447 0.000856674 2.10278e-21)
(0.000204952 0.000561945 -2.10171e-21)
(0.00106748 0.000454154 9.46144e-23)
(0.000153396 0.000818746 2.11499e-21)
(0.000810752 0.000332417 9.89619e-22)
(7.3307e-05 4.16044e-05 4.30369e-21)
(0.00100359 0.000119773 4.73559e-21)
(0.000620966 0.00110282 -1.77125e-23)
(0.000591659 0.000258837 -2.65755e-21)
(0.00103591 0.00025386 3.22711e-24)
(4.74613e-05 0.00031591 -1.69758e-21)
(0.000453132 0.00115585 -4.00319e-23)