/*--------------------------------*- C++ -*----------------------------------*\
  =========                 |
  \\      /  F ield         | OpenFOAM: The Open Source CFD Toolbox
   \\    /   O peration     | Website:  https://openfoam.org
    \\  /    A nd           | Version:  7
     \\/     M anipulation  |
\*---------------------------------------------------------------------------*/
FoamFile
{
    version     2.0;
    format      ascii;
    class       surfaceScalarField;
    location    "52.5";
    object      phi;
}
// * * * * * * * * * * * * * * * * * * * * * * * * * * * * * * * * * * * * * //

dimensions      [0 3 -1 0 0 0 0];

internalField   nonuniform List<scalar> 
1111
(
6.43896e-09
1.32317e-08
-1.58005e-08
-3.87018e-09
6.52526e-09
-1.1789e-08
1.17027e-08
-1.47228e-08
5.0529e-09
9.34177e-09
3.28097e-10
4.47307e-10
-5.23547e-10
-1.41948e-08
1.4271e-08
-1.41009e-08
1.38503e-08
6.97911e-10
-1.6315e-09
1.48796e-08
2.18049e-09
-3.84466e-09
9.74973e-09
-1.06644e-08
4.75934e-09
-6.68714e-09
-1.26171e-08
1.2582e-08
6.72225e-09
-5.04951e-08
-2.58955e-08
7.63907e-08
-8.10846e-09
7.57779e-09
7.05593e-09
3.57057e-09
3.44978e-10
-3.64914e-09
-2.66409e-10
1.56092e-08
-1.58878e-08
-2.30107e-08
2.32894e-08
-9.62957e-09
-7.93543e-09
8.78611e-09
8.77888e-09
-3.5245e-08
1.75847e-08
-3.23449e-08
5.00051e-08
9.53389e-09
-1.94257e-09
-1.42785e-08
-1.87579e-09
2.53349e-09
-3.73534e-09
3.07764e-09
-3.74224e-09
1.3282e-08
1.94322e-09
-1.1483e-08
8.84992e-09
-2.36734e-09
-1.50336e-08
8.55101e-09
3.77255e-08
-3.0583e-08
-7.14248e-09
-1.93469e-08
1.26725e-10
1.74381e-08
1.78202e-09
-7.51835e-10
4.04832e-09
-1.78978e-08
1.46013e-08
-6.12176e-08
-3.96273e-09
6.51803e-08
1.62213e-10
-1.30542e-09
-3.67272e-10
1.51048e-09
-1.3401e-09
-1.35126e-08
-1.79707e-10
-3.2223e-10
2.84756e-10
2.1718e-10
-1.00949e-08
-8.17741e-09
1.25486e-08
5.72371e-09
7.31475e-10
-2.15094e-09
-8.45906e-09
9.87853e-09
8.01923e-09
9.48274e-10
-8.91935e-09
-4.81546e-11
-2.8414e-09
-7.82731e-09
1.08853e-08
-2.16615e-10
1.13673e-08
-5.80866e-10
-1.93653e-09
-9.97704e-10
9.76588e-10
7.65696e-11
-5.54538e-11
-2.84798e-10
8.71051e-10
4.43443e-10
-1.0297e-09
-5.98361e-10
-4.15933e-11
6.3744e-10
2.51437e-12
1.42197e-11
-1.01065e-09
9.89355e-11
8.97499e-10
-5.61347e-11
-9.27351e-10
7.88642e-10
-1.84146e-08
-1.72093e-09
-5.08677e-10
5.54574e-11
-1.45142e-10
1.34134e-08
-1.32775e-08
3.91244e-09
-4.26786e-10
6.37796e-10
4.03961e-10
-6.14971e-10
-4.12284e-10
-2.29789e-09
1.76846e-09
9.41721e-10
-2.14542e-09
9.70633e-09
-1.14056e-08
-3.81464e-10
-1.97627e-10
7.04133e-11
-8.80068e-09
1.01421e-08
-9.44993e-09
1.19924e-08
-1.70462e-08
4.97273e-09
8.10987e-11
8.78373e-11
-2.07215e-10
-2.62086e-10
2.57259e-10
8.92711e-10
-1.73382e-10
-5.96339e-08
7.43097e-08
-1.46758e-08
1.13992e-09
-3.52127e-10
-1.30985e-09
5.2206e-10
1.10774e-09
1.0313e-08
-1.37305e-08
2.30966e-09
-9.91951e-10
7.08384e-09
-8.55405e-09
2.46216e-09
-6.50018e-09
5.77236e-09
5.50569e-09
-4.77787e-09
-7.17379e-09
-2.17068e-09
2.08302e-09
7.26145e-09
-1.84731e-10
-9.09225e-08
9.13084e-08
-2.01175e-10
-2.58355e-10
-8.97637e-08
9.01714e-08
-1.49363e-10
8.30912e-08
-1.50012e-09
1.16076e-10
-8.17072e-08
-3.14809e-09
-2.07359e-10
7.94683e-10
9.1273e-10
-5.67495e-10
4.02154e-09
-1.6213e-09
3.30195e-09
-5.70219e-09
-1.09433e-09
9.99465e-10
-1.49794e-08
6.61548e-09
9.33875e-09
9.87446e-10
-1.00401e-08
-2.86129e-10
-6.28003e-09
1.29818e-08
1.40146e-09
-8.10318e-09
1.43137e-08
-4.16107e-09
3.35543e-09
-1.3508e-08
1.54243e-08
1.73506e-09
-1.73053e-09
-5.19596e-10
-1.9928e-08
-7.18091e-09
2.76285e-08
1.38525e-08
-8.33946e-09
-2.16108e-09
7.69886e-09
-1.18178e-08
-9.80974e-11
2.17668e-10
-1.42942e-09
-3.64761e-08
-2.31578e-08
8.0631e-09
8.71553e-11
3.84216e-09
-6.99188e-09
1.07916e-08
6.34245e-09
-6.81004e-10
3.85081e-10
5.49368e-10
-2.53445e-10
5.90861e-09
-4.65147e-09
3.56955e-09
-4.8267e-09
-6.06861e-10
-7.04589e-10
3.00796e-10
7.89305e-10
-7.31964e-10
-1.2791e-10
-1.09597e-09
9.39084e-10
-1.77043e-08
2.49482e-09
1.47816e-09
1.37313e-08
2.86808e-10
-8.00977e-10
-1.66836e-10
-3.91574e-09
-1.48454e-08
1.05679e-09
5.6672e-09
1.18292e-08
-5.23627e-09
-1.22601e-08
1.64601e-08
5.79375e-10
-1.59277e-08
-1.11181e-09
-7.65797e-10
5.37159e-10
6.13718e-10
-7.5986e-10
4.02802e-10
3.57058e-10
-7.17038e-09
-3.7455e-09
4.41569e-09
-3.40554e-10
4.99505e-10
-1.58951e-10
1.31684e-09
-1.53275e-08
-8.25052e-10
9.121e-09
-1.04414e-08
-1.11586e-09
-8.87771e-10
1.26481e-08
4.39249e-09
-4.13504e-09
-1.29055e-08
2.23094e-10
6.99804e-09
-7.71072e-09
6.48504e-09
-1.87723e-09
-8.58369e-09
7.88495e-09
2.57597e-09
-1.7836e-09
6.08833e-10
-1.36706e-08
-2.03779e-10
-1.36775e-10
-2.94814e-10
1.10439e-09
-7.98337e-09
7.42861e-10
1.73158e-08
-1.59853e-09
-1.34789e-08
1.47425e-08
-1.26362e-09
1.20367e-08
1.40807e-08
-1.56038e-08
-1.05136e-08
-7.41242e-10
1.27944e-09
-5.38203e-10
1.05827e-09
-1.30018e-09
2.41911e-10
1.71247e-09
-2.29968e-09
5.87215e-10
1.73968e-09
-1.44165e-09
-2.98029e-10
-1.1263e-08
4.73187e-10
1.07898e-08
2.4439e-09
-7.04217e-10
8.89777e-09
-1.52199e-08
6.79888e-09
-8.08565e-09
6.39798e-11
3.91288e-09
-4.06285e-10
-2.78888e-09
2.85286e-09
-7.13598e-09
8.4642e-09
-1.32822e-09
-8.00543e-10
4.13547e-09
6.86609e-10
1.72234e-08
-1.45198e-08
-1.5959e-09
-5.58818e-09
5.21555e-09
-1.24867e-09
-2.41739e-10
6.4045e-09
-6.43104e-09
2.65344e-11
7.03108e-09
4.38322e-09
1.70502e-10
-1.5928e-08
1.04498e-08
1.75149e-08
5.69625e-09
8.33286e-09
8.25716e-09
-6.81788e-09
9.74276e-10
-1.22373e-08
1.07399e-09
4.21673e-10
-1.27696e-08
3.29217e-09
-4.39316e-10
1.27361e-08
-1.21567e-08
-1.53961e-10
-1.01804e-09
-1.37557e-08
7.24639e-09
8.81154e-10
-3.91103e-11
-8.92273e-09
5.16802e-09
-3.11026e-08
-1.25279e-08
-2.56913e-09
1.34133e-09
1.38755e-08
1.09478e-08
-1.06437e-08
-1.41797e-08
1.58494e-08
-3.12381e-09
-1.27256e-08
1.70333e-09
3.87905e-09
-1.37764e-09
-9.64532e-10
-9.95537e-10
1.3157e-09
6.44374e-10
-2.86966e-10
4.14214e-10
4.2212e-10
6.21354e-08
-6.21607e-08
2.52883e-11
6.20545e-08
-6.23587e-08
3.04148e-10
8.36952e-10
6.47507e-08
-6.55797e-08
8.29008e-10
6.4141e-08
6.09673e-10
-2.23244e-10
-6.65284e-08
9.48748e-10
-6.2043e-08
6.19093e-08
1.33687e-10
1.321e-09
-6.78494e-08
-6.22026e-08
1.59579e-10
1.2202e-08
-1.03891e-09
1.65033e-09
-3.72087e-09
3.10945e-09
4.13721e-10
-1.27524e-09
1.10539e-09
-7.73753e-10
1.47519e-09
-1.74423e-09
1.04279e-09
1.52693e-09
-1.68546e-09
3.76191e-10
-9.32068e-11
-3.34593e-09
3.02203e-09
-2.27486e-09
2.59876e-09
-7.7976e-10
-2.84968e-09
2.59053e-09
-3.80524e-09
-5.62409e-09
6.43246e-10
-7.26055e-10
1.40459e-09
1.17599e-09
-6.59336e-09
8.01572e-09
2.96086e-09
2.01877e-08
-4.33837e-09
-8.04782e-10
3.01247e-10
1.14678e-09
-1.00852e-08
-2.63909e-08
5.45593e-09
-4.45003e-09
-3.11397e-09
2.10807e-09
1.31705e-10
1.5642e-11
4.90092e-10
-2.77037e-09
3.48494e-09
8.68798e-09
8.81899e-10
-5.0489e-10
2.2064e-09
-2.48127e-09
2.18345e-09
1.47587e-08
1.31975e-08
-2.69825e-08
3.25065e-08
6.20317e-09
-2.28671e-08
-1.03186e-08
1.81545e-08
-1.77342e-08
1.05276e-08
-2.33181e-10
-5.68554e-11
-1.39542e-09
-1.87293e-09
-2.71016e-09
3.90583e-09
1.47765e-08
-6.02518e-10
-1.35651e-08
-1.17029e-10
-2.74589e-09
1.32306e-11
1.54127e-08
1.75005e-08
1.36352e-08
6.89447e-10
-1.55178e-09
-1.27728e-08
-1.81657e-09
6.01637e-09
1.22989e-08
-7.30878e-10
-1.21451e-09
-3.52896e-09
2.73253e-09
3.81846e-09
2.43212e-09
1.42095e-08
4.13192e-09
-1.39489e-08
1.75941e-08
-1.76086e-09
2.78995e-09
-3.59662e-09
1.87912e-09
-4.61903e-09
1.2893e-08
-1.20162e-08
-1.39313e-08
5.52151e-10
8.76009e-09
-1.89445e-09
1.59173e-09
1.70731e-09
-8.70555e-09
5.98766e-10
-4.42108e-09
-6.05048e-09
1.22018e-08
-1.48569e-08
1.35474e-09
1.66399e-09
-2.19361e-09
1.65027e-08
-1.59731e-08
-9.7714e-10
1.40098e-08
2.85603e-09
-4.15095e-09
-1.3925e-08
7.33073e-09
-1.70648e-08
-8.00007e-09
6.55903e-09
5.85449e-09
1.43714e-08
-9.64158e-09
3.13391e-09
9.08363e-09
9.86668e-09
3.84529e-09
-4.12222e-09
2.14718e-08
-1.88573e-08
4.71622e-09
-1.01654e-08
2.22718e-09
5.48059e-09
1.35917e-08
-9.61277e-11
1.25902e-08
-1.34712e-08
-1.74774e-09
2.3509e-09
-1.44976e-09
8.46604e-10
1.08343e-08
-6.38197e-09
7.37687e-09
-1.05694e-08
1.39137e-09
-4.75421e-09
1.12801e-08
-1.17622e-08
-7.48631e-09
9.03071e-09
9.28986e-09
1.26953e-08
8.98228e-10
-1.36897e-08
1.65976e-09
8.31929e-10
-1.09256e-08
-6.7161e-09
1.01554e-08
-1.6886e-09
2.52319e-09
-8.85379e-09
4.7892e-09
-5.13751e-09
1.13345e-08
-3.49082e-09
-1.15168e-08
3.67317e-09
-4.51652e-09
1.10968e-08
2.06583e-09
1.18565e-09
-5.07322e-09
-1.75056e-08
1.03857e-08
1.21931e-08
8.4569e-10
-1.08137e-08
-9.77463e-09
1.55151e-08
1.23196e-08
2.76811e-09
-9.60713e-09
-1.32211e-08
-2.76031e-10
-1.25996e-08
2.28062e-10
-6.88303e-10
1.13456e-08
1.24228e-08
-8.16024e-09
1.63119e-08
-1.56815e-08
3.50154e-09
-4.51706e-10
1.69237e-09
1.24907e-08
-3.86814e-09
-1.2527e-08
-5.11887e-09
9.8906e-10
4.55148e-09
1.19784e-08
-7.36394e-09
7.90867e-10
-1.31435e-09
1.41506e-09
-1.84846e-09
6.06131e-09
2.5938e-08
-4.1515e-10
-1.16041e-08
1.20192e-08
2.8278e-08
-2.20899e-08
2.1942e-08
1.94087e-08
-1.26053e-08
-2.63028e-09
1.48792e-08
1.95304e-10
-1.21024e-08
-3.01979e-10
-6.02744e-09
-1.94475e-09
2.35216e-09
1.65843e-09
-5.66284e-11
-1.08507e-08
1.1077e-08
-1.69671e-10
2.83131e-09
-5.48802e-09
-1.06907e-08
1.03338e-08
-7.73335e-10
-1.04843e-08
-5.83072e-11
-1.07551e-08
-2.81056e-09
-1.18674e-08
2.25667e-09
7.80836e-09
5.10152e-09
4.43444e-11
-1.15946e-08
1.14936e-08
6.56793e-10
-8.54957e-09
5.25454e-09
-1.08948e-09
2.61277e-09
-2.93806e-09
-1.29865e-08
-1.31148e-08
1.2744e-08
-1.01651e-08
-1.58092e-08
1.00462e-08
9.09779e-09
8.62088e-10
2.58728e-09
-1.41913e-08
1.10281e-08
1.70887e-09
4.01901e-09
3.623e-10
-6.00722e-10
-3.68439e-10
-4.04499e-09
2.66851e-09
-1.36941e-09
3.09008e-10
-3.61248e-10
5.22406e-11
-2.55818e-09
1.27264e-08
2.15136e-09
2.56451e-09
-7.4218e-10
-1.72932e-09
-2.0047e-10
-2.51882e-09
-6.05919e-10
1.27259e-08
9.83633e-09
-4.53362e-10
7.03694e-09
-1.20056e-09
-5.38302e-09
-9.66073e-09
-5.07675e-09
2.4034e-10
6.86673e-11
4.75898e-09
1.33225e-09
-1.6905e-08
-5.41698e-10
-8.9377e-10
-2.54548e-09
9.23504e-10
2.70415e-09
6.19349e-08
-8.81421e-11
-6.18468e-08
6.2353e-08
1.88277e-10
-6.25413e-08
-1.4192e-08
2.45057e-11
1.45535e-08
-3.85978e-10
2.81222e-09
-2.01922e-09
2.75026e-09
1.79216e-09
-4.38866e-09
-4.60669e-10
-6.20175e-10
5.02851e-10
-1.36122e-10
5.76312e-10
-4.1164e-10
1.92276e-08
1.11934e-09
-1.5588e-08
-2.71371e-10
-1.95807e-09
1.22207e-08
2.22808e-09
1.7524e-09
5.21941e-09
-1.92099e-09
-7.72389e-08
-2.41766e-08
-4.77881e-09
1.57427e-08
2.31815e-09
-6.0258e-10
-3.28565e-09
-1.31582e-09
6.24205e-10
-5.22895e-10
-1.15476e-08
-3.14107e-10
1.18617e-08
-1.06796e-08
-6.65101e-09
1.06145e-08
-9.31468e-09
8.79375e-09
-4.9962e-11
1.79828e-09
1.10261e-08
-1.08143e-08
-2.11806e-10
7.15785e-10
7.2907e-11
1.00305e-08
9.88138e-10
-1.07402e-09
-2.91766e-10
-1.42424e-08
-5.21443e-10
-1.35191e-08
1.22813e-08
-1.15872e-08
-6.59864e-08
6.49431e-08
1.04329e-09
4.10047e-10
-3.94405e-10
1.17292e-08
-3.77639e-10
1.639e-11
-2.01295e-09
2.77687e-09
-3.40256e-09
-1.35194e-08
-1.66504e-09
2.57408e-09
-4.74743e-09
-1.38726e-08
1.71508e-09
5.61023e-09
9.48064e-09
-8.81e-09
-4.06908e-10
2.92692e-11
-9.34612e-09
-1.29377e-08
1.50395e-10
-6.27068e-08
2.3726e-10
6.24696e-08
6.96311e-10
6.34447e-08
-2.25774e-10
-1.14132e-09
-1.43936e-08
1.05027e-10
-6.33759e-08
6.32709e-08
1.83413e-10
-6.29258e-08
6.27424e-08
4.9323e-10
6.18059e-08
1.52121e-10
-6.1958e-08
6.16361e-08
1.69774e-10
-8.79055e-08
8.85144e-08
7.59707e-13
9.33932e-08
-9.31009e-08
-2.67003e-10
-8.66448e-08
-4.31732e-10
9.33538e-08
-1.83883e-10
-8.49301e-08
-7.65926e-10
9.3485e-08
1.72924e-10
-5.17891e-10
1.96066e-09
9.23613e-08
-6.93495e-08
6.21501e-08
-6.23348e-08
-6.29652e-08
6.14934e-08
1.42713e-10
-2.99843e-09
2.78515e-09
-1.37356e-08
7.55253e-11
1.64814e-10
2.0404e-09
9.17987e-09
-1.15472e-08
3.8281e-08
-3.44535e-08
-1.65971e-08
1.37971e-08
-7.12273e-11
-2.22586e-10
2.57413e-10
8.75914e-10
-1.68275e-10
3.84158e-10
4.62106e-09
1.03102e-09
-3.77296e-09
-3.36435e-10
3.91892e-10
-2.66023e-10
-2.4543e-09
1.28909e-08
2.28985e-09
-1.44482e-08
-2.46697e-09
-3.59223e-09
5.66849e-09
1.06064e-09
-2.60918e-09
1.4186e-08
-1.19117e-09
-3.37886e-09
4.73366e-09
-8.13614e-09
-1.90694e-08
-1.31742e-08
7.73346e-09
5.99288e-09
-3.00549e-10
-5.27231e-10
3.17994e-09
1.44094e-08
2.02994e-09
-1.55977e-09
-4.57457e-10
5.00624e-10
-2.84906e-10
1.59974e-08
-4.83901e-10
-1.58276e-08
-2.41038e-09
-1.76509e-09
2.95005e-10
-2.25291e-10
3.64872e-09
-1.73132e-08
5.95405e-10
-1.66696e-09
-2.28273e-09
-2.40254e-09
1.53085e-08
-9.06044e-08
-1.34751e-10
9.16888e-08
-1.92089e-10
-8.91792e-08
-4.79498e-10
9.31066e-08
-2.73768e-10
-9.2921e-08
-6.08012e-10
-1.76317e-09
1.63412e-08
9.19913e-08
-1.95687e-10
3.15421e-11
-2.20036e-10
1.04074e-08
2.42674e-09
-8.71974e-09
-1.19571e-08
-5.66801e-09
8.46533e-09
1.39559e-09
-6.90005e-09
-6.23403e-09
9.02546e-09
-1.78186e-10
1.01597e-08
1.93478e-08
-1.77352e-08
3.04041e-09
-1.24997e-08
3.01307e-09
-6.99493e-08
3.96286e-09
-2.0352e-08
-1.29773e-08
-5.74777e-10
-5.91997e-09
-1.53448e-08
9.16237e-09
-1.52297e-08
5.40568e-10
4.56685e-10
-1.60955e-09
-1.62549e-08
1.6807e-08
8.39164e-09
-8.599e-09
-5.31753e-09
1.509e-08
-1.70752e-09
8.03613e-10
-1.35297e-09
4.27502e-10
1.19987e-08
3.35913e-09
7.09506e-08
-1.80384e-08
8.88062e-10
-1.4761e-08
-2.84571e-10
-3.31838e-10
-1.38973e-10
6.09583e-08
-6.1232e-08
-6.33444e-08
-6.31215e-08
-6.25471e-11
-2.61345e-10
-9.25971e-08
-6.04603e-08
6.24209e-08
6.50592e-08
-6.02874e-08
6.45413e-08
-6.04712e-08
6.37754e-08
-6.07382e-08
6.33436e-08
9.23207e-08
3.57077e-10
-6.44138e-09
7.51e-08
-6.52995e-08
8.62433e-11
-8.62433e-11
1.36696e-09
-3.6638e-10
1.54988e-08
-9.26329e-11
9.26329e-11
4.45127e-10
1.56987e-09
1.38589e-08
1.31533e-08
-2.77846e-09
3.75889e-09
6.3285e-09
1.94524e-09
4.38818e-10
-3.09176e-10
-2.93269e-09
1.44427e-08
1.48306e-08
-4.27163e-09
1.1765e-08
2.40999e-10
1.91602e-10
2.92336e-09
-9.73222e-10
-1.70509e-09
-5.91443e-09
-1.56377e-10
-4.6106e-10
1.52673e-08
3.341e-10
1.30461e-10
1.55312e-08
-2.58962e-08
1.74077e-08
2.59655e-09
1.42388e-09
2.36239e-09
-3.65198e-09
1.90947e-08
-1.78051e-08
-1.17537e-10
6.57392e-10
-1.44507e-09
-7.92188e-08
-7.07946e-08
1.4372e-09
-9.33401e-10
7.05986e-10
2.28401e-08
1.84497e-08
-6.45049e-09
1.18673e-10
-4.44105e-09
-2.31173e-09
2.99702e-08
1.55956e-10
1.48179e-08
7.35806e-08
8.55535e-11
5.5072e-10
-2.02031e-10
-2.66583e-10
-3.81632e-09
2.42265e-08
-1.48264e-08
1.1612e-09
-1.39674e-08
-7.85696e-11
2.02333e-08
-2.87087e-08
9.02793e-10
2.32328e-09
-5.59002e-10
)
;

boundaryField
{
    back
    {
        type            empty;
        value           nonuniform 0();
    }
    ingreso
    {
        type            calculated;
        value           nonuniform List<scalar> 
14
(
-1.54286e-08
-1.54288e-08
-1.54288e-08
-1.54288e-08
-1.54286e-08
-1.54283e-08
-1.54288e-08
-1.54288e-08
-1.54286e-08
-1.54286e-08
-1.54288e-08
-1.5428e-08
-1.5428e-08
-1.54286e-08
)
;
    }
    salida
    {
        type            calculated;
        value           nonuniform List<scalar> 2(1.01416e-07 1.14584e-07);
    }
    front
    {
        type            empty;
        value           nonuniform 0();
    }
    defaultFaces
    {
        type            calculated;
        value           uniform 0;
    }
}


// ************************************************************************* //
