/*--------------------------------*- C++ -*----------------------------------*\
  =========                 |
  \\      /  F ield         | OpenFOAM: The Open Source CFD Toolbox
   \\    /   O peration     | Website:  https://openfoam.org
    \\  /    A nd           | Version:  7
     \\/     M anipulation  |
\*---------------------------------------------------------------------------*/
FoamFile
{
    version     2.0;
    format      ascii;
    class       surfaceScalarField;
    location    "116.5";
    object      phi;
}
// * * * * * * * * * * * * * * * * * * * * * * * * * * * * * * * * * * * * * //

dimensions      [0 3 -1 0 0 0 0];

internalField   nonuniform List<scalar> 
1111
(
7.25642e-09
1.28068e-08
-1.6068e-08
-3.99522e-09
7.17375e-09
-1.17508e-08
1.18335e-08
-1.47216e-08
5.97822e-09
8.68446e-09
5.89469e-11
1.05423e-09
-1.22951e-09
-1.44101e-08
1.45854e-08
-1.43777e-08
1.42294e-08
1.20256e-09
-1.59906e-09
1.49162e-08
2.1114e-09
-2.34308e-09
9.15948e-09
-8.93605e-09
2.11965e-09
-6.72426e-09
-1.26091e-08
1.25947e-08
6.73871e-09
-5.0159e-08
-2.61262e-08
7.62853e-08
-8.07218e-09
7.73956e-09
7.50637e-09
3.17872e-09
3.87964e-10
-3.2535e-09
-3.13182e-10
1.58649e-08
-1.62811e-08
-2.32729e-08
2.36891e-08
-9.66711e-09
-7.90156e-09
8.80299e-09
8.76569e-09
-3.56072e-08
1.7744e-08
-3.23946e-08
5.02578e-08
9.48922e-09
-1.95774e-09
-1.42557e-08
-1.28759e-10
1.1164e-09
-2.35305e-09
1.36541e-09
-3.97555e-09
1.32551e-08
1.97321e-09
-1.12527e-08
8.80627e-09
-2.71371e-09
-1.50656e-08
8.97303e-09
3.71292e-08
-2.97933e-08
-7.33596e-09
-1.93928e-08
2.41542e-10
1.72184e-08
1.93279e-09
-1.08829e-09
4.22956e-09
-1.78279e-08
1.46866e-08
-6.12299e-08
-3.96104e-09
6.51909e-08
1.33208e-10
-1.05545e-09
-3.15774e-10
1.23802e-09
-1.8283e-09
-1.36377e-08
-4.50841e-11
-1.86402e-10
1.26697e-10
1.04788e-10
-1.0429e-08
-8.7176e-09
1.33444e-08
5.80224e-09
6.87574e-10
-2.15163e-09
-8.17129e-09
9.63534e-09
8.95849e-09
7.08355e-10
-1.00361e-08
3.69224e-10
-2.85653e-09
-8.17109e-09
1.12489e-08
-2.21252e-10
1.14175e-08
-1.11315e-09
-1.49803e-09
-7.07863e-10
7.24363e-10
-5.09018e-11
3.44018e-11
6.55785e-12
5.72284e-10
1.02924e-10
-6.81766e-10
-3.41812e-10
-4.12152e-11
3.72515e-10
1.0512e-11
-7.8049e-11
-6.5352e-10
1.18582e-10
6.12987e-10
-1.27579e-10
-6.58332e-10
1.04425e-09
-1.83426e-08
-2.09443e-09
-2.6968e-10
3.25845e-11
-1.04717e-10
1.33775e-08
-1.32486e-08
4.10067e-09
-3.18702e-10
4.95978e-10
2.85863e-10
-4.63139e-10
1.84263e-10
-9.00692e-10
8.0357e-10
-8.71413e-11
-1.71927e-09
1.07322e-08
-1.1356e-08
-1.81757e-10
-1.21897e-10
3.39749e-11
-8.69143e-09
1.07247e-08
-1.01055e-08
1.23005e-08
-1.71253e-08
4.47399e-09
3.5077e-10
3.58895e-11
-1.13808e-10
-1.03838e-10
1.05551e-10
6.80343e-10
-6.15313e-11
-5.94894e-08
7.4223e-08
-1.47335e-08
9.36379e-10
-1.56693e-10
-1.0237e-09
2.44019e-10
1.12891e-09
1.03089e-08
-1.37136e-08
2.27578e-09
-2.00597e-09
7.98151e-09
-8.90432e-09
2.92878e-09
-6.83845e-09
5.51675e-09
5.76755e-09
-4.44585e-09
-8.01976e-09
-1.33455e-09
1.47678e-09
7.87753e-09
-1.82969e-10
-9.09124e-08
9.12985e-08
-2.03132e-10
-2.57703e-10
-8.97486e-08
9.01589e-08
-1.52532e-10
8.3079e-08
-1.49119e-09
1.0986e-10
-8.16977e-08
-2.66336e-09
-6.40813e-10
5.34167e-10
7.65825e-10
-3.63613e-10
3.85689e-09
-7.06788e-10
3.62495e-09
-6.77505e-09
-8.38399e-10
7.87257e-10
-1.49055e-08
6.56684e-09
1.01245e-08
1.0866e-09
-1.09042e-08
-3.06832e-10
-6.01187e-09
1.37111e-08
8.23841e-10
-8.52303e-09
1.44032e-08
-4.64322e-09
3.88299e-09
-1.3643e-08
1.53823e-08
1.67179e-09
-1.62534e-09
-1.66487e-10
-2.00905e-08
-7.45092e-09
2.77079e-08
1.46714e-08
-8.95969e-09
-1.8038e-09
8.11853e-09
-1.23266e-08
7.98052e-11
-5.0242e-11
-1.05327e-09
-3.60753e-08
-2.34142e-08
8.39075e-09
3.4026e-10
3.56952e-09
-6.94087e-09
1.14371e-08
6.22846e-09
-5.14693e-10
2.58953e-10
4.16084e-10
-1.60344e-10
5.62157e-09
-4.8656e-09
3.71635e-09
-4.47232e-09
-3.26934e-10
-5.53357e-10
2.26772e-10
5.33279e-10
-4.55912e-10
6.77114e-11
-5.79945e-10
5.18791e-10
-1.83452e-08
2.36545e-09
1.62883e-09
1.43509e-08
1.66424e-10
-5.93664e-10
-8.74524e-11
-4.31019e-09
-1.52398e-08
1.20472e-09
5.6327e-09
1.21473e-08
-5.24645e-09
-1.25335e-08
1.63498e-08
7.77073e-10
-1.58111e-08
-1.31586e-09
-5.93578e-10
3.75494e-10
4.77037e-10
-1.64597e-10
6.87092e-11
9.58873e-11
-7.57499e-09
-3.42398e-09
4.16052e-09
-1.5081e-10
2.47284e-10
-9.64737e-11
9.87025e-10
-1.57263e-08
-6.86047e-10
1.03073e-08
-1.13406e-08
-8.09496e-10
-9.68848e-11
1.30341e-08
4.5126e-09
-4.22832e-09
-1.33184e-08
2.36256e-11
7.27949e-09
-8.079e-09
6.31627e-09
-1.51063e-09
-9.24278e-09
8.39639e-09
2.35702e-09
-1.99908e-09
7.14146e-10
-1.39548e-08
-7.47062e-11
-7.61043e-11
5.31014e-10
5.01414e-10
-9.05219e-09
8.0575e-10
1.72494e-08
-1.70531e-09
-1.16891e-08
1.30964e-08
-1.40733e-09
1.23296e-08
1.39091e-08
-1.54995e-08
-1.07391e-08
-4.08749e-10
7.90924e-10
-3.82175e-10
8.30397e-12
2.54637e-10
-2.62941e-10
-4.389e-10
1.09533e-09
-6.56427e-10
1.16891e-09
-9.24132e-10
-2.44779e-10
-1.04675e-08
1.05954e-09
9.40793e-09
1.75964e-09
-5.90731e-10
8.98642e-09
-1.54334e-08
8.14492e-09
-9.61987e-09
7.355e-11
3.52682e-09
-4.21647e-10
-2.14761e-09
2.22116e-09
-6.2933e-09
7.63048e-09
-1.33718e-09
-3.37107e-10
4.33563e-09
-1.4163e-10
1.72425e-08
-1.44767e-08
-1.63683e-09
-6.30679e-09
5.50501e-09
9.49895e-11
-1.61465e-10
5.60573e-09
-5.56135e-09
-4.43777e-11
6.77576e-09
4.61336e-09
-8.85808e-11
-1.58421e-08
1.05166e-08
1.76551e-08
5.86747e-09
8.18777e-09
8.14526e-09
-6.84745e-09
1.4804e-09
-1.19479e-08
-3.53104e-11
1.71003e-09
-1.30298e-08
2.63984e-09
-4.18686e-10
1.08833e-08
-1.01062e-08
-3.20226e-10
-6.16849e-10
-1.38423e-08
7.94927e-09
6.29745e-10
1.76442e-11
-8.86971e-09
4.93385e-09
-2.99598e-08
-1.25246e-08
-2.87577e-09
1.55797e-09
1.41507e-08
1.11448e-08
-1.08751e-08
-1.44204e-08
1.53354e-08
-3.20995e-09
-1.21254e-08
1.59004e-09
4.05131e-09
-7.63465e-10
-8.52986e-10
-7.53907e-10
1.03253e-09
5.74363e-10
-1.93771e-10
3.09037e-10
3.00818e-10
6.21483e-08
-6.21745e-08
2.62266e-11
6.20675e-08
-6.23719e-08
3.0437e-10
8.3764e-10
6.47299e-08
-6.55573e-08
8.27338e-10
6.41217e-08
6.08199e-10
-2.23621e-10
-6.65025e-08
9.45228e-10
-6.20641e-08
6.19294e-08
1.34731e-10
1.31422e-09
-6.78167e-08
-6.22239e-08
1.59748e-10
1.28533e-08
-4.44747e-10
1.0676e-09
-3.69537e-09
3.07252e-09
2.53189e-10
-1.1136e-09
7.94776e-10
-4.35641e-10
1.32608e-09
-1.5312e-09
6.40759e-10
1.30522e-09
-1.35398e-09
-1.48349e-12
-2.54508e-11
-3.48818e-09
2.56207e-09
-1.78224e-09
2.70835e-09
-2.27064e-10
-2.64821e-09
2.43053e-09
-3.38522e-09
-5.92622e-09
5.43271e-10
-5.31353e-10
1.05311e-09
1.06774e-09
-6.3809e-09
7.81831e-09
3.17595e-09
1.9713e-08
-4.37768e-09
-6.25935e-10
2.70492e-10
8.98715e-10
-1.00556e-08
-2.60197e-08
5.19083e-09
-4.1325e-09
-3.22172e-09
2.16339e-09
7.83926e-11
2.64876e-11
2.67635e-10
-2.42132e-09
3.24273e-09
9.06829e-09
6.29316e-10
-4.99131e-11
2.01126e-09
-2.18842e-09
1.63072e-09
1.46986e-08
1.33611e-08
-2.69185e-08
3.27278e-08
6.30664e-09
-2.28671e-08
-1.0358e-08
1.85939e-08
-1.80872e-08
1.06381e-08
3.60048e-11
-2.8932e-10
-1.10066e-09
-1.58259e-09
-2.73668e-09
2.99185e-09
1.52369e-08
-6.60323e-10
-1.38624e-08
-1.04617e-09
-2.05389e-09
4.5185e-10
1.54975e-08
1.77951e-08
1.36843e-08
7.89179e-10
-1.76248e-09
-1.2711e-08
-1.33749e-09
5.99035e-09
1.26765e-08
-3.44595e-10
-9.30586e-10
-3.70865e-09
2.83957e-09
3.43114e-09
2.52628e-09
1.46417e-08
4.36387e-09
-1.44929e-08
1.82094e-08
-1.76776e-09
2.2577e-09
-3.23242e-09
1.93949e-09
-4.97435e-09
1.29065e-08
-1.19077e-08
-1.40586e-08
2.88887e-10
8.79536e-09
-1.74331e-09
1.45499e-09
1.34144e-09
-8.67046e-09
6.80736e-10
-4.53483e-09
-5.9887e-09
1.21651e-08
-1.48468e-08
9.08713e-10
1.69849e-09
-2.20303e-09
1.693e-08
-1.64254e-08
-1.1855e-09
1.42094e-08
3.1556e-09
-4.53956e-09
-1.40495e-08
7.62099e-09
-1.75277e-08
-8.18053e-09
7.00473e-09
5.89927e-09
1.47328e-08
-1.02158e-08
2.97893e-09
9.59388e-09
9.77198e-09
3.9138e-09
-4.26291e-09
2.18793e-08
-1.93615e-08
5.10318e-09
-1.07952e-08
2.16948e-09
5.7484e-09
1.40898e-08
-4.39169e-10
1.28418e-08
-1.35881e-08
-1.94645e-09
1.4203e-09
-4.14159e-10
9.40312e-10
1.11335e-08
-6.35499e-09
7.36877e-09
-1.11883e-08
1.47967e-09
-4.738e-09
1.15852e-08
-1.20937e-08
-7.60033e-09
9.29667e-09
9.43717e-09
1.30126e-08
4.64245e-10
-1.3916e-08
1.33904e-09
7.61231e-10
-1.12196e-08
-6.72003e-09
1.03393e-08
-1.21501e-09
2.50529e-09
-9.03704e-09
4.75042e-09
-5.39043e-09
1.17362e-08
-3.45209e-09
-1.19663e-08
3.68221e-09
-4.44531e-09
1.14435e-08
1.70418e-09
1.08985e-09
-5.09966e-09
-1.79629e-08
1.06123e-08
1.24502e-08
6.76833e-10
-1.11631e-08
-1.01053e-08
1.61687e-08
1.27429e-08
2.89935e-09
-9.89388e-09
-1.33631e-08
-3.19358e-10
-1.27539e-08
1.8083e-10
-7.71716e-10
1.18398e-08
1.25562e-08
-8.23595e-09
1.67981e-08
-1.61442e-08
3.70992e-09
-5.41606e-10
1.83375e-09
1.30588e-08
-3.94544e-09
-1.28164e-08
-4.88437e-09
2.03523e-09
4.55918e-09
1.24926e-08
-7.23714e-09
1.03428e-09
-1.70552e-09
2.28871e-10
-4.69807e-10
6.01461e-09
2.65028e-08
1.10384e-10
-8.87781e-09
8.76742e-09
2.87209e-08
-2.24648e-08
2.21371e-08
1.98632e-08
-1.27162e-08
-2.75354e-09
1.51952e-08
1.29611e-10
-1.21491e-08
-4.75182e-10
-5.98936e-09
-1.81196e-09
2.11536e-09
1.40078e-09
-6.17718e-10
-1.1237e-08
1.1715e-08
1.39753e-10
2.8781e-09
-4.83369e-09
-1.13146e-08
1.08414e-08
-9.48256e-10
-1.10118e-08
-3.2551e-10
-1.1527e-08
-2.34547e-09
-1.2177e-08
2.12424e-09
7.86821e-09
5.16974e-09
-6.65662e-10
-1.18279e-08
1.18759e-08
5.20974e-10
-8.99253e-09
5.07405e-09
-1.62437e-09
1.9993e-09
-1.66959e-09
-1.3069e-08
-1.22927e-08
1.17375e-08
-1.01256e-08
-1.58495e-08
1.0133e-08
9.31865e-09
7.69584e-10
2.79485e-09
-1.16727e-08
1.16565e-08
1.66295e-09
3.84407e-09
2.42822e-10
-4.16849e-10
-1.52907e-10
-4.16746e-09
2.4324e-09
-3.18822e-10
1.20742e-10
-1.42819e-10
2.20765e-11
-2.74321e-09
1.3223e-08
2.26316e-09
2.51136e-09
4.86702e-10
-1.17608e-09
-6.9583e-10
-2.16535e-09
-1.11394e-10
1.31803e-08
1.02402e-08
-2.66098e-10
6.6696e-09
-1.25978e-09
-5.14372e-09
-9.88581e-09
-5.1777e-09
8.99151e-11
3.08269e-11
4.83666e-09
1.37957e-09
-1.73793e-08
-2.30763e-10
-6.67189e-10
-2.77373e-09
1.03079e-09
3.30896e-09
6.19509e-08
-8.5707e-11
-6.18652e-08
6.23748e-08
1.88602e-10
-6.25634e-08
-1.40913e-08
-4.09547e-10
1.44137e-08
8.7121e-11
3.31455e-09
-1.65371e-09
2.35865e-09
1.80035e-09
-4.58446e-09
-1.8289e-10
-4.52643e-10
3.68002e-10
-7.57031e-11
3.33857e-10
-2.12933e-10
1.9838e-08
9.85049e-10
-1.59864e-08
-7.53278e-11
-1.95612e-09
1.27044e-08
2.3105e-09
1.83458e-09
5.3418e-09
-2.1488e-09
-7.72312e-08
-2.41785e-08
-5.10197e-09
1.58353e-08
2.52173e-09
2.30695e-10
-2.71487e-09
-9.17735e-10
1.45246e-10
-1.58097e-10
-9.38718e-09
-3.73895e-10
9.76107e-09
-1.09711e-08
-6.53839e-09
1.07895e-08
-9.57513e-09
8.72586e-09
3.4736e-10
1.30364e-09
8.97831e-09
-8.99838e-09
2.00767e-11
5.16032e-10
8.78331e-11
1.10289e-08
3.60517e-10
-5.89267e-10
1.88924e-11
-1.42613e-08
-4.08868e-10
-1.39034e-08
1.28552e-08
-1.1949e-08
-6.60364e-08
6.49946e-08
1.0418e-09
1.64026e-10
-1.37538e-10
1.21994e-08
-1.47382e-10
4.56327e-12
-2.16472e-09
2.74443e-09
-3.39818e-09
-1.3465e-08
-1.62752e-09
2.57959e-09
-4.61299e-09
-1.42333e-08
1.46698e-09
5.51698e-09
9.79726e-09
-9.16922e-09
-1.67335e-10
1.99536e-11
-9.26598e-09
-1.35519e-08
1.50926e-10
-6.26909e-08
2.35546e-10
6.24553e-08
6.95463e-10
6.34263e-08
-2.2354e-10
-1.72195e-09
-1.45164e-08
1.07427e-10
-6.34104e-08
6.3303e-08
1.85277e-10
-6.29518e-08
6.27665e-08
2.64325e-10
6.17968e-08
1.50544e-10
-6.19473e-08
6.16279e-08
1.68887e-10
-8.78886e-08
8.84977e-08
-8.95701e-13
9.33921e-08
-9.30986e-08
-2.67281e-10
-8.66282e-08
-4.33043e-10
9.33511e-08
-1.82655e-10
-8.49157e-08
-7.67365e-10
9.34817e-08
1.73772e-10
-5.22392e-10
1.96172e-09
9.23576e-08
-6.93079e-08
6.21382e-08
-6.23212e-08
-6.29485e-08
6.14855e-08
1.42422e-10
-3.19415e-09
2.97684e-09
-1.42756e-08
3.57007e-11
5.42144e-11
8.95837e-10
8.67843e-09
-1.13921e-08
3.83499e-08
-3.45834e-08
-1.67963e-08
1.38295e-08
-2.4064e-11
-1.85673e-10
9.51591e-11
4.60352e-10
-1.01477e-10
2.75708e-10
4.34849e-09
1.06703e-09
-3.47602e-09
-9.4441e-11
1.27026e-10
-6.04659e-11
-2.62648e-09
1.33726e-08
2.47681e-09
-1.44167e-08
-2.61915e-09
-3.1876e-09
5.45333e-09
1.05855e-09
-2.5928e-09
1.44213e-08
-1.2162e-09
-1.27729e-09
1.10867e-09
-8.15276e-09
-1.9092e-08
-1.35472e-08
8.09114e-09
5.74496e-09
-1.57386e-10
-5.85906e-10
2.85865e-09
1.45028e-08
2.29505e-09
-1.88164e-09
-3.35121e-10
3.85296e-10
-2.1164e-10
1.5867e-08
-6.17504e-10
-1.56234e-08
6.80864e-10
2.85703e-10
3.45156e-10
-2.89164e-10
3.3321e-09
-1.60734e-08
3.72112e-10
-1.41677e-09
-1.99412e-09
-2.26861e-09
1.58445e-08
-9.0593e-08
-1.34088e-10
9.16781e-08
-1.90946e-10
-8.91635e-08
-4.77726e-10
9.31013e-08
-2.7522e-10
-9.29117e-08
-5.1997e-10
-1.48753e-09
1.69519e-08
9.19795e-08
-1.98634e-10
2.97075e-11
-2.20866e-10
9.60369e-09
2.32491e-09
-6.98342e-09
-1.23569e-08
-5.67486e-09
8.34971e-09
1.54607e-09
-6.71983e-09
-5.96814e-09
9.0703e-09
-2.45762e-11
1.01119e-08
1.9495e-08
-1.79811e-08
3.09196e-09
-1.28644e-08
3.13991e-09
-6.99574e-08
3.92104e-09
-2.05958e-08
-1.30351e-08
-4.23664e-10
-5.91296e-09
-1.53216e-08
9.08548e-09
-1.50473e-08
3.52611e-10
2.98985e-10
-1.97311e-09
-1.6831e-08
1.72137e-08
6.92447e-09
-7.56528e-09
-4.19489e-09
1.53704e-08
-1.69832e-09
7.49271e-10
-6.53136e-10
-1.53896e-11
1.19625e-08
3.31213e-09
7.09109e-08
-1.82319e-08
6.13463e-10
-1.51328e-08
-2.01766e-10
-2.29829e-10
-1.68333e-10
6.0948e-08
-6.12232e-08
-6.33807e-08
-6.31504e-08
-6.41827e-11
-2.62221e-10
-9.25853e-08
-6.0451e-08
6.24127e-08
6.51044e-08
-6.02772e-08
6.4582e-08
-6.04599e-08
6.38147e-08
-6.07272e-08
6.33816e-08
9.23082e-08
2.28335e-10
-6.32787e-09
7.5132e-08
-6.5492e-08
1.73418e-11
-1.73418e-11
-1.91711e-10
-2.88983e-10
1.54731e-08
5.3835e-12
-5.3835e-12
2.5779e-10
1.51211e-09
1.39167e-08
1.34971e-08
-2.69944e-09
3.71135e-09
6.76089e-09
1.66339e-09
3.20588e-10
-2.13318e-10
-2.95457e-09
1.45655e-08
1.48405e-08
-4.294e-09
1.18212e-08
1.45371e-10
1.18665e-10
2.61523e-09
-7.22362e-10
-1.42424e-09
-5.86107e-09
-1.82784e-10
-3.54191e-10
1.53148e-08
2.00043e-10
2.90092e-11
1.41406e-08
-2.62936e-08
1.7915e-08
2.72489e-09
1.1573e-09
2.50052e-09
-3.7233e-09
1.9456e-08
-1.82332e-08
-5.73645e-11
-1.12506e-10
-1.4412e-09
-7.92147e-08
-7.07491e-08
1.16209e-09
-2.31464e-10
5.82509e-10
2.30161e-08
1.8616e-08
-6.4666e-09
7.94721e-11
-4.16464e-09
-2.52456e-09
2.99677e-08
1.61721e-10
1.48185e-08
7.35781e-08
2.99595e-11
4.9429e-10
-1.24879e-10
-1.81055e-10
-3.51925e-09
2.43748e-08
-1.4867e-08
8.18116e-10
-1.42115e-08
-3.68726e-11
2.04116e-08
-2.87793e-08
9.73783e-10
1.78953e-09
-1.20961e-10
)
;

boundaryField
{
    back
    {
        type            empty;
        value           nonuniform 0();
    }
    ingreso
    {
        type            calculated;
        value           nonuniform List<scalar> 
14
(
-1.54286e-08
-1.54288e-08
-1.54288e-08
-1.54288e-08
-1.54286e-08
-1.54283e-08
-1.54288e-08
-1.54288e-08
-1.54286e-08
-1.54286e-08
-1.54288e-08
-1.5428e-08
-1.5428e-08
-1.54286e-08
)
;
    }
    salida
    {
        type            calculated;
        value           nonuniform List<scalar> 2(1.0141e-07 1.1459e-07);
    }
    front
    {
        type            empty;
        value           nonuniform 0();
    }
    defaultFaces
    {
        type            calculated;
        value           uniform 0;
    }
}


// ************************************************************************* //
