/*--------------------------------*- C++ -*----------------------------------*\
  =========                 |
  \\      /  F ield         | OpenFOAM: The Open Source CFD Toolbox
   \\    /   O peration     | Website:  https://openfoam.org
    \\  /    A nd           | Version:  7
     \\/     M anipulation  |
\*---------------------------------------------------------------------------*/
FoamFile
{
    version     2.0;
    format      ascii;
    class       volScalarField;
    location    "31";
    object      p;
}
// * * * * * * * * * * * * * * * * * * * * * * * * * * * * * * * * * * * * * //

dimensions      [0 2 -2 0 0 0 0];

internalField   nonuniform List<scalar> 
591
(
0.000124032
0.000124048
0.000124062
0.000124022
0.000124024
0.000124107
0.000124088
0.000124055
0.000117043
0.00012406
0.000124221
0.000122945
0.000124079
0.000119819
0.000124057
0.000124103
0.00012399
0.000124091
0.000122072
0.00012344
0.000124026
-3.53079e-06
0.00012422
0.000124028
0.00012418
0.000124046
0.000124119
0.000124141
0.000124058
0.000124086
0.000124198
0.000124176
0.000124194
0.000124193
0.000124195
0.000123536
0.000124191
0.000124037
0.000124215
0.000124132
0.000124118
0.000124188
0.000124056
0.000124076
0.000124185
0.000124202
0.000119324
0.000124206
0.000124069
0.000124175
0.000124141
0.00012418
2.39387e-05
3.06089e-05
4.78887e-05
0.000124073
0.00012421
0.000124191
0.000124204
0.000124033
0.000124113
0.000124052
0.000124056
0.000124119
0.000122675
0.000124053
0.000124059
0.000124201
0.000120812
0.000124075
0.000124059
0.000124208
0.000124166
0.000124188
0.000124194
0.00012417
0.000124025
0.000124204
0.00012403
0.000123951
0.000123812
0.000124209
0.000124172
0.00012414
0.000124217
0.000124039
0.000124132
0.000124199
0.000124163
0.00012392
0.000124177
0.000124109
0.000124134
0.000124037
0.000124215
0.000124172
0.000123742
0.000123639
0.000123765
0.000124219
0.000124131
0.000124041
0.000124223
0.000124024
0.000124222
0.000124059
0.000124047
0.000124173
0.000124213
0.000124218
0.000124101
0.00012419
0.000124075
0.000124198
0.000124218
0.000124194
0.000124141
0.00012415
0.000123696
0.000124107
0.000124055
0.000124084
0.0001241
0.000124043
0.000124191
0.000120326
0.000124221
0.000124195
0.000123813
0.000124195
0.000124045
0.000123736
0.000124155
0.000124153
0.000124197
0.000124068
0.000122709
0.000124222
0.000124052
0.000123701
0.000123763
0.000124126
0.000124199
0.000124215
0.00012421
7.64959e-06
3.68452e-06
2.06918e-06
3.81895e-05
3.6735e-05
5.68618e-06
3.83309e-05
1.57687e-05
3.73051e-05
1.78394e-05
0.000124053
0.00012404
0.000124207
0.000124206
0.000124212
0.000124209
0.000124203
0.000124201
0.000124204
0.000124205
0.000124165
0.000124213
0.000124208
0.000124213
0.000124141
0.000123502
0.000124215
0.000122227
0.000124186
0.000124197
0.000124138
0.00012406
0.000124197
0.000124206
0.000124201
0.00012361
0.000122574
0.000123158
0.000123572
0.0001242
0.000124205
0.000124149
0.000124029
0.000124197
0.000123068
0.000123426
0.000124032
0.000124196
0.000123894
0.00012419
0.000124196
0.000124168
0.000123866
0.000124016
0.000124195
0.000124206
0.000124199
0.000123991
0.000124181
0.000123987
0.000124214
0.000124054
0.000124048
0.00012421
0.000123835
0.000124019
0.000124066
0.000123675
0.000124161
0.000123822
0.000124107
0.000124105
0.000124185
0.000123595
0.000124101
0.000124005
0.000124017
0.00012417
0.000123928
0.000124092
0.000123999
0.000123904
0.00012401
0.000124216
0.000123969
0.000124209
0.000124046
0.000124184
0.000124043
0.00012404
0.000124217
0.000123946
0.000124207
0.000123941
0.000123988
0.000124062
0.000124038
0.000124061
0.000124055
0.000123812
0.000124022
0.000123967
0.000124176
0.000124043
0.000123871
0.000124165
0.000123431
0.000123979
0.000123343
0.0001232
0.000124043
0.000124006
0.000124039
0.000124034
0.000123985
0.000124214
0.000124079
0.000124157
0.000124076
0.000124083
0.000124095
0.000124164
0.000123819
0.00012421
0.000123859
0.000123753
0.000124069
0.000124185
0.000123769
0.000124211
0.00012411
0.000124156
0.000124168
0.000124069
0.000124024
0.000123826
0.000124004
0.000124017
0.000124068
0.000124109
0.000124184
0.000124195
0.000124204
0.000123979
0.000124073
0.000124188
0.000124198
0.000124194
0.000124001
0.000124205
0.000124077
0.000124179
0.000123967
0.000124207
0.00012396
0.000124185
0.000124098
0.000124025
1.16617e-05
2.19352e-05
0.000124003
0.000124053
0.000124212
0.00012399
0.000124213
0.000124066
0.000124206
0.000124186
0.00012395
0.00012418
0.000124018
0.000124207
0.000124062
-2.08365e-07
0.000123886
0.000124188
0.000124185
0.000123911
0.000124024
0.000124056
0.00012418
0.000123975
0.000124201
0.000124098
0.000124057
0.000124178
0.000124021
0.000123945
0.000123967
0.000124073
4.74393e-05
0.000124196
0.000124178
0.000124045
0.000124202
0.000124122
0.00012407
0.000124044
0.000124051
0.000124189
0.000124092
0.000123984
0.000124074
0.000123987
0.000124202
0.000123994
0.000124036
0.000124077
0.000124158
1.99038e-05
2.73216e-05
3.43273e-05
9.66371e-06
0.00012403
3.3084e-05
2.60075e-05
0.000124199
1.91067e-05
1.70701e-05
3.82202e-05
7.58882e-06
3.99751e-05
5.61611e-06
4.08747e-05
3.68744e-06
4.28587e-05
1.86634e-06
3.64192e-05
2.32111e-05
2.94537e-05
1.50206e-05
0.000123899
0.000124208
0.000124097
0.000124108
0.000121026
0.000124173
0.000124204
0.000124175
0.000124007
0.000124209
0.000124202
0.000124192
0.000124189
0.000123962
0.000124052
0.000124186
0.00012419
0.000124032
0.000123923
0.000123925
0.000123515
0.000123979
0.000124219
0.000124195
0.000124063
0.000124217
0.000123909
0.00012406
0.000123866
0.000122982
0.00012419
0.0001242
0.000124217
0.000123914
0.000124069
0.000123869
0.000124069
0.000124048
2.60409e-05
2.18876e-05
3.30613e-05
1.1603e-05
0.000124224
0.000123914
1.98578e-05
2.82617e-05
3.56325e-05
9.58302e-06
0.000124032
0.000124145
0.00012401
0.000124008
0.000124077
0.000124148
0.00012394
0.000124186
0.000124111
0.000123215
0.000124014
0.000123982
5.93037e-05
0.00012334
0.000124213
0.000124041
0.000123946
0.000124203
0.000124205
0.00012403
0.000123821
0.00012406
0.000124127
0.000123899
0.00012416
0.000123029
0.000124003
0.000123993
0.000124156
0.000100894
0.000124003
0.000123605
0.000123979
0.000124215
0.000123875
1.08872e-05
2.11339e-05
3.54043e-05
2.81906e-05
1.36711e-05
4.48594e-08
4.20767e-05
2.68126e-06
4.01761e-05
4.76158e-06
3.94427e-05
6.81377e-06
3.86546e-05
8.85035e-06
3.73252e-05
1.36939e-05
3.1746e-05
3.05933e-05
2.39494e-05
2.52845e-05
1.78214e-05
1.29423e-05
1.57473e-05
0.000124208
0.000102553
0.000124033
0.000123976
0.000124212
0.000124107
0.000124217
0.000123942
0.000124105
0.000124182
0.000124177
0.000124219
0.000123947
0.000124077
0.000123918
0.000124147
0.000124003
0.000124212
0.000124065
0.000123896
0.000123899
0.000124089
0.000124087
0.000124219
0.00012421
0.000124214
0.000124181
0.000124218
0.000123861
0.000124058
0.000124213
0.000124003
0.000124145
0.000124056
0.000124063
0.000123926
0.00012418
0.00012418
0.000123502
0.000121462
0.000123236
0.000123774
0.000124057
0.000123881
0.000124088
0.000124216
0.000124172
0.000124069
0.000123664
0.000123651
0.000124213
0.000124183
0.000124084
0.000124148
0.000123699
5.83758e-05
4.01541e-05
0.000124155
0.000124172
0.000123547
0.000122866
0.00012404
0.000123744
0.00012349
0.000124071
0.000123924
0.000124194
0.000124082
0.000124114
0.000119128
5.45354e-05
0.000124081
8.12443e-05
1.84285e-06
-3.84858e-07
0.000124052
0.000124024
0.000124182
0.000124218
0.000124204
0.000124213
0.000124206
0.000124039
-2.31806e-06
0.000122957
0.000124068
0.000124162
0.000122138
0.000124212
0.000124212
0.000122386
0.00012415
0.000124184
0.000121784
0.00012421
7.64399e-05
0.00012421
0.000123708
0.000124175
0.000122495
0.000123755
0.000123783
0.000124087
0.000124213
0.000124169
0.000124211
0.000124222
0.000124063
0.000116298
)
;

boundaryField
{
    back
    {
        type            empty;
    }
    ingreso
    {
        type            zeroGradient;
    }
    salida
    {
        type            fixedValue;
        value           uniform 0;
    }
    front
    {
        type            empty;
    }
    defaultFaces
    {
        type            zeroGradient;
    }
}


// ************************************************************************* //
