/*--------------------------------*- C++ -*----------------------------------*\
  =========                 |
  \\      /  F ield         | OpenFOAM: The Open Source CFD Toolbox
   \\    /   O peration     | Website:  https://openfoam.org
    \\  /    A nd           | Version:  7
     \\/     M anipulation  |
\*---------------------------------------------------------------------------*/
FoamFile
{
    version     2.0;
    format      ascii;
    class       surfaceScalarField;
    location    "31";
    object      phi;
}
// * * * * * * * * * * * * * * * * * * * * * * * * * * * * * * * * * * * * * //

dimensions      [0 3 -1 0 0 0 0];

internalField   nonuniform List<scalar> 
1111
(
6.15857e-09
1.33447e-08
-1.54921e-08
-4.01116e-09
6.31665e-09
-1.16259e-08
1.14678e-08
-1.4609e-08
4.61041e-09
9.64873e-09
3.49891e-10
2.57561e-10
-3.11972e-10
-1.40439e-08
1.40984e-08
-1.39345e-08
1.37384e-08
4.53693e-10
-1.49014e-09
1.48606e-08
2.05813e-09
-4.06709e-09
9.66513e-09
-1.11116e-08
5.51358e-09
-6.59912e-09
-1.25558e-08
1.25178e-08
6.63709e-09
-5.09787e-08
-2.56512e-08
7.66299e-08
-8.07171e-09
7.49067e-09
6.89768e-09
3.69516e-09
3.53764e-10
-3.76739e-09
-2.81525e-10
1.57458e-08
-1.5798e-08
-2.28138e-08
2.2866e-08
-9.62156e-09
-8.13288e-09
8.86401e-09
8.89043e-09
-3.49925e-08
1.73602e-08
-3.19359e-08
4.95681e-08
9.5612e-09
-1.89592e-09
-1.42644e-08
-2.93351e-09
3.25515e-09
-3.72602e-09
3.40438e-09
-3.70159e-09
1.31456e-08
1.97082e-09
-1.14148e-08
8.88701e-09
-2.15695e-09
-1.50373e-08
8.30724e-09
3.82735e-08
-3.10688e-08
-7.20472e-09
-1.9181e-08
-9.45848e-11
1.75603e-08
1.71534e-09
-4.86649e-10
3.87184e-09
-1.79665e-08
1.45813e-08
-6.1223e-08
-3.94168e-09
6.51647e-08
1.90994e-10
-1.37153e-09
-3.96213e-10
1.57675e-09
-1.07534e-09
-1.33459e-08
-2.35568e-10
-3.53656e-10
3.36019e-10
2.53206e-10
-9.96213e-09
-8.06169e-09
1.23317e-08
5.69216e-09
8.10711e-10
-2.19275e-09
-8.517e-09
9.89904e-09
7.76668e-09
1.04569e-09
-8.55822e-09
-2.54151e-10
-2.79705e-09
-7.76425e-09
1.07369e-08
-1.75648e-10
1.13073e-08
-3.53774e-10
-2.06648e-09
-1.08251e-09
1.05104e-09
1.20053e-10
-8.85875e-11
-3.87542e-10
9.52537e-10
5.57286e-10
-1.12228e-09
-6.7455e-10
-4.5278e-11
7.17974e-10
1.85365e-12
3.48824e-11
-1.11395e-09
8.88765e-11
9.90191e-10
-3.28648e-11
-1.01476e-09
6.49658e-10
-1.82059e-08
-1.62483e-09
-5.82639e-10
6.68684e-11
-1.58779e-10
1.33517e-08
-1.33146e-08
3.83473e-09
-4.70934e-10
6.83274e-10
4.5378e-10
-6.6612e-10
-6.9884e-10
-2.59512e-09
1.97358e-09
1.32038e-09
-2.07154e-09
8.8839e-09
-1.08794e-08
-4.46079e-10
-2.23769e-10
8.72088e-11
-8.79049e-09
1.0035e-08
-9.31618e-09
1.17478e-08
-1.681e-08
5.13806e-09
-7.5845e-11
1.0984e-10
-2.39196e-10
-3.16723e-10
3.03645e-10
9.57181e-10
-2.09782e-10
-5.98861e-08
7.43516e-08
-1.44655e-08
1.20102e-09
-4.10024e-10
-1.39528e-09
6.04288e-10
1.01788e-09
1.02794e-08
-1.36722e-08
2.37484e-09
-4.70325e-10
6.70534e-09
-8.10475e-09
1.86974e-09
-6.38532e-09
5.82633e-09
5.42879e-09
-4.8698e-09
-6.93137e-09
-2.38642e-09
2.24618e-09
7.0716e-09
-1.94351e-10
-9.08913e-08
9.12924e-08
-2.06749e-10
-2.3973e-10
-8.97502e-08
9.01453e-08
-1.55419e-10
8.30627e-08
-1.49963e-09
1.0579e-10
-8.16688e-08
-3.26452e-09
-3.72421e-11
8.69809e-10
9.58934e-10
-6.27724e-10
4.09406e-09
-1.85516e-09
3.25877e-09
-5.49767e-09
-1.17101e-09
1.06463e-09
-1.49879e-08
6.5826e-09
9.10873e-09
1.00914e-09
-9.79519e-09
-3.22678e-10
-6.28419e-09
1.27286e-08
1.51798e-09
-7.96243e-09
1.42087e-08
-3.92463e-09
3.18722e-09
-1.34713e-08
1.54007e-08
1.71469e-09
-1.68656e-09
-3.82684e-10
-1.98823e-08
-7.384e-09
2.7649e-08
1.35937e-08
-8.17542e-09
-2.29252e-09
7.55407e-09
-1.15457e-08
-1.52279e-10
3.08463e-10
-1.55147e-09
-3.71317e-08
-2.27544e-08
7.90441e-09
-5.70111e-11
3.90043e-09
-6.84971e-09
1.06414e-08
6.24324e-09
-7.32849e-10
4.24686e-10
5.93004e-10
-2.84842e-10
5.97056e-09
-4.58011e-09
3.52364e-09
-4.9141e-09
-6.97669e-10
-7.44785e-10
3.28504e-10
8.65484e-10
-8.21885e-10
-2.18792e-10
-1.23227e-09
1.06352e-09
-1.73841e-08
2.49005e-09
1.42197e-09
1.34721e-08
3.24976e-10
-8.62862e-10
-1.94963e-10
-3.71976e-09
-1.4687e-08
1.02259e-09
5.67183e-09
1.16538e-08
-5.24668e-09
-1.20789e-08
1.63965e-08
5.47263e-10
-1.58658e-08
-1.07792e-09
-8.1978e-10
5.85866e-10
6.58601e-10
-1.01268e-09
5.50574e-10
4.62104e-10
-7.02469e-09
-3.84408e-09
4.48344e-09
-4.32218e-10
6.19734e-10
-1.87515e-10
1.31773e-09
-1.49996e-08
-7.1627e-10
8.69798e-09
-1.00532e-08
-1.20324e-09
-1.23147e-09
1.24791e-08
4.40127e-09
-4.1626e-09
-1.27178e-08
3.15007e-10
6.92237e-09
-7.60613e-09
6.51009e-09
-2.00213e-09
-8.36562e-09
7.71073e-09
2.65703e-09
-1.7883e-09
5.90597e-10
-1.34893e-08
-2.67148e-10
-1.6507e-10
-5.55121e-10
1.30272e-09
-7.67897e-09
7.87131e-10
1.72166e-08
-1.60725e-09
-1.46024e-08
1.57927e-08
-1.19037e-09
1.18679e-08
1.40375e-08
-1.56118e-08
-1.02936e-08
-8.90144e-10
1.4867e-09
-5.96556e-10
1.53597e-09
-1.97953e-09
4.43566e-10
2.67837e-09
-3.91009e-09
1.23171e-09
2.00182e-09
-1.67769e-09
-3.24129e-10
-1.20139e-08
2.71226e-10
1.17427e-08
2.75081e-09
-7.48989e-10
8.83476e-09
-1.50519e-08
6.45521e-09
-7.48066e-09
1.01997e-10
4.03394e-09
-4.40781e-10
-3.10458e-09
3.20657e-09
-7.69875e-09
9.06147e-09
-1.36272e-09
-9.35477e-10
4.07506e-09
9.54478e-10
1.70665e-08
-1.45227e-08
-1.52591e-09
-5.35039e-09
5.11049e-09
-1.61527e-09
-2.70411e-10
6.88804e-09
-6.87924e-09
-8.79546e-12
7.07846e-09
4.32089e-09
3.045e-10
-1.56536e-08
1.03135e-08
1.72081e-08
5.6762e-09
8.32463e-09
8.21342e-09
-6.74855e-09
6.82722e-10
-1.26966e-08
1.42888e-09
-7.39264e-11
-1.27052e-08
3.64824e-09
-4.41667e-10
1.38152e-08
-1.3268e-08
-9.42201e-11
-1.14188e-09
-1.36007e-08
7.06727e-09
9.59237e-10
-5.76331e-11
-8.9527e-09
5.31137e-09
-3.14515e-08
-1.25672e-08
-2.3246e-09
1.29112e-09
1.36651e-08
1.09961e-08
-1.06664e-08
-1.39948e-08
1.64796e-08
-3.11298e-09
-1.33667e-08
1.7888e-09
3.82373e-09
-1.50044e-09
-1.00418e-09
-1.06579e-09
1.39806e-09
6.71908e-10
-3.17824e-10
4.50983e-10
4.59844e-10
6.22625e-08
-6.22961e-08
3.364e-11
6.2109e-08
-6.245e-08
3.41001e-10
8.86056e-10
6.47713e-08
-6.55959e-08
8.2461e-10
6.41673e-08
6.03983e-10
-1.87535e-10
-6.65396e-08
9.43779e-10
-6.20311e-08
6.19232e-08
1.07866e-10
1.32439e-09
-6.7864e-08
-6.21735e-08
1.4242e-10
1.20247e-08
-1.20327e-09
1.82955e-09
-3.7472e-09
3.12092e-09
4.62377e-10
-1.32759e-09
1.19322e-09
-8.67325e-10
1.5268e-09
-1.81197e-09
1.1525e-09
1.59063e-09
-1.76482e-09
4.82652e-10
-1.13408e-10
-3.30597e-09
3.1335e-09
-2.40873e-09
2.5812e-09
-9.32898e-10
-2.91917e-09
2.6488e-09
-3.92929e-09
-5.52062e-09
6.76591e-10
-7.83444e-10
1.50224e-09
1.21778e-09
-6.62284e-09
8.01716e-09
2.92657e-09
2.07556e-08
-4.27599e-09
-8.50415e-10
3.05469e-10
1.22154e-09
-1.02552e-08
-2.68765e-08
5.50346e-09
-4.52169e-09
-3.08472e-09
2.10296e-09
1.40441e-10
7.10895e-12
5.70424e-10
-2.87289e-09
3.55893e-09
8.56934e-09
9.48292e-10
-6.33915e-10
2.25811e-09
-2.55709e-09
2.34731e-09
1.46338e-08
1.30689e-08
-2.66495e-08
3.21401e-08
6.12092e-09
-2.26154e-08
-1.0155e-08
1.78897e-08
-1.75378e-08
1.06442e-08
-3.04306e-10
2.42065e-11
-1.48472e-09
-1.96323e-09
-2.1681e-09
3.72848e-09
1.45793e-08
-5.74921e-10
-1.34138e-08
1.37144e-10
-2.92734e-09
-1.28977e-10
1.51882e-08
1.73352e-08
1.35083e-08
7.46223e-10
-1.53135e-09
-1.27232e-08
-1.94999e-09
5.97421e-09
1.21767e-08
-8.61478e-10
-1.29516e-09
-3.5034e-09
2.72971e-09
3.90719e-09
2.40426e-09
1.40581e-08
4.12819e-09
-1.3785e-08
1.72761e-08
-1.67423e-09
2.91898e-09
-3.68257e-09
1.89058e-09
-4.48449e-09
1.27594e-08
-1.19765e-08
-1.37731e-08
6.2031e-10
8.66829e-09
-1.94086e-09
1.64115e-09
1.80196e-09
-8.81616e-09
4.82154e-10
-4.23321e-09
-5.97494e-09
1.2093e-08
-1.49342e-08
1.46974e-09
1.64349e-09
-2.11493e-09
1.62657e-08
-1.57943e-08
-9.69721e-10
1.39031e-08
2.61914e-09
-3.88526e-09
-1.37858e-08
7.2461e-09
-1.68527e-08
-7.93124e-09
6.44056e-09
5.8249e-09
1.42074e-08
-9.42432e-09
3.18146e-09
8.89988e-09
9.80263e-09
3.89073e-09
-4.09163e-09
2.13541e-08
-1.86984e-08
4.5904e-09
-9.92453e-09
2.28901e-09
5.27391e-09
1.34242e-08
-7.98825e-11
1.24046e-08
-1.32944e-08
-1.64048e-09
2.60389e-09
-1.77734e-09
8.1393e-10
1.07143e-08
-6.33697e-09
7.27638e-09
-1.032e-08
1.40464e-09
-4.75582e-09
1.11369e-08
-1.16277e-08
-7.41407e-09
8.90282e-09
9.2256e-09
1.25086e-08
9.72459e-10
-1.3561e-08
1.75124e-09
8.64604e-10
-1.08101e-08
-6.72756e-09
1.01236e-08
-1.81321e-09
2.5254e-09
-8.66816e-09
4.69769e-09
-5.10195e-09
1.11936e-08
-3.49054e-09
-1.13559e-08
3.65284e-09
-4.53849e-09
1.09763e-08
2.16644e-09
1.22594e-09
-4.99308e-09
-1.74615e-08
1.0407e-08
1.20475e-08
8.99283e-10
-1.06655e-08
-9.62525e-09
1.52977e-08
1.20914e-08
2.69306e-09
-9.51058e-09
-1.31768e-08
-2.64705e-10
-1.24028e-08
3.09113e-10
-6.1593e-10
1.10438e-08
1.23579e-08
-8.05345e-09
1.60841e-08
-1.53972e-08
3.44127e-09
-4.88622e-10
1.64814e-09
1.23126e-08
-3.85613e-09
-1.23854e-08
-5.12327e-09
5.57715e-10
4.49162e-09
1.18452e-08
-7.4891e-09
7.80118e-10
-1.13054e-09
1.78194e-09
-2.29188e-09
6.01423e-09
2.5984e-08
-7.0699e-10
-1.27981e-08
1.35051e-08
2.78001e-08
-2.18805e-08
2.19894e-08
1.91828e-08
-1.24628e-08
-2.55735e-09
1.47862e-08
1.12294e-10
-1.19737e-08
-3.1681e-10
-6.01023e-09
-1.9974e-09
2.43248e-09
1.73136e-09
1.72904e-10
-1.06769e-08
1.07385e-08
-2.34518e-10
2.26588e-09
-5.5194e-09
-1.05034e-08
1.01943e-08
-6.43258e-10
-1.02927e-08
-1.11227e-11
-1.04273e-08
-2.92413e-09
-1.17345e-08
2.30533e-09
7.71864e-09
5.05628e-09
2.71e-10
-1.14251e-08
1.1327e-08
7.01704e-10
-8.40294e-09
5.28025e-09
-7.64854e-10
2.76413e-09
-3.33696e-09
-1.2895e-08
-1.3365e-08
1.2929e-08
-9.91241e-09
-1.57927e-08
1.00515e-08
9.00471e-09
8.42554e-10
2.58378e-09
-1.53818e-08
1.07554e-08
1.69303e-09
4.05587e-09
3.98616e-10
-6.45325e-10
-4.5096e-10
-4.01073e-09
2.73787e-09
-1.65449e-09
4.00137e-10
-4.67141e-10
6.70035e-11
-2.47841e-09
1.24804e-08
2.08943e-09
2.54096e-09
-1.13437e-09
-1.88722e-09
-5.18035e-11
-2.61329e-09
-7.58651e-10
1.25939e-08
9.71173e-09
-5.3796e-10
7.14332e-09
-1.1854e-09
-5.41995e-09
-9.67017e-09
-5.09826e-09
3.13271e-10
8.68664e-11
4.54234e-09
1.40874e-09
-1.66166e-08
-6.47734e-10
-9.58528e-10
-2.19058e-09
7.81215e-10
2.56345e-09
6.20513e-08
-1.40156e-10
-6.19112e-08
6.23306e-08
1.84892e-10
-6.25155e-08
-1.41546e-08
1.25414e-10
1.45051e-08
-4.75897e-10
2.60615e-09
-2.10989e-09
2.8492e-09
1.78609e-09
-4.39454e-09
-5.80066e-10
-6.72135e-10
5.45248e-10
-1.57955e-10
6.5216e-10
-4.77312e-10
1.88321e-08
1.11916e-09
-1.54089e-08
-3.4052e-10
-1.96061e-09
1.2081e-08
2.19222e-09
1.74783e-09
5.05206e-09
-1.77134e-09
-7.72612e-08
-2.41885e-08
-4.82051e-09
1.56317e-08
2.33438e-09
-8.56072e-10
-3.41171e-09
-1.41832e-09
7.60379e-10
-6.37226e-10
-1.26727e-08
-3.08011e-10
1.29807e-08
-1.0584e-08
-6.67052e-09
1.0527e-08
-9.21363e-09
8.8701e-09
-2.0045e-10
1.94826e-09
1.21519e-08
-1.18681e-08
-2.83837e-10
7.77357e-10
5.75276e-11
9.59717e-09
1.13021e-09
-1.22437e-09
-3.94395e-10
-1.41954e-08
-5.20792e-10
-1.33148e-08
1.20147e-08
-1.13788e-08
-6.60303e-08
6.49675e-08
1.06281e-09
5.24372e-10
-5.17263e-10
1.15776e-08
-4.889e-10
2.17594e-11
-1.899e-09
2.76259e-09
-3.36618e-09
-1.35177e-08
-1.65663e-09
2.5627e-09
-4.64658e-09
-1.3756e-08
1.78593e-09
5.61792e-09
9.37406e-09
-8.70461e-09
-5.18079e-10
2.91782e-11
-9.36368e-09
-1.25608e-08
1.57024e-10
-6.27582e-08
2.2656e-10
6.25317e-08
6.94401e-10
6.34729e-08
-2.44848e-10
-8.28922e-10
-1.42904e-08
1.18486e-10
-6.33703e-08
6.32518e-08
1.82779e-10
-6.2905e-08
6.27222e-08
5.76717e-10
6.18266e-08
1.58596e-10
-6.19852e-08
6.16484e-08
1.78155e-10
-8.78776e-08
8.84888e-08
-7.21046e-12
9.33728e-08
-9.30666e-08
-2.7261e-10
-8.66202e-08
-4.32774e-10
9.33549e-08
-1.69635e-10
-8.49051e-08
-7.71388e-10
9.3493e-08
2.02924e-10
-5.18027e-10
1.99518e-09
9.23839e-08
-6.93637e-08
6.21921e-08
-6.23865e-08
-6.29979e-08
6.14916e-08
1.56855e-10
-2.98812e-09
2.67161e-09
-1.34685e-08
9.31412e-11
2.2013e-10
2.40397e-09
9.78541e-09
-1.19424e-08
3.82067e-08
-3.44499e-08
-1.64621e-08
1.39384e-08
-8.97416e-11
-2.1622e-10
3.24669e-10
9.54886e-10
-1.9292e-10
4.20344e-10
4.68288e-09
1.05693e-09
-3.84923e-09
-4.4854e-10
5.15409e-10
-3.61331e-10
-2.39424e-09
1.26868e-08
2.18779e-09
-1.44331e-08
-2.27889e-09
-3.76896e-09
5.69637e-09
1.08947e-09
-2.41093e-09
1.40606e-08
-1.24267e-09
-4.45352e-09
6.84695e-09
-7.89113e-09
-1.90002e-08
-1.29352e-08
7.63926e-09
5.91627e-09
-3.24013e-10
-5.16264e-10
3.27276e-09
1.43416e-08
1.76081e-09
-1.24183e-09
-4.88123e-10
5.25563e-10
-3.07851e-10
1.59193e-08
-4.53294e-10
-1.5774e-08
-4.28348e-09
-2.56011e-09
2.87253e-10
-2.33751e-10
4.26652e-09
-1.81577e-08
6.63423e-10
-1.73151e-09
-2.3599e-09
-2.29121e-09
1.5178e-08
-9.05634e-08
-1.452e-10
9.16843e-08
-2.06943e-10
-8.91568e-08
-4.74926e-10
9.30565e-08
-3.04999e-10
-9.28916e-08
-6.53364e-10
-1.82713e-09
1.60876e-08
9.19999e-08
-1.91413e-10
2.64282e-11
-2.54981e-10
1.10323e-08
2.18407e-09
-9.74428e-09
-1.1831e-08
-5.58463e-09
8.45932e-09
1.38248e-09
-6.91523e-09
-6.46184e-09
9.09634e-09
-2.5149e-10
1.01573e-08
1.91717e-08
-1.76345e-08
3.01256e-09
-1.23919e-08
3.01906e-09
-7.00799e-08
4.04968e-09
-2.03263e-08
-1.26425e-08
-6.19645e-10
-5.78578e-09
-1.53932e-08
9.20523e-09
-1.51756e-08
5.9544e-10
5.04488e-10
-1.47406e-09
-1.60713e-08
1.66369e-08
9.39439e-09
-9.43163e-09
-5.51694e-09
1.48405e-08
-1.61362e-09
8.33766e-10
-1.51398e-09
5.86213e-10
1.21843e-08
3.41672e-09
7.09349e-08
-1.7904e-08
9.5436e-10
-1.45773e-08
-3.15544e-10
-3.60095e-10
-2.17483e-10
6.08921e-08
-6.11971e-08
-6.33439e-08
-6.30964e-08
-1.20711e-11
-2.944e-10
-9.25852e-08
-6.03978e-08
6.2393e-08
6.50733e-08
-6.01949e-08
6.45552e-08
-6.03645e-08
6.37838e-08
-6.06372e-08
6.33511e-08
9.23205e-08
3.98435e-10
-6.54997e-09
7.49851e-08
-6.50184e-08
1.23393e-10
-1.23393e-10
2.04097e-09
-3.82786e-10
1.54869e-08
-1.42364e-10
1.42364e-10
5.06778e-10
1.46662e-09
1.39622e-08
1.28943e-08
-2.67824e-09
3.67374e-09
6.39514e-09
1.93316e-09
4.75172e-10
-3.39733e-10
-2.8785e-09
1.4334e-08
1.48084e-08
-4.31854e-09
1.16145e-08
2.74565e-10
2.1701e-10
3.00119e-09
-1.03847e-09
-1.78732e-09
-5.93585e-09
-1.34337e-10
-4.98799e-10
1.52081e-08
3.80488e-10
1.72643e-10
1.64424e-08
-2.56067e-08
1.71549e-08
2.55209e-09
1.49723e-09
2.17964e-09
-3.51283e-09
1.89149e-08
-1.75817e-08
-1.43755e-10
9.03161e-10
-1.44487e-09
-7.91611e-08
-7.08085e-08
1.47621e-09
-1.14503e-09
7.34591e-10
2.28451e-08
1.8316e-08
-6.4815e-09
1.7669e-10
-4.50717e-09
-2.01982e-09
2.99158e-08
1.26343e-10
1.48682e-08
7.3574e-08
1.09126e-10
5.74512e-10
-2.27545e-10
-2.9762e-10
-3.89102e-09
2.39832e-08
-1.47422e-08
1.23434e-09
-1.40056e-08
-9.67356e-11
2.01043e-08
-2.82936e-08
8.99789e-10
2.56348e-09
-6.98272e-10
)
;

boundaryField
{
    back
    {
        type            empty;
        value           nonuniform 0();
    }
    ingreso
    {
        type            calculated;
        value           nonuniform List<scalar> 
14
(
-1.54286e-08
-1.54288e-08
-1.54288e-08
-1.54288e-08
-1.54286e-08
-1.54283e-08
-1.54288e-08
-1.54288e-08
-1.54286e-08
-1.54286e-08
-1.54288e-08
-1.5428e-08
-1.5428e-08
-1.54286e-08
)
;
    }
    salida
    {
        type            calculated;
        value           nonuniform List<scalar> 2(1.0145e-07 1.1455e-07);
    }
    front
    {
        type            empty;
        value           nonuniform 0();
    }
    defaultFaces
    {
        type            calculated;
        value           uniform 0;
    }
}


// ************************************************************************* //
