/*--------------------------------*- C++ -*----------------------------------*\
  =========                 |
  \\      /  F ield         | OpenFOAM: The Open Source CFD Toolbox
   \\    /   O peration     | Website:  https://openfoam.org
    \\  /    A nd           | Version:  7
     \\/     M anipulation  |
\*---------------------------------------------------------------------------*/
FoamFile
{
    version     2.0;
    format      ascii;
    class       surfaceScalarField;
    location    "100.5";
    object      phi;
}
// * * * * * * * * * * * * * * * * * * * * * * * * * * * * * * * * * * * * * //

dimensions      [0 3 -1 0 0 0 0];

internalField   nonuniform List<scalar> 
1111
(
7.04844e-09
1.2926e-08
-1.60488e-08
-3.92564e-09
6.9903e-09
-1.17862e-08
1.18444e-08
-1.47413e-08
5.78385e-09
8.82362e-09
1.33843e-10
9.29338e-10
-1.07588e-09
-1.43826e-08
1.45291e-08
-1.43461e-08
1.41486e-08
1.12684e-09
-1.61806e-09
1.49149e-08
2.13172e-09
-2.74789e-09
9.4178e-09
-9.43436e-09
2.76445e-09
-6.72264e-09
-1.26121e-08
1.25975e-08
6.73725e-09
-5.02159e-08
-2.6093e-08
7.63089e-08
-8.1092e-09
7.71921e-09
7.38029e-09
3.282e-09
3.72978e-10
-3.36187e-09
-2.93108e-10
1.58734e-08
-1.62592e-08
-2.32548e-08
2.36406e-08
-9.66606e-09
-7.89875e-09
8.80283e-09
8.76199e-09
-3.55827e-08
1.77253e-08
-3.23599e-08
5.02172e-08
9.49562e-09
-1.96231e-09
-1.4256e-08
-4.25201e-10
1.41435e-09
-2.82019e-09
1.83103e-09
-3.95511e-09
1.33163e-08
1.97196e-09
-1.13332e-08
8.811e-09
-2.67675e-09
-1.50555e-08
8.92125e-09
3.72068e-08
-2.98757e-08
-7.33104e-09
-1.94357e-08
3.18835e-10
1.72329e-08
1.88395e-09
-1.07121e-09
4.23653e-09
-1.78425e-08
1.46772e-08
-6.12261e-08
-3.96164e-09
6.51877e-08
1.37263e-10
-1.12529e-09
-3.27192e-10
1.31522e-09
-1.77817e-09
-1.36392e-08
-7.46646e-11
-2.24089e-10
1.65989e-10
1.32765e-10
-1.03931e-08
-8.58724e-09
1.31564e-08
5.8239e-09
6.8278e-10
-2.13012e-09
-8.25079e-09
9.69813e-09
8.70438e-09
7.58942e-10
-9.76401e-09
3.0069e-10
-2.87547e-09
-8.0542e-09
1.11262e-08
-1.96518e-10
1.14109e-08
-1.0358e-09
-1.56412e-09
-7.85066e-10
7.92238e-10
-1.90106e-11
1.18384e-11
-6.44664e-11
6.54165e-10
1.86833e-10
-7.76532e-10
-4.0795e-10
-3.98896e-11
4.39545e-10
8.29489e-12
-5.36133e-11
-7.47831e-10
1.14709e-10
6.86735e-10
-1.09818e-10
-7.28863e-10
9.93726e-10
-1.8391e-08
-2.03842e-09
-3.30508e-10
3.75041e-11
-1.14947e-10
1.33805e-08
-1.3245e-08
4.10101e-09
-3.43752e-10
5.33315e-10
3.1299e-10
-5.02553e-10
-5.63948e-12
-1.24353e-09
1.08344e-09
1.65728e-10
-1.90733e-09
1.06462e-08
-1.14868e-08
-2.31364e-10
-1.41276e-10
4.21314e-11
-8.72549e-09
1.05554e-08
-9.93915e-09
1.22733e-08
-1.71426e-08
4.54815e-09
3.21146e-10
4.75973e-11
-1.3737e-10
-1.41592e-10
1.44587e-10
7.36743e-10
-8.90925e-11
-5.95224e-08
7.42324e-08
-1.471e-08
9.90967e-10
-2.07587e-10
-1.09923e-09
3.1585e-10
1.14443e-09
1.03066e-08
-1.37132e-08
2.26214e-09
-1.85915e-09
7.82484e-09
-8.94909e-09
2.9834e-09
-6.75641e-09
5.59005e-09
5.70255e-09
-4.53619e-09
-7.77938e-09
-1.56605e-09
1.64147e-09
7.70395e-09
-1.82882e-10
-9.09136e-08
9.12998e-08
-2.03287e-10
-2.57614e-10
-8.97497e-08
9.016e-08
-1.5272e-10
8.30781e-08
-1.49257e-09
1.10306e-10
-8.16959e-08
-2.7952e-09
-5.35176e-10
6.03507e-10
8.04897e-10
-4.17438e-10
3.90103e-09
-9.66178e-10
3.51936e-09
-6.45422e-09
-9.06464e-10
8.43463e-10
-1.49247e-08
6.57783e-09
9.90714e-09
1.06769e-09
-1.06917e-08
-2.83097e-10
-6.07623e-09
1.35481e-08
9.6168e-10
-8.43353e-09
1.43812e-08
-4.56517e-09
3.79239e-09
-1.36085e-08
1.53913e-08
1.674e-09
-1.63647e-09
-1.99099e-10
-2.00669e-08
-7.42499e-09
2.7691e-08
1.44865e-08
-8.83073e-09
-1.87295e-09
8.031e-09
-1.22343e-08
3.44171e-11
1.86856e-11
-1.15233e-09
-3.61425e-08
-2.33799e-08
8.34197e-09
2.99296e-10
3.63205e-09
-6.98447e-09
1.12284e-08
6.3115e-09
-5.58392e-10
2.91367e-10
4.50614e-10
-1.8359e-10
5.70491e-09
-4.81115e-09
3.68012e-09
-4.57388e-09
-3.98014e-10
-5.94559e-10
2.44741e-10
6.01049e-10
-5.26232e-10
2.28592e-11
-7.18508e-10
6.31181e-10
-1.82071e-08
2.40244e-09
1.58873e-09
1.4216e-08
1.97039e-10
-6.4835e-10
-1.07081e-10
-4.19929e-09
-1.51719e-08
1.16408e-09
5.61237e-09
1.20987e-08
-5.23375e-09
-1.24774e-08
1.6396e-08
7.32949e-10
-1.58583e-08
-1.27065e-09
-6.38775e-10
4.17759e-10
5.12383e-10
-2.91935e-10
1.39341e-10
1.52595e-10
-7.47238e-09
-3.51208e-09
4.22806e-09
-1.90582e-10
3.0076e-10
-1.10178e-10
1.08523e-09
-1.56776e-08
-7.71213e-10
1.00217e-08
-1.11578e-08
-8.91059e-10
-2.69079e-10
1.29663e-08
4.45108e-09
-4.19035e-09
-1.3227e-08
6.46733e-11
7.20072e-09
-7.98293e-09
6.37226e-09
-1.60553e-09
-9.06043e-09
8.25962e-09
2.40633e-09
-1.93647e-09
6.90507e-10
-1.3926e-08
-1.01175e-10
-8.94071e-11
3.35015e-10
6.48986e-10
-8.76338e-09
7.68657e-10
1.72717e-08
-1.64441e-09
-1.19987e-08
1.33804e-08
-1.3817e-09
1.22588e-08
1.39244e-08
-1.54955e-08
-1.06877e-08
-4.80403e-10
9.0051e-10
-4.20107e-10
2.23849e-10
-5.05169e-11
-1.73332e-10
5.61586e-11
4.29438e-10
-4.85597e-10
1.29256e-09
-1.03777e-09
-2.54788e-10
-1.053e-08
9.39459e-10
9.59055e-09
1.91013e-09
-6.1757e-10
8.97703e-09
-1.54151e-08
7.80101e-09
-9.32514e-09
6.27469e-11
3.626e-09
-4.06747e-10
-2.28311e-09
2.34585e-09
-6.44527e-09
7.78139e-09
-1.33612e-09
-4.71874e-10
4.28224e-09
9.06634e-11
1.72601e-08
-1.4478e-08
-1.6377e-09
-6.14221e-09
5.44056e-09
-2.64531e-10
-1.79644e-10
5.76249e-09
-5.74214e-09
-2.03476e-11
6.84913e-09
4.55832e-09
-4.52305e-11
-1.59344e-08
1.04725e-08
1.77207e-08
5.80826e-09
8.2416e-09
8.1773e-09
-6.84939e-09
1.41757e-09
-1.19476e-08
2.1926e-10
1.46338e-09
-1.30091e-08
2.76721e-09
-4.2136e-10
1.12301e-08
-1.04971e-08
-2.79567e-10
-7.21311e-10
-1.38217e-08
7.74784e-09
6.94551e-10
4.02037e-12
-8.88696e-09
4.99466e-09
-3.00748e-08
-1.2517e-08
-2.83485e-09
1.53018e-09
1.4116e-08
1.10713e-08
-1.08278e-08
-1.43595e-08
1.53791e-08
-3.157e-09
-1.22221e-08
1.60565e-09
4.00141e-09
-9.53924e-10
-8.82009e-10
-8.18955e-10
1.10857e-09
5.92389e-10
-2.17234e-10
3.35691e-10
3.32157e-10
6.21439e-08
-6.217e-08
2.61431e-11
6.20635e-08
-6.23677e-08
3.04215e-10
8.37435e-10
6.47312e-08
-6.55584e-08
8.27189e-10
6.41233e-08
6.07908e-10
-2.23834e-10
-6.6504e-08
9.45565e-10
-6.20598e-08
6.1925e-08
1.34801e-10
1.31522e-09
-6.78192e-08
-6.22198e-08
1.5992e-10
1.26834e-08
-6.13661e-10
1.23085e-09
-3.69814e-09
3.08095e-09
2.95006e-10
-1.15733e-09
8.78829e-10
-5.26037e-10
1.36591e-09
-1.59138e-09
7.51507e-10
1.36752e-09
-1.45013e-09
1.01295e-10
-4.28917e-11
-3.45067e-09
2.69284e-09
-1.91917e-09
2.677e-09
-3.7961e-10
-2.70977e-09
2.47572e-09
-3.50201e-09
-5.84533e-09
5.69217e-10
-5.83275e-10
1.14992e-09
1.09481e-09
-6.44812e-09
7.88554e-09
3.12091e-09
1.97328e-08
-4.35379e-09
-6.75029e-10
2.79911e-10
9.64334e-10
-1.0088e-08
-2.60545e-08
5.27224e-09
-4.22643e-09
-3.18875e-09
2.14294e-09
9.39202e-11
2.4849e-11
3.20774e-10
-2.51665e-09
3.30389e-09
8.99813e-09
6.98989e-10
-1.73026e-10
2.0669e-09
-2.27348e-09
1.78159e-09
1.47115e-08
1.33289e-08
-2.69281e-08
3.27135e-08
6.32168e-09
-2.28409e-08
-1.04088e-08
1.85321e-08
-1.80195e-08
1.05587e-08
-3.63794e-11
-2.29325e-10
-1.18443e-09
-1.66311e-09
-2.88003e-09
3.34873e-09
1.51561e-08
-6.27517e-10
-1.38381e-08
-7.885e-10
-2.24908e-09
3.27807e-10
1.54727e-08
1.77709e-08
1.36995e-08
7.5229e-10
-1.72401e-09
-1.27278e-08
-1.46828e-09
5.97756e-09
1.26011e-08
-4.41731e-10
-1.00844e-09
-3.65535e-09
2.8019e-09
3.54629e-09
2.50424e-09
1.45354e-08
4.29791e-09
-1.43823e-08
1.80809e-08
-1.76078e-09
2.40848e-09
-3.33803e-09
1.9135e-09
-4.95016e-09
1.29328e-08
-1.19377e-08
-1.40512e-08
3.08951e-10
8.79206e-09
-1.78489e-09
1.49011e-09
1.44469e-09
-8.66289e-09
7.02953e-10
-4.55704e-09
-5.99208e-09
1.2179e-08
-1.48498e-08
1.03352e-09
1.67811e-09
-2.20127e-09
1.68353e-08
-1.63121e-08
-1.12326e-09
1.41953e-08
3.10205e-09
-4.47326e-09
-1.40439e-08
7.58573e-09
-1.7431e-08
-8.17429e-09
6.87266e-09
5.87524e-09
1.46378e-08
-1.00758e-08
3.01059e-09
9.47159e-09
9.82807e-09
3.86572e-09
-4.21633e-09
2.17902e-08
-1.92524e-08
5.04792e-09
-1.06398e-08
2.16959e-09
5.69317e-09
1.39765e-08
-3.57204e-10
1.28191e-08
-1.35851e-08
-1.93296e-09
1.68119e-09
-6.75889e-10
9.27662e-10
1.10779e-08
-6.36671e-09
7.38751e-09
-1.10352e-08
1.46312e-09
-4.74414e-09
1.15136e-08
-1.20032e-08
-7.58395e-09
9.23908e-09
9.42282e-09
1.29492e-08
5.69059e-10
-1.38754e-08
1.42458e-09
7.78807e-10
-1.11551e-08
-6.726e-09
1.02971e-08
-1.34997e-09
2.51174e-09
-8.99736e-09
4.77427e-09
-5.30986e-09
1.16312e-08
-3.47469e-09
-1.18487e-08
3.69221e-09
-4.46705e-09
1.13541e-08
1.80386e-09
1.11084e-09
-5.05485e-09
-1.78547e-08
1.05338e-08
1.23758e-08
7.21031e-10
-1.10654e-08
-1.0048e-08
1.60585e-08
1.26462e-08
2.87793e-09
-9.83098e-09
-1.33413e-08
-3.25531e-10
-1.27602e-08
1.62748e-10
-7.68332e-10
1.17318e-08
1.25527e-08
-8.2382e-09
1.67059e-08
-1.6072e-08
3.66409e-09
-4.97864e-10
1.79321e-09
1.29206e-08
-3.93334e-09
-1.27344e-08
-5.01168e-09
1.87219e-09
4.60287e-09
1.23483e-08
-7.23958e-09
9.83167e-10
-1.67182e-09
5.26709e-10
-7.87849e-10
5.9299e-09
2.6419e-08
-4.02016e-11
-9.45152e-09
9.49173e-09
2.86194e-08
-2.23706e-08
2.2117e-08
1.97747e-08
-1.27213e-08
-2.70738e-09
1.51419e-08
1.60642e-10
-1.21449e-08
-4.54717e-10
-6.00826e-09
-1.84518e-09
2.17739e-09
1.47164e-09
-4.7422e-10
-1.11511e-08
1.15901e-08
3.51584e-11
3.02875e-09
-5.05703e-09
-1.11693e-08
1.07052e-08
-9.23603e-10
-1.08799e-08
-2.44654e-10
-1.13707e-08
-2.48475e-09
-1.20926e-08
2.15927e-09
7.89599e-09
5.15011e-09
-4.76322e-10
-1.18245e-08
1.18266e-08
5.55515e-10
-8.8849e-09
5.13003e-09
-1.55897e-09
2.17876e-09
-1.9784e-09
-1.30609e-08
-1.25097e-08
1.19932e-08
-1.01732e-08
-1.58122e-08
1.0051e-08
9.29608e-09
8.15602e-10
2.7178e-09
-1.21693e-08
1.15322e-08
1.66265e-09
3.89057e-09
2.74561e-10
-4.68978e-10
-2.03598e-10
-4.1568e-09
2.50864e-09
-6.00915e-10
1.59506e-10
-1.88037e-10
2.85307e-11
-2.70485e-09
1.31122e-08
2.23886e-09
2.53251e-09
1.81536e-10
-1.32947e-09
-5.62959e-10
-2.27911e-09
-2.34792e-10
1.30649e-08
1.01287e-08
-3.04696e-10
6.76746e-09
-1.24542e-09
-5.21734e-09
-9.8376e-09
-5.13922e-09
1.20692e-10
3.8814e-11
4.87079e-09
1.33833e-09
-1.72745e-08
-3.06724e-10
-7.29567e-10
-2.7796e-09
1.02826e-09
3.13409e-09
6.19464e-08
-8.56374e-11
-6.18608e-08
6.23708e-08
1.88798e-10
-6.25596e-08
-1.41125e-08
-2.91379e-10
1.44575e-08
-5.3653e-11
3.15393e-09
-1.75879e-09
2.46969e-09
1.80084e-09
-4.52671e-09
-2.77936e-10
-4.96761e-10
4.03325e-10
-9.01543e-11
3.96441e-10
-2.63158e-10
1.97371e-08
1.03959e-09
-1.59059e-08
-1.2154e-10
-1.93872e-09
1.2575e-08
2.28435e-09
1.80866e-09
5.34556e-09
-2.12937e-09
-7.72329e-08
-2.41781e-08
-5.00019e-09
1.58478e-08
2.4687e-09
6.97494e-12
-2.887e-09
-1.02833e-09
2.68625e-10
-2.48742e-10
-9.79744e-09
-3.67058e-10
1.01645e-08
-1.08939e-08
-6.57765e-09
1.07455e-08
-9.50538e-09
8.74961e-09
2.53713e-10
1.43445e-09
9.34225e-09
-9.29917e-09
-4.30776e-11
5.69118e-10
8.69794e-11
1.08183e-08
5.27164e-10
-7.16702e-10
-5.79135e-11
-1.42489e-08
-4.55194e-10
-1.38489e-08
1.27421e-08
-1.19053e-08
-6.60355e-08
6.49923e-08
1.04319e-09
2.16211e-10
-1.91363e-10
1.20722e-08
-1.95359e-10
7.32191e-12
-2.07833e-09
2.75596e-09
-3.41775e-09
-1.34693e-08
-1.62421e-09
2.57502e-09
-4.68529e-09
-1.41398e-08
1.55061e-09
5.548e-09
9.71077e-09
-9.07949e-09
-2.18182e-10
2.28231e-11
-9.30326e-09
-1.34139e-08
1.51029e-10
-6.26928e-08
2.35447e-10
6.24573e-08
6.95296e-10
6.3428e-08
-2.23612e-10
-1.65774e-09
-1.4503e-08
1.0745e-10
-6.34073e-08
6.32998e-08
1.85462e-10
-6.29483e-08
6.27629e-08
3.18802e-10
6.17992e-08
1.50445e-10
-6.19497e-08
6.16304e-08
1.68806e-10
-8.78895e-08
8.84986e-08
-1.27615e-12
9.33936e-08
-9.31001e-08
-2.67317e-10
-8.66287e-08
-4.33598e-10
9.33526e-08
-1.82866e-10
-8.49155e-08
-7.67559e-10
9.34834e-08
1.73481e-10
-5.2221e-10
1.96136e-09
9.23594e-08
-6.93118e-08
6.21405e-08
-6.23234e-08
-6.29504e-08
6.14881e-08
1.42341e-10
-3.14385e-09
2.95792e-09
-1.41963e-08
4.42122e-11
7.64799e-11
1.19601e-09
8.70848e-09
-1.13852e-08
3.83191e-08
-3.45531e-08
-1.67751e-08
1.38105e-08
-3.47252e-11
-2.03531e-10
1.32033e-10
5.77867e-10
-1.17481e-10
3.03572e-10
4.42845e-09
1.04681e-09
-3.56176e-09
-1.45567e-10
1.8307e-10
-1.03437e-10
-2.5898e-09
1.32591e-08
2.44287e-09
-1.44267e-08
-2.63016e-09
-3.27963e-09
5.52295e-09
1.04845e-09
-2.62306e-09
1.43399e-08
-1.18308e-09
-1.70243e-09
1.7598e-09
-8.11777e-09
-1.9077e-08
-1.35072e-08
8.03264e-09
5.78348e-09
-2.00165e-10
-5.69137e-10
2.94669e-09
1.44891e-08
2.28876e-09
-1.86291e-09
-3.68898e-10
4.19183e-10
-2.29928e-10
1.5928e-08
-5.98155e-10
-1.56969e-08
1.34623e-10
-1.30387e-10
3.32639e-10
-2.62939e-10
3.41621e-09
-1.62581e-08
4.28604e-10
-1.48876e-09
-2.07328e-09
-2.28969e-09
1.57251e-08
-9.05943e-08
-1.33886e-10
9.16795e-08
-1.90855e-10
-8.91646e-08
-4.77668e-10
9.31028e-08
-2.75192e-10
-9.29133e-08
-5.38271e-10
-1.56806e-09
1.68492e-08
9.19809e-08
-1.98809e-10
2.93849e-11
-2.209e-10
9.75336e-09
2.4647e-09
-7.27135e-09
-1.22443e-08
-5.67702e-09
8.399e-09
1.50368e-09
-6.78177e-09
-5.98797e-09
9.04553e-09
-5.58411e-11
1.01346e-08
1.95012e-08
-1.79896e-08
3.08668e-09
-1.27594e-08
3.11173e-09
-6.99649e-08
3.92941e-09
-2.06036e-08
-1.306e-08
-4.63266e-10
-5.93035e-09
-1.52961e-08
9.08152e-09
-1.51125e-08
4.012e-10
3.39576e-10
-1.92862e-09
-1.6702e-08
1.71094e-08
7.1375e-09
-7.67268e-09
-4.52849e-09
1.53154e-08
-1.67812e-09
7.02672e-10
-8.45911e-10
8.21718e-11
1.19687e-08
3.32019e-09
7.09122e-08
-1.82489e-08
6.98062e-10
-1.50533e-08
-2.21912e-10
-2.57163e-10
-1.15694e-10
6.09508e-08
-6.12259e-08
-6.33779e-08
-6.31471e-08
-6.42683e-11
-2.62189e-10
-9.25868e-08
-6.04531e-08
6.24145e-08
6.51026e-08
-6.02797e-08
6.45804e-08
-6.04625e-08
6.38128e-08
-6.07299e-08
6.33792e-08
9.23097e-08
2.60909e-10
-6.34398e-09
7.51228e-08
-6.54587e-08
3.03831e-11
-3.03831e-11
1.01904e-10
-3.12066e-10
1.54786e-08
-1.33183e-11
1.33183e-11
3.06109e-10
1.51976e-09
1.3909e-08
1.34316e-08
-2.71587e-09
3.71777e-09
6.65147e-09
1.77876e-09
3.51208e-10
-2.37429e-10
-2.97115e-09
1.4584e-08
1.48444e-08
-4.28982e-09
1.18199e-08
1.68951e-10
1.3617e-10
2.70334e-09
-7.91479e-10
-1.50071e-09
-5.84381e-09
-2.03188e-10
-3.81273e-10
1.53113e-08
2.34542e-10
5.13539e-11
1.43742e-08
-2.62491e-08
1.78244e-08
2.67493e-09
1.22953e-09
2.50096e-09
-3.72214e-09
1.93611e-08
-1.81399e-08
-7.07915e-11
6.41982e-11
-1.44112e-09
-7.92115e-08
-7.07529e-08
1.2686e-09
-4.10812e-10
6.21771e-10
2.30087e-08
1.86095e-08
-6.38616e-09
7.49872e-11
-4.24388e-09
-2.52381e-09
2.99514e-08
1.59299e-10
1.48184e-08
7.35794e-08
4.25239e-11
5.07626e-10
-1.44257e-10
-2.02313e-10
-3.60382e-09
2.43183e-08
-1.48691e-08
9.21983e-10
-1.41931e-08
-4.6097e-11
2.04002e-08
-2.87347e-08
9.50239e-10
1.89442e-09
-2.27622e-10
)
;

boundaryField
{
    back
    {
        type            empty;
        value           nonuniform 0();
    }
    ingreso
    {
        type            calculated;
        value           nonuniform List<scalar> 
14
(
-1.54286e-08
-1.54288e-08
-1.54288e-08
-1.54288e-08
-1.54286e-08
-1.54283e-08
-1.54288e-08
-1.54288e-08
-1.54286e-08
-1.54286e-08
-1.54288e-08
-1.5428e-08
-1.5428e-08
-1.54286e-08
)
;
    }
    salida
    {
        type            calculated;
        value           nonuniform List<scalar> 2(1.01411e-07 1.14589e-07);
    }
    front
    {
        type            empty;
        value           nonuniform 0();
    }
    defaultFaces
    {
        type            calculated;
        value           uniform 0;
    }
}


// ************************************************************************* //
