/*--------------------------------*- C++ -*----------------------------------*\
  =========                 |
  \\      /  F ield         | OpenFOAM: The Open Source CFD Toolbox
   \\    /   O peration     | Website:  https://openfoam.org
    \\  /    A nd           | Version:  8
     \\/     M anipulation  |
\*---------------------------------------------------------------------------*/
FoamFile
{
    version     2.0;
    format      ascii;
    class       volScalarField;
    location    "9";
    object      p;
}
// * * * * * * * * * * * * * * * * * * * * * * * * * * * * * * * * * * * * * //

dimensions      [0 2 -2 0 0 0 0];

internalField   nonuniform List<scalar> 
4280
(
4.51888e-06
1.06143e-06
4.51879e-06
4.39973e-06
2.42902e-06
2.82922e-06
2.27687e-06
9.82244e-07
2.59928e-06
4.05717e-07
4.50786e-06
4.89854e-07
4.52084e-06
4.30538e-06
2.37284e-06
1.14904e-06
3.58896e-06
3.45091e-06
4.0387e-06
1.03367e-06
4.49979e-06
6.15917e-07
4.47291e-06
1.59473e-06
1.76655e-06
5.32937e-07
6.76368e-07
1.99846e-06
1.42124e-06
3.41272e-06
2.38665e-06
3.10614e-07
2.85505e-06
2.73177e-06
4.45711e-06
1.29837e-06
2.51088e-06
3.56536e-06
4.30474e-07
2.66309e-06
4.16466e-06
3.28826e-06
3.99623e-06
1.5889e-06
4.67163e-07
3.56871e-06
3.41197e-06
1.23203e-06
1.91962e-06
2.56778e-06
2.65553e-06
1.20648e-06
1.41602e-06
4.08286e-06
4.31946e-06
1.0915e-06
3.93516e-06
2.29648e-06
2.11976e-06
1.17538e-06
1.29676e-06
8.58213e-07
3.2081e-06
2.76568e-06
2.06148e-06
8.72632e-07
3.92341e-06
4.20179e-06
1.17495e-06
1.05402e-06
6.8016e-07
1.58372e-06
7.04541e-07
2.47603e-06
4.21988e-06
4.03565e-06
2.06919e-06
3.19302e-07
1.32659e-06
3.92993e-06
4.61918e-07
7.48036e-07
4.50586e-06
1.33777e-06
2.37341e-06
3.85583e-06
5.03505e-07
6.32735e-07
3.88186e-06
1.1701e-07
8.8201e-07
3.79839e-06
2.40016e-07
5.16037e-07
3.20843e-06
1.14461e-06
2.66619e-06
1.23739e-06
2.20795e-06
1.47888e-06
2.7158e-06
3.17337e-06
1.69637e-06
1.97064e-06
1.11615e-06
2.76829e-06
2.85792e-06
3.01452e-06
1.6939e-06
4.13484e-06
4.06917e-06
2.86803e-06
2.43037e-06
4.00092e-06
4.50351e-06
1.63679e-06
4.40425e-06
3.31964e-06
4.09865e-06
4.33888e-06
3.60229e-06
8.00759e-07
8.79909e-07
7.9749e-07
2.16241e-06
3.74904e-06
4.1354e-06
6.28409e-07
4.51252e-06
2.69433e-06
2.34311e-06
1.17946e-06
7.24772e-07
2.19843e-06
3.39095e-06
6.99644e-08
1.81292e-06
1.13262e-06
1.26844e-06
1.0739e-06
2.77008e-06
3.76376e-07
4.37226e-06
2.81919e-06
2.54587e-06
2.62282e-06
4.47605e-06
5.47748e-07
4.21922e-06
2.66066e-06
3.87523e-06
3.50155e-06
8.95546e-07
4.22088e-06
3.30348e-06
1.01071e-06
4.00576e-06
1.49016e-06
2.46133e-06
1.80693e-06
2.56394e-06
3.04835e-06
4.50149e-06
3.69675e-06
3.2365e-06
3.83617e-06
1.07321e-06
1.88806e-06
1.26569e-06
4.49535e-07
2.05903e-06
7.78464e-07
2.48849e-06
5.49151e-08
4.13606e-06
4.1724e-07
4.16165e-06
2.85695e-06
6.9376e-07
1.64664e-06
4.11095e-06
4.0046e-06
4.06446e-06
2.84801e-06
2.28271e-06
3.16671e-06
3.45989e-06
4.41887e-06
1.3362e-06
2.76954e-07
4.2262e-06
3.32357e-06
1.45895e-06
1.47397e-06
6.41013e-07
3.16636e-06
1.68927e-06
2.51093e-06
1.40835e-06
2.74046e-06
4.10868e-06
3.74848e-06
1.53891e-06
6.08143e-07
1.76018e-06
3.0998e-06
2.17967e-06
7.33978e-07
1.42864e-06
1.92434e-06
1.9911e-06
4.2367e-06
2.12958e-06
4.2484e-06
9.01265e-07
3.35323e-06
4.30087e-06
2.10281e-06
6.85321e-07
4.02016e-06
1.21769e-06
4.49925e-06
3.62287e-06
3.83802e-06
3.11589e-06
4.07214e-06
4.03513e-06
2.06346e-06
2.92843e-06
3.15731e-06
4.40762e-06
1.39809e-06
4.44528e-06
3.66002e-06
1.57918e-06
4.44439e-06
3.51765e-06
2.27406e-06
3.87449e-06
6.14289e-07
9.24724e-07
2.89754e-06
2.75496e-06
3.81166e-06
1.03365e-06
6.21553e-07
6.71123e-07
9.61966e-07
9.46701e-07
8.52461e-07
3.10834e-06
1.93289e-06
2.97361e-06
5.79288e-07
3.31753e-07
1.23735e-06
4.29911e-06
1.75831e-06
4.28243e-06
3.19955e-06
3.28994e-06
4.45207e-06
4.16496e-06
5.69581e-07
4.04844e-06
1.94676e-06
2.64457e-06
2.40413e-06
2.78798e-06
3.81325e-06
1.40716e-07
1.81191e-06
1.19555e-06
1.8492e-06
2.11912e-06
1.25527e-06
4.168e-06
9.90035e-07
1.9003e-06
4.26564e-06
2.01562e-06
3.17124e-06
1.14988e-06
4.47466e-06
1.80859e-06
4.49703e-06
2.74497e-06
1.02139e-06
1.70022e-06
7.1793e-07
4.82458e-07
2.82981e-07
2.77877e-07
2.86149e-06
2.72881e-06
3.68486e-06
3.01794e-07
3.41144e-06
9.26373e-07
2.25326e-06
3.52159e-06
4.492e-06
2.62782e-06
4.42556e-06
5.59517e-07
8.0863e-07
4.45609e-06
4.43354e-06
2.71601e-06
4.56502e-07
1.51917e-06
4.45034e-06
1.35637e-06
3.59076e-06
3.67205e-06
4.04218e-07
4.48693e-06
3.84295e-06
7.58437e-07
7.95385e-07
3.96078e-06
4.19373e-06
3.8778e-08
1.93367e-06
4.63603e-07
4.23757e-06
3.50814e-07
4.02925e-06
1.22965e-06
1.82987e-06
4.43645e-06
5.39977e-07
3.01987e-06
3.91944e-06
3.10143e-06
4.20799e-07
1.27055e-06
2.58255e-06
2.82112e-06
1.31546e-06
4.44342e-06
1.35074e-06
3.2237e-06
2.07714e-06
5.43608e-07
1.37386e-06
3.70827e-06
4.12609e-06
6.06929e-07
1.96022e-06
3.79518e-06
3.97589e-06
3.62289e-06
4.02734e-07
4.40635e-06
3.32036e-06
2.62701e-06
3.92347e-06
9.29425e-07
2.02496e-06
4.50766e-06
3.72455e-06
3.47441e-06
1.63947e-06
1.86063e-06
2.90068e-06
2.39827e-06
3.4535e-06
2.05065e-06
2.81692e-06
5.63555e-07
2.09705e-06
9.9742e-07
4.26152e-06
2.60387e-06
3.21806e-06
2.19005e-06
4.50958e-06
3.43184e-07
3.24354e-06
4.45738e-06
3.80857e-06
4.51239e-06
3.88885e-06
3.96331e-07
2.42784e-06
3.95201e-06
3.48897e-07
3.53932e-06
4.122e-06
3.64814e-06
3.89041e-07
3.85992e-06
4.27965e-06
2.87531e-06
2.21636e-06
6.67943e-07
4.42171e-06
4.31742e-06
2.42277e-06
3.2049e-06
1.18577e-06
6.25318e-07
6.70339e-07
2.1139e-06
3.59402e-06
2.65409e-06
1.77351e-06
8.42419e-07
2.88325e-06
1.29084e-06
4.50897e-06
2.96646e-06
1.99711e-06
1.35973e-06
3.59038e-07
4.49153e-06
1.66768e-06
3.37484e-06
3.98151e-06
4.26627e-07
3.90527e-06
1.97314e-06
3.5707e-06
2.00664e-06
2.82824e-06
2.15327e-06
3.24059e-06
2.88245e-06
3.08113e-06
1.21439e-06
2.71722e-06
3.918e-06
3.46666e-06
4.42668e-06
4.24719e-06
4.33204e-06
1.2467e-06
4.26015e-06
4.17096e-06
2.57493e-06
1.58395e-06
3.85138e-06
1.42772e-07
1.47085e-06
3.27534e-06
4.15857e-06
3.68056e-06
4.0678e-06
3.61175e-06
4.28372e-06
4.13258e-06
2.88871e-06
3.6787e-06
2.21679e-07
3.84507e-06
3.26794e-06
3.60446e-06
4.05231e-06
4.36297e-06
3.15971e-06
5.01318e-06
3.83205e-06
4.52298e-06
8.01125e-07
3.29055e-06
3.58415e-06
2.97835e-06
3.72488e-06
2.05847e-07
4.36509e-07
4.08625e-06
4.08957e-06
4.27391e-07
1.75373e-07
4.08369e-06
1.52689e-06
3.33665e-06
1.41457e-06
2.86333e-06
5.41753e-06
4.09408e-06
2.57702e-06
1.57517e-06
1.05425e-06
4.79554e-07
2.73841e-06
4.37858e-06
3.78657e-06
4.29707e-06
2.58935e-06
3.87248e-06
4.06031e-06
5.81424e-07
4.52176e-06
3.72898e-06
3.11091e-06
2.94352e-06
1.33679e-06
2.97023e-06
2.62281e-06
4.24883e-06
3.50615e-06
4.11143e-06
3.6943e-06
2.89867e-06
1.89813e-06
1.64542e-06
1.80758e-06
4.38148e-06
2.11845e-06
4.13126e-06
4.11601e-06
4.49575e-06
3.01795e-06
1.25141e-06
3.96557e-06
4.37291e-06
4.65386e-07
3.7216e-06
2.77356e-06
3.5698e-06
4.25849e-07
3.77107e-06
4.23889e-06
4.03292e-06
3.45773e-06
1.62962e-06
4.38996e-06
3.90225e-06
1.515e-06
3.31617e-06
3.73099e-06
3.51536e-06
4.22794e-06
2.78841e-06
4.64209e-07
2.48024e-06
3.03131e-06
2.76051e-06
5.81354e-07
4.4588e-06
4.34703e-06
4.40234e-06
3.28458e-06
4.45054e-06
7.14999e-07
4.6572e-07
4.40935e-06
3.19316e-06
3.50751e-06
3.3691e-06
2.596e-06
4.512e-06
3.98031e-06
4.30246e-06
3.27337e-06
9.90894e-07
3.66065e-06
2.43917e-06
4.41491e-06
2.97108e-06
7.29697e-07
2.46773e-06
4.36203e-06
6.82967e-07
3.36411e-06
4.83921e-07
3.65626e-06
1.77835e-06
3.02744e-06
4.00132e-06
4.39476e-06
4.32781e-06
6.3462e-07
3.26796e-07
4.20964e-06
5.76395e-07
3.05958e-06
3.43317e-06
4.84228e-07
3.90931e-07
3.34527e-06
3.16216e-06
3.58984e-06
3.34208e-06
4.55291e-06
3.07377e-06
3.9264e-06
4.49496e-06
2.80798e-06
2.35449e-06
4.06968e-06
3.96986e-06
4.0245e-06
6.59196e-07
2.86523e-06
3.04755e-06
3.8147e-06
2.52279e-06
4.44154e-06
4.45236e-06
4.45968e-06
9.90715e-07
3.89411e-06
4.4621e-06
3.40037e-06
2.47831e-06
2.24558e-06
4.0103e-06
4.41499e-06
3.2774e-06
4.28149e-07
1.59693e-06
4.92638e-07
2.02571e-06
4.46063e-06
3.25374e-06
1.43842e-06
3.15172e-06
4.41659e-06
4.49288e-06
1.18006e-06
2.92007e-06
5.11927e-07
4.51881e-06
2.6312e-06
3.95196e-06
4.43132e-06
4.438e-06
4.29565e-07
3.18361e-07
2.22029e-06
3.29339e-06
4.509e-06
2.6909e-06
4.51458e-06
2.61144e-06
3.28182e-06
3.48547e-06
1.68365e-06
4.52536e-06
2.69728e-06
4.54058e-06
4.04977e-07
4.13101e-06
2.89955e-06
4.34258e-06
4.51973e-06
2.41242e-06
2.90223e-06
3.3639e-06
5.41286e-07
4.39554e-06
2.46041e-06
4.45496e-06
4.74356e-07
4.41083e-06
3.97998e-06
3.10962e-06
4.44492e-06
2.70911e-06
2.72403e-07
3.36143e-06
3.1592e-06
2.74457e-06
2.63951e-06
2.63115e-06
3.43368e-06
2.37584e-06
4.13619e-06
4.34853e-06
3.7e-07
2.61806e-06
2.60546e-06
2.86304e-06
3.36737e-06
4.28363e-06
3.17425e-06
4.5246e-06
4.39014e-07
4.52963e-06
4.25986e-06
3.40956e-06
3.51262e-06
3.59928e-06
3.31797e-06
3.51115e-06
4.4366e-06
2.72278e-06
3.24653e-06
2.57782e-06
2.63898e-06
3.47722e-06
3.2946e-06
2.27585e-06
2.49152e-06
4.50938e-06
2.875e-06
2.37198e-06
3.36947e-06
3.19685e-06
6.23793e-07
3.60815e-06
2.78261e-06
2.2491e-06
4.10216e-06
3.02006e-06
2.86471e-06
4.10289e-06
2.85579e-06
1.25507e-06
4.43037e-06
3.19197e-06
3.04236e-06
2.83018e-06
3.64549e-06
3.37987e-06
3.91663e-06
2.95824e-06
4.50222e-06
3.38175e-06
2.96272e-06
4.3186e-06
2.78103e-06
4.57326e-06
4.5114e-06
4.50958e-06
2.83411e-06
4.52237e-06
2.78729e-06
6.84066e-07
5.51918e-07
5.98529e-07
3.27889e-06
4.51055e-06
3.1958e-06
2.28134e-06
4.50948e-06
2.94035e-06
4.50099e-06
2.38148e-06
4.47171e-06
4.50341e-06
2.89595e-06
3.11809e-06
4.22821e-06
2.89737e-06
2.42948e-06
2.71014e-06
4.51539e-06
4.31047e-06
2.63575e-06
2.98655e-06
2.5554e-06
2.71941e-06
2.29667e-06
2.47696e-06
3.12076e-06
2.50426e-06
6.11116e-07
4.44453e-06
3.99033e-06
2.84352e-06
3.12089e-06
2.68112e-06
2.97493e-06
2.54424e-06
2.6268e-06
4.35052e-06
4.61055e-07
2.71729e-06
3.25864e-06
4.50921e-06
4.54122e-06
2.76985e-06
2.90884e-06
3.91658e-06
2.53695e-06
3.80888e-07
6.49878e-07
3.05743e-06
4.51979e-06
3.07788e-06
3.04401e-06
2.80923e-06
4.52798e-06
3.46045e-06
2.49681e-06
2.7034e-06
4.49968e-06
3.34472e-06
4.51664e-06
2.91742e-06
3.55707e-06
2.27801e-06
3.09074e-06
7.29531e-07
2.59341e-06
3.0655e-06
2.374e-06
4.49984e-06
2.59753e-06
2.53177e-06
4.52367e-06
4.50406e-06
2.3809e-06
3.21977e-06
3.04473e-06
1.53627e-06
4.86188e-07
3.04049e-06
2.96031e-06
-1.88899e-07
2.74947e-06
2.65993e-06
4.49455e-06
4.51994e-06
1.34201e-06
4.272e-06
2.65557e-06
3.05717e-06
3.10718e-06
2.6819e-06
3.19198e-06
1.87128e-06
2.97099e-06
4.49314e-06
3.15366e-06
4.52294e-06
3.02075e-06
3.1311e-06
2.56949e-06
3.07301e-06
2.85482e-06
3.07196e-06
3.01147e-06
4.37381e-06
2.92524e-06
3.45145e-06
2.46999e-06
2.99768e-06
3.12415e-06
2.61676e-06
2.32598e-06
2.70325e-06
2.46053e-06
2.9329e-06
4.51324e-06
2.42388e-06
4.50921e-06
2.40401e-06
3.01276e-06
2.96342e-06
3.53704e-06
2.94935e-06
6.69205e-07
2.55254e-06
3.11124e-06
2.92028e-06
2.60446e-06
2.63076e-06
4.43579e-06
3.06098e-06
4.40547e-06
2.39963e-06
2.94278e-06
4.24094e-06
3.40645e-06
2.94729e-06
3.02938e-06
3.18586e-06
2.98693e-06
2.43884e-06
2.41792e-06
3.03746e-06
4.17188e-06
3.53245e-06
2.92599e-06
2.97832e-06
2.87008e-06
2.96873e-06
7.89148e-07
4.51321e-06
2.98918e-06
2.50206e-06
2.89822e-06
2.57185e-06
3.00853e-06
2.82854e-06
3.00812e-06
2.84188e-06
2.09576e-06
2.938e-06
4.49649e-06
7.223e-07
2.72681e-06
2.88627e-06
2.88312e-06
2.31697e-06
4.40095e-06
3.02395e-06
2.92296e-06
2.58563e-06
2.88682e-06
3.00786e-06
2.01746e-06
2.77019e-06
2.14482e-06
2.57977e-06
2.80831e-06
2.86486e-06
2.40026e-06
4.51928e-06
2.38813e-06
4.49389e-06
2.90305e-06
2.97723e-06
7.80849e-07
2.49525e-06
1.84563e-06
2.9081e-06
2.35433e-06
2.81794e-06
7.27375e-07
2.37734e-06
1.98145e-06
2.59501e-06
2.83585e-06
2.73985e-06
4.42951e-06
2.03448e-06
2.91954e-06
2.51411e-06
1.94747e-06
1.89779e-06
2.82952e-06
2.89923e-06
2.84931e-06
2.92638e-06
4.25353e-06
2.43575e-06
2.92013e-06
2.747e-06
2.83702e-06
2.78042e-06
2.83163e-06
2.58376e-06
2.45503e-06
2.7495e-06
2.1869e-06
2.3813e-06
2.88013e-06
2.30352e-06
2.38612e-06
2.68233e-06
4.52155e-06
2.7322e-06
2.33646e-06
2.753e-06
2.4225e-06
2.34952e-06
2.32622e-06
2.6859e-06
2.82401e-06
7.79759e-07
2.67491e-06
2.77986e-06
2.54094e-06
2.71901e-06
2.68952e-06
2.19859e-06
2.71126e-06
2.04197e-06
2.7863e-06
2.71947e-06
1.89957e-06
2.15255e-06
3.01654e-06
2.11746e-06
2.848e-06
2.12093e-06
1.80784e-06
2.83786e-06
2.33954e-06
2.20738e-06
2.75805e-06
2.66348e-06
2.62497e-06
2.36331e-06
1.31105e-06
2.2747e-06
2.62677e-06
2.16077e-06
2.7656e-06
2.11971e-06
2.70104e-06
2.31345e-06
2.62448e-06
3.88755e-06
2.23275e-06
2.28997e-06
1.9955e-06
7.93939e-07
2.66993e-06
2.77267e-06
2.18167e-06
2.79774e-06
2.60219e-06
2.56419e-06
2.61127e-06
2.60576e-06
2.53117e-06
2.58569e-06
2.18563e-06
2.14021e-06
2.27924e-06
2.65505e-06
1.98105e-06
2.7718e-06
2.15791e-06
4.50903e-06
2.66239e-06
2.0987e-06
2.1114e-06
2.00232e-06
2.01867e-06
2.55264e-06
2.64605e-06
2.45866e-06
2.25519e-06
2.56319e-06
2.05179e-06
1.95205e-06
2.50455e-06
2.50345e-06
2.10248e-06
2.15275e-06
2.28274e-06
2.61795e-06
2.59126e-06
2.05274e-06
2.60863e-06
2.67431e-06
2.45902e-06
2.12146e-06
2.77746e-06
2.49895e-06
2.50138e-06
2.64309e-06
1.97397e-06
2.56366e-06
2.57566e-06
2.637e-06
2.49621e-06
2.01292e-06
2.20302e-06
1.79985e-06
1.56596e-06
1.86136e-06
2.3238e-06
2.48647e-06
2.53164e-06
8.47622e-07
2.44249e-06
1.92128e-06
1.8774e-06
2.43495e-06
2.05982e-06
2.76648e-06
1.61875e-06
2.77594e-06
2.40502e-06
2.43615e-06
2.44558e-06
2.34796e-06
1.93482e-06
2.18803e-06
1.99646e-06
2.38123e-06
2.50604e-06
2.06465e-06
2.05112e-06
2.01075e-06
2.40861e-06
2.14359e-06
2.45081e-06
2.02065e-06
2.40361e-06
1.97767e-06
2.06099e-06
2.42692e-06
2.60654e-06
1.75862e-06
2.50358e-06
2.03996e-06
1.88824e-06
2.42806e-06
1.95653e-06
1.66569e-06
1.99993e-06
2.04097e-06
2.4715e-06
2.37174e-06
1.982e-06
2.48515e-06
2.29129e-06
2.10395e-06
2.24923e-06
2.44221e-06
2.16498e-06
2.36717e-06
2.34948e-06
2.94871e-06
2.5364e-06
2.41188e-06
2.31896e-06
2.39938e-06
2.07018e-06
2.1136e-06
1.98368e-06
2.30973e-06
2.22557e-06
2.40941e-06
2.29823e-06
2.56453e-06
2.01786e-06
2.25443e-06
1.91103e-06
2.09522e-06
2.32023e-06
2.22247e-06
2.21016e-06
1.84804e-06
1.79517e-06
8.96151e-07
2.27824e-06
1.76584e-06
2.21717e-06
1.80949e-06
1.83232e-06
9.5468e-07
2.3871e-06
2.32076e-06
2.27916e-06
2.27012e-06
2.15122e-06
2.30892e-06
9.71887e-07
2.25789e-06
2.23243e-06
1.8906e-06
1.94329e-06
1.82057e-06
2.25025e-06
2.36894e-06
1.93391e-06
2.39712e-06
2.05842e-06
2.21814e-06
2.18823e-06
1.71231e-06
1.5001e-06
5.87343e-07
1.75349e-06
9.40473e-07
1.80472e-06
2.41142e-06
1.73759e-06
2.3657e-06
1.77907e-06
1.71392e-06
1.7276e-06
2.15265e-06
2.12163e-06
2.28725e-06
2.32419e-06
1.01934e-06
1.79053e-06
1.73054e-06
2.2132e-06
1.74889e-06
1.86815e-06
1.74436e-06
2.15719e-06
2.17094e-06
1.85128e-06
2.13267e-06
2.28594e-06
2.19071e-06
1.6944e-06
1.87452e-06
1.99268e-06
1.76773e-06
2.27132e-06
2.15628e-06
1.60936e-06
1.63984e-06
2.10931e-06
2.01459e-06
1.70363e-06
1.67016e-06
1.91254e-06
1.9483e-06
1.55841e-06
2.23244e-06
1.72662e-06
1.28361e-06
1.60993e-06
1.76807e-06
2.12591e-06
2.2003e-06
1.80343e-06
2.05644e-06
2.08489e-06
1.82828e-06
1.02767e-06
1.40431e-06
2.34734e-06
1.4219e-06
1.70829e-06
2.07539e-06
2.19712e-06
1.97315e-06
1.82141e-06
2.06795e-06
2.11979e-06
2.14659e-06
2.03265e-06
2.18263e-06
1.9914e-06
1.67539e-06
1.23887e-06
2.26607e-06
2.01896e-06
2.1712e-06
2.12793e-06
2.04644e-06
2.09455e-06
1.62594e-06
2.08408e-06
2.08645e-06
1.70113e-06
1.28655e-06
1.08105e-06
1.3295e-06
2.09048e-06
1.56841e-06
2.06278e-06
2.02585e-06
1.28677e-06
2.0368e-06
2.20663e-06
1.6458e-06
1.59242e-06
1.99738e-06
1.94441e-06
1.46369e-06
2.02633e-06
2.05017e-06
1.95798e-06
1.96345e-06
1.29388e-06
1.54097e-06
1.71305e-06
1.60604e-06
1.96968e-06
1.98266e-06
1.49448e-06
1.50511e-06
1.45675e-06
1.901e-06
1.18655e-06
1.91838e-06
1.90191e-06
1.60937e-06
2.01413e-06
1.49389e-06
1.27722e-06
1.54052e-06
1.86541e-06
2.07557e-06
2.14764e-06
1.90698e-06
1.53367e-06
1.35503e-06
1.90474e-06
1.38342e-06
2.03445e-06
1.88161e-06
1.67556e-06
1.21491e-06
1.89993e-06
1.57128e-06
1.83674e-06
1.39946e-06
1.49708e-06
1.30698e-06
1.84065e-06
1.65188e-06
1.14191e-06
1.15334e-06
1.55627e-06
1.9301e-06
1.9972e-06
1.41422e-06
1.95938e-06
1.60789e-06
1.43986e-06
2.01247e-06
1.85453e-06
1.88653e-06
1.24015e-06
1.13535e-06
1.42835e-06
1.74613e-06
1.43922e-06
2.08246e-06
1.56589e-06
1.89392e-06
1.37499e-06
1.47551e-06
1.13562e-06
1.84465e-06
1.9392e-06
1.81296e-06
1.09256e-06
1.7287e-06
1.582e-06
1.89108e-06
1.6378e-06
1.68189e-06
1.77468e-06
1.7918e-06
1.32162e-06
1.77938e-06
1.89568e-06
2.01558e-06
1.42948e-06
1.77564e-06
1.45135e-06
1.87399e-06
1.82398e-06
1.85446e-06
1.14406e-06
1.36409e-06
1.82809e-06
1.86697e-06
1.20162e-06
1.35979e-06
1.57945e-06
1.44882e-06
1.61868e-06
1.71809e-06
1.31731e-06
1.79931e-06
1.80603e-06
8.10736e-07
1.95457e-06
1.95401e-06
1.40215e-06
1.70548e-06
1.61383e-06
8.09118e-07
8.74228e-07
1.78219e-06
1.73184e-06
1.39207e-06
8.49759e-07
1.20548e-06
1.49298e-06
1.33259e-06
1.32953e-06
1.21889e-06
1.74322e-06
1.72032e-06
1.68029e-06
1.44949e-06
1.6569e-06
2.1354e-06
1.23945e-06
1.20431e-06
2.15577e-06
1.61016e-06
9.34619e-07
1.83605e-06
1.22039e-06
1.38496e-06
1.26944e-06
1.25836e-06
1.3583e-06
1.6218e-06
1.7468e-06
1.33321e-06
1.62974e-06
1.47355e-06
1.26108e-06
1.65305e-06
1.68999e-06
1.66087e-06
1.76175e-06
1.71354e-06
1.14739e-06
1.25974e-06
1.66729e-06
1.72053e-06
1.1271e-06
1.74279e-06
1.83353e-06
1.30279e-06
1.14669e-06
1.59655e-06
1.19366e-06
1.30248e-06
1.6828e-06
1.18441e-06
1.4457e-06
1.77352e-06
1.70027e-06
1.53448e-06
1.3779e-06
1.23884e-06
1.19719e-06
1.63887e-06
1.51069e-06
2.33437e-06
1.2005e-06
1.66689e-06
1.57139e-06
1.59783e-06
9.98951e-07
1.36042e-06
1.23855e-06
1.53889e-06
1.64369e-06
1.44111e-06
1.37947e-06
1.05904e-06
1.62252e-06
1.29246e-06
1.5697e-06
1.3159e-06
1.52372e-06
1.48765e-06
1.25002e-06
1.78498e-06
1.13167e-06
1.19599e-06
1.551e-06
1.55257e-06
1.35085e-06
1.48419e-06
1.49528e-06
1.56583e-06
1.55407e-06
1.06453e-06
1.85655e-06
1.4995e-06
1.12462e-06
1.42354e-06
1.42771e-06
1.32141e-06
1.04957e-06
1.43552e-06
1.05317e-06
1.69762e-06
1.57794e-06
1.11951e-06
1.40391e-06
1.55604e-06
1.50359e-06
1.25844e-06
1.05902e-06
1.36719e-06
1.12343e-06
1.44244e-06
1.61046e-06
9.96422e-07
1.0237e-06
1.45432e-06
1.51177e-06
1.41648e-06
1.01549e-06
1.51862e-06
7.1404e-07
1.37302e-06
1.30567e-06
1.34597e-06
1.32669e-06
1.55222e-06
1.50261e-06
1.04303e-06
9.59564e-07
1.81208e-06
8.97509e-07
1.52597e-06
1.40044e-06
1.44983e-06
9.07444e-07
1.45212e-06
1.38468e-06
9.82028e-07
1.28823e-06
9.9208e-07
9.29182e-07
1.08909e-06
1.31141e-06
1.33138e-06
1.54871e-06
1.53182e-06
8.32823e-07
9.84605e-07
6.10285e-07
1.0578e-06
1.2971e-06
9.52378e-07
1.00274e-06
9.35433e-07
1.29154e-06
1.39925e-06
1.29794e-06
1.24966e-06
1.49495e-06
1.41754e-06
1.30383e-06
1.33679e-06
1.24699e-06
1.31653e-06
8.68591e-07
1.26778e-06
1.45757e-06
1.26715e-06
1.30293e-06
1.22629e-06
1.4749e-06
1.34387e-06
8.60304e-07
1.24136e-06
1.25321e-06
1.41851e-06
1.40456e-06
1.27785e-06
1.18888e-06
1.2855e-06
1.41571e-06
7.55285e-07
7.78928e-07
1.27048e-06
1.16115e-06
1.03177e-06
7.88975e-07
7.3287e-07
7.78978e-07
8.08605e-07
1.27731e-06
1.38203e-06
1.18399e-06
1.19967e-06
6.66021e-07
9.27707e-07
1.10989e-06
8.55637e-07
1.47061e-06
1.61641e-06
1.69832e-06
1.09429e-06
1.23072e-06
1.12841e-06
7.70274e-07
1.06134e-06
7.14803e-07
1.24577e-06
1.24077e-06
7.05697e-07
1.12675e-06
1.0487e-06
9.83609e-07
7.21502e-07
8.37514e-07
7.33863e-07
1.15326e-06
6.82008e-07
1.24251e-06
1.06719e-06
9.79558e-07
1.18495e-06
1.07121e-06
9.25446e-07
7.29032e-07
1.10794e-06
1.2983e-06
1.02792e-06
8.99438e-07
8.97249e-07
1.20312e-06
1.12895e-06
1.1761e-06
9.05008e-07
1.05274e-06
1.31262e-06
9.88141e-07
1.02321e-06
7.31936e-07
6.61454e-07
1.09259e-06
9.63099e-07
1.00521e-06
9.40491e-07
8.40763e-07
6.11917e-07
1.23922e-06
9.75581e-07
1.16674e-06
9.65588e-07
9.79274e-07
1.05054e-06
9.04195e-07
1.05406e-06
5.81037e-07
1.03096e-06
1.20782e-06
1.1272e-06
9.42576e-07
1.09857e-06
9.11754e-07
1.10367e-06
9.41671e-07
9.58369e-07
1.01323e-06
9.20793e-07
8.79515e-07
9.67809e-07
8.79801e-07
9.00447e-07
8.4791e-07
8.19267e-07
9.12528e-07
7.72822e-07
8.45947e-07
8.50036e-07
8.17628e-07
9.62179e-07
1.2954e-06
7.46277e-07
7.60824e-07
9.13138e-07
9.59058e-07
7.82074e-07
8.62454e-07
8.47163e-07
6.31614e-07
8.27224e-07
7.87744e-07
9.77433e-07
1.12982e-06
7.5974e-07
7.21466e-07
7.04892e-07
8.18025e-07
7.65483e-07
7.79285e-07
7.42013e-07
8.5568e-07
6.87524e-07
9.00506e-07
7.83042e-07
7.05244e-07
6.37311e-07
7.236e-07
8.35901e-07
7.19567e-07
8.50055e-07
6.44989e-07
8.07238e-07
7.21077e-07
6.61783e-07
7.03814e-07
6.53133e-07
8.36181e-07
7.09993e-07
6.13828e-07
6.86444e-07
7.78454e-07
3.30222e-06
3.07644e-06
1.49149e-06
2.22725e-06
6.94585e-07
3.20288e-06
3.15428e-06
2.19256e-06
3.25731e-06
9.27377e-07
2.39066e-06
1.46702e-06
2.92798e-06
8.74209e-07
3.10576e-06
6.38694e-07
2.85687e-06
3.03405e-06
1.41196e-06
2.54329e-06
8.89364e-07
2.79408e-06
3.14143e-06
2.4741e-06
1.9688e-06
3.20375e-06
2.48343e-06
2.19638e-06
2.59032e-06
7.88327e-07
2.32224e-06
8.21577e-07
2.53333e-06
8.10009e-07
4.74089e-07
9.02194e-07
3.07421e-06
2.78797e-06
2.23913e-06
1.00886e-06
2.85445e-06
2.36028e-06
2.08688e-06
2.4179e-06
2.28555e-06
1.58915e-06
2.99953e-06
7.88849e-07
1.60288e-06
5.83251e-07
8.88569e-07
2.65457e-06
8.97855e-07
2.1263e-06
1.23206e-06
4.35943e-07
7.74093e-07
1.88175e-06
1.50089e-06
2.12279e-06
5.05173e-07
2.17475e-06
2.49465e-07
1.3746e-06
3.38397e-07
7.10616e-07
2.57452e-06
3.49547e-07
2.64898e-06
1.57053e-06
7.49889e-07
2.60131e-06
1.6237e-06
2.36692e-06
2.50855e-06
2.31967e-06
2.40558e-06
3.00089e-06
1.29279e-06
2.96305e-07
2.4113e-07
2.42078e-06
5.03424e-07
2.71957e-06
1.10381e-06
2.29997e-06
6.16788e-07
7.31225e-07
2.10036e-06
1.45558e-06
1.49525e-06
4.12373e-07
2.31467e-06
1.21121e-06
2.17947e-06
1.80641e-06
8.4046e-07
1.43754e-06
2.07218e-06
4.47785e-07
2.30422e-06
2.35007e-06
2.06182e-06
2.01448e-06
2.47736e-06
1.99517e-06
4.9186e-07
2.29105e-06
2.30073e-06
5.48526e-07
6.5109e-07
2.99873e-06
2.46624e-06
8.45389e-07
2.59034e-06
8.18515e-07
2.27113e-06
2.43622e-06
9.10635e-07
6.63051e-07
6.12011e-07
8.00092e-07
8.5978e-07
1.04325e-06
7.31491e-07
1.0073e-06
9.82415e-07
8.1852e-07
1.04148e-06
8.91972e-07
9.73761e-07
6.4914e-07
6.83674e-07
7.33064e-07
8.70071e-07
1.18757e-06
1.09275e-06
9.91555e-07
1.68558e-06
8.16996e-07
8.74776e-07
1.0744e-06
7.37767e-07
6.27025e-07
1.00517e-06
1.12586e-06
7.9478e-07
7.62565e-07
9.81569e-07
9.16589e-07
1.17384e-06
9.14821e-07
1.62062e-06
1.40379e-06
1.03622e-06
8.78043e-07
1.40743e-06
9.34885e-07
1.53364e-06
9.45885e-07
7.97883e-07
9.03074e-07
1.40025e-06
8.20197e-07
9.84477e-07
2.04619e-06
1.07463e-06
8.30092e-07
1.64813e-06
7.6653e-07
1.50882e-06
2.14405e-06
1.37248e-06
1.16262e-06
1.13891e-06
1.4201e-06
1.24457e-06
9.45098e-07
1.47156e-06
1.283e-06
1.46259e-06
1.16702e-06
9.74124e-07
1.18847e-06
1.09914e-06
9.18472e-07
1.18125e-06
1.23288e-06
1.21834e-06
1.32423e-06
8.7864e-07
1.12068e-06
1.2712e-06
1.2034e-06
1.72618e-06
9.03281e-07
1.01169e-06
1.75239e-06
1.9502e-06
1.19718e-06
9.27283e-07
1.63038e-06
2.22434e-06
1.72674e-06
1.09734e-06
1.13819e-06
1.09369e-06
1.27598e-06
1.13956e-06
1.59222e-06
1.04153e-06
1.24067e-06
1.20876e-06
2.46785e-06
1.11623e-06
1.96421e-06
1.17228e-06
1.14079e-06
1.64285e-06
1.94285e-06
1.28878e-06
1.37859e-06
1.11194e-06
1.53732e-06
1.76342e-06
2.17571e-06
1.30383e-06
1.78376e-06
1.8714e-06
2.09633e-06
1.45447e-06
1.36391e-06
1.95305e-06
1.93588e-06
1.69094e-06
1.50322e-06
1.84542e-06
1.28198e-06
1.65376e-06
2.04308e-06
1.47449e-06
1.487e-06
2.18859e-06
1.71338e-06
1.88215e-06
2.06908e-06
1.807e-06
1.39479e-06
1.81304e-06
1.75814e-06
1.68066e-06
2.28871e-06
1.48808e-06
2.00332e-06
1.90636e-06
3.45807e-06
1.5714e-06
1.59388e-06
1.84106e-06
1.52922e-06
1.93708e-06
1.50668e-06
2.23681e-06
1.50644e-06
1.57319e-06
1.88003e-06
1.6705e-06
1.94574e-06
1.35126e-06
1.93082e-06
1.87267e-06
1.73344e-06
1.55531e-06
1.34071e-06
1.59037e-06
2.0283e-06
2.37902e-06
2.0019e-06
2.11993e-06
2.07936e-06
1.59254e-06
1.66382e-06
1.34679e-06
1.57101e-06
1.3212e-06
1.99962e-06
2.3704e-06
1.94599e-06
2.53373e-06
1.51731e-06
1.80538e-06
1.83471e-06
2.09006e-06
2.32854e-06
1.66493e-06
2.39039e-06
1.64193e-06
2.01119e-06
2.3054e-06
2.10104e-06
1.69507e-06
2.33781e-06
1.83039e-06
2.44621e-06
2.06039e-06
1.72214e-06
2.32479e-06
1.61431e-06
1.78999e-06
1.52007e-06
2.39523e-06
2.58729e-06
2.27636e-06
1.76539e-06
1.49036e-06
2.61448e-06
1.98277e-06
1.69625e-06
2.98206e-06
1.81072e-06
1.59592e-06
2.38389e-06
2.57561e-06
2.34987e-06
2.12708e-06
1.64594e-06
1.88549e-06
1.9664e-06
2.65771e-06
2.39143e-06
1.79511e-06
2.04836e-06
1.65622e-06
2.34066e-06
2.18294e-06
1.89994e-06
2.29402e-06
1.84688e-06
1.84639e-06
2.30778e-06
2.31137e-06
1.889e-06
8.14649e-07
2.50511e-06
2.26774e-06
1.74616e-06
2.23848e-06
2.22702e-06
2.38831e-06
1.81786e-06
2.23045e-06
2.12442e-06
2.52757e-06
2.54974e-06
2.23046e-06
1.76902e-06
2.10474e-06
6.77957e-07
6.33141e-07
2.10613e-06
9.04505e-07
2.25103e-06
1.80423e-06
2.5466e-06
2.00897e-06
1.92165e-06
2.10773e-06
1.8703e-06
2.14665e-06
2.64894e-06
1.78608e-06
2.46016e-06
2.32667e-06
2.07952e-06
2.16478e-06
2.65148e-06
6.63324e-07
1.84979e-06
2.31182e-06
2.26381e-06
2.53242e-06
1.17009e-06
2.09966e-06
2.38555e-06
2.35936e-06
2.31287e-06
2.63397e-06
2.52702e-06
2.18768e-06
1.91867e-06
2.19632e-06
2.4121e-06
6.62737e-07
2.07531e-06
2.49025e-06
1.93609e-06
2.18366e-06
1.82075e-06
2.70143e-06
7.10751e-07
2.15964e-06
2.51671e-06
3.29743e-06
2.17637e-06
1.2329e-06
4.22671e-07
2.35743e-06
2.24966e-06
1.96497e-06
2.16535e-06
7.90151e-07
5.61771e-07
7.6272e-07
7.44465e-07
4.71628e-07
2.69232e-06
2.34478e-06
2.23387e-06
1.97719e-06
2.59573e-06
5.59239e-07
8.47431e-07
2.37494e-06
2.73368e-06
6.02229e-07
2.57038e-06
9.50346e-07
2.6306e-06
4.4769e-06
2.36163e-06
2.80918e-06
2.25902e-06
2.45995e-06
1.53495e-06
4.44789e-06
2.43573e-06
2.23311e-06
5.77596e-07
1.12395e-06
2.20653e-06
2.45549e-06
2.82923e-06
2.88896e-06
2.58231e-06
7.21637e-07
6.68402e-07
2.55402e-06
3.45883e-06
4.51164e-06
2.94734e-06
4.4388e-06
5.74133e-07
4.53856e-06
5.8334e-07
2.46418e-06
3.78203e-06
2.45242e-06
6.22633e-07
5.74058e-07
4.51391e-06
6.34091e-07
4.13307e-06
4.51078e-06
4.50769e-06
1.47192e-06
5.16284e-07
3.93656e-06
3.39763e-06
7.29042e-07
2.87689e-06
2.43953e-06
2.71631e-06
2.6712e-06
4.47585e-06
1.33048e-06
4.51542e-06
1.23503e-06
3.16686e-06
4.5065e-06
2.45944e-06
2.82835e-06
2.50558e-06
3.12402e-06
2.52708e-06
2.0391e-06
2.86116e-06
4.20458e-06
2.99416e-06
6.12308e-07
1.43798e-06
3.25358e-06
6.80816e-07
6.57327e-07
7.41838e-07
2.68564e-06
4.41727e-06
2.96517e-06
1.64188e-06
2.81664e-06
5.36271e-07
3.72739e-06
3.01141e-06
2.33502e-06
2.74717e-06
3.47949e-06
2.74258e-06
3.77306e-08
3.29033e-06
3.16377e-06
2.97269e-06
5.79076e-07
2.44532e-06
4.50157e-06
2.4807e-06
1.08625e-06
4.41874e-06
3.88725e-06
7.93801e-07
4.50219e-06
2.95213e-06
6.47575e-07
2.6268e-06
2.68457e-06
4.51705e-06
4.51685e-06
4.52488e-06
6.20695e-07
2.77386e-06
3.65621e-06
2.76098e-06
4.49509e-06
1.17074e-06
2.67301e-06
5.70674e-07
1.52296e-06
1.8937e-06
1.14194e-06
4.4841e-06
9.82481e-07
4.51795e-06
1.52791e-06
2.0658e-06
2.63482e-07
3.13816e-06
2.52431e-06
4.51774e-06
4.39054e-06
4.06135e-06
6.10668e-07
2.79526e-06
3.75164e-06
1.37752e-06
8.00205e-07
4.50262e-06
6.7094e-07
4.51658e-06
3.25402e-06
4.52416e-06
4.51053e-06
5.24254e-07
4.50707e-06
6.14618e-07
5.81023e-07
4.52141e-06
4.5031e-06
2.06397e-06
4.49995e-06
3.1858e-06
5.24702e-07
3.06893e-06
4.53066e-06
2.66108e-06
4.53386e-06
2.46505e-06
5.43568e-07
2.22666e-06
6.72776e-07
4.5241e-06
3.41056e-06
2.17955e-06
5.75837e-07
4.18038e-07
4.23755e-06
2.51754e-06
1.72486e-06
3.44968e-06
4.51813e-06
3.11533e-06
5.2182e-07
4.50865e-06
2.81236e-06
4.29316e-07
3.05677e-06
8.43063e-07
4.45894e-06
3.62519e-06
2.7011e-06
4.51428e-06
1.0174e-06
2.81793e-06
1.04369e-06
2.88941e-06
3.19406e-06
4.52313e-06
1.95479e-06
4.52207e-06
4.51789e-06
2.76695e-06
1.36072e-06
4.51787e-06
2.46895e-06
3.21666e-06
4.20179e-06
4.51903e-06
2.40715e-07
3.08627e-06
1.87796e-06
3.88247e-07
4.4238e-06
4.18475e-07
1.55814e-06
4.03147e-06
4.51436e-06
2.66383e-06
4.4772e-06
5.16961e-06
9.00376e-07
9.47463e-07
2.66369e-06
4.40405e-06
2.56958e-06
4.47483e-07
3.14864e-06
4.41644e-06
4.51959e-06
1.74436e-06
2.40695e-06
2.69177e-06
1.46274e-06
4.47793e-06
1.96449e-06
1.68712e-07
4.49963e-06
1.35388e-06
1.8258e-06
1.16436e-06
5.11723e-07
4.51613e-06
5.73382e-07
5.28822e-07
3.13709e-06
4.48942e-06
4.47556e-06
4.52121e-06
4.3084e-06
3.97934e-07
4.51362e-06
4.40633e-06
1.68852e-07
2.70846e-06
4.49441e-06
4.35271e-06
4.51697e-06
5.14925e-07
5.04876e-07
3.88591e-06
4.51883e-06
4.25914e-06
1.66233e-06
2.40889e-06
1.39329e-06
2.34041e-06
3.3783e-06
4.51888e-06
2.71921e-06
4.51258e-07
1.01772e-06
4.5212e-06
2.88514e-06
4.52049e-06
3.00922e-06
3.56137e-06
2.36981e-06
1.31924e-06
1.69892e-06
4.59324e-07
3.40231e-06
2.00344e-06
4.42888e-06
7.38818e-07
4.52572e-06
2.76967e-06
4.1366e-07
4.52095e-06
3.72711e-06
4.54035e-06
1.58406e-06
4.51082e-06
4.51483e-06
2.52413e-06
1.0853e-06
2.6641e-06
2.48208e-06
4.13103e-06
7.87772e-07
2.75332e-06
9.04385e-07
4.40436e-06
4.39069e-06
4.4974e-06
4.30512e-06
3.90135e-06
4.35064e-06
2.24044e-06
4.00402e-06
4.28439e-06
3.28587e-06
5.25338e-07
5.72381e-07
2.4536e-06
4.50386e-06
4.36403e-06
3.20926e-06
1.0771e-06
3.184e-06
3.04708e-07
4.51906e-06
1.00231e-06
2.66255e-06
5.4987e-07
3.09011e-06
2.68079e-06
3.88724e-06
3.22765e-06
4.44194e-06
4.5237e-06
4.79679e-07
3.06486e-06
3.53526e-06
3.80168e-06
1.16516e-06
3.89075e-07
5.98547e-07
2.72671e-06
3.79815e-06
3.18963e-07
3.03219e-07
1.35024e-06
3.82311e-06
5.07891e-07
4.26367e-07
6.5729e-07
4.51577e-06
4.48855e-06
4.36754e-06
4.3204e-06
2.0183e-06
3.02347e-06
1.37104e-06
1.99719e-06
2.93038e-06
4.50659e-06
1.60066e-06
4.47198e-06
4.38395e-06
8.13392e-07
2.42996e-06
5.38256e-07
2.9512e-06
2.54619e-06
5.32289e-07
2.54474e-06
3.29471e-06
3.92149e-06
3.02073e-06
4.32747e-06
2.34262e-06
9.59176e-07
4.52299e-06
4.40882e-06
4.41273e-06
1.22834e-06