/*--------------------------------*- C++ -*----------------------------------*\
  =========                 |
  \\      /  F ield         | OpenFOAM: The Open Source CFD Toolbox
   \\    /   O peration     | Website:  https://openfoam.org
    \\  /    A nd           | Version:  8
     \\/     M anipulation  |
\*---------------------------------------------------------------------------*/
FoamFile
{
    version     2.0;
    format      ascii;
    class       volScalarField;
    location    "9";
    object      p;
}
// * * * * * * * * * * * * * * * * * * * * * * * * * * * * * * * * * * * * * //

dimensions      [0 2 -2 0 0 0 0];

internalField   nonuniform List<scalar> 
3080
(
4.02472e-05
3.78529e-05
4.00234e-05
4.0251e-05
3.90732e-05
4.00548e-05
4.01073e-05
2.18003e-05
3.99801e-05
4.01014e-05
4.0262e-05
4.01294e-05
3.69192e-05
3.88813e-05
4.02669e-05
3.83198e-05
4.00925e-05
4.01765e-05
4.02562e-05
3.97252e-05
2.63351e-05
3.9821e-05
3.95242e-05
2.33956e-05
3.92575e-05
3.85763e-05
4.00475e-05
3.84753e-05
4.02515e-05
3.86957e-05
3.4362e-05
2.39864e-05
3.86505e-05
2.52563e-05
3.00386e-05
4.027e-05
3.98442e-05
3.08964e-05
4.01367e-05
3.86943e-05
4.02292e-05
4.01543e-05
4.01917e-05
4.01719e-05
3.83749e-05
4.02628e-05
3.99688e-05
4.02454e-05
4.02091e-05
3.79412e-05
4.01709e-05
3.27867e-05
3.96195e-05
4.00801e-05
3.86355e-05
4.00528e-05
4.0018e-05
2.66226e-06
3.07334e-05
4.0059e-05
2.92449e-06
3.25258e-06
4.09346e-06
4.00948e-05
3.73173e-06
4.12954e-06
4.01413e-05
4.01186e-05
2.06529e-06
5.56561e-06
4.01162e-05
3.47561e-06
2.79604e-05
7.05268e-06
4.01993e-05
2.70303e-05
4.01955e-05
4.94403e-06
4.01415e-05
4.02081e-05
3.79706e-05
4.01283e-05
8.54281e-06
3.40307e-05
3.97786e-05
6.42705e-06
3.99051e-05
9.73248e-06
1.06337e-05
3.99207e-05
7.9163e-06
1.00358e-05
1.19917e-06
8.89549e-06
9.72653e-06
4.00003e-05
9.40803e-06
1.11249e-05
1.21419e-05
4.01337e-05
4.01055e-05
2.38879e-06
2.66874e-06
2.72113e-05
3.98745e-05
3.89473e-05
4.0188e-05
1.08992e-05
1.02856e-05
1.12331e-05
1.25169e-05
1.365e-05
4.016e-05
4.64371e-06
5.11929e-06
2.29352e-05
3.98258e-05
1.55697e-06
1.75727e-06
1.16782e-05
1.27417e-05
4.00744e-05
3.98073e-05
5.56383e-06
6.11682e-06
4.02104e-05
4.02121e-05
1.48325e-05
1.61564e-05
3.84676e-05
6.48816e-06
7.1187e-06
4.00793e-05
7.41692e-06
8.12489e-06
4.02653e-05
3.99834e-05
4.02333e-05
1.62368e-05
1.76659e-05
1.63681e-05
1.55048e-05
4.01845e-05
8.34474e-06
9.12979e-06
3.82286e-05
4.02041e-05
1.3994e-05
1.52518e-05
3.37284e-06
3.73951e-06
4.02195e-05
3.99981e-05
4.00587e-05
4.02106e-05
1.76715e-05
1.91812e-05
2.90455e-05
3.13082e-06
4.00636e-05
1.78506e-05
1.92037e-05
2.08567e-05
3.87366e-05
1.74163e-06
1.699e-05
4.02386e-05
4.00226e-05
4.58406e-06
1.53844e-05
1.67567e-05
3.99541e-05
2.30557e-05
1.93525e-05
3.0354e-05
6.06223e-06
2.24643e-05
2.04834e-05
4.02168e-05
3.24928e-07
3.40974e-07
2.6293e-07
1.18946e-05
1.84681e-05
2.69726e-05
3.99818e-05
2.09918e-05
7.55071e-06
1.67962e-05
1.82624e-05
4.01418e-05
1.28899e-05
3.98756e-05
2.41237e-05
4.01925e-05
1.34429e-05
1.46521e-05
4.01877e-05
1.96844e-05
2.14134e-05
2.05619e-06
2.30733e-06
9.04261e-06
2.33035e-05
1.38825e-05
2.00519e-05
2.18137e-05
2.0021e-05
2.26132e-05
4.0199e-05
9.36096e-06
1.0231e-05
3.96768e-05
4.02217e-05
3.84738e-05
4.00583e-05
1.48781e-05
2.28734e-05
2.07187e-05
1.05338e-05
4.2767e-06
4.72099e-06
2.3099e-05
1.07527e-05
1.17389e-05
3.98666e-05
3.94933e-05
3.99977e-05
5.1935e-06
5.71522e-06
2.54591e-05
3.99193e-05
2.33599e-05
2.17594e-05
3.98433e-05
2.37177e-05
2.40481e-05
6.11575e-06
6.71492e-06
4.02493e-05
1.2145e-05
1.32472e-05
3.9912e-05
2.26423e-05
4.30056e-07
4.46709e-07
5.26028e-07
2.29007e-05
4.01048e-05
7.0403e-06
7.71689e-06
3.64379e-05
2.08156e-05
1.25923e-06
1.43627e-06
3.73094e-05
2.0292e-05
7.96826e-06
8.72269e-06
2.47201e-05
4.02388e-05
1.86388e-05
2.02077e-05
2.09318e-05
1.9312e-05
2.1418e-05
1.97882e-05
4.01954e-05
1.99478e-05
1.83813e-05
4.00617e-05
1.44571e-05
1.57545e-05
1.60006e-05
2.09626e-05
3.9914e-05
1.89545e-05
1.74505e-05
4.02472e-05
1.7952e-05
1.65096e-05
2.34397e-05
1.69466e-05
1.55664e-05
2.48923e-05
2.04413e-05
1.88472e-05
2.07914e-05
1.15288e-05
1.54393e-05
1.417e-05
2.03249e-05
1.58513e-05
1.726e-05
1.74816e-05
1.44326e-05
1.32389e-05
2.77557e-05
3.52029e-07
2.40125e-07
2.94753e-07
1.98778e-05
1.89427e-05
1.34281e-05
1.23115e-05
1.25236e-05
1.2424e-05
1.13848e-05
1.94529e-05
1.79152e-05
1.74537e-05
4.00599e-05
1.14168e-05
1.04555e-05
2.34519e-05
1.59584e-05
2.5704e-05
1.94176e-05
9.90236e-06
9.05751e-06
1.84503e-05
1.72748e-05
1.87679e-05
4.02177e-05
1.89652e-05
1.35168e-05
1.44607e-05
8.39501e-06
7.66574e-06
1.64508e-05
1.51049e-05
1.8455e-05
1.69813e-05
7.39579e-06
6.74344e-06
1.29659e-05
6.39023e-06
5.81559e-06
1.19723e-05
1.45093e-05
1.6955e-05
1.30713e-05
1.42505e-05
4.8721e-06
4.41355e-06
3.99532e-05
1.04778e-05
2.05801e-05
3.85584e-06
3.47414e-06
3.25932e-05
1.74509e-05
1.60411e-05
1.79521e-05
4.02342e-05
8.98503e-06
4.01846e-05
2.08869e-06
2.35324e-06
3.7438e-05
4.00504e-05
1.54582e-05
7.49241e-06
5.99679e-06
2.22817e-05
4.49447e-06
3.99727e-05
2.97135e-06
1.59426e-05
1.46359e-05
4.00527e-05
1.64578e-05
3.76993e-05
2.48519e-05
1.34639e-05
3.99552e-05
2.68907e-05
1.49365e-05
1.37047e-05
4.00129e-05
3.85325e-05
4.02057e-05
4.02631e-05
1.0403e-05
9.51953e-06
1.49613e-05
1.60364e-06
1.09773e-05
1.39312e-05
1.27759e-05
4.02076e-05
1.82353e-05
1.97883e-05
2.48141e-05
8.89338e-06
8.12574e-06
4.01388e-05
1.39602e-05
2.19085e-05
2.40117e-05
4.01273e-05
9.48453e-06
2.14956e-05
4.01904e-05
1.29268e-05
1.1849e-05
3.8827e-05
7.99104e-06
1.24713e-05
1.19224e-05
1.09221e-05
3.9938e-05
2.45129e-05
5.37456e-06
4.87754e-06
3.88491e-05
6.4971e-06
1.14735e-05
1.09147e-05
9.99242e-06
4.01985e-05
3.98621e-05
4.99829e-06
1.14767e-07
1.80233e-07
1.18993e-07
4.01797e-05
1.33934e-06
1.18129e-06
4.02641e-05
9.98039e-06
9.40438e-06
8.59834e-06
2.84115e-06
2.53764e-06
4.02394e-05
3.91295e-05
3.98776e-05
3.98625e-05
3.94319e-05
2.19886e-06
1.9593e-06
4.00463e-05
3.48328e-06
4.18888e-06
4.62559e-06
1.03672e-06
1.15344e-06
1.03342e-06
4.01772e-05
5.1058e-06
5.62002e-06
6.02819e-06
6.6199e-06
6.95467e-06
7.62389e-06
7.88325e-06
8.62978e-06
8.48712e-06
4.01513e-05
7.89749e-06
7.20665e-06
1.30972e-06
1.446e-06
7.2181e-07
7.18594e-07
8.03695e-07
3.4705e-05
1.29809e-05
1.41523e-05
3.79718e-05
4.00825e-05
4.02246e-05
6.89508e-06
6.28144e-06
4.01989e-05
3.78011e-05
3.67355e-05
4.02663e-05
1.81558e-05
1.96918e-05
6.99439e-06
4.00702e-05
4.00487e-05
4.00948e-05
1.41678e-06
1.57689e-06
1.13976e-05
1.23943e-05
3.95404e-05
5.8886e-06
5.35299e-06
1.3388e-05
2.58806e-05
1.43818e-05
4.0224e-05
3.70924e-05
4.01912e-05
4.0229e-05
4.02278e-05
3.82997e-05
4.00578e-05
3.99375e-05
5.49792e-06
1.31459e-06
4.0193e-05
3.96224e-05
3.67566e-05
4.02009e-05
2.38661e-05
3.99331e-05
4.3673e-06
3.94727e-06
4.00528e-05
3.44199e-05
4.00629e-05
1.95225e-06
4.00541e-05
4.0174e-05
4.0161e-05
2.57184e-05
4.00645e-05
3.27484e-06
3.6337e-06
3.99023e-06
3.91401e-05
4.00471e-05
3.3474e-06
3.00447e-06
4.01793e-05
4.00062e-05
4.0036e-05
4.44413e-06
3.99226e-05
2.98773e-06
3.92202e-05
4.00663e-05
5.92392e-06
9.26685e-06
1.01293e-05
3.92799e-05
4.02333e-05
1.16356e-05
1.06572e-05
7.41281e-06
1.31444e-05
1.205e-05
4.01471e-05
1.56504e-05
1.43632e-05
1.71592e-05
1.57638e-05
1.86699e-05
1.71875e-05
8.90371e-06
4.00241e-05
2.62222e-05
4.02053e-05
3.94974e-05
1.03949e-05
4.02534e-05
4.02003e-05
1.66605e-06
2.25728e-05
1.72843e-06
1.93462e-06
3.97636e-05
4.00582e-05
3.79546e-05
4.01955e-05
1.58637e-05
1.73493e-05
1.88392e-05
4.02466e-05
2.21044e-05
2.04107e-05
3.89435e-05
2.36053e-05
3.93694e-05
4.02036e-05
4.00639e-05
3.9177e-05
3.99483e-05
4.01621e-05
4.02156e-05
4.00359e-05
4.01828e-05
3.59738e-05
4.00095e-05
2.77821e-05
4.01977e-05
4.01877e-05
3.94245e-05
3.92135e-05
3.90479e-05
4.01994e-05
3.78759e-05
3.96018e-05
4.01374e-05
3.96909e-05
4.00499e-05
4.01927e-05
4.00469e-05
2.53326e-05
4.00222e-05
4.01826e-05
3.81442e-05
4.01262e-05
4.0242e-05
2.13066e-05
4.00783e-05
4.01228e-05
4.01659e-05
4.01907e-05
3.97356e-05
2.06867e-06
4.02044e-05
2.45953e-06
4.01947e-05
3.88406e-05
2.68206e-05
2.23873e-05
3.94901e-05
4.01909e-05
4.00664e-05
4.02428e-05
4.01372e-05
4.0212e-05
4.02008e-05
4.02196e-05
4.02415e-05
4.01717e-05
3.96696e-05
4.02164e-05
3.99347e-05
4.01494e-05
3.96849e-05
2.3887e-05
4.006e-05
4.01784e-05
3.52567e-05
4.00718e-05
4.01717e-05
3.80372e-05
3.92816e-05
3.48596e-05
4.00714e-05
4.02027e-05
3.97602e-05
4.0218e-05
4.01166e-05
4.00741e-05
3.95601e-05
4.0215e-05
3.92787e-05
4.00631e-05
3.98794e-05
4.02468e-05
4.00719e-05
4.01585e-05
2.34473e-06
2.09533e-06
4.01157e-05
3.91703e-05
4.0078e-05
3.91084e-05
4.02324e-05
4.02293e-05
4.00447e-05
4.01059e-05
2.3349e-05
4.02203e-05
4.0056e-05
4.02216e-05
4.02385e-05
4.00303e-05
4.02439e-05
4.01952e-05
4.01721e-05
4.01978e-05
4.01871e-05
4.00393e-05
4.00541e-05
4.0228e-05
4.01904e-05
4.02001e-05
4.02373e-05
4.00636e-05
4.00961e-05
4.01511e-05
4.01985e-05
4.01681e-05
4.01364e-05
4.01214e-05
4.00707e-05
4.02352e-05
4.00198e-05
4.01413e-05
3.87904e-05
4.02468e-05
3.95756e-05
4.01874e-05
4.00307e-05
3.95675e-05
3.96104e-05
4.01831e-05
2.6933e-05
4.02021e-05
3.94661e-05
4.006e-05
4.02026e-05
4.0034e-05
4.02476e-05
4.01292e-05
4.02118e-05
4.01779e-05
4.02305e-05
4.0027e-05
4.02225e-05
3.92614e-05
3.97168e-05
4.02189e-05
4.02149e-05
4.01401e-05
3.96393e-05
4.00723e-05
4.0086e-05
4.02325e-05
3.89584e-05
3.9962e-05
4.02478e-05
4.01677e-05
4.01268e-05
4.01273e-05
4.0038e-05
4.00627e-05
4.0251e-05
4.0203e-05
4.00778e-05
4.0212e-05
4.00355e-05
4.00996e-05
4.02451e-05
3.9466e-05
2.09055e-06
4.01985e-05
3.95585e-05
4.00851e-05
4.01987e-05
4.0046e-05
4.02049e-05
4.01984e-05
4.02086e-05
4.01368e-05
3.99996e-05
4.01166e-05
3.8704e-05
4.02524e-05
4.02112e-05
4.02186e-05
3.99594e-05
4.01829e-05
4.00711e-05
4.02419e-05
4.02212e-05
4.02716e-05
4.00044e-05
4.02307e-05
4.00435e-05
4.01005e-05
4.02265e-05
3.92634e-05
2.5097e-06
4.01198e-05
4.01401e-05
3.93849e-05
3.98108e-05
4.01892e-05
3.9255e-05
4.01635e-05
4.0053e-05
4.00526e-05
4.02405e-05
4.00413e-05
4.02419e-05
4.01307e-05
3.98696e-05
2.31833e-05
3.97144e-05
3.97212e-05
4.00814e-05
4.01813e-05
4.02415e-05
4.02491e-05
4.02432e-05
4.00688e-05
4.01827e-05
4.02584e-05
3.96856e-05
4.02697e-05
3.97259e-05
4.02332e-05
4.02652e-05
4.01535e-05
4.01596e-05
4.00459e-05
4.02367e-05
4.02212e-05
4.01901e-05
4.02694e-05
4.00155e-05
4.00894e-05
4.00819e-05
4.02448e-05
4.02296e-05
4.00803e-05
4.01862e-05
4.02177e-05
4.01631e-05
2.18496e-05
4.02445e-05
3.99726e-05
3.99331e-05
4.01735e-05
4.01999e-05
4.02206e-05
4.02427e-05
3.9778e-05
4.0257e-05
4.00586e-05
4.00215e-05
4.00732e-05
4.01123e-05
4.01458e-05
4.01372e-05
4.02205e-05
4.00288e-05
4.02602e-05
4.01618e-05
4.01565e-05
4.02393e-05
3.99322e-05
4.00986e-05
4.01408e-05
4.01798e-05
4.02711e-05
4.025e-05
4.01158e-05
4.00275e-05
4.02023e-05
4.00618e-05
4.0186e-05
4.02672e-05
4.00361e-05
4.00191e-05
4.01612e-05
4.0078e-05
3.99515e-05
4.00057e-05
4.00801e-05
4.02716e-05
4.02256e-05
4.01805e-05
3.9597e-05
3.99694e-05
4.00629e-05
2.79042e-06
2.50069e-06
4.01852e-05
4.02417e-05
4.00267e-05
3.97259e-05
3.96342e-05
2.97776e-06
4.01515e-05
4.01296e-05
4.02487e-05
4.00802e-05
4.00389e-05
4.01486e-05
3.99332e-05
3.95525e-05
4.01463e-05
3.9527e-05
3.95861e-05
3.96994e-05
4.02463e-05
4.02475e-05
3.95361e-05
3.99995e-05
4.00049e-05
3.9942e-05
4.02592e-05
3.96628e-05
3.94178e-05
4.02379e-05
4.0217e-05
4.00215e-05
3.46752e-05
4.02326e-05
3.98428e-05
4.00995e-05
3.95851e-05
4.02252e-05
3.94821e-05
3.97787e-05
4.02499e-05
3.94625e-05
3.973e-05
4.00568e-05
4.02022e-05
4.015e-05
3.88759e-05
3.94564e-05
3.96416e-05
3.96825e-05
4.02521e-05
4.00182e-05
4.00773e-05
3.97914e-05
3.97107e-05
4.00353e-05
3.99876e-05
3.99596e-05
3.99732e-05
3.95673e-05
3.97484e-05
3.93701e-05
3.45698e-06
4.0221e-05
4.00355e-05
4.01432e-05
3.2553e-06
2.92626e-06
3.97696e-05
2.83835e-06
2.53741e-06
3.99573e-05
3.89507e-05
4.02232e-05
4.02265e-05
4.00033e-05
4.0221e-05
3.98276e-05
3.9989e-05
4.01141e-05
4.0203e-05
3.98041e-05
4.02431e-05
3.99908e-05
4.00159e-05
3.98382e-05
3.98874e-05
3.36756e-06
3.73532e-06
2.18414e-05
3.98781e-05
3.96553e-05
4.0094e-05
3.98053e-05
3.99086e-05
3.99054e-05
4.02381e-05
4.01063e-05
3.8754e-05
3.97323e-05
3.90113e-05
3.98509e-05
4.03482e-05
3.97602e-05
4.01493e-05
3.99512e-05
3.56464e-06
3.99967e-05
3.89309e-05
3.98251e-05
3.9699e-05
3.98755e-05
3.97721e-05
3.94266e-06
4.00366e-05
4.01877e-05
3.92797e-05
3.98745e-05
4.22564e-06
3.81915e-06
3.93833e-05
3.98579e-05
1.95432e-06
1.72954e-06
2.17541e-05
4.02274e-05
3.95575e-05
3.98662e-05
4.43464e-06
3.93474e-05
4.02233e-05
3.9526e-05
4.00167e-05
3.99639e-05
4.27597e-06
4.72121e-06
4.00845e-05
4.92962e-06
3.97563e-05
3.9783e-05
3.93906e-05
3.97841e-05
5.06503e-06
5.42513e-06
4.00402e-05
5.22208e-06
4.73814e-06
4.01952e-05
5.92268e-06
5.2018e-06
5.72449e-06
4.87966e-06
5.37577e-06
3.90701e-05
6.4207e-06
4.0212e-05
5.66518e-06
6.22663e-06
6.55717e-06
6.9169e-06
2.20672e-05
6.12983e-06
6.73008e-06
7.41361e-06
2.43723e-05
7.23089e-06
6.59195e-06
7.91094e-06
7.73121e-06
7.05378e-06
8.04801e-06
8.4087e-06
8.22906e-06
7.51295e-06
8.90577e-06
9.40361e-06
7.97572e-06
8.73035e-06
9.54171e-06
8.43912e-06
9.23246e-06
9.9012e-06
8.12684e-06
8.89379e-06
1.03979e-05
9.73537e-06
8.9035e-06
1.08956e-05
9.36959e-06
1.02402e-05
1.13942e-05
1.10335e-05
1.07454e-05
9.83591e-06
1.03975e-05
9.51466e-06
1.18921e-05
1.03014e-05
1.12496e-05
1.17535e-05
1.07665e-05
1.23887e-05
1.22551e-05
1.12293e-05
1.28828e-05
1.27566e-05
1.1692e-05
1.33816e-05
1.21553e-05
1.32583e-05
1.20262e-05
6.55974e-06
2.32677e-05
2.37805e-05
2.23808e-05
2.0135e-05
2.17207e-05
2.77644e-06
2.48696e-06
1.12182e-05
1.2243e-05
6.21737e-06
5.65714e-06
1.35232e-05
2.22044e-05
2.06518e-05
9.54125e-06
1.99393e-05
1.26195e-05
2.3238e-05
1.37617e-05
3.61074e-06
2.40146e-05
1.70411e-05
1.55441e-05
9.44351e-07
8.04849e-07
2.12009e-05
2.20002e-06
1.10313e-05
1.07344e-05
9.82576e-06
2.03155e-05
1.87195e-05
2.17765e-05
1.38774e-05
1.77618e-05
1.63215e-05
2.88292e-05
1.92735e-05
1.77537e-05
6.58095e-06
8.04819e-06
9.22767e-06
8.43577e-06
7.21862e-06
1.37519e-05
1.26114e-05
2.27164e-05
4.23225e-06
3.82704e-06
2.136e-05
5.07629e-06
2.36766e-05
2.61346e-05
5.2209e-06
4.73814e-06
2.62301e-05
1.84819e-06
1.63389e-06
2.45686e-05
8.22122e-06
7.50613e-06
2.78593e-05
2.13325e-05
1.7763e-05
1.85319e-05
1.92838e-05
1.87826e-05
1.72895e-05
2.16133e-05
1.63028e-05
1.49689e-05
1.97918e-05
1.93476e-05
1.30203e-05
2.08193e-05
2.03051e-05
2.45195e-05
1.88419e-05
1.82329e-05
1.73611e-05
1.30832e-05
1.50067e-05
2.39466e-05
1.91724e-05
1.40125e-05
1.5873e-05
1.87037e-05
2.08974e-05
1.68649e-05
1.63669e-05
2.14494e-05
1.96312e-05
1.35476e-05
1.52691e-05
1.47662e-05
1.83507e-05
1.57728e-05
1.62754e-05
1.42635e-05
1.54049e-05
1.9483e-05
1.68148e-05
1.44777e-05
1.78542e-05
2.03711e-05
1.53739e-05
2.35185e-05
2.31681e-05
1.40126e-05
2.18653e-05
1.98607e-05
2.117e-05
1.67776e-05
1.64968e-05
1.47535e-05
1.35355e-05
1.72791e-05
2.18356e-05
1.58703e-05
1.79748e-05
2.3196e-05
1.82812e-05
1.62576e-05
1.49221e-05
1.4941e-05
2.35693e-05
1.43762e-05
1.63424e-05
2.27722e-05
1.48749e-05
2.19647e-05
2.01303e-05
2.45925e-05
2.23199e-05
2.14347e-05
1.77795e-05
2.38342e-05
2.23111e-05
2.38866e-05
2.28718e-05
2.19893e-05
2.00828e-05
3.97436e-05
2.07271e-05
2.09216e-05
2.0505e-05
2.10257e-05
3.99253e-05
4.00442e-05
3.98936e-05
2.27292e-05
4.00513e-05
4.02206e-05
3.98481e-05
1.97826e-05
3.98785e-05
3.98294e-05
4.01893e-05
4.00117e-05
4.00803e-05
2.34456e-05
3.9592e-05
2.08417e-05
3.9818e-05
3.99416e-05
3.98745e-05
3.95216e-05
3.969e-05
3.84653e-05
2.02565e-05
2.31161e-05
3.98693e-05
3.9704e-05
2.31735e-05
3.99187e-05
3.98063e-05
2.0386e-05
3.99536e-05
3.97253e-05
4.02226e-05
4.02189e-05
4.02265e-05
3.99926e-05
3.97947e-05
4.00364e-05
4.00255e-05
3.81222e-05
3.97925e-05
3.97589e-05
4.00332e-05
3.88965e-05
1.81696e-05
1.67135e-05
3.99671e-05
4.0059e-05
4.02803e-05
4.01951e-05
2.24984e-05
3.97187e-05
4.01528e-05
3.97058e-05
3.96427e-05
4.02387e-05
3.90667e-05
3.99956e-05
3.96289e-05
3.99311e-05
3.99377e-05
3.96681e-05
3.99478e-05
3.93702e-05
4.02007e-05
3.99744e-05
4.01109e-05
3.99096e-05
3.97462e-05
3.96385e-05
3.99074e-05
4.00027e-05
3.98981e-05
4.0057e-05
4.0129e-05
4.00264e-05
4.0067e-05
4.0091e-05
4.00133e-05
3.93737e-05
3.98968e-05
4.00483e-05
3.99885e-05
2.07756e-05
1.9175e-05
4.00859e-05
3.99679e-05
3.9612e-05
3.99181e-05
3.99469e-05
4.0062e-05
4.00839e-05
4.01395e-05
3.99236e-05
4.0085e-05
2.04616e-05
3.99025e-05
4.01955e-05
3.98648e-05
4.01188e-05
3.92794e-05
4.02272e-05
3.93121e-05
3.99441e-05
4.00318e-05
3.97508e-05
3.98577e-05
4.02117e-05
3.96352e-05
3.96365e-05
4.00407e-05
4.02036e-05
3.99189e-05
4.01778e-05
4.0206e-05
4.02413e-05
2.50035e-05
4.01819e-05
4.02538e-05
4.02422e-05
4.01004e-05
4.00148e-05
3.99862e-05
4.00473e-05
4.00636e-05
4.02469e-05
4.02034e-05
4.00919e-05
3.99776e-05
4.00263e-05
4.02569e-05
4.02341e-05
4.02226e-05
4.02052e-05
3.99235e-05
4.0238e-05
4.02033e-05
4.02291e-05
3.99119e-05
3.96216e-05
4.00153e-05
4.00422e-05
1.66587e-05
1.53006e-05
4.01946e-05
4.02393e-05
4.00287e-05
3.99942e-05
3.9871e-05
4.00681e-05
2.04425e-05
1.88393e-05
4.0077e-05
3.90258e-05
3.9957e-05
2.4422e-05
4.02038e-05
3.99609e-05
2.12579e-05
1.96576e-05
9.35055e-07
4.00532e-05
3.99404e-05
3.99753e-05
4.02477e-05
4.02363e-05
4.00366e-05
4.00455e-05
4.02278e-05
4.00796e-05
4.01951e-05
3.99611e-05
4.01387e-05
4.01943e-05
3.95169e-05
4.00575e-05
4.00771e-05
4.0044e-05
3.99833e-05
4.02378e-05
4.00594e-05
4.00509e-05
4.01344e-05
4.01561e-05
4.0063e-05
4.022e-05
4.02356e-05
4.02335e-05
3.97084e-05
4.02312e-05
3.96431e-05
4.02426e-05
4.02022e-05
3.93965e-05
3.91696e-05
4.02049e-05
4.02465e-05
4.00448e-05
4.00568e-05
4.01583e-05
3.99444e-05
4.02393e-05
3.95662e-05
4.01082e-05
4.00936e-05
3.9968e-05
3.96749e-05
4.02055e-05
4.00587e-05
4.02439e-05
4.0098e-05
1.98066e-05
1.8237e-05
3.99698e-05
4.00695e-05
4.01718e-05
1.51533e-05
1.3905e-05
3.94067e-05
1.94849e-05
3.99636e-05
4.01414e-05
4.02415e-05
4.00233e-05
4.00898e-05
4.02348e-05
4.01754e-05
3.99408e-05
4.01669e-05
3.99509e-05
4.0219e-05
4.00969e-05
4.00942e-05
1.99655e-05
4.00712e-05
4.01899e-05
4.00329e-05
4.02474e-05
3.94513e-05
4.00808e-05
4.00782e-05
4.02583e-05
4.00016e-05
3.90608e-05
4.00011e-05
3.88105e-05
3.99115e-05
4.00404e-05
4.0105e-05
4.01212e-05
4.0122e-05
4.01955e-05
4.0127e-05
4.01402e-05
3.98167e-05
4.00709e-05
3.98682e-05
4.01916e-05
4.02342e-05
4.02505e-05
4.00244e-05
4.02437e-05
4.02356e-05
4.01204e-05
4.00657e-05
4.02613e-05
4.01466e-05
4.00534e-05
4.0246e-05
4.00218e-05
3.99744e-05
2.15678e-05
4.02235e-05
4.02113e-05
4.01696e-05
4.02396e-05
4.02097e-05
3.99397e-05
4.00259e-05
3.99822e-05
4.02278e-05
4.01645e-05
4.02101e-05
3.97249e-05
4.02295e-05
3.98854e-05
4.01908e-05
4.00896e-05
4.0224e-05
4.02109e-05
4.02091e-05
4.00376e-05
4.00401e-05
4.00474e-05
4.02276e-05
4.00549e-05
4.00593e-05
3.98248e-05
3.95387e-05
4.02158e-05
4.01908e-05
4.00662e-05
4.01634e-05
3.9945e-05
3.91738e-05
1.94371e-05
1.78998e-05
4.01126e-05
4.01388e-05
1.8988e-05
4.01132e-05
3.98621e-05
4.02522e-05
4.001e-05
4.02449e-05
4.01028e-05
4.01548e-05
4.00849e-05
2.09447e-05
1.93115e-05
4.02562e-05
4.02293e-05
4.01589e-05
4.00891e-05
4.02324e-05
4.01734e-05
4.00889e-05
4.01412e-05
4.00846e-05
4.01053e-05
4.00847e-05
1.94751e-05
4.00707e-05
4.01115e-05
4.00986e-05
4.02267e-05
4.00086e-05
4.02477e-05
3.92794e-05
4.02247e-05
4.0111e-05
2.79241e-05
4.02442e-05
4.00211e-05
4.02483e-05
4.00928e-05
4.0053e-05
3.96587e-05
4.02519e-05
4.02384e-05
3.99924e-05
4.02595e-05
3.94523e-05
4.02251e-05
4.00971e-05
4.0034e-05
4.01031e-05
4.00318e-05
4.02313e-05
4.02202e-05
4.01737e-05
3.98756e-05
4.0043e-05
4.02149e-05
4.025e-05
4.00835e-05
3.94126e-05
3.99961e-05
4.02625e-05
4.00942e-05
3.97663e-05
4.00668e-05
4.02406e-05
4.0253e-05
4.02339e-05
4.02556e-05
4.02121e-05
3.99802e-05
4.00795e-05
4.02328e-05
4.0088e-05
4.02529e-05
4.02567e-05
4.02222e-05
4.00254e-05
4.01249e-05
4.02322e-05
4.02472e-05
4.02566e-05
4.02574e-05
4.00781e-05
4.00408e-05
4.00661e-05
3.99706e-05
4.02431e-05
4.0167e-05
4.02225e-05
4.02255e-05
4.01269e-05
3.9993e-05
4.01042e-05
4.01694e-05
3.99396e-05
4.01344e-05
1.88151e-05
1.73088e-05
4.02198e-05
4.02078e-05
4.00721e-05
1.98712e-05
4.0019e-05
4.02006e-05
1.26447e-05
1.1589e-05
4.02129e-05
4.00566e-05
4.02275e-05
4.01503e-05
4.01388e-05
4.02119e-05
4.00227e-05
4.01216e-05
4.01012e-05
4.00804e-05
4.00189e-05
4.01155e-05
4.01873e-05
4.00843e-05
3.99907e-05
4.00108e-05
4.02497e-05
3.95327e-05
4.01327e-05
3.98208e-05
3.97698e-05
3.93394e-05
4.0043e-05
3.97922e-05
4.02092e-05
4.00563e-05
3.9809e-05
3.94065e-05
4.00944e-05
4.00608e-05
4.02462e-05
4.021e-05
4.01508e-05
3.95618e-05
4.00393e-05
4.01036e-05
4.02529e-05
4.02178e-05
4.00701e-05
4.02116e-05
4.00893e-05
4.01856e-05
4.02092e-05
3.99227e-05
3.99212e-05
4.02084e-05
3.92906e-05
4.00818e-05
4.01202e-05
3.97836e-05
3.91919e-05
3.99295e-05
3.96304e-06
3.96068e-05
4.02593e-05
4.02122e-05
1.84319e-05
1.69556e-05
4.02496e-05
1.80382e-05
4.01759e-05
3.93116e-05
4.01299e-05
4.01541e-05
4.02466e-05
4.00867e-05
4.00705e-05
2.0296e-05
1.87048e-05
4.01152e-05
4.00775e-05
1.11357e-05
1.01959e-05
4.01829e-05
4.02264e-05
4.00814e-05
3.91263e-05
4.01903e-05
4.01641e-05
3.94203e-05
4.01891e-05
4.0256e-05
1.90147e-05
3.93781e-05
4.00929e-05
4.018e-05
4.02319e-05
1.83454e-05
4.01874e-05
5.43637e-06
4.02513e-05
3.95738e-05
3.99661e-05
4.0224e-05
4.01243e-05
3.99401e-05
4.00234e-05
4.02168e-05
4.02067e-05
4.01981e-05
4.01911e-05
3.97884e-05
4.01758e-05
4.01948e-05
4.02298e-05
4.01784e-05
4.00619e-05
4.02301e-05
4.01375e-05
6.92276e-06
4.01368e-05
4.0008e-05
4.02424e-05
4.00689e-05
4.02498e-05
1.78108e-05
1.63722e-05
1.75057e-05
4.02039e-05
4.0179e-05
4.01301e-05
2.52759e-06
4.00348e-05
4.02432e-05
4.02378e-05
4.00996e-05
9.63257e-06
8.80889e-06
4.02496e-05
4.02264e-05
8.41225e-06
4.0188e-05
4.00522e-05
4.02298e-05
-1.21579e-07
-1.53965e-07
-1.32314e-07
4.01033e-05
4.02426e-05
4.02102e-05
3.94926e-05
4.00925e-05
4.00168e-05
4.02047e-05
3.96181e-05
2.50694e-05
4.00074e-05
3.99702e-05
1.68627e-05
4.00042e-05
3.90861e-05
4.00517e-05
4.02233e-05
4.01995e-05
4.02273e-05
3.97272e-05
4.00647e-05
1.15704e-06
1.04858e-06
9.90425e-06
4.01008e-05
4.00643e-05
2.57572e-05
4.01416e-05
4.00591e-05
4.01919e-05
4.02257e-05
4.01845e-05
1.74247e-05
1.60133e-05
4.01587e-05
4.02097e-05
4.01419e-05
4.01954e-05
4.01657e-05
4.00959e-05
4.01687e-05
1.99395e-05
1.83685e-05
4.00179e-05
4.01283e-05
4.01863e-05
4.02477e-05
4.01492e-05
4.02518e-05
4.02185e-05
4.01999e-05
4.00677e-05
3.96486e-05
4.02428e-05
4.02192e-05
3.99822e-05
4.00494e-05
4.00415e-05
4.01595e-05
4.0029e-05
1.53756e-05
4.02535e-05
2.83068e-06
3.15041e-06
4.01358e-05
1.6542e-05
1.68071e-05
1.54365e-05
3.99806e-05
4.01942e-05
3.97959e-05
4.01252e-05
4.02058e-05
4.01546e-05
4.00112e-05
4.01765e-05
4.01683e-05
4.02614e-05
3.98588e-05
4.02445e-05
4.00371e-05
4.02004e-05
1.84974e-05
4.0112e-05
3.94824e-05
4.02063e-05
3.98649e-05
4.02446e-05
4.00504e-05
3.99261e-05
4.01647e-05
4.02164e-05
1.47702e-06
1.28548e-06
3.95575e-05
1.60128e-05
3.9723e-05
4.01717e-05
4.02566e-05
4.00303e-05
4.00992e-05
4.01031e-05
4.02121e-05
4.0252e-05
1.93172e-05
1.77771e-05
1.80049e-05
4.0045e-05
4.0252e-05
4.01758e-05
4.02546e-05
3.94579e-05
4.0213e-05
4.01801e-05
4.02519e-05
4.00923e-05
4.00822e-05
4.00787e-05
3.94462e-05
1.59178e-05
1.46104e-05
4.02478e-05
4.02058e-05
4.02073e-05
4.01588e-05
4.00976e-05
4.00591e-05
4.0172e-05
4.02609e-05
4.02149e-05
4.02079e-05
4.00158e-05
4.02112e-05
4.00962e-05
1.5046e-05
4.01871e-05
1.52954e-05
1.40365e-05
4.00483e-05
3.93784e-05
4.00533e-05
4.02005e-05
4.02657e-05
4.02517e-05
4.00933e-05
1.89356e-05
1.74287e-05
1.75395e-05
4.02011e-05
4.01954e-05
1.45186e-05
1.49121e-05
1.36821e-05
3.97048e-05
4.00916e-05
4.0044e-05
4.00484e-05
4.0072e-05
4.01306e-05
4.0205e-05
4.01274e-05
4.01995e-05
3.90209e-05
1.40527e-05
4.00161e-05
4.02529e-05
4.02065e-05
1.42884e-05
1.31056e-05
4.02351e-05
4.02081e-05
4.02081e-05
1.83158e-05
1.6843e-05
3.89488e-05
4.00841e-05
3.88675e-05
4.00484e-05
3.90676e-05
3.91433e-05
3.96589e-05
4.02589e-05
1.3907e-05
1.27538e-05
2.38125e-05
1.70067e-05
3.90999e-05
4.0244e-05
1.30288e-05
1.32842e-05
1.21786e-05
1.91209e-05
2.07396e-05
2.04791e-05
2.23084e-05
1.65097e-05
1.79292e-05
1.64831e-05
4.02481e-05
3.96742e-05
4.00926e-05
2.33445e-05
4.00517e-05
4.02215e-05
1.25606e-05
1.29028e-05
1.1827e-05
4.0254e-05
4.0186e-05
4.01803e-05
3.67668e-05
2.92395e-05
4.02595e-05
4.00401e-05
4.02541e-05
1.45758e-06
1.20291e-05
4.0066e-05
1.22818e-05
1.12538e-05
4.01808e-05
3.91855e-05
4.02068e-05
1.60422e-05
1.73098e-05
1.59046e-05
1.15661e-05
3.79039e-05
1.18985e-05
1.09001e-05
3.98874e-05
4.00582e-05
4.01128e-05
4.00565e-05
3.93442e-05
4.00697e-05
4.025e-05
4.01912e-05
4.02124e-05
1.12774e-05
1.03269e-05
3.99811e-05
4.00782e-05
2.99286e-05
4.02578e-05
1.69206e-05
1.55442e-05
3.98571e-05
3.74165e-05
1.05377e-05
1.08936e-05
9.9726e-06
4.00208e-05
4.02335e-05
4.02603e-05
4.02326e-05
4.02587e-05
4.00126e-05
3.89923e-05
3.99125e-05
4.00816e-05
1.55146e-05
4.01045e-05
4.02547e-05
1.00739e-05
4.02599e-05
4.01968e-05
1.31888e-06
4.00752e-05
4.01024e-05
4.00522e-05
4.01211e-05
4.00856e-05
4.0088e-05
2.39217e-05
1.50162e-05
4.02392e-05
4.01937e-05
1.64132e-05
1.50716e-05
3.89057e-05
4.02186e-05
4.01672e-05
4.02369e-05
9.76547e-06
8.9312e-06
4.01717e-05
4.00504e-05
4.02397e-05
4.02154e-05
4.00622e-05
4.01079e-05
4.01337e-05
4.0105e-05
4.02507e-05
9.04655e-06
3.97566e-05
2.71874e-05
9.39072e-06
8.58564e-06
2.40191e-05
4.00898e-05
3.23935e-05
4.00592e-05
3.93124e-05
3.93037e-05
1.45477e-05
8.58082e-06
1.58089e-05
1.45132e-05
3.76552e-05
4.02581e-05
3.9793e-05
4.02148e-05
4.00587e-05
4.02082e-05
8.25473e-06
7.53636e-06
4.00603e-05
3.97002e-05
4.01163e-05
4.02547e-05
4.0074e-05
7.55373e-06
4.00383e-05
1.40195e-05
7.88126e-06
7.19197e-06
1.54166e-05
1.4148e-05
4.00581e-05
4.02483e-05
4.02411e-05
4.0145e-05
7.08842e-06
4.01951e-05
7.25296e-06
6.61156e-06
4.00852e-05
4.00593e-05
4.02366e-05
4.01099e-05
4.00756e-05
6.87589e-06
6.26411e-06
1.47929e-05
1.35716e-05
4.01237e-05
4.00657e-05
4.00506e-05
4.02574e-05
6.0616e-06
4.01889e-05
6.2491e-06
5.68551e-06
4.0164e-05
1.35543e-05
4.01329e-05
4.02081e-05
4.0211e-05
4.00789e-05
4.01402e-05
4.02542e-05
5.59034e-06
5.87205e-06
5.3378e-06
4.02172e-05
1.3055e-05
3.99864e-05
4.02247e-05
1.44093e-05
1.32177e-05
4.01134e-05
4.00742e-05
4.00643e-05
4.56782e-06
3.99043e-05
4.72383e-06
4.27632e-06
1.25274e-05
1.37899e-05
1.26455e-05
1.95917e-05
2.12769e-05
4.01143e-05
4.35718e-06
3.93894e-06
3.98704e-05
4.08081e-06
3.95411e-05
4.02132e-05
2.08648e-05
2.27424e-05
4.01461e-05
2.57866e-05
3.83314e-05
3.9274e-05
3.69517e-06
3.32393e-06
2.35144e-05
3.54938e-05
4.02057e-05
4.00393e-05
4.01083e-05
4.00702e-05
1.20615e-05
1.90114e-06
1.6801e-06
4.01137e-05
1.34054e-05
1.22908e-05
3.33697e-06
2.99668e-06
4.02132e-05
4.00336e-05
4.00689e-05
4.00662e-05
4.02098e-05
3.0652e-06
1.15302e-05
4.00892e-05
4.01119e-05
1.2786e-05
1.1719e-05
4.02603e-05
4.01179e-05
4.01957e-05
4.01811e-05
2.05655e-06
1.80183e-06
4.00198e-05
4.0125e-05
4.01715e-05
4.01368e-05
4.01355e-05
4.01965e-05
4.00549e-05
1.24013e-05
1.13642e-05
3.97418e-05
4.02159e-05
4.01107e-05
3.84916e-05
3.95623e-05
1.1068e-05
4.022e-05
4.02625e-05
1.05676e-05
2.37487e-05
2.51469e-06
2.27311e-05
1.17814e-05
1.07921e-05
4.01748e-05
8.11172e-07
4.02426e-05
3.73863e-05
3.99698e-05
3.83256e-05
4.02643e-05
1.00383e-05
4.01107e-05
1.13959e-05
1.04362e-05
4.00752e-05
2.26615e-05
4.00811e-05
1.0773e-05
9.86102e-06
3.92167e-05
3.52246e-05
4.00895e-05
9.57647e-06
4.01041e-05
9.0751e-06
4.57415e-07
2.69952e-07
3.99948e-05
4.00785e-05
1.02785e-05
9.40587e-06
4.01766e-05
4.00882e-05
4.01155e-05
4.00713e-05
4.00826e-05
4.02489e-05
8.54543e-06
4.01572e-05
9.89566e-06
9.05173e-06
3.87356e-05
4.02517e-05
4.02176e-05
4.02192e-05
4.02019e-05
4.01934e-05
4.01987e-05
9.26038e-06
8.46434e-06
4.01547e-05
8.08275e-06
4.01032e-05
4.02245e-05
1.25251e-06
7.58276e-06
3.98075e-05
8.77007e-06
8.0135e-06
3.97552e-05
3.92175e-05
3.99133e-05
4.02235e-05
4.02178e-05
4.01958e-05
4.00941e-05
7.05484e-06
3.9962e-05
3.95081e-05
8.38792e-06
7.65978e-06
3.74227e-05
4.33499e-05
3.98973e-05
4.02237e-05
3.97602e-05
4.01309e-05
7.75565e-06
7.07543e-06
4.01573e-05
3.97462e-05
6.58916e-06
4.00728e-05
3.98521e-05
3.98646e-05
6.08607e-06
7.3777e-06
6.72715e-06
2.37345e-05
3.99746e-05
3.99467e-05
4.01294e-05
3.9853e-05
4.02036e-05
2.23907e-05
3.11999e-05
4.02147e-05
4.01094e-05
5.56235e-06
6.75535e-06
6.15272e-06
4.01393e-05
4.01117e-05
4.02446e-05
4.02578e-05
4.0119e-05
4.00412e-05
4.01213e-05
6.37436e-06
5.80132e-06
3.83158e-05
3.53354e-05
5.0906e-06
3.91174e-05
3.99858e-05
3.99099e-05
4.02165e-05
3.10999e-05
4.58246e-06
4.01636e-05
5.7437e-06
5.21859e-06
3.98919e-05
4.02214e-05
4.06586e-06
5.24822e-06
4.7626e-06
4.00319e-05
3.02043e-05
3.77471e-05
4.00956e-05
4.00978e-05
4.02366e-05
4.86872e-06
4.41143e-06
2.14653e-05
4.0157e-05
3.99076e-05
4.01319e-05
4.00846e-05
3.56828e-06
3.98459e-05
4.21335e-06
3.80364e-06
4.02254e-05
4.00982e-05
3.045e-06
3.99314e-05
4.01738e-05
2.59076e-05
3.84592e-06
3.46651e-06
4.0159e-05
4.01224e-05
3.99027e-05
2.56872e-06
3.984e-05
8.08881e-07
7.85725e-07
8.97288e-07
3.97917e-05
3.17555e-06
2.84298e-06
2.09391e-05
4.01097e-05
3.99833e-05
4.01433e-05
3.98243e-05
4.01078e-05
4.01027e-05
4.00681e-05
2.64767e-06
2.35494e-06
4.00626e-05
3.8708e-05
4.00299e-05
3.211e-05
2.34707e-06
2.08601e-06
4.00224e-05
4.01038e-05
2.40482e-05
4.00792e-05
4.0067e-05
4.00629e-05
3.98619e-05
2.78347e-05
3.99088e-05
3.53696e-05
4.00888e-05
2.23171e-05
4.02141e-05
4.00926e-05
3.99329e-05
4.02619e-05
3.82534e-05
3.69515e-05
3.78089e-05
3.48965e-05
3.98467e-05
4.02202e-05
1.97273e-06
4.00535e-05
4.00628e-05
1.55064e-06
1.33827e-06
2.40008e-05
7.92989e-07
4.01459e-05
3.68106e-05
4.01837e-05
3.98111e-05
4.01928e-05
3.99999e-05
3.81915e-05
2.29573e-05
4.02566e-05
3.99772e-05
3.96348e-05
3.94297e-05
4.00864e-05
4.02067e-05
4.0242e-05
2.58909e-05
1.35502e-06
2.50799e-05
3.85891e-05
3.99831e-05
1.01515e-06
4.03436e-07
5.40893e-07
4.01908e-05
4.02351e-05
3.99946e-05
4.02409e-05
3.98347e-05
2.36062e-05
1.33981e-06
1.40764e-06
1.23809e-06