/*--------------------------------*- C++ -*----------------------------------*\
  =========                 |
  \\      /  F ield         | OpenFOAM: The Open Source CFD Toolbox
   \\    /   O peration     | Website:  https://openfoam.org
    \\  /    A nd           | Version:  8
     \\/     M anipulation  |
\*---------------------------------------------------------------------------*/
FoamFile
{
    version     2.0;
    format      ascii;
    class       volScalarField;
    location    "9";
    object      p;
}
// * * * * * * * * * * * * * * * * * * * * * * * * * * * * * * * * * * * * * //

dimensions      [0 2 -2 0 0 0 0];

internalField   nonuniform List<scalar> 
5490
(
4.55055e-06
4.87304e-06
3.79966e-06
4.63359e-06
6.6286e-07
8.82111e-06
9.19119e-06
9.16391e-06
3.18492e-06
9.12823e-06
3.55533e-06
3.5843e-06
2.74406e-06
3.31241e-06
3.0889e-06
9.12816e-06
9.19389e-06
8.92248e-06
4.71215e-06
3.2804e-06
2.68434e-06
9.19223e-06
8.86683e-06
9.19236e-06
2.56854e-06
2.5008e-06
2.82896e-06
4.46283e-06
8.64166e-06
1.55376e-06
4.29317e-06
9.1802e-06
6.75023e-06
5.61704e-06
1.91165e-06
4.42351e-06
8.54214e-06
4.71067e-06
1.02426e-06
2.29812e-06
4.55153e-06
8.59178e-06
3.711e-06
8.60474e-06
8.95758e-06
5.84274e-06
1.46141e-06
1.11749e-06
4.69682e-06
7.69577e-06
9.10643e-06
1.64621e-06
2.004e-06
8.32444e-07
2.66024e-06
5.59017e-06
8.05385e-06
9.15915e-06
3.17519e-06
1.63886e-06
8.62121e-06
2.80882e-07
5.51427e-06
9.17371e-06
9.19279e-06
9.03266e-06
9.11699e-06
8.48398e-06
1.37023e-06
8.99901e-06
1.01507e-06
2.26526e-06
9.15036e-06
9.17338e-06
9.10295e-06
2.03447e-06
8.81121e-06
2.7514e-07
5.00567e-06
3.80369e-06
8.58947e-06
7.84914e-06
8.77506e-06
4.80732e-06
6.89652e-07
5.38454e-06
8.95838e-06
8.89027e-06
2.09632e-06
8.51821e-06
9.12834e-06
8.78407e-06
8.87055e-07
9.07451e-06
4.53271e-06
9.13736e-06
3.34314e-06
8.72972e-06
8.44938e-06
2.74253e-06
3.43125e-06
2.11999e-06
6.01943e-06
9.14441e-06
5.73112e-06
5.48865e-06
2.0904e-06
8.4516e-06
9.17966e-06
9.18227e-06
9.14759e-06
9.17123e-06
9.00444e-06
5.86244e-06
3.96662e-06
8.55198e-06
4.94409e-06
8.9906e-06
8.91554e-06
1.71892e-06
5.82895e-06
6.70601e-06
8.70656e-06
4.90213e-06
9.10765e-06
9.10367e-06
3.25172e-06
4.7526e-07
9.14884e-06
3.1228e-06
8.97275e-06
8.55293e-06
2.65964e-06
3.83739e-06
1.20652e-06
9.18791e-06
9.20307e-06
9.15213e-06
9.1045e-06
5.82625e-06
9.14489e-06
9.2056e-06
2.34948e-06
8.50417e-06
9.16561e-06
9.06996e-06
-2.14125e-08
9.08156e-06
1.85162e-06
8.6897e-06
9.18393e-06
9.18288e-06
3.5198e-06
9.20971e-06
8.45996e-06
9.19593e-06
9.18292e-06
8.99523e-06
9.05986e-06
3.17555e-06
4.12154e-06
8.24109e-06
8.47699e-06
9.07205e-06
9.17079e-06
8.98331e-06
9.17472e-06
2.34247e-07
8.70485e-06
1.45905e-07
9.16315e-06
5.46888e-07
2.56936e-06
9.18112e-06
3.42971e-06
1.4143e-06
1.84823e-06
9.20695e-06
2.41422e-06
3.019e-06
8.96611e-06
9.18111e-06
4.81473e-06
4.61845e-06
9.19611e-06
1.26205e-06
1.81742e-06
7.70025e-07
9.1797e-06
9.12303e-06
9.12268e-06
1.20141e-06
4.85616e-06
9.17952e-06
9.12068e-06
4.05572e-06
5.60982e-06
9.19873e-06
8.74819e-06
1.73608e-06
9.06625e-06
5.71026e-06
9.19962e-06
9.14675e-06
7.60895e-06
9.36157e-06
9.17555e-06
9.04695e-06
3.84906e-06
8.57576e-06
9.08808e-06
9.19297e-06
4.37834e-06
4.20742e-06
3.9076e-06
5.91392e-06
4.02876e-06
3.63498e-06
9.26334e-06
9.1967e-06
8.89759e-06
9.17723e-06
8.02637e-06
2.58031e-06
2.5284e-06
6.33058e-07
2.02311e-06
1.98602e-06
9.24451e-07
9.20018e-06
8.75554e-07
8.54114e-06
9.18128e-06
9.12659e-06
5.68546e-06
8.40967e-06
9.08114e-06
9.18159e-06
9.20449e-06
2.91499e-06
9.19969e-06
4.17587e-06
1.73136e-07
1.71905e-06
9.20661e-06
8.9093e-06
8.64693e-06
6.60177e-06
8.53995e-06
9.17882e-06
9.19825e-06
7.22904e-06
9.01423e-06
8.53834e-06
1.61206e-06
5.77078e-06
6.73379e-06
2.12765e-06
3.37054e-06
9.09502e-06
8.38766e-06
4.71639e-06
4.83573e-06
9.218e-06
9.17701e-06
8.75873e-06
5.76684e-06
8.38555e-06
9.18243e-06
9.1444e-06
9.17348e-06
3.93044e-06
9.18173e-06
8.99463e-06
7.18482e-06
9.17833e-06
9.16777e-06
1.01711e-06
4.42708e-06
5.70116e-06
9.19764e-06
9.17999e-06
9.20301e-06
8.44295e-06
3.50761e-06
9.15259e-06
8.46525e-06
9.17959e-06
8.29655e-06
3.3622e-06
6.55154e-07
8.58732e-06
8.80387e-06
5.87606e-06
3.04235e-06
8.70698e-06
9.06687e-06
9.17877e-06
7.05671e-07
8.69572e-06
5.00235e-06
9.07606e-06
4.63417e-06
8.74694e-06
2.87117e-06
9.55833e-07
9.24364e-06
9.12777e-06
5.22333e-06
1.14884e-06
2.43131e-06
8.88182e-06
8.69056e-06
5.51862e-06
3.50074e-06
5.5955e-06
1.44795e-07
8.98925e-06
7.77468e-06
9.2047e-06
9.16586e-06
1.88605e-06
3.0319e-06
9.13979e-06
9.03091e-06
1.04383e-06
5.36889e-07
2.8872e-06
8.94885e-06
4.39224e-06
5.68315e-06
9.17571e-06
9.17865e-06
8.3968e-06
4.18231e-06
1.40367e-06
9.20337e-06
3.2884e-06
9.20265e-06
8.95841e-06
9.09352e-06
9.14047e-06
5.12534e-06
5.70127e-06
3.58305e-06
9.53849e-07
9.69123e-07
9.18146e-06
5.16422e-06
8.35345e-07
9.2095e-06
5.34757e-06
1.91826e-06
1.90884e-06
3.26749e-06
9.17743e-06
3.65237e-06
6.14328e-06
9.07838e-06
4.74995e-06
5.19966e-06
2.83652e-06
9.03723e-06
7.79244e-07
1.15771e-06
4.51001e-07
7.56284e-07
9.15855e-06
9.06788e-06
5.3483e-06
1.00192e-06
1.84554e-06
1.80548e-06
9.17571e-06
7.99355e-06
9.1757e-06
9.20377e-06
2.54497e-06
9.14477e-06
8.73125e-06
1.00783e-06
1.99548e-06
5.54981e-06
5.85006e-06
7.04505e-06
2.89098e-06
3.51501e-06
2.29931e-06
2.60689e-06
9.1791e-06
8.52462e-06
2.99365e-06
9.1548e-06
5.1046e-07
2.45109e-06
2.44621e-06
2.44066e-06
9.17751e-06
1.21344e-06
1.84427e-06
9.01208e-06
8.06504e-06
6.86649e-07
8.84901e-06
2.81934e-06
9.18347e-06
9.20475e-06
9.17783e-06
9.16708e-06
1.65471e-06
5.70234e-06
9.20261e-06
4.75904e-06
7.70215e-06
3.62077e-06
2.44795e-06
1.99584e-06
9.19839e-06
9.20237e-06
5.30681e-06
1.76236e-06
5.04316e-06
6.10684e-06
3.36622e-06
8.50534e-06
8.97466e-06
3.22095e-06
9.17446e-06
9.0419e-07
9.19141e-06
3.5297e-06
3.52555e-06
3.51879e-06
2.92356e-07
8.96406e-06
9.1803e-06
9.08925e-06
8.4616e-06
2.63235e-06
1.10993e-06
5.89404e-06
4.24588e-06
9.55578e-07
8.84402e-06
4.67436e-06
9.13255e-06
5.76711e-06
9.16958e-06
9.1884e-06
8.7031e-06
4.15387e-06
8.95702e-06
3.52794e-06
3.05535e-06
4.15271e-06
4.1524e-06
9.17589e-06
9.17963e-06
5.00777e-06
4.60458e-06
4.78399e-06
9.75102e-07
5.6838e-06
6.40257e-06
8.96906e-06
5.90283e-06
4.22481e-06
8.92129e-06
5.27053e-06
7.36795e-06
5.98327e-06
4.14834e-06
3.69901e-06
3.44771e-06
6.2342e-08
8.60095e-06
8.74364e-06
5.86902e-06
6.19446e-06
9.16786e-06
9.17171e-06
5.8871e-06
5.1413e-06
9.35607e-08
4.32845e-06
9.73312e-07
9.10167e-06
5.51734e-06
4.02716e-06
1.50459e-07
3.05984e-06
5.07879e-07
5.04039e-06
9.14061e-06
8.62437e-06
9.1681e-06
9.14189e-06
9.18352e-06
1.16137e-06
7.88237e-07
1.09261e-06
1.09164e-06
9.18621e-06
9.19162e-06
9.02153e-06
4.85738e-06
2.18344e-06
5.38915e-06
8.32293e-06
8.72895e-06
8.96809e-06
8.57026e-06
9.16831e-06
9.15605e-06
9.16772e-06
9.18485e-06
8.64812e-06
9.48996e-07
5.13033e-06
8.955e-06
8.82624e-06
9.18001e-06
8.44917e-06
8.51171e-06
9.18248e-06
9.15466e-06
1.30785e-06
8.9358e-06
9.14213e-06
4.54213e-07
9.19743e-06
1.2436e-06
9.17298e-06
9.15348e-06
5.39886e-06
7.54055e-06
9.17554e-06
8.55691e-06
9.19967e-06
3e-06
9.04176e-06
8.57203e-06
9.06661e-06
7.8732e-06
9.16504e-06
9.14309e-06
8.41073e-06
8.44336e-06
8.99017e-06
9.19072e-06
4.52408e-06
7.04101e-06
4.54128e-07
9.03251e-06
9.16614e-06
1.35924e-06
8.74149e-06
9.14352e-06
3.81963e-07
9.16642e-06
9.20863e-06
9.16758e-06
9.18307e-06
9.02381e-06
8.25118e-06
6.81117e-06
8.95245e-06
6.56625e-06
1.31951e-06
8.97333e-06
3.97728e-07
8.27844e-06
9.18686e-06
9.08914e-06
9.18701e-06
9.20556e-06
8.83853e-06
6.00276e-06
7.79247e-06
1.70861e-06
9.18306e-06
8.42547e-06
8.57685e-06
1.04633e-06
6.03353e-06
7.59349e-07
8.03738e-06
9.16649e-06
9.12226e-06
9.17175e-06
8.69183e-06
9.01662e-06
9.18058e-06
8.85914e-06
9.16906e-06
9.1426e-06
8.95407e-06
9.20572e-06
9.13581e-06
9.13675e-06
8.66749e-07
2.15018e-06
8.78025e-06
9.20872e-06
4.63609e-06
1.03434e-06
3.5282e-06
8.85877e-06
1.20396e-06
5.86924e-06
9.1646e-06
9.14842e-06
8.28762e-06
3.67266e-06
4.12398e-06
1.05335e-06
8.94317e-06
8.55881e-06
9.1781e-06
6.43819e-06
9.16178e-06
1.09526e-06
1.01452e-06
1.67993e-06
1.20502e-07
9.17662e-06
9.14375e-06
4.32735e-06
8.81906e-06
8.19557e-06
9.16411e-06
8.5344e-06
8.96844e-06
7.55843e-06
8.57943e-06
1.53407e-06
6.49882e-06
1.2152e-06
8.52e-06
9.10948e-06
9.12926e-06
8.62625e-06
9.18212e-06
9.1807e-06
8.71786e-06
8.57731e-07
6.27866e-06
9.09928e-06
8.86181e-06
2.3268e-06
7.24562e-06
8.56197e-06
6.0098e-06
9.20738e-06
8.99134e-06
8.88377e-06
9.18433e-06
8.67136e-06
8.4836e-06
8.48209e-06
8.57791e-06
5.70703e-06
8.40485e-06
9.16509e-06
1.50856e-06
9.17667e-06
5.20202e-06
7.1806e-06
8.6244e-06
9.00158e-06
9.14502e-06
9.19272e-06
8.76391e-06
9.07436e-06
8.90975e-06
8.51263e-06
8.93615e-06
3.4129e-06
8.77377e-06
8.48153e-06
9.14558e-06
8.44558e-06
5.71613e-06
5.97206e-06
5.27002e-06
9.14361e-06
9.1674e-06
9.11912e-06
9.18025e-06
1.17858e-06
8.5061e-06
9.18419e-06
2.90683e-06
5.71391e-06
9.06516e-06
9.14232e-06
8.55126e-06
9.17765e-06
6.36304e-06
8.44345e-06
8.5997e-06
2.68901e-06
6.28459e-06
8.53203e-06
4.0374e-06
9.1713e-06
8.76161e-06
8.54686e-06
8.54206e-06
6.35129e-06
8.72976e-06
8.53845e-06
8.78813e-06
9.08862e-06
9.18484e-06
9.15176e-06
9.17946e-06
6.56736e-06
6.1996e-06
8.38265e-06
9.12172e-06
6.05844e-06
3.3196e-06
9.0615e-06
1.36483e-06
8.83702e-06
9.18075e-06
5.85727e-06
5.66973e-06
5.12619e-06
9.1543e-06
8.40564e-06
8.36977e-06
8.53862e-06
8.67627e-06
9.16236e-06
8.79174e-06
8.55436e-06
5.78099e-06
9.18246e-06
8.572e-06
7.64013e-06
4.69225e-06
7.78304e-06
3.44107e-06
9.02022e-06
8.65217e-06
9.18145e-06
8.55641e-06
9.21509e-06
8.9234e-06
6.1423e-07
8.93522e-06
9.11397e-06
9.09439e-06
6.26344e-06
8.78753e-06
9.18081e-06
8.53034e-06
8.51298e-06
8.77572e-06
9.1683e-06
6.33465e-06
9.17306e-06
2.83618e-06
9.18525e-06
9.07845e-06
6.11391e-06
3.23595e-06
3.59873e-06
9.07736e-06
5.98657e-06
8.75821e-06
6.187e-06
8.84428e-06
8.64223e-06
9.02985e-06
1.10578e-06
8.77111e-06
9.18284e-06
3.32505e-06
8.96784e-06
7.55186e-06
8.39933e-06
4.65404e-06
6.17564e-06
8.28852e-06
9.18159e-06
9.15767e-06
8.79669e-06
8.92657e-06
9.01461e-06
6.43721e-06
5.49955e-06
8.55949e-06
8.76399e-06
4.79639e-06
8.90984e-06
9.15925e-06
9.0404e-06
3.66454e-07
8.71183e-06
8.8014e-06
4.44118e-06
8.97574e-06
9.16189e-06
9.19016e-06
8.80429e-06
5.30626e-06
9.06554e-06
8.93384e-06
9.11096e-06
6.31462e-06
9.06732e-06
6.84224e-06
8.81524e-06
8.81233e-06
9.18943e-06
2.28706e-06
6.23074e-06
4.94227e-07
3.47127e-06
8.94869e-06
5.48972e-06
9.00756e-06
8.24415e-06
3.47657e-06
1.47753e-06
9.15595e-06
8.81431e-06
9.18982e-06
9.011e-06
3.00356e-06
6.59077e-06
7.40083e-06
9.19399e-06
9.19351e-06
8.90954e-06
9.13279e-06
9.16042e-06
2.37718e-06
8.87578e-06
2.00138e-06
6.76184e-06
8.57357e-06
5.94942e-06
8.6094e-06
9.15623e-06
8.90612e-06
8.40593e-06
1.92591e-06
1.83711e-06
8.74797e-06
8.89342e-06
9.10474e-06
9.15589e-06
9.02803e-06
9.16634e-06
9.04599e-06
6.17159e-06
9.07716e-06
9.17937e-06
1.38311e-06
2.63958e-06
8.71315e-06
8.85945e-06
7.30336e-07
9.19104e-06
9.05881e-06
5.72901e-06
9.13652e-06
7.03446e-06
8.58813e-06
7.34231e-06
9.03172e-06
9.16047e-06
2.93173e-06
6.59096e-06
8.83818e-06
3.07976e-06
8.99051e-06
7.76779e-06
6.33231e-06
6.22494e-06
9.08756e-06
9.04872e-06
8.5309e-06
9.03884e-06
8.92295e-06
5.33401e-06
9.18428e-06
9.17589e-06
8.76865e-06
7.43889e-07
3.71096e-06
5.67538e-06
5.12786e-07
8.95644e-06
9.07797e-06
6.67678e-06
6.38044e-06
8.89309e-06
8.32346e-06
9.04721e-06
9.14288e-06
8.76982e-06
8.85214e-06
6.81743e-06
9.56547e-07
9.16243e-06
6.03987e-06
9.15836e-06
6.08025e-06
6.11562e-06
9.10593e-06
8.92947e-06
8.9663e-06
9.20478e-06
8.82668e-06
9.17213e-06
9.05445e-06
9.04278e-06
8.60923e-06
5.99915e-07
9.15889e-06
9.12456e-06
9.17974e-06
7.97743e-06
9.09192e-06
5.78293e-06
5.39365e-06
9.10123e-06
8.89912e-06
8.87137e-06
8.91431e-06
9.08482e-06
7.43402e-06
9.14955e-06
9.07464e-06
9.16386e-06
9.03314e-06
9.07095e-06
9.16218e-06
8.73501e-06
8.98933e-06
9.13383e-06
9.12305e-06
6.59386e-06
6.2348e-06
9.06059e-06
9.17615e-06
9.19621e-06
9.10136e-06
9.14793e-06
9.1526e-06
9.03092e-06
9.16678e-06
9.1994e-06
6.62506e-06
9.17837e-06
6.39025e-06
9.13877e-06
9.20578e-06
9.02319e-06
9.11437e-06
8.60176e-06
9.05046e-06
5.99121e-06
8.99529e-06
8.82789e-06
9.03064e-06
8.51535e-06
9.12905e-06
9.1128e-06
9.14345e-06
6.06114e-06
6.52775e-06
8.7966e-06
8.63113e-06
9.18939e-06
8.74069e-06
7.11717e-06
6.00775e-06
9.105e-06
9.14185e-06
1.22762e-06
7.67652e-06
9.06223e-06
9.15573e-06
6.87958e-06
8.97098e-06
5.83648e-06
9.10983e-06
9.13326e-06
9.15965e-06
6.27193e-06
9.02388e-06
9.12105e-06
9.07559e-06
8.87663e-06
6.02024e-06
9.04866e-06
9.15639e-06
4.90669e-07
6.35478e-06
1.97492e-06
9.19316e-06
9.20261e-06
9.16034e-06
9.12644e-06
9.13458e-06
9.16155e-06
8.58725e-06
8.80244e-06
9.14889e-06
9.03038e-06
6.03255e-06
8.94684e-06
9.03578e-06
9.15051e-06
8.33697e-07
9.11271e-06
9.16154e-06
9.13974e-06
9.13932e-06
9.07313e-06
9.16325e-06
8.9924e-06
1.30318e-06
9.16019e-06
9.27699e-06
9.02286e-06
9.1823e-06
9.17974e-06
9.17192e-06
2.72919e-06
9.11302e-06
8.7281e-06
6.39925e-06
9.19118e-06
9.1497e-06
9.19667e-06
9.09151e-06
8.99633e-06
9.15373e-06
9.18175e-06
9.16324e-06
9.19505e-06
8.99091e-06
6.64424e-06
9.15988e-06
9.15915e-06
9.14365e-06
8.89784e-06
9.00867e-06
9.16854e-06
9.17052e-06
9.16768e-06
9.03189e-06
9.17227e-06
8.61046e-06
6.70922e-06
9.16386e-06
9.12358e-06
9.09925e-06
5.94377e-06
9.13337e-06
9.17647e-06
9.16154e-06
9.1846e-06
9.17198e-06
9.01193e-06
9.16141e-06
9.06662e-06
9.01328e-06
4.71388e-06
9.19638e-06
9.14725e-06
5.91164e-06
9.10081e-06
8.62943e-06
9.16989e-06
8.99274e-06
9.14967e-06
7.46193e-06
9.18511e-06
9.18078e-06
9.05973e-06
4.95449e-06
9.16666e-06
9.18369e-06
6.19776e-06
9.10811e-06
9.16472e-06
9.15919e-06
9.16075e-06
9.13719e-06
9.18195e-06
9.07416e-06
9.17565e-06
9.04019e-06
3.37949e-06
5.87638e-06
9.14333e-06
9.02584e-06
9.16149e-06
9.18179e-06
2.9163e-06
8.8e-06
9.03537e-06
8.76211e-06
9.13244e-06
5.49707e-06
9.13505e-06
9.13421e-06
9.0824e-06
9.18934e-06
8.57116e-06
9.16025e-06
8.92344e-06
5.21316e-06
2.26965e-06
9.17356e-06
9.0461e-06
9.12301e-06
9.12082e-06
9.19474e-06
4.5183e-06
9.07389e-06
9.10312e-06
5.94462e-06
8.98481e-06
9.15148e-06
9.06496e-06
8.98952e-06
9.1672e-06
9.16014e-06
1.74504e-06
9.16866e-06
9.22131e-06
6.50853e-06
8.51399e-06
5.83324e-06
5.63416e-06
9.1891e-06
9.1612e-06
9.16412e-06
9.19058e-06
9.15184e-06
6.4075e-06
5.06981e-06
9.06632e-06
9.15665e-06
9.18773e-06
6.0306e-06
9.12489e-06
9.17322e-06
9.12491e-06
9.15681e-06
9.18309e-06
9.17357e-06
9.1596e-06
9.18835e-06
9.21306e-06
6.29022e-06
9.13303e-06
9.16484e-06
6.14988e-06
9.16223e-06
9.10379e-06
9.19811e-06
9.12983e-06
9.16213e-06
4.5154e-06
9.12856e-06
9.18924e-06
9.1655e-06
9.08259e-06
9.11604e-06
5.62327e-06
9.1639e-06
9.04724e-06
9.10252e-06
9.1969e-06
9.16575e-06
9.18559e-06
9.17907e-06
9.03837e-06
9.16612e-06
9.18929e-06
9.18504e-06
5.83004e-06
6.7131e-06
9.18681e-06
6.4574e-06
9.11137e-06
9.15751e-06
9.1652e-06
9.18842e-06
6.5129e-06
3.76178e-06
9.15717e-06
9.11298e-06
9.15537e-06
9.15484e-06
9.0205e-06
9.18408e-06
9.09411e-06
5.57895e-06
9.12581e-06
9.1621e-06
9.07908e-06
6.2412e-06
9.16896e-06
6.20178e-06
9.04923e-06
9.10672e-06
9.16356e-06
9.15617e-06
9.18978e-06
9.01352e-06
9.17527e-06
9.14425e-06
9.12583e-06
9.15528e-06
9.16169e-06
9.12327e-06
9.16557e-06
6.31225e-06
9.16749e-06
9.18088e-06
9.15253e-06
9.00528e-06
9.16077e-06
9.16628e-06
9.06476e-06
9.05327e-06
1.73261e-06
9.15617e-06
9.16458e-06
9.14379e-06
9.15437e-06
9.1918e-06
9.11736e-06
9.09943e-06
5.73229e-06
9.18171e-06
9.16037e-06
9.02318e-06
6.13713e-06
9.16829e-06
9.13704e-06
-2.13702e-07
9.1783e-06
9.08933e-06
9.10954e-06
9.13836e-06
9.19747e-06
2.35752e-06
4.41521e-06
9.13952e-06
9.08339e-06
9.14774e-06
5.78e-06
9.12162e-06
3.20681e-06
9.16658e-06
9.11271e-06
9.16868e-06
9.19941e-06
5.83667e-06
9.10146e-06
6.14183e-06
9.11815e-06
6.24432e-06
9.12149e-06
9.1316e-06
9.15324e-06
9.08642e-06
9.18588e-06
9.1711e-06
8.81819e-06
9.12967e-06
9.15606e-06
9.17328e-06
8.65107e-06
9.18704e-06
9.19147e-06
9.19195e-06
9.06527e-06
9.15052e-06
5.70121e-06
9.16383e-06
9.1868e-06
9.16138e-06
8.57524e-06
9.12654e-06
9.12603e-06
6.04978e-06
6.11581e-06
3.43869e-06
9.17219e-06
9.19398e-06
6.13083e-06
9.13754e-06
9.17163e-06
8.95391e-06
9.1695e-06
9.15946e-06
9.17042e-06
9.13368e-06
9.13067e-06
9.18168e-06
9.1412e-06
9.16055e-06
9.17401e-06
9.16163e-06
9.08205e-06
9.05225e-06
9.17222e-06
9.18641e-06
6.25199e-06
8.90338e-06
9.08978e-06
9.05002e-06
9.15012e-06
4.99591e-06
4.06179e-06
9.19118e-06
9.16365e-06
9.12697e-06
9.11295e-06
9.15314e-06
6.03177e-06
9.16568e-06
9.15049e-06
6.1141e-06
8.97321e-06
9.15913e-06
9.18984e-06
9.04305e-06
9.195e-06
9.06056e-06
2.90953e-06
2.9235e-06
9.327e-06
9.14933e-06
9.18636e-06
9.18609e-06
5.97019e-06
9.12053e-06
9.15597e-06
9.07626e-06
9.1996e-06
9.17379e-06
9.18042e-06
9.18571e-06
2.73024e-06
6.08034e-06
9.30207e-07
9.18363e-06
9.16617e-06
1.83375e-06
9.15256e-06
6.19538e-06
9.19664e-06
4.97773e-06
9.11355e-06
9.18241e-06
8.91101e-06
9.16427e-06
6.29678e-06
6.14231e-06
5.78973e-06
9.14813e-06
9.19476e-06
9.19652e-06
9.17401e-06
9.15831e-06
9.11196e-06
6.28493e-06
9.18753e-06
9.16192e-06
9.17978e-06
9.13536e-06
9.16267e-06
3.1461e-06
9.15776e-06
9.18462e-06
9.16998e-06
9.17771e-06
9.17769e-06
5.75638e-06
9.18541e-06
9.23689e-06
9.13622e-06
9.06701e-06
9.19656e-06
9.18523e-06
9.18161e-06
5.07944e-06
8.94655e-06
9.02088e-06
9.12155e-06
9.18757e-06
9.17774e-06
9.16059e-06
8.8724e-06
9.06413e-06
4.87359e-06
5.53906e-06
9.1737e-06
9.19318e-06
8.93618e-06
9.1585e-06
9.16045e-06
9.07862e-06
9.13094e-06
2.22593e-06
9.17808e-06
9.18951e-06
5.5815e-06
9.16506e-06
5.49656e-06
9.16537e-06
8.69782e-06
9.16188e-06
9.1778e-06
9.18588e-06
5.96384e-06
9.03738e-06
9.14261e-06
9.16543e-06
9.13859e-06
9.1975e-06
9.16624e-06
9.19871e-06
9.17916e-06
5.63886e-06
9.19441e-06
9.17427e-06
9.17566e-06
9.082e-06
9.16264e-06
9.16201e-06
3.41802e-06
5.24594e-06
9.15778e-06
5.55724e-06
9.19164e-06
9.05622e-06
9.18928e-06
9.17546e-06
9.1759e-06
9.1233e-06
9.14078e-06
9.08545e-06
9.17778e-06
9.18215e-06
9.09035e-06
9.11663e-06
6.74699e-06
9.20298e-06
9.13123e-06
9.08665e-06
9.09978e-06
9.17945e-06
9.17636e-06
9.19012e-06
9.127e-06
5.40648e-06
9.04328e-06
9.18275e-06
5.48902e-06
9.16797e-06
5.65257e-06
9.20119e-06
9.18319e-06
9.1632e-06
9.17532e-06
9.15101e-06
9.19073e-06
4.4164e-06
9.13585e-06
9.19649e-06
9.13924e-06
9.16024e-06
9.11993e-06
9.17943e-06
9.08942e-06
9.18298e-06
9.16141e-06
9.18648e-06
5.14088e-06
9.18248e-06
9.08854e-06
8.99284e-06
9.19559e-06
5.71019e-06
9.19562e-06
9.14708e-06
9.08364e-06
9.06459e-06
9.03964e-06
5.69071e-06
9.18634e-06
9.19677e-06
9.04379e-06
9.1771e-06
9.18004e-06
9.18508e-06
5.89182e-06
9.17842e-06
9.1597e-06
5.50424e-06
9.1465e-06
9.18486e-06
9.17081e-06
9.0699e-06
9.14559e-06
9.08085e-06
9.10423e-06
5.33185e-06
5.41425e-06
9.01224e-06
8.6715e-07
9.2375e-06
9.17634e-06
9.15767e-06
9.20943e-06
5.48453e-06
9.05915e-06
9.06319e-06
9.17925e-06
9.16345e-06
9.17332e-06
5.74627e-06
5.93037e-06
5.35219e-06
5.46326e-06
5.41861e-06
1.02955e-06
2.35452e-06
9.1842e-06
9.18711e-06
5.16127e-06
5.34731e-06
5.23028e-06
9.19168e-06
9.13115e-06
9.19731e-06
9.16108e-06
9.17938e-06
9.18324e-06
9.18201e-06
9.18997e-06
9.17345e-06
9.18138e-06
9.1758e-06
9.18294e-06
3.43512e-06
9.17876e-06
9.18654e-06
9.18161e-06
9.1838e-06
9.1809e-06
9.17816e-06
5.48572e-06
8.53582e-06
9.18458e-06
9.16692e-06
9.16977e-06
9.20748e-06
5.24184e-06
9.07788e-06
9.18278e-06
4.0607e-06
9.12721e-06
9.19674e-06
5.39986e-06
5.50004e-06
5.69156e-06
5.76811e-06
5.28814e-06
9.06737e-06
9.17012e-06
9.19118e-06
9.09671e-06
9.18326e-06
9.18066e-06
9.07804e-06
5.33203e-06
5.24141e-06
9.09114e-06
9.19553e-06
9.17518e-06
9.18415e-06
9.19457e-06
5.81352e-06
5.36749e-06
5.37695e-06
9.18295e-06
9.17806e-06
9.16482e-06
9.18341e-06
9.1429e-06
9.15978e-06
6.14625e-06
9.06778e-06
9.19061e-06
4.69888e-06
5.32588e-06
5.43483e-06
9.16095e-06
8.64839e-06
9.1755e-06
1.10343e-06
4.90468e-06
5.84694e-06
9.19597e-06
9.10519e-06
5.42328e-06
9.16616e-06
5.30228e-06
9.18311e-06
9.07071e-06
9.18417e-06
5.19627e-06
9.07457e-06
9.09485e-06
9.1884e-06
9.20091e-06
9.19394e-06
4.71444e-06
9.18464e-06
5.33738e-06
9.18506e-06
9.15651e-06
9.10883e-06
5.40095e-06
9.1818e-06
5.23078e-06
9.16537e-06
9.08202e-06
5.27643e-06
9.17112e-06
5.12982e-06
9.19938e-06
5.03493e-06
5.61337e-06
9.15803e-06
9.18674e-06
5.20796e-06
5.53482e-06
5.60739e-06
5.57648e-06
9.18592e-06
9.1294e-06
9.17808e-06
5.04335e-06
9.16101e-06
1.12251e-06
9.19888e-06
5.31917e-06
9.15474e-06
5.17677e-06
5.12534e-06
1.6808e-06
5.1421e-06
5.10008e-06
9.16921e-06
5.34768e-06
5.47721e-06
2.10953e-06
5.00021e-06
5.11645e-06
5.15688e-06
5.54448e-06
9.17009e-06
5.55494e-06
9.19097e-06
5.45842e-06
5.57944e-06
5.26419e-06
4.02238e-06
9.20233e-06
4.09513e-06
5.02894e-06
5.17913e-06
4.61464e-06
5.48398e-06
9.18741e-06
4.51587e-06
5.0025e-06
4.39869e-06
9.1354e-06
5.38482e-06
5.00662e-06
5.49674e-06
5.02772e-06
5.0967e-06
3.05032e-06
3.09498e-06
4.69686e-06
5.59693e-06
4.96486e-06
4.51146e-06
4.90438e-06
5.25478e-06
5.66474e-06
4.90458e-06
4.70377e-06
4.50167e-06
4.30035e-06
5.26255e-06
4.93806e-06
5.09866e-06
9.19785e-06
5.05357e-06
5.30021e-06
4.80909e-06
5.03369e-06
5.32673e-06
4.74175e-06
4.87366e-06
5.38483e-06
5.45056e-06
5.19659e-06
4.88527e-06
4.80472e-06
4.84548e-06
4.54168e-06
4.60595e-06
9.17704e-06
4.91542e-06
2.26716e-06
4.91648e-06
4.92668e-06
4.82683e-06
4.44726e-06
4.21718e-06
9.18873e-06
4.71954e-06
3.34441e-06
4.6759e-06
4.74938e-06
4.90939e-06
4.88604e-06
3.97205e-06
4.77498e-06
4.88821e-06
4.66654e-06
5.10548e-06
4.98749e-06
5.09378e-06
5.65973e-06
4.63992e-06
5.11318e-06
4.94844e-06
4.42043e-06
4.93062e-06
4.71824e-06
4.58087e-06
5.08089e-06
4.78772e-06
4.60803e-06
4.62113e-06
4.82777e-06
4.60644e-06
4.86362e-06
4.84443e-06
4.25671e-06
5.00446e-06
4.48966e-06
4.43321e-06
5.58468e-06
4.18836e-06
4.50839e-06
4.33451e-06
4.79104e-06
4.58769e-06
4.80984e-06
4.60299e-06
9.17443e-06
4.75624e-06
4.52547e-06
4.61795e-06
4.43041e-06
4.48368e-06
4.58704e-06
4.40269e-06
4.89344e-06
4.93088e-06
4.52378e-06
4.43708e-06
4.5085e-06
9.20172e-06
4.43356e-06
5.31058e-06
4.46717e-06
4.34177e-06
4.32054e-06
4.23828e-06
4.66642e-06
4.57384e-06
4.2718e-06
4.42091e-06
4.51765e-06
4.73069e-06
4.38421e-06
4.54129e-06
4.33416e-06
4.24795e-06
4.35629e-06
4.56365e-06
4.34003e-06
4.68134e-06
4.19105e-06
4.5294e-06
4.51149e-06
4.4869e-06
4.06332e-06
4.14231e-06
4.25017e-06
4.10678e-06
4.22878e-06
4.49179e-06
4.34055e-06
4.33706e-06
4.33804e-06
4.25518e-06
4.42889e-06
5.221e-06
4.09164e-06
4.45516e-06
4.42593e-06
4.15696e-06
4.35484e-06
3.99725e-06
4.29991e-06
4.15707e-06
4.15045e-06
4.65931e-06
4.01842e-06
4.00163e-06
4.27978e-06
4.27316e-06
2.89432e-06
4.08302e-06
4.24595e-06
3.92886e-06
3.94157e-06
4.05904e-06
4.33449e-06
3.99874e-06
4.20099e-06
4.07582e-06
4.24581e-06
4.23517e-06
3.72509e-06
3.84082e-06
4.0792e-06
4.15719e-06
4.20925e-06
4.49039e-06
3.70549e-06
3.80275e-06
3.90718e-06
3.45032e-06
3.94371e-06
4.12477e-06
3.9827e-06
3.97766e-06
3.28011e-06
3.55851e-06
3.60309e-06
3.75287e-06
4.03366e-06
3.75723e-06
3.60601e-06
3.85161e-06
3.67166e-06
4.0508e-06
3.78617e-06
4.06048e-06
3.92682e-06
3.64168e-06
3.81852e-06
3.50718e-06
3.5601e-06
3.45493e-06
3.74053e-06
3.91071e-06
3.60419e-06
3.80259e-06
3.8791e-06
3.74397e-06
3.67909e-06
3.96827e-06
3.56596e-06
3.63417e-06
3.95028e-06
3.5804e-06
3.70423e-06
3.85243e-06
3.68893e-06
3.97438e-06
3.35853e-06
3.73114e-06
4.13751e-06
3.67998e-06
3.84815e-06
3.65001e-06
3.48213e-06
3.80942e-06
3.41579e-06
3.54438e-06
3.65747e-06
3.72284e-06
3.90728e-06
3.57487e-06
3.56979e-06
3.50695e-06
3.63427e-06
3.50369e-06
3.61793e-06
5.13105e-06
3.39169e-06
3.63597e-06
1.04307e-06
1.09122e-06
3.50483e-06
3.55874e-06
3.46091e-06
3.36644e-06
3.66607e-06
3.56775e-06
2.81175e-06
3.45074e-06
3.63962e-06
3.59101e-06
3.29771e-06
3.57636e-06
4.00416e-06
3.32561e-06
3.50871e-06
3.84055e-06
3.41918e-06
3.21268e-06
3.34413e-06
3.36877e-06
3.56017e-06
3.54496e-06
3.16421e-06
3.60693e-06
3.43824e-06
2.92418e-06
3.43814e-06
3.08857e-06
3.28395e-06
3.32397e-06
3.29081e-06
3.4321e-06
2.83286e-06
4.71991e-06
3.38194e-06
3.07633e-06
3.18017e-06
3.08359e-06
3.26675e-06
2.86984e-06
2.9742e-06
3.16018e-06
2.96463e-06
2.98921e-06
3.20477e-06
3.1164e-06
3.14267e-06
3.01833e-06
3.23181e-06
3.01844e-06
2.91298e-06
3.39956e-06
3.21067e-06
3.26086e-06
3.09454e-06
2.87757e-06
3.13214e-06
3.18176e-06
3.05647e-06
3.06513e-06
3.30684e-06
3.00206e-06
2.77406e-06
3.10817e-06
2.97123e-06
2.95883e-06
3.14571e-06
2.0287e-06
2.82315e-06
2.87665e-06
3.0003e-06
2.99925e-06
3.03262e-06
3.47244e-06
2.38345e-06
2.90085e-06
2.66933e-06
2.62966e-06
3.05404e-06
2.99524e-06
2.97572e-06
2.81402e-06
2.91333e-06
2.8327e-06
2.67625e-06
2.82428e-06
2.7152e-06
2.31738e-06
2.00517e-06
2.47424e-06
2.10754e-06
3.57717e-06
2.57008e-06
2.79507e-06
2.23419e-06
2.73574e-06
2.72045e-06
2.63486e-06
2.37406e-06
2.14598e-06
2.75805e-06
2.8945e-06
2.64984e-06
2.62515e-06
2.33111e-06
2.73871e-06
1.82958e-06
2.47037e-06
1.93073e-06
2.76106e-06
2.51418e-06
2.21327e-06
2.65355e-06
2.71395e-06
2.53701e-06
2.66654e-06
2.72658e-06
2.52045e-06
2.42467e-06
2.84208e-06
2.52706e-06
1.73371e-06
2.04561e-06
2.58526e-06
2.64017e-06
2.56755e-06
2.57061e-06
2.60817e-06
2.46208e-06
2.18802e-06
2.46961e-06
2.10116e-06
2.33287e-06
2.25502e-06
2.41173e-06
2.54914e-06
2.28145e-06
2.41475e-06
2.46297e-06
2.47132e-06
3.34718e-06
2.57612e-06
2.4968e-06
2.24926e-06
2.54142e-06
2.91268e-06
2.56328e-06
2.64719e-06
2.47124e-06
2.34506e-06
2.29926e-06
2.16752e-06
2.48734e-06
2.31658e-06
2.27768e-06
2.52301e-06
2.63659e-06
2.39645e-06
2.23874e-06
1.94073e-06
2.34864e-06
2.53256e-06
2.38722e-06
2.0321e-06
2.33264e-06
2.25424e-06
2.29517e-06
2.47977e-06
2.25008e-06
2.16201e-06
2.09089e-06
1.98896e-06
2.2446e-06
1.71114e-06
1.79146e-06
2.16044e-06
2.1105e-06
2.09084e-06
2.38771e-06
1.88435e-06
1.93415e-06
2.21094e-06
2.24323e-06
2.15101e-06
2.04795e-06
1.90776e-06
2.0293e-06
2.09202e-06
1.85942e-06
1.91955e-06
1.9362e-06
2.13697e-06
2.02017e-06
2.17539e-06
1.60801e-06
1.92142e-06
1.92031e-06
1.82772e-06
1.76916e-06
2.93193e-06
2.0301e-06
1.98172e-06
1.97091e-06
2.07361e-06
2.18074e-06
1.72474e-06
2.08649e-06
1.91916e-06
1.93568e-06
1.67393e-06
1.69365e-06
1.81091e-06
1.8403e-06
1.95341e-06
1.9215e-06
1.80686e-06
2.07683e-06
1.63379e-06
2.02115e-06
1.5772e-06
1.93092e-06
1.35059e-06
1.69946e-06
1.72895e-06
1.49234e-06
1.569e-06
1.84494e-06
1.43108e-06
1.46439e-06
2.50328e-06
1.63857e-06
1.75736e-06
1.59453e-06
1.57821e-06
1.3685e-06
1.4216e-06
1.44565e-06
1.53133e-06
1.43358e-06
1.61692e-06
1.47083e-06
1.45566e-06
1.41741e-06
1.50045e-06
1.56447e-06
1.27333e-06
1.2824e-06
1.42735e-06
1.27951e-06
1.51624e-06
1.29358e-06
1.38039e-06
1.60053e-06
1.47894e-06
1.25564e-06
1.17955e-06
1.47311e-06
1.21974e-06
1.3383e-06
1.50819e-06
1.22593e-06
1.08662e-06
1.33131e-06
1.18753e-06
1.20686e-06
1.18057e-06
1.26546e-06
9.94171e-07
1.16862e-06
1.05325e-06
1.14462e-06
1.3852e-06
1.06729e-06
1.34002e-06
1.29797e-06
9.72713e-07
1.47901e-06
1.06473e-06
3.22575e-06
1.1904e-06
1.73782e-06
1.14355e-06
1.08323e-06
1.07536e-06
3.82325e-06
2.97377e-06
2.76981e-06
2.00108e-06
1.32843e-06
1.59016e-06
8.43883e-07
1.00949e-06
9.80808e-07
1.7946e-06
8.99976e-07
1.23091e-06
4.89236e-06
2.09628e-06
2.57366e-06
1.87805e-06
1.24498e-06
2.90528e-06
3.13993e-06
2.94787e-06
2.12932e-06
1.57682e-06
4.22321e-06
1.52783e-06
3.72057e-06
1.13198e-06
9.26166e-07
1.13226e-06
4.39697e-06
1.1295e-06
5.47514e-06
2.34877e-06
2.51101e-06
2.68518e-06
2.54164e-06
4.3693e-06
2.68545e-06
1.98866e-06
1.93186e-06
2.69031e-06
2.79933e-06
2.81678e-06
9.07953e-07
3.61643e-06
3.5862e-06
1.74648e-06
4.63895e-06
2.8025e-06
4.55863e-07
2.20806e-06
1.04206e-06
3.12987e-06
5.54757e-06
5.9766e-06
1.76703e-06
1.28221e-06
1.23811e-06
4.05123e-06
1.30928e-06
4.08738e-06
1.13156e-06
4.30645e-06
4.56563e-06
1.67841e-06
6.01665e-06
1.05963e-06
1.07634e-06
3.05159e-06
4.66232e-06
3.43394e-06
3.87697e-06
4.09876e-06
4.80702e-06
2.08539e-06
6.61653e-06
1.08516e-06
3.13308e-06
1.23751e-06
5.39261e-06
5.78867e-06
1.04174e-06
5.42379e-07
5.60171e-06
4.48567e-06
4.72349e-06
4.98238e-06
5.78587e-06
6.26442e-07
6.81784e-07
3.96496e-06
4.2394e-06
5.783e-06
4.57677e-06
1.13579e-06
3.34234e-06
5.74789e-06
4.24346e-06
1.14839e-06
4.05405e-06
6.04073e-06
4.76239e-06
6.12978e-06
2.52964e-06
1.62559e-06
1.49466e-06
1.05727e-06
5.60403e-06
5.26369e-06
4.75266e-06
8.68643e-07
9.54806e-07
1.40468e-06
5.67805e-06
9.44648e-07
1.10554e-06
1.11379e-06
1.59252e-06
1.88017e-06
1.13914e-06
1.03053e-06
1.91443e-06
1.12697e-06
1.24786e-06
1.59312e-06
1.38658e-06
1.80083e-06
1.2572e-06
1.59434e-06
1.83393e-06
1.39338e-06
1.65808e-06
1.52267e-06
1.97542e-06
1.90294e-06
1.53876e-06
1.56078e-06
1.54147e-06
1.65296e-06
2.34702e-06
1.62374e-06
2.41649e-06
1.50476e-06
1.61516e-06
1.67731e-06
1.49364e-06
2.52476e-06
1.63797e-06
2.1996e-06
1.75315e-06
1.76261e-06
2.43833e-06
1.78238e-06
2.63182e-06
2.98344e-06
2.31879e-06
1.84334e-06
2.90698e-06
2.66121e-06
2.70401e-06
2.71945e-06
2.52826e-06
2.43758e-06
2.59974e-06
1.89986e-06
2.61903e-06
2.43631e-06
2.56939e-06
1.86223e-06
2.61792e-06
3.28373e-06
2.68643e-06
2.77619e-06
2.81565e-06
2.56367e-06
3.35755e-06
2.61243e-06
2.76526e-06
2.83669e-06
3.09389e-06
2.76019e-06
2.6545e-06
3.17189e-06
3.50394e-06
3.08411e-06
3.31728e-06
3.29459e-06
3.91049e-06
3.18938e-06
3.37949e-06
2.66315e-06
3.8824e-06
3.25903e-06
3.47817e-06
3.58585e-06
3.23795e-06
3.51305e-06
3.78798e-06
4.08294e-06
3.60739e-06
3.69216e-06
3.77383e-06
4.24366e-06
3.82617e-06
3.69991e-06
4.02344e-06
4.34717e-06
4.06035e-06
3.74535e-06
3.69908e-06
3.65074e-06
4.14006e-06
4.13633e-06
3.79748e-06
3.75716e-06
3.82045e-06
4.12586e-06
3.88819e-06
4.19708e-06
3.84708e-06
4.28337e-06
3.93574e-06
4.44179e-06
4.2752e-06
4.19999e-06
4.8174e-06
4.36543e-06
4.41878e-06
4.33751e-06
4.71913e-06
4.41837e-06
3.93199e-06
4.99475e-06
4.35132e-06
9.20311e-06
4.62615e-06
5.22247e-06
4.65645e-06
5.10045e-06
5.17175e-06
9.16466e-06
4.81235e-06
5.30014e-06
5.35861e-06
1.01372e-06
4.83362e-06
5.00034e-06
9.18499e-06
5.38694e-06