/*--------------------------------*- C++ -*----------------------------------*\
  =========                 |
  \\      /  F ield         | OpenFOAM: The Open Source CFD Toolbox
   \\    /   O peration     | Website:  https://openfoam.org
    \\  /    A nd           | Version:  8
     \\/     M anipulation  |
\*---------------------------------------------------------------------------*/
FoamFile
{
    version     2.0;
    format      ascii;
    class       volScalarField;
    location    "9";
    object      p;
}
// * * * * * * * * * * * * * * * * * * * * * * * * * * * * * * * * * * * * * //

dimensions      [0 2 -2 0 0 0 0];

internalField   nonuniform List<scalar> 
5101
(
6.95814e-06
7.64966e-06
7.31826e-06
2.50774e-06
7.68341e-06
2.23707e-06
1.11772e-06
9.79735e-06
8.20845e-07
2.58008e-06
7.1676e-06
1.92716e-06
5.55738e-07
1.3826e-06
4.9292e-06
4.72293e-06
3.90666e-06
2.79592e-06
5.53683e-06
9.24978e-06
6.18878e-06
2.54739e-06
4.82128e-06
3.03064e-06
5.95057e-06
3.91588e-06
5.09584e-06
5.61642e-06
7.25766e-06
6.99973e-06
5.81943e-06
5.06572e-06
4.70191e-06
9.39192e-06
6.29213e-06
6.52846e-06
6.784e-06
6.48546e-06
7.48564e-06
9.4754e-06
9.8439e-06
1.19186e-06
5.39678e-06
4.62254e-06
7.39315e-06
4.87811e-06
7.54948e-06
2.85169e-06
6.72417e-06
5.77084e-06
7.39462e-06
6.59478e-06
6.30103e-06
6.91655e-07
9.78013e-06
7.32722e-06
6.71581e-06
9.43641e-06
9.73395e-06
4.17891e-06
9.52172e-07
5.12866e-06
9.84929e-06
6.49899e-06
5.46796e-06
7.78967e-06
1.21084e-06
3.74967e-06
6.15083e-06
9.85237e-06
2.38565e-06
9.1596e-06
9.8264e-06
5.25124e-06
4.53405e-06
9.30824e-06
2.9628e-06
9.34489e-06
9.59823e-06
2.07608e-06
9.83988e-06
1.6328e-06
2.96248e-06
6.24401e-06
9.77477e-06
6.76884e-06
7.70944e-06
2.36408e-06
7.97556e-06
4.4942e-06
9.27993e-06
3.71108e-07
6.62302e-06
6.23656e-06
6.93673e-06
7.02213e-06
9.33825e-06
7.88405e-06
9.77482e-06
8.10851e-06
5.92388e-06
9.64024e-06
1.67184e-06
8.1937e-06
4.82065e-06
9.34568e-06
6.47687e-06
7.98281e-06
9.62357e-06
3.52691e-06
1.59834e-06
1.75949e-06
6.71332e-06
7.67717e-06
3.59479e-06
9.32138e-06
9.37923e-06
3.57486e-06
5.07948e-06
4.39213e-06
1.8338e-06
3.31527e-06
9.23624e-06
8.25424e-06
4.31186e-06
9.84787e-06
5.30001e-06
7.38685e-06
9.83557e-06
2.29711e-06
7.09677e-06
6.7979e-06
7.84658e-06
9.8217e-06
6.96128e-06
7.08433e-06
9.44449e-06
6.68811e-06
7.94962e-07
9.57484e-06
9.26282e-06
8.48678e-06
9.48693e-06
6.4757e-06
3.96839e-06
4.14302e-06
9.6318e-06
6.16288e-06
8.29007e-06
9.4434e-06
6.32001e-06
9.84725e-06
5.58237e-06
3.45119e-06
8.10668e-06
6.02458e-06
3.01931e-06
9.27726e-06
6.00174e-06
6.15594e-06
5.46566e-07
9.34869e-06
3.4325e-06
7.39729e-06
8.07694e-06
7.1965e-06
5.55106e-06
6.82883e-06
2.47061e-06
9.41992e-06
3.47058e-06
5.78425e-06
6.04173e-06
7.53128e-06
8.06808e-06
3.29525e-06
1.99448e-06
9.81241e-06
4.76695e-06
7.33787e-06
7.7501e-06
3.78952e-06
5.74599e-06
8.96589e-06
9.387e-06
6.83815e-06
9.69935e-06
5.43271e-06
6.34359e-06
6.63162e-06
8.05287e-06
6.29171e-06
9.39582e-06
9.37631e-06
4.10515e-06
6.8492e-06
9.85879e-06
8.04988e-06
1.43371e-06
1.59891e-06
5.23332e-06
8.10123e-06
7.2594e-06
9.31737e-06
9.71315e-06
7.17265e-06
8.47838e-06
3.18819e-06
9.82551e-06
2.15195e-06
7.85124e-06
5.41153e-07
4.3467e-06
9.47273e-06
1.50625e-06
9.50241e-07
7.4366e-06
6.96997e-06
1.75085e-06
3.50226e-06
7.20007e-07
3.29204e-06
8.80338e-06
7.85096e-06
8.39759e-06
9.94216e-06
3.24741e-06
7.91983e-06
2.30876e-06
9.84575e-06
9.24223e-06
8.44889e-06
7.9765e-06
6.02338e-06
8.97799e-06
9.76265e-06
9.84414e-06
3.4848e-06
6.32061e-06
7.75508e-06
2.46353e-06
9.84372e-06
9.84974e-06
6.93432e-06
6.09007e-06
7.64287e-06
6.45361e-06
9.26345e-06
7.44083e-06
6.39551e-06
7.47821e-06
2.05151e-06
1.70039e-06
6.43739e-06
3.55813e-06
4.80597e-06
4.7768e-06
5.79817e-06
3.69148e-06
9.54292e-06
4.61796e-06
4.26547e-06
4.98873e-06
3.35273e-06
3.32952e-06
9.47508e-06
7.17222e-06
2.69709e-06
1.32154e-06
9.32409e-06
4.25036e-06
4.24555e-06
9.1492e-06
4.10995e-06
9.68748e-06
9.02756e-06
9.51584e-06
9.38341e-06
2.61912e-06
2.77362e-06
5.63462e-06
6.25558e-06
5.07317e-06
7.3507e-06
9.27865e-06
6.037e-06
6.55846e-06
5.86193e-06
7.68145e-06
8.74254e-06
4.14177e-06
9.13284e-06
6.24218e-06
9.51389e-06
4.91181e-06
9.84253e-06
2.62672e-06
6.46229e-06
8.87446e-06
6.69086e-06
9.51371e-06
9.15285e-06
7.27455e-06
4.4797e-07
-8.70315e-08
8.10835e-06
5.88444e-06
9.20953e-06
2.67326e-06
7.1222e-06
3.08425e-06
5.82616e-07
6.77451e-06
6.92992e-06
5.70692e-06
9.84088e-06
3.54923e-06
8.99642e-06
6.01588e-06
9.45587e-06
7.95524e-06
8.68661e-06
9.39983e-06
4.32535e-06
2.2176e-06
7.45641e-06
9.63113e-06
7.74456e-06
8.99538e-06
2.93203e-06
7.00158e-06
1.99793e-06
9.52304e-06
7.04289e-06
2.967e-06
9.84041e-06
6.7996e-06
7.27419e-06
7.134e-06
7.01919e-06
8.01729e-06
2.31135e-06
3.39049e-06
6.55302e-07
1.91335e-06
6.56402e-06
6.21886e-06
6.18653e-06
5.54027e-06
9.62579e-06
9.56771e-06
4.87585e-06
6.01605e-06
2.98229e-06
7.53766e-07
9.32311e-06
8.42807e-06
2.8696e-06
8.20869e-06
2.75483e-07
9.83747e-06
2.41031e-06
9.77353e-06
7.24515e-06
6.75103e-06
5.89121e-06
8.27927e-06
1.34402e-06
9.37984e-06
7.31736e-06
9.21851e-06
8.94829e-06
8.09747e-06
6.87108e-06
7.75004e-06
7.58768e-06
8.9944e-06
8.75446e-07
4.14073e-06
3.48525e-06
6.86303e-06
5.85853e-06
7.46292e-06
5.83943e-06
2.6031e-06
1.17133e-06
3.84818e-06
3.19431e-06
7.14765e-06
2.29715e-06
6.13531e-06
6.13793e-06
1.45413e-06
2.90866e-06
1.9977e-06
2.6235e-06
2.33826e-06
6.37939e-06
9.73886e-06
3.64464e-06
6.18233e-06
3.63139e-06
6.6008e-06
3.3887e-06
7.56331e-06
5.63405e-06
5.69482e-06
9.37722e-06
5.47583e-06
9.82213e-06
5.81684e-06
6.44807e-06
9.56857e-06
5.65637e-06
6.71001e-06
5.57903e-06
7.905e-06
5.93807e-06
9.82502e-06
3.36602e-06
3.33601e-06
5.39095e-06
1.94111e-06
-2.08294e-07
7.06175e-06
2.77938e-06
9.83428e-06
3.84286e-06
7.87489e-06
7.28315e-06
4.17725e-06
7.93685e-06
3.20318e-07
8.24913e-06
9.62772e-06
3.33525e-06
9.23219e-06
3.63505e-06
3.61117e-06
5.78882e-07
3.59364e-06
3.57222e-06
5.62302e-06
3.79666e-06
4.00455e-06
4.44603e-06
6.13873e-06
6.92724e-06
2.92604e-06
6.56394e-06
7.17807e-06
5.56893e-06
5.54065e-06
5.49554e-06
5.44819e-06
1.04526e-06
9.57942e-06
8.41216e-06
8.75418e-06
2.07168e-06
7.72918e-06
6.94644e-06
8.04327e-06
3.44236e-06
9.65765e-06
5.15587e-06
6.0782e-06
1.67303e-06
7.01826e-06
6.85514e-06
4.49202e-06
4.46454e-06
9.54128e-06
7.60269e-06
6.82698e-06
9.72687e-06
9.81921e-06
9.59327e-06
7.6564e-06
6.04334e-06
1.5869e-06
2.22875e-06
9.75879e-06
9.56446e-06
7.05543e-06
7.20749e-06
6.55317e-06
8.61821e-06
4.14546e-06
5.07524e-06
6.34607e-06
9.29277e-06
3.08899e-06
1.83578e-07
5.95621e-06
6.85441e-06
3.93196e-06
4.68685e-06
9.09774e-06
2.46925e-06
9.82091e-06
5.56103e-06
7.95633e-06
7.5867e-06
7.53467e-06
3.0064e-06
9.5279e-06
7.56427e-06
3.25568e-06
3.56403e-06
9.37213e-06
2.93904e-06
8.34004e-07
7.27644e-06
1.81337e-06
2.23225e-06
2.66356e-06
1.26134e-06
3.10713e-06
4.71615e-06
4.7276e-06
8.24412e-06
7.21088e-06
4.36015e-06
7.30095e-07
7.63285e-06
7.80916e-06
6.23695e-06
9.76519e-06
9.23416e-06
5.28435e-06
5.71113e-06
2.38432e-06
9.03653e-07
4.75385e-06
3.93485e-06
3.93563e-06
9.48131e-06
4.13025e-06
9.73418e-06
1.89708e-06
4.11125e-06
6.85851e-06
1.54766e-06
2.0083e-06
2.46465e-06
2.91808e-06
3.36911e-06
7.11218e-06
6.21371e-06
6.66157e-06
5.79276e-06
5.32351e-06
2.93363e-06
3.36873e-06
5.70898e-06
6.0959e-06
3.53372e-06
3.52414e-06
4.32019e-06
5.57394e-06
9.04255e-06
9.74334e-06
4.80665e-06
8.47335e-06
4.93074e-06
4.66524e-06
9.53444e-06
3.71117e-06
4.47777e-06
5.99646e-06
3.71024e-07
5.67373e-06
6.64676e-06
8.95439e-06
7.43852e-06
2.62384e-06
6.3039e-07
9.3095e-06
8.3485e-06
9.65767e-06
7.72354e-06
3.26876e-06
7.12971e-06
4.45453e-06
8.99218e-06
9.8009e-06
7.56343e-06
7.84299e-06
1.15327e-06
3.51126e-06
5.97433e-06
4.94187e-06
4.97477e-06
6.59823e-06
1.88216e-06
4.89312e-06
4.89843e-06
1.6129e-06
9.31074e-06
3.02963e-06
9.40216e-06
5.90486e-06
9.43714e-06
2.54016e-06
5.35196e-06
7.32217e-06
5.46359e-06
5.20087e-06
3.34988e-06
3.34749e-06
7.46712e-06
7.57366e-06
9.81644e-06
9.84907e-06
8.34844e-06
9.59879e-06
9.85506e-06
6.10823e-06
7.94569e-06
4.60969e-06
9.84901e-06
6.49753e-06
9.38351e-06
3.50152e-06
7.15535e-06
8.86198e-06
5.95421e-06
8.89784e-06
5.50149e-06
7.0887e-06
7.01265e-06
7.41548e-06
4.57637e-06
7.35999e-06
9.52854e-06
4.4276e-06
4.42367e-06
3.38747e-06
1.53688e-06
2.94237e-06
2.50074e-06
2.05936e-06
1.08363e-06
9.16307e-06
4.24693e-06
4.89157e-06
7.92991e-06
5.41872e-06
3.07102e-06
8.03836e-06
9.80303e-06
5.8485e-06
2.853e-06
9.83911e-06
6.42056e-06
7.70774e-06
5.50061e-07
7.24804e-06
9.78232e-06
9.4719e-06
2.69575e-06
4.56075e-06
4.56861e-06
4.88019e-06
3.25775e-06
1.40641e-06
5.34328e-06
4.67873e-06
6.22571e-06
8.48282e-06
8.01029e-06
4.92357e-06
5.94893e-06
4.785e-06
9.6507e-07
2.80904e-06
2.37399e-06
1.95211e-06
5.70231e-06
7.76016e-06
7.43804e-06
6.40829e-06
9.53109e-06
8.75418e-06
2.07087e-06
9.67808e-06
9.8552e-06
5.69432e-06
3.016e-06
3.96373e-06
4.81373e-06
5.12311e-06
7.31985e-06
2.542e-06
6.54593e-06
9.90815e-07
7.72454e-06
6.5402e-07
2.25603e-06
7.9419e-06
3.66563e-06
2.26804e-06
9.4536e-06
6.50552e-06
5.22519e-06
8.74069e-07
2.77702e-07
5.07576e-06
2.25511e-06
7.26076e-06
9.84824e-06
7.77898e-06
4.386e-06
7.31381e-06
9.00663e-06
6.66518e-06
6.74107e-06
8.74638e-07
3.11036e-06
6.16716e-06
5.02406e-06
5.04429e-06
1.49381e-06
5.65751e-06
9.23552e-06
1.037e-06
3.39773e-06
6.10431e-06
6.74202e-06
1.76073e-06
5.09137e-06
5.12213e-06
5.20761e-06
1.96952e-06
6.16805e-06
7.18465e-06
5.80431e-06
7.35362e-06
5.6016e-06
9.62422e-06
9.26441e-06
4.74218e-06
6.1961e-06
6.61821e-06
1.05274e-06
7.05883e-06
8.63989e-06
6.6814e-06
4.43056e-06
6.77501e-06
9.85086e-06
5.23037e-06
6.7094e-07
4.67775e-06
6.77717e-06
5.73447e-06
5.26859e-06
9.12281e-06
5.15185e-06
7.09628e-06
7.62121e-06
9.50734e-06
4.51365e-06
7.52328e-06
8.8788e-06
6.85251e-06
6.65912e-06
9.28756e-06
7.47403e-06
8.17607e-06
3.33206e-06
8.04492e-06
4.91786e-06
7.18032e-06
3.33288e-06
7.90001e-06
1.27701e-06
9.62122e-06
3.40777e-06
9.31673e-06
5.63259e-07
9.63958e-06
3.69314e-06
5.38524e-06
6.54359e-06
3.80301e-06
9.5271e-06
9.7226e-06
8.60851e-06
8.66977e-06
5.93376e-06
1.08512e-06
5.85554e-06
3.9535e-06
6.25816e-06
6.4091e-06
3.49084e-06
4.64752e-06
6.08252e-06
6.22597e-06
7.92408e-06
5.86476e-06
9.83819e-06
9.54055e-06
9.06814e-07
3.25583e-06
6.25727e-06
6.88726e-06
1.6161e-06
5.23978e-06
5.27131e-06
5.19348e-06
5.17322e-06
1.34303e-06
7.2947e-06
9.85299e-06
9.62785e-06
3.49329e-06
6.79736e-06
9.83672e-06
9.57132e-06
9.83957e-06
8.13816e-06
3.22893e-06
5.93185e-07
6.01105e-07
5.83096e-06
5.36918e-07
5.42489e-07
2.80068e-06
5.97934e-07
6.5869e-06
7.82307e-07
1.45656e-06
6.12834e-06
3.82844e-06
5.05356e-06
1.09011e-06
1.85492e-06
1.83253e-06
1.09009e-06
1.84613e-06
6.7538e-06
4.87265e-06
1.0116e-06
5.05552e-06
3.36264e-06
3.83123e-06
1.73747e-06
5.13395e-06
5.09899e-06
4.42808e-06
4.30297e-06
9.72716e-06
1.2492e-06
1.24313e-06
1.61029e-06
1.40282e-06
1.39388e-06
3.51456e-06
5.21064e-06
7.52542e-06
7.5425e-06
2.53107e-06
5.10692e-06
1.5847e-06
7.00042e-06
9.33428e-07
6.49179e-06
7.34814e-07
7.51776e-06
7.8581e-06
9.38784e-06
9.80732e-06
4.02329e-06
1.32638e-06
7.59711e-06
6.10455e-06
9.45557e-06
6.51759e-06
2.39788e-06
6.94157e-06
5.47403e-06
9.25164e-06
5.89018e-07
8.59368e-06
4.51158e-06
3.87124e-06
8.18761e-06
7.34885e-06
3.3231e-06
4.23654e-06
9.381e-06
7.18847e-06
3.01327e-06
9.83333e-06
4.17529e-06
4.14925e-06
9.35125e-06
2.00478e-06
1.9969e-06
1.98494e-06
6.55862e-06
8.51291e-06
4.49327e-06
7.01979e-06
2.50239e-06
5.64061e-06
7.67632e-06
6.33324e-06
7.35224e-06
9.79341e-06
9.10745e-06
6.63286e-06
5.76118e-06
7.6968e-06
2.44407e-06
7.5474e-06
1.37129e-06
8.7887e-06
2.61468e-06
7.41104e-06
5.63908e-06
3.0747e-06
1.10872e-06
9.15003e-06
2.03642e-06
9.69174e-06
7.15818e-06
7.99505e-07
7.63474e-06
9.85469e-06
3.06872e-06
2.61636e-06
2.16107e-06
1.70227e-06
5.16169e-06
3.52241e-06
3.52237e-06
5.64338e-06
5.11757e-06
9.84021e-06
9.79908e-06
3.28191e-06
9.18637e-06
5.5053e-06
9.50536e-06
1.74068e-06
1.83269e-06
7.67711e-07
7.61808e-06
3.46715e-06
3.45432e-06
8.57688e-06
7.24388e-06
2.81562e-06
1.22575e-06
1.21317e-06
7.32448e-06
5.92844e-07
5.83152e-07
9.61089e-06
5.63133e-06
6.67842e-06
8.16986e-06
4.88453e-06
1.21271e-06
1.95772e-06
6.46468e-06
1.97818e-06
1.96792e-06
8.47892e-06
9.27489e-06
7.80946e-06
6.48e-06
7.87872e-06
9.36709e-06
9.50251e-06
3.12979e-06
1.23728e-06
5.5779e-06
7.68637e-07
7.77172e-07
1.55432e-06
1.5459e-06
1.52393e-06
7.61074e-06
7.29183e-06
6.27391e-06
9.43268e-06
2.41652e-06
3.95669e-06
8.21494e-06
9.81352e-06
5.49384e-06
3.99533e-06
8.59746e-08
4.85528e-06
6.85741e-06
9.47005e-06
4.39092e-06
9.85051e-06
7.18499e-06
7.88648e-06
4.99772e-06
9.75692e-06
3.96852e-06
3.60483e-06
4.16479e-06
9.5691e-06
6.30955e-06
2.68244e-06
1.91962e-06
4.59965e-06
4.08522e-06
4.08754e-06
6.95626e-06
6.38005e-06
9.65504e-06
5.47585e-06
8.52931e-07
8.02007e-06
1.70653e-06
8.19397e-06
7.47565e-06
6.3909e-06
9.83034e-06
4.97541e-06
9.85142e-06
2.40899e-06
1.37932e-06
1.3673e-06
3.86702e-06
3.12669e-06
6.37763e-06
4.58066e-06
6.20842e-07
8.33438e-06
6.31859e-06
9.20953e-06
5.13751e-06
6.63354e-06
9.79241e-06
3.97444e-06
3.97488e-06
1.59149e-06
6.70841e-06
9.52569e-06
4.59113e-06
2.53748e-06
1.50555e-06
1.5187e-06
1.53027e-06
8.7862e-06
7.39853e-07
7.51408e-07
3.95252e-06
9.80632e-06
6.95725e-06
8.89114e-06
9.85089e-06
5.81857e-06
7.00591e-06
8.63467e-06
1.14671e-06
7.43817e-07
1.03886e-06
1.33803e-06
2.13173e-06
2.43102e-06
6.03533e-06
2.73984e-06
7.3526e-06
2.15145e-06
2.14374e-06
3.05733e-06
2.1342e-06
5.74219e-06
4.57167e-06
7.05569e-06
4.26826e-06
5.44311e-06
5.99936e-06
7.03924e-06
6.73937e-06
5.40382e-06
6.43454e-06
5.70356e-06
5.36387e-06
3.97208e-06
5.35238e-06
4.12147e-06
4.36233e-06
4.33529e-06
2.46069e-06
2.74938e-06
3.03574e-06
3.32146e-06
3.61786e-06
3.94426e-06
2.10215e-06
7.46659e-06
7.31226e-06
7.90269e-06
6.88001e-06
1.90202e-07
1.89821e-07
5.40285e-06
4.72173e-06
4.27355e-06
4.12791e-06
1.30085e-06
5.21022e-06
5.21007e-06
5.25266e-06
5.28961e-06
3.21168e-06
6.28188e-06
6.90607e-06
8.63239e-07
9.60161e-06
1.49249e-06
3.20092e-06
2.10976e-06
9.29912e-06
9.70598e-06
2.12488e-06
8.44511e-06
2.11244e-06
7.09373e-06
3.09216e-06
6.41166e-06
7.03522e-06
1.46721e-06
5.39227e-06
5.42189e-06
5.34644e-06
5.31841e-06
1.19132e-06
7.80758e-06
6.96605e-06
1.27382e-06
9.4288e-06
6.05195e-06
9.3462e-06
8.31349e-06
2.51285e-07
9.07147e-06
9.83895e-06
7.11985e-06
1.76277e-06
5.511e-06
3.80751e-06
9.39544e-06
7.45973e-06
4.75595e-06
8.68584e-06
5.07985e-06
9.54835e-06
9.82726e-06
9.35915e-06
8.5237e-06
7.68072e-06
1.21941e-06
6.65404e-06
2.29186e-06
7.22949e-06
4.89197e-06
7.81349e-06
9.41495e-06
9.2884e-06
9.32587e-06
7.81261e-06
9.63223e-06
1.52017e-06
2.08206e-06
9.60867e-06
7.79137e-06
6.92794e-06
9.78231e-06
9.60085e-06
9.6719e-06
1.80432e-06
9.28232e-06
9.05413e-06
5.94562e-06
7.07401e-06
6.78797e-06
3.63661e-06
3.84359e-06
4.29115e-06
2.76089e-06
6.71537e-06
7.3225e-06
5.69059e-06
5.71606e-06
5.64682e-06
8.97954e-07
3.3379e-06
3.99302e-06
7.00936e-06
2.44843e-06
5.98881e-06
6.00039e-06
3.05072e-06
3.70263e-06
6.28859e-06
2.14644e-06
2.76514e-06
1.84819e-06
2.48002e-06
2.1944e-06
1.316e-06
4.64631e-06
4.61795e-06
1.02303e-06
8.18089e-06
4.09353e-06
7.87567e-06
9.36172e-06
2.71067e-06
9.40386e-06
9.79672e-06
1.71859e-06
9.83105e-06
9.31182e-06
9.4419e-06
6.88215e-06
1.48099e-06
9.83592e-06
9.83943e-06
6.99108e-06
7.13918e-06
9.41826e-06
9.85632e-06
5.20987e-06
3.48855e-06
9.81556e-06
9.68594e-06
6.57753e-06
8.58478e-07
9.41991e-06
3.49455e-06
3.05135e-06
2.60177e-06
2.14499e-06
9.80597e-06
1.68079e-06
2.27634e-06
7.99634e-06
8.40974e-06
9.83239e-06
9.77116e-06
4.2553e-06
4.49799e-06
9.71236e-06
4.33778e-06
4.31114e-06
7.68424e-06
5.06985e-06
6.1987e-06
9.83934e-06
9.15782e-06
4.05365e-07
5.79975e-06
1.36825e-06
6.35412e-06
3.78022e-06
9.48742e-06
7.05867e-06
1.82231e-06
4.31008e-06
5.87298e-06
6.79343e-06
2.00742e-06
7.10817e-06
9.84193e-06
7.27738e-06
2.56677e-06
9.83212e-06
9.83456e-06
7.23572e-07
9.8551e-06
5.65735e-07
9.33271e-06
4.73876e-06
7.89629e-06
3.31242e-06
9.41974e-06
2.21876e-07
4.12884e-07
6.62834e-06
5.20468e-07
3.84363e-07
4.70962e-06
7.25562e-06
2.89547e-06
4.37898e-07
4.73598e-06
9.84239e-06
1.96754e-06
3.19041e-06
9.80392e-06
4.74297e-07
9.37498e-06
2.29675e-06
6.82038e-06
3.1811e-06
5.67299e-06
4.77984e-06
6.06191e-06
8.72517e-06
9.85011e-06
6.01186e-06
8.69074e-06
7.01663e-06
3.27328e-06
9.37513e-06
9.53584e-06
1.44276e-06
7.47193e-06
9.85584e-06
9.82611e-06
6.78384e-06
6.27749e-06
9.36859e-06
3.99307e-06
4.01767e-06
9.70633e-06
3.33239e-07
7.91176e-06
7.07852e-06
2.30521e-06
4.66079e-06
8.18873e-06
2.93278e-06
5.54375e-06
7.16547e-06
9.85296e-06
3.80073e-07
6.51009e-06
5.96563e-06
7.89951e-06
5.31062e-06
5.88931e-06
3.7284e-06
8.90253e-06
9.82767e-06
6.91859e-06
7.92016e-06
9.84577e-06
4.51144e-06
4.48326e-06
2.31533e-06
1.9825e-06
6.14664e-06
3.82472e-06
5.51729e-06
3.96653e-06
3.32966e-06
6.67047e-06
9.1574e-06
7.49487e-06
3.06335e-06
9.85e-06
4.5132e-06
5.98835e-06
9.21702e-06
5.06031e-06
7.04896e-06
5.36644e-06
9.79915e-06
9.66525e-06
8.79214e-06
9.39965e-06
6.17421e-06
9.67637e-06
6.70792e-06
9.4474e-06
9.3358e-06
9.42113e-06
2.47765e-06
3.87606e-06
4.02051e-06
7.78769e-06
8.58908e-06
5.42819e-06
9.52877e-06
9.84822e-06
7.58819e-06
6.59784e-06
6.1568e-06
4.667e-06
8.30081e-07
5.31378e-06
9.40041e-06
9.85219e-06
6.84592e-06
8.55511e-06
4.03979e-06
9.37944e-06
6.71756e-06
3.4062e-06
5.529e-06
3.1732e-06
9.85406e-06
3.98294e-06
9.94281e-07
4.27851e-06
6.0022e-06
6.52002e-06
5.35414e-06
4.27467e-06
9.2097e-06
9.84121e-06
9.21257e-06
6.80532e-06
4.77742e-06
7.60594e-06
6.62194e-06
8.26499e-06
9.83986e-06
7.70638e-06
6.32222e-06
9.66096e-06
9.45586e-06
6.32587e-06
7.19571e-06
6.18769e-06
7.51333e-06
5.50794e-06
2.31211e-06
9.12261e-07
8.97315e-07
1.65327e-06
1.68008e-06
1.6738e-06
4.18096e-06
4.20701e-06
4.54835e-06
4.54575e-06
5.97453e-06
6.41986e-06
8.02708e-06
8.20617e-07
1.17032e-06
-5.31221e-08
9.57684e-06
4.46914e-06
9.41535e-08
9.46824e-06
9.3371e-06
7.37399e-06
3.83761e-06
3.81142e-06
4.67044e-06
8.58892e-06
2.89067e-06
4.71764e-06
6.36959e-06
7.66205e-06
4.393e-06
7.03191e-06
2.70239e-06
9.46735e-06
7.2468e-06
9.82958e-06
9.83404e-06
6.82988e-07
9.38856e-06
4.22559e-06
4.25617e-06
9.85154e-06
5.65458e-06
1.54173e-06
9.42421e-06
7.19413e-07
3.8709e-06
6.53792e-06
6.21928e-06
7.31947e-06
2.41477e-06
4.52403e-07
1.40689e-06
7.3275e-06
6.38906e-06
9.56616e-06
9.82463e-06
5.71105e-06
6.86433e-06
9.50267e-07
4.56854e-06
4.04241e-06
7.67563e-06
9.65342e-06
9.81466e-06
8.19427e-06
5.11973e-07
8.41471e-06
3.42663e-06
3.55093e-06
5.78378e-06
5.05688e-06
3.64024e-06
5.35211e-06
7.5243e-06
8.12723e-06
3.77709e-06
3.80055e-06
3.64078e-06
3.19905e-06
2.75324e-06
2.29825e-06
9.43236e-06
1.83642e-06
6.78532e-06
4.11674e-06
9.85218e-06
9.83442e-06
9.28232e-06
7.14038e-06
7.82085e-06
6.04588e-06
8.03896e-06
6.39228e-06
8.70809e-06
5.21636e-06
9.74854e-06
5.77615e-06
4.08928e-06
9.79719e-06
6.06907e-06
7.37624e-06
1.91367e-06
1.38709e-06
2.35434e-06
2.7945e-06
4.57572e-06
3.24006e-06
4.58469e-06
9.34792e-07
9.40713e-06
9.52482e-06
8.33389e-06
8.17383e-06
4.14195e-07
4.19341e-07
4.9382e-06
3.76678e-06
6.50307e-06
9.30127e-06
9.21662e-06
9.85328e-06
9.84546e-06
9.68644e-06
8.10926e-06
9.41546e-06
9.3288e-06
1.8613e-06
9.81932e-06
5.22655e-06
6.81738e-06
8.41379e-06
9.83745e-06
8.40282e-06
2.16837e-06
7.43505e-06
2.89901e-06
9.44522e-06
7.89153e-06
7.4781e-06
9.36231e-06
9.43861e-06
5.94842e-07
9.67682e-06
8.90818e-07
1.19008e-06
2.60437e-06
2.89206e-06
2.27946e-06
3.17715e-06
6.8919e-06
5.85288e-06
5.8908e-06
2.5827e-06
4.1185e-06
3.46628e-06
5.55487e-06
5.5958e-06
6.58853e-06
7.20631e-06
2.89796e-06
4.41926e-06
3.7756e-06
9.57059e-06
2.0818e-06
7.05057e-06
8.93974e-06
9.45567e-06
4.20317e-06
8.097e-06
3.1473e-06
5.93588e-06
9.76944e-06
2.11637e-06
9.3995e-06
9.8531e-06
8.13702e-06
5.84929e-06
9.4803e-06
6.36823e-06
1.06892e-06
9.01033e-06
7.6106e-06
7.67271e-06
4.84604e-06
6.96938e-06
2.29529e-06
3.06563e-06
7.7484e-06
9.80878e-06
3.68253e-06
9.72424e-06
3.66021e-06
9.85256e-06
9.07405e-06
9.85096e-06
5.90272e-06
9.45059e-06
4.75609e-06
6.849e-07
2.35047e-06
9.22691e-06
4.35189e-06
9.8378e-06
4.03015e-07
1.02295e-06
7.15318e-06
7.91867e-06
6.66773e-06
9.47726e-06
7.0428e-06
4.92115e-06
3.77371e-06
4.33357e-07
3.77179e-06
1.83601e-06
5.66785e-06
4.12256e-06
3.67967e-06
6.29158e-06
1.44612e-06
4.11989e-06
3.81381e-06
4.66033e-06
4.63019e-06
2.17215e-06
4.30308e-06
6.72767e-06
1.87793e-06
1.74942e-06
8.85875e-06
4.33041e-06
9.58397e-06
9.08415e-06
5.74819e-07
6.12402e-07
5.6279e-06
9.43909e-06
2.28482e-06
2.24757e-06
1.26122e-06
5.03101e-06
4.58808e-06
9.43922e-06
9.41476e-06
8.87183e-06
7.97132e-06
5.92415e-06
9.84533e-06
9.812e-06
8.32114e-06
5.61908e-06
5.63266e-06
9.85437e-06
4.18134e-06
3.59025e-06
7.57938e-06
9.77381e-06
8.57842e-06
8.57287e-06
1.28947e-06
2.2722e-06
3.81775e-06
7.8439e-06
9.64506e-06
2.63634e-06
1.09183e-06
2.04528e-06
9.76024e-06
9.85692e-06
9.75673e-06
7.49605e-06
9.58502e-06
8.00295e-06
2.5415e-06
9.82646e-06
9.2926e-06
3.6221e-06
8.32347e-06
7.28593e-06
6.20613e-06
3.38758e-06
9.76828e-06
9.81097e-06
9.77547e-06
9.85397e-06
7.94162e-06
8.49361e-06
9.26483e-06
5.15924e-06
3.5266e-06
1.70185e-06
9.7113e-06
2.16083e-06
2.61196e-06
3.06496e-06
3.52646e-06
9.30871e-06
9.52326e-06
5.84297e-06
9.84975e-06
1.42172e-06
9.46438e-06
1.97279e-06
7.27338e-06
4.82538e-06
9.61485e-06
3.67774e-06
6.92871e-07
7.04083e-07
8.39548e-06
7.43201e-06
1.40631e-06
1.39432e-06
9.40239e-06
2.13994e-06
3.95064e-06
9.76024e-06
2.13872e-06
6.38647e-06
6.82295e-06
8.04684e-06
9.308e-06
2.14546e-06
9.79022e-06
5.34753e-06
5.46235e-06
3.21865e-06
2.4385e-06
6.02328e-06
3.76568e-06
9.82546e-06
4.06985e-06
4.04429e-06
6.8677e-06
7.26657e-06
9.84964e-06
1.38838e-06
8.06574e-06
4.27577e-07
4.3407e-07
7.55908e-06
2.21897e-06
9.84753e-06
1.898e-06
7.39809e-07
1.22358e-06
9.34709e-06
9.83195e-06
8.7047e-06
8.21275e-07
8.12672e-07
1.54988e-06
1.53651e-06
1.56583e-06
4.81802e-06
3.25079e-06
3.25612e-06
9.36953e-06
8.90455e-06
9.56149e-06
2.86434e-06
9.77541e-06
1.25887e-06
1.24811e-06
6.14233e-06
9.39338e-06
3.33493e-06
9.84727e-06
9.70965e-06
9.47604e-06
8.20144e-06
2.06203e-06
9.84365e-06
2.83223e-06
1.39844e-06
4.63943e-06
1.26562e-06
5.19758e-06
5.20782e-06
1.58852e-06
6.903e-06
6.28194e-06
3.19111e-06
5.25251e-06
5.28727e-06
8.64133e-07
9.81581e-06
6.03168e-06
7.25437e-06
9.64937e-06
8.91978e-06
1.98871e-06
9.76585e-06
9.54664e-06
7.59509e-06
1.99038e-06
5.03403e-06
3.65265e-06
9.51787e-06
2.67406e-06
8.39097e-06
2.00896e-06
1.85652e-06
2.3113e-06
2.76252e-06
3.219e-06
3.65432e-06
9.28988e-06
7.65115e-06
8.11808e-06
4.48483e-06
6.75716e-06
2.6518e-06
9.11244e-06
6.53088e-06
8.75807e-06
9.42856e-06
9.816e-06
8.80063e-06
6.07135e-06
9.62271e-06
9.79195e-06
8.53847e-06
9.37836e-06
5.48151e-06
3.22027e-06
7.7718e-06
9.4173e-06
9.76472e-06
4.70148e-06
4.51149e-06
6.51792e-06
9.51638e-06
9.2941e-06
6.21934e-06
6.12663e-06
7.76736e-06
8.62363e-06
5.92986e-06
5.29308e-06
9.85262e-06
9.39921e-06
6.42603e-06
5.61647e-06
4.14782e-06
4.17394e-06
9.47396e-06
1.8113e-06
8.52508e-06
3.21777e-06
2.76691e-06
2.31243e-06
1.85526e-06
3.54707e-06
9.748e-06
1.6444e-06
5.97469e-06
9.84256e-06
9.60769e-06
1.11686e-06
5.96603e-06
6.29775e-07
8.23103e-06
4.89009e-06
8.62027e-06
3.78233e-07
3.71638e-07
9.93445e-06
4.06399e-06
9.82484e-06
9.75587e-06
9.08921e-06
3.51165e-06
6.15287e-07
6.81268e-07
9.42876e-06
9.85216e-06
9.82946e-06
7.16631e-06
4.65038e-06
9.76817e-06
9.80363e-07
7.79062e-06
9.8303e-06
5.02133e-06
3.6732e-06
7.42843e-06
3.67009e-06
9.32241e-06
9.81597e-06
7.83138e-06
6.08371e-06
9.36148e-06
8.34171e-06
9.45571e-06
9.85399e-06
9.38464e-06
4.76204e-07
9.6323e-06
9.01906e-06
9.85227e-06
9.52158e-06
7.63413e-06
8.54423e-06
9.82438e-06
9.81167e-06
9.86116e-06
4.42503e-06
9.8744e-06
9.67476e-06
5.45168e-06
9.64323e-06
8.07771e-06
5.78329e-06
1.61789e-06
8.41084e-06
8.56987e-06
6.46079e-06
1.78201e-06
6.91646e-06
4.58189e-06
9.07883e-06
6.50522e-07
9.36567e-06
9.60683e-06
7.2917e-08
9.85149e-06
9.35998e-07
9.30243e-07
1.68035e-06
1.69581e-06
1.70548e-06
8.32643e-06
9.29807e-06
1.39252e-06
7.86441e-07
6.53836e-06
4.72817e-06
4.72253e-06
3.08993e-06
1.22957e-06
2.65094e-06
2.21026e-06
1.7432e-06
2.46698e-07
6.29166e-06
5.03569e-06
5.01874e-06
1.4356e-06
1.00011e-06
3.35853e-06
6.12291e-06
6.72124e-06
1.74212e-06
5.06724e-06
5.10083e-06
7.67794e-06
5.72338e-06
9.05662e-06
7.67325e-06
9.82284e-06
9.7397e-06
9.79511e-06
2.64915e-07
4.25413e-06
9.83184e-06
9.77867e-06
9.59232e-06
4.02671e-06
4.00133e-06
8.78034e-06
4.08512e-07
7.88987e-06
8.18487e-06
6.11023e-06
4.95967e-06
4.97157e-06
9.28666e-07
2.79522e-06
2.35868e-06
1.89937e-06
9.68406e-06
8.11591e-06
4.56989e-06
4.58666e-06
3.24178e-06
1.39701e-06
8.36444e-06
9.74282e-06
2.73183e-06
4.43043e-06
9.34929e-06
9.80252e-06
3.45505e-06
7.73178e-06
1.32847e-06
9.74239e-06
9.87757e-06
9.33542e-06
9.69844e-06
1.37633e-07
9.85247e-06
9.49004e-06
2.26859e-06
7.57836e-06
5.36327e-06
3.33273e-06
1.2164e-06
1.14435e-06
9.84971e-06
1.94835e-06
1.97387e-06
9.84577e-06
9.84753e-06
2.55837e-06
2.26098e-06
1.00024e-06
9.74717e-06
5.86711e-06
9.69123e-06
3.94667e-06
1.60687e-06
9.40059e-06
1.99112e-06
2.45046e-06
2.90321e-06
3.34607e-06
9.814e-06
9.76828e-06
9.84556e-06
5.23414e-06
3.15372e-06
8.14142e-06
8.34308e-06
9.0182e-06
9.64147e-06
9.15636e-06
1.95571e-06
9.83519e-06
7.90809e-06
9.32963e-06
4.2382e-07
4.21911e-07
8.92232e-06
9.84271e-06
9.42321e-06
5.28107e-06
3.16577e-06
7.01533e-06
8.07644e-06
5.69906e-06
3.33567e-06
9.65984e-06
8.17662e-06
9.49555e-06
9.73786e-06
2.20145e-06
6.27124e-06
2.11055e-06
6.71385e-07
4.3425e-06
9.19409e-06
1.52498e-06
2.11647e-06
9.4531e-07
9.62136e-07
5.79019e-06
9.84976e-06
1.70455e-06
1.68881e-06
1.66964e-06
6.12551e-06
9.43705e-06
9.84436e-06
9.20309e-06
9.45271e-06
9.83546e-06
5.3896e-06
5.3549e-06
6.99637e-06
5.28865e-06
9.84897e-06
6.44543e-06
1.30623e-06
5.30933e-06
3.25097e-06
1.50264e-06
6.37648e-06
9.83336e-06
9.6884e-06
1.49322e-06
1.50844e-06
5.03541e-06
7.11538e-06
7.57408e-06
9.84612e-06
9.66179e-06
1.35281e-06
1.34989e-06
7.60968e-06
9.39358e-06
2.08668e-06
4.44631e-06
9.52985e-06
2.2929e-06
9.3458e-06
1.47262e-06
6.29461e-06
9.75721e-06
9.23021e-06
7.69758e-07
1.18632e-06
3.60719e-06
6.74965e-06
7.21488e-06
4.97668e-06
5.65432e-06
4.65094e-06
8.48758e-06
9.53084e-06
7.83111e-06
3.58712e-06
1.78577e-06
2.74896e-06
3.20047e-06
5.82852e-06
9.84483e-06
9.8083e-06
6.71217e-07
9.82085e-06
3.76078e-06
2.44577e-06
1.33308e-06
3.96095e-06
7.68512e-06
5.08367e-06
1.98266e-06
4.41066e-06
4.05357e-06
9.46412e-06
9.80909e-06
3.13612e-06
7.61577e-06
8.69667e-06
2.90074e-06
3.34458e-06
4.94267e-06
3.61777e-07
9.43182e-06
2.12954e-06
2.43681e-06
5.05404e-07
2.4045e-06
2.88136e-06
6.58593e-06
7.20665e-06
5.54714e-06
5.59353e-06
5.51687e-06
5.50607e-06
9.85792e-07
9.78288e-06
1.78503e-06
1.82373e-06
1.06324e-06
1.00183e-06
3.25913e-06
1.64241e-06
1.71708e-06
6.46228e-06
2.90647e-06
4.21871e-07
9.64038e-06
9.62418e-07
3.47164e-06
4.11549e-06
2.57284e-06
6.89554e-06
5.89822e-06
5.84825e-06
7.50631e-06
1.8323e-06
2.09406e-06
1.10224e-06
2.5234e-06
1.15281e-06
9.21359e-06
3.18759e-06
3.82433e-06
6.17782e-06
2.28079e-06
6.14738e-06
7.19661e-06
2.89914e-06
1.98812e-06
2.606e-06
2.31074e-06
1.46433e-06
7.47891e-06
1.17608e-06
2.95653e-06
4.82733e-06
4.48565e-06
4.45838e-06
2.01303e-06
1.1027e-06
1.11356e-06
9.83499e-06
1.05417e-06
1.06932e-06
8.34243e-07
3.72273e-06
9.70086e-06
3.71647e-06
1.82221e-06
1.45699e-06
9.35993e-06
1.82897e-06
1.85778e-06
1.80631e-06
9.09792e-06
1.84005e-06
1.83329e-06
9.06401e-07
8.66465e-06
9.44812e-06
3.53313e-06
9.86843e-06
7.59359e-06
4.60049e-06
2.9102e-06
3.34896e-06
9.00998e-07
4.26808e-06
5.52692e-06
7.4957e-06
1.42105e-06
1.35723e-06
8.71592e-06
1.38972e-07
4.9846e-07
7.77457e-06
4.2792e-06
4.28309e-06
7.77093e-06
9.83964e-06
1.62611e-06
5.32076e-06
5.35575e-06
3.25012e-06
5.64628e-06
7.70843e-06
1.28158e-06
5.27513e-06
5.14564e-06
9.84832e-06
7.44456e-07
7.7977e-06
4.62816e-06
5.89609e-06
6.24769e-06
6.96442e-06
4.07138e-06
4.0769e-06
1.29094e-06
7.85716e-07
2.56174e-06
7.1074e-06
4.69829e-06
5.83723e-06
6.63858e-06
1.40376e-06
1.68608e-06
1.53018e-06
9.8436e-06
2.4334e-06
3.3582e-06
9.76161e-06
2.66886e-06
2.23291e-06
1.83596e-06
2.01569e-06
3.10785e-06
3.98433e-06
1.24848e-06
7.6348e-06
6.94585e-06
5.483e-06
1.53911e-06
1.59755e-06
8.82876e-06
3.65529e-06
5.82504e-06
3.5308e-06
6.43063e-06
1.69736e-06
2.02322e-06
4.77633e-06
4.80583e-06
4.53985e-06
1.10541e-06
1.84863e-06
6.17967e-06
6.04398e-06
2.41844e-06
2.31361e-06
4.59378e-06
2.54343e-06
6.88503e-06
7.21226e-06
6.20802e-06
9.84416e-06
5.14968e-06
6.48696e-06
9.2033e-06
1.16998e-06
9.26552e-07
4.71635e-06
1.82182e-06
3.82068e-06
2.6758e-06
3.70906e-06
7.36504e-06
8.30816e-07
2.60997e-06
4.04139e-06
4.0143e-06
5.44985e-06
5.45795e-06
7.07305e-06
7.56362e-06
4.02198e-06
3.99683e-06
4.41099e-06
4.56834e-06
2.31349e-06
2.75949e-06
3.20882e-06
3.67941e-06
3.34511e-06
6.57726e-06
5.83639e-06
5.01295e-06
3.64206e-06
5.20161e-06
1.57891e-06
9.69446e-07
5.40417e-06
6.0127e-07
9.32361e-06
7.24897e-06
9.83501e-06
3.60561e-06
2.17979e-06
6.77964e-06
2.28842e-06
6.29096e-06
5.27282e-06
3.47973e-06
1.70037e-06
6.32496e-06
2.61525e-06
2.28464e-06
9.76093e-07
2.8455e-06
6.73065e-06
7.41918e-06
3.40639e-06
5.50177e-06
4.30346e-07
4.36284e-07
5.67146e-06
8.6127e-06
3.94823e-06
4.42622e-06
4.41856e-06
4.03471e-06
4.00887e-06
3.84694e-06
4.87864e-06
2.25581e-06
4.05522e-06
2.11988e-06
7.7467e-07
1.4058e-06
2.02054e-06
2.762e-06
3.05659e-06
6.13991e-06
6.33917e-06
4.24666e-06
4.11591e-06
5.98656e-06
7.33174e-06
5.6992e-06
5.71496e-06
3.9742e-06
4.60111e-06
4.57384e-06
1.04892e-06
5.68902e-06
1.92008e-06
2.1649e-06
2.14247e-06
2.46793e-06
9.10049e-07
2.13407e-06
7.52099e-06
5.9095e-06
5.84742e-06
7.04849e-06
6.20167e-06
2.31905e-06
1.99621e-06
6.07346e-06
2.46143e-06
1.85557e-06
3.72554e-06
1.51584e-06
8.60688e-06
3.51321e-06
5.35367e-06
3.06147e-06
3.51188e-06
4.30008e-06
4.26497e-06
4.89772e-06
3.2029e-06
4.11936e-06
4.94237e-06
1.13713e-06
9.84301e-06
1.04136e-06