/*--------------------------------*- C++ -*----------------------------------*\
  =========                 |
  \\      /  F ield         | OpenFOAM: The Open Source CFD Toolbox
   \\    /   O peration     | Website:  https://openfoam.org
    \\  /    A nd           | Version:  8
     \\/     M anipulation  |
\*---------------------------------------------------------------------------*/
FoamFile
{
    version     2.0;
    format      ascii;
    class       volScalarField;
    location    "9";
    object      p;
}
// * * * * * * * * * * * * * * * * * * * * * * * * * * * * * * * * * * * * * //

dimensions      [0 2 -2 0 0 0 0];

internalField   nonuniform List<scalar> 
1642
(
8.01503e-05
6.64781e-05
6.55725e-05
6.94925e-05
8.01802e-05
8.01312e-05
7.99572e-05
8.00071e-05
7.98647e-05
8.00589e-05
7.1547e-05
7.94195e-05
8.00883e-05
8.0024e-05
8.0001e-05
7.95061e-05
8.0113e-05
8.01395e-05
8.01689e-05
8.01622e-05
8.0078e-05
7.99369e-05
8.00494e-05
7.93378e-05
8.01026e-05
7.99306e-05
8.01453e-05
7.73226e-05
1.57403e-06
1.4356e-06
1.38803e-06
8.01145e-05
7.83053e-05
8.01472e-05
8.01276e-05
7.99962e-05
7.93411e-05
8.01426e-05
8.00614e-05
8.00198e-05
8.01245e-05
8.01684e-05
8.01645e-05
5.99094e-05
8.26589e-05
8.01084e-05
8.01526e-05
8.01534e-05
8.01598e-05
8.00558e-05
8.01695e-05
8.01309e-05
8.01538e-05
6.96206e-05
7.05445e-05
7.99636e-05
7.99197e-05
8.01353e-05
7.92252e-05
8.02594e-05
8.01326e-05
8.01275e-05
8.0162e-05
7.96571e-05
8.00105e-05
8.01622e-05
8.01566e-05
8.01628e-05
7.99602e-05
8.0172e-05
8.01778e-05
8.01077e-05
8.01796e-05
8.01971e-05
8.00567e-05
7.96668e-05
5.12733e-07
5.59927e-07
5.97707e-07
8.01161e-05
8.01604e-05
8.01614e-05
7.91523e-05
8.00322e-05
8.14627e-05
7.97443e-05
7.9886e-05
8.00927e-05
7.98438e-05
8.01407e-05
8.00698e-05
8.00801e-05
7.9801e-05
7.99479e-05
8.00133e-05
8.00613e-05
8.0089e-05
8.0044e-05
8.00648e-05
7.99031e-05
7.99281e-05
7.95539e-05
8.01212e-05
2.5657e-05
2.70504e-05
2.91855e-05
2.91642e-05
3.58767e-05
2.24945e-05
1.97278e-05
3.65917e-05
2.22248e-05
3.58577e-05
8.65923e-06
8.97893e-06
6.49499e-06
6.20932e-06
3.56794e-06
4.75482e-05
5.22007e-05
6.26709e-06
4.84814e-05
4.70362e-05
7.97177e-05
8.00165e-05
8.02082e-05
8.01038e-05
8.01492e-05
8.00789e-05
8.00528e-05
8.01944e-05
8.00952e-05
8.01382e-05
8.09132e-05
8.0158e-05
8.01606e-05
8.00892e-05
8.01764e-05
8.0107e-05
7.92311e-05
8.00676e-05
8.01634e-05
8.01607e-05
8.01856e-05
7.99985e-05
8.01331e-05
8.01633e-05
8.01656e-05
8.0109e-05
8.00937e-05
8.01312e-05
8.0145e-05
8.01553e-05
8.01321e-05
7.95925e-05
8.01542e-05
8.01671e-05
8.01688e-05
8.01303e-05
8.01099e-05
8.01667e-05
8.01627e-05
8.01297e-05
7.9976e-05
8.01502e-05
8.0149e-05
8.01693e-05
8.0153e-05
8.01394e-05
7.99759e-05
8.00529e-05
8.01484e-05
8.01696e-05
8.01616e-05
8.01214e-05
8.01514e-05
8.00644e-05
8.01114e-05
8.0119e-05
8.13222e-05
7.98741e-05
8.01651e-05
7.95492e-05
8.017e-05
8.01654e-05
8.00657e-05
8.01597e-05
8.01585e-05
8.00555e-05
7.99499e-05
7.99651e-05
8.0158e-05
8.01619e-05
8.00774e-05
8.02086e-05
8.0055e-05
7.97094e-05
8.01571e-05
7.9996e-05
8.01088e-05
8.016e-05
8.01674e-05
7.97878e-05
7.99896e-05
7.99268e-05
8.01627e-05
8.01213e-05
2.73564e-05
2.34996e-05
2.17383e-05
2.2046e-05
2.36748e-05
2.80165e-05
2.88309e-05
2.43846e-05
3.79104e-05
2.79326e-05
3.87331e-05
2.25628e-05
2.63937e-05
3.14063e-05
2.11929e-05
3.30312e-05
1.46344e-05
2.97833e-05
2.17274e-05
2.2574e-05
4.60882e-05
2.44485e-05
2.08733e-05
3.94219e-05
2.862e-05
3.20832e-05
2.28244e-05
3.04569e-05
2.55777e-05
2.69662e-05
3.37066e-05
4.19613e-05
1.92608e-05
4.68577e-05
2.95793e-05
4.0383e-05
4.86169e-05
1.95895e-05
6.90386e-06
4.10237e-05
4.78869e-05
4.85823e-05
6.61556e-06
6.58165e-06
3.46451e-05
5.03008e-05
4.76052e-05
1.06578e-05
1.01768e-05
1.28515e-05
4.54721e-05
3.10242e-05
1.10043e-05
4.51731e-05
4.33208e-05
4.41207e-05
6.86785e-06
4.78544e-05
4.24385e-05
2.08466e-05
3.28756e-05
5.03463e-05
3.87516e-05
4.24855e-05
9.84228e-06
1.28427e-05
4.16558e-05
4.46707e-05
5.44457e-05
4.04439e-05
3.61594e-05
3.54513e-05
3.68765e-05
2.03828e-05
1.17969e-05
3.61489e-05
5.32221e-05
5.04848e-06
1.42997e-05
3.02694e-05
4.68952e-05
1.42701e-05
3.35303e-05
1.39043e-05
1.90555e-05
3.81064e-05
1.79598e-05
1.1438e-05
3.19128e-05
5.00312e-06
5.59977e-05
5.99892e-05
3.45072e-05
1.02121e-05
7.38219e-06
9.34535e-06
1.63831e-05
7.68081e-06
3.01492e-05
1.43376e-06
1.90363e-05
8.19388e-06
9.02252e-06
8.50394e-06
2.00473e-05
4.43916e-05
5.21492e-05
3.86078e-05
1.3874e-05
1.72598e-05
1.01862e-05
2.26129e-05
3.52181e-06
5.91988e-05
2.36387e-05
2.98211e-06
2.96432e-05
5.04037e-05
5.72922e-05
2.9445e-05
4.68494e-05
1.25839e-06
3.54307e-05
4.0235e-05
4.32676e-05
7.58688e-06
1.26366e-05
2.89719e-05
1.30834e-05
9.31002e-06
7.55114e-06
2.52351e-05
1.99264e-05
1.81758e-05
2.58623e-05
5.12223e-05
2.74734e-05
1.22665e-05
5.21306e-05
5.57892e-05
5.45945e-05
1.87563e-05
1.22588e-05
3.77343e-05
4.67065e-05
9.32777e-06
5.74972e-05
1.34661e-05
2.81712e-06
1.26293e-05
3.03785e-06
5.76125e-05
1.76043e-05
2.6121e-05
2.41798e-05
2.28587e-05
2.50259e-05
2.41952e-05
1.83915e-05
2.7031e-05
3.6965e-05
2.61387e-05
5.75634e-05
1.66162e-06
3.53062e-05
3.53279e-05
1.594e-05
2.33499e-05
5.14529e-05
3.45481e-05
4.3764e-05
4.41465e-05
3.96609e-05
3.61877e-05
3.79543e-05
1.46073e-05
2.5003e-05
1.67673e-05
1.55174e-05
2.65454e-05
5.82438e-06
2.8166e-05
2.44953e-05
3.77801e-05
5.10828e-05
2.69985e-05
6.09783e-06
4.7039e-05
3.73028e-06
5.4541e-05
1.95693e-05
3.12236e-05
1.63304e-05
4.75463e-05
3.27918e-05
3.89977e-05
6.72161e-06
4.24364e-06
1.19555e-05
5.82596e-06
3.12708e-05
4.2551e-05
1.55108e-05
3.35557e-05
3.86026e-05
4.50142e-05
1.63921e-05
4.83861e-05
4.77449e-05
4.63574e-05
5.79206e-06
5.01217e-05
2.87547e-05
6.06623e-06
3.177e-05
9.32166e-06
5.8673e-06
1.37414e-05
3.49984e-06
3.22184e-05
1.19763e-05
3.36935e-05
2.16893e-05
3.98851e-05
4.15336e-05
4.05988e-05
1.67498e-05
1.63192e-05
3.63205e-05
4.88335e-05
3.44202e-05
4.53429e-05
2.34593e-05
3.52004e-05
4.90168e-05
3.28958e-05
2.08037e-05
1.37236e-05
1.75716e-05
1.14606e-05
1.92236e-05
4.51449e-05
1.18189e-05
3.05916e-05
5.32699e-05
3.70016e-05
3.70691e-05
3.53324e-05
4.31455e-05
3.40294e-06
1.59286e-05
4.48137e-05
1.72851e-05
3.10924e-05
2.77019e-06
3.19019e-05
4.92351e-05
4.33819e-05
4.84102e-05
5.19363e-05
3.38386e-05
4.43053e-05
3.27306e-05
5.41318e-05
4.57588e-05
5.78022e-05
4.15097e-05
5.22011e-05
4.58652e-05
4.23912e-05
8.42648e-06
4.15928e-06
2.20106e-05
2.96446e-05
3.62646e-05
1.10696e-05
2.19017e-06
2.16991e-05
2.04114e-05
1.6714e-05
8.5127e-06
2.52596e-05
4.98101e-05
2.73397e-05
3.95153e-05
4.13508e-05
1.79435e-05
4.45185e-05
3.26526e-05
4.30542e-05
2.58271e-05
3.45195e-05
6.33986e-05
2.38013e-06
3.95589e-05
4.3836e-05
4.49297e-06
6.11828e-05
3.05287e-05
4.40411e-05
1.5098e-05
1.46908e-05
2.76859e-05
4.68477e-05
3.43802e-05
3.60289e-05
1.01466e-05
4.93905e-05
1.71316e-05
2.78784e-05
2.33782e-05
1.25621e-05
4.99492e-05
2.00828e-05
1.34474e-05
1.30638e-05
5.32804e-05
5.13452e-05
5.58015e-05
2.32768e-06
2.38006e-05
4.07683e-05
8.20103e-06
2.63237e-06
4.1773e-05
4.06211e-05
3.88441e-05
6.24953e-05
5.30517e-06
3.9731e-05
2.39483e-05
4.50494e-06
4.50811e-05
1.84456e-05
2.44893e-05
4.6036e-05
6.68347e-06
2.13651e-06
2.60646e-05
8.99893e-06
5.43936e-05
2.43467e-05
4.2217e-05
4.26847e-05
9.81161e-06
2.70968e-06
1.99432e-05
5.39415e-05
4.58883e-05
2.82936e-05
1.47133e-05
2.8499e-05
3.75557e-06
1.49961e-05
4.285e-05
2.53128e-05
4.11888e-05
2.79274e-05
1.06226e-05
8.4532e-06
5.26299e-06
1.17489e-05
2.77946e-05
3.72153e-05
2.68743e-05
4.94218e-05
3.15866e-05
2.82249e-05
1.29361e-05
4.92854e-05
4.34303e-05
1.71469e-05
4.61554e-05
2.52546e-05
2.61401e-05
2.87589e-05
1.87767e-05
3.20544e-05
3.04015e-05
2.93141e-05
2.99955e-05
2.72065e-05
3.7867e-05
2.91086e-05
2.47633e-05
4.76731e-05
2.55712e-05
7.41103e-06
2.66489e-05
3.82349e-05
4.98277e-06
1.04596e-05
1.09699e-05
7.7123e-06
3.36691e-05
2.3663e-05
1.58086e-05
2.12407e-05
3.49027e-05
2.64566e-05
3.70872e-05
4.81749e-05
4.26526e-06
1.8145e-05
3.32432e-05
4.61794e-05
1.10992e-05
3.40797e-05
1.84862e-05
4.31814e-06
1.51202e-05
3.40719e-05
1.14002e-05
2.2522e-05
1.75989e-05
1.01202e-05
4.66049e-05
1.66229e-05
4.56444e-05
4.68009e-05
2.46862e-05
3.8488e-05
4.58185e-06
4.86036e-05
3.01312e-05
1.37606e-05
4.24672e-05
1.54092e-05
3.93728e-05
4.08079e-05
2.09155e-05
1.31728e-05
4.11398e-05
1.9068e-05
1.70604e-05
1.74391e-05
1.78874e-05
2.58859e-06
2.83356e-06
3.98489e-05
3.89698e-05
1.76166e-06
3.90389e-05
1.3374e-05
3.2417e-05
1.2111e-05
1.62348e-05
1.41858e-05
1.45856e-05
3.98483e-05
4.29107e-05
4.15547e-05
4.18367e-05
4.79036e-05
3.50226e-05
3.49646e-05
3.57267e-05
1.12858e-05
4.74738e-05
5.02991e-06
1.98801e-05
4.69253e-05
2.06917e-05
4.20241e-05
5.52304e-05
2.02584e-05
1.09348e-05
1.82535e-05
4.58887e-05
3.4213e-05
4.02572e-05
5.01685e-05
1.99266e-06
3.33965e-05
3.09485e-05
3.25804e-05
5.15129e-05
3.36587e-06
4.06799e-05
3.17647e-05
3.08822e-05
5.08524e-05
4.85107e-05
1.54945e-05
4.71051e-05
4.47158e-05
1.22856e-05
4.37585e-05
1.55122e-05
4.50896e-05
3.46006e-06
3.71494e-06
4.38048e-05
4.65923e-05
1.05132e-05
1.93712e-05
1.40579e-05
1.5828e-05
1.49442e-05
4.20878e-06
4.75602e-05
8.01672e-05
8.01544e-05
8.01598e-05
8.01892e-05
8.00211e-05
8.0167e-05
8.00214e-05
8.01521e-05
8.01321e-05
8.01648e-05
8.01251e-05
3.0066e-05
2.83142e-05
2.72665e-05
2.38342e-05
2.57488e-05
2.62346e-05
2.64587e-05
2.56645e-05
2.37515e-05
3.19793e-05
3.41057e-05
3.11297e-05
3.499e-05
2.47823e-05
2.97171e-05
3.36374e-05
3.80194e-05
3.28103e-05
2.88979e-05
2.80845e-05
3.44638e-05
3.13445e-05
1.68065e-05
2.03439e-05
1.67127e-05
1.83438e-05
1.79694e-05
1.76944e-05
1.71482e-05
2.0776e-05
3.0536e-05
1.99675e-05
1.94615e-05
1.91563e-05
1.75273e-05
2.48512e-05
1.85807e-05
1.63194e-05
3.50473e-05
3.89154e-05
3.862e-05
1.50758e-05
3.98072e-05
1.58946e-05
4.06991e-05
3.21563e-05
3.82949e-05
1.54928e-05
3.4242e-05
1.38367e-05
1.34479e-05
4.1577e-05
4.33501e-05
1.50373e-05
1.46635e-05
1.42611e-05
4.51246e-05
4.24632e-05
1.59191e-05
1.26368e-05
3.95128e-05
1.30136e-05
4.2288e-05
4.04061e-05
1.14907e-05
3.86478e-05
4.42373e-05
4.13509e-05
4.6027e-05
1.32633e-05
1.21855e-05
1.18224e-05
4.69231e-05
4.31957e-05
1.10138e-05
1.13657e-05
1.06054e-05
4.18973e-05
4.60099e-05
4.86797e-05
4.41086e-05
4.02721e-05
1.23786e-05
3.94595e-05
4.50341e-05
4.50889e-05
4.10891e-05
4.73975e-05
5.08188e-05
4.7811e-05
1.41523e-05
4.74435e-05
4.5745e-05
4.75799e-06
5.14955e-05
4.5078e-06
3.2186e-06
3.96586e-06
3.72919e-06
4.66731e-05
2.9953e-06
2.34874e-06
5.51978e-05
2.55149e-06
5.64657e-05
4.99772e-05
7.96033e-05
7.90935e-05
8.01678e-05
8.01621e-05
8.01211e-05
8.01768e-05
8.0153e-05
7.95833e-05
3.31927e-05
3.02886e-05
3.76076e-05
2.11894e-05
2.14998e-05
1.8711e-05
3.74387e-05
2.11426e-05
3.81505e-05
7.66014e-06
7.96477e-06
4.54452e-05
5.56802e-06
5.29816e-06
7.84007e-06
5.3007e-06
5.36435e-05
2.33043e-06
4.81965e-05
4.7815e-05
4.86938e-05
8.01557e-05
3.32174e-05
2.99902e-05
3.7654e-05
1.80673e-05
2.05519e-05
2.0867e-05
3.74756e-05
2.04491e-05
3.82175e-05
7.03215e-06
7.32857e-06
4.53266e-05
5.66103e-06
5.38471e-05
5.38787e-06
7.15683e-06
4.80916e-05
5.3744e-06
4.83449e-05
4.94283e-05
8.01667e-05
8.01831e-05
8.01417e-05
8.01518e-05
8.01478e-05
8.01705e-05
8.00844e-05
8.00602e-05
8.01694e-05
8.01713e-05
8.00805e-05
8.01252e-05
8.01283e-05
8.01657e-05
8.01575e-05
8.00355e-05
8.0167e-05
7.98698e-05
7.98328e-05
8.01687e-05
8.01996e-05
8.01643e-05
8.0164e-05
7.95709e-05
7.91086e-05
7.99428e-05
8.00499e-05
7.99971e-05
8.01686e-05
7.99939e-05
8.01403e-05
8.00952e-05
7.9675e-05
8.00366e-05
8.06784e-05
8.01101e-05
8.01669e-05
8.01405e-05
8.01462e-05
8.01549e-05
8.01189e-05
8.01613e-05
7.99113e-05
8.00959e-05
7.86966e-05
8.01434e-05
8.01437e-05
8.00973e-05
8.0155e-05
8.00847e-05
8.01678e-05
8.01696e-05
8.01836e-05
8.0018e-05
8.00893e-05
8.00787e-05
8.01122e-05
8.01137e-05
7.99379e-05
8.01295e-05
8.01769e-05
8.01114e-05
8.00666e-05
8.00541e-05
8.01846e-05
8.01593e-05
4.75147e-05
5.29264e-05
4.44746e-05
3.73447e-05
3.66283e-05
3.67189e-05
3.2303e-05
2.02237e-06
8.00441e-05
8.00343e-05
8.00114e-05
7.99756e-05
8.01197e-05
8.01578e-05
8.01069e-05
3.07603e-05
8.01218e-05
6.11049e-06
6.39282e-06
2.53147e-05
4.80154e-05
5.03087e-05
6.1688e-06
5.29051e-05
4.85159e-05
6.94487e-06
4.18257e-06
3.62556e-06
4.77407e-05
7.13318e-06
6.83917e-06
4.8009e-05
9.30424e-06
9.62649e-06
9.63214e-06
8.57141e-06
8.88657e-06
2.71177e-05
3.691e-05
3.62338e-05
3.6189e-05
2.03675e-05
1.96242e-05
2.5741e-05
2.2918e-05
2.88151e-05
2.92747e-05
2.21204e-05
2.66908e-05
2.28396e-05
2.94792e-05
2.31339e-05
2.24077e-05
8.0002e-05
8.00039e-05
8.00532e-05
8.01745e-05
7.99748e-05
8.00411e-05
8.01615e-05
7.86666e-05
7.89359e-05
2.16843e-05
2.1341e-05
2.13751e-05
3.23484e-05
1.89015e-05
3.67677e-05
8.05155e-06
3.08049e-05
3.66704e-05
4.46462e-06
8.15688e-06
3.74052e-05
4.77125e-05
2.71016e-06
7.84823e-06
4.44283e-05
5.29829e-05
4.76683e-05
4.82198e-06
4.55997e-06
4.87968e-05
8.00143e-05
8.0134e-05
8.00244e-05
8.01483e-05
7.99756e-05
8.00274e-05
8.01286e-05
3.14671e-05
2.21937e-05
4.34695e-05
8.93455e-06
8.04341e-05
7.87868e-05
8.01362e-05
7.99684e-05
7.99102e-05
7.98733e-05
7.98665e-05
8.01053e-05
8.0144e-05
8.01015e-05
7.98824e-05
8.01644e-05
7.96685e-05
7.98235e-05
7.99847e-05
8.01491e-05
7.98336e-05
8.01584e-05
8.0171e-05
8.016e-05
7.99849e-05
8.01789e-05
8.01552e-05
8.01377e-05
8.01063e-05
8.0007e-05
8.01501e-05
8.0165e-05
7.99429e-05
8.0152e-05
8.01038e-05
8.00541e-05
8.01539e-05
8.01475e-05
8.01094e-05
7.99985e-05
8.0186e-05
2.1268e-06
1.71619e-06
1.86618e-06
9.7169e-06
4.27246e-05
2.29309e-05
3.09473e-05
5.12101e-05
4.65325e-05
4.95223e-05
9.80651e-06
9.47617e-06
2.3109e-05
3.57773e-05
3.34373e-05
2.33075e-05
2.83428e-05
2.66353e-05
2.46565e-05
8.00604e-05
8.00804e-05
7.99534e-05
8.0029e-05
7.97435e-05
8.00556e-05
8.01687e-05
8.01643e-05
7.97579e-05
8.01569e-05
7.99894e-05
8.00609e-05
8.00334e-05
8.00893e-05
7.9852e-05
8.00285e-05
8.00561e-05
8.00519e-05
8.00155e-05
5.39747e-05
4.85723e-05
5.1123e-06
5.14467e-05
7.93324e-06
4.89417e-05
2.89185e-06
5.16284e-06
5.43578e-06
8.04831e-06
7.74522e-06
4.4323e-05
3.69938e-05
2.12279e-05
3.77459e-05
1.8791e-05
3.71141e-05
2.12745e-05
3.26927e-05
2.15876e-05
2.9931e-05
5.28508e-05
4.86912e-05
4.93537e-05
5.48603e-05
2.10571e-06
6.92961e-06
3.14212e-06
2.33356e-06
2.89936e-06
7.22345e-06
4.71659e-05
6.03056e-06
4.74672e-05
4.7319e-05
3.72473e-06
5.22038e-05
5.11763e-05
6.00475e-06
4.6959e-05
4.79205e-05
1.15822e-05
3.97789e-06
6.28806e-06
5.2003e-05
3.23222e-06
7.05222e-06
4.44568e-06
4.58847e-05
4.59924e-05
1.07009e-05
1.24633e-05
4.84934e-05
4.52987e-05
1.7769e-05
8.73384e-06
1.33484e-05
8.79822e-06
4.50153e-05
8.4816e-06
4.34478e-05
3.78231e-05
4.16252e-05
4.40901e-05
4.7575e-05
1.39314e-05
1.11015e-05
1.1455e-05
4.30137e-05
1.19139e-05
1.22792e-05
4.66351e-05
1.35399e-05
1.86581e-05
4.07672e-05
1.51203e-05
1.68873e-05
1.27269e-05
4.19664e-05
4.56992e-05
1.42339e-05
3.99355e-05
1.95539e-05
4.09506e-05
1.31053e-05
4.47752e-05
1.47531e-05
1.43496e-05
3.99777e-05
1.6005e-05
3.91142e-05
3.90593e-05
4.29796e-05
1.516e-05
1.55743e-05
1.72324e-05
3.58251e-05
4.38709e-05
1.67837e-05
3.53933e-05
4.20897e-05
1.64006e-05
3.85437e-05
3.65382e-05
4.12024e-05
4.03183e-05
1.59705e-05
3.94323e-05
3.58413e-05
3.35969e-05
1.95383e-05
1.75954e-05
1.841e-05
3.53651e-05
3.32877e-05
2.04528e-05
3.41182e-05
3.44957e-05
2.20297e-05
3.45884e-05
1.9228e-05
2.83997e-05
3.24596e-05
2.96983e-05
3.1634e-05
2.00475e-05
2.91111e-05
2.20125e-05
3.18154e-05
3.1415e-05
3.10005e-05
2.61282e-05
2.48692e-05
2.93676e-05
3.01829e-05
2.23143e-05
2.69415e-05
2.85585e-05
2.63003e-05
2.77528e-05
2.49308e-05
7.99644e-05
7.99895e-05
8.8218e-06
4.35206e-05
2.21075e-05
3.18229e-05
8.01549e-05
8.01274e-05
7.98915e-05
7.98149e-05
7.95878e-05
7.9808e-05
7.99598e-05
8.01305e-05
8.01522e-05
8.00019e-05
7.97167e-05
8.00626e-05
8.02127e-05
8.00601e-05
8.01733e-05
8.00123e-05
8.01624e-05
2.54121e-05
2.74396e-05
2.78648e-05
4.68553e-05
3.52877e-05
5.01243e-05
4.63252e-05
3.29626e-05
2.40414e-05
1.02053e-05
1.05457e-05
2.39017e-05
5.05405e-05
7.93938e-05
8.01108e-05
8.01218e-05
8.01642e-05
8.01574e-05
8.00407e-05
8.01595e-05
7.99729e-05
6.39759e-05
8.01568e-05
8.00834e-05
7.96963e-05
8.01499e-05
8.01586e-05
7.98625e-05
8.01943e-05
7.9829e-05
7.95096e-05
9.81774e-06
4.25288e-05
2.30143e-05
3.05838e-05
4.9241e-05
4.68403e-05
4.93595e-05
4.66638e-05
9.72529e-06
9.39766e-06
3.61016e-05
3.37766e-05
2.30142e-05
2.32293e-05
2.8677e-05
2.65552e-05
2.4584e-05
7.98917e-05
8.0144e-05
8.01617e-05
7.90369e-05
7.99246e-05
5.30545e-05
4.63455e-05
4.67187e-05
5.03489e-05
1.02903e-05
1.06319e-05
3.49517e-05
3.26274e-05
2.54782e-05
2.75198e-05
2.39906e-05
2.75182e-05
2.41193e-05
7.9347e-05
8.01063e-05
1.24774e-08
5.02654e-07
-4.04592e-07
-1.73566e-07
-5.51934e-08
2.14843e-07
8.01586e-05
8.01639e-05
7.96725e-05
8.01642e-05
8.00193e-05
8.00319e-05
7.93348e-05
8.01586e-05
7.96519e-05
8.01699e-05
8.01678e-05
8.00657e-05
7.97766e-05
8.00619e-05
8.1245e-05
8.03891e-05
7.99076e-05
7.99747e-05
8.00763e-05
8.01599e-05
8.01613e-05
8.01715e-05
1.88442e-06
2.05663e-06
8.01289e-05
6.72965e-05
8.01526e-05
8.01286e-05
6.499e-05
8.01534e-05
8.01382e-05
1.50396e-06
1.71373e-06
7.9237e-05
8.01621e-05
7.9491e-05
8.0161e-05
7.94772e-05
8.03122e-05
7.98836e-05
8.01619e-05
7.99169e-05
7.97935e-05
8.00762e-05
8.01622e-05
8.01866e-05
8.01091e-05
2.32727e-06
8.0022e-05
7.98227e-05
8.01464e-05
8.0024e-05
8.00556e-05
7.98215e-05
7.96595e-05
8.01484e-05
8.01653e-05
8.01648e-05
8.01322e-05
8.01535e-05
8.01347e-05
7.99602e-05
8.01592e-05
8.01346e-05
7.99078e-05
7.95592e-05
8.01327e-05
7.98506e-05
2.46241e-06
2.2692e-06
2.20771e-06
8.01331e-05
8.01026e-05
5.9826e-05
8.01688e-05
8.00271e-05
7.75103e-05
8.00715e-05
7.99116e-05
7.99997e-05
8.01665e-05
8.01802e-05
8.01488e-05
5.63772e-05
8.01702e-05
7.98646e-05
8.0354e-05
7.85171e-05
8.01615e-05
7.9231e-05
8.01712e-05
7.92621e-05
7.98442e-05
8.01542e-05
7.9952e-05
8.32436e-05
8.01649e-05
7.91331e-05
7.97805e-05
7.99808e-05
7.71052e-05
8.01261e-05
5.49396e-05
8.00644e-05
8.01645e-05
8.00833e-05
7.95556e-05
8.09509e-05
7.99477e-05
8.01654e-05
8.02457e-05
8.00671e-05
8.02913e-05
8.01447e-05
7.81174e-05
8.00901e-05
5.89889e-05
8.01681e-05
8.01567e-05
7.99626e-05
8.01456e-05
8.001e-05
8.01015e-05
6.75502e-05
7.95831e-05
4.97252e-05
7.98958e-05
6.53568e-05
7.89477e-05
7.55302e-05
8.01056e-05
8.01485e-05
8.00618e-05
8.0055e-05
7.95379e-05
8.00473e-05
1.26727e-06
1.3596e-06
1.58169e-06
7.99726e-05
8.01677e-05
8.0161e-05
8.03198e-05
8.01287e-05
5.77131e-05
8.01176e-05
8.01518e-05
8.00818e-05
7.95317e-05
7.40176e-05
6.1637e-05
8.01332e-05
7.9711e-05
7.28934e-05
7.99373e-05
8.01504e-05
7.99543e-05
8.01125e-05
8.01679e-05
8.00659e-05
7.95293e-05
7.99726e-05
8.01544e-05
8.01075e-05
8.01504e-05
8.02252e-05
8.0116e-05
8.01554e-05
7.99717e-05
7.99802e-05
5.8412e-05
8.0147e-05
7.99129e-05
8.01056e-05
8.00724e-05
7.92559e-05
8.00577e-05
8.01699e-05
7.94004e-05
7.9851e-05
8.01497e-05
8.0041e-05
8.00246e-05
8.01187e-05
7.96775e-05
8.02175e-05
8.02085e-05
8.0024e-05
8.00709e-05
7.96471e-05
8.01027e-05
1.16598e-06
6.68326e-05
8.07277e-05
8.0155e-05
7.99715e-05
7.98516e-05
8.18662e-05
7.99521e-05
8.00443e-05
8.01755e-05
9.27639e-07
7.26572e-07
7.94532e-05
8.01345e-05
8.01146e-05
7.99051e-05
8.00788e-05
7.16728e-05
8.01492e-05
8.01657e-05
1.98229e-06
8.00315e-05
7.98596e-05
1.77095e-06
1.63855e-06
8.0174e-05
7.84783e-05
7.9211e-05
8.01656e-05
6.27949e-05
7.53309e-05
-1.68746e-07
-3.24645e-07
-1.33664e-08
7.82452e-05
8.01668e-05
8.00904e-05
6.93215e-05
7.53508e-05
6.75113e-05
6.89726e-05
7.36247e-05
7.98067e-05
8.01085e-05
5.2386e-05
7.94961e-05
8.00136e-05
8.12886e-05
8.01612e-05
7.07639e-05
7.88297e-05
6.2356e-05
7.92088e-05
8.00204e-05
1.53485e-06
1.62933e-06
7.98935e-05
7.90112e-05
7.94088e-05
5.27197e-05
5.26567e-05
8.01455e-05
1.78692e-06
7.51115e-05
7.05463e-05
8.01387e-05
8.01354e-05
7.8634e-05
8.00459e-05
7.04434e-05
7.98321e-05
7.54954e-05
5.58438e-05
5.67793e-05
9.9968e-07
9.6548e-07
1.0851e-06
7.96629e-05
7.97969e-05
6.38211e-05
6.95077e-05
6.72022e-05
6.7229e-05
4.10559e-05
4.10023e-05
7.88277e-05
7.24115e-08
3.30424e-08
2.48675e-09
-9.58005e-07
-9.77712e-07
-1.04232e-06
7.34624e-05
-2.05455e-07
-3.02621e-07
7.94705e-05
-4.43809e-07
-1.33596e-06
3.77586e-07
-1.36201e-06
3.4728e-07
-1.44313e-06
3.26259e-07
)
;

boundaryField
{
    back
    {
        type            empty;
    }
    front
    {
        type            empty;
    }
    ingreso
    {
        type            zeroGradient;
    }
    salida
    {
        type            fixedValue;
        value           uniform 0;
    }
    defaultFaces
    {
        type            zeroGradient;
    }
}


// ************************************************************************* //
