/*--------------------------------*- C++ -*----------------------------------*\
  =========                 |
  \\      /  F ield         | OpenFOAM: The Open Source CFD Toolbox
   \\    /   O peration     | Website:  https://openfoam.org
    \\  /    A nd           | Version:  8
     \\/     M anipulation  |
\*---------------------------------------------------------------------------*/
FoamFile
{
    version     2.0;
    format      ascii;
    class       surfaceScalarField;
    location    "9";
    object      phi;
}
// * * * * * * * * * * * * * * * * * * * * * * * * * * * * * * * * * * * * * //

dimensions      [0 3 -1 0 0 0 0];

internalField   nonuniform List<scalar> 
10659
(
-8.55934e-09
8.76419e-09
2.06959e-10
-4.11803e-10
3.35305e-10
-7.36468e-10
8.42538e-09
-8.02422e-09
8.43456e-09
-7.69016e-09
4.47142e-10
-1.19154e-09
-8.28901e-09
-4.08787e-10
1.38458e-10
-1.30646e-08
3.42385e-09
1.03715e-08
-7.30724e-10
-3.21126e-10
6.02267e-09
-6.30959e-09
6.08045e-10
1.09512e-10
4.43859e-11
-7.74133e-11
-7.64842e-11
-1.51153e-09
-2.43584e-09
2.38733e-09
1.56004e-09
8.80951e-09
-8.6549e-09
2.22217e-11
-1.76831e-10
-2.49461e-09
2.18723e-09
-4.0899e-09
4.39728e-09
-9.19038e-09
-4.76464e-11
1.0823e-10
9.1298e-09
-3.7686e-10
4.44099e-09
-4.06413e-09
-8.56199e-09
8.85406e-09
2.01007e-10
-4.93073e-10
1.37031e-10
8.09575e-09
-3.02835e-10
-7.92995e-09
-6.90871e-11
3.00126e-10
8.57847e-09
-2.04164e-09
-3.79551e-09
3.34254e-09
-2.23343e-10
2.19616e-10
3.72739e-12
-2.02495e-09
-5.94928e-09
4.27671e-09
3.69752e-09
-7.06547e-09
-3.4916e-10
1.00469e-09
6.40994e-09
-8.39093e-09
-2.54928e-10
-9.03905e-12
-4.25871e-09
4.33957e-09
-8.08546e-11
8.97782e-11
-1.14768e-10
1.34502e-10
5.03642e-09
3.05739e-09
-7.58734e-09
-5.06465e-10
-1.33565e-10
5.22103e-09
-5.03955e-09
-1.81487e-10
-9.4588e-09
-1.87138e-10
6.86335e-10
8.9596e-09
-8.31842e-09
-3.46764e-10
1.03188e-10
8.95441e-09
1.77562e-10
-3.67785e-10
5.56336e-09
-2.45146e-09
-6.59621e-09
3.48432e-09
8.69534e-09
-8.56825e-09
-1.12716e-11
-1.15819e-10
-9.10751e-09
9.42107e-09
6.44528e-10
-9.58094e-10
2.35123e-10
1.10308e-10
-2.23925e-10
-1.21506e-10
-7.54701e-09
6.16123e-09
3.72297e-09
-2.33719e-09
-1.18539e-08
2.96482e-09
9.2976e-09
-4.08522e-10
-9.3971e-09
-1.27241e-10
4.19584e-10
9.10476e-09
6.68713e-09
3.81871e-10
-6.93191e-09
-1.37094e-10
6.57467e-09
-5.84756e-09
-2.68519e-10
-4.58589e-10
7.26855e-09
-6.221e-10
1.72384e-10
-6.81884e-09
-9.88519e-09
1.9069e-10
-1.98103e-10
9.89261e-09
1.33027e-10
7.58641e-09
9.13949e-10
-8.63339e-09
-7.68598e-09
1.16296e-09
8.25477e-09
-1.73174e-09
4.50748e-09
-9.82193e-10
3.04938e-09
9.01575e-09
2.8001e-10
-8.61201e-10
5.43745e-09
3.04151e-09
-3.76481e-09
-4.71415e-09
-2.56769e-09
2.47907e-09
9.31795e-09
-9.22933e-09
-3.33882e-10
-7.31585e-09
1.80121e-10
7.46961e-09
-4.13031e-11
3.66667e-11
8.69998e-09
-9.32231e-09
2.96525e-10
-8.59407e-10
-1.56861e-09
-8.36508e-09
1.69981e-09
8.23388e-09
-7.94023e-09
6.13184e-09
-6.50789e-09
8.31628e-09
1.23499e-09
4.95028e-09
-5.35248e-09
-8.32798e-10
-8.47305e-09
-3.95074e-11
-5.56869e-11
-6.68551e-10
-8.81811e-09
8.9563e-11
-8.9609e-09
-2.59361e-11
-2.47827e-11
9.01162e-09
9.27655e-09
1.62994e-10
-5.85485e-10
2.9071e-10
-7.98661e-09
1.47195e-11
7.68118e-09
-1.21474e-08
-1.99496e-10
-3.46317e-10
1.26932e-08
-2.74375e-09
5.91964e-09
-1.07129e-08
7.53703e-09
8.92889e-09
-8.40332e-10
-8.39419e-09
3.05626e-10
-9.45007e-09
9.5547e-09
-3.32236e-09
3.21772e-09
-2.15955e-09
4.68354e-09
3.03937e-09
9.51784e-09
-1.66119e-09
6.42493e-10
-8.49915e-09
-8.27912e-09
-1.45247e-09
6.67022e-09
3.06137e-09
1.2686e-09
-2.34221e-09
2.26183e-09
-1.18822e-09
5.89464e-12
7.09612e-11
1.87922e-10
-2.64778e-10
-5.7362e-10
1.52224e-09
-5.86995e-09
4.92133e-09
-5.71055e-10
2.33041e-09
-3.80099e-09
-7.11087e-09
-1.07932e-09
8.19019e-09
-4.27178e-10
8.11878e-09
5.93977e-11
-7.751e-09
-4.89688e-10
9.28331e-09
3.09824e-10
-9.10344e-09
8.92606e-09
7.53302e-11
-8.8107e-09
-8.97274e-09
-5.05757e-10
1.55116e-09
7.92734e-09
2.08534e-11
3.47366e-09
-9.64641e-11
-3.39805e-09
-2.79133e-09
-7.36888e-10
3.54383e-09
-1.56175e-11
4.50194e-09
-4.3275e-09
1.06055e-09
-8.14479e-09
-2.59525e-10
7.68589e-10
7.63572e-09
3.72192e-09
3.78621e-09
-1.82549e-09
-5.68264e-09
-4.42839e-10
-9.14585e-09
1.18392e-10
9.4703e-09
7.08562e-09
-1.48171e-09
1.32173e-09
-6.92564e-09
9.35185e-09
-1.5238e-09
-8.50677e-09
6.78718e-10
2.32075e-09
-6.02258e-10
2.78899e-09
5.33596e-09
-4.4146e-09
4.76223e-09
-5.68359e-09
-4.39433e-09
5.36597e-09
-4.92197e-09
3.95033e-09
-7.1644e-09
4.2788e-10
-3.28948e-10
1.165e-08
4.91655e-10
-3.4514e-09
-8.69025e-09
-5.63219e-10
8.48295e-09
9.51997e-11
-8.01493e-09
-1.49926e-09
4.96743e-09
-3.46817e-09
2.50635e-09
-6.64808e-10
8.1544e-10
-2.65698e-09
1.17093e-08
-3.93393e-09
-8.62836e-09
8.5298e-10
-5.21772e-09
-1.95248e-10
-4.34589e-10
-5.09282e-09
4.69679e-09
1.93744e-09
-1.54141e-09
3.48769e-10
-1.85203e-09
8.09122e-09
-6.58795e-09
-8.69728e-09
1.53555e-09
-6.01695e-10
7.76343e-09
-8.4972e-09
-6.39868e-11
2.86349e-10
8.27483e-09
2.09282e-09
6.61149e-09
-4.79544e-09
-3.90887e-09
-3.99752e-09
3.99064e-09
2.0321e-09
-2.02521e-09
-9.38398e-09
-8.37259e-10
1.96418e-09
8.25707e-09
5.45437e-09
4.31847e-09
-6.2476e-09
-3.52524e-09
-4.64187e-09
1.1195e-08
3.10341e-09
-9.65654e-09
7.35086e-09
-2.61727e-09
-8.57151e-09
3.83792e-09
-4.41217e-09
4.58085e-09
-1.68687e-10
7.4701e-09
-1.68273e-10
-6.36174e-11
-7.23821e-09
1.94723e-09
-5.98163e-09
5.22694e-09
-1.19253e-09
-3.88967e-09
-2.24515e-09
2.1373e-09
-1.02292e-08
9.16245e-11
-1.71627e-09
1.09035e-10
4.5489e-10
8.97324e-09
-9.53716e-09
-5.59804e-09
-7.59332e-09
3.85298e-09
9.33838e-09
-5.39087e-10
-5.65099e-09
1.17981e-08
-5.60806e-09
-2.70287e-09
-5.88758e-10
7.80833e-10
2.5108e-09
-1.49452e-10
-2.90836e-10
2.29673e-10
2.10615e-10
3.32979e-09
-2.8695e-09
2.91369e-09
-3.37398e-09
3.12078e-09
9.45278e-11
-3.04747e-09
-1.6783e-10
7.6134e-09
-8.75871e-09
1.32774e-09
-1.82434e-10
7.68977e-09
-2.3727e-11
-2.5544e-10
-7.41061e-09
-9.60025e-09
-6.96412e-10
1.99251e-09
8.30415e-09
-1.22563e-09
7.11851e-09
-7.57097e-09
1.67809e-09
1.20879e-08
-3.03542e-10
-7.22703e-09
-4.55731e-09
8.14187e-09
-3.0108e-10
-2.27392e-10
-1.33046e-10
3.40347e-10
8.6095e-09
-8.8168e-09
-3.54691e-09
3.39509e-09
-9.29825e-09
-3.69654e-10
-9.66204e-09
1.0304e-10
9.92866e-09
7.23309e-09
-7.09635e-09
-7.30274e-09
7.166e-09
-6.25405e-09
2.54012e-09
6.65581e-09
-2.94188e-09
4.66344e-10
-5.45123e-10
5.17203e-09
9.1695e-11
1.04187e-09
-6.30559e-09
4.33614e-09
2.75654e-10
-3.90528e-09
-7.06516e-10
-4.74445e-09
4.88148e-09
-4.96118e-11
-1.03384e-08
-1.00935e-09
1.13974e-08
3.68435e-09
2.48774e-09
-2.8423e-09
8.69609e-09
-8.30412e-09
-5.92466e-10
2.00493e-10
-6.40111e-10
-8.98157e-09
9.13199e-09
-1.49633e-09
-3.16895e-10
6.81232e-09
-4.99909e-09
-6.57922e-09
5.26177e-09
1.22724e-09
9.02058e-11
-2.0467e-10
-7.39372e-09
7.57719e-11
7.52261e-09
-4.12869e-10
1.4141e-10
-9.05085e-09
-2.39222e-09
2.55034e-09
-1.58117e-10
8.86737e-09
-9.75165e-11
3.40677e-10
-9.11053e-09
-3.22652e-09
3.22942e-09
1.79495e-11
-1.74862e-09
-3.46625e-09
3.16852e-09
2.04636e-09
-8.10593e-09
-2.02391e-10
7.9022e-09
4.0612e-10
-2.36118e-09
-4.07188e-09
3.56356e-09
-6.69267e-10
7.34779e-10
-6.5512e-11
-9.4908e-09
1.4076e-09
-8.89542e-10
6.4318e-09
6.16206e-10
-2.02027e-09
-5.02774e-09
4.14041e-12
-8.18737e-11
1.83641e-10
-1.05908e-10
7.69086e-09
3.71553e-09
-1.01728e-08
-1.23357e-09
-2.70393e-09
-2.85039e-10
-1.21027e-08
-1.36943e-09
2.27879e-09
6.78151e-09
-8.19674e-09
2.57575e-09
-4.36166e-09
9.98264e-09
-4.19253e-09
4.36327e-09
5.28362e-09
-1.41949e-10
1.91053e-10
-9.26674e-12
-3.98376e-11
-3.53582e-10
4.44992e-10
-2.20069e-09
2.10928e-09
-1.81753e-10
-4.23041e-09
-1.11651e-09
1.21651e-09
-1.00006e-10
2.24875e-09
5.19056e-09
-5.48684e-09
-1.95246e-09
2.67709e-11
3.37031e-10
-6.15619e-11
-3.0224e-10
-1.01209e-10
7.19082e-11
1.97249e-09
-1.94319e-09
-8.79333e-10
5.81326e-09
2.90482e-09
-7.83875e-09
-1.32186e-09
5.00453e-09
-6.3111e-09
2.62842e-09
-8.67239e-09
6.61312e-10
9.65975e-09
-1.64867e-09
-6.80146e-09
6.61303e-09
2.9013e-10
-1.01698e-10
8.13063e-09
-2.29447e-09
1.41889e-10
-5.97805e-09
-2.15088e-09
1.49932e-09
7.08337e-09
7.69197e-10
-5.08985e-09
-7.53875e-10
5.07453e-09
-2.36433e-09
2.1214e-09
3.96941e-09
4.44026e-09
-4.96675e-09
-3.44292e-09
3.83064e-10
5.11877e-12
4.15431e-12
-3.92337e-10
-1.34563e-09
4.67332e-10
1.03961e-08
-9.02281e-09
7.42207e-12
-1.31776e-09
1.03332e-08
1.0345e-08
-4.13219e-09
2.14131e-09
-8.35409e-09
1.85401e-09
-1.05499e-09
-9.74667e-09
8.94765e-09
9.38867e-09
1.06357e-09
-4.47904e-10
-1.00043e-08
7.25054e-11
-2.31968e-10
-6.41975e-09
2.50278e-10
-1.64608e-10
-9.46336e-09
9.57865e-10
-8.78487e-10
-3.96785e-10
-7.38343e-10
-1.0217e-08
1.13522e-08
-1.68837e-09
-9.36204e-09
2.44757e-09
8.60284e-09
8.95148e-11
-1.08314e-09
1.18615e-09
-1.92522e-10
-2.11775e-09
-8.8968e-09
2.70284e-09
8.31171e-09
-8.51491e-10
-9.02528e-09
1.84838e-09
8.02839e-09
-9.27612e-09
-9.28167e-10
9.51048e-09
6.93807e-10
2.53951e-09
-1.70575e-09
1.22372e-09
-2.05748e-09
-6.20359e-10
-8.99803e-09
1.54988e-09
8.0685e-09
2.61327e-11
-6.09942e-12
7.24852e-09
-2.2551e-10
2.59523e-10
-3.40126e-11
5.12654e-10
-7.77236e-09
7.75964e-09
-4.99932e-10
6.76624e-09
5.72879e-10
-2.49262e-10
-7.08986e-09
1.88083e-10
-1.06063e-08
-2.64636e-09
-1.54193e-09
-1.47744e-10
1.55535e-09
1.34329e-10
4.24355e-09
-1.11438e-09
-4.87779e-09
1.24392e-09
4.09204e-09
4.21517e-09
-3.70252e-09
9.33339e-09
4.10738e-09
-1.35288e-09
7.44906e-10
2.08242e-10
-7.50117e-10
-2.03031e-10
-8.41963e-10
3.5818e-09
-3.48841e-09
7.48573e-10
-1.01245e-08
1.18437e-09
-6.60079e-10
8.65856e-09
6.65642e-10
-9.03349e-09
5.01744e-10
-4.53306e-10
-1.4853e-10
1.00093e-10
5.2627e-09
-2.49656e-09
-4.51478e-09
1.74865e-09
2.83341e-10
-1.71347e-10
-8.58505e-09
-2.3725e-09
2.10106e-09
7.21509e-10
-4.50063e-10
-2.18157e-09
-7.07207e-10
-6.56351e-09
9.45228e-09
-3.70747e-11
-3.57516e-10
3.94591e-10
-2.49863e-09
2.29331e-09
-8.27722e-09
7.14011e-09
-6.67625e-09
7.81336e-09
-1.55208e-09
9.40267e-09
2.22569e-09
3.13583e-10
-8.0052e-10
-3.41617e-10
8.28554e-10
-4.25571e-10
-2.63972e-09
6.92791e-10
-6.32965e-09
-1.16984e-09
7.46068e-09
3.88009e-11
2.88841e-09
-9.12351e-09
1.05431e-08
-4.30803e-09
-3.16577e-09
-6.57385e-09
-1.59641e-10
9.89927e-09
-4.99949e-10
-2.34684e-09
2.64537e-09
2.01417e-10
-4.38056e-10
2.84957e-10
1.02093e-08
-2.1027e-09
1.31449e-09
-1.31928e-09
2.0885e-10
-6.57974e-09
-1.95933e-10
-7.95353e-09
4.35402e-11
-1.38745e-10
7.41945e-09
-1.28272e-10
-7.15243e-09
-3.4136e-10
1.66734e-10
1.28848e-09
-9.72223e-09
-1.03356e-09
9.46731e-09
8.11372e-11
4.06548e-10
-3.61156e-10
-1.2653e-10
2.89669e-09
-3.13262e-09
-6.27839e-09
6.51432e-09
9.40117e-11
-8.28166e-11
-1.55313e-09
6.42526e-09
7.57493e-09
-9.44494e-09
-4.55524e-09
-2.07735e-10
2.54847e-11
2.52608e-09
-8.23904e-09
2.27019e-11
5.69025e-09
-9.30698e-09
9.34309e-09
3.38774e-09
-1.16717e-10
1.3986e-10
7.44696e-09
2.48268e-09
-1.78917e-09
-8.53394e-09
7.84043e-09
1.3137e-11
-4.7977e-11
-3.27318e-10
-1.96389e-09
2.14087e-09
1.50346e-10
3.83742e-10
-4.84299e-09
4.45925e-09
4.03547e-09
-7.23846e-10
-6.63212e-09
3.32049e-09
-2.18294e-10
3.77659e-11
-3.38943e-09
1.24029e-09
-1.3914e-09
3.54055e-09
3.09635e-10
-4.15919e-09
3.84956e-09
-8.20035e-09
5.23654e-09
-2.41876e-09
5.38257e-09
-4.30071e-10
6.89705e-10
1.84142e-09
-2.11604e-10
2.17405e-09
-2.06366e-09
-2.59589e-10
-1.66889e-09
1.80616e-09
1.22315e-10
2.55196e-11
-8.36692e-09
2.29789e-11
5.56605e-10
-1.68976e-10
1.14115e-10
-1.44887e-09
2.16748e-09
-7.74411e-09
7.02551e-09
1.45788e-08
-1.29089e-08
1.12052e-09
-2.7904e-09
3.29308e-09
7.22394e-09
-7.08525e-09
-3.43178e-09
-2.22283e-10
1.53257e-09
1.0568e-10
-1.41597e-09
2.68379e-09
-6.39981e-09
6.61271e-09
-5.33196e-09
5.3747e-09
4.21384e-09
-4.25658e-09
-4.25913e-09
1.52e-09
5.853e-09
-3.11386e-09
-6.92051e-09
-2.64912e-09
6.86236e-09
2.70727e-09
-7.60282e-10
2.13248e-09
1.16731e-09
-3.76515e-10
4.20577e-10
8.16656e-09
6.38622e-09
-5.94663e-09
-8.60615e-09
-8.52759e-09
8.66865e-09
1.57036e-10
-2.98098e-10
-5.86157e-09
5.05401e-09
1.03263e-09
-2.25068e-10
-6.43062e-09
-2.87208e-10
7.00846e-10
6.01699e-09
1.46221e-10
-7.7082e-09
8.00674e-09
-4.44759e-10
-1.0204e-08
5.0045e-09
-4.40867e-09
9.60822e-09
-8.82881e-09
-6.76865e-10
1.36089e-09
4.29155e-10
-8.69384e-09
-1.26248e-10
5.75464e-09
2.55479e-10
-1.67397e-09
1.4206e-08
-1.03236e-08
-8.5243e-09
-1.19853e-10
-8.32209e-09
1.52934e-10
4.57384e-09
-4.23854e-09
4.15064e-09
-5.21965e-09
6.1446e-09
-5.07558e-09
1.15983e-10
-1.49719e-09
1.47522e-09
4.89498e-09
-8.093e-10
-6.98227e-09
2.89659e-09
-7.16097e-10
1.00085e-09
-9.78123e-09
9.49648e-09
1.16013e-08
-1.55298e-09
-9.7361e-09
-3.12218e-10
-1.7953e-09
5.90517e-11
1.80816e-09
1.27779e-10
-6.13293e-10
-5.59086e-11
5.41422e-10
7.32546e-10
-3.22982e-10
2.74886e-10
-6.8445e-10
8.31566e-09
-2.55332e-09
-7.08162e-09
7.33896e-10
-1.00633e-10
1.11643e-10
5.69914e-09
-1.50742e-09
-6.58231e-09
2.39059e-09
5.92881e-09
-8.92552e-09
9.93572e-09
-6.93901e-09
2.69725e-10
-1.21821e-09
-2.52171e-10
1.20066e-09
-1.98368e-09
2.6311e-09
-2.46656e-09
1.81914e-09
7.91491e-09
-7.65019e-09
2.16214e-10
-4.80934e-10
-2.34601e-11
8.57283e-09
4.13813e-11
-8.59075e-09
-9.81899e-09
9.40603e-09
-3.03131e-10
-2.94427e-10
3.21198e-10
-1.84828e-10
8.95016e-10
-9.1452e-10
2.04332e-10
-7.69153e-10
-3.50856e-10
9.12729e-10
2.07281e-10
6.31806e-09
-3.10744e-09
-4.74505e-09
1.53443e-09
-5.3199e-09
5.27226e-09
3.464e-09
-3.03848e-09
-1.26861e-09
8.43089e-10
2.95698e-09
5.5215e-09
-4.88526e-09
-3.59322e-09
-8.60746e-10
-5.77812e-12
-1.9248e-09
-9.24348e-09
1.04289e-09
-1.84293e-09
1.00435e-08
-2.71365e-10
8.19588e-09
-1.81724e-10
-7.74279e-09
-7.89816e-09
3.00592e-09
8.22056e-09
-3.32832e-09
-7.56598e-09
-1.7886e-09
2.43407e-09
2.56514e-09
-2.11713e-09
-4.84233e-09
-4.89958e-09
-6.94679e-11
4.96905e-09
-5.01604e-09
4.94696e-09
2.95833e-09
1.16091e-08
-6.37595e-09
-8.19144e-09
7.47847e-09
-7.28802e-10
-8.1191e-09
-9.48386e-11
7.00738e-10
-3.30877e-09
-5.40822e-09
6.22119e-09
-7.62333e-10
-5.06404e-11
1.72997e-09
-5.00408e-09
-4.77981e-09
8.05392e-09
-2.56867e-10
8.50116e-09
2.27787e-10
-8.47208e-09
1.77401e-09
-2.02284e-10
-2.0018e-09
-8.65945e-09
9.10051e-09
-8.49847e-10
-6.36974e-09
5.72162e-09
6.01408e-09
5.10572e-09
1.29447e-09
-6.64474e-09
2.44553e-10
-8.28637e-10
-8.36185e-09
8.27912e-09
9.11364e-10
8.01123e-10
-8.83796e-09
9.32532e-09
9.9429e-10
-1.1227e-09
-3.42386e-10
4.70797e-10
8.51318e-09
-5.91503e-10
1.32576e-10
-8.05426e-09
-5.42326e-10
-8.24773e-09
8.30602e-09
4.84046e-10
-5.39885e-09
5.21171e-09
-3.64213e-09
-6.3254e-09
6.83491e-09
-4.84517e-09
-4.23556e-09
4.88821e-09
1.21758e-09
9.17341e-09
-1.96969e-09
-8.4213e-09
7.0431e-09
2.50687e-10
-7.69083e-09
3.9704e-10
8.0619e-10
8.32359e-09
-4.71227e-10
3.64461e-09
-2.62702e-10
-9.20041e-09
5.8185e-09
-9.1298e-09
-7.86438e-10
-1.22746e-08
-6.28416e-09
1.02815e-08
-7.08692e-11
-5.98397e-10
4.09807e-11
-1.46723e-10
5.4627e-09
-5.58994e-09
-3.34672e-12
9.97324e-09
-1.2738e-09
-3.14121e-09
3.5565e-10
3.31071e-09
-5.25158e-10
8.2016e-09
3.9485e-10
-8.12009e-09
-4.76353e-10
-1.1814e-10
8.61456e-09
-9.043e-09
5.4658e-10
2.54511e-09
1.12495e-08
-3.26322e-09
-1.05313e-08
-3.02355e-09
4.45518e-10
1.09078e-08
-8.32976e-09
3.42225e-09
2.84665e-09
-3.94814e-09
5.42778e-09
-5.25022e-09
-2.53205e-10
-1.0623e-08
8.69467e-09
1.06845e-10
3.59559e-10
-1.38686e-10
-3.27718e-10
-1.57682e-10
2.04011e-10
-3.2391e-10
2.77581e-10
-5.5019e-09
-2.56686e-09
5.86311e-09
2.20565e-09
6.35727e-09
-5.71274e-09
-5.00612e-09
4.96482e-09
-6.51143e-10
-1.65476e-10
7.4575e-10
-6.68012e-09
1.07945e-08
-4.36932e-09
5.37605e-10
-5.43498e-11
-4.83256e-10
9.32073e-10
-9.88644e-09
4.03476e-11
8.91402e-09
-1.12426e-09
-8.86299e-09
1.14215e-09
8.84511e-09
-7.99753e-10
7.09892e-10
-2.45219e-10
3.3508e-10
-8.70531e-09
3.59162e-09
-2.04782e-09
7.16151e-09
-4.28698e-09
4.43321e-09
-7.40448e-09
-3.92805e-10
7.61553e-09
9.63278e-10
-5.04815e-10
8.86527e-09
-9.32373e-09
-9.18172e-09
1.44771e-09
2.49208e-09
-2.25727e-09
-4.46411e-10
-6.65475e-09
-1.159e-10
6.41491e-09
3.55736e-10
1.03501e-08
-8.41072e-09
-1.55565e-09
-1.02719e-09
-8.93186e-11
-6.87112e-09
-3.02213e-09
7.29647e-09
2.59677e-09
1.08699e-09
-8.38297e-09
7.85331e-09
-5.57333e-10
1.13917e-08
-9.35586e-09
-2.10949e-09
7.36737e-11
6.15036e-10
-6.94693e-10
-8.59273e-09
-1.42937e-10
-2.71981e-10
2.57237e-10
-4.87316e-09
5.15317e-09
-6.67633e-10
-8.44574e-09
8.1941e-09
9.1928e-10
6.9004e-09
-5.73291e-09
2.54554e-09
-3.71303e-09
-2.24116e-09
3.27102e-09
8.30352e-09
8.35793e-09
-8.49062e-09
1.64977e-10
-3.22862e-11
-8.59144e-09
9.07667e-09
-8.31995e-10
3.61504e-10
7.11344e-09
6.30181e-10
-8.10512e-09
-5.15183e-09
5.12589e-09
-3.94628e-10
-4.57658e-09
4.9712e-09
-9.70347e-09
-1.50698e-09
1.02563e-08
9.54167e-10
-1.61738e-09
-8.16764e-09
1.88686e-09
3.34582e-09
-1.78371e-09
-2.61523e-09
1.05312e-09
5.68913e-09
7.01166e-09
-5.8004e-09
-8.47065e-09
8.21481e-09
6.19462e-10
-3.63616e-10
4.96534e-09
-5.08348e-09
9.96681e-09
-6.39485e-09
-7.14861e-09
3.57665e-09
-5.13012e-10
3.0198e-09
8.88488e-09
3.06382e-13
-1.24593e-11
3.95217e-10
5.97597e-09
-7.49094e-09
2.96908e-10
7.49221e-10
-2.00644e-10
1.00871e-10
-6.6938e-10
8.75075e-09
-8.90077e-09
2.66139e-10
-1.1611e-10
-1.93169e-10
3.64954e-10
3.30187e-09
2.2041e-09
-2.1822e-09
-6.27595e-09
-8.67218e-09
1.54682e-10
8.56499e-09
-4.74995e-11
-4.19834e-09
4.08162e-09
-4.19544e-09
7.4792e-09
-4.73505e-09
1.4513e-09
-2.39659e-09
8.16697e-09
2.43013e-09
-8.20052e-09
6.75304e-09
4.24824e-09
-2.83472e-09
-8.78464e-11
-4.85798e-09
4.94583e-09
-8.84217e-09
-1.4562e-09
2.36438e-09
7.93399e-09
-1.05822e-08
9.17256e-09
-1.1395e-09
2.54911e-09
-5.21037e-09
5.37337e-09
-8.82519e-11
3.41172e-10
-2.39346e-10
-1.35733e-11
-6.77138e-09
-6.04647e-10
7.99223e-09
8.59449e-09
-8.43258e-09
-3.11449e-10
1.49547e-10
-1.95974e-09
-2.02217e-09
2.19165e-09
1.79026e-09
-9.87738e-09
8.77613e-10
-3.95628e-10
9.3954e-09
4.64772e-10
-1.59154e-10
8.44513e-09
9.36615e-10
9.33214e-09
-9.80399e-09
-1.01045e-08
1.5503e-09
-2.85627e-09
-1.08871e-09
1.24838e-09
2.6966e-09
-8.3192e-09
-1.16857e-09
9.09314e-09
-5.55803e-09
5.04502e-09
5.65424e-10
-9.0326e-09
-6.6262e-10
4.19378e-09
-5.47042e-09
-5.80643e-09
7.08307e-09
-1.1678e-09
6.10968e-09
-6.36529e-09
-2.12538e-09
2.53725e-09
5.95342e-09
-8.71297e-09
8.81188e-09
6.52211e-11
-1.64133e-10
-2.312e-09
9.23853e-10
-6.96893e-10
2.08504e-09
-3.47285e-10
-1.38281e-09
1.50781e-09
1.80882e-09
-7.63518e-11
8.94582e-11
-1.82193e-09
4.40829e-11
-7.3284e-11
-2.0831e-10
2.37512e-10
-8.91459e-09
9.38098e-09
-5.05894e-10
4.0287e-10
-1.02683e-08
1.00927e-08
-2.27269e-10
-4.01861e-10
-1.63725e-09
1.77952e-09
8.12384e-09
-1.39186e-09
-8.97314e-09
-6.47917e-09
4.53925e-09
8.07175e-09
8.94276e-09
-9.078e-09
1.62805e-10
-2.75738e-11
4.73253e-09
-4.89169e-09
-4.29653e-10
5.48436e-09
-5.0547e-09
-4.93966e-10
-1.92844e-09
2.09508e-09
6.07921e-11
-1.31839e-10
-5.80096e-10
2.03967e-09
-8.6298e-09
9.10119e-09
-2.51105e-09
9.4397e-09
-8.86409e-09
-1.93142e-10
5.86583e-10
3.12986e-09
-9.53685e-10
-9.59375e-09
7.41757e-09
-7.67948e-09
2.07646e-09
-1.81788e-09
7.4209e-09
-4.85042e-09
4.00027e-09
4.88562e-09
7.98312e-10
6.04668e-09
-1.07543e-09
-5.76956e-09
-3.90742e-10
1.82377e-10
3.97835e-10
6.10245e-11
-4.53741e-10
-6.90473e-10
1.94664e-10
-7.81345e-10
-2.29717e-09
2.57857e-09
5.80279e-10
-1.47305e-10
8.50979e-09
1.02915e-09
9.35068e-09
-9.79955e-09
-9.14667e-09
7.12458e-10
-9.75038e-09
1.06016e-08
-1.2941e-09
1.9906e-09
5.39338e-09
-2.2586e-09
-5.12538e-09
-9.94386e-10
1.00033e-09
-1.90772e-10
1.57847e-09
-1.75214e-10
3.70759e-10
3.06347e-09
-6.31663e-09
1.79987e-11
5.0078e-09
-5.02579e-09
-7.44785e-09
-3.72261e-10
1.69929e-10
-1.00003e-08
3.75997e-10
1.00272e-08
8.48666e-09
-8.54732e-09
1.29827e-10
-6.91701e-11
-5.06336e-09
5.13869e-09
-4.88301e-09
4.69233e-10
3.43158e-09
1.34191e-11
-4.91348e-09
4.90006e-09
8.90083e-10
-3.07207e-10
4.11414e-10
7.84649e-09
1.09308e-10
-2.66027e-10
5.21671e-10
-3.20063e-10
-1.77346e-10
-2.42625e-11
1.29449e-09
-1.45065e-09
1.45595e-09
-1.29979e-09
-1.03479e-08
-1.85511e-09
1.13793e-08
8.23647e-10
2.48068e-10
-1.09716e-10
8.34831e-09
2.78696e-09
-6.01015e-09
8.79105e-09
-5.56786e-09
-4.90402e-09
4.75672e-09
-1.4924e-10
4.70843e-09
-4.55919e-09
2.76106e-10
9.40535e-09
-9.43339e-09
-9.92145e-09
7.30234e-11
2.68585e-09
-2.64487e-09
-3.09358e-10
-1.89085e-10
2.74518e-10
1.94951e-09
5.14708e-09
-7.25037e-09
1.53785e-10
-8.62312e-09
8.62139e-09
-7.82899e-12
9.56436e-12
8.59763e-09
-8.54739e-09
-1.17437e-11
-3.84971e-11
4.64833e-09
-4.43212e-09
2.17202e-10
-3.94487e-10
8.02378e-09
-2.67335e-09
-8.17742e-09
8.60164e-09
2.24913e-09
-5.61847e-09
9.95494e-10
6.61358e-09
-7.82363e-09
-2.43346e-11
5.45137e-09
-6.77826e-09
2.0917e-11
-4.41135e-11
-5.11236e-09
-4.47949e-09
3.39662e-09
6.19523e-09
-6.05344e-09
8.09311e-09
-8.5684e-09
-6.6735e-09
7.04879e-09
8.19312e-09
-8.29747e-09
-8.26473e-10
1.30032e-09
-4.74341e-09
4.63369e-09
-1.83952e-10
4.9316e-09
-4.74765e-09
-7.9371e-09
-1.23732e-09
1.49494e-09
2.40471e-09
-6.94216e-09
-1.17942e-08
3.96035e-09
6.75789e-09
-9.22e-09
-1.49824e-09
5.79962e-10
-8.57865e-09
-1.02412e-09
-9.72205e-09
-8.76853e-10
-8.53815e-09
-3.91977e-10
8.26249e-09
-4.48045e-11
3.13051e-10
-3.49856e-10
8.16089e-11
-1.35696e-09
1.61047e-09
-2.61783e-09
-4.66289e-09
4.4605e-09
-6.8923e-09
8.37325e-09
-2.16168e-09
6.80731e-10
8.66678e-09
8.27446e-09
-7.30584e-09
-9.6354e-09
-4.85116e-09
3.85882e-11
4.81258e-09
-7.46271e-10
-8.22709e-09
8.14472e-09
-9.62991e-09
-6.06381e-10
9.11203e-09
-8.53215e-11
3.13517e-10
3.42783e-09
2.51056e-09
-5.93839e-09
9.71951e-09
-5.98335e-09
-3.91518e-09
1.79032e-10
-2.60518e-09
-6.84949e-09
3.78073e-09
5.67394e-09
-1.07592e-08
6.07489e-09
7.22941e-09
9.2019e-09
2.83062e-10
-9.35415e-09
-1.30816e-10
1.33725e-09
2.13006e-09
-1.38913e-09
-2.07818e-09
-1.98225e-09
4.80776e-09
-4.07679e-09
1.25129e-09
-4.10641e-10
3.17988e-11
3.34038e-10
2.21009e-10
6.33947e-10
-1.41321e-10
-7.13634e-10
-9.69556e-11
-2.26201e-10
2.3446e-10
8.86969e-11
-8.23185e-09
-5.86624e-10
8.27615e-09
-7.86117e-09
-1.1238e-09
7.36759e-09
1.45092e-10
-3.92688e-11
-7.62763e-09
7.52181e-09
3.303e-10
-8.37672e-09
8.19151e-09
-3.78295e-10
1.99179e-09
-1.96708e-09
-1.81645e-10
-2.21057e-09
4.68549e-09
4.1069e-09
-4.69231e-09
-4.10008e-09
-5.05938e-09
1.074e-10
4.95198e-09
2.02305e-09
-1.32178e-09
-9.53008e-09
-1.80472e-09
-7.46695e-09
1.23434e-09
8.03733e-09
6.90217e-09
-2.50945e-09
1.97e-09
-6.36272e-09
4.48224e-09
-5.76704e-09
5.60327e-09
3.59274e-09
-1.09643e-09
3.00132e-09
-5.49763e-09
6.04595e-09
2.20232e-10
1.87776e-11
-1.94927e-10
-3.36135e-10
2.93867e-10
-7.62167e-11
1.18485e-10
9.59799e-11
-3.85463e-10
4.18557e-10
-1.29075e-10
2.41134e-11
-1.82688e-10
-1.67757e-11
1.75351e-10
1.90825e-09
-3.40751e-09
-4.33908e-09
4.24141e-09
9.76729e-11
-2.56088e-10
8.64991e-09
1.19361e-10
2.92923e-09
-3.6964e-09
4.59558e-09
-3.82841e-09
-6.28264e-09
3.30151e-10
6.30126e-09
-6.9902e-10
1.93999e-09
-2.00125e-09
-3.13007e-11
-9.39411e-09
8.8095e-09
6.15913e-10
-5.81165e-10
-3.93329e-09
-7.03272e-10
2.45577e-09
-5.85264e-11
-3.65104e-10
2.96468e-09
7.46241e-10
8.04694e-09
2.5469e-10
-3.67781e-10
-7.93385e-09
5.61028e-09
2.48181e-09
-2.6987e-09
1.28083e-09
-2.04927e-09
2.1057e-09
9.48024e-09
5.1366e-10
-9.42012e-09
-5.73784e-10
3.6318e-11
-7.58017e-11
3.98484e-10
-4.97543e-10
-8.14868e-09
9.56023e-09
1.71695e-09
-9.40804e-09
-1.86914e-09
9.01274e-09
-1.80445e-09
2.15773e-09
-9.36601e-09
-2.4372e-10
5.30393e-09
-5.06021e-09
1.01132e-08
-1.3094e-08
2.98074e-09
4.70058e-10
-3.62907e-10
-2.07304e-09
-9.20356e-09
8.62748e-09
-1.75608e-10
2.00916e-09
-1.83355e-09
5.261e-09
-5.26435e-09
5.33135e-09
-3.9403e-09
-6.81824e-09
5.42719e-09
-1.77218e-10
-6.11583e-09
6.48135e-09
-1.88304e-10
4.95409e-10
5.09075e-09
-4.89859e-09
-6.87575e-10
8.2289e-09
6.04156e-09
-5.79349e-09
-8.47697e-09
1.65387e-10
-1.9078e-10
4.21205e-10
-3.95811e-10
-1.70423e-09
1.31823e-09
-1.19164e-09
1.57764e-09
4.16601e-09
-6.56956e-09
3.06514e-09
-6.61598e-10
7.09062e-09
1.94562e-09
-7.48799e-09
-1.54825e-09
3.50488e-09
-3.86638e-09
5.40584e-09
-5.04435e-09
-1.24424e-09
1.30902e-09
1.18514e-09
-1.24991e-09
-3.4126e-10
6.99354e-10
-7.89532e-09
7.53722e-09
9.92467e-09
7.04651e-09
-1.0585e-08
1.06788e-09
-2.43736e-10
8.56453e-09
2.21929e-10
-5.02638e-09
5.44176e-10
4.26028e-09
1.69183e-09
-1.30819e-09
-3.30713e-09
2.9235e-09
-4.26172e-09
-4.20292e-09
6.92272e-10
6.4017e-10
-9.86616e-09
1.01022e-08
-8.7622e-10
1.87861e-09
-2.30201e-09
-8.82209e-09
-3.87976e-10
6.42165e-11
1.24794e-10
-2.12853e-10
2.52084e-10
-1.64025e-10
-8.62654e-10
9.37674e-10
-7.50197e-11
4.37188e-10
1.38012e-11
-3.55009e-10
-1.12805e-09
8.20323e-09
1.12642e-09
4.61361e-09
-1.93603e-09
7.6011e-09
-1.02787e-08
9.90602e-09
-5.36746e-09
5.3861e-09
-4.33013e-09
5.00076e-09
4.45216e-09
9.09319e-09
-3.63933e-09
1.75623e-09
9.03685e-09
-2.99852e-09
-7.79457e-09
8.87846e-09
-9.31663e-09
1.48158e-09
-1.04341e-09
-8.56705e-09
7.38233e-09
4.28727e-09
-3.10255e-09
-1.37657e-09
7.3391e-09
5.63876e-09
-2.03366e-11
4.1893e-11
-1.34528e-10
1.12971e-10
-3.92119e-10
3.52464e-10
4.55405e-09
-4.51439e-09
-1.26855e-09
1.58657e-09
-1.01704e-09
-1.31168e-10
1.6832e-09
-1.55204e-09
-5.49886e-10
-7.75281e-09
9.98475e-10
7.30422e-09
-1.29086e-10
-4.7705e-09
-6.19721e-09
7.26425e-09
-1.22728e-09
-9.90844e-09
1.80875e-09
9.32697e-09
-2.49218e-10
2.51077e-10
-9.88143e-11
3.21967e-10
1.17305e-08
-1.16311e-08
-4.21332e-10
-2.45398e-10
5.58737e-09
-3.90255e-09
-1.43942e-09
-4.37835e-09
-3.48397e-09
4.7627e-09
-7.21305e-09
5.93431e-09
5.23e-10
-8.77558e-10
8.68255e-09
-8.32799e-09
-6.308e-09
5.24307e-09
-3.45116e-10
1.2504e-10
-3.92507e-10
5.23937e-10
-1.25413e-09
7.03355e-11
4.78847e-10
-2.75112e-11
-9.11926e-09
2.5509e-09
9.52669e-09
4.70803e-09
-4.52958e-09
5.15289e-09
-1.35316e-10
1.67971e-09
-1.69214e-09
-3.46135e-09
8.19119e-11
4.32694e-10
-9.60483e-11
4.92208e-09
-2.69124e-09
-4.59203e-09
9.82027e-09
1.3368e-09
-2.27861e-09
5.9655e-11
-9.19294e-10
9.86815e-10
-1.27176e-10
-2.53233e-09
-3.93033e-09
4.21751e-09
-2.76303e-10
3.66633e-10
-8.7604e-09
2.65831e-09
7.63764e-09
3.90985e-09
-2.17854e-09
-7.32935e-09
-1.16211e-09
-2.6453e-10
4.62571e-09
-3.19907e-09
-1.07529e-10
-1.32219e-09
1.42972e-09
-3.82948e-09
3.85562e-09
-8.46572e-09
2.07242e-09
-1.86063e-09
8.25393e-09
-7.6821e-09
-1.72647e-09
1.47147e-09
-9.6321e-09
-1.80499e-09
1.818e-09
9.61908e-09
-2.90137e-10
1.44844e-10
-7.30256e-09
4.03762e-09
-3.10175e-10
-3.72744e-09
-2.65622e-10
-9.53658e-11
3.79453e-11
3.23043e-10
-1.11575e-09
1.02944e-09
-1.13127e-09
1.21758e-09
8.38915e-10
1.47842e-08
-6.43442e-09
-9.18872e-09
-7.17086e-09
-4.0913e-10
1.75509e-10
-3.48255e-09
7.15983e-09
6.532e-09
6.32404e-10
-6.88235e-10
3.2524e-09
8.28788e-10
5.73908e-09
-1.7935e-09
5.2597e-09
-6.03997e-09
2.57377e-09
-1.93599e-10
-3.99255e-10
9.52562e-09
-9.58494e-09
4.58573e-10
8.84829e-09
8.06813e-10
-9.24207e-09
-4.13035e-10
-9.34231e-11
-8.70805e-09
1.29301e-10
-8.20277e-09
5.35895e-10
8.09345e-09
-4.2657e-10
3.27464e-09
-9.08941e-09
9.20985e-09
4.83317e-09
-2.58786e-09
-1.04534e-08
8.20809e-09
4.07273e-10
-1.40979e-10
9.32644e-11
6.36538e-10
2.94362e-10
-4.60524e-11
-4.50799e-11
1.02535e-08
3.28535e-10
-1.19682e-09
-9.38523e-09
-3.1607e-09
7.32445e-09
-9.01964e-11
9.65023e-11
-7.02484e-11
6.39425e-11
-5.07015e-09
2.38294e-09
3.80041e-09
-1.11321e-09
-7.29409e-09
8.20324e-09
1.87781e-09
6.96832e-09
-3.72553e-09
3.5132e-09
-6.756e-09
3.21573e-09
-5.6278e-09
-1.84513e-09
4.25719e-09
2.66217e-09
-5.61681e-09
1.25093e-08
1.09357e-08
-9.15685e-09
8.15529e-09
-5.61909e-09
4.45795e-09
-3.909e-09
7.19875e-11
-1.1087e-10
9.04906e-09
-9.01018e-09
3.4868e-11
-9.20413e-09
-3.13849e-10
9.48311e-09
5.76884e-09
-5.78014e-09
-1.45073e-09
1.46203e-09
8.9664e-10
7.1519e-11
-7.31432e-11
-2.90049e-09
2.40263e-09
5.70804e-10
-7.29388e-11
-5.61778e-09
2.51555e-09
-2.94526e-09
6.0475e-09
1.31497e-09
-1.20349e-09
8.6109e-10
-1.0772e-08
8.58052e-09
1.33036e-09
5.23321e-10
-6.57717e-09
-5.16777e-09
1.12216e-08
-5.93473e-09
-5.65482e-09
7.94741e-09
1.98817e-09
9.19177e-09
-9.77234e-09
-4.89852e-09
4.63339e-09
7.23345e-09
-9.42442e-09
9.74639e-09
3.65985e-09
4.98823e-09
-6.70085e-09
-8.02999e-10
-8.948e-09
1.13619e-09
-1.50481e-09
-4.4705e-09
-4.97103e-09
3.07624e-09
3.42092e-11
-5.79679e-12
-1.40669e-09
1.37828e-09
-9.70028e-09
2.75857e-10
7.18491e-09
-2.70439e-09
-6.50079e-09
-2.30588e-09
-6.43355e-09
-6.48937e-09
6.24863e-09
6.35215e-11
-1.5272e-09
-1.00473e-08
1.30623e-09
-4.54441e-09
6.2533e-09
4.60917e-09
-2.09124e-10
-4.37281e-10
4.55625e-10
-5.19909e-09
1.29908e-10
5.06919e-09
2.98535e-10
-1.25825e-10
8.69466e-09
-2.44042e-09
-9.28883e-10
-5.336e-09
4.50711e-09
-8.78235e-09
-1.70859e-09
-8.08803e-09
2.23064e-09
3.32782e-09
4.86255e-09
5.6281e-10
1.98916e-10
-9.48309e-09
-7.85074e-10
1.41967e-09
8.84849e-09
-7.39161e-09
9.24668e-10
6.46695e-09
-4.76393e-09
4.86722e-09
-2.52299e-09
-5.92286e-09
2.48547e-09
5.96038e-09
-3.89649e-09
5.46428e-09
-1.00301e-09
1.14069e-08
-9.44604e-09
-5.01749e-09
5.49853e-09
-2.86784e-09
2.38681e-09
9.42778e-09
-7.5564e-10
-1.00487e-08
-1.17076e-09
1.37325e-09
-8.98452e-10
7.64496e-09
-6.74651e-09
-5.11375e-09
-3.77553e-09
8.18207e-09
-3.25432e-10
-9.4924e-09
1.55786e-10
1.06582e-08
-4.74335e-09
4.59727e-09
-1.05121e-08
9.4436e-09
2.39276e-10
-2.05275e-10
-1.07285e-10
4.0013e-09
-1.6489e-10
7.72929e-10
-4.60934e-09
-1.21797e-10
1.63177e-10
-3.11676e-11
-4.57339e-09
-3.56868e-09
5.91192e-11
1.5042e-09
-1.52911e-09
-2.06333e-10
-2.1343e-11
2.95006e-10
-6.44492e-09
6.00125e-09
-1.15461e-09
1.59829e-09
1.25829e-09
-5.00233e-09
-4.28778e-10
4.17283e-09
-5.80283e-09
-3.57582e-09
7.30561e-09
-3.93354e-10
-7.34933e-11
-2.86493e-10
-9.53588e-09
9.42312e-09
6.51331e-09
-1.47928e-09
-5.92394e-10
1.19035e-09
-9.33962e-09
8.58545e-09
-4.36181e-10
8.45379e-09
-3.66152e-10
-8.32039e-09
2.32751e-10
-5.60829e-09
-2.79812e-09
7.12279e-09
1.28363e-09
3.83746e-09
9.95878e-09
-1.26119e-08
1.04374e-09
1.99466e-10
-1.13453e-09
-1.08678e-10
-8.51532e-09
2.26121e-12
8.52049e-09
3.54329e-11
-3.25455e-10
-5.64344e-09
4.10336e-09
8.16231e-10
-1.20446e-09
-6.71031e-09
7.95e-09
-3.52273e-11
-6.48311e-09
5.34757e-09