/*--------------------------------*- C++ -*----------------------------------*\
  =========                 |
  \\      /  F ield         | OpenFOAM: The Open Source CFD Toolbox
   \\    /   O peration     | Website:  https://openfoam.org
    \\  /    A nd           | Version:  8
     \\/     M anipulation  |
\*---------------------------------------------------------------------------*/
FoamFile
{
    version     2.0;
    format      ascii;
    class       surfaceScalarField;
    location    "9";
    object      phi;
}
// * * * * * * * * * * * * * * * * * * * * * * * * * * * * * * * * * * * * * //

dimensions      [0 3 -1 0 0 0 0];

internalField   nonuniform List<scalar> 
8224
(
3.99824e-10
3.41701e-10
-5.6245e-10
-1.79076e-10
-3.97987e-11
4.20355e-09
-1.06283e-10
-4.05747e-09
-3.9444e-10
-1.83494e-10
-1.82839e-10
7.60773e-10
-7.78465e-09
3.0333e-09
-2.55115e-09
7.3025e-09
3.91112e-09
-1.95977e-10
1.78272e-10
-3.89341e-09
4.1408e-09
-2.7488e-10
1.37867e-10
-4.00378e-09
-3.91718e-09
-7.18164e-10
-9.78494e-11
4.7332e-09
-4.16624e-09
5.28608e-10
-7.49388e-11
3.71258e-09
1.76386e-09
-2.04534e-09
2.81485e-10
-2.98931e-09
-3.04516e-09
5.86648e-09
1.67991e-10
-6.65855e-10
-5.98046e-12
6.68312e-10
3.52344e-12
-9.6694e-10
-3.90465e-09
5.41333e-09
-5.4173e-10
-9.62709e-10
-1.71322e-10
1.93302e-09
-7.98991e-10
1.90659e-09
-9.63215e-10
-8.62932e-09
7.68594e-09
2.37885e-09
-2.26139e-09
-1.17455e-10
-4.33471e-09
4.35521e-09
1.826e-11
-3.8758e-11
-4.07383e-09
6.94376e-10
6.35517e-11
3.3159e-09
5.89066e-09
-4.84196e-09
4.95988e-09
-6.00858e-09
2.55292e-09
-2.01002e-09
-3.98395e-09
3.44105e-09
-4.33329e-09
2.43296e-10
-7.62475e-11
-4.74021e-10
4.23371e-10
-4.4099e-10
4.91641e-10
-5.35368e-09
5.38504e-09
1.13479e-09
-1.16615e-09
-1.33211e-09
1.67702e-10
1.37812e-09
-2.13721e-10
-5.27362e-09
2.63924e-10
-8.52263e-11
5.09492e-09
4.96026e-09
-4.57794e-09
-1.02728e-09
6.44964e-10
-3.60587e-09
4.7771e-10
-7.61117e-11
3.20427e-09
-5.3063e-09
-7.24859e-10
6.77483e-10
-4.0849e-09
-1.38259e-10
3.16502e-11
4.19151e-09
1.50795e-10
4.35409e-09
-4.32578e-10
-4.07231e-09
3.0639e-09
-9.00233e-10
-6.70514e-09
4.54147e-09
-1.00519e-10
9.44539e-11
-5.68664e-09
8.19601e-09
-1.45144e-10
-2.36422e-09
3.79949e-09
6.00453e-11
-1.99067e-10
-3.66047e-09
1.44421e-11
2.92054e-09
-3.32214e-09
3.87155e-10
1.85727e-10
4.87074e-10
-6.79886e-09
6.12606e-09
4.26993e-09
4.09584e-11
-6.90118e-11
-4.24188e-09
3.58762e-11
-1.4558e-10
-5.21094e-09
5.32064e-09
4.46959e-09
3.07105e-10
4.83218e-11
-4.82502e-09
5.54724e-09
2.41022e-10
-6.49281e-09
7.04557e-10
-3.99228e-09
4.14548e-09
-2.39668e-10
8.64633e-11
-7.76624e-09
-4.04031e-09
6.7275e-09
5.07906e-09
5.37107e-09
-1.56772e-10
-5.20213e-09
-1.21686e-11
-3.23978e-10
-5.49374e-09
4.84532e-09
9.72396e-10
3.30241e-09
-3.8299e-09
3.14718e-10
2.12775e-10
4.30513e-09
-4.86397e-09
-8.51087e-10
1.40992e-09
-3.7198e-09
3.65783e-09
5.6458e-11
5.51566e-12
4.38803e-09
7.12487e-09
-5.16474e-09
-6.34816e-09
4.4768e-09
-4.4269e-09
-1.70495e-10
1.20588e-10
-4.15164e-09
5.319e-09
1.95391e-10
-1.36275e-09
-1.10846e-08
-1.78091e-09
5.27427e-09
7.5912e-09
2.5832e-09
-2.52738e-09
-5.58174e-11
-4.27931e-09
-8.6036e-11
3.06385e-11
3.74254e-09
-3.58446e-09
8.05878e-11
-2.38662e-10
-3.43852e-09
-9.08418e-09
2.31457e-09
1.02081e-08
-1.09953e-08
7.52565e-09
3.98266e-09
-5.13017e-10
5.16526e-11
-2.97381e-11
4.49865e-09
-5.09148e-09
5.92831e-10
4.34246e-11
-4.85592e-09
-2.25254e-10
5.03775e-09
-3.80029e-09
3.05894e-10
-9.91564e-11
3.59355e-09
4.459e-09
3.48263e-11
-1.7023e-11
4.03649e-09
-3.8971e-09
7.88608e-11
-2.18259e-10
-4.1271e-09
4.0781e-09
-7.15199e-11
1.20523e-10
-5.11256e-09
7.18757e-11
9.34315e-10
4.10637e-09
-3.29097e-12
-3.5579e-11
4.17967e-09
-4.97198e-11
-2.62704e-10
-3.77247e-09
-5.63195e-10
5.50443e-09
2.00816e-09
-6.9494e-09
-4.94094e-09
4.47682e-09
4.88525e-09
-4.42113e-09
-6.04525e-09
8.25089e-09
2.70127e-09
-4.90691e-09
-4.13624e-09
4.20266e-09
-1.10136e-11
-5.53998e-11
-4.38802e-09
4.31323e-09
-6.63478e-11
1.41135e-10
3.46428e-09
-4.03155e-11
2.12254e-11
-3.44519e-09
-6.99302e-10
-4.61859e-09
8.38956e-10
4.47893e-09
5.59191e-09
-2.97217e-10
9.55156e-11
-5.39021e-09
2.93268e-11
4.73095e-09
-4.61343e-11
-4.71414e-09
-9.61385e-09
6.62194e-09
-7.57567e-09
1.05676e-08
-2.46687e-09
2.66083e-09
-6.56615e-09
6.3722e-09
-2.15502e-10
-2.456e-09
2.67151e-09
4.37732e-09
-8.04383e-10
-3.79397e-09
2.21034e-10
4.23019e-09
-4.17716e-09
5.11771e-12
-5.81426e-11
5.36456e-09
-5.16999e-09
1.66947e-10
-3.61521e-10
4.51537e-09
-3.97487e-09
-3.52981e-09
7.89673e-10
5.17738e-09
-5.25207e-09
-7.14982e-10
-3.16777e-09
5.13879e-09
3.61161e-09
-5.58264e-09
-4.01326e-09
-8.79416e-11
4.07015e-09
3.10498e-11
-3.99086e-09
4.10873e-09
-2.0442e-10
8.65526e-11
-8.84693e-09
3.48197e-10
2.60777e-09
5.89097e-09
-5.44768e-09
-1.36028e-09
5.84102e-09
3.54472e-09
-4.9488e-13
-3.44634e-09
-9.78854e-11
-4.38455e-10
6.15398e-09
-3.50965e-10
4.56272e-09
-3.42674e-09
-8.66071e-09
7.52473e-09
-3.27188e-10
5.57552e-09
-5.81152e-09
-1.95943e-09
-5.16633e-09
3.287e-09
3.83876e-09
-4.80676e-09
4.74317e-09
1.41682e-10
-7.80958e-11
-3.47904e-09
3.42475e-09
6.62275e-11
-1.19345e-11
1.58558e-09
-1.75894e-10
3.2456e-09
-4.65529e-09
-4.42107e-09
9.02694e-10
-9.68684e-11
3.61525e-09
2.73922e-09
-7.67791e-09
-9.81208e-10
5.9199e-09
-1.46688e-10
4.69387e-11
-6.1137e-09
-8.85731e-11
1.38562e-09
4.81665e-09
3.7137e-09
-5.49939e-10
1.43636e-10
-3.3074e-09
-3.8655e-09
-2.17883e-10
9.11099e-11
7.62738e-10
-2.19532e-10
4.82787e-09
5.33579e-09
4.0621e-11
-1.58997e-10
-5.21742e-09
-3.59262e-09
-7.36524e-10
1.7751e-10
1.14156e-10
-4.31762e-11
-3.73991e-09
-1.97842e-10
7.22472e-11
-3.79012e-09
7.3853e-11
4.8002e-13
3.71579e-09
-5.93703e-09
4.06657e-09
-1.76383e-09
3.63429e-09
-3.29369e-09
2.00396e-09
1.28973e-09
-3.36081e-09
3.97615e-09
-6.5835e-09
5.96815e-09
-4.8019e-09
4.96195e-09
4.38473e-09
-4.54478e-09
3.2823e-09
9.66132e-11
-1.82688e-10
-3.19622e-09
-3.9028e-09
-1.82084e-10
9.40272e-11
-1.63205e-09
4.26924e-09
-6.31077e-09
3.67359e-09
-6.29495e-10
-1.07157e-10
7.07967e-11
3.69538e-09
3.84233e-10
-4.20777e-09
1.28157e-10
2.21403e-09
2.44563e-09
-5.60811e-10
-4.09884e-09
-3.63633e-09
3.63963e-09
-8.70483e-12
5.40897e-12
1.05322e-09
9.42031e-10
-6.32299e-09
4.32774e-09
-8.34382e-09
2.79423e-09
7.45618e-09
-2.8911e-09
2.96851e-09
-4.86611e-09
4.78869e-09
-3.58495e-09
3.44934e-09
1.37068e-10
-1.45168e-12
-5.23719e-09
1.80463e-10
-1.24923e-10
5.18165e-09
1.07177e-10
-2.83615e-11
-3.72709e-09
3.64827e-09
-2.22891e-09
2.19275e-09
-2.24825e-09
2.28441e-09
4.20596e-11
-4.58732e-09
-2.25595e-10
4.77085e-09
-7.55601e-09
4.49477e-09
-2.99571e-10
1.64682e-10
-3.10775e-10
-3.65415e-09
3.80024e-09
-3.35734e-09
7.53127e-10
3.74969e-09
-1.14547e-09
-6.30353e-09
3.8914e-09
5.15134e-09
3.25375e-11
-1.80886e-09
1.77632e-09
-7.92314e-10
-4.74188e-09
1.37433e-09
4.15987e-09
-3.98024e-09
4.07922e-09
7.19284e-11
-1.70908e-10
-9.71186e-10
3.88626e-09
-2.88135e-09
-3.37232e-11
-3.57895e-09
-3.69948e-11
-2.03867e-11
-5.64711e-10
-9.96525e-09
-6.65994e-11
1.77678e-10
-5.23696e-09
5.12588e-09
-5.50406e-09
4.95518e-09
-1.79143e-09
2.34032e-09
-1.54077e-11
1.767e-09
-1.75159e-09
5.53494e-09
-1.68431e-10
3.60654e-11
-5.40258e-09
3.4695e-09
7.55221e-11
-1.62203e-10
-3.38282e-09
-1.97519e-09
9.02152e-10
4.42293e-09
-3.3499e-09
4.55172e-09
-8.82429e-09
7.33252e-09
-3.05995e-09
-3.65695e-09
4.69442e-11
-1.29906e-10
3.81291e-09
-3.72129e-09
6.53964e-11
-1.57009e-10
4.12054e-09
-4.56471e-09
6.76891e-10
-2.32722e-10
-6.13201e-09
3.07399e-09
-3.22171e-09
6.27973e-09
-5.0271e-09
1.39741e-10
5.3141e-09
-4.2674e-10
-7.0227e-09
2.94149e-09
6.53709e-09
-2.45587e-09
3.64434e-09
-3.55617e-09
6.72023e-11
-1.55372e-10
6.08395e-10
-1.98068e-09
4.34618e-09
-2.9739e-09
-1.83107e-08
2.4868e-11
1.82858e-08
-8.82178e-12
-4.29475e-09
4.35249e-09
-4.89149e-11
1.65423e-09
-7.16577e-09
-1.21658e-09
6.72811e-09
4.88099e-09
5.97168e-09
-4.96202e-09
5.74591e-09
-2.59487e-10
4.85221e-11
-3.04502e-10
-6.37951e-09
-1.3092e-09
7.99321e-09
-3.28318e-09
3.45779e-09
-7.83448e-11
-9.62617e-11
3.58996e-09
-1.35195e-10
-6.39777e-11
-3.39079e-09
3.68277e-11
-1.68625e-09
1.64943e-09
-1.89071e-10
4.96652e-10
3.81296e-09
-1.78327e-09
7.57964e-10
-4.91173e-09
-4.99206e-09
-6.07204e-09
4.93209e-09
-5.62221e-09
1.89277e-09
2.16288e-10
3.51315e-09
-4.90766e-10
5.53057e-09
-5.19658e-09
-5.93639e-09
-1.18274e-09
7.12114e-09
-2.0025e-12
-2.30149e-10
-5.42721e-09
5.48893e-09
-4.15769e-09
4.33038e-09
-3.5088e-10
1.7819e-10
-9.07266e-11
4.16015e-11
5.66734e-09
-2.53756e-09
1.90371e-09
-5.0335e-09
-3.46974e-09
3.3997e-09
-5.37077e-11
1.23748e-10
5.49378e-09
-8.5197e-10
-4.68549e-09
4.36838e-11
-1.67497e-10
7.7602e-11
-3.09926e-09
-1.42685e-08
-2.70567e-09
8.30069e-09
-1.00536e-08
-1.00481e-08
1.1801e-08
2.73354e-09
5.96369e-09
-4.18185e-09
-8.83852e-09
7.32022e-09
9.81899e-09
-2.75421e-09
7.2955e-10
2.02466e-09
3.96606e-09
-2.21237e-09
7.46019e-10
-2.4997e-09
5.22228e-09
-4.23468e-09
-1.85323e-09
8.65628e-10
-7.21172e-09
-9.89932e-10
1.12261e-09
7.07905e-09
-4.28145e-09
4.47068e-09
6.46885e-09
-6.65808e-09
-7.84117e-09
-2.18619e-09
7.56049e-09
-3.3789e-10
6.43379e-10
-6.97306e-09
6.66757e-09
-8.05425e-09
-4.41233e-09
1.38202e-09
-3.6604e-09
3.55285e-09
1.35667e-10
-2.81198e-11
-3.58175e-09
-1.77024e-12
4.57338e-12
1.99644e-09
-1.24792e-08
1.16119e-08
-1.12908e-09
-4.89642e-09
4.51884e-09
-4.45878e-11
4.22161e-10
-5.60587e-10
1.31154e-10
-3.05827e-09
-8.49142e-09
8.50781e-09
3.04188e-09
4.15751e-09
4.85098e-09
-5.94459e-09
3.9047e-09
-3.79509e-09
-1.72967e-10
6.33639e-11
2.9509e-09
2.33392e-09
-1.98241e-09
4.33151e-09
8.43934e-10
-1.20938e-09
-4.42312e-09
2.83845e-09
-1.98598e-10
3.61283e-09
-3.44228e-09
1.63666e-10
-3.34212e-10
-4.60123e-09
4.52392e-09
-1.83817e-10
2.61129e-10
5.40683e-09
-3.09865e-10
-5.1929e-09
9.59354e-11
-9.00267e-09
5.80903e-09
-3.10989e-09
-5.51268e-09
-3.51712e-09
2.74968e-09
6.28013e-09
-6.72118e-09
5.66935e-10
5.77331e-09
3.80939e-10
-3.70895e-09
-1.00496e-10
-2.046e-11
-4.79322e-09
-4.33217e-10
1.9934e-10
9.76731e-10
-5.17349e-09
4.7069e-09
-5.1014e-10
-5.4521e-09
-2.01632e-09
2.46996e-09
4.99847e-09
-4.40061e-09
5.55845e-10
4.44697e-11
5.30786e-10
-5.04742e-09
4.35877e-09
-6.60441e-10
1.53745e-11
-4.06126e-09
3.72009e-09
-4.03995e-09
4.38112e-09
-3.28294e-10
1.3122e-09
-5.04516e-09
-8.10212e-09
-3.0281e-09
8.07195e-09
2.23975e-09
-2.37332e-09
1.33564e-10
2.99693e-09
-7.49307e-09
-2.52656e-09
4.46437e-09
-3.39439e-10
-4.13376e-09
-4.51166e-09
-2.26431e-10
4.59735e-09
1.40741e-10
1.24064e-08
-1.59497e-08
-7.33967e-09
1.0883e-08
-4.61634e-09
-1.46013e-09
5.86097e-09
-1.78649e-09
6.23901e-09
-5.42912e-10
-5.24321e-09
-9.80442e-10
6.76656e-09
-1.41404e-09
2.096e-10
-3.21664e-09
-4.29767e-10
-1.06179e-10
6.19245e-11
-3.84387e-09
1.29371e-10
-5.30139e-12
2.76472e-09
-4.39628e-09
-4.96327e-09
6.59483e-09
5.10006e-10
-2.75226e-09
2.24225e-09
-8.10367e-09
3.80611e-09
5.35079e-09
-5.73971e-09
-1.55587e-08
6.83351e-09
1.44649e-08
1.1982e-10
2.11993e-09
4.32265e-09
-3.92383e-09
1.99112e-10
-5.97931e-10
4.62415e-09
-4.71992e-09
-3.60923e-09
3.705e-09
1.3472e-08
-1.45117e-08
7.36935e-09
-6.32965e-09
-1.5667e-10
4.81052e-11
1.36107e-09
1.31922e-08
-1.38243e-08
-7.28959e-10
-1.16611e-09
-3.04922e-09
1.415e-10
3.69799e-09
-3.5985e-09
-1.60531e-10
6.10373e-11
6.87175e-09
-5.45609e-09
-4.48701e-09
3.07134e-09
6.18506e-11
1.42285e-11
-1.74737e-09
2.36332e-10
-4.60266e-09
-4.04317e-09
3.26585e-10
4.32498e-09
-5.53242e-09
3.9965e-10
-9.14711e-11
5.22424e-09
-4.21405e-09
1.56634e-10
-6.96789e-11
3.88457e-09
-4.32884e-09
-2.22543e-10
6.66813e-10
-4.68131e-09
-2.0693e-09
4.68567e-09
2.06494e-09
-6.01192e-10
-4.69933e-09
4.78284e-09
5.17681e-10
5.44719e-09
3.56486e-10
-1.0104e-09
-4.79328e-09
-4.19529e-09
9.93886e-10
-1.22255e-09
4.42396e-09
-2.4435e-09
3.34594e-09
-9.02444e-10
-5.51927e-09
-4.39996e-09
3.65461e-09
6.26463e-09
-4.29486e-09
5.56572e-10
-5.5647e-10
2.08181e-10
-3.76093e-09
-3.22083e-11
2.30197e-09
-5.40265e-09
-1.32243e-09
3.18883e-09
-1.51325e-10
-3.08291e-09
4.54118e-11
-3.87401e-09
-7.06411e-10
1.25773e-09
3.32269e-09
-4.96137e-11
-1.15294e-11
5.157e-09
-4.25652e-09
2.64824e-09
-3.54872e-09
3.6138e-10
-7.45253e-11
3.98308e-09
-1.07558e-08
3.02524e-09
7.77187e-09
-4.13487e-11
3.44416e-09
-1.31778e-10
-3.36202e-09
4.9644e-11
1.02196e-09
-1.00545e-08
8.06935e-09
4.77331e-09
-1.23352e-10
2.78859e-11
-4.67785e-09
-5.27878e-09
-1.58826e-10
3.77068e-10
5.06054e-09
-3.20174e-09
-5.67173e-09
6.55779e-09
2.31568e-09
-7.66569e-09
-9.37486e-09
-3.49129e-09
-6.70658e-12
1.8953e-11
-1.95187e-08
1.60492e-08
-2.27019e-09
-4.0187e-09
-2.74157e-10
1.35165e-10
3.3628e-09
-3.4968e-09
1.07243e-09
-9.38431e-10
6.79594e-10
-1.12167e-09
5.97324e-09
-5.53117e-09
4.18558e-11
-7.08773e-11
3.82851e-09
2.08273e-09
-4.44899e-09
-6.48067e-09
-1.1094e-08
-3.28951e-09
1.12842e-08
-2.0483e-09
2.79931e-10
1.76837e-09
-5.31744e-09
5.3499e-09
1.94213e-10
-2.26678e-10
-1.36223e-10
1.48031e-09
3.97491e-09
-4.05008e-11
-3.47362e-09
4.43844e-11
-5.29144e-09
-2.37407e-10
2.11408e-10
-5.88581e-09
6.00985e-09
-7.89028e-09
1.64709e-10
-6.55288e-11
-1.34361e-10
1.37798e-10
4.76043e-09
-4.76387e-09
-8.05481e-09
-6.92352e-09
5.36448e-09
-2.5566e-10
-5.29994e-09
9.49436e-10
4.60616e-09
3.15644e-09
-5.02078e-09
3.44991e-09
-1.86659e-10
-3.6895e-09
5.3735e-10
3.33881e-09
-3.76535e-09
5.88854e-09
-5.32493e-09
-3.2802e-10
-2.3207e-09
2.64872e-09
-2.34299e-10
9.344e-11
-2.88908e-10
8.93595e-09
1.12997e-09
-1.18468e-08
4.27545e-09
-2.75968e-09
-7.03504e-09
3.34887e-09
-1.87471e-09
3.4861e-09
-1.07929e-09
4.36069e-09
-5.91713e-09
4.66148e-09
6.13855e-10
6.41802e-10
5.86965e-09
5.66005e-09
-6.3727e-09
2.04176e-09
-3.83907e-10
-4.7657e-09
3.10785e-09
8.04516e-09
5.63253e-10
3.27533e-10
-2.10275e-09
2.09946e-09
-4.25191e-09
2.27981e-09
-9.18989e-10
3.01921e-09
-5.16921e-09
4.16933e-09
-2.01933e-09
-5.32404e-09
-1.60187e-10
5.31486e-09
1.69365e-10
-3.63373e-09
-3.26293e-11
5.66963e-11
3.60966e-09
2.56077e-09
-2.64935e-09
-4.85366e-09
1.60934e-09
6.21283e-09
-1.29584e-08
-8.65863e-09
7.54392e-09
1.40731e-08
-5.32299e-09
5.23791e-09
1.31013e-10
-4.5933e-11
-4.50991e-09
7.57865e-09
4.13228e-09
-7.20103e-09
1.46114e-09
-1.52377e-09
9.15286e-10
-6.62926e-10
-1.71428e-08
1.88911e-08
-7.11304e-09
5.36478e-09
-1.17107e-09
-4.90087e-11
-1.26921e-08
1.39122e-08
1.65222e-09
6.42759e-09
-5.51471e-09
-2.56509e-09
4.36847e-09
-1.11392e-09
7.2767e-10
-3.98222e-09
6.79894e-11
-1.65092e-10
-6.90151e-09
-8.02651e-09
7.02255e-09
7.90546e-09
-2.45119e-10
9.05604e-11
2.58831e-09
-1.47972e-09
2.8492e-09
-3.95779e-09
-3.86913e-09
-1.2215e-10
1.47403e-10
-2.87981e-09
6.91294e-09
1.63421e-09
-3.77456e-10
3.40449e-10
-2.0508e-10
2.42087e-10
4.16601e-09
-5.1601e-09
3.75881e-09
-3.64008e-10
-5.28036e-09
4.92939e-09
-1.00126e-09
-4.52168e-09
4.67097e-09
-5.03699e-10
-4.45841e-09
-2.07878e-10
-1.79329e-08
-6.1351e-10
2.20424e-10
1.8326e-08
3.98049e-10
-6.47853e-09
-6.70895e-09
-3.31311e-09
3.23578e-09
-6.93853e-11
1.46713e-10
1.19666e-10
3.34199e-09
-3.69043e-11
-2.26918e-09
2.07577e-09
1.79898e-08
-1.77964e-08
3.17193e-11
-3.27652e-09
7.96469e-10
2.44833e-09
1.91201e-09
-3.52882e-09
5.28454e-09
-3.66772e-09
-8.54167e-10
1.7873e-09
-3.34656e-09
2.41344e-09
-5.75578e-10
1.75733e-09
6.9253e-09
-2.70012e-09
-5.98251e-09
-5.746e-09
3.30248e-09
-3.53235e-09
3.51153e-09
-4.68373e-11
6.76527e-11
-1.12043e-09
-4.22432e-09
2.39347e-10
5.10541e-09
4.91257e-09
2.86802e-09
-2.59432e-10
5.48578e-09
1.3948e-10
-5.36582e-09
2.04173e-09
-2.00077e-09
-3.17255e-10
-4.76163e-09
3.4863e-10
4.73026e-09
6.94706e-10
-5.2213e-09
2.11672e-10
-2.81808e-10
2.7673e-09
-7.95391e-10
2.42114e-10
1.84629e-09
-1.8045e-09
-4.17953e-11
2.15762e-10
4.53269e-09
2.48647e-11
3.42822e-09
-3.3085e-09
-4.85989e-11
-7.11148e-11
-5.90492e-09
4.81804e-09
-1.40828e-10
1.22772e-09
1.63679e-10
-4.15147e-10
-4.96984e-09
3.1742e-09
-1.60986e-09
-6.43044e-09
-4.72858e-09
-5.58132e-09
5.10541e-09
5.20449e-09
-4.82733e-09
1.3824e-10
-1.21583e-09
-4.27291e-09
4.14626e-09
2.31184e-10
-1.04532e-10
-1.20702e-08
1.33264e-08
-1.25619e-09
5.68698e-09
-6.87083e-09
6.80158e-10
-2.25991e-08
1.58411e-08
-1.15527e-08
5.35678e-10
-5.52651e-09
9.62955e-11
4.89454e-09
1.27228e-08
-1.22551e-08
2.24313e-09
-2.71087e-09
4.88124e-13
-5.14675e-09
1.16532e-10
5.02973e-09
4.47438e-09
-1.65074e-09
-4.42699e-09
1.60334e-09
4.48361e-09
-9.20787e-10
-5.5435e-09
8.49969e-10
-6.11315e-09
2.59899e-11
2.45634e-10
-4.39872e-09
5.68267e-10
-9.7615e-10
-2.94946e-09
-4.85486e-09
-5.42714e-10
4.79638e-09
-2.77946e-10
-5.32101e-09
2.74919e-10
-1.41574e-10
-3.51556e-09
5.86393e-11
2.6057e-09
2.46633e-09
-1.35194e-09
3.61124e-09
-4.22037e-09
-5.58136e-11
6.64946e-10
-7.24356e-11
3.61982e-09
4.25829e-11
-5.07327e-09
4.49385e-09
4.65123e-10
1.14307e-10
2.13139e-09
-2.18111e-09
-5.89368e-09
2.35751e-09
-7.25098e-10
4.26127e-09
3.60167e-09
-4.07466e-09
1.26496e-10
3.46493e-10
3.8655e-09
-9.19357e-10
-2.94614e-09
5.7259e-09
3.9082e-09
-5.35865e-09
3.4824e-09
-2.59997e-09
1.67048e-09
-1.4517e-10
6.82191e-11
4.25555e-09
-4.81796e-09
-5.92248e-10
1.0668e-09
3.07871e-09
-3.55326e-09
-1.53879e-09
2.09653e-09
-2.52153e-09
1.96379e-09
1.08753e-09
-1.81229e-09
6.35018e-09
-5.62542e-09
1.6085e-11
-3.68559e-11
5.731e-09
-6.06961e-09
-6.5629e-09
-1.59593e-09
4.81784e-09
1.12427e-09
-6.16657e-10
2.16859e-10
-4.04432e-11
4.40242e-10
-4.06805e-09
2.25343e-09
-1.44814e-10
-3.8587e-10
-4.99136e-09
1.22382e-10
5.25485e-09
2.06931e-09
-2.6743e-09
5.87926e-09
4.04922e-09
-2.7945e-09
2.84944e-09
-4.10417e-09
3.9965e-09
9.69049e-11
-1.56962e-09
-2.52379e-09
-2.67437e-09
1.89402e-10
-2.12528e-09
-3.8717e-09
5.68112e-09
3.15862e-10
-9.72104e-10
5.6026e-09
5.24387e-10
-5.15488e-09
1.24604e-09
-6.14695e-09
6.35128e-09
-1.45037e-09
3.29927e-09
-4.1159e-10
-5.68954e-09
-7.77145e-09
2.70524e-09
-7.19506e-10
9.00174e-11
-5.26419e-09
4.36436e-09
-4.25051e-09
-2.43029e-10
1.29177e-10
-3.63894e-10
-4.63042e-09
2.01098e-10
-4.63614e-09
-1.39117e-09
-6.91549e-09
-2.06088e-09
3.28683e-09
-6.03636e-10
4.63939e-09
3.18713e-10
-4.35447e-09
1.13289e-10
3.16818e-09
-3.28147e-09
-4.35208e-09
4.15064e-09
6.21291e-10
-4.19857e-10
-7.84275e-10
-4.72803e-09
5.07909e-09
-4.55323e-09
-5.51151e-10
2.77055e-10
-4.37111e-10
5.08154e-09
-5.10407e-09
4.59643e-10
-6.52143e-09
4.80263e-09
-4.84421e-09
2.92405e-10
-2.5082e-10
-3.96204e-09
1.62403e-10
-5.3408e-11
3.85304e-09
-6.00421e-10
3.16884e-10
-4.40196e-09
-6.77766e-09
6.65812e-09
-2.18351e-10
-6.47068e-12
1.85276e-09
-7.50694e-10
-2.09688e-11
7.65682e-10
-1.25302e-09
4.95978e-09
2.96772e-09
-6.67449e-09
1.46431e-10
-5.98458e-11
5.42605e-09
-4.50201e-11
2.58064e-11
-7.57696e-09
2.59937e-09
-2.6163e-10
5.23921e-09
3.82111e-10
-2.40736e-10
-5.18832e-10
4.89796e-10
2.07156e-09
-2.62422e-09
6.28574e-11
1.48901e-10
-1.32491e-10
-5.29519e-09
-4.76746e-09
-1.82054e-09
3.6715e-09
2.91649e-09
-9.10211e-10
3.24016e-09
-3.95901e-09
-3.05805e-09
-4.78573e-09
4.17489e-10
3.75849e-09
-3.58459e-09
4.21413e-09
-2.47599e-10
-3.88335e-09
1.12243e-10
-6.44138e-09
2.28938e-09
4.79538e-09
-4.65339e-10
2.13356e-10
-3.77902e-09
1.47706e-10
-5.32623e-11
5.71729e-09
-3.19294e-09
1.18065e-09
7.86944e-10
5.7307e-09
-9.33299e-10
-5.58434e-09
-4.00723e-09
4.93314e-09
-2.30422e-10
3.79978e-09
9.20171e-09
-4.50542e-09
-9.51595e-09
8.39916e-09
2.13874e-09
-1.72385e-08
-3.35602e-09
6.82558e-09
1.3769e-08
-4.76185e-10
7.08518e-10
-4.58441e-09
7.05595e-09
-7.1516e-09
3.09258e-09
7.35766e-09
5.86732e-09
-6.60304e-09
9.66179e-10
-1.16383e-09
4.67203e-09
-5.78036e-11
4.42341e-11
-1.25059e-09
-4.56918e-09
-4.75699e-09
2.93493e-09
4.67379e-09
-2.85173e-09
5.75482e-09
-2.60471e-09
-2.76868e-11
-3.12243e-09
2.81205e-11
-5.29951e-09
6.93252e-09
-5.29382e-09
-9.48361e-11
-1.54386e-09
3.68316e-09
-1.3392e-09
-3.51007e-09
6.40261e-09
-6.92165e-09
5.43386e-10
-2.43369e-11
3.06616e-09
-2.05737e-09
-8.21646e-09
3.74862e-09
-1.37937e-09
1.10016e-09
-1.10565e-09
4.35799e-09
-9.69372e-09
2.64038e-10
4.43028e-09
-4.56494e-09
-6.97196e-09
7.10806e-10
5.02855e-09
1.2326e-09
7.28749e-10
-4.96753e-09
-9.27552e-10
-4.23105e-09
-2.00389e-11
4.10138e-11
4.21007e-09
3.76219e-09
-7.16941e-09
1.9275e-09
5.73014e-09
3.67967e-10
-5.76282e-09
5.67309e-09
4.64145e-09
5.59677e-09
-9.34769e-10
-4.54871e-09
1.64023e-09
-1.76445e-09
1.24219e-10
1.99703e-10
-3.89056e-11
-4.02992e-09
-3.28257e-10
-2.82601e-10
2.16419e-10
2.40211e-09
-2.47775e-09
7.56358e-11
-4.27101e-09
4.04545e-11
-4.46867e-09
4.471e-09
-1.10044e-10
1.07713e-10
2.07808e-10
2.96037e-09
-2.43226e-10
2.50283e-09
-3.59881e-09
7.39974e-09
4.12076e-09
-7.02236e-09
-4.49814e-09
-1.31894e-09
7.33278e-09
-6.00509e-10
-1.41527e-08
2.08256e-09
3.00876e-10
-8.77132e-09
1.54879e-09
-2.85732e-10
2.91135e-10
4.68638e-09
-4.69178e-09
8.73388e-10
-7.20203e-09
1.21983e-08
-7.19625e-09
6.74971e-09
5.18288e-10
3.43633e-09
-3.90383e-09
-5.07939e-11
-2.36098e-10
-4.60284e-09
4.07918e-10
4.43102e-09
4.8892e-11
3.72409e-09
-3.62219e-09
1.72152e-12
-4.74284e-11
1.45763e-09
-2.14317e-09
6.85539e-10
-4.81483e-09
4.79106e-09
-4.77813e-09
2.57813e-10
-4.68255e-09
-1.76491e-10
-2.61561e-11
3.77087e-09
-3.90066e-09
1.55954e-10
3.59481e-09
-2.77652e-11
-3.60685e-09
-1.6534e-10
1.82499e-10
4.80088e-09
-4.30207e-09
7.40832e-10
-1.87763e-09
5.43887e-09
-1.13011e-08
1.52888e-09
-3.27868e-10
1.01001e-08
-1.02867e-09
-5.07678e-09
5.78649e-09
4.20785e-09
-2.8708e-09
-7.12354e-09
4.74319e-09
-6.95299e-09
-1.53862e-10
1.17045e-09
-5.49253e-09
-1.49242e-08
8.98022e-10
9.95678e-10
-1.30121e-09
4.63704e-09
-1.6378e-09
-8.72528e-10
2.18011e-09
3.30214e-10
-6.05197e-10
5.1008e-09
-5.52427e-09
1.70385e-09
-1.48808e-09
-3.58766e-10
-7.71995e-09
-4.75718e-09
-2.21929e-11
4.69144e-09
-2.28672e-09
6.19948e-09
9.71118e-10
-4.88388e-09
4.36021e-09
-1.46229e-09
3.05599e-09
-5.95391e-09
-5.70162e-09
-1.13155e-08
8.96228e-09
1.4972e-09
5.11419e-09
-7.38109e-09
2.81044e-09
-3.83387e-10
-1.84343e-09
-4.9426e-09
-3.0855e-09
-1.15593e-08
6.59054e-09
1.94355e-10
4.03542e-09
-8.35233e-11
7.93885e-11
-1.72154e-11
-3.12682e-09
2.95037e-09
-1.01865e-10
2.78313e-10
1.16471e-08
3.47409e-10
-9.60059e-09
-2.39396e-09
3.61186e-09
-4.74304e-09
-3.2894e-10
-9.52489e-10
-7.09108e-09
6.62473e-10
-6.997e-09
-2.78482e-10
-4.88863e-10
-3.23389e-10
7.06074e-10
8.03652e-11
3.3502e-09
-4.23766e-09
3.74607e-09
-3.85061e-09
3.35523e-09
-3.46363e-09
1.3362e-09
-1.19643e-08
-6.72974e-10
-5.75532e-09
3.12225e-10
4.12415e-09
3.51233e-09
-4.13894e-09
5.07401e-09
5.09302e-09
3.94994e-09
-3.42125e-10
-5.28317e-09
5.36586e-09
-4.8514e-09
6.89954e-09
5.62649e-09
-5.81457e-09
5.91821e-09
4.82129e-09
-5.11034e-09
1.78625e-09
-5.90756e-10
3.81732e-09
3.86268e-10
-1.23922e-09
4.54253e-09
-5.88148e-09
4.60103e-09
9.77063e-11
2.38795e-09
-2.46429e-09
7.63448e-11
-5.27258e-09
5.25283e-09
1.1714e-10
-9.73896e-11
4.5417e-09
-4.7024e-09
4.24736e-10
-4.41003e-09
-1.01301e-08
-2.64113e-09
6.96567e-10
4.86143e-09
-4.71494e-09
-2.52154e-09
2.37505e-09
1.0965e-10
-6.02242e-09
5.58506e-09
3.27703e-10
-1.08198e-10
-7.02823e-09
4.81911e-09
2.54428e-09
-5.39324e-09
7.8204e-10
-3.30988e-09
2.87339e-09
-6.99466e-09
-8.23786e-09
1.75009e-10
8.32119e-09
-2.58348e-10
-3.08082e-11
-4.35605e-09
1.15843e-10
1.33975e-08
4.35837e-09
-4.28389e-09
-2.32874e-10
-4.43957e-09
4.52051e-09
1.51934e-10
5.00812e-09
5.90111e-10
-5.88396e-09
-5.43195e-09
-3.59032e-10
-5.27256e-09
-8.26373e-10
6.8569e-09
-5.14616e-09
5.13696e-09
-1.34033e-10
1.43231e-10
-9.76471e-10
4.75292e-09
1.04484e-09
-2.38854e-09
-6.30568e-09
5.2989e-09
3.39533e-09
-5.5388e-09
2.82957e-09
4.61815e-09
-1.90893e-09
-5.04375e-09
4.91611e-09
-1.96332e-10
-3.37582e-09
-7.91843e-09
3.62856e-09
-1.77106e-09
7.33807e-09
1.55786e-09
-2.58056e-11
-1.31082e-11
5.25602e-09
-4.02719e-10
-5.4585e-09
-4.09887e-10
4.71763e-10
4.60784e-09
-4.66972e-09
7.21672e-09
-5.9698e-09
7.95479e-09
-4.85677e-10
-8.51334e-09
2.3534e-10
-3.87163e-10
-4.40141e-09
-3.76421e-10
4.61786e-09
-4.65132e-09
1.03259e-08
-7.8839e-09
-2.44197e-09
-8.82559e-10
4.81273e-09
-4.48132e-09
4.32601e-09
-6.82653e-11
4.82545e-09
-4.81406e-09
1.10886e-11
-2.24793e-11
-1.4868e-10
2.21714e-10
9.41303e-10
-4.06582e-09
-7.58999e-10
3.88351e-09
3.24122e-09
1.75171e-09
4.44658e-09
-3.58755e-09
9.65824e-09
-1.15963e-08
-3.08615e-09
5.02423e-09
-7.89844e-10
-9.07869e-09
4.36675e-09
-3.87688e-09
3.54066e-10
4.84417e-09
2.39865e-10
-2.05711e-09
8.01793e-09
-1.00011e-08
4.50288e-10
4.91214e-09
-3.193e-10
-7.88633e-09
-2.99457e-09
4.70423e-09
-8.19842e-11
-5.35439e-09
1.76828e-10
4.16644e-09
4.11873e-09
-2.3448e-09
-5.94037e-09
-2.76712e-10
3.86572e-10
-4.69516e-10
8.37851e-10
4.69518e-09
-5.06351e-09
-2.36894e-09
-6.33763e-09
-4.67429e-09
4.22832e-10
-2.28809e-10
4.48027e-09
4.47974e-09
-1.743e-09
-3.00779e-09
2.71049e-10
-4.89735e-09
-3.79222e-09
4.92422e-09
-4.58587e-09
3.85711e-10
4.66498e-09
-4.64821e-10
3.28933e-09
7.80474e-10
-4.3882e-09
3.184e-10
4.81543e-09
-3.29923e-09
3.41947e-09
-4.93567e-09
-1.77e-08
1.9083e-08
-1.38302e-09
3.33635e-09
-3.89852e-09
3.37316e-09
-2.811e-09
9.08159e-11
-3.13248e-11
-4.49778e-09
-5.52424e-10
4.64332e-10
3.28504e-09
2.61384e-09
-3.03086e-09
-2.94462e-10
-4.84336e-09
4.35423e-10
5.27457e-09
-6.75593e-09
2.29455e-09
-8.13186e-10
-8.00708e-09
-3.08116e-09
5.8863e-09
5.20194e-09
-8.46383e-09
-5.8352e-09
6.29194e-09
-8.1927e-09
-7.0791e-09
6.80798e-09
2.44066e-09
-5.12089e-09
-1.71973e-09
3.86719e-10
-8.74505e-10
-8.4231e-09
7.25295e-09
5.1957e-09
9.01661e-11
1.52288e-09
3.86133e-09
-5.44363e-09
3.40014e-09
9.05181e-10
1.13832e-09
-1.21248e-09
-4.10757e-09
2.0695e-09
3.25054e-09
-3.41898e-09
4.91233e-09
1.53667e-10
4.23225e-09
-5.99034e-11
-2.10792e-10
4.69412e-09
4.49682e-09
-4.57705e-09
4.50176e-09
-9.00564e-11
-2.4045e-10
7.60431e-11
6.96613e-09
-3.56365e-11
2.12274e-10
9.41867e-10
4.86366e-09
-5.07092e-11
8.66092e-09
-9.302e-09
-1.00368e-08
-1.28221e-09
-4.17844e-09
2.35509e-09
-4.66548e-09
-3.8423e-10
4.25739e-09
-9.25274e-10
-4.24801e-09
6.75504e-10
2.44206e-09
-2.81525e-09
2.71499e-10
-1.99932e-10
-4.69705e-09
3.2572e-10
4.74464e-09
-3.73301e-10
-2.05335e-09
1.7482e-09
3.78756e-09
6.50435e-10
-1.19357e-08
-3.11052e-10
8.04308e-09
3.58409e-09
-3.98224e-09
5.25958e-09
1.23568e-09
3.71027e-09
-2.41721e-10
-2.28871e-09
2.33082e-09
-4.21113e-11
-1.91612e-09
2.03196e-09
1.44846e-10
-1.09119e-09
1.16324e-09
-2.16895e-10
-3.71353e-10
-4.67764e-09
3.51942e-10
1.83802e-08
2.96338e-09
-2.63024e-09
-4.75923e-09
2.57814e-10
4.82714e-09
4.6079e-09
5.52933e-10
4.07601e-09
-1.17633e-11
-1.48734e-09
-4.66418e-09
8.22778e-10
5.32874e-09
3.87645e-10
4.74293e-10
-3.02754e-09
2.1656e-09
5.59132e-09
3.67264e-09
-4.44485e-09
6.75433e-09
-5.18376e-09
1.67915e-10
3.84845e-09
-3.72523e-09
-3.40023e-09
-8.06129e-09
7.94439e-09
4.54893e-09
1.25224e-11
-4.41375e-09
-2.37615e-09
1.47485e-08
2.97154e-09
6.45161e-10
4.53209e-09
-4.70548e-09
5.15908e-09
3.20899e-10
-5.31624e-09
-4.73401e-09
5.96938e-11
-2.10397e-09
-1.23948e-08
2.18808e-09
1.23107e-08
-1.98098e-09
5.886e-09
-4.46632e-09
5.61299e-10
6.07592e-09
-5.76136e-09
-3.14563e-10
-6.41848e-09
5.72187e-09
-5.84203e-10
1.28081e-09
6.98025e-09
-4.14484e-09
-6.2544e-09
-1.00656e-08
4.77457e-09
-3.71196e-09
-7.82893e-09
1.98779e-10
-4.86304e-09
-1.05936e-10
4.77019e-09
-1.11029e-09
-3.57395e-09
7.70344e-09
1.78436e-10
-5.56846e-09
6.25932e-10
-3.23569e-09
4.24429e-09
2.16288e-10
-4.24437e-09
-2.162e-10
6.26975e-09
-1.55723e-09
-4.03419e-09
-6.78333e-10
5.42924e-09
-5.88482e-09
-1.93296e-09
-4.47254e-09
-9.34007e-11
5.42836e-11
4.1047e-09
-1.55811e-09
-4.34762e-09
1.80103e-09
1.14861e-09
-7.023e-09
-6.55899e-09
8.06677e-09
1.77905e-09
-4.59079e-09
4.84158e-09
-6.17221e-10
3.66431e-10
4.21037e-09
-4.19925e-09
2.41423e-10
-2.52535e-10
2.31939e-09
4.05182e-09
-1.01458e-10
2.40944e-10
4.38184e-09
4.24366e-11
-4.52719e-09
4.25832e-09
8.87744e-09
-2.3292e-09
1.1832e-08
-4.65505e-09
-2.66585e-09
-8.16155e-10
2.98417e-09
4.97837e-10
-6.86872e-09
4.30017e-09
1.65834e-09
2.39173e-10
2.39232e-09
-5.20975e-10
-2.11052e-09
3.41921e-09
-7.14866e-09
-5.41736e-09
5.642e-09
-3.90171e-10
3.6861e-10
-5.62044e-09
-4.15521e-10
5.26166e-09
-5.24885e-09
-3.46023e-09
-1.1864e-09
-1.46238e-11
1.30818e-11
6.64763e-09
-5.71711e-10
5.79999e-09
-4.15575e-09
-9.03413e-10
1.80159e-10
4.40453e-09
2.73506e-09
-4.06175e-09
4.92215e-09
-5.63652e-09
4.27347e-09
-4.28986e-09
5.36063e-09
2.12133e-10
-4.15291e-09
9.532e-11
-1.9292e-10
4.4366e-09
-4.2839e-09
3.26938e-10
-4.79636e-10
-8.75671e-09
1.96711e-10
4.28506e-09
-4.29251e-09
-1.89256e-10
-4.47621e-09
4.06828e-09
5.1975e-10
-1.11819e-10
-4.75063e-09
4.32356e-09
4.51292e-09
2.75143e-10
1.4027e-12
-2.84056e-11
4.33806e-09
4.66184e-09
-4.58753e-09
3.114e-10
-2.60874e-09
-1.83072e-09
3.88452e-11
-1.55923e-08
-1.00199e-08
4.61872e-09
1.43471e-09
-1.26604e-09
-4.78739e-09
-4.92295e-09
5.25391e-09
-8.27474e-09
5.11258e-09
-5.21964e-09
-3.92593e-10
4.9965e-10
-2.5913e-10
-5.31787e-09
5.33959e-09
-4.89842e-10
-1.00852e-08
-5.26144e-09
1.51087e-09
4.98911e-09
-1.23854e-09
6.72019e-10
-3.42428e-09
-2.59965e-10
-4.26574e-09
4.28555e-09
2.40151e-10
-3.84411e-09
-2.85181e-09
-5.50831e-09
5.12714e-10
-4.26263e-09
1.70406e-09
-3.97418e-10
2.95599e-09
-2.5773e-10
5.16063e-11
-5.59353e-09
-3.65324e-09
-8.83024e-10
4.57647e-09
-6.63652e-09
-4.37965e-09
4.9449e-10
2.94552e-09
9.39641e-10
-1.35143e-08
2.10948e-09
7.00205e-09
4.40278e-09
1.6711e-08
-9.49762e-10
1.02773e-09
6.68807e-11
5.43274e-11
4.58164e-10
-1.78557e-10
-2.79606e-10
4.92337e-09
-1.92381e-11
2.08456e-10
-3.01011e-09
-1.20755e-10
-4.67973e-09
-3.81468e-11
-4.6169e-09
8.22279e-11
-5.24996e-09
1.07348e-10
-5.56928e-11
6.63923e-09
-1.32751e-09
4.89143e-11
-1.50574e-09
-4.51628e-09
3.97064e-10
5.62495e-09
5.11509e-09
2.85328e-09
4.51641e-10
-4.74471e-09
1.55895e-10
-2.02766e-10
8.41178e-10
-7.94307e-10
2.80557e-10
-4.43622e-09
4.32224e-09
-1.66575e-10
7.78262e-10
3.77032e-10
-1.15529e-09
-7.01956e-10
1.76023e-09
-4.58984e-09
4.51011e-09
-1.68049e-09
1.71814e-10
4.45873e-09
-1.17624e-10
3.02573e-09
6.9717e-09
5.01999e-09
-5.34673e-09
6.47641e-10
3.12937e-10
-3.52556e-10
3.50094e-10
-2.77931e-10
4.82505e-09
-4.89722e-09
4.01314e-09
-3.26001e-09
-1.17104e-09
1.9513e-09
1.69024e-09
4.40204e-09
-5.68846e-09
-4.03812e-10
5.69638e-09
-3.78057e-10