/*--------------------------------*- C++ -*----------------------------------*\
  =========                 |
  \\      /  F ield         | OpenFOAM: The Open Source CFD Toolbox
   \\    /   O peration     | Website:  https://openfoam.org
    \\  /    A nd           | Version:  8
     \\/     M anipulation  |
\*---------------------------------------------------------------------------*/
FoamFile
{
    version     2.0;
    format      ascii;
    class       surfaceScalarField;
    location    "9";
    object      phi;
}
// * * * * * * * * * * * * * * * * * * * * * * * * * * * * * * * * * * * * * //

dimensions      [0 3 -1 0 0 0 0];

internalField   nonuniform List<scalar> 
3021
(
1.88748e-10
-1.88748e-10
-2.14429e-08
-2.2381e-08
3.25609e-08
1.1263e-08
-1.65619e-08
-1.18246e-08
2.30892e-08
5.29727e-09
-2.87854e-08
-3.04758e-09
1.52711e-08
9.88968e-10
-1.28261e-08
1.18371e-08
9.0304e-09
-6.87878e-09
7.32259e-09
-9.47421e-09
-9.47944e-11
-1.634e-08
1.55783e-08
8.5644e-10
-6.76016e-10
3.31379e-10
-1.91464e-08
1.9491e-08
1.09525e-08
-9.91452e-09
-7.01733e-09
5.97931e-09
-1.45321e-08
-3.29159e-09
1.07918e-08
7.03189e-09
-1.44957e-08
-1.74537e-08
1.05066e-08
6.36447e-09
-6.72221e-09
1.21259e-08
-1.17681e-08
1.76196e-08
2.07932e-09
-1.09589e-08
-8.74004e-09
-5.63286e-09
-1.71908e-08
8.29153e-09
6.8061e-09
-7.59002e-09
-6.57671e-09
7.36064e-09
-7.73983e-09
6.81358e-09
8.1519e-09
-7.22565e-09
-4.06684e-09
-2.30891e-09
6.37575e-09
-3.15032e-09
-9.1652e-10
2.6801e-10
3.39984e-10
-2.2807e-10
-3.79924e-10
4.42598e-11
-3.42567e-10
-6.03027e-11
3.5861e-10
-1.05184e-08
-2.71149e-09
1.64674e-08
-3.2375e-09
-2.36192e-08
1.73104e-08
1.85385e-08
2.05339e-09
-1.87885e-09
-2.06366e-08
6.34179e-09
1.42948e-08
-6.73146e-09
1.58786e-09
8.63756e-09
-3.49396e-09
6.22999e-10
-9.32053e-09
7.03879e-09
1.65875e-09
3.11175e-09
-1.28144e-08
-7.06371e-10
1.0409e-08
1.1765e-08
-2.88516e-09
-3.1878e-09
-5.69199e-09
3.23074e-08
-2.55286e-08
-2.42418e-08
1.7463e-08
3.26325e-08
-2.56448e-08
-2.42377e-08
1.725e-08
3.36957e-08
-2.64655e-08
-2.50235e-08
1.77932e-08
-4.86378e-09
5.79382e-09
-1.69091e-08
1.59791e-08
-2.25639e-08
-1.51745e-08
5.54005e-09
3.21983e-08
6.47778e-10
-7.51382e-10
7.51745e-10
-6.48141e-10
-5.72836e-09
2.66766e-09
-3.67077e-09
7.49362e-09
3.88364e-09
-4.57116e-09
4.03775e-09
8.59576e-09
4.9861e-09
1.40509e-08
1.21624e-09
-1.46525e-08
-6.14664e-10
9.3763e-09
-5.75597e-09
2.88848e-09
-6.50881e-09
-1.48117e-08
1.19317e-08
7.80316e-09
-4.92313e-09
-7.21832e-09
2.31246e-09
1.82736e-10
8.33982e-10
-3.99441e-10
-6.17277e-10
-5.0445e-11
5.47189e-10
9.33283e-11
-5.90072e-10
-4.35452e-08
1.74827e-08
1.42378e-08
-6.13541e-09
-1.6675e-09
7.80291e-09
1.45548e-08
1.53672e-09
-1.29798e-08
9.77185e-10
1.34706e-08
-3.96851e-10
-2.26743e-09
6.88693e-09
4.91207e-09
-9.53156e-09
2.55218e-09
-5.35555e-09
-2.92498e-09
1.06149e-09
4.17193e-09
5.71911e-09
-6.14175e-10
3.26376e-10
-1.24462e-09
1.53242e-09
-5.50403e-09
-1.00102e-08
5.5997e-09
3.94591e-10
-2.05843e-10
-1.55865e-08
-2.68841e-08
2.00897e-08
1.64328e-08
2.03013e-08
-2.86432e-08
-8.09087e-09
7.69826e-09
6.37209e-09
-7.04829e-09
-7.02205e-09
1.87751e-08
-3.53126e-09
-4.68729e-11
-4.21151e-10
3.99928e-09
-1.10055e-08
3.45291e-09
2.10172e-08
-1.34646e-08
-4.33186e-09
4.87834e-09
-5.80843e-09
5.26196e-09
-5.53765e-09
6.19855e-09
1.89128e-09
1.38251e-08
1.79965e-09
-1.44085e-08
-1.36249e-09
-2.08606e-09
1.42714e-09
2.02141e-09
-1.74797e-08
-1.95566e-08
2.60307e-08
-5.87399e-09
5.59276e-09
-2.05191e-09
2.33314e-09
8.78875e-10
-9.23205e-10
2.36769e-10
-1.92439e-10
-2.81455e-09
1.22638e-09
-9.96285e-10
2.58446e-09
4.11301e-10
9.2836e-10
-4.60786e-10
8.68581e-09
1.88356e-09
-5.50766e-09
-5.06171e-09
-8.82029e-10
-2.61483e-10
1.14351e-09
1.79749e-09
-4.01025e-09
-3.32489e-09
7.09195e-10
-9.64047e-10
-5.81079e-09
6.06564e-09
2.74809e-09
3.99771e-09
-4.94831e-09
1.99524e-09
-1.05856e-09
-1.55892e-08
-1.00457e-08
-4.78523e-09
6.40891e-09
8.42205e-09
-1.03555e-08
-1.41124e-08
1.8587e-08
5.88091e-09
-5.19148e-09
5.80462e-09
3.30826e-08
-5.05301e-09
5.59867e-09
3.20869e-08
-5.23945e-09
5.54769e-09
3.19991e-08
6.78231e-09
-3.96925e-09
-6.6305e-09
3.81744e-09
-9.19172e-10
4.16173e-12
-8.19475e-12
2.9694e-10
6.47975e-10
-8.35848e-10
-1.09067e-10
-1.44849e-08
1.85226e-08
1.07063e-08
-1.15289e-08
8.83163e-09
-8.00912e-09
-3.82159e-09
7.73058e-10
-7.31986e-09
-5.25809e-09
1.18049e-08
-5.06917e-09
3.70926e-09
1.29825e-09
-1.78831e-09
4.90068e-10
9.66818e-09
-6.07138e-09
-8.66597e-09
-4.89548e-10
5.13246e-10
6.2408e-10
-1.77281e-08
9.83858e-09
-7.5496e-09
1.54391e-08
7.80629e-09
-5.85322e-09
-1.24388e-09
5.55615e-09
-8.20981e-09
8.65641e-09
-6.00275e-09
9.68116e-09
-8.13294e-09
3.35342e-10
-1.10681e-08
-7.4652e-10
-1.28573e-09
1.31004e-08
-6.24024e-10
2.58462e-09
1.32681e-09
-3.28741e-09
6.5378e-09
-5.27752e-09
9.94307e-09
-1.12034e-08
-9.93549e-09
-1.31008e-09
1.77466e-10
-2.39043e-09
8.72146e-09
3.04526e-09
8.88224e-10
1.25022e-08
-7.21223e-09
-2.06724e-09
1.00525e-08
-1.05055e-08
2.44157e-09
-5.02952e-09
1.30934e-08
3.05841e-09
-4.30662e-09
1.24821e-09
-2.41021e-08
2.40949e-08
8.28597e-11
-7.56713e-11
2.33234e-08
-5.43299e-11
6.54748e-11
-2.33346e-08
-2.31946e-08
2.31958e-08
5.17678e-11
-5.29973e-11
-2.06915e-08
-8.05028e-11
2.07434e-08
2.85639e-11
2.06711e-08
-3.87048e-11
-2.06566e-08
2.41733e-11
-1.15874e-11
3.36249e-11
2.13339e-08
-2.1356e-08
-2.06858e-08
-1.14551e-11
2.11044e-11
2.06762e-08
-1.00188e-10
-2.05383e-08
2.06173e-08
2.11449e-11
-2.53997e-12
1.91086e-11
2.05669e-08
-2.05835e-08
2.14397e-08
-2.15521e-11
-2.14392e-08
2.11218e-11
1.05795e-12
-1.54471e-12
2.13497e-08
-2.13493e-08
1.64899e-12
7.1791e-12
2.06787e-08
-2.06875e-08
-2.06668e-08
2.06305e-08
2.83953e-11
7.90023e-12
-2.13427e-08
2.13136e-08
2.61093e-11
2.96838e-12
8.39823e-11
-1.39719e-10
-2.06741e-08
2.07299e-08
1.76848e-08
-1.7638e-09
9.52943e-10
-1.68739e-08
1.89009e-08
-4.11961e-10
-1.86944e-08
2.05447e-10
-2.05766e-08
2.05806e-08
-2.8917e-11
2.48221e-11
1.60002e-08
-1.60676e-10
5.80149e-11
-1.58975e-08
1.76191e-08
-7.2414e-10
-1.73844e-08
4.89415e-10
-3.55035e-09
-1.09817e-08
-1.15819e-08
6.19265e-09
1.31187e-10
2.10983e-09
4.91498e-09
-1.62089e-09
-5.40393e-09
-1.31612e-08
9.73519e-09
-7.09234e-09
4.30922e-10
8.67324e-10
2.43777e-09
-1.18223e-08
1.07675e-08
-1.38296e-09
2.50597e-09
-1.00037e-08
-1.44664e-11
5.53622e-09
-6.75609e-09
1.23434e-09
-3.04235e-09
1.86954e-09
3.28264e-09
-8.41993e-10
-2.61586e-10
6.14032e-10
-1.24055e-08
-2.46817e-10
-8.55246e-10
1.82891e-10
-1.16245e-09
-5.70214e-09
-9.72876e-09
3.60862e-09
8.17714e-10
4.525e-09
-5.35718e-09
8.17874e-09
-1.30956e-09
2.16122e-09
-5.21736e-09
-7.18818e-09
7.86001e-09
3.54291e-10
-8.2143e-09
9.72578e-10
-1.04316e-09
4.81883e-10
2.36675e-09
-1.15748e-09
-1.98484e-09
7.7557e-10
1.86525e-09
-3.39282e-10
5.397e-09
-1.03531e-08
6.01756e-09
3.06426e-09
-3.05403e-09
-2.31914e-09
-9.01837e-09
2.05134e-08
4.61538e-10
-7.27529e-10
-1.82321e-09
2.0892e-09
4.42658e-09
9.00522e-09
-9.3462e-09
5.4006e-09
3.46561e-09
1.24718e-09
1.35552e-08
-3.20357e-10
1.07193e-09
-9.98392e-10
2.05068e-09
4.93778e-09
-1.63355e-08
-1.14423e-09
-8.03408e-09
5.71475e-10
-3.03465e-10
6.05738e-10
5.41171e-09
1.85581e-09
1.62215e-10
3.4872e-10
1.11149e-09
1.07829e-09
-8.68121e-10
-1.32165e-09
-9.12058e-10
7.40969e-10
2.15483e-09
-1.98374e-09
1.15191e-08
1.16206e-08
2.18097e-10
3.8764e-10
-1.38104e-08
1.36663e-08
1.39123e-09
1.7439e-08
-6.75969e-09
3.30351e-10
-4.35644e-10
-7.49954e-10
1.64519e-09
2.43439e-09
-1.22403e-10
5.53411e-09
-2.61277e-09
-5.37548e-10
-6.99293e-10
-2.15124e-09
8.93549e-10
-1.02697e-08
1.60438e-10
9.21566e-09
6.46075e-10
-4.06449e-09
-1.35221e-08
1.23091e-08
1.98035e-09
-5.47064e-09
6.61912e-09
2.32554e-09
-7.65924e-10
-6.88872e-09
8.0047e-09
-5.06363e-09
3.94765e-09
-1.67082e-08
7.66822e-09
-5.27906e-09
1.4319e-08
4.99479e-10
7.25821e-10
-9.93595e-09
1.23443e-08
8.31529e-09
-1.07237e-08
-1.27818e-10
-1.76827e-09
-3.8297e-10
1.10976e-08
-1.64017e-09
2.53949e-09
9.10713e-09
-1.10843e-08
-5.62302e-10
7.82987e-10
-7.17877e-10
1.17781e-10
2.82322e-09
-3.75946e-09
-2.10611e-09
1.25042e-08
-1.25099e-08
7.45599e-09
-7.45027e-09
-6.14698e-09
4.69326e-09
-5.6379e-09
6.70239e-10
8.01818e-10
-1.20705e-09
7.45418e-09
3.02639e-09
-2.94125e-09
1.78439e-09
-1.1357e-08
3.70215e-09
8.54836e-09
-7.51656e-09
1.14174e-08
-7.45117e-09
7.88678e-10
-1.52919e-12
-4.78726e-09
-9.45407e-09
7.56184e-09
6.67949e-09
-5.10561e-09
1.07997e-08
9.25083e-10
-1.07315e-09
2.66755e-10
-1.30543e-09
9.40842e-12
1.31551e-09
-1.94963e-11
-5.62252e-09
-1.07805e-08
8.80328e-09
7.3742e-09
1.14337e-08
8.94335e-10
-1.38803e-08
1.55228e-09
-6.96496e-10
3.96622e-10
-1.60912e-10
7.80481e-09
-2.22786e-11
2.14995e-08
-2.15383e-08
6.11487e-11
-2.07395e-08
2.07487e-08
-1.60156e-12
-7.67873e-12
-2.0854e-08
-6.05498e-12
2.08578e-08
2.18823e-12
-2.15364e-08
6.06335e-12
2.15547e-08
-2.43578e-11
1.76131e-11
2.15353e-08
-2.15035e-08
-4.94021e-11
-1.12633e-08
1.1241e-08
1.26002e-11
-1.12759e-08
-2.07542e-08
1.0932e-11
3.80947e-12
-2.15017e-08
-1.98317e-11
2.15009e-08
2.06335e-11
-3.11833e-11
-2.07972e-08
2.07596e-08
6.88454e-11
7.53895e-13
-2.15254e-08
2.29047e-11
-2.08738e-08
1.32254e-11
6.62516e-12
1.11523e-08
-1.1193e-08
4.07321e-11
1.952e-11
-2.15333e-08
2.15493e-08
-3.55337e-11
1.11564e-08
-1.11384e-08
-1.79188e-11
2.01517e-11
2.15075e-08
-2.1485e-08
-4.26275e-11
1.45359e-11
2.08053e-08
-2.08277e-08
7.95343e-12
1.19089e-11
2.15569e-08
-2.15588e-08
-1.00757e-11
2.07599e-08
-2.07453e-08
5.84804e-12
-2.04779e-11
-1.28901e-11
1.08745e-08
-1.08617e-08
-2.36874e-08
2.30704e-08
-1.1674e-09
1.78444e-09
1.10971e-08
-4.18217e-11
-1.10553e-08
1.08398e-08
-1.08378e-08
-1.91933e-12
-1.12261e-08
1.12268e-08
-1.09019e-08
1.08708e-08
1.12696e-08
-1.12501e-08
-1.11147e-08
-1.76876e-11
1.11324e-08
-1.1276e-08
1.12879e-08
1.11199e-08
3.23475e-11
-1.08381e-08
1.08169e-08
2.12657e-11
1.12357e-08
-1.12156e-08
8.77461e-11
-2.1488e-08
2.15037e-08
-1.03423e-10
2.07021e-12
-2.0849e-08
2.08657e-08
-1.88039e-11
-1.28853e-09
-2.41873e-08
1.78836e-09
-2.27519e-11
2.08266e-08
-2.08646e-08
6.07763e-11
4.71857e-11
2.15323e-08
-2.1525e-08
-5.45286e-11
-7.45508e-10
-2.46144e-08
2.45292e-08
8.30697e-10
7.75889e-12
-2.15753e-08
2.1604e-08
-3.65039e-11
1.34256e-11
2.08796e-08
-2.08753e-08
-1.77375e-11
1.12146e-08
-1.11674e-08
-1.51384e-08
1.38499e-08
2.10147e-08
-2.15298e-10
-2.11974e-08
3.97933e-10
1.083e-11
2.15354e-08
-2.15332e-08
-1.30175e-11
-1.11152e-08
1.1126e-08
-2.14581e-08
1.08324e-11
2.14603e-08
-1.30296e-11
-2.16451e-08
-4.4757e-10
2.1415e-08
6.77648e-10
-9.86782e-10
2.29139e-08
-2.35668e-08
1.63969e-09
2.15413e-08
-2.15742e-08
3.70326e-12
2.9199e-11
-2.08703e-08
2.08701e-08
-1.46939e-11
1.49232e-11
4.40902e-12
-2.0814e-08
2.08146e-08
-5.03358e-12
2.34224e-08
-4.75359e-10
-2.8459e-08
5.51196e-09
2.07014e-08
-1.58949e-11
-2.07067e-08
2.11738e-11
-2.09008e-08
4.07003e-12
2.64644e-11
2.07445e-08
1.22396e-11
-2.07611e-08
4.38863e-12
-2.14382e-08
2.12618e-08
3.98301e-11
1.36519e-10
-2.2e-08
-8.70512e-11
6.48854e-10
-1.08328e-08
1.08462e-08
1.25553e-08
-1.35421e-08
2.12167e-08
7.22618e-11
-2.71021e-11
1.84214e-11
2.07822e-08
-4.07254e-11
-4.56958e-12
-2.08913e-08
2.09104e-08
-1.45247e-11
-1.69885e-08
1.6243e-08
-2.11622e-08
-6.5366e-11
2.11028e-08
1.2473e-10
-1.10122e-08
1.11e-08
2.15399e-08
-1.55181e-11
1.68852e-11
1.09454e-08
-1.0941e-08
-2.07724e-08
6.62738e-12
2.07716e-08
-5.81228e-12
-2.24407e-08
2.19558e-08
-5.46266e-10
1.03123e-09
-3.06884e-10
2.20758e-08
-2.20645e-08
2.95597e-10
2.30687e-11
1.11794e-08
-1.12025e-08
-4.0668e-11
2.09224e-08
-2.09561e-08
7.43524e-11
-9.17749e-12
-2.14576e-08
8.67113e-12
-1.10108e-08
1.09701e-08
1.11786e-08
-2.22145e-11
-1.0885e-08
2.8628e-11
1.08563e-08
-1.12033e-08
1.11941e-08
-1.64926e-08
3.06279e-10
1.61863e-08
-1.62116e-11
-2.1563e-08
2.15398e-08
3.93978e-11
8.94864e-12
2.09171e-08
-2.09382e-08
1.2085e-11
1.09454e-08
-1.09682e-08
-7.37325e-11
-2.08788e-08
2.08055e-08
1.47064e-10
-1.0889e-08
1.08979e-08
-1.75157e-11
-1.09378e-08
1.09553e-08
8.66157e-12
2.15946e-08
-2.16164e-08
1.30818e-11
-3.15034e-12
2.08298e-08
-2.08014e-08
-2.52323e-11
-2.07368e-08
-2.85373e-11
2.07318e-08
3.35262e-11
-1.05902e-12
2.16179e-08
-2.16087e-08
-8.15267e-12
-1.11774e-08
3.03998e-11
1.1147e-08
3.14323e-12
1.09908e-08
-1.0994e-08
1.10929e-08
-1.11091e-08
1.36392e-08
-1.39461e-08
5.8645e-11
1.41082e-08
-1.41668e-08
-2.09044e-08
2.08971e-08
2.47224e-12
4.80976e-12
-9.76287e-12
2.07935e-08
-2.08015e-08
1.77973e-11
-1.11241e-08
8.88294e-12
-1.15606e-12
2.08561e-08
1.51603e-11
-1.09338e-08
-5.78053e-12
1.09395e-08
-1.08354e-08
2.60376e-12
-1.72677e-11
4.35705e-11
2.06751e-08
-1.08341e-08
-8.86251e-10
1.17203e-08
-1.09193e-08
1.09162e-08
9.60882e-12
-1.11337e-08
2.15249e-08
-1.49591e-12
1.65577e-11
-1.08446e-08
9.15021e-12
1.08481e-08
-8.32565e-12
1.1008e-08
2.4026e-10
-1.12483e-08
-1.73961e-08
4.07607e-10
1.10622e-08
-1.1114e-08
5.18348e-11
-1.11826e-08
1.11912e-08
2.31889e-12
-1.09361e-08
1.09202e-08
-1.09299e-08
-9.41186e-12
2.14705e-08
-5.45256e-11
-2.15146e-08
9.8653e-11
-9.11299e-10
1.63474e-08
-1.54361e-08
3.24181e-11
-1.07116e-08
1.06792e-08
-1.07449e-08
1.07634e-08
-1.84762e-11
-2.42605e-08
-6.49923e-10
2.4264e-08
6.46472e-10
2.354e-08
-1.38633e-09
-2.3065e-08
4.3485e-11
-2.29239e-10
2.28353e-08
3.07847e-10
-1.11174e-08
-9.17229e-10
1.20346e-08
2.06849e-08
-1.327e-11
-2.06867e-08
1.50684e-11
-1.14869e-11
-1.09747e-08
-2.62446e-11
1.10009e-08
-5.57913e-12
2.07607e-08
-2.07851e-08
2.99929e-11
-2.09057e-08
-7.20937e-12
2.08995e-08
1.34129e-11
2.15573e-08
-1.20258e-11
1.17085e-11
2.15816e-08
-6.51171e-12
1.95179e-11
1.17937e-11
1.09084e-08
-1.08816e-08
1.08761e-08
-1.08555e-08
3.17874e-12
1.08523e-08
-1.08988e-08
-2.05135e-11
2.0811e-08
1.9893e-11
-1.09713e-12
2.08527e-08
2.63788e-11
-3.87747e-11
-2.08403e-08
-5.35848e-10
-2.18509e-08
7.41611e-10
-1.07273e-08
1.07654e-08
-3.80924e-11
-7.33066e-12
2.1574e-08
1.50096e-11
1.2108e-08
-1.26439e-08
-1.45197e-10
-1.73158e-08
-8.02235e-11
-1.11863e-08
1.12045e-08
-1.81945e-11
-1.11847e-08
5.14307e-11
-1.09259e-08
1.09335e-08
-7.59823e-12
2.07874e-08
1.78777e-11
2.20022e-08
-5.83449e-11
-2.18852e-08
-5.76121e-12
1.72316e-11
-3.86409e-11
2.14141e-08
9.50322e-11
-1.08922e-08
2.07442e-08
-2.08046e-08
9.28351e-11
-1.65719e-08
-7.43913e-10
2.09048e-08
2.53126e-11
-2.08896e-08
-4.05034e-11
-1.39731e-11
-1.08415e-08
-8.09806e-12
1.08373e-08
-1.08292e-08
-1.87884e-11
2.08635e-08
9.79572e-12
-2.06631e-11
2.08612e-08
-5.77768e-12
1.08655e-08
-1.08502e-08
-1.53651e-11
2.07419e-08
1.97237e-11
-2.0715e-08
-4.66842e-11
-1.12094e-08
6.07695e-12
2.07475e-08
-1.9552e-11
1.34279e-09
2.37578e-08
-2.32539e-09
-2.27752e-08
-1.08756e-08
-9.10935e-10
1.17865e-08
-5.36492e-12
-1.09324e-08
1.09377e-08
-3.68066e-13
1.84016e-11
-2.09235e-08
7.42557e-12
2.09366e-08
-2.05058e-11
6.6241e-12
1.08307e-08
2.45279e-08
-2.43043e-08
-3.03808e-10
2.06748e-08
4.73982e-12
1.09612e-08
4.68128e-11
-1.09662e-08
-8.44259e-12
-2.12165e-08
7.73763e-11
-1.09456e-08
1.0948e-08
-1.09619e-08
1.39597e-11
1.09385e-08
-1.0924e-08
-1.08194e-08
9.27761e-12
-2.79967e-11
-2.16147e-08
-3.49099e-12
2.16161e-08
2.14191e-12
-4.80441e-11
8.35272e-11
2.1464e-08
-1.69139e-11
-1.06605e-11
3.15297e-11
-6.33056e-11
-2.1482e-08
-1.1207e-08
-2.40022e-12
1.16604e-08
-1.08218e-08
-1.66056e-11
2.09048e-08
-8.63051e-12
1.23261e-08
-1.07785e-08
6.68605e-11
4.51868e-10
1.31873e-08
-2.09017e-08
2.08863e-08
1.84818e-11
-4.01942e-12
-2.16138e-08
3.12952e-12
-1.09996e-08
2.0714e-08
-2.06984e-08
-3.30611e-11
-2.07582e-08
-1.49103e-12
2.29197e-11
2.07662e-08
-2.90601e-11
2.35602e-11
1.10568e-08
3.60814e-11
1.27755e-11
1.09327e-08
2.13705e-11
-1.0847e-08
1.08256e-08
-6.44703e-12
-2.07576e-08
-4.10467e-11
-1.12104e-08
1.12069e-08
1.0974e-08
-1.09786e-08
-2.04938e-11
-1.09457e-08
-2.08304e-08
2.08217e-08
2.93102e-12
1.24583e-10
-1.11242e-08
2.60471e-10
1.21474e-08
1.78706e-10
1.13395e-08
3.20912e-10
7.28423e-11
1.08296e-08
-1.09627e-08
1.09468e-08
-1.08457e-08
2.07346e-08
5.29576e-11
2.54144e-12
-1.12377e-11
1.10023e-08
1.43148e-11
-4.01318e-11
2.08084e-08
1.89788e-11
6.36038e-12
-5.85509e-13
1.08804e-08
-2.07643e-08
-1.9302e-11
2.53232e-11
2.12267e-08
7.57803e-11
-8.58278e-11
2.3337e-11
-1.30956e-11
-1.08908e-08
1.09001e-08
-1.12144e-08
-2.35264e-12
-2.07106e-08
2.62124e-11
1.12153e-09
-1.46636e-08
-8.70786e-14
-8.87924e-10
1.51757e-09
-1.08633e-08
1.09722e-08
-1.09697e-08
1.10456e-09
3.01634e-11
5.93688e-10
-1.1672e-08
1.10783e-08
2.72523e-11
-1.58757e-11
2.20101e-08
5.17568e-10
-2.10234e-08
1.18703e-10
1.1205e-08
-5.10089e-11
2.05743e-08
-3.77009e-11
-2.06537e-08
1.17139e-10
1.09075e-08
2.01608e-09
-1.70689e-11
2.26666e-11
1.09636e-08
7.40845e-12
-1.22163e-13
-2.16577e-08
2.15196e-08
1.84932e-10
-2.4023e-08
1.57772e-09
-2.39934e-08
3.91694e-11
1.06367e-11
-3.53293e-11
2.07474e-08
-2.34289e-11
-1.99882e-11
-5.98605e-10
1.62065e-10
-1.10076e-08
-3.7169e-12
1.10113e-08
-5.43493e-10
7.02703e-10
2.6741e-11
-1.07822e-08
1.07195e-08
6.26722e-11
-2.14728e-08
2.12227e-11
2.73837e-12
1.53777e-10
-1.44609e-10
2.14049e-08
-1.08439e-08
-2.15656e-08
-3.18906e-11
-1.07689e-08
1.07697e-08
-7.98093e-13
2.08606e-08
4.63595e-12
-3.51601e-12
3.21131e-10
-1.08637e-08
1.0848e-08
1.56049e-11
-1.11791e-08
1.12035e-08
1.09913e-08
-1.10311e-08
1.11034e-08
-1.0793e-08
-1.25982e-08
-2.83793e-09
1.54871e-10
-1.48074e-10
2.07374e-08
-4.58775e-12
4.12449e-11
-1.08197e-08
-1.52291e-08
-1.07344e-08
-1.05062e-11
5.3833e-10
1.85485e-11
2.43176e-11
-1.0922e-08
1.0938e-08
-1.60225e-11
1.26825e-08
-1.08604e-08
-1.03935e-08
1.06772e-08
-2.83718e-10
-1.09113e-11
-3.21852e-11
-1.07896e-08
-5.98156e-12
1.10503e-08
-1.10397e-08
-1.05437e-11
-1.55364e-08
8.72812e-10
-2.08534e-08
-3.92239e-12
9.97391e-11
-1.08405e-08
1.08339e-08
6.58276e-12
3.57013e-12
2.15252e-08
9.28391e-12
-1.93788e-10
-1.06818e-08
-6.74174e-11
1.0992e-08
-1.09905e-08
-1.43163e-08
1.49456e-10
2.08687e-08
-9.91997e-12
4.60193e-11
-1.10966e-08
1.10763e-08
2.02482e-11
2.08443e-08
6.5663e-11
-1.17945e-08
-3.92745e-11
-1.07926e-08
1.07908e-08
1.86186e-12
3.68324e-11
-1.09745e-08
1.10144e-08
-3.99573e-11
-1.11352e-08
-9.69041e-09
9.18381e-09
5.06596e-10
-1.94063e-11
-1.11507e-08
2.05913e-08
-2.10784e-10
-3.97488e-11
-1.29043e-09
-4.59565e-11
-1.06813e-08
2.40098e-11
-1.0912e-08
-1.00724e-11
1.06573e-10
-1.10101e-08
1.10185e-08
-8.33638e-12
1.15238e-08
-1.18007e-08
2.76852e-10
-1.08072e-08
1.45441e-11
-8.87033e-11
-4.70472e-11
-2.07001e-08
2.89742e-11
1.10584e-08
-8.15052e-12
3.26241e-11
3.52379e-11
-3.64238e-11
5.3859e-10
-1.06182e-08
1.0609e-08
9.1779e-12
-1.08808e-08
1.71865e-11
-1.07566e-08
1.07651e-08
-8.55039e-12
1.11374e-09
-1.86243e-11
-6.88171e-12
-5.44493e-09
-4.08304e-11
9.67516e-12
-2.62263e-11
-2.28041e-11
-1.12411e-11
4.43743e-11
-1.09184e-08
6.45562e-12
1.09011e-08
-1.09296e-08
2.84982e-11
1.31259e-10
2.02354e-11
2.33173e-11
1.44647e-09
-1.08455e-08
1.08428e-08
2.68097e-12
8.24606e-13
-2.76387e-11
-1.09409e-08
-1.81407e-11
1.09591e-08
4.34484e-11
-1.0783e-08
1.07899e-08
-6.85089e-12
-1.20594e-11
-2.37151e-11
1.07865e-08
4.26334e-12
-1.10015e-08
-8.65608e-12
-2.88243e-11
1.06501e-08
-1.06547e-08
4.6122e-12
2.55461e-12
2.57509e-11
-7.79579e-09
6.66266e-09
1.13313e-09
6.13047e-11
-1.06376e-08
1.06219e-08
1.5744e-11
-1.00949e-08
1.08942e-08
-7.99368e-10
9.62162e-12
-1.07757e-08
1.72318e-12
1.0774e-08
1.07688e-08
-1.07661e-08
-2.73699e-12
1.11847e-08
-1.11057e-08
-7.89931e-11
1.69775e-11
1.24681e-11
-1.07694e-08
1.07822e-08
-1.27706e-11
-3.02373e-14
-1.10696e-08
1.10793e-08
-9.73134e-12
-9.05939e-09
-1.03547e-09
-1.10042e-08
2.68365e-12
1.07755e-08
-1.08211e-08
4.55252e-11
-7.96117e-09
-1.09822e-09
2.31679e-12
-1.0685e-08
1.06982e-08
-1.31604e-11
1.08937e-08
-1.08107e-08
-8.29667e-11
2.53888e-09
-1.03347e-08
-1.09294e-08
1.10244e-11
-1.07504e-08
-6.23413e-12
1.1133e-08
-1.12512e-08
1.18176e-10
-1.07348e-08
1.07411e-08
-6.22487e-12
-1.06804e-08
-4.56367e-12
1.08934e-08
-1.11868e-08
2.93344e-10
2.55025e-12
1.07642e-08
-1.07592e-08
-4.95422e-12
-1.06864e-08
1.0682e-08
4.31914e-12
-1.09999e-08
1.09986e-08
1.37006e-12
-1.07363e-08
1.07295e-08
6.80048e-12
-1.10001e-08
-4.06972e-12
-1.07512e-08
1.48665e-11
1.15204e-08
-1.13139e-08
-2.0654e-10
1.12199e-08
-1.10223e-08
-1.976e-10
1.09378e-08
-1.09639e-08
2.60568e-11
-1.07051e-08
1.06172e-08
8.78465e-11
1.20168e-08
-4.96375e-10
-3.09534e-12
-1.10308e-08
-8.91365e-12
3.72166e-12
1.07723e-08
-7.11668e-12
-5.33669e-12
-1.23361e-11
-9.28887e-12
1.88344e-10
1.06952e-08
-1.07075e-08
1.22435e-11
1.10291e-08
1.03917e-10
3.37082e-10
1.17611e-08
-1.19832e-08
2.22064e-10
1.10237e-08
-5.43957e-12
-1.10183e-08
-1.12592e-11
-1.07645e-08
-1.28876e-11
-1.06418e-08
-1.07662e-11
9.81255e-09
-1.38858e-09
-8.42397e-09
2.07007e-08
7.73991e-11
-1.10122e-08
1.2283e-11
-8.26738e-10
-7.13443e-09
-1.10243e-08
1.20557e-11
8.86e-12
6.0288e-10
-1.02933e-08
1.07773e-08
-1.07926e-08
1.5266e-11
-1.11877e-11
-1.54297e-12
-1.12656e-08
1.54378e-08
-4.1722e-09
1.10172e-08
6.5145e-12
1.61499e-12
-9.98445e-09
-4.09062e-10
1.17056e-08
-4.85665e-10
1.09951e-08
2.20691e-11
-1.09515e-08
2.20957e-11
1.09726e-08
2.25564e-11
9.503e-09
-3.81563e-10
-9.12144e-09
6.52303e-11
2.1064e-11
-4.81442e-10
1.0812e-08
-1.34814e-10
1.55777e-11
-1.45305e-09
1.07386e-08
3.69684e-11
-5.22429e-12
-1.19468e-08
1.4611e-10
9.52932e-12
-1.8571e-10
-1.29205e-10
-1.28653e-10
3.11139e-11
-1.08429e-08
2.18332e-11
1.07873e-08
-5.1424e-12
1.12547e-11
-1.07654e-08
6.19634e-12
1.07619e-08
7.70207e-12
-3.46598e-12
1.09629e-10
-3.08647e-11
3.89871e-10
4.83521e-10
-2.25417e-10
2.38059e-10
-6.25584e-10
-1.36366e-09
2.18996e-09
1.02951e-09
-9.75445e-10
3.08978e-09
2.00526e-09
-1.25788e-09
-1.61496e-09
8.67578e-10
-9.85141e-09
-3.39898e-09
1.25039e-08
-1.14873e-09
-2.04044e-09
1.06489e-09
2.12427e-09
-1.22406e-09
-4.52503e-10
-1.17328e-09
8.55252e-09
-2.31875e-08
3.64188e-11
-4.09566e-11
2.31897e-08
2.41021e-08
-2.4092e-08
5.09789e-11
1.2907e-11
-2.07012e-08
2.06901e-08
6.79284e-12
-2.06026e-08
2.05984e-08
-4.76971e-11
2.33324e-08
8.35966e-11
2.31868e-08
-2.31836e-08
2.33473e-08
-2.33404e-08
2.33346e-08
-2.33409e-08
-4.94441e-12
-2.06743e-08
2.06681e-08
7.84789e-12
2.33532e-08
-8.38998e-14
-1.43751e-11
-6.01672e-12
2.31967e-08
2.41042e-08
-2.40958e-08
-1.85101e-11
2.33514e-08
-2.33318e-08
-2.0191e-11
-2.31803e-08
2.63602e-11
2.31875e-08
-4.07771e-12
2.40994e-08
1.65846e-11
3.89202e-11
-4.241e-12
-2.33227e-08
2.40987e-08
-2.40915e-08
-4.28005e-11
-2.31867e-08
2.31845e-08
5.06158e-12
2.31771e-08
-3.08455e-11
-2.3186e-08
-2.41091e-08
2.4102e-08
1.02129e-11
-2.40994e-08
2.41022e-08
-1.0944e-11
2.33371e-08
-3.67184e-11
-2.33408e-08
-2.32036e-08
-1.31003e-13
2.33394e-08
-3.03183e-11
2.4109e-08
-2.51936e-11
-2.41157e-08
-1.29343e-11
2.41005e-08
-2.80707e-11
2.31852e-08
-3.33633e-11
-2.16449e-11
-1.38161e-11
-6.53349e-11
2.40969e-08
-1.94488e-11
2.33364e-08
-1.75718e-11
2.14373e-08
-3.03531e-12
-2.31907e-08
3.33297e-11
-2.32169e-08
7.65848e-11
2.32651e-08
-2.41134e-08
2.41273e-08
1.01801e-11
-2.31643e-08
-1.10322e-12
-9.27265e-12
-2.31663e-08
5.60255e-12
-3.07993e-11
-2.41008e-08
-1.472e-11
2.14189e-08
-2.14223e-08
2.33533e-08
1.1574e-13
2.14285e-08
1.5298e-11
-2.33541e-08
2.33434e-08
2.79618e-11
-2.41281e-08
2.41162e-08
3.13808e-11
-2.31599e-08
-1.2186e-11
2.31805e-08
-2.31742e-08
-2.49593e-11
-2.31946e-08
2.32042e-08
-1.67621e-12
1.12466e-11
1.22502e-11
2.31651e-08
-2.31338e-08
-2.69876e-11
-2.04658e-11
-5.51836e-13
2.41157e-08
1.54956e-11
-2.31445e-08
4.96043e-12
2.33444e-08
1.243e-11
2.29602e-08
-2.28204e-08
-1.66931e-10
-2.30548e-08
-1.02874e-10
2.32005e-08
-2.32171e-08
2.62312e-11
-2.40988e-08
2.4107e-08
-3.2472e-11
-1.80374e-10
-2.30986e-08
1.70204e-12
2.31992e-08
-2.3196e-08
-8.22241e-12
2.33549e-08
1.67957e-11
2.41261e-08
1.98269e-11
-2.3045e-08
9.33939e-11
-2.27011e-08
1.71987e-11
2.56589e-11
2.41296e-08
2.29357e-11
2.33584e-08
2.3206e-08
1.23177e-11
2.41013e-08
-2.40749e-08
-1.29802e-10
2.24824e-08
5.6556e-09
-2.26261e-08
2.30021e-08
-2.29869e-08
3.82745e-10
-2.25984e-08
5.46211e-10
2.40922e-08
-2.40986e-08
-4.80992e-11
1.01732e-12
-1.11897e-11
1.90008e-09
-2.36726e-08
9.26943e-10
2.37769e-08
-8.60496e-11
-1.82757e-08
-1.16843e-09
1.79911e-08
-1.91824e-08
-7.48582e-10
1.94496e-08
2.17554e-10
-2.98853e-12
-1.97955e-09
1.47353e-09
-2.36286e-08
2.33812e-08
-2.34036e-08
8.81347e-11
-6.6311e-10
2.41593e-08
-2.41714e-08
7.34026e-11
-2.33842e-08
2.3328e-08
1.49015e-10
1.03538e-10
2.41555e-08
1.02415e-10
1.82244e-08
-1.43203e-09
2.40922e-08
1.58299e-10
1.12117e-11
2.39364e-08
-2.2566e-08
-1.0225e-10
2.2768e-08
9.89644e-12
2.31701e-08
-2.17716e-10
-2.24066e-08
-4.14671e-10
-2.33139e-08
2.34247e-08
-8.30526e-09
9.07566e-09
-1.61994e-08
5.69466e-10
5.46226e-10
-1.00257e-10
-3.56777e-09
8.21232e-10
5.97977e-10
1.85526e-09
-1.71227e-09
8.34739e-09
-8.49379e-09
-7.22653e-09
7.37293e-09
1.86649e-11
1.07553e-08
4.1909e-11
2.33557e-08
-1.97737e-11
1.07179e-08
-1.20265e-12
1.08017e-08
-1.08005e-08
2.379e-11
-1.10481e-08
2.41025e-11
-1.07753e-08
-1.9306e-11
1.09784e-08
2.15332e-11
-1.08141e-08
1.77745e-11
1.05995e-08
1.59849e-11
1.10652e-08
-1.10812e-08
2.16872e-11
1.07672e-08
-1.07889e-08
-3.69327e-10
1.12636e-08
3.50437e-11
-2.33927e-08
7.63912e-11
-2.32452e-08
2.32462e-08
-7.17695e-12
1.08263e-08
-1.08191e-08
2.7621e-11
-2.41596e-08
2.7276e-10
8.91105e-09
-4.29227e-10
-1.12353e-08
1.16646e-08
-3.33177e-10
-6.4179e-09
6.75107e-09
2.15786e-10
6.44687e-09
1.51361e-09
6.87162e-09
-8.38524e-09
-3.57757e-10
4.1593e-10
-1.48401e-09
1.42584e-09
2.06636e-08
2.31865e-11
-2.06763e-08
2.67401e-11
2.06381e-08
-2.06315e-08
-2.06615e-08
2.06489e-08
-2.06933e-08
6.23146e-12
-2.13278e-08
2.13264e-08
2.14254e-08
-2.58986e-11
-2.05561e-08
2.05468e-08
2.04514e-08
-2.0357e-08
-2.13421e-08
1.5422e-11
-2.06655e-08
2.03587e-11
2.09689e-08
-2.04113e-08
2.06571e-08
8.50086e-12
1.85476e-08
-1.83771e-08
2.13288e-08
1.24316e-11
-2.05596e-08
-2.41137e-11
1.63617e-08
-6.94695e-10
2.06232e-08
3.38195e-11
1.74179e-08
-1.76168e-08
1.57915e-08
5.3823e-10
-1.48161e-08
1.22451e-09
1.86821e-09
2.38084e-09
3.54556e-09
-2.122e-09
-3.80441e-09
-5.0979e-10
-2.13124e-09
5.92954e-10
2.04808e-09
-5.64087e-10
-8.6995e-10
8.03816e-10
4.3827e-09
-2.00084e-09
7.56121e-09
-1.10188e-10
-1.18797e-08
1.19898e-08
8.23199e-10
-9.69593e-10
-1.8592e-09
1.76534e-09
-1.01131e-08
1.1888e-08
3.78127e-09
-1.56753e-08
-2.98132e-09
1.03051e-08
8.35153e-09
4.26296e-09
2.96147e-09
-3.75881e-09
-1.69415e-09
-1.32645e-09
-2.59732e-09
2.08328e-09
1.8405e-09
-6.93043e-09
-2.74352e-09
1.07329e-09
6.331e-10
9.78602e-09
-1.02123e-08
1.31454e-09
1.33999e-09
9.29465e-10
-2.54544e-09
-8.71713e-10
2.0907e-09
4.50864e-09
8.75411e-10
1.355e-09
5.27725e-10
-1.05952e-09
-1.17571e-08
-1.93447e-09
1.29008e-09
1.24015e-08
8.82395e-09
1.79084e-09
-1.06148e-08
-1.11683e-08
1.29133e-09
1.44614e-08
-4.42596e-10
8.78691e-09
-8.14096e-09
-6.26847e-09
-2.47762e-09
2.82113e-09
2.40457e-09
-6.05173e-09
-8.12773e-09
-1.47633e-11
3.83485e-11
8.48221e-09
3.91263e-09
-1.02336e-08
-2.40699e-09
7.77187e-10
-1.98539e-08
1.18646e-08
7.21216e-09
-7.12013e-09
4.67593e-09
-5.29563e-09
3.0338e-09
3.27984e-09
1.6084e-09
-1.32229e-08
-1.46909e-09
-3.44152e-11
4.48835e-09
1.40064e-09
1.19582e-09
7.37287e-10
5.25475e-09
-2.11857e-08
8.60825e-10
-4.5406e-09
-1.59481e-09
2.04855e-09
2.74443e-09
-2.41214e-09
-1.32362e-09
4.11598e-10
4.20531e-10
9.9208e-09
-5.04103e-10
7.54809e-10
6.16475e-10
6.60628e-10
3.02814e-09
-1.5483e-08
2.49599e-09
1.24147e-08
5.72279e-10
6.76453e-09
3.62197e-09
-9.43809e-09
3.1543e-09
1.74668e-09
-4.46443e-09
5.9976e-09
2.86045e-09
1.58346e-08
-3.12323e-09
-1.75752e-08
-4.62285e-09
7.38551e-10
5.63097e-09
5.10067e-09
8.59531e-09
-2.53093e-09
-1.11651e-08
6.74103e-09
3.39526e-09
-2.68211e-09
-8.35908e-10
-9.01458e-10
-1.98149e-10
6.64502e-09
-4.94132e-12
8.91599e-09
-7.26367e-11
1.13362e-08
-2.12338e-11
1.06207e-08
-1.88016e-11
1.09972e-08
-2.23675e-11
1.07403e-08
1.24564e-11
1.07429e-08
-2.04884e-08
5.39425e-10
1.95198e-08
-1.21114e-09
3.14344e-09
6.15884e-09
-4.20508e-09
4.27304e-09
6.30001e-09
-4.41421e-09
1.04415e-08
-1.45873e-08
2.57654e-09
6.95791e-10
-6.96377e-10
-9.42445e-13
-1.44512e-09
-1.70348e-11
1.0626e-08
2.30693e-09
-3.80989e-09
-2.41441e-08
-2.33729e-08
-2.144e-08
-2.35012e-08
2.33151e-08
-2.37893e-08
2.36678e-08
-2.32212e-08
-2.29119e-08
2.30175e-08
-6.35988e-09
1.08511e-08
-1.09515e-08
1.10355e-08
2.32158e-08
-2.32383e-08
-7.47103e-09
1.07751e-08
1.10682e-08
-2.35812e-08
2.36878e-08
1.10804e-08
-1.77543e-11
1.08051e-08
1.07915e-08
2.41341e-08
-2.41263e-08
2.33665e-08
-2.33547e-08
2.07379e-08
-2.32882e-08
2.33067e-08
-2.31818e-08
2.31693e-08
-2.40949e-08
2.40946e-08
1.07903e-08
2.33504e-08
-2.33481e-08
2.1429e-08
1.08314e-08
-2.06746e-08
2.06506e-08
2.31986e-08
-2.32e-08
-2.08024e-08
-8.68187e-12
1.07952e-08
2.33359e-08
1.10647e-08
2.41216e-08
-2.41124e-08
-3.22867e-10
-6.96183e-09
-2.66265e-09
1.11339e-08
-8.79415e-09
-7.19414e-09
-1.23534e-08
1.07566e-09
2.99428e-10
8.55106e-09
-3.68375e-11
6.32371e-10
2.09904e-08
-1.55347e-08
9.23196e-09
2.28612e-11
-1.66917e-11
2.81006e-11
-1.72335e-11
-2.06864e-08
-1.22237e-11
5.33118e-12
2.06522e-08
2.38715e-11
2.97026e-11
-1.50039e-11
-4.09026e-11
-2.05451e-08
-2.86119e-11
1.40547e-11
-2.06935e-08
-3.26004e-11
6.65929e-11
-1.17514e-10
1.58181e-11
-2.63637e-12
-1.08153e-10
-1.23219e-09
7.19957e-10
4.16088e-11
1.9982e-10
6.82355e-12
7.82993e-13
2.13111e-08
-4.14843e-10
-1.5172e-10
-1.64658e-10
2.71097e-11
2.07181e-08
2.50837e-11
2.13771e-08
4.05781e-10
-5.11743e-10
-8.46113e-09
-3.07186e-09
-1.22057e-09
-9.38954e-10
-1.24676e-08
-3.58355e-09
-1.38376e-08
5.60895e-09
1.15842e-08
-1.46972e-08
-8.05454e-10
1.22965e-09
-8.4631e-12
6.01076e-12
2.06547e-08
-2.73542e-12
-2.06923e-08
-8.49868e-11
-7.9008e-11
2.14751e-08
-1.05254e-11
-2.05523e-08
-5.24213e-09
-1.73029e-08
-4.4998e-09
-2.56753e-09
2.43702e-08
5.22936e-10
2.67489e-09
-5.02846e-09
3.26871e-09
1.08381e-08
-1.21346e-08
6.90551e-09
2.65533e-09
-9.17704e-09
-1.88832e-08
1.74838e-08
9.0676e-09
-7.88639e-11
4.16128e-09
1.98892e-10
1.01709e-08
-4.83686e-09
1.99938e-08
-1.32566e-08
4.69659e-09
-4.89671e-10
-1.34774e-08
2.34649e-09
2.21121e-09
8.91969e-09
1.2519e-08
-9.71415e-09
-1.49538e-10
-2.27824e-09