/*--------------------------------*- C++ -*----------------------------------*\
  =========                 |
  \\      /  F ield         | OpenFOAM: The Open Source CFD Toolbox
   \\    /   O peration     | Website:  https://openfoam.org
    \\  /    A nd           | Version:  8
     \\/     M anipulation  |
\*---------------------------------------------------------------------------*/
FoamFile
{
    version     2.0;
    format      ascii;
    class       surfaceScalarField;
    location    "9";
    object      phi;
}
// * * * * * * * * * * * * * * * * * * * * * * * * * * * * * * * * * * * * * //

dimensions      [0 3 -1 0 0 0 0];

internalField   nonuniform List<scalar> 
33977
(
3.55876e-09
-1.54675e-10
-3.82898e-09
4.24894e-10
-8.15357e-10
-1.65564e-09
1.72165e-09
7.49345e-10
3.71662e-09
-2.69971e-10
1.43966e-10
-3.59062e-09
3.60695e-09
-3.5404e-09
-3.01818e-10
2.35272e-10
2.06454e-11
-2.30559e-10
-5.04398e-10
7.14312e-10
-1.91575e-09
1.5388e-09
-4.38404e-10
-3.24109e-09
4.19588e-09
-2.27064e-09
1.31586e-09
-1.81004e-09
-2.09447e-09
1.35193e-09
2.55258e-09
3.66477e-09
-3.77992e-09
1.83241e-10
-6.80931e-11
-1.00627e-09
2.08959e-09
-3.15045e-09
2.06713e-09
2.62222e-09
3.60576e-10
-3.11284e-09
1.30037e-10
-1.32788e-09
1.37676e-09
-7.06571e-10
6.57691e-10
-5.933e-09
-4.50247e-09
4.92965e-09
5.50583e-09
-3.40664e-09
-3.97246e-09
4.4841e-09
2.895e-09
2.42802e-09
-2.84259e-09
-2.31934e-09
2.73391e-09
-1.12146e-09
1.27266e-09
-1.51196e-10
7.41408e-10
-8.17591e-10
-1.2517e-09
-2.70522e-09
1.09713e-10
1.71632e-09
8.7918e-10
5.41112e-09
-9.10155e-10
-5.77542e-09
1.27445e-09
2.73705e-09
-1.49874e-09
-2.67746e-09
1.43915e-09
2.56668e-09
2.55228e-09
-2.69094e-09
-1.25981e-09
5.25671e-09
-4.41828e-09
4.21368e-10
-3.90625e-09
3.92229e-09
7.81547e-12
-2.38625e-11
2.60979e-09
-1.36199e-09
1.08906e-09
-2.33686e-09
-2.08612e-09
9.67177e-10
-9.32938e-10
2.05188e-09
2.51856e-09
-2.49047e-09
2.53859e-09
3.87544e-09
-3.87843e-09
-2.71401e-11
3.01338e-11
3.62356e-09
-3.20584e-09
7.6555e-11
-4.94281e-10
-4.1047e-10
-1.11571e-09
6.93608e-09
-5.4099e-09
3.8941e-09
-3.89104e-09
-3.09206e-11
2.78664e-11
3.78209e-09
-3.78458e-09
7.4126e-13
1.74726e-12
8.99682e-10
-8.21841e-10
-4.71917e-11
-3.06484e-11
-3.91123e-09
-2.50406e-11
3.00298e-11
2.61279e-09
2.44471e-09
-2.53894e-09
-3.21403e-09
1.83909e-09
-1.44859e-09
2.82353e-09
1.39246e-09
2.07155e-09
-2.89608e-09
-5.67931e-10
2.43125e-09
2.63748e-09
-2.45594e-09
1.01044e-09
-9.87326e-10
1.51955e-09
-1.54266e-09
-2.94555e-09
-2.41189e-11
-7.96419e-11
3.04931e-09
-2.3414e-09
-2.19978e-09
2.44603e-09
2.09515e-09
3.86464e-09
-3.86721e-09
-4.54578e-11
4.80298e-11
3.72046e-09
1.23095e-10
-2.23984e-10
-3.61957e-09
-6.00446e-10
-4.59947e-12
4.22861e-09
2.33445e-09
-2.69214e-09
2.44949e-09
-2.09181e-09
1.29496e-10
-5.94045e-11
3.02222e-09
-3.09232e-09
3.94217e-09
-1.00377e-12
-1.88705e-11
-1.22798e-09
-2.82797e-10
2.78342e-10
1.23244e-09
-1.25504e-09
1.97022e-09
-7.15174e-10
2.57343e-09
2.48221e-09
-2.62439e-09
-2.98738e-09
2.99237e-09
-8.35071e-12
3.36397e-12
-1.74703e-09
7.9688e-10
1.13107e-09
-1.80918e-10
-3.00721e-09
-2.4711e-09
2.63573e-09
3.0614e-09
2.31303e-11
-2.33665e-11
-3.06116e-09
3.81445e-09
-1.02156e-10
4.33087e-12
-2.31242e-09
4.84042e-10
-8.7684e-10
-3.93817e-10
3.10924e-10
1.33463e-09
-1.25174e-09
2.54929e-09
-2.54131e-09
2.56545e-09
-2.70886e-11
7.51083e-10
-3.97933e-09
3.25534e-09
3.76386e-09
-3.75126e-09
-2.30916e-11
1.04991e-11
2.39028e-09
-1.831e-09
-1.44268e-09
8.83408e-10
-2.91211e-09
3.07382e-11
-7.86471e-11
2.96002e-09
-1.83791e-09
1.89259e-09
1.78989e-09
-1.84456e-09
2.44594e-11
-4.15957e-11
3.14943e-09
-3.39605e-09
-9.0073e-10
1.14735e-09
-3.70628e-10
-1.05785e-11
-2.82463e-09
2.68427e-09
1.48151e-09
-1.7755e-09
6.231e-11
-3.06354e-09
-2.63913e-11
3.02762e-09
1.66534e-10
-1.82584e-09
3.59992e-09
-1.94061e-09
2.5384e-09
-3.64619e-09
7.63339e-09
-6.5256e-09
-1.0679e-09
1.13043e-09
-1.63377e-09
1.57123e-09
2.19983e-09
-1.73777e-10
2.18252e-09
-4.20858e-09
1.39036e-09
-1.55679e-09
1.66429e-10
-4.23752e-09
1.18419e-09
-1.19598e-09
4.24932e-09
4.29445e-12
-3.09853e-09
6.65332e-11
3.0277e-09
2.78222e-09
-2.86444e-09
-2.25918e-09
3.24525e-10
3.79012e-09
-3.98515e-09
3.19924e-09
-5.87527e-11
3.53762e-12
-3.14402e-09
-4.36936e-09
4.19401e-09
4.99877e-10
-5.45447e-09
-1.95644e-09
4.89921e-09
2.5117e-09
3.11631e-09
-1.77055e-09
1.36671e-09
-2.71247e-09
1.3729e-09
-3.28344e-11
2.34274e-11
-1.36349e-09
-2.79831e-09
2.84195e-09
-5.46908e-11
1.10522e-11
2.95122e-09
9.10717e-12
9.72924e-11
-3.05762e-09
-6.13746e-10
5.41113e-10
-4.74567e-10
5.472e-10
-1.02461e-11
1.33778e-09
4.53603e-11
-4.29651e-09
-3.24923e-10
3.06516e-10
4.31492e-09
-2.99037e-09
-2.4891e-11
2.78781e-11
1.4727e-09
-9.64645e-10
2.64137e-09
2.64339e-09
2.63694e-09
-2.73104e-09
-2.33806e-09
2.39817e-09
-1.22909e-10
6.28053e-11
8.68935e-10
-4.11847e-09
4.98169e-09
-1.73216e-09
2.51072e-09
-2.77054e-09
2.94204e-09
-2.68223e-09
1.8957e-10
3.5136e-09
-7.01531e-10
-3.00164e-09
3.35642e-09
5.10758e-10
-2.53102e-09
-1.33616e-09
-3.74455e-09
-2.03986e-11
1.09575e-09
2.6692e-09
3.85576e-09
-3.84553e-09
-4.87339e-11
3.85007e-11
2.72394e-09
-3.35847e-09
6.34527e-10
2.87496e-10
-1.19983e-09
-3.15643e-10
7.3963e-10
-7.93996e-10
-2.25805e-09
-2.58123e-09
-1.62078e-09
6.87684e-10
3.51432e-09
1.03789e-10
5.20931e-09
-4.72006e-09
-5.93033e-10
-2.73848e-09
2.72343e-09
-2.06479e-11
3.56984e-11
-1.6151e-09
1.55764e-09
-1.57356e-09
-4.49673e-10
8.0994e-10
1.21329e-09
3.72631e-09
-3.71293e-09
-2.7938e-11
1.45504e-11
2.47482e-09
-2.67313e-09
-2.55981e-09
2.75811e-09
-3.02958e-10
4.07473e-09
-3.86504e-09
9.32717e-11
1.04926e-09
-6.09855e-09
5.38549e-09
-3.36209e-10
-5.19588e-10
1.02566e-09
-1.33525e-09
8.29183e-10
-2.77997e-09
2.76188e-09
-1.55103e-11
3.36037e-11
8.0177e-09
-7.29957e-09
1.61884e-09
-2.33698e-09
-2.01527e-09
1.98702e-09
7.56584e-10
-7.28338e-10
-2.82035e-09
2.79823e-09
-1.31913e-11
3.53048e-11
2.97803e-09
-2.99442e-09
1.75419e-11
-1.15319e-12
-1.56921e-10
4.66069e-10
3.35562e-09
3.01402e-09
6.75823e-12
-3.05003e-09
2.92516e-11
-2.86602e-09
2.83893e-09
-1.3594e-11
4.06827e-11
-2.66353e-09
2.33256e-09
2.80579e-09
-5.50262e-10
1.05892e-10
-4.90729e-09
5.35166e-09
-2.91284e-09
2.8847e-09
-1.26342e-11
4.07728e-11
-2.68388e-11
2.90082e-11
-2.95576e-09
2.92723e-09
-1.18549e-11
4.0378e-11
5.54074e-12
-2.62593e-11
-1.52217e-09
-2.10993e-09
1.38707e-10
3.4934e-09
1.23306e-09
-1.61977e-09
1.51714e-09
9.64471e-12
-3.45959e-11
3.30394e-09
-3.28699e-09
-3.94928e-11
2.25443e-11
-2.67168e-09
-2.00493e-09
1.47278e-09
3.20383e-09
-2.03397e-10
4.88783e-10
-4.37494e-10
1.52108e-10
2.96369e-09
-1.14348e-11
2.57766e-11
-3.68422e-09
1.21336e-11
-4.08432e-11
3.25707e-09
-3.25308e-09
-1.68623e-11
1.28709e-11
1.88651e-11
-3.44729e-11
1.34027e-12
-3.39109e-12
3.35384e-09
-3.33213e-09
-3.75472e-11
1.58334e-11
-2.27505e-09
2.85801e-09
2.07406e-10
-7.90361e-10
-3.32389e-09
2.83962e-09
3.74316e-10
1.09956e-10
3.39884e-09
-3.37818e-09
-3.43697e-11
1.37108e-11
1.57123e-09
-3.72297e-10
-4.61715e-09
3.41822e-09
8.26735e-10
-8.33915e-10
-1.02516e-09
1.03234e-09
-3.37043e-09
2.35215e-09
-1.71776e-09
2.73603e-09
3.46242e-09
-3.4334e-09
-5.17815e-11
2.27598e-11
3.58992e-09
-3.59952e-09
-1.29024e-11
2.2499e-11
3.66784e-09
-3.63964e-09
-4.45854e-11
1.6386e-11
5.62737e-10
-1.50019e-09
-2.73677e-09
3.67422e-09
3.57089e-09
-3.58357e-09
3.74047e-12
8.94169e-12
3.59497e-09
-3.58008e-09
-2.72621e-11
1.23689e-11
-1.14012e-09
-6.17609e-09
5.61759e-09
1.69863e-09
-3.89063e-09
-1.02453e-10
3.12797e-09
8.65114e-10
4.30564e-11
3.63505e-09
-7.11551e-11
1.90209e-09
-1.89687e-09
-5.21247e-12
7.19383e-10
3.14867e-09
-3.86374e-09
-4.31706e-12
5.80868e-09
-4.207e-10
1.09445e-10
-5.49742e-09
-4.22833e-09
-8.53803e-11
-1.68008e-11
4.33051e-09
3.23039e-10
-2.95384e-10
-1.98531e-09
1.95766e-09
3.02051e-09
-1.21538e-11
4.81321e-11
-3.05648e-09
-5.28207e-09
-1.6736e-09
4.34861e-09
2.60707e-09
-7.27221e-11
-5.44691e-10
7.58105e-11
5.41602e-10
-1.45365e-09
-2.77007e-09
1.25944e-09
2.96428e-09
-2.69554e-09
2.69379e-09
-1.38157e-11
1.55679e-11
-3.43089e-11
1.79302e-11
9.98191e-10
7.42177e-10
-9.13633e-10
3.13906e-09
-7.59499e-10
-2.61933e-09
2.39773e-10
-1.56879e-09
2.42934e-09
1.93065e-09
-2.79121e-09
3.83183e-09
-3.81147e-09
-4.28945e-11
2.2534e-11
3.18338e-09
-2.56272e-10
8.00062e-10
-3.72717e-09
-3.7732e-10
3.71171e-09
-3.37316e-09
3.87661e-11
-3.00382e-09
2.92139e-09
2.03129e-09
-1.94885e-09
1.92817e-11
1.8828e-09
1.25369e-09
2.19165e-09
-3.23486e-09
-2.1048e-10
3.9331e-09
-4.14432e-09
-1.11731e-09
1.32854e-09
2.93193e-09
6.29639e-11
-2.77127e-09
-2.23627e-10
-6.48559e-12
-4.14606e-09
3.58007e-09
5.72475e-10
-1.88164e-09
1.93133e-09
9.41046e-10
-9.90736e-10
3.23107e-09
-3.21847e-09
-2.58841e-11
1.32775e-11
-4.46612e-11
-3.21664e-09
1.63635e-10
3.09767e-09
-3.19376e-09
3.16485e-09
-8.03108e-11
1.09223e-10
9.44496e-10
-3.53975e-09
2.87154e-09
-2.76288e-10
-2.11328e-09
2.00981e-09
-1.73444e-09
-1.00825e-09
9.32202e-10
-8.39477e-10
9.15523e-10
-3.24987e-09
2.11748e-10
9.50169e-10
2.08796e-09
-3.44657e-09
1.22935e-11
1.1038e-10
5.05286e-11
-1.42231e-10
-2.24636e-09
-1.54799e-09
1.42756e-09
1.20427e-10
3.04761e-09
-3.05223e-09
-7.11124e-12
1.17294e-11
-3.74243e-09
3.71481e-09
7.7721e-11
-5.0096e-11
-5.15248e-10
4.63583e-09
-4.67084e-09
-9.98399e-10
2.40182e-10
-4.14038e-10
1.17226e-09
2.4087e-09
-5.45006e-09
7.54185e-09
-4.50048e-09
-9.50494e-11
2.71693e-10
-1.94122e-10
1.74784e-11
2.66904e-10
-3.58168e-09
-8.35217e-11
3.3983e-09
1.98419e-09
-1.48234e-09
-5.0185e-10
-1.02783e-10
-6.67813e-11
3.00043e-09
-2.83087e-09
-1.84728e-09
-7.27557e-10
1.61235e-09
9.62483e-10
2.35751e-11
-1.56453e-11
2.36715e-10
7.83853e-10
-2.84696e-10
-7.35872e-10
2.63353e-09
-6.90641e-10
-1.86399e-09
-7.89014e-11
-2.07571e-10
1.17211e-09
-5.00719e-09
4.04265e-09
1.45184e-09
-6.745e-10
7.35904e-10
-1.51324e-09
-4.02587e-09
4.44759e-09
-4.12045e-09
3.69872e-09
-8.01445e-10
8.2535e-10
2.1281e-10
1.56185e-09
2.34857e-09
-2.4467e-09
-1.46372e-09
2.7301e-09
-1.23296e-09
1.06303e-09
-2.56017e-09
-1.68553e-09
-2.1878e-09
7.19722e-10
3.15361e-09
-3.87384e-10
6.18827e-11
3.12592e-09
-2.80042e-09
6.20624e-10
5.13427e-11
-3.7746e-11
-6.34221e-10
-3.67565e-09
3.21865e-10
-9.27847e-11
4.56485e-09
-1.96954e-09
-3.70678e-09
1.11148e-09
4.37627e-09
-4.34248e-09
-1.05665e-11
-2.32218e-11
3.61728e-09
-3.24033e-11
1.00941e-11
3.07106e-09
-3.02412e-09
-6.32339e-11
1.62949e-11
3.43694e-11
-4.81577e-11
-3.22687e-09
3.4298e-09
-3.18486e-10
1.15559e-10
3.14477e-09
-3.1077e-09
-5.81341e-11
2.10688e-11
-8.56666e-10
4.57897e-10
9.05531e-10
-5.06762e-10
-1.50812e-09
7.75555e-10
3.24111e-09
-2.50854e-09
-9.00644e-10
1.18385e-09
-3.03196e-09
2.74876e-09
-2.00076e-09
2.74994e-09
2.03304e-09
-1.38589e-10
4.67094e-09
-4.62202e-09
8.96695e-11
4.97701e-09
-3.06717e-09
-1.13189e-09
-7.77938e-10
-1.07191e-10
3.52525e-09
-6.36449e-11
-3.35441e-09
-2.26262e-09
3.08975e-09
1.85713e-09
8.84782e-10
-8.37499e-10
3.22874e-10
-3.70157e-10
2.30434e-09
-5.09243e-09
-1.5325e-09
4.32058e-09
1.6308e-11
-3.86669e-11
2.05901e-09
-1.40275e-09
2.07384e-09
3.286e-09
1.24361e-09
-2.32897e-09
-2.20064e-09
-3.41154e-09
3.15999e-09
9.13753e-10
-6.62201e-10
-1.24835e-09
-1.03748e-09
2.05224e-09
2.33588e-10
-2.67374e-09
2.67541e-09
-1.04811e-11
8.81373e-12
-1.37683e-09
1.41714e-09
-1.02764e-09
-4.43391e-09
7.98586e-10
-4.03193e-11
2.7841e-09
-2.73579e-09
-8.53622e-10
8.05318e-10
1.04666e-09
-4.47319e-09
-8.40463e-10
4.26699e-09
4.26135e-09
-4.31315e-09
1.09846e-09
-4.5167e-09
-1.47014e-09
6.63491e-09
-6.48077e-10
1.59375e-09
-1.43528e-09
-2.60586e-09
2.44739e-09
1.58897e-09
-1.78388e-10
-1.41058e-09
1.08698e-09
-4.61715e-09
5.93886e-09
-1.28749e-09
3.03318e-09
-2.20898e-09
4.63286e-10
3.91558e-09
3.63358e-10
-4.45815e-09
1.79209e-10
-2.07728e-11
-3.61692e-09
3.61531e-09
2.23807e-11
5.63056e-10
-5.86147e-11
-5.77163e-10
-2.72987e-09
1.21466e-09
-6.73642e-10
2.18885e-09
4.99195e-09
1.33274e-09
-3.27364e-09
-3.05105e-09
-3.78264e-09
3.79756e-09
2.0046e-11
-3.49683e-11
4.77868e-09
-4.46474e-09
-3.72058e-09
-6.92326e-12
3.05579e-09
1.25357e-11
4.27718e-11
2.85599e-09
5.37435e-11
-2.95251e-09
4.34804e-10
-4.32971e-10
1.04448e-10
-1.06281e-10
2.6439e-10
-5.20983e-10
-2.15345e-10
4.71937e-10
2.29548e-09
1.83852e-09
-4.00098e-09
-1.33018e-10
7.74966e-09
-5.84403e-09
6.32772e-10
3.16822e-09
1.27446e-09
-1.93195e-09
4.954e-10
-9.5331e-11
-5.05796e-10
1.05727e-10
-1.50722e-09
-2.21498e-09
-1.02168e-11
3.73241e-09
3.16313e-09
-3.18062e-09
7.30081e-12
1.0187e-11
-1.18903e-09
1.15378e-09
-2.75955e-10
3.11203e-10
1.47849e-10
-2.02554e-10
-3.22903e-09
1.24981e-09
3.50109e-09
-1.52186e-09
4.65801e-09
7.51773e-10
-4.54085e-09
3.75168e-09
-4.56902e-11
1.44651e-11
-8.21768e-10
-3.56733e-09
2.8203e-09
1.94339e-09
-1.29467e-09
1.41028e-09
5.8473e-11
3.06117e-10
-5.24673e-10
1.60083e-10
-1.12433e-09
9.15881e-10
-9.22245e-10
1.13069e-09
-4.58974e-09
4.63857e-09
-4.30717e-10
3.81893e-10
4.57322e-10
-2.25384e-09
-3.96561e-10
2.19308e-09
1.10892e-10
-1.04088e-10
-3.99559e-09
3.98879e-09
-6.45749e-10
1.38752e-10
-1.74378e-10
6.81375e-10
2.75694e-09
5.66301e-11
-2.9018e-10
-2.52339e-09
-3.77138e-09
-3.20842e-11
2.08217e-11
-1.59506e-09
2.88905e-09
-2.74765e-09
-5.82078e-09
-2.20118e-09
1.78682e-09
6.23514e-09
2.30446e-09
-1.99658e-09
-2.46995e-09
2.16208e-09
9.75124e-11
1.08212e-10
-3.10979e-09
2.90406e-09
3.16646e-11
-1.72701e-11
-5.67324e-09
5.72625e-09
-9.57423e-11
4.27306e-11
-3.67473e-09
2.23752e-09
1.25471e-09
1.825e-10
-2.34396e-09
2.21934e-09
1.71837e-09
-2.24338e-09
2.39286e-09
2.15498e-09
2.07574e-10
5.05385e-10
-5.92883e-10
-1.20076e-10
1.55187e-09
-4.42996e-09
3.86433e-09
-9.86243e-10
6.17398e-10
-5.95588e-10
2.51103e-10
-2.72913e-10
4.37562e-11
-5.52112e-11
3.79036e-09
-6.14652e-09
6.03213e-09
-3.67597e-09
-1.48987e-09
-2.02258e-09
7.81952e-10
2.73049e-09
7.34414e-11
-2.69424e-09
-4.69055e-11
2.66771e-09
-1.23985e-09
-1.8998e-09
4.72666e-10
2.66698e-09
2.6886e-09
-1.93533e-09
1.18818e-09
-1.94144e-09
-1.22546e-09
-1.36328e-10
1.36178e-09
2.99226e-10
-3.32692e-09
4.99183e-09
-1.96414e-09
-2.65334e-09
2.63745e-09
-1.631e-11
3.22066e-11
7.5566e-10
-6.47139e-10
-1.89421e-09
1.78569e-09
1.87442e-10
-2.58188e-09
2.82436e-09
-4.29921e-10
-3.12884e-09
3.07752e-09
-3.43812e-11
8.57005e-11
-1.04209e-09
-2.04381e-09
3.11894e-09
-3.30387e-11
5.41993e-09
-4.47184e-09
-1.41074e-09
4.6265e-10
-3.5068e-09
-4.40902e-09
2.46135e-09
3.76838e-09
-2.54766e-11
-3.74795e-09
5.04871e-12
4.83879e-09
-3.16271e-10
-4.83434e-09
3.11827e-10
5.65657e-10
-5.38051e-10
2.4809e-10
-2.75696e-10
-3.04478e-09
3.9188e-09
-9.2186e-10
4.78404e-11
1.03178e-10
-7.52837e-10
-1.51785e-10
-1.73992e-10
-3.19264e-10
1.5942e-10
3.33837e-10
2.04302e-09
3.0543e-09
-2.76287e-09
-7.03662e-10
8.56278e-10
-4.65044e-09
4.49782e-09
3.3874e-09
5.3232e-10
-4.49831e-11
-3.87474e-09
-1.99241e-10
-1.00725e-09
1.2065e-09
-7.98442e-10
1.94039e-09
8.93691e-10
-2.03564e-09
1.89465e-09
-1.2294e-09
2.45106e-09
-4.64615e-09
-3.89439e-09
3.54293e-09
4.99761e-09
-3.17502e-09
-1.12149e-10
6.02991e-11
5.12142e-10
-4.92598e-10
2.25519e-10
-2.45063e-10
-2.38855e-09
2.5456e-10
-1.51403e-10
2.2854e-09
-1.78081e-09
-3.47382e-09
1.4759e-09
3.77872e-09
-3.75878e-09
3.7662e-09
1.75793e-11
-2.49982e-11
-3.29263e-10
8.46345e-10
-2.0359e-09
1.51882e-09
1.15853e-09
-1.17435e-09
-2.12315e-09
2.13897e-09
2.40792e-09
-2.64281e-09
-2.53565e-09
-1.1602e-09
4.64482e-09
-3.48462e-09
-3.65408e-09
2.71219e-09
3.89841e-09
-2.95651e-09
7.72019e-12
-1.69103e-11
1.35276e-10
-5.98769e-09
-1.55713e-10
6.00812e-09
-1.50721e-09
-4.31688e-09
5.12042e-09
-6.85242e-10
-2.91245e-10
9.76487e-10
9.73677e-11
-3.1091e-09
-7.32822e-10
4.7316e-10
-4.30703e-10
2.15098e-10
-2.57555e-10
2.41911e-10
-7.39656e-10
-2.21433e-09
2.71207e-09
-3.02695e-09
5.19485e-12
1.91856e-10
2.8299e-09
3.52882e-09
-8.51401e-11
1.87404e-11
1.33127e-09
-5.51756e-09
5.23555e-09
1.08522e-09
-6.59687e-10
-1.16152e-09
7.35988e-10
2.26065e-11
-1.61503e-10
3.14295e-09
-3.00405e-09
3.34163e-09
-4.10389e-09
7.82951e-10
-2.06906e-11
-3.12887e-09
6.64673e-11
3.10904e-09
-4.66324e-11
3.89622e-10
-3.64205e-10
1.97739e-10
-2.23157e-10
4.17528e-09
-4.44653e-09
-1.0139e-09
1.28514e-09
-3.63325e-09
3.58802e-09
9.47588e-11
-4.95289e-11
1.06878e-09
7.64619e-10
-1.8334e-09
-3.0868e-12
7.51015e-11
-2.4982e-09
2.1543e-09
-3.62168e-10
7.06068e-10
-1.20364e-09
1.20263e-09
3.03936e-09
-3.03836e-09
1.35783e-10
-1.1399e-09
1.6489e-10
4.05678e-09
-4.03373e-09
-1.87934e-10
-3.64412e-09
3.21387e-10
3.42058e-09
-9.78491e-11
5.82862e-10
-3.18997e-10
-3.06181e-10
4.23158e-11
4.34057e-09
-1.82322e-09
-3.77716e-09
8.66503e-11
-7.53894e-11
3.96519e-09
-3.97645e-09
8.47927e-11
-2.44703e-10
2.889e-09
-2.72909e-09
3.39074e-10
-3.22092e-10
1.78877e-10
-1.95859e-10
-3.06807e-09
3.86199e-09
-1.55698e-09
7.63051e-10
2.62434e-10
-3.76051e-10
4.01911e-09
3.24143e-10
-2.04085e-09
-2.3024e-09
-3.53308e-09
3.47478e-09
8.64604e-11
-2.81577e-11
-5.28907e-11
4.30679e-11
4.44626e-10
9.78704e-10
2.70284e-09
-3.42878e-11
-3.5826e-09
3.56263e-09
5.42564e-11
3.008e-10
-2.87047e-10
1.60109e-10
-1.73862e-10
-3.3291e-09
3.21284e-09
1.80016e-10
-6.37557e-11
1.9936e-09
2.45634e-10
-1.7271e-09
-5.12134e-10
2.76822e-10
-3.00827e-10
1.4521e-10
-1.21205e-10
-3.44216e-11
1.15984e-10
-3.43778e-09
3.39643e-09
6.68849e-11
-2.55342e-11
-3.45875e-09
3.51333e-09
-2.61993e-11
-2.83859e-11
2.22812e-10
-2.01583e-10
1.47202e-10
-1.6843e-10
-2.6326e-10
2.81065e-10
1.82204e-10
-2.00009e-10
-1.65725e-09
1.20012e-09
-2.91329e-09
-3.37276e-09
3.39791e-09
-1.20429e-11
-1.31154e-11
-5.58631e-09
3.27965e-11
-1.19728e-10
1.87533e-09
-1.79976e-09
-3.43982e-09
3.36424e-09
1.03464e-09
-1.01235e-09
-1.14662e-09
-8.44113e-10
9.0485e-10
1.02448e-09
-4.49642e-09
-2.13319e-09
1.88478e-09
4.74484e-09
2.5142e-09
-2.84039e-09
3.49835e-09
-3.17215e-09
1.79057e-10
1.13913e-10
-1.29462e-10
-1.63508e-10
2.91618e-11
-3.13096e-09
-1.38974e-11
3.1157e-09
1.36496e-09
-4.23063e-09
3.0216e-09
-1.55937e-10
-3.75793e-09
3.58808e-09
1.69855e-10
3.90214e-10
1.75967e-10
-1.52661e-10
-4.13519e-10
2.88717e-10
-3.42363e-10
-2.59408e-09
2.58526e-09
-1.66909e-11
2.55083e-11
-2.00448e-09
2.19033e-09
1.4613e-09
-1.64714e-09
3.47138e-11
-1.60353e-11
-1.49402e-12
-2.33382e-12
9.34275e-11
-8.95996e-11
-3.37519e-09
5.57257e-10
-3.71916e-10
3.18985e-09
-2.21873e-09
-3.51158e-09
3.21618e-09
2.51413e-09
3.1286e-09
3.15101e-11
-3.21701e-09
5.69066e-11
-2.74102e-09
-1.21043e-09
2.51617e-09
-3.47399e-09
3.23066e-09
2.01031e-09
-1.76698e-09
-7.05297e-10
-2.56337e-09
1.05345e-10
3.16332e-09
6.83266e-10
4.38332e-11
-6.60038e-10
-6.70605e-11
3.66383e-11
-5.03289e-11
-6.27659e-09
5.0251e-09
5.04186e-09
6.52853e-10
-5.64602e-10
5.61597e-10
-6.49848e-10
5.50637e-09
-5.36742e-09
-2.44445e-10
1.05499e-10
5.22415e-10
2.24556e-09
-2.81778e-09
4.98035e-11
1.16729e-11
-1.2095e-11
-1.82184e-11
1.86404e-11
3.4737e-10
-1.83359e-10
-3.38003e-10
-2.46118e-09
3.49747e-09
7.39546e-10
-1.77583e-09
3.13838e-09
-3.03245e-09
1.03077e-10
-2.09007e-10
-3.99052e-09
-3.92475e-09
2.72945e-09
5.18582e-09
2.361e-09
-4.57315e-10
4.70871e-10
-2.37456e-09
-3.83713e-09
3.77433e-09
2.41398e-10
-1.78604e-10
9.47994e-10
-4.34176e-09
4.354e-09
-9.60238e-10
8.99162e-11
-5.39099e-11
-3.05788e-09
3.12151e-09
-3.71771e-09
-3.42013e-09
-1.45582e-09
1.17987e-09
3.69607e-09
1.48044e-09
-6.60164e-10
5.56479e-10
-1.7555e-09
-4.27323e-09
1.55553e-09
5.9741e-11
-5.43142e-11
5.57629e-10
1.89938e-09
-2.52001e-09
-8.36667e-10
1.4573e-09
1.4058e-09
-4.10167e-09
-2.75419e-09
2.73148e-11
3.0246e-09
-4.30487e-12
5.53267e-12
8.21403e-13
3.75548e-10
-3.27981e-10
-2.50964e-10
-3.76175e-09
-3.44197e-11
3.73953e-11
1.34036e-10
-4.82974e-10
7.47966e-10
-3.99028e-10
3.06402e-09
-1.04844e-09
2.16045e-10
-2.23163e-09
-4.4881e-09
8.54556e-10
-6.62961e-10
2.95967e-09
-2.16466e-09
-1.18201e-09
3.87008e-10
3.47933e-09
-6.9963e-09
-1.91503e-09
5.432e-09
-4.65066e-11
3.07082e-09
1.63393e-10
-3.18771e-09
5.8219e-09
3.96314e-11
8.80695e-11
-3.31352e-11
-4.46595e-09
-1.56399e-09
4.82226e-09
1.20768e-09
-8.6867e-10
2.70461e-09
5.82363e-10
-2.41831e-09
-4.32732e-09
-1.95387e-10
4.60974e-10
4.06173e-09
-3.7827e-09
3.99106e-09
3.91491e-09
-4.12327e-09
1.96228e-09
-2.23356e-10
-2.61649e-09
8.77568e-10
-2.58929e-09
1.52686e-09
-1.74773e-09
2.81015e-09
4.33863e-09
2.46682e-09
-5.44049e-09
-1.20524e-09
-2.1999e-09
2.98912e-09
4.16019e-10
6.82051e-10
-3.49455e-09
2.68159e-09
1.3091e-10
-5.40996e-09
1.09936e-10
8.74946e-10
4.42507e-09
-3.03758e-09
3.46462e-09
3.94918e-10
-8.21959e-10
1.59701e-09
-1.44315e-09
-2.30857e-09
2.15471e-09
2.89994e-09
-3.19674e-09
3.79797e-10
-8.29947e-11
1.74164e-09
-2.1632e-09
4.22234e-09
-3.80078e-09
-1.65764e-09
7.18204e-10
-3.00955e-10
1.24039e-09
-1.85242e-09
2.09129e-09
2.50611e-10
-3.20945e-10
2.91343e-10
-2.21009e-10
-8.26026e-11
1.02936e-09
-2.81566e-09
1.8689e-09
3.243e-10
-2.18829e-09
2.32131e-09
-1.61358e-10
2.87702e-10
-2.74899e-10
1.48555e-10
-2.13686e-09
-1.44203e-09
2.0916e-09
1.48729e-09
2.12209e-10
7.47475e-10
-1.4557e-10
-8.14115e-10
3.47176e-09
-5.28955e-09
2.46391e-09
-6.46128e-10
-8.644e-10
1.4022e-09
-3.16264e-09
2.62484e-09
2.04989e-09
-3.20164e-09
-4.43311e-10
-3.10165e-12
4.66215e-12
-9.0691e-11
8.91305e-11
1.66186e-09
-8.05589e-10
1.08712e-09
-1.67694e-09
-2.65176e-09
1.08761e-09
-3.04233e-09
2.98885e-09
-2.21206e-11
7.55949e-11
6.94923e-11
-6.19526e-11
3.94796e-09
-3.9555e-09
7.18133e-12
1.3895e-10
-4.06104e-12
-1.4207e-10
2.10686e-10
-2.39037e-10
-1.98286e-09
-1.84308e-09
2.0159e-09
-3.29272e-09
3.68587e-09
-4.17585e-09
2.1894e-09
8.12651e-10
-3.45097e-09
4.48914e-10
3.03228e-09
-1.21758e-09
-2.52e-09
-4.45946e-09
-1.06962e-09
9.39336e-10
-3.54754e-09
-1.92211e-09
3.44257e-09
2.02708e-09
2.98425e-09
-2.98277e-09
2.33805e-11
-2.48606e-11
4.143e-10
7.87134e-09
-1.99384e-09
-6.29179e-09
-3.36655e-09
1.12432e-10
3.29255e-09
-3.84269e-11
-2.35266e-09
-2.84637e-09
2.88482e-09
2.31421e-09
3.32464e-09
-2.9329e-09
-1.43383e-09
-2.0605e-09
1.63309e-09
-1.09535e-09
1.52275e-09
-1.77768e-10
-1.97384e-09
2.15161e-09
3.5827e-09
-2.39403e-09
1.67656e-09
-6.27579e-09
3.65953e-09
9.39698e-10
3.39699e-12
5.06038e-12
-8.45737e-12
2.82502e-09
-3.85299e-09
-1.97586e-09
-2.08888e-09
-1.20112e-09
2.40771e-09
8.82284e-10
-1.08867e-09
9.80231e-10
-3.65712e-10
4.74152e-10
2.14008e-10
-4.14086e-09
4.07294e-09
-1.46087e-10
8.86876e-10
-5.4063e-10
3.3764e-09
-2.43757e-09
-3.20947e-09
2.50361e-10
-2.80293e-10
-3.33691e-11
-3.52094e-09
3.4934e-09
6.09144e-11
1.96316e-10
-3.12894e-09
-1.49407e-10
3.08203e-09
1.7958e-09
-2.33959e-09
2.09091e-09
-1.54712e-09
2.10166e-09
-3.34968e-09
1.47793e-09
-2.29914e-10
1.61076e-09
9.3128e-10
-3.20245e-10
-2.2218e-09
2.49486e-09
7.92345e-11
-1.75921e-10
-2.55547e-09
2.52572e-09
-6.8494e-10
5.47084e-10
-4.84383e-10
6.22238e-10
6.77997e-10
-1.73922e-09
1.82729e-09
-7.66073e-10
-4.0954e-09
4.16262e-09
9.76641e-11
1.68686e-09
-1.6438e-09
1.76646e-09
-3.72408e-09
-1.24315e-09
3.20077e-09
-4.60545e-09
8.10895e-11
-1.77831e-10
4.70219e-09
1.00004e-11
-8.0696e-11
-7.98061e-10
5.538e-09
1.42355e-10
-4.88229e-09
3.22717e-10
-3.4968e-10
2.6796e-10
-2.40997e-10
3.37525e-11
-1.51654e-11
-3.6726e-11
4.60593e-11
6.11291e-10
3.50973e-09
-5.04514e-09
9.7324e-10
5.62172e-10
-1.60154e-09
1.98133e-09
1.5128e-09
1.84122e-11
-3.23232e-11
2.79194e-09
-2.50504e-09
-3.13487e-09
2.84798e-09
7.48356e-10
3.44579e-10
-1.93253e-10
2.23858e-09
-2.63463e-10
-3.97591e-09
2.00079e-09
2.37456e-10
-2.63365e-10
2.74538e-10
4.13754e-09
-3.9297e-10
3.99939e-12
-1.09225e-11
-2.91239e-11
3.6047e-11
-4.10344e-09
5.08949e-09
-3.33871e-09
7.97089e-11
-4.03932e-09
4.0705e-09
-2.17922e-09
2.05159e-09
-3.61329e-09
3.74092e-09
1.33532e-10
-2.83271e-09
1.53066e-11
2.68388e-09
-1.40575e-10
3.84071e-09
-3.85478e-09
1.54638e-10
-2.77762e-09
3.68522e-09
2.80463e-11
-9.35651e-10
-1.18506e-09
3.02791e-09
7.55336e-10
-2.59819e-09
3.71041e-09
-3.7073e-09
2.42626e-11
-2.73687e-11
4.15794e-09
-3.26967e-09
-1.40353e-09
2.02178e-09
-8.70158e-11
-1.86021e-09
-7.45545e-11
2.38536e-09
-1.31809e-09
-2.59542e-09
2.58681e-09
1.1282e-11
-2.67182e-12
3.09998e-09
-3.11553e-09
3.94858e-11
-2.39309e-11
-4.22396e-10
-1.29342e-09
6.27144e-10
-1.94585e-09
2.96315e-09
-3.02002e-09
1.78267e-11
3.00364e-09
-1.451e-12
2.2259e-10
-2.42029e-10
-5.80875e-10
5.59208e-10
-5.86041e-10
5.70033e-10
-7.23096e-10
7.39104e-10
2.95026e-09
-2.94447e-09
1.90416e-11
-2.48266e-11
3.02872e-09
6.5115e-11
-4.01184e-11
-3.05371e-09
3.71569e-09
3.47465e-09
-3.14158e-09
-4.04876e-09
-2.84577e-09
3.40766e-09
-2.21914e-09
3.13336e-09
-3.107e-09
-3.06229e-11
4.26058e-12
2.72279e-09
5.05989e-09
2.35029e-10
1.51707e-09
1.98708e-09
-1.07481e-09
-2.75765e-09
2.69946e-09
1.01385e-10
-4.31907e-11
-2.61844e-09
3.50468e-10
2.84762e-09
-2.63344e-09
-1.50166e-09
-5.1059e-11
1.88057e-09
-1.82951e-09
2.0729e-10
-2.48371e-10
3.35755e-11
-6.38309e-11
-4.11631e-09
-1.20598e-09
2.26441e-09
-1.58121e-09
1.85575e-09
3.0949e-09
-3.0638e-09
-4.09955e-11
9.89828e-12
5.61706e-10
-5.68999e-09
5.5503e-09
-4.2202e-10
-1.9324e-09
-5.64602e-10
9.23445e-10
-3.49872e-09
9.34426e-10
2.86352e-09
7.17425e-10
-1.07814e-09
-1.69978e-09
-2.29097e-10
-2.21514e-09
2.31168e-09
1.32561e-10
-4.59196e-09
-2.05397e-10
4.68363e-09
1.13729e-10
-5.38622e-09
-4.50962e-10
5.26025e-09
5.76931e-10
3.04987e-09
-3.03139e-09
-2.80406e-11
9.55907e-12
2.63525e-09
-4.23485e-11
-2.61757e-09
2.46639e-11
1.35423e-11
-4.04407e-09
-2.9023e-11
4.05955e-09
4.4171e-11
-4.32205e-11
7.0528e-13
-1.65586e-12
-1.08607e-10
5.03266e-11
3.82666e-09
-4.0833e-09
-3.40417e-10
5.8659e-10
3.76074e-09
4.5232e-09
-5.04652e-09
-3.23743e-09
6.07697e-11
-7.20695e-11
5.067e-10
1.13243e-09
1.71254e-09
-1.37559e-09
-1.46938e-09
1.82077e-10
-2.07208e-10
3.03188e-09
-3.03709e-09
-4.67723e-12
9.88607e-12
4.48922e-11
1.41861e-10
-2.9253e-09
2.73854e-09
-1.65399e-09
-2.5253e-09
3.1044e-09
1.0749e-09
1.30944e-10
2.41933e-09
1.20538e-10
-2.67081e-09
-3.09031e-09
-8.99762e-10
3.92803e-09
6.20435e-11
-5.96012e-09
6.33153e-09
-1.16948e-09
1.08582e-09
-1.24079e-09
-2.33145e-09
2.48642e-09
7.03855e-11
-3.5191e-11
2.52487e-11
-2.79587e-11
1.29082e-10
-1.26372e-10
3.01417e-09
-2.9717e-09
-6.44655e-11
2.1992e-11
-6.24923e-12
-1.72653e-09
1.73278e-09
5.95581e-11
-5.54198e-11
3.9294e-09
-3.93354e-09
1.45367e-09
3.01148e-09
-4.1111e-09
-3.54054e-10
-5.6578e-11
-2.43633e-09
4.96495e-11
2.44326e-09
-6.53181e-11
1.45559e-11
-2.30704e-11
7.38326e-11
2.91447e-09
-2.8767e-09
-5.68214e-11
1.90549e-11
3.60286e-09
-1.70904e-09
8.27635e-13
1.64178e-10
-1.8547e-10
-2.85006e-09
2.95704e-09
1.04075e-11
-1.17391e-10
-3.36708e-09
3.76809e-09
-7.59799e-10
3.5878e-10
3.97914e-09
4.9906e-09
-5.20899e-09
2.83481e-09
-2.8225e-09
-1.1194e-11
-1.11181e-12
1.71675e-10
-3.3637e-09
3.26546e-09
-2.89714e-09
-6.12858e-11
-5.49605e-11
3.01338e-09
2.41047e-09
2.28086e-12
-6.61684e-09
4.20409e-09
-3.13103e-09
-7.00206e-11
3.24659e-09
-4.5537e-11
7.50668e-09
-6.25714e-09
-1.24954e-09
7.76945e-10
-5.07105e-09
5.62538e-09
-4.08882e-09
2.58356e-09
-1.98841e-09
-2.52235e-09
2.24437e-09
2.26638e-09
-4.23049e-09
-4.78996e-09
3.73838e-09
-3.06496e-09
2.93953e-09
1.33481e-09
-1.48863e-09
4.69497e-10
-3.15682e-10
-1.86158e-09
2.30641e-09
-4.44829e-10
1.33162e-09
-4.24696e-09
-4.96205e-10
1.80074e-09
-1.93679e-10
-1.28402e-09
2.90589e-09
-2.90175e-09
1.97665e-11
-2.38968e-11
7.25959e-11
-8.18455e-11
1.48353e-11
-5.58561e-12
1.43489e-10
-1.53713e-10
-4.0086e-09
6.25702e-11
4.03268e-09
5.03722e-09
-5.01017e-09
-9.48344e-11
6.77803e-11
1.69463e-09
-1.7154e-09
-2.75029e-09
2.54263e-09
-1.25817e-10
3.33484e-10
1.20454e-09
-1.13214e-09
-5.42091e-09
5.34851e-09
3.72621e-09
-3.69043e-09
1.89088e-11
-5.46897e-11
-2.43671e-09
2.33768e-09
2.61322e-09
-5.34475e-09
1.46374e-09
3.89463e-09
-1.361e-11
-5.85009e-11
6.08805e-11
-4.06203e-12
1.68243e-12
-3.10635e-10
1.73072e-10
-1.817e-10
1.03943e-10
-3.46213e-09
3.3847e-09
-2.65189e-11
-4.51581e-09
4.64947e-09
-2.3952e-10
1.05851e-10
-4.63427e-09
2.19224e-10
4.21949e-09
1.95551e-10
-1.37522e-09
-1.31455e-09
9.68696e-10
1.72107e-09
-3.2411e-09
1.29199e-09
-1.26492e-09
1.50674e-10
-2.28689e-10
-4.38143e-09
3.85007e-09
-9.99421e-10
1.53077e-09
1.81551e-09
-1.74129e-09
2.66929e-09
-2.74351e-09
-2.96713e-11
2.98908e-09
-2.95495e-09
2.89893e-09
-2.03575e-11
7.63705e-11
-2.94692e-11
-3.45228e-09
3.42282e-09
5.89246e-11
-3.80798e-09
3.09796e-09
3.51058e-09
-2.80057e-09
3.17663e-11
-1.3501e-11
4.73866e-09
-4.73149e-09
-4.13993e-11
3.42293e-11
2.93928e-09
2.44934e-10
-3.14475e-09
-3.94645e-11
-1.82972e-09
3.89806e-11
1.79074e-09
-2.50908e-09
2.35168e-09
-1.67232e-09
3.51447e-11
-2.51672e-10
-2.3756e-09
2.02179e-09
1.12851e-09
-7.74698e-10
-9.79926e-11
-3.84151e-09
1.97396e-10
3.74211e-09
2.97078e-09
-4.75476e-09
2.83282e-09
-1.04884e-09
-3.32792e-09
2.38772e-09
-1.0482e-09
1.57668e-09
-1.57181e-09
-1.94853e-09
1.94366e-09
-2.39554e-09
-1.84905e-09
2.26174e-09
-7.58949e-11
1.50933e-10
-3.18681e-09
3.11177e-09
2.45816e-09
2.2816e-09
-1.38334e-09
-7.81908e-11
1.31317e-10
-4.65857e-09
-1.66662e-10
-3.25571e-09
5.58157e-11
-2.2521e-10
-3.58645e-09
4.36471e-10
1.63055e-09
-2.36058e-09
-3.07794e-09
1.95615e-09
-2.9578e-09
2.55065e-09
-1.549e-09
1.00791e-11
-4.46406e-11
-1.12103e-09
4.61659e-10
-1.97082e-09
2.63019e-09
-5.53386e-09
9.17625e-10
-8.02784e-10
3.6159e-09
-9.30107e-11
-2.72011e-09
3.49238e-09
-1.33843e-09
4.80098e-10
-2.63404e-09
-2.36674e-11
-9.33605e-11
-4.70905e-12
1.21737e-10
-2.10521e-09
-1.44831e-09
1.41666e-09
2.98552e-09
-3.00839e-09
2.19658e-11
9.04159e-13
4.75819e-09
-2.15178e-11
1.99477e-12
1.07452e-08
-2.93945e-09
-7.3914e-09
1.02551e-09
1.37269e-09
-9.46372e-10
-4.17041e-09
2.18514e-09
-1.20672e-09
3.19199e-09
-6.08422e-09
1.38591e-09
5.8145e-09
-1.11619e-09
2.84452e-09
-1.20125e-09
2.7929e-10
-1.92255e-09
-1.85103e-11
4.43508e-09
-4.49476e-09
4.74673e-09
4.38968e-12
7.06541e-12
-4.68026e-09
-9.92169e-11
4.79816e-11
2.9097e-09
4.5005e-12
9.09796e-12
-2.9233e-09
-2.62124e-09
1.71485e-10
-5.22257e-10
2.97202e-09
2.91864e-09
-1.92233e-09
1.46185e-09
-3.35648e-09
6.13504e-10
-1.46769e-11
1.11288e-10
-1.22263e-10
1.75379e-11
-6.56353e-12
-3.92788e-09
-2.08059e-10
5.53975e-10
3.58196e-09
-8.0775e-10
9.13135e-10
-1.34325e-10
1.45259e-10
-4.69119e-09
-1.18546e-10
5.60837e-12
-1.50068e-11