/*--------------------------------*- C++ -*----------------------------------*\
  =========                 |
  \\      /  F ield         | OpenFOAM: The Open Source CFD Toolbox
   \\    /   O peration     | Website:  https://openfoam.org
    \\  /    A nd           | Version:  8
     \\/     M anipulation  |
\*---------------------------------------------------------------------------*/
FoamFile
{
    version     2.0;
    format      ascii;
    class       surfaceScalarField;
    location    "9";
    object      phi;
}
// * * * * * * * * * * * * * * * * * * * * * * * * * * * * * * * * * * * * * //

dimensions      [0 3 -1 0 0 0 0];

internalField   nonuniform List<scalar> 
5897
(
4.42833e-10
-1.55705e-10
8.1585e-10
-1.10298e-09
-1.12302e-08
1.26239e-08
-1.23764e-08
1.09827e-08
9.50703e-09
-9.4424e-09
1.47081e-10
-2.11711e-10
1.55316e-10
-1.269e-09
1.16163e-09
-4.79503e-11
1.24198e-08
-1.07231e-08
1.11776e-10
-1.80853e-09
-7.963e-09
-2.72841e-09
6.68251e-09
4.0089e-09
-4.85756e-09
3.86086e-10
-6.30497e-10
5.10197e-09
1.36541e-08
7.62428e-09
-6.4192e-11
-2.12142e-08
-8.69876e-09
1.89296e-09
-7.13683e-10
7.51948e-09
2.87363e-09
9.33242e-09
-9.97315e-09
-2.23291e-09
-1.34463e-11
6.57608e-10
-7.28782e-10
8.46204e-11
-1.44231e-09
8.99098e-09
1.80802e-09
1.75996e-08
8.0617e-10
-1.51012e-08
-3.30459e-09
1.3647e-08
8.29982e-10
-2.05715e-09
1.59729e-09
1.69173e-10
-3.47886e-10
-1.41857e-09
-1.94776e-08
1.51992e-08
1.18426e-08
-7.56419e-09
4.30829e-09
5.05673e-09
-5.64264e-09
-3.72238e-09
-1.06093e-10
5.32274e-10
1.19624e-10
-5.45805e-10
6.21645e-11
-3.82407e-10
-9.71124e-11
4.17355e-10
1.0008e-08
-2.48562e-09
-1.00806e-08
2.55822e-09
-1.66825e-08
2.00434e-08
-5.80339e-09
2.44245e-09
4.5779e-09
-9.32887e-09
-3.21203e-09
1.09901e-08
-4.26482e-09
-8.09936e-09
1.37406e-09
1.03896e-10
3.31007e-10
-1.90408e-08
1.86058e-08
6.9212e-09
-2.61008e-09
-9.8922e-09
5.58108e-09
-9.41205e-09
-7.067e-09
5.58678e-09
1.08923e-08
-4.93135e-10
2.42282e-09
1.04425e-09
-2.97394e-09
-1.46654e-08
1.98119e-08
-9.79659e-09
4.65015e-09
2.68779e-10
-1.15635e-10
-2.10067e-10
5.69221e-11
-1.57328e-08
3.25332e-09
-6.99816e-09
-9.22305e-09
1.76986e-08
2.901e-09
-1.13765e-08
-8.63357e-09
1.23876e-08
-1.49057e-08
1.11517e-08
-1.1733e-08
5.16691e-10
1.42898e-09
9.78733e-09
1.30282e-08
9.00042e-09
-6.27791e-10
-2.14008e-08
-9.51152e-09
-1.36629e-08
6.04502e-09
1.71294e-08
-8.57453e-09
5.19144e-10
8.05539e-09
4.00469e-09
-5.3012e-09
-3.22989e-09
4.5264e-09
1.74159e-08
-1.58952e-08
-7.18998e-09
5.66924e-09
5.86531e-09
-6.13326e-09
8.8894e-10
-6.20987e-10
9.37271e-09
-1.24685e-08
-8.96383e-09
1.20596e-08
-1.14389e-09
9.66606e-10
2.05605e-09
-1.87877e-09
4.41707e-10
-5.69921e-09
-2.10699e-10
5.4682e-09
2.79109e-09
-3.87884e-09
1.04444e-08
-2.35966e-09
3.60835e-09
-3.82698e-09
2.57829e-09
-1.49226e-08
1.63303e-08
-2.9287e-09
1.52102e-09
1.53325e-10
-1.84801e-09
-3.16152e-10
2.01083e-09
8.36025e-09
1.15658e-09
-1.73528e-09
-7.78155e-09
4.1069e-11
4.33508e-11
-8.44198e-11
-1.49498e-10
7.12695e-11
3.69987e-10
-2.91758e-10
-1.23135e-09
3.35063e-09
-1.89495e-08
1.68302e-08
-6.34556e-09
4.49797e-09
-5.12061e-10
-6.79022e-09
-2.19723e-08
5.57699e-09
2.31855e-08
1.73481e-09
-3.9516e-09
9.75574e-09
-7.53895e-09
6.84819e-09
-7.6266e-09
-1.95e-09
-2.55541e-09
1.27977e-09
1.84291e-10
7.67008e-09
-7.85437e-09
5.92195e-10
6.86617e-09
-7.45837e-09
-8.8317e-09
2.53144e-11
8.80639e-09
5.89903e-10
-1.46449e-08
-1.59523e-10
1.42145e-08
8.36494e-09
-5.90592e-09
4.14611e-10
-9.20131e-09
1.08351e-11
9.19048e-09
-9.09479e-09
1.11233e-11
9.08367e-09
-8.85099e-09
7.99699e-12
8.843e-09
1.07311e-08
-6.57158e-09
-4.15952e-09
-4.00094e-11
-1.7185e-08
1.72336e-08
-8.57251e-12
-3.96897e-11
-1.68459e-08
1.68934e-08
-7.8793e-12
-1.27087e-10
2.81287e-10
-1.25466e-09
1.10046e-09
6.43512e-10
6.10992e-09
-1.59106e-10
-6.59433e-09
-2.70714e-11
1.65982e-08
-7.38126e-12
-1.65637e-08
-8.83532e-09
1.46395e-12
8.83386e-09
4.47225e-10
-1.64816e-09
1.42779e-09
-2.26859e-10
-4.81553e-11
1.66033e-08
8.97913e-12
-1.65641e-08
1.58021e-08
-1.51266e-08
-1.03956e-09
3.64136e-10
-8.80535e-09
-2.4596e-12
8.80781e-09
1.61279e-09
-3.02278e-09
3.50458e-09
-2.09459e-09
2.72444e-10
1.63323e-08
-8.02695e-10
-1.50144e-09
4.83138e-10
2.63109e-09
-3.12156e-11
1.65904e-08
-1.23136e-11
-1.65468e-08
2.09841e-09
5.16711e-09
-4.29151e-09
-2.97401e-09
2.54754e-09
-2.31135e-09
1.92924e-09
-2.16542e-09
1.65893e-08
3.07534e-09
-3.33433e-09
5.8772e-10
-1.611e-09
1.4705e-09
-8.77396e-09
-2.31731e-12
8.77628e-09
2.63184e-10
-1.65325e-08
1.64161e-08
-1.46843e-10
-3.52225e-09
-8.73591e-09
3.26641e-09
8.99175e-09
-2.14682e-11
1.65595e-08
-2.38018e-11
-1.65143e-08
-7.8616e-09
5.41836e-09
-4.20816e-09
6.6514e-09
-1.72928e-11
1.70913e-08
-2.91416e-11
-1.70448e-08
-1.70035e-11
1.67542e-08
-2.86032e-11
-1.67086e-08
-2.69692e-09
-1.01158e-08
4.95109e-09
-1.76409e-11
1.65279e-08
-2.50497e-11
-1.64852e-08
-8.73774e-09
-4.81923e-12
8.74256e-09
-1.66564e-08
-9.82898e-10
6.41265e-10
1.6998e-08
-9.0937e-09
-3.78444e-12
9.09749e-09
-8.98984e-09
-3.57102e-12
8.99341e-09
1.40046e-09
-1.7098e-11
1.64838e-08
-2.85408e-11
-1.64382e-08
-1.9734e-11
1.70442e-08
-2.22282e-11
-1.70023e-08
-1.94563e-11
1.67079e-08
-2.20594e-11
-1.66664e-08
2.9491e-09
3.7039e-09
-4.55458e-09
5.16462e-09
4.12196e-09
-6.33748e-09
-6.17988e-12
1.73171e-08
-7.43478e-11
-1.72365e-08
-8.48504e-12
1.69745e-08
-7.00153e-11
-1.6896e-08
-3.47207e-09
1.51675e-09
-1.47272e-08
1.91072e-09
7.92779e-09
-2.64584e-09
-7.19268e-09
-1.2932e-08
3.70744e-09
-6.50822e-09
1.13881e-10
3.51156e-10
-4.11846e-10
-5.31901e-11
-9.39616e-12
-1.63958e-08
1.64391e-08
-3.38959e-11
-9.05842e-09
-1.06769e-12
9.05949e-09
-8.95511e-09
-1.03325e-12
8.95614e-09
-1.6345e-11
-1.69663e-08
1.70143e-08
-3.17029e-11
-1.60921e-11
-1.66295e-08
1.66774e-08
-3.18699e-11
3.85456e-11
-5.64225e-09
-2.54988e-10
5.85869e-09
-2.89981e-11
1.7214e-08
-1.71639e-08
-2.1074e-11
-2.85424e-11
1.68744e-08
-1.68252e-08
-2.06547e-11
7.10114e-09
1.11912e-08
-1.85532e-08
2.60829e-10
-8.72294e-09
-5.97786e-09
1.11785e-08
3.31593e-10
1.81007e-08
-1.74939e-08
-9.38392e-10
3.19173e-10
1.77384e-08
-1.71458e-08
-9.11694e-10
-9.02936e-09
-4.44633e-13
9.0298e-09
-8.92648e-09
-4.80603e-13
8.92696e-09
9.18215e-09
7.94095e-10
-6.43822e-10
6.12824e-09
-7.73969e-09
7.26634e-09
-5.65489e-09
-2.20363e-11
1.71858e-08
-1.71374e-08
-2.63088e-11
-2.16082e-11
1.68468e-08
-1.67993e-08
-2.59284e-11
3.66861e-09
-3.44053e-09
-4.76523e-10
2.4845e-10
5.10069e-10
2.19095e-09
-2.13359e-09
-5.67432e-10
-8.53409e-12
1.69505e-08
-1.40886e-11
-1.69278e-08
-9.09774e-12
1.66042e-08
-2.31945e-11
-1.65719e-08
-1.42534e-08
-4.5176e-09
1.58423e-08
-2.41189e-11
1.71604e-08
-1.71137e-08
-2.25891e-11
-2.37276e-11
1.6822e-08
-1.67762e-08
-2.21026e-11
4.44435e-09
3.89081e-09
-3.17053e-09
-1.90933e-11
1.71362e-08
-1.71058e-08
-1.13651e-11
-1.87559e-11
1.67984e-08
-1.67684e-08
-1.12333e-11
-6.16422e-10
-4.67986e-10
3.10353e-10
7.74055e-10
-5.24166e-09
4.13137e-09
5.12636e-09
-4.01607e-09
9.96936e-10
-3.96639e-10
-5.75626e-10
-2.46712e-11
-2.58411e-11
1.69688e-08
2.96966e-11
-1.69727e-08
-1.57975e-11
1.65754e-08
-4.81589e-12
-1.65548e-08
-8.56921e-12
1.63034e-08
-2.15174e-11
-1.62733e-08
-8.59914e-09
-7.00308e-12
8.60614e-09
3.4795e-09
2.42619e-09
-3.27435e-09
-2.63134e-09
-2.02326e-11
1.71295e-08
-1.61602e-11
-1.70931e-08
-1.99029e-11
1.67917e-08
-1.58122e-11
-1.6756e-08
-1.02357e-08
-1.2893e-08
1.18985e-08
3.0098e-10
-3.01383e-09
-4.1742e-11
2.75459e-09
-8.94877e-09
-1.16555e-11
8.96043e-09
-8.85024e-09
-1.05987e-11
8.86083e-09
-9.24132e-09
-9.13448e-09
8.71196e-10
1.90906e-09
-2.27019e-09
9.17795e-09
-8.62329e-09
-1.24845e-09
6.93784e-10
-4.51025e-09
-4.14668e-09
4.98214e-09
3.67478e-09
2.56821e-09
5.05397e-10
-2.77262e-09
-3.68128e-11
-1.69865e-08
1.70173e-08
5.98639e-12
-2.14884e-11
-1.65531e-08
1.65757e-08
-1.09759e-12
3.7375e-10
-9.87797e-10
-1.45126e-08
-8.87986e-09
-2.0076e-09
1.9417e-09
-7.91608e-12
1.628e-08
-1.10431e-11
-1.62611e-08
-8.94522e-09
8.97311e-09
-2.78851e-11
-8.92466e-09
8.88808e-09
3.65813e-11
-1.3308e-08
-3.5008e-09
-8.80795e-09
8.78088e-09
-8.56177e-09
-1.18294e-11
8.5736e-09
-9.74748e-10
8.04566e-10
4.48118e-10
-2.77935e-10
-4.08039e-09
-6.33966e-09
3.52705e-09
6.893e-09
-8.88221e-09
-8.92816e-09
4.66381e-12
8.92349e-09
-8.82682e-09
8.97702e-13
8.82592e-09
8.58834e-09
1.56575e-09
-1.79383e-09
1.58374e-08
-1.57369e-08
3.85285e-10
-4.85811e-10
-3.72552e-11
1.63154e-08
6.96346e-11
-1.63477e-08
-2.08192e-08
1.18976e-08
-8.85679e-09
-8.52469e-09
8.79671e-09
-2.72022e-10
-8.18243e-09
8.69925e-09
-5.16828e-10
7.35092e-10
1.71217e-09
-1.57607e-09
-1.80899e-08
5.6314e-09
-1.40664e-08
-1.76915e-08
5.42486e-09
-1.37097e-08
-1.70365e-08
5.23297e-09
-1.35674e-08
-7.42241e-12
1.64055e-08
-1.63656e-08
-3.25434e-11
-8.55002e-09
5.68081e-12
8.54434e-09
9.58852e-09
-9.31607e-09
1.05579e-08
1.07873e-09
-2.45864e-09
-8.08627e-11
1.64492e-08
1.88274e-11
-1.63871e-08
-8.82299e-09
-8.96971e-09
2.15942e-11
8.94812e-09
-8.8251e-09
8.25105e-12
8.81685e-09
-5.56087e-11
1.79476e-09
-1.15144e-09
-9.85769e-12
1.63797e-08
-1.63468e-08
-2.3056e-11
-3.71739e-09
6.16769e-09
3.0277e-09
-5.47799e-09
1.66742e-08
-1.72922e-08
-2.4564e-10
8.63604e-10
3.6333e-10
-1.64432e-10
-4.13025e-10
2.14127e-10
-8.92562e-12
1.69876e-08
-3.17517e-11
-1.69469e-08
-9.40485e-12
1.66495e-08
-3.17244e-11
-1.66083e-08
3.94297e-09
-5.82866e-10
3.08497e-10
-6.14654e-11
-8.88376e-09
5.38935e-12
-8.93005e-09
-9.23046e-09
9.22428e-09
-9.1215e-09
9.11301e-09
-8.79106e-09
-6.99679e-09
7.54914e-09
-5.52353e-10
-3.94848e-12
1.6356e-08
-1.63256e-08
-2.6475e-11
-4.86916e-11
-1.69772e-08
1.69644e-08
-1.44741e-10
-1.63738e-08
1.65239e-08
-8.697e-09
6.86137e-11
8.62839e-09
2.76909e-10
1.60188e-08
-4.58352e-10
-2.57054e-11
6.48525e-11
1.01381e-10
-1.40528e-10
-9.111e-09
-9.00684e-09
-2.28039e-09
3.97804e-09
8.31036e-09
6.25307e-10
1.46051e-09
-1.35072e-09
1.22181e-08
-1.30812e-08
2.7957e-09
-2.46301e-09
-7.65366e-09
7.32097e-09
-6.42211e-12
1.63337e-08
-2.42733e-11
-1.6303e-08
-4.12733e-10
-8.11196e-09
-7.83013e-09
-3.523e-10
-8.74714e-09
9.19374e-09
-9.22274e-09
9.088e-09
-9.11654e-09
-5.41311e-10
-1.5841e-08
1.59696e-08
-9.07816e-09
-8.97457e-09
-4.28387e-09
-8.74241e-09
8.06248e-09
4.96381e-09
-1.94151e-09
4.97826e-09
7.95338e-09
2.4661e-09
5.7767e-09
-5.8547e-09
-2.3881e-09
-9.19837e-09
9.17633e-09
-9.09252e-09
9.07092e-09
1.6981e-08
-1.67318e-08
-1.32863e-10
-1.16296e-10
-3.69606e-09
7.66776e-09
-6.54435e-09
2.57266e-09
-2.64182e-10
-6.73261e-09
-8.68238e-09
-1.0118e-10
8.78356e-09
4.14859e-09
-4.70956e-09
-8.16197e-09
2.59009e-10
1.6151e-08
-1.69926e-08
1.69053e-08
-3.13875e-10
4.01223e-10
9.15154e-09
-9.17566e-09
9.04643e-09
-9.07016e-09
-1.71061e-10
1.47493e-10
1.21152e-09
-1.18795e-09
-9.0457e-09
-8.94257e-09
3.1976e-10
-7.58914e-09
6.69785e-09
5.71532e-10
-3.67329e-10
1.82936e-08
3.92801e-10
-1.83191e-08
1.59001e-08
-1.25518e-08
-2.1087e-08
1.77387e-08
1.67966e-08
-1.23055e-08
-2.33617e-08
1.88705e-08
1.63869e-08
-1.20117e-08
-2.2885e-08
1.85099e-08
-1.67341e-08
-2.04459e-10
4.06184e-10
1.65324e-08
5.34423e-09
-7.32637e-09
-1.55815e-09
3.54028e-09
9.13501e-09
-9.15411e-09
9.0302e-09
-9.04896e-09
-1.51654e-08
1.56062e-08
-1.77644e-10
1.67813e-08
3.27992e-11
-5.6562e-11
-1.67576e-08
9.68431e-09
-9.35272e-09
9.55406e-09
-9.23489e-09
-9.57882e-09
1.16436e-08
-1.30385e-08
1.09738e-08
1.67606e-08
-1.04683e-11
3.1199e-11
-9.13845e-09
9.11821e-09
-9.03365e-09
9.01375e-09
2.45361e-10
-2.56964e-10
1.61128e-10
-9.24435e-11
-3.19685e-10
2.51e-10
-1.49478e-11
1.69953e-08
-1.79443e-11
-1.69624e-08
-3.57583e-11
1.65786e-08
1.97282e-11
-1.65626e-08
-1.62341e-08
1.62539e-08
1.09207e-11
-3.07703e-11
-1.67202e-08
1.66889e-08
-3.19799e-11
6.321e-11
3.46792e-11
1.37041e-11
-1.62824e-08
6.08165e-11
-2.03859e-11
2.44685e-10
3.02609e-10
-1.83964e-10
-1.62509e-08
1.62642e-08
1.38558e-12
-1.47023e-11
-1.66577e-08
1.66518e-08
-2.14404e-11
2.72991e-11
-6.93866e-09
7.18096e-09
2.55341e-09
-8.95731e-09
-8.85933e-09
-8.60771e-09
-4.01039e-11
-1.8252e-08
1.41948e-11
1.82779e-08
-2.32374e-09
8.09537e-09
-1.00555e-08
-1.62517e-08
1.62633e-08
-1.01539e-11
-1.47875e-12
-1.66324e-08
1.66403e-08
-1.56047e-11
7.73099e-12
1.40386e-09
-1.20738e-09
-3.67542e-10
-1.62471e-08
1.62569e-08
-8.67659e-12
-1.117e-12
-1.66174e-08
1.66142e-08
-1.33948e-11
1.65892e-11
4.5754e-10
-2.86438e-10
1.62438e-08
-1.62429e-08
-1.67464e-11
1.58608e-11
1.65788e-08
-1.65873e-08
-2.11911e-11
2.97367e-11
2.1415e-08
-8.28544e-09
-1.01352e-10
-2.62457e-11
2.92822e-11
4.68033e-11
-1.55771e-11
1.56146e-08
-8.49573e-11
-1.55697e-08
-8.71258e-09
8.70516e-09
-1.62011e-08
1.62074e-08
-2.56296e-11
1.93338e-11
-1.65246e-08
1.65281e-08
-2.71435e-11
2.36417e-11
1.57256e-08
2.51168e-12
-1.13553e-10
-8.954e-09
-8.84261e-09
-8.56969e-09
-1.61784e-08
1.61831e-08
-2.11947e-11
1.65159e-11
-1.64969e-08
1.65006e-08
-2.16489e-11
1.79585e-11
2.32757e-08
3.34392e-11
-2.35028e-09
-2.09588e-08
-1.17278e-08
2.28132e-08
-1.74251e-08
6.33959e-09
-1.36827e-08
2.3014e-08
-1.60341e-08
6.70281e-09
-1.34342e-08
2.25014e-08
-1.57427e-08
6.67545e-09
1.58088e-08
3.84692e-11
-1.21686e-10
-1.58659e-08
1.59153e-08
-7.35222e-11
2.42006e-11
-1.61505e-08
1.61614e-08
-2.19921e-11
1.10936e-11
-1.64675e-08
1.64786e-08
-2.21905e-11
1.11261e-11
8.67719e-09
-8.68704e-09
-1.61307e-08
1.61423e-08
-2.0157e-11
8.5127e-12
-1.64477e-08
1.64595e-08
-1.9987e-11
8.15355e-12
-2.81023e-12
1.53445e-11
1.63182e-11
3.09402e-12
1.59256e-08
-1.59193e-08
2.96618e-12
-9.29626e-12
-2.13494e-09
-7.69753e-09
7.36946e-09
-1.61124e-08
1.61192e-08
-3.02929e-11
2.34781e-11
-1.64292e-08
1.64359e-08
-3.03754e-11
2.36393e-11
4.41747e-10
-1.60747e-08
1.58944e-08
-1.58942e-08
1.56587e-11
-1.58285e-11
-4.89268e-09
3.99484e-09
2.09413e-08
4.45389e-11
-1.01635e-10
-1.60427e-08
1.60796e-08
-3.78225e-11
8.3109e-13
-1.63578e-08
1.63952e-08
-3.81413e-11
7.33314e-13
1.59283e-08
1.48581e-11
-2.79298e-11
-9.00652e-09
-8.84659e-09
-3.3376e-09
-2.32388e-10
1.29451e-10
-8.58727e-09
8.65255e-09
-8.6565e-09
-1.58546e-08
1.58643e-08
1.44711e-11
-2.42571e-11
-1.60243e-08
1.60644e-08
-2.45176e-11
-1.55746e-11
-1.63389e-08
1.63799e-08
-2.48195e-11
-1.61652e-11
1.62302e-08
-8.53071e-12
2.20874e-11
1.65583e-08
-9.46814e-12
2.99795e-11
6.56554e-12
9.60293e-12
1.60351e-11
6.84551e-12
-1.60238e-08
1.60456e-08
-2.2539e-11
7.96624e-13
-1.6339e-08
1.6361e-08
-2.26053e-11
5.68787e-13
-1.58107e-08
1.58289e-08
-8.62413e-13
-1.73634e-11
-1.60023e-08
1.6024e-08
-3.20992e-11
1.03879e-11
-1.6317e-08
1.63389e-08
-3.20781e-11
1.01756e-11
-1.57979e-08
1.58086e-08
1.59695e-11
-2.666e-11
-8.6322e-09
8.62578e-09
1.59152e-08
-6.00813e-12
1.63706e-11
8.99573e-09
-9.00466e-09
8.89358e-09
-8.90299e-09
-1.59501e-08
1.59909e-08
-2.67089e-11
-1.40285e-11
-1.62635e-08
1.63046e-08
-2.68955e-11
-1.42479e-11
-1.66426e-09
1.55686e-09
8.35788e-09
-8.25047e-09
-1.57471e-08
1.57668e-08
9.09627e-12
-2.88787e-11
-8.77786e-09
-1.59455e-08
1.59783e-08
-2.07929e-11
-1.19967e-11
-1.62581e-08
1.62909e-08
-2.11733e-11
-1.15403e-11
-2.45636e-09
1.14718e-09
-1.33357e-08
1.129e-11
2.71077e-12
2.87683e-11
-1.85427e-12
2.8204e-12
6.24278e-12
-5.7342e-10
5.95608e-10
-1.57026e-08
1.57264e-08
-1.02833e-14
-2.38148e-11
-3.68034e-09
-2.16534e-09
2.8229e-09
-1.61514e-08
1.59754e-08
1.64404e-10
1.1601e-11
-1.58418e-08
1.56702e-08
1.62621e-10
8.90608e-12
-1.48133e-08
-6.99068e-09
7.3464e-09
1.44575e-08
1.69649e-09
-7.94387e-09
-6.33652e-10
6.88104e-09
1.58836e-08
-1.13309e-11
2.20806e-11
-1.56637e-08
1.57005e-08
-1.28733e-11
-2.39019e-11
-1.56361e-08
1.56702e-08
-7.03216e-12
-2.70569e-11
-8.40547e-09
-1.56036e-08
1.56519e-08
-2.55483e-11
-2.27179e-11
-1.51942e-09
-5.86296e-09
1.33796e-09
6.04442e-09
-1.55933e-08
1.56519e-08
-5.55224e-11
-3.00841e-12
3.44402e-11
-5.31318e-12
4.10323e-11
-7.36524e-12
-7.66553e-09
7.22707e-09
-5.91947e-12
2.69425e-11
8.69583e-09
-1.05816e-08
1.45097e-08
-1.84082e-08
-6.03127e-09
1.58059e-08
-1.58328e-08
3.24695e-11
-1.03441e-11
5.76291e-09
2.72656e-09
-6.00972e-09
-2.47974e-09
1.28073e-08
7.33708e-09
-5.52305e-09
-1.46213e-08
3.14296e-11
-2.43324e-12
3.46691e-11
-3.50623e-12
-1.05018e-09
-8.13808e-09
5.64971e-10
5.17578e-09
-1.40705e-08
1.65078e-08
-7.61312e-09
1.39676e-10
-1.67278e-10
-1.76403e-10
2.04004e-10
1.90894e-10
-8.91332e-10
8.40158e-11
-1.60736e-08
4.10938e-11
-1.01914e-11
-1.63892e-08
4.19741e-11
-1.05144e-11
-6.89129e-12
3.59635e-11
-1.84466e-10
1.26284e-10
-1.57696e-08
3.5995e-11
-1.34583e-11
3.04554e-11
2.11961e-12
3.17055e-11
1.42777e-12
4.37129e-10
-3.12502e-10
-2.74125e-10
-9.00592e-09
8.99097e-09
-8.87001e-09
8.83425e-09
1.41297e-09
-1.77312e-08
-9.7391e-10
-1.6035e-08
1.33331e-11
-2.66649e-12
-1.63496e-08
1.37443e-11
-3.05121e-12
3.87626e-10
-4.41907e-09
-8.26115e-10
-2.25097e-12
3.37799e-11
-1.87006e-08
2.11915e-10
1.86357e-08
-1.47065e-10
2.63047e-10
5.26481e-09
-1.40678e-08
8.5399e-09
1.20527e-09
-1.6014e-09
-5.06374e-09
5.45987e-09
-1.57267e-08
3.64834e-11
-1.24215e-11
-1.82587e-08
2.33993e-10
-2.27275e-10
3.67585e-10
-4.18135e-10
2.54231e-11
5.33348e-12
2.58901e-11
4.99493e-12
-1.48665e-08
-7.12468e-10
1.88323e-08
-1.56884e-08
3.49508e-11
-1.02279e-11
2.82354e-12
2.8165e-11
2.9904e-11
2.68489e-14
3.03373e-11
-1.01906e-15
7.81111e-09
-1.91969e-09
3.25928e-11
3.08977e-09
1.82927e-08
-1.5966e-08
2.19738e-11
-6.07523e-12
-1.62796e-08
2.25055e-11
-6.35889e-12
1.31572e-08
-1.39602e-08
-3.77394e-09
4.57695e-09
-1.56603e-08
3.6655e-11
-1.23881e-11
1.85303e-12
3.71697e-11
5.11183e-11
-5.48978e-12
5.2181e-11
-5.50063e-12
3.19677e-10
3.3306e-10
-4.08052e-10
7.46705e-09
-1.09903e-09
-1.15953e-09
-5.20848e-09
-1.56283e-08
2.8294e-11
-3.62913e-12
-5.27383e-09
3.98059e-09
-5.18047e-09
3.87581e-09
-4.89655e-09
3.76017e-09
2.97692e-10
-1.86866e-10
1.03118e-09
-1.14201e-09
-1.61426e-09
6.55553e-10
1.86971e-08
-1.66611e-09
6.87026e-10
1.90798e-08
-4.4032e-10
-1.06119e-09
2.68036e-10
1.23347e-09
3.27676e-12
3.68931e-11
2.86609e-11
1.60321e-11
2.94691e-11
1.61365e-11
-1.59067e-08
1.89779e-11
4.59535e-11
-1.62179e-08
2.06368e-11
4.58467e-11
1.7776e-09
-1.75116e-09
-7.43141e-10
7.16704e-10
-1.20258e-08
8.22389e-09
9.66664e-09
-8.8546e-09
-8.12039e-10
-8.24378e-09
7.68427e-09
-1.4308e-09
6.99727e-10
1.14038e-08
-1.06727e-08
-2.93188e-10
1.21877e-10
-3.05252e-10
1.28444e-10
-5.89852e-11
-8.39103e-09
4.22638e-10
8.02737e-09
-1.56166e-08
1.66643e-11
6.6236e-12
-1.85591e-11
4.75808e-11
-1.79104e-11
4.64833e-11
1.41642e-08
-2.28627e-08
3.9236e-09
4.77491e-09
1.38775e-08
-2.23881e-08
3.86153e-09
4.64907e-09
1.22543e-08
-1.70534e-08
9.98422e-11
4.69925e-09
-8.74465e-10
2.44371e-10
1.12075e-09
-4.90653e-10
-2.45583e-11
4.64049e-11
-2.40253e-11
4.56224e-11
-2.3859e-11
4.6825e-11
-2.34038e-11
4.6094e-11
-1.8144e-11
4.06513e-11
-1.77406e-11
3.99549e-11
-1.21779e-11
3.58923e-11
-1.18976e-11
3.52071e-11
7.79195e-12
3.02088e-11
2.53289e-11
1.5225e-11
2.60489e-11
1.48465e-11
1.70018e-08
-1.12758e-08
7.1848e-09
-1.29108e-08
1.66472e-08
-1.10571e-08
7.06125e-09
-1.26513e-08
-1.20253e-08
-1.18239e-08
-1.15685e-08
-3.20983e-09
-2.22007e-08
2.70841e-08
-1.67353e-09
4.99705e-11
-2.86539e-11
4.89869e-11
-2.89962e-11
-1.81455e-08
6.54387e-09
1.50072e-08
-3.40557e-09
2.73112e-09
8.68178e-09
-6.85349e-09
-4.5594e-09
1.41764e-09
-1.18326e-09
3.90933e-10
3.49885e-11
8.28727e-12
3.55615e-11
8.45393e-12
3.81429e-10
5.31563e-10
-5.93315e-10
1.54597e-08
-1.66911e-08
1.47573e-08
7.02428e-10
1.43814e-10
1.73645e-09
-2.82978e-10
1.55534e-11
-6.78626e-12
1.23386e-11
1.32184e-11
1.13045e-11
2.88349e-11
-3.86162e-09
3.82998e-09
-7.23738e-09
7.26903e-09
-8.05859e-09
-1.56567e-10
-1.61854e-09
9.8337e-09
-5.91234e-09
2.56022e-09
6.08323e-09
-1.94536e-08
-5.07523e-09
-1.90459e-08
-4.95638e-09
-3.22636e-11
4.19779e-11
-2.12745e-11
3.5395e-11
-4.67482e-09
6.7726e-09
-6.3626e-09
4.23228e-11
1.56543e-11
4.32999e-11
1.59542e-11
-2.52647e-11
3.44898e-11
-1.84872e-08
1.86543e-08
1.24589e-09
3.07266e-11
-2.26291e-11
-1.61191e-09
2.52498e-09
1.39597e-09
-2.30904e-09
-3.73268e-11
2.47154e-09
7.82099e-10
7.27937e-10
-1.15406e-09
-3.55976e-10
5.22036e-10
-5.19056e-10
-4.28089e-10
4.25109e-10
1.19656e-09
-1.4686e-09
-2.46879e-09
2.74083e-09
-1.05577e-08
-2.41204e-09
-4.28403e-09
-7.17061e-09
4.64834e-09
6.8063e-09
-8.23026e-09
1.33871e-11
2.84894e-11
-1.81227e-08
8.6437e-11
1.011e-09
-4.77028e-09
-6.13794e-10
4.37308e-09
1.03834e-08
-2.60273e-09
-9.57063e-09
1.78995e-09
-4.98789e-09
6.63531e-09
1.71407e-08
-1.87881e-08
-2.85918e-10
3.69393e-10
2.49586e-10
4.61671e-10
1.83393e-08
-1.847e-08
-7.33048e-10
8.69087e-10
-7.72518e-09
2.65909e-11
1.87942e-11
2.8294e-11
1.81856e-11
-7.87572e-09
-1.73881e-10
-8.99151e-12
-1.64229e-08
1.77316e-08
-2.93484e-09
1.62614e-09
3.65586e-10
-4.87482e-09
3.769e-09
7.4023e-10
-1.56213e-08
-1.0015e-10
1.56041e-08
1.17314e-10
-7.74984e-09
-5.34677e-09
5.71133e-09
7.38528e-09
-1.71939e-09
1.02076e-09
-1.75834e-10
-1.64259e-09
-2.4811e-10
1.71314e-10
1.95799e-09
-1.80925e-08
-1.59672e-09
2.30027e-09
-7.27323e-09
-3.74219e-10
5.34718e-09
-1.12725e-11
1.72557e-08
-1.02244e-11
1.69148e-08
2.20503e-11
1.32039e-11
-1.12488e-08
-4.66602e-09
2.98285e-09
-4.30157e-09
7.10809e-09
-7.09054e-09
2.25576e-11
4.90269e-11
2.38748e-11
4.91231e-11
3.16679e-11
1.23346e-09
-8.33143e-09
-1.33075e-09
8.41373e-09
-4.26015e-09
7.14861e-09
-7.19004e-09
-6.44489e-12
1.66048e-08
-1.65055e-09
2.59911e-11
1.66026e-08
-3.61561e-09
5.47803e-09
1.17195e-08
-1.35819e-08
9.66215e-09
6.20982e-10
-7.98286e-09
-1.77858e-11
1.65788e-08
-3.05264e-11
1.7118e-08
-2.99102e-11
1.67805e-08
-1.13045e-08
-3.34871e-09
1.10376e-08
2.73284e-09
8.7011e-10
-2.40638e-09
-2.50336e-11
1.67319e-08
-2.53329e-11
1.70685e-08
-2.25075e-11
1.65479e-08
-2.08781e-11
1.66978e-08
-2.06815e-11
1.70346e-08
5.23546e-09
-4.793e-09
7.62809e-10
-2.94864e-11
1.66231e-08
-2.60351e-11
1.69648e-08
-1.01516e-11
1.65865e-08
1.64498e-11
1.6957e-08
3.67896e-12
1.65802e-08
2.62833e-11
1.70127e-08
-2.46841e-11
1.65062e-08
-4.10126e-09
6.68823e-09
-6.84711e-09
9.41927e-11
-4.93708e-10
-5.18991e-10
-2.83266e-10
4.78398e-10
3.23858e-10
-1.66134e-09
1.08882e-08
-1.06576e-08
-2.76814e-11
1.6462e-08
3.29543e-10
-1.17816e-10
5.70519e-11
3.81733e-09
1.23603e-09
-4.04236e-09
-1.83987e-08
9.14945e-11
-1.53796e-08
-4.7569e-10
1.54879e-08
-1.92725e-08
-1.11948e-09
-1.88688e-08
-1.08882e-09
1.27456e-10
-8.91489e-09
9.23802e-09
-4.50584e-10
1.518e-09
8.08516e-09
-1.00364e-08
1.21555e-08
9.46905e-09
-1.15881e-08
1.91609e-10
-3.00817e-10
-1.18185e-10
2.27393e-10
-1.79787e-11
1.63143e-08
-2.178e-11
1.629e-08
2.9135e-11
1.62919e-08
7.84429e-11
-1.65328e-09
2.88193e-10
1.28664e-09
-3.22989e-10
1.62406e-08
1.0198e-10
1.64158e-08
1.30288e-08
-1.28554e-08
-7.90334e-09
7.72993e-09
9.24289e-09
9.47184e-09
-6.32715e-09
1.05259e-08
-1.0715e-08
8.88755e-10
-3.17423e-10
1.79861e-10
-8.02319e-09
-2.28294e-09
2.07737e-09
8.22875e-09
8.10089e-09
-1.03154e-08
9.96822e-09
-7.75371e-09
-7.80673e-09
1.40343e-11
9.38282e-10
4.038e-11
-9.92696e-10
-2.55154e-09
1.68492e-09
2.74443e-09
-1.87781e-09
-6.9831e-09
1.80967e-09
4.17303e-11
5.1317e-09
3.27175e-09
-3.04563e-09
-3.2783e-09
3.05219e-09
-2.09088e-08
1.80937e-08
2.8151e-09
6.35026e-09
3.81266e-09
-3.09617e-09
-7.06675e-09
-1.54368e-09
-1.76266e-08
1.81307e-08
2.08299e-10
3.08477e-09
1.8051e-09
-1.63464e-09
-3.25522e-09
8.26768e-09
5.97686e-09
-1.05257e-08
-9.45533e-09
7.63816e-09
1.23429e-08
2.1061e-09
-1.32651e-08
2.40823e-10
1.18434e-10
-1.50957e-10
8.24655e-09
-8.84125e-09
1.57939e-08
-7.12588e-09
6.68047e-09
5.82485e-09
-5.37944e-09
3.06076e-10
-7.81724e-09
-4.84404e-10
7.99557e-09
-9.50891e-09
1.86296e-09
-2.36914e-09
1.00151e-08
-4.75388e-10
7.69883e-09
-7.86824e-09
6.44798e-10
-1.17197e-10
5.81274e-09
-7.37826e-09
-6.18432e-09
-9.68271e-09
9.54985e-09
5.03731e-09
-4.39247e-09
-4.7461e-09
2.71088e-10
-6.3274e-10
5.40814e-10
-1.79162e-10
-1.76148e-08
9.23681e-10
3.21573e-09
-4.61708e-10
-4.11514e-09
1.36112e-09
1.96001e-09
-2.00104e-09
8.35857e-10
-7.94829e-10
-1.27059e-08
1.74076e-08
-1.01573e-08
5.45557e-09
2.06654e-10
4.1099e-10
7.08376e-09
-7.70141e-09
-1.79649e-09
5.58836e-09
2.27398e-09
-6.06586e-09
4.00758e-09
2.82115e-09
-3.15782e-09
-3.6709e-09
8.07768e-10
3.88123e-09
-8.71671e-10
-3.39215e-09
-8.68425e-09
2.56748e-09
4.0279e-11
-1.84463e-08
-9.92133e-11
1.5019e-10
-5.09769e-11
6.59649e-11
-3.53453e-11
-3.3309e-09
-3.56714e-10
4.26446e-10
3.26117e-09
2.56383e-09
-1.35349e-08
1.55902e-09
-1.80729e-08
4.03743e-10
-1.88157e-08
-2.88643e-10
-5.70994e-10
-1.13643e-08
1.14781e-08
4.57159e-10
-7.4974e-10
4.30104e-10
5.90723e-10
8.02294e-09
-4.33627e-10
6.31551e-10
-8.22086e-09
1.29434e-09
-1.13597e-09
1.80164e-09
8.1139e-10
3.78626e-09
-7.05604e-09
2.45839e-09
-2.10164e-10
2.38056e-10
-2.78913e-11
-9.54706e-11
1.41285e-10
3.23578e-10
-2.37001e-09
-1.79343e-09
-2.02196e-09
9.93676e-11
-1.4585e-09
-6.28297e-10
5.17156e-09
-4.22997e-09
8.69145e-09
-1.15874e-08
-4.16064e-10
5.98328e-10
-3.60512e-10
1.78248e-10
-8.35034e-09
8.04472e-09
7.77166e-10
-4.71544e-10
-6.04416e-10
-1.09378e-09
-9.48344e-09
-1.18343e-09
1.25298e-08
8.97901e-09
-9.29288e-09
-3.28173e-10
-7.30895e-10
1.94812e-10
-9.66571e-11
-5.19194e-10
-2.97486e-10
-7.72016e-09
6.53578e-10
8.35291e-11
2.76846e-11
-8.42109e-10
-1.32048e-08
7.37234e-09
4.89569e-09
-4.28996e-09
9.81055e-09
-1.04163e-08
-2.46361e-08
1.78459e-08
-1.0716e-09
2.54818e-09
5.89709e-09
-7.37367e-09
-5.26466e-11
-4.65667e-11
-7.24443e-09
9.46497e-09
-2.22054e-09
-6.07966e-10
7.15295e-10
9.49815e-10
-1.05714e-09
-7.86785e-09
7.92554e-09
-2.04768e-10
1.47079e-10
2.26319e-09
2.71138e-09
-2.35095e-09
-2.62362e-09
-7.35835e-10
1.09947e-08
-6.66721e-10
-9.59212e-09
-1.04074e-09
9.20733e-10
-4.87963e-10
1.19606e-09
-1.91894e-09
5.05439e-09
-4.76913e-09
8.19196e-09
-8.47723e-09
-3.02151e-09
1.01162e-08
-7.09467e-09
-4.23758e-10
1.51375e-09
3.7137e-10
-1.46136e-09
-7.89352e-09
-1.35281e-09
1.22315e-09
1.75312e-09
-1.90666e-09
-9.45713e-11
-1.88941e-08
-2.67906e-10
-1.93002e-08
-2.77526e-10
3.95426e-09
4.25365e-09
-4.08595e-09
1.337e-09
-1.24472e-08
1.32163e-08
-7.88153e-09
3.98993e-10
8.76985e-09
-7.0581e-09
-8.29766e-09
6.58592e-09
-7.24839e-11
7.7375e-10
-4.89466e-10
-2.118e-10
3.46361e-09
-1.24489e-09
5.14116e-10
3.82469e-09
-3.98882e-09
6.63805e-09
-6.47392e-09
6.05227e-09
-7.32294e-09
-8.70248e-09
5.34143e-10
-1.90036e-08
1.8927e-08
9.01781e-10
-9.81947e-10
7.95462e-10
-3.32213e-10
-7.96565e-09
8.12398e-09
2.74129e-09
-2.18306e-09
5.98399e-10
2.45477e-09
2.97379e-10
3.47917e-09
-1.51335e-09
-4.52867e-10
-1.62417e-09
2.84856e-09
-2.94084e-09
2.35104e-09
-2.25876e-09
1.55201e-09
2.52799e-11
-3.19516e-09
4.25737e-09
-3.01892e-09
1.95671e-09
4.82434e-10
2.54726e-10
-1.96346e-10
4.22637e-10
7.2672e-09
-8.14545e-09
3.75405e-10
2.8741e-09
1.9451e-09
-1.35559e-09
-3.579e-10
2.63394e-10
3.17011e-09
-3.0756e-09
-9.80939e-10
7.75665e-10
-1.97779e-09
-7.91137e-09
-5.66291e-10
4.29522e-09
1.10639e-09
-1.15911e-09
-4.2425e-09
5.18943e-10
-2.9505e-09
2.28888e-09
1.42684e-10
4.71402e-10
-3.81835e-10
6.03654e-10
-6.93221e-10
-4.51603e-09
4.69912e-09
4.28446e-10
5.43416e-09
-2.07634e-09
5.88041e-11
6.44599e-09
-1.26933e-09
3.40081e-10
-7.88984e-09
-3.61616e-10
1.88123e-09
2.02288e-09
-3.06826e-09
-8.28938e-09
-1.09223e-09
-1.99214e-09
-1.25567e-08
8.05355e-09
1.34756e-09
4.54383e-10
1.07992e-08
-1.27489e-08
1.37865e-09
-1.28244e-09
3.25013e-09
-2.32558e-09
-6.9294e-09
7.2459e-09
5.49624e-09
-2.64218e-09
1.98964e-10
-5.98614e-09
-4.54593e-09
1.03331e-08
-8.09226e-10
2.54299e-10
-2.03176e-09
1.9725e-09
-1.80333e-08
-1.00885e-09
8.97096e-09
1.39438e-09
-1.434e-09
1.05507e-08
1.68252e-09
-7.71637e-09
7.42399e-09
8.45968e-10
-3.3691e-09
-8.58511e-09
-2.78808e-11
3.63557e-10
8.24943e-09
7.10674e-10
4.58548e-10
-7.26389e-10
-2.56731e-10
-2.04558e-09
-6.48198e-10
1.8208e-09
-1.78613e-09
2.70976e-09
-8.37816e-10
1.12119e-10
8.462e-10
-6.95649e-10
-5.4719e-10
-7.64284e-09
-1.51702e-09
1.02178e-09
-3.89725e-10
4.10687e-10
1.69121e-09
-1.01377e-08
7.25013e-10
7.91389e-09
1.49879e-09
9.07195e-09
-4.16566e-09
-9.13626e-09
2.91498e-10
-5.88538e-11
1.9583e-09
-6.93194e-10
-1.42058e-10
4.19188e-10
2.86287e-09
9.61238e-11
-8.90153e-09
-3.7927e-09
1.19584e-08
5.35673e-09
3.69839e-09
1.59255e-10
5.6581e-10
-7.97549e-10
-9.54095e-09
8.43346e-09
9.87733e-09
-6.27683e-09
-2.29066e-09
2.18742e-09
6.38007e-09
9.29454e-09
-9.46805e-10
-6.95949e-10
-8.44295e-14
-1.41782e-10
-7.72661e-09
1.64834e-10
3.77737e-09
5.61434e-11
-4.45028e-09
-5.01369e-09
4.64312e-09
4.82085e-09
8.42098e-09
1.34117e-10
-4.99379e-11
-8.41787e-11
-1.06616e-10
2.60731e-10
-6.01538e-10
-1.13538e-09
6.96185e-10
-7.00498e-09
-2.71476e-09
7.64134e-09
2.0784e-09
-2.5954e-09
4.71914e-09
8.17502e-10
-2.94124e-09
2.31261e-10
-2.61631e-10
2.59409e-10
-2.29039e-10
-1.28931e-08
1.05509e-08
2.19101e-10
2.1231e-09
-1.80734e-08
1.80136e-08
8.68575e-10
-4.80888e-10
4.20329e-10
-8.08015e-10
3.07415e-09
-8.86109e-09
-7.10615e-09
1.22264e-09
4.69382e-09
-4.96164e-09
-9.54824e-10
7.55375e-10
-6.74547e-10
-6.05953e-10
5.25125e-10
-6.77747e-09
-4.67779e-09
2.39588e-10
-8.93981e-11
-3.64804e-10
2.47044e-10
5.89162e-10
-5.82487e-10
7.49779e-10
9.12725e-09
-9.49702e-10
8.86311e-09
7.7262e-09
1.19097e-09
-8.09255e-09
-8.24624e-10
-1.41146e-09
3.68534e-09
1.97976e-09
-6.04482e-09
5.13152e-09
-5.21902e-11
1.86307e-10
-2.90893e-09
7.12064e-10
3.04283e-09
3.66429e-10
2.00854e-11
-3.86515e-10
7.10528e-09
-6.96292e-09
3.99289e-09
-4.68375e-10
7.95374e-09
-4.49295e-10
-7.93807e-09
1.79517e-10
-9.93298e-11
-2.61314e-10
1.81126e-10
1.81084e-09
1.19737e-09
-1.05846e-09
-1.3891e-10
-4.95731e-09
5.47688e-09
-5.19562e-10
-8.07467e-10
1.11954e-10
3.51659e-09
-2.82107e-09
-7.59566e-11
-1.41591e-09
6.07266e-09
2.19144e-09
2.94753e-10
1.57644e-09
-1.12598e-08
9.96055e-10
1.16007e-08
-1.84545e-08
-3.73146e-11
4.54801e-11
-1.31935e-09
5.35207e-09
-5.82921e-09
-4.52082e-10
-1.35526e-10
-7.139e-09
-1.21571e-09
-6.98228e-09
7.18125e-09
-1.45086e-09
1.35712e-09
2.32505e-10
-1.38758e-10
-8.28709e-09
-3.02728e-09
4.25626e-09
-8.17724e-10
6.14604e-10
9.55981e-09
-4.58927e-09
-3.68046e-10
4.11588e-09
4.4858e-09
-4.77699e-09
-2.99577e-09
2.69609e-10
2.72616e-09
1.06323e-09
-7.62369e-09
1.61935e-09
1.55622e-09
-3.81556e-09
4.20318e-09
-6.24555e-09
-9.98875e-10
1.42891e-08
-8.90662e-09
-1.3243e-08