/*--------------------------------*- C++ -*----------------------------------*\
  =========                 |
  \\      /  F ield         | OpenFOAM: The Open Source CFD Toolbox
   \\    /   O peration     | Website:  https://openfoam.org
    \\  /    A nd           | Version:  8
     \\/     M anipulation  |
\*---------------------------------------------------------------------------*/
FoamFile
{
    version     2.0;
    format      ascii;
    class       surfaceScalarField;
    location    "9";
    object      phi;
}
// * * * * * * * * * * * * * * * * * * * * * * * * * * * * * * * * * * * * * //

dimensions      [0 3 -1 0 0 0 0];

internalField   nonuniform List<scalar> 
15173
(
6.65716e-09
-5.86361e-09
-2.28358e-10
-5.65193e-10
5.07291e-09
-1.59755e-10
9.91255e-11
-5.01228e-09
-3.45495e-11
5.22989e-09
-5.18164e-09
-1.37015e-11
8.52657e-09
-3.72364e-10
6.49768e-10
-8.80397e-09
-6.16102e-09
6.4672e-09
-2.50914e-10
-5.52754e-11
7.50218e-10
-9.28271e-09
9.06076e-09
-5.28273e-10
-4.297e-09
-7.8459e-10
1.14465e-09
3.93694e-09
5.40879e-09
-5.43102e-09
4.06721e-10
-3.84485e-10
-2.0397e-09
2.1647e-09
6.30293e-11
-1.8803e-10
7.0177e-10
-3.36768e-10
4.58621e-09
-4.95121e-09
5.22611e-09
-5.25424e-09
6.85597e-11
-4.04299e-11
6.95116e-09
-7.46642e-11
-2.1933e-10
-2.57669e-09
2.46319e-09
-1.8617e-09
1.9752e-09
5.20456e-09
-5.1666e-09
2.95983e-10
-3.33945e-10
-4.80156e-09
5.06097e-09
5.92007e-11
-3.18604e-10
2.52185e-09
-2.78328e-09
2.61428e-10
5.20393e-09
1.13546e-10
-9.13624e-11
-3.97006e-10
-1.29615e-10
-4.27494e-09
8.1721e-10
-7.39008e-10
-7.82018e-11
-2.86966e-09
-8.83649e-10
1.37117e-09
2.38213e-09
2.07494e-09
-4.83096e-11
-2.10159e-09
7.49558e-11
-3.27671e-09
2.91116e-09
3.17545e-09
-2.8099e-09
-5.2428e-09
4.54161e-11
-5.68586e-11
6.11035e-09
4.40258e-10
-6.3328e-09
-2.17805e-10
7.07031e-09
6.51448e-10
-7.27434e-10
-6.99432e-09
-1.53022e-10
4.95671e-11
-5.5542e-11
1.58997e-10
5.21335e-09
-7.43076e-09
2.74798e-09
-5.30577e-10
-1.97252e-09
3.51341e-09
-2.24226e-09
7.01377e-10
8.00575e-09
-6.02587e-09
5.0604e-10
-2.48593e-09
-2.77042e-10
8.30202e-10
7.97341e-09
-5.96675e-09
-5.08906e-09
7.75228e-09
3.30353e-09
6.01523e-09
4.90483e-10
-8.45398e-11
-6.42118e-09
7.77038e-09
2.67064e-09
-8.83339e-09
-1.60763e-09
8.64053e-10
-1.23214e-09
5.36265e-09
-4.99456e-09
4.89408e-09
1.48142e-10
-4.92606e-09
-1.16163e-10
4.89869e-09
1.43232e-09
-6.33729e-09
6.2715e-12
4.94756e-09
-5.10196e-09
-9.4184e-11
2.48581e-10
-5.19327e-09
-6.90687e-09
3.12749e-09
8.97264e-09
-1.27343e-09
-8.70376e-09
8.30815e-09
1.66905e-09
-6.36958e-09
1.79832e-09
-2.82752e-10
4.85401e-09
5.16229e-09
-1.1052e-10
9.19854e-12
5.3536e-09
6.88425e-10
-5.06762e-10
-5.53526e-09
-6.56283e-09
6.52232e-09
-7.80348e-12
4.83186e-11
5.02409e-09
1.18984e-11
3.69227e-11
-1.84395e-09
1.92867e-10
-3.88614e-10
-3.59642e-09
1.7895e-10
-2.96028e-10
3.7135e-09
-1.29016e-10
9.0781e-11
2.74267e-09
1.61563e-10
-3.72804e-09
8.23807e-10
-5.64599e-09
-6.7086e-11
5.67853e-09
-1.16176e-10
2.99234e-10
-2.7138e-10
8.83218e-11
-1.69628e-09
-2.5551e-09
1.6747e-09
4.94517e-09
1.2729e-10
-4.8367e-11
6.23398e-09
2.94585e-10
-5.89122e-09
-6.37341e-10
6.71344e-10
-5.79548e-09
5.96935e-09
-8.45215e-10
-8.68388e-09
2.19109e-09
6.72623e-09
-2.33445e-10
8.03453e-10
-7.30483e-10
5.73612e-11
-1.30331e-10
-8.54883e-10
7.25534e-10
-2.92105e-09
3.0504e-09
5.26275e-10
-5.40487e-09
8.55729e-10
4.02287e-09
-6.45962e-09
6.57871e-09
-2.04032e-10
8.49408e-11
-1.69679e-09
-7.4821e-10
1.82792e-09
6.17077e-10
6.44421e-09
-6.50287e-09
-3.46317e-11
9.32846e-11
-7.13163e-09
6.29557e-09
3.52193e-09
-2.68586e-09
-1.91314e-09
3.68946e-09
-3.64987e-09
1.87355e-09
3.66541e-09
4.99253e-09
-1.5795e-09
-7.07845e-09
-7.5241e-09
1.53392e-10
4.39324e-10
6.93138e-09
2.8306e-11
7.1288e-09
-6.67381e-11
-7.09037e-09
6.52715e-09
-6.51639e-09
1.75454e-11
-1.03599e-10
-5.96904e-10
8.26582e-11
6.17845e-10
1.99946e-09
-6.08845e-10
-5.68761e-09
7.53241e-11
-4.65625e-11
6.41545e-09
2.69619e-09
-2.62629e-09
-2.39019e-09
2.3203e-09
5.25176e-09
-1.99799e-10
-5.19695e-09
1.44997e-10
-3.36649e-10
1.23296e-09
7.23461e-09
-8.13092e-09
-1.68344e-09
8.89943e-10
-9.0329e-10
2.68047e-09
2.06545e-09
-2.04973e-09
-3.82385e-09
3.78475e-09
3.90937e-11
2.94419e-12
-1.66006e-11
-6.54917e-09
-5.03873e-11
6.98372e-11
-1.37586e-10
-5.54235e-09
6.44712e-10
5.03522e-09
-2.21591e-09
4.25846e-09
7.31414e-09
-3.48476e-09
-3.46673e-09
4.40372e-09
2.54776e-09
-7.16518e-09
7.39719e-09
-3.40225e-10
1.08215e-10
-1.01189e-09
8.96905e-10
-5.05161e-09
-3.59973e-09
4.51017e-09
3.5307e-09
-4.44113e-09
4.35402e-09
-4.00813e-09
-3.45889e-10
5.03434e-09
-1.21045e-10
-3.66555e-09
-1.24774e-09
2.09792e-09
3.89014e-09
-3.90215e-09
-2.08591e-09
-6.38356e-09
6.40874e-09
-3.10377e-11
5.85824e-12
-5.24473e-09
2.9289e-09
-2.63681e-09
4.95264e-09
1.85445e-09
-3.41612e-09
-5.68673e-10
2.13034e-09
1.70086e-09
5.79447e-11
3.16141e-10
-4.99672e-09
5.01328e-09
1.88622e-11
-3.54171e-11
7.00957e-11
4.86291e-10
-8.71855e-11
-4.69201e-10
-6.4171e-09
-5.36364e-09
5.81399e-09
1.34203e-09
4.43423e-09
-4.15942e-09
-1.61684e-09
-4.96212e-09
2.41335e-09
-4.67046e-09
7.21923e-09
-1.86155e-10
6.35274e-10
-4.89598e-10
4.04796e-11
3.35506e-09
-5.28774e-09
-3.12705e-09
5.05973e-09
-3.20556e-09
3.32409e-09
2.42301e-09
-2.54154e-09
2.43898e-11
-3.84824e-09
6.52487e-09
1.40975e-09
-1.74982e-09
-6.1848e-09
6.44267e-09
-3.35525e-09
-4.15112e-09
1.0637e-09
4.81239e-09
1.64349e-09
-2.13875e-09
-4.31713e-09
7.95406e-09
8.72815e-10
-7.32672e-09
-1.50016e-09
3.11154e-09
2.685e-10
-6.80349e-10
-2.69969e-09
7.70747e-09
-8.04411e-09
-4.23622e-10
6.92238e-11
4.24494e-10
-2.59986e-09
-2.58387e-09
2.55744e-09
5.5642e-09
-4.79787e-09
-4.67842e-09
3.91209e-09
-4.73668e-09
4.632e-09
1.969e-10
-9.2222e-11
5.72945e-09
-5.46807e-09
4.9566e-09
-5.21798e-09
-1.90476e-09
1.70318e-09
4.81502e-09
-4.61344e-09
-7.38415e-09
-2.65201e-09
2.90453e-09
5.32836e-09
-9.24712e-11
6.75836e-12
-5.24265e-09
2.86232e-09
-3.90875e-10
1.30535e-09
-3.77679e-09
6.7173e-09
-1.2937e-11
-6.47269e-11
-6.63964e-09
-5.71493e-09
-2.69924e-09
3.16944e-09
-6.94434e-09
5.7624e-11
6.92625e-09
-3.95332e-11
-1.31946e-10
9.91844e-10
2.25164e-09
-4.91148e-09
4.94066e-09
3.33399e-11
-6.25162e-11
-7.59801e-10
-5.46251e-09
6.12962e-11
-6.58487e-09
-6.09918e-10
8.12213e-10
6.38258e-09
1.91114e-10
5.35523e-09
-4.33668e-10
-5.11268e-09
2.96752e-10
5.90127e-09
-6.05241e-09
-1.4561e-10
3.92861e-09
-3.47078e-09
-1.66534e-09
1.20751e-09
-3.1606e-09
1.48696e-11
2.29085e-09
-5.48762e-09
-3.51991e-10
4.93994e-09
8.99667e-10
-7.10716e-10
7.96125e-10
-4.14712e-09
4.06171e-09
-1.48375e-09
6.44298e-10
-4.14955e-09
4.989e-09
1.14099e-09
-8.97812e-09
8.58735e-09
-4.97451e-09
3.48266e-11
-5.70385e-11
3.266e-09
-2.51791e-09
1.80328e-09
-2.55137e-09
1.68047e-09
-1.11562e-09
-3.61527e-09
3.05042e-09
-6.25852e-09
-8.57285e-10
6.356e-09
-4.94615e-09
-1.96652e-10
4.99936e-11
5.09281e-09
4.79344e-09
2.63208e-10
-1.0908e-10
9.41448e-09
9.01384e-10
-9.02925e-09
-1.28661e-09
-2.18631e-09
-3.87907e-09
4.22785e-09
1.83753e-09
1.08863e-10
-4.85376e-11
-6.39368e-09
5.06825e-12
5.05348e-12
3.1331e-09
2.86248e-09
-2.06697e-09
-5.53395e-10
5.27612e-10
-4.87982e-09
4.9056e-09
-4.75207e-09
3.72949e-09
-3.75914e-10
1.3985e-09
1.11879e-08
-6.6567e-09
-7.34215e-09
2.81093e-09
-6.47151e-11
5.25741e-10
2.52648e-11
7.46115e-09
-2.34969e-09
1.77232e-09
-6.88378e-09
1.26933e-09
5.27102e-09
-1.18675e-09
-4.76074e-09
-2.94764e-10
1.09356e-10
5.93743e-09
-5.5376e-09
2.26499e-09
-2.66482e-09
-4.35826e-09
-8.53766e-10
4.50131e-09
5.8138e-09
-6.95451e-09
-1.32706e-10
1.27342e-09
-3.31603e-09
-3.16837e-09
2.75127e-09
3.73313e-09
5.00839e-09
-2.75157e-09
-3.38923e-09
1.13242e-09
-4.8141e-09
4.84609e-09
3.45527e-11
-6.65471e-11
6.49174e-09
-1.04172e-11
-3.84145e-12
-6.47748e-09
-4.71285e-09
4.71184e-09
-1.95187e-11
2.05348e-11
9.89828e-10
-1.76396e-09
-2.23825e-09
3.01238e-09
-5.14043e-10
2.52424e-09
1.2558e-09
-5.23915e-09
5.23265e-09
-2.22416e-11
2.87461e-11
-5.37196e-09
5.56055e-09
-2.40123e-10
5.15344e-11
-1.12795e-09
3.79824e-09
-5.9192e-10
-2.07837e-09
-4.76465e-09
4.74763e-09
-2.89574e-11
4.59706e-11
1.95675e-09
7.13861e-09
-7.43898e-09
-1.65637e-09
-4.83418e-09
4.80827e-09
-3.38044e-11
5.97111e-11
-5.20087e-09
5.16393e-09
-3.22224e-11
6.91649e-11
5.35941e-09
2.79395e-10
-2.30016e-10
4.10476e-09
-4.16317e-09
-3.54132e-09
1.55215e-09
-2.18932e-09
-1.06932e-08
5.12723e-10
-5.68307e-09
-3.85921e-10
5.55626e-09
-4.89363e-09
4.87707e-09
-2.91309e-11
4.5688e-11
-5.32123e-09
5.28687e-09
1.87152e-10
-1.52796e-10
-5.10278e-09
5.07235e-09
-3.1265e-11
6.16975e-11
-4.93353e-09
4.92187e-09
-2.49241e-11
3.65816e-11
2.85268e-09
-4.04865e-09
2.15537e-09
-9.59402e-10
-5.00922e-09
4.98644e-09
-3.13429e-11
5.41235e-11
-1.23094e-09
2.83667e-09
-2.73369e-09
-2.07757e-10
-4.31318e-09
4.52093e-09
-2.16661e-09
6.72578e-10
-6.09668e-10
2.1037e-09
-1.70032e-11
3.79013e-09
-3.77312e-09
-4.64532e-11
-3.39363e-11
7.03155e-09
-1.6741e-10
4.52143e-09
3.3287e-09
2.865e-09
-3.00625e-09
-3.18745e-09
-1.8524e-09
9.11275e-10
-9.84076e-10
1.9252e-09
5.22267e-12
-1.44825e-11
-4.69563e-09
5.49005e-11
-1.48885e-10
4.78962e-09
3.12119e-09
-2.67999e-09
1.66093e-09
-2.10212e-09
-4.05435e-10
7.19458e-11
-9.01323e-11
-5.57687e-09
4.27105e-09
-5.9894e-10
3.58032e-09
-3.56011e-09
-2.02027e-11
-3.71138e-09
3.8234e-09
1.74243e-09
5.2248e-09
4.88969e-11
-2.19408e-11
-1.90998e-10
-2.73693e-09
2.92793e-09
8.45728e-09
-5.42883e-09
-3.47563e-09
4.47189e-10
1.8603e-09
2.14067e-10
-3.30531e-09
-3.28508e-11
2.04122e-10
5.03662e-09
-5.20789e-09
-1.01648e-09
1.08912e-09
9.85411e-10
-1.05805e-09
-3.20547e-11
2.53803e-10
-2.42268e-11
-1.97521e-10
-1.10859e-09
-3.37257e-09
1.6115e-09
-6.38643e-09
-3.32871e-12
-3.92051e-12
-4.58979e-09
-3.79258e-10
2.08309e-10
4.84767e-09
-8.08786e-11
1.78373e-10
2.87457e-11
-7.9627e-11
6.26628e-11
-2.73951e-11
4.97801e-09
-2.17525e-10
2.02452e-10
-6.49211e-09
6.50718e-09
-7.21946e-11
-4.62915e-09
4.70134e-09
-8.86463e-10
8.69254e-10
-9.99272e-10
6.85477e-09
-4.12583e-10
1.36518e-10
6.30364e-10
-1.16431e-10
-1.88401e-09
1.37007e-09
7.58269e-11
1.64975e-10
-6.42024e-11
-1.76599e-10
-4.87303e-09
2.62792e-11
-6.47328e-11
2.67506e-09
-2.43695e-09
-5.84972e-09
5.6116e-09
2.00671e-10
-8.9676e-11
2.00862e-09
-1.66764e-09
-3.40978e-10
-1.57942e-09
9.51471e-10
7.69826e-09
-6.4143e-09
-5.26609e-11
6.44996e-09
-5.07558e-10
2.9698e-10
-4.37921e-09
-1.30749e-09
1.81185e-09
-5.25642e-09
-6.39342e-09
6.32541e-09
-1.49514e-10
1.33978e-11
1.42513e-11
-2.7649e-11
-6.46201e-09
7.11447e-10
6.42191e-09
-5.07503e-09
1.44966e-09
2.85996e-09
7.65402e-10
5.11387e-09
5.16113e-10
-4.11843e-09
-1.51155e-09
6.17933e-09
3.70059e-09
-5.22352e-09
5.18281e-11
-2.91861e-11
3.42851e-09
5.77098e-09
-5.61416e-09
-3.58533e-09
-6.2041e-09
-5.64137e-09
5.42837e-09
-7.49307e-09
1.64194e-09
-1.50246e-09
7.35359e-09
1.38612e-11
6.53768e-09
3.50468e-11
-2.59167e-11
3.54527e-09
5.34374e-09
-2.59344e-09
3.92089e-09
-1.1156e-10
-4.2397e-09
4.30366e-10
6.63079e-11
-1.22982e-10
-3.48761e-10
-1.95547e-10
2.23968e-11
-4.71952e-11
2.20345e-10
1.51116e-10
-5.66301e-09
5.65962e-09
-1.47725e-10
3.28264e-09
-3.00171e-09
3.26279e-09
-3.54372e-09
-6.39233e-09
-6.44764e-11
4.25078e-11
-5.37339e-09
-7.32096e-10
5.58688e-09
5.18606e-10
1.62217e-09
-4.63403e-09
-1.82762e-09
4.83948e-09
-1.03421e-11
6.80035e-12
6.49528e-09
8.25287e-09
-7.04649e-09
-3.75952e-10
-8.30427e-10
6.20651e-09
-6.11678e-09
1.12724e-10
4.55141e-09
-4.68589e-09
-5.76234e-11
1.92112e-10
2.34904e-10
6.44004e-09
-4.68428e-10
-4.3962e-09
-6.9119e-11
8.18683e-11
4.38345e-09
-4.4631e-09
2.04015e-09
3.8707e-09
-1.44775e-09
3.80836e-09
-1.82367e-11
-9.40089e-09
-8.79137e-11
8.76706e-09
7.21745e-10
-5.97068e-09
-4.46075e-09
5.23816e-09
-4.45181e-09
3.92879e-11
4.41304e-09
-5.15705e-13
-2.44898e-10
5.39255e-09
-5.27271e-09
1.25058e-10
1.53649e-09
7.1084e-09
-8.64649e-09
1.59903e-12
1.71392e-10
-1.4829e-10
1.98796e-11
-4.29815e-11
-3.01985e-11
3.61052e-09
6.34725e-09
-6.33032e-09
-5.63134e-11
3.93798e-11
-3.44433e-09
9.33314e-11
3.35099e-09
6.4824e-09
-5.45154e-10
3.49205e-10
-6.28646e-09
4.27034e-09
-2.47958e-09
-3.97707e-09
2.94949e-11
-7.4576e-11
1.17923e-08
4.08341e-10
-4.24655e-09
4.74187e-09
-3.36095e-09
1.53196e-09
-2.91288e-09
5.96904e-09
1.2252e-09
-1.47461e-09
-5.71962e-09
-3.35177e-09
2.99878e-09
1.40026e-09
-1.04727e-09
-3.92096e-10
-6.66621e-09
2.96433e-10
6.76188e-09
-6.23999e-09
6.26049e-09
-5.42102e-11
3.3708e-11
6.53145e-09
-1.97583e-11
1.11926e-10
-6.62362e-09
-6.47378e-09
1.47029e-10
6.80456e-09
-4.77802e-10
8.08784e-10
-8.96453e-10
-7.98793e-10
-5.13509e-09
6.33372e-11
-3.10324e-11
-4.52046e-11
2.10499e-11
-4.53124e-09
1.18715e-09
4.96627e-09
-3.19035e-09
-2.79906e-09
3.73943e-09
2.24998e-09
-1.92522e-10
2.14424e-10
-2.1902e-11
2.74585e-09
-2.64171e-09
-2.70399e-09
-1.83718e-09
-5.56522e-09
9.40995e-10
6.4614e-09
-6.16571e-09
6.18632e-09
-3.86891e-11
1.8081e-11
2.95409e-09
-5.11083e-09
4.25466e-09
4.56476e-11
-6.48187e-09
6.4642e-09
-2.79753e-11
-5.66959e-09
1.38393e-10
5.68231e-09
-1.96205e-09
-3.55778e-09
1.54593e-09
3.97389e-09
3.03089e-09
-3.06374e-09
6.65919e-09
-6.65418e-09
-1.08748e-11
5.86284e-12
-6.30024e-09
-6.24724e-11
3.23887e-11
-6.6324e-11
3.24742e-11
1.44044e-09
-4.27694e-09
-2.23853e-09
-1.96595e-09
4.21912e-09
-1.2778e-09
1.27493e-09
1.09199e-09
-1.7485e-09
1.98622e-09
-3.20237e-09
2.96465e-09
4.56043e-12
-2.37458e-10
-5.70259e-09
5.93549e-09
-6.65321e-09
1.60603e-10
-1.50778e-10
6.64339e-09
-4.76839e-09
3.66026e-11
-8.2315e-11
-1.26295e-10
1.88458e-11
-4.08407e-11
-5.2378e-09
5.41107e-09
2.46578e-09
-2.63905e-09
-2.50076e-09
-8.36003e-09
5.43196e-09
5.48603e-09
5.72523e-10
-2.44754e-10
4.22127e-09
-3.2995e-09
-1.53581e-09
6.14049e-10
3.98522e-10
5.65768e-09
-2.83048e-09
-3.22572e-09
-4.24604e-09
-4.12069e-11
3.4473e-11
4.25278e-09
-7.91816e-09
4.60911e-09
-3.84356e-09
7.15261e-09
2.42722e-09
-2.59982e-09
-4.84676e-09
5.01937e-09
6.08868e-09
-5.70258e-12
-6.10054e-09
1.75585e-11
-2.32145e-09
1.95776e-09
2.51984e-10
3.74338e-09
2.39631e-11
-4.01932e-09
1.13493e-10
4.43162e-09
6.2926e-12
-7.56496e-12
-5.98564e-09
5.98189e-09
1.13112e-11
2.25323e-09
-3.35986e-09
1.65686e-09
-5.50225e-10
1.74742e-10
-4.00109e-09
4.27123e-09
-4.44883e-10
1.80053e-11
-3.94467e-11
-1.04854e-10
4.98473e-09
5.6697e-10
-1.07313e-09
-4.47857e-09
3.0838e-09
-2.66865e-09
-3.20366e-09
2.78851e-09
-4.99954e-09
4.91504e-10
4.17956e-09
3.28481e-10
2.77469e-09
-1.46693e-09
1.09507e-09
-2.40283e-09
-4.63038e-09
5.22998e-09
2.5208e-09
-6.45365e-09
-1.78208e-09
-1.47296e-09
2.2813e-09
2.94794e-09
-3.75628e-09
-2.29617e-09
-7.52379e-10
8.81935e-10
2.45691e-09
-2.83734e-09
-2.30799e-09
2.68842e-09
6.4225e-11
-3.53825e-11
3.01436e-09
-2.82325e-09
-2.39055e-09
-4.81459e-09
3.202e-09
4.00314e-09
3.4582e-09
-3.43569e-09
-2.25059e-11
6.10615e-10
2.29204e-09
-1.76487e-09
-1.13779e-09
-2.03805e-09
5.97871e-10
2.05079e-09
-5.04123e-09
6.07693e-11
-2.87608e-11
-6.21176e-09
-5.61447e-11
2.79135e-11
2.93617e-09
2.38397e-10
-2.44903e-09
4.12717e-09
7.31169e-10
-4.03371e-09
-8.24625e-10
-3.92124e-10
7.38221e-10
-3.46097e-10
-1.4132e-09
-2.75825e-09
2.57156e-09
1.59989e-09
-5.34199e-09
4.68748e-09
6.95634e-10
-4.11188e-11
1.90315e-10
1.58022e-09
-9.98637e-12
-1.76055e-09
-7.75157e-11
-3.08517e-09
3.16269e-09
2.66348e-11
-6.63762e-11
6.19715e-09
8.85526e-10
-2.15844e-10
-6.86684e-09
5.62753e-09
-6.67311e-09
4.31515e-09
-3.26957e-09
-1.4513e-09
4.84799e-09
-5.23387e-09
-1.37656e-09
-4.01699e-09
1.68217e-09
5.89588e-09
-7.07395e-10
-5.34264e-09
1.54156e-10
4.06273e-09
8.73093e-11
-6.57501e-12
-4.14346e-09
-1.13722e-09
1.16068e-09
-5.9821e-09
5.95863e-09
-1.40822e-09
-3.56025e-09
1.6167e-09
-3.34185e-09
1.49042e-09
3.12586e-09
-1.27443e-09
-4.14433e-11
-5.98834e-09
6.01528e-09
1.4502e-11
-3.8314e-10
1.44454e-09
-2.25331e-09
1.19191e-09
1.88799e-10
5.36633e-09
-4.98324e-09
-5.71888e-10
-3.67697e-09
1.93348e-09
-2.13559e-09
2.87042e-09
6.98343e-09
-3.34837e-09
-6.50549e-09
2.28184e-09
4.88459e-09
-2.09237e-09
-5.07405e-09
-4.07605e-09
6.15556e-09
1.61625e-09
-3.69576e-09
-2.20888e-09
2.32563e-09
2.96704e-09
7.01562e-09
-1.39835e-09
-6.97075e-09
1.35347e-09
-7.19099e-09
7.31443e-09
-2.02981e-09
1.90637e-09
6.45298e-09
-6.42686e-09
-3.36927e-11
-1.89592e-09
1.67605e-09
4.10186e-10
-2.64075e-09
2.53759e-09
-1.59312e-09
1.2451e-10
3.43999e-09
-3.5645e-09
-1.93008e-10
2.12475e-10
-8.67416e-10
8.47949e-10
5.17982e-09
-4.08293e-09
-1.88148e-09
1.45613e-09
4.0722e-09
-5.35359e-09
-5.97455e-09
5.71124e-09
1.21714e-09
-9.53832e-10
-5.81602e-11
3.12222e-11
2.15141e-11
-1.47281e-09
-6.14901e-09
-3.15365e-11
1.48376e-11
2.20232e-09
-9.37717e-09
-3.18226e-10
1.46584e-09
-5.62659e-10
-9.03184e-10
-2.20511e-09
6.90543e-09
3.38923e-10
-5.03925e-09
2.8391e-09
3.9076e-09
-3.30389e-09
3.38187e-09
-7.79862e-11
-1.62113e-09
-8.21584e-09
7.1449e-09
2.69207e-09
2.48041e-09
-2.66325e-09
3.20731e-09
-3.02446e-09
-3.47518e-09
-6.94427e-13
3.47587e-09
9.82213e-10
3.86578e-09
1.32869e-09
5.98184e-10
-1.92688e-09
-6.47429e-11
6.28909e-09
-8.95991e-10
-8.38687e-10
-7.7834e-09
7.26083e-09
1.36126e-09
4.88024e-11
-5.63741e-09
-3.1096e-11
5.6197e-09
2.12394e-09
-1.28876e-09
-8.35183e-10
-4.95412e-09
4.2275e-11
-2.16815e-11
4.60292e-09
-4.59007e-09
1.41397e-11
-2.69969e-11
-2.21507e-10
-5.8645e-09
4.69863e-10
5.61615e-09
8.43428e-09
-1.2935e-09
-5.13051e-09
5.22172e-09
-1.41531e-10
5.03211e-11
-3.1395e-09
-1.62163e-09
3.87748e-09
-2.77977e-09
4.41824e-11
2.73559e-09
2.25048e-09
-3.16186e-09
4.19513e-09
-3.28375e-09
7.58546e-09
1.42127e-10
2.34442e-09
4.00976e-09
-3.30615e-09
-3.04803e-09
5.15316e-09
-5.29425e-09
-8.04236e-11
3.97115e-10
-1.05754e-09
1.4739e-09
-8.13476e-10
-2.28929e-09
-1.37772e-09
7.65823e-10
2.90118e-09
4.72995e-09
-4.0785e-09
3.59151e-11
-1.28621e-10
4.89895e-10
-2.46905e-09
-7.05858e-10
2.68501e-09
1.37e-10
2.42879e-09
-1.57596e-09
3.79802e-11
-9.43713e-11
1.86853e-10
-1.30462e-10
-3.3009e-09
3.68237e-09
-4.04041e-09
3.65894e-09
5.97094e-09
-1.77444e-11
-1.0196e-12
-5.95218e-09
-7.52008e-11
9.23448e-11
-1.7144e-11
-2.05434e-09
7.66716e-09
-7.90888e-09
2.29606e-09
-2.26024e-09
2.41437e-09
4.6225e-09
-4.77663e-09
5.65597e-11
5.6677e-09
-5.67545e-09
3.20559e-10
5.30451e-09
-1.39038e-10
-2.4003e-10
-2.07567e-09
1.93256e-09
-1.45246e-11
5.16739e-12
2.01143e-10
-1.91786e-10
-1.65666e-11
-8.02633e-09
7.73437e-11
-3.38123e-09
1.75155e-11
5.98053e-09
2.17716e-11
-6.01981e-09
6.12741e-09
-2.69051e-11
1.57948e-11
-6.1163e-09
-1.03353e-10
-6.8439e-09
6.83676e-09
1.1049e-10
-2.03718e-09
6.11132e-10
-6.11998e-10
-3.14557e-09
1.61899e-09
-3.81541e-09
-2.21994e-09
8.39857e-09
-8.76012e-09
2.58149e-09
-6.01812e-09
6.80636e-12
6.05696e-09
-1.63392e-09
2.49068e-10
2.4972e-09
-4.16459e-09
6.71102e-11
1.60029e-09
6.37626e-09
-2.08722e-09
-3.91621e-09
-3.72832e-10
-1.18641e-09
-3.63619e-09
1.35181e-09
-4.78325e-11
1.53909e-11
6.5301e-11
-3.28593e-11
-7.6627e-11
6.81175e-09
-6.83848e-09
2.41138e-11
-4.95553e-11
5.92331e-11
-2.81065e-11
2.12918e-10
-5.04723e-09
1.11553e-09
3.71879e-09
9.3155e-10
-2.07855e-09
-3.85255e-09
-1.68071e-12
2.76453e-12
-2.04701e-10
2.03617e-10
-1.70123e-09
-6.43419e-09
2.16087e-09
-7.16784e-10
-1.1307e-09
-1.63634e-09
-1.52978e-09
-3.97703e-10
2.35343e-09
1.04305e-09
-6.56588e-09
6.92056e-09
-2.89236e-11
-3.25756e-10
-3.19302e-09
7.99227e-10
4.23258e-09
-1.83879e-09
-2.99643e-09
-6.98169e-10
4.19851e-09
-5.03912e-10
-1.31277e-10
7.48426e-11
8.59888e-10
1.20377e-10
-8.76909e-10
4.59367e-11
7.10596e-10
-6.45501e-09
6.47191e-09
-5.83397e-11
3.39916e-10
-3.02801e-10
2.80999e-11
-6.52147e-11
-3.8715e-09
-6.50892e-09
1.60922e-09
8.7712e-09
-3.61649e-09
-5.76076e-09
6.07885e-09
3.2984e-09
2.90733e-09
2.12024e-10
-2.62946e-09
3.90852e-09
-2.44291e-09
1.33465e-09
-2.80025e-09
-5.87699e-09
2.08534e-11
-6.17541e-11
5.91789e-09
6.45411e-10
-7.02923e-10
1.77889e-10
-5.30429e-09
1.51747e-09
-2.01353e-10
3.98818e-09
1.20608e-09
-2.92111e-09
-7.46211e-10
2.46124e-09
-4.59913e-09
-6.20006e-09
6.72314e-09
-1.54424e-09
3.29355e-10
3.08278e-09
-1.86789e-09
2.7263e-10
-6.4763e-09
6.28102e-09
2.60291e-09
7.14824e-09
-8.0136e-09
-1.73755e-09
3.48168e-09
-5.09486e-10
-3.60251e-11
-6.53176e-10
2.33195e-09
4.43158e-09
2.62788e-09
-1.2105e-09
4.64957e-09
-6.06695e-09
-6.78246e-09
6.67499e-09
1.77734e-10
-7.02611e-11
-5.57827e-09
5.58269e-09
2.5402e-11
-2.9817e-11
-1.81003e-10
2.19185e-10
2.86561e-10
-7.58726e-09
-8.30496e-09
2.98971e-09
9.61804e-10
-2.41585e-09
-1.73898e-09
5.23906e-09
-1.93534e-10
9.60566e-11
-5.14158e-09
3.81876e-09
-4.14157e-09
5.64449e-09
-5.32168e-09
-3.05868e-09
2.37621e-09
-2.13525e-09
2.81773e-09
5.7132e-09
2.47141e-09
-4.62989e-09
-3.55473e-09
-1.9382e-10
8.51747e-10
-8.50936e-10
-3.4952e-09
-3.63615e-09
3.53192e-09
3.59943e-09
6.32818e-10
3.32852e-09
-1.18555e-09
4.87265e-09
5.91388e-09
4.61523e-09
-5.31576e-09
-3.7865e-09
-3.34837e-09
3.63967e-09
1.34269e-08
-4.88694e-09
-5.6695e-09
2.63201e-09
-3.00506e-09
-3.53314e-09
3.90618e-09
-3.73026e-09
4.33273e-09
-2.67014e-09
2.06766e-09
-5.36059e-11
1.3785e-10
3.34471e-11
-1.17692e-10
-4.26483e-09
3.71746e-09
-3.64583e-09
4.1932e-09
-2.89937e-09
2.98912e-09
-8.97433e-11
-5.57947e-09
5.59982e-09
1.65446e-11
-3.68965e-11
1.35044e-09
4.58729e-10
-6.48156e-10
-1.16101e-09
9.22866e-11
-6.67396e-10
-1.55373e-10
3.827e-09
-1.08522e-09
8.70648e-10
-3.61243e-09
-5.66187e-09
-6.89678e-11
5.48251e-09
2.48333e-10
-1.63061e-09
2.45212e-09
5.55475e-09
3.74203e-10
-3.23773e-10
6.70171e-10
-7.20601e-10
3.2592e-10
-1.6263e-11
3.61123e-09
-9.8674e-11
-4.72804e-09
5.83302e-11
4.11913e-10
7.34897e-09
-5.55856e-09
1.5974e-09
4.068e-09
-3.70743e-09
-1.95797e-09
5.0643e-12
-1.4977e-09
-3.74517e-09
1.70351e-09
-2.09429e-09
-7.53015e-10
1.1438e-09
-4.11013e-09
3.80007e-09
-3.95477e-09
-4.14539e-09
4.42862e-09
3.97534e-09
-4.25857e-09
-1.63962e-11
-3.48716e-09
3.50355e-09
6.10127e-09
-2.47528e-09
2.82702e-09
-5.83455e-09
-7.9563e-10
3.80315e-09
4.61737e-09
2.05686e-11
-5.02214e-12
-4.63292e-09
-6.05069e-11
4.8097e-09
-4.78305e-09
3.38596e-11
-9.01026e-10
1.0828e-09
5.9329e-09
-6.11468e-09
2.47441e-10
8.81322e-10
-9.16287e-10
4.77869e-10
2.61908e-09
-1.04752e-09
1.39992e-09
-2.97148e-09
-1.52202e-09
6.90948e-09
-6.9728e-09
1.58534e-09
-4.74353e-10
-9.15124e-09
-9.4479e-10
-4.69112e-09
2.47328e-09
2.78877e-09
-2.56945e-09
2.44049e-09
-2.65982e-09
-5.94961e-12
1.19009e-11
-1.53845e-10
1.47894e-10
2.16243e-10
-1.08701e-10
1.53951e-09
4.16033e-10
-6.051e-10
5.588e-09
-5.60428e-09
-2.9333e-11
4.5621e-11
4.89536e-09
-4.85247e-09
2.08106e-09
5.13874e-09
-6.47058e-11
1.50763e-10
-5.64214e-09
-4.43494e-11
4.90856e-11
-2.78253e-11
3.75458e-11
2.3992e-09
5.63765e-11
-5.0665e-11
-2.40492e-09
3.64904e-09
-1.96925e-09
-1.67979e-09
3.0609e-09
-2.49393e-09
2.00188e-09
-2.04551e-09
7.16207e-10
-7.06351e-09
-1.37081e-09
7.5075e-09
9.26829e-10
-4.07154e-11
-5.86596e-09
2.96897e-11
3.48818e-09
-2.99781e-11
-5.17205e-09
-1.24873e-09
2.0898e-09
4.33098e-09
-3.45766e-09
-4.59286e-11
4.61241e-10
4.27216e-09
-5.92045e-09
2.77391e-09
3.14654e-09
7.24686e-11
3.25968e-09
-1.82523e-09
-1.50692e-09
6.3556e-09
5.81382e-09
-8.64749e-09
2.33898e-09
5.07069e-09
-1.84546e-09
-4.4633e-09
-7.63956e-10
4.67386e-09
-7.64971e-09
6.43897e-09
1.15753e-11
-3.31768e-11
-1.41976e-09
-3.62933e-09
3.66969e-09
1.3794e-09
4.09474e-09
-5.53954e-09
-2.77272e-11
5.89189e-09
5.20137e-11
-5.91617e-09
1.85561e-09
-3.28326e-09
-1.63103e-09
-4.25966e-09
3.79617e-09
2.57886e-09
-2.11537e-09
-4.87229e-09
4.98618e-09
-1.82814e-09
1.71425e-09
1.30801e-10
-7.39122e-11
-1.11403e-10
5.45149e-11
9.67502e-10
-7.87119e-10
-4.56643e-09
1.53848e-10
-3.92304e-11
-1.18976e-09
4.03059e-10
1.24543e-09
-4.05503e-09
2.86962e-09
4.1395e-09
3.96754e-10
8.45478e-10
-1.63436e-09
-1.86752e-09
2.18595e-09
-3.18425e-10
-6.60668e-10
5.04316e-12
-2.21284e-10
5.81149e-09
4.76971e-11
-5.83943e-09
-1.97515e-11
-2.98426e-09
3.15264e-09
-2.29785e-09
2.12946e-09
5.03425e-09
1.85344e-10
-8.08526e-11
6.52414e-10
2.5718e-09
-1.52336e-09
-2.3129e-11
5.7878e-09
4.68168e-11
-1.99102e-10
-4.51051e-09
1.73098e-10
-2.58829e-10
4.59624e-09
-3.93412e-09
-2.46622e-09
9.20916e-10
5.47943e-09
7.10633e-09
-7.44069e-10
4.50507e-09
2.18308e-10
1.13696e-10
-4.83708e-09
1.44697e-11
7.24582e-09
-7.16477e-09
-9.55229e-11
5.4885e-11
-2.25708e-11
-6.98976e-10
2.51738e-09
-2.29091e-09
4.72498e-10
-6.02976e-09
6.05882e-09
2.06333e-11
-4.96974e-11
3.75742e-09
5.33529e-09
-4.80602e-09
-4.2867e-09
3.95569e-11
-3.28889e-09
3.27046e-09
-2.1132e-11
-3.42043e-09
2.39112e-09
-1.96713e-09
-9.54748e-11
1.61042e-10
5.95741e-10
-5.69524e-09
4.69605e-10
2.28634e-09
-3.2466e-09
1.69848e-09
7.43946e-10
-6.89537e-10
3.37748e-10
-3.92157e-10
-5.69509e-09
3.52642e-10
5.06175e-09
-3.7959e-09
5.52905e-11
-6.37084e-09
6.36324e-09
-5.90371e-09
5.98312e-09
-1.71493e-10
9.20765e-11
-9.57751e-11
5.02146e-09
2.27474e-10
7.98435e-09
-8.40096e-09
1.71569e-10
2.45037e-10
-5.60636e-09
-3.34012e-11
3.54758e-11
-3.59564e-11
2.06355e-10
2.22881e-09
-1.87882e-09
-6.97246e-09
3.31865e-09
-3.30049e-09
-1.81623e-11
-3.18363e-09
3.24694e-09
-3.20888e-09
-6.07145e-09
6.07061e-09
-3.8793e-12
4.72624e-12
2.35692e-09
4.4481e-09
-3.43296e-09
-3.37207e-09
-5.39212e-09
8.50541e-11
-1.45253e-10
5.45231e-09
-5.43664e-09
-2.77414e-09
-3.32432e-10
8.54321e-09
5.04245e-09
-8.18236e-10
-4.22422e-09
3.66271e-10
-3.8106e-09
-5.69226e-09
4.08764e-10
2.36237e-09
-4.15528e-09
-1.17665e-09
2.96956e-09
-8.89288e-09
-1.63202e-09
1.05001e-09
-6.79364e-09
-2.97898e-09
8.72261e-09
2.78237e-09
-6.06926e-10
-2.09021e-09
-8.5232e-11
6.99887e-09
-1.5267e-09
2.05949e-09
-7.53166e-09
2.838e-10
-6.57192e-09
-9.19971e-09
6.71418e-09
3.95262e-09
-1.46709e-09
-9.7713e-10
2.75212e-10
9.49358e-10
-2.46436e-09
-7.15533e-09
2.23555e-09
3.32509e-09
-3.2335e-09
2.54145e-10
-3.4573e-10
-6.06183e-09
6.05044e-09
-1.3679e-11
2.50688e-11
-6.52992e-09
-3.39721e-09
3.02026e-09
9.49581e-10
5.10165e-09
-2.32174e-09
-3.71991e-10
3.60403e-09
-3.62975e-09
-4.44388e-10
-1.87767e-09
-9.86109e-10
-6.29753e-11
1.23928e-09
-1.90196e-10
5.82889e-09
-2.68097e-11
8.76763e-12
-5.81085e-09
2.30813e-09
-5.3453e-09
8.84537e-09
-5.80821e-09
-7.0315e-09
7.07867e-09
-9.36164e-11
-1.27203e-09
3.22144e-09
-1.87694e-09
5.52023e-09
-3.29754e-10
-1.14608e-09
1.12986e-09
3.45969e-10
-9.42153e-09
7.06699e-09
7.33401e-10
3.95262e-09
-2.56074e-09
-4.69278e-09
5.76544e-10
-4.91634e-10
2.40059e-10
-3.24969e-10
-2.22269e-09
-6.72704e-09
7.0709e-09
-7.90196e-09
5.8785e-09
-2.6107e-10
4.394e-10
-6.05683e-09
6.01584e-09
-6.03329e-09
-1.55506e-11
3.30008e-11
5.14611e-09
-1.13103e-10
1.67034e-10
-5.20004e-09
-8.3498e-11
-2.81588e-09
2.91163e-09
1.73617e-10
-3.9034e-10
-2.69491e-09
1.06259e-09
1.38162e-09
3.38155e-10
8.72733e-11
-1.78491e-10
-5.03929e-09
7.62798e-09
-4.92023e-09
-3.84497e-09
4.65983e-09
-4.07992e-09
2.8486e-09
-6.34854e-09
-7.10558e-11
6.37888e-09
-6.76125e-09
6.77731e-09
-4.29667e-11
-2.36458e-10
-8.50732e-10
1.01081e-10
-5.74953e-09
1.60573e-11
-4.72881e-11
5.78076e-09
3.44108e-09
-3.4688e-09
-4.02598e-09
3.38909e-09
2.99926e-09
3.71991e-11
6.49296e-10
-4.10844e-11
8.9427e-09
-9.14253e-09
1.19747e-09
-9.97638e-10
-2.93247e-09
2.87196e-09
-2.79508e-09
2.05897e-09
1.71521e-09
-9.79102e-10
2.42765e-09
-3.3765e-09
1.69297e-09
-2.04672e-09
7.61892e-09
-7.83293e-09
-1.55193e-09
1.76595e-09
-1.08985e-08
-1.77131e-09
8.0707e-09
-2.94008e-09
-7.54199e-10
5.0482e-09
-1.35393e-09
5.90111e-09
-1.43045e-09
-1.91327e-09
-3.80668e-09
3.75897e-09
1.96098e-09
-4.90921e-09
-3.49118e-10
-3.06892e-10
3.00353e-10
-5.90411e-09
6.54475e-09
-4.77731e-11
-7.09345e-09
7.15569e-09
3.50456e-09
-3.62154e-09
3.79934e-09
4.27486e-09
-2.86962e-09
3.23569e-09
-4.4211e-09
1.9629e-09
-3.23536e-10
-1.40097e-09
1.03877e-09
-1.59967e-09
1.62349e-09
-2.21141e-09
2.05541e-09
-2.36191e-09
3.3638e-09
-3.29994e-09
1.6457e-09
-1.70957e-09
1.54708e-09
-2.16631e-09
-3.71956e-09
4.33879e-09
-5.84479e-09
-2.54598e-10
1.95679e-10
5.30811e-09
-3.49591e-09
-1.82087e-09
8.66788e-12
5.41733e-09
-1.36329e-10
7.42264e-11
-4.77011e-10
3.80714e-09
-3.33013e-09
3.30903e-09
-4.85349e-09
2.47601e-09
-5.70599e-09
5.72789e-09
2.66482e-11
-4.85527e-11
-9.05705e-10
-4.53413e-09
5.30632e-10
8.25553e-09
2.30038e-09
-2.07008e-09
-4.70324e-10
9.37426e-12
1.67529e-10
-8.23352e-12
-1.6867e-10
-2.87004e-10
1.46778e-09
-1.82811e-09
6.4733e-10
-2.15152e-09
1.65374e-09
3.27247e-09
6.77038e-09
-1.72793e-09
-1.18431e-09
1.22302e-09
-3.87101e-11
3.07313e-09
-3.12523e-09
-2.51735e-09
-6.69895e-10
-2.5699e-09
1.57875e-09
1.66105e-09
-2.03919e-11
3.77114e-11
-5.76876e-09
5.75144e-09
-2.01148e-11
-3.35114e-09
3.37125e-09
-2.89556e-10
3.2327e-10
2.72678e-09
1.22631e-09
-2.73533e-09
-1.21775e-09
2.06629e-09
-2.07808e-09
-4.64325e-09
2.52205e-09
-4.72504e-10
2.5937e-09
-2.35452e-11
2.67696e-11
5.41952e-10
-4.74827e-11
1.80591e-09
1.76985e-09
-8.24472e-10
-3.93456e-09
2.98919e-09
-7.00328e-09
6.95881e-09
-2.60753e-09
-2.10413e-10
3.03579e-09
-3.72316e-09
6.45401e-09
-5.76664e-09
-3.42494e-09
-3.96561e-10
4.40018e-09
-5.78672e-10
-2.1117e-09
-2.85958e-09
2.91878e-09
-2.30803e-09
2.77708e-09
-2.54759e-09
4.4255e-10
-4.64299e-11
4.14348e-09
-2.47354e-09
2.07004e-09
-3.73999e-09
4.7747e-09
-3.16285e-09
8.40275e-10
5.45994e-09
-2.50398e-09
-5.6552e-09
-3.80842e-09
5.03591e-09
8.26943e-11
-1.31019e-09
-6.09448e-09
2.06985e-11
6.1007e-09
-2.69096e-11
3.40433e-10
-3.04003e-10
1.86197e-10
-2.22628e-10
3.8202e-09
-3.83062e-09
-3.05616e-10
1.16603e-09
-1.19017e-09
-3.33561e-09
3.31522e-09
-2.16156e-09
-4.81856e-09
1.80807e-09
-3.19302e-10
-7.2255e-10
-8.15786e-09
-6.64544e-09
6.93474e-09
-5.49544e-12
2.70436e-09
7.69835e-09
7.85219e-10
6.14204e-09
-3.2012e-09
3.01234e-09
-5.95318e-09
-7.40888e-09
6.98903e-09
3.39403e-09
-2.97418e-09
1.95215e-11
6.98518e-10
1.82652e-10
3.03157e-09
-3.21422e-09
1.61827e-11
-2.1985e-11
-2.60725e-11
3.28443e-09
-3.25836e-09
-8.16407e-10
-4.2643e-09
6.17415e-10
-3.50438e-09
-2.66517e-09
4.25641e-09
-2.658e-09
2.7913e-09
6.15112e-09
-6.28442e-09
2.98786e-09
9.00064e-10
-2.18442e-09
4.55236e-09
-3.48962e-09
3.83596e-09
1.59958e-09
-1.57806e-09
9.79158e-10
-6.34188e-10
-3.14005e-09
-2.13627e-10
5.50498e-09
-8.87676e-09
-9.03148e-10
8.50647e-09
-5.11889e-09
1.12523e-09
-1.37973e-09
1.32519e-09
-2.8607e-09
2.52123e-09
-9.85717e-10
-5.7558e-10