/*--------------------------------*- C++ -*----------------------------------*\
  =========                 |
  \\      /  F ield         | OpenFOAM: The Open Source CFD Toolbox
   \\    /   O peration     | Website:  https://openfoam.org
    \\  /    A nd           | Version:  8
     \\/     M anipulation  |
\*---------------------------------------------------------------------------*/
FoamFile
{
    version     2.0;
    format      ascii;
    class       surfaceScalarField;
    location    "9";
    object      phi;
}
// * * * * * * * * * * * * * * * * * * * * * * * * * * * * * * * * * * * * * //

dimensions      [0 3 -1 0 0 0 0];

internalField   nonuniform List<scalar> 
8330
(
-7.35013e-09
3.66146e-10
7.84313e-11
6.90556e-09
6.21771e-09
-4.76943e-09
-1.44828e-09
-3.99788e-09
4.44999e-09
-4.52109e-10
-3.2401e-10
-7.11521e-12
5.07677e-10
-1.76551e-10
-3.68695e-09
4.28909e-09
7.34676e-09
-7.94889e-09
5.75204e-09
4.83966e-09
-6.25286e-09
-4.33883e-09
-9.81408e-09
1.03087e-09
-2.39832e-10
9.02304e-09
-9.9229e-10
-7.83806e-09
8.58728e-09
2.43072e-10
-1.35569e-08
-7.92743e-10
-9.76986e-10
1.53267e-08
-7.3514e-09
8.3017e-10
-1.1412e-10
6.63535e-09
8.55936e-09
-8.46862e-09
-5.00344e-11
-4.07061e-11
9.06614e-09
1.58343e-09
-6.81056e-09
-3.83901e-09
-1.82781e-10
8.02629e-09
7.15853e-10
7.0186e-09
-8.90919e-10
2.94639e-10
-6.42232e-09
3.58039e-10
5.05033e-10
-1.02914e-08
9.42835e-09
-7.68423e-09
7.76549e-09
-1.17937e-10
3.66777e-11
-3.58992e-10
4.12094e-09
-3.76195e-09
-3.09865e-09
3.97621e-09
-3.73553e-09
2.85797e-09
-8.17412e-09
-3.66154e-10
7.165e-11
7.8738e-09
-7.81318e-09
-1.29697e-10
6.90783e-11
8.00382e-09
-7.93952e-09
-1.68799e-10
1.04502e-10
3.67161e-10
-8.4516e-09
-1.15862e-10
8.20031e-09
7.65437e-09
2.45194e-10
-2.18717e-10
-7.68085e-09
-8.03518e-09
8.1411e-09
2.56852e-11
-1.316e-10
7.52859e-09
-4.42863e-10
8.02365e-11
-7.16596e-09
-8.92751e-09
6.27984e-10
-2.94495e-10
8.59402e-09
-7.96614e-09
-3.26019e-10
-1.1297e-10
8.40513e-09
5.1747e-10
-8.29909e-09
8.50342e-09
-7.218e-10
-7.96749e-09
-1.73147e-10
1.05455e-10
-2.41731e-09
5.04178e-09
-5.51408e-09
2.88962e-09
7.84597e-09
-7.35359e-09
-5.57946e-11
-4.36584e-10
8.41313e-09
5.34706e-10
8.87157e-11
-9.03655e-09
7.82853e-11
-8.30625e-09
-6.74272e-12
8.23471e-09
7.08318e-09
-1.46813e-09
6.87604e-10
-6.30266e-09
4.86923e-09
-6.46281e-09
1.59357e-09
9.38332e-09
-1.10673e-08
2.28144e-09
-5.97462e-10
9.6269e-11
-2.66566e-10
3.58418e-10
7.89447e-09
2.35555e-09
-1.06084e-08
-1.0679e-10
1.28978e-08
3.97864e-10
-1.31889e-08
-4.8252e-09
4.98722e-09
-1.62029e-10
-7.36411e-09
2.28334e-09
-1.95666e-09
7.03744e-09
1.76382e-10
-6.27378e-10
8.29697e-09
4.18996e-09
5.02518e-09
-4.38127e-09
-4.83387e-09
6.90245e-09
-5.94723e-09
-6.89794e-10
-2.65428e-10
-8.33031e-09
-6.27652e-10
-4.19792e-10
9.37775e-09
1.06455e-09
-3.58959e-10
8.53158e-09
-9.23718e-09
-9.61253e-09
-1.31431e-08
-8.51838e-09
1.5874e-09
-1.52998e-10
7.08398e-09
1.14011e-08
1.24556e-10
-4.05452e-10
-1.11202e-08
7.58149e-09
-7.5177e-09
-1.18358e-10
5.45707e-11
-8.50744e-09
-4.91707e-10
1.06337e-08
-1.63455e-09
2.35664e-09
-2.52911e-09
-7.92469e-09
8.09716e-09
9.27111e-09
-9.79492e-09
5.37501e-09
-4.85121e-09
-1.16151e-08
-1.55215e-09
1.31672e-08
-1.57221e-08
9.11206e-09
6.61008e-09
-9.61811e-09
2.04026e-09
-2.65586e-10
7.84343e-09
-6.0788e-11
-7.27935e-09
-1.12706e-11
1.44008e-09
-2.08112e-09
7.72422e-09
8.87663e-09
-1.15184e-08
-2.21605e-09
4.85784e-09
-3.58464e-10
-3.93991e-09
4.54579e-09
-2.47419e-10
7.84501e-11
-1.4417e-10
-7.72216e-09
1.70574e-10
-3.86515e-10
7.9381e-09
-7.38572e-09
7.58444e-09
1.11889e-10
-3.10611e-10
-7.6346e-09
-8.63391e-11
3.67118e-11
-3.40266e-09
1.58288e-08
-1.33792e-08
9.5306e-10
-4.8558e-10
1.19232e-10
-4.47043e-09
7.09494e-09
1.56545e-09
-5.34176e-10
1.25001e-10
7.37367e-09
-6.9645e-09
5.3544e-09
-3.60936e-09
-7.85978e-09
6.11474e-09
-8.75124e-09
-5.60458e-09
2.7604e-09
1.15954e-08
1.61067e-09
5.10906e-09
-6.71973e-09
7.34096e-10
-8.96058e-09
1.63098e-10
8.06338e-09
-7.08298e-09
-1.29098e-09
-3.01225e-10
8.67518e-09
-7.14099e-09
1.86421e-09
-7.60807e-10
6.03758e-09
7.4534e-09
-7.37081e-09
-1.46939e-10
6.43481e-11
7.76255e-09
1.56017e-09
-7.71206e-09
-9.48737e-10
6.34325e-09
-5.39452e-09
3.56717e-09
5.94176e-09
-6.80384e-09
-2.70508e-09
-3.32756e-09
3.68664e-09
-1.51781e-09
1.15873e-09
3.29141e-09
-1.0054e-08
-2.44045e-09
9.203e-09
7.91056e-09
-7.66967e-09
-1.12367e-10
-1.28521e-10
4.87832e-09
-4.75967e-09
-1.18648e-10
-4.68091e-09
-1.96259e-10
4.87717e-09
8.45213e-09
-8.58843e-09
2.48291e-10
-1.11985e-10
-3.02261e-09
1.10471e-09
-1.40966e-09
3.42706e-10
4.52653e-09
1.2092e-09
-2.57481e-09
-1.49889e-09
2.8645e-09
-7.13121e-09
7.2017e-09
1.79345e-10
-2.49833e-10
-8.30831e-09
1.3182e-08
-1.04131e-08
5.53937e-09
8.31916e-09
4.85463e-10
-3.91493e-10
-2.00704e-09
-1.3345e-08
1.19494e-08
-9.10526e-09
9.34091e-10
-2.7561e-10
8.44678e-09
-7.24479e-09
8.94754e-10
-7.19678e-09
1.35468e-08
2.82419e-09
1.06871e-09
-1.12719e-09
-2.7657e-09
-7.20793e-09
7.32545e-09
-7.30438e-11
-4.44747e-11
-6.1337e-10
-6.81041e-09
3.80638e-11
-4.41962e-09
-2.6129e-10
7.17366e-11
-1.19429e-10
8.73652e-09
2.13118e-10
-2.30115e-10
-8.71952e-09
8.20614e-09
-8.12941e-09
2.81306e-10
-2.44433e-09
2.72909e-09
9.24431e-10
-7.19377e-09
7.30466e-09
-1.33086e-10
2.22041e-11
8.64285e-11
-9.48802e-11
8.53558e-09
-8.52713e-09
4.695e-09
-4.83091e-09
1.35907e-10
-7.35648e-09
1.30135e-08
7.06029e-09
-1.27173e-08
7.97272e-11
4.02657e-09
-4.10629e-09
1.19031e-10
-4.63346e-09
4.51443e-09
-4.45981e-09
-5.41638e-09
5.59777e-09
4.27842e-09
-1.19662e-08
1.06048e-08
1.36135e-09
4.7575e-10
-4.71646e-09
4.24071e-09
-4.89894e-10
8.73076e-09
-1.40565e-08
5.8156e-09
9.08624e-10
-3.10791e-10
-9.06363e-09
8.4658e-09
-7.91921e-09
8.11888e-09
-4.53325e-10
2.53659e-10
-5.19528e-10
9.07049e-09
-1.66341e-10
-8.38462e-09
-1.37535e-10
-4.29934e-11
1.48533e-09
-8.60734e-09
-1.5385e-09
8.66051e-09
8.87342e-10
-1.12099e-08
8.65364e-10
9.45722e-09
-5.63331e-11
6.94611e-09
1.49045e-09
-8.38023e-09
-1.8117e-10
1.95161e-10
-1.38698e-09
1.37299e-09
-8.76948e-09
8.99216e-09
-7.57916e-09
-1.45846e-09
-8.08171e-09
8.57935e-09
9.60821e-10
5.413e-09
-4.89553e-09
9.64203e-09
7.00048e-10
-8.85675e-09
-7.75499e-09
4.74996e-09
1.04438e-08
-7.43882e-09
8.67596e-09
-8.82076e-09
2.42642e-10
-9.78412e-11
-8.95349e-09
1.21184e-09
8.37403e-09
-6.32378e-10
-1.86145e-09
9.93566e-09
8.52094e-10
-8.9263e-09
-7.13797e-09
-5.27761e-11
-3.03007e-12
-7.88522e-09
-7.10238e-10
2.9637e-10
-7.55834e-09
-2.30927e-09
2.495e-10
-5.28378e-11
5.15195e-10
-8.38157e-09
5.28268e-10
8.05387e-09
5.25881e-11
-8.63473e-09
-6.04318e-11
-4.84914e-09
4.90957e-09
-9.32992e-09
1.01059e-09
-4.37384e-10
8.75671e-09
-7.5365e-09
3.71331e-10
-1.16514e-09
3.5895e-10
-3.20099e-09
-7.68966e-11
2.91894e-09
6.24935e-09
-1.76244e-09
-4.4869e-09
-4.84827e-10
2.73748e-09
5.71533e-10
6.59741e-09
-8.62762e-09
2.56645e-09
-5.36236e-10
7.06213e-09
-3.1643e-09
-6.31514e-09
-4.08966e-09
3.53091e-10
3.73657e-09
2.17918e-10
7.78571e-09
-7.97004e-09
-3.35869e-11
5.06153e-09
-1.93628e-08
-1.00086e-08
1.31275e-09
4.53468e-10
-1.0761e-09
-6.91387e-09
-7.2564e-10
7.52651e-10
-7.3806e-09
-8.53386e-09
5.42799e-09
3.26669e-09
-1.6082e-10
-9.61566e-11
8.58457e-11
1.96311e-10
-1.86e-10
2.19402e-09
4.36257e-09
4.08237e-11
-1.48968e-08
-5.92806e-09
5.14318e-11
-1.04549e-10
-8.21224e-09
6.00075e-09
1.38542e-08
-1.16427e-08
5.73406e-09
-1.03743e-08
5.02523e-09
-3.85006e-10
-7.92307e-09
5.90214e-09
-9.02443e-10
-8.59017e-09
1.85108e-09
7.64154e-09
1.08354e-09
-2.60374e-09
9.213e-09
-7.6928e-09
-1.08405e-08
1.31056e-08
2.45088e-09
-4.71595e-09
-1.40845e-09
8.85682e-10
1.19239e-08
1.14764e-09
-1.57103e-09
4.11004e-09
-2.24721e-10
8.70063e-11
2.20993e-09
-1.98612e-09
-9.81466e-10
7.57665e-10
-3.03565e-10
-4.93285e-09
5.23642e-09
-1.16758e-09
3.54543e-10
8.09689e-09
-7.28385e-09
1.35114e-08
-1.20443e-10
-3.74889e-09
-4.07259e-09
-5.91811e-09
5.23733e-10
9.46697e-09
1.7982e-09
8.04547e-09
-2.60424e-09
-7.23943e-09
-3.93294e-09
1.18559e-08
6.83791e-10
-8.6068e-09
-9.32476e-09
6.52821e-09
3.68389e-09
1.0263e-08
-4.52207e-09
9.3649e-09
-1.51058e-08
-3.06804e-09
2.00751e-09
-6.74925e-09
7.80977e-09
5.59866e-11
-1.66501e-09
6.13842e-10
-1.55044e-09
9.50907e-09
-8.57247e-09
4.90914e-09
1.34661e-10
-5.0438e-09
-9.06818e-09
-4.28711e-09
1.04932e-08
2.86208e-09
-4.56657e-09
-6.05914e-09
6.1659e-09
-8.35797e-09
9.47928e-09
2.13956e-09
-3.26088e-09
-9.29354e-10
-7.97549e-09
8.2272e-10
8.08212e-09
3.90735e-09
-8.28082e-09
4.8067e-09
-4.33232e-10
-9.46793e-09
-1.27797e-09
9.28744e-09
2.13105e-11
4.9292e-09
-4.95051e-09
3.98264e-09
-9.18695e-09
-4.05122e-09
9.25553e-09
-9.87016e-09
3.75473e-10
7.44947e-10
8.74974e-09
8.82779e-09
-4.73154e-09
-5.21937e-09
1.12313e-09
-1.93324e-09
5.57761e-09
-1.19527e-08
4.96638e-09
-5.30368e-09
-1.09396e-08
1.12769e-08
-7.37044e-09
6.40289e-09
-2.13111e-09
1.78903e-09
-1.53518e-09
-8.39501e-10
5.85652e-10
5.00556e-09
-1.05609e-08
-1.25371e-08
1.80924e-08
6.89798e-09
-1.57146e-09
-7.31845e-09
1.99192e-09
8.4124e-09
-1.68738e-09
-2.72667e-11
-7.37729e-09
7.74726e-09
-7.64309e-09
-8.547e-10
4.30592e-10
8.0672e-09
-9.16948e-09
-9.6408e-09
1.28848e-08
5.92545e-09
-2.18319e-09
-8.34919e-09
8.50404e-09
2.02834e-09
-2.12563e-10
-1.1209e-08
-7.27125e-10
1.21486e-08
8.17627e-09
-8.40264e-09
-5.23311e-11
2.78699e-10
3.87108e-10
-2.01223e-10
-8.84802e-09
8.66213e-09
-8.82548e-09
1.3923e-09
6.73404e-09
6.9914e-10
8.25888e-09
-8.63485e-09
9.50353e-10
-5.74382e-10
7.1064e-11
-1.35368e-10
-3.99663e-09
1.98391e-09
1.63632e-10
-1.56383e-10
-7.21518e-09
-5.82211e-10
1.4466e-10
-1.28934e-09
-1.42624e-10
-7.1019e-09
-2.7372e-09
1.28274e-08
-1.43863e-08
4.29611e-09
-6.30151e-09
-4.43898e-09
4.79327e-09
1.16558e-08
-4.76299e-09
-8.60953e-09
1.71674e-09
8.41525e-10
-1.07593e-09
5.97045e-10
7.97155e-10
-1.12644e-08
1.53204e-08
-1.27708e-08
1.13475e-09
-3.68433e-09
-1.00693e-08
-1.39898e-10
8.1743e-09
2.03491e-09
3.57503e-09
-3.57454e-09
1.63421e-09
-7.88159e-09
-2.11058e-09
7.23553e-10
-9.2065e-10
2.39988e-10
-1.84722e-10
-1.07606e-10
5.23401e-11
1.35045e-09
-1.1575e-09
-3.74125e-10
-4.3363e-11
-1.16473e-10
7.95527e-11
8.02831e-11
-6.59677e-10
4.74951e-10
-5.49816e-09
-9.36175e-09
5.25779e-09
9.60213e-09
-1.62623e-10
-8.75913e-09
-1.45252e-09
4.40673e-09
-4.50257e-09
5.65351e-09
-5.55766e-09
7.94262e-09
-7.48106e-09
1.52283e-10
-6.13837e-10
-3.96966e-10
-3.28885e-09
-1.28282e-08
-3.28075e-09
4.30625e-09
1.18027e-08
-8.88212e-09
3.41713e-10
7.13049e-09
-8.09277e-09
4.84209e-10
4.78068e-10
4.7986e-09
-8.58085e-09
8.53221e-09
-1.9047e-09
-1.10043e-09
6.98133e-09
3.98652e-09
-8.39655e-09
8.39266e-09
-9.79518e-09
4.68709e-09
1.09571e-08
-5.84906e-09
-1.00874e-08
3.03793e-09
-2.4185e-09
1.17047e-08
-1.3227e-08
6.48866e-09
-2.68595e-11
4.82844e-09
-4.80158e-09
1.49392e-11
-3.10533e-09
8.36201e-09
-3.09324e-10
6.61933e-11
-3.22026e-09
2.61264e-09
3.00605e-09
-2.39843e-09
-2.46657e-10
-9.01398e-09
1.06625e-08
-1.40184e-09
-4.31071e-10
2.01635e-10
-6.90177e-09
6.88027e-09
-2.24693e-09
2.67677e-10
-4.90102e-09
5.78543e-09
-4.96971e-09
5.5089e-09
-6.32462e-09
-1.38665e-08
1.55139e-08
-8.89224e-09
-5.89333e-09
6.16625e-09
1.14318e-08
-1.92455e-09
-1.36408e-08
-8.86727e-09
1.06183e-09
-2.48655e-10
8.0541e-09
8.64956e-09
-5.66744e-10
-9.5994e-11
-7.98682e-09
-5.08334e-09
-1.26129e-08
4.51532e-09
-5.10923e-09
3.30424e-09
-2.71033e-09
-4.64924e-09
4.19659e-09
-3.2549e-09
3.70756e-09
-3.40648e-10
-7.84398e-09
8.13737e-09
4.7261e-11
-4.80914e-10
-4.34428e-09
8.92326e-09
-3.27794e-09
-3.85688e-10
-5.25964e-09
7.60254e-09
-5.25253e-09
-3.25852e-09
9.08519e-10
9.43424e-09
1.5563e-09
-2.67138e-09
1.21288e-08
3.21904e-09
-6.98947e-09
-8.35835e-09
1.04493e-09
9.38182e-09
1.70203e-09
-4.49054e-09
-4.26782e-10
-1.15105e-09
6.06838e-09
4.38838e-10
-3.69088e-10
-1.35967e-10
6.62163e-11
2.95976e-10
8.27912e-09
-7.9301e-09
-6.44993e-10
7.36073e-11
4.23051e-09
-4.30412e-09
-4.54703e-09
-5.15295e-09
6.67215e-09
-2.56586e-09
4.39582e-09
-8.5021e-09
-1.79958e-09
-1.10082e-08
7.50407e-09
-4.17028e-09
8.78994e-09
7.34742e-10
-9.69395e-09
-1.47353e-09
1.83757e-09
-7.30726e-09
3.25179e-09
3.91711e-09
1.38366e-10
7.49517e-11
-1.41101e-10
1.1603e-08
-1.24816e-08
-1.12841e-09
4.83868e-09
-4.54271e-09
-1.10891e-08
4.79322e-10
1.11148e-08
-1.01942e-09
1.43902e-09
4.62218e-09
6.85094e-09
-6.70307e-09
-2.27398e-10
7.95262e-11
-6.04579e-10
6.93336e-10
-1.78896e-10
9.01384e-11
-1.90146e-10
8.74661e-09
-7.34565e-09
-3.64164e-09
2.04305e-09
8.94424e-09
-8.39671e-10
-1.30685e-08
5.63151e-10
7.87458e-09
-7.96526e-09
1.05935e-10
-1.52479e-11
-3.69834e-09
3.42103e-09
-2.94295e-09
4.46888e-10
-4.40167e-09
3.95478e-09
-4.87425e-10
5.69865e-10
-4.10657e-10
3.28216e-10
-8.36678e-10
9.83007e-10
-2.66716e-10
1.20387e-10
1.39346e-09
2.61106e-09
-2.28067e-09
-9.10083e-09
8.77044e-09
5.95473e-09
3.6906e-09
9.65774e-11
-9.74191e-09
-8.81725e-09
-5.81508e-09
7.37683e-09
7.25549e-09
-7.29396e-09
3.27577e-10
-6.76707e-10
3.23914e-09
5.87201e-09
2.47243e-10
-9.3584e-09
-3.08783e-10
1.56463e-10
-7.7329e-09
-1.46966e-09
1.33417e-09
-2.17217e-09
2.30765e-09
-9.55019e-09
5.33985e-09
-1.51007e-09
5.72041e-09
5.02935e-09
4.75308e-09
-2.25264e-09
-7.52979e-09
7.62613e-09
1.99481e-10
-9.57253e-10
-6.86836e-09
-3.82955e-09
-7.50024e-09
3.82693e-10
1.09471e-08
3.01788e-10
-1.16997e-10
5.51976e-11
-6.28725e-09
-2.87842e-09
5.01167e-09
4.154e-09
-1.89283e-09
-9.58187e-09
6.39388e-09
5.08082e-09
2.59601e-09
2.34285e-10
8.44613e-09
-8.35579e-09
-1.46012e-10
5.56785e-11
7.92849e-09
-1.68682e-09
-5.83085e-09
-4.10816e-10
2.57337e-09
-1.08634e-08
-1.84297e-09
1.0133e-08
-8.03541e-09
-7.71019e-10
8.75359e-09
5.14639e-10
-1.44745e-10
6.89446e-11
6.30401e-09
-1.17094e-10
-6.24183e-09
5.49077e-11
8.49348e-09
2.55267e-10
-7.2789e-11
-7.74711e-09
-7.34e-10
8.09291e-09
3.88199e-10
2.2435e-10
-2.08675e-10
7.87572e-09
-7.8914e-09
2.17073e-09
8.42164e-09
-1.2392e-08
-7.70789e-09
4.05631e-09
-1.85241e-09
5.504e-09
8.64914e-09
4.28332e-11
5.5883e-11
-8.74785e-09
-9.59131e-09
-1.59442e-09
2.23224e-09
7.57436e-09
4.80546e-11
8.37306e-09
-8.25556e-09
-1.65554e-10
7.69751e-09
-1.7222e-10
1.00845e-10
-5.41572e-09
6.36325e-09
-5.59173e-09
4.6442e-09
-2.29257e-09
9.61442e-09
1.09054e-09
6.65112e-09
-6.51804e-09
-2.04342e-10
7.12563e-11
2.95424e-09
8.4921e-09
-7.88876e-09
-3.55758e-09
-4.4366e-09
-1.45091e-09
1.53474e-09
4.35277e-09
-7.67953e-09
7.62608e-09
9.91699e-11
-4.57243e-11
-1.06173e-08
-1.51937e-09
1.07282e-08
2.33682e-11
9.06417e-09
-9.04766e-09
-1.6543e-09
1.63779e-09
7.47777e-11
-1.64718e-10
4.03475e-09
-4.91917e-09
-1.34731e-09
2.23173e-09
9.55969e-11
-2.38938e-10
-1.36924e-08
1.66098e-08
1.77502e-10
-1.21823e-09
1.23589e-09
-7.70528e-09
1.54059e-09
8.77575e-09
-7.29287e-09
-6.54902e-09
1.8757e-09
-1.37898e-08
7.41926e-10
-1.59208e-09
1.46399e-08
9.17408e-09
-3.04724e-09
-1.06739e-08
-6.98916e-09
1.19798e-10
-4.87894e-10
7.35725e-09
6.01656e-10
-8.10835e-10
8.16044e-09
-7.95126e-09
-1.75768e-09
-7.69471e-09
8.04603e-10
8.64778e-09
5.79995e-11
-1.253e-10
-6.21651e-09
4.97841e-09
-9.70148e-09
-1.52914e-08
-2.65122e-09
7.85523e-09
-5.41324e-09
2.42807e-09
-5.81152e-09
8.79669e-09
-2.37383e-09
-2.02341e-09
2.92758e-09
7.74696e-09
-3.53311e-09
8.93713e-11
8.28337e-10
2.6154e-09
9.98913e-09
-2.11827e-09
7.78745e-10
-8.6496e-09
-9.37691e-09
9.00387e-09
7.48514e-10
7.3946e-09
-7.49772e-09
1.52467e-10
-4.93474e-11
5.30676e-09
-5.74249e-09
6.75245e-09
-6.31673e-09
-6.79499e-09
4.66158e-09
-3.54559e-09
5.67899e-09
1.10034e-09
6.0167e-11
-1.48214e-09
3.54699e-09
1.9699e-09
-1.14903e-08
8.06164e-09
1.53585e-09
-2.26566e-09
-1.06294e-08
3.91267e-09
-1.89115e-09
-3.53933e-09
-2.87073e-09
-9.41411e-09
1.1633e-08
6.51805e-10
-1.25138e-09
-8.77238e-09
1.62148e-09
8.40227e-09
-8.45417e-11
2.74513e-09
-1.06245e-08
1.8264e-09
-2.50584e-09
1.13039e-08
-8.28652e-10
4.26674e-10
-7.15636e-09
-3.18984e-09
1.1146e-08
1.52316e-09
1.91763e-09
8.12105e-09
-8.97413e-09
1.01874e-08
4.49595e-09
-1.40863e-08
-8.20229e-09
2.015e-09
9.40633e-09
-5.80983e-09
5.03866e-09
-5.89046e-09
6.66163e-09
6.82822e-09
-6.47975e-09
-9.67323e-09
-3.43112e-09
9.62457e-09
6.06032e-09
-2.14818e-10
-5.84995e-09
4.44889e-12
7.26444e-09
-6.89621e-09
1.71889e-09
-2.08712e-09
-8.39263e-10
-1.18787e-08
8.50193e-09
2.44848e-10
-7.66323e-09
-1.31469e-10
4.63854e-11
-9.96387e-11
3.20332e-09
1.29895e-08
-1.61928e-08
-3.37442e-09
-4.67952e-09
2.05232e-09
6.00161e-09
-7.29595e-09
8.27594e-11
-2.17364e-11
7.23492e-09
-2.09966e-11
4.91772e-11
-7.16615e-09
-1.01568e-08
-3.58184e-09
1.05488e-08
8.39561e-09
-7.55697e-09
-1.85171e-09
1.01307e-09
-8.18439e-09
1.29666e-09
8.52193e-09
-1.01828e-08
8.86365e-12
9.8709e-09
3.03011e-10
2.9962e-09
-1.64943e-09
1.73617e-09
-3.08294e-09
1.29387e-09
-1.17292e-08
-5.45566e-10
1.09809e-08
6.46162e-09
-2.08382e-10
5.0777e-11
-8.88472e-10
1.39511e-09
3.06839e-09
-9.61931e-09
2.60092e-09
7.09812e-09
4.30445e-11
-8.74157e-11
-8.70973e-11
1.50158e-09
1.23363e-08
-2.46085e-09
-1.1377e-08
-7.50983e-09
9.65702e-09
8.16907e-09
-1.03163e-08
-4.2977e-09
-4.5755e-09
1.16793e-09
2.25822e-10
7.35814e-09
8.65169e-09
-5.7287e-11
9.73718e-10
-9.16431e-10
-5.28898e-09
4.60152e-09
-4.72892e-09
2.51957e-10
8.90084e-09
-5.03656e-10
-6.0712e-10
5.80912e-10
-1.0296e-09
1.05581e-09
-1.37671e-09
9.14478e-10
-9.95329e-09
1.04155e-08
-5.04622e-09
7.59488e-09
3.9708e-09
-6.51947e-09
-2.58279e-11
-3.5437e-10
4.56854e-11
3.34512e-10
9.3353e-11
-1.6795e-09
1.96451e-09
-3.78362e-10
-1.91423e-09
9.01059e-09
-5.62878e-09
-1.46757e-09
-3.82195e-09
4.29436e-09
5.08176e-09
-5.55417e-09
4.35244e-09
-6.53187e-09
-3.01941e-09
5.19883e-09
4.33281e-09
9.60013e-09
-6.66849e-09
-1.00768e-08
1.49704e-09
2.99774e-12
1.49827e-11
-4.79587e-09
4.90793e-09
-3.83271e-09
3.72065e-09
-7.45124e-09
-4.75947e-09
-1.07294e-08
-1.00465e-08
8.86047e-09
7.50123e-09
-6.31525e-09
-1.13112e-09
1.06505e-09
-5.4105e-10
-1.07483e-08
-1.7595e-09
-1.04915e-09
-8.90259e-09
7.54567e-09
1.36472e-10
-5.60587e-11
2.11835e-09
8.90317e-09
-1.6382e-09
8.59156e-09
3.36318e-10
-1.15698e-08
1.09645e-08
-2.67547e-09
-5.79276e-09
7.04473e-09
-8.43478e-09
7.1828e-09
3.18733e-09
-6.17463e-09
-3.43272e-09
6.42002e-09
-3.64017e-09
-4.49837e-09
4.4402e-09
-5.85693e-09
8.13155e-10
-1.4495e-09
1.29265e-09
2.50205e-10
-7.43134e-09
7.80984e-10
7.09725e-09
3.0624e-10
-1.47985e-08
9.03724e-09
5.45504e-09
-1.2147e-08
1.0391e-08
3.25764e-09
4.11455e-09
-1.41791e-08
1.22353e-08
-2.5953e-09
4.34599e-10
9.76324e-09
3.8825e-09
1.77518e-09
-2.23665e-09
-9.78583e-09
9.23547e-09
5.72736e-09
-5.177e-09
1.73606e-09
-1.7811e-09
3.04125e-09
-2.18595e-09
3.94476e-09
-1.24929e-08
-4.73174e-09
-1.22528e-08
-1.24151e-09
4.91785e-09
8.06241e-09
-8.18166e-09
1.20876e-09
-8.20709e-10
1.92863e-10
8.24681e-10
-1.19739e-08
-4.54129e-09
1.56905e-08
6.12585e-09
-5.56661e-09
3.11894e-09
-3.67817e-09
-8.28591e-09
1.37804e-09
-1.08265e-09
7.99053e-09
-4.34995e-10
9.95519e-10
3.50395e-10
-9.1092e-10
-8.26893e-10
-7.0221e-09
7.58659e-09
2.62404e-10
7.03202e-09
-7.81088e-09
-4.63438e-09
4.54808e-10
-6.28491e-10
-1.43338e-09
1.60706e-09
-1.2786e-08
8.58012e-09
-5.57992e-09
5.77016e-09
1.37904e-09
6.36217e-09
-1.5013e-09
-8.19878e-09
1.41417e-09
1.30357e-08
3.34962e-09
6.69754e-09
4.98935e-09
-6.88888e-09
-4.79801e-09
1.00995e-09
-3.74812e-10
5.60249e-10
-1.19538e-09
-5.13694e-10
-5.07738e-09
-2.20107e-09
7.79215e-09
-7.22305e-10
6.69346e-10
3.30625e-10
-2.77666e-10
4.3476e-09
-7.52837e-11
1.47844e-10
3.07766e-10
-3.80326e-10
4.90935e-10
-7.61634e-09
-5.7874e-11
7.18328e-09
1.89505e-10
7.60929e-09
-8.89512e-09
1.09632e-09
-8.06557e-11
2.45208e-09
6.28026e-09
-8.5889e-09
1.39725e-08
1.10353e-08
-1.13787e-08
-2.3079e-09
-4.07971e-09
4.73996e-09
-1.02421e-08
-7.90173e-10
9.27766e-10
-5.72587e-10
-2.87684e-09
-8.67428e-09
2.31278e-09
9.23834e-09
6.50324e-09
-6.28485e-09
6.60983e-09
-1.24653e-09
1.1841e-10
-2.93788e-11
7.57707e-09
-1.03431e-08
-5.26935e-09
-2.68694e-09
5.93456e-10
-1.24705e-08
1.27018e-08
4.01733e-10
-8.44232e-10
-8.04032e-10
1.44589e-09
-1.65484e-09
1.94501e-09
7.26512e-09
-4.85752e-09
-2.9213e-09
-6.90209e-09
4.17708e-09
-3.75473e-09
-1.05726e-08
9.91794e-09
-6.23339e-10
6.25594e-09
-6.59422e-09
-1.29418e-09
1.63246e-09
-1.02525e-08
-2.1641e-09
3.20186e-09
9.21479e-09
8.63874e-09
-6.26847e-09
-4.2845e-09
7.79223e-09
6.74505e-09
-7.94307e-09
-6.59421e-09
-7.95385e-10
8.25565e-10
3.71553e-10
8.99857e-09
-9.13055e-09
-4.83404e-10
6.15385e-10
9.20806e-09
-6.14737e-09
1.11504e-08
-6.43474e-09
-1.11393e-08
6.4236e-09
9.85461e-09
-6.51507e-09
8.23438e-09
-2.01453e-09
-8.31461e-09
2.59822e-10
6.22591e-09
-2.0008e-10
3.44823e-11
1.29559e-08
-6.6002e-09
5.31523e-09
-1.16709e-08
-6.28996e-10
7.12418e-10
-3.33917e-09
5.58219e-10
-1.27406e-09
4.05501e-09
8.44508e-09
1.0512e-09
-9.92853e-10
-2.09981e-10
-8.23987e-10
3.11662e-10
-3.10565e-09
8.58091e-10
-2.117e-09
2.3037e-09
-1.16816e-09
2.97407e-09
1.14628e-08
2.5639e-09
-8.7712e-09
-5.25548e-09
-2.16311e-09
2.51661e-10
1.09153e-08
-1.95574e-09
1.44299e-09
-1.24188e-08
1.15693e-08
8.16436e-09
1.90789e-09
-8.03284e-09
-2.03941e-09
-1.42638e-09
5.46947e-09
-6.99699e-11
-4.40529e-10
1.86488e-10
4.25986e-09
-3.82194e-09
8.79755e-09
7.97365e-09
-1.92535e-09
1.21683e-09
-1.36695e-09
1.23988e-09
-2.69951e-09
2.82658e-09
-3.32136e-09
-1.22487e-08
-7.99144e-09
3.82792e-11
-1.21008e-11
-6.99619e-09
-1.36673e-08
1.73421e-08
-1.11756e-08
7.40346e-09
-6.27428e-09
-9.86728e-09
4.56003e-09
6.67095e-09
-1.3637e-09
9.60455e-09
-8.11721e-09
3.17424e-09
3.63448e-10
9.88664e-09
-1.23496e-08
2.09949e-09
4.17525e-09
-4.06307e-09
-1.12179e-10
-6.7121e-09
-5.80765e-10
-8.01177e-09
2.7497e-09
5.28104e-09
-5.37251e-09
-4.71934e-09
4.8108e-09
2.26539e-10
-4.97899e-10
-7.0226e-09
4.07652e-10
1.61027e-10
8.42989e-09
7.07964e-09
-7.82848e-09
-6.95905e-09
4.68921e-09
-4.83611e-09
7.08946e-09
-6.94256e-09
2.51478e-09
1.05768e-08
-3.472e-09
-9.61963e-09
8.71846e-09
-8.95651e-09
-2.05452e-09
8.79096e-09
-8.70406e-09
1.16368e-09
-1.25059e-09
-1.39295e-08
-3.4031e-10
4.74102e-09
-4.71534e-09
2.67881e-09
6.97546e-09
-9.5722e-09
-8.20691e-11
8.9573e-09
4.82669e-09
-8.01383e-09
-6.67525e-10
-9.30613e-09
1.2092e-08
1.16936e-09
5.77264e-09
-6.942e-09
-1.27695e-09
-6.92409e-09
3.15059e-09
5.05046e-09
-9.50618e-10
-9.28423e-09
1.08628e-08
-1.14694e-09
1.56174e-09
2.26252e-10
-6.41049e-10
-2.99598e-10
8.44216e-09
6.63703e-11
-1.07366e-10
5.01064e-10
-4.60068e-10
8.93963e-09
-7.33541e-09
3.31362e-09
7.0636e-09
-1.38776e-09
1.13936e-09
-6.8152e-09
-1.29064e-09
-6.9579e-09
-1.14838e-08
1.66449e-09
1.21886e-08
-6.76159e-09
-1.06795e-08
-9.16973e-09
4.69986e-09
-4.11097e-09
-2.7888e-10
7.84416e-09
-7.86858e-09
3.03305e-10
6.75938e-09
-5.67899e-09
1.03824e-08
4.21298e-10
-5.79707e-10
6.81911e-10
-5.23503e-10
6.50597e-09
8.00917e-09
2.61877e-10
3.01311e-10
-8.57236e-09
9.29185e-10
9.21378e-09
-2.25019e-10
-1.6453e-08
-3.2138e-09
1.13779e-08
8.28894e-09
4.38839e-10
-1.30568e-09
-5.71349e-09
1.03667e-08
-1.16897e-09
8.81229e-09
9.3603e-10
1.56192e-09
-1.3756e-09
2.34553e-10
-4.20881e-10
-8.48577e-09
-1.1421e-09
6.75104e-09
-9.34977e-09
-3.26155e-09
7.81545e-09
1.04015e-09
2.90657e-12
-7.61017e-09
-9.79384e-10
7.5161e-09
1.07346e-09
9.49727e-09
-1.30911e-09
3.13764e-10
2.3245e-09
9.90936e-09
-1.28572e-08
9.45592e-10
5.70335e-09
2.96549e-09
4.08617e-09
-3.54875e-09
4.15179e-09
1.21081e-09
-8.14681e-09
-8.01738e-09
1.04381e-09
-6.47255e-10
7.05001e-10
3.63552e-10
-1.6282e-09
-6.4632e-09
1.06553e-08
-1.34599e-09
1.2311e-09
1.56078e-09
-9.08481e-09
9.79454e-09
-2.67683e-09
1.30486e-08
9.31997e-09
3.93059e-09
-8.9907e-09
1.15148e-10
7.32507e-09
-4.56189e-11
4.56016e-09
6.17891e-09
-7.46179e-09
-3.27728e-09
-8.88757e-09
9.31012e-10
-2.94407e-10
8.25097e-09
4.82367e-09
8.71337e-09
-1.13344e-08
-2.20266e-09
-1.64382e-09
1.93453e-09
-1.1302e-09
6.95961e-10
7.97092e-09
-3.1732e-09
-9.32302e-09
-6.13511e-10
9.49892e-10
-7.61032e-09
7.27394e-09
1.10471e-08
-7.0533e-09
-7.87347e-09
6.77269e-09
8.15408e-09
9.64435e-10
-1.01247e-09
-1.07976e-09
1.1278e-09
6.94569e-09
3.06205e-10
-1.10376e-09
-2.54161e-09
-8.4336e-09
-4.98343e-09
6.50911e-09
-2.20756e-09
-6.31974e-09
1.5052e-09
-8.91565e-09
-1.76166e-09
1.98166e-09
1.83096e-10
-4.03096e-10
5.99307e-09
-6.48254e-09
-4.34664e-09
8.15953e-10
1.0857e-09
-1.56834e-08
1.37818e-08
5.68457e-09
-6.03669e-09
8.80794e-09
-8.45583e-09
9.05875e-09
2.16377e-09
-3.20481e-09
-3.72988e-09
2.87847e-09
4.05623e-09
-6.74007e-09
2.79675e-11
-5.09752e-10
-2.51623e-11
3.01964e-10
2.3295e-10
-4.55453e-09
-4.67222e-09
7.59855e-09
-4.97566e-09
-8.67057e-09
6.7521e-09
6.89413e-09
2.14103e-09
8.34021e-09
-8.62676e-09
-1.85447e-09
-3.73827e-09
7.90683e-09
-1.06777e-08
1.35419e-08
-1.0771e-08
8.56576e-09
-1.00628e-09
-2.89018e-09
3.52684e-09
-8.71234e-09
8.07568e-09
4.63581e-09
-4.68585e-09
-1.98618e-10
6.31187e-10
-6.30095e-10
1.97527e-10
7.85204e-09
3.78616e-11
-5.31631e-09
8.88582e-09
7.70991e-09
-8.49111e-09
-3.2914e-09
4.6896e-09
-2.03011e-09
7.71976e-09
-1.03792e-08
9.20094e-09
1.51461e-10
-3.51197e-10
-2.48934e-09
5.76345e-09
6.38291e-09
-8.10451e-09
2.71452e-09
-1.82002e-09
7.21e-09
-4.25032e-09
-5.17675e-09
-8.59426e-10
6.03618e-09
-6.98741e-09
-2.39533e-09
4.40707e-09
-6.8059e-09
-9.76155e-09
7.75021e-09
-5.59204e-10
4.87068e-10
7.13573e-09
1.25901e-09
-4.96835e-10
4.46583e-10
1.60662e-08
-9.90307e-09
-5.8569e-09
5.01624e-09
3.99865e-09
-4.23335e-10
9.37825e-10
6.59967e-09
-1.00599e-08
6.94636e-09
-3.48612e-09
1.04087e-10
-1.11497e-10
-7.98403e-09
9.86617e-10
-8.02997e-10
-5.24207e-09
3.73634e-09
5.28359e-09
-3.77786e-09
4.05593e-09
-4.3857e-09
-9.37805e-09
9.70783e-09
2.91338e-10
-3.46011e-10
2.74101e-10
-2.19428e-10
1.09913e-08
1.2468e-08
-1.40167e-08
-9.44271e-09
1.93811e-10
7.15683e-11
-1.67303e-10
-9.80762e-11
-5.58844e-09
4.70619e-09
-1.70062e-08
1.47406e-08
5.38003e-09
-4.42177e-09
-4.29372e-10
-5.28886e-10
-2.12024e-10
-6.53294e-10
6.55338e-10
4.28156e-09
-1.10598e-09
7.46654e-09
-1.06421e-08
-2.69782e-09
1.07363e-08
-7.95218e-09
-8.63333e-11
1.97749e-09
-9.62889e-09
-8.80159e-09
-2.20549e-09
2.46449e-09
2.15268e-10
-4.7427e-10
-8.28403e-09
6.75162e-09
7.6711e-09
-9.30765e-10
4.20396e-10
-7.16073e-09
5.80668e-09
4.6244e-09
-6.57504e-09
-3.85604e-09
-7.07388e-10
1.0386e-09
6.23606e-11
-9.56616e-10
-4.81341e-10
8.8359e-09
-5.05454e-09
2.97803e-09
-6.59238e-09
8.64587e-09
5.91354e-09
-7.96703e-09
-5.35327e-09
-8.50593e-09
-3.54992e-09
3.25399e-09
3.19837e-09
-2.90244e-09
-5.1873e-10
-1.54217e-10
-1.5104e-10
-1.0922e-08
-2.22283e-09
-8.71462e-09
-1.69395e-09
5.41287e-10
7.85909e-09
-2.72445e-09
-4.65535e-10
-4.73559e-09
1.64675e-08
-1.12664e-08
-8.44555e-09
8.68419e-09
-3.52742e-09
1.09094e-08
8.16607e-10
-8.72818e-10
1.02065e-09
2.06613e-09
8.26604e-09
-1.6896e-10
-1.01632e-08
9.97369e-09
-1.23299e-09
9.84365e-09
-2.60542e-09
-7.79744e-09
-4.1248e-10
9.56732e-11
1.35633e-08
4.51158e-09
-1.39603e-08
4.57818e-10
-3.93747e-10
2.27267e-10
7.33681e-09
-1.03229e-08
9.14141e-09
7.58615e-09
-6.40462e-09
-6.1081e-10
4.98158e-10
-1.03429e-09
8.17658e-09
-1.16153e-09
6.2487e-10
-7.63991e-09
5.03128e-09
-1.71088e-09
5.12467e-09
-5.67422e-13
5.41792e-09
-1.53204e-08
-1.25146e-09
8.44165e-09
-3.2997e-09
2.96843e-09
-3.21865e-09
-3.31494e-09
-8.51292e-09
2.21118e-09
9.61668e-09
-3.63922e-09
2.63805e-09
-6.13138e-10
6.84909e-10
-2.70389e-10
3.88428e-09
-7.87502e-09
7.97003e-09
7.98836e-09
-8.08337e-09
-1.06132e-08
1.13947e-08
6.62196e-09
4.31937e-09
-4.28109e-09
1.4e-08
-1.26265e-08
-1.37349e-09
-1.9472e-09
1.14554e-09
2.13583e-09
-9.89568e-10
1.75276e-09
-4.06715e-09
3.30395e-09
4.15674e-09
-1.08228e-08
8.1091e-09
-6.85234e-09
-5.00737e-09
-7.452e-09
1.84032e-10
7.89418e-09
-7.14664e-10
-7.36354e-09
2.78731e-09
-2.42512e-09
-2.16791e-09
1.80572e-09
-4.26533e-09
1.05012e-08
-7.92697e-10
4.22786e-10
-2.77344e-10
-9.06271e-09
6.12996e-09
3.88935e-09
-9.56594e-10
3.48772e-09
-5.51485e-09
-3.53948e-09
2.17371e-09
-8.50974e-09
1.05086e-08
4.22634e-09
-5.41497e-09
4.94713e-09
7.30876e-09
-4.39681e-09
-8.55907e-09
8.5483e-09
8.69495e-09
7.5615e-09
-3.75454e-09
3.74611e-09
1.71954e-10
-3.55615e-11
-2.47283e-09
4.68111e-09
-5.84845e-09
-2.1674e-09
1.14538e-10
6.13903e-09
3.61101e-09
-8.54472e-10
1.96574e-10
-4.20404e-10
-7.68936e-09
-1.78001e-10
-7.21399e-09
-2.91943e-09
2.40997e-09
-1.13997e-09
1.03596e-09
7.42701e-09
-6.29658e-10
2.8072e-09
1.15786e-09
-9.04531e-10
-6.27455e-10
2.0359e-09
2.35193e-09
-3.57345e-09
1.86121e-09
4.96623e-09
9.85355e-09
-1.02316e-08
-8.18103e-09
9.95139e-09
-8.35568e-09
-5.59327e-11
5.68717e-09
-1.14535e-08
1.18627e-08
-4.09273e-10
5.61245e-09
-1.25455e-09
6.27007e-09
-5.79217e-09
5.13455e-09
6.41313e-09
-4.70963e-09
-6.35975e-09
6.65881e-09
-3.46336e-09
3.88751e-09
-3.83413e-09
5.10452e-09
-4.38082e-09
-7.23698e-10
-1.37175e-10
5.56338e-10
-7.07708e-09
-1.02063e-10
-1.13514e-08
-6.75915e-09
5.41267e-09
-1.46298e-09
2.80946e-09
2.50747e-09
4.10682e-09
-3.41593e-09
6.0876e-09
-8.04556e-09
-8.79033e-09
-1.44722e-10
1.04501e-09
-1.81967e-09
-1.17254e-09
7.94759e-09
-1.1086e-08
7.04578e-09
-2.97689e-09
-8.81458e-09
3.80162e-09
-4.99005e-09
-3.99374e-09
5.18218e-09
3.54658e-09
-5.96829e-09
6.13076e-09
-3.70904e-09
8.2679e-09
-1.63836e-09
3.34415e-09
2.64288e-09
5.75468e-09
-8.20805e-09
-8.84942e-09
1.01618e-08
-1.612e-09
-2.34124e-11
9.65461e-10
-3.60264e-09
2.66059e-09
7.77636e-09
-4.28436e-10
-8.56905e-09
4.07291e-09
8.65288e-09
-4.32544e-09
-8.51318e-10
1.31006e-09
-8.05426e-09
8.12223e-09
7.17736e-09
-5.46829e-09
-5.84537e-09
2.64456e-09
1.35413e-10
-1.79632e-10
4.4219e-11
9.79558e-09
-6.9322e-09
6.99016e-09
6.05855e-10
2.95037e-09
-1.52033e-09
1.58104e-08
2.65703e-09
-1.211e-08
-6.35744e-09
1.06291e-08
8.89925e-09
7.0449e-09
-6.80274e-09
9.45194e-10
-1.21549e-09
-1.25005e-08
-1.97274e-09
1.61511e-09
-1.29722e-09
-8.74279e-09
5.11557e-10
-1.3066e-10
8.36189e-09
-4.86026e-09
4.36855e-09
6.20235e-09
-3.38124e-09
-1.3644e-08
1.02285e-08
-7.57917e-09
8.342e-09
-3.00626e-09
-7.79683e-09
-7.61317e-10
5.24321e-09
2.791e-09
-3.6507e-09
2.61246e-09
-3.37872e-10
-2.6657e-10
2.58431e-10
4.84925e-09
-3.83103e-09
7.04419e-09
7.00653e-10
-7.63471e-09
3.94773e-10
6.53928e-09
9.20503e-11
3.4925e-09
2.57011e-10
-3.26402e-09
-4.85494e-10
5.15399e-11
-9.1625e-09
5.70253e-12
-7.21023e-11
1.20053e-10