/*--------------------------------*- C++ -*----------------------------------*\
  =========                 |
  \\      /  F ield         | OpenFOAM: The Open Source CFD Toolbox
   \\    /   O peration     | Website:  https://openfoam.org
    \\  /    A nd           | Version:  8
     \\/     M anipulation  |
\*---------------------------------------------------------------------------*/
FoamFile
{
    version     2.0;
    format      ascii;
    class       surfaceScalarField;
    location    "9";
    object      phi;
}
// * * * * * * * * * * * * * * * * * * * * * * * * * * * * * * * * * * * * * //

dimensions      [0 3 -1 0 0 0 0];

internalField   nonuniform List<scalar> 
11624
(
-7.94205e-09
8.11706e-09
1.77732e-10
-3.52738e-10
-7.34687e-09
-2.85786e-10
-3.09395e-10
-2.10254e-09
1.38766e-10
1.84978e-09
1.13987e-10
8.77226e-09
-7.66964e-09
1.84542e-09
-2.94804e-09
-6.06768e-09
5.72316e-09
1.38152e-11
3.30706e-10
-6.18862e-09
4.35287e-09
1.51148e-09
3.24261e-10
-1.47019e-09
-2.84978e-10
-2.96904e-09
4.72421e-09
-8.51002e-10
2.29485e-09
3.1939e-09
-4.63775e-09
3.03841e-09
-2.37094e-09
-3.33988e-09
2.67241e-09
-3.4143e-09
-1.59674e-09
2.66301e-09
2.34803e-09
5.03581e-09
-4.6317e-09
-2.34543e-10
-1.69567e-10
2.03123e-09
4.82109e-09
-2.00722e-09
-4.8451e-09
-2.83636e-09
-4.30138e-09
2.2623e-09
4.87544e-09
-4.04061e-09
5.19731e-09
-1.22685e-09
7.01411e-11
-1.56772e-09
4.45137e-09
-3.966e-09
1.08235e-09
-3.98914e-09
2.86386e-09
-2.75224e-09
3.87752e-09
4.1995e-09
-4.16744e-09
-1.00583e-10
6.85165e-11
-3.74628e-09
4.85497e-09
-1.21284e-09
1.04144e-10
-2.75376e-09
3.89818e-09
-4.57663e-09
3.43222e-09
-3.23319e-09
-1.58795e-09
1.95103e-09
2.8701e-09
3.3492e-09
-3.8073e-09
2.21062e-10
2.37036e-10
-3.64111e-09
4.45702e-09
-3.47126e-10
-4.68782e-10
5.41451e-09
-5.42458e-09
4.36101e-11
-3.35412e-11
6.19864e-09
-2.062e-09
8.6195e-10
-4.99859e-09
5.11512e-09
-4.81777e-09
-3.10323e-10
1.29796e-11
-4.90042e-09
1.47211e-09
4.30431e-09
-8.76004e-10
2.49382e-09
-4.04035e-09
-3.40469e-09
4.95122e-09
2.5962e-09
-2.42565e-09
-3.13953e-09
2.96899e-09
-2.77637e-09
3.35604e-09
-4.29968e-09
3.72002e-09
-5.95192e-09
4.62806e-09
-3.97519e-09
5.29906e-09
5.40445e-09
-3.53502e-10
6.41644e-11
5.30811e-09
-1.89762e-10
2.96166e-10
-5.52358e-09
5.1405e-09
5.35008e-10
-1.51929e-10
-5.4256e-09
4.6556e-09
1.05385e-09
-2.83861e-10
5.64589e-09
-2.39659e-10
-1.78202e-12
-4.59235e-10
-2.85338e-11
-5.13869e-09
6.10952e-10
-2.90035e-10
-8.90647e-10
5.01353e-09
-5.5685e-09
1.44562e-09
-3.59365e-09
3.25111e-09
-7.18436e-10
1.75713e-10
-3.96477e-09
1.75555e-09
-1.22984e-09
3.43906e-09
2.63586e-09
-4.21481e-09
-2.40511e-09
3.98406e-09
2.91993e-10
8.29345e-11
7.74213e-09
6.06248e-11
-4.84065e-09
-6.44557e-10
5.48656e-09
-2.89949e-10
-6.23959e-09
1.04297e-09
2.12244e-09
-1.84743e-09
-2.88534e-09
2.61033e-09
-9.26437e-09
-3.7068e-10
2.28818e-09
3.23243e-09
9.2357e-10
-1.77005e-09
-2.38595e-09
8.77413e-09
-7.42291e-09
4.78353e-09
-6.13475e-09
4.19001e-09
-3.97857e-09
3.10927e-09
-3.32071e-09
-1.82586e-09
-6.20856e-10
3.44179e-10
3.86521e-09
-4.24041e-09
-4.93075e-09
5.30595e-09
1.09965e-09
-1.06442e-09
3.58031e-09
-3.61554e-09
-3.62563e-09
-1.10447e-09
4.7781e-09
-4.79996e-11
3.30693e-09
5.17405e-09
-5.5237e-09
-2.95728e-09
6.71515e-10
-4.50358e-10
2.30559e-10
-4.51716e-10
2.04081e-09
-9.22801e-10
5.11428e-09
-6.23228e-09
-2.06372e-09
2.60402e-09
8.23197e-09
-5.4277e-09
1.70289e-09
-9.55224e-11
3.82033e-09
3.4305e-09
-3.74369e-09
8.4464e-10
-5.3145e-10
-2.81491e-09
3.66005e-09
1.46367e-09
-2.30881e-09
4.63037e-09
-3.96541e-09
-2.89865e-09
2.2337e-09
-5.99701e-10
1.55456e-09
-5.19714e-09
4.24228e-09
-7.04835e-09
5.97999e-09
-3.15494e-09
4.2233e-09
1.6516e-09
-7.48521e-10
-3.88143e-09
2.97835e-09
-2.1961e-10
2.35744e-10
-2.30676e-10
2.14542e-10
-1.61207e-09
4.37778e-09
-3.61671e-09
2.42397e-09
-3.8389e-09
3.36005e-09
-1.94512e-09
-4.86015e-09
-7.46954e-11
4.0442e-09
2.16061e-10
2.23123e-10
-2.22305e-10
-2.16879e-10
2.36542e-09
7.36188e-09
-1.06778e-08
9.50551e-10
2.72417e-09
-2.80008e-09
-3.58164e-09
3.65754e-09
1.73381e-09
4.84896e-09
-1.31147e-09
-5.2713e-09
4.13048e-09
-3.62427e-09
-3.57396e-09
3.06775e-09
-1.01621e-09
5.62159e-11
1.47397e-09
-5.1398e-10
-4.74971e-09
-2.64269e-09
2.99775e-09
4.39466e-09
-2.67398e-09
-3.52608e-09
3.49335e-09
2.70671e-09
-4.92277e-09
4.63831e-09
-6.10208e-10
8.94662e-10
-5.1146e-09
-7.87986e-09
5.32483e-09
-2.87529e-09
2.73218e-09
3.74524e-09
-3.60213e-09
-1.57213e-09
3.24855e-09
-4.184e-09
2.50758e-09
-3.89835e-09
9.96249e-10
-5.81041e-09
-3.0413e-09
7.15043e-10
-4.75263e-09
-2.98685e-09
6.97694e-10
-4.68706e-09
-2.91147e-09
6.75546e-10
-4.585e-09
-3.46559e-09
8.48781e-10
-5.29365e-09
4.85983e-09
-4.96434e-09
2.03713e-10
-9.92106e-11
-4.15315e-09
1.10029e-09
-6.34866e-09
-3.04374e-09
7.25497e-10
-4.95617e-09
-3.20508e-09
7.7298e-10
-5.0897e-09
-3.61194e-09
9.05782e-10
-5.6054e-09
-2.79663e-09
6.46716e-10
-4.55984e-09
-2.26437e-10
2.56366e-10
1.90995e-10
-2.20923e-10
5.17637e-09
5.77191e-09
-8.32419e-09
-2.62409e-09
-4.13509e-09
2.77071e-09
3.78834e-09
-5.72311e-09
-5.18159e-09
4.33159e-09
6.5731e-09
-2.28789e-10
2.38694e-10
-2.32296e-10
2.22391e-10
1.0312e-09
-1.14636e-09
4.98745e-09
-4.8723e-09
4.62445e-09
6.51946e-09
-6.94781e-09
-4.1961e-09
6.34165e-09
7.68005e-09
-9.72732e-09
-4.29438e-09
-1.10322e-09
4.78855e-10
-4.2532e-09
4.87757e-09
2.25837e-09
3.14117e-09
-2.45134e-09
-2.9482e-09
-4.36712e-09
-4.59369e-11
4.13183e-09
2.81224e-10
-3.7198e-09
2.40976e-09
-3.19654e-09
4.50658e-09
-3.56494e-09
-3.06397e-09
2.90911e-09
-1.95582e-09
1.62537e-09
2.51133e-09
-2.18088e-09
-2.37479e-09
3.08682e-09
-2.62697e-09
1.91494e-09
1.25045e-10
3.73102e-09
3.43432e-10
2.38372e-09
3.29065e-09
-4.89479e-09
-7.79576e-10
-3.42665e-10
1.48571e-09
-1.58712e-09
4.44074e-10
3.92191e-09
5.81483e-10
-3.73569e-09
-7.67704e-10
-3.88306e-11
-4.45391e-09
-6.45946e-10
3.24664e-09
-3.88603e-09
2.95743e-09
-2.31804e-09
-2.73067e-09
3.98967e-10
4.74131e-09
-2.40961e-09
2.12929e-09
8.54648e-09
-1.24888e-09
-9.42689e-09
3.16258e-09
7.9351e-09
-8.96838e-09
5.39326e-09
6.2796e-10
-1.16138e-09
-2.60519e-10
5.44446e-10
8.26255e-09
-3.42053e-09
-3.1147e-09
2.49488e-09
-1.07008e-09
6.735e-10
1.11112e-09
-7.14541e-10
5.72068e-10
-1.20006e-10
5.53477e-09
-5.98684e-09
-5.01981e-10
7.4629e-10
-2.15945e-09
1.91514e-09
1.49438e-09
-3.85543e-09
3.7318e-09
-1.37075e-09
1.43398e-09
-1.21596e-09
2.82038e-09
2.7824e-09
-3.64918e-09
3.84958e-09
-2.98281e-09
4.64281e-09
8.9794e-09
-2.78739e-09
-1.08348e-08
-2.07264e-09
-2.42933e-09
2.9735e-09
1.52847e-09
1.22744e-09
4.23589e-09
-2.8613e-09
-2.60203e-09
9.83242e-11
-1.81202e-10
-1.87746e-09
1.96034e-09
3.04815e-09
3.62093e-09
-4.03322e-09
3.13556e-10
-9.10934e-10
5.43963e-09
-4.84225e-09
3.44196e-10
3.01069e-09
3.50256e-10
-3.70514e-09
3.01214e-09
-2.74232e-09
-2.64461e-09
-6.18867e-09
-5.67984e-09
6.1454e-09
8.68098e-11
1.49622e-10
-4.9766e-11
-1.86666e-10
7.58659e-09
-1.43498e-09
-6.41268e-10
-5.51034e-09
-5.21826e-09
-1.13355e-09
7.04927e-10
5.64688e-09
4.35582e-09
-4.80182e-09
-4.00052e-09
4.44652e-09
2.25743e-09
-4.0637e-09
-3.1165e-09
3.88861e-09
-4.14019e-09
-1.32055e-09
4.18507e-09
3.33037e-09
-4.2688e-09
4.38768e-09
-3.56975e-09
-6.17153e-09
5.3536e-09
1.7626e-09
-3.91529e-09
3.64707e-09
-5.15371e-09
-3.06165e-09
2.26343e-09
-2.20916e-09
7.92853e-10
1.49024e-09
-7.39321e-11
-3.62552e-09
-2.59303e-09
4.29566e-09
1.92289e-09
2.39214e-09
-3.29111e-09
3.50876e-09
-2.60979e-09
2.45706e-10
-2.48344e-10
2.18453e-10
-2.15814e-10
-4.14625e-09
4.0989e-09
-3.7745e-09
3.82186e-09
7.71624e-09
1.49833e-09
-2.81785e-09
-6.39672e-09
-3.28397e-09
2.28265e-09
-3.3965e-09
4.39781e-09
3.17407e-09
-7.66346e-09
9.11383e-09
1.17389e-10
-5.22925e-10
-2.48631e-09
2.89184e-09
-3.67327e-10
4.3906e-09
-4.27876e-09
2.55488e-10
5.44423e-09
-4.4127e-09
-6.97687e-10
-3.33845e-10
-1.63148e-09
-4.05689e-09
2.23114e-09
3.45723e-09
-6.00671e-09
-6.9659e-10
6.7033e-09
-1.62702e-09
2.56257e-10
1.48165e-09
-1.10895e-10
-9.17324e-10
-4.51591e-09
7.63495e-10
4.66974e-09
-3.64603e-09
-3.96875e-09
4.4327e-09
3.18207e-09
-4.24818e-09
-4.49988e-09
2.78529e-09
5.96277e-09
4.98383e-09
-5.23308e-09
7.55531e-09
-7.30606e-09
9.65416e-10
-4.83539e-09
4.90118e-09
4.68386e-09
-4.55529e-09
4.88496e-09
-2.34526e-10
-2.20894e-10
2.3001e-10
2.25409e-10
-4.38064e-09
4.30205e-09
7.75351e-11
1.05723e-12
5.77213e-09
-5.3064e-09
4.6277e-10
-9.28494e-10
5.82482e-09
-5.29536e-09
5.05024e-10
-1.03448e-09
5.65117e-09
-5.19608e-09
4.54211e-10
-9.09308e-10
3.04085e-09
-3.84693e-09
1.9966e-10
6.06422e-10
-4.9721e-09
4.97305e-09
-7.74464e-11
7.64997e-11
2.95807e-09
-3.1857e-09
3.13243e-09
-2.9048e-09
-4.08083e-10
4.14997e-09
6.53389e-10
-4.39528e-09
2.25709e-10
-2.58489e-10
2.28793e-10
-1.96013e-10
-1.23553e-08
1.38706e-08
-6.77242e-09
5.25714e-09
5.0174e-09
-5.52247e-09
-1.19966e-12
5.0627e-10
-2.79004e-09
-3.08788e-09
2.34909e-09
3.52883e-09
2.36271e-09
-1.42306e-09
2.58496e-09
-3.52461e-09
-7.82873e-09
-8.29635e-09
8.36932e-09
7.75576e-09
2.91766e-09
-3.24355e-09
7.63972e-09
-9.23932e-09
-6.43117e-09
8.03076e-09
-2.45924e-09
2.36133e-09
-3.13322e-09
3.23113e-09
-1.12951e-10
1.58255e-10
-6.51061e-09
5.1382e-09
-1.79617e-10
1.55203e-09
3.9828e-09
-2.11822e-09
1.91483e-09
-3.77941e-09
-3.40883e-09
4.52431e-09
2.82821e-09
-3.94369e-09
-3.16254e-09
1.23103e-10
3.36625e-10
2.70281e-09
5.03163e-09
-8.71098e-10
-5.07786e-09
4.56916e-09
-4.15573e-09
-3.3935e-09
2.98008e-09
-4.57725e-09
5.22631e-09
2.04691e-11
-6.69531e-10
-4.65567e-09
5.33959e-09
2.44811e-11
-7.08405e-10
-3.36171e-09
4.17684e-09
8.41791e-10
-1.65693e-09
-3.4588e-09
3.87821e-09
-2.85641e-09
2.43699e-09
7.55173e-10
7.2697e-09
-8.02488e-09
-2.19015e-10
-3.75497e-09
-1.93455e-10
-6.17053e-10
2.83615e-09
9.90911e-10
-3.21001e-09
2.86126e-10
-3.0459e-10
2.36619e-09
-6.43164e-10
6.89503e-10
-2.41253e-09
4.98232e-09
-6.36699e-11
5.43943e-11
4.8142e-09
-4.77031e-09
2.2929e-11
-6.68161e-11
4.54686e-09
-4.41422e-09
4.49591e-12
-1.3714e-10
3.47897e-09
-3.39596e-09
-2.97869e-09
2.89568e-09
2.00218e-10
-1.60911e-10
-2.01219e-10
1.61912e-10
4.0365e-09
1.64819e-09
-3.35134e-11
4.17119e-09
1.68581e-09
-3.21805e-11
4.12222e-09
1.68486e-09
-3.49454e-11
-4.73404e-09
5.95509e-09
-1.30093e-09
7.98821e-11
5.4711e-09
-5.34121e-09
-2.95648e-10
1.65749e-10
-1.2314e-09
1.32015e-09
7.16539e-10
-8.05284e-10
-2.29307e-09
-4.65728e-09
3.64526e-09
3.30508e-09
-5.41704e-09
4.6512e-09
1.00481e-09
-2.38972e-10
6.86207e-09
6.62953e-11
-1.45726e-09
3.50619e-09
2.86049e-09
-2.39091e-09
-3.97577e-09
-4.40405e-09
2.20422e-10
4.2428e-09
-5.91694e-11
4.98385e-09
-4.98484e-09
-2.72131e-12
3.72005e-12
-4.40705e-09
4.41786e-09
-4.49062e-11
3.41023e-11
-4.46383e-09
4.47462e-09
-4.5478e-11
3.46915e-11
-4.31557e-09
4.32638e-09
-4.4105e-11
3.32952e-11
1.61087e-09
-1.65848e-10
4.11943e-09
3.38431e-09
-5.43599e-09
-2.06775e-09
5.02285e-09
-4.6146e-09
-2.82018e-10
-1.26232e-10
-4.44138e-09
4.05972e-09
2.63909e-09
-6.04296e-09
5.63958e-09
-1.47242e-10
5.50619e-10
-4.6682e-09
-1.10398e-09
2.49709e-10
-1.57218e-09
-7.78963e-10
1.11974e-09
5.46501e-09
-5.82037e-10
-3.36108e-10
5.29331e-09
-5.29734e-09
4.23667e-12
-2.11748e-13
-4.95973e-09
4.9796e-09
-5.68086e-11
3.69437e-11
-4.4357e-09
4.40169e-09
-1.36264e-10
1.7027e-10
-4.49265e-09
4.45855e-09
-1.37723e-10
1.7182e-10
-4.34339e-09
4.31001e-09
-1.34044e-10
1.67429e-10
3.91682e-09
-3.98492e-09
-5.7946e-10
6.47566e-10
6.15988e-09
1.57649e-10
-1.50333e-09
2.85114e-09
-3.48217e-09
3.02317e-09
-3.16779e-09
2.4659e-09
2.98454e-09
5.96832e-09
-5.11103e-09
-5.16916e-11
-8.05601e-10
4.91969e-09
3.72544e-10
-1.37542e-09
7.20221e-09
-7.03099e-09
-7.74275e-10
6.03063e-10
4.25972e-09
-4.3496e-09
-6.19824e-11
1.51861e-10
-8.73943e-12
-7.4101e-11
3.56783e-09
-3.68987e-09
-1.78957e-10
3.00997e-10
3.61205e-09
-3.73571e-09
-1.80144e-10
3.03807e-10
3.49418e-09
-3.61338e-09
-1.75884e-10
2.95084e-10
5.60363e-10
3.23044e-10
-5.84774e-09
-4.4826e-09
5.14443e-09
-7.46676e-10
8.48493e-11
-4.53642e-09
5.20874e-09
-7.59545e-10
8.7227e-11
-4.3899e-09
5.03762e-09
-7.3044e-10
8.27207e-11
-5.18258e-09
5.52834e-11
-1.38331e-09
5.45239e-09
-1.45795e-09
-5.1408e-09
-3.6177e-09
-3.01026e-09
3.88943e-09
2.73853e-09
3.99376e-10
-1.5938e-10
-4.65343e-10
2.25348e-10
2.63193e-09
-4.46278e-09
5.30983e-09
1.24851e-09
-6.37306e-11
3.95197e-09
-5.05394e-11
2.20789e-10
3.99799e-09
-4.83941e-11
2.21598e-10
3.87026e-09
-4.91966e-11
2.15433e-10
5.04576e-09
-1.20323e-10
5.68828e-11
-3.04179e-10
1.67357e-10
1.11767e-09
4.15837e-11
-4.27193e-09
-1.84196e-10
-8.3924e-10
4.96168e-09
-4.95837e-09
6.16265e-12
-9.47236e-12
-4.381e-09
1.54015e-10
-9.69093e-10
-4.47389e-09
1.56211e-10
-9.88721e-10
6.4411e-09
-5.47682e-09
6.37168e-11
-1.02799e-09
-4.96735e-09
4.96964e-09
6.52453e-12
-8.81378e-12
-6.66016e-10
1.46376e-10
-6.90751e-10
1.52318e-10
-6.80308e-10
1.49671e-10
-4.42046e-09
4.43613e-09
-1.67482e-11
1.07883e-12
-4.47726e-09
4.49319e-09
-1.71891e-11
1.25703e-12
-4.32897e-09
4.34425e-09
-1.61714e-11
8.97314e-13
-5.46139e-09
5.40505e-09
-1.35472e-10
1.91811e-10
-3.99731e-09
4.42613e-09
-4.91451e-10
6.26406e-11
6.2964e-09
3.45038e-09
-6.24059e-09
2.82033e-09
3.42042e-09
-3.54629e-09
-2.69446e-09
-4.74991e-09
4.77795e-09
-2.72563e-11
-7.83458e-13
-4.9595e-10
2.36016e-09
-4.06209e-09
4.40553e-09
-1.48123e-11
-3.28627e-10
5.37207e-09
-4.79567e-09
-2.82349e-11
-5.48166e-10
-4.25459e-09
4.28919e-09
-5.07461e-11
1.61399e-11
4.99114e-09
7.68959e-10
-1.2052e-10
4.07363e-09
-4.10491e-09
-8.47359e-11
1.16022e-10
5.69899e-09
-4.82198e-09
5.81225e-11
-9.35132e-10
3.24347e-09
-3.99431e-09
3.56531e-09
-2.81448e-09
-4.33613e-09
5.07778e-09
2.04798e-10
-9.46443e-10
6.43591e-09
1.77413e-09
-4.43461e-09
-3.77543e-09
-4.63049e-09
4.65099e-09
4.02099e-12
-2.45269e-11
-5.18188e-09
4.98372e-09
-5.38371e-11
2.51994e-10
-8.13228e-10
4.18235e-09
5.14822e-10
-3.88394e-09
-1.18801e-09
6.34808e-09
-1.72617e-10
3.65541e-09
-2.67363e-09
3.52401e-09
-4.50579e-09
2.94733e-09
-4.32082e-09
3.51605e-09
-2.14255e-09
-4.67621e-09
-2.07026e-10
-6.46549e-10
4.73945e-10
4.09452e-09
5.16945e-09
-4.36293e-09
-4.2433e-11
-7.64092e-10
-5.44753e-09
5.29591e-09
-9.81516e-11
2.49766e-10
-2.47272e-10
2.02065e-10
4.52068e-11
3.39966e-09
-3.57655e-09
9.96763e-12
1.66925e-10
4.51289e-09
-4.27585e-09
1.91793e-10
-4.28826e-10
-3.65391e-09
-3.12686e-09
2.63452e-09
5.7516e-09
-5.72709e-09
-1.30568e-10
1.06058e-10
-4.55627e-09
-3.49005e-11
1.39191e-11
-1.46869e-10
8.93359e-11
1.41297e-10
-8.37643e-11
6.84723e-09
-5.43522e-09
1.85314e-10
-1.59733e-09
4.77834e-09
6.62625e-11
-5.84876e-10
-5.05851e-09
5.55653e-09
3.05663e-11
-5.28582e-10
4.62461e-09
-9.56557e-10
-1.7387e-10
4.78216e-09
-9.87228e-10
-1.82884e-10
4.72236e-09
-9.75609e-10
-1.78924e-10
5.14618e-09
-5.36063e-09
4.5188e-10
-2.3743e-10
-4.74555e-10
1.11807e-10
-1.7675e-10
5.39498e-10
-4.60307e-09
-8.32641e-11
3.06655e-11
6.38598e-10
-1.92278e-09
-6.41699e-10
1.92588e-09
-3.6696e-09
4.35897e-09
2.52526e-10
-9.41894e-10
2.77894e-09
-1.31527e-09
-1.46367e-09
-3.91854e-10
4.26186e-09
7.47792e-10
-4.6178e-09
5.82301e-09
-5.81406e-09
-2.55273e-11
1.65803e-11
-6.09746e-09
5.92821e-09
-8.07432e-11
2.49994e-10
-3.88789e-09
4.00385e-09
4.65525e-10
-4.81062e-09
-4.45763e-10
1.97865e-10
4.6505e-09
1.49914e-10
-4.22835e-09
-2.44406e-09
2.4147e-09
3.11617e-09
-5.90955e-09
-1.30504e-09
1.83599e-10
2.3788e-10
-1.39211e-10
-5.87711e-09
7.02167e-09
1.8386e-10
-1.32842e-09
3.24686e-09
-3.63952e-09
1.20635e-10
-8.83355e-10
-3.2222e-09
4.66975e-10
4.68712e-09
3.87136e-11
-8.66051e-11
4.2558e-09
-4.26765e-09
1.8828e-11
-6.97778e-12
6.09368e-09
-2.26665e-10
-5.30784e-09
-5.59178e-10
5.28533e-09
-2.15443e-10
-4.61726e-09
-4.52622e-10
5.40114e-09
-2.17985e-10
-4.71664e-09
-4.66508e-10
5.47589e-09
-2.18591e-10
-4.77997e-09
-4.77324e-10
6.69057e-09
-2.31303e-10
-5.81185e-09
-6.47415e-10
5.98597e-09
-1.22827e-09
2.65146e-10
4.61607e-09
-4.57e-09
-8.25049e-11
3.64412e-11
4.2451e-09
-8.33446e-11
1.17783e-09
4.15391e-09
-8.23329e-11
1.15474e-09
-2.31243e-10
2.06732e-10
-4.35613e-09
-7.35365e-09
1.06213e-09
2.063e-10
6.08521e-09
4.97838e-09
-1.36599e-12
6.83155e-12
-4.27986e-09
4.28095e-09
6.93192e-12
-8.02056e-12
2.90273e-09
-3.28628e-09
3.74586e-09
-3.36232e-09
5.21083e-09
-5.17382e-09
-8.57794e-11
4.87723e-11
-4.63125e-09
-9.88317e-12
1.06489e-11
-4.25145e-10
4.36316e-09
-5.07516e-10
4.79271e-09
-4.77291e-09
-2.03463e-11
5.51933e-13
-2.52794e-10
7.14009e-11
-1.74893e-10
4.56107e-10
-1.79864e-10
4.69373e-10
-1.77894e-10
4.64554e-10
-7.25986e-10
-6.13692e-11
4.94126e-09
-7.42306e-10
-6.33628e-11
5.05077e-09
-5.18757e-09
5.16146e-09
-1.73488e-10
1.996e-10
5.01683e-09
5.89352e-11
-8.46249e-11
1.00206e-10
-3.10563e-10
-4.0684e-09
4.13774e-10
9.39948e-10
-4.84891e-09
3.48101e-11
7.52014e-10
1.03463e-09
-2.46035e-10
1.15344e-09
2.70801e-10
1.19272e-09
2.80312e-10
1.17842e-09
2.76141e-10
2.57411e-09
-2.52392e-09
-3.55093e-09
3.17452e-09
-3.00275e-09
3.37916e-09
-6.89739e-09
-8.08587e-10
6.41959e-09
1.28639e-09
-5.36502e-09
5.41935e-09
-5.96482e-11
5.30937e-12
-1.38646e-11
8.61552e-12
-2.38867e-10
-4.53633e-09
-7.62671e-11
7.07082e-11
-7.82626e-11
7.2983e-11
-7.74477e-11
7.20873e-11
5.69326e-09
-5.69483e-09
-8.98281e-11
9.14063e-11
3.99913e-09
-3.69873e-09
-3.15466e-09
2.85426e-09
-4.39785e-09
-4.80146e-10
-2.72562e-11
4.90525e-09
-1.09748e-09
2.372e-10
4.21484e-09
-3.4932e-09
-4.97282e-09
5.48766e-09
-8.12573e-10
2.97727e-10
4.53262e-09
-8.28215e-10
-3.0474e-10
4.69215e-09
3.16593e-11
-7.28116e-11
3.18905e-09
-3.6624e-09
-3.07758e-09
-1.00513e-10
1.29192e-10
-9.4197e-11
6.55179e-11
-4.44218e-09
4.50569e-09
-8.58036e-11
2.23004e-11
-4.49942e-09
4.56376e-09
-8.69633e-11
2.26194e-11
-4.35009e-09
4.41226e-09
-8.398e-11
2.18178e-11
-3.80168e-09
4.16884e-09
3.01007e-09
-3.37723e-09
-3.32025e-09
-2.0935e-09
4.38627e-09
-2.04109e-11
8.03598e-10
-3.82761e-10
5.79242e-10
-2.17007e-10
3.91128e-09
9.02372e-10
-4.59665e-09
1.7735e-09
-3.73012e-11
1.1952e-09
6.93253e-10
4.13585e-09
-1.66692e-10
1.40291e-09
4.00185e-09
-2.30354e-11
1.09896e-09
-2.98564e-11
1.10253e-10
2.63526e-10
-3.43923e-10
-5.8725e-09
-7.3663e-10
-8.461e-12
6.61759e-09
-1.67471e-10
6.39507e-11
-5.27708e-09
5.29679e-09
-7.45704e-12
-1.22585e-11
4.48226e-09
-9.64374e-11
1.31316e-09
-5.20321e-10
8.46073e-11
-4.76587e-10
3.95278e-09
-4.75552e-09
1.27933e-09
-3.94777e-09
4.01961e-09
-7.18388e-10
-2.50789e-10
4.35483e-09
4.2703e-09
-5.28102e-09
4.40066e-09
-3.38994e-09
5.48193e-09
-1.0793e-09
-3.29005e-10
1.25798e-09
-6.43816e-11
7.09162e-10
3.19566e-12
3.86464e-09
-5.0589e-09
1.82347e-09
-6.29203e-10
-2.5081e-09
-6.31456e-09
6.22176e-09
2.60089e-09
-4.94986e-09
4.94405e-09
-2.13743e-12
7.94672e-12
-5.37242e-09
1.93709e-09
5.46657e-09
1.57627e-10
-7.54519e-11
8.0691e-11
-1.62866e-10
-6.10348e-09
-3.02724e-09
6.62263e-09
-4.4426e-09
3.83217e-09
7.99118e-10
-1.88692e-10
-4.29462e-09
3.70547e-09
7.71646e-10
-1.825e-10
-4.38583e-09
3.78391e-09
7.88323e-10
-1.86401e-10
-3.83028e-09
-3.43114e-10
-4.58311e-10
-2.53912e-09
-2.32356e-09
-2.14367e-09
-5.18379e-09
2.88609e-09
5.42228e-09
-1.42639e-09
1.15029e-09
-3.27146e-09
-3.4897e-09
4.0074e-09
1.19095e-10
1.7112e-10
-1.32588e-10
-4.28602e-09
-2.77659e-12
8.93876e-12
-2.38621e-10
-1.41102e-11
-7.93046e-09
6.00917e-09
-4.26738e-09
-4.24319e-09
4.75324e-09
-5.00085e-10
-9.95874e-12
-4.75482e-09
5.34829e-09
-5.77293e-10
-1.61789e-11
-4.43711e-09
4.16843e-09
4.6245e-09
2.78503e-09
-2.21695e-09
1.70042e-10
-5.60053e-11
1.72367e-10
2.25608e-10
-1.97757e-10
-5.40511e-09
6.21165e-09
-8.06706e-10
1.70743e-13
4.92982e-09
-5.61221e-09
-1.03903e-10
2.42441e-10
3.22147e-09
-4.10147e-09
3.78068e-09
-2.90069e-09
-4.94317e-09
5.66738e-09
-7.23541e-10
-6.71057e-13
-6.58652e-09
6.76072e-09
-8.10465e-09
-4.01242e-12
7.18231e-12
5.03669e-09
-9.25013e-11
1.49691e-09
-2.14476e-10
-5.3169e-11
1.86446e-11
-2.12413e-11
1.99601e-11
-2.26036e-11
1.94067e-11
-2.20078e-11
-4.73035e-09
-1.0976e-09
4.02349e-10
5.13131e-10
1.14471e-11
9.3012e-10
-5.90722e-12
-5.76638e-11
-2.7066e-10
1.16641e-11
1.54818e-13
3.512e-09
3.13448e-09
-2.44568e-09
-4.20079e-09
-5.69088e-09
6.42551e-09
-7.51998e-10
1.73745e-11
3.94352e-09
2.17627e-09
-2.137e-09
4.40545e-09
1.19299e-11
-1.18512e-11
5.55274e-10
3.23532e-10
-1.0355e-10
5.40588e-11
4.26157e-09
3.39777e-09
-3.4445e-09
-9.66029e-13
1.19978e-11
-2.13735e-09
1.76293e-09
3.22556e-09
2.5321e-09
5.44252e-10
-3.07635e-09
-4.33038e-09
3.67656e-09
8.62622e-10
-2.08806e-10
1.43937e-11
-2.02403e-11
1.48514e-11
-2.10732e-11
1.47002e-11
-2.07558e-11
1.80163e-10
-2.51927e-10
-4.70406e-09
4.0565e-09
8.45808e-10
-1.9825e-10
-5.17388e-09
1.01616e-09
-1.36895e-10
-5.35275e-09
1.05141e-09
-1.41251e-10
-5.2838e-09
1.03765e-09
-1.39689e-10
4.64656e-09
-7.6358e-11
4.58638e-11
3.69585e-09
-7.74517e-10
-4.95563e-09
2.0343e-09
-5.15865e-09
4.44719e-09
9.28404e-10
-2.16945e-10
1.29364e-10
4.38217e-10
-1.87548e-10
-1.7112e-10
1.97757e-10
4.81444e-09
-6.74414e-11
4.5707e-11
1.12837e-09
-3.76981e-09
-9.84181e-10
-6.11658e-13
1.18789e-11
-7.4344e-11
1.18835e-11
4.71659e-09
-5.01251e-09
4.1322e-10
-1.17299e-10
-8.60198e-09
4.30714e-09
7.45742e-09
5.2503e-09
-1.15565e-10
7.60924e-11
-4.64738e-09
-8.89513e-11
6.8138e-11
-4.95804e-09
-2.2686e-10
-9.21809e-11
5.50258e-10
-2.55901e-10
6.53724e-11
-1.73626e-10
6.21155e-11
-2.05995e-10
4.22719e-09
1.70661e-11
1.15388e-11
3.27624e-12
1.76209e-12
7.79662e-11
-2.06691e-10
2.62668e-10
-2.60439e-10
3.32344e-09
3.18594e-09
-2.85397e-09
9.11588e-11
-2.45968e-10
1.27054e-11
4.66175e-10
-4.13249e-10
-6.56313e-11
3.86589e-11
-5.46588e-11
1.20333e-09
-1.85422e-10
5.66287e-09
-1.11508e-11
4.15354e-11
4.18542e-09
-4.33614e-09
4.24962e-09
1.11117e-09
-1.47847e-10
5.24963e-09
3.7457e-10
1.96239e-09
4.62267e-10
-1.2807e-11
8.85617e-11
-1.00925e-10
1.03952e-11
-1.09423e-11
2.55109e-09
1.38152e-09
-2.0658e-09
-1.86681e-09
-7.20661e-09
8.52886e-09
7.35645e-09
-8.6787e-09
4.24648e-10
-3.89601e-10
-2.23417e-11
-1.75851e-12
1.50577e-11
-5.6837e-09
5.36194e-09
6.90285e-10
-3.68528e-10
7.19314e-11
-9.99414e-11
1.21237e-09
-1.59373e-10
2.26495e-10
2.66183e-10
-2.62668e-10
-4.72447e-09
5.42416e-09
-1.2802e-09
5.80512e-10
-6.32977e-09
-9.48486e-10
1.5712e-09
5.70706e-09
1.60988e-10
-3.68158e-10
-4.83698e-09
2.79359e-09
5.14064e-09
-3.09725e-09
3.66973e-09
-1.1941e-10
1.20292e-09
-2.48813e-09
2.75938e-09
-6.58581e-09
2.30132e-09
4.54582e-09
-2.93395e-09
-3.91319e-09
-1.57794e-11
2.33772e-11
3.9213e-09
-4.21463e-09
-3.24846e-09
3.54179e-09
4.3164e-09
-4.03586e-10
5.10277e-09
-1.1517e-10
1.4379e-09
-5.5359e-09
3.47251e-09
3.30451e-09
-1.24111e-09
4.00743e-09
-3.11041e-11
-3.06594e-10
3.82279e-09
-3.5047e-09
2.83923e-09
-3.15732e-09
-3.87227e-09
7.604e-10
-1.6126e-09
2.59181e-09
-2.6847e-09
1.72103e-09
-2.58372e-10
-1.72411e-09
2.61458e-10
4.00947e-09
3.10543e-09
-2.92796e-09
-4.18695e-09
-7.20656e-09
2.57901e-09
-2.42079e-09
-4.18258e-09
-2.95795e-09
4.06852e-09
3.07201e-09
4.90399e-09
-3.45555e-09
2.06356e-09
4.44674e-09
4.33915e-09
-2.67467e-09
-2.41744e-09
2.00423e-09
5.68117e-09
-1.74164e-12
-5.76649e-10
-4.03367e-09
5.59929e-10
-5.57036e-09
1.07395e-10
5.39691e-09
6.60568e-11
-3.64877e-09
2.92432e-09
-2.46124e-09
2.35733e-10
-3.32719e-10
3.22395e-10
2.01569e-09
-2.89209e-09
-1.92292e-10
-4.57359e-09
3.61834e-10
2.87459e-10
-4.06705e-09
-5.7725e-09
4.89939e-09
-2.17831e-09
3.05142e-09
2.20761e-09
-2.1074e-09
-2.79166e-09
-5.98475e-09
7.05115e-09
1.72526e-09
2.31609e-09
7.6284e-12
-3.56542e-11
4.52673e-10
-2.46244e-09
-6.17841e-09
5.87944e-09
2.76141e-09
9.37931e-10
3.55464e-09
-3.47028e-09
-1.02229e-09
-5.86122e-09
-2.73039e-09
-1.20633e-09
-7.26056e-09
5.95128e-09
2.51561e-09
-1.94872e-09
1.33251e-09
1.12878e-09
-3.82821e-09
5.11504e-09
-2.41561e-09
1.49365e-09
-1.50596e-09
-3.22088e-09
1.48653e-10
-5.51483e-09
9.40847e-10
4.42533e-09
-2.94792e-09
3.66287e-09
-4.36098e-09
-4.57766e-09
1.75189e-09
3.95456e-09
3.70698e-09
3.79545e-09
-4.44764e-09
-3.05479e-09
6.05347e-10
-3.40311e-09
2.32664e-10
-7.20803e-10
-3.53106e-09
3.46069e-09
-3.87852e-09
3.94889e-09
2.28853e-09
-3.03342e-09
-1.68443e-09
-3.82982e-09
-2.91907e-09
4.45582e-09
-2.96696e-10
6.07894e-09
6.86899e-10
-6.46914e-09
2.52392e-09
-2.59181e-09
-3.70769e-09
-3.32285e-09
3.58156e-09
-5.80393e-09
5.54522e-09
5.89562e-09
-4.1721e-09
-5.69226e-09
-3.45866e-09
3.25595e-09
4.64945e-09
-4.14057e-09
1.04955e-10
4.19541e-09
-1.59796e-10
3.24378e-09
8.04329e-10
-3.6193e-09
-4.2881e-10
6.27184e-09
-2.84173e-09
-3.17518e-09
3.56696e-09
-1.95407e-09
-5.85349e-09
9.10169e-10
3.8209e-10
4.9405e-09
-1.16083e-09
5.16056e-09
-4.21722e-09
2.12141e-09
-3.06475e-09
-6.03722e-10
3.00789e-10
-9.69954e-09
2.85183e-09
-1.85432e-09
8.70203e-09
-3.17234e-09
3.52229e-09
9.35491e-11
-1.51502e-09
-5.9344e-09
7.35587e-09
8.35396e-11
-5.42869e-09
-1.37686e-09
6.72201e-09
6.83727e-11
-1.1879e-09
-4.73648e-09
5.85601e-09
7.15855e-11
-1.23188e-09
-4.90038e-09
6.06068e-09
7.01522e-11
-1.21413e-09
-4.83702e-09
5.981e-09
4.28163e-09
-4.1433e-09
7.98214e-11
-2.18154e-10
4.42858e-09
-4.28498e-09
8.26795e-11
-2.26281e-10
4.37233e-09
-4.23095e-09
8.16558e-11
-2.23041e-10
2.4661e-09
-2.48649e-09
3.76433e-09
-3.74393e-09
-3.42192e-09
-4.36108e-09
4.60782e-09
3.35356e-10
-3.95164e-09
-5.33194e-11
-3.49966e-09
6.61008e-10
-9.37444e-10
3.77609e-09
5.06371e-10
3.97143e-09
-2.49586e-09
2.59103e-09
-3.09329e-10
4.53483e-09
-4.44251e-09
3.90058e-09
-4.12431e-09
4.4088e-09
-5.29168e-10
-2.96972e-09
2.85054e-09
6.48341e-10
-3.80043e-09
4.06678e-09
-6.58203e-10
1.95994e-09
-5.57822e-09
7.9606e-09
-4.34233e-09
4.83059e-10
-6.17342e-09
5.05878e-11
4.27958e-09
5.89527e-10
7.99694e-09
-7.16937e-09
-3.30981e-09
-3.04006e-09
-6.12535e-09
2.74149e-09
8.23161e-09
-1.98747e-10
-8.47988e-09
4.47016e-10
-9.02767e-10
-4.05687e-09
1.1592e-09
8.88509e-11
-1.647e-10
-8.05056e-11
1.56354e-10
3.31862e-10
5.23399e-09
1.09415e-09
-6.66e-09
-2.14649e-09
8.54546e-11
2.4471e-09
-3.86065e-10
-1.83091e-09
2.79021e-09
3.49759e-09
-2.95743e-09
-3.78494e-09
-6.8799e-10
9.46466e-11
4.37828e-09
-2.34515e-10
-3.29688e-10
3.35415e-10
-1.32366e-09
-3.93611e-09
1.40434e-09
7.04522e-09
-2.51612e-09
-6.49817e-09
1.96907e-09
5.25712e-09
4.11562e-10
-6.6757e-09
1.00701e-09
2.45623e-09
7.47497e-10
-3.20373e-09
-3.65178e-09
7.20399e-09
2.88784e-09
-6.44004e-09
-2.25971e-10
1.57517e-10
4.44672e-09
3.04588e-09
-3.30715e-09
-4.18545e-09
4.16547e-09
-6.11954e-09
-2.33728e-09
5.20403e-10
2.80767e-09
-9.90793e-10
4.44086e-09
-4.13002e-09
1.27822e-10
-4.3866e-10
-3.18883e-09
3.71459e-09
5.27898e-09
-5.80475e-09
-2.983e-09
3.63266e-09
5.00265e-09
-5.65231e-09
-3.50406e-09
4.02618e-09
5.82742e-09
-6.34953e-09
-2.8646e-09
3.38838e-09
4.71404e-09
-5.23782e-09
7.21703e-10
-4.4164e-09
4.60324e-09
-9.08536e-10
-3.79696e-09
4.45738e-09
6.44671e-09
-7.10712e-09
3.93272e-09
4.5449e-09
-4.05974e-09
-4.41788e-09
-3.03419e-09
7.07192e-09
3.0075e-09
-2.89568e-09
2.85397e-09
-3.10925e-10
3.30009e-10
1.98914e-10
-5.05843e-09
5.16402e-09
-3.045e-10
1.67759e-09
-3.57964e-09
-1.96507e-09
3.86713e-09
6.53611e-09
-2.55054e-09
-6.50169e-09
4.68202e-09
-4.5321e-09
8.64528e-11
-2.36366e-10
2.85172e-10
6.9521e-10
-2.26322e-09
-3.34651e-09
3.01731e-09
2.59242e-09
4.35017e-09
-6.72468e-09
-4.43439e-09
6.8089e-09
-1.10249e-10
5.84052e-10
-1.10706e-11
-4.50664e-11
3.34537e-10
-2.784e-10
-4.20426e-09
4.22996e-09
1.66454e-11
-4.2344e-11
-4.1444e-09
4.73509e-09
-4.47672e-09
5.22062e-09
2.63111e-09
-5.46856e-09
-2.38317e-09
3.61828e-09
5.53505e-09
-3.81e-09
-3.87582e-09
4.51348e-09
-5.35917e-09
-5.43225e-10
1.26985e-09
4.63255e-09
-6.57013e-09
-6.22942e-10
1.42174e-09
5.77133e-09
-5.8231e-09
-6.44541e-10
1.42291e-09
5.04473e-09
-5.97018e-09
-5.85243e-10
1.34932e-09
5.20611e-09
-7.45958e-09
-7.58613e-10
1.63612e-09
6.58208e-09
1.03282e-09
-5.5395e-10
-6.16257e-09
-3.69243e-09
3.55231e-09
-4.73251e-09
4.87263e-09
-3.77763e-09
-1.29161e-09
-2.22645e-09
4.30208e-09
4.65968e-09
-6.73531e-09
4.01148e-09
-4.33103e-09
-2.95192e-09
5.83437e-10
4.07691e-10
-8.27358e-10
-1.63769e-10
2.22499e-09
5.86141e-09
-4.8514e-09
-5.15441e-09
-6.00347e-09
5.93368e-09
-1.79544e-11
8.77486e-11
6.11245e-09
-4.38255e-09
2.7028e-09
-4.28919e-09
-4.88329e-11
4.37492e-09
-3.68937e-11
3.79106e-09
-4.51574e-10
-3.21885e-09
-3.23659e-09
3.40019e-09
6.2444e-09
1.53936e-09
-3.18786e-09
-4.5959e-09
6.52254e-09
1.40388e-09
-2.85959e-09
-5.06683e-09
2.71179e-09
-6.07777e-09
2.74165e-09
-1.83028e-09
-3.31806e-09
2.40669e-09
-3.45023e-09
-4.23263e-09
4.44628e-09
3.39145e-10
-6.14909e-09
4.14333e-09
1.66661e-09
1.44288e-09
2.99091e-10
4.02371e-09
3.0837e-10
-3.20278e-09
8.00359e-09
-4.86265e-09
-6.16819e-09
-2.54518e-09
-1.71059e-10
2.83363e-09
-6.03218e-10
1.26351e-09
6.03028e-09
-5.71108e-10
1.21081e-09
5.45399e-09
-5.30808e-10
1.14196e-09
4.86473e-09
-5.17975e-10
1.11991e-09
4.68339e-09
-5.26809e-10
1.13533e-09
4.79262e-09
-9.03334e-10
-9.49256e-10
-5.60901e-09
7.4616e-09
-2.84633e-09
2.69798e-09
1.97423e-10
-4.90733e-11
-3.68964e-09
7.37018e-10
3.21739e-09
-2.64764e-10
-4.11428e-09
4.2661e-09
6.25747e-09
-6.40929e-09
-3.27174e-09
3.50915e-09
4.92177e-09
-5.15919e-09
-3.34146e-09
3.57549e-09
5.03043e-09
-5.26445e-09
-3.38672e-09
3.61486e-09
5.10295e-09
-5.33108e-09
-3.75761e-09
3.95382e-09
5.68791e-09
-5.88413e-09
3.87417e-09
3.01518e-09
-1.02794e-09
3.3998e-09
-4.44046e-09
4.86346e-09
5.75156e-09
-6.32363e-10
4.30052e-10
-5.54925e-09
4.61638e-09
1.3925e-10
-4.27257e-09
-3.83692e-09
-9.7119e-10
4.04088e-09
-6.05776e-09
-4.40856e-09
6.42544e-09
7.65042e-10
-4.7188e-09
8.14895e-11
1.59746e-09
-6.24665e-10
-5.48575e-09
4.51295e-09
-1.1156e-10
-2.40669e-09
2.51825e-09
-3.2618e-09
-1.81921e-09
6.31491e-09
-5.70203e-09
-2.20683e-09
-3.09773e-09
3.79358e-09
1.51098e-09
3.48826e-09
-3.42992e-09
3.11618e-09
-5.5107e-09
9.02832e-10
4.81897e-09
-2.11102e-10
-3.06202e-09
1.14561e-09
-6.06313e-09
5.24938e-09
2.27713e-10
-1.02587e-08
-6.51349e-09
9.56554e-09
3.25587e-09
-2.85089e-09
3.6065e-09
1.12218e-09
3.30278e-09
3.52319e-09
-2.4679e-09
3.62438e-09
-4.67968e-09
3.0257e-09
1.12652e-08
-1.11342e-09
-1.31775e-08
-5.65942e-09
3.94927e-09
5.01708e-09
-1.41394e-09
1.51731e-09
3.42274e-09
-3.52612e-09
1.74707e-09
-2.92768e-09
5.80867e-09
7.27911e-10
9.54058e-10
-9.55872e-10
-7.26098e-10
-5.5235e-09
-7.4359e-09
5.22461e-09
7.7348e-09
3.1472e-10
-3.05414e-10