/*--------------------------------*- C++ -*----------------------------------*\
  =========                 |
  \\      /  F ield         | OpenFOAM: The Open Source CFD Toolbox
   \\    /   O peration     | Website:  https://openfoam.org
    \\  /    A nd           | Version:  8
     \\/     M anipulation  |
\*---------------------------------------------------------------------------*/
FoamFile
{
    version     2.0;
    format      ascii;
    class       surfaceScalarField;
    location    "9";
    object      phi;
}
// * * * * * * * * * * * * * * * * * * * * * * * * * * * * * * * * * * * * * //

dimensions      [0 3 -1 0 0 0 0];

internalField   nonuniform List<scalar> 
9048
(
7.03071e-09
-6.54104e-09
-3.28439e-09
2.79473e-09
-1.53894e-09
-1.38225e-09
1.73329e-09
1.18791e-09
8.66886e-09
-2.57555e-09
-6.55391e-09
4.606e-10
-2.29919e-09
5.21122e-09
1.18572e-09
-4.09776e-09
-4.64241e-09
-3.37554e-09
1.83246e-09
6.18549e-09
3.12244e-09
-2.24014e-09
6.29505e-09
-7.17735e-09
-2.54465e-09
1.95285e-09
1.96349e-09
-1.37169e-09
3.1905e-10
-2.74316e-10
-5.83914e-11
1.36575e-11
5.3972e-09
-3.90509e-09
3.31918e-09
-4.81128e-09
7.55395e-09
-3.57277e-09
-7.07343e-09
3.09225e-09
1.43748e-09
-5.62105e-09
4.10848e-09
7.50909e-11
5.74344e-09
-4.98131e-09
-2.56039e-09
1.79826e-09
-5.81592e-09
2.09389e-09
5.56747e-09
-1.84544e-09
4.84573e-09
4.33424e-09
-2.6422e-09
-6.53777e-09
6.69909e-09
-6.18546e-09
-2.83823e-09
2.3246e-09
-7.06817e-09
5.40883e-09
2.1477e-09
-4.88354e-10
-8.60262e-09
6.60881e-09
2.57561e-09
-5.8179e-10
8.59731e-09
-6.70096e-09
-3.09964e-09
1.20329e-09
7.59607e-09
-6.76598e-09
-3.24104e-09
2.41095e-09
6.29591e-09
-5.61844e-09
-2.71844e-09
2.04097e-09
-6.27013e-09
5.80764e-09
2.35478e-09
-1.89229e-09
-5.59297e-09
5.26013e-09
2.19574e-09
-1.8629e-09
5.70337e-09
-5.16505e-09
-2.3144e-09
1.77609e-09
6.43926e-09
-6.04873e-09
-3.08955e-09
2.69902e-09
-5.99747e-09
5.715e-09
2.46614e-09
-2.18368e-09
-7.25964e-09
7.23908e-09
3.2053e-09
-3.18474e-09
5.54462e-09
-5.35851e-09
-2.60246e-09
2.41635e-09
5.62474e-09
-5.44197e-09
-2.69852e-09
2.51574e-09
5.74803e-09
-5.5601e-09
-2.75879e-09
2.57086e-09
7.02058e-09
-5.55177e-09
-2.47304e-09
1.00422e-09
7.82287e-09
-6.14986e-09
-2.91212e-09
1.23911e-09
5.94476e-09
-5.62282e-09
-2.76391e-09
2.44196e-09
-5.70112e-09
5.39779e-09
2.39401e-09
-2.09069e-09
6.62143e-09
-6.12799e-09
-3.00194e-09
2.5085e-09
7.41827e-09
-7.11511e-09
-3.67133e-09
3.36817e-09
7.47579e-09
-5.89913e-09
-2.68582e-09
1.10916e-09
7.18872e-09
-5.67553e-09
-2.58275e-09
1.06956e-09
7.31438e-09
-5.77456e-09
-2.62677e-09
1.08694e-09
-6.50453e-09
6.29063e-09
2.0757e-09
-1.8618e-09
-5.42828e-09
2.39782e-09
5.24052e-09
-2.21006e-09
-4.16094e-09
3.67661e-09
-3.49583e-09
3.98016e-09
8.00062e-09
-8.21095e-09
2.88235e-09
-2.67202e-09
3.02987e-09
-3.49493e-09
5.5312e-09
-5.06613e-09
2.83222e-09
-3.30492e-09
5.09659e-09
-4.62389e-09
2.7793e-09
-3.25523e-09
5.01803e-09
-4.5421e-09
-3.91981e-09
-4.38237e-09
4.14124e-09
3.27991e-09
-3.88516e-09
5.83342e-09
-5.22817e-09
2.81595e-09
-3.29346e-09
4.98846e-09
-4.51094e-09
3.09345e-09
-3.55633e-09
5.53311e-09
-5.07023e-09
-3.36878e-09
2.80988e-09
5.57911e-09
-5.02021e-09
-1.64542e-09
1.54739e-09
-5.55195e-09
5.64997e-09
1.55075e-09
-1.83509e-09
-5.32839e-09
5.61273e-09
-8.4453e-09
3.11343e-09
-2.02558e-09
7.35745e-09
3.46041e-09
-3.40036e-09
-4.62482e-09
4.56476e-09
-2.80348e-09
3.27396e-09
2.59324e-09
-3.06371e-09
3.7646e-09
4.1804e-09
-3.78375e-09
-4.16125e-09
5.16814e-09
-6.58554e-09
2.66201e-10
1.1512e-09
-3.39028e-10
3.24653e-10
-2.51227e-13
1.46262e-11
-3.9816e-09
-4.60295e-09
4.01204e-09
4.57251e-09
4.00227e-09
-5.25206e-09
-5.9208e-09
7.1706e-09
5.05602e-09
3.5149e-09
-4.77984e-09
-3.79108e-09
4.17557e-09
3.94305e-09
-4.31083e-09
-3.8078e-09
3.17661e-09
-4.03973e-09
-4.76301e-09
5.62613e-09
4.87287e-09
4.67063e-09
-5.0643e-09
-4.4792e-09
-2.32786e-09
2.36438e-09
3.63196e-09
-3.66848e-09
-4.69832e-09
-4.8127e-09
3.74481e-09
5.7662e-09
5.69947e-09
2.47016e-09
-2.45378e-09
-5.71584e-09
4.95229e-09
4.95624e-09
-4.36111e-09
-5.54742e-09
3.53681e-09
-4.71538e-09
-5.22571e-09
6.40428e-09
-2.33254e-09
2.87148e-09
4.30679e-09
-2.21609e-09
2.28801e-09
2.50579e-09
-2.57772e-09
1.14632e-09
1.77983e-09
-1.61432e-09
-1.31183e-09
-1.01236e-09
6.17686e-09
2.80387e-09
-7.96837e-09
-4.2003e-09
-4.08338e-09
3.24581e-09
5.03786e-09
4.31828e-09
3.95225e-09
-4.40131e-09
-3.86922e-09
5.25537e-09
4.87711e-09
-5.38736e-09
-4.74512e-09
2.55507e-09
-1.14607e-09
7.44365e-10
-2.15337e-09
-5.00435e-09
4.29979e-09
4.38117e-09
4.63307e-09
-4.402e-09
2.2235e-09
-2.45457e-09
4.1644e-09
-4.00732e-09
2.01551e-09
-2.17259e-09
3.74777e-09
5.98532e-09
-4.2815e-09
-5.45158e-09
2.15769e-09
6.00829e-09
-2.75827e-09
-5.40771e-09
6.70554e-09
-4.74069e-09
5.55491e-09
-7.51976e-09
-5.75118e-09
-3.89759e-09
4.75143e-09
4.89734e-09
4.19628e-09
-4.65568e-09
-5.00593e-09
-3.85573e-09
4.88882e-09
3.97284e-09
7.64315e-09
-4.89335e-09
-4.24682e-09
1.49702e-09
-5.23379e-09
3.69869e-09
-4.6452e-09
6.18029e-09
-4.84314e-09
-3.23143e-09
3.93069e-09
4.14388e-09
-5.02716e-09
-3.36268e-09
4.09124e-09
4.2986e-09
-4.92332e-09
-3.28928e-09
4.00059e-09
4.21201e-09
-4.74766e-09
-3.16414e-09
3.8499e-09
4.0619e-09
-1.40593e-11
-5.918e-12
-4.59829e-09
-1.48496e-10
-2.9876e-10
5.04555e-09
3.43528e-09
-3.49576e-09
1.68399e-09
-1.62351e-09
4.03011e-09
1.93186e-09
-8.06912e-10
-5.15506e-09
-2.86467e-10
-7.29705e-09
6.60176e-09
9.81764e-10
-4.6061e-09
4.4474e-09
4.41076e-09
-4.25206e-09
-1.24313e-09
6.27366e-09
1.37607e-10
-4.65326e-09
4.97509e-09
4.24105e-09
-4.56288e-09
-5.50582e-09
3.88455e-09
-4.7819e-09
6.40316e-09
-4.54887e-09
3.28949e-09
-4.20753e-09
5.46691e-09
3.71233e-09
8.51617e-09
-5.39402e-10
-1.16891e-08
-7.19114e-09
4.97032e-09
-4.96774e-09
7.18855e-09
7.13582e-10
3.42239e-09
-1.5809e-09
-3.52092e-10
2.26303e-11
3.2958e-10
-1.17935e-13
-4.25627e-09
-4.39525e-09
3.98394e-09
4.66758e-09
-4.7595e-09
-1.5293e-09
1.89559e-09
4.39322e-09
-4.04813e-09
6.11955e-09
2.88088e-09
-2.79842e-09
4.06171e-09
-4.66364e-09
5.20019e-09
5.54332e-09
-5.34631e-09
3.86507e-10
-3.43847e-10
-7.46884e-12
-3.5191e-11
-2.80334e-09
2.3765e-09
8.49833e-10
-4.2299e-10
5.53934e-09
5.56263e-09
-4.48633e-09
-6.61564e-09
2.74146e-09
-3.22076e-09
-1.18013e-09
1.65943e-09
2.73461e-09
-2.48701e-09
4.65404e-09
-4.90165e-09
-2.97959e-09
3.17916e-09
3.97824e-09
-4.17781e-09
6.59122e-12
-3.65244e-10
6.56071e-12
-4.23202e-09
2.46899e-11
4.51314e-09
-3.05816e-10
5.98845e-09
-4.27253e-09
4.61813e-09
-6.33406e-09
-5.215e-09
5.24617e-09
2.19404e-09
-2.22521e-09
5.69013e-09
-4.43332e-09
5.1115e-09
-6.36831e-09
-4.51875e-09
1.31046e-09
-4.03424e-10
3.61171e-09
-5.11898e-09
4.88897e-09
-5.23719e-09
5.46721e-09
-6.09457e-09
4.37832e-09
-5.32316e-09
7.03941e-09
6.47774e-09
-5.95586e-09
6.61833e-09
-7.14021e-09
-5.44294e-09
5.04902e-09
-5.46492e-09
5.85884e-09
-6.68313e-09
4.7836e-09
-5.17237e-09
7.0719e-09
5.64685e-09
-4.62211e-09
5.86989e-09
-6.89463e-09
5.25373e-09
-4.93778e-09
5.02396e-09
-5.3399e-09
-5.59895e-09
4.96263e-09
-5.43489e-09
6.0712e-09
5.30432e-09
-4.8105e-09
5.12169e-09
-5.61551e-09
5.96736e-09
-4.79582e-09
6.06542e-09
-7.23697e-09
5.04257e-09
-4.27892e-09
5.56086e-09
-6.32451e-09
4.93601e-09
-4.5732e-09
4.54603e-09
-4.90884e-09
1.57611e-09
-3.84478e-09
3.78706e-09
-1.51839e-09
6.19368e-09
-4.17199e-09
3.55151e-09
-5.5732e-09
5.56833e-09
5.58202e-09
-5.10323e-09
-6.04711e-09
-7.09842e-10
1.26535e-09
-3.29864e-09
2.74313e-09
5.6459e-09
5.53226e-09
-4.9384e-09
-6.23976e-09
-5.05767e-09
-5.13845e-09
4.11642e-09
6.0797e-09
-4.92534e-09
-5.03889e-09
4.11185e-09
5.85238e-09
-4.65639e-09
-3.47993e-09
4.62339e-09
3.51293e-09
4.33887e-09
3.65452e-09
-4.52055e-09
-3.47284e-09
5.24575e-09
4.95333e-09
-4.91166e-09
-5.28742e-09
5.12278e-09
4.85965e-09
-4.78343e-09
-5.199e-09
5.43738e-09
5.35576e-09
-4.91463e-09
-5.8785e-09
5.66296e-09
5.55648e-09
-5.1425e-09
-6.07694e-09
5.54162e-09
5.4368e-09
-5.03927e-09
-5.93914e-09
4.28716e-09
-4.67623e-09
-2.40379e-09
2.79287e-09
-6.12721e-09
4.65581e-09
-3.67979e-09
5.1512e-09
7.55412e-09
-5.77292e-10
-2.33285e-11
-6.9535e-09
-3.04749e-09
3.28673e-09
4.08616e-09
-4.3254e-09
5.77635e-09
-4.9987e-09
-9.6296e-10
1.85311e-10
3.85956e-09
1.22312e-09
-3.60972e-09
-1.47296e-09
6.58247e-09
-4.70664e-09
5.11417e-09
-6.99e-09
-4.28928e-09
2.09602e-09
-8.63297e-10
3.05656e-09
5.68737e-09
-7.71772e-09
7.84906e-09
-5.8187e-09
-1.45078e-09
-2.29549e-09
2.46105e-09
1.28521e-09
2.62252e-09
-4.9837e-09
-2.28311e-09
4.64429e-09
-5.04514e-09
4.57003e-09
-4.63129e-09
5.1064e-09
3.40396e-11
3.23836e-11
-6.64232e-11
-2.63754e-09
-3.49191e-10
2.42839e-10
2.74389e-09
-1.7614e-09
3.0273e-09
-7.17518e-09
5.90928e-09
3.01333e-10
9.17655e-11
-7.50815e-09
-4.97048e-09
8.81252e-09
3.66611e-09
-8.54815e-10
1.58401e-09
1.04842e-09
-1.77762e-09
1.26794e-09
1.25734e-09
-1.37896e-09
-8.47865e-11
9.07993e-11
-2.64129e-10
2.58116e-10
-3.81228e-09
3.32027e-09
4.71711e-09
-4.2251e-09
-3.07949e-09
-9.09326e-10
3.25877e-09
7.30044e-10
-1.94986e-09
3.36945e-09
-7.97444e-09
6.55484e-09
5.51862e-10
4.53975e-09
-4.79096e-09
-3.00656e-10
2.98387e-09
-3.34668e-09
4.15684e-09
-3.79404e-09
4.8081e-09
-1.15371e-09
-3.55423e-09
-1.00158e-10
5.36675e-09
6.553e-10
-1.95497e-09
-4.06709e-09
2.55649e-09
-1.55197e-09
2.63464e-09
-3.63915e-09
4.9852e-09
-5.31887e-09
5.25811e-09
-4.92444e-09
-3.73044e-10
-4.68862e-11
3.93596e-10
2.63343e-11
5.56991e-09
-5.48991e-09
-4.78469e-09
4.70469e-09
-6.27643e-09
-3.97775e-09
5.03918e-09
-2.31972e-09
-5.66467e-09
5.00597e-09
2.97842e-09
-1.84926e-09
2.87636e-09
-6.13862e-09
5.11152e-09
4.14073e-09
-4.27687e-09
-3.9245e-09
4.06065e-09
1.91025e-09
-9.72387e-10
-1.84272e-09
9.04864e-10
2.15039e-09
4.02132e-09
-2.14161e-09
3.68704e-09
-5.06143e-10
-4.26952e-09
1.08862e-09
-1.43736e-09
-2.53981e-09
1.24228e-09
2.7349e-09
-1.8265e-09
5.21241e-09
-5.03133e-09
-5.68152e-10
1.05261e-09
-3.02911e-09
2.90517e-09
-5.1604e-09
4.87776e-09
3.12118e-09
-3.41803e-09
-5.83036e-09
4.75964e-09
5.14165e-09
-4.13811e-09
-5.76318e-09
7.13058e-10
4.87066e-09
-5.39119e-09
-1.92526e-10
2.61042e-10
4.24551e-11
-1.95391e-10
-1.08106e-10
-2.66545e-09
-4.1686e-09
2.92263e-09
3.91143e-09
4.99281e-09
-3.41007e-09
-4.38116e-09
-2.91205e-09
1.29078e-09
-5.002e-09
6.62327e-09
-3.31882e-09
3.26425e-09
2.49993e-09
-2.44537e-09
4.34512e-09
-3.16699e-09
-7.70318e-09
6.52505e-09
8.15967e-10
-5.3612e-10
9.88096e-10
-4.13774e-09
5.51475e-09
-5.94901e-09
4.57199e-09
-1.21771e-10
3.90785e-11
-2.61154e-10
-4.46727e-09
4.82545e-09
-6.05441e-09
5.69622e-09
-3.5549e-09
4.33775e-09
-5.8089e-09
5.02605e-09
-3.5436e-09
3.3517e-09
-4.85009e-09
5.04198e-09
3.69968e-09
-4.08721e-09
5.35103e-09
-4.9635e-09
-8.91107e-09
2.83733e-10
6.44861e-09
2.17873e-09
-3.20079e-09
-1.27826e-09
1.09661e-09
3.38244e-09
-6.34623e-10
8.03066e-10
-6.31742e-09
6.14897e-09
-2.59442e-09
-1.23271e-10
8.01539e-11
4.49183e-09
-2.47632e-09
-2.01551e-09
-1.88788e-09
9.07075e-09
-8.19523e-09
4.97396e-09
-2.75046e-09
-2.2235e-09
-1.58067e-09
-5.09541e-09
1.91657e-09
-3.34365e-09
1.49472e-09
-2.09628e-09
3.94522e-09
-8.38079e-10
2.9707e-09
-2.84246e-09
3.9559e-09
-2.27191e-09
-1.68399e-09
3.53318e-10
1.70132e-10
4.28465e-09
-2.51762e-09
-1.53224e-09
2.6125e-09
-4.56274e-09
5.71982e-09
-7.09904e-09
5.94196e-09
-2.67467e-09
2.77121e-09
3.76515e-09
-3.86168e-09
-2.39316e-10
3.04132e-10
1.34201e-10
-1.99017e-10
6.52641e-09
-7.16619e-09
1.16133e-09
-5.2155e-10
4.36463e-09
-4.30469e-09
3.13751e-09
-3.32924e-09
4.55242e-09
-4.36069e-09
-5.86514e-10
2.07582e-09
4.20935e-10
-2.78158e-09
-5.8001e-09
5.40444e-09
3.17725e-09
-5.1118e-09
5.05063e-09
5.24186e-09
-5.1807e-09
-3.88015e-09
-5.76868e-09
4.37877e-09
5.27006e-09
1.41218e-10
-1.77074e-10
3.6211e-10
-3.26254e-10
5.63692e-09
-4.66649e-09
5.87588e-09
-6.84631e-09
-4.78824e-09
-3.3302e-09
4.59116e-09
3.52729e-09
-5.3331e-09
4.89168e-09
-5.98983e-09
6.43125e-09
-4.39258e-09
4.70721e-09
-5.21407e-09
4.89945e-09
-1.10013e-09
-3.12176e-09
3.25071e-09
9.71185e-10
4.2881e-09
4.88491e-09
-3.8693e-09
-5.30372e-09
3.42411e-09
-3.82393e-09
5.19544e-09
-4.79561e-09
-2.54677e-10
-3.04481e-10
3.75382e-09
-3.19466e-09
-2.85504e-09
4.36287e-09
2.67751e-09
-4.18534e-09
-4.18571e-09
-4.26723e-10
4.46015e-09
1.52287e-10
2.23533e-09
-2.70923e-09
1.24704e-10
2.88073e-09
-4.12807e-09
-2.41532e-09
3.66265e-09
-9.86256e-09
4.81403e-09
-5.11533e-09
1.01639e-08
-4.36849e-09
-5.89733e-09
4.87119e-09
5.39462e-09
6.36594e-09
6.64054e-09
-7.61294e-09
-5.39353e-09
3.49565e-09
5.38941e-09
-3.44907e-09
-5.43599e-09
-3.11587e-09
-1.18505e-09
3.82683e-09
4.40981e-09
-3.52568e-09
-4.71097e-09
-3.38624e-09
-5.28095e-09
3.52642e-09
5.14077e-09
3.61209e-09
4.95921e-09
-4.03078e-09
-4.54052e-09
4.51117e-09
5.50669e-09
-5.23113e-09
-4.78673e-09
3.99831e-09
5.59448e-09
-4.31448e-09
-5.27831e-09
-4.0043e-09
-5.97144e-09
4.51471e-09
5.46103e-09
-3.23046e-09
-4.14489e-09
3.84862e-09
3.52673e-09
3.68416e-09
5.37619e-09
-3.71229e-09
-5.34807e-09
-3.30028e-09
-4.23479e-09
3.93036e-09
3.60471e-09
-3.06767e-09
-4.37908e-09
2.5554e-09
4.89135e-09
-4.37259e-09
-6.26247e-09
4.90771e-09
5.72735e-09
4.84061e-09
-4.19076e-09
-5.9904e-09
5.34056e-09
-2.45751e-09
-1.42958e-09
2.62727e-09
1.25982e-09
-2.07792e-10
2.06579e-09
-2.18663e-09
3.28625e-10
3.93645e-09
-3.1295e-09
7.21096e-09
-8.01792e-09
-4.96099e-09
-4.00863e-09
5.14618e-09
3.82344e-09
3.41855e-09
-3.53887e-09
5.6528e-09
-5.53249e-09
3.49471e-09
-3.26864e-09
5.58756e-09
-5.81362e-09
-3.29888e-09
3.83634e-09
-6.0627e-09
5.52524e-09
-4.55628e-09
4.09048e-09
-5.1627e-09
5.62851e-09
1.36001e-09
-2.65797e-09
2.56331e-09
-6.60935e-09
6.34242e-09
-7.13928e-09
7.40621e-09
-4.50938e-09
-1.98859e-09
4.67147e-09
6.87255e-11
1.31212e-10
-1.33123e-10
-6.68146e-11
6.04928e-09
-5.72696e-09
6.9492e-09
-7.27152e-09
-5.24626e-09
3.77333e-09
-4.93829e-09
6.41123e-09
7.41556e-09
4.88404e-09
-5.93366e-09
3.53265e-09
-4.1923e-09
5.64588e-09
-4.98622e-09
-1.0288e-08
6.57875e-09
1.2417e-09
-5.84787e-09
-1.97258e-09
-4.78882e-09
5.93713e-09
3.75612e-09
-4.90443e-09
5.49318e-09
-6.44591e-09
5.4639e-09
4.92777e-09
-5.66098e-09
4.73151e-09
-4.2743e-09
5.23871e-09
-4.26469e-09
-4.18776e-09
5.12728e-09
-4.16997e-09
4.81191e-09
-5.66657e-09
4.53882e-09
-4.32021e-09
5.40456e-09
-4.15202e-09
-5.35819e-09
6.52523e-09
-5.17134e-09
-5.62999e-09
6.86389e-09
-5.60649e-09
4.52258e-09
-5.26636e-09
4.35587e-09
-5.66841e-09
7.04222e-09
4.4521e-09
-5.82591e-09
-5.20127e-09
6.2335e-09
-4.91238e-09
4.77163e-09
-5.22398e-09
4.74045e-09
-4.78346e-09
5.78483e-09
-4.38761e-09
4.27561e-09
-4.67561e-09
4.22684e-09
-3.19304e-10
-2.20255e-09
-7.25658e-11
-5.70325e-09
6.86616e-09
-5.53139e-09
-7.68053e-09
-9.40795e-10
7.46104e-09
1.16028e-09
-4.86629e-09
-5.81444e-09
4.18286e-09
6.49787e-09
4.03761e-09
4.24848e-09
-5.30223e-09
6.96333e-10
-7.44699e-10
4.22488e-10
-3.74121e-10
5.20163e-09
2.32865e-09
-2.56294e-09
-4.96733e-09
4.45524e-09
-7.7851e-09
8.05787e-09
-4.72801e-09
4.93817e-09
-5.52986e-09
4.08734e-09
2.40265e-09
-3.11532e-09
-3.54258e-09
4.25524e-09
-2.72846e-09
6.06027e-09
-5.47064e-09
2.13883e-09
-5.41878e-09
1.78493e-09
-3.80476e-09
3.3977e-09
-7.10109e-09
-5.94742e-09
-5.26463e-09
4.75006e-09
6.462e-09
-4.85817e-09
4.49882e-09
4.6912e-09
-4.33184e-09
2.21415e-09
4.38939e-09
-2.23891e-09
-1.2298e-09
-7.51963e-10
-7.36072e-09
9.34249e-09
4.15972e-09
6.26754e-09
-4.88792e-09
3.33804e-09
-3.06443e-09
4.31362e-09
-4.58723e-09
6.91672e-09
4.60933e-10
-6.64598e-09
-7.31672e-10
-7.40339e-09
7.23755e-09
2.54015e-10
-8.81767e-11
-5.10378e-09
-5.46612e-09
5.45811e-09
-7.92314e-09
-9.87018e-10
7.44022e-09
1.46994e-09
-2.52526e-09
2.18673e-09
-6.33853e-10
2.09052e-09
5.97018e-09
6.08161e-10
-6.17537e-09
-4.19422e-09
5.82954e-09
4.54006e-09
5.76759e-09
4.74968e-09
-4.57429e-09
-5.94298e-09
-2.2963e-09
2.09551e-09
3.82769e-09
-3.62691e-09
-5.39981e-09
5.41898e-09
4.12156e-09
3.80552e-09
5.9953e-09
-4.11069e-09
2.1292e-09
7.10018e-09
-1.05725e-09
-8.17213e-09
1.41902e-11
1.16387e-09
6.48035e-09
-4.99917e-09
3.71901e-09
-5.37099e-09
6.9754e-10
6.58155e-09
-1.9081e-09
5.38414e-09
5.99507e-09
-6.39401e-09
-5.38494e-09
-6.68602e-09
5.01076e-09
7.0602e-09
3.63015e-09
3.46423e-09
-3.38596e-09
-3.70842e-09
4.94833e-09
5.94437e-09
-4.51897e-09
-6.37372e-09
-6.60035e-09
7.27961e-09
7.17521e-09
-7.85448e-09
-7.1236e-09
2.18733e-09
4.27721e-09
6.59054e-10
-2.91522e-09
7.60692e-10
-9.24958e-10
-6.12157e-09
7.79893e-09
5.0466e-09
-6.72396e-09
4.44001e-09
6.77086e-09
-5.64097e-09
-3.37539e-09
-5.29339e-09
3.5498e-09
-3.95591e-09
-6.41541e-09
4.27676e-09
4.48151e-09
6.82786e-09
-5.34201e-09
4.37991e-09
6.97216e-09
-4.87434e-09
-3.7849e-09
-5.50446e-09
3.84641e-09
3.85314e-09
5.78892e-09
-4.59949e-09
2.62289e-09
3.31422e-09
-3.17352e-09
-2.76359e-09
-4.96367e-09
-7.00438e-09
5.28492e-09
-4.04376e-09
-5.59252e-09
4.03734e-09
3.5699e-09
5.31053e-09
-3.62671e-09
4.42682e-09
6.31009e-09
-5.09006e-09
3.49166e-09
5.49694e-09
-3.68428e-09
-5.35809e-09
-6.88975e-10
1.20394e-09
4.84312e-09
1.20534e-09
5.05686e-09
7.23124e-09
-1.13518e-09
-5.94419e-09
-1.51868e-10
5.97672e-09
-2.09117e-10
-5.96903e-09
2.01434e-10
6.90385e-09
-1.36982e-10
-6.95868e-09
1.91813e-10
7.60638e-09
-2.1654e-10
-8.40912e-09
1.01927e-09
-6.51525e-09
4.26655e-09
1.59089e-09
6.57808e-10
5.46451e-09
-6.0225e-09
2.31544e-10
3.26449e-10
-7.04786e-09
7.1779e-09
-1.21828e-10
-8.20502e-12
-7.4045e-09
7.42173e-09
-2.76029e-11
1.03749e-11
-7.13571e-09
6.85212e-09
-1.94909e-10
4.78508e-10
-8.11597e-09
7.03279e-09
2.11631e-09
-1.03314e-09
-8.42371e-09
8.61066e-09
-2.93628e-10
1.06682e-10
-6.52226e-09
6.67748e-09
-2.48951e-10
9.37273e-11
-5.54652e-09
6.67291e-09
-3.05639e-11
-1.09582e-09
-6.28616e-09
5.17131e-09
1.54059e-09
-4.25739e-10
-6.32064e-09
5.15681e-09
-5.23248e-10
1.68708e-09
-5.66619e-09
6.81968e-09
-3.5581e-11
-1.11791e-09
-8.21994e-09
7.9573e-09
-9.48388e-11
3.57475e-10
-5.50457e-09
6.45206e-09
9.40789e-12
-9.56896e-10
-6.56998e-09
6.61252e-09
-8.90564e-11
4.65137e-11
-6.69313e-09
6.78601e-09
-8.47609e-11
-8.11985e-12
-6.58524e-09
6.57373e-09
-1.33812e-10
1.4532e-10
-8.01065e-09
8.18523e-09
-1.10898e-10
-6.36792e-11
7.23509e-09
-8.77727e-09
6.37409e-11
1.47845e-09
8.8191e-09
-8.514e-09
1.96186e-10
-5.01286e-10
-4.23083e-09
-1.73399e-09
4.49774e-09
1.46708e-09
6.16114e-09
-6.61447e-09
-1.81293e-10
5.82246e-09
1.41016e-09
-5.68522e-09
-4.55818e-09
1.03922e-09
6.3581e-09
-6.74524e-09
-4.93172e-09
-6.07917e-09
5.65775e-09
3.95407e-09
2.00777e-09
4.80118e-09
-4.22418e-09
-2.58476e-09
-1.6255e-09
-2.28278e-09
-4.58374e-09
4.593e-09
-4.57199e-09
4.8746e-09
-5.25811e-09
5.76766e-09
-2.2609e-09
6.11238e-09
1.35015e-09
-3.77292e-09
6.01639e-09
-5.1933e-09
2.94983e-09
1.56032e-10
-2.44997e-11
-1.31532e-10
3.87859e-09
5.68216e-09
-3.99242e-09
4.18971e-09
6.25278e-09
-4.79658e-09
-3.96117e-09
-5.3586e-09
4.2621e-09
-6.15471e-09
7.88902e-09
-6.70479e-09
2.37128e-10
-4.31367e-10
7.74836e-09
-7.10652e-09
7.21919e-09
-3.88559e-09
4.74197e-09
-4.82971e-09
-1.49293e-09
-5.15174e-09
-3.89005e-09
4.11645e-09
-3.21862e-09
-5.02001e-09
3.58225e-09
3.02842e-09
4.9645e-09
-3.65404e-09
3.73831e-09
5.59754e-09
-4.0901e-09
3.66652e-09
5.47211e-09
-4.01585e-09
-2.07313e-09
5.45288e-09
-5.32276e-09
-5.43962e-09
4.38288e-09
6.3795e-09
1.53348e-09
-2.38917e-09
-1.66193e-09
-1.7308e-10
-1.04021e-10
5.72099e-11
2.19891e-10
-3.47708e-09
3.71962e-09
5.95114e-09
5.25892e-09
4.91262e-09
-6.01611e-09
-4.15543e-09
6.43247e-09
-7.27832e-09
-2.78779e-09
3.63364e-09
1.45549e-09
-6.5543e-09
5.80068e-10
-3.86862e-10
3.64484e-11
-3.09998e-09
-3.68976e-09
2.97746e-09
-4.76661e-09
-1.08693e-09
5.20355e-09
6.49992e-10
7.51624e-09
-6.02547e-10
-3.87289e-10
5.86073e-09
-4.83961e-09
6.17825e-09
-7.19937e-09
5.45136e-09
-4.09503e-09
4.83229e-09
-6.18863e-09
3.79363e-09
5.90023e-09
-4.0309e-09
3.65494e-09
5.66929e-09
-3.88686e-09
3.71125e-09
5.771e-09
-3.94063e-09
-2.14007e-09
2.98787e-09
-4.16662e-09
-4.62075e-09
-4.26007e-09
5.21495e-09
3.66587e-09
4.8635e-09
5.85384e-09
-4.01185e-09
-6.70549e-09
2.50634e-09
-6.42954e-09
-2.25244e-09
6.17564e-09
-1.03653e-09
4.24919e-09
-4.97052e-09
3.5571e-09
-4.19113e-09
5.60455e-09
-2.87736e-10
4.40077e-09
1.35819e-09
-4.29146e-09
-3.00727e-09
-1.02382e-09
4.36594e-09
1.74131e-09
-1.64008e-09
-4.46717e-09
-6.35668e-09
-4.1596e-09
5.77212e-09
4.74416e-09
-5.15314e-09
4.64271e-09
-4.84757e-09
5.35799e-09
7.506e-09
2.31399e-09
-3.62847e-09
-6.19153e-09
-7.7232e-09
7.07946e-09
-2.12235e-09
2.7661e-09
-5.58165e-09
6.75522e-09
-4.65065e-09
4.39859e-10
-2.37874e-09
6.457e-09
2.98556e-09
-6.60472e-09
-2.83783e-09
-7.2579e-09
3.73002e-09
-3.38666e-09
6.91455e-09
-5.39034e-09
-2.86944e-10
3.19195e-10
5.26841e-09
1.94016e-09
-3.63176e-09
-3.57682e-09
-5.52952e-09
6.77983e-09
-4.21688e-09
2.96657e-09
-5.72864e-09
5.01076e-09
5.37369e-09
3.18915e-09
-7.58537e-09
6.52541e-09
-2.46747e-09
1.56049e-09
-1.79916e-09
2.70614e-09
-5.82667e-09
1.16068e-09
5.1237e-09
-4.57707e-10
-1.83794e-09
8.32744e-09
-8.37738e-09
-3.73446e-09
-3.63973e-09
4.70875e-09
-3.04039e-09
4.85002e-09
-6.55728e-09
-3.15091e-09
5.03963e-09
-6.81203e-09
-3.21644e-09
5.15355e-09
-6.96427e-09
-3.1003e-09
4.95173e-09
-6.69458e-09
-2.43591e-09
-4.92346e-09
3.06099e-09
-3.68329e-09
5.54576e-09
-4.79923e-09
6.56045e-09
4.69578e-09
-5.71024e-09
-7.14303e-09
8.55732e-09
4.29595e-09
-1.09382e-10
-6.04727e-10
-4.71276e-12
7.18822e-10
-4.42642e-09
6.08741e-09
-8.26133e-09
5.89426e-09
1.13193e-09
-6.37803e-09
-6.48158e-10
-6.87628e-09
-1.51561e-09
7.29576e-09
1.09613e-09
-7.23652e-09
-1.19543e-09
8.23941e-12
-6.06366e-09
-1.11149e-09
6.52891e-10
-5.94623e-09
-1.41226e-09
1.03784e-09
-4.50934e-09
-9.20478e-10
-1.16699e-10
-4.60456e-09
-9.44767e-10
-1.16864e-10
6.24301e-09
1.45852e-09
-1.12279e-09
6.0096e-09
1.04525e-09
1.80236e-10
4.4621e-09
5.33399e-09
-5.41875e-09
-4.37734e-09
5.54799e-09
-5.66327e-09
2.47339e-09
-2.3581e-09
-3.18292e-09
-1.43899e-09
5.28207e-10
5.33171e-09
-5.50214e-09
-3.57778e-10
-4.84214e-09
-6.7719e-09
6.12412e-09
-3.30981e-09
5.82712e-09
-7.52324e-09
-2.91134e-10
1.17876e-10
-2.95971e-10
5.73872e-09
5.33966e-10
-5.95418e-11
-8.44695e-11
-4.72735e-10
6.63511e-09
1.444e-09
5.96794e-10
-6.27283e-09
-8.39213e-10
3.67811e-10
-5.92975e-09
-4.60563e-10
-3.45643e-10
6.51637e-09
1.00717e-09
-1.11757e-10
3.97773e-10
-3.56838e-10
6.46043e-09
7.4852e-10
9.97671e-10
-7.30092e-09
-1.81272e-09
-2.05439e-10
5.96158e-10
2.13524e-11
8.15792e-11
-9.95163e-11
1.91765e-10
2.45597e-11
1.01994e-10
6.77168e-10
-5.91827e-09
-1.04506e-09
-1.25948e-10
-2.21809e-10
-5.90852e-11
5.73378e-12
-2.07895e-10
6.02743e-09
6.32524e-10
-2.79362e-10
6.55305e-09
5.12322e-10
-2.76096e-10
6.40434e-09
4.84272e-10
-3.11082e-10
6.30397e-09
5.80843e-10
-3.36656e-10
7.72389e-09
7.97996e-10
-5.30646e-11
9.48872e-11
6.191e-10
-8.08376e-09
-1.04933e-09
9.48268e-10
-1.20708e-09
-1.28013e-09
6.00477e-09
-3.2532e-10
1.41409e-09
-7.09355e-09
-4.24779e-09
1.676e-09
-1.00219e-09
3.57399e-09
-2.72244e-09
7.09156e-09
1.64726e-09
-4.04265e-09
5.04799e-09
-5.26161e-09
8.05694e-10
-3.6925e-09
-5.94173e-11
2.94623e-09
-6.51264e-09
-1.69917e-09
4.88612e-10
4.0273e-09
-4.09463e-09
-3.27935e-09
-3.45048e-09
-7.03634e-09
6.97323e-09
3.51359e-09
3.06964e-10
5.52171e-09
-5.16618e-09
-6.625e-10
-3.75157e-09
-6.00206e-09
2.14939e-09
3.86302e-09
-3.13304e-09
-2.87937e-09
-3.9036e-09
-4.86641e-09
2.41332e-09
-3.67266e-09
5.9872e-09
-8.06572e-09
-1.26854e-09
1.82874e-09
3.64608e-09
-4.20628e-09
-5.3801e-09
-5.04555e-09
5.64097e-09
-2.41774e-09
-7.54525e-09
5.66928e-09
4.29371e-09
8.42683e-10
3.71526e-09
-4.55794e-09
1.14533e-09
3.7175e-09
-4.86284e-09
1.39351e-09
4.88557e-09
-6.27908e-09
-3.63042e-09
3.26287e-09
-4.14902e-09
4.51657e-09
-4.22446e-09
4.62013e-09
-5.82795e-09
5.43228e-09
2.86751e-09
-3.1077e-09
5.41149e-09
4.13765e-09
-3.87714e-09
4.86203e-09
-5.12253e-09
-3.84815e-09
5.11352e-09
-6.00255e-11
-3.49986e-09
4.5561e-09
2.98136e-09
-2.39415e-09
3.1536e-09
-1.07875e-09
4.71536e-09
-2.13989e-10
-4.12271e-11
-5.65629e-09
5.64531e-09
7.29059e-09
3.60692e-09
5.34085e-09
-4.48566e-09
1.41041e-10
-2.74435e-10
3.77146e-10
-2.43752e-10
4.55785e-10
-6.82975e-09
-7.92225e-10
4.91656e-09
3.15355e-09
-5.16494e-09
-5.83586e-09
-4.697e-09
5.57193e-09
4.96094e-09
3.81775e-09
-3.90839e-09
7.12343e-09
-6.66719e-09
-2.018e-09
7.62055e-10
7.33547e-09
-7.49579e-09
-4.16973e-10
-5.26454e-09
3.21094e-09
6.70096e-09
-4.64736e-09
-6.89273e-09
-4.53535e-09
4.81873e-09
6.57766e-09
4.1445e-09
-4.67288e-09
-6.93692e-09
5.22682e-09
5.26161e-09
-4.88873e-09
-3.57732e-09
3.90977e-09
-5.74358e-09
-3.94405e-09
4.44136e-09
4.86361e-10
-2.51755e-09
-3.62955e-10
-6.14437e-09
3.97035e-09
-3.3111e-09
5.48511e-09
6.40903e-09
6.34194e-10
-6.58744e-09
-4.49021e-09
2.26954e-10
-2.32229e-09
6.5524e-09
-5.13995e-09
-5.53086e-09
3.61013e-09
-5.73006e-09
4.5346e-09
5.74503e-09
3.81814e-09
-3.8043e-09
5.97474e-09
-5.98858e-09
-7.04129e-10
-7.697e-09
8.42351e-09
-2.2373e-11
2.70248e-10
6.12012e-09
8.47191e-10
3.8244e-10
5.92333e-09
6.10944e-10
-6.71247e-09
4.42621e-09
-4.43258e-09
6.71883e-09
3.73806e-09
2.36747e-09
-1.38861e-09
-4.71691e-09
3.96757e-09
5.46994e-09
-3.51971e-09
-5.91781e-09
-5.76148e-09
1.3199e-09
-2.08855e-09
6.53013e-09
-8.73821e-09
5.97062e-09
1.42735e-09
1.34023e-09
9.14596e-10
3.66884e-09
-6.12269e-09
1.53926e-09
2.98144e-10
1.30768e-09
-1.27326e-09
-3.32564e-10
-6.36386e-09
-6.57023e-10
-4.41519e-10
7.4624e-09
-5.33527e-09
-3.57282e-09
3.9471e-09
-4.23289e-09
4.72742e-09
-6.16099e-09
5.66646e-09
-4.66796e-09
-4.58563e-09
4.3873e-09
4.20384e-09
-4.01443e-09
3.29274e-09
-3.48215e-09
5.07443e-09
-4.47791e-09
5.62971e-09
-6.22623e-09
3.44446e-10
-1.93433e-10
-4.91762e-09
4.37865e-10
-4.19924e-10
-5.12263e-10
4.94322e-10
-3.30134e-09
4.00278e-09
-3.68103e-09
3.62207e-09
-4.02474e-09
6.95534e-09
-6.55268e-09
5.09033e-09
3.94345e-09
-5.18093e-09
-3.85284e-09
-9.11325e-11
3.73826e-10
5.682e-09
1.6218e-09
-1.88583e-09
-5.41796e-09
5.48743e-09
-6.27925e-09
5.66642e-09
-1.03891e-09
-2.71439e-09
5.02607e-09
-7.69259e-09
1.11859e-08
-8.51935e-09
4.1163e-09
-4.15787e-09
-1.08764e-09
1.12921e-09
3.40066e-09
5.42303e-09
-4.55715e-09
1.816e-10
1.34027e-10
-7.47709e-09
7.16146e-09
5.2011e-09
-7.29007e-09
5.27813e-09
4.23585e-10
7.95475e-09
-2.20148e-09
-3.98478e-09
4.4219e-09
-5.63041e-09
2.42402e-09
-2.43258e-09
-3.7259e-09
5.02047e-09
1.28862e-09
-5.39449e-09
7.36917e-09
3.46574e-10
-7.73908e-09
1.21062e-10
-2.25417e-10
-6.68037e-09
6.77812e-09
7.44936e-10
-6.48107e-09
6.38932e-09
1.23708e-09
-8.45989e-09
8.64531e-09
1.20809e-09
7.33729e-09
-6.22003e-09
5.94008e-09
1.08302e-09
4.97967e-11
-4.81607e-09
6.9794e-09
-8.6638e-09
-1.37631e-10
1.82203e-09
-4.19193e-09
3.87775e-09
5.25019e-09
4.35944e-09
-3.95978e-09
-5.15251e-09
4.75286e-09
5.02319e-09
7.41351e-09
-5.26148e-09
-4.01065e-10
-5.00009e-10
3.96e-10
5.05073e-10
-4.44987e-09
-1.07738e-09
6.05858e-10
4.92138e-09
-2.36836e-10
-2.13166e-11
3.17723e-10
-5.95695e-11
3.36456e-09
-4.4219e-09
4.00716e-09
-1.41365e-09
6.75403e-09
3.41624e-10
3.13077e-09
6.00619e-10
-6.5306e-09
5.66466e-09
6.87554e-09
-3.75163e-09
4.30886e-09
5.68578e-09
5.03139e-09
-4.29437e-09
-5.34157e-09
4.92415e-09
-4.20562e-09
-5.22788e-09
-4.42634e-09
3.29235e-09
-4.92967e-09
3.48819e-09
-5.53721e-09
-4.82727e-09
-2.45708e-09
4.43471e-09
3.91663e-09
2.65248e-09
-5.22086e-09
-4.66814e-09
3.54398e-09
-4.09692e-09
-5.39329e-09
3.74922e-09
-2.50301e-09
-4.29371e-09
6.86691e-09
-5.90902e-09
-3.99441e-09
4.41793e-09
1.72586e-09
-2.58006e-09
8.63864e-10
7.69815e-10
5.47134e-11
-9.94561e-10
1.70033e-10
-9.27828e-10
-5.85883e-09
-8.93871e-10
7.46674e-09
1.39559e-10
4.9686e-09
4.14512e-09
-4.77248e-09
-4.34123e-09
-5.1922e-09
3.27218e-09
-2.63592e-09
4.55594e-09
-9.19725e-09
6.4459e-09
6.37342e-09
-2.71553e-10
7.17565e-09
6.54792e-09
8.00456e-10
-1.98162e-09
-1.1033e-10
-5.23408e-10
5.24357e-10
-4.99225e-09
4.16214e-09
5.43795e-09
-4.60784e-09
-1.52983e-09
2.26031e-09
-1.78891e-09
1.05843e-09
1.66512e-09
-1.48317e-09
-5.27736e-09
-2.83063e-09
-1.1016e-09
4.04477e-09
-4.19728e-09
-3.14883e-09
1.54698e-09
4.43386e-09
-1.06118e-09
-4.91965e-09
-7.12924e-09
4.77162e-09
-4.24713e-09
2.88884e-09
6.29646e-09
-5.6121e-09
-5.30878e-09
5.21064e-09
1.13196e-10
-4.60591e-10
-1.38091e-10
4.85486e-10
-5.5468e-09
3.5976e-09
-5.51816e-09
5.46542e-09
1.71786e-09
7.67596e-10
6.88075e-09
3.63598e-09
-3.58707e-09
4.23522e-09
-4.28413e-09
-6.56716e-09
3.95969e-09
4.97356e-09
-4.3816e-09
4.37281e-09
-4.96477e-09
-5.57652e-09
4.77519e-09
-4.91772e-09
5.71906e-09
2.28902e-09
-1.94632e-09
6.55637e-09
-6.89907e-09
4.7112e-09
-3.0324e-09
-5.09683e-09
6.73475e-09
-6.83232e-09
-5.57083e-09
-4.57653e-09
4.86046e-09
4.23865e-09
5.7996e-09
-5.83305e-09
-4.75536e-09
-5.90562e-09
5.80399e-09
5.59481e-09
4.4209e-09
-4.3803e-09
-4.22837e-09
4.51824e-09
-4.47045e-09
-4.32209e-09
-5.30045e-09
5.8359e-09
4.39233e-09
-4.9053e-09
5.59033e-09
4.12688e-09
5.63599e-09
-6.29325e-09
-4.70093e-09
4.16061e-09
-4.38014e-09
-4.10067e-09
5.75965e-09
-5.83569e-09
-5.55395e-09
4.0375e-09
-3.38051e-09
-7.29883e-09
-1.17653e-09
7.09291e-09
1.38244e-09
1.09876e-09
-3.72379e-09
7.4664e-09
-4.92952e-09
4.04559e-09
-5.15758e-09
5.29514e-09
-4.69419e-09
4.55663e-09
4.34273e-11
-7.8563e-09
7.9469e-09
-4.17975e-09
4.22639e-09
1.05212e-09
-1.38825e-09
1.50921e-09
-1.96368e-09
-8.02248e-10
-9.80188e-10
6.88426e-10
1.09401e-09
6.76182e-09
-4.45633e-09
3.68296e-09
-5.16451e-09
-4.38064e-09
4.88892e-09
4.65623e-09
3.47985e-10
-4.67701e-11
3.15385e-09
-5.07382e-09
6.97598e-09
-6.24264e-09
-4.19205e-09
-5.18819e-09
-4.43885e-10
7.12443e-09
-1.49236e-09
-4.90806e-09
4.09405e-09
6.77099e-09
-5.95698e-09
3.71756e-09
3.42244e-09
-3.37351e-09
-3.76649e-09
5.74593e-09
-4.41765e-09
-6.37342e-09
2.25721e-09
-3.70509e-09
-1.5131e-09
2.96099e-09
1.09565e-09
-9.7127e-10
1.16259e-09
-1.28696e-09
4.52076e-09
-4.9826e-09
-3.56372e-09
4.02556e-09
4.45899e-09
-5.24034e-09
7.48689e-09
-5.30603e-09
-5.66139e-09
6.31416e-09
7.50895e-09
-5.85982e-09
3.4412e-09
2.15853e-09
-1.64699e-09
5.92128e-10
-1.10367e-09
-8.9794e-10
-4.29936e-10
5.44417e-09
-2.43931e-09
2.88761e-09
-5.60871e-09
-5.10422e-09
-3.35346e-09
4.33342e-09
4.12426e-09
-3.98931e-09
-5.911e-09
-2.62609e-09
2.64269e-09
2.5399e-09
7.75067e-10
-3.80254e-09
4.23915e-09