/*--------------------------------*- C++ -*----------------------------------*\
  =========                 |
  \\      /  F ield         | OpenFOAM: The Open Source CFD Toolbox
   \\    /   O peration     | Website:  https://openfoam.org
    \\  /    A nd           | Version:  8
     \\/     M anipulation  |
\*---------------------------------------------------------------------------*/
FoamFile
{
    version     2.0;
    format      ascii;
    class       volVectorField;
    location    "9";
    object      U;
}
// * * * * * * * * * * * * * * * * * * * * * * * * * * * * * * * * * * * * * //

dimensions      [0 1 -1 0 0 0 0];

internalField   nonuniform List<vector> 
7843
(
(0.000746753 0.00134256 -1.96248e-22)
(0.000552827 0.000981281 9.4594e-22)
(0.000559956 0.00100543 0)
(0.000991589 -1.74066e-06 5.81073e-22)
(0.000718442 0.00125436 -2.48271e-22)
(0.000997976 3.55506e-05 -6.93403e-23)
(0.000573501 0.000542829 -2.04233e-21)
(0.00061337 0.00106539 0)
(0.000217694 9.55341e-05 2.81668e-21)
(0.000542826 0.000968434 0)
(0.000574208 0.00101663 7.48319e-22)
(0.000753762 0.00134398 0)
(0.000320186 5.30475e-05 0)
(0.000567675 0.00102243 0)
(0.000575298 0.000975536 1.26167e-21)
(0.00031524 0.000551071 7.61736e-22)
(0.000572081 0.0010142 2.2956e-24)
(0.000578298 0.000956457 0)
(6.97666e-06 8.42495e-05 8.4058e-22)
(0.000252838 0.00037759 0)
(0.000205567 0.000142568 2.42294e-21)
(0.000413349 0.000446912 -4.04248e-22)
(0.000574872 0.00101935 2.22326e-24)
(8.59996e-05 0.000874831 -1.12381e-22)
(0.000743545 0.00121448 -4.62102e-22)
(1.71304e-05 -5.36705e-06 0)
(0.00060838 0.00136664 -3.13834e-23)
(6.03533e-05 0.00037445 2.44343e-21)
(0.000657318 0.00120046 -9.46957e-23)
(0.00100907 3.72502e-06 -6.5975e-22)
(0.000890547 0.000155514 -8.55428e-22)
(0.000567108 0.00104106 2.73221e-22)
(0.000823 -9.72945e-05 7.98925e-22)
(0.000618694 0.00107471 1.0496e-22)
(0.000547197 0.000967284 7.29532e-22)
(0.000781161 0.00124182 -1.66843e-21)
(0.000573255 0.000970985 -5.43433e-22)
(0.000936783 0.00034706 1.01066e-24)
(0.000985412 4.62677e-05 -8.95317e-23)
(0.000509814 0.000943929 8.01131e-22)
(0.000574617 0.000980257 -1.4444e-23)
(0.000626884 0.00110654 -8.76044e-22)
(0.000723075 0.00123594 0)
(0.000555557 0.000980434 -1.90502e-21)
(0.000224495 7.72035e-05 -8.52987e-22)
(0.000189639 0.000464453 5.62101e-22)
(0.000572244 0.00102111 8.00913e-22)
(0.000210307 0.000589584 1.13196e-21)
(0.000608883 0.00108555 9.99266e-22)
(1.04826e-05 3.27986e-05 2.22017e-23)
(0.000355397 4.16683e-05 -8.05716e-22)
(0.00055713 0.000976167 1.04143e-23)
(0.000606836 0.00107394 0)
(0.000776751 0.000535181 7.16212e-22)
(0.000679553 0.00117783 -1.86588e-22)
(7.06213e-06 8.35131e-05 0)
(0.000370337 0.000443993 2.15571e-21)
(0.000569476 8.68703e-05 8.23285e-22)
(0.000719283 0.0012674 -3.08166e-24)
(9.94889e-05 0.000171441 -1.10517e-21)
(0.000720188 0.00123619 3.01335e-22)
(0.00104374 0.000451529 7.50461e-23)
(7.15119e-05 0.000559451 -3.79399e-21)
(0.000827353 0.000119882 -1.4651e-21)
(0.000664618 0.00126867 6.50917e-24)
(0.000763737 0.00135687 -5.02458e-22)
(0.000728451 0.00123203 0)
(1.00527e-05 6.65317e-05 0)
(0.000573585 0.000529829 0)
(0.000719478 0.00123543 0)
(0.000360631 -0.000141242 -7.87811e-22)
(0.000569415 0.00098818 7.98789e-22)
(0.000218842 0.00118828 1.62584e-23)
(9.9522e-05 0.000163973 7.22228e-22)
(0.00034593 -0.00010018 -7.15481e-22)
(0.000393177 0.000704084 6.27304e-22)
(0.0007241 0.00123511 2.42688e-22)
(0.000720859 0.00123629 -1.02279e-22)
(0.000632436 0.00111447 0)
(0.000941978 5.36345e-05 0)
(0.00047414 -2.59574e-05 -1.12276e-21)
(0.000667609 0.00122009 0)
(0.000563 0.00102828 -9.36172e-22)
(0.000704477 0.000323095 1.75611e-21)
(0.000411684 0.000715868 -5.06634e-22)
(0.000617906 0.00106583 -5.20502e-22)
(0.00046059 0.000356741 0)
(0.000718606 0.00124522 -6.29859e-23)
(0.000838407 0.00030284 -1.34683e-21)
(0.000217663 0.000464595 8.19663e-22)
(0.000192652 0.000169599 -4.60463e-21)
(0.000584328 0.000998093 -4.47984e-22)
(1.41185e-05 4.96145e-05 9.24885e-26)
(0.000870063 0.000133291 2.54508e-21)
(0.000525606 0.000344033 0)
(0.000784579 0.00136569 7.66141e-22)
(2.18051e-05 6.8725e-05 -1.7931e-21)
(0.000441608 0.00103741 -1.85435e-23)
(0.000417433 3.16955e-05 1.22366e-21)
(0.000399394 0.000728304 -6.3533e-22)
(0.000476967 0.00113308 0)
(0.000593922 0.00124625 1.31128e-22)
(0.000382172 0.000405039 0)
(0.000728222 0.00145513 0)
(0.000200041 0.000204788 -1.17395e-21)
(0.000136872 0.00107304 -9.87122e-22)
(8.46384e-06 4.80885e-05 1.6296e-22)
(0.000352509 -0.000188592 -7.99893e-22)
(0.000477077 0.000896323 -6.50883e-22)
(0.000555097 0.000960366 0)
(0.00070294 0.00127313 1.15397e-23)
(0.000598444 0.000574438 -7.28102e-22)
(0.00107398 0.000403356 6.97876e-23)
(0.000628759 0.00107396 -5.9093e-22)
(0.00017065 0.000314736 -2.22776e-21)
(0.000698603 0.00136498 -5.32882e-22)
(0.000836162 0.000273944 1.95505e-24)
(0.000772814 0.0013508 8.09493e-23)
(0.000191486 0.000212595 0)
(0.000583036 0.000991841 1.43673e-21)
(0.000718069 0.00125241 4.6343e-22)
(0.000706409 0.00123786 8.7081e-23)
(0.000553728 0.00099418 -7.84856e-22)
(0.00066823 0.00113341 1.9664e-22)
(0.000497063 3.74367e-05 -1.02746e-21)
(0.000382849 0.000501102 0)
(0.000627281 0.00106354 0)
(0.000178812 0.000888676 -1.82535e-21)
(0.00055256 0.000704856 -9.00764e-23)
(0.000989548 4.1615e-05 0)
(0.000584472 0.000996551 4.52076e-22)
(0.00018007 0.00038033 4.27282e-22)
(0.000357065 0.000180803 1.4788e-21)
(0.000706738 0.00121945 -4.98e-22)
(0.000519925 0.000980874 -2.0916e-21)
(0.000569187 0.000965118 -8.12022e-22)
(0.000994914 3.72613e-05 4.37321e-23)
(0.00031097 0.000731326 -1.62704e-23)
(0.000574412 0.000977448 -4.99806e-24)
(0.000719267 0.00124076 2.00542e-22)
(0.000479019 6.57007e-05 -8.76199e-22)
(0.00059904 0.000847109 1.04457e-21)
(0.00071527 0.000240138 5.40831e-23)
(0.000970824 -0.000233977 1.07964e-21)
(1.3928e-05 5.2451e-05 9.66628e-26)
(0.000787358 -3.24605e-05 6.36203e-22)
(0.000626578 0.00111632 -9.3096e-22)
(0.00049217 0.000960471 -1.62389e-23)
(0.000718033 0.000866198 1.3398e-21)
(7.97074e-05 0.000860499 1.03052e-21)
(0.00060101 0.00104388 7.80874e-24)
(0.000545544 0.000567808 -8.42919e-22)
(0.000785077 0.000178968 8.14834e-22)
(0.000580134 0.000984885 0)
(0.000729787 0.00123122 7.06128e-22)
(0.000564236 0.000990373 -7.97352e-22)
(4.36918e-05 0.000298947 -1.44605e-21)
(0.000194884 0.000392103 -5.92191e-22)
(0.000574188 0.00101385 1.98623e-21)
(0.000574317 0.000992929 0)
(0.000346507 0.000113362 1.75721e-21)
(0.000565689 0.000990307 -1.61752e-21)
(0.00133279 0.000376992 5.21718e-23)
(0.000567541 0.000993205 -6.88984e-24)
(0.000577283 0.00101353 -9.72781e-22)
(0.000609357 0.00106791 -3.2421e-22)
(0.000711799 0.000298305 -1.02828e-21)
(0.000355161 0.00134966 0)
(0.000625114 0.00108391 -2.04961e-22)
(0.000569019 0.000997606 8.41801e-22)
(0.000606507 0.0010788 0)
(0.000574785 0.00100903 9.42721e-22)
(0.00056998 0.00100044 -3.42273e-24)
(0.000130114 0.000324661 -2.28361e-21)
(0.000572272 0.00100427 -9.03866e-22)
(0.00033135 9.73373e-05 -5.5092e-26)
(0.000415528 0.000753876 0)
(0.000233933 2.28748e-05 9.54585e-23)
(0.000397625 0.00072047 7.3825e-22)
(0.000762904 0.0013454 -2.8887e-22)
(0.000424794 0.000732048 2.21394e-22)
(0.000624985 0.00107988 -4.56071e-23)
(3.68407e-05 0.00023983 7.41208e-26)
(0.000568883 0.0010112 0)
(0.000551656 0.000967282 7.97566e-22)
(0.000418513 0.000566911 -3.59001e-23)
(8.37352e-06 4.45398e-05 2.0704e-23)
(0.000562793 0.000585305 7.97279e-22)
(0.000391183 0.000662736 0)
(0.000223141 0.000469945 0)
(0.000570263 0.000986445 -3.77962e-22)
(0.00032055 0.000561974 8.9321e-22)
(0.000895331 9.33271e-05 7.54372e-22)
(0.000327024 7.43971e-05 0)
(0.000558267 0.000991871 -8.60335e-22)
(9.94393e-05 0.0001116 2.62026e-22)
(2.30088e-05 -1.27546e-06 0)
(0.00025871 0.000350924 2.53063e-21)
(0.000719103 0.00123978 -7.36068e-23)
(0.000464701 0.000937321 1.06176e-21)
(0.000557654 0.000970926 1.91486e-21)
(0.00071912 0.00125181 1.03042e-22)
(0.000582353 0.000999404 8.69896e-22)
(0.000715326 0.00123038 3.1166e-22)
(0.000422778 0.000799 6.6989e-23)
(9.3971e-05 0.000102839 -3.58757e-22)
(0.000723847 0.00128677 7.02878e-23)
(1.36689e-05 0.00016644 2.84353e-22)
(1.47385e-05 -7.64098e-06 -5.34516e-22)
(0.000581684 0.000990194 -4.86109e-22)
(0.000803445 0.000750186 0)
(0.000556403 0.000965553 -9.7433e-22)
(0.000187973 0.000391711 6.61482e-22)
(0.000731877 0.00124015 3.04363e-22)
(0.000730208 0.00122924 1.94767e-22)
(0.000446379 0.000914289 2.17054e-21)
(0.00072777 0.000224233 -1.83978e-22)
(0.00071171 0.00124822 0)
(2.22238e-06 7.39259e-07 0)
(0.000766216 0.00050475 0)
(0.000481887 0.000349374 3.76046e-22)
(4.17276e-05 0.000503155 2.81744e-22)
(0.000329564 0.00107391 0)
(0.00057661 0.00101454 9.70629e-22)
(0.000705026 0.000710889 1.80464e-22)
(0.000877864 0.000123126 0)
(0.00124406 0.000304251 0)
(0.000725809 0.00123346 0)
(0.000575248 0.00101496 4.95331e-24)
(0.00100105 0.000472572 0)
(0.00019953 0.000615773 0)
(6.95776e-06 4.10837e-05 -4.02238e-23)
(3.82361e-06 2.39047e-05 -3.50434e-22)
(0.000634967 0.00109884 1.34807e-22)
(0.000544448 0.000460226 -5.66847e-22)
(0.000729893 0.00122814 -3.81651e-22)
(0.000647985 0.00111829 0)
(0.000383117 0.000866957 -1.6475e-22)
(0.000729594 0.00123154 6.86797e-22)
(0.000513398 0.00123474 0)
(0.000648039 0.00114956 -6.0629e-22)
(0.000559648 0.000954187 2.77506e-22)
(0.000649061 0.00115604 5.77792e-22)
(0.000560284 0.000971309 -6.29597e-22)
(0.000254323 0.000556121 0)
(0.000398181 0.000721719 1.78104e-22)
(0.00100176 7.34411e-05 8.46712e-23)
(0.000916231 0.000318146 -2.62624e-21)
(0.000544288 0.000952185 0)
(0.000614531 0.00106159 -1.42495e-23)
(0.000962252 5.32183e-05 2.31234e-22)
(3.38666e-06 1.84318e-05 -3.1667e-26)
(0.000392463 0.000666393 -9.91358e-22)
(0.000727786 0.00122531 0)
(0.000366877 0.000687142 5.35786e-23)
(0.000799473 0.00137213 -3.74433e-22)
(0.000372345 0.0007381 0)
(0.000728852 0.00122632 1.93158e-22)
(0.000667714 0.00145653 -1.86506e-23)
(0.000616167 8.67849e-05 -1.24228e-21)
(0.000824111 7.90024e-05 -4.95004e-22)
(0.000347936 0.000464734 -1.70599e-21)
(0.000531977 0.00118138 8.68222e-23)
(0.000724624 0.00122167 8.47522e-22)
(0.000784544 0.00136062 -3.13659e-22)
(0.000839567 0.00055645 3.12933e-21)
(8.70178e-05 9.44645e-05 9.15785e-23)
(0.000575666 0.00101038 0)
(3.59857e-06 2.10854e-05 3.49304e-22)
(0.000267767 0.00088558 -2.13009e-24)
(0.000467105 -6.88574e-05 -7.06983e-22)
(5.78609e-07 2.27692e-05 0)
(0.000340651 -0.000235837 7.82033e-22)
(0.000190339 0.00121458 0)
(0.000721238 0.0012191 1.00722e-21)
(0.000438622 0.000352351 -9.8173e-25)
(0.000718 0.00123022 3.68512e-22)
(0.000645096 0.00111882 2.75508e-22)
(0.000523308 0.000540935 1.31525e-24)
(0.000342743 0.000565721 -8.50377e-22)
(0.000774304 0.00136088 1.36314e-22)
(0.00072673 0.00122367 -8.13581e-22)
(0.000583769 0.000993817 4.65106e-22)
(0.000494804 0.000337973 -1.43989e-21)
(0.000879319 0.000100203 3.561e-25)
(0.000106545 0.000121812 -1.60987e-22)
(0.000487034 0.000484587 7.45182e-22)
(0.00061937 0.00108144 8.30156e-22)
(0.000762854 0.00136065 2.22651e-22)
(0.000579551 0.000982069 2.03579e-24)
(3.2219e-06 1.58759e-05 -3.50716e-22)
(0.000808722 0.000173831 0)
(0.000926007 0.000112735 -3.26872e-21)
(0.000596455 0.0010213 -1.4153e-22)
(0.000318987 0.000541677 2.34371e-21)
(0.000653411 0.00113518 -9.04991e-22)
(0.000554064 0.000963366 0)
(0.00115705 0.000192882 -2.57624e-21)
(0.00057315 0.000849929 -2.4137e-22)
(0.000721584 0.00122557 1.11717e-21)
(0.000378464 0.000791363 -2.24911e-22)
(0.000178155 0.000425311 8.20938e-22)
(0.000552502 0.000951951 0)
(0.000648278 0.00114095 -4.17221e-22)
(0.000154756 0.000295793 0)
(0.00036795 0.000570503 -7.65746e-22)
(3.07495e-06 1.34158e-05 3.40188e-22)
(0.000446528 0.000904445 -9.19117e-22)
(0.000324971 0.00052879 -1.18435e-21)
(0.000206587 0.000569511 1.45123e-24)
(0.000329516 0.000551811 6.48744e-22)
(0.000464111 0.000872322 1.90433e-22)
(0.00084245 0.000258178 -1.0335e-21)
(0.000394808 6.6069e-05 -1.93937e-21)
(0.00024967 9.07193e-06 -7.61502e-22)
(0.000572526 0.000346241 -2.43129e-22)
(0.000576267 0.00101189 1.92359e-21)
(0.000327604 0.000564743 0)
(0.000463193 -0.000369148 0)
(0.000384145 0.000650136 4.9543e-22)
(0.000185375 -1.76939e-06 5.07722e-22)
(0.000204291 3.64953e-06 0)
(0.000572884 0.00100582 -9.26837e-22)
(0.000723654 0.00122053 -1.15086e-22)
(0.000372142 0.000318187 -1.02284e-21)
(0.000194771 0.000727483 0)
(-0.000271018 -4.66207e-06 0)
(0.000260736 0.000278288 2.10863e-21)
(0.000195236 0.000607747 -6.5257e-22)
(0.000158978 1.69923e-05 0)
(0.000331035 0.000579386 0)
(0.000725664 0.00122267 8.24597e-22)
(0.000983749 4.70312e-05 -2.57558e-22)
(0.000761087 8.07882e-05 1.57976e-21)
(-0.000205805 0.00115788 0)
(0.000240543 0.000459215 5.61628e-21)
(0.000521995 0.00110292 -5.12541e-23)
(0.000548622 0.000959118 -1.39481e-21)
(0.00067748 0.00111002 -2.2794e-21)
(0.0003588 0.000449994 1.7711e-25)
(0.000223855 0.000490702 -6.85528e-22)
(0.000648729 0.0011417 -7.79107e-22)
(0.000235927 5.96205e-05 3.32592e-22)
(0.000565157 0.00101855 9.2948e-23)
(0.000330413 0.000681852 1.56158e-23)
(0.000586029 0.00133851 -3.28674e-23)
(0.000610338 0.00107471 4.09143e-22)
(0.00101122 0.000209225 8.02036e-22)
(0.000313015 0.000536279 9.03726e-25)
(0.00059198 0.00126954 0)
(0.000966564 3.70789e-05 6.19965e-22)
(0.00071858 0.00122874 4.32966e-22)
(0.000174283 2.35035e-05 1.50786e-22)
(0.000350578 2.01928e-05 -7.75248e-22)
(0.000369258 0.000607818 3.30591e-22)
(8.55128e-05 3.97929e-05 -1.73936e-22)
(0.000580772 0.000563819 7.49135e-22)
(0.000353978 0.00054489 2.1864e-21)
(0.000633406 0.00111094 -4.16096e-24)
(0.000580679 0.000987503 -9.98931e-22)
(-0.000191471 0.000176227 -1.3244e-22)
(0.000720557 0.00121831 -1.02452e-21)
(0.00122458 0.000262714 -5.36028e-22)
(4.72806e-05 0.000140919 -4.87244e-22)
(0.000967112 -3.77175e-06 1.05607e-21)
(0.000620192 0.00108043 4.85322e-22)
(0.000380495 0.000628315 0)
(0.00106708 0.000195009 -9.52293e-22)
(0.000372935 0.000309157 -1.61692e-21)
(0.00037033 0.000659546 -1.25746e-22)
(0.000141694 0.00100922 0)
(0.000525707 6.53029e-05 1.05318e-21)
(0.00063075 0.00107257 3.29272e-22)
(0.000734152 0.000483294 3.13344e-21)
(0.000637257 0.00110175 3.52634e-22)
(-0.000344412 0.000166275 2.64979e-22)
(0.000570566 0.00100163 8.78706e-22)
(0.000547663 0.000965037 -8.48069e-22)
(0.000622125 0.00106124 0)
(0.000942361 2.09201e-05 0)
(0.000562044 0.00098798 -5.38736e-24)
(0.000224904 0.000361919 -7.45563e-22)
(0.000652336 0.000108414 -5.71586e-23)
(0.000435107 0.000512817 -1.39968e-21)
(0.000717251 0.00134258 8.65841e-24)
(0.000600988 0.00103134 0)
(0.000560836 0.000987473 7.56368e-22)
(9.58535e-05 0.000183053 -6.31464e-22)
(0.000377809 0.000735605 -4.22912e-23)
(0.000441394 0.000760856 4.44519e-22)
(0.000548839 0.000964611 7.35122e-24)
(0.000160881 0.000263676 -9.02415e-22)
(-3.16782e-06 0.000287862 1.11086e-21)
(2.11571e-05 -1.16474e-06 0)
(0.000819415 0.000573713 -1.74352e-24)
(0.000647436 0.00114079 6.04203e-24)
(6.07392e-07 9.50241e-06 -3.39672e-22)
(0.00156747 0.000345603 6.84487e-22)
(0.000658191 0.000109449 0)
(0.000644401 0.0011172 2.29294e-22)
(0.000594049 0.00101326 -4.21513e-22)
(0.00021726 4.7429e-05 -2.47153e-22)
(2.4773e-05 1.3122e-06 8.60249e-22)
(0.000325777 0.00115657 -1.08908e-23)
(0.000364426 0.000642606 9.85368e-22)
(0.000677056 0.00113726 2.39895e-22)
(0.000719895 0.00121812 9.43784e-22)
(0.000764834 0.00138709 1.0467e-21)
(0.000217041 -1.07179e-05 -7.05374e-22)
(0.000187946 0.000611173 -4.60033e-22)
(0.00116507 0.00012727 -4.01806e-22)
(0.000649516 0.00114317 -7.40617e-22)
(0.000475706 0.000944344 -2.17739e-21)
(0.000513353 0.000257476 -3.85913e-22)
(0.000509261 0.0010507 0)
(0.000503483 2.7235e-05 1.14978e-21)
(2.64058e-06 6.64431e-06 -3.05878e-22)
(0.00074182 0.00139082 2.62589e-22)
(0.000722479 0.00121977 -7.63995e-22)
(0.00057335 0.00100743 -9.34496e-22)
(0.000915178 0.000275575 0)
(0.00021578 0.000561272 -5.17894e-22)
(2.43516e-05 8.3032e-07 1.19639e-23)
(0.000637617 0.00111412 -2.16567e-22)
(0.000528742 0.00162122 -1.99559e-23)
(0.000399642 0.00135668 0)
(0.000336492 0.000480935 -1.89874e-25)
(0.000472802 0.00122301 -4.10323e-23)
(0.000822411 0.000308796 2.45516e-22)
(0.000514398 0.000569844 2.66096e-25)
(8.48635e-06 9.28574e-05 -4.2763e-23)
(6.23682e-05 4.25404e-05 0)
(0.000718291 0.00122946 8.0901e-22)
(5.24104e-06 3.67606e-05 -1.33301e-24)
(0.00176891 0.000579896 -1.50714e-21)
(9.17169e-05 0.00070942 0)
(0.000151469 0.000266338 -1.55782e-21)
(0.000411379 0.000703659 -3.15222e-21)
(0.000646381 0.00113783 0)
(5.37763e-05 4.33205e-05 1.2547e-21)
(0.000638883 0.00109015 0)
(0.000228448 0.000263756 -1.05107e-21)
(0.000975855 0.000196509 -7.79739e-22)
(0.000315661 -6.0806e-05 -1.26983e-21)
(0.00064773 0.00121971 -7.6315e-22)
(0.00111667 0.000179924 0)
(0.000480365 0.000258724 0)
(0.000111533 0.000934586 -7.02591e-22)
(0.000685605 -0.000219064 -2.53844e-21)
(0.000686157 0.00129645 2.59414e-22)
(0.000635338 0.0011077 -7.35752e-24)
(0.000607539 0.00107303 0)
(0.000774676 0.000493711 0)
(0.00116683 0.000133894 8.95369e-22)
(0.000607011 0.000267853 -1.11662e-22)
(0.000575486 0.000980465 2.24223e-22)
(0.000749397 0.00124533 0)
(0.000331071 0.00029154 0)
(0.000432937 0.00102661 -1.38408e-21)
(7.96688e-05 3.55417e-05 -6.30836e-22)
(0.000525641 0.000416134 -8.61584e-22)
(0.000669466 0.00121145 -7.20322e-23)
(0.0005205 0.00129813 -7.53034e-23)
(0.000560928 0.00141651 -1.15069e-23)
(0.000554861 0.000421617 6.15934e-22)
(0.000624002 0.00143215 -4.23579e-24)
(0.000440206 0.000471307 -1.15124e-21)
(0.000347214 0.000515023 1.80993e-21)
(1.48644e-05 -3.93751e-06 0)
(0.000937006 0.000722309 -7.74112e-22)
(0.000324583 0.00056483 -2.48258e-22)
(0.00063412 0.00111616 2.03372e-22)
(0.000145394 -2.36379e-05 0)
(7.83422e-06 8.04809e-05 0)
(0.000116231 0.000449258 1.45052e-21)
(0.000575301 0.00102415 3.31239e-22)
(0.000547319 0.00108499 0)
(6.48309e-05 2.80383e-05 -1.10185e-21)
(0.000171176 0.000632309 -4.27374e-22)
(0.000580631 0.000976886 5.29748e-22)
(0.00127534 0.000239781 -8.74299e-22)
(0.000387805 0.000381343 0)
(0.000843279 0.000169358 -1.85286e-21)
(0.000193885 0.000234477 -1.1356e-21)
(0.0009541 0.000650139 1.12203e-21)
(0.00077346 0.00046286 -1.5562e-22)
(0.000388557 0.000656302 -5.64785e-24)
(0.000430467 0.00108687 1.37326e-21)
(0.000276738 0.000947971 -2.43745e-23)
(0.000565378 0.00098277 -6.72303e-24)
(0.000546906 0.000982098 -1.43152e-23)
(0.000235559 0.00135762 -1.08219e-22)
(9.23728e-05 4.41267e-05 8.15384e-22)
(0.000570924 0.00102843 -3.07398e-22)
(0.000237002 0.000332144 -1.31214e-21)
(0.000957199 4.0156e-05 -5.01777e-22)
(0.000358504 0.00126647 -1.11298e-23)
(0.000271966 0.00100153 -2.49874e-24)
(0.000459652 0.000322938 -8.23485e-22)
(1.69849e-05 1.95562e-06 -1.8057e-22)
(0.000564291 0.000958715 -5.37029e-22)
(0.000148887 -1.17453e-05 -6.65107e-22)
(0.000636549 0.00110426 9.04e-23)
(-0.000373116 0.00114342 -9.44922e-22)
(0.00057025 0.000979521 3.82449e-22)
(0.000636983 0.00110117 2.51942e-22)
(0.000635898 0.00110563 -9.08059e-23)
(0.000227987 0.000119224 -1.23382e-21)
(0.000330254 0.000574129 4.57259e-22)
(0.000279655 0.00053552 0)
(0.000252532 3.10315e-05 4.6367e-22)
(0.000957776 3.253e-05 0)
(0.000644986 0.00113653 -5.28988e-22)
(0.000386968 0.000654503 4.7473e-22)
(0.000779645 0.000598684 9.08664e-22)
(0.000373963 0.000656158 -8.5068e-22)
(0.000221692 0.000633295 1.14441e-21)
(0.00109626 -3.09453e-06 0)
(0.000312284 0.000194439 0)
(0.00108138 0.000484101 -6.20472e-23)
(0.000420061 0.000934536 1.30899e-21)
(0.000513422 0.000800003 -3.00944e-21)
(0.00064563 0.00110963 -2.64158e-22)
(0.000720168 0.00121784 -9.24494e-22)
(0.000768349 0.000472146 8.25615e-22)
(0.000500989 0.00101951 0)
(0.000664652 0.00112949 0)
(0.00032897 0.000273544 -8.61797e-22)
(0.000234943 0.000712322 -6.82712e-22)
(0.000818435 0.000348634 1.60106e-21)
(1.38857e-05 -6.27529e-06 2.1331e-22)
(7.01587e-05 3.27586e-05 6.08123e-22)
(0.000547695 0.00095211 -6.88014e-24)
(0.000132545 -2.41624e-05 3.84508e-22)
(0.000412112 0.000341548 7.81814e-22)
(-0.000134207 0.000152572 0)
(1.51157e-05 0.000262991 9.48832e-23)
(5.99344e-05 4.1844e-05 0)
(0.000661584 0.00112534 0)
(0.0006272 0.000484679 3.12955e-22)
(0.0005696 0.000975294 -3.67668e-22)
(0.000197274 0.000173923 -2.62932e-21)
(0.000660906 0.0011239 9.0911e-22)
(0.000670095 0.00124113 -4.6735e-23)
(0.00060346 0.000954058 5.64376e-22)
(0.000705738 0.000368546 0)
(0.000689673 0.00127265 9.53885e-23)
(0.000552671 0.000958481 0)
(0.000761116 0.00136123 -3.18067e-22)
(0.000570874 0.00100279 1.80694e-21)
(9.99422e-05 0.000265024 1.30573e-24)
(0.000674516 0.00121527 1.01553e-21)
(0.000949006 0.000117834 0)
(3.75248e-05 0.000389924 -3.4785e-22)
(0.000511025 0.000560976 4.33595e-22)
(0.000551706 0.000954967 9.65011e-22)
(0.000365627 0.000974035 -5.09927e-21)
(-0.000495356 0.000787267 1.78135e-22)
(3.7509e-05 5.9965e-05 -1.29508e-21)
(0.000634558 0.0010971 -1.46327e-22)
(0.000469331 0.000958253 2.83263e-21)
(0.000701288 0.00123845 -2.32723e-22)
(0.000642268 0.00120523 -1.00739e-21)
(0.000560627 0.000981476 7.41826e-22)
(0.000974389 7.25147e-05 -6.40256e-22)
(0.000636542 0.00110324 9.85582e-23)
(0.000212973 0.00013786 2.01955e-21)
(0.000672362 0.00118482 3.54269e-22)
(0.000376468 0.000637525 1.2075e-21)
(0.000174564 0.000588452 8.95727e-22)
(0.000685959 0.00122127 9.90445e-22)
(0.00048577 0.000865138 -2.98238e-23)
(0.000605204 0.00107745 6.29956e-23)
(0.000954864 6.57336e-05 0)
(3.18592e-05 0.000518759 -3.26563e-22)
(0.000308266 0.000719638 1.02966e-21)
(0.000628753 0.00106428 5.0808e-24)
(0.000629673 0.00035996 -3.57369e-21)
(0.00113188 9.93123e-05 0)
(0.000681058 0.001277 -2.51067e-22)
(0.000174585 -0.000125469 9.99994e-22)
(0.000938995 9.42712e-05 0)
(0.000711702 0.00123542 -3.75899e-22)
(0.001009 -0.000131864 -1.768e-21)
(9.94112e-05 4.91668e-05 -3.21447e-22)
(0.00110177 0.000343919 1.29403e-25)
(4.06273e-05 0.000434265 1.11795e-22)
(0.00069011 0.00122293 0)
(0.000974831 0.00033031 6.13653e-22)
(0.000701493 0.000243626 0)
(0.000325843 0.00046951 0)
(0.000438621 0.000343337 0)
(9.24511e-05 -3.83049e-05 -1.50762e-21)
(0.000643855 0.00113486 -5.72423e-22)
(0.00129056 0.000532711 -2.80806e-21)
(0.000791101 0.00136964 2.86927e-22)
(0.000307194 0.000171598 -3.60501e-22)
(0.000512209 0.00102641 -9.6506e-22)
(0.000116351 -4.21281e-05 0)
(0.00106168 0.00018419 4.72694e-22)
(0.000835277 0.000543291 2.23025e-22)
(3.26989e-05 5.0507e-05 7.20436e-22)
(0.000717818 0.00122911 2.18409e-22)
(0.000305182 0.00119886 0)
(0.000461105 0.00145955 3.65599e-23)
(0.000585872 0.00122228 -8.79851e-22)
(0.000691337 0.00122228 9.59759e-22)
(0.000636238 0.00109673 0)
(0.000319604 0.000557362 7.64166e-22)
(1.84264e-05 0.000318981 4.25361e-22)
(0.000173388 -0.000107021 1.26273e-21)
(0.000560721 0.000983682 -9.09763e-22)
(0.000870305 0.00111685 6.4681e-22)
(0.000643799 0.00071953 -2.22292e-22)
(0.000717323 0.0012287 5.34542e-22)
(0.000764586 0.00135221 -9.46131e-22)
(9.57665e-05 -4.69562e-05 1.49238e-21)
(0.000643534 0.0011318 -2.44471e-24)
(0.000366166 0.000660005 0)
(0.000654564 0.000384336 4.24387e-22)
(5.62827e-05 4.95495e-05 0)
(0.00101484 -1.3629e-05 5.76136e-22)
(0.000329356 0.000556903 8.75896e-22)
(0.000230151 0.000417739 8.24551e-23)
(0.000510387 9.59451e-05 -1.67396e-23)
(0.000371685 0.000513351 -2.60148e-21)
(0.0013534 0.000255668 1.81005e-22)
(0.000980242 0.000189273 -7.22673e-23)
(0.000513742 0.000558589 2.25687e-21)
(0.00049907 0.00112282 0)
(0.000380674 0.000626337 -3.42901e-22)
(0.000330467 0.000925125 0)
(0.000320912 0.00118032 7.83096e-22)
(0.000801147 0.0013552 6.4917e-22)
(0.000791091 0.000603101 9.00738e-22)
(0.000555954 0.00131136 -4.31407e-23)
(0.00042279 0.000323025 0)
(0.00018985 0.00017428 0)
(0.000146815 -0.000100595 -1.23389e-22)
(0.000177102 0.000365794 4.66099e-22)
(0.000267918 0.000616715 -2.50289e-22)
(0.000171043 0.000636728 0)
(0.000609397 0.00120426 -1.26882e-23)
(0.000547916 0.000966376 0)
(0.000557364 0.000998127 -7.3744e-22)
(0.000373902 0.000682845 3.73074e-22)
(0.000204452 0.000566728 -6.10257e-22)
(0.000641057 0.00112949 -6.62092e-22)
(0.000411239 0.000856643 1.06696e-21)
(0.000939714 9.72249e-05 8.17177e-22)
(0.000194494 4.15362e-05 1.39295e-22)
(2.10501e-05 1.82854e-06 -3.2325e-22)
(0.000118492 -0.000186468 0)
(0.00031983 0.000553272 7.77121e-22)
(6.18866e-05 0.00056398 1.27776e-21)
(0.00041394 8.54895e-05 1.74998e-21)
(0.000443131 0.000298471 0)
(0.000168814 0.000328131 2.0962e-21)
(0.000660486 0.00112161 -1.13876e-22)
(0.000380857 0.000643828 1.66055e-21)
(0.000583068 0.00120875 2.10966e-24)
(0.00033591 0.000199129 0)
(0.000218326 1.27881e-05 1.74183e-22)
(0.000576811 0.000389017 0)
(0.00063496 0.00111114 -1.48747e-22)
(0.000194077 4.75082e-05 0)
(0.00043396 0.000540074 1.46554e-22)
(0.00102988 0.000374995 7.05153e-23)
(0.000575795 0.000984356 -4.42643e-22)
(0.000721346 0.00125141 6.17386e-23)
(0.000380643 0.000570933 -8.95019e-22)
(0.000486516 0.000981706 7.31687e-22)
(0.00032838 0.00056878 -6.10455e-22)
(0.000223659 0.000562184 -8.832e-22)
(0.000172912 3.86253e-06 0)
(9.51743e-05 0.000653164 1.18547e-21)
(0.00055829 0.00105363 0)
(0.000861795 0.000282634 1.31044e-21)
(0.000327356 0.000489521 1.05403e-21)
(0.000719254 0.00121982 -9.75036e-22)
(2.23161e-05 3.12199e-05 9.02701e-23)
(0.00039904 0.000724377 -1.74099e-22)
(0.000128623 -4.10152e-05 -7.35931e-23)
(0.000357495 0.000647717 -1.10085e-22)
(0.000776233 0.000569916 0)
(0.00098106 -4.99904e-05 -7.70989e-23)
(0.000720647 0.00125251 -1.94787e-22)
(0.000874932 -0.000359781 9.74956e-24)
(0.000761466 0.000103649 1.65832e-21)
(0.00120324 0.000634252 -1.63931e-21)
(0.000550771 0.000978952 0)
(0.000327391 0.000586622 -8.20596e-22)
(0.000719687 0.00122136 -1.11573e-21)
(0.000374707 0.000635432 5.7689e-24)
(0.000522532 0.000678802 9.52542e-22)
(5.57571e-05 0.000559714 3.92595e-21)
(0.000965273 0.000274659 2.68943e-22)
(0.000194366 0.000247129 0)
(0.000601456 0.000945233 -9.27127e-22)
(0.000282852 0.00013675 0)
(0.000208477 0.000474217 4.60462e-22)
(0.000662007 0.00112475 1.97538e-22)
(0.000986977 5.74404e-05 -3.57087e-22)
(0.000440656 0.000968275 1.72478e-21)
(0.000648282 0.00111963 1.81676e-22)
(0.000393459 -7.75796e-05 -6.27008e-22)
(0.000165361 9.00557e-05 3.89219e-22)
(2.50298e-06 0.000211177 -1.09545e-21)
(6.36769e-07 0.00105686 1.07396e-21)
(0.000148249 3.89984e-07 -6.22525e-22)
(0.000379049 0.000641049 -5.82865e-22)
(0.000145417 7.65939e-05 -3.61676e-22)
(0.000613283 0.00108588 -4.49803e-23)
(0.000298014 0.0003593 -4.99205e-22)
(0.000551437 0.00121166 0)
(0.000246264 -6.21431e-05 -1.49261e-21)
(0.00085782 -1.71654e-05 3.73202e-22)
(0.000569072 0.000999006 1.72766e-21)
(0.00017463 5.41967e-05 -1.80659e-21)
(0.000661363 0.00120969 -1.00751e-21)
(0.00107796 3.93247e-06 -7.37218e-22)
(0.000285393 0.0001613 1.80212e-22)
(0.000523193 9.57417e-05 0)
(0.000638764 0.0011023 8.60615e-22)
(0.000413013 0.000725273 2.34506e-22)
(0.000181853 0.000650548 3.1883e-22)
(0.000821075 0.000532599 0)
(0.000735146 0.00058853 2.25348e-21)
(9.81364e-05 -1.26209e-05 -6.83242e-22)
(0.00139631 0.000314334 -2.08357e-22)
(0.000534635 1.71215e-05 -1.18927e-21)
(0.00120779 0.000237097 4.17749e-22)
(0.000700587 0.0012374 0)
(0.00028213 0.000559589 0)
(0.000664354 0.00116496 6.97261e-23)
(0.000647863 0.00114093 4.48207e-22)
(0.000670494 0.00124429 -1.75632e-22)
(0.00083494 0.00141372 8.79725e-22)
(0.000421777 0.00129289 9.51152e-22)
(0.000647245 0.00033721 5.50784e-22)
(0.000560303 0.00112497 0)
(0.000616433 0.00115688 -2.03466e-23)
(0.00040057 3.41523e-05 4.31018e-22)
(0.000759839 0.000523391 -1.58201e-22)
(0.000179434 6.67344e-05 1.74859e-26)
(0.000235109 -0.00019729 1.32017e-21)
(0.000244109 0.00062852 4.55946e-22)
(0.000171356 0.000422293 7.83048e-22)
(0.000297134 0.000465888 1.89785e-21)
(0.00033984 0.000552962 -1.2062e-21)
(0.000312868 0.000573375 -4.17028e-22)
(0.0001823 0.000645636 -7.56233e-22)
(0.000100886 -1.80597e-05 3.58301e-25)
(4.40554e-05 0.000611258 -2.10727e-21)
(0.000486366 0.00122033 0)
(0.000623398 0.00119607 0)
(0.000700225 0.000547721 0)
(0.000574574 0.000450919 1.6079e-21)
(0.000713825 0.00124539 3.411e-22)
(0.000803555 0.000540298 2.45412e-21)
(0.00105248 0.000336224 0)
(0.000303983 0.000337511 2.50901e-22)
(0.000164847 0.00061202 5.75738e-22)
(0.00056783 0.000971497 7.17429e-22)
(4.48271e-05 3.45364e-05 0)
(0.000911571 3.36536e-05 -1.13115e-21)
(0.000132861 0.000400937 6.46138e-22)
(0.000804542 0.000546588 -3.08747e-22)
(0.000334835 0.000539022 2.86377e-22)
(0.000354308 0.000375527 1.26189e-21)
(0.000632161 0.00115977 0)
(6.25734e-05 2.76933e-05 1.70512e-22)
(0.000142195 -8.3041e-05 -1.53715e-22)
(0.000733842 0.00137185 2.66215e-22)
(0.00066623 0.00115833 -4.35357e-22)
(0.000576373 0.000996953 3.29445e-22)
(0.000668117 0.00117437 3.40825e-22)
(0.000975318 -4.27633e-07 -2.19258e-22)
(0.000220774 0.000632276 0)
(0.000389792 6.23238e-05 -1.4313e-21)
(0.000718601 0.00125013 0)
(0.000996408 0.00011578 0)
(0.000643426 0.00115447 -1.26414e-22)
(0.0003795 0.000904845 -1.08188e-21)
(0.000762182 0.00139131 -4.7241e-23)
(6.20795e-07 7.6095e-06 -3.38734e-22)
(0.000310293 0.000478612 -1.3353e-21)
(0.000100264 -2.99896e-06 -1.82513e-21)
(0.000662966 0.00117042 1.26382e-22)
(0.00017652 0.000484172 -4.79665e-22)
(0.000187548 0.000533084 6.61011e-22)
(0.000740957 3.77816e-05 1.19141e-21)
(0.000499421 0.00110739 0)
(0.00101615 0.000311638 4.15928e-22)
(0.000713636 0.00103528 8.11384e-23)
(0.000315847 0.000512122 9.15278e-22)
(0.000114793 -5.05178e-05 -2.11274e-23)
(0.000531795 3.8271e-05 9.45853e-25)
(0.00034082 0.00038845 -2.42805e-21)
(0.000319911 0.000453228 1.08646e-21)
(9.9678e-05 5.93069e-06 -8.37905e-22)
(0.000246737 0.000367923 -2.31853e-21)
(0.000736372 0.00138808 -1.32639e-21)
(0.000644068 0.00113509 1.12696e-21)
(0.000342997 0.000527514 -8.73126e-22)
(0.000648074 0.0011408 -4.50168e-22)
(0.000704901 0.000214952 -5.18057e-22)
(0.000270769 -0.000163053 -2.26022e-21)
(0.000336925 0.000515539 -1.66273e-21)
(0.000658426 0.00112062 8.62284e-22)
(0.00123035 0.00017254 -7.87368e-23)
(0.000717334 0.00123033 3.48555e-22)
(0.00017799 0.000135102 -8.56413e-22)
(0.000569087 0.000997628 4.94762e-22)
(0.000669911 0.00117211 -1.09384e-22)
(0.000600062 0.00111955 -1.12582e-23)