/*--------------------------------*- C++ -*----------------------------------*\
  =========                 |
  \\      /  F ield         | OpenFOAM: The Open Source CFD Toolbox
   \\    /   O peration     | Website:  https://openfoam.org
    \\  /    A nd           | Version:  8
     \\/     M anipulation  |
\*---------------------------------------------------------------------------*/
FoamFile
{
    version     2.0;
    format      ascii;
    class       volVectorField;
    location    "9";
    object      U;
}
// * * * * * * * * * * * * * * * * * * * * * * * * * * * * * * * * * * * * * //

dimensions      [0 1 -1 0 0 0 0];

internalField   nonuniform List<vector> 
5119
(
(0.000903225 0.00142275 9.22083e-23)
(0.000205753 6.49662e-05 4.17835e-21)
(0.000834508 1.69027e-05 -2.43154e-21)
(0.000605256 0.000804285 -1.08705e-24)
(0.000772068 0.00126169 1.84523e-22)
(0.000867316 6.70156e-05 1.24908e-21)
(0.000270229 0.000203493 -1.27612e-21)
(3.23228e-05 -4.16385e-06 -6.20709e-23)
(0.000212869 0.00109076 -1.06692e-21)
(0.000958602 0.00147755 7.49151e-23)
(0.00064045 0.000802448 1.48787e-24)
(0.000737499 0.00113204 -3.13352e-22)
(0.000728912 0.00118143 -2.14536e-22)
(0.000712042 0.000491639 9.70885e-22)
(0.000827842 0.00131301 -7.15234e-23)
(0.000668782 0.00116084 0)
(0.000808939 0.00141475 2.76183e-22)
(0.000826205 0.00129569 -9.64018e-23)
(0.000922389 0.00145228 2.74453e-22)
(0.000764781 0.00120779 6.12588e-23)
(0.00073781 0.00122739 2.72713e-22)
(0.000676881 0.00108009 7.25896e-22)
(0.000684631 0.00109945 -1.50756e-22)
(0.000825634 0.00126348 1.0756e-22)
(0.000725732 0.00116088 0)
(0.00094351 0.00147502 6.26559e-22)
(0.000720762 0.00111032 0)
(0.000739163 0.00113353 8.24938e-23)
(0.00075526 0.00115831 3.15656e-22)
(0.000678738 0.00106302 8.5136e-23)
(0.000767962 0.00118168 -2.82642e-22)
(0.00075705 0.00116336 -8.25229e-24)
(0.00069361 0.00110161 5.35038e-22)
(0.000814162 0.00127776 0)
(0.000969169 0.00147526 -9.14182e-23)
(0.000721567 0.00112795 2.71346e-22)
(0.000695026 0.00108518 2.65579e-22)
(0.000706699 0.00110396 3.59707e-23)
(0.00068963 0.00115484 -8.39493e-25)
(0.000686942 0.00107406 8.80307e-22)
(0.000600225 0.000161924 3.9706e-26)
(0.00089103 0.00149026 -3.86578e-22)
(0.000747612 0.00129043 2.11196e-22)
(0.000681879 0.00117428 0)
(0.000674366 0.00114882 -2.26762e-22)
(0.00061559 0.000148574 -1.93459e-21)
(0.000792357 0.00134836 -7.07915e-22)
(0.000689671 0.00117207 0)
(0.000763701 0.00128613 7.77067e-24)
(0.00074552 0.0012845 -1.96652e-22)
(0.00060206 0.000403032 -1.51037e-21)
(9.41479e-05 0.000627374 -1.0111e-21)
(0.000943661 3.87087e-05 -5.13308e-22)
(0.000646093 7.267e-05 2.0885e-21)
(1.43191e-05 0.000422031 -2.99328e-21)
(0.000700917 0.0011476 8.22536e-22)
(0.000693246 0.000757623 1.37519e-24)
(3.57674e-05 -1.6309e-06 8.73038e-22)
(0.000734035 0.00123575 0)
(0.000873142 0.00146453 0)
(0.000645651 0.00118802 -1.40768e-21)
(0.000679362 0.00114768 2.16975e-21)
(0.000712379 0.00117143 0)
(0.000802025 0.00134995 1.15782e-21)
(0.000488704 0.000111075 1.13575e-21)
(0.000789119 0.00134692 8.10423e-22)
(0.000758763 0.000368112 2.3758e-24)
(0.000891464 0.000578614 9.98369e-22)
(0.000786171 0.00132116 0)
(0.000695798 0.000507937 -2.95212e-22)
(0.000199034 0.000356208 -1.39129e-24)
(0.000174792 -2.4407e-05 -4.52075e-21)
(0.000898712 0.000316824 1.35101e-21)
(0.000682682 0.00116771 3.88124e-22)
(0.000726912 0.00115422 -1.33512e-21)
(0.000901681 0.00140446 0)
(0.000318576 9.47089e-05 9.3116e-22)
(0.000610383 0.000203844 5.71081e-22)
(0.000547954 0.00105408 0)
(0.000501484 0.000942138 -7.3716e-22)
(2.48551e-05 0.000689916 0)
(0.000956474 0.000521251 0)
(0.000944753 0.00151176 0)
(0.000684115 0.0013727 1.54343e-23)
(0.000625126 9.87734e-05 0)
(0.000681596 0.00123222 1.29491e-22)
(0.00077548 -4.075e-05 2.1906e-21)
(0.000724305 0.00124387 1.8512e-21)
(0.000566644 0.00115434 3.37485e-23)
(0.000590121 0.00119869 0)
(0.000576912 0.0011737 0)
(0.000554618 0.0011317 0)
(3.46381e-05 -1.2069e-06 -1.41115e-21)
(0.000424633 0.000772505 -1.38477e-21)
(0.000438522 0.000782725 0)
(0.000463053 0.000678472 2.33351e-21)
(0.000877228 2.74668e-06 0)
(0.000705231 0.00121724 1.53241e-21)
(0.000683753 0.000778382 1.39333e-21)
(0.00070005 0.00121065 -1.30021e-22)
(0.000759443 0.00139841 6.08072e-22)
(0.000650526 0.00116909 0)
(0.0014994 0.000952095 -2.26176e-21)
(0.000766583 0.00163833 -4.02812e-22)
(0.000316559 0.000116453 2.01937e-21)
(3.67365e-05 5.27677e-06 1.03955e-21)
(0.000690785 0.00128552 -1.89789e-21)
(0.000576793 0.000311064 4.35416e-22)
(0.000847103 0.000587073 1.2612e-22)
(0.000667147 3.21416e-05 0)
(0.000410833 0.00128854 -2.46185e-21)
(3.63077e-05 2.02208e-06 -1.90409e-26)
(0.000242263 -3.51137e-05 8.07291e-22)
(0.000791765 0.00129111 -1.98647e-22)
(0.000299557 0.000163371 4.12175e-21)
(0.000474851 0.000637103 -2.20745e-22)
(0.000513302 0.00079145 -1.75358e-21)
(3.86766e-05 4.14337e-06 -1.95081e-21)
(0.000503203 0.000565542 -3.82346e-21)
(0.000800116 0.00131646 9.82017e-23)
(0.000784165 0.000359776 0)
(0.000831252 0.00137778 -6.38424e-22)
(0.000174563 0.000860128 -4.37049e-22)
(0.000705514 0.00124188 1.21751e-21)
(0.000852676 0.0014707 -1.59917e-21)
(0.000923269 0.00157529 4.15773e-22)
(0.000728652 0.00130675 -3.00526e-24)
(0.000867077 0.00154524 -2.32109e-22)
(0.000816965 0.00134185 4.30113e-22)
(0.000696845 0.00119706 -3.17055e-22)
(0.000712446 0.00124803 -1.29083e-21)
(0.000699333 0.00118069 -2.09283e-22)
(0.000856532 0.0014027 -4.2351e-22)
(0.000765342 0.00127324 -4.04049e-22)
(0.000806137 1.6603e-05 -1.44332e-21)
(0.000577162 0.000333838 2.09448e-25)
(0.000647046 0.00131764 0)
(0.000749568 0.00125578 0)
(0.000233911 0.000323884 1.22737e-21)
(0.000811984 0.00134007 0)
(0.000679769 0.00117906 -9.91419e-22)
(0.00066485 0.0011498 3.31647e-22)
(0.000643536 0.00113195 2.55233e-22)
(0.000680909 0.00110224 1.10312e-22)
(0.000737561 0.00123857 3.51899e-22)
(0.000725181 0.00120968 1.38843e-22)
(0.00072346 0.00120639 -9.01836e-23)
(0.000749089 0.00125653 0)
(0.000733037 0.00122958 -9.15914e-23)
(0.000861471 0.000908326 -3.29015e-22)
(0.000638636 0.00127753 0)
(0.000889966 0.000190557 0)
(0.000645656 0.00118199 0)
(0.000447105 0.000759256 2.26075e-21)
(0.000334416 0.00062305 2.08105e-21)
(0.000878304 0.00145438 3.22619e-23)
(0.000396892 0.000635653 2.80205e-21)
(0.000968468 9.39184e-05 0)
(0.000279783 0.000268117 9.97415e-22)
(0.000181753 0.000709698 2.06083e-22)
(0.000718838 0.00146801 -9.57893e-22)
(5.22542e-06 1.61421e-06 0)
(0.000146391 0.000269812 -2.18292e-21)
(0.000780272 0.00138648 -9.19524e-22)
(3.72012e-05 4.12897e-06 4.85172e-22)
(0.000991281 0.000245049 2.28076e-21)
(3.27983e-05 0.000187424 -5.98402e-21)
(0.000149616 -1.74102e-05 -1.43342e-21)
(4.05365e-05 -7.56842e-07 1.71767e-21)
(0.000128523 0.000570503 0)
(0.000266713 0.000356763 1.61037e-22)
(0.000861257 0.0015404 4.23008e-22)
(0.000477093 0.000554036 2.18362e-21)
(0.000479414 0.000465714 -2.18418e-22)
(0.000400207 0.00060429 2.24957e-21)
(0.000534601 0.000473367 -2.11913e-21)
(0.000150598 0.000317368 -1.64088e-24)
(0.000645586 0.00116141 1.08018e-22)
(3.57383e-05 8.65574e-06 -1.63626e-21)
(0.000788572 0.00143085 2.25934e-22)
(0.00079307 0.000335652 -2.96291e-21)
(0.000736401 0.000377904 0)
(0.000726696 0.00121569 0)
(0.000562672 0.000965989 -1.34725e-21)
(0.000255613 7.22628e-05 -2.65458e-21)
(0.00046672 0.000702694 -3.70265e-22)
(0.000462502 0.000107554 1.08843e-21)
(0.000319892 0.000303671 -1.04597e-21)
(0.000580585 0.000375651 -1.64941e-21)
(0.00026289 0.000179967 -1.06824e-21)
(0.000153763 0.000708289 0)
(0.000562448 0.00124922 -4.32287e-22)
(0.000767324 0.00128842 9.69046e-22)
(0.000533238 0.000556647 1.94169e-21)
(2.44676e-05 -4.6557e-06 0)
(0.000337736 0.000757431 0)
(0.000695271 1.52658e-05 -1.36544e-21)
(0.000707979 0.000394107 5.02963e-21)
(0.000430606 0.000887282 1.03036e-21)
(0.000941467 0.000184011 1.86382e-22)
(0.00013648 -1.32281e-05 -3.80196e-21)
(0.000577454 0.0010095 0)
(4.06577e-05 1.2513e-06 -1.74557e-22)
(0.000749794 0.00132577 -2.62209e-22)
(0.000665116 0.00122399 0)
(0.000691594 0.00124564 2.40615e-22)
(0.000657363 0.0011308 1.11831e-21)
(0.000526165 0.00121214 -3.16475e-21)
(0.000311942 0.000407249 7.71613e-22)
(0.000793234 0.000562834 -4.2401e-21)
(0.000161396 0.000254623 2.17884e-21)
(0.000426977 0.000609023 4.44356e-23)
(0.000921204 0.000316787 -1.63435e-24)
(0.000473969 0.000670184 -1.37755e-21)
(0.000603752 0.000300007 4.03997e-22)
(0.000330088 0.000412508 -9.9116e-22)
(0.000249417 0.000319107 4.36807e-26)
(0.000381672 0.00053554 -1.17029e-21)
(0.000368263 0.000619864 -2.00664e-24)
(0.000344488 0.000297686 7.25178e-22)
(0.00070997 0.00150788 9.60342e-22)
(0.000433089 0.000647453 0)
(3.13363e-05 7.34592e-06 0)
(0.000685114 0.00126959 -7.31599e-22)
(0.000455526 0.000637145 -1.10329e-22)
(0.000560222 0.000803701 0)
(0.00024755 9.59318e-05 -2.89657e-25)
(0.000678785 0.000189809 0)
(0.000804023 0.00141141 0)
(0.000678146 0.00122408 1.99219e-22)
(3.02549e-05 1.80093e-05 -3.85946e-21)
(0.000797817 0.00135421 -4.90567e-22)
(0.000632498 0.00114205 7.07452e-22)
(0.00078425 0.00140869 1.53863e-21)
(0.000698782 0.00117841 0)
(0.000281893 0.000378815 8.71188e-23)
(0.000729424 0.00122021 1.55498e-21)
(0.000638563 0.00111142 0)
(5.71479e-05 0.000401205 3.29061e-22)
(0.000446031 0.00105399 -2.10457e-22)
(0.000449317 0.000571638 -2.43386e-21)
(0.00012648 0.000258992 3.32581e-25)
(0.000447708 0.000725202 4.29683e-23)
(0.00130538 0.00137665 0)
(0.000771332 0.00140283 -1.07092e-21)
(0.000868944 0.00159899 -2.32365e-22)
(0.00075876 0.00132457 -3.59316e-22)
(0.000310546 0.000374442 1.43138e-21)
(0.000651047 0.00109986 3.40348e-22)
(0.000610117 0.00111629 1.44125e-22)
(0.000692836 0.00117687 0)
(0.000890045 0.00151442 0)
(0.000695714 0.00119852 0)
(0.000693249 0.0012701 2.77463e-22)
(0.000636896 0.00113093 -3.84687e-22)
(0.000671889 0.0011498 -1.00803e-21)
(0.000650718 0.0011553 0)
(0.000606652 0.00111946 -1.89695e-22)
(0.000830458 0.00147343 4.00161e-22)
(0.000816331 0.000473303 -7.45527e-22)
(0.000299564 0.000285815 0)
(6.10459e-05 -0.000173633 -6.93906e-22)
(0.00120364 0.000945527 0)
(0.000710638 0.00125493 4.11318e-22)
(0.000666568 0.00117265 3.98874e-22)
(0.000689191 0.00119872 2.1545e-22)
(0.000740543 0.00128434 -5.36448e-22)
(0.000681093 0.00120338 0)
(0.000198385 0.000328325 1.65244e-22)
(0.000884459 0.00161927 -5.1512e-22)
(0.000565738 0.000358393 4.5232e-22)
(1.39869e-05 -7.26684e-06 0)
(0.000888162 0.00151472 3.83648e-22)
(0.000770577 0.00137806 1.82987e-21)
(0.000736466 0.0012183 6.56841e-23)
(0.000916214 9.58723e-06 2.90362e-21)
(0.00157049 0.00110291 1.85163e-21)
(0.00068884 0.00112775 0)
(0.00060712 0.00100712 3.88924e-23)
(0.000750623 0.00120562 1.0342e-21)
(0.000623423 0.000969883 1.09033e-21)
(0.000544777 0.000928235 -3.81743e-22)
(0.000533311 0.00090935 -5.03784e-22)
(0.000584582 0.00095027 3.69736e-22)
(0.000526023 0.000899146 0)
(0.00061196 0.00104698 -6.2383e-22)
(0.000696645 0.00117027 2.6908e-22)
(0.000589165 0.000959664 0)
(0.000707305 0.00118517 1.64879e-22)
(0.000587169 0.00100471 3.91476e-23)
(0.000647772 0.000975424 -1.04474e-21)
(0.000533383 0.000928581 -3.20881e-22)
(0.000579903 0.000873133 4.56883e-22)
(0.000163494 0.000236898 4.82379e-21)
(0.000689803 0.00117233 1.1483e-22)
(0.000784897 0.00132816 -1.18893e-21)
(0.000719422 0.0012185 0)
(0.000489874 0.000484908 2.02327e-22)
(2.06018e-05 0.000108068 1.28913e-21)
(0.00066354 0.00116151 0)
(0.00141046 0.000271495 0)
(0.000649621 0.00101656 4.60046e-22)
(0.000295686 0.000608769 0)
(0.000907821 0.000134328 2.50169e-21)
(0.000456406 0.000541946 0)
(0.000981685 0.000238954 0)
(0.000947174 5.59774e-05 0)
(0.000573931 0.00103423 1.01164e-22)
(0.000455477 0.000659491 2.59755e-22)
(0.000783702 0.00124893 -1.99953e-24)
(0.000625388 0.00102443 -1.33631e-22)
(0.0006577 0.00113718 0)
(0.000683876 0.00114897 6.85428e-22)
(0.000727385 0.00117756 -2.84651e-22)
(0.00072329 0.00123162 0)
(0.000793668 0.00130005 3.6548e-22)
(0.00026511 7.04497e-05 5.52715e-21)
(0.000854711 -0.000103343 1.76452e-21)
(0.000806093 0.00144434 -3.36816e-22)
(0.000832963 0.0014054 -6.73878e-22)
(0.000680311 0.00081201 1.41142e-22)
(0.000647576 0.00115822 3.23592e-24)
(0.000617643 0.00105866 -6.15977e-22)
(0.000908918 0.000143826 0)
(0.000435127 0.000767291 -1.17632e-21)
(0.000634335 0.00126813 -3.11556e-22)
(0.000760119 0.000699044 -2.54891e-21)
(0.000778796 0.00139902 -4.99705e-22)
(0.000791905 0.00133502 -2.72504e-24)
(3.30921e-05 0.000581682 -2.32052e-21)
(0.000739968 0.00118811 7.14136e-22)
(0.000955463 0.00161158 -8.66629e-22)
(0.000586976 0.00125609 1.45537e-22)
(0.000269414 0.000337962 9.78614e-22)
(0.000870193 5.47957e-05 0)
(0.000717682 0.00113026 1.41661e-22)
(0.000524854 0.000942727 -3.36485e-22)
(0.000632622 0.00115076 1.21835e-21)
(0.000678733 0.00111238 -1.71197e-22)
(0.000701602 0.00120647 -1.61302e-22)
(0.000560258 0.00101107 1.08226e-21)
(0.000593838 0.000994911 2.6534e-22)
(0.000668488 0.00080576 3.85189e-23)
(0.000710624 0.00128421 -3.30741e-22)
(0.000560111 0.00100448 -9.39347e-22)
(0.000531441 0.000914009 -1.12052e-22)
(0.000643655 0.00105484 -4.24594e-22)
(0.000529006 0.000916601 0)
(0.000312339 0.000566393 1.29741e-21)
(0.000311593 0.000633614 0)
(0.000701585 0.00119805 -3.95078e-22)
(0.000674024 0.00109333 -1.07034e-21)
(0.000738971 0.0012209 3.41102e-22)
(0.000835483 0.00135052 -8.92318e-22)
(0.000731169 0.00116741 -6.3302e-22)
(0.000676934 0.00111674 -2.04252e-21)
(0.000732206 0.00122386 0)
(0.000715715 0.00122473 0)
(0.000729662 0.0011879 -2.55333e-22)
(0.000885044 0.00137574 1.13998e-21)
(0.000851712 0.00143088 3.89472e-22)
(0.00066081 0.0011247 -1.67976e-23)
(0.00066725 0.00113217 0)
(0.000681464 0.00107867 6.20632e-22)
(0.000672542 0.00108812 -1.98621e-22)
(0.000682012 0.00115721 -2.79869e-23)
(0.000850618 0.00141366 0)
(0.000668212 0.00109371 2.95025e-22)
(0.000674763 0.00113765 -7.70642e-22)
(0.000688985 0.00116331 4.52438e-22)
(0.000674704 0.00112469 0)
(0.000835949 0.00140734 -2.63273e-22)
(0.000878778 0.0014749 1.10937e-21)
(0.000878179 0.00148933 1.05104e-21)
(0.000526636 0.000692612 -1.24562e-24)
(0.00081918 0.000600465 2.11745e-21)
(0.000622551 0.000425404 1.52166e-21)
(0.000522192 0.000537084 -1.19067e-21)
(0.000791006 0.00142773 2.33417e-22)
(0.000769875 4.24893e-05 1.24941e-21)
(0.000188249 0.000686215 0)
(0.000298131 0.000260464 -1.30769e-21)
(0.000624893 0.00102331 -3.20964e-22)
(0.000661286 0.00118005 1.99363e-22)
(0.000699861 0.00119283 0)
(0.000696071 0.0013784 1.04825e-21)
(1.86326e-05 -1.4669e-06 -3.39009e-26)
(0.000568344 0.000968684 2.30047e-22)
(0.000626104 0.00104533 1.93081e-22)
(0.000545124 0.000952217 6.88316e-22)
(0.00100214 0.000212792 -2.59842e-21)
(0.000874717 0.000192459 -1.76995e-21)
(0.000681889 0.00144247 -7.95417e-22)
(0.000585622 0.000279925 -3.94717e-22)
(0.000529206 0.000927439 0)
(0.000510667 0.000913546 3.34468e-22)
(0.000519228 0.000864439 5.84758e-23)
(0.000555813 0.000956114 -2.38157e-22)
(0.000546536 0.000935164 -1.18818e-22)
(0.000759638 0.000390664 -1.98123e-21)
(0.000703364 0.0012501 3.30973e-22)
(0.000351601 0.000281181 3.88887e-22)
(1.92093e-05 -6.64459e-06 -2.81431e-25)
(0.000622421 0.00131055 4.93266e-22)
(0.000807457 0.00137317 -1.32145e-21)
(0.0010968 0.000567793 -6.89525e-26)
(0.000137817 0.000825342 0)
(3.77895e-05 8.32408e-06 9.0522e-22)
(0.000114581 0.000550841 0)
(0.000558022 0.000901449 -8.54887e-22)
(0.000682828 0.00127135 0)
(0.000838696 0.00141162 0)
(0.000748223 0.0012995 5.74326e-22)
(0.00057196 0.000977146 0)
(0.000551588 0.000939345 -5.12028e-23)
(0.000559502 0.000956037 1.05075e-22)
(0.00028485 0.00084212 -1.97793e-21)
(0.000675885 0.0011963 -1.02829e-21)
(0.000810501 0.00130981 0)
(0.000761096 0.000286221 2.92477e-21)
(0.000569371 0.000286971 3.36838e-21)
(0.000647024 0.00116062 0)
(0.0004646 0.000570851 2.36128e-21)
(0.000582414 0.00035055 1.08544e-21)
(0.000289884 0.000355541 -3.37009e-22)
(0.000520637 0.000644784 2.81611e-22)
(0.000870722 0.000290684 2.27787e-21)
(0.000653896 0.00120579 4.23277e-22)
(0.000703752 0.00129884 0)
(0.000868525 7.90829e-05 9.7025e-22)
(0.000539713 0.0010607 2.90786e-22)
(0.000732583 0.00116521 2.06406e-22)
(0.000860462 0.00135398 -1.9512e-23)
(0.000968413 0.00018996 -2.98255e-21)
(0.00031154 0.000545256 0)
(0.000677687 0.000414944 0)
(0.000588682 0.00120265 -8.33735e-22)
(0.000639907 0.00128115 -1.53782e-21)
(0.000891751 0.000138125 2.52047e-21)
(0.000370642 0.000320312 1.56164e-21)
(0.000101379 0.000755605 1.69554e-22)
(0.00091816 0.000330616 0)
(0.000346316 0.000763757 6.2974e-22)
(0.000618371 0.00115364 0)
(0.000643938 0.00119657 5.30677e-23)
(0.000658927 0.00122242 0)
(0.000632339 0.00117664 0)
(0.000324413 0.000279735 3.88081e-25)
(0.000814497 0.00102294 2.13492e-22)
(0.000812394 0.0013974 1.71031e-22)
(0.00134875 0.000766817 -1.11774e-21)
(3.53561e-05 5.62103e-05 0)
(0.000931226 0.00153146 -7.36935e-22)
(0.00065165 0.00114352 0)
(0.000821535 0.00143673 0)
(0.000839163 0.00142544 -4.625e-22)
(0.000650304 0.00113708 -1.35191e-23)
(0.000656937 0.00111654 2.0672e-22)
(0.000654225 0.00113202 1.56571e-22)
(0.000668722 0.00115635 -6.26713e-22)
(0.000664279 0.00112842 -1.03854e-21)
(0.000835825 0.00147612 -3.80791e-22)
(0.000687409 0.00123258 -7.3322e-24)
(0.00073023 0.00116252 0)
(0.000328389 0.000393907 -3.59975e-22)
(0.0005131 -0.000143493 1.7384e-21)
(0.000821823 0.0014053 -9.69492e-22)
(0.000728985 0.00128329 -1.21492e-22)
(0.0007135 0.00122374 -3.00904e-22)
(0.000632568 0.00108125 3.56222e-22)
(0.000725887 0.00122662 6.45389e-22)
(0.000774971 0.00130707 3.2623e-22)
(0.000690308 0.00117172 8.97728e-22)
(0.000669273 0.00110772 8.83682e-22)
(0.000700208 0.00121044 0)
(0.000721189 0.00121271 -7.41617e-22)
(0.000687932 0.00116784 0)
(0.000831578 0.00136599 -5.02645e-22)
(0.000850158 0.00143338 3.50404e-22)
(0.000669342 0.00114788 1.50259e-22)
(0.000661364 0.00114165 -3.41008e-22)
(0.000683793 0.00117369 -8.01304e-22)
(0.000639831 0.00107514 5.31934e-22)
(0.000661737 0.00108172 -8.1686e-22)
(0.000832922 0.00140867 -8.97936e-22)
(0.000636952 0.00109014 -1.64191e-23)
(0.000663545 0.00115984 -6.97138e-22)
(0.000649277 0.00113393 -2.71231e-22)
(0.000648407 0.00111569 -3.98342e-22)
(0.000799977 0.00140805 0)
(0.000877762 0.00150946 0)
(0.000856338 0.00145743 0)
(0.000201882 4.11305e-05 -2.62099e-25)
(0.00111341 0.000630816 9.16362e-24)
(0.000470665 5.18833e-05 -5.70563e-22)
(0.000765301 0.00139177 -3.91913e-22)
(0.000516768 0.00112335 -1.25255e-23)
(0.000338037 0.00014525 3.48521e-21)
(0.00090719 8.86859e-05 0)
(0.000474318 0.000447047 7.96416e-25)
(0.00119027 0.000363236 2.16046e-21)
(0.000645162 0.000175066 1.2674e-21)
(0.000656996 0.00129866 2.02165e-21)
(8.51774e-05 0.00077017 -2.21076e-21)
(0.00088171 0.000278508 -2.6723e-21)
(0.000764744 0.00140249 0)
(1.09876e-05 0.000541384 0)
(0.000684425 0.00121643 9.04501e-22)
(0.00028915 0.00122076 -1.19749e-21)
(0.000405788 0.000722173 -1.33198e-22)
(0.000393632 0.000729224 -1.25858e-22)
(0.000498115 0.000947247 -3.96801e-23)
(0.00047812 0.000764469 -3.60396e-22)
(0.000711269 0.00127016 0)
(0.0006466 0.00115626 2.59894e-22)
(0.000780677 0.00131125 3.53854e-22)
(0.000327869 0.000659039 1.89939e-21)
(0.000461659 0.000491627 0)
(0.000185768 0.000242686 2.02068e-21)
(0.000432627 0.0005831 4.22844e-21)
(0.000942201 0.00158696 3.8384e-22)
(0.000589528 0.000924862 2.95198e-22)
(2.5241e-05 2.25689e-05 7.6903e-22)
(0.000570493 0.00127561 1.3069e-21)
(0.000145525 0.000724977 1.45539e-21)
(0.00085272 0.00155275 -3.1113e-22)
(0.000844853 0.00147366 1.94475e-22)
(0.000780571 0.00130037 7.46337e-24)
(0.000860575 0.000163649 5.92093e-22)
(0.000593235 0.00104346 1.46239e-21)
(0.000653315 0.00127073 -1.03724e-21)
(0.000635175 0.00113548 -9.66312e-23)
(0.000604535 0.00113181 0)
(0.000509761 0.00092679 0)
(0.000586825 0.00106928 2.21668e-22)
(0.000184915 0.000227789 -4.72378e-21)
(0.000861435 -2.28006e-06 -2.98076e-21)
(0.000506511 0.00128155 3.07691e-22)
(0.000703709 0.000739491 -1.33316e-21)
(0.000609912 0.00105179 -1.54349e-22)
(0.000494575 0.000944605 -1.23979e-21)
(0.000600979 0.00105594 -3.92278e-22)
(0.000907745 0.00134138 4.10544e-22)
(0.000842889 0.00149855 3.31725e-22)
(0.000884358 0.00149426 0)
(0.000708334 0.00118804 1.14562e-21)
(0.00067646 0.00115638 -1.59127e-21)
(0.00115228 0.00038629 1.66452e-21)
(0.000682677 0.000793827 -1.20508e-21)
(0.000747518 0.00135273 9.61146e-23)
(0.000865543 0.000541686 4.65897e-24)
(0.000712609 0.00129051 0)
(0.000621369 0.00022855 0)
(5.80445e-05 -0.000132561 -1.2347e-22)
(0.000887988 4.86463e-05 0)
(0.00054977 0.00100925 -1.32251e-21)
(0.000728995 0.00132227 -3.14662e-23)
(0.000542157 0.00104472 0)
(0.000482289 0.000718705 5.32583e-22)
(0.000725427 0.00115794 0)
(0.000443788 0.000817211 0)
(7.79294e-05 4.25695e-05 0)
(0.000516132 0.000773276 1.33035e-21)
(0.000755998 0.00145267 4.79028e-24)
(0.000886879 -4.37517e-06 -2.9625e-21)
(3.49696e-05 8.17417e-06 -1.84881e-21)
(0.00077299 0.000482414 2.29299e-21)
(0.000750073 0.00140493 -5.67042e-23)
(0.000274122 0.000313534 -1.31499e-21)
(0.00145939 0.000192728 -1.67776e-21)
(5.46938e-05 0.000862204 -6.94417e-22)
(0.00072235 0.00126094 0)
(0.00087951 0.000215029 0)
(0.000880752 0.00011074 -2.43043e-21)
(0.000901481 0.000339296 -1.47207e-21)
(0.000623097 0.00117713 -3.97222e-22)
(0.00034324 0.000748461 -7.53145e-22)
(0.000635948 0.000255889 0)
(0.000878995 0.00019088 0)
(1.86421e-05 -1.09295e-05 -1.99757e-21)
(0.000528696 0.0012299 -6.00848e-23)
(0.000486777 0.00120454 3.3833e-23)
(0.000683917 0.0015542 0)
(0.00118426 0.00111256 1.42453e-21)
(0.000760443 0.000553083 -4.25627e-24)
(0.000485852 0.00054097 -1.03358e-21)
(0.000977032 6.05286e-05 -5.64549e-25)
(0.000815977 -1.34319e-05 -1.42989e-21)
(0.00064667 0.00110979 -4.87004e-24)
(0.000727156 0.00124788 2.34628e-22)
(5.57624e-05 4.58769e-05 2.42975e-26)
(0.000527588 8.21964e-05 -8.51313e-22)
(2.44288e-06 2.88937e-05 -2.17257e-22)
(0.000567002 0.00104631 -2.41518e-22)
(0.000751086 0.00051383 1.81202e-21)
(0.000250853 0.00034131 -1.28279e-21)
(0.00091128 0.00157724 1.90929e-21)
(0.000710777 0.00119683 -3.54425e-22)
(0.000702249 0.00121611 -3.34069e-22)
(0.000687904 0.00119112 -4.75886e-22)
(0.000680264 0.00116964 -5.92163e-22)
(0.000896398 0.00148583 1.13036e-22)
(0.000707552 0.00121481 0)
(0.000848673 0.00143754 -5.08754e-22)
(0.000681119 0.00114557 1.29902e-22)
(0.000438046 0.000846129 0)
(0.000861104 7.65866e-05 3.27491e-21)
(0.000160018 0.000894972 -1.37722e-21)
(0.000170275 0.000210865 3.28362e-21)
(3.1044e-05 -9.69609e-05 2.06874e-21)
(0.000740372 0.00135285 -6.81815e-22)
(0.00085468 0.000206413 0)
(0.000978698 0.00055352 -2.92659e-22)
(0.000592556 0.00101699 1.28692e-21)
(0.000624831 0.0014209 3.55799e-22)
(0.000839026 0.000163211 5.08229e-25)
(0.000522022 0.000485703 1.306e-21)
(2.98487e-05 5.09093e-05 0)
(0.000577915 0.00107833 0)
(0.000259293 0.000250548 -2.70664e-21)
(0.000624892 0.000285798 4.22631e-25)
(0.000294307 0.000332851 3.32687e-22)
(0.000516196 0.000749152 -3.80801e-22)
(0.000473049 0.000159272 1.05862e-21)
(0.000647697 0.0012035 0)
(0.000751981 0.00137328 -2.8077e-22)
(0.00142115 0.000758098 0)
(2.21391e-05 5.74458e-05 -6.90351e-21)
(0.000598012 0.00032995 -2.99645e-21)
(0.000647298 0.000311208 3.90811e-22)
(0.000836883 0.0002146 -1.24026e-21)
(4.58315e-05 0.000492142 2.87391e-21)
(0.000410678 0.00103261 2.90805e-22)
(0.000745357 0.00124182 7.2482e-24)
(0.000710018 0.00124855 -2.34012e-22)
(0.00101104 0.00038123 5.30132e-21)
(0.000511082 0.00123723 -9.75632e-22)
(0.000859961 0.00156197 -1.21976e-22)
(0.000695869 0.00122857 0)
(0.000734378 0.00134212 0)
(0.000884344 0.00157497 5.29324e-22)
(0.000636649 0.00119529 -2.84945e-22)
(0.000651006 0.00122035 -2.86318e-22)
(0.000690622 0.00125852 0)
(0.000646386 0.00119741 1.30306e-22)
(0.000718707 0.00136608 0)
(0.00062111 0.00117399 0)
(0.000836668 0.00154994 -6.05137e-22)
(0.000458662 0.000469906 -8.04875e-22)
(0.000728014 0.00135581 1.25535e-21)
(0.000340072 0.000647861 -1.29049e-21)
(0.000709639 0.00123938 4.35206e-23)
(0.000830668 2.67619e-05 1.26599e-21)
(0.000880378 0.000239913 1.12592e-21)
(0.000359011 0.000649903 2.17019e-21)
(0.000251154 4.30256e-05 0)
(7.14448e-06 0.000136144 -4.46476e-21)
(0.00064607 0.00113322 -1.63334e-23)
(0.000855143 0.000280585 -1.3841e-21)
(3.40251e-05 5.62652e-06 -2.07304e-21)
(0.00066047 0.00122725 1.23739e-21)
(0.000687234 0.00127436 1.65331e-22)
(0.000707865 0.00117624 0)
(0.0006506 0.00142683 -1.82958e-21)
(0.000534244 -7.9776e-05 -4.78587e-21)
(0.000583702 0.00128418 3.30968e-22)
(0.0002397 0.000765047 0)
(1.331e-05 0.000169618 3.76507e-25)
(0.000818472 0.000730967 -1.6157e-22)
(0.000729952 0.0012998 0)
(0.000709983 0.00123919 1.30715e-22)
(0.000748565 -6.69049e-06 0)
(3.83856e-06 0.000197154 1.70115e-21)
(-3.09313e-06 0.00103576 -1.4362e-21)
(0.000147708 0.000687819 1.5477e-21)
(0.000610602 -8.04806e-05 1.97705e-21)
(0.000721714 0.00128246 -9.17098e-22)
(0.000159981 0.00032708 0)
(0.000557357 0.000157444 -6.60747e-22)
(0.000916303 0.000624686 -1.24644e-21)
(0.000688141 0.0012082 0)
(0.000645942 0.00110053 2.3146e-22)
(0.000544969 0.000988379 -6.10572e-22)
(0.000587593 0.0010286 0)
(0.000530976 0.000935195 -9.91844e-24)
(0.000505231 0.00019363 6.15302e-22)
(0.000318649 0.000685419 4.10136e-23)
(0.000306208 0.000674992 9.42551e-24)
(0.000416924 0.000906887 3.60232e-23)
(0.000567507 0.00133132 9.58389e-22)
(0.000890204 0.000215967 0)
(0.000903112 0.000111096 1.37198e-21)
(0.000489469 0.00102882 -6.67001e-22)
(0.000211469 0.000293113 -2.23951e-21)
(0.000504491 0.000920064 0)
(0.000318558 0.000731606 9.26967e-24)
(0.000360465 0.000829159 9.81814e-24)
(0.000715912 5.87262e-05 1.43135e-25)
(0.00059387 0.00102411 -1.59482e-22)
(0.000701334 0.0013299 3.12231e-22)
(0.000756579 0.00131861 -9.86026e-22)
(0.000632696 0.00119152 0)
(0.000673625 0.00118182 4.27145e-22)
(0.000612955 0.000943907 0)
(0.00054727 0.000669844 -4.31579e-25)
(0.000525102 0.000921598 0)
(2.34727e-05 0.000177881 -3.54263e-25)
(0.000629309 0.000189675 3.16497e-22)
(0.000433315 0.000550601 -1.10549e-21)
(9.70891e-05 4.87472e-05 0)
(0.00087269 0.000318747 0)
(0.000441995 5.17137e-05 -5.86604e-24)
(0.000639943 0.000764417 1.55135e-21)
(0.00106578 0.000473474 5.84902e-22)
(0.00070363 0.00119823 -1.93377e-22)
(0.000434391 0.000472125 6.79086e-22)
(0.000591778 0.00136233 -2.29758e-21)
(0.000666862 0.00148457 -2.23864e-22)
(0.000536821 0.000990112 1.64579e-21)
(0.000553813 0.00017067 0)
(0.000831081 0.000429814 -4.57857e-22)
(0.000710742 0.00115807 3.67437e-24)
(0.000296568 0.00030868 0)
(0.000559709 0.00101305 -5.02387e-22)
(0.000489038 0.000578478 -4.73318e-21)
(0.000164103 0.00019372 1.74163e-21)
(0.000835091 0.00148866 1.03726e-22)
(0.000804744 0.000664524 -1.77996e-21)
(0.000549987 0.00118239 5.4297e-22)
(0.000987789 8.09592e-05 -1.58481e-21)
(0.000676914 0.000533192 1.06335e-21)
(0.000805045 0.00137915 -7.23771e-23)
(0.000514538 0.000574402 -6.82076e-25)
(0.0011611 0.000344338 -4.73514e-22)
(0.000412456 0.000328343 1.25706e-21)
(0.000274083 0.000611135 8.6961e-24)
(0.000279627 0.000623627 8.81291e-24)
(0.000286731 0.000640017 8.93264e-24)
(0.000337353 0.00075771 -7.98887e-23)
(0.000267465 0.000596726 3.50861e-23)
(0.000185984 0.000181763 0)
(0.000769113 0.000521027 0)
(0.000555703 0.000835607 -1.78489e-21)
(0.000863558 1.56518e-05 0)
(0.000172836 2.51666e-05 1.78865e-21)
(2.24117e-05 6.11896e-05 3.23316e-21)
(0.000507987 0.000407099 -1.29337e-21)
(0.000417441 0.000654855 2.13387e-21)
(0.00118627 0.000642795 3.18833e-21)
(0.000524095 0.000922399 4.29804e-22)
(0.00055351 0.000952695 -8.54373e-22)
(0.000533853 0.000932247 2.17451e-22)
(0.000564813 0.00100047 -9.83767e-22)
(0.000717375 0.00124411 0)
(0.000691942 0.00123263 2.41809e-22)
(7.04773e-05 5.00052e-05 1.84132e-21)
(0.000877198 0.000275848 1.4879e-21)
(0.000427695 0.000762867 -8.86608e-22)
(0.000438442 0.000790755 -6.55079e-22)
(0.00058865 0.000963911 -2.99883e-22)
(0.000482299 0.000787147 3.38316e-22)
(0.000467707 0.000706605 3.75748e-22)
(0.00040123 0.00070285 8.54256e-22)
(0.000556455 0.000770973 2.45893e-23)
(0.000485457 0.000671761 0)
(0.000511077 0.000863046 -6.30287e-22)
(0.000423855 0.00077737 5.49146e-22)
(0.000567796 0.000844361 -4.16898e-22)
(0.000539817 0.000901461 -6.16193e-22)
(0.000417311 0.000717195 -1.85545e-22)
(0.000407687 0.000703228 3.79355e-22)
(0.000498333 0.000882315 0)
(0.000437603 0.000674542 -8.65439e-22)
(0.000408556 0.000702868 2.12573e-22)
(0.000417314 0.000717395 4.05986e-22)
(0.000718487 0.000988782 -1.65688e-22)
(0.000413056 0.000738661 -1.55989e-22)
(0.000415988 0.000750159 0)
(0.000407014 0.000734807 3.333e-22)
(0.000433686 0.000703207 0)
(0.00038791 0.00069795 2.17537e-23)
(0.000496694 0.000896293 -8.1506e-24)
(0.000512412 0.000868905 1.04205e-23)
(0.000596324 0.000990942 0)
(0.000494594 0.000716231 3.17834e-21)
(0.000521886 0.000921693 5.69952e-22)
(0.000554414 0.000916498 -1.75324e-21)
(0.000402037 0.000714635 -7.54954e-22)
(0.000504648 0.000741033 0)
(0.000441443 0.000778953 -6.91477e-22)
(0.000488876 0.000864541 3.55609e-22)
(0.000468419 0.000778459 0)
(0.000871032 0.000158131 -1.11082e-21)
(0.000748431 0.00135841 2.0926e-22)
(2.49433e-05 8.63271e-06 1.05758e-21)
(0.000813495 0.00149969 -1.51409e-22)
(0.000906451 3.50576e-05 -1.25942e-21)
(4.14281e-05 4.83375e-07 2.23821e-21)
(4.03009e-05 -2.3715e-06 0)
(0.000121043 0.000286083 1.18321e-21)
(0.000681545 0.00117084 -3.78331e-22)
(0.0006998 0.00121218 0)
(0.000769417 0.00130826 -1.82959e-21)
(1.40548e-05 5.02211e-05 -2.02634e-21)
(0.000206642 0.000531511 0)
(7.11357e-06 -7.98787e-06 -1.79865e-21)
(0.000742028 0.000151691 1.55072e-21)
(0.000867947 2.90012e-05 -5.68555e-22)
(0.000736053 0.00123524 1.49134e-21)
(0.000417465 0.00113057 -5.83894e-22)
(0.000281025 0.000406534 -9.88185e-23)
(0.000411902 0.000806253 1.62339e-21)
(0.000207957 0.000568638 -1.61642e-21)
(0.00108727 0.000469516 7.06961e-23)
(0.000164128 0.000828417 1.64115e-21)
(0.000824736 0.000345483 7.48224e-22)
(6.8967e-05 4.1051e-05 3.2994e-21)
(0.00101064 -2.37638e-05 3.45706e-21)
(0.000769937 0.00129401 -1.34592e-23)
(0.000613039 0.000262602 -2.02452e-21)
(0.00102263 0.000257558 1.22541e-24)
(5.33717e-05 0.000332932 -1.30471e-21)
(0.00062923 0.00124414 -5.0454e-24)