/*--------------------------------*- C++ -*----------------------------------*\
  =========                 |
  \\      /  F ield         | OpenFOAM: The Open Source CFD Toolbox
   \\    /   O peration     | Website:  https://openfoam.org
    \\  /    A nd           | Version:  7
     \\/     M anipulation  |
\*---------------------------------------------------------------------------*/
FoamFile
{
    version     2.0;
    format      ascii;
    class       volScalarField;
    location    "78.5";
    object      p;
}
// * * * * * * * * * * * * * * * * * * * * * * * * * * * * * * * * * * * * * //

dimensions      [0 2 -2 0 0 0 0];

internalField   nonuniform List<scalar> 
591
(
0.000123873
0.000123891
0.000123893
0.000123846
0.000123849
0.000123919
0.000123911
0.000123882
0.000116982
0.0001239
0.000124082
0.000122822
0.000123888
0.00011972
0.000123882
0.000123927
0.000123868
0.000123927
0.000121948
0.00012326
0.000123863
-3.52561e-06
0.000124079
0.000123865
0.000124036
0.000123887
0.000123992
0.000123996
0.0001239
0.000123907
0.000124055
0.00012403
0.00012405
0.000124049
0.000124051
0.000123374
0.000124046
0.000123866
0.000124073
0.000123991
0.00012395
0.000124043
0.000123895
0.000123917
0.00012404
0.00012406
0.000119226
0.000124064
0.000123899
0.000124017
0.000124011
0.000124042
2.39445e-05
3.05891e-05
4.7843e-05
0.000123893
0.000124068
0.000124058
0.000124062
0.000123873
0.000123961
0.000123891
0.000123888
0.000123938
0.000122561
0.000123891
0.000123894
0.000124059
0.000120714
0.000123905
0.000123899
0.000124065
0.000124036
0.000124044
0.00012405
0.000124026
0.000123868
0.000124062
0.00012387
0.000123806
0.000123646
0.000124067
0.000124027
0.000124008
0.000124074
0.000123881
0.00012397
0.000124057
0.000124019
0.000123771
0.000124031
0.00012398
0.000123995
0.000123873
0.000124072
0.000124028
0.000123577
0.000123476
0.000123639
0.000124078
0.000123985
0.000123906
0.000124083
0.000123843
0.000124084
0.000123892
0.000123889
0.000124032
0.000124075
0.000124079
0.000123967
0.000124055
0.000123906
0.000124059
0.000124076
0.000124059
0.000124012
0.000124006
0.000123572
0.00012398
0.000123892
0.000123885
0.000123973
0.000123871
0.000124045
0.000120192
0.000124083
0.00012406
0.000123644
0.000124051
0.000123882
0.000123569
0.000124019
0.000124014
0.000124054
0.000123897
0.00012262
0.000124081
0.000123884
0.000123568
0.000123634
0.00012398
0.000124064
0.000124074
0.000124068
7.61758e-06
3.67926e-06
2.07163e-06
3.81613e-05
3.67013e-05
5.66197e-06
3.83125e-05
1.5742e-05
3.72942e-05
1.78088e-05
0.000123892
0.000123883
0.000124071
0.000124064
0.000124071
0.00012407
0.000124062
0.000124059
0.00012407
0.000124069
0.000124034
0.000124071
0.000124067
0.000124074
0.000124013
0.000123385
0.000124074
0.000122115
0.000124056
0.000124054
0.000124003
0.000123901
0.000124054
0.000124068
0.000124067
0.000123483
0.000122464
0.000123041
0.000123435
0.000124058
0.000124065
0.000123972
0.000123863
0.00012406
0.00012296
0.000123292
0.000123863
0.000124052
0.000123748
0.000124046
0.000124064
0.000124038
0.000123717
0.000123854
0.000124062
0.000124068
0.000124066
0.000123864
0.000124049
0.000123861
0.000124076
0.000123885
0.000123885
0.000124073
0.000123678
0.000123854
0.000123895
0.000123533
0.000124025
0.000123679
0.000123967
0.00012398
0.000124053
0.000123446
0.000123956
0.000123847
0.000123848
0.000124027
0.000123788
0.000123941
0.000123856
0.000123767
0.00012384
0.000124077
0.000123833
0.000124074
0.000123924
0.000124052
0.000123898
0.000123899
0.000124079
0.000123789
0.000124066
0.000123779
0.000123827
0.00012389
0.000123869
0.000123907
0.000123893
0.000123663
0.000123866
0.000123819
0.000124034
0.000123885
0.000123738
0.000124022
0.000123288
0.000123848
0.000123182
0.000123065
0.000123876
0.000123841
0.000123879
0.000123875
0.000123846
0.000124078
0.000123922
0.000124003
0.000123934
0.000123926
0.000123939
0.000124031
0.000123681
0.000124074
0.000123717
0.000123607
0.00012391
0.00012405
0.000123629
0.000124069
0.000123978
0.000123999
0.000124024
0.000123901
0.000123873
0.000123706
0.000123836
0.000123867
0.000123917
0.000123974
0.000124039
0.000124057
0.000124062
0.00012382
0.000123926
0.00012405
0.000124057
0.000124052
0.000123844
0.000124064
0.000123939
0.000124048
0.000123806
0.000124064
0.000123794
0.000124041
0.000123931
0.000123873
1.16425e-05
2.19132e-05
0.000123821
0.000123897
0.000124076
0.000123826
0.000124076
0.000123908
0.000124064
0.000124041
0.000123777
0.000124036
0.000123865
0.000124073
0.000123899
-2.09677e-07
0.000123765
0.000124047
0.000124042
0.000123737
0.000123889
0.000123931
0.000124036
0.000123794
0.000124058
0.000123942
0.000123892
0.000124034
0.000123841
0.000123768
0.000123803
0.000123901
4.74785e-05
0.000124053
0.000124034
0.000123891
0.000124059
0.00012397
0.000123913
0.000123896
0.000123882
0.000124045
0.000123908
0.000123815
0.000123941
0.000123819
0.000124058
0.000123827
0.000123884
0.000123919
0.000124005
1.9874e-05
2.73347e-05
3.42962e-05
9.63957e-06
0.000123866
3.30549e-05
2.60023e-05
0.000124055
1.90749e-05
1.70305e-05
3.81864e-05
7.57627e-06
3.99385e-05
5.60479e-06
4.08329e-05
3.68862e-06
4.28155e-05
1.87561e-06
3.64075e-05
2.31989e-05
2.9451e-05
1.49928e-05
0.000123748
0.000124066
0.000123934
0.000123942
0.000120889
0.000123985
0.000124061
0.000124032
0.000123833
0.000124067
0.000124069
0.000124047
0.000124044
0.000123808
0.000123883
0.000124053
0.000124059
0.000123896
0.000123764
0.000123838
0.0001234
0.000123852
0.000124081
0.000124051
0.000123894
0.000124074
0.000123738
0.000123921
0.000123697
0.000122851
0.000124045
0.000124057
0.00012408
0.000123751
0.000123939
0.000123696
0.000123907
0.000123898
2.60438e-05
2.18782e-05
3.30365e-05
1.16185e-05
0.000124084
0.000123744
1.98206e-05
2.82556e-05
3.56031e-05
9.58822e-06
0.000123901
0.000123994
0.00012385
0.00012386
0.000123884
0.000124019
0.00012381
0.000124041
0.000123984
0.000123094
0.000123864
0.00012383
5.93625e-05
0.000123219
0.000124072
0.000123877
0.000123771
0.00012406
0.000124063
0.000123858
0.000123658
0.000123887
0.000123946
0.000123741
0.000124017
0.000122899
0.000123819
0.000123838
0.000124027
0.000100875
0.000123875
0.00012348
0.000123805
0.000124072
0.000123706
1.08963e-05
2.11156e-05
3.53679e-05
2.8192e-05
1.36623e-05
5.4519e-08
4.20817e-05
2.68975e-06
4.01596e-05
4.76198e-06
3.94179e-05
6.81482e-06
3.8625e-05
8.85759e-06
3.72907e-05
1.36743e-05
3.17286e-05
3.05848e-05
2.39382e-05
2.52783e-05
1.77658e-05
1.29387e-05
1.5708e-05
0.000124066
0.000102406
0.000123865
0.000123797
0.000124069
0.000123959
0.000124076
0.000123792
0.00012392
0.000124037
0.000124032
0.000124039
0.000123792
0.000123889
0.000123796
0.000123997
0.000123827
0.00012407
0.000123941
0.000123772
0.000123777
0.0001239
0.000123892
0.000124077
0.000124068
0.000124078
0.000124036
0.00012408
0.000123707
0.000123887
0.000124072
0.000123833
0.000123962
0.000123893
0.000123936
0.000123774
0.000124036
0.000124034
0.000123348
0.000121363
0.000123076
0.000123621
0.000123888
0.000123718
0.000123899
0.000124077
0.000124042
0.000123893
0.000123508
0.000123487
0.000124071
0.000124038
0.000123908
0.000124004
0.000123547
5.83163e-05
4.01225e-05
0.000124009
0.000124026
0.000123389
0.000122739
0.000123874
0.00012362
0.000123367
0.000123884
0.000123794
0.000124062
0.000123917
0.000123947
0.000118999
5.44785e-05
0.000123915
8.12416e-05
1.86157e-06
-3.81209e-07
0.000123884
0.000123852
0.000124037
0.000124079
0.000124069
0.00012407
0.000124072
0.000123869
-2.30761e-06
0.00012282
0.000123909
0.000124015
0.000122006
0.000124069
0.00012407
0.000122277
0.000123985
0.000124039
0.000121684
0.000124075
7.63423e-05
0.000124068
0.000123734
0.00012403
0.000122367
0.000123596
0.000123659
0.000123918
0.000124078
0.000124023
0.000124069
0.000124081
0.000123885
0.000116168
)
;

boundaryField
{
    back
    {
        type            empty;
    }
    ingreso
    {
        type            zeroGradient;
    }
    salida
    {
        type            fixedValue;
        value           uniform 0;
    }
    front
    {
        type            empty;
    }
    defaultFaces
    {
        type            zeroGradient;
    }
}


// ************************************************************************* //
