/*--------------------------------*- C++ -*----------------------------------*\
  =========                 |
  \\      /  F ield         | OpenFOAM: The Open Source CFD Toolbox
   \\    /   O peration     | Website:  https://openfoam.org
    \\  /    A nd           | Version:  7
     \\/     M anipulation  |
\*---------------------------------------------------------------------------*/
FoamFile
{
    version     2.0;
    format      ascii;
    class       surfaceScalarField;
    location    "78.5";
    object      phi;
}
// * * * * * * * * * * * * * * * * * * * * * * * * * * * * * * * * * * * * * //

dimensions      [0 3 -1 0 0 0 0];

internalField   nonuniform List<scalar> 
1111
(
6.75446e-09
1.30874e-08
-1.59838e-08
-3.85806e-09
6.7527e-09
-1.18261e-08
1.18279e-08
-1.47517e-08
5.49103e-09
9.03405e-09
2.2658e-10
7.1531e-10
-8.21511e-10
-1.43206e-08
1.44268e-08
-1.42632e-08
1.40152e-08
9.63355e-10
-1.6477e-09
1.49082e-08
2.16804e-09
-3.29702e-09
9.64095e-09
-1.00509e-08
3.70697e-09
-6.71274e-09
-1.26174e-08
1.25989e-08
6.73123e-09
-5.03888e-08
-2.599e-08
7.63788e-08
-8.13642e-09
7.66745e-09
7.22166e-09
3.41793e-09
3.55448e-10
-3.49978e-09
-2.736e-10
1.57947e-08
-1.61491e-08
-2.31423e-08
2.34968e-08
-9.65646e-09
-7.8941e-09
8.79627e-09
8.75429e-09
-3.55029e-08
1.76647e-08
-3.22929e-08
5.01311e-08
9.5115e-09
-1.96266e-09
-1.42616e-08
-9.56511e-10
1.8468e-09
-3.34149e-09
2.4512e-09
-3.86916e-09
1.33458e-08
1.95838e-09
-1.14351e-08
8.8237e-09
-2.57816e-09
-1.5043e-08
8.79747e-09
3.74759e-08
-3.01795e-08
-7.29639e-09
-1.94499e-08
3.84262e-10
1.72573e-08
1.80833e-09
-9.81803e-10
4.19765e-09
-1.78647e-08
1.46488e-08
-6.12213e-08
-3.96283e-09
6.51842e-08
1.45119e-10
-1.21376e-09
-3.43237e-10
1.41188e-09
-1.63131e-09
-1.36137e-08
-1.19815e-10
-2.72222e-10
2.20698e-10
1.71339e-10
-1.02893e-08
-8.38895e-09
1.28734e-08
5.80479e-09
6.90844e-10
-2.12614e-09
-8.35175e-09
9.78705e-09
8.37434e-09
8.39979e-10
-9.37847e-09
1.64142e-10
-2.87208e-09
-7.92539e-09
1.10016e-08
-2.04088e-10
1.1399e-08
-8.65469e-10
-1.70987e-09
-8.86751e-10
8.80328e-10
2.49556e-11
-1.8533e-11
-1.61965e-10
7.60635e-10
3.02461e-10
-9.01131e-10
-4.97364e-10
-3.91489e-11
5.31141e-10
5.37203e-12
-2.0504e-11
-8.7269e-10
1.08696e-10
7.84497e-10
-8.54933e-11
-8.21762e-10
8.99525e-10
-1.84493e-08
-1.90007e-09
-4.13316e-10
4.51394e-11
-1.29187e-10
1.33959e-08
-1.32418e-08
4.04354e-09
-3.79891e-10
5.82354e-10
3.52372e-10
-5.54835e-10
-1.45151e-10
-1.78164e-09
1.42368e-09
5.0311e-10
-2.07627e-09
1.0364e-08
-1.15847e-08
-2.99927e-10
-1.67655e-10
5.42645e-11
-8.77754e-09
1.03366e-08
-9.69552e-09
1.21865e-08
-1.71423e-08
4.71099e-09
2.44787e-10
6.49518e-11
-1.69489e-10
-1.9539e-10
1.97267e-10
8.10653e-10
-1.27592e-10
-5.95251e-08
7.42291e-08
-1.4704e-08
1.06209e-09
-2.7544e-10
-1.20003e-09
4.13388e-10
1.1463e-09
1.03167e-08
-1.3721e-08
2.25807e-09
-1.54353e-09
7.51998e-09
-8.8716e-09
2.89515e-09
-6.64122e-09
5.68175e-09
5.61138e-09
-4.65192e-09
-7.48162e-09
-1.86512e-09
1.85416e-09
7.49258e-09
-1.8356e-10
-9.09211e-08
9.13072e-08
-2.02574e-10
-2.57979e-10
-8.97578e-08
9.01677e-08
-1.51939e-10
8.30831e-08
-1.49409e-09
1.10096e-10
-8.16991e-08
-2.98296e-09
-3.69665e-10
6.94803e-10
8.55836e-10
-4.88553e-10
3.95406e-09
-1.28829e-09
3.39998e-09
-6.06575e-09
-9.95406e-10
9.17232e-10
-1.49566e-08
6.60343e-09
9.62979e-09
1.02736e-09
-1.03865e-08
-2.70679e-10
-6.16536e-09
1.32997e-08
1.15646e-09
-8.29085e-09
1.43572e-08
-4.42506e-09
3.62734e-09
-1.35595e-08
1.54099e-08
1.69373e-09
-1.6748e-09
-1.95822e-10
-2.00615e-08
-7.41735e-09
2.76747e-08
1.41917e-08
-8.61199e-09
-1.98599e-09
7.88564e-09
-1.2065e-08
-2.79928e-11
1.10199e-10
-1.28224e-09
-3.62712e-08
-2.32539e-08
8.236e-09
2.18184e-10
3.7323e-09
-7.02303e-09
1.09863e-08
6.37335e-09
-6.16126e-10
3.35013e-10
4.96583e-10
-2.1547e-10
5.80738e-09
-4.73844e-09
3.6302e-09
-4.69914e-09
-4.94364e-10
-6.48454e-10
2.70128e-10
6.90689e-10
-6.21143e-10
-3.66012e-11
-9.02399e-10
7.77035e-10
-1.79935e-08
2.44903e-09
1.53339e-09
1.40111e-08
2.38639e-10
-7.20726e-10
-1.34039e-10
-4.06434e-09
-1.50419e-08
1.11272e-09
5.62156e-09
1.20036e-08
-5.22459e-09
-1.24006e-08
1.64455e-08
6.60989e-10
-1.59112e-08
-1.19529e-09
-6.98478e-10
4.73962e-10
5.59529e-10
-4.87721e-10
2.49417e-10
2.38304e-10
-7.33631e-09
-3.62212e-09
4.31721e-09
-2.5266e-10
3.83324e-10
-1.30664e-10
1.2203e-09
-1.55739e-08
-8.38505e-10
9.6118e-09
-1.08496e-08
-9.98444e-10
-5.24323e-10
1.28439e-08
4.3964e-09
-4.1432e-09
-1.30971e-08
1.29601e-10
7.10089e-09
-7.85298e-09
6.43384e-09
-1.73181e-09
-8.83444e-09
8.08667e-09
2.47957e-09
-1.84796e-09
6.50388e-10
-1.38443e-08
-1.43206e-10
-1.09455e-10
5.25223e-11
8.56932e-10
-8.39108e-09
7.40403e-10
1.73056e-08
-1.60057e-09
-1.25496e-08
1.38848e-08
-1.33522e-09
1.21693e-08
1.39918e-08
-1.55301e-08
-1.0631e-08
-5.89582e-10
1.06313e-09
-4.73553e-10
5.56565e-10
-5.74707e-10
1.81415e-11
7.19858e-10
-6.78998e-10
-4.08602e-11
1.47965e-09
-1.20825e-09
-2.71394e-10
-1.0737e-08
7.3501e-10
1.0002e-08
2.13585e-09
-6.562e-10
8.94826e-09
-1.53593e-08
7.31472e-09
-8.80573e-09
5.49437e-11
3.75969e-09
-3.96701e-10
-2.49129e-09
2.54624e-09
-6.70514e-09
8.03454e-09
-1.3294e-09
-6.31046e-10
4.21445e-09
3.70656e-10
1.72739e-08
-1.44893e-08
-1.63832e-09
-5.88886e-09
5.34028e-09
-7.39702e-10
-2.06259e-10
6.0143e-09
-6.02232e-09
8.02608e-12
6.94114e-09
4.47762e-09
3.22423e-11
-1.60246e-08
1.04633e-08
1.77306e-08
5.74341e-09
8.29863e-09
8.22191e-09
-6.84504e-09
1.26444e-09
-1.20014e-08
6.16145e-10
1.01497e-09
-1.29129e-08
2.97454e-09
-4.283e-10
1.18092e-08
-1.11482e-08
-2.23077e-10
-8.6086e-10
-1.37945e-08
7.49947e-09
7.82014e-10
-1.60506e-11
-8.90826e-09
5.07925e-09
-3.03753e-08
-1.25046e-08
-2.73995e-09
1.45002e-09
1.40478e-08
1.09761e-08
-1.07285e-08
-1.42954e-08
1.54925e-08
-3.11266e-09
-1.23799e-08
1.63533e-09
3.94222e-09
-1.17329e-09
-9.2e-10
-9.03445e-10
1.20741e-09
6.16038e-10
-2.49286e-10
3.71658e-10
3.74211e-10
6.21366e-08
-6.21616e-08
2.5014e-11
6.20582e-08
-6.23617e-08
3.03531e-10
8.36832e-10
6.47409e-08
-6.55674e-08
8.26507e-10
6.41333e-08
6.07588e-10
-2.25108e-10
-6.65126e-08
9.45184e-10
-6.20472e-08
6.19133e-08
1.3394e-10
1.31559e-09
-6.78282e-08
-6.22064e-08
1.59213e-10
1.24504e-08
-8.22864e-10
1.4325e-09
-3.70281e-09
3.09317e-09
3.50812e-10
-1.21291e-09
9.87713e-10
-6.45155e-10
1.41657e-09
-1.66401e-09
8.92596e-10
1.44468e-09
-1.5675e-09
2.33019e-10
-6.63046e-11
-3.40154e-09
2.85599e-09
-2.0917e-09
2.63726e-09
-5.72107e-10
-2.7813e-09
2.53054e-09
-3.64801e-09
-5.74235e-09
6.03609e-10
-6.51219e-10
1.27321e-09
1.13108e-09
-6.52616e-09
7.96186e-09
3.04192e-09
1.98621e-08
-4.36951e-09
-7.38157e-10
2.91484e-10
1.05028e-09
-1.00739e-08
-2.61973e-08
5.36834e-09
-4.33973e-09
-3.15126e-09
2.12265e-09
1.13257e-10
2.16203e-11
3.96263e-10
-2.63668e-09
3.38705e-09
8.86572e-09
7.87895e-10
-3.33306e-10
2.13542e-09
-2.37422e-09
1.97318e-09
1.47573e-08
1.32822e-08
-2.69603e-08
3.26811e-08
6.33529e-09
-2.28277e-08
-1.04679e-08
1.84117e-08
-1.79137e-08
1.0478e-08
-1.30886e-10
-1.48788e-10
-1.28782e-09
-1.7643e-09
-2.94311e-09
3.71246e-09
1.49986e-08
-6.00129e-10
-1.37481e-08
-4.64175e-10
-2.48909e-09
1.71963e-10
1.54686e-08
1.77005e-08
1.36993e-08
7.05061e-10
-1.63973e-09
-1.27646e-08
-1.6362e-09
5.99941e-09
1.2466e-08
-5.73913e-10
-1.10871e-09
-3.58969e-09
2.76093e-09
3.68475e-09
2.47238e-09
1.43807e-08
4.20637e-09
-1.41907e-08
1.78819e-08
-1.7705e-09
2.59795e-09
-3.46761e-09
1.88881e-09
-4.83532e-09
1.29502e-08
-1.1984e-08
-1.40155e-08
3.88478e-10
8.79168e-09
-1.83726e-09
1.5366e-09
1.57387e-09
-8.66025e-09
6.98763e-10
-4.54312e-09
-6.03225e-09
1.22139e-08
-1.48419e-08
1.19076e-09
1.66711e-09
-2.21574e-09
1.67018e-08
-1.61532e-08
-1.03569e-09
1.41348e-08
3.00514e-09
-4.34902e-09
-1.40154e-08
7.48265e-09
-1.72809e-08
-8.11544e-09
6.71695e-09
5.86505e-09
1.45151e-08
-9.88322e-09
3.06345e-09
9.29934e-09
9.87249e-09
3.83278e-09
-4.16565e-09
2.16487e-08
-1.90764e-08
4.91034e-09
-1.04283e-08
2.18043e-09
5.60851e-09
1.38068e-08
-2.20367e-10
1.27513e-08
-1.35666e-08
-1.86868e-09
2.00428e-09
-1.02782e-09
8.92212e-10
1.09749e-08
-6.38287e-09
7.41159e-09
-1.0827e-08
1.42604e-09
-4.74837e-09
1.1417e-08
-1.18932e-08
-7.54792e-09
9.1452e-09
9.37761e-09
1.28481e-08
7.33239e-10
-1.38017e-08
1.53617e-09
8.02314e-10
-1.10597e-08
-6.71907e-09
1.02309e-08
-1.51705e-09
2.51852e-09
-8.9535e-09
4.81051e-09
-5.21571e-09
1.1495e-08
-3.49056e-09
-1.16955e-08
3.69099e-09
-4.49e-09
1.12367e-08
1.93052e-09
1.14225e-09
-5.03113e-09
-1.76944e-08
1.04314e-08
1.22941e-08
7.79491e-10
-1.09408e-08
-9.93837e-09
1.5848e-08
1.2502e-08
2.8385e-09
-9.73196e-09
-1.32943e-08
-3.065e-10
-1.27366e-08
1.72906e-10
-7.55994e-10
1.15846e-08
1.25105e-08
-8.22613e-09
1.65478e-08
-1.59337e-08
3.59225e-09
-4.55899e-10
1.74275e-09
1.27243e-08
-3.90298e-09
-1.26408e-08
-5.1093e-09
1.51691e-09
4.60736e-09
1.21674e-08
-7.26963e-09
8.84746e-10
-1.54285e-09
9.45212e-10
-1.27104e-09
5.86272e-09
2.6264e-08
-2.09551e-10
-1.03574e-08
1.0567e-08
2.84947e-08
-2.22477e-08
2.20395e-08
1.96931e-08
-1.27008e-08
-2.66483e-09
1.50292e-08
2.11819e-10
-1.21417e-08
-3.83025e-10
-6.02556e-09
-1.88978e-09
2.25857e-09
1.56173e-09
-2.94273e-10
-1.10233e-08
1.13834e-08
-6.58106e-11
3.11063e-09
-5.32477e-09
-1.09512e-08
1.05241e-08
-8.82708e-10
-1.07003e-08
-1.50012e-10
-1.11192e-08
-2.64752e-09
-1.19819e-08
2.20425e-09
7.89574e-09
5.13198e-09
-2.33429e-10
-1.17638e-08
1.1703e-08
6.02232e-10
-8.73261e-09
5.19684e-09
-1.38487e-09
2.39715e-09
-2.42309e-09
-1.30391e-08
-1.27949e-08
1.23519e-08
-1.02372e-08
-1.57837e-08
9.99629e-09
9.22896e-09
8.57534e-10
2.62777e-09
-1.29852e-08
1.13297e-08
1.68096e-09
3.95378e-09
3.16469e-10
-5.35042e-10
-2.75791e-10
-4.10785e-09
2.59127e-09
-9.7251e-10
2.2077e-10
-2.59181e-10
3.84107e-11
-2.64478e-09
1.29512e-08
2.1956e-09
2.55892e-09
-2.4019e-10
-1.52407e-09
-3.89016e-10
-2.40389e-09
-4.08012e-10
1.29047e-08
9.9879e-09
-3.6628e-10
6.89587e-09
-1.22466e-09
-5.30493e-09
-9.75653e-09
-5.09936e-09
1.69597e-10
5.11724e-11
4.86731e-09
1.31496e-09
-1.7123e-08
-4.12736e-10
-8.09632e-10
-2.7431e-09
1.01071e-09
2.92034e-09
6.19367e-08
-8.66836e-11
-6.185e-08
6.23567e-08
1.88158e-10
-6.25449e-08
-1.41562e-08
-1.34512e-10
1.45214e-08
-2.30731e-10
2.98443e-09
-1.88833e-09
2.60806e-09
1.79879e-09
-4.45933e-09
-3.71404e-10
-5.54813e-10
4.49992e-10
-1.1065e-10
4.80203e-10
-3.3139e-10
1.95566e-08
1.09077e-09
-1.57801e-08
-1.87143e-10
-1.93863e-09
1.2405e-08
2.25787e-09
1.77771e-09
5.32689e-09
-2.06843e-09
-7.72336e-08
-2.41774e-08
-4.85174e-09
1.58106e-08
2.38696e-09
-2.74222e-10
-3.10217e-09
-1.17056e-09
4.35857e-10
-3.74008e-10
-1.04925e-08
-3.41597e-10
1.08341e-08
-1.07942e-08
-6.61711e-09
1.06923e-08
-9.41836e-09
8.76349e-09
1.217e-10
1.60836e-09
9.99302e-09
-9.86746e-09
-1.25561e-10
6.38565e-10
8.30259e-11
1.04876e-08
7.45716e-10
-8.84997e-10
-1.63862e-10
-1.42427e-08
-4.99464e-10
-1.37228e-08
1.25479e-08
-1.17986e-08
-6.60256e-08
6.49789e-08
1.04678e-09
2.96895e-10
-2.75275e-10
1.19097e-08
-2.70505e-10
1.1324e-11
-2.03864e-09
2.77318e-09
-3.43436e-09
-1.34849e-08
-1.63219e-09
2.57171e-09
-4.75251e-09
-1.40122e-08
1.64165e-09
5.58311e-09
9.60163e-09
-8.95314e-09
-2.96838e-10
2.63324e-11
-9.33635e-09
-1.32236e-08
1.50303e-10
-6.27021e-08
2.35973e-10
6.24661e-08
6.95439e-10
6.34379e-08
-2.24954e-10
-1.48366e-09
-1.44683e-08
1.07153e-10
-6.33895e-08
6.32824e-08
1.84801e-10
-6.29322e-08
6.27474e-08
3.96319e-10
6.18057e-08
1.51081e-10
-6.19568e-08
6.16362e-08
1.69495e-10
-8.78975e-08
8.85071e-08
-1.9685e-12
9.33987e-08
-9.31057e-08
-2.67958e-10
-8.66362e-08
-4.34784e-10
9.33573e-08
-1.83688e-10
-8.49216e-08
-7.69419e-10
9.34879e-08
1.72886e-10
-5.22908e-10
1.96089e-09
9.23639e-08
-6.93223e-08
6.21482e-08
-6.23318e-08
-6.29601e-08
6.14931e-08
1.43167e-10
-3.06632e-09
2.90928e-09
-1.40336e-08
5.72835e-11
1.12313e-10
1.59912e-09
8.81773e-09
-1.13959e-08
3.82905e-08
-3.44967e-08
-1.67067e-08
1.37809e-08
-5.02885e-11
-2.19379e-10
1.8546e-10
7.36267e-10
-1.40132e-10
3.40837e-10
4.52561e-09
1.02984e-09
-3.66664e-09
-2.24765e-10
2.69904e-10
-1.70501e-10
-2.53268e-09
1.31013e-08
2.38255e-09
-1.44435e-08
-2.60458e-09
-3.41406e-09
5.60251e-09
1.04575e-09
-2.67567e-09
1.42523e-08
-1.14522e-09
-2.36629e-09
2.88235e-09
-8.14997e-09
-1.90472e-08
-1.34016e-08
7.90649e-09
5.88355e-09
-2.52146e-10
-5.48084e-10
3.0588e-09
1.44619e-08
2.22577e-09
-1.77944e-09
-4.12e-10
4.61101e-10
-2.55361e-10
1.5987e-08
-5.47521e-10
-1.57811e-08
-8.12103e-10
-8.23405e-10
3.14149e-10
-2.38267e-10
3.47467e-09
-1.65927e-08
5.05676e-10
-1.57762e-09
-2.17431e-09
-2.36085e-09
1.55332e-08
-9.06019e-08
-1.34358e-10
9.16868e-08
-1.91414e-10
-8.91728e-08
-4.77824e-10
9.31092e-08
-2.75851e-10
-9.29201e-08
-5.66616e-10
-1.6672e-09
1.66483e-08
9.19882e-08
-1.98197e-10
2.96554e-11
-2.21435e-10
9.99292e-09
2.53433e-09
-7.80918e-09
-1.21052e-08
-5.6783e-09
8.4443e-09
1.44785e-09
-6.85023e-09
-6.0542e-09
9.01544e-09
-1.05549e-10
1.01509e-08
1.94738e-08
-1.79225e-08
3.07297e-09
-1.26299e-08
3.0621e-09
-6.99799e-08
3.95422e-09
-2.05199e-08
-1.30904e-08
-5.15817e-10
-5.96055e-09
-1.52853e-08
9.10409e-09
-1.51898e-08
4.66712e-10
3.94472e-10
-1.81047e-09
-1.64956e-08
1.69674e-08
7.5826e-09
-7.95227e-09
-4.9538e-09
1.52402e-08
-1.6934e-09
7.05534e-10
-1.1028e-09
2.32638e-10
1.19079e-08
3.31835e-09
7.09108e-08
-1.82065e-08
7.9394e-10
-1.49324e-08
-2.49864e-10
-2.928e-10
-8.55621e-11
6.09545e-08
-6.12303e-08
-6.33599e-08
-6.31304e-08
-6.33002e-11
-2.62767e-10
-9.2594e-08
-6.04543e-08
6.24152e-08
6.5089e-08
-6.02814e-08
6.45661e-08
-6.04651e-08
6.37966e-08
-6.0733e-08
6.33618e-08
9.23169e-08
3.05512e-10
-6.39894e-09
7.51096e-08
-6.53923e-08
5.2361e-11
-5.2361e-11
6.287e-10
-3.3992e-10
1.54903e-08
-4.45474e-11
4.45474e-11
3.70513e-10
1.54598e-09
1.38828e-08
1.33445e-08
-2.74951e-09
3.73464e-09
6.46098e-09
1.892e-09
3.92275e-10
-2.70481e-10
-2.97742e-09
1.45594e-08
1.48471e-08
-4.27869e-09
1.18134e-08
2.01776e-10
1.61019e-10
2.81244e-09
-8.8118e-10
-1.59868e-09
-5.84534e-09
-2.00258e-10
-4.17921e-10
1.52992e-08
2.80181e-10
8.50532e-11
1.47844e-08
-2.60757e-08
1.76662e-08
2.62783e-09
1.32308e-09
2.47892e-09
-3.72176e-09
1.92375e-08
-1.79946e-08
-9.08452e-11
3.3903e-10
-1.43981e-09
-7.92125e-08
-7.07621e-08
1.36729e-09
-6.58534e-10
6.65749e-10
2.29342e-08
1.85791e-08
-6.34924e-09
8.26701e-11
-4.34185e-09
-2.48692e-09
2.99652e-08
1.48698e-10
1.48185e-08
7.35825e-08
6.10022e-11
5.2672e-10
-1.70882e-10
-2.31374e-10
-3.70871e-09
2.41837e-08
-1.48627e-08
1.04779e-09
-1.41184e-08
-5.99518e-11
2.03553e-08
-2.86443e-08
9.23514e-10
2.07024e-09
-3.79292e-10
)
;

boundaryField
{
    back
    {
        type            empty;
        value           nonuniform 0();
    }
    ingreso
    {
        type            calculated;
        value           nonuniform List<scalar> 
14
(
-1.54286e-08
-1.54288e-08
-1.54288e-08
-1.54288e-08
-1.54286e-08
-1.54283e-08
-1.54288e-08
-1.54288e-08
-1.54286e-08
-1.54286e-08
-1.54288e-08
-1.5428e-08
-1.5428e-08
-1.54286e-08
)
;
    }
    salida
    {
        type            calculated;
        value           nonuniform List<scalar> 2(1.01411e-07 1.14589e-07);
    }
    front
    {
        type            empty;
        value           nonuniform 0();
    }
    defaultFaces
    {
        type            calculated;
        value           uniform 0;
    }
}


// ************************************************************************* //
