/*--------------------------------*- C++ -*----------------------------------*\
  =========                 |
  \\      /  F ield         | OpenFOAM: The Open Source CFD Toolbox
   \\    /   O peration     | Website:  https://openfoam.org
    \\  /    A nd           | Version:  7
     \\/     M anipulation  |
\*---------------------------------------------------------------------------*/
FoamFile
{
    version     2.0;
    format      ascii;
    class       volVectorField;
    location    "78.5";
    object      U;
}
// * * * * * * * * * * * * * * * * * * * * * * * * * * * * * * * * * * * * * //

dimensions      [0 1 -1 0 0 0 0];

internalField   nonuniform List<vector> 
591
(
(0.000832066 -1.87844e-05 1.21756e-18)
(0.000823793 -1.78262e-05 -6.63572e-19)
(0.000856903 1.40202e-06 5.71248e-20)
(0.000862317 -1.52701e-05 -1.49094e-19)
(0.000847372 -1.45602e-06 2.25556e-19)
(0.000802904 -4.02803e-05 -1.39617e-19)
(0.000564173 -0.000269701 8.06304e-19)
(0.000803772 4.46589e-06 2.09419e-18)
(0.00573241 0.00250545 9.87931e-19)
(0.000804351 -1.01223e-05 2.4525e-18)
(4.79651e-05 0.000166732 1.21825e-18)
(0.00093485 0.00138276 9.4081e-21)
(0.000800119 4.45822e-06 1.32519e-18)
(0.00159965 0.00239744 -7.87541e-19)
(0.000803416 1.99181e-06 -4.4517e-19)
(5.64541e-05 -0.000186192 2.27416e-22)
(0.000138245 0.000675792 7.04947e-19)
(0.000818202 7.17209e-05 -4.9781e-19)
(0.00191667 0.000393736 4.73924e-19)
(0.00135956 0.000252825 -2.47101e-19)
(0.000833075 -6.98067e-06 3.73212e-19)
(0.00340005 0.00655945 -8.15057e-20)
(2.59072e-05 6.80687e-05 2.70942e-19)
(0.000835825 -1.97263e-05 -4.51333e-19)
(9.49551e-06 -1.43547e-05 3.5892e-19)
(0.000779539 3.59415e-05 0)
(9.3691e-05 0.000471967 1.59965e-19)
(0.00055358 6.32437e-06 -1.78835e-19)
(0.000757096 4.69356e-05 1.14948e-18)
(0.000809695 5.85004e-05 5.87558e-19)
(5.47327e-05 -4.31406e-06 -4.6872e-24)
(2.892e-05 -4.40058e-05 3.52168e-19)
(3.37613e-05 -2.88625e-06 -4.64213e-20)
(4.28005e-05 -1.20665e-05 0)
(5.18377e-05 -1.30355e-05 1.13143e-18)
(0.00117393 0.000134439 1.79921e-19)
(2.86517e-05 -4.95506e-06 4.47134e-20)
(0.000825757 2.52045e-06 3.12363e-23)
(2.57847e-05 4.18951e-05 2.66023e-19)
(5.79842e-06 -8.76657e-05 -8.54786e-19)
(0.000646806 -0.000202326 9.59652e-19)
(2.27445e-05 -6.10758e-06 4.54813e-20)
(0.000805718 6.42596e-06 -1.58086e-18)
(0.000831833 4.56432e-05 -6.91136e-19)
(1.52406e-05 -7.08697e-06 0)
(5.26615e-05 5.88494e-06 8.5185e-20)
(0.00134699 0.00450186 8.92979e-19)
(7.33808e-05 1.41465e-05 8.63603e-20)
(0.000801322 1.62513e-05 0)
(0.000386739 -0.000216875 6.77415e-19)
(0.000384491 0.000271152 5.11905e-21)
(0.000397184 4.3725e-05 -1.00377e-18)
(0.00634791 0.0109413 -7.68585e-19)
(0.0062248 0.0107965 1.5288e-20)
(0.00561432 0.0103792 1.45592e-18)
(0.000807835 3.50094e-05 0)
(6.50513e-05 2.90628e-05 0)
(0.000317974 7.63894e-06 1.81846e-23)
(6.05669e-05 9.20827e-06 -3.4645e-19)
(0.000813878 -7.82108e-06 0)
(0.00064521 2.88811e-05 3.17555e-19)
(0.000837973 1.55226e-05 2.20749e-18)
(0.00080436 3.34111e-05 -5.39532e-19)
(0.000799876 1.35998e-05 -3.15744e-19)
(0.00171219 0.000488757 5.42791e-19)
(0.000802766 2.06986e-05 -1.15148e-18)
(0.000831771 2.52358e-05 -5.24251e-19)
(7.72038e-05 -4.12171e-06 -1.73407e-19)
(0.000688832 0.00226156 0)
(0.000840241 4.22602e-05 0)
(0.000783008 1.89264e-05 -1.39284e-18)
(3.65346e-05 1.50792e-05 0)
(0.000290226 0.000268191 3.26839e-19)
(3.75971e-05 -1.66262e-05 0)
(3.91593e-05 -5.75817e-06 1.59468e-19)
(1.21051e-05 -4.1297e-05 -3.36661e-20)
(0.000794885 7.77034e-05 2.46904e-19)
(4.2483e-05 9.85947e-06 0)
(0.000804464 5.58613e-05 4.47455e-19)
(0.000775796 0.000293601 2.10722e-19)
(0.000963456 6.42416e-05 -3.97908e-20)
(4.13536e-05 2.17946e-05 -4.51851e-20)
(4.9488e-06 -1.88721e-05 0)
(0.000436694 0.000214644 1.70182e-19)
(2.81894e-06 2.03884e-05 0)
(0.000797773 4.05681e-05 -6.06694e-19)
(0.000621191 -0.000119494 0)
(6.20311e-05 -2.74649e-06 -1.74475e-19)
(2.45467e-06 -2.59152e-05 0)
(0.000831075 0.000240849 -3.41253e-19)
(3.15294e-06 -1.10706e-05 0)
(0.000426198 0.000322245 -1.31688e-23)
(0.000534761 0.000110541 0)
(0.000810262 4.36574e-05 -3.04017e-24)
(2.52826e-06 1.26805e-05 -4.21702e-20)
(0.000460278 -1.80974e-05 1.76349e-18)
(0.00102213 7.22916e-05 4.1601e-20)
(0.000814902 4.54343e-05 6.41318e-22)
(0.000741849 0.000658205 2.69494e-19)
(6.84348e-06 4.51886e-05 0)
(-2.1209e-06 -3.64025e-05 -3.12097e-19)
(-2.79545e-05 -5.99395e-05 -1.10132e-18)
(4.48452e-06 7.29647e-05 -5.96351e-19)
(0.000610051 -2.36665e-05 0)
(8.58866e-06 9.72178e-05 0)
(0.000814813 2.85389e-05 2.18213e-18)
(0.000792078 2.79174e-05 1.53425e-18)
(0.000433579 -9.15894e-05 0)
(4.103e-05 0.000214695 -8.95356e-19)
(2.23235e-07 0.000162344 4.96738e-19)
(5.95425e-05 0.000403168 6.25228e-19)
(0.000307486 7.6931e-05 -9.37124e-19)
(0.000802455 2.01497e-05 1.37373e-19)
(0.000259932 -5.15807e-05 5.31209e-19)
(4.24053e-06 2.95599e-05 0)
(2.0411e-05 0.00028018 -1.09398e-18)
(0.000322279 0.000322116 -1.617e-19)
(-4.94066e-08 -2.96389e-05 1.46536e-19)
(0.000670141 0.000811989 0)
(0.00037031 0.000385685 5.74402e-20)
(0.000818928 2.05634e-05 1.07028e-18)
(0.000799614 1.65621e-06 -2.72283e-18)
(5.45581e-06 -2.33517e-05 0)
(0.000667247 -3.61357e-05 -1.12311e-19)
(0.000321802 -0.000126114 1.24319e-18)
(0.00263776 0.000809432 -3.36425e-19)
(6.54798e-06 0.000127058 -6.13182e-19)
(6.32345e-06 0.000155573 1.61948e-18)
(0.000690557 2.35336e-05 -3.8988e-20)
(6.01923e-05 -1.46267e-05 -7.50145e-19)
(0.000808352 3.24223e-05 -3.86868e-19)
(0.000739743 2.65946e-05 -4.10447e-20)
(3.46287e-05 0.00032631 -5.97045e-19)
(0.000491778 6.12858e-05 -4.93921e-19)
(4.5999e-05 -3.70836e-06 1.56149e-19)
(0.000836494 3.30429e-05 -1.09264e-18)
(0.00154767 0.000236331 -1.13709e-18)
(4.63036e-06 5.87301e-05 4.96419e-19)
(0.000810874 3.18286e-05 -4.98173e-19)
(0.000916828 0.000546549 -7.85085e-20)
(0.000147543 0.000785969 0)
(0.000588175 6.40657e-05 0)
(0.00027646 4.92983e-05 -1.6096e-18)
(6.15649e-05 5.61638e-05 -1.37406e-18)
(2.9351e-05 1.9399e-05 0)
(0.00424711 0.00740008 -1.01974e-20)
(0.00422543 0.007372 3.16554e-20)
(0.00442763 0.00757479 -4.97035e-21)
(0.00420645 0.00773442 0)
(0.00419888 0.00760024 5.7725e-19)
(0.00424423 0.00740142 -9.20158e-20)
(0.00421016 0.00804199 4.84473e-19)
(0.0042896 0.00742216 0)
(0.0042084 0.00853507 6.16788e-19)
(0.00432608 0.00745064 2.23933e-19)
(0.000827696 1.20138e-05 -1.37365e-18)
(0.000774242 5.59811e-05 0)
(0.000212469 4.77184e-05 1.27695e-19)
(4.81858e-05 1.44769e-05 8.71823e-20)
(7.5767e-05 4.21692e-05 6.80003e-19)
(0.000103076 3.79101e-05 -3.41661e-19)
(9.6578e-05 2.48979e-06 0)
(4.57301e-05 4.06226e-06 8.18351e-20)
(0.00020675 0.00012832 0)
(0.000163494 3.6971e-05 -5.24292e-20)
(0.00034501 0.000219631 -5.09246e-21)
(5.40311e-05 4.07934e-05 -4.37643e-19)
(8.78885e-05 2.43744e-05 -8.52451e-20)
(8.83235e-05 5.88206e-05 1.31192e-21)
(0.000257805 0.000363892 -6.66163e-19)
(0.000108223 0.000997004 0)
(4.06115e-05 5.04765e-05 3.43053e-19)
(0.000198567 0.00174821 0)
(0.0002081 0.000250729 7.04649e-19)
(3.51779e-05 -3.44097e-06 1.11492e-19)
(0.000487077 0.000162401 -1.72299e-19)
(0.000765992 2.41285e-05 -1.92409e-18)
(4.03487e-05 -1.46758e-06 4.6329e-24)
(0.00014508 2.0198e-05 2.24585e-19)
(0.000244972 8.76587e-05 -8.99311e-20)
(0.000881721 0.000700913 3.34935e-19)
(0.000725425 0.00163448 -9.23547e-21)
(0.000399448 0.00142159 -9.39332e-21)
(0.00102646 0.000546465 0)
(9.78189e-05 -1.76463e-05 1.11868e-18)
(0.000112257 1.163e-05 -4.43074e-20)
(0.000461956 -0.000283937 -1.13614e-18)
(0.000818352 4.10472e-05 0)
(0.000179381 -4.99731e-06 3.63296e-19)
(0.000301643 0.00130492 0)
(0.00108422 0.000775115 -7.30184e-20)
(0.000827079 3.17589e-05 -1.86552e-19)
(7.27269e-05 -2.22991e-05 -2.99972e-19)
(0.000833703 0.000317673 -2.08043e-20)
(5.19915e-05 -2.13304e-05 -5.99479e-19)
(0.000226759 0.000171935 8.63864e-20)
(0.000230565 0.000307319 -3.45006e-19)
(0.000890157 0.000249783 0)
(0.000819383 5.37551e-05 0)
(0.000264686 0.000131198 1.76844e-19)
(0.000233424 -5.18783e-06 4.84053e-24)
(0.000184597 0.000202962 0)
(0.000299821 0.000650755 -5.55692e-21)
(0.000352732 -1.41147e-05 0)
(0.000377003 0.000599032 0)
(0.000106825 7.88003e-05 -1.34667e-21)
(0.000810423 3.03578e-05 -9.51254e-19)
(0.000806816 1.95207e-05 7.97923e-19)
(0.000126627 5.34247e-05 -1.49853e-19)
(0.00096358 0.000148023 8.50452e-20)
(0.000838851 4.14576e-05 3.33328e-19)
(0.000819117 3.00071e-05 -2.94109e-19)
(0.00102521 0.000416814 0)
(0.000441913 0.000115715 6.24421e-19)
(0.000903606 0.00032169 2.09133e-20)
(0.000582828 0.000153905 0)
(0.000272621 0.00044648 4.09635e-19)
(0.000262114 0.000213869 -8.44163e-20)
(0.00109803 0.000380353 -7.82117e-19)
(0.000629872 0.000103423 -1.79287e-19)
(0.0008143 7.38171e-05 -7.45759e-21)
(0.000842891 2.75252e-05 9.40052e-20)
(6.84635e-05 -8.68579e-05 -1.98133e-18)
(0.000741745 0.000380782 2.19231e-19)
(0.000674678 6.54223e-05 2.3063e-20)
(0.000710529 0.000279379 1.60897e-23)
(0.000733657 0.000460541 -4.09682e-19)
(0.000848633 2.45479e-05 9.06956e-20)
(7.03021e-05 7.66946e-05 0)
(0.000659244 0.000421598 -4.6591e-20)
(0.000182875 9.08193e-05 0)
(0.000374568 0.000501742 -2.64834e-19)
(0.000310578 0.000164009 0)
(0.000678516 0.000205157 3.55218e-19)
(0.000653387 0.000259626 -4.37242e-20)
(8.05888e-05 0.000101453 6.19142e-19)
(0.000878828 9.49019e-05 -1.63115e-18)
(5.54506e-05 2.03243e-05 2.57185e-19)
(0.000890815 7.14246e-05 -1.68602e-18)
(0.000843574 8.96461e-05 1.63006e-19)
(0.000811528 3.43421e-05 1.90903e-18)
(0.000818801 3.36886e-05 -1.32846e-19)
(0.000740096 7.16748e-05 0)
(0.000805843 2.30221e-05 8.9559e-19)
(0.000964807 0.000232571 -4.27089e-19)
(0.00077879 9.64796e-05 -4.83723e-19)
(0.000780409 0.000233927 -8.81198e-20)
(0.00020659 -0.000176534 -2.07734e-18)
(0.000752818 8.01147e-05 8.87515e-19)
(0.000641522 0.000594552 0)
(7.83698e-05 -0.000119335 0)
(0.00122502 0.000472911 4.9727e-19)
(0.000597867 -6.01857e-05 -3.26868e-18)
(0.00134854 0.000414949 5.76478e-19)
(0.00124705 0.000717827 -6.389e-20)
(0.00081402 3.17888e-05 -2.12395e-19)
(0.000838845 6.69679e-05 -1.4263e-18)
(0.000815016 2.70326e-05 1.58774e-18)
(0.000816934 2.52427e-05 9.78195e-20)
(0.000671625 0.000353009 -4.40393e-20)
(0.000100542 0.000119514 6.66979e-24)
(0.000756417 -3.59829e-05 2.65054e-19)
(0.000213518 -0.000263552 -7.31955e-19)
(0.000629014 0.000184956 0)
(0.000714896 4.80663e-05 9.90367e-20)
(0.000703269 9.68347e-06 -3.80799e-19)
(0.00039178 0.00016817 3.93354e-20)
(0.000809064 0.000507958 -1.65472e-19)
(0.000147294 7.14474e-05 3.45678e-25)
(0.000814327 0.000412858 0)
(0.000983126 0.000317047 4.15759e-20)
(0.000761512 -7.10473e-05 -6.16103e-19)
(0.000350634 0.000101407 4.978e-19)
(0.000904334 0.000426852 0)
(4.74092e-05 2.96152e-05 1.33707e-19)
(0.000487535 0.00026553 2.13945e-19)
(0.000522427 -0.00015899 -7.09463e-19)
(0.000117851 -0.000167358 -1.05603e-18)
(0.000825395 3.5438e-05 -4.86766e-19)
(0.000770348 -7.89186e-05 -1.94327e-19)
(0.000547573 0.0007297 -1.17436e-18)
(0.000850453 4.71869e-05 -6.74458e-20)
(0.000605777 -1.85695e-05 1.27986e-18)
(0.000709061 9.95901e-05 2.27773e-20)
(0.00053598 0.000207474 -1.6568e-19)
(2.85297e-05 -2.06755e-05 -8.75814e-20)
(0.000161525 -4.98314e-05 2.40598e-18)
(1.60385e-05 6.56298e-07 -1.94839e-19)
(0.000833277 0.000115707 3.63733e-19)
(0.000669858 0.000135731 0)
(0.000180974 -9.49463e-05 -1.04812e-18)
(0.000117755 -2.16585e-05 3.12858e-19)
(0.000102825 -3.79146e-05 1.29807e-23)
(0.000802275 0.000105512 -3.19251e-19)
(0.000150229 -1.63813e-05 0)
(0.00058862 0.00024075 0)
(0.000111311 0.000327195 -3.62843e-19)
(0.000863802 0.000100814 2.10288e-18)
(1.3063e-05 9.58487e-07 0)
(0.000882293 5.32132e-05 0)
(4.05518e-05 -2.55782e-05 0)
(0.000815422 4.73269e-05 -4.46794e-21)
(0.000787769 -4.01927e-05 0)
(0.00426007 0.0074065 8.07088e-20)
(0.00436194 0.00748652 1.43656e-19)
(0.000843744 -9.57223e-06 0)
(0.000790816 -4.36347e-05 8.12162e-19)
(0.000152292 0.000121449 1.49205e-19)
(0.00085611 6.75979e-05 8.07723e-19)
(0.000128703 9.84274e-05 2.34388e-20)
(0.000783722 -2.6427e-05 6.24352e-19)
(3.33023e-05 8.99841e-06 0)
(2.61845e-05 -1.27931e-05 -4.48464e-20)
(0.000900463 4.87268e-05 -4.86535e-19)
(3.01684e-05 -3.07589e-05 -6.69779e-19)
(0.000760579 0.000123172 -4.23223e-20)
(0.000168645 0.000159241 -1.88094e-19)
(0.000814625 2.95024e-05 0)
(0.00468248 0.00815358 9.00697e-22)
(0.000184725 0.000789415 3.33478e-19)
(0.000110634 -6.18262e-05 -9.14495e-19)
(5.70516e-05 -3.50253e-05 -1.16872e-18)
(0.000624754 1.3504e-05 1.89837e-20)
(0.000582406 0.000406797 0)
(0.000420908 0.000443899 -2.56325e-19)
(7.76652e-05 -6.16638e-05 1.18366e-18)
(0.000583451 -7.62385e-08 7.69676e-20)
(4.01603e-05 1.57054e-06 4.0708e-19)
(0.000708578 -4.91474e-05 1.17158e-18)
(0.000811728 3.27157e-05 -6.01689e-19)
(5.94786e-05 -5.49209e-05 1.70928e-18)
(0.000842246 -3.00327e-05 -5.85831e-24)
(0.000601259 6.71235e-06 -3.76226e-20)
(0.00087033 7.05878e-05 0)
(0.000841846 4.29096e-05 0)
(0.00591738 0.00724171 2.59694e-19)
(1.66435e-05 -2.5326e-06 -1.19582e-19)
(0.000115733 -0.000106598 7.72973e-19)
(0.000728603 0.000116758 -6.96411e-19)
(1.95323e-05 7.26046e-08 2.01517e-19)
(0.000631113 -3.59989e-05 -7.23784e-19)
(0.000746821 3.65692e-05 1.55798e-18)
(0.000707482 0.000159164 -3.55425e-19)
(0.000807643 -1.23907e-05 3.60796e-19)
(7.17744e-05 -3.50553e-05 1.11595e-18)
(0.000800485 6.71321e-06 -3.22677e-19)
(0.000868767 4.02343e-05 0)
(0.00054394 0.000302961 4.21004e-20)
(0.000860399 5.09274e-05 -9.46898e-19)
(1.72844e-05 2.59472e-06 9.11306e-19)
(0.000855768 4.52867e-05 9.65635e-19)
(0.000858985 1.39917e-05 -9.64595e-19)
(0.000755125 -1.85331e-06 -5.69152e-19)
(0.00052896 -7.5969e-05 -5.25626e-19)
(0.00432901 0.00745281 2.4759e-19)
(0.00422282 0.00752925 -2.78868e-19)
(0.00422127 0.00758693 2.6675e-19)
(0.00425586 0.0074106 1.97989e-19)
(0.000844885 -3.09235e-05 1.44201e-19)
(0.00447602 0.0075129 0)
(0.00440331 0.00751705 -3.87012e-19)
(2.70338e-05 -1.26342e-07 -9.98104e-19)
(0.00417056 0.00746928 -6.33717e-20)
(0.00414592 0.00743241 -2.21528e-19)
(0.00602952 0.0106059 0)
(0.00654048 0.0111875 3.7146e-20)
(0.00600947 0.0105756 0)
(0.00655618 0.011211 1.30883e-19)
(0.00599681 0.0105995 2.69692e-19)
(0.00659287 0.0112279 1.2461e-20)
(0.00593551 0.0106123 -7.76785e-19)
(0.00662313 0.0111468 8.15119e-21)
(0.0039037 0.00919899 -1.90841e-19)
(0.00418682 0.00748854 3.87477e-21)
(0.00423784 0.00755216 7.93667e-20)
(0.0041504 0.00743469 4.12066e-20)
(0.000883645 0.000193269 4.46725e-20)
(9.19503e-06 1.30261e-06 0)
(0.000709956 -0.00011611 0)
(0.000661356 5.29169e-05 0)
(0.00244379 0.00111192 4.23318e-21)
(0.000756265 -3.14257e-05 1.72574e-19)
(3.87153e-05 5.26878e-06 4.54043e-20)
(8.78512e-06 -2.56028e-05 1.65306e-18)
(0.000853903 1.19227e-05 0)
(2.6678e-05 1.19557e-05 -1.91722e-19)
(0.000139763 0.000221141 0)
(1.58164e-05 -9.58732e-07 0)
(1.2705e-05 -1.21534e-06 0)
(0.000826986 0.000142244 1.13742e-20)
(0.000810934 -1.79541e-05 1.79459e-19)
(3.71372e-05 0.000268711 -1.39428e-23)
(0.000157304 0.000271264 -1.84189e-18)
(0.000605165 0.000328231 -8.56981e-20)
(0.000897788 0.000110009 6.01085e-19)
(0.000642631 -0.000196739 6.73703e-19)
(0.00036189 0.00111077 0)
(0.00047503 0.000575326 2.71523e-18)
(8.97027e-05 0.00014375 -1.80309e-18)
(1.99303e-05 -4.08175e-08 0)
(0.000821916 -6.00489e-05 3.63789e-20)
(1.56226e-05 3.47549e-05 1.64445e-18)
(0.000898102 3.33007e-05 2.71161e-19)
(-2.2904e-05 2.82037e-05 3.8092e-18)
(0.000929109 4.02898e-05 -2.69029e-19)
(0.00134456 0.000150938 7.47184e-19)
(3.33512e-05 -1.03667e-05 8.25689e-20)
(3.49055e-05 3.3211e-06 -8.5908e-19)
(5.07663e-05 0.000140346 0)
(0.000912503 8.26046e-05 5.98521e-19)
(0.000495088 0.000367795 2.3714e-19)
(0.000648926 1.77178e-05 -3.89121e-20)
(0.000780508 -1.96782e-06 2.57356e-19)
(0.000734823 -0.000169642 0)
(0.00632065 0.0108966 -1.68148e-19)
(0.00637903 0.0109739 4.05882e-19)
(0.00616035 0.010731 -6.18463e-19)
(0.00650152 0.0111328 -8.09921e-20)
(3.36452e-05 0.000117171 8.00522e-19)
(0.000922875 6.03074e-05 1.45387e-22)
(0.00641162 0.0110064 -3.86505e-19)
(0.00628168 0.0108464 5.48355e-19)
(0.0060804 0.0106728 -4.16815e-19)
(0.00652202 0.0111652 -6.81511e-20)
(7.98634e-05 0.000502136 -2.01812e-20)
(7.23459e-05 -0.000200692 -7.92944e-19)
(0.000663146 -2.07178e-05 -7.654e-19)
(0.00072583 0.000220032 0)
(0.000800185 3.20331e-07 0)
(0.000186912 0.000389499 3.36294e-19)
(0.000599225 0.000513286 -5.41863e-19)
(8.58496e-06 -1.47171e-06 1.78393e-19)
(0.00020063 0.000467303 -7.38388e-19)
(0.00101333 0.000974687 -1.12686e-19)
(0.000745875 0.000165898 0)
(0.00078968 0.000184261 1.3102e-19)
(0.00635365 0.00588111 1.13148e-18)
(0.000739069 0.00112874 8.26599e-20)
(3.78719e-05 3.71378e-05 -7.4468e-20)
(0.000809408 1.20337e-05 0)
(0.000873789 2.54441e-05 -3.56905e-20)
(3.32403e-05 2.94259e-06 -1.96714e-19)
(2.88073e-05 4.33478e-06 1.92993e-19)
(0.000833599 1.71985e-05 5.37214e-19)
(0.000975123 0.000110726 6.58271e-19)
(0.000558068 4.03981e-05 0)
(0.000222833 -0.000293383 -3.98097e-19)
(0.000916511 0.000145798 3.89594e-19)
(9.82193e-06 -5.77254e-05 2.03116e-19)
(0.00145181 0.000442894 -2.5818e-18)
(0.000586579 -9.08751e-06 0)
(0.000793477 0.000143507 3.75467e-19)
(9.48006e-05 0.000393299 0)
(0.00118816 0.00816122 4.62157e-19)
(0.000492022 0.000499279 -1.22454e-18)
(0.000541067 0.00101181 -1.83753e-19)
(0.000882817 1.72215e-05 -1.46055e-19)
(1.2551e-05 2.45931e-05 0)
(0.000950464 7.74525e-05 6.1168e-19)
(0.00410635 0.0073955 8.14385e-20)
(0.0041714 0.00747381 4.7317e-20)
(0.00449982 0.00751556 4.54083e-19)
(0.0044449 0.00754158 -3.29071e-19)
(0.00647545 0.0111098 8.10696e-20)
(0.00391483 0.00714608 -9.6205e-22)
(0.00550806 0.00779818 -5.64774e-19)
(0.00409787 0.0073717 5.21932e-21)
(0.00518874 0.00785787 5.11704e-19)
(0.00407968 0.00734016 -4.87268e-20)
(0.0049538 0.00771724 0)
(0.00408498 0.00736456 -8.56691e-20)
(0.00474245 0.0075883 4.9254e-19)
(0.00409825 0.00737616 8.75269e-20)
(0.00457503 0.00752792 0)
(0.00428362 0.00742072 1.39768e-19)
(0.00423945 0.00759849 5.80241e-19)
(0.0044674 0.00752702 -5.54256e-19)
(0.00438757 0.00750453 3.71377e-19)
(0.00422794 0.00752519 3.22885e-19)
(0.00643081 0.0110431 -4.97641e-21)
(0.0041178 0.00740162 3.1164e-20)
(0.00645891 0.011073 0)
(2.3255e-05 5.5267e-06 -1.89859e-19)
(0.00200002 0.00654431 2.28254e-19)
(0.00083855 -5.18336e-05 1.09828e-19)
(0.000855643 7.3737e-06 0)
(1.37524e-06 1.13878e-06 -3.99111e-19)
(-1.38779e-05 -0.00012123 6.9192e-19)
(2.41338e-05 5.57933e-05 2.08899e-18)
(0.000829959 0.000181543 -9.00714e-20)
(0.000800709 8.90843e-06 7.06389e-19)
(1.09433e-06 -8.61991e-07 3.09988e-19)
(1.74437e-05 -3.27554e-05 -1.84564e-18)
(0.000763032 2.72344e-05 1.63151e-19)
(0.000868783 0.000123957 -3.07986e-20)
(0.000800642 -8.38503e-06 1.48135e-19)
(0.000418936 0.000680069 0)
(3.51995e-05 -0.000144166 1.15144e-18)
(0.00086635 6.39316e-06 1.52518e-19)
(1.95283e-05 2.3243e-05 0)
(0.000116398 0.000558811 -6.31246e-19)
(0.000609351 0.000591556 1.31794e-18)
(0.000327004 0.000753384 0)
(0.000801546 -1.62745e-05 0)
(0.000801258 2.93124e-06 1.17536e-18)
(1.69958e-05 4.82247e-05 -3.51495e-18)
(1.60883e-05 6.83995e-06 3.73621e-19)
(0.000116315 0.00014343 0)
(4.27599e-05 -4.04727e-05 0)
(6.12042e-05 0.000111233 2.00999e-19)
(0.00093787 0.000188926 3.50431e-19)
(0.00080011 1.5242e-05 -1.39846e-18)
(2.23795e-05 3.24084e-05 0)
(0.00044658 7.73802e-06 -6.04239e-20)
(0.000800921 3.77849e-05 -1.56346e-19)
(0.000843869 3.86577e-05 1.06407e-18)
(0.000257137 0.000542056 6.32231e-19)
(0.000877996 0.000156744 0)
(1.75764e-05 -2.27926e-05 5.38632e-19)
(2.26796e-06 -4.94429e-06 -3.19965e-19)
(0.000969377 3.2278e-05 0)
(0.00103777 0.00226672 0)
(0.000928805 -3.17252e-06 0)
(0.00100294 0.000207557 4.27177e-19)
(0.000817798 -3.51784e-05 -2.84165e-19)
(0.000933415 0.00010942 -6.84773e-19)
(0.000800828 3.38076e-06 0)
(4.16142e-05 6.76629e-05 -1.71566e-19)
(0.000174467 0.00032621 1.08114e-18)
(0.000799639 1.43143e-05 -2.06346e-23)
(0.00109425 0.000209842 -6.68892e-19)
(0.00108988 0.000126622 0)
(2.37546e-06 5.69904e-06 2.51029e-19)
(1.75032e-05 -1.47125e-05 -1.94313e-19)
(0.000568678 4.1483e-05 6.95011e-21)
(5.82204e-06 -7.57372e-05 0)
(0.00106503 0.000255013 9.50036e-19)
(0.00502873 0.00974867 -2.83038e-19)
(0.00312133 0.00961775 1.27266e-18)
(3.58103e-05 -0.000102963 -1.91337e-19)
(5.11529e-05 -7.44004e-05 1.85949e-18)
(0.00119055 0.000249266 1.67345e-19)
(0.00132818 0.00107874 2.34087e-19)
(0.000811099 9.64785e-07 -7.33359e-19)
(0.000197214 0.000951049 -2.38239e-19)
(0.000816462 0.000939128 -2.18585e-19)
(0.000800129 -2.52203e-06 0)
(8.36516e-05 0.000621245 0)
(9.52276e-05 0.000281296 -3.8886e-23)
(0.000718914 -4.4162e-05 -1.67788e-23)
(0.000823812 6.7197e-05 1.52608e-19)
(0.00263078 0.00206275 -1.23128e-18)
(0.00175982 0.00923787 -1.17224e-19)
(0.000834816 5.85156e-05 4.92256e-19)
(0.00632636 0.00404971 -1.76008e-19)
(0.0067211 0.0115578 -1.3649e-20)
(0.00473412 0.00784389 4.93024e-21)
(0.000802781 1.36329e-05 -2.19077e-18)
(0.000838673 6.20886e-06 5.95286e-24)
(7.98687e-06 -7.07964e-06 -3.48018e-19)
(4.61842e-05 8.84722e-05 -3.4928e-19)
(6.52949e-05 0.000268221 8.75242e-19)
(1.05381e-05 1.56232e-05 4.90409e-19)
(8.9651e-05 0.000228859 3.69767e-19)
(0.000822052 2.13261e-05 0)
(0.00534812 0.00949246 1.95037e-20)
(0.00153656 0.000636582 -2.61239e-20)
(0.000819801 3.66639e-05 3.60178e-19)
(3.0165e-05 -8.03613e-05 0)
(0.00184778 0.000745675 5.45993e-19)
(8.97473e-06 7.18774e-06 -2.70156e-19)
(3.32099e-05 2.77367e-05 9.71828e-20)
(0.00133024 0.00139697 6.36618e-19)
(0.00073695 4.87757e-05 1.83104e-19)
(4.22679e-06 -1.43436e-06 -1.70204e-19)
(0.00206172 0.0015605 -1.05587e-18)
(0.000126515 0.000177493 -8.18759e-19)
(0.00392126 0.00848716 -1.09089e-18)
(4.95792e-06 1.43806e-06 8.81433e-20)
(0.000124696 -9.85701e-05 -1.25726e-18)
(4.55799e-05 -5.68032e-05 4.05647e-20)
(0.00152583 0.0009845 0)
(0.00104026 0.00013859 -4.04298e-22)
(0.000453472 0.000848585 -4.02039e-20)
(0.000802936 2.75932e-05 -2.3408e-19)
(8.70784e-05 0.000183687 7.36072e-19)
(2.89694e-05 -6.00212e-05 4.0401e-19)
(1.79535e-05 1.47752e-05 -9.47109e-20)
(3.09211e-05 9.09665e-05 -3.20292e-19)
(0.000208991 -0.000235334 -5.4525e-19)
(0.00325008 0.00346183 2.89106e-21)
)
;

boundaryField
{
    back
    {
        type            empty;
    }
    ingreso
    {
        type            fixedValue;
        value           uniform (0.0008 0 0);
    }
    salida
    {
        type            zeroGradient;
    }
    front
    {
        type            empty;
    }
    defaultFaces
    {
        type            noSlip;
    }
}


// ************************************************************************* //
