/*--------------------------------*- C++ -*----------------------------------*\
  =========                 |
  \\      /  F ield         | OpenFOAM: The Open Source CFD Toolbox
   \\    /   O peration     | Website:  https://openfoam.org
    \\  /    A nd           | Version:  7
     \\/     M anipulation  |
\*---------------------------------------------------------------------------*/
FoamFile
{
    version     2.0;
    format      ascii;
    class       surfaceScalarField;
    location    "36.5";
    object      phi;
}
// * * * * * * * * * * * * * * * * * * * * * * * * * * * * * * * * * * * * * //

dimensions      [0 3 -1 0 0 0 0];

internalField   nonuniform List<scalar> 
1111
(
6.2365e-09
1.3314e-08
-1.55841e-08
-3.96638e-09
6.3807e-09
-1.16827e-08
1.15385e-08
-1.46539e-08
4.72005e-09
9.5688e-09
3.65008e-10
3.02494e-10
-3.66268e-10
-1.40865e-08
1.41503e-08
-1.39735e-08
1.3763e-08
5.13006e-10
-1.54495e-09
1.48626e-08
2.11091e-09
-4.04053e-09
9.71288e-09
-1.10014e-08
5.32904e-09
-6.63199e-09
-1.25821e-08
1.25426e-08
6.67145e-09
-5.07939e-08
-2.57515e-08
7.65453e-08
-8.07801e-09
7.51423e-09
6.94448e-09
3.66345e-09
3.49204e-10
-3.73697e-09
-2.75683e-10
1.56709e-08
-1.57983e-08
-2.28951e-08
2.30224e-08
-9.6186e-09
-8.05615e-09
8.82513e-09
8.84962e-09
-3.50522e-08
1.745e-08
-3.21111e-08
4.97132e-08
9.55024e-09
-1.90973e-09
-1.42725e-08
-2.62616e-09
3.06659e-09
-3.78873e-09
3.3483e-09
-3.70336e-09
1.31907e-08
1.95776e-09
-1.14451e-08
8.88037e-09
-2.20904e-09
-1.50382e-08
8.36688e-09
3.8035e-08
-3.08265e-08
-7.20846e-09
-1.92252e-08
-5.35573e-11
1.75346e-08
1.74407e-09
-5.63221e-10
3.91948e-09
-1.79393e-08
1.45831e-08
-6.12885e-08
-3.9561e-09
6.52446e-08
1.8221e-10
-1.35538e-09
-3.87749e-10
1.56092e-09
-1.13468e-09
-1.3402e-08
-2.21002e-10
-3.46306e-10
3.23398e-10
2.4391e-10
-9.987e-09
-8.08346e-09
1.23823e-08
5.68821e-09
7.84214e-10
-2.17987e-09
-8.50731e-09
9.90297e-09
7.82756e-09
1.02009e-09
-8.64732e-09
-2.00327e-10
-2.81722e-09
-7.77832e-09
1.07858e-08
-1.90269e-10
1.13346e-08
-4.14583e-10
-2.03967e-09
-1.06118e-09
1.03231e-09
1.08455e-10
-7.9583e-11
-3.60965e-10
9.32053e-10
5.28076e-10
-1.09916e-09
-6.55757e-10
-4.44903e-11
6.98436e-10
1.81187e-12
3.02661e-11
-1.08822e-09
9.16972e-11
9.66257e-10
-3.88873e-11
-9.92027e-10
6.93621e-10
-1.82783e-08
-1.64043e-09
-5.64144e-10
6.35345e-11
-1.55148e-10
1.3382e-08
-1.33092e-08
3.84671e-09
-4.59128e-10
6.71608e-10
4.40204e-10
-6.52683e-10
-6.18603e-10
-2.53094e-09
1.92648e-09
1.22306e-09
-2.10751e-09
9.11753e-09
-1.10505e-08
-4.29815e-10
-2.16813e-10
8.24849e-11
-8.79242e-09
1.00595e-08
-9.34507e-09
1.18181e-08
-1.68878e-08
5.10674e-09
-3.70738e-11
1.03919e-10
-2.3093e-10
-3.02804e-10
2.92107e-10
9.40883e-10
-2.00681e-10
-5.9854e-08
7.43557e-08
-1.45017e-08
1.18559e-09
-3.95688e-10
-1.37383e-09
5.83928e-10
1.0575e-09
1.02853e-08
-1.36964e-08
2.35368e-09
-6.01362e-10
6.80209e-09
-8.22872e-09
2.028e-09
-6.41468e-09
5.8152e-09
5.44774e-09
-4.84826e-09
-6.99572e-09
-2.33461e-09
2.20833e-09
7.122e-09
-1.86279e-10
-9.09045e-08
9.12972e-08
-2.0644e-10
-2.54848e-10
-8.97531e-08
9.01582e-08
-1.50285e-10
8.30686e-08
-1.50458e-09
1.1366e-10
-8.16777e-08
-3.22834e-09
-9.08884e-11
8.51199e-10
9.47079e-10
-6.12684e-10
4.07374e-09
-1.79992e-09
3.26706e-09
-5.54087e-09
-1.15162e-09
1.04804e-09
-1.49861e-08
6.59697e-09
9.16945e-09
9.96067e-10
-9.85423e-09
-3.11291e-10
-6.3039e-09
1.27949e-08
1.50292e-09
-7.99392e-09
1.42443e-08
-3.97763e-09
3.21676e-09
-1.34834e-08
1.54103e-08
1.73929e-09
-1.72077e-09
-5.2269e-10
-1.98494e-08
-7.2374e-09
2.76095e-08
1.36626e-08
-8.21077e-09
-2.27037e-09
7.58955e-09
-1.16231e-08
-1.38712e-10
2.84869e-10
-1.51999e-09
-3.69165e-08
-2.29375e-08
7.94596e-09
-1.28416e-11
3.88499e-09
-6.90067e-09
1.0686e-08
6.27411e-09
-7.19602e-10
4.14721e-10
5.81718e-10
-2.76837e-10
5.95771e-09
-4.5985e-09
3.53491e-09
-4.89413e-09
-6.74667e-10
-7.34678e-10
3.21124e-10
8.46265e-10
-7.99058e-10
-1.93844e-10
-1.19893e-09
1.03181e-09
-1.74772e-08
2.50339e-09
1.4341e-09
1.35398e-08
3.1536e-10
-8.47365e-10
-1.87597e-10
-3.78223e-09
-1.4725e-08
1.02998e-09
5.67522e-09
1.17013e-08
-5.24504e-09
-1.21315e-08
1.64216e-08
5.49344e-10
-1.58891e-08
-1.08179e-09
-8.06014e-10
5.73745e-10
6.4699e-10
-9.4625e-10
5.11173e-10
4.35077e-10
-7.06336e-09
-3.81951e-09
4.46819e-09
-4.06619e-10
5.86551e-10
-1.79932e-10
1.32151e-09
-1.50907e-08
-7.53855e-10
8.80781e-09
-1.01615e-08
-1.18188e-09
-1.14009e-09
1.25215e-08
4.39892e-09
-4.15386e-09
-1.27666e-08
2.90171e-10
6.94223e-09
-7.63284e-09
6.50581e-09
-1.96903e-09
-8.42424e-09
7.75674e-09
2.63653e-09
-1.7836e-09
5.88829e-10
-1.35302e-08
-2.49311e-10
-1.57308e-10
-4.93836e-10
1.25217e-09
-7.75406e-09
7.71497e-10
1.72553e-08
-1.60528e-09
-1.42737e-08
1.54853e-08
-1.21162e-09
1.19218e-08
1.40677e-08
-1.56238e-08
-1.03657e-08
-8.49716e-10
1.43043e-09
-5.80712e-10
1.40864e-09
-1.79936e-09
3.90727e-10
2.41796e-09
-3.47034e-09
1.05237e-09
1.92964e-09
-1.61264e-09
-3.17001e-10
-1.17902e-08
3.21807e-10
1.14684e-08
2.66632e-09
-7.36675e-10
8.85404e-09
-1.5102e-08
6.53387e-09
-7.62906e-09
8.85252e-11
4.00389e-09
-4.28962e-10
-3.01552e-09
3.10405e-09
-7.52907e-09
8.87784e-09
-1.34877e-09
-9.01271e-10
4.09074e-09
8.84265e-10
1.71227e-08
-1.4528e-08
-1.53721e-09
-5.41655e-09
5.13933e-09
-1.5227e-09
-2.63165e-10
6.74486e-09
-6.74962e-09
4.76032e-12
7.07038e-09
4.33508e-09
2.68543e-10
-1.57399e-08
1.03654e-08
1.72962e-08
5.68085e-09
8.33176e-09
8.23282e-09
-6.77186e-09
7.58069e-10
-1.25482e-08
1.34161e-09
4.39249e-11
-1.27589e-08
3.5465e-09
-4.42451e-10
1.35022e-08
-1.29528e-08
-1.1067e-10
-1.11009e-09
-1.36576e-08
7.1107e-09
9.39513e-10
-5.28388e-11
-8.94162e-09
5.2645e-09
-3.13492e-08
-1.25683e-08
-2.39238e-09
1.30307e-09
1.37261e-08
1.09788e-08
-1.06511e-08
-1.40537e-08
1.62771e-08
-3.11786e-09
-1.31592e-08
1.7653e-09
3.83952e-09
-1.47373e-09
-9.93548e-10
-1.04815e-09
1.37753e-09
6.64173e-10
-3.09944e-10
4.41309e-10
4.50354e-10
6.21822e-08
-6.21849e-08
2.72983e-12
6.21209e-08
-6.24117e-08
2.90803e-10
8.32424e-10
6.4758e-08
-6.5585e-08
8.27049e-10
6.41524e-08
6.0557e-10
-2.29531e-10
-6.65321e-08
9.4706e-10
-6.20176e-08
6.18896e-08
1.28023e-10
1.32368e-09
-6.78558e-08
-6.21794e-08
1.61846e-10
1.20684e-08
-1.16144e-09
1.78257e-09
-3.74012e-09
3.119e-09
4.5023e-10
-1.31391e-09
1.17157e-09
-8.44751e-10
1.51302e-09
-1.79395e-09
1.12568e-09
1.57474e-09
-1.7473e-09
4.57429e-10
-1.08532e-10
-3.31577e-09
3.10766e-09
-2.37624e-09
2.58435e-09
-8.93989e-10
-2.90074e-09
2.63329e-09
-3.89819e-09
-5.54856e-09
6.67984e-10
-7.69059e-10
1.47817e-09
1.20641e-09
-6.61866e-09
8.02203e-09
2.93171e-09
2.0545e-08
-4.26795e-09
-8.39792e-10
3.04681e-10
1.2031e-09
-1.02348e-08
-2.66817e-08
5.49439e-09
-4.50561e-09
-3.09276e-09
2.10398e-09
1.38975e-10
9.72669e-12
5.49734e-10
-2.84795e-09
3.54133e-09
8.59593e-09
9.32401e-10
-6.02218e-10
2.24489e-09
-2.53666e-09
2.30632e-09
1.46817e-08
1.3112e-08
-2.67985e-08
3.22346e-08
6.13672e-09
-2.27507e-08
-1.01845e-08
1.79556e-08
-1.75946e-08
1.06178e-08
-2.85817e-10
-1.48149e-12
-1.46e-09
-1.93874e-09
-2.34189e-09
3.82606e-09
1.46336e-08
-5.94189e-10
-1.34506e-08
7.4516e-11
-2.88242e-09
-9.2837e-11
1.52641e-08
1.73732e-08
1.35496e-08
7.25866e-10
-1.53179e-09
-1.27436e-08
-1.91648e-09
5.98703e-09
1.22097e-08
-8.2781e-10
-1.27431e-09
-3.50773e-09
2.72892e-09
3.88648e-09
2.41063e-09
1.41019e-08
4.12109e-09
-1.3824e-08
1.73676e-08
-1.70402e-09
2.88933e-09
-3.66281e-09
1.88612e-09
-4.50891e-09
1.28021e-08
-1.19965e-08
-1.38272e-08
6.18551e-10
8.69979e-09
-1.92892e-09
1.62811e-09
1.77899e-09
-8.77695e-09
5.0034e-10
-4.29166e-09
-6.00435e-09
1.21309e-08
-1.49035e-08
1.44165e-09
1.64935e-09
-2.13595e-09
1.63311e-08
-1.58445e-08
-9.71476e-10
1.39268e-08
2.68833e-09
-3.96787e-09
-1.38225e-08
7.25699e-09
-1.69117e-08
-7.93981e-09
6.47108e-09
5.83111e-09
1.42578e-08
-9.48213e-09
3.17107e-09
8.94759e-09
9.82597e-09
3.8769e-09
-4.10041e-09
2.1384e-08
-1.87336e-08
4.60657e-09
-9.98946e-09
2.27264e-09
5.33447e-09
1.34673e-08
-7.63809e-11
1.24534e-08
-1.33485e-08
-1.66858e-09
2.54181e-09
-1.69531e-09
8.22078e-10
1.07495e-08
-6.35292e-09
7.30473e-09
-1.039e-08
1.39661e-09
-4.75588e-09
1.11774e-08
-1.16665e-08
-7.43335e-09
8.9448e-09
9.23808e-09
1.25648e-08
9.56646e-10
-1.35978e-08
1.7289e-09
8.55045e-10
-1.08408e-08
-6.72304e-09
1.01305e-08
-1.7824e-09
2.52516e-09
-8.72804e-09
4.72678e-09
-5.10927e-09
1.12313e-08
-3.48947e-09
-1.13997e-08
3.65791e-09
-4.53322e-09
1.10086e-08
2.14146e-09
1.21555e-09
-5.03411e-09
-1.74578e-08
1.04024e-08
1.20895e-08
8.85586e-10
-1.071e-08
-9.65482e-09
1.53307e-08
1.21635e-08
2.70208e-09
-9.53107e-09
-1.31875e-08
-2.74405e-10
-1.24503e-08
2.85866e-10
-6.31104e-10
1.1131e-08
1.23694e-08
-8.08846e-09
1.61437e-08
-1.54742e-08
3.45161e-09
-4.78193e-10
1.6608e-09
1.23571e-08
-3.85692e-09
-1.24284e-08
-5.12287e-09
6.64126e-10
4.50267e-09
1.18761e-08
-7.45672e-09
7.77769e-10
-1.17503e-09
1.69066e-09
-2.18421e-09
6.07295e-09
2.59289e-08
-6.191e-10
-1.24719e-08
1.3091e-08
2.79443e-08
-2.19249e-08
2.20027e-08
1.91903e-08
-1.25016e-08
-2.58478e-09
1.48076e-08
1.29691e-10
-1.20222e-08
-2.98442e-10
-6.01641e-09
-1.98343e-09
2.41166e-09
1.71323e-09
1.12781e-10
-1.07253e-08
1.08365e-08
-2.23952e-10
2.42564e-09
-5.52052e-09
-1.05487e-08
1.02303e-08
-6.75506e-10
-1.03456e-08
-1.96367e-11
-1.05101e-08
-2.89699e-09
-1.17787e-08
2.29254e-09
7.73571e-09
5.06306e-09
2.20251e-10
-1.14701e-08
1.13626e-08
6.90272e-10
-8.44057e-09
5.27593e-09
-8.53429e-10
2.72702e-09
-3.23792e-09
-1.29223e-08
-1.33049e-08
1.29061e-08
-9.99169e-09
-1.58134e-08
1.00652e-08
9.02162e-09
8.4702e-10
2.589e-09
-1.50609e-08
1.08245e-08
1.7032e-09
4.04835e-09
3.89312e-10
-6.34636e-10
-4.29342e-10
-4.01702e-09
2.72068e-09
-1.58608e-09
3.74832e-10
-4.37695e-10
6.28631e-11
-2.50159e-09
1.25446e-08
2.12041e-09
2.54844e-09
-1.03705e-09
-1.84904e-09
-9.11805e-11
-2.58827e-09
-7.20769e-10
1.26265e-08
9.74539e-09
-5.17114e-10
7.12017e-09
-1.18885e-09
-5.41421e-09
-9.65404e-09
-5.10165e-09
2.93029e-10
8.18031e-11
4.61214e-09
1.38247e-09
-1.67046e-08
-6.20547e-10
-9.4194e-10
-2.28987e-09
8.12383e-10
2.59809e-09
6.19468e-08
-1.09624e-10
-6.18371e-08
6.23336e-08
1.93197e-10
-6.25268e-08
-1.41732e-08
1.0237e-10
1.45268e-08
-4.56059e-10
2.66646e-09
-2.0881e-09
2.82583e-09
1.78742e-09
-4.3775e-09
-5.44606e-10
-6.58949e-10
5.34454e-10
-1.52342e-10
6.33081e-10
-4.60582e-10
1.89437e-08
1.12084e-09
-1.54524e-08
-3.23129e-10
-1.96116e-09
1.2117e-08
2.20132e-09
1.74737e-09
5.10975e-09
-1.80955e-09
-7.71925e-08
-2.41876e-08
-4.8061e-09
1.56732e-08
2.3236e-09
-7.93712e-10
-3.38063e-09
-1.39271e-09
7.26784e-10
-6.08389e-10
-1.23585e-08
-3.06706e-10
1.26652e-08
-1.06098e-08
-6.66666e-09
1.05534e-08
-9.24291e-09
8.84663e-09
-1.6236e-10
1.91046e-09
1.18365e-08
-1.15707e-08
-2.65816e-10
7.61519e-10
6.23508e-11
9.71246e-09
1.10436e-09
-1.18631e-09
-3.68757e-10
-1.42176e-08
-5.22e-10
-1.3374e-08
1.20906e-08
-1.14339e-08
-6.60159e-08
6.4962e-08
1.05392e-09
4.92756e-10
-4.8303e-10
1.16181e-08
-4.57808e-10
2.01133e-11
-1.93994e-09
2.76684e-09
-3.3726e-09
-1.35232e-08
-1.67431e-09
2.57512e-09
-4.68189e-09
-1.37847e-08
1.76193e-09
5.61755e-09
9.40376e-09
-8.72989e-09
-4.87321e-10
2.95133e-11
-9.36118e-09
-1.2674e-08
1.54183e-10
-6.27257e-08
2.27056e-10
6.24987e-08
6.95844e-10
6.34566e-08
-2.38184e-10
-8.99258e-10
-1.4322e-08
1.12956e-10
-6.33793e-08
6.32663e-08
1.8364e-10
-6.29169e-08
6.27332e-08
5.5517e-10
6.18248e-08
1.54222e-10
-6.19791e-08
6.1655e-08
1.69871e-10
-8.78868e-08
8.84981e-08
-5.65915e-12
9.33652e-08
-9.30695e-08
-2.93023e-10
-8.66272e-08
-4.32631e-10
9.3338e-08
-2.02309e-10
-8.49102e-08
-7.69908e-10
9.34638e-08
1.64952e-10
-5.17932e-10
1.95986e-09
9.23364e-08
-6.93604e-08
6.21761e-08
-6.23624e-08
-6.29806e-08
6.15175e-08
1.37486e-10
-2.98407e-09
2.69395e-09
-1.35339e-08
8.84274e-11
2.04601e-10
2.30551e-09
9.59891e-09
-1.1808e-08
3.81889e-08
-3.44318e-08
-1.6516e-08
1.38836e-08
-8.50267e-11
-2.18053e-10
3.06824e-10
9.34978e-10
-1.86497e-10
4.11007e-10
4.66923e-09
1.04787e-09
-3.83099e-09
-4.17683e-10
4.81217e-10
-3.35198e-10
-2.40553e-09
1.27386e-08
2.21161e-09
-1.44427e-08
-2.33191e-09
-3.72023e-09
5.69252e-09
1.08069e-09
-2.46134e-09
1.4108e-08
-1.24427e-09
-4.16106e-09
6.25064e-09
-7.97125e-09
-1.90474e-08
-1.2999e-08
7.65673e-09
5.96083e-09
-3.20381e-10
-5.17964e-10
3.25e-09
1.43588e-08
1.83918e-09
-1.33538e-09
-4.80702e-10
5.19594e-10
-3.02057e-10
1.59489e-08
-4.5697e-10
-1.57986e-08
-3.74469e-09
-2.35181e-09
2.8758e-10
-2.27826e-10
4.1084e-09
-1.7923e-08
6.47035e-10
-1.71551e-09
-2.34184e-09
-2.33766e-09
1.52071e-08
-9.05845e-08
-1.36322e-10
9.16874e-08
-1.97029e-10
-8.91641e-08
-4.76011e-10
9.30791e-08
-2.8113e-10
-9.29075e-08
-6.40503e-10
-1.81169e-09
1.61491e-08
9.19958e-08
-1.99176e-10
2.97465e-11
-2.28579e-10
1.08356e-08
2.25431e-09
-9.45845e-09
-1.18655e-08
-5.61604e-09
8.46363e-09
1.38238e-09
-6.9143e-09
-6.40101e-09
9.07481e-09
-2.31278e-10
1.01607e-08
1.92316e-08
-1.76567e-08
3.0183e-09
-1.24223e-08
3.01212e-09
-7.00383e-08
4.02233e-09
-2.03281e-08
-1.27515e-08
-6.08648e-10
-5.83033e-09
-1.53872e-08
9.19537e-09
-1.51998e-08
5.82121e-10
4.92642e-10
-1.49829e-09
-1.61189e-08
1.66865e-08
9.09344e-09
-9.18433e-09
-5.48318e-09
1.49162e-08
-1.64335e-09
8.35124e-10
-1.47604e-09
5.45647e-10
1.22033e-08
3.41549e-09
7.09402e-08
-1.79339e-08
9.3874e-10
-1.46292e-08
-3.07421e-10
-3.53213e-10
-1.9766e-10
6.09743e-08
-6.12554e-08
-6.33495e-08
-6.3116e-08
-5.24231e-11
-2.6208e-10
-9.2593e-08
-6.04153e-08
6.23752e-08
6.50757e-08
-6.02504e-08
6.45577e-08
-6.04527e-08
6.37878e-08
-6.07457e-08
6.33552e-08
9.23275e-08
3.87949e-10
-6.50707e-09
7.50216e-08
-6.5099e-08
1.1282e-10
-1.1282e-10
1.86974e-09
-3.79086e-10
1.54938e-08
-1.28744e-10
1.28744e-10
4.90632e-10
1.51271e-09
1.39161e-08
1.29657e-08
-2.72477e-09
3.71067e-09
6.36482e-09
1.93984e-09
4.66042e-10
-3.32154e-10
-2.8909e-09
1.43608e-08
1.48147e-08
-4.30668e-09
1.16793e-08
2.65759e-10
2.10618e-10
2.98269e-09
-1.02225e-09
-1.76679e-09
-5.94455e-09
-1.33828e-10
-4.88697e-10
1.52199e-08
3.68114e-10
1.61427e-10
1.61789e-08
-2.5755e-08
1.72177e-08
2.56501e-09
1.47952e-09
2.23463e-09
-3.54715e-09
1.89588e-08
-1.76462e-08
-1.3649e-10
8.41173e-10
-1.44378e-09
-7.918e-08
-7.08041e-08
1.46758e-09
-1.09168e-09
7.27447e-10
2.28635e-08
1.83708e-08
-6.49205e-09
1.58794e-10
-4.49231e-09
-2.10814e-09
2.98874e-08
1.36083e-10
1.48173e-08
7.3563e-08
1.02534e-10
5.67772e-10
-2.2105e-10
-2.8947e-10
-3.8734e-09
2.41562e-08
-1.4769e-08
1.21708e-09
-1.40308e-08
-9.17813e-11
2.01309e-08
-2.84962e-08
8.99078e-10
2.50595e-09
-6.63562e-10
)
;

boundaryField
{
    back
    {
        type            empty;
        value           nonuniform 0();
    }
    ingreso
    {
        type            calculated;
        value           nonuniform List<scalar> 
14
(
-1.54286e-08
-1.54288e-08
-1.54288e-08
-1.54288e-08
-1.54286e-08
-1.54283e-08
-1.54288e-08
-1.54288e-08
-1.54286e-08
-1.54286e-08
-1.54288e-08
-1.5428e-08
-1.5428e-08
-1.54286e-08
)
;
    }
    salida
    {
        type            calculated;
        value           nonuniform List<scalar> 2(1.0138e-07 1.1462e-07);
    }
    front
    {
        type            empty;
        value           nonuniform 0();
    }
    defaultFaces
    {
        type            calculated;
        value           uniform 0;
    }
}


// ************************************************************************* //
