/*--------------------------------*- C++ -*----------------------------------*\
  =========                 |
  \\      /  F ield         | OpenFOAM: The Open Source CFD Toolbox
   \\    /   O peration     | Website:  https://openfoam.org
    \\  /    A nd           | Version:  7
     \\/     M anipulation  |
\*---------------------------------------------------------------------------*/
FoamFile
{
    version     2.0;
    format      ascii;
    class       volVectorField;
    location    "36.5";
    object      U;
}
// * * * * * * * * * * * * * * * * * * * * * * * * * * * * * * * * * * * * * //

dimensions      [0 1 -1 0 0 0 0];

internalField   nonuniform List<vector> 
591
(
(0.00081155 -4.0863e-05 1.22009e-18)
(0.000792128 -3.37511e-05 -6.62904e-19)
(0.000852696 -5.13782e-05 5.71583e-20)
(0.000841107 3.66106e-06 -1.48802e-19)
(0.000824946 1.61836e-05 2.24332e-19)
(0.000788539 -3.64733e-05 -1.38426e-19)
(0.000541757 -0.000366877 8.03936e-19)
(0.000796745 -1.82822e-06 2.07174e-18)
(0.00575709 0.00248907 9.88082e-19)
(0.000785697 -1.78453e-05 2.42709e-18)
(5.64404e-05 0.000177095 1.21889e-18)
(0.000900349 0.00133219 9.40906e-21)
(0.000792462 9.75431e-06 1.28938e-18)
(0.00158238 0.00236983 -7.87906e-19)
(0.00079964 1.21941e-05 -4.38262e-19)
(0.000111029 -0.000244789 2.545e-22)
(0.000132367 0.000671439 7.05706e-19)
(0.000826906 3.03446e-05 -4.88155e-19)
(0.00196288 0.000375208 4.7328e-19)
(0.00134864 0.000271272 -2.47353e-19)
(0.000831199 5.93984e-06 3.72544e-19)
(0.00340472 0.00656958 -8.08185e-20)
(3.38008e-05 7.52475e-05 2.71179e-19)
(0.000826474 2.30033e-06 -4.51471e-19)
(1.6658e-05 -2.13911e-05 3.59225e-19)
(0.000757417 2.65376e-05 0)
(9.04634e-05 0.000479931 1.60087e-19)
(0.000519547 2.67902e-05 -1.79017e-19)
(0.00074642 5.23185e-05 1.14614e-18)
(0.000820297 1.98415e-05 5.81614e-19)
(6.5362e-05 -1.5276e-06 -3.35375e-24)
(4.33825e-05 -5.25345e-05 3.52515e-19)
(4.44162e-05 -3.93104e-06 -4.6437e-20)
(5.29774e-05 -1.05511e-05 0)
(6.1531e-05 -1.41961e-05 1.13225e-18)
(0.00116685 0.000128048 1.80074e-19)
(3.83263e-05 -6.84997e-06 4.47575e-20)
(0.000824432 1.59015e-05 3.96407e-23)
(3.27519e-05 4.95124e-05 2.66279e-19)
(4.79516e-05 -0.000138705 -8.5565e-19)
(0.000575758 -0.000194533 9.58868e-19)
(3.16064e-05 -8.91371e-06 4.55259e-20)
(0.00079196 -5.94338e-06 -1.56529e-18)
(0.000823162 2.40007e-05 -6.80734e-19)
(2.25275e-05 -1.07106e-05 0)
(6.14963e-05 1.01365e-05 8.52672e-20)
(0.0013269 0.00451736 8.93706e-19)
(8.35909e-05 2.16002e-05 8.64424e-20)
(0.000793336 2.31637e-05 0)
(0.000368151 -0.000159127 6.78484e-19)
(0.000372235 0.000279635 5.12352e-21)
(0.000385849 6.8089e-05 -1.00474e-18)
(0.00634819 0.0109411 -7.68877e-19)
(0.00622435 0.0107967 1.53127e-20)
(0.00561218 0.0103785 1.45679e-18)
(0.000809241 1.35317e-06 0)
(7.29099e-05 3.653e-05 0)
(0.000321772 3.01758e-05 9.30422e-24)
(7.00007e-05 1.44155e-05 -3.46782e-19)
(0.000825035 -6.55361e-06 0)
(0.000614083 2.70408e-05 3.17885e-19)
(0.000817704 -2.17175e-06 2.21287e-18)
(0.000779616 7.42959e-06 -5.42614e-19)
(0.000791456 1.95971e-05 -3.1391e-19)
(0.00171819 0.000483122 5.43717e-19)
(0.000786096 8.41498e-07 -1.14335e-18)
(0.000817066 -8.16056e-07 -5.24719e-19)
(9.11737e-05 2.4383e-06 -1.73573e-19)
(0.000676393 0.00229226 0)
(0.000819104 2.02261e-05 0)
(0.000757784 1.65884e-05 -1.37796e-18)
(4.2739e-05 1.90092e-05 0)
(0.000282697 0.000276205 3.27121e-19)
(4.85774e-05 -1.97096e-05 0)
(4.87703e-05 -6.69921e-06 1.59622e-19)
(2.86311e-05 -5.39587e-05 -3.36999e-20)
(0.000771088 6.61959e-05 2.47348e-19)
(4.95985e-05 1.33655e-05 0)
(0.000786338 5.68657e-05 4.46642e-19)
(0.000753852 0.000298245 2.10922e-19)
(0.000963349 5.95261e-05 -3.9835e-20)
(4.78417e-05 2.69628e-05 -4.52285e-20)
(7.24193e-06 -3.77937e-05 0)
(0.000422419 0.000223225 1.70335e-19)
(2.4868e-06 3.13122e-05 0)
(0.000763707 2.50896e-05 -6.09363e-19)
(0.000566873 -0.000116841 0)
(7.29191e-05 1.67735e-06 -1.74641e-19)
(5.4755e-06 -5.08597e-05 0)
(0.000812648 0.000247827 -3.41595e-19)
(5.1187e-06 -2.32743e-05 0)
(0.000415195 0.000324632 -1.26147e-23)
(0.000513372 0.000116304 0)
(0.000793956 4.96325e-05 -2.39774e-24)
(3.07587e-06 2.07894e-05 -4.22108e-20)
(0.00043731 3.21208e-06 1.76526e-18)
(0.00102114 7.36275e-05 4.16453e-20)
(0.000919376 4.03606e-05 6.41093e-22)
(0.000726829 0.000655238 2.69734e-19)
(5.45946e-06 6.14751e-05 0)
(7.31288e-06 -9.16787e-05 -3.1267e-19)
(7.3213e-06 -0.000172045 -1.09915e-18)
(2.28494e-06 9.57239e-05 -5.96541e-19)
(0.000683982 -9.28611e-06 0)
(5.8039e-06 0.000122352 0)
(0.000793254 1.03899e-05 2.22546e-18)
(0.000767557 2.12483e-05 1.5162e-18)
(0.00040386 -4.42065e-05 0)
(5.02473e-05 0.000229389 -8.95741e-19)
(-1.52499e-06 0.000196231 4.96613e-19)
(7.53295e-05 0.000450113 6.25535e-19)
(0.000296893 0.000103916 -9.37886e-19)
(0.000804271 1.53726e-05 1.36335e-19)
(0.000265505 -1.39002e-05 5.31717e-19)
(3.47008e-06 4.30161e-05 0)
(3.27247e-05 0.000309941 -1.09439e-18)
(0.000314076 0.000328802 -1.61839e-19)
(6.95414e-06 -7.06354e-05 1.46732e-19)
(0.000660059 0.000799951 0)
(0.0003604 0.000392289 5.74898e-20)
(0.000804992 1.78758e-06 1.07194e-18)
(0.0007884 -6.32726e-06 -2.6871e-18)
(9.0232e-06 -0.000116869 0)
(0.000720753 -2.09852e-05 -1.12438e-19)
(0.000319003 -7.22578e-05 1.24443e-18)
(0.0026814 0.000793071 -3.36052e-19)
(7.87399e-07 0.0001539 -6.13383e-19)
(-4.9675e-06 0.000188809 1.61987e-18)
(0.000796207 1.873e-05 -3.89522e-20)
(7.16175e-05 -9.17404e-06 -7.50875e-19)
(0.000788844 2.52452e-05 -3.90168e-19)
(0.000844411 2.72041e-05 -4.10218e-20)
(5.23917e-05 0.000360734 -5.97021e-19)
(0.000470854 8.05967e-05 -4.9438e-19)
(5.60355e-05 -2.27335e-06 1.56301e-19)
(0.000819143 5.52463e-06 -1.0777e-18)
(0.00160459 0.00021634 -1.13701e-18)
(2.06188e-06 7.57296e-05 4.96614e-19)
(0.000801081 6.97121e-06 -4.97881e-19)
(0.000887423 0.00053937 -7.85803e-20)
(0.00013204 0.000827852 0)
(0.000561262 6.73603e-05 0)
(0.000271488 6.30787e-05 -1.61118e-18)
(6.76979e-05 6.42835e-05 -1.37536e-18)
(3.45955e-05 2.36559e-05 0)
(0.00424671 0.00740549 -8.52363e-21)
(0.00422801 0.00738065 3.18023e-20)
(0.00443073 0.00758349 -5.18844e-21)
(0.00420743 0.00773641 0)
(0.00420029 0.00760112 5.77679e-19)
(0.00424633 0.00740758 -7.76739e-20)
(0.0042107 0.00804456 4.84698e-19)
(0.0042871 0.00741949 0)
(0.00420777 0.00853985 6.17112e-19)
(0.00432525 0.00744621 2.16603e-19)
(0.000807916 -3.05311e-06 -1.37111e-18)
(0.000753702 5.0079e-05 0)
(0.00021797 6.69383e-05 1.27801e-19)
(5.57188e-05 1.93118e-05 8.7266e-20)
(8.30365e-05 5.08977e-05 6.80646e-19)
(0.000111962 4.84538e-05 -3.41981e-19)
(0.000107532 1.24065e-05 0)
(5.42281e-05 7.10199e-06 8.19094e-20)
(0.000204604 0.000143623 0)
(0.000170672 5.51412e-05 -5.24724e-20)
(0.000337053 0.000230003 -5.09689e-21)
(6.01402e-05 4.80925e-05 -4.38061e-19)
(9.67093e-05 3.39417e-05 -8.53261e-20)
(9.50396e-05 6.85745e-05 1.31314e-21)
(0.000248752 0.00037157 -6.66731e-19)
(0.000123723 0.0010459 0)
(4.5684e-05 5.75058e-05 3.43379e-19)
(0.000202666 0.00178647 0)
(0.000206457 0.000259694 7.05263e-19)
(4.4088e-05 -5.28324e-06 1.11482e-19)
(0.00046973 0.000169322 -1.72453e-19)
(0.00074732 2.89028e-05 -1.92013e-18)
(4.84617e-05 -3.57003e-07 4.09636e-24)
(0.000155255 3.4881e-05 2.24791e-19)
(0.000240414 0.000105156 -9.00138e-20)
(0.000876158 0.000709241 3.35219e-19)
(0.000739476 0.00161981 -9.22396e-21)
(0.000380724 0.00141654 -9.43035e-21)
(0.00101513 0.000557969 0)
(0.000111897 -1.10543e-05 1.1198e-18)
(0.000123958 2.51697e-05 -4.43558e-20)
(0.000429258 -0.000266998 -1.13665e-18)
(0.000802461 2.99834e-05 0)
(0.00018496 2.12774e-05 3.63616e-19)
(0.000297868 0.00133495 0)
(0.00104214 0.000756203 -7.30825e-20)
(0.000820627 3.96804e-05 -1.86381e-19)
(8.78984e-05 -1.87213e-05 -3.00273e-19)
(0.000809899 0.000316008 -2.08242e-20)
(7.04708e-05 -2.19637e-05 -6.0008e-19)
(0.000226173 0.000182989 8.64622e-20)
(0.000226665 0.000312602 -3.45306e-19)
(0.000871678 0.000239715 0)
(0.000797675 4.66001e-05 0)
(0.000259509 0.000149504 1.77002e-19)
(0.000234924 1.70704e-05 1.6789e-24)
(0.0001847 0.000212774 0)
(0.000282667 0.000651029 -5.56121e-21)
(0.000333537 1.54274e-05 0)
(0.000345872 0.000600367 0)
(0.000113775 9.03325e-05 -1.34793e-21)
(0.000810051 8.06154e-06 -9.37491e-19)
(0.000812723 5.21036e-06 7.79164e-19)
(0.000133421 6.68594e-05 -1.49992e-19)
(0.00094136 0.000152935 8.51598e-20)
(0.000825341 4.77782e-05 3.32992e-19)
(0.00080096 1.76376e-05 -2.95271e-19)
(0.000996532 0.000404183 0)
(0.000428438 0.000127292 6.25012e-19)
(0.000883843 0.000316013 2.09334e-20)
(0.000558184 0.000163598 0)
(0.000272562 0.000443142 4.09978e-19)
(0.000259171 0.00022511 -8.44903e-20)
(0.00109246 0.000376966 -7.82609e-19)
(0.00060211 0.000113297 -1.79465e-19)
(0.000792857 7.66389e-05 -7.45995e-21)
(0.000825502 2.74199e-05 9.35477e-20)
(0.000100684 -9.04969e-05 -1.9832e-18)
(0.000727451 0.000381156 2.19428e-19)
(0.000646856 6.37111e-05 2.30797e-20)
(0.000692579 0.000275986 1.56813e-23)
(0.000716111 0.000452303 -4.09889e-19)
(0.000833639 3.94537e-05 9.07266e-20)
(7.59208e-05 8.76526e-05 0)
(0.00064273 0.000416304 -4.66082e-20)
(0.000185072 0.000106731 0)
(0.000369372 0.000504523 -2.65047e-19)
(0.000309367 0.000177147 0)
(0.000661621 0.000202614 3.55566e-19)
(0.000634643 0.000264956 -4.37657e-20)
(8.31381e-05 0.000109136 6.19724e-19)
(0.000871357 0.000102315 -1.63489e-18)
(6.33146e-05 2.6129e-05 2.57431e-19)
(0.000870224 5.21826e-05 -1.65781e-18)
(0.000821428 7.53362e-05 1.61819e-19)
(0.000797872 1.96951e-05 1.92894e-18)
(0.000794748 1.79107e-05 -1.31477e-19)
(0.000714252 7.42862e-05 0)
(0.000808155 3.2734e-05 8.81314e-19)
(0.000935851 0.000231857 -4.27521e-19)
(0.000752919 8.16924e-05 -4.83845e-19)
(0.000767102 0.000226682 -8.82081e-20)
(0.000234545 -0.000124486 -2.08125e-18)
(0.000723078 8.85937e-05 8.87201e-19)
(0.000633485 0.000595897 0)
(0.00012092 -0.000103697 0)
(0.00119153 0.000468301 4.97622e-19)
(0.00073765 -8.62635e-05 -3.23476e-18)
(0.00131005 0.000428446 5.7609e-19)
(0.00124686 0.000714991 -6.39866e-20)
(0.000792452 4.44637e-05 -2.12504e-19)
(0.000821152 7.14263e-05 -1.42262e-18)
(0.000810395 1.74391e-05 1.56815e-18)
(0.000807665 2.64159e-05 9.68319e-20)
(0.000662901 0.000345954 -4.408e-20)
(0.000105481 0.000135119 7.46808e-24)
(0.000724226 -5.87328e-05 2.65354e-19)
(0.000240456 -0.000214493 -7.36269e-19)
(0.000606347 0.000190398 0)
(0.000684778 2.81537e-05 9.91388e-20)
(0.000662408 9.76408e-06 -3.81188e-19)
(0.000380041 0.00017822 3.93679e-20)
(0.000787286 0.000498567 -1.65617e-19)
(0.000153789 8.57458e-05 2.52974e-25)
(0.000803102 0.000397505 0)
(0.000963013 0.000321982 4.16172e-20)
(0.000732703 -9.30624e-05 -6.16887e-19)
(0.000340064 0.000114504 4.98189e-19)
(0.000894109 0.000419544 0)
(5.41734e-05 3.55717e-05 1.33835e-19)
(0.000470485 0.000272723 2.14137e-19)
(0.000455938 -0.000108416 -7.0987e-19)
(0.000171726 -0.000138518 -1.06002e-18)
(0.000811418 1.65851e-05 -4.76419e-19)
(0.000797738 -0.00011188 -1.93661e-19)
(0.000563561 0.000722387 -1.17537e-18)
(0.00083209 4.60346e-05 -6.70062e-20)
(0.000720819 -3.32552e-05 1.261e-18)
(0.000673752 9.876e-05 2.28005e-20)
(0.000515403 0.000216942 -1.65829e-19)
(3.96344e-05 -2.46315e-05 -8.76642e-20)
(0.000188487 -2.84451e-05 2.40833e-18)
(2.72823e-05 9.53038e-07 -1.94994e-19)
(0.000796321 9.66138e-05 3.61796e-19)
(0.000639303 0.000139427 0)
(0.000200454 -5.91882e-05 -1.04902e-18)
(0.000129783 -5.16058e-06 3.1319e-19)
(0.00012703 -3.18804e-05 1.20452e-24)
(0.00078334 0.000113153 -3.18856e-19)
(0.000159168 -4.80067e-06 0)
(0.000571832 0.000243905 0)
(0.000111204 0.00033791 -3.63159e-19)
(0.000846865 9.91588e-05 2.10473e-18)
(2.22247e-05 1.62732e-06 0)
(0.000855867 4.4259e-05 0)
(5.20401e-05 -2.66715e-05 0)
(0.000810867 3.14907e-05 -4.45123e-21)
(0.000802219 -6.24832e-05 0)
(0.0042569 0.00740625 8.08134e-20)
(0.00436213 0.00748346 1.43794e-19)
(0.00084111 4.84923e-06 0)
(0.000762018 -5.71565e-05 8.13496e-19)
(0.000153892 0.000134132 1.49339e-19)
(0.000843319 7.5493e-05 7.97686e-19)
(0.000133733 0.000110719 2.34606e-20)
(0.000759464 -4.2656e-05 6.26699e-19)
(3.94761e-05 1.17977e-05 0)
(3.52576e-05 -1.63899e-05 -4.489e-20)
(0.000875134 5.22717e-05 -4.85851e-19)
(4.34472e-05 -3.5415e-05 -6.70346e-19)
(0.000741175 0.000119103 -4.23583e-20)
(0.000167873 0.000171418 -1.88262e-19)
(0.000809764 1.62323e-05 0)
(0.00468214 0.00815123 8.80331e-22)
(0.000166739 0.000783799 3.33967e-19)
(0.000133527 -4.90945e-05 -9.15363e-19)
(7.21294e-05 -3.51931e-05 -1.1698e-18)
(0.00073336 1.7692e-05 1.89946e-20)
(0.000572541 0.000413746 0)
(0.000404779 0.000436341 -2.56546e-19)
(0.000105505 -5.33927e-05 1.1847e-18)
(0.000691155 2.68613e-06 7.66566e-20)
(4.7479e-05 2.55714e-06 4.07445e-19)
(0.000659904 -5.97422e-05 1.17284e-18)
(0.000806535 2.881e-05 -5.97347e-19)
(8.40466e-05 -5.52042e-05 1.71063e-18)
(0.000837888 -3.53563e-06 -3.92667e-24)
(0.000709322 9.56862e-06 -3.76903e-20)
(0.000855626 5.95485e-05 0)
(0.000814849 3.32073e-05 0)
(0.00592503 0.00723973 2.5901e-19)
(2.85832e-05 5.88286e-08 -1.19669e-19)
(0.000164743 -8.22285e-05 7.73584e-19)
(0.000709829 0.000121536 -6.97133e-19)
(3.26056e-05 -6.53516e-07 2.01639e-19)
(0.000580639 -2.57984e-05 -7.24544e-19)
(0.000725509 2.7657e-05 1.55963e-18)
(0.000689686 0.000155766 -3.55771e-19)
(0.0008051 -1.75035e-05 3.54802e-19)
(9.21914e-05 -2.98521e-05 1.11708e-18)
(0.00078821 9.12137e-06 -3.1974e-19)
(0.000854126 4.80455e-05 0)
(0.000529119 0.000302814 4.2139e-20)
(0.000840982 4.5223e-05 -9.36221e-19)
(2.86056e-05 3.96433e-07 9.11767e-19)
(0.000833653 4.20808e-05 9.54158e-19)
(0.000842096 -1.31426e-05 -9.60162e-19)
(0.000714612 5.46322e-06 -5.69751e-19)
(0.000490681 -5.43864e-05 -5.26161e-19)
(0.00432796 0.00744992 2.39494e-19)
(0.00422594 0.00753178 -2.79024e-19)
(0.00422281 0.00758844 2.67484e-19)
(0.00425606 0.00741465 1.98113e-19)
(0.000844587 -7.69747e-06 1.4387e-19)
(0.00447549 0.00750956 0)
(0.0044025 0.00751556 -3.86886e-19)
(4.24317e-05 -2.55147e-07 -9.98323e-19)
(0.00417137 0.00747268 -6.34306e-20)
(0.00414689 0.00743462 -2.21888e-19)
(0.00602859 0.0106047 0)
(0.00653702 0.0111878 3.72604e-20)
(0.00600834 0.0105745 0)
(0.00655353 0.0112082 1.30055e-19)
(0.00599547 0.0105984 2.69922e-19)
(0.00659066 0.0112248 1.24773e-20)
(0.00593392 0.0106118 -7.77308e-19)
(0.00662245 0.0111441 8.25203e-21)
(0.00390179 0.00920413 -1.91062e-19)
(0.00418884 0.00749212 3.82523e-21)
(0.00424028 0.00755478 7.9407e-20)
(0.00415232 0.00743678 4.12738e-20)
(0.000853918 0.000181188 4.47183e-20)
(1.61286e-05 2.26506e-06 0)
(0.000663278 -0.000147612 0)
(0.000710723 3.68072e-05 0)
(0.00243848 0.00111471 4.20302e-21)
(0.00074009 -2.7757e-05 1.71207e-19)
(4.60132e-05 7.52463e-06 4.54482e-20)
(1.81891e-05 -3.25877e-05 1.65402e-18)
(0.000838635 2.16055e-05 0)
(3.18219e-05 1.51898e-05 -1.91906e-19)
(0.000143995 0.000230393 0)
(2.89484e-05 -1.28768e-06 0)
(2.39849e-05 -1.91971e-06 0)
(0.000800599 0.000125407 1.13565e-20)
(0.000811045 -5.67738e-06 1.77736e-19)
(3.35233e-05 0.000304219 -1.46827e-23)
(0.000160784 0.000277864 -1.84351e-18)
(0.000592758 0.000336555 -8.57755e-20)
(0.000890133 0.000127688 6.02289e-19)
(0.000704516 -0.000358568 6.718e-19)
(0.000336821 0.00111379 0)
(0.000455287 0.000564041 2.71718e-18)
(9.51959e-05 0.00015335 -1.80359e-18)
(3.46693e-05 4.32133e-07 0)
(0.000819163 -3.52695e-05 3.60984e-20)
(1.98942e-05 4.21209e-05 1.64602e-18)
(0.00089812 2.64575e-05 2.71539e-19)
(3.92552e-05 -0.000134899 3.78319e-18)
(0.000926345 4.00898e-05 -2.69338e-19)
(0.00139339 0.000137067 7.48053e-19)
(4.32761e-05 -1.22553e-05 8.26496e-20)
(4.35697e-05 6.74777e-06 -8.5961e-19)
(4.8916e-05 0.000153437 0)
(0.000892514 8.03352e-05 5.97512e-19)
(0.000486606 0.000370067 2.37345e-19)
(0.00075717 1.74661e-05 -3.88935e-20)
(0.000757016 -1.35412e-05 2.56841e-19)
(0.000720262 -0.000222336 0)
(0.00632018 0.0108976 -1.68267e-19)
(0.0063785 0.010974 4.06141e-19)
(0.0061593 0.0107288 -6.18875e-19)
(0.00649946 0.0111321 -8.1121e-20)
(3.96143e-05 0.000124068 8.01269e-19)
(0.000895669 5.7405e-05 1.5393e-22)
(0.00641133 0.011005 -3.86844e-19)
(0.00628132 0.010845 5.48597e-19)
(0.00607984 0.010673 -4.15611e-19)
(0.00652101 0.0111655 -6.81736e-20)
(8.75985e-05 0.000545986 -2.02043e-20)
(0.000147881 -0.000194238 -7.93227e-19)
(0.000748367 -1.12653e-05 -7.60052e-19)
(0.000712702 0.000220577 0)
(0.000790687 2.0978e-06 0)
(0.000184174 0.000393589 3.36583e-19)
(0.000596073 0.000543844 -5.41935e-19)
(1.75433e-05 -2.69044e-06 1.78569e-19)
(0.00020797 0.000464337 -7.39017e-19)
(0.00100246 0.000974476 -1.12809e-19)
(0.000728726 0.000170253 0)
(0.000776285 0.000172844 1.3115e-19)
(0.0063686 0.00587492 1.13019e-18)
(0.000725294 0.00113974 8.28033e-20)
(4.34404e-05 4.30124e-05 -7.45401e-20)
(0.000815741 3.80375e-05 0)
(0.000874174 2.33109e-05 -3.5729e-20)
(4.18659e-05 5.4025e-06 -1.96845e-19)
(3.6027e-05 6.84568e-06 1.93148e-19)
(0.000823232 2.21909e-05 5.36392e-19)
(0.000960527 0.000104135 6.59182e-19)
(0.000651129 3.82922e-05 0)
(0.000220301 -0.000311598 -3.98139e-19)
(0.000897548 0.000147043 3.90015e-19)
(3.18108e-05 -7.87024e-05 2.03315e-19)
(0.00144163 0.00038134 -2.58642e-18)
(0.000681612 -1.40437e-06 0)
(0.000779581 0.000142891 3.75813e-19)
(9.14046e-05 0.000406359 0)
(0.00118131 0.00816843 4.62181e-19)
(0.000470074 0.000506426 -1.2251e-18)
(0.000542386 0.000976982 -1.83904e-19)
(0.000866744 2.3845e-05 -1.45881e-19)
(1.74447e-05 2.9651e-05 0)
(0.000918735 7.41052e-05 6.12363e-19)
(0.00410772 0.00739814 8.15379e-20)
(0.00417306 0.00747702 4.73878e-20)
(0.00449884 0.00751308 4.54441e-19)
(0.00444401 0.0075405 -3.27006e-19)
(0.00647377 0.011108 8.12063e-20)
(0.00391025 0.00714197 -9.42846e-22)
(0.00551107 0.00779495 -5.65021e-19)
(0.00409255 0.00736754 5.23378e-21)
(0.00518959 0.0078553 5.11939e-19)
(0.00407391 0.00733754 -4.89872e-20)
(0.00495379 0.00771322 0)
(0.00408098 0.0073673 -8.58212e-20)
(0.00474177 0.00758604 4.92879e-19)
(0.00409901 0.00737928 8.76425e-20)
(0.00457416 0.00752422 0)
(0.00428099 0.00741838 1.39988e-19)
(0.00424075 0.00760014 5.81795e-19)
(0.00446703 0.00752522 -5.5116e-19)
(0.00438671 0.00750268 3.71565e-19)
(0.00423113 0.00752814 3.2304e-19)
(0.00642909 0.0110409 -4.93746e-21)
(0.00411966 0.00740435 3.12097e-20)
(0.00645685 0.0110701 0)
(2.92221e-05 8.39089e-06 -1.90041e-19)
(0.00198491 0.00653592 2.28601e-19)
(0.000844294 -1.66601e-05 1.09828e-19)
(0.000856748 1.74618e-05 0)
(3.26191e-06 3.22976e-06 -3.99494e-19)
(5.54445e-05 -0.000191761 6.92358e-19)
(2.46759e-05 6.3523e-05 2.09093e-18)
(0.000811558 0.000183168 -9.01577e-20)
(0.000787467 1.17109e-05 6.99269e-19)
(3.6504e-06 -3.64819e-06 3.10293e-19)
(2.58754e-05 -4.21501e-05 -1.84726e-18)
(0.000750661 2.66667e-05 1.6334e-19)
(0.000852641 0.000128424 -3.07522e-20)
(0.00078536 -8.54758e-06 1.46885e-19)
(0.000402597 0.000663254 0)
(0.000106182 -0.000152956 1.15213e-18)
(0.000846068 1.6771e-05 1.52418e-19)
(2.29143e-05 2.7874e-05 0)
(0.000105668 0.000567006 -6.31726e-19)
(0.000605329 0.000602221 1.31901e-18)
(0.000337426 0.000730883 0)
(0.000785353 -1.6625e-05 0)
(0.000787556 1.67917e-05 1.16917e-18)
(2.25118e-05 5.3758e-05 -3.51823e-18)
(2.07038e-05 1.00181e-05 3.7398e-19)
(0.000114245 0.000154523 0)
(5.95485e-05 -4.41448e-05 0)
(6.84183e-05 0.000120656 2.01187e-19)
(0.000913966 0.000174558 3.5079e-19)
(0.000796795 7.43553e-06 -1.38013e-18)
(2.59882e-05 3.83603e-05 0)
(0.000551772 4.23251e-05 -6.02823e-20)
(0.000794429 3.69721e-05 -1.54756e-19)
(0.000826633 1.96623e-05 1.04077e-18)
(0.000255996 0.000546364 6.32765e-19)
(0.000845229 0.000149697 0)
(2.86946e-05 -3.01913e-05 5.39197e-19)
(4.23213e-06 -1.25183e-05 -3.2028e-19)
(0.00106299 1.90959e-05 0)
(0.00102506 0.00222676 0)
(0.0010179 -3.61254e-05 0)
(0.000985047 0.000196368 4.27621e-19)
(0.000815323 -2.08155e-05 -2.81902e-19)
(0.000905149 0.000119229 -6.85486e-19)
(0.0007892 5.81969e-06 0)
(4.40983e-05 7.65587e-05 -1.71728e-19)
(0.000173205 0.000331023 1.08208e-18)
(0.00079075 3.1428e-05 1.09926e-23)
(0.00106911 0.000194751 -6.69031e-19)
(0.00108497 0.000118106 0)
(3.5248e-06 1.1142e-05 2.5127e-19)
(2.46911e-05 -1.99788e-05 -1.94501e-19)
(0.000646435 3.12979e-05 6.89052e-21)
(3.94966e-05 -0.000105402 0)
(0.00103231 0.000247932 9.50816e-19)
(0.00502758 0.00974622 -2.83652e-19)
(0.00311773 0.00962268 1.27368e-18)
(7.73857e-05 -0.00011932 -1.91535e-19)
(7.93539e-05 -8.20094e-05 1.86142e-18)
(0.00118967 0.000225811 1.67016e-19)
(0.00133263 0.00106715 2.34288e-19)
(0.000822625 4.72335e-06 -7.35272e-19)
(0.000215346 0.000944243 -2.39103e-19)
(0.000789374 0.00089211 -2.18765e-19)
(0.0007915 -6.49135e-06 0)
(9.66677e-05 0.000672101 0)
(9.7881e-05 0.000287182 -4.68146e-23)
(0.00074054 -2.61148e-05 -1.78717e-23)
(0.000808945 3.56325e-05 1.50503e-19)
(0.0026177 0.00205142 -1.23223e-18)
(0.00175515 0.00924193 -1.17309e-19)
(0.000826112 2.99014e-05 4.80449e-19)
(0.00634964 0.00403782 -1.75616e-19)
(0.0067203 0.0115523 -1.37461e-20)
(0.00472982 0.00783836 4.95493e-21)
(0.000799505 2.75185e-05 -2.17576e-18)
(0.000823644 3.08571e-05 -3.7033e-24)
(1.43853e-05 -1.1263e-05 -3.48359e-19)
(4.83194e-05 9.82766e-05 -3.4961e-19)
(7.79859e-05 0.000282105 8.76453e-19)
(1.4851e-05 1.98398e-05 4.90881e-19)
(9.05654e-05 0.0002399 3.70099e-19)
(0.000820267 3.51416e-05 0)
(0.00535106 0.00949435 1.93711e-20)
(0.00153902 0.000609184 -2.61963e-20)
(0.00082121 2.4033e-05 3.5582e-19)
(5.88497e-05 -9.36937e-05 0)
(0.00184165 0.000754614 5.46367e-19)
(1.30639e-05 1.05317e-05 -2.70416e-19)
(3.85054e-05 3.32879e-05 9.72763e-20)
(0.0013147 0.00137446 6.36997e-19)
(0.000747354 3.5662e-05 1.83312e-19)
(1.08777e-05 -3.07963e-06 -1.70372e-19)
(0.00205105 0.00154504 -1.05724e-18)
(0.000127725 0.000187592 -8.19479e-19)
(0.0039222 0.00847914 -1.09139e-18)
(9.94781e-06 2.72512e-06 8.82279e-20)
(0.000193443 -0.000272078 -1.24892e-18)
(6.44339e-05 -6.07031e-05 4.06052e-20)
(0.00151637 0.000965909 0)
(0.00102233 0.000142489 -4.20888e-22)
(0.000448124 0.000854868 -4.02545e-20)
(0.000801638 2.09655e-05 -2.31606e-19)
(8.70677e-05 0.000194112 7.36483e-19)
(4.92806e-05 -7.08586e-05 4.04431e-19)
(2.16471e-05 1.8533e-05 -9.4802e-20)
(3.73776e-05 0.000102927 -3.20591e-19)
(0.00019765 -0.000345227 -5.4062e-19)
(0.00323837 0.00343679 2.92535e-21)
)
;

boundaryField
{
    back
    {
        type            empty;
    }
    ingreso
    {
        type            fixedValue;
        value           uniform (0.0008 0 0);
    }
    salida
    {
        type            zeroGradient;
    }
    front
    {
        type            empty;
    }
    defaultFaces
    {
        type            noSlip;
    }
}


// ************************************************************************* //
