# Residuals   
# Time        	p             	Ux            	Uy            
0             	N/A	N/A
0.0119048     	1.000000e+00	1.000000e+00	1.000000e+00
0.0258503     	1.388193e-01	5.023617e-01	2.945326e-01
0.0422003     	1.062273e-01	4.053441e-01	2.112467e-01
0.0612753     	2.362213e-01	8.803560e-02	3.603934e-02
0.0832115     	1.932252e-01	1.876005e-02	8.621376e-03
0.109261      	9.799244e-02	6.636764e-03	4.930744e-03
0.139318      	6.974119e-02	4.583068e-03	3.558234e-03
0.175386      	4.368715e-02	4.264204e-03	2.864593e-03
0.215963      	2.753483e-02	3.734003e-03	2.643946e-03
0.263302      	2.404639e-02	3.632444e-03	2.435191e-03
0.310642      	1.988760e-02	3.053519e-03	2.037853e-03
0.357981      	1.703175e-02	2.711780e-03	1.747079e-03
0.405321      	1.472292e-02	2.411662e-03	1.558443e-03
0.45266       	1.266575e-02	2.194122e-03	1.403577e-03
0.5           	4.321689e-02	2.225298e-03	4.773656e-03
0.555556      	6.458508e-02	5.519931e-03	7.691620e-03
0.619048      	5.631604e-02	6.333242e-03	1.098754e-02
0.695238      	7.147345e-02	1.036139e-02	1.491874e-02
0.771429      	8.244349e-02	1.070479e-02	2.200123e-02
0.847619      	9.322636e-02	1.752872e-02	2.467302e-02
0.92381       	6.668148e-02	1.710201e-02	2.561709e-02
1             	6.138055e-02	1.957494e-02	2.656533e-02
1.08333       	4.613345e-02	2.164898e-02	2.490724e-02
1.16667       	6.351885e-02	1.918292e-02	3.112413e-02
1.25          	6.318802e-02	2.523980e-02	3.178043e-02
1.33333       	4.962095e-02	2.372927e-02	3.156602e-02
1.41667       	5.085317e-02	2.533043e-02	3.123398e-02
1.5           	4.652735e-02	2.477828e-02	3.077581e-02
1.6           	4.550784e-02	2.999329e-02	2.160833e-02
1.7           	9.625378e-02	1.905277e-02	3.840634e-02
1.8           	1.038234e-01	3.396342e-02	3.691728e-02
1.9           	7.013388e-02	2.746930e-02	3.492225e-02
2             	6.654108e-02	3.055129e-02	3.339658e-02
2.1           	5.963110e-02	2.749540e-02	3.161508e-02
2.2           	5.253420e-02	2.841549e-02	3.020823e-02
2.3           	5.261051e-02	2.650989e-02	2.874580e-02
2.4           	5.831438e-02	2.600194e-02	2.796525e-02
2.5           	6.128885e-02	2.526953e-02	2.700926e-02
2.6           	5.946831e-02	2.495875e-02	2.630469e-02
2.7           	6.964103e-02	2.394075e-02	2.543455e-02
2.8           	7.202475e-02	2.307156e-02	2.469104e-02
2.9           	6.170753e-02	2.229411e-02	2.499557e-02
3             	7.718207e-02	2.235161e-02	2.652439e-02
3.1           	6.925274e-02	2.325332e-02	2.730631e-02
3.2           	7.253955e-02	2.397108e-02	2.839099e-02
3.3           	7.019934e-02	2.481813e-02	2.936185e-02
3.4           	6.275738e-02	2.529137e-02	2.937681e-02
3.45          	2.176240e-01	1.244291e-02	5.135948e-02
3.5           	1.589878e-01	3.833972e-02	2.742789e-02
3.55556       	1.199004e-01	1.830936e-02	1.968376e-02
3.61905       	6.175800e-02	1.963037e-02	1.885576e-02
3.68254       	5.761185e-02	1.662211e-02	2.028834e-02
3.74603       	5.377187e-02	1.991473e-02	2.013463e-02
3.80952       	3.950492e-02	1.900265e-02	1.889402e-02
3.87302       	4.066866e-02	1.876954e-02	1.864004e-02
3.93651       	3.970931e-02	1.812584e-02	1.791519e-02
4             	3.973361e-02	1.750907e-02	1.722683e-02
4.0625        	4.352406e-02	1.661156e-02	1.714054e-02
4.125         	3.222626e-02	1.654548e-02	1.582559e-02
4.1875        	3.874330e-02	1.575282e-02	1.524672e-02
4.23958       	8.233537e-02	1.258045e-02	1.794507e-02
4.29167       	4.756320e-02	1.655046e-02	1.343167e-02
4.34375       	3.915492e-02	1.272084e-02	1.277006e-02
4.39583       	3.080124e-02	1.264764e-02	1.182205e-02
4.44792       	3.158310e-02	1.228647e-02	1.171709e-02
4.5           	3.870322e-02	1.210605e-02	1.152174e-02
4.54545       	6.956150e-02	1.008794e-02	1.256394e-02
4.59091       	4.148803e-02	1.225276e-02	1.053766e-02
4.63636       	3.232412e-02	1.038042e-02	1.010646e-02
4.67677       	5.583311e-02	8.937723e-03	1.018853e-02
4.71717       	3.665418e-02	1.055777e-02	9.191820e-03
4.75758       	3.315393e-02	9.393298e-03	9.103958e-03
4.79798       	3.539429e-02	9.318858e-03	8.721100e-03
4.83165       	7.415728e-02	7.329912e-03	9.304389e-03
4.86532       	4.804798e-02	9.451772e-03	8.427897e-03
4.89899       	3.492441e-02	7.966680e-03	8.263678e-03
4.93266       	3.033412e-02	7.489713e-03	8.452189e-03
4.96633       	2.976521e-02	7.104776e-03	8.339622e-03
5             	3.595694e-02	6.644546e-03	8.464280e-03
5.03571       	4.391397e-02	6.652540e-03	9.495480e-03
5.0744        	3.926702e-02	6.573735e-03	1.050514e-02
5.11696       	4.253202e-02	7.384577e-03	1.225334e-02
5.15952       	6.165542e-02	7.777436e-03	1.419823e-02
5.20208       	6.248878e-02	9.164164e-03	1.407390e-02
5.24464       	5.213209e-02	9.990608e-03	1.286647e-02
5.2872        	4.667941e-02	1.067986e-02	1.302299e-02
5.32976       	3.834328e-02	1.102816e-02	1.252715e-02
5.37232       	3.648544e-02	1.131550e-02	1.246821e-02
5.41488       	3.958381e-02	1.157001e-02	1.209266e-02
5.45744       	4.752368e-02	1.204064e-02	1.270496e-02
5.5           	3.625553e-02	1.341527e-02	1.349565e-02
5.55          	5.893826e-02	1.510080e-02	1.301243e-02
5.60625       	4.369595e-02	1.306662e-02	1.519125e-02
5.6625        	5.280469e-02	1.238593e-02	1.844338e-02
5.71875       	5.189306e-02	1.329001e-02	1.776750e-02
5.775         	4.445265e-02	1.453512e-02	1.859199e-02
5.83125       	3.896842e-02	1.437822e-02	1.804333e-02
5.8875        	3.608224e-02	1.433983e-02	1.804282e-02
5.94375       	5.055126e-02	1.410851e-02	1.829364e-02
6             	4.178923e-02	1.609383e-02	1.963182e-02
6.0625        	5.171329e-02	1.748729e-02	1.859111e-02
6.125         	5.658208e-02	1.555033e-02	2.102008e-02
6.17857       	8.255187e-02	1.572192e-02	2.256657e-02
6.23214       	4.806459e-02	1.916244e-02	1.917590e-02
6.27679       	6.240103e-02	1.398652e-02	1.877894e-02
6.32143       	7.562608e-02	1.789018e-02	1.924305e-02
6.36607       	6.709026e-02	1.756815e-02	1.939480e-02
6.41071       	5.620344e-02	1.771803e-02	1.854885e-02
6.44048       	1.145599e-01	1.179070e-02	1.847491e-02
6.47024       	9.291295e-02	1.878728e-02	1.804691e-02
6.5           	6.492870e-02	1.375636e-02	1.512335e-02
6.53333       	8.840101e-02	1.606943e-02	1.823467e-02
6.56923       	5.166135e-02	1.638828e-02	1.595133e-02
6.60513       	5.294541e-02	1.521239e-02	1.534322e-02
6.64103       	4.584856e-02	1.503504e-02	1.546500e-02
6.67692       	3.643399e-02	1.516960e-02	1.543630e-02
6.70923       	7.223314e-02	1.423512e-02	1.542021e-02
6.74154       	5.817175e-02	1.645957e-02	1.579837e-02
6.77385       	4.452060e-02	1.495551e-02	1.469792e-02
6.80615       	3.839964e-02	1.501606e-02	1.494999e-02
6.83846       	3.510109e-02	1.514263e-02	1.481480e-02
6.86538       	8.240251e-02	1.281057e-02	1.467392e-02
6.89231       	7.465607e-02	1.541295e-02	1.496808e-02
6.91923       	4.863109e-02	1.425471e-02	1.462956e-02
6.94615       	3.963605e-02	1.424710e-02	1.445541e-02
6.97308       	4.095678e-02	1.396685e-02	1.397953e-02
7             	4.007201e-02	1.399868e-02	1.404589e-02
7.02941       	4.303941e-02	1.571830e-02	1.518656e-02
7.05882       	4.236422e-02	1.478789e-02	1.467837e-02
7.08824       	4.046017e-02	1.491284e-02	1.456101e-02
7.11569       	4.924458e-02	1.332845e-02	1.371156e-02
7.14314       	4.522544e-02	1.417314e-02	1.395605e-02
7.17059       	4.496086e-02	1.418616e-02	1.423684e-02
7.19804       	4.485823e-02	1.468940e-02	1.449517e-02
7.22549       	4.039438e-02	1.443317e-02	1.445872e-02
7.25294       	4.072177e-02	1.401411e-02	1.414311e-02
7.28039       	5.333131e-02	1.379472e-02	1.419871e-02
7.30479       	6.195084e-02	1.286317e-02	1.375281e-02
7.32919       	4.722109e-02	1.433042e-02	1.420342e-02
7.35359       	4.074747e-02	1.337687e-02	1.381242e-02
7.378         	3.876771e-02	1.319366e-02	1.358941e-02
7.4024        	4.281886e-02	1.321133e-02	1.347340e-02
7.4268        	4.902700e-02	1.358676e-02	1.393427e-02
7.4512        	5.665170e-02	1.365205e-02	1.426725e-02
7.4756        	4.453172e-02	1.343262e-02	1.433321e-02
7.4878        	2.053144e-01	6.902022e-03	1.126995e-02
7.5           	1.478213e-01	1.204878e-02	1.138812e-02
7.51429       	9.729670e-02	9.674699e-03	1.026414e-02
7.53048       	6.391034e-02	1.068615e-02	1.116053e-02
7.54853       	5.909148e-02	1.174211e-02	1.203892e-02
7.56816       	4.728106e-02	1.195753e-02	1.237626e-02
7.58976       	4.185830e-02	1.262079e-02	1.300562e-02
7.61255       	5.835758e-02	1.286823e-02	1.351253e-02
7.63534       	7.961797e-02	1.291400e-02	1.395815e-02
7.65679       	7.519307e-02	1.277414e-02	1.342084e-02
7.67824       	6.118899e-02	1.311326e-02	1.303903e-02
7.69969       	5.789018e-02	1.260624e-02	1.279254e-02
7.72114       	5.388847e-02	1.293623e-02	1.286670e-02
7.74438       	6.966187e-02	1.378301e-02	1.374510e-02
7.76762       	7.232036e-02	1.285146e-02	1.354509e-02
7.79086       	5.689053e-02	1.340225e-02	1.325924e-02
7.81177       	6.882899e-02	1.179013e-02	1.236752e-02
7.83268       	6.483699e-02	1.218014e-02	1.214438e-02
7.8536        	5.880202e-02	1.192033e-02	1.179367e-02
7.87451       	6.797197e-02	1.230984e-02	1.212282e-02
7.89244       	7.847443e-02	1.077539e-02	1.102300e-02
7.91037       	6.677236e-02	1.111265e-02	1.071888e-02
7.92829       	5.343991e-02	1.035151e-02	1.013349e-02
7.94622       	4.602937e-02	1.018234e-02	9.789172e-03
7.96415       	6.756054e-02	1.004900e-02	9.936567e-03
7.98207       	6.353647e-02	1.039870e-02	1.031949e-02
8             	5.003523e-02	1.059891e-02	1.001050e-02
8.01724       	6.698949e-02	9.880572e-03	9.467878e-03
8.03448       	6.484308e-02	9.634296e-03	9.603050e-03
8.05111       	5.338572e-02	9.099034e-03	9.179348e-03
8.06773       	8.254318e-02	9.105053e-03	9.404559e-03
8.08374       	5.511515e-02	9.589878e-03	9.300140e-03
8.09975       	5.050089e-02	9.402482e-03	9.047211e-03
8.11576       	5.123688e-02	9.065661e-03	8.640250e-03
8.13177       	4.768373e-02	8.714697e-03	8.319416e-03
8.14778       	5.191096e-02	8.680324e-03	8.246992e-03
8.16379       	7.651323e-02	8.877125e-03	8.771490e-03
8.1806        	5.736514e-02	1.002791e-02	9.254678e-03
8.19741       	5.713751e-02	9.646095e-03	8.981576e-03
8.21422       	6.033830e-02	9.180207e-03	8.696257e-03
8.23209       	6.005152e-02	9.595908e-03	9.044748e-03
8.24995       	8.868374e-02	9.545869e-03	9.737928e-03
8.26781       	6.929979e-02	1.036798e-02	1.009449e-02
8.28567       	9.040121e-02	9.969344e-03	9.920771e-03
8.30515       	8.460152e-02	1.057869e-02	1.025764e-02
8.32464       	6.659501e-02	1.026769e-02	1.011550e-02
8.34412       	9.576726e-02	1.027614e-02	1.056788e-02
8.36361       	6.914574e-02	1.100847e-02	1.026872e-02
8.38309       	7.972266e-02	1.019404e-02	1.008341e-02
8.40258       	5.940508e-02	1.004435e-02	9.848590e-03
8.42206       	6.720148e-02	9.995730e-03	9.773436e-03
8.44155       	9.627136e-02	1.031135e-02	1.064331e-02
8.46103       	9.852781e-02	1.108187e-02	1.041157e-02
8.48052       	7.705412e-02	1.014873e-02	1.009619e-02
8.5           	6.518616e-02	9.797792e-03	9.765143e-03
8.52174       	7.167985e-02	1.084301e-02	1.033465e-02
8.54451       	9.216603e-02	1.095165e-02	1.133582e-02
8.56729       	1.034020e-01	1.157119e-02	1.113855e-02
8.59006       	8.057474e-02	1.094047e-02	1.106244e-02
8.61164       	9.944175e-02	1.016876e-02	1.131724e-02
8.63321       	8.393811e-02	1.101253e-02	1.074949e-02
8.65479       	7.664133e-02	1.039650e-02	1.006516e-02
8.67636       	6.031741e-02	1.022777e-02	9.746268e-03
8.69794       	5.828633e-02	1.015535e-02	9.625294e-03
8.71952       	8.849196e-02	1.053737e-02	1.105987e-02
8.74109       	1.049757e-01	1.050551e-02	1.006443e-02
8.76267       	8.371924e-02	9.523451e-03	9.890310e-03
8.78424       	6.612312e-02	9.340695e-03	9.438800e-03
8.80582       	6.180076e-02	9.317456e-03	9.110685e-03
8.82739       	4.436805e-02	9.406485e-03	9.072647e-03
8.84897       	4.820952e-02	9.272930e-03	8.933168e-03
8.87055       	8.870882e-02	9.340686e-03	1.038792e-02
8.89212       	7.809066e-02	9.348088e-03	9.581474e-03
8.9137        	6.699198e-02	8.890022e-03	9.489084e-03
8.93527       	5.600554e-02	8.703351e-03	9.232972e-03
8.95685       	5.302341e-02	8.591939e-03	8.996732e-03
8.97842       	5.848573e-02	8.619054e-03	9.068477e-03
9             	1.031294e-01	8.838255e-03	1.006791e-02
9.02273       	1.070195e-01	9.701236e-03	1.067546e-02
9.04545       	7.979531e-02	8.614319e-03	1.018801e-02
9.0671        	6.970557e-02	8.188448e-03	9.715610e-03
9.08874       	6.130976e-02	8.156102e-03	9.347222e-03
9.11039       	6.808489e-02	7.859035e-03	9.304016e-03
9.1309        	6.919368e-02	7.547444e-03	8.911346e-03
9.1514        	9.994593e-02	7.962874e-03	1.036501e-02
9.17191       	8.219107e-02	7.695231e-03	9.022591e-03
9.19241       	6.528354e-02	7.206011e-03	9.149882e-03
9.21292       	5.979632e-02	7.226419e-03	9.135277e-03
9.23342       	5.802236e-02	7.047841e-03	9.117191e-03
9.25393       	5.981631e-02	7.041948e-03	9.109553e-03
9.27444       	5.519901e-02	6.965358e-03	9.043191e-03
9.29494       	5.272285e-02	6.710227e-03	8.872218e-03
9.31545       	8.653794e-02	6.892447e-03	1.005396e-02
9.33595       	8.248666e-02	6.879403e-03	1.024585e-02
9.35646       	6.346517e-02	6.689172e-03	1.022427e-02
9.37697       	7.467958e-02	6.571097e-03	9.255789e-03
9.39747       	6.930983e-02	6.567340e-03	9.525366e-03
9.41798       	6.422121e-02	6.406323e-03	9.033793e-03
9.43848       	5.712626e-02	6.220801e-03	8.665180e-03
9.45899       	4.961281e-02	6.337096e-03	8.678222e-03
9.47949       	6.719157e-02	6.248233e-03	8.379313e-03
9.5           	8.387001e-02	6.198785e-03	8.917477e-03
9.52174       	6.829707e-02	6.733343e-03	9.240354e-03
9.54253       	6.680307e-02	6.445601e-03	8.371678e-03
9.56333       	7.508299e-02	6.347271e-03	8.222605e-03
9.58318       	7.260092e-02	6.073955e-03	8.187584e-03
9.60302       	8.014353e-02	6.367134e-03	8.091138e-03
9.62287       	6.676318e-02	6.178692e-03	8.087650e-03
9.64272       	5.577763e-02	6.078697e-03	7.965120e-03
9.66257       	5.938429e-02	6.173278e-03	8.021859e-03
9.68242       	6.406699e-02	6.204951e-03	7.784638e-03
9.70227       	6.743521e-02	6.052859e-03	7.972582e-03
9.72212       	8.007257e-02	6.041486e-03	8.241553e-03
9.74197       	6.157972e-02	6.283580e-03	8.214498e-03
9.76347       	5.569421e-02	6.535050e-03	8.676969e-03
9.78497       	6.158788e-02	6.458940e-03	8.691262e-03
9.80647       	7.972166e-02	6.595487e-03	9.035462e-03
9.82798       	6.452741e-02	7.003452e-03	8.899665e-03
9.84948       	6.012817e-02	6.657784e-03	8.896409e-03
9.87098       	5.371111e-02	6.696905e-03	8.683782e-03
9.89249       	8.032525e-02	6.781703e-03	9.034513e-03
9.91399       	6.594849e-02	7.276885e-03	9.127574e-03
9.93549       	6.023705e-02	6.948397e-03	9.100453e-03
9.95699       	6.901033e-02	6.841593e-03	8.964153e-03
9.9785        	7.278661e-02	6.897970e-03	9.002009e-03
10            	7.222409e-02	6.997942e-03	9.023075e-03
10.0227       	6.835524e-02	7.338891e-03	9.044168e-03
10.0455       	7.775673e-02	6.973958e-03	9.363363e-03
10.0682       	7.999913e-02	7.016874e-03	9.307982e-03
10.0898       	7.670301e-02	6.690401e-03	8.870943e-03
10.1114       	7.986914e-02	6.880109e-03	8.680672e-03
10.133        	6.810223e-02	6.663296e-03	8.581595e-03
10.1545       	6.368965e-02	6.419475e-03	8.361511e-03
10.1761       	5.838850e-02	6.247932e-03	8.307966e-03
10.1977       	5.852616e-02	6.277198e-03	8.372833e-03
10.2193       	7.491074e-02	6.310037e-03	8.359024e-03
10.2409       	5.724215e-02	6.295769e-03	8.472652e-03
10.2625       	7.039253e-02	6.258531e-03	8.568824e-03
10.2841       	7.268253e-02	6.286197e-03	8.683087e-03
10.3057       	6.131142e-02	6.199671e-03	8.675070e-03
10.3273       	6.057522e-02	6.152009e-03	8.736625e-03
10.3489       	6.083415e-02	6.095964e-03	8.541241e-03
10.3705       	7.120410e-02	6.048560e-03	8.628917e-03
10.392        	6.709347e-02	6.070203e-03	8.777251e-03
10.4136       	6.200058e-02	5.977278e-03	8.607672e-03
10.4352       	6.192115e-02	5.949135e-03	8.766146e-03
10.4568       	8.147733e-02	5.987286e-03	9.059328e-03
10.4784       	5.904746e-02	5.919292e-03	8.694888e-03
10.5          	5.184826e-02	5.886734e-03	8.528927e-03
10.5217       	5.180674e-02	5.856299e-03	8.433267e-03
10.5435       	6.364962e-02	5.747286e-03	8.450499e-03
10.5652       	5.883579e-02	5.818817e-03	8.365298e-03
10.5881       	6.103842e-02	6.134916e-03	8.764851e-03
10.611        	6.514126e-02	6.186427e-03	8.971796e-03
10.6339       	5.671438e-02	6.267111e-03	8.802423e-03
10.6568       	6.109820e-02	6.290000e-03	8.720633e-03
10.6796       	6.031203e-02	6.296305e-03	8.796804e-03
10.7025       	6.109980e-02	6.350289e-03	8.792872e-03
10.7254       	5.794213e-02	6.319022e-03	8.904354e-03
10.7483       	6.486739e-02	6.309310e-03	8.864448e-03
10.7712       	4.968430e-02	6.270073e-03	8.645398e-03
10.7941       	4.614596e-02	6.209130e-03	8.652592e-03
10.8146       	6.863725e-02	5.578151e-03	8.034233e-03
10.8352       	6.261519e-02	5.836385e-03	7.875637e-03
10.8558       	7.034091e-02	5.684723e-03	7.831465e-03
10.8764       	6.088475e-02	5.649015e-03	7.886594e-03
10.897        	4.165999e-02	5.634820e-03	7.687598e-03
10.9176       	4.860482e-02	5.604664e-03	7.659667e-03
10.9382       	4.983550e-02	5.558521e-03	7.648991e-03
10.9588       	5.741209e-02	5.550325e-03	7.628630e-03
10.9794       	4.900793e-02	5.539291e-03	7.501600e-03
11            	5.087172e-02	5.512854e-03	7.497887e-03
11.0208       	5.469443e-02	5.566701e-03	7.420377e-03
11.0417       	5.021748e-02	5.441074e-03	7.398349e-03
11.0625       	5.884240e-02	5.431038e-03	7.376834e-03
11.0833       	5.527349e-02	5.416064e-03	7.269068e-03
11.1042       	4.953998e-02	5.375946e-03	7.339327e-03
11.125        	5.350334e-02	5.331926e-03	7.500520e-03
11.1471       	6.165190e-02	5.626789e-03	7.681929e-03
11.1691       	6.216172e-02	5.502556e-03	7.773940e-03
11.1912       	5.254261e-02	5.490687e-03	7.765556e-03
11.2132       	5.707995e-02	5.427048e-03	7.704455e-03
11.2353       	5.266880e-02	5.430419e-03	7.513163e-03
11.2557       	5.871958e-02	4.977504e-03	7.023633e-03
11.276        	5.219845e-02	5.084124e-03	6.873209e-03
11.2964       	5.958332e-02	4.996740e-03	6.824314e-03
11.3167       	4.917628e-02	4.946172e-03	6.676962e-03
11.3371       	4.389802e-02	4.948206e-03	6.543145e-03
11.3575       	4.446495e-02	4.886777e-03	6.459773e-03
11.3778       	3.733009e-02	4.893206e-03	6.331988e-03
11.3982       	3.966986e-02	4.856754e-03	6.245510e-03
11.4186       	4.723844e-02	4.813454e-03	6.333109e-03
11.4389       	4.876984e-02	4.757752e-03	6.216036e-03
11.4593       	4.506815e-02	4.684545e-03	6.085287e-03
11.4796       	4.474004e-02	4.642619e-03	6.075509e-03
11.5          	4.924585e-02	4.628664e-03	6.068860e-03
11.5217       	5.155179e-02	4.877894e-03	6.394894e-03
11.5445       	4.788752e-02	4.981333e-03	6.731925e-03
11.5673       	5.519497e-02	4.937020e-03	6.808368e-03
11.5901       	4.708232e-02	5.006132e-03	6.639734e-03
11.6142       	4.933144e-02	5.276165e-03	6.720561e-03
11.6369       	6.368553e-02	4.891094e-03	6.559127e-03
11.6596       	5.073191e-02	5.019611e-03	6.272352e-03
11.6823       	5.065161e-02	4.979651e-03	6.283150e-03
11.705        	5.874533e-02	4.993001e-03	6.448674e-03
11.7277       	4.776732e-02	4.963324e-03	6.273688e-03
11.7503       	3.991072e-02	4.936450e-03	6.238610e-03
11.773        	3.757979e-02	4.937514e-03	5.997781e-03
11.7957       	4.127399e-02	4.913398e-03	5.827681e-03
11.8184       	4.625466e-02	4.915710e-03	5.866713e-03
11.8411       	4.761765e-02	4.955799e-03	5.799143e-03
11.8638       	4.723883e-02	4.952582e-03	5.747134e-03
11.8865       	4.788359e-02	4.958699e-03	5.815097e-03
11.9092       	3.912325e-02	4.980388e-03	5.629445e-03
11.9319       	3.813744e-02	4.934754e-03	5.605102e-03
11.9546       	4.147724e-02	4.878867e-03	5.678526e-03
11.9773       	3.797181e-02	4.867556e-03	5.518875e-03
12            	4.163191e-02	4.854323e-03	5.428412e-03
12.025        	4.651697e-02	5.335617e-03	5.863696e-03
12.0514       	3.676512e-02	5.481298e-03	6.149554e-03
12.0778       	5.339209e-02	5.379115e-03	6.300190e-03
12.1026       	5.292597e-02	5.059804e-03	6.119310e-03
12.1275       	3.894442e-02	5.091995e-03	5.689415e-03
12.1523       	3.324714e-02	4.900158e-03	5.554347e-03
12.1771       	2.993246e-02	4.822777e-03	5.495504e-03
12.202        	3.390423e-02	4.781435e-03	5.503955e-03
12.2268       	3.159904e-02	4.696579e-03	5.539763e-03
12.2516       	2.953293e-02	4.622461e-03	5.429535e-03
12.2765       	3.377947e-02	4.626221e-03	5.389236e-03
12.3013       	3.562788e-02	4.557217e-03	5.312538e-03
12.3261       	3.091675e-02	4.467959e-03	5.185719e-03
12.351        	2.956839e-02	4.447169e-03	5.261786e-03
12.3758       	3.548765e-02	4.445094e-03	5.107916e-03
12.4007       	3.700898e-02	4.440246e-03	5.175686e-03
12.4255       	3.649256e-02	4.628010e-03	5.269247e-03
12.4503       	3.105863e-02	4.577418e-03	5.340903e-03
12.4752       	2.843937e-02	4.481814e-03	5.028274e-03
12.5          	3.689144e-02	4.414637e-03	5.363449e-03
12.525        	3.305917e-02	4.380182e-03	5.071910e-03
12.55         	3.201690e-02	4.301633e-03	5.094747e-03
12.575        	3.212931e-02	4.414282e-03	5.054019e-03
12.5986       	3.713753e-02	4.204923e-03	4.724586e-03
12.6222       	3.499633e-02	4.184617e-03	4.593022e-03
12.6458       	2.765140e-02	4.140186e-03	4.611739e-03
12.6694       	2.603103e-02	4.028206e-03	4.528574e-03
12.6931       	2.766639e-02	4.031667e-03	4.601033e-03
12.7167       	2.736708e-02	4.072180e-03	4.481654e-03
12.7403       	2.970173e-02	4.015238e-03	4.583436e-03
12.7639       	2.749141e-02	4.018297e-03	4.482849e-03
12.7875       	2.793663e-02	3.995066e-03	4.443430e-03
12.8111       	2.752217e-02	3.945323e-03	4.461656e-03
12.8347       	2.673638e-02	3.938525e-03	4.436717e-03
12.8583       	2.986003e-02	4.006671e-03	4.404434e-03
12.8819       	2.597005e-02	3.999601e-03	4.447354e-03
12.9056       	2.255897e-02	3.991513e-03	4.369500e-03
12.9292       	2.305401e-02	4.019017e-03	4.274120e-03
12.9528       	2.686106e-02	4.025077e-03	4.277827e-03
12.9764       	2.472479e-02	4.014209e-03	4.233930e-03
13            	2.335532e-02	3.999016e-03	4.096471e-03
13.0227       	2.993731e-02	3.802603e-03	4.098887e-03
13.0455       	2.849636e-02	3.855067e-03	4.147605e-03
13.0682       	2.527325e-02	3.791446e-03	4.087624e-03
13.0909       	2.915317e-02	3.767257e-03	4.177324e-03
13.1136       	2.622575e-02	3.748840e-03	4.125066e-03
13.1364       	2.307321e-02	3.702376e-03	4.065681e-03
13.1591       	2.255629e-02	3.695359e-03	4.016835e-03
13.1818       	2.254441e-02	3.672142e-03	3.871568e-03
13.2045       	2.355838e-02	3.638736e-03	3.832810e-03
13.2273       	2.394742e-02	3.626679e-03	3.872210e-03
13.25         	2.606552e-02	3.609023e-03	3.934395e-03
13.2727       	2.228772e-02	3.612525e-03	3.827935e-03
13.2955       	2.437017e-02	3.598795e-03	3.963091e-03
13.3182       	2.514894e-02	3.630120e-03	3.867059e-03
13.3409       	2.546265e-02	3.604859e-03	3.821745e-03
13.3636       	2.389874e-02	3.592774e-03	3.778884e-03
13.3864       	2.598785e-02	3.577201e-03	3.844806e-03
13.4091       	2.312792e-02	3.571129e-03	3.748985e-03
13.4318       	2.084271e-02	3.551444e-03	3.744081e-03
13.4545       	2.288264e-02	3.552785e-03	3.690017e-03
13.4773       	2.165442e-02	3.514655e-03	3.656035e-03
13.5          	2.357026e-02	3.505783e-03	3.661692e-03
13.5227       	2.424983e-02	3.536894e-03	3.596980e-03
13.5455       	2.321412e-02	3.540059e-03	3.561384e-03
13.5682       	2.435900e-02	3.534920e-03	3.631420e-03
13.5909       	2.481045e-02	3.528322e-03	3.601947e-03
13.6136       	2.396779e-02	3.527846e-03	3.652542e-03
13.6364       	2.238504e-02	3.524638e-03	3.647210e-03
13.6591       	2.419526e-02	3.540073e-03	3.598405e-03
13.6818       	2.465413e-02	3.548200e-03	3.603208e-03
13.7045       	2.405245e-02	3.561691e-03	3.627112e-03
13.7273       	2.518518e-02	3.560962e-03	3.618965e-03
13.75         	2.474655e-02	3.576467e-03	3.545607e-03
13.7727       	2.216053e-02	3.559014e-03	3.561270e-03
13.7955       	2.439291e-02	3.528095e-03	3.536028e-03
13.8182       	2.170733e-02	3.517277e-03	3.529879e-03
13.8409       	2.241643e-02	3.481104e-03	3.475684e-03
13.8636       	2.136855e-02	3.519633e-03	3.439398e-03
13.8864       	2.281973e-02	3.508153e-03	3.434636e-03
13.9091       	2.158752e-02	3.459404e-03	3.390337e-03
13.9318       	2.290261e-02	3.452284e-03	3.398285e-03
13.9545       	2.486012e-02	3.461473e-03	3.351561e-03
13.9773       	2.089202e-02	3.484185e-03	3.347878e-03
14            	2.011790e-02	3.456817e-03	3.287903e-03
14.025        	3.202049e-02	3.777046e-03	3.634023e-03
14.05         	3.443930e-02	3.668579e-03	3.903901e-03
14.075        	2.393966e-02	3.686117e-03	3.659014e-03
14.1          	2.639941e-02	3.651244e-03	3.807092e-03
14.125        	2.457719e-02	3.584091e-03	3.837160e-03
14.15         	2.500319e-02	3.557279e-03	3.705397e-03
14.175        	2.380986e-02	3.529480e-03	3.708597e-03
14.2          	2.508579e-02	3.510365e-03	3.613818e-03
14.225        	2.447902e-02	3.532684e-03	3.533291e-03
14.25         	2.363462e-02	3.565383e-03	3.466046e-03
14.275        	2.439609e-02	3.558725e-03	3.544469e-03
14.3          	2.373960e-02	3.545441e-03	3.482653e-03
14.3222       	3.882457e-02	3.139561e-03	3.216327e-03
14.3444       	3.589237e-02	3.243107e-03	3.367678e-03
14.3667       	2.234269e-02	3.148400e-03	3.213415e-03
14.3889       	2.034766e-02	3.100160e-03	3.115284e-03
14.4111       	2.256116e-02	3.057222e-03	3.089333e-03
14.4333       	2.607513e-02	3.044774e-03	3.020015e-03
14.4556       	2.154077e-02	3.025107e-03	2.969849e-03
14.4778       	2.191784e-02	3.046256e-03	2.944740e-03
14.5          	2.039218e-02	3.055700e-03	2.893333e-03
14.5238       	2.753686e-02	3.270130e-03	3.077348e-03
14.5489       	2.603992e-02	3.345239e-03	3.379610e-03
14.5739       	2.706752e-02	3.327467e-03	3.408462e-03
14.599        	2.458812e-02	3.316804e-03	3.366964e-03
14.6241       	2.349532e-02	3.242563e-03	3.458402e-03
14.6491       	2.464301e-02	3.235046e-03	3.311733e-03
14.6742       	2.583536e-02	3.228856e-03	3.144660e-03
14.6992       	2.221824e-02	3.229363e-03	3.133175e-03
14.7243       	2.267535e-02	3.223247e-03	3.023143e-03
14.7494       	2.260744e-02	3.219575e-03	3.098814e-03
14.7744       	2.238716e-02	3.246276e-03	3.118433e-03
14.7995       	2.478737e-02	3.259434e-03	3.071266e-03
14.8246       	2.398815e-02	3.242350e-03	3.129974e-03
14.8465       	3.964330e-02	2.891281e-03	2.976185e-03
14.8684       	3.738986e-02	3.036618e-03	3.116665e-03
14.8904       	2.517953e-02	2.971636e-03	3.081383e-03
14.9123       	2.247300e-02	2.946396e-03	2.859923e-03
14.9342       	2.029228e-02	2.946315e-03	2.874344e-03
14.9561       	1.976942e-02	2.956803e-03	2.762081e-03
14.9781       	1.911860e-02	2.983161e-03	2.599357e-03
15            	2.002457e-02	2.978135e-03	2.609362e-03
15.0238       	2.926201e-02	3.197627e-03	2.849799e-03
15.0476       	3.089974e-02	3.205232e-03	3.113463e-03
15.0714       	2.247285e-02	3.198649e-03	2.893311e-03
15.0952       	2.236023e-02	3.181638e-03	2.955577e-03
15.119        	2.139434e-02	3.169073e-03	2.840136e-03
15.1429       	2.103094e-02	3.175766e-03	2.748770e-03
15.1667       	2.082051e-02	3.166321e-03	2.782249e-03
15.1905       	2.164208e-02	3.143418e-03	2.691713e-03
15.2143       	2.097066e-02	3.091769e-03	2.708788e-03
15.2381       	2.148467e-02	3.079430e-03	2.791931e-03
15.2619       	2.164953e-02	3.023394e-03	2.745399e-03
15.2857       	2.343404e-02	3.001528e-03	2.697668e-03
15.3095       	2.174399e-02	2.964384e-03	2.798004e-03
15.3333       	2.073385e-02	2.989466e-03	2.742486e-03
15.3571       	2.078721e-02	2.979213e-03	2.706235e-03
15.381        	2.031251e-02	2.994285e-03	2.814823e-03
15.4048       	2.119150e-02	2.987006e-03	2.771791e-03
15.4286       	1.983145e-02	2.953413e-03	2.710337e-03
15.4524       	2.039212e-02	2.952523e-03	2.781875e-03
15.4762       	2.017364e-02	2.948502e-03	2.731542e-03
15.5          	1.724755e-02	2.905237e-03	2.649027e-03
15.5238       	2.164968e-02	2.865559e-03	2.720869e-03
15.5476       	2.334256e-02	2.842455e-03	2.674872e-03
15.5714       	2.125205e-02	2.829826e-03	2.611068e-03
15.5952       	2.007988e-02	2.824263e-03	2.646679e-03
15.619        	2.062262e-02	2.851009e-03	2.628007e-03
15.6429       	1.761687e-02	2.830272e-03	2.580648e-03
15.6667       	1.827680e-02	2.820241e-03	2.628052e-03
15.6905       	2.040939e-02	2.824883e-03	2.592514e-03
15.7143       	1.943825e-02	2.782817e-03	2.591629e-03
15.7381       	2.188961e-02	2.772514e-03	2.664383e-03
15.7619       	2.239164e-02	2.804800e-03	2.665989e-03
15.7857       	1.893918e-02	2.776429e-03	2.553783e-03
15.8095       	1.804833e-02	2.775002e-03	2.595295e-03
15.8333       	1.867625e-02	2.777055e-03	2.512303e-03
15.8571       	1.720406e-02	2.768519e-03	2.451749e-03
15.881        	1.998463e-02	2.782511e-03	2.615693e-03
15.9048       	2.418085e-02	2.729755e-03	2.668924e-03
15.9286       	2.085904e-02	2.770990e-03	2.548953e-03
15.9524       	2.048872e-02	2.709419e-03	2.649126e-03
15.9762       	2.017179e-02	2.738929e-03	2.616256e-03
16            	1.875753e-02	2.702570e-03	2.562247e-03
16.025        	2.569649e-02	2.846652e-03	2.753680e-03
16.05         	2.488448e-02	2.818972e-03	2.961271e-03
16.075        	2.177538e-02	2.801587e-03	2.794478e-03
16.1          	1.969877e-02	2.788978e-03	2.778639e-03
16.125        	2.164937e-02	2.818271e-03	2.829115e-03
16.15         	2.065521e-02	2.796300e-03	2.806040e-03
16.175        	1.966752e-02	2.765517e-03	2.737663e-03
16.2          	2.071831e-02	2.748901e-03	2.655978e-03
16.225        	1.917164e-02	2.745337e-03	2.561076e-03
16.25         	1.907579e-02	2.741747e-03	2.579093e-03
16.275        	1.934010e-02	2.736611e-03	2.645652e-03
16.3          	1.729950e-02	2.682575e-03	2.618618e-03
16.325        	1.665455e-02	2.651304e-03	2.648972e-03
16.35         	1.913104e-02	2.659654e-03	2.650078e-03
16.3714       	4.191190e-02	2.354430e-03	2.430732e-03
16.3929       	3.649220e-02	2.445831e-03	2.530649e-03
16.4143       	2.177465e-02	2.293077e-03	2.507137e-03
16.4357       	1.890650e-02	2.299632e-03	2.431114e-03
16.4571       	2.185988e-02	2.401699e-03	2.803084e-03
16.4786       	2.434479e-02	2.387540e-03	2.357161e-03
16.5          	1.905626e-02	2.344092e-03	2.367915e-03