# Residuals   
# Time        	p             	Ux            	Uy            
0             	N/A	N/A
0.0119048     	1.000000e+00	1.000000e+00	1.000000e+00
0.0258503     	3.165313e-01	5.326882e-01	4.070940e-01
0.0422003     	1.183082e-01	4.455770e-01	3.218981e-01
0.0612753     	3.542113e-01	1.947596e-01	1.342704e-01
0.0832115     	4.593579e-01	1.444581e-01	8.981131e-02
0.109261      	2.858669e-01	1.090920e-01	7.160083e-02
0.139318      	3.760342e-01	1.057831e-01	6.904146e-02
0.175386      	2.954555e-01	1.172767e-01	7.729822e-02
0.215963      	3.586555e-01	1.510728e-01	9.905148e-02
0.256539      	3.376401e-01	1.940245e-01	1.309385e-01
0.297116      	3.908344e-01	2.412640e-01	1.652769e-01
0.337693      	3.937034e-01	3.215975e-01	2.290285e-01
0.37827       	4.256246e-01	3.671222e-01	2.753952e-01
0.418846      	4.405238e-01	4.878277e-01	3.820129e-01
0.459423      	4.561385e-01	5.054060e-01	4.204044e-01
0.5           	4.725114e-01	6.294683e-01	5.451239e-01
0.545455      	4.785757e-01	6.357851e-01	5.714438e-01
0.586777      	4.957447e-01	7.034199e-01	6.519569e-01
0.628099      	5.091123e-01	6.933485e-01	6.390513e-01
0.665289      	5.163908e-01	7.090478e-01	6.865409e-01
0.693182      	5.535191e-01	6.779825e-01	6.136808e-01
0.715097      	5.540169e-01	6.528161e-01	6.441974e-01
0.732904      	5.696704e-01	5.901228e-01	5.005733e-01
0.751982      	5.615306e-01	5.353966e-01	4.960358e-01
0.769698      	5.238017e-01	4.733688e-01	3.652991e-01
0.78889       	5.658601e-01	3.743600e-01	3.535653e-01
0.810001      	5.396783e-01	3.794974e-01	2.751935e-01
0.831112      	5.812408e-01	2.860387e-01	2.779544e-01
0.852223      	5.927232e-01	3.039832e-01	2.190419e-01
0.873334      	6.057801e-01	2.195323e-01	2.165989e-01
0.894445      	6.463079e-01	2.403456e-01	1.752625e-01
0.915556      	5.912647e-01	1.720048e-01	1.692700e-01
0.936667      	6.923496e-01	1.881869e-01	1.400327e-01
0.957778      	6.278442e-01	1.350368e-01	1.331338e-01
0.978889      	7.373868e-01	1.467660e-01	1.114059e-01
1             	6.666137e-01	1.071583e-01	1.034301e-01
1.02381       	7.739346e-01	1.237618e-01	9.567140e-02
1.05026       	6.993444e-01	1.120595e-01	1.050433e-01
1.07837       	8.422764e-01	1.419264e-01	1.142461e-01
1.10849       	7.692176e-01	1.469545e-01	1.354110e-01
1.14112       	8.777733e-01	1.949717e-01	1.636042e-01
1.17374       	8.331116e-01	2.153035e-01	1.963947e-01
1.20637       	8.676077e-01	2.644577e-01	2.304040e-01
1.23899       	7.848490e-01	2.876524e-01	2.656776e-01
1.26799       	8.595652e-01	3.105624e-01	2.775971e-01
1.29699       	7.928515e-01	3.062288e-01	2.840840e-01
1.32237       	8.543668e-01	2.930339e-01	2.615999e-01
1.34775       	9.093465e-01	2.581585e-01	2.333271e-01
1.3695        	9.196249e-01	2.214544e-01	1.917042e-01
1.39125       	8.557519e-01	1.748334e-01	1.536178e-01
1.413         	8.686602e-01	1.515929e-01	1.273655e-01
1.43475       	8.251993e-01	1.252447e-01	1.069293e-01
1.4565        	8.401902e-01	1.112749e-01	9.173878e-02
1.47825       	7.980548e-01	9.308864e-02	7.769284e-02
1.5           	8.165414e-01	8.158957e-02	6.619688e-02
1.52381       	7.531832e-01	7.285801e-02	5.967679e-02
1.55026       	7.859692e-01	7.422592e-02	5.961974e-02
1.57672       	7.507136e-01	7.328567e-02	5.977195e-02
1.60317       	7.799119e-01	7.416799e-02	5.954685e-02
1.62963       	7.507898e-01	7.227133e-02	5.847110e-02
1.65432       	7.656071e-01	6.784217e-02	5.441719e-02
1.67901       	7.267297e-01	6.173521e-02	4.924257e-02
1.7037        	7.231301e-01	5.660617e-02	4.467228e-02
1.7284        	6.855436e-01	5.105079e-02	4.017733e-02
1.75309       	6.718881e-01	4.643343e-02	3.613983e-02
1.77778       	6.361901e-01	4.156353e-02	3.225979e-02
1.80247       	6.132089e-01	3.739003e-02	2.873769e-02
1.82716       	5.751858e-01	3.325019e-02	2.545466e-02
1.85185       	5.452691e-01	2.967408e-02	2.248425e-02
1.87654       	5.055005e-01	2.627993e-02	1.980276e-02
1.90123       	4.694882e-01	2.334600e-02	1.744558e-02
1.92593       	4.288189e-01	2.066132e-02	1.532430e-02
1.95062       	3.904771e-01	1.835452e-02	1.346629e-02
1.97531       	3.499839e-01	1.628314e-02	1.184365e-02
2             	3.118160e-01	1.451295e-02	1.048322e-02
2.02381       	2.747599e-01	1.257429e-02	9.219146e-03
2.04762       	2.318196e-01	1.129456e-02	7.915764e-03
2.07143       	1.959318e-01	9.954209e-03	7.188286e-03
2.09524       	1.606282e-01	9.051202e-03	6.535510e-03
2.11905       	1.315597e-01	8.332306e-03	6.081800e-03
2.14286       	1.065585e-01	7.768722e-03	5.748254e-03
2.16667       	8.587566e-02	7.345364e-03	5.522789e-03
2.19048       	6.892198e-02	7.034447e-03	5.369416e-03
2.21429       	5.572109e-02	6.823258e-03	5.260042e-03
2.2381        	4.424695e-02	6.651200e-03	5.182095e-03
2.2619        	3.610002e-02	6.514898e-03	5.129790e-03
2.28571       	2.892384e-02	6.421151e-03	5.102840e-03
2.30952       	2.386969e-02	6.342887e-03	5.085577e-03
2.33333       	1.987018e-02	6.285652e-03	5.067769e-03
2.35714       	1.672381e-02	6.219738e-03	5.065479e-03
2.38095       	1.472024e-02	6.178990e-03	5.055695e-03
2.40476       	1.316207e-02	6.139951e-03	5.057031e-03
2.42857       	1.164328e-02	6.121361e-03	5.066054e-03
2.45238       	1.043744e-02	6.113567e-03	5.089085e-03
2.47619       	9.710787e-03	6.103633e-03	5.109353e-03
2.5           	1.021465e-02	6.088334e-03	5.128860e-03
2.52381       	9.366153e-03	6.073041e-03	5.155803e-03
2.54762       	9.353017e-03	6.070855e-03	5.169459e-03
2.57143       	9.532280e-03	6.047006e-03	5.205185e-03
2.59524       	9.079923e-03	6.034823e-03	5.239112e-03
2.61905       	9.087641e-03	6.033760e-03	5.269714e-03
2.64286       	9.307537e-03	6.034449e-03	5.296662e-03
2.66667       	9.659562e-03	6.029572e-03	5.325000e-03
2.69048       	8.863684e-03	6.052516e-03	5.340806e-03
2.71429       	8.770075e-03	6.056051e-03	5.362956e-03
2.7381        	8.970506e-03	6.053770e-03	5.380746e-03
2.7619        	9.355355e-03	6.053423e-03	5.408700e-03
2.78571       	1.032779e-02	6.053504e-03	5.441434e-03
2.80952       	9.831556e-03	6.058348e-03	5.459686e-03
2.83333       	9.976790e-03	6.051576e-03	5.490687e-03
2.85714       	9.962102e-03	6.061843e-03	5.510997e-03
2.88095       	9.312406e-03	6.068670e-03	5.525772e-03
2.90476       	9.017181e-03	6.063286e-03	5.540263e-03
2.92857       	9.892453e-03	6.055063e-03	5.567419e-03
2.95238       	9.761192e-03	6.051562e-03	5.568930e-03
2.97619       	1.074889e-02	6.044146e-03	5.589923e-03
3             	1.085079e-02	6.036730e-03	5.637486e-03
3.02381       	1.108746e-02	6.035153e-03	5.654780e-03
3.04762       	1.048068e-02	6.028286e-03	5.653226e-03
3.07143       	1.001489e-02	6.023816e-03	5.650734e-03
3.09524       	1.065290e-02	6.016126e-03	5.657178e-03
3.11905       	1.013872e-02	6.012642e-03	5.633862e-03
3.14286       	1.027335e-02	5.993409e-03	5.630154e-03
3.16667       	1.030038e-02	5.979571e-03	5.616932e-03
3.19048       	9.885721e-03	5.975786e-03	5.603104e-03
3.21429       	1.006336e-02	5.976386e-03	5.597106e-03
3.2381        	1.126031e-02	5.965833e-03	5.601524e-03
3.2619        	1.087693e-02	5.978759e-03	5.573425e-03
3.28571       	1.024971e-02	5.950692e-03	5.545017e-03
3.30952       	1.048296e-02	5.945846e-03	5.534664e-03
3.33333       	1.061633e-02	5.927503e-03	5.531382e-03
3.35714       	1.014695e-02	5.925657e-03	5.524469e-03
3.38095       	1.016354e-02	5.927051e-03	5.493450e-03
3.40476       	1.030790e-02	5.900239e-03	5.484004e-03
3.42857       	1.017540e-02	5.893433e-03	5.465334e-03
3.45238       	1.068513e-02	5.885285e-03	5.442648e-03
3.47619       	1.055377e-02	5.865002e-03	5.422315e-03
3.5           	1.097703e-02	5.826365e-03	5.431024e-03
3.52381       	1.033123e-02	5.828672e-03	5.424186e-03
3.54649       	1.437113e-02	5.518070e-03	5.496180e-03
3.56916       	1.155389e-02	5.919577e-03	5.174906e-03
3.59184       	1.107114e-02	5.494469e-03	5.158419e-03
3.61451       	1.088882e-02	5.505866e-03	5.131752e-03
3.63593       	1.591537e-02	5.176193e-03	5.185762e-03
3.65734       	1.367562e-02	5.623939e-03	4.831003e-03
3.67876       	1.155405e-02	5.149221e-03	4.827590e-03
3.70018       	1.083994e-02	5.169283e-03	4.788107e-03
3.72159       	1.040234e-02	5.148656e-03	4.736900e-03
3.74148       	1.823519e-02	4.761957e-03	4.867366e-03
3.76136       	1.408117e-02	5.300849e-03	4.388987e-03
3.78125       	1.189883e-02	4.744184e-03	4.358246e-03
3.80114       	1.099548e-02	4.753501e-03	4.304294e-03
3.82102       	1.068384e-02	4.738175e-03	4.250232e-03
3.84091       	1.072646e-02	4.733198e-03	4.222996e-03
3.85859       	2.380119e-02	4.182720e-03	4.431604e-03
3.87626       	1.783080e-02	4.950321e-03	3.842623e-03
3.89394       	1.192023e-02	4.176695e-03	3.751772e-03
3.91162       	9.994974e-03	4.176071e-03	3.699862e-03
3.92929       	9.306929e-03	4.155100e-03	3.662920e-03
3.94697       	9.318342e-03	4.140527e-03	3.660157e-03
3.96465       	1.023468e-02	4.132341e-03	3.634081e-03
3.98232       	9.305538e-03	4.131325e-03	3.609824e-03
4             	9.851249e-03	4.113023e-03	3.590211e-03
4.01786       	9.405678e-03	4.141562e-03	3.577303e-03
4.03571       	9.921316e-03	4.067150e-03	3.598288e-03
4.05291       	1.275557e-02	3.961856e-03	3.579822e-03
4.07011       	9.705048e-03	4.146107e-03	3.387480e-03
4.0873        	9.398740e-03	3.910704e-03	3.380445e-03
4.10381       	1.254211e-02	3.742931e-03	3.346585e-03
4.12032       	1.071384e-02	3.935974e-03	3.225252e-03
4.13683       	1.000606e-02	3.711420e-03	3.203504e-03
4.15333       	8.951017e-03	3.703974e-03	3.162732e-03
4.16909       	1.326024e-02	3.514696e-03	3.156281e-03
4.18485       	1.036739e-02	3.728331e-03	3.001953e-03
4.20061       	9.335130e-03	3.497435e-03	2.993435e-03
4.21636       	8.877718e-03	3.487483e-03	2.965350e-03
4.23212       	8.653472e-03	3.475242e-03	2.939986e-03
4.247         	1.416201e-02	3.261714e-03	2.932572e-03
4.26189       	1.161509e-02	3.495225e-03	2.786651e-03
4.27677       	9.653552e-03	3.227951e-03	2.757863e-03
4.29165       	9.049684e-03	3.228979e-03	2.734694e-03
4.30653       	9.159190e-03	3.216109e-03	2.720214e-03
4.32141       	8.816738e-03	3.208810e-03	2.708084e-03
4.3363        	9.419931e-03	3.179512e-03	2.688608e-03
4.35118       	9.390492e-03	3.163855e-03	2.668500e-03
4.36606       	9.850437e-03	3.156765e-03	2.648978e-03
4.38094       	9.857202e-03	3.142766e-03	2.627217e-03
4.39417       	2.433993e-02	2.763734e-03	2.707874e-03
4.4074        	1.900758e-02	3.210789e-03	2.447513e-03
4.42063       	1.023329e-02	2.774923e-03	2.362527e-03
4.43386       	8.999958e-03	2.772439e-03	2.329052e-03
4.44709       	8.596481e-03	2.757421e-03	2.318981e-03
4.46031       	8.351686e-03	2.746641e-03	2.311143e-03
4.47354       	8.502236e-03	2.734905e-03	2.318532e-03
4.48677       	8.823405e-03	2.721544e-03	2.314535e-03
4.5           	8.783532e-03	2.715656e-03	2.308572e-03
4.51389       	1.079123e-02	2.840750e-03	2.434235e-03
4.52778       	1.169537e-02	2.693626e-03	2.474982e-03
4.54167       	8.868845e-03	2.809741e-03	2.454993e-03
4.55556       	9.495633e-03	2.794707e-03	2.456590e-03
4.56944       	9.688668e-03	2.779465e-03	2.460704e-03
4.58333       	9.233626e-03	2.763780e-03	2.468900e-03
4.59677       	1.324031e-02	2.680500e-03	2.444613e-03
4.61022       	1.075568e-02	2.795673e-03	2.458287e-03
4.62366       	1.067288e-02	2.715621e-03	2.474048e-03
4.6371        	9.951378e-03	2.715932e-03	2.512304e-03
4.65054       	8.921398e-03	2.714944e-03	2.541052e-03
4.66398       	9.678220e-03	2.714458e-03	2.570080e-03
4.67742       	9.907116e-03	2.721612e-03	2.587375e-03
4.69086       	9.252069e-03	2.713921e-03	2.603467e-03
4.7043        	9.940991e-03	2.716514e-03	2.615217e-03
4.71774       	1.007516e-02	2.721905e-03	2.644324e-03
4.73118       	9.377776e-03	2.723130e-03	2.682947e-03
4.74462       	1.065933e-02	2.730048e-03	2.708379e-03
4.75806       	9.771554e-03	2.751649e-03	2.743156e-03
4.77151       	9.890526e-03	2.763749e-03	2.780810e-03
4.7842        	1.781125e-02	2.621531e-03	2.748716e-03
4.79689       	1.328546e-02	2.790448e-03	2.790413e-03
4.80959       	1.504846e-02	2.682720e-03	2.759947e-03
4.82228       	1.081300e-02	2.714652e-03	2.777111e-03
4.83498       	1.067814e-02	2.674717e-03	2.779624e-03
4.84767       	1.092701e-02	2.654141e-03	2.820080e-03
4.86036       	1.163549e-02	2.660101e-03	2.884084e-03
4.87306       	1.130059e-02	2.694862e-03	2.960817e-03
4.88575       	1.168683e-02	2.740502e-03	3.025301e-03
4.89845       	1.021757e-02	2.789106e-03	3.084695e-03
4.91114       	1.066446e-02	2.841491e-03	3.125464e-03
4.92384       	9.933538e-03	2.883248e-03	3.193998e-03
4.93653       	9.838727e-03	2.933165e-03	3.257698e-03
4.94922       	1.062079e-02	2.986595e-03	3.343513e-03
4.96192       	1.046234e-02	3.030395e-03	3.398343e-03
4.97461       	1.034612e-02	3.080703e-03	3.427415e-03
4.98731       	1.132664e-02	3.135213e-03	3.462898e-03
5             	1.329957e-02	3.180195e-03	3.573860e-03
5.01316       	1.644903e-02	3.494190e-03	3.857142e-03
5.02632       	1.206746e-02	3.440026e-03	3.820367e-03
5.03947       	1.111895e-02	3.507425e-03	3.869626e-03
5.05263       	1.087690e-02	3.559698e-03	3.943118e-03
5.06579       	1.162202e-02	3.608703e-03	4.004849e-03
5.07895       	1.234965e-02	3.653950e-03	4.078921e-03
5.09211       	1.530001e-02	3.724395e-03	4.166574e-03
5.10526       	1.424596e-02	3.809134e-03	4.238019e-03
5.11842       	1.338529e-02	3.869858e-03	4.291238e-03
5.13158       	1.439820e-02	3.927314e-03	4.384347e-03
5.14474       	1.917819e-02	4.055170e-03	4.587361e-03
5.15789       	1.228490e-02	4.211117e-03	4.619845e-03
5.17105       	1.403653e-02	4.183390e-03	4.585408e-03
5.18421       	1.322438e-02	4.241293e-03	4.621834e-03
5.19737       	1.288204e-02	4.302389e-03	4.655684e-03
5.21053       	1.242268e-02	4.333758e-03	4.687810e-03
5.22368       	1.306714e-02	4.369132e-03	4.689447e-03
5.23684       	1.184442e-02	4.389772e-03	4.702212e-03
5.25069       	1.614826e-02	4.639883e-03	4.933028e-03
5.26454       	1.688238e-02	4.525869e-03	4.889486e-03
5.27839       	1.246058e-02	4.628514e-03	4.940740e-03
5.29224       	2.795042e-02	4.654334e-03	5.150222e-03
5.30609       	2.556041e-02	5.305597e-03	5.561640e-03
5.31994       	1.575703e-02	5.446910e-03	5.506065e-03
5.3338        	1.468492e-02	5.370767e-03	5.417441e-03
5.34765       	1.466614e-02	5.360472e-03	5.400292e-03
5.3615        	1.428291e-02	5.329240e-03	5.368524e-03
5.37535       	1.435161e-02	5.277789e-03	5.340098e-03
5.3892        	1.406529e-02	5.263693e-03	5.325412e-03
5.40305       	1.554823e-02	5.239667e-03	5.288104e-03
5.4169        	2.165859e-02	5.211776e-03	5.390096e-03
5.43075       	1.787025e-02	5.337094e-03	5.519289e-03
5.4446        	2.894041e-02	5.281205e-03	5.793384e-03
5.45845       	2.385288e-02	5.848070e-03	5.752415e-03
5.4723        	2.099545e-02	5.321335e-03	5.409456e-03
5.48615       	1.768743e-02	5.314104e-03	5.409682e-03
5.5           	1.834776e-02	5.476351e-03	5.502848e-03
5.51429       	1.837750e-02	5.796193e-03	5.698097e-03
5.52857       	1.873133e-02	5.806542e-03	5.705281e-03
5.54286       	1.635056e-02	5.926321e-03	5.774016e-03
5.55671       	3.394483e-02	5.768997e-03	6.022236e-03
5.57056       	3.801451e-02	6.486802e-03	6.181263e-03
5.58442       	1.996504e-02	6.325495e-03	5.936556e-03
5.59827       	2.031492e-02	6.217376e-03	5.823546e-03
5.61212       	2.017638e-02	6.243975e-03	5.794660e-03
5.62597       	1.747164e-02	6.268365e-03	5.763404e-03
5.63933       	3.381792e-02	6.125731e-03	5.886666e-03
5.65269       	2.813820e-02	6.885410e-03	6.125575e-03
5.66605       	2.610996e-02	6.376302e-03	5.740270e-03
5.67941       	2.156578e-02	6.368782e-03	5.731457e-03
5.69276       	1.857630e-02	6.309813e-03	5.675269e-03
5.70612       	1.884024e-02	6.245591e-03	5.630068e-03
5.71948       	2.395495e-02	6.249047e-03	5.629219e-03
5.73223       	4.018094e-02	6.155994e-03	5.709321e-03
5.74498       	3.015911e-02	6.490329e-03	5.674663e-03
5.75773       	2.075513e-02	6.215760e-03	5.507192e-03
5.77048       	1.705377e-02	6.147155e-03	5.433677e-03
5.78323       	1.659432e-02	6.032755e-03	5.369067e-03
5.79599       	1.566474e-02	5.975359e-03	5.272056e-03
5.80874       	2.266921e-02	5.926290e-03	5.262812e-03
5.82149       	1.967380e-02	6.096551e-03	5.347662e-03
5.83424       	1.725162e-02	5.859601e-03	5.201725e-03
5.84699       	2.042032e-02	5.757827e-03	5.100839e-03
5.85876       	3.344849e-02	5.393359e-03	4.970454e-03
5.87053       	2.940458e-02	5.773576e-03	4.955208e-03
5.8823        	2.232780e-02	5.620584e-03	4.873733e-03
5.89407       	2.615398e-02	5.625089e-03	4.934656e-03
5.90584       	2.567535e-02	5.830827e-03	5.014813e-03
5.9163        	2.970278e-02	5.158026e-03	4.579749e-03
5.92676       	2.618305e-02	5.351416e-03	4.428847e-03
5.93723       	1.859328e-02	4.994223e-03	4.174561e-03
5.94769       	1.692977e-02	4.935369e-03	4.092975e-03
5.95815       	1.689529e-02	4.953406e-03	4.047857e-03
5.96861       	2.297399e-02	5.004210e-03	4.060924e-03
5.97908       	4.618474e-02	5.258446e-03	4.550896e-03
5.98954       	3.005669e-02	5.871022e-03	4.607538e-03
6             	2.705163e-02	5.378379e-03	4.372457e-03
6.01042       	2.022399e-02	5.244462e-03	4.236536e-03
6.02083       	2.064097e-02	5.125722e-03	4.166362e-03
6.03103       	2.431799e-02	5.001961e-03	4.057973e-03
6.04122       	2.063868e-02	4.907356e-03	3.880771e-03
6.05142       	2.130332e-02	4.749023e-03	3.799866e-03
6.06161       	2.665192e-02	4.738920e-03	3.880569e-03
6.07181       	2.818347e-02	4.938623e-03	4.001425e-03
6.082         	2.226553e-02	4.929938e-03	3.901840e-03
6.0922        	3.459648e-02	4.796259e-03	4.091459e-03
6.10239       	2.605345e-02	4.869949e-03	4.053458e-03
6.11259       	2.152933e-02	4.641010e-03	3.989916e-03
6.12278       	1.818736e-02	4.635820e-03	3.956378e-03
6.13298       	2.200273e-02	4.674791e-03	4.013508e-03
6.14317       	2.394285e-02	4.691999e-03	3.898678e-03
6.15337       	2.672531e-02	4.550559e-03	3.904405e-03
6.16356       	2.288597e-02	4.616412e-03	3.968371e-03
6.17376       	2.703537e-02	4.701293e-03	3.982078e-03
6.18395       	3.388427e-02	4.648733e-03	4.094453e-03
6.19415       	2.974358e-02	4.870208e-03	4.176463e-03
6.20434       	2.426028e-02	4.807420e-03	4.046991e-03
6.21454       	2.402012e-02	4.691843e-03	3.987309e-03
6.22511       	2.562384e-02	4.872734e-03	4.084773e-03
6.23568       	2.375669e-02	4.844329e-03	4.069982e-03
6.24626       	2.197882e-02	4.905936e-03	4.055629e-03
6.25683       	3.770691e-02	4.942303e-03	4.461930e-03
6.2674        	3.921016e-02	5.438490e-03	4.554890e-03
6.27797       	2.360751e-02	5.117118e-03	4.335286e-03
6.28855       	2.219035e-02	4.951274e-03	4.197305e-03
6.29912       	2.177271e-02	4.904109e-03	4.203837e-03
6.30969       	2.062895e-02	4.939492e-03	4.238606e-03
6.32027       	2.000703e-02	4.898254e-03	4.203854e-03
6.33084       	2.183966e-02	4.866414e-03	4.140858e-03
6.34141       	2.250061e-02	4.926958e-03	4.096641e-03
6.35198       	1.998761e-02	4.976518e-03	4.107364e-03
6.36256       	3.549127e-02	5.069719e-03	4.320388e-03
6.37313       	2.659785e-02	5.449410e-03	4.418909e-03
6.3837        	2.640343e-02	5.197402e-03	4.434166e-03
6.39427       	2.672438e-02	5.207417e-03	4.482594e-03
6.40485       	3.166353e-02	5.195428e-03	4.512705e-03
6.41542       	2.677637e-02	5.235904e-03	4.530165e-03
6.42599       	2.918183e-02	5.298586e-03	4.589282e-03
6.43656       	4.029084e-02	5.365493e-03	4.810084e-03
6.44714       	4.289597e-02	5.295761e-03	4.695633e-03
6.45771       	2.907505e-02	5.083800e-03	4.356983e-03
6.46828       	2.974064e-02	4.975092e-03	4.234286e-03
6.47885       	2.587619e-02	5.015897e-03	4.193644e-03
6.48943       	2.558246e-02	5.063114e-03	4.226399e-03
6.5           	2.516636e-02	5.149187e-03	4.291586e-03
6.51111       	2.949747e-02	5.486034e-03	4.601767e-03
6.52222       	2.642007e-02	5.445104e-03	4.595665e-03
6.5336        	2.296303e-02	5.491686e-03	4.605960e-03
6.54497       	2.625821e-02	5.423045e-03	4.613115e-03
6.55635       	3.254012e-02	5.447825e-03	4.694458e-03
6.56772       	3.894608e-02	5.483454e-03	5.032100e-03
6.57941       	3.820167e-02	5.525663e-03	5.196810e-03
6.59109       	2.894645e-02	5.332380e-03	5.091975e-03
6.60277       	2.447131e-02	5.364218e-03	5.012743e-03
6.61446       	2.434905e-02	5.337345e-03	4.914676e-03
6.62614       	2.434538e-02	5.244556e-03	4.792690e-03
6.63782       	2.515709e-02	5.169324e-03	4.666076e-03
6.64951       	2.310430e-02	5.159259e-03	4.554910e-03
6.66119       	2.554454e-02	5.148318e-03	4.550994e-03
6.67287       	3.149421e-02	5.184906e-03	4.584381e-03
6.68456       	3.299547e-02	5.136725e-03	4.634304e-03
6.69624       	3.631554e-02	5.197583e-03	4.919867e-03
6.70792       	3.175950e-02	5.165704e-03	4.897116e-03
6.71961       	2.666364e-02	5.092217e-03	4.843806e-03
6.73129       	2.805974e-02	5.060274e-03	4.806563e-03
6.74297       	2.915086e-02	5.015138e-03	4.755137e-03
6.75465       	2.590466e-02	4.929970e-03	4.833930e-03
6.76634       	2.823797e-02	4.897889e-03	4.793950e-03
6.77802       	2.967965e-02	4.891868e-03	4.776182e-03
6.7897        	2.717598e-02	4.939956e-03	4.732594e-03
6.80077       	2.982483e-02	4.663380e-03	4.511724e-03
6.81184       	2.492156e-02	4.713474e-03	4.416989e-03
6.82291       	2.286570e-02	4.577702e-03	4.278356e-03
6.83398       	2.384615e-02	4.514511e-03	4.187861e-03
6.84435       	3.129673e-02	4.174319e-03	3.982658e-03
6.85473       	3.673836e-02	4.246589e-03	4.343110e-03
6.86511       	2.142257e-02	4.179678e-03	4.278262e-03
6.87548       	2.053571e-02	4.084498e-03	4.224363e-03
6.88586       	2.314774e-02	4.015829e-03	4.150778e-03
6.89624       	2.479422e-02	3.993922e-03	4.078417e-03
6.90661       	2.496155e-02	3.987077e-03	3.991179e-03
6.91699       	2.753127e-02	3.959641e-03	3.980571e-03
6.92736       	2.283123e-02	3.942468e-03	3.898338e-03
6.93774       	2.270034e-02	3.902402e-03	3.792135e-03
6.94812       	2.368578e-02	3.857279e-03	3.765948e-03
6.95849       	2.227405e-02	3.835355e-03	3.718345e-03
6.96887       	2.564304e-02	3.821393e-03	3.771560e-03
6.97665       	6.786372e-02	2.866405e-03	3.355748e-03
6.98444       	4.886321e-02	3.229682e-03	3.243560e-03
6.99222       	2.314227e-02	2.810260e-03	2.886502e-03
7             	1.851566e-02	2.777819e-03	2.845092e-03
7.00862       	3.412497e-02	3.047966e-03	3.121317e-03
7.01789       	2.308797e-02	3.272602e-03	3.208567e-03
7.02699       	2.607270e-02	3.191797e-03	3.124385e-03
7.03591       	2.214450e-02	3.098653e-03	3.028246e-03
7.04484       	2.285770e-02	3.078485e-03	3.007181e-03
7.05376       	1.915315e-02	3.018329e-03	2.993528e-03
7.06287       	1.908287e-02	3.015571e-03	3.046383e-03
7.07198       	1.898331e-02	2.999748e-03	3.047511e-03
7.08128       	1.847108e-02	3.032028e-03	3.109529e-03
7.09059       	1.763437e-02	2.999705e-03	3.085329e-03
7.10011       	1.897898e-02	3.055117e-03	3.126143e-03
7.10963       	1.806068e-02	2.991794e-03	3.083901e-03
7.11939       	1.667411e-02	3.019524e-03	3.132588e-03
7.12915       	1.804056e-02	2.993632e-03	3.110705e-03
7.13917       	1.803549e-02	3.074898e-03	3.179677e-03
7.14919       	1.815729e-02	3.094299e-03	3.201675e-03
7.15951       	2.344428e-02	3.193201e-03	3.304580e-03
7.16983       	2.123960e-02	3.203038e-03	3.252611e-03
7.18015       	2.021033e-02	3.189711e-03	3.207469e-03
7.19081       	2.361439e-02	3.250840e-03	3.252068e-03
7.20147       	1.835585e-02	3.192746e-03	3.223755e-03
7.21213       	1.779034e-02	3.161463e-03	3.167552e-03
7.22279       	1.839390e-02	3.146175e-03	3.121083e-03
7.23346       	2.080066e-02	3.114492e-03	3.139585e-03
7.24412       	2.026229e-02	3.082296e-03	3.115351e-03
7.25478       	2.143466e-02	3.052555e-03	3.112594e-03
7.26544       	1.906212e-02	3.005014e-03	3.110714e-03
7.2761        	1.972965e-02	2.990568e-03	3.092136e-03
7.28676       	1.891232e-02	2.966215e-03	3.051139e-03
7.29743       	1.809916e-02	2.948478e-03	3.023189e-03
7.30809       	1.706139e-02	2.936329e-03	3.003364e-03
7.31875       	1.869736e-02	2.914922e-03	2.989179e-03
7.32941       	1.659025e-02	2.903882e-03	2.951468e-03
7.34007       	1.809826e-02	2.885055e-03	2.956146e-03
7.35074       	2.362322e-02	2.905123e-03	2.981120e-03
7.3614        	1.806506e-02	2.906279e-03	2.904956e-03
7.37206       	1.852398e-02	2.883876e-03	2.851721e-03
7.38272       	1.921970e-02	2.865634e-03	2.789507e-03
7.39338       	1.778107e-02	2.834423e-03	2.757198e-03
7.40404       	1.708497e-02	2.800085e-03	2.727697e-03
7.41471       	1.785899e-02	2.800413e-03	2.709133e-03
7.42418       	3.186179e-02	2.457769e-03	2.619136e-03
7.43366       	2.500708e-02	2.585367e-03	2.502845e-03
7.44314       	1.860450e-02	2.438946e-03	2.404909e-03
7.45261       	1.736766e-02	2.431889e-03	2.378353e-03
7.46209       	1.333400e-02	2.419128e-03	2.341207e-03
7.47157       	1.265950e-02	2.400432e-03	2.292522e-03
7.48105       	1.383305e-02	2.368069e-03	2.273455e-03
7.49052       	1.388219e-02	2.352512e-03	2.283763e-03
7.5           	1.516094e-02	2.360870e-03	2.284926e-03
7.51          	2.161585e-02	2.480013e-03	2.409916e-03
7.5198        	2.390984e-02	2.437328e-03	2.447244e-03
7.5296        	1.781253e-02	2.388568e-03	2.426205e-03
7.5394        	1.477081e-02	2.347802e-03	2.399933e-03
7.5492        	1.666747e-02	2.328935e-03	2.369628e-03
7.559         	1.393050e-02	2.317159e-03	2.330791e-03
7.5688        	1.396673e-02	2.296861e-03	2.305883e-03
7.57838       	1.956240e-02	2.259834e-03	2.290375e-03
7.58796       	1.776318e-02	2.253071e-03	2.284790e-03
7.59755       	1.603245e-02	2.230986e-03	2.277788e-03
7.60713       	1.569214e-02	2.217096e-03	2.258528e-03
7.61695       	1.629440e-02	2.252230e-03	2.311658e-03
7.62677       	1.633571e-02	2.240886e-03	2.332762e-03
7.63659       	1.643404e-02	2.212566e-03	2.363866e-03
7.64642       	1.449485e-02	2.197003e-03	2.381713e-03
7.65624       	1.421458e-02	2.167059e-03	2.386228e-03
7.66606       	1.408967e-02	2.163691e-03	2.399298e-03
7.67588       	1.444358e-02	2.174823e-03	2.394568e-03
7.68601       	1.681385e-02	2.240562e-03	2.474715e-03
7.69614       	1.662224e-02	2.213918e-03	2.501829e-03
7.70627       	1.814853e-02	2.199437e-03	2.544003e-03
7.7164        	1.628805e-02	2.186420e-03	2.569997e-03
7.72652       	1.652703e-02	2.160128e-03	2.600903e-03
7.73665       	1.628217e-02	2.138065e-03	2.637486e-03
7.74678       	1.519771e-02	2.138517e-03	2.650238e-03
7.75691       	1.571859e-02	2.118836e-03	2.635096e-03
7.76704       	1.631583e-02	2.124807e-03	2.622444e-03
7.77675       	1.867328e-02	2.036279e-03	2.539286e-03
7.78645       	1.716212e-02	2.041013e-03	2.522996e-03
7.79616       	1.483303e-02	2.029033e-03	2.486358e-03
7.80587       	1.578251e-02	2.010854e-03	2.506460e-03
7.81557       	1.598277e-02	2.000213e-03	2.520351e-03
7.82528       	1.686897e-02	1.989754e-03	2.527218e-03
7.83499       	1.539627e-02	1.986901e-03	2.513169e-03
7.84415       	2.333678e-02	1.875870e-03	2.452169e-03
7.85332       	2.033969e-02	1.911792e-03	2.464619e-03
7.86249       	1.422615e-02	1.895961e-03	2.443645e-03
7.87166       	1.284840e-02	1.899405e-03	2.421834e-03
7.88082       	1.444163e-02	1.890232e-03	2.410619e-03
7.88934       	2.649837e-02	1.776328e-03	2.317447e-03
7.89785       	2.457565e-02	1.815076e-03	2.299212e-03
7.90636       	1.811384e-02	1.798873e-03	2.243697e-03
7.91487       	1.611182e-02	1.827268e-03	2.228761e-03
7.92339       	1.576934e-02	1.833100e-03	2.222095e-03
7.9319        	1.499535e-02	1.828051e-03	2.202854e-03
7.94041       	1.827931e-02	1.829269e-03	2.207657e-03
7.94892       	1.548474e-02	1.819297e-03	2.218005e-03
7.95744       	1.429746e-02	1.827455e-03	2.209636e-03
7.96595       	1.211266e-02	1.819943e-03	2.202807e-03
7.97446       	1.156182e-02	1.828132e-03	2.190455e-03
7.98297       	1.352081e-02	1.821935e-03	2.191950e-03
7.99149       	1.338541e-02	1.818499e-03	2.215558e-03
8             	1.180161e-02	1.838510e-03	2.217095e-03
8.00877       	1.427757e-02	1.886293e-03	2.295918e-03
8.0177        	1.406984e-02	1.933689e-03	2.322431e-03
8.02663       	2.141560e-02	1.926067e-03	2.401937e-03
8.03557       	1.723414e-02	1.911563e-03	2.363174e-03
8.0445        	1.584949e-02	1.927897e-03	2.313560e-03
8.05343       	1.499967e-02	1.903551e-03	2.262953e-03
8.06236       	1.277159e-02	1.906468e-03	2.216989e-03
8.07148       	1.424563e-02	1.928822e-03	2.276164e-03
8.0806        	1.575994e-02	1.927405e-03	2.276595e-03
8.08971       	1.319753e-02	1.935465e-03	2.254800e-03
8.09883       	1.225686e-02	1.922721e-03	2.230941e-03
8.10795       	1.167748e-02	1.899788e-03	2.214755e-03
8.11707       	1.327273e-02	1.888429e-03	2.202170e-03
8.12618       	1.501952e-02	1.893043e-03	2.203039e-03
8.1353        	1.079946e-02	1.907280e-03	2.152188e-03
8.14442       	1.067436e-02	1.893560e-03	2.149781e-03
8.15354       	1.172527e-02	1.877662e-03	2.167749e-03
8.16265       	1.232271e-02	1.872243e-03	2.163918e-03
8.17153       	1.476922e-02	1.824082e-03	2.128088e-03
8.18041       	1.246769e-02	1.815833e-03	2.088279e-03
8.18929       	1.171586e-02	1.809119e-03	2.068901e-03
8.19816       	1.290615e-02	1.823101e-03	2.078935e-03
8.20704       	1.324418e-02	1.832158e-03	2.056585e-03
8.21592       	1.347946e-02	1.838173e-03	2.068463e-03
8.2248        	1.181038e-02	1.843927e-03	2.053288e-03
8.23367       	1.021803e-02	1.822635e-03	2.015750e-03
8.24255       	9.079330e-03	1.810885e-03	1.996925e-03
8.25143       	9.719481e-03	1.810377e-03	1.976389e-03
8.26          	1.342580e-02	1.744155e-03	1.929360e-03
8.26857       	1.217998e-02	1.744751e-03	1.908538e-03
8.27714       	1.006642e-02	1.715299e-03	1.871785e-03
8.28571       	9.881230e-03	1.721844e-03	1.852819e-03
8.29429       	9.446717e-03	1.733578e-03	1.841034e-03
8.30286       	1.126856e-02	1.754619e-03	1.868330e-03
8.31143       	9.951832e-03	1.750468e-03	1.860794e-03
8.31963       	1.506819e-02	1.678492e-03	1.815729e-03
8.32783       	1.380251e-02	1.697542e-03	1.809699e-03
8.33602       	1.185599e-02	1.686651e-03	1.795346e-03
8.34422       	9.364141e-03	1.687610e-03	1.773341e-03
8.35242       	9.139466e-03	1.688762e-03	1.775809e-03
8.36062       	9.249517e-03	1.682868e-03	1.785086e-03
8.36882       	8.828982e-03	1.678226e-03	1.776939e-03
8.37702       	8.473799e-03	1.667370e-03	1.757379e-03
8.38522       	8.919277e-03	1.663685e-03	1.759166e-03
8.39287       	1.928141e-02	1.553150e-03	1.701736e-03