/*--------------------------------*- C++ -*----------------------------------*\
  =========                 |
  \\      /  F ield         | OpenFOAM: The Open Source CFD Toolbox
   \\    /   O peration     | Website:  https://openfoam.org
    \\  /    A nd           | Version:  7
     \\/     M anipulation  |
\*---------------------------------------------------------------------------*/
FoamFile
{
    version     2.0;
    format      ascii;
    class       volScalarField;
    location    "11";
    object      p;
}
// * * * * * * * * * * * * * * * * * * * * * * * * * * * * * * * * * * * * * //

dimensions      [0 2 -2 0 0 0 0];

internalField   nonuniform List<scalar> 
918
(
0.220606
0.931555
0.00652598
0.219553
0.000483646
0.898698
-0.84067
0.408936
0.199995
-0.133523
0.0205947
0.191578
0.75914
0.528108
-1.45948
0.0154113
0.358925
-0.641644
0.198163
0.00589532
0.505382
0.207063
0.210439
0.201331
0.254696
0.525489
0.639997
-0.000606038
-0.00145063
-0.00120551
0.00173779
-0.00209404
0.00538666
0.782309
0.833447
0.856121
0.168696
0.0678852
-0.688565
-0.774518
-0.73119
-0.889086
0.393318
0.400212
-0.498052
0.406422
0.419591
0.189439
0.199535
0.200453
0.201707
0.200609
0.202433
0.311771
-0.149035
-0.218367
-0.0824747
-0.064505
0.0838456
0.0184228
0.0116004
0.0222331
0.0230458
0.13115
0.188394
0.185407
0.194511
0.204427
0.871111
0.842976
0.869138
0.782946
0.799441
0.736991
0.709569
0.546938
0.568306
0.515227
0.504189
-1.89174
-2.84978
-0.863506
-0.598996
0.00139134
0.0218199
0.0283904
0.339101
0.347297
0.352505
0.367014
0.82459
-0.586289
-0.778046
0.197912
0.195894
0.206483
0.207439
0.203656
0.202741
0.0133484
0.0175062
-0.00482684
0.00508539
0.00262044
0.473075
0.465273
0.202127
0.198719
0.211764
0.236437
0.22186
-0.0268589
0.268603
0.300478
0.316334
0.500858
0.501875
0.508147
0.613204
0.576754
0.677221
0.70006
0.00811509
0.00241792
0.0121765
0.00871281
0.0110393
0.167849
0.163039
0.181777
0.171327
0.174677
-0.02153
-0.162346
0.164448
0.18133
-0.605555
-0.680517
-0.711101
-0.770965
-0.890962
0.147867
0.383845
0.3887
-0.512884
-0.419288
-0.58142
-0.35084
-0.428106
0.175121
0.185215
0.178854
0.195757
0.191447
0.191948
0.203463
0.200817
0.202275
0.349923
0.425822
0.261557
0.238168
-0.404932
-0.266321
-0.405689
-0.0331965
-0.0222025
0.0940529
0.112357
0.0774582
0.0720315
-0.00693762
0.00504415
-0.00644801
0.0251621
0.0274673
0.124798
0.114894
0.140196
0.146706
0.181204
0.180652
0.183855
0.182513
0.66029
0.682434
0.690147
0.663804
-3.84332
-6.63084
-0.268953
-0.12077
0.00109782
0.00204415
0.000783986
0.00200239
0.00317236
0.000523061
0.044054
0.0389302
0.0324911
0.0355153
0.327655
0.331384
0.803658
0.865831
0.741988
0.73293
0.185876
0.189578
0.19359
0.18919
0.0257123
0.0197085
0.0257824
0.419492
0.44324
0.442399
-0.0637839
-0.151391
0.0213785
0.0475187
0.316239
0.301537
0.322496
0.382685
0.422012
0.707324
0.725939
0.724077
0.732927
0.776913
0.79325
0.75868
0.151159
0.160191
0.156152
0.184755
0.183095
0.182712
0.178448
0.18135
0.179539
-0.319667
-0.702011
0.091385
0.181168
0.232778
0.200729
0.275197
0.432492
0.361511
0.374825
0.381103
-0.283895
-0.355838
0.206712
0.183976
0.0735251
0.101038
0.0860234
0.6314
0.592055
0.64187
0.615207
0.576613
0.602019
-0.660188
-2.17239
-1.28045
0.25439
0.05359
0.148106
0.0634675
0.0491762
0.052819
0.819232
0.861712
0.474848
0.618112
0.582153
0.462601
0.494129
0.550845
0.474965
0.510204
0.546476
0.525409
-0.00270925
-0.0118156
-0.0487597
0.508668
0.676125
-0.173988
-0.220486
-0.283455
0.122741
0.157453
0.139395
0.841264
0.686104
0.816016
0.198488
0.199001
0.00930834
0.0142872
0.201992
0.202347
0.00604742
0.0100494
0.125572
-1.17621
-0.185831
0.190285
0.181959
0.1981
-0.109168
0.310694
0.0221244
0.0927374
0.0596494
0.186747
0.140179
0.104107
0.00694605
0.0191283
0.0137704
-0.459958
0.195416
0.193735
0.197428
0.199038
0.199505
0.00919922
0.00909867
0.00519047
0.0119886
0.00850332
0.00814098
0.167837
0.179038
-0.528398
0.197935
0.199715
0.199731
0.193384
0.198754
0.196677
0.0170006
0.0122996
0.0133857
-0.0737221
0.0409593
0.393739
0.516098
0.332551
0.100527
-0.153929
0.285156
0.356993
0.248258
0.425542
0.36418
0.389937
-0.131002
-0.274275
-0.111186
-0.166586
0.188276
0.188353
0.182106
0.174609
0.192898
0.191409
0.195873
0.193517
0.196219
0.197242
-0.0628242
-0.0643205
-0.133976
-0.215283
0.33403
0.424361
0.246766
0.250552
0.148511
0.0246421
0.0256971
0.0226938
0.0120337
0.0654952
0.0645293
0.0763158
0.0780294
0.0495704
0.0471147
0.0594906
0.0589368
0.0620871
0.182392
0.182497
0.186767
0.193693
0.146285
0.150605
0.121389
0.138499
0.128369
0.0721006
0.104342
0.0832606
0.00846943
0.00962171
0.00781274
0.0242753
0.0310926
0.015142
0.0127381
0.0134626
0.010717
0.0113972
0.0175408
0.0222188
-0.464624
-0.566994
0.846057
0.675753
0.20753
0.185872
0.190796
0.188864
0.194124
0.195682
0.195701
0.193679
0.1911
0.179167
0.180798
0.177452
0.177248
-0.477686
-0.571035
-0.425026
-0.466623
-0.121107
0.301051
0.051973
-0.00906409
-0.0140029
0.199809
0.558391
0.397422
0.470274
0.490924
-0.690666
-0.292156
-0.61779
-0.0206829
-0.213447
0.393099
0.447735
0.471987
0.416398
0.362137
-0.397013
0.193734
-0.379249
-0.341435
-0.15527
-0.24443
0.415485
0.348981
0.356877
0.378268
0.398329
0.351664
0.332469
0.327487
0.368791
0.373119
0.168415
-0.0375176
-0.0866644
-0.119242
0.329795
0.208704
0.263525
0.184714
0.182507
0.18588
0.183638
0.170395
0.176508
0.171036
0.178024
0.179438
0.189004
0.188263
0.184228
0.186066
-0.0398514
-0.0259219
-0.0996592
-0.320707
-0.234939
-0.322436
-0.157234
0.122312
0.110462
0.300232
0.322769
0.0685391
-0.23792
-0.154735
-0.280055
0.120922
0.03448
0.11032
0.162676
0.179013
0.144851
0.215104
0.200402
0.0419897
0.0532244
0.0317242
0.0313159
0.0998937
0.125683
0.11683
0.0495846
0.0481496
0.0259521
0.0264716
0.0755605
0.0443313
0.0587228
0.0687288
0.0233945
0.0260256
0.0294176
0.0432479
0.0412742
0.044229
0.178346
0.179526
0.179286
0.189692
0.201484
0.214299
0.185093
0.163648
0.156717
0.16037
0.137696
0.145399
0.142732
0.151308
0.170037
0.176208
0.176001
0.176948
0.162864
0.165454
0.153507
0.155981
0.139397
0.122915
0.110633
0.0187917
0.0126556
0.0155934
0.0165545
0.010598
0.0121244
0.0435831
0.0341698
0.0401627
0.0351852
0.0383281
0.0179925
0.0189118
-0.422167
-0.311616
-0.546813
-0.544856
-0.594628
0.773521
0.833426
0.67356
0.488663
0.527101
0.6984
0.77781
0.444906
0.529961
0.54508
-0.037869
0.590304
0.191474
0.190418
0.186458
0.185581
0.187816
-0.366096
-0.278395
-0.253852
-0.179366
0.0164175
0.139285
-0.175222
-0.321754
-0.147827
-0.177438
0.293524
0.310408
0.257045
0.28308
0.284153
0.120777
0.183522
0.236003
0.200773
0.237033
0.257139
0.21873
0.247712
0.200254
0.162312
0.163301
0.108241
0.128397
0.108206
0.0886964
0.178806
0.159
0.16824
0.162926
0.180423
0.210312
0.202604
0.222669
0.241485
0.168623
0.135137
0.143236
0.168347
0.131824
0.142571
0.157309
0.0223736
0.0126492
0.00495522
-0.391337
-0.274263
-0.30296
-0.346163
-0.29586
0.0102473
-0.746277
-0.698341
-1.32872
0.146145
0.590027
0.370818
0.342682
0.395152
0.369883
0.36956
0.408953
0.417624
0.319282
0.342976
0.34177
0.295048
0.320647
0.346438
0.346931
0.177145
0.0620444
0.0449894
0.0166838
-0.108395
-0.0789133
0.126472
0.0502441
-0.0184526
-0.0107364
0.145134
0.0496615
0.112916
0.140427
0.0759282
0.0378253
0.226659
0.285414
0.282501
0.258379
0.17771
0.18701
0.214132
0.245542
0.27169
0.304828
0.178857
0.184142
0.184845
0.182687
0.179543
0.181345
0.180792
0.182773
0.184068
0.186628
0.185083
0.0124313
0.0214846
-0.00553556
0.00146988
0.00472541
-0.023592
0.0471272
-0.0197886
0.0357961
0.0351146
0.00204167
-0.0123363
0.00324268
0.0191409
0.169206
0.197993
0.181303
0.127921
0.23059
0.396957
0.414149
0.362977
0.20725
0.231875
0.300497
0.0871437
0.0956943
0.0834773
0.10851
0.101476
0.0292859
0.0289248
0.0340017
0.0410121
0.0388534
0.0310221
0.0246507
0.0261706
0.0292568
0.0272574
0.0260183
0.165568
0.161645
0.16247
0.156673
0.154972
0.167808
0.170678
0.171982
0.176091
0.17725
0.171006
0.174059
0.176441
0.0296721
0.0239186
0.0258875
0.0249796
0.0258093
0.0217887
0.0208067
-0.519975
-0.370759
-0.290206
-0.534184
-0.495179
-0.483209
-0.0628746
-0.181807
-0.123161
0.432856
0.19987
0.127908
0.168742
0.286623
-0.231796
0.0528442
-0.192067
0.719927
0.546638
0.718368
0.229673
-0.0647528
0.0770389
0.118755
-0.0166949
0.0280496
-0.0151057
-0.10994
-0.0845894
-0.0538428
0.0424376
-0.0159324
0.0554973
-0.135931
-0.155397
0.00360161
-0.03884
0.161706
0.222317
-0.244006
-0.143151
-0.253852
0.285663
0.303395
0.319028
0.293783
0.315441
0.245228
0.235335
0.254804
0.264317
0.255281
-1.07054
-0.789346
-1.73766
-1.08721
-0.657225
0.166229
0.146328
0.370372
0.281607
0.370135
0.353857
0.319036
0.287051
0.286714
0.32421
0.043906
0.14722
0.120446
0.130426
0.0393208
-0.0217422
0.258743
0.251925
0.290165
0.314056
0.271778
0.315432
0.175379
0.176031
0.174863
0.172294
0.168842
0.170594
0.0985288
0.0759165
0.117316
0.0978304
0.0633832
0.0574325
0.0373855
0.0315834
0.029256
0.0295469
0.0334838
0.0383833
-0.470825
-0.530199
-0.662858
-0.652351
-0.410156
-0.521811
-0.483434
-0.657113
-0.535107
-0.402365
0.129977
0.484212
0.201434
0.586421
0.381065
0.523056
-0.0266714
0.173885
0.130647
0.0210703
-0.0130939
-0.14012
-0.608709
-0.537803
0.37381
0.388582
0.194938
-0.00705142
-0.246496
-0.0574462
0.208156
0.148137
0.189872
0.253086
0.250068
-0.329502
-0.256153
0.0122655
0.245361
-0.00967633
-0.077531
-0.0367201
0.086362
0.0153781
)
;

boundaryField
{
    wall-4
    {
        type            zeroGradient;
    }
    velocity-inlet-5
    {
        type            zeroGradient;
    }
    velocity-inlet-6
    {
        type            zeroGradient;
    }
    pressure-outlet-7
    {
        type            fixedValue;
        value           uniform 0;
    }
    wall-8
    {
        type            zeroGradient;
    }
    frontAndBackPlanes
    {
        type            empty;
    }
}


// ************************************************************************* //
