/*--------------------------------*- C++ -*----------------------------------*\
  =========                 |
  \\      /  F ield         | OpenFOAM: The Open Source CFD Toolbox
   \\    /   O peration     | Website:  https://openfoam.org
    \\  /    A nd           | Version:  8
     \\/     M anipulation  |
\*---------------------------------------------------------------------------*/
FoamFile
{
    version     2.0;
    format      ascii;
    class       volVectorField;
    location    "9.8";
    object      U;
}
// * * * * * * * * * * * * * * * * * * * * * * * * * * * * * * * * * * * * * //

dimensions      [0 1 -1 0 0 0 0];

internalField   nonuniform List<vector> 
17372
(
(0.000660017 0.00114244 1.10069e-21)
(7.83429e-05 0.000245978 4.0509e-21)
(0.000594579 0.00103727 1.20395e-23)
(0.000545876 0.000970779 1.48701e-21)
(0.000108841 2.66986e-05 -2.3837e-22)
(6.84693e-05 0.000250473 -1.87335e-21)
(0.000641992 0.00109963 9.66347e-23)
(0.000257184 0.000544033 -4.51837e-22)
(0.000595486 0.00104059 -1.94356e-22)
(0.000478529 0.000633345 4.77146e-22)
(0.000563017 0.000917498 -1.07554e-21)
(0.00013135 0.00018491 9.79925e-22)
(0.00120139 6.41044e-05 1.33133e-21)
(0.000955628 8.87877e-05 1.01069e-21)
(0.000640318 0.00110701 -1.05533e-22)
(0.000196513 0.000384301 -5.17335e-22)
(0.000129146 0.000175745 -1.49415e-21)
(0.000401941 0.000192398 1.03613e-21)
(0.000979481 3.57965e-05 3.08957e-25)
(0.000193621 0.000598384 0)
(0.000637808 0.00110617 -4.93281e-23)
(0.000592908 0.00111544 -1.41116e-22)
(0.000663057 0.00114841 -1.43356e-21)
(0.000212132 0.000594599 -3.1102e-21)
(0.000426836 0.00012609 -2.87223e-21)
(0.000636703 0.00110806 4.94558e-23)
(0.000662618 0.00114842 4.16678e-24)
(0.000556285 0.000934698 3.97373e-22)
(0.00101166 8.8208e-05 7.91823e-22)
(0.000662799 0.00114855 -7.26246e-22)
(0.000602645 0.00104423 -2.04072e-22)
(8.97772e-05 8.85455e-05 1.31917e-21)
(0.000662977 0.00114851 -5.40983e-24)
(0.000635943 0.00110783 -2.32327e-22)
(0.00017173 0.000723558 5.14758e-22)
(0.000475502 0.000837455 -4.55084e-24)
(0.000636859 0.00110863 0)
(0.00026254 0.000176544 -2.88333e-23)
(0.000500298 0.000872178 2.71338e-22)
(0.000446985 0.00081733 3.48628e-23)
(0.000662557 0.00114822 4.56302e-24)
(0.000557457 0.000991967 2.33283e-22)
(0.000584452 0.00101088 3.18855e-22)
(0.000660509 0.000581634 2.66194e-23)
(0.000481521 0.000830701 0)
(0.000663161 0.00114837 7.0384e-22)
(4.52601e-05 0.0002009 3.84378e-22)
(0.000245882 0.000433075 -8.8995e-23)
(0.000636148 0.00110835 -1.66414e-22)
(0.000490659 0.000838381 4.34352e-22)
(3.35892e-05 0.000261025 9.3047e-22)
(0.000640274 0.00110432 2.94611e-22)
(0.000494468 0.000842452 -4.90933e-24)
(0.000602556 0.00104845 7.21195e-22)
(0.000411137 0.000183611 -8.2911e-22)
(0.000219959 0.000121782 -2.62557e-22)
(0.000635381 0.0011081 -1.90924e-22)
(0.000511581 0.000954355 1.38785e-23)
(0.00060282 0.00104117 -2.28128e-22)
(0.000221602 0.000511152 -7.60054e-22)
(0.000480902 0.000829235 9.48413e-24)
(0.000463886 0.000566415 -3.88577e-22)
(0.000662871 0.00114857 7.19524e-22)
(0.000612209 0.00103955 5.97886e-22)
(0.000557458 0.000901833 -5.47169e-24)
(0.000212794 0.00051603 9.39235e-22)
(0.000473803 0.000828521 -2.52343e-22)
(0.000466756 0.000860481 -4.67706e-23)
(0.000471675 0.00125678 -1.76932e-24)
(0.000273291 0.00019689 1.99144e-22)
(0.000712752 0.000411092 0)
(0.000238052 0.000417484 1.69977e-22)
(0.000737526 0.00127674 -2.96215e-22)
(0.000481718 0.000834115 9.0099e-22)
(0.000556962 0.000911661 -9.32216e-22)
(0.000596705 0.00102799 -9.84809e-22)
(0.000532513 0.000920964 -3.22947e-22)
(0.000623359 0.00108848 0)
(0.000541848 0.00119449 4.51185e-22)
(0.000511903 0.000953578 -2.4652e-21)
(9.36431e-06 0.000227463 0)
(0.000460454 0.000817868 3.17447e-22)
(0.000511055 0.000869115 -7.3133e-22)
(0.000112515 3.28137e-05 -1.27068e-21)
(8.28621e-06 0.000234584 -1.21304e-22)
(0.000636356 0.00111569 0)
(0.000487194 0.000834543 -8.8604e-22)
(0.000536174 0.00094222 -9.16792e-25)
(0.000636553 0.00110874 1.49425e-22)
(1.14977e-05 0.000419622 0)
(0.000704046 0.00127767 -6.67958e-23)
(0.000632669 0.00111254 6.05431e-23)
(0.000469588 0.000489447 0)
(0.00059147 -4.04148e-05 -8.91192e-22)
(7.81416e-06 0.000498395 -6.13555e-22)
(0.000662715 0.00114791 8.0113e-22)
(0.000928859 -4.38269e-05 0)
(4.52087e-05 0.000192875 1.77195e-22)
(0.000418014 0.000168583 -9.11258e-22)
(0.000242341 0.000560024 1.71613e-25)
(0.000872826 0.000271335 -5.19158e-22)
(0.000472207 0.00081556 7.51394e-22)
(0.000267892 0.000186536 -1.13776e-22)
(0.000154777 0.00034399 -9.97748e-22)
(0.000601214 0.00103716 0)
(0.000634978 0.00110982 6.72841e-24)
(0.000611874 0.00104453 1.49594e-24)
(0.000966919 0.000877564 -3.95931e-21)
(0.000125879 0.000123131 0)
(0.000475936 0.00082203 -1.34312e-21)
(0.000747538 0.00149323 0)
(0.000299692 0.000302015 9.70167e-22)
(0.000478947 0.000827107 7.82571e-22)
(0.000491571 0.000843226 -8.44123e-22)
(0.000583855 0.00101779 0)
(0.000466041 0.000815557 -9.27401e-23)
(0.000482056 0.000832548 -8.00791e-22)
(0.000633282 0.00110944 -1.38849e-22)
(0.000651843 0.00117869 0)
(0.000485255 0.000837791 0)
(0.000599403 0.00104087 2.03996e-22)
(0.000488241 0.000842067 -2.04554e-22)
(0.000601543 0.00103951 2.2241e-22)
(0.000500744 0.000879496 1.02323e-22)
(0.000280188 0.000207584 -1.17488e-22)
(0.000600563 0.00103603 2.34134e-22)
(0.000570829 0.000984073 6.84205e-22)
(0.000496734 0.00051021 3.37457e-22)
(6.75641e-05 -9.23026e-06 -6.13864e-22)
(0.000490898 0.000843664 -4.13987e-22)
(0.000598422 0.00103164 -2.57103e-22)
(0.000567197 0.000978957 0)
(0.000662676 0.00114852 7.43355e-22)
(0.000491227 0.00084046 4.28574e-22)
(0.000574975 0.000991052 2.18113e-22)
(0.000485377 0.000520655 4.57611e-22)
(0.000504722 0.000923238 -5.25699e-22)
(0.000578173 0.000996938 -2.01111e-22)
(0.000587428 0.00132701 -5.5398e-22)
(0.000134737 0.000139164 -7.9535e-22)
(0.000499355 0.000604841 8.3128e-22)
(0.00058159 0.00100281 1.93477e-22)
(0.000588332 0.00101529 0)
(0.000595266 0.00102573 -2.77453e-22)
(4.13037e-05 0.000484589 7.99697e-23)
(0.000588481 0.00101586 0)
(0.000590668 0.001018 4.59018e-24)
(0.000972471 4.05765e-05 -7.60254e-22)
(0.000675931 0.000650614 -7.78552e-22)
(0.000546051 0.00097806 -1.08513e-24)
(0.000280574 0.000490853 -8.67367e-23)
(0.000500637 0.000856958 -7.70019e-22)
(0.000609574 0.00131935 -4.0907e-24)
(0.000739303 0.00127788 2.6816e-22)
(2.19787e-05 0.000347159 7.37042e-22)
(0.000511062 0.000882655 3.22989e-22)
(0.0010138 0.000932563 5.96312e-22)
(8.23887e-05 1.87391e-05 -4.49884e-23)
(8.07628e-05 0.000516766 -1.68394e-21)
(0.000469569 0.000810237 9.28623e-22)
(0.000598533 0.00103207 -5.38798e-22)
(0.000127556 0.000140767 -4.15102e-22)
(0.000561476 0.000975231 6.54772e-22)
(0.000606015 0.000124367 1.9601e-21)
(0.00066325 0.00114747 4.23811e-24)
(0.000692289 0.000520303 7.73322e-22)
(0.000567529 0.000975625 -1.15648e-21)
(0.000648172 0.000240185 -9.43864e-22)
(0.000283064 0.000493439 1.70525e-22)
(0.000479698 0.000817458 -5.03053e-22)
(0.000391202 0.000929583 -5.02728e-23)
(0.000474041 0.000820371 1.36404e-22)
(0.000509257 0.000894743 1.78765e-21)
(0.000282435 0.000320354 9.59189e-22)
(0.000565151 0.000976341 -1.00057e-21)
(0.000485853 0.000846468 3.67383e-22)
(0.00054983 0.000921345 -1.69176e-22)
(0.000189674 0.000589337 9.34254e-22)
(0.000485729 0.000571466 2.42276e-22)
(0.000135413 0.000154567 -5.38466e-23)
(0.000173336 0.000715497 1.03014e-21)
(0.000558063 0.000954001 1.32117e-21)
(8.4051e-06 0.000404751 0)
(0.000218784 0.000399434 4.56854e-23)
(0.000494629 0.000851529 -3.90262e-22)
(0.000602845 0.00103983 -4.11939e-24)
(0.000658813 0.001203 -4.90015e-23)
(5.75701e-05 0.000144071 2.72963e-22)
(0.000470977 0.00122698 -1.7578e-23)
(4.34449e-05 3.38959e-05 3.45363e-22)
(0.000483431 0.000882385 5.61101e-23)
(0.000266318 0.000503044 -6.61004e-22)
(0.000510894 0.000905567 -2.2763e-22)
(0.000253038 0.000433825 0)
(0.00048935 0.000842555 1.24879e-21)
(5.43674e-05 0.00012081 0)
(0.000424193 0.000844151 0)
(0.000670109 0.00118045 1.31635e-22)
(0.000236086 0.000248458 -5.20202e-22)
(0.00118066 0.000819947 0)
(4.79928e-05 0.000119629 -3.69921e-22)
(0.000436241 0.000633504 -6.371e-23)
(0.000430042 -1.5711e-05 -2.64267e-25)
(0.000516116 0.000893908 -5.34051e-22)
(0.000418024 0.000759741 -1.11397e-23)
(9.6374e-05 2.39089e-05 9.43957e-22)
(0.000552645 0.00096409 0)
(0.000825588 0.000403646 1.35519e-22)
(0.000636091 0.00110754 -5.21786e-24)
(0.000591362 0.00102148 3.02815e-22)
(0.000523703 0.000899158 -7.62269e-22)
(0.00066254 0.00114835 7.61619e-22)
(0.000545038 0.000930417 -2.05672e-21)
(0.000531439 0.000912825 7.30153e-22)
(5.86612e-05 0.000162261 0)
(0.000526954 0.000907812 0)
(0.000538538 0.00093908 1.00436e-21)
(0.000549768 0.000962592 1.85883e-21)
(0.000885665 0.000250813 5.324e-22)
(0.000613372 0.00116565 -6.34157e-23)
(0.000536674 0.000909271 -3.98226e-22)
(0.00020333 0.000528448 0)
(5.76017e-05 0.000131989 9.22688e-23)
(0.000960684 0.000139219 -2.79421e-21)
(0.000594873 0.00102579 -2.8988e-22)
(0.000409659 -8.04559e-06 2.38037e-21)
(0.000631454 0.00109313 3.40194e-23)
(0.000281461 0.000766214 2.91396e-21)
(-0.000454657 0.000371448 -1.44217e-23)
(0.000468641 0.000807908 0)
(0.000257062 0.000166743 2.41964e-22)
(0.000575945 0.00100059 9.93155e-22)
(0.000474382 0.000458558 -1.37462e-21)
(0.000709775 0.00128975 1.03262e-21)
(0.000711444 0.00127682 2.10957e-21)
(0.000974769 5.71515e-05 1.14619e-22)
(0.000393088 0.000530277 -7.56863e-22)
(0.000233047 0.000418033 0)
(0.000418078 0.00113883 5.57596e-24)
(0.000467996 0.000828897 -5.62287e-22)
(0.000618224 0.0010677 -3.70801e-22)
(0.000553437 0.000976078 8.32904e-22)
(8.67984e-05 2.03555e-05 0)
(0.000442224 0.000228731 1.00668e-21)
(0.000879176 0.000481969 9.67834e-22)
(0.000664611 0.0011471 0)
(0.000954725 9.05902e-05 -8.44011e-22)
(0.000496188 0.000847554 -4.17069e-22)
(0.000433897 0.000782651 2.56684e-23)
(6.58907e-05 1.32409e-05 -1.85408e-22)
(7.47034e-05 -1.8594e-06 2.26394e-21)
(0.000510231 0.000878424 -5.23909e-22)
(0.000447713 0.00114894 7.74371e-25)
(0.000629987 0.00111262 1.52819e-22)
(7.35273e-05 1.54329e-05 1.25648e-21)
(0.000504281 0.000875717 -8.88927e-25)
(0.000560047 0.000970507 8.06569e-22)
(3.86639e-05 0.000210378 -2.21413e-22)
(0.000551781 0.000922704 -1.85659e-22)
(0.000630439 0.000151604 9.59163e-23)
(0.000748813 0.00135994 6.98072e-23)
(0.000564522 0.00100116 -3.68795e-24)
(0.000606494 0.000112761 -1.12369e-21)
(0.000392794 -3.07603e-06 -2.98941e-21)
(6.48113e-05 -4.95088e-06 9.04513e-22)
(0.000185339 0.00014076 -4.26909e-22)
(0.000749176 0.00127999 -8.17846e-22)
(0.000369423 0.000272535 3.30036e-21)
(0.00064234 0.00114985 0)
(4.70187e-05 0.000104034 -4.47976e-22)
(0.000418121 0.000763268 -1.38195e-21)
(0.000666087 0.00114684 -4.63258e-24)
(6.47316e-05 0.000508721 4.84149e-21)
(0.00110572 -0.000174493 -1.95286e-22)
(0.000646213 8.36211e-05 0)
(0.000474041 0.000846274 0)
(0.000486418 0.000839176 -6.12272e-22)
(0.00102983 -7.9082e-06 -3.88642e-22)
(0.000587746 -1.05977e-06 7.38589e-22)
(0.000399619 0.000541382 2.10922e-22)
(0.000635102 7.98731e-05 0)
(6.35419e-05 6.31014e-05 -1.69215e-21)
(0.000429505 0.00104471 0)
(4.35241e-05 9.35839e-05 6.90413e-22)
(0.000662585 0.0011481 -7.79223e-22)
(0.00147195 0.00111922 -1.99545e-21)
(0.000552873 0.000970587 0)
(0.000464522 0.000791351 -1.09238e-24)
(0.000466648 0.000795866 0)
(0.000347636 0.000441314 0)
(0.000204765 0.000358816 0)
(0.000855985 0.000551853 -7.6452e-22)
(0.000466777 0.000804653 -5.32576e-22)
(0.000319768 0.000536182 -1.06401e-22)
(0.00033537 0.000493285 2.10363e-21)
(0.000536756 0.000913838 -1.56252e-22)
(0.000444113 0.000799891 6.47666e-22)
(0.000899126 0.00016818 2.75665e-25)
(0.000501518 0.00120339 6.00549e-22)
(0.000568585 0.00101008 -1.62418e-24)
(0.000655411 0.00126131 -3.75299e-24)
(4.01243e-05 8.39673e-05 7.64099e-22)
(0.000577076 0.0010054 -1.5869e-22)
(4.60039e-05 0.000113962 3.88731e-22)
(4.89085e-05 -2.87863e-06 1.01756e-21)
(0.000672803 0.00060736 -2.37504e-22)
(0.000695909 0.00120603 -9.40476e-22)
(0.000549339 0.000909805 0)
(0.000185553 0.000354154 0)
(0.00033307 0.000265377 1.03117e-21)
(0.000589943 0.00106252 4.33913e-24)
(0.000969514 0.000101411 3.9259e-21)
(0.000540892 0.000926268 7.14147e-22)
(3.67467e-05 7.50032e-05 5.23327e-23)
(0.000334212 0.000556526 -9.2951e-22)
(0.000185289 0.000588166 7.09818e-22)
(0.000669302 0.00114731 -8.90543e-22)
(0.000208002 0.000337345 -3.44795e-23)
(0.000462982 -9.13371e-05 -1.91883e-21)
(0.000632822 0.00110519 -1.24547e-22)
(8.35721e-05 0.000907531 -1.02805e-22)
(0.000876752 0.000375225 0)
(0.000590614 0.00101938 0)
(0.0010965 3.90548e-05 1.04247e-22)
(0.00062743 0.00112429 0)
(0.00017807 8.21673e-05 5.71361e-22)
(1.72214e-05 0.000488483 0)
(3.36862e-05 6.70686e-05 4.28846e-23)
(0.000426929 0.000317627 6.24047e-22)
(0.000491348 0.00087472 0)
(0.000583821 0.00100895 0)
(0.0009103 0.000793107 -1.06293e-23)
(0.000176858 0.000111874 3.12227e-22)
(0.000525691 0.000908852 -7.08768e-23)
(0.000587329 0.00101757 -6.85005e-22)
(0.000554302 0.000957103 0)
(3.05921e-05 5.95506e-05 -3.66315e-22)
(0.000737949 0.00127581 3.20726e-22)
(0.000597003 0.00102372 -3.34933e-22)
(0.000438982 2.88248e-05 0)
(0.000603126 0.00104446 3.34973e-22)
(0.000261547 0.000338555 2.49898e-21)
(0.000521234 0.00073576 -1.07508e-21)
(0.000579246 0.000992799 1.09446e-21)
(0.000628238 0.00114964 -4.88369e-23)
(0.000502511 0.000878553 -3.33591e-22)
(5.83228e-05 5.21299e-05 -4.26189e-22)
(0.000602736 0.00112418 3.59115e-23)
(0.000650647 0.00114968 -3.40653e-22)
(0.000418255 0.000767699 1.12019e-21)
(2.79949e-05 5.30108e-05 3.75565e-22)
(7.22202e-05 0.000611037 -3.69878e-22)
(5.90162e-05 0.000138889 -9.56011e-22)
(0.000559888 0.0010095 -9.08963e-23)
(0.000587475 0.00100935 -3.13572e-22)
(6.62628e-05 1.66633e-05 -7.25559e-22)
(0.000192377 0.000595103 1.34188e-21)
(0.000557484 0.000970361 -8.33439e-22)
(2.56506e-05 4.69712e-05 -3.6683e-22)
(0.000566727 0.00097558 -2.31849e-22)
(0.000315451 0.000284867 1.30157e-21)
(2.30772e-05 4.05226e-05 5.26601e-22)
(0.000599435 0.00103014 3.20995e-22)
(0.000580177 0.000998655 0)
(0.000578945 0.000999128 -2.37781e-22)
(2.13577e-05 3.61136e-05 -8.62632e-23)
(4.26609e-05 -8.35004e-06 1.812e-22)
(0.000517381 0.000624105 -6.50619e-22)
(0.000575144 0.000992265 -2.75495e-22)
(0.00102215 -8.78867e-06 4.18386e-22)
(0.00050306 0.000875567 -7.90414e-22)
(0.00018139 0.000128993 -9.43833e-22)
(0.000170264 0.000117006 1.00141e-22)
(0.000979279 0.000147232 0)
(0.000759822 0.00088318 0)
(1.95582e-05 3.19059e-05 -1.72639e-22)
(0.000481494 0.000858596 -9.63738e-23)
(0.000645706 0.00126004 -9.6506e-24)
(0.000673277 1.50473e-05 -1.07055e-22)
(5.74837e-05 -3.68655e-06 0)
(5.58813e-05 0.000125901 6.87263e-22)
(0.000462955 0.0007967 -8.68224e-22)
(0.000202753 0.000588124 0)
(0.000483361 0.000834423 0)
(1.62943e-05 1.15518e-06 4.45039e-22)
(0.000542861 0.0004985 -1.43318e-21)
(0.000600164 0.00104665 4.54911e-22)
(0.000490775 0.000838582 -5.20652e-24)
(0.000387227 0.000521771 -8.47719e-25)
(0.000682403 0.000542264 -1.42707e-24)
(0.000217875 0.000492525 4.88462e-22)
(0.000105297 5.86519e-05 -4.00467e-26)
(0.000662883 0.00114773 1.15549e-23)
(0.00130242 0.00111651 1.32865e-21)
(0.000123692 4.06457e-05 1.73929e-21)
(0.00069124 0.00144044 3.75058e-24)
(-8.94257e-05 0.00102109 2.53178e-24)
(2.49861e-06 -4.07261e-06 0)
(5.19416e-05 -3.01365e-06 -1.50855e-21)
(0.000463167 -0.000192322 -1.68937e-21)
(0.000556224 0.000948878 2.98041e-22)
(0.000903977 -0.00031326 0)
(0.000444569 0.000438407 9.10397e-22)
(0.000670005 0.00115296 0)
(0.000736184 0.00127313 0)
(0.000541431 0.000915745 1.65553e-22)
(0.000872599 0.000357624 -1.15972e-21)
(0.000401086 0.000843786 0)
(0.000131679 0.000191979 0)
(0.000698655 0.00128326 -1.01539e-21)
(8.63085e-05 2.53268e-05 -9.24111e-23)
(4.20346e-05 0.00100796 -1.02137e-21)
(0.000497245 0.00125976 -1.10064e-23)
(0.000493862 0.000853158 7.78259e-22)
(0.000590244 0.0010191 -3.3645e-22)
(7.3034e-05 -1.08313e-05 0)
(0.000670439 0.0011482 -1.81191e-21)
(0.000110686 7.22063e-05 8.33613e-22)
(0.000418728 0.000812618 -2.01673e-21)
(0.000634108 0.00111698 4.88263e-22)
(0.000563896 0.000264279 1.15841e-21)
(0.0010374 -1.28147e-05 -1.45053e-21)
(0.000512955 0.00089356 -3.80567e-22)
(0.00104306 -9.48725e-07 4.06761e-22)
(0.000592279 0.00101824 3.05553e-22)
(0.000474393 0.00105768 8.10406e-22)
(5.30524e-05 0.000439141 1.3818e-21)
(0.000727587 0.00127952 -2.16555e-22)
(0.00113851 0.000666767 -6.49951e-22)
(0.000229402 0.000652544 5.70983e-22)
(0.000652893 0.000549936 1.3215e-21)
(0.000659041 0.00126115 0)
(0.000468236 0.000840257 -1.75068e-22)
(0.000636075 0.00100868 -1.28919e-23)
(0.00073392 0.00127722 1.5622e-22)
(0.000810231 0.000618844 2.1537e-21)
(0.000235086 0.000498719 0)
(0.000506466 0.000875672 0)
(0.000934038 -1.33158e-05 -1.08212e-21)
(0.000241417 0.000133351 -1.3594e-21)
(0.000488332 0.000588038 -6.50848e-22)
(4.60142e-05 4.2193e-05 -4.07636e-23)
(5.21672e-05 0.000729767 1.23207e-21)
(0.000357886 0.000272508 1.08982e-21)
(4.34792e-05 -4.74857e-06 0)
(0.000135408 0.000528213 1.00204e-21)
(0.000122306 7.54288e-05 1.56824e-21)
(0.000536552 0.00111608 -1.19355e-23)
(0.000571535 0.000996939 -2.52314e-23)
(5.17371e-05 0.00049448 4.26877e-22)
(1.31579e-05 -1.20763e-06 -3.45454e-22)
(0.000376467 1.04534e-06 0)
(0.000640327 0.00109838 -2.01834e-22)
(0.000526483 0.000903059 -1.48257e-22)
(0.00065558 0.00114944 2.3353e-24)
(2.44845e-05 4.77738e-07 0)
(4.55161e-05 9.89011e-05 -6.30028e-22)
(0.000269153 0.000532448 1.89202e-21)
(0.00112239 0.00060493 -1.99748e-24)
(0.000560569 0.00073336 -1.54868e-21)
(0.000220608 0.000491851 0)
(0.000733104 0.00123984 1.56984e-22)
(0.000787498 0.000415688 0)
(0.000548028 0.000942516 0)
(0.000542198 0.00131624 2.21106e-23)
(0.000515267 0.000899338 -5.70636e-22)
(0.000929221 0.000147979 1.79978e-21)
(0.000569224 0.000970583 6.50547e-22)
(0.00017946 0.000262689 -1.61376e-22)
(0.000285622 0.000502207 -6.45323e-22)
(0.000642417 0.00110385 1.6065e-22)
(0.000472795 0.00111302 8.95784e-22)
(3.31406e-07 -8.49243e-07 -1.90291e-22)
(0.000650549 0.000224232 -4.52466e-22)
(0.000111957 0.00054176 3.12117e-22)
(5.85991e-05 -0.000191554 0)
(0.000616659 0.00113956 1.17279e-22)
(0.000113943 7.76896e-05 -1.96023e-21)
(0.000641836 0.00110209 1.05729e-22)
(4.17523e-05 8.86717e-05 -4.78959e-23)
(0.000554848 0.000963371 8.74763e-24)
(0.000533124 0.000931432 5.79293e-22)
(0.000303143 0.000580547 -9.2705e-22)
(0.000489128 0.000862616 7.0655e-24)
(0.00036617 0.000403832 2.01357e-21)
(1.00139e-05 0.000434866 -4.38546e-22)
(0.000635591 0.00110896 -1.76492e-22)
(9.75328e-05 9.5118e-05 -9.52518e-22)
(0.000349998 4.80917e-05 -9.49621e-22)
(0.000631964 0.00115849 9.14244e-23)
(0.000250548 0.000431773 -1.66399e-21)
(0.000247117 0.000790968 0)
(0.000723728 0.00128934 2.20236e-22)
(0.000588473 0.001015 0)
(0.000599863 0.00109934 3.97299e-23)
(5.08606e-05 4.45741e-05 0)
(0.000480113 0.000828979 0)
(9.52938e-05 3.03569e-05 0)
(0.000660132 0.000266476 0)
(0.000433337 0.000556695 1.65682e-23)
(0.000663806 0.00114724 0)
(0.00062439 0.00111532 0)
(8.54863e-05 9.49924e-05 1.59057e-21)
(0.000474415 -0.000274044 1.86573e-21)
(3.8439e-05 7.93923e-05 -7.55043e-22)
(0.000609692 0.00108434 -1.90962e-22)
(1.16973e-06 7.09698e-06 0)
(0.000924828 0.000145958 -1.68942e-21)
(0.000644856 0.00115557 0)
(0.000698245 0.000347641 1.10172e-21)
(0.000474561 0.000804628 0)
(0.000663197 0.00115958 8.37463e-22)
(0.00050335 0.000857995 9.34658e-22)
(0.000367872 0.00053336 -2.504e-21)
(0.000608329 0.00103578 -1.26724e-21)
(0.000662474 0.00120884 -5.81e-23)
(-0.000412068 0.00044201 -2.7907e-21)
(0.000657284 0.00114358 -5.38099e-22)
(0.000492451 0.000840979 1.16967e-21)
(0.000527644 0.000914167 -8.46333e-22)
(6.70163e-05 -0.00020777 3.38299e-22)
(0.000807397 0.000406033 -1.30097e-22)
(0.000492117 0.000852298 0)
(3.56748e-05 7.07107e-05 8.84648e-23)
(0.000307495 0.000292348 -3.10238e-21)
(0.000103953 0.00010214 1.49203e-24)
(0.000543666 0.000936594 3.29192e-22)
(0.000510864 0.000873144 0)
(0.000765025 -0.000255533 -9.29844e-22)
(0.000531929 0.000595033 6.11014e-22)
(0.000529775 0.000914764 1.72819e-21)
(0.000699035 0.00152476 -4.18539e-24)
(0.000592204 0.000128161 8.41362e-22)
(0.000503282 0.000869005 -1.20211e-21)
(0.000519409 0.000913228 -3.30937e-23)
(0.000578148 0.000995401 -7.0642e-23)
(0.000255406 0.000487876 7.12353e-22)
(3.22375e-05 6.32447e-05 -8.90296e-23)
(0.000534803 0.000918681 -3.80227e-24)
(0.000868918 0.000339582 8.39631e-22)
(0.000267176 0.000472505 1.71946e-22)
(0.000527165 0.000909469 0)
(0.000981466 6.57438e-05 -3.97423e-22)
(0.000180474 0.000405698 1.87475e-22)
(0.000831391 0.000585082 1.28292e-21)
(0.000176564 0.000252766 -6.40675e-22)
(2.91934e-05 0.000403101 -7.72706e-22)
(0.000903305 9.13219e-05 6.23387e-23)
(0.000989199 0.000161023 4.54477e-22)
(0.000524014 0.000904642 6.00581e-24)
(0.000492296 0.000847672 0)
(3.58052e-05 0.000806257 3.95088e-22)
(7.51698e-06 1.82162e-06 8.24916e-22)
(0.000572198 0.00102429 0)
(0.000669412 0.00115575 0)
(0.000964627 8.61527e-05 -8.73998e-22)
(7.40459e-05 1.98607e-05 -2.62074e-21)
(0.00020172 0.000253591 3.55909e-22)
(2.92531e-05 5.6221e-05 -2.35826e-23)
(0.000522483 0.000902927 -9.65713e-25)
(0.000484662 0.000823339 2.40495e-22)
(0.00060963 0.0010519 0)
(0.000508095 0.000820006 4.35937e-22)
(0.000490634 0.000841775 -2.13771e-22)
(0.000618744 0.0011733 3.32427e-23)
(0.000557994 0.000457604 -1.86389e-21)
(0.000529007 0.000904884 5.20643e-24)
(2.13902e-05 -1.50639e-06 -1.57507e-21)
(0.000520632 0.000898159 -1.42746e-21)
(0.00025827 0.000451009 -1.67635e-26)
(0.000658492 0.00114919 -8.70296e-23)
(0.000621021 0.00110427 8.50459e-22)
(0.000328688 0.000463099 -1.42164e-21)
(2.32855e-06 1.47553e-05 -5.23143e-23)
(0.000514222 0.000887754 5.04087e-22)
(0.000523503 0.000822586 7.35006e-22)
(2.67754e-05 4.99601e-05 3.8195e-22)
(0.000498873 0.000870734 -7.96983e-22)
(0.000534979 0.00093359 6.38933e-24)
(0.000958872 8.38764e-05 2.55831e-21)
(0.000510247 0.000881147 5.26537e-22)
(0.000592128 0.00101049 4.96727e-22)
(0.000490818 0.000827568 5.94468e-22)
(0.00136832 0.000395919 0)
(0.000489125 0.000842677 9.99419e-22)
(0.00168659 0.000225403 0)
(0.000881382 0.000737694 -1.1261e-21)
(0.000635841 0.00108787 2.41598e-22)
(0.000187431 0.000539617 -4.22525e-21)
(0.00138624 0.000920778 5.74261e-22)
(0.000541302 0.000928047 -2.18592e-21)
(0.000203458 0.000157276 1.91549e-21)
(0.000370378 1.00912e-07 0)
(0.000297371 0.000722348 5.77194e-24)
(3.33924e-05 0.000366815 0)
(0.00053947 0.000930118 -6.82811e-22)
(1.35987e-06 -1.30124e-05 7.73372e-22)
(2.43624e-05 4.45337e-05 1.88321e-22)
(0.000652305 0.00115355 1.34239e-22)
(0.000787415 0.0014204 4.51811e-23)
(0.000258093 0.000434844 -8.2513e-22)
(0.000462593 0.000803714 5.9978e-22)
(0.00102615 -0.000120533 -2.08426e-22)
(0.000603499 0.00103487 0)
(0.000703398 0.000891216 1.51286e-21)
(0.00101879 -2.28711e-05 6.16856e-22)
(1.55835e-06 -8.37032e-06 -4.52153e-22)
(4.77843e-05 -5.29046e-06 -1.56421e-21)
(0.000505275 0.000872713 0)
(0.000730966 0.00128738 4.43959e-22)
(0.000711398 0.00130178 -3.30238e-24)
(0.000293473 0.000225124 1.08344e-21)
(0.000146081 0.000697046 -2.27646e-22)
(2.25745e-05 3.8036e-05 0)
(0.000889055 0.000129094 -4.28041e-22)
(0.000613916 0.000299853 -1.274e-21)
(0.000526366 0.000910945 -8.55243e-22)
(0.000518992 0.000891667 -4.24999e-22)
(0.00055025 0.000955701 8.14691e-22)
(0.000678035 0.00120475 -6.93345e-24)
(0.000477083 0.00082387 -1.93146e-22)
(0.00078412 0.00140171 9.938e-22)
(0.000513521 0.000888779 1.12527e-22)
(0.000169689 0.000498077 0)
(0.000421614 0.000656647 0)
(0.000484515 0.000850342 0)
(0.000272604 0.000400443 0)
(0.000591897 0.00102988 -3.08146e-22)
(0.000830176 8.51048e-05 5.62919e-26)
(0.000182899 0.000529148 1.83484e-21)
(0.00046982 0.000191038 -3.21888e-25)
(0.000278135 0.000524261 5.46069e-22)
(0.00044783 0.000836136 -2.02681e-25)
(0.000570098 -4.12768e-05 2.51698e-21)
(0.000727654 0.00128832 -1.24174e-22)
(0.00051505 0.000897946 5.74635e-22)
(0.000549363 0.000487249 1.26392e-21)
(0.000676541 0.00119522 0)
(0.000195486 0.000608328 0)
(0.000580774 0.00100141 -5.94089e-22)
(0.000452729 0.000495268 -1.81337e-21)
(0.00100372 -0.000110788 -2.01264e-22)
(0.00047823 -0.000419503 -3.03949e-24)
(0.000623911 0.0011064 0)
(2.33255e-05 8.62296e-07 -3.43407e-22)
(0.000131274 0.000518337 5.10778e-22)
(0.000491239 0.000851362 7.11366e-22)
(0.000790272 0.00140168 0)
(0.000535587 0.0013808 -2.05663e-23)
(0.000229693 0.000256311 5.10133e-22)
(0.000331691 0.00129473 -5.85572e-22)
(0.00101765 -6.69342e-05 4.20536e-22)
(0.00038749 0.000590027 0)
(0.000729435 0.00128655 1.28216e-22)
(0.000794634 0.00140108 0)
(0.000775574 0.00140114 9.6223e-22)
(0.000473199 0.000820248 1.07535e-21)
(0.000313574 0.000533839 9.00356e-22)
(0.00055502 -3.53745e-05 3.12375e-21)
(0.000517049 0.000886635 1.05347e-21)
(1.46303e-06 -2.00507e-05 -6.13427e-24)
(0.00027079 0.000737687 0)
(0.000290086 0.000311061 9.74596e-22)
(0.000763671 0.00140004 -9.16963e-22)
(1.91091e-06 2.4618e-05 -1.65655e-21)
(0.000188688 0.000606203 -3.34142e-25)
(0.0005357 0.000924426 -1.06274e-21)
(0.000508205 0.00134443 0)
(0.000561356 0.000972792 -7.96746e-22)
(0.000620081 0.00106056 4.11914e-22)
(0.000492406 0.000860575 5.14693e-24)
(0.000641049 0.00110347 1.0612e-22)
(0.00055946 0.000399259 7.3573e-22)
(0.000478203 0.00094555 -6.97454e-22)
(0.000346966 0.000268711 -2.72301e-21)
(0.000494957 0.000855046 1.75197e-21)
(1.56763e-06 -2.40558e-05 -7.74191e-22)
(0.000636692 0.00111098 5.97538e-23)
(0.000787486 0.000581845 -1.78071e-21)
(0.000734898 0.00127682 -4.52604e-24)
(0.000507521 0.000864862 -1.72236e-22)
(0.000509707 0.000902562 2.46121e-22)
(1.41156e-06 -1.64044e-05 0)
(0.000544831 0.000952132 2.67827e-22)
(0.000504296 0.000887977 2.7436e-22)
(0.000987921 0.000120787 -1.74906e-21)
(0.000572515 0.000121371 -2.09531e-23)
(0.00066229 0.00116041 0)
(0.000382444 0.00109376 -1.13742e-23)
(0.000546359 0.000969806 4.32462e-22)
(0.000607044 0.00111878 0)
(0.000667775 0.00114685 8.71473e-22)
(0.000797864 0.00140003 -9.91087e-22)
(5.91624e-05 -7.57752e-07 -1.42747e-21)
(0.000143864 0.000391687 -1.25323e-21)
(0.000504921 0.00109001 4.20608e-24)
(1.16684e-05 5.64973e-05 -9.09243e-22)
(0.000372282 0.000226252 1.48737e-25)
(0.000615056 0.00109533 1.80949e-22)
(1.28317e-06 -9.82176e-06 6.50455e-22)
(0.000585507 0.00100691 0)
(0.000280444 0.000853654 0)
(1.75403e-06 -3.0705e-05 1.58037e-21)
(0.000979703 3.0866e-05 -1.8998e-22)
(0.000256884 0.000822308 1.59956e-23)
(0.000537849 0.000906468 -5.17398e-24)
(0.000395257 0.000135862 8.69676e-22)
(0.000839586 0.000857979 0)
(0.000734471 0.00127805 0)
(0.00044199 0.000771027 0)
(0.000737296 0.00127793 6.32318e-24)
(0.000212408 0.000359085 5.63514e-22)
(0.000800462 0.00139881 9.40076e-24)
(5.3226e-05 -6.03094e-07 0)
(0.000528583 0.00090707 0)
(0.000599668 0.00102941 4.45877e-22)
(0.000662778 0.00147202 -3.0658e-23)
(0.000465223 0.00102591 -1.73693e-21)
(0.000656704 0.00115218 -1.94513e-22)
(2.07971e-06 -3.85838e-05 7.97795e-22)
(0.000463656 0.000821925 3.71119e-22)
(0.000491795 0.000856938 0)
(0.000849315 0.000112202 -1.4291e-21)
(0.000388168 0.000645133 1.59011e-21)
(0.000616785 0.00104388 -3.62652e-22)
(0.0006602 0.00114894 -1.00942e-22)
(7.74757e-05 6.96876e-05 -7.94649e-22)
(0.000408886 0.000138388 0)
(0.000308295 0.0011549 -1.50819e-21)
(-0.000368065 0.00104589 -2.1438e-21)
(0.000308335 0.000489083 1.4488e-21)
(0.000663788 0.00115978 7.87815e-22)
(0.000739795 0.00127935 -9.48837e-22)
(0.000471865 0.0007963 -2.169e-22)
(2.39922e-06 -4.79476e-05 -1.58817e-21)
(3.17152e-05 0.000384251 0)
(0.00071447 0.00129613 0)
(0.000256093 0.000429578 -9.85902e-24)
(6.78543e-05 6.23722e-05 -3.17748e-23)
(0.000534538 0.000921289 -3.66071e-22)
(0.000495836 0.000856872 -1.18194e-21)
(0.00022282 0.000502381 0)
(1.06233e-05 0.000323534 0)
(2.71842e-06 -5.53177e-05 6.40002e-24)
(0.000460106 0.000807037 -9.92893e-22)
(7.44126e-05 6.61245e-05 0)
(0.000175301 7.97647e-05 3.80268e-22)
(0.00100059 0.000115559 0)
(0.000159039 0.000270784 -2.06238e-21)
(0.000500122 0.000864014 -4.71142e-22)
(0.000577689 0.000995912 -2.0895e-22)
(6.63601e-05 6.55702e-05 0)
(0.000511629 0.000878215 -5.52131e-22)
(0.00026209 0.000422132 0)
(0.000186929 0.00058943 9.26329e-22)
(3.1529e-06 -6.36861e-05 8.04239e-22)
(0.00033179 0.000514587 1.24977e-21)
(0.000794516 0.00139103 1.01319e-21)
(0.000337038 4.05269e-05 -5.65309e-27)
(0.000412304 -0.000559989 0)
(0.000531012 0.000919212 0)
(0.000738642 0.00127865 5.46129e-22)
(0.000109652 0.000396193 0)
(0.000592054 0.00102759 -5.56504e-22)
(9.06194e-05 0.000394608 8.64609e-22)
(0.000717233 0.00129179 -8.73608e-23)
(0.000567377 0.000982161 -2.72775e-22)
(0.000538327 0.000943212 -5.69801e-23)
(0.000512746 0.000883873 -5.17027e-22)
(0.000607344 0.0010322 1.80764e-21)
(0.000621067 0.000690385 1.29995e-21)
(3.92522e-06 -7.86552e-05 0)
(0.000768504 0.00129815 -1.46786e-21)
(0.000560921 0.000601247 1.30035e-21)
(0.00047374 0.000848948 -3.39503e-22)
(9.9043e-05 0.000423348 5.83918e-23)
(0.000473805 0.000818529 -7.59059e-22)
(0.000412364 0.000323257 0)
(0.00067352 0.00120782 9.15202e-23)
(0.000532374 0.000908913 -6.17934e-23)
(7.41064e-05 5.87685e-05 -4.89985e-22)
(0.000470601 0.000792191 -4.69105e-22)
(0.000608609 0.00104936 1.03511e-21)
(0.000545827 0.000948331 8.07164e-22)
(0.000369437 0.00041344 0)
(0.000695621 0.00124381 1.13089e-21)
(2.30938e-05 -1.29367e-06 -5.2922e-23)
(0.000520357 0.000893975 0)
(0.000216949 0.00026615 -3.62668e-25)
(0.000791255 0.00140044 0)
(0.000768668 0.00129391 7.26017e-22)
(0.000644064 0.00111755 4.90795e-22)
(0.000236248 0.00044318 -1.71642e-21)
(0.000488842 0.000848089 -4.42021e-24)
(2.21148e-05 -0.000153279 -8.01334e-22)
(0.000529604 0.000495726 7.75601e-22)
(0.000455671 0.00079853 4.49284e-24)
(0.000146796 0.000400607 8.71565e-22)
(0.000505809 0.000862974 1.97953e-22)
(0.000280448 0.000391454 -1.79637e-21)
(1.5526e-05 -0.000113283 1.58741e-21)
(0.00131121 9.52677e-05 2.41906e-22)
(0.000798281 0.00141185 -5.07181e-24)
(1.84187e-05 -0.000131468 0)
(0.00033536 0.000506425 -9.2446e-22)
(0.00100271 0.000408887 1.19957e-22)
(0.000599696 0.000785767 -1.27151e-21)
(0.00122211 0.000375982 -4.93611e-22)
(0.000403868 0.0012797 7.69431e-22)