/*--------------------------------*- C++ -*----------------------------------*\
  =========                 |
  \\      /  F ield         | OpenFOAM: The Open Source CFD Toolbox
   \\    /   O peration     | Website:  https://openfoam.org
    \\  /    A nd           | Version:  7
     \\/     M anipulation  |
\*---------------------------------------------------------------------------*/
FoamFile
{
    version     2.0;
    format      ascii;
    class       surfaceScalarField;
    location    "95.5";
    object      phi;
}
// * * * * * * * * * * * * * * * * * * * * * * * * * * * * * * * * * * * * * //

dimensions      [0 3 -1 0 0 0 0];

internalField   nonuniform List<scalar> 
1111
(
6.98125e-09
1.29639e-08
-1.60377e-08
-3.9074e-09
6.93322e-09
-1.17972e-08
1.18452e-08
-1.47462e-08
5.71973e-09
8.86991e-09
1.56549e-10
8.8404e-10
-1.02087e-09
-1.43716e-08
1.45084e-08
-1.43314e-08
1.41201e-08
1.09541e-09
-1.62501e-09
1.4914e-08
2.13961e-09
-2.8727e-09
9.47934e-09
-9.57901e-09
2.97237e-09
-6.72094e-09
-1.26132e-08
1.25987e-08
6.73545e-09
-5.02483e-08
-2.60753e-08
7.63237e-08
-8.11877e-09
7.70946e-09
7.34253e-09
3.31351e-09
3.68589e-10
-3.39431e-09
-2.87793e-10
1.58681e-08
-1.62456e-08
-2.32367e-08
2.36142e-08
-9.66505e-09
-7.8971e-09
8.80254e-09
8.7596e-09
-3.5572e-08
1.77152e-08
-3.23419e-08
5.01987e-08
9.49867e-09
-1.96312e-09
-1.42565e-08
-5.43802e-10
1.51095e-09
-2.95079e-09
1.98364e-09
-3.9409e-09
1.33296e-08
1.9698e-09
-1.13585e-08
8.81319e-09
-2.65983e-09
-1.50523e-08
8.89898e-09
3.72504e-08
-2.99191e-08
-7.33129e-09
-1.94449e-08
3.44539e-10
1.72345e-08
1.8659e-09
-1.05879e-09
4.23423e-09
-1.78476e-08
1.46722e-08
-6.12247e-08
-3.96194e-09
6.51866e-08
1.38795e-10
-1.14623e-09
-3.30741e-10
1.33818e-09
-1.75321e-09
-1.3637e-08
-8.43284e-11
-2.35553e-10
1.78363e-10
1.41518e-10
-1.03756e-08
-8.54283e-09
1.30935e-08
5.82499e-09
6.82978e-10
-2.12674e-09
-8.27446e-09
9.71823e-09
8.62726e-09
7.76589e-10
-9.67713e-09
2.73277e-10
-2.87726e-09
-8.02121e-09
1.10932e-08
-1.94768e-10
1.14086e-08
-1.00405e-09
-1.5914e-09
-8.08514e-10
8.13008e-10
-9.24008e-12
4.74633e-12
-8.62095e-11
6.78868e-10
2.12756e-10
-8.05415e-10
-4.28437e-10
-3.95908e-11
4.60409e-10
7.61854e-12
-4.61756e-11
-7.76697e-10
1.13395e-10
7.09478e-10
-1.04308e-10
-7.50381e-10
9.74048e-10
-1.84063e-08
-2.01263e-09
-3.49406e-10
3.91587e-11
-1.1819e-10
1.33826e-08
-1.32435e-08
4.09518e-09
-3.5176e-10
5.44697e-10
3.21695e-10
-5.14632e-10
-3.49985e-11
-1.36624e-09
1.16261e-09
2.38629e-10
-1.95468e-09
1.06012e-08
-1.15192e-08
-2.4686e-10
-1.47347e-10
4.48013e-11
-8.73796e-09
1.05029e-08
-9.88374e-09
1.22593e-08
-1.71462e-08
4.57871e-09
3.08168e-10
5.14418e-11
-1.44737e-10
-1.53565e-10
1.56718e-10
7.53981e-10
-9.76906e-11
-5.95297e-08
7.42325e-08
-1.47028e-08
1.00752e-09
-2.23375e-10
-1.12258e-09
3.38437e-10
1.14713e-09
1.03082e-08
-1.37141e-08
2.25878e-09
-1.79953e-09
7.7641e-09
-8.94631e-09
2.98174e-09
-6.73064e-09
5.61197e-09
5.68202e-09
-4.56335e-09
-7.70858e-09
-1.63725e-09
1.69149e-09
7.65434e-09
-1.8291e-10
-9.09147e-08
9.13009e-08
-2.03292e-10
-2.57576e-10
-8.97507e-08
9.0161e-08
-1.52788e-10
8.30782e-08
-1.49298e-09
1.10247e-10
-8.16955e-08
-2.8389e-09
-4.98653e-10
6.2479e-10
8.16726e-10
-4.33996e-10
3.91327e-09
-1.04249e-09
3.48974e-09
-6.36052e-09
-9.27297e-10
8.60641e-10
-1.49318e-08
6.58285e-09
9.84152e-09
1.06e-09
-1.06228e-08
-2.78694e-10
-6.09624e-09
1.3494e-08
1.00504e-09
-8.40277e-09
1.4375e-08
-4.53745e-09
3.76015e-09
-1.35977e-08
1.5395e-08
1.67662e-09
-1.64281e-09
-1.98327e-10
-2.00639e-08
-7.42463e-09
2.76869e-08
1.44223e-08
-8.78531e-09
-1.8968e-09
8.00026e-09
-1.21997e-08
2.06031e-11
3.94138e-11
-1.1826e-09
-3.61728e-08
-2.33568e-08
8.32187e-09
2.83623e-10
3.6538e-09
-6.99665e-09
1.11677e-08
6.33186e-09
-5.7177e-10
3.01399e-10
4.61217e-10
-1.90846e-10
5.72954e-09
-4.79456e-09
3.66891e-09
-4.60389e-09
-4.20024e-10
-6.07125e-10
2.50452e-10
6.21768e-10
-5.47963e-10
8.56785e-12
-7.60651e-10
6.65874e-10
-1.81607e-08
2.4134e-09
1.57575e-09
1.41715e-08
2.06547e-10
-6.65112e-10
-1.13205e-10
-4.16657e-09
-1.5146e-08
1.15189e-09
5.61034e-09
1.2081e-08
-5.23032e-09
-1.2461e-08
1.64091e-08
7.17184e-10
-1.58717e-08
-1.25456e-09
-6.52615e-10
4.30765e-10
5.23249e-10
-3.3345e-10
1.62679e-10
1.70771e-10
-7.44141e-09
-3.53795e-09
4.24873e-09
-2.03892e-10
3.18542e-10
-1.1465e-10
1.11717e-09
-1.56594e-08
-7.91399e-10
9.92938e-09
-1.10927e-08
-9.15933e-10
-3.24882e-10
1.29422e-08
4.4345e-09
-4.17799e-09
-1.31987e-08
7.83511e-11
7.17712e-09
-7.95309e-09
6.38794e-09
-1.63488e-09
-9.00687e-09
8.21932e-09
2.42243e-09
-1.91554e-09
6.81508e-10
-1.3912e-08
-1.10118e-10
-9.37741e-11
2.71195e-10
6.96294e-10
-8.67607e-09
7.60023e-10
1.72792e-08
-1.63013e-09
-1.21094e-08
1.34821e-08
-1.37263e-09
1.22386e-08
1.39353e-08
-1.54996e-08
-1.06743e-08
-5.04026e-10
9.36152e-10
-4.32126e-10
2.93701e-10
-1.63472e-10
-1.30229e-10
1.98469e-10
2.10838e-10
-4.09307e-10
1.33313e-09
-1.07495e-09
-2.58179e-10
-1.05622e-08
8.95789e-10
9.66637e-09
1.9593e-09
-6.26174e-10
8.97202e-09
-1.54063e-08
7.68992e-09
-9.21825e-09
6.01313e-11
3.65666e-09
-4.03285e-10
-2.32789e-09
2.38802e-09
-6.49861e-09
7.83368e-09
-1.33507e-09
-5.09833e-10
4.26723e-09
1.55874e-10
1.7265e-08
-1.44794e-08
-1.63851e-09
-6.0855e-09
5.41894e-09
-3.75932e-10
-1.85483e-10
5.81563e-09
-5.80196e-09
-1.3675e-11
6.87112e-09
4.54043e-09
-3.11805e-11
-1.59625e-08
1.0466e-08
1.77351e-08
5.79167e-09
8.25658e-09
8.18697e-09
-6.84949e-09
1.39038e-09
-1.19525e-08
3.07843e-10
1.37075e-09
-1.29979e-08
2.81061e-09
-4.22586e-10
1.13494e-08
-1.06322e-08
-2.66834e-10
-7.53407e-10
-1.38148e-08
7.68867e-09
7.14478e-10
-2.5322e-13
-8.89238e-09
5.01455e-09
-3.01175e-08
-1.25138e-08
-2.81708e-09
1.51615e-09
1.41049e-08
1.10464e-08
-1.08072e-08
-1.43441e-08
1.53962e-08
-3.14265e-09
-1.22535e-08
1.61124e-09
3.98748e-09
-1.00757e-09
-8.90743e-10
-8.3871e-10
1.13162e-09
5.9783e-10
-2.24546e-10
3.43922e-10
3.41841e-10
6.2142e-08
-6.2168e-08
2.59872e-11
6.2062e-08
-6.23661e-08
3.04084e-10
8.37306e-10
6.47324e-08
-6.55593e-08
8.26983e-10
6.41246e-08
6.07709e-10
-2.24053e-10
-6.65048e-08
9.45506e-10
-6.20574e-08
6.19226e-08
1.34734e-10
1.31542e-09
-6.78203e-08
-6.22173e-08
1.59913e-10
1.26296e-08
-6.63255e-10
1.27856e-09
-3.69905e-09
3.08375e-09
3.07914e-10
-1.17025e-09
9.04297e-10
-5.53767e-10
1.37765e-09
-1.6085e-09
7.84624e-10
1.38558e-09
-1.47803e-09
1.31865e-10
-4.83238e-11
-3.43953e-09
2.73167e-09
-1.95984e-09
2.6677e-09
-4.24783e-10
-2.7273e-09
2.48882e-09
-3.53664e-09
-5.82127e-09
5.77138e-10
-5.99122e-10
1.17892e-09
1.10303e-09
-6.46748e-09
7.90489e-09
3.10302e-09
1.97478e-08
-4.3516e-09
-6.89873e-10
2.82702e-10
9.84309e-10
-1.00942e-08
-2.60786e-08
5.29584e-09
-4.25389e-09
-3.17956e-09
2.13761e-09
9.84828e-11
2.42374e-11
3.37689e-10
-2.54499e-09
3.3229e-09
8.97151e-09
7.19997e-10
-2.10301e-10
2.08318e-09
-2.29766e-09
1.82651e-09
1.47203e-08
1.33199e-08
-2.69342e-08
3.27081e-08
6.33087e-09
-2.28356e-08
-1.04295e-08
1.85105e-08
-1.79978e-08
1.05337e-08
-5.83865e-11
-2.1082e-10
-1.20882e-09
-1.68694e-09
-2.90955e-09
3.44259e-09
1.51242e-08
-6.1892e-10
-1.38238e-08
-7.12325e-10
-2.30612e-09
2.91151e-10
1.54696e-08
1.77611e-08
1.37029e-08
7.40174e-10
-1.70673e-09
-1.27363e-08
-1.50782e-09
5.97942e-09
1.25731e-08
-4.71798e-10
-1.03199e-09
-3.6398e-09
2.7915e-09
3.57997e-09
2.49727e-09
1.45004e-08
4.27645e-09
-1.43424e-08
1.80383e-08
-1.76222e-09
2.45395e-09
-3.36914e-09
1.90675e-09
-4.93273e-09
1.294e-08
-1.19482e-08
-1.40455e-08
3.20737e-10
8.79203e-09
-1.7972e-09
1.5008e-09
1.47531e-09
-8.66093e-09
7.05742e-10
-4.55864e-09
-5.99977e-09
1.21873e-08
-1.48485e-08
1.07061e-09
1.67407e-09
-2.20393e-09
1.68054e-08
-1.62756e-08
-1.1016e-09
1.41855e-08
3.0821e-09
-4.44848e-09
-1.40399e-08
7.56701e-09
-1.73989e-08
-8.16595e-09
6.83518e-09
5.8711e-09
1.46088e-08
-1.00325e-08
3.02173e-09
9.43315e-09
9.84189e-09
3.85466e-09
-4.20348e-09
2.17594e-08
-1.92147e-08
5.02223e-09
-1.05918e-08
2.17054e-09
5.67465e-09
1.39394e-08
-3.26522e-10
1.28082e-08
-1.35832e-08
-1.92226e-09
1.75586e-09
-7.54146e-10
9.20551e-10
1.10572e-08
-6.37061e-09
7.39435e-09
-1.09877e-08
1.4559e-09
-4.74528e-09
1.14921e-08
-1.19771e-08
-7.57692e-09
9.2188e-09
9.41536e-09
1.2928e-08
6.05654e-10
-1.38602e-08
1.45049e-09
7.84163e-10
-1.11347e-08
-6.72548e-09
1.02833e-08
-1.38967e-09
2.51358e-09
-8.98749e-09
4.78389e-09
-5.28617e-09
1.15997e-08
-3.47998e-09
-1.18131e-08
3.69346e-09
-4.47278e-09
1.13272e-08
1.83366e-09
1.11763e-09
-5.04483e-09
-1.78191e-08
1.05086e-08
1.23554e-08
7.34559e-10
-1.10358e-08
-1.00259e-08
1.60169e-08
1.26141e-08
2.87014e-09
-9.80958e-09
-1.33326e-08
-3.24282e-10
-1.27593e-08
1.61505e-10
-7.67642e-10
1.16994e-08
1.25463e-08
-8.23788e-09
1.66731e-08
-1.60452e-08
3.6486e-09
-4.85871e-10
1.78092e-09
1.28765e-08
-3.92746e-09
-1.27115e-08
-5.04282e-09
1.80522e-09
4.60835e-09
1.23052e-08
-7.24304e-09
9.62273e-10
-1.651e-09
6.23438e-10
-8.94695e-10
5.90183e-09
2.63914e-08
-8.38117e-11
-9.64551e-09
9.72932e-09
2.85872e-08
-2.23409e-08
2.21066e-08
1.97544e-08
-1.27201e-08
-2.69609e-09
1.51194e-08
1.72989e-10
-1.21441e-08
-4.42286e-10
-6.01326e-09
-1.85537e-09
2.1962e-09
1.49283e-09
-4.31681e-10
-1.11222e-08
1.15474e-08
6.48051e-12
3.0642e-09
-5.12527e-09
-1.11213e-08
1.06631e-08
-9.16661e-10
-1.08386e-08
-2.22599e-10
-1.13169e-08
-2.52404e-09
-1.20662e-08
2.16976e-09
7.90126e-09
5.14528e-09
-4.186e-10
-1.18169e-08
1.18039e-08
5.66202e-10
-8.85084e-09
5.14647e-09
-1.52659e-09
2.23334e-09
-2.07912e-09
-1.30572e-08
-1.25766e-08
1.20742e-08
-1.01905e-08
-1.58024e-08
1.00304e-08
9.28457e-09
8.27518e-10
2.69507e-09
-1.23406e-08
1.14901e-08
1.66513e-09
3.90521e-09
2.84305e-10
-4.84666e-10
-2.19663e-10
-4.15025e-09
2.52935e-09
-6.85216e-10
1.72561e-10
-2.03229e-10
3.06682e-11
-2.69197e-09
1.30766e-08
2.22942e-09
2.53935e-09
8.21735e-11
-1.37492e-09
-5.22842e-10
-2.30848e-09
-2.75259e-10
1.30284e-08
1.00955e-08
-3.17876e-10
6.79759e-09
-1.24085e-09
-5.23887e-09
-9.82019e-09
-5.12881e-09
1.31088e-10
4.14731e-11
4.87567e-09
1.32961e-09
-1.72411e-08
-3.30517e-10
-7.48406e-10
-2.7776e-09
1.02642e-09
3.08233e-09
6.19442e-08
-8.57346e-11
-6.18585e-08
6.23683e-08
1.88813e-10
-6.25571e-08
-1.41212e-08
-2.54628e-10
1.44728e-08
-9.69813e-11
3.11062e-09
-1.7897e-09
2.50258e-09
1.8007e-09
-4.51037e-09
-3.02104e-10
-5.10223e-10
4.1413e-10
-9.47533e-11
4.157e-10
-2.78742e-10
1.97013e-08
1.05354e-09
-1.58792e-08
-1.36314e-10
-1.93635e-09
1.25354e-08
2.27746e-09
1.80114e-09
5.34496e-09
-2.11982e-09
-7.72334e-08
-2.41779e-08
-4.96453e-09
1.58441e-08
2.45004e-09
-5.47418e-11
-2.93895e-09
-1.06197e-09
3.06955e-10
-2.76978e-10
-9.94141e-09
-3.62458e-10
1.03039e-08
-1.08707e-08
-6.5881e-09
1.07334e-08
-9.48498e-09
8.75407e-09
2.24994e-10
1.47612e-09
9.47394e-09
-9.41174e-09
-6.21935e-11
5.85269e-10
8.64051e-11
1.07472e-08
5.77567e-10
-7.55459e-10
-8.15131e-11
-1.42463e-08
-4.6747e-10
-1.38251e-08
1.27012e-08
-1.18863e-08
-6.60355e-08
6.49914e-08
1.04412e-09
2.33563e-10
-2.09325e-10
1.2034e-08
-2.11446e-10
8.2167e-12
-2.06189e-09
2.76022e-09
-3.42322e-09
-1.34717e-08
-1.62445e-09
2.57384e-09
-4.70467e-09
-1.41103e-08
1.5739e-09
5.55684e-09
9.68515e-09
-9.05089e-09
-2.35124e-10
2.36781e-11
-9.31297e-09
-1.33723e-08
1.51005e-10
-6.26943e-08
2.35423e-10
6.24588e-08
6.95204e-10
6.34294e-08
-2.23781e-10
-1.62779e-09
-1.4497e-08
1.07483e-10
-6.3405e-08
6.32975e-08
1.85517e-10
-6.29459e-08
6.27604e-08
3.36128e-10
6.18008e-08
1.5046e-10
-6.19512e-08
6.16319e-08
1.68856e-10
-8.78903e-08
8.84996e-08
-1.55426e-12
9.33946e-08
-9.31012e-08
-2.67426e-10
-8.66294e-08
-4.33982e-10
9.33536e-08
-1.83044e-10
-8.49159e-08
-7.6792e-10
9.34844e-08
1.73323e-10
-5.22357e-10
1.96121e-09
9.23605e-08
-6.93133e-08
6.21421e-08
-6.2325e-08
-6.29518e-08
6.14895e-08
1.42413e-10
-3.1263e-09
2.95021e-09
-1.41663e-08
4.70326e-11
8.40557e-11
1.28877e-09
8.72422e-09
-1.13841e-08
3.83082e-08
-3.45413e-08
-1.67649e-08
1.38036e-08
-3.81587e-11
-2.0849e-10
1.43707e-10
6.15425e-10
-1.22565e-10
3.12149e-10
4.45192e-09
1.04177e-09
-3.58695e-09
-1.62548e-10
2.01707e-10
-1.17746e-10
-2.57756e-09
1.32237e-08
2.43049e-09
-1.44306e-08
-2.62968e-09
-3.30922e-09
5.54286e-09
1.04668e-09
-2.63643e-09
1.43168e-08
-1.17177e-09
-1.84375e-09
1.99406e-09
-8.1179e-09
-1.90692e-08
-1.34898e-08
8.0083e-09
5.80223e-09
-2.12718e-10
-5.64151e-10
2.97307e-09
1.44837e-08
2.28128e-09
-1.85102e-09
-3.79036e-10
4.2926e-10
-2.35708e-10
1.59441e-08
-5.88274e-10
-1.57183e-08
-7.0472e-11
-2.6249e-10
3.28358e-10
-2.55968e-10
3.439e-09
-1.6322e-08
4.46212e-10
-1.51002e-09
-2.09701e-09
-2.30335e-09
1.56838e-08
-9.05953e-08
-1.33832e-10
9.16806e-08
-1.90858e-10
-8.91656e-08
-4.77604e-10
9.3104e-08
-2.75283e-10
-9.29144e-08
-5.44325e-10
-1.59186e-09
1.68097e-08
9.19821e-08
-1.98865e-10
2.9223e-11
-2.20978e-10
9.80348e-09
2.49602e-09
-7.37806e-09
-1.22111e-08
-5.67766e-09
8.41175e-09
1.49055e-09
-6.79928e-09
-5.99765e-09
9.03787e-09
-6.63045e-11
1.01397e-08
1.95003e-08
-1.79848e-08
3.08451e-09
-1.27283e-08
3.10127e-09
-6.997e-08
3.9345e-09
-2.0596e-08
-1.30702e-08
-4.75429e-10
-5.93806e-09
-1.52894e-08
9.08341e-09
-1.51322e-08
4.1627e-10
3.52185e-10
-1.90738e-09
-1.6657e-08
1.70765e-08
7.22151e-09
-7.72017e-09
-4.63347e-09
1.52989e-08
-1.67726e-09
6.95069e-10
-9.05661e-10
1.1383e-10
1.19623e-08
3.32133e-09
7.09111e-08
-1.82479e-08
7.21587e-10
-1.50269e-08
-2.28192e-10
-2.65493e-10
-1.03264e-10
6.0952e-08
-6.12273e-08
-6.33758e-08
-6.31448e-08
-6.41887e-11
-2.6226e-10
-9.2588e-08
-6.04539e-08
6.24151e-08
6.51016e-08
-6.02806e-08
6.45793e-08
-6.04636e-08
6.38114e-08
-6.0731e-08
6.33774e-08
9.23108e-08
2.71094e-10
-6.35363e-09
7.5119e-08
-6.5444e-08
3.49349e-11
-3.49349e-11
2.08097e-10
-3.1883e-10
1.5481e-08
-1.97182e-11
1.97182e-11
3.21071e-10
1.5242e-09
1.39046e-08
1.34131e-08
-2.72274e-09
3.72082e-09
6.60978e-09
1.80943e-09
3.60678e-10
-2.44948e-10
-2.97536e-09
1.45853e-08
1.48454e-08
-4.28773e-09
1.18194e-08
1.76393e-10
1.41733e-10
2.72938e-09
-8.12627e-10
-1.5237e-09
-5.84033e-09
-2.05632e-10
-3.89661e-10
1.53094e-08
2.45116e-10
5.86329e-11
1.44561e-08
-2.62208e-08
1.77924e-08
2.66164e-09
1.2514e-09
2.49975e-09
-3.72302e-09
1.93313e-08
-1.8108e-08
-7.51827e-11
1.26721e-10
-1.44077e-09
-7.92106e-08
-7.0754e-08
1.29391e-09
-4.6764e-10
6.32732e-10
2.30001e-08
1.86069e-08
-6.36778e-09
7.51447e-11
-4.26733e-09
-2.52055e-09
2.99481e-08
1.57113e-10
1.48183e-08
7.35802e-08
4.65862e-11
5.11867e-10
-1.50331e-10
-2.08935e-10
-3.62885e-09
2.42921e-08
-1.48689e-08
9.52992e-10
-1.41857e-08
-4.9121e-11
2.03936e-08
-2.87132e-08
9.43568e-10
1.92359e-09
-2.61407e-10
)
;

boundaryField
{
    back
    {
        type            empty;
        value           nonuniform 0();
    }
    ingreso
    {
        type            calculated;
        value           nonuniform List<scalar> 
14
(
-1.54286e-08
-1.54288e-08
-1.54288e-08
-1.54288e-08
-1.54286e-08
-1.54283e-08
-1.54288e-08
-1.54288e-08
-1.54286e-08
-1.54286e-08
-1.54288e-08
-1.5428e-08
-1.5428e-08
-1.54286e-08
)
;
    }
    salida
    {
        type            calculated;
        value           nonuniform List<scalar> 2(1.01411e-07 1.14589e-07);
    }
    front
    {
        type            empty;
        value           nonuniform 0();
    }
    defaultFaces
    {
        type            calculated;
        value           uniform 0;
    }
}


// ************************************************************************* //
