/*--------------------------------*- C++ -*----------------------------------*\
  =========                 |
  \\      /  F ield         | OpenFOAM: The Open Source CFD Toolbox
   \\    /   O peration     | Website:  https://openfoam.org
    \\  /    A nd           | Version:  8
     \\/     M anipulation  |
\*---------------------------------------------------------------------------*/
FoamFile
{
    version     2.0;
    format      ascii;
    class       volScalarField;
    location    "7.8";
    object      p;
}
// * * * * * * * * * * * * * * * * * * * * * * * * * * * * * * * * * * * * * //

dimensions      [0 2 -2 0 0 0 0];

internalField   nonuniform List<scalar> 
5490
(
4.84048e-06
5.1831e-06
4.04924e-06
4.92815e-06
7.19147e-07
9.20604e-06
9.58696e-06
9.55766e-06
3.39542e-06
9.52486e-06
3.78859e-06
3.7856e-06
2.92706e-06
3.50248e-06
3.29338e-06
9.52663e-06
9.58963e-06
9.30661e-06
4.98115e-06
3.49678e-06
2.81323e-06
9.58784e-06
9.27086e-06
9.58795e-06
2.69328e-06
2.66835e-06
3.01738e-06
4.74681e-06
9.02074e-06
1.66519e-06
4.56742e-06
9.57591e-06
7.15469e-06
5.98226e-06
2.04339e-06
4.67513e-06
8.92778e-06
4.97663e-06
1.09904e-06
2.43479e-06
4.80175e-06
8.97213e-06
3.95725e-06
8.98781e-06
9.38196e-06
6.1735e-06
1.56768e-06
1.19812e-06
4.96266e-06
8.0734e-06
9.50234e-06
1.76301e-06
2.137e-06
8.99219e-07
2.83734e-06
5.96007e-06
8.46195e-06
9.59359e-06
3.38266e-06
1.75319e-06
9e-06
3.18674e-07
5.8314e-06
9.56778e-06
9.58845e-06
9.42518e-06
9.51443e-06
8.8673e-06
1.45611e-06
9.4197e-06
1.09303e-06
2.41715e-06
9.5432e-06
9.56821e-06
9.49644e-06
2.1549e-06
9.20455e-06
3.0812e-07
5.28243e-06
4.04917e-06
8.97133e-06
8.22057e-06
9.15566e-06
5.08067e-06
7.42202e-07
5.6903e-06
9.32596e-06
9.25937e-06
2.23832e-06
8.90449e-06
9.52723e-06
9.16631e-06
9.56282e-07
9.49164e-06
4.78815e-06
9.53513e-06
3.56125e-06
9.11577e-06
8.85473e-06
2.90267e-06
3.62481e-06
2.24544e-06
6.35522e-06
9.54321e-06
6.10197e-06
5.84015e-06
2.21612e-06
8.82422e-06
9.57462e-06
9.57802e-06
9.54688e-06
9.565e-06
9.40588e-06
6.20244e-06
4.2221e-06
8.9408e-06
5.2286e-06
9.39146e-06
9.32129e-06
1.83929e-06
6.20217e-06
7.10622e-06
9.08662e-06
5.1792e-06
9.51059e-06
9.49625e-06
3.43562e-06
5.14748e-07
9.5482e-06
3.30319e-06
9.38868e-06
8.93431e-06
2.80411e-06
4.0614e-06
1.29405e-06
9.58207e-06
9.63097e-06
9.54492e-06
9.50036e-06
6.14896e-06
9.54357e-06
9.60109e-06
2.50636e-06
8.87856e-06
9.56145e-06
9.47895e-06
-1.63862e-08
9.48974e-06
1.96332e-06
9.07489e-06
9.57955e-06
9.57799e-06
3.71827e-06
9.60479e-06
8.83937e-06
9.59158e-06
9.57875e-06
9.39966e-06
9.47066e-06
3.35816e-06
4.35691e-06
8.61675e-06
8.85028e-06
9.46299e-06
9.56498e-06
9.37233e-06
9.57061e-06
2.7265e-07
9.10557e-06
1.6261e-07
9.59243e-06
5.93611e-07
2.72601e-06
9.57676e-06
3.65301e-06
1.51819e-06
1.97851e-06
9.6023e-06
2.5791e-06
3.22019e-06
9.38603e-06
9.57568e-06
5.12385e-06
4.87941e-06
9.59184e-06
1.34611e-06
1.92864e-06
8.31887e-07
9.57549e-06
9.52104e-06
9.54302e-06
1.27556e-06
5.1356e-06
9.5753e-06
9.51374e-06
4.31594e-06
5.9816e-06
9.59421e-06
9.12957e-06
1.85855e-06
9.46281e-06
6.03547e-06
9.59524e-06
9.54579e-06
7.97005e-06
9.80091e-06
9.57137e-06
9.44344e-06
4.06496e-06
8.98546e-06
9.50739e-06
9.58745e-06
4.65833e-06
4.47521e-06
4.15732e-06
6.23961e-06
4.26173e-06
3.8754e-06
9.68535e-06
9.59224e-06
9.29274e-06
9.57308e-06
8.40668e-06
2.75232e-06
2.68843e-06
6.83827e-07
2.14314e-06
2.10775e-06
9.97029e-07
9.59486e-06
9.30826e-07
8.92471e-06
9.57693e-06
9.52124e-06
6.00579e-06
8.78028e-06
9.47741e-06
9.57724e-06
9.5994e-06
3.10923e-06
9.59516e-06
4.42132e-06
1.89087e-07
1.82398e-06
9.60173e-06
9.30339e-06
9.03113e-06
6.96226e-06
8.91298e-06
9.57314e-06
9.59398e-06
7.58752e-06
9.43265e-06
8.92149e-06
1.71275e-06
6.0966e-06
7.09876e-06
2.25214e-06
3.59303e-06
9.48691e-06
8.79311e-06
5.01599e-06
5.13827e-06
9.64508e-06
9.57285e-06
9.1561e-06
6.1493e-06
8.78614e-06
9.57816e-06
9.54026e-06
9.56922e-06
4.18095e-06
9.57757e-06
9.39514e-06
7.54636e-06
9.57411e-06
9.56287e-06
1.08295e-06
4.71137e-06
6.0914e-06
9.59329e-06
9.57577e-06
9.59834e-06
8.81994e-06
3.73551e-06
9.54559e-06
8.83406e-06
9.57499e-06
8.66479e-06
3.55624e-06
7.01775e-07
8.96365e-06
9.18648e-06
6.25728e-06
3.24159e-06
9.12156e-06
9.47653e-06
9.57431e-06
7.47154e-07
9.07028e-06
5.31494e-06
9.47202e-06
4.92381e-06
9.12674e-06
3.03891e-06
1.0188e-06
9.66892e-06
9.52375e-06
5.52334e-06
1.22295e-06
2.59556e-06
9.27752e-06
9.07675e-06
5.8377e-06
3.70087e-06
5.95533e-06
1.4837e-07
9.40942e-06
8.14154e-06
9.60026e-06
9.56032e-06
2.01455e-06
3.20654e-06
9.533e-06
9.44138e-06
1.12094e-06
5.75446e-07
3.05663e-06
9.32891e-06
4.66855e-06
5.99881e-06
9.57152e-06
9.5745e-06
8.77909e-06
4.44816e-06
1.50552e-06
9.599e-06
3.49742e-06
9.59826e-06
9.36671e-06
9.51596e-06
9.53638e-06
5.41405e-06
6.01921e-06
3.78816e-06
1.02189e-06
1.04368e-06
9.57735e-06
5.45571e-06
8.85996e-07
9.60464e-06
5.64543e-06
2.03384e-06
2.0398e-06
3.45589e-06
9.573e-06
3.89164e-06
6.49126e-06
9.49523e-06
5.02394e-06
5.49768e-06
3.02081e-06
9.45463e-06
8.41567e-07
1.23939e-06
4.89876e-07
8.07527e-07
9.55264e-06
9.48179e-06
5.77418e-06
1.07419e-06
1.97256e-06
1.93297e-06
9.57151e-06
8.37031e-06
9.57155e-06
9.59952e-06
2.71305e-06
9.53874e-06
9.11397e-06
1.07667e-06
2.11476e-06
5.86155e-06
6.17942e-06
7.40148e-06
3.08013e-06
3.72141e-06
2.43946e-06
2.77797e-06
9.57475e-06
8.89995e-06
3.19053e-06
9.54974e-06
5.50779e-07
2.614e-06
2.60825e-06
2.60416e-06
9.57275e-06
1.30396e-06
1.97197e-06
9.43254e-06
8.43115e-06
7.39332e-07
9.23256e-06
3.00498e-06
9.57893e-06
9.59974e-06
9.57366e-06
9.5629e-06
1.76718e-06
6.13355e-06
9.59741e-06
5.03465e-06
8.07685e-06
3.85493e-06
2.61122e-06
2.12991e-06
9.59291e-06
9.59802e-06
5.64679e-06
1.88522e-06
5.50763e-06
6.51118e-06
3.5577e-06
8.88661e-06
9.35916e-06
3.40577e-06
9.57026e-06
9.68226e-07
9.58575e-06
3.7582e-06
3.75366e-06
3.74715e-06
3.22666e-07
9.35227e-06
9.57607e-06
9.48531e-06
8.84282e-06
2.80532e-06
1.18156e-06
6.30144e-06
4.51851e-06
1.02782e-06
9.22346e-06
4.97702e-06
9.52849e-06
6.10411e-06
9.56537e-06
9.58321e-06
9.10939e-06
4.42078e-06
9.36965e-06
3.75675e-06
3.25495e-06
4.41919e-06
4.41877e-06
9.57035e-06
9.57525e-06
5.28355e-06
4.90153e-06
5.09045e-06
1.03778e-06
6.01459e-06
6.75993e-06
9.35679e-06
6.23383e-06
4.46511e-06
9.30923e-06
5.5975e-06
7.77247e-06
6.31833e-06
4.41552e-06
3.93668e-06
3.64353e-06
6.83852e-08
8.9962e-06
9.14579e-06
6.24911e-06
6.54031e-06
9.56371e-06
9.56628e-06
6.21474e-06
5.47412e-06
9.98402e-08
4.60623e-06
1.03635e-06
9.5237e-06
5.90834e-06
4.38013e-06
1.76187e-07
3.23493e-06
5.43842e-07
5.3332e-06
9.53678e-06
8.99433e-06
9.564e-06
9.53771e-06
9.57915e-06
1.23474e-06
8.41089e-07
1.16342e-06
1.16036e-06
9.5817e-06
9.58571e-06
9.41849e-06
5.17058e-06
2.31397e-06
5.69181e-06
8.69638e-06
9.11441e-06
9.35531e-06
8.95623e-06
9.56432e-06
9.55189e-06
9.56368e-06
9.58043e-06
9.01468e-06
1.01118e-06
5.42694e-06
9.34354e-06
9.21056e-06
9.57454e-06
8.84333e-06
8.8983e-06
9.57826e-06
9.54847e-06
1.38972e-06
9.32427e-06
9.53841e-06
4.95971e-07
9.59319e-06
1.32341e-06
9.60145e-06
9.58121e-06
5.74582e-06
7.89769e-06
9.57131e-06
8.93295e-06
9.59402e-06
3.17068e-06
9.44226e-06
8.94913e-06
9.45709e-06
8.23753e-06
9.56084e-06
9.53924e-06
8.78223e-06
8.81402e-06
9.38666e-06
9.58531e-06
4.78152e-06
7.40271e-06
4.95391e-07
9.42303e-06
9.55919e-06
1.44583e-06
9.15039e-06
9.53967e-06
4.20562e-07
9.56232e-06
9.60393e-06
9.56339e-06
9.57869e-06
9.43393e-06
8.64308e-06
7.16987e-06
9.33971e-06
6.92768e-06
1.41485e-06
9.38869e-06
4.30266e-07
8.67338e-06
9.58248e-06
9.48055e-06
9.58173e-06
9.6002e-06
9.23857e-06
6.39345e-06
8.17511e-06
1.81186e-06
9.57867e-06
8.83748e-06
8.9546e-06
1.11289e-06
6.39214e-06
8.147e-07
8.41067e-06
9.56253e-06
9.51829e-06
9.56759e-06
9.10328e-06
9.41578e-06
9.57642e-06
9.2423e-06
9.56494e-06
9.54074e-06
9.36838e-06
9.60116e-06
9.53492e-06
9.53267e-06
9.32647e-07
2.27905e-06
9.168e-06
9.60362e-06
4.89816e-06
1.10643e-06
3.72899e-06
9.26316e-06
1.2809e-06
6.19918e-06
9.56045e-06
9.54456e-06
8.69824e-06
3.88341e-06
4.38481e-06
1.1219e-06
9.35817e-06
8.94195e-06
9.57372e-06
6.83557e-06
9.59035e-06
1.16906e-06
1.0822e-06
1.79825e-06
1.31922e-07
9.5724e-06
9.53964e-06
4.57328e-06
9.22973e-06
8.58458e-06
9.56005e-06
8.90328e-06
9.38095e-06
7.92879e-06
8.9706e-06
1.64335e-06
6.85492e-06
1.29115e-06
8.89206e-06
9.53362e-06
9.55365e-06
9.00527e-06
9.57788e-06
9.57485e-06
9.102e-06
9.14489e-07
6.63401e-06
9.52018e-06
9.25825e-06
2.48085e-06
7.61708e-06
8.98123e-06
6.34505e-06
9.60274e-06
9.40732e-06
9.26793e-06
9.58003e-06
9.09077e-06
8.85943e-06
8.8558e-06
8.95463e-06
6.1592e-06
8.77806e-06
9.56111e-06
1.60651e-06
9.60468e-06
5.49352e-06
7.5446e-06
9.00298e-06
9.39856e-06
9.54083e-06
9.61632e-06
9.1461e-06
9.46415e-06
9.27661e-06
8.88341e-06
9.32211e-06
3.63539e-06
9.16171e-06
8.8814e-06
9.54157e-06
8.81819e-06
6.03756e-06
6.35518e-06
5.71345e-06
9.57164e-06
9.56342e-06
9.51099e-06
9.57604e-06
1.25635e-06
8.88027e-06
9.57987e-06
3.09802e-06
6.12155e-06
9.47049e-06
9.54037e-06
8.92721e-06
9.5734e-06
6.75155e-06
8.81625e-06
8.97792e-06
2.84712e-06
6.69123e-06
8.91219e-06
4.29594e-06
9.56763e-06
9.16331e-06
8.92392e-06
8.92781e-06
6.70631e-06
9.11506e-06
8.92518e-06
9.17659e-06
9.51117e-06
9.57909e-06
9.54777e-06
9.57519e-06
6.92306e-06
6.59595e-06
8.77813e-06
9.51944e-06
6.43171e-06
3.50844e-06
9.45345e-06
1.45229e-06
9.22095e-06
9.57652e-06
6.18957e-06
6.04572e-06
5.59416e-06
9.55014e-06
8.77467e-06
8.73676e-06
8.92368e-06
9.06045e-06
9.55824e-06
9.19354e-06
8.93856e-06
6.10671e-06
9.57814e-06
8.95361e-06
7.96775e-06
4.9958e-06
8.15272e-06
3.63212e-06
9.41757e-06
9.03241e-06
9.57723e-06
8.93896e-06
9.636e-06
9.3163e-06
6.58666e-07
9.33001e-06
9.51523e-06
9.48539e-06
6.61675e-06
9.1966e-06
9.57649e-06
8.91471e-06
8.88889e-06
9.16839e-06
9.5643e-06
6.68795e-06
9.56897e-06
2.9989e-06
9.58086e-06
9.48729e-06
6.51178e-06
3.41918e-06
3.80246e-06
9.49676e-06
6.37039e-06
9.13915e-06
6.59707e-06
9.22963e-06
9.03205e-06
9.42659e-06
1.1787e-06
9.15331e-06
9.57863e-06
3.51153e-06
9.35333e-06
7.92253e-06
8.81641e-06
5.09268e-06
6.57365e-06
8.70328e-06
9.57735e-06
9.55353e-06
9.1818e-06
9.31292e-06
9.41131e-06
6.7946e-06
5.8522e-06
8.94343e-06
9.151e-06
5.09702e-06
9.29262e-06
9.55514e-06
9.43744e-06
4.01668e-07
9.10058e-06
9.18308e-06
4.95339e-06
9.36387e-06
9.55785e-06
9.58578e-06
9.19349e-06
5.72222e-06
9.47061e-06
9.32014e-06
9.50866e-06
6.68705e-06
9.47463e-06
7.21093e-06
9.20466e-06
9.19709e-06
9.58358e-06
2.41997e-06
6.57979e-06
5.30651e-07
3.69375e-06
9.33582e-06
5.84592e-06
9.42466e-06
8.65332e-06
3.6752e-06
1.57103e-06
9.5851e-06
9.22459e-06
9.58555e-06
9.40099e-06
3.19938e-06
6.95995e-06
7.76162e-06
9.58899e-06
9.58805e-06
9.29593e-06
9.55691e-06
9.55629e-06
2.53354e-06
9.25869e-06
2.13859e-06
7.15475e-06
8.96266e-06
6.38438e-06
8.97973e-06
9.55421e-06
9.29422e-06
8.77611e-06
2.04232e-06
1.96162e-06
9.13676e-06
9.28125e-06
9.50059e-06
9.55343e-06
9.42875e-06
9.56209e-06
9.43759e-06
6.5171e-06
9.4987e-06
9.57517e-06
1.48243e-06
2.8132e-06
9.09516e-06
9.24552e-06
7.77791e-07
9.58664e-06
9.45606e-06
6.04838e-06
9.53347e-06
7.42794e-06
9.00335e-06
7.71241e-06
9.42733e-06
9.55638e-06
3.10083e-06
6.9881e-06
9.22069e-06
3.28215e-06
9.38633e-06
8.13769e-06
6.68565e-06
6.63177e-06
9.481e-06
9.44598e-06
8.90469e-06
9.4305e-06
9.31823e-06
5.7759e-06
9.57998e-06
9.57108e-06
9.14927e-06
8.02433e-07
3.95085e-06
5.99601e-06
5.51257e-07
9.35163e-06
9.48548e-06
7.05897e-06
6.77882e-06
9.27668e-06
8.69436e-06
9.44367e-06
9.536e-06
9.15548e-06
9.25781e-06
7.22513e-06
1.02789e-06
9.55831e-06
6.38173e-06
9.55548e-06
6.42013e-06
6.4585e-06
9.50037e-06
9.32141e-06
9.35159e-06
9.60006e-06
9.22763e-06
9.56804e-06
9.45471e-06
9.44372e-06
8.98711e-06
6.46327e-07
9.55476e-06
9.55145e-06
9.57534e-06
8.34951e-06
9.51339e-06
6.10603e-06
5.74288e-06
9.50032e-06
9.28695e-06
9.27864e-06
9.30477e-06
9.48378e-06
7.79226e-06
9.54551e-06
9.49547e-06
9.5598e-06
9.44973e-06
9.46898e-06
9.55799e-06
9.12356e-06
9.40764e-06
9.55948e-06
9.519e-06
6.99578e-06
6.58215e-06
9.4529e-06
9.60526e-06
9.59091e-06
9.49298e-06
9.54533e-06
9.54963e-06
9.4281e-06
9.59314e-06
9.5951e-06
7.00762e-06
9.5743e-06
6.76153e-06
9.53516e-06
9.60079e-06
9.41914e-06
9.5064e-06
8.99184e-06
9.47512e-06
6.40806e-06
9.38133e-06
9.21141e-06
9.43215e-06
8.89788e-06
9.55292e-06
9.53571e-06
9.53918e-06
6.46159e-06
6.90351e-06
9.18428e-06
9.01979e-06
9.58499e-06
9.16824e-06
7.4906e-06
6.34461e-06
9.4966e-06
9.53469e-06
1.3159e-06
8.07347e-06
9.45342e-06
9.55169e-06
7.25826e-06
9.36611e-06
6.21392e-06
9.512e-06
9.53173e-06
9.55526e-06
6.62719e-06
9.44759e-06
9.52383e-06
9.48533e-06
9.28603e-06
6.40857e-06
9.44462e-06
9.55229e-06
5.27093e-07
6.75183e-06
2.09493e-06
9.58876e-06
9.59741e-06
9.55621e-06
9.52793e-06
9.52683e-06
9.55787e-06
8.97189e-06
9.19119e-06
9.54483e-06
9.42062e-06
6.38412e-06
9.33417e-06
9.42604e-06
9.54831e-06
8.86409e-07
9.51304e-06
9.55633e-06
9.53573e-06
9.56448e-06
9.4642e-06
9.55918e-06
9.40505e-06
1.3992e-06
9.5561e-06
9.70712e-06
9.43993e-06
9.57792e-06
9.57539e-06
9.5657e-06
2.90911e-06
9.50884e-06
9.11614e-06
6.77003e-06
9.6197e-06
9.54556e-06
9.5912e-06
9.4824e-06
9.38535e-06
9.54973e-06
9.57744e-06
9.55912e-06
9.5902e-06
9.39193e-06
7.02521e-06
9.55734e-06
9.55543e-06
9.541e-06
9.29467e-06
9.42278e-06
9.56128e-06
9.5664e-06
9.56439e-06
9.45424e-06
9.56589e-06
8.98618e-06
7.08555e-06
9.55994e-06
9.54764e-06
9.49577e-06
6.33451e-06
9.52955e-06
9.57027e-06
9.5589e-06
9.58028e-06
9.56777e-06
9.40681e-06
9.55736e-06
9.46282e-06
9.42344e-06
5.00797e-06
9.63162e-06
9.54047e-06
6.24362e-06
9.49953e-06
9.00864e-06
9.56581e-06
9.40494e-06
9.54677e-06
7.83796e-06
9.58023e-06
9.57663e-06
9.46874e-06
5.2432e-06
9.56269e-06
9.57935e-06
6.55788e-06
9.50976e-06
9.56067e-06
9.55509e-06
9.55408e-06
9.53463e-06
9.57765e-06
9.46618e-06
9.56962e-06
9.42906e-06
3.59521e-06
6.20549e-06
9.54282e-06
9.44279e-06
9.55731e-06
9.57594e-06
3.10586e-06
9.21893e-06
9.45523e-06
9.18458e-06
9.534e-06
5.91148e-06
9.53587e-06
9.53467e-06
9.47831e-06
9.585e-06
8.95628e-06
9.55848e-06
9.32502e-06
5.54679e-06
2.42336e-06
9.56778e-06
9.45224e-06
9.52348e-06
9.52148e-06
9.5901e-06
4.80795e-06
9.47088e-06
9.50398e-06
6.27966e-06
9.39801e-06
9.54751e-06
9.48385e-06
9.40542e-06
9.56363e-06
9.5524e-06
1.86319e-06
9.56477e-06
9.64574e-06
6.92037e-06
8.88792e-06
6.21498e-06
5.94894e-06
9.58475e-06
9.55733e-06
9.56002e-06
9.5863e-06
9.5477e-06
6.79667e-06
5.39314e-06
9.49087e-06
9.55301e-06
9.58197e-06
6.36571e-06
9.52673e-06
9.56686e-06
9.52058e-06
9.55292e-06
9.57863e-06
9.57043e-06
9.55631e-06
9.58291e-06
9.65371e-06
6.65626e-06
9.55725e-06
9.5606e-06
6.53907e-06
9.55818e-06
9.52656e-06
9.59295e-06
9.55406e-06
9.55918e-06
4.77076e-06
9.52448e-06
9.58493e-06
9.56137e-06
9.50409e-06
9.53898e-06
5.98881e-06
9.55976e-06
9.46405e-06
9.52408e-06
9.63646e-06
9.56187e-06
9.58122e-06
9.57498e-06
9.45509e-06
9.56195e-06
9.58407e-06
9.58074e-06
6.22394e-06
7.10118e-06
9.58254e-06
6.83501e-06
9.50764e-06
9.55335e-06
9.56116e-06
9.58401e-06
6.89041e-06
3.97823e-06
9.55431e-06
9.53524e-06
9.55157e-06
9.54771e-06
9.43896e-06
9.5797e-06
9.49765e-06
5.97019e-06
9.5216e-06
9.55826e-06
9.47547e-06
6.60392e-06
9.56627e-06
6.56228e-06
9.46955e-06
9.52997e-06
9.55938e-06
9.55247e-06
9.58543e-06
9.42925e-06
9.57115e-06
9.54178e-06
9.52252e-06
9.55135e-06
9.55792e-06
9.51979e-06
9.56141e-06
6.72602e-06
9.56358e-06
9.57692e-06
9.54846e-06
9.42149e-06
9.55674e-06
9.56224e-06
9.47492e-06
9.46913e-06
1.85086e-06
9.55232e-06
9.56044e-06
9.53973e-06
9.55018e-06
9.58751e-06
9.51305e-06
9.52093e-06
6.10489e-06
9.57712e-06
9.55526e-06
9.43951e-06
6.52976e-06
9.5641e-06
9.53346e-06
-1.78709e-07
9.57412e-06
9.5121e-06
9.50895e-06
9.53437e-06
9.59215e-06
2.51519e-06
4.69865e-06
9.56499e-06
9.48257e-06
9.57533e-06
6.10555e-06
9.51766e-06
3.39264e-06
9.56029e-06
9.50489e-06
9.56446e-06
9.5942e-06
6.16501e-06
9.52428e-06
6.49931e-06
9.51431e-06
6.60728e-06
9.5447e-06
9.5317e-06
9.54977e-06
9.50718e-06
9.58155e-06
9.56693e-06
9.22108e-06
9.52552e-06
9.5521e-06
9.56917e-06
9.02066e-06
9.58271e-06
9.6291e-06
9.58634e-06
9.47796e-06
9.54631e-06
6.07345e-06
9.55982e-06
9.58242e-06
9.55761e-06
8.96007e-06
9.52274e-06
9.54741e-06
6.40212e-06
6.47006e-06
3.66174e-06
9.56812e-06
9.58961e-06
6.47178e-06
9.53342e-06
9.56752e-06
9.36769e-06
9.56551e-06
9.55756e-06
9.5663e-06
9.55737e-06
9.55471e-06
9.57768e-06
9.53706e-06
9.55665e-06
9.56975e-06
9.55747e-06
9.5e-06
9.46e-06
9.56603e-06
9.58201e-06
6.62515e-06
9.28875e-06
9.51183e-06
9.46877e-06
9.54611e-06
5.31496e-06
4.32336e-06
9.58686e-06
9.56004e-06
9.52312e-06
9.51218e-06
9.54907e-06
6.38263e-06
9.5614e-06
9.54643e-06
6.46829e-06
9.38827e-06
9.55503e-06
9.58553e-06
9.45262e-06
9.5906e-06
9.48124e-06
3.09987e-06
3.11522e-06
9.75752e-06
9.54487e-06
9.58151e-06
9.58049e-06
6.35837e-06
9.52302e-06
9.5518e-06
9.49547e-06
9.59453e-06
9.60959e-06
9.57618e-06
9.58144e-06
2.9099e-06
6.4295e-06
9.91509e-07
9.57933e-06
9.56217e-06
1.94176e-06
9.54836e-06
6.55753e-06
9.59096e-06
5.29248e-06
9.53598e-06
9.57818e-06
9.30714e-06
9.5603e-06
6.66272e-06
6.4983e-06
6.11468e-06
9.54407e-06
9.58985e-06
9.59211e-06
9.56992e-06
9.55464e-06
9.53509e-06
6.65148e-06
9.58317e-06
9.55788e-06
9.57358e-06
9.53113e-06
9.55858e-06
3.32514e-06
9.55367e-06
9.58034e-06
9.5658e-06
9.57337e-06
9.57359e-06
6.08446e-06
9.62362e-06
9.66862e-06
9.53221e-06
9.47884e-06
9.59178e-06
9.58093e-06
9.57731e-06
5.40287e-06
9.36629e-06
9.43564e-06
9.54544e-06
9.58319e-06
9.57226e-06
9.55653e-06
9.25819e-06
9.4754e-06
5.18315e-06
5.84817e-06
9.57045e-06
9.58815e-06
9.35138e-06
9.55445e-06
9.55646e-06
9.48658e-06
9.52672e-06
2.35829e-06
9.57386e-06
9.58429e-06
5.89425e-06
9.56105e-06
5.80579e-06
9.56119e-06
9.08598e-06
9.55778e-06
9.5737e-06
9.5816e-06
6.30741e-06
9.45345e-06
9.53839e-06
9.56122e-06
9.5644e-06
9.59285e-06
9.56222e-06
9.59436e-06
9.57492e-06
5.95375e-06
9.58922e-06
9.57017e-06
9.57138e-06
9.49059e-06
9.5587e-06
9.55783e-06
3.60602e-06
5.58041e-06
9.55369e-06
5.91346e-06
9.58624e-06
9.46968e-06
9.58385e-06
9.57134e-06
9.57178e-06
9.52474e-06
9.56519e-06
9.50696e-06
9.57369e-06
9.57791e-06
9.51513e-06
9.51261e-06
7.13597e-06
9.59747e-06
9.5273e-06
9.50664e-06
9.52239e-06
9.5753e-06
9.57222e-06
9.58583e-06
9.51926e-06
5.7524e-06
9.45952e-06
9.57841e-06
5.84046e-06
9.56498e-06
5.96873e-06
9.59613e-06
9.57886e-06
9.55916e-06
9.57103e-06
9.54693e-06
9.58641e-06
4.66839e-06
9.55949e-06
9.59182e-06
9.53501e-06
9.55613e-06
9.51572e-06
9.57509e-06
9.48559e-06
9.57866e-06
9.55735e-06
9.58217e-06
5.4684e-06
9.57817e-06
9.50744e-06
9.41244e-06
9.59057e-06
6.02994e-06
9.59054e-06
9.54384e-06
9.50575e-06
9.48283e-06
9.43616e-06
6.02033e-06
9.58193e-06
9.59199e-06
9.44261e-06
9.57293e-06
9.57568e-06
9.5807e-06
6.23037e-06
9.57414e-06
9.55566e-06
5.81337e-06
9.54245e-06
9.58042e-06
9.56662e-06
9.48048e-06
9.54154e-06
9.49892e-06
9.52651e-06
5.67085e-06
5.7594e-06
9.4089e-06
9.2912e-07
9.66614e-06
9.5722e-06
9.55428e-06
9.60443e-06
5.83622e-06
9.48045e-06
9.47471e-06
9.57497e-06
9.5593e-06
9.56922e-06
6.07736e-06
6.26763e-06
5.69649e-06
5.76883e-06
5.724e-06
1.09451e-06
2.51108e-06
9.57984e-06
9.58218e-06
5.49019e-06
5.64639e-06
5.56444e-06
9.58563e-06
9.52726e-06
9.59234e-06
9.55699e-06
9.57485e-06
9.57886e-06
9.57801e-06
9.58558e-06
9.56938e-06
9.57711e-06
9.57163e-06
9.57858e-06
3.6569e-06
9.57441e-06
9.58218e-06
9.57722e-06
9.57947e-06
9.57663e-06
9.57399e-06
5.83635e-06
8.91884e-06
9.58021e-06
9.60056e-06
9.60441e-06
9.60226e-06
5.53691e-06
9.49526e-06
9.5785e-06
4.32161e-06
9.52668e-06
9.59128e-06
5.74551e-06
5.81662e-06
6.01877e-06
6.09958e-06
5.5862e-06
9.48492e-06
9.56596e-06
9.58687e-06
9.5187e-06
9.57891e-06
9.57614e-06
9.48836e-06
5.63336e-06
5.536e-06
9.51178e-06
9.59088e-06
9.57103e-06
9.58003e-06
9.58956e-06
6.14917e-06
5.67774e-06
5.67909e-06
9.57864e-06
9.57388e-06
9.59713e-06
9.57916e-06
9.56738e-06
9.55566e-06
6.50198e-06
9.47648e-06
9.58628e-06
5.00154e-06
5.62502e-06
5.74756e-06
9.55821e-06
9.02608e-06
9.57125e-06
1.179e-06
5.21955e-06
6.17938e-06
9.59169e-06
9.50838e-06
5.72402e-06
9.56199e-06
5.64112e-06
9.57678e-06
9.47239e-06
9.5798e-06
5.48872e-06
9.49264e-06
9.49073e-06
9.58414e-06
9.5957e-06
9.5891e-06
5.01628e-06
9.58026e-06
5.67779e-06
9.58089e-06
9.55242e-06
9.53013e-06
5.74572e-06
9.5776e-06
5.5265e-06
9.56152e-06
9.50171e-06
5.61269e-06
9.56704e-06
5.41962e-06
9.59492e-06
5.3259e-06
5.93593e-06
9.55393e-06
9.58241e-06
5.54066e-06
5.85347e-06
5.9286e-06
5.89582e-06
9.58152e-06
9.52531e-06
9.57397e-06
5.32737e-06
9.55708e-06
1.193e-06
9.59355e-06
5.65942e-06
9.55065e-06
5.50845e-06
5.42162e-06
1.79645e-06
5.43183e-06
5.38736e-06
9.56506e-06
5.68848e-06
5.79233e-06
2.23539e-06
5.3169e-06
5.4419e-06
5.44788e-06
5.86274e-06
9.56602e-06
5.8743e-06
9.58646e-06
5.77326e-06
5.89927e-06
5.59965e-06
4.25124e-06
9.59722e-06
4.3295e-06
5.31338e-06
5.50896e-06
4.87717e-06
5.79712e-06
9.58304e-06
4.77319e-06
5.28541e-06
4.65037e-06
9.53145e-06
5.69248e-06
5.32575e-06
5.8e-06
5.34872e-06
5.4214e-06
3.22531e-06
3.27408e-06
4.96622e-06
5.91945e-06
5.28063e-06
4.76897e-06
5.21575e-06
5.5579e-06
5.98728e-06
5.18236e-06
4.97127e-06
4.75849e-06
4.54649e-06
5.56682e-06
5.25228e-06
5.42301e-06
9.59332e-06
5.37564e-06
5.6064e-06
5.11729e-06
5.35177e-06
5.63384e-06
5.01237e-06
5.14966e-06
5.6944e-06
5.76326e-06
5.49767e-06
5.19306e-06
5.07732e-06
5.15354e-06
4.80089e-06
4.86616e-06
9.57283e-06
5.22842e-06
2.41861e-06
5.19894e-06
5.20559e-06
5.10046e-06
4.70155e-06
4.45937e-06
9.58307e-06
4.98775e-06
3.56253e-06
4.94173e-06
5.0519e-06
5.18625e-06
5.19719e-06
4.22779e-06
5.04616e-06
5.19853e-06
4.96404e-06
5.40061e-06
5.30437e-06
5.38802e-06
5.98356e-06
4.90443e-06
5.40786e-06
5.22729e-06
4.70209e-06
5.21448e-06
4.98681e-06
4.84167e-06
5.37267e-06
5.09022e-06
4.90174e-06
4.916e-06
5.10605e-06
4.86871e-06
5.13746e-06
5.11968e-06
4.52779e-06
5.29298e-06
4.74548e-06
4.71736e-06
5.89233e-06
4.45461e-06
4.7934e-06
4.61047e-06
5.09823e-06
4.87813e-06
5.08249e-06
4.86799e-06
9.57023e-06
5.02985e-06
4.81419e-06
4.88086e-06
4.71324e-06
4.74013e-06
4.84957e-06
4.65384e-06
5.17543e-06
5.20949e-06
4.81237e-06
4.6904e-06
4.79724e-06
9.59722e-06
4.71656e-06
5.65011e-06
4.74765e-06
4.62035e-06
4.56732e-06
4.48072e-06
4.93454e-06
4.83667e-06
4.5165e-06
4.70072e-06
4.77782e-06
5.00376e-06
4.65945e-06
4.80285e-06
4.6095e-06
4.52065e-06
4.60563e-06
4.82653e-06
4.61751e-06
4.95053e-06
4.43121e-06
4.78831e-06
4.771e-06
4.76126e-06
4.29628e-06
4.3801e-06
4.5228e-06
4.34148e-06
4.47243e-06
4.74878e-06
4.59083e-06
4.61545e-06
4.61579e-06
4.52641e-06
4.71249e-06
5.52264e-06
4.32542e-06
4.71085e-06
4.68098e-06
4.39686e-06
4.60666e-06
4.22587e-06
4.57093e-06
4.42229e-06
4.38811e-06
4.92546e-06
4.24832e-06
4.23436e-06
4.52679e-06
4.51982e-06
3.06083e-06
4.32191e-06
4.49417e-06
4.15372e-06
4.19442e-06
4.292e-06
4.5845e-06
4.25532e-06
4.44389e-06
4.33639e-06
4.51783e-06
4.50178e-06
3.93866e-06
4.06042e-06
4.3211e-06
4.39741e-06
4.45431e-06
4.74865e-06
3.94836e-06
4.02022e-06
4.15901e-06
3.64838e-06
4.19773e-06
4.36404e-06
4.21408e-06
4.20602e-06
3.46674e-06
3.7603e-06
3.80921e-06
3.99575e-06
4.27101e-06
3.9723e-06
3.84292e-06
4.09959e-06
3.90964e-06
4.28628e-06
4.0058e-06
4.29566e-06
4.15479e-06
3.8514e-06
4.06579e-06
3.73401e-06
3.76367e-06
3.65803e-06
3.98278e-06
4.13643e-06
3.83784e-06
4.05058e-06
4.10568e-06
3.98591e-06
3.88992e-06
4.1962e-06
3.77111e-06
3.84273e-06
4.17982e-06
3.78649e-06
3.91697e-06
4.07634e-06
3.89825e-06
4.20469e-06
3.55174e-06
3.9457e-06
4.37732e-06
3.91826e-06
4.0718e-06
3.8867e-06
3.68246e-06
4.03067e-06
3.60858e-06
3.74771e-06
3.86566e-06
3.93955e-06
4.13409e-06
3.80546e-06
3.77333e-06
3.70497e-06
3.86972e-06
3.73374e-06
3.85237e-06
5.42909e-06
3.58667e-06
3.84793e-06
1.11308e-06
1.16435e-06
3.73208e-06
3.7661e-06
3.65668e-06
3.56661e-06
3.87817e-06
3.77595e-06
2.9735e-06
3.65154e-06
3.84861e-06
3.82092e-06
3.48784e-06
3.78471e-06
4.23575e-06
3.51376e-06
3.7139e-06
4.05914e-06
3.64269e-06
3.39795e-06
3.56238e-06
3.55964e-06
3.79074e-06
3.75221e-06
3.34531e-06
3.81821e-06
3.63959e-06
3.09488e-06
3.66239e-06
3.26664e-06
3.49721e-06
3.54054e-06
3.4843e-06
3.63318e-06
3.00145e-06
5.02118e-06
3.58063e-06
3.25268e-06
3.38737e-06
3.28475e-06
3.47995e-06
3.03662e-06
3.14623e-06
3.34852e-06
3.1367e-06
3.16732e-06
3.41382e-06
3.32087e-06
3.34775e-06
3.19298e-06
3.42393e-06
3.21669e-06
3.08587e-06
3.59839e-06
3.40001e-06
3.45437e-06
3.29532e-06
3.04537e-06
3.31738e-06
3.3708e-06
3.25647e-06
3.24514e-06
3.50106e-06
3.17978e-06
2.93635e-06
3.31405e-06
3.14718e-06
3.15262e-06
3.3284e-06
2.15023e-06
2.98896e-06
3.06594e-06
3.19659e-06
3.17765e-06
3.23186e-06
3.67549e-06
2.52533e-06
3.07328e-06
2.82692e-06
2.80488e-06
3.23514e-06
3.19125e-06
3.15179e-06
2.99909e-06
3.085e-06
3.01903e-06
2.83542e-06
2.99173e-06
2.87419e-06
2.45564e-06
2.12549e-06
2.62133e-06
2.23483e-06
3.80803e-06
2.72229e-06
2.97749e-06
2.36805e-06
2.91639e-06
2.89764e-06
2.80977e-06
2.51549e-06
2.27516e-06
2.92017e-06
3.0658e-06
2.824e-06
2.77957e-06
2.4703e-06
2.9188e-06
1.94072e-06
2.63503e-06
2.04701e-06
2.92652e-06
2.66574e-06
2.34673e-06
2.82918e-06
2.89443e-06
2.707e-06
2.8414e-06
2.8882e-06
2.6698e-06
2.5689e-06
3.00929e-06
2.6779e-06
1.84052e-06
2.16783e-06
2.73909e-06
2.81364e-06
2.73956e-06
2.74e-06
2.76271e-06
2.59918e-06
2.31977e-06
2.61635e-06
2.22585e-06
2.47223e-06
2.39043e-06
2.55398e-06
2.70055e-06
2.4204e-06
2.55811e-06
2.60992e-06
2.61904e-06
3.54447e-06
2.74565e-06
2.66509e-06
2.38421e-06
2.70879e-06
3.08389e-06
2.71421e-06
2.80364e-06
2.63434e-06
2.48468e-06
2.43661e-06
2.29827e-06
2.63323e-06
2.45486e-06
2.41426e-06
2.67401e-06
2.80985e-06
2.53883e-06
2.37299e-06
2.05765e-06
2.48856e-06
2.70051e-06
2.54562e-06
2.15545e-06
2.47048e-06
2.3885e-06
2.44801e-06
2.64074e-06
2.38588e-06
2.29331e-06
2.21636e-06
2.10985e-06
2.39284e-06
1.81767e-06
1.9012e-06
2.30446e-06
2.23794e-06
2.21601e-06
2.54567e-06
1.99964e-06
2.05121e-06
2.35861e-06
2.39256e-06
2.28021e-06
2.17387e-06
2.02434e-06
2.15114e-06
2.23282e-06
1.97227e-06
2.03523e-06
2.05739e-06
2.28122e-06
2.15741e-06
2.30652e-06
1.70863e-06
2.03785e-06
2.05033e-06
1.94466e-06
1.8769e-06
3.12425e-06
2.16676e-06
2.10068e-06
2.09009e-06
2.2047e-06
2.31083e-06
1.83327e-06
2.22731e-06
2.05142e-06
2.0719e-06
1.77747e-06
1.79858e-06
1.92262e-06
1.96751e-06
2.08652e-06
2.05131e-06
1.91632e-06
2.20181e-06
1.73476e-06
2.15941e-06
1.67582e-06
2.06242e-06
1.43519e-06
1.81779e-06
1.83487e-06
1.58473e-06
1.66606e-06
1.95593e-06
1.53254e-06
1.55721e-06
2.66745e-06
1.75383e-06
1.87938e-06
1.69231e-06
1.67718e-06
1.45588e-06
1.5099e-06
1.53609e-06
1.63873e-06
1.52492e-06
1.72925e-06
1.56507e-06
1.55045e-06
1.50831e-06
1.59688e-06
1.6758e-06
1.35555e-06
1.36354e-06
1.51632e-06
1.35858e-06
1.62509e-06
1.3775e-06
1.46735e-06
1.71385e-06
1.58471e-06
1.33474e-06
1.25602e-06
1.57723e-06
1.31122e-06
1.42297e-06
1.60049e-06
1.30523e-06
1.15766e-06
1.41666e-06
1.26235e-06
1.29501e-06
1.25788e-06
1.35925e-06
1.06004e-06
1.24562e-06
1.12261e-06
1.23356e-06
1.48554e-06
1.13528e-06
1.43579e-06
1.39327e-06
1.03785e-06
1.5712e-06
1.1414e-06
3.43541e-06
1.28019e-06
1.84936e-06
1.22856e-06
1.1632e-06
1.15819e-06
4.0702e-06
3.16823e-06
2.95155e-06
2.12704e-06
1.41118e-06
1.70192e-06
9.01852e-07
1.08635e-06
1.05479e-06
1.90788e-06
9.5878e-07
1.3169e-06
5.16915e-06
2.22981e-06
2.72769e-06
1.99441e-06
1.33158e-06
3.07341e-06
3.33707e-06
3.12343e-06
2.2471e-06
1.677e-06
4.4785e-06
1.62472e-06
3.9635e-06
1.20236e-06
9.9731e-07
1.21439e-06
4.65649e-06
1.21406e-06
5.81976e-06
2.50657e-06
2.65496e-06
2.83587e-06
2.70976e-06
4.61558e-06
2.86147e-06
2.11173e-06
2.06153e-06
2.84982e-06
2.9667e-06
2.97953e-06
9.75157e-07
3.84958e-06
3.81983e-06
1.87097e-06
4.90768e-06
2.97389e-06
4.95859e-07
2.33555e-06
1.11632e-06
3.31396e-06
5.89549e-06
6.30825e-06
1.87725e-06
1.37713e-06
1.31542e-06
4.28156e-06
1.40581e-06
4.30071e-06
1.21517e-06
4.57795e-06
4.82564e-06
1.7834e-06
6.36116e-06
1.12661e-06
1.15258e-06
3.2337e-06
4.93625e-06
3.65784e-06
4.09844e-06
4.3364e-06
5.078e-06
2.21987e-06
6.96112e-06
1.16223e-06
3.33743e-06
1.30839e-06
5.73365e-06
6.11355e-06
1.1191e-06
5.87197e-07
5.95433e-06
4.76719e-06
4.98969e-06
5.24095e-06
6.10924e-06
6.76747e-07
7.37116e-07
4.19225e-06
4.51178e-06
6.11954e-06
4.86397e-06
1.215e-06
3.53106e-06
6.11844e-06
4.49711e-06
1.22039e-06
4.31588e-06
6.4164e-06
5.07083e-06
6.53049e-06
2.69595e-06
1.73066e-06
1.60113e-06
1.13696e-06
5.91676e-06
5.60359e-06
5.02727e-06
9.36116e-07
1.02379e-06
1.50948e-06
6.0088e-06
1.01425e-06
1.18932e-06
1.19707e-06
1.69176e-06
2.00927e-06
1.21301e-06
1.10509e-06
2.04761e-06
1.2023e-06
1.32884e-06
1.69152e-06
1.47791e-06
1.92544e-06
1.33854e-06
1.69422e-06
1.96036e-06
1.4832e-06
1.76131e-06
1.61836e-06
2.11076e-06
2.00678e-06
1.63636e-06
1.65894e-06
1.63643e-06
1.75549e-06
2.48716e-06
1.72568e-06
2.57599e-06
1.60033e-06
1.7149e-06
1.78029e-06
1.58831e-06
2.67504e-06
1.73896e-06
2.33404e-06
1.86247e-06
1.87021e-06
2.58405e-06
1.89266e-06
2.78955e-06
3.15896e-06
2.45678e-06
1.95717e-06
3.07718e-06
2.81792e-06
2.86283e-06
2.88005e-06
2.67812e-06
2.58397e-06
2.75332e-06
2.01434e-06
2.77462e-06
2.58116e-06
2.72129e-06
1.97347e-06
2.77263e-06
3.47959e-06
2.84545e-06
2.93999e-06
2.9832e-06
2.71557e-06
3.55356e-06
2.76752e-06
2.92649e-06
3.006e-06
3.27739e-06
2.92404e-06
2.81075e-06
3.35979e-06
3.73064e-06
3.26801e-06
3.51434e-06
3.48815e-06
4.13393e-06
3.37562e-06
3.57785e-06
2.819e-06
4.10446e-06
3.44975e-06
3.68129e-06
3.79355e-06
3.42605e-06
3.71796e-06
4.00291e-06
4.31862e-06
3.81797e-06
3.90771e-06
3.99339e-06
4.51446e-06
4.04884e-06
3.91543e-06
4.25781e-06
4.5984e-06
4.29598e-06
3.96431e-06
3.91313e-06
3.86384e-06
4.40498e-06
4.378e-06
4.01535e-06
3.97173e-06
4.0405e-06
4.36562e-06
4.11119e-06
4.43992e-06
4.06691e-06
4.53388e-06
4.15922e-06
4.69754e-06
4.52307e-06
4.44422e-06
5.1006e-06
4.61842e-06
4.67293e-06
4.61414e-06
4.99132e-06
4.67382e-06
4.15765e-06
5.28204e-06
4.60332e-06
9.59811e-06
4.89209e-06
5.52572e-06
4.92393e-06
5.39593e-06
5.46962e-06
9.56035e-06
5.0902e-06
5.60286e-06
5.66599e-06
1.08216e-06
5.11116e-06
5.28964e-06
9.58069e-06
5.70087e-06
5.62316e-06
5.89446e-06
9.52629e-06
5.12887e-06
9.48768e-06