/*--------------------------------*- C++ -*----------------------------------*\
  =========                 |
  \\      /  F ield         | OpenFOAM: The Open Source CFD Toolbox
   \\    /   O peration     | Website:  https://openfoam.org
    \\  /    A nd           | Version:  8
     \\/     M anipulation  |
\*---------------------------------------------------------------------------*/
FoamFile
{
    version     2.0;
    format      ascii;
    class       volScalarField;
    location    "7.8";
    object      p;
}
// * * * * * * * * * * * * * * * * * * * * * * * * * * * * * * * * * * * * * //

dimensions      [0 2 -2 0 0 0 0];

internalField   nonuniform List<scalar> 
17372
(
3.50304e-06
7.27406e-06
1.9988e-06
4.85768e-06
7.30119e-06
7.27617e-06
1.4027e-06
7.03136e-06
1.07033e-06
6.95497e-06
3.30122e-06
7.28929e-06
6.93079e-06
7.24463e-06
1.26479e-06
4.65389e-06
7.29164e-06
7.25857e-06
7.24728e-06
6.9507e-06
1.22224e-06
4.96094e-07
3.6474e-06
6.96112e-06
7.27473e-06
1.17841e-06
3.90668e-06
2.08024e-06
7.58164e-06
3.80202e-06
1.17028e-06
7.30691e-06
3.69837e-06
1.13549e-06
6.78594e-06
4.7197e-06
1.08954e-06
7.27764e-06
1.29361e-06
6.33739e-06
4.01124e-06
6.9274e-07
2.05593e-06
6.99114e-06
5.49732e-06
3.59698e-06
7.29757e-06
4.18532e-06
1.04736e-06
4.56548e-06
7.27898e-06
1.30794e-06
2.29505e-06
1.94621e-06
7.2625e-06
7.29306e-06
9.99297e-07
2.02653e-07
1.27006e-06
7.05857e-06
4.60129e-06
7.0558e-06
3.74993e-06
5.02906e-06
2.14828e-06
7.04843e-06
1.32627e-06
2.46645e-07
1.24163e-07
7.2708e-06
7.09784e-06
3.1231e-06
1.56344e-06
4.68959e-06
6.45328e-06
5.49617e-06
1.68029e-06
5.49276e-06
5.75366e-06
5.94564e-06
7.29198e-06
1.47964e-06
1.43132e-06
7.30138e-06
7.28795e-06
5.42497e-06
4.61388e-06
4.99618e-06
9.56425e-07
7.15501e-06
4.61533e-07
7.34825e-07
7.08889e-06
7.26445e-06
7.07912e-06
4.1157e-06
7.24967e-06
7.3002e-06
7.26508e-06
7.00713e-06
7.12285e-06
3.78368e-06
7.27428e-06
7.06809e-06
1.37052e-06
8.67758e-07
4.07399e-06
6.60226e-06
7.30012e-06
3.88885e-06
1.88419e-07
7.22387e-06
3.99378e-06
4.46587e-06
1.02042e-06
5.15848e-07
4.09863e-06
8.24913e-07
5.44768e-07
4.20377e-06
1.11994e-06
4.30906e-06
1.22014e-06
9.48735e-07
7.26695e-06
1.32022e-06
2.33398e-06
7.06765e-06
7.29236e-06
4.41386e-06
1.42079e-06
2.43416e-06
3.85428e-06
4.51614e-06
2.2332e-06
7.07068e-06
3.34577e-06
2.13187e-06
6.04209e-06
7.29788e-06
7.01975e-06
2.03011e-06
1.87763e-06
1.5215e-06
7.11414e-06
1.77473e-06
1.67331e-06
7.25314e-06
6.985e-06
4.81819e-06
5.63912e-07
4.85765e-06
2.68379e-07
1.37167e-06
7.23003e-06
1.54001e-06
5.10306e-06
7.29987e-06
7.07511e-06
3.6796e-06
1.47107e-06
7.29851e-06
1.82801e-06
7.25176e-06
4.22034e-06
7.03183e-06
4.12873e-06
7.20733e-06
5.04992e-07
4.46738e-06
1.41601e-07
6.98419e-07
5.14338e-06
7.21527e-06
2.53469e-06
1.86024e-06
1.73586e-06
6.94043e-06
7.04441e-06
7.29519e-06
6.86335e-06
3.44231e-06
7.16754e-06
5.30213e-07
2.14427e-06
1.84864e-06
5.45117e-07
7.30752e-06
1.3325e-07
7.3066e-06
3.71025e-07
5.68065e-06
1.03201e-06
7.13994e-06
4.36124e-06
7.31087e-06
3.95187e-06
8.1601e-07
7.25633e-06
6.48882e-06
7.31167e-06
7.0235e-06
7.28727e-06
2.31611e-06
2.71587e-07
7.30076e-06
3.48523e-06
7.06359e-06
5.3802e-06
1.62145e-06
3.88996e-06
3.95893e-06
3.63691e-06
3.79361e-06
7.30424e-06
7.77279e-07
3.645e-06
6.43897e-06
7.13195e-06
3.37176e-07
2.19628e-06
7.03986e-06
7.30959e-06
7.18085e-06
1.57199e-06
7.28872e-06
4.55565e-06
6.78446e-06
7.04889e-06
3.5763e-06
7.28038e-06
3.53129e-06
7.11267e-06
5.74971e-06
5.72385e-06
7.35645e-06
7.05666e-06
7.41142e-07
1.39758e-07
2.36259e-06
2.41182e-06
4.72505e-06
7.30035e-06
7.24455e-06
6.93316e-06
4.32489e-06
7.24376e-06
2.24509e-06
3.23489e-07
7.29915e-06
7.29419e-06
2.40857e-06
1.23079e-07
6.92429e-07
7.29933e-06
3.71329e-06
2.68847e-06
7.29669e-06
1.80068e-06
7.23938e-06
4.56411e-07
6.36932e-07
7.25647e-06
7.28922e-06
7.29296e-06
7.29243e-06
4.41706e-06
7.23231e-06
6.34059e-07
7.31294e-06
6.22476e-06
4.37716e-06
7.08378e-06
7.02345e-06
7.25549e-06
4.87225e-06
4.25628e-06
7.15784e-06
7.27332e-06
7.04716e-06
7.25918e-06
7.30786e-06
5.67037e-06
7.31326e-06
4.06343e-06
5.83292e-06
4.34009e-06
1.4656e-06
9.43911e-07
7.12847e-06
3.39797e-06
6.89936e-06
3.47252e-06
3.4425e-06
7.08466e-06
1.62116e-06
5.36231e-06
7.18181e-06
5.84e-06
5.17466e-07
3.9879e-07
7.31346e-06
9.67803e-07
7.31225e-06
7.29385e-06
6.97163e-06
6.31279e-06
3.44615e-06
1.13821e-06
7.23867e-06
5.88722e-06
7.21699e-06
3.69276e-06
7.31332e-06
7.0267e-06
6.94985e-06
4.48109e-06
7.20981e-06
7.27723e-06
7.83646e-07
6.12273e-06
7.05575e-06
1.72374e-06
7.13902e-06
6.4806e-06
7.0717e-06
7.09607e-06
7.31332e-06
7.20339e-06
5.45959e-06
1.97829e-06
6.71071e-06
7.29677e-06
1.42945e-06
2.83505e-06
1.11597e-06
7.31288e-06
1.66099e-06
1.74181e-06
7.22673e-06
1.89968e-06
7.20469e-06
6.8491e-06
3.5978e-06
5.32578e-07
1.96071e-06
7.30766e-06
5.03641e-07
7.3585e-07
6.07436e-06
7.31237e-06
6.96878e-06
7.30881e-06
7.21546e-07
1.63752e-06
7.3002e-06
6.9426e-06
4.61764e-06
7.31177e-06
1.22194e-06
7.23214e-06
7.3108e-06
1.79636e-06
1.53388e-06
1.32931e-06
7.31024e-06
7.2914e-06
7.00479e-06
1.43039e-06
7.18404e-06
6.60611e-06
7.29379e-06
7.29719e-06
7.16108e-06
6.67409e-06
7.3094e-06
5.50865e-07
6.03023e-06
7.07034e-06
7.29393e-06
7.31044e-06
3.36598e-06
6.97061e-06
4.15105e-06
7.30106e-06
7.07911e-06
4.49338e-06
2.95719e-06
7.0647e-06
7.01283e-06
7.08495e-06
7.30391e-06
4.16796e-06
6.06345e-06
7.30191e-06
2.87635e-07
6.94457e-06
7.28327e-06
7.29387e-06
7.25728e-06
2.93681e-06
7.101e-06
7.12634e-06
4.63461e-06
1.72659e-06
1.675e-06
7.07096e-06
1.61009e-07
7.28692e-06
5.80721e-06
7.30138e-06
6.70315e-06
1.77033e-07
2.09208e-06
1.8258e-06
7.29239e-06
4.53279e-06
7.30581e-06
6.0126e-06
5.47535e-06
7.1367e-06
7.28227e-06
1.89681e-06
7.12936e-06
1.69012e-06
6.10552e-06
7.15057e-06
7.73388e-07
6.65553e-06
6.9104e-06
7.02368e-06
5.99034e-06
2.72099e-06
4.54062e-06
1.05072e-06
6.20487e-06
7.07809e-06
2.8798e-06
7.3668e-06
7.28813e-06
7.03448e-06
7.30751e-06
6.84764e-06
7.23433e-06
7.29306e-06
7.04725e-06
7.30299e-06
1.78015e-07
2.72094e-06
7.09442e-06
7.2871e-06
7.28994e-06
1.45078e-06
1.51672e-06
8.38428e-07
7.29668e-06
7.31309e-06
7.03803e-06
6.71832e-06
6.90718e-06
7.08475e-06
4.50554e-06
7.06831e-06
3.04293e-06
1.89361e-07
3.01717e-06
7.1884e-06
5.34934e-06
7.25541e-06
4.04142e-06
1.35344e-06
6.01317e-06
7.28321e-06
7.21628e-06
7.04383e-06
7.21581e-06
4.38899e-07
7.30339e-06
1.44281e-06
7.31339e-06
4.50922e-06
5.60328e-06
6.98313e-06
1.0774e-06
7.1544e-06
7.14116e-06
9.08877e-07
7.30536e-06
7.29167e-06
5.43929e-07
4.79002e-06
7.55916e-08
6.88363e-07
1.92812e-06
4.04794e-07
7.30718e-06
4.04613e-06
7.30158e-06
7.18934e-06
7.07255e-06
4.27265e-06
6.42875e-07
7.30596e-06
7.2376e-06
7.31345e-06
6.44516e-07
7.30765e-06
7.18622e-06
6.46765e-07
7.13902e-06
1.69286e-06
4.27699e-06
3.20851e-06
7.05387e-06
4.64994e-06
5.43741e-07
7.12303e-06
4.51755e-06
5.58398e-06
4.34134e-06
7.20932e-06
7.06437e-06
1.98683e-06
7.31321e-06
7.22835e-06
7.30425e-06
3.1432e-06
4.75239e-06
7.19988e-06
7.01562e-06
4.44315e-06
1.20015e-07
7.25487e-06
5.63341e-06
4.56086e-06
2.36271e-06
4.1363e-06
7.31314e-06
3.74323e-06
7.08334e-06
6.6425e-07
4.54525e-06
7.22848e-06
7.00491e-06
6.90911e-06
7.26126e-06
7.19054e-06
7.22916e-06
7.13486e-06
4.64774e-06
5.45225e-06
6.62908e-06
7.30367e-06
4.51173e-07
4.68537e-06
7.24877e-06
7.30062e-06
7.25566e-06
7.31264e-06
4.75109e-06
4.59679e-06
2.04081e-06
3.6234e-06
2.81548e-06
4.03177e-07
7.06415e-06
1.56829e-06
7.29089e-06
4.8546e-06
5.8103e-07
9.41666e-07
5.77075e-06
7.1102e-06
7.30912e-06
4.95632e-06
5.80437e-06
7.31206e-06
3.98377e-06
1.65209e-06
7.2473e-06
5.10978e-06
1.46865e-06
3.12481e-06
6.59613e-06
5.62338e-06
6.35499e-06
6.79103e-06
1.47265e-06
7.02647e-06
5.03987e-06
6.52198e-06
7.2873e-06
7.3811e-06
6.82918e-06
7.22077e-06
3.24247e-06
7.28019e-06
7.31125e-06
7.49574e-07
5.46802e-07
4.68918e-06
3.09561e-06
7.07031e-06
4.74587e-06
6.69292e-06
7.42959e-06
7.28199e-06
7.29276e-06
5.01947e-06
8.53783e-07
5.18157e-07
7.25884e-06
6.82022e-06
7.31053e-06
7.20344e-06
7.19092e-06
4.29475e-06
1.41277e-06
4.40189e-06
6.49163e-07
3.94136e-06
5.52689e-06
2.13247e-06
4.55668e-06
4.24225e-06
3.99294e-06
7.15937e-06
1.05823e-06
7.22583e-06
7.03643e-06
7.25505e-06
7.04486e-06
2.85712e-07
7.27096e-06
7.44124e-07
3.06515e-06
7.08543e-06
6.98177e-07
6.94148e-06
2.08077e-06
7.08229e-06
7.0278e-06
7.1912e-06
8.48842e-07
7.29779e-06
7.05991e-06
1.88207e-06
5.4767e-06
1.39555e-07
7.25439e-06
6.35134e-06
7.41491e-06
7.0064e-06
7.59018e-07
5.42695e-06
5.57749e-06
5.33259e-06
7.04293e-06
7.27691e-06
5.68459e-06
7.27762e-06
6.73066e-06
7.21924e-06
5.62989e-06
7.31237e-06
6.93917e-06
3.34198e-06
1.41671e-07
2.63453e-06
2.2421e-06
3.84578e-06
1.35009e-06
7.14467e-06
6.36218e-06
7.23747e-06
5.46537e-06
7.27609e-06
9.12758e-07
6.92875e-06
4.38832e-06
5.58621e-07
1.27291e-06
7.27897e-06
5.5456e-06
2.04458e-06
7.18853e-06
7.25869e-06
4.22355e-06
1.47751e-07
4.03261e-06
5.64476e-06
4.42924e-06
5.37741e-06
7.29496e-06
7.18247e-06
4.64205e-08
7.13355e-06
7.25169e-06
5.96385e-07
7.28132e-06
1.58546e-06
7.62249e-08
7.27345e-06
7.23259e-06
7.89627e-08
3.40421e-06
7.27581e-06
6.65474e-06
1.21017e-06
2.9837e-06
4.49483e-06
3.01249e-06
5.32801e-06
7.29484e-06
3.84275e-06
4.84508e-06
2.42221e-07
6.18479e-06
8.5291e-07
7.27027e-06
1.83285e-06
4.26199e-06
7.21967e-06
6.76698e-06
3.67013e-06
1.04535e-06
7.30785e-06
7.27364e-06
6.51747e-06
6.55224e-06
7.09151e-06
4.85766e-06
4.59893e-06
2.04494e-06
7.26645e-06
7.20351e-06
5.73234e-07
4.5777e-06
7.30867e-06
3.4407e-06
5.52148e-06
7.07328e-06
7.24011e-06
7.26341e-06
5.32896e-06
7.30715e-06
7.29774e-06
7.17948e-06
7.25626e-06
2.25191e-06
2.18262e-06
7.30813e-06
5.23771e-06
7.14569e-06
6.95273e-06
7.25986e-06
5.0837e-06
5.32164e-06
7.29292e-06
7.11157e-06
4.39239e-06
4.70087e-06
7.17816e-06
5.62735e-06
7.182e-06
6.41934e-07
2.79277e-06
3.83406e-07
1.56662e-06
5.55731e-06
6.92532e-06
7.25339e-06
4.09868e-06
7.00533e-06
1.7573e-06
7.1611e-06
3.83636e-06
7.20127e-06
6.03228e-07
1.28097e-06
7.30786e-06
4.39698e-06
5.31021e-06
4.29527e-06
7.14693e-06
5.75054e-06
7.29226e-06
1.46437e-06
7.2503e-06
7.19969e-07
4.22326e-06
2.5365e-06
7.12834e-06
1.777e-06
7.22441e-06
7.08466e-06
4.72645e-07
7.17431e-06
1.75438e-06
7.16679e-06
7.24188e-06
6.57998e-06
7.24087e-07
7.23407e-06
7.07076e-06
6.96289e-06
6.48373e-06
6.77524e-06
6.30281e-06
3.32937e-06
1.65993e-06
2.87629e-06
6.83742e-06
7.08077e-06
7.28232e-06
4.62983e-07
4.84482e-06
2.87106e-06
5.28203e-06
7.0853e-06
7.06153e-06
7.30288e-06
3.20708e-06
1.30826e-06
7.09061e-06
7.21043e-06
6.26948e-07
4.94541e-06
2.06484e-06
4.192e-07
6.66173e-06
7.15411e-06
7.24912e-06
6.6991e-06
5.83691e-06
3.18719e-06
7.05357e-06
7.152e-06
6.79027e-06
7.28076e-06
7.14599e-06
9.06925e-07
1.58085e-06
4.94385e-06
3.8979e-06
7.27525e-06
9.56644e-07
1.62695e-06
1.99612e-06
6.15745e-06
3.25463e-06
7.29549e-06
7.07139e-06
6.85005e-06
7.24718e-06
7.29064e-06
2.58922e-06
1.39952e-07
7.29326e-06
6.85703e-06
5.83831e-06
3.46341e-07
7.09676e-06
5.9645e-06
1.05447e-06
7.29586e-06
2.08556e-06
7.07873e-06
7.25417e-06
7.0571e-06
5.04498e-06
7.20527e-06
4.39849e-06
2.28357e-06
1.11307e-06
5.9009e-06
5.17941e-06
4.97763e-07
7.25063e-06
1.1493e-06
6.49423e-06
4.10502e-06
7.2796e-06
4.61116e-06
5.12962e-06
7.30275e-06
7.30276e-06
1.51903e-06
4.46849e-06
7.29179e-06
7.26331e-06
6.18295e-06
7.07499e-06
6.98543e-06
7.27245e-06
1.00517e-06
7.29214e-06
6.62365e-07
6.82615e-06
3.93695e-06
7.0624e-06
7.27406e-06
3.49154e-06
7.05649e-06
5.51299e-06
7.82999e-07
4.69836e-06
4.50142e-06
3.02778e-08
6.9778e-06
5.02951e-06
5.14653e-06
2.88011e-08
1.36822e-07
6.90716e-06
2.19579e-06
4.2834e-06
7.05332e-06
4.58394e-06
7.25556e-06
4.07546e-06
7.11434e-06
5.70033e-06
7.30897e-06
5.35746e-06
7.30722e-06
3.81719e-06
4.79575e-06
5.64693e-06
7.09818e-06
4.7767e-06
5.19954e-06
6.87013e-06
6.66212e-06
7.2119e-06
7.30191e-06
7.05807e-06
4.49437e-06
1.32794e-06
7.27188e-06
2.9614e-06
7.27832e-06
2.81153e-06
5.10576e-06
4.8955e-06
6.95842e-06
2.32855e-06
7.29272e-06
4.92885e-06
5.04588e-06
7.30706e-06
6.92343e-06
7.16845e-06
6.90089e-06
4.99581e-06
7.29452e-06
7.30778e-06
3.73189e-06
7.27669e-06
5.16926e-06
1.67206e-06
6.27835e-08
9.25468e-08
2.54098e-07
6.91334e-06
2.9157e-08
4.23527e-08
4.18903e-06
7.16125e-06
2.43879e-06
5.24786e-06
7.26907e-06
7.30828e-06
7.30587e-06
4.52274e-06
7.2742e-06
6.65427e-06
7.30985e-06
7.29293e-06
4.82781e-06
7.1774e-06
7.24976e-06
2.72188e-06
7.27237e-06
7.27333e-06
7.0169e-06
1.11417e-06
6.0607e-08
4.4847e-07
6.30131e-06
2.29965e-06
1.82931e-06
3.10887e-06
2.03936e-06
7.06591e-06
1.32468e-07
7.27688e-06
5.13957e-06
5.69618e-06
4.67263e-06
7.22979e-06
2.32941e-06
7.20449e-06
7.23467e-06
4.72657e-06
1.72439e-06
7.11132e-06
7.29148e-06
7.27375e-06
7.14126e-06
5.67706e-06
5.70235e-06
7.15433e-06
6.77203e-07
7.08467e-06
4.00269e-06
2.77684e-06
7.15447e-06
5.09674e-06
2.90682e-06
5.07969e-06
4.61159e-06
7.1513e-06
4.22807e-06
5.34844e-06
6.95152e-06
6.97411e-06
3.25689e-06
1.06063e-06
1.21306e-07
6.98211e-06
3.78846e-06
6.46563e-07
7.29292e-06
6.71465e-06
7.1979e-06
6.3897e-06
3.83965e-07
4.62491e-06
7.03348e-06
7.232e-06
7.18686e-06
7.21041e-06
1.69708e-06
7.29733e-06
2.38365e-06
7.13274e-06
7.27522e-06
6.43802e-06
7.19086e-06
3.01188e-06
7.30003e-06
6.99707e-06
5.37936e-07
1.61942e-06
1.98035e-06
1.48231e-06
7.21896e-06
7.28812e-06
6.99101e-06
1.36008e-06
6.96759e-06
7.29886e-06
7.19147e-06
7.18913e-06
6.05896e-07
4.52251e-06
5.22906e-06
4.564e-06
7.23543e-06
5.19835e-06
1.21222e-06
1.20312e-06
3.11431e-06
6.99592e-06
1.65844e-06
7.2362e-06
7.08921e-06
1.90563e-06
7.23278e-06
5.77644e-06
7.26353e-06
6.46e-06
6.28567e-06
7.14407e-06
7.21512e-06
7.29391e-06
7.14133e-06
3.09642e-06
7.2909e-06
5.44828e-06
5.25205e-06
6.15154e-07
7.27439e-06
5.97096e-06
1.25343e-06
3.46048e-07
2.8111e-07
7.01742e-06
7.28512e-06
7.00443e-06
7.52784e-06
1.0172e-06
4.07354e-07
4.69507e-06
4.01277e-07
4.3612e-06
1.05695e-06
7.01346e-06
6.73129e-06
6.75743e-06
7.25786e-06
4.19953e-07
3.22285e-07
4.31518e-06
4.45589e-06
6.10386e-06
7.27954e-06
6.94471e-06
5.33208e-06
7.01036e-06
8.37826e-07
9.64459e-07
7.05224e-06
7.2767e-06
4.94126e-06
6.95812e-06
4.48224e-07
7.06914e-06
5.30109e-06
7.24478e-06
7.27661e-06
7.21891e-06
7.27306e-06
6.07564e-07
5.8544e-08
7.2765e-06
6.96474e-06
5.27199e-07
7.18072e-06
1.93622e-06
7.19307e-06
3.33103e-07
6.95343e-06
7.27641e-06
5.14735e-06
7.29505e-06
7.31407e-06
7.01741e-06
1.31479e-06
1.53677e-06
4.81273e-07
6.4141e-06
4.04424e-06
7.25486e-06
6.22466e-06
7.02897e-06
6.27997e-06
7.33053e-06
1.42053e-06
7.29862e-06
7.25114e-06
3.47956e-07
7.29355e-06
7.30927e-06
4.71587e-06
4.34888e-06
7.29113e-06
5.59734e-07
5.5481e-06
9.20749e-07
6.66045e-06
6.99727e-06
4.59653e-06
6.9962e-06
7.31082e-06
4.97928e-06
7.25081e-06
3.62605e-06
1.46188e-06
7.28763e-06
4.45635e-06
5.08859e-06
9.68891e-08
8.28118e-08
6.10115e-06
7.17084e-06
3.6284e-06
2.40116e-06
7.22826e-06
7.23308e-06
7.31148e-06
7.25395e-06
3.39277e-07
7.21023e-06
7.24307e-06
3.79489e-06
7.2714e-06
7.29231e-06
6.80972e-06
4.24236e-06
6.94348e-06
6.43499e-07
5.48956e-06
7.29682e-06
7.31229e-06
4.08306e-06
7.1529e-06
2.98059e-07
1.6123e-06
1.56651e-06
5.87808e-06
5.85782e-06
7.32822e-06
3.84756e-06
7.0786e-06
2.48395e-06
7.30271e-06
7.13002e-06
4.13601e-06
7.24492e-06
7.31507e-06
7.31297e-06
1.16476e-06
3.65197e-06
7.3046e-06
6.74822e-06
6.09026e-06
4.37735e-06
6.6427e-06
6.27994e-06
4.14107e-07
7.28619e-06
7.20777e-06
8.28753e-07
4.87552e-07
1.41899e-06
3.74155e-07
4.03019e-06
1.35748e-06
7.31355e-06
7.14687e-06
4.73634e-06
7.29093e-06
6.92364e-06
7.24485e-06
5.45705e-06
7.12125e-06
5.66262e-07
7.18551e-06
3.49895e-07
7.29041e-06
7.2958e-06
1.02609e-06
3.80214e-07
6.84361e-06
5.2643e-06
7.24462e-06
7.31403e-06
7.21978e-06
1.08678e-07
7.135e-08
1.15919e-06
5.68221e-06
7.20363e-06
7.25466e-06
6.79026e-06
7.17875e-06
7.28996e-06
4.11849e-06
4.87247e-07
7.24957e-06
5.32991e-06
7.3142e-06
4.15202e-07
2.43018e-06
7.15963e-06
5.94027e-06
6.83828e-06
7.1702e-06
5.98307e-06
7.08261e-06
7.18769e-06
1.51448e-06
6.92281e-06
7.01593e-06
7.08718e-06
8.91824e-07
7.31429e-06
7.01582e-06
6.97794e-06
7.30661e-06
5.76305e-06
3.98463e-07
5.65148e-06
5.73742e-06
7.2489e-06
5.58706e-06
7.18207e-06
7.17378e-06
7.30242e-06
7.29157e-06
2.53699e-07
6.68395e-07
7.31411e-06
3.33466e-07
4.4017e-07
6.9335e-06
6.93283e-06
6.61554e-06
5.80711e-06
7.22883e-06
6.89881e-06
1.96188e-06
7.25997e-06
7.26782e-06
7.27367e-06
5.27998e-06
7.27981e-06
7.31409e-06
7.30873e-06
7.41718e-06
7.02268e-06
4.24054e-08
6.87343e-06
1.3577e-06
5.9771e-06
7.28922e-06
1.10109e-06
7.17637e-06
6.97082e-06
7.21334e-07
7.17021e-06
7.11112e-06
1.56138e-06
7.31042e-06
3.26804e-08
1.58203e-06
6.12165e-06
7.13348e-06
7.21424e-06
7.31682e-06
5.6421e-06
6.77436e-06
7.25825e-07
4.8168e-06
3.92468e-06
7.28688e-06
7.30442e-06
7.01075e-06
6.93582e-06
7.18415e-06
5.26193e-06
5.09656e-06
7.30622e-06
4.25473e-06
7.30082e-06
4.48132e-07
6.50433e-06
7.12824e-06
5.97132e-06
1.00075e-06
4.53114e-07
3.61431e-06
5.79406e-06
6.92532e-06
4.87841e-06
6.25201e-07
7.05157e-06
8.27588e-07
4.32669e-07
1.09876e-06
7.27436e-06
6.95144e-06
7.31352e-06
7.26208e-06
7.28118e-06
6.17498e-06
1.83132e-06
7.27507e-06
5.43693e-06
5.08065e-07
6.96298e-06
5.4216e-06
3.78925e-06
7.29169e-06
6.20718e-06
6.06622e-06
7.23093e-06
7.11853e-06
7.13817e-06
7.2349e-06
7.2806e-06
5.60725e-06
7.16221e-06
7.21016e-06
5.24955e-06
7.265e-06
5.75611e-06
7.31665e-06
7.06845e-06
5.00344e-06
6.54281e-06
6.91636e-06
6.65457e-06
7.31049e-06
7.31589e-06
1.25494e-06
3.48963e-06
4.27136e-07
9.85616e-07
9.30282e-07
5.83253e-06
6.99279e-06
7.30443e-06
7.01267e-06
6.91661e-06
7.09147e-06
6.94795e-06
6.75184e-06
7.28856e-06
1.09558e-06
6.936e-06
5.94402e-06
5.35237e-06
1.1945e-06
7.29293e-06
6.58333e-06
6.46293e-06
7.30383e-06
7.21369e-06
7.27565e-06
2.10621e-06
6.20222e-06
7.18003e-06
7.30055e-06
7.30199e-06
7.29707e-06
6.92544e-06
9.24625e-08
6.95708e-06
4.53965e-06
1.63736e-06
2.5846e-06
7.29196e-06
5.58525e-06
7.27062e-06
7.27711e-06
6.94369e-06
7.09752e-06
1.26316e-06
6.79994e-06
5.85059e-06
2.36976e-07
5.74854e-06
7.14146e-06
9.45905e-07
7.02806e-06
6.84444e-06
1.59981e-07
3.87746e-06
1.36668e-06
1.03363e-06
6.47106e-06
6.91072e-06
1.22607e-06
1.42787e-06
5.59668e-06
7.06342e-06
6.85342e-06
7.31461e-06
6.86409e-06
7.27711e-06
4.69944e-06
1.47226e-06
3.82754e-07
1.2605e-06
6.96314e-06
6.63505e-06
6.80523e-06
7.20914e-06
6.29238e-06
7.31646e-06
3.52492e-06
6.91985e-06
6.94906e-06
7.14462e-06
7.19045e-06
7.27227e-06
7.28253e-06
4.9927e-07
7.2337e-06
6.7822e-06
6.26787e-06
1.269e-06
7.29352e-06
6.94403e-06
7.16019e-06
7.16157e-06
3.56629e-07
6.54977e-06
3.53688e-06
7.21109e-06
3.76702e-06
2.61122e-06
4.28663e-07
6.08042e-06
1.13735e-06
2.73609e-06
1.69206e-06
7.2775e-06
7.24192e-06
2.92138e-07
7.14962e-06
6.9284e-06
7.24121e-06
7.27861e-06
5.60469e-07
1.33719e-06
7.10341e-06
6.41912e-06
4.20961e-07
7.26171e-06
7.16888e-06
6.05915e-07
6.91735e-06
6.87508e-06
6.21611e-06
7.0278e-06
7.2937e-06
6.55976e-06
4.0275e-06
6.80817e-06
7.06337e-06
4.78608e-07
7.19484e-06
6.25701e-06
6.83804e-06
5.76129e-06
2.05002e-06
7.12271e-06
7.17789e-06
1.79776e-06
3.18583e-06
7.29366e-06
6.8625e-06
4.91916e-06
6.82885e-06
7.05439e-06
7.3011e-06
7.1096e-06
7.30641e-06
7.27176e-06
7.27716e-06
7.13605e-06
1.24133e-06
6.04917e-06
5.36832e-06
6.16942e-06
6.62358e-06
7.23922e-06
7.27199e-06
7.29039e-06
1.79848e-06
5.81975e-06
5.82471e-06
7.29711e-06
6.40959e-06
7.31613e-06
4.83637e-06
5.99186e-07
5.94487e-06
7.2795e-06
7.25879e-06
4.73701e-07
7.29917e-06
7.26068e-06
1.30544e-06
4.68428e-07
5.76815e-06
7.28148e-06
5.53003e-06
2.89683e-07
6.76873e-06
4.91735e-06
6.20723e-06
5.7271e-06
7.31618e-06
7.28596e-06
7.22721e-06
7.30692e-06
7.0307e-06
7.27847e-06
5.24235e-06
6.80447e-06
2.77256e-06
7.30383e-06
7.2569e-06
7.26234e-06
7.2931e-06
5.058e-06
7.01693e-06
6.97858e-06
7.23924e-06
7.04451e-06
7.14048e-06
6.98751e-06
1.40981e-06
6.65885e-06
7.30521e-06
6.8245e-06
7.23605e-06
7.074e-06
7.05327e-06
7.29757e-06
6.33912e-06
5.91268e-06
7.11561e-06
3.58339e-06
7.31694e-06
4.11656e-06
7.21323e-06
7.29025e-06
7.02941e-06
7.07254e-06
7.27346e-06
5.70039e-06
6.11525e-06
1.32753e-06
3.7268e-07
4.75567e-07
7.24416e-06
6.95161e-06
6.96108e-06
7.07138e-06
7.20319e-06
6.98651e-06
6.91869e-06
6.93956e-06
6.95592e-06
7.17109e-06
2.67193e-06
5.86842e-06
4.19218e-07
7.20641e-06
7.32686e-06
6.86774e-06
3.99555e-07
7.03546e-06
7.02694e-06
7.15138e-06
6.4651e-06
7.01915e-06
6.82574e-06
6.20518e-06
7.00416e-06
7.2982e-06
7.17683e-06
6.87847e-06
4.53928e-06
6.26627e-06
7.02662e-06
7.29965e-06
7.04825e-06
7.28609e-06
7.30383e-06
7.30798e-06
5.74067e-06
6.65297e-06
7.27002e-06
6.50941e-06
7.26867e-06
7.27977e-06
5.5039e-06
5.16802e-07
6.96607e-06
6.92271e-06
6.89371e-06
1.93413e-06
7.02387e-06
7.29576e-06
4.57905e-06
6.81784e-06
5.64936e-06
7.15737e-06
7.01807e-06
5.73278e-06
7.00379e-06
6.93547e-06
7.0461e-06
7.27115e-06
6.8629e-06
6.36351e-06
4.91691e-06
7.03319e-06
6.1671e-06
5.52536e-07
6.94775e-06
7.27226e-06
4.7773e-06
6.96309e-06
4.67992e-07
7.24873e-06
7.29597e-06
7.13954e-06
7.04683e-06
1.37999e-06
6.95669e-06
7.28685e-06
7.10915e-06
6.14406e-06
7.27323e-06
6.98302e-06
5.89553e-06
4.64828e-06
7.10298e-06
7.26683e-06
6.91504e-06
6.959e-06
3.97744e-06
1.74585e-06
7.27416e-06
1.24691e-06
7.2498e-06
7.04598e-06
6.62657e-06
7.30324e-06
5.27325e-07
7.22272e-06
6.84726e-07
7.29654e-06
7.31656e-06
7.05877e-06
7.29608e-06
4.0554e-06
7.29252e-06
6.95517e-07
7.01133e-06
5.67149e-06
1.61004e-06
6.99745e-06
3.29716e-07
6.85237e-06
7.27935e-06
6.91999e-06
7.09562e-06
5.79839e-06
7.26748e-06
7.01043e-06
1.51432e-06
6.46192e-06
5.5791e-06
5.82519e-06
4.43757e-07
6.977e-06
6.09716e-06
7.19654e-06
6.95759e-06
7.00741e-06
7.28336e-06
7.23804e-06
6.13102e-06
2.06214e-06
6.75706e-06
1.22909e-06
5.74472e-06
5.32807e-06
6.97885e-06
6.87758e-06
5.98968e-06
5.99242e-06
7.28358e-06
7.27574e-06
6.95006e-06
7.16719e-06
7.00607e-06
7.25687e-06
5.89612e-06
6.8996e-06
7.25574e-06
6.98369e-06
6.29685e-06
3.62768e-06
7.22623e-06
7.10925e-06
7.04945e-06
7.14397e-06
7.03176e-06
7.20183e-06
4.39945e-07
5.84558e-06
5.86586e-06
1.63018e-06
7.03788e-06
7.12693e-06
7.07872e-06
7.22042e-06
4.14861e-06
7.00306e-06
6.2055e-06
7.16049e-06
7.08819e-06
7.29418e-06
4.42934e-07
7.27505e-06
7.08808e-06
5.71952e-06
7.04315e-06
6.99188e-06
6.42874e-06
7.29353e-06
7.26495e-06
6.70842e-06
7.0293e-06
7.01192e-06
7.27991e-06
1.08379e-06
7.05585e-06
5.62386e-06
7.04693e-06
7.30332e-06
1.72615e-06
7.02212e-06
7.28229e-06
7.02175e-06
7.27937e-06
7.29374e-06
5.16077e-06
4.90467e-06
7.86913e-07
1.49114e-06
6.85937e-06
7.06159e-06
6.15577e-06
7.05139e-06
7.23145e-06
7.03044e-06
6.9664e-06
7.22046e-06
6.72218e-06
7.30285e-06
7.31657e-06
7.00107e-06
6.87125e-06
5.96306e-06
7.02055e-06
7.30231e-06
7.29046e-06
2.7515e-06
6.05435e-06
7.17335e-06
1.46216e-06
7.02652e-06
6.97183e-06
5.43191e-06
7.30355e-06
2.24829e-06
7.01384e-06
6.05312e-06
6.04968e-06
5.28045e-06
7.29005e-06
7.18873e-06
7.07699e-06
4.54895e-07
2.18154e-06
1.36137e-06
7.07213e-06
6.85717e-06
7.25325e-06
6.66453e-07
2.6288e-06
7.21115e-06
7.09909e-06
7.09777e-06
7.1154e-06
6.86668e-06
7.10894e-06
7.06466e-06
1.43256e-06
7.26826e-06
6.46855e-06
7.10468e-06
7.10749e-06
7.1699e-06
7.29729e-06
1.06968e-06
7.04152e-06
7.26604e-06
7.28836e-06
7.29347e-06
5.8937e-06
6.99564e-06
7.11235e-06
5.55285e-07
7.29781e-06
7.16317e-06
5.92803e-07
5.89977e-06
6.85362e-06
7.13683e-06
7.11628e-06
7.0814e-06
6.80472e-06
7.01474e-06
7.15122e-06
7.13517e-06
7.11352e-06
6.3636e-06
6.55483e-06
7.17958e-06
7.30364e-06
5.94274e-06
6.9749e-06
7.27673e-06
7.00859e-06
6.98492e-06
7.28066e-06
4.02228e-06
6.98341e-06
7.25345e-06
7.03016e-06
7.03461e-06
4.87019e-07
7.10161e-06
7.10706e-06
5.6871e-06
5.64464e-06
7.28822e-06
5.52608e-06
5.86213e-06
7.28016e-06
2.96139e-06
6.93283e-06
7.20297e-06
6.88459e-06
6.98102e-06
7.11243e-06
7.18212e-06
6.57783e-06
7.29162e-06
7.2767e-06
7.28108e-06
7.27923e-06
5.76848e-06
7.08155e-06
7.31631e-06
8.89856e-07
7.26464e-06
7.28634e-06
7.24493e-06
7.0699e-06
6.50319e-06
7.30402e-06
6.04895e-06
7.19591e-06
3.1174e-06
7.48113e-06
6.68121e-06
6.47724e-06
7.2824e-06
5.86006e-06
5.77216e-06
7.12429e-06
5.93369e-06
7.0788e-06
7.31567e-06
5.83215e-07
7.29608e-06
7.16359e-06
5.57471e-06
7.08378e-06
7.04286e-06
7.06992e-06
6.61362e-06
6.94021e-06
7.10925e-06
5.66099e-06
6.79384e-06
7.10733e-06
7.0865e-06
7.24756e-06
7.09817e-06
6.92275e-06
7.13517e-06
7.14223e-06
7.26064e-06
6.57627e-06
7.08936e-06
7.02732e-06
7.23508e-06
6.80562e-06
5.94035e-06
5.68653e-06
7.15082e-06
7.03816e-06
7.28581e-06
6.64517e-06
5.49267e-06
7.10942e-06
9.90394e-07
7.07329e-06
6.77961e-06
5.57563e-06
7.00761e-06
6.99714e-06
7.29859e-06
5.68161e-06
7.11268e-06
7.09332e-06
5.59274e-07
7.19037e-06
7.10306e-06
7.04443e-06
5.76001e-07
7.01029e-06
7.24489e-06
7.00903e-06
7.04991e-06
7.12126e-06
7.30463e-06
7.30334e-06
7.1685e-06
7.15686e-06
5.72636e-06
7.29382e-06
7.09782e-06
7.29202e-06
7.16208e-06
7.10433e-06
7.17541e-06
7.23543e-06
6.16029e-06
7.03829e-06
7.08398e-06
5.55695e-06
7.11818e-06
6.99776e-06
7.1522e-06
7.02993e-06
5.37042e-06
4.7576e-07
6.81498e-06
7.09641e-06
6.08348e-06
6.99567e-06
6.74682e-06
4.86787e-07
6.81733e-06
7.34225e-06
5.70104e-06
7.18889e-06
7.01393e-06
7.05113e-06
6.98103e-06
7.12533e-06
4.60091e-06
7.1036e-06
7.21444e-06
7.26025e-06
7.26181e-06
7.09378e-06
7.29477e-06
5.8562e-06
7.03057e-06
6.76084e-06
7.20263e-06
7.20253e-06
5.90755e-06
6.91495e-06
7.08693e-06
7.00637e-06
7.05582e-06
7.2783e-06
7.16321e-06
6.4856e-06
4.86584e-07
7.21065e-06
7.283e-06
7.19598e-06
7.17444e-06
7.09704e-06
7.301e-06
7.19278e-06
7.09038e-06
6.02569e-06
7.25306e-06
6.98194e-06
7.01997e-06
7.01219e-06
6.89256e-06
7.29947e-06
7.19713e-06
7.27549e-06
7.10916e-06
8.14905e-07
7.2754e-06
6.99395e-06
7.28029e-06
7.03198e-06
6.99602e-06
7.1149e-06
7.2304e-06
6.67701e-06
6.56164e-06
7.25406e-06
7.00238e-06
4.52236e-06
5.73021e-06
7.26682e-06
1.61865e-06
7.17676e-06
7.31591e-06
7.30239e-06
7.0743e-06
7.28121e-06
6.96598e-06
5.90271e-06
6.7951e-06
7.06351e-06
7.17101e-06
7.28266e-06
7.00866e-06
7.29243e-06
7.18395e-06
6.51774e-06
3.51384e-06
7.23828e-06
6.95641e-06
6.9992e-06
7.28983e-06
7.14984e-06
6.9891e-06
7.28258e-06
6.68706e-06
7.16062e-06
7.16863e-06
7.14501e-06
7.05005e-06
7.28449e-06
7.30447e-06
7.30595e-06
7.00012e-06
7.07374e-06
7.28772e-06
7.27429e-06
7.27699e-06
6.96447e-06
7.04426e-06
5.60451e-06
6.24599e-07
9.93347e-07
7.29093e-06
5.81388e-06
7.19344e-06
7.17493e-06
6.97845e-06
2.14002e-06
7.0267e-06
7.13053e-06
7.20827e-06
7.20926e-06
7.28566e-06
7.08826e-06
7.17308e-06
7.31565e-06
7.27787e-06
7.00625e-06
5.01822e-06
7.25059e-06
7.01835e-06
7.12807e-06
7.28446e-06
6.07116e-06
7.08553e-06
7.12238e-06
7.28567e-06
7.28224e-06
6.04429e-06
7.0096e-06
7.22793e-06
7.02878e-06
7.05316e-06
5.34768e-06
7.17213e-06
5.69408e-06
7.19395e-06
7.21584e-06
7.28925e-06
7.28487e-06
7.10639e-06
6.65682e-06
7.16765e-06
5.50794e-06
7.27772e-06
1.9196e-07
1.37338e-06
7.04252e-06
7.27911e-06
7.29839e-06
7.17711e-06
7.19518e-06
5.3651e-07
7.24372e-06
7.14766e-06
1.84717e-06
2.5268e-06
2.89361e-06
3.05121e-06
3.5212e-06
4.20049e-06
4.35686e-06
4.72643e-06
4.88558e-06
7.03941e-06
7.00993e-06
6.99786e-06
7.07874e-06
7.07531e-06
7.29285e-06
7.03295e-06
7.26617e-06
7.17083e-06
7.2904e-06
7.27725e-06
7.28092e-06
6.31177e-06
6.95583e-06
5.24345e-06
7.09221e-06
7.1628e-06
7.30577e-06
7.2913e-06
5.29539e-06
7.29298e-06
4.64505e-06
7.02784e-06
7.18753e-06
5.40008e-06
5.45284e-06
6.64379e-07
7.28729e-06
7.18047e-06
7.27088e-06
7.23956e-06
7.08621e-06
7.03131e-06
7.04806e-06
7.29272e-06
5.47928e-07
7.19087e-06
7.22044e-06
7.2952e-06
7.28969e-06
5.51056e-06
6.70444e-06
7.28484e-06
7.03509e-06
6.90762e-06
7.03753e-06
7.0379e-06
6.98891e-06
1.48451e-07
6.28391e-06
7.12211e-06
7.18084e-06
6.37852e-06
7.19071e-06
7.27182e-06
6.95583e-06
5.67662e-06
7.17317e-06
7.19601e-06
7.17027e-06
5.21092e-06
7.00199e-06
6.77084e-06
7.25453e-06
7.28525e-06
6.43625e-06
7.05812e-06
7.15796e-06
7.28157e-06
7.27819e-06
5.54625e-06
6.95127e-06
7.08457e-06
7.09467e-06
7.24204e-06
7.03371e-06
7.21139e-06
7.2759e-06
7.27086e-06
7.19519e-06
7.17844e-06
7.09556e-06
7.30057e-06
7.3073e-06
7.30533e-06
7.09127e-06
7.18653e-06
4.68617e-06
6.72384e-06
7.17577e-06
5.37588e-06
7.28098e-06
5.77271e-06
7.31536e-06
7.04695e-06
7.21971e-06
5.22383e-06
6.76178e-06
7.25707e-06
7.30008e-06
7.17201e-06
5.46255e-06
7.05804e-06
7.27466e-06
5.97341e-06
7.11053e-06
1.71e-06
7.25875e-06
7.13192e-06
6.8731e-06
7.30521e-06
7.27949e-06
7.26051e-06
7.23507e-06
6.66394e-06
7.21458e-06
7.03118e-06
6.29307e-06
3.7921e-07
7.16181e-06
7.29339e-06
7.26111e-06
2.45202e-07
6.95073e-06
7.07973e-06
2.56983e-06
7.26416e-06
7.28702e-06
7.19968e-06
5.62802e-06
6.28391e-06
7.24804e-06
6.90211e-06
6.88243e-06
7.04106e-06
7.25899e-06
7.27542e-06
7.29344e-06
7.15728e-06
6.98905e-06
7.23599e-06
7.08125e-06
1.40963e-06
7.21725e-06
7.27774e-06
7.04457e-06
7.15446e-06
7.27903e-06
7.26755e-06
7.31391e-06
7.25392e-06
7.01257e-06
7.28301e-06
6.10954e-06
7.2603e-06
7.19443e-06
7.03092e-06
7.27414e-06
7.31503e-06
6.03235e-06
7.18588e-06
7.21347e-06
7.05538e-06
7.29481e-06
7.29051e-06
6.9377e-06
7.29342e-06
7.22592e-06
7.19815e-06
7.23682e-06
7.05115e-06
7.25984e-06
7.09954e-06
7.23556e-06
7.0079e-06
7.06983e-06
7.28123e-06
7.22551e-06
7.18166e-06
7.10279e-06
7.25286e-06
6.06898e-06
7.19462e-06
7.29176e-06
5.91812e-06
7.14099e-06
7.29078e-06
7.07937e-06
7.22205e-06
7.19453e-06
7.12608e-06
6.99633e-06
7.01999e-06
7.29774e-06
7.15319e-06
7.29921e-06
7.2002e-06
7.15953e-06
7.25217e-06
6.58842e-06
5.08854e-06
7.2133e-06
6.76887e-07
7.00215e-06
6.24176e-06
7.09734e-06
7.2554e-06
7.19179e-06
7.09199e-06
1.09719e-06
7.17996e-06
7.02498e-06
7.17508e-06
7.27745e-06
3.42018e-06
6.93908e-06
8.48079e-07
7.17761e-06
7.29976e-06
7.29323e-06
5.87063e-06
7.16487e-06
7.38332e-06
6.7382e-07
5.42799e-06
6.87651e-06
7.26372e-06
7.26159e-06
6.36677e-06
7.28492e-06
5.50601e-06
5.59441e-06
6.24357e-06
7.28345e-06
7.21985e-06
7.29352e-06
7.25708e-06
7.2891e-06
7.22835e-06
7.30221e-06
5.393e-06
7.26334e-06
7.44839e-06
7.25235e-06
7.17322e-06
8.11459e-07
7.22558e-06
7.26173e-06
7.28207e-06
6.02825e-06