/*--------------------------------*- C++ -*----------------------------------*\
  =========                 |
  \\      /  F ield         | OpenFOAM: The Open Source CFD Toolbox
   \\    /   O peration     | Website:  https://openfoam.org
    \\  /    A nd           | Version:  8
     \\/     M anipulation  |
\*---------------------------------------------------------------------------*/
FoamFile
{
    version     2.0;
    format      ascii;
    class       surfaceScalarField;
    location    "7.8";
    object      phi;
}
// * * * * * * * * * * * * * * * * * * * * * * * * * * * * * * * * * * * * * //

dimensions      [0 3 -1 0 0 0 0];

internalField   nonuniform List<scalar> 
33977
(
3.51608e-09
-1.5309e-10
-3.78204e-09
4.19045e-10
-8.13554e-10
-1.65332e-09
1.7177e-09
7.49174e-10
3.82851e-09
-2.76537e-10
1.54034e-10
-3.706e-09
3.69769e-09
-3.63862e-09
-3.12172e-10
2.53104e-10
2.20163e-11
-2.31982e-10
-5.06981e-10
7.16947e-10
-1.91689e-09
1.54127e-09
-4.37931e-10
-3.20392e-09
4.13995e-09
-2.23918e-09
1.30316e-09
-1.80351e-09
-2.09293e-09
1.34661e-09
2.54983e-09
3.77592e-09
-3.89062e-09
1.86193e-10
-7.1495e-11
-9.9711e-10
2.07532e-09
-3.14317e-09
2.06496e-09
2.7223e-09
3.58484e-10
-3.21233e-09
1.31544e-10
-1.32759e-09
1.37583e-09
-7.06076e-10
6.57835e-10
-5.92689e-09
-4.5034e-09
4.93234e-09
5.49795e-09
-3.40232e-09
-3.96811e-09
4.47829e-09
2.89214e-09
2.39627e-09
-2.80131e-09
-2.28925e-09
2.69429e-09
-1.19362e-09
1.35563e-09
-1.6201e-10
7.41462e-10
-8.17109e-10
-1.25194e-09
-2.69561e-09
1.06829e-10
1.71235e-09
8.76429e-10
5.40981e-09
-9.50021e-10
-5.77022e-09
1.31043e-09
2.72943e-09
-1.49814e-09
-2.66998e-09
1.43869e-09
2.5286e-09
2.5193e-09
-2.65163e-09
-1.23073e-09
5.18169e-09
-4.35825e-09
4.07294e-10
-3.85392e-09
3.86983e-09
7.73762e-12
-2.36477e-11
2.59884e-09
-1.36116e-09
1.08899e-09
-2.32667e-09
-2.08352e-09
9.61661e-10
-9.2778e-10
2.04964e-09
2.48451e-09
-2.45604e-09
2.50012e-09
3.82345e-09
-3.82637e-09
-2.69535e-11
2.987e-11
3.72114e-09
-3.29957e-09
8.50962e-11
-5.06675e-10
-3.63359e-10
-1.16019e-09
6.92065e-09
-5.39709e-09
3.84191e-09
-3.83888e-09
-3.06516e-11
2.76192e-11
3.89207e-09
-3.89468e-09
6.55051e-13
1.94623e-12
8.99347e-10
-8.23923e-10
-4.54649e-11
-2.99589e-11
-3.85883e-09
-2.48073e-11
2.9721e-11
2.574e-09
2.41311e-09
-2.5026e-09
-3.19584e-09
1.82369e-09
-1.43806e-09
2.81021e-09
1.41402e-09
2.1207e-09
-2.94002e-09
-5.94697e-10
2.39737e-09
2.59776e-09
-2.42112e-09
1.01075e-09
-9.88018e-10
1.51691e-09
-1.53964e-09
-3.03171e-09
-2.59373e-11
-8.0541e-11
3.13818e-09
-2.38254e-09
-2.25413e-09
2.4833e-09
2.15336e-09
3.81275e-09
-3.81525e-09
-4.50877e-11
4.75947e-11
3.81623e-09
1.31017e-10
-2.29237e-10
-3.71801e-09
-6.1236e-10
-7.76578e-13
4.33428e-09
2.33606e-09
-2.68803e-09
2.43573e-09
-2.08375e-09
1.2854e-10
-6.08572e-11
3.09248e-09
-3.16016e-09
3.88957e-09
-1.12328e-12
-1.86257e-11
-1.22681e-09
-2.83416e-10
2.79361e-10
1.23087e-09
-1.33374e-09
2.08586e-09
-7.5212e-10
2.53633e-09
2.44829e-09
-2.58725e-09
-3.06906e-09
3.0733e-09
-8.81796e-12
4.57496e-12
-1.74588e-09
7.95273e-10
1.1315e-09
-1.80892e-10
-2.96465e-09
-2.43745e-09
2.60079e-09
3.1412e-09
2.56633e-11
-2.57236e-11
-3.14114e-09
3.92528e-09
-1.02778e-10
6.00759e-12
-2.30886e-09
4.803e-10
-8.6705e-10
-3.96229e-10
3.12916e-10
1.3342e-09
-1.25088e-09
2.5124e-09
-2.50424e-09
2.52817e-09
-2.97806e-11
7.57681e-10
-4.091e-09
3.3631e-09
3.87389e-09
-3.86156e-09
-2.34969e-11
1.1174e-11
2.37988e-09
-1.82391e-09
-1.43897e-09
8.8301e-10
-2.98259e-09
3.37283e-11
-8.13292e-11
3.03019e-09
-1.83821e-09
1.89241e-09
1.79017e-09
-1.84437e-09
2.42598e-11
-4.11744e-11
3.202e-09
-3.42567e-09
-9.26193e-10
1.14987e-09
-3.83169e-10
-1.10101e-11
-2.90539e-09
2.6701e-09
1.47957e-09
-1.76979e-09
6.29048e-11
-3.14167e-09
-2.677e-11
3.10553e-09
1.67073e-10
-1.83317e-09
3.65814e-09
-1.99204e-09
2.3973e-09
-3.47169e-09
7.52132e-09
-6.44693e-09
-1.0679e-09
1.13026e-09
-1.63011e-09
1.56775e-09
2.19514e-09
-1.74131e-10
2.17331e-09
-4.19433e-09
1.48469e-09
-1.65682e-09
1.72133e-10
-4.18969e-09
1.16899e-09
-1.18151e-09
4.2022e-09
5.92333e-12
-3.17181e-09
6.42698e-11
3.10161e-09
2.76324e-09
-2.86796e-09
-2.27781e-09
3.19769e-10
3.78816e-09
-3.97939e-09
3.29778e-09
-6.07749e-11
4.50447e-12
-3.24151e-09
-4.31649e-09
4.14658e-09
4.89674e-10
-5.40096e-09
-1.92838e-09
4.82372e-09
2.50561e-09
3.14966e-09
-1.78288e-09
1.40623e-09
-2.773e-09
1.38373e-09
-3.45808e-11
2.51071e-11
-1.37426e-09
-2.87005e-09
2.91794e-09
-5.84446e-11
1.05535e-11
3.03552e-09
1.22427e-11
9.40867e-11
-3.14185e-09
-6.13824e-10
5.42863e-10
-4.74889e-10
5.45849e-10
-9.85193e-12
1.34925e-09
4.43344e-11
-4.23356e-09
-3.15669e-10
2.9685e-10
4.25238e-09
-3.07484e-09
-2.49506e-11
3.0732e-11
1.4874e-09
-1.00088e-09
2.71548e-09
2.6071e-09
2.60061e-09
-2.6953e-09
-2.35572e-09
2.41601e-09
-1.25115e-10
6.48267e-11
8.74925e-10
-4.11547e-09
4.99749e-09
-1.75694e-09
2.48127e-09
-2.73447e-09
2.90051e-09
-2.64731e-09
1.93685e-10
3.50198e-09
-7.02375e-10
-2.99328e-09
3.33907e-09
5.08441e-10
-2.52288e-09
-1.32463e-09
-3.75465e-09
-1.86605e-11
1.09475e-09
2.67856e-09
3.80392e-09
-3.79376e-09
-4.8386e-11
3.8219e-11
2.83412e-09
-3.45426e-09
6.20138e-10
2.89398e-10
-1.19965e-09
-3.16563e-10
7.37017e-10
-7.89267e-10
-2.25661e-09
-2.57319e-09
-1.61611e-09
6.88465e-10
3.50084e-09
1.01459e-10
5.19947e-09
-4.70909e-09
-5.91836e-10
-2.82026e-09
2.80566e-09
-2.1994e-11
3.65943e-11
-1.61188e-09
1.55474e-09
-1.57939e-09
-4.48335e-10
8.12914e-10
1.21481e-09
3.83665e-09
-3.82357e-09
-2.85713e-11
1.54925e-11
2.43886e-09
-2.63571e-09
-2.52504e-09
2.72188e-09
-3.06643e-10
4.18622e-09
-3.98048e-09
1.00895e-10
1.05972e-09
-6.06801e-09
5.35379e-09
-3.45503e-10
-5.20188e-10
1.02636e-09
-1.33536e-09
8.29188e-10
-2.86126e-09
2.84345e-09
-1.65996e-11
3.44091e-11
8.05927e-09
-7.29047e-09
1.55623e-09
-2.32503e-09
-2.0115e-09
1.98294e-09
7.57168e-10
-7.28605e-10
-2.9012e-09
2.87927e-09
-1.41434e-11
3.60713e-11
3.05806e-09
-3.07491e-09
1.89021e-11
-2.04896e-12
-1.66263e-10
4.76291e-10
3.46589e-09
3.0825e-09
8.75811e-12
-3.11897e-09
2.77134e-11
-2.94646e-09
2.91948e-09
-1.45446e-11
4.15214e-11
-2.62722e-09
2.29763e-09
2.76845e-09
-5.35106e-10
1.01795e-10
-4.85339e-09
5.2867e-09
-2.99295e-09
2.96484e-09
-1.35713e-11
4.16838e-11
-2.83092e-11
2.97654e-11
-3.03577e-09
3.00706e-09
-1.28337e-11
4.15476e-11
5.97647e-12
-2.67646e-11
-1.55412e-09
-2.17372e-09
1.46299e-10
3.58155e-09
1.23274e-09
-1.61693e-09
1.51445e-09
1.0394e-11
-3.53079e-11
3.41705e-09
-3.40047e-09
-4.06656e-11
2.40866e-11
-2.66056e-09
-2.00374e-09
1.46903e-09
3.19527e-09
-2.04386e-10
4.90222e-10
-4.38219e-10
1.52382e-10
3.0436e-09
-1.27273e-11
2.71858e-11
-3.79497e-09
1.30395e-11
-4.1645e-11
3.37022e-09
-3.36651e-09
-1.75624e-11
1.38503e-11
1.87518e-11
-3.41839e-11
2.61807e-12
-4.22508e-12
3.4668e-09
-3.44528e-09
-3.84905e-11
1.69703e-11
-2.27391e-09
2.85813e-09
2.02773e-10
-7.86993e-10
-3.40967e-09
2.91008e-09
3.83516e-10
1.16078e-10
3.51124e-09
-3.49097e-09
-3.48827e-11
1.46169e-11
1.60191e-09
-3.95171e-10
-4.55557e-09
3.34883e-09
8.26989e-10
-8.33684e-10
-1.0258e-09
1.03249e-09
-3.36357e-09
2.35015e-09
-1.71411e-09
2.72753e-09
3.57436e-09
-3.5458e-09
-5.2812e-11
2.42559e-11
3.70211e-09
-3.7126e-09
-1.34631e-11
2.39532e-11
3.77912e-09
-3.75118e-09
-4.53663e-11
1.74283e-11
5.6522e-10
-1.49659e-09
-2.7336e-09
3.66497e-09
3.68213e-09
-3.69529e-09
3.47166e-12
9.69183e-12
3.70671e-09
-3.69156e-09
-2.85109e-11
1.33583e-11
-1.17434e-09
-6.17735e-09
5.6241e-09
1.72759e-09
-3.88325e-09
-9.31707e-11
3.12402e-09
8.52401e-10
4.8108e-11
3.72596e-09
-7.6381e-11
2.03655e-09
-2.03083e-09
-5.72318e-12
7.27419e-10
3.21922e-09
-3.93903e-09
-7.60905e-12
5.72839e-09
-3.71781e-10
6.60276e-11
-5.42263e-09
-4.17885e-09
-8.33243e-11
-1.70924e-11
4.27927e-09
3.18273e-10
-2.92851e-10
-1.98193e-09
1.95651e-09
3.10102e-09
-1.27661e-11
4.81173e-11
-3.13637e-09
-5.45642e-09
-1.69585e-09
4.62791e-09
2.52437e-09
-7.25253e-11
-5.45717e-10
7.56496e-11
5.42592e-10
-1.44453e-09
-2.76151e-09
1.25352e-09
2.95253e-09
-2.77772e-09
2.77648e-09
-1.46953e-11
1.5929e-11
-3.48917e-11
1.90474e-11
9.98297e-10
7.4283e-10
-9.14138e-10
3.21688e-09
-7.94968e-10
-2.66413e-09
2.42215e-10
-1.56706e-09
2.42354e-09
1.92742e-09
-2.7839e-09
3.78015e-09
-3.75988e-09
-4.28775e-11
2.26016e-11
3.17595e-09
-2.56357e-10
7.98532e-10
-3.71813e-09
-3.86455e-10
3.82946e-09
-3.48755e-09
4.45472e-11
-2.9994e-09
2.91647e-09
2.02509e-09
-1.94216e-09
2.16441e-11
2.01491e-09
1.27419e-09
2.24683e-09
-3.29794e-09
-2.2308e-10
3.83286e-09
-4.05687e-09
-1.13165e-09
1.35565e-09
3.00891e-09
6.79903e-11
-2.84667e-09
-2.30231e-10
-8.72295e-12
-4.20825e-09
3.64271e-09
5.74259e-10
-1.87771e-09
1.9265e-09
9.40705e-10
-9.89496e-10
3.3441e-09
-3.33154e-09
-2.69394e-11
1.43789e-11
-4.55273e-11
-3.28524e-09
1.63205e-10
3.16756e-09
-3.2839e-09
3.25906e-09
-8.60218e-11
1.10867e-10
9.42648e-10
-3.52554e-09
2.86146e-09
-2.78573e-10
-2.11233e-09
2.00876e-09
-1.73464e-09
-1.00758e-09
9.32645e-10
-8.38378e-10
9.13311e-10
-3.24258e-09
2.13192e-10
9.46672e-10
2.08271e-09
-3.53314e-09
9.84408e-12
1.13623e-10
5.22501e-11
-1.45347e-10
-2.26263e-09
-1.65286e-09
1.52143e-09
1.31427e-10
3.12703e-09
-3.13186e-09
-8.16119e-12
1.29877e-11
-3.85073e-09
3.82354e-09
8.07491e-11
-5.35612e-11
-4.99983e-10
4.57512e-09
-4.61024e-09
-9.98215e-10
2.41603e-10
-4.14483e-10
1.17109e-09
2.27802e-09
-5.29845e-09
7.47385e-09
-4.45342e-09
-9.46546e-11
2.72169e-10
-1.94983e-10
1.74683e-11
2.77352e-10
-3.64948e-09
-8.94798e-11
3.46161e-09
2.11372e-09
-1.58749e-09
-5.26231e-10
-1.12384e-10
-6.55988e-11
3.09076e-09
-2.91278e-09
-1.84606e-09
-7.28318e-10
1.61148e-09
9.629e-10
2.47088e-11
-1.68805e-11
2.37937e-10
7.84536e-10
-2.85811e-10
-7.36662e-10
2.73008e-09
-7.09794e-10
-1.9433e-09
-7.69919e-11
-2.07901e-10
1.16945e-09
-5.02342e-09
4.06187e-09
1.44931e-09
-6.74859e-10
7.35445e-10
-1.50989e-09
-3.99692e-09
4.43913e-09
-4.11045e-09
3.66824e-09
-8.01839e-10
8.25649e-10
2.14127e-10
1.56213e-09
2.34339e-09
-2.43891e-09
-1.46661e-09
2.7172e-09
-1.23508e-09
1.07012e-09
-2.55224e-09
-1.71226e-09
-2.24956e-09
7.55903e-10
3.20592e-09
-3.81821e-10
6.36033e-11
3.16988e-09
-2.85166e-09
6.21076e-10
5.1389e-11
-3.75779e-11
-6.34887e-10
-3.76422e-09
3.28357e-10
-9.72723e-11
4.54867e-09
-1.96227e-09
-3.6996e-09
1.1132e-09
4.31672e-09
-4.28318e-09
-7.07743e-12
-2.64618e-11
3.72903e-09
-3.34232e-11
1.11028e-11
3.17176e-09
-3.12609e-09
-6.28572e-11
1.71946e-11
3.41028e-11
-4.77243e-11
-3.32126e-09
3.52093e-09
-3.21684e-10
1.22015e-10
3.24272e-09
-3.2069e-09
-5.77199e-11
2.19024e-11
-8.54085e-10
4.5915e-10
9.03633e-10
-5.08698e-10
-1.51525e-09
7.80215e-10
3.29908e-09
-2.56405e-09
-9.03308e-10
1.19109e-09
-3.08298e-09
2.7952e-09
-1.99632e-09
2.74182e-09
2.01773e-09
-1.42226e-10
4.66082e-09
-4.61047e-09
9.18713e-11
4.96708e-09
-3.05308e-09
-1.14306e-09
-7.70944e-10
-1.14989e-10
3.59978e-09
-6.43579e-11
-3.42043e-09
-2.25806e-09
3.07789e-09
1.85027e-09
8.85129e-10
-8.3801e-10
3.24047e-10
-3.71166e-10
2.30281e-09
-5.0849e-09
-1.53295e-09
4.31505e-09
1.73774e-11
-3.95272e-11
2.05167e-09
-1.4055e-09
2.07103e-09
3.29161e-09
1.25957e-09
-2.36024e-09
-2.19094e-09
-3.39262e-09
3.14454e-09
9.06184e-10
-6.58103e-10
-1.2519e-09
-1.03215e-09
2.06098e-09
2.2307e-10
-2.75633e-09
2.75846e-09
-1.11782e-11
9.04784e-12
-1.37448e-09
1.4149e-09
-1.02844e-09
-4.53186e-09
8.08307e-10
-4.0676e-11
2.77778e-09
-2.72839e-09
-8.56188e-10
8.06798e-10
1.03377e-09
-4.42385e-09
-8.24531e-10
4.21461e-09
4.21086e-09
-4.26577e-09
1.08868e-09
-4.51487e-09
-1.47646e-09
6.62165e-09
-6.30322e-10
1.59213e-09
-1.43378e-09
-2.59885e-09
2.44051e-09
1.6952e-09
-1.89148e-10
-1.50606e-09
9.84948e-10
-4.54608e-09
5.83916e-09
-1.30374e-09
3.08527e-09
-2.26518e-09
4.83654e-10
3.92041e-09
3.58352e-10
-4.46715e-09
1.88381e-10
-2.2876e-11
-3.70803e-09
3.70658e-09
2.43336e-11
5.64134e-10
-5.82804e-11
-5.78379e-10
-2.72425e-09
1.20241e-09
-6.63723e-10
2.18556e-09
4.98135e-09
1.3516e-09
-3.28509e-09
-3.04786e-09
-3.73088e-09
3.7459e-09
2.07417e-11
-3.57651e-11
4.7685e-09
-4.45713e-09
-3.71369e-09
-7.11535e-12
3.13571e-09
1.26059e-11
4.82645e-11
2.92226e-09
5.80986e-11
-3.02862e-09
4.35886e-10
-4.34152e-10
1.04466e-10
-1.062e-10
2.64472e-10
-5.22422e-10
-2.15122e-10
4.73072e-10
2.36098e-09
1.86778e-09
-4.09317e-09
-1.35584e-10
7.59639e-09
-5.7381e-09
5.39013e-10
3.12939e-09
1.26493e-09
-1.91304e-09
4.96776e-10
-9.54882e-11
-5.06937e-10
1.0565e-10
-1.53283e-09
-2.28133e-09
-1.38049e-11
3.82797e-09
3.27482e-09
-3.29201e-09
6.63302e-12
1.05581e-11
-1.18808e-09
1.15176e-09
-2.76393e-10
3.12715e-10
1.49148e-10
-2.1617e-10
-3.21604e-09
1.25091e-09
3.48324e-09
-1.51812e-09
4.61532e-09
7.58317e-10
-4.49871e-09
3.84722e-09
-4.74027e-11
1.64128e-11
-8.1783e-10
-3.55946e-09
2.81023e-09
1.93926e-09
-1.29936e-09
1.41177e-09
5.7412e-11
3.07753e-10
-5.26306e-10
1.61141e-10
-1.12519e-09
9.15326e-10
-9.21227e-10
1.13109e-09
-4.63055e-09
4.67316e-09
-4.33749e-10
3.91141e-10
4.53041e-10
-2.25008e-09
-3.93126e-10
2.19016e-09
1.1412e-10
-1.07066e-10
-3.94184e-09
3.93478e-09
-6.46816e-10
1.40748e-10
-1.75595e-10
6.81664e-10
2.85743e-09
5.43243e-11
-2.87794e-10
-2.62396e-09
-3.71942e-09
-3.34166e-11
2.19521e-11
-1.5835e-09
2.88053e-09
-2.74156e-09
-5.87035e-09
-2.21924e-09
1.82055e-09
6.26904e-09
2.29892e-09
-2.00119e-09
-2.46177e-09
2.16404e-09
9.96702e-11
1.09288e-10
-3.18035e-09
2.97139e-09
3.25151e-11
-1.84118e-11
-5.71887e-09
5.77318e-09
-1.00794e-10
4.64837e-11
-3.66263e-09
2.23431e-09
1.24339e-09
1.84936e-10
-2.33878e-09
2.21342e-09
1.71749e-09
-2.24531e-09
2.38668e-09
2.15755e-09
2.0718e-10
5.06758e-10
-5.93899e-10
-1.2004e-10
1.51762e-09
-4.46713e-09
3.94768e-09
-9.98175e-10
6.18212e-10
-5.96261e-10
2.5199e-10
-2.73941e-10
4.34386e-11
-5.47688e-11
3.70401e-09
-6.17134e-09
6.05893e-09
-3.59161e-09
-1.50112e-09
-2.07245e-09
7.90161e-10
2.78341e-09
7.23921e-11
-2.76793e-09
-4.80662e-11
2.7436e-09
-1.26381e-09
-1.957e-09
5.00072e-10
2.72074e-09
2.67824e-09
-1.92888e-09
1.18787e-09
-1.93722e-09
-1.30472e-09
-1.45527e-10
1.45025e-09
2.93803e-10
-3.33396e-09
4.99505e-09
-1.95489e-09
-2.73621e-09
2.72014e-09
-1.76113e-11
3.36799e-11
7.82136e-10
-6.65638e-10
-2.00436e-09
1.88786e-09
1.89248e-10
-2.57571e-09
2.81821e-09
-4.31749e-10
-3.22507e-09
3.17438e-09
-3.65539e-11
8.72443e-11
-1.06495e-09
-2.11385e-09
3.21225e-09
-3.3447e-11
5.40001e-09
-4.45962e-09
-1.40897e-09
4.68578e-10
-3.46345e-09
-4.35883e-09
2.42133e-09
3.86481e-09
-2.60033e-11
-3.84377e-09
4.96619e-12
4.77042e-09
-3.31166e-10
-4.77147e-09
3.32215e-10
5.66314e-10
-5.38722e-10
2.49132e-10
-2.76724e-10
-3.15361e-09
4.0463e-09
-9.41999e-10
4.93024e-11
1.04211e-10
-7.53584e-10
-1.52466e-10
-1.74412e-10
-3.20431e-10
1.59801e-10
3.35041e-10
2.04556e-09
3.04951e-09
-2.75901e-09
-6.68059e-10
8.10685e-10
-4.61303e-09
4.4704e-09
3.47308e-09
5.37641e-10
-4.75945e-11
-3.96313e-09
-2.03274e-10
-1.07195e-09
1.27522e-09
-7.94732e-10
1.93617e-09
8.91045e-10
-2.03249e-09
1.92892e-09
-1.23119e-09
2.45193e-09
-4.63906e-09
-3.89147e-09
3.54e-09
4.99054e-09
-3.27137e-09
-1.13926e-10
6.40325e-11
5.12794e-10
-4.93237e-10
2.26471e-10
-2.46028e-10
-2.38307e-09
2.55503e-10
-1.54333e-10
2.2819e-09
-1.76787e-09
-3.45818e-09
1.46445e-09
3.7616e-09
-3.70683e-09
3.71408e-09
1.83794e-11
-2.56282e-11
-3.29658e-10
8.44651e-10
-2.0317e-09
1.51671e-09
1.15933e-09
-1.17649e-09
-2.11101e-09
2.12818e-09
2.38521e-09
-2.61432e-09
-2.50536e-09
-1.19538e-09
4.80207e-09
-3.60669e-09
-3.64873e-09
2.70548e-09
3.8946e-09
-2.95136e-09
8.38939e-12
-1.78233e-11
1.41834e-10
-5.97877e-09
-1.64426e-10
6.00137e-09
-1.46379e-09
-4.29091e-09
5.08663e-09
-6.94211e-10
-2.9868e-10
9.92891e-10
1.023e-10
-3.12476e-09
-7.3219e-10
4.741e-10
-4.3138e-10
2.15963e-10
-2.58684e-10
2.43028e-10
-7.36527e-10
-2.21067e-09
2.70417e-09
-3.10822e-09
3.79831e-12
1.95942e-10
2.90848e-09
3.64115e-09
-8.7067e-11
2.02825e-11
1.32854e-09
-5.47938e-09
5.21056e-09
1.08518e-09
-6.61826e-10
-1.1607e-09
7.37353e-10
2.47504e-11
-1.65244e-10
3.24139e-09
-3.1009e-09
3.45331e-09
-4.22953e-09
7.966e-10
-2.03807e-11
-3.24069e-09
6.82115e-11
3.22228e-09
-4.98093e-11
3.90217e-10
-3.6485e-10
1.98684e-10
-2.24051e-10
4.12679e-09
-4.39312e-09
-1.00331e-09
1.26963e-09
-3.74189e-09
3.69736e-09
9.73711e-11
-5.28421e-11
1.1086e-09
7.74624e-10
-1.88322e-09
-3.96281e-12
7.85115e-11
-2.49119e-09
2.15291e-09
-3.67707e-10
7.05992e-10
-1.20401e-09
1.20585e-09
3.02458e-09
-3.02642e-09
1.41246e-10
-1.15217e-09
1.70806e-10
4.0012e-09
-3.97907e-09
-1.92933e-10
-3.71303e-09
3.24618e-10
3.48969e-09
-1.01281e-10
5.83658e-10
-3.18523e-10
-3.07771e-10
4.26364e-11
4.28696e-09
-1.78793e-09
-3.72976e-09
8.83006e-11
-7.69959e-11
3.91185e-09
-3.92315e-09
8.73643e-11
-2.44182e-10
2.95437e-09
-2.79755e-09
3.39717e-10
-3.22758e-10
1.79798e-10
-1.96756e-10
-3.05464e-09
3.84062e-09
-1.55286e-09
7.6688e-10
2.63857e-10
-3.76943e-10
4.13892e-09
3.42909e-10
-2.12011e-09
-2.36172e-09
-3.64323e-09
3.58537e-09
8.80646e-11
-3.02043e-11
-5.29283e-11
4.30636e-11
4.45751e-10
9.78521e-10
2.69356e-09
-3.59693e-11
-3.67269e-09
3.65261e-09
5.60483e-11
3.01489e-10
-2.87858e-10
1.6105e-10
-1.7468e-10
-3.44202e-09
3.32532e-09
1.84804e-10
-6.81069e-11
1.9891e-09
2.47815e-10
-1.72474e-09
-5.12176e-10
2.7761e-10
-3.01008e-10
1.46014e-10
-1.22616e-10
-3.74924e-11
1.19141e-10
-3.54913e-09
3.50819e-09
6.82702e-11
-2.7326e-11
-3.57293e-09
3.6289e-09
-2.53101e-11
-3.06602e-11
2.23317e-10
-2.02141e-10
1.48047e-10
-1.69223e-10
-2.6417e-10
2.82097e-10
1.82738e-10
-2.00664e-10
-1.65631e-09
1.19861e-09
-2.90586e-09
-3.48483e-09
3.51091e-09
-1.16403e-11
-1.44355e-11
-5.63377e-09
4.02094e-11
-1.25312e-10
1.86986e-09
-1.79769e-09
-3.39189e-09
3.31972e-09
1.03421e-09
-1.01291e-09
-1.14649e-09
-8.44941e-10
9.05783e-10
1.02433e-09
-4.49279e-09
-2.12757e-09
1.8826e-09
4.73776e-09
2.49883e-09
-2.81626e-09
3.48107e-09
-3.16363e-09
1.79582e-10
1.14722e-10
-1.29956e-10
-1.64348e-10
2.59807e-11
-3.21163e-09
-1.40251e-11
3.19967e-09
1.32339e-09
-4.18633e-09
2.99581e-09
-1.32866e-10
-3.9721e-09
3.79872e-09
1.73381e-10
3.91347e-10
1.76141e-10
-1.53048e-10
-4.1444e-10
2.89835e-10
-3.43309e-10
-2.67551e-09
2.66618e-09
-1.76035e-11
2.69281e-11
-2.00117e-09
2.18503e-09
1.46131e-09
-1.64517e-09
3.54367e-11
-1.70565e-11
-1.60866e-12
-2.2084e-12
9.47443e-11
-9.09273e-11
-3.36933e-09
5.53769e-10
-3.694e-10
3.18496e-09
-2.22571e-09
-3.57475e-09
3.24104e-09
2.55942e-09
3.20343e-09
3.34797e-11
-3.29538e-09
5.84727e-11
-2.73395e-09
-1.20919e-09
2.50935e-09
-3.46728e-09
3.22339e-09
2.00599e-09
-1.7621e-09
-7.02631e-10
-2.55713e-09
1.09181e-10
3.15058e-09
6.84943e-10
4.33243e-11
-6.61117e-10
-6.71501e-11
3.64642e-11
-5.00654e-11
-6.26052e-09
4.94401e-09
5.02053e-09
6.52392e-10
-5.65937e-10
5.63647e-10
-6.50102e-10
5.44149e-09
-5.30793e-09
-2.8516e-10
1.51595e-10
4.76772e-10
2.23672e-09
-2.79389e-09
8.04004e-11
1.20315e-11
-1.25658e-11
-1.84419e-11
1.89763e-11
3.48811e-10
-1.83587e-10
-3.39636e-10
-2.45725e-09
3.47442e-09
7.48888e-10
-1.76605e-09
3.24642e-09
-3.14378e-09
1.09691e-10
-2.12337e-10
-3.98314e-09
-3.89149e-09
2.71681e-09
5.15781e-09
2.35626e-09
-4.60605e-10
4.73269e-10
-2.36893e-09
-3.78428e-09
3.72228e-09
2.36417e-10
-1.74424e-10
9.37477e-10
-4.29182e-09
4.30481e-09
-9.50471e-10
9.1366e-11
-5.73733e-11
-3.05237e-09
3.11346e-09
-3.70982e-09
-3.4059e-09
-1.48481e-09
1.19961e-09
3.69111e-09
1.48041e-09
-6.60119e-10
5.55539e-10
-1.72423e-09
-4.23156e-09
1.53195e-09
5.94186e-11
-5.3897e-11
5.58613e-10
1.88119e-09
-2.50677e-09
-8.44946e-10
1.47052e-09
1.47752e-09
-4.03874e-09
-2.73723e-09
2.84239e-11
3.10356e-09
-4.95467e-12
6.04869e-12
7.69737e-13
3.7821e-10
-3.30188e-10
-2.52408e-10
-3.70984e-09
-3.36956e-11
3.67003e-11
1.34378e-10
-4.85535e-10
7.49352e-10
-3.98194e-10
3.24531e-09
-1.06236e-09
2.15757e-10
-2.39871e-09
-4.4218e-09
8.36823e-10
-6.48579e-10
2.97308e-09
-2.17827e-09
-1.20024e-09
4.05422e-10
3.45064e-09
-6.9896e-09
-1.92342e-09
5.46237e-09
-4.68759e-11
3.15255e-09
1.63883e-10
-3.26956e-09
5.87003e-09
4.49859e-11
8.97313e-11
-3.5603e-11
-4.4064e-09
-1.5404e-09
4.75696e-09
1.18985e-09
-8.67184e-10
2.69453e-09
5.82855e-10
-2.4102e-09
-4.27642e-09
-1.89609e-10
4.52535e-10
4.01349e-09
-3.77604e-09
3.98132e-09
3.89239e-09
-4.09768e-09
1.95812e-09
-2.23985e-10
-2.60958e-09
8.75443e-10
-2.58927e-09
1.52696e-09
-1.74608e-09
2.80839e-09
4.30094e-09
2.41855e-09
-5.3961e-09
-1.22224e-09
-2.25084e-09
3.03849e-09
4.3459e-10
7.06937e-10
-3.59082e-09
2.74666e-09
1.37223e-10
-5.34126e-09
1.07928e-10
8.63771e-10
4.36956e-09
-3.10144e-09
3.54024e-09
4.34538e-10
-8.73335e-10
1.59045e-09
-1.43805e-09
-2.30359e-09
2.15119e-09
2.98356e-09
-3.28184e-09
3.85377e-10
-8.71021e-11
1.78256e-09
-2.17643e-09
4.23345e-09
-3.83958e-09
-1.65552e-09
7.18474e-10
-3.03267e-10
1.24032e-09
-1.85302e-09
2.09085e-09
2.51323e-10
-3.23274e-10
2.92414e-10
-2.20462e-10
-8.45735e-11
1.02454e-09
-2.8028e-09
1.86284e-09
3.20876e-10
-2.18525e-09
2.31742e-09
-1.61834e-10
2.88929e-10
-2.76063e-10
1.48968e-10
-2.13008e-09
-1.43527e-09
2.08461e-09
1.48074e-09
2.10124e-10
7.49299e-10
-1.44132e-10
-8.15291e-10
3.44377e-09
-5.20812e-09
2.43383e-09
-6.69471e-10
-8.69941e-10
1.41345e-09
-3.22149e-09
2.67799e-09
2.04661e-09
-3.19171e-09
-4.38401e-10
-2.98452e-12
4.52898e-12
-9.19334e-11
9.0389e-11
1.65895e-09
-8.07669e-10
1.08798e-09
-1.66374e-09
-2.61877e-09
1.07859e-09
-3.14025e-09
3.08675e-09
-2.38693e-11
7.73618e-11
7.02849e-11
-6.27392e-11
3.89504e-09
-3.90259e-09
6.99206e-12
1.39614e-10
-3.71754e-12
-1.42889e-10
2.11495e-10
-2.40099e-10
-1.97566e-09
-1.83997e-09
2.01213e-09
-3.29042e-09
3.66735e-09
-4.15297e-09
2.18608e-09
8.07699e-10
-3.44174e-09
4.47971e-10
3.02297e-09
-1.2113e-09
-2.5143e-09
-4.51991e-09
-1.07488e-09
9.64238e-10
-3.53769e-09
-1.92207e-09
3.43503e-09
2.02472e-09
3.0961e-09
-3.09539e-09
2.51923e-11
-2.59084e-11
5.06493e-10
7.64017e-09
-1.99686e-09
-6.1498e-09
-3.45412e-09
1.12567e-10
3.38093e-09
-3.93817e-11
-2.35542e-09
-2.84709e-09
2.88586e-09
2.31664e-09
3.33933e-09
-2.93596e-09
-1.46832e-09
-2.05542e-09
1.63292e-09
-1.09376e-09
1.51625e-09
-1.85134e-10
-2.11576e-09
2.30089e-09
3.53552e-09
-2.36022e-09
1.66372e-09
-6.20256e-09
3.61594e-09
9.229e-10
3.87485e-12
5.35561e-12
-9.23046e-12
2.81572e-09
-3.84102e-09
-1.97411e-09
-2.08354e-09
-1.19705e-09
2.40164e-09
8.78947e-10
-1.09179e-09
9.82317e-10
-3.73106e-10
4.82575e-10
2.21857e-10
-4.15255e-09
4.07987e-09
-1.49182e-10
8.86768e-10
-5.42266e-10
3.32826e-09
-2.40096e-09
-3.16648e-09
2.51357e-10
-2.81304e-10
-3.49585e-11
-3.61077e-09
3.58413e-09
6.16069e-11
2.3563e-10
-3.27838e-09
-1.83308e-10
3.22606e-09
1.79353e-09
-2.33651e-09
2.08493e-09
-1.54196e-09
2.16179e-09
-3.4212e-09
1.50512e-09
-2.457e-10
1.60909e-09
9.25318e-10
-3.17505e-10
-2.21691e-09
2.51258e-09
8.05393e-11
-1.77113e-10
-2.51808e-09
2.48947e-09
-6.87138e-10
5.49469e-10
-4.85625e-10
6.23293e-10
6.72717e-10
-1.73843e-09
1.82573e-09
-7.60023e-10
-4.04039e-09
4.10689e-09
1.04308e-10
1.80269e-09
-1.75458e-09
1.80982e-09
-3.63991e-09
-1.2658e-09
3.09589e-09
-4.54932e-09
8.47801e-11
-1.81002e-10
4.64554e-09
1.08917e-11
-8.23452e-11
-7.73144e-10
5.49732e-09
1.39122e-10
-4.8633e-09
3.23409e-10
-3.50022e-10
2.68626e-10
-2.42014e-10
3.44482e-11
-1.61614e-11
-3.57553e-11
4.51083e-11
6.11723e-10
3.49621e-09
-5.02251e-09
9.67929e-10
5.58375e-10
-1.60027e-09
1.98202e-09
1.51067e-09
1.8817e-11
-3.27917e-11
2.75681e-09
-2.47272e-09
-3.08822e-09
2.80413e-09
7.50007e-10
3.44351e-10
-1.9501e-10
2.23232e-09
-2.79599e-10
-3.93882e-09
1.9861e-09
2.38511e-10
-2.6444e-10
2.94488e-10
4.25112e-09
-4.06684e-10
4.30859e-12
-1.13246e-11
-2.96427e-11
3.66588e-11
-4.09367e-09
5.07639e-09
-3.33815e-09
8.31392e-11
-3.98484e-09
4.01582e-09
-2.17913e-09
2.04899e-09
-3.60365e-09
3.73379e-09
1.39232e-10
-2.90774e-09
1.49983e-11
2.75351e-09
-1.44046e-10
3.86683e-09
-3.87772e-09
1.54938e-10
-2.85665e-09
3.77506e-09
2.7958e-11
-9.46367e-10
-1.18429e-09
3.01752e-09
7.56851e-10
-2.59009e-09
3.81567e-09
-3.81391e-09
2.57237e-11
-2.74875e-11
4.10816e-09
-3.22786e-09
-1.38028e-09
2.03598e-09
-9.37508e-11
-1.86078e-09
-8.14458e-11
2.3728e-09
-1.3069e-09
-2.70563e-09
2.69278e-09
2.13282e-11
-8.47823e-12
3.19659e-09
-3.21157e-09
4.0815e-11
-2.58401e-11
-4.32999e-10
-1.29686e-09
6.38075e-10
-1.94267e-09
2.95364e-09
-3.09909e-09
1.81652e-11
3.08256e-09
-1.62908e-12
2.23847e-10
-2.42984e-10
-5.81128e-10
5.58723e-10
-5.87374e-10
5.70471e-10
-7.2169e-10
7.38594e-10
3.06241e-09
-3.05707e-09
2.04404e-11
-2.57824e-11
3.11097e-09
6.53416e-11
-4.39051e-11
-3.13241e-09
3.69501e-09
3.45438e-09
-3.11912e-09
-4.03027e-09
-2.83614e-09
3.39685e-09
-2.21703e-09
3.22986e-09
-3.20331e-09
-3.09987e-11
4.4452e-12
2.64156e-09
5.14129e-09
2.7643e-10
1.51716e-09
1.98373e-09
-1.07735e-09
-2.84799e-09
2.79085e-09
1.02968e-10
-4.58278e-11
-2.68035e-09
3.65176e-10
2.84855e-09
-2.62843e-09
-1.52387e-09
-5.99161e-11
2.01486e-09
-1.95495e-09
2.08252e-10
-2.49415e-10
3.54605e-11
-6.41079e-11
-4.10109e-09
-1.20872e-09
2.25744e-09
-1.68959e-09
1.98408e-09
3.19158e-09
-3.16023e-09
-4.20552e-11
1.07037e-11
5.47109e-10
-5.69801e-09
5.55312e-09
-4.02225e-10
-1.93312e-09
-5.6114e-10
9.14876e-10
-3.49676e-09
9.29609e-10
2.86095e-09
7.2073e-10
-1.07636e-09
-1.69979e-09
-2.31275e-10
-2.21441e-09
2.31118e-09
1.34508e-10
-4.58248e-09
-2.03956e-10
4.67308e-09
1.13355e-10
-5.37379e-09
-4.45012e-10
5.24972e-09
5.69079e-10
3.14621e-09
-3.12752e-09
-2.91068e-11
1.04141e-11
2.73571e-09
-4.17921e-11
-2.71945e-09
2.5527e-11
8.94523e-12
-4.05913e-09
-2.59286e-11
4.07612e-09
4.50495e-11
-4.45148e-11
1.04995e-12
-1.58467e-12
-1.12156e-10
5.29861e-11
3.92398e-09
-4.02728e-09
-3.34458e-10
5.77465e-10
3.76512e-09
4.51596e-09
-5.04283e-09
-3.23825e-09
6.06988e-11
-7.18514e-11
5.07928e-10
1.12856e-09
1.70855e-09
-1.37186e-09
-1.46524e-09
1.8298e-10
-2.08114e-10
3.12846e-09
-3.13455e-09
-4.51699e-12
1.06023e-11
4.67686e-11
1.43394e-10
-2.99989e-09
2.80972e-09
-1.68015e-09
-2.53118e-09
3.11668e-09
1.09464e-09
1.27473e-10
2.49092e-09
1.20057e-10
-2.73845e-09
-3.16117e-09
-9.01291e-10
4.00024e-09
6.22231e-11
-5.87274e-09
6.23219e-09
-1.13259e-09
1.07807e-09
-1.23477e-09
-2.33681e-09
2.49351e-09
7.16865e-11
-3.7558e-11
2.53777e-11
-2.81123e-11
1.29691e-10
-1.26956e-10
3.11199e-09
-3.06965e-09
-6.57916e-11
2.3459e-11
-6.60277e-12
-1.84263e-09
1.84924e-09
5.98381e-11
-5.57076e-11
3.87682e-09
-3.88095e-09
1.44753e-09
3.01532e-09
-4.1098e-09
-3.5305e-10
-5.41684e-11
-2.43133e-09
4.87289e-11
2.43677e-09
-6.58983e-11
1.50257e-11
-2.35762e-11
7.44488e-11
3.01191e-09
-2.97415e-09
-5.80454e-11
2.02875e-11
3.68625e-09
-1.76341e-09
6.07402e-12
1.65078e-10
-1.86347e-10
-2.95099e-09
3.05931e-09
1.45396e-11
-1.22864e-10
-3.44469e-09
3.83281e-09
-7.63372e-10
3.75256e-10
3.98088e-09
4.98334e-09
-5.1991e-09
2.93236e-09
-2.91993e-09
-1.13018e-11
-1.13234e-12
1.71083e-10
-3.38041e-09
3.28171e-09
-2.96069e-09
-6.67344e-11
-5.70022e-11
3.08443e-09
2.39662e-09
1.63662e-11
-6.61554e-09
4.20255e-09
-3.19304e-09
-7.40384e-11
3.31327e-09
-4.61846e-11
7.7811e-09
-6.49261e-09
-1.28849e-09
7.78171e-10
-5.04922e-09
5.59959e-09
-4.06027e-09
2.56761e-09
-1.98074e-09
-2.51327e-09
2.23531e-09
2.25869e-09
-4.26025e-09
-4.89267e-09
3.69649e-09
-3.02587e-09
2.89941e-09
1.33495e-09
-1.48754e-09
4.69642e-10
-3.17047e-10
-1.91431e-09
2.37908e-09
-4.64775e-10
1.32978e-09
-4.22451e-09
-4.97891e-10
1.80109e-09
-1.95668e-10
-1.28715e-09
3.01776e-09
-3.01415e-09
2.1138e-11
-2.47512e-11
7.4131e-11
-8.35194e-11
1.53733e-11
-5.98486e-12
1.44274e-10
-1.54523e-10
-3.95434e-09
6.43973e-11
3.97825e-09
4.99207e-09
-4.96243e-09
-8.6997e-11
5.73566e-11
1.80958e-09
-1.83245e-09
-2.82873e-09
2.62164e-09
-1.33351e-10
3.40441e-10
1.21565e-09
-1.14023e-09
-5.41535e-09
5.33994e-09
3.83488e-09
-3.79947e-09
2.04491e-11
-5.58648e-11
-2.42451e-09
2.32479e-09
2.59855e-09
-5.35672e-09
1.41291e-09
3.94713e-09
-3.31829e-12
-5.97643e-11
6.22407e-11
-4.43251e-12
1.95609e-12
-3.11873e-10
1.73545e-10
-1.82102e-10
1.02564e-10
-3.52788e-09
3.45198e-09
-2.66615e-11
-4.46635e-09
4.59684e-09
-2.35149e-10
1.0465e-10
-4.58412e-09
2.22588e-10
4.17599e-09
1.85543e-10
-1.37341e-09
-1.31504e-09
9.68182e-10
1.72027e-09
-3.22347e-09
1.28121e-09
-1.25358e-09
1.51512e-10
-2.29203e-10
-4.37026e-09
3.84407e-09
-9.96353e-10
1.52255e-09
1.81032e-09
-1.73509e-09
2.66405e-09
-2.73929e-09
-3.30991e-11
3.08565e-09
-3.05326e-09
2.99662e-09
-2.21474e-11
7.87922e-11
-3.11771e-11
-3.54362e-09
3.51516e-09
5.96345e-11
-3.76069e-09
3.05593e-09
3.47278e-09
-2.76802e-09
3.24583e-11
-1.44481e-11
4.69753e-09
-4.6949e-09
-1.89595e-11
1.63286e-11
3.02441e-09
2.49917e-10
-3.23283e-09
-4.14994e-11
-1.94152e-09
3.11197e-11
1.9104e-09
-2.61466e-09
2.44972e-09
-1.77658e-09
3.878e-11
-2.59686e-10
-2.36669e-09
2.0178e-09
1.12699e-09
-7.78099e-10
-9.93217e-11
-3.84524e-09
1.95793e-10
3.74877e-09
2.95449e-09
-4.74063e-09
2.82873e-09
-1.0426e-09
-3.31284e-09
2.38124e-09
-1.04913e-09
1.5699e-09
-1.56397e-09
-1.94738e-09
1.94146e-09
-2.38651e-09
-1.84387e-09
2.25471e-09
-8.18321e-11
1.64022e-10
-3.24506e-09
3.16287e-09
2.44833e-09
2.27599e-09
-1.38525e-09
-8.01072e-11
1.3411e-10
-4.60332e-09
-1.70484e-10
-3.34323e-09
5.96008e-11
-2.22121e-10
-3.57931e-09
4.32101e-10
1.61963e-09
-2.33475e-09
-3.04557e-09
1.95055e-09
-2.94514e-09
2.54046e-09
-1.54586e-09
1.07806e-11
-4.53489e-11
-1.11408e-09
4.58653e-10
-1.96824e-09
2.62366e-09
-5.58331e-09
9.28606e-10
-8.08926e-10
3.58641e-09
-7.91012e-11
-2.69838e-09
3.49788e-09
-1.33961e-09
4.87883e-10
-2.64616e-09
-2.34548e-11
-9.39532e-11
-4.85845e-12
1.22266e-10
-2.0992e-09
-1.44261e-09
1.41172e-09
3.06449e-09
-3.08762e-09
2.22308e-11
9.00191e-13
4.71457e-09
-6.09625e-12
-1.09414e-11
1.05892e-08
-2.79094e-09
-7.29174e-09
1.02322e-09
1.37308e-09
-9.46987e-10
-4.14596e-09
2.11326e-09
-1.17069e-09
3.2034e-09
-6.07931e-09
1.338e-09
5.80375e-09
-1.06245e-09
2.83867e-09
-1.19574e-09
2.76048e-10
-1.91898e-09
-2.02473e-11
4.38003e-09
-4.43989e-09
4.70119e-09
1.51901e-11
-1.81353e-12
-4.64759e-09
-6.66415e-11
1.9339e-11
2.98244e-09
5.68241e-12
7.27591e-12
-2.9954e-09
-2.61652e-09
1.64984e-10
-5.15601e-10
2.96713e-09
2.9129e-09
-1.93033e-09
1.46576e-09
-3.45871e-09
6.27626e-10
-1.68968e-11
1.13367e-10
-1.24502e-10
1.81591e-11
-7.02355e-12
-3.89787e-09
-2.24795e-10
5.67145e-10
3.55552e-09
-8.07685e-10
9.12916e-10
-8.66575e-11
1.0241e-10