/*--------------------------------*- C++ -*----------------------------------*\
  =========                 |
  \\      /  F ield         | OpenFOAM: The Open Source CFD Toolbox
   \\    /   O peration     | Website:  https://openfoam.org
    \\  /    A nd           | Version:  8
     \\/     M anipulation  |
\*---------------------------------------------------------------------------*/
FoamFile
{
    version     2.0;
    format      ascii;
    class       volVectorField;
    location    "7.8";
    object      U;
}
// * * * * * * * * * * * * * * * * * * * * * * * * * * * * * * * * * * * * * //

dimensions      [0 1 -1 0 0 0 0];

internalField   nonuniform List<vector> 
4320
(
(0.000620183 0.00167577 3.11855e-22)
(0.000442875 0.00114867 1.02673e-22)
(0.000427666 0.0010378 0)
(3.4117e-05 7.73833e-07 5.86392e-22)
(0.000661888 -1.99666e-05 0)
(0.000659235 0.00179697 0)
(0.00069794 0.00188898 8.11023e-23)
(0.000680048 0.00186661 4.86635e-24)
(0.000150811 0.00156636 -8.0101e-22)
(0.000585151 0.00165586 -1.89947e-22)
(0.000657831 0.0017789 -2.03354e-22)
(0.000648713 0.00176248 -9.61746e-25)
(0.0006508 0.00177165 1.99721e-22)
(0.000586344 0.00163447 8.80998e-22)
(0.000849497 0.000802349 1.35682e-21)
(0.000654115 0.00175737 4.51822e-22)
(0.000329326 0.000964597 -2.05198e-21)
(0.000247921 0.000668249 -2.93111e-21)
(0.000658247 0.00177508 -3.44256e-24)
(0.000656207 0.00176298 0)
(0.000658198 0.00176683 6.11817e-22)
(0.00066317 0.00186884 4.91185e-22)
(0.000423846 0.000521632 3.20082e-21)
(0.000622699 0.00175399 -2.30526e-22)
(0.00060116 0.00167366 6.95658e-22)
(0.000710547 0.00192867 1.50614e-21)
(0.000641913 0.00171532 1.68984e-21)
(0.00066468 0.00172241 -1.63564e-22)
(0.000622532 0.0017479 -4.97218e-22)
(0.000485336 3.01889e-05 1.15726e-21)
(0.000603846 0.00171493 -4.11775e-22)
(0.00067267 0.00186953 0)
(0.000665424 0.00186973 4.8256e-24)
(0.000569092 0.00165408 -1.98012e-21)
(0.000395436 0.00111511 -2.2563e-23)
(0.000656453 0.00192246 1.71416e-23)
(0.000659067 0.00176811 -5.7243e-22)
(0.000665645 0.00177558 -1.30168e-22)
(0.00110007 6.43334e-06 1.42698e-22)
(0.000378081 0.00105317 8.76074e-22)
(0.000629181 0.00174217 -1.80027e-22)
(0.000637661 0.00172322 3.78398e-22)
(0.000459783 0.000164292 0)
(0.000600203 0.00149926 1.61751e-21)
(8.05472e-05 0.000735778 6.25506e-22)
(0.000664454 0.00185515 3.76081e-22)
(0.000411089 0.00189079 2.01903e-23)
(0.000615181 0.00169955 -9.76044e-23)
(7.28881e-05 0.000880597 -2.74996e-22)
(0.000651451 0.00174764 0)
(0.000647199 0.00175115 0)
(0.0006688 0.00185354 2.56895e-22)
(0.000750777 -8.3723e-05 5.63343e-22)
(0.00011976 0.000963874 0)
(0.000104046 0.0016259 -1.44779e-21)
(0.000639986 0.00171491 -2.31217e-22)
(0.000581204 0.00165466 2.09945e-22)
(0.000593346 0.00169563 -2.17191e-21)
(0.00033568 0.00170631 -1.21308e-23)
(0.000260169 6.77212e-05 4.02849e-22)
(0.000657204 0.00176339 -2.59765e-22)
(0.000608904 0.00176939 -2.75631e-22)
(0.000613338 0.00173989 1.63104e-22)
(0.000653175 0.00175358 -3.977e-22)
(0.000912165 -0.000426424 1.10168e-22)
(0.000621142 0.00177162 0)
(0.000435737 0.000155887 3.98049e-21)
(0.000603212 0.00166736 6.17267e-22)
(0.000486761 0.00149162 2.4627e-22)
(0.000616601 0.00186794 -7.98675e-23)
(0.000451994 0.00106872 -1.48616e-24)
(0.000684047 0.00187794 1.38633e-21)
(0.000620395 0.00158243 6.01246e-22)
(0.000636612 0.00157658 5.42372e-23)
(0.000647587 0.00174025 0)
(0.000662739 0.00167539 -2.45582e-22)
(0.000437514 0.00110261 -6.15772e-23)
(0.000401553 0.00088927 -1.59034e-21)
(9.92376e-05 0.000236632 8.4293e-24)
(0.000813628 -0.000103328 0)
(0.000637103 0.00175314 -1.05935e-22)
(0.000372331 0.00104857 1.31467e-21)
(0.000377283 0.00106612 -6.8268e-22)
(0.000653683 0.00177453 -5.9024e-22)
(9.13027e-05 0.000212857 -2.15759e-21)
(0.000385129 0.00102914 2.75539e-23)
(9.54611e-05 0.000172761 -2.09589e-21)
(0.000632546 0.0016617 6.98201e-22)
(0.00104877 4.1214e-05 0)
(0.000636311 0.00187999 1.27056e-21)
(0.000894323 -0.000201162 -1.84855e-22)
(0.000698076 0.001876 0)
(0.0012695 0.000200502 3.42741e-21)
(0.00019358 -1.34348e-06 -1.99863e-21)
(0.000602311 0.00167761 -1.55306e-22)
(0.000610302 0.00171558 3.06219e-24)
(0.000366062 0.00104317 5.75775e-24)
(0.0006554 0.00175897 1.38096e-22)
(0.000662333 0.00177726 3.9013e-24)
(0.000991119 0.000804171 -1.0294e-21)
(7.72198e-05 0.000171654 0)
(0.000642786 0.00173069 0)
(0.000647595 0.0018824 3.23663e-22)
(0.000408924 0.00110825 -1.25805e-21)
(0.000478102 0.00182082 -3.24722e-24)
(0.000346658 0.00102522 1.73343e-21)
(0.000371349 0.00104255 7.57722e-22)
(0.000485735 -0.000100461 1.42777e-25)
(3.32257e-05 0.000719042 8.74998e-22)
(0.000359484 0.00105095 5.44207e-24)
(0.000986617 -7.17181e-05 0)
(0.000680682 0.00188109 2.64789e-22)
(0.000590442 0.00174 -1.50889e-21)
(0.000686624 0.00187424 0)
(0.000597787 0.00158347 -7.30691e-22)
(0.000656056 0.00185014 -6.9722e-23)
(0.000203168 0.000882532 -6.37412e-22)
(0.000654894 0.00108872 1.6404e-21)
(3.36403e-05 7.64584e-05 2.33472e-21)
(0.00053894 0.00178386 -8.93391e-24)
(0.00069401 0.00196426 -1.03832e-21)
(0.000387823 0.00104315 0)
(0.000641301 0.00185682 8.50998e-23)
(0.000591964 0.000841333 0)
(0.000679685 0.00187107 3.76934e-22)
(0.000668658 0.00188856 -1.09025e-21)
(0.000739707 0.00205318 -1.02384e-22)
(0.000641988 0.00172412 4.05632e-22)
(0.000648566 0.00170619 -6.92196e-22)
(0.000649092 0.0017159 4.70155e-22)
(0.000566762 0.0017262 -2.50411e-24)
(0.000656667 0.00186983 2.10542e-21)
(0.00040393 0.00110456 9.81405e-24)
(0.000669343 0.00189402 4.13889e-22)
(0.000101635 0.000677902 -6.19732e-22)
(0.000211339 4.98922e-05 -6.32696e-22)
(0.000329201 0.00102845 3.90835e-22)
(0.000192769 2.27381e-05 -3.78623e-22)
(0.000616865 0.00163414 0)
(0.000524435 2.21877e-05 -2.83598e-21)
(0.000355984 0.000938541 -3.66712e-22)
(0.00065915 0.00183683 1.70963e-22)
(0.00036922 0.00181973 1.45075e-23)
(0.00031522 0.00171238 -1.01607e-23)
(0.000110055 0.000615074 0)
(0.000538858 0.00172587 -9.08897e-22)
(0.000603508 0.00167497 0)
(1.24441e-05 -9.73091e-06 4.55352e-22)
(0.00056629 0.00170441 0)
(0.000436127 0.00205821 -1.21195e-23)
(0.000653173 0.00175016 -2.46004e-22)
(0.000545705 0.00198875 1.05821e-22)
(0.00062519 0.000744231 1.34613e-21)
(0.000601253 0.000789455 0)
(0.000666823 0.00185564 0)
(0.000735822 0.0020442 -1.83143e-23)
(0.000918092 0.000412745 -4.78091e-21)
(8.76642e-05 0.000967048 6.81731e-22)
(0.000106025 0.000260409 0)
(0.0006108 0.00175996 -1.46301e-22)
(6.42799e-05 0.000137398 0)
(0.000366374 0.00106691 1.87488e-21)
(0.000600315 0.00168621 6.12224e-23)
(0.000631524 0.00185334 -1.01375e-22)
(0.000703379 0.00187867 9.16694e-22)
(0.000624379 0.00172653 -3.56701e-22)
(0.000703949 0.0019218 1.12451e-21)
(0.000243825 0.000881801 1.47371e-21)
(0.00165722 0.00142046 0)
(0.000561905 0.00170704 3.01177e-21)
(0.00060081 0.00169315 0)
(0.000669912 0.00184029 0)
(0.000354127 0.00110705 -9.0669e-23)
(0.000685803 0.0020608 2.02821e-23)
(0.000533853 -6.94754e-05 -2.06605e-21)
(0.000397249 0.000737692 -7.99984e-22)
(0.000392504 0.000542601 1.42553e-21)
(0.000682083 0.00195994 4.44063e-21)
(0.000664596 0.00199441 1.4606e-21)
(0.000431667 0.00111093 -3.53393e-22)
(0.000777542 0.000411383 0)
(0.000593539 0.00187013 -1.20601e-21)
(0.000880357 0.000319091 1.29494e-21)
(0.000991459 5.97615e-05 -6.68909e-22)
(0.00115782 0.000636868 -4.24677e-21)
(2.33872e-05 0.00115358 1.05235e-22)
(5.23944e-05 0.000106669 -1.23747e-22)
(0.000615185 0.0021036 1.03244e-22)
(0.00053886 0.00160469 2.93162e-22)
(0.000432242 0.000558144 -3.10648e-21)
(0.000616998 0.00170371 -1.62119e-22)
(0.000647563 0.00170137 -2.39677e-22)
(0.00102945 6.01342e-05 1.93492e-21)
(0.000696222 0.0019131 9.95712e-24)
(0.000984128 -4.01665e-05 -1.10552e-21)
(0.000645364 0.00171768 7.31055e-22)
(0.000681093 0.00190613 -6.63862e-22)
(0.000667326 0.00195384 2.732e-23)
(0.000667796 0.00185742 3.5772e-22)
(0.000650016 0.00174286 -3.56234e-22)
(0.000896151 0.000349378 -1.58186e-21)
(0.000599135 0.00167669 3.23982e-22)
(0.000620813 0.00168582 0)
(0.000629248 0.00171315 4.38333e-22)
(0.000938234 0.00193569 -1.84703e-21)
(0.000440919 0.00137212 0)
(0.00068086 0.00194655 0)
(7.04817e-05 0.000153675 -1.64604e-23)
(0.000565748 0.00182195 0)
(0.00100277 1.59635e-05 0)
(0.000684471 0.00192109 1.88315e-22)
(0.000238843 6.585e-05 1.1956e-21)
(0.000385246 0.000674579 -1.80864e-21)
(5.8841e-05 0.000122469 0)
(5.94087e-06 1.77151e-05 2.99616e-22)
(4.04881e-05 8.50202e-05 4.15035e-21)
(8.24259e-06 5.71732e-06 2.78876e-22)
(4.51089e-05 9.47528e-05 -1.96216e-21)
(0.000972103 6.95497e-05 -2.35587e-21)
(0.000631095 0.000698418 -3.98922e-21)
(0.000578099 -0.000216061 -1.72518e-21)
(0.000606258 0.00170341 -3.51011e-22)
(0.000215989 2.92856e-05 -2.35982e-22)
(0.000728484 0.00187891 -1.85865e-23)
(0.000700421 0.00192493 6.94513e-22)
(5.69009e-05 0.000550629 0)
(0.0005472 0.000866503 0)
(0.000836824 0.000341767 -7.25561e-22)
(0.000754328 0.000432977 1.65209e-21)
(0.000996796 2.73988e-05 -1.20916e-25)
(0.000620529 0.00200692 1.78403e-22)
(0.00104063 0.000672446 1.68589e-21)
(0.000380308 0.00106017 -6.14705e-22)
(0.000616255 0.00168464 -1.31347e-22)
(0.000619124 0.0017572 0)
(0.000281637 -0.000123591 -1.29168e-24)
(0.000662108 0.00190509 6.43518e-22)
(0.000639494 0.00165684 0)
(0.000636801 0.00179882 -9.70365e-23)
(0.000671873 0.00185248 0)
(0.00118371 0.00024343 -2.06892e-21)
(0.00112631 0.000764315 -3.24244e-21)
(0.000835306 0.00179361 -1.93293e-21)
(0.000687861 0.0018646 -1.51075e-22)
(0.000680596 0.00185466 2.11029e-22)
(0.00038782 0.00198034 0)
(0.000359348 0.000391672 -2.23847e-22)
(0.000494925 0.000101063 1.71844e-21)
(0.00068376 0.00183633 0)
(0.000377099 0.00101765 -3.17024e-22)
(0.000655486 0.00180372 1.4685e-21)
(0.00051411 0.00152836 -3.50686e-23)
(0.000671641 0.00191435 -1.74188e-23)
(0.000739208 0.00202844 -1.99818e-21)
(0.000749664 0.00202947 0)
(0.000632659 0.00149183 9.37999e-22)
(7.73334e-06 3.30004e-05 8.13353e-24)
(0.000619766 0.00172962 -8.34052e-23)
(0.00035629 0.00101058 0)
(0.000598154 0.00174906 8.44419e-23)
(0.000699687 0.00192022 5.28473e-22)
(0.001197 0.000550373 2.92107e-21)
(0.000729543 0.00176702 -5.82153e-22)
(0.000704532 0.0019316 7.35677e-22)
(0.000435562 0.000303103 3.54522e-21)
(0.000645789 0.00173497 0)
(0.000908245 -0.000152267 -1.36171e-22)
(0.000363504 0.00105916 -1.16865e-22)
(0.000775155 0.00101354 -2.24276e-21)
(0.000472086 3.95088e-05 -1.64464e-21)
(0.000636162 0.00169623 -5.15977e-22)
(9.32148e-06 5.19917e-05 0)
(0.000622447 0.00173285 0)
(0.00116631 0.00172186 0)
(0.000971398 -0.000118236 0)
(0.000651238 0.00176189 -1.35833e-21)
(0.000311165 -0.000140975 -5.21931e-22)
(0.000358528 0.000982411 -4.97316e-22)
(5.04415e-05 -4.04003e-07 2.31e-21)
(1.09672e-05 6.79365e-05 -3.00199e-22)
(0.000489469 9.39765e-05 7.93072e-25)
(0.000605062 0.0019037 3.44557e-22)
(0.000632645 0.0018323 -4.19648e-22)
(0.000700168 0.000202444 -3.61251e-21)
(0.000643768 0.00168762 -2.57329e-22)
(0.000589235 0.00176703 4.11398e-22)
(0.000638753 0.00169717 -7.32397e-22)
(0.000168282 -3.75062e-05 -1.96674e-21)
(0.000727348 0.00206006 -1.87126e-22)
(0.000718869 0.000896456 -9.29029e-22)
(0.00065087 0.00172705 5.37561e-22)
(0.000684138 0.0018833 -8.82506e-22)
(6.36336e-06 2.24576e-05 0)
(0.000701598 0.00192333 1.05398e-22)
(0.000984667 0.000354965 -3.60644e-21)
(0.00066936 0.00194545 0)
(0.000637637 0.00178555 -2.59915e-21)
(0.000704132 0.00203564 1.51867e-23)
(0.000484868 0.00198516 1.72408e-23)
(0.000624855 0.00191136 8.60976e-22)
(8.10788e-06 3.88108e-05 -2.59882e-22)
(0.000620576 0.00166198 -1.48085e-22)
(0.00067465 0.00186514 -7.36659e-22)
(0.000662048 0.00181751 -2.7027e-22)
(0.000704678 0.00182013 7.15683e-22)
(0.00134684 0.000481552 1.5455e-21)
(0.000679762 0.00186016 -1.0171e-21)
(0.000693291 0.00191819 0)
(0.000702792 0.00193832 -2.2889e-23)
(0.000667669 0.00185841 -1.7636e-22)
(0.000662139 0.00183826 1.48945e-22)
(0.000649718 0.00175119 9.79927e-24)
(0.000424714 0.000984777 -3.1249e-21)
(0.000452975 0.000589161 -1.32452e-21)
(0.000630423 0.00168292 5.47741e-22)
(0.000669322 0.00192664 -4.2775e-23)
(0.000337142 0.00012422 4.17137e-21)
(0.000654384 0.00174505 0)
(0.000187552 0.0009369 -1.62035e-22)
(0.000611224 0.00167281 1.41058e-22)
(0.000694679 0.00196373 0)
(8.8317e-06 4.53531e-05 -9.15476e-24)
(0.000261255 -0.000217172 0)
(1.02432e-05 6.03147e-05 2.19999e-22)
(0.00178667 0.00176004 -8.19179e-22)
(2.00154e-05 7.99924e-05 7.55192e-22)
(0.000639043 0.00190025 0)
(3.84646e-05 0.000743787 0)
(0.00131387 0.00016556 -3.56058e-22)
(0.000669163 0.00196594 -8.02171e-23)
(0.000643288 0.00171551 -5.77507e-23)
(0.000635399 0.00187838 6.85053e-22)
(0.000633461 0.00188814 5.69001e-22)
(6.88335e-06 2.74981e-05 2.62338e-22)
(0.00115283 0.000531448 3.96103e-21)
(0.000522118 0.00202978 9.91087e-22)
(0.000850471 0.000939344 -1.244e-21)
(0.000198003 -5.89078e-05 -2.09209e-21)
(0.000646068 0.00175476 -6.80841e-22)
(4.93855e-05 0.000331969 -1.61071e-21)
(0.00075284 0.00204506 0)
(0.000641637 0.00185945 -6.25983e-22)
(0.000651263 0.00173738 0)
(0.000776063 0.000924946 0)
(0.000360191 0.000936812 1.28425e-21)
(1.49302e-05 8.03033e-05 -1.24874e-22)
(0.000224579 -0.000183748 3.91459e-21)
(0.00105977 0.000315741 1.08825e-21)
(0.00130329 0.000125803 8.8593e-22)
(0.000124732 0.000238674 -6.95244e-24)
(0.000710721 0.00193322 -5.3149e-22)
(0.000690453 0.00200504 -8.12351e-22)
(0.00019046 4.32285e-05 -3.85356e-22)
(0.000537422 0.00138614 1.57242e-21)
(0.000636774 0.00167439 -5.35713e-24)
(0.000417856 0.00075923 1.32486e-21)
(0.00067645 0.00185723 -8.22812e-22)
(0.000540635 0.00188842 3.31448e-24)
(0.000637041 0.00192904 2.62317e-21)
(0.000675179 0.00185135 4.6198e-22)
(0.000274982 0.000837136 0)
(0.000689437 0.0019446 5.67582e-22)
(0.000585364 0.00165216 -1.76202e-22)
(0.000678476 0.000896934 -1.51826e-21)
(0.00036643 0.00195669 -4.2373e-22)
(0.000681014 0.00186337 -1.85641e-22)
(5.61309e-06 1.34409e-05 -5.43454e-22)
(0.000935639 2.84364e-05 0)
(0.000374473 -0.000267711 -6.50593e-22)
(0.000645813 0.00173042 -1.17281e-21)
(0.000644971 0.00171893 -1.11378e-22)
(0.000424563 0.000742752 -1.14433e-21)
(0.000671634 0.00185775 7.35944e-22)
(0.000338568 0.000659205 3.86175e-21)
(0.000510335 0.00170444 2.7579e-22)
(0.000171572 -0.000131924 -8.56648e-22)
(0.000559807 0.00170484 3.49096e-23)
(0.000623662 0.00166649 0)
(0.000229413 8.58487e-05 0)
(0.000662745 0.00185546 -6.59531e-22)
(5.34974e-06 8.89595e-06 1.36373e-22)
(0.000971762 0.00128568 -1.30384e-23)
(0.00098221 0.000460917 1.54463e-21)
(0.000590461 0.00190629 1.21828e-21)
(6.26866e-05 0.000604697 1.38956e-22)
(0.000597443 0.00189046 1.38099e-21)
(-2.70348e-06 7.5847e-05 1.32218e-21)
(0.000476696 -0.000158122 0)
(0.000686656 0.00191856 0)
(6.90969e-05 6.53787e-05 -1.40034e-21)
(0.000709 0.00211012 -1.99779e-22)
(0.000708363 0.000255004 -1.46815e-21)
(2.642e-05 3.99383e-06 -2.56221e-22)
(0.000114798 2.15753e-06 1.24318e-21)
(0.000647439 0.00187383 3.2482e-21)
(0.000426499 -3.46639e-05 1.50669e-21)
(0.000628874 0.00176753 2.1165e-22)
(0.00118825 0.000678045 1.1822e-21)
(0.000641363 0.00184809 1.64303e-21)
(0.000651708 0.00175042 -9.85104e-24)
(0.000272258 0.00114393 -1.85652e-21)
(0.000428807 0.000931738 2.04668e-21)
(7.1762e-05 0.000867387 0)
(0.000668366 -0.000173733 2.61565e-21)
(6.2258e-05 5.10491e-05 -7.92369e-22)
(0.00027251 0.00137107 -1.53064e-21)
(0.000547805 0.00190525 -5.2135e-22)
(0.000653758 0.00174143 -6.96692e-22)
(0.000650164 0.00188439 5.88874e-22)
(0.000660851 0.00178766 -5.44384e-22)
(0.000504424 0.00173914 -3.3598e-23)
(0.000870341 0.000547211 0)
(0.000623709 0.000855052 2.49729e-21)
(0.000365613 -0.000151948 -8.94e-22)
(0.000656071 0.00198004 -1.14112e-21)
(0.000103733 4.5318e-06 2.22414e-26)
(0.00064105 0.00166406 4.8547e-22)
(0.000965173 1.14209e-05 8.93176e-23)
(0.000837853 0.00116585 -1.5069e-23)
(0.00145118 0.000454761 0)
(0.000551199 0.00159673 -1.39525e-23)
(0.000324545 -9.46753e-05 6.03475e-22)
(0.00070949 0.00214685 -6.6597e-22)
(0.000145363 -0.000124065 2.49186e-21)
(0.000456177 0.00126891 0)
(0.00114275 0.000459908 -2.83121e-21)
(0.000603603 0.00167044 -1.02701e-21)
(0.000516284 0.000860075 -5.55956e-22)
(8.07854e-05 6.60473e-05 7.97266e-22)
(0.000972119 2.07685e-05 -4.85897e-22)
(0.000334527 0.000393747 -3.41461e-22)
(0.000674299 0.00185911 0)
(9.79556e-05 1.63865e-05 8.50378e-22)
(0.000300351 0.000459009 -1.17275e-21)
(0.000938386 0.000979217 3.00627e-22)
(9.72421e-05 6.64549e-05 -2.0552e-21)
(0.00068321 0.00205245 -4.66512e-21)
(0.000612285 0.00183983 2.96364e-23)
(0.000676579 0.00186103 6.31244e-22)
(0.00103922 2.79492e-05 0)
(0.000668981 0.00185641 0)
(2.72459e-05 -0.000101555 1.03677e-21)
(0.000663527 0.00052465 5.66437e-21)
(4.63329e-05 3.88075e-05 1.98665e-21)
(0.000764609 0.00199552 7.42912e-21)
(9.915e-06 -3.36146e-05 1.69464e-23)
(0.000609843 0.00166803 -3.17301e-22)
(0.000788906 0.000300039 -4.54324e-21)
(0.000628126 0.00187625 0)
(0.00129035 0.000712797 2.03844e-21)
(0.000605682 0.00195769 2.86399e-22)
(0.000955608 0.000298285 1.44071e-21)
(7.73444e-05 2.7413e-06 1.19195e-21)
(0.00065137 0.00213544 6.43737e-22)
(0.000323652 0.000856604 -1.43009e-21)
(3.93904e-05 6.94334e-05 -1.73947e-21)
(0.000649389 0.00194087 7.08679e-22)
(0.000898981 0.00101089 1.01265e-21)
(0.000963848 9.55946e-06 5.8333e-22)
(4.59815e-05 6.28706e-05 -4.26516e-22)
(0.000121762 -0.000109265 -2.46021e-22)
(0.000632175 0.000478212 -1.59969e-22)
(0.000242751 0.000795173 1.78474e-21)
(0.00065952 0.00198592 3.28414e-22)
(0.000244797 0.00114632 0)
(0.000741137 0.0020516 -1.90674e-21)
(0.000752107 0.00203121 0)
(0.000908108 0.000276667 -3.05838e-21)
(6.98431e-05 0.000796884 -7.36285e-22)
(4.03377e-05 6.76468e-05 2.27562e-21)
(0.000654036 0.00192318 6.28261e-25)
(0.000914585 0.000288729 6.38345e-24)
(0.000873664 0.000781508 0)
(0.000888189 0.000868402 -5.97745e-22)
(0.000641773 0.0017616 0)
(0.000691751 0.00192327 -1.79798e-22)
(0.000608586 0.00165668 0)
(0.00106517 0.000181508 -4.18164e-21)
(0.000891668 0.00145183 6.56223e-23)
(0.000313488 6.07836e-05 1.29351e-21)
(0.000650153 0.00173153 -6.28884e-22)
(4.87463e-05 3.16811e-05 0)
(0.000639035 0.00184832 -1.19674e-24)
(7.82105e-05 0.000135995 2.04301e-21)
(0.000960212 -5.54337e-05 4.78792e-22)
(0.000778359 0.000662371 -1.74342e-21)
(0.000645314 0.00185954 2.69002e-22)
(0.000640959 0.00198355 -1.49642e-22)
(0.000964986 1.53611e-05 1.99341e-22)
(0.000669135 0.00184396 6.11706e-22)
(0.000835335 0.000872177 1.76885e-21)
(3.48604e-05 3.7172e-06 -1.41196e-21)
(0.000686884 0.0021755 -4.04278e-22)
(0.000586054 0.000518111 0)
(-8.20895e-05 0.000625512 3.01848e-21)
(0.00102538 0.00026908 0)
(0.000655714 0.00176436 -7.00437e-22)
(0.00108979 0.000248311 0)
(0.000659132 -0.000205711 1.89259e-22)
(0.000319611 0.000754663 9.42675e-22)
(0.000399971 0.00095336 9.83377e-22)
(0.000838214 0.00143585 -1.72736e-21)
(0.000315823 0.00095675 -9.81643e-22)
(-3.35224e-05 0.00056317 6.87061e-22)
(0.000780567 0.000861853 1.51284e-21)
(0.000700303 0.00192585 -5.53885e-22)
(0.000633593 0.00167284 -2.70313e-22)
(0.000671824 0.00192303 8.18576e-22)
(0.000734165 0.00199816 -3.63456e-21)
(0.000585797 0.000224442 4.33301e-24)
(0.000751667 0.00205672 0)
(0.000467032 0.000590983 0)
(0.000666731 0.00185602 0)
(0.0010254 0.00162158 5.03559e-21)
(0.000396671 0.001052 3.31074e-24)
(0.000628963 0.00184082 2.39566e-22)
(0.000632837 0.00181008 -5.01325e-23)
(0.000650637 0.00192518 -1.50703e-22)
(0.000113 -0.000704938 6.08567e-22)
(0.000506275 0.000504388 -2.00523e-21)
(0.000713869 0.00194077 -1.20811e-21)
(7.82307e-05 -9.10699e-06 -4.22855e-22)
(0.000631294 0.00178602 -1.24209e-21)
(3.52669e-05 -1.97732e-06 0)
(0.000437101 0.000857662 2.2529e-22)
(0.00063329 0.000313088 -3.50154e-21)
(0.00104131 0.00060251 1.25189e-21)
(0.000635411 0.00150939 -1.02202e-21)
(0.00060781 0.00176722 2.21349e-23)
(0.000540121 0.000813602 -2.1856e-21)
(0.000336651 0.000505765 -5.87607e-24)
(0.000796852 0.000717751 2.38435e-21)
(3.51267e-05 4.86374e-05 2.82496e-22)
(0.00063263 0.0018621 0)
(0.000395678 0.000464626 -4.59198e-24)
(0.000674961 0.00197513 -3.56788e-22)
(0.000939992 5.17056e-07 8.11698e-22)
(0.000649189 0.00181202 2.37399e-22)
(0.00083413 -0.000349341 -2.51532e-21)
(0.000709601 0.00195126 3.7012e-22)
(1.57423e-05 0.000121464 -2.78254e-22)
(0.000591233 0.00209142 -2.20103e-22)
(0.00038307 0.00121315 4.70378e-23)
(2.43174e-05 8.63351e-05 0)
(0.000296886 0.000582543 -7.54937e-22)
(0.000698977 0.00189704 5.36791e-23)
(0.000639957 0.00195367 -5.42127e-22)
(0.000428573 0.000644012 4.29864e-21)
(0.000571599 0.000263788 -2.51677e-21)
(0.000379335 0.000635049 -1.57372e-24)
(0.000335855 0.000622546 -3.06165e-21)
(2.89756e-05 5.17582e-05 5.25578e-22)
(0.000780274 0.0006805 2.76343e-21)
(9.9877e-05 -9.50914e-05 5.14465e-22)
(0.000659242 0.00180413 1.35673e-22)
(6.33751e-05 0.00100497 -5.0262e-22)
(0.000699358 0.00215977 0)
(0.000648298 0.00173562 -1.19807e-21)
(0.00039305 0.000508322 -2.6749e-21)
(0.000556013 0.000129179 1.09839e-21)
(0.000698987 0.00192079 -2.26563e-21)
(0.000701418 0.00192921 -3.06428e-22)
(6.70768e-05 0.000106736 1.30286e-22)
(0.00033814 0.000541016 -2.71149e-21)
(0.000692888 0.00221697 -3.15667e-22)
(0.000633156 0.00185319 -7.04891e-22)
(0.000620397 0.00116058 -2.9843e-21)
(0.0008101 0.000195145 2.0988e-21)
(7.44522e-05 -7.25829e-05 -1.62002e-23)
(0.000687881 0.00197701 0)
(0.00107013 0.000425271 0)
(0.000314721 2.25218e-05 2.17043e-21)
(0.000334554 0.000458361 5.0871e-21)
(0.000883619 0.000295474 -1.72667e-26)
(0.00029887 0.000427003 1.23343e-21)
(0.000646136 0.00190516 -7.46679e-22)
(1.81493e-05 0.000149573 -1.07222e-21)
(0.000562058 0.000208947 -1.32004e-21)
(0.00109509 -2.71237e-05 0)
(0.000606618 0.000423833 0)
(0.000641871 0.00189258 7.17845e-22)
(0.000103565 0.000439347 2.48431e-24)
(-2.37787e-05 0.000626316 -5.84048e-22)
(0.000643377 0.00192759 1.5726e-21)
(3.54885e-05 2.56108e-05 1.68057e-21)
(0.00071973 0.000644604 -8.98302e-22)
(0.00059839 0.000673957 -2.42427e-22)
(0.000669555 0.00186335 5.27946e-22)
(0.00047364 -3.30727e-05 -6.38724e-25)
(0.00112159 0.000109485 -1.94263e-21)
(0.000683957 0.00196238 -7.70176e-22)
(0.000694726 0.0019383 -7.12118e-22)
(0.000357409 0.000420802 0)
(0.000372261 0.00105428 9.96123e-23)
(4.2277e-05 1.90758e-05 -1.23423e-22)
(0.000297603 0.000496232 1.18679e-21)
(0.00065586 0.00198471 1.62801e-22)
(0.000746072 0.00200313 -1.86196e-21)
(0.000646074 0.000587077 0)
(0.000653072 0.00194617 0)
(1.41693e-05 0.000129825 0)
(0.000930908 0.000465077 2.21096e-21)
(0.000677475 4.72105e-05 7.03539e-22)
(0.000662584 0.000471669 2.78484e-21)
(-3.05173e-06 0.000474731 0)
(0.000636645 0.000620679 3.56962e-22)
(0.000766391 0.000195391 1.82667e-21)
(0.000628713 0.000327131 6.12899e-21)
(8.51074e-05 7.80158e-05 0)
(0.000980866 -2.4169e-05 -7.80583e-23)
(0.000623351 0.00170948 2.1859e-22)
(0.000299172 0.000550338 1.31353e-21)
(0.000662411 0.00188588 -1.88665e-22)
(0.000659377 0.0017667 -2.29397e-24)
(0.000662235 0.00185105 2.49057e-23)
(0.00033023 0.000319364 3.3586e-22)
(0.000791238 1.72913e-05 0)
(2.09621e-05 3.1894e-05 -1.29252e-26)
(0.000946567 -4.43784e-05 1.44586e-21)
(1.56267e-05 9.40999e-06 -3.52621e-22)
(0.000473645 -0.000236617 -1.16691e-21)
(0.00119631 9.70673e-05 0)
(0.00108029 0.000223106 1.67699e-21)
(0.000534666 0.00159676 -1.11866e-24)
(4.43681e-05 2.80314e-05 0)
(0.000748252 0.00206558 3.23365e-22)
(0.000720545 0.000124039 5.85967e-22)
(0.000961664 9.94666e-06 -2.56262e-22)
(2.15259e-05 0.000185656 0)
(0.0010863 0.000489371 -3.7755e-21)
(0.000644501 0.00168843 -3.45699e-22)
(0.000747302 0.0020863 -2.57529e-21)
(0.000630892 0.00190652 -1.6928e-24)
(0.000652459 0.00167094 0)
(6.7417e-07 0.00010437 -8.18641e-23)
(0.00070389 0.000742321 -6.15397e-22)
(0.000959317 4.80364e-05 -2.50811e-21)
(0.000816771 0.000187531 -2.85475e-21)
(0.00038731 6.85832e-05 6.56524e-21)
(5.08928e-05 2.44035e-05 -8.09832e-22)
(0.00067811 0.00176073 -8.62006e-21)
(0.000278549 0.000726533 6.2983e-25)
(0.000687776 0.00195274 -2.5622e-23)
(0.000658366 0.0020443 -4.12677e-23)
(0.000659754 0.00181732 0)
(0.000978843 2.66304e-05 0)
(6.44514e-05 -6.32217e-05 0)
(0.000680762 0.00187746 -1.81732e-22)
(0.000666715 0.00187359 -1.62255e-21)
(0.000623953 0.000381298 -3.75819e-21)
(0.000704331 0.00190676 0)
(0.00151714 0.00053939 3.4178e-22)
(1.90028e-05 3.55366e-05 -4.24887e-22)
(0.00134047 0.000654328 -8.72576e-23)
(0.000727793 0.00211287 1.11391e-21)
(7.55272e-05 -1.59829e-05 2.01119e-21)
(0.000660277 0.0018177 -1.19244e-21)
(0.000658691 0.00179857 -9.17417e-22)
(0.000993569 1.45315e-05 -7.65439e-23)
(0.000648395 0.00170607 3.27963e-22)
(0.000403258 4.38501e-05 -2.18918e-21)
(0.000668547 0.00185689 0)
(0.000654949 0.00188007 -2.92911e-22)
(3.62279e-05 1.66169e-05 0)
(0.000436033 1.0462e-05 6.73003e-25)
(0.00069081 0.00208906 9.19894e-24)
(0.000642289 -0.000377482 9.23749e-22)
(0.000361603 0.00100888 6.54951e-24)
(0.00107168 5.81922e-05 1.23196e-22)
(0.000154223 -4.8076e-05 2.16153e-21)
(0.000339317 -1.10306e-05 -1.29868e-21)
(0.000988172 1.06736e-05 1.44734e-21)
(0.000640256 0.000591318 4.45147e-22)
(0.000720418 0.000160892 2.22014e-21)
(0.000638746 0.00174841 -8.20686e-22)
(0.000137518 0.000171006 -1.17266e-21)
(0.000762759 -0.000216141 5.45171e-22)
(2.55756e-05 4.03079e-05 1.72889e-21)
(0.000752444 0.00207721 -2.12578e-21)
(0.000311234 0.000357448 0)
(0.000759223 0.000944579 2.5103e-21)
(0.000700279 0.00214066 0)
(0.000693654 0.00194982 0)
(0.000931923 3.46552e-05 0)
(0.000659183 0.000394281 -2.18573e-24)
(0.000316722 -5.64679e-05 2.92444e-26)
(0.000310181 -0.000211083 -1.57229e-21)
(0.000559736 0.000291391 -5.33863e-21)
(0.000305456 -1.85862e-05 1.23347e-21)
(1.93643e-05 0.000166033 1.07774e-21)
(0.000704743 0.00212037 0)
(0.000308939 -0.000254538 5.45823e-21)
(0.000147384 -0.000153984 1.09957e-21)
(0.00070999 0.00194502 -1.691e-22)
(0.000387569 0.000961945 0)
(6.05724e-05 8.85014e-05 -1.60444e-21)
(0.000309081 -0.000105411 1.9818e-21)
(0.000353764 8.50261e-05 -3.77691e-21)
(0.000958377 3.30422e-05 3.38645e-21)
(0.00094453 0.000342032 3.02453e-21)
(0.000669012 0.00194566 -5.81559e-22)
(0.000921683 -8.22126e-05 0)
(0.000574196 -0.000178311 1.32888e-21)
(0.000580971 -0.000118901 3.48256e-21)
(0.000572017 -6.6722e-05 -4.40383e-21)
(0.000541299 5.27288e-05 1.95799e-21)
(0.000577646 -3.66245e-06 -1.07384e-21)
(-2.9539e-05 -0.000397905 7.59514e-22)
(3.97536e-05 2.56062e-05 2.40176e-22)
(0.000780679 0.000881126 -4.11707e-21)
(0.000895013 -3.9067e-05 0)
(0.000653278 0.00181403 -1.58058e-22)
(0.000422283 0.00011458 -8.45236e-22)
(0.000252412 0.00129074 -1.6185e-21)
(0.000705503 0.00193057 -8.82022e-22)
(0.00014369 -6.19244e-05 1.83164e-23)
(0.000700078 0.00213804 -7.75262e-22)
(0.000709752 -2.89376e-06 6.18891e-22)
(0.000352814 0.000285831 3.19227e-22)
(0.000574004 9.90587e-05 0)
(0.000673346 0.0018734 0)
(0.000716875 0.000364625 3.38166e-21)
(0.000691051 0.00191018 -5.85066e-22)
(0.000220327 -9.31336e-05 -1.88176e-21)
(0.000658232 0.00182174 6.18325e-22)
(0.000967262 -2.17951e-07 3.00047e-24)
(7.90874e-06 0.000436551 0)
(0.000672629 0.00186725 1.66265e-22)
(0.000653618 -0.000110823 2.21469e-21)
(0.000288784 0.000388629 -2.5245e-21)
(1.28468e-05 1.42986e-06 1.02273e-21)
(0.000965133 2.93023e-05 -3.90017e-21)
(0.000262578 -8.7367e-05 4.70923e-21)
(0.00098354 -2.53119e-05 -2.03534e-21)
(0.000839277 -0.000160294 1.27218e-21)
(0.000746007 0.00210787 -1.36286e-21)
(0.00097981 1.44398e-05 2.64298e-22)
(0.000106594 -0.000119354 -1.52519e-21)
(0.000656094 0.00184508 5.50717e-24)
(0.000463654 0.00109606 -5.84501e-22)
(0.000971174 6.49024e-06 -9.89261e-22)
(0.000939023 -2.20395e-06 3.43208e-21)
(0.00109622 0.000133373 0)
(0.000678258 0.00184687 -4.78692e-22)
(0.000355496 3.1513e-06 1.28455e-21)
(1.94475e-05 2.75428e-05 1.75073e-21)
(0.000530396 0.000911195 -3.15387e-22)
(0.000383051 0.00159695 -1.32591e-21)
(9.39696e-06 1.24506e-06 -1.01914e-21)
(2.85539e-05 0.000277131 -7.19707e-23)
(0.000711887 0.00189029 0)
(0.000651677 0.00173823 7.23306e-23)
(0.000689787 0.00019864 -1.0331e-21)
(0.000980453 -1.70982e-05 -4.71467e-21)
(3.00022e-05 0.000305572 0)
(0.000669534 0.00186364 4.42737e-23)
(0.000672456 0.00186909 -7.24437e-22)
(0.000745946 0.00209712 1.42848e-23)
(0.000749503 0.00207596 0)
(0.000600135 0.000566347 -1.69825e-21)
(0.000164437 -0.000196281 0)
(0.000636781 -4.67416e-05 1.16821e-21)
(0.000756871 0.00207457 3.37166e-21)
(0.000679972 0.00186528 4.14815e-21)
(0.000648223 0.00186622 0)
(0.000685732 0.00186687 -1.50995e-24)
(0.000966869 6.31057e-06 0)
(0.00027956 4.73473e-05 1.35107e-21)
(0.000360202 4.72272e-05 -2.33189e-21)
(0.000428351 -0.000160037 0)
(0.000635161 0.001754 1.82691e-22)
(-1.82425e-06 -0.000252555 1.91753e-21)
(0.000734328 0.00209271 1.40108e-21)
(0.000733462 0.00214724 -8.71161e-22)
(0.000523188 0.00170971 -4.00579e-22)
(0.000986256 4.93894e-05 0)
(0.000891933 2.3281e-05 1.26031e-22)
(0.000214375 -7.69506e-05 -3.29028e-22)
(0.000692275 0.00204043 1.04897e-21)
(1.86897e-05 3.24088e-07 0)
(0.000742327 0.00208554 0)
(0.000666991 0.00194152 8.19585e-22)
(0.000833417 -7.36627e-05 0)
(0.000134197 -3.60276e-05 -6.57548e-23)
(0.000960753 1.02524e-06 -4.75629e-22)
(1.65512e-05 0.000251283 6.27612e-22)
(0.000126284 -0.000144632 7.79907e-22)
(0.000824626 7.43199e-05 1.16039e-21)
(0.00121519 0.0013949 -3.21305e-21)
(2.29905e-05 4.07279e-05 -1.8335e-21)
(0.000715723 0.00195344 2.4807e-21)
(0.000696318 0.00194493 -1.93982e-21)
(0.00100575 3.23401e-06 0)
(0.000849631 1.32479e-05 -9.73919e-24)
(0.000689888 0.00194692 1.33466e-21)
(0.000124125 -5.15149e-05 -1.05517e-21)
(0.000684715 0.00186494 -9.61001e-23)
(0.000770277 0.00207682 6.76599e-22)
(0.000721122 0.00202366 -2.16563e-21)
(2.97989e-05 5.61088e-05 -5.50366e-22)
(7.66677e-05 0.000256614 6.80491e-23)
(5.05852e-05 8.82283e-06 1.14931e-21)
(1.52054e-05 2.59857e-05 4.60029e-22)
(0.000655536 0.0018578 0)
(0.000161455 -6.33252e-05 -7.01025e-26)
(0.000746378 -1.35924e-05 0)
(2.09912e-05 4.28415e-05 2.27386e-22)
(0.000643012 0.00174208 7.23707e-22)
(9.66853e-05 -4.23044e-05 0)
(0.000293895 0.000689963 -1.43997e-21)
(0.000955411 -1.67601e-05 0)
(1.56107e-05 -1.81273e-05 5.26563e-22)
(0.000730492 -0.000194926 0)
(0.000937149 4.86444e-05 0)
(0.000735419 3.89549e-05 6.28425e-22)
(3.08843e-05 -0.000256321 0)