/*--------------------------------*- C++ -*----------------------------------*\
  =========                 |
  \\      /  F ield         | OpenFOAM: The Open Source CFD Toolbox
   \\    /   O peration     | Website:  https://openfoam.org
    \\  /    A nd           | Version:  7
     \\/     M anipulation  |
\*---------------------------------------------------------------------------*/
FoamFile
{
    version     2.0;
    format      ascii;
    class       volScalarField;
    location    "119.5";
    object      p;
}
// * * * * * * * * * * * * * * * * * * * * * * * * * * * * * * * * * * * * * //

dimensions      [0 2 -2 0 0 0 0];

internalField   nonuniform List<scalar> 
591
(
0.000123815
0.000123831
0.000123837
0.000123778
0.000123783
0.000123854
0.000123837
0.000123818
0.00011695
0.000123839
0.000124029
0.000122785
0.000123824
0.000119674
0.000123818
0.000123859
0.000123826
0.000123872
0.000121899
0.000123204
0.000123801
-3.52222e-06
0.000124021
0.000123801
0.000123975
0.000123825
0.000123947
0.000123934
0.000123838
0.000123851
0.000123996
0.000123969
0.000123989
0.000123989
0.000123991
0.000123313
0.000123985
0.000123802
0.000124015
0.000123927
0.000123874
0.000123982
0.000123834
0.000123862
0.000123979
0.000124001
0.000119182
0.000124005
0.000123838
0.000123942
0.000123962
0.000123988
2.39448e-05
3.0589e-05
4.78338e-05
0.000123834
0.00012401
0.000124005
0.000124003
0.000123811
0.000123897
0.000123832
0.000123827
0.00012388
0.00012251
0.000123829
0.000123835
0.000123999
0.000120682
0.000123848
0.000123836
0.000124007
0.000123989
0.000123984
0.00012399
0.000123965
0.000123805
0.000124003
0.000123807
0.000123749
0.000123578
0.000124008
0.000123966
0.000123958
0.000124015
0.00012382
0.0001239
0.000123997
0.000123959
0.000123712
0.000123971
0.000123931
0.000123938
0.00012381
0.000124013
0.000123968
0.000123511
0.00012341
0.000123589
0.000124021
0.00012393
0.000123866
0.000124027
0.000123774
0.000124029
0.000123832
0.000123827
0.000123965
0.000124024
0.000124027
0.000123922
0.000124002
0.000123845
0.000124001
0.000124018
0.00012401
0.000123965
0.000123949
0.000123527
0.000123933
0.000123832
0.000123822
0.000123907
0.000123807
0.000123979
0.000120139
0.00012403
0.00012401
0.000123576
0.000123991
0.00012382
0.000123503
0.000123972
0.000123957
0.000123995
0.000123838
0.000122577
0.000124024
0.000123822
0.000123515
0.000123595
0.00012392
0.000124013
0.000124017
0.000124009
7.61876e-06
3.68065e-06
2.07368e-06
3.816e-05
3.66994e-05
5.66334e-06
3.83133e-05
1.57424e-05
3.72975e-05
1.78092e-05
0.000123832
0.000123821
0.000124018
0.000124005
0.000124014
0.000124013
0.000124004
0.000123999
0.00012402
0.000124014
0.000123985
0.000124014
0.000124009
0.000124017
0.000123967
0.000123342
0.000124016
0.000122077
0.000124007
0.000123994
0.00012395
0.000123839
0.000123994
0.000124013
0.000124016
0.000123435
0.000122424
0.000122997
0.000123383
0.000123998
0.000124007
0.000123888
0.000123799
0.000124004
0.000122918
0.000123242
0.000123799
0.000123992
0.00012369
0.000123985
0.000124015
0.000123991
0.000123657
0.00012379
0.000124011
0.000124013
0.000124017
0.000123821
0.000123993
0.000123817
0.000124021
0.000123824
0.000123824
0.000124017
0.000123613
0.00012379
0.000123836
0.000123476
0.000123972
0.000123621
0.000123911
0.000123935
0.000124005
0.000123387
0.000123896
0.000123783
0.000123782
0.000123965
0.000123733
0.000123879
0.000123799
0.000123715
0.000123774
0.00012402
0.00012378
0.000124021
0.00012388
0.000124002
0.00012384
0.000123843
0.000124024
0.000123723
0.000124007
0.000123712
0.000123763
0.000123829
0.000123807
0.000123844
0.000123832
0.000123602
0.000123803
0.00012376
0.000123964
0.000123823
0.000123687
0.000123958
0.000123233
0.000123807
0.000123121
0.000123011
0.000123814
0.000123777
0.000123817
0.000123813
0.000123792
0.000124024
0.000123859
0.000123922
0.000123877
0.000123863
0.000123875
0.00012398
0.000123628
0.000124019
0.000123663
0.000123548
0.000123849
0.000123999
0.000123575
0.000124011
0.000123927
0.000123922
0.000123954
0.000123842
0.00012382
0.000123661
0.000123771
0.00012382
0.000123855
0.000123921
0.000123978
0.000123998
0.000124003
0.000123756
0.000123866
0.000123989
0.000123998
0.00012399
0.000123781
0.000124007
0.000123884
0.000124
0.000123741
0.000124006
0.000123727
0.000123981
0.000123874
0.000123818
1.16431e-05
2.19134e-05
0.000123748
0.000123837
0.000124024
0.000123762
0.000124023
0.000123846
0.000124005
0.000123981
0.000123708
0.000123975
0.000123803
0.000124022
0.000123841
-2.09507e-07
0.000123726
0.000123985
0.000123982
0.000123665
0.000123839
0.000123884
0.000123975
0.000123719
0.000123998
0.000123878
0.000123832
0.000123973
0.000123773
0.000123693
0.000123737
0.000123845
4.74959e-05
0.000123993
0.000123968
0.000123829
0.000124
0.000123904
0.000123851
0.000123835
0.000123818
0.000123984
0.000123848
0.000123747
0.000123889
0.000123753
0.000123998
0.000123761
0.000123827
0.000123857
0.000123937
1.98743e-05
2.73349e-05
3.42952e-05
9.64043e-06
0.000123802
3.30551e-05
2.60022e-05
0.000123996
1.90753e-05
1.70309e-05
3.8184e-05
7.57748e-06
3.99345e-05
5.60626e-06
4.08276e-05
3.69029e-06
4.2809e-05
1.87791e-06
3.64101e-05
2.31991e-05
2.9451e-05
1.49932e-05
0.000123687
0.000124008
0.000123868
0.000123888
0.000120837
0.000123921
0.000124002
0.000123972
0.000123765
0.000124008
0.000124019
0.000123986
0.000123983
0.000123745
0.000123818
0.000124004
0.00012401
0.000123843
0.000123699
0.000123801
0.000123357
0.000123806
0.000124027
0.00012399
0.00012383
0.000124015
0.000123666
0.000123841
0.000123627
0.000122792
0.000123985
0.000123998
0.000124026
0.000123684
0.00012389
0.000123625
0.000123845
0.000123837
2.6044e-05
2.18786e-05
3.30361e-05
1.16192e-05
0.000124028
0.000123676
1.9821e-05
2.82556e-05
3.5602e-05
9.58916e-06
0.000123857
0.000123919
0.000123798
0.000123802
0.00012382
0.000123973
0.00012376
0.00012398
0.000123939
0.000123049
0.000123803
0.00012377
5.93879e-05
0.000123176
0.000124013
0.000123814
0.000123698
0.000124001
0.000124004
0.000123793
0.000123591
0.00012383
0.000123859
0.000123676
0.000123956
0.000122842
0.000123745
0.000123776
0.000123982
0.00010085
0.000123826
0.000123437
0.000123735
0.000124013
0.000123638
1.08969e-05
2.1116e-05
3.5368e-05
2.8192e-05
1.36628e-05
5.65104e-08
4.20869e-05
2.69161e-06
4.01582e-05
4.76345e-06
3.94154e-05
6.81599e-06
3.86233e-05
8.85851e-06
3.72901e-05
1.36746e-05
3.17284e-05
3.05849e-05
2.39382e-05
2.52784e-05
1.77663e-05
1.29391e-05
1.57085e-05
0.000124007
0.000102351
0.000123801
0.000123723
0.00012401
0.000123902
0.000124018
0.000123731
0.000123861
0.000123976
0.000123971
0.000123983
0.000123728
0.000123824
0.000123751
0.00012393
0.000123757
0.000124011
0.000123897
0.000123724
0.000123734
0.000123835
0.00012383
0.000124018
0.000124009
0.000124025
0.000123976
0.000124025
0.000123644
0.000123825
0.000124013
0.000123771
0.000123905
0.000123835
0.000123892
0.000123711
0.000123975
0.000123974
0.000123289
0.000121322
0.000123018
0.000123559
0.000123823
0.000123652
0.000123838
0.00012402
0.000123995
0.000123831
0.000123444
0.000123421
0.000124012
0.000123977
0.000123854
0.000123942
0.000123487
5.82992e-05
4.01142e-05
0.000123944
0.000123965
0.000123328
0.000122694
0.000123811
0.000123579
0.000123322
0.00012382
0.000123754
0.000124013
0.000123853
0.00012389
0.000118951
5.44548e-05
0.00012386
8.12507e-05
1.86274e-06
-3.80296e-07
0.00012382
0.000123787
0.000123977
0.000124023
0.000124019
0.000124011
0.000124022
0.000123807
-2.30605e-06
0.000122767
0.000123851
0.000123952
0.000121955
0.00012401
0.000124011
0.000122242
0.00012393
0.000123978
0.00012164
0.000124024
7.63089e-05
0.000124009
0.00012377
0.00012397
0.000122321
0.000123531
0.000123617
0.000123859
0.000124026
0.000123962
0.00012401
0.000124024
0.000123812
0.000116119
)
;

boundaryField
{
    back
    {
        type            empty;
    }
    ingreso
    {
        type            zeroGradient;
    }
    salida
    {
        type            fixedValue;
        value           uniform 0;
    }
    front
    {
        type            empty;
    }
    defaultFaces
    {
        type            zeroGradient;
    }
}


// ************************************************************************* //
