/*--------------------------------*- C++ -*----------------------------------*\
  =========                 |
  \\      /  F ield         | OpenFOAM: The Open Source CFD Toolbox
   \\    /   O peration     | Website:  https://openfoam.org
    \\  /    A nd           | Version:  7
     \\/     M anipulation  |
\*---------------------------------------------------------------------------*/
FoamFile
{
    version     2.0;
    format      ascii;
    class       surfaceScalarField;
    location    "104";
    object      phi;
}
// * * * * * * * * * * * * * * * * * * * * * * * * * * * * * * * * * * * * * //

dimensions      [0 3 -1 0 0 0 0];

internalField   nonuniform List<scalar> 
1111
(
7.09504e-09
1.28994e-08
-1.6055e-08
-3.93945e-09
7.03073e-09
-1.17783e-08
1.18426e-08
-1.47374e-08
5.828e-09
8.79176e-09
1.17617e-10
9.59393e-10
-1.11244e-09
-1.43894e-08
1.45424e-08
-1.43549e-08
1.41677e-08
1.14663e-09
-1.6134e-09
1.49154e-08
2.12655e-09
-2.6616e-09
9.36815e-09
-9.32976e-09
2.62321e-09
-6.72349e-09
-1.26114e-08
1.25967e-08
6.73821e-09
-5.01976e-08
-2.61029e-08
7.63005e-08
-8.10163e-09
7.72502e-09
7.40735e-09
3.25967e-09
3.76143e-10
-3.33871e-09
-2.97108e-10
1.58742e-08
-1.62661e-08
-2.32638e-08
2.36558e-08
-9.66652e-09
-7.89981e-09
8.80281e-09
8.76352e-09
-3.55889e-08
1.7731e-08
-3.23708e-08
5.02287e-08
9.49377e-09
-1.96151e-09
-1.42557e-08
-3.51376e-10
1.34752e-09
-2.72293e-09
1.72679e-09
-3.96281e-09
1.3305e-08
1.97305e-09
-1.13152e-08
8.8097e-09
-2.68689e-09
-1.50577e-08
8.93487e-09
3.71829e-08
-2.98522e-08
-7.33068e-09
-1.94277e-08
3.00287e-10
1.72314e-08
1.896e-09
-1.07761e-09
4.23652e-09
-1.7839e-08
1.46801e-08
-6.12269e-08
-3.96146e-09
6.51884e-08
1.36264e-10
-1.11036e-09
-3.24694e-10
1.29879e-09
-1.79282e-09
-1.36397e-08
-6.79716e-11
-2.15953e-10
1.57299e-10
1.26626e-10
-1.04034e-08
-8.61768e-09
1.31997e-08
5.82137e-09
6.83125e-10
-2.13345e-09
-8.23383e-09
9.68415e-09
8.75906e-09
7.47002e-10
-9.82445e-09
3.18392e-10
-2.87313e-09
-8.07846e-09
1.11509e-08
-1.99301e-10
1.14125e-08
-1.05583e-09
-1.54699e-09
-7.68502e-10
7.77562e-10
-2.5804e-11
1.67443e-11
-4.91673e-11
6.3675e-10
1.68467e-10
-7.56049e-10
-3.93548e-10
-4.01412e-11
4.2491e-10
8.77887e-12
-5.8881e-11
-7.27464e-10
1.15613e-10
6.70731e-10
-1.13632e-10
-7.1375e-10
1.00641e-09
-1.838e-08
-2.05411e-09
-3.17228e-10
3.63844e-11
-1.12704e-10
1.33795e-08
-1.3246e-08
4.10301e-09
-3.38192e-10
5.25257e-10
3.06958e-10
-4.94022e-10
1.8793e-11
-1.16078e-09
1.02677e-09
1.15212e-10
-1.87136e-09
1.06722e-08
-1.14624e-08
-2.20489e-10
-1.37038e-10
4.02993e-11
-8.71693e-09
1.05928e-08
-9.97747e-09
1.22814e-08
-1.71394e-08
4.52899e-09
3.29033e-10
4.49469e-11
-1.32209e-10
-1.33227e-10
1.36122e-10
7.2454e-10
-8.30999e-11
-5.95157e-08
7.42314e-08
-1.47157e-08
9.79154e-10
-1.96551e-10
-1.08245e-09
2.99852e-10
1.14188e-09
1.03061e-08
-1.37129e-08
2.26493e-09
-1.89698e-09
7.86434e-09
-8.9457e-09
2.97834e-09
-6.77445e-09
5.57439e-09
5.71692e-09
-4.51687e-09
-7.8301e-09
-1.51526e-09
1.606e-09
7.73936e-09
-1.80643e-10
-9.09141e-08
9.12996e-08
-2.04895e-10
-2.55864e-10
-8.97489e-08
9.01586e-08
-1.53858e-10
8.30782e-08
-1.49228e-09
1.10282e-10
-8.16962e-08
-2.76496e-09
-5.599e-10
5.88427e-10
7.96481e-10
-4.05755e-10
3.89265e-09
-9.11553e-10
3.54111e-09
-6.52221e-09
-8.917e-10
8.31271e-10
-1.492e-08
6.57475e-09
9.95387e-09
1.07252e-09
-1.07395e-08
-2.86927e-10
-6.06214e-09
1.35852e-08
9.31274e-10
-8.45436e-09
1.4386e-08
-4.58359e-09
3.81342e-09
-1.36158e-08
1.53889e-08
1.67279e-09
-1.63291e-09
-1.96501e-10
-2.00705e-08
-7.42735e-09
2.76943e-08
1.453e-08
-8.86094e-09
-1.85681e-09
8.05159e-09
-1.22569e-08
4.39763e-11
4.75948e-12
-1.13119e-09
-3.6123e-08
-2.33926e-08
8.35464e-09
3.09382e-10
3.6174e-09
-6.97526e-09
1.12726e-08
6.29542e-09
-5.48935e-10
2.84316e-10
4.43128e-10
-1.78509e-10
5.68719e-09
-4.82296e-09
3.68803e-09
-4.55227e-09
-3.82514e-10
-5.85764e-10
2.40814e-10
5.86435e-10
-5.10962e-10
3.30662e-11
-6.88958e-10
6.06724e-10
-1.82388e-08
2.39449e-09
1.59792e-09
1.42464e-08
1.90376e-10
-6.36516e-10
-1.02794e-10
-4.2227e-09
-1.51888e-08
1.17266e-09
5.61516e-09
1.21102e-08
-5.23642e-09
-1.2489e-08
1.63866e-08
7.43469e-10
-1.58486e-08
-1.28147e-09
-6.28985e-10
4.08591e-10
5.0471e-10
-2.63121e-10
1.23294e-10
1.39827e-10
-7.49429e-09
-3.49366e-09
4.2135e-09
-1.81519e-10
2.8862e-10
-1.07101e-10
1.06295e-09
-1.5689e-08
-7.55416e-10
1.00857e-08
-1.12017e-08
-8.73527e-10
-2.30054e-10
1.29822e-08
4.46371e-09
-4.19908e-09
-1.32468e-08
5.53224e-11
7.21759e-09
-8.00394e-09
6.36074e-09
-1.58483e-09
-9.09887e-09
8.28842e-09
2.39528e-09
-1.95087e-09
6.96402e-10
-1.39343e-08
-9.51089e-11
-8.64095e-11
3.79338e-10
6.16031e-10
-8.82547e-09
7.75791e-10
1.72667e-08
-1.65595e-09
-1.19257e-08
1.33132e-08
-1.38753e-09
1.22733e-08
1.39185e-08
-1.54941e-08
-1.06978e-08
-4.64221e-10
8.75952e-10
-4.11731e-10
1.76582e-10
2.85318e-11
-2.05113e-10
-4.73245e-11
5.80883e-10
-5.33559e-10
1.26471e-09
-1.01222e-09
-2.52495e-10
-1.05116e-08
9.6849e-10
9.54316e-09
1.87631e-09
-6.11599e-10
8.97992e-09
-1.54203e-08
7.87825e-09
-9.39589e-09
6.4814e-11
3.60439e-09
-4.09532e-10
-2.25245e-09
2.31727e-09
-6.40965e-09
7.74626e-09
-1.33661e-09
-4.44578e-10
4.29242e-09
4.48094e-11
1.72565e-08
-1.44774e-08
-1.63726e-09
-6.18107e-09
5.45553e-09
-1.86014e-10
-1.756e-10
5.72653e-09
-5.70121e-09
-2.5321e-11
6.83341e-09
4.5707e-09
-5.34728e-11
-1.5914e-08
1.04792e-08
1.77081e-08
5.8205e-09
8.23051e-09
8.17057e-09
-6.8491e-09
1.43426e-09
-1.19459e-08
1.59219e-10
1.52406e-09
-1.30147e-08
2.73788e-09
-4.20614e-10
1.11499e-08
-1.04064e-08
-2.88302e-10
-6.98857e-10
-1.38265e-08
7.79026e-09
6.80529e-10
6.94724e-12
-8.88308e-09
4.9808e-09
-3.00488e-08
-1.2519e-08
-2.8461e-09
1.53864e-09
1.41232e-08
1.10886e-08
-1.08407e-08
-1.43712e-08
1.53685e-08
-3.16787e-09
-1.22006e-08
1.60201e-09
4.01139e-09
-9.14863e-10
-8.75812e-10
-8.04932e-10
1.09222e-09
5.88522e-10
-2.12108e-10
3.29895e-10
3.25341e-10
6.2145e-08
-6.21712e-08
2.6212e-11
6.20645e-08
-6.23687e-08
3.04281e-10
8.37505e-10
6.47308e-08
-6.5558e-08
8.27281e-10
6.41227e-08
6.08045e-10
-2.23728e-10
-6.65036e-08
9.45518e-10
-6.20612e-08
6.19264e-08
1.34857e-10
1.31504e-09
-6.78186e-08
-6.22212e-08
1.60007e-10
1.2721e-08
-5.78035e-10
1.19657e-09
-3.69748e-09
3.07895e-09
2.85932e-10
-1.14814e-09
8.6076e-10
-5.06492e-10
1.3575e-09
-1.57896e-09
7.27952e-10
1.35479e-09
-1.42992e-09
7.98915e-11
-3.90871e-11
-3.45847e-09
2.66495e-09
-1.89007e-09
2.68358e-09
-3.47346e-10
-2.69687e-09
2.46618e-09
-3.47718e-09
-5.86265e-09
5.63604e-10
-5.72055e-10
1.12926e-09
1.089e-09
-6.43402e-09
7.87141e-09
3.13331e-09
1.97256e-08
-4.35704e-09
-6.64476e-10
2.77905e-10
9.50176e-10
-1.00817e-08
-2.60414e-08
5.25511e-09
-4.20655e-09
-3.19554e-09
2.14698e-09
9.06511e-11
2.52501e-11
3.09009e-10
-2.49645e-09
3.29058e-09
9.01552e-09
6.84034e-10
-1.46742e-10
2.05511e-09
-2.25571e-09
1.7495e-09
1.47066e-08
1.33352e-08
-2.69246e-08
3.27172e-08
6.31582e-09
-2.28456e-08
-1.03948e-08
1.85462e-08
-1.80344e-08
1.05768e-08
-2.14409e-11
-2.42095e-10
-1.16638e-09
-1.64581e-09
-2.85493e-09
3.27738e-09
1.51767e-08
-6.34179e-10
-1.38461e-08
-8.43184e-10
-2.20775e-09
3.54062e-10
1.54762e-08
1.77766e-08
1.36966e-08
7.60779e-10
-1.73474e-09
-1.27226e-08
-1.44093e-09
5.97781e-09
1.26195e-08
-4.20576e-10
-9.92032e-10
-3.66641e-09
2.80955e-09
3.52182e-09
2.50911e-09
1.45596e-08
4.31281e-09
-1.44087e-08
1.81101e-08
-1.76071e-09
2.3755e-09
-3.31561e-09
1.91861e-09
-4.9593e-09
1.29271e-08
-1.19306e-08
-1.40542e-08
3.02534e-10
8.79237e-09
-1.77604e-09
1.48252e-09
1.42278e-09
-8.66452e-09
6.99626e-10
-4.5541e-09
-5.9884e-09
1.2174e-08
-1.48501e-08
1.00702e-09
1.6816e-09
-2.20017e-09
1.68561e-08
-1.63375e-08
-1.13808e-09
1.42005e-08
3.11538e-09
-4.48948e-09
-1.40462e-08
7.59669e-09
-1.74529e-08
-8.17819e-09
6.89981e-09
5.87899e-09
1.46584e-08
-1.01063e-08
3.00315e-09
9.49838e-09
9.81722e-09
3.87468e-09
-4.22599e-09
2.18111e-08
-1.92779e-08
5.06347e-09
-1.06735e-08
2.16927e-09
5.70591e-09
1.40021e-08
-3.77434e-10
1.28255e-08
-1.35861e-08
-1.9377e-09
1.62567e-09
-6.20533e-10
9.32562e-10
1.10915e-08
-6.36403e-09
7.3828e-09
-1.10686e-08
1.4676e-09
-4.74317e-09
1.15288e-08
-1.2022e-08
-7.58841e-09
9.25276e-09
9.42712e-09
1.29637e-08
5.44267e-10
-1.38854e-08
1.40621e-09
7.75015e-10
-1.11692e-08
-6.72576e-09
1.03066e-08
-1.32146e-09
2.51033e-09
-9.00483e-09
4.76785e-09
-5.32766e-09
1.16536e-08
-3.47043e-09
-1.1874e-08
3.69079e-09
-4.46279e-09
1.13733e-08
1.78259e-09
1.10613e-09
-5.06316e-09
-1.78793e-08
1.05515e-08
1.2391e-08
7.11448e-10
-1.10864e-08
-1.00623e-08
1.60856e-08
1.26682e-08
2.88311e-09
-9.84544e-09
-1.33465e-08
-3.25511e-10
-1.27598e-08
1.64861e-10
-7.68621e-10
1.17547e-08
1.25555e-08
-8.23787e-09
1.67277e-08
-1.60895e-08
3.67457e-09
-5.06847e-10
1.80197e-09
1.29513e-08
-3.93691e-09
-1.27511e-08
-4.98805e-09
1.9148e-09
4.59731e-09
1.2379e-08
-7.23816e-09
9.96809e-10
-1.68344e-09
4.6089e-10
-7.15148e-10
5.95039e-09
2.64375e-08
-8.0826e-12
-9.31944e-09
9.32753e-09
2.86423e-08
-2.23917e-08
2.21225e-08
1.97912e-08
-1.27212e-08
-2.71643e-09
1.51562e-08
1.52421e-10
-1.21457e-08
-4.61691e-10
-6.00449e-09
-1.83796e-09
2.16403e-09
1.45652e-09
-5.04506e-10
-1.11707e-08
1.16191e-08
5.60448e-11
3.00003e-09
-5.00975e-09
-1.12022e-08
1.07349e-08
-9.28374e-10
-1.09089e-08
-2.60993e-10
-1.14068e-08
-2.4565e-09
-1.21113e-08
2.15175e-09
7.89097e-09
5.15377e-09
-5.1738e-10
-1.18278e-08
1.18407e-08
5.47985e-10
-8.90863e-09
5.11819e-09
-1.57864e-09
2.1405e-09
-1.90914e-09
-1.30632e-08
-1.24624e-08
1.19369e-08
-1.01615e-08
-1.58198e-08
1.00673e-08
9.30272e-09
8.06295e-10
2.7344e-09
-1.20538e-08
1.15606e-08
1.66162e-09
3.88034e-09
2.67723e-10
-4.57885e-10
-1.92352e-10
-4.16122e-09
2.4929e-09
-5.39435e-10
1.50641e-10
-1.77712e-10
2.70707e-11
-2.71365e-09
1.31369e-08
2.24503e-09
2.52768e-09
2.50083e-10
-1.29666e-09
-5.9125e-10
-2.25527e-09
-2.07765e-10
1.30904e-08
1.01525e-08
-2.95794e-10
6.74616e-09
-1.2486e-09
-5.20176e-09
-9.84928e-09
-5.14694e-09
1.13641e-10
3.70008e-11
4.86564e-09
1.34565e-09
-1.72977e-08
-2.90036e-10
-7.16303e-10
-2.77967e-09
1.02915e-09
3.17146e-09
6.19477e-08
-8.56121e-11
-6.18621e-08
6.23723e-08
1.88998e-10
-6.25613e-08
-1.41073e-08
-3.1746e-10
1.44468e-08
-2.20834e-11
3.18631e-09
-1.73657e-09
2.4461e-09
1.8008e-09
-4.53854e-09
-2.59334e-10
-4.87233e-10
3.95685e-10
-8.696e-11
3.82851e-10
-2.52166e-10
1.97607e-08
1.02901e-09
-1.59241e-08
-1.11171e-10
-1.94126e-09
1.2603e-08
2.28953e-09
1.81407e-09
5.3451e-09
-2.13483e-09
-7.72323e-08
-2.41782e-08
-5.02454e-09
1.58482e-08
2.48134e-09
5.67612e-11
-2.85147e-09
-1.00488e-09
2.41641e-10
-2.28794e-10
-9.70127e-09
-3.69595e-10
1.00709e-08
-1.09103e-08
-6.56981e-09
1.07544e-08
-9.52004e-09
8.74571e-09
2.75375e-10
1.40706e-09
9.25536e-09
-9.22569e-09
-2.96643e-11
5.57669e-10
8.72777e-11
1.08668e-08
4.91335e-10
-6.8864e-10
-4.08639e-11
-1.42512e-08
-4.45909e-10
-1.38636e-08
1.27693e-08
-1.19169e-08
-6.60353e-08
6.49926e-08
1.04266e-09
2.04383e-10
-1.79133e-10
1.20994e-08
-1.8442e-10
6.7086e-12
-2.09263e-09
2.75307e-09
-3.41359e-09
-1.3468e-08
-1.6245e-09
2.57595e-09
-4.67056e-09
-1.41606e-08
1.53344e-09
5.54156e-09
9.72912e-09
-9.09943e-09
-2.06634e-10
2.2215e-11
-9.29574e-09
-1.34434e-08
1.51042e-10
-6.26948e-08
2.36317e-10
6.24584e-08
6.95324e-10
6.34274e-08
-2.23551e-10
-1.67561e-09
-1.45066e-08
1.07943e-10
-6.34081e-08
6.33002e-08
1.83422e-10
-6.29496e-08
6.27662e-08
3.06758e-10
6.17982e-08
1.50271e-10
-6.19485e-08
6.16295e-08
1.68733e-10
-8.7889e-08
8.84982e-08
-1.13826e-12
9.33929e-08
-9.30995e-08
-2.67263e-10
-8.66284e-08
-4.33379e-10
9.3352e-08
-1.82773e-10
-8.49155e-08
-7.67409e-10
9.34827e-08
1.73581e-10
-5.22167e-10
1.96146e-09
9.23587e-08
-6.93109e-08
6.21389e-08
-6.23195e-08
-6.29506e-08
6.14872e-08
1.42316e-10
-3.15575e-09
2.96262e-09
-1.42156e-08
4.22848e-11
7.13561e-11
1.13033e-09
8.69965e-09
-1.13865e-08
3.83267e-08
-3.45607e-08
-1.67808e-08
1.38152e-08
-3.23578e-11
-1.99965e-10
1.23839e-10
5.51393e-10
-1.13944e-10
2.97522e-10
4.41151e-09
1.05071e-09
-3.5436e-09
-1.33969e-10
1.70353e-10
-9.3669e-11
-2.59813e-09
1.32839e-08
2.45105e-09
-1.44242e-08
-2.62911e-09
-3.25912e-09
5.5084e-09
1.05009e-09
-2.61439e-09
1.4357e-08
-1.19106e-09
-1.60482e-09
1.60258e-09
-8.12087e-09
-1.90818e-08
-1.35176e-08
8.04803e-09
5.77206e-09
-1.91139e-10
-5.72689e-10
2.92786e-09
1.44926e-08
2.29212e-09
-1.86925e-09
-3.61675e-10
4.11965e-10
-2.2589e-10
1.59159e-08
-6.04153e-10
-1.56813e-08
2.78231e-10
-4.87241e-11
3.35575e-10
-2.68258e-10
3.39828e-09
-1.62156e-08
4.16251e-10
-1.4735e-09
-2.05635e-09
-2.28185e-09
1.5753e-08
-9.05917e-08
-1.38945e-10
9.1679e-08
-1.90367e-10
-8.91642e-08
-4.76761e-10
9.31021e-08
-2.7516e-10
-9.29126e-08
-5.34128e-10
-1.55097e-09
1.68747e-08
9.19803e-08
-1.96751e-10
2.93202e-11
-2.20883e-10
9.71931e-09
2.4384e-09
-7.20154e-09
-1.22681e-08
-5.67652e-09
8.38923e-09
1.51299e-09
-6.76891e-09
-5.98253e-09
9.05094e-09
-4.8722e-11
1.01305e-08
1.95007e-08
-1.79903e-08
3.08797e-09
-1.27818e-08
3.1186e-09
-6.99618e-08
3.92655e-09
-2.06056e-08
-1.3053e-08
-4.54682e-10
-5.92543e-09
-1.53015e-08
9.08128e-09
-1.50982e-08
3.90602e-10
3.30714e-10
-1.94136e-09
-1.67323e-08
1.71325e-08
7.08392e-09
-7.64382e-09
-4.4553e-09
1.5327e-08
-1.68044e-09
7.10388e-10
-8.03414e-10
6.09838e-11
1.19701e-08
3.31883e-09
7.09126e-08
-1.82473e-08
6.81093e-10
-1.50718e-08
-2.17515e-10
-2.5126e-10
-1.25875e-10
6.09498e-08
-6.1225e-08
-6.33788e-08
-6.31463e-08
-6.42799e-11
-2.62156e-10
-9.25862e-08
-6.04525e-08
6.24139e-08
6.51029e-08
-6.02789e-08
6.45807e-08
-6.04617e-08
6.38133e-08
-6.07289e-08
6.338e-08
9.2309e-08
2.53771e-10
-6.33869e-09
7.51253e-08
-6.54678e-08
2.73363e-11
-2.73363e-11
3.24551e-11
-3.07194e-10
1.54771e-08
-9.02736e-12
9.02736e-12
2.95588e-10
1.51727e-09
1.39115e-08
1.3445e-08
-2.71149e-09
3.71591e-09
6.67887e-09
1.75571e-09
3.44541e-10
-2.3216e-10
-2.96768e-09
1.45814e-08
1.48436e-08
-4.29109e-09
1.18201e-08
1.63755e-10
1.32301e-10
2.68463e-09
-7.7663e-10
-1.48434e-09
-5.84713e-09
-2.00179e-10
-3.7537e-10
1.53124e-08
2.27075e-10
4.62952e-11
1.43196e-08
-2.62644e-08
1.78457e-08
2.68498e-09
1.214e-09
2.50083e-09
-3.72161e-09
1.93823e-08
-1.81615e-08
-6.77718e-11
1.82469e-11
-1.44128e-09
-7.92123e-08
-7.07522e-08
1.25039e-09
-3.69772e-10
6.13695e-10
2.30124e-08
1.86108e-08
-6.4015e-09
7.53452e-11
-4.22702e-09
-2.52498e-09
2.99549e-08
1.60416e-10
1.48184e-08
7.35789e-08
3.96945e-11
5.0468e-10
-1.40004e-10
-1.97665e-10
-3.58585e-09
2.4334e-08
-1.4869e-08
8.98865e-10
-1.4197e-08
-4.40206e-11
2.04038e-08
-2.87478e-08
9.55096e-10
1.88081e-09
-2.03799e-10
)
;

boundaryField
{
    back
    {
        type            empty;
        value           nonuniform 0();
    }
    ingreso
    {
        type            calculated;
        value           nonuniform List<scalar> 
14
(
-1.54286e-08
-1.54288e-08
-1.54288e-08
-1.54288e-08
-1.54286e-08
-1.54283e-08
-1.54288e-08
-1.54288e-08
-1.54286e-08
-1.54286e-08
-1.54288e-08
-1.5428e-08
-1.5428e-08
-1.54286e-08
)
;
    }
    salida
    {
        type            calculated;
        value           nonuniform List<scalar> 2(1.0141e-07 1.14589e-07);
    }
    front
    {
        type            empty;
        value           nonuniform 0();
    }
    defaultFaces
    {
        type            calculated;
        value           uniform 0;
    }
}


// ************************************************************************* //
