/*--------------------------------*- C++ -*----------------------------------*\
  =========                 |
  \\      /  F ield         | OpenFOAM: The Open Source CFD Toolbox
   \\    /   O peration     | Website:  https://openfoam.org
    \\  /    A nd           | Version:  7
     \\/     M anipulation  |
\*---------------------------------------------------------------------------*/
FoamFile
{
    version     2.0;
    format      ascii;
    class       volVectorField;
    location    "104";
    object      U;
}
// * * * * * * * * * * * * * * * * * * * * * * * * * * * * * * * * * * * * * //

dimensions      [0 1 -1 0 0 0 0];

internalField   nonuniform List<vector> 
591
(
(0.000838073 -2.76367e-06 1.21617e-18)
(0.000834562 -2.32654e-06 -6.61471e-19)
(0.000853019 2.18859e-05 5.69794e-20)
(0.000868203 -2.73672e-05 -1.49008e-19)
(0.000856648 -1.19052e-05 2.25429e-19)
(0.000803646 -3.8085e-05 -1.39567e-19)
(0.000561581 -0.000217626 8.0612e-19)
(0.000803627 4.2388e-06 2.10768e-18)
(0.00572205 0.00251095 9.87959e-19)
(0.000818315 1.67935e-06 2.44422e-18)
(4.56015e-05 0.000159001 1.21784e-18)
(0.000939022 0.00139692 9.40692e-21)
(0.000801425 4.32175e-06 1.32266e-18)
(0.00160461 0.002405 -7.87365e-19)
(0.000803261 1.39887e-06 -4.46535e-19)
(4.06913e-05 -0.00014271 2.44058e-22)
(0.000141271 0.000667479 7.04762e-19)
(0.000817802 8.08891e-05 -4.9691e-19)
(0.00189568 0.000392198 4.7371e-19)
(0.00135899 0.00025821 -2.47076e-19)
(0.000830896 -8.96694e-06 3.73073e-19)
(0.00340068 0.00656007 -8.14453e-20)
(2.25632e-05 6.2651e-05 2.7085e-19)
(0.000835846 -2.59946e-05 -4.51525e-19)
(5.58785e-06 -1.04659e-05 3.58778e-19)
(0.000794541 4.53168e-05 0)
(9.49025e-05 0.000465662 1.59924e-19)
(0.000579087 -3.32216e-06 -1.78766e-19)
(0.00076796 4.789e-05 1.14903e-18)
(0.000805685 7.24938e-05 5.84117e-19)
(4.76244e-05 -5.87212e-06 -5.42038e-24)
(1.97625e-05 -3.76363e-05 3.52038e-19)
(2.67629e-05 -2.47303e-06 -4.64042e-20)
(3.62525e-05 -1.22566e-05 0)
(4.46494e-05 -1.28129e-05 1.13101e-18)
(0.00116954 0.000141358 1.79819e-19)
(2.23963e-05 -3.99773e-06 4.46972e-20)
(0.000823803 5.06014e-07 3.11118e-23)
(2.24249e-05 3.73982e-05 2.65929e-19)
(-9.97624e-06 -5.4804e-05 -8.52933e-19)
(0.00066137 -0.000185959 9.58662e-19)
(1.71743e-05 -4.64301e-06 4.54648e-20)
(0.000815896 2.16437e-05 -1.5768e-18)
(0.000831883 5.09253e-05 -6.90707e-19)
(1.09377e-05 -5.1412e-06 0)
(4.67268e-05 3.30738e-06 8.51546e-20)
(0.00134996 0.00450296 8.92776e-19)
(6.63678e-05 9.26161e-06 8.63301e-20)
(0.000802739 1.69728e-05 0)
(0.000395974 -0.000233178 6.76893e-19)
(0.000391547 0.000264827 5.11751e-21)
(0.000406296 2.89034e-05 -1.00341e-18)
(0.0063478 0.0109402 -7.68667e-19)
(0.00622448 0.0107953 1.52789e-20)
(0.00561459 0.0103781 1.45592e-18)
(0.000805106 5.03499e-05 0)
(5.98006e-05 2.40868e-05 0)
(0.000321283 -1.16409e-05 2.87585e-23)
(5.43099e-05 5.83674e-06 -3.46328e-19)
(0.000812014 -6.73529e-06 0)
(0.000668171 2.81319e-05 3.17433e-19)
(0.000847737 3.02609e-05 2.2078e-18)
(0.000812703 4.01501e-05 -5.3697e-19)
(0.000800055 1.1271e-05 -3.15641e-19)
(0.00171361 0.000486597 5.42401e-19)
(0.00081274 3.4391e-05 -1.14439e-18)
(0.000840228 3.86156e-05 -5.2381e-19)
(6.80545e-05 -8.30284e-06 -1.73345e-19)
(0.000691019 0.00225674 0)
(0.000846261 5.05919e-05 0)
(0.000794731 2.94757e-05 -1.39221e-18)
(3.257e-05 1.26527e-05 0)
(0.000294008 0.000261407 3.26745e-19)
(3.05781e-05 -1.49518e-05 0)
(3.27853e-05 -5.4271e-06 1.59412e-19)
(4.53681e-06 -3.2431e-05 -3.36532e-20)
(0.000805481 7.93537e-05 2.46932e-19)
(3.77301e-05 7.73301e-06 0)
(0.000814247 5.57248e-05 4.47377e-19)
(0.000783355 0.00029649 2.10651e-19)
(0.000960006 6.95574e-05 -3.97588e-20)
(3.72164e-05 1.8534e-05 -4.51691e-20)
(3.06751e-06 -9.79973e-06 0)
(0.000444922 0.00020947 1.70128e-19)
(2.62978e-06 1.52052e-05 0)
(0.000807892 4.9785e-05 -6.07846e-19)
(0.000654151 -0.000113508 0)
(5.46169e-05 -5.42429e-06 -1.74413e-19)
(6.74864e-07 -1.40828e-05 0)
(0.000837894 0.000243272 -3.41128e-19)
(1.72427e-06 -5.26747e-06 0)
(0.000434593 0.000318427 -1.35556e-23)
(0.000548395 0.000106544 0)
(0.000817606 4.47849e-05 -3.13988e-24)
(2.07091e-06 8.91055e-06 -4.21553e-20)
(0.000477738 -3.17801e-05 1.76281e-18)
(0.00101696 7.43003e-05 4.15752e-20)
(0.000776708 4.78071e-05 6.41624e-22)
(0.00074935 0.000660294 2.6941e-19)
(6.87295e-06 3.70062e-05 0)
(-7.88762e-06 -1.31856e-05 -3.12193e-19)
(-3.7433e-05 -3.90749e-06 -1.10149e-18)
(5.18291e-06 6.20096e-05 -5.96148e-19)
(0.000589947 -3.04015e-05 0)
(9.30319e-06 8.50456e-05 0)
(0.000822132 3.61621e-05 2.18096e-18)
(0.000803353 3.98486e-05 1.53372e-18)
(0.000456689 -0.000119123 0)
(3.85397e-05 0.000204968 -8.95037e-19)
(1.54422e-06 0.000147672 4.96777e-19)
(5.52732e-05 0.000386604 6.25078e-19)
(0.000312793 6.15778e-05 -9.36878e-19)
(0.000801795 1.99269e-05 1.37366e-19)
(0.000255786 -7.82364e-05 5.31014e-19)
(4.14913e-06 2.3061e-05 0)
(1.84389e-05 0.000265322 -1.09388e-18)
(0.000327483 0.000316926 -1.61655e-19)
(-1.88482e-06 -8.42422e-06 1.46502e-19)
(0.000670512 0.000803397 0)
(0.000376214 0.000379109 5.74236e-20)
(0.000827575 3.18569e-05 1.07023e-18)
(0.000799742 1.78048e-06 -2.7252e-18)
(6.55363e-06 1.82049e-05 0)
(0.000658128 -4.26943e-05 -1.12267e-19)
(0.000324838 -0.000157436 1.2427e-18)
(0.00261667 0.00081044 -3.36509e-19)
(8.56407e-06 0.00011401 -6.13082e-19)
(9.21782e-06 0.00014208 1.61943e-18)
(0.000648465 2.61228e-05 -3.89651e-20)
(5.18339e-05 -1.69624e-05 -7.49874e-19)
(0.000813145 4.08834e-05 -3.90332e-19)
(0.000699725 2.80048e-05 -4.10451e-20)
(3.09654e-05 0.00031265 -5.97015e-19)
(0.000508336 4.85118e-05 -4.93754e-19)
(3.9572e-05 -4.58662e-06 1.56091e-19)
(0.00084363 4.36919e-05 -1.08604e-18)
(0.0015284 0.000235611 -1.13639e-18)
(5.3363e-06 4.97632e-05 4.96246e-19)
(0.000814108 3.80812e-05 -5.03324e-19)
(0.000926499 0.000556886 -7.84828e-20)
(0.000150363 0.000777209 0)
(0.000606546 6.14432e-05 0)
(0.000279019 3.63966e-05 -1.6089e-18)
(5.77235e-05 5.05013e-05 -1.37359e-18)
(2.6075e-05 1.67442e-05 0)
(0.00424789 0.00740118 -1.01961e-20)
(0.00422596 0.00737272 3.1663e-20)
(0.00442813 0.00757545 -4.98651e-21)
(0.00420535 0.00773335 0)
(0.0041978 0.0075992 5.77281e-19)
(0.00424483 0.00740222 -9.20307e-20)
(0.00420915 0.00804072 4.84523e-19)
(0.00429059 0.00742371 0)
(0.00420764 0.00853342 6.16836e-19)
(0.00432714 0.00745239 2.23942e-19)
(0.00083813 2.5467e-05 -1.37186e-18)
(0.000787487 6.36705e-05 0)
(0.000209643 3.42282e-05 1.27659e-19)
(4.32256e-05 1.14725e-05 8.71515e-20)
(7.10641e-05 3.60637e-05 6.79769e-19)
(9.72103e-05 3.0136e-05 -3.41543e-19)
(8.82779e-05 -4.02435e-06 0)
(4.01095e-05 2.31025e-06 8.18055e-20)
(0.000208318 0.000117234 0)
(0.000158464 2.40516e-05 -5.24142e-20)
(0.000349517 0.000212203 -5.09096e-21)
(4.99812e-05 3.59471e-05 -4.37491e-19)
(8.1872e-05 1.77508e-05 -8.52154e-20)
(8.40586e-05 5.17727e-05 1.31147e-21)
(0.00026327 0.000357667 -6.65976e-19)
(0.000110959 0.00098967 0)
(3.76e-05 4.55841e-05 3.42935e-19)
(0.000200016 0.00173827 0)
(0.000209304 0.000243269 7.04442e-19)
(2.88003e-05 -2.81006e-06 1.11452e-19)
(0.000497181 0.000157922 -1.72244e-19)
(0.000780303 3.03171e-05 -1.92346e-18)
(3.47013e-05 -1.87346e-06 4.94585e-24)
(0.000137909 9.87938e-06 2.24511e-19)
(0.00024719 7.57568e-05 -8.99014e-20)
(0.000883994 0.000694434 3.34841e-19)
(0.000726154 0.0016347 -9.23321e-21)
(0.00039457 0.00141751 -9.37967e-21)
(0.00103262 0.00054924 0)
(8.67894e-05 -2.25319e-05 1.1183e-18)
(0.000104406 2.287e-06 -4.42798e-20)
(0.000476421 -0.000263673 -1.13605e-18)
(0.000826935 4.40043e-05 0)
(0.000173161 -2.15199e-05 3.63184e-19)
(0.000307239 0.00129616 0)
(0.00108989 0.000773168 -7.29972e-20)
(0.000826716 2.62693e-05 -1.8648e-19)
(6.24582e-05 -2.47229e-05 -2.99864e-19)
(0.000844163 0.000313978 -2.0797e-20)
(4.1622e-05 -2.10466e-05 -5.99252e-19)
(0.000228401 0.000162378 8.63606e-20)
(0.000232601 0.000302007 -3.44904e-19)
(0.000901096 0.000254518 0)
(0.000829241 5.89314e-05 0)
(0.00026812 0.00011816 1.76788e-19)
(0.00023144 -2.33429e-05 8.63465e-24)
(0.000185379 0.000194937 0)
(0.000308496 0.00064321 -5.55519e-21)
(0.000366241 -3.79085e-05 0)
(0.000383499 0.000598152 0)
(0.000102687 7.05972e-05 -1.34621e-21)
(0.000810512 3.07768e-05 -9.56001e-19)
(0.000804971 1.63227e-05 7.9399e-19)
(0.00012182 4.40516e-05 -1.49802e-19)
(0.000976939 0.000145928 8.50048e-20)
(0.000841757 3.66933e-05 3.33517e-19)
(0.000823446 3.67699e-05 -2.93963e-19)
(0.00103574 0.000422146 0)
(0.000451812 0.000105325 6.24204e-19)
(0.000917892 0.000324626 2.09061e-20)
(0.000596571 0.000149319 0)
(0.000276482 0.000442165 4.09524e-19)
(0.000263728 0.000205601 -8.43911e-20)
(0.00110736 0.000386085 -7.81816e-19)
(0.000644926 0.00010245 -1.79221e-19)
(0.000825125 7.79574e-05 -7.45752e-21)
(0.000846559 2.13367e-05 9.39296e-20)
(4.62156e-05 -8.46728e-05 -1.98054e-18)
(0.000747654 0.000379328 2.19163e-19)
(0.000690725 7.05215e-05 2.3056e-20)
(0.000719207 0.000278766 1.62713e-23)
(0.000742669 0.00046213 -4.09539e-19)
(0.000855547 1.33081e-05 9.0672e-20)
(6.68809e-05 6.93986e-05 0)
(0.000665011 0.000425792 -4.65767e-20)
(0.000181025 7.96367e-05 0)
(0.000374251 0.000501216 -2.64763e-19)
(0.000313563 0.000154065 0)
(0.000688825 0.000205584 3.55092e-19)
(0.000662826 0.000259466 -4.37093e-20)
(7.85348e-05 9.48555e-05 6.18931e-19)
(0.00088915 9.76405e-05 -1.63822e-18)
(5.02744e-05 1.655e-05 2.57094e-19)
(0.000901901 7.39819e-05 -1.68587e-18)
(0.000852282 9.13853e-05 1.63023e-19)
(0.000816075 3.84519e-05 1.91191e-18)
(0.000822851 3.24728e-05 -1.32794e-19)
(0.000749576 7.02206e-05 0)
(0.000805027 1.88338e-05 8.98353e-19)
(0.000976239 0.0002399 -4.26929e-19)
(0.00079317 0.000102186 -4.83551e-19)
(0.000784973 0.000238751 -8.80881e-20)
(0.000190851 -0.000201413 -2.07441e-18)
(0.000768549 8.29376e-05 8.87192e-19)
(0.000645553 0.000590531 0)
(5.00937e-05 -0.000123126 0)
(0.00123163 0.000477925 4.97132e-19)
(0.000534852 -5.36662e-05 -3.27002e-18)
(0.00135737 0.00041964 5.76227e-19)
(0.00125622 0.000720966 -6.38815e-20)
(0.000817907 3.51832e-05 -2.12669e-19)
(0.000845543 6.64281e-05 -1.42775e-18)
(0.000813967 2.74317e-05 1.58621e-18)
(0.000814095 1.93088e-05 9.77682e-20)
(0.000677536 0.00035324 -4.4025e-20)
(9.80407e-05 0.000110585 9.90463e-24)
(0.000769635 -2.64067e-05 2.64861e-19)
(0.00020537 -0.000255659 -7.30815e-19)
(0.000645043 0.000181532 0)
(0.00073065 5.17022e-05 9.89985e-20)
(0.000726411 1.00007e-05 -3.80656e-19)
(0.000399279 0.000160496 3.93229e-20)
(0.000814634 0.000510708 -1.65421e-19)
(0.000143492 6.1116e-05 4.36629e-25)
(0.000823223 0.000412519 0)
(0.000992759 0.000315631 4.15607e-20)
(0.000772424 -5.67727e-05 -6.15814e-19)
(0.000357987 8.93794e-05 4.97659e-19)
(0.000906395 0.000427763 0)
(4.31112e-05 2.57082e-05 1.3366e-19)
(0.000498211 0.000259654 2.13877e-19)
(0.00055618 -0.000174758 -7.09129e-19)
(8.39616e-05 -0.000176981 -1.0558e-18)
(0.000827293 4.25746e-05 -4.865e-19)
(0.000757025 -5.67086e-05 -1.94591e-19)
(0.000553203 0.000728146 -1.17404e-18)
(0.000857227 4.52307e-05 -6.73714e-20)
(0.000551189 -7.30764e-06 1.28254e-18)
(0.000722651 9.9399e-05 2.27687e-20)
(0.000548011 0.000202093 -1.65628e-19)
(2.1724e-05 -1.77829e-05 -8.75512e-20)
(0.000144418 -6.54186e-05 2.40505e-18)
(1.09378e-05 4.92173e-07 -1.94785e-19)
(0.000847004 0.00012038 3.63602e-19)
(0.00068674 0.000134542 0)
(0.000164898 -0.000118454 -1.04781e-18)
(0.000107781 -3.03986e-05 3.12665e-19)
(8.70956e-05 -4.28057e-05 1.21376e-23)
(0.000814574 0.000106005 -3.19138e-19)
(0.000141761 -2.70466e-05 0)
(0.000600672 0.000236924 0)
(0.000111385 0.000319698 -3.62738e-19)
(0.000871573 0.000102002 2.10766e-18)
(8.88448e-06 6.22159e-07 0)
(0.00089154 5.12527e-05 0)
(3.26439e-05 -2.42209e-05 0)
(0.000815145 4.91301e-05 -4.46626e-21)
(0.000780182 -2.4084e-05 0)
(0.00426101 0.00740795 8.07114e-20)
(0.00436303 0.00748844 1.43352e-19)
(0.000842252 -2.10815e-05 0)
(0.000801419 -2.95962e-05 8.11475e-19)
(0.000151071 0.000112148 1.49158e-19)
(0.000865659 6.6406e-05 8.08224e-19)
(0.000125579 8.96863e-05 2.34311e-20)
(0.000796092 -1.71172e-05 6.23916e-19)
(2.92764e-05 7.33515e-06 0)
(2.05015e-05 -1.06507e-05 -4.48304e-20)
(0.000910014 4.65509e-05 -4.86351e-19)
(2.21913e-05 -2.68227e-05 -6.69542e-19)
(0.000773776 0.000128287 -4.23068e-20)
(0.000169476 0.000149823 -1.88036e-19)
(0.000813303 3.25122e-05 0)
(0.00468253 0.00815354 9.00666e-22)
(0.000197075 0.000791969 3.33354e-19)
(9.16601e-05 -7.01638e-05 -9.14171e-19)
(4.64056e-05 -3.43199e-05 -1.16834e-18)
(0.000579002 1.29467e-05 1.89523e-20)
(0.000586968 0.00040261 0)
(0.000427188 0.00044602 -2.56249e-19)
(6.01398e-05 -6.50944e-05 1.1833e-18)
(0.000542094 -1.9634e-06 7.67414e-20)
(3.50719e-05 7.11859e-07 4.06934e-19)
(0.000730399 -3.90355e-05 1.17111e-18)
(0.000812891 3.22018e-05 -6.06202e-19)
(4.39458e-05 -5.31267e-05 1.70885e-18)
(0.000840799 -4.65971e-05 -6.39628e-24)
(0.000555383 5.92496e-06 -3.74682e-20)
(0.000880419 7.22519e-05 0)
(0.000847438 5.48026e-05 0)
(0.0059149 0.00724366 2.59986e-19)
(1.10513e-05 -3.11473e-06 -1.19553e-19)
(8.56582e-05 -0.000119207 7.72768e-19)
(0.000742569 0.000113852 -6.96152e-19)
(1.35441e-05 3.16353e-07 2.01478e-19)
(0.000660944 -3.55118e-05 -7.23498e-19)
(0.00075954 3.55895e-05 1.55739e-18)
(0.000719344 0.000156423 -3.55301e-19)
(0.000807225 -1.12913e-05 3.60712e-19)
(5.88971e-05 -3.75654e-05 1.11555e-18)
(0.00080193 6.54842e-06 -3.22559e-19)
(0.000877245 3.41211e-05 0)
(0.000554004 0.00030072 4.20866e-20)
(0.000870133 4.84155e-05 -9.47463e-19)
(1.18555e-05 2.97343e-06 9.11255e-19)
(0.000863587 3.93259e-05 9.65911e-19)
(0.000864832 2.9363e-05 -9.64154e-19)
(0.00076955 2.5676e-06 -5.68929e-19)
(0.000557219 -8.62267e-05 -5.25422e-19)
(0.00433009 0.00745463 2.47047e-19)
(0.0042226 0.00752791 -2.53676e-19)
(0.00422023 0.00758575 2.66964e-19)
(0.00425661 0.00741169 1.97998e-19)
(0.000845148 -3.94896e-05 1.44212e-19)
(0.00447702 0.00751515 0)
(0.00440461 0.00751917 -3.86824e-19)
(1.9423e-05 -1.54334e-07 -9.9785e-19)
(0.00416991 0.0074683 -6.33718e-20)
(0.00414542 0.00743159 -2.2154e-19)
(0.00602922 0.0106048 0)
(0.00654021 0.0111867 3.71529e-20)
(0.00600914 0.0105745 0)
(0.00655591 0.0112103 1.30962e-19)
(0.00599659 0.0105985 2.69686e-19)
(0.00659261 0.0112272 1.24715e-20)
(0.0059355 0.0106112 -7.76809e-19)
(0.00662288 0.0111462 8.16321e-21)
(0.00390341 0.00919715 -1.90802e-19)
(0.00418611 0.00748728 3.90008e-21)
(0.00423709 0.00755124 7.93675e-20)
(0.00414992 0.00743391 4.12086e-20)
(0.000898626 0.000197431 4.46557e-20)
(6.07195e-06 8.3548e-07 0)
(0.000731799 -9.66929e-05 0)
(0.000656974 5.82805e-05 0)
(0.00244676 0.00111917 4.23492e-21)
(0.000759078 -3.0089e-05 1.72507e-19)
(3.38948e-05 3.95114e-06 4.53883e-20)
(4.46863e-06 -1.99939e-05 1.65231e-18)
(0.000865205 2.29059e-06 0)
(2.33704e-05 1.00438e-05 -1.91654e-19)
(0.000138995 0.000213795 0)
(9.67527e-06 -7.57137e-07 0)
(7.3702e-06 -7.9962e-07 0)
(0.000840797 0.000150569 1.13731e-20)
(0.000810999 -1.78062e-05 1.79541e-19)
(3.87703e-05 0.000253237 -8.4035e-24)
(0.000156073 0.000264927 -1.84135e-18)
(0.000614811 0.000325432 -8.56709e-20)
(0.000905199 0.00011561 6.01836e-19)
(0.00058438 -0.000138572 6.74746e-19)
(0.000358097 0.00111727 0)
(0.000483775 0.000575332 2.7145e-18)
(8.77295e-05 0.000135932 -1.80253e-18)
(1.29865e-05 -3.22022e-07 0)
(0.000822937 -6.44884e-05 3.64041e-20)
(1.31887e-05 3.00858e-05 1.64388e-18)
(0.000892726 3.64203e-05 2.71018e-19)
(-3.17857e-05 8.99623e-05 3.81009e-18)
(0.000924663 4.24118e-05 -2.68887e-19)
(0.00133193 0.000157173 7.47227e-19)
(2.70615e-05 -9.20053e-06 8.2539e-20)
(2.88602e-05 1.88374e-06 -8.58781e-19)
(5.06892e-05 0.000132232 0)
(0.000922548 9.11285e-05 5.98177e-19)
(0.000500954 0.000366018 2.37069e-19)
(0.000603455 1.71228e-05 -3.88893e-20)
(0.000791133 8.44641e-06 2.57209e-19)
(0.00072696 -0.000129191 0)
(0.00632095 0.0108951 -1.68084e-19)
(0.0063787 0.0109729 4.05895e-19)
(0.00615999 0.0107298 -6.18516e-19)
(0.00650121 0.0111319 -8.0996e-20)
(3.09947e-05 0.000110034 8.00258e-19)
(0.000932131 6.21863e-05 1.44313e-22)
(0.00641128 0.0110054 -3.8652e-19)
(0.00628193 0.0108448 5.48539e-19)
(0.00608009 0.0106716 -4.16853e-19)
(0.00652173 0.0111644 -6.81553e-20)
(7.84212e-05 0.000486611 -2.01766e-20)
(3.9226e-05 -0.000186842 -7.92656e-19)
(0.000631583 -1.91044e-05 -7.66839e-19)
(0.000733838 0.000219372 0)
(0.000800305 2.24955e-07 0)
(0.000190525 0.000383945 3.36199e-19)
(0.000604772 0.000510919 -5.41699e-19)
(4.47194e-06 -7.94312e-07 1.78328e-19)
(0.00020042 0.000465871 -7.38184e-19)
(0.00102529 0.000980757 -1.12669e-19)
(0.000757583 0.000166857 0)
(0.000798463 0.000184759 1.30973e-19)
(0.00634812 0.00588365 1.13209e-18)
(0.000734994 0.00113111 8.26461e-20)
(3.43483e-05 3.3115e-05 -7.44415e-20)
(0.000808201 1.13622e-05 0)
(0.000869125 2.13536e-05 -3.56782e-20)
(2.75408e-05 1.77586e-06 -1.96668e-19)
(2.41118e-05 3.08257e-06 1.92932e-19)
(0.000835041 1.13338e-05 5.37006e-19)
(0.000989566 0.000114824 6.57957e-19)
(0.000529746 4.86334e-05 0)
(0.000220338 -0.000258062 -3.98189e-19)
(0.000922274 0.000143036 3.89437e-19)
(5.36069e-07 -4.21158e-05 2.0292e-19)
(0.00145491 0.000444334 -2.58e-18)
(0.00055343 -1.48438e-05 0)
(0.000803572 0.000141842 3.75329e-19)
(9.67525e-05 0.000384203 0)
(0.00118901 0.00816148 4.62038e-19)
(0.000499046 0.00049658 -1.22418e-18)
(0.000541088 0.00101848 -1.83704e-19)
(0.000890572 1.23691e-05 -1.46005e-19)
(1.00897e-05 2.12004e-05 0)
(0.000965253 7.87431e-05 6.1137e-19)
(0.00410603 0.00739487 8.14444e-20)
(0.00417074 0.00747278 4.73111e-20)
(0.00450078 0.00751789 4.54129e-19)
(0.00444607 0.00754349 -3.29428e-19)
(0.00647513 0.0111089 8.10731e-20)
(0.00391477 0.00714592 -9.50347e-22)
(0.0055074 0.00780061 -5.64798e-19)
(0.00409779 0.00737145 5.21896e-21)
(0.00518881 0.00786044 5.11734e-19)
(0.00407956 0.0073398 -4.87402e-20)
(0.0049542 0.00772001 0)
(0.00408477 0.00736406 -8.56826e-20)
(0.00474309 0.00759087 4.9257e-19)
(0.00409801 0.00737565 8.75336e-20)
(0.00457585 0.00753047 0)
(0.00428455 0.00742217 1.39764e-19)
(0.00423844 0.00759731 5.80712e-19)
(0.0044685 0.00752902 -5.55535e-19)
(0.0043888 0.00750668 3.71421e-19)
(0.00422717 0.00752382 2.87905e-19)
(0.00643046 0.0110422 -4.97769e-21)
(0.00411746 0.00740097 3.11658e-20)
(0.00645861 0.0110721 0)
(1.94258e-05 4.11694e-06 -1.89792e-19)
(0.00200234 0.0065474 2.28161e-19)
(0.000838284 -6.18176e-05 1.09596e-19)
(0.000851305 -2.35135e-07 0)
(5.60603e-07 3.02822e-07 -3.98966e-19)
(-3.74474e-05 -6.83221e-05 6.90981e-19)
(2.27766e-05 5.06797e-05 2.08831e-18)
(0.00084132 0.00018869 -9.00344e-20)
(0.000801711 8.28354e-06 7.06134e-19)
(-8.52279e-08 2.95609e-07 3.09874e-19)
(1.1995e-05 -2.64642e-05 -1.84493e-18)
(0.000763578 2.65276e-05 1.63095e-19)
(0.000874872 0.000126243 -3.07869e-20)
(0.000801101 -6.80377e-06 1.48077e-19)
(0.000437516 0.000678468 0)
(-1.33016e-06 -0.000128661 1.15094e-18)
(0.000877262 -2.18644e-06 1.52478e-19)
(1.74005e-05 2.03115e-05 0)
(0.000120639 0.000552168 -6.31098e-19)
(0.000615279 0.000582931 1.31756e-18)
(0.000335765 0.000757979 0)
(0.000802174 -1.40046e-05 0)
(0.000801854 3.13173e-06 1.17686e-18)
(1.43967e-05 4.33276e-05 -3.51377e-18)
(1.32759e-05 5.2324e-06 3.7349e-19)
(0.000116512 0.000134757 0)
(3.17919e-05 -3.76934e-05 0)
(5.81332e-05 0.000104602 2.00931e-19)
(0.000944387 0.000190536 3.50299e-19)
(0.000801574 1.51541e-05 -1.3887e-18)
(2.00944e-05 2.8626e-05 0)
(0.000404503 2.07285e-06 -6.04581e-20)
(0.000799409 3.52106e-05 -1.56297e-19)
(0.000851876 5.04206e-05 1.06519e-18)
(0.000251953 0.00054258 6.32053e-19)
(0.000885849 0.000158326 0)
(1.19522e-05 -1.83787e-05 5.38416e-19)
(1.11711e-06 -1.57956e-06 -3.19849e-19)
(0.00093809 3.53537e-05 0)
(0.00104962 0.00227137 0)
(0.000899365 3.81605e-06 0)
(0.0010091 0.000209285 4.27011e-19)
(0.000818969 -3.73754e-05 -2.84172e-19)
(0.000945095 0.000114777 -6.8451e-19)
(0.000801247 3.73455e-06 0)
(3.96325e-05 6.17179e-05 -1.71508e-19)
(0.00017477 0.00032129 1.08082e-18)
(0.000801194 1.38175e-05 -2.5506e-23)
(0.00111014 0.000208823 -6.68441e-19)
(0.00108772 0.000129734 0)
(1.70368e-06 3.34511e-06 2.50938e-19)
(1.3166e-05 -1.1644e-05 -1.94245e-19)
(0.000549614 4.91796e-05 6.94786e-21)
(-1.10929e-05 -5.51343e-05 0)
(0.00107863 0.000257541 9.49587e-19)
(0.0050288 0.00974823 -2.82869e-19)
(0.00312161 0.00961664 1.27238e-18)
(1.0691e-05 -8.88936e-05 -1.91251e-19)
(3.22225e-05 -6.90043e-05 1.85872e-18)
(0.00119237 0.00025994 1.67283e-19)
(0.00133206 0.00107534 2.34024e-19)
(0.000810525 3.66354e-06 -7.36795e-19)
(0.000200689 0.000948272 -2.38186e-19)
(0.000819664 0.000946874 -2.18523e-19)
(0.000800392 -1.93673e-06 0)
(8.14546e-05 0.000607396 0)
(9.41801e-05 0.000275169 -3.48616e-23)
(0.000720497 -4.82484e-05 -1.6727e-23)
(0.000827792 6.95625e-05 1.5255e-19)
(0.00263309 0.00206812 -1.23117e-18)
(0.00176085 0.00923811 -1.17186e-19)
(0.000833912 7.37173e-05 4.91974e-19)
(0.00631725 0.0040536 -1.76228e-19)
(0.0067208 0.011557 -1.36603e-20)
(0.00473401 0.00784367 4.93518e-21)
(0.000806214 1.35995e-05 -2.16567e-18)
(0.000844259 -5.56512e-07 8.09585e-24)
(4.5775e-06 -4.84278e-06 -3.47893e-19)
(4.46932e-05 8.15634e-05 -3.49161e-19)
(6.11682e-05 0.000258105 8.75043e-19)
(8.30894e-06 1.30444e-05 4.90235e-19)
(8.98175e-05 0.000220848 3.69653e-19)
(0.000818792 1.40411e-05 0)
(0.00534823 0.00949236 1.94915e-20)
(0.00154918 0.000639764 -2.61127e-20)
(0.000819081 4.10429e-05 3.60049e-19)
(1.11742e-05 -6.95895e-05 0)
(0.00184884 0.000749977 5.45875e-19)
(6.77914e-06 5.44359e-06 -2.70061e-19)
(2.98711e-05 2.42325e-05 9.71484e-20)
(0.00133638 0.00139883 6.3652e-19)
(0.000739995 4.98197e-05 1.83041e-19)
(1.25323e-06 -5.78142e-07 -1.7014e-19)
(0.00206589 0.00156359 -1.05559e-18)
(0.000126861 0.000169477 -8.18518e-19)
(0.00392008 0.00848877 -1.09077e-18)
(2.78976e-06 8.44931e-07 8.81123e-20)
(9.17092e-05 -3.23518e-05 -1.25814e-18)
(3.20981e-05 -5.25043e-05 4.05496e-20)
(0.00153346 0.000988886 0)
(0.00104414 0.000142289 -3.99555e-22)
(0.000455962 0.000845358 -4.01963e-20)
(0.000803562 2.75687e-05 -2.33996e-19)
(8.68576e-05 0.000175936 7.35842e-19)
(1.66872e-05 -5.10584e-05 4.03849e-19)
(1.56641e-05 1.25312e-05 -9.46775e-20)
(2.7837e-05 8.31725e-05 -3.20183e-19)
(0.000216125 -0.000154996 -5.45677e-19)
(0.00325163 0.00346835 2.893e-21)
)
;

boundaryField
{
    back
    {
        type            empty;
    }
    ingreso
    {
        type            fixedValue;
        value           uniform (0.0008 0 0);
    }
    salida
    {
        type            zeroGradient;
    }
    front
    {
        type            empty;
    }
    defaultFaces
    {
        type            noSlip;
    }
}


// ************************************************************************* //
