/*--------------------------------*- C++ -*----------------------------------*\
  =========                 |
  \\      /  F ield         | OpenFOAM: The Open Source CFD Toolbox
   \\    /   O peration     | Website:  https://openfoam.org
    \\  /    A nd           | Version:  7
     \\/     M anipulation  |
\*---------------------------------------------------------------------------*/
FoamFile
{
    version     2.0;
    format      ascii;
    class       volScalarField;
    location    "85";
    object      p;
}
// * * * * * * * * * * * * * * * * * * * * * * * * * * * * * * * * * * * * * //

dimensions      [0 2 -2 0 0 0 0];

internalField   nonuniform List<scalar> 
591
(
0.000123848
0.000123865
0.000123868
0.000123819
0.000123822
0.000123892
0.000123883
0.000123855
0.000116965
0.000123875
0.000124058
0.000122802
0.000123861
0.000119697
0.000123855
0.000123899
0.000123846
0.000123901
0.000121926
0.000123235
0.000123837
-3.52597e-06
0.000124054
0.000123839
0.00012401
0.000123861
0.00012397
0.000123971
0.000123874
0.000123882
0.00012403
0.000124005
0.000124024
0.000124024
0.000124025
0.000123349
0.000124021
0.00012384
0.000124048
0.000123965
0.000123922
0.000124017
0.000123869
0.000123892
0.000124014
0.000124035
0.000119201
0.000124039
0.000123873
0.00012399
0.000123988
0.000124018
2.39398e-05
3.05851e-05
4.78339e-05
0.000123866
0.000124043
0.000124034
0.000124036
0.000123847
0.000123935
0.000123865
0.000123862
0.000123912
0.000122537
0.000123865
0.000123868
0.000124033
0.000120695
0.000123879
0.000123873
0.00012404
0.000124014
0.000124019
0.000124024
0.000124001
0.000123842
0.000124037
0.000123844
0.000123782
0.00012362
0.000124042
0.000124001
0.000123985
0.000124049
0.000123855
0.000123943
0.000124032
0.000123994
0.000123746
0.000124006
0.000123957
0.00012397
0.000123847
0.000124047
0.000124003
0.00012355
0.000123449
0.000123617
0.000124053
0.000123961
0.000123879
0.000124059
0.000123815
0.000124059
0.000123866
0.000123863
0.000124006
0.000124052
0.000124055
0.000123945
0.000124031
0.00012388
0.000124034
0.000124051
0.000124035
0.00012399
0.000123981
0.000123551
0.000123957
0.000123866
0.000123859
0.000123949
0.000123845
0.000124019
0.00012017
0.000124059
0.000124036
0.000123617
0.000124026
0.000123856
0.000123542
0.000123996
0.00012399
0.000124029
0.000123871
0.000122598
0.000124056
0.000123858
0.000123545
0.000123613
0.000123955
0.000124041
0.000124049
0.000124043
7.61446e-06
3.67734e-06
2.07044e-06
3.81549e-05
3.66952e-05
5.65947e-06
3.83063e-05
1.57369e-05
3.72884e-05
1.78035e-05
0.000123866
0.000123857
0.000124047
0.000124039
0.000124046
0.000124045
0.000124037
0.000124033
0.000124047
0.000124045
0.000124011
0.000124047
0.000124042
0.000124049
0.000123991
0.000123363
0.000124049
0.000122096
0.000124032
0.000124028
0.000123979
0.000123875
0.000124029
0.000124044
0.000124044
0.000123461
0.000122444
0.000123019
0.000123412
0.000124033
0.00012404
0.000123943
0.000123836
0.000124036
0.000122939
0.000123269
0.000123837
0.000124027
0.000123724
0.00012402
0.000124041
0.000124016
0.000123692
0.000123827
0.000124038
0.000124043
0.000124043
0.000123843
0.000124025
0.000123839
0.000124052
0.000123859
0.000123859
0.000124048
0.000123652
0.000123828
0.000123869
0.000123509
0.000124001
0.000123655
0.000123943
0.000123958
0.00012403
0.000123422
0.000123931
0.000123821
0.000123821
0.000124001
0.000123764
0.000123916
0.000123831
0.000123744
0.000123813
0.000124052
0.000123809
0.00012405
0.000123902
0.000124028
0.000123873
0.000123875
0.000124055
0.000123762
0.000124041
0.000123752
0.0001238
0.000123864
0.000123843
0.000123881
0.000123867
0.000123637
0.00012384
0.000123794
0.000124008
0.000123859
0.000123715
0.000123996
0.000123264
0.000123826
0.000123156
0.000123041
0.00012385
0.000123815
0.000123853
0.000123849
0.000123822
0.000124054
0.000123896
0.000123975
0.000123909
0.0001239
0.000123913
0.000124007
0.000123657
0.000124049
0.000123693
0.000123582
0.000123884
0.000124027
0.000123605
0.000124044
0.000123954
0.000123971
0.000123998
0.000123875
0.000123849
0.000123684
0.000123809
0.000123844
0.000123891
0.00012395
0.000124014
0.000124032
0.000124037
0.000123794
0.000123901
0.000124026
0.000124032
0.000124026
0.000123818
0.00012404
0.000123915
0.000124025
0.00012378
0.000124039
0.000123768
0.000124016
0.000123905
0.000123849
1.16382e-05
2.1908e-05
0.000123792
0.000123872
0.000124052
0.0001238
0.000124052
0.000123882
0.000124039
0.000124016
0.00012375
0.00012401
0.00012384
0.000124049
0.000123874
-2.09783e-07
0.000123744
0.000124021
0.000124017
0.00012371
0.000123866
0.000123908
0.000124011
0.000123766
0.000124033
0.000123916
0.000123866
0.000124009
0.000123814
0.00012374
0.000123776
0.000123876
4.74744e-05
0.000124027
0.000124008
0.000123865
0.000124034
0.000123944
0.000123887
0.00012387
0.000123855
0.00012402
0.000123882
0.000123788
0.000123917
0.000123793
0.000124033
0.0001238
0.000123858
0.000123894
0.000123978
1.98682e-05
2.73042e-05
3.42911e-05
9.63584e-06
0.000123839
3.30512e-05
2.60111e-05
0.00012403
1.90688e-05
1.70251e-05
3.81801e-05
7.57326e-06
3.99317e-05
5.6024e-06
4.08256e-05
3.68681e-06
4.28075e-05
1.87451e-06
3.64017e-05
2.31895e-05
2.94386e-05
1.49878e-05
0.000123723
0.000124041
0.000123908
0.000123917
0.000120867
0.000123959
0.000124036
0.000124006
0.000123806
0.000124042
0.000124046
0.000124022
0.000124018
0.000123782
0.000123856
0.000124029
0.000124035
0.000123872
0.000123738
0.000123817
0.000123378
0.00012383
0.000124057
0.000124025
0.000123867
0.000124049
0.000123711
0.000123897
0.00012367
0.000122825
0.00012402
0.000124032
0.000124056
0.000123725
0.000123916
0.000123669
0.000123881
0.000123872
2.60464e-05
2.18726e-05
3.30308e-05
1.16143e-05
0.000124059
0.000123718
1.98149e-05
2.82532e-05
3.55973e-05
9.58461e-06
0.000123879
0.000123967
0.000123826
0.000123835
0.000123857
0.000123996
0.000123787
0.000124016
0.000123962
0.000123072
0.000123839
0.000123805
5.93604e-05
0.000123198
0.000124047
0.000123851
0.000123743
0.000124035
0.000124038
0.000123831
0.000123631
0.000123861
0.000123916
0.000123715
0.000123991
0.000122874
0.000123791
0.000123813
0.000124005
0.000100858
0.000123852
0.000123458
0.000123778
0.000124047
0.000123679
1.08922e-05
2.11086e-05
3.53625e-05
2.8203e-05
1.36576e-05
5.35981e-08
4.20753e-05
2.68818e-06
4.01524e-05
4.75971e-06
3.9411e-05
6.81191e-06
3.86186e-05
8.85403e-06
3.72848e-05
1.36695e-05
3.17227e-05
3.05867e-05
2.39351e-05
2.5257e-05
1.77605e-05
1.2934e-05
1.5703e-05
0.000124041
0.000102386
0.000123839
0.000123769
0.000124044
0.000123933
0.000124051
0.000123767
0.000123894
0.000124011
0.000124007
0.000124014
0.000123766
0.000123862
0.000123774
0.00012397
0.000123799
0.000124045
0.000123919
0.000123749
0.000123755
0.000123873
0.000123866
0.000124052
0.000124042
0.000124054
0.000124011
0.000124056
0.000123682
0.000123861
0.000124047
0.000123807
0.000123937
0.000123867
0.000123914
0.000123749
0.00012401
0.000124009
0.000123323
0.000121341
0.00012305
0.000123596
0.000123861
0.000123692
0.000123873
0.000124052
0.000124019
0.000123867
0.000123483
0.000123461
0.000124046
0.000124013
0.000123883
0.000123977
0.000123522
5.83052e-05
4.01143e-05
0.000123983
0.000124
0.000123364
0.000122717
0.000123848
0.000123599
0.000123346
0.000123857
0.000123772
0.000124039
0.00012389
0.000123921
0.000118978
5.44658e-05
0.00012389
8.12367e-05
1.86094e-06
-3.81677e-07
0.000123857
0.000123826
0.000124012
0.000124054
0.000124046
0.000124045
0.000124049
0.000123843
-2.30766e-06
0.000122797
0.000123883
0.000123989
0.000121984
0.000124044
0.000124045
0.000122256
0.00012396
0.000124013
0.000121661
0.000124051
7.63274e-05
0.000124043
0.000123726
0.000124005
0.000122345
0.00012357
0.000123638
0.000123892
0.000124054
0.000123997
0.000124044
0.000124056
0.000123855
0.000116146
)
;

boundaryField
{
    back
    {
        type            empty;
    }
    ingreso
    {
        type            zeroGradient;
    }
    salida
    {
        type            fixedValue;
        value           uniform 0;
    }
    front
    {
        type            empty;
    }
    defaultFaces
    {
        type            zeroGradient;
    }
}


// ************************************************************************* //
