/*--------------------------------*- C++ -*----------------------------------*\
  =========                 |
  \\      /  F ield         | OpenFOAM: The Open Source CFD Toolbox
   \\    /   O peration     | Website:  https://openfoam.org
    \\  /    A nd           | Version:  7
     \\/     M anipulation  |
\*---------------------------------------------------------------------------*/
FoamFile
{
    version     2.0;
    format      ascii;
    class       surfaceScalarField;
    location    "85";
    object      phi;
}
// * * * * * * * * * * * * * * * * * * * * * * * * * * * * * * * * * * * * * //

dimensions      [0 3 -1 0 0 0 0];

internalField   nonuniform List<scalar> 
1111
(
6.84029e-09
1.30417e-08
-1.60073e-08
-3.87464e-09
6.81867e-09
-1.18176e-08
1.18393e-08
-1.47522e-08
5.58114e-09
8.96982e-09
2.01258e-10
7.81718e-10
-8.98493e-10
-1.43431e-08
1.44599e-08
-1.42927e-08
1.40564e-08
1.01796e-09
-1.6397e-09
1.4911e-08
2.15727e-09
-3.1367e-09
9.58768e-09
-9.87636e-09
3.42537e-09
-6.71602e-09
-1.26157e-08
1.26005e-08
6.73122e-09
-5.03348e-08
-2.60254e-08
7.63602e-08
-8.13277e-09
7.68535e-09
7.26609e-09
3.37836e-09
3.60077e-10
-3.46016e-09
-2.78277e-10
1.58346e-08
-1.61967e-08
-2.31823e-08
2.35444e-08
-9.6609e-09
-7.89406e-09
8.79999e-09
8.75497e-09
-3.55375e-08
1.76862e-08
-3.23045e-08
5.01559e-08
9.50638e-09
-1.96345e-09
-1.42589e-08
-7.88493e-10
1.71083e-09
-3.20568e-09
2.28334e-09
-3.90015e-09
1.33452e-08
1.96321e-09
-1.14082e-08
8.81913e-09
-2.61418e-09
-1.50463e-08
8.84135e-09
3.73798e-08
-3.00596e-08
-7.32021e-09
-1.94534e-08
3.82983e-10
1.72423e-08
1.82814e-09
-1.01823e-09
4.21756e-09
-1.78581e-08
1.46588e-08
-6.12219e-08
-3.96256e-09
6.51845e-08
1.42474e-10
-1.18856e-09
-3.38297e-10
1.38438e-09
-1.68481e-09
-1.36261e-08
-1.05726e-10
-2.58536e-10
2.04431e-10
1.5983e-10
-1.0327e-08
-8.44804e-09
1.29585e-08
5.81657e-09
6.86255e-10
-2.12456e-09
-8.32232e-09
9.76063e-09
8.46952e-09
8.14936e-10
-9.49335e-09
2.08892e-10
-2.8759e-09
-7.95888e-09
1.10335e-08
-1.98746e-10
1.14032e-08
-9.24246e-10
-1.65983e-09
-8.57136e-10
8.54951e-10
1.17034e-11
-9.51898e-12
-1.32424e-10
7.29997e-10
2.6769e-10
-8.65262e-10
-4.71104e-10
-3.92157e-11
5.04094e-10
6.22536e-12
-3.03687e-11
-8.36176e-10
1.10663e-10
7.55882e-10
-9.27766e-11
-7.94728e-10
9.28681e-10
-1.84357e-08
-1.94647e-09
-3.88876e-10
4.27927e-11
-1.2502e-10
1.33897e-08
-1.32411e-08
4.06896e-09
-3.68937e-10
5.68095e-10
3.40405e-10
-5.39563e-10
-9.62712e-11
-1.6264e-09
1.32421e-09
3.98461e-10
-2.03754e-09
1.0472e-08
-1.15712e-08
-2.79481e-10
-1.59965e-10
5.05689e-11
-8.76344e-09
1.03976e-08
-9.76689e-09
1.22193e-08
-1.71474e-08
4.65524e-09
2.72897e-10
5.96921e-11
-1.60058e-10
-1.79115e-10
1.81814e-10
7.89237e-10
-1.161e-10
-5.95312e-08
7.4229e-08
-1.46978e-08
1.04153e-09
-2.55678e-10
-1.17082e-09
3.84976e-10
1.14863e-09
1.03133e-08
-1.37177e-08
2.2558e-09
-1.65164e-09
7.61996e-09
-8.91263e-09
2.9443e-09
-6.6759e-09
5.65585e-09
5.6386e-09
-4.61855e-09
-7.56634e-09
-1.78013e-09
1.79302e-09
7.55345e-09
-1.80926e-10
-9.09192e-08
9.13048e-08
-2.04655e-10
-2.55883e-10
-8.97541e-08
9.01638e-08
-1.5375e-10
8.30801e-08
-1.49366e-09
1.09971e-10
-8.16964e-08
-2.93005e-09
-4.18966e-10
6.68385e-10
8.41054e-10
-4.67914e-10
3.9384e-09
-1.19634e-09
3.43221e-09
-6.17427e-09
-9.69702e-10
8.95838e-10
-1.49473e-08
6.59562e-09
9.70883e-09
1.04052e-09
-1.04773e-08
-2.72095e-10
-6.1384e-09
1.33762e-08
1.09705e-09
-8.33489e-09
1.43637e-08
-4.47215e-09
3.68237e-09
-1.3574e-08
1.54039e-08
1.68569e-09
-1.66081e-09
-1.89711e-10
-2.00634e-08
-7.42659e-09
2.76797e-08
1.42815e-08
-8.68119e-09
-1.95022e-09
7.93106e-09
-1.21192e-08
-9.20834e-12
8.29259e-11
-1.24454e-09
-3.62373e-08
-2.32939e-08
8.27193e-09
2.45508e-10
3.70185e-09
-7.01606e-09
1.10507e-08
6.36296e-09
-5.99325e-10
3.22206e-10
4.83136e-10
-2.06017e-10
5.77857e-09
-4.76002e-09
3.64522e-09
-4.66377e-09
-4.65903e-10
-6.32873e-10
2.626e-10
6.6464e-10
-5.93193e-10
-1.79238e-11
-8.49881e-10
7.3538e-10
-1.80591e-08
2.43551e-09
1.54927e-09
1.40743e-08
2.26382e-10
-6.99707e-10
-1.26001e-10
-4.10177e-09
-1.50846e-08
1.12726e-09
5.614e-09
1.20368e-08
-5.22539e-09
-1.24254e-08
1.64334e-08
6.82866e-10
-1.58975e-08
-1.2187e-09
-6.81095e-10
4.57571e-10
5.4573e-10
-4.25953e-10
2.14769e-10
2.11184e-10
-7.37677e-09
-3.59035e-09
4.29123e-09
-2.33293e-10
3.5766e-10
-1.24367e-10
1.1826e-09
-1.56114e-08
-8.24948e-10
9.73393e-09
-1.09465e-08
-9.67207e-10
-4.43878e-10
1.28848e-08
4.40713e-09
-4.15445e-09
-1.31375e-08
1.09043e-10
7.12936e-09
-7.89102e-09
6.4175e-09
-1.69505e-09
-8.89907e-09
8.13705e-09
2.45707e-09
-1.87188e-09
6.61401e-10
-1.38741e-08
-1.30009e-10
-1.03284e-10
1.36474e-10
7.95412e-10
-8.49823e-09
7.46079e-10
1.72956e-08
-1.60829e-09
-1.23685e-08
1.37192e-08
-1.35074e-09
1.21967e-08
1.39672e-08
-1.55156e-08
-1.06483e-08
-5.55746e-10
1.01333e-09
-4.57587e-10
4.50621e-10
-4.12849e-10
-3.77725e-11
5.0912e-10
-3.11513e-10
-1.97606e-10
1.42176e-09
-1.15581e-09
-2.65949e-10
-1.06566e-08
7.97811e-10
9.85879e-09
2.06631e-09
-6.44555e-10
8.95842e-09
-1.53808e-08
7.45696e-09
-8.97212e-09
5.61419e-11
3.72037e-09
-3.98161e-10
-2.42639e-09
2.48253e-09
-6.62112e-09
7.9529e-09
-1.33178e-09
-5.8583e-10
4.23481e-09
2.89418e-10
1.72726e-08
-1.44845e-08
-1.63941e-09
-5.96475e-09
5.37084e-09
-6.02429e-10
-1.98086e-10
5.93486e-09
-5.9339e-09
-9.62581e-13
6.91517e-09
4.502e-09
6.7437e-12
-1.60094e-08
1.04617e-08
1.77443e-08
5.76037e-09
8.28415e-09
8.20829e-09
-6.84777e-09
1.31917e-09
-1.19758e-08
4.97446e-10
1.15777e-09
-1.29549e-08
2.90833e-09
-4.25804e-10
1.16224e-08
-1.09395e-08
-2.40019e-10
-8.19964e-10
-1.38009e-08
7.56989e-09
7.56415e-10
-1.00517e-11
-8.90278e-09
5.05546e-09
-3.02493e-08
-1.25072e-08
-2.77263e-09
1.47893e-09
1.40745e-08
1.09989e-08
-1.07589e-08
-1.43145e-08
1.54468e-08
-3.12011e-09
-1.23266e-08
1.6247e-09
3.9591e-09
-1.11272e-09
-9.08853e-10
-8.79054e-10
1.17881e-09
6.09096e-10
-2.39814e-10
3.61054e-10
3.61896e-10
6.2138e-08
-6.21634e-08
2.54321e-11
6.20589e-08
-6.23627e-08
3.03745e-10
8.37009e-10
6.47368e-08
-6.55633e-08
8.26532e-10
6.41293e-08
6.07461e-10
-2.24699e-10
-6.65085e-08
9.45204e-10
-6.20509e-08
6.19165e-08
1.34375e-10
1.31552e-09
-6.7824e-08
-6.22106e-08
1.59715e-10
1.25181e-08
-7.63359e-10
1.37485e-09
-3.70096e-09
3.08947e-09
3.34525e-10
-1.19679e-09
9.56319e-10
-6.107e-10
1.4018e-09
-1.6432e-09
8.52104e-10
1.42251e-09
-1.53443e-09
1.94844e-10
-5.93921e-11
-3.41603e-09
2.8097e-09
-2.04227e-09
2.64861e-09
-5.16831e-10
-2.76149e-09
2.51496e-09
-3.6063e-09
-5.77227e-09
5.93546e-10
-6.31545e-10
1.23786e-09
1.12026e-09
-6.50497e-09
7.94173e-09
3.06524e-09
1.9806e-08
-4.35925e-09
-7.20036e-10
2.88281e-10
1.0253e-09
-1.00889e-08
-2.61484e-08
5.34194e-09
-4.30814e-09
-3.16166e-09
2.12786e-09
1.07788e-10
2.27184e-11
3.73587e-10
-2.60214e-09
3.36242e-09
8.90835e-09
7.62377e-10
-2.87073e-10
2.11592e-09
-2.34568e-09
1.91791e-09
1.47432e-08
1.32985e-08
-2.69483e-08
3.2694e-08
6.34235e-09
-2.28278e-08
-1.04628e-08
1.84556e-08
-1.79485e-08
1.04918e-08
-1.03395e-10
-1.72376e-10
-1.25866e-09
-1.73543e-09
-2.9445e-09
3.61956e-09
1.50492e-08
-6.05408e-10
-1.37824e-08
-5.57162e-10
-2.42076e-09
2.16436e-10
1.54686e-08
1.77301e-08
1.37042e-08
7.16726e-10
-1.66551e-09
-1.27554e-08
-1.58795e-09
5.99007e-09
1.25087e-08
-5.34752e-10
-1.07994e-09
-3.60825e-09
2.7717e-09
3.64625e-09
2.4822e-09
1.44263e-08
4.23203e-09
-1.42512e-08
1.7944e-08
-1.76746e-09
2.54447e-09
-3.43116e-09
1.89472e-09
-4.87929e-09
1.29497e-08
-1.19706e-08
-1.40288e-08
3.57192e-10
8.79229e-09
-1.8222e-09
1.52295e-09
1.53711e-09
-8.6588e-09
7.0533e-10
-4.55372e-09
-6.01961e-09
1.22048e-08
-1.4844e-08
1.14583e-09
1.66863e-09
-2.2115e-09
1.67422e-08
-1.61993e-08
-1.05873e-09
1.41575e-08
3.0362e-09
-4.38992e-09
-1.40271e-08
7.51774e-09
-1.7328e-08
-8.13827e-09
6.76077e-09
5.86619e-09
1.45501e-08
-9.94097e-09
3.04671e-09
9.35133e-09
9.86379e-09
3.83831e-09
-4.17919e-09
2.16919e-08
-1.91307e-08
4.95653e-09
-1.04913e-08
2.17503e-09
5.63453e-09
1.38587e-08
-2.60327e-10
1.27772e-08
-1.35756e-08
-1.89293e-09
1.91077e-09
-9.21572e-10
9.03734e-10
1.10085e-08
-6.3785e-09
7.40685e-09
-1.08888e-08
1.43797e-09
-4.74711e-09
1.14466e-08
-1.19249e-08
-7.55977e-09
9.17401e-09
9.39423e-09
1.28803e-08
6.84656e-10
-1.38253e-08
1.50373e-09
7.95344e-10
-1.10898e-08
-6.72185e-09
1.02519e-08
-1.46961e-09
2.51681e-09
-8.96752e-09
4.80254e-09
-5.24102e-09
1.15349e-08
-3.48774e-09
-1.17401e-08
3.693e-09
-4.48355e-09
1.12713e-08
1.89418e-09
1.1325e-09
-5.03209e-09
-1.77429e-08
1.04583e-08
1.23166e-08
7.62449e-10
-1.09759e-08
-9.97384e-09
1.59177e-08
1.25453e-08
2.85158e-09
-9.7623e-09
-1.33104e-08
-3.16085e-10
-1.27496e-08
1.65842e-10
-7.62874e-10
1.16306e-08
1.25267e-08
-8.23302e-09
1.65984e-08
-1.59805e-08
3.6142e-09
-4.65143e-10
1.7566e-09
1.27829e-08
-3.91278e-09
-1.26671e-08
-5.09175e-09
1.63703e-09
4.6125e-09
1.22188e-08
-7.25651e-09
9.14929e-10
-1.59068e-09
8.22737e-10
-1.12499e-09
5.86224e-09
2.63215e-08
-1.64275e-10
-1.00746e-08
1.02389e-08
2.85268e-08
-2.22815e-08
2.2071e-08
1.97191e-08
-1.27113e-08
-2.67567e-09
1.50657e-08
1.98889e-10
-1.21435e-08
-4.07246e-10
-6.0217e-09
-1.87658e-09
2.23489e-09
1.53587e-09
-3.4719e-10
-1.10625e-08
1.14488e-08
-3.90442e-11
3.10963e-09
-5.25708e-09
-1.10174e-08
1.05764e-08
-8.98314e-10
-1.07533e-08
-1.76775e-10
-1.11988e-08
-2.60185e-09
-1.2013e-08
2.19118e-09
7.90259e-09
5.13658e-09
-3.03119e-10
-1.17897e-08
1.17456e-08
5.88475e-10
-8.77834e-09
5.17855e-09
-1.44459e-09
2.33625e-09
-2.28991e-09
-1.30472e-08
-1.27132e-08
1.22458e-08
-1.02236e-08
-1.57877e-08
1.00019e-08
9.25332e-09
8.48164e-10
2.65163e-09
-1.27262e-08
1.13947e-08
1.6738e-09
3.93541e-09
3.04371e-10
-5.16395e-10
-2.53879e-10
-4.12491e-09
2.5686e-09
-8.64445e-10
2.01538e-10
-2.36882e-10
3.53433e-11
-2.66345e-09
1.30003e-08
2.20841e-09
2.55235e-09
-1.14846e-10
-1.46846e-09
-4.39351e-10
-2.36977e-09
-3.57348e-10
1.29519e-08
1.00282e-08
-3.47376e-10
6.85934e-09
-1.23097e-09
-5.281e-09
-9.78162e-09
-5.10969e-09
1.54217e-10
4.7321e-11
4.87547e-09
1.31795e-09
-1.71693e-08
-3.80915e-10
-7.86709e-10
-2.76252e-09
1.01902e-09
2.98008e-09
6.1939e-08
-8.62142e-11
-6.18528e-08
6.23613e-08
1.88792e-10
-6.25501e-08
-1.41424e-08
-1.7947e-10
1.45041e-08
-1.82189e-10
3.02968e-09
-1.8517e-09
2.56876e-09
1.79976e-09
-4.47823e-09
-3.47494e-10
-5.37914e-10
4.36389e-10
-1.04492e-10
4.55614e-10
-3.11207e-10
1.9617e-08
1.07833e-09
-1.58198e-08
-1.67314e-10
-1.93609e-09
1.24541e-08
2.2648e-09
1.78621e-09
5.33744e-09
-2.09194e-09
-7.72337e-08
-2.41775e-08
-4.89152e-09
1.58262e-08
2.41053e-09
-1.90069e-10
-3.04414e-09
-1.12997e-09
3.86596e-10
-3.36562e-10
-1.02702e-08
-3.49848e-10
1.06201e-08
-1.08233e-08
-6.60699e-09
1.07084e-08
-9.4436e-09
8.76023e-09
1.61994e-10
1.55871e-09
9.78116e-09
-9.67932e-09
-1.01842e-10
6.18399e-10
8.45854e-11
1.05904e-08
6.81591e-10
-8.35904e-10
-1.32076e-10
-1.42431e-08
-4.89073e-10
-1.37656e-08
1.26086e-08
-1.18368e-08
-6.60321e-08
6.49859e-08
1.04614e-09
2.71755e-10
-2.49036e-10
1.19565e-08
-2.46996e-10
1.01138e-11
-2.04372e-09
2.76875e-09
-3.4319e-09
-1.34789e-08
-1.62787e-09
2.57213e-09
-4.73801e-09
-1.40491e-08
1.61785e-09
5.57369e-09
9.63309e-09
-8.99049e-09
-2.72358e-10
2.5362e-11
-9.32915e-09
-1.32816e-08
1.50697e-10
-6.27016e-08
2.36423e-10
6.24652e-08
6.95158e-10
6.34342e-08
-2.24443e-10
-1.54695e-09
-1.4481e-08
1.07942e-10
-6.33964e-08
6.32884e-08
1.8325e-10
-6.2938e-08
6.27548e-08
3.72984e-10
6.1804e-08
1.50578e-10
-6.19545e-08
6.16349e-08
1.69102e-10
-8.78939e-08
8.85034e-08
-2.03978e-12
9.3397e-08
-9.31038e-08
-2.67754e-10
-8.66326e-08
-4.34741e-10
9.33558e-08
-1.83474e-10
-8.49184e-08
-7.68984e-10
9.34865e-08
1.72996e-10
-5.22843e-10
1.96093e-09
9.23626e-08
-6.93177e-08
6.21452e-08
-6.23261e-08
-6.29575e-08
6.14921e-08
1.42787e-10
-3.08869e-09
2.92817e-09
-1.40906e-08
5.32206e-11
1.00997e-10
1.48067e-09
8.77299e-09
-1.13872e-08
3.82919e-08
-3.45137e-08
-1.67332e-08
1.37889e-08
-4.55157e-11
-2.16338e-10
1.68986e-10
6.91923e-10
-1.33335e-10
3.29911e-10
4.49846e-09
1.03338e-09
-3.63712e-09
-2.00018e-10
2.42811e-10
-1.4945e-10
-2.55043e-09
1.31488e-08
2.40194e-09
-1.44388e-08
-2.61914e-09
-3.37294e-09
5.58116e-09
1.04516e-09
-2.66373e-09
1.4274e-08
-1.15189e-09
-2.15532e-09
2.51783e-09
-8.13373e-09
-1.90533e-08
-1.34412e-08
7.94847e-09
5.84989e-09
-2.37667e-10
-5.54051e-10
3.02661e-09
1.44709e-08
2.2532e-09
-1.81309e-09
-3.99615e-10
4.49364e-10
-2.47835e-10
1.59731e-08
-5.6387e-10
-1.57591e-08
-5.01055e-10
-5.98952e-10
3.19466e-10
-2.43865e-10
3.46902e-09
-1.64761e-08
4.82931e-10
-1.55256e-09
-2.14526e-09
-2.33821e-09
1.55921e-08
-9.05968e-08
-1.39099e-10
9.16841e-08
-1.90603e-10
-8.91695e-08
-4.76688e-10
9.3107e-08
-2.75607e-10
-9.29176e-08
-5.57731e-10
-1.63939e-09
1.67149e-08
9.19854e-08
-1.96652e-10
2.90532e-11
-2.21292e-10
9.91611e-09
2.53056e-09
-7.63104e-09
-1.21446e-08
-5.67839e-09
8.43369e-09
1.46394e-09
-6.83239e-09
-6.0275e-09
9.02285e-09
-8.97578e-11
1.01474e-08
1.94891e-08
-1.79557e-08
3.07824e-09
-1.26662e-08
3.07738e-09
-6.99794e-08
3.94735e-09
-2.0558e-08
-1.30871e-08
-5.00499e-10
-5.95502e-09
-1.52821e-08
9.09367e-09
-1.51699e-08
4.47529e-10
3.7838e-10
-1.8514e-09
-1.65584e-08
1.70083e-08
7.42978e-09
-7.84875e-09
-4.8432e-09
1.52639e-08
-1.68444e-09
6.94522e-10
-1.02913e-09
1.85992e-10
1.19324e-08
3.32006e-09
7.0909e-08
-1.823e-08
7.67633e-10
-1.49696e-08
-2.4148e-10
-2.82502e-10
-8.73667e-11
6.09539e-08
-6.12295e-08
-6.33673e-08
-6.31347e-08
-6.37399e-11
-2.62527e-10
-9.25914e-08
-6.04544e-08
6.24153e-08
6.50959e-08
-6.02814e-08
6.45731e-08
-6.04649e-08
6.38041e-08
-6.07326e-08
6.33694e-08
9.23142e-08
2.92366e-10
-6.38078e-09
7.51116e-08
-6.54108e-08
4.53043e-11
-4.53043e-11
4.59335e-10
-3.32182e-10
1.54866e-08
-3.44421e-11
3.44421e-11
3.51728e-10
1.53666e-09
1.38921e-08
1.33731e-08
-2.73893e-09
3.72872e-09
6.51713e-09
1.8649e-09
3.80272e-10
-2.60698e-10
-2.9794e-09
1.45753e-08
1.48469e-08
-4.28244e-09
1.18172e-08
1.92038e-10
1.53548e-10
2.78158e-09
-8.55582e-10
-1.57049e-09
-5.83996e-09
-2.04058e-10
-4.07127e-10
1.53039e-08
2.66835e-10
7.46006e-11
1.46479e-08
-2.61375e-08
1.77181e-08
2.63829e-09
1.2961e-09
2.4908e-09
-3.72397e-09
1.92715e-08
-1.80383e-08
-8.47045e-11
2.57304e-10
-1.43991e-09
-7.92103e-08
-7.07576e-08
1.34179e-09
-5.85954e-10
6.53784e-10
2.29658e-08
1.85943e-08
-6.34727e-09
7.83736e-11
-4.31422e-09
-2.50496e-09
2.99527e-08
1.51344e-10
1.48184e-08
7.35817e-08
5.53159e-11
5.20953e-10
-1.63026e-10
-2.22761e-10
-3.67899e-09
2.42249e-08
-1.48662e-08
1.01314e-09
-1.41542e-08
-5.56923e-11
2.03727e-08
-2.8665e-08
9.30665e-10
2.01678e-09
-3.33874e-10
)
;

boundaryField
{
    back
    {
        type            empty;
        value           nonuniform 0();
    }
    ingreso
    {
        type            calculated;
        value           nonuniform List<scalar> 
14
(
-1.54286e-08
-1.54288e-08
-1.54288e-08
-1.54288e-08
-1.54286e-08
-1.54283e-08
-1.54288e-08
-1.54288e-08
-1.54286e-08
-1.54286e-08
-1.54288e-08
-1.5428e-08
-1.5428e-08
-1.54286e-08
)
;
    }
    salida
    {
        type            calculated;
        value           nonuniform List<scalar> 2(1.01411e-07 1.14589e-07);
    }
    front
    {
        type            empty;
        value           nonuniform 0();
    }
    defaultFaces
    {
        type            calculated;
        value           uniform 0;
    }
}


// ************************************************************************* //
