/*--------------------------------*- C++ -*----------------------------------*\
  =========                 |
  \\      /  F ield         | OpenFOAM: The Open Source CFD Toolbox
   \\    /   O peration     | Website:  https://openfoam.org
    \\  /    A nd           | Version:  7
     \\/     M anipulation  |
\*---------------------------------------------------------------------------*/
FoamFile
{
    version     2.0;
    format      ascii;
    class       volVectorField;
    location    "85";
    object      U;
}
// * * * * * * * * * * * * * * * * * * * * * * * * * * * * * * * * * * * * * //

dimensions      [0 1 -1 0 0 0 0];

internalField   nonuniform List<vector> 
591
(
(0.000833781 -1.46993e-05 1.21699e-18)
(0.000826961 -1.41843e-05 -6.62898e-19)
(0.000856261 6.71976e-06 5.70917e-20)
(0.000864256 -1.8465e-05 -1.49054e-19)
(0.000850198 -4.36102e-06 2.25497e-19)
(0.000803201 -3.97326e-05 -1.39588e-19)
(0.000565434 -0.000255033 8.06053e-19)
(0.000803914 4.51118e-06 2.09849e-18)
(0.00572977 0.0025075 9.87869e-19)
(0.000807805 -7.74362e-06 2.44964e-18)
(4.72483e-05 0.000164856 1.21801e-18)
(0.000936568 0.00138659 9.40712e-21)
(0.000800587 4.21528e-06 1.32374e-18)
(0.00160036 0.00240045 -7.87393e-19)
(0.000803388 1.74676e-06 -4.45607e-19)
(5.20267e-05 -0.000176149 2.19711e-22)
(0.000139161 0.000674198 7.04824e-19)
(0.000817908 7.49212e-05 -4.97127e-19)
(0.00190945 0.000393179 4.73845e-19)
(0.00135997 0.000253536 -2.4706e-19)
(0.000832682 -7.90361e-06 3.73134e-19)
(0.00340014 0.0065595 -8.15174e-20)
(2.49893e-05 6.67602e-05 2.70888e-19)
(0.000836088 -2.19204e-05 -4.51398e-19)
(8.43438e-06 -1.334e-05 3.58841e-19)
(0.000783623 3.80779e-05 0)
(9.40008e-05 0.000470432 1.59937e-19)
(0.000559816 3.5791e-06 -1.78798e-19)
(0.000759453 4.66913e-05 1.14924e-18)
(0.00080855 6.31122e-05 5.85895e-19)
(5.29546e-05 -4.72566e-06 -4.83013e-24)
(2.66254e-05 -4.24276e-05 3.52095e-19)
(3.19939e-05 -2.76944e-06 -4.64117e-20)
(4.11575e-05 -1.2152e-05 0)
(5.0071e-05 -1.29616e-05 1.1312e-18)
(0.00117304 0.000136319 1.79878e-19)
(2.70664e-05 -4.69999e-06 4.47042e-20)
(0.000825198 1.37588e-06 3.17108e-23)
(2.48895e-05 4.07574e-05 2.65969e-19)
(1.19608e-06 -7.90772e-05 -8.53984e-19)
(0.000651964 -0.000199789 9.59159e-19)
(2.13208e-05 -5.72271e-06 4.5472e-20)
(0.000808359 9.95895e-06 -1.58053e-18)
(0.000832162 4.74673e-05 -6.90995e-19)
(1.41163e-05 -6.58038e-06 0)
(5.11912e-05 5.22277e-06 8.51677e-20)
(0.00134753 0.00450249 8.92846e-19)
(7.16444e-05 1.29254e-05 8.63429e-20)
(0.000801762 1.62296e-05 0)
(0.000389352 -0.000222523 6.77199e-19)
(0.000386348 0.000269594 5.11809e-21)
(0.000399377 4.00361e-05 -1.00356e-18)
(0.00634797 0.010941 -7.68438e-19)
(0.00622462 0.010796 1.52774e-20)
(0.00561426 0.0103787 1.45566e-18)
(0.000807134 3.92286e-05 0)
(6.37485e-05 2.7823e-05 0)
(0.000318523 3.08343e-06 2.03672e-23)
(5.90126e-05 8.36087e-06 -3.4638e-19)
(0.00081327 -7.54007e-06 0)
(0.000650858 2.87866e-05 3.17488e-19)
(0.00084064 1.93355e-05 2.20719e-18)
(0.000806888 3.54969e-05 -5.38799e-19)
(0.000800006 1.28001e-05 -3.15681e-19)
(0.00171276 0.000489025 5.42676e-19)
(0.000805473 2.47294e-05 -1.15001e-18)
(0.000834106 2.88993e-05 -5.24123e-19)
(7.49191e-05 -5.16489e-06 -1.73372e-19)
(0.000688987 0.00226085 0)
(0.000842308 4.48629e-05 0)
(0.000786107 2.1077e-05 -1.39273e-18)
(3.554e-05 1.44627e-05 0)
(0.000291249 0.000266581 3.26779e-19)
(3.58244e-05 -1.61892e-05 0)
(3.75619e-05 -5.66773e-06 1.59436e-19)
(9.96986e-06 -3.91121e-05 -3.3659e-20)
(0.000797717 7.82678e-05 2.46867e-19)
(4.1299e-05 9.31553e-06 0)
(0.00080709 5.55647e-05 4.47404e-19)
(0.000778068 0.000294024 2.10681e-19)
(0.000962635 6.55037e-05 -3.97821e-20)
(4.03148e-05 2.09708e-05 -4.51759e-20)
(4.48255e-06 -1.63744e-05 0)
(0.000438828 0.000213328 1.70149e-19)
(2.78019e-06 1.89863e-05 0)
(0.000801203 4.28297e-05 -6.06643e-19)
(0.000629737 -0.000118413 0)
(6.01932e-05 -3.42858e-06 -1.7444e-19)
(1.93188e-06 -2.25368e-05 0)
(0.000832994 0.000240818 -3.41183e-19)
(2.77696e-06 -9.48335e-06 0)
(0.000428253 0.00032141 -1.32675e-23)
(0.000538112 0.000109595 0)
(0.000812525 4.34208e-05 -3.01592e-24)
(2.4094e-06 1.16524e-05 -4.21617e-20)
(0.000464436 -2.15026e-05 1.76312e-18)
(0.00102101 7.25244e-05 4.15921e-20)
(0.000803878 4.60326e-05 6.41321e-22)
(0.000743938 0.000658644 2.69444e-19)
(6.88569e-06 4.30119e-05 0)
(-3.62924e-06 -2.99026e-05 -3.12093e-19)
(-3.17073e-05 -4.57067e-05 -1.1015e-18)
(4.69406e-06 7.00269e-05 -5.96233e-19)
(0.000603462 -2.55451e-05 0)
(8.81073e-06 9.39555e-05 0)
(0.000817193 3.06947e-05 2.18223e-18)
(0.000795117 3.08092e-05 1.53394e-18)
(0.000439308 -9.89123e-05 0)
(4.02294e-05 0.000212259 -8.95175e-19)
(5.58788e-07 0.000158308 4.967e-19)
(5.82322e-05 0.000398449 6.25131e-19)
(0.000308854 7.31128e-05 -9.36958e-19)
(0.000802203 2.0105e-05 1.37387e-19)
(0.000258958 -5.82012e-05 5.31102e-19)
(4.24228e-06 2.78088e-05 0)
(1.96453e-05 0.000276208 -1.09384e-18)
(0.000323628 0.00032086 -1.61671e-19)
(-9.13626e-07 -2.40688e-05 1.46519e-19)
(0.000669941 0.000810215 0)
(0.000371781 0.000384119 5.74297e-20)
(0.000821232 2.36486e-05 1.07045e-18)
(0.00079967 1.6877e-06 -2.72297e-18)
(5.45193e-06 -1.15202e-05 0)
(0.000663708 -3.80279e-05 -1.12287e-19)
(0.000322524 -0.000134516 1.24293e-18)
(0.00263143 0.000810102 -3.36446e-19)
(7.12201e-06 0.000123559 -6.13093e-19)
(7.21522e-06 0.000151789 1.6193e-18)
(0.000678679 2.43055e-05 -3.89771e-20)
(5.81385e-05 -1.52803e-05 -7.49992e-19)
(0.000809701 3.48483e-05 -3.87506e-19)
(0.000728309 2.6915e-05 -4.10397e-20)
(3.33637e-05 0.000322534 -5.96982e-19)
(0.000495708 5.80266e-05 -4.93824e-19)
(4.43824e-05 -3.94457e-06 1.56116e-19)
(0.000838677 3.60259e-05 -1.09069e-18)
(0.00154066 0.00023521 -1.13679e-18)
(4.84798e-06 5.63614e-05 4.9632e-19)
(0.000811741 3.3998e-05 -5.00286e-19)
(0.000919993 0.000549174 -7.84934e-20)
(0.000148524 0.000783206 0)
(0.000592605 6.3502e-05 0)
(0.00027711 4.62768e-05 -1.60925e-18)
(6.05951e-05 5.47681e-05 -1.37379e-18)
(2.85219e-05 1.87268e-05 0)
(0.0042473 0.00740026 -1.01942e-20)
(0.00422552 0.00737208 3.16387e-20)
(0.00442772 0.00757485 -4.96164e-21)
(0.00420616 0.00773396 0)
(0.00419862 0.00759976 5.77155e-19)
(0.00424435 0.00740152 -9.1976e-20)
(0.00420986 0.00804146 4.84395e-19)
(0.00428991 0.00742252 0)
(0.00420815 0.00853445 6.16684e-19)
(0.00432645 0.00745108 2.23866e-19)
(0.000830389 1.56226e-05 -1.37304e-18)
(0.000777649 5.78509e-05 0)
(0.00021173 4.44542e-05 1.27672e-19)
(4.69503e-05 1.37142e-05 8.71646e-20)
(7.45937e-05 4.0663e-05 6.79867e-19)
(0.000101628 3.60061e-05 -3.41593e-19)
(9.45676e-05 8.46951e-07 0)
(4.43218e-05 3.60648e-06 8.18183e-20)
(0.000207159 0.000125606 0)
(0.000162294 3.3801e-05 -5.24197e-20)
(0.000346153 0.000217816 -5.09152e-21)
(5.30235e-05 3.95882e-05 -4.37555e-19)
(8.64006e-05 2.27313e-05 -8.52279e-20)
(8.72583e-05 5.70972e-05 1.31166e-21)
(0.000259267 0.000362346 -6.66042e-19)
(0.000109006 0.000994263 0)
(3.98487e-05 4.92665e-05 3.42985e-19)
(0.000198651 0.00174562 0)
(0.000208394 0.000248961 7.04518e-19)
(3.35923e-05 -3.26071e-06 1.11469e-19)
(0.000489646 0.00016131 -1.72266e-19)
(0.000769587 2.48507e-05 -1.92371e-18)
(3.89529e-05 -1.58132e-06 4.73756e-24)
(0.000143314 1.76666e-05 2.24542e-19)
(0.000245573 8.47435e-05 -8.99136e-20)
(0.000882111 0.000698604 3.34876e-19)
(0.000727336 0.00163444 -9.23338e-21)
(0.000399582 0.00142051 -9.38867e-21)
(0.001028 0.000546342 0)
(9.51802e-05 -1.88644e-05 1.11845e-18)
(0.000110319 9.29879e-06 -4.42944e-20)
(0.000466309 -0.000280004 -1.13599e-18)
(0.000820905 4.21376e-05 0)
(0.000177963 -9.12483e-06 3.63227e-19)
(0.000303014 0.0013013 0)
(0.00108674 0.000775087 -7.30053e-20)
(0.000827222 3.04162e-05 -1.86512e-19)
(7.01846e-05 -2.29105e-05 -2.9991e-19)
(0.000836856 0.000316453 -2.08001e-20)
(4.9306e-05 -2.12698e-05 -5.99354e-19)
(0.000227114 0.000169687 8.63703e-20)
(0.000231123 0.000306118 -3.44941e-19)
(0.000893141 0.000251002 0)
(0.000822053 5.51896e-05 0)
(0.000265609 0.000127987 1.7681e-19)
(0.000233033 -9.50391e-06 5.83205e-24)
(0.000184748 0.000201064 0)
(0.000302777 0.00064883 -5.55594e-21)
(0.00035606 -1.98864e-05 0)
(0.000379634 0.000598567 0)
(0.000105777 7.6791e-05 -1.3464e-21)
(0.000810623 3.10446e-05 -9.57126e-19)
(0.000806169 1.8805e-05 7.97766e-19)
(0.000125457 5.11145e-05 -1.49823e-19)
(0.000967006 0.000146978 8.50249e-20)
(0.000839912 4.03942e-05 3.3344e-19)
(0.0008205 3.18493e-05 -2.94042e-19)
(0.00102844 0.000418549 0)
(0.000444279 0.000113253 6.24297e-19)
(0.000907136 0.000322431 2.09092e-20)
(0.000586418 0.00015258 0)
(0.000273369 0.000445742 4.09562e-19)
(0.000262494 0.000211885 -8.44006e-20)
(0.00110016 0.000381936 -7.81955e-19)
(0.000633758 0.000102876 -1.7925e-19)
(0.000817244 7.46839e-05 -7.45677e-21)
(0.000844146 2.61448e-05 9.40053e-20)
(6.29063e-05 -8.64291e-05 -1.98093e-18)
(0.000743546 0.000380255 2.19189e-19)
(0.00067875 6.68271e-05 2.30588e-20)
(0.000712843 0.000279288 1.61302e-23)
(0.000736182 0.000460937 -4.09605e-19)
(0.000850484 2.15143e-05 9.06872e-20)
(6.94327e-05 7.48784e-05 0)
(0.000661017 0.000422858 -4.65823e-20)
(0.000182434 8.80896e-05 0)
(0.000374467 0.000501746 -2.64787e-19)
(0.000311177 0.000161646 0)
(0.000681031 0.000205527 3.55146e-19)
(0.000655866 0.000259512 -4.37156e-20)
(8.0094e-05 9.98946e-05 6.1902e-19)
(0.000881336 9.59249e-05 -1.63573e-18)
(5.41608e-05 1.9378e-05 2.57133e-19)
(0.000893763 7.27602e-05 -1.68604e-18)
(0.000845827 9.01946e-05 1.62993e-19)
(0.000812735 3.54795e-05 1.91228e-18)
(0.00082051 3.37664e-05 -1.32818e-19)
(0.000742457 7.11715e-05 0)
(0.000805635 2.15482e-05 8.95412e-19)
(0.00096821 0.00023433 -4.27e-19)
(0.000782626 9.81904e-05 -4.83625e-19)
(0.000781573 0.000235426 -8.81019e-20)
(0.000202431 -0.000183976 -2.07621e-18)
(0.000756909 8.03393e-05 8.87332e-19)
(0.000642437 0.000593482 0)
(7.10454e-05 -0.000120833 0)
(0.00122724 0.000473856 4.97178e-19)
(0.000580273 -5.90949e-05 -3.27074e-18)
(0.00135147 0.000415006 5.76362e-19)
(0.00125049 0.000718274 -6.38836e-20)
(0.000815426 3.27753e-05 -2.1259e-19)
(0.000840933 6.68938e-05 -1.42687e-18)
(0.000815005 2.75748e-05 1.5873e-18)
(0.000816435 2.34798e-05 9.77965e-20)
(0.000673035 0.000353337 -4.40308e-20)
(9.99002e-05 0.000117259 7.56169e-24)
(0.000760042 -3.34157e-05 2.64978e-19)
(0.000211393 -0.000263687 -7.31511e-19)
(0.000633066 0.00018404 0)
(0.000718998 4.95847e-05 9.90159e-20)
(0.000709517 9.55636e-06 -3.8072e-19)
(0.000393639 0.000166339 3.93278e-20)
(0.000810644 0.000509111 -1.65441e-19)
(0.000146351 6.89341e-05 3.70088e-25)
(0.0008165 0.000413251 0)
(0.000985636 0.000316329 4.15674e-20)
(0.000764778 -6.76979e-05 -6.15888e-19)
(0.000352435 9.86218e-05 4.97709e-19)
(0.000904633 0.000427498 0)
(4.63295e-05 2.8639e-05 1.3368e-19)
(0.000490288 0.000264071 2.13904e-19)
(0.00053201 -0.000164254 -7.09299e-19)
(0.000108701 -0.000170986 -1.05543e-18)
(0.000826166 3.74792e-05 -4.86636e-19)
(0.000766703 -7.32474e-05 -1.94338e-19)
(0.000548039 0.000729639 -1.17415e-18)
(0.000852616 4.70295e-05 -6.74473e-20)
(0.000590621 -1.54642e-05 1.28116e-18)
(0.000712983 9.95942e-05 2.27725e-20)
(0.000539121 0.000206043 -1.65648e-19)
(2.67936e-05 -1.99681e-05 -8.75638e-20)
(0.000157317 -5.37083e-05 2.40549e-18)
(1.46398e-05 6.12328e-07 -1.94804e-19)
(0.000837134 0.000117313 3.63659e-19)
(0.000674481 0.000135359 0)
(0.00017716 -0.000100965 -1.04793e-18)
(0.000115382 -2.39166e-05 3.12766e-19)
(9.89326e-05 -3.91232e-05 1.34948e-23)
(0.000805431 0.000105235 -3.19187e-19)
(0.000148294 -1.89364e-05 0)
(0.000591543 0.000239865 0)
(0.000111342 0.000325386 -3.62776e-19)
(0.000865919 0.000101162 2.10611e-18)
(1.19167e-05 8.66275e-07 0)
(0.00088483 5.30535e-05 0)
(3.85785e-05 -2.52748e-05 0)
(0.000815355 4.81586e-05 -4.46696e-21)
(0.000786068 -3.63812e-05 0)
(0.00426034 0.0074068 8.06799e-20)
(0.00436235 0.00748705 1.43323e-19)
(0.000843449 -1.23528e-05 0)
(0.00079383 -4.04577e-05 8.11962e-19)
(0.00015201 0.000119193 1.49176e-19)
(0.000858684 6.71811e-05 8.07703e-19)
(0.000127922 9.63002e-05 2.34343e-20)
(0.000786835 -2.45305e-05 6.24176e-19)
(3.22955e-05 8.56976e-06 0)
(2.47436e-05 -1.22516e-05 -4.48373e-20)
(0.000903169 4.82933e-05 -4.86432e-19)
(2.81355e-05 -2.98123e-05 -6.69642e-19)
(0.000763888 0.000124453 -4.23136e-20)
(0.00016885 0.000156971 -1.88059e-19)
(0.000814476 3.05708e-05 0)
(0.00468249 0.00815359 9.00056e-22)
(0.00018812 0.000790495 3.33406e-19)
(0.000106116 -6.40156e-05 -9.1431e-19)
(5.4403e-05 -3.48994e-05 -1.16849e-18)
(0.00061199 1.32646e-05 1.89795e-20)
(0.000583496 0.000405706 0)
(0.00042261 0.000444641 -2.56278e-19)
(7.32451e-05 -6.26557e-05 1.18344e-18)
(0.000571423 -5.15386e-07 7.68849e-20)
(3.89054e-05 1.35763e-06 4.06997e-19)
(0.00071466 -4.66111e-05 1.17133e-18)
(0.000812342 3.27497e-05 -6.0385e-19)
(5.5514e-05 -5.45935e-05 1.70898e-18)
(0.000841901 -3.44259e-05 -5.96709e-24)
(0.000588316 6.55007e-06 -3.75827e-20)
(0.000872936 7.13546e-05 0)
(0.000843805 4.58471e-05 0)
(0.005917 0.00724268 2.59718e-19)
(1.51204e-05 -2.72408e-06 -1.19561e-19)
(0.000108131 -0.000110147 7.72834e-19)
(0.000732069 0.000115721 -6.96266e-19)
(1.78961e-05 1.49608e-07 2.01485e-19)
(0.000638906 -3.6284e-05 -7.2363e-19)
(0.00075003 3.60487e-05 1.55765e-18)
(0.000710382 0.000158684 -3.55354e-19)
(0.00080755 -1.21176e-05 3.60819e-19)
(6.85257e-05 -3.5769e-05 1.11572e-18)
(0.000800966 6.56024e-06 -3.2261e-19)
(0.000870833 3.88958e-05 0)
(0.000546416 0.000302577 4.20923e-20)
(0.000863193 5.06941e-05 -9.47077e-19)
(1.58119e-05 2.73143e-06 9.11202e-19)
(0.000857996 4.40831e-05 9.65613e-19)
(0.000860661 1.80952e-05 -9.64447e-19)
(0.000759303 -1.31146e-06 -5.6903e-19)
(0.000535834 -7.88632e-05 -5.25516e-19)
(0.00432942 0.00745332 2.46993e-19)
(0.00422331 0.00752864 -2.53276e-19)
(0.00422101 0.00758646 2.66891e-19)
(0.00425605 0.00741078 1.97912e-19)
(0.000845032 -3.36098e-05 1.44237e-19)
(0.0044765 0.00751364 0)
(0.00440395 0.00751772 -3.86777e-19)
(2.49958e-05 -1.27851e-07 -9.97965e-19)
(0.00417046 0.00746901 -6.33511e-20)
(0.00414587 0.00743222 -2.2146e-19)
(0.00602931 0.0106054 0)
(0.00654038 0.0111872 3.71293e-20)
(0.00600924 0.0105751 0)
(0.00655608 0.0112108 1.30841e-19)
(0.00599659 0.0105991 2.69642e-19)
(0.00659278 0.0112277 1.24556e-20)
(0.00593535 0.0106119 -7.76649e-19)
(0.00662305 0.0111467 8.14508e-21)
(0.00390357 0.00919825 -1.90802e-19)
(0.0041867 0.007488 3.89961e-21)
(0.00423782 0.007552 7.93443e-20)
(0.00415036 0.00743453 4.11933e-20)
(0.000887983 0.000194446 4.46632e-20)
(8.33493e-06 1.17449e-06 0)
(0.000716145 -0.000111289 0)
(0.000659285 5.46591e-05 0)
(0.00244395 0.0011146 4.22987e-21)
(0.000757349 -3.11245e-05 1.72537e-19)
(3.75115e-05 4.9268e-06 4.53951e-20)
(7.57305e-06 -2.42342e-05 1.65265e-18)
(0.000856754 9.60332e-06 0)
(2.5847e-05 1.14638e-05 -1.91683e-19)
(0.000139462 0.000219394 0)
(1.41438e-05 -9.05632e-07 0)
(1.12503e-05 -1.10587e-06 0)
(0.000830639 0.000144725 1.1373e-20)
(0.000811076 -1.82395e-05 1.79488e-19)
(3.7615e-05 0.000264459 -1.24243e-23)
(0.00015692 0.000269808 -1.84155e-18)
(0.000607552 0.000327359 -8.56817e-20)
(0.000899265 0.000110767 6.01548e-19)
(0.000628329 -0.000180347 6.74e-19)
(0.000360277 0.00111224 0)
(0.000477904 0.0005754 2.71475e-18)
(8.91513e-05 0.000141871 -1.80277e-18)
(1.80404e-05 -1.1863e-07 0)
(0.000822231 -6.17944e-05 3.64114e-20)
(1.49898e-05 3.35731e-05 1.64412e-18)
(0.000896923 3.42981e-05 2.71091e-19)
(-2.70009e-05 4.60489e-05 3.81048e-18)
(0.000928279 4.07872e-05 -2.6896e-19)
(0.0013402 0.000151566 7.47077e-19)
(3.17625e-05 -1.0071e-05 8.25519e-20)
(3.33925e-05 2.92351e-06 -8.58928e-19)
(5.07979e-05 0.000138337 0)
(0.000915202 8.50381e-05 5.98387e-19)
(0.000496447 0.000367459 2.37096e-19)
(0.00063616 1.75601e-05 -3.89014e-20)
(0.000783129 2.20403e-07 2.57348e-19)
(0.000733222 -0.000159189 0)
(0.00632112 0.0108958 -1.68035e-19)
(0.00637889 0.0109736 4.05766e-19)
(0.00616009 0.0107306 -6.18357e-19)
(0.0065014 0.0111325 -8.09638e-20)
(3.2919e-05 0.000115495 8.00366e-19)
(0.000925684 6.07955e-05 1.44749e-22)
(0.00641146 0.0110061 -3.86396e-19)
(0.00628208 0.0108455 5.48389e-19)
(0.0060802 0.0106723 -4.16784e-19)
(0.00652191 0.011165 -6.81255e-20)
(7.94434e-05 0.000497899 -2.01776e-20)
(6.31295e-05 -0.000198166 -7.92537e-19)
(0.000654257 -2.05017e-05 -7.65826e-19)
(0.000727748 0.000219781 0)
(0.000800258 2.18392e-07 0)
(0.000187813 0.000388246 3.36233e-19)
(0.000600691 0.000511875 -5.41762e-19)
(7.44907e-06 -1.29151e-06 1.78356e-19)
(0.000200213 0.000467285 -7.38255e-19)
(0.00101714 0.00097699 -1.12674e-19)
(0.000748736 0.000165946 0)
(0.000791742 0.000184733 1.30993e-19)
(0.00635236 0.00588231 1.13147e-18)
(0.000737975 0.00112999 8.26493e-20)
(3.6982e-05 3.61405e-05 -7.44529e-20)
(0.000808397 1.08358e-05 0)
(0.000872781 2.46675e-05 -3.56832e-20)
(3.1804e-05 2.62366e-06 -1.9668e-19)
(2.76208e-05 3.99608e-06 1.92956e-19)
(0.000834132 1.54391e-05 5.37099e-19)
(0.000978543 0.000112037 6.5833e-19)
(0.000549151 4.22526e-05 0)
(0.000222875 -0.000286 -3.9807e-19)
(0.000917991 0.000144422 3.8951e-19)
(7.00777e-06 -5.39098e-05 2.03041e-19)
(0.00145294 0.000442117 -2.58123e-18)
(0.000576611 -1.05533e-05 0)
(0.000795934 0.000142931 3.75389e-19)
(9.52651e-05 0.00039106 0)
(0.00118839 0.0081611 4.6207e-19)
(0.000494195 0.000498596 -1.22432e-18)
(0.00054062 0.00101472 -1.83721e-19)
(0.000884837 1.60832e-05 -1.46025e-19)
(1.18932e-05 2.37431e-05 0)
(0.000954837 7.76941e-05 6.11527e-19)
(0.00410635 0.00739541 8.14076e-20)
(0.00417129 0.00747348 4.72937e-20)
(0.00450034 0.00751635 4.54014e-19)
(0.00444547 0.00754201 -3.29419e-19)
(0.00647532 0.0111095 8.10411e-20)
(0.00391485 0.0071461 -9.6939e-22)
(0.0055082 0.00779925 -5.64678e-19)
(0.0040979 0.00737171 5.21781e-21)
(0.00518906 0.00785888 5.11613e-19)
(0.00407971 0.00734014 -4.87041e-20)
(0.00495421 0.00771831 0)
(0.004085 0.00736451 -8.56332e-20)
(0.00474291 0.00758924 4.92459e-19)
(0.00409825 0.0073761 8.7492e-20)
(0.00457553 0.00752888 0)
(0.0042839 0.00742104 1.39717e-19)
(0.00423922 0.00759806 5.80543e-19)
(0.00446791 0.0075275 -5.55441e-19)
(0.00438813 0.00750526 3.71324e-19)
(0.00422786 0.00752458 2.87381e-19)
(0.00643066 0.0110428 -4.97696e-21)
(0.0041178 0.00740151 3.11526e-20)
(0.00645878 0.0110727 0)
(2.22853e-05 5.14508e-06 -1.89821e-19)
(0.00200031 0.00654519 2.28198e-19)
(0.000838287 -5.52916e-05 1.09825e-19)
(0.000854615 5.50396e-06 0)
(1.14376e-06 8.99256e-07 -3.9903e-19)
(-2.1245e-05 -0.000108049 6.91274e-19)
(2.3836e-05 5.45328e-05 2.08858e-18)
(0.000832789 0.000183192 -9.00517e-20)
(0.000801119 8.60049e-06 7.06242e-19)
(7.61557e-07 -5.29554e-07 3.09924e-19)
(1.60392e-05 -3.12374e-05 -1.84525e-18)
(0.000763441 2.69972e-05 1.63118e-19)
(0.000870129 0.00012426 -3.07921e-20)
(0.000800828 -7.90805e-06 1.48103e-19)
(0.000424151 0.000679915 0)
(2.50993e-05 -0.000140953 1.15118e-18)
(0.000869265 4.35285e-06 1.52489e-19)
(1.89964e-05 2.25026e-05 0)
(0.000117719 0.000556963 -6.31142e-19)
(0.000611091 0.000588995 1.31771e-18)
(0.000328506 0.000755385 0)
(0.000801849 -1.56472e-05 0)
(0.000801545 2.97163e-06 1.17591e-18)
(1.62947e-05 4.70485e-05 -3.51425e-18)
(1.53697e-05 6.40769e-06 3.73546e-19)
(0.000116426 0.000141335 0)
(3.99939e-05 -3.97965e-05 0)
(6.03678e-05 0.000109621 2.00959e-19)
(0.000939888 0.000189825 3.50358e-19)
(0.00080038 1.48479e-05 -1.39773e-18)
(2.18054e-05 3.14574e-05 0)
(0.000434237 5.86236e-06 -6.04302e-20)
(0.000800577 3.69284e-05 -1.56316e-19)
(0.000846244 4.14948e-05 1.06441e-18)
(0.000256095 0.000541999 6.32117e-19)
(0.000880686 0.000157091 0)
(1.60618e-05 -2.16754e-05 5.38505e-19)
(1.96175e-06 -4.00031e-06 -3.19899e-19)
(0.000960218 3.31218e-05 0)
(0.00104166 0.00226829 0)
(0.000919959 -9.48336e-07 0)
(0.00100459 0.000208086 4.27087e-19)
(0.000818144 -3.61925e-05 -2.84229e-19)
(0.00093679 0.000110069 -6.84629e-19)
(0.000801007 3.44984e-06 0)
(4.11418e-05 6.61812e-05 -1.71532e-19)
(0.000174598 0.000325096 1.08094e-18)
(0.000800172 1.36341e-05 -2.2388e-23)
(0.00109859 0.000209901 -6.68707e-19)
(0.00108941 0.00012766 0)
(2.19612e-06 5.04204e-06 2.50978e-19)
(1.63774e-05 -1.39322e-05 -1.94274e-19)
(0.000562272 4.34946e-05 6.94872e-21)
(1.27525e-06 -7.0572e-05 0)
(0.00106912 0.000255788 9.49818e-19)
(0.00502866 0.00974835 -2.8295e-19)
(0.00312138 0.00961715 1.27238e-18)
(2.9251e-05 -9.9593e-05 -1.91296e-19)
(4.64271e-05 -7.31411e-05 1.85908e-18)
(0.0011902 0.000252593 1.67317e-19)
(0.00132933 0.00107755 2.34047e-19)
(0.000810819 1.68717e-06 -7.34485e-19)
(0.00019711 0.000950406 -2.38198e-19)
(0.000818034 0.000942731 -2.18547e-19)
(0.000800223 -2.31763e-06 0)
(8.27707e-05 0.000617107 0)
(9.49102e-05 0.000279911 -3.76569e-23)
(0.000718931 -4.56323e-05 -1.67585e-23)
(0.000825045 6.84982e-05 1.52574e-19)
(0.00263092 0.00206384 -1.23113e-18)
(0.00176011 0.00923763 -1.17196e-19)
(0.000834838 6.30741e-05 4.92181e-19)
(0.00632415 0.00405123 -1.76035e-19)
(0.00672102 0.0115576 -1.36419e-20)
(0.00473412 0.00784389 4.92716e-21)
(0.000803784 1.37448e-05 -2.17705e-18)
(0.000840395 4.00361e-06 6.61494e-24)
(7.06508e-06 -6.48867e-06 -3.47947e-19)
(4.58324e-05 8.67722e-05 -3.4921e-19)
(6.40241e-05 0.000265706 8.75076e-19)
(9.94183e-06 1.49671e-05 4.90309e-19)
(8.96637e-05 0.000226905 3.69697e-19)
(0.000821515 1.8969e-05 0)
(0.00534811 0.00949239 1.9505e-20)
(0.00154056 0.000637354 -2.61205e-20)
(0.00081965 3.80954e-05 3.60103e-19)
(2.54469e-05 -7.78097e-05 0)
(0.00184783 0.000748135 5.45908e-19)
(8.39093e-06 6.72503e-06 -2.70101e-19)
(3.23667e-05 2.68524e-05 9.71631e-20)
(0.0013326 0.00139756 6.36539e-19)
(0.000737755 4.93071e-05 1.83066e-19)
(3.3898e-06 -1.20062e-06 -1.70169e-19)
(0.00206224 0.00156178 -1.05569e-18)
(0.000126565 0.000175585 -8.18607e-19)
(0.00392088 0.00848731 -1.09069e-18)
(4.35041e-06 1.27474e-06 8.81255e-20)
(0.000115096 -7.90211e-05 -1.25752e-18)
(4.22089e-05 -5.58523e-05 4.05562e-20)
(0.0015272 0.000986436 0)
(0.00104133 0.000139024 -4.02559e-22)
(0.000453335 0.000847915 -4.01969e-20)
(0.000803093 2.76892e-05 -2.34031e-19)
(8.70254e-05 0.000181812 7.35932e-19)
(2.58571e-05 -5.79016e-05 4.03923e-19)
(1.73775e-05 1.41976e-05 -9.46917e-20)
(3.00938e-05 8.90144e-05 -3.20229e-19)
(0.000211838 -0.000213883 -5.45299e-19)
(0.00324981 0.00346392 2.90705e-21)
)
;

boundaryField
{
    back
    {
        type            empty;
    }
    ingreso
    {
        type            fixedValue;
        value           uniform (0.0008 0 0);
    }
    salida
    {
        type            zeroGradient;
    }
    front
    {
        type            empty;
    }
    defaultFaces
    {
        type            noSlip;
    }
}


// ************************************************************************* //
