/*--------------------------------*- C++ -*----------------------------------*\
  =========                 |
  \\      /  F ield         | OpenFOAM: The Open Source CFD Toolbox
   \\    /   O peration     | Website:  https://openfoam.org
    \\  /    A nd           | Version:  7
     \\/     M anipulation  |
\*---------------------------------------------------------------------------*/
FoamFile
{
    version     2.0;
    format      ascii;
    class       volVectorField;
    location    "77";
    object      U;
}
// * * * * * * * * * * * * * * * * * * * * * * * * * * * * * * * * * * * * * //

dimensions      [0 1 -1 0 0 0 0];

internalField   nonuniform List<vector> 
591
(
(0.00083164 -1.97044e-05 1.21772e-18)
(0.000823 -1.86062e-05 -6.63746e-19)
(0.000857021 1.69752e-07 5.71308e-20)
(0.00086182 -1.4533e-05 -1.49104e-19)
(0.000846678 -7.75697e-07 2.25572e-19)
(0.000802824 -4.03906e-05 -1.39626e-19)
(0.00056371 -0.000273192 8.06369e-19)
(0.000803707 4.44114e-06 2.09321e-18)
(0.0057329 0.0025049 9.87956e-19)
(0.000803586 -1.06052e-05 2.45333e-18)
(4.81446e-05 0.000167155 1.21832e-18)
(0.000934338 0.00138193 9.40845e-21)
(0.000799992 4.53826e-06 1.32527e-18)
(0.00159964 0.00239661 -7.87591e-19)
(0.000803416 2.06273e-06 -4.45053e-19)
(5.76194e-05 -0.0001885 2.37447e-22)
(0.000138023 0.000676087 7.04986e-19)
(0.000818281 7.08721e-05 -4.98002e-19)
(0.00191842 0.000393794 4.73938e-19)
(0.00135941 0.000252788 -2.47114e-19)
(0.000833147 -6.71327e-06 3.73234e-19)
(0.00340004 0.00655945 -8.15124e-20)
(2.61258e-05 6.83629e-05 2.70958e-19)
(0.00083574 -1.91548e-05 -4.51314e-19)
(9.74533e-06 -1.45914e-05 3.58942e-19)
(0.000778584 3.54733e-05 0)
(9.36169e-05 0.000472316 1.59973e-19)
(0.000552174 6.98411e-06 -1.78846e-19)
(0.000756597 4.7032e-05 1.14955e-18)
(0.000809972 5.73359e-05 5.87962e-19)
(5.51379e-05 -4.22003e-06 -4.63005e-24)
(2.94482e-05 -4.43562e-05 3.5219e-19)
(3.41654e-05 -2.91426e-06 -4.64242e-20)
(4.31754e-05 -1.2043e-05 0)
(5.22353e-05 -1.30547e-05 1.13151e-18)
(0.00117409 0.000134017 1.79932e-19)
(2.90151e-05 -5.01476e-06 4.47162e-20)
(0.000825892 2.8484e-06 3.1114e-23)
(2.59954e-05 4.21568e-05 2.66039e-19)
(6.91548e-06 -8.9668e-05 -8.5485e-19)
(0.000645436 -0.000202742 9.59778e-19)
(2.30723e-05 -6.19741e-06 4.54842e-20)
(0.000805105 5.67131e-06 -1.58095e-18)
(0.000831716 4.51673e-05 -6.91175e-19)
(1.55017e-05 -7.20485e-06 0)
(5.29964e-05 6.03752e-06 8.51903e-20)
(0.00134686 0.00450176 8.93022e-19)
(7.37736e-05 1.44264e-05 8.63656e-20)
(0.000801207 1.62773e-05 0)
(0.000386119 -0.000215435 6.77474e-19)
(0.000384057 0.000271505 5.11933e-21)
(0.000396692 4.45732e-05 -1.00383e-18)
(0.00634819 0.0109414 -7.68626e-19)
(0.00622488 0.0107965 1.52802e-20)
(0.00561436 0.0103793 1.45603e-18)
(0.000807974 3.40346e-05 0)
(6.53472e-05 2.93458e-05 0)
(0.000317882 8.6512e-06 1.75364e-23)
(6.09222e-05 9.4029e-06 -3.46471e-19)
(0.000814035 -7.87785e-06 0)
(0.000643936 2.88908e-05 3.17573e-19)
(0.000837342 1.46333e-05 2.20763e-18)
(0.000803726 3.28747e-05 -5.39834e-19)
(0.000799832 1.38036e-05 -3.15761e-19)
(0.00171207 0.000488435 5.42811e-19)
(0.00080213 1.97457e-05 -1.15186e-18)
(0.000831227 2.43638e-05 -5.24282e-19)
(7.77249e-05 -3.88018e-06 -1.73418e-19)
(0.000688846 0.00226169 0)
(0.000839706 4.16096e-05 0)
(0.000782282 1.84972e-05 -1.39285e-18)
(3.6762e-05 1.5221e-05 0)
(0.000289983 0.00026855 3.26858e-19)
(3.80029e-05 -1.67269e-05 0)
(3.95235e-05 -5.77953e-06 1.59478e-19)
(1.26209e-05 -4.17887e-05 -3.36682e-20)
(0.000794213 7.75473e-05 2.46917e-19)
(4.27527e-05 9.98495e-06 0)
(0.000803851 5.59448e-05 4.47469e-19)
(0.000775228 0.000293547 2.10734e-19)
(0.000963634 6.39607e-05 -3.97932e-20)
(4.15913e-05 2.19837e-05 -4.51879e-20)
(5.05337e-06 -1.94665e-05 0)
(0.000436197 0.000214948 1.70191e-19)
(2.82633e-06 2.07202e-05 0)
(0.00079689 4.00597e-05 -6.06748e-19)
(0.000619221 -0.000119696 0)
(6.24485e-05 -2.58634e-06 -1.74486e-19)
(2.57895e-06 -2.67259e-05 0)
(0.000830603 0.000240928 -3.41273e-19)
(3.23982e-06 -1.14469e-05 0)
(0.000425734 0.000322422 -1.31585e-23)
(0.000533995 0.000110754 0)
(0.000809697 4.37873e-05 -3.06046e-24)
(2.55568e-06 1.29248e-05 -4.21728e-20)
(0.000459348 -1.73139e-05 1.76359e-18)
(0.00102235 7.22581e-05 4.16036e-20)
(0.000817593 4.52982e-05 6.41325e-22)
(0.000741348 0.000658115 2.69509e-19)
(6.82931e-06 4.57004e-05 0)
(-1.72283e-06 -3.79527e-05 -3.12101e-19)
(-2.70022e-05 -6.33933e-05 -1.10126e-18)
(4.43205e-06 7.36583e-05 -5.96387e-19)
(0.00061173 -2.32152e-05 0)
(8.53222e-06 9.79884e-05 0)
(0.000814198 2.80177e-05 2.18219e-18)
(0.000791363 2.72866e-05 1.53433e-18)
(0.000432291 -8.9881e-05 0)
(4.12339e-05 0.000215252 -8.9541e-19)
(1.46688e-07 0.00016331 4.96753e-19)
(5.9872e-05 0.000404315 6.25247e-19)
(0.000307167 7.78113e-05 -9.37175e-19)
(0.00080252 2.01514e-05 1.37366e-19)
(0.000260151 -5.00752e-05 5.31241e-19)
(4.23671e-06 2.99738e-05 0)
(2.06201e-05 0.000281115 -1.09403e-18)
(0.000321967 0.000322399 -1.61709e-19)
(1.78956e-07 -3.0962e-05 1.46541e-19)
(0.000670188 0.000812319 0)
(0.000369973 0.000386031 5.74434e-20)
(0.000818399 1.98278e-05 1.0703e-18)
(0.000799596 1.64592e-06 -2.72277e-18)
(5.50183e-06 -2.61771e-05 0)
(0.000668204 -3.56815e-05 -1.12318e-19)
(0.000321646 -0.000124157 1.24327e-18)
(0.00263914 0.000809156 -3.3642e-19)
(6.40837e-06 0.000127884 -6.1321e-19)
(6.0986e-06 0.000156486 1.61954e-18)
(0.00069343 2.3347e-05 -3.89908e-20)
(6.06543e-05 -1.44686e-05 -7.50193e-19)
(0.00080802 3.185e-05 -3.86953e-19)
(0.000742523 2.65288e-05 -4.10464e-20)
(3.4959e-05 0.000327214 -5.97056e-19)
(0.0004909 6.20345e-05 -4.93949e-19)
(4.63681e-05 -3.65393e-06 1.56158e-19)
(0.000835964 3.23445e-05 -1.09314e-18)
(0.00154952 0.000236638 -1.13716e-18)
(4.5757e-06 5.92852e-05 4.96448e-19)
(0.000810673 3.12767e-05 -4.98287e-19)
(0.000916017 0.000545978 -7.85129e-20)
(0.000147266 0.000786675 0)
(0.000587175 6.41874e-05 0)
(0.000276311 4.99653e-05 -1.6097e-18)
(6.17874e-05 5.64805e-05 -1.37414e-18)
(2.95413e-05 1.95535e-05 0)
(0.00424708 0.00740006 -1.01969e-20)
(0.00422541 0.00737199 3.16508e-20)
(0.00442762 0.00757478 -4.96717e-21)
(0.00420651 0.00773454 0)
(0.00419893 0.00760037 5.7729e-19)
(0.00424421 0.00740141 -9.20049e-20)
(0.00421022 0.00804213 4.84509e-19)
(0.00428954 0.0074221 0)
(0.00420845 0.00853523 6.16835e-19)
(0.00432601 0.00745056 2.23923e-19)
(0.000827066 1.11798e-05 -1.37378e-18)
(0.000773458 5.55711e-05 0)
(0.000212645 4.84541e-05 1.27702e-19)
(4.84676e-05 1.46523e-05 8.71877e-20)
(7.60345e-05 4.25108e-05 6.80044e-19)
(0.000103405 3.83394e-05 -3.41681e-19)
(9.70286e-05 2.86402e-06 0)
(4.6051e-05 4.16787e-06 8.18402e-20)
(0.000206656 0.000128934 0)
(0.000163764 3.76876e-05 -5.24321e-20)
(0.000344744 0.000220042 -5.09275e-21)
(5.42605e-05 4.10682e-05 -4.3767e-19)
(8.82253e-05 2.47475e-05 -8.52503e-20)
(8.8567e-05 5.92096e-05 1.31199e-21)
(0.000257462 0.000364241 -6.662e-19)
(0.000108034 0.000997742 0)
(4.07867e-05 5.07517e-05 3.43074e-19)
(0.000198682 0.00174876 0)
(0.000208033 0.000251123 7.04688e-19)
(3.55376e-05 -3.48489e-06 1.11499e-19)
(0.000486482 0.000162649 -1.72308e-19)
(0.000765178 2.40474e-05 -1.92419e-18)
(4.0665e-05 -1.43957e-06 4.59857e-24)
(0.000145482 2.07701e-05 2.24599e-19)
(0.000244831 8.83201e-05 -8.99363e-20)
(0.000881642 0.000701483 3.34953e-19)
(0.000724795 0.0016345 -9.23607e-21)
(0.000399162 0.00142186 -9.39432e-21)
(0.0010261 0.00054659 0)
(9.84087e-05 -1.737e-05 1.11875e-18)
(0.000112696 1.21575e-05 -4.43112e-20)
(0.000460923 -0.000284673 -1.13619e-18)
(0.000817736 4.07612e-05 0)
(0.00017969 -4.05447e-06 3.63317e-19)
(0.000301372 0.00130586 0)
(0.00108348 0.000775028 -7.30224e-20)
(0.000827022 3.20492e-05 -1.86563e-19)
(7.33048e-05 -2.21575e-05 -2.9999e-19)
(0.000832932 0.000317956 -2.08055e-20)
(5.26122e-05 -2.13428e-05 -5.99517e-19)
(0.000226685 0.000172433 8.63913e-20)
(0.000230433 0.00030758 -3.45025e-19)
(0.00088946 0.000249498 0)
(0.000818754 5.34189e-05 0)
(0.000264472 0.000131927 1.76854e-19)
(0.000233507 -4.22762e-06 4.45582e-24)
(0.000184568 0.000203384 0)
(0.000299094 0.000651172 -5.55722e-21)
(0.000351981 -1.28207e-05 0)
(0.000376289 0.00059916 0)
(0.000107067 7.92545e-05 -1.34675e-21)
(0.000810348 3.01005e-05 -9.5133e-19)
(0.00080698 1.96408e-05 7.97968e-19)
(0.000126891 5.39482e-05 -1.49862e-19)
(0.000962795 0.000148302 8.50507e-20)
(0.000838568 4.16907e-05 3.33304e-19)
(0.00081877 2.95746e-05 -2.94126e-19)
(0.00102439 0.000416389 0)
(0.000441381 0.000116262 6.24458e-19)
(0.000902814 0.000321514 2.09145e-20)
(0.00058199 0.000154223 0)
(0.000272474 0.000446607 4.09658e-19)
(0.000262027 0.000214315 -8.44211e-20)
(0.00109759 0.000379994 -7.82163e-19)
(0.000628966 0.000103587 -1.79297e-19)
(0.000813602 7.36466e-05 -7.45792e-21)
(0.00084256 2.78055e-05 9.40056e-20)
(6.972e-05 -8.69529e-05 -1.98146e-18)
(0.000741302 0.000380912 2.19243e-19)
(0.000673737 6.51065e-05 2.30643e-20)
(0.000709979 0.000279388 1.60824e-23)
(0.000733059 0.00046044 -4.09704e-19)
(0.000848195 2.52551e-05 9.0696e-20)
(7.05022e-05 7.71084e-05 0)
(0.000658797 0.000421303 -4.65936e-20)
(0.000182974 9.14364e-05 0)
(0.000374576 0.000501738 -2.64849e-19)
(0.000310456 0.000164538 0)
(0.000677942 0.000205051 3.55238e-19)
(0.000652802 0.000259668 -4.37267e-20)
(8.06998e-05 0.000101798 6.1918e-19)
(0.000878297 9.46387e-05 -1.6299e-18)
(5.57449e-05 2.0541e-05 2.57201e-19)
(0.000890126 7.10376e-05 -1.686e-18)
(0.000843049 8.9497e-05 1.63012e-19)
(0.000811251 3.40731e-05 1.90966e-18)
(0.000818332 3.36214e-05 -1.32854e-19)
(0.000739534 7.17979e-05 0)
(0.000805884 2.33946e-05 8.9564e-19)
(0.000963975 0.000232199 -4.27114e-19)
(0.000777889 9.60577e-05 -4.8375e-19)
(0.000780126 0.000233567 -8.8125e-20)
(0.00020756 -0.00017475 -2.07765e-18)
(0.000751865 8.01184e-05 8.87564e-19)
(0.000641323 0.000594784 0)
(8.0054e-05 -0.00011895 0)
(0.00122441 0.000472731 4.97296e-19)
(0.000602065 -6.0403e-05 -3.26779e-18)
(0.00134778 0.000415146 5.76507e-19)
(0.00124614 0.000717767 -6.38915e-20)
(0.000813656 3.15606e-05 -2.12371e-19)
(0.000838325 6.69935e-05 -1.42618e-18)
(0.000814982 2.68694e-05 1.58785e-18)
(0.000817002 2.56404e-05 9.78253e-20)
(0.000671305 0.000352903 -4.40417e-20)
(0.000100691 0.000120033 6.33761e-24)
(0.000755548 -3.65997e-05 2.65073e-19)
(0.000214047 -0.000263272 -7.32078e-19)
(0.000628091 0.000185169 0)
(0.000713938 4.76459e-05 9.90426e-20)
(0.000701801 9.72694e-06 -3.80821e-19)
(0.000391354 0.00016858 3.93376e-20)
(0.000808663 0.000507653 -1.65481e-19)
(0.000147511 7.20138e-05 3.36237e-25)
(0.000813845 0.0004127 0)
(0.000982535 0.000317243 4.15783e-20)
(0.000760702 -7.17974e-05 -6.16157e-19)
(0.000350225 0.000102025 4.97828e-19)
(0.000904259 0.000426667 0)
(4.76563e-05 2.98382e-05 1.33715e-19)
(0.000486899 0.000265859 2.13957e-19)
(0.000520136 -0.000157671 -7.09508e-19)
(0.000119977 -0.000166453 -1.05622e-18)
(0.000825184 3.49479e-05 -4.86801e-19)
(0.000771221 -8.0237e-05 -1.94327e-19)
(0.000547598 0.000729662 -1.17442e-18)
(0.000849914 4.7185e-05 -6.74459e-20)
(0.000609416 -1.92636e-05 1.27938e-18)
(0.000708098 9.95849e-05 2.27786e-20)
(0.000535249 0.000207808 -1.65689e-19)
(2.89303e-05 -2.08338e-05 -8.75868e-20)
(0.000162485 -4.89612e-05 2.40613e-18)
(1.63714e-05 6.6675e-07 -1.9485e-19)
(0.000832344 0.000115289 3.63754e-19)
(0.000668767 0.000135826 0)
(0.000181816 -9.3577e-05 -1.04818e-18)
(0.000118281 -2.11365e-05 3.12885e-19)
(0.000103708 -3.7641e-05 1.29733e-23)
(0.000801549 0.00010562 -3.1927e-19)
(0.000150655 -1.58159e-05 0)
(0.000587961 0.000240942 0)
(0.000111304 0.000327601 -3.62863e-19)
(0.000863272 0.000100738 2.10194e-18)
(1.33358e-05 9.80478e-07 0)
(0.000881682 5.32118e-05 0)
(4.09999e-05 -2.56422e-05 0)
(0.000815432 4.70863e-05 -4.46821e-21)
(0.000788136 -4.10445e-05 0)
(0.00426001 0.00740644 8.07027e-20)
(0.00436184 0.00748642 1.43357e-19)
(0.000843797 -8.94865e-06 0)
(0.000790084 -4.43293e-05 8.12214e-19)
(0.000152355 0.000121957 1.49213e-19)
(0.000855515 6.77235e-05 8.07741e-19)
(0.000128882 9.89074e-05 2.34402e-20)
(0.000783 -2.68265e-05 6.24398e-19)
(3.35322e-05 9.09754e-06 0)
(2.65156e-05 -1.29171e-05 -4.48492e-20)
(0.000899802 4.88189e-05 -4.86565e-19)
(3.0638e-05 -3.09668e-05 -6.69821e-19)
(0.000759824 0.000122886 -4.23248e-20)
(0.0001686 0.000159751 -1.88105e-19)
(0.000814632 2.9218e-05 0)
(0.00468248 0.00815357 9.00517e-22)
(0.00018393 0.000789142 3.33499e-19)
(0.000111635 -6.13209e-05 -9.14552e-19)
(5.76512e-05 -3.50476e-05 -1.1688e-18)
(0.00062783 1.3576e-05 1.89849e-20)
(0.000582153 0.00040705 0)
(0.000420497 0.000443708 -2.56339e-19)
(7.86764e-05 -6.14224e-05 1.18373e-18)
(0.000586395 2.29204e-08 7.69906e-20)
(4.04447e-05 1.61856e-06 4.07106e-19)
(0.000707125 -4.97167e-05 1.17165e-18)
(0.000811566 3.26989e-05 -6.01728e-19)
(6.03848e-05 -5.49822e-05 1.70938e-18)
(0.000842307 -2.90245e-05 -5.8215e-24)
(0.000604358 6.74465e-06 -3.76337e-20)
(0.000869737 7.03804e-05 0)
(0.000841338 4.22617e-05 0)
(0.0059174 0.00724143 2.59701e-19)
(1.70047e-05 -2.48344e-06 -1.19589e-19)
(0.000117476 -0.00010577 7.73018e-19)
(0.000727815 0.000117016 -6.96452e-19)
(1.99212e-05 5.33167e-08 2.01527e-19)
(0.000629305 -3.58834e-05 -7.23827e-19)
(0.000746083 3.66838e-05 1.55807e-18)
(0.000706825 0.000159243 -3.55446e-19)
(0.000807659 -1.24527e-05 3.60787e-19)
(7.25172e-05 -3.48833e-05 1.11603e-18)
(0.000800359 6.76186e-06 -3.22696e-19)
(0.000868299 4.05251e-05 0)
(0.000543376 0.000303031 4.21027e-20)
(0.000859726 5.09387e-05 -9.46855e-19)
(1.76326e-05 2.55855e-06 9.11343e-19)
(0.000855225 4.55225e-05 9.65655e-19)
(0.000858578 1.2995e-05 -9.64643e-19)
(0.000754097 -1.91603e-06 -5.69186e-19)
(0.000527414 -7.52729e-05 -5.25658e-19)
(0.00432897 0.00745277 2.47052e-19)
(0.0042235 0.00752911 -2.53495e-19)
(0.00422131 0.00758706 2.6688e-19)
(0.00425583 0.00741058 1.97971e-19)
(0.000844868 -3.02566e-05 1.44178e-19)
(0.00447589 0.00751264 0)
(0.00440339 0.007517 -3.86883e-19)
(2.75136e-05 -1.26742e-07 -9.9815e-19)
(0.00417056 0.00746931 -6.33673e-20)
(0.00414592 0.00743242 -2.21517e-19)
(0.00602959 0.010606 0)
(0.0065405 0.0111875 3.71411e-20)
(0.00600953 0.0105757 0)
(0.0065562 0.0112111 1.30867e-19)
(0.00599688 0.0105997 2.69712e-19)
(0.00659288 0.0112279 1.2459e-20)
(0.00593557 0.0106124 -7.76845e-19)
(0.00662314 0.0111468 8.1489e-21)
(0.00390372 0.00919919 -1.90856e-19)
(0.00418685 0.00748836 3.89998e-21)
(0.00423805 0.00755251 7.93619e-20)
(0.00415039 0.00743472 4.12042e-20)
(0.000882602 0.000192982 4.46751e-20)
(9.39991e-06 1.33315e-06 0)
(0.000708476 -0.000117216 0)
(0.00066197 5.24834e-05 0)
(0.00244383 0.00111131 4.23431e-21)
(0.000755973 -3.14804e-05 1.72585e-19)
(3.89898e-05 5.34809e-06 4.54071e-20)
(9.07489e-06 -2.59107e-05 1.65318e-18)
(0.000853256 1.24294e-05 0)
(2.68682e-05 1.20695e-05 -1.91734e-19)
(0.000139845 0.000221531 0)
(1.62131e-05 -9.70981e-07 0)
(1.30502e-05 -1.24072e-06 0)
(0.000826131 0.000141646 1.13747e-20)
(0.000810878 -1.78418e-05 1.79451e-19)
(3.70212e-05 0.000269727 -1.4911e-23)
(0.0001574 0.000271583 -1.842e-18)
(0.000604624 0.000328449 -8.57029e-20)
(0.000897502 0.000109949 6.00987e-19)
(0.000645817 -0.000200771 6.73629e-19)
(0.000362249 0.00111047 0)
(0.000474309 0.000575291 2.71537e-18)
(8.98368e-05 0.00014417 -1.80319e-18)
(2.03783e-05 -2.23009e-08 0)
(0.000821799 -5.95888e-05 3.63678e-20)
(1.57691e-05 3.50262e-05 1.64455e-18)
(0.00089835 3.30579e-05 2.71181e-19)
(-2.17395e-05 2.38464e-05 3.80887e-18)
(0.000929268 4.0187e-05 -2.69048e-19)
(0.00134576 0.000150927 7.47224e-19)
(3.37154e-05 -1.04341e-05 8.25741e-20)
(3.52502e-05 3.41634e-06 -8.59128e-19)
(5.07523e-05 0.000140804 0)
(0.000911861 8.20533e-05 5.98559e-19)
(0.000494785 0.000367865 2.37153e-19)
(0.000652001 1.77522e-05 -3.89149e-20)
(0.000779899 -2.43073e-06 2.57354e-19)
(0.000735119 -0.000172015 0)
(0.00632135 0.0108963 -1.68075e-19)
(0.0063791 0.010974 4.05867e-19)
(0.00616036 0.0107311 -6.18498e-19)
(0.00650154 0.0111328 -8.09859e-20)
(3.38181e-05 0.00011754 8.0057e-19)
(0.000922175 6.01968e-05 1.454e-22)
(0.00641166 0.0110065 -3.86493e-19)
(0.0062823 0.010846 5.48517e-19)
(0.00608047 0.0106729 -4.16869e-19)
(0.00652204 0.0111652 -6.81452e-20)
(7.99702e-05 0.000503154 -2.01823e-20)
(7.45757e-05 -0.000201185 -7.93073e-19)
(0.000665302 -2.07487e-05 -7.65271e-19)
(0.000725394 0.000220096 0)
(0.00080016 3.54554e-07 0)
(0.000186712 0.000389768 3.36313e-19)
(0.000598895 0.000513709 -5.41894e-19)
(8.85555e-06 -1.51382e-06 1.78404e-19)
(0.00020076 0.000467277 -7.38428e-19)
(0.00101241 0.000974109 -1.1269e-19)
(0.000745227 0.000165912 0)
(0.000789218 0.000184108 1.31027e-19)
(0.00635387 0.00588076 1.13152e-18)
(0.00073931 0.00112843 8.26633e-20)
(3.80759e-05 3.73647e-05 -7.44726e-20)
(0.000809668 1.24559e-05 0)
(0.000873999 2.55922e-05 -3.56926e-20)
(3.35687e-05 3.01824e-06 -1.96724e-19)
(2.90791e-05 4.41482e-06 1.93005e-19)
(0.00083345 1.76098e-05 5.37246e-19)
(0.000974358 0.000110403 6.58287e-19)
(0.00056031 4.00064e-05 0)
(0.000222783 -0.000294922 -3.98108e-19)
(0.00091615 0.000146157 3.89617e-19)
(1.05203e-05 -5.85663e-05 2.03129e-19)
(0.00145146 0.000443052 -2.58191e-18)
(0.000589039 -8.75054e-06 0)
(0.000792923 0.000143643 3.75489e-19)
(9.46974e-05 0.000393808 0)
(0.00118808 0.00816132 4.62184e-19)
(0.000491471 0.000499442 -1.22461e-18)
(0.000541205 0.001011 -1.83762e-19)
(0.000882341 1.74746e-05 -1.46063e-19)
(1.27055e-05 2.47874e-05 0)
(0.00094941 7.73974e-05 6.11722e-19)
(0.00410634 0.00739551 8.14309e-20)
(0.00417141 0.00747379 4.73059e-20)
(0.00449968 0.00751535 4.54115e-19)
(0.00444487 0.00754122 -3.29413e-19)
(0.00647548 0.0111098 8.10634e-20)
(0.00391483 0.00714607 -9.64894e-22)
(0.00550798 0.0077979 -5.64817e-19)
(0.00409786 0.00737169 5.21896e-21)
(0.00518863 0.00785761 5.11744e-19)
(0.00407967 0.00734015 -4.87199e-20)
(0.00495367 0.00771697 0)
(0.00408497 0.00736455 -8.56592e-20)
(0.00474232 0.00758808 4.92575e-19)
(0.00409824 0.00737616 8.75177e-20)
(0.00457489 0.00752769 0)
(0.00428356 0.00742066 1.39758e-19)
(0.00423952 0.00759866 5.80519e-19)
(0.0044673 0.00752666 -5.55412e-19)
(0.00438759 0.00750457 3.71424e-19)
(0.00422806 0.00752504 2.87672e-19)
(0.00643085 0.0110432 -4.97756e-21)
(0.0041178 0.00740162 3.11614e-20)
(0.00645894 0.011073 0)
(2.34773e-05 5.61705e-06 -1.89871e-19)
(0.00199998 0.00654412 2.28273e-19)
(0.000838667 -5.09268e-05 1.09794e-19)
(0.000855863 7.79617e-06 0)
(1.43113e-06 1.19683e-06 -3.99135e-19)
(-1.20389e-05 -0.000124242 6.91976e-19)
(2.41963e-05 5.60793e-05 2.08912e-18)
(0.00082931 0.000181204 -9.00769e-20)
(0.000800591 8.99574e-06 7.0643e-19)
(1.17437e-06 -9.42525e-07 3.10007e-19)
(1.77694e-05 -3.30989e-05 -1.84576e-18)
(0.000762899 2.72923e-05 1.63161e-19)
(0.000868467 0.000123934 -3.08005e-20)
(0.000800589 -8.49907e-06 1.48144e-19)
(0.000417736 0.000680044 0)
(3.75635e-05 -0.000144852 1.15153e-18)
(0.000865668 6.84716e-06 1.52526e-19)
(1.96497e-05 2.34128e-05 0)
(0.000116071 0.000559243 -6.31278e-19)
(0.000608949 0.00059216 1.31802e-18)
(0.000326774 0.00075283 0)
(0.00080146 -1.64177e-05 0)
(0.000801171 2.93183e-06 1.17526e-18)
(1.71615e-05 4.84871e-05 -3.51516e-18)
(1.62535e-05 6.94206e-06 3.73644e-19)
(0.000116283 0.0001439 0)
(4.33901e-05 -4.06222e-05 0)
(6.14035e-05 0.000111597 2.01011e-19)
(0.000937356 0.000188655 3.50452e-19)
(0.000800058 1.5355e-05 -1.39703e-18)
(2.25109e-05 3.26262e-05 0)
(0.000449587 8.22575e-06 -6.04225e-20)
(0.000800991 3.7995e-05 -1.56355e-19)
(0.000843286 3.80292e-05 1.06402e-18)
(0.000257335 0.000542096 6.32265e-19)
(0.000877279 0.00015666 0)
(1.79341e-05 -2.30502e-05 5.3867e-19)
(2.33985e-06 -5.1705e-06 -3.19985e-19)
(0.000971641 3.20757e-05 0)
(0.00103693 0.00226625 0)
(0.000931025 -3.73105e-06 0)
(0.00100254 0.000207412 4.27203e-19)
(0.000817688 -3.48952e-05 -2.84122e-19)
(0.000932599 0.00010936 -6.84813e-19)
(0.000800773 3.37208e-06 0)
(4.1719e-05 6.8001e-05 -1.71576e-19)
(0.000174432 0.000326452 1.0812e-18)
(0.000799492 1.45561e-05 -2.00326e-23)
(0.00109324 0.000209771 -6.68943e-19)
(0.00108997 0.000126359 0)
(2.41757e-06 5.85664e-06 2.51045e-19)
(1.77641e-05 -1.48926e-05 -1.94326e-19)
(0.000570334 4.10271e-05 6.9505e-21)
(6.93457e-06 -7.68936e-05 0)
(0.00106402 0.000254817 9.50095e-19)
(0.00502875 0.00974877 -2.83066e-19)
(0.00312132 0.00961793 1.27276e-18)
(3.73086e-05 -0.000103718 -1.9135e-19)
(5.22186e-05 -7.46799e-05 1.85961e-18)
(0.0011907 0.000248468 1.67352e-19)
(0.00132798 0.00107903 2.341e-19)
(0.000811193 8.15547e-07 -7.33147e-19)
(0.000197373 0.000951211 -2.38253e-19)
(0.000815995 0.000938098 -2.18597e-19)
(0.000800102 -2.57715e-06 0)
(8.38913e-05 0.000622289 0)
(9.53055e-05 0.000281597 -3.91713e-23)
(0.000718974 -4.37732e-05 -1.67791e-23)
(0.000823511 6.6799e-05 1.52617e-19)
(0.00263078 0.00206263 -1.23134e-18)
(0.00175976 0.009238 -1.17233e-19)
(0.000834769 5.74079e-05 4.92278e-19)
(0.00632675 0.00404928 -1.76011e-19)
(0.00672111 0.0115578 -1.36465e-20)
(0.00473412 0.00784387 4.92917e-21)
(0.000802585 1.36021e-05 -2.1924e-18)
(0.000838248 6.76079e-06 5.78292e-24)
(8.2041e-06 -7.2182e-06 -3.4804e-19)
(4.62625e-05 8.88572e-05 -3.49301e-19)
(6.56123e-05 0.000268793 8.75294e-19)
(1.06781e-05 1.57745e-05 4.90439e-19)
(8.96517e-05 0.000229301 3.69789e-19)
(0.000822132 2.18874e-05 0)
(0.00534812 0.00949247 1.95048e-20)
(0.00153567 0.000636305 -2.61245e-20)
(0.000819829 3.63003e-05 3.60199e-19)
(3.12252e-05 -8.09245e-05 0)
(0.00184779 0.000744969 5.46022e-19)
(9.11143e-06 7.2963e-06 -2.70172e-19)
(3.34033e-05 2.79396e-05 9.71887e-20)
(0.00132962 0.00139679 6.36644e-19)
(0.000736782 4.86166e-05 1.83114e-19)
(4.42758e-06 -1.48969e-06 -1.70215e-19)
(0.00206175 0.00156012 -1.05592e-18)
(0.000126508 0.00017792 -8.18806e-19)
(0.00392133 0.00848718 -1.09097e-18)
(5.10365e-06 1.47695e-06 8.81487e-20)
(0.000126928 -0.000103252 -1.25719e-18)
(4.63411e-05 -5.70058e-05 4.05673e-20)
(0.00152569 0.000983916 0)
(0.00104001 0.000138557 -4.04532e-22)
(0.00045356 0.000848728 -4.02062e-20)
(0.000802901 2.75517e-05 -2.34093e-19)
(8.70899e-05 0.000184109 7.36115e-19)
(2.96874e-05 -6.04837e-05 4.04037e-19)
(1.80852e-05 1.49088e-05 -9.47167e-20)
(3.11158e-05 9.14132e-05 -3.20311e-19)
(0.000208306 -0.000240223 -5.4524e-19)
(0.00325023 0.00346131 2.88481e-21)
)
;

boundaryField
{
    back
    {
        type            empty;
    }
    ingreso
    {
        type            fixedValue;
        value           uniform (0.0008 0 0);
    }
    salida
    {
        type            zeroGradient;
    }
    front
    {
        type            empty;
    }
    defaultFaces
    {
        type            noSlip;
    }
}


// ************************************************************************* //
