/*--------------------------------*- C++ -*----------------------------------*\
  =========                 |
  \\      /  F ield         | OpenFOAM: The Open Source CFD Toolbox
   \\    /   O peration     | Website:  https://openfoam.org
    \\  /    A nd           | Version:  7
     \\/     M anipulation  |
\*---------------------------------------------------------------------------*/
FoamFile
{
    version     2.0;
    format      ascii;
    class       surfaceScalarField;
    location    "59.5";
    object      phi;
}
// * * * * * * * * * * * * * * * * * * * * * * * * * * * * * * * * * * * * * //

dimensions      [0 3 -1 0 0 0 0];

internalField   nonuniform List<scalar> 
1111
(
6.52027e-09
1.31967e-08
-1.58693e-08
-3.84766e-09
6.58235e-09
-1.18128e-08
1.17507e-08
-1.47334e-08
5.18566e-09
9.24665e-09
3.0104e-10
5.18719e-10
-6.00401e-10
-1.42356e-08
1.43172e-08
-1.41519e-08
1.3893e-08
7.77591e-10
-1.64748e-09
1.48908e-08
2.18525e-09
-3.71995e-09
9.73697e-09
-1.05091e-08
4.49211e-09
-6.69743e-09
-1.26183e-08
1.25889e-08
6.72679e-09
-5.04673e-08
-2.59158e-08
7.63831e-08
-8.12139e-09
7.60386e-09
7.09987e-09
3.52998e-09
3.46101e-10
-3.6099e-09
-2.66178e-10
1.5641e-08
-1.5954e-08
-2.30465e-08
2.33596e-08
-9.63908e-09
-7.91187e-09
8.78507e-09
8.76588e-09
-3.53302e-08
1.76087e-08
-3.23375e-08
5.0059e-08
9.52717e-09
-1.95199e-09
-1.42726e-08
-1.59564e-09
2.32364e-09
-3.65226e-09
2.92426e-09
-3.77257e-09
1.33087e-08
1.94528e-09
-1.14814e-08
8.84119e-09
-2.43479e-09
-1.50348e-08
8.62844e-09
3.7683e-08
-3.0519e-08
-7.16398e-09
-1.93911e-08
2.32284e-10
1.73752e-08
1.78363e-09
-8.2428e-10
4.09764e-09
-1.78877e-08
1.46144e-08
-6.122e-08
-3.96263e-09
6.51826e-08
1.55876e-10
-1.28197e-09
-3.59874e-10
1.48597e-09
-1.42753e-09
-1.35486e-08
-1.62941e-10
-3.09721e-10
2.67528e-10
2.05134e-10
-1.01506e-08
-8.22832e-09
1.26312e-08
5.74779e-09
7.16321e-10
-2.14174e-09
-8.43216e-09
9.85758e-09
8.10876e-09
9.17087e-10
-9.04324e-09
1.73931e-11
-2.85079e-09
-7.84959e-09
1.09183e-08
-2.17961e-10
1.13794e-08
-6.62111e-10
-1.87612e-09
-9.69093e-10
9.51452e-10
6.28874e-11
-4.52456e-11
-2.51509e-10
8.43134e-10
4.05562e-10
-9.97187e-10
-5.71952e-10
-4.04303e-11
6.0927e-10
3.11293e-12
6.28507e-12
-9.751e-10
1.01714e-10
8.67101e-10
-6.37726e-11
-8.99037e-10
8.18658e-10
-1.8444e-08
-1.76576e-09
-4.83522e-10
5.24731e-11
-1.40904e-10
1.34124e-08
-1.32634e-08
3.94859e-09
-4.13534e-10
6.22963e-10
3.89322e-10
-5.98751e-10
-3.32165e-10
-2.1733e-09
1.68556e-09
8.19903e-10
-2.14021e-09
9.91967e-09
-1.14994e-08
-3.59718e-10
-1.89578e-10
6.57737e-11
-8.79916e-09
1.01854e-08
-9.50765e-09
1.20536e-08
-1.70862e-08
4.89977e-09
1.32839e-10
8.13059e-11
-1.96963e-10
-2.44062e-10
2.41443e-10
8.71111e-10
-1.61103e-10
-5.9567e-08
7.4276e-08
-1.4709e-08
1.11942e-09
-3.32109e-10
-1.281e-09
4.93686e-10
1.12261e-09
1.03184e-08
-1.37316e-08
2.2906e-09
-1.15675e-09
7.20474e-09
-8.66759e-09
2.61959e-09
-6.5381e-09
5.74999e-09
5.53307e-09
-4.74496e-09
-7.25354e-09
-2.09292e-09
2.02399e-09
7.32247e-09
-1.8457e-10
-9.09251e-08
9.13109e-08
-2.01208e-10
-2.5903e-10
-8.97649e-08
9.01732e-08
-1.49213e-10
8.30926e-08
-1.49754e-09
1.14134e-10
-8.17092e-08
-3.1102e-09
-2.43726e-10
7.68702e-10
8.97586e-10
-5.46866e-10
4.00184e-09
-1.53679e-09
3.32347e-09
-5.78852e-09
-1.06844e-09
9.7777e-10
-1.49763e-08
6.61575e-09
9.41413e-09
9.93789e-10
-1.01292e-08
-2.78682e-10
-6.25063e-09
1.30666e-08
1.33749e-09
-8.15344e-09
1.43298e-08
-4.24421e-09
3.43428e-09
-1.35199e-08
1.54239e-08
1.72438e-09
-1.71946e-09
-3.96148e-10
-1.99868e-08
-7.26297e-09
2.76459e-08
1.39382e-08
-8.40758e-09
-2.10862e-09
7.74881e-09
-1.18908e-08
-7.97518e-11
1.88832e-10
-1.39008e-09
-3.63826e-08
-2.31844e-08
8.11377e-09
1.24698e-10
3.81511e-09
-7.01271e-09
1.08365e-08
6.36169e-09
-6.63831e-10
3.71776e-10
5.35227e-10
-2.43172e-10
5.88344e-09
-4.67488e-09
3.58568e-09
-4.79425e-09
-5.76774e-10
-6.90694e-10
2.92367e-10
7.63561e-10
-7.02279e-10
-1.01349e-10
-1.04648e-09
8.96322e-10
-1.77884e-08
2.48465e-09
1.49249e-09
1.38113e-08
2.73986e-10
-7.79947e-10
-1.57871e-10
-3.95796e-09
-1.49e-08
1.06956e-09
5.65601e-09
1.18813e-08
-5.23165e-09
-1.23057e-08
1.64634e-08
5.99147e-10
-1.59317e-08
-1.13081e-09
-7.47936e-10
5.20521e-10
5.99191e-10
-6.82733e-10
3.5895e-10
3.23783e-10
-7.21579e-09
-3.71248e-09
4.39017e-09
-3.14945e-10
4.65514e-10
-1.50568e-10
1.3028e-09
-1.54114e-08
-8.39693e-10
9.25374e-09
-1.05543e-08
-1.0853e-09
-7.84083e-10
1.27039e-08
4.38974e-09
-4.13148e-09
-1.29622e-08
1.96008e-10
7.02387e-09
-7.74689e-09
6.47301e-09
-1.83813e-09
-8.65087e-09
7.9397e-09
2.5493e-09
-1.79575e-09
6.21891e-10
-1.37262e-08
-1.8607e-10
-1.28876e-10
-2.02553e-10
1.03939e-09
-8.09037e-09
7.37895e-10
1.73225e-08
-1.59707e-09
-1.31919e-08
1.44756e-08
-1.28374e-09
1.20763e-08
1.40635e-08
-1.55836e-08
-1.05561e-08
-6.9759e-10
1.21812e-09
-5.20532e-10
9.14444e-10
-1.09297e-09
1.78526e-10
1.42514e-09
-1.828e-09
4.02867e-10
1.6644e-09
-1.374e-09
-2.90409e-10
-1.10848e-08
5.44284e-10
1.05405e-08
2.35531e-09
-6.90904e-10
8.91267e-09
-1.52655e-08
6.92744e-09
-8.28674e-09
5.87999e-11
3.87208e-09
-4.00901e-10
-2.70141e-09
2.76021e-09
-7.00054e-09
8.32648e-09
-1.32595e-09
-7.5585e-10
4.15603e-09
6.01658e-10
1.72503e-08
-1.45109e-08
-1.61676e-09
-5.66722e-09
5.24926e-09
-1.11883e-09
-2.32079e-10
6.28422e-09
-6.31026e-09
2.60413e-11
7.00917e-09
4.40734e-09
1.3036e-10
-1.59794e-08
1.0463e-08
1.75927e-08
5.70571e-09
8.32732e-09
8.2539e-09
-6.82858e-09
1.06188e-09
-1.21467e-08
9.54004e-10
5.83515e-10
-1.27843e-08
3.19671e-09
-4.36503e-10
1.2454e-08
-1.18548e-08
-1.72153e-10
-9.76923e-10
-1.37729e-08
7.31001e-09
8.54966e-10
-3.31114e-11
-8.91963e-09
5.14257e-09
-3.09151e-08
-1.25123e-08
-2.62514e-09
1.36456e-09
1.39299e-08
1.09465e-08
-1.06572e-08
-1.42191e-08
1.57203e-08
-3.11815e-09
-1.26022e-08
1.68035e-09
3.89561e-09
-1.32799e-09
-9.5233e-10
-9.71533e-10
1.28742e-09
6.36442e-10
-2.76829e-10
4.02634e-10
4.0942e-10
6.21366e-08
-6.21615e-08
2.49071e-11
6.20571e-08
-6.23609e-08
3.03894e-10
8.37033e-10
6.47506e-08
-6.55788e-08
8.28141e-10
6.41414e-08
6.09201e-10
-2.24347e-10
-6.6526e-08
9.4726e-10
-6.20437e-08
6.19104e-08
1.33312e-10
1.31832e-09
-6.78444e-08
-6.22023e-08
1.58599e-10
1.2265e-08
-9.83888e-10
1.59277e-09
-3.71368e-09
3.1048e-09
3.97158e-10
-1.25848e-09
1.07485e-09
-7.40593e-10
1.45915e-09
-1.72257e-09
1.00401e-09
1.50539e-09
-1.65559e-09
3.39031e-10
-8.60854e-11
-3.36028e-09
2.98026e-09
-2.22761e-09
2.60764e-09
-7.25167e-10
-2.83293e-09
2.57421e-09
-3.76384e-09
-5.656e-09
6.32535e-10
-7.06483e-10
1.37055e-09
1.16346e-09
-6.57793e-09
8.00563e-09
2.97964e-09
2.00899e-08
-4.3696e-09
-7.87825e-10
2.99099e-10
1.12126e-09
-1.00521e-08
-2.63304e-08
5.43501e-09
-4.42256e-09
-3.12346e-09
2.11101e-09
1.27399e-10
1.7568e-11
4.64302e-10
-2.73491e-09
3.45882e-09
8.73465e-09
8.57848e-10
-4.60357e-10
2.18818e-09
-2.45299e-09
2.1281e-09
1.47709e-08
1.32225e-08
-2.69901e-08
3.2579e-08
6.24052e-09
-2.28554e-08
-1.03753e-08
1.82341e-08
-1.77882e-08
1.05006e-08
-2.07381e-10
-8.12349e-11
-1.36698e-09
-1.8439e-09
-2.81369e-09
3.88306e-09
1.48389e-08
-5.98112e-10
-1.36189e-08
-2.0759e-10
-2.67782e-09
5.24787e-11
1.54419e-08
1.75631e-08
1.36596e-08
6.88809e-10
-1.5719e-09
-1.27765e-08
-1.76962e-09
6.01895e-09
1.2341e-08
-6.88422e-10
-1.18754e-09
-3.5426e-09
2.73758e-09
3.78527e-09
2.44276e-09
1.4254e-08
4.14656e-09
-1.40109e-08
1.76793e-08
-1.77077e-09
2.74153e-09
-3.56431e-09
1.87933e-09
-4.67791e-09
1.29179e-08
-1.20125e-08
-1.39602e-08
5.0724e-10
8.77501e-09
-1.87928e-09
1.5765e-09
1.67332e-09
-8.68498e-09
6.38865e-10
-4.46618e-09
-6.05311e-09
1.22158e-08
-1.48477e-08
1.31291e-09
1.66641e-09
-2.20884e-09
1.65653e-08
-1.60229e-08
-9.86955e-10
1.40484e-08
2.90552e-09
-4.21032e-09
-1.39607e-08
7.37239e-09
-1.71273e-08
-8.03324e-09
6.59909e-09
5.86061e-09
1.44124e-08
-9.7085e-09
3.11524e-09
9.14256e-09
9.87456e-09
3.83678e-09
-4.13243e-09
2.15187e-08
-1.89157e-08
4.76944e-09
-1.02386e-08
2.21042e-09
5.52242e-09
1.36493e-08
-1.20909e-10
1.2643e-08
-1.35091e-08
-1.78186e-09
2.26293e-09
-1.33806e-09
8.56996e-10
1.0871e-08
-6.38665e-09
7.39691e-09
-1.06416e-08
1.39678e-09
-4.7527e-09
1.13202e-08
-1.17992e-08
-7.50587e-09
9.06144e-09
9.31547e-09
1.2741e-08
8.61506e-10
-1.37235e-08
1.62754e-09
8.23336e-10
-1.09627e-08
-6.71499e-09
1.01718e-08
-1.64497e-09
2.52215e-09
-8.8904e-09
4.8048e-09
-5.15474e-09
1.13782e-08
-3.49186e-09
-1.15655e-08
3.67917e-09
-4.50915e-09
1.11346e-08
2.03083e-09
1.17322e-09
-5.05914e-09
-1.7552e-08
1.03866e-08
1.22246e-08
8.28062e-10
-1.08476e-08
-9.82352e-09
1.56119e-08
1.23715e-08
2.79236e-09
-9.64143e-09
-1.32395e-08
-2.78963e-10
-1.26512e-08
2.0945e-10
-7.12756e-10
1.14217e-08
1.24478e-08
-8.18253e-09
1.63808e-08
-1.57605e-08
3.52626e-09
-4.48098e-10
1.70644e-09
1.25529e-08
-3.8761e-09
-1.25611e-08
-5.12186e-09
1.13457e-09
4.5708e-09
1.20264e-08
-7.33076e-09
8.08564e-10
-1.37812e-09
1.29117e-09
-1.69491e-09
5.99314e-09
2.60261e-08
-3.44853e-10
-1.12496e-08
1.15944e-08
2.83689e-08
-2.21435e-08
2.19507e-08
1.95173e-08
-1.26406e-08
-2.64023e-09
1.49179e-08
2.1407e-10
-1.2119e-08
-3.18065e-10
-6.0291e-09
-1.92923e-09
2.32676e-09
1.63329e-09
-1.28466e-10
-1.08992e-08
1.11684e-08
-1.40728e-10
2.95957e-09
-5.46183e-09
-1.07584e-08
1.03818e-08
-8.10613e-10
-1.05437e-08
-8.00603e-11
-1.08598e-08
-2.76938e-09
-1.18979e-08
2.24215e-09
7.84e-09
5.11405e-09
-3.6743e-11
-1.16469e-08
1.15552e-08
6.42099e-10
-8.59823e-09
5.24151e-09
-1.18076e-09
2.55908e-09
-2.80264e-09
-1.30053e-08
-1.30306e-08
1.2649e-08
-1.02094e-08
-1.57977e-08
1.00276e-08
9.13702e-09
8.65765e-10
2.59144e-09
-1.3841e-08
1.11149e-08
1.70355e-09
4.00315e-09
3.50302e-10
-5.84391e-10
-3.42686e-10
-4.06082e-09
2.64979e-09
-1.26679e-09
2.83213e-10
-3.3142e-10
4.82065e-11
-2.58397e-09
1.27937e-08
2.16176e-09
2.5669e-09
-6.0885e-10
-1.67586e-09
-2.49276e-10
-2.48917e-09
-5.53668e-10
1.27718e-08
9.87579e-09
-4.27792e-10
6.9992e-09
-1.20664e-09
-5.36476e-09
-9.68272e-09
-5.07693e-09
2.19652e-10
6.35601e-11
4.80105e-09
1.32279e-09
-1.69714e-08
-5.06908e-10
-8.72208e-10
-2.62088e-09
9.58587e-10
2.75748e-09
6.19357e-08
-8.77499e-11
-6.1848e-08
6.23519e-08
1.87328e-10
-6.25393e-08
-1.41891e-08
-1.2505e-11
1.45521e-08
-3.50553e-10
2.86132e-09
-1.98625e-09
2.71415e-09
1.79424e-09
-4.40629e-09
-4.34026e-10
-6.02862e-10
4.88807e-10
-1.29118e-10
5.50817e-10
-3.90094e-10
1.93321e-08
1.11467e-09
-1.56457e-08
-2.48166e-10
-1.95277e-09
1.22683e-08
2.23745e-09
1.75748e-09
5.25787e-09
-1.96827e-09
-7.72352e-08
-2.41775e-08
-4.78314e-09
1.57614e-08
2.3304e-09
-5.14554e-10
-3.2414e-09
-1.28066e-09
5.76709e-10
-4.83587e-10
-1.12348e-08
-3.20288e-10
1.15551e-08
-1.07103e-08
-6.6421e-09
1.06374e-08
-9.34349e-09
8.78041e-09
1.79378e-12
1.74658e-09
1.07172e-08
-1.0528e-08
-1.89214e-10
6.95435e-10
7.63273e-11
1.01616e-08
9.26731e-10
-1.02256e-09
-2.5631e-10
-1.42452e-08
-5.17577e-10
-1.35777e-08
1.2357e-08
-1.16521e-08
-6.59925e-08
6.49487e-08
1.04384e-09
3.77309e-10
-3.59741e-10
1.17772e-08
-3.46384e-10
1.4964e-11
-2.02702e-09
2.77854e-09
-3.41858e-09
-1.35097e-08
-1.65432e-09
2.57219e-09
-4.75987e-09
-1.39097e-08
1.69816e-09
5.60472e-09
9.51258e-09
-8.84693e-09
-3.75068e-10
2.86828e-11
-9.34612e-09
-1.30275e-08
1.49637e-10
-6.27069e-08
2.37339e-10
6.24696e-08
6.96672e-10
6.34448e-08
-2.25781e-10
-1.24449e-09
-1.44186e-08
1.05778e-10
-6.33746e-08
6.32688e-08
1.83068e-10
-6.29235e-08
6.27405e-08
4.66542e-10
6.1805e-08
1.52082e-10
-6.19571e-08
6.16349e-08
1.70122e-10
-8.79063e-08
8.85157e-08
-1.52348e-13
9.33976e-08
-9.31054e-08
-2.67254e-10
-8.66456e-08
-4.32595e-10
9.33566e-08
-1.83377e-10
-8.49309e-08
-7.67447e-10
9.34872e-08
1.73297e-10
-5.20007e-10
1.9612e-09
9.2363e-08
-6.93419e-08
6.21495e-08
-6.23341e-08
-6.29659e-08
6.14913e-08
1.43631e-10
-3.01285e-09
2.82562e-09
-1.38236e-08
7.02753e-11
1.49377e-10
1.92765e-09
9.04682e-09
-1.14816e-08
3.82978e-08
-3.44619e-08
-1.66202e-08
1.37811e-08
-6.52997e-11
-2.22991e-10
2.37052e-10
8.44832e-10
-1.605e-10
3.72477e-10
4.59719e-09
1.02794e-09
-3.7458e-09
-3.04157e-10
3.56629e-10
-2.38384e-10
-2.47635e-09
1.29525e-08
2.31757e-09
-1.44504e-08
-2.5168e-09
-3.54134e-09
5.65363e-09
1.05457e-09
-2.6522e-09
1.42049e-08
-1.16606e-09
-3.07726e-09
4.16257e-09
-8.16633e-09
-1.90586e-08
-1.32444e-08
7.77694e-09
5.97474e-09
-2.89127e-10
-5.32301e-10
3.14819e-09
1.44278e-08
2.09742e-09
-1.63442e-09
-4.46084e-10
4.9112e-10
-2.77115e-10
1.60037e-08
-5.00024e-10
-1.5824e-08
-1.91801e-09
-1.50563e-09
2.99756e-10
-2.27734e-10
3.53792e-09
-1.70779e-08
5.71551e-10
-1.64438e-09
-2.25465e-09
-2.40428e-09
1.5364e-08
-9.06066e-08
-1.35491e-10
9.16906e-08
-1.92348e-10
-8.91803e-08
-4.7883e-10
9.31103e-08
-2.75189e-10
-9.29229e-08
-5.95712e-10
-1.73957e-09
1.64278e-08
9.19923e-08
-1.96083e-10
3.20448e-11
-2.20877e-10
1.02718e-08
2.48057e-09
-8.44202e-09
-1.19961e-08
-5.67287e-09
8.46247e-09
1.40692e-09
-6.88975e-09
-6.17333e-09
9.01439e-09
-1.57078e-10
1.01575e-08
1.93888e-08
-1.77797e-08
3.0507e-09
-1.25329e-08
3.02255e-09
-6.99518e-08
3.95932e-09
-2.03863e-08
-1.30355e-08
-5.59261e-10
-5.9413e-09
-1.53237e-08
9.14595e-09
-1.52269e-08
5.21215e-10
4.40302e-10
-1.66851e-09
-1.63165e-08
1.68521e-08
8.14098e-09
-8.38471e-09
-5.23103e-09
1.51437e-08
-1.71419e-09
7.75368e-10
-1.29096e-09
3.74839e-10
1.192e-08
3.33747e-09
7.09385e-08
-1.80896e-08
8.64007e-10
-1.48115e-08
-2.74947e-10
-3.21707e-10
-1.16493e-10
6.09536e-08
-6.12288e-08
-6.33426e-08
-6.31196e-08
-6.2412e-11
-2.62482e-10
-9.2598e-08
-6.04554e-08
6.24166e-08
6.50628e-08
-6.02821e-08
6.45428e-08
-6.04655e-08
6.37753e-08
-6.07328e-08
6.33427e-08
9.2321e-08
3.43362e-10
-6.43129e-09
7.51095e-08
-6.53407e-08
7.61177e-11
-7.61177e-11
1.15383e-09
-3.59907e-10
1.54989e-08
-7.83937e-11
7.83937e-11
4.25164e-10
1.5704e-09
1.38584e-08
1.32203e-08
-2.77582e-09
3.75405e-09
6.34258e-09
1.93949e-09
4.26518e-10
-2.98832e-10
-2.94978e-09
1.44773e-08
1.4838e-08
-4.26858e-09
1.17855e-08
2.30362e-10
1.83274e-10
2.89523e-09
-9.50234e-10
-1.67714e-09
-5.89358e-09
-1.69003e-10
-4.4935e-10
1.52789e-08
3.1953e-10
1.17614e-10
1.52943e-08
-2.59357e-08
1.74853e-08
2.60629e-09
1.39783e-09
2.40516e-09
-3.6836e-09
1.91398e-08
-1.78613e-08
-1.09953e-10
5.73123e-10
-1.44334e-09
-7.9222e-08
-7.07853e-08
1.42133e-09
-8.6122e-10
6.95658e-10
2.28492e-08
1.84903e-08
-6.41535e-09
1.05764e-10
-4.41595e-09
-2.37679e-09
2.99907e-08
1.53235e-10
1.48185e-08
7.35819e-08
7.86848e-11
5.44019e-10
-1.93666e-10
-2.56917e-10
-3.78892e-09
2.41743e-08
-1.48407e-08
1.13324e-09
-1.398e-08
-7.32578e-11
2.02731e-08
-2.86846e-08
9.06908e-10
2.24456e-09
-5.10887e-10
)
;

boundaryField
{
    back
    {
        type            empty;
        value           nonuniform 0();
    }
    ingreso
    {
        type            calculated;
        value           nonuniform List<scalar> 
14
(
-1.54286e-08
-1.54288e-08
-1.54288e-08
-1.54288e-08
-1.54286e-08
-1.54283e-08
-1.54288e-08
-1.54288e-08
-1.54286e-08
-1.54286e-08
-1.54288e-08
-1.5428e-08
-1.5428e-08
-1.54286e-08
)
;
    }
    salida
    {
        type            calculated;
        value           nonuniform List<scalar> 2(1.01413e-07 1.14587e-07);
    }
    front
    {
        type            empty;
        value           nonuniform 0();
    }
    defaultFaces
    {
        type            calculated;
        value           uniform 0;
    }
}


// ************************************************************************* //
