/*--------------------------------*- C++ -*----------------------------------*\
  =========                 |
  \\      /  F ield         | OpenFOAM: The Open Source CFD Toolbox
   \\    /   O peration     | Website:  https://openfoam.org
    \\  /    A nd           | Version:  7
     \\/     M anipulation  |
\*---------------------------------------------------------------------------*/
FoamFile
{
    version     2.0;
    format      ascii;
    class       volScalarField;
    location    "64";
    object      p;
}
// * * * * * * * * * * * * * * * * * * * * * * * * * * * * * * * * * * * * * //

dimensions      [0 2 -2 0 0 0 0];

internalField   nonuniform List<scalar> 
591
(
0.000123902
0.000123919
0.000123925
0.000123878
0.00012388
0.00012395
0.000123946
0.000123913
0.000116997
0.000123929
0.000124107
0.000122842
0.000123919
0.000119745
0.000123913
0.000123962
0.000123889
0.000123955
0.000121962
0.000123292
0.000123893
-3.526e-06
0.000124104
0.000123896
0.000124062
0.000123916
0.000124014
0.000124023
0.000123929
0.000123938
0.000124082
0.000124058
0.000124077
0.000124075
0.000124078
0.000123403
0.000124073
0.000123896
0.000124099
0.000124018
0.000123984
0.00012407
0.000123924
0.000123945
0.000124067
0.000124086
0.000119261
0.00012409
0.000123929
0.000124047
0.000124033
0.000124066
2.39419e-05
3.05872e-05
4.78438e-05
0.000123924
0.000124094
0.000124081
0.000124088
0.000123902
0.000123989
0.000123919
0.000123918
0.000123968
0.000122582
0.00012392
0.000123923
0.000124085
0.000120737
0.000123934
0.000123929
0.000124092
0.000124059
0.000124071
0.000124077
0.000124053
0.000123897
0.000124088
0.000123899
0.000123832
0.000123677
0.000124093
0.000124053
0.000124031
0.0001241
0.00012391
0.000124001
0.000124083
0.000124045
0.000123798
0.000124058
0.000124002
0.00012402
0.000123903
0.000124099
0.000124054
0.000123607
0.000123506
0.000123661
0.000124104
0.000124013
0.000123929
0.000124108
0.000123877
0.000124108
0.000123921
0.000123918
0.000124058
0.000124099
0.000124103
0.00012399
0.000124079
0.000123935
0.000124084
0.000124102
0.000124081
0.000124034
0.000124032
0.000123593
0.000124002
0.000123921
0.000123917
0.000123995
0.000123903
0.000124072
0.000120211
0.000124107
0.000124083
0.000123675
0.000124078
0.000123912
0.0001236
0.000124043
0.000124039
0.000124081
0.000123927
0.000122632
0.000124107
0.000123915
0.000123592
0.000123657
0.000124007
0.000124088
0.0001241
0.000124094
7.61621e-06
3.67827e-06
2.07096e-06
3.81576e-05
3.66978e-05
5.66074e-06
3.83079e-05
1.57395e-05
3.72879e-05
1.78058e-05
0.00012392
0.000123911
0.000124095
0.00012409
0.000124097
0.000124095
0.000124088
0.000124085
0.000124094
0.000124094
0.000124057
0.000124097
0.000124093
0.000124099
0.000124035
0.000123406
0.0001241
0.000122134
0.000124078
0.00012408
0.000124027
0.00012393
0.00012408
0.000124093
0.000124091
0.000123504
0.000122485
0.000123061
0.000123459
0.000124084
0.00012409
0.000124008
0.000123893
0.000124085
0.000122978
0.000123316
0.000123894
0.000124079
0.000123774
0.000124073
0.000124087
0.00012406
0.000123744
0.000123884
0.000124085
0.000124092
0.000124089
0.000123886
0.000124073
0.000123882
0.000124101
0.000123915
0.000123913
0.000124097
0.000123707
0.000123885
0.000123924
0.000123559
0.000124048
0.000123705
0.000123992
0.000124001
0.000124076
0.000123473
0.000123982
0.000123876
0.000123879
0.000124054
0.000123813
0.000123969
0.000123882
0.000123792
0.000123871
0.000124102
0.000123857
0.000124098
0.000123944
0.000124074
0.000123924
0.000123924
0.000124104
0.000123819
0.000124092
0.000123809
0.000123856
0.00012392
0.000123899
0.000123935
0.000123922
0.00012369
0.000123895
0.000123846
0.000124063
0.000123914
0.000123762
0.000124049
0.000123315
0.000123868
0.00012321
0.00012309
0.000123906
0.000123871
0.000123907
0.000123905
0.00012387
0.000124102
0.00012395
0.000124035
0.00012396
0.000123955
0.000123968
0.000124054
0.000123705
0.000124098
0.000123742
0.000123633
0.000123938
0.000124074
0.000123654
0.000124095
0.000124001
0.00012403
0.000124053
0.00012393
0.000123898
0.000123726
0.000123866
0.000123891
0.000123944
0.000123998
0.000124066
0.000124082
0.000124088
0.000123849
0.000123953
0.000124076
0.000124083
0.000124078
0.000123873
0.00012409
0.000123963
0.00012407
0.000123837
0.000124091
0.000123825
0.000124068
0.00012396
0.000123899
1.16407e-05
2.19106e-05
0.000123855
0.000123926
0.0001241
0.000123856
0.000124101
0.000123936
0.00012409
0.000124068
0.000123809
0.000124063
0.000123893
0.000124096
0.000123928
-2.09662e-07
0.000123785
0.000124073
0.000124069
0.00012377
0.000123913
0.000123953
0.000124063
0.000123829
0.000124084
0.000123971
0.000123921
0.000124061
0.000123875
0.000123802
0.000123834
0.000123931
4.7471e-05
0.000124079
0.000124063
0.000123919
0.000124085
0.000123999
0.000123942
0.000123923
0.000123912
0.000124072
0.000123938
0.000123846
0.000123964
0.00012385
0.000124084
0.000123858
0.000123912
0.000123948
0.000124033
1.98706e-05
2.73065e-05
3.42929e-05
9.63798e-06
0.000123897
3.30533e-05
2.60132e-05
0.000124082
1.90713e-05
1.70277e-05
3.81835e-05
7.57442e-06
3.99356e-05
5.60305e-06
4.08303e-05
3.68753e-06
4.28139e-05
1.87506e-06
3.63993e-05
2.31917e-05
2.94408e-05
1.49903e-05
0.000123775
0.000124092
0.000123964
0.00012397
0.000120907
0.000124017
0.000124087
0.000124058
0.000123865
0.000124093
0.000124092
0.000124074
0.000124071
0.000123837
0.000123913
0.000124075
0.000124081
0.000123919
0.000123794
0.000123853
0.000123423
0.000123875
0.000124105
0.000124077
0.000123925
0.0001241
0.00012377
0.000123946
0.000123729
0.000122877
0.000124072
0.000124083
0.000124104
0.000123782
0.000123961
0.000123728
0.000123936
0.000123927
2.60482e-05
2.18747e-05
3.30331e-05
1.1617e-05
0.000124109
0.000123776
1.98171e-05
2.82551e-05
3.56e-05
9.58662e-06
0.000123922
0.000124025
0.000123876
0.000123887
0.000123915
0.000124041
0.000123834
0.000124068
0.000124006
0.000123116
0.000123891
0.000123858
5.93527e-05
0.000123239
0.000124098
0.000123906
0.000123804
0.000124086
0.000124089
0.000123889
0.000123688
0.000123917
0.000123984
0.00012377
0.000124044
0.000122929
0.000123854
0.000123867
0.000124049
0.000100884
0.000123898
0.000123501
0.000123838
0.000124098
0.000123738
1.08944e-05
2.11109e-05
3.5365e-05
2.82041e-05
1.36605e-05
5.41604e-08
4.20773e-05
2.68904e-06
4.01564e-05
4.7608e-06
3.94148e-05
6.8134e-06
3.86217e-05
8.85587e-06
3.72875e-05
1.36723e-05
3.17246e-05
3.05878e-05
2.39379e-05
2.5259e-05
1.7763e-05
1.29366e-05
1.57058e-05
0.000124092
0.000102422
0.000123896
0.000123831
0.000124095
0.000123987
0.000124101
0.000123819
0.00012395
0.000124064
0.000124059
0.000124068
0.000123822
0.00012392
0.000123817
0.000124026
0.00012386
0.000124096
0.000123962
0.000123794
0.000123798
0.000123931
0.000123923
0.000124103
0.000124094
0.000124102
0.000124063
0.000124105
0.000123736
0.000123917
0.000124098
0.000123863
0.000123992
0.000123922
0.000123957
0.000123802
0.000124063
0.000124061
0.000123376
0.000121389
0.000123105
0.000123649
0.000123919
0.000123749
0.00012393
0.000124102
0.000124064
0.000123923
0.000123537
0.000123517
0.000124097
0.000124065
0.000123938
0.000124031
0.000123575
5.8321e-05
4.01139e-05
0.000124037
0.000124054
0.000123417
0.000122761
0.000123904
0.000123643
0.000123389
0.000123915
0.000123814
0.000124085
0.000123948
0.000123975
0.000119016
5.44741e-05
0.000123945
8.12349e-05
1.86146e-06
-3.81361e-07
0.000123914
0.000123884
0.000124064
0.000124104
0.000124093
0.000124097
0.000124095
0.0001239
-2.30761e-06
0.000122845
0.000123937
0.000124043
0.000122021
0.000124095
0.000124096
0.000122303
0.000124013
0.000124066
0.00012171
0.000124099
7.63523e-05
0.000124094
0.000123715
0.000124057
0.00012239
0.000123625
0.000123681
0.000123947
0.000124101
0.000124051
0.000124095
0.000124106
0.00012392
0.00011619
)
;

boundaryField
{
    back
    {
        type            empty;
    }
    ingreso
    {
        type            zeroGradient;
    }
    salida
    {
        type            fixedValue;
        value           uniform 0;
    }
    front
    {
        type            empty;
    }
    defaultFaces
    {
        type            zeroGradient;
    }
}


// ************************************************************************* //
