/*--------------------------------*- C++ -*----------------------------------*\
  =========                 |
  \\      /  F ield         | OpenFOAM: The Open Source CFD Toolbox
   \\    /   O peration     | Website:  https://openfoam.org
    \\  /    A nd           | Version:  7
     \\/     M anipulation  |
\*---------------------------------------------------------------------------*/
FoamFile
{
    version     2.0;
    format      ascii;
    class       surfaceScalarField;
    location    "64";
    object      phi;
}
// * * * * * * * * * * * * * * * * * * * * * * * * * * * * * * * * * * * * * //

dimensions      [0 3 -1 0 0 0 0];

internalField   nonuniform List<scalar> 
1111
(
6.57379e-09
1.31732e-08
-1.59046e-08
-3.84245e-09
6.62035e-09
-1.18221e-08
1.17756e-08
-1.47393e-08
5.26472e-09
9.19112e-09
2.83493e-10
5.65192e-10
-6.51538e-10
-1.42587e-08
1.43451e-08
-1.4182e-08
1.39214e-08
8.25797e-10
-1.6522e-09
1.48964e-08
2.18434e-09
-3.6293e-09
9.72378e-09
-1.04073e-08
4.31287e-09
-6.70223e-09
-1.26186e-08
1.25917e-08
6.72913e-09
-5.04578e-08
-2.59277e-08
7.63855e-08
-8.12836e-09
7.62046e-09
7.12825e-09
3.50378e-09
3.47593e-10
-3.58435e-09
-2.67026e-10
1.56725e-08
-1.60022e-08
-2.30654e-08
2.3395e-08
-9.64385e-09
-7.90392e-09
8.78678e-09
8.761e-09
-3.53785e-08
1.76205e-08
-3.2323e-08
5.0081e-08
9.52341e-09
-1.95598e-09
-1.42697e-08
-1.42773e-09
2.1991e-09
-3.59141e-09
2.82004e-09
-3.79452e-09
1.33223e-08
1.94776e-09
-1.14756e-08
8.83623e-09
-2.47407e-09
-1.5036e-08
8.67388e-09
3.76514e-08
-3.04572e-08
-7.19422e-09
-1.94125e-08
2.89281e-10
1.7338e-08
1.78522e-09
-8.67181e-10
4.1261e-09
-1.7882e-08
1.46231e-08
-6.1221e-08
-3.96274e-09
6.51838e-08
1.52662e-10
-1.26643e-09
-3.55555e-10
1.46932e-09
-1.48093e-09
-1.35683e-08
-1.52492e-10
-3.01216e-10
2.56485e-10
1.97223e-10
-1.01862e-08
-8.26368e-09
1.26866e-08
5.76329e-09
7.08483e-10
-2.13676e-09
-8.414e-09
9.84227e-09
8.16975e-09
8.98656e-10
-9.12205e-09
5.36434e-11
-2.85685e-09
-7.86503e-09
1.09381e-08
-2.16207e-10
1.13857e-08
-7.13964e-10
-1.83548e-09
-9.50434e-10
9.35021e-10
5.39912e-11
-3.85782e-11
-2.3024e-10
8.24461e-10
3.81164e-10
-9.75385e-10
-5.54612e-10
-3.98162e-11
5.90866e-10
3.56253e-12
1.2034e-12
-9.51759e-10
1.03323e-10
8.47232e-10
-6.87564e-11
-8.80475e-10
8.37223e-10
-1.84538e-08
-1.79594e-09
-4.6711e-10
5.06366e-11
-1.38139e-10
1.34095e-08
-1.32557e-08
3.97233e-09
-4.05282e-10
6.13405e-10
3.80229e-10
-5.88352e-10
-2.83928e-10
-2.08728e-09
1.62811e-09
7.43101e-10
-2.13103e-09
1.00428e-08
-1.1541e-08
-3.45621e-10
-1.84404e-10
6.29144e-11
-8.79662e-09
1.02169e-08
-9.5486e-09
1.20897e-08
-1.7106e-08
4.85286e-09
1.63363e-10
7.72539e-11
-1.90407e-10
-2.32468e-10
2.31071e-10
8.57031e-10
-1.53081e-10
-5.95406e-08
7.42578e-08
-1.47172e-08
1.10611e-09
-3.1889e-10
-1.26222e-09
4.75e-10
1.13065e-09
1.03199e-08
-1.37298e-08
2.2792e-09
-1.25693e-09
7.28124e-09
-8.72874e-09
2.70444e-09
-6.56266e-09
5.7348e-09
5.55126e-09
-4.72339e-09
-7.3061e-09
-2.04085e-09
1.98479e-09
7.36215e-09
-1.8218e-10
-9.09263e-08
9.13116e-08
-2.03022e-10
-2.57099e-10
-8.97642e-08
9.01723e-08
-1.5104e-10
8.30915e-08
-1.49628e-09
1.12749e-10
-8.1708e-08
-3.08356e-09
-2.70097e-10
7.51588e-10
8.87815e-10
-5.33297e-10
3.98984e-09
-1.48058e-09
3.33915e-09
-5.84841e-09
-1.05148e-09
9.63659e-10
-1.49732e-08
6.61458e-09
9.46319e-09
1.00022e-09
-1.01883e-08
-2.7516e-10
-6.23014e-09
1.3122e-08
1.2948e-09
-8.18667e-09
1.43378e-08
-4.29392e-09
3.48472e-09
-1.35286e-08
1.54219e-08
1.71682e-09
-1.7099e-09
-3.21292e-10
-2.00171e-08
-7.31649e-09
2.76549e-08
1.39954e-08
-8.45419e-09
-2.07651e-09
7.78135e-09
-1.1935e-08
-6.77251e-11
1.70235e-10
-1.36473e-09
-3.63442e-08
-2.31965e-08
8.1449e-09
1.47914e-10
3.79691e-09
-7.02065e-09
1.08674e-08
6.37007e-09
-6.52659e-10
3.63113e-10
5.26103e-10
-2.36558e-10
5.86642e-09
-4.69001e-09
3.59624e-09
-4.77264e-09
-5.57397e-10
-6.81339e-10
2.86977e-10
7.46623e-10
-6.83116e-10
-8.51182e-11
-1.01351e-09
8.68387e-10
-1.78391e-08
2.47722e-09
1.50109e-09
1.38608e-08
2.65623e-10
-7.66155e-10
-1.52128e-10
-3.98341e-09
-1.49352e-08
1.07947e-09
5.64756e-09
1.19132e-08
-5.22901e-09
-1.23318e-08
1.6462e-08
6.12948e-10
-1.59306e-08
-1.14437e-09
-7.36348e-10
5.0963e-10
5.89831e-10
-6.34763e-10
3.31883e-10
3.02881e-10
-7.24477e-09
-3.69121e-09
4.37332e-09
-2.99301e-10
4.44853e-10
-1.45553e-10
1.28894e-09
-1.54585e-08
-8.45312e-10
9.33952e-09
-1.06252e-08
-1.06521e-09
-7.19882e-10
1.27391e-08
4.38886e-09
-4.13131e-09
-1.29967e-08
1.7939e-10
7.04124e-09
-7.77114e-09
6.4647e-09
-1.81316e-09
-8.69411e-09
7.97481e-09
2.53246e-09
-1.80661e-09
6.30827e-10
-1.37594e-08
-1.75257e-10
-1.24044e-10
-1.43292e-10
9.96359e-10
-8.15916e-09
7.36572e-10
1.73218e-08
-1.5964e-09
-1.30228e-08
1.43193e-08
-1.29644e-09
1.21002e-08
1.40486e-08
-1.55702e-08
-1.05786e-08
-6.70622e-10
1.17994e-09
-5.09315e-10
8.25493e-10
-9.64471e-10
1.38978e-10
1.2484e-09
-1.5386e-09
2.90204e-10
1.6182e-09
-1.3326e-09
-2.85597e-10
-1.09856e-08
5.89847e-10
1.03958e-08
2.30074e-09
-6.82546e-10
8.92153e-09
-1.5292e-08
7.0135e-09
-8.41372e-09
5.67059e-11
3.84572e-09
-3.9864e-10
-2.64834e-09
2.70504e-09
-6.92217e-09
8.24798e-09
-1.32581e-09
-7.26862e-10
4.16961e-09
5.47099e-10
1.72611e-08
-1.45047e-08
-1.62578e-09
-5.71919e-09
5.27092e-09
-1.03231e-09
-2.25769e-10
6.21369e-09
-6.2374e-09
2.37142e-11
6.99411e-09
4.42357e-09
1.05611e-10
-1.6003e-08
1.04661e-08
1.7637e-08
5.71304e-09
8.32231e-09
8.24869e-09
-6.83363e-09
1.11493e-09
-1.21006e-08
8.75763e-10
6.86291e-10
-1.28064e-08
3.1396e-09
-4.34562e-10
1.22863e-08
-1.16733e-08
-1.84151e-10
-9.49817e-10
-1.37804e-08
7.35295e-09
8.37819e-10
-2.91655e-11
-8.9172e-09
5.12711e-09
-3.07784e-08
-1.25064e-08
-2.65557e-09
1.38152e-09
1.39624e-08
1.09488e-08
-1.06702e-08
-1.42409e-08
1.56513e-08
-3.1143e-09
-1.25369e-08
1.66774e-09
3.90636e-09
-1.29408e-09
-9.44622e-10
-9.55762e-10
1.26886e-09
6.3152e-10
-2.70288e-10
3.95243e-10
4.01148e-10
6.21366e-08
-6.21613e-08
2.46615e-11
6.20579e-08
-6.23616e-08
3.03647e-10
8.36901e-10
6.47494e-08
-6.5577e-08
8.27566e-10
6.41406e-08
6.0876e-10
-2.24932e-10
-6.65234e-08
9.46404e-10
-6.20437e-08
6.19104e-08
1.33303e-10
1.31719e-09
-6.78406e-08
-6.22022e-08
1.58529e-10
1.23069e-08
-9.47299e-10
1.55549e-09
-3.71009e-09
3.1019e-09
3.86306e-10
-1.24778e-09
1.05474e-09
-7.1864e-10
1.44902e-09
-1.70881e-09
9.78428e-10
1.49142e-09
-1.6357e-09
3.14518e-10
-8.14159e-11
-3.36982e-09
2.9522e-09
-2.19641e-09
2.61404e-09
-6.89728e-10
-2.82148e-09
2.56391e-09
-3.73692e-09
-5.67649e-09
6.25692e-10
-6.93638e-10
1.34815e-09
1.15561e-09
-6.56694e-09
7.99735e-09
2.99316e-09
2.00304e-08
-4.37912e-09
-7.76488e-10
2.97534e-10
1.10465e-09
-1.00453e-08
-2.62989e-08
5.4205e-09
-4.40404e-09
-3.12977e-09
2.11331e-09
1.24331e-10
1.86585e-11
4.47876e-10
-2.71186e-09
3.4419e-09
8.76571e-09
8.41788e-10
-4.31114e-10
2.17616e-09
-2.43477e-09
2.09203e-09
1.47732e-08
1.32377e-08
-2.69874e-08
3.26147e-08
6.26849e-09
-2.28459e-08
-1.04101e-08
1.82819e-08
-1.7821e-08
1.04878e-08
-1.89885e-10
-9.70875e-11
-1.34873e-09
-1.8254e-09
-2.86303e-09
3.85807e-09
1.48784e-08
-5.9607e-10
-1.36515e-08
-2.66753e-10
-2.63409e-09
7.93593e-11
1.54538e-08
1.76014e-08
1.36719e-08
6.91136e-10
-1.58686e-09
-1.27762e-08
-1.73876e-09
6.0171e-09
1.23696e-08
-6.60985e-10
-1.16931e-09
-3.55259e-09
2.74192e-09
3.76286e-09
2.4498e-09
1.42831e-08
4.15832e-09
-1.40525e-08
1.77308e-08
-1.77293e-09
2.70905e-09
-3.54258e-09
1.88046e-09
-4.7169e-09
1.29302e-08
-1.20079e-08
-1.39758e-08
4.77182e-10
8.78175e-09
-1.86949e-09
1.56693e-09
1.65071e-09
-8.67542e-09
6.59681e-10
-4.49063e-09
-6.05167e-09
1.222e-08
-1.48438e-08
1.2851e-09
1.66684e-09
-2.21455e-09
1.66015e-08
-1.60538e-08
-9.95722e-10
1.40716e-08
2.93093e-09
-4.24568e-09
-1.39772e-08
7.39913e-09
-1.71659e-08
-8.05418e-09
6.62587e-09
5.86279e-09
1.44374e-08
-9.75083e-09
3.10299e-09
9.1803e-09
9.87714e-09
3.83324e-09
-4.13956e-09
2.15498e-08
-1.89537e-08
4.803e-09
-1.02845e-08
2.20138e-09
5.54489e-09
1.3687e-08
-1.40871e-10
1.26733e-08
-1.35282e-08
-1.80365e-09
2.20309e-09
-1.26469e-09
8.65257e-10
1.08955e-08
-6.3876e-09
7.40533e-09
-1.06865e-08
1.40223e-09
-4.75167e-09
1.13448e-08
-1.18221e-08
-7.5172e-09
9.08106e-09
9.33163e-09
1.27683e-08
8.34142e-10
-1.37433e-08
1.60633e-09
8.1815e-10
-1.09865e-08
-6.71518e-09
1.01845e-08
-1.61594e-09
2.52143e-09
-8.90953e-09
4.81084e-09
-5.16743e-09
1.14061e-08
-3.49232e-09
-1.15964e-08
3.68266e-09
-4.50454e-09
1.1159e-08
2.00774e-09
1.16552e-09
-5.04945e-09
-1.75848e-08
1.03918e-08
1.22425e-08
8.16668e-10
-1.08688e-08
-9.85247e-09
1.56718e-08
1.24032e-08
2.80493e-09
-9.6632e-09
-1.32533e-08
-2.81685e-10
-1.26787e-08
1.99112e-10
-7.26319e-10
1.14653e-08
1.24639e-08
-8.19564e-09
1.6423e-08
-1.58069e-08
3.54223e-09
-4.47594e-10
1.71499e-09
1.25934e-08
-3.88194e-09
-1.25811e-08
-5.12297e-09
1.22781e-09
4.58145e-09
1.20585e-08
-7.31266e-09
8.23536e-10
-1.41978e-09
1.2105e-09
-1.59437e-09
5.94951e-09
2.60881e-08
-3.08735e-10
-1.10291e-08
1.13379e-08
2.84107e-08
-2.21719e-08
2.19659e-08
1.9576e-08
-1.26596e-08
-2.64542e-09
1.49441e-08
2.20127e-10
-1.21273e-08
-3.31233e-10
-6.02934e-09
-1.91962e-09
2.31058e-09
1.61678e-09
-1.70327e-10
-1.09298e-08
1.12231e-08
-1.22914e-10
3.01953e-09
-5.43806e-09
-1.08033e-08
1.0414e-08
-8.3157e-10
-1.05812e-08
-9.51759e-11
-1.09247e-08
-2.74182e-09
-1.19172e-08
2.23307e-09
7.85774e-09
5.11985e-09
-8.21468e-11
-1.16801e-08
1.15919e-08
6.3266e-10
-8.62997e-09
5.23215e-09
-1.234e-09
2.5231e-09
-2.71508e-09
-1.3015e-08
-1.29742e-08
1.25833e-08
-1.02274e-08
-1.57913e-08
1.00157e-08
9.16127e-09
8.66638e-10
2.59584e-09
-1.3625e-08
1.11688e-08
1.69873e-09
3.99224e-09
3.42447e-10
-5.73367e-10
-3.26477e-10
-4.07155e-09
2.63696e-09
-1.1995e-09
2.67453e-10
-3.13196e-10
4.57428e-11
-2.59962e-09
1.28336e-08
2.16917e-09
2.56688e-09
-5.22403e-10
-1.64095e-09
-2.81545e-10
-2.47027e-09
-5.19402e-10
1.28024e-08
9.90166e-09
-4.12161e-10
6.97484e-09
-1.21079e-09
-5.35189e-09
-9.69939e-09
-5.0805e-09
2.07013e-10
6.044e-11
4.8229e-09
1.31879e-09
-1.70105e-08
-4.84507e-10
-8.57817e-10
-2.65993e-09
9.75861e-10
2.79487e-09
6.19355e-08
-8.75874e-11
-6.18479e-08
6.23518e-08
1.87474e-10
-6.25393e-08
-1.41835e-08
-3.97818e-11
1.45484e-08
-3.25148e-10
2.89032e-09
-1.96416e-09
2.69007e-09
1.79551e-09
-4.41852e-09
-4.19036e-10
-5.91595e-10
4.79688e-10
-1.24652e-10
5.34279e-10
-3.76236e-10
1.93927e-08
1.1106e-09
-1.56804e-08
-2.33414e-10
-1.94906e-09
1.22997e-08
2.24279e-09
1.76153e-09
5.28002e-09
-1.9961e-09
-7.72337e-08
-2.41777e-08
-4.7919e-09
1.5773e-08
2.34121e-09
-4.58574e-10
-3.2112e-09
-1.25543e-09
5.43894e-10
-4.57769e-10
-1.10454e-08
-3.24865e-10
1.13703e-08
-1.07301e-08
-6.63649e-09
1.06514e-08
-9.36157e-09
8.77435e-09
3.02451e-11
1.71427e-09
1.05309e-08
-1.0356e-08
-1.74935e-10
6.82146e-10
7.82266e-11
1.02425e-08
8.85357e-10
-9.9054e-10
-2.34646e-10
-1.42452e-08
-5.14485e-10
-1.36142e-08
1.24046e-08
-1.16913e-08
-6.6e-08
6.49552e-08
1.04483e-09
3.57168e-10
-3.38509e-10
1.18081e-08
-3.27267e-10
1.40714e-11
-2.03173e-09
2.77856e-09
-3.42604e-09
-1.35031e-08
-1.64799e-09
2.5721e-09
-4.76351e-09
-1.39334e-08
1.68639e-09
5.60045e-09
9.53336e-09
-8.87143e-09
-3.55476e-10
2.8209e-11
-9.34506e-09
-1.30793e-08
1.49616e-10
-6.27095e-08
2.37873e-10
6.24717e-08
6.96339e-10
6.34442e-08
-2.25763e-10
-1.30728e-09
-1.44324e-08
1.06614e-10
-6.3376e-08
6.32693e-08
1.8145e-10
-6.29237e-08
6.27423e-08
4.49567e-10
6.18057e-08
1.51756e-10
-6.19575e-08
6.16356e-08
1.7009e-10
-8.79054e-08
8.85148e-08
-7.06168e-13
9.33991e-08
-9.31068e-08
-2.67691e-10
-8.66445e-08
-4.33272e-10
9.33577e-08
-1.83524e-10
-8.49297e-08
-7.68373e-10
9.34882e-08
1.73168e-10
-5.21003e-10
1.96118e-09
9.23639e-08
-6.93368e-08
6.21492e-08
-6.23314e-08
-6.29666e-08
6.14919e-08
1.43767e-10
-3.02372e-09
2.84931e-09
-1.38781e-08
6.7029e-11
1.39984e-10
1.85205e-09
8.97686e-09
-1.14509e-08
3.83e-08
-3.44679e-08
-1.66386e-08
1.37764e-08
-6.1577e-11
-2.22708e-10
2.24372e-10
8.22194e-10
-1.55568e-10
3.64969e-10
4.58114e-09
1.02714e-09
-3.72781e-09
-2.84311e-10
3.34947e-10
-2.21397e-10
-2.49038e-09
1.29899e-08
2.33412e-09
-1.44504e-08
-2.54398e-09
-3.50996e-09
5.64293e-09
1.05152e-09
-2.66872e-09
1.42155e-08
-1.15494e-09
-2.89433e-09
3.82486e-09
-8.17264e-09
-1.90524e-08
-1.32867e-08
7.80701e-09
5.95683e-09
-2.81106e-10
-5.35803e-10
3.12749e-09
1.44375e-08
2.13469e-09
-1.67581e-09
-4.38337e-10
4.84575e-10
-2.72007e-10
1.60038e-08
-5.10974e-10
-1.58177e-08
-1.62588e-09
-1.34045e-09
3.03044e-10
-2.29846e-10
3.50127e-09
-1.69417e-08
5.56003e-10
-1.62932e-09
-2.23613e-09
-2.39929e-09
1.54024e-08
-9.06047e-08
-1.40193e-10
9.16908e-08
-1.9171e-10
-8.91799e-08
-4.77677e-10
9.31112e-08
-2.75702e-10
-9.29231e-08
-5.8831e-10
-1.72356e-09
1.64825e-08
9.19922e-08
-1.94572e-10
3.13426e-11
-2.21312e-10
1.01957e-08
2.50355e-09
-8.27629e-09
-1.20214e-08
-5.67498e-09
8.45966e-09
1.41544e-09
-6.88194e-09
-6.13908e-09
9.01091e-09
-1.44143e-10
1.01561e-08
1.94138e-08
-1.78146e-08
3.05688e-09
-1.25548e-08
3.03054e-09
-6.99591e-08
3.95911e-09
-2.04152e-08
-1.30602e-08
-5.4911e-10
-5.95054e-09
-1.53119e-08
9.1351e-09
-1.52216e-08
5.08497e-10
4.29588e-10
-1.70556e-09
-1.63572e-08
1.68797e-08
7.9928e-09
-8.2629e-09
-5.1714e-09
1.51721e-08
-1.71269e-09
7.56019e-10
-1.24895e-09
3.41054e-10
1.18949e-08
3.32791e-09
7.09299e-08
-1.81217e-08
8.48089e-10
-1.48421e-08
-2.68881e-10
-3.1501e-10
-1.04592e-10
6.09533e-08
-6.1229e-08
-6.33446e-08
-6.31183e-08
-6.24163e-11
-2.62851e-10
-9.25978e-08
-6.04539e-08
6.24151e-08
6.5068e-08
-6.02808e-08
6.4547e-08
-6.04643e-08
6.37786e-08
-6.0732e-08
6.33453e-08
9.23208e-08
3.3446e-10
-6.42636e-09
7.51109e-08
-6.53567e-08
7.00167e-11
-7.00167e-11
1.02297e-09
-3.55489e-10
1.54976e-08
-6.97678e-11
6.97678e-11
4.12265e-10
1.56649e-09
1.38623e-08
1.32567e-08
-2.77123e-09
3.74952e-09
6.36133e-09
1.93214e-09
4.1849e-10
-2.92129e-10
-2.95912e-09
1.44997e-08
1.48417e-08
-4.27033e-09
1.17952e-08
2.23547e-10
1.77941e-10
2.87649e-09
-9.34422e-10
-1.65893e-09
-5.87877e-09
-1.78229e-10
-4.41869e-10
1.52846e-08
3.10159e-10
1.09622e-10
1.51565e-08
-2.59603e-08
1.7532e-08
2.61175e-09
1.38061e-09
2.42837e-09
-3.6982e-09
1.91649e-08
-1.7895e-08
-1.05241e-10
5.18133e-10
-1.44214e-09
-7.9221e-08
-7.0779e-08
1.41055e-09
-8.14263e-10
6.8898e-10
2.28628e-08
1.85169e-08
-6.39364e-09
9.88072e-11
-4.39918e-09
-2.41138e-09
2.99928e-08
1.50958e-10
1.48186e-08
7.35826e-08
7.4376e-11
5.39833e-10
-1.88273e-10
-2.50781e-10
-3.77068e-09
2.41543e-08
-1.48477e-08
1.11442e-09
-1.40072e-08
-6.99666e-11
2.02975e-08
-2.8664e-08
9.1021e-10
2.19898e-09
-4.80089e-10
)
;

boundaryField
{
    back
    {
        type            empty;
        value           nonuniform 0();
    }
    ingreso
    {
        type            calculated;
        value           nonuniform List<scalar> 
14
(
-1.54286e-08
-1.54288e-08
-1.54288e-08
-1.54288e-08
-1.54286e-08
-1.54283e-08
-1.54288e-08
-1.54288e-08
-1.54286e-08
-1.54286e-08
-1.54288e-08
-1.5428e-08
-1.5428e-08
-1.54286e-08
)
;
    }
    salida
    {
        type            calculated;
        value           nonuniform List<scalar> 2(1.01411e-07 1.14589e-07);
    }
    front
    {
        type            empty;
        value           nonuniform 0();
    }
    defaultFaces
    {
        type            calculated;
        value           uniform 0;
    }
}


// ************************************************************************* //
