/*--------------------------------*- C++ -*----------------------------------*\
  =========                 |
  \\      /  F ield         | OpenFOAM: The Open Source CFD Toolbox
   \\    /   O peration     | Website:  https://openfoam.org
    \\  /    A nd           | Version:  7
     \\/     M anipulation  |
\*---------------------------------------------------------------------------*/
FoamFile
{
    version     2.0;
    format      ascii;
    class       volVectorField;
    location    "64";
    object      U;
}
// * * * * * * * * * * * * * * * * * * * * * * * * * * * * * * * * * * * * * //

dimensions      [0 1 -1 0 0 0 0];

internalField   nonuniform List<vector> 
591
(
(0.000827125 -2.7114e-05 1.21821e-18)
(0.000815183 -2.4487e-05 -6.64018e-19)
(0.000857042 -1.27207e-05 5.68903e-20)
(0.000856678 -8.24165e-06 -1.49148e-19)
(0.000840077 5.07727e-06 2.25604e-19)
(0.000801731 -4.08814e-05 -1.39652e-19)
(0.000557465 -0.00030439 8.0656e-19)
(0.000802688 3.93983e-06 2.07715e-18)
(0.00573482 0.00249905 9.8784e-19)
(0.000797376 -1.38863e-05 2.45517e-18)
(4.9965e-05 0.000170665 1.21849e-18)
(0.000927675 0.00137535 9.40925e-21)
(0.000798584 5.47689e-06 1.32542e-18)
(0.00160141 0.00238776 -7.87759e-19)
(0.000803205 3.04149e-06 -4.42892e-19)
(7.02684e-05 -0.000208461 2.42746e-22)
(0.000136004 0.000677307 7.05087e-19)
(0.000818882 6.16537e-05 -4.89335e-19)
(0.00193254 0.000391729 4.73647e-19)
(0.00135733 0.000254913 -2.47156e-19)
(0.000833393 -3.73188e-06 3.7237e-19)
(0.00340015 0.00655928 -8.15162e-20)
(2.81525e-05 7.07827e-05 2.70994e-19)
(0.000834647 -1.32089e-05 -4.50896e-19)
(1.19569e-05 -1.66889e-05 3.58998e-19)
(0.000770402 3.18757e-05 0)
(9.28414e-05 0.000475194 1.5999e-19)
(0.0005405 1.3061e-05 -1.78877e-19)
(0.000752891 4.83413e-05 1.14975e-18)
(0.00081267 4.57202e-05 5.91894e-19)
(5.85743e-05 -3.4069e-06 -3.9229e-24)
(3.40235e-05 -4.72375e-05 3.52245e-19)
(3.76054e-05 -3.17723e-06 -4.64315e-20)
(4.63743e-05 -1.17782e-05 0)
(5.55341e-05 -1.32789e-05 1.13168e-18)
(0.00117442 0.000130803 1.79951e-19)
(3.21229e-05 -5.55416e-06 4.47231e-20)
(0.000826835 6.52759e-06 3.04187e-23)
(2.7903e-05 4.44229e-05 2.66079e-19)
(1.8137e-05 -0.000106228 -8.54952e-19)
(0.000630529 -0.000204049 9.6043e-19)
(2.58965e-05 -7.00658e-06 4.54912e-20)
(0.00079981 2.40788e-07 -1.58072e-18)
(0.000829916 4.00918e-05 -6.90774e-19)
(1.77745e-05 -8.25919e-06 0)
(5.58357e-05 7.35625e-06 8.52031e-20)
(0.00134476 0.00450324 8.93086e-19)
(7.70766e-05 1.68169e-05 8.63783e-20)
(0.000799871 1.70541e-05 0)
(0.000380522 -0.00020092 6.77745e-19)
(0.000380256 0.000274434 5.11998e-21)
(0.000392746 5.18206e-05 -1.00398e-18)
(0.0063484 0.0109419 -7.68509e-19)
(0.00622524 0.0107972 1.52786e-20)
(0.00561465 0.0103803 1.45585e-18)
(0.00080975 2.58304e-05 0)
(6.78505e-05 3.17465e-05 0)
(0.000317658 1.67533e-05 1.38208e-23)
(6.39482e-05 1.1067e-05 -3.46523e-19)
(0.000815806 -8.15565e-06 0)
(0.000633412 2.87312e-05 3.17629e-19)
(0.000831742 6.74358e-06 2.20907e-18)
(0.000797339 2.69637e-05 -5.42776e-19)
(0.000799118 1.57797e-05 -3.15811e-19)
(0.00171253 0.000480246 5.42521e-19)
(0.000796573 1.17988e-05 -1.15486e-18)
(0.000826548 1.63106e-05 -5.24289e-19)
(8.21622e-05 -1.78761e-06 -1.73444e-19)
(0.00068884 0.0022638 0)
(0.000834171 3.52459e-05 0)
(0.000775833 1.58551e-05 -1.39173e-18)
(3.87077e-05 1.64432e-05 0)
(0.000287786 0.000271441 3.26898e-19)
(4.14791e-05 -1.7619e-05 0)
(4.26156e-05 -5.99146e-06 1.59502e-19)
(1.73462e-05 -4.5964e-05 -3.36736e-20)
(0.000788023 7.56e-05 2.46986e-19)
(4.50382e-05 1.1071e-05 0)
(0.000798479 5.66903e-05 4.47447e-19)
(0.000769578 0.00029382 2.10765e-19)
(0.000964853 6.17934e-05 -3.98009e-20)
(4.36259e-05 2.36054e-05 -4.51946e-20)
(5.90213e-06 -2.48607e-05 0)
(0.000431844 0.000217592 1.70214e-19)
(2.85375e-06 2.3737e-05 0)
(0.000787703 3.58794e-05 -6.07396e-19)
(0.000602275 -0.000120738 0)
(6.59788e-05 -1.18467e-06 -1.74512e-19)
(3.62405e-06 -3.40455e-05 0)
(0.000825964 0.000242617 -3.41329e-19)
(3.98034e-06 -1.48665e-05 0)
(0.000421928 0.000323687 -1.29561e-23)
(0.000527428 0.00011259 0)
(0.00080433 4.58736e-05 -3.37532e-24)
(2.78667e-06 1.51584e-05 -4.21791e-20)
(0.000451693 -1.07224e-05 1.76389e-18)
(0.00102377 7.22706e-05 4.16112e-20)
(0.000843545 4.41304e-05 6.41153e-22)
(0.000736803 0.000657509 2.69545e-19)
(6.62217e-06 5.03028e-05 0)
(1.37983e-06 -5.27157e-05 -3.12012e-19)
(-1.69446e-05 -9.53745e-05 -1.10055e-18)
(3.90771e-06 7.99536e-05 -5.96397e-19)
(0.000628929 -1.90755e-05 0)
(7.94519e-06 0.000104974 0)
(0.000807709 2.29479e-05 2.1895e-18)
(0.000784953 2.26119e-05 1.53196e-18)
(0.0004218 -7.51368e-05 0)
(4.33253e-05 0.000219941 -8.95549e-19)
(-4.94107e-07 0.000172269 4.96682e-19)
(6.32803e-05 0.000415484 6.25189e-19)
(0.000304295 8.54706e-05 -9.37274e-19)
(0.00080313 1.9813e-05 1.37363e-19)
(0.000261865 -3.74747e-05 5.31322e-19)
(4.14151e-06 3.37306e-05 0)
(2.28809e-05 0.000289602 -1.09402e-18)
(0.000319292 0.000324721 -1.61729e-19)
(2.26288e-06 -4.27183e-05 1.46518e-19)
(0.000670101 0.000813454 0)
(0.000367068 0.000388761 5.74505e-20)
(0.000814016 1.32287e-05 1.07044e-18)
(0.000799061 1.35042e-06 -2.7131e-18)
(6.36294e-06 -5.28165e-05 0)
(0.000678984 -3.14603e-05 -1.12339e-19)
(0.000320417 -0.000107175 1.24347e-18)
(0.00264784 0.000804156 -3.36189e-19)
(5.0617e-06 0.000135368 -6.13215e-19)
(3.7759e-06 0.000165059 1.61947e-18)
(0.000720692 2.16642e-05 -3.89977e-20)
(6.44947e-05 -1.29885e-05 -7.50307e-19)
(0.000804707 2.69773e-05 -3.88154e-19)
(0.000769104 2.61366e-05 -4.1047e-20)
(3.85161e-05 0.000335716 -5.96934e-19)
(0.000483719 6.8503e-05 -4.9402e-19)
(4.95234e-05 -3.18981e-06 1.56183e-19)
(0.000831033 2.62217e-05 -1.09428e-18)
(0.00156775 0.000237989 -1.13707e-18)
(4.01709e-06 6.42306e-05 4.96467e-19)
(0.000808749 2.56234e-05 -4.95552e-19)
(0.000907853 0.000541872 -7.8524e-20)
(0.000143751 0.000794446 0)
(0.000578768 6.51524e-05 0)
(0.00027499 5.52217e-05 -1.60997e-18)
(6.36992e-05 5.91369e-05 -1.37434e-18)
(3.11794e-05 2.08804e-05 0)
(0.00424708 0.00740009 -1.01965e-20)
(0.00422551 0.00737193 3.1647e-20)
(0.00442772 0.0075747 -4.96518e-21)
(0.00420673 0.00773555 0)
(0.00419909 0.00760134 5.77195e-19)
(0.0042443 0.00740137 -9.19939e-20)
(0.00421041 0.00804336 4.84415e-19)
(0.00428932 0.00742185 0)
(0.00420863 0.00853666 6.16716e-19)
(0.0043257 0.00745025 2.23896e-19)
(0.000821463 4.37987e-06 -1.37376e-18)
(0.000766777 5.24951e-05 0)
(0.000214227 5.45747e-05 1.27715e-19)
(5.08646e-05 1.61615e-05 8.72007e-20)
(7.8309e-05 4.53769e-05 6.80143e-19)
(0.000106193 4.19022e-05 -3.41731e-19)
(0.000100732 6.04898e-06 0)
(4.87775e-05 5.08892e-06 8.18527e-20)
(0.000205861 0.000134041 0)
(0.000165976 4.36637e-05 -5.24375e-20)
(0.000342418 0.000223477 -5.09338e-21)
(5.62048e-05 4.33976e-05 -4.37735e-19)
(9.10516e-05 2.78899e-05 -8.52628e-20)
(9.06464e-05 6.24468e-05 1.31218e-21)
(0.000254493 0.000367113 -6.66279e-19)
(0.000106618 0.00100602 0)
(4.23033e-05 5.30661e-05 3.43124e-19)
(0.000201701 0.00175315 0)
(0.000207472 0.000254306 7.04776e-19)
(3.85467e-05 -3.9143e-06 1.11516e-19)
(0.000481282 0.000164779 -1.72331e-19)
(0.000758475 2.45598e-05 -1.92449e-18)
(4.33139e-05 -1.17167e-06 4.4623e-24)
(0.000148867 2.55618e-05 2.2463e-19)
(0.000243541 9.38783e-05 -8.99488e-20)
(0.000881044 0.000706463 3.34995e-19)
(0.00071894 0.00163367 -9.23721e-21)
(0.000392469 0.00142508 -9.39496e-21)
(0.00102312 0.000549055 0)
(0.000103235 -1.50485e-05 1.11892e-18)
(0.000116406 1.65656e-05 -4.43229e-20)
(0.000451775 -0.000287582 -1.13619e-18)
(0.000812167 3.76458e-05 0)
(0.000182056 4.0035e-06 3.63364e-19)
(0.000300371 0.00131505 0)
(0.00107434 0.000772346 -7.3032e-20)
(0.000826057 3.42853e-05 -1.86551e-19)
(7.81878e-05 -2.09275e-05 -3.00038e-19)
(0.000825752 0.000319959 -2.08086e-20)
(5.80554e-05 -2.14588e-05 -5.99615e-19)
(0.000226192 0.00017642 8.64022e-20)
(0.000229242 0.000309606 -3.45068e-19)
(0.000883437 0.000246842 0)
(0.000813107 5.03507e-05 0)
(0.000262648 0.000138031 1.76877e-19)
(0.000234088 3.50374e-06 2.84075e-24)
(0.000184402 0.000206803 0)
(0.000292537 0.000653988 -5.55788e-21)
(0.000345662 -2.37529e-06 0)
(0.000368495 0.000600448 0)
(0.000109155 8.30439e-05 -1.34695e-21)
(0.000809801 2.63836e-05 -9.39767e-19)
(0.000808435 1.94722e-05 7.96752e-19)
(0.000129089 5.83403e-05 -1.49883e-19)
(0.000956045 0.000150941 8.50724e-20)
(0.000835534 4.36567e-05 3.33014e-19)
(0.000815321 2.58412e-05 -2.94841e-19)
(0.00101642 0.000412443 0)
(0.000437003 0.000120621 6.24551e-19)
(0.000896372 0.00031984 2.09177e-20)
(0.000574571 0.000157155 0)
(0.000271645 0.000446978 4.09705e-19)
(0.000261269 0.000218009 -8.44317e-20)
(0.00109458 0.000377234 -7.82267e-19)
(0.000620907 0.000105649 -1.79326e-19)
(0.000807237 7.29966e-05 -7.4512e-21)
(0.000838919 2.94635e-05 9.39569e-20)
(8.02667e-05 -8.76927e-05 -1.98174e-18)
(0.000737116 0.00038198 2.19272e-19)
(0.000665512 6.27739e-05 2.30668e-20)
(0.000704952 0.000279171 1.59834e-23)
(0.000727806 0.000459206 -4.09736e-19)
(0.000844198 3.13286e-05 9.06539e-20)
(7.22305e-05 8.06148e-05 0)
(0.000654361 0.000418879 -4.65963e-20)
(0.00018377 9.65895e-05 0)
(0.000374216 0.000501825 -2.64878e-19)
(0.000309655 0.000168887 0)
(0.000672996 0.000203947 3.55294e-19)
(0.000647489 0.00026039 -4.37332e-20)
(8.16019e-05 0.000104567 6.19269e-19)
(0.000874961 9.2242e-05 -1.62015e-18)
(5.8248e-05 2.23885e-05 2.57239e-19)
(0.000883982 6.64288e-05 -1.68469e-18)
(0.000838216 8.75841e-05 1.63054e-19)
(0.00080857 3.16322e-05 1.89425e-18)
(0.000813175 3.21212e-05 -1.32847e-19)
(0.000734047 7.2891e-05 0)
(0.000806128 2.68545e-05 8.95791e-19)
(0.000956069 0.00022976 -4.27185e-19)
(0.000769892 9.19751e-05 -4.83795e-19)
(0.000777283 0.000230438 -8.81393e-20)
(0.000216082 -0.000159059 -2.07989e-18)
(0.000743414 8.10343e-05 8.87643e-19)
(0.000639678 0.000596398 0)
(9.42808e-05 -0.000114947 0)
(0.00121714 0.000471475 4.97295e-19)
(0.00064066 -6.22801e-05 -3.25377e-18)
(0.00133992 0.000420467 5.76416e-19)
(0.00123722 0.000718107 -6.38656e-20)
(0.000809537 3.05593e-05 -2.10954e-19)
(0.000833278 6.74512e-05 -1.42489e-18)
(0.000814312 2.44852e-05 1.57279e-18)
(0.000816496 2.86413e-05 9.78428e-20)
(0.000668596 0.000351489 -4.4048e-20)
(0.000102011 0.000124544 5.40116e-24)
(0.000747354 -4.25052e-05 2.65138e-19)
(0.000219689 -0.000256066 -7.33002e-19)
(0.000620383 0.000186997 0)
(0.000705395 4.28403e-05 9.90598e-20)
(0.00068884 1.01647e-05 -3.80886e-19)
(0.000387725 0.00017194 3.93429e-20)
(0.000804353 0.000504568 -1.65502e-19)
(0.000149378 7.67135e-05 3.03923e-25)
(0.000810063 0.000410083 0)
(0.000977126 0.00031924 4.1585e-20)
(0.000752725 -7.79702e-05 -6.16383e-19)
(0.000346801 0.000106934 4.97886e-19)
(0.000903154 0.000424615 0)
(4.97729e-05 3.17344e-05 1.33735e-19)
(0.000481436 0.000268556 2.13986e-19)
(0.000499335 -0.00014498 -7.09648e-19)
(0.000138084 -0.000157672 -1.05765e-18)
(0.000822774 3.04542e-05 -4.86949e-19)
(0.000779428 -9.2003e-05 -1.94305e-19)
(0.000550103 0.000728442 -1.17456e-18)
(0.000844634 4.65607e-05 -6.74254e-20)
(0.000643093 -2.46118e-05 1.27159e-18)
(0.000698768 9.94702e-05 2.27825e-20)
(0.000528859 0.000210755 -1.65712e-19)
(3.24037e-05 -2.21517e-05 -8.75993e-20)
(0.000170663 -4.17318e-05 2.40652e-18)
(1.94355e-05 7.63419e-07 -1.9487e-19)
(0.000823486 0.000110809 3.63814e-19)
(0.000659076 0.000136777 0)
(0.00018852 -8.19811e-05 -1.0483e-18)
(0.000122504 -1.65194e-05 3.12967e-19)
(0.000111189 -3.53692e-05 1.16173e-23)
(0.000795362 0.00010721 -3.19321e-19)
(0.000154001 -1.12898e-05 0)
(0.0005825 0.000242377 0)
(0.000111218 0.000331049 -3.62908e-19)
(0.000857756 0.000100219 2.09499e-18)
(1.58457e-05 1.18316e-06 0)
(0.000875887 5.25077e-05 0)
(4.47791e-05 -2.61226e-05 0)
(0.000815315 4.41398e-05 -4.46646e-21)
(0.000791194 -4.79287e-05 0)
(0.00425986 0.0074063 8.06966e-20)
(0.00436132 0.00748591 1.4331e-19)
(0.000843897 -3.90167e-06 0)
(0.000782963 -4.99043e-05 8.1018e-19)
(0.000152858 0.000126163 1.49233e-19)
(0.000850481 6.94428e-05 8.07743e-19)
(0.000130411 0.0001029 2.34435e-20)
(0.000776549 -2.99577e-05 6.24668e-19)
(3.54918e-05 9.95671e-06 0)
(2.93691e-05 -1.39993e-05 -4.4856e-20)
(0.000893363 4.95652e-05 -4.86657e-19)
(3.47255e-05 -3.26378e-05 -6.69921e-19)
(0.000753449 0.000120648 -4.23319e-20)
(0.000168237 0.000163927 -1.88129e-19)
(0.000814104 2.61129e-05 0)
(0.00468259 0.0081536 9.00799e-22)
(0.000177114 0.000786841 3.33572e-19)
(0.000119696 -5.69685e-05 -9.14688e-19)
(6.26895e-05 -3.51614e-05 -1.16895e-18)
(0.000656721 1.44754e-05 1.89888e-20)
(0.000579808 0.000409283 0)
(0.000416556 0.000441787 -2.56371e-19)
(8.73672e-05 -5.91079e-05 1.18388e-18)
(0.000614551 7.84997e-07 7.70388e-20)
(4.28315e-05 2.006e-06 4.07168e-19)
(0.000693692 -5.42427e-05 1.17187e-18)
(0.000809898 3.20618e-05 -5.9605e-19)
(6.8174e-05 -5.53039e-05 1.70954e-18)
(0.000842422 -2.02167e-05 -5.49069e-24)
(0.000633224 7.08721e-06 -3.76574e-20)
(0.00086483 6.80974e-05 0)
(0.000836031 3.72296e-05 0)
(0.00591693 0.00723844 2.59564e-19)
(2.03066e-05 -1.96226e-06 -1.19599e-19)
(0.000132429 -9.84156e-05 7.73096e-19)
(0.000721227 0.00011932 -6.96572e-19)
(2.3493e-05 -1.3738e-07 2.01538e-19)
(0.000613538 -3.40799e-05 -7.23958e-19)
(0.000739692 3.70592e-05 1.55836e-18)
(0.000701305 0.000159305 -3.55501e-19)
(0.00080764 -1.29854e-05 3.6049e-19)
(7.88875e-05 -3.32859e-05 1.11621e-18)
(0.000798956 7.39752e-06 -3.22756e-19)
(0.000864288 4.28432e-05 0)
(0.000538627 0.000303333 4.21087e-20)
(0.000853519 5.03561e-05 -9.46056e-19)
(2.07994e-05 2.15443e-06 9.11355e-19)
(0.000850038 4.67422e-05 9.65662e-19)
(0.000854532 4.49756e-06 -9.60311e-19)
(0.000743998 -1.50997e-06 -5.69293e-19)
(0.000514535 -6.88723e-05 -5.25747e-19)
(0.00432859 0.00745239 2.4697e-19)
(0.00422353 0.00752959 -2.54281e-19)
(0.0042215 0.00758784 2.66687e-19)
(0.0042558 0.00741056 1.97955e-19)
(0.000845185 -2.37945e-05 1.43969e-19)
(0.00447491 0.00751135 0)
(0.00440268 0.00751638 -3.86779e-19)
(3.18461e-05 -1.42449e-07 -9.98222e-19)
(0.00417052 0.00746938 -6.33586e-20)
(0.00414584 0.00743235 -2.21492e-19)
(0.00603004 0.0106068 0)
(0.00654048 0.0111876 3.71361e-20)
(0.00601 0.0105766 0)
(0.00655617 0.0112112 1.30865e-19)
(0.00599739 0.0106006 2.69678e-19)
(0.00659282 0.011228 1.24586e-20)
(0.00593601 0.0106134 -7.76722e-19)
(0.00662304 0.0111469 8.14895e-21)
(0.00390369 0.00920101 -1.90876e-19)
(0.00418687 0.00748855 3.89898e-21)
(0.00423815 0.00755303 7.93478e-20)
(0.00415028 0.00743461 4.11998e-20)
(0.000873144 0.00019017 4.46828e-20)
(1.1288e-05 1.61408e-06 0)
(0.000694996 -0.000126975 0)
(0.000670078 4.81998e-05 0)
(0.00244423 0.00110855 4.24707e-21)
(0.000752707 -3.15696e-05 1.72618e-19)
(4.13222e-05 6.03928e-06 4.54138e-20)
(1.16998e-05 -2.84533e-05 1.65355e-18)
(0.000847896 1.62528e-05 0)
(2.84956e-05 1.30575e-05 -1.91762e-19)
(0.000140743 0.000224709 0)
(1.98417e-05 -1.07826e-06 0)
(1.6205e-05 -1.46402e-06 0)
(0.000818504 0.000136215 1.13706e-20)
(0.0008099 -1.60103e-05 1.79302e-19)
(3.58379e-05 0.000279063 -1.86381e-23)
(0.000158326 0.000274082 -1.84223e-18)
(0.00060018 0.000330591 -8.57146e-20)
(0.000895729 0.000111683 6.00134e-19)
(0.000670907 -0.000240875 6.72962e-19)
(0.000363257 0.00110868 0)
(0.000467442 0.000574426 2.71567e-18)
(9.11284e-05 0.000147598 -1.80335e-18)
(2.44698e-05 1.41985e-07 0)
(0.000820108 -5.45989e-05 3.63169e-20)
(1.70463e-05 3.7348e-05 1.6448e-18)
(0.000899974 3.08069e-05 2.71262e-19)
(-7.68207e-06 -1.81106e-05 3.80303e-18)
(0.000930005 3.94909e-05 -2.69106e-19)
(0.0013598 0.000152014 7.47407e-19)
(3.6846e-05 -1.1019e-05 8.25867e-20)
(3.81564e-05 4.30461e-06 -8.59212e-19)
(5.04999e-05 0.000144699 0)
(0.000905949 7.80115e-05 5.98622e-19)
(0.00049228 0.000368398 2.37183e-19)
(0.000680831 1.79597e-05 -3.89214e-20)
(0.000774279 -6.04002e-06 2.57145e-19)
(0.000736048 -0.000191025 0)
(0.00632157 0.0108969 -1.68047e-19)
(0.00637929 0.0109745 4.05808e-19)
(0.00616076 0.0107318 -6.18398e-19)
(0.00650152 0.011133 -8.09814e-20)
(3.54088e-05 0.000120427 8.00682e-19)
(0.000915267 5.92861e-05 1.46859e-22)
(0.0064118 0.0110068 -3.86439e-19)
(0.00628256 0.0108467 5.48422e-19)
(0.0060809 0.0106737 -4.16798e-19)
(0.006522 0.0111654 -6.81415e-20)
(8.11574e-05 0.000512947 -2.01852e-20)
(9.53554e-05 -0.000203806 -7.9397e-19)
(0.000685802 -2.02915e-05 -7.62775e-19)
(0.000721628 0.000220684 0)
(0.000799681 8.00919e-07 0)
(0.000185221 0.000391737 3.36354e-19)
(0.000596433 0.00051909 -5.41909e-19)
(1.13412e-05 -1.88919e-06 1.78432e-19)
(0.000202396 0.000466632 -7.38516e-19)
(0.00100472 0.000969562 -1.12701e-19)
(0.000739775 0.000166459 0)
(0.000785334 0.000181983 1.31048e-19)
(0.00635467 0.00587691 1.13143e-18)
(0.000740564 0.0011267 8.26667e-20)
(3.98247e-05 3.92761e-05 -7.44839e-20)
(0.000812192 1.77777e-05 0)
(0.000875401 2.6312e-05 -3.56989e-20)
(3.63619e-05 3.70783e-06 -1.96739e-19)
(3.1401e-05 5.13845e-06 1.93028e-19)
(0.000831627 2.10071e-05 5.37347e-19)
(0.000968697 0.000107629 6.58643e-19)
(0.00058282 3.73299e-05 0)
(0.000221841 -0.000305952 -3.98085e-19)
(0.000912415 0.000149344 3.89689e-19)
(1.69233e-05 -6.56025e-05 2.03159e-19)
(0.00144586 0.000439999 -2.58091e-18)
(0.000613132 -5.91227e-06 0)
(0.000788342 0.00014463 3.75552e-19)
(9.37311e-05 0.000398117 0)
(0.00118688 0.0081637 4.62205e-19)
(0.000485896 0.000501032 -1.22477e-18)
(0.00054276 0.00100192 -1.83785e-19)
(0.000877955 1.95171e-05 -1.46079e-19)
(1.40932e-05 2.64336e-05 0)
(0.000939719 7.68043e-05 6.1185e-19)
(0.00410637 0.0073953 8.14246e-20)
(0.00417142 0.00747391 4.72999e-20)
(0.00449852 0.00751403 4.54042e-19)
(0.00444401 0.00754048 -3.29033e-19)
(0.00647546 0.01111 8.10591e-20)
(0.00391499 0.00714601 -9.64718e-22)
(0.00550682 0.00779536 -5.64745e-19)
(0.00409802 0.00737162 5.21842e-21)
(0.00518729 0.00785545 5.11664e-19)
(0.00407981 0.00734003 -4.87125e-20)
(0.00495231 0.00771482 0)
(0.00408509 0.00736436 -8.5649e-20)
(0.004741 0.00758633 4.92498e-19)
(0.00409831 0.00737597 8.75101e-20)
(0.00457361 0.00752591 0)
(0.00428339 0.00742043 1.39748e-19)
(0.00423968 0.00759938 5.80093e-19)
(0.00446638 0.0075258 -5.54828e-19)
(0.00438697 0.00750401 3.71377e-19)
(0.00422815 0.00752546 2.88759e-19)
(0.00643092 0.0110435 -4.97514e-21)
(0.00411778 0.00740144 3.1159e-20)
(0.00645897 0.0110733 0)
(2.53787e-05 6.43779e-06 -1.89899e-19)
(0.00199934 0.00654313 2.28343e-19)
(0.00084052 -4.16911e-05 1.09634e-19)
(0.000857396 1.13065e-05 0)
(1.95552e-06 1.74716e-06 -3.99195e-19)
(6.25279e-06 -0.000149521 6.91993e-19)
(2.4628e-05 5.84887e-05 2.08941e-18)
(0.00082368 0.000179205 -9.00942e-20)
(0.000799068 9.96725e-06 7.0656e-19)
(1.91741e-06 -1.70136e-06 3.10055e-19)
(2.05736e-05 -3.60465e-05 -1.84607e-18)
(0.000760955 2.77939e-05 1.6319e-19)
(0.000865151 0.000124592 -3.0806e-20)
(0.000799836 -9.44768e-06 1.48172e-19)
(0.000408251 0.000678417 0)
(5.84264e-05 -0.000149573 1.15156e-18)
(0.000859672 1.05284e-05 1.52547e-19)
(2.06903e-05 2.48672e-05 0)
(0.000112941 0.000562871 -6.31333e-19)
(0.00060584 0.000597238 1.31817e-18)
(0.000326909 0.000746709 0)
(0.000800278 -1.75039e-05 0)
(0.000799878 3.37401e-06 1.17161e-18)
(1.86677e-05 5.05967e-05 -3.51565e-18)
(1.76765e-05 7.86578e-06 3.737e-19)
(0.000115884 0.000147751 0)
(4.87571e-05 -4.18562e-05 0)
(6.32497e-05 0.000114623 2.01039e-19)
(0.000931991 0.000185223 3.50511e-19)
(0.000799789 1.61704e-05 -1.39502e-18)
(2.36336e-05 3.44891e-05 0)
(0.000478055 1.42668e-05 -6.03843e-20)
(0.00080126 3.97868e-05 -1.56379e-19)
(0.00083777 3.26014e-05 1.06299e-18)
(0.000258287 0.000542884 6.32341e-19)
(0.000869451 0.000155679 0)
(2.1146e-05 -2.53039e-05 5.38793e-19)
(2.97977e-06 -7.26373e-06 -3.20034e-19)
(0.000994088 3.00504e-05 0)
(0.00103249 0.00225998 0)
(0.000953524 -9.34242e-06 0)
(0.000998527 0.000205534 4.27278e-19)
(0.000816079 -3.16904e-05 -2.83733e-19)
(0.000924944 0.00011036 -6.84932e-19)
(0.000799888 3.31416e-06 0)
(4.25623e-05 7.08677e-05 -1.71601e-19)
(0.000174066 0.000328323 1.08133e-18)
(0.00079783 1.83423e-05 -1.40763e-23)
(0.0010847 0.000207931 -6.69148e-19)
(0.0010904 0.000123799 0)
(2.79124e-06 7.32429e-06 2.51082e-19)
(2.00226e-05 -1.64763e-05 -1.94355e-19)
(0.000587844 3.73576e-05 6.95169e-21)
(1.68462e-05 -8.65329e-05 0)
(0.0010545 0.000252817 9.50236e-19)
(0.00502889 0.00974965 -2.83047e-19)
(0.00312096 0.00962009 1.27243e-18)
(5.03154e-05 -0.000109609 -1.91375e-19)
(6.12516e-05 -7.6958e-05 1.85993e-18)
(0.0011923 0.000241423 1.67307e-19)
(0.00132848 0.00108086 2.34129e-19)
(0.000812925 1.47381e-07 -7.32287e-19)
(0.000201092 0.000952405 -2.384e-19)
(0.000810152 0.000926076 -2.18623e-19)
(0.000799723 -3.2563e-06 0)
(8.66097e-05 0.000633147 0)
(9.6022e-05 0.00028392 -4.10576e-23)
(0.000720964 -3.95658e-05 -1.68174e-23)
(0.000820675 6.13327e-05 1.50682e-19)
(0.00263025 0.00206421 -1.23153e-18)
(0.00175915 0.00924044 -1.17195e-19)
(0.00083365 4.7335e-05 4.92308e-19)
(0.00632822 0.00404465 -1.75931e-19)
(0.00672101 0.0115578 -1.36468e-20)
(0.00473429 0.00784389 4.92953e-21)
(0.000801215 1.41259e-05 -2.18996e-18)
(0.000834231 1.25367e-05 3.67345e-24)
(1.01453e-05 -8.45298e-06 -3.48093e-19)
(4.6901e-05 9.20748e-05 -3.49351e-19)
(6.87235e-05 0.000273551 8.75469e-19)
(1.19314e-05 1.70843e-05 4.90512e-19)
(8.97112e-05 0.000232987 3.69837e-19)
(0.000822462 2.68427e-05 0)
(0.00534808 0.0094924 1.95053e-20)
(0.00153135 0.000630696 -2.61122e-20)
(0.000819973 3.26111e-05 3.59919e-19)
(4.04155e-05 -8.54212e-05 0)
(0.00184796 0.000738923 5.46135e-19)
(1.03272e-05 8.26843e-06 -2.70213e-19)
(3.50638e-05 2.96795e-05 9.72033e-20)
(0.00132327 0.0013934 6.36656e-19)
(0.000736076 4.64704e-05 1.83146e-19)
(6.28965e-06 -1.98563e-06 -1.70241e-19)
(0.00206421 0.00155494 -1.05615e-18)
(0.000126553 0.000181387 -8.18907e-19)
(0.00392146 0.00848783 -1.09112e-18)
(6.46133e-06 1.8342e-06 8.81618e-20)
(0.000146917 -0.000147169 -1.2555e-18)
(5.2712e-05 -5.8548e-05 4.05738e-20)
(0.00152821 0.000976644 0)
(0.00103701 0.000139092 -4.08213e-22)
(0.000454507 0.00085005 -4.02173e-20)
(0.000802554 2.67049e-05 -2.33942e-19)
(8.71585e-05 0.000187597 7.36211e-19)
(3.59888e-05 -6.42109e-05 4.04107e-19)
(1.9215e-05 1.60697e-05 -9.47309e-20)
(3.28755e-05 9.52182e-05 -3.20357e-19)
(0.000203114 -0.000280799 -5.44982e-19)
(0.00325201 0.00345624 2.8128e-21)
)
;

boundaryField
{
    back
    {
        type            empty;
    }
    ingreso
    {
        type            fixedValue;
        value           uniform (0.0008 0 0);
    }
    salida
    {
        type            zeroGradient;
    }
    front
    {
        type            empty;
    }
    defaultFaces
    {
        type            noSlip;
    }
}


// ************************************************************************* //
