/*--------------------------------*- C++ -*----------------------------------*\
  =========                 |
  \\      /  F ield         | OpenFOAM: The Open Source CFD Toolbox
   \\    /   O peration     | Website:  https://openfoam.org
    \\  /    A nd           | Version:  7
     \\/     M anipulation  |
\*---------------------------------------------------------------------------*/
FoamFile
{
    version     2.0;
    format      ascii;
    class       volVectorField;
    location    "24";
    object      U;
}
// * * * * * * * * * * * * * * * * * * * * * * * * * * * * * * * * * * * * * //

dimensions      [0 1 -1 0 0 0 0];

internalField   nonuniform List<vector> 
591
(
(0.000806945 -4.76209e-05 1.22652e-18)
(0.00077572 -3.76794e-05 -6.58405e-19)
(0.000846652 -6.46555e-05 5.75162e-20)
(0.000832081 1.03772e-05 -1.47812e-19)
(0.000817926 1.88516e-05 2.23489e-19)
(0.000759973 -2.93911e-05 -1.38402e-19)
(0.000534406 -0.000388878 7.97089e-19)
(0.000795898 -7.32918e-06 2.08005e-18)
(0.00577288 0.00248869 9.86889e-19)
(0.000779215 -2.24731e-05 2.38287e-18)
(6.15386e-05 0.000179288 1.21761e-18)
(0.000888298 0.00128385 9.40409e-21)
(0.000785406 1.24361e-05 1.28868e-18)
(0.00155371 0.00235327 -7.87195e-19)
(0.000796312 2.62995e-05 -4.38135e-19)
(0.000137273 -0.000257005 2.53093e-22)
(0.000130871 0.000664782 7.05277e-19)
(0.000835109 1.97775e-05 -4.92544e-19)
(0.00200224 0.000379994 4.7365e-19)
(0.00134024 0.000290069 -2.47052e-19)
(0.000827437 1.52219e-05 3.68946e-19)
(0.00330986 0.00665154 -7.92025e-20)
(3.7474e-05 7.71348e-05 2.70885e-19)
(0.000818858 8.54626e-06 -4.50753e-19)
(1.87726e-05 -2.37248e-05 3.58975e-19)
(0.000757849 2.41194e-05 0)
(8.93632e-05 0.000480011 1.59977e-19)
(0.000511807 3.23342e-05 -1.78919e-19)
(0.000742631 5.73266e-05 1.1337e-18)
(0.000821904 2.95978e-06 5.8923e-19)
(6.82511e-05 -4.40171e-07 -2.45518e-24)
(4.759e-05 -5.47519e-05 3.52306e-19)
(4.71745e-05 -4.40878e-06 -4.64076e-20)
(5.59613e-05 -9.52612e-06 0)
(6.36427e-05 -1.51116e-05 1.13049e-18)
(0.0011617 0.00013092 1.80044e-19)
(4.09437e-05 -7.51728e-06 4.47309e-20)
(0.000818694 1.66791e-05 4.25436e-23)
(3.56762e-05 5.2197e-05 2.66091e-19)
(6.46084e-05 -0.000150624 -8.54983e-19)
(0.000542619 -0.00017956 9.5714e-19)
(3.40521e-05 -9.85975e-06 4.54987e-20)
(0.000792225 -7.54024e-06 -1.5569e-18)
(0.00081868 1.46588e-05 -6.80423e-19)
(2.46857e-05 -1.18688e-05 0)
(6.39335e-05 1.14013e-05 8.52163e-20)
(0.00132699 0.00451409 8.92763e-19)
(8.63484e-05 2.37079e-05 8.63907e-20)
(0.000788854 3.47391e-05 0)
(0.000363885 -0.000137053 6.78195e-19)
(0.000368526 0.000281107 5.1204e-21)
(0.000383243 7.66049e-05 -1.00418e-18)
(0.00634377 0.0109429 -7.6413e-19)
(0.00622708 0.010791 1.54506e-20)
(0.00560953 0.0103719 1.45299e-18)
(0.000805686 -2.66421e-05 0)
(7.51339e-05 3.86147e-05 0)
(0.000326592 3.4065e-05 9.40706e-24)
(7.26546e-05 1.58945e-05 -3.46574e-19)
(0.00083891 -5.51653e-06 0)
(0.000605478 2.63239e-05 3.17718e-19)
(0.000805545 2.66111e-06 2.17557e-18)
(0.000768209 -5.05159e-07 -5.42364e-19)
(0.000768751 1.79715e-05 -3.12571e-19)
(0.00171205 0.00052492 5.4375e-19)
(0.000784752 -3.03224e-06 -1.13843e-18)
(0.000808676 -2.5872e-06 -5.13541e-19)
(9.50063e-05 4.42785e-06 -1.73459e-19)
(0.000683585 0.00230288 0)
(0.000812332 1.02254e-05 0)
(0.000742449 1.90407e-05 -1.3643e-18)
(4.45774e-05 2.01761e-05 0)
(0.000280093 0.000277361 3.2692e-19)
(5.1807e-05 -2.09878e-05 0)
(5.13589e-05 -7.20003e-06 1.59526e-19)
(3.40437e-05 -5.75481e-05 -3.36755e-20)
(0.000761677 5.92345e-05 2.46183e-19)
(5.15707e-05 1.44011e-05 0)
(0.000778296 5.98116e-05 4.42273e-19)
(0.000745274 0.000301042 2.10805e-19)
(0.000959838 5.98667e-05 -3.9817e-20)
(4.97512e-05 2.84747e-05 -4.52015e-20)
(7.35006e-06 -4.42822e-05 0)
(0.000417907 0.000225412 1.70233e-19)
(2.03595e-06 3.54539e-05 0)
(0.000749129 1.13939e-05 -5.982e-19)
(0.000550944 -0.000110973 0)
(7.58271e-05 2.90937e-06 -1.74535e-19)
(5.55237e-06 -5.90196e-05 0)
(0.000805214 0.000247018 -3.41415e-19)
(5.22928e-06 -2.76257e-05 0)
(0.000412201 0.000324048 -1.21586e-23)
(0.000506453 0.000117778 0)
(0.000791657 4.6347e-05 4.50977e-25)
(3.05857e-06 2.39327e-05 -4.21856e-20)
(0.000430949 1.03054e-05 1.76429e-18)
(0.00101584 7.51199e-05 4.16277e-20)
(0.000967847 3.53158e-05 6.40772e-22)
(0.000720823 0.000650246 2.69577e-19)
(4.28487e-06 6.75021e-05 0)
(8.71502e-06 -0.000113515 -3.1243e-19)
(1.92148e-05 -0.000204411 -1.10233e-18)
(1.01611e-06 0.000104349 -5.95993e-19)
(0.000719398 -5.28401e-06 0)
(3.96491e-06 0.000132021 0)
(0.000787867 4.02484e-06 2.18532e-18)
(0.000755831 2.69851e-05 1.49758e-18)
(0.00039717 -3.27063e-05 0)
(5.49522e-05 0.000233471 -8.94686e-19)
(-1.45153e-06 0.000210121 4.96028e-19)
(8.42459e-05 0.000472871 6.2539e-19)
(0.000291849 0.000115238 -9.3604e-19)
(0.000808725 1.0753e-05 1.34787e-19)
(0.000267404 -3.94398e-06 5.31363e-19)
(2.73258e-06 4.79339e-05 0)
(4.20299e-05 0.000319667 -1.08891e-18)
(0.000311689 0.000329804 -1.61738e-19)
(8.3877e-06 -8.47817e-05 1.46633e-19)
(0.000647678 0.000784107 0)
(0.000356334 0.000391871 5.74544e-20)
(0.000800266 -5.22696e-07 1.07094e-18)
(0.000765015 -2.18494e-05 -2.68671e-18)
(9.21614e-06 -0.000149195 0)
(0.000750191 -1.53234e-05 -1.11358e-19)
(0.00031794 -5.63048e-05 1.24375e-18)
(0.00271939 0.000803891 -3.35598e-19)
(-2.45473e-06 0.000164063 -6.12808e-19)
(-1.22602e-05 0.000203218 1.61846e-18)
(0.000841925 1.8326e-05 -3.88945e-20)
(7.43764e-05 -6.72891e-06 -7.50192e-19)
(0.000778455 3.22744e-05 -3.87799e-19)
(0.000892186 2.8423e-05 -4.09938e-20)
(6.34735e-05 0.000378498 -5.967e-19)
(0.000465654 8.44384e-05 -4.94093e-19)
(5.89002e-05 -1.9119e-06 1.56207e-19)
(0.000816341 -9.06576e-06 -1.05662e-18)
(0.0016396 0.000207889 -1.13758e-18)
(5.61492e-07 8.14795e-05 4.96172e-19)
(0.000792641 -6.56361e-07 -5.00292e-19)
(0.000877431 0.000539395 -7.85336e-20)
(0.000131878 0.000856842 0)
(0.000552318 6.86932e-05 0)
(0.000268639 6.47634e-05 -1.60925e-18)
(6.93899e-05 6.64509e-05 -1.37454e-18)
(3.61069e-05 2.49245e-05 0)
(0.0042169 0.00739673 -1.00128e-20)
(0.00415703 0.00738671 3.17703e-20)
(0.00435038 0.00759214 -5.01611e-21)
(0.00420931 0.00773815 0)
(0.00420269 0.00760152 5.75896e-19)
(0.00418668 0.00740769 -9.15487e-20)
(0.00421425 0.00804579 4.83292e-19)
(0.00429871 0.00745754 0)
(0.00420826 0.00854235 6.15304e-19)
(0.00432447 0.00749072 2.22816e-19)
(0.000801456 -3.96174e-06 -1.36971e-18)
(0.00074513 5.44952e-05 0)
(0.000219398 7.27653e-05 1.27727e-19)
(5.78589e-05 2.07592e-05 8.72139e-20)
(8.51935e-05 5.31507e-05 6.80241e-19)
(0.000114561 5.09116e-05 -3.41776e-19)
(0.000110077 1.51827e-05 0)
(5.6566e-05 8.04241e-06 8.18581e-20)
(0.000204193 0.000147241 0)
(0.000172978 6.01016e-05 -5.24418e-20)
(0.000333994 0.000232178 -5.09377e-21)
(6.18503e-05 5.01979e-05 -4.378e-19)
(9.91761e-05 3.63808e-05 -8.52751e-20)
(9.7095e-05 7.10173e-05 1.31236e-21)
(0.000246479 0.000372039 -6.66317e-19)
(0.000146184 0.00107565 0)
(4.74019e-05 5.92068e-05 3.43174e-19)
(0.000177517 0.00182666 0)
(0.000205917 0.000261231 7.0483e-19)
(4.59942e-05 -6.32548e-06 1.11355e-19)
(0.000463886 0.000171186 -1.7235e-19)
(0.000747561 2.80713e-05 -1.85777e-18)
(5.06689e-05 2.09736e-07 4.18648e-24)
(0.000157806 3.90477e-05 2.24655e-19)
(0.000238636 0.000110369 -8.99607e-20)
(0.000868532 0.000703127 3.35005e-19)
(0.000759821 0.00162121 -9.22044e-21)
(0.000398536 0.00137522 -9.44202e-21)
(0.00100786 0.000560008 0)
(0.000114998 -1.01236e-05 1.11913e-18)
(0.000127483 2.84507e-05 -4.43283e-20)
(0.000416709 -0.000242729 -1.13642e-18)
(0.000798709 3.32817e-05 0)
(0.000185254 3.06484e-05 3.63253e-19)
(0.000280453 0.00136031 0)
(0.00102918 0.000744117 -7.30359e-20)
(0.000814953 4.40569e-05 -1.84128e-19)
(9.22204e-05 -1.79441e-05 -3.00083e-19)
(0.00080267 0.000309013 -2.08127e-20)
(7.71071e-05 -2.24442e-05 -5.99266e-19)
(0.000226321 0.000185052 8.64098e-20)
(0.000225377 0.000313116 -3.45095e-19)
(0.000865705 0.000237071 0)
(0.000787417 4.37585e-05 0)
(0.000258602 0.000153572 1.76896e-19)
(0.000235127 2.22054e-05 1.45792e-24)
(0.000184966 0.000214768 0)
(0.000281956 0.000643777 -5.5554e-21)
(0.00032849 2.09997e-05 0)
(0.000335544 0.000595432 0)
(0.000115928 9.33201e-05 -1.34713e-21)
(0.000807518 -6.33286e-06 -9.36936e-19)
(0.000816035 -1.19494e-05 7.78301e-19)
(0.00013535 7.04195e-05 -1.49902e-19)
(0.00093469 0.000151099 8.51257e-20)
(0.000819484 4.95457e-05 3.31185e-19)
(0.000790474 1.6249e-05 -2.91905e-19)
(0.000985964 0.00040297 0)
(0.000424303 0.000128738 6.24653e-19)
(0.00087627 0.000315708 2.09218e-20)
(0.000550363 0.00016639 0)
(0.000273928 0.00043912 4.0972e-19)
(0.000257394 0.000227894 -8.44391e-20)
(0.00108926 0.000381148 -7.82483e-19)
(0.000592325 0.000117415 -1.79366e-19)
(0.000785228 8.40558e-05 -7.38667e-21)
(0.000817221 2.61058e-05 9.29979e-20)
(0.000109483 -9.26618e-05 -1.98199e-18)
(0.000721895 0.000378148 2.19299e-19)
(0.000636786 6.83009e-05 2.3062e-20)
(0.000685742 0.000273376 1.52464e-23)
(0.000708302 0.000446506 -4.09602e-19)
(0.000828158 3.93145e-05 8.85991e-20)
(7.75197e-05 9.05757e-05 0)
(0.000635586 0.000418337 -4.65794e-20)
(0.00018527 0.000111165 0)
(0.000365268 0.000507151 -2.64866e-19)
(0.000309333 0.000180571 0)
(0.000655228 0.000204165 3.55372e-19)
(0.000627833 0.000268897 -4.37412e-20)
(8.34799e-05 0.000110466 6.1922e-19)
(0.000868734 0.000117314 -1.61552e-18)
(6.55482e-05 2.77953e-05 2.57277e-19)
(0.000869433 5.18064e-05 -1.65131e-18)
(0.000802877 6.15172e-05 1.61063e-19)
(0.000789611 9.49524e-06 1.93023e-18)
(0.000787745 5.73758e-06 -1.31426e-19)
(0.000697192 7.4753e-05 0)
(0.000819703 3.31974e-05 8.73859e-19)
(0.000925738 0.00023719 -4.27294e-19)
(0.000745765 7.60423e-05 -4.82068e-19)
(0.000759724 0.000228334 -8.8125e-20)
(0.000242789 -0.000107629 -2.07991e-18)
(0.000713535 9.30713e-05 8.87623e-19)
(0.000625996 0.000592415 0)
(0.000130585 -9.73046e-05 0)
(0.00118007 0.000466296 4.97067e-19)
(0.000786935 -0.000119755 -3.23069e-18)
(0.00128792 0.000418655 5.75081e-19)
(0.00126442 0.000712238 -6.39037e-20)
(0.000786081 5.34315e-05 -2.10713e-19)
(0.000814055 7.59984e-05 -1.41011e-18)
(0.000799605 3.08119e-05 1.57132e-18)
(0.000793973 1.00553e-05 9.67836e-20)
(0.000659261 0.000343131 -4.4055e-20)
(0.000107851 0.000141286 1.24436e-23)
(0.000710001 -6.50874e-05 2.65184e-19)
(0.000251729 -0.000191971 -7.36702e-19)
(0.000600375 0.000191945 0)
(0.000673655 2.22583e-05 9.90681e-20)
(0.000652463 8.50454e-06 -3.80985e-19)
(0.000376343 0.000181109 3.93198e-20)
(0.000774019 0.000497611 -1.65518e-19)
(0.00015598 8.97065e-05 2.37577e-25)
(0.000797447 0.000390844 0)
(0.000954714 0.00032187 4.15951e-20)
(0.000722819 -0.000102811 -6.16541e-19)
(0.000336736 0.000115627 4.97512e-19)
(0.000884863 0.000418049 0)
(5.61484e-05 3.72829e-05 1.33755e-19)
(0.000465534 0.000273469 2.14009e-19)
(0.000441327 -8.8428e-05 -7.09401e-19)
(0.000184881 -0.000131191 -1.05937e-18)
(0.000796774 4.02167e-06 -4.74518e-19)
(0.000802507 -0.000113156 -1.92929e-19)
(0.000565184 0.000719495 -1.17252e-18)
(0.000826556 5.09031e-05 -6.62246e-20)
(0.00075671 -4.78348e-05 1.25893e-18)
(0.000661961 9.84894e-05 2.27884e-20)
(0.000509199 0.000219535 -1.6573e-19)
(4.28351e-05 -2.57167e-05 -8.7611e-20)
(0.00019787 -2.33571e-05 2.40595e-18)
(3.1654e-05 9.7043e-07 -1.94864e-19)
(0.000778894 8.43199e-05 3.60498e-19)
(0.000631309 0.000141183 0)
(0.000205491 -4.98265e-05 -1.04829e-18)
(0.000132238 1.53858e-06 3.12723e-19)
(0.00013487 -3.13423e-05 -3.93929e-25)
(0.000778765 0.000116939 -3.18551e-19)
(0.000160679 -3.5455e-06 0)
(0.000566416 0.000244232 0)
(0.00011142 0.000340138 -3.62935e-19)
(0.000841412 0.000108928 2.09724e-18)
(2.57767e-05 1.75145e-06 0)
(0.000838031 3.0888e-05 0)
(5.49777e-05 -2.68274e-05 0)
(0.000813313 2.52807e-05 -4.4273e-21)
(0.000810179 -6.67914e-05 0)
(0.00427102 0.00742997 7.57714e-20)
(0.00435287 0.00750106 1.44751e-19)
(0.000837602 7.86736e-06 0)
(0.000749614 -5.98661e-05 8.13125e-19)
(0.000154338 0.000137425 1.49249e-19)
(0.000848962 7.51463e-05 7.90193e-19)
(0.000135189 0.000114214 2.34466e-20)
(0.000748388 -5.34323e-05 6.27362e-19)
(4.12345e-05 1.26698e-05 0)
(3.78536e-05 -1.75955e-05 -4.48632e-20)
(0.000866052 5.71437e-05 -4.84848e-19)
(4.75384e-05 -3.64505e-05 -6.69866e-19)
(0.000735405 0.000122582 -4.22649e-20)
(0.000167797 0.000174049 -1.88149e-19)
(0.000805659 1.13012e-05 0)
(0.00466952 0.00818841 9.59643e-22)
(0.000163617 0.00077958 3.33801e-19)
(0.000138016 -4.67836e-05 -9.14678e-19)
(7.59782e-05 -3.5334e-05 -1.16908e-18)
(0.000777039 1.96486e-05 1.89656e-20)
(0.00056621 0.000415131 0)
(0.000397118 0.000432547 -2.5632e-19)
(0.000113911 -5.00273e-05 1.18395e-18)
(0.000735572 3.95215e-06 7.68985e-20)
(4.94764e-05 2.52137e-06 4.07184e-19)
(0.000641966 -5.88681e-05 1.17222e-18)
(0.000800862 2.32635e-05 -5.97906e-19)
(9.12691e-05 -5.4592e-05 1.70951e-18)
(0.000832133 3.555e-06 -2.07092e-24)
(0.000752377 1.19364e-05 -3.7674e-20)
(0.000850415 5.70777e-05 0)
(0.000796609 3.81688e-05 0)
(0.00592904 0.00723477 2.5797e-19)
(3.31091e-05 1.75191e-06 -1.19587e-19)
(0.000180272 -7.4801e-05 7.73082e-19)
(0.000705854 0.000119856 -6.9678e-19)
(3.7628e-05 -9.25017e-07 2.01491e-19)
(0.000566933 -2.03555e-05 -7.24152e-19)
(0.000713497 1.52997e-05 1.54017e-18)
(0.000682976 0.000153893 -3.55577e-19)
(0.000799819 -2.7572e-05 3.54361e-19)
(9.84841e-05 -2.83253e-05 1.11641e-18)
(0.000765777 9.45766e-06 -3.19255e-19)
(0.000846733 5.39297e-05 0)
(0.000524397 0.00030279 4.21145e-20)
(0.000840281 3.91632e-05 -9.20986e-19)
(3.27665e-05 -1.19147e-06 9.11068e-19)
(0.000818935 3.27304e-05 9.40657e-19)
(0.000827675 -2.47665e-05 -9.63432e-19)
(0.000697524 1.28786e-05 -5.67638e-19)
(0.00048168 -4.74242e-05 -5.2588e-19)
(0.00431954 0.00747601 2.49736e-19)
(0.00422825 0.00753941 -2.3282e-19)
(0.00422272 0.007592 2.70569e-19)
(0.00423717 0.00741303 1.86238e-19)
(0.000841455 -2.44202e-06 1.43068e-19)
(0.00447678 0.00749963 0)
(0.00439678 0.00752423 -3.82178e-19)
(4.84538e-05 -3.87642e-07 -9.96711e-19)
(0.00412865 0.00744946 -6.30414e-20)
(0.00410393 0.00741019 -2.64032e-19)
(0.00602431 0.0106004 0)
(0.00658736 0.0111929 3.59902e-20)
(0.00600446 0.0105697 0)
(0.00661218 0.0112062 1.36401e-19)
(0.00599309 0.0105927 2.69247e-19)
(0.00664209 0.011206 1.32013e-20)
(0.00593243 0.0106058 -7.75203e-19)
(0.00666953 0.0110981 8.10632e-21)
(0.00390169 0.00921078 -1.908e-19)
(0.00416543 0.00748849 3.91071e-21)
(0.00424424 0.00756466 7.89462e-20)
(0.00411117 0.0074011 4.88742e-20)
(0.000847728 0.000176666 4.45378e-20)
(1.88535e-05 2.49592e-06 0)
(0.000648039 -0.000153632 0)
(0.000743814 3.15735e-05 0)
(0.00245043 0.0010864 4.2103e-21)
(0.000721461 -2.22035e-05 1.71137e-19)
(4.80291e-05 8.22277e-06 4.54223e-20)
(2.15799e-05 -3.35241e-05 1.65293e-18)
(0.000837234 2.55246e-05 0)
(3.32661e-05 1.621e-05 -1.91792e-19)
(0.0001459 0.000232338 0)
(3.3982e-05 -1.31775e-06 0)
(2.81902e-05 -2.06143e-06 0)
(0.00079478 0.000126546 1.12913e-20)
(0.000817913 4.25838e-06 1.77576e-19)
(3.41473e-05 0.000320083 8.43924e-24)
(0.000161823 0.000278655 -1.84238e-18)
(0.000589856 0.000339866 -8.57247e-20)
(0.000883683 0.000127658 6.02917e-19)
(0.00071257 -0.000426845 6.66231e-19)
(0.000320116 0.00111171 0)
(0.000455528 0.000551631 2.7151e-18)
(9.8115e-05 0.000154139 -1.80024e-18)
(4.01429e-05 5.01183e-07 0)
(0.000829526 -2.17119e-05 3.60863e-20)
(2.12631e-05 4.42928e-05 1.64504e-18)
(0.000893675 2.58977e-05 2.71412e-19)
(6.98246e-05 -0.000208698 3.78386e-18)
(0.000921827 4.18454e-05 -2.69214e-19)
(0.00141645 0.000115334 7.47028e-19)
(4.61054e-05 -1.28484e-05 8.26003e-20)
(4.54114e-05 8.34863e-06 -8.58632e-19)
(4.73735e-05 0.000158556 0)
(0.000884812 9.172e-05 5.98877e-19)
(0.000482343 0.000371409 2.37197e-19)
(0.000801512 1.69674e-05 -3.88084e-20)
(0.000744988 -1.74154e-05 2.55113e-19)
(0.000699971 -0.000233771 0)
(0.00632319 0.0109037 -1.66895e-19)
(0.00637681 0.0109671 4.04404e-19)
(0.00615667 0.0107274 -6.16026e-19)
(0.00653286 0.0111329 -7.97441e-20)
(4.21768e-05 0.000123728 8.00647e-19)
(0.000884815 5.61308e-05 1.58886e-22)
(0.0064044 0.0109974 -3.85329e-19)
(0.00627794 0.0108487 5.45014e-19)
(0.00607766 0.0106656 -4.16424e-19)
(0.00657025 0.0111683 -6.68766e-20)
(9.44071e-05 0.000571067 -2.01998e-20)
(0.000172185 -0.000181909 -7.92471e-19)
(0.000785396 -4.33717e-06 -7.59127e-19)
(0.000707242 0.000219037 0)
(0.000771741 2.85226e-07 0)
(0.000184556 0.000393149 3.36374e-19)
(0.000599438 0.000560592 -5.41581e-19)
(2.0912e-05 -2.99917e-06 1.78462e-19)
(0.000210479 0.000463419 -7.38555e-19)
(0.0010029 0.000972729 -1.1273e-19)
(0.000723223 0.00017267 0)
(0.000770312 0.00016768 1.31027e-19)
(0.00637395 0.0058779 1.12664e-18)
(0.000702183 0.00114239 8.28112e-20)
(4.50449e-05 4.45649e-05 -7.44959e-20)
(0.00081459 4.81081e-05 0)
(0.000870346 1.91957e-05 -3.57132e-20)
(4.4049e-05 6.25627e-06 -1.96695e-19)
(3.79248e-05 7.69443e-06 1.93008e-19)
(0.000816154 1.88411e-05 5.3362e-19)
(0.00095612 0.00010542 6.58702e-19)
(0.000696687 4.81229e-05 0)
(0.000227567 -0.000291986 -3.98586e-19)
(0.000886365 0.000141225 3.8926e-19)
(3.84643e-05 -8.411e-05 2.03174e-19)
(0.00145481 0.000368267 -2.57938e-18)
(0.00072223 -8.71554e-08 0)
(0.000775191 0.000138144 3.75661e-19)
(9.05618e-05 0.000408624 0)
(0.00118226 0.00816935 4.61754e-19)
(0.000462169 0.000509478 -1.22403e-18)
(0.000535978 0.000967726 -1.83786e-19)
(0.0008611 2.60473e-05 -1.45349e-19)
(1.92887e-05 3.11179e-05 0)
(0.000909773 7.28163e-05 6.11843e-19)
(0.00408443 0.00736957 7.96896e-20)
(0.00414394 0.00747082 4.8065e-20)
(0.00449455 0.00750263 4.53214e-19)
(0.00444084 0.00754903 -3.18324e-19)
(0.00650039 0.0111101 7.97943e-20)
(0.00389644 0.00719101 -8.47215e-22)
(0.00551004 0.00779076 -5.63523e-19)
(0.00408279 0.00740602 5.03332e-21)
(0.0051887 0.00785056 5.10333e-19)
(0.00406393 0.00735857 -4.6939e-20)
(0.00495032 0.00770811 0)
(0.0040676 0.00735984 -8.31405e-20)
(0.00473862 0.00758007 4.91426e-19)
(0.00408297 0.00736709 8.55611e-20)
(0.00456819 0.00751425 0)
(0.00429837 0.00745016 1.38075e-19)
(0.00424719 0.00760572 5.87961e-19)
(0.00446769 0.00752634 -5.40234e-19)
(0.00438119 0.00751052 3.69412e-19)
(0.00422919 0.00754062 2.60258e-19)
(0.00643151 0.0110338 -5.31427e-21)
(0.00409347 0.00737761 3.05819e-20)
(0.00646759 0.0110742 0)
(3.08623e-05 9.34752e-06 -1.89928e-19)
(0.00197941 0.00652633 2.28259e-19)
(0.000843218 -6.80367e-06 1.0894e-19)
(0.000853735 1.95046e-05 0)
(3.90756e-06 4.0626e-06 -3.99257e-19)
(8.34505e-05 -0.000202842 6.92122e-19)
(2.41726e-05 6.6065e-05 2.0876e-18)
(0.000805913 0.000188605 -9.01234e-20)
(0.000762679 9.64414e-06 6.98229e-19)
(4.44182e-06 -4.67711e-06 3.10109e-19)
(2.77575e-05 -4.53564e-05 -1.84592e-18)
(0.000735945 2.14849e-05 1.61491e-19)
(0.000843906 0.000125813 -3.02715e-20)
(0.000759221 -6.10153e-06 1.46681e-19)
(0.000408359 0.000651744 0)
(0.00012651 -0.000152474 1.15205e-18)
(0.000838424 1.90868e-05 1.51984e-19)
(2.40418e-05 2.92311e-05 0)
(0.000102803 0.000564965 -6.31299e-19)
(0.00060707 0.000598192 1.31458e-18)
(0.000341654 0.000725952 0)
(0.000756235 -1.32197e-05 0)
(0.000765785 3.74089e-05 1.15789e-18)
(2.48229e-05 5.4079e-05 -3.51453e-18)
(2.21402e-05 1.09987e-05 3.73756e-19)
(0.000112996 0.000156791 0)
(6.43456e-05 -4.51424e-05 0)
(7.18524e-05 0.000123256 2.00985e-19)
(0.000902912 0.000173137 3.50149e-19)
(0.000794507 -1.1831e-05 -1.37838e-18)
(2.72645e-05 4.01521e-05 0)
(0.000591356 6.76746e-05 -6.01384e-20)
(0.000772193 2.92487e-05 -1.54732e-19)
(0.000828488 1.23542e-05 1.02667e-18)
(0.000253341 0.000546738 6.32343e-19)
(0.000831407 0.000144257 0)
(3.26813e-05 -3.27336e-05 5.38871e-19)
(4.62427e-06 -1.53075e-05 -3.20056e-19)
(0.00110979 7.27122e-06 0)
(0.000974196 0.00220283 0)
(0.00104569 -6.88399e-05 0)
(0.000976578 0.000191994 4.27405e-19)
(0.000825617 -1.48114e-05 -2.817e-19)
(0.000894056 0.000123785 -6.85104e-19)
(0.00076794 8.50738e-06 0)
(4.4814e-05 7.8842e-05 -1.71628e-19)
(0.000172848 0.000331377 1.08142e-18)
(0.00077942 3.96701e-05 1.7164e-23)
(0.00106376 0.000184518 -6.68866e-19)
(0.00107749 0.000116892 0)
(3.7861e-06 1.32953e-05 2.51121e-19)
(2.67728e-05 -2.16684e-05 -1.94384e-19)
(0.000684508 3.1901e-05 6.88312e-21)
(4.99162e-05 -0.000113253 0)
(0.00102356 0.000251341 9.50879e-19)
(0.00502958 0.00974324 -2.83067e-19)
(0.00311575 0.00962346 1.27035e-18)
(8.94092e-05 -0.000122358 -1.91426e-19)
(8.72606e-05 -8.42737e-05 1.86032e-18)
(0.00118755 0.000221101 1.67051e-19)
(0.00130567 0.00105534 2.34123e-19)
(0.000825838 1.02843e-05 -7.26458e-19)
(0.000216957 0.000933792 -2.38941e-19)
(0.000778846 0.000879516 -2.18623e-19)
(0.000772723 -1.21748e-05 0)
(0.000103912 0.000700093 0)
(9.89177e-05 0.000287724 -4.93661e-23)
(0.000764164 -1.90377e-05 -2.10463e-23)
(0.000809203 1.44976e-05 1.51109e-19)
(0.00261924 0.00202141 -1.22968e-18)
(0.00175554 0.00924494 -1.17017e-19)
(0.00081294 2.84555e-05 4.84384e-19)
(0.00636277 0.00403783 -1.74846e-19)
(0.00677958 0.0114912 -1.27111e-20)
(0.00472395 0.00789803 4.55307e-21)
(0.000797761 4.78591e-05 -2.17486e-18)
(0.000817408 3.77025e-05 -1.00586e-23)
(1.63067e-05 -1.26382e-05 -3.4811e-19)
(4.93193e-05 0.000100786 -3.49403e-19)
(8.37158e-05 0.000284769 8.76183e-19)
(1.63933e-05 2.11213e-05 4.90587e-19)
(9.15868e-05 0.000242177 3.69873e-19)
(0.0008179 3.98288e-05 0)
(0.00533998 0.00945861 1.90861e-20)
(0.00149754 0.000619955 -2.61824e-20)
(0.00082224 2.11405e-05 3.55674e-19)
(6.7228e-05 -9.69151e-05 0)
(0.0018563 0.000739985 5.45162e-19)
(1.44106e-05 1.1625e-05 -2.70256e-19)
(4.00332e-05 3.48983e-05 9.72185e-20)
(0.00131891 0.00138157 6.36882e-19)
(0.00076576 3.04224e-05 1.80964e-19)
(1.3231e-05 -3.58425e-06 -1.7027e-19)
(0.00202732 0.00154458 -1.05558e-18)
(0.000128942 0.000189818 -8.18935e-19)
(0.00392179 0.00847303 -1.0896e-18)
(1.18363e-05 3.15005e-06 8.81754e-20)
(0.000212423 -0.000349288 -1.24098e-18)
(6.86376e-05 -6.12776e-05 4.05809e-20)
(0.00148249 0.000956915 0)
(0.00101196 0.000143621 -4.28122e-22)
(0.000436977 0.000856309 -4.02268e-20)
(0.000807651 1.96957e-05 -2.31499e-19)
(8.66015e-05 0.00019707 7.35355e-19)
(5.55936e-05 -7.35185e-05 4.04194e-19)
(2.28559e-05 1.96306e-05 -9.47456e-20)
(3.99233e-05 0.000106186 -3.20366e-19)
(0.000193586 -0.000360694 -5.37343e-19)
(0.0032343 0.00342342 2.85431e-21)
)
;

boundaryField
{
    back
    {
        type            empty;
    }
    ingreso
    {
        type            fixedValue;
        value           uniform (0.0008 0 0);
    }
    salida
    {
        type            zeroGradient;
    }
    front
    {
        type            empty;
    }
    defaultFaces
    {
        type            noSlip;
    }
}


// ************************************************************************* //
