/*--------------------------------*- C++ -*----------------------------------*\
  =========                 |
  \\      /  F ield         | OpenFOAM: The Open Source CFD Toolbox
   \\    /   O peration     | Website:  https://openfoam.org
    \\  /    A nd           | Version:  7
     \\/     M anipulation  |
\*---------------------------------------------------------------------------*/
FoamFile
{
    version     2.0;
    format      ascii;
    class       volVectorField;
    location    "57";
    object      U;
}
// * * * * * * * * * * * * * * * * * * * * * * * * * * * * * * * * * * * * * //

dimensions      [0 1 -1 0 0 0 0];

internalField   nonuniform List<vector> 
591
(
(0.00082397 -3.06698e-05 1.21823e-18)
(0.000810307 -2.71212e-05 -6.63667e-19)
(0.000856258 -2.09127e-05 5.69061e-20)
(0.000853226 -4.98057e-06 -1.49158e-19)
(0.000836193 8.10524e-06 2.25433e-19)
(0.000800635 -4.06235e-05 -1.39654e-19)
(0.000552908 -0.000321093 8.06434e-19)
(0.000801879 3.27947e-06 2.06504e-18)
(0.00573556 0.00249564 9.8771e-19)
(0.000794219 -1.49804e-05 2.45267e-18)
(5.12006e-05 0.00017246 1.21842e-18)
(0.000922704 0.00137063 9.41111e-21)
(0.0007976 6.29141e-06 1.31942e-18)
(0.00160223 0.00238252 -7.87791e-19)
(0.000802919 4.07855e-06 -4.38515e-19)
(7.87765e-05 -0.000218397 2.48737e-22)
(0.000134894 0.000676915 7.05092e-19)
(0.000819257 5.51245e-05 -4.89788e-19)
(0.00193809 0.0003881 4.73289e-19)
(0.00135572 0.000257789 -2.47163e-19)
(0.000833254 -1.85453e-06 3.72009e-19)
(0.00340009 0.00655899 -8.15367e-20)
(2.93739e-05 7.19999e-05 2.70988e-19)
(0.000833729 -9.407e-06 -4.50391e-19)
(1.31681e-05 -1.7849e-05 3.58995e-19)
(0.000766355 3.03108e-05 0)
(9.23208e-05 0.000476651 1.59983e-19)
(0.000534661 1.654e-05 -1.78876e-19)
(0.000751244 4.92781e-05 1.14975e-18)
(0.000814426 3.84549e-05 5.92387e-19)
(6.03482e-05 -2.94491e-06 -3.97148e-24)
(3.64702e-05 -4.86748e-05 3.52243e-19)
(3.9408e-05 -3.34604e-06 -4.64312e-20)
(4.80843e-05 -1.15302e-05 0)
(5.72033e-05 -1.34076e-05 1.13168e-18)
(0.00117346 0.000129521 1.79932e-19)
(3.37565e-05 -5.86658e-06 4.47229e-20)
(0.000827039 9.00857e-06 3.10051e-23)
(2.90115e-05 4.56647e-05 2.66076e-19)
(2.48537e-05 -0.000114933 -8.54818e-19)
(0.00062009 -0.000203227 9.59992e-19)
(2.73925e-05 -7.46975e-06 4.54909e-20)
(0.000797182 -1.94786e-06 -1.579e-18)
(0.000828569 3.65362e-05 -6.89127e-19)
(1.89938e-05 -8.85729e-06 0)
(5.7318e-05 8.07166e-06 8.52023e-20)
(0.00134204 0.00450632 8.93047e-19)
(7.87961e-05 1.80734e-05 8.63772e-20)
(0.000798729 1.80148e-05 0)
(0.000377278 -0.000191626 6.77835e-19)
(0.000378193 0.00027592 5.11985e-21)
(0.000390788 5.58043e-05 -1.00397e-18)
(0.00634829 0.010942 -7.68245e-19)
(0.00622513 0.0107973 1.52768e-20)
(0.00561461 0.0103806 1.45548e-18)
(0.000810663 2.16856e-05 0)
(6.91661e-05 3.30052e-05 0)
(0.000318055 2.06486e-05 1.21824e-23)
(6.55336e-05 1.19457e-05 -3.46519e-19)
(0.000817187 -8.12337e-06 0)
(0.000628164 2.84613e-05 3.17628e-19)
(0.000828599 2.82118e-06 2.21035e-18)
(0.000793161 2.24563e-05 -5.44099e-19)
(0.000798352 1.69004e-05 -3.15811e-19)
(0.00171504 0.000473104 5.42278e-19)
(0.000793795 8.21508e-06 -1.15522e-18)
(0.000824173 1.16048e-05 -5.24193e-19)
(8.4507e-05 -6.82717e-07 -1.73442e-19)
(0.000687865 0.00226716 0)
(0.000830662 3.15802e-05 0)
(0.000772142 1.52811e-05 -1.39027e-18)
(3.9744e-05 1.71018e-05 0)
(0.000286539 0.000272853 3.26889e-19)
(4.33004e-05 -1.81059e-05 0)
(4.42338e-05 -6.14818e-06 1.59501e-19)
(2.00757e-05 -4.81207e-05 -3.36735e-20)
(0.000784314 7.39664e-05 2.4704e-19)
(4.62367e-05 1.16605e-05 0)
(0.000795547 5.69848e-05 4.47414e-19)
(0.000766009 0.000294517 2.10762e-19)
(0.000965123 6.08774e-05 -3.98013e-20)
(4.47095e-05 2.44725e-05 -4.51941e-20)
(6.32524e-06 -2.79511e-05 0)
(0.000429463 0.000219039 1.70211e-19)
(2.82639e-06 2.54917e-05 0)
(0.000781719 3.3768e-05 -6.08022e-19)
(0.000593228 -0.000120702 0)
(6.78146e-05 -4.37607e-07 -1.74509e-19)
(4.16078e-06 -3.81689e-05 0)
(0.000823013 0.00024407 -3.41327e-19)
(4.35644e-06 -1.68426e-05 0)
(0.000420051 0.000324173 -1.28715e-23)
(0.000523897 0.000113562 0)
(0.000801393 4.7232e-05 -3.7503e-24)
(2.89736e-06 1.64617e-05 -4.21787e-20)
(0.000447857 -7.12706e-06 1.76388e-18)
(0.00102398 7.24582e-05 4.16112e-20)
(0.000859754 4.34854e-05 6.40973e-22)
(0.000734317 0.000657273 2.69539e-19)
(6.43643e-06 5.29357e-05 0)
(3.00001e-06 -6.15445e-05 -3.12322e-19)
(-1.12424e-05 -0.0001139 -1.10001e-18)
(3.57284e-06 8.36177e-05 -5.96327e-19)
(0.000640337 -1.66856e-05 0)
(7.54085e-06 0.000109018 0)
(0.000803687 1.98278e-05 2.19754e-18)
(0.000781036 2.10967e-05 1.5293e-18)
(0.000416721 -6.70926e-05 0)
(4.47339e-05 0.000222384 -8.95489e-19)
(-8.13183e-07 0.000177639 4.96584e-19)
(6.56121e-05 0.000422623 6.25109e-19)
(0.000302641 8.97779e-05 -9.37241e-19)
(0.000803389 1.91348e-05 1.37366e-19)
(0.000262723 -3.1057e-05 5.31316e-19)
(4.041e-06 3.59069e-05 0)
(2.45754e-05 0.000294483 -1.09391e-18)
(0.000317896 0.000325894 -1.61724e-19)
(3.4366e-06 -4.93851e-05 1.46553e-19)
(0.000669255 0.000812461 0)
(0.000365488 0.00039001 5.7449e-20)
(0.000811798 9.69211e-06 1.07036e-18)
(0.000798213 8.03881e-07 -2.69152e-18)
(7.02008e-06 -6.8023e-05 0)
(0.000686901 -2.90035e-05 -1.12341e-19)
(0.000319914 -9.80935e-05 1.24346e-18)
(0.00265064 0.000799768 -3.3602e-19)
(4.20368e-06 0.000139696 -6.13152e-19)
(2.16232e-06 0.00017028 1.61926e-18)
(0.000737384 2.07666e-05 -3.89897e-20)
(6.6438e-05 -1.2138e-05 -7.503e-19)
(0.000802319 2.48055e-05 -3.88418e-19)
(0.000785427 2.60963e-05 -4.10382e-20)
(4.10727e-05 0.00034094 -5.96813e-19)
(0.000480162 7.18482e-05 -4.94011e-19)
(5.12208e-05 -2.93289e-06 1.56181e-19)
(0.000827962 2.23891e-05 -1.09042e-18)
(0.0015776 0.000235851 -1.13666e-18)
(3.63291e-06 6.70163e-05 4.96416e-19)
(0.000807415 2.17479e-05 -4.95348e-19)
(0.000902863 0.000540423 -7.85226e-20)
(0.000140855 0.000800281 0)
(0.00057437 6.56526e-05 0)
(0.000274245 5.76957e-05 -1.60995e-18)
(6.47266e-05 6.05113e-05 -1.37432e-18)
(3.2058e-05 2.15926e-05 0)
(0.00424718 0.00740012 -1.01944e-20)
(0.00422553 0.0073717 3.16252e-20)
(0.00442769 0.00757446 -4.95318e-21)
(0.00420669 0.00773592 0)
(0.00419907 0.00760154 5.77027e-19)
(0.00424436 0.00740119 -9.19398e-20)
(0.0042103 0.00804389 4.84257e-19)
(0.0042895 0.00742178 0)
(0.00420846 0.00853742 6.1652e-19)
(0.00432602 0.00745022 2.23821e-19)
(0.000818224 1.40417e-06 -1.37294e-18)
(0.000763276 5.13193e-05 0)
(0.000215159 5.77403e-05 1.2771e-19)
(5.2127e-05 1.69724e-05 8.71998e-20)
(7.95188e-05 4.68579e-05 6.80134e-19)
(0.000107675 4.37093e-05 -3.41726e-19)
(0.000102599 7.71806e-06 0)
(5.02118e-05 5.59861e-06 8.1851e-20)
(0.000205472 0.000136654 0)
(0.000167094 4.67365e-05 -5.24353e-20)
(0.000341126 0.000225255 -5.09325e-21)
(5.72289e-05 4.46229e-05 -4.37729e-19)
(9.25271e-05 2.95159e-05 -8.52618e-20)
(9.17608e-05 6.41043e-05 1.31216e-21)
(0.000252926 0.000368523 -6.66261e-19)
(0.000106863 0.0010122 0)
(4.31328e-05 5.42654e-05 3.4312e-19)
(0.000204279 0.00175651 0)
(0.000207188 0.000255869 7.04758e-19)
(4.00807e-05 -4.19355e-06 1.11515e-19)
(0.000478419 0.000165929 -1.72328e-19)
(0.000755176 2.55508e-05 -1.92448e-18)
(4.46866e-05 -1.00053e-06 4.33905e-24)
(0.000150637 2.80499e-05 2.24626e-19)
(0.000242807 9.67952e-05 -8.99471e-20)
(0.000880678 0.000708665 3.34988e-19)
(0.000718035 0.00163198 -9.23732e-21)
(0.000387212 0.00142746 -9.39155e-21)
(0.00102159 0.000551132 0)
(0.000105652 -1.38888e-05 1.11891e-18)
(0.000118359 1.88591e-05 -4.43225e-20)
(0.000446631 -0.000286086 -1.13598e-18)
(0.000809151 3.51928e-05 0)
(0.000183099 8.3244e-06 3.63356e-19)
(0.000300815 0.00132015 0)
(0.00106736 0.00076937 -7.30307e-20)
(0.000825202 3.54647e-05 -1.86433e-19)
(8.0744e-05 -2.03061e-05 -3.00037e-19)
(0.000821673 0.00032031 -2.08083e-20)
(6.10817e-05 -2.15506e-05 -5.99613e-19)
(0.000226054 0.000178342 8.64e-20)
(0.000228581 0.000310545 -3.45059e-19)
(0.000880303 0.000245197 0)
(0.000809848 4.88735e-05 0)
(0.000261725 0.000141175 1.76873e-19)
(0.000234345 7.23578e-06 1.92103e-24)
(0.000184391 0.000208492 0)
(0.000289205 0.000654655 -5.55773e-21)
(0.000342481 2.71022e-06 0)
(0.000363252 0.000601109 0)
(0.0001103 8.49957e-05 -1.34693e-21)
(0.00080983 2.31676e-05 -9.39807e-19)
(0.000809303 1.81919e-05 7.94792e-19)
(0.000130229 6.06169e-05 -1.49881e-19)
(0.000952391 0.000152183 8.50768e-20)
(0.000833447 4.47258e-05 3.32962e-19)
(0.000812849 2.38161e-05 -2.92682e-19)
(0.00101159 0.000410168 0)
(0.000434763 0.000122681 6.24541e-19)
(0.00089319 0.00031881 2.09174e-20)
(0.000570469 0.000158805 0)
(0.000271537 0.000446622 4.09693e-19)
(0.000260832 0.000219907 -8.44296e-20)
(0.00109363 0.000376132 -7.82218e-19)
(0.000616379 0.000107227 -1.79325e-19)
(0.000803595 7.34559e-05 -7.45165e-21)
(0.000836284 2.97014e-05 9.39225e-20)
(8.56779e-05 -8.81977e-05 -1.98171e-18)
(0.000734717 0.000382338 2.19268e-19)
(0.000660988 6.205e-05 2.30656e-20)
(0.000702036 0.000278759 1.5928e-23)
(0.000724994 0.000458123 -4.09701e-19)
(0.000841851 3.42877e-05 9.06537e-20)
(7.31676e-05 8.24617e-05 0)
(0.000651674 0.000417735 -4.65894e-20)
(0.000184162 9.92554e-05 0)
(0.000373576 0.000502115 -2.64869e-19)
(0.000309414 0.000171098 0)
(0.000670287 0.000203325 3.55291e-19)
(0.000644427 0.000261108 -4.37326e-20)
(8.20484e-05 0.000105904 6.19261e-19)
(0.000874249 9.14589e-05 -1.61875e-18)
(5.95662e-05 2.33654e-05 2.57236e-19)
(0.000880437 6.30272e-05 -1.68325e-18)
(0.0008352 8.58197e-05 1.6309e-19)
(0.000806779 2.99984e-05 1.89653e-18)
(0.000809475 3.05533e-05 -1.30556e-19)
(0.000730342 7.34264e-05 0)
(0.000806204 2.86014e-05 8.95799e-19)
(0.00095132 0.000229208 -4.27183e-19)
(0.000765477 8.95003e-05 -4.8377e-19)
(0.000775331 0.000228917 -8.81387e-20)
(0.000220768 -0.000150456 -2.07982e-18)
(0.000738691 8.2168e-05 8.87479e-19)
(0.000638714 0.000596885 0)
(0.000101659 -0.00011237 0)
(0.00121159 0.000470786 4.97219e-19)
(0.000663105 -6.45245e-05 -3.23731e-18)
(0.00133455 0.000425142 5.76195e-19)
(0.00123315 0.000718906 -6.38406e-20)
(0.000806081 3.18307e-05 -2.1078e-19)
(0.000830209 6.79545e-05 -1.42427e-18)
(0.000813932 2.22119e-05 1.57164e-18)
(0.00081542 2.96391e-05 9.67191e-20)
(0.000667171 0.00035037 -4.40472e-20)
(0.000102773 0.000127044 5.15454e-24)
(0.00074233 -4.61718e-05 2.65141e-19)
(0.000223765 -0.00024834 -7.33048e-19)
(0.000616509 0.000187934 0)
(0.000700552 3.94585e-05 9.90596e-20)
(0.000681823 1.03406e-05 -3.80884e-19)
(0.000385787 0.000173643 3.93421e-20)
(0.000801231 0.000502751 -1.65499e-19)
(0.000150411 7.91195e-05 2.89158e-25)
(0.000808319 0.000407673 0)
(0.000973917 0.000320322 4.15846e-20)
(0.00074786 -8.13314e-05 -6.16427e-19)
(0.000345022 0.000109273 4.9787e-19)
(0.000901945 0.000423268 0)
(5.09021e-05 3.27354e-05 1.33734e-19)
(0.000478556 0.000269862 2.13981e-19)
(0.000487598 -0.000137047 -7.09571e-19)
(0.000147381 -0.000152518 -1.05854e-18)
(0.00082097 2.79001e-05 -4.81963e-19)
(0.000784209 -9.8573e-05 -1.94265e-19)
(0.000553058 0.00072723 -1.17453e-18)
(0.000841377 4.58503e-05 -6.73745e-20)
(0.000662138 -2.66774e-05 1.26289e-18)
(0.000693002 9.93496e-05 2.27824e-20)
(0.000525402 0.000212358 -1.65708e-19)
(3.42631e-05 -2.28168e-05 -8.75983e-20)
(0.000175071 -3.80303e-05 2.4065e-18)
(2.12406e-05 8.19417e-07 -1.94863e-19)
(0.000818066 0.000107759 3.63737e-19)
(0.000653819 0.000137373 0)
(0.000191802 -7.59092e-05 -1.04827e-18)
(0.000124574 -1.39386e-05 3.12961e-19)
(0.000115177 -3.42768e-05 8.9021e-24)
(0.000792162 0.000108427 -3.19318e-19)
(0.000155555 -9.12892e-06 0)
(0.000579722 0.00024296 0)
(0.000111175 0.000332865 -3.62899e-19)
(0.0008542 9.99067e-05 2.09613e-18)
(1.73209e-05 1.30088e-06 0)
(0.000872269 5.15501e-05 0)
(4.67378e-05 -2.63045e-05 0)
(0.000814733 4.19674e-05 -4.45787e-21)
(0.000793156 -5.17387e-05 0)
(0.00425993 0.00740628 8.06684e-20)
(0.00436156 0.00748593 1.4324e-19)
(0.000843602 -1.46e-06 0)
(0.000778356 -5.24093e-05 8.10793e-19)
(0.000153117 0.000128307 1.4923e-19)
(0.000847916 7.09414e-05 8.07782e-19)
(0.000131238 0.000104958 2.34431e-20)
(0.000772913 -3.17554e-05 6.25076e-19)
(3.65287e-05 1.04231e-05 0)
(3.08887e-05 -1.45913e-05 -4.48556e-20)
(0.000889268 4.99962e-05 -4.86663e-19)
(3.69371e-05 -3.3431e-05 -6.69914e-19)
(0.000750153 0.000119717 -4.23317e-20)
(0.000168083 0.000166019 -1.88125e-19)
(0.000813267 2.3931e-05 0)
(0.00468263 0.00815378 9.00886e-22)
(0.000173723 0.00078594 3.33586e-19)
(0.000123675 -5.46925e-05 -9.14675e-19)
(6.5244e-05 -3.51819e-05 -1.16894e-18)
(0.000674054 1.51474e-05 1.89891e-20)
(0.000578331 0.000410535 0)
(0.000414071 0.000440599 -2.56365e-19)
(9.20041e-05 -5.77952e-05 1.18385e-18)
(0.000631599 1.08923e-06 7.70392e-20)
(4.40707e-05 2.19142e-06 4.07159e-19)
(0.000685809 -5.6283e-05 1.17187e-18)
(0.000808944 3.13975e-05 -5.96096e-19)
(7.22908e-05 -5.54246e-05 1.70948e-18)
(0.000841977 -1.55837e-05 -5.31646e-24)
(0.000650515 7.44921e-06 -3.76579e-20)
(0.000862385 6.64639e-05 0)
(0.000832406 3.49347e-05 0)
(0.00591685 0.0072371 2.59429e-19)
(2.22328e-05 -1.59179e-06 -1.19593e-19)
(0.000140533 -9.43264e-05 7.73065e-19)
(0.000717922 0.000120435 -6.96571e-19)
(2.55921e-05 -2.56729e-07 2.01524e-19)
(0.000605034 -3.2514e-05 -7.23959e-19)
(0.000736213 3.63789e-05 1.55836e-18)
(0.000698426 0.000158834 -3.55497e-19)
(0.000807445 -1.3314e-05 3.60292e-19)
(8.23149e-05 -3.24247e-05 1.11622e-18)
(0.000797866 7.90986e-06 -3.22759e-19)
(0.00086204 4.39816e-05 0)
(0.000536166 0.000303301 4.21079e-20)
(0.000849959 4.95478e-05 -9.455e-19)
(2.2635e-05 1.84892e-06 9.11283e-19)
(0.000846857 4.66877e-05 9.65669e-19)
(0.00085189 -1.89764e-07 -9.60079e-19)
(0.000737573 -5.49708e-07 -5.69298e-19)
(0.000508046 -6.51756e-05 -5.25747e-19)
(0.00432882 0.00745242 2.46846e-19)
(0.0042236 0.00752957 -2.54263e-19)
(0.00422152 0.00758791 2.66575e-19)
(0.00425585 0.00741053 1.97873e-19)
(0.000845615 -1.98904e-05 1.43902e-19)
(0.00447483 0.00751118 0)
(0.00440279 0.00751645 -3.86568e-19)
(3.43357e-05 -1.60464e-07 -9.98177e-19)
(0.00417059 0.00746926 -6.33368e-20)
(0.00414595 0.00743225 -2.21418e-19)
(0.00603 0.010607 0)
(0.00654038 0.0111876 3.71113e-20)
(0.00600999 0.0105768 0)
(0.00655608 0.0112111 1.30805e-19)
(0.00599739 0.0106009 2.69609e-19)
(0.00659268 0.0112278 1.24518e-20)
(0.005936 0.0106137 -7.76499e-19)
(0.00662288 0.0111467 8.14243e-21)
(0.0039034 0.00920196 -1.90861e-19)
(0.00418698 0.00748845 3.89716e-21)
(0.0042382 0.00755303 7.93225e-20)
(0.00415036 0.00743448 4.11858e-20)
(0.000867924 0.000188313 4.46826e-20)
(1.24014e-05 1.77732e-06 0)
(0.000687356 -0.00013251 0)
(0.000676891 4.5417e-05 0)
(0.00244321 0.00111033 4.25174e-21)
(0.000750321 -3.12118e-05 1.72621e-19)
(4.25512e-05 6.41839e-06 4.54133e-20)
(1.32123e-05 -2.97052e-05 1.65355e-18)
(0.000845252 1.78819e-05 0)
(2.93605e-05 1.35947e-05 -1.9176e-19)
(0.00014139 0.000226296 0)
(2.19532e-05 -1.13792e-06 0)
(1.80317e-05 -1.58662e-06 0)
(0.000814078 0.000133218 1.13653e-20)
(0.000808955 -1.4319e-05 1.79247e-19)
(3.51289e-05 0.000284631 -1.96289e-23)
(0.000158898 0.000275252 -1.84219e-18)
(0.000598014 0.000331933 -8.57128e-20)
(0.000894937 0.000114717 5.99333e-19)
(0.000682449 -0.000267017 6.73227e-19)
(0.000360593 0.00110862 0)
(0.000463606 0.000573264 2.71558e-18)
(9.19562e-05 0.000149286 -1.80326e-18)
(2.68485e-05 2.27978e-07 0)
(0.000818845 -5.09992e-05 3.63235e-20)
(1.77469e-05 3.85819e-05 1.64478e-18)
(0.00090032 2.95357e-05 2.71283e-19)
(2.02448e-06 -4.43406e-05 3.79794e-18)
(0.000929816 3.93035e-05 -2.69108e-19)
(0.00136944 0.000151801 7.47496e-19)
(3.85069e-05 -1.13363e-05 8.25861e-20)
(3.96515e-05 4.84179e-06 -8.5918e-19)
(5.02533e-05 0.000146802 0)
(0.000902541 7.67249e-05 5.98351e-19)
(0.000490974 0.000368699 2.37178e-19)
(0.000698079 1.79662e-05 -3.89162e-20)
(0.000770795 -7.81909e-06 2.56992e-19)
(0.000734165 -0.000199726 0)
(0.00632142 0.010897 -1.6799e-19)
(0.00637913 0.0109745 4.05665e-19)
(0.00616071 0.010732 -6.18212e-19)
(0.00650132 0.0111328 -8.0958e-20)
(3.63501e-05 0.00012173 8.0067e-19)
(0.000910882 5.88383e-05 1.48358e-22)
(0.00641164 0.0110068 -3.86304e-19)
(0.00628246 0.0108468 5.48243e-19)
(0.00608085 0.0106738 -4.16721e-19)
(0.00652184 0.0111652 -6.81173e-20)
(8.21058e-05 0.0005193 -2.01853e-20)
(0.000107772 -0.000203577 -7.9265e-19)
(0.000699598 -1.9308e-05 -7.60251e-19)
(0.000719549 0.000220935 0)
(0.000798969 1.07205e-06 0)
(0.000184643 0.00039253 3.36345e-19)
(0.000595546 0.000523565 -5.41799e-19)
(1.27894e-05 -2.09727e-06 1.78431e-19)
(0.000203601 0.000466087 -7.38496e-19)
(0.00100169 0.000968872 -1.12723e-19)
(0.000736938 0.000167091 0)
(0.000783252 0.000180214 1.31047e-19)
(0.00635518 0.00587495 1.13124e-18)
(0.000739901 0.00112758 8.2668e-20)
(4.07577e-05 4.02712e-05 -7.44832e-20)
(0.000813714 2.20053e-05 0)
(0.000875748 2.62124e-05 -3.5699e-20)
(3.78271e-05 4.10891e-06 -1.96728e-19)
(3.26271e-05 5.55302e-06 1.93022e-19)
(0.000830148 2.24579e-05 5.37146e-19)
(0.000966406 0.00010632 6.58642e-19)
(0.000597433 3.65379e-05 0)
(0.000220835 -0.000310292 -3.9806e-19)
(0.000909703 0.000150511 3.8969e-19)
(2.05865e-05 -6.91942e-05 2.03158e-19)
(0.0014411 0.000431607 -2.58002e-18)
(0.000628336 -4.46287e-06 0)
(0.000786023 0.000144844 3.75551e-19)
(9.31713e-05 0.00040037 0)
(0.00118565 0.00816587 4.6213e-19)
(0.000482356 0.000502075 -1.22474e-18)
(0.000543639 0.000995793 -1.8378e-19)
(0.000875315 2.05166e-05 -1.46044e-19)
(1.48839e-05 2.72894e-05 0)
(0.000934265 7.63345e-05 6.11852e-19)
(0.00410674 0.00739531 8.13916e-20)
(0.00417155 0.00747382 4.72849e-20)
(0.00449832 0.00751379 4.53914e-19)
(0.00444402 0.00754055 -3.28698e-19)
(0.00647522 0.0111098 8.10358e-20)
(0.00391524 0.00714637 -9.71645e-22)
(0.0055065 0.00779454 -5.64592e-19)
(0.00409831 0.00737197 5.21598e-21)
(0.00518681 0.00785466 5.11507e-19)
(0.00408016 0.00734038 -4.86779e-20)
(0.00495188 0.00771425 0)
(0.00408558 0.00736458 -8.55986e-20)
(0.00474059 0.00758576 4.92363e-19)
(0.00409871 0.00737605 8.74706e-20)
(0.00457331 0.00752551 0)
(0.00428354 0.00742033 1.39701e-19)
(0.00423969 0.00759943 5.79837e-19)
(0.00446638 0.00752584 -5.54391e-19)
(0.00438709 0.00750411 3.71251e-19)
(0.00422826 0.00752539 2.88755e-19)
(0.00643071 0.0110434 -4.97332e-21)
(0.00411806 0.00740139 3.11472e-20)
(0.00645873 0.0110731 0)
(2.6385e-05 6.91048e-06 -1.89897e-19)
(0.00199798 0.00654273 2.28364e-19)
(0.000841937 -3.58053e-05 1.0965e-19)
(0.00085785 1.30846e-05 0)
(2.26756e-06 2.08205e-06 -3.99191e-19)
(1.71515e-05 -0.000161961 6.91823e-19)
(2.4767e-05 5.97618e-05 2.08937e-18)
(0.000820623 0.000179004 -9.0095e-20)
(0.000797719 1.05933e-05 7.06568e-19)
(2.34992e-06 -2.155e-06 3.10053e-19)
(2.20388e-05 -3.76095e-05 -1.84606e-18)
(0.000759215 2.7935e-05 1.63192e-19)
(0.000862526 0.000125553 -3.07975e-20)
(0.000799036 -9.81973e-06 1.48174e-19)
(0.000404496 0.0006762 0)
(7.03573e-05 -0.000151261 1.15125e-18)
(0.000856417 1.23232e-05 1.52519e-19)
(2.12496e-05 2.56434e-05 0)
(0.000111092 0.000564597 -6.31306e-19)
(0.000604768 0.000599553 1.31812e-18)
(0.000328571 0.000742711 0)
(0.000799096 -1.78666e-05 0)
(0.000798437 4.45781e-06 1.17371e-18)
(1.95427e-05 5.16019e-05 -3.5156e-18)
(1.84414e-05 8.39409e-06 3.73696e-19)
(0.000115576 0.00014967 0)
(5.1578e-05 -4.24737e-05 0)
(6.43661e-05 0.000116192 2.01037e-19)
(0.000928304 0.000182615 3.5051e-19)
(0.000799551 1.59588e-05 -1.39177e-18)
(2.42289e-05 3.5483e-05 0)
(0.000495045 1.88039e-05 -6.03504e-20)
(0.000800908 4.03827e-05 -1.56379e-19)
(0.000834549 2.96664e-05 1.0597e-18)
(0.000258209 0.000543657 6.32323e-19)
(0.000864175 0.00015483 0)
(2.29564e-05 -2.65227e-05 5.38788e-19)
(3.33062e-06 -8.49316e-06 -3.20032e-19)
(0.00100856 2.85332e-05 0)
(0.00103247 0.00225423 0)
(0.000968178 -1.31938e-05 0)
(0.000995813 0.00020389 4.27277e-19)
(0.000814813 -2.93999e-05 -2.83638e-19)
(0.000920398 0.00011195 -6.8493e-19)
(0.00079884 3.33789e-06 0)
(4.29797e-05 7.23739e-05 -1.71598e-19)
(0.000173839 0.000329186 1.08131e-18)
(0.000796744 2.13987e-05 -8.1205e-24)
(0.00108048 0.000205897 -6.69144e-19)
(0.00109008 0.000122281 0)
(2.99401e-06 8.1987e-06 2.5108e-19)
(2.12224e-05 -1.73463e-05 -1.94353e-19)
(0.000599779 3.56769e-05 6.95173e-21)
(2.24326e-05 -9.15444e-05 0)
(0.00104892 0.000251491 9.50175e-19)
(0.00502884 0.0097498 -2.82983e-19)
(0.0031205 0.00962139 1.27195e-18)
(5.73191e-05 -0.000112456 -1.91343e-19)
(6.60114e-05 -7.82351e-05 1.85994e-18)
(0.00119274 0.000237615 1.67229e-19)
(0.0013311 0.00108017 2.34124e-19)
(0.000814619 3.04673e-07 -7.31708e-19)
(0.000204804 0.000952343 -2.38531e-19)
(0.000805716 0.000917709 -2.18617e-19)
(0.000799277 -3.87356e-06 0)
(8.85559e-05 0.000640676 0)
(9.64476e-05 0.000284976 -4.2284e-23)
(0.000723516 -3.6681e-05 -1.68415e-23)
(0.000818701 5.67254e-05 1.50692e-19)
(0.00262869 0.00206605 -1.23161e-18)
(0.00175861 0.00924225 -1.17142e-19)
(0.000832516 4.20688e-05 4.92279e-19)
(0.00632896 0.00404195 -1.75865e-19)
(0.00672088 0.0115577 -1.364e-20)
(0.00473447 0.00784423 4.92702e-21)
(0.000800456 1.53096e-05 -2.1874e-18)
(0.000831787 1.67406e-05 2.24451e-24)
(1.12246e-05 -9.13915e-06 -3.48091e-19)
(4.72311e-05 9.37356e-05 -3.49347e-19)
(7.07072e-05 0.000275967 8.75515e-19)
(1.2639e-05 1.7792e-05 4.90507e-19)
(8.98069e-05 0.000234884 3.6983e-19)
(0.000822248 2.9319e-05 0)
(0.00534794 0.00949218 1.95085e-20)
(0.00153387 0.000624562 -2.61012e-20)
(0.000820127 3.02815e-05 3.56839e-19)
(4.52883e-05 -8.76873e-05 0)
(0.00184737 0.000738647 5.46164e-19)
(1.10061e-05 8.81984e-06 -2.7021e-19)
(3.59512e-05 3.06101e-05 9.72023e-20)
(0.00131929 0.00138921 6.36622e-19)
(0.000736664 4.44901e-05 1.83149e-19)
(7.38212e-06 -2.25991e-06 -1.7024e-19)
(0.00206559 0.00155112 -1.05623e-18)
(0.000126682 0.000183112 -8.18887e-19)
(0.00392122 0.00848779 -1.09105e-18)
(7.26957e-06 2.04402e-06 8.81609e-20)
(0.0001581 -0.000174018 -1.25388e-18)
(5.59765e-05 -5.9237e-05 4.05737e-20)
(0.00153136 0.000971931 0)
(0.00103436 0.000139788 -4.11885e-22)
(0.000454387 0.000851081 -4.02251e-20)
(0.000802151 2.56819e-05 -2.33753e-19)
(8.7173e-05 0.000189372 7.36195e-19)
(3.94084e-05 -6.60591e-05 4.04109e-19)
(1.98236e-05 1.67001e-05 -9.47299e-20)
(3.39018e-05 9.72314e-05 -3.20352e-19)
(0.00020142 -0.000300503 -5.44764e-19)
(0.00325206 0.00345292 2.78202e-21)
)
;

boundaryField
{
    back
    {
        type            empty;
    }
    ingreso
    {
        type            fixedValue;
        value           uniform (0.0008 0 0);
    }
    salida
    {
        type            zeroGradient;
    }
    front
    {
        type            empty;
    }
    defaultFaces
    {
        type            noSlip;
    }
}


// ************************************************************************* //
