/*--------------------------------*- C++ -*----------------------------------*\
  =========                 |
  \\      /  F ield         | OpenFOAM: The Open Source CFD Toolbox
   \\    /   O peration     | Website:  https://openfoam.org
    \\  /    A nd           | Version:  7
     \\/     M anipulation  |
\*---------------------------------------------------------------------------*/
FoamFile
{
    version     2.0;
    format      ascii;
    class       surfaceScalarField;
    location    "3.5";
    object      phi;
}
// * * * * * * * * * * * * * * * * * * * * * * * * * * * * * * * * * * * * * //

dimensions      [0 3 -1 0 0 0 0];

internalField   nonuniform List<scalar> 
1111
(
5.8476e-09
1.34683e-08
-1.49565e-08
-4.35939e-09
5.92386e-09
-1.13321e-08
1.12558e-08
-1.39806e-08
4.08716e-09
1.0195e-08
-3.01584e-10
1.03389e-10
-1.44877e-10
-1.37719e-08
1.38134e-08
-1.38429e-08
1.36079e-08
3.38392e-10
-6.58734e-10
1.48572e-08
1.23005e-09
-3.01399e-09
8.52598e-09
-1.11513e-08
5.63927e-09
-6.33104e-09
-1.20113e-08
1.22287e-08
6.11362e-09
-4.97538e-08
-2.48902e-08
7.4644e-08
-7.92308e-09
7.28666e-09
6.56028e-09
3.81183e-09
4.27102e-10
-3.90868e-09
-3.30261e-10
1.51758e-08
-1.58892e-08
-2.20331e-08
2.27465e-08
-9.5519e-09
-8.7615e-09
9.2466e-09
9.0668e-09
-3.46623e-08
1.64833e-08
-3.26446e-08
5.08236e-08
9.64512e-09
-1.84974e-09
-1.41264e-08
-4.75272e-09
4.18917e-09
-2.7958e-09
3.35935e-09
-3.71231e-09
1.27979e-08
2.03014e-09
-1.11158e-08
8.91976e-09
-2.20785e-09
-1.48017e-08
8.08974e-09
3.89715e-08
-3.28866e-08
-6.08495e-09
-1.87737e-08
-4.78411e-10
1.81754e-08
1.07671e-09
-1.45195e-10
3.74842e-09
-1.8021e-08
1.44177e-08
-6.96415e-08
-1.65624e-09
7.12978e-08
2.52008e-10
-1.46071e-09
-4.52855e-10
1.66155e-09
-1.01683e-09
-1.29713e-08
-3.01822e-10
-4.14964e-10
3.97822e-10
3.18964e-10
-1.02008e-08
-8.08762e-09
1.22586e-08
6.02982e-09
1.04829e-09
-2.36072e-09
-8.38071e-09
9.69313e-09
7.50781e-09
1.24427e-09
-8.2256e-09
-5.26478e-10
-2.41361e-09
-7.77404e-09
1.01891e-08
-1.46303e-12
1.08079e-08
4.79898e-10
-2.36808e-09
-1.18176e-09
1.14421e-09
1.84352e-10
-1.46806e-10
-5.13682e-10
1.04815e-09
7.09215e-10
-1.24369e-09
-7.63809e-10
-5.4969e-11
8.05549e-10
1.32291e-11
5.79834e-11
-1.25139e-09
8.01471e-11
1.11326e-09
4.79453e-12
-1.12857e-09
7.28342e-10
-1.76402e-08
-1.86189e-09
-6.75331e-10
9.06957e-11
-1.79174e-10
1.30399e-08
-1.29908e-08
3.6993e-09
-5.34289e-10
7.36824e-10
5.30561e-10
-7.33096e-10
-1.24362e-09
-2.71575e-09
2.15991e-09
1.79946e-09
-1.5099e-09
7.94193e-09
-9.44602e-09
-5.29371e-10
-2.61627e-10
1.15666e-10
-8.75443e-09
9.75663e-09
-8.92528e-09
1.15172e-08
-1.62254e-08
5.21357e-09
-5.05362e-10
1.42417e-10
-2.77283e-10
-3.94505e-10
3.55826e-10
1.03611e-09
-2.47729e-10
-5.95561e-08
7.31126e-08
-1.35565e-08
1.27181e-09
-4.81292e-10
-1.48644e-09
6.95922e-10
5.06489e-10
1.03601e-08
-1.3268e-08
2.40148e-09
2.01874e-11
6.08471e-09
-7.07512e-09
9.70221e-10
-6.26963e-09
5.85288e-09
5.36111e-09
-4.94436e-09
-6.52557e-09
-2.66648e-09
2.37692e-09
6.81513e-09
-5.59074e-11
-7.70294e-08
7.70972e-08
-1.19114e-11
-6.14999e-10
-7.6851e-08
7.69808e-08
4.85208e-10
8.14819e-08
-2.7591e-10
-7.51315e-11
-8.11309e-08
-3.3229e-09
1.50224e-10
9.55542e-10
1.0187e-09
-7.02429e-10
4.21666e-09
-1.98655e-09
3.21319e-09
-5.44329e-09
-1.27562e-09
1.15015e-09
-1.50558e-08
6.68e-09
8.71713e-09
1.19255e-09
-9.41531e-09
-4.94372e-10
-5.40767e-09
1.19311e-08
1.40347e-09
-7.92692e-09
1.37579e-08
-3.50397e-09
3.09083e-09
-1.33447e-08
1.51969e-08
1.27524e-09
-1.04334e-09
3.2195e-10
-2.02822e-08
-7.73462e-09
2.76948e-08
1.31079e-08
-8.10442e-09
-2.05467e-09
7.53301e-09
-1.0886e-08
-2.14933e-10
4.39837e-10
-1.71135e-09
-3.74324e-08
-2.21237e-08
7.79382e-09
-1.9406e-10
3.91744e-09
-6.38344e-09
1.0163e-08
5.97704e-09
-8.01047e-10
4.70915e-10
6.51628e-10
-3.21497e-10
5.98822e-09
-4.51643e-09
3.49165e-09
-4.96343e-09
-8.07077e-10
-8.08454e-10
3.6414e-10
9.54541e-10
-9.29364e-10
-3.41432e-10
-1.39986e-09
1.22761e-09
-1.66219e-08
2.09706e-09
1.40692e-09
1.31179e-08
3.69829e-10
-9.38496e-10
-2.3238e-10
-2.95585e-09
-1.45044e-08
8.38406e-10
5.61058e-09
1.13827e-08
-5.23318e-09
-1.17601e-08
1.61755e-08
6.2991e-10
-1.56706e-08
-1.13487e-09
-8.88059e-10
6.41682e-10
7.17293e-10
-1.36416e-09
7.53065e-10
6.11099e-10
-6.82401e-09
-3.98986e-09
4.54425e-09
-5.89801e-10
8.22036e-10
-2.32235e-10
1.3632e-09
-1.45199e-08
-3.71701e-10
8.15093e-09
-9.28912e-09
-1.3062e-09
-1.70559e-09
1.23044e-08
4.37027e-09
-4.17737e-09
-1.24973e-08
4.51245e-10
6.82156e-09
-7.47275e-09
6.50407e-09
-2.1724e-09
-8.04077e-09
7.4562e-09
2.75697e-09
-1.72506e-09
5.15127e-10
-1.32945e-08
-3.77006e-10
-2.12795e-10
-8.71458e-10
1.53778e-09
-7.19189e-09
9.10082e-10
1.68669e-08
-1.60142e-09
-1.6824e-08
1.79865e-08
-1.16251e-09
1.15881e-08
1.35691e-08
-1.50118e-08
-1.01454e-08
-1.1222e-09
1.83364e-09
-7.11434e-10
2.19935e-09
-2.95198e-09
7.52623e-10
4.1956e-09
-6.36181e-09
2.16622e-09
2.45112e-09
-2.08565e-09
-3.65477e-10
-1.36357e-08
9.94311e-11
1.35362e-08
3.29482e-09
-8.43696e-10
8.89762e-09
-1.44563e-08
6.2797e-09
-7.13098e-09
2.57466e-10
4.07071e-09
-5.16341e-10
-3.72192e-09
3.97939e-09
-9.0076e-09
1.05063e-08
-1.49865e-09
-1.19198e-09
3.97683e-09
1.4318e-09
1.63335e-08
-1.44559e-08
-1.3711e-09
-4.90087e-09
4.94646e-09
-2.03215e-09
-3.00165e-10
7.95932e-09
-7.66699e-09
-2.92323e-10
7.04343e-09
4.3059e-09
4.9376e-10
-1.54557e-08
1.01088e-08
1.69351e-08
5.70109e-09
8.16389e-09
8.32621e-09
-6.13439e-09
3.48628e-10
-1.39843e-08
1.83007e-09
-6.46229e-10
-1.07823e-08
4.36593e-09
-3.86541e-10
1.59139e-08
-1.5284e-08
1.89776e-11
-1.32039e-09
-1.31541e-08
6.87319e-09
1.04777e-09
-8.1314e-11
-8.95527e-09
5.86307e-09
-3.25646e-08
-1.21206e-08
-2.18188e-09
1.14842e-09
1.34759e-08
1.08642e-08
-1.06299e-08
-1.37102e-08
1.8016e-08
-3.08955e-09
-1.49264e-08
1.92063e-09
3.70064e-09
-1.67943e-09
-1.06468e-09
-1.15158e-09
1.48111e-09
7.35155e-10
-3.55195e-10
5.03293e-10
5.0353e-10
6.95436e-08
-6.93253e-08
-2.18329e-10
6.99368e-08
-6.99057e-08
-3.11236e-11
2.95283e-10
7.08692e-08
-6.89372e-08
-1.93204e-09
7.18895e-08
-1.02027e-09
-3.62022e-10
-6.74612e-08
-1.47603e-09
-6.91108e-08
6.90796e-08
3.11706e-11
-6.72901e-10
-6.67883e-08
-6.8964e-08
-1.46845e-10
1.19421e-08
-1.38616e-09
2.07347e-09
-3.77111e-09
3.0838e-09
5.17882e-10
-1.39974e-09
1.2906e-09
-9.70039e-10
1.59621e-09
-1.89728e-09
1.2711e-09
1.67386e-09
-1.83548e-09
6.01453e-10
-1.38461e-10
-3.27254e-09
3.21602e-09
-2.52707e-09
2.58359e-09
-1.09763e-09
-3.02047e-09
2.73194e-09
-4.05581e-09
-5.40498e-09
7.21196e-10
-8.54083e-10
1.60685e-09
1.27996e-09
-6.61139e-09
7.94499e-09
2.9723e-09
2.22808e-08
-4.26481e-09
-8.88234e-10
3.36286e-10
1.27314e-09
-9.6501e-09
-2.77823e-08
5.50455e-09
-4.5624e-09
-3.03044e-09
2.08829e-09
1.61233e-10
-2.28123e-11
6.67128e-10
-3.00601e-09
3.63819e-09
8.4188e-09
1.03446e-09
-7.89152e-10
2.30541e-09
-2.61389e-09
2.50157e-09
1.4206e-08
1.2839e-08
-2.65531e-08
3.20788e-08
5.50149e-09
-2.17901e-08
-1.02645e-08
1.76588e-08
-1.72488e-08
1.04542e-08
-4.3047e-10
1.75891e-10
-1.5809e-09
-2.08498e-09
-1.24351e-09
2.69437e-09
1.42865e-08
-4.27392e-10
-1.3344e-08
5.04079e-10
-3.149e-09
-3.75554e-10
1.48496e-08
1.70152e-08
1.32162e-08
7.00487e-10
-1.53053e-09
-1.23862e-08
-2.12284e-09
5.93391e-09
1.19811e-08
-1.01924e-09
-1.42972e-09
-3.50962e-09
2.74091e-09
3.98473e-09
2.38481e-09
1.37323e-08
4.17298e-09
-1.3535e-08
1.64482e-08
-1.32328e-09
2.96878e-09
-3.7296e-09
1.90811e-09
-4.40012e-09
1.24139e-08
-1.17261e-08
-1.33744e-08
2.9359e-10
8.68067e-09
-1.99092e-09
1.70523e-09
1.89254e-09
-8.91154e-09
6.64641e-10
-3.87374e-09
-6.08419e-09
1.18819e-08
-1.47092e-08
1.5856e-09
1.63477e-09
-2.09053e-09
1.59039e-08
-1.54482e-08
-9.84318e-10
1.37732e-08
2.40448e-09
-3.37554e-09
-1.34852e-08
7.09221e-09
-1.64603e-08
-7.88071e-09
6.2441e-09
5.75174e-09
1.39145e-08
-9.11407e-09
3.20978e-09
8.66126e-09
9.61456e-09
4.03152e-09
-4.00915e-09
2.08707e-08
-1.84476e-08
4.66916e-09
-9.54329e-09
2.34985e-09
4.54858e-09
1.33066e-08
-1.07788e-10
1.20774e-08
-1.2954e-08
-1.54968e-09
2.92816e-09
-2.15747e-09
7.78997e-10
1.04495e-08
-6.24942e-09
7.18258e-09
-9.86433e-09
1.51359e-09
-4.75725e-09
1.08752e-08
-1.13511e-08
-7.46374e-09
8.62516e-09
9.28806e-09
1.22018e-08
1.00197e-09
-1.33115e-08
1.84351e-09
9.17551e-10
-1.06054e-08
-6.77993e-09
9.92158e-09
-1.96058e-09
2.51732e-09
-8.33318e-09
4.57336e-09
-5.09618e-09
1.09765e-08
-3.5159e-09
-1.11096e-08
3.64899e-09
-4.55176e-09
1.0771e-08
2.25073e-09
1.29802e-09
-5.08462e-09
-1.66743e-08
1.01466e-08
1.16123e-08
9.65603e-10
-1.06014e-08
-9.95932e-09
1.54761e-08
1.17047e-08
2.651e-09
-9.80708e-09
-1.31221e-08
-2.2183e-10
-1.24217e-08
3.46227e-10
-7.41997e-10
1.05849e-08
1.24906e-08
-8.21474e-09
1.57353e-08
-1.4983e-08
3.42063e-09
-6.69553e-10
1.6345e-09
1.21529e-08
-3.8775e-09
-1.20599e-08
-5.16459e-09
4.78328e-11
4.47053e-09
1.16187e-08
-7.51773e-09
1.13105e-09
-9.47047e-10
2.20167e-09
-2.8043e-09
5.78612e-09
2.55388e-08
-1.64942e-09
-1.52174e-08
1.68668e-08
2.67977e-08
-2.14899e-08
2.12918e-08
1.90966e-08
-1.23679e-08
-2.17902e-09
1.46289e-08
1.78639e-10
-1.18219e-08
-4.21184e-10
-5.9796e-09
-2.03565e-09
2.50196e-09
1.78442e-09
3.94871e-10
-1.02816e-08
1.00183e-08
-1.31598e-10
1.47271e-09
-5.66709e-09
-1.02879e-08
9.98177e-09
-7.35306e-10
-9.87102e-09
-1.34902e-11
-1.01371e-08
-3.15075e-09
-1.14872e-08
2.35695e-09
7.67643e-09
5.0267e-09
7.0899e-10
-1.12446e-08
1.09304e-08
7.53201e-10
-8.22082e-09
5.29231e-09
-4.32561e-10
2.89449e-09
-3.79371e-09
-1.25249e-08
-1.33602e-08
1.24198e-08
-1.01052e-08
-1.49883e-08
9.63781e-09
9.13402e-09
7.64402e-10
2.06066e-09
-1.72781e-08
1.04779e-08
1.62053e-09
4.07864e-09
4.47682e-10
-7.049e-10
-5.49859e-10
-4.01702e-09
2.81804e-09
-1.95002e-09
5.58013e-10
-6.52362e-10
9.43499e-11
-2.54991e-09
1.23207e-08
1.93384e-09
2.53991e-09
-1.57864e-09
-2.08049e-09
1.71405e-10
-2.7092e-09
-9.52193e-10
1.23912e-08
9.50865e-09
-6.52009e-10
7.17346e-09
-1.13436e-09
-5.38709e-09
-9.89647e-09
-4.12682e-09
4.41993e-10
1.16021e-10
3.98802e-09
1.26248e-09
-1.58519e-08
-7.79343e-10
-1.04835e-09
-1.69005e-09
6.61537e-10
2.16878e-09
6.911e-08
-1.05815e-10
-6.90041e-08
6.88958e-08
3.92612e-12
-6.88998e-08
-1.39637e-08
2.26744e-10
1.43035e-08
-5.6654e-10
2.18001e-09
-2.21383e-09
2.92184e-09
1.80931e-09
-5.07465e-09
-8.14914e-10
-7.34718e-10
5.99289e-10
-1.86068e-10
7.44398e-10
-5.58341e-10
1.80091e-08
1.28287e-09
-1.53039e-08
-4.36088e-10
-1.93758e-09
1.18868e-08
2.20371e-09
1.77583e-09
4.50523e-09
-1.65693e-09
-8.17405e-08
-2.22228e-08
-4.81427e-09
1.52222e-08
2.39005e-09
-1.1417e-09
-3.51752e-09
-1.54196e-09
9.07413e-10
-7.95169e-10
-1.4645e-08
-3.30664e-10
1.49757e-08
-1.03953e-08
-6.70602e-09
1.03214e-08
-8.99505e-09
8.82576e-09
-3.81161e-10
2.16762e-09
1.40849e-08
-1.3763e-08
-3.21917e-10
8.58489e-10
3.75107e-11
9.09168e-09
9.13145e-10
-1.40506e-09
-5.18063e-10
-1.40091e-08
-5.60125e-10
-1.28237e-08
1.15298e-08
-1.09352e-08
-6.73519e-08
6.78049e-08
-4.52929e-10
7.14908e-10
-7.3772e-10
1.13017e-08
-6.94704e-10
4.23422e-11
-1.45369e-09
2.73201e-09
-3.48715e-09
-1.34184e-08
-1.30731e-09
2.28019e-09
-4.20187e-09
-1.35771e-08
1.9271e-09
5.60396e-09
9.19701e-09
-8.76429e-09
-7.00339e-10
5.63588e-12
-9.46592e-09
-1.17224e-08
-6.81219e-11
-7.02769e-08
2.10033e-10
7.00669e-08
2.165e-10
7.1673e-08
-2.15332e-10
-5.88864e-10
-1.41999e-08
-6.98111e-10
-6.7559e-08
6.82571e-08
-4.93077e-11
-6.88624e-08
6.89117e-08
6.81697e-10
6.99694e-08
1.23644e-10
-7.0093e-08
6.96053e-08
3.64054e-10
-7.8393e-08
7.70994e-08
2.73247e-10
7.63821e-08
-7.63649e-08
-2.3558e-10
-8.02363e-08
-8.87162e-11
7.62555e-08
-2.35455e-10
-8.14331e-08
-2.79232e-10
7.64162e-08
-1.91778e-10
-6.24017e-10
1.06692e-09
7.56445e-08
-6.70642e-08
7.00031e-08
-7.0059e-08
-7.08919e-08
6.94988e-08
1.06519e-10
-3.11125e-09
2.77104e-09
-1.31948e-08
1.19597e-10
3.22396e-10
2.55447e-09
1.11139e-08
-1.33217e-08
3.93831e-08
-3.42734e-08
-1.5892e-08
1.47698e-08
-1.08608e-10
-2.14796e-10
4.10934e-10
1.0328e-09
-2.26397e-10
4.70491e-10
4.71405e-09
1.09917e-09
-3.90511e-09
-6.33795e-10
7.2449e-10
-5.18128e-10
-2.47309e-09
1.25075e-08
2.28629e-09
-1.44138e-08
-2.04458e-09
-3.95308e-09
5.68003e-09
1.1223e-09
-2.30414e-09
1.35706e-08
-1.11988e-09
-5.52821e-09
1.12438e-08
-7.61622e-09
-1.84387e-08
-1.25988e-08
7.98733e-09
4.90506e-09
-3.14718e-10
-5.26612e-10
3.34329e-09
1.42494e-08
1.39341e-09
-7.85526e-10
-5.40443e-10
5.6847e-10
-3.28191e-10
1.55733e-08
-2.9681e-10
-1.56072e-08
-7.93769e-09
-3.17684e-09
3.08322e-10
-4.05586e-10
5.40237e-09
-1.97916e-08
7.24844e-10
-1.78714e-09
-2.43625e-09
-1.91819e-09
1.50901e-08
-7.70708e-08
-7.92734e-12
7.70112e-08
8.99516e-11
-7.6768e-08
-7.81131e-10
7.67034e-08
4.6909e-10
-7.72783e-08
-7.23691e-10
-1.90714e-09
1.57941e-08
7.70667e-08
1.20036e-10
5.47976e-10
1.23234e-10
1.25364e-08
1.86818e-09
-1.14424e-08
-1.15797e-08
-4.83249e-09
8.4032e-09
1.49958e-09
-6.93048e-09
-6.54839e-09
8.95223e-09
-3.75709e-10
1.0074e-08
1.85892e-08
-1.74632e-08
3.03918e-09
-1.21218e-08
3.10103e-09
-6.95488e-08
2.1969e-09
-1.99867e-08
-1.23109e-08
-6.69322e-10
-5.91796e-09
-1.5012e-08
9.10805e-09
-1.48844e-08
6.58578e-10
5.66861e-10
-1.44463e-09
-1.58164e-08
1.63163e-08
1.1744e-08
-1.15938e-08
-5.76851e-09
1.43024e-08
-1.51775e-09
7.85941e-10
-1.69738e-09
7.91283e-10
1.19179e-08
3.7083e-09
6.94043e-08
-1.74941e-08
9.02845e-10
-1.42797e-08
-3.59785e-10
-4.12892e-10
-4.27876e-10
7.01866e-08
-6.97175e-08
-6.7011e-08
-6.87423e-08
-7.55008e-11
2.18763e-10
-7.74216e-08
-6.96471e-08
7.0714e-08
6.77297e-08
-6.98388e-08
6.71057e-08
-7.00743e-08
6.68265e-08
-7.03099e-08
6.67378e-08
7.72839e-08
4.56485e-10
-5.0952e-09
7.70468e-08
-6.82433e-08
1.89104e-10
-1.89104e-10
2.80982e-09
-3.87598e-10
1.53967e-08
-2.20399e-10
2.20399e-10
5.76723e-10
6.43626e-10
1.47852e-08
1.24263e-08
-1.80757e-09
2.82236e-09
6.56282e-09
1.87369e-09
5.09786e-10
-3.66278e-10
-2.92127e-09
1.41624e-08
1.4851e-08
-4.44014e-09
1.11075e-08
3.31225e-10
2.44857e-10
3.06712e-09
-1.1343e-09
-1.86193e-09
-5.29419e-09
-1.68456e-10
-5.51501e-10
1.50283e-08
4.37799e-10
2.30848e-10
1.87149e-08
-2.47072e-08
1.68378e-08
2.48681e-09
1.55544e-09
1.93581e-09
-3.41683e-09
1.86827e-08
-1.72017e-08
-1.87901e-10
1.21515e-09
-1.58762e-09
-7.99962e-08
-6.86518e-08
1.51568e-09
-1.40051e-09
7.74447e-10
2.26064e-08
1.72746e-08
-6.30611e-09
2.68909e-10
-4.5337e-09
-1.46342e-09
3.09762e-08
7.52535e-10
1.10265e-08
6.29618e-08
1.55309e-10
6.11066e-10
-2.76616e-10
-3.49071e-10
-3.95087e-09
2.32798e-08
-1.46872e-08
1.33032e-09
-1.26635e-08
-1.33293e-10
2.06457e-08
-2.78909e-08
9.37839e-10
3.30608e-09
-8.77919e-10
)
;

boundaryField
{
    back
    {
        type            empty;
        value           nonuniform 0();
    }
    ingreso
    {
        type            calculated;
        value           nonuniform List<scalar> 
14
(
-1.54286e-08
-1.54288e-08
-1.54288e-08
-1.54288e-08
-1.54286e-08
-1.54283e-08
-1.54288e-08
-1.54288e-08
-1.54286e-08
-1.54286e-08
-1.54288e-08
-1.5428e-08
-1.5428e-08
-1.54286e-08
)
;
    }
    salida
    {
        type            calculated;
        value           nonuniform List<scalar> 2(1.03963e-07 1.12037e-07);
    }
    front
    {
        type            empty;
        value           nonuniform 0();
    }
    defaultFaces
    {
        type            calculated;
        value           uniform 0;
    }
}


// ************************************************************************* //
