/*--------------------------------*- C++ -*----------------------------------*\
  =========                 |
  \\      /  F ield         | OpenFOAM: The Open Source CFD Toolbox
   \\    /   O peration     | Website:  https://openfoam.org
    \\  /    A nd           | Version:  7
     \\/     M anipulation  |
\*---------------------------------------------------------------------------*/
FoamFile
{
    version     2.0;
    format      ascii;
    class       volScalarField;
    location    "84.5";
    object      p;
}
// * * * * * * * * * * * * * * * * * * * * * * * * * * * * * * * * * * * * * //

dimensions      [0 2 -2 0 0 0 0];

internalField   nonuniform List<scalar> 
591
(
0.00012386
0.000123877
0.000123879
0.00012383
0.000123834
0.000123903
0.000123895
0.000123867
0.000116975
0.000123886
0.00012407
0.000122813
0.000123873
0.000119707
0.000123867
0.000123911
0.000123858
0.000123913
0.000121937
0.000123246
0.000123849
-3.52501e-06
0.000124066
0.00012385
0.000124022
0.000123873
0.000123981
0.000123983
0.000123886
0.000123893
0.000124042
0.000124017
0.000124036
0.000124036
0.000124038
0.00012336
0.000124033
0.000123851
0.00012406
0.000123977
0.000123934
0.000124029
0.000123881
0.000123903
0.000124026
0.000124047
0.000119212
0.000124051
0.000123885
0.000124002
0.000123999
0.00012403
2.39463e-05
3.05909e-05
4.78424e-05
0.000123878
0.000124055
0.000124046
0.000124048
0.000123859
0.000123947
0.000123877
0.000123874
0.000123924
0.000122548
0.000123877
0.00012388
0.000124045
0.000120705
0.000123891
0.000123885
0.000124052
0.000124025
0.000124031
0.000124037
0.000124013
0.000123854
0.000124049
0.000123856
0.000123793
0.000123631
0.000124054
0.000124013
0.000123996
0.000124061
0.000123867
0.000123955
0.000124044
0.000124006
0.000123758
0.000124018
0.000123968
0.000123982
0.000123859
0.000124059
0.000124015
0.000123562
0.000123461
0.000123628
0.000124065
0.000123973
0.000123892
0.00012407
0.000123827
0.000124071
0.000123878
0.000123875
0.000124018
0.000124063
0.000124067
0.000123956
0.000124043
0.000123891
0.000124046
0.000124063
0.000124047
0.000124001
0.000123993
0.000123562
0.000123968
0.000123878
0.00012387
0.000123961
0.000123856
0.000124031
0.00012018
0.000124071
0.000124048
0.000123628
0.000124038
0.000123868
0.000123554
0.000124008
0.000124001
0.000124041
0.000123883
0.000122609
0.000124068
0.00012387
0.000123556
0.000123624
0.000123967
0.000124052
0.000124061
0.000124055
7.61852e-06
3.67993e-06
2.07221e-06
3.81626e-05
3.67026e-05
5.66281e-06
3.83141e-05
1.57433e-05
3.72964e-05
1.78103e-05
0.000123878
0.000123869
0.000124059
0.000124051
0.000124058
0.000124057
0.000124049
0.000124045
0.000124059
0.000124057
0.000124023
0.000124059
0.000124054
0.000124061
0.000124002
0.000123374
0.000124061
0.000122107
0.000124044
0.000124041
0.000123991
0.000123887
0.000124041
0.000124056
0.000124055
0.000123472
0.000122454
0.00012303
0.000123424
0.000124045
0.000124052
0.000123955
0.000123848
0.000124048
0.00012295
0.00012328
0.000123848
0.000124039
0.000123735
0.000124033
0.000124053
0.000124027
0.000123703
0.000123839
0.00012405
0.000124055
0.000124055
0.000123854
0.000124037
0.00012385
0.000124064
0.000123871
0.000123871
0.00012406
0.000123663
0.00012384
0.000123881
0.00012352
0.000124013
0.000123666
0.000123954
0.000123969
0.000124042
0.000123433
0.000123942
0.000123833
0.000123833
0.000124013
0.000123775
0.000123927
0.000123843
0.000123755
0.000123825
0.000124064
0.00012382
0.000124062
0.000123913
0.00012404
0.000123885
0.000123886
0.000124067
0.000123774
0.000124053
0.000123764
0.000123812
0.000123876
0.000123855
0.000123893
0.000123879
0.000123649
0.000123852
0.000123806
0.00012402
0.000123871
0.000123726
0.000124008
0.000123275
0.000123838
0.000123168
0.000123053
0.000123862
0.000123827
0.000123865
0.000123861
0.000123834
0.000124066
0.000123908
0.000123987
0.000123921
0.000123912
0.000123925
0.000124019
0.000123669
0.000124061
0.000123705
0.000123593
0.000123896
0.000124039
0.000123617
0.000124056
0.000123966
0.000123983
0.00012401
0.000123887
0.000123861
0.000123696
0.000123821
0.000123855
0.000123903
0.000123962
0.000124026
0.000124044
0.000124049
0.000123805
0.000123913
0.000124037
0.000124044
0.000124038
0.00012383
0.000124051
0.000123926
0.000124036
0.000123791
0.000124051
0.000123779
0.000124028
0.000123917
0.00012386
1.16436e-05
2.19148e-05
0.000123804
0.000123884
0.000124064
0.000123811
0.000124064
0.000123894
0.000124051
0.000124028
0.000123762
0.000124022
0.000123851
0.000124061
0.000123885
-2.09593e-07
0.000123755
0.000124033
0.000124029
0.000123721
0.000123877
0.00012392
0.000124023
0.000123778
0.000124045
0.000123928
0.000123878
0.000124021
0.000123826
0.000123752
0.000123788
0.000123887
4.74827e-05
0.000124039
0.00012402
0.000123877
0.000124046
0.000123956
0.000123899
0.000123882
0.000123867
0.000124032
0.000123894
0.0001238
0.000123929
0.000123805
0.000124045
0.000123812
0.00012387
0.000123905
0.00012399
1.98756e-05
2.73366e-05
3.42979e-05
9.64059e-06
0.000123851
3.30567e-05
2.6004e-05
0.000124042
1.90764e-05
1.70319e-05
3.81877e-05
7.57725e-06
3.99395e-05
5.60568e-06
4.08336e-05
3.68936e-06
4.28157e-05
1.87625e-06
3.64099e-05
2.32007e-05
2.94528e-05
1.49941e-05
0.000123734
0.000124053
0.00012392
0.000123928
0.000120878
0.00012397
0.000124048
0.000124018
0.000123817
0.000124054
0.000124057
0.000124034
0.00012403
0.000123794
0.000123868
0.000124041
0.000124047
0.000123883
0.000123749
0.000123828
0.000123389
0.000123841
0.000124068
0.000124037
0.000123879
0.000124061
0.000123722
0.000123908
0.000123682
0.000122836
0.000124032
0.000124044
0.000124067
0.000123736
0.000123927
0.00012368
0.000123893
0.000123884
2.60456e-05
2.18799e-05
3.30383e-05
1.16196e-05
0.000124071
0.000123729
1.98221e-05
2.82574e-05
3.56047e-05
9.58928e-06
0.00012389
0.000123979
0.000123837
0.000123847
0.000123869
0.000124008
0.000123799
0.000124028
0.000123973
0.000123083
0.00012385
0.000123816
5.93688e-05
0.000123209
0.000124059
0.000123862
0.000123755
0.000124047
0.00012405
0.000123843
0.000123643
0.000123873
0.000123928
0.000123726
0.000124003
0.000122885
0.000123802
0.000123824
0.000124016
0.000100868
0.000123864
0.000123469
0.000123789
0.000124059
0.000123691
1.08974e-05
2.11172e-05
3.53696e-05
2.81939e-05
1.36635e-05
5.51382e-08
4.20836e-05
2.69054e-06
4.01605e-05
4.76286e-06
3.9419e-05
6.8158e-06
3.86263e-05
8.85865e-06
3.72923e-05
1.36754e-05
3.17304e-05
3.05867e-05
2.39398e-05
2.52802e-05
1.77673e-05
1.29399e-05
1.57094e-05
0.000124053
0.000102397
0.00012385
0.000123781
0.000124056
0.000123945
0.000124063
0.000123778
0.000123906
0.000124023
0.000124019
0.000124025
0.000123778
0.000123874
0.000123785
0.000123983
0.000123811
0.000124057
0.00012393
0.000123761
0.000123767
0.000123885
0.000123878
0.000124064
0.000124055
0.000124066
0.000124023
0.000124068
0.000123693
0.000123873
0.000124059
0.000123819
0.000123948
0.000123879
0.000123925
0.00012376
0.000124022
0.000124021
0.000123334
0.000121352
0.000123061
0.000123607
0.000123873
0.000123704
0.000123885
0.000124064
0.000124031
0.000123879
0.000123494
0.000123472
0.000124058
0.000124025
0.000123894
0.000123989
0.000123534
5.8314e-05
4.01229e-05
0.000123995
0.000124012
0.000123376
0.000122728
0.00012386
0.00012361
0.000123357
0.000123869
0.000123783
0.00012405
0.000123902
0.000123933
0.000118988
5.44751e-05
0.000123902
8.12456e-05
1.86194e-06
-3.80883e-07
0.000123869
0.000123837
0.000124024
0.000124066
0.000124057
0.000124057
0.00012406
0.000123855
-2.30733e-06
0.000122808
0.000123895
0.000124001
0.000121995
0.000124056
0.000124057
0.000122267
0.000123971
0.000124025
0.000121672
0.000124063
7.63368e-05
0.000124055
0.000123737
0.000124017
0.000122356
0.000123581
0.000123649
0.000123904
0.000124066
0.000124009
0.000124056
0.000124068
0.000123867
0.000116157
)
;

boundaryField
{
    back
    {
        type            empty;
    }
    ingreso
    {
        type            zeroGradient;
    }
    salida
    {
        type            fixedValue;
        value           uniform 0;
    }
    front
    {
        type            empty;
    }
    defaultFaces
    {
        type            zeroGradient;
    }
}


// ************************************************************************* //
