/*--------------------------------*- C++ -*----------------------------------*\
  =========                 |
  \\      /  F ield         | OpenFOAM: The Open Source CFD Toolbox
   \\    /   O peration     | Website:  https://openfoam.org
    \\  /    A nd           | Version:  8
     \\/     M anipulation  |
\*---------------------------------------------------------------------------*/
FoamFile
{
    version     2.0;
    format      ascii;
    class       volScalarField;
    location    "8.8";
    object      p;
}
// * * * * * * * * * * * * * * * * * * * * * * * * * * * * * * * * * * * * * //

dimensions      [0 2 -2 0 0 0 0];

internalField   nonuniform List<scalar> 
6388
(
9.81744e-06
9.84117e-06
9.68659e-06
9.50268e-06
7.34717e-06
6.25722e-06
9.50479e-06
9.21486e-06
9.64375e-06
9.23988e-06
7.80391e-06
9.20318e-06
9.41152e-06
6.36799e-06
9.43932e-06
9.33082e-06
9.21284e-06
6.90129e-06
9.39863e-06
9.53039e-06
9.33671e-06
9.25453e-06
6.92728e-06
6.82711e-06
6.9211e-06
9.36719e-06
9.40832e-06
9.27786e-06
9.29258e-06
9.60205e-06
6.77253e-06
6.78871e-06
7.54144e-06
8.35103e-06
6.60139e-06
7.63149e-06
7.07057e-06
8.85666e-06
9.41155e-06
6.40126e-06
9.45973e-06
9.43206e-06
9.76053e-06
7.0515e-06
9.63704e-06
9.1868e-06
9.85812e-06
9.54406e-06
9.52486e-06
9.23184e-06
9.68568e-06
9.68551e-06
9.52597e-06
9.46941e-06
9.13571e-06
9.71003e-06
9.20562e-06
9.49691e-06
9.52204e-06
9.51327e-06
6.87751e-06
9.56837e-06
9.33434e-06
9.45302e-06
9.05498e-06
9.69537e-06
9.19279e-06
9.34676e-06
8.90037e-06
9.68972e-06
8.30343e-06
6.68845e-06
6.2384e-06
8.44589e-06
9.70662e-06
9.52403e-06
6.54843e-06
9.59377e-06
9.49925e-06
6.84624e-06
9.25401e-06
6.00109e-08
5.5577e-08
5.57709e-08
5.45312e-08
5.92295e-08
7.86013e-06
6.46826e-08
5.85155e-08
5.85851e-08
6.2364e-08
5.49451e-08
9.69777e-06
9.66069e-06
9.34867e-06
9.61366e-06
9.694e-06
6.51083e-06
9.4868e-06
9.13056e-06
9.36942e-06
8.74466e-06
9.22205e-06
9.22074e-06
9.24482e-06
8.02247e-06
9.61434e-06
9.17677e-06
9.31312e-06
9.691e-06
9.47639e-06
7.18959e-06
7.36563e-06
9.5371e-06
9.69844e-06
9.66842e-06
7.59939e-06
9.70619e-06
9.40833e-06
9.7041e-06
5.99035e-06
9.65905e-06
9.34742e-06
9.64454e-06
7.00195e-06
9.50685e-06
9.63532e-06
9.42042e-06
9.69058e-06
9.4097e-06
7.25527e-06
9.25937e-06
9.62438e-06
9.625e-06
9.70241e-06
6.90678e-06
6.602e-06
8.57901e-06
9.61327e-06
9.26321e-06
7.36231e-06
9.65522e-06
9.34417e-06
9.61161e-06
9.68791e-06
9.15072e-06
9.59472e-06
9.68825e-06
9.27337e-06
9.71485e-06
9.21673e-06
9.49193e-06
9.2957e-06
7.13868e-06
9.17944e-06
9.44012e-06
8.80123e-06
9.69264e-06
7.05577e-06
8.19425e-06
9.65866e-06
9.55434e-06
6.44321e-06
8.72408e-06
9.69108e-06
8.43847e-06
6.14566e-06
6.08327e-06
6.04041e-06
9.5941e-06
6.3532e-06
9.23854e-06
9.25115e-06
9.68694e-06
8.65357e-06
6.65309e-06
9.624e-06
9.41941e-06
9.72624e-06
9.22796e-06
8.74868e-06
9.0454e-06
6.49421e-06
5.5951e-06
9.21543e-06
8.23779e-06
9.68465e-06
7.07916e-06
9.06167e-06
7.23703e-06
7.36845e-06
9.09941e-06
7.52911e-06
9.92814e-06
9.23142e-06
9.64765e-06
9.69012e-06
9.64877e-06
6.20965e-06
5.7595e-06
5.73065e-06
6.25364e-06
9.68402e-06
5.86404e-06
5.90185e-06
5.96588e-06
6.07121e-06
6.84127e-06
9.67649e-06
9.46445e-06
6.37995e-06
6.68936e-06
6.12449e-06
8.44502e-06
4.54006e-06
4.48486e-06
4.43922e-06
4.40828e-06
6.53336e-06
9.26723e-06
4.48651e-06
9.61389e-06
5.40038e-06
6.78092e-06
9.67393e-06
5.53607e-06
7.15752e-06
4.84323e-06
4.76831e-06
4.71898e-06
4.68733e-06
8.67698e-06
5.61502e-06
9.58138e-06
9.22867e-06
4.77077e-06
8.45933e-06
5.69428e-06
5.2878e-06
6.22268e-06
5.25641e-06
5.20368e-06
5.16613e-06
7.92885e-06
5.54147e-06
5.48566e-06
5.44628e-06
5.75168e-06
6.53188e-06
7.69405e-06
9.66276e-06
6.18625e-06
5.91121e-06
5.8288e-06
5.76756e-06
5.72904e-06
6.06108e-06
5.90526e-06
5.5255e-06
6.20882e-06
3.77865e-06
6.16522e-06
6.2727e-06
3.73093e-06
4.08238e-06
5.58952e-06
5.62859e-06
5.68712e-06
4.18858e-06
4.14597e-06
4.11699e-06
3.99568e-06
4.34467e-06
6.03473e-06
9.2206e-06
4.36602e-06
9.67215e-06
7.64893e-06
4.79323e-06
4.39785e-06
5.26704e-06
4.72183e-06
4.80638e-06
9.2678e-06
4.81384e-06
9.38293e-06
5.2478e-06
4.99687e-06
9.36309e-06
6.35837e-06
6.06618e-06
9.24233e-06
7.16676e-06
9.45747e-06
5.25572e-06
5.30153e-06
9.69833e-06
5.25386e-06
6.03198e-06
9.26545e-06
7.17071e-06
7.38991e-06
9.70752e-06
5.05552e-06
5.1394e-06
5.55073e-06
4.9785e-06
5.0136e-06
5.06528e-06
4.32835e-06
9.71211e-06
7.52515e-06
9.67671e-06
8.13853e-06
6.58603e-06
9.66105e-06
6.87965e-06
4.5898e-06
9.47478e-06
5.70936e-06
5.97203e-06
9.611e-06
5.81951e-06
5.88977e-06
4.86832e-06
9.30186e-06
8.81499e-06
7.00061e-06
7.00094e-06
3.66473e-06
3.69507e-07
3.59771e-07
3.6601e-07
3.62146e-07
3.49472e-07
4.28389e-06
4.04801e-06
7.2008e-06
7.07513e-06
8.63101e-06
9.11552e-06
4.38762e-06
3.95634e-06
9.56535e-06
3.94912e-06
5.39789e-06
9.49622e-06
4.05441e-06
4.99167e-06
4.83775e-06
4.87032e-06
4.92134e-06
6.95206e-06
7.07631e-06
4.22847e-06
5.13059e-06
7.27151e-06
4.62516e-06
7.81441e-06
5.43985e-06
5.30402e-06
5.34215e-06
5.3966e-06
6.60877e-06
9.23875e-06
7.76343e-06
3.31456e-06
4.6921e-06
9.23811e-06
4.54834e-06
4.57978e-06
4.62716e-06
3.61241e-06
7.15623e-06
7.17574e-06
4.99791e-06
8.31067e-06
3.85483e-06
5.08561e-06
5.09728e-06
9.24032e-06
9.6754e-06
3.8856e-06
3.84589e-06
3.81927e-06
9.16614e-06
9.20965e-06
5.09481e-06
4.95007e-06
9.60654e-06
4.88487e-06
5.41206e-06
4.63769e-06
4.66821e-06
9.6711e-06
6.58483e-06
4.94133e-06
7.48135e-06
4.64925e-06
4.94759e-06
9.29245e-06
9.45973e-06
9.24233e-06
9.55769e-06
4.5292e-06
5.39029e-06
5.45543e-06
9.41729e-06
9.64476e-06
3.47372e-06
9.18898e-06
9.6807e-06
9.62898e-06
3.23303e-06
3.211e-06
3.26664e-06
7.89488e-06
9.63464e-06
9.62199e-06
4.10733e-06
9.42282e-06
9.6822e-06
4.10093e-06
4.54239e-06
9.61921e-06
3.2324e-06
3.59352e-06
8.23484e-06
9.62354e-06
5.149e-06
9.68499e-06
3.49037e-06
8.64958e-06
4.48717e-06
7.42394e-06
3.59507e-06
9.6405e-06
4.24817e-06
3.5831e-06
4.51748e-06
4.26383e-06
4.29389e-06
4.33797e-06
8.49099e-06
4.14221e-06
4.72442e-06
3.4599e-06
3.62677e-06
9.32219e-06
3.20444e-06
9.24028e-06
7.48841e-06
4.85588e-06
6.72257e-06
8.15524e-06
4.23392e-06
9.57653e-06
8.81006e-06
3.28593e-06
3.96873e-06
3.99653e-06
4.03769e-06
3.85914e-06
3.28501e-06
3.36307e-06
3.38644e-06
3.42143e-06
3.89869e-06
9.58688e-06
3.17497e-06
4.46227e-06
9.68352e-06
3.90285e-06
9.48908e-06
3.93082e-06
7.02887e-06
9.09951e-06
9.65713e-06
3.80176e-06
6.96605e-06
7.64194e-06
4.38024e-06
3.74367e-06
4.19708e-06
3.51887e-06
4.20857e-06
3.74681e-06
9.69059e-06
5.95783e-06
3.64366e-06
9.70627e-06
3.36826e-06
3.43939e-06
3.48078e-06
9.28253e-06
3.44019e-06
6.70717e-06
3.95636e-06
4.09042e-06
7.31578e-06
5.74261e-06
9.37129e-06
9.70526e-06
3.81058e-06
8.60368e-06
3.33311e-06
3.33345e-06
9.69189e-06
7.314e-06
9.43476e-06
3.73738e-06
8.10218e-06
3.08557e-06
9.65084e-06
8.89895e-06
7.32265e-06
9.30251e-06
9.19269e-06
3.04955e-06
7.30472e-06
2.95841e-06
7.11002e-06
7.25688e-06
6.92581e-06
9.6945e-06
7.9173e-06
9.45418e-06
9.30121e-06
9.32747e-06
8.10507e-06
9.62583e-06
2.9281e-06
9.25272e-06
5.84491e-06
9.24852e-06
9.69169e-06
9.59885e-06
8.64401e-06
9.67901e-06
9.23205e-06
7.20519e-06
9.66066e-06
9.66774e-06
9.70717e-06
9.58336e-06
9.49343e-06
9.64053e-06
9.13384e-06
9.66585e-06
9.66723e-06
9.55192e-06
9.33971e-06
8.23705e-06
9.65759e-06
7.21867e-06
9.49382e-06
9.69195e-06
8.23211e-06
9.64265e-06
9.45827e-06
9.21046e-06
6.76545e-06
9.49403e-06
9.47178e-06
8.53945e-06
7.9759e-06
9.65467e-06
9.02478e-06
9.63672e-06
7.7767e-06
7.91412e-06
9.62414e-06
9.47703e-06
9.58859e-06
7.27918e-06
9.57984e-06
7.07332e-06
5.87134e-07
6.25402e-07
6.12425e-07
6.15562e-07
6.22723e-07
2.78605e-06
2.80458e-06
2.83417e-06
9.20728e-06
7.84563e-06
8.35235e-06
9.33324e-06
9.45717e-06
7.78062e-06
9.59751e-06
7.28629e-06
9.6929e-06
9.67421e-06
9.93836e-06
5.98782e-06
8.26736e-06
9.60449e-06
7.97049e-06
9.65655e-06
9.14433e-06
9.67591e-06
9.70494e-06
9.48698e-06
8.94225e-06
9.68879e-06
7.10395e-06
9.11943e-06
9.69319e-06
9.36448e-06
9.32109e-06
9.61612e-06
8.57379e-06
7.1158e-06
9.68228e-06
7.30462e-06
8.18359e-06
9.64539e-06
2.86324e-06
2.14333e-07
2.14834e-07
2.10454e-07
2.10618e-07
9.03104e-06
1.75492e-07
8.87768e-06
9.32509e-06
6.13332e-06
9.6949e-06
8.23983e-06
9.34899e-06
9.35331e-06
2.85378e-06
6.70271e-06
9.61201e-06
5.39999e-06
9.70709e-06
9.69958e-06
2.53343e-06
7.55298e-06
8.98572e-06
8.92268e-06
7.13233e-06
2.54136e-07
2.69644e-07
2.70639e-07
2.62331e-07
2.68793e-07
8.92343e-06
7.47578e-06
9.4826e-06
8.08436e-06
9.44009e-06
9.66717e-06
8.68274e-06
7.65392e-06
2.48819e-06
8.27738e-06
8.10806e-06
8.87354e-06
6.77056e-06
9.62928e-06
9.67614e-06
9.65755e-06
9.61867e-06
6.8543e-06
9.66248e-06
9.69465e-06
9.52588e-06
6.92538e-06
9.59528e-06
9.00089e-06
2.58494e-07
2.66034e-07
2.56054e-07
2.52868e-07
2.57752e-07
9.56252e-06
9.68097e-06
9.64272e-06
1.97291e-07
2.22297e-07
2.25544e-07
2.21669e-07
2.19524e-07
7.52521e-06
7.01676e-06
9.25359e-06
5.96751e-06
9.52869e-06
9.53709e-06
6.92525e-06
9.47564e-06
7.82351e-06
7.59616e-06
9.07836e-06
9.12846e-06
9.22097e-06
9.43422e-06
7.22795e-06
9.49712e-06
9.69247e-06
9.44282e-06
9.42225e-06
9.51065e-06
9.26863e-06
8.58532e-06
9.10888e-06
9.68739e-06
9.5996e-06
9.65864e-06
9.47273e-06
9.6964e-06
9.58339e-06
6.43024e-06
7.55951e-06
6.91551e-06
8.17614e-06
9.26143e-06
9.68333e-06
7.21429e-06
9.3071e-06
7.97813e-06
9.15431e-06
9.24397e-06
9.68878e-06
8.1778e-06
7.70022e-06
9.62023e-06
9.51979e-06
9.6262e-06
4.77658e-06
9.35256e-06
9.28379e-06
7.7895e-06
2.82228e-06
9.70887e-06
9.66417e-06
8.56241e-06
9.70544e-06
3.32356e-06
9.50917e-06
8.74618e-06
5.83565e-06
9.13354e-06
9.68983e-06
9.11658e-06
9.52403e-06
6.53013e-06
2.78907e-06
8.66946e-06
7.39625e-06
6.78111e-06
7.24043e-06
6.61511e-06
8.04348e-06
9.62739e-06
7.72938e-06
8.71498e-06
9.49443e-06
9.41468e-06
9.67558e-06
7.41843e-06
9.40967e-06
6.14089e-06
6.07977e-06
6.03554e-06
3.11552e-07
9.67657e-06
9.69295e-06
9.40777e-06
9.68088e-06
8.62762e-06
3.41974e-07
3.38605e-07
3.53915e-07
3.37992e-07
8.21146e-06
8.28841e-06
9.35336e-06
8.27161e-06
9.55292e-06
9.69394e-06
9.4563e-06
9.45391e-06
9.6827e-06
7.97075e-06
9.6894e-06
9.61271e-06
9.68547e-06
8.76035e-06
9.59086e-06
9.67953e-06
9.22654e-06
9.69083e-06
9.60303e-06
8.9011e-06
6.27355e-06
9.34258e-06
9.52558e-06
8.35793e-06
5.69247e-06
9.58351e-06
8.68137e-06
8.96825e-06
8.36504e-06
9.35604e-06
9.24222e-06
7.28543e-06
7.76744e-06
7.92617e-06
9.15848e-06
9.68746e-06
9.68052e-06
7.08435e-06
6.17918e-06
8.10794e-06
9.62518e-06
9.64497e-06
9.36814e-06
9.67172e-06
9.1812e-06
7.99734e-06
9.82966e-06
7.57116e-06
9.37139e-06
6.70212e-06
5.88101e-06
6.34328e-06
9.69481e-06
9.31978e-06
9.62641e-06
9.23739e-06
9.66709e-06
9.65781e-06
9.67654e-06
6.17961e-06
9.59359e-06
9.25957e-06
9.69859e-06
9.15847e-06
6.03303e-06
9.64467e-06
2.67794e-06
9.65193e-06
9.21382e-06
9.26058e-06
9.0497e-06
3.6821e-06
6.64042e-06
9.5444e-06
9.67394e-06
9.68592e-06
9.67134e-06
2.63895e-06
9.70647e-06
9.41926e-06
9.13986e-06
7.79741e-06
9.3333e-06
6.51488e-06
7.05214e-06
6.93213e-06
9.45804e-06
6.48872e-06
6.45875e-06
1.35842e-06
4.0901e-06
4.04829e-06
4.02031e-06
9.64793e-06
9.36832e-06
9.69011e-06
6.90481e-06
9.58584e-06
8.84214e-06
9.66291e-06
7.70172e-06
9.70532e-06
9.57086e-06
9.32818e-06
2.68889e-06
2.66079e-06
2.64323e-06
7.45116e-06
9.70907e-06
9.32592e-06
8.03451e-06
9.62764e-06
5.87292e-06
6.82726e-06
9.53412e-06
4.82692e-07
4.78644e-07
4.72852e-07
9.14566e-06
1.42313e-06
9.49951e-06
9.30339e-06
4.37526e-06
4.90671e-07
9.2288e-06
9.44297e-06
6.67828e-06
6.7956e-06
9.42062e-06
9.43808e-06
5.98235e-06
6.5478e-06
6.66261e-06
6.66332e-07
8.26858e-06
9.57118e-06
7.04473e-06
6.95516e-06
9.13916e-06
3.45869e-06
8.27341e-06
5.09438e-06
3.73071e-06
9.56523e-06
9.68421e-06
5.99934e-07
9.60778e-06
6.47948e-06
6.36789e-06
8.08482e-06
5.19325e-06
8.60017e-06
5.83684e-06
9.50216e-06
1.06672e-06
9.57636e-06
6.34866e-06
9.70735e-06
5.54619e-06
9.16435e-06
1.25004e-06
1.22925e-06
1.23598e-06
1.18384e-06
9.09259e-06
2.41774e-06
7.09431e-06
1.77553e-06
1.05801e-06
6.27078e-06
1.64055e-06
8.3603e-06
9.35389e-06
7.62639e-06
2.71005e-06
5.68562e-06
8.48487e-06
9.55962e-06
9.37407e-06
6.20308e-06
9.68108e-06
9.45359e-06
2.69385e-06
2.66572e-06
2.64814e-06
9.21673e-06
9.6131e-06
3.12061e-06
3.0882e-06
3.06761e-06
5.81118e-06
5.74811e-06
5.69151e-06
5.64945e-06
1.6542e-06
9.38718e-06
9.59053e-07
6.49676e-06
9.68538e-06
2.42875e-06
1.15159e-06
9.55722e-06
9.68014e-06
1.86199e-06
9.60459e-06
9.70442e-06
8.84353e-06
9.42574e-06
1.39871e-06
1.37537e-06
1.3832e-06
2.39035e-06
1.20731e-06
1.49776e-06
1.48128e-06
1.47273e-06
9.20531e-06
9.17218e-06
1.90368e-06
2.09447e-06
2.05916e-06
2.07214e-06
2.72256e-06
1.20137e-06
9.69224e-06
1.79629e-06
1.76612e-06
1.77688e-06
9.08782e-06
9.30297e-06
8.10222e-07
9.33181e-06
9.58629e-06
1.57721e-06
9.70761e-06
9.70594e-06
9.20066e-07
9.09331e-07
9.0495e-07
8.66187e-07
6.32501e-06
9.4537e-06
9.25993e-06
7.28861e-07
6.57137e-06
6.21199e-06
1.63696e-06
9.27381e-06
9.24001e-07
2.57235e-06
2.3423e-06
9.42565e-06
8.5819e-06
1.10775e-06
2.39386e-06
2.35336e-06
2.36862e-06
3.17591e-06
6.44218e-06
2.31656e-06
9.65207e-06
2.71115e-06
2.01363e-06
1.32745e-06
1.35312e-06
1.24618e-06
1.10355e-06
1.69633e-06
1.66788e-06
1.67789e-06
9.41982e-06
1.65846e-06
1.63069e-06
1.64039e-06
4.52604e-06
2.11426e-06
1.49443e-06
3.14113e-06
1.94464e-06
1.91192e-06
1.92377e-06
1.25751e-06
2.24415e-06
2.04853e-06
2.92636e-06
2.94583e-06
2.97687e-06
1.62951e-06
2.28565e-06
9.51217e-06
2.14491e-06
7.98872e-06
9.6829e-06
2.72394e-06
2.43434e-06
2.41627e-06
3.13864e-06
9.68929e-06
3.06139e-06
2.5749e-06
1.40107e-06
1.64644e-06
1.61885e-06
1.62849e-06
1.9946e-06
1.97324e-06
1.96102e-06
8.07017e-06
2.51358e-06
2.49711e-06
2.5402e-06
1.83163e-06
2.21505e-06
9.07285e-07
9.17811e-06
1.70888e-06
9.68297e-06
2.92342e-06
9.50944e-06
2.24333e-06
2.20545e-06
2.21954e-06
3.86687e-06
9.69438e-06
8.77227e-06
9.5025e-06
6.82381e-06
9.09148e-07
9.659e-06
1.54747e-06
1.53048e-06
1.52158e-06
2.88034e-06
9.60556e-06
1.84564e-06
1.82573e-06
1.81463e-06
3.01368e-06
2.20113e-06
8.11188e-07
2.29307e-06
2.26878e-06
2.25433e-06
9.5617e-07
1.05329e-06
1.25221e-06
9.68244e-06
9.27055e-06
2.44103e-06
9.41661e-06
2.13495e-06
2.57836e-06
1.79029e-06
9.70292e-06
2.54309e-06
2.50001e-06
2.51641e-06
1.36819e-06
1.3482e-06
2.33718e-06
1.67392e-06
7.91397e-06
2.26537e-06
2.99974e-06
9.72861e-07
1.54555e-06
2.144e-06
2.10784e-06
2.12115e-06
1.63576e-06
1.35413e-06
2.09588e-06
9.54978e-06
9.44352e-06
9.45186e-06
8.52426e-07
2.28906e-06
9.46097e-06
2.03241e-06
9.21238e-06
2.40895e-06
9.10919e-06
2.99541e-06
1.56657e-06
1.40361e-06
2.14103e-06
9.65192e-06
4.23658e-07
4.38622e-07
4.31354e-07
2.29197e-06
1.50826e-06
2.74692e-06
4.06914e-07
8.12983e-07
9.70355e-06
2.06392e-06
2.13544e-06
2.16518e-06
1.4677e-06
1.47604e-06
1.49258e-06
2.62603e-06
2.26051e-06
1.49782e-06
2.86585e-06
2.86795e-06
2.3166e-06
1.41629e-06
7.90362e-06
6.30014e-06
2.86927e-06
1.67091e-06
1.53722e-06
9.36597e-07
3.83366e-06
9.67987e-06
2.05998e-06
2.44306e-06
2.40174e-06
2.4173e-06
1.68301e-06
1.19842e-06
2.19282e-06
8.27528e-06
2.56293e-06
2.33704e-06
1.97923e-06
9.1918e-06
2.48162e-06
4.44975e-07
1.34802e-06
1.33302e-06
1.32556e-06
1.27866e-06
5.89444e-06
6.54489e-07
2.56593e-06
9.4753e-06
3.0258e-06
9.66563e-06
4.10598e-06
9.45779e-06
1.94966e-06
1.88124e-06
3.1603e-06
2.91371e-06
7.46886e-06
2.59283e-06
2.56563e-06
2.54891e-06
3.91252e-06
1.98642e-06
6.66631e-06
6.78372e-06
3.66762e-06
3.69297e-06
3.73126e-06
1.98251e-06
9.22205e-06
2.18464e-06
2.28734e-06
1.79798e-06
6.96595e-07
6.99064e-07
8.00604e-06
2.28747e-06
6.81901e-07
2.56857e-06
2.26232e-06
3.07503e-06
4.8918e-07
4.81806e-07
4.77298e-07
4.93199e-07
2.64225e-06
4.90463e-07
4.85452e-07
4.82855e-07
4.93434e-07
4.66632e-07
2.77026e-06
9.24953e-06
2.20297e-06
2.21711e-06
2.24084e-06
3.27854e-06
9.47859e-06
9.54904e-06
1.83842e-06
4.238e-06
4.19471e-06
4.16568e-06
1.92304e-06
9.26558e-06
9.57782e-06
3.51619e-06
3.57721e-06
3.54049e-06
8.53518e-07
8.90547e-07
8.94948e-07
9.05485e-07
4.39403e-06
9.19119e-06
8.23292e-06
9.35832e-06
2.11255e-06
3.55086e-06
2.49016e-06
5.9581e-06
2.59275e-06
1.78218e-06
1.95851e-06
9.7134e-06
9.8764e-07
8.03744e-06
9.21709e-06
9.23273e-06
1.9024e-06
3.65162e-06
9.3426e-06
3.05853e-06
1.92803e-06
1.96199e-06
3.0885e-06
9.64506e-06
7.38879e-06
7.27391e-06
9.40257e-07
3.02414e-06
1.9997e-06
2.4594e-06
7.26601e-06
3.6609e-06
5.89523e-06
5.83859e-06
5.794e-06
2.19234e-06
2.55947e-06
3.31066e-06
8.83947e-06
9.09852e-06
6.95832e-07
9.11374e-06
7.90637e-07
7.95218e-07
7.29517e-07
7.1929e-07
1.20361e-06
3.35449e-06
1.51099e-06
7.83893e-07
6.22102e-06
1.83717e-06
7.5844e-07
2.84499e-06
2.81539e-06
2.79664e-06
2.78525e-06
2.90471e-06
9.23556e-06
2.79546e-06
9.69299e-06
1.18796e-06
9.20613e-06
2.60916e-06
9.63255e-06
6.32458e-06
2.23464e-06
3.8098e-06
9.67411e-06
4.80624e-06
3.42025e-06
2.7853e-06
1.46636e-06
3.5172e-06
7.08188e-06
2.58782e-06
9.16415e-07
9.22757e-07
2.35119e-06
3.32709e-06
9.63795e-06
3.17249e-06
3.20725e-06
1.78612e-06
1.09553e-06
3.64396e-06
8.1003e-06
3.70114e-06
1.52796e-06
9.33363e-06
4.20678e-06
3.77767e-06
1.36775e-06
2.94727e-06
3.80529e-06
9.8836e-07
1.68021e-06
3.80349e-06
9.16321e-06
9.67981e-06
8.90164e-07
9.71242e-06
9.68385e-06
4.88844e-06
1.03477e-06
1.04013e-06
1.05217e-06
9.93843e-07
8.10218e-07
7.96837e-07
8.00677e-07
7.61973e-07
3.90683e-06
2.26573e-06
9.41713e-06
2.48215e-06
4.02139e-06
2.41516e-06
2.43095e-06
2.45676e-06
3.34455e-06
4.85086e-07
3.46801e-06
4.10031e-06
9.44116e-06
3.75009e-06
9.65159e-06
8.47992e-06
8.85207e-06
1.12423e-06
1.1713e-06
1.17726e-06
1.19091e-06
9.69152e-06
2.42848e-06
9.28045e-06
9.41071e-06
3.02369e-06
6.08681e-07
5.64793e-07
6.0155e-07
6.11216e-07
6.03251e-07
4.5129e-06
2.8633e-06
1.47829e-06
1.65108e-06
3.71235e-06
1.10057e-06
9.39101e-06
1.14089e-06
6.70417e-06
6.58872e-06
2.10213e-06
7.50146e-06
1.53774e-06
1.7113e-06
9.6789e-06
2.17868e-06
7.39674e-06
1.65968e-06
2.12183e-06
2.1353e-06
2.15825e-06
2.06079e-06
4.04574e-06
9.66773e-06
8.31055e-06
2.25719e-06
4.62072e-06
3.66326e-06
9.69103e-06
9.42528e-06
2.49507e-06
3.20909e-06
3.49603e-06
6.99963e-07
7.40392e-07
7.42983e-07
7.52363e-07
6.53242e-06
6.64717e-06
6.44195e-07
6.58182e-07
6.61316e-07
7.4962e-06
6.23492e-07
4.10413e-06
7.51465e-07
5.28477e-06
1.40807e-06
3.81032e-06
3.56741e-06
1.80416e-06
3.95501e-06
2.80228e-06
4.00111e-06
9.64094e-06
3.95444e-06
9.67186e-06
6.89545e-06
1.50919e-06
3.64986e-06
5.84822e-06
9.1372e-06
4.05518e-06
1.80285e-06
9.50694e-07
1.47074e-06
2.3079e-06
1.23185e-06
9.92145e-07
5.7463e-06
7.51377e-06
1.54336e-06
9.70436e-06
8.19436e-06
3.85082e-06
1.87485e-06
1.21237e-06
4.36092e-06
9.43788e-06
7.91873e-07
3.85737e-06
4.24499e-06
5.54283e-07
9.65906e-06
4.332e-06
3.95444e-06
9.39033e-06
6.82743e-06
4.40416e-06
9.68543e-06
3.51057e-06
8.75256e-06
1.22891e-06
3.60759e-06
5.82872e-06
7.88837e-07
7.79618e-07
7.75861e-07
7.42609e-07
9.64339e-06
2.47619e-06
2.50484e-06
5.42577e-07
5.33404e-07
5.36357e-07
5.45511e-07
5.12545e-07
9.34991e-06
9.37506e-06
3.93871e-06
4.0013e-06
4.25475e-06
9.41613e-07
4.61023e-06
9.61469e-06
3.93409e-06
4.14529e-06
3.00037e-06
2.9693e-06
2.94931e-06
1.19683e-06
2.72061e-06
2.16546e-06
4.65818e-06
6.38761e-06
1.98086e-06
1.97949e-06
9.54734e-06
9.29777e-06
3.89718e-06
3.7952e-06
9.57681e-06
4.08517e-06
1.1919e-06
5.43166e-06
5.60114e-06
9.68786e-06
2.05231e-06
4.06056e-06
9.32407e-06
2.05391e-06
1.11636e-06
1.37017e-06
1.0419e-06
1.08399e-06
1.08972e-06
1.10226e-06
2.24215e-06
2.17674e-06
4.25804e-06
6.45143e-06
1.33506e-06
1.39269e-06
1.38503e-06
1.40842e-06
5.30354e-06
2.29842e-06
2.56032e-06
2.57723e-06
2.60449e-06
9.16981e-06
4.22141e-06
9.69201e-06
8.27126e-07
2.59614e-06
5.31197e-06
1.97934e-06
4.55385e-06
9.571e-06
4.88399e-06
8.63765e-07
8.70704e-07
9.28889e-06
9.35811e-06
2.45951e-06
2.69087e-06
9.35878e-06
4.08232e-06
9.73212e-06
4.29171e-06
4.18889e-06
1.69203e-06
7.12404e-06
7.32752e-06
7.75703e-06
4.33866e-06
4.29441e-06
4.26458e-06
2.42084e-06
2.25988e-06
2.46808e-06
3.19355e-06
3.16049e-06
3.13923e-06
4.8868e-06
9.32368e-06
4.77255e-06
1.82025e-06
7.33963e-08
7.39662e-08
7.43384e-08
5.92182e-08
6.57519e-08
7.63703e-08
7.49427e-08
7.50654e-08
7.35382e-08
7.53159e-08
4.48683e-06
4.44109e-06
4.41021e-06
9.47911e-06
1.115e-06
9.28884e-06
2.58008e-06
1.808e-06
9.36454e-06
1.71063e-06
9.01984e-06
7.02473e-06
3.0448e-06
2.99303e-06
3.01329e-06
6.23693e-06
9.18865e-06
1.36148e-06
9.2261e-06
9.68906e-06
4.50256e-06
2.87926e-06
6.78779e-07
9.54272e-06
5.17243e-06
3.36569e-06
2.77768e-06
4.47207e-06
4.53816e-06
9.15653e-06
9.21706e-06
9.57697e-06
9.68598e-06
4.70324e-06
9.5333e-06
9.31687e-06
9.64813e-06
1.7485e-06
1.8507e-06
4.36127e-06
1.75962e-06
9.32857e-06
2.74366e-06
2.71501e-06
2.69712e-06
3.49242e-06
3.45648e-06
3.43294e-06
9.28617e-06
9.61397e-06
9.99585e-07
3.65482e-06
2.12687e-06
2.58944e-06
2.57402e-06
2.10756e-06
2.20334e-06
5.45832e-06
3.75649e-06
9.63733e-06
3.16131e-06
2.88645e-06
8.88937e-06
2.73152e-06
9.59578e-06
2.24697e-06
5.98567e-06
1.54656e-06
9.6902e-06
4.74494e-06
1.90845e-06
1.92026e-06
1.94111e-06
6.55907e-06
3.01195e-06
3.76296e-06
5.55389e-06
2.50915e-06
2.52555e-06
2.55235e-06
1.70306e-06
4.95466e-06
2.68791e-06
3.64322e-06
3.60582e-06
3.58112e-06
7.57413e-06
6.23394e-06
2.61135e-06
8.88439e-06
3.03482e-06
5.02142e-07
4.78406e-06
4.23695e-06
5.44507e-06
3.44908e-06
3.41351e-06
3.39037e-06
2.11749e-06
3.33088e-06
2.5835e-06
1.97328e-06
4.64212e-06
2.62417e-06
9.40173e-06
8.26809e-06
9.34979e-06
3.24821e-06
5.0427e-06
3.47915e-06
8.92589e-06
1.44318e-06
9.45201e-06
1.42223e-06
7.2043e-06
2.27697e-06
6.49692e-06
6.5803e-06
6.46734e-06
9.11743e-06
9.67999e-06
7.48933e-06
3.21095e-06
2.23109e-06
2.21689e-06
2.25497e-06
5.02644e-06
9.6489e-06
9.23669e-06
3.22647e-06
3.01897e-06
2.70255e-06
1.98542e-06
2.82693e-06
9.32434e-06
5.44002e-07
5.66449e-07
5.60673e-07
5.44703e-07
4.73449e-06
1.42518e-06
2.42854e-06
5.06262e-06
2.20643e-06
4.63608e-06
4.58887e-06
4.55689e-06
3.06343e-06
9.23317e-06
2.76056e-06
2.77179e-06
5.69028e-06
4.92422e-06
2.36317e-06
2.37846e-06
2.4038e-06
2.27484e-06
9.59411e-06
1.10046e-06
2.35557e-06
2.91508e-06
9.40432e-06
2.8831e-06
6.41119e-06
9.66259e-06
9.34541e-06
2.30614e-06
9.40309e-06
6.10752e-06
5.30962e-06
1.13037e-06
1.11643e-06
1.43783e-06
6.19676e-06
9.68919e-06
3.30273e-06
3.24654e-06
3.26857e-06
3.7442e-06
3.68033e-06
3.70585e-06
2.73461e-06
9.28837e-06
3.02103e-06
3.07035e-06
4.28827e-06
2.25732e-06
1.96493e-06
2.43003e-06
1.49113e-06
1.48258e-06
1.50775e-06
2.57144e-06
9.69722e-06
3.06246e-06
5.45316e-06
9.42313e-06
2.6026e-06
6.33194e-06
3.098e-06
2.12518e-06
2.27671e-06
2.15569e-06
1.14288e-06
5.33861e-06
4.54077e-06
5.60313e-06
6.58825e-06
8.06235e-06
3.11913e-06
5.42377e-06
9.55068e-06
5.20124e-06
6.32841e-06
4.43942e-06
3.35668e-06
5.5784e-06
4.74485e-06
9.70239e-06
2.75853e-06
9.18165e-06
2.7834e-06
8.02053e-06
2.62011e-06
1.43188e-06
9.67322e-06
6.40889e-06
9.47727e-06
7.11268e-06
2.72013e-06
2.3e-06
4.17684e-06
4.68533e-06
4.63758e-06
4.60531e-06
7.58569e-06
5.74484e-06
9.19803e-06
9.75694e-06
2.01792e-06
4.69386e-06
2.90911e-06
3.98484e-06
7.56222e-07
2.71762e-06
4.21229e-06
9.14595e-06
5.4754e-06
8.37605e-06
9.69286e-06
8.491e-07
2.42423e-06
9.31621e-06
1.42966e-06
9.30477e-06
3.89316e-06
3.85338e-06
3.82672e-06
3.91789e-06
3.0632e-06
5.40283e-06
2.83782e-06
9.45547e-06
3.30473e-06
7.87184e-06
1.25102e-06
5.20547e-06
6.58648e-06
7.69648e-06
5.14097e-06
5.08894e-06
5.05299e-06
3.32062e-06
4.89638e-06
4.83693e-06
4.7877e-06
4.75427e-06
6.71695e-06
3.45484e-06
4.41357e-06
5.40479e-06
2.07005e-06
2.08314e-06
2.10556e-06
9.3986e-06
9.45164e-06
5.16079e-06
9.34294e-06
6.88689e-06
6.76939e-06
5.00088e-06
1.70451e-06
5.09895e-06
5.04744e-06
5.0116e-06
4.94088e-06
4.89075e-06
4.85632e-06
5.8696e-06
2.01059e-06
3.46695e-06
9.54658e-06
7.55778e-06
9.60758e-06
9.51915e-06
6.61006e-06
5.61794e-06
1.50108e-06
1.52056e-06
5.75449e-06
9.69306e-06
4.4148e-06
4.38609e-06
4.34127e-06
4.31125e-06
7.60177e-06
6.77934e-06
8.96061e-06
4.66684e-06
1.23551e-06
7.47392e-06
3.95856e-06
2.41418e-06
9.06361e-06
1.77129e-06
1.7607e-06
1.79072e-06
9.47096e-06
2.35041e-06
2.36574e-06
2.3909e-06
3.14516e-06
2.12953e-06
1.23118e-06
2.45005e-06
9.286e-06
4.26178e-06
2.92906e-06
1.84902e-06
1.63655e-06
5.90224e-06
5.15842e-07
5.1673e-07
5.10375e-07
5.08667e-07
4.81449e-07
9.18763e-06
1.20616e-06
4.1545e-06
5.60635e-06
9.36739e-06
3.50056e-06
5.54761e-06
5.49191e-06
5.45244e-06
6.48549e-06
9.18152e-06
9.18763e-06
5.47006e-06
7.58966e-06
4.963e-06
5.39642e-06
5.34208e-06
5.30396e-06
7.69916e-06
3.58092e-06
5.35742e-06
6.84493e-06
5.19477e-06
5.28987e-06
5.23644e-06
5.19934e-06
3.70426e-07
4.86541e-06
2.73675e-06
9.68654e-06
1.69905e-06
3.50966e-06
1.79896e-06
1.72263e-06
9.67632e-06
6.01721e-06
3.39902e-06
4.71865e-06
1.40278e-06
2.70796e-06
2.72591e-06
2.75468e-06
1.99558e-06
7.03687e-06
9.69103e-06
1.38332e-06
4.86949e-06
6.55427e-06
1.66135e-06
4.64974e-06
2.11036e-06
4.68265e-06
5.10447e-06
8.00399e-06
2.93611e-06
5.95929e-06
2.05543e-06
2.06838e-06
2.09068e-06
9.56697e-06
9.56001e-06
1.3739e-06
9.59247e-06
9.58719e-06
4.7296e-06
3.12842e-06
9.68721e-06
4.43871e-06
1.94365e-06
9.69479e-06
8.21961e-06
9.48208e-06
4.51751e-06
2.11635e-06
1.4855e-06
9.67441e-06
9.72037e-06
2.41448e-06
7.37361e-06
9.41472e-06
9.51091e-07
1.28726e-06
1.33529e-06
1.34274e-06
1.35788e-06
7.98927e-06
2.43825e-06
9.60891e-06
9.26651e-06
5.3789e-06
8.35522e-06
1.81483e-06
2.63955e-06
1.80611e-06
5.16213e-06
5.22727e-06
1.55027e-06
1.09094e-06
1.04415e-06
4.85286e-06
7.86101e-06
3.53047e-06
6.12951e-06
7.9625e-06
4.92434e-06
5.30996e-06
5.12192e-06
2.76195e-06
1.81862e-06
9.67082e-06
1.86561e-06
1.00382e-06
1.04618e-06
1.05149e-06
1.06372e-06
6.90168e-06
2.77372e-06
1.65485e-06
7.46854e-06
1.52451e-06
5.21436e-06
9.22916e-06
2.63275e-06
6.93655e-06
3.94177e-06
3.87452e-06
3.90148e-06
5.66584e-06
7.35084e-06
9.25934e-06
4.96274e-06
5.17012e-06
5.59423e-06
5.5388e-06
5.49828e-06
2.11554e-06
2.20455e-06
5.68414e-06
9.37579e-06
5.10695e-06
6.26698e-06
6.34497e-06
6.23609e-06
4.46685e-06
9.25364e-06
4.96343e-06
8.03978e-06
9.60598e-06
9.64455e-06
1.92305e-06
1.93499e-06
1.95597e-06
8.56494e-06
1.54035e-06
1.53151e-06
1.55751e-06
1.4796e-06
5.60823e-06
6.7939e-06
5.64483e-06
9.59538e-06
8.49001e-06
9.77964e-07
1.0281e-06
1.04034e-06
1.02335e-06
6.61091e-07
6.61187e-07
6.52978e-07
6.50463e-07
6.16813e-07
1.97844e-06
7.8299e-06
5.83656e-06
9.67868e-06
7.81062e-06
7.78776e-06
5.90281e-06
9.66181e-06
1.95338e-06
9.7046e-06
5.85749e-06
5.79933e-06
5.75675e-06
9.64761e-06
5.56679e-06
5.49073e-06
6.72307e-06
3.78207e-06
9.50065e-06
9.67248e-06
1.77812e-06
1.78893e-06
1.80847e-06
9.0258e-06
9.39296e-06
4.22202e-06
5.41676e-06
5.75589e-06
2.42246e-06
9.63562e-06
9.6732e-06
1.82307e-06
9.17014e-07
9.69237e-06
5.1693e-06
6.41348e-06
6.4948e-06
5.15353e-06
2.40149e-06
1.27056e-06
1.31968e-06
1.32685e-06
1.34194e-06
9.68786e-06
7.31424e-06
1.56095e-06
6.36332e-06
6.04403e-06
1.21194e-06
1.6984e-06
9.55005e-06
1.62444e-06
1.61497e-06
1.64243e-06
9.69409e-06
7.83424e-06
2.32952e-06
2.26786e-06
2.28248e-06
2.30685e-06
1.67798e-06
5.55909e-06
4.18936e-06
4.14661e-06
4.11783e-06
7.36927e-06
5.94903e-06
7.7362e-06
6.67221e-06
9.42292e-06
2.65423e-06
7.39597e-06
5.99219e-06
7.50588e-06
5.8554e-06
1.68834e-06
1.2618e-06
4.48518e-06
6.18336e-06
9.63131e-06
9.65919e-06
9.69719e-06
9.55382e-06
1.64934e-06
8.44568e-06
7.14723e-06
9.31997e-06
9.31596e-06
1.18868e-06
1.19502e-06
1.2087e-06
1.14317e-06
9.68821e-06
6.69629e-06
7.62194e-06
5.90032e-06
5.80082e-07
2.15488e-06
1.7888e-06
6.97867e-06
9.47165e-06
1.57314e-06
6.1932e-06
7.26012e-06
7.1524e-06
9.65269e-06
3.18661e-06
9.24666e-06
9.28551e-06
7.30329e-06
9.38067e-06
1.38898e-06
1.34967e-06
9.70326e-06
2.02592e-06
6.84515e-06
6.72741e-06
1.91527e-06
1.97393e-06
1.98624e-06
2.00774e-06
9.36729e-06
9.42737e-06
1.66375e-06
9.47931e-06
3.15418e-06
3.10051e-06
3.12156e-06
2.35373e-06
1.38554e-06
2.32626e-06
9.64073e-06
6.10631e-06
9.18095e-06
1.36823e-06
7.96447e-06
1.36045e-06
9.68928e-06
6.52808e-06
1.50912e-06
6.82508e-06
6.70792e-06
6.74632e-06
1.8317e-06
8.85917e-06
9.26097e-06
1.89924e-06
6.06626e-06
1.24892e-06
6.64515e-06
9.28117e-06
7.34864e-06
9.49404e-06
9.25125e-06
8.67227e-06
9.28053e-06
4.38641e-06
9.67429e-06
9.46966e-06
3.59396e-06
3.55703e-06
3.5327e-06
1.84001e-06
6.46808e-06
9.60375e-06
9.70197e-06
5.77986e-06
9.42903e-06
8.55784e-06
9.70733e-06
9.22163e-06
9.24183e-06
7.94744e-06
7.05049e-06
6.40121e-06
9.2021e-06
8.64693e-06
6.21919e-06
6.28588e-06
6.17809e-06
9.61195e-06
6.60734e-06
1.72198e-06
9.61676e-06
1.33745e-06
7.47785e-06
6.20505e-06
6.35373e-06
9.66144e-06
4.78425e-06
4.73559e-06
4.70245e-06
6.2581e-06
8.20939e-07
7.25712e-06
7.13979e-06
2.02601e-06
6.05604e-06
6.27619e-06
9.68464e-06
9.45566e-06
9.29732e-06
9.00678e-06
9.51235e-06
7.0295e-07
9.22511e-06
4.84445e-06
9.64273e-06
6.40576e-06
6.51792e-06
9.39394e-06
6.75511e-06
8.61794e-06
9.70183e-06
7.27903e-06
9.67727e-06
9.42569e-06
9.61766e-06
1.08528e-06
6.75907e-06
7.92983e-06
9.56222e-06
9.60066e-06
5.61142e-06
5.32047e-06
7.42216e-06
9.65108e-06
6.43054e-06
5.24874e-06
5.19581e-06
5.15883e-06
8.97719e-06
1.19779e-06
1.1779e-06
1.18427e-06
1.13359e-06
9.66667e-06
5.69482e-06
9.7044e-06
9.25989e-06
5.87372e-06
9.02109e-06
1.07745e-06
9.03943e-06
1.06478e-06
1.80843e-06
1.03877e-06
9.41195e-06
6.35543e-06
6.42802e-06
6.3177e-06
9.42703e-06
8.25876e-06
8.98466e-06
9.65313e-06
9.68217e-06
8.64089e-06
9.4838e-06
8.95891e-06
6.14604e-06
1.8531e-06
9.03851e-06
9.65611e-06
9.15202e-06
7.1805e-06
7.06288e-06
9.28569e-06
9.56898e-06
9.03025e-06
9.69594e-06
2.86998e-06
9.68928e-06
9.11558e-06
3.17253e-06
9.12677e-06
9.68966e-06
6.84605e-06
7.16932e-06
6.50812e-06
6.39628e-06
6.43256e-06
9.5203e-06
7.50578e-06
9.36899e-06
6.95757e-06
6.83991e-07
9.67057e-06
1.23574e-06
1.24216e-06
1.25647e-06
1.18731e-06
1.59613e-06
6.94201e-06
8.94127e-06
1.56413e-06
9.69325e-06
6.4143e-06
9.2724e-06
9.66755e-06
6.36041e-06
7.42559e-07
7.75361e-07
7.79184e-07
7.88385e-07
6.97478e-06
6.85621e-06
7.76792e-06
7.20494e-06
6.95428e-06
9.3792e-07
9.68185e-06
9.70467e-06
9.67367e-06