/*--------------------------------*- C++ -*----------------------------------*\
  =========                 |
  \\      /  F ield         | OpenFOAM: The Open Source CFD Toolbox
   \\    /   O peration     | Website:  https://openfoam.org
    \\  /    A nd           | Version:  8
     \\/     M anipulation  |
\*---------------------------------------------------------------------------*/
FoamFile
{
    version     2.0;
    format      ascii;
    class       volScalarField;
    location    "8.8";
    object      p;
}
// * * * * * * * * * * * * * * * * * * * * * * * * * * * * * * * * * * * * * //

dimensions      [0 2 -2 0 0 0 0];

internalField   nonuniform List<scalar> 
1642
(
8.0372e-05
6.67195e-05
6.57786e-05
6.97037e-05
8.0405e-05
8.03552e-05
8.01842e-05
8.02333e-05
8.00902e-05
8.02846e-05
7.17649e-05
7.96383e-05
8.03134e-05
8.02506e-05
8.02231e-05
7.97312e-05
8.03337e-05
8.03605e-05
8.03904e-05
8.03836e-05
8.0303e-05
8.01621e-05
8.02786e-05
7.9567e-05
8.0324e-05
8.01501e-05
8.03704e-05
7.75284e-05
1.58815e-06
1.4492e-06
1.40155e-06
8.03385e-05
7.85156e-05
8.03689e-05
8.03494e-05
8.02175e-05
7.95652e-05
8.03667e-05
8.02827e-05
8.02455e-05
8.03548e-05
8.03898e-05
8.0386e-05
6.01072e-05
8.29098e-05
8.03322e-05
8.03781e-05
8.03762e-05
8.03818e-05
8.02813e-05
8.0391e-05
8.0357e-05
8.03755e-05
6.98184e-05
7.07646e-05
8.01861e-05
8.0145e-05
8.03569e-05
7.9458e-05
8.04846e-05
8.03545e-05
8.03512e-05
8.03843e-05
7.98852e-05
8.02306e-05
8.03837e-05
8.03779e-05
8.03843e-05
8.01817e-05
8.03934e-05
8.03999e-05
8.03284e-05
8.04017e-05
8.04239e-05
8.02796e-05
7.98965e-05
5.27368e-07
5.7407e-07
6.12927e-07
8.03384e-05
8.03819e-05
8.03828e-05
7.93732e-05
8.02584e-05
8.16828e-05
7.99615e-05
8.01072e-05
8.03143e-05
8.00669e-05
8.03624e-05
8.02946e-05
8.03008e-05
8.00315e-05
8.01696e-05
8.0236e-05
8.02821e-05
8.03132e-05
8.02674e-05
8.02862e-05
8.01246e-05
8.01476e-05
7.97739e-05
8.03436e-05
2.5801e-05
2.72134e-05
2.93507e-05
2.93375e-05
3.60713e-05
2.2625e-05
1.98557e-05
3.68018e-05
2.23595e-05
3.60446e-05
8.73177e-06
9.05649e-06
6.56111e-06
6.27177e-06
3.62128e-06
4.78309e-05
5.24437e-05
6.3314e-06
4.8682e-05
4.71968e-05
7.99363e-05
8.02378e-05
8.04317e-05
8.03306e-05
8.0371e-05
8.0302e-05
8.02764e-05
8.04172e-05
8.03163e-05
8.03599e-05
8.11373e-05
8.03796e-05
8.03826e-05
8.03128e-05
8.03981e-05
8.0331e-05
7.94526e-05
8.02878e-05
8.0385e-05
8.03822e-05
8.04078e-05
8.02233e-05
8.03541e-05
8.03912e-05
8.0387e-05
8.03402e-05
8.03179e-05
8.03526e-05
8.03703e-05
8.03771e-05
8.0354e-05
7.98206e-05
8.03856e-05
8.03951e-05
8.03902e-05
8.0352e-05
8.03307e-05
8.03881e-05
8.03843e-05
8.03511e-05
8.02042e-05
8.03718e-05
8.03747e-05
8.03965e-05
8.03747e-05
8.03645e-05
8.01972e-05
8.02731e-05
8.03695e-05
8.0391e-05
8.03828e-05
8.03453e-05
8.03738e-05
8.02894e-05
8.03332e-05
8.03426e-05
8.15557e-05
8.00999e-05
8.03865e-05
7.97753e-05
8.03915e-05
8.03867e-05
8.02884e-05
8.0384e-05
8.03801e-05
8.02769e-05
8.01756e-05
8.0187e-05
8.03802e-05
8.03834e-05
8.02986e-05
8.04316e-05
8.02765e-05
7.99276e-05
8.03786e-05
8.02167e-05
8.03323e-05
8.03817e-05
8.03891e-05
8.00095e-05
8.02133e-05
8.01547e-05
8.03842e-05
8.03436e-05
2.75082e-05
2.36397e-05
2.18766e-05
2.21748e-05
2.38103e-05
2.8171e-05
2.89886e-05
2.45286e-05
3.81045e-05
2.81e-05
3.89291e-05
2.27048e-05
2.65413e-05
3.15744e-05
2.13182e-05
3.32061e-05
1.47355e-05
2.99445e-05
2.18596e-05
2.271e-05
4.63068e-05
2.45873e-05
2.10076e-05
3.96211e-05
2.87908e-05
3.22541e-05
2.29564e-05
3.0621e-05
2.57217e-05
2.71288e-05
3.38844e-05
4.21819e-05
1.93866e-05
4.70689e-05
2.97546e-05
4.05846e-05
4.87956e-05
1.9708e-05
6.97104e-06
4.12359e-05
4.80829e-05
4.88398e-05
6.67881e-06
6.64436e-06
3.48269e-05
5.05519e-05
4.7857e-05
1.07389e-05
1.02599e-05
1.29445e-05
4.57442e-05
3.11974e-05
1.10914e-05
4.54052e-05
4.35471e-05
4.4362e-05
6.9345e-06
4.8101e-05
4.26567e-05
2.0975e-05
3.30648e-05
5.05297e-05
3.89568e-05
4.27146e-05
9.91974e-06
1.29355e-05
4.18768e-05
4.4917e-05
5.46816e-05
4.06502e-05
3.63622e-05
3.56363e-05
3.70823e-05
2.05046e-05
1.18877e-05
3.63366e-05
5.34687e-05
5.10395e-06
1.44021e-05
3.04479e-05
4.71412e-05
1.43724e-05
3.37147e-05
1.3999e-05
1.91765e-05
3.83107e-05
1.80716e-05
1.15224e-05
3.2099e-05
5.05836e-06
5.62333e-05
6.02211e-05
3.47e-05
1.02931e-05
7.44859e-06
9.42431e-06
1.64916e-05
7.75158e-06
3.03186e-05
1.46643e-06
1.91559e-05
8.26381e-06
9.09623e-06
8.5787e-06
2.01774e-05
4.46332e-05
5.23521e-05
3.88138e-05
1.39684e-05
1.73718e-05
1.02671e-05
2.27491e-05
3.56925e-06
5.94117e-05
2.3774e-05
3.02711e-06
2.98104e-05
5.06407e-05
5.7523e-05
2.96198e-05
4.71144e-05
1.29041e-06
3.56234e-05
4.04391e-05
4.34952e-05
7.65571e-06
1.27311e-05
2.91299e-05
1.31746e-05
9.38688e-06
7.61987e-06
2.53829e-05
2.00502e-05
1.82918e-05
2.60196e-05
5.1471e-05
2.76387e-05
1.23542e-05
5.23732e-05
5.60204e-05
5.48012e-05
1.88717e-05
1.23466e-05
3.79403e-05
4.69545e-05
9.40469e-06
5.77305e-05
1.35645e-05
2.86028e-06
1.27239e-05
3.08282e-06
5.78127e-05
1.77224e-05
2.62728e-05
2.43289e-05
2.29909e-05
2.51791e-05
2.43445e-05
1.85131e-05
2.71868e-05
3.71555e-05
2.62906e-05
5.77533e-05
1.69641e-06
3.54984e-05
3.55281e-05
1.60493e-05
2.34954e-05
5.16451e-05
3.4737e-05
4.40076e-05
4.43795e-05
3.98639e-05
3.63839e-05
3.81581e-05
1.4708e-05
2.5156e-05
1.6881e-05
1.56188e-05
2.66936e-05
5.88387e-06
2.83209e-05
2.46343e-05
3.79734e-05
5.13314e-05
2.71542e-05
6.16075e-06
4.72922e-05
3.77965e-06
5.47766e-05
1.96879e-05
3.14064e-05
1.64353e-05
4.77976e-05
3.29728e-05
3.92058e-05
6.78624e-06
4.29476e-06
1.20443e-05
5.88596e-06
3.14383e-05
4.27737e-05
1.56117e-05
3.37502e-05
3.87988e-05
4.52518e-05
1.65005e-05
4.86405e-05
4.79962e-05
4.66184e-05
5.85109e-06
5.03765e-05
2.89261e-05
6.12887e-06
3.19464e-05
9.40045e-06
5.92759e-06
1.38385e-05
3.54706e-06
3.23899e-05
1.20654e-05
3.38838e-05
2.18215e-05
4.00975e-05
4.17427e-05
4.07963e-05
1.68633e-05
1.64238e-05
3.65171e-05
4.90763e-05
3.46086e-05
4.55673e-05
2.35991e-05
3.54041e-05
4.92049e-05
3.30702e-05
2.09319e-05
1.38204e-05
1.76891e-05
1.1545e-05
1.93496e-05
4.54156e-05
1.19096e-05
3.07563e-05
5.35075e-05
3.72057e-05
3.72691e-05
3.5517e-05
4.33834e-05
3.45052e-06
1.60382e-05
4.50723e-05
1.73972e-05
3.12747e-05
2.81352e-06
3.20789e-05
4.94918e-05
4.36208e-05
4.86517e-05
5.2179e-05
3.40169e-05
4.45364e-05
3.29209e-05
5.4372e-05
4.60292e-05
5.80379e-05
4.17291e-05
5.24437e-05
4.61083e-05
4.26142e-05
8.49928e-06
4.21053e-06
2.21393e-05
2.98055e-05
3.64527e-05
1.11544e-05
2.22895e-06
2.18374e-05
2.05333e-05
1.6824e-05
8.58769e-06
2.54075e-05
4.99959e-05
2.74971e-05
3.97211e-05
4.15655e-05
1.80557e-05
4.47797e-05
3.28329e-05
4.32867e-05
2.59841e-05
3.47007e-05
6.36045e-05
2.42003e-06
3.97533e-05
4.40817e-05
4.54675e-06
6.1388e-05
3.06997e-05
4.42847e-05
1.52039e-05
1.47884e-05
2.78392e-05
4.70434e-05
3.45791e-05
3.62343e-05
1.02295e-05
4.96519e-05
1.724e-05
2.8038e-05
2.35239e-05
1.26513e-05
5.01931e-05
2.02131e-05
1.35459e-05
1.31549e-05
5.35187e-05
5.15916e-05
5.6037e-05
2.36756e-06
2.39423e-05
4.09853e-05
8.27117e-06
2.67419e-06
4.19943e-05
4.08367e-05
3.90518e-05
6.27217e-05
5.36362e-06
3.99424e-05
2.4085e-05
4.55915e-06
4.53095e-05
1.8567e-05
2.46402e-05
4.62762e-05
6.7479e-06
2.17528e-06
2.62106e-05
9.07248e-06
5.46301e-05
2.44905e-05
4.2441e-05
4.29182e-05
9.88887e-06
2.75267e-06
2.00676e-05
5.41291e-05
4.60961e-05
2.8463e-05
1.48112e-05
2.86554e-05
3.80528e-06
1.50954e-05
4.3065e-05
2.54675e-05
4.13989e-05
2.80871e-05
1.07035e-05
8.52611e-06
5.32144e-06
1.18345e-05
2.79613e-05
3.74158e-05
2.7024e-05
4.96814e-05
3.17713e-05
2.83864e-05
1.30323e-05
4.95225e-05
4.3658e-05
1.72554e-05
4.64291e-05
2.53969e-05
2.62988e-05
2.89223e-05
1.88917e-05
3.22409e-05
3.05805e-05
2.94734e-05
3.01642e-05
2.73577e-05
3.80729e-05
2.92737e-05
2.49036e-05
4.78651e-05
2.57206e-05
7.47782e-06
2.681e-05
3.84344e-05
5.03841e-06
1.05442e-05
1.10569e-05
7.7835e-06
3.38541e-05
2.38102e-05
1.59109e-05
2.13662e-05
3.51021e-05
2.66099e-05
3.72781e-05
4.83503e-05
4.31673e-06
1.82606e-05
3.34366e-05
4.6443e-05
1.11843e-05
3.42664e-05
1.86039e-05
4.37337e-06
1.52262e-05
3.42685e-05
1.14868e-05
2.2664e-05
1.77128e-05
1.01989e-05
4.69019e-05
1.67282e-05
4.58724e-05
4.70971e-05
2.48316e-05
3.86944e-05
4.63985e-06
4.87819e-05
3.02937e-05
1.38605e-05
4.26655e-05
1.55169e-05
3.95833e-05
4.10195e-05
2.10499e-05
1.32673e-05
4.13584e-05
1.91849e-05
1.71757e-05
1.75481e-05
1.80065e-05
2.63674e-06
2.88391e-06
4.00539e-05
3.91884e-05
1.80338e-06
3.92421e-05
1.34667e-05
3.26061e-05
1.22034e-05
1.63463e-05
1.42818e-05
1.46894e-05
4.0063e-05
4.31364e-05
4.17539e-05
4.20488e-05
4.81073e-05
3.52064e-05
3.51552e-05
3.59303e-05
1.13743e-05
4.77909e-05
5.08576e-06
2.00006e-05
4.71815e-05
2.08154e-05
4.22464e-05
5.5468e-05
2.03834e-05
1.1017e-05
1.83665e-05
4.61648e-05
3.43932e-05
4.04719e-05
5.04437e-05
2.03621e-06
3.35732e-05
3.11147e-05
3.27537e-05
5.17809e-05
3.41268e-06
4.08837e-05
3.19344e-05
3.10546e-05
5.11301e-05
4.87571e-05
1.55991e-05
4.7397e-05
4.49447e-05
1.23762e-05
4.39746e-05
1.56169e-05
4.53084e-05
3.51197e-06
3.76936e-06
4.4033e-05
4.68205e-05
1.05959e-05
1.94926e-05
1.41562e-05
1.5934e-05
1.50463e-05
4.26037e-06
4.77944e-05
8.03887e-05
8.0376e-05
8.03812e-05
8.04117e-05
8.02455e-05
8.03885e-05
8.02458e-05
8.03732e-05
8.03533e-05
8.03866e-05
8.03489e-05
3.02349e-05
2.84758e-05
2.7418e-05
2.3982e-05
2.58989e-05
2.63938e-05
2.66066e-05
2.58141e-05
2.3899e-05
3.21669e-05
3.42925e-05
3.13128e-05
3.51807e-05
2.49281e-05
2.98782e-05
3.38361e-05
3.82237e-05
3.30031e-05
2.90559e-05
2.82391e-05
3.46657e-05
3.15124e-05
1.69167e-05
2.04697e-05
1.6819e-05
1.84578e-05
1.80894e-05
1.78085e-05
1.72641e-05
2.08997e-05
3.07e-05
2.00881e-05
1.95831e-05
1.9274e-05
1.76374e-05
2.49919e-05
1.86983e-05
1.64313e-05
3.5231e-05
3.91236e-05
3.8832e-05
1.51752e-05
4.00191e-05
1.59968e-05
4.09143e-05
3.23282e-05
3.84932e-05
1.56006e-05
3.44222e-05
1.3937e-05
1.35406e-05
4.17968e-05
4.35786e-05
1.51397e-05
1.47675e-05
1.43572e-05
4.53658e-05
4.26878e-05
1.60254e-05
1.27262e-05
3.97234e-05
1.31101e-05
4.25087e-05
4.06268e-05
1.15776e-05
3.88487e-05
4.4471e-05
4.15678e-05
4.62688e-05
1.3358e-05
1.22786e-05
1.19084e-05
4.71642e-05
4.3422e-05
1.10963e-05
1.14551e-05
1.06884e-05
4.21061e-05
4.62526e-05
4.8933e-05
4.43414e-05
4.0478e-05
1.24695e-05
3.96675e-05
4.52716e-05
4.53264e-05
4.12952e-05
4.77087e-05
5.10933e-05
4.80562e-05
1.42508e-05
4.7759e-05
4.59959e-05
4.81521e-06
5.17588e-05
4.56228e-06
3.26706e-06
4.01889e-06
3.77987e-06
4.69139e-05
3.04179e-06
2.38945e-06
5.54326e-05
2.59372e-06
5.67027e-05
5.01578e-05
7.98279e-05
7.93116e-05
8.03893e-05
8.03837e-05
8.0342e-05
8.0399e-05
8.03746e-05
7.98096e-05
3.33755e-05
3.04675e-05
3.78099e-05
2.13254e-05
2.16265e-05
1.88341e-05
3.76342e-05
2.12719e-05
3.83678e-05
7.7285e-06
8.03771e-06
4.56609e-05
5.62927e-06
5.35706e-06
7.91091e-06
5.35878e-06
5.38734e-05
2.37574e-06
4.84208e-05
4.79818e-05
4.89535e-05
8.03773e-05
3.34003e-05
3.01674e-05
3.78564e-05
1.81872e-05
2.06842e-05
2.09908e-05
3.76704e-05
2.05754e-05
3.84351e-05
7.09804e-06
7.39857e-06
4.5547e-05
5.72323e-06
5.40765e-05
5.44686e-06
7.2247e-06
4.82837e-05
5.43496e-06
4.85138e-05
4.96994e-05
8.03882e-05
8.04057e-05
8.0363e-05
8.03734e-05
8.03694e-05
8.03921e-05
8.03087e-05
8.02843e-05
8.0391e-05
8.03929e-05
8.03061e-05
8.03493e-05
8.03498e-05
8.03871e-05
8.03791e-05
8.02597e-05
8.03884e-05
8.00899e-05
8.00529e-05
8.03902e-05
8.04224e-05
8.03857e-05
8.03853e-05
7.97876e-05
7.93172e-05
8.01638e-05
8.02764e-05
8.02204e-05
8.03903e-05
8.02178e-05
8.03618e-05
8.03192e-05
7.98931e-05
8.02641e-05
8.09068e-05
8.03312e-05
8.03882e-05
8.0366e-05
8.03676e-05
8.03765e-05
8.03404e-05
8.03829e-05
8.01377e-05
8.03175e-05
7.89135e-05
8.03647e-05
8.03654e-05
8.03207e-05
8.03767e-05
8.0308e-05
8.03894e-05
8.03912e-05
8.04057e-05
8.02432e-05
8.03105e-05
8.03026e-05
8.03363e-05
8.03348e-05
8.01583e-05
8.03529e-05
8.03988e-05
8.03325e-05
8.02916e-05
8.0275e-05
8.04067e-05
8.03811e-05
4.76745e-05
5.31557e-05
4.46653e-05
3.75585e-05
3.68195e-05
3.69173e-05
3.2482e-05
2.06693e-06
8.02643e-05
8.0255e-05
8.02318e-05
8.02004e-05
8.0344e-05
8.03793e-05
8.03289e-05
3.09412e-05
8.03429e-05
6.17202e-06
6.45801e-06
2.54572e-05
4.82676e-05
5.05426e-05
6.23201e-06
5.31439e-05
4.87299e-05
7.01198e-06
4.23868e-06
3.67502e-06
4.80464e-05
7.20244e-06
6.9043e-06
4.81686e-05
9.37943e-06
9.7052e-06
9.71286e-06
8.64322e-06
8.9635e-06
2.72811e-05
3.71193e-05
3.64301e-05
3.63777e-05
2.04993e-05
1.97534e-05
2.58857e-05
2.30558e-05
2.89788e-05
2.94403e-05
2.22548e-05
2.6852e-05
2.29832e-05
2.96544e-05
2.32671e-05
2.25379e-05
8.02234e-05
8.02248e-05
8.02784e-05
8.03962e-05
8.01957e-05
8.02622e-05
8.0383e-05
7.88846e-05
7.91596e-05
2.18114e-05
2.14714e-05
2.15119e-05
3.25275e-05
1.90251e-05
3.69662e-05
8.12304e-06
3.09855e-05
3.68611e-05
4.52165e-06
8.23064e-06
3.7619e-05
4.79417e-05
2.75924e-06
7.9174e-06
4.46276e-05
5.32118e-05
4.78077e-05
4.8803e-06
4.61553e-06
4.90373e-05
8.0236e-05
8.03554e-05
8.02462e-05
8.03722e-05
8.02013e-05
8.02549e-05
8.03498e-05
3.16424e-05
2.23346e-05
4.36669e-05
9.01006e-06
8.06616e-05
7.90056e-05
8.03616e-05
8.01999e-05
8.01356e-05
8.0093e-05
8.00938e-05
8.03266e-05
8.03657e-05
8.03266e-05
8.01102e-05
8.03859e-05
7.9888e-05
8.00432e-05
8.02012e-05
8.03707e-05
8.00611e-05
8.03799e-05
8.03926e-05
8.03816e-05
8.02055e-05
8.04054e-05
8.03768e-05
8.03592e-05
8.03309e-05
8.02319e-05
8.03717e-05
8.03865e-05
8.0169e-05
8.03734e-05
8.03247e-05
8.02763e-05
8.03755e-05
8.03704e-05
8.0333e-05
8.0224e-05
8.04089e-05
2.16204e-06
1.74849e-06
1.89907e-06
9.79595e-06
4.29318e-05
2.30751e-05
3.11201e-05
5.13922e-05
4.68187e-05
4.97871e-05
9.88789e-06
9.55214e-06
2.32474e-05
3.59814e-05
3.3614e-05
2.34414e-05
2.85122e-05
2.67896e-05
2.48081e-05
8.02827e-05
8.0304e-05
8.01813e-05
8.02502e-05
7.99628e-05
8.02806e-05
8.03909e-05
8.03858e-05
7.99794e-05
8.03784e-05
8.02177e-05
8.02858e-05
8.02585e-05
8.03104e-05
8.00714e-05
8.02538e-05
8.02816e-05
8.02774e-05
8.02416e-05
5.42068e-05
4.87995e-05
5.1721e-06
5.17018e-05
8.00434e-06
4.9104e-05
2.93568e-06
5.22135e-06
5.49743e-06
8.12129e-06
7.8135e-06
4.45469e-05
3.71862e-05
2.13574e-05
3.79576e-05
1.89145e-05
3.73142e-05
2.14107e-05
3.28733e-05
2.17145e-05
3.01081e-05
5.31148e-05
4.89212e-05
4.95715e-05
5.5097e-05
2.15139e-06
6.99454e-06
3.19306e-06
2.38067e-06
2.94841e-06
7.29258e-06
4.73537e-05
6.09402e-06
4.77466e-05
4.75262e-05
3.77693e-06
5.24506e-05
5.14329e-05
6.06657e-06
4.7252e-05
4.81852e-05
1.16696e-05
4.03255e-06
6.35349e-06
5.22545e-05
3.28412e-06
7.11941e-06
4.49991e-06
4.61394e-05
4.62658e-05
1.07842e-05
1.25546e-05
4.87407e-05
4.55427e-05
1.78841e-05
8.80859e-06
1.34436e-05
8.875e-06
4.52342e-05
8.5533e-06
4.36387e-05
3.80192e-05
4.18273e-05
4.43038e-05
4.78152e-05
1.40321e-05
1.11844e-05
1.15442e-05
4.32264e-05
1.20002e-05
1.23722e-05
4.68712e-05
1.36332e-05
1.87768e-05
4.09716e-05
1.52234e-05
1.69984e-05
1.28168e-05
4.2177e-05
4.59287e-05
1.43329e-05
4.01389e-05
1.96756e-05
4.11595e-05
1.32018e-05
4.50035e-05
1.48579e-05
1.44465e-05
4.01871e-05
1.61121e-05
3.93154e-05
3.92783e-05
4.32049e-05
1.52609e-05
1.56829e-05
1.73485e-05
3.60126e-05
4.40983e-05
1.68894e-05
3.55785e-05
4.23109e-05
1.65128e-05
3.87501e-05
3.67473e-05
4.14202e-05
4.05327e-05
1.60736e-05
3.96427e-05
3.60358e-05
3.37817e-05
1.96657e-05
1.77052e-05
1.85235e-05
3.55576e-05
3.34792e-05
2.05851e-05
3.43138e-05
3.46843e-05
2.21632e-05
3.47701e-05
1.93449e-05
2.85617e-05
3.26477e-05
2.98659e-05
3.1818e-05
2.01678e-05
2.92844e-05
2.21523e-05
3.19853e-05
3.159e-05
3.11669e-05
2.62746e-05
2.50153e-05
2.95274e-05
3.03458e-05
2.24442e-05
2.70915e-05
2.87152e-05
2.64597e-05
2.79063e-05
2.50719e-05
8.01839e-05
8.02202e-05
8.89688e-06
4.37353e-05
2.22479e-05
3.19997e-05
8.03765e-05
8.03519e-05
8.01118e-05
8.00402e-05
7.9805e-05
8.00359e-05
8.01867e-05
8.03555e-05
8.03735e-05
8.02222e-05
7.99419e-05
8.02836e-05
8.04393e-05
8.02858e-05
8.03957e-05
8.02342e-05
8.03839e-05
2.55672e-05
2.75975e-05
2.80319e-05
4.71401e-05
3.54904e-05
5.04011e-05
4.65784e-05
3.31375e-05
2.41786e-05
1.02844e-05
1.06308e-05
2.40436e-05
5.07134e-05
7.96207e-05
8.03327e-05
8.03478e-05
8.03856e-05
8.03789e-05
8.02648e-05
8.03809e-05
8.01952e-05
6.41987e-05
8.03784e-05
8.03086e-05
7.99163e-05
8.03713e-05
8.03801e-05
8.00818e-05
8.04215e-05
8.00481e-05
7.97278e-05
9.89722e-06
4.27285e-05
2.31586e-05
3.07551e-05
4.94176e-05
4.70836e-05
4.96195e-05
4.6917e-05
9.80628e-06
9.47317e-06
3.63076e-05
3.39549e-05
2.31521e-05
2.33629e-05
2.88482e-05
2.6709e-05
2.47352e-05
8.01145e-05
8.03756e-05
8.03844e-05
7.92561e-05
8.01498e-05
5.3227e-05
4.66411e-05
4.69838e-05
5.06127e-05
1.03697e-05
1.07173e-05
3.51519e-05
3.28006e-05
2.56337e-05
2.76781e-05
2.41327e-05
2.76836e-05
2.42568e-05
7.95708e-05
8.033e-05
5.29338e-08
5.53131e-07
-3.6824e-07
-1.36098e-07
-8.71215e-09
2.62686e-07
8.03802e-05
8.03855e-05
7.989e-05
8.03857e-05
8.02395e-05
8.02558e-05
7.95504e-05
8.03801e-05
7.98791e-05
8.03912e-05
8.03892e-05
8.02913e-05
7.99952e-05
8.02864e-05
8.14765e-05
8.06147e-05
8.01362e-05
8.01947e-05
8.02977e-05
8.03812e-05
8.03828e-05
8.0393e-05
1.91856e-06
2.09203e-06
8.03537e-05
6.75234e-05
8.03742e-05
8.03517e-05
6.52159e-05
8.0375e-05
8.03592e-05
1.54595e-06
1.75672e-06
7.94533e-05
8.03835e-05
7.97232e-05
8.03823e-05
7.97018e-05
8.05368e-05
8.01101e-05
8.03834e-05
8.01369e-05
8.00125e-05
8.03006e-05
8.03837e-05
8.04089e-05
8.03301e-05
2.36434e-06
8.02464e-05
8.00484e-05
8.03695e-05
8.02481e-05
8.02763e-05
8.00494e-05
7.98803e-05
8.03696e-05
8.03892e-05
8.03862e-05
8.03554e-05
8.03753e-05
8.03605e-05
8.01805e-05
8.03806e-05
8.03576e-05
8.01276e-05
7.97875e-05
8.03573e-05
8.00785e-05
2.48101e-06
2.28796e-06
2.22608e-06
8.03549e-05
8.03283e-05
6.00541e-05
8.03956e-05
8.02473e-05
7.77425e-05
8.02961e-05
8.01309e-05
8.02245e-05
8.0388e-05
8.04036e-05
8.03705e-05
5.66123e-05
8.03916e-05
8.0084e-05
8.05804e-05
7.87271e-05
8.0383e-05
7.94581e-05
8.03927e-05
7.94788e-05
8.00628e-05
8.03758e-05
8.01719e-05
8.34935e-05
8.03863e-05
7.93573e-05
8.00001e-05
8.02011e-05
7.73311e-05
8.03485e-05
5.51784e-05
8.02886e-05
8.03859e-05
8.03041e-05
7.97768e-05
8.1178e-05
8.01672e-05
8.03868e-05
8.04728e-05
8.02894e-05
8.05156e-05
8.03697e-05
7.83326e-05
8.03155e-05
5.92253e-05
8.03896e-05
8.0378e-05
8.01827e-05
8.03695e-05
8.023e-05
8.03258e-05
6.77542e-05
7.97996e-05
4.99808e-05
8.01139e-05
6.5568e-05
7.91607e-05
7.57523e-05
8.03289e-05
8.03702e-05
8.02903e-05
8.02794e-05
7.97528e-05
8.02714e-05
1.29432e-06
1.38657e-06
1.60901e-06
8.01985e-05
8.03892e-05
8.03822e-05
8.05756e-05
8.03504e-05
5.79466e-05
8.03385e-05
8.03734e-05
8.03044e-05
7.97551e-05
7.42135e-05
6.18636e-05
8.03598e-05
7.99286e-05
7.31147e-05
8.01599e-05
8.03773e-05
8.01789e-05
8.03351e-05
8.03893e-05
8.0298e-05
7.97472e-05
8.01989e-05
8.0376e-05
8.033e-05
8.03721e-05
8.04492e-05
8.03394e-05
8.03771e-05
8.01965e-05
8.02033e-05
5.86378e-05
8.03693e-05
8.01386e-05
8.03268e-05
8.02984e-05
7.94693e-05
8.02782e-05
8.03913e-05
7.96172e-05
8.00772e-05
8.03734e-05
8.02718e-05
8.02451e-05
8.03418e-05
7.98954e-05
8.04439e-05
8.04313e-05
8.02493e-05
8.02967e-05
7.98639e-05
8.03268e-05
1.21138e-06
6.70623e-05
8.09521e-05
8.03764e-05
8.01968e-05
8.0078e-05
8.20993e-05
8.0178e-05
8.02698e-05
8.03979e-05
9.71379e-07
7.69818e-07
7.96686e-05
8.03576e-05
8.03395e-05
8.01357e-05
8.03031e-05
7.19018e-05
8.03709e-05
8.03872e-05
2.01172e-06
8.0256e-05
8.00851e-05
1.79876e-06
1.66543e-06
8.03972e-05
7.86948e-05
7.94246e-05
8.03871e-05
6.30184e-05
7.55463e-05
-1.28711e-07
-2.84e-07
2.81743e-08
7.84626e-05
8.03882e-05
8.03149e-05
6.95378e-05
7.55554e-05
6.7733e-05
6.91776e-05
7.38231e-05
8.00278e-05
8.03331e-05
5.26359e-05
7.97128e-05
8.02371e-05
8.15187e-05
8.03825e-05
7.09909e-05
7.90468e-05
6.25574e-05
7.94241e-05
8.02417e-05
1.55459e-06
1.64969e-06
8.01194e-05
7.92252e-05
7.96258e-05
5.29683e-05
5.28295e-05
8.03666e-05
1.80866e-06
7.53252e-05
7.07746e-05
8.03597e-05
8.03565e-05
7.88497e-05
8.02671e-05
7.06464e-05
8.00569e-05
7.57141e-05
5.6104e-05
5.69505e-05
1.00611e-06
9.71924e-07
1.09217e-06
7.98886e-05
8.00237e-05
6.40441e-05
6.97245e-05
6.74183e-05
6.74344e-05
4.13127e-05
4.11872e-05
7.90435e-05
7.58011e-08
3.59763e-08
5.15846e-09
-9.55256e-07
-9.76005e-07
-1.04108e-06
7.36793e-05
-1.84279e-07
-2.83957e-07
7.9705e-05
-4.26499e-07
-1.32122e-06
3.88974e-07
-1.34821e-06
3.58532e-07
-1.42897e-06
3.38098e-07
)
;

boundaryField
{
    back
    {
        type            empty;
    }
    front
    {
        type            empty;
    }
    ingreso
    {
        type            zeroGradient;
    }
    salida
    {
        type            fixedValue;
        value           uniform 0;
    }
    defaultFaces
    {
        type            zeroGradient;
    }
}


// ************************************************************************* //
