/*--------------------------------*- C++ -*----------------------------------*\
  =========                 |
  \\      /  F ield         | OpenFOAM: The Open Source CFD Toolbox
   \\    /   O peration     | Website:  https://openfoam.org
    \\  /    A nd           | Version:  8
     \\/     M anipulation  |
\*---------------------------------------------------------------------------*/
FoamFile
{
    version     2.0;
    format      ascii;
    class       surfaceScalarField;
    location    "8.8";
    object      phi;
}
// * * * * * * * * * * * * * * * * * * * * * * * * * * * * * * * * * * * * * //

dimensions      [0 3 -1 0 0 0 0];

internalField   nonuniform List<scalar> 
9107
(
4.5139e-09
-1.14153e-09
1.22217e-09
-4.59454e-09
-4.83898e-09
4.85986e-09
-2.04406e-09
2.02318e-09
-1.89848e-09
4.73141e-09
-4.40832e-09
1.57539e-09
5.31554e-09
-1.22604e-09
-5.57964e-09
1.49014e-09
-1.91588e-09
-4.43554e-09
5.42917e-09
9.22245e-10
-5.75913e-09
5.59115e-09
7.39425e-11
9.40359e-11
5.98632e-09
-4.63213e-09
3.75439e-10
-1.72962e-09
-3.3903e-09
1.93293e-09
8.61227e-09
-7.15489e-09
5.71085e-09
-5.94588e-09
1.1736e-10
1.1767e-10
4.17226e-09
-4.64308e-09
6.47931e-12
4.64338e-10
5.75922e-09
-5.53423e-09
-1.54244e-10
-7.07412e-11
-5.78113e-09
5.62812e-09
8.53087e-11
6.77014e-11
-5.35502e-09
4.11631e-09
1.31793e-09
-7.92197e-11
5.89447e-09
-5.80462e-09
-7.15969e-10
6.26126e-10
-7.58949e-09
6.68846e-10
1.66085e-09
5.25979e-09
3.54437e-09
3.12695e-09
-3.65347e-09
-3.01785e-09
6.71656e-09
-8.58206e-09
-5.55931e-10
2.42144e-09
-6.50611e-09
7.35184e-09
-9.5168e-10
1.05945e-10
6.23959e-09
-5.8853e-09
1.44056e-10
-4.98349e-10
2.19719e-09
-1.85783e-09
-2.54425e-09
2.2049e-09
-4.78452e-09
-8.30025e-10
2.76618e-10
5.33793e-09
5.5844e-09
-5.73324e-09
4.228e-11
1.06561e-10
-5.16718e-09
-2.38173e-09
1.6904e-09
5.85852e-09
5.36491e-09
-9.93952e-10
-4.64522e-09
2.74259e-10
1.03545e-09
-5.74025e-09
-4.18177e-10
5.12298e-09
4.2806e-09
-1.90531e-09
-4.11394e-09
1.73865e-09
-6.23161e-09
-2.1505e-09
7.92626e-10
3.70659e-09
-3.54015e-09
2.85313e-09
-3.01957e-09
-2.58716e-09
-3.2657e-09
3.39116e-09
2.46169e-09
1.59757e-09
4.60332e-09
-4.41672e-10
-4.82052e-09
5.66878e-09
-1.02315e-09
1.74888e-10
-1.83248e-09
-4.11884e-09
5.05693e-09
8.94388e-10
-4.89327e-09
3.2893e-09
-4.79681e-11
1.65193e-09
4.31975e-09
-4.86974e-09
4.54973e-10
9.50167e-11
5.43855e-09
-1.51323e-09
2.17949e-09
-6.10481e-09
1.58148e-09
2.75926e-09
-4.34074e-09
6.03048e-09
-7.86023e-11
-5.40887e-09
-5.43012e-10
-6.67838e-09
5.94187e-09
5.09743e-10
2.26765e-10
5.17024e-09
-9.11707e-10
-4.51181e-09
2.53284e-10
-1.46347e-08
-2.62788e-09
7.28164e-09
9.98095e-09
-1.43196e-08
3.91264e-10
-1.10583e-10
1.40389e-08
-2.37864e-09
2.79731e-09
3.12425e-09
-3.54293e-09
6.62309e-09
-1.17286e-10
-2.66213e-10
3.47029e-09
-3.9304e-09
-3.04637e-09
3.50648e-09
2.57729e-09
-3.36773e-09
3.56569e-09
-2.77525e-09
1.052e-09
-5.46458e-09
-7.54604e-10
-3.51023e-09
3.78474e-09
-2.94836e-09
2.67386e-09
-4.9641e-09
4.62969e-09
4.37289e-11
2.90684e-10
-1.40331e-09
5.95692e-10
-5.31375e-09
6.12136e-09
3.78189e-09
-3.6672e-09
-3.08624e-09
2.97155e-09
-4.76856e-09
-4.50639e-10
-1.45068e-09
6.66988e-09
-6.58428e-10
1.05345e-11
1.24479e-10
1.03287e-09
2.7228e-10
8.35499e-11
3.45377e-09
-3.26978e-09
-1.01933e-08
1.00093e-08
-2.92835e-10
-7.11617e-11
-1.88543e-09
2.79995e-09
1.18509e-09
-2.09962e-09
-8.06739e-09
5.8628e-09
-7.3612e-10
2.94071e-09
7.47341e-09
-2.15122e-09
1.20281e-10
-5.44248e-09
-2.071e-09
-2.22899e-09
1.84295e-09
2.45704e-09
1.20332e-10
-7.98933e-11
-6.87771e-10
1.07925e-09
-5.05224e-10
1.42302e-10
-3.8811e-11
4.01733e-10
-3.43355e-09
-3.32958e-09
3.13312e-09
3.63002e-09
-3.41118e-09
2.82907e-09
-2.93268e-09
3.51478e-09
-4.96328e-09
5.28049e-09
-4.7193e-10
1.54719e-10
4.95901e-10
7.66431e-10
5.88255e-09
-5.29918e-10
1.36392e-09
4.61554e-09
2.60242e-10
5.62763e-10
-1.20216e-08
-7.92114e-10
-1.50596e-09
-9.51638e-11
-7.95629e-11
3.98473e-09
-3.7515e-09
-2.11283e-10
-2.19498e-11
2.44803e-09
2.26812e-09
-1.75373e-09
-2.96242e-09
-2.70629e-09
-3.37478e-09
2.94308e-09
3.13799e-09
-2.62466e-09
3.66662e-09
-3.3287e-09
2.28674e-09
6.87138e-09
3.00642e-09
-5.33661e-09
-4.54119e-09
5.02693e-10
-4.87639e-09
-5.904e-10
-4.97187e-09
4.01045e-09
-3.78102e-10
1.33952e-09
-5.16968e-09
-5.32667e-09
5.22028e-09
5.27607e-09
-7.48722e-11
-1.15107e-10
2.39645e-09
-1.81495e-09
1.86653e-09
4.61474e-09
-7.47635e-10
3.22164e-10
-4.18927e-09
-3.39664e-09
-1.91817e-09
7.27407e-10
4.58741e-09
2.01588e-09
-4.70649e-09
-8.56428e-10
3.54704e-09
-2.01884e-09
2.6122e-09
-9.74113e-09
9.14777e-09
3.11634e-09
-3.31575e-09
4.23632e-09
-4.03691e-09
-3.82295e-09
3.95472e-09
2.83134e-09
-2.96311e-09
1.18089e-10
5.64191e-09
-4.44456e-10
-4.66301e-09
-2.94975e-10
-5.29083e-12
-5.20201e-09
4.39479e-09
-3.17828e-09
3.9855e-09
-3.55382e-09
-1.28193e-09
1.21366e-09
3.62209e-09
-3.6141e-10
-1.73912e-09
6.63351e-09
-4.53298e-09
-3.10224e-09
-4.01459e-09
4.0081e-09
3.10874e-09
3.07591e-09
-3.16112e-09
-3.66146e-09
3.74667e-09
-3.48685e-09
3.20426e-09
-4.2637e-09
4.54629e-09
-3.1866e-09
2.74261e-09
3.39327e-09
-2.94928e-09
7.4194e-10
-4.12651e-09
-1.69254e-10
-3.78991e-09
3.84632e-09
2.90107e-09
-2.95747e-09
-2.34281e-09
-5.00985e-09
5.31458e-09
2.03808e-09
3.72763e-09
3.63877e-09
-3.38421e-09
-3.98219e-09
-3.07614e-09
-3.76875e-09
3.7856e-09
3.05929e-09
1.32216e-08
2.6706e-09
-1.72394e-08
1.34723e-09
2.98936e-09
-3.07679e-09
-3.96469e-09
4.05213e-09
5.07949e-09
3.68899e-11
-3.3501e-10
-4.78137e-09
2.53892e-09
-2.84528e-09
-3.51167e-09
3.81802e-09
1.99475e-09
-4.76767e-09
-1.64981e-09
4.42273e-09
3.35654e-09
-3.18312e-09
2.83315e-09
-3.00657e-09
5.50314e-09
-6.31667e-10
2.08015e-10
3.66324e-09
-4.97183e-09
-4.86342e-09
6.17202e-09
2.01262e-09
-1.45321e-09
1.04382e-09
-1.60324e-09
3.05039e-09
-2.74862e-09
2.68759e-09
-3.01548e-09
-2.80993e-09
2.74862e-09
3.49887e-09
-3.33e-09
-4.11781e-09
3.94895e-09
-4.81571e-09
4.14978e-09
6.56265e-11
6.00296e-10
3.09605e-09
-2.4098e-09
-3.49909e-09
2.81284e-09
-2.49311e-09
-3.37059e-09
2.58459e-09
3.27911e-09
-1.68628e-09
3.51292e-09
3.05612e-09
-2.36973e-09
-3.44013e-09
2.75373e-09
2.81139e-09
-2.79681e-09
2.52718e-09
-2.54177e-09
-2.46838e-09
-2.45421e-09
2.07431e-09
2.84828e-09
4.09459e-09
-4.01576e-09
-3.09431e-09
7.22257e-10
2.12687e-09
-2.84912e-09
9.39132e-10
6.68821e-09
-4.88754e-09
-2.7398e-09
4.94977e-09
-1.23667e-09
1.98278e-09
-5.69588e-09
2.32992e-09
-2.49117e-09
2.58618e-09
-2.42493e-09
-5.18191e-10
9.32716e-11
-8.03048e-11
2.81176e-09
-2.86165e-09
-3.80437e-09
3.85426e-09
-3.23638e-09
3.12028e-09
4.26304e-09
-4.14694e-09
2.81474e-09
-2.62614e-09
2.07952e-09
-5.73804e-09
1.38033e-09
-4.04211e-10
4.76192e-09
3.37113e-09
4.57431e-09
-4.47033e-09
-3.47511e-09
-5.2681e-09
-1.12054e-09
4.98534e-09
4.47706e-10
2.39729e-10
2.805e-09
6.16514e-09
-7.43992e-09
-1.53022e-09
3.51517e-09
-3.27808e-09
3.04465e-09
-3.28174e-09
4.86539e-09
-5.51834e-09
-3.51908e-09
4.17203e-09
-1.11142e-08
7.35722e-09
-1.19088e-08
1.56658e-08
-4.59549e-09
4.93124e-09
2.59939e-10
2.93393e-09
-3.0435e-09
2.7255e-09
-2.61593e-09
5.77803e-09
1.28687e-09
-2.68064e-10
-6.79684e-09
6.33632e-10
2.82574e-09
-3.72386e-09
2.6449e-10
3.73947e-09
-9.46376e-10
-3.10621e-09
3.13118e-10
-1.90581e-09
2.34298e-09
-1.50719e-08
2.76953e-09
-2.98353e-09
2.72421e-09
-2.51021e-09
2.28416e-09
-2.33876e-09
9.45985e-10
-8.91385e-10
5.60295e-09
-5.38434e-09
5.31513e-10
-7.50119e-10
4.68769e-09
4.5076e-09
-3.5544e-09
-5.6409e-09
-4.82476e-09
1.30309e-09
5.53755e-09
4.122e-09
-6.60125e-10
2.77597e-10
2.41897e-09
6.36687e-09
-2.17175e-09
-6.61409e-09
3.99517e-09
-4.61355e-09
1.0924e-09
-4.74017e-10
4.71036e-09
9.55848e-09
-4.16071e-09
-1.01081e-08
6.43846e-09
-5.62659e-09
6.22285e-11
-8.741e-10
-2.80576e-09
3.89052e-09
3.34037e-09
-4.42513e-09
-7.4551e-10
4.57585e-09
-3.97593e-09
1.45596e-10
5.49546e-09
-7.64053e-11
-5.62561e-09
2.06563e-10
1.39164e-09
-4.23273e-09
-4.93484e-10
3.33457e-09
2.12619e-09
-7.63722e-10
5.50891e-09
-3.11002e-09
2.71998e-09
-2.6861e-09
3.09289e-09
2.6861e-09
-2.70308e-09
6.82605e-10
5.1294e-09
-6.30857e-10
-5.18115e-09
-2.00917e-09
9.55344e-10
-2.00952e-09
3.06334e-09
-2.73645e-09
3.75418e-09
3.3501e-09
-4.36782e-09
-4.1975e-09
4.67272e-09
1.50954e-10
-6.26176e-10
4.2795e-09
3.43587e-10
3.26687e-10
3.64362e-09
-3.8144e-09
5.13008e-09
-4.9593e-09
2.74066e-09
-2.79027e-09
2.55396e-09
-2.50436e-09
4.94103e-10
-5.75695e-10
-9.7463e-11
5.68532e-09
-7.40658e-09
1.81872e-09
5.57512e-09
-2.61184e-09
-5.07093e-09
2.10766e-09
3.37264e-09
-3.29616e-09
2.65783e-09
-2.73431e-09
-2.73841e-09
2.70586e-09
-3.49677e-09
3.52932e-09
4.88679e-09
-4.82773e-09
-2.34525e-10
1.75467e-10
2.8508e-11
-7.62203e-11
3.83625e-09
-3.823e-09
2.92197e-09
-2.93523e-09
-2.32393e-09
3.53213e-09
2.65171e-09
-3.85991e-09
4.08123e-09
-4.03633e-09
3.04737e-09
-3.09227e-09
6.92281e-09
8.16109e-09
-1.06425e-08
-4.44139e-09
2.66589e-09
2.31708e-09
-2.44404e-09
1.29058e-09
-5.02921e-09
4.8094e-09
-1.07076e-09
-3.20371e-10
-4.6606e-09
4.85425e-09
1.26718e-10
-1.91007e-09
3.20565e-09
1.88773e-09
-3.18331e-09
4.81794e-09
-4.92542e-09
-1.13207e-10
2.20687e-10
2.97129e-09
1.58156e-09
3.67364e-09
-8.22648e-09
-5.60825e-09
-3.382e-10
4.99236e-09
9.54094e-10
-3.55575e-09
3.87988e-09
2.16445e-09
-2.48858e-09
3.26906e-09
-1.05055e-08
-2.68453e-09
9.92099e-09
-3.66337e-09
3.81326e-09
4.0097e-09
-4.15959e-09
1.71256e-09
-4.83757e-09
3.48274e-09
3.00657e-09
-2.99045e-09
-2.55122e-09
2.12123e-09
4.15761e-09
2.39361e-09
-5.50581e-09
4.99098e-09
-5.75755e-09
-2.68088e-11
7.93377e-10
4.99296e-10
4.34505e-10
4.28851e-09
-5.22231e-09
-2.93507e-09
3.38467e-09
3.74105e-09
-4.19065e-09
5.39214e-09
-4.9793e-09
3.71009e-09
-4.12293e-09
-8.20237e-09
-2.97922e-09
6.65134e-09
4.53025e-09
-4.02227e-09
-3.8108e-10
-2.59664e-10
-2.95581e-09
3.10849e-09
2.53492e-09
-2.68759e-09
-5.81304e-09
-2.0337e-10
2.11787e-10
2.86136e-09
2.54177e-09
-2.59137e-09
4.59234e-09
1.70644e-10
-6.40989e-10
4.07988e-09
4.38294e-10
-5.17258e-09
6.54412e-10
6.28932e-09
1.37665e-09
-4.65955e-09
-1.70485e-09
8.37812e-09
2.79859e-09
-9.47186e-09
-3.90785e-09
3.96337e-09
-3.53983e-09
3.48432e-09
-5.12157e-09
-6.70227e-09
6.77593e-09
5.04791e-09
-3.14536e-09
-2.65967e-09
2.40839e-09
-1.33632e-08
-7.59058e-09
1.37761e-08
7.17773e-09
4.08132e-09
-4.06129e-09
3.07955e-09
-3.09958e-09
-2.2388e-09
4.10143e-09
-6.17354e-09
4.31092e-09
1.63035e-10
4.85782e-10
-5.24248e-09
4.59366e-09
-5.55639e-09
5.11514e-09
-3.68486e-09
4.1261e-09
-2.10395e-09
-9.77839e-09
6.37457e-09
5.50777e-09
-4.02856e-09
4.12313e-09
2.8613e-09
-2.98499e-09
2.61593e-09
-2.49223e-09
-5.24167e-09
5.24251e-09
1.2986e-10
-1.30704e-10
-3.95014e-09
1.18396e-09
2.76618e-09
3.72888e-09
-3.59898e-09
-2.4999e-09
2.79019e-09
3.94549e-09
3.03502e-09
-4.04659e-09
5.12243e-10
4.26094e-09
-4.73666e-09
-3.65272e-11
-1.35928e-09
-3.39561e-09
3.63895e-09
1.11594e-09
2.89764e-09
-2.12123e-09
-3.01521e-09
-5.01747e-09
-3.29269e-09
4.74094e-09
3.56922e-09
-1.19476e-08
2.83437e-10
-3.57431e-10
5.21623e-09
-4.79829e-09
-1.80349e-10
-2.3759e-10
4.99029e-09
1.05582e-10
-5.03532e-10
4.06788e-09
-4.0634e-09
3.08312e-09
-3.0876e-09
-5.61019e-10
-4.97666e-11
9.25945e-11
-4.0412e-09
5.13026e-09
2.94135e-10
-1.3832e-09
-5.25213e-09
3.86516e-10
4.8961e-09
-3.04828e-11
3.55047e-09
-2.6244e-09
3.76634e-09
-4.6924e-09
1.97307e-09
5.5232e-09
-9.57604e-10
-6.53866e-09
3.34778e-09
3.87478e-09
-3.91233e-09
-3.31022e-09
8.09151e-09
1.82549e-09
-7.63872e-09
-2.27827e-09
5.51517e-11
-5.60471e-10
5.05319e-10
-2.46174e-09
2.78141e-09
-3.03106e-09
-2.83315e-09
2.70308e-09
5.18276e-09
-8.32804e-11
-5.41985e-09
4.07084e-09
-4.07274e-09
-3.09354e-09
3.09544e-09
-6.26315e-10
1.20448e-10
1.98984e-09
-3.1103e-10
-1.65645e-09
-2.23623e-11
-5.48818e-09
4.96659e-09
-3.86539e-09
4.38698e-09
2.68215e-09
3.60893e-09
-3.43772e-09
-2.85336e-09
3.21239e-09
-3.17297e-09
2.97639e-09
-3.0158e-09
3.38665e-09
3.3567e-09
-3.97382e-09
-3.32037e-09
-3.51403e-09
3.56057e-09
3.27383e-09
3.75048e-09
-3.74393e-09
3.4831e-09
-3.48965e-09
-3.5428e-09
3.86829e-09
-3.20697e-09
-2.97639e-09
2.94698e-09
-5.71161e-09
1.65386e-11
1.13829e-11
5.68369e-09
-5.47216e-09
1.70001e-11
-1.65365e-12
5.45681e-09
4.63194e-09
-2.55352e-11
1.05388e-11
-4.61694e-09
-4.52428e-09
7.39354e-12
-9.05975e-12
4.52595e-09
4.82736e-09
4.66616e-13
-7.02391e-11
-4.75759e-09
4.75775e-09
1.38941e-12
-6.31805e-11
-4.69596e-09
4.89375e-09
-1.45922e-11
-1.22073e-11
-4.86695e-09
-5.50436e-09
-2.3804e-14
5.78891e-11
5.4465e-09
-1.43623e-08
1.14563e-08
1.00019e-09
-2.59825e-09
2.29067e-09
-2.31708e-09
3.29851e-09
4.34154e-09
-5.31013e-09
-3.66823e-09
2.76214e-09
3.71748e-09
-2.95297e-09
-4.02052e-09
3.52701e-09
3.44648e-09
-2.86399e-09
-3.90422e-09
3.33402e-09
3.43419e-09
4.20039e-09
-3.91031e-09
4.03932e-09
-4.32939e-09
3.8418e-09
-3.94068e-09
3.24353e-09
-3.14465e-09
-5.67542e-09
-1.35287e-10
7.74698e-11
-5.77543e-09
1.21813e-11
1.38044e-11
5.74945e-09
1.99475e-09
-9.7446e-09
9.06125e-09
-1.31141e-09
5.04147e-09
5.49731e-11
-1.3784e-10
-4.9586e-09
5.16246e-09
3.41104e-11
-1.14422e-10
-5.08214e-09
2.9012e-09
-3.76872e-09
-6.47402e-09
7.34154e-09
-2.08157e-09
-4.92147e-10
-6.00834e-09
1.63848e-09
-9.64674e-09
1.28237e-10
7.88002e-09
3.82916e-09
-4.44484e-09
-5.41044e-09
6.02613e-09
-9.58228e-09
3.37066e-09
-1.99075e-09
1.94757e-09
4.31634e-09
-6.14464e-09
-1.19263e-10
4.05678e-09
-4.04509e-09
-3.0925e-09
3.08082e-09
-4.00558e-09
4.08092e-09
3.07717e-09
-3.15251e-09
-2.11148e-10
4.43161e-09
5.9748e-10
3.26209e-09
-4.28267e-09
3.74232e-09
-2.72174e-09
-3.16972e-09
-3.67428e-09
3.17578e-09
-1.24537e-09
5.56693e-10
4.51315e-09
8.73334e-10
-4.59047e-09
-7.96018e-10
-4.29571e-10
1.38835e-10
4.90628e-09
5.35109e-09
5.7156e-11
-4.77007e-10
-2.66438e-09
-2.57567e-09
2.50164e-09
-3.85379e-09
3.76744e-09
5.14166e-09
-5.05531e-09
-3.6694e-09
-2.19684e-09
2.54042e-09
3.32582e-09
2.94961e-09
-2.58618e-09
7.17631e-09
-7.34357e-10
-1.9288e-09
3.76955e-09
-3.50329e-09
2.74482e-09
-3.01108e-09
-5.10591e-09
1.78656e-09
6.14358e-09
-2.82423e-09
-2.52718e-09
2.44404e-09
-5.8532e-10
2.48493e-11
-2.45674e-09
4.19146e-09
3.00699e-09
-4.74171e-09
-4.96773e-09
-3.7159e-09
5.14083e-09
-3.4033e-09
3.21557e-09
5.2137e-09
-5.02597e-09
2.95928e-09
-2.94518e-09
-6.74259e-09
-1.31859e-08
5.5662e-09
-7.49444e-09
3.95481e-09
7.01194e-09
-3.47231e-09
-4.30879e-09
-3.51882e-09
4.40067e-09
3.42695e-09
1.24122e-09
-9.81142e-10
4.63643e-09
-4.89651e-09
-3.89988e-09
-1.90896e-09
5.80884e-09
4.14164e-09
-8.9904e-11
-4.88538e-09
8.33647e-10
-1.21363e-10
8.27339e-11
2.81711e-09
1.98352e-09
-1.9833e-09
-2.81733e-09
-3.13989e-09
-3.61963e-09
4.30278e-09
3.80998e-09
3.28174e-09
-3.4481e-09
-1.03618e-09
-5.23797e-10
6.77621e-09
-3.71956e-09
3.98382e-09
4.75189e-09
-5.01616e-09
4.52724e-09
-4.95718e-09
5.82208e-09
3.66003e-09
-5.04452e-09
-3.71011e-09
5.09459e-09
2.70313e-09
2.50436e-09
-2.50164e-09
-5.73457e-10
-1.18636e-11
-5.21383e-11
2.05203e-10
4.02029e-09
-4.17336e-09
-4.78797e-09
3.72924e-09
2.86475e-09
-1.80601e-09
2.75621e-09
2.57567e-09
-2.64973e-09
9.17443e-09
2.65994e-09
-1.82043e-09
-1.00139e-08
4.50005e-09
-4.59263e-09
-1.42426e-10
2.35014e-10
-1.01897e-09
2.13477e-09
6.06051e-09
3.68747e-09
-3.83663e-09
-3.07475e-09
3.22391e-09
-3.46043e-09
-3.04743e-09
4.01669e-09
7.11824e-09
-6.12798e-09
-1.06401e-09
7.37503e-11
-4.22676e-09
4.90716e-09
-4.79445e-09
4.11405e-09
-5.01419e-09
3.59665e-09
5.08077e-09
-3.79733e-09
-3.60264e-09
3.54618e-09
1.79854e-09
-2.12016e-09
4.17055e-09
-3.9771e-09
-3.27904e-09
3.0856e-09
5.12263e-09
-5.74542e-09
3.62517e-09
-3.66755e-09
-4.78099e-09
4.82337e-09
1.14718e-08
-2.6434e-09
-1.70698e-09
2.14528e-09
3.68369e-09
-3.6112e-09
4.86362e-09
-4.93611e-09
2.68249e-09
-5.64331e-09
5.76581e-09
-3.2758e-09
-3.04465e-09
2.99045e-09
-3.11797e-09
-3.97648e-09
-5.35576e-09
7.89948e-10
-7.39633e-10
5.30545e-09
-4.27788e-09
5.03283e-09
-3.24353e-09
2.48858e-09
6.65535e-10
5.96688e-09
-1.9233e-09
-4.70911e-09
3.63988e-09
-3.6403e-09
-4.77774e-09
4.77816e-09
2.44258e-09
-3.94009e-09
4.87014e-09
3.89844e-09
-3.67251e-09
3.69064e-09
-2.52049e-09
3.64323e-09
-4.10627e-09
2.30277e-09
3.80809e-09
-2.72421e-09
-4.02356e-09
-1.09953e-09
2.95357e-10
-5.05107e-09
5.34648e-09
-5.51664e-09
-3.47021e-09
4.01501e-09
-8.66677e-09
5.99534e-09
3.25717e-10
2.34571e-09
2.89279e-09
-1.20703e-10
-2.77209e-09
3.47579e-09
-3.00541e-09
3.13855e-09
4.12017e-09
-4.95175e-09
-5.17366e-09
6.00524e-09
-3.94881e-09
-1.77892e-11
5.11559e-09
-1.149e-09
4.04483e-09
3.10261e-09
-2.08764e-09
-5.05979e-09
-3.75537e-09
8.82058e-10
2.87332e-09
3.75782e-09
3.17252e-09
-3.24665e-09
2.68158e-09
9.45747e-10
-3.62733e-09
-5.2963e-09
4.89201e-09
3.96479e-09
-3.5605e-09
2.12683e-09
-1.68648e-09
-2.19408e-09
2.24658e-11
6.66513e-09
-6.56951e-09
-5.88438e-09
7.44917e-09
1.16435e-08
-1.32083e-08
5.23329e-09
1.14082e-12
9.86541e-11
-5.33308e-09
-2.56532e-09
-2.46538e-09
2.51021e-09
-8.24055e-09
7.63079e-09
7.62765e-10
-1.53007e-10
-3.93237e-09
3.80616e-09
2.9408e-09
-2.81459e-09
7.59233e-10
-5.07258e-10
-4.20434e-09
3.95237e-09
-2.06172e-09
2.33694e-09
-5.40104e-09
5.12582e-09
2.94928e-09
-2.94698e-09
2.97282e-09
-3.16708e-09
5.46264e-09
-5.26839e-09
-1.91897e-09
5.03289e-09
4.16006e-11
-3.15552e-09
-7.02725e-10
4.9763e-09
-5.01908e-09
3.8994e-09
5.15097e-09
8.31275e-11
-2.43804e-10
2.06913e-11
-1.11387e-10
9.56773e-10
4.31369e-09
-3.7856e-09
-1.48486e-09
1.1321e-10
-6.16729e-09
6.28797e-09
-2.33882e-10
-1.24105e-11
-4.58798e-09
4.55059e-09
4.98027e-11
-4.56051e-11
-5.82254e-09
5.76922e-09
9.89275e-11
2.01319e-11
4.88179e-09
-4.80646e-09
-9.54655e-11
2.60663e-11
4.68709e-09
-4.5608e-09
-1.5236e-10
-3.84857e-09
3.19905e-11
4.42081e-09
-6.04234e-10
-2.89511e-12
4.67085e-09
-4.6476e-09
-2.03506e-11
1.49759e-12
-5.56378e-09
5.52799e-09
3.42986e-11
6.82493e-12
-6.06901e-09
6.12129e-09
-5.91121e-11
2.72918e-12
-4.54303e-09
4.51743e-09
2.28612e-11
-3.60563e-12
-5.76233e-09
5.73784e-09
2.81012e-11
-4.02775e-09
4.50507e-11
4.63934e-09
-6.56636e-10
-3.7119e-13
-5.51898e-09
5.48497e-09
3.43788e-11
-3.83452e-09
3.22699e-11
4.37767e-09
-5.75421e-10
-1.44478e-12
4.65052e-09
-4.62641e-09
-2.26677e-11
-5.98562e-09
1.46127e-11
6.04512e-09
-7.41104e-11
1.18912e-11
-5.7498e-09
5.73316e-09
4.75085e-12
6.77129e-12
-5.48853e-09
5.46692e-09
1.48424e-11
1.45414e-11
-5.74416e-09
5.72764e-09
1.97992e-12
1.27966e-11
-5.73644e-09
5.71158e-09
1.20669e-11
7.52144e-09
-7.03221e-09
-6.41935e-10
1.52705e-10
-2.45403e-09
-7.83475e-09
8.58393e-09
3.70582e-09
-3.19582e-09
-3.28346e-09
2.77345e-09
-1.72199e-09
5.42761e-09
2.89556e-10
2.09755e-09
-2.14969e-09
5.91449e-09
-5.59401e-09
-7.90321e-10
4.69847e-10
-4.3148e-09
-2.80187e-11
-4.5547e-10
3.49404e-09
-3.96812e-09
4.22922e-09
-3.75514e-09
2.95618e-09
-4.06175e-09
-4.44463e-09
5.55021e-09
-5.15642e-09
5.39815e-09
6.27906e-09
-7.09384e-09
-1.95344e-09
2.76822e-09
2.89906e-09
-3.7895e-09
3.6311e-09
2.49095e-09
-7.64025e-09
4.91237e-09
2.36935e-10
2.23947e-09
-2.35268e-09
-8.1569e-10
1.69221e-09
5.03797e-09
-5.88577e-09
1.58479e-08
3.57781e-09
-1.35399e-08
-2.02832e-09
-2.72019e-10
2.30034e-09
3.24199e-09
-3.93881e-09
5.22406e-09
4.04156e-09
-5.75453e-09
4.66915e-09
1.86914e-10
-5.68018e-10
3.56762e-09
3.5184e-10
-3.08691e-10
-5.57916e-10
5.14768e-10
-3.27609e-09
2.95421e-09
-2.63108e-09
-3.23323e-09
2.97666e-09
-2.60742e-09
-2.55396e-09
2.59137e-09
-3.09904e-09
2.78133e-09
-2.33375e-09
2.65146e-09
-4.28964e-09
-2.68948e-09
6.97913e-09
3.6114e-09
3.09457e-09
-3.64565e-09
3.57343e-09
-4.64062e-09
4.71283e-09
1.9849e-10
1.0871e-09
-1.32445e-09
3.88608e-11
-1.16922e-11
4.36731e-09
-4.29161e-09
-6.40096e-11
-3.47015e-09
4.53882e-09
3.24683e-09
-4.3155e-09
1.84018e-10
-2.97271e-10
-5.82875e-09
-4.0883e-09
3.00591e-09
6.91115e-09
5.05631e-09
5.52952e-11
-5.35755e-10
-4.54289e-09
1.62509e-09
4.72305e-09
-1.80525e-09
-2.37415e-09
-1.31399e-08
1.03924e-08
6.04057e-09
-5.50176e-09
-5.00471e-09
4.46591e-09
2.77648e-09
-2.65783e-09
1.17597e-09
-1.2341e-09
1.46618e-08
-1.46037e-08
2.67585e-09
2.63108e-09
-3.12e-09
-2.18693e-09
2.62795e-09
2.60742e-09
-3.07874e-09
-2.15663e-09
-4.05545e-09
2.29958e-10
4.5081e-09
4.39309e-09
-4.99334e-09
4.30848e-09
-4.91375e-09
-5.82643e-09
-8.45848e-10
4.78904e-09
1.88324e-09
-6.06277e-09
-1.54202e-10
5.90295e-09
3.14016e-10
-5.65723e-09
-5.72453e-11
5.55389e-09
1.60588e-10
-4.71667e-09
-5.40695e-11
4.62808e-09
1.42654e-10
2.47404e-09
-2.70856e-09
5.6395e-09
-5.49617e-09
2.23717e-11
-5.55996e-09
5.56272e-09
-2.51294e-11
-4.63335e-12
4.90906e-09
-4.88099e-09
-2.34393e-11
1.88425e-11
4.65925e-09
-4.57974e-09
-9.8358e-11
-2.18477e-13
4.73347e-09
-4.69887e-09
-3.43891e-11
-2.60883e-12
4.69946e-09
-4.67387e-09
-2.2984e-11
-6.38161e-13
4.9312e-09
-4.8991e-09
-3.14585e-11
-4.05887e-09
1.24378e-10
4.75635e-09
-8.21854e-10
-7.8672e-11
-4.39946e-09
3.85708e-09
6.21048e-10
-5.27824e-09
6.97898e-09
-7.62756e-09
5.92682e-09
3.76185e-09
-3.7489e-09
-4.80292e-09
4.78997e-09
-1.33226e-09
1.61851e-08
-1.36769e-08
-3.62256e-09
3.48042e-09
-4.49322e-09
-2.88987e-09
3.90268e-09
-5.201e-09
5.20988e-09
3.92906e-12
-1.28172e-11
-2.03573e-09
-1.96401e-10
2.23213e-09
-5.23137e-09
4.80358e-09
9.82714e-10
-5.54924e-10
3.94677e-09
-5.06273e-09
-3.74746e-09
-8.45076e-12
2.71725e-09
-2.7088e-09
3.7341e-09
-3.75123e-09
3.65481e-09
-4.87965e-09
4.95372e-09
-3.17239e-09
3.05666e-09
5.64891e-09
3.69914e-11
-4.95284e-09
5.02103e-09
-1.05178e-10
3.72932e-11
-4.87897e-09
4.9438e-09
-1.02127e-10
-7.89747e-10
8.20215e-09
-1.63437e-09
5.26471e-09
3.19051e-11
-4.42357e-10
1.29521e-09
4.93354e-09
-1.43391e-09
-4.79483e-09
3.09822e-09
-3.39572e-09
-5.72939e-09
6.02689e-09
8.2777e-09
-1.06286e-08
5.80467e-09
5.80279e-09
2.63797e-09
-1.09541e-09
-7.34535e-09
4.13357e-09
-4.1826e-09
3.52945e-09
2.56767e-11
-5.30031e-09
5.35389e-09
-7.92535e-11
3.67838e-09
3.64647e-09
-1.31913e-08
1.53656e-08
-8.05865e-09
2.43211e-09
-6.31665e-09
5.96807e-09
-2.08352e-09
-3.16019e-09
4.30322e-09
-5.30288e-09
3.99467e-09
-2.99501e-09
4.0662e-09
3.06473e-09
-3.10457e-09
-4.02635e-09
-3.34823e-10
-5.36663e-09
4.49322e-10
2.27211e-10
-1.45185e-10
4.16776e-09
-4.24979e-09
5.33428e-09
-5.2763e-09
-6.64308e-11
-5.24836e-09
5.28922e-09
1.51878e-11
-5.60506e-11
4.86063e-10
-7.74908e-09
3.22181e-09
4.54444e-09
-4.10415e-09
-3.68155e-09
3.24125e-09
-5.23043e-09
5.05704e-09
-4.48146e-09
4.65485e-09
-2.95929e-09
2.98497e-09
7.55147e-09
-6.71603e-09
-1.47708e-09
6.41632e-10
2.18842e-09
-2.20011e-09
3.05807e-09
-2.99042e-09
4.00249e-09
-5.54341e-09
-3.24705e-09
-1.61008e-09
4.43024e-11
1.49047e-09
-2.85833e-09
3.76431e-09
3.09835e-09
-3.39543e-09
-3.49243e-09
4.33806e-09
4.69116e-10
3.82396e-09
3.48965e-09
-3.54618e-09
-5.15698e-09
-3.50511e-09
4.43534e-09
-4.12163e-09
3.24665e-09
-2.73622e-09
1.48464e-08
-4.38767e-09
-1.63445e-08
4.13899e-09
-4.08248e-09
-2.1473e-10
4.11686e-09
-4.74047e-09
4.75661e-09
-3.31231e-09
-5.60463e-09
-3.25862e-10
9.58622e-10
-5.3489e-09
1.40769e-09
5.33286e-09
-5.40973e-09
-9.75029e-12
9.84929e-11
5.32098e-09
-3.7794e-09
-3.4831e-09
3.4481e-09
-4.51628e-09
1.63984e-11
-5.10637e-11
4.55095e-09
-4.5311e-09
1.36184e-11
7.90053e-12
4.50958e-09
-4.56896e-09
4.71512e-12
1.80529e-11
4.54619e-09
-5.49143e-09
2.06536e-11
-1.70017e-11
5.48778e-09
-4.58092e-09
1.58749e-11
-1.03673e-11
4.57541e-09
5.0421e-09
-1.44694e-11
1.64403e-11
-5.04407e-09
4.91403e-09
-2.08265e-11
-4.41616e-13
-4.89277e-09
-5.24315e-09
1.08216e-10
-8.67885e-10
6.00282e-09
-4.36258e-09
-3.05314e-09
3.87589e-09
-5.69234e-09
-4.75244e-09
5.81477e-09
4.63e-09
6.05316e-09
-1.76592e-09
8.81111e-10
-5.16835e-09
-2.74249e-09
2.82562e-09
-2.63691e-09
2.296e-09
-4.01679e-09
7.95307e-09
-2.31559e-09
-5.01042e-11
1.74494e-10
3.81509e-09
-3.93948e-09
2.68825e-09
-2.56547e-09
3.72023e-09
-4.57093e-09
3.13867e-09
-2.28797e-09
-3.63286e-09
-5.33102e-09
9.23243e-11
6.03482e-09
-7.96128e-10
1.72603e-11
4.93397e-09
-5.51818e-09
5.66949e-10
-2.12756e-12
-5.3387e-09
5.97776e-09
-6.36931e-10
-1.5343e-11
-5.21476e-09
5.81842e-09
-5.8831e-10
5.08459e-09
-7.45944e-09
-2.51879e-09
4.89364e-09
-3.6024e-10
6.48086e-09
-7.63173e-09
1.51112e-09
-9.72358e-09
3.71432e-09
-3.59125e-09
-4.66724e-09
3.53129e-09
4.7272e-09
4.17959e-09
-4.67817e-09
7.25794e-10
2.94518e-09
-3.05666e-09
-2.65148e-09
-8.83563e-12
2.66031e-09
-2.62307e-09
1.5769e-12
2.62149e-09
-2.61573e-09
7.04096e-12
2.60869e-09
-2.61434e-09
7.69249e-12
2.60665e-09
-2.58039e-09
6.35989e-12
2.57403e-09
3.14122e-10
1.91436e-09
-2.22848e-09
3.55066e-10
2.71006e-09
-3.06512e-09
7.81939e-10
2.13813e-09
-2.92007e-09
8.21978e-11
2.75136e-09
-2.83356e-09
2.4902e-09
5.61228e-11
-2.54632e-09
-2.06689e-11
-2.92554e-09
2.94621e-09
-2.68741e-09
-4.676e-11
2.73417e-09
8.80612e-10
2.54926e-09
-3.42987e-09
-3.14418e-09
3.87548e-09
-3.73671e-09
2.10763e-09
5.76289e-09
-4.16469e-09
-4.4902e-09
3.80598e-10
1.44898e-11
5.92658e-09
-6.64379e-09
7.02722e-10
5.1096e-09
-4.83138e-09
-2.88141e-09
8.51666e-09
2.94868e-09
-5.13858e-09
6.15753e-10
4.66855e-09
-1.45727e-10
-4.72173e-09
1.40152e-10
-6.61575e-10
-3.14849e-10
-7.13665e-09
1.68292e-09
5.76858e-09
-3.7033e-09
3.8087e-09
-4.3852e-09
4.27979e-09
4.83911e-10
-6.39041e-09
-7.06873e-10
6.61337e-09
-4.12832e-09
-3.86329e-09
4.79579e-09
-1.15957e-09
1.15482e-09
-4.62674e-09
4.6315e-09
-5.68497e-09
5.65031e-09
9.83258e-10
-2.42999e-09
5.83876e-09
-4.39203e-09
1.85393e-10
5.53242e-09
-7.21615e-10
-4.9962e-09
5.24048e-09
-5.21144e-09
1.04453e-11
-3.94859e-11
4.72887e-09
1.46374e-10
-4.00191e-09
-2.69525e-09
-8.43724e-11
2.77963e-09
3.6373e-09
-3.60926e-09
4.76227e-09
-4.7903e-09
2.86675e-09
2.89377e-09
-2.7255e-09
-3.06277e-09
3.78723e-09
-3.62706e-09
3.45653e-09
4.07894e-09
-5.14636e-09
-4.00427e-09
-3.35131e-09
7.54132e-09
-1.95223e-09
-5.82442e-09
2.35325e-10
4.98363e-09
-6.19876e-09
-2.45811e-09
3.65634e-09
4.27666e-09
1.9387e-10
-3.51375e-09
9.44366e-09
-8.56337e-09
6.04251e-09
2.97631e-09
4.02277e-09
-2.89764e-09
-4.23553e-09
-3.86815e-09
4.30635e-09
3.38715e-11
3.0137e-09
-3.04757e-09
-5.93519e-12
2.9464e-09
-2.94046e-09
1.09474e-11
-2.6662e-09
2.65526e-09
6.7437e-12
-2.54951e-09
2.54277e-09
8.23113e-12
-2.59688e-09
2.58865e-09
1.83981e-11
-2.54084e-09
2.52244e-09
-1.18329e-11
3.05275e-09
-3.04091e-09
1.41616e-11
-2.67373e-09
2.65957e-09
-8.63051e-12
-2.74853e-09
2.75716e-09
-1.08466e-11
2.52489e-09
-2.51404e-09
1.4139e-10
-4.93234e-09
-1.67816e-10
4.95876e-09
4.15485e-09
2.15376e-09
-2.77648e-09
-3.67347e-09
3.94611e-09
-3.18633e-09
2.91369e-09
5.70951e-10
1.03988e-10
-3.82474e-09
-3.63619e-09
3.8485e-09
3.61243e-09
3.62133e-09
-1.00386e-10
5.29393e-09
-5.44695e-09
2.53412e-10
-2.84631e-09
2.97617e-09
2.73026e-09
-2.83065e-09
6.81676e-10
3.31054e-09
-3.99221e-09
-4.36246e-09
4.29624e-09
3.95675e-09
-4.29742e-09
3.67209e-09
4.37951e-09
-1.2465e-10
-2.5706e-09
-1.22901e-09
-2.63238e-09
1.99233e-09
1.86906e-09
-6.14041e-10
-1.77983e-10
2.78186e-09
-4.0373e-09
2.9052e-09
-3.67316e-09
4.80526e-09
-5.83141e-09
7.3962e-09
-4.89512e-09
3.33034e-09
-1.10564e-10
1.33643e-09
-1.35564e-09
1.29773e-10
-5.42986e-11
-2.90499e-09
-3.41743e-09
3.46377e-09
4.45385e-09
-4.72449e-09
-5.85552e-10
3.71238e-10
3.56617e-10
3.93589e-11
-4.72358e-11
4.34697e-09
-2.06816e-09
4.00026e-09
-1.87948e-09
1.54368e-09
-3.2322e-09
3.56799e-09
3.68592e-09
1.12493e-09
-4.97159e-10
-3.70372e-09
-3.33241e-10
3.98235e-09
5.4613e-11
4.15057e-09
-4.71559e-09
4.87367e-09
-5.30974e-09
4.86803e-09
-4.55743e-09
4.91588e-09
3.45651e-09
-3.68968e-09
-4.68271e-09
3.29807e-09
-5.02978e-09
4.87824e-09
-1.41215e-09
-1.31696e-09
4.56792e-10
2.27232e-09
-3.30684e-14
-2.75162e-09
2.75165e-09
-1.54359e-11
-2.63859e-09
2.65403e-09
-1.2065e-11
2.47266e-09
-2.46059e-09
-1.37613e-11
2.93868e-09
-2.92492e-09
1.16136e-13
2.47556e-09
-2.47568e-09
-2.90084e-12
2.46683e-09
-2.46393e-09
-3.8025e-12
2.48026e-09
-2.47646e-09
2.20306e-11
2.91719e-09
-2.93922e-09
-3.19382e-09
2.92661e-09
-3.58995e-09
3.85716e-09
2.19833e-09
-2.34351e-09
-7.51246e-09
5.36851e-09
4.90014e-10
1.65393e-09
-3.448e-09
-3.14243e-09
3.12028e-09
-6.68027e-11
5.12017e-09
1.38509e-09
3.15032e-09
-4.92435e-09
-2.32402e-09
4.09805e-09
-2.36093e-09
2.27103e-09
8.45806e-09
4.41338e-09
-5.49731e-09
5.6157e-09
-3.48068e-09
-2.99934e-11
-5.43463e-10
-4.68326e-09
-7.45981e-10
4.574e-09
-9.38272e-10
1.51082e-09
-5.14655e-09
-6.47738e-10
-5.03558e-09
3.66693e-10
5.31663e-09
5.00042e-09
-5.24718e-09
-3.69392e-09
2.11804e-09
-2.82407e-09
-1.39283e-09
2.09885e-09
-2.74601e-09
3.69898e-09
-9.02036e-09
-1.81937e-11
5.06026e-09
-3.47644e-11
4.93336e-09
-3.24774e-09
-3.07358e-09
2.30809e-09
4.01323e-09
-2.92635e-11
-4.56372e-09
-2.54567e-11
-5.47974e-09
-3.26661e-09
3.19981e-09
2.75893e-09
1.33859e-10
-4.56395e-09
5.23557e-09
-3.50806e-09
4.34861e-09
3.60121e-09
-4.44177e-09
-3.44912e-09
-4.5156e-09
4.54728e-09
4.9646e-09
5.48385e-11
3.09061e-09
4.09889e-09
-4.05095e-09
2.97856e-09
-2.6718e-09
-4.01005e-09
1.03894e-10
-5.49159e-09
1.54343e-11
-4.58428e-09
1.43588e-11
-4.54836e-09
-3.1263e-12
-4.51696e-09
-4.52599e-09
-1.68897e-11
4.00817e-09
5.34704e-10
-1.93898e-10
3.93744e-09
1.31277e-09
-1.86522e-10
4.10616e-09
1.34507e-09
-1.74745e-10
4.02837e-09
1.49747e-09
-1.0741e-09
8.08604e-09
-7.92208e-09
9.10131e-10
-3.99552e-09
8.54739e-09
-1.12541e-08
2.31296e-09
-2.01586e-09
2.33375e-09
-2.63085e-09
6.64054e-09
-5.24387e-09
-5.30609e-09
3.90942e-09
-8.0081e-10
-7.573e-10
1.19068e-09
3.67434e-10
5.14305e-09
7.76222e-10
-5.83708e-09
-5.52666e-09
-5.34418e-10
6.04041e-09
1.25635e-10
5.1358e-09
-1.08184e-09
6.30661e-09
-1.46272e-09
-3.99281e-09
-2.75887e-09
3.58196e-09
3.70246e-09
-5.95898e-09
-3.04636e-09
2.61253e-10
4.44412e-09
-8.64073e-10
-3.8413e-09
-4.6681e-09
3.42174e-09
-5.49008e-09
4.00479e-09
-1.93645e-09
3.73893e-09
2.7208e-09
-2.90927e-09
2.01533e-10
-4.96664e-09
6.28703e-09
-1.52193e-09
-4.43598e-09
-7.36798e-12
4.37029e-09
7.30633e-11
-5.64427e-09
-3.88229e-09
5.29103e-09
-2.32686e-10
-5.76682e-09
1.5093e-09
-4.36766e-09
4.59704e-11
4.56339e-09
-2.41705e-10
4.77368e-09
-6.73016e-09
4.33484e-09
-2.37836e-09
-4.73587e-09
4.9246e-09
-2.91048e-09
2.72174e-09
4.41303e-09
-2.90104e-09
-4.30526e-09
2.79327e-09
3.89692e-09
-4.07912e-09
-5.3062e-09
-2.61317e-09
5.461e-09
2.45837e-09
-5.73762e-09
-6.86072e-10
-1.08877e-09
-4.6031e-09
6.72435e-11
4.88011e-09
-3.44258e-10