/*--------------------------------*- C++ -*----------------------------------*\
  =========                 |
  \\      /  F ield         | OpenFOAM: The Open Source CFD Toolbox
   \\    /   O peration     | Website:  https://openfoam.org
    \\  /    A nd           | Version:  8
     \\/     M anipulation  |
\*---------------------------------------------------------------------------*/
FoamFile
{
    version     2.0;
    format      ascii;
    class       volVectorField;
    location    "8.8";
    object      U;
}
// * * * * * * * * * * * * * * * * * * * * * * * * * * * * * * * * * * * * * //

dimensions      [0 1 -1 0 0 0 0];

internalField   nonuniform List<vector> 
6388
(
(0.000945629 3.06845e-05 1.08818e-21)
(0.000937691 2.15044e-05 0)
(0.000154382 -2.20634e-05 0)
(0.000876487 0.000326732 -4.37622e-22)
(0.000746469 0.00131957 2.96528e-21)
(0.000658932 0.00114757 -2.01472e-23)
(0.000444466 0.000482052 2.10109e-21)
(0.000630432 0.000779759 2.06335e-21)
(0.000350864 0.000263113 -9.0127e-22)
(0.000127524 0.000667508 0)
(0.000584607 0.00115597 0)
(9.23633e-05 0.000682235 0)
(0.000596867 0.000601685 2.24697e-25)
(0.000670073 0.00123316 2.25307e-21)
(0.000497472 0.000566672 3.07092e-21)
(0.000618571 0.000701844 0)
(0.000561811 0.000885777 2.34691e-21)
(0.000632885 0.00114691 -2.8485e-23)
(0.000289939 0.000576213 0)
(0.00014556 0.000453489 2.13168e-24)
(0.000517732 0.000694027 -1.09386e-21)
(0.000667965 0.000812516 0)
(0.00066332 0.00121771 -9.2615e-22)
(0.000756468 0.00131732 8.89571e-22)
(0.000698943 0.00117158 -2.25065e-21)
(0.000216954 0.000598932 -1.89089e-22)
(0.000653998 0.000595656 0)
(0.000480144 0.000748827 5.5322e-22)
(0.000355636 0.00069074 9.19352e-22)
(0.000723477 0.000252372 -2.18556e-21)
(0.000658954 0.00119099 0)
(0.000676839 0.00122476 8.87727e-22)
(0.000678027 0.00110076 -2.38525e-21)
(0.000598621 0.00123512 1.27472e-21)
(0.00066364 0.00119436 1.63438e-21)
(0.000590533 0.00111664 0)
(0.000703876 0.00115733 5.53499e-22)
(0.000192848 0.000890163 7.53617e-22)
(0.000631149 0.000604597 5.4867e-22)
(0.000617525 0.0011917 1.25231e-21)
(0.000183182 0.000517487 2.6124e-21)
(0.000182401 0.000540694 -1.19156e-21)
(0.000936369 -1.63199e-05 -1.07638e-21)
(0.000646129 0.00121382 6.49166e-24)
(0.000602699 0.000200843 -2.5956e-21)
(0.000312013 0.000745956 -5.37102e-22)
(0.000978134 3.84144e-05 -1.08558e-21)
(0.000302585 0.000424902 4.90198e-22)
(0.000975419 0.000207927 -4.70914e-26)
(0.000898985 0.000715651 -1.19976e-21)
(0.000163808 -5.67227e-05 6.25342e-22)
(0.00086239 1.24258e-05 4.33808e-21)
(0.000333629 0.000445212 -3.21493e-21)
(0.000211057 0.000509949 1.19915e-21)
(0.000152323 0.000724992 1.26247e-21)
(2.74207e-05 6.72361e-05 0)
(0.000769708 0.000842293 1.83604e-21)
(0.000854103 0.000353238 0)
(5.65846e-05 0.000445825 -1.44726e-21)
(0.000347471 0.000472636 -1.82225e-21)
(0.000511895 0.000841755 8.75059e-22)
(0.000704899 0.000334383 0)
(0.00040044 0.000659469 1.75777e-24)
(0.000981982 0.00029352 3.76767e-22)
(0.000441704 0.00109138 1.89345e-21)
(3.78935e-05 2.03341e-06 1.31911e-21)
(0.000567841 0.000825246 1.26788e-21)
(0.000594617 0.000687116 1.00158e-21)
(0.000167194 0.000804373 1.55799e-22)
(3.75242e-05 -2.44969e-06 0)
(0.00142518 0.00103942 -1.30455e-21)
(0.000671276 0.00116775 -1.06551e-21)
(0.000704536 0.00107706 4.29671e-22)
(0.000528809 0.00141982 1.80411e-21)
(1.0821e-05 0.00011333 -1.81361e-22)
(0.000528782 0.000456757 3.40046e-25)
(0.000654202 0.00118072 7.32498e-24)
(0.000594028 0.000320407 -1.44425e-21)
(0.000904403 0.000313285 9.10675e-22)
(0.000677213 0.0011675 -7.0314e-22)
(0.000280786 0.00069466 2.86117e-22)
(0.00055835 0.00138957 -1.42299e-23)
(0.000414636 0.00112797 0)
(0.000405531 0.00111144 -1.40498e-23)
(0.000393726 0.00108666 0)
(0.000484052 0.00126101 -1.45734e-23)
(0.000687721 0.00132624 -1.3765e-21)
(0.000620356 0.00150031 1.50725e-23)
(0.000427842 0.00115978 -1.01936e-24)
(0.000451138 0.00119894 -1.13007e-23)
(0.000519747 0.00132512 -1.17975e-23)
(0.000383982 0.00106912 -1.0795e-23)
(3.70853e-05 1.70127e-06 -3.94062e-21)
(0.000946475 0.000152102 1.34651e-21)
(0.000561527 0.000676483 0)
(0.000909683 0.000186547 0)
(3.87604e-05 7.67476e-07 -2.6766e-21)
(0.000748898 0.00135368 6.53253e-22)
(0.000966497 0.000264433 -2.19857e-21)
(0.00115677 0.000527779 -1.41425e-21)
(0.000311297 0.000607181 -1.61461e-21)
(0.000406093 0.00130678 -9.40551e-24)
(0.00063412 0.000827943 0)
(0.0001674 0.000685794 2.56893e-21)
(0.000159258 0.00067892 -1.88433e-21)
(0.000482542 0.000807153 2.3952e-21)
(0.000312217 0.00032135 -2.26586e-21)
(0.00049063 0.000916236 0)
(0.000398693 0.000674698 1.54477e-21)
(0.000201405 6.34937e-06 -2.55614e-21)
(0.000380278 0.000515278 -1.39263e-21)
(0.000675148 0.00113706 -1.17872e-21)
(0.000491469 0.000976749 0)
(3.11711e-05 0.000452121 2.7423e-22)
(0.000981275 8.90895e-05 5.66318e-22)
(0.0009842 0.000110277 -1.93178e-21)
(0.000775717 0.00124289 0)
(0.000963078 0.000106995 -4.66783e-22)
(0.000663876 0.000591792 1.39102e-22)
(8.13622e-06 0.000147483 0)
(0.000740102 0.00129183 0)
(0.000188478 -0.000139836 0)
(0.000460584 0.000662444 -1.74284e-22)
(0.00032668 0.000266443 -3.57927e-22)
(0.000681674 0.00117309 -3.66221e-22)
(0.000964091 0.000225649 1.41319e-21)
(0.000411151 0.000283612 -2.68805e-21)
(0.000521174 0.000589237 -2.07882e-21)
(3.30771e-05 0.000206722 -4.12634e-22)
(0.000162429 0.000572427 -1.55543e-21)
(0.00062095 0.00113898 8.98913e-22)
(0.000443877 0.000772284 1.46003e-21)
(0.000293665 0.000303892 -1.17865e-21)
(0.000921497 0.000176293 0)
(2.09097e-05 7.26855e-06 2.42352e-21)
(0.000835379 0.00130136 -7.91428e-22)
(0.000827078 0.0013292 1.18629e-21)
(0.000539827 0.00144007 1.12507e-21)
(0.00062112 0.000293702 -1.6169e-21)
(0.000293333 0.000691442 0)
(0.000682573 0.0012752 3.10993e-22)
(0.000879823 3.40078e-05 -1.26336e-23)
(0.000444368 0.000665193 3.25478e-23)
(0.000723254 0.00022743 1.91988e-21)
(0.000127674 0.000165452 1.03957e-21)
(0.000852178 0.00090642 0)
(0.000281375 0.000362287 1.24474e-21)
(3.53412e-05 -2.80837e-06 2.45244e-21)
(0.000809043 0.000724016 2.29966e-23)
(0.000876288 -5.56656e-06 0)
(0.000423499 0.000774188 -2.80522e-21)
(0.000960525 0.000260465 1.80121e-21)
(0.000294785 0.00070838 -1.49861e-21)
(0.000660916 0.00108192 5.65097e-22)
(0.000158629 0.000708142 2.38319e-22)
(0.000554109 0.00055171 0)
(-8.79392e-06 0.000680129 -1.15159e-22)
(0.000171498 -1.45232e-06 9.33336e-22)
(0.000721406 0.00125819 -7.14e-22)
(0.000830591 0.00120342 2.07331e-21)
(0.000632241 0.000162698 -1.87222e-21)
(0.000972887 0.000117714 -1.70183e-21)
(0.000665077 0.0011715 -2.09688e-21)
(0.00036418 0.000897234 1.79484e-21)
(3.88259e-05 -1.13351e-06 -1.39509e-21)
(0.000575819 0.00110135 0)
(0.000627113 0.00112798 -1.15715e-21)
(0.000638082 0.00113599 8.82715e-24)
(0.000613556 0.0011046 -3.44892e-21)
(0.000136637 -0.000310689 1.72988e-21)
(0.00067035 0.001224 1.82172e-21)
(0.000423183 0.000764944 -1.06305e-21)
(0.00063442 0.000836994 4.65863e-21)
(3.38068e-05 -3.51775e-06 0)
(0.00138308 0.000149513 9.49191e-22)
(0.000678591 0.00121243 4.04462e-21)
(0.000418127 0.000295886 -5.34624e-22)
(0.000119155 -0.000428898 8.42683e-22)
(0.000979952 4.65871e-05 -2.63065e-21)
(0.000430684 0.000775148 0)
(0.00132198 0.000788186 3.60127e-22)
(0.000273511 0.000818481 0)
(0.000673748 0.00122233 -9.15349e-22)
(0.000713156 0.00125676 6.33783e-22)
(0.00069548 0.000866093 -1.33653e-21)
(0.000672996 0.00142062 -2.63798e-21)
(0.000301278 -0.000116833 3.17357e-21)
(0.000723761 0.00126111 2.22669e-21)
(0.00083203 0.000988296 -1.38968e-22)
(0.000621766 0.00110528 -1.01234e-23)
(0.000634296 0.00112846 -4.70492e-21)
(0.000428762 0.000856733 -2.1533e-24)
(0.000668651 0.00115445 7.67978e-22)
(0.00087138 3.95417e-05 0)
(0.000586256 0.000838236 -2.63494e-21)
(0.000285852 -0.000179572 1.94458e-21)
(4.02921e-05 -1.98717e-06 0)
(0.000232476 -0.000157497 1.13431e-21)
(0.000670094 0.00122381 -2.71058e-21)
(0.000714365 0.00125666 9.5254e-22)
(0.00062053 0.00104813 1.53328e-21)
(0.000580881 0.00103695 8.06974e-22)
(2.74648e-05 -4.89263e-06 4.88063e-21)
(0.000609745 0.00108651 1.48803e-21)
(0.000632458 0.0011212 -6.01415e-24)
(0.000623085 0.00110947 0)
(0.000731969 0.00129495 -8.36257e-22)
(0.000718822 0.00129021 -9.74827e-22)
(0.000118912 -5.82977e-05 2.15655e-26)
(0.00060502 0.000530154 9.62972e-22)
(0.000723554 0.00126723 0)
(0.000742969 0.00132966 7.54873e-22)
(0.000593494 0.00101042 0)
(0.000579288 0.00107932 1.26066e-21)
(0.000686446 0.00121949 -1.32609e-21)
(0.000598178 0.00108853 0)
(0.000606111 0.00110251 6.54631e-22)
(0.000585719 0.001066 6.50265e-22)
(0.000749403 0.0013199 -7.47171e-22)
(0.000564592 0.00107999 -1.86899e-21)
(0.000762912 0.00134344 -8.28188e-22)
(0.000585471 0.000279484 0)
(0.000806373 0.00143331 -7.76171e-22)
(0.000732838 0.00116323 -1.82355e-21)
(0.0001325 -6.69138e-05 -1.44974e-21)
(0.000643893 0.0010258 -3.24801e-23)
(0.000724962 0.00128536 1.03344e-21)
(0.000688441 0.00122058 6.98608e-22)
(0.000601762 0.00108885 0)
(0.000610057 0.00110275 -6.6853e-22)
(0.000588878 0.00106638 -6.64052e-22)
(0.000442712 0.000926301 -1.05729e-21)
(0.000731768 0.0013037 1.47969e-21)
(0.000290517 0.000372473 -6.92052e-22)
(0.000432557 0.000768119 2.1629e-21)
(0.000770516 0.00134357 -1.41837e-21)
(0.000486492 0.00104814 5.04539e-21)
(0.000834133 0.0014702 1.15384e-21)
(0.000678472 0.00117945 -9.5272e-22)
(0.00070978 0.00124261 -2.09768e-21)
(0.000614833 0.00107952 0)
(0.000622218 0.00109326 0)
(0.000602295 0.00105701 0)
(0.000647826 0.00131062 1.17802e-21)
(0.00062378 0.00110997 1.38782e-23)
(0.000631411 0.00112394 1.36276e-23)
(0.000610874 0.00108698 1.36489e-23)
(0.000706048 0.00126535 1.31994e-21)
(0.000754783 0.0013675 3.91437e-22)
(0.00066782 0.0011814 0)
(6.39667e-06 -5.69725e-05 0)
(0.000799381 0.00139144 -3.17858e-22)
(0.000730538 0.00128308 0)
(0.000596107 0.00107158 5.85992e-24)
(0.000603546 0.00108378 -9.72463e-22)
(0.000583611 0.00104947 -9.43964e-22)
(0.000676449 0.00122819 -8.7509e-22)
(0.000679447 0.00122768 -2.19935e-24)
(0.000827385 0.00146052 6.31254e-22)
(0.000687773 0.00105337 -1.58736e-21)
(0.000684749 0.00121766 1.72633e-23)
(0.000664844 0.00103438 2.30074e-21)
(0.000678465 0.0010565 7.94285e-22)
(0.000752973 0.00137364 9.30432e-22)
(0.000685361 0.00121863 -6.08189e-22)
(0.000583923 0.00105634 9.01645e-22)
(0.000603361 0.00109168 -1.76775e-21)
(0.000596279 0.00107862 9.17339e-22)
(0.000606679 0.00108776 -1.84287e-21)
(0.000614662 0.00110181 -6.07122e-22)
(0.000594142 0.00106517 -6.02881e-22)
(0.000744478 0.00133622 -5.74795e-22)
(0.000628911 0.00110933 -7.07657e-22)
(0.000853508 0.0014305 -3.58348e-22)
(0.000351981 0.000749425 -8.53731e-22)
(0.000660647 0.00116466 6.30496e-22)
(0.000215625 -0.00011908 0)
(0.00058998 0.0010701 0)
(0.000645834 0.00115928 5.81883e-22)
(0.00058673 0.00104961 -4.93375e-24)
(0.000781414 0.00139118 1.49279e-23)
(0.000712487 0.00125549 0)
(0.000672133 0.00119984 -6.15818e-22)
(0.000885995 0.000691655 1.96057e-21)
(0.000586772 0.00108361 1.1786e-21)
(0.000918726 0.000465945 1.29031e-21)
(0.000634535 0.00113243 7.49585e-22)
(0.000729188 0.00126664 8.92002e-24)
(0.000396191 0.000643183 2.39861e-21)
(0.000744356 0.00134892 -2.54751e-22)
(0.000790187 0.00138414 -6.92854e-22)
(0.00040294 0.000749669 -3.86822e-22)
(0.000723742 0.00124954 -1.35168e-21)
(0.000365444 0.000535696 1.32781e-21)
(0.00066474 0.00117549 7.83967e-22)
(0.00073387 0.00128449 1.49208e-21)
(2.6452e-05 -6.54549e-07 0)
(0.00057646 0.00103833 1.0232e-21)
(0.000624954 0.00105447 9.52908e-22)
(0.000838975 0.000731073 -3.0394e-23)
(0.000740481 0.00141398 -1.01527e-21)
(0.000615921 0.0010825 -2.11578e-21)
(7.03285e-06 1.23846e-05 -4.17672e-21)
(0.000781494 0.00137164 6.21894e-22)
(0.000680156 0.00119963 8.46155e-22)
(0.000672083 0.00120627 1.35866e-21)
(0.000652121 0.000994525 -7.80954e-22)
(0.000673383 0.00102871 -7.86493e-22)
(0.000665394 0.00101571 -7.94549e-22)
(0.000818958 0.00144735 -3.9373e-22)
(2.21963e-05 5.29376e-05 -1.58923e-21)
(0.000625502 0.00110352 -1.10848e-21)
(0.000153817 0.000201768 3.15244e-22)
(0.000547035 0.00106709 -1.31998e-21)
(0.00035242 0.000600695 3.03249e-21)
(0.000510493 0.000156032 -4.65978e-21)
(0.00079691 0.00142875 9.78023e-22)
(0.000823851 0.00143229 0)
(0.00034948 0.000516485 -4.35801e-22)
(0.000660046 0.00116828 -1.52245e-21)
(0.000667868 0.00110955 1.93494e-21)
(0.000284768 0.000328973 6.3159e-22)
(0.0008829 0.00139293 -6.72023e-22)
(0.000620328 0.00105078 8.42543e-22)
(0.000821888 0.00146535 2.33983e-21)
(0.00037964 0.000695129 9.18021e-25)
(0.0005204 0.000814649 -1.19966e-21)
(0.000643349 0.00110499 -2.03499e-21)
(0.000722119 0.0012908 -5.08168e-24)
(0.000588663 0.00104837 0)
(0.000646768 0.00121758 -3.16233e-23)
(0.000555222 0.00106018 1.29486e-22)
(0.000568109 0.00108282 1.31787e-22)
(0.00057671 0.00109733 1.30401e-22)
(0.000716224 0.00133304 1.26124e-22)
(0.000812844 0.00126587 -5.75201e-22)
(0.000634165 0.00112937 4.84945e-24)
(0.000629139 0.00110147 0)
(0.00061582 0.00107745 -1.9536e-21)
(0.000559236 0.00104481 0)
(3.01508e-05 0.000704379 8.18305e-22)
(0.000684432 0.00121971 6.44465e-22)
(0.000591059 0.0010493 -5.66254e-22)
(0.000548727 0.00038537 -7.82276e-22)
(0.000703879 0.00128037 5.79383e-22)
(0.000632626 0.00113166 7.74386e-22)
(0.000333907 0.000485088 -1.64126e-21)
(0.000657795 0.00116901 -5.92088e-22)
(0.000685454 0.00121378 -1.50226e-21)
(0.000595942 0.00105248 2.98775e-21)
(0.00061736 0.00108811 3.00751e-21)
(0.000608983 0.00107456 1.20199e-21)
(0.000611421 0.00108583 -1.00817e-21)
(0.000625028 0.00110978 0)
(0.000710128 0.00127823 -1.79292e-21)
(0.000777466 0.00138066 9.05776e-22)
(0.000651711 0.00106971 -6.2909e-22)
(0.000757834 0.00135082 6.98471e-24)
(0.000558779 0.00106645 2.18209e-21)
(0.000686717 0.00120021 8.86608e-22)
(0.000599171 0.00109099 0)
(0.000619612 0.00112821 0)
(0.00061202 0.00111407 0)
(0.000489744 0.00085257 -1.01913e-21)
(0.000448989 0.000787538 -2.43681e-21)
(0.00079668 0.00126865 -4.12781e-22)
(0.00075252 0.00132602 4.83811e-22)
(0.000686024 0.00121951 6.77548e-22)
(0.000634198 0.000814816 -4.28084e-21)
(0.000583953 0.00106527 4.95006e-24)
(0.000604561 0.00110169 4.98995e-24)
(0.000596531 0.00108776 0)
(0.00078824 0.00142472 5.17961e-22)
(0.000685728 0.00118429 3.49805e-22)
(0.000610474 0.00108487 -9.78394e-22)
(0.000790738 0.00141502 -1.60776e-21)
(0.000633055 0.00145622 8.74378e-22)
(0.000784142 0.00139784 0)
(0.000621798 0.000985355 0)
(0.000634028 0.00113513 0)
(0.000475205 0.000786654 8.58715e-22)
(6.694e-06 -1.67885e-05 -1.01184e-21)
(0.000609293 0.00109117 -5.50746e-22)
(0.000617369 0.00110527 0)
(0.000596641 0.0010685 0)
(0.000517107 0.000847576 0)
(0.000534338 0.000814789 -1.02322e-21)
(0.000661188 0.0011633 7.55821e-22)
(0.000570659 0.00104162 -1.24024e-21)
(0.000442297 0.000320798 1.29481e-21)
(0.000768862 0.00134408 1.31766e-21)
(0.000593562 0.00106053 -1.44693e-21)
(0.000643935 0.00113109 0)
(0.000586926 0.00106051 -6.11769e-22)
(7.87331e-06 -3.04739e-05 -8.21901e-22)
(0.000820166 0.00146504 0)
(0.0006347 0.00113356 -1.38393e-21)
(0.000725317 0.00127838 3.29329e-21)
(0.000673047 0.0011787 -6.10046e-22)
(0.000653916 0.00116239 -7.98464e-22)
(0.000338225 0.000693183 1.12357e-21)
(0.000383781 0.000535156 -1.79676e-21)
(0.00065077 0.000850502 -2.46131e-21)
(0.000803329 0.000296587 0)
(0.000768374 0.00119274 0)
(0.000662232 0.00116829 -7.64403e-22)
(0.000740652 0.00130228 -1.33909e-21)
(0.000571477 0.00058476 4.40645e-21)
(0.000779118 -1.58157e-05 1.45559e-24)
(0.000684259 0.00121586 5.22472e-22)
(7.28858e-05 0.000700479 1.11788e-21)
(1.8637e-05 -6.83268e-06 -4.99174e-21)
(0.000809675 -3.83181e-05 -1.11076e-21)
(0.000616031 0.001072 5.43982e-22)
(0.000595524 0.00103621 5.4028e-22)
(0.000608127 0.00105826 5.49636e-22)
(0.000473763 0.00123061 0)
(0.000429203 0.000275949 3.98012e-22)
(0.000585301 0.000245728 -1.32017e-21)
(0.000860538 0.00131589 -3.17343e-22)
(0.000280643 0.000561904 2.89972e-21)
(2.09366e-05 -2.75949e-06 1.89937e-21)
(0.000590797 0.00104919 -6.16912e-22)
(0.000578113 0.00104545 7.19081e-22)
(0.000914953 0.000181265 0)
(0.000596228 0.00107076 -8.58057e-22)
(0.000645043 0.00115354 -4.36179e-22)
(0.000670621 0.00158692 6.79375e-22)
(0.000266717 0.000309498 5.78286e-22)
(0.000725974 0.00127088 0)
(2.94491e-05 -2.55838e-06 3.64273e-26)
(0.000732605 0.00131104 3.89291e-22)
(0.000686694 0.00141563 -5.8562e-22)
(0.000625897 0.00109391 6.33358e-24)
(0.000560339 0.000895632 1.23773e-22)
(0.000668688 0.00119566 -8.64556e-22)
(0.000936212 0.000172674 0)
(0.000589301 0.0010507 -2.175e-23)
(0.00075468 0.00134039 4.45863e-22)
(0.00065738 0.00116005 1.43988e-21)
(0.000589098 0.0010642 6.57376e-24)
(0.000609326 0.00110082 6.60058e-24)
(0.000601471 0.00108678 6.27065e-22)
(0.000606093 0.0011658 -1.06352e-21)
(0.000755941 0.00131845 1.02233e-21)
(0.00082757 0.00145945 -2.30179e-21)
(0.000745877 0.00131914 -5.63889e-22)
(0.000683348 0.0012167 -1.04386e-21)
(0.000739214 0.000699199 4.39859e-22)
(0.000813567 0.0014608 4.35218e-22)
(0.000666473 0.000853252 -1.28338e-21)
(0.000607001 0.00106926 1.10028e-21)
(0.000704302 0.0012712 2.6515e-23)
(0.000800117 0.00142554 -2.00056e-21)
(0.000654694 0.00138018 -7.97356e-22)
(0.000683941 0.00121809 6.10007e-22)
(0.000273867 0.000394342 -1.69631e-21)
(0.000459953 0.000564468 2.10921e-21)
(0.000623899 0.00108503 -6.12545e-22)
(0.000594709 0.00106467 0)
(0.000615333 0.00110124 0)
(0.000607299 0.00108723 0)
(0.000730734 0.00133119 0)
(0.000652325 0.00113472 0)
(0.000613664 0.00107985 1.2688e-21)
(0.000634963 0.0011173 1.27756e-21)
(0.000626653 0.00110286 1.29081e-21)
(0.000633393 0.0011317 5.78984e-22)
(0.000538044 0.000347659 3.16724e-21)
(0.000715329 0.00124491 -2.47429e-23)
(0.000810293 0.00144285 0)
(2.53429e-05 -3.00549e-06 -1.85712e-21)
(0.000655322 0.0011711 5.49103e-22)
(0.000222822 0.000500622 2.94079e-21)
(0.000683385 0.00121715 -1.13706e-21)
(0.000779362 0.0014219 9.9632e-22)
(0.00058563 0.00100635 -1.09633e-21)
(0.000971103 0.000106947 1.47124e-21)
(0.000706331 0.0012831 1.64403e-21)
(0.000683759 0.00124942 0)
(0.00072224 0.0012766 -3.55163e-21)
(0.000715608 0.0012596 5.37708e-22)
(0.00063499 0.00113061 5.26511e-22)
(0.000632105 0.00112268 -6.24469e-22)
(0.000586443 0.00104808 0)
(0.000659275 0.00116668 -1.84693e-21)
(0.000656978 0.00117044 -5.39538e-22)
(3.8361e-05 -6.90281e-07 0)
(0.000588994 0.001024 -1.46433e-21)
(0.000715805 0.00128223 5.04689e-22)
(3.76013e-05 3.96417e-05 2.25544e-21)
(0.000585287 0.00104387 0)
(0.000647547 0.00113566 4.36405e-22)
(0.000790897 0.00142462 -5.25009e-22)
(0.000781408 0.000723161 -3.68307e-22)
(0.000673047 0.00118284 -8.45597e-22)
(0.000783655 0.00134221 -7.08878e-22)
(0.00078628 0.00136299 -5.50746e-22)
(0.000702962 0.00127772 0)
(0.000728312 0.001285 -1.87123e-23)
(0.000521365 0.000797321 -1.20209e-21)
(0.00115774 7.28277e-05 -1.89555e-21)
(2.90867e-05 3.68338e-05 2.12328e-21)
(0.000588202 0.00104782 9.64735e-24)
(0.000903991 0.00106641 6.67115e-21)
(0.000790546 0.00141794 5.23268e-22)
(0.000738015 0.00129794 -4.43859e-22)
(3.92504e-05 -1.82939e-07 3.17076e-21)
(0.000592348 0.00136493 0)
(0.00077293 0.000515767 3.1915e-21)
(0.000783845 0.00141573 0)
(0.000498058 0.00124138 2.51375e-22)
(0.000591788 0.0010365 9.59786e-22)
(0.000799981 2.14217e-05 -1.05189e-21)
(0.000698798 0.000953255 -4.16518e-22)
(0.000607214 0.00106493 1.07451e-21)
(0.000839502 0.00065683 -7.33538e-22)
(0.000628708 0.000861283 -1.24778e-21)
(0.000805281 0.00141832 4.42196e-22)
(0.000869834 0.00154142 0)
(0.000581347 0.00102386 1.03395e-21)
(0.000752043 0.00129537 -7.51339e-24)
(0.000529456 0.00125587 -2.27826e-21)
(0.000500153 0.000857971 -8.86249e-22)
(0.000126861 0.000135573 -1.9327e-21)
(0.000696841 0.0011604 7.25375e-22)
(0.00098588 0.000276567 4.53652e-22)
(0.000592849 0.000746355 8.41137e-22)
(0.000709995 0.000701988 -1.52462e-21)
(0.000715717 0.00142995 7.24744e-22)
(0.000440894 0.000283824 -1.35224e-25)
(0.000799869 0.00141497 -9.71052e-22)
(0.000595928 0.00081291 1.28875e-21)
(0.000747359 0.00128301 8.25041e-22)
(0.000431275 0.000762158 -1.02928e-21)
(4.11592e-05 -5.08104e-07 1.14885e-21)
(0.000301636 0.000349204 1.43106e-21)
(0.000543382 0.00104507 0)
(0.000342077 -0.000163493 -2.81876e-21)
(0.000765719 0.00079757 -3.05396e-21)
(0.000316246 0.000541807 0)
(0.000705511 -8.013e-06 1.7152e-24)
(0.00027142 -0.000130715 -4.64215e-21)
(2.89066e-05 4.2329e-05 -2.03001e-21)
(0.000838912 0.000241779 -1.63038e-21)
(0.000408461 0.00049734 1.04709e-21)
(0.000807738 -2.30241e-06 -2.04532e-21)
(0.000959704 0.000800671 1.38868e-21)
(0.000279128 0.000860805 8.53756e-22)
(0.000450638 0.00018571 -2.81365e-22)
(0.000158094 0.000426099 0)
(0.000677936 0.000679233 -2.34416e-24)
(0.000575029 0.000852771 2.37715e-23)
(0.000482005 0.00019389 9.29371e-22)
(0.000597959 0.000985489 -2.30589e-22)
(0.000393922 0.000496945 -1.03919e-21)
(0.000122427 0.000147281 1.56192e-21)
(0.000607811 0.00128943 -1.425e-21)
(0.000399934 0.000246214 0)
(0.000633457 0.000536521 0)
(2.52765e-05 0.000667997 3.65656e-22)
(0.000493791 0.000851165 -1.48426e-21)
(0.000366576 0.000492093 -8.85053e-22)
(0.000958731 0.000312275 1.79248e-21)
(0.00104734 0.00129049 5.86384e-22)
(0.000704993 0.00133227 -7.31374e-22)
(0.00032671 0.000230376 -1.53743e-21)
(0.000551395 0.000796396 0)
(0.000729289 -4.59566e-05 3.6338e-21)
(0.000737804 0.00127283 -1.56022e-21)
(0.000758297 0.0013297 6.037e-23)
(0.00038338 0.000303537 0)
(0.000395319 0.000522268 9.91948e-22)
(0.000656708 0.000305535 -1.32337e-25)
(0.000675556 0.00140405 1.9509e-21)
(0.000969716 0.000128856 1.74941e-21)
(0.000737485 0.00127405 0)
(0.000800881 0.00137966 2.08808e-23)
(0.000731512 0.00125987 -4.22231e-24)
(0.000636748 0.00109704 2.18688e-23)
(0.000659129 0.00113554 -4.93458e-23)
(0.000650424 0.00112044 2.22438e-23)
(0.00059494 0.00105527 -4.21029e-22)
(0.000615562 0.00109141 -4.2383e-22)
(0.000607551 0.00107759 -7.81575e-24)
(0.000373035 0.000777141 7.73594e-22)
(0.000716519 0.00131669 1.89463e-21)
(0.000495796 0.000986979 -1.30102e-23)
(0.000361978 0.000662485 1.50328e-21)
(0.000348693 0.000538512 4.60299e-22)
(0.000469155 0.000895508 0)
(0.000462116 0.000344846 1.3916e-21)
(0.000766818 0.00133587 -1.2916e-21)
(0.000390838 -5.51954e-05 1.40979e-25)
(0.000499883 0.000135368 0)
(0.00097743 6.19992e-05 2.17528e-21)
(0.000754135 0.00129446 0)
(0.000557258 0.00107926 -2.13388e-21)
(0.000913988 0.000183815 0)
(0.00064695 0.00129693 -8.97983e-22)
(0.000756783 1.68804e-05 -1.00779e-21)
(0.00105453 0.000688932 1.84594e-21)
(0.00053141 0.000131801 6.20621e-24)
(1.58657e-05 7.00632e-06 -1.94959e-21)
(0.000760869 0.000428915 1.74804e-21)
(0.000417437 0.000234456 0)
(0.000178574 -2.38252e-05 -2.56735e-21)
(0.000523133 0.000845469 2.64827e-22)
(0.000245309 0.000754967 0)
(4.13418e-05 8.46188e-07 -1.11091e-21)
(0.000461063 0.00064048 7.78908e-23)
(0.000962764 0.000538327 1.07161e-21)
(0.000720178 0.000215588 2.02999e-21)
(0.000497533 0.000617147 2.96865e-21)
(0.000853659 0.00156391 9.95021e-22)
(2.32314e-05 -6.19215e-06 2.04859e-21)
(0.000693117 0.00121932 9.22712e-22)
(0.000475185 0.000807919 0)
(4.51635e-05 0.000277249 -9.06499e-22)
(0.00062589 0.00111711 -9.03051e-22)
(0.000668407 0.00136632 -5.72098e-23)
(0.000641105 0.00132592 1.39422e-23)
(0.000741274 0.00149256 -5.56879e-23)
(0.000593767 0.00123599 -3.89009e-23)
(0.000782772 0.000918324 -5.04419e-21)
(0.00083717 0.00166261 0)
(0.00124453 0.000761687 5.74351e-22)
(0.00093609 0.000570183 9.46815e-22)
(0.000560703 0.000978659 0)
(4.0286e-05 1.95262e-06 -3.31985e-21)
(0.000641424 0.00126311 0)
(0.000503435 0.000670646 5.46123e-22)
(0.000926804 0.000518816 5.06987e-22)
(0.000651762 0.00115466 4.67753e-24)
(0.000756849 0.00133051 -2.8277e-21)
(0.00047314 0.000315303 0)
(0.000887422 0.00155548 -1.63732e-21)
(4.00506e-05 4.11306e-05 0)
(3.23984e-05 4.31025e-06 1.42355e-21)
(0.000589668 0.00104666 0)
(0.00076747 0.00126258 -9.51848e-22)
(0.00108808 0.000859739 -1.12504e-21)
(0.00113838 0.000908504 1.0019e-21)
(0.000748957 0.00130258 -2.16941e-21)
(0.000495246 0.00105282 -4.2451e-23)
(0.000630769 0.00129353 -4.42187e-23)
(0.000539839 0.00114162 5.68915e-23)
(0.000563129 0.00117461 -4.35289e-23)
(0.000725945 0.00146445 -5.33846e-23)
(0.00103943 0.000947008 2.18335e-21)
(0.000761742 0.0012892 0)
(0.000196685 0.00049464 0)
(0.000259649 0.00118708 1.27262e-21)
(0.000261071 0.000533956 -3.27653e-21)
(4.14796e-05 -7.097e-05 0)
(0.000339773 0.000500526 0)
(0.000789891 0.00135343 -8.1681e-22)
(0.000823151 0.00144285 3.58301e-22)
(0.000809203 0.00138912 -1.11704e-21)
(0.000640687 0.00113177 -6.72851e-22)
(0.000415216 0.000897494 -6.18377e-24)
(0.000732029 0.00126872 7.59434e-24)
(0.000624763 0.000225893 -3.47951e-21)
(0.000865726 2.18262e-05 0)
(0.000759339 4.15441e-05 2.9209e-21)
(0.000117912 0.000336954 -9.41646e-22)
(0.000749731 0.00129634 3.44299e-22)
(0.000721683 7.38217e-05 0)
(0.00019014 1.30161e-05 1.17885e-21)
(0.000300783 0.000452664 -1.71766e-24)
(0.000735895 0.001269 -3.70981e-22)
(0.000857418 -2.03039e-05 0)
(0.000437108 0.000404152 -3.04711e-21)
(0.000659185 0.00135466 0)
(0.000589208 0.00123271 0)
(0.000519869 0.00110682 0)
(0.000498632 0.00106792 0)
(0.000511118 0.00109143 0)
(0.000740749 0.000332296 6.92781e-22)
(8.72659e-05 0.000213511 -2.18347e-21)
(0.000299438 0.000268597 2.51168e-21)
(0.000764886 0.00155315 -5.02741e-23)
(0.000595161 0.00125229 -9.14582e-23)
(0.000608697 0.00127763 -9.28644e-23)
(0.000617961 0.00129372 -9.12976e-23)
(0.000691824 0.00142684 -9.07351e-23)
(0.000786062 0.00133523 2.95124e-21)
(0.000778588 0.00135269 0)
(0.000800201 0.000763819 1.62017e-21)
(0.000629033 0.00112623 9.60662e-22)
(0.000350016 0.000453137 1.55598e-21)
(0.000901206 0.00028042 1.17427e-21)
(0.000598565 0.00110089 9.68053e-22)
(0.00044599 0.000500552 -6.13097e-22)
(0.000356363 0.000584017 1.13105e-21)
(0.000734676 0.00127409 0)
(0.000996896 0.000836079 -1.87839e-21)
(0.000482585 0.000928222 -6.09858e-22)
(0.000432345 0.000822524 4.59908e-22)
(9.20058e-05 0.000538483 -8.90784e-22)
(0.000740464 0.00128227 6.84425e-22)
(0.000749677 0.000422227 -1.85504e-21)
(3.9051e-05 -7.92582e-08 1.3553e-21)
(0.00107624 2.60649e-05 0)
(0.000245199 0.000552116 2.14164e-24)
(0.000332827 0.000472594 9.35528e-22)
(0.000764349 0.000749764 -2.63843e-22)
(0.00160152 0.000426703 6.58353e-22)
(0.000142009 0.000745685 7.66161e-22)
(0.00047196 -6.76436e-05 0)
(0.00072381 0.000265591 0)
(6.9837e-05 -0.000110012 -3.80698e-22)
(0.00100066 0.000161363 1.95672e-21)
(3.85421e-05 3.84375e-06 6.61692e-26)
(0.000485802 0.00037111 -3.17601e-25)
(0.000876148 0.00153107 -6.42721e-22)
(0.000622171 0.00109008 3.13554e-21)
(0.000702105 0.00124926 0)
(0.000350544 0.000584902 0)
(0.00048906 0.000764655 -2.21705e-21)
(0.000551011 -0.000189181 2.28659e-21)
(0.00066929 0.00118544 -7.26398e-22)
(0.000734123 0.000721639 -5.1688e-22)
(0.000360891 0.000589359 1.10077e-21)
(0.00117329 5.73973e-05 -3.31145e-21)
(0.000789494 0.00078669 -1.82804e-24)
(3.79648e-05 -3.69981e-06 -1.35035e-21)
(0.000351627 0.000635697 2.32543e-21)
(0.000627006 0.00110663 2.18754e-21)
(0.000914004 0.000189909 8.28025e-22)
(0.00088586 0.000293791 -1.08087e-21)
(0.000560836 0.000258157 2.83442e-21)
(0.000813439 0.00136728 3.06994e-22)
(0.000378187 0.000634939 0)
(0.000841654 0.00069499 -8.54608e-22)
(0.000725344 0.00129103 -3.10333e-21)
(0.000587337 0.00103444 -1.33027e-23)
(2.51799e-06 1.69924e-05 -1.43735e-21)
(0.000168727 0.00023671 -1.20232e-21)
(0.000519395 0.000708296 -6.03435e-21)
(1.05416e-05 7.88917e-06 0)
(0.00068506 0.00121655 4.81367e-22)
(0.000364939 0.000467208 1.69824e-21)
(0.000668415 0.00116114 2.17144e-21)
(0.000627882 0.00113381 -8.38642e-22)
(0.000989426 0.000763044 -4.56701e-21)
(0.000213126 -2.53875e-05 1.79303e-25)
(0.000938765 0.000848399 7.52266e-24)
(0.000553228 0.000459988 -2.14068e-22)
(0.000743581 0.00131518 1.4986e-22)
(0.000814332 0.0014355 1.78129e-23)
(-9.7635e-05 0.0011174 -1.23361e-21)
(0.000885751 0.00157933 -9.22092e-22)
(0.00069082 0.00117376 -1.02018e-21)
(0.000513882 0.000890676 2.28449e-21)
(0.000728687 0.00127301 -3.51441e-22)
(0.000390806 0.000663507 0)
(0.000377914 0.000279717 -1.23815e-21)
(0.00150269 0.0011909 -7.92283e-22)
(0.0003363 0.00053883 0)
(0.000950385 0.000292782 0)
(0.00081786 0.000507765 4.24072e-21)
(1.38488e-05 -2.56566e-05 4.09584e-21)
(0.000733629 0.00126529 0)
(0.0006961 0.000586619 4.32776e-22)
(0.000662097 0.00111028 7.93876e-22)
(0.000673559 0.00112289 3.98052e-22)
(0.000648461 0.00108729 0)
(0.000802243 0.00146896 -6.87535e-23)
(0.000499195 0.000101889 -1.32072e-21)
(0.000151515 1.28989e-05 2.83048e-22)
(0.000716716 0.000577679 -1.69146e-21)
(1.59917e-05 -3.28832e-06 -4.12345e-21)
(0.000623542 0.00107497 -1.19939e-21)
(0.000557286 0.00106204 2.09771e-23)
(0.000691966 0.00129382 -6.31701e-23)
(0.000612796 0.00115709 3.15139e-23)
(0.000624668 0.00117941 -6.35283e-23)
(0.000894529 0.00149739 3.64213e-21)
(0.00122825 0.00133584 7.63746e-24)
(0.000716359 0.000665151 -1.22068e-24)
(0.000307983 0.000610265 -5.73286e-21)
(0.000530846 0.00041053 -5.79626e-25)
(0.00014838 0.000138521 4.06383e-21)
(0.000499196 0.00053913 -7.8608e-21)
(0.000116349 0.00053086 5.65786e-22)
(8.51512e-05 0.000195612 3.35178e-21)
(0.000399282 0.000801115 -2.07143e-24)
(0.000273014 3.01115e-05 -8.95362e-22)
(0.000618949 0.000264147 5.25116e-21)
(0.000506324 5.43729e-05 -3.87255e-25)
(0.000474021 0.00101883 6.99407e-22)
(6.88328e-05 0.000383019 -2.07805e-21)
(0.000589724 4.21612e-05 -6.0042e-24)
(0.00121827 0.000223622 -1.37339e-21)
(4.19597e-05 -1.73785e-06 -7.78521e-22)
(0.000890756 0.000210773 2.59321e-21)
(0.000742378 0.00102719 -1.20111e-21)
(0.000886413 0.00153013 4.67894e-22)
(0.000240874 0.000618178 -7.35941e-22)
(0.000597804 0.000435633 4.66953e-22)
(0.00063618 0.0012304 1.12955e-21)
(0.000627739 0.0011345 1.65335e-21)
(0.000728863 -0.000357937 0)
(0.000422204 0.00132302 -5.72306e-22)
(0.00105884 0.000905895 0)
(-0.000148893 0.0010859 1.05005e-21)
(0.000897716 0.000535855 9.20268e-22)
(0.000357732 0.000741888 0)
(0.000733932 0.0012584 0)
(0.000328971 0.000595302 0)
(0.000605408 0.00110171 4.32198e-21)
(0.000211062 0.00072981 -1.3726e-21)
(3.56813e-05 -3.77522e-06 -2.2247e-21)
(2.18288e-05 -9.70821e-06 1.95807e-21)
(0.000508045 0.000870469 2.65562e-21)