/*--------------------------------*- C++ -*----------------------------------*\
  =========                 |
  \\      /  F ield         | OpenFOAM: The Open Source CFD Toolbox
   \\    /   O peration     | Website:  https://openfoam.org
    \\  /    A nd           | Version:  8
     \\/     M anipulation  |
\*---------------------------------------------------------------------------*/
FoamFile
{
    version     2.0;
    format      ascii;
    class       volVectorField;
    location    "8.8";
    object      U;
}
// * * * * * * * * * * * * * * * * * * * * * * * * * * * * * * * * * * * * * //

dimensions      [0 1 -1 0 0 0 0];

internalField   nonuniform List<vector> 
17372
(
(0.000653821 0.00113197 1.15486e-21)
(7.85198e-05 0.000244762 4.21696e-21)
(0.000608342 0.00106334 1.25723e-23)
(0.000555815 0.000992183 1.56346e-21)
(0.000109282 2.64149e-05 -2.48161e-22)
(6.81556e-05 0.000250667 -1.95011e-21)
(0.000635794 0.00108898 1.01454e-22)
(0.000255887 0.000543396 -4.70667e-22)
(0.000609781 0.00106525 -2.06938e-22)
(0.0004759 0.000632692 4.97482e-22)
(0.000578721 0.000939598 -1.13138e-21)
(0.000131313 0.00018498 1.02016e-21)
(0.00120009 6.43413e-05 1.39504e-21)
(0.000954829 8.83214e-05 1.05589e-21)
(0.000632862 0.00109513 -1.11045e-22)
(0.000206286 0.000401575 -5.42349e-22)
(0.000129217 0.000175668 -1.55549e-21)
(0.000400628 0.000191451 1.07921e-21)
(0.000980427 4.26693e-05 3.53236e-25)
(0.000192766 0.000597447 0)
(0.000630293 0.00109434 -5.19011e-23)
(0.000583857 0.00110416 -1.49353e-22)
(0.000656183 0.0011363 -1.50398e-21)
(0.000211057 0.000593096 -3.23972e-21)
(0.000425991 0.00012644 -2.99181e-21)
(0.000629115 0.00109582 5.20352e-23)
(0.000655706 0.00113631 4.35147e-24)
(0.000568503 0.000957808 4.18904e-22)
(0.00100996 7.91847e-05 8.26021e-22)
(0.000655903 0.00113645 -7.61856e-22)
(0.000616959 0.00106852 -2.17106e-22)
(8.98349e-05 8.85222e-05 1.37328e-21)
(0.000656097 0.0011364 -5.64938e-24)
(0.000628503 0.00109589 -2.44063e-22)
(0.000170523 0.000720652 5.36529e-22)
(0.000485656 0.000852085 -4.76723e-24)
(0.000629241 0.00109608 0)
(0.000262168 0.000176667 -3.00218e-23)
(0.000511859 0.000892405 2.86516e-22)
(0.000452207 0.000832026 3.64439e-23)
(0.000655621 0.00113611 4.79019e-24)
(0.000568635 0.00101345 2.48354e-22)
(0.000594168 0.00102997 3.35949e-22)
(0.000658455 0.000581329 2.77324e-23)
(0.000489676 0.000846151 0)
(0.000656307 0.00113626 7.38481e-22)
(4.53638e-05 0.000200682 4.00146e-22)
(0.000258253 0.000451242 -9.31562e-23)
(0.000628948 0.00109619 -1.75322e-22)
(0.000501589 0.000856733 4.55539e-22)
(3.33195e-05 0.000261191 9.68451e-22)
(0.000632923 0.00109221 3.09796e-22)
(0.000504993 0.000859771 -5.21414e-24)
(0.000616807 0.00107354 7.64927e-22)
(0.00041051 0.000183405 -8.63616e-22)
(0.000219848 0.000122211 -2.73368e-22)
(0.000627978 0.00109532 -2.01254e-22)
(0.000523222 0.000976401 1.57093e-23)
(0.000617249 0.00106556 -2.42498e-22)
(0.000220876 0.000509606 -7.915e-22)
(0.000489865 0.000846044 9.99179e-24)
(0.000464264 0.000566363 -4.05053e-22)
(0.000655978 0.00113647 7.54775e-22)
(0.000617933 0.0010498 6.27384e-22)
(0.000569635 0.000922598 -5.40902e-24)
(0.000211695 0.000514321 9.78181e-22)
(0.000483545 0.000845758 -2.65346e-22)
(0.000472278 0.000873428 -4.90007e-23)
(0.000450063 0.00124203 -1.8678e-24)
(0.000272785 0.000196924 2.0736e-22)
(0.000711396 0.000409708 0)
(0.000248928 0.000436662 1.78497e-22)
(0.000731321 0.00126544 -3.12717e-22)
(0.000491958 0.000850062 9.43859e-22)
(0.000552825 0.000918543 -9.74367e-22)
(0.000596474 0.00102838 -1.03108e-21)
(0.000545771 0.000943205 -3.40662e-22)
(0.000617159 0.00107937 0)
(0.000541509 0.00118414 4.72954e-22)
(0.000518927 0.000966172 -2.58212e-21)
(9.73071e-06 0.000229062 0)
(0.000470097 0.000835962 3.33647e-22)
(0.000521529 0.000889266 -7.72061e-22)
(0.000112721 3.30952e-05 -1.32289e-21)
(8.69467e-06 0.000236285 -1.26282e-22)
(0.000627861 0.00110351 0)
(0.000498537 0.000853059 -9.29347e-22)
(0.000545897 0.000958529 -9.25922e-25)
(0.000629869 0.00109653 1.57413e-22)
(1.13434e-05 0.00042258 0)
(0.000705902 0.001282 -7.17413e-23)
(0.00062604 0.00110112 6.386e-23)
(0.000467632 0.00048873 0)
(0.000588183 -4.12766e-05 -9.28763e-22)
(7.06154e-06 0.000500037 -6.38994e-22)
(0.000655746 0.00113579 8.40276e-22)
(0.000950065 -3.94842e-05 0)
(4.55266e-05 0.000192778 1.84461e-22)
(0.000417707 0.000168471 -9.49168e-22)
(0.000240843 0.000558948 2.1495e-25)
(0.000871119 0.000270614 -5.42295e-22)
(0.000483501 0.000834912 7.88239e-22)
(0.000267484 0.000186593 -1.1847e-22)
(0.000154363 0.000344833 -1.03883e-21)
(0.000615763 0.00106174 0)
(0.000627989 0.00109777 7.00279e-24)
(0.000626427 0.0010686 1.55307e-24)
(0.000964355 0.000871328 -4.14718e-21)
(0.000126008 0.000123216 0)
(0.000487127 0.000841163 -1.40889e-21)
(0.000742696 0.00149782 0)
(0.000299224 0.0003017 1.01034e-21)
(0.000490039 0.00084603 8.20852e-22)
(0.000502244 0.000861507 -8.8527e-22)
(0.000598028 0.00104343 0)
(0.000475159 0.000829805 -9.80673e-23)
(0.00049303 0.000851251 -8.39902e-22)
(0.000625889 0.00109722 -1.46529e-22)
(0.000645289 0.00116933 0)
(0.000496103 0.000856277 0)
(0.000613619 0.0010653 2.1702e-22)
(0.000498978 0.000860395 -2.14529e-22)
(0.000615988 0.00106395 2.36457e-22)
(0.000510831 0.00089955 1.07664e-22)
(0.000279772 0.000207546 -1.22339e-22)
(0.000615174 0.00106067 2.48847e-22)
(0.000586663 0.00101083 7.247e-22)
(0.000495371 0.000509331 3.51764e-22)
(6.75883e-05 -9.1488e-06 -6.39092e-22)
(0.000501565 0.000861964 -4.34165e-22)
(0.000613133 0.0010565 -2.73077e-22)
(0.000583064 0.00100587 0)
(0.000655767 0.00113641 7.7978e-22)
(0.000501985 0.000858744 4.49501e-22)
(0.000590692 0.00101763 2.31067e-22)
(0.00048477 0.000520786 4.77007e-22)
(0.000515196 0.000946176 -5.53287e-22)
(0.000593711 0.00102329 -2.1312e-22)
(0.000590287 0.00131018 -5.82017e-22)
(0.000134715 0.000139257 -8.28e-22)
(0.000498867 0.000603567 8.6676e-22)
(0.000596956 0.00102875 2.05051e-22)
(0.00060339 0.00104069 0)
(0.000610117 0.00105091 -2.94112e-22)
(4.22139e-05 0.000484236 8.32777e-23)
(0.000603464 0.00104118 0)
(0.000605714 0.00104323 4.82621e-24)
(0.000973871 4.3845e-05 -7.94629e-22)
(0.00067557 0.000648512 -8.12676e-22)
(0.000556385 0.000998945 -1.31318e-24)
(0.000294863 0.000516591 -9.37884e-23)
(0.00050972 0.000873558 -8.06403e-22)
(0.000595886 0.00130934 -4.50137e-24)
(0.00073244 0.0012662 2.83124e-22)
(2.26836e-05 0.000346197 7.67179e-22)
(0.000522254 0.000901592 3.40613e-22)
(0.00102758 0.000978748 6.35955e-22)
(8.25224e-05 1.88324e-05 -4.68367e-23)
(8.11963e-05 0.000515158 -1.75382e-21)
(0.00048103 0.000829775 9.74199e-22)
(0.000613204 0.00105694 -5.72146e-22)
(0.000127679 0.000140858 -4.32138e-22)
(0.000572205 0.000992733 6.90686e-22)
(0.000604967 0.000124262 2.04319e-21)
(0.000656175 0.00113535 4.43305e-24)
(0.000690999 0.000518697 8.06925e-22)
(0.000582296 0.0010002 -1.22284e-21)
(0.000646677 0.000240158 -9.84019e-22)
(0.000297874 0.000519236 1.84506e-22)
(0.000488963 0.000835522 -5.26937e-22)
(0.000377869 0.000917752 -5.24617e-23)
(0.000483373 0.000838463 1.44427e-22)
(0.000516561 0.000907794 1.87256e-21)
(0.000282007 0.000319993 9.98876e-22)
(0.00058106 0.00100329 -1.05952e-21)
(0.000493847 0.000862632 3.85891e-22)
(0.000563072 0.000942475 -1.78004e-22)
(0.000188825 0.000587592 9.73194e-22)
(0.000485517 0.00057165 2.52543e-22)
(0.000135328 0.000154598 -5.60575e-23)
(0.000172628 0.000714282 1.07354e-21)
(0.000567953 0.00097363 1.38931e-21)
(8.06299e-06 0.00040755 0)
(0.00022751 0.000419763 4.84348e-23)
(0.000504891 0.000869582 -4.10183e-22)
(0.00061753 0.00106382 -4.36912e-24)
(0.000650421 0.00119165 -5.21143e-23)
(5.74394e-05 0.000143882 2.84157e-22)
(0.000452595 0.00121595 -1.91067e-23)
(4.35455e-05 3.37952e-05 3.59543e-22)
(0.000490624 0.000896574 5.97107e-23)
(0.00027989 0.000525861 -6.93778e-22)
(0.000522383 0.000927527 -2.40486e-22)
(0.000252657 0.000433973 0)
(0.000500053 0.000860865 1.30965e-21)
(5.45552e-05 0.000120948 0)
(0.000436883 0.000868198 0)
(0.000672672 0.00118533 1.39431e-22)
(0.000235649 0.000248545 -5.4166e-22)
(0.00117595 0.000820475 0)
(4.81099e-05 0.000119647 -3.85091e-22)
(0.000436426 0.000631902 -6.64199e-23)
(0.000428444 -1.55799e-05 -2.42055e-25)
(0.000526039 0.000914646 -5.61275e-22)
(0.000423614 0.000769697 -1.1723e-23)
(9.64872e-05 2.39023e-05 9.82744e-22)
(0.000563353 0.000984146 0)
(0.000823425 0.00040207 1.41495e-22)
(0.000628598 0.00109623 -5.3866e-24)
(0.000606363 0.00104678 3.21354e-22)
(0.0005373 0.000923029 -8.01795e-22)
(0.000655613 0.00113625 7.98892e-22)
(0.000557916 0.000952553 -2.16318e-21)
(0.000544575 0.000936021 7.67902e-22)
(5.87882e-05 0.000162186 0)
(0.000533471 0.000919337 0)
(0.000544437 0.000950045 1.05305e-21)
(0.000544733 0.000962228 1.94233e-21)
(0.000883953 0.00025066 5.56023e-22)
(0.000607992 0.00116449 -6.77137e-23)
(0.000545823 0.000925442 -4.1902e-22)
(0.000202086 0.00052728 0)
(5.77362e-05 0.000132008 9.60556e-23)
(0.000959795 0.000138674 -2.91995e-21)
(0.00060975 0.00105093 -3.07241e-22)
(0.000408652 -7.2381e-06 2.47942e-21)
(0.000632876 0.00109849 3.57089e-23)
(0.000280012 0.000762988 3.03744e-21)
(-0.000457393 0.000371779 -1.4751e-23)
(0.000480222 0.00082759 0)
(0.000256773 0.000166941 2.51929e-22)
(0.000586763 0.00101959 1.04503e-21)
(0.000472956 0.0004586 -1.43258e-21)
(0.000704092 0.00127707 1.08456e-21)
(0.000705168 0.00126555 2.21542e-21)
(0.000974262 5.51521e-05 1.19789e-22)
(0.000392125 0.000529534 -7.88658e-22)
(0.000243811 0.000439022 0)
(0.000396442 0.00112449 5.91919e-24)
(0.000477817 0.000846005 -5.89985e-22)
(0.000620789 0.00107001 -3.89537e-22)
(0.000564921 0.000996198 8.75824e-22)
(8.69472e-05 2.04397e-05 0)
(0.00044111 0.00022892 1.04859e-21)
(0.000877909 0.000484419 1.01084e-21)
(0.000657301 0.00113498 0)
(0.000953313 9.04646e-05 -8.81964e-22)
(0.000506578 0.000865418 -4.38425e-22)
(0.000442181 0.000797514 2.71754e-23)
(6.60252e-05 1.33084e-05 -1.93025e-22)
(7.47131e-05 -1.7034e-06 2.35698e-21)
(0.000520925 0.000898573 -5.51307e-22)
(0.000427218 0.00113151 8.04896e-25)
(0.00062435 0.00110325 1.61746e-22)
(7.37055e-05 1.55067e-05 1.3081e-21)
(0.000514945 0.00089465 -7.90261e-25)
(0.000575739 0.000997472 8.53598e-22)
(3.88097e-05 0.000210374 -2.30496e-22)
(0.000564437 0.000942547 -1.95369e-22)
(0.000627669 0.000151253 1.00005e-22)
(0.000742382 0.00135359 7.49621e-23)
(0.000575862 0.00102218 -3.86934e-24)
(0.000605088 0.000113123 -1.17126e-21)
(0.000392403 -2.47677e-06 -3.11352e-21)
(6.50714e-05 -4.69373e-06 9.41673e-22)
(0.000185247 0.000141218 -4.4445e-22)
(0.000754923 0.00128888 -8.64091e-22)
(0.000368539 0.000272467 3.43748e-21)
(0.000634606 0.00113796 0)
(4.71962e-05 0.000104071 -4.66349e-22)
(0.000432802 0.000785587 -1.44654e-21)
(0.000658648 0.0011347 -4.87493e-24)
(6.4883e-05 0.000507231 5.04215e-21)
(0.00111413 -0.000176568 -2.04223e-22)
(0.000645689 8.49809e-05 0)
(0.000482409 0.000862198 0)
(0.000497227 0.000857592 -6.42123e-22)
(0.00103754 -9.45456e-06 -4.06858e-22)
(0.000586612 3.42119e-07 7.69757e-22)
(0.00039882 0.000540945 2.19786e-22)
(0.000635004 8.02984e-05 0)
(6.34182e-05 6.33149e-05 -1.76161e-21)
(0.000440819 0.00105247 0)
(4.36394e-05 9.36534e-05 7.18735e-22)
(0.000655628 0.00113599 -8.1734e-22)
(0.00146065 0.00113075 -2.10776e-21)
(0.000560789 0.000982123 0)
(0.000474469 0.000809257 -1.16792e-24)
(0.000476757 0.00081582 0)
(0.000346406 0.000440437 0)
(0.000213875 0.000376017 0)
(0.000855787 0.000553692 -7.98465e-22)
(0.000478322 0.000824496 -5.58799e-22)
(0.000331875 0.000558016 -1.11762e-22)
(0.000334488 0.000492271 2.19152e-21)
(0.000550159 0.000936206 -1.64816e-22)
(0.000455121 0.000819056 6.78725e-22)
(0.000896042 0.000168895 2.61311e-25)
(0.000498615 0.00119085 6.28649e-22)
(0.000580474 0.00103137 -1.70408e-24)
(0.000644186 0.00125008 -4.0079e-24)
(4.02341e-05 8.40338e-05 7.95446e-22)
(0.000591976 0.00103149 -1.69227e-22)
(4.60485e-05 0.000114039 4.04674e-22)
(4.90416e-05 -2.84938e-06 1.05937e-21)
(0.000672024 0.000607929 -2.47836e-22)
(0.00069604 0.00119225 -9.88358e-22)
(0.000559756 0.000928455 0)
(0.000194629 0.000367757 0)
(0.000332127 0.000265063 1.07394e-21)
(0.000592522 0.00106904 4.31435e-24)
(0.000968544 0.000101302 4.1031e-21)
(0.000553727 0.000948211 7.51031e-22)
(3.6855e-05 7.50538e-05 5.44796e-23)
(0.000333073 0.000555927 -9.68435e-22)
(0.000184564 0.000585955 7.39403e-22)
(0.000662007 0.00113497 -9.33977e-22)
(0.000207964 0.000336797 -3.59001e-23)
(0.000462025 -9.01173e-05 -1.99892e-21)
(0.000626572 0.00109517 -1.31432e-22)
(8.86263e-05 0.000927889 -1.07292e-22)
(0.000875949 0.000375205 0)
(0.000605523 0.00104453 0)
(0.00109529 4.14793e-05 1.09153e-22)
(0.000627148 0.001114 0)
(0.000180218 8.2648e-05 5.94363e-22)
(1.75006e-05 0.000489718 0)
(3.37748e-05 6.71605e-05 4.46442e-23)
(0.000425926 0.000317107 6.50136e-22)
(0.000501682 0.000893036 0)
(0.000599081 0.00103469 0)
(0.000906127 0.000788016 -1.04392e-23)
(0.0001768 0.000112099 3.25062e-22)
(0.000539333 0.000931558 -7.48139e-23)
(0.000602697 0.00104326 -7.24904e-22)
(0.000570356 0.000984029 0)
(3.06915e-05 5.96244e-05 -3.81348e-22)
(0.000730955 0.00126418 3.38391e-22)
(0.000611962 0.00104826 -3.55197e-22)
(0.000448569 3.00694e-05 0)
(0.000617809 0.00106883 3.55265e-22)
(0.000261155 0.000337877 2.60226e-21)
(0.000518377 0.000734311 -1.12153e-21)
(0.000589828 0.00101095 1.15096e-21)
(0.000619868 0.00113777 -5.18725e-23)
(0.000510356 0.000893224 -3.50398e-22)
(5.84816e-05 5.21028e-05 -4.43674e-22)
(0.000594232 0.00111358 3.80394e-23)
(0.000643272 0.00113775 -3.60542e-22)
(0.000426606 0.000782101 1.17108e-21)
(2.80932e-05 5.30908e-05 3.90979e-22)
(7.31923e-05 0.000608876 -3.85329e-22)
(5.91425e-05 0.000138952 -9.95233e-22)
(0.00057388 0.00103661 -9.69899e-23)
(0.00060262 0.00103473 -3.32654e-22)
(6.64011e-05 1.67189e-05 -7.55366e-22)
(0.000191577 0.000593851 1.39776e-21)
(0.000568873 0.000990596 -8.76234e-22)
(2.57499e-05 4.70484e-05 -3.81887e-22)
(0.00058264 0.00100198 -2.46571e-22)
(0.000314728 0.00028479 1.35546e-21)
(2.30672e-05 4.05437e-05 5.48216e-22)
(0.000614344 0.00105449 3.40422e-22)
(0.000595562 0.00102459 0)
(0.000594356 0.00102494 -2.52631e-22)
(2.1464e-05 3.61977e-05 -8.98047e-23)
(4.27817e-05 -8.32731e-06 1.88646e-22)
(0.000516412 0.000622549 -6.78497e-22)
(0.000590695 0.00101846 -2.92554e-22)
(0.00102976 -1.01789e-05 4.37917e-22)
(0.000495983 0.000871165 -8.25033e-22)
(0.000181474 0.000128869 -9.82601e-22)
(0.000170272 0.000117148 1.04258e-22)
(0.000978467 0.000147144 0)
(0.000755413 0.000881238 0)
(1.96376e-05 3.19881e-05 -1.79726e-22)
(0.000490956 0.000877322 -1.02819e-22)
(0.000646915 0.00124433 -9.72884e-24)
(0.0007033 1.66499e-05 -1.12118e-22)
(5.76098e-05 -3.69189e-06 0)
(5.60239e-05 0.000125926 7.15454e-22)
(0.000474566 0.000816406 -9.10681e-22)
(0.000202054 0.000587617 0)
(0.000494296 0.000853035 0)
(1.65202e-05 1.223e-06 4.63315e-22)
(0.00054198 0.000497966 -1.49416e-21)
(0.000605996 0.00105605 4.77176e-22)
(0.000499875 0.000855303 -5.41513e-24)
(0.000386239 0.00052102 -8.5695e-25)
(0.000681181 0.000541356 -1.44708e-24)
(0.000217619 0.000490979 5.08666e-22)
(0.000105644 5.88975e-05 -4.89488e-26)
(0.000655867 0.00113561 1.20909e-23)
(0.00128544 0.00111809 1.40105e-21)
(0.000123489 4.07385e-05 1.81076e-21)
(0.00067663 0.00143149 3.88304e-24)
(-7.91872e-05 0.00101429 2.66734e-24)
(2.54799e-06 -4.1158e-06 0)
(5.21136e-05 -2.98294e-06 -1.57053e-21)
(0.000461842 -0.000189792 -1.76011e-21)
(0.000572695 0.000976736 3.15354e-22)
(0.000898785 -0.000315083 0)
(0.000442725 0.000438415 9.48583e-22)
(0.000663214 0.00114016 0)
(0.000729664 0.00126209 0)
(0.000554739 0.000937801 1.74455e-22)
(0.000870857 0.000357231 -1.21125e-21)
(0.00039882 0.000846303 0)
(0.000131346 0.000191719 0)
(0.000695006 0.00127028 -1.06658e-21)
(8.6428e-05 2.54496e-05 -9.6208e-23)
(4.63069e-05 0.00100491 -1.06646e-21)
(0.000480181 0.00124829 -1.19656e-23)
(0.000504134 0.000871111 8.18007e-22)
(0.00060514 0.00104432 -3.56813e-22)
(7.3509e-05 -1.09555e-05 0)
(0.000663424 0.00113565 -1.90031e-21)
(0.000110588 7.18655e-05 8.67812e-22)
(0.000442479 0.000850853 -2.11994e-21)
(0.000625718 0.00110451 5.11339e-22)
(0.000564312 0.000268146 1.20766e-21)
(0.00103725 -8.91153e-06 -1.51715e-21)
(0.000523986 0.000911666 -4.0088e-22)
(0.00105098 -1.87751e-06 4.25827e-22)
(0.000607225 0.00104311 3.24184e-22)
(0.000469976 0.0010458 8.47029e-22)
(5.31198e-05 0.000437658 1.43889e-21)
(0.000720282 0.00126792 -2.29814e-22)
(0.0011349 0.000667209 -6.80996e-22)
(0.000229202 0.000651276 5.94926e-22)
(0.000652846 0.000550195 1.37865e-21)
(0.000660042 0.00124771 0)
(0.000477751 0.000856252 -1.8362e-22)
(0.000650811 0.00103284 -1.33869e-23)
(0.000726771 0.00126453 1.65231e-22)
(0.00081932 0.000635307 2.25532e-21)
(0.0002343 0.000498236 0)
(0.000518077 0.000895395 0)
(0.000939989 -1.38481e-05 -1.13071e-21)
(0.000241536 0.000133213 -1.41519e-21)
(0.00048792 0.000588146 -6.78568e-22)
(4.60367e-05 4.21751e-05 -4.24365e-23)
(5.20233e-05 0.000727513 1.284e-21)
(0.00035697 0.000272682 1.13502e-21)
(4.36252e-05 -4.74462e-06 0)
(0.000134674 0.000526761 1.04365e-21)
(0.000122216 7.55741e-05 1.63262e-21)
(0.000524162 0.00110822 -1.23762e-23)
(0.000578564 0.0010109 -2.65416e-23)
(5.2603e-05 0.000492613 4.44494e-22)
(1.33038e-05 -1.24117e-06 -3.59652e-22)
(0.000376137 1.57715e-06 0)
(0.000635337 0.00108891 -2.12144e-22)
(0.00054025 0.000925948 -1.5646e-22)
(0.000648402 0.00113748 2.4758e-24)
(2.45754e-05 4.78283e-07 0)
(4.56775e-05 9.90175e-05 -6.55872e-22)
(0.000268269 0.000531834 1.97089e-21)
(0.00111862 0.000604507 -2.05432e-24)
(0.000559086 0.000732339 -1.61607e-21)
(0.000219447 0.000490517 0)
(0.000739577 0.00125049 1.6587e-22)
(0.000785826 0.000415774 0)
(0.00056452 0.000970368 0)
(0.000521263 0.00129719 2.36408e-23)
(0.000525711 0.000918626 -5.99832e-22)
(0.000929682 0.000147586 1.87951e-21)
(0.000574012 0.000980181 6.81622e-22)
(0.000178638 0.000262392 -1.68013e-22)
(0.000301896 0.000528336 -6.82299e-22)
(0.000635568 0.00109181 1.68806e-22)
(0.000469164 0.00110259 9.3669e-22)
(3.52647e-07 -9.3185e-07 -1.98112e-22)
(0.00064891 0.000224448 -4.71761e-22)
(0.000111361 0.000540399 3.25097e-22)
(5.97928e-05 -0.000192129 0)
(0.000617236 0.00114364 1.24502e-22)
(0.000113746 7.79768e-05 -2.04064e-21)
(0.000635164 0.00108978 1.11135e-22)
(4.18595e-05 8.87359e-05 -4.98607e-23)
(0.000566235 0.000983919 9.17573e-24)
(0.000562881 0.000966711 6.11264e-22)
(0.000302168 0.000579868 -9.65757e-22)
(0.000501606 0.00088217 7.4628e-24)
(0.000364796 0.000403581 2.09751e-21)
(9.46995e-06 0.000437932 -4.5667e-22)
(0.00062848 0.00109646 -1.86175e-22)
(9.78726e-05 9.54514e-05 -9.91572e-22)
(0.000349587 4.86403e-05 -9.88946e-22)
(0.00062338 0.0011465 9.71304e-23)
(0.000262702 0.000453907 -1.74962e-21)
(0.000233804 0.000778 0)
(0.000716125 0.00127806 2.3427e-22)
(0.000603509 0.00104038 0)
(0.000596051 0.00109454 4.22159e-23)
(5.09106e-05 4.46922e-05 0)
(0.000491174 0.000847822 0)
(9.53057e-05 3.06123e-05 0)
(0.000657561 0.00026607 0)
(0.000433272 0.000556592 1.72681e-23)
(0.000656623 0.00113512 0)
(0.000616552 0.00110328 0)
(8.52407e-05 9.52878e-05 1.65583e-21)
(0.000472071 -0.000271569 1.94467e-21)
(3.85534e-05 7.94543e-05 -7.86018e-22)
(0.000621618 0.00110904 -2.04997e-22)
(1.24796e-06 7.24096e-06 0)
(0.000923548 0.000145412 -1.76489e-21)
(0.0006369 0.00114347 0)
(0.000697466 0.000347431 1.14921e-21)
(0.000484261 0.000821287 0)
(0.000667034 0.00116706 8.79282e-22)
(0.000513169 0.000874534 9.8063e-22)
(0.000366506 0.000532378 -2.609e-21)
(0.000622907 0.00105971 -1.33907e-21)
(0.000654207 0.00119761 -6.19124e-23)
(-0.000411632 0.000442574 -2.90632e-21)
(0.000655613 0.00114248 -5.64931e-22)
(0.000507151 0.00087013 1.23147e-21)
(0.000540587 0.000936833 -8.89835e-22)
(6.84984e-05 -0.000208611 3.52303e-22)
(0.000805392 0.000405292 -1.35834e-22)
(0.000502515 0.00087022 0)
(3.58772e-05 7.07733e-05 9.20942e-23)
(0.000306785 0.000292145 -3.23084e-21)
(0.000103977 0.000102272 1.55321e-24)
(0.000560137 0.000964514 3.48178e-22)
(0.000521907 0.000891487 0)
(0.000761731 -0.000255082 -9.70215e-22)
(0.000529959 0.000594763 6.37194e-22)
(0.000542923 0.000937291 1.81706e-21)
(0.00069168 0.00153184 -4.91254e-24)
(0.000591317 0.000128779 8.76966e-22)
(0.000516204 0.000891064 -1.26229e-21)
(0.000529565 0.000932171 -3.47394e-23)
(0.000579734 0.000999875 -7.41393e-23)
(0.000270994 0.000512866 7.53037e-22)
(3.23436e-05 6.33161e-05 -9.2683e-23)
(0.000547837 0.000941457 -4.03512e-24)
(0.000866616 0.000339491 8.7702e-22)
(0.000279062 0.000497472 1.84578e-22)
(0.000540493 0.000932109 0)
(0.00098162 6.85577e-05 -4.15523e-22)
(0.000179389 0.000406265 1.9516e-22)
(0.000829915 0.000585738 1.33987e-21)
(0.00017577 0.000252443 -6.66972e-22)
(3.01054e-05 0.000402861 -8.0458e-22)
(0.000901975 9.12099e-05 6.51041e-23)
(0.00098722 0.00016121 4.75075e-22)
(0.000537364 0.000927297 6.31002e-24)
(0.000506984 0.000873516 0)
(3.35126e-05 0.000809797 4.12222e-22)
(7.63784e-06 1.90177e-06 8.58795e-22)
(0.000583561 0.00104541 0)
(0.000662494 0.001143 0)
(0.000964363 8.5617e-05 -9.12706e-22)
(7.42185e-05 1.99515e-05 -2.7284e-21)
(0.00020097 0.000252677 3.70502e-22)
(2.93523e-05 5.62976e-05 -2.45512e-23)
(0.000535889 0.000925815 -1.01022e-24)
(0.00049514 0.000839723 2.52158e-22)
(0.000614536 0.00105961 0)
(0.000518206 0.000836217 4.563e-22)
(0.000498567 0.000858636 -2.24261e-22)
(0.000608787 0.00116078 3.55589e-23)
(0.000556825 0.000459027 -1.943e-21)
(0.000542665 0.000927614 5.45296e-24)
(2.14766e-05 -1.51802e-06 -1.6398e-21)
(0.000534292 0.000921316 -1.50068e-21)
(0.000271129 0.000473337 -3.67931e-26)
(0.000651424 0.00113721 -9.19286e-23)
(0.000621165 0.00110688 8.91999e-22)
(0.000327681 0.00046256 -1.48086e-21)
(2.3451e-06 1.48599e-05 -5.44623e-23)
(0.000528019 0.000911313 5.29922e-22)
(0.000531601 0.000839779 7.69796e-22)
(2.6874e-05 5.00416e-05 3.97627e-22)
(0.000513303 0.000894323 -8.38315e-22)
(0.000544522 0.00095098 6.44924e-24)
(0.000958094 8.27522e-05 2.67449e-21)
(0.000524168 0.000905024 5.53512e-22)
(0.000595231 0.001016 5.22198e-22)
(0.000499553 0.000842584 6.24173e-22)
(0.00136748 0.000399084 0)
(0.000496352 0.000856962 1.04581e-21)
(0.00172726 0.000227819 0)
(0.000877904 0.000734476 -1.17744e-21)
(0.000633348 0.00108339 2.53471e-22)
(0.000186723 0.000537883 -4.39947e-21)
(0.00139695 0.000944858 6.07105e-22)
(0.000533438 0.000923368 -2.28358e-21)
(0.000203497 0.000157175 1.99425e-21)
(0.000378961 3.21311e-06 0)
(0.000294912 0.000719685 5.83912e-24)
(3.39441e-05 0.000367054 0)
(0.000555967 0.000958165 -7.22084e-22)
(1.39654e-06 -1.32372e-05 8.05158e-22)
(2.44503e-05 4.46764e-05 1.96051e-22)
(0.000644691 0.00114135 1.42095e-22)
(0.000780098 0.0014109 4.85453e-23)
(0.000271298 0.000456403 -8.6758e-22)
(0.000473151 0.000822754 6.294e-22)
(0.00102577 -0.000122137 -2.17818e-22)
(0.00061843 0.00105939 0)
(0.000700307 0.000888247 1.58084e-21)
(0.0010211 -1.46172e-05 6.4517e-22)
(1.59077e-06 -8.49781e-06 -4.70736e-22)
(4.7918e-05 -5.27165e-06 -1.62848e-21)
(0.000512735 0.000887193 0)
(0.000724651 0.00127663 4.70835e-22)
(0.000704405 0.00129203 -3.4836e-24)
(0.000293533 0.000225068 1.12821e-21)
(0.000144554 0.00069354 -2.37212e-22)
(2.26859e-05 3.80798e-05 0)
(0.000887395 0.000127726 -4.46976e-22)
(0.000612658 0.000299799 -1.32827e-21)
(0.000539146 0.000933699 -8.9918e-22)
(0.000532992 0.00091488 -4.48648e-22)
(0.000561972 0.000976687 8.56604e-22)
(0.000671085 0.00119361 -7.18209e-24)
(0.000488261 0.000842937 -2.02602e-22)
(0.000783332 0.0013898 1.04913e-21)
(0.000524897 0.000908053 1.18169e-22)
(0.000182892 0.000521361 0)
(0.000438233 0.000682498 0)
(0.000498143 0.000873623 0)
(0.000271692 0.000399598 0)
(0.00059303 0.00103206 -3.24545e-22)
(0.000827385 8.61554e-05 7.38389e-28)
(0.000182493 0.000527656 1.91103e-21)
(0.000469164 0.000191187 -2.89083e-25)
(0.000277122 0.000523084 5.68838e-22)
(0.000453539 0.000849455 -1.01118e-25)
(0.000568612 -4.0873e-05 2.6233e-21)
(0.000720324 0.00127695 -1.31895e-22)
(0.00052543 0.000917276 6.0383e-22)
(0.000548279 0.000486645 1.31777e-21)
(0.00067017 0.00118551 0)
(0.000194723 0.000606604 0)
(0.000596167 0.00102752 -6.29612e-22)
(0.000451111 0.000494584 -1.88988e-21)
(0.00101095 -0.000111941 -2.10316e-22)
(0.000476179 -0.000416186 -3.03363e-24)
(0.000626465 0.00111152 0)
(2.3407e-05 8.88498e-07 -3.57514e-22)
(0.000130773 0.000516869 5.31959e-22)
(0.000501701 0.000869328 7.48008e-22)
(0.00078773 0.00138986 0)
(0.000511603 0.00136782 -2.20848e-23)
(0.000229399 0.000256275 5.31166e-22)
(0.000338499 0.00128519 -6.13404e-22)
(0.00101713 -6.07627e-05 4.39543e-22)
(0.000386388 0.000589259 0)
(0.00072225 0.00127423 1.36134e-22)
(0.000790938 0.00138922 0)
(0.000777324 0.00138886 1.01549e-21)
(0.000482149 0.000836782 1.12624e-21)
(0.000311897 0.000533316 9.37977e-22)
(0.000554773 -3.29176e-05 3.2553e-21)
(0.000530094 0.000908363 1.10602e-21)
(1.48963e-06 -2.03675e-05 -6.3864e-24)
(0.000266605 0.000734731 0)
(0.000289527 0.000310683 1.01494e-21)
(0.000768603 0.00138722 -9.67728e-22)
(2.05085e-06 2.49898e-05 -1.72459e-21)
(0.000187966 0.000605237 -3.28718e-25)
(0.000552166 0.000952635 -1.12371e-21)
(0.000484777 0.00133295 0)
(0.000577248 0.000999773 -8.43309e-22)
(0.000621642 0.00106262 4.32939e-22)
(0.000504097 0.000880951 5.30862e-24)
(0.000633551 0.00109124 1.11561e-22)
(0.000559027 0.000398918 7.66933e-22)
(0.000470803 0.000937457 -7.29253e-22)
(0.000346416 0.000268611 -2.83593e-21)
(0.000508549 0.000878737 1.84051e-21)
(1.58983e-06 -2.44319e-05 -8.06017e-22)
(0.00063033 0.00109975 6.30278e-23)
(0.00078459 0.000581776 -1.85947e-21)
(0.000727784 0.00126462 -4.74287e-24)
(0.00051887 0.000882035 -1.8325e-22)
(0.000519432 0.000920189 2.59619e-22)
(1.4442e-06 -1.66733e-05 0)
(0.000564797 0.000982573 2.82355e-22)
(0.000512153 0.000902174 2.87768e-22)
(0.000987326 0.000121367 -1.82725e-21)
(0.000571419 0.000121613 -2.18383e-23)
(0.000666267 0.00116806 0)
(0.000363444 0.00107958 -1.20837e-23)
(0.000551684 0.000978121 4.52942e-22)
(0.000600295 0.00110568 0)
(0.000660295 0.00113464 9.13995e-22)
(0.000793419 0.00138821 -1.04647e-21)
(5.93088e-05 -7.20319e-07 -1.48612e-21)
(0.000143846 0.000390992 -1.30489e-21)
(0.000512314 0.00111169 4.8238e-24)
(1.15704e-05 5.62262e-05 -9.46548e-22)
(0.000371555 0.000226128 1.35773e-25)
(0.000627772 0.00111978 1.95009e-22)
(1.32304e-06 -1.0001e-05 6.7719e-22)
(0.00060066 0.00103244 0)
(0.000266353 0.000840817 0)
(1.77592e-06 -3.11733e-05 1.64534e-21)
(0.000981889 3.6114e-05 -1.98653e-22)
(0.000242478 0.00080819 1.65762e-23)
(0.00054918 0.000924641 -5.48389e-24)
(0.000394674 0.000136007 9.05809e-22)
(0.000833022 0.000858094 0)
(0.000727412 0.00126622 0)
(0.000453413 0.000791237 0)
(0.000729803 0.00126578 6.6401e-24)
(0.000223178 0.000376456 5.91145e-22)
(0.000795539 0.00138704 9.86934e-24)
(5.33886e-05 -5.63449e-07 0)
(0.000541909 0.000930657 0)
(0.000614765 0.00105431 4.71034e-22)
(0.000645644 0.00146478 -3.3525e-23)
(0.000460892 0.00101529 -1.8156e-21)
(0.000649281 0.00113992 -2.05622e-22)
(2.10701e-06 -3.91679e-05 8.30599e-22)
(0.000472761 0.000839702 3.89576e-22)
(0.000503383 0.000876878 0)
(0.000847254 0.000112669 -1.49188e-21)
(0.000383283 0.000644981 1.65706e-21)
(0.000621514 0.00105112 -3.80521e-22)
(0.000653184 0.00113694 -1.06498e-22)
(7.75702e-05 6.98226e-05 -8.27268e-22)
(0.000408121 0.000138663 0)
(0.000311803 0.00114841 -1.57686e-21)
(-0.000361693 0.00104945 -2.24577e-21)
(0.000307537 0.000488671 1.50917e-21)
(0.000657426 0.001148 8.25865e-22)
(0.000733427 0.00126786 -9.96112e-22)
(0.000481972 0.000813646 -2.27995e-22)
(2.42267e-06 -4.86679e-05 -1.65349e-21)
(3.15344e-05 0.000383553 0)
(0.000706982 0.00128566 0)
(0.000269072 0.000450638 -1.03479e-23)
(6.78386e-05 6.20618e-05 -3.30768e-23)
(0.000551075 0.00094966 -3.8704e-22)
(0.000509328 0.000880279 -1.24144e-21)
(0.000221761 0.000501386 0)
(1.08974e-05 0.000325719 0)
(2.74811e-06 -5.61539e-05 6.65949e-24)
(0.00049722 0.00086964 -1.05601e-21)
(7.45252e-05 6.63046e-05 0)
(0.000175599 8.03119e-05 3.95873e-22)
(0.0010002 0.000115423 0)
(0.000159011 0.000271301 -2.14693e-21)
(0.000511991 0.000883819 -4.95664e-22)
(0.000593262 0.0010223 -2.21406e-22)
(6.67185e-05 6.56292e-05 0)
(0.000523257 0.000898763 -5.79587e-22)
(0.000262084 0.000421684 0)
(0.000185629 0.000588167 9.64907e-22)
(3.19303e-06 -6.46524e-05 8.37336e-22)
(0.000344806 0.000536465 1.31067e-21)
(0.000790203 0.00138172 1.06968e-21)
(0.000336612 4.11588e-05 -1.01555e-26)
(0.000409282 -0.000555202 0)
(0.000543997 0.000941602 0)
(0.000732866 0.00126733 5.74179e-22)
(0.000110032 0.000395216 0)
(0.000596248 0.00103561 -5.83059e-22)
(9.04359e-05 0.000394008 9.00243e-22)
(0.000708656 0.00128011 -9.28269e-23)
(0.000582701 0.00100897 -2.8873e-22)
(0.000551602 0.000966072 -6.11306e-23)
(0.00052077 0.000898344 -5.43768e-22)
(0.000611571 0.00103999 1.89567e-21)
(0.000619308 0.000688508 1.35665e-21)
(3.97647e-06 -7.98604e-05 0)
(0.000771568 0.00130287 -1.55191e-21)
(0.000559833 0.000599953 1.35617e-21)
(0.000482061 0.000865534 -3.56936e-22)
(9.91373e-05 0.000422612 6.08009e-23)
(0.000485086 0.000837822 -7.96257e-22)
(0.000411432 0.000323366 0)
(0.000666008 0.00119615 9.74942e-23)
(0.000546181 0.000931181 -6.529e-23)
(7.42561e-05 5.86961e-05 -5.10109e-22)
(0.00048108 0.000808465 -4.91511e-22)
(0.000608285 0.00105047 1.0841e-21)
(0.000557865 0.000969731 8.48742e-22)
(0.000368589 0.000413175 0)
(0.00069321 0.00123741 1.18731e-21)
(2.3184e-05 -1.37286e-06 -5.50968e-23)
(0.000534346 0.000917137 0)
(0.000217069 0.000265935 -3.57034e-25)
(0.000787178 0.00139382 0)
(0.000773562 0.00130009 7.67553e-22)
(0.00064647 0.00112111 5.16088e-22)
(0.000236084 0.000442016 -1.78755e-21)
(0.000499341 0.000866252 -4.628e-24)
(2.29833e-05 -0.000154064 -8.34412e-22)
(0.000528364 0.000495827 8.08625e-22)
(0.000464453 0.000813754 4.72506e-24)
(0.000146631 0.000399932 9.07519e-22)
(0.00051789 0.000882302 2.08563e-22)
(0.000279481 0.000390794 -1.87087e-21)
(1.61121e-05 -0.000113824 1.65281e-21)
(0.00132698 9.50032e-05 2.53755e-22)
(0.000791494 0.00140108 -5.3057e-24)
(1.9131e-05 -0.000132113 0)
(0.000334484 0.000504971 -9.63032e-22)
(0.00100068 0.000409123 1.2543e-22)
(0.000601081 0.000798219 -1.32985e-21)
(0.00122061 0.000376448 -5.17071e-22)
(0.000410453 0.00126865 8.06207e-22)
(0.000461895 0.000828743 -4.49551e-22)