/*--------------------------------*- C++ -*----------------------------------*\
  =========                 |
  \\      /  F ield         | OpenFOAM: The Open Source CFD Toolbox
   \\    /   O peration     | Website:  https://openfoam.org
    \\  /    A nd           | Version:  7
     \\/     M anipulation  |
\*---------------------------------------------------------------------------*/
FoamFile
{
    version     2.0;
    format      ascii;
    class       volScalarField;
    location    "76";
    object      p;
}
// * * * * * * * * * * * * * * * * * * * * * * * * * * * * * * * * * * * * * //

dimensions      [0 2 -2 0 0 0 0];

internalField   nonuniform List<scalar> 
591
(
0.000123869
0.000123886
0.000123889
0.000123842
0.000123845
0.000123915
0.000123907
0.000123878
0.000116977
0.000123896
0.000124077
0.000122816
0.000123884
0.000119716
0.000123878
0.000123924
0.000123863
0.000123922
0.000121942
0.000123257
0.000123859
-3.52637e-06
0.000124074
0.000123861
0.000124031
0.000123883
0.000123987
0.000123992
0.000123896
0.000123903
0.000124051
0.000124026
0.000124046
0.000124045
0.000124047
0.00012337
0.000124042
0.000123862
0.000124069
0.000123988
0.000123947
0.000124038
0.00012389
0.000123912
0.000124035
0.000124056
0.000119224
0.00012406
0.000123895
0.000124013
0.000124006
0.000124038
2.39399e-05
3.0585e-05
4.78367e-05
0.000123888
0.000124064
0.000124053
0.000124057
0.000123869
0.000123956
0.000123886
0.000123884
0.000123933
0.000122556
0.000123887
0.000123889
0.000124054
0.000120709
0.0001239
0.000123895
0.000124061
0.000124031
0.00012404
0.000124046
0.000124022
0.000123864
0.000124058
0.000123866
0.000123802
0.000123643
0.000124063
0.000124022
0.000124003
0.00012407
0.000123876
0.000123966
0.000124052
0.000124015
0.000123767
0.000124027
0.000123974
0.00012399
0.000123869
0.000124068
0.000124023
0.000123573
0.000123472
0.000123634
0.000124074
0.000123981
0.000123896
0.000124079
0.00012384
0.000124079
0.000123887
0.000123885
0.000124027
0.00012407
0.000124074
0.000123962
0.00012405
0.000123901
0.000124054
0.000124072
0.000124054
0.000124007
0.000124001
0.000123567
0.000123975
0.000123888
0.000123881
0.000123967
0.000123867
0.000124041
0.000120188
0.000124078
0.000124055
0.00012364
0.000124047
0.000123878
0.000123565
0.000124015
0.000124009
0.00012405
0.000123893
0.000122615
0.000124077
0.00012388
0.000123564
0.000123629
0.000123976
0.000124059
0.00012407
0.000124064
7.61464e-06
3.67743e-06
2.07036e-06
3.81552e-05
3.66954e-05
5.65957e-06
3.8306e-05
1.57372e-05
3.72871e-05
1.78037e-05
0.000123887
0.000123878
0.000124066
0.000124059
0.000124067
0.000124066
0.000124058
0.000124054
0.000124066
0.000124064
0.000124029
0.000124067
0.000124063
0.000124069
0.000124008
0.00012338
0.00012407
0.00012211
0.000124051
0.00012405
0.000123998
0.000123897
0.00012405
0.000124064
0.000124062
0.000123478
0.000122459
0.000123036
0.000123431
0.000124054
0.00012406
0.000123969
0.000123858
0.000124056
0.000122955
0.000123287
0.000123859
0.000124048
0.000123744
0.000124042
0.000124059
0.000124033
0.000123713
0.00012385
0.000124057
0.000124063
0.000124061
0.000123859
0.000124044
0.000123856
0.000124071
0.000123881
0.00012388
0.000124068
0.000123674
0.00012385
0.000123891
0.000123529
0.00012402
0.000123675
0.000123962
0.000123975
0.000124048
0.000123442
0.000123951
0.000123843
0.000123844
0.000124023
0.000123783
0.000123937
0.000123851
0.000123763
0.000123836
0.000124072
0.000123828
0.000124069
0.000123918
0.000124047
0.000123893
0.000123894
0.000124074
0.000123785
0.000124061
0.000123775
0.000123822
0.000123885
0.000123865
0.000123902
0.000123888
0.000123659
0.000123862
0.000123815
0.00012403
0.000123881
0.000123733
0.000124018
0.000123284
0.000123842
0.000123178
0.000123061
0.000123872
0.000123837
0.000123875
0.000123871
0.000123841
0.000124073
0.000123917
0.000124
0.000123929
0.000123922
0.000123934
0.000124026
0.000123676
0.000124069
0.000123713
0.000123602
0.000123905
0.000124045
0.000123625
0.000124065
0.000123973
0.000123995
0.000124021
0.000123896
0.000123868
0.000123701
0.000123832
0.000123862
0.000123912
0.000123969
0.000124035
0.000124052
0.000124058
0.000123816
0.000123922
0.000124046
0.000124052
0.000124048
0.00012384
0.00012406
0.000123934
0.000124043
0.000123802
0.00012406
0.00012379
0.000124037
0.000123926
0.000123868
1.16385e-05
2.19082e-05
0.000123817
0.000123893
0.000124071
0.000123822
0.000124072
0.000123903
0.00012406
0.000124037
0.000123773
0.000124032
0.000123861
0.000124068
0.000123895
-2.09819e-07
0.00012376
0.000124043
0.000124038
0.000123734
0.000123884
0.000123926
0.000124032
0.000123791
0.000124054
0.000123938
0.000123887
0.00012403
0.000123838
0.000123765
0.000123799
0.000123897
4.74701e-05
0.000124048
0.000124031
0.000123887
0.000124055
0.000123966
0.000123909
0.000123891
0.000123878
0.000124041
0.000123904
0.000123811
0.000123936
0.000123815
0.000124054
0.000123823
0.000123879
0.000123915
0.000124
1.98683e-05
2.73042e-05
3.42908e-05
9.63609e-06
0.000123862
3.3051e-05
2.60111e-05
0.000124051
1.9069e-05
1.70253e-05
3.81804e-05
7.57333e-06
3.99323e-05
5.6024e-06
4.08266e-05
3.68681e-06
4.28091e-05
1.87435e-06
3.63999e-05
2.31896e-05
2.94385e-05
1.49881e-05
0.000123744
0.000124062
0.00012393
0.000123937
0.000120885
0.000123981
0.000124057
0.000124027
0.000123829
0.000124062
0.000124064
0.000124043
0.00012404
0.000123804
0.000123878
0.000124048
0.000124054
0.000123891
0.00012376
0.000123831
0.000123395
0.000123847
0.000124076
0.000124047
0.00012389
0.00012407
0.000123734
0.000123914
0.000123694
0.000122847
0.000124041
0.000124053
0.000124075
0.000123747
0.000123934
0.000123693
0.000123903
0.000123893
2.60463e-05
2.18727e-05
3.30306e-05
1.16145e-05
0.000124079
0.000123741
1.9815e-05
2.82531e-05
3.55974e-05
9.58478e-06
0.000123896
0.000123991
0.000123845
0.000123856
0.00012388
0.000124014
0.000123806
0.000124037
0.000123979
0.000123089
0.000123859
0.000123826
5.9353e-05
0.000123214
0.000124067
0.000123872
0.000123767
0.000124056
0.000124059
0.000123854
0.000123654
0.000123882
0.000123943
0.000123737
0.000124013
0.000122896
0.000123816
0.000123834
0.000124022
0.00010087
0.00012387
0.000123475
0.000123801
0.000124068
0.000123703
1.08924e-05
2.11087e-05
3.53623e-05
2.82027e-05
1.36579e-05
5.33923e-08
4.20745e-05
2.68806e-06
4.01529e-05
4.75973e-06
3.94115e-05
6.81204e-06
3.86187e-05
8.85423e-06
3.72847e-05
1.36699e-05
3.17225e-05
3.05863e-05
2.39354e-05
2.5257e-05
1.77607e-05
1.29343e-05
1.57032e-05
0.000124061
0.000102402
0.000123861
0.000123794
0.000124065
0.000123958
0.000124071
0.000123788
0.000123916
0.000124032
0.000124028
0.000124034
0.000123788
0.000123885
0.000123791
0.000123994
0.000123823
0.000124066
0.000123935
0.000123767
0.000123772
0.000123896
0.000123888
0.000124072
0.000124063
0.000124073
0.000124032
0.000124076
0.000123703
0.000123883
0.000124067
0.000123828
0.000123958
0.000123888
0.000123931
0.00012377
0.000124032
0.00012403
0.000123344
0.000121359
0.000123072
0.000123617
0.000123884
0.000123714
0.000123895
0.000124072
0.000124037
0.000123889
0.000123505
0.000123484
0.000124067
0.000124034
0.000123903
0.000124
0.000123543
5.83103e-05
4.0115e-05
0.000124005
0.000124022
0.000123385
0.000122734
0.00012387
0.000123616
0.000123362
0.00012388
0.000123788
0.000124057
0.000123913
0.000123942
0.000118994
5.4472e-05
0.000123911
8.12323e-05
1.86083e-06
-3.81801e-07
0.000123879
0.000123848
0.000124033
0.000124074
0.000124064
0.000124066
0.000124067
0.000123865
-2.30789e-06
0.000122816
0.000123904
0.000124012
0.000122001
0.000124065
0.000124065
0.000122273
0.00012398
0.000124035
0.00012168
0.00012407
7.6337e-05
0.000124063
0.000123721
0.000124026
0.000122363
0.000123592
0.000123654
0.000123913
0.000124073
0.000124019
0.000124064
0.000124076
0.000123881
0.000116164
)
;

boundaryField
{
    back
    {
        type            empty;
    }
    ingreso
    {
        type            zeroGradient;
    }
    salida
    {
        type            fixedValue;
        value           uniform 0;
    }
    front
    {
        type            empty;
    }
    defaultFaces
    {
        type            zeroGradient;
    }
}


// ************************************************************************* //
