/*--------------------------------*- C++ -*----------------------------------*\
  =========                 |
  \\      /  F ield         | OpenFOAM: The Open Source CFD Toolbox
   \\    /   O peration     | Website:  https://openfoam.org
    \\  /    A nd           | Version:  7
     \\/     M anipulation  |
\*---------------------------------------------------------------------------*/
FoamFile
{
    version     2.0;
    format      ascii;
    class       surfaceScalarField;
    location    "76";
    object      phi;
}
// * * * * * * * * * * * * * * * * * * * * * * * * * * * * * * * * * * * * * //

dimensions      [0 3 -1 0 0 0 0];

internalField   nonuniform List<scalar> 
1111
(
6.72232e-09
1.31041e-08
-1.59735e-08
-3.85291e-09
6.72859e-09
-1.18278e-08
1.18215e-08
-1.47503e-08
5.45474e-09
9.05934e-09
2.3626e-10
6.89515e-10
-7.92033e-10
-1.43111e-08
1.44136e-08
-1.42508e-08
1.39991e-08
9.41224e-10
-1.65008e-09
1.49068e-08
2.17185e-09
-3.35715e-09
9.65922e-09
-1.01158e-08
3.81377e-09
-6.71131e-09
-1.26179e-08
1.25977e-08
6.73149e-09
-5.04065e-08
-2.59767e-08
7.63833e-08
-8.13665e-09
7.66006e-09
7.20518e-09
3.43295e-09
3.53835e-10
-3.5147e-09
-2.72087e-10
1.57753e-08
-1.61271e-08
-2.31269e-08
2.34786e-08
-9.65447e-09
-7.89472e-09
8.79453e-09
8.75466e-09
-3.54858e-08
1.76562e-08
-3.22927e-08
5.01223e-08
9.51353e-09
-1.96204e-09
-1.42628e-08
-1.0286e-09
1.90284e-09
-3.39043e-09
2.51619e-09
-3.8565e-09
1.33442e-08
1.95645e-09
-1.14441e-08
8.8256e-09
-2.56257e-09
-1.50417e-08
8.77871e-09
3.75123e-08
-3.02296e-08
-7.28273e-09
-1.94465e-08
3.78134e-10
1.72663e-08
1.80208e-09
-9.65175e-10
4.18791e-09
-1.78674e-08
1.46447e-08
-6.1221e-08
-3.96288e-09
6.51839e-08
1.46227e-10
-1.22316e-09
-3.45222e-10
1.42216e-09
-1.60827e-09
-1.36077e-08
-1.25357e-10
-2.77363e-10
2.26929e-10
1.75791e-10
-1.02732e-08
-8.36649e-09
1.28407e-08
5.799e-09
6.93206e-10
-2.12731e-09
-8.36291e-09
9.79701e-09
8.33845e-09
8.49791e-10
-9.33432e-09
1.46075e-10
-2.87005e-09
-7.91363e-09
1.09901e-08
-2.06424e-10
1.13972e-08
-8.41251e-10
-1.73035e-09
-8.9794e-10
8.89929e-10
3.00078e-11
-2.19972e-11
-1.73594e-10
7.72026e-10
3.15947e-10
-9.14379e-10
-5.07367e-10
-3.9171e-11
5.41491e-10
5.04726e-12
-1.67168e-11
-8.86554e-10
1.07883e-10
7.95387e-10
-8.26729e-11
-8.31985e-10
8.88406e-10
-1.84531e-08
-1.88178e-09
-4.22665e-10
4.60559e-11
-1.30758e-10
1.33984e-08
-1.32429e-08
4.03237e-09
-3.84161e-10
5.87765e-10
3.57045e-10
-5.6065e-10
-1.65986e-10
-1.8383e-09
1.46083e-09
5.43457e-10
-2.08855e-09
1.03166e-08
-1.15852e-08
-3.07805e-10
-1.70568e-10
5.5707e-11
-8.78222e-09
1.03143e-08
-9.66876e-09
1.21721e-08
-1.71387e-08
4.73393e-09
2.32632e-10
6.70035e-11
-1.73092e-10
-2.01717e-10
2.03155e-10
8.18768e-10
-1.31995e-10
-5.95229e-08
7.42306e-08
-1.47077e-08
1.06983e-09
-2.82997e-10
-1.21099e-09
4.2416e-10
1.14473e-09
1.03178e-08
-1.37224e-08
2.25995e-09
-1.49896e-09
7.48022e-09
-8.85222e-09
2.87096e-09
-6.62776e-09
5.69133e-09
5.60091e-09
-4.66448e-09
-7.44977e-09
-1.897e-09
1.87722e-09
7.46955e-09
-1.81437e-10
-9.09229e-08
9.13084e-08
-2.04024e-10
-2.56327e-10
-8.97587e-08
9.01679e-08
-1.52844e-10
8.30844e-08
-1.49433e-09
1.10301e-10
-8.17003e-08
-3.00197e-09
-3.51168e-10
7.04782e-10
8.61429e-10
-4.96384e-10
3.96014e-09
-1.32273e-09
3.38842e-09
-6.02583e-09
-1.00519e-09
9.25346e-10
-1.496e-08
6.60605e-09
9.60019e-09
1.0223e-09
-1.03518e-08
-2.70712e-10
-6.17607e-09
1.32695e-08
1.18014e-09
-8.27353e-09
1.43545e-08
-4.40532e-09
3.60479e-09
-1.3554e-08
1.54122e-08
1.69731e-09
-1.68067e-09
-2.04507e-10
-2.00588e-08
-7.40888e-09
2.76722e-08
1.41571e-08
-8.58474e-09
-2.00038e-09
7.86779e-09
-1.20435e-08
-3.50008e-11
1.20597e-10
-1.29659e-09
-3.62826e-08
-2.32403e-08
8.2213e-09
2.06939e-10
3.74389e-09
-7.02443e-09
1.09634e-08
6.37531e-09
-6.22503e-10
3.39896e-10
5.01706e-10
-2.19099e-10
5.81803e-09
-4.73011e-09
3.62437e-09
-4.71229e-09
-5.05271e-10
-6.54283e-10
2.73e-10
7.00545e-10
-6.31833e-10
-4.45118e-11
-9.21958e-10
7.92875e-10
-1.79677e-08
2.45413e-09
1.52741e-09
1.39862e-08
2.43319e-10
-7.28686e-10
-1.37136e-10
-4.05034e-09
-1.50246e-08
1.10723e-09
5.62534e-09
1.19896e-08
-5.22474e-09
-1.23902e-08
1.64494e-08
6.525e-10
-1.59158e-08
-1.18608e-09
-7.05081e-10
4.80189e-10
5.64787e-10
-5.12266e-10
2.63158e-10
2.49108e-10
-7.32065e-09
-3.63414e-09
4.32704e-09
-2.60341e-10
3.93477e-10
-1.33136e-10
1.23386e-09
-1.55574e-08
-8.42036e-10
9.56497e-09
-1.08115e-08
-1.01018e-09
-5.56778e-10
1.2827e-08
4.39358e-09
-4.13976e-09
-1.30808e-08
1.378e-10
7.0902e-09
-7.83852e-09
6.43965e-09
-1.74574e-09
-8.81001e-09
8.06738e-09
2.48837e-09
-1.8397e-09
6.46711e-10
-1.38316e-08
-1.48458e-10
-1.11883e-10
2.05442e-11
8.80403e-10
-8.35072e-09
7.38862e-10
1.73092e-08
-1.59873e-09
-1.2624e-08
1.39529e-08
-1.32888e-09
1.21582e-08
1.40017e-08
-1.55363e-08
-1.06236e-08
-6.02965e-10
1.08266e-09
-4.79699e-10
6.00745e-10
-6.38753e-10
3.8008e-11
8.0474e-10
-8.21306e-10
1.65657e-11
1.50253e-09
-1.22889e-09
-2.7364e-10
-1.07728e-08
7.10493e-10
1.00623e-08
2.16323e-09
-6.60706e-10
8.94401e-09
-1.53497e-08
7.26123e-09
-8.73965e-09
5.47917e-11
3.77468e-09
-3.96524e-10
-2.51707e-09
2.57186e-09
-6.73929e-09
8.06782e-09
-1.32853e-09
-6.48006e-10
4.20664e-09
4.015e-10
1.72735e-08
-1.44914e-08
-1.63737e-09
-5.85976e-09
5.32852e-09
-7.91489e-10
-2.09489e-10
6.04609e-09
-6.05769e-09
1.16015e-11
6.95073e-09
4.4682e-09
4.39665e-11
-1.60266e-08
1.04643e-08
1.77206e-08
5.73741e-09
8.30353e-09
8.22706e-09
-6.84359e-09
1.24118e-09
-1.2014e-08
6.61598e-10
9.5886e-10
-1.28942e-08
3.0012e-09
-4.29343e-10
1.18852e-08
-1.12327e-08
-2.16463e-10
-8.76393e-10
-1.37924e-08
7.47311e-09
7.91738e-10
-1.83493e-11
-8.91012e-09
5.08793e-09
-3.04341e-08
-1.25038e-08
-2.72659e-09
1.43803e-09
1.40356e-08
1.09689e-08
-1.07171e-08
-1.42874e-08
1.55137e-08
-3.11123e-09
-1.24025e-08
1.63997e-09
3.9359e-09
-1.19549e-09
-9.24254e-10
-9.12649e-10
1.2182e-09
6.18697e-10
-2.52913e-10
3.7572e-10
3.78899e-10
6.21361e-08
-6.21609e-08
2.48631e-11
6.20578e-08
-6.23613e-08
3.0348e-10
8.36795e-10
6.47424e-08
-6.5569e-08
8.2658e-10
6.41347e-08
6.07737e-10
-2.25221e-10
-6.65142e-08
9.45221e-10
-6.20458e-08
6.1912e-08
1.33827e-10
1.31569e-09
-6.78299e-08
-6.2205e-08
1.59161e-10
1.24248e-08
-8.45078e-10
1.45418e-09
-3.70374e-09
3.09464e-09
3.57005e-10
-1.21901e-09
9.99534e-10
-6.58127e-10
1.42219e-09
-1.67186e-09
9.07792e-10
1.45298e-09
-1.57977e-09
2.47391e-10
-6.89431e-11
-3.39601e-09
2.87324e-09
-2.11026e-09
2.63303e-09
-5.92868e-10
-2.78862e-09
2.53641e-09
-3.66368e-09
-5.73091e-09
6.07441e-10
-6.58662e-10
1.28647e-09
1.13525e-09
-6.53378e-09
7.9689e-09
3.03308e-09
1.98873e-08
-4.37357e-09
-7.44965e-10
2.92637e-10
1.05977e-09
-1.00668e-08
-2.62157e-08
5.37795e-09
-4.35137e-09
-3.1474e-09
2.12082e-09
1.15281e-10
2.11632e-11
4.05046e-10
-2.64974e-09
3.39647e-09
8.84881e-09
7.97475e-10
-3.50642e-10
2.14271e-09
-2.38494e-09
1.99407e-09
1.4762e-08
1.32753e-08
-2.69656e-08
3.26742e-08
6.32849e-09
-2.28289e-08
-1.04652e-08
1.83924e-08
-1.78992e-08
1.04757e-08
-1.4127e-10
-1.39834e-10
-1.29867e-09
-1.77511e-09
-2.93731e-09
3.74432e-09
1.49786e-08
-5.98704e-10
-1.37332e-08
-4.29283e-10
-2.51473e-09
1.55393e-10
1.54678e-08
1.76866e-08
1.36962e-08
7.01465e-10
-1.63011e-09
-1.27675e-08
-1.65432e-09
6.00308e-09
1.24493e-08
-5.8893e-10
-1.11945e-09
-3.58283e-09
2.75714e-09
3.69893e-09
2.46853e-09
1.43634e-08
4.19708e-09
-1.41669e-08
1.78572e-08
-1.77138e-09
2.61788e-09
-3.48112e-09
1.88689e-09
-4.81653e-09
1.29489e-08
-1.19888e-08
-1.40096e-08
4.02143e-10
8.79095e-09
-1.84294e-09
1.54183e-09
1.58759e-09
-8.66146e-09
6.94632e-10
-4.53696e-09
-6.03679e-09
1.22167e-08
-1.48414e-08
1.20756e-09
1.66684e-09
-2.21687e-09
1.66858e-08
-1.61357e-08
-1.02765e-09
1.41251e-08
2.99277e-09
-4.33238e-09
-1.40101e-08
7.46858e-09
-1.72621e-08
-8.10572e-09
6.70058e-09
5.86478e-09
1.45017e-08
-9.86079e-09
3.07006e-09
9.27911e-09
9.8747e-09
3.8316e-09
-4.16076e-09
2.16319e-08
-1.90553e-08
4.89197e-09
-1.04039e-08
2.1831e-09
5.59813e-09
1.37865e-08
-2.05494e-10
1.27399e-08
-1.35621e-08
-1.85853e-09
2.03934e-09
-1.0685e-09
8.87687e-10
1.09615e-08
-6.38426e-09
7.41237e-09
-1.08031e-08
1.4215e-09
-4.74886e-09
1.14052e-08
-1.18811e-08
-7.54304e-09
9.13404e-09
9.37046e-09
1.28351e-08
7.5156e-10
-1.37922e-08
1.54846e-09
8.04999e-10
-1.10476e-08
-6.71801e-09
1.02226e-08
-1.53473e-09
2.51911e-09
-8.94739e-09
4.81247e-09
-5.20657e-09
1.14797e-08
-3.49125e-09
-1.16784e-08
3.68988e-09
-4.49244e-09
1.12233e-08
1.94417e-09
1.14611e-09
-5.03235e-09
-1.76755e-08
1.04224e-08
1.22855e-08
7.85966e-10
-1.09277e-08
-9.92419e-09
1.58196e-08
1.24852e-08
2.83315e-09
-9.72021e-09
-1.32878e-08
-3.02029e-10
-1.27297e-08
1.76482e-10
-7.52376e-10
1.1566e-08
1.25034e-08
-8.2224e-09
1.65275e-08
-1.59142e-08
3.58375e-09
-4.53235e-10
1.7377e-09
1.27017e-08
-3.89919e-09
-1.26308e-08
-5.11416e-09
1.46886e-09
4.60416e-09
1.21481e-08
-7.27562e-09
8.73332e-10
-1.52327e-09
9.91637e-10
-1.32689e-09
5.86942e-09
2.62382e-08
-2.2629e-10
-1.04691e-08
1.06954e-08
2.84827e-08
-2.22351e-08
2.20261e-08
1.96799e-08
-1.26956e-08
-2.66102e-09
1.50147e-08
2.1576e-10
-1.21402e-08
-3.73671e-10
-6.02667e-09
-1.89487e-09
2.26759e-09
1.57146e-09
-2.73689e-10
-1.10078e-08
1.13573e-08
-7.57679e-11
3.10515e-09
-5.34834e-09
-1.09256e-08
1.05044e-08
-8.75626e-10
-1.06799e-08
-1.40081e-10
-1.10873e-08
-2.66448e-09
-1.19703e-08
2.20924e-09
7.89138e-09
5.1302e-09
-2.07037e-10
-1.1752e-08
1.16853e-08
6.07493e-10
-8.71492e-09
5.20344e-09
-1.36033e-09
2.42002e-09
-2.47442e-09
-1.30356e-08
-1.28256e-08
1.23923e-08
-1.02399e-08
-1.57834e-08
9.99667e-09
9.21857e-09
8.60326e-10
2.61989e-09
-1.3089e-08
1.13035e-08
1.68396e-09
3.96065e-09
3.21021e-10
-5.41931e-10
-2.84361e-10
-4.10151e-09
2.59966e-09
-1.01288e-09
2.28422e-10
-2.68044e-10
3.9622e-11
-2.63741e-09
1.29318e-08
2.19082e-09
2.561e-09
-2.88846e-10
-1.54483e-09
-3.70116e-10
-2.41618e-09
-4.27312e-10
1.28868e-08
9.97266e-09
-3.73675e-10
6.90953e-09
-1.22224e-09
-5.31361e-09
-9.7467e-09
-5.09566e-09
1.75724e-10
5.26982e-11
4.86233e-09
1.31462e-09
-1.71047e-08
-4.25046e-10
-8.18168e-10
-2.73307e-09
1.00653e-09
2.89836e-09
6.19358e-08
-8.68716e-11
-6.18489e-08
6.23552e-08
1.8822e-10
-6.25434e-08
-1.41614e-08
-1.17539e-10
1.45274e-08
-2.4845e-10
2.96788e-09
-1.90195e-09
2.62272e-09
1.79834e-09
-4.45218e-09
-3.79912e-10
-5.61231e-10
4.55164e-10
-1.13033e-10
4.89593e-10
-3.39141e-10
1.95314e-08
1.09494e-09
-1.57641e-08
-1.94952e-10
-1.94006e-09
1.23865e-08
2.25531e-09
1.77463e-09
5.32141e-09
-2.058e-09
-7.72332e-08
-2.41774e-08
-4.83826e-09
1.58042e-08
2.37819e-09
-3.06259e-10
-3.12281e-09
-1.18566e-09
4.54648e-10
-3.88434e-10
-1.0582e-08
-3.38509e-10
1.09205e-08
-1.07831e-08
-6.62066e-09
1.06857e-08
-9.40865e-09
8.76479e-09
1.06098e-10
1.62698e-09
1.00792e-08
-9.94475e-09
-1.34453e-10
6.46201e-10
8.23313e-11
1.04471e-08
7.70157e-10
-9.03482e-10
-1.76085e-10
-1.4243e-08
-5.02772e-10
-1.37052e-08
1.25242e-08
-1.17823e-08
-6.60218e-08
6.49751e-08
1.04676e-09
3.06847e-10
-2.85684e-10
1.1892e-08
-2.79836e-10
1.17912e-11
-2.0375e-09
2.7746e-09
-3.43442e-09
-1.34876e-08
-1.63435e-09
2.57174e-09
-4.75663e-09
-1.39982e-08
1.65014e-09
5.58643e-09
9.58967e-09
-8.93883e-09
-3.06524e-10
2.66878e-11
-9.33861e-09
-1.32006e-08
1.50174e-10
-6.27058e-08
2.36957e-10
6.24688e-08
6.95537e-10
6.34391e-08
-2.25162e-10
-1.45645e-09
-1.44629e-08
1.07532e-10
-6.33864e-08
6.32788e-08
1.82589e-10
-6.293e-08
6.27475e-08
4.05368e-10
6.18058e-08
1.51045e-10
-6.19568e-08
6.16362e-08
1.69551e-10
-8.78988e-08
8.85084e-08
-1.86035e-12
9.33989e-08
-9.3106e-08
-2.68009e-10
-8.66376e-08
-4.34671e-10
9.33574e-08
-1.83737e-10
-8.49229e-08
-7.69462e-10
9.3488e-08
1.72875e-10
-5.22801e-10
1.96089e-09
9.23639e-08
-6.93242e-08
6.21479e-08
-6.23293e-08
-6.29621e-08
6.14929e-08
1.43295e-10
-3.05814e-09
2.90074e-09
-1.40095e-08
5.88921e-11
1.16831e-10
1.64398e-09
8.83875e-09
-1.14013e-08
3.82917e-08
-3.44906e-08
-1.66953e-08
1.37785e-08
-5.21669e-11
-2.20218e-10
1.91962e-10
7.5245e-10
-1.4276e-10
3.4501e-10
4.53563e-09
1.02886e-09
-3.6776e-09
-2.34583e-10
2.80638e-10
-1.78876e-10
-2.52566e-09
1.30827e-08
2.37472e-09
-1.44451e-08
-2.59699e-09
-3.43016e-09
5.61013e-09
1.04632e-09
-2.67837e-09
1.4245e-08
-1.14428e-09
-2.45103e-09
3.0306e-09
-8.15631e-09
-1.90462e-08
-1.33843e-08
7.88962e-09
5.89678e-09
-2.5746e-10
-5.45869e-10
3.07091e-09
1.44582e-08
2.21306e-09
-1.76451e-09
-4.16665e-10
4.65419e-10
-2.58243e-10
1.59914e-08
-5.41156e-10
-1.57888e-08
-9.39594e-10
-9.10317e-10
3.12186e-10
-2.36533e-10
3.47551e-09
-1.66434e-08
5.14387e-10
-1.58692e-09
-2.18524e-09
-2.36914e-09
1.55103e-08
-9.06008e-08
-1.39507e-10
9.16876e-08
-1.91051e-10
-8.91742e-08
-4.77001e-10
9.31097e-08
-2.75919e-10
-9.29206e-08
-5.70157e-10
-1.67747e-09
1.66211e-08
9.19889e-08
-1.95957e-10
2.97591e-11
-2.21501e-10
1.00243e-08
2.53356e-09
-7.88259e-09
-1.20904e-08
-5.67807e-09
8.44772e-09
1.44178e-09
-6.85642e-09
-6.06625e-09
9.01326e-09
-1.11873e-10
1.0152e-08
1.9466e-08
-1.79065e-08
3.07062e-09
-1.26164e-08
3.05628e-09
-6.9978e-08
3.95614e-09
-2.05027e-08
-1.30894e-08
-5.21634e-10
-5.96088e-09
-1.52882e-08
9.1088e-09
-1.51966e-08
4.74011e-10
4.00599e-10
-1.79374e-09
-1.64712e-08
1.69519e-08
7.64633e-09
-7.9975e-09
-4.99445e-09
1.52303e-08
-1.69725e-09
7.11973e-10
-1.12902e-09
2.51024e-10
1.18994e-08
3.31818e-09
7.09124e-08
-1.81947e-08
8.03668e-10
-1.49176e-08
-2.53103e-10
-2.967e-10
-8.65634e-11
6.09542e-08
-6.12301e-08
-6.33566e-08
-6.3126e-08
-6.31172e-11
-2.62826e-10
-9.25947e-08
-6.04538e-08
6.24147e-08
6.50854e-08
-6.02809e-08
6.45626e-08
-6.04647e-08
6.37931e-08
-6.07327e-08
6.33585e-08
9.23176e-08
3.10536e-10
-6.4053e-09
7.51093e-08
-6.53858e-08
5.52065e-11
-5.52065e-11
6.9446e-10
-3.42763e-10
1.54918e-08
-4.86292e-11
4.86292e-11
3.77705e-10
1.54974e-09
1.38791e-08
1.3332e-08
-2.7536e-09
3.73709e-09
6.44061e-09
1.90112e-09
3.96843e-10
-2.74226e-10
-2.97563e-09
1.45512e-08
1.48468e-08
-4.27729e-09
1.18114e-08
2.05517e-10
1.63911e-10
2.82393e-09
-8.90656e-10
-1.60929e-09
-5.84891e-09
-1.97984e-10
-4.22051e-10
1.52971e-08
2.85305e-10
8.91707e-11
1.48413e-08
-2.6052e-08
1.76448e-08
2.62468e-09
1.33324e-09
2.47274e-09
-3.71978e-09
1.92249e-08
-1.79779e-08
-9.32523e-11
3.69818e-10
-1.43995e-09
-7.92136e-08
-7.07642e-08
1.37607e-09
-6.85811e-10
6.70016e-10
2.29208e-08
1.85712e-08
-6.35318e-09
8.48312e-11
-4.35212e-09
-2.47775e-09
2.99712e-08
1.48226e-10
1.48185e-08
7.35825e-08
6.32442e-11
5.28951e-10
-1.73889e-10
-2.34694e-10
-3.71979e-09
2.41704e-08
-1.48609e-08
1.06008e-09
-1.41012e-08
-6.16243e-11
2.03474e-08
-2.86405e-08
9.20962e-10
2.091e-09
-3.96725e-10
)
;

boundaryField
{
    back
    {
        type            empty;
        value           nonuniform 0();
    }
    ingreso
    {
        type            calculated;
        value           nonuniform List<scalar> 
14
(
-1.54286e-08
-1.54288e-08
-1.54288e-08
-1.54288e-08
-1.54286e-08
-1.54283e-08
-1.54288e-08
-1.54288e-08
-1.54286e-08
-1.54286e-08
-1.54288e-08
-1.5428e-08
-1.5428e-08
-1.54286e-08
)
;
    }
    salida
    {
        type            calculated;
        value           nonuniform List<scalar> 2(1.01411e-07 1.14589e-07);
    }
    front
    {
        type            empty;
        value           nonuniform 0();
    }
    defaultFaces
    {
        type            calculated;
        value           uniform 0;
    }
}


// ************************************************************************* //
