/*--------------------------------*- C++ -*----------------------------------*\
  =========                 |
  \\      /  F ield         | OpenFOAM: The Open Source CFD Toolbox
   \\    /   O peration     | Website:  https://openfoam.org
    \\  /    A nd           | Version:  7
     \\/     M anipulation  |
\*---------------------------------------------------------------------------*/
FoamFile
{
    version     2.0;
    format      ascii;
    class       volVectorField;
    location    "76";
    object      U;
}
// * * * * * * * * * * * * * * * * * * * * * * * * * * * * * * * * * * * * * //

dimensions      [0 1 -1 0 0 0 0];

internalField   nonuniform List<vector> 
591
(
(0.000831347 -2.03071e-05 1.21766e-18)
(0.000822457 -1.91099e-05 -6.63775e-19)
(0.000857093 -6.49381e-07 5.70201e-20)
(0.000861479 -1.40424e-05 -1.49092e-19)
(0.000846207 -3.20768e-07 2.25553e-19)
(0.000802767 -4.04594e-05 -1.39613e-19)
(0.000563386 -0.000275532 8.06306e-19)
(0.000803656 4.42156e-06 2.09226e-18)
(0.00573318 0.0025045 9.87851e-19)
(0.000803086 -1.09131e-05 2.45359e-18)
(4.82669e-05 0.000167433 1.2182e-18)
(0.000933968 0.00138138 9.40747e-21)
(0.000799903 4.59455e-06 1.32514e-18)
(0.00159965 0.00239602 -7.87522e-19)
(0.000803414 2.11382e-06 -4.44911e-19)
(5.84613e-05 -0.00019014 2.37861e-22)
(0.000137873 0.000676265 7.04919e-19)
(0.000818334 7.02816e-05 -4.98069e-19)
(0.00191959 0.000393808 4.73883e-19)
(0.0013593 0.000252793 -2.47091e-19)
(0.000833191 -6.52304e-06 3.73199e-19)
(0.00340001 0.00655942 -8.15268e-20)
(2.62727e-05 6.85559e-05 2.70931e-19)
(0.000835679 -1.87604e-05 -4.5124e-19)
(9.9129e-06 -1.475e-05 3.58908e-19)
(0.000777947 3.51669e-05 0)
(9.35656e-05 0.000472543 1.59958e-19)
(0.000551247 7.42677e-06 -1.78829e-19)
(0.000756274 4.71041e-05 1.14944e-18)
(0.000810159 5.65427e-05 5.8816e-19)
(5.54062e-05 -4.15775e-06 -4.60771e-24)
(2.98016e-05 -4.45863e-05 3.52156e-19)
(3.44337e-05 -2.93321e-06 -4.64197e-20)
(4.34242e-05 -1.20267e-05 0)
(5.24976e-05 -1.30681e-05 1.1314e-18)
(0.00117418 0.000133739 1.79916e-19)
(2.92567e-05 -5.05477e-06 4.47119e-20)
(0.000825982 3.07965e-06 3.10104e-23)
(2.61363e-05 4.23302e-05 2.66014e-19)
(7.74585e-06 -9.09375e-05 -8.54768e-19)
(0.000644493 -0.000202984 9.59734e-19)
(2.32906e-05 -6.2576e-06 4.54798e-20)
(0.000804696 5.18364e-06 -1.5808e-18)
(0.000831628 4.48388e-05 -6.9111e-19)
(1.56761e-05 -7.2838e-06 0)
(5.32181e-05 6.13871e-06 8.51821e-20)
(0.00134677 0.0045017 8.92939e-19)
(7.40329e-05 1.46117e-05 8.63572e-20)
(0.000801126 1.6301e-05 0)
(0.000385706 -0.000214457 6.77421e-19)
(0.000383768 0.000271736 5.11884e-21)
(0.000396368 4.51346e-05 -1.00373e-18)
(0.00634819 0.0109414 -7.6844e-19)
(0.00622489 0.0107966 1.52773e-20)
(0.00561436 0.0103794 1.45571e-18)
(0.00080806 3.33878e-05 0)
(6.55428e-05 2.95327e-05 0)
(0.000317829 9.31356e-06 1.7306e-23)
(6.11575e-05 9.53172e-06 -3.46438e-19)
(0.000814144 -7.91356e-06 0)
(0.000643096 2.88934e-05 3.17544e-19)
(0.000836919 1.40391e-05 2.20745e-18)
(0.000803293 3.25043e-05 -5.39963e-19)
(0.0007998 1.39436e-05 -3.15731e-19)
(0.00171199 0.000488152 5.4275e-19)
(0.000801705 1.91096e-05 -1.15198e-18)
(0.000830864 2.37768e-05 -5.24232e-19)
(7.80698e-05 -3.71982e-06 -1.73401e-19)
(0.000688859 0.00226176 0)
(0.000839337 4.11658e-05 0)
(0.000781797 1.82265e-05 -1.39266e-18)
(3.69128e-05 1.5315e-05 0)
(0.00028982 0.000268783 3.26826e-19)
(3.82728e-05 -1.67939e-05 0)
(3.97651e-05 -5.79397e-06 1.59463e-19)
(1.29703e-05 -4.21157e-05 -3.3665e-20)
(0.000793761 7.74367e-05 2.46893e-19)
(4.29311e-05 1.00682e-05 0)
(0.000803441 5.60025e-05 4.4742e-19)
(0.00077484 0.000293518 2.10714e-19)
(0.000963748 6.37758e-05 -3.97896e-20)
(4.17488e-05 2.21088e-05 -4.51835e-20)
(5.1224e-06 -1.98671e-05 0)
(0.000435865 0.000215148 1.70175e-19)
(2.83097e-06 2.09425e-05 0)
(0.000796281 3.97239e-05 -6.06708e-19)
(0.000617916 -0.000119821 0)
(6.27245e-05 -2.47963e-06 -1.74469e-19)
(2.66197e-06 -2.72736e-05 0)
(0.000830282 0.000240994 -3.41241e-19)
(3.29766e-06 -1.17003e-05 0)
(0.000425428 0.000322534 -1.31371e-23)
(0.000533488 0.000110892 0)
(0.000809313 4.38899e-05 -3.0687e-24)
(2.57395e-06 1.30886e-05 -4.21687e-20)
(0.000458736 -1.67955e-05 1.76343e-18)
(0.0010225 7.22394e-05 4.15998e-20)
(0.000819418 4.52078e-05 6.41246e-22)
(0.000741009 0.000658054 2.69483e-19)
(6.819e-06 4.60424e-05 0)
(-1.45912e-06 -3.90339e-05 -3.12061e-19)
(-2.61875e-05 -6.57564e-05 -1.10109e-18)
(4.39648e-06 7.41221e-05 -5.96329e-19)
(0.000612883 -2.29112e-05 0)
(8.49375e-06 9.85039e-05 0)
(0.000813774 2.76648e-05 2.18197e-18)
(0.000790884 2.68754e-05 1.53419e-18)
(0.000431445 -8.87447e-05 0)
(4.13735e-05 0.000215618 -8.95325e-19)
(9.60777e-08 0.000163958 4.96695e-19)
(6.00975e-05 0.000405091 6.25177e-19)
(0.000306954 7.83944e-05 -9.37082e-19)
(0.000802564 2.01504e-05 1.37343e-19)
(0.000260294 -4.90823e-05 5.31191e-19)
(4.23358e-06 3.02509e-05 0)
(2.07631e-05 0.000281741 -1.09391e-18)
(0.000321759 0.000322582 -1.61694e-19)
(3.35161e-07 -3.1855e-05 1.46522e-19)
(0.000670215 0.000812516 0)
(0.000369748 0.000386256 5.74379e-20)
(0.000818047 1.93338e-05 1.07018e-18)
(0.000799581 1.63771e-06 -2.72233e-18)
(5.55296e-06 -2.81929e-05 0)
(0.000668872 -3.53747e-05 -1.12307e-19)
(0.000321544 -0.000122857 1.24315e-18)
(0.00264002 0.000808938 -3.36372e-19)
(6.31428e-06 0.000128437 -6.13146e-19)
(5.945e-06 0.0001571 1.61936e-18)
(0.000695373 2.3221e-05 -3.89875e-20)
(6.09591e-05 -1.43619e-05 -7.5012e-19)
(0.000807796 3.1467e-05 -3.86977e-19)
(0.000744406 2.64868e-05 -4.10421e-20)
(3.51866e-05 0.000327821 -5.96984e-19)
(0.000490322 6.25295e-05 -4.93902e-19)
(4.6613e-05 -3.61791e-06 1.56143e-19)
(0.000835607 3.18784e-05 -1.09334e-18)
(0.00155078 0.000236842 -1.13706e-18)
(4.53861e-06 5.96556e-05 4.96401e-19)
(0.000810539 3.0899e-05 -4.98325e-19)
(0.000915458 0.000545604 -7.85056e-20)
(0.000147068 0.000787156 0)
(0.000586515 6.42649e-05 0)
(0.000276212 5.03994e-05 -1.60955e-18)
(6.19349e-05 5.6689e-05 -1.37401e-18)
(2.96676e-05 1.96557e-05 0)
(0.00424704 0.00740002 -1.01946e-20)
(0.00422539 0.00737196 3.16398e-20)
(0.0044276 0.00757475 -4.95996e-21)
(0.00420653 0.00773459 0)
(0.00419895 0.00760043 5.77158e-19)
(0.00424418 0.00740138 -9.19775e-20)
(0.00421024 0.00804219 4.84391e-19)
(0.00428948 0.00742203 0)
(0.00420847 0.00853531 6.16681e-19)
(0.00432594 0.00745048 2.23868e-19)
(0.000826642 1.06267e-05 -1.37369e-18)
(0.000772937 5.5303e-05 0)
(0.000212762 4.89379e-05 1.27689e-19)
(4.86542e-05 1.47685e-05 8.71793e-20)
(7.62113e-05 4.27358e-05 6.79979e-19)
(0.000103622 3.86217e-05 -3.41648e-19)
(9.73247e-05 3.11142e-06 0)
(4.62636e-05 4.23805e-06 8.18323e-20)
(0.000206594 0.000129338 0)
(0.000163941 3.81593e-05 -5.24269e-20)
(0.000344567 0.000220312 -5.09225e-21)
(5.44122e-05 4.12495e-05 -4.37628e-19)
(8.84474e-05 2.49937e-05 -8.52421e-20)
(8.8728e-05 5.94655e-05 1.31187e-21)
(0.000257234 0.00036447 -6.66135e-19)
(0.000107906 0.000998253 0)
(4.0903e-05 5.09331e-05 3.43041e-19)
(0.000198794 0.0017491 0)
(0.000207989 0.00025138 7.0462e-19)
(3.57757e-05 -3.51476e-06 1.11488e-19)
(0.000486085 0.000162812 -1.72292e-19)
(0.00076464 2.40111e-05 -1.92401e-18)
(4.08741e-05 -1.42069e-06 4.58802e-24)
(0.000145747 2.11467e-05 2.24577e-19)
(0.000244735 8.87555e-05 -8.99277e-20)
(0.000881589 0.000701866 3.34922e-19)
(0.000724336 0.0016345 -9.23529e-21)
(0.000398912 0.00142204 -9.39373e-21)
(0.00102587 0.000546692 0)
(9.87961e-05 -1.71875e-05 1.11864e-18)
(0.000112986 1.25051e-05 -4.43076e-20)
(0.000460241 -0.000285133 -1.13607e-18)
(0.000817321 4.05633e-05 0)
(0.000179891 -3.43196e-06 3.63282e-19)
(0.000301204 0.00130651 0)
(0.00108295 0.000774944 -7.30156e-20)
(0.000826977 3.22382e-05 -1.86546e-19)
(7.36866e-05 -2.20632e-05 -2.99962e-19)
(0.00083241 0.000318141 -2.08035e-20)
(5.30255e-05 -2.13504e-05 -5.9946e-19)
(0.000226638 0.000172759 8.63829e-20)
(0.000230344 0.000307748 -3.44991e-19)
(0.000888994 0.000249305 0)
(0.000818332 5.3194e-05 0)
(0.00026433 0.000132407 1.76837e-19)
(0.00023356 -3.59891e-06 4.38369e-24)
(0.000184549 0.00020366 0)
(0.000298601 0.000651439 -5.55669e-21)
(0.000351486 -1.1972e-05 0)
(0.000375792 0.000599246 0)
(0.000107226 7.95533e-05 -1.34662e-21)
(0.000810296 2.99119e-05 -9.51257e-19)
(0.00080709 1.97088e-05 7.97892e-19)
(0.000127065 5.4293e-05 -1.49847e-19)
(0.000962273 0.000148494 8.5043e-20)
(0.000838372 4.18442e-05 3.33244e-19)
(0.000818534 2.92855e-05 -2.94099e-19)
(0.00102384 0.0004161 0)
(0.000441029 0.000116619 6.24398e-19)
(0.00090229 0.000321394 2.09126e-20)
(0.00058143 0.000154436 0)
(0.000272382 0.00044668 4.09618e-19)
(0.000261969 0.000214608 -8.44129e-20)
(0.0010973 0.000379757 -7.82091e-19)
(0.000628362 0.000103703 -1.7928e-19)
(0.000813134 7.35397e-05 -7.45716e-21)
(0.00084233 2.79835e-05 9.39932e-20)
(7.05471e-05 -8.70082e-05 -1.98127e-18)
(0.000741 0.000380997 2.19222e-19)
(0.000673111 6.48984e-05 2.30621e-20)
(0.00070961 0.000279389 1.60626e-23)
(0.000732658 0.000460367 -4.09665e-19)
(0.000847901 2.57275e-05 9.06842e-20)
(7.06349e-05 7.73815e-05 0)
(0.000658491 0.000421104 -4.65892e-20)
(0.000183038 9.18425e-05 0)
(0.000374576 0.000501733 -2.64823e-19)
(0.000310377 0.000164885 0)
(0.000677561 0.000204976 3.55205e-19)
(0.00065241 0.000259699 -4.37226e-20)
(8.07726e-05 0.000102024 6.1912e-19)
(0.000877956 9.44583e-05 -1.62883e-18)
(5.59397e-05 2.06842e-05 2.57176e-19)
(0.000889665 7.07626e-05 -1.68576e-18)
(0.000842697 8.93911e-05 1.62996e-19)
(0.000811065 3.38916e-05 1.90981e-18)
(0.000818005 3.35654e-05 -1.32842e-19)
(0.000739155 7.18807e-05 0)
(0.000805909 2.36491e-05 8.95555e-19)
(0.00096341 0.000231958 -4.27075e-19)
(0.000777287 9.57703e-05 -4.83702e-19)
(0.000779934 0.000233324 -8.81168e-20)
(0.000208207 -0.000173562 -2.07759e-18)
(0.000751229 8.01322e-05 8.87475e-19)
(0.000641191 0.000594932 0)
(8.11531e-05 -0.000118687 0)
(0.00122397 0.000472616 4.97248e-19)
(0.000604888 -6.05375e-05 -3.26673e-18)
(0.00134726 0.000415324 5.7645e-19)
(0.00124551 0.000717733 -6.3884e-20)
(0.000813405 3.14109e-05 -2.1233e-19)
(0.000837971 6.70129e-05 -1.42591e-18)
(0.000814951 2.6754e-05 1.58772e-18)
(0.000817035 2.59016e-05 9.78161e-20)
(0.000671093 0.000352824 -4.40376e-20)
(0.00010079 0.000120377 6.35149e-24)
(0.000754964 -3.70153e-05 2.65051e-19)
(0.000214415 -0.000263048 -7.32064e-19)
(0.00062748 0.000185309 0)
(0.000713299 4.73502e-05 9.90334e-20)
(0.000700821 9.7582e-06 -3.80786e-19)
(0.000391071 0.000168848 3.93338e-20)
(0.000808385 0.00050744 -1.65465e-19)
(0.000147654 7.2386e-05 3.35591e-25)
(0.000813528 0.000412578 0)
(0.000982137 0.000317378 4.15745e-20)
(0.000760151 -7.22897e-05 -6.16112e-19)
(0.000349955 0.000102428 4.97779e-19)
(0.000904205 0.000426535 0)
(4.78201e-05 2.99855e-05 1.33702e-19)
(0.000486476 0.000266074 2.13936e-19)
(0.0005186 -0.000156776 -7.09443e-19)
(0.000121387 -0.000165846 -1.05621e-18)
(0.000825037 3.4618e-05 -4.8676e-19)
(0.000771811 -8.11133e-05 -1.94302e-19)
(0.000547643 0.00072962 -1.17431e-18)
(0.000849546 4.71757e-05 -6.7437e-20)
(0.000611869 -1.97162e-05 1.27887e-18)
(0.000707445 9.95798e-05 2.27765e-20)
(0.000534762 0.00020803 -1.65673e-19)
(2.91975e-05 -2.09384e-05 -8.75783e-20)
(0.00016312 -4.83886e-05 2.40591e-18)
(1.65951e-05 6.73784e-07 -1.94831e-19)
(0.000831712 0.000114998 3.6372e-19)
(0.000668037 0.000135889 0)
(0.000182366 -9.26746e-05 -1.04807e-18)
(0.000118624 -2.07901e-05 3.1286e-19)
(0.000104291 -3.74598e-05 1.30537e-23)
(0.000801066 0.000105702 -3.1924e-19)
(0.000150934 -1.54464e-05 0)
(0.000587525 0.000241065 0)
(0.000111299 0.000327868 -3.62828e-19)
(0.000862908 0.000100689 2.10101e-18)
(1.35192e-05 9.95258e-07 0)
(0.00088127 5.32022e-05 0)
(4.12971e-05 -2.56833e-05 0)
(0.000815437 4.69152e-05 -4.4678e-21)
(0.000788375 -4.16039e-05 0)
(0.00425996 0.00740638 8.0682e-20)
(0.00436176 0.00748632 1.43321e-19)
(0.000843828 -8.53712e-06 0)
(0.00078959 -4.47821e-05 8.12142e-19)
(0.000152395 0.000122291 1.49199e-19)
(0.000855121 6.78142e-05 8.07646e-19)
(0.000129 9.92227e-05 2.34379e-20)
(0.000782518 -2.70841e-05 6.24346e-19)
(3.36846e-05 9.1633e-06 0)
(2.67361e-05 -1.29997e-05 -4.48449e-20)
(0.000899353 4.88788e-05 -4.8652e-19)
(3.09516e-05 -3.11032e-05 -6.69757e-19)
(0.000759323 0.000122697 -4.23208e-20)
(0.000168569 0.000160084 -1.88087e-19)
(0.00081463 2.90209e-05 0)
(0.00468248 0.00815354 9.00054e-22)
(0.000183398 0.000788955 3.3347e-19)
(0.000112289 -6.09853e-05 -9.14464e-19)
(5.80477e-05 -3.50602e-05 -1.16868e-18)
(0.000629909 1.36277e-05 1.89832e-20)
(0.000581983 0.000407217 0)
(0.000420219 0.000443575 -2.56314e-19)
(7.93442e-05 -6.12574e-05 1.18362e-18)
(0.000588395 8.87341e-08 7.69965e-20)
(4.06327e-05 1.65012e-06 4.07067e-19)
(0.000706149 -5.00909e-05 1.17154e-18)
(0.000811451 3.26825e-05 -6.01673e-19)
(6.09864e-05 -5.50181e-05 1.70921e-18)
(0.000842345 -2.83498e-05 -5.79592e-24)
(0.000606446 6.76498e-06 -3.76365e-20)
(0.000869344 7.02354e-05 0)
(0.000840989 4.18384e-05 0)
(0.00591739 0.0072412 2.59624e-19)
(1.72473e-05 -2.44967e-06 -1.19576e-19)
(0.000118626 -0.00010522 7.72941e-19)
(0.000727293 0.000117189 -6.96387e-19)
(2.01825e-05 4.01399e-08 2.01506e-19)
(0.000628102 -3.57966e-05 -7.2376e-19)
(0.000745593 3.67567e-05 1.55793e-18)
(0.000706391 0.000159286 -3.55412e-19)
(0.000807669 -1.24939e-05 3.60732e-19)
(7.30087e-05 -3.47667e-05 1.11592e-18)
(0.000800271 6.79762e-06 -3.22666e-19)
(0.000867987 4.07157e-05 0)
(0.000543003 0.00030307 4.20988e-20)
(0.000859272 5.09371e-05 -9.46698e-19)
(1.78662e-05 2.53349e-06 9.11241e-19)
(0.000854856 4.567e-05 9.65542e-19)
(0.000858301 1.23173e-05 -9.63017e-19)
(0.000753399 -1.94384e-06 -5.69133e-19)
(0.000526397 -7.48061e-05 -5.25609e-19)
(0.0043289 0.00745269 2.46989e-19)
(0.0042235 0.00752914 -2.53583e-19)
(0.00422133 0.0075871 2.66812e-19)
(0.00425579 0.00741053 1.97917e-19)
(0.000844862 -2.98021e-05 1.44144e-19)
(0.00447579 0.00751249 0)
(0.0044033 0.00751689 -3.86791e-19)
(2.78351e-05 -1.27198e-07 -9.98043e-19)
(0.00417055 0.0074693 -6.33516e-20)
(0.0041459 0.0074324 -2.21462e-19)
(0.00602961 0.010606 0)
(0.00654049 0.0111875 3.71298e-20)
(0.00600955 0.0105757 0)
(0.00655619 0.011211 1.30824e-19)
(0.0059969 0.0105997 2.69651e-19)
(0.00659287 0.0112279 1.24539e-20)
(0.00593559 0.0106125 -7.76659e-19)
(0.00662313 0.0111468 8.14368e-21)
(0.00390373 0.00919929 -1.90826e-19)
(0.00418684 0.00748836 3.89932e-21)
(0.00423806 0.00755253 7.93429e-20)
(0.00415038 0.0074347 4.11938e-20)
(0.000881899 0.000192787 4.4671e-20)
(9.53762e-06 1.35367e-06 0)
(0.000707485 -0.00011795 0)
(0.000662411 5.21884e-05 0)
(0.00244386 0.00111092 4.23458e-21)
(0.00075577 -3.15128e-05 1.72569e-19)
(3.91717e-05 5.40076e-06 4.54027e-20)
(9.2703e-06 -2.61146e-05 1.65303e-18)
(0.000852827 1.27604e-05 0)
(2.69944e-05 1.2145e-05 -1.91715e-19)
(0.000139901 0.000221786 0)
(1.64797e-05 -9.79163e-07 0)
(1.32824e-05 -1.25768e-06 0)
(0.00082556 0.000141242 1.13735e-20)
(0.000810835 -1.77564e-05 1.79421e-19)
(3.69407e-05 0.000270406 -1.49352e-23)
(0.000157465 0.000271789 -1.84182e-18)
(0.000604266 0.000328595 -8.56947e-20)
(0.000897323 0.000109935 6.00844e-19)
(0.000647919 -0.000203494 6.7349e-19)
(0.000362475 0.00111028 0)
(0.000473818 0.00057526 2.71511e-18)
(8.99273e-05 0.000144446 -1.80301e-18)
(2.06792e-05 -9.92185e-09 0)
(0.000821711 -5.92701e-05 3.63563e-20)
(1.58667e-05 3.52058e-05 1.64439e-18)
(0.000898509 3.28936e-05 2.71158e-19)
(-2.08156e-05 2.09766e-05 3.80818e-18)
(0.000929366 4.01209e-05 -2.69025e-19)
(0.00134661 0.000150946 7.47154e-19)
(3.39575e-05 -1.04789e-05 8.25661e-20)
(3.54787e-05 3.48038e-06 -8.59042e-19)
(5.07413e-05 0.000141106 0)
(0.000911429 8.16905e-05 5.98505e-19)
(0.000494585 0.000367907 2.37131e-19)
(0.000654079 1.77743e-05 -3.89116e-20)
(0.000779492 -2.73014e-06 2.57316e-19)
(0.000735304 -0.000173577 0)
(0.00632136 0.0108964 -1.68035e-19)
(0.00637911 0.010974 4.05768e-19)
(0.00616038 0.0107312 -6.18354e-19)
(0.00650154 0.0111328 -8.09653e-20)
(3.39344e-05 0.000117781 8.00492e-19)
(0.000921698 6.01235e-05 1.45312e-22)
(0.00641166 0.0110065 -3.86398e-19)
(0.00628231 0.0108461 5.48386e-19)
(0.00608049 0.0106729 -4.16771e-19)
(0.00652203 0.0111652 -6.81272e-20)
(8.00431e-05 0.000503839 -2.01803e-20)
(7.60762e-05 -0.000201519 -7.93049e-19)
(0.000666764 -2.07614e-05 -7.65075e-19)
(0.000725104 0.000220139 0)
(0.000800141 3.79525e-07 0)
(0.000186581 0.00038994 3.3628e-19)
(0.000598677 0.00051401 -5.41842e-19)
(9.0378e-06 -1.54203e-06 1.78387e-19)
(0.000200854 0.00046725 -7.38357e-19)
(0.00101179 0.000973715 -1.12679e-19)
(0.000744798 0.000165925 0)
(0.000788912 0.000183995 1.31015e-19)
(0.00635398 0.00588049 1.13134e-18)
(0.000739464 0.00112822 8.26549e-20)
(3.82111e-05 3.75143e-05 -7.44654e-20)
(0.000809843 1.27621e-05 0)
(0.000874134 2.56839e-05 -3.56893e-20)
(3.37865e-05 3.06896e-06 -1.96704e-19)
(2.92595e-05 4.46841e-06 1.92986e-19)
(0.000833345 1.78838e-05 5.37196e-19)
(0.000973856 0.000110184 6.58217e-19)
(0.00056184 3.9754e-05 0)
(0.000222762 -0.000295944 -3.98062e-19)
(0.000915904 0.000146401 3.89582e-19)
(1.09971e-05 -5.9122e-05 2.03109e-19)
(0.00145119 0.000443133 -2.58163e-18)
(0.000590713 -8.52647e-06 0)
(0.000792558 0.000143732 3.75454e-19)
(9.46271e-05 0.000394143 0)
(0.00118803 0.00816138 4.62139e-19)
(0.000491093 0.00049955 -1.22449e-18)
(0.000541302 0.00101043 -1.83745e-19)
(0.00088202 1.76412e-05 -1.46049e-19)
(1.28089e-05 2.49158e-05 0)
(0.000948698 7.73596e-05 6.1167e-19)
(0.00410632 0.00739548 8.14093e-20)
(0.0041714 0.00747378 4.72938e-20)
(0.00449957 0.0075152 4.5401e-19)
(0.00444477 0.00754111 -3.29313e-19)
(0.00647548 0.0111098 8.10428e-20)
(0.00391481 0.00714602 -9.70958e-22)
(0.0055079 0.00779767 -5.64689e-19)
(0.00409785 0.00737164 5.21809e-21)
(0.00518852 0.00785741 5.11619e-19)
(0.00407965 0.0073401 -4.87041e-20)
(0.00495356 0.00771676 0)
(0.00408495 0.00736451 -8.56342e-20)
(0.0047422 0.00758789 4.9246e-19)
(0.00409822 0.00737612 8.7494e-20)
(0.00457478 0.0075275 0)
(0.00428351 0.0074206 1.39723e-19)
(0.00423953 0.0075987 5.80367e-19)
(0.00446719 0.00752653 -5.55243e-19)
(0.00438751 0.00750447 3.71335e-19)
(0.00422807 0.00752505 2.87807e-19)
(0.00643085 0.0110432 -4.97637e-21)
(0.00411778 0.00740159 3.11534e-20)
(0.00645894 0.0110731 0)
(2.36248e-05 5.67758e-06 -1.89853e-19)
(0.00199995 0.00654398 2.28248e-19)
(0.000838758 -5.03036e-05 1.09759e-19)
(0.000856006 8.07555e-06 0)
(1.46885e-06 1.23604e-06 -3.99097e-19)
(-1.067e-05 -0.000126278 6.9191e-19)
(2.42366e-05 5.62676e-05 2.08892e-18)
(0.000828877 0.000180988 -9.00686e-20)
(0.000800507 9.0577e-06 7.06364e-19)
(1.22843e-06 -9.97062e-07 3.09977e-19)
(1.79872e-05 -3.33276e-05 -1.84559e-18)
(0.000762801 2.73314e-05 1.63145e-19)
(0.000868253 0.000123929 -3.07976e-20)
(0.000800551 -8.57554e-06 1.4813e-19)
(0.000416941 0.000680009 0)
(3.90913e-05 -0.000145288 1.15142e-18)
(0.000865212 7.14625e-06 1.52511e-19)
(1.97302e-05 2.35252e-05 0)
(0.000115849 0.000559527 -6.31216e-19)
(0.000608682 0.000592561 1.31789e-18)
(0.000326647 0.000752438 0)
(0.000801399 -1.65121e-05 0)
(0.000801109 2.93569e-06 1.17505e-18)
(1.72726e-05 4.86592e-05 -3.51482e-18)
(1.63633e-05 7.01043e-06 3.73608e-19)
(0.00011626 0.000144208 0)
(4.38089e-05 -4.07196e-05 0)
(6.15371e-05 0.000111835 2.00991e-19)
(0.000937003 0.00018846 3.5042e-19)
(0.000800027 1.54331e-05 -1.3969e-18)
(2.25979e-05 3.27703e-05 0)
(0.000451623 8.56783e-06 -6.04136e-20)
(0.000801035 3.8137e-05 -1.5634e-19)
(0.00084289 3.76155e-05 1.06385e-18)
(0.000257457 0.000542124 6.32204e-19)
(0.00087678 0.000156602 0)
(1.81746e-05 -2.32224e-05 5.38622e-19)
(2.38805e-06 -5.32324e-06 -3.19954e-19)
(0.000973182 3.19388e-05 0)
(0.00103639 0.00226591 0)
(0.000932542 -4.11229e-06 0)
(0.00100227 0.000207309 4.27164e-19)
(0.000817605 -3.46964e-05 -2.84056e-19)
(0.000932046 0.000109339 -6.8475e-19)
(0.000800733 3.36767e-06 0)
(4.17875e-05 6.82241e-05 -1.71559e-19)
(0.000174407 0.000326607 1.08109e-18)
(0.000799389 1.47369e-05 -1.96326e-23)
(0.00109257 0.000209709 -6.68889e-19)
(0.00109003 0.000126178 0)
(2.44577e-06 5.96272e-06 2.5102e-19)
(1.79385e-05 -1.5013e-05 -1.94307e-19)
(0.000571476 4.07256e-05 6.94984e-21)
(7.69702e-06 -7.76476e-05 0)
(0.00106334 0.000254681 9.50009e-19)
(0.00502875 0.00974881 -2.83005e-19)
(0.0031213 0.00961804 1.27246e-18)
(3.83059e-05 -0.000104196 -1.91332e-19)
(5.29253e-05 -7.48589e-05 1.85944e-18)
(0.0011908 0.000247932 1.67334e-19)
(0.00132785 0.00107922 2.34078e-19)
(0.000811265 7.21646e-07 -7.32926e-19)
(0.00019751 0.00095132 -2.38232e-19)
(0.000815658 0.000937365 -2.18576e-19)
(0.000800084 -2.61593e-06 0)
(8.40583e-05 0.000623002 0)
(9.53577e-05 0.000281791 -3.92325e-23)
(0.000719031 -4.3503e-05 -1.67791e-23)
(0.000823307 6.65112e-05 1.52603e-19)
(0.00263077 0.00206258 -1.23122e-18)
(0.00175971 0.00923808 -1.17206e-19)
(0.000834729 5.66598e-05 4.92228e-19)
(0.00632696 0.00404897 -1.75963e-19)
(0.0067211 0.0115578 -1.36405e-20)
(0.00473411 0.00784383 4.9265e-21)
(0.000802463 1.35873e-05 -2.1929e-18)
(0.000837959 7.13746e-06 5.67153e-24)
(8.34988e-06 -7.31118e-06 -3.48007e-19)
(4.63136e-05 8.91105e-05 -3.49267e-19)
(6.58279e-05 0.000269169 8.75212e-19)
(1.07717e-05 1.58749e-05 4.90392e-19)
(8.96525e-05 0.000229592 3.69753e-19)
(0.000822181 2.22663e-05 0)
(0.00534811 0.00949244 1.9507e-20)
(0.00153509 0.000636088 -2.61214e-20)
(0.000819846 3.60513e-05 3.60165e-19)
(3.19364e-05 -8.12858e-05 0)
(0.0018478 0.000744475 5.45972e-19)
(9.2028e-06 7.36882e-06 -2.70146e-19)
(3.35315e-05 2.80739e-05 9.71794e-20)
(0.00132918 0.00139666 6.3658e-19)
(0.000736676 4.85023e-05 1.83097e-19)
(4.56311e-06 -1.52687e-06 -1.70199e-19)
(0.00206179 0.00155984 -1.05583e-18)
(0.000126505 0.000178198 -8.18726e-19)
(0.00392136 0.00848717 -1.09082e-18)
(5.20183e-06 1.50306e-06 8.81402e-20)
(0.000128423 -0.00010638 -1.25698e-18)
(4.68464e-05 -5.71348e-05 4.05634e-20)
(0.00152564 0.000983493 0)
(0.00103984 0.000138549 -4.04438e-22)
(0.000453626 0.000848819 -4.02025e-20)
(0.000802877 2.75196e-05 -2.34071e-19)
(8.7097e-05 0.000184386 7.36043e-19)
(3.01701e-05 -6.07844e-05 4.03999e-19)
(1.81726e-05 1.49975e-05 -9.47076e-20)
(3.12462e-05 9.17084e-05 -3.20281e-19)
(0.000207897 -0.00024344 -5.45163e-19)
(0.00325034 0.00346094 2.87899e-21)
)
;

boundaryField
{
    back
    {
        type            empty;
    }
    ingreso
    {
        type            fixedValue;
        value           uniform (0.0008 0 0);
    }
    salida
    {
        type            zeroGradient;
    }
    front
    {
        type            empty;
    }
    defaultFaces
    {
        type            noSlip;
    }
}


// ************************************************************************* //
