/*--------------------------------*- C++ -*----------------------------------*\
  =========                 |
  \\      /  F ield         | OpenFOAM: The Open Source CFD Toolbox
   \\    /   O peration     | Website:  https://openfoam.org
    \\  /    A nd           | Version:  7
     \\/     M anipulation  |
\*---------------------------------------------------------------------------*/
FoamFile
{
    version     2.0;
    format      ascii;
    class       volScalarField;
    location    "22";
    object      p;
}
// * * * * * * * * * * * * * * * * * * * * * * * * * * * * * * * * * * * * * //

dimensions      [0 2 -2 0 0 0 0];

internalField   nonuniform List<scalar> 
591
(
0.000123913
0.000123928
0.000123947
0.000123911
0.000123912
0.000124013
0.000123968
0.000123946
0.000116851
0.000123942
0.000124094
0.000122803
0.000123991
0.000119695
0.000123948
0.000123977
0.000123855
0.000123978
0.000121926
0.000123325
0.000123911
-3.10246e-06
0.000124093
0.000123913
0.00012405
0.000123926
0.000123986
0.000124015
0.000123937
0.00012398
0.000124069
0.000124046
0.000124065
0.000124064
0.000124067
0.00012342
0.000124062
0.000123928
0.000124086
0.000123999
0.000123989
0.000124059
0.000123938
0.000123963
0.000124056
0.000124073
0.000119222
0.000124077
0.000123953
0.000124054
0.00012401
0.000124052
2.3773e-05
3.03721e-05
4.77388e-05
0.000123969
0.000124081
0.000124062
0.000124075
0.000123913
0.000123989
0.000123934
0.000123942
0.000124026
0.000122544
0.000123936
0.000123942
0.000124072
0.000120667
0.000123968
0.000123939
0.000124078
0.000124036
0.000124059
0.000124065
0.000124039
0.000123905
0.000124075
0.000123911
0.000123827
0.000123696
0.00012408
0.000124043
0.00012401
0.000124088
0.000123919
0.000124009
0.00012407
0.000124034
0.000123798
0.000124048
0.000123979
0.000124007
0.000123922
0.000124086
0.000124046
0.000123627
0.000123521
0.000123635
0.00012409
0.000124001
0.000123922
0.000124094
0.000123915
0.000124092
0.000123944
0.00012393
0.000124043
0.000124085
0.000124089
0.000123973
0.000124061
0.000123959
0.000124068
0.000124089
0.000124068
0.00012401
0.00012402
0.000123562
0.000123976
0.00012394
0.000124004
0.00012397
0.000123925
0.000124064
0.000120173
0.000124093
0.000124064
0.000123697
0.000124065
0.000123928
0.00012362
0.000124028
0.000124026
0.000124068
0.000123955
0.000122589
0.000124094
0.000123938
0.00012357
0.000123629
0.000124
0.00012407
0.000124086
0.000124081
7.47053e-06
3.78954e-06
2.28297e-06
3.80361e-05
3.65647e-05
5.64016e-06
3.81847e-05
1.55256e-05
3.7147e-05
1.76341e-05
0.000123937
0.000123918
0.000124079
0.000124077
0.000124083
0.00012408
0.000124074
0.000124072
0.000124075
0.000124076
0.000124035
0.000124084
0.000124079
0.000124084
0.00012401
0.000123369
0.000124086
0.000122075
0.000124056
0.000124068
0.000124009
0.00012394
0.000124068
0.000124077
0.000124073
0.000123478
0.000122426
0.000123016
0.000123441
0.000124071
0.000124075
0.000124035
0.000123914
0.000124069
0.000122921
0.000123292
0.000123916
0.000124068
0.00012377
0.00012406
0.000124067
0.000124037
0.000123741
0.0001239
0.000124066
0.000124079
0.000124069
0.000123859
0.000124051
0.000123858
0.000124085
0.000123941
0.000123934
0.000124081
0.000123714
0.000123904
0.000123957
0.000123548
0.000124033
0.000123696
0.000123979
0.000123973
0.000124055
0.000123471
0.000123975
0.000123886
0.000123905
0.00012404
0.000123803
0.000123968
0.000123874
0.000123776
0.000123897
0.000124087
0.000123841
0.00012408
0.000123913
0.000124055
0.000123918
0.000123914
0.000124087
0.000123824
0.000124078
0.000123822
0.000123869
0.000123953
0.000123923
0.000123939
0.00012394
0.000123688
0.000123901
0.000123844
0.000124046
0.000123925
0.000123743
0.000124035
0.000123301
0.000123864
0.000123228
0.000123062
0.000123929
0.00012389
0.000123922
0.000123918
0.000123859
0.000124085
0.000123958
0.000124029
0.00012395
0.000123962
0.000123974
0.000124034
0.000123692
0.00012408
0.000123734
0.000123628
0.00012395
0.000124057
0.000123641
0.000124082
0.00012398
0.000124028
0.000124039
0.000123959
0.000123904
0.000123694
0.000123891
0.000123903
0.000123945
0.00012398
0.000124055
0.000124065
0.000124075
0.00012386
0.000123948
0.000124058
0.000124068
0.000124065
0.000123881
0.000124078
0.000123949
0.000124048
0.000123846
0.000124077
0.000123843
0.000124055
0.000123986
0.000123907
1.13692e-05
2.17807e-05
0.000123892
0.000123935
0.000124083
0.000123874
0.000124084
0.000123946
0.000124077
0.000124057
0.000123837
0.000124051
0.000123898
0.000124078
0.00012395
-1.77656e-07
0.000123751
0.000124058
0.000124055
0.000123796
0.000123896
0.000123923
0.000124051
0.000123862
0.000124072
0.000123973
0.000123944
0.000124048
0.000123912
0.000123831
0.000123855
0.000123963
4.7272e-05
0.000124066
0.000124049
0.000123924
0.000124072
0.000123997
0.00012395
0.000123921
0.000123934
0.000124059
0.000124001
0.000123869
0.000123945
0.000123873
0.000124073
0.000123879
0.000123912
0.000123956
0.000124035
1.97155e-05
2.70831e-05
3.41255e-05
9.4036e-06
0.000123914
3.28595e-05
2.58034e-05
0.00012407
1.88426e-05
1.67511e-05
3.80507e-05
7.40003e-06
3.98337e-05
5.51903e-06
4.07289e-05
3.7102e-06
4.27069e-05
1.99511e-06
3.6238e-05
2.30179e-05
2.923e-05
1.46771e-05
0.000123777
0.000124079
0.000123975
0.000123992
0.000120886
0.000124077
0.000124074
0.000124046
0.000123893
0.00012408
0.000124072
0.000124063
0.00012406
0.00012384
0.000123931
0.000124056
0.00012406
0.000123904
0.000123801
0.000123777
0.000123379
0.000123845
0.00012409
0.000124066
0.000123945
0.000124089
0.000123794
0.000123933
0.000123749
0.000122859
0.000124061
0.000124071
0.000124087
0.000123792
0.000123938
0.000123754
0.000123948
0.000123918
2.57883e-05
2.1768e-05
3.28623e-05
1.13445e-05
0.000124096
0.000123801
1.96933e-05
2.79935e-05
3.54458e-05
9.35187e-06
0.000123903
0.000124017
0.000123896
0.000123885
0.000123991
0.000124017
0.000123807
0.000124058
0.00012398
0.000123078
0.000123892
0.00012386
5.91265e-05
0.000123208
0.000124084
0.000123931
0.000123832
0.000124073
0.000124076
0.000123919
0.000123703
0.000123949
0.000124003
0.000123778
0.000124029
0.000122904
0.000123891
0.000123873
0.000124024
0.000100734
0.000123869
0.000123472
0.000123864
0.000124087
0.000123759
1.06315e-05
2.09428e-05
3.52509e-05
2.78943e-05
1.33696e-05
2.62793e-07
4.19137e-05
2.82612e-06
4.00079e-05
4.7215e-06
3.92728e-05
6.69522e-06
3.8502e-05
8.67708e-06
3.71935e-05
1.34031e-05
3.15262e-05
3.02842e-05
2.37957e-05
2.50421e-05
1.75526e-05
1.26195e-05
1.54195e-05
0.000124078
0.000102358
0.000123917
0.000123863
0.000124083
0.000123979
0.000124088
0.00012382
0.000124012
0.000124053
0.000124047
0.000124124
0.000123823
0.000123982
0.000123787
0.000124018
0.000123891
0.000124083
0.000123931
0.000123764
0.000123766
0.000123993
0.000124011
0.000124091
0.000124081
0.000124085
0.000124051
0.000124089
0.000123737
0.000123942
0.000124084
0.000123886
0.000124053
0.000123939
0.000123932
0.000123804
0.000124051
0.000124051
0.000123385
0.000121333
0.00012312
0.000123652
0.000123939
0.000123762
0.000123999
0.000124087
0.000124041
0.000123964
0.000123543
0.000123535
0.000124085
0.000124054
0.000123971
0.000124016
0.000123576
5.81999e-05
3.9976e-05
0.000124024
0.000124042
0.000123427
0.000122727
0.000123929
0.000123606
0.000123356
0.00012398
0.000123793
0.000124063
0.00012396
0.000124002
0.000118973
5.43562e-05
0.000123972
8.10562e-05
1.76726e-06
-2.11567e-07
0.000123938
0.000123914
0.000124053
0.000124088
0.000124075
0.000124085
0.000124076
0.000123925
-2.18404e-06
0.000122824
0.000123955
0.000124032
0.000121995
0.000124083
0.000124083
0.000122241
0.000124038
0.000124055
0.000121662
0.00012408
7.62462e-05
0.000124081
0.000123535
0.000124045
0.000122355
0.000123636
0.000123651
0.000123975
0.000124083
0.000124039
0.000124082
0.000124094
0.000123942
0.000116136
)
;

boundaryField
{
    back
    {
        type            empty;
    }
    ingreso
    {
        type            zeroGradient;
    }
    salida
    {
        type            fixedValue;
        value           uniform 0;
    }
    front
    {
        type            empty;
    }
    defaultFaces
    {
        type            zeroGradient;
    }
}


// ************************************************************************* //
