/*--------------------------------*- C++ -*----------------------------------*\
  =========                 |
  \\      /  F ield         | OpenFOAM: The Open Source CFD Toolbox
   \\    /   O peration     | Website:  https://openfoam.org
    \\  /    A nd           | Version:  7
     \\/     M anipulation  |
\*---------------------------------------------------------------------------*/
FoamFile
{
    version     2.0;
    format      ascii;
    class       volVectorField;
    location    "22";
    object      U;
}
// * * * * * * * * * * * * * * * * * * * * * * * * * * * * * * * * * * * * * //

dimensions      [0 1 -1 0 0 0 0];

internalField   nonuniform List<vector> 
591
(
(0.000806998 -4.85557e-05 1.22626e-18)
(0.000772297 -3.86407e-05 -6.58279e-19)
(0.000844764 -6.53015e-05 5.75706e-20)
(0.00083047 1.14591e-05 -1.47684e-19)
(0.00081691 1.91726e-05 2.23093e-19)
(0.000752483 -2.77893e-05 -1.38381e-19)
(0.000531883 -0.000391189 7.95518e-19)
(0.00079643 -8.23002e-06 2.07971e-18)
(0.00577149 0.00248866 9.86434e-19)
(0.00077827 -2.31482e-05 2.38004e-18)
(6.25581e-05 0.000179569 1.21716e-18)
(0.000887284 0.0012755 9.40232e-21)
(0.000783972 1.2926e-05 1.28836e-18)
(0.00155174 0.00234817 -7.8687e-19)
(0.000795916 2.99321e-05 -4.38067e-19)
(0.000141936 -0.00025833 2.53082e-22)
(0.000130491 0.000663442 7.05125e-19)
(0.000836816 1.89512e-05 -4.92442e-19)
(0.00200815 0.00038264 4.73547e-19)
(0.00133845 0.000294518 -2.46998e-19)
(0.000826147 1.73037e-05 3.68872e-19)
(0.00331988 0.00674364 -7.13064e-20)
(3.81686e-05 7.74569e-05 2.70773e-19)
(0.000817522 9.34327e-06 -4.46158e-19)
(1.91162e-05 -2.41217e-05 3.58881e-19)
(0.000759342 2.35499e-05 0)
(8.9208e-05 0.00047976 1.59933e-19)
(0.000510673 3.30323e-05 -1.78875e-19)
(0.000741518 5.88933e-05 1.13376e-18)
(0.000821423 -1.88995e-06 5.89094e-19)
(6.86987e-05 -2.39115e-07 -2.19717e-24)
(4.82764e-05 -5.51056e-05 3.52215e-19)
(4.75869e-05 -4.49819e-06 -4.63955e-20)
(5.64501e-05 -9.30531e-06 0)
(6.39114e-05 -1.53026e-05 1.12995e-18)
(0.00116082 0.000132136 1.80016e-19)
(4.13529e-05 -7.63494e-06 4.47194e-20)
(0.000817242 1.63197e-05 4.59727e-23)
(3.62356e-05 5.26711e-05 2.66002e-19)
(6.74395e-05 -0.000152226 -8.54304e-19)
(0.000537259 -0.000176057 9.56693e-19)
(3.44396e-05 -1.00218e-05 4.54871e-20)
(0.000792619 -7.91874e-06 -1.55604e-18)
(0.000818024 1.27605e-05 -6.8243e-19)
(2.50402e-05 -1.20586e-05 0)
(6.43195e-05 1.1608e-05 8.51944e-20)
(0.00132889 0.00451467 8.92348e-19)
(8.67876e-05 2.40524e-05 8.63686e-20)
(0.000787899 3.79559e-05 0)
(0.000363059 -0.000133379 6.7805e-19)
(0.000367924 0.000281275 5.11908e-21)
(0.000382828 7.80888e-05 -1.00393e-18)
(0.00634218 0.0109386 -7.62948e-19)
(0.00622809 0.0107915 1.55691e-20)
(0.005606 0.0103691 1.45166e-18)
(0.000805407 -3.19272e-05 0)
(7.5493e-05 3.89556e-05 0)
(0.000327769 3.42903e-05 9.70431e-24)
(7.30861e-05 1.61366e-05 -3.46485e-19)
(0.000843164 -5.91706e-06 0)
(0.000603974 2.62994e-05 3.1764e-19)
(0.000802473 4.34922e-06 2.14816e-18)
(0.000765848 -1.69891e-06 -5.42254e-19)
(0.000762409 1.76036e-05 -3.12524e-19)
(0.0017114 0.000531102 5.43899e-19)
(0.000785154 -3.57854e-06 -1.13644e-18)
(0.000806444 -1.80825e-06 -5.1346e-19)
(9.56046e-05 4.76609e-06 -1.73408e-19)
(0.000689283 0.00230273 0)
(0.000811378 8.46349e-06 0)
(0.000738997 1.91961e-05 -1.36091e-18)
(4.48782e-05 2.03675e-05 0)
(0.000279655 0.000277466 3.26835e-19)
(5.23398e-05 -2.1231e-05 0)
(5.17565e-05 -7.29354e-06 1.59485e-19)
(3.49586e-05 -5.81589e-05 -3.36656e-20)
(0.000759852 5.77847e-05 2.44715e-19)
(5.18864e-05 1.45696e-05 0)
(0.000776929 6.08919e-05 4.40386e-19)
(0.000743812 0.000301425 2.10753e-19)
(0.000959042 6.00085e-05 -3.98079e-20)
(5.00616e-05 2.87232e-05 -4.51899e-20)
(7.32243e-06 -4.53735e-05 0)
(0.000417162 0.000225716 1.70189e-19)
(1.93123e-06 3.61663e-05 0)
(0.000745855 7.50855e-06 -5.9809e-19)
(0.000548437 -0.000109615 0)
(7.62879e-05 3.09992e-06 -1.7449e-19)
(5.49461e-06 -6.03717e-05 0)
(0.000803911 0.000246414 -3.41333e-19)
(5.21272e-06 -2.83504e-05 0)
(0.000411678 0.000323898 -1.20598e-23)
(0.000505293 0.000117987 0)
(0.000791472 4.51418e-05 7.91691e-25)
(3.04046e-06 2.44781e-05 -4.21747e-20)
(0.00042985 1.16297e-05 1.76386e-18)
(0.00101462 7.54515e-05 4.16189e-20)
(0.000976752 3.4069e-05 6.40652e-22)
(0.000719706 0.000648909 2.69374e-19)
(4.0138e-06 6.85431e-05 0)
(8.78679e-06 -0.000117136 -3.12272e-19)
(2.04826e-05 -0.000208774 -1.10138e-18)
(7.4379e-07 0.000105843 -5.95805e-19)
(0.000725839 -4.83155e-06 0)
(3.55866e-06 0.000133721 0)
(0.000786779 2.37539e-06 2.18488e-18)
(0.000753053 2.88705e-05 1.49609e-18)
(0.000396173 -3.11682e-05 0)
(5.5809e-05 0.000234097 -8.94332e-19)
(-1.37838e-06 0.000212531 4.95846e-19)
(8.59794e-05 0.00047701 6.25225e-19)
(0.000290724 0.000117602 -9.35289e-19)
(0.00081027 9.38951e-06 1.34723e-19)
(0.000267778 -2.38104e-06 5.31206e-19)
(2.56116e-06 4.87683e-05 0)
(4.41443e-05 0.00032123 -1.08854e-18)
(0.000311286 0.000329882 -1.61696e-19)
(8.52897e-06 -8.71321e-05 1.46574e-19)
(0.000645232 0.000780975 0)
(0.000355584 0.000391615 5.74395e-20)
(0.000799741 -7.52739e-07 1.06881e-18)
(0.000758339 -2.60055e-05 -2.6863e-18)
(9.0865e-06 -0.000154479 0)
(0.000755501 -1.44097e-05 -1.11327e-19)
(0.000317597 -5.37305e-05 1.24344e-18)
(0.00272263 0.000806393 -3.35401e-19)
(-3.11385e-06 0.000165824 -6.12609e-19)
(-1.37638e-05 0.000205788 1.61797e-18)
(0.000850127 1.83262e-05 -3.88812e-20)
(7.47851e-05 -6.2532e-06 -7.4986e-19)
(0.000777038 3.40005e-05 -3.87953e-19)
(0.000900935 2.85387e-05 -4.09856e-20)
(6.56425e-05 0.000381962 -5.96514e-19)
(0.000464835 8.48854e-05 -4.93968e-19)
(5.93531e-05 -1.8483e-06 1.56167e-19)
(0.00081658 -1.18292e-05 -1.05684e-18)
(0.0016471 0.000208261 -1.1374e-18)
(2.44359e-07 8.24367e-05 4.96018e-19)
(0.000790644 -1.34127e-06 -5.00679e-19)
(0.000875853 0.000539151 -7.85135e-20)
(0.000132449 0.00086239 0)
(0.000550775 6.89306e-05 0)
(0.000267944 6.49621e-05 -1.60838e-18)
(6.96433e-05 6.68019e-05 -1.37418e-18)
(3.63474e-05 2.51333e-05 0)
(0.00415878 0.00742403 -1.01748e-20)
(0.00412697 0.00743508 3.25815e-20)
(0.00432429 0.00764239 -7.20957e-21)
(0.00420736 0.00773651 0)
(0.00420141 0.00760055 5.75035e-19)
(0.00414837 0.00744467 -8.12491e-20)
(0.00421489 0.00804731 4.82856e-19)
(0.00429807 0.00744994 0)
(0.00421014 0.00853882 6.14691e-19)
(0.00433805 0.00749263 1.7995e-19)
(0.000800609 -4.24113e-06 -1.35732e-18)
(0.000743198 5.6039e-05 0)
(0.000219579 7.3737e-05 1.27695e-19)
(5.82029e-05 2.10005e-05 8.71915e-20)
(8.55498e-05 5.35069e-05 6.80066e-19)
(0.000114984 5.12956e-05 -3.41688e-19)
(0.000110488 1.56311e-05 0)
(5.69348e-05 8.19546e-06 8.18371e-20)
(0.000204122 0.000147765 0)
(0.000173346 6.08893e-05 -5.24288e-20)
(0.000333444 0.000232438 -5.09245e-21)
(6.21221e-05 5.05494e-05 -4.37688e-19)
(9.95845e-05 3.6762e-05 -8.52532e-20)
(9.74322e-05 7.14014e-05 1.31202e-21)
(0.000246142 0.000371993 -6.66143e-19)
(0.000149793 0.00108094 0)
(4.76992e-05 5.94562e-05 3.43086e-19)
(0.000174404 0.00183378 0)
(0.000205806 0.000261409 7.04647e-19)
(4.6238e-05 -6.52712e-06 1.11324e-19)
(0.000462884 0.000171447 -1.72305e-19)
(0.000748971 2.79786e-05 -1.85137e-18)
(5.10302e-05 3.21576e-07 4.22397e-24)
(0.000158092 3.97826e-05 2.24598e-19)
(0.000238342 0.000111225 -8.99378e-20)
(0.000867006 0.000701501 3.34916e-19)
(0.000757862 0.00162324 -9.21901e-21)
(0.000404096 0.00136841 -9.43946e-21)
(0.00100644 0.000559998 0)
(0.000115434 -1.00736e-05 1.11885e-18)
(0.00012811 2.89679e-05 -4.43176e-20)
(0.000414695 -0.000237904 -1.13626e-18)
(0.00079802 3.45525e-05 0)
(0.000185198 3.23089e-05 3.63061e-19)
(0.000274694 0.00136611 0)
(0.00102731 0.000741705 -7.30163e-20)
(0.000813696 4.49262e-05 -1.83023e-19)
(9.29262e-05 -1.78624e-05 -2.99996e-19)
(0.000801451 0.000307546 -2.08075e-20)
(7.83088e-05 -2.25788e-05 -5.98932e-19)
(0.000226312 0.000185328 8.63875e-20)
(0.000225152 0.000313141 -3.45005e-19)
(0.000864503 0.000236689 0)
(0.000785502 4.26155e-05 0)
(0.00025852 0.000154098 1.76851e-19)
(0.000235185 2.2927e-05 1.48349e-24)
(0.000184989 0.000215036 0)
(0.000282 0.000642308 -5.5535e-21)
(0.000327756 2.17392e-05 0)
(0.000333873 0.000594084 0)
(0.000116266 9.37895e-05 -1.34678e-21)
(0.000806839 -8.90277e-06 -9.37038e-19)
(0.000817111 -1.52854e-05 7.74095e-19)
(0.000135641 7.09942e-05 -1.49864e-19)
(0.000933634 0.000150749 8.50586e-20)
(0.000818656 4.96938e-05 3.29074e-19)
(0.000788811 1.67712e-05 -2.92486e-19)
(0.000984102 0.000402978 0)
(0.000423581 0.000128856 6.24495e-19)
(0.00087481 0.000315717 2.09166e-20)
(0.000549076 0.000166844 0)
(0.000274207 0.000438363 4.09612e-19)
(0.000257021 0.0002283 -8.44173e-20)
(0.00108842 0.000381903 -7.82272e-19)
(0.000590662 0.000118079 -1.79321e-19)
(0.00078393 8.65554e-05 -7.37252e-21)
(0.000815784 2.62571e-05 9.29023e-20)
(0.000110887 -9.30627e-05 -1.98148e-18)
(0.000720843 0.000377453 2.19243e-19)
(0.000634984 6.93224e-05 2.30553e-20)
(0.000684534 0.000272936 1.51493e-23)
(0.000706814 0.00044539 -4.09491e-19)
(0.000827486 3.9002e-05 8.85812e-20)
(7.77574e-05 9.10307e-05 0)
(0.000634267 0.000418997 -4.65681e-20)
(0.000185256 0.000111878 0)
(0.000364602 0.000507703 -2.64788e-19)
(0.000309294 0.0001811 0)
(0.000654092 0.000204651 3.55284e-19)
(0.000626657 0.000269681 -4.37302e-20)
(8.34822e-05 0.000110601 6.19009e-19)
(0.000868973 0.000118774 -1.61614e-18)
(6.59094e-05 2.80705e-05 2.57211e-19)
(0.000870734 5.34058e-05 -1.64852e-18)
(0.000798391 5.79476e-05 1.60967e-19)
(0.000788118 7.42854e-06 1.92983e-18)
(0.000786905 3.6183e-06 -1.31396e-19)
(0.000693897 7.47185e-05 0)
(0.000823902 3.25927e-05 8.73814e-19)
(0.000924067 0.000238258 -4.27188e-19)
(0.000744602 7.50999e-05 -4.81098e-19)
(0.000758337 0.000228931 -8.80959e-20)
(0.00024411 -0.000104862 -2.07936e-18)
(0.000712204 9.37056e-05 8.87422e-19)
(0.000624248 0.000591559 0)
(0.000132003 -9.6095e-05 0)
(0.00117789 0.000465842 4.96842e-19)
(0.000794617 -0.000127703 -3.22945e-18)
(0.0012831 0.000417203 5.74641e-19)
(0.00126556 0.000712735 -6.38723e-20)
(0.000785296 5.48086e-05 -2.10667e-19)
(0.000812342 7.72058e-05 -1.40701e-18)
(0.000797065 3.50412e-05 1.57098e-18)
(0.000790949 5.80401e-06 9.67619e-20)
(0.000658515 0.000342743 -4.4044e-20)
(0.000108336 0.000142451 1.37407e-23)
(0.000707368 -6.59362e-05 2.65122e-19)
(0.000253621 -0.000188084 -7.36517e-19)
(0.000599368 0.000192254 0)
(0.000671822 2.16101e-05 9.90409e-20)
(0.00065106 8.26403e-06 -3.80891e-19)
(0.000375747 0.000181656 3.93037e-20)
(0.000771571 0.000497461 -1.65477e-19)
(0.000156319 9.03611e-05 2.35963e-25)
(0.000796217 0.00038979 0)
(0.000953207 0.000321776 4.15847e-20)
(0.000721056 -0.000104515 -6.1639e-19)
(0.000336173 0.00011556 4.9724e-19)
(0.000883055 0.000417737 0)
(5.64665e-05 3.75662e-05 1.33721e-19)
(0.000464719 0.000273517 2.13954e-19)
(0.000439496 -8.55398e-05 -7.09225e-19)
(0.00018684 -0.000130096 -1.0591e-18)
(0.000793033 1.20889e-06 -4.73351e-19)
(0.000802515 -0.00011283 -1.92758e-19)
(0.000564426 0.000719848 -1.17118e-18)
(0.000825577 5.22119e-05 -6.62315e-20)
(0.000762134 -5.18966e-05 1.25839e-18)
(0.000660201 9.85255e-05 2.27828e-20)
(0.00050818 0.000219942 -1.65687e-19)
(4.33439e-05 -2.58967e-05 -8.75884e-20)
(0.00019964 -2.2631e-05 2.40465e-18)
(3.24135e-05 9.68925e-07 -1.94812e-19)
(0.0007759 8.16197e-05 3.60357e-19)
(0.000630051 0.000141568 0)
(0.000206249 -4.84089e-05 -1.04797e-18)
(0.000132585 3.02806e-06 3.12592e-19)
(0.000136166 -3.13619e-05 -1.20903e-24)
(0.000778232 0.000117478 -3.1846e-19)
(0.000160844 -3.35035e-06 0)
(0.000565447 0.000244324 0)
(0.000111453 0.000340426 -3.62841e-19)
(0.000840046 0.00011188 2.09603e-18)
(2.63998e-05 1.76583e-06 0)
(0.000834189 2.71693e-05 0)
(5.54302e-05 -2.68531e-05 0)
(0.000814419 2.41489e-05 -4.42516e-21)
(0.000811439 -6.71452e-05 0)
(0.00423069 0.00742121 7.88642e-20)
(0.00435326 0.00751791 1.38592e-19)
(0.000837011 8.39214e-06 0)
(0.000747513 -6.04679e-05 8.12939e-19)
(0.000154395 0.000137946 1.49211e-19)
(0.000851468 7.48387e-05 7.88965e-19)
(0.000135393 0.000114794 2.34407e-20)
(0.000746351 -5.53561e-05 6.27276e-19)
(4.15175e-05 1.28179e-05 0)
(3.82694e-05 -1.78022e-05 -4.48517e-20)
(0.000864576 5.85754e-05 -4.82508e-19)
(4.82046e-05 -3.66118e-05 -6.69678e-19)
(0.000734411 0.000123665 -4.22471e-20)
(0.00016777 0.000174414 -1.88101e-19)
(0.000804551 1.06462e-05 0)
(0.00466416 0.00821496 9.85878e-22)
(0.00016316 0.000778629 3.3371e-19)
(0.000138611 -4.64371e-05 -9.14315e-19)
(7.65692e-05 -3.53778e-05 -1.16877e-18)
(0.00078463 1.9979e-05 1.89569e-20)
(0.000564757 0.000415403 0)
(0.000395679 0.000431705 -2.56201e-19)
(0.000115291 -4.94077e-05 1.18364e-18)
(0.000743219 4.15832e-06 7.69421e-20)
(4.98043e-05 2.48791e-06 4.07079e-19)
(0.000638932 -5.8386e-05 1.17193e-18)
(0.000799067 2.18016e-05 -5.98498e-19)
(9.24496e-05 -5.44583e-05 1.70906e-18)
(0.000830756 4.61564e-06 -1.78218e-24)
(0.000759876 1.24286e-05 -3.76655e-20)
(0.000848825 5.81694e-05 0)
(0.000792838 3.93135e-05 0)
(0.00592796 0.00723076 2.57783e-19)
(3.38907e-05 2.10295e-06 -1.19554e-19)
(0.000182865 -7.35495e-05 7.72746e-19)
(0.000705167 0.000119457 -6.96615e-19)
(3.84847e-05 -9.65356e-07 2.01434e-19)
(0.000564899 -1.94343e-05 -7.23972e-19)
(0.000710505 1.24689e-05 1.53981e-18)
(0.000681699 0.000153732 -3.55489e-19)
(0.000798487 -3.018e-05 3.54418e-19)
(9.95519e-05 -2.8091e-05 1.11613e-18)
(0.000759498 9.73593e-06 -3.19203e-19)
(0.000845361 5.53553e-05 0)
(0.000523576 0.000302875 4.21039e-20)
(0.000841165 3.74105e-05 -9.17663e-19)
(3.34707e-05 -1.52725e-06 9.10807e-19)
(0.000815576 3.01033e-05 9.40418e-19)
(0.00082405 -2.78654e-05 -9.63229e-19)
(0.000694483 1.45871e-05 -5.67384e-19)
(0.000480391 -4.61838e-05 -5.25752e-19)
(0.00433237 0.00749344 1.95252e-19)
(0.00421933 0.00754133 -2.76236e-19)
(0.00422182 0.00759266 2.71892e-19)
(0.00420298 0.00741311 2.33601e-19)
(0.000840727 -1.6646e-06 1.43281e-19)
(0.00447571 0.00749869 0)
(0.00439091 0.0075373 -3.87257e-19)
(4.95649e-05 -4.18358e-07 -9.96422e-19)
(0.00410775 0.00742944 -6.2732e-20)
(0.0041008 0.00739393 -2.68579e-19)
(0.00602304 0.0105993 0)
(0.00660279 0.0111598 3.16446e-20)
(0.00600208 0.0105684 0)
(0.00661857 0.0111526 1.20356e-19)
(0.00598944 0.0105906 2.69006e-19)
(0.00662841 0.0111379 1.4712e-20)
(0.00593277 0.0106061 -7.74478e-19)
(0.00665392 0.011011 9.85374e-21)
(0.00390279 0.00921397 -1.90752e-19)
(0.0041391 0.00747707 4.30712e-21)
(0.00423594 0.00756486 7.87984e-20)
(0.00411221 0.00739329 4.97105e-20)
(0.000847085 0.0001763 4.44865e-20)
(1.93353e-05 2.52499e-06 0)
(0.000645572 -0.000154114 0)
(0.000749878 3.0957e-05 0)
(0.00245299 0.00107872 4.23181e-21)
(0.000716008 -2.09806e-05 1.711e-19)
(4.8345e-05 8.34349e-06 4.54107e-20)
(2.21648e-05 -3.35793e-05 1.65248e-18)
(0.000837121 2.64394e-05 0)
(3.34954e-05 1.63812e-05 -1.91743e-19)
(0.000146195 0.000232601 0)
(3.48517e-05 -1.31848e-06 0)
(2.89181e-05 -2.08018e-06 0)
(0.000794419 0.000127906 1.12893e-20)
(0.000819905 6.1987e-06 1.75954e-19)
(3.43346e-05 0.000323127 1.38437e-23)
(0.00016195 0.000278724 -1.84191e-18)
(0.000589347 0.000340465 -8.57027e-20)
(0.000882463 0.000126791 6.0277e-19)
(0.000714974 -0.000439064 6.64933e-19)
(0.000318192 0.00111004 0)
(0.000456208 0.000549088 2.71434e-18)
(9.86872e-05 0.000154033 -1.79929e-18)
(4.10644e-05 5.07789e-07 0)
(0.000832334 -1.93927e-05 3.60787e-20)
(2.14766e-05 4.46582e-05 1.64462e-18)
(0.000892696 2.59328e-05 2.7135e-19)
(7.53387e-05 -0.000222746 3.78148e-18)
(0.000920896 4.22269e-05 -2.69152e-19)
(0.00142354 0.000110859 7.46768e-19)
(4.65531e-05 -1.29494e-05 8.25791e-20)
(4.56426e-05 8.64696e-06 -8.58398e-19)
(4.70488e-05 0.000159571 0)
(0.000882963 9.39227e-05 5.98731e-19)
(0.00048145 0.00037168 2.37135e-19)
(0.000809341 1.68813e-05 -3.87871e-20)
(0.00074264 -1.80241e-05 2.54836e-19)
(0.000695348 -0.000235071 0)
(0.00632515 0.0109032 -1.66371e-19)
(0.00638008 0.0109648 4.03328e-19)
(0.00616104 0.0107258 -6.14799e-19)
(0.00656073 0.0111308 -7.91961e-20)
(4.26297e-05 0.000123458 8.0026e-19)
(0.000882948 5.59676e-05 1.59076e-22)
(0.00641293 0.0109998 -3.83922e-19)
(0.00627956 0.0108563 5.43251e-19)
(0.00607677 0.0106654 -4.16666e-19)
(0.00659063 0.0111561 -6.64622e-20)
(9.58536e-05 0.000575906 -2.0197e-20)
(0.000176088 -0.000179371 -7.9222e-19)
(0.000792631 -3.60764e-06 -7.58851e-19)
(0.00070622 0.000218682 0)
(0.000766268 -6.65332e-07 0)
(0.000184659 0.00039302 3.36287e-19)
(0.000600223 0.000563529 -5.41451e-19)
(2.1497e-05 -3.04544e-06 1.78417e-19)
(0.000210802 0.000463307 -7.38363e-19)
(0.00100206 0.000971384 -1.12699e-19)
(0.000722264 0.000173008 0)
(0.000769157 0.000166866 1.30984e-19)
(0.00637216 0.00587797 1.12605e-18)
(0.00069799 0.00114074 8.27893e-20)
(4.53044e-05 4.48114e-05 -7.44768e-20)
(0.000814688 4.91969e-05 0)
(0.00086946 1.83305e-05 -3.57051e-20)
(4.43726e-05 6.40032e-06 -1.96638e-19)
(3.82182e-05 7.84164e-06 1.92953e-19)
(0.000814781 1.81852e-05 5.32952e-19)
(0.000955263 0.000105922 6.58528e-19)
(0.000705333 5.09149e-05 0)
(0.000229787 -0.000287099 -3.98523e-19)
(0.000884244 0.00014017 3.88832e-19)
(3.95353e-05 -8.49974e-05 2.03089e-19)
(0.00145807 0.00036907 -2.57747e-18)
(0.000729501 2.03545e-07 0)
(0.000774378 0.000136996 3.75572e-19)
(9.04866e-05 0.000408822 0)
(0.00118323 0.00817139 4.61583e-19)
(0.000461191 0.000509964 -1.22352e-18)
(0.000534592 0.000966205 -1.83737e-19)
(0.000860219 2.63089e-05 -1.45211e-19)
(1.96078e-05 3.13704e-05 0)
(0.000908335 7.27017e-05 6.11086e-19)
(0.00408654 0.00738698 6.70489e-20)
(0.00411714 0.00745587 5.09119e-20)
(0.00449681 0.00750035 4.52632e-19)
(0.00443491 0.00756223 -3.20272e-19)
(0.00653052 0.0111079 7.9253e-20)
(0.00389779 0.00724073 7.56902e-22)
(0.00551076 0.0077902 -5.63046e-19)
(0.0040884 0.00744663 4.92661e-21)
(0.00518997 0.00784719 5.09771e-19)
(0.00406928 0.00739248 -4.07063e-20)
(0.00495029 0.00770542 0)
(0.00406886 0.00739052 -6.82862e-20)
(0.00473694 0.00757678 4.90972e-19)
(0.00408469 0.00738958 6.97648e-20)
(0.00456438 0.00751091 0)
(0.00428943 0.0074346 1.36937e-19)
(0.0042516 0.00760946 5.90802e-19)
(0.0044673 0.00753243 -5.33461e-19)
(0.00437871 0.00752793 3.68882e-19)
(0.00420488 0.00753947 3.1979e-19)
(0.00645264 0.0110422 -5.64508e-21)
(0.00409748 0.00738891 3.04076e-20)
(0.00649326 0.0110788 0)
(3.11221e-05 9.50922e-06 -1.89879e-19)
(0.00197855 0.00652584 2.2812e-19)
(0.000842892 -5.4837e-06 1.09026e-19)
(0.000852938 1.97134e-05 0)
(4.01798e-06 4.20371e-06 -3.99155e-19)
(8.80482e-05 -0.000203971 6.91424e-19)
(2.40395e-05 6.65183e-05 2.0865e-18)
(0.000804935 0.00018943 -9.01017e-20)
(0.000755889 9.2395e-06 6.98113e-19)
(4.57517e-06 -4.8518e-06 3.10029e-19)
(2.80227e-05 -4.59304e-05 -1.8454e-18)
(0.000731272 2.01823e-05 1.61458e-19)
(0.000840805 0.000125025 -3.0266e-20)
(0.000752255 -5.66534e-06 1.46643e-19)
(0.000409922 0.000650102 0)
(0.000129587 -0.000152281 1.15176e-18)
(0.000837135 1.94857e-05 1.51568e-19)
(2.42475e-05 2.94521e-05 0)
(0.000102388 0.00056431 -6.31122e-19)
(0.000607548 0.000596008 1.3125e-18)
(0.000341757 0.000725486 0)
(0.000748771 -1.24712e-05 0)
(0.000759285 4.24869e-05 1.15789e-18)
(2.52508e-05 5.40103e-05 -3.51341e-18)
(2.238e-05 1.11539e-05 3.7366e-19)
(0.000112732 0.000157085 0)
(6.51184e-05 -4.53083e-05 0)
(7.25347e-05 0.000123638 2.0091e-19)
(0.000901073 0.000173479 3.49791e-19)
(0.000793409 -1.69819e-05 -1.37167e-18)
(2.75078e-05 4.0454e-05 0)
(0.000597706 7.26943e-05 -6.01014e-20)
(0.000765827 2.74584e-05 -1.54709e-19)
(0.000830414 1.14651e-05 1.02754e-18)
(0.000252796 0.000546621 6.32157e-19)
(0.000828978 0.000142742 0)
(3.33774e-05 -3.31742e-05 5.38732e-19)
(4.6761e-06 -1.57822e-05 -3.19968e-19)
(0.00111865 4.81669e-06 0)
(0.000963134 0.00219581 0)
(0.00104928 -7.64951e-05 0)
(0.000975085 0.000191589 4.27301e-19)
(0.000828522 -1.37629e-05 -2.8158e-19)
(0.000892294 0.000124435 -6.84522e-19)
(0.00076181 9.63302e-06 0)
(4.49532e-05 7.91801e-05 -1.71584e-19)
(0.000172789 0.000331387 1.08114e-18)
(0.000777453 4.10365e-05 1.84392e-23)
(0.00106338 0.000182868 -6.68874e-19)
(0.00107588 0.000116954 0)
(3.82473e-06 1.36672e-05 2.51057e-19)
(2.71217e-05 -2.1945e-05 -1.94334e-19)
(0.000691467 3.27759e-05 6.88072e-21)
(5.16247e-05 -0.000114489 0)
(0.00102225 0.000252494 9.50642e-19)
(0.0050272 0.00974348 -2.82708e-19)
(0.00311457 0.00962624 1.26954e-18)
(9.14127e-05 -0.000122713 -1.91377e-19)
(8.85448e-05 -8.46265e-05 1.85984e-18)
(0.00118705 0.000220978 1.67071e-19)
(0.00129907 0.0010533 2.34056e-19)
(0.000825945 1.13395e-05 -7.26596e-19)
(0.000216981 0.00093184 -2.38876e-19)
(0.000777126 0.00087764 -2.18565e-19)
(0.000767352 -1.39407e-05 0)
(0.000105257 0.000705281 0)
(9.90867e-05 0.000287755 -4.97542e-23)
(0.000770143 -1.8042e-05 -2.19344e-23)
(0.000810133 1.04839e-05 1.5108e-19)
(0.00261941 0.00201735 -1.229e-18)
(0.00175536 0.00924659 -1.1693e-19)
(0.000809115 2.91224e-05 4.84277e-19)
(0.00636139 0.00403779 -1.74714e-19)
(0.00676373 0.0113853 -1.38762e-20)
(0.00471186 0.00793673 5.06368e-21)
(0.000796668 5.26161e-05 -2.14546e-18)
(0.000816208 3.85772e-05 -1.0863e-23)
(1.66234e-05 -1.28809e-05 -3.48014e-19)
(4.95279e-05 0.000101181 -3.49313e-19)
(8.4705e-05 0.000285057 8.75991e-19)
(1.66594e-05 2.13417e-05 4.9046e-19)
(9.18167e-05 0.000242453 3.69777e-19)
(0.000817367 4.12347e-05 0)
(0.00533205 0.00942631 1.76361e-20)
(0.00148695 0.000622067 -2.61752e-20)
(0.000822379 2.07267e-05 3.55597e-19)
(6.86619e-05 -9.74041e-05 0)
(0.00186218 0.000731189 5.44843e-19)
(1.4638e-05 1.18091e-05 -2.70186e-19)
(4.02774e-05 3.51603e-05 9.71935e-20)
(0.00131872 0.00138584 6.36875e-19)
(0.000770626 2.97619e-05 1.80919e-19)
(1.36354e-05 -3.6691e-06 -1.70227e-19)
(0.00202617 0.00154339 -1.05499e-18)
(0.000129175 0.000190149 -8.18577e-19)
(0.00392292 0.0084718 -1.08871e-18)
(1.21665e-05 3.21733e-06 8.81528e-20)
(0.000215295 -0.000363167 -1.24002e-18)
(6.92398e-05 -6.13472e-05 4.05705e-20)
(0.00147684 0.000953282 0)
(0.0010101 0.000143723 -4.30732e-22)
(0.000434496 0.000856356 -4.02158e-20)
(0.00080975 1.94864e-05 -2.31393e-19)
(8.64647e-05 0.000197592 7.35015e-19)
(5.66663e-05 -7.39471e-05 4.04091e-19)
(2.30688e-05 1.98054e-05 -9.47213e-20)
(4.03603e-05 0.000106702 -3.20275e-19)
(0.000192798 -0.00036217 -5.37065e-19)
(0.00323493 0.00342124 2.77919e-21)
)
;

boundaryField
{
    back
    {
        type            empty;
    }
    ingreso
    {
        type            fixedValue;
        value           uniform (0.0008 0 0);
    }
    salida
    {
        type            zeroGradient;
    }
    front
    {
        type            empty;
    }
    defaultFaces
    {
        type            noSlip;
    }
}


// ************************************************************************* //
