/*--------------------------------*- C++ -*----------------------------------*\
  =========                 |
  \\      /  F ield         | OpenFOAM: The Open Source CFD Toolbox
   \\    /   O peration     | Website:  https://openfoam.org
    \\  /    A nd           | Version:  8
     \\/     M anipulation  |
\*---------------------------------------------------------------------------*/
FoamFile
{
    version     2.0;
    format      ascii;
    class       volVectorField;
    location    "6.6";
    object      U;
}
// * * * * * * * * * * * * * * * * * * * * * * * * * * * * * * * * * * * * * //

dimensions      [0 1 -1 0 0 0 0];

internalField   nonuniform List<vector> 
5490
(
(0.000306309 0.00192241 1.01112e-21)
(0.000301645 0.00191687 1.61179e-21)
(0.000317879 0.00190118 -1.51477e-23)
(0.00030425 0.00191933 -1.0406e-21)
(0.000337344 0.00205228 -1.08097e-22)
(0.000426115 0.000671591 -4.31624e-21)
(4.65603e-06 1.24652e-05 2.56349e-21)
(0.000236518 0.000221463 4.55217e-22)
(0.000324704 0.00192748 1.97557e-23)
(0.000435328 0.000172803 1.38608e-21)
(0.000308073 0.00193317 -3.51454e-22)
(0.000163807 0.00106699 0)
(0.000315701 0.00192472 -6.12529e-22)
(0.000333464 0.00169568 3.38358e-22)
(0.000320945 0.00193071 6.58917e-22)
(0.000491695 0.000154228 -6.69061e-21)
(-1.78773e-07 1.85225e-05 0)
(0.000107017 0.00065632 0)
(0.000260879 0.00166828 -1.10725e-21)
(0.000323363 0.00191701 -7.0191e-22)
(9.41741e-05 0.00105712 8.30606e-23)
(5.30156e-06 1.47793e-05 -1.2945e-21)
(0.000805324 0.000425185 0)
(1.49738e-06 1.47829e-05 0)
(0.000299057 0.00119869 4.89371e-22)
(0.000310869 0.00193214 1.00905e-21)
(0.000318157 0.00191849 1.28688e-21)
(0.000303302 0.00192866 0)
(0.000458211 0.000790542 2.61302e-21)
(0.000323769 0.00191801 0)
(0.000297644 0.00195473 -4.22675e-22)
(2.87e-05 2.29112e-06 0)
(0.00012068 0.00183376 2.57901e-21)
(0.000383406 0.00204197 9.9883e-22)
(0.000311082 0.0018994 -8.52067e-23)
(0.000304493 0.00165941 1.30304e-22)
(0.000640906 0.000806574 2.01942e-21)
(0.000292526 0.00167455 2.71466e-22)
(0.000377002 0.00204117 9.1771e-23)
(0.000272391 0.0016968 4.44125e-22)
(0.000292239 0.00178601 4.75368e-22)
(0.000563283 0.000732027 9.72399e-22)
(0.000305488 0.00192321 -1.19059e-21)
(0.000568907 0.000833984 1.23777e-21)
(0.00110416 -6.65382e-05 2.8681e-21)
(0.00030721 0.00174076 -5.19057e-22)
(0.000319655 0.00192312 3.07975e-22)
(0.00037833 0.00204082 2.51852e-22)
(0.000333842 0.00178057 -6.98666e-23)
(0.000710715 0.00143818 -4.6461e-22)
(0.000429291 0.000273804 0)
(0.000325805 0.00190757 -1.86755e-22)
(0.000308945 0.00187691 1.96694e-22)
(0.000319026 0.0019375 1.62541e-22)
(0.000313242 0.00193023 -1.07753e-21)
(0.000307843 0.0019083 3.28811e-22)
(0.00150727 7.74757e-05 -1.01896e-21)
(0.000960178 -1.31164e-05 -1.13691e-21)
(0.000352066 0.00203575 0)
(0.000362586 0.00204484 6.61107e-22)
(0.000444671 0.00082783 -1.00448e-21)
(0.000274464 0.00198662 1.09136e-22)
(0.000306009 0.00179668 0)
(0.000199824 0.000189578 -8.86327e-22)
(3.66598e-06 2.41562e-05 0)
(0.000423606 0.000393205 0)
(0.000509901 0.00015192 0)
(0.00134619 0.000270216 1.16902e-22)
(0.000308867 0.00176033 0)
(0.0010178 4.80107e-05 1.14727e-22)
(0.00031501 0.00193453 2.06135e-22)
(0.000365331 0.00203814 -3.13557e-22)
(4.8603e-05 0.000363813 4.43383e-22)
(0.000260448 0.000124938 -3.43965e-22)
(0.00038044 0.000277664 1.68552e-21)
(0.000329151 0.00176884 1.26227e-22)
(0.000680027 0.000568687 3.03313e-21)
(0.000309395 0.00186011 0)
(0.000261258 0.00168376 -6.67514e-22)
(0.000355106 0.0020357 -5.87787e-23)
(0.000528415 0.000572365 5.59753e-22)
(0.000620619 0.000257312 -1.72658e-21)
(0.000217034 0.000763269 2.04143e-21)
(0.00026564 0.00168649 1.07487e-21)
(0.000330928 0.00204278 -3.38334e-23)
(0.000319018 0.00178725 -3.87369e-23)
(-0.000525915 0.000419682 -4.34369e-22)
(0.000294272 0.000497639 1.24275e-21)
(0.000360242 0.00203634 -1.30037e-23)
(0.000672093 0.000879729 -1.43171e-21)
(0.000502593 -0.000202149 -1.80414e-21)
(0.000134426 0.00075904 -2.11477e-21)
(0.000375909 0.00202975 6.77964e-23)
(0.000922727 -3.72524e-05 -9.7947e-23)
(0.000281578 0.00136938 -1.16678e-21)
(0.000491134 9.36757e-05 1.77806e-21)
(0.000367933 0.00204426 4.08102e-22)
(0.000558343 0.000700903 6.51125e-22)
(0.00125061 0.00044619 4.4694e-21)
(0.000322363 0.00181641 5.68565e-22)
(0.000174694 0.00108285 -7.18866e-22)
(0.000294736 0.00168103 -4.99206e-22)
(0.000315347 0.00179478 1.02457e-21)
(0.000493742 6.77046e-05 -9.01477e-26)
(0.000387022 0.00204158 0)
(0.000338749 0.00202982 2.68962e-24)
(0.000313317 0.00180142 -3.90635e-22)
(0.000239104 0.000989919 -1.08392e-21)
(0.00022357 0.000106771 5.29488e-22)
(3.05642e-05 2.66479e-06 3.07959e-21)
(0.000503292 -5.36675e-05 3.85627e-21)
(2.8682e-05 0.000309316 2.01609e-22)
(0.000759477 0.000195704 4.10733e-22)
(0.00029234 0.00176019 3.58097e-22)
(0.000365713 0.00203866 3.55188e-24)
(0.000748411 0.00079208 -9.66497e-22)
(0.00032634 0.00190153 0)
(0.000758045 0.000235257 8.95424e-22)
(0.000930753 0.000184269 -2.47866e-22)
(0.000360282 0.00204847 3.54417e-22)
(0.000344027 0.0020335 5.65719e-22)
(0.00117249 0.00173577 4.02891e-22)
(0.000375675 0.000773392 3.32251e-21)
(0.000260808 0.00168001 -1.1754e-21)
(0.000510723 -0.000325696 0)
(0.00032835 0.000335669 -2.26047e-21)
(0.000175347 0.00111137 3.22925e-22)
(0.000304875 0.00191485 1.47306e-22)
(0.00049578 -7.75811e-06 1.81647e-21)
(0.000330092 0.00170726 -2.9145e-22)
(0.00101053 1.72986e-06 -2.27575e-22)
(0.000606219 0.000863503 2.24413e-21)
(0.000381352 0.00174421 3.53281e-22)
(0.000319071 0.00176839 1.12364e-22)
(0.000379028 0.00203844 -2.79574e-22)
(6.47963e-06 0.000255969 0)
(0.000985643 -1.73795e-05 0)
(3.23565e-05 0.000351595 2.29133e-22)
(0.000473017 0.000250655 -4.39435e-22)
(0.000303464 0.0017052 -4.26389e-22)
(0.000491599 -0.000100543 1.91098e-21)
(4.6927e-07 7.26321e-05 7.82683e-22)
(0.00036406 0.002035 4.85227e-24)
(0.000372753 0.000956699 -1.26053e-21)
(1.70795e-05 -5.10767e-06 -1.34861e-21)
(0.000820063 -0.000148462 -4.23572e-21)
(0.000136588 0.00177498 -1.37159e-23)
(0.000781019 -0.0001676 0)
(0.000328139 0.00189248 8.34631e-23)
(0.00058704 0.000744891 -4.86819e-22)
(2.33261e-05 4.26844e-06 0)
(0.000192734 8.47874e-05 -3.00705e-26)
(0.00017113 0.00106486 3.77272e-22)
(3.19629e-06 0.000124863 0)
(0.000785911 0.000685497 2.75278e-21)
(6.40055e-06 3.47715e-05 -7.41437e-22)
(0.000186448 4.49584e-05 -2.15794e-22)
(0.000834097 0.000195512 -2.4907e-22)
(0.000886494 9.97311e-06 9.53155e-22)
(0.00033679 0.00179342 1.66187e-22)
(0.000299591 0.00165862 4.60598e-22)
(0.000671712 0.00108227 0)
(0.0003407 0.000967033 8.12772e-22)
(0.000278128 0.000408746 -1.68478e-24)
(0.000207062 0.000208539 2.09811e-25)
(0.000380005 0.000502375 0)
(3.76729e-05 -3.23488e-06 -1.14664e-22)
(0.000262115 0.00199137 6.41012e-23)
(0.000991017 0.000420181 -1.98267e-21)
(0.000331229 0.00186207 -1.50357e-23)
(0.00097396 -7.62766e-06 2.62595e-21)
(0.000366241 0.00203897 6.36035e-23)
(0.000270891 0.00163474 5.1215e-22)
(3.04318e-05 3.95837e-06 0)
(0.000365038 0.00204615 3.7729e-22)
(0.000340204 0.00205467 0)
(0.000351296 0.00202537 1.01741e-22)
(1.54466e-05 0.00011843 0)
(0.000359388 0.00202883 -1.86806e-22)
(0.000332993 0.00203691 0)
(0.0010207 6.21082e-05 -1.02098e-21)
(0.000162541 0.000189549 1.45655e-21)
(0.000328181 0.00202792 0)
(0.000295042 0.00167892 5.04364e-24)
(5.43001e-07 2.4325e-05 0)
(0.00026469 0.00168882 1.07973e-22)
(0.00029534 0.00166817 -3.20226e-22)
(0.000340898 0.0020504 1.0392e-22)
(0.000145284 1.63152e-05 -1.06065e-22)
(0.000446762 0.00021286 1.21295e-21)
(0.00115317 0.000229046 1.87686e-21)
(0.000175761 0.00104228 -3.9101e-22)
(0.000318477 0.00190783 -3.60479e-22)
(7.16132e-05 7.59662e-06 -1.51343e-21)
(0.000288481 0.000309895 0)
(0.000364091 0.00203783 4.08161e-22)
(0.000350004 0.00203156 1.64476e-22)
(1.04808e-05 5.23695e-05 0)
(0.000330052 0.000773645 3.00272e-21)
(0.000320098 0.00190337 9.76873e-23)
(6.19905e-05 -0.000225518 0)
(0.000334722 0.00179182 1.18567e-21)
(4.82519e-07 4.03139e-05 8.15438e-22)
(0.000500761 1.82349e-05 -1.71056e-21)
(0.0003188 0.00150991 -8.71052e-22)
(0.00095792 -3.41666e-05 4.6482e-22)
(7.62325e-05 -3.07506e-06 2.03811e-22)
(7.56071e-05 -0.000254925 8.55757e-22)
(0.000285064 0.00167666 0)
(0.0012012 0.000175542 2.52073e-22)
(0.000949148 2.79627e-05 0)
(2.69578e-05 0.000248557 2.42331e-22)
(0.000302426 0.0019364 4.54827e-22)
(0.000321397 0.00195945 7.38963e-22)
(0.00034146 0.00184797 1.63661e-21)
(0.000300147 0.0017111 -1.46259e-22)
(0.000329698 0.00176239 -5.12065e-22)
(0.000305924 0.0019328 3.63556e-22)
(0.00101051 1.86419e-05 -5.15949e-22)
(9.31765e-06 4.24365e-05 -5.35161e-23)
(0.000661863 0.000463177 -3.66619e-21)
(0.000145624 5.13339e-06 1.07858e-22)
(0.000803995 0.00117267 -9.3883e-22)
(0.000320512 0.00193902 -2.35158e-22)
(0.000292301 0.00200947 -6.50442e-22)
(0.000351786 0.00203541 1.64186e-23)
(0.000297103 0.00168266 6.81563e-24)
(0.000305934 0.00178296 3.9504e-22)
(0.000316425 0.0019362 -2.03806e-22)
(2.22067e-05 0.000212541 -2.57432e-23)
(0.000166748 0.00112268 -1.41248e-23)
(0.000684904 0.00080622 0)
(3.08206e-05 1.52413e-06 1.54521e-21)
(0.000367477 0.000258945 1.20827e-21)
(0.000170048 0.00104193 6.54083e-22)
(0.000287 0.00101882 -3.54631e-22)
(5.50079e-05 -0.000199197 0)
(0.00020249 4.93294e-05 8.62577e-22)
(1.95004e-05 0.000181139 0)
(0.000317107 0.00192074 0)
(1.13053e-05 5.79075e-05 -5.21871e-23)
(0.000319131 0.00179261 1.17481e-22)
(0.000242955 0.0020836 -7.42035e-24)
(0.000330143 0.00187977 4.99863e-22)
(1.72811e-05 0.000153559 -2.0428e-22)
(0.000636705 0.000485109 -2.33282e-21)
(0.000573673 0.000796708 2.06899e-25)
(0.000139544 0.00164471 3.49578e-21)
(0.000328364 0.000879101 5.81016e-21)
(0.000156908 0.000197727 1.59269e-21)
(7.66225e-06 4.3208e-05 -7.79204e-22)
(0.00018817 0.00163655 5.31503e-21)
(0.000999064 -2.07737e-05 0)
(0.000699844 0.000817838 0)
(0.000291748 0.00163157 1.01566e-22)
(0.000339181 0.00168636 -5.44907e-22)
(0.000423195 0.00180608 -1.12001e-23)
(0.000326306 0.00178652 0)
(0.000320539 0.00191736 -3.63541e-22)
(0.000305983 0.000359598 0)
(0.00129856 0.000358046 -1.62107e-21)
(0.000298877 0.00192133 -1.07837e-21)
(0.000195677 0.00115932 -1.65543e-21)
(0.00102982 -3.00861e-05 8.58998e-22)
(0.000133991 3.14665e-06 4.00775e-22)
(0.000838981 0.000498704 0)
(0.000378125 0.00205396 3.0199e-22)
(0.00121846 0.000580081 1.25983e-21)
(0.000171442 3.85962e-05 0)
(8.08586e-06 -6.15013e-05 4.15761e-22)
(6.82188e-05 -9.59946e-06 -4.26505e-22)
(0.000378735 0.00200847 5.52848e-22)
(7.39679e-05 1.14667e-05 3.86039e-26)
(0.00042344 -0.000532443 1.85715e-21)
(0.000839767 0.00163696 6.96227e-22)
(0.00011186 8.4642e-06 -1.47589e-21)
(0.000257221 0.000161939 1.85053e-22)
(0.000320341 0.00169143 -5.20585e-23)
(0.00034354 0.00191753 -7.10469e-22)
(0.000353284 0.00208698 -3.12639e-22)
(6.58431e-07 3.20614e-05 7.95825e-22)
(8.59707e-05 1.03312e-05 0)
(2.82988e-05 9.6238e-05 -1.0715e-22)
(0.000535362 0.000975311 2.49959e-21)
(0.000248341 0.00124173 -7.33217e-22)
(0.000100624 0.000340098 5.12084e-23)
(0.000394636 0.000904201 0)
(0.000278474 0.000107534 -6.38514e-22)
(9.38543e-05 0.00109023 1.17308e-22)
(0.000331939 0.00177852 -3.82514e-22)
(0.000280583 0.00179349 -9.18565e-23)
(0.000309103 0.000867744 -4.18958e-21)
(0.000245254 0.000722169 -1.75242e-21)
(0.000184285 0.00121433 1.26795e-21)
(0.000235675 0.00121056 -6.42145e-22)
(0.00117836 6.62767e-05 0)
(0.000773356 -0.000242828 0)
(0.000232741 8.79668e-05 1.45415e-22)
(0.000268799 0.00160262 1.48664e-22)
(0.0001042 0.000856804 -3.59503e-21)
(0.000335308 0.00189986 5.51124e-22)
(3.05679e-05 -0.000198868 -4.17067e-22)
(0.000378148 0.00203683 0)
(0.00017489 0.000803906 2.55518e-21)
(0.000320231 0.00181218 0)
(0.000316091 0.00179867 -4.71478e-23)
(0.000980482 8.4266e-06 0)
(3.80426e-05 -0.000109139 -4.38096e-22)
(0.000302035 0.00178314 3.00746e-22)
(0.000327942 0.00180338 2.76749e-23)
(0.000235708 0.00122182 -5.10321e-22)
(0.000707566 0.000468177 3.67742e-21)
(0.000624993 0.000734641 4.20148e-22)
(0.000297807 0.00180179 2.49915e-22)
(0.00028211 0.00168182 0)
(0.000358954 0.0020247 -1.46247e-25)
(0.000250906 0.00157191 -1.42445e-24)
(0.00101131 5.72481e-05 1.03514e-21)
(0.00017952 0.00139422 2.04007e-21)
(-4.28128e-08 6.64817e-05 -7.88661e-22)
(2.82428e-05 0.00033584 0)
(0.000259849 0.00126858 6.66705e-24)
(0.000329799 0.00172363 1.24903e-22)
(0.000281283 0.000263604 -2.25202e-21)
(0.000850883 8.05807e-05 0)
(0.000362145 0.00191617 0)
(0.000303148 0.00186139 -4.76158e-23)
(0.000313908 0.00181674 1.259e-22)
(0.000631673 0.000502302 -6.43515e-24)
(0.000232109 0.00124869 1.36487e-21)
(0.000296656 0.00178896 -4.63307e-22)
(3.44786e-05 -2.75147e-06 -1.35828e-21)
(3.61487e-05 -1.09574e-06 0)
(0.00092518 0.000741246 2.49169e-21)
(0.000230945 0.00127192 -1.20683e-21)
(0.00023573 0.00121335 -6.15162e-22)
(1.15784e-05 7.2701e-05 -9.61555e-22)
(0.000368059 0.00202519 2.0062e-23)
(2.03043e-08 5.48653e-05 1.63803e-21)
(0.000917227 0.000148189 -4.19084e-22)
(0.00095469 7.45191e-06 9.06929e-22)
(2.68835e-05 -7.7567e-05 -6.54545e-24)
(0.000282261 0.00181868 0)
(0.000162486 0.00106989 -1.19027e-21)
(0.000331119 0.0016805 -1.06738e-24)
(0.000328796 0.0020162 -9.84763e-23)
(0.000369801 0.00202633 6.05072e-23)
(0.000219435 5.98174e-05 0)
(0.000305895 0.00164675 -5.63557e-22)
(0.000314065 0.00173043 0)
(2.4411e-06 0.000114545 0)
(0.000316973 0.00179734 3.57645e-22)
(0.000325514 0.00178715 1.03605e-22)
(0.000358028 0.00195218 2.38053e-22)
(0.000338522 0.00179447 0)
(3.12479e-05 7.38668e-07 -1.82975e-21)
(0.000219817 0.00122554 3.9492e-22)
(0.000329049 0.00181692 -3.09393e-22)
(0.000923378 -4.73419e-05 -2.31955e-21)
(0.000321683 0.00191028 9.41931e-22)
(0.000323645 0.0017844 -2.78206e-22)
(0.000381335 0.00203444 3.46804e-22)
(0.000907113 5.55633e-05 0)
(0.000238377 0.00122804 -1.58538e-22)
(0.000212001 0.00120991 -2.58495e-22)
(0.000329229 0.00204513 7.03862e-24)
(0.000293886 0.00180028 -1.39488e-22)
(0.000242817 0.000222881 -4.31907e-22)
(0.000877241 -5.97457e-05 -1.56929e-21)
(0.000228661 0.00198128 5.87824e-22)
(0.000187007 0.00122466 0)
(0.00035279 0.00203827 -4.72028e-22)
(0.000343031 0.00194573 1.40366e-22)
(3.94021e-05 -1.73639e-06 -1.12417e-26)
(0.000684007 0.00126298 -1.27991e-21)
(6.87775e-05 -3.28103e-06 2.0795e-22)
(3.06511e-05 8.21822e-05 2.66235e-22)
(0.000346065 0.00192457 3.9496e-22)
(3.69777e-05 0.000398823 -1.2888e-21)
(0.000394627 0.000760576 -2.9585e-21)
(0.000332569 0.00177479 0)
(0.000200254 0.00104304 -2.23485e-22)
(0.000331686 0.00179302 -3.01563e-21)
(0.000337779 0.00180306 -1.37971e-22)
(0.000146948 0.00164247 -2.99631e-23)
(0.000210925 0.00120684 0)
(0.000323025 0.00182071 0)
(0.000356388 0.00204107 4.98509e-22)
(0.000231207 0.00124214 -5.44174e-22)
(3.28873e-05 -2.90169e-06 7.26596e-22)
(0.000336659 0.000921373 0)
(0.000351088 0.00190932 -2.43816e-22)
(0.000315625 0.000203098 2.03367e-21)
(0.00032335 0.00201691 5.36712e-23)
(0.000341743 0.00191628 -5.27115e-22)
(0.000345544 0.00202791 -2.61895e-22)
(0.000362983 0.00203457 4.92235e-24)
(0.000235577 0.000138585 6.80072e-22)
(0.000365304 0.00191227 9.89011e-23)
(0.000201681 0.00125426 1.85139e-22)
(0.00100597 4.91272e-05 -9.18959e-22)
(-0.000158442 0.00129224 -1.18113e-21)
(0.000281768 0.00166991 -2.45996e-22)
(0.000261953 0.00066404 0)
(0.000349674 0.00192063 3.70291e-22)
(0.000199536 0.000109605 -1.96791e-22)
(2.70868e-05 0.000152184 -1.79922e-22)
(0.000174232 1.13681e-05 -2.80607e-23)
(2.25997e-05 -7.27787e-06 2.40988e-22)
(0.000374406 0.00203163 -2.0934e-22)
(0.000380017 0.00217537 1.50918e-22)
(3.10152e-05 0.000179789 2.09071e-22)
(0.000324039 0.0018917 -5.52466e-22)
(0.00063725 0.00147338 -7.63514e-22)
(0.000346095 0.00192354 0)
(0.000197066 0.00120432 5.29679e-24)
(0.000224713 0.00124074 1.90564e-24)
(3.54543e-05 0.000211174 2.60657e-22)
(1.06295e-05 6.57494e-05 8.1266e-22)
(0.00037512 0.00194667 4.43539e-22)
(0.000351324 0.00202725 0)
(0.000218925 0.00204699 -2.50186e-22)
(0.000552691 0.00162848 -1.18564e-22)
(0.000320679 0.00179783 3.06355e-22)
(0.000710896 0.000831419 -6.15737e-22)
(2.78587e-05 0.000570148 -8.64767e-23)
(0.000333878 0.00170142 0)
(4.14576e-05 -2.66721e-06 1.33132e-21)
(0.00031342 0.00169736 0)
(4.24898e-05 0.000249124 1.93503e-22)
(0.000343673 0.00191738 -3.70667e-22)
(0.000351879 0.00202998 -3.66393e-22)
(0.000360834 0.00204924 -3.94431e-22)
(0.000281512 0.00194307 2.55264e-23)
(0.000329609 0.00054893 1.70355e-21)
(9.38654e-05 1.23209e-05 3.31249e-24)
(2.54284e-05 -0.000176465 -1.62967e-24)
(0.000794609 0.000807532 -2.26103e-21)
(0.0002037 0.00122154 -7.08772e-23)
(0.000322419 0.00168521 1.72667e-22)
(0.000411929 0.0021216 -6.25531e-22)
(0.000338854 0.00191371 0)
(0.000236207 0.00122624 -1.02817e-22)
(0.000353541 0.00068266 0)
(0.000199242 0.00121174 -6.32034e-22)
(3.33527e-05 -9.74553e-05 4.24157e-22)
(0.000300832 0.00176949 0)
(4.03569e-05 -8.36945e-06 2.28654e-22)
(0.000133707 0.000175929 4.86424e-22)
(0.0010625 0.000306045 -6.69056e-24)
(0.000338148 0.00190928 -1.13005e-21)
(0.000982761 0.00011186 2.5233e-21)
(0.000201882 0.00120255 1.93728e-22)
(0.000208018 0.00117807 -8.61522e-23)
(0.000352809 0.00202659 8.75202e-22)
(0.000362872 0.00203747 -4.03212e-22)
(9.02393e-06 0.000297733 0)
(3.30546e-05 2.38928e-06 -2.6868e-21)
(0.000285421 0.00180961 0)
(0.000344944 0.00191738 6.12288e-22)
(0.000345923 0.00191159 0)
(0.00017585 0.00107591 5.16824e-23)
(0.000310092 0.00176878 0)
(0.00027794 0.00182896 0)
(0.000270937 0.000555266 0)
(0.000312042 0.00178805 4.74242e-22)
(0.000303217 0.00166072 -1.2106e-22)
(0.000424425 0.000554331 -1.00611e-21)
(0.000248339 0.00142002 5.75184e-22)
(0.00106178 0.0014911 9.10277e-22)
(0.000307231 0.00179788 -6.29882e-22)
(0.000200209 0.00118861 9.17498e-22)
(0.000211452 0.0012019 -4.99079e-22)
(0.000319333 0.00180044 1.99181e-22)
(0.000155383 0.001917 -1.28409e-23)
(0.000812532 0.000705793 -1.43318e-21)
(0.000967319 0.000396169 -1.1507e-21)
(0.000387451 0.00204524 0)
(0.000285035 0.0018024 3.13287e-22)
(2.7911e-05 -9.2506e-06 -3.35945e-22)
(0.000219149 0.000202327 6.03006e-22)
(0.000188191 0.00108251 -5.97599e-22)
(0.000339702 0.00192582 -1.31396e-21)
(0.000196816 0.00193896 1.90616e-23)
(0.000201393 0.00120145 -4.70003e-22)
(0.000302669 0.00179622 -1.02147e-24)
(0.000955811 -6.74624e-06 0)
(0.000271168 0.00194232 0)
(0.000594684 0.000460501 -9.91072e-22)
(0.000254749 0.00186987 0)
(0.00031703 0.0017946 0)
(0.000330252 0.00185469 1.2395e-22)
(0.000341279 0.00189659 5.64173e-22)
(0.000206774 -0.000126423 4.69299e-22)
(0.000200282 0.000766106 -1.19568e-21)
(3.14227e-05 -1.31156e-05 0)
(1.74846e-05 -6.97586e-05 8.35748e-22)
(2.7315e-05 5.05687e-06 0)
(0.00030735 0.0018037 6.11716e-23)
(0.000294284 0.00179419 -3.3203e-23)
(0.000272491 0.00169289 -2.21668e-22)
(0.00031712 0.00179235 5.90757e-23)
(0.000178769 7.66692e-05 -1.9639e-22)
(7.28902e-06 0.000237035 1.22482e-22)
(0.000598427 0.000328356 -2.51187e-21)
(0.000180914 0.00122791 1.05697e-21)
(0.000312633 0.00183248 0)
(0.000333135 0.00170224 -5.23817e-22)
(0.000417004 0.00109918 7.1051e-23)
(0.000540914 0.000729135 2.88371e-22)
(0.000149122 0.000590947 1.06276e-21)
(0.000996122 0.000676458 9.38253e-22)
(2.09693e-05 -5.54697e-06 -2.34099e-22)
(9.96004e-06 -3.23546e-05 0)
(3.98646e-05 -1.8691e-05 -3.46684e-22)
(2.15064e-05 3.7248e-06 -1.34033e-21)
(0.000152762 0.000359797 4.57e-22)
(0.000208554 0.00105615 -3.02234e-22)
(0.000304371 0.00179264 8.22708e-22)
(0.000377407 0.000528409 4.71569e-22)
(9.33756e-05 0.000736345 1.03601e-21)
(0.000134614 0.000211609 1.17773e-21)
(0.00095962 0.000770167 -1.4691e-21)
(0.000704715 0.000892618 3.40714e-21)
(0.000217662 7.67369e-05 0)
(0.000245201 0.000234069 -1.77122e-21)
(0.0003017 0.0017885 -1.53595e-24)
(0.000337745 0.000591689 -1.40382e-21)
(0.000186054 -0.000119611 -6.50325e-22)
(0.000340961 0.00201861 2.19144e-23)
(7.2606e-06 3.8258e-05 1.66266e-21)
(0.000332674 0.00180464 -3.41115e-23)
(0.000968083 -3.3786e-07 -5.68426e-23)
(0.000955578 -6.65962e-06 -9.15867e-22)
(0.000204972 0.00125257 -8.63402e-22)
(-3.22051e-05 0.00119167 4.33862e-23)
(3.65398e-05 2.66462e-07 0)
(0.000282587 0.000881761 1.78217e-24)
(5.38714e-06 0.000203392 1.01273e-22)
(0.000170186 0.0011521 0)
(0.000645246 0.000241307 1.77548e-21)
(0.000397149 0.000891362 5.77001e-24)
(0.000250669 0.000425163 3.71274e-21)
(0.000506419 0.00128152 -1.54976e-21)
(3.99051e-05 -2.23748e-05 2.26593e-22)
(0.000143838 -9.90786e-05 -2.14953e-21)
(0.000488334 0.000885254 2.20976e-21)
(0.000384845 0.000961352 0)
(0.00063192 0.000346174 0)
(0.000113654 0.000165844 9.05364e-22)
(0.000337129 0.00176358 1.33989e-22)
(0.000335792 0.00168643 -1.62861e-21)
(0.000358005 0.00204595 0)
(0.000402412 0.000419971 2.72733e-21)
(0.000117188 0.000273037 0)
(0.000259883 0.00165329 0)
(0.00108046 0.000245561 -1.02793e-21)
(0.000156815 -0.000107444 1.35143e-21)
(0.000320287 0.00184029 0)
(2.25767e-05 -1.34612e-05 0)
(1.28291e-06 9.55204e-05 0)
(3.5076e-05 -1.46584e-05 5.02114e-23)
(0.000208651 9.66606e-05 -5.59452e-22)
(0.000861711 8.75872e-05 -9.61541e-22)
(0.000937109 0.00102187 2.50246e-23)
(0.000312649 0.00175227 -2.73082e-23)
(0.000352121 0.000552476 -6.51019e-22)
(0.00027909 0.00178259 -8.44024e-22)
(0.000346192 0.00201103 6.87946e-23)
(0.000991913 7.16925e-05 -4.28714e-22)
(0.000279589 0.00184155 0)
(0.00119628 0.00069944 4.3757e-22)
(1.45555e-05 3.71346e-06 3.62116e-22)
(0.000200109 0.000420743 -9.67307e-22)
(0.000128583 0.000187842 4.09433e-25)
(4.72574e-06 0.000173905 -2.05936e-22)
(0.000871555 0.000375682 2.5437e-21)
(0.000187609 0.00120186 6.06674e-24)
(0.000946938 0.00132715 0)
(0.000318936 0.00184067 -1.62379e-22)
(2.86208e-05 6.71993e-06 0)
(0.00133805 7.50428e-05 0)
(0.000425704 0.000904223 -2.52743e-21)
(0.000203704 0.00106174 1.20212e-22)
(0.000279488 0.0017515 1.87037e-21)
(0.000351927 0.00176312 -1.21415e-22)
(0.000965837 0.000376411 -1.8639e-21)
(3.66428e-05 -2.09417e-05 -1.52169e-22)
(4.29267e-05 -0.000122134 4.26605e-22)
(3.83252e-05 -9.08592e-06 3.01067e-22)
(0.00116666 0.000132974 4.22301e-21)
(0.000667239 0.00027912 0)
(0.000158567 2.05257e-05 8.92218e-22)
(0.000787708 1.40441e-05 8.18305e-22)
(4.00199e-05 -1.50187e-05 -5.54913e-26)
(0.000481164 -0.000112715 -1.56158e-21)
(0.000967831 0.000114729 -6.26186e-22)
(1.31657e-05 9.79871e-05 0)
(0.000523728 6.0123e-05 -1.76602e-21)
(3.00117e-05 -8.69841e-05 0)
(0.000357439 0.00204466 -1.0061e-23)
(0.000308161 0.00178913 4.27875e-22)
(9.13365e-05 -0.000517372 2.36538e-21)
(4.14347e-06 0.000147802 0)
(0.000169856 0.00101294 -6.50627e-22)
(0.000315186 0.0018838 -9.8133e-23)
(0.000321439 0.00180587 -1.97069e-22)
(0.000940328 0.000238708 -9.64963e-23)
(0.000324048 0.00167821 6.30792e-23)
(0.000160314 0.00102034 -2.29219e-21)
(2.15801e-05 -1.71804e-05 -1.3939e-21)
(0.000114675 -8.56502e-05 8.80552e-22)
(0.00134561 0.000306506 -5.20787e-22)
(0.000328529 0.00167367 1.98704e-22)
(0.000347255 0.00200922 8.74081e-22)
(0.000322955 0.00180104 5.28973e-23)
(0.000972679 0.00011798 1.22561e-21)
(0.000660789 0.000815995 -1.80637e-21)
(2.96121e-05 2.10679e-06 7.67165e-22)
(0.000413712 0.00200523 1.25563e-21)
(0.000992924 -3.51088e-05 5.68583e-22)
(0.000331116 0.00177753 -5.66591e-23)
(0.000297594 0.00179909 5.45341e-23)
(0.000362599 0.00205339 -1.27913e-23)
(0.000196277 0.00181834 -1.77244e-24)
(3.28609e-05 1.0312e-06 1.54169e-21)
(2.39847e-05 -6.90815e-05 6.59002e-24)
(0.000305131 0.00165733 -3.83105e-22)
(0.00102902 0.00021729 0)
(0.00129955 0.00052084 5.51948e-22)
(9.9944e-06 -9.2388e-06 -2.62758e-22)
(0.00032051 0.000807176 -2.55694e-21)
(0.000966626 0.000122517 -2.41298e-21)
(0.000168313 0.00158384 5.73585e-21)
(0.000758277 0.000749265 1.2393e-21)
(0.000350426 0.0020366 -5.05641e-22)
(0.000265668 0.00180166 -7.61921e-24)
(0.00030157 0.00178781 0)
(0.000352984 0.000869956 8.24613e-22)
(0.0010111 1.3545e-05 0)
(0.00098143 4.19014e-06 -4.2707e-22)
(0.000402083 0.000869591 2.03085e-21)
(8.64637e-05 1.70435e-05 0)
(0.000105339 0.000236326 -2.82084e-22)
(0.000447743 0.000730775 -1.93765e-21)
(0.000305994 0.00179516 -2.1166e-23)
(0.000315813 0.00181014 -8.50841e-24)
(0.00101349 -7.82453e-06 0)
(0.000751704 0.000453187 -1.07272e-21)
(0.00035872 0.00203316 4.98695e-22)
(2.9526e-05 0.00185626 -1.5889e-21)
(0.00111591 8.7217e-05 1.77099e-21)
(0.000301632 0.0018082 -2.12322e-21)
(5.91761e-08 8.76623e-05 0)
(0.000978648 5.01031e-05 8.40773e-22)
(0.000271182 0.000643714 -4.77689e-22)
(0.000131574 3.5194e-05 -1.7206e-21)
(0.00105436 6.63698e-05 0)
(0.000383984 0.000939944 -2.18277e-21)
(0.000247219 0.000984583 1.34624e-21)
(0.000374723 0.000871625 9.22794e-22)
(0.000489312 0.00222905 0)
(0.000473893 0.00102342 0)
(4.27515e-05 -2.5905e-05 -2.77068e-22)
(0.000189185 0.00119277 -3.85948e-23)
(0.000988141 -2.06016e-05 8.52264e-22)
(0.000299339 0.00179184 3.96418e-22)
(0.000602251 0.00168767 -9.70104e-22)
(0.000286132 0.000839526 8.59586e-22)
(0.000608475 0.000349767 2.87948e-21)
(1.57431e-05 -6.19642e-05 -1.66397e-21)
(0.00101757 -3.7444e-06 -5.14869e-22)
(5.50442e-05 0.000721358 0)
(0.000215564 0.000427949 -1.88053e-21)
(0.000617495 7.59228e-05 1.55712e-21)
(0.000317541 0.000907047 -3.08658e-21)
(0.0001605 0.000621246 -6.42336e-22)
(0.000362816 0.00205812 1.43092e-22)
(0.000566341 0.000655654 0)
(0.00108232 0.000656752 -1.39345e-21)
(0.000129819 -9.42194e-05 -9.23513e-22)
(7.86976e-05 0.000876456 -3.48908e-22)
(0.000317001 0.00180128 0)
(0.00034251 0.00202811 0)
(0.000906164 0.00222053 -6.6112e-23)
(0.000992535 -4.22974e-05 0)
(2.28352e-05 -9.64344e-06 0)
(0.000138561 0.000388188 -7.70142e-22)
(0.000172712 2.4726e-05 -8.83271e-22)
(0.000267403 0.00169229 -2.55934e-24)
(0.000335815 0.000869326 1.65094e-21)
(0.000143088 4.00362e-05 8.51326e-22)
(0.000351715 0.0019147 -1.54587e-22)
(0.000353128 0.00212274 -1.54522e-22)
(0.0007666 8.82713e-05 2.98663e-22)
(0.000419428 -0.000112568 -1.92953e-22)
(0.000298712 0.000929675 7.15906e-22)
(3.39664e-05 3.60812e-06 -1.55184e-21)
(0.000436 0.00199756 -3.06794e-22)
(0.000366813 0.000984599 4.12192e-22)
(0.000395252 0.000877689 -1.04111e-21)
(0.00032896 0.00179705 6.53542e-23)
(0.000379543 0.00189352 6.90537e-22)
(0.000517202 0.000904703 -3.82279e-21)
(0.000358936 0.00203843 -1.83667e-21)
(0.00011606 -2.35868e-05 0)
(0.000932227 0.000429645 1.17029e-21)
(0.000377614 0.000918221 1.80786e-21)
(0.000713667 0.000798273 1.85339e-21)
(0.000296587 0.00179744 1.52622e-21)
(0.000498982 0.00072866 4.89778e-22)
(0.000710458 0.000817366 1.22326e-21)
(0.000600175 0.00063819 9.31491e-22)
(0.000984644 -6.16996e-05 -9.74478e-23)
(9.99345e-05 0.000234934 1.58861e-22)
(9.12251e-05 -7.03835e-05 -1.64037e-21)
(3.39303e-05 3.7682e-06 1.5069e-21)
(0.00024665 0.00181441 6.0551e-22)
(0.000401474 0.00202995 -1.22755e-21)
(0.00103906 0.000846366 3.34756e-21)
(0.000414569 -0.000262613 -2.75138e-22)
(0.000234445 0.00169685 8.48824e-22)
(0.000303996 0.00180079 -5.34152e-22)
(0.000433253 0.000357845 -2.34046e-21)
(0.000341055 0.00177875 1.17612e-24)
(4.08726e-05 0.000631777 0)
(3.23484e-05 4.23749e-06 -1.219e-21)
(0.000339191 0.00167142 1.18782e-21)
(0.000356267 0.00206602 -1.63081e-22)
(0.000489635 0.002257 0)
(1.0769e-05 -3.72743e-05 2.62786e-23)
(0.000438635 0.000937018 7.10222e-22)
(0.000354757 0.00105045 1.31143e-21)
(0.000713827 0.000831863 0)
(0.000704896 0.000751573 1.82946e-21)
(2.27903e-05 -1.97134e-05 3.11079e-22)
(0.000915937 0.000381888 0)
(0.000671476 0.000800832 -1.70662e-21)
(0.000331937 0.00180698 0)
(3.87877e-05 9.82902e-06 -1.02701e-21)
(0.000565885 0.000871866 -2.62323e-21)
(0.000376518 -0.000713243 0)
(0.000345701 0.00191385 -5.03522e-22)
(1.16049e-05 0.00147378 -1.36046e-21)
(0.000321721 0.00167066 -6.86142e-22)
(4.90342e-05 -0.000291089 1.31266e-21)
(0.000419497 0.000842833 1.999e-25)
(3.18561e-05 6.7527e-06 0)
(0.00067702 0.000855231 -2.65846e-21)
(0.00100031 2.87436e-07 9.4074e-22)
(0.000603358 0.000475012 -1.321e-21)
(0.000300658 0.00177634 5.25505e-23)
(0.000625712 0.00044449 2.38259e-21)
(0.000579806 0.000110494 5.83607e-22)
(0.000155803 0.000419672 -2.58055e-21)
(0.000306981 0.00182491 5.03179e-22)
(0.00102178 0.000247813 -1.75686e-21)
(3.78867e-05 7.18113e-06 1.76258e-21)
(0.000699794 0.000862982 0)
(0.000390775 0.000938963 1.03552e-21)
(0.000719348 0.000597634 -9.43916e-22)
(2.60823e-05 -9.54116e-06 0)
(0.000268286 0.00179978 -1.45613e-21)
(7.13395e-05 -8.24502e-06 5.42297e-22)
(0.000286853 0.00167791 -1.54067e-25)
(2.609e-05 1.00197e-05 1.6212e-21)
(0.000765535 -0.000116312 1.34206e-21)
(0.000380867 0.00190246 -1.92154e-21)
(0.000299791 0.00178693 3.2107e-22)
(0.000301611 0.00179004 -1.85563e-22)
(0.000983861 2.1286e-05 -3.41397e-21)
(0.00037504 0.0020455 8.92248e-22)
(0.000282745 0.00074892 -1.24396e-21)
(0.000601154 0.00216882 5.61887e-22)
(0.000408753 0.000649619 2.20859e-21)
(0.000820824 0.000668264 -1.19953e-21)
(0.000555637 0.000344629 -1.16952e-21)
(0.000297761 0.00179775 -1.20146e-22)
(0.000266772 0.000754299 3.24078e-21)
(0.000157379 3.32573e-05 -2.66889e-23)
(0.000312402 0.00177183 4.67736e-22)
(1.8573e-05 0.000540481 4.8603e-23)
(0.000380673 0.0015886 4.54387e-21)
(0.00119732 0.000125026 -2.78062e-21)
(0.000922307 0.00211152 -4.97796e-22)
(0.000115938 0.00181148 7.294e-22)
(0.00141073 6.53114e-05 0)
(3.82724e-05 6.22085e-06 2.37616e-21)
(9.38112e-06 -2.78731e-05 -6.23762e-22)
(8.98066e-05 0.000670657 -7.48444e-22)
(0.000232564 0.00062158 1.15769e-21)
(0.000552108 0.000373542 -1.86219e-21)
(0.000290025 0.00180693 8.7765e-24)
(0.000363428 0.00204402 0)
(0.000691928 0.000816847 -1.83286e-24)
(0.000550772 0.000682357 -5.25193e-22)
(0.000368446 0.00203659 5.33552e-22)
(3.36704e-05 0.000641557 1.21e-21)
(9.27539e-06 -2.38867e-05 4.10192e-22)
(0.000571698 0.000305782 2.86179e-21)
(0.000339112 0.00201273 0)
(0.000680559 0.000672029 1.38632e-21)
(0.000134626 0.000760848 -2.41024e-21)
(0.000356226 0.00218758 9.89693e-22)
(0.000354658 0.000524724 9.47273e-22)
(2.35522e-05 -2.56262e-05 -3.1278e-22)
(5.59823e-05 3.98451e-05 4.23672e-22)
(0.000554627 0.000637418 -1.8376e-21)
(7.24111e-05 0.00100984 -2.31913e-21)
(0.00077135 7.6135e-05 -1.78988e-22)
(0.000262107 0.000590783 -1.98239e-21)
(0.000360455 -0.000261723 0)
(0.00034139 0.0019272 -6.78657e-22)
(0.000780365 7.23012e-05 3.17768e-23)
(0.000370445 0.00178865 1.64632e-22)