/*--------------------------------*- C++ -*----------------------------------*\
  =========                 |
  \\      /  F ield         | OpenFOAM: The Open Source CFD Toolbox
   \\    /   O peration     | Website:  https://openfoam.org
    \\  /    A nd           | Version:  8
     \\/     M anipulation  |
\*---------------------------------------------------------------------------*/
FoamFile
{
    version     2.0;
    format      ascii;
    class       volVectorField;
    location    "6.6";
    object      U;
}
// * * * * * * * * * * * * * * * * * * * * * * * * * * * * * * * * * * * * * //

dimensions      [0 1 -1 0 0 0 0];

internalField   nonuniform List<vector> 
5119
(
(0.000897628 0.00140976 9.74384e-23)
(0.000205436 6.70895e-05 4.37428e-21)
(0.000837782 1.4012e-05 -2.55202e-21)
(0.000599228 0.000802444 -8.303e-25)
(0.000781081 0.00125583 1.94926e-22)
(0.000871793 7.49307e-05 1.31374e-21)
(0.000270009 0.000203258 -1.33615e-21)
(3.29551e-05 -4.3466e-06 -6.50019e-23)
(0.000223256 0.00108068 -1.11763e-21)
(0.000959985 0.001483 7.92056e-23)
(0.000631729 0.000803428 1.21013e-24)
(0.000725252 0.00112448 -3.27797e-22)
(0.00071824 0.00115581 -2.25593e-22)
(0.000706851 0.000489278 1.01896e-21)
(0.000816496 0.0013067 -7.49271e-23)
(0.000659064 0.00112799 0)
(0.000805495 0.0013969 2.91719e-22)
(0.000811167 0.00128307 -1.03598e-22)
(0.000922282 0.00147128 2.89593e-22)
(0.000752501 0.00119724 6.4787e-23)
(0.00073076 0.00120372 2.86345e-22)
(0.000662613 0.00106318 7.63749e-22)
(0.000670402 0.00107792 -1.58988e-22)
(0.000808544 0.00125006 1.13101e-22)
(0.000714359 0.00114376 0)
(0.000939924 0.00148004 6.67258e-22)
(0.00069631 0.00108798 0)
(0.000716559 0.00111097 8.66713e-23)
(0.000733584 0.00113676 3.31985e-22)
(0.000659887 0.00103886 9.04018e-23)
(0.000748452 0.00116001 -3.02097e-22)
(0.000737312 0.00114421 -8.38734e-24)
(0.000680782 0.00107924 5.59954e-22)
(0.000799654 0.00126458 0)
(0.000959352 0.00148018 -9.63817e-23)
(0.000700877 0.00110326 2.87137e-22)
(0.000674222 0.00105967 2.81078e-22)
(0.000685542 0.00107828 3.78093e-23)
(0.000657514 0.00111517 -5.12275e-25)
(0.000670123 0.00105749 9.24455e-22)
(0.000592304 0.00015843 -1.64313e-24)
(0.000869026 0.0014677 -4.09856e-22)
(0.000729432 0.00125947 2.22909e-22)
(0.000660227 0.00113964 0)
(0.000650239 0.00111214 -2.37751e-22)
(0.000608061 0.000150373 -2.02893e-21)
(0.000773074 0.001322 -7.46939e-22)
(0.000666659 0.0011367 0)
(0.000741648 0.00125587 7.7817e-24)
(0.000724708 0.00125679 -2.06921e-22)
(0.000597325 0.000403261 -1.58377e-21)
(9.7617e-05 0.000629405 -1.05648e-21)
(0.000937644 3.8869e-05 -5.40876e-22)
(0.00063793 7.42451e-05 2.19052e-21)
(1.50333e-05 0.000427909 -3.13298e-21)
(0.000667799 0.00110298 8.60744e-22)
(0.000687695 0.000757697 1.43648e-24)
(3.63017e-05 -1.57932e-06 9.14254e-22)
(0.000721826 0.00122656 0)
(0.000858464 0.00143942 0)
(0.000614918 0.00114 -1.4718e-21)
(0.000657286 0.00110904 2.27553e-21)
(0.000684826 0.00113683 0)
(0.000784893 0.00132138 1.22055e-21)
(0.000481136 0.000105709 1.1894e-21)
(0.000775071 0.00132825 8.55621e-22)
(0.000752067 0.000365877 2.22777e-24)
(0.000884504 0.000577706 1.0495e-21)
(0.000767919 0.00128728 0)
(0.000694633 0.000508619 -3.09668e-22)
(0.000198315 0.000355417 -1.43025e-24)
(0.000175867 -2.34668e-05 -4.73424e-21)
(0.000894591 0.000319982 1.42104e-21)
(0.000661471 0.00114105 4.08455e-22)
(0.000705075 0.00111882 -1.40466e-21)
(0.000883175 0.00138148 0)
(0.000316742 9.7357e-05 9.75047e-22)
(0.000607493 0.000208068 5.98756e-22)
(0.00058826 0.00109227 0)
(0.000530195 0.000976192 -7.7819e-22)
(2.30995e-05 0.000701051 0)
(0.000950606 0.000526853 0)
(0.000932741 0.00151862 0)
(0.00066724 0.00135092 1.67197e-23)
(0.000614892 9.84463e-05 0)
(0.00066816 0.00120496 1.41111e-22)
(0.0007673 -4.34814e-05 2.29889e-21)
(0.000709886 0.00120754 1.94932e-21)
(0.000545966 0.00112276 3.72116e-23)
(0.000569468 0.00116773 0)
(0.000555955 0.00114191 0)
(0.000534963 0.0011017 0)
(3.52636e-05 -1.14999e-06 -1.47778e-21)
(0.000419296 0.000769844 -1.44862e-21)
(0.000464793 0.000822437 0)
(0.000453693 0.000675218 2.44357e-21)
(0.000879658 -9.84883e-06 0)
(0.00068113 0.00118297 1.60741e-21)
(0.000677583 0.000780771 1.46236e-21)
(0.000680672 0.00118009 -1.3684e-22)
(0.000748315 0.00137158 6.43385e-22)
(0.000638285 0.00113225 0)
(0.00149308 0.000969368 -2.39833e-21)
(0.000792527 0.00159156 -4.30876e-22)
(0.000314159 0.000117234 2.11441e-21)
(3.70501e-05 5.22603e-06 1.08855e-21)
(0.000688831 0.00127052 -2.0044e-21)
(0.000571152 0.000310558 4.56449e-22)
(0.000836638 0.000588922 1.32519e-22)
(0.000657162 2.93448e-05 0)
(0.000411772 0.00125741 -2.58027e-21)
(3.62227e-05 2.10959e-06 -2.1334e-26)
(0.000240678 -3.23771e-05 8.45554e-22)
(0.000768458 0.00126467 -2.07251e-22)
(0.000300132 0.000164309 4.31596e-21)
(0.00046447 0.000633891 -2.31145e-22)
(0.000505437 0.00079008 -1.83716e-21)
(3.912e-05 4.39585e-06 -2.04275e-21)
(0.000496643 0.000566443 -4.0052e-21)
(0.000779722 0.00129799 1.04594e-22)
(0.000777673 0.000359178 0)
(0.000811646 0.00134995 -6.7042e-22)
(0.000163945 0.000847659 -4.56689e-22)
(0.000680556 0.00120188 1.28355e-21)
(0.000836802 0.00144572 -1.69432e-21)
(0.000917616 0.00156162 4.41425e-22)
(0.000705974 0.00127207 -3.55201e-24)
(0.000865304 0.00154651 -2.45347e-22)
(0.000800218 0.00131782 4.50941e-22)
(0.000669878 0.00114797 -3.32271e-22)
(0.000691913 0.00121387 -1.35776e-21)
(0.000669788 0.00113673 -2.22445e-22)
(0.000839737 0.00138527 -4.45956e-22)
(0.000745578 0.00125183 -4.24429e-22)
(0.000793539 1.5168e-05 -1.51606e-21)
(0.000574013 0.000332693 3.90899e-25)
(0.000645059 0.00128938 0)
(0.000717599 0.00121153 0)
(0.000234001 0.000323273 1.28469e-21)
(0.000791373 0.00131674 0)
(0.000658042 0.00114618 -1.04009e-21)
(0.000643253 0.00112007 3.48987e-22)
(0.000629267 0.00110901 2.69474e-22)
(0.000664656 0.00108537 1.16517e-22)
(0.000714943 0.00120429 3.69782e-22)
(0.000701815 0.00117415 1.47685e-22)
(0.00069138 0.0011582 -9.61877e-23)
(0.000718098 0.00120834 0)
(0.000701695 0.00118078 -9.75333e-23)
(0.000854445 0.000906749 -3.46165e-22)
(0.000626213 0.00123115 0)
(0.000888897 0.000188073 0)
(0.000641472 0.00115156 0)
(0.000435389 0.000758175 2.36574e-21)
(0.000332378 0.00061721 2.17644e-21)
(0.000862705 0.00144433 3.40301e-23)
(0.000396121 0.000633596 2.93012e-21)
(0.000951695 8.83894e-05 0)
(0.000277971 0.000267079 1.04426e-21)
(0.000176595 0.000704796 2.15385e-22)
(0.00074171 0.00144029 -1.01517e-21)
(5.74585e-06 1.75061e-06 0)
(0.000144681 0.000267993 -2.28491e-21)
(0.000757594 0.00134809 -9.72197e-22)
(3.75524e-05 4.14815e-06 5.0803e-22)
(0.000988459 0.000245637 2.40417e-21)
(3.42805e-05 0.000188797 -6.26523e-21)
(0.000149841 -1.64951e-05 -1.50112e-21)
(4.104e-05 -8.12212e-07 1.79875e-21)
(0.000128065 0.000567536 0)
(0.000264386 0.000354402 1.68572e-22)
(0.000848291 0.00150513 4.49765e-22)
(0.0004724 0.000549158 2.28718e-21)
(0.000474891 0.000463713 -2.28827e-22)
(0.000395854 0.000603015 2.35469e-21)
(0.000531781 0.000473859 -2.22082e-21)
(0.000148889 0.000315309 -1.70961e-24)
(0.000653412 0.00117116 1.13235e-22)
(3.61163e-05 8.47091e-06 -1.71336e-21)
(0.000791207 0.00141992 2.38109e-22)
(0.000789918 0.000336624 -3.11144e-21)
(0.000730715 0.000377729 0)
(0.000695262 0.00117902 0)
(0.000562857 0.000974754 -1.41442e-21)
(0.000256485 7.35191e-05 -2.77942e-21)
(0.000457359 0.000702831 -3.87612e-22)
(0.000460192 0.000108001 1.14029e-21)
(0.000317234 0.0003029 -1.0951e-21)
(0.000574961 0.000374805 -1.72941e-21)
(0.000261163 0.000180568 -1.11854e-21)
(0.00014856 0.00070181 0)
(0.000563347 0.00121071 -4.53646e-22)
(0.000735844 0.00125126 1.01632e-21)
(0.000526293 0.000552119 2.03399e-21)
(2.49929e-05 -4.82169e-06 0)
(0.000330018 0.000748609 0)
(0.000690637 1.52373e-05 -1.43325e-21)
(0.000702338 0.000393047 5.27871e-21)
(0.000414527 0.000877361 1.07703e-21)
(0.00093563 0.000193722 1.96752e-22)
(0.000136678 -1.32027e-05 -3.98128e-21)
(0.000593173 0.00109951 0)
(4.15137e-05 1.59915e-06 -1.82788e-22)
(0.000738788 0.00130812 -2.76889e-22)
(0.00065341 0.00119429 0)
(0.000681449 0.00122276 2.5207e-22)
(0.000641802 0.00109376 1.16937e-21)
(0.000519149 0.0011698 -3.31897e-21)
(0.000309888 0.000407593 8.07782e-22)
(0.000789059 0.000558788 -4.45256e-21)
(0.000161714 0.000253224 2.28098e-21)
(0.000451478 0.000660385 4.69763e-23)
(0.000919677 0.000311625 -1.44312e-24)
(0.000505309 0.000735377 -1.46401e-21)
(0.000599741 0.00030079 4.2358e-22)
(0.00032871 0.000409689 -1.03761e-21)
(0.000247241 0.000317689 9.58333e-26)
(0.000400378 0.00057974 -1.23063e-21)
(0.00035591 0.000618622 -1.91087e-24)
(0.000341481 0.000295213 7.59235e-22)
(0.000726571 0.00152205 1.02561e-21)
(0.00042365 0.000645618 0)
(3.18091e-05 7.57053e-06 0)
(0.00064868 0.00121069 -7.67435e-22)
(0.000447783 0.000633706 -1.15535e-22)
(0.000552056 0.000802884 0)
(0.000246228 9.76784e-05 -3.29396e-25)
(0.000672488 0.000189344 0)
(0.000799149 0.00140639 0)
(0.000667805 0.00119581 2.09624e-22)
(3.0992e-05 1.80946e-05 -4.04124e-21)
(0.000780013 0.00132903 -5.10325e-22)
(0.000620958 0.00111615 7.4567e-22)
(0.000770074 0.00138675 1.62805e-21)
(0.00070896 0.00120277 0)
(0.000278859 0.000377067 9.11494e-23)
(0.000715657 0.00119844 1.63381e-21)
(0.000621023 0.00107707 0)
(5.43146e-05 0.00039991 3.44268e-22)
(0.000426986 0.00103102 -2.19856e-22)
(0.000444452 0.000572505 -2.5489e-21)
(0.000124953 0.000257065 5.59959e-25)
(0.000440251 0.000724435 4.49648e-23)
(0.0013027 0.00140366 0)
(0.000763574 0.00139584 -1.13842e-21)
(0.00085982 0.00158454 -2.4727e-22)
(0.000749802 0.0013075 -3.78474e-22)
(0.000307997 0.000373007 1.49831e-21)
(0.000637429 0.00106988 3.58212e-22)
(0.000594972 0.00108411 1.52884e-22)
(0.000671576 0.00114355 0)
(0.000876397 0.00149514 0)
(0.000678737 0.00116619 0)
(0.00068597 0.00124526 2.9038e-22)
(0.000620986 0.00110268 -4.0548e-22)
(0.000641387 0.00111167 -1.05275e-21)
(0.000635296 0.00112785 0)
(0.000591813 0.00108669 -1.99462e-22)
(0.000825242 0.00146825 4.24399e-22)
(0.000812066 0.000476919 -7.83553e-22)
(0.00029759 0.000284918 0)
(6.8363e-05 -0.000175082 -7.27041e-22)
(0.00117692 0.000948664 0)
(0.000700663 0.00123792 4.32817e-22)
(0.000643091 0.00113671 4.1931e-22)
(0.000663132 0.00115845 2.2669e-22)
(0.00073562 0.00125983 -5.62372e-22)
(0.000659248 0.00116729 0)
(0.000195068 0.000327028 1.72941e-22)
(0.000879824 0.00159283 -5.53207e-22)
(0.000561141 0.000356942 4.74141e-22)
(1.42367e-05 -7.84404e-06 0)
(0.000867858 0.00148242 4.08717e-22)
(0.000762331 0.00135305 1.93762e-21)
(0.000753191 0.00123825 7.00325e-23)
(0.00091515 1.6417e-05 3.0547e-21)
(0.0015951 0.00117603 1.96841e-21)
(0.0006761 0.00109411 0)
(0.000609703 0.00101471 4.10974e-23)
(0.000757578 0.00125423 1.09755e-21)
(0.000616971 0.000975251 1.14104e-21)
(0.000542633 0.000937372 -4.01841e-22)
(0.000530602 0.000917163 -5.30149e-22)
(0.000570848 0.000952872 3.85812e-22)
(0.00052328 0.000905853 0)
(0.000616384 0.00104846 -6.53224e-22)
(0.000710592 0.00120782 2.86156e-22)
(0.000584758 0.000977721 0)
(0.000720164 0.00120835 1.75549e-22)
(0.000591706 0.00100423 4.15377e-23)
(0.000646646 0.000995054 -1.09658e-21)
(0.000530673 0.000929263 -3.39539e-22)
(0.000576297 0.000885533 4.81065e-22)
(0.000161957 0.000236634 5.04972e-21)
(0.000690326 0.00118835 1.21796e-22)
(0.000753286 0.00128646 -1.25443e-21)
(0.000703469 0.00118751 0)
(0.000486136 0.000486731 2.11872e-22)
(2.09604e-05 0.00010789 1.3497e-21)
(0.00065167 0.00113033 0)
(0.00140707 0.000273068 0)
(0.000655104 0.00104184 4.81605e-22)
(0.000289266 0.00059904 0)
(0.000901201 0.000132028 2.63081e-21)
(0.000453542 0.000540826 0)
(0.000983297 0.000238217 0)
(0.000935415 7.97562e-05 0)
(0.000578064 0.00103352 1.06479e-22)
(0.000451136 0.000657166 2.71938e-22)
(0.000760793 0.00120958 -3.38611e-25)
(0.000627506 0.00102386 -1.4179e-22)
(0.000642305 0.00110557 0)
(0.000659564 0.00110617 7.19537e-22)
(0.000703872 0.00113297 -2.98375e-22)
(0.000732154 0.00125129 0)
(0.000772739 0.00126835 3.83234e-22)
(0.000261587 7.126e-05 5.78729e-21)
(0.000849158 -0.000122342 1.85298e-21)
(0.000799619 0.00144199 -3.55778e-22)
(0.000830315 0.0013959 -7.10769e-22)
(0.00067433 0.000813183 1.48051e-22)
(0.000628034 0.00111891 3.14183e-24)
(0.000636542 0.00106307 -6.51969e-22)
(0.000906368 0.000141501 0)
(0.000425288 0.000763504 -1.23157e-21)
(0.000616606 0.0012228 -3.27399e-22)
(0.000755773 0.000695153 -2.67535e-21)
(0.000767238 0.00137339 -5.2306e-22)
(0.000769091 0.00129304 -2.72932e-24)
(3.93785e-05 0.000576308 -2.42643e-21)
(0.0007081 0.00114683 7.51459e-22)
(0.000940601 0.00158504 -9.20923e-22)
(0.000574181 0.00122573 1.53437e-22)
(0.00026709 0.000336401 1.02439e-21)
(0.000866487 5.12867e-05 0)
(0.000733291 0.00114538 1.50126e-22)
(0.00053172 0.000948029 -3.54972e-22)
(0.000651881 0.0011698 1.28851e-21)
(0.000685451 0.00111923 -1.83873e-22)
(0.000737333 0.00122504 -1.71283e-22)
(0.000570792 0.0010195 1.13714e-21)
(0.000605192 0.000995339 2.79117e-22)
(0.000659661 0.000808975 4.04015e-23)
(0.000732223 0.00130712 -3.52955e-22)
(0.000566279 0.00100093 -9.83969e-22)
(0.000543069 0.000899288 -1.18403e-22)
(0.000653254 0.00105338 -4.4771e-22)
(0.000535983 0.00090966 0)
(0.000311308 0.000563333 1.35711e-21)
(0.000305176 0.000631312 0)
(0.000677719 0.00117194 -4.14438e-22)
(0.000655673 0.00106118 -1.1247e-21)
(0.000719028 0.00118388 3.59955e-22)
(0.00082058 0.00131549 -9.4205e-22)
(0.000711682 0.00113778 -6.67274e-22)
(0.000665335 0.00108487 -2.15224e-21)
(0.000715374 0.00118593 0)
(0.000697413 0.00118577 0)
(0.000709495 0.00114584 -2.6879e-22)
(0.000873486 0.00135409 1.20468e-21)
(0.000836355 0.00141127 4.16014e-22)
(0.000641095 0.00108708 -1.74018e-23)
(0.00064664 0.00109835 0)
(0.000661405 0.00104269 6.53553e-22)
(0.000650422 0.00105481 -2.11501e-22)
(0.000661788 0.00112432 -2.88448e-23)
(0.000837984 0.00138027 0)
(0.000651794 0.00105515 3.13952e-22)
(0.000655676 0.00109646 -8.15797e-22)
(0.000670704 0.00112267 4.78648e-22)
(0.000655304 0.00108019 0)
(0.000826066 0.00137865 -2.8294e-22)
(0.000871786 0.00145872 1.18516e-21)
(0.000877597 0.0014669 1.12359e-21)
(0.000521987 0.000693412 -1.2926e-24)
(0.000810941 0.00060687 2.22376e-21)
(0.000616916 0.0004273 1.59589e-21)
(0.000519737 0.000537547 -1.2473e-21)
(0.000770774 0.00139566 2.45834e-22)
(0.000803489 4.40353e-05 1.31512e-21)
(0.000182273 0.000681058 0)
(0.00029564 0.000259614 -1.36911e-21)
(0.000674887 0.00114115 -3.43391e-22)
(0.000669673 0.00118667 2.08814e-22)
(0.000677602 0.00115734 0)
(0.00071277 0.00134803 1.10785e-21)
(2.01239e-05 -1.21444e-06 -3.39795e-26)
(0.000579954 0.000957929 2.4069e-22)
(0.000638334 0.00104614 2.04901e-22)
(0.000546855 0.000942888 7.21522e-22)
(0.0010077 0.00021625 -2.74038e-21)
(0.00087307 0.000190728 -1.86174e-21)
(0.000693995 0.00140585 -8.40118e-22)
(0.000581109 0.000280781 -4.137e-22)
(0.000531416 0.000922438 0)
(0.000514827 0.00091121 3.52602e-22)
(0.000527594 0.000866733 6.19225e-23)
(0.000565845 0.000950136 -2.50244e-22)
(0.000554734 0.000927707 -1.24884e-22)
(0.000754868 0.000390692 -2.08009e-21)
(0.000684166 0.00122204 3.47217e-22)
(0.000351978 0.000280323 4.0711e-22)
(1.93663e-05 -6.861e-06 -2.91214e-25)
(0.000620948 0.00128254 5.20389e-22)
(0.000786746 0.00133382 -1.38273e-21)
(0.00108636 0.000572219 2.02037e-25)
(0.000129497 0.000808645 0)
(3.80949e-05 8.70232e-06 9.47895e-22)
(0.000110724 0.000544745 0)
(0.000544163 0.000903308 -8.94583e-22)
(0.000641172 0.00120413 0)
(0.000825042 0.00139206 0)
(0.000727444 0.00125964 6.04293e-22)
(0.000578261 0.000967603 0)
(0.000556374 0.000929504 -5.74934e-23)
(0.000564875 0.000945665 1.11998e-22)
(0.000275815 0.000830987 -2.06675e-21)
(0.00066643 0.00116593 -1.08113e-21)
(0.000785568 0.00126831 0)
(0.000756951 0.000286715 3.07062e-21)
(0.000566638 0.000285548 3.53047e-21)
(0.000627021 0.00112367 0)
(0.000458811 0.000566791 2.47297e-21)
(0.00057782 0.000350201 1.13811e-21)
(0.000287258 0.000353569 -3.5279e-22)
(0.000513181 0.000644449 2.94949e-22)
(0.000867213 0.000289047 2.39382e-21)
(0.000636817 0.00116966 4.4466e-22)
(0.000672929 0.00128784 0)
(0.000857071 7.47111e-05 1.02037e-21)
(0.000561272 0.00107582 3.09074e-22)
(0.000714098 0.00112278 2.17645e-22)
(0.000839512 0.00133977 -2.05777e-23)
(0.000973763 0.000192869 -3.14602e-21)
(0.000305539 0.000535094 0)
(0.00067003 0.000417334 0)
(0.000564862 0.00118711 -8.77751e-22)
(0.0006341 0.00123935 -1.62331e-21)
(0.000885804 0.000135662 2.64942e-21)
(0.000370963 0.000318744 1.63494e-21)
(8.02771e-05 0.000741201 1.77222e-22)
(0.000905604 0.00033209 0)
(0.000341536 0.000760305 6.57906e-22)
(0.000590025 0.00110993 0)
(0.000613543 0.00115105 5.66388e-23)
(0.000628466 0.00117782 0)
(0.000602518 0.00113128 0)
(0.000321582 0.000278675 4.15839e-25)
(0.000795992 0.00101892 2.24294e-22)
(0.000795347 0.00136867 1.79636e-22)
(0.0013394 0.000774855 -1.18452e-21)
(3.58107e-05 5.62603e-05 0)
(0.000916581 0.00151161 -7.84541e-22)
(0.000644435 0.00110956 0)
(0.000822894 0.00143697 0)
(0.00082855 0.00141113 -4.92847e-22)
(0.000629027 0.00110315 -1.42637e-23)
(0.000632116 0.00108329 2.20037e-22)
(0.00063802 0.00110519 1.64894e-22)
(0.000653178 0.00113065 -6.61488e-22)
(0.000648157 0.00109182 -1.08506e-21)
(0.000836009 0.00146498 -4.06874e-22)
(0.000667184 0.00120252 -7.69284e-24)
(0.0007048 0.00113769 0)
(0.000325714 0.0003918 -3.76851e-22)
(0.000504356 -0.000142648 1.82248e-21)
(0.000805311 0.00139164 -1.02276e-21)
(0.000698523 0.00124872 -1.32303e-22)
(0.000694335 0.00119098 -3.15955e-22)
(0.000618145 0.00104439 3.74016e-22)
(0.00070803 0.00118896 6.80181e-22)
(0.000763459 0.00126778 3.43917e-22)
(0.000680193 0.00113835 9.43293e-22)
(0.000658353 0.00107423 9.29072e-22)
(0.000688769 0.00116682 0)
(0.000704351 0.0011648 -7.79689e-22)
(0.000669635 0.00112104 0)
(0.000824059 0.00134022 -5.31281e-22)
(0.000838166 0.00140712 3.75671e-22)
(0.00064923 0.00110427 1.59164e-22)
(0.000641189 0.00109849 -3.59245e-22)
(0.000664127 0.00113057 -8.47167e-22)
(0.000628087 0.0010354 5.5946e-22)
(0.000647389 0.00104833 -8.71373e-22)
(0.000822356 0.00137968 -9.59466e-22)
(0.000622167 0.00104816 -1.69857e-23)
(0.000649349 0.00111773 -7.36625e-22)
(0.000634328 0.00109151 -2.86878e-22)
(0.000631672 0.00107061 -4.21052e-22)
(0.000793392 0.00137223 0)
(0.000871436 0.00148314 0)
(0.00086025 0.00144395 0)
(0.000200052 4.24437e-05 3.71787e-26)
(0.00110602 0.00063003 8.62128e-24)
(0.000464907 5.02662e-05 -5.9754e-22)
(0.000767933 0.00135678 -4.13981e-22)
(0.000524829 0.00112452 -1.30345e-23)
(0.000337021 0.000144573 3.64929e-21)
(0.000902767 8.28937e-05 0)
(0.00046922 0.000446106 8.34431e-25)
(0.0011882 0.000367176 2.2803e-21)
(0.000639637 0.000182162 1.32947e-21)
(0.00065823 0.00128834 2.12534e-21)
(7.46734e-05 0.000757159 -2.30736e-21)
(0.000873901 0.00027428 -2.81017e-21)
(0.000736523 0.00136799 0)
(1.25736e-05 0.000546465 0)
(0.000699473 0.00123565 9.56904e-22)
(0.000296325 0.00120524 -1.26072e-21)
(0.000426408 0.000738997 -1.40886e-22)
(0.000409886 0.000741767 -1.32386e-22)
(0.000533648 0.00098319 -4.26725e-23)
(0.000470166 0.000763149 -3.77423e-22)
(0.000697985 0.00124732 0)
(0.000622684 0.00111468 2.72874e-22)
(0.000767712 0.00128759 3.72352e-22)
(0.000320009 0.00065436 1.98743e-21)
(0.000455485 0.000489956 0)
(0.000185849 0.00024118 2.11537e-21)
(0.000425202 0.000579392 4.4278e-21)
(0.000930753 0.00156817 4.07631e-22)
(0.000588513 0.000924168 3.08527e-22)
(2.5768e-05 2.29261e-05 8.0526e-22)
(0.000550814 0.00122328 1.37246e-21)
(0.000141516 0.000718794 1.52055e-21)
(0.000859311 0.00154943 -3.30904e-22)
(0.000830798 0.00144778 2.05065e-22)
(0.000764562 0.00127056 7.72596e-24)
(0.000856815 0.000159609 6.22259e-22)
(0.00062137 0.00110589 1.54724e-21)
(0.000686374 0.00129229 -1.11082e-21)
(0.000661314 0.00114765 -1.03156e-22)
(0.000607253 0.00112655 0)
(0.000516799 0.000931824 0)
(0.000603496 0.00108774 2.33059e-22)
(0.000183771 0.000228758 -4.9453e-21)
(0.000857958 1.41898e-06 -3.13119e-21)
(0.000535569 0.00123845 3.26123e-22)
(0.00069668 0.000738831 -1.39904e-21)
(0.000618134 0.00105667 -1.61427e-22)
(0.000492863 0.000944692 -1.30032e-21)
(0.000613028 0.00108365 -4.14934e-22)
(0.000911402 0.0014168 4.393e-22)
(0.000840459 0.00149194 3.52396e-22)
(0.000874928 0.00148574 0)
(0.000684741 0.00114793 1.20409e-21)
(0.000655018 0.00111219 -1.6715e-21)
(0.00114952 0.000389492 1.75595e-21)
(0.000671891 0.000792037 -1.26445e-21)
(0.00073912 0.00132547 1.00403e-22)
(0.000861862 0.000540908 4.81075e-24)
(0.000682234 0.0012348 0)
(0.000619927 0.000223543 0)
(6.25429e-05 -0.00013279 -1.29333e-22)
(0.000879363 4.50249e-05 0)
(0.000554575 0.00102127 -1.38616e-21)
(0.000726346 0.00130453 -3.28868e-23)
(0.000551968 0.00104299 0)
(0.000472043 0.000715453 5.57497e-22)
(0.000693173 0.00111375 0)
(0.00043591 0.000817676 0)
(7.89724e-05 4.27617e-05 0)
(0.000507503 0.000773749 1.39337e-21)
(0.000756497 0.00143629 3.96449e-24)
(0.000888808 -3.82521e-06 -3.11315e-21)
(3.52532e-05 8.65808e-06 -1.93588e-21)
(0.000770424 0.000483056 2.40777e-21)
(0.000742892 0.00138397 -5.95326e-23)
(0.000272115 0.000312111 -1.37651e-21)
(0.00151786 0.000191737 -1.77823e-21)
(5.49451e-05 0.000853858 -7.24869e-22)
(0.000704312 0.00122472 0)
(0.000876029 0.000210382 0)
(0.000874336 0.000105609 -2.55446e-21)
(0.000898393 0.000342784 -1.54809e-21)
(0.000640122 0.0011691 -4.19774e-22)
(0.00033766 0.000742772 -7.87475e-22)
(0.000630544 0.000254334 0)
(0.000867587 0.00019281 0)
(1.92967e-05 -1.1129e-05 -2.0919e-21)
(0.000474436 0.00119342 -6.34551e-23)
(0.000434215 0.00115634 3.36174e-23)
(0.000622534 0.00152602 0)
(0.00117126 0.00110007 1.50668e-21)
(0.000755629 0.000554893 -4.1422e-24)
(0.00048385 0.00053785 -1.08246e-21)
(0.000979297 7.40604e-05 -1.54763e-24)
(0.000806661 -1.57255e-05 -1.5016e-21)
(0.000624906 0.00107164 -5.24688e-24)
(0.000761633 0.00125863 2.49625e-22)
(5.54769e-05 4.62369e-05 3.5074e-26)
(0.00052043 8.25153e-05 -8.92092e-22)
(2.60798e-06 2.88325e-05 -2.27501e-22)
(0.000594156 0.00106577 -2.55329e-22)
(0.000745869 0.000515149 1.90236e-21)
(0.000249927 0.000339233 -1.34279e-21)
(0.000892709 0.00154706 2.03881e-21)
(0.000678448 0.00115357 -3.70918e-22)
(0.000680306 0.00118407 -3.52682e-22)
(0.000665629 0.00115805 -5.02368e-22)
(0.00065556 0.00113199 -6.22499e-22)
(0.000884041 0.00148472 1.19427e-22)
(0.000686598 0.0011758 0)
(0.00083742 0.00142362 -5.3924e-22)
(0.00065697 0.0011118 1.37772e-22)
(0.000455066 0.000851997 0)
(0.000852199 7.70033e-05 3.44245e-21)
(0.000158701 0.00089059 -1.43918e-21)
(0.000170825 0.000209605 3.43752e-21)
(3.24436e-05 -9.72603e-05 2.16703e-21)
(0.000718024 0.00131559 -7.17182e-22)
(0.000847512 0.000206567 0)
(0.000968634 0.000556171 -3.08002e-22)
(0.000600929 0.00103008 1.35603e-21)
(0.000624891 0.00138758 3.75929e-22)
(0.000831594 0.000160104 3.11604e-25)
(0.000518003 0.000480923 1.3687e-21)
(3.01264e-05 5.08e-05 0)
(0.000603891 0.00112373 0)
(0.000257956 0.000248463 -2.83378e-21)
(0.000618732 0.000286486 3.60595e-25)
(0.00029211 0.000331262 3.48265e-22)
(0.000511521 0.000747243 -3.9885e-22)
(0.000466928 0.000158865 1.10922e-21)
(0.000655399 0.00122752 0)
(0.000740473 0.00136403 -2.96831e-22)
(0.0014113 0.00075398 0)
(2.31634e-05 5.69575e-05 -7.22858e-21)
(0.000594611 0.000331229 -3.14176e-21)
(0.000642437 0.000311288 4.09897e-22)
(0.000832665 0.000212407 -1.30345e-21)
(4.35235e-05 0.000490525 3.00606e-21)
(0.000436955 0.00102407 3.0516e-22)
(0.000726851 0.0012074 8.01372e-24)
(0.00069002 0.00121105 -2.47074e-22)
(0.00100491 0.000379388 5.5843e-21)
(0.000505563 0.00120526 -1.02369e-21)
(0.000853108 0.00155792 -1.29566e-22)
(0.00066943 0.00119497 0)
(0.00071678 0.00131623 0)
(0.000870905 0.00155542 5.65157e-22)
(0.00061771 0.00116034 -3.00259e-22)
(0.00063235 0.00118653 -3.01944e-22)
(0.000670536 0.00122518 0)
(0.000624482 0.00115826 1.36218e-22)
(0.0007039 0.0013349 0)
(0.000601649 0.00113922 0)
(0.000830564 0.00154386 -6.43097e-22)
(0.000454026 0.000467683 -8.43084e-22)
(0.000712303 0.00131008 1.32347e-21)
(0.000330928 0.000649134 -1.35003e-21)
(0.000722996 0.00126925 4.74276e-23)
(0.000818783 2.90223e-05 1.32976e-21)
(0.000872162 0.000236305 1.18372e-21)
(0.000355642 0.000643406 2.26896e-21)
(0.000249305 4.47905e-05 0)
(6.0361e-06 0.000141937 -4.6743e-21)
(0.000651469 0.00115127 -1.39124e-23)
(0.000850499 0.00028072 -1.45479e-21)
(3.42191e-05 5.81858e-06 -2.17073e-21)
(0.000641479 0.00117703 1.29431e-21)
(0.00066732 0.00123486 1.7457e-22)
(0.000669323 0.00114244 0)
(0.000633852 0.00139558 -1.92801e-21)
(0.000535372 -7.92755e-05 -5.01576e-21)
(0.000585719 0.00126998 3.51649e-22)
(0.000230079 0.000761887 0)
(1.32266e-05 0.000176425 2.09284e-25)
(0.000811392 0.000730212 -1.69773e-22)
(0.000752986 0.00133491 0)
(0.000692313 0.00120657 1.38566e-22)
(0.00077397 3.05002e-06 0)
(4.41869e-06 0.000203114 1.78083e-21)
(-8.92541e-07 0.00102951 -1.50086e-21)
(0.000140373 0.000678322 1.61676e-21)
(0.000608302 -8.19786e-05 2.07136e-21)
(0.000698404 0.00129131 -9.67362e-22)
(0.000158412 0.000323104 0)
(0.000556081 0.000159241 -6.92345e-22)
(0.000911358 0.000624427 -1.31064e-21)
(0.000704929 0.00123056 0)
(0.000655425 0.00110956 2.4393e-22)
(0.000561546 0.000989602 -6.46664e-22)
(0.000603987 0.00102969 0)
(0.000533554 0.00093154 -1.00437e-23)
(0.000503341 0.000193692 6.4462e-22)
(0.000329244 0.000688191 4.40876e-23)
(0.00031332 0.000671885 1.01702e-23)
(0.000434759 0.000916021 4.15281e-23)
(0.000567214 0.0013006 1.01036e-21)
(0.000890717 0.00020879 0)
(0.00089488 0.000106867 1.4423e-21)
(0.000504133 0.00101885 -6.97833e-22)
(0.000209796 0.000291317 -2.34408e-21)
(0.000510001 0.000917906 0)
(0.0003269 0.000716478 1.01507e-23)
(0.00037082 0.000816232 1.09318e-23)
(0.000713593 6.02736e-05 3.10439e-25)
(0.000596268 0.00103074 -1.67558e-22)
(0.000682724 0.00129139 3.29485e-22)
(0.000725973 0.0012822 -1.03813e-21)
(0.000610338 0.00115007 0)
(0.000644341 0.00114056 4.50213e-22)
(0.000602811 0.000946291 0)
(0.000541523 0.000668623 -2.25919e-25)
(0.000529356 0.000926231 0)
(2.43235e-05 0.000177957 -4.03462e-25)
(0.000624474 0.000186947 3.32115e-22)
(0.000431475 0.000546237 -1.15771e-21)
(9.73311e-05 4.90056e-05 0)
(0.000871853 0.000313723 0)
(0.000439606 5.40014e-05 -6.14461e-24)
(0.000631884 0.000763487 1.6266e-21)
(0.00105986 0.000477393 6.15793e-22)
(0.000684636 0.00116647 -2.02221e-22)
(0.000428959 0.000468982 7.11312e-22)
(0.000605065 0.00132432 -2.41436e-21)
(0.000678918 0.00144565 -2.36154e-22)
(0.000553519 0.00102231 1.72933e-21)
(0.000546262 0.000170855 0)
(0.000830363 0.00042822 -4.80659e-22)
(0.000707151 0.001123 5.01088e-24)
(0.000294278 0.000307339 0)
(0.000561079 0.00101252 -5.26897e-22)
(0.000482308 0.00057566 -4.95774e-21)
(0.000163738 0.000193089 1.82331e-21)
(0.000843675 0.00149156 1.09756e-22)
(0.000798477 0.000665315 -1.86956e-21)
(0.000528172 0.0011658 5.70676e-22)
(0.000994093 8.57141e-05 -1.66897e-21)
(0.000670519 0.000533428 1.11569e-21)
(0.00080018 0.00141421 -7.62396e-23)
(0.000507131 0.000573325 -1.0205e-24)
(0.00116057 0.000349619 -4.99749e-22)
(0.000409219 0.000327875 1.31632e-21)
(0.000277428 0.000598376 9.16786e-24)
(0.000282945 0.000610539 9.30019e-24)
(0.000290379 0.000627173 9.454e-24)
(0.000344402 0.000748846 -8.20915e-23)
(0.000271261 0.000585205 3.64084e-23)
(0.000183936 0.000181657 0)
(0.000760782 0.000521182 0)
(0.000559887 0.000866052 -1.87591e-21)
(0.000853318 1.6286e-05 0)
(0.000172691 2.6738e-05 1.87302e-21)
(2.22007e-05 6.12496e-05 3.38542e-21)
(0.000504468 0.000403079 -1.35504e-21)
(0.000412187 0.000650522 2.23279e-21)
(0.00117532 0.000647755 3.36349e-21)
(0.000529661 0.000938546 4.51009e-22)
(0.000556985 0.000961331 -8.99204e-22)
(0.000539537 0.000948719 2.28187e-22)
(0.000582504 0.00101383 -1.03261e-21)
(0.000743583 0.0012873 0)
(0.000673496 0.00119296 2.54771e-22)
(7.091e-05 5.04015e-05 1.92794e-21)
(0.000874305 0.000277935 1.56469e-21)
(0.000435789 0.000803862 -9.32571e-22)
(0.000458433 0.000837205 -6.91439e-22)
(0.000600209 0.000997883 -3.16046e-22)
(0.000502171 0.000809678 3.57391e-22)
(0.000473257 0.000749693 3.96041e-22)
(0.000421424 0.000746921 9.00105e-22)
(0.000573705 0.000820558 2.42758e-23)
(0.000489553 0.000705622 0)
(0.000536841 0.000898643 -6.60253e-22)
(0.000441133 0.000816792 5.77423e-22)
(0.000571358 0.000904061 -4.40299e-22)
(0.0005497 0.000955594 -6.57349e-22)
(0.000422861 0.000748364 -1.95957e-22)
(0.000412939 0.000736537 4.03253e-22)
(0.000524459 0.000945264 0)
(0.000432407 0.000706019 -9.12892e-22)
(0.000419389 0.000736501 2.24553e-22)
(0.000428896 0.0007529 4.288e-22)
(0.000710042 0.00100714 -1.73413e-22)
(0.00042463 0.000771623 -1.65694e-22)
(0.000430482 0.000787636 0)
(0.000420664 0.000770232 3.53048e-22)
(0.000453491 0.000731352 0)
(0.000401093 0.000733532 2.29615e-23)
(0.000527412 0.000960595 -9.38412e-24)
(0.000541616 0.000949415 1.18988e-23)
(0.000629884 0.00104481 0)
(0.000502522 0.000753093 3.33442e-21)
(0.000563941 0.00100059 6.09926e-22)
(0.00060036 0.000984977 -1.88639e-21)
(0.000405623 0.000746932 -7.93965e-22)
(0.000509995 0.000764836 0)
(0.000459608 0.000821618 -7.29212e-22)
(0.000507724 0.000920513 3.76315e-22)
(0.000484986 0.000797911 0)
(0.000865255 0.00015225 -1.16726e-21)
(0.000755825 0.00132915 2.20918e-22)
(2.54873e-05 8.67716e-06 1.10739e-21)
(0.00079519 0.00147758 -1.59904e-22)
(0.000914229 2.3517e-05 -1.33086e-21)
(4.22401e-05 7.48398e-07 2.34383e-21)
(4.05723e-05 -2.53731e-06 0)
(0.000121276 0.000285793 1.23833e-21)
(0.00065282 0.00113798 -3.9803e-22)
(0.000667085 0.00117629 0)
(0.000749912 0.0012746 -1.91768e-21)
(1.47022e-05 5.10489e-05 -2.12177e-21)
(0.000207087 0.000522337 0)
(7.38803e-06 -8.35309e-06 -1.8836e-21)
(0.000737915 0.000149904 1.62883e-21)
(0.000858664 2.71944e-05 -5.97852e-22)
(0.000718139 0.00120051 1.56173e-21)
(0.000409018 0.00110574 -6.1231e-22)
(0.000278877 0.000404895 -1.03435e-22)
(0.000416264 0.000815691 1.69918e-21)
(0.000208646 0.000566299 -1.69091e-21)
(0.00108177 0.00047111 7.45132e-23)
(0.000158089 0.000826535 1.71498e-21)
(0.000823049 0.000341772 7.85865e-22)
(7.02582e-05 4.12064e-05 3.4546e-21)
(0.00100678 1.6367e-06 3.65735e-21)
(0.000737532 0.00125129 -1.41771e-23)
(0.000607884 0.000262262 -2.12272e-21)
(0.00102162 0.000257518 1.53352e-24)
(5.19432e-05 0.000329328 -1.36553e-21)
(0.000605563 0.00120934 -9.8282e-24)
(0.000573159 0.00120436 0)
(0.000779041 0.00155973 0)