/*--------------------------------*- C++ -*----------------------------------*\
  =========                 |
  \\      /  F ield         | OpenFOAM: The Open Source CFD Toolbox
   \\    /   O peration     | Website:  https://openfoam.org
    \\  /    A nd           | Version:  8
     \\/     M anipulation  |
\*---------------------------------------------------------------------------*/
FoamFile
{
    version     2.0;
    format      ascii;
    class       volVectorField;
    location    "6.6";
    object      U;
}
// * * * * * * * * * * * * * * * * * * * * * * * * * * * * * * * * * * * * * //

dimensions      [0 1 -1 0 0 0 0];

internalField   nonuniform List<vector> 
4280
(
(3.21675e-05 1.52215e-05 -7.21879e-23)
(0.00065178 0.00111277 2.37732e-22)
(1.8078e-05 3.13444e-05 -1.04362e-21)
(0.000308978 0.000401371 -7.15612e-22)
(0.000543808 0.000955333 3.76498e-22)
(0.000563514 0.00101549 0)
(0.00055675 0.000928207 0)
(0.00062705 0.00107924 2.0818e-22)
(0.000326387 0.000576459 -4.53951e-22)
(0.000571023 0.00107599 1.31961e-22)
(3.91126e-05 -1.17529e-09 4.6364e-24)
(0.000666845 0.00124584 -3.39727e-22)
(3.61121e-05 8.24984e-05 -1.07006e-21)
(0.000588028 0.00045833 -1.36919e-21)
(0.0003444 0.000613495 -3.75797e-22)
(0.000634439 0.00109037 -2.00119e-22)
(0.000464795 0.000845395 4.53491e-22)
(0.000325434 0.00104017 -6.46852e-22)
(0.000189921 0.000763754 1.67742e-22)
(0.000627172 0.00108144 0)
(3.50244e-05 -2.5938e-06 -3.61276e-25)
(0.000684521 0.00124679 0)
(4.11887e-05 -6.82521e-05 5.91563e-22)
(0.000714447 0.00125233 0)
(0.000587145 0.00103983 -5.76876e-22)
(0.000511861 0.000876914 -8.7154e-23)
(0.000690278 0.00124416 0)
(0.000579062 0.00101214 -3.55878e-22)
(0.00060448 0.00105379 -2.64365e-22)
(0.000461662 0.00096446 3.06996e-22)
(0.000552886 0.000955999 -7.80514e-22)
(0.000471396 0.00111344 0)
(0.000514547 0.000920123 -4.73617e-22)
(0.000493881 0.000898778 -9.16834e-22)
(3.52038e-05 0.000321016 8.4935e-22)
(0.000571829 0.00102114 6.10566e-22)
(0.000731835 0.00124704 -1.35476e-23)
(0.000448923 0.00084298 6.65406e-22)
(0.000697573 0.0012988 -1.45224e-22)
(0.000577315 0.00100766 5.79487e-24)
(0.000675608 0.000593662 2.47145e-22)
(0.000623855 0.00129392 -4.64597e-22)
(0.000576316 0.000801009 0)
(0.000568881 0.000907733 0)
(0.000525447 0.00096741 -1.78918e-22)
(0.000507076 0.000925846 0)
(0.000922495 0.00115718 -1.88668e-22)
(0.000623459 0.00110131 -2.10673e-22)
(0.000546688 0.000948538 9.54704e-24)
(0.000879565 0.00147661 3.79714e-22)
(0.000387456 0.000697006 0)
(0.000634137 0.00108706 0)
(0.000562245 0.000984561 -2.59267e-22)
(9.05689e-05 0.000690233 -8.01143e-22)
(0.000156535 0.000626548 -3.4169e-22)
(0.000633385 0.00108994 1.90159e-22)
(9.29707e-05 -0.000408509 -2.6274e-22)
(0.000695377 0.00123587 -4.10028e-22)
(0.000524316 0.000905486 -6.16602e-24)
(0.000623271 0.00110152 2.08306e-22)
(0.000574972 0.00100099 5.15413e-24)
(0.000618048 0.00108532 3.20682e-22)
(0.000683059 0.00121814 9.06514e-22)
(0.000568687 0.00101811 -8.9684e-22)
(0.000574204 0.000997404 7.57062e-22)
(0.000705804 0.00124394 0)
(0.00081056 0.000819778 0)
(0.000170351 0.000602014 -4.84568e-22)
(0.000573495 0.0010102 -1.84962e-22)
(0.000624702 0.00109519 -1.92982e-22)
(0.000526087 0.00091062 -1.17691e-22)
(0.000614474 0.00107616 -2.69216e-22)
(0.00072807 0.00124757 -2.44555e-22)
(0.000697057 0.00122214 4.60528e-22)
(0.000833154 0.00044241 1.55742e-25)
(0.000196243 0.000737504 -8.93707e-22)
(0.000370431 0.000654226 0)
(0.000524282 0.000936517 0)
(0.000629648 0.00108294 6.01788e-24)
(0.000214146 0.000839497 -2.37717e-22)
(0.000561674 0.00107436 5.39773e-23)
(0.000699483 0.0012441 6.12832e-23)
(0.000361474 3.69437e-05 -1.78825e-21)
(0.000549902 0.000957163 -5.26568e-24)
(0.000551147 0.000959431 7.82954e-22)
(0.000905111 0.000849939 -9.13543e-22)
(0.00067754 0.00125907 1.43446e-22)
(0.000509797 0.00088694 1.10769e-22)
(0.000222724 0.000881541 -4.53028e-22)
(0.000325392 0.000972345 0)
(0.000709659 0.00124611 2.68202e-22)
(0.000319646 0.000998322 1.56578e-21)
(0.000465592 0.000913413 1.83477e-23)
(0.000509764 0.000894777 -1.73626e-22)
(0.000514085 0.000911489 0)
(0.000534326 0.00089742 3.38998e-22)
(0.000776177 0.00137581 0)
(0.000574763 0.00100748 -2.02671e-22)
(0.000678061 0.00113833 4.61817e-24)
(0.000523616 0.000905251 -7.87607e-22)
(0.000574572 0.00099967 -4.77918e-22)
(0.000657973 0.00128419 7.3149e-24)
(0.000716718 0.00126428 0)
(0.000529093 0.000917198 -3.21627e-22)
(0.000624101 0.00109854 1.88661e-22)
(0.000570603 0.000996509 -4.98495e-24)
(0.00053752 0.000927985 -4.8351e-22)
(0.000634223 0.00113279 -8.44834e-22)
(0.000359214 0.000636787 0)
(0.000383166 0.000698603 0)
(0.000286119 0.000743445 5.47087e-22)
(0.000532701 0.000920762 5.45622e-22)
(0.000549996 0.000955342 -7.88908e-22)
(0.000494379 0.000805498 -5.52188e-22)
(4.3272e-05 -2.42107e-06 -4.68173e-24)
(0.000528721 0.00091013 0)
(8.7076e-05 -0.000203367 -1.13396e-21)
(0.000533689 0.000953231 0)
(0.00055005 0.000724985 6.41484e-22)
(0.000561947 0.000432832 0)
(0.000416992 0.000911566 -3.07181e-22)
(0.000512902 0.000910125 1.40961e-22)
(0.000711433 0.00125172 3.27352e-22)
(0.000533218 0.000910838 2.83921e-22)
(0.000519167 0.000932872 0)
(0.000472527 0.000993943 4.45135e-22)
(0.000391489 0.000698622 0)
(0.000510016 0.000946714 -2.1925e-22)
(2.34641e-05 0.000234287 1.47593e-22)
(0.000791269 0.00140374 -3.78984e-23)
(0.000279457 0.000501575 -3.83784e-22)
(0.000644117 0.00113685 2.32752e-22)
(0.000602175 0.00109133 1.33378e-22)
(0.000606428 0.00103457 -3.11821e-22)
(0.000524926 0.000943051 1.13198e-21)
(0.000178291 0.00119134 0)
(0.000720274 0.00125464 0)
(0.000814846 0.00136395 2.46393e-25)
(0.000279641 0.000494114 -2.09208e-22)
(0.000711532 0.0012461 -5.46413e-24)
(0.000536847 0.00093112 -8.00444e-24)
(0.000495331 0.000885049 0)
(0.00025028 0.000458171 1.6117e-22)
(0.000561611 0.000996058 0)
(0.000545983 0.000948875 -4.25835e-22)
(0.000633668 0.00107869 1.34685e-21)
(0.000501357 0.000140031 5.28333e-22)
(0.000620448 0.00113981 3.86644e-24)
(0.000425765 0.000613421 0)
(0.0005422 0.000940028 0)
(0.000331666 0.00087904 0)
(0.00160482 0.000128797 0)
(0.000581896 0.00102559 -3.18007e-22)
(0.000499147 0.000581811 0)
(0.000364778 0.00118103 -8.83455e-24)
(0.000710067 0.00124708 -9.55755e-24)
(0.000655046 0.000797475 0)
(0.000563462 0.000957701 3.10139e-22)
(0.000523279 0.000891378 4.48939e-22)
(0.000271348 0.000481956 0)
(0.000623376 0.00104114 0)
(0.000622173 0.00126311 8.80889e-22)
(0.000499139 0.000114279 8.05754e-22)
(0.000423298 0.00104779 -1.00974e-21)
(0.000591312 0.00131961 0)
(0.000690498 0.00094298 1.49211e-23)
(0.000715009 0.00124553 1.73709e-22)
(0.000597001 0.00100907 7.85989e-24)
(0.000633196 0.00108369 2.23951e-22)
(0.000724161 0.001262 3.39789e-23)
(0.000546893 0.000917574 0)
(0.000571985 0.0010331 1.05967e-22)
(0.000548689 0.000951472 4.99742e-24)
(0.000324835 0.00161607 -3.953e-23)
(0.000996588 0.000417613 -8.64049e-22)
(0.000555972 0.00107762 6.25935e-24)
(0.000911671 0.000396538 0)
(0.000226691 0.000589296 7.76503e-22)
(0.000572436 0.00102955 -7.36218e-23)
(0.000619035 0.00106121 -2.38487e-22)
(0.000600727 0.000695666 -6.56281e-22)
(0.000791076 0.000741715 3.52163e-22)
(0.000154858 0.000737431 -6.69228e-22)
(0.000776872 0.00141817 -4.50098e-22)
(0.000968906 0.00151547 4.20532e-22)
(0.000544688 0.000963367 0)
(0.000515994 0.000934931 1.03004e-23)
(0.000815435 7.5135e-05 -9.18996e-23)
(0.000694677 0.00124408 3.00578e-22)
(0.00050732 0.000929854 -3.24643e-23)
(0.000209011 0.000617956 1.0976e-22)
(0.000462226 0.000992042 0)
(0.000549909 0.000947967 -9.84944e-24)
(0.000444621 0.000708825 -2.66331e-23)
(0.000566614 0.00103081 -5.30986e-23)
(0.000610782 0.00110863 -7.49443e-22)
(0.000609262 0.00104338 0)
(0.000651737 0.00110817 -4.40641e-22)
(0.000734713 0.00124676 0)
(0.000793595 0.00141053 -5.45909e-22)
(0.00048567 0.000708367 -4.35748e-24)
(0.00092919 0.000899903 -6.52382e-22)
(0.000507848 0.000897857 0)
(0.000629358 0.00114012 0)
(0.000648426 0.00112912 -5.99656e-22)
(0.000687579 0.00123944 -2.04726e-22)
(0.000532817 0.000918982 8.87227e-22)
(0.000693081 0.0012389 -2.50635e-22)
(0.00053401 0.00093474 -3.8847e-22)
(0.00068995 0.00119819 3.54407e-22)
(0.000703648 0.00121528 -7.59694e-22)
(0.000278598 0.000612345 -6.43935e-23)
(0.00034924 0.000620774 5.23648e-22)
(0.000428416 0.000568688 1.28379e-21)
(0.00059854 0.00103379 0)
(0.000586969 0.00110015 5.35618e-22)
(0.000986441 0.000172757 -7.14123e-22)
(0.000672002 0.00111957 -1.40658e-22)
(0.000697255 0.00124967 2.03974e-22)
(0.000312478 0.000775521 5.72444e-22)
(0.000536546 0.000900137 5.1401e-23)
(3.10211e-05 -1.36836e-05 -2.73289e-24)
(0.000521077 0.000912033 1.12052e-21)
(0.000852642 0.0008585 2.99486e-22)
(0.000277776 0.000674551 -5.25847e-22)
(0.000559366 0.000736628 0)
(0.00102652 0.000410306 6.50992e-22)
(0.000343791 0.000605556 -3.47109e-22)
(0.000573516 0.00100883 0)
(0.000525266 0.00102243 -5.83031e-22)
(0.000958107 6.79473e-05 3.10532e-22)
(0.000550733 0.000952486 -2.30471e-22)
(0.000885162 4.2443e-05 -1.65404e-22)
(0.000442181 0.000827099 -4.58135e-22)
(0.000544465 0.000936997 -8.20692e-22)
(0.000504303 0.000223579 -5.7667e-22)
(0.000508813 0.00092956 -5.65478e-22)
(0.000668688 0.00114145 -3.18576e-22)
(0.000357041 0.000864963 -8.72904e-22)
(0.000720116 0.00123665 -1.05477e-22)
(0.00062283 0.00108928 -1.63425e-22)
(0.000557127 0.000958036 4.3726e-22)
(0.000715505 0.00124787 -1.3451e-22)
(0.000469733 0.00104179 -9.083e-22)
(0.000735588 0.00122978 -1.83851e-22)
(0.000592473 0.00116505 0)
(0.000443193 0.00076574 1.6881e-23)
(0.000800484 0.00139636 1.74183e-23)
(0.000583465 0.00102662 1.74715e-22)
(0.000515467 0.000915349 1.40352e-22)
(0.000426369 0.00120999 5.58544e-22)
(0.000519805 0.000900197 0)
(0.000565217 0.000988496 5.50097e-22)
(0.000509937 0.000880373 -1.91852e-22)
(0.000768048 0.00146694 3.31323e-23)
(0.000571641 0.00101691 -1.01033e-23)
(0.000475102 0.000519738 9.88385e-22)
(0.000535332 0.000920975 0)
(0.000622961 0.000461032 6.48902e-22)
(0.000851617 0.00101672 1.58008e-21)
(0.000654957 0.00122491 0)
(0.00038189 0.000244464 -6.26596e-22)
(4.86952e-05 0.000614563 0)
(0.000517285 0.000902973 1.05027e-22)
(0.00112051 0.000371394 -1.33931e-21)
(0.000591063 0.00100221 5.35796e-24)
(0.000498609 0.000865705 4.16043e-22)
(0.00074371 0.00126961 -3.64665e-22)
(0.000517911 0.000928378 0)
(0.000945617 0.000858206 9.70139e-22)
(0.000452662 0.00133783 2.88254e-23)
(0.000296285 0.000511737 2.97005e-22)
(0.000713696 0.00124812 -2.13853e-22)
(0.000554681 0.000943901 7.91654e-24)
(0.00054867 0.000927126 -3.9539e-22)
(0.00071394 0.00125149 -2.25622e-22)
(0.000714956 0.000587925 1.20651e-23)
(0.000623941 0.00109217 -3.61284e-22)
(0.000691827 0.00122792 -3.43546e-22)
(0.000766481 0.000352943 1.37656e-21)
(0.000716481 0.00124029 -1.17418e-21)
(0.000542724 0.000985549 -1.65835e-22)
(0.000523396 0.000938336 -2.21735e-22)
(0.000399664 0.000244064 0)
(0.000357662 0.000580393 7.92756e-22)
(2.13327e-05 -1.2083e-05 2.29843e-24)
(0.00102533 0.00142566 -1.21722e-21)
(0.000808951 0.00140427 0)
(0.000637448 0.00109397 1.3785e-22)
(0.000574757 0.0010324 2.33344e-22)
(0.000584561 0.00111027 -2.04694e-22)
(0.000698274 0.00149654 -3.15272e-23)
(0.000442965 0.000871593 0)
(0.000886678 0.00140019 -5.92314e-22)
(0.000330627 0.000555564 4.44403e-22)
(0.000430978 0.000824535 2.12836e-22)
(0.00045776 0.00098277 -4.32285e-23)
(0.000679225 0.00118789 9.50568e-22)
(0.000564168 0.000990032 1.68869e-22)
(0.000360205 0.000658205 1.70829e-22)
(0.00042455 0.000937551 9.85487e-22)
(0.00093066 0.000115171 -1.03579e-21)
(0.000723693 0.00125443 -9.4808e-22)
(0.000469487 0.000292587 4.20403e-22)
(0.000682672 0.00125452 2.49781e-23)
(0.000702661 0.00124224 1.93068e-22)
(0.000982032 6.16336e-05 0)
(0.000946356 9.29929e-05 2.58702e-23)
(0.000777989 0.00141419 1.26369e-22)
(0.000583239 0.00111535 9.33837e-23)
(0.000547029 0.000943415 -5.9904e-25)
(0.00069678 0.000102652 -1.74542e-21)
(0.000569525 0.000992042 2.54942e-22)
(0.00044808 0.000980003 9.05248e-22)
(0.000588935 0.000877159 5.62891e-22)
(0.000733912 0.00132102 -5.42213e-23)
(1.61275e-05 -2.11281e-05 8.60477e-24)
(0.000808157 0.000896388 4.44851e-22)
(0.000703612 0.00125083 -1.48885e-22)
(0.000582828 0.00103442 -5.4968e-23)
(0.000220552 0.000813437 1.21565e-24)
(0.00103654 0.000154877 0)
(0.000225635 0.000985651 1.40733e-23)
(0.00053925 0.000905033 0)
(0.000496679 0.000881837 1.69339e-22)
(0.00100919 0.000191543 0)
(0.000451511 0.000836505 -1.45677e-22)
(0.000267786 0.000756419 -7.85131e-22)
(0.000520438 0.000823442 3.92169e-22)
(0.000606356 0.00101693 5.45417e-22)
(0.000264928 0.000340927 2.02651e-21)
(0.000670838 0.00124471 -5.52985e-23)
(0.00054441 0.000965679 -5.67255e-22)
(0.000490394 0.000941236 6.52834e-22)
(0.00054194 0.00102736 3.83374e-22)
(0.000601613 0.00115251 0)
(0.000324965 0.00054924 -2.13488e-22)
(0.00065769 0.00113629 4.25593e-22)
(0.000799837 0.00141598 8.18543e-22)
(0.000713984 0.00125347 0)
(0.000102918 -8.766e-05 1.38693e-21)
(0.000291871 0.000509122 0)
(0.000658522 0.00109868 9.98091e-22)
(0.000534132 0.000891249 3.97173e-22)
(0.000572619 0.00107352 6.31486e-23)
(0.000714994 0.00125235 -2.65713e-22)
(0.000307105 0.000890494 3.91796e-22)
(0.000329381 0.000706652 -2.47992e-22)
(0.000587259 0.00107505 0)
(0.00064742 0.00107668 1.71261e-22)
(3.34991e-05 0.000802448 0)
(0.000252641 0.00080825 -3.51573e-22)
(0.00135467 0.000226542 0)
(0.000676969 0.00129333 -2.05109e-22)
(0.000756836 0.000106431 3.66094e-23)
(0.00067076 0.00118506 5.05897e-22)
(0.000722912 0.0012533 -1.42436e-22)
(0.000289634 0.000857518 4.47466e-22)
(0.00071634 0.00126806 -1.40621e-22)
(0.000652531 0.00108264 -1.70564e-22)
(4.46718e-05 0.000185187 4.84728e-22)
(0.000533615 0.0010642 6.43625e-24)
(0.000703008 0.00116515 -4.67884e-22)
(0.000542376 0.00093178 -3.0013e-22)
(0.000618359 0.00109773 0)
(0.000554997 0.00102741 0)
(0.000521468 0.000882756 -8.53819e-22)
(0.000520569 0.00100407 0)
(0.000337319 0.000551926 -6.75615e-22)
(0.00058459 0.00103873 -1.84977e-22)
(0.000572515 0.00106289 -3.19761e-23)
(0.000474391 0.000808157 2.81622e-22)
(0.000807455 0.00139736 -5.41879e-23)
(0.000345192 0.000642239 8.41912e-22)
(0.000543599 0.00094367 0)
(0.000488912 0.00106076 -2.97069e-22)
(0.000542924 0.000890225 3.37666e-23)
(0.000135363 0.000160882 0)
(0.000608396 0.00117395 7.11745e-23)
(0.000540024 0.000960697 3.31947e-24)
(0.000731757 3.85295e-05 2.79761e-24)
(0.000333297 0.000921084 5.70559e-24)
(3.40725e-05 1.37212e-07 9.13554e-22)
(0.00030335 0.000944382 3.66365e-22)
(0.000619161 0.00119031 -2.34182e-22)
(0.000743371 0.00139318 -6.43804e-22)
(0.000469704 0.000855464 -6.52654e-22)
(0.000571203 0.000974745 -3.76518e-23)
(0.00048331 0.000990257 0)
(0.000978916 0.000757914 5.52938e-22)
(-0.000163715 0.00104981 -4.19832e-22)
(0.000634218 0.00126454 0)
(0.000302257 0.000895029 -9.09159e-22)
(0.000489393 0.000512973 6.9012e-22)
(0.000581867 0.00104475 0)
(0.000650619 0.00108342 3.76432e-22)
(0.000636147 0.00114031 -6.05626e-23)
(0.000313817 0.000353094 -2.139e-21)
(0.000435331 0.000432266 -1.46151e-22)
(0.000575755 0.00100767 -3.51684e-22)
(0.000387279 0.000885532 3.42196e-22)
(0.000578307 0.00101061 -1.99087e-22)
(0.000637511 0.00114221 -1.49171e-22)
(0.00059295 0.00107707 0)
(0.000752318 0.00123161 -4.15512e-24)
(0.000334053 0.000959651 0)
(0.000644505 0.00113746 4.30348e-24)
(0.00062989 0.00105987 1.65219e-22)
(0.000579993 0.00103486 -2.66408e-22)
(0.000782685 0.00141365 4.44019e-22)
(0.000295737 0.000513376 2.11563e-22)
(4.48219e-05 -5.49955e-07 3.47137e-23)
(0.000430474 0.00115927 -5.05608e-22)
(0.000543706 0.000910959 3.69554e-22)
(0.000740568 0.00124567 4.24163e-24)
(0.000735252 0.00154747 0)
(1.98027e-05 -3.07357e-05 -5.85412e-22)
(0.000481382 0.000834612 -7.85146e-22)
(0.000641581 0.00120507 0)
(0.000582854 0.000826414 -4.41711e-22)
(0.000508795 0.000965849 0)
(0.000354548 0.00083986 7.58024e-22)
(0.000637834 0.00110623 3.74801e-22)
(0.000843227 0.00113801 -4.42389e-22)
(0.000585956 0.00099504 0)
(0.000804872 0.00141484 6.34781e-22)
(0.000655593 0.00109153 1.74816e-22)
(0.000526507 0.000988432 2.78841e-22)
(0.000548854 0.000933397 -4.75702e-22)
(0.000553558 0.00104906 -2.20883e-22)
(0.000747891 0.00126372 1.83625e-22)
(0.000232092 0.000856915 -1.41739e-21)
(0.000260028 0.000857587 -4.14645e-22)
(0.000469727 0.000869365 -4.2342e-22)
(0.000731077 0.000110349 -3.3723e-22)
(0.000643821 0.000490745 1.71898e-21)
(0.000907838 0.000207664 -1.48005e-22)
(0.00058253 0.00101541 -5.77717e-24)
(0.000383479 0.000552422 -7.50865e-22)
(0.000856318 0.000479441 1.27771e-21)
(0.000722761 0.00125046 -3.99757e-22)
(0.000524033 0.000898004 0)
(0.000541295 0.000980192 6.59877e-22)
(0.000328445 0.000853826 0)
(0.000705084 0.00121552 -3.14857e-22)
(0.000674687 0.00121794 -3.9637e-24)
(0.000647841 0.000639795 -9.23099e-22)
(0.000472458 0.000909084 4.91632e-22)
(0.000655944 0.000720966 -8.41616e-22)
(0.000480053 0.000960625 -3.16949e-22)
(0.000413522 0.000501133 2.09761e-22)
(0.00062948 0.000661812 6.56024e-22)
(0.000812292 0.00139946 1.78007e-23)
(0.000596446 0.000983986 1.73854e-23)
(0.000523211 0.00115084 0)
(0.000379083 0.000947098 6.18412e-22)
(0.000593053 0.00107111 -1.06535e-21)
(0.00040134 0.00100027 -7.03387e-22)
(0.000643651 0.000735548 9.98582e-22)
(0.000212046 0.00047109 4.31498e-22)
(0.000565267 0.00133461 -2.80023e-22)
(0.000382201 0.000185267 0)
(0.000634432 0.000803339 -2.61198e-21)
(2.09479e-05 2.73154e-05 -4.3863e-22)
(0.000404184 0.00067225 -1.40026e-22)
(0.000584852 0.00107636 -1.56468e-21)
(0.000551581 0.00104146 2.15526e-21)
(0.000411047 0.000797963 0)
(0.000449737 0.000912669 -1.16866e-21)
(0.000564061 0.00134753 -4.71281e-23)
(0.000645613 0.00123662 6.99803e-24)
(2.52434e-05 0.000742858 0)
(0.000666869 0.000681625 -2.42886e-21)
(0.000644058 0.00115827 -1.42639e-22)
(0.000758973 0.00152656 -5.71533e-24)
(0.000609249 0.00070863 -6.99826e-22)
(0.00054739 0.000993567 -8.13639e-22)
(0.000517745 0.00104821 -4.75811e-22)
(0.000540835 0.000940684 -4.53934e-24)
(0.000555233 0.000999451 -5.13038e-25)
(0.000611971 5.49502e-05 -1.61635e-22)
(0.000275151 0.000739641 -1.11697e-21)
(0.000651028 0.00110653 -4.43338e-22)
(0.00053963 0.000948508 -1.08375e-23)
(0.000562797 0.000982127 -1.99374e-22)
(0.000554544 0.0010717 -7.09653e-23)
(0.00057923 0.00103554 0)
(0.000780405 0.000237591 9.92676e-22)
(0.000579213 0.00100543 -4.16368e-22)
(0.000618384 0.000427674 5.59572e-22)
(0.000645644 0.001138 1.29333e-21)
(0.000752496 0.000896773 0)
(0.00109048 0.000366199 6.41061e-22)
(0.000557899 0.00103621 3.74088e-25)
(5.24603e-05 9.97627e-05 -5.61586e-22)
(0.000629267 0.00103718 0)
(0.000254439 0.000544132 5.22815e-22)
(0.000761238 0.00140242 -7.6618e-22)
(0.000608206 0.00105403 0)
(0.000577444 0.00104245 0)
(0.000733536 0.00134941 0)
(0.000892674 0.000368094 -5.96367e-22)
(0.000461746 0.00101511 0)
(0.000506767 0.0007125 -1.73127e-21)
(0.000388001 0.000958135 -2.0886e-21)
(0.00126163 0.00133395 -7.20311e-22)
(0.000638629 0.00107131 -1.64618e-22)
(0.00071718 0.00126426 -8.23049e-25)
(0.000527882 0.000887784 5.33653e-22)
(0.000554174 0.000351754 -4.11347e-22)
(0.000692632 0.00121449 0)
(0.000504723 0.000688359 -5.54231e-22)
(0.000548513 0.000704439 7.48618e-22)
(3.32678e-05 -1.19487e-05 0)
(0.000546591 0.00103704 -2.02668e-22)
(0.000540274 0.000918158 1.74769e-22)
(0.000356144 0.000791092 0)
(0.000811893 0.000198931 4.17259e-22)
(0.000657124 0.00118316 0)
(0.00040634 0.000934428 2.74561e-22)
(0.000791066 0.00140569 9.69831e-22)
(0.000483381 0.000951209 -9.34449e-22)
(0.000590732 0.00113376 -5.93771e-23)
(0.000395606 0.0010025 -1.37543e-21)
(0.000487863 0.000577704 -1.53199e-21)
(0.000616853 0.000762005 -4.00248e-25)
(0.000435259 0.00106343 1.06187e-22)
(0.000642211 0.00104956 7.83001e-23)
(0.000566032 0.000366671 8.31652e-22)
(0.000682078 0.000878161 -2.19047e-21)
(0.00040176 0.000669882 0)
(0.000666044 0.00121161 5.06577e-22)
(0.000565113 0.000987366 -1.98873e-21)
(0.000420869 0.000937847 0)
(0.000878797 0.000344136 1.3462e-21)
(0.000583381 0.00103965 0)
(0.000760437 0.00138526 -1.05076e-22)
(0.000809324 0.00140762 -5.288e-22)
(0.000756849 0.00140456 4.29701e-22)
(0.00079176 0.00140695 -6.86063e-22)
(0.000665789 0.00124251 -1.66158e-22)
(0.000458096 0.000237221 4.60571e-25)
(0.000499912 0.000433827 -1.12456e-21)
(0.000590135 0.000246613 0)
(0.000578201 0.00109043 1.00223e-21)
(0.000888475 8.54567e-05 -3.74338e-22)
(0.000646101 0.0011264 0)
(0.000633432 0.00118382 0)
(0.000206758 0.000404799 4.39553e-22)
(0.000607394 0.00124363 0)
(0.000614173 0.00116414 -2.29347e-21)
(0.000489725 0.00107573 4.61784e-22)
(0.000795281 0.00139862 6.32444e-22)
(0.000263256 -1.4714e-05 -4.5822e-22)
(0.000545694 0.000823298 -7.54825e-22)
(0.00010967 0.000521438 -5.86569e-22)
(0.000868012 0.00122842 -1.72224e-21)
(0.000563138 0.000987977 -1.78693e-22)
(0.000667105 0.00107021 1.29338e-21)
(0.000652909 0.00114406 -1.03149e-22)
(0.00066786 0.000169852 3.81431e-24)
(0.00081236 0.00139281 5.30699e-22)
(0.000601398 0.00107501 1.92873e-22)
(0.000655177 0.00114138 5.09707e-23)
(6.57851e-05 0.000509737 0)
(0.000599899 0.00108239 0)
(0.000537865 0.00101551 -1.20727e-21)
(0.000619477 0.00111424 4.0529e-23)
(0.000554411 0.00101859 -1.03625e-21)
(0.000579995 0.00100009 -2.54101e-24)
(0.000558846 0.00102558 0)
(0.000612672 0.000795113 -5.42995e-22)
(0.000792742 -5.5176e-05 -1.64705e-21)
(0.000579446 0.000407371 0)
(0.000574021 0.00102572 6.08841e-23)
(0.000570166 0.000991351 -3.70407e-23)
(0.000683034 0.000553164 1.52229e-21)
(0.000566519 0.00102537 6.59349e-25)
(0.000761557 0.00136463 -7.51787e-24)
(0.000492475 0.00102961 -3.8901e-22)
(0.000663251 0.00121319 -9.16237e-23)
(0.00062818 0.00120141 -6.27649e-23)
(0.000691248 0.00119452 0)
(0.000424814 0.00132328 1.18686e-21)
(0.000634526 0.0011112 8.87468e-22)
(0.000552027 0.00114983 -6.31628e-22)
(0.000350188 -4.6995e-05 4.60021e-26)
(0.000614186 0.00116082 -4.86953e-22)
(0.000432301 0.00089112 1.14604e-21)
(0.000371778 0.000154645 6.52608e-22)
(0.000653403 0.00114711 0)
(0.000592087 0.00103513 8.61737e-22)
(0.000341705 0.000752002 -1.86212e-22)
(0.00115805 -2.0861e-05 5.30199e-22)
(0.000302989 0.000784787 6.05748e-22)
(0.00072823 0.00124636 1.12812e-22)
(0.000653182 0.00114839 -5.17327e-22)
(0.000565573 0.00100894 -6.65147e-22)
(0.00057977 0.000937402 1.78116e-21)
(0.000807013 0.00140661 4.0364e-22)
(0.000596201 0.000222753 -1.27259e-21)
(0.000571764 0.000180341 1.46399e-21)
(0.000625385 0.000117229 -1.51465e-21)
(0.00077786 0.00135804 2.64395e-23)
(0.000415663 0.00091535 -2.26687e-21)
(0.000650459 5.36388e-05 7.94632e-22)
(0.000622439 0.00120571 0)
(0.000805972 0.00140764 -4.10892e-22)
(0.000601477 0.0010334 7.92557e-22)
(0.000325132 0.000815457 -2.0352e-22)
(0.000258714 0.000390325 -1.04017e-22)
(0.000555061 0.00103119 6.29445e-24)
(0.000604773 0.00111196 1.9501e-22)
(0.000605946 0.00105772 -4.39174e-22)
(0.000565165 0.0010504 0)
(0.000526033 0.00090081 -7.5833e-22)
(0.000680564 -5.02862e-06 8.29678e-22)
(0.000591866 0.00110869 -4.98595e-22)
(0.000693902 0.00121989 4.79141e-22)
(0.000926591 0.00136067 -4.04304e-23)
(0.000587224 0.000241301 0)
(0.000426227 0.000141659 -5.93254e-22)
(0.000648847 0.00111003 -5.97391e-24)
(0.000653777 0.00114921 -5.4481e-22)
(0.000577382 0.0010679 2.86798e-23)
(2.02544e-05 1.63182e-05 1.2424e-22)
(0.000648642 0.0011406 1.10021e-22)
(0.000453189 0.000784185 -9.3117e-22)
(0.00082102 5.01215e-05 7.7986e-22)
(0.00066231 0.000135184 7.74805e-22)
(0.000748781 0.0013929 -1.67172e-23)
(0.000607864 0.00123339 0)
(0.00038695 0.00065671 -7.91796e-22)
(0.000311485 0.000566706 0)
(7.18501e-05 -3.94172e-06 6.56455e-22)
(0.00065034 0.00114225 -3.40843e-22)
(0.000748919 7.46731e-05 -9.24808e-22)
(0.000646521 0.00113762 -4.38021e-22)
(0.000526995 0.00108197 4.84173e-22)
(0.000501887 0.000971806 5.34736e-22)
(0.000737919 0.00124592 -4.38103e-22)
(5.57082e-05 0.000139866 2.11169e-21)
(0.000790341 0.00140055 1.70964e-22)
(0.000911117 7.8493e-05 0)
(0.000554403 0.00104763 8.36246e-23)
(0.000457638 0.000695184 -4.15961e-24)
(0.000589622 0.00102921 0)
(0.000581688 0.000450457 -2.23787e-21)
(0.000876295 2.45622e-06 0)
(0.000655117 0.00114156 9.78203e-23)
(0.000571876 0.00103821 6.18077e-22)
(0.000675951 0.00120539 -1.47791e-21)
(0.000630599 0.0011194 -1.31272e-22)
(0.000826017 0.000154408 -9.01859e-23)
(0.000588308 0.00103112 0)
(4.29076e-05 0.000348175 -1.3374e-22)
(0.000800849 0.00140915 0)
(0.000176814 0.000357561 0)
(4.2059e-05 0.00075962 -3.20951e-22)
(0.000536184 0.00109427 -8.65956e-22)
(0.000642474 0.000184603 -6.95594e-22)
(0.000645626 0.00110994 8.79307e-22)
(0.000455869 0.000956239 1.39193e-22)
(0.000747012 0.00120273 -9.97931e-22)
(0.000525432 0.00129379 0)
(0.000610887 0.00107591 3.63611e-22)
(0.000792488 0.00139673 0)
(0.000805287 0.00141538 -7.12936e-24)
(0.000569932 0.00108279 1.07177e-21)
(0.000598703 0.00102558 8.91197e-23)
(0.000560695 0.000667119 1.86299e-21)
(0.000471781 0.000414412 1.17872e-21)
(0.00050727 0.0010243 0)
(0.000612267 0.00107596 -1.1343e-22)
(0.000797988 0.00139834 0)
(0.000586935 0.00102272 0)
(0.000580585 0.00110721 -1.14894e-21)
(0.00098859 0.00016224 6.4132e-22)
(0.000547173 0.00122541 0)
(0.000202448 6.56804e-06 8.70204e-22)
(0.000531999 0.000991588 -7.0931e-23)
(2.49741e-05 0.000122677 1.01367e-21)
(0.000679806 0.000482689 -9.14539e-23)
(0.000704481 0.00119815 4.81285e-22)
(0.000824258 0.00113893 9.30912e-22)
(0.000693558 0.00109937 -4.71575e-22)
(0.000516031 0.00126904 0)
(0.000557268 0.00106319 5.42401e-22)
(2.72511e-05 0.000393178 3.43711e-23)
(0.000585498 0.00104033 -4.00913e-22)
(0.000541654 0.00106137 -2.52561e-22)
(0.00080606 0.00141029 -3.60513e-22)
(0.000794026 0.00139969 -1.05249e-24)
(0.000574848 0.00103883 0)
(0.000649641 0.00124281 4.80482e-22)
(0.000646404 0.00107511 -7.83216e-22)
(0.000613678 0.00107384 2.03532e-22)
(0.000886717 0.000201667 4.65277e-22)
(0.000604613 0.0010749 7.45904e-22)
(0.0006152 0.00107029 0)
(0.000557154 0.00112341 0)
(0.000552878 0.00108299 4.97248e-22)
(0.00052215 0.000909121 -1.00337e-22)
(0.000577079 0.00100819 1.08375e-21)
(0.000650079 0.00114652 0)
(0.000525931 0.00090046 4.21895e-22)
(0.0010334 0.000378507 8.42881e-24)
(0.000645675 0.00116153 2.52225e-22)
(0.000596878 0.00104196 -7.55168e-22)
(0.00060703 0.000674789 5.40862e-22)
(0.000639829 0.00113577 -7.69955e-22)
(0.000717311 0.00125098 4.53235e-25)
(0.000758566 4.6258e-05 -1.37533e-21)
(0.000582969 0.00118154 1.82664e-22)
(0.000253742 0.000947361 0)
(0.000618393 0.00108604 -1.03028e-21)
(0.000436744 0.00096707 6.17321e-25)
(0.000416508 0.00130994 0)
(0.000339631 0.000900195 6.8714e-22)
(0.00063432 0.0011316 -9.75107e-22)
(3.51152e-05 -2.13718e-06 1.40935e-21)
(0.000241369 0.00134104 -8.10906e-22)
(0.000647824 0.00115191 -5.10125e-22)
(0.000658334 0.000432517 4.24327e-22)
(0.000581651 0.00103691 3.6571e-22)
(0.000581762 -0.000431824 -9.5445e-23)
(0.000852296 8.48345e-05 0)
(5.91903e-05 -1.50146e-06 0)
(0.000574412 0.00103827 -1.29154e-21)
(4.07883e-06 2.21261e-05 6.74369e-23)
(0.000641058 0.00113497 8.47326e-22)
(0.000577878 0.00102583 9.83723e-23)
(0.000580404 0.00105454 8.85222e-23)
(0.000637163 0.00112317 1.54991e-22)
(0.000546455 0.0011927 5.57527e-22)
(4.30642e-05 2.35157e-06 -1.52109e-22)
(0.000663847 0.00125487 -8.42384e-22)
(0.000617602 0.00107269 -1.50613e-22)
(0.000292088 5.44086e-05 0)
(0.000587599 0.00105335 4.22133e-22)
(5.06849e-05 -7.97433e-06 0)
(0.000650182 0.00110615 -8.77295e-22)
(5.96723e-06 -5.94094e-05 0)
(4.56263e-05 -6.31395e-06 0)
(0.000703344 0.00124373 2.84734e-22)
(0.000571741 0.00108107 4.41347e-22)
(0.000383412 0.000598675 -1.75572e-22)
(0.000580077 0.00103241 -6.86246e-22)
(0.000614339 0.00107149 -6.18217e-22)
(0.000651994 0.001134 -4.25528e-22)
(3.87648e-05 0.000218183 -2.63523e-22)
(0.000900403 9.02916e-05 0)
(0.000805858 0.00140775 0)
(0.000645093 0.00132351 -4.86481e-22)
(0.000613135 0.00107474 5.55157e-22)
(0.000647673 0.00114079 0)
(0.000595879 0.00103604 -1.47628e-21)
(0.000597654 0.00102161 -1.61358e-21)
(0.000628945 0.00121083 0)
(0.000589972 0.00102888 0)
(0.000589704 0.00105949 -1.92937e-22)
(0.000405027 0.000301597 4.46519e-22)
(0.000531927 0.000818736 -4.67118e-25)
(0.000611998 0.00107583 -1.27427e-22)
(0.000681246 0.00125499 2.01892e-22)
(0.000611954 0.00107642 6.01554e-22)
(0.000598677 0.0010784 -6.25117e-22)
(0.000797998 0.0014008 -1.16214e-21)
(0.000588018 0.00103803 3.96825e-23)
(0.000629853 0.000361913 -2.33783e-21)
(0.000631262 0.00118549 -6.64197e-24)
(0.000617258 0.00107417 -1.73869e-22)
(0.000668773 0.00122012 -3.24426e-24)
(4.904e-05 7.86308e-06 -3.07158e-23)
(1.80712e-05 9.6771e-05 -9.98531e-22)
(0.000582675 0.0010354 6.7921e-22)
(0.000617737 0.00109747 -6.35935e-22)
(0.000836707 0.000798437 0)
(0.00059129 0.0010348 7.35497e-22)
(0.000627214 0.0012309 -3.06913e-23)
(0.000677591 0.00125346 -5.51999e-23)
(0.00052806 0.00114313 -1.29539e-21)
(1.56851e-05 8.04235e-05 -3.93317e-22)
(0.000682875 0.00126782 0)
(0.000652629 0.00115374 0)
(0.000608277 0.00107592 4.94007e-22)
(-3.46514e-06 3.86428e-05 1.21394e-24)
(0.000526423 0.00110425 0)
(0.000802753 0.00140033 4.83125e-22)
(0.000597535 0.00103326 7.9222e-22)
(5.92296e-05 0.000238165 0)
(0.000669211 0.001205 0)
(4.79745e-05 1.17689e-05 2.99185e-23)
(0.000601604 0.00105071 1.40663e-21)
(0.000376765 0.0010443 7.1043e-22)
(0.000816211 0.00140088 3.1192e-22)
(0.000622972 0.0011323 -2.45799e-22)
(0.00058255 0.00103114 -1.66734e-22)
(0.000618367 0.00107265 0)
(0.000578884 0.00109408 -5.27224e-22)
(0.000657247 0.00114168 0)
(5.31558e-05 -2.20844e-05 -5.66264e-22)
(0.000794023 0.00139973 -1.48456e-21)
(0.000812463 0.0014077 8.10914e-22)
(1.75352e-05 0.000120657 1.61953e-21)
(5.73857e-05 -1.09341e-05 0)
(0.000801991 0.00139234 3.97875e-22)
(0.000660514 0.00123864 -2.48625e-25)
(0.000586623 0.00107983 6.38547e-23)
(0.000600975 0.00105151 -2.72698e-22)
(0.000607578 0.00113426 7.15769e-23)
(0.000595959 0.0010552 -1.06398e-21)
(0.000616456 0.00110966 -5.24272e-22)
(0.000506685 0.00122184 5.45723e-24)
(0.000652862 0.00114447 4.66967e-22)
(0.000588438 0.00103011 -1.01775e-22)
(6.2042e-05 0.000281538 0)
(2.85383e-05 2.0066e-05 2.34849e-22)
(0.000728274 0.00126156 -4.41804e-22)
(0.000910096 9.47147e-05 2.48454e-22)