/*--------------------------------*- C++ -*----------------------------------*\
  =========                 |
  \\      /  F ield         | OpenFOAM: The Open Source CFD Toolbox
   \\    /   O peration     | Website:  https://openfoam.org
    \\  /    A nd           | Version:  7
     \\/     M anipulation  |
\*---------------------------------------------------------------------------*/
FoamFile
{
    version     2.0;
    format      ascii;
    class       volScalarField;
    location    "79";
    object      p;
}
// * * * * * * * * * * * * * * * * * * * * * * * * * * * * * * * * * * * * * //

dimensions      [0 2 -2 0 0 0 0];

internalField   nonuniform List<scalar> 
591
(
0.000123859
0.000123876
0.000123879
0.000123831
0.000123834
0.000123904
0.000123897
0.000123867
0.00011697
0.000123886
0.000124068
0.000122809
0.000123873
0.000119707
0.000123868
0.000123913
0.000123854
0.000123912
0.000121934
0.000123247
0.000123849
-3.52642e-06
0.000124064
0.000123851
0.000124021
0.000123873
0.000123978
0.000123982
0.000123886
0.000123893
0.000124041
0.000124016
0.000124036
0.000124035
0.000124037
0.00012336
0.000124032
0.000123852
0.000124059
0.000123977
0.000123936
0.000124029
0.000123881
0.000123903
0.000124025
0.000124046
0.000119213
0.00012405
0.000123885
0.000124003
0.000123997
0.000124028
2.39386e-05
3.05834e-05
4.78333e-05
0.000123878
0.000124054
0.000124044
0.000124047
0.000123859
0.000123946
0.000123876
0.000123874
0.000123923
0.000122547
0.000123877
0.00012388
0.000124044
0.000120701
0.00012389
0.000123885
0.000124051
0.000124023
0.00012403
0.000124036
0.000124012
0.000123854
0.000124048
0.000123855
0.000123792
0.000123632
0.000124053
0.000124012
0.000123994
0.00012406
0.000123866
0.000123956
0.000124043
0.000124005
0.000123757
0.000124017
0.000123966
0.00012398
0.000123858
0.000124058
0.000124013
0.000123562
0.000123462
0.000123625
0.000124064
0.000123971
0.000123892
0.000124069
0.000123829
0.00012407
0.000123878
0.000123875
0.000124017
0.000124061
0.000124065
0.000123954
0.000124041
0.000123891
0.000124045
0.000124062
0.000124045
0.000123998
0.000123991
0.000123559
0.000123966
0.000123878
0.000123871
0.000123959
0.000123857
0.000124031
0.000120179
0.000124069
0.000124046
0.000123629
0.000124037
0.000123868
0.000123555
0.000124006
0.000124
0.00012404
0.000123883
0.000122607
0.000124067
0.00012387
0.000123555
0.000123621
0.000123966
0.00012405
0.00012406
0.000124054
7.61403e-06
3.67705e-06
2.07013e-06
3.8153e-05
3.66934e-05
5.65908e-06
3.83039e-05
1.57362e-05
3.72853e-05
1.78026e-05
0.000123877
0.000123869
0.000124057
0.00012405
0.000124057
0.000124056
0.000124048
0.000124044
0.000124056
0.000124055
0.00012402
0.000124057
0.000124053
0.00012406
0.000123999
0.000123372
0.00012406
0.000122102
0.000124042
0.00012404
0.000123989
0.000123887
0.00012404
0.000124054
0.000124053
0.000123469
0.000122451
0.000123028
0.000123422
0.000124044
0.000124051
0.000123958
0.000123848
0.000124046
0.000122947
0.000123278
0.000123849
0.000124038
0.000123734
0.000124032
0.00012405
0.000124024
0.000123703
0.000123839
0.000124048
0.000124054
0.000124052
0.000123851
0.000124035
0.000123847
0.000124062
0.000123871
0.00012387
0.000124059
0.000123664
0.00012384
0.000123881
0.000123519
0.000124011
0.000123665
0.000123953
0.000123966
0.00012404
0.000123433
0.000123942
0.000123833
0.000123833
0.000124013
0.000123774
0.000123927
0.000123842
0.000123754
0.000123826
0.000124063
0.000123819
0.00012406
0.00012391
0.000124038
0.000123884
0.000123885
0.000124065
0.000123775
0.000124052
0.000123764
0.000123812
0.000123875
0.000123855
0.000123892
0.000123879
0.000123649
0.000123852
0.000123805
0.00012402
0.000123871
0.000123724
0.000124007
0.000123274
0.000123834
0.000123168
0.000123051
0.000123862
0.000123827
0.000123865
0.000123861
0.000123832
0.000124064
0.000123908
0.000123988
0.00012392
0.000123912
0.000123925
0.000124017
0.000123667
0.00012406
0.000123703
0.000123593
0.000123896
0.000124036
0.000123615
0.000124055
0.000123964
0.000123984
0.00012401
0.000123886
0.000123859
0.000123692
0.000123821
0.000123853
0.000123902
0.00012396
0.000124025
0.000124043
0.000124048
0.000123806
0.000123912
0.000124036
0.000124043
0.000124038
0.00012383
0.00012405
0.000123925
0.000124034
0.000123792
0.00012405
0.00012378
0.000124027
0.000123916
0.000123859
1.16377e-05
2.19069e-05
0.000123806
0.000123883
0.000124062
0.000123812
0.000124062
0.000123894
0.00012405
0.000124027
0.000123763
0.000124022
0.000123851
0.000124059
0.000123885
-2.09838e-07
0.000123752
0.000124033
0.000124028
0.000123723
0.000123875
0.000123917
0.000124022
0.00012378
0.000124044
0.000123928
0.000123878
0.00012402
0.000123827
0.000123754
0.000123788
0.000123887
4.74688e-05
0.000124039
0.00012402
0.000123877
0.000124045
0.000123956
0.000123899
0.000123881
0.000123867
0.000124031
0.000123894
0.0001238
0.000123927
0.000123805
0.000124044
0.000123812
0.000123869
0.000123905
0.00012399
1.98672e-05
2.73027e-05
3.42891e-05
9.63537e-06
0.000123852
3.30493e-05
2.60097e-05
0.000124041
1.90679e-05
1.70243e-05
3.81783e-05
7.57279e-06
3.99301e-05
5.60198e-06
4.08241e-05
3.68647e-06
4.28063e-05
1.87414e-06
3.63982e-05
2.31883e-05
2.94369e-05
1.49871e-05
0.000123734
0.000124052
0.00012392
0.000123927
0.000120876
0.000123971
0.000124047
0.000124017
0.000123818
0.000124053
0.000124055
0.000124033
0.00012403
0.000123794
0.000123868
0.000124039
0.000124045
0.000123882
0.00012375
0.000123824
0.000123387
0.000123839
0.000124067
0.000124037
0.00012388
0.00012406
0.000123724
0.000123907
0.000123683
0.000122837
0.000124031
0.000124043
0.000124066
0.000123737
0.000123925
0.000123682
0.000123893
0.000123883
2.60449e-05
2.18715e-05
3.3029e-05
1.16137e-05
0.00012407
0.00012373
1.98139e-05
2.82516e-05
3.55955e-05
9.58411e-06
0.000123887
0.00012398
0.000123836
0.000123846
0.000123869
0.000124005
0.000123797
0.000124027
0.00012397
0.00012308
0.000123849
0.000123816
5.93525e-05
0.000123205
0.000124058
0.000123862
0.000123756
0.000124046
0.000124049
0.000123843
0.000123644
0.000123873
0.000123931
0.000123726
0.000124003
0.000122885
0.000123805
0.000123824
0.000124013
0.000100864
0.000123861
0.000123466
0.000123791
0.000124058
0.000123692
1.08916e-05
2.11075e-05
3.53605e-05
2.82013e-05
1.3657e-05
5.32157e-08
4.20723e-05
2.68775e-06
4.01504e-05
4.75929e-06
3.94091e-05
6.81148e-06
3.86166e-05
8.85357e-06
3.72827e-05
1.3669e-05
3.17208e-05
3.05848e-05
2.3934e-05
2.52556e-05
1.77597e-05
1.29335e-05
1.57023e-05
0.000124052
0.000102395
0.000123851
0.000123783
0.000124055
0.000123945
0.000124061
0.000123778
0.000123906
0.000124023
0.000124018
0.000124025
0.000123778
0.000123874
0.000123782
0.000123983
0.000123812
0.000124056
0.000123927
0.000123758
0.000123763
0.000123885
0.000123878
0.000124063
0.000124053
0.000124064
0.000124022
0.000124066
0.000123693
0.000123873
0.000124058
0.000123819
0.000123948
0.000123878
0.000123922
0.00012376
0.000124022
0.00012402
0.000123334
0.00012135
0.000123062
0.000123607
0.000123873
0.000123704
0.000123885
0.000124062
0.000124028
0.000123879
0.000123494
0.000123473
0.000124057
0.000124024
0.000123894
0.00012399
0.000123533
5.83061e-05
4.01126e-05
0.000123995
0.000124012
0.000123375
0.000122725
0.00012386
0.000123607
0.000123354
0.00012387
0.00012378
0.000124048
0.000123902
0.000123932
0.000118986
5.44679e-05
0.000123901
8.1231e-05
1.86071e-06
-3.81882e-07
0.000123869
0.000123838
0.000124023
0.000124065
0.000124055
0.000124056
0.000124058
0.000123855
-2.30789e-06
0.000122806
0.000123894
0.000124001
0.000121993
0.000124055
0.000124056
0.000122264
0.000123971
0.000124025
0.000121671
0.000124061
7.63313e-05
0.000124054
0.000123721
0.000124016
0.000122354
0.000123582
0.000123646
0.000123903
0.000124064
0.000124009
0.000124055
0.000124067
0.00012387
0.000116156
)
;

boundaryField
{
    back
    {
        type            empty;
    }
    ingreso
    {
        type            zeroGradient;
    }
    salida
    {
        type            fixedValue;
        value           uniform 0;
    }
    front
    {
        type            empty;
    }
    defaultFaces
    {
        type            zeroGradient;
    }
}


// ************************************************************************* //
