/*--------------------------------*- C++ -*----------------------------------*\
  =========                 |
  \\      /  F ield         | OpenFOAM: The Open Source CFD Toolbox
   \\    /   O peration     | Website:  https://openfoam.org
    \\  /    A nd           | Version:  7
     \\/     M anipulation  |
\*---------------------------------------------------------------------------*/
FoamFile
{
    version     2.0;
    format      ascii;
    class       volVectorField;
    location    "79";
    object      U;
}
// * * * * * * * * * * * * * * * * * * * * * * * * * * * * * * * * * * * * * //

dimensions      [0 1 -1 0 0 0 0];

internalField   nonuniform List<vector> 
591
(
(0.000832204 -1.84746e-05 1.21739e-18)
(0.000824051 -1.75602e-05 -6.6345e-19)
(0.000856862 1.81276e-06 5.7117e-20)
(0.000862478 -1.55161e-05 -1.49076e-19)
(0.000847599 -1.68218e-06 2.25529e-19)
(0.00080293 -4.02418e-05 -1.39601e-19)
(0.000564314 -0.000268543 8.06204e-19)
(0.000803791 4.47286e-06 2.09431e-18)
(0.00573223 0.00250563 9.87837e-19)
(0.000804609 -9.95574e-06 2.452e-18)
(4.79064e-05 0.00016659 1.21811e-18)
(0.000935009 0.00138304 9.40714e-21)
(0.000800159 4.43261e-06 1.32503e-18)
(0.00159967 0.0023977 -7.87456e-19)
(0.000803415 1.96947e-06 -4.45163e-19)
(5.6082e-05 -0.000185431 2.27127e-22)
(0.000138317 0.000675686 7.04869e-19)
(0.000818176 7.19942e-05 -4.977e-19)
(0.00191608 0.000393708 4.73876e-19)
(0.0013596 0.000252848 -2.47074e-19)
(0.000833049 -7.06521e-06 3.73169e-19)
(0.00340003 0.00655944 -8.15287e-20)
(2.58349e-05 6.79701e-05 2.70911e-19)
(0.000835851 -1.99115e-05 -4.51295e-19)
(9.41258e-06 -1.42759e-05 3.58878e-19)
(0.000779856 3.60999e-05 0)
(9.37147e-05 0.000471849 1.59947e-19)
(0.000554052 6.10681e-06 -1.78815e-19)
(0.000757266 4.69068e-05 1.14934e-18)
(0.000809603 5.88811e-05 5.87366e-19)
(5.45972e-05 -4.34528e-06 -4.70148e-24)
(2.87439e-05 -4.38875e-05 3.52128e-19)
(3.36263e-05 -2.87693e-06 -4.6416e-20)
(4.26752e-05 -1.20738e-05 0)
(5.17042e-05 -1.3029e-05 1.1313e-18)
(0.00117387 0.000134581 1.799e-19)
(2.85304e-05 -4.93517e-06 4.47083e-20)
(0.000825712 2.41612e-06 3.12201e-23)
(2.57149e-05 4.18078e-05 2.65993e-19)
(5.43857e-06 -8.69903e-05 -8.54688e-19)
(0.000647248 -0.000202172 9.59518e-19)
(2.26351e-05 -6.07766e-06 4.54762e-20)
(0.000805922 6.68334e-06 -1.58068e-18)
(0.000831868 4.57972e-05 -6.91056e-19)
(1.51537e-05 -7.04771e-06 0)
(5.25495e-05 5.83421e-06 8.51753e-20)
(0.00134703 0.00450189 8.92887e-19)
(7.32491e-05 1.40532e-05 8.63505e-20)
(0.00080136 1.62447e-05 0)
(0.000386944 -0.000217344 6.77332e-19)
(0.000384635 0.000271034 5.11847e-21)
(0.000397349 4.34423e-05 -1.00365e-18)
(0.00634812 0.0109413 -7.68398e-19)
(0.0062248 0.0107964 1.52766e-20)
(0.00561431 0.0103791 1.45562e-18)
(0.000807785 3.5335e-05 0)
(6.49522e-05 2.89684e-05 0)
(0.000318008 7.29825e-06 1.83662e-23)
(6.04481e-05 9.14347e-06 -3.4641e-19)
(0.000813827 -7.80147e-06 0)
(0.000645637 2.88771e-05 3.17518e-19)
(0.000838182 1.58183e-05 2.20724e-18)
(0.000804568 3.3585e-05 -5.39379e-19)
(0.000799889 1.35334e-05 -3.15707e-19)
(0.00171223 0.000488838 5.42733e-19)
(0.000802977 2.10153e-05 -1.15124e-18)
(0.000831952 2.55242e-05 -5.2419e-19)
(7.70295e-05 -4.20195e-06 -1.73387e-19)
(0.00068883 0.00226151 0)
(0.000840415 4.24729e-05 0)
(0.000783249 1.90755e-05 -1.39269e-18)
(3.64586e-05 1.50319e-05 0)
(0.000290306 0.00026807 3.26803e-19)
(3.74615e-05 -1.65924e-05 0)
(3.90376e-05 -5.75097e-06 1.5945e-19)
(1.19349e-05 -4.11319e-05 -3.36622e-20)
(0.000795106 7.77531e-05 2.46876e-19)
(4.23929e-05 9.81772e-06 0)
(0.000804668 5.58345e-05 4.47406e-19)
(0.000775981 0.000293623 2.10698e-19)
(0.000963395 6.43362e-05 -3.97862e-20)
(4.12742e-05 2.17316e-05 -4.518e-20)
(4.91366e-06 -1.86751e-05 0)
(0.000436859 0.000214542 1.70162e-19)
(2.81633e-06 2.02786e-05 0)
(0.000798059 4.0739e-05 -6.06619e-19)
(0.000621848 -0.000119423 0)
(6.18913e-05 -2.79948e-06 -1.74455e-19)
(2.41345e-06 -2.56468e-05 0)
(0.000831229 0.000240829 -3.41214e-19)
(3.124e-06 -1.09458e-05 0)
(0.000426353 0.000322185 -1.31781e-23)
(0.000535016 0.000110469 0)
(0.000810446 4.36205e-05 -3.0417e-24)
(2.51911e-06 1.25998e-05 -4.21654e-20)
(0.000460591 -1.83584e-05 1.76329e-18)
(0.00102205 7.23043e-05 4.15963e-20)
(0.000814017 4.54798e-05 6.41256e-22)
(0.000742013 0.000658235 2.69464e-19)
(6.8478e-06 4.50189e-05 0)
(-2.25364e-06 -3.5893e-05 -3.12066e-19)
(-2.82433e-05 -5.88052e-05 -1.10122e-18)
(4.50162e-06 7.27349e-05 -5.96284e-19)
(0.000609505 -2.38156e-05 0)
(8.60699e-06 9.69625e-05 0)
(0.000815012 2.87106e-05 2.1819e-18)
(0.000792315 2.81312e-05 1.53407e-18)
(0.000434011 -9.21575e-05 0)
(4.09635e-05 0.000214509 -8.95254e-19)
(2.48789e-07 0.000162025 4.96687e-19)
(5.94351e-05 0.000402792 6.25164e-19)
(0.000307592 7.66378e-05 -9.37019e-19)
(0.000802433 2.01483e-05 1.37362e-19)
(0.000259859 -5.20846e-05 5.31149e-19)
(4.24149e-06 2.94228e-05 0)
(2.03427e-05 0.000279869 -1.09386e-18)
(0.000322383 0.000322021 -1.61682e-19)
(-1.23617e-07 -2.91991e-05 1.4652e-19)
(0.000670124 0.000811871 0)
(0.000370423 0.000385567 5.74338e-20)
(0.000819105 2.0807e-05 1.07017e-18)
(0.00079962 1.65909e-06 -2.72257e-18)
(5.44303e-06 -2.24359e-05 0)
(0.000666939 -3.62855e-05 -1.12298e-19)
(0.000321855 -0.000126765 1.24305e-18)
(0.00263729 0.000809511 -3.36396e-19)
(6.59385e-06 0.000126784 -6.13115e-19)
(6.3967e-06 0.000155272 1.6193e-18)
(0.00068961 2.35951e-05 -3.89834e-20)
(6.00373e-05 -1.46785e-05 -7.5006e-19)
(0.000808461 3.26122e-05 -3.86813e-19)
(0.000738828 2.66173e-05 -4.10403e-20)
(3.45217e-05 0.000326011 -5.96986e-19)
(0.000492073 6.1036e-05 -4.93864e-19)
(4.58756e-05 -3.72637e-06 1.56131e-19)
(0.000836668 3.32753e-05 -1.09237e-18)
(0.00154707 0.000236229 -1.13696e-18)
(4.64817e-06 5.85459e-05 4.96362e-19)
(0.00081094 3.20086e-05 -4.98103e-19)
(0.000917091 0.000546742 -7.84997e-20)
(0.000147631 0.000785739 0)
(0.00058851 6.40246e-05 0)
(0.00027651 4.90735e-05 -1.60941e-18)
(6.14906e-05 5.6058e-05 -1.3739e-18)
(2.92875e-05 1.93476e-05 0)
(0.00424712 0.00740008 -1.0194e-20)
(0.00422542 0.00737199 3.16364e-20)
(0.00442763 0.00757477 -4.95833e-21)
(0.00420643 0.00773437 0)
(0.00419886 0.00760019 5.77126e-19)
(0.00424423 0.00740141 -9.197e-20)
(0.00421013 0.00804193 4.84365e-19)
(0.00428961 0.00742217 0)
(0.00420838 0.00853501 6.16646e-19)
(0.0043261 0.00745066 2.23855e-19)
(0.000827905 1.22925e-05 -1.37347e-18)
(0.000774503 5.61198e-05 0)
(0.000212411 4.74719e-05 1.27681e-19)
(4.80916e-05 1.44185e-05 8.71724e-20)
(7.56776e-05 4.20549e-05 6.79926e-19)
(0.000102965 3.77663e-05 -3.41622e-19)
(9.64265e-05 2.3649e-06 0)
(4.56228e-05 4.0272e-06 8.18258e-20)
(0.000206781 0.000128115 0)
(0.000163403 3.67311e-05 -5.24233e-20)
(0.000345098 0.000219494 -5.09189e-21)
(5.39544e-05 4.07016e-05 -4.37594e-19)
(8.77756e-05 2.42497e-05 -8.52354e-20)
(8.82421e-05 5.86903e-05 1.31177e-21)
(0.000257918 0.000363774 -6.66088e-19)
(0.000108286 0.000996765 0)
(4.0553e-05 5.03846e-05 3.43015e-19)
(0.000198542 0.00174802 0)
(0.000208122 0.000250597 7.0457e-19)
(3.50575e-05 -3.42647e-06 1.11479e-19)
(0.000487275 0.000162318 -1.72279e-19)
(0.000766264 2.41627e-05 -1.92386e-18)
(4.02428e-05 -1.47667e-06 4.63823e-24)
(0.000144945 2.00066e-05 2.2456e-19)
(0.000245019 8.74375e-05 -8.99209e-20)
(0.000881748 0.000700724 3.34898e-19)
(0.000725619 0.00163447 -9.23442e-21)
(0.00039952 0.0014215 -9.39211e-21)
(0.00102657 0.00054643 0)
(9.76206e-05 -1.77385e-05 1.11855e-18)
(0.000112109 1.14535e-05 -4.4302e-20)
(0.000462299 -0.000283676 -1.13602e-18)
(0.000818555 4.11396e-05 0)
(0.000179276 -5.31222e-06 3.63255e-19)
(0.000301739 0.00130461 0)
(0.00108445 0.000775134 -7.30104e-20)
(0.000827095 3.16602e-05 -1.8653e-19)
(7.25334e-05 -2.2346e-05 -2.99937e-19)
(0.000833956 0.000317578 -2.08019e-20)
(5.17846e-05 -2.13259e-05 -5.99411e-19)
(0.000226784 0.000171767 8.63767e-20)
(0.000230609 0.00030723 -3.44967e-19)
(0.000890388 0.000249878 0)
(0.000819591 5.38669e-05 0)
(0.000264757 0.000130954 1.76824e-19)
(0.000233395 -5.51077e-06 4.89891e-24)
(0.000184608 0.00020282 0)
(0.000300061 0.000650612 -5.55631e-21)
(0.000352984 -1.45494e-05 0)
(0.000377231 0.00059899 0)
(0.000106745 7.86482e-05 -1.34652e-21)
(0.000810446 3.04355e-05 -9.5178e-19)
(0.000806762 1.94763e-05 7.97831e-19)
(0.000126538 5.32495e-05 -1.49836e-19)
(0.000963842 0.000147932 8.5035e-20)
(0.000838942 4.1379e-05 3.33304e-19)
(0.00081923 3.01508e-05 -2.94075e-19)
(0.00102547 0.000416953 0)
(0.000442092 0.000115531 6.2435e-19)
(0.000903871 0.000321748 2.0911e-20)
(0.000583107 0.000153799 0)
(0.000272672 0.000446433 4.0959e-19)
(0.000262143 0.000213719 -8.44068e-20)
(0.00109819 0.000380473 -7.82029e-19)
(0.000630173 0.000103372 -1.79266e-19)
(0.000814531 7.38766e-05 -7.45677e-21)
(0.000842998 2.74284e-05 9.3996e-20)
(6.80418e-05 -8.68248e-05 -1.98111e-18)
(0.00074189 0.000380739 2.19206e-19)
(0.000674991 6.55288e-05 2.30605e-20)
(0.00071071 0.000279375 1.60872e-23)
(0.000733854 0.000460573 -4.09636e-19)
(0.000848778 2.43126e-05 9.06866e-20)
(7.02353e-05 7.65563e-05 0)
(0.000659389 0.000421696 -4.65858e-20)
(0.000182841 9.06126e-05 0)
(0.000374563 0.000501743 -2.64805e-19)
(0.00031062 0.000163831 0)
(0.000678708 0.00020519 3.55177e-19)
(0.000653581 0.000259613 -4.37192e-20)
(8.05515e-05 0.000101336 6.19072e-19)
(0.000879009 9.49875e-05 -1.6314e-18)
(5.53523e-05 2.0252e-05 2.57156e-19)
(0.000891044 7.15468e-05 -1.68586e-18)
(0.000843749 8.96937e-05 1.62988e-19)
(0.00081162 3.4431e-05 1.90862e-18)
(0.00081895 3.37066e-05 -1.32831e-19)
(0.000740281 7.16344e-05 0)
(0.000805829 2.29007e-05 8.95486e-19)
(0.00096508 0.000232698 -4.2704e-19)
(0.000779088 9.6618e-05 -4.83668e-19)
(0.000780501 0.000234045 -8.81098e-20)
(0.000206267 -0.000177124 -2.07704e-18)
(0.000753135 8.01182e-05 8.87413e-19)
(0.000641589 0.000594472 0)
(7.78055e-05 -0.000119459 0)
(0.00122521 0.000472974 4.97216e-19)
(0.000596477 -6.01103e-05 -3.26865e-18)
(0.00134878 0.000414902 5.76415e-19)
(0.00124735 0.00071785 -6.38836e-20)
(0.000814137 3.18654e-05 -2.12384e-19)
(0.000839015 6.69601e-05 -1.4262e-18)
(0.000815024 2.70843e-05 1.58755e-18)
(0.000816906 2.51088e-05 9.78081e-20)
(0.000671732 0.000353041 -4.40343e-20)
(0.000100492 0.000119341 6.73237e-24)
(0.000756703 -3.57791e-05 2.65021e-19)
(0.000213345 -0.000263624 -7.31846e-19)
(0.000629323 0.000184885 0)
(0.000715214 4.82008e-05 9.90253e-20)
(0.000703756 9.67036e-06 -3.80755e-19)
(0.000391922 0.000168032 3.93309e-20)
(0.000809194 0.000508056 -1.65453e-19)
(0.000147222 7.12576e-05 3.47345e-25)
(0.000814489 0.000412905 0)
(0.000983321 0.000316984 4.15711e-20)
(0.000761777 -7.07947e-05 -6.16026e-19)
(0.000350771 0.000101199 4.97744e-19)
(0.000904357 0.00042691 0)
(4.73267e-05 2.95407e-05 1.33692e-19)
(0.000487747 0.000265419 2.1392e-19)
(0.000523185 -0.000159421 -7.0938e-19)
(0.000117142 -0.000167655 -1.05587e-18)
(0.000825463 3.56e-05 -4.86707e-19)
(0.000770059 -7.84791e-05 -1.94308e-19)
(0.000547575 0.000729708 -1.17423e-18)
(0.000850629 4.71842e-05 -6.74393e-20)
(0.000604575 -1.83346e-05 1.27989e-18)
(0.000709376 9.95915e-05 2.27746e-20)
(0.000536223 0.000207363 -1.65661e-19)
(2.83962e-05 -2.06222e-05 -8.75715e-20)
(0.000161204 -5.01233e-05 2.40571e-18)
(1.59285e-05 6.52845e-07 -1.94817e-19)
(0.000833584 0.000115842 3.63691e-19)
(0.00067022 0.000135701 0)
(0.00018069 -9.54045e-05 -1.048e-18)
(0.000117578 -2.18321e-05 3.1282e-19)
(0.000102529 -3.8006e-05 1.29479e-23)
(0.000802517 0.000105479 -3.19215e-19)
(0.000150085 -1.65715e-05 0)
(0.00058884 0.000240685 0)
(0.000111313 0.000327059 -3.62802e-19)
(0.000863974 0.00010084 2.10298e-18)
(1.29728e-05 9.51224e-07 0)
(0.000882494 5.32103e-05 0)
(4.04018e-05 -2.55561e-05 0)
(0.000815418 4.74028e-05 -4.46741e-21)
(0.000787644 -3.9906e-05 0)
(0.00426008 0.0074065 8.06764e-20)
(0.00436196 0.00748655 1.43316e-19)
(0.000843725 -9.78175e-06 0)
(0.000791056 -4.33995e-05 8.12065e-19)
(0.000152271 0.000121278 1.49188e-19)
(0.000856307 6.75588e-05 8.0764e-19)
(0.000128643 9.82667e-05 2.34362e-20)
(0.000783961 -2.62904e-05 6.24277e-19)
(3.32255e-05 8.96544e-06 0)
(2.60741e-05 -1.27516e-05 -4.48413e-20)
(0.00090068 4.86954e-05 -4.86479e-19)
(3.0012e-05 -3.06884e-05 -6.69703e-19)
(0.000760831 0.000123269 -4.23175e-20)
(0.00016866 0.00015907 -1.88073e-19)
(0.000814621 2.95939e-05 0)
(0.00468248 0.00815357 8.99932e-22)
(0.000184989 0.000789503 3.3344e-19)
(0.000110297 -6.19943e-05 -9.14391e-19)
(5.68507e-05 -3.50169e-05 -1.16859e-18)
(0.00062374 1.34814e-05 1.89815e-20)
(0.00058249 0.000406712 0)
(0.000421043 0.00044396 -2.56296e-19)
(7.73269e-05 -6.17427e-05 1.18353e-18)
(0.000582484 -1.09455e-07 7.69529e-20)
(4.00652e-05 1.5545e-06 4.07034e-19)
(0.000709058 -4.89554e-05 1.17144e-18)
(0.00081178 3.27201e-05 -6.01859e-19)
(5.91757e-05 -5.48987e-05 1.70909e-18)
(0.000842223 -3.03677e-05 -5.86586e-24)
(0.000600235 6.70111e-06 -3.76155e-20)
(0.000870528 7.06543e-05 0)
(0.00084201 4.31287e-05 0)
(0.00591736 0.00724179 2.59636e-19)
(1.6524e-05 -2.54852e-06 -1.19569e-19)
(0.00011515 -0.000106873 7.72887e-19)
(0.000728866 0.000116674 -6.96331e-19)
(1.94037e-05 7.89091e-08 2.01495e-19)
(0.000631715 -3.60327e-05 -7.23701e-19)
(0.000747067 3.65303e-05 1.5578e-18)
(0.000707702 0.000159135 -3.55384e-19)
(0.000807637 -1.23701e-05 3.60763e-19)
(7.1526e-05 -3.51116e-05 1.11583e-18)
(0.000800526 6.69822e-06 -3.22639e-19)
(0.000868924 4.01359e-05 0)
(0.000544128 0.000302936 4.20956e-20)
(0.000860621 5.09201e-05 -9.4682e-19)
(1.71691e-05 2.60636e-06 9.11209e-19)
(0.000855946 4.52043e-05 9.65536e-19)
(0.000859118 1.43193e-05 -9.64487e-19)
(0.000755462 -1.82684e-06 -5.69086e-19)
(0.000529479 -7.61985e-05 -5.25566e-19)
(0.00432907 0.00745288 2.4698e-19)
(0.00422346 0.00752899 -2.53454e-19)
(0.00422124 0.00758689 2.66825e-19)
(0.00425586 0.0074106 1.97903e-19)
(0.000844893 -3.1142e-05 1.44195e-19)
(0.00447605 0.00751288 0)
(0.00440352 0.00751716 -3.8677e-19)
(2.68747e-05 -1.26257e-07 -9.97996e-19)
(0.00417054 0.00746923 -6.33479e-20)
(0.00414591 0.00743237 -2.21449e-19)
(0.0060295 0.0106058 0)
(0.00654046 0.0111874 3.71267e-20)
(0.00600944 0.0105755 0)
(0.00655616 0.011211 1.30815e-19)
(0.00599678 0.0105995 2.69634e-19)
(0.00659285 0.0112278 1.24528e-20)
(0.00593549 0.0106123 -7.76612e-19)
(0.00662312 0.0111468 8.1425e-21)
(0.00390368 0.00919892 -1.9081e-19)
(0.00418682 0.00748826 3.8994e-21)
(0.004238 0.00755237 7.9339e-20)
(0.00415039 0.00743467 4.11912e-20)
(0.000883989 0.000193363 4.46673e-20)
(9.12732e-06 1.29252e-06 0)
(0.000710445 -0.00011574 0)
(0.000661163 5.30589e-05 0)
(0.00244378 0.00111213 4.23226e-21)
(0.000756359 -3.1406e-05 1.72554e-19)
(3.86236e-05 5.24243e-06 4.53991e-20)
(8.68926e-06 -2.54994e-05 1.65286e-18)
(0.00085412 1.17511e-05 0)
(2.66145e-05 1.19179e-05 -1.917e-19)
(0.000139737 0.00022101 0)
(1.56851e-05 -9.54621e-07 0)
(1.25907e-05 -1.20687e-06 0)
(0.00082727 0.000142442 1.13731e-20)
(0.00081095 -1.79875e-05 1.79444e-19)
(3.71745e-05 0.000268374 -1.35396e-23)
(0.000157273 0.000271157 -1.84169e-18)
(0.000605346 0.000328159 -8.56884e-20)
(0.000897887 0.000110039 6.01062e-19)
(0.000641558 -0.000195414 6.73661e-19)
(0.000361766 0.00111088 0)
(0.000475266 0.000575336 2.71493e-18)
(8.96585e-05 0.000143608 -1.80289e-18)
(1.9782e-05 -4.69085e-08 0)
(0.000821951 -6.01975e-05 3.63793e-20)
(1.55738e-05 3.46644e-05 1.64427e-18)
(0.000898017 3.33807e-05 2.71129e-19)
(-2.32595e-05 2.9652e-05 3.80893e-18)
(0.000929053 4.0325e-05 -2.68997e-19)
(0.00134417 0.000150953 7.47103e-19)
(3.32297e-05 -1.0344e-05 8.25595e-20)
(3.47902e-05 3.28973e-06 -8.58984e-19)
(5.07704e-05 0.000140193 0)
(0.000912715 8.27899e-05 5.98452e-19)
(0.00049519 0.000367771 2.37114e-19)
(0.000647911 1.7706e-05 -3.89075e-20)
(0.000780709 -1.80984e-06 2.57332e-19)
(0.000734717 -0.000168845 0)
(0.00632128 0.0108962 -1.68026e-19)
(0.00637904 0.0109739 4.05745e-19)
(0.00616028 0.010731 -6.18322e-19)
(0.0065015 0.0111328 -8.09599e-20)
(3.3588e-05 0.000117046 8.00432e-19)
(0.000923103 6.03444e-05 1.45186e-22)
(0.0064116 0.0110063 -3.86376e-19)
(0.00628223 0.0108459 5.48358e-19)
(0.00608039 0.0106727 -4.16756e-19)
(0.00652201 0.0111652 -6.81222e-20)
(7.98285e-05 0.0005018 -2.01789e-20)
(7.161e-05 -0.000200522 -7.92829e-19)
(0.000662436 -2.07054e-05 -7.65365e-19)
(0.000725976 0.000220011 0)
(0.000800192 3.09644e-07 0)
(0.00018698 0.000389408 3.36257e-19)
(0.000599336 0.000513153 -5.41803e-19)
(8.49546e-06 -1.4577e-06 1.78373e-19)
(0.000200589 0.000467309 -7.38305e-19)
(0.00101364 0.000974876 -1.12674e-19)
(0.000746092 0.000165895 0)
(0.000789835 0.000184308 1.31005e-19)
(0.00635356 0.00588122 1.13132e-18)
(0.000738986 0.00112884 8.26512e-20)
(3.78038e-05 3.7062e-05 -7.44595e-20)
(0.000809321 1.19032e-05 0)
(0.000873716 2.53919e-05 -3.56864e-20)
(3.31306e-05 2.91758e-06 -1.96692e-19)
(2.87166e-05 4.30828e-06 1.92972e-19)
(0.000833646 1.70615e-05 5.37152e-19)
(0.00097538 0.000110832 6.58206e-19)
(0.000557336 4.05319e-05 0)
(0.000222849 -0.000292859 -3.98055e-19)
(0.000916629 0.00014568 3.89549e-19)
(9.59255e-06 -5.74422e-05 2.03093e-19)
(0.00145192 0.000442834 -2.58152e-18)
(0.000585772 -9.20005e-06 0)
(0.000793662 0.000143462 3.75424e-19)
(9.48342e-05 0.000393129 0)
(0.00118818 0.00816118 4.62105e-19)
(0.000492201 0.000499225 -1.2244e-18)
(0.000541023 0.00101206 -1.83732e-19)
(0.000882975 1.71362e-05 -1.46038e-19)
(1.24997e-05 2.45282e-05 0)
(0.000950811 7.74706e-05 6.11607e-19)
(0.00410634 0.00739548 8.14035e-20)
(0.00417139 0.00747371 4.72908e-20)
(0.00449986 0.00751559 4.53988e-19)
(0.00444502 0.0075414 -3.29367e-19)
(0.00647544 0.0111097 8.10374e-20)
(0.00391483 0.00714607 -9.72378e-22)
(0.00550808 0.00779826 -5.64654e-19)
(0.00409787 0.00737169 5.21778e-21)
(0.00518877 0.00785795 5.11587e-19)
(0.00407967 0.00734014 -4.86998e-20)
(0.00495384 0.00771732 0)
(0.00408498 0.00736454 -8.56276e-20)
(0.00474249 0.00758837 4.92433e-19)
(0.00409824 0.00737614 8.74876e-20)
(0.00457507 0.00752799 0)
(0.00428363 0.00742073 1.39713e-19)
(0.00423945 0.00759849 5.80398e-19)
(0.00446745 0.00752685 -5.55336e-19)
(0.00438772 0.00750472 3.71311e-19)
(0.00422802 0.00752491 2.87632e-19)
(0.0064308 0.0110431 -4.97655e-21)
(0.0041178 0.00740159 3.11512e-20)
(0.0064589 0.0110729 0)
(2.31808e-05 5.49681e-06 -1.89838e-19)
(0.00200003 0.00654436 2.28224e-19)
(0.000838515 -5.21285e-05 1.0983e-19)
(0.000855567 7.23197e-06 0)
(1.35682e-06 1.11968e-06 -3.99065e-19)
(-1.44644e-05 -0.000120229 6.9184e-19)
(2.41124e-05 5.56976e-05 2.08876e-18)
(0.000830176 0.00018166 -9.00609e-20)
(0.000800746 8.88075e-06 7.06307e-19)
(1.06791e-06 -8.35447e-07 3.09953e-19)
(1.73353e-05 -3.26401e-05 -1.84543e-18)
(0.000763073 2.72154e-05 1.63132e-19)
(0.000868886 0.000123969 -3.07951e-20)
(0.000800659 -8.34737e-06 1.48118e-19)
(0.000419336 0.00068007 0)
(3.44088e-05 -0.000143932 1.15131e-18)
(0.000866576 6.24031e-06 1.525e-19)
(1.94877e-05 2.31864e-05 0)
(0.000116504 0.000558667 -6.31177e-19)
(0.000609485 0.000591355 1.3178e-18)
(0.000327091 0.00075356 0)
(0.000801573 -1.62265e-05 0)
(0.000801285 2.93217e-06 1.17529e-18)
(1.69409e-05 4.81365e-05 -3.51455e-18)
(1.60332e-05 6.80613e-06 3.73579e-19)
(0.000116325 0.000143272 0)
(4.25492e-05 -4.04219e-05 0)
(6.11382e-05 0.000111111 2.00976e-19)
(0.000938036 0.000189011 3.50391e-19)
(0.000800128 1.52058e-05 -1.39867e-18)
(2.23357e-05 3.23357e-05 0)
(0.00044559 7.5807e-06 -6.04185e-20)
(0.000800897 3.77157e-05 -1.56328e-19)
(0.00084406 3.88693e-05 1.06399e-18)
(0.000257067 0.000542045 6.3216e-19)
(0.000878225 0.000156771 0)
(1.74578e-05 -2.27066e-05 5.38569e-19)
(2.24409e-06 -4.8695e-06 -3.19928e-19)
(0.000968634 3.23447e-05 0)
(0.00103806 0.00226686 0)
(0.00092808 -2.98973e-06 0)
(0.00100308 0.000207602 4.27128e-19)
(0.000817832 -3.52688e-05 -2.84152e-19)
(0.000933683 0.000109447 -6.84694e-19)
(0.000800845 3.38444e-06 0)
(4.15789e-05 6.75499e-05 -1.71546e-19)
(0.000174478 0.000326128 1.08102e-18)
(0.000799685 1.4241e-05 -2.08178e-23)
(0.00109459 0.00020986 -6.68812e-19)
(0.00108984 0.000126707 0)
(2.36148e-06 5.64704e-06 2.51001e-19)
(1.74162e-05 -1.46524e-05 -1.94291e-19)
(0.00056814 4.16358e-05 6.94931e-21)
(5.4548e-06 -7.53465e-05 0)
(0.00106536 0.000255076 9.49927e-19)
(0.00502871 0.00974863 -2.82975e-19)
(0.00312133 0.00961768 1.27238e-18)
(3.53086e-05 -0.000102706 -1.91315e-19)
(5.07957e-05 -7.43054e-05 1.85927e-18)
(0.00119051 0.00024953 1.67327e-19)
(0.00132826 0.00107864 2.34062e-19)
(0.00081107 1.01637e-06 -7.33364e-19)
(0.000197172 0.000950995 -2.38213e-19)
(0.000816608 0.000939453 -2.18561e-19)
(0.000800137 -2.50454e-06 0)
(8.35746e-05 0.000620904 0)
(9.52016e-05 0.000281194 -3.88176e-23)
(0.0007189 -4.42873e-05 -1.67765e-23)
(0.000823911 6.7321e-05 1.5259e-19)
(0.00263077 0.0020628 -1.23115e-18)
(0.00175985 0.00923782 -1.17199e-19)
(0.000834827 5.88806e-05 4.92201e-19)
(0.00632621 0.00404983 -1.75974e-19)
(0.00672109 0.0115577 -1.36392e-20)
(0.00473411 0.00784387 4.92594e-21)
(0.000802849 1.36448e-05 -2.1899e-18)
(0.000838812 6.02834e-06 5.9958e-24)
(7.9148e-06 -7.03355e-06 -3.47979e-19)
(4.61578e-05 8.83433e-05 -3.4924e-19)
(6.51906e-05 0.000268029 8.75143e-19)
(1.04916e-05 1.55728e-05 4.90353e-19)
(8.96508e-05 0.000228711 3.69726e-19)
(0.000822023 2.11411e-05 0)
(0.00534811 0.00949243 1.95072e-20)
(0.00153686 0.000636663 -2.61213e-20)
(0.000819791 3.67823e-05 3.60136e-19)
(2.98108e-05 -8.01701e-05 0)
(0.00184778 0.0007459 5.45935e-19)
(8.92935e-06 7.15173e-06 -2.70125e-19)
(3.31454e-05 2.7669e-05 9.71717e-20)
(0.00133045 0.00139702 6.36552e-19)
(0.000737008 4.88255e-05 1.83082e-19)
(4.16047e-06 -1.41601e-06 -1.70185e-19)
(0.00206172 0.00156062 -1.05575e-18)
(0.000126517 0.00017735 -8.18667e-19)
(0.00392122 0.00848715 -1.09073e-18)
(4.90983e-06 1.42521e-06 8.81333e-20)
(0.000123953 -9.70185e-05 -1.25716e-18)
(4.53249e-05 -5.67337e-05 4.05601e-20)
(0.00152589 0.000984681 0)
(0.00104034 0.000138606 -4.03846e-22)
(0.000453446 0.000848535 -4.01994e-20)
(0.000802947 2.76053e-05 -2.34053e-19)
(8.70744e-05 0.000183546 7.35989e-19)
(2.87304e-05 -5.98644e-05 4.03964e-19)
(1.79095e-05 1.47307e-05 -9.47002e-20)
(3.08565e-05 9.08174e-05 -3.20256e-19)
(0.000209223 -0.000233694 -5.452e-19)
(0.00325003 0.003462 2.89166e-21)
)
;

boundaryField
{
    back
    {
        type            empty;
    }
    ingreso
    {
        type            fixedValue;
        value           uniform (0.0008 0 0);
    }
    salida
    {
        type            zeroGradient;
    }
    front
    {
        type            empty;
    }
    defaultFaces
    {
        type            noSlip;
    }
}


// ************************************************************************* //
