/*--------------------------------*- C++ -*----------------------------------*\
  =========                 |
  \\      /  F ield         | OpenFOAM: The Open Source CFD Toolbox
   \\    /   O peration     | Website:  https://openfoam.org
    \\  /    A nd           | Version:  7
     \\/     M anipulation  |
\*---------------------------------------------------------------------------*/
FoamFile
{
    version     2.0;
    format      ascii;
    class       volScalarField;
    location    "99";
    object      p;
}
// * * * * * * * * * * * * * * * * * * * * * * * * * * * * * * * * * * * * * //

dimensions      [0 2 -2 0 0 0 0];

internalField   nonuniform List<scalar> 
591
(
0.000123831
0.000123847
0.000123851
0.000123798
0.000123802
0.000123872
0.00012386
0.000123836
0.000116958
0.000123856
0.000124043
0.000122794
0.000123842
0.000119683
0.000123836
0.000123875
0.000123835
0.000123885
0.000121911
0.000123217
0.000123818
-3.52395e-06
0.000124037
0.00012382
0.000123992
0.000123843
0.000123957
0.000123953
0.000123856
0.000123865
0.000124013
0.000123986
0.000124007
0.000124006
0.000124008
0.00012333
0.000124003
0.000123821
0.000124031
0.000123948
0.000123898
0.000123999
0.000123851
0.000123876
0.000123996
0.000124017
0.000119188
0.000124022
0.000123855
0.000123968
0.000123974
0.000124003
2.39445e-05
3.05903e-05
4.78369e-05
0.000123849
0.000124026
0.000124019
0.000124019
0.000123829
0.000123916
0.000123848
0.000123844
0.000123895
0.000122522
0.000123847
0.000123851
0.000124016
0.000120688
0.000123863
0.000123854
0.000124023
0.000124
0.000124001
0.000124007
0.000123982
0.000123823
0.00012402
0.000123825
0.000123765
0.000123599
0.000124025
0.000123984
0.000123971
0.000124032
0.000123837
0.000123922
0.000124014
0.000123977
0.000123729
0.000123988
0.000123943
0.000123954
0.000123828
0.00012403
0.000123985
0.00012353
0.000123429
0.000123603
0.000124037
0.000123941
0.00012387
0.000124042
0.000123793
0.000124044
0.000123848
0.000123845
0.000123987
0.000124037
0.00012404
0.000123932
0.000124015
0.000123862
0.000124017
0.000124034
0.000124022
0.000123977
0.000123967
0.000123539
0.000123944
0.000123848
0.00012384
0.000123935
0.000123825
0.000124
0.000120153
0.000124044
0.000124022
0.000123596
0.000124008
0.000123838
0.000123522
0.000123983
0.000123973
0.000124011
0.000123854
0.000122585
0.00012404
0.000123839
0.00012353
0.000123602
0.000123938
0.000124026
0.000124033
0.000124026
7.61723e-06
3.67938e-06
2.07231e-06
3.81604e-05
3.67002e-05
5.66195e-06
3.8313e-05
1.57406e-05
3.72965e-05
1.78074e-05
0.000123848
0.000123839
0.000124032
0.000124021
0.00012403
0.000124029
0.000124021
0.000124016
0.000124032
0.000124029
0.000123997
0.00012403
0.000124026
0.000124033
0.000123978
0.000123351
0.000124032
0.000122088
0.000124019
0.000124011
0.000123964
0.000123857
0.000124011
0.000124028
0.000124029
0.000123448
0.000122433
0.000123008
0.000123398
0.000124015
0.000124023
0.000123917
0.000123818
0.000124019
0.000122928
0.000123256
0.000123817
0.000124009
0.000123707
0.000124003
0.000124027
0.000124003
0.000123674
0.000123808
0.000124024
0.000124028
0.000124029
0.000123831
0.000124009
0.000123827
0.000124036
0.000123841
0.000123841
0.000124032
0.000123632
0.000123809
0.000123851
0.000123492
0.000123986
0.000123638
0.000123926
0.000123945
0.000124017
0.000123404
0.000123913
0.000123802
0.000123801
0.000123983
0.000123748
0.000123897
0.000123815
0.000123729
0.000123793
0.000124036
0.000123794
0.000124035
0.00012389
0.000124015
0.000123856
0.000123859
0.000124039
0.000123743
0.000124023
0.000123731
0.000123781
0.000123846
0.000123824
0.000123863
0.000123849
0.000123619
0.000123822
0.000123777
0.000123987
0.000123841
0.000123701
0.000123977
0.000123247
0.000123816
0.000123138
0.000123026
0.000123832
0.000123796
0.000123835
0.000123831
0.000123807
0.000124038
0.000123877
0.000123949
0.000123893
0.000123882
0.000123894
0.000123993
0.000123642
0.000124034
0.000123678
0.000123564
0.000123866
0.000124013
0.000123589
0.000124027
0.00012394
0.000123947
0.000123977
0.000123857
0.000123834
0.000123673
0.000123789
0.000123831
0.000123873
0.000123935
0.000123996
0.000124015
0.00012402
0.000123774
0.000123884
0.000124007
0.000124015
0.000124009
0.000123799
0.000124023
0.000123899
0.000124011
0.00012376
0.000124022
0.000123747
0.000123998
0.000123889
0.000123833
1.16414e-05
2.19124e-05
0.000123769
0.000123854
0.000124037
0.00012378
0.000124037
0.000123864
0.000124022
0.000123998
0.000123729
0.000123992
0.000123821
0.000124035
0.000123856
-2.09573e-07
0.000123734
0.000124004
0.000123999
0.000123687
0.000123851
0.000123896
0.000123992
0.000123742
0.000124015
0.000123897
0.000123849
0.000123991
0.000123793
0.000123717
0.000123756
0.000123859
4.74896e-05
0.00012401
0.000123989
0.000123847
0.000124017
0.000123925
0.000123869
0.000123853
0.000123836
0.000124002
0.000123864
0.000123767
0.000123903
0.000123773
0.000124015
0.00012378
0.000123842
0.000123875
0.000123958
1.98723e-05
2.73095e-05
3.42963e-05
9.63883e-06
0.00012382
3.30568e-05
2.60157e-05
0.000124013
1.9073e-05
1.70289e-05
3.81851e-05
7.57602e-06
3.99362e-05
5.60488e-06
4.08297e-05
3.68897e-06
4.28114e-05
1.87651e-06
3.64095e-05
2.31941e-05
2.94439e-05
1.49914e-05
0.000123705
0.000124024
0.000123888
0.000123901
0.000120851
0.000123939
0.000124019
0.000123989
0.000123785
0.000124024
0.000124031
0.000124004
0.000124
0.000123764
0.000123836
0.000124016
0.000124022
0.000123857
0.000123718
0.000123809
0.000123366
0.000123817
0.000124041
0.000124007
0.000123848
0.000124032
0.000123689
0.000123867
0.000123648
0.000122806
0.000124002
0.000124014
0.00012404
0.000123704
0.000123902
0.000123647
0.000123863
0.000123855
2.60511e-05
2.18771e-05
3.30361e-05
1.16175e-05
0.000124043
0.000123697
1.98191e-05
2.82582e-05
3.56027e-05
9.58764e-06
0.000123867
0.000123944
0.00012381
0.000123818
0.000123838
0.000123984
0.000123773
0.000123998
0.00012395
0.000123061
0.000123821
0.000123787
5.93801e-05
0.000123187
0.00012403
0.000123832
0.000123721
0.000124018
0.000124021
0.000123811
0.000123611
0.000123844
0.000123886
0.000123695
0.000123974
0.000122856
0.000123767
0.000123794
0.000123992
0.000100853
0.000123839
0.000123447
0.000123756
0.00012403
0.000123659
1.08953e-05
2.1113e-05
3.53683e-05
2.8208e-05
1.36611e-05
5.54305e-08
4.20846e-05
2.69042e-06
4.01584e-05
4.76219e-06
3.94164e-05
6.81465e-06
3.86242e-05
8.85699e-06
3.72906e-05
1.36728e-05
3.17282e-05
3.0592e-05
2.39396e-05
2.52619e-05
1.77645e-05
1.29374e-05
1.57067e-05
0.000124023
0.000102369
0.000123819
0.000123746
0.000124027
0.000123917
0.000124034
0.000123748
0.000123877
0.000123993
0.000123989
0.000123997
0.000123747
0.000123843
0.000123762
0.000123951
0.000123778
0.000124028
0.000123907
0.000123736
0.000123744
0.000123853
0.000123847
0.000124035
0.000124025
0.000124039
0.000123993
0.00012404
0.000123663
0.000123843
0.00012403
0.000123788
0.00012392
0.00012385
0.000123902
0.00012373
0.000123992
0.000123991
0.000123305
0.00012133
0.000123031
0.000123577
0.000123842
0.000123672
0.000123854
0.000124035
0.000124006
0.000123848
0.000123463
0.00012344
0.000124028
0.000123995
0.000123867
0.000123958
0.000123504
5.8305e-05
4.01166e-05
0.000123964
0.000123982
0.000123346
0.000122706
0.000123829
0.000123588
0.000123334
0.000123838
0.000123762
0.000124025
0.000123871
0.000123904
0.000118963
5.44605e-05
0.000123873
8.12495e-05
1.86208e-06
-3.80777e-07
0.000123838
0.000123806
0.000123994
0.000124038
0.000124032
0.000124028
0.000124034
0.000123825
-2.30674e-06
0.000122782
0.000123866
0.00012397
0.000121968
0.000124027
0.000124028
0.000122248
0.000123944
0.000123995
0.000121648
0.000124037
7.63202e-05
0.000124026
0.000123745
0.000123987
0.000122332
0.00012355
0.000123627
0.000123875
0.000124039
0.000123979
0.000124026
0.00012404
0.000123828
0.000116132
)
;

boundaryField
{
    back
    {
        type            empty;
    }
    ingreso
    {
        type            zeroGradient;
    }
    salida
    {
        type            fixedValue;
        value           uniform 0;
    }
    front
    {
        type            empty;
    }
    defaultFaces
    {
        type            zeroGradient;
    }
}


// ************************************************************************* //
