/*--------------------------------*- C++ -*----------------------------------*\
  =========                 |
  \\      /  F ield         | OpenFOAM: The Open Source CFD Toolbox
   \\    /   O peration     | Website:  https://openfoam.org
    \\  /    A nd           | Version:  7
     \\/     M anipulation  |
\*---------------------------------------------------------------------------*/
FoamFile
{
    version     2.0;
    format      ascii;
    class       surfaceScalarField;
    location    "99";
    object      phi;
}
// * * * * * * * * * * * * * * * * * * * * * * * * * * * * * * * * * * * * * //

dimensions      [0 3 -1 0 0 0 0];

internalField   nonuniform List<scalar> 
1111
(
7.02819e-09
1.29375e-08
-1.60458e-08
-3.91988e-09
6.97296e-09
-1.17897e-08
1.18449e-08
-1.47429e-08
5.76467e-09
8.83751e-09
1.40754e-10
9.16041e-10
-1.0597e-09
-1.43794e-08
1.45231e-08
-1.4342e-08
1.41402e-08
1.11782e-09
-1.62012e-09
1.49146e-08
2.13404e-09
-2.78477e-09
9.43668e-09
-9.47702e-09
2.82511e-09
-6.72221e-09
-1.26124e-08
1.25979e-08
6.73679e-09
-5.02248e-08
-2.60881e-08
7.63129e-08
-8.11228e-09
7.71647e-09
7.36877e-09
3.29157e-09
3.71629e-10
-3.37176e-09
-2.91436e-10
1.58724e-08
-1.62556e-08
-2.325e-08
2.36332e-08
-9.66584e-09
-7.89823e-09
8.8028e-09
8.76128e-09
-3.55797e-08
1.77225e-08
-3.23547e-08
5.02119e-08
9.49647e-09
-1.96261e-09
-1.42561e-08
-4.61517e-10
1.44394e-09
-2.85876e-09
1.87634e-09
-3.95122e-09
1.33207e-08
1.97138e-09
-1.13408e-08
8.81164e-09
-2.67198e-09
-1.50546e-08
8.91492e-09
3.72186e-08
-2.98873e-08
-7.33122e-09
-1.94387e-08
3.26719e-10
1.72334e-08
1.87862e-09
-1.06793e-09
4.23617e-09
-1.7844e-08
1.46758e-08
-6.12255e-08
-3.96172e-09
6.51873e-08
1.37707e-10
-1.13169e-09
-3.28256e-10
1.32224e-09
-1.7712e-09
-1.36387e-08
-7.75821e-11
-2.27589e-10
1.69749e-10
1.35422e-10
-1.03882e-08
-8.57394e-09
1.31375e-08
5.82456e-09
6.82742e-10
-2.12892e-09
-8.258e-09
9.70418e-09
8.68098e-09
7.64239e-10
-9.73783e-09
2.92607e-10
-2.87619e-09
-8.04402e-09
1.11159e-08
-1.95708e-10
1.14103e-08
-1.02665e-09
-1.57198e-09
-7.92239e-10
7.98579e-10
-1.60253e-11
9.68507e-12
-7.10381e-11
6.6167e-10
1.94686e-10
-7.85318e-10
-4.14177e-10
-3.97878e-11
4.45877e-10
8.08712e-12
-5.13334e-11
-7.5665e-10
1.14303e-10
6.9368e-10
-1.08136e-10
-7.35436e-10
9.88002e-10
-1.83956e-08
-2.0311e-09
-3.36249e-10
3.79984e-11
-1.15926e-10
1.3381e-08
-1.32445e-08
4.09967e-09
-3.46161e-10
5.36784e-10
3.15609e-10
-5.06232e-10
-1.3912e-11
-1.28062e-09
1.10708e-09
1.87452e-10
-1.92189e-09
1.06333e-08
-1.14962e-08
-2.36068e-10
-1.43115e-10
4.29338e-11
-8.72926e-09
1.05395e-08
-9.92249e-09
1.22694e-08
-1.71438e-08
4.55697e-09
3.1744e-10
4.8755e-11
-1.39603e-10
-1.4522e-10
1.48288e-10
7.42003e-10
-9.1712e-11
-5.95249e-08
7.42325e-08
-1.47077e-08
9.96009e-10
-2.12414e-10
-1.10637e-09
3.22773e-10
1.14539e-09
1.0307e-08
-1.37134e-08
2.26102e-09
-1.84171e-09
7.80701e-09
-8.94888e-09
2.98357e-09
-6.74863e-09
5.59675e-09
5.69635e-09
-4.54447e-09
-7.7578e-09
-1.58773e-09
1.65668e-09
7.68885e-09
-1.80627e-10
-9.09149e-08
9.13004e-08
-2.04939e-10
-2.5581e-10
-8.97496e-08
9.01594e-08
-1.53949e-10
8.30781e-08
-1.49271e-09
1.10293e-10
-8.16957e-08
-2.80833e-09
-5.24329e-10
6.10017e-10
8.08494e-10
-4.22503e-10
3.90472e-09
-9.89388e-10
3.51025e-09
-6.42558e-09
-9.12828e-10
8.48702e-10
-1.49268e-08
6.57927e-09
9.88718e-09
1.0655e-09
-1.0671e-08
-2.81682e-10
-6.0823e-09
1.35319e-08
9.74789e-10
-8.4244e-09
1.43793e-08
-4.55697e-09
3.78293e-09
-1.36053e-08
1.53924e-08
1.67464e-09
-1.63819e-09
-1.99375e-10
-2.00657e-08
-7.42454e-09
2.76896e-08
1.44674e-08
-8.81732e-09
-1.88006e-09
8.0219e-09
-1.22241e-08
3.01832e-11
2.50143e-11
-1.16156e-09
-3.61513e-08
-2.33736e-08
8.33618e-09
2.94722e-10
3.63852e-09
-6.98829e-09
1.12098e-08
6.31799e-09
-5.62471e-10
2.94426e-10
4.53844e-10
-1.85798e-10
5.71245e-09
-4.80611e-09
3.67672e-09
-4.58306e-09
-4.04713e-10
-5.98399e-10
2.46462e-10
6.0736e-10
-5.32845e-10
1.85004e-11
-7.31262e-10
6.41723e-10
-1.81933e-08
2.40579e-09
1.58479e-09
1.42027e-08
1.99939e-10
-6.53459e-10
-1.0895e-10
-4.18931e-09
-1.51643e-08
1.16037e-09
5.61153e-09
1.20935e-08
-5.23268e-09
-1.24724e-08
1.63999e-08
7.28299e-10
-1.58623e-08
-1.2659e-09
-6.42993e-10
4.21729e-10
5.15689e-10
-3.04483e-10
1.46358e-10
1.58125e-10
-7.46299e-09
-3.51998e-09
4.23434e-09
-1.94562e-10
3.06082e-10
-1.1152e-10
1.09486e-09
-1.56723e-08
-7.77496e-10
9.9938e-09
-1.11382e-08
-8.98671e-10
-2.85982e-10
1.29592e-08
4.44591e-09
-4.18662e-09
-1.32185e-08
6.87765e-11
7.19354e-09
-7.97392e-09
6.37712e-09
-1.61445e-09
-9.04409e-09
8.24735e-09
2.41119e-09
-1.93017e-09
6.87835e-10
-1.3922e-08
-1.03845e-10
-9.07177e-11
3.15756e-10
6.63274e-10
-8.73683e-09
7.65877e-10
1.72739e-08
-1.63985e-09
-1.20311e-08
1.34102e-08
-1.37908e-09
1.22526e-08
1.39273e-08
-1.54965e-08
-1.06835e-08
-4.8748e-10
9.11213e-10
-4.23733e-10
2.44926e-10
-8.50426e-11
-1.59884e-10
9.89545e-11
3.6325e-10
-4.62205e-10
1.30471e-09
-1.04892e-09
-2.5579e-10
-1.05389e-08
9.26619e-10
9.61225e-09
1.92486e-09
-6.20152e-10
8.97565e-09
-1.54127e-08
7.7676e-09
-9.29355e-09
6.19087e-11
3.63528e-09
-4.05624e-10
-2.29649e-09
2.3584e-09
-6.46101e-09
7.79684e-09
-1.33584e-09
-4.8347e-10
4.27774e-09
1.10447e-10
1.72616e-08
-1.44783e-08
-1.63788e-09
-6.12526e-09
5.43407e-09
-2.98195e-10
-1.81399e-10
5.77827e-09
-5.75999e-09
-1.82772e-11
6.85585e-09
4.55295e-09
-4.10562e-11
-1.59431e-08
1.04702e-08
1.77255e-08
5.80314e-09
8.24625e-09
8.18024e-09
-6.84949e-09
1.40985e-09
-1.19487e-08
2.4572e-10
1.43603e-09
-1.30062e-08
2.7801e-09
-4.21703e-10
1.12652e-08
-1.05369e-08
-2.75701e-10
-7.31106e-10
-1.38196e-08
7.72981e-09
7.00615e-10
2.75029e-12
-8.88864e-09
5.00068e-09
-3.00867e-08
-1.25161e-08
-2.82969e-09
1.52617e-09
1.41127e-08
1.10638e-08
-1.08218e-08
-1.43546e-08
1.53839e-08
-3.1525e-09
-1.22314e-08
1.60733e-09
3.99716e-09
-9.70374e-10
-8.84651e-10
-8.24995e-10
1.11561e-09
5.94034e-10
-2.19457e-10
3.38193e-10
3.35107e-10
6.21432e-08
-6.21693e-08
2.61074e-11
6.20629e-08
-6.23671e-08
3.04182e-10
8.37403e-10
6.47315e-08
-6.55586e-08
8.27123e-10
6.41236e-08
6.0787e-10
-2.2389e-10
-6.65042e-08
9.45527e-10
-6.20591e-08
6.19243e-08
1.3484e-10
1.3153e-09
-6.78195e-08
-6.22192e-08
1.60049e-10
1.26671e-08
-6.28801e-10
1.24541e-09
-3.69838e-09
3.08177e-09
2.98949e-10
-1.16125e-09
8.86614e-10
-5.3451e-10
1.36946e-09
-1.59658e-09
7.61629e-10
1.37299e-09
-1.45861e-09
1.10638e-10
-4.45563e-11
-3.44729e-09
2.7047e-09
-1.93157e-09
2.67417e-09
-3.93397e-10
-2.7151e-09
2.4797e-09
-3.51259e-09
-5.83799e-09
5.71619e-10
-5.88121e-10
1.15878e-09
1.09729e-09
-6.45408e-09
7.8915e-09
3.11553e-09
1.97366e-08
-4.35273e-09
-6.79569e-10
2.80762e-10
9.70426e-10
-1.00903e-08
-2.6061e-08
5.27949e-09
-4.23486e-09
-3.1859e-09
2.14126e-09
9.53242e-11
2.46671e-11
3.25886e-10
-2.5253e-09
3.30966e-09
8.9903e-09
7.05435e-10
-1.84396e-10
2.07184e-09
-2.28084e-09
1.79527e-09
1.47139e-08
1.33262e-08
-2.69299e-08
3.27119e-08
6.32442e-09
-2.28392e-08
-1.04151e-08
1.85258e-08
-1.80131e-08
1.05511e-08
-4.31853e-11
-2.2363e-10
-1.1918e-09
-1.67033e-09
-2.88934e-09
3.37714e-09
1.51468e-08
-6.2484e-10
-1.38341e-08
-7.65315e-10
-2.26639e-09
3.16609e-10
1.54715e-08
1.77681e-08
1.37006e-08
7.48665e-10
-1.71907e-09
-1.27302e-08
-1.48045e-09
5.97786e-09
1.25928e-08
-4.50876e-10
-1.01567e-09
-3.65061e-09
2.79868e-09
3.55663e-09
2.50213e-09
1.45249e-08
4.29149e-09
-1.43705e-08
1.80682e-08
-1.76109e-09
2.4224e-09
-3.34755e-09
1.91138e-09
-4.94545e-09
1.29351e-08
-1.19409e-08
-1.40497e-08
3.12181e-10
8.79203e-09
-1.78862e-09
1.49334e-09
1.45406e-09
-8.66226e-09
7.03913e-10
-4.55771e-09
-5.99417e-09
1.21814e-08
-1.48495e-08
1.04485e-09
1.67678e-09
-2.20195e-09
1.68263e-08
-1.63011e-08
-1.11681e-09
1.41926e-08
3.0961e-09
-4.46596e-09
-1.40428e-08
7.58049e-09
-1.74214e-08
-8.17214e-09
6.86119e-09
5.87386e-09
1.46289e-08
-1.00627e-08
3.01392e-09
9.46001e-09
9.83248e-09
3.86216e-09
-4.21233e-09
2.17811e-08
-1.92412e-08
5.04064e-09
-1.06252e-08
2.16983e-09
5.68761e-09
1.39654e-08
-3.48207e-10
1.2816e-08
-1.35846e-08
-1.92969e-09
1.70354e-09
-6.99397e-10
9.25545e-10
1.10719e-08
-6.3679e-09
7.38958e-09
-1.10208e-08
1.46107e-09
-4.74453e-09
1.1507e-08
-1.19952e-08
-7.58195e-09
9.23304e-09
9.42077e-09
1.29429e-08
5.7989e-10
-1.3871e-08
1.43248e-09
7.80422e-10
-1.1149e-08
-6.72598e-09
1.0293e-08
-1.3621e-09
2.5123e-09
-8.99428e-09
4.7771e-09
-5.30252e-09
1.16216e-08
-3.4764e-09
-1.18379e-08
3.6927e-09
-4.46885e-09
1.13459e-08
1.81296e-09
1.11286e-09
-5.0516e-09
-1.78441e-08
1.05262e-08
1.23695e-08
7.25148e-10
-1.10564e-08
-1.00415e-08
1.60463e-08
1.26366e-08
2.87564e-09
-9.82463e-09
-1.33389e-08
-3.25285e-10
-1.27602e-08
1.62146e-10
-7.68167e-10
1.17219e-08
1.25511e-08
-8.23824e-09
1.66962e-08
-1.60642e-08
3.65951e-09
-4.9414e-10
1.78948e-09
1.29074e-08
-3.93168e-09
-1.27273e-08
-5.02138e-09
1.85249e-09
4.60492e-09
1.23352e-08
-7.24046e-09
9.7702e-10
-1.66583e-09
5.56071e-10
-8.19928e-10
5.92123e-09
2.64109e-08
-5.41104e-11
-9.50957e-09
9.56368e-09
2.86095e-08
-2.23616e-08
2.21142e-08
1.97682e-08
-1.27211e-08
-2.7038e-09
1.51353e-08
1.6423e-10
-1.21446e-08
-4.51322e-10
-6.00985e-09
-1.84825e-09
2.18311e-09
1.47811e-09
-4.61232e-10
-1.11424e-08
1.15773e-08
2.63761e-11
3.03947e-09
-5.07728e-09
-1.1155e-08
1.06925e-08
-9.21534e-10
-1.08674e-08
-2.37832e-10
-1.13547e-08
-2.49678e-09
-1.20846e-08
2.16244e-09
7.89784e-09
5.14862e-09
-4.5857e-10
-1.18226e-08
1.18199e-08
5.58756e-10
-8.87466e-09
5.13508e-09
-1.54958e-09
2.19545e-09
-2.0088e-09
-1.30599e-08
-1.25301e-08
1.20174e-08
-1.01784e-08
-1.58091e-08
1.00444e-08
9.29285e-09
8.1934e-10
2.71064e-09
-1.22202e-08
1.15197e-08
1.66328e-09
3.89501e-09
2.7752e-10
-4.73761e-10
-2.08472e-10
-4.15498e-09
2.51492e-09
-6.26333e-10
1.63414e-10
-1.92588e-10
2.91749e-11
-2.70101e-09
1.31015e-08
2.23609e-09
2.53459e-09
1.5175e-10
-1.34328e-09
-5.50687e-10
-2.28767e-09
-2.47402e-10
1.30539e-08
1.01186e-08
-3.08616e-10
6.77659e-09
-1.24403e-09
-5.22394e-09
-9.83242e-09
-5.136e-09
1.23801e-10
3.96129e-11
4.87255e-09
1.3355e-09
-1.72645e-08
-3.13939e-10
-7.35336e-10
-2.77923e-09
1.02775e-09
3.11811e-09
6.19457e-08
-8.56524e-11
-6.186e-08
6.23702e-08
1.89054e-10
-6.25593e-08
-1.41149e-08
-2.80299e-10
1.44621e-08
-6.68316e-11
3.1404e-09
-1.76825e-09
2.47974e-09
1.80081e-09
-4.52174e-09
-2.85581e-10
-5.00868e-10
4.06618e-10
-9.15489e-11
4.02308e-10
-2.67903e-10
1.97265e-08
1.04392e-09
-1.58979e-08
-1.2603e-10
-1.93785e-09
1.2563e-08
2.28222e-09
1.80635e-09
5.34549e-09
-2.12671e-09
-7.72329e-08
-2.4178e-08
-4.98954e-09
1.58471e-08
2.46315e-09
-1.07321e-11
-2.90327e-09
-1.03867e-09
2.80307e-10
-2.57305e-10
-9.83977e-09
-3.65796e-10
1.02056e-08
-1.08868e-08
-6.58093e-09
1.07418e-08
-9.49916e-09
8.75113e-09
2.4526e-10
1.44755e-09
9.38077e-09
-9.33195e-09
-4.8817e-11
5.74054e-10
8.68248e-11
1.0797e-08
5.42465e-10
-7.2842e-10
-6.49883e-11
-1.4248e-08
-4.59e-10
-1.3842e-08
1.27301e-08
-1.18999e-08
-6.60355e-08
6.4992e-08
1.04344e-09
2.21421e-10
-1.96754e-10
1.20606e-08
-2.00183e-10
7.59482e-12
-2.07285e-09
2.75724e-09
-3.41948e-09
-1.347e-08
-1.62416e-09
2.57462e-09
-4.69129e-09
-1.41309e-08
1.55773e-09
5.55074e-09
9.70298e-09
-9.07091e-09
-2.23268e-10
2.30842e-11
-9.30637e-09
-1.34012e-08
1.51056e-10
-6.26959e-08
2.36266e-10
6.24596e-08
6.95235e-10
6.34284e-08
-2.23661e-10
-1.64931e-09
-1.45013e-08
1.07981e-10
-6.34065e-08
6.32985e-08
1.83495e-10
-6.29477e-08
6.27642e-08
3.24039e-10
6.17995e-08
1.50258e-10
-6.19498e-08
6.16308e-08
1.68738e-10
-8.78896e-08
8.84989e-08
-1.37123e-12
9.33938e-08
-9.31003e-08
-2.67334e-10
-8.66288e-08
-4.33709e-10
9.33528e-08
-1.82918e-10
-8.49156e-08
-7.67658e-10
9.34835e-08
1.73436e-10
-5.22239e-10
1.96131e-09
9.23596e-08
-6.93122e-08
6.21401e-08
-6.23207e-08
-6.29517e-08
6.14884e-08
1.42332e-10
-3.13864e-09
2.95576e-09
-1.41876e-08
4.50588e-11
7.87416e-11
1.22422e-09
8.71282e-09
-1.13848e-08
3.83157e-08
-3.45496e-08
-1.67723e-08
1.38084e-08
-3.57648e-11
-2.05043e-10
1.35579e-10
5.8916e-10
-1.19021e-10
3.06181e-10
4.43565e-09
1.0452e-09
-3.56948e-09
-1.50668e-10
1.88667e-10
-1.07734e-10
-2.58617e-09
1.32484e-08
2.43924e-09
-1.44279e-08
-2.6303e-09
-3.28851e-09
5.52909e-09
1.04782e-09
-2.62698e-09
1.43328e-08
-1.17964e-09
-1.7454e-09
1.83206e-09
-8.11723e-09
-1.90747e-08
-1.35023e-08
8.02562e-09
5.78884e-09
-2.0402e-10
-5.6761e-10
2.95473e-09
1.44875e-08
2.28687e-09
-1.85972e-09
-3.71996e-10
4.22273e-10
-2.31676e-10
1.59329e-08
-5.9534e-10
-1.57034e-08
6.5448e-11
-1.63715e-10
3.3136e-10
-2.60767e-10
3.42346e-09
-1.62768e-08
4.33948e-10
-1.49527e-09
-2.08051e-09
-2.29351e-09
1.57129e-08
-9.05925e-08
-1.38874e-10
9.16798e-08
-1.90345e-10
-8.91649e-08
-4.76714e-10
9.3103e-08
-2.75203e-10
-9.29135e-08
-5.40071e-10
-1.57535e-09
1.68377e-08
9.19811e-08
-1.96831e-10
2.91577e-11
-2.20941e-10
9.76822e-09
2.47461e-09
-7.30258e-09
-1.22342e-08
-5.67724e-09
8.40302e-09
1.49969e-09
-6.78718e-09
-5.99065e-09
9.04321e-09
-5.89791e-11
1.01363e-08
1.95012e-08
-1.79886e-08
3.08608e-09
-1.27499e-08
3.10867e-09
-6.99663e-08
3.93082e-09
-2.0602e-08
-1.30631e-08
-4.66975e-10
-5.9326e-09
-1.52939e-08
9.08187e-09
-1.51185e-08
4.05778e-10
3.43404e-10
-1.92264e-09
-1.66886e-08
1.70995e-08
7.16183e-09
-7.68616e-09
-4.5589e-09
1.53104e-08
-1.67756e-09
6.99946e-10
-8.63935e-10
9.16176e-11
1.19673e-08
3.32065e-09
7.09119e-08
-1.8249e-08
7.05213e-10
-1.50454e-08
-2.23815e-10
-2.59703e-10
-1.11684e-10
6.0951e-08
-6.12262e-08
-6.33773e-08
-6.31446e-08
-6.42547e-11
-2.62183e-10
-9.25871e-08
-6.04533e-08
6.24146e-08
6.51023e-08
-6.02798e-08
6.45801e-08
-6.04627e-08
6.38124e-08
-6.07301e-08
6.33787e-08
9.23099e-08
2.63996e-10
-6.34662e-09
7.51216e-08
-6.54544e-08
3.1735e-11
-3.1735e-11
1.33512e-10
-3.14149e-10
1.54793e-08
-1.52251e-11
1.52251e-11
3.10651e-10
1.52097e-09
1.39078e-08
1.34259e-08
-2.71787e-09
3.71865e-09
6.63922e-09
1.7882e-09
3.54089e-10
-2.39711e-10
-2.9725e-09
1.45848e-08
1.48447e-08
-4.2892e-09
1.18198e-08
1.71202e-10
1.37852e-10
2.7113e-09
-7.97955e-10
-1.50773e-09
-5.84254e-09
-2.0419e-10
-3.8382e-10
1.53108e-08
2.37758e-10
5.35515e-11
1.43982e-08
-2.62413e-08
1.7815e-08
2.67081e-09
1.2362e-09
2.5008e-09
-3.7224e-09
1.93521e-08
-1.81304e-08
-7.21101e-11
8.32646e-11
-1.44103e-09
-7.92112e-08
-7.07532e-08
1.27625e-09
-4.28025e-10
6.2515e-10
2.30066e-08
1.86088e-08
-6.38014e-09
7.49301e-11
-4.25105e-09
-2.52303e-09
2.99501e-08
1.5871e-10
1.48183e-08
7.35796e-08
4.37539e-11
5.08896e-10
-1.46098e-10
-2.04322e-10
-3.61148e-09
2.43109e-08
-1.48692e-08
9.31493e-10
-1.41912e-08
-4.70062e-11
2.03984e-08
-2.87286e-08
9.48179e-10
1.8975e-09
-2.37793e-10
)
;

boundaryField
{
    back
    {
        type            empty;
        value           nonuniform 0();
    }
    ingreso
    {
        type            calculated;
        value           nonuniform List<scalar> 
14
(
-1.54286e-08
-1.54288e-08
-1.54288e-08
-1.54288e-08
-1.54286e-08
-1.54283e-08
-1.54288e-08
-1.54288e-08
-1.54286e-08
-1.54286e-08
-1.54288e-08
-1.5428e-08
-1.5428e-08
-1.54286e-08
)
;
    }
    salida
    {
        type            calculated;
        value           nonuniform List<scalar> 2(1.01411e-07 1.14589e-07);
    }
    front
    {
        type            empty;
        value           nonuniform 0();
    }
    defaultFaces
    {
        type            calculated;
        value           uniform 0;
    }
}


// ************************************************************************* //
