/*--------------------------------*- C++ -*----------------------------------*\
  =========                 |
  \\      /  F ield         | OpenFOAM: The Open Source CFD Toolbox
   \\    /   O peration     | Website:  https://openfoam.org
    \\  /    A nd           | Version:  8
     \\/     M anipulation  |
\*---------------------------------------------------------------------------*/
FoamFile
{
    version     2.0;
    format      ascii;
    class       volScalarField;
    location    "2.4";
    object      p;
}
// * * * * * * * * * * * * * * * * * * * * * * * * * * * * * * * * * * * * * //

dimensions      [0 2 -2 0 0 0 0];

internalField   nonuniform List<scalar> 
3080
(
5.12379e-05
4.85664e-05
5.12383e-05
5.12498e-05
5.01928e-05
5.10963e-05
5.10722e-05
3.34502e-05
5.11929e-05
5.14031e-05
5.12638e-05
5.14468e-05
4.70868e-05
4.99028e-05
5.12664e-05
4.92156e-05
5.12753e-05
5.11638e-05
5.12572e-05
5.09485e-05
3.63868e-05
5.07663e-05
5.05802e-05
3.28338e-05
5.02727e-05
4.91725e-05
5.10139e-05
4.94918e-05
5.12496e-05
4.9601e-05
4.4277e-05
3.61642e-05
4.86626e-05
3.58492e-05
4.01624e-05
5.13647e-05
5.09564e-05
4.1775e-05
5.116e-05
4.94275e-05
5.12248e-05
5.11831e-05
5.1539e-05
5.12008e-05
4.9433e-05
5.1265e-05
5.10965e-05
5.12417e-05
5.12024e-05
4.87734e-05
5.11894e-05
4.26028e-05
5.05583e-05
5.11788e-05
4.96818e-05
5.12434e-05
5.1218e-05
4.53245e-06
4.09653e-05
5.12184e-05
5.16107e-06
5.36994e-06
6.52679e-06
5.12973e-05
6.36753e-06
6.62202e-06
5.11262e-05
5.11298e-05
3.71265e-06
8.56667e-06
5.10945e-05
5.67959e-06
3.83127e-05
1.06192e-05
5.12047e-05
3.73375e-05
5.11961e-05
7.7157e-06
5.11493e-05
5.12032e-05
4.90709e-05
5.11421e-05
1.26736e-05
4.41657e-05
5.0869e-05
9.76335e-06
5.09923e-05
1.5042e-05
1.56297e-05
5.10352e-05
1.18165e-05
1.47298e-05
2.417e-06
1.38184e-05
1.43609e-05
5.12148e-05
1.38725e-05
1.70485e-05
1.77121e-05
5.11558e-05
5.10987e-05
4.39945e-06
4.57462e-06
3.73554e-05
5.08943e-05
4.98675e-05
5.11804e-05
1.593e-05
1.58267e-05
1.64455e-05
1.90584e-05
1.97985e-05
5.11728e-05
7.69408e-06
8.00042e-06
3.43233e-05
5.08892e-05
3.13538e-06
3.25222e-06
1.7835e-05
1.85297e-05
5.12908e-05
5.10375e-05
9.02709e-06
9.38512e-06
5.12166e-05
5.11936e-05
2.24011e-05
2.32675e-05
4.93951e-05
1.0364e-05
1.07733e-05
5.10993e-05
1.17015e-05
1.21616e-05
5.12568e-05
5.10929e-05
5.12294e-05
2.44102e-05
2.53531e-05
2.34711e-05
2.2272e-05
5.119e-05
1.30369e-05
1.35482e-05
4.89294e-05
5.12018e-05
2.11851e-05
2.20067e-05
5.81824e-06
6.05314e-06
5.12224e-05
5.11761e-05
5.10144e-05
5.12116e-05
2.64204e-05
2.744e-05
3.94434e-05
5.18526e-06
5.10747e-05
2.55262e-05
2.85452e-05
2.96521e-05
4.96686e-05
3.23789e-06
2.43271e-05
5.12345e-05
5.11287e-05
7.20653e-06
2.31927e-05
2.40905e-05
5.10732e-05
3.24896e-05
2.75904e-05
4.04295e-05
9.25244e-06
3.1737e-05
3.0577e-05
5.12171e-05
4.78979e-07
4.77406e-07
4.62167e-07
1.73021e-05
2.63793e-05
3.72595e-05
5.11262e-05
2.96605e-05
1.1306e-05
2.51955e-05
2.6174e-05
5.11191e-05
1.86746e-05
5.08243e-05
3.53923e-05
5.11875e-05
2.0395e-05
2.1186e-05
5.11452e-05
2.92113e-05
3.03497e-05
3.86457e-06
4.02153e-06
1.33627e-05
3.37755e-05
2.00462e-05
2.98011e-05
3.09212e-05
2.84325e-05
3.17738e-05
5.11929e-05
1.4491e-05
1.5059e-05
5.08229e-05
5.12155e-05
4.91594e-05
5.11522e-05
2.14146e-05
3.24302e-05
3.12729e-05
1.54181e-05
7.14124e-06
7.42786e-06
3.29758e-05
1.65011e-05
1.7145e-05
5.08424e-05
5.06358e-05
5.09509e-05
8.47252e-06
8.81091e-06
3.56468e-05
5.08673e-05
3.4381e-05
3.04724e-05
5.09224e-05
3.48606e-05
3.41351e-05
9.80867e-06
1.01983e-05
5.12456e-05
1.85092e-05
1.92291e-05
5.09931e-05
3.20021e-05
1.39068e-06
1.32235e-06
1.37221e-06
3.27163e-05
5.14137e-05
1.11446e-05
1.15852e-05
4.65127e-05
3.08604e-05
2.65222e-06
2.75426e-06
4.80255e-05
3.01486e-05
1.24822e-05
1.29737e-05
3.48666e-05
5.12363e-05
2.77693e-05
2.88313e-05
2.98985e-05
2.87958e-05
3.0611e-05
2.9473e-05
5.11912e-05
2.85075e-05
2.74501e-05
5.11887e-05
2.18559e-05
2.2703e-05
2.29584e-05
2.98709e-05
5.08739e-05
2.71185e-05
2.61123e-05
5.12418e-05
2.57315e-05
2.47721e-05
3.34097e-05
2.43443e-05
2.34365e-05
3.54994e-05
2.9206e-05
2.81257e-05
2.97399e-05
1.67906e-05
2.22527e-05
2.14217e-05
2.90563e-05
2.38637e-05
2.47867e-05
2.50114e-05
2.08656e-05
2.00852e-05
3.84735e-05
9.01555e-07
9.00881e-07
9.36971e-07
2.8369e-05
2.70003e-05
1.94737e-05
1.87441e-05
1.81615e-05
1.80849e-05
1.74075e-05
2.78232e-05
2.67945e-05
2.4951e-05
5.11946e-05
1.66936e-05
1.60655e-05
3.31934e-05
2.28959e-05
3.56039e-05
2.76852e-05
1.45916e-05
1.4039e-05
2.63169e-05
2.58655e-05
2.68725e-05
5.11794e-05
2.70638e-05
1.95323e-05
2.08317e-05
1.25157e-05
1.20426e-05
2.36682e-05
2.27868e-05
2.64355e-05
2.54543e-05
1.11463e-05
1.07193e-05
1.87731e-05
9.74975e-06
9.3766e-06
1.74033e-05
2.0902e-05
2.42648e-05
1.98485e-05
2.06192e-05
7.6449e-06
7.34629e-06
5.11242e-05
1.53428e-05
2.91141e-05
6.26316e-06
6.01648e-06
4.25235e-05
2.50487e-05
2.41195e-05
2.56359e-05
5.12308e-05
1.32851e-05
5.11721e-05
3.99547e-06
4.16844e-06
4.82698e-05
5.11749e-05
2.22081e-05
1.1229e-05
9.17094e-06
3.11412e-05
7.10784e-06
5.0833e-05
5.02312e-06
2.29647e-05
2.21094e-05
5.11665e-05
2.3582e-05
4.83365e-05
3.66675e-05
1.94576e-05
5.09104e-05
3.69293e-05
2.15658e-05
2.07604e-05
5.11918e-05
4.93066e-05
5.12025e-05
5.12616e-05
1.52937e-05
1.47166e-05
2.1523e-05
3.06988e-06
1.60297e-05
2.01843e-05
1.94302e-05
5.12023e-05
2.71961e-05
2.82622e-05
3.58382e-05
1.32121e-05
1.27119e-05
5.11096e-05
2.01423e-05
3.12771e-05
3.621e-05
5.11035e-05
1.39728e-05
3.0574e-05
5.11859e-05
1.87954e-05
1.80907e-05
4.97112e-05
1.19158e-05
1.80913e-05
1.74032e-05
1.67504e-05
5.10347e-05
3.50726e-05
8.34649e-06
8.02339e-06
4.97372e-05
9.85901e-06
1.67139e-05
1.60094e-05
1.54078e-05
5.11902e-05
5.0908e-05
7.79959e-06
1.16029e-06
1.1691e-06
1.09303e-06
5.1171e-05
2.6027e-06
2.51374e-06
5.12514e-05
1.46563e-05
1.39201e-05
1.33933e-05
4.86086e-06
4.66503e-06
5.12353e-05
5.00536e-05
5.11262e-05
5.09016e-05
5.03711e-05
3.90132e-06
3.7541e-06
5.11839e-05
5.72406e-06
7.0312e-06
7.3115e-06
1.87655e-06
1.95784e-06
1.90221e-06
5.11728e-05
8.36094e-06
8.69318e-06
9.69692e-06
1.00806e-05
1.10338e-05
1.14686e-05
1.23712e-05
1.28569e-05
1.25988e-05
5.11537e-05
1.18429e-05
1.13929e-05
2.33365e-06
2.42885e-06
1.40911e-06
1.39155e-06
1.44746e-06
4.53096e-05
1.97281e-05
2.04929e-05
4.87671e-05
5.11292e-05
5.12265e-05
1.04592e-05
1.00614e-05
5.11941e-05
4.82103e-05
4.71193e-05
5.12674e-05
2.70923e-05
2.81364e-05
1.0543e-05
5.11604e-05
5.1195e-05
5.11564e-05
2.59505e-06
2.69508e-06
1.66167e-05
1.79901e-05
5.06671e-05
9.06355e-06
8.71626e-06
1.93616e-05
3.64211e-05
2.07327e-05
5.12148e-05
4.70557e-05
5.11907e-05
5.12267e-05
5.12232e-05
4.91017e-05
5.11411e-05
5.10312e-05
8.48474e-06
2.42396e-06
5.11945e-05
5.05564e-05
4.80452e-05
5.11959e-05
3.35301e-05
5.10593e-05
6.96913e-06
6.69688e-06
5.12283e-05
4.42512e-05
5.10256e-05
3.62031e-06
5.11543e-05
5.1167e-05
5.11502e-05
3.62573e-05
5.12025e-05
5.70581e-06
5.93423e-06
6.41588e-06
5.0057e-05
5.11281e-05
5.56927e-06
5.34958e-06
5.11734e-05
5.11694e-05
5.11146e-05
7.02899e-06
5.08992e-05
5.00171e-06
5.02741e-05
5.12099e-05
9.07463e-06
1.43715e-05
1.49339e-05
5.02859e-05
5.12281e-05
1.70164e-05
1.63781e-05
1.11268e-05
1.91003e-05
1.83863e-05
5.11224e-05
2.25707e-05
2.17295e-05
2.4656e-05
2.37394e-05
2.67416e-05
2.57472e-05
1.31815e-05
5.11148e-05
3.64629e-05
5.11993e-05
5.0423e-05
1.52369e-05
5.12525e-05
5.11925e-05
3.02346e-06
3.17215e-05
3.25065e-06
3.37869e-06
5.08117e-05
5.11958e-05
4.85373e-05
5.11908e-05
2.2779e-05
2.48324e-05
2.68945e-05
5.12433e-05
3.10575e-05
2.89628e-05
4.96849e-05
3.55316e-05
5.03132e-05
5.11973e-05
5.12049e-05
4.99755e-05
5.10694e-05
5.11488e-05
5.12085e-05
5.1206e-05
5.1181e-05
4.6243e-05
5.11067e-05
3.81687e-05
5.11909e-05
5.11939e-05
5.02606e-05
5.00392e-05
4.99557e-05
5.11942e-05
4.87216e-05
5.0709e-05
5.13184e-05
5.08058e-05
5.12085e-05
5.11868e-05
5.11772e-05
3.54934e-05
5.11265e-05
5.11696e-05
4.86703e-05
5.11015e-05
5.12299e-05
3.20365e-05
5.12421e-05
5.11619e-05
5.11719e-05
5.11723e-05
5.08872e-05
3.64607e-06
5.11993e-05
4.32047e-06
5.11874e-05
4.95768e-05
3.72405e-05
3.19667e-05
5.03992e-05
5.11871e-05
5.12311e-05
5.12284e-05
5.11484e-05
5.12101e-05
5.11964e-05
5.12142e-05
5.12328e-05
5.11696e-05
5.07577e-05
5.12079e-05
5.10496e-05
5.11458e-05
5.07959e-05
3.39496e-05
5.12193e-05
5.11789e-05
4.52347e-05
5.12493e-05
5.11567e-05
4.89408e-05
5.02701e-05
4.51028e-05
5.11467e-05
5.11985e-05
5.06142e-05
5.12128e-05
5.12835e-05
5.1063e-05
5.04263e-05
5.12094e-05
5.02136e-05
5.11998e-05
5.09393e-05
5.12521e-05
5.12051e-05
5.11459e-05
4.03004e-06
3.87311e-06
5.10869e-05
5.00822e-05
5.12449e-05
5.00224e-05
5.12222e-05
5.12122e-05
5.11216e-05
5.13183e-05
3.33627e-05
5.12155e-05
5.1224e-05
5.12103e-05
5.12374e-05
5.10356e-05
5.12421e-05
5.12048e-05
5.11654e-05
5.11936e-05
5.11868e-05
5.12105e-05
5.12032e-05
5.12247e-05
5.11868e-05
5.12231e-05
5.12335e-05
5.12241e-05
5.11008e-05
5.11451e-05
5.11966e-05
5.11529e-05
5.11225e-05
5.11023e-05
5.12328e-05
5.1226e-05
5.11733e-05
5.11418e-05
4.94542e-05
5.12373e-05
5.05237e-05
5.1189e-05
5.1152e-05
5.04959e-05
5.04818e-05
5.11741e-05
3.7137e-05
5.15393e-05
5.03612e-05
5.11823e-05
5.11869e-05
5.12633e-05
5.12453e-05
5.11182e-05
5.12157e-05
5.11721e-05
5.12326e-05
5.12119e-05
5.12168e-05
5.01679e-05
5.0805e-05
5.12189e-05
5.12162e-05
5.11311e-05
5.05204e-05
5.12307e-05
5.1094e-05
5.12313e-05
4.98903e-05
5.0911e-05
5.1561e-05
5.1161e-05
5.1296e-05
5.1117e-05
5.12235e-05
5.12041e-05
5.12471e-05
5.12011e-05
5.10552e-05
5.12069e-05
5.12348e-05
5.1126e-05
5.12406e-05
5.04626e-05
3.76001e-06
5.11936e-05
5.05566e-05
5.1041e-05
5.1181e-05
5.12435e-05
5.11984e-05
5.11988e-05
5.12571e-05
5.14592e-05
5.10255e-05
5.11028e-05
4.9533e-05
5.12486e-05
5.11936e-05
5.12125e-05
5.0889e-05
5.11737e-05
5.12486e-05
5.12391e-05
5.12188e-05
5.12678e-05
5.09346e-05
5.12211e-05
5.12574e-05
5.11509e-05
5.122e-05
5.01594e-05
4.3005e-06
5.11132e-05
5.12816e-05
5.02691e-05
5.07859e-05
5.11833e-05
5.02063e-05
5.15175e-05
5.09872e-05
5.11087e-05
5.12398e-05
5.12151e-05
5.12364e-05
5.10842e-05
5.07806e-05
3.45826e-05
5.08653e-05
5.06444e-05
5.12932e-05
5.11771e-05
5.12351e-05
5.12541e-05
5.12198e-05
5.12151e-05
5.15362e-05
5.12458e-05
5.06091e-05
5.12642e-05
5.06339e-05
5.12272e-05
5.12569e-05
5.16053e-05
5.11556e-05
5.12128e-05
5.12329e-05
5.12163e-05
5.11934e-05
5.12689e-05
5.1111e-05
5.12479e-05
5.10642e-05
5.12399e-05
5.12239e-05
5.1127e-05
5.12051e-05
5.12048e-05
5.11517e-05
3.29528e-05
5.1241e-05
5.09693e-05
5.09368e-05
5.11872e-05
5.1191e-05
5.12167e-05
5.12339e-05
5.07746e-05
5.1253e-05
5.125e-05
5.12158e-05
5.12145e-05
5.11472e-05
5.16258e-05
5.11546e-05
5.1216e-05
5.11085e-05
5.12543e-05
5.11239e-05
5.11462e-05
5.1234e-05
5.08244e-05
5.10469e-05
5.15305e-05
5.11319e-05
5.12665e-05
5.12336e-05
5.11178e-05
5.12158e-05
5.11989e-05
5.11274e-05
5.11829e-05
5.12602e-05
5.11918e-05
5.12114e-05
5.11592e-05
5.11439e-05
5.11836e-05
5.10912e-05
5.12564e-05
5.12623e-05
5.12278e-05
5.11892e-05
5.05955e-05
5.11366e-05
5.12359e-05
4.69609e-06
4.51208e-06
5.11777e-05
5.12414e-05
5.11082e-05
5.07143e-05
5.07325e-05
4.97229e-06
5.11291e-05
5.11017e-05
5.12382e-05
5.12452e-05
5.11158e-05
5.11411e-05
5.11148e-05
5.06674e-05
5.14659e-05
5.05807e-05
5.06782e-05
5.06902e-05
5.12408e-05
5.12438e-05
5.06679e-05
5.11914e-05
5.11032e-05
5.10956e-05
5.1257e-05
5.06623e-05
5.03507e-05
5.12174e-05
5.1199e-05
5.12191e-05
4.4877e-05
5.12343e-05
5.08749e-05
5.1265e-05
5.06631e-05
5.12135e-05
5.05506e-05
5.07765e-05
5.12471e-05
5.05668e-05
5.07319e-05
5.10493e-05
5.11928e-05
5.13138e-05
4.9809e-05
5.04897e-05
5.07073e-05
5.0758e-05
5.12416e-05
5.10888e-05
5.12433e-05
5.08375e-05
5.05599e-05
5.11079e-05
5.09944e-05
5.10828e-05
5.10291e-05
5.06524e-05
5.08757e-05
5.04616e-05
5.64411e-06
5.12179e-05
5.12332e-05
5.13019e-05
5.37069e-06
5.16014e-06
5.09235e-05
4.84956e-06
4.65536e-06
5.10944e-05
4.98558e-05
5.12249e-05
5.1223e-05
5.10541e-05
5.12163e-05
5.09452e-05
5.10724e-05
5.11566e-05
5.11992e-05
5.09438e-05
5.12365e-05
5.10592e-05
5.11029e-05
5.09646e-05
5.09687e-05
5.81206e-06
6.04912e-06
3.30219e-05
5.09525e-05
5.07122e-05
5.12571e-05
5.09076e-05
5.1039e-05
5.10899e-05
5.12403e-05
5.11179e-05
4.96497e-05
5.08231e-05
4.97711e-05
5.09791e-05
5.15981e-05
5.08532e-05
5.12093e-05
5.11849e-05
5.83395e-06
5.10933e-05
4.98143e-05
5.08085e-05
5.07797e-05
5.10273e-05
5.08998e-05
6.32252e-06
5.12302e-05
5.13319e-05
5.02874e-05
5.0974e-05
6.73347e-06
6.47111e-06
5.04614e-05
5.09516e-05
3.57875e-06
3.43003e-06
3.24976e-05
5.12119e-05
5.07112e-05
5.09744e-05
7.00509e-06
5.0251e-05
5.12184e-05
5.05852e-05
5.11048e-05
5.11281e-05
7.1342e-06
7.42096e-06
5.11192e-05
7.69026e-06
5.09234e-05
5.09551e-05
5.03668e-05
5.08688e-05
7.89653e-06
8.37548e-06
5.12003e-05
8.1198e-06
7.80531e-06
5.11942e-05
9.05995e-06
8.47765e-06
8.8176e-06
8.04582e-06
8.36732e-06
5.00085e-05
9.74635e-06
5.11996e-05
9.15191e-06
9.51693e-06
9.94995e-06
1.0431e-05
3.12778e-05
9.8249e-06
1.02154e-05
1.11151e-05
3.47632e-05
1.09069e-05
1.0491e-05
1.1801e-05
1.15965e-05
1.11552e-05
1.20035e-05
1.24867e-05
1.22849e-05
1.18177e-05
1.31715e-05
1.38581e-05
1.2488e-05
1.29804e-05
1.4061e-05
1.31549e-05
1.36728e-05
1.4544e-05
1.27263e-05
1.32252e-05
1.52292e-05
1.43655e-05
1.38217e-05
1.59148e-05
1.44942e-05
1.50634e-05
1.66018e-05
1.61173e-05
1.57637e-05
1.51696e-05
1.53052e-05
1.47292e-05
1.72879e-05
1.58415e-05
1.6461e-05
1.71581e-05
1.65134e-05
1.79729e-05
1.78513e-05
1.71814e-05
1.86568e-05
1.85471e-05
1.78514e-05
1.93405e-05
1.85195e-05
1.92407e-05
1.74758e-05
9.93721e-06
3.32178e-05
3.55497e-05
3.27345e-05
2.99429e-05
3.11034e-05
4.69333e-06
4.51087e-06
1.71696e-05
1.78388e-05
9.50454e-06
9.14053e-06
1.95486e-05
3.18049e-05
3.06146e-05
1.40478e-05
2.84994e-05
1.91913e-05
3.25884e-05
1.99374e-05
5.85294e-06
3.35081e-05
2.43865e-05
2.23293e-05
2.03117e-06
1.9438e-06
3.13004e-05
3.88356e-06
1.61048e-05
1.5753e-05
1.51598e-05
2.89572e-05
2.78729e-05
3.20023e-05
2.00254e-05
2.54798e-05
2.45304e-05
3.92717e-05
2.75675e-05
2.65283e-05
1.0477e-05
1.19899e-05
1.36688e-05
1.31518e-05
1.08921e-05
1.99259e-05
1.91808e-05
3.25141e-05
6.73928e-06
6.47865e-06
3.057e-05
7.88732e-06
3.48985e-05
3.6339e-05
8.12003e-06
7.80768e-06
3.48371e-05
3.36836e-06
3.23805e-06
3.46951e-05
1.2279e-05
1.1813e-05
3.82342e-05
3.03637e-05
2.65481e-05
2.64434e-05
2.75769e-05
2.68834e-05
2.58808e-05
3.42809e-05
2.34669e-05
2.25932e-05
2.8268e-05
2.75588e-05
1.88457e-05
2.96671e-05
2.89657e-05
3.48577e-05
2.68776e-05
2.72188e-05
2.48293e-05
1.98586e-05
2.15847e-05
3.44836e-05
2.85653e-05
2.02173e-05
2.38801e-05
2.78938e-05
2.96102e-05
2.41449e-05
2.3459e-05
3.02813e-05
2.92324e-05
2.05298e-05
2.2024e-05
2.13266e-05
2.61971e-05
2.27226e-05
2.34163e-05
2.063e-05
2.32116e-05
2.77483e-05
2.52143e-05
2.18749e-05
2.55133e-05
2.89271e-05
2.20882e-05
3.4857e-05
3.31154e-05
2.12014e-05
3.37831e-05
2.82433e-05
2.97972e-05
2.41103e-05
2.36433e-05
2.13136e-05
2.05175e-05
2.48039e-05
3.1058e-05
2.2773e-05
2.56956e-05
3.31322e-05
2.61892e-05
2.33978e-05
2.25257e-05
2.25432e-05
3.38156e-05
2.07133e-05
2.45449e-05
3.24434e-05
2.1401e-05
3.10451e-05
2.98976e-05
3.51859e-05
3.17522e-05
3.05892e-05
2.5494e-05
3.40666e-05
3.4319e-05
3.51102e-05
3.26665e-05
3.09297e-05
2.99211e-05
5.08432e-05
3.08818e-05
3.1331e-05
3.06181e-05
3.19528e-05
5.09698e-05
5.11038e-05
5.10408e-05
3.18143e-05
5.11901e-05
5.12187e-05
5.09994e-05
2.94508e-05
5.09929e-05
5.09491e-05
5.11795e-05
5.11079e-05
5.11253e-05
3.32441e-05
5.0637e-05
2.98769e-05
5.09696e-05
5.10652e-05
5.08708e-05
5.05031e-05
5.06968e-05
4.93904e-05
3.01525e-05
3.25228e-05
5.10116e-05
5.07429e-05
3.23125e-05
5.10522e-05
5.0932e-05
2.91868e-05
5.11376e-05
5.08548e-05
5.12161e-05
5.12158e-05
5.12196e-05
5.1088e-05
5.08963e-05
5.11518e-05
5.11406e-05
4.91724e-05
5.09253e-05
5.08833e-05
5.12171e-05
4.99403e-05
2.60483e-05
2.50787e-05
5.11485e-05
5.1143e-05
5.13603e-05
5.11858e-05
3.15544e-05
5.05735e-05
5.11335e-05
5.07861e-05
5.05498e-05
5.12281e-05
5.01142e-05
5.11934e-05
5.07323e-05
5.10536e-05
5.1006e-05
5.07096e-05
5.11108e-05
5.04182e-05
5.11958e-05
5.10824e-05
5.13506e-05
5.09784e-05
5.08807e-05
5.06157e-05
5.10513e-05
5.11531e-05
5.10261e-05
5.12194e-05
5.12647e-05
5.11807e-05
5.11778e-05
5.12519e-05
5.12095e-05
5.04075e-05
5.10418e-05
5.12205e-05
5.10348e-05
2.97e-05
2.86076e-05
5.12496e-05
5.10435e-05
5.06514e-05
5.10494e-05
5.10188e-05
5.10765e-05
5.11157e-05
5.11606e-05
5.09862e-05
5.12516e-05
2.9172e-05
5.09714e-05
5.1193e-05
5.09264e-05
5.10989e-05
5.02934e-05
5.122e-05
5.02376e-05
5.09197e-05
5.12032e-05
5.06824e-05
5.09102e-05
5.11997e-05
5.07327e-05
5.06422e-05
5.11484e-05
5.12011e-05
5.10244e-05
5.11401e-05
5.12068e-05
5.12318e-05
3.549e-05
5.11848e-05
5.12508e-05
5.12392e-05
5.12195e-05
5.11253e-05
5.11402e-05
5.12043e-05
5.10058e-05
5.12445e-05
5.12055e-05
5.13396e-05
5.10296e-05
5.11166e-05
5.1258e-05
5.12288e-05
5.12207e-05
5.11997e-05
5.10716e-05
5.12281e-05
5.12014e-05
5.12246e-05
5.09411e-05
5.05282e-05
5.12017e-05
5.12435e-05
2.39625e-05
2.30709e-05
5.11912e-05
5.12362e-05
5.11699e-05
5.10955e-05
5.08169e-05
5.11188e-05
2.91967e-05
2.81139e-05
5.12849e-05
4.99637e-05
5.1029e-05
3.51253e-05
5.12023e-05
5.1072e-05
3.04099e-05
2.92829e-05
1.9627e-06
5.125e-05
5.10761e-05
5.10457e-05
5.12426e-05
5.12332e-05
5.12337e-05
5.12381e-05
5.1219e-05
5.11373e-05
5.11818e-05
5.10458e-05
5.13548e-05
5.13653e-05
5.03789e-05
5.1149e-05
5.12435e-05
5.11249e-05
5.11375e-05
5.12276e-05
5.10856e-05
5.11019e-05
5.11477e-05
5.1346e-05
5.12025e-05
5.12169e-05
5.12326e-05
5.12269e-05
5.06323e-05
5.12262e-05
5.06591e-05
5.12419e-05
5.11968e-05
5.02871e-05
5.01314e-05
5.11939e-05
5.12412e-05
5.12083e-05
5.12294e-05
5.13687e-05
5.09719e-05
5.12319e-05
5.0556e-05
5.14336e-05
5.10661e-05
5.09286e-05
5.06556e-05
5.11986e-05
5.11819e-05
5.12392e-05
5.10411e-05
2.832e-05
2.72764e-05
5.10136e-05
5.12111e-05
5.1146e-05
2.18791e-05
2.10628e-05
5.02042e-05
2.78147e-05
5.11138e-05
5.13034e-05
5.1239e-05
5.10855e-05
5.12688e-05
5.12299e-05
5.11785e-05
5.09768e-05
5.11539e-05
5.09983e-05
5.12161e-05
5.1309e-05
5.13098e-05
2.848e-05
5.12453e-05
5.11905e-05
5.10276e-05
5.12422e-05
5.04213e-05
5.13532e-05
5.12604e-05
5.12528e-05
5.11618e-05
5.00187e-05
5.11156e-05
4.95453e-05
5.08909e-05
5.10266e-05
5.11131e-05
5.11401e-05
5.13153e-05
5.11869e-05
5.11426e-05
5.1336e-05
5.07944e-05
5.12421e-05
5.08466e-05
5.11771e-05
5.1222e-05
5.12421e-05
5.10198e-05
5.12292e-05
5.12329e-05
5.10974e-05
5.10444e-05
5.12603e-05
5.11656e-05
5.12541e-05
5.12287e-05
5.1002e-05
5.08932e-05
3.0358e-05
5.12193e-05
5.12091e-05
5.11628e-05
5.12304e-05
5.11994e-05
5.087e-05
5.09421e-05
5.08951e-05
5.12214e-05
5.11596e-05
5.12088e-05
5.07067e-05
5.12241e-05
5.08063e-05
5.11827e-05
5.10474e-05
5.12168e-05
5.12063e-05
5.12048e-05
5.11494e-05
5.1144e-05
5.11469e-05
5.12206e-05
5.11562e-05
5.11414e-05
5.07256e-05
5.05659e-05
5.12101e-05
5.11815e-05
5.1148e-05
5.1169e-05
5.08649e-05
5.01755e-05
2.78025e-05
2.67739e-05
5.12559e-05
5.11392e-05
2.7099e-05
5.12893e-05
5.0926e-05
5.12507e-05
5.11827e-05
5.12409e-05
5.12647e-05
5.13128e-05
5.11572e-05
2.98875e-05
2.87786e-05
5.12397e-05
5.12214e-05
5.11498e-05
5.11531e-05
5.12313e-05
5.13284e-05
5.1266e-05
5.1168e-05
5.12609e-05
5.13038e-05
5.1035e-05
2.77908e-05
5.12372e-05
5.12987e-05
5.12846e-05
5.122e-05
5.11198e-05
5.12438e-05
5.01695e-05
5.12228e-05
5.12193e-05
3.83086e-05
5.12385e-05
5.11961e-05
5.1245e-05
5.13252e-05
5.11431e-05
5.05281e-05
5.12479e-05
5.12404e-05
5.11719e-05
5.12538e-05
5.04822e-05
5.12153e-05
5.13209e-05
5.12101e-05
5.12889e-05
5.11512e-05
5.12286e-05
5.12043e-05
5.11881e-05
5.0906e-05
5.12281e-05
5.12116e-05
5.12459e-05
5.12408e-05
5.02516e-05
5.10602e-05
5.12589e-05
5.11507e-05
5.07341e-05
5.12601e-05
5.12334e-05
5.12499e-05
5.12388e-05
5.12532e-05
5.11963e-05
5.11225e-05
5.12589e-05
5.12281e-05
5.1334e-05
5.12356e-05
5.12607e-05
5.12204e-05
5.11449e-05
5.10828e-05
5.12252e-05
5.12426e-05
5.12582e-05
5.12474e-05
5.10841e-05
5.10955e-05
5.12581e-05
5.09779e-05
5.12383e-05
5.13035e-05
5.12153e-05
5.12234e-05
5.13091e-05
5.0952e-05
5.10816e-05
5.13507e-05
5.08483e-05
5.13419e-05
2.69301e-05
2.5934e-05
5.12178e-05
5.12099e-05
5.12649e-05
2.82807e-05
5.09989e-05
5.11966e-05
1.84069e-05
1.7718e-05
5.12136e-05
5.11604e-05
5.12213e-05
5.11775e-05
5.11569e-05
5.11792e-05
5.09734e-05
5.11452e-05
5.11467e-05
5.10417e-05
5.09427e-05
5.11647e-05
5.1152e-05
5.12722e-05
5.09213e-05
5.09278e-05
5.12434e-05
5.04245e-05
5.11197e-05
5.07811e-05
5.06896e-05
5.02368e-05
5.09688e-05
5.07269e-05
5.12001e-05
5.09818e-05
5.07605e-05
5.0414e-05
5.12679e-05
5.12583e-05
5.12311e-05
5.12083e-05
5.11468e-05
5.04739e-05
5.10867e-05
5.12446e-05
5.12458e-05
5.12158e-05
5.11532e-05
5.12066e-05
5.12086e-05
5.11726e-05
5.12012e-05
5.09713e-05
5.09771e-05
5.12019e-05
5.01066e-05
5.11627e-05
5.12554e-05
5.07538e-05
5.01491e-05
5.08858e-05
6.35793e-06
5.04814e-05
5.12561e-05
5.1206e-05
2.64131e-05
2.54326e-05
5.12477e-05
2.57571e-05
5.11717e-05
5.02921e-05
5.12902e-05
5.11241e-05
5.12448e-05
5.12591e-05
5.12526e-05
2.90151e-05
2.79475e-05
5.11091e-05
5.11698e-05
1.63234e-05
1.57104e-05
5.12084e-05
5.12233e-05
5.124e-05
4.99699e-05
5.13287e-05
5.1156e-05
5.02842e-05
5.11884e-05
5.12687e-05
2.71289e-05
5.02645e-05
5.12794e-05
5.11635e-05
5.12268e-05
2.62118e-05
5.11747e-05
8.39772e-06
5.12491e-05
5.05457e-05
5.09683e-05
5.12122e-05
5.10969e-05
5.09237e-05
5.09802e-05
5.12112e-05
5.12037e-05
5.11938e-05
5.11907e-05
5.0827e-05
5.11677e-05
5.11904e-05
5.12204e-05
5.11647e-05
5.09974e-05
5.12315e-05
5.14554e-05
1.04481e-05
5.11313e-05
5.10787e-05
5.12386e-05
5.11354e-05
5.12476e-05
2.55413e-05
2.45919e-05
2.50351e-05
5.12032e-05
5.11765e-05
5.1126e-05
4.35997e-06
5.10509e-05
5.1234e-05
5.12313e-05
5.12822e-05
1.42423e-05
1.37054e-05
5.12469e-05
5.12195e-05
1.25016e-05
5.11875e-05
5.1133e-05
5.1216e-05
-7.90175e-08
-8.56533e-08
-7.4599e-08
5.10988e-05
5.1247e-05
5.12028e-05
5.03813e-05
5.12775e-05
5.11294e-05
5.1205e-05
5.05755e-05
3.57439e-05
5.11385e-05
5.09037e-05
2.4154e-05
5.09864e-05
5.00124e-05
5.11623e-05
5.12181e-05
5.12099e-05
5.12218e-05
5.06531e-05
5.12467e-05
2.09988e-06
2.02516e-06
1.45568e-05
5.12723e-05
5.12618e-05
3.62625e-05
5.11263e-05
5.12512e-05
5.11843e-05
5.12207e-05
5.11768e-05
2.50228e-05
2.40945e-05
5.11816e-05
5.118e-05
5.11366e-05
5.11908e-05
5.11348e-05
5.12702e-05
5.11656e-05
2.8498e-05
2.74403e-05
5.09323e-05
5.13704e-05
5.11818e-05
5.12508e-05
5.11622e-05
5.12534e-05
5.12121e-05
5.1196e-05
5.12846e-05
5.05391e-05
5.12352e-05
5.12128e-05
5.09418e-05
5.12388e-05
5.12186e-05
5.1136e-05
5.11621e-05
2.20998e-05
5.12493e-05
5.05006e-06
5.25218e-06
5.11607e-05
2.37017e-05
2.41595e-05
2.326e-05
5.10367e-05
5.1177e-05
5.07363e-05
5.1145e-05
5.1187e-05
5.11472e-05
5.10731e-05
5.11521e-05
5.11621e-05
5.12537e-05
5.07665e-05
5.12393e-05
5.10444e-05
5.11896e-05
2.64073e-05
5.10821e-05
5.04846e-05
5.1196e-05
5.07269e-05
5.12392e-05
5.12376e-05
5.08528e-05
5.11601e-05
5.12115e-05
2.96215e-06
2.83576e-06
5.04169e-05
2.29794e-05
5.07414e-05
5.11656e-05
5.12568e-05
5.10485e-05
5.13154e-05
5.10997e-05
5.12084e-05
5.12464e-05
2.76318e-05
2.66131e-05
2.57197e-05
5.10447e-05
5.12286e-05
5.11696e-05
5.12524e-05
5.03168e-05
5.12031e-05
5.11736e-05
5.12506e-05
5.12945e-05
5.12624e-05
5.10884e-05
5.03265e-05
2.29361e-05
2.20825e-05
5.12451e-05
5.12111e-05
5.1204e-05
5.11205e-05
5.12912e-05
5.11832e-05
5.11668e-05
5.12614e-05
5.12116e-05
5.11937e-05
5.09954e-05
5.12088e-05
5.1166e-05
2.16431e-05
5.11792e-05
2.20612e-05
2.12371e-05
5.11839e-05
5.0395e-05
5.11551e-05
5.11817e-05
5.12654e-05
5.12489e-05
5.13096e-05
2.71003e-05
2.60924e-05
2.50706e-05
5.11975e-05
5.11912e-05
2.09203e-05
2.15482e-05
2.07443e-05
5.06322e-05
5.11137e-05
5.11504e-05
5.11694e-05
5.10891e-05
5.12412e-05
5.12051e-05
5.11113e-05
5.11883e-05
4.99185e-05
2.02736e-05
5.10369e-05
5.12501e-05
5.1205e-05
2.06797e-05
1.99072e-05
5.12509e-05
5.11827e-05
5.12039e-05
2.62414e-05
2.52688e-05
4.9609e-05
5.10522e-05
4.96712e-05
5.12272e-05
4.98729e-05
4.99533e-05
5.05095e-05
5.12496e-05
2.01624e-05
1.94099e-05
3.608e-05
2.43491e-05
4.98603e-05
5.12403e-05
1.88645e-05
1.92886e-05
1.85667e-05
2.84557e-05
2.95269e-05
3.05207e-05
3.16108e-05
2.36637e-05
2.57085e-05
2.47538e-05
5.12455e-05
5.06282e-05
5.11267e-05
3.36384e-05
5.12138e-05
5.12196e-05
1.8219e-05
1.87728e-05
1.80706e-05
5.12518e-05
5.11843e-05
5.11738e-05
4.74169e-05
3.95102e-05
5.12626e-05
5.11772e-05
5.12496e-05
2.92971e-06
1.74896e-05
5.11721e-05
1.79014e-05
1.72303e-05
5.11737e-05
4.99592e-05
5.11999e-05
2.30149e-05
2.48515e-05
2.39265e-05
1.68483e-05
4.88125e-05
1.73834e-05
1.6732e-05
5.09587e-05
5.11407e-05
5.12956e-05
5.12353e-05
5.02731e-05
5.11401e-05
5.12431e-05
5.11766e-05
5.12059e-05
1.65128e-05
1.58925e-05
5.09659e-05
5.12773e-05
4.04155e-05
5.12552e-05
2.43186e-05
2.34143e-05
5.08217e-05
4.84272e-05
1.54328e-05
1.59935e-05
1.53927e-05
5.11611e-05
5.12291e-05
5.1269e-05
5.12165e-05
5.12604e-05
5.11605e-05
4.98407e-05
5.10679e-05
5.12241e-05
2.22925e-05
5.12929e-05
5.12502e-05
1.47923e-05
5.12501e-05
5.11889e-05
2.62448e-06
5.1266e-05
5.11742e-05
5.12025e-05
5.13076e-05
5.13083e-05
5.1315e-05
3.35412e-05
2.1606e-05
5.12288e-05
5.11897e-05
2.36205e-05
2.27412e-05
4.98405e-05
5.12122e-05
5.11573e-05
5.1232e-05
1.44236e-05
1.3879e-05
5.11514e-05
5.11401e-05
5.12312e-05
5.12135e-05
5.1259e-05
5.12869e-05
5.11277e-05
5.10792e-05
5.12493e-05
1.33767e-05
5.0762e-05
3.82642e-05
1.39159e-05
1.33924e-05
3.6373e-05
5.12819e-05
4.22553e-05
5.12596e-05
5.02424e-05
5.01104e-05
2.09573e-05
1.27334e-05
2.27747e-05
2.19269e-05
4.86187e-05
5.125e-05
5.07114e-05
5.12119e-05
5.11377e-05
5.12018e-05
1.23375e-05
1.18695e-05
5.11233e-05
5.05974e-05
5.12979e-05
5.12474e-05
5.12819e-05
1.13208e-05
5.11873e-05
2.02331e-05
1.18336e-05
1.13845e-05
2.22366e-05
2.14064e-05
5.11758e-05
5.12232e-05
5.12401e-05
5.11303e-05
1.06781e-05
5.11885e-05
1.09587e-05
1.05414e-05
5.12853e-05
5.11718e-05
5.12275e-05
5.13038e-05
5.12699e-05
1.04398e-05
1.0043e-05
2.13766e-05
2.05781e-05
5.14942e-05
5.12058e-05
5.11307e-05
5.12576e-05
9.2672e-06
5.11835e-05
9.56573e-06
9.19963e-06
5.11364e-05
1.95885e-05
5.15231e-05
5.12022e-05
5.1206e-05
5.13041e-05
5.11402e-05
5.12529e-05
8.61951e-06
9.054e-06
8.70787e-06
5.1212e-05
1.89022e-05
5.10895e-05
5.12187e-05
2.085e-05
2.00714e-05
5.12315e-05
5.12265e-05
5.11662e-05
7.21298e-06
5.08935e-05
7.46892e-06
7.17822e-06
1.81771e-05
1.99912e-05
1.92443e-05
2.91219e-05
3.02219e-05
5.10898e-05
6.96435e-06
6.6954e-06
5.07842e-05
6.55146e-06
5.04427e-05
5.12083e-05
3.1294e-05
3.22955e-05
5.11328e-05
3.56483e-05
4.90734e-05
5.01382e-05
6.06663e-06
5.82794e-06
3.42693e-05
4.6067e-05
5.11964e-05
5.11882e-05
5.11429e-05
5.12681e-05
1.75326e-05
3.45193e-06
3.30884e-06
5.13231e-05
1.94567e-05
1.87284e-05
5.54982e-06
5.33108e-06
5.12167e-05
5.11694e-05
5.1247e-05
5.11279e-05
5.11986e-05
5.14286e-06
1.68018e-05
5.12302e-05
5.13095e-05
1.86014e-05
1.79052e-05
5.1257e-05
5.11608e-05
5.11898e-05
5.11546e-05
3.81086e-06
3.64072e-06
5.09389e-05
5.12566e-05
5.1173e-05
5.11109e-05
5.11144e-05
5.11922e-05
5.10191e-05
1.80685e-05
1.73916e-05
5.06272e-05
5.12151e-05
5.11512e-05
4.93315e-05
5.05029e-05
1.61622e-05
5.12178e-05
5.12542e-05
1.54747e-05
3.38899e-05
4.41398e-06
3.3789e-05
1.72114e-05
1.65655e-05
5.11468e-05
1.93012e-06
5.12212e-05
4.82849e-05
5.11253e-05
4.92732e-05
5.12665e-05
1.47449e-05
5.10705e-05
1.6679e-05
1.6052e-05
5.12315e-05
3.19133e-05
5.13012e-05
1.58163e-05
1.5221e-05
5.01277e-05
4.68525e-05
5.12922e-05
1.41066e-05
5.13254e-05
1.34177e-05
1.83772e-06
1.70178e-06
5.09511e-05
5.1049e-05
1.5121e-05
1.45516e-05
5.11576e-05
5.12891e-05
5.12503e-05
5.12062e-05
5.12857e-05
5.12564e-05
1.26884e-05
5.11468e-05
1.46029e-05
1.40522e-05
4.95009e-05
5.12538e-05
5.12056e-05
5.12179e-05
5.11959e-05
5.11867e-05
5.11936e-05
1.37346e-05
1.3216e-05
5.12248e-05
1.20481e-05
5.13012e-05
5.12226e-05
2.46761e-06
1.13618e-05
5.07371e-05
1.30427e-05
1.25512e-05
5.06356e-05
5.01554e-05
5.10802e-05
5.1223e-05
5.12162e-05
5.11936e-05
5.12613e-05
1.06348e-05
5.11313e-05
5.04621e-05
1.2523e-05
1.20501e-05
4.85647e-05
5.35497e-05
5.08352e-05
5.15386e-05
5.07756e-05
5.11023e-05
1.16585e-05
1.12165e-05
5.11362e-05
5.08132e-05
9.99214e-06
5.11666e-05
5.07552e-05
5.0774e-05
9.30383e-06
1.11308e-05
1.07088e-05
3.29113e-05
5.10444e-05
5.11171e-05
5.15186e-05
5.07868e-05
5.11976e-05
3.20054e-05
4.14954e-05
5.12096e-05
5.10824e-05
8.58054e-06
1.02648e-05
9.87308e-06
5.14814e-05
5.10809e-05
5.12388e-05
5.12521e-05
5.12962e-05
5.11724e-05
5.11642e-05
9.74371e-06
9.37199e-06
4.89604e-05
4.60219e-05
7.93347e-06
4.99736e-05
5.11122e-05
5.08239e-05
5.12116e-05
4.14549e-05
7.24101e-06
5.11422e-05
8.87016e-06
8.52919e-06
5.09407e-05
5.12159e-05
6.52367e-06
8.17621e-06
7.86151e-06
5.12179e-05
4.02161e-05
4.82072e-05
5.11724e-05
5.12478e-05
5.12311e-05
7.6662e-06
7.37026e-06
3.24774e-05
5.11504e-05
5.08052e-05
5.14594e-05
5.1059e-05
5.8515e-06
5.08939e-05
6.78078e-06
6.51625e-06
5.12238e-05
5.11422e-05
5.14031e-06
5.09035e-05
5.11878e-05
3.57516e-05
6.25751e-06
6.01358e-06
5.11701e-05
5.14709e-05
5.0875e-05
4.44893e-06
5.07843e-05
1.79819e-06
1.81691e-06
1.88346e-06
5.06979e-05
5.34925e-06
5.13385e-06
3.12678e-05
5.10944e-05
5.11618e-05
5.13127e-05
5.08472e-05
5.11937e-05
5.12787e-05
5.10628e-05
4.62157e-06
4.43098e-06
5.10018e-05
4.97485e-05
5.11027e-05
4.19341e-05
4.13385e-06
3.96586e-06
5.10426e-05
5.11396e-05
3.43658e-05
5.11116e-05
5.10414e-05
5.10594e-05
5.10257e-05
3.79801e-05
5.11032e-05
4.71633e-05
5.11169e-05
3.34364e-05
5.12108e-05
5.11312e-05
5.10749e-05
5.12573e-05
4.92714e-05
4.70764e-05
4.87393e-05
4.51392e-05
5.08498e-05
5.12135e-05
3.6641e-06
5.10248e-05
5.11709e-05
3.03623e-06
2.89221e-06
3.60765e-05
2.03479e-06
5.10849e-05
4.71327e-05
5.13671e-05
5.07338e-05
5.13762e-05
5.09936e-05
4.88154e-05
3.38044e-05
5.12549e-05
5.10961e-05
5.07409e-05
5.0503e-05
5.1132e-05
5.12085e-05
5.12352e-05
3.56673e-05
2.81173e-06
3.48184e-05
4.94628e-05
5.11225e-05
2.22898e-06
1.37918e-06
1.50421e-06
5.11838e-05
5.123e-05
5.10017e-05
5.12378e-05
5.08395e-05
3.49901e-05
1.94971e-06
1.98772e-06
1.93582e-06