/*--------------------------------*- C++ -*----------------------------------*\
  =========                 |
  \\      /  F ield         | OpenFOAM: The Open Source CFD Toolbox
   \\    /   O peration     | Website:  https://openfoam.org
    \\  /    A nd           | Version:  8
     \\/     M anipulation  |
\*---------------------------------------------------------------------------*/
FoamFile
{
    version     2.0;
    format      ascii;
    class       surfaceScalarField;
    location    "2.4";
    object      phi;
}
// * * * * * * * * * * * * * * * * * * * * * * * * * * * * * * * * * * * * * //

dimensions      [0 3 -1 0 0 0 0];

internalField   nonuniform List<scalar> 
9048
(
6.86247e-09
-6.1463e-09
-3.15668e-09
2.44051e-09
-1.56652e-09
-1.3492e-09
1.72759e-09
1.18813e-09
8.48233e-09
-2.2619e-09
-6.62918e-09
4.08757e-10
-2.26277e-09
5.06474e-09
1.24872e-09
-4.05069e-09
-4.68079e-09
-3.2085e-09
2.02265e-09
5.86663e-09
3.02891e-09
-2.02755e-09
6.2707e-09
-7.27206e-09
-2.52925e-09
1.89642e-09
1.95844e-09
-1.32562e-09
3.35942e-10
-2.90726e-10
-6.30768e-11
1.78612e-11
4.78508e-09
-3.76159e-09
3.68397e-09
-4.70746e-09
7.61298e-09
-3.48664e-09
-6.89809e-09
2.77175e-09
1.40933e-09
-5.48767e-09
4.07501e-09
3.34279e-12
5.58929e-09
-4.71617e-09
-2.39497e-09
1.52186e-09
-5.5239e-09
2.07194e-09
5.05187e-09
-1.59991e-09
4.78016e-09
4.27901e-09
-2.74683e-09
-6.31234e-09
6.60404e-09
-5.89791e-09
-2.74466e-09
2.03854e-09
-6.27494e-09
4.78777e-09
2.02796e-09
-5.40786e-10
-8.0024e-09
6.08186e-09
2.57079e-09
-6.50247e-10
7.79785e-09
-6.26493e-09
-2.61964e-09
1.08673e-09
7.78566e-09
-6.80166e-09
-3.17278e-09
2.18878e-09
6.0669e-09
-5.29476e-09
-2.53689e-09
1.76475e-09
-5.92959e-09
5.27928e-09
2.36824e-09
-1.71793e-09
-5.22464e-09
4.7357e-09
2.12483e-09
-1.63588e-09
5.35402e-09
-4.71006e-09
-2.16239e-09
1.51843e-09
6.21092e-09
-5.63254e-09
-2.86941e-09
2.29103e-09
-5.65047e-09
5.15308e-09
2.42577e-09
-1.92838e-09
-7.30111e-09
6.8922e-09
3.2883e-09
-2.87939e-09
5.21041e-09
-4.84165e-09
-2.36449e-09
1.99573e-09
5.29885e-09
-4.92555e-09
-2.46736e-09
2.09406e-09
5.437e-09
-5.05187e-09
-2.53557e-09
2.15045e-09
6.14089e-09
-4.9843e-09
-2.01956e-09
8.62972e-10
6.92319e-09
-5.61973e-09
-2.40734e-09
1.10388e-09
5.6416e-09
-5.14023e-09
-2.55731e-09
2.05593e-09
-5.2896e-09
4.81746e-09
2.30444e-09
-1.8323e-09
6.35922e-09
-5.70958e-09
-2.79895e-09
2.14931e-09
7.52099e-09
-6.91797e-09
-3.56506e-09
2.96204e-09
6.55579e-09
-5.31006e-09
-2.19907e-09
9.53343e-10
6.27073e-09
-5.08119e-09
-2.10316e-09
9.13622e-10
6.38789e-09
-5.17549e-09
-2.14197e-09
9.2958e-10
-5.63091e-09
5.47254e-09
1.82656e-09
-1.6682e-09
-5.14512e-09
2.29151e-09
4.72719e-09
-1.87357e-09
-4.03525e-09
3.64857e-09
-3.43474e-09
3.82142e-09
7.34653e-09
-7.51112e-09
2.64653e-09
-2.48195e-09
2.9813e-09
-3.14808e-09
4.86001e-09
-4.69323e-09
2.70126e-09
-2.90543e-09
4.41136e-09
-4.20719e-09
2.63823e-09
-2.83533e-09
4.31945e-09
-4.12234e-09
-3.83417e-09
-4.26256e-09
4.06148e-09
3.20445e-09
-3.49739e-09
5.22376e-09
-4.93082e-09
2.69783e-09
-2.88239e-09
4.3027e-09
-4.11815e-09
3.03186e-09
-3.17346e-09
4.87035e-09
-4.72875e-09
-3.02713e-09
2.7477e-09
4.95632e-09
-4.67689e-09
-1.66555e-09
1.59528e-09
-5.45108e-09
5.52135e-09
1.45595e-09
-1.68183e-09
-5.28313e-09
5.50902e-09
-7.97276e-09
2.95303e-09
-2.20009e-09
7.21982e-09
3.36063e-09
-3.30607e-09
-4.56869e-09
4.51414e-09
-2.87006e-09
3.25114e-09
3.21697e-09
-3.59805e-09
3.43202e-09
3.46724e-09
-3.31882e-09
-3.58045e-09
5.16001e-09
-6.45363e-09
2.23083e-10
1.07053e-09
-3.53535e-10
3.38201e-10
1.78857e-12
1.35454e-11
-3.98343e-09
-4.15731e-09
3.93236e-09
4.20839e-09
3.90928e-09
-5.02772e-09
-5.35499e-09
6.47343e-09
4.19187e-09
3.22547e-09
-4.19706e-09
-3.22028e-09
3.5858e-09
3.66358e-09
-3.7737e-09
-3.47567e-09
3.00052e-09
-3.77719e-09
-4.0749e-09
4.85157e-09
4.3349e-09
4.49985e-09
-4.59906e-09
-4.2357e-09
-2.27989e-09
2.31747e-09
3.5855e-09
-3.62308e-09
-4.71574e-09
-4.32904e-09
3.79486e-09
5.24993e-09
5.54056e-09
2.41645e-09
-2.40652e-09
-5.55049e-09
4.79356e-09
4.94016e-09
-4.22008e-09
-5.51364e-09
3.44566e-09
-4.43227e-09
-4.62678e-09
5.61339e-09
-2.35699e-09
2.86487e-09
4.27228e-09
-2.19089e-09
2.26026e-09
2.45921e-09
-2.52859e-09
1.1336e-09
1.83112e-09
-1.57849e-09
-1.38624e-09
-1.02631e-09
6.19243e-09
2.74656e-09
-7.91268e-09
-4.12871e-09
-3.52178e-09
3.2011e-09
4.44938e-09
3.76734e-09
3.66049e-09
-3.88734e-09
-3.54049e-09
4.81374e-09
4.67631e-09
-4.94965e-09
-4.5404e-09
2.55265e-09
-1.18375e-09
7.23541e-10
-2.09244e-09
-4.88664e-09
4.18324e-09
4.35197e-09
4.7601e-09
-4.89522e-09
3.30748e-09
-3.17236e-09
4.22363e-09
-4.30704e-09
2.90907e-09
-2.82566e-09
3.78616e-09
6.56104e-09
-4.2702e-09
-6.07699e-09
2.01847e-09
5.98828e-09
-2.61311e-09
-5.39364e-09
6.76711e-09
-4.53652e-09
5.15483e-09
-7.38542e-09
-5.21062e-09
-3.87332e-09
4.15545e-09
4.92849e-09
4.09187e-09
-4.56541e-09
-4.44223e-09
-3.83634e-09
4.36606e-09
3.9125e-09
7.3475e-09
-4.84453e-09
-3.95293e-09
1.44997e-09
-4.7241e-09
3.25924e-09
-4.13933e-09
5.6042e-09
-4.19356e-09
-3.11713e-09
3.31139e-09
3.9993e-09
-4.38358e-09
-3.25614e-09
3.46564e-09
4.17409e-09
-4.2717e-09
-3.17416e-09
3.37468e-09
4.07118e-09
-4.11801e-09
-3.06388e-09
3.25133e-09
3.93056e-09
-8.59482e-12
-8.9979e-12
-4.51976e-09
-2.72706e-10
-2.5421e-10
5.04668e-09
3.55545e-09
-3.70387e-09
2.4659e-09
-2.31749e-09
3.99534e-09
1.81488e-09
-7.62459e-10
-5.04776e-09
-3.47699e-10
-7.14693e-09
6.8251e-09
6.69529e-10
-4.38617e-09
3.9393e-09
4.18043e-09
-3.73356e-09
-1.28471e-09
6.13584e-09
3.08884e-10
-4.16005e-09
4.73043e-09
3.74484e-09
-4.31522e-09
-5.23786e-09
3.52663e-09
-4.31254e-09
6.02377e-09
-4.1063e-09
2.8494e-09
-3.7318e-09
4.9887e-09
4.41973e-09
8.29694e-09
-8.83764e-10
-1.18329e-08
-6.28993e-09
4.38199e-09
-5.15331e-09
7.06125e-09
6.75541e-10
3.39356e-09
-1.51646e-09
-3.61505e-10
2.46556e-11
3.38354e-10
-1.50397e-12
-4.08379e-09
-4.1681e-09
3.65401e-09
4.59789e-09
-4.67272e-09
-1.52263e-09
1.91694e-09
4.27841e-09
-4.09892e-09
5.93421e-09
2.95827e-09
-2.72176e-09
3.97661e-09
-4.56092e-09
4.4666e-09
5.19137e-09
-4.87289e-09
3.9123e-10
-3.51587e-10
-2.69713e-12
-3.69459e-11
-2.80794e-09
2.36298e-09
7.78082e-10
-3.33128e-10
5.23793e-09
4.89283e-09
-4.09771e-09
-6.03306e-09
2.73286e-09
-3.22998e-09
-1.12525e-09
1.62238e-09
2.56948e-09
-2.31599e-09
4.60829e-09
-4.86178e-09
-2.99777e-09
3.16962e-09
3.88247e-09
-4.05431e-09
4.62288e-12
-3.78418e-10
1.22896e-11
-4.19087e-09
-6.4222e-12
4.38142e-09
-1.84128e-10
5.85604e-09
-3.90886e-09
3.99207e-09
-5.93925e-09
-5.1406e-09
5.17041e-09
2.11137e-09
-2.14117e-09
5.33817e-09
-4.02553e-09
4.57988e-09
-5.89252e-09
-4.30009e-09
1.11442e-09
-3.43115e-10
3.52878e-09
-4.70012e-09
4.34362e-09
-4.48986e-09
4.84636e-09
-5.89654e-09
4.09267e-09
-4.77182e-09
6.57569e-09
6.17989e-09
-5.55749e-09
6.25976e-09
-6.88216e-09
-5.03596e-09
4.57622e-09
-4.78392e-09
5.24366e-09
-6.62049e-09
4.5723e-09
-4.86822e-09
6.91641e-09
5.29686e-09
-4.23609e-09
5.27837e-09
-6.33914e-09
4.61835e-09
-4.21978e-09
4.2883e-09
-4.68687e-09
-5.14208e-09
4.45395e-09
-4.77927e-09
5.4674e-09
4.78428e-09
-4.20569e-09
4.3463e-09
-4.92488e-09
5.76487e-09
-4.47586e-09
5.45738e-09
-6.74639e-09
4.72756e-09
-3.92271e-09
5.03327e-09
-5.83812e-09
4.71077e-09
-4.35288e-09
4.31718e-09
-4.67507e-09
1.57932e-09
-3.80202e-09
3.72469e-09
-1.50199e-09
5.53912e-09
-3.9464e-09
3.47129e-09
-5.06402e-09
5.00171e-09
4.83521e-09
-4.49588e-09
-5.34105e-09
-7.00147e-10
1.21616e-09
-3.24706e-09
2.73104e-09
5.31081e-09
4.95119e-09
-4.43636e-09
-5.82564e-09
-4.62518e-09
-4.45448e-09
3.66096e-09
5.4187e-09
-4.54161e-09
-4.36977e-09
3.67773e-09
5.23365e-09
-4.34356e-09
-3.08667e-09
4.26297e-09
3.16726e-09
4.12163e-09
3.23258e-09
-4.19992e-09
-3.1543e-09
4.83555e-09
4.33747e-09
-4.34005e-09
-4.83297e-09
4.70448e-09
4.22267e-09
-4.20499e-09
-4.72217e-09
4.88122e-09
4.50797e-09
-4.26658e-09
-5.12261e-09
5.10192e-09
4.7111e-09
-4.47142e-09
-5.3416e-09
4.9751e-09
4.58931e-09
-4.36559e-09
-5.19882e-09
4.1661e-09
-4.57391e-09
-2.314e-09
2.72181e-09
-5.22383e-09
4.12055e-09
-3.53084e-09
4.63412e-09
7.46732e-09
-4.82923e-10
-3.42445e-12
-6.98097e-09
-2.90652e-09
2.94312e-09
3.88622e-09
-3.92283e-09
5.55196e-09
-4.8881e-09
-9.89294e-10
3.25431e-10
3.73698e-09
1.25973e-09
-3.58089e-09
-1.41581e-09
6.60993e-09
-4.40159e-09
4.53454e-09
-6.74288e-09
-4.17728e-09
2.0694e-09
-8.98632e-10
3.00651e-09
5.91334e-09
-7.67592e-09
7.18933e-09
-5.42675e-09
-1.41491e-09
-2.26219e-09
2.42963e-09
1.24746e-09
2.49871e-09
-4.84364e-09
-2.15175e-09
4.49669e-09
-4.57318e-09
4.07969e-09
-4.72419e-09
5.21768e-09
4.04602e-11
4.34534e-11
-8.39136e-11
-2.58433e-09
-3.38261e-10
2.37587e-10
2.685e-09
-1.56695e-09
2.76309e-09
-6.3616e-09
5.16546e-09
3.06145e-10
8.97081e-11
-7.43277e-09
-4.95333e-09
8.73035e-09
3.65576e-09
-8.78067e-10
1.60799e-09
1.06703e-09
-1.79695e-09
1.25144e-09
1.29027e-09
-1.4081e-09
-8.95e-11
9.63493e-11
-2.62854e-10
2.56004e-10
-3.73877e-09
3.32848e-09
4.45714e-09
-4.04685e-09
-3.02765e-09
-8.74065e-10
3.19821e-09
7.03502e-10
-1.82405e-09
3.16912e-09
-7.19066e-09
5.84559e-09
5.2567e-10
4.40974e-09
-4.67659e-09
-2.58819e-10
3.01019e-09
-3.31448e-09
4.02821e-09
-3.72391e-09
4.64735e-09
-9.98785e-10
-3.55514e-09
-9.34237e-11
5.28023e-09
6.90668e-10
-1.93127e-09
-4.03963e-09
2.47797e-09
-1.52575e-09
2.5792e-09
-3.53142e-09
4.89996e-09
-5.12799e-09
5.92144e-09
-5.69341e-09
-3.84262e-10
-5.07158e-11
4.07707e-10
2.72704e-11
5.48062e-09
-5.14846e-09
-4.86844e-09
4.53629e-09
-6.20629e-09
-3.89706e-09
4.96275e-09
-2.24113e-09
-5.58434e-09
4.93525e-09
2.89022e-09
-1.5302e-09
2.4733e-09
-5.35752e-09
4.41442e-09
3.96191e-09
-3.99315e-09
-4.51889e-09
4.55013e-09
1.92789e-09
-9.33612e-10
-1.87201e-09
8.77727e-10
2.0108e-09
4.03383e-09
-2.04929e-09
3.63834e-09
-5.60457e-10
-4.19955e-09
1.12166e-09
-1.38053e-09
-2.52032e-09
1.20267e-09
2.69818e-09
-1.81744e-09
5.08472e-09
-4.93283e-09
-5.55151e-10
1.02254e-09
-2.99663e-09
2.7709e-09
-5.00782e-09
4.73562e-09
3.22671e-09
-3.22952e-09
-5.22101e-09
4.42609e-09
4.55428e-09
-3.83166e-09
-5.14872e-09
6.56893e-10
4.70801e-09
-5.22734e-09
-1.37558e-10
2.75657e-10
4.94476e-11
-2.11504e-10
-1.13601e-10
-2.54876e-09
-4.05943e-09
2.77408e-09
3.83412e-09
4.82644e-09
-3.2835e-09
-4.26471e-09
-2.83198e-09
1.26225e-09
-4.97788e-09
6.54761e-09
-3.1393e-09
3.22543e-09
2.14266e-09
-2.22879e-09
4.25056e-09
-3.29388e-09
-7.56879e-09
6.61211e-09
8.31451e-10
-5.59492e-10
9.79479e-10
-5.47713e-09
6.26591e-09
-7.83834e-09
7.04955e-09
-1.22236e-10
4.22185e-11
-2.7157e-10
-4.3912e-09
4.53112e-09
-5.60039e-09
5.46048e-09
-3.5028e-09
3.92011e-09
-5.17229e-09
4.75498e-09
-3.52689e-09
3.07869e-09
-4.42934e-09
4.87754e-09
3.44487e-09
-3.64791e-09
4.64103e-09
-4.43799e-09
-7.79456e-09
4.36864e-10
5.60565e-09
1.75204e-09
-3.17554e-09
-1.23761e-09
1.06082e-09
3.35233e-09
-5.44402e-10
7.62187e-10
-6.22285e-09
6.00507e-09
-2.57676e-09
-1.09517e-10
1.01952e-10
5.46352e-09
-2.55445e-09
-2.90907e-09
-1.81493e-09
8.93448e-09
-8.14586e-09
6.20899e-09
-2.90151e-09
-3.30748e-09
-1.60468e-09
-4.9831e-09
1.91506e-09
-3.28657e-09
1.442e-09
-2.0416e-09
3.88618e-09
-8.07669e-10
2.9073e-09
-2.79978e-09
4.71745e-09
-2.25156e-09
-2.4659e-09
3.1155e-10
7.9038e-11
4.25676e-09
-2.46119e-09
-1.47047e-09
2.55112e-09
-5.52271e-09
6.08785e-09
-6.74569e-09
6.18055e-09
-2.50824e-09
2.628e-09
3.72165e-09
-3.84141e-09
-2.50294e-10
3.15426e-10
1.38207e-10
-2.03339e-10
5.35419e-09
-5.94752e-09
9.90355e-10
-3.97026e-10
4.29156e-09
-4.23032e-09
3.16245e-09
-3.33653e-09
4.39491e-09
-4.22084e-09
-5.52344e-10
2.075e-09
4.05237e-10
-2.67887e-09
-5.66818e-09
5.24038e-09
3.10667e-09
-5.16494e-09
5.12587e-09
4.93807e-09
-4.899e-09
-3.76669e-09
-5.18867e-09
4.02622e-09
4.92914e-09
1.47297e-10
-1.77726e-10
3.67584e-10
-3.37155e-10
5.33378e-09
-4.29164e-09
5.28031e-09
-6.32246e-09
-4.41479e-09
-2.98705e-09
4.23955e-09
3.16229e-09
-5.16434e-09
4.54257e-09
-5.33619e-09
5.95796e-09
-4.36682e-09
5.39411e-09
-5.97458e-09
4.9473e-09
-1.05021e-09
-3.06628e-09
3.18703e-09
9.2946e-10
4.07572e-09
4.33719e-09
-3.58784e-09
-4.82507e-09
3.17288e-09
-3.4273e-09
4.58245e-09
-4.32804e-09
-2.30468e-10
-2.26026e-10
3.69821e-09
-3.24172e-09
-2.7048e-09
4.16304e-09
2.34458e-09
-3.80281e-09
-4.15114e-09
-3.56809e-10
4.35977e-09
1.48182e-10
2.22257e-09
-2.63531e-09
7.44865e-11
2.76624e-09
-4.07449e-09
-2.3307e-09
3.63896e-09
-9.91085e-09
5.12451e-09
-4.81007e-09
9.59641e-09
-4.36288e-09
-5.57516e-09
4.79989e-09
5.13816e-09
6.22004e-09
6.31376e-09
-7.04803e-09
-5.48576e-09
3.41182e-09
4.89896e-09
-3.28258e-09
-5.0282e-09
-3.07944e-09
-1.14632e-09
3.57537e-09
3.81031e-09
-3.17146e-09
-4.21422e-09
-3.20842e-09
-4.62929e-09
3.21121e-09
4.6265e-09
3.39567e-09
4.35742e-09
-3.70125e-09
-4.05184e-09
4.4713e-09
5.10602e-09
-5.08123e-09
-4.49608e-09
3.69834e-09
4.92022e-09
-3.86622e-09
-4.75234e-09
-3.92086e-09
-5.43599e-09
4.20689e-09
5.14996e-09
-3.11217e-09
-3.69044e-09
3.64704e-09
3.15557e-09
3.32538e-09
4.65541e-09
-3.23391e-09
-4.74688e-09
-3.19218e-09
-3.78729e-09
3.74228e-09
3.2372e-09
-2.9241e-09
-3.82865e-09
2.30629e-09
4.44645e-09
-4.48017e-09
-5.98659e-09
4.98632e-09
5.48044e-09
4.77175e-09
-4.23307e-09
-5.83847e-09
5.29979e-09
-2.43019e-09
-1.3872e-09
2.59356e-09
1.22382e-09
-2.07186e-10
2.17839e-09
-2.30059e-09
3.29386e-10
3.75978e-09
-3.16805e-09
7.0078e-09
-7.59953e-09
-4.75594e-09
-3.62004e-09
4.83583e-09
3.54015e-09
3.31192e-09
-3.408e-09
4.867e-09
-4.77092e-09
3.39623e-09
-3.15927e-09
4.7807e-09
-5.01765e-09
-3.23636e-09
3.82703e-09
-5.5429e-09
4.95223e-09
-4.20237e-09
3.63797e-09
-4.41187e-09
4.97628e-09
1.35369e-09
-2.62939e-09
2.49186e-09
-6.35779e-09
5.94624e-09
-6.63673e-09
7.04829e-09
-4.38966e-09
-1.9912e-09
4.56342e-09
7.29701e-11
1.46628e-10
-1.49851e-10
-6.97468e-11
5.7125e-09
-5.24378e-09
6.28655e-09
-6.75527e-09
-5.07424e-09
3.4661e-09
-4.45361e-09
6.06175e-09
8.24931e-09
4.9382e-09
-6.96747e-09
3.65238e-09
-4.04762e-09
5.56199e-09
-5.16675e-09
-1.09683e-08
5.79492e-09
1.31874e-09
-5.43118e-09
-1.68248e-09
-4.605e-09
6.36584e-09
3.71182e-09
-5.47266e-09
5.60376e-09
-7.68497e-09
6.5525e-09
4.6747e-09
-6.16132e-09
5.18496e-09
-4.08308e-09
5.61379e-09
-4.72289e-09
-3.98263e-09
5.47207e-09
-4.60161e-09
4.47979e-09
-6.01682e-09
4.86241e-09
-4.07082e-09
5.70726e-09
-4.56054e-09
-5.0676e-09
6.83415e-09
-5.68741e-09
-5.74566e-09
7.85755e-09
-6.59205e-09
4.39377e-09
-5.89133e-09
4.89324e-09
-5.66897e-09
7.80712e-09
4.59676e-09
-6.73491e-09
-4.87619e-09
6.51509e-09
-5.40559e-09
4.64444e-09
-5.91886e-09
5.35014e-09
-4.42501e-09
5.97847e-09
-4.76187e-09
4.08491e-09
-5.2103e-09
4.70076e-09
-3.13791e-10
-2.17149e-09
-9.14804e-11
-5.59065e-09
7.44333e-09
-6.21557e-09
-6.6949e-09
-7.86614e-10
6.52781e-09
9.53699e-10
-4.47118e-09
-5.17107e-09
3.79292e-09
5.84934e-09
3.94507e-09
4.20978e-09
-5.14467e-09
6.918e-10
-7.35616e-10
4.30123e-10
-3.86307e-10
4.59072e-09
2.2266e-09
-2.33267e-09
-4.48465e-09
4.42367e-09
-7.74196e-09
7.95661e-09
-4.63832e-09
4.98811e-09
-6.41906e-09
4.84277e-09
2.39625e-09
-3.16823e-09
-3.37615e-09
4.14813e-09
-2.68574e-09
5.91793e-09
-5.23877e-09
2.00659e-09
-5.32913e-09
1.70366e-09
-3.82156e-09
3.4909e-09
-7.10211e-09
-5.87746e-09
-5.53989e-09
4.37335e-09
7.04401e-09
-4.52368e-09
4.27626e-09
5.14738e-09
-4.89996e-09
2.0989e-09
4.34673e-09
-2.15407e-09
-8.81836e-10
-4.7008e-10
-6.67264e-09
8.02456e-09
3.87871e-09
6.7704e-09
-5.41117e-09
3.14147e-09
-2.8265e-09
3.78782e-09
-4.10279e-09
5.99191e-09
4.27071e-10
-5.78058e-09
-6.38409e-10
-6.39243e-09
6.31212e-09
1.3086e-10
-5.05559e-11
-4.90013e-09
-6.39845e-09
6.13364e-09
-7.14581e-09
-8.56029e-10
6.72138e-09
1.28045e-09
-2.46592e-09
2.1597e-09
-6.2739e-10
1.9139e-09
6.28356e-09
2.84867e-10
-6.07644e-09
-3.92692e-09
5.67253e-09
4.33083e-09
5.2391e-09
4.73263e-09
-4.34587e-09
-5.62586e-09
-2.2161e-09
2.01777e-09
3.84608e-09
-3.64774e-09
-4.66833e-09
4.67267e-09
3.95758e-09
3.82188e-09
6.70128e-09
-5.18499e-09
2.1457e-09
7.03706e-09
-1.03674e-09
-8.14601e-09
-1.77969e-10
1.21017e-09
5.4361e-09
-4.40325e-09
3.43374e-09
-5.24422e-09
6.25445e-10
6.49785e-09
-1.87908e-09
5.17852e-09
5.50722e-09
-5.78578e-09
-4.73801e-09
-5.96537e-09
4.53116e-09
6.17222e-09
3.41076e-09
3.52525e-09
-3.40482e-09
-3.5312e-09
4.33949e-09
5.07916e-09
-3.98848e-09
-5.43016e-09
-6.03558e-09
6.68749e-09
6.73581e-09
-7.38772e-09
-6.43007e-09
1.98718e-09
3.9559e-09
4.86983e-10
-2.87491e-09
7.41954e-10
-8.94692e-10
-6.04766e-09
7.61898e-09
4.91519e-09
-6.4865e-09
4.4236e-09
7.42843e-09
-6.37141e-09
-3.10401e-09
-5.93014e-09
4.33402e-09
-3.87564e-09
-7.49636e-09
5.47546e-09
4.26989e-09
7.50442e-09
-6.00944e-09
4.56618e-09
7.84035e-09
-6.22664e-09
-3.52443e-09
-6.17871e-09
4.66718e-09
3.72668e-09
6.19787e-09
-5.19699e-09
2.64019e-09
3.27576e-09
-3.08853e-09
-2.82742e-09
-4.8405e-09
-8.24651e-09
6.46653e-09
-3.73723e-09
-6.15719e-09
4.75234e-09
3.36573e-09
5.62576e-09
-4.37314e-09
4.21637e-09
6.74766e-09
-5.66717e-09
3.28035e-09
5.90903e-09
-4.40511e-09
-5.17179e-09
-6.26964e-10
8.97351e-10
4.9014e-09
1.2471e-09
4.88612e-09
6.50031e-09
-9.35237e-10
-5.37833e-09
-1.86741e-10
5.26116e-09
-8.84185e-11
-5.31857e-09
1.45834e-10
6.12592e-09
-8.87086e-11
-6.17383e-09
1.36618e-10
6.81162e-09
-1.10784e-10
-7.52512e-09
8.24284e-10
-5.80461e-09
3.94525e-09
1.28661e-09
5.72756e-10
4.79238e-09
-5.34753e-09
1.95086e-10
3.60068e-10
-6.21955e-09
6.31046e-09
-8.8158e-11
-2.75856e-12
-6.52943e-09
6.44095e-09
2.5607e-11
6.28796e-11
-6.18712e-09
5.95934e-09
-1.49762e-10
3.77547e-10
-7.43971e-09
6.59282e-09
1.80943e-09
-9.62535e-10
-7.86343e-09
7.89955e-09
-1.08026e-10
7.19158e-11
-5.7553e-09
5.79748e-09
-1.62603e-10
1.2042e-10
-4.98382e-09
5.8046e-09
2.26911e-11
-8.4348e-10
-5.47791e-09
4.60894e-09
1.24274e-09
-3.73768e-10
-5.57087e-09
4.54987e-09
-4.19838e-10
1.44083e-09
-5.11423e-09
5.95571e-09
2.10844e-11
-8.62558e-10
-7.49045e-09
7.28495e-09
-6.02843e-11
2.65778e-10
-4.87352e-09
5.61093e-09
3.82126e-11
-7.75623e-10
-5.72163e-09
5.75597e-09
-3.93022e-11
4.96186e-12
-5.84979e-09
5.92915e-09
-3.66279e-11
-4.27339e-11
-5.68416e-09
5.69496e-09
-8.12157e-11
7.04164e-11
-7.32742e-09
7.45508e-09
-7.59591e-11
-5.16968e-11
6.87224e-09
-8.26091e-09
-6.62369e-11
1.45491e-09
8.16246e-09
-7.88393e-09
1.8935e-10
-4.67886e-10
-4.20259e-09
-1.65065e-09
4.46775e-09
1.38549e-09
6.07318e-09
-6.54594e-09
-7.16419e-11
5.71594e-09
1.45337e-09
-5.57403e-09
-4.53093e-09
9.96962e-10
5.74522e-09
-6.00595e-09
-4.86725e-09
-7.14746e-09
6.78345e-09
4.01639e-09
1.92945e-09
4.67047e-09
-4.14797e-09
-2.45195e-09
-1.58024e-09
-2.26485e-09
-5.58232e-09
7.10917e-09
-7.04955e-09
4.81818e-09
-5.92144e-09
6.28178e-09
-1.90974e-09
5.37101e-09
1.12945e-09
-3.75126e-09
5.50789e-09
-4.93604e-09
3.17941e-09
1.95681e-10
-1.9205e-11
-1.76476e-10
3.70724e-09
6.08701e-09
-4.79254e-09
4.02813e-09
6.71222e-09
-5.42954e-09
-3.61867e-09
-5.80301e-09
4.7965e-09
-6.25024e-09
8.01897e-09
-6.72206e-09
2.51801e-10
-4.14017e-10
7.62953e-09
-6.24418e-09
6.5299e-09
-4.03698e-09
4.63962e-09
-4.75104e-09
-1.49325e-09
-5.65409e-09
-3.5608e-09
4.67328e-09
-2.97523e-09
-5.50174e-09
4.13342e-09
2.92303e-09
5.35044e-09
-4.15183e-09
3.55093e-09
5.95977e-09
-4.67514e-09
3.45848e-09
5.80364e-09
-4.55763e-09
-2.0343e-09
5.33373e-09
-4.94557e-09
-4.76369e-09
3.94789e-09
5.76137e-09
1.51893e-09
-2.38422e-09
-1.5959e-09
-1.84786e-10
-1.05807e-10
5.98835e-11
2.30709e-10
-3.51771e-09
3.55879e-09
5.49804e-09
4.84164e-09
4.29642e-09
-5.4605e-09
-3.67756e-09
6.30847e-09
-7.14028e-09
-2.85231e-09
3.68413e-09
1.36036e-09
-6.14374e-09
4.83301e-10
-3.9615e-10
3.65439e-11
-3.00363e-09
-3.62067e-09
2.88553e-09
-4.65149e-09
-9.03939e-10
5.02104e-09
5.34385e-10
6.30141e-09
-6.6096e-10
-2.86263e-10
5.62768e-09
-4.51408e-09
5.62833e-09
-6.74193e-09
4.95953e-09
-3.61793e-09
4.26017e-09
-5.60177e-09
3.54961e-09
6.32018e-09
-4.76787e-09
3.39921e-09
6.05153e-09
-4.56953e-09
3.45737e-09
6.16103e-09
-4.6433e-09
-1.91756e-09
2.75875e-09
-3.98049e-09
-4.33006e-09
-3.75594e-09
4.79837e-09
3.28762e-09
4.68741e-09
5.08429e-09
-3.9875e-09
-5.78419e-09
2.45285e-09
-6.29079e-09
-2.17964e-09
6.01758e-09
-1.09278e-09
4.20976e-09
-4.52264e-09
3.19787e-09
-3.66857e-09
4.99334e-09
-2.44987e-10
4.29792e-09
1.36004e-09
-4.17038e-09
-2.95986e-09
-9.80481e-10
4.33026e-09
1.62767e-09
-1.54252e-09
-4.41541e-09
-6.21007e-09
-4.13994e-09
5.67668e-09
4.67333e-09
-4.72868e-09
4.11298e-09
-4.2095e-09
4.8252e-09
6.58572e-09
2.44384e-09
-3.28971e-09
-5.73985e-09
-7.56557e-09
6.83625e-09
-1.98741e-09
2.71673e-09
-5.33347e-09
7.26097e-09
-5.4452e-09
4.0586e-10
-2.00591e-09
6.01572e-09
2.87889e-09
-6.47113e-09
-2.42349e-09
-7.35119e-09
3.76576e-09
-3.43176e-09
7.01719e-09
-5.11996e-09
-2.55368e-10
2.03535e-10
5.11177e-09
1.9892e-09
-3.53176e-09
-3.56922e-09
-5.02651e-09
6.13055e-09
-3.95768e-09
2.85365e-09
-5.1838e-09
4.38746e-09
4.9169e-09
3.23623e-09
-7.37863e-09
6.28809e-09
-2.43309e-09
1.55714e-09
-1.79447e-09
2.67042e-09
-5.58697e-09
8.56943e-10
4.99942e-09
-2.69394e-10
-1.73482e-09
8.26406e-09
-8.34417e-09
-3.63984e-09
-3.49077e-09
4.58184e-09
-2.79938e-09
4.1867e-09
-5.50532e-09
-2.90266e-09
4.34352e-09
-5.71257e-09
-2.97812e-09
4.46019e-09
-5.86565e-09
-2.84992e-09
4.26224e-09
-5.60587e-09
-2.38858e-09
-4.81676e-09
2.84909e-09
-3.37748e-09
5.34516e-09
-4.36205e-09
5.97474e-09
4.40303e-09
-5.34731e-09
-7.223e-09
8.4833e-09
4.08701e-09
-9.7959e-11
-6.2296e-10
-4.07151e-12
7.2499e-10
-4.59454e-09
6.06962e-09
-7.51065e-09
5.2234e-09
1.15573e-09
-5.72852e-09
-6.50611e-10
-6.682e-09
-1.60767e-09
7.25309e-09
1.03659e-09
-6.85425e-09
-9.68835e-10
-4.03481e-11
-5.37351e-09
-9.28109e-10
5.46316e-10
-5.29556e-09
-1.16529e-09
8.8998e-10
-4.1328e-09
-7.59223e-10
-9.17975e-11
-4.2389e-09
-7.82183e-10
-9.31494e-11
5.43263e-09
1.3296e-09
-9.67307e-10
5.69281e-09
1.07454e-09
1.04897e-10
4.17974e-09
4.80749e-09
-4.80449e-09
-4.18274e-09
4.96701e-09
-5.34211e-09
2.31406e-09
-1.93896e-09
-3.1306e-09
-1.39358e-09
4.63454e-10
5.04712e-09
-5.25777e-09
-2.52804e-10
-4.82481e-09
-6.22318e-09
5.89953e-09
-3.11486e-09
5.13043e-09
-6.4578e-09
-1.35254e-10
1.06129e-10
-3.51761e-10
5.13713e-09
4.75793e-10
-2.82034e-11
-6.54229e-11
-6.12964e-10
6.21486e-09
1.20972e-09
6.24932e-10
-5.54372e-09
-8.85826e-10
3.96344e-10
-5.22048e-09
-5.23392e-10
-4.74773e-10
5.9315e-09
8.53735e-10
-1.22086e-10
3.7591e-10
-4.56756e-10
5.80565e-09
6.10442e-10
1.07404e-09
-6.82019e-09
-1.69356e-09
-1.47918e-10
5.57018e-10
6.74227e-11
1.55537e-11
-8.27223e-11
1.96042e-10
7.29182e-11
3.29952e-11
6.85696e-10
-5.23213e-09
-9.31478e-10
-1.00281e-10
-2.23363e-10
-4.83672e-11
5.89764e-12
-2.61711e-10
5.40773e-09
4.64914e-10
-3.76787e-10
5.84703e-09
4.58911e-10
-3.6855e-10
5.69125e-09
4.33269e-10
-3.86215e-10
5.58763e-09
4.93547e-10
-5.04603e-10
7.22651e-09
7.33172e-10
-1.19134e-10
2.06804e-11
7.57447e-10
-7.58167e-09
-1.0597e-09
9.64728e-10
-1.1695e-09
-1.36174e-09
5.94602e-09
-3.26016e-10
1.35325e-09
-6.97326e-09
-4.16107e-09
1.70623e-09
-1.04516e-09
3.49999e-09
-2.58113e-09
6.38351e-09
1.70551e-09
-4.03375e-09
5.60102e-09
-5.65106e-09
8.19992e-10
-3.63327e-09
-8.28384e-11
2.89612e-09
-6.49573e-09
-1.51929e-09
4.49452e-10
3.93164e-09
-3.9603e-09
-3.28581e-09
-3.55479e-09
-6.94784e-09
6.82844e-09
3.67419e-09
3.42708e-10
5.48019e-09
-5.12992e-09
-6.92977e-10
-3.37372e-09
-5.90615e-09
2.09877e-09
3.5518e-09
-3.0114e-09
-2.63917e-09
-3.85721e-09
-4.88787e-09
2.535e-09
-3.53479e-09
5.35453e-09
-7.03036e-09
-1.22107e-09
1.81204e-09
3.59834e-09
-4.18931e-09
-5.26873e-09
-5.97113e-09
6.37141e-09
-2.41509e-09
-7.43364e-09
5.12784e-09
4.72088e-09
9.79068e-10
4.04193e-09
-5.021e-09
1.19667e-09
3.96091e-09
-5.15757e-09
1.58906e-09
5.45952e-09
-7.04858e-09
-3.49536e-09
3.25572e-09
-4.11049e-09
4.35013e-09
-4.11523e-09
4.29754e-09
-5.30841e-09
5.1261e-09
2.63823e-09
-2.74818e-09
4.7189e-09
4.0045e-09
-3.57275e-09
4.42403e-09
-4.85578e-09
-3.72696e-09
4.89145e-09
8.26097e-11
-3.43166e-09
4.4267e-09
2.95003e-09
-2.4006e-09
3.09213e-09
-1.00532e-09
4.54306e-09
-1.45747e-10
-3.75427e-11
-5.75768e-09
5.52773e-09
6.91743e-09
3.42278e-09
5.74552e-09
-4.98856e-09
1.54508e-10
-2.89428e-10
3.82049e-10
-2.47129e-10
7.83298e-10
-5.92237e-09
-8.08447e-10
4.7897e-09
3.02074e-09
-5.03953e-09
-5.89209e-09
-4.43935e-09
5.5669e-09
4.76454e-09
3.63669e-09
-3.64299e-09
6.59912e-09
-6.03546e-09
-1.83328e-09
7.22928e-10
7.22443e-09
-7.34492e-09
-3.62438e-10
-5.68186e-09
3.62367e-09
8.26626e-09
-6.20808e-09
-7.80284e-09
-4.68168e-09
6.12673e-09
7.22962e-09
4.30011e-09
-5.81723e-09
-7.13451e-09
4.95474e-09
5.65106e-09
-5.45348e-09
-3.32631e-09
4.57742e-09
-6.61054e-09
-3.90687e-09
5.44317e-09
4.84747e-10
-2.49978e-09
-3.85567e-10
-5.90705e-09
3.92479e-09
-3.34178e-09
5.32404e-09
5.66692e-09
1.10627e-09
-5.98989e-09
-4.45555e-09
1.27769e-10
-2.12584e-09
6.8802e-09
-5.66165e-09
-5.91878e-09
4.14222e-09
-6.64914e-09
5.4893e-09
5.8081e-09
3.94901e-09
-3.6891e-09
5.57283e-09
-5.83275e-09
-6.97224e-10
-7.34332e-09
8.17025e-09
-1.29713e-10
1.42174e-10
5.4521e-09
7.17846e-10
2.86485e-10
5.22975e-09
4.75683e-10
-6.57117e-09
4.48451e-09
-4.47232e-09
6.55897e-09
3.66068e-09
2.28471e-09
-1.45036e-09
-4.49503e-09
3.90841e-09
4.87631e-09
-3.33673e-09
-5.44799e-09
-5.6861e-09
1.27815e-09
-2.00298e-09
6.41093e-09
-7.33586e-09
5.07824e-09
1.26932e-09
9.88301e-10
8.00914e-10
3.68909e-09
-5.99204e-09
1.50204e-09
4.06481e-10
1.35772e-09
-1.31853e-09
-4.4567e-10
-6.21519e-09
-6.06073e-10
-3.83987e-10
7.20525e-09
-6.05084e-09
-3.37597e-09
4.67088e-09
-4.19862e-09
4.49066e-09
-5.71773e-09
5.42569e-09
-4.43516e-09
-5.09542e-09
5.05941e-09
4.15288e-09
-3.8139e-09
3.13933e-09
-3.4783e-09
4.61443e-09
-3.89434e-09
4.68971e-09
-5.4098e-09
2.25456e-10
-1.56369e-11
-4.86131e-09
4.51416e-10
-4.19308e-10
-5.27981e-10
4.95873e-10
-3.28336e-09
3.84746e-09
-3.56187e-09
3.57602e-09
-4.02332e-09
6.49343e-09
-6.04613e-09
5.23245e-09
3.79662e-09
-5.16699e-09
-3.86209e-09
-9.30985e-11
3.80737e-10
5.64403e-09
1.55473e-09
-1.86345e-09
-5.33531e-09
5.29196e-09
-5.76689e-09
5.2931e-09
-1.00616e-09
-2.67642e-09
5.42126e-09
-8.08166e-09
1.29141e-08
-1.02536e-08
4.05437e-09
-4.00514e-09
-1.15919e-09
1.10995e-09
3.24304e-09
4.84485e-09
-4.14264e-09
2.20879e-10
7.98023e-11
-7.33064e-09
7.02996e-09
5.13473e-09
-7.03947e-09
5.14098e-09
4.36343e-10
7.79318e-09
-2.03709e-09
-4.13211e-09
5.07532e-09
-5.87925e-09
2.30681e-09
-2.3592e-09
-3.58745e-09
4.83596e-09
1.26644e-09
-5.30148e-09
7.17471e-09
3.43132e-10
-7.52127e-09
1.2566e-10
-2.37476e-10
-5.48475e-09
5.19096e-09
1.27285e-09
-5.24104e-09
4.79978e-09
1.63793e-09
-7.19736e-09
6.69389e-09
2.09254e-09
7.24666e-09
-6.12235e-09
5.84239e-09
1.04215e-09
5.56803e-11
-4.7387e-09
7.0192e-09
-8.46526e-09
2.01401e-10
1.24467e-09
-4.0468e-09
3.78528e-09
4.9723e-09
3.90967e-09
-3.68385e-09
-4.47857e-09
4.25275e-09
5.10398e-09
8.29271e-09
-6.66087e-09
-4.13242e-10
-5.04872e-10
4.00471e-10
5.17643e-10
-4.31872e-09
-1.12725e-09
6.72753e-10
4.77321e-09
-2.49236e-10
-3.4675e-12
3.21519e-10
-6.88153e-11
4.19268e-09
-5.07532e-09
4.06205e-09
-1.2803e-09
6.62335e-09
3.00974e-10
3.07823e-09
5.71022e-10
-6.01791e-09
5.33688e-09
6.37384e-09
-3.22045e-09
3.79484e-09
4.85824e-09
4.44725e-09
-3.99204e-09
-4.69411e-09
4.33247e-09
-3.89128e-09
-4.57398e-09
-3.85356e-09
2.88839e-09
-4.40834e-09
3.34739e-09
-5.38048e-09
-4.64891e-09
-2.223e-09
3.94563e-09
3.50077e-09
2.5034e-09
-4.98324e-09
-4.37442e-09
3.13602e-09
-3.65778e-09
-4.7738e-09
4.51902e-09
-2.70465e-09
-4.72088e-09
6.61019e-09
-5.8216e-09
-3.95065e-09
4.3869e-09
1.66252e-09
-2.56188e-09
8.75131e-10
7.81027e-10
8.88746e-11
-9.70783e-10
1.00882e-10
-7.52904e-10
-5.33691e-09
-6.05083e-10
7.36884e-09
5.76778e-11
4.79058e-09
4.21965e-09
-4.79144e-09
-4.2188e-09
-5.13948e-09
3.91294e-09
-3.20235e-09
4.42889e-09
-8.49159e-09
5.72049e-09
6.34712e-09
-1.8857e-10
6.99899e-09
6.37496e-09
7.61138e-10
-1.85587e-09
-1.10692e-10
-5.39042e-10
5.51775e-10
-5.14781e-09
4.51521e-09
6.53335e-09
-5.90076e-09
-1.49283e-09
2.22782e-09
-1.76434e-09
1.02935e-09
1.68837e-09
-1.52019e-09
-5.15128e-09
-2.79007e-09
-1.06449e-09
3.9113e-09
-4.14235e-09
-3.0523e-09
1.54785e-09
4.35682e-09
-1.13627e-09
-4.76841e-09
-8.11442e-09
5.67468e-09
-3.86964e-09
3.04386e-09
5.8139e-09
-5.58634e-09
-5.23626e-09
5.47529e-09
9.33321e-11
-4.73834e-10
-1.37123e-10
5.17625e-10
-5.42555e-09
3.54048e-09
-5.39169e-09
5.34668e-09
1.73338e-09
7.45666e-10
6.84405e-09
3.69363e-09
-3.56289e-09
4.0774e-09
-4.20815e-09
-6.74911e-09
4.79202e-09
4.51631e-09
-3.92563e-09
3.84048e-09
-4.43117e-09
-4.90712e-09
4.49153e-09
-4.6311e-09
5.04669e-09
2.2036e-09
-1.9872e-09
6.51118e-09
-6.72758e-09
4.32376e-09
-3.06385e-09
-4.48944e-09
6.48615e-09
-6.51439e-09
-5.64073e-09
-3.97384e-09
4.27548e-09
4.09213e-09
5.286e-09
-5.27449e-09
-4.61651e-09
-5.46675e-09
5.3637e-09
5.70681e-09
3.88246e-09
-3.83156e-09
-4.03352e-09
3.98445e-09
-3.92924e-09
-4.13829e-09
-4.66896e-09
5.14673e-09
4.19693e-09
-4.28031e-09
4.83433e-09
3.92576e-09
5.1344e-09
-5.61692e-09
-4.58508e-09
3.66708e-09
-3.82677e-09
-3.91113e-09
5.43127e-09
-5.52035e-09
-5.65658e-09
3.91606e-09
-3.31952e-09
-6.42351e-09
-9.90154e-10
6.13161e-09
1.28206e-09
1.14646e-09
-3.61369e-09
7.20691e-09
-5.87161e-09
5.27463e-09
-4.95273e-09
5.04454e-09
-4.54551e-09
4.45371e-09
8.62976e-11
-7.76089e-09
7.7544e-09
-4.03008e-09
4.06496e-09
1.11157e-09
-1.35057e-09
1.45662e-09
-1.97806e-09
-8.59731e-10
-1.16057e-09
7.32855e-10
1.28744e-09
6.36388e-09
-5.17216e-09
4.66432e-09
-5.04031e-09
-4.33458e-09
4.82868e-09
4.54621e-09
3.51886e-10
-4.72457e-11
2.78765e-09
-4.54968e-09
5.9539e-09
-5.39094e-09
-4.03987e-09
-4.52562e-09
-3.86731e-10
6.15323e-09
-1.24088e-09
-4.72671e-09
4.02958e-09
6.06826e-09
-5.37113e-09
3.68432e-09
3.33773e-09
-3.26823e-09
-3.75382e-09
6.2694e-09
-4.49545e-09
-6.34712e-09
2.30146e-09
-3.52316e-09
-1.58087e-09
2.80257e-09
1.33729e-09
-1.20127e-09
1.15951e-09
-1.29553e-09
4.45428e-09
-4.81332e-09
-3.60599e-09
3.96503e-09
5.47716e-09
-6.32905e-09
7.619e-09
-4.84874e-09
-5.0157e-09
5.70439e-09
8.61139e-09
-7.16451e-09
3.78557e-09
2.46961e-09
-1.69389e-09
6.29208e-10
-1.40493e-09
-8.98207e-10
-4.72154e-10
5.42473e-09
-2.2976e-09
2.698e-09
-5.40822e-09
-4.89045e-09
-3.30638e-09
4.19021e-09
4.00662e-09
-4.15783e-09
-5.71669e-09
-2.60788e-09
2.55596e-09
2.52988e-09
7.98138e-10
-3.79648e-09