/*--------------------------------*- C++ -*----------------------------------*\
  =========                 |
  \\      /  F ield         | OpenFOAM: The Open Source CFD Toolbox
   \\    /   O peration     | Website:  https://openfoam.org
    \\  /    A nd           | Version:  8
     \\/     M anipulation  |
\*---------------------------------------------------------------------------*/
FoamFile
{
    version     2.0;
    format      ascii;
    class       volScalarField;
    location    "7.4";
    object      p;
}
// * * * * * * * * * * * * * * * * * * * * * * * * * * * * * * * * * * * * * //

dimensions      [0 2 -2 0 0 0 0];

internalField   nonuniform List<scalar> 
5119
(
3.85298e-06
1.04401e-05
1.03762e-05
9.99779e-06
4.53671e-06
1.04416e-05
1.04151e-05
1.04299e-05
9.56292e-06
1.78418e-06
1.00024e-05
1.85848e-06
4.8582e-06
1.02225e-05
3.38594e-06
6.03367e-06
6.9599e-06
1.00107e-06
2.52407e-06
2.62365e-06
6.05146e-06
5.31303e-06
3.49047e-06
1.63404e-06
6.44688e-06
5.73401e-06
3.57482e-06
3.60496e-06
3.63043e-06
9.5884e-07
1.26749e-06
2.53151e-06
5.88048e-06
3.34e-06
3.99927e-06
1.01281e-06
9.92491e-07
1.00758e-06
4.34506e-06
7.72808e-06
1.04072e-05
4.53848e-06
7.12072e-06
7.1507e-06
7.53577e-06
1.04164e-05
7.92461e-06
7.57343e-06
7.54821e-06
6.70078e-06
1.03047e-05
1.00327e-05
1.06094e-05
1.04305e-05
1.02714e-05
7.92717e-06
1.00366e-05
1.04328e-05
5.42388e-06
8.10143e-06
7.37691e-06
7.10034e-06
7.95668e-06
7.50259e-06
1.04209e-05
8.29984e-06
1.02991e-05
1.01001e-05
7.96952e-06
1.02219e-05
1.03354e-05
1.04359e-05
1.02863e-05
7.98056e-06
6.71079e-06
7.70989e-06
1.04338e-05
1.04049e-05
8.25391e-06
8.15674e-06
9.72923e-06
1.01031e-05
9.39182e-07
4.27449e-07
1.04203e-05
6.94727e-07
1.04094e-05
7.25966e-06
4.48985e-07
4.54004e-07
4.54465e-07
4.3418e-07
1.04313e-05
9.9638e-06
8.14138e-06
1.00604e-05
1.05666e-05
8.19376e-06
1.00245e-05
9.28276e-07
5.9713e-06
5.97543e-06
9.2512e-06
8.07581e-06
1.04327e-05
1.04411e-05
8.50998e-06
1.03577e-05
1.01127e-05
1.04221e-05
9.26492e-06
1.044e-05
1.0437e-05
1.7646e-06
1.04276e-05
1.01044e-05
9.98644e-06
1.04397e-05
1.01837e-05
7.70502e-07
1.03025e-05
3.86634e-06
9.51588e-06
5.48345e-06
6.39073e-06
2.90114e-06
5.51826e-06
5.20154e-06
1.99164e-06
3.99955e-06
5.91689e-06
1.5189e-06
1.51168e-06
3.0375e-06
1.04144e-05
1.0345e-05
9.17498e-06
2.98245e-06
1.03591e-05
3.69087e-06
5.38764e-06
7.25999e-06
4.87591e-06
3.85647e-06
3.99982e-06
3.97778e-06
1.55948e-06
1.59113e-06
1.5796e-06
9.90206e-06
8.71615e-06
1.04088e-05
8.37944e-06
9.98063e-06
1.00785e-05
7.57711e-07
1.00843e-05
1.0557e-05
1.03855e-05
9.88353e-06
8.6401e-06
1.04491e-05
1.03916e-05
8.16987e-06
1.04375e-05
1.02797e-05
1.04388e-05
1.04342e-05
1.04354e-05
1.01057e-05
1.03303e-05
8.28836e-06
1.01814e-05
1.02652e-05
1.01308e-05
1.02564e-05
1.036e-05
2.76306e-06
1.04428e-05
4.18164e-06
1.03166e-05
1.02993e-05
8.15877e-06
8.08667e-06
1.04368e-05
1.00406e-05
1.04322e-05
1.03653e-05
1.0319e-05
1.04206e-05
9.86771e-06
8.96193e-06
8.21341e-06
1.01923e-05
1.0427e-05
9.89906e-06
1.04235e-05
1.02947e-05
9.50653e-06
1.0422e-05
1.04353e-05
8.44006e-06
1.04363e-05
1.74653e-06
3.16568e-06
3.89707e-06
5.36844e-06
8.7145e-06
1.03046e-05
1.01546e-05
1.04009e-05
7.71509e-06
1.02719e-05
7.81301e-06
1.03614e-05
1.02888e-05
1.0357e-05
7.73712e-06
1.0105e-05
1.03673e-05
8.28403e-06
1.00922e-05
1.04443e-05
8.52637e-06
1.01e-05
9.9871e-06
1.04341e-05
1.04102e-05
5.02126e-06
2.00815e-06
1.04479e-05
2.48988e-06
6.01141e-06
5.17083e-06
4.64512e-06
1.03164e-05
6.74708e-06
7.28825e-06
1.03105e-05
9.26635e-06
1.01747e-05
1.03994e-05
1.00168e-05
8.79873e-06
3.13476e-06
2.07003e-06
5.1881e-06
1.03195e-05
5.96662e-06
2.9041e-06
5.53198e-06
6.45573e-06
7.09533e-06
2.72637e-06
3.00108e-06
6.51026e-06
3.01871e-06
2.98873e-06
3.36088e-06
1.02176e-05
1.0376e-05
1.0349e-05
9.57932e-06
6.76679e-06
4.55504e-06
4.58196e-06
4.75174e-06
5.50484e-06
1.0357e-05
7.4951e-06
1.03317e-05
1.04236e-05
1.38263e-06
5.5664e-06
1.73777e-06
1.05414e-05
8.82815e-06
6.91537e-06
9.00439e-07
6.45349e-06
7.10764e-06
2.96418e-06
2.94851e-06
6.50173e-06
2.92373e-06
2.55165e-06
3.24084e-06
5.53429e-06
9.93485e-07
1.85927e-06
6.70825e-06
2.82078e-06
5.92863e-06
1.04085e-05
3.08689e-06
6.03427e-06
7.62576e-06
1.02451e-05
1.04538e-05
8.40384e-06
9.76885e-06
5.24677e-06
1.00723e-05
1.04629e-05
1.0194e-05
1.02975e-05
1.05369e-05
1.29955e-06
1.00797e-05
8.48289e-06
1.38826e-06
5.48795e-06
4.65983e-06
4.70965e-06
5.13919e-06
4.68309e-06
1.04359e-05
1.04373e-05
5.62042e-06
5.60762e-06
9.98779e-06
8.0645e-06
3.2016e-06
1.04423e-05
9.96379e-06
9.06843e-06
1.00626e-05
2.67021e-06
4.41282e-06
1.01337e-05
4.9293e-06
4.39784e-06
8.9188e-06
1.03463e-05
1.04568e-05
3.82782e-06
5.92476e-06
6.914e-06
1.10052e-06
2.30854e-06
5.95812e-06
2.58947e-06
1.00011e-05
5.69564e-06
6.33666e-06
3.54291e-06
1.58845e-06
1.03842e-06
1.01187e-05
1.00501e-05
4.24137e-06
4.41664e-06
4.38114e-06
4.19821e-06
5.2338e-06
5.14347e-06
3.97967e-06
3.81379e-06
3.40551e-06
6.14895e-06
2.60533e-06
2.4526e-06
2.47813e-06
6.48281e-06
2.34386e-06
2.49415e-06
2.20296e-06
1.93617e-06
2.04962e-06
2.06211e-06
2.00861e-06
1.81785e-06
6.87315e-06
7.23777e-06
1.00773e-05
1.01307e-05
1.02937e-05
1.02008e-05
2.9197e-06
1.04883e-05
9.92598e-06
1.03875e-05
8.03063e-06
2.49154e-06
8.20889e-06
8.6778e-06
1.04246e-05
2.44899e-06
3.27902e-06
5.76658e-06
1.02763e-05
1.04145e-05
8.78868e-06
1.03716e-05
7.64301e-06
5.23657e-06
3.46562e-06
3.61837e-06
3.59989e-06
1.02862e-05
7.11937e-06
1.03779e-05
1.04249e-05
8.88597e-06
4.20429e-06
9.97323e-06
9.62345e-06
1.04412e-05
1.01505e-05
9.89557e-06
8.29268e-06
2.01347e-06
3.57855e-06
1.09961e-06
1.08321e-06
1.10003e-06
9.61555e-06
5.05764e-06
5.82019e-06
1.0354e-05
1.03713e-05
6.79882e-06
1.01634e-05
1.03358e-05
1.03329e-05
1.01154e-05
1.03137e-05
4.92899e-06
4.72607e-07
1.04721e-05
8.78646e-06
4.92697e-06
6.92206e-06
1.02958e-05
1.01522e-05
1.02868e-05
9.2347e-06
8.49909e-06
1.04513e-05
1.03538e-05
9.72488e-06
1.02441e-05
9.91683e-06
6.26858e-07
6.57827e-07
6.6092e-07
6.48527e-07
1.03771e-05
9.84046e-06
6.98566e-06
9.55212e-06
1.04528e-05
4.48139e-06
5.83456e-06
3.07336e-06
2.78397e-06
2.61267e-06
2.51108e-06
2.6388e-06
2.65544e-06
6.83705e-06
6.72216e-06
2.18125e-06
6.57987e-06
1.03061e-05
1.0446e-05
4.35889e-06
9.01842e-07
4.01359e-06
4.24989e-06
4.17566e-06
4.05421e-06
5.44037e-06
5.35792e-06
3.80005e-06
3.60897e-06
3.21893e-06
6.36513e-06
2.40029e-06
2.26278e-06
2.22862e-06
2.27658e-06
6.71522e-06
2.13427e-06
2.01833e-06
1.75237e-06
1.86754e-06
1.85383e-06
1.82413e-06
1.6282e-06
7.03964e-06
7.48436e-06
1.04354e-05
9.92346e-06
1.04302e-05
8.53637e-06
8.52795e-06
1.04291e-05
1.0479e-05
1.02812e-05
1.00091e-05
1.04114e-05
9.23482e-06
9.68762e-06
1.03128e-05
6.53311e-07
1.01555e-05
4.22613e-06
9.01003e-06
2.44599e-07
2.83752e-07
2.91e-07
9.98913e-06
2.22038e-06
6.37238e-06
5.66403e-06
1.00423e-05
1.02406e-05
1.04066e-05
1.01565e-05
4.1908e-06
1.88747e-06
1.04494e-05
8.82176e-06
9.8459e-06
4.83075e-06
6.04694e-06
4.85383e-06
1.04172e-05
8.67167e-06
8.07205e-06
6.92256e-07
9.21487e-06
5.90881e-06
6.13034e-06
1.04117e-05
1.04183e-05
8.52437e-06
1.00519e-05
2.0028e-06
6.35214e-06
5.69322e-06
7.97859e-06
5.32647e-06
4.60133e-06
4.52182e-06
4.47822e-06
1.00534e-05
1.00158e-05
6.51874e-06
1.01448e-05
8.46927e-06
1.04017e-05
1.03846e-05
1.04836e-05
7.18344e-06
2.25158e-06
7.80656e-06
1.00278e-05
4.66479e-06
9.92151e-06
1.04448e-05
1.00043e-05
9.29265e-06
1.04823e-05
1.04421e-05
1.02245e-05
2.46058e-06
1.03603e-05
9.20602e-06
9.62907e-06
5.11693e-06
1.03837e-05
1.04588e-05
1.02758e-05
8.84003e-06
9.92998e-06
1.03807e-05
1.03871e-05
1.04225e-05
1.87281e-07
1.85572e-07
1.88295e-07
9.34595e-06
1.01755e-05
1.0199e-05
1.04777e-05
1.04027e-05
4.16461e-06
3.75527e-06
1.04481e-05
1.04336e-05
1.04556e-05
8.60295e-06
1.02077e-05
1.03447e-05
6.53688e-06
6.64394e-06
2.77345e-06
2.75653e-06
2.75004e-06
3.20126e-06
5.63773e-06
2.93952e-06
2.65874e-06
8.45846e-06
1.04668e-05
9.55836e-06
1.04157e-05
1.03949e-05
6.13992e-06
1.03929e-05
1.00617e-05
7.61348e-06
9.47718e-06
1.04154e-05
1.02457e-05
1.04555e-05
9.0152e-06
1.03943e-05
1.03638e-05
1.0349e-05
1.00195e-05
1.04209e-05
6.00912e-06
4.84323e-06
9.49333e-06
1.04576e-05
1.03461e-05
1.03549e-05
1.03872e-05
1.02218e-05
8.88471e-06
4.64777e-06
1.34909e-06
1.01689e-05
9.08343e-06
1.40819e-06
5.2105e-06
1.27822e-06
6.1204e-06
3.21195e-06
3.23024e-06
6.72672e-06
6.1787e-06
2.9536e-06
3.18644e-06
3.54051e-06
1.02587e-05
7.56016e-06
1.00661e-05
4.55136e-07
1.04365e-05
1.03611e-05
1.00562e-05
1.0437e-05
1.04622e-05
4.82745e-07
1.03374e-05
1.04412e-05
7.17202e-06
1.46617e-06
7.55501e-06
9.32009e-06
1.04706e-05
8.75143e-06
9.83149e-06
1.04454e-05
1.00258e-05
6.24467e-07
9.91838e-07
1.03778e-05
1.04015e-05
9.32125e-06
9.90062e-06
1.04381e-05
9.23816e-06
1.03433e-05
1.04214e-05
1.00565e-05
4.88532e-06
1.51296e-06
2.91963e-06
3.66194e-06
5.38151e-06
1.04055e-05
2.24621e-07
2.15106e-07
2.6275e-07
9.32883e-06
1.03903e-05
1.04709e-05
6.12922e-06
1.03747e-05
7.27998e-06
2.37446e-07
2.62832e-07
1.04229e-05
8.06153e-07
2.24656e-06
6.37963e-06
3.12708e-06
5.63231e-06
6.5828e-06
1.00984e-05
5.50822e-06
1.04455e-05
1.04022e-05
1.01863e-05
1.04445e-05
1.02945e-05
1.04326e-05
1.00252e-05
1.00553e-05
7.55888e-06
1.0253e-05
9.02089e-06
8.98158e-06
8.45528e-06
1.04061e-05
1.02391e-05
8.40568e-06
1.03628e-05
7.53568e-06
1.017e-05
1.0422e-05
1.70803e-06
1.0078e-05
9.61736e-06
1.04721e-05
1.02063e-05
9.03414e-06
1.01744e-05
1.00646e-05
1.03485e-05
2.03397e-07
2.08202e-07
2.13116e-07
2.44984e-07
1.96171e-07
1.04226e-05
1.01898e-05
8.4265e-06
1.04449e-05
1.04375e-05
1.04549e-05
1.03038e-05
1.00802e-05
9.79908e-06
4.45065e-06
4.42068e-06
4.47526e-06
4.85092e-06
4.48895e-06
4.79323e-06
1.04472e-05
1.03347e-05
3.94297e-06
4.10505e-06
4.53107e-06
4.84481e-06
4.94122e-06
4.99965e-06
5.26375e-06
5.16712e-06
3.81093e-06
3.52394e-06
5.82847e-06
2.78648e-06
2.59929e-06
2.49349e-06
2.32303e-06
6.21414e-06
2.60661e-06
2.62373e-06
2.59269e-06
2.14447e-06
2.18155e-06
2.1671e-06
6.55884e-06
2.03984e-06
1.92986e-06
6.70115e-06
1.67873e-06
7.29922e-06
7.15004e-06
7.25555e-06
4.56391e-06
4.48988e-06
4.51917e-06
4.32971e-06
4.73676e-06
1.04188e-05
8.71715e-06
1.0446e-05
3.39593e-06
1.08686e-05
1.04369e-05
1.04354e-05
1.03876e-05
4.79101e-06
4.83872e-06
4.53696e-06
1.04571e-05
1.01551e-05
1.04216e-05
1.04112e-05
1.04589e-05
7.79153e-06
9.68191e-06
1.0301e-05
9.34275e-06
1.01165e-05
1.00441e-05
9.67056e-06
1.02946e-05
1.04462e-05
1.04371e-05
4.53171e-06
1.03743e-05
1.02435e-05
1.03699e-05
3.52932e-07
3.48728e-07
3.32668e-07
1.04444e-05
1.00398e-05
1.03057e-05
1.04558e-05
9.06286e-06
1.04251e-05
5.84881e-06
1.03489e-05
1.03693e-05
1.04084e-05
9.50367e-06
9.91087e-06
9.70377e-06
1.04402e-05
1.04533e-05
1.02637e-05
7.469e-06
1.0184e-05
4.29158e-06
4.28802e-06
8.45042e-06
9.31765e-06
1.04142e-05
1.03749e-05
1.04116e-05
1.04764e-05
8.8844e-06
1.04225e-05
1.04971e-05
9.70167e-06
1.04305e-05
1.00846e-05
4.27158e-06
4.23131e-06
5.2635e-06
4.07341e-06
5.2456e-06
5.08296e-06
4.93952e-06
5.65677e-06
3.52142e-06
3.29864e-06
3.23014e-06
6.15241e-06
2.5526e-06
1.75687e-06
1.87015e-06
1.83424e-06
1.88641e-06
2.09136e-06
6.97692e-06
6.84426e-06
9.9904e-06
7.21299e-06
5.40853e-06
6.59096e-06
1.04363e-05
1.04348e-05
9.02107e-06
1.00489e-05
1.01223e-05
1.0343e-05
9.76556e-06
8.20783e-06
9.93006e-06
4.58775e-06
9.15961e-06
1.03339e-05
8.03767e-06
9.984e-06
1.03144e-05
8.62801e-06
1.00712e-05
6.0506e-06
7.24949e-06
9.59977e-06
1.00671e-05
9.82219e-06
9.40044e-06
9.12658e-06
9.75055e-06
9.91444e-06
1.04531e-05
9.68307e-06
1.03101e-05
9.89588e-06
1.03435e-05
9.92669e-06
9.79899e-06
7.27329e-06
5.08209e-06
1.03137e-05
9.58982e-06
1.00381e-05
1.03446e-05
6.99777e-06
9.05748e-06
7.32246e-06
1.04293e-05
9.89786e-06
8.3686e-06
9.88079e-06
9.90913e-06
1.04473e-05
1.00944e-05
8.88582e-06
1.04526e-05
8.64678e-06
4.80902e-06
5.21664e-06
5.31419e-06
3.37062e-06
3.5891e-06
3.10782e-06
5.67397e-06
3.02741e-06
3.04189e-06
6.33548e-06
3.13925e-06
3.11822e-06
6.40879e-06
6.78363e-06
6.15967e-06
2.31294e-06
1.04425e-05
1.011e-05
9.94796e-06
9.67346e-06
1.01268e-05
9.83504e-06
1.02762e-05
9.05632e-06
4.53487e-06
1.04325e-05
4.81354e-06
4.79748e-06
8.3376e-06
4.58289e-06
1.04446e-05
1.04324e-05
6.36424e-06
9.98173e-06
1.0368e-05
6.7829e-06
6.84985e-06
6.69969e-06
7.32632e-06
1.03087e-05
1.04267e-05
7.32912e-06
6.78237e-06
7.1141e-06
1.02031e-05
9.92891e-06
1.062e-05
1.04318e-05
1.00631e-05
9.89483e-06
1.0467e-05
6.497e-06
7.47857e-06
1.02836e-05
1.0437e-05
1.03789e-05
1.0418e-05
8.40134e-06
1.04434e-05
6.37676e-06
8.30517e-06
1.03401e-05
2.07623e-06
1.03282e-05
9.79082e-06
1.03534e-05
7.63154e-06
1.03641e-05
9.93918e-06
5.44421e-06
5.34608e-06
3.77861e-06
3.71726e-06
3.20591e-06
6.37844e-06
2.54787e-06
2.35698e-06
2.36365e-06
6.7043e-06
2.37913e-06
2.23833e-06
2.10977e-06
1.71942e-06
1.84914e-06
1.83931e-06
1.81895e-06
1.57656e-06
6.94604e-06
7.47586e-06
4.25751e-06
4.13066e-06
4.29278e-06
4.02105e-06
1.04156e-05
1.03878e-05
8.77961e-06
1.04044e-05
1.01529e-05
1.01884e-05
1.03793e-05
1.04199e-05
1.0268e-05
6.31938e-07
1.03967e-05
5.89841e-06
3.0539e-06
2.96823e-06
2.7516e-06
2.66585e-06
2.7566e-06
2.77503e-06
6.80314e-06
6.6653e-06
1.04364e-05
2.57666e-06
6.93226e-06
4.76251e-06
1.0338e-05
1.00012e-05
1.0096e-05
1.02247e-05
1.01663e-05
1.02893e-05
1.04374e-05
1.03373e-05
1.02666e-05
9.75939e-06
1.03543e-05
1.94082e-06
1.02722e-05
1.04487e-05
4.08683e-06
4.10784e-06
4.95099e-06
5.00802e-06
4.59557e-06
1.02999e-05
1.04336e-05
1.01184e-05
1.03525e-05
4.5351e-06
9.83552e-06
1.04535e-05
1.03133e-05
1.00566e-05
1.11408e-06
1.09807e-06
1.12001e-06
3.90308e-06
1.00787e-05
1.0323e-05
1.04199e-05
8.56312e-06
9.07714e-06
9.75793e-06
1.04213e-05
1.04376e-05
1.00969e-05
1.04168e-05
1.03258e-05
9.9441e-06
1.04484e-05
4.99077e-06
1.04044e-05
1.04331e-05
1.01977e-05
1.04032e-05
9.94972e-06
6.62591e-06
9.39376e-06
1.04407e-05
1.02831e-05
4.29548e-06
1.03213e-05
4.84218e-06
9.73567e-06
1.03746e-05
9.68878e-06
8.51236e-06
1.01773e-05
4.56397e-06
4.74525e-06
4.56248e-06
1.01697e-05
1.03517e-05
1.03497e-05
9.84465e-06
9.93182e-06
1.02697e-05
1.0057e-05
4.74655e-06
4.76194e-06
4.69149e-06
8.21536e-06
1.0425e-05
1.03581e-05
1.01845e-05
9.8559e-06
1.04524e-05
9.94914e-06
1.01188e-05
9.90483e-06
1.04344e-05
1.03667e-05
1.02995e-05
1.04506e-05
1.02335e-05
1.01483e-05
9.74116e-06
1.02832e-05
1.03251e-05
4.76123e-06
4.7925e-06
7.73065e-06
1.01583e-05
1.04245e-05
9.90219e-06
1.04526e-05
1.01358e-05
9.68288e-06
1.03146e-05
4.16813e-06
1.03633e-05
8.12342e-06
1.04969e-05
1.0444e-05
1.00266e-05
1.03631e-05
1.00769e-05
1.04529e-05
1.01176e-05
1.04077e-05
1.03777e-05
1.02331e-05
1.04234e-05
4.68878e-06
4.62296e-06
4.7138e-06
9.9396e-06
1.03184e-05
1.03695e-05
1.04137e-05
1.0362e-05
1.04568e-05
9.87974e-06
1.01512e-05
9.78124e-06
1.37284e-06
3.30312e-06
2.49029e-06
5.86382e-06
1.04374e-05
1.04454e-05
1.03134e-05
1.04415e-05
1.00843e-05
1.04436e-05
1.04375e-05
1.04394e-05
1.02874e-05
7.5962e-06
1.0438e-05
1.03733e-05
1.02931e-05
1.37597e-06
1.35751e-06
1.38428e-06
7.45344e-06
1.04275e-05
1.04293e-05
1.03976e-05
1.04298e-05
1.04287e-05
9.91846e-06
1.03301e-05
1.03748e-05
9.83626e-06
1.02566e-05
4.62397e-06
1.0114e-05
1.04154e-05
1.04421e-05
4.40295e-06
1.03827e-05
9.96187e-06
1.03371e-05
1.01171e-05
9.16037e-06
1.04118e-05
1.01394e-05
1.0438e-05
1.02924e-05
1.04312e-05
1.03561e-05
9.44796e-06
1.03617e-05
1.0426e-05
1.03896e-05
1.02976e-05
1.0382e-05
1.00196e-05
1.04034e-05
9.97073e-06
1.04236e-05
4.50815e-06
3.52066e-06
5.3134e-06
1.86307e-06
2.62508e-06
2.46023e-06
5.943e-06
1.11995e-06
5.9843e-06
6.94935e-06
1.02956e-05
1.03564e-05
1.04212e-05
1.04444e-05
9.49936e-06
9.80715e-06
1.02805e-05
1.04004e-05
1.04364e-05
1.00254e-05
1.0379e-05
9.25444e-06
1.01155e-05
1.0324e-05
3.11702e-06
3.13562e-06
5.35548e-06
6.26864e-06
4.91581e-06
3.47251e-06
3.11099e-06
6.30471e-06
2.05118e-06
6.8608e-06
2.85628e-06
1.16402e-06
1.28899e-06
1.0186e-05
1.03796e-05
1.04284e-05
1.04179e-05
1.03149e-05
1.02032e-05
1.01016e-05
9.33614e-06
9.79649e-06
8.23585e-06
1.0162e-05
1.04467e-05
1.05848e-05
1.04481e-05
9.64529e-06
1.02146e-05
1.04068e-05
1.03563e-05
9.28893e-06
3.57273e-07
1.04303e-05
6.57005e-06
1.04044e-05
9.83451e-06
8.09777e-06
1.04334e-05
1.04359e-05
1.04505e-05
7.52746e-06
1.00726e-05
1.03119e-05
1.04259e-05
8.9893e-06
1.01893e-05
9.86004e-06
1.04516e-05
1.02922e-05
1.0207e-05
9.704e-06
9.92888e-06
9.83541e-06
1.04475e-05
9.94597e-06
1.02529e-05
1.02805e-05
1.03525e-05
9.82509e-06
1.04125e-05
1.03596e-05
1.04139e-05
1.03947e-05
1.02204e-05
5.44366e-07
5.3712e-07
5.21499e-07
5.47257e-07
5.50544e-07
8.49702e-06
1.03348e-05
9.73217e-06
1.02684e-05
2.78053e-07
2.63157e-07
9.96777e-06
7.33628e-06
1.04404e-05
1.02792e-05
1.0355e-05
1.00436e-05
8.80593e-06
3.72027e-06
1.04544e-05
1.02091e-05
1.03895e-05
1.04438e-05
1.02927e-05
1.01417e-05
5.51067e-06
1.04167e-05
9.97529e-06
9.8779e-06
9.95006e-06
1.03384e-05
9.82387e-06
9.90476e-06
1.06085e-06
5.39353e-06
1.02943e-05
3.53984e-06
3.57894e-06
3.60047e-06
5.7573e-06
1.59408e-06
6.43017e-06
1.04451e-05
1.008e-05
1.04284e-05
9.84778e-06
1.03099e-05
1.01666e-05
2.1367e-06
3.03091e-06
5.79063e-06
6.5495e-06
4.46481e-06
9.88155e-06
1.04379e-05
9.44911e-06
4.88504e-06
4.91544e-06
4.49985e-06
4.33554e-06
1.04538e-05
9.90931e-06
1.03736e-05
9.81846e-06
3.18962e-06
1.04302e-05
1.05559e-05
1.00388e-05
9.89199e-06
1.03605e-05
9.86914e-06
2.39376e-07
9.98626e-06
1.03507e-05
1.04431e-05
1.0416e-05
1.02051e-05
1.03423e-05
4.5104e-06
9.83187e-06
1.03769e-05
1.16686e-06
1.03307e-05
1.02569e-05
2.46582e-07
2.3153e-07
2.44671e-07
2.42834e-07
2.39204e-07
1.04437e-05
1.0434e-05
1.04182e-05
6.27679e-06
1.02007e-05
9.8103e-06
9.75357e-06
1.00531e-05
1.03215e-05
1.03925e-05
1.04083e-05
1.04549e-05
1.04291e-05
1.04283e-05
1.04457e-05
1.04187e-05
9.94193e-06
1.0382e-05
1.00891e-05
1.0367e-05
9.16313e-06
7.84504e-06
1.04228e-05
9.99101e-06
7.82974e-06
1.04169e-05
6.68255e-06
4.71065e-06
1.04493e-05
1.04379e-05
1.02121e-05
3.36584e-06
7.88709e-06
1.04424e-05
1.00242e-05
9.66493e-06
1.03364e-05
1.02388e-05
1.03673e-05
1.04401e-05
1.00452e-05
1.04433e-05
1.03914e-05
1.0389e-05
1.0441e-05
1.04321e-05
1.04558e-05
4.38554e-06
1.0293e-05
9.93804e-06
1.04411e-05
1.0015e-05
1.03542e-05
1.00576e-05
1.04153e-05
9.58068e-06
9.97294e-06
4.44195e-06
1.03056e-05
9.82877e-06
1.04914e-05
1.04408e-05
1.00274e-05
1.02219e-05
1.04428e-05
1.02255e-05
9.27744e-06
1.02567e-05
1.03809e-05
9.97573e-06
4.86866e-06
1.04419e-05
1.02861e-05
1.04413e-05
1.03915e-05
1.04302e-05
1.04454e-05
1.04237e-05
1.03209e-05
3.55227e-06
5.58472e-06
2.77688e-06
1.62839e-06
6.75425e-06
1.01705e-05
8.83297e-06
8.57818e-06
9.86891e-06
9.94921e-06
1.04333e-05
1.04197e-05
9.52973e-06
1.02333e-05
4.33648e-06
4.36527e-06
1.02354e-05
2.07264e-07
2.15868e-07
1.04264e-05
4.68423e-06
1.02774e-05
1.00817e-05
1.04367e-05
1.03507e-05
1.04218e-05
7.30828e-06
1.04346e-05
1.03828e-05
1.03877e-05
5.55066e-06
1.07526e-05
1.04363e-05
1.01314e-05
1.02013e-05
1.03832e-05
1.02835e-05
7.94746e-06
1.0026e-05
1.00793e-05
1.04394e-05
7.84704e-06
8.24806e-06
9.78939e-06
1.03918e-05
1.04397e-05
1.02738e-05
9.97177e-06
1.02497e-05
9.90956e-06
1.04353e-05
9.90006e-06
9.70242e-06
8.21511e-06
2.82056e-07
1.01369e-05
1.04381e-05
8.03662e-06
1.0436e-05
1.01004e-05
1.02757e-05
9.77111e-06
1.00118e-05
1.01953e-05
1.0436e-05
1.01929e-05
7.90672e-06
9.67235e-06
9.13076e-06
1.04285e-05
9.77582e-06
4.756e-06
1.00521e-05
9.41267e-06
9.90697e-06
1.04341e-05
1.04468e-05
9.44394e-07
9.2666e-07
9.29585e-07
5.94845e-06
1.03668e-05
6.0912e-06
1.03867e-05
4.04991e-06
1.04797e-05
9.96598e-06
1.02527e-05
1.01882e-05
1.03713e-05
9.83863e-06
8.23215e-06
1.00517e-05
9.96748e-06
5.44901e-06
1.02957e-05
1.04467e-05
1.04254e-05
1.06945e-05
1.03537e-05
1.04391e-05
6.23589e-06
1.0549e-05
1.02612e-05
1.03969e-05
1.04589e-05
1.02084e-05
4.93041e-06
7.14054e-06
9.76571e-06
1.02416e-05
9.82466e-06
1.02878e-05
9.10846e-06
1.02327e-05
1.02381e-05
1.04467e-05
1.03985e-05
1.00204e-05
9.40781e-06
1.04484e-05
1.0436e-05
1.00665e-05
1.04381e-05
7.36898e-06
1.04173e-05
1.02715e-05
9.78473e-06
1.03257e-05
9.87519e-06
9.82969e-06
1.00455e-05
1.04272e-05
1.02494e-05
1.01827e-05
1.04345e-05
1.04462e-05
7.74922e-06
1.04425e-05
8.21447e-06
1.04412e-05
1.02321e-05
1.01268e-05
1.04477e-05
1.00644e-05
1.0449e-05
1.03568e-05
1.03172e-05
1.0441e-05
1.00916e-05
9.95652e-06
1.02264e-05
1.04542e-05
9.9411e-06
1.04365e-05
9.86307e-06
7.89119e-06
1.04444e-05
7.77324e-06
1.04936e-05
1.04454e-05
1.04354e-05
1.04149e-05
1.01319e-05
1.04249e-05
1.04544e-05
1.01732e-05
1.03843e-05
1.66737e-06
1.65613e-06
1.63252e-06
7.32843e-06
1.04346e-05
1.03981e-05
9.91574e-06
9.6817e-06
1.04023e-05
9.96241e-06
1.04305e-05
1.04109e-05
1.07565e-05
1.08654e-05
1.05459e-05
1.04512e-05
9.99592e-06
7.68274e-06
1.03576e-05
9.97943e-06
1.00429e-05
8.13239e-06
1.03804e-05
1.0447e-05
1.03309e-05
1.03054e-05
1.03376e-05
1.0206e-05
1.02515e-05
1.04347e-05
1.04178e-05
1.03067e-05
5.57495e-06
7.45162e-06
1.04358e-05
7.39419e-06
6.99562e-06
9.81499e-06
7.65679e-06
1.0448e-05
9.95709e-06
1.0232e-05
1.04329e-05
1.04077e-05
1.02441e-05
1.02432e-05
6.96727e-06
1.04254e-05
1.01359e-05
6.48639e-06
1.03508e-05
1.02907e-05
1.03547e-05
1.03856e-05
1.04314e-05
1.0172e-05
1.00562e-05
1.04927e-05
1.02117e-05
1.01939e-05
3.81271e-06
1.00903e-05
1.03826e-05
1.0444e-05
1.04241e-05
1.00052e-05
1.0341e-05
6.65855e-07
1.05202e-05
1.82746e-06
1.04203e-05
1.02745e-05
1.04103e-05
1.04463e-05
1.04398e-05
1.02201e-05
1.03438e-05
9.86956e-06
1.04019e-05
3.4438e-06
1.25308e-06
3.19941e-06
1.52596e-06
2.35794e-06
5.97195e-06
5.71059e-06
2.64181e-06
1.04045e-05
1.03732e-05
1.04019e-05
1.04269e-05
1.04371e-05
6.18792e-06
9.79129e-06
1.04191e-05
1.00251e-05
1.00579e-05
1.00704e-05
6.42583e-06
1.04418e-05
1.00452e-05
1.04535e-05
1.03237e-05
1.04208e-05
1.04215e-05
1.00117e-05
1.03997e-05
1.02103e-05
1.04407e-05
1.02456e-05
9.32804e-06
1.0419e-05
1.04611e-05
1.04471e-05
1.03013e-05
1.03774e-05
1.03399e-05
1.04211e-05
1.04289e-05
1.01419e-05
1.0384e-05
1.02302e-05
3.90837e-06
1.04188e-05
1.0369e-05
1.0422e-05
1.03133e-05
6.79654e-06
1.01141e-05
2.70383e-06
1.03066e-05
1.01777e-05
1.04083e-05
1.04545e-05
9.82697e-07
9.88221e-06
1.04485e-05
1.03654e-05
1.04467e-05
9.64612e-06
1.01655e-05
1.03971e-05
1.03877e-05
9.95954e-06
1.03881e-05
1.00749e-05
1.04428e-05
9.52639e-06
1.04289e-05
1.01868e-05
1.01941e-05
1.03941e-05
9.8536e-06
1.01725e-05
9.9729e-06
1.01373e-05
1.04393e-05
1.02076e-05
1.00813e-05
4.86595e-06
1.04236e-05
1.02413e-05
1.04206e-05
1.03509e-05
1.04393e-05
1.0072e-05
9.38631e-06
3.61927e-06
1.0431e-05
1.04428e-05
8.51488e-06
8.26155e-06
1.034e-05
1.04269e-05
1.04243e-05
1.0448e-05
1.05646e-05
9.59187e-07
1.00772e-06
9.935e-07
1.01319e-06
1.26476e-06
1.24069e-06
1.25753e-06
3.42137e-06
1.45304e-06
6.5381e-06
3.46016e-06
3.48128e-06
5.72068e-06
4.7313e-06
3.76908e-06
1.52654e-06
1.02946e-05
1.03723e-05
9.97118e-06
9.80392e-06
1.04434e-05
9.62358e-06
3.12969e-06
2.2239e-06
1.39008e-06
5.5481e-06
2.042e-06
6.26755e-06
1.02664e-05
6.11254e-06
3.08088e-06
1.60333e-06
9.94708e-06
7.8275e-06
4.80898e-06
1.01183e-05
1.0419e-05
1.04423e-05
7.03794e-06
1.02528e-05
8.65424e-07
9.0852e-07
8.95465e-07
9.13359e-07
1.03937e-05
1.04447e-05
1.00179e-05
1.0456e-05
1.02439e-05
1.04161e-05
1.02399e-05
4.5005e-06
7.58083e-06
5.11893e-06
3.28228e-06
3.30015e-06
3.26438e-06
3.58427e-06
5.97136e-06
3.08555e-06
6.02372e-06
6.59086e-06
2.29005e-06
1.38944e-06
1.15474e-06
1.04097e-05
1.02314e-05
9.86676e-06
1.04389e-05
1.03625e-05
8.18583e-06
9.92762e-06
1.02087e-05
3.27219e-06
5.47129e-06
6.19641e-06
2.38416e-06
2.2159e-06
9.10516e-07
1.04183e-05
1.00519e-05
1.02261e-05
1.04607e-05
1.04067e-05
1.04263e-05
1.04404e-05
9.96437e-06
6.68197e-06
1.04149e-05
6.8371e-06
1.03631e-05
1.01677e-05
1.04188e-05
1.04558e-05
1.02249e-05
1.04528e-05
1.04522e-05
1.0367e-05
1.01257e-05
1.04431e-05
9.91949e-06
1.02738e-05
1.04543e-05
1.04376e-05
1.03934e-05
1.04357e-05
1.04469e-05
1.04447e-05
1.01931e-05
7.02353e-06
9.9739e-06
1.04217e-05
9.92827e-06
9.98533e-06
1.04434e-05
1.01477e-05
1.03162e-05
7.18195e-06
9.06765e-06
1.02626e-05
1.03274e-05
1.01959e-05
1.04379e-05
1.0185e-05
1.04296e-05
1.04375e-05
1.04358e-05
1.01704e-05
1.02778e-05
9.62247e-06
6.46435e-07
6.70613e-07
6.8213e-07
6.80113e-07
1.00385e-05
1.04116e-05
1.02853e-05
1.57247e-06
1.04139e-05
7.74731e-06
1.03831e-05
1.04527e-05
1.01742e-05
1.04458e-05
1.04445e-05
1.02146e-05
1.0427e-05
2.81446e-06
1.02169e-05
1.04344e-05
1.04463e-05
9.87633e-06
1.00889e-05
1.04465e-05
1.03103e-05
9.91839e-06
1.04321e-05
1.04458e-05
1.01498e-05
1.04024e-05
1.04516e-05
1.04307e-05
9.85258e-06
1.04137e-05
1.04413e-05
1.04283e-05
9.93328e-06
1.03173e-05
1.02453e-05
1.00489e-05
1.46953e-06
1.44677e-06
1.47792e-06
7.36045e-06
1.0441e-05
1.04394e-05
1.04297e-05
1.04289e-05
1.04743e-05
1.04214e-05
9.70511e-06
1.02225e-05
1.04241e-05
1.0452e-05
1.04164e-05
1.04276e-05
1.0434e-05
7.66797e-06
1.04452e-05
9.95829e-06
1.0454e-05
9.98178e-06
9.48004e-06
1.04397e-05
1.02295e-05
1.01286e-05
1.04522e-05
1.03428e-05
1.04385e-05
1.00204e-05
1.04441e-05
8.21923e-06
1.04032e-05
1.04441e-05
1.04129e-05
1.04422e-05
1.04458e-05
1.03812e-05
1.04321e-05
1.01344e-05
1.04562e-05
1.04318e-05
1.04385e-05
1.02998e-05
1.04109e-05
1.0438e-05
1.03978e-05
1.01112e-05
9.77811e-06
1.01624e-05
1.02117e-05
1.04299e-05
1.0396e-05
1.04131e-05
1.04059e-05
1.03877e-05
1.70548e-07
1.16849e-07
1.73184e-07
1.77864e-07
1.7832e-07
1.04421e-05
1.04448e-05
1.04263e-05
1.04424e-05
1.04251e-05
1.04305e-05
1.0447e-05
1.01507e-05
1.03364e-05
1.04341e-05
1.04472e-05
1.04341e-05
1.04204e-05
1.04116e-05
1.01439e-05
1.03071e-05
1.04174e-05
1.04332e-05
7.27918e-06
1.04307e-05
1.03563e-05
1.04371e-05
7.80231e-06
1.04019e-05
1.04522e-05
9.04071e-06
1.00852e-05
9.55146e-06
1.01545e-05
9.50662e-06
1.00978e-05
1.04476e-05
1.04394e-05
1.02551e-05
1.04283e-05
1.02763e-05
8.60058e-06
1.03386e-05
1.03145e-05
1.04391e-05
9.88209e-06
1.04156e-05
1.0423e-05
1.04502e-05
9.81333e-06
1.01261e-05
1.04024e-05
1.00086e-05
1.04514e-05
1.02894e-05
1.05103e-05
1.03254e-05
7.85197e-06
1.04412e-05
1.02654e-05
9.98747e-06
9.9233e-06
1.04166e-05
9.68191e-06
1.04286e-05
1.05268e-05
1.01911e-05
1.04261e-05
1.04487e-05
6.54364e-06
1.04396e-05
1.02476e-05
1.04544e-05
1.04494e-05
1.02518e-05
7.9866e-06
1.04397e-05
1.04399e-05
1.04251e-05
1.04391e-05
1.03926e-05
7.95681e-06
1.04235e-05
1.04313e-05
1.04373e-05
7.39684e-06
1.04281e-05
1.04406e-05
1.04397e-05
1.04413e-05
1.04644e-05
1.02602e-05
1.0439e-05
1.04232e-05
1.04554e-05
8.03102e-06
1.05304e-05
1.0408e-05
1.04409e-05
1.02017e-05
1.01048e-05
1.04297e-05
1.05089e-05
9.69536e-06
1.01399e-05
6.9101e-06
7.75938e-06
1.04332e-05
1.04312e-05
4.97142e-07
1.0419e-05
7.35812e-06
1.0444e-05
1.04491e-05
6.92041e-06
6.47198e-06
5.99341e-06
6.07836e-06
6.81533e-06
5.91399e-06
4.96109e-06
3.91695e-06
6.82529e-06
2.5818e-06
2.11123e-06
2.40324e-06
3.12047e-06
3.14003e-06
7.13862e-06
3.53458e-06
2.57769e-06
5.6724e-06
6.55023e-06
3.43106e-06
4.92648e-06
4.10741e-06
4.13732e-06
7.44242e-06
6.42242e-06
2.32247e-06
6.46354e-06
3.84722e-06
5.3023e-06
2.11976e-06
5.45917e-06
4.80114e-06
1.57238e-06
3.88061e-06
5.40559e-06
5.47599e-06
2.09353e-06
7.06299e-06
1.96063e-06
5.49395e-06
2.11387e-06
2.14618e-06
5.73195e-06
6.0602e-06
2.15984e-06
2.96744e-06
2.98588e-06
6.34395e-06
5.00353e-06
6.54903e-06
5.51591e-06
6.84206e-06
3.06698e-06
5.04017e-06
2.69792e-06
1.61956e-06
5.1712e-06
4.51577e-06
5.92323e-06
3.0082e-06
2.71131e-06
7.30749e-06
4.9628e-06
3.33531e-06
3.79178e-06
3.0688e-06
6.60138e-06
1.43937e-06
2.69311e-06
1.92674e-06
4.01837e-06
4.95452e-06
4.2945e-06
6.67939e-06
4.06458e-06
7.68836e-06
8.97696e-07
4.09516e-06
7.12473e-06
4.30492e-06
2.18179e-06
2.14489e-06
2.15752e-06
7.22702e-06
6.73556e-06
3.11066e-06
6.81453e-06
2.40211e-06
7.45281e-06
3.19587e-06
3.29201e-06
2.75775e-06
2.00905e-06
2.43635e-06
1.98075e-06
3.22557e-06
2.45677e-06
5.38265e-06
2.13051e-06
1.19855e-06
2.95672e-06
6.16384e-06
6.85845e-06
2.79558e-06
1.01275e-06
2.72026e-06
6.24053e-06
5.33437e-06
5.73811e-06
3.54657e-06
4.34603e-06
5.59971e-06
1.37654e-06
3.10047e-06
3.63281e-06
3.89109e-06
5.51049e-06
2.48442e-06
3.45955e-06
1.73218e-06
1.98056e-06
5.71824e-06
3.81178e-06
1.73059e-06
1.10062e-06
6.11663e-06
5.61037e-06
5.60801e-06
1.30119e-06
4.08123e-06
1.47645e-06
5.83913e-06
3.24857e-06
6.63599e-06
1.28345e-06
5.76681e-06
2.42613e-06
6.03045e-06
5.23998e-06
6.19446e-06
5.07663e-06
5.60374e-06
5.49012e-06
2.16206e-06
4.24045e-06
2.90131e-06
7.04699e-06
1.95307e-06
5.65068e-06
2.17657e-06
5.44828e-06
4.17046e-06
2.514e-06
5.22376e-06
2.25131e-06
4.33243e-06
3.87087e-06
3.89783e-06
5.05412e-06
3.67975e-06
3.02747e-06
1.56071e-06
2.70588e-06
5.1502e-06
6.40686e-06
4.04897e-06
3.73513e-06
5.53834e-06
1.39276e-06
5.17052e-06
2.49865e-06
7.5517e-06
5.76819e-06
8.68648e-06
1.01529e-05
1.12582e-06
6.11085e-06
2.94276e-06
5.23829e-06
5.78817e-06
1.03742e-05
6.89421e-06
5.64721e-06
1.86724e-06
3.11661e-06
4.26538e-06
7.83781e-06
8.40905e-06
6.53963e-06
2.96108e-06
2.81725e-06
4.29634e-06
1.67879e-06
2.78603e-06
2.83451e-06
3.12558e-06
2.72198e-06
6.27976e-06
6.28672e-06
7.86748e-06
6.80917e-06
1.28191e-06
6.98756e-06
1.91168e-06
6.51109e-06
4.58186e-06
6.08862e-06
5.62555e-06
6.12817e-06
1.87844e-06
2.53072e-06
2.46332e-06
3.31086e-06
6.55017e-06
2.76809e-06
1.86229e-06
8.07731e-06
5.34317e-06
3.80281e-06
1.92516e-06
1.91758e-06
3.8651e-06
3.83638e-06
2.76532e-06
2.2499e-06
6.62475e-06
5.19115e-06
7.42516e-06
1.68056e-06
3.84195e-06
2.02505e-06
3.64838e-06
2.10567e-06
7.49322e-06
3.70653e-06
3.13832e-06
5.35624e-06
4.01264e-06
5.77794e-06
2.36806e-06
1.11193e-06
1.20119e-06
4.14505e-06
6.42988e-06
5.02668e-06
5.73517e-06
2.37459e-06
5.74894e-06
5.26384e-06
3.89581e-06
3.29883e-06
5.44284e-06
5.20126e-06
3.76587e-06
1.37343e-06
2.95396e-06
5.29411e-06
2.74019e-06
4.04328e-06
1.77717e-06
2.91523e-06
6.20407e-06
4.93747e-06
6.13524e-06
2.62216e-06
1.05118e-06
2.392e-06
4.09517e-06
7.70153e-06
1.93166e-06
2.53855e-06
5.14959e-06
2.9551e-06
5.77793e-06
3.18869e-06
5.02869e-06
2.52458e-06
6.92772e-06
1.31475e-06
2.35684e-06
3.29396e-06
5.80414e-06
3.94395e-06
2.5408e-06
2.54143e-06