/*--------------------------------*- C++ -*----------------------------------*\
  =========                 |
  \\      /  F ield         | OpenFOAM: The Open Source CFD Toolbox
   \\    /   O peration     | Website:  https://openfoam.org
    \\  /    A nd           | Version:  8
     \\/     M anipulation  |
\*---------------------------------------------------------------------------*/
FoamFile
{
    version     2.0;
    format      ascii;
    class       surfaceScalarField;
    location    "7.4";
    object      phi;
}
// * * * * * * * * * * * * * * * * * * * * * * * * * * * * * * * * * * * * * //

dimensions      [0 3 -1 0 0 0 0];

internalField   nonuniform List<scalar> 
5897
(
4.47096e-10
-1.59796e-10
8.24035e-10
-1.11133e-09
-1.12227e-08
1.26082e-08
-1.23462e-08
1.09606e-08
9.52192e-09
-9.44341e-09
1.31179e-10
-2.09686e-10
1.59288e-10
-1.27716e-09
1.16722e-09
-4.93385e-11
1.24038e-08
-1.06672e-08
2.47731e-11
-1.76137e-09
-7.84244e-09
-2.68872e-09
6.54428e-09
3.98689e-09
-4.84636e-09
3.98577e-10
-6.36308e-10
5.08409e-09
1.34142e-08
7.2977e-09
1.19255e-10
-2.08311e-08
-8.72675e-09
1.89368e-09
-7.09019e-10
7.54209e-09
2.84772e-09
9.34095e-09
-9.93218e-09
-2.25649e-09
-1.38223e-11
6.61759e-10
-7.36264e-10
8.83274e-11
-1.43863e-09
8.99138e-09
1.80394e-09
1.76103e-08
8.26259e-10
-1.50933e-08
-3.34327e-09
1.36407e-08
7.99878e-10
-2.03684e-09
1.60088e-09
1.74575e-10
-3.51633e-10
-1.42383e-09
-1.94169e-08
1.51663e-08
1.17763e-08
-7.52575e-09
4.30815e-09
5.07228e-09
-5.68008e-09
-3.70036e-09
-1.10791e-10
5.38501e-10
1.23593e-10
-5.51303e-10
6.4731e-11
-3.85698e-10
-9.85923e-11
4.1956e-10
9.98353e-09
-2.56322e-09
-1.00696e-08
2.64929e-09
-1.65365e-08
1.98806e-08
-5.86133e-09
2.51715e-09
4.76178e-09
-9.33711e-09
-3.26712e-09
1.10066e-08
-4.36638e-09
-8.09986e-09
1.45969e-09
2.10785e-10
1.81435e-10
-1.85465e-08
1.81543e-08
6.91251e-09
-2.70514e-09
-9.90685e-09
5.69948e-09
-9.42476e-09
-7.07748e-09
5.62327e-09
1.0879e-08
-5.45948e-10
2.44545e-09
1.10012e-09
-2.99963e-09
-1.46161e-08
1.9748e-08
-9.80675e-09
4.67483e-09
2.71412e-10
-1.17898e-10
-2.12791e-10
5.92774e-11
-1.57036e-08
3.23328e-09
-6.9465e-09
-9.17949e-09
1.76019e-08
2.88828e-09
-1.13107e-08
-8.93616e-09
1.21195e-08
-1.47246e-08
1.15413e-08
-1.16621e-08
5.68964e-10
1.32743e-09
9.76568e-09
1.29824e-08
8.98934e-09
-5.78711e-10
-2.1393e-08
-9.44865e-09
-1.36236e-08
6.05648e-09
1.70158e-08
-8.63249e-09
4.48036e-10
8.18445e-09
4.0424e-09
-5.40811e-09
-3.24226e-09
4.60797e-09
1.74151e-08
-1.59097e-08
-7.29162e-09
5.78623e-09
5.84233e-09
-6.10192e-09
8.64349e-10
-6.0476e-10
9.3452e-09
-1.24206e-08
-8.9344e-09
1.20098e-08
-1.14467e-09
9.66334e-10
2.06298e-09
-1.88464e-09
4.19497e-10
-5.66749e-09
-2.03626e-10
5.45162e-09
2.76474e-09
-3.8274e-09
1.04194e-08
-2.32996e-09
3.60853e-09
-3.84156e-09
2.56299e-09
-1.49327e-08
1.63691e-08
-2.90558e-09
1.46917e-09
1.59007e-10
-1.85214e-09
-3.22104e-10
2.01524e-09
8.33335e-09
1.15436e-09
-1.73203e-09
-7.75567e-09
4.45198e-11
4.52431e-11
-8.97629e-11
-1.51795e-10
7.32233e-11
3.74522e-10
-2.9595e-10
-1.24662e-09
3.34283e-09
-1.88794e-08
1.67832e-08
-6.32689e-09
4.49347e-09
-4.96539e-10
-6.81527e-09
-2.19071e-08
5.48772e-09
2.32346e-08
1.75849e-09
-3.95233e-09
9.69262e-09
-7.49878e-09
6.80109e-09
-7.56194e-09
-1.92788e-09
-2.55488e-09
1.26295e-09
1.65299e-10
7.91671e-09
-8.08201e-09
5.9643e-10
7.1106e-09
-7.70703e-09
-9.29786e-09
2.40247e-11
9.27384e-09
5.73217e-10
-1.45279e-08
-1.28219e-10
1.40829e-08
8.35238e-09
-5.92077e-09
4.16114e-10
-9.76336e-09
9.84349e-12
9.75351e-09
-9.59285e-09
1.01778e-11
9.58268e-09
-9.31316e-09
6.74785e-12
9.30641e-09
1.09674e-08
-6.76739e-09
-4.19996e-09
-3.9457e-11
-1.71689e-08
1.7218e-08
-9.61222e-12
-3.90156e-11
-1.67539e-08
1.68018e-08
-8.84932e-12
-1.36382e-10
2.9132e-10
-1.27085e-09
1.11591e-09
6.29968e-10
6.08194e-09
-1.45117e-10
-6.56679e-09
-3.09782e-11
1.6515e-08
-2.49881e-12
-1.64815e-08
-9.29413e-09
5.28377e-13
9.29361e-09
4.66328e-10
-1.66804e-09
1.44568e-09
-2.43973e-10
-4.74735e-11
1.65205e-08
5.45581e-12
-1.64785e-08
1.58531e-08
-1.51005e-08
-1.25923e-09
5.06631e-10
-9.26315e-09
-2.60015e-12
9.26575e-09
1.59618e-09
-2.99824e-09
3.50545e-09
-2.1034e-09
3.21991e-10
1.64373e-08
-9.06194e-10
-1.51603e-09
4.7013e-10
2.64208e-09
-3.05937e-11
1.65054e-08
-1.34153e-11
-1.64614e-08
2.09685e-09
5.15577e-09
-4.27321e-09
-2.97941e-09
2.55558e-09
-2.32357e-09
1.92672e-09
-2.15872e-09
1.6661e-08
3.06276e-09
-3.35467e-09
6.01917e-10
-1.6184e-09
1.48281e-09
-9.2309e-09
-2.54335e-12
9.23344e-09
2.33261e-10
-1.64636e-08
1.6316e-08
-8.56819e-11
-3.50473e-09
-8.7095e-09
3.24901e-09
8.96522e-09
-2.13303e-11
1.64758e-08
-2.38113e-11
-1.64306e-08
-7.82192e-09
5.41521e-09
-4.22044e-09
6.62715e-09
-1.72163e-11
1.70801e-08
-2.90409e-11
-1.70339e-08
-1.68807e-11
1.66675e-08
-2.83195e-11
-1.66223e-08
-2.6813e-09
-1.00598e-08
4.9192e-09
-1.75489e-11
1.64459e-08
-2.46516e-11
-1.64037e-08
-9.19402e-09
-4.76893e-12
9.19878e-09
-1.65634e-08
-9.28265e-10
6.02552e-10
1.68891e-08
-9.64532e-09
-3.76578e-12
9.64908e-09
-9.47836e-09
-3.53556e-12
9.48189e-09
1.3916e-09
-1.68773e-11
1.64037e-08
-2.82529e-11
-1.63586e-08
-2.00318e-11
1.70352e-08
-2.21486e-11
-1.6993e-08
-1.96475e-11
1.66236e-08
-2.17481e-11
-1.65822e-08
2.94832e-09
3.69149e-09
-4.54296e-09
5.14923e-09
4.11506e-09
-6.31597e-09
-7.53769e-12
1.72992e-08
-7.18016e-11
-1.72198e-08
-9.86363e-12
1.68804e-08
-6.69405e-11
-1.68036e-08
-3.53711e-09
1.61258e-09
-1.46119e-08
1.923e-09
7.89026e-09
-2.64679e-09
-7.16647e-09
-1.29009e-08
3.71161e-09
-6.51434e-09
1.17168e-10
3.56149e-10
-4.17072e-10
-5.62453e-11
-9.15905e-12
-1.63166e-08
1.63601e-08
-3.43693e-11
-9.6083e-09
-1.07482e-12
9.60938e-09
-9.44216e-09
-1.04109e-12
9.44321e-09
-1.64144e-11
-1.69581e-08
1.70062e-08
-3.1681e-11
-1.61978e-11
-1.6547e-08
1.65946e-08
-3.14048e-11
6.50688e-11
-5.61002e-09
-2.81199e-10
5.82615e-09
-2.84574e-11
1.71989e-08
-1.71478e-08
-2.26301e-11
-2.78998e-11
1.67834e-08
-1.67335e-08
-2.19924e-11
7.18981e-09
1.15281e-08
-1.89852e-08
2.67297e-10
-8.69232e-09
-5.95356e-09
1.11412e-08
3.28154e-10
1.8052e-08
-1.7467e-08
-9.13129e-10
3.12489e-10
1.76108e-08
-1.70433e-08
-8.79987e-10
-9.57824e-09
-3.90021e-13
9.57863e-09
-9.41289e-09
-3.20492e-13
9.41321e-09
9.19509e-09
7.74717e-10
-6.28852e-10
6.12749e-09
-7.73726e-09
7.31312e-09
-5.70335e-09
-2.1899e-11
1.71709e-08
-1.7122e-08
-2.7031e-11
-2.13404e-11
1.67562e-08
-1.67083e-08
-2.65548e-11
3.6775e-09
-3.45033e-09
-4.87406e-10
2.60242e-10
5.02388e-10
2.1997e-09
-2.14456e-09
-5.57532e-10
-8.13896e-12
1.69409e-08
-2.00578e-11
-1.69127e-08
-9.20488e-12
1.65254e-08
-2.32073e-11
-1.6493e-08
-1.42288e-08
-4.51114e-09
1.58344e-08
-2.46716e-11
1.71461e-08
-1.70992e-08
-2.22844e-11
-2.41125e-11
1.6732e-08
-1.66861e-08
-2.18132e-11
4.436e-09
3.87944e-09
-3.16621e-09
-1.92662e-11
1.71232e-08
-1.70926e-08
-1.13085e-11
-1.88559e-11
1.67096e-08
-1.66796e-08
-1.11154e-11
-6.24283e-10
-4.74081e-10
3.17958e-10
7.80406e-10
-5.24938e-09
4.12425e-09
5.12327e-09
-3.99814e-09
1.0008e-09
-3.98328e-10
-5.80541e-10
-2.19279e-11
-1.95044e-11
1.69392e-08
2.31032e-11
-1.69428e-08
-1.65066e-11
1.64973e-08
-5.4996e-12
-1.64753e-08
-8.66461e-12
1.6233e-08
-2.10839e-11
-1.62033e-08
-9.05128e-09
-7.29904e-12
9.05858e-09
3.47693e-09
2.41607e-09
-3.2732e-09
-2.61979e-09
-2.08362e-11
1.71173e-08
-1.57265e-11
-1.70808e-08
-2.0391e-11
1.67038e-08
-1.53037e-11
-1.66681e-08
-1.02178e-08
-1.29059e-08
1.1901e-08
2.85065e-10
-3.02287e-09
-2.84727e-11
2.76628e-09
-9.49608e-09
-1.20993e-11
9.50818e-09
-9.33475e-09
-1.07821e-11
9.34553e-09
-9.80282e-09
-9.63187e-09
8.6499e-10
1.91862e-09
-2.28122e-09
9.15068e-09
-8.59676e-09
-1.24719e-09
6.93269e-10
-4.50433e-09
-4.14037e-09
4.95505e-09
3.68966e-09
2.56915e-09
4.94271e-10
-2.77836e-09
-4.06694e-11
-1.70104e-08
1.70228e-08
2.82715e-11
-1.83881e-11
-1.64664e-08
1.64911e-08
-6.32145e-12
5.05722e-10
-1.12028e-09
-1.4486e-08
-9.34534e-09
-2.01444e-09
1.94611e-09
-8.35943e-12
1.62124e-08
-1.34062e-11
-1.61906e-08
-9.50482e-09
9.52054e-09
-1.57192e-11
-9.35736e-09
9.32827e-09
2.90906e-11
-1.32664e-08
-3.51728e-09
-9.27533e-09
9.24435e-09
-9.01406e-09
-1.13533e-11
9.02541e-09
-9.80413e-10
8.07489e-10
4.56393e-10
-2.83468e-10
-4.07697e-09
-6.29992e-09
3.5072e-09
6.86969e-09
-9.34375e-09
-9.46579e-09
-2.07233e-13
9.466e-09
-9.31078e-09
1.1887e-12
9.30959e-09
8.57902e-09
1.5562e-09
-1.80187e-09
1.59401e-08
-1.57493e-08
3.11718e-10
-5.02549e-10
-1.52208e-11
1.621e-08
2.72509e-11
-1.6222e-08
-2.06887e-08
1.18132e-08
-9.31546e-09
-9.17767e-09
9.32198e-09
-1.4431e-10
-8.85954e-09
9.33478e-09
-4.75247e-10
7.3181e-10
1.72242e-09
-1.58924e-09
-1.79342e-08
5.37128e-09
-1.37564e-08
-1.74644e-08
5.12266e-09
-1.33218e-08
-1.68197e-08
4.93641e-09
-1.31633e-08
-7.20296e-12
1.63273e-08
-1.6288e-08
-3.2104e-11
-8.99264e-09
-1.98209e-12
8.99463e-09
9.98353e-09
-9.66154e-09
1.05101e-08
1.08704e-09
-2.4465e-09
-6.51835e-11
1.63435e-08
7.56643e-11
-1.6354e-08
-9.28069e-09
-9.4908e-09
2.02991e-11
9.4705e-09
-9.30702e-09
6.57395e-12
9.30044e-09
-4.23209e-11
1.80601e-09
-1.16178e-09
-1.03145e-11
1.63033e-08
-1.62711e-08
-2.19159e-11
-3.71705e-09
6.16942e-09
3.0316e-09
-5.48397e-09
1.63128e-08
-1.70021e-08
1.09973e-10
5.79278e-10
3.67445e-10
-1.67503e-10
-4.16445e-10
2.16503e-10
-9.6622e-12
1.69814e-08
-3.1081e-11
-1.69407e-08
-9.62783e-12
1.65691e-08
-3.08775e-11
-1.65286e-08
3.93763e-09
-5.76814e-10
3.16679e-10
-3.30136e-11
-9.47181e-09
2.54027e-11
-9.38276e-09
-9.79616e-09
9.78862e-09
-9.62267e-09
9.61281e-09
-9.24778e-09
-7.72028e-09
8.36272e-09
-6.42439e-10
-3.39788e-12
1.62816e-08
-1.6252e-08
-2.62344e-11
-2.15192e-11
-1.6998e-08
1.69865e-08
-5.69326e-11
-1.64168e-08
1.64991e-08
-9.05515e-09
3.76974e-11
9.01745e-09
1.3879e-10
1.61679e-08
-3.66605e-10
-2.67819e-11
6.64051e-11
1.04474e-10
-1.44097e-10
-9.66253e-09
-9.49524e-09
-2.2996e-09
3.98046e-09
8.30267e-09
6.24928e-10
1.46783e-09
-1.36095e-09
1.21909e-08
-1.30635e-08
2.78577e-09
-2.44873e-09
-7.63528e-09
7.29824e-09
-6.43337e-12
1.62613e-08
-2.38205e-11
-1.6231e-08
-3.12749e-10
-8.86492e-09
-8.5348e-09
-3.24739e-10
-9.20317e-09
9.75263e-09
-9.78109e-09
9.58313e-09
-9.61103e-09
-5.02821e-10
-1.59008e-08
1.60909e-08
-9.62833e-09
-9.46181e-09
-4.27521e-09
-8.72772e-09
8.04384e-09
4.95908e-09
-1.9222e-09
4.97989e-09
7.94887e-09
2.46534e-09
5.77472e-09
-5.83359e-09
-2.40647e-09
-9.75397e-09
9.73207e-09
-9.58447e-09
9.56313e-09
1.69432e-08
-1.68091e-08
-2.02072e-10
6.79828e-11
-3.67961e-09
7.6466e-09
-6.53542e-09
2.56843e-09
-5.7796e-10
-7.14232e-09
-9.16575e-09
1.00546e-11
9.15569e-09
4.15265e-09
-4.7119e-09
-8.13307e-09
-1.79511e-10
1.59144e-08
-1.68409e-08
1.66983e-08
-2.74074e-10
4.16669e-10
9.70539e-09
-9.73006e-09
9.53683e-09
-9.56094e-09
-1.69853e-10
1.48628e-10
1.21499e-09
-1.19377e-09
-9.59465e-09
-9.42909e-09
2.854e-10
-7.55651e-09
6.68918e-09
5.81932e-10
-2.78712e-10
1.78187e-08
3.49513e-10
-1.78895e-08
1.55498e-08
-1.22062e-08
-2.08118e-08
1.74682e-08
1.65321e-08
-1.20262e-08
-2.31675e-08
1.86616e-08
1.60609e-08
-1.16942e-08
-2.2592e-08
1.82253e-08
-1.65228e-08
-1.43255e-10
3.1403e-10
1.6352e-08
5.35181e-09
-7.31502e-09
-1.55611e-09
3.51932e-09
9.68817e-09
-9.70744e-09
9.52003e-09
-9.53888e-09
-1.51723e-08
1.56094e-08
-2.03897e-10
1.67687e-08
6.29215e-11
-5.04715e-11
-1.67812e-08
1.02441e-08
-9.91597e-09
1.00455e-08
-9.73306e-09
-9.47736e-09
1.15698e-08
-1.29717e-08
1.08793e-08
1.67504e-08
2.34276e-11
-5.13913e-12
-9.69133e-09
9.6705e-09
-9.52315e-09
9.50276e-09
3.83506e-10
-2.81231e-10
1.63432e-10
-9.58472e-11
-3.22294e-10
2.54709e-10
-2.30385e-11
1.70271e-08
-1.29652e-11
-1.69911e-08
-2.24105e-11
1.64906e-08
1.03334e-11
-1.64786e-08
-1.61914e-08
1.62261e-08
5.73971e-12
-4.04514e-11
-1.67343e-08
1.67346e-08
-2.28992e-11
2.25873e-11
1.24492e-13
2.19704e-11
-1.62135e-08
1.9152e-11
-2.99773e-12
2.49491e-10
3.06337e-10
-1.88383e-10
-1.62271e-08
1.624e-08
-3.41977e-12
-9.46908e-12
-1.67203e-08
1.67192e-08
-1.90506e-11
2.01097e-11
-6.90597e-09
7.15556e-09
2.53619e-09
-9.50422e-09
-9.34395e-09
-9.05995e-09
6.43517e-11
-1.78231e-08
-7.97378e-11
1.78385e-08
-2.32212e-09
8.08179e-09
-1.00349e-08
-1.62252e-08
1.62342e-08
-1.26849e-11
3.61912e-12
-1.66841e-08
1.6676e-08
-1.86241e-11
2.66818e-11
1.41243e-09
-1.21594e-09
-3.66342e-10
-1.62163e-08
1.62255e-08
-1.07528e-11
1.5168e-12
-1.66434e-08
1.66395e-08
-1.34183e-11
1.73664e-11
4.03319e-10
-2.27821e-10
1.62129e-08
-1.62115e-08
-1.66098e-11
1.52245e-11
1.66118e-08
-1.66162e-08
-1.92491e-11
2.36584e-11
2.11487e-08
-8.1466e-09
-1.97177e-11
-2.49401e-11
2.3976e-11
2.2823e-11
-8.50856e-12
1.56826e-08
-4.98786e-12
-1.56132e-08
-9.16646e-09
9.15925e-09
-1.61705e-08
1.61776e-08
-2.73453e-11
2.0203e-11
-1.65646e-08
1.65713e-08
-2.85652e-11
2.18693e-11
1.57868e-08
2.87901e-11
-1.33004e-10
-9.4853e-09
-9.32729e-09
-9.02242e-09
-1.61492e-08
1.61562e-08
-2.23112e-11
1.52914e-11
-1.65419e-08
1.6549e-08
-2.26921e-11
1.55809e-11
2.32716e-08
1.36482e-11
-2.34146e-09
-2.09438e-08
-1.15001e-08
2.22874e-08
-1.7231e-08
6.44364e-09
-1.34971e-08
2.26742e-08
-1.60232e-08
6.84607e-09
-1.31956e-08
2.2064e-08
-1.56624e-08
6.79398e-09
1.58531e-08
4.07063e-11
-1.07004e-10
-1.58811e-08
1.5902e-08
-3.01209e-11
9.17726e-12
-1.61237e-08
1.61355e-08
-2.26255e-11
1.07796e-11
-1.65163e-08
1.65286e-08
-2.29896e-11
1.06885e-11
9.13087e-09
-9.14119e-09
-1.61042e-08
1.61166e-08
-2.20064e-11
9.55274e-12
-1.64968e-08
1.65095e-08
-2.19532e-11
9.32809e-12
2.06464e-12
1.27548e-11
3.22525e-11
2.8637e-12
1.58869e-08
-1.58825e-08
7.07825e-12
-1.14457e-11
-2.12061e-09
-7.67511e-09
7.34699e-09
-1.60867e-08
1.60947e-08
-3.16133e-11
2.3616e-11
-1.64789e-08
1.64868e-08
-3.19418e-11
2.40675e-11
4.38994e-10
-1.59775e-08
1.58577e-08
-1.58565e-08
1.45777e-11
-1.58574e-11
-4.86133e-09
4.00665e-09
2.07353e-08
3.25303e-11
-6.05217e-11
-1.60206e-08
1.60599e-08
-3.96657e-11
3.62535e-13
-1.64106e-08
1.64506e-08
-4.03023e-11
3.41823e-13
1.58967e-08
4.62169e-12
6.62817e-13
-9.53147e-09
-9.3254e-09
-3.35376e-09
-2.35403e-10
1.38828e-10
-9.00786e-09
9.1065e-09
-9.1099e-09
-1.58197e-08
1.58303e-08
1.44754e-11
-2.50779e-11
-1.60053e-08
1.60461e-08
-2.53336e-11
-1.54343e-11
-1.63952e-08
1.64372e-08
-2.58218e-11
-1.61793e-11
1.62002e-08
-8.76474e-12
2.14957e-11
1.65959e-08
-8.87057e-12
2.47287e-11
9.46751e-12
8.51272e-12
2.46935e-11
7.9144e-12
-1.60042e-08
1.60261e-08
-2.3039e-11
1.09453e-12
-1.63947e-08
1.64171e-08
-2.30793e-11
7.32555e-13
-1.57788e-08
1.57979e-08
-1.26158e-12
-1.78134e-11
-1.5981e-08
1.60029e-08
-3.37927e-11
1.19117e-11
-1.6371e-08
1.63929e-08
-3.4157e-11
1.22595e-11
-1.57679e-08
1.57796e-08
1.53801e-11
-2.70692e-11
-9.08454e-09
9.07811e-09
1.58766e-08
-6.36975e-12
1.66786e-11
9.54322e-09
-9.55288e-09
9.37881e-09
-9.38844e-09
-1.59302e-08
1.5973e-08
-2.95395e-11
-1.32463e-11
-1.6318e-08
1.63614e-08
-3.02158e-11
-1.32216e-11
-1.65566e-09
1.54745e-09
8.33277e-09
-8.22456e-09
-1.57188e-08
1.5739e-08
9.78104e-12
-2.99973e-11
-9.12033e-09
-1.5928e-08
1.596e-08
-2.12087e-11
-1.07354e-11
-1.63155e-08
1.63481e-08
-2.14838e-11
-1.1112e-11
-2.40099e-09
1.13125e-09
-1.32581e-08
1.10192e-11
2.9616e-12
2.41021e-11
-7.85491e-13
-2.70091e-12
1.6874e-11
-5.75505e-10
5.95889e-10
-1.56759e-08
1.57003e-08
5.05801e-13
-2.49398e-11
-3.6588e-09
-2.18569e-09
2.84625e-09
-1.6204e-08
1.60246e-08
1.54649e-10
2.47918e-11
-1.58203e-08
1.56455e-08
1.53019e-10
2.18266e-11
-1.47802e-08
-7.04158e-09
7.37334e-09
1.44484e-08
1.68837e-09
-7.92936e-09
-6.28395e-10
6.86939e-09
1.58477e-08
-1.13304e-11
2.13179e-11
-1.56385e-08
1.56757e-08
-1.25102e-11
-2.47639e-11
-1.56126e-08
1.56472e-08
-6.15888e-12
-2.84942e-11
-9.02696e-09
-1.55809e-08
1.56288e-08
-2.33792e-11
-2.4546e-11
-1.51686e-09
-5.84975e-09
1.34721e-09
6.0194e-09
-1.55688e-08
1.5627e-08
-5.35909e-11
-4.61739e-12
3.4941e-11
-5.26058e-12
3.81018e-11
-6.78567e-12
-7.63399e-09
7.20174e-09
-5.82387e-12
2.59721e-11
8.71056e-09
-1.06147e-08
1.45124e-08
-1.82999e-08
-6.24722e-09
1.56109e-08
-1.57999e-08
3.15937e-11
-1.05418e-11
5.74379e-09
2.71787e-09
-5.97815e-09
-2.48352e-09
1.25931e-08
7.29913e-09
-5.37213e-09
-1.45201e-08
3.11509e-11
-2.70201e-12
3.2787e-11
-3.37913e-12
-1.04559e-09
-8.11604e-09
5.64869e-10
5.16592e-09
-1.40261e-08
1.6447e-08
-7.5868e-09
1.44116e-10
-1.70543e-10
-1.79651e-10
2.06077e-10
1.91244e-10
-8.99348e-10
8.3821e-11
-1.60504e-08
4.04749e-11
-1.07138e-11
-1.64412e-08
4.16097e-11
-1.10649e-11
-7.03613e-12
3.50643e-11
-1.66292e-10
1.17864e-10
-1.57409e-08
3.60056e-11
-1.39317e-11
2.87617e-11
3.73642e-12
2.9462e-11
3.25546e-12
4.40933e-10
-3.15659e-10
-2.77069e-10
-9.54511e-09
9.52207e-09
-9.3238e-09
9.30138e-09
1.40696e-09
-1.76167e-08
-7.92368e-10
-1.60164e-08
1.31851e-11
-2.14248e-12
-1.64061e-08
1.34062e-11
-2.47151e-12
3.99371e-10
-4.41299e-09
-8.32748e-10
-3.06079e-12
3.35183e-11
-1.81568e-08
1.07797e-10
1.81268e-08
-7.77284e-11
4.7926e-10
4.98455e-09
-1.42583e-08
8.79452e-09
1.20311e-09
-1.59752e-09
-5.06064e-09
5.45506e-09
-1.56993e-08
3.595e-11
-1.25564e-11
-1.77984e-08
1.96473e-11
-4.42733e-11
3.7199e-10
-4.22325e-10
2.48409e-11
6.52669e-12
2.5263e-11
6.47962e-12
-1.48346e-08
-6.88327e-10
1.87562e-08
-1.56625e-08
3.4392e-11
-1.03259e-11
2.95975e-12
2.6999e-11
3.0266e-11
-3.21665e-13
3.10414e-11
-4.86153e-13
7.79892e-09
-1.90121e-09
1.85008e-10
3.03212e-09
1.79315e-08
-1.59456e-08
2.22305e-11
-6.88829e-12
-1.63339e-08
2.30857e-11
-7.14439e-12
1.31574e-08
-1.3952e-08
-3.76541e-09
4.56009e-09
-1.5636e-08
3.61751e-11
-1.27722e-11
1.65488e-12
3.70953e-11
5.04947e-11
-6.17327e-12
5.18951e-11
-6.29254e-12
3.24582e-10
3.37513e-10
-4.12604e-10
7.45043e-09
-1.09865e-09
-1.14111e-09
-5.21068e-09
-1.56053e-08
2.87582e-11
-4.37623e-12
-5.40519e-09
4.00308e-09
-5.27981e-09
3.87623e-09
-5.01472e-09
3.74482e-09
3.07265e-10
-1.93916e-10
1.04299e-09
-1.15634e-09
-1.54376e-09
6.00104e-10
1.85545e-08
-1.60337e-09
6.34642e-10
1.90207e-08
-4.42205e-10
-1.06578e-09
2.72609e-10
1.23538e-09
2.96693e-12
3.67784e-11
2.76163e-11
1.59171e-11
2.84466e-11
1.59917e-11
-1.58849e-08
2.13626e-11
4.32356e-11
-1.62711e-08
2.37874e-11
4.32994e-11
1.78296e-09
-1.75808e-09
-7.42957e-10
7.18078e-10
-1.19857e-08
8.23102e-09
9.9948e-09
-9.11912e-09
-8.75688e-10
-8.21323e-09
7.67487e-09
-1.43135e-09
7.03393e-10
1.13729e-08
-1.06449e-08
-2.832e-10
1.20249e-10
-2.95171e-10
1.27351e-10
-4.94854e-11
-8.37864e-09
4.18023e-10
8.0101e-09
-1.55932e-08
1.91252e-11
5.27742e-12
-2.0196e-11
5.01812e-11
-1.93004e-11
4.87391e-11
1.3915e-08
-2.24238e-08
3.89085e-09
4.61801e-09
1.35801e-08
-2.187e-08
3.81671e-09
4.4732e-09
1.19684e-08
-1.66298e-08
1.14608e-10
4.54683e-09
-8.80175e-10
2.52743e-10
1.12611e-09
-4.98676e-10
-2.59306e-11
4.90174e-11
-2.51576e-11
4.78972e-11
-2.44162e-11
4.85828e-11
-2.39255e-11
4.76449e-11
-1.79042e-11
4.18915e-11
-1.74141e-11
4.09133e-11
-1.21984e-11
3.69382e-11
-1.1953e-11
3.61247e-11
7.8665e-12
2.98927e-11
2.52521e-11
1.66896e-11
2.60495e-11
1.64593e-11
1.67621e-08
-1.12424e-08
7.15024e-09
-1.26699e-08
1.63425e-08
-1.09753e-08
6.99873e-09
-1.23659e-08
-1.17379e-08
-1.16083e-08
-1.13097e-08
-3.29608e-09
-2.24051e-08
2.72967e-08
-1.59549e-09
5.14303e-11
-2.81112e-11
5.02768e-11
-2.81726e-11
-1.81395e-08
6.57193e-09
1.49837e-08
-3.41614e-09
2.71902e-09
8.64784e-09
-6.8283e-09
-4.53856e-09
1.42689e-09
-1.18886e-09
3.86893e-10
3.77548e-11
7.32511e-12
3.83749e-11
7.64209e-12
3.8318e-10
5.38839e-10
-5.97436e-10
1.57005e-08
-1.69471e-08
1.49238e-08
7.76642e-10
1.48419e-10
1.74146e-09
-2.88998e-10
9.40356e-12
7.33121e-12
2.40189e-11
1.84487e-13
1.11486e-11
2.86366e-11
-3.84609e-09
3.81543e-09
-7.2179e-09
7.24856e-09
-8.05673e-09
-1.51725e-10
-1.58642e-09
9.79487e-09
-5.90851e-09
2.5681e-09
6.05944e-09
-1.90609e-08
-4.96631e-09
-1.85866e-08
-4.82711e-09
-3.3151e-11
4.3921e-11
-2.02485e-11
3.55829e-11
-4.78339e-09
7.06116e-09
-6.64416e-09
4.24626e-11
1.4883e-11
4.3947e-11
1.50929e-11
-2.4165e-11
3.46846e-11
-1.83497e-08
1.84298e-08
1.32681e-09
3.17904e-11
-2.25158e-11
-1.61025e-09
2.53153e-09
1.39408e-09
-2.31536e-09
-1.17924e-11
2.44987e-09
7.90813e-10
7.33488e-10
-1.15957e-09
-3.64729e-10
5.29025e-10
-5.22905e-10
-4.32787e-10
4.26667e-10
1.19645e-09
-1.46672e-09
-2.47265e-09
2.74292e-09
-1.05701e-08
-2.40347e-09
-4.27297e-09
-7.15173e-09
4.63065e-09
6.79405e-09
-8.21822e-09
1.31433e-11
2.87672e-11
-1.76547e-08
9.6642e-11
1.01205e-09
-4.7746e-09
-6.12791e-10
4.37534e-09
1.03592e-08
-2.60544e-09
-9.54568e-09
1.79187e-09
-4.93989e-09
6.67633e-09
1.72764e-08
-1.90128e-08
-2.90132e-10
3.75112e-10
2.52532e-10
3.42752e-10
1.79645e-08
-1.81258e-08
-7.24577e-10
8.67655e-10
-7.69959e-09
2.55032e-11
1.94832e-11
2.7075e-11
1.87857e-11
-7.86917e-09
-1.6947e-10
-1.80854e-11
-1.64129e-08
1.76992e-08
-2.98075e-09
1.69442e-09
3.48746e-10
-4.86341e-09
3.77641e-09
7.38253e-10
-1.55927e-08
-9.61525e-11
1.55678e-08
1.21077e-10
-7.72199e-09
-5.34202e-09
5.68332e-09
7.38069e-09
-1.74464e-09
1.0355e-09
-1.71033e-10
-1.66419e-09
-2.35975e-10
1.55519e-10
2.08094e-09
-1.80497e-08
-1.64789e-09
2.27596e-09
-7.25109e-09
-3.74672e-10
5.3498e-09
-1.20797e-11
1.72399e-08
-1.10864e-11
1.6823e-08
2.14735e-11
1.41991e-11
-1.12206e-08
-4.67964e-09
2.99932e-09
-4.29018e-09
7.08628e-09
-7.06907e-09
2.72193e-11
4.78141e-11
2.86435e-11
4.83458e-11
4.32611e-11
1.24498e-09
-8.32069e-09
-1.32476e-09
8.39826e-09
-4.2531e-09
7.12172e-09
-7.1588e-09
-7.65783e-12
1.65198e-08
-1.65286e-09
2.56583e-11
1.65189e-08
-3.56549e-09
5.37047e-09
1.1693e-08
-1.34979e-08
9.62296e-09
6.24125e-10
-7.97113e-09
-1.82606e-11
1.64946e-08
-3.04513e-11
1.71068e-08
-2.96885e-11
1.66936e-08
-1.12792e-08
-3.32102e-09
1.10347e-08
2.73812e-09
8.70344e-10
-2.41201e-09
-2.47128e-11
1.66473e-08
-2.5196e-11
1.70593e-08
-2.22025e-11
1.64655e-08
-2.04987e-11
1.66148e-08
-2.06483e-11
1.70265e-08
5.2328e-09
-4.78776e-09
7.58066e-10
-2.98449e-11
1.65445e-08
-2.95928e-11
1.69584e-08
-9.92141e-12
1.65085e-08
1.84403e-12
1.69372e-08
-2.12819e-12
1.64998e-08
4.58359e-11
1.69972e-08
-2.46406e-11
1.64258e-08
-4.09951e-09
6.67266e-09
-6.82625e-09
4.37838e-11
-4.15579e-10
-5.20917e-10
-2.87842e-10
4.82718e-10
3.26041e-10
-1.6542e-09
1.08474e-08
-1.06245e-08
-2.77908e-11
1.63831e-08
3.32314e-10
-1.20451e-10
5.95487e-11
3.81767e-09
1.23361e-09
-4.03923e-09
-1.79157e-08
9.46825e-11
-1.52713e-08
-4.12471e-10
1.54051e-08
-1.88792e-08
-1.09476e-09
-1.84079e-08
-1.05871e-09
1.20555e-10
-8.88851e-09
9.20993e-09
-4.41969e-10
1.51117e-09
8.06231e-09
-1.00635e-08
1.21193e-08
9.48516e-09
-1.1541e-08
1.95706e-10
-3.04179e-10
-1.21724e-10
2.30197e-10
-1.72874e-11
1.6243e-08
-2.09091e-11
1.62219e-08
-3.64126e-12
1.62116e-08
7.5987e-11
-1.6583e-09
2.89848e-10
1.29246e-09
-1.37826e-10
1.63158e-08
9.80321e-11
1.62832e-08
1.29827e-08
-1.28331e-08
-7.86213e-09
7.71251e-09
8.98692e-09
9.49139e-09
-6.35885e-09
1.04876e-08
-1.06807e-08
8.96492e-10
-3.22225e-10
1.84488e-10
-7.99431e-09
-2.29938e-09
2.08852e-09
8.20517e-09
8.06358e-09
-1.02585e-08
9.97091e-09
-7.776e-09
-7.78844e-09
9.75179e-12
9.50904e-10
4.55764e-11
-1.00623e-09
-2.55498e-09
1.68365e-09
2.74572e-09
-1.8744e-09
-6.96475e-09
1.79607e-09
3.20099e-11
5.13667e-09
3.27559e-09
-3.046e-09
-3.28409e-09
3.05449e-09
-2.12134e-08
1.83753e-08
2.83808e-09
6.3279e-09
3.80823e-09
-3.08837e-09
-7.04776e-09
-1.72092e-09
-1.7539e-08
1.80007e-08
2.11911e-10
3.08818e-09
1.8022e-09
-1.63103e-09
-3.25934e-09
8.35409e-09
6.4025e-09
-1.05077e-08
-9.41783e-09
7.602e-09
1.23235e-08
2.11924e-09
-1.32422e-08
2.45002e-10
1.20601e-10
-1.53692e-10
8.26371e-09
-8.87108e-09
1.57737e-08
-7.11991e-09
6.66641e-09
5.80865e-09
-5.35515e-09
2.79945e-10
-7.80164e-09
-4.60272e-10
7.98197e-09
-9.48876e-09
1.8055e-09
-2.30862e-09
9.99187e-09
-4.7082e-10
7.68687e-09
-7.85256e-09
6.36513e-10
-1.20573e-10
5.79902e-09
-7.3518e-09
-6.16921e-09
-1.00273e-08
9.82524e-09
5.04175e-09
-4.39596e-09
-4.74529e-09
2.78636e-10
-6.3823e-10
5.43921e-10
-1.84328e-10
-1.79542e-08
1.00712e-09
3.22997e-09
-4.20587e-10
-4.1369e-09
1.32752e-09
1.96464e-09
-2.00444e-09
8.40173e-10
-8.00375e-10
-1.26369e-08
1.69877e-08
-9.8073e-09
5.45654e-09
1.9393e-10
4.16353e-10
7.07106e-09
-7.68134e-09
-1.72825e-09
5.54112e-09
2.18725e-09
-6.00012e-09
4.01111e-09
2.80946e-09
-3.16344e-09
-3.65713e-09
8.07676e-10
3.88448e-09
-8.74482e-10
-3.37385e-09
-8.64855e-09
2.53364e-09
4.21404e-11
-1.79604e-08
-1.06943e-10
1.59823e-10
-5.28791e-11
6.38112e-11
-2.95275e-11
-3.32958e-09
-3.57095e-10
4.24069e-10
3.2626e-09
2.54682e-09
-1.35587e-08
1.58708e-09
-1.79896e-08
2.62143e-10
-1.82331e-08
-1.85915e-10
-5.52832e-10
-1.13389e-08
1.14382e-08
4.53509e-10
-7.5977e-10
4.35753e-10
6.02653e-10
8.00521e-09
-4.32437e-10
6.30006e-10
-8.20278e-09
1.2985e-09
-1.14012e-09
1.80627e-09
7.89528e-10
3.80275e-09
-7.05564e-09
2.46336e-09
-2.2212e-10
2.52147e-10
-3.00272e-11
-9.68484e-11
1.44753e-10
3.27208e-10
-2.37529e-09
-1.78994e-09
-2.02817e-09
9.97154e-11
-1.46306e-09
-6.137e-10
5.16494e-09
-4.22922e-09
8.64297e-09
-1.15337e-08
-4.15407e-10
6.03735e-10
-3.66271e-10
1.77942e-10
-8.33761e-09
8.03614e-09
7.74188e-10
-4.72717e-10
-5.88252e-10
-1.11825e-09
-9.46467e-09
-1.19238e-09
1.24626e-08
9.26994e-09
-9.54401e-09
-3.34785e-10
-7.3622e-10
2.03015e-10
-1.05025e-10
-4.70339e-10
-3.33158e-10
-7.70696e-09
6.49799e-10
8.98214e-11
2.62025e-11
-8.52243e-10
-1.30586e-08
7.28436e-09
4.87486e-09
-4.25887e-09
9.77562e-09
-1.03916e-08
-2.47227e-08
1.79074e-08
-1.06797e-09
2.52526e-09
5.87967e-09
-7.33696e-09
-5.85027e-11
-4.84407e-11
-7.42496e-09
9.64893e-09
-2.22396e-09
-6.15035e-10
7.23068e-10
9.54368e-10
-1.0624e-09
-7.85646e-09
7.90587e-09
-1.7995e-10
1.30546e-10
2.22278e-09
2.73164e-09
-2.28284e-09
-2.67158e-09
-7.04023e-10
1.09802e-08
-6.82044e-10
-9.59415e-09
-1.04724e-09
9.25912e-10
-4.93711e-10
1.21296e-09
-1.94599e-09
5.04803e-09
-4.7568e-09
8.16869e-09
-8.45992e-09
-3.00368e-09
1.03475e-08
-7.34387e-09
-4.24004e-10
1.51736e-09
3.7341e-10
-1.46677e-09
-7.87441e-09
-1.3368e-09
1.21689e-09
1.77375e-09
-1.93086e-09
-7.88614e-11
-1.84236e-08
-2.67453e-10
-1.88968e-08
-2.7766e-10
3.96055e-09
4.22044e-09
-4.06594e-09
1.3482e-09
-1.24115e-08
1.31825e-08
-7.85831e-09
4.00252e-10
8.75909e-09
-7.06078e-09
-8.25885e-09
6.56054e-09
-6.70011e-11
7.7737e-10
-4.96536e-10
-2.13834e-10
3.46711e-09
-1.24333e-09
5.14344e-10
3.82474e-09
-3.97562e-09
6.61363e-09
-6.46275e-09
6.06405e-09
-7.30572e-09
-8.69051e-09
5.15182e-10
-1.84462e-08
1.83343e-08
9.04054e-10
-9.85891e-10
8.04905e-10
-3.29373e-10
-7.94171e-09
8.10161e-09
2.74846e-09
-2.18877e-09
5.9914e-10
2.45997e-09
3.71645e-10
3.455e-09
-1.60386e-09
-4.52022e-10
-1.63028e-09
2.84204e-09
-2.94385e-09
2.34834e-09
-2.24653e-09
1.56426e-09
3.84521e-11
-3.18118e-09
4.25735e-09
-3.02686e-09
1.95069e-09
4.86921e-10
2.58235e-10
-2.01234e-10
4.26951e-10
7.24183e-09
-8.12883e-09
3.74317e-10
2.8781e-09
1.94359e-09
-1.35457e-09
-3.47984e-10
2.5475e-10
3.16915e-09
-3.07592e-09
-9.80844e-10
7.75923e-10
-1.98385e-09
-7.89351e-09
-5.64696e-10
4.30426e-09
1.03362e-09
-1.09894e-09
-4.23893e-09
5.00443e-10
-2.97547e-09
2.30778e-09
1.67247e-10
4.73162e-10
-3.84907e-10
6.13135e-10
-7.0139e-10
-4.50784e-09
4.68367e-09
4.40846e-10
5.45082e-09
-2.08891e-09
6.49303e-11
6.4356e-09
-1.26774e-09
3.37507e-10
-7.87894e-09
-3.5207e-10
1.88606e-09
2.02814e-09
-3.07403e-09
-8.27707e-09
-1.0892e-09
-2.01867e-09
-1.25275e-08
7.99682e-09
1.35157e-09
4.55639e-10
1.07736e-08
-1.27156e-08
1.3892e-09
-1.26025e-09
3.2456e-09
-2.33333e-09
-6.90118e-09
7.21056e-09
5.48965e-09
-2.63388e-09
2.34498e-10
-6.04318e-09
-4.54992e-09
1.03586e-08
-8.17977e-10
2.61222e-10
-2.07118e-09
1.98897e-09
-1.79675e-08
-9.79838e-10
8.96573e-09
1.37061e-09
-1.44311e-09
1.0526e-08
1.69072e-09
-7.68903e-09
7.39504e-09
8.46797e-10
-3.3687e-09
-8.56739e-09
-4.32086e-11
3.88071e-10
8.22253e-09
7.11623e-10
4.63381e-10
-7.27907e-10
-2.19009e-10
-2.07341e-09
-6.83047e-10
1.82103e-09
-1.77698e-09
2.70167e-09
-8.45855e-10
1.17699e-10
8.50429e-10
-6.97554e-10
-5.51203e-10
-7.62346e-09
-1.51276e-09
1.02018e-09
-3.85379e-10
4.07613e-10
1.70018e-09
-1.01311e-08
7.3205e-10
7.91603e-09
1.48303e-09
9.0553e-09
-4.15658e-09
-9.12794e-09
2.85088e-10
-5.18071e-11
1.96642e-09
-6.98283e-10
-1.41841e-10
4.24717e-10
2.88018e-09
1.30781e-10
-8.86188e-09
-3.76497e-09
1.19228e-08
5.35959e-09
3.69962e-09
1.63013e-10
5.72727e-10
-8.02741e-10
-9.51325e-09
8.41827e-09
9.85407e-09
-6.27617e-09
-2.28033e-09
2.17576e-09
6.38075e-09
9.28458e-09
-9.07824e-10
-7.04163e-10
4.26543e-12
-1.45957e-10
-7.72438e-09
1.47865e-10
3.78361e-09
1.00061e-10
-4.44862e-09
-5.02011e-09
4.6436e-09
4.82514e-09
8.41001e-09
1.41623e-10
-5.21307e-11
-8.94925e-11
-1.08031e-10
2.63715e-10
-6.10085e-10
-1.14156e-09
7.04409e-10
-6.98846e-09
-2.70005e-09
7.62369e-09
2.06482e-09
-2.59618e-09
4.70808e-09
8.25026e-10
-2.93692e-09
2.3429e-10
-2.64469e-10
2.62438e-10
-2.3226e-10
-1.2834e-08
1.05271e-08
2.03311e-10
2.10357e-09
-1.76138e-08
1.75598e-08
8.74517e-10
-4.89361e-10
4.31552e-10
-8.16707e-10
3.07817e-09
-8.83088e-09
-7.0813e-09
1.22057e-09
4.68101e-09
-4.95929e-09
-9.42283e-10
7.61452e-10
-6.75748e-10
-6.15052e-10
5.29348e-10
-6.77479e-09
-4.66228e-09
2.51004e-10
-9.11817e-11
-3.70359e-10
2.50682e-10
5.92839e-10
-5.2436e-10
7.06243e-10
9.1027e-09
-9.46693e-10
8.86379e-09
7.71543e-09
1.19157e-09
-8.08609e-09
-8.20911e-10
-1.43025e-09
3.67511e-09
1.97559e-09
-6.05392e-09
5.18513e-09
-5.43429e-11
1.95966e-10
-2.91338e-09
7.1226e-10
3.04791e-09
3.83217e-10
2.18489e-11
-4.05066e-10
7.09802e-09
-6.9548e-09
3.99619e-09
-4.68807e-10
7.93899e-09
-4.38605e-10
-7.93282e-09
1.79629e-10
-1.0037e-10
-2.63331e-10
1.84072e-10
1.81833e-09
1.24617e-09
-1.10179e-09
-1.44379e-10
-5.12215e-09
5.6586e-09
-5.36453e-10
-7.93553e-10
1.10722e-10
3.50739e-09
-2.82456e-09
-8.3023e-11
-1.38466e-09
6.03265e-09
2.1531e-09
2.91734e-10
1.58371e-09
-1.12275e-08
9.87845e-10
1.15879e-08
-1.79657e-08
-3.59089e-11
4.12432e-11
-1.28698e-09
5.30971e-09
-5.75098e-09
-4.32248e-10
-1.57942e-10
-7.1342e-09
-1.23238e-09
-7.15836e-09
7.39286e-09
-1.46315e-09
1.36804e-09
2.41719e-10
-1.46601e-10
-8.29298e-09
-3.0366e-09
4.26881e-09
-8.15552e-10
6.03e-10
9.56924e-09
-4.74827e-09
-3.73877e-10
4.12001e-09
4.48954e-09
-4.78482e-09
-3.07672e-09
2.58169e-10
2.81855e-09
1.06904e-09
-7.60684e-09
1.62039e-09
1.56417e-09
-3.95032e-09
4.34969e-09
-6.42746e-09
-9.97505e-10
1.39887e-08
-8.73264e-09