/*--------------------------------*- C++ -*----------------------------------*\
  =========                 |
  \\      /  F ield         | OpenFOAM: The Open Source CFD Toolbox
   \\    /   O peration     | Website:  https://openfoam.org
    \\  /    A nd           | Version:  8
     \\/     M anipulation  |
\*---------------------------------------------------------------------------*/
FoamFile
{
    version     2.0;
    format      ascii;
    class       surfaceScalarField;
    location    "7.4";
    object      phi;
}
// * * * * * * * * * * * * * * * * * * * * * * * * * * * * * * * * * * * * * //

dimensions      [0 3 -1 0 0 0 0];

internalField   nonuniform List<scalar> 
9048
(
7.019e-09
-6.49281e-09
-3.30792e-09
2.78173e-09
-1.54442e-09
-1.37277e-09
1.73191e-09
1.18529e-09
8.66815e-09
-2.53777e-09
-6.58057e-09
4.50191e-10
-2.30096e-09
5.18899e-09
1.19632e-09
-4.08435e-09
-4.6581e-09
-3.3608e-09
1.87068e-09
6.14822e-09
3.11001e-09
-2.21289e-09
6.318e-09
-7.21512e-09
-2.54231e-09
1.94198e-09
1.96324e-09
-1.36291e-09
3.23118e-10
-2.78158e-10
-5.95425e-11
1.45825e-11
5.31434e-09
-3.8687e-09
3.35134e-09
-4.79698e-09
7.59858e-09
-3.6082e-09
-7.07839e-09
3.08801e-09
1.44801e-09
-5.59711e-09
4.09702e-09
5.20832e-11
5.73776e-09
-4.94696e-09
-2.55486e-09
1.76407e-09
-5.77618e-09
2.10319e-09
5.48693e-09
-1.81395e-09
4.83125e-09
4.3184e-09
-2.6492e-09
-6.50045e-09
6.71007e-09
-6.14608e-09
-2.85179e-09
2.28781e-09
-6.96658e-09
5.30692e-09
2.14812e-09
-4.88455e-10
-8.56678e-09
6.54679e-09
2.59621e-09
-5.76226e-10
8.50407e-09
-6.64598e-09
-3.05322e-09
1.19513e-09
7.67583e-09
-6.81368e-09
-3.28185e-09
2.4197e-09
6.28173e-09
-5.57756e-09
-2.71694e-09
2.01277e-09
-6.22994e-09
5.73287e-09
2.3679e-09
-1.87083e-09
-5.54837e-09
5.1755e-09
2.19193e-09
-1.81906e-09
5.65974e-09
-5.09136e-09
-2.31274e-09
1.74436e-09
6.42139e-09
-5.99712e-09
-3.07981e-09
2.65554e-09
-5.95244e-09
5.63361e-09
2.46976e-09
-2.15093e-09
-7.30486e-09
7.22343e-09
3.24219e-09
-3.16076e-09
5.49887e-09
-5.27792e-09
-2.58085e-09
2.3599e-09
5.5818e-09
-5.36414e-09
-2.68077e-09
2.46311e-09
5.70861e-09
-5.48514e-09
-2.7445e-09
2.52103e-09
6.88519e-09
-5.45281e-09
-2.42248e-09
9.9011e-10
7.70019e-09
-6.07084e-09
-2.85472e-09
1.22538e-09
5.90787e-09
-5.54875e-09
-2.75036e-09
2.39124e-09
-5.63601e-09
5.30516e-09
2.39058e-09
-2.05973e-09
6.60322e-09
-6.07821e-09
-2.99812e-09
2.47312e-09
7.46876e-09
-7.10813e-09
-3.70138e-09
3.34075e-09
7.33431e-09
-5.79537e-09
-2.62938e-09
1.09043e-09
7.04509e-09
-5.5703e-09
-2.5259e-09
1.05112e-09
7.16934e-09
-5.66801e-09
-2.56915e-09
1.06782e-09
-6.36884e-09
6.15847e-09
2.02888e-09
-1.8185e-09
-5.39373e-09
2.38883e-09
5.16194e-09
-2.15703e-09
-4.13506e-09
3.66389e-09
-3.48199e-09
3.95316e-09
7.93533e-09
-8.14958e-09
2.84925e-09
-2.63501e-09
3.01245e-09
-3.43602e-09
5.42328e-09
-4.9997e-09
2.80097e-09
-3.23435e-09
4.98011e-09
-4.54673e-09
2.74457e-09
-3.18031e-09
4.89792e-09
-4.46219e-09
-3.89643e-09
-4.35528e-09
4.11665e-09
3.26383e-09
-3.82235e-09
5.74281e-09
-5.18429e-09
2.78672e-09
-3.21843e-09
4.86955e-09
-4.43785e-09
3.07447e-09
-3.48993e-09
5.42954e-09
-5.01409e-09
-3.31246e-09
2.7968e-09
5.47619e-09
-4.96052e-09
-1.65033e-09
1.55897e-09
-5.53207e-09
5.62342e-09
1.52983e-09
-1.81178e-09
-5.32871e-09
5.61066e-09
-8.33682e-09
3.0825e-09
-2.06816e-09
7.32248e-09
3.43407e-09
-3.37258e-09
-4.60081e-09
4.53932e-09
-2.8191e-09
3.28409e-09
2.70678e-09
-3.17176e-09
3.69989e-09
4.04646e-09
-3.68497e-09
-4.06137e-09
5.15995e-09
-6.56702e-09
2.74485e-10
1.13259e-09
-3.42698e-10
3.27866e-10
3.9323e-13
1.44392e-11
-3.98361e-09
-4.54205e-09
4.0055e-09
4.52016e-09
4.00146e-09
-5.22282e-09
-5.84927e-09
7.07062e-09
4.92107e-09
3.44902e-09
-4.6823e-09
-3.68779e-09
4.06215e-09
3.89872e-09
-4.21875e-09
-3.74213e-09
3.14473e-09
-3.99848e-09
-4.64464e-09
5.49839e-09
4.78292e-09
4.65602e-09
-4.99646e-09
-4.44248e-09
-2.31964e-09
2.35481e-09
3.61902e-09
-3.65419e-09
-4.70263e-09
-4.75478e-09
3.75893e-09
5.69849e-09
5.67484e-09
2.46014e-09
-2.44303e-09
-5.69195e-09
4.91805e-09
4.9501e-09
-4.34035e-09
-5.5278e-09
3.52658e-09
-4.66771e-09
-5.13349e-09
6.27463e-09
-2.33945e-09
2.8712e-09
4.2995e-09
-2.20945e-09
2.28282e-09
2.49454e-09
-2.56791e-09
1.14401e-09
1.78988e-09
-1.60658e-09
-1.32731e-09
-1.00889e-09
6.1683e-09
2.7926e-09
-7.95201e-09
-4.19066e-09
-3.98904e-09
3.23263e-09
4.94707e-09
4.21578e-09
3.90404e-09
-4.31397e-09
-3.80586e-09
5.18411e-09
4.85426e-09
-5.32405e-09
-4.71431e-09
2.55439e-09
-1.15137e-09
7.38924e-10
-2.14194e-09
-4.98311e-09
4.27809e-09
4.36892e-09
4.65577e-09
-4.51004e-09
2.36157e-09
-2.50729e-09
4.17867e-09
-4.07075e-09
2.12127e-09
-2.22918e-09
3.75532e-09
6.10417e-09
-4.28979e-09
-5.5697e-09
2.12749e-09
6.00699e-09
-2.72988e-09
-5.4046e-09
6.77728e-09
-4.74399e-09
5.51962e-09
-7.55292e-09
-5.6891e-09
-3.88729e-09
4.66703e-09
4.90936e-09
4.16944e-09
-4.6318e-09
-4.93364e-09
-3.84498e-09
4.8174e-09
3.96122e-09
7.5804e-09
-4.87822e-09
-4.19486e-09
1.49267e-09
-5.16079e-09
3.62104e-09
-4.56336e-09
6.1031e-09
-4.74736e-09
-3.2018e-09
3.83218e-09
4.11699e-09
-4.93444e-09
-3.33408e-09
3.99237e-09
4.27615e-09
-4.82755e-09
-3.25894e-09
3.90077e-09
4.18571e-09
-4.65591e-09
-3.13801e-09
3.75576e-09
4.03816e-09
-1.31021e-11
-6.47847e-12
-4.57883e-09
-1.72903e-10
-2.84151e-10
5.03589e-09
3.46871e-09
-3.55327e-09
1.78322e-09
-1.69866e-09
4.01855e-09
1.90992e-09
-7.93783e-10
-5.13469e-09
-2.88115e-10
-7.27518e-09
6.64645e-09
9.16847e-10
-4.58636e-09
4.36531e-09
4.36791e-09
-4.14686e-09
-1.25244e-09
6.25469e-09
1.57701e-10
-4.58066e-09
4.9346e-09
4.1689e-09
-4.52283e-09
-5.47055e-09
3.83201e-09
-4.71852e-09
6.35706e-09
-4.47851e-09
3.21026e-09
-4.12593e-09
5.39418e-09
3.84746e-09
8.49812e-09
-6.19775e-10
-1.17258e-08
-7.03032e-09
4.87327e-09
-5.04479e-09
7.20185e-09
7.04694e-10
3.41341e-09
-1.56372e-09
-3.5443e-10
2.31763e-11
3.31537e-10
-2.83411e-13
-4.23328e-09
-4.36715e-09
3.93299e-09
4.66744e-09
-4.74072e-09
-1.52975e-09
1.8983e-09
4.37217e-09
-4.05157e-09
6.07621e-09
2.89341e-09
-2.77155e-09
4.0424e-09
-4.64343e-09
5.09527e-09
5.49703e-09
-5.27796e-09
3.88025e-10
-3.46297e-10
-6.32191e-12
-3.54062e-11
-2.80603e-09
2.37575e-09
8.32793e-10
-4.02508e-10
5.49823e-09
5.47304e-09
-4.43852e-09
-6.53275e-09
2.73958e-09
-3.21932e-09
-1.172e-09
1.65174e-09
2.69403e-09
-2.45193e-09
4.64092e-09
-4.88302e-09
-2.98472e-09
3.18101e-09
3.95342e-09
-4.14972e-09
6.09876e-12
-3.68054e-10
7.52573e-12
-4.22259e-09
1.52475e-11
4.49134e-09
-2.84e-10
5.99126e-09
-4.23362e-09
4.54323e-09
-6.30087e-09
-5.19919e-09
5.23261e-09
2.18124e-09
-2.21466e-09
5.65158e-09
-4.37597e-09
5.04345e-09
-6.31906e-09
-4.46572e-09
1.27474e-09
-3.90962e-10
3.58194e-09
-5.06413e-09
4.80945e-09
-5.12343e-09
5.3781e-09
-6.07923e-09
4.33076e-09
-5.25053e-09
6.999e-09
6.47898e-09
-5.91676e-09
6.59895e-09
-7.16117e-09
-5.39925e-09
4.98384e-09
-5.36162e-09
5.77703e-09
-6.71978e-09
4.77825e-09
-5.15456e-09
7.09609e-09
5.60709e-09
-4.57934e-09
5.7988e-09
-6.82655e-09
5.14587e-09
-4.81165e-09
4.9111e-09
-5.24531e-09
-5.53543e-09
4.89381e-09
-5.34192e-09
5.98355e-09
5.21921e-09
-4.71062e-09
5.00367e-09
-5.51227e-09
5.95243e-09
-4.76802e-09
6.00083e-09
-7.18524e-09
5.01115e-09
-4.24281e-09
5.4886e-09
-6.25694e-09
4.89656e-09
-4.53584e-09
4.51101e-09
-4.87173e-09
1.57473e-09
-3.83408e-09
3.77511e-09
-1.51576e-09
6.10809e-09
-4.14771e-09
3.54243e-09
-5.50281e-09
5.47764e-09
5.46579e-09
-5.00623e-09
-5.9372e-09
-7.06243e-10
1.25705e-09
-3.28866e-09
2.73785e-09
5.61069e-09
5.45031e-09
-4.87684e-09
-6.18416e-09
-4.9883e-09
-5.03519e-09
4.05059e-09
5.9729e-09
-4.8692e-09
-4.93862e-09
4.04889e-09
5.75893e-09
-4.61407e-09
-3.42358e-09
4.57308e-09
3.46457e-09
4.31488e-09
3.58676e-09
-4.47779e-09
-3.42385e-09
5.17742e-09
4.8555e-09
-4.81636e-09
-5.21655e-09
5.05026e-09
4.75788e-09
-4.68245e-09
-5.12569e-09
5.3399e-09
5.22206e-09
-4.80541e-09
-5.75654e-09
5.56507e-09
5.42582e-09
-5.02792e-09
-5.96298e-09
5.44137e-09
5.30397e-09
-4.92284e-09
-5.8225e-09
4.26357e-09
-4.67655e-09
-2.37946e-09
2.79245e-09
-5.99185e-09
4.59176e-09
-3.66058e-09
5.06067e-09
7.5383e-09
-5.59427e-10
-1.88579e-11
-6.96002e-09
-3.00342e-09
3.21739e-09
4.07372e-09
-4.2877e-09
5.7403e-09
-4.97731e-09
-9.7665e-10
2.13658e-10
3.83752e-09
1.23078e-09
-3.5984e-09
-1.46991e-09
6.61712e-09
-4.68331e-09
5.05558e-09
-6.98939e-09
-4.2678e-09
2.08694e-09
-8.70494e-10
3.05135e-09
5.71648e-09
-7.69242e-09
7.71312e-09
-5.73718e-09
-1.4419e-09
-2.28998e-09
2.45533e-09
1.27655e-09
2.59154e-09
-4.95367e-09
-2.25603e-09
4.61816e-09
-4.95815e-09
4.48124e-09
-4.6651e-09
5.14201e-09
3.54271e-11
3.47621e-11
-7.01892e-11
-2.62751e-09
-3.49336e-10
2.42099e-10
2.73475e-09
-1.73001e-09
2.99731e-09
-7.0723e-09
5.805e-09
3.02696e-10
9.14273e-11
-7.50919e-09
-4.97356e-09
8.8055e-09
3.67724e-09
-8.58809e-10
1.58983e-09
1.05137e-09
-1.78239e-09
1.26615e-09
1.26492e-09
-1.38707e-09
-8.57875e-11
9.18229e-11
-2.64856e-10
2.5882e-10
-3.79453e-09
3.31387e-09
4.66883e-09
-4.18817e-09
-3.06861e-09
-9.01447e-10
3.24535e-09
7.2471e-10
-1.94956e-09
3.37065e-09
-7.88236e-09
6.46128e-09
5.44984e-10
4.51307e-09
-4.76594e-09
-2.92115e-10
2.98313e-09
-3.34193e-09
4.13401e-09
-3.77521e-09
4.78322e-09
-1.1238e-09
-3.5537e-09
-1.05724e-10
5.34539e-09
6.63068e-10
-1.9553e-09
-4.05316e-09
2.54062e-09
-1.54717e-09
2.62426e-09
-3.61771e-09
4.97634e-09
-5.29409e-09
5.35475e-09
-5.03699e-09
-3.75596e-10
-4.76509e-11
3.96724e-10
2.65235e-11
5.57343e-09
-5.46396e-09
-4.81145e-09
4.70198e-09
-6.26093e-09
-3.95872e-09
5.02047e-09
-2.30466e-09
-5.64591e-09
4.98896e-09
2.96161e-09
-1.79049e-09
2.81064e-09
-6.02765e-09
5.0075e-09
4.10505e-09
-4.23073e-09
-4.00607e-09
4.13175e-09
1.9143e-09
-9.64535e-10
-1.84805e-09
8.98282e-10
2.12544e-09
4.0203e-09
-2.1272e-09
3.67949e-09
-5.19157e-10
-4.25122e-09
1.09089e-09
-1.4266e-09
-2.53443e-09
1.23291e-09
2.72811e-09
-1.8259e-09
5.18692e-09
-5.01134e-09
-5.63839e-10
1.04375e-09
-3.02222e-09
2.87251e-09
-5.12566e-09
4.8447e-09
3.13831e-09
-3.39208e-09
-5.73808e-09
4.70377e-09
5.01691e-09
-4.07666e-09
-5.64402e-09
7.0314e-10
4.84095e-09
-5.36583e-09
-1.78261e-10
2.64525e-10
4.38425e-11
-1.98811e-10
-1.09557e-10
-2.63964e-09
-4.14842e-09
2.89613e-09
3.89194e-09
4.96123e-09
-3.37704e-09
-4.35574e-09
-2.89465e-09
1.28255e-09
-4.99194e-09
6.60404e-09
-3.29638e-09
3.26312e-09
2.45192e-09
-2.41866e-09
4.33998e-09
-3.19451e-09
-7.65848e-09
6.51301e-09
8.21434e-10
-5.42394e-10
9.87111e-10
-4.36606e-09
5.62975e-09
-6.17025e-09
4.90656e-09
-1.22127e-10
3.96667e-11
-2.63837e-10
-4.4555e-09
4.7962e-09
-6.0072e-09
5.66651e-09
-3.54811e-09
4.28252e-09
-5.70782e-09
4.97341e-09
-3.53952e-09
3.3058e-09
-4.77925e-09
5.01296e-09
3.65641e-09
-4.01722e-09
5.24374e-09
-4.88294e-09
-8.73692e-09
3.15252e-10
6.30932e-09
2.11235e-09
-3.19579e-09
-1.26798e-09
1.08906e-09
3.37471e-09
-6.15676e-10
7.92302e-10
-6.30073e-09
6.1241e-09
-2.58993e-09
-1.21332e-10
8.37494e-11
4.62953e-09
-2.50826e-09
-2.12127e-09
-1.8754e-09
9.05061e-09
-8.1841e-09
5.16516e-09
-2.8036e-09
-2.36157e-09
-1.58623e-09
-5.07222e-09
1.91772e-09
-3.3314e-09
1.48401e-09
-2.08458e-09
3.93196e-09
-8.31581e-10
2.95917e-09
-2.83383e-09
4.06409e-09
-2.28088e-09
-1.78322e-09
3.61669e-10
1.56251e-10
4.2653e-09
-2.50808e-09
-1.51876e-09
2.60025e-09
-4.69722e-09
5.85225e-09
-7.13021e-09
5.97519e-09
-2.63807e-09
2.74044e-09
3.75808e-09
-3.86045e-09
-2.41885e-10
3.06538e-10
1.35455e-10
-2.00108e-10
6.32099e-09
-6.96698e-09
1.15331e-09
-5.07317e-10
4.35077e-09
-4.2948e-09
3.14142e-09
-3.32661e-09
4.52137e-09
-4.33619e-09
-5.77842e-10
2.07546e-09
4.16684e-10
-2.76662e-09
-5.76987e-09
5.37421e-09
3.16227e-09
-5.1298e-09
5.06773e-09
5.22128e-09
-5.1592e-09
-3.86238e-09
-5.6836e-09
4.33564e-09
5.21034e-09
1.42644e-10
-1.77586e-10
3.6361e-10
-3.28669e-10
5.60389e-09
-4.62635e-09
5.80238e-09
-6.77992e-09
-4.74135e-09
-3.27904e-09
4.54469e-09
3.47569e-09
-5.33647e-09
4.85819e-09
-5.90675e-09
6.38502e-09
-4.39023e-09
4.81258e-09
-5.33196e-09
4.9096e-09
-1.08933e-09
-3.11119e-09
3.24083e-09
9.59693e-10
4.2634e-09
4.82383e-09
-3.84291e-09
-5.24433e-09
3.38526e-09
-3.76177e-09
5.10144e-09
-4.72494e-09
-2.52525e-10
-2.8889e-10
3.74221e-09
-3.2008e-09
-2.83133e-09
4.34704e-09
2.62326e-09
-4.13897e-09
-4.17486e-09
-4.11953e-10
4.44118e-09
1.45635e-10
2.2297e-09
-2.6963e-09
1.17268e-10
2.85028e-09
-4.12026e-09
-2.39191e-09
3.66189e-09
-9.98695e-09
4.96453e-09
-5.14321e-09
1.01656e-08
-4.36137e-09
-5.88056e-09
4.87928e-09
5.36266e-09
6.3793e-09
6.62297e-09
-7.5837e-09
-5.41857e-09
3.48686e-09
5.34174e-09
-3.43001e-09
-5.39858e-09
-3.10824e-09
-1.17689e-09
3.79358e-09
4.32373e-09
-3.47833e-09
-4.63898e-09
-3.35158e-09
-5.18205e-09
3.47877e-09
5.05486e-09
3.56792e-09
4.86112e-09
-3.97324e-09
-4.4558e-09
4.50073e-09
5.44636e-09
-5.20615e-09
-4.74094e-09
3.95158e-09
5.50608e-09
-4.24964e-09
-5.20802e-09
-3.99301e-09
-5.90088e-09
4.483e-09
5.41089e-09
-3.19817e-09
-4.0617e-09
3.81536e-09
3.44451e-09
3.60338e-09
5.2668e-09
-3.62372e-09
-5.24646e-09
-3.26995e-09
-4.15358e-09
3.90004e-09
3.52349e-09
-3.03531e-09
-4.287e-09
2.50631e-09
4.816e-09
-4.39277e-09
-6.24086e-09
4.93455e-09
5.69908e-09
4.8352e-09
-4.19785e-09
-5.9645e-09
5.32715e-09
-2.45235e-09
-1.42037e-09
2.62104e-09
1.25168e-09
-2.06929e-10
2.09087e-09
-2.2221e-09
3.38155e-10
3.94403e-09
-3.14904e-09
7.15333e-09
-7.94833e-09
-4.94622e-09
-3.96148e-09
5.11637e-09
3.79132e-09
3.40156e-09
-3.50369e-09
5.5194e-09
-5.41727e-09
3.4726e-09
-3.23737e-09
5.44881e-09
-5.68404e-09
-3.283e-09
3.84501e-09
-6.00148e-09
5.43946e-09
-4.50484e-09
4.02357e-09
-5.04906e-09
5.53033e-09
1.35694e-09
-2.65239e-09
2.55251e-09
-6.58686e-09
6.30106e-09
-7.11168e-09
7.39749e-09
-4.48761e-09
-1.98751e-09
4.64921e-09
6.94671e-11
1.34917e-10
-1.36551e-10
-6.7833e-11
6.01491e-09
-5.67024e-09
6.86857e-09
-7.21325e-09
-5.22457e-09
3.72273e-09
-4.87463e-09
6.37648e-09
7.55607e-09
4.91566e-09
-6.09243e-09
3.56299e-09
-4.17784e-09
5.63427e-09
-5.01942e-09
-1.05055e-08
6.45969e-09
1.2701e-09
-5.7792e-09
-1.95058e-09
-4.76667e-09
5.98563e-09
3.7528e-09
-4.97176e-09
5.53354e-09
-6.67984e-09
5.64703e-09
4.88944e-09
-5.71503e-09
4.77717e-09
-4.24481e-09
5.29027e-09
-4.31541e-09
-4.15487e-09
5.17326e-09
-4.21656e-09
4.76106e-09
-5.72077e-09
4.56309e-09
-4.28204e-09
5.44187e-09
-4.19514e-09
-5.31674e-09
6.55827e-09
-5.23454e-09
-5.67549e-09
7.02891e-09
-5.7462e-09
4.50475e-09
-5.36913e-09
4.4323e-09
-5.69851e-09
7.16209e-09
4.48728e-09
-5.95085e-09
-5.14523e-09
6.25898e-09
-4.97614e-09
4.75592e-09
-5.31908e-09
4.82656e-09
-4.72354e-09
5.80461e-09
-4.43265e-09
4.24061e-09
-4.73847e-09
4.29144e-09
-3.17697e-10
-2.19654e-09
-7.56968e-11
-5.70073e-09
6.9545e-09
-5.61514e-09
-7.53578e-09
-9.19641e-10
7.31664e-09
1.13879e-09
-4.81121e-09
-5.72239e-09
4.12571e-09
6.40789e-09
4.0151e-09
4.23868e-09
-5.27065e-09
6.96314e-10
-7.44401e-10
4.24406e-10
-3.7632e-10
5.10806e-09
2.31831e-09
-2.53541e-09
-4.89095e-09
4.44253e-09
-7.80362e-09
8.07423e-09
-4.71313e-09
4.95842e-09
-5.65353e-09
4.18197e-09
2.40175e-09
-3.12144e-09
-3.50062e-09
4.22031e-09
-2.72158e-09
6.03548e-09
-5.42975e-09
2.11585e-09
-5.3976e-09
1.76773e-09
-3.81465e-09
3.40859e-09
-7.10312e-09
-5.93234e-09
-5.29837e-09
4.65945e-09
6.57127e-09
-4.80775e-09
4.46169e-09
4.75079e-09
-4.40473e-09
2.18918e-09
4.37905e-09
-2.21746e-09
-1.20261e-09
-6.90841e-10
-7.24795e-09
9.1414e-09
4.10918e-09
6.32562e-09
-4.93657e-09
3.30003e-09
-3.02058e-09
4.23603e-09
-4.51549e-09
6.75325e-09
4.587e-10
-6.50765e-09
-7.04302e-10
-7.23945e-09
7.07363e-09
2.39292e-10
-7.34723e-11
-5.09535e-09
-5.60696e-09
5.57251e-09
-7.80744e-09
-9.8154e-10
7.33921e-09
1.44978e-09
-2.51616e-09
2.1814e-09
-6.29771e-10
2.04767e-09
6.04521e-09
5.75264e-10
-6.20564e-09
-4.16122e-09
5.82987e-09
4.53699e-09
5.7267e-09
4.76898e-09
-4.57344e-09
-5.92225e-09
-2.27892e-09
2.07773e-09
3.83066e-09
-3.62947e-09
-5.29242e-09
5.30564e-09
4.09183e-09
3.80883e-09
6.10185e-09
-4.2591e-09
2.13217e-09
7.07854e-09
-1.05612e-09
-8.15459e-09
-1.5943e-11
1.17741e-09
6.30457e-09
-4.90047e-09
3.69117e-09
-5.34877e-09
6.84915e-10
6.56615e-09
-1.9023e-09
5.35638e-09
5.94147e-09
-6.32151e-09
-5.28655e-09
-6.57276e-09
4.93036e-09
6.92896e-09
3.59078e-09
3.48501e-09
-3.38807e-09
-3.68772e-09
4.86366e-09
5.80421e-09
-4.4424e-09
-6.22548e-09
-6.5483e-09
7.22596e-09
7.14725e-09
-7.82491e-09
-7.01322e-09
2.1588e-09
4.21508e-09
6.39333e-10
-2.90695e-09
7.56246e-10
-9.17906e-10
-6.09834e-09
7.76052e-09
5.01936e-09
-6.68154e-09
4.46201e-09
6.87955e-09
-5.76814e-09
-3.34185e-09
-5.37846e-09
3.65618e-09
-3.96201e-09
-6.57311e-09
4.45589e-09
4.44885e-09
6.91761e-09
-5.41403e-09
4.43548e-09
7.11702e-09
-5.07352e-09
-3.76395e-09
-5.59526e-09
3.95996e-09
3.83582e-09
5.83954e-09
-4.66422e-09
2.62781e-09
3.30248e-09
-3.14477e-09
-2.78552e-09
-4.97025e-09
-7.20823e-09
5.45869e-09
-4.00825e-09
-5.65695e-09
4.12977e-09
3.53783e-09
5.33577e-09
-3.72774e-09
4.39755e-09
6.36048e-09
-5.15093e-09
3.45506e-09
5.54314e-09
-3.77898e-09
-5.31628e-09
-6.78838e-10
1.15822e-09
4.83689e-09
1.21693e-09
5.02234e-09
7.11546e-09
-1.10779e-09
-5.84597e-09
-1.61693e-10
5.86076e-09
-1.85888e-10
-5.86683e-09
1.91961e-10
6.77172e-09
-1.29099e-10
-6.82311e-09
1.80486e-10
7.48972e-09
-2.04043e-10
-8.2859e-09
1.00023e-09
-6.40835e-09
4.19637e-09
1.56723e-09
6.44749e-10
5.35606e-09
-5.91804e-09
2.36196e-10
3.25776e-10
-6.91397e-09
7.03958e-09
-1.1978e-10
-5.83293e-12
-7.27454e-09
7.26248e-09
-5.29556e-12
1.73547e-11
-6.97117e-09
6.69965e-09
-1.93773e-10
4.65293e-10
-8.03478e-09
6.97021e-09
2.09396e-09
-1.02939e-09
-8.36173e-09
8.53052e-09
-2.55143e-10
8.63538e-11
-6.39265e-09
6.53046e-09
-2.32162e-10
9.43589e-11
-5.45419e-09
6.52555e-09
-1.45714e-11
-1.05679e-09
-6.14954e-09
5.05976e-09
1.50795e-09
-4.1817e-10
-6.20189e-09
5.05776e-09
-4.97115e-10
1.64124e-09
-5.57708e-09
6.67531e-09
-1.9222e-11
-1.07901e-09
-8.12279e-09
7.86013e-09
-8.89415e-11
3.51597e-10
-5.39492e-09
6.31435e-09
1.17051e-11
-9.31136e-10
-6.42236e-09
6.4695e-09
-8.53696e-11
3.8231e-11
-6.54806e-09
6.64548e-09
-8.1239e-11
-1.61806e-11
-6.42785e-09
6.41862e-09
-1.32103e-10
1.4133e-10
-7.91056e-09
8.08673e-09
-1.131e-10
-6.30618e-11
7.20075e-09
-8.72035e-09
3.96336e-11
1.47996e-09
8.74952e-09
-8.46436e-09
2.1445e-10
-4.99606e-10
-4.22741e-09
-1.7147e-09
4.49195e-09
1.45017e-09
6.14533e-09
-6.61175e-09
-1.49259e-10
5.80012e-09
1.42081e-09
-5.66195e-09
-4.54577e-09
1.02631e-09
6.27979e-09
-6.65075e-09
-4.92314e-09
-6.305e-09
5.87127e-09
3.99672e-09
1.986e-09
4.77478e-09
-4.20273e-09
-2.55805e-09
-1.61498e-09
-2.27927e-09
-4.84254e-09
5.05188e-09
-4.90656e-09
4.87015e-09
-5.35475e-09
5.84097e-09
-2.20967e-09
5.99655e-09
1.32117e-09
-3.80583e-09
5.93535e-09
-5.12904e-09
2.99952e-09
1.64637e-10
-2.40809e-11
-1.40556e-10
3.85158e-09
5.7261e-09
-4.10003e-09
4.16723e-09
6.31091e-09
-4.86746e-09
-3.91446e-09
-5.40416e-09
4.33033e-09
-6.17458e-09
7.9141e-09
-6.71308e-09
2.39137e-10
-4.18657e-10
7.71782e-09
-6.98469e-09
7.12227e-09
-3.9434e-09
4.72286e-09
-4.81086e-09
-1.49823e-09
-5.21868e-09
-3.8408e-09
4.19028e-09
-3.18879e-09
-5.07897e-09
3.65369e-09
3.0034e-09
5.01959e-09
-3.70811e-09
3.7051e-09
5.63517e-09
-4.16285e-09
3.62779e-09
5.50321e-09
-4.08074e-09
-2.06236e-09
5.43254e-09
-5.2779e-09
-5.34214e-09
4.32943e-09
6.29061e-09
1.5275e-09
-2.39132e-09
-1.64426e-09
-1.75616e-10
-1.05013e-10
5.77366e-11
2.22891e-10
-3.49183e-09
3.71475e-09
5.88517e-09
5.19244e-09
4.82215e-09
-5.94037e-09
-4.07422e-09
6.40778e-09
-7.26384e-09
-2.79399e-09
3.65006e-09
1.44929e-09
-6.46997e-09
5.54959e-10
-3.89127e-10
3.67073e-11
-3.07869e-09
-3.67239e-09
2.95655e-09
-4.76461e-09
-1.05757e-09
5.1945e-09
6.27676e-10
7.28013e-09
-5.82775e-10
-3.76362e-10
5.84279e-09
-4.80903e-09
6.12241e-09
-7.15617e-09
5.38429e-09
-4.02352e-09
4.75104e-09
-6.11182e-09
3.74868e-09
5.9425e-09
-4.12611e-09
3.60725e-09
5.70658e-09
-3.97394e-09
3.66373e-09
5.8079e-09
-4.03026e-09
-2.10233e-09
2.9496e-09
-4.14365e-09
-4.57486e-09
-4.19321e-09
5.16781e-09
3.60026e-09
4.8281e-09
5.72711e-09
-3.99001e-09
-6.56521e-09
2.49124e-09
-6.40756e-09
-2.23439e-09
6.15072e-09
-1.04353e-09
4.23665e-09
-4.90655e-09
3.51448e-09
-4.11823e-09
5.5103e-09
-2.7764e-10
4.37876e-09
1.35767e-09
-4.27054e-09
-2.99794e-09
-1.01469e-09
4.36044e-09
1.71399e-09
-1.61778e-09
-4.45665e-09
-6.33086e-09
-4.1529e-09
5.74958e-09
4.73417e-09
-5.08554e-09
4.55777e-09
-4.75501e-09
5.28279e-09
7.38488e-09
2.34881e-09
-3.58592e-09
-6.14777e-09
-7.68974e-09
7.03193e-09
-2.09212e-09
2.74994e-09
-5.5794e-09
6.84569e-09
-4.75813e-09
4.39064e-10
-2.32245e-09
6.40217e-09
2.98501e-09
-6.60615e-09
-2.78102e-09
-7.28608e-09
3.74326e-09
-3.39123e-09
6.93405e-09
-5.34259e-09
-2.78276e-10
3.04596e-10
5.23756e-09
1.94712e-09
-3.61055e-09
-3.57413e-09
-5.48747e-09
6.69846e-09
-4.14878e-09
2.93779e-09
-5.62865e-09
4.90832e-09
5.31208e-09
3.18679e-09
-7.54398e-09
6.48936e-09
-2.4655e-09
1.55764e-09
-1.79094e-09
2.6988e-09
-5.7719e-09
1.0979e-09
5.08727e-09
-4.13271e-10
-1.82145e-09
8.30672e-09
-8.36067e-09
-3.72075e-09
-3.61108e-09
4.69219e-09
-3.00852e-09
4.73756e-09
-6.38495e-09
-3.11768e-09
4.91985e-09
-6.62972e-09
-3.18588e-09
5.03551e-09
-6.78407e-09
-3.06643e-09
4.83327e-09
-6.51421e-09
-2.42731e-09
-4.91559e-09
3.01671e-09
-3.63904e-09
5.53792e-09
-4.74051e-09
6.47734e-09
4.66534e-09
-5.68304e-09
-7.15826e-09
8.5681e-09
4.2732e-09
-1.07436e-10
-6.08714e-10
-4.95941e-12
7.21109e-10
-4.45259e-09
6.09856e-09
-8.19427e-09
5.775e-09
1.15301e-09
-6.27744e-09
-6.50565e-10
-6.88384e-09
-1.53603e-09
7.33397e-09
1.0859e-09
-7.19826e-09
-1.16597e-09
2.49279e-12
-5.94642e-09
-1.08145e-09
6.35224e-10
-5.83674e-09
-1.37067e-09
1.00552e-09
-4.43685e-09
-9.02603e-10
-1.14733e-10
-4.53498e-09
-9.26961e-10
-1.15145e-10
6.10326e-09
1.46271e-09
-1.10628e-09
5.95517e-09
1.06639e-09
1.79188e-10
4.42451e-09
5.25621e-09
-5.33917e-09
-4.34155e-09
5.46065e-09
-5.62115e-09
2.45511e-09
-2.29461e-09
-3.17236e-09
-1.42701e-09
5.16964e-10
5.27252e-09
-5.43807e-09
-3.51409e-10
-4.85565e-09
-6.69985e-09
6.09155e-09
-3.2967e-09
5.72769e-09
-7.36463e-09
-2.66706e-10
1.07622e-10
-3.06328e-10
5.64705e-09
5.20036e-10
-5.65579e-11
-8.56859e-11
-4.95857e-10
6.57034e-09
1.41524e-09
6.11445e-10
-6.17938e-09
-8.40411e-10
3.83112e-10
-5.82839e-09
-4.72763e-10
-3.73777e-10
6.42402e-09
9.89334e-10
-1.15759e-10
4.0707e-10
-3.79034e-10
6.34649e-09
7.32193e-10
1.02355e-09
-7.26465e-09
-1.79368e-09
-1.867e-10
5.94434e-10
2.54936e-11
7.76928e-11
-9.58517e-11
1.98462e-10
2.90906e-11
9.81651e-11
6.90899e-10
-5.81363e-09
-1.02682e-09
-1.21164e-10
-2.15988e-10
-5.99153e-11
9.48157e-12
-2.25385e-10
5.92487e-09
6.14858e-10
-3.0105e-10
6.43283e-09
5.13695e-10
-2.96843e-10
6.28144e-09
4.84901e-10
-3.29771e-10
6.17935e-09
5.69043e-10
-3.70063e-10
7.65522e-09
8.0157e-10
-5.60914e-11
8.52589e-11
6.52912e-10
-8.05969e-09
-1.05758e-09
9.5106e-10
-1.20021e-09
-1.29528e-09
5.99171e-09
-3.16023e-10
1.40089e-09
-7.07657e-09
-4.22597e-09
1.68193e-09
-1.01142e-09
3.55546e-09
-2.74224e-09
6.98474e-09
1.69285e-09
-4.0532e-09
5.10979e-09
-5.28987e-09
8.10018e-10
-3.6822e-09
-6.62001e-11
2.93838e-09
-6.49509e-09
-1.67001e-09
4.75353e-10
4.00851e-09
-4.06864e-09
-3.28179e-09
-3.46903e-09
-7.01375e-09
6.95364e-09
3.52914e-09
3.13282e-10
5.51218e-09
-5.15032e-09
-6.75141e-10
-3.71667e-09
-6.01044e-09
2.1461e-09
3.798e-09
-3.1191e-09
-2.82501e-09
-3.89129e-09
-4.85361e-09
2.41404e-09
-3.66394e-09
5.89352e-09
-7.91869e-09
-1.27055e-09
1.8277e-09
3.66213e-09
-4.21928e-09
-5.38358e-09
-5.196e-09
5.76814e-09
-2.39071e-09
-7.50327e-09
5.58423e-09
4.30975e-09
8.69073e-10
3.78051e-09
-4.64959e-09
1.16254e-09
3.7619e-09
-4.92443e-09
1.44276e-09
5.01153e-09
-6.45429e-09
-3.60182e-09
3.25982e-09
-4.1423e-09
4.4843e-09
-4.20405e-09
4.5811e-09
-5.76545e-09
5.38841e-09
2.81495e-09
-3.04603e-09
5.29084e-09
4.12312e-09
-3.83214e-09
4.79303e-09
-5.08401e-09
-3.82227e-09
5.07796e-09
-3.87591e-11
-3.49012e-09
4.52952e-09
2.9757e-09
-2.39343e-09
3.14403e-09
-1.0683e-09
4.68523e-09
-1.98915e-10
-4.51431e-11
-5.67744e-09
5.65062e-09
7.25279e-09
3.58173e-09
5.38483e-09
-4.54205e-09
1.43737e-10
-2.77631e-10
3.78645e-10
-2.44751e-10
5.17188e-10
-6.6806e-09
-8.03566e-10
4.88519e-09
3.11888e-09
-5.13157e-09
-5.87051e-09
-4.6899e-09
5.60056e-09
4.95985e-09
3.79807e-09
-3.8799e-09
7.05204e-09
-6.58223e-09
-1.99408e-09
7.68876e-10
7.30188e-09
-7.45722e-09
-4.0408e-10
-5.39726e-09
3.2497e-09
6.98878e-09
-4.84122e-09
-7.00272e-09
-4.60637e-09
5.02223e-09
6.67579e-09
4.17813e-09
-4.83901e-09
-6.93417e-09
5.18673e-09
5.28987e-09
-4.96763e-09
-3.54403e-09
4.00681e-09
-5.86849e-09
-3.94405e-09
4.58796e-09
4.85709e-10
-2.51426e-09
-3.64877e-10
-6.1041e-09
3.9607e-09
-3.32084e-09
5.46425e-09
6.29292e-09
7.39106e-10
-6.51484e-09
-4.48696e-09
2.05126e-10
-2.28519e-09
6.58907e-09
-5.18924e-09
-5.5985e-09
3.67211e-09
-5.88043e-09
4.66709e-09
5.75174e-09
3.84873e-09
-3.7899e-09
5.93997e-09
-5.9988e-09
-7.1889e-10
-7.67378e-09
8.42893e-09
-3.62594e-11
2.48261e-10
5.99698e-09
8.2839e-10
3.71356e-10
5.79168e-09
5.90215e-10
-6.70006e-09
4.44534e-09
-4.4344e-09
6.68912e-09
3.7358e-09
2.34402e-09
-1.40078e-09
-4.67904e-09
3.95988e-09
5.39193e-09
-3.48876e-09
-5.86305e-09
-5.74427e-09
1.31603e-09
-2.08742e-09
6.51566e-09
-8.52111e-09
5.81412e-09
1.40746e-09
1.29953e-09
9.03957e-10
3.66315e-09
-6.09677e-09
1.52966e-09
3.20875e-10
1.31977e-09
-1.28441e-09
-3.56238e-10
-6.33329e-09
-6.46573e-10
-4.39321e-10
7.41918e-09
-5.45452e-09
-3.53731e-09
4.04561e-09
-4.2367e-09
4.71345e-09
-6.11169e-09
5.63495e-09
-4.62696e-09
-4.66637e-09
4.48212e-09
4.19327e-09
-3.98092e-09
3.25973e-09
-3.47209e-09
5.00967e-09
-4.39084e-09
5.48836e-09
-6.10719e-09
3.25699e-10
-1.76626e-10
-4.91368e-09
4.40925e-10
-4.20435e-10
-5.15446e-10
4.94956e-10
-3.3002e-09
3.97456e-09
-3.65908e-09
3.61423e-09
-4.02228e-09
6.92873e-09
-6.52067e-09
5.12426e-09
3.92595e-09
-5.18147e-09
-3.86873e-09
-9.1855e-11
3.75741e-10
5.674e-09
1.60778e-09
-1.87946e-09
-5.40232e-09
5.46242e-09
-6.2201e-09
5.62784e-09
-1.03163e-09
-2.7069e-09
5.10248e-09
-7.79195e-09
1.15305e-08
-8.84103e-09
4.09709e-09
-4.12671e-09
-1.08389e-09
1.1135e-09
3.36181e-09
5.31607e-09
-4.48152e-09
1.93446e-10
1.1876e-10
-7.45552e-09
7.14331e-09
5.17154e-09
-7.23848e-09
5.25373e-09
4.25546e-10
7.9399e-09
-2.19715e-09
-4.01131e-09
4.48106e-09
-5.5988e-09
2.40066e-09
-2.41196e-09
-3.70945e-09
4.99291e-09
1.28477e-09
-5.37373e-09
7.31931e-09
3.51984e-10
-7.69015e-09
1.22341e-10
-2.2849e-10
-6.49938e-09
6.49569e-09
8.72762e-10
-6.2636e-09
6.0878e-09
1.33833e-09
-8.29486e-09
8.33104e-09
1.40658e-09
7.29895e-09
-6.2015e-09
5.92299e-09
1.07081e-09
4.30899e-11
-4.79378e-09
6.98077e-09
-8.64581e-09
-3.12246e-11
1.69627e-09
-4.15668e-09
3.85206e-09
5.20118e-09
4.28265e-09
-3.91786e-09
-5.03921e-09
4.67441e-09
5.06266e-09
7.55425e-09
-5.46967e-09
-4.03672e-10
-5.01365e-10
3.96922e-10
5.08115e-10
-4.42305e-09
-1.08649e-09
6.20606e-10
4.88893e-09
-2.39643e-10
-1.85654e-11
3.19759e-10
-6.15502e-11
3.48225e-09
-4.48106e-09
3.99833e-09
-1.39199e-09
6.73639e-09
3.29604e-10
3.11972e-09
5.95699e-10
-6.45209e-09
5.60867e-09
6.79859e-09
-3.65661e-09
4.22171e-09
5.53815e-09
4.93108e-09
-4.23467e-09
-5.23138e-09
4.82134e-09
-4.14341e-09
-5.11478e-09
-4.33115e-09
3.22012e-09
-4.8354e-09
3.45766e-09
-5.52672e-09
-4.81478e-09
-2.41811e-09
4.35349e-09
3.83963e-09
2.63542e-09
-5.19691e-09
-4.63677e-09
3.47858e-09
-4.02485e-09
-5.29047e-09
3.85549e-09
-2.54917e-09
-4.30975e-09
6.81627e-09
-5.88268e-09
-3.97792e-09
4.40156e-09
1.72246e-09
-2.57673e-09
8.65898e-10
7.73799e-10
6.30614e-11
-9.91424e-10
1.54564e-10
-9.04919e-10
-5.77315e-09
-8.57718e-10
7.43438e-09
1.24066e-10
4.93251e-09
4.1637e-09
-4.7771e-09
-4.31911e-09
-5.19628e-09
3.34638e-09
-2.68113e-09
4.53102e-09
-9.06944e-09
6.36874e-09
6.31493e-09
-2.55851e-10
7.13907e-09
6.51621e-09
7.89523e-10
-1.96034e-09
-1.10746e-10
-5.26667e-10
5.29977e-10
-5.07425e-09
4.21792e-09
5.66064e-09
-4.80431e-09
-1.52199e-09
2.25425e-09
-1.78513e-09
1.05286e-09
1.6685e-09
-1.48831e-09
-5.25241e-09
-2.82232e-09
-1.09353e-09
4.01818e-09
-4.18793e-09
-3.13046e-09
1.54809e-09
4.41595e-09
-1.07618e-09
-4.88786e-09
-7.30776e-09
4.90018e-09
-4.20081e-09
2.91202e-09
6.24721e-09
-5.6011e-09
-5.31147e-09
5.22953e-09
1.09729e-10
-4.63735e-10
-1.37956e-10
4.91962e-10
-5.52246e-09
3.58668e-09
-5.49619e-09
5.44162e-09
1.72307e-09
7.59395e-10
6.86843e-09
3.6481e-09
-3.5884e-09
4.20506e-09
-4.26475e-09
-6.5577e-09
4.06736e-09
4.90139e-09
-4.31479e-09
4.28319e-09
-4.86978e-09
-5.48032e-09
4.72899e-09
-4.86685e-09
5.61817e-09
2.28001e-09
-1.95007e-09
6.54357e-09
-6.87351e-09
4.65534e-09
-3.03229e-09
-5.01514e-09
6.73195e-09
-6.83487e-09
-5.5956e-09
-4.47939e-09
4.77886e-09
4.20528e-09
5.7332e-09
-5.76957e-09
-4.7303e-09
-5.85284e-09
5.76251e-09
5.62387e-09
4.3282e-09
-4.29539e-09
-4.18768e-09
4.42729e-09
-4.38823e-09
-4.28386e-09
-5.21749e-09
5.74447e-09
4.36247e-09
-4.80452e-09
5.47908e-09
4.0865e-09
5.57342e-09
-6.20869e-09
-4.68147e-09
4.0742e-09
-4.29759e-09
-4.05865e-09
5.72922e-09
-5.82927e-09
-5.57544e-09
4.01218e-09
-3.36829e-09
-7.17736e-09
-1.15653e-09
6.94632e-09
1.38757e-09
1.1097e-09
-3.70118e-09
7.44641e-09
-5.03586e-09
4.20657e-09
-5.11532e-09
5.24501e-09
-4.66276e-09
4.53307e-09
4.99625e-11
-7.83646e-09
7.90526e-09
-4.15006e-09
4.19701e-09
1.06275e-09
-1.37787e-09
1.49508e-09
-1.96526e-09
-8.15163e-10
-1.01737e-09
6.98512e-10
1.13402e-09
6.70968e-09
-4.52503e-09
3.8066e-09
-5.14469e-09
-4.36852e-09
4.8748e-09
4.63841e-09
3.4938e-10
-4.69668e-11
3.08868e-09
-4.98771e-09
6.8201e-09
-6.12508e-09
-4.16299e-09
-5.07137e-09
-4.52966e-10
6.97005e-09
-1.44571e-09
-4.83545e-09
4.04021e-09
6.69832e-09
-5.90309e-09
3.70779e-09
3.39632e-09
-3.35431e-09
-3.7498e-09
5.77179e-09
-4.41501e-09
-6.31493e-09
2.26495e-09
-3.66914e-09
-1.52354e-09
2.92773e-09
1.14083e-09
-1.01412e-09
1.16795e-09
-1.29467e-09
4.52022e-09
-4.95485e-09
-3.57624e-09
4.01088e-09
4.61209e-09
-5.3701e-09
7.5353e-09
-5.23789e-09
-5.56541e-09
6.22263e-09
7.72995e-09
-6.10765e-09
3.50196e-09
2.22368e-09
-1.66148e-09
5.98688e-10
-1.16089e-09
-8.94667e-10
-4.33365e-10
5.42512e-09
-2.40497e-09
2.84832e-09
-5.56901e-09
-5.07157e-09
-3.33658e-09
4.30694e-09
4.10121e-09
-3.97765e-09
-5.93205e-09
-2.62011e-09
2.62568e-09
2.53505e-09
7.83057e-10
-3.79823e-09
4.23091e-09