/*--------------------------------*- C++ -*----------------------------------*\
  =========                 |
  \\      /  F ield         | OpenFOAM: The Open Source CFD Toolbox
   \\    /   O peration     | Website:  https://openfoam.org
    \\  /    A nd           | Version:  8
     \\/     M anipulation  |
\*---------------------------------------------------------------------------*/
FoamFile
{
    version     2.0;
    format      ascii;
    class       surfaceScalarField;
    location    "7.4";
    object      phi;
}
// * * * * * * * * * * * * * * * * * * * * * * * * * * * * * * * * * * * * * //

dimensions      [0 3 -1 0 0 0 0];

internalField   nonuniform List<scalar> 
11624
(
-7.89592e-09
8.09542e-09
1.46572e-10
-3.4607e-10
-7.30337e-09
-2.53563e-10
-3.38988e-10
-2.10916e-09
1.4419e-10
1.85493e-09
1.10042e-10
8.7355e-09
-7.64492e-09
1.85611e-09
-2.94669e-09
-6.10319e-09
5.75516e-09
1.55038e-11
3.32521e-10
-6.1288e-09
4.32252e-09
1.47092e-09
3.35358e-10
-1.45099e-09
-2.8737e-10
-2.96388e-09
4.70224e-09
-8.74405e-10
2.32188e-09
3.17046e-09
-4.61793e-09
3.02422e-09
-2.35697e-09
-3.33304e-09
2.66579e-09
-3.37999e-09
-1.60059e-09
2.64115e-09
2.33943e-09
5.05181e-09
-4.63377e-09
-1.90375e-10
-2.27666e-10
2.01025e-09
4.78991e-09
-2.00118e-09
-4.79898e-09
-2.81827e-09
-4.29121e-09
2.27037e-09
4.83911e-09
-4.02585e-09
5.18029e-09
-1.20369e-09
4.92418e-11
-1.56854e-09
4.42865e-09
-3.94768e-09
1.08757e-09
-3.97767e-09
2.84034e-09
-2.73131e-09
3.86864e-09
4.18132e-09
-4.15775e-09
-7.37055e-11
5.01414e-11
-3.72355e-09
4.82582e-09
-1.18966e-09
8.73873e-11
-2.75158e-09
3.87728e-09
-4.5473e-09
3.4216e-09
-3.22468e-09
-1.58114e-09
1.94216e-09
2.86365e-09
3.34281e-09
-3.79544e-09
2.35071e-10
2.17552e-10
-3.62904e-09
4.44556e-09
-3.55169e-10
-4.61349e-10
5.38848e-09
-5.4124e-09
5.52627e-11
-3.13362e-11
6.23673e-09
-2.06196e-09
9.05409e-10
-5.08017e-09
5.07699e-09
-4.77672e-09
-3.05044e-10
4.77616e-12
-4.87004e-09
1.45153e-09
4.29127e-09
-8.72755e-10
2.48086e-09
-4.01893e-09
-3.39586e-09
4.93393e-09
2.57575e-09
-2.40415e-09
-3.13677e-09
2.96517e-09
-2.75576e-09
3.35705e-09
-4.28375e-09
3.68246e-09
-5.91218e-09
4.59381e-09
-3.96164e-09
5.28e-09
5.36568e-09
-3.52236e-10
6.3548e-11
5.28087e-09
-1.87222e-10
2.94832e-10
-5.53203e-09
5.1265e-09
5.34706e-10
-1.29172e-10
-5.44601e-09
4.64702e-09
1.04894e-09
-2.49946e-10
5.60201e-09
-2.44473e-10
8.13345e-12
-4.45577e-10
-3.46453e-11
-5.10116e-09
6.0761e-10
-2.83165e-10
-8.44909e-10
4.95906e-09
-5.52381e-09
1.40965e-09
-3.59585e-09
3.25844e-09
-7.26314e-10
1.99533e-10
-3.94625e-09
1.75003e-09
-1.22622e-09
3.42244e-09
2.6217e-09
-4.18728e-09
-2.40394e-09
3.96952e-09
2.4674e-10
7.97805e-11
7.7689e-09
6.66262e-11
-4.84391e-09
-6.35119e-10
5.46089e-09
-3.05021e-10
-6.20883e-09
1.05296e-09
2.10319e-09
-1.83205e-09
-2.8799e-09
2.60876e-09
-9.23208e-09
-3.03791e-10
2.2325e-09
3.21876e-09
9.16307e-10
-1.7514e-09
-2.38367e-09
8.70526e-09
-7.29985e-09
4.84005e-09
-6.24546e-09
4.20199e-09
-3.94e-09
3.0736e-09
-3.3356e-09
-1.83532e-09
-6.04495e-10
3.30651e-10
3.85462e-09
-4.22933e-09
-4.94857e-09
5.32327e-09
1.09073e-09
-1.05677e-09
3.57124e-09
-3.6052e-09
-3.61075e-09
-1.09604e-09
4.74454e-09
-3.77503e-11
3.27362e-09
5.13963e-09
-5.48304e-09
-2.93021e-09
6.70831e-10
-4.51414e-10
2.35809e-10
-4.55225e-10
2.01217e-09
-9.00776e-10
5.09972e-09
-6.21111e-09
-2.07452e-09
2.59535e-09
8.21466e-09
-5.3924e-09
1.67751e-09
-1.09414e-10
3.8243e-09
3.41393e-09
-3.72968e-09
8.3783e-10
-5.22083e-10
-2.85165e-09
3.70173e-09
1.53477e-09
-2.38485e-09
4.62264e-09
-3.96524e-09
-2.87897e-09
2.22156e-09
-6.04718e-10
1.54651e-09
-5.16202e-09
4.22022e-09
-7.04871e-09
5.97528e-09
-3.14938e-09
4.22281e-09
1.63962e-09
-7.50991e-10
-3.84569e-09
2.95706e-09
-2.20833e-10
2.37763e-10
-2.33795e-10
2.16866e-10
-1.62203e-09
4.35785e-09
-3.61022e-09
2.41035e-09
-3.83046e-09
3.36065e-09
-1.94053e-09
-4.79465e-09
-5.10119e-11
4.00076e-09
2.17197e-10
2.26048e-10
-2.2383e-10
-2.19415e-10
2.50967e-09
7.34826e-09
-1.06849e-08
8.26958e-10
2.7356e-09
-2.80456e-09
-3.52587e-09
3.59483e-09
1.71736e-09
4.85382e-09
-1.32492e-09
-5.24626e-09
4.05956e-09
-3.58417e-09
-3.55746e-09
3.08207e-09
-1.01971e-09
6.05034e-11
1.4781e-09
-5.18898e-10
-4.72201e-09
-2.63953e-09
3.00556e-09
4.35597e-09
-2.68096e-09
-3.47978e-09
3.43742e-09
2.72332e-09
-4.9034e-09
4.62005e-09
-6.07592e-10
8.90943e-10
-5.10107e-09
-7.85877e-09
5.31492e-09
-2.87928e-09
2.73892e-09
3.68328e-09
-3.54292e-09
-1.5457e-09
3.23704e-09
-4.17073e-09
2.4794e-09
-3.72395e-09
9.17541e-10
-5.80254e-09
-2.86635e-09
6.52607e-10
-4.6912e-09
-2.81096e-09
6.36082e-10
-4.62021e-09
-2.73926e-09
6.1617e-10
-4.51817e-09
-3.28327e-09
7.7623e-10
-5.25007e-09
4.934e-09
-5.06475e-09
2.60352e-10
-1.29604e-10
-3.97931e-09
1.01409e-09
-6.36294e-09
-2.86808e-09
6.60261e-10
-4.88914e-09
-3.02129e-09
7.02499e-10
-5.03791e-09
-3.42008e-09
8.24853e-10
-5.57556e-09
-2.62362e-09
5.86841e-10
-4.48902e-09
-2.27022e-10
2.58334e-10
1.92903e-10
-2.24216e-10
5.1718e-09
5.75115e-09
-8.31147e-09
-2.61147e-09
-4.12183e-09
2.74859e-09
3.7836e-09
-5.70954e-09
-5.17532e-09
4.32366e-09
6.5612e-09
-2.30247e-10
2.4036e-10
-2.35172e-10
2.25059e-10
1.01804e-09
-1.11729e-09
4.87118e-09
-4.77193e-09
4.6351e-09
6.51589e-09
-6.9377e-09
-4.21329e-09
6.32716e-09
7.69613e-09
-9.72251e-09
-4.30079e-09
-1.08848e-09
4.62522e-10
-4.23221e-09
4.85817e-09
2.25819e-09
3.08981e-09
-2.4344e-09
-2.9136e-09
-4.35822e-09
-3.2031e-11
4.11411e-09
2.76144e-10
-3.70653e-09
2.38531e-09
-3.16042e-09
4.48164e-09
-3.5419e-09
-3.05068e-09
2.88605e-09
-2.0647e-09
1.6719e-09
2.71257e-09
-2.31977e-09
-2.36772e-09
3.07462e-09
-2.61875e-09
1.91185e-09
1.0729e-10
3.71115e-09
3.62876e-10
2.36867e-09
3.27157e-09
-4.85415e-09
-7.86089e-10
-3.5381e-10
1.48469e-09
-1.58646e-09
4.55581e-10
3.90628e-09
5.67335e-10
-3.72095e-09
-7.52662e-10
-4.72438e-11
-4.42627e-09
-6.27651e-10
3.24148e-09
-3.87591e-09
3.04854e-09
-2.41411e-09
-2.73136e-09
4.10088e-10
4.73507e-09
-2.4138e-09
2.17532e-09
8.54597e-09
-1.2953e-09
-9.426e-09
3.2159e-09
7.92066e-09
-8.96124e-09
5.47193e-09
6.787e-10
-1.21663e-09
-2.57066e-10
5.49239e-10
8.2538e-09
-3.40912e-09
-3.10924e-09
2.49942e-09
-1.08134e-09
6.79619e-10
1.15644e-09
-7.5472e-10
5.80866e-10
-1.29918e-10
5.37808e-09
-5.82903e-09
-4.85774e-10
7.31389e-10
-2.17008e-09
1.92447e-09
1.47557e-09
-3.84654e-09
3.72653e-09
-1.35556e-09
1.43385e-09
-1.21868e-09
2.80905e-09
2.78674e-09
-3.58896e-09
3.78559e-09
-2.98337e-09
4.60938e-09
8.994e-09
-2.7797e-09
-1.08237e-08
-2.06448e-09
-2.43034e-09
2.97539e-09
1.51943e-09
1.20947e-09
4.22387e-09
-2.85637e-09
-2.57697e-09
1.04399e-10
-1.86579e-10
-1.87874e-09
1.96092e-09
3.03625e-09
3.59992e-09
-4.01448e-09
3.40228e-10
-9.16368e-10
5.38786e-09
-4.81172e-09
3.25931e-10
3.00509e-09
3.56596e-10
-3.68761e-09
2.9971e-09
-2.72602e-09
-2.6388e-09
-6.17899e-09
-5.67353e-09
6.14297e-09
8.82561e-11
1.50855e-10
-5.06087e-11
-1.88503e-10
7.59219e-09
-1.45955e-09
-6.2995e-10
-5.50269e-09
-5.24097e-09
-1.1235e-09
7.09696e-10
5.65477e-09
4.29746e-09
-4.7518e-09
-3.9515e-09
4.40584e-09
2.23838e-09
-4.05006e-09
-3.09172e-09
3.86998e-09
-4.11339e-09
-1.30229e-09
4.11211e-09
3.3134e-09
-4.18403e-09
4.40994e-09
-3.55784e-09
-6.16425e-09
5.31214e-09
1.74337e-09
-3.90731e-09
3.63951e-09
-5.10204e-09
-3.0613e-09
2.25116e-09
-2.20532e-09
7.91047e-10
1.48895e-09
-7.46845e-11
-3.64235e-09
-2.57108e-09
4.30428e-09
1.90915e-09
2.38734e-09
-3.27791e-09
3.49709e-09
-2.60652e-09
2.46316e-10
-2.49294e-10
2.21301e-10
-2.18323e-10
-4.12347e-09
4.07586e-09
-3.77194e-09
3.81955e-09
7.7189e-09
1.48801e-09
-2.82733e-09
-6.37958e-09
-3.26433e-09
2.28065e-09
-3.38983e-09
4.37351e-09
3.18451e-09
-7.64142e-09
9.092e-09
1.26497e-10
-5.35584e-10
-2.47341e-09
2.8825e-09
-3.52376e-10
4.37244e-09
-4.26935e-09
2.49279e-10
5.40889e-09
-4.37218e-09
-7.08305e-10
-3.28408e-10
-1.61969e-09
-4.03876e-09
2.20982e-09
3.44863e-09
-6.1137e-09
-6.88973e-10
6.80268e-09
-1.62711e-09
2.61637e-10
1.48196e-09
-1.16481e-10
-8.84342e-10
-4.39991e-09
7.39754e-10
4.54449e-09
-3.67541e-09
-4.05946e-09
4.42981e-09
3.30507e-09
-4.24179e-09
-4.4758e-09
2.78358e-09
5.93401e-09
5.09729e-09
-5.44326e-09
7.5509e-09
-7.20493e-09
9.94117e-10
-4.8256e-09
4.84953e-09
4.67273e-09
-4.46054e-09
4.74687e-09
-2.36231e-10
-2.23581e-10
2.32929e-10
2.26883e-10
-4.4236e-09
4.32451e-09
9.49809e-11
4.11565e-12
5.70174e-09
-5.2695e-09
4.74841e-10
-9.07078e-10
5.76159e-09
-5.26588e-09
5.20889e-10
-1.0166e-09
5.58152e-09
-5.15903e-09
4.65989e-10
-8.88483e-10
3.03507e-09
-3.79446e-09
4.43786e-11
7.15018e-10
-4.96667e-09
4.96691e-09
-8.05621e-11
8.03207e-11
2.9512e-09
-3.1627e-09
3.11042e-09
-2.89892e-09
-4.15814e-10
4.12767e-09
6.67063e-10
-4.37892e-09
2.26813e-10
-2.60385e-10
2.32072e-10
-1.985e-10
-1.26984e-08
1.41753e-08
-6.85933e-09
5.38246e-09
5.02041e-09
-5.54331e-09
-2.25658e-12
5.25156e-10
-2.78537e-09
-3.06805e-09
2.32248e-09
3.53095e-09
2.42091e-09
-1.49962e-09
2.64936e-09
-3.57065e-09
-7.87268e-09
-8.30869e-09
8.40812e-09
7.77325e-09
2.91087e-09
-3.224e-09
7.7194e-09
-9.18601e-09
-6.4602e-09
7.92681e-09
-2.44951e-09
2.33324e-09
-3.0987e-09
3.21497e-09
-1.17215e-10
1.70947e-10
-6.45352e-09
5.11891e-09
-1.82862e-10
1.51747e-09
3.96204e-09
-2.13051e-09
1.92413e-09
-3.75567e-09
-3.32575e-09
4.46144e-09
2.75092e-09
-3.88661e-09
-3.14096e-09
9.10437e-11
3.63008e-10
2.68691e-09
4.8953e-09
-8.45683e-10
-4.93396e-09
4.56528e-09
-4.15395e-09
-3.374e-09
2.96267e-09
-4.51603e-09
5.15311e-09
2.30716e-11
-6.60157e-10
-4.59393e-09
5.26414e-09
2.81338e-11
-6.98341e-10
-3.34019e-09
4.15343e-09
8.23838e-10
-1.63708e-09
-3.40992e-09
3.80741e-09
-2.8467e-09
2.4492e-09
6.38362e-10
7.36039e-09
-7.99875e-09
-2.05132e-10
-3.74858e-09
-2.04038e-10
-5.6147e-10
2.8286e-09
9.46616e-10
-3.21374e-09
2.87021e-10
-3.06055e-10
2.37158e-09
-6.05289e-10
6.69689e-10
-2.43598e-09
4.97579e-09
-6.25969e-11
5.37178e-11
4.81986e-09
-4.78471e-09
2.00431e-11
-5.51931e-11
4.5192e-09
-4.39053e-09
9.60846e-12
-1.38278e-10
3.51953e-09
-3.42225e-09
-3.12642e-09
3.02914e-09
2.03613e-10
-1.63044e-10
-2.03563e-10
1.62994e-10
4.01123e-09
1.59638e-09
-2.6083e-11
4.15096e-09
1.6336e-09
-2.29694e-11
4.09682e-09
1.63209e-09
-2.71727e-11
-4.74493e-09
5.95549e-09
-1.29466e-09
8.41085e-11
5.45394e-09
-5.33651e-09
-2.89327e-10
1.71898e-10
-1.2349e-09
1.32246e-09
7.27529e-10
-8.15089e-10
-2.27617e-09
-4.64495e-09
3.64034e-09
3.28078e-09
-5.40545e-09
4.66277e-09
9.90682e-10
-2.48006e-10
6.81507e-09
6.55477e-11
-1.42667e-09
3.55526e-09
2.99214e-09
-2.50617e-09
-4.04122e-09
-4.41178e-09
2.3912e-10
4.23162e-09
-5.89575e-11
4.97619e-09
-4.97705e-09
-2.40013e-12
3.2612e-12
-4.38125e-09
4.39327e-09
-4.49517e-11
3.29304e-11
-4.44282e-09
4.45488e-09
-4.57544e-11
3.36931e-11
-4.28973e-09
4.30168e-09
-4.39457e-11
3.20032e-11
1.57819e-09
-1.68566e-10
4.08378e-09
3.36507e-09
-5.39027e-09
-2.05858e-09
5.05652e-09
-4.633e-09
-2.81118e-10
-1.42401e-10
-4.4274e-09
4.03882e-09
2.62696e-09
-6.08034e-09
5.69077e-09
-1.51751e-10
5.4132e-10
-4.67166e-09
-1.1209e-09
2.4925e-10
-1.57077e-09
-7.93965e-10
1.12983e-09
5.4227e-09
-5.9122e-10
-3.12275e-10
5.2907e-09
-5.29614e-09
7.78135e-12
-2.33269e-12
-4.96041e-09
4.9744e-09
-5.28964e-11
3.89059e-11
-4.41964e-09
4.3769e-09
-1.40456e-10
1.83194e-10
-4.48189e-09
4.43876e-09
-1.42176e-10
1.8531e-10
-4.32685e-09
4.28502e-09
-1.38093e-10
1.79921e-10
3.89969e-09
-3.98602e-09
-5.8955e-10
6.75884e-10
6.15016e-09
1.62707e-10
-1.493e-09
2.8372e-09
-3.46683e-09
3.01697e-09
-3.14591e-09
2.44391e-09
2.98265e-09
5.9708e-09
-5.11635e-09
-5.526e-11
-7.99189e-10
4.87401e-09
3.73821e-10
-1.34814e-09
7.2364e-09
-7.09729e-09
-7.69874e-10
6.30757e-10
4.27141e-09
-4.35426e-09
-6.60321e-11
1.48883e-10
-1.3016e-11
-6.91495e-11
3.56268e-09
-3.67068e-09
-1.94432e-10
3.02429e-10
3.61107e-09
-3.72077e-09
-1.96221e-10
3.0592e-10
3.48869e-09
-3.59411e-09
-1.9093e-10
2.96353e-10
5.70583e-10
3.65024e-10
-6.00036e-09
-4.45756e-09
5.10166e-09
-7.26283e-10
8.21782e-11
-4.51692e-09
5.17195e-09
-7.39482e-10
8.44503e-11
-4.36469e-09
4.99494e-09
-7.10394e-10
8.01428e-11
-5.1583e-09
5.49143e-11
-1.35013e-09
5.32401e-09
-1.42591e-09
-5.01539e-09
-3.55267e-09
-2.99423e-09
3.81185e-09
2.73505e-09
4.07554e-10
-1.58143e-10
-4.90741e-10
2.4133e-10
2.65676e-09
-4.41674e-09
5.27951e-09
1.23295e-09
-6.21701e-11
3.93816e-09
-5.40867e-11
2.12748e-10
3.98882e-09
-5.14141e-11
2.13561e-10
3.85632e-09
-5.27758e-11
2.07687e-10
5.03542e-09
-1.14724e-10
5.50982e-11
-2.93457e-10
1.70575e-10
1.09953e-09
5.65329e-11
-4.24875e-09
-1.69605e-10
-8.47531e-10
4.9575e-09
-4.95366e-09
6.19296e-12
-1.00328e-11
-4.35208e-09
1.63814e-10
-9.70766e-10
-4.44481e-09
1.65881e-10
-9.90578e-10
6.4417e-09
-5.49076e-09
6.03744e-11
-1.01131e-09
-4.96159e-09
4.96468e-09
6.02345e-12
-9.10628e-12
-6.54537e-10
1.46162e-10
-6.80501e-10
1.52401e-10
-6.68871e-10
1.4947e-10
-4.39527e-09
4.40979e-09
-1.46549e-11
1.40191e-13
-4.45697e-09
4.47175e-09
-1.50275e-11
2.40958e-13
-4.30362e-09
4.31775e-09
-1.41894e-11
5.79127e-14
-5.49926e-09
5.42863e-09
-1.41146e-10
2.11777e-10
-3.99486e-09
4.41939e-09
-4.89729e-10
6.51974e-11
6.2452e-09
3.4913e-09
-6.18124e-09
2.79827e-09
3.40625e-09
-3.52767e-09
-2.67685e-09
-4.73845e-09
4.76675e-09
-2.63963e-11
-1.90203e-12
-4.71292e-10
2.3571e-09
-4.02503e-09
4.35919e-09
-1.37507e-11
-3.20409e-10
5.33047e-09
-4.7649e-09
-2.95698e-11
-5.36002e-10
-4.23081e-09
4.26475e-09
-4.69156e-11
1.29734e-11
5.05549e-09
7.63915e-10
-1.28631e-10
4.10106e-09
-4.12256e-09
-9.63604e-11
1.17864e-10
5.65979e-09
-4.80405e-09
5.81217e-11
-9.1386e-10
3.21385e-09
-4.0037e-09
3.59319e-09
-2.80335e-09
-4.31288e-09
5.02436e-09
2.13346e-10
-9.24826e-10
6.40772e-09
1.78059e-09
-4.42073e-09
-3.76757e-09
-4.61061e-09
4.62937e-09
3.88456e-12
-2.26413e-11
-5.18883e-09
4.99697e-09
-5.55992e-11
2.47455e-10
-8.09732e-10
4.16442e-09
5.16171e-10
-3.87086e-09
-1.16249e-09
6.19313e-09
-1.59468e-10
3.6965e-09
-2.70575e-09
3.49665e-09
-4.4874e-09
2.9217e-09
-4.30689e-09
3.50205e-09
-2.11686e-09
-4.55361e-09
-1.98666e-10
-6.34164e-10
4.63383e-10
4.07706e-09
5.14172e-09
-4.34532e-09
-4.70072e-11
-7.49385e-10
-5.44592e-09
5.29834e-09
-1.01744e-10
2.49325e-10
-2.57474e-10
2.10595e-10
4.68793e-11
3.39401e-09
-3.55962e-09
5.97623e-12
1.59637e-10
4.48817e-09
-4.24856e-09
1.87503e-10
-4.27118e-10
-3.66232e-09
-3.10183e-09
2.64068e-09
5.84345e-09
-5.86912e-09
-5.622e-11
8.18832e-11
-4.49177e-09
-4.50902e-11
2.08334e-11
-1.48599e-10
9.02361e-11
1.43206e-10
-8.48429e-11
6.83002e-09
-5.44113e-09
1.94694e-10
-1.58358e-09
4.78583e-09
7.0094e-11
-5.84517e-10
-5.02838e-09
5.51939e-09
3.2292e-11
-5.23305e-10
4.62404e-09
-9.67612e-10
-1.67742e-10
4.78828e-09
-1.00052e-09
-1.76696e-10
4.72255e-09
-9.87204e-10
-1.72664e-10
5.20708e-09
-5.39585e-09
4.52059e-10
-2.63286e-10
-4.76303e-10
1.08777e-10
-1.77289e-10
5.44815e-10
-4.54164e-09
-9.07201e-11
3.84296e-11
6.3596e-10
-1.92119e-09
-6.34739e-10
1.91997e-09
-3.65105e-09
4.29969e-09
2.54624e-10
-9.03268e-10
2.92152e-09
-1.38675e-09
-1.53477e-09
-3.9925e-10
4.24339e-09
7.57772e-10
-4.60191e-09
5.87231e-09
-5.87718e-09
-1.49849e-11
1.98483e-11
-6.13462e-09
5.9681e-09
-8.80125e-11
2.54537e-10
-3.87997e-09
3.99327e-09
4.54028e-10
-4.79489e-09
-4.42397e-10
2.08908e-10
4.63229e-09
1.57144e-10
-4.20857e-09
-2.43461e-09
2.40632e-09
3.10291e-09
-5.95642e-09
-1.33284e-09
1.91973e-10
2.37055e-10
-1.39415e-10
-5.93214e-09
7.05932e-09
1.89527e-10
-1.31671e-09
3.24938e-09
-3.63647e-09
8.79606e-11
-8.52163e-10
-3.22182e-09
4.75036e-10
4.63716e-09
3.9588e-11
-8.54058e-11
4.22955e-09
-4.24066e-09
1.83205e-11
-7.21444e-12
6.00933e-09
-2.46626e-10
-5.25351e-09
-5.09189e-10
5.1873e-09
-2.31811e-10
-4.5474e-09
-4.08091e-10
5.3016e-09
-2.3475e-10
-4.64597e-09
-4.20878e-10
5.381e-09
-2.35833e-10
-4.71368e-09
-4.31493e-10
6.63504e-09
-2.54385e-10
-5.78552e-09
-5.95132e-10
6.04764e-09
-1.25997e-09
2.68852e-10
4.59808e-09
-4.5575e-09
-7.86007e-11
3.80184e-11
4.20071e-09
-8.00707e-11
1.1435e-09
4.11131e-09
-7.98544e-11
1.12165e-09
-2.1088e-10
1.99494e-10
-4.41222e-09
-7.29675e-09
1.04573e-09
1.89157e-10
6.06187e-09
4.97177e-09
-1.66695e-12
6.08756e-12
-4.25186e-09
4.25338e-09
6.02124e-12
-7.53986e-12
2.89163e-09
-3.26254e-09
3.7373e-09
-3.3664e-09
5.21669e-09
-5.17909e-09
-8.63758e-11
4.87807e-11
-4.61334e-09
-6.58066e-12
9.3095e-12
-4.17177e-10
4.33672e-09
-5.05612e-10
4.77843e-09
-4.75994e-09
-1.97594e-11
1.26666e-12
-2.50112e-10
7.55268e-11
-1.78367e-10
4.75556e-10
-1.83563e-10
4.89952e-10
-1.81484e-10
4.84391e-10
-7.17733e-10
-6.36308e-11
4.89268e-09
-7.33889e-10
-6.5328e-11
4.99993e-09
-5.21051e-09
5.1713e-09
-1.77561e-10
2.16769e-10
5.08234e-09
5.68463e-11
-8.36954e-11
9.95944e-11
-3.04918e-10
-4.06402e-09
4.15334e-10
9.2246e-10
-4.80561e-09
3.73552e-11
7.43229e-10
1.01888e-09
-2.54233e-10
1.13267e-09
2.68162e-10
1.17315e-09
2.78029e-10
1.15741e-09
2.73577e-10
2.67327e-09
-2.61863e-09
-3.52915e-09
3.1708e-09
-3.00037e-09
3.35872e-09
-6.80079e-09
-8.11151e-10
6.34614e-09
1.2658e-09
-5.39389e-09
5.44942e-09
-5.84176e-11
2.89027e-12
-1.23254e-11
9.67878e-12
-2.4434e-10
-4.5297e-09
-7.90875e-11
7.43775e-11
-8.11883e-11
7.71312e-11
-8.03074e-11
7.59598e-11
5.7533e-09
-5.75856e-09
-8.89927e-11
9.4244e-11
3.92782e-09
-3.63458e-09
-3.14885e-09
2.85561e-09
-4.34342e-09
-4.74868e-10
-2.50488e-11
4.84334e-09
-1.09812e-09
2.48322e-10
4.18612e-09
-3.4523e-09
-5.0489e-09
5.55466e-09
-8.32539e-10
3.26781e-10
4.53307e-09
-8.3589e-10
-3.0317e-10
4.66819e-09
3.20298e-11
-7.08536e-11
3.18607e-09
-3.63823e-09
-3.07699e-09
-1.0139e-10
1.31751e-10
-9.76847e-11
6.73233e-11
-4.414e-09
4.47472e-09
-8.32957e-11
2.25717e-11
-4.47607e-09
4.53764e-09
-8.45032e-11
2.29352e-11
-4.32183e-09
4.38128e-09
-8.15275e-11
2.20777e-11
-3.76647e-09
4.14983e-09
2.98574e-09
-3.3691e-09
-3.31278e-09
-2.07572e-09
4.3776e-09
-1.81223e-11
7.82236e-10
-3.78034e-10
5.98222e-10
-2.13596e-10
3.90506e-09
8.85532e-10
-4.577e-09
1.74464e-09
-3.09688e-11
1.16474e-09
6.98339e-10
4.12548e-09
-1.72246e-10
1.37724e-09
3.97669e-09
-2.13503e-11
1.06902e-09
-3.22126e-11
1.10155e-10
2.68656e-10
-3.46599e-10
-5.90919e-09
-7.29321e-10
-5.46581e-12
6.64397e-09
-1.62952e-10
6.62439e-11
-5.27266e-09
5.29469e-09
-6.24966e-12
-1.57781e-11
4.46894e-09
-9.73964e-11
1.28824e-09
-5.152e-10
8.87522e-11
-4.8255e-10
3.93223e-09
-4.73234e-09
1.28266e-09
-3.93369e-09
4.00489e-09
-7.0536e-10
-2.30891e-10
4.32653e-09
4.24965e-09
-5.26253e-09
4.39712e-09
-3.38424e-09
5.52787e-09
-1.10368e-09
-3.23137e-10
1.24275e-09
-6.86805e-11
7.0083e-10
3.40188e-12
3.8489e-09
-5.04239e-09
1.83491e-09
-6.41412e-10
-2.49291e-09
-6.27009e-09
6.1696e-09
2.59339e-09
-4.94598e-09
4.94006e-09
-1.98348e-12
7.89972e-12
-5.34193e-09
1.91424e-09
5.43794e-09
1.60712e-10
-7.67824e-11
8.12022e-11
-1.65132e-10
-6.0774e-09
-3.00304e-09
6.58753e-09
-4.41933e-09
3.82856e-09
7.85328e-10
-1.94562e-10
-4.2668e-09
3.69742e-09
7.57266e-10
-1.87893e-10
-4.35795e-09
3.77611e-09
7.7379e-10
-1.9195e-10
-3.8135e-09
-3.14732e-10
-5.05537e-10
-2.52711e-09
-2.32274e-09
-2.1311e-09
-5.15999e-09
2.86369e-09
5.52737e-09
-1.47265e-09
1.15235e-09
-3.26504e-09
-3.47501e-09
3.98847e-09
1.20944e-10
1.79149e-10
-1.39381e-10
-4.25921e-09
-1.70638e-12
9.05769e-12
-2.3773e-10
-1.63948e-11
-7.88742e-09
5.97523e-09
-4.26679e-09
-4.21138e-09
4.71148e-09
-4.89504e-10
-1.06006e-11
-4.72637e-09
5.30856e-09
-5.6423e-10
-1.79601e-11
-4.38986e-09
4.15794e-09
4.52939e-09
2.77514e-09
-2.21265e-09
1.68662e-10
-5.91495e-11
1.74716e-10
2.35712e-10
-2.06814e-10
-5.40041e-09
6.19161e-09
-7.89547e-10
-1.65272e-12
4.89424e-09
-5.56225e-09
-1.0893e-10
2.39545e-10
3.23113e-09
-4.25367e-09
3.89705e-09
-2.87451e-09
-4.91949e-09
5.6289e-09
-7.06958e-10
-2.46049e-12
-6.56491e-09
6.76522e-09
-8.08773e-09
-1.84706e-12
7.38847e-12
5.06021e-09
-9.63149e-11
1.4778e-09
-2.13861e-10
-5.56502e-11
1.63995e-11
-1.83445e-11
1.74536e-11
-1.95401e-11
1.69977e-11
-1.89953e-11
-4.7637e-09
-1.09492e-09
4.12605e-10
5.37412e-10
1.09709e-11
9.32502e-10
-7.80134e-12
-6.24981e-11
-2.71183e-10
1.15485e-11
-3.19721e-14
3.49405e-09
3.13689e-09
-2.42705e-09
-4.20388e-09
-5.73893e-09
6.46394e-09
-7.41252e-10
1.62375e-11
3.92052e-09
2.18716e-09
-2.14564e-09
4.35425e-09
1.92737e-11
-1.43383e-11
5.51651e-10
3.22762e-10
-9.8176e-11
6.13016e-11
4.179e-09
3.41429e-09
-3.40718e-09
-9.29437e-13
1.11056e-11
-2.13728e-09
1.76337e-09
3.2111e-09
2.61634e-09
5.08261e-10
-3.1246e-09
-4.31858e-09
3.68451e-09
8.50792e-10
-2.16728e-10
1.50263e-11
-1.9101e-11
1.55287e-11
-1.98491e-11
1.53484e-11
-1.95573e-11
1.92383e-10
-2.54515e-10
-4.68972e-09
4.06157e-09
8.33182e-10
-2.0503e-10
-5.12045e-09
9.93225e-10
-1.39573e-10
-5.30423e-09
1.02918e-09
-1.44277e-10
-5.22995e-09
1.01446e-09
-1.42452e-10
4.62468e-09
-7.35913e-11
4.69987e-11
3.6791e-09
-7.53568e-10
-4.93755e-09
2.01202e-09
-5.16039e-09
4.46707e-09
9.18329e-10
-2.25014e-10
1.29438e-10
4.42804e-10
-1.90709e-10
-1.79149e-10
2.06814e-10
4.79813e-09
-6.64773e-11
4.67772e-11
1.13001e-09
-3.75654e-09
-9.84221e-10
-5.76431e-13
1.15968e-11
-3.83338e-11
4.61093e-12
4.67467e-09
-4.98304e-09
3.86688e-10
-7.83263e-11
-8.56976e-09
4.3594e-09
7.42625e-09
5.25463e-09
-1.11938e-10
7.40029e-11
-4.63718e-09
-9.87676e-11
6.42874e-11
-4.94887e-09
-2.3153e-10
-9.22622e-11
5.74536e-10
-2.57169e-10
6.75776e-11
-1.69272e-10
6.53783e-11
-2.03486e-10
4.20054e-09
1.71956e-11
1.18171e-11
4.63677e-12
2.17484e-12
8.01696e-11
-2.01525e-10
2.74554e-10
-2.72087e-10
3.34879e-09
3.32786e-09
-2.98015e-09
9.25938e-11
-2.38378e-10
1.2192e-11
4.69157e-10
-4.16512e-10
-6.48366e-11
4.02602e-11
-5.11022e-11
1.18129e-09
-1.91311e-10
5.72093e-09
-6.50171e-12
3.88715e-11
4.16585e-09
-4.33743e-09
4.24744e-09
1.09131e-09
-1.52132e-10
5.26266e-09
3.96902e-10
1.93263e-09
4.89187e-10
-1.07099e-11
9.5643e-11
-1.03439e-10
7.9824e-12
-9.4397e-12
2.6124e-09
1.47201e-09
-2.13425e-09
-1.95016e-09
-7.26705e-09
8.51858e-09
7.44122e-09
-8.69275e-09
4.25895e-10
-3.91396e-10
-2.23072e-11
-1.4959e-12
1.4221e-11
-5.70864e-09
5.41987e-09
5.822e-10
-2.93424e-10
7.25665e-11
-9.05577e-11
1.1955e-09
-1.64275e-10
2.29267e-10
2.78217e-10
-2.74554e-10
-4.98381e-09
5.63828e-09
-1.20825e-09
5.53779e-10
-6.31543e-09
-9.63539e-10
1.58187e-09
5.6971e-09
1.75427e-10
-3.79327e-10
-4.75298e-09
2.76311e-09
5.03083e-09
-3.04096e-09
3.65657e-09
-1.21513e-10
1.17643e-09
-2.46094e-09
2.74007e-09
-6.54921e-09
2.25701e-09
4.59352e-09
-2.91867e-09
-3.93185e-09
-1.95468e-11
3.03791e-11
3.92958e-09
-4.21641e-09
-3.23199e-09
3.51882e-09
4.2885e-09
-3.79522e-10
5.15706e-09
-1.18867e-10
1.42575e-09
-5.43529e-09
3.40213e-09
3.2573e-09
-1.22414e-09
3.99397e-09
-3.36741e-11
-3.03732e-10
3.73853e-09
-3.44346e-09
2.80808e-09
-3.10315e-09
-4.13131e-09
7.87246e-10
-1.63974e-09
2.68428e-09
-2.77681e-09
1.72183e-09
-2.57404e-10
-1.7248e-09
2.60371e-10
3.93907e-09
3.09217e-09
-2.86278e-09
-4.16846e-09
-7.20588e-09
2.57562e-09
-2.41845e-09
-4.16279e-09
-2.96348e-09
4.04877e-09
3.0775e-09
4.87814e-09
-3.45481e-09
2.07071e-09
4.40515e-09
4.23529e-09
-2.66411e-09
-2.40332e-09
1.99937e-09
5.74133e-09
-3.02294e-12
-5.81247e-10
-4.02204e-09
5.49604e-10
-5.42352e-09
1.09776e-10
5.24899e-09
6.47639e-11
-3.62295e-09
2.91869e-09
-2.45844e-09
2.37296e-10
-3.33782e-10
3.23369e-10
2.01292e-09
-2.8845e-09
-1.71696e-10
-4.59933e-09
3.59245e-10
3.0297e-10
-4.0054e-09
-5.7517e-09
4.88153e-09
-2.18707e-09
3.05724e-09
2.33031e-09
-2.23071e-09
-2.7748e-09
-5.96152e-09
7.03057e-09
1.70575e-09
2.31435e-09
4.85854e-12
-3.58365e-11
4.56873e-10
-2.44482e-09
-6.17271e-09
5.85837e-09
2.75916e-09
9.24174e-10
3.55251e-09
-3.46515e-09
-1.01154e-09
-5.83711e-09
-2.70122e-09
-1.17992e-09
-7.25097e-09
5.94623e-09
2.48465e-09
-1.92369e-09
1.33726e-09
1.12969e-09
-3.81167e-09
5.08973e-09
-2.40774e-09
1.48532e-09
-1.4933e-09
-3.21669e-09
1.34039e-10
-5.49808e-09
9.48384e-10
4.41566e-09
-3.03917e-09
3.81498e-09
-4.45122e-09
-4.5624e-09
1.7479e-09
3.94419e-09
3.75831e-09
3.95902e-09
-4.66631e-09
-3.05102e-09
5.99662e-10
-3.39644e-09
2.32446e-10
-7.15932e-10
-3.44053e-09
3.41735e-09
-3.84441e-09
3.86759e-09
2.27361e-09
-3.02134e-09
-1.68261e-09
-3.82025e-09
-2.90042e-09
4.44451e-09
-2.71463e-10
6.0292e-09
7.05019e-10
-6.46276e-09
2.61863e-09
-2.68428e-09
-3.69748e-09
-3.32762e-09
3.57922e-09
-5.78759e-09
5.53599e-09
5.87685e-09
-4.2123e-09
-5.72401e-09
-3.43252e-09
3.27154e-09
4.56614e-09
-4.12781e-09
9.974e-11
4.17976e-09
-1.51696e-10
3.25389e-09
7.61196e-10
-3.61139e-09
-4.03699e-10
6.23283e-09
-2.83804e-09
-3.09047e-09
3.47688e-09
-1.97594e-09
-5.74078e-09
9.15934e-10
3.80871e-10
4.91699e-09
-1.13385e-09
5.13169e-09
-4.20087e-09
2.11938e-09
-3.0502e-09
-4.90733e-10
2.59896e-10
-9.68552e-09
2.76254e-09
-1.73283e-09
8.6558e-09
-3.09974e-09
3.4386e-09
8.88921e-11
-1.47427e-09
-5.92585e-09
7.31123e-09
7.85521e-11
-5.38975e-09
-1.33251e-09
6.64371e-09
6.35877e-11
-1.14461e-09
-4.67839e-09
5.75941e-09
6.67565e-11
-1.1884e-09
-4.84665e-09
5.96829e-09
6.52785e-11
-1.17e-09
-4.77849e-09
5.88321e-09
4.26239e-09
-4.13156e-09
8.31534e-11
-2.13986e-10
4.41488e-09
-4.27862e-09
8.62681e-11
-2.22529e-10
4.35351e-09
-4.21962e-09
8.50677e-11
-2.18957e-10
2.44633e-09
-2.46503e-09
3.75091e-09
-3.7322e-09
-3.35623e-09
-4.23841e-09
4.50417e-09
3.42609e-10
-3.9552e-09
-3.84513e-11
-3.49069e-09
6.75446e-10
-9.46767e-10
3.76201e-09
4.954e-10
3.96126e-09
-2.55468e-09
2.65261e-09
-3.00446e-10
4.51259e-09
-4.42574e-09
3.83471e-09
-4.04025e-09
4.31765e-09
-5.44326e-10
-2.94643e-09
2.8363e-09
6.54463e-10
-3.79562e-09
4.05333e-09
-6.5696e-10
2.03975e-09
-5.59963e-09
7.91275e-09
-4.35287e-09
4.89047e-10
-6.04249e-09
4.64748e-11
4.2286e-09
5.98932e-10
7.97107e-09
-7.17115e-09
-3.21664e-09
-3.00236e-09
-6.09935e-09
2.73122e-09
8.22804e-09
-1.83247e-10
-8.46702e-09
4.22225e-10
-9.10113e-10
-4.04743e-09
1.16192e-09
8.97991e-11
-1.66337e-10
-8.18353e-11
1.58373e-10
3.12381e-10
5.21525e-09
1.09593e-09
-6.62357e-09
-2.09587e-09
5.48137e-11
2.40381e-09
-3.62746e-10
-1.83673e-09
2.78209e-09
3.57985e-09
-3.04854e-09
-3.76576e-09
-6.66838e-10
7.38384e-11
4.35876e-09
-2.36092e-10
-3.30643e-10
3.36489e-10
-1.31033e-09
-3.92339e-09
1.38718e-09
7.04078e-09
-2.53335e-09
-6.49493e-09
1.9875e-09
5.24632e-09
4.04314e-10
-6.64859e-09
9.97959e-10
2.56152e-09
7.17116e-10
-3.27864e-09
-3.58931e-09
7.07123e-09
2.8587e-09
-6.34063e-09
-2.28618e-10
1.58853e-10
4.36045e-09
3.04044e-09
-3.29812e-09
-4.10276e-09
4.27301e-09
-6.24895e-09
-2.33513e-09
5.23531e-10
2.80492e-09
-9.93316e-10
4.43748e-09
-4.13715e-09
1.31907e-10
-4.32235e-10
-3.12515e-09
3.69703e-09
5.11332e-09
-5.68521e-09
-2.9188e-09
3.61222e-09
4.8431e-09
-5.53652e-09
-3.44551e-09
4.01756e-09
5.66628e-09
-6.23833e-09
-2.79886e-09
3.36251e-09
4.55027e-09
-5.11392e-09
6.85228e-10
-4.41246e-09
4.61117e-09
-8.83933e-10
-3.75976e-09
4.47655e-09
6.32676e-09
-7.04355e-09
3.94672e-09
4.58884e-09
-4.07079e-09
-4.46477e-09
-3.0406e-09
7.05661e-09
3.02477e-09
-3.02914e-09
2.98015e-09
-3.11761e-10
3.31287e-10
1.76362e-10
-5.13364e-09
5.21208e-09
-2.54804e-10
1.65969e-09
-3.57236e-09
-1.95393e-09
3.8666e-09
6.5152e-09
-2.55718e-09
-6.49137e-09
4.6799e-09
-4.53664e-09
9.04226e-11
-2.33685e-10
3.16982e-10
6.78777e-10
-2.26395e-09
-3.32636e-09
3.01268e-09
2.57763e-09
4.28883e-09
-6.62418e-09
-4.3713e-09
6.70665e-09
-1.13632e-10
5.87647e-10
-1.03642e-11
-4.4365e-11
3.37305e-10
-2.82576e-10
-4.18217e-09
4.20648e-09
1.75413e-11
-4.18482e-11
-4.05717e-09
4.65517e-09
-4.47391e-09
5.23707e-09
2.60934e-09
-5.46666e-09
-2.37976e-09
3.60152e-09
5.58227e-09
-3.71578e-09
-3.7878e-09
4.40384e-09
-5.2554e-09
-5.72587e-10
1.3049e-09
4.52309e-09
-6.49893e-09
-6.64751e-10
1.47713e-09
5.68655e-09
-5.71511e-09
-6.79263e-10
1.45897e-09
4.9354e-09
-5.88168e-09
-6.209e-10
1.39513e-09
5.10745e-09
-7.41331e-09
-8.15481e-10
1.69987e-09
6.52892e-09
9.61506e-10
-5.03814e-10
-6.16634e-09
-3.59382e-09
3.47592e-09
-4.62534e-09
4.74324e-09
-3.75704e-09
-1.28525e-09
-2.18716e-09
4.31949e-09
4.59722e-09
-6.72955e-09
3.98351e-09
-4.30243e-09
-2.94612e-09
5.8756e-10
4.10874e-10
-8.30505e-10
-1.67929e-10
2.35064e-09
5.71294e-09
-4.73013e-09
-5.03997e-09
-6.05564e-09
5.98124e-09
-1.78951e-11
9.22942e-11
6.04555e-09
-4.41564e-09
2.7999e-09
-4.2922e-09
-3.02492e-11
4.36743e-09
-4.49784e-11
3.75193e-09
-4.72838e-10
-3.19113e-09
-3.15955e-09
3.31696e-09
6.1983e-09
1.54102e-09
-3.17811e-09
-4.56121e-09
6.50242e-09
1.3839e-09
-2.83595e-09
-5.05038e-09
2.68211e-09
-6.0414e-09
2.73469e-09
-1.82201e-09
-3.30749e-09
2.39481e-09
-3.36914e-09
-4.12776e-09
4.33735e-09
3.12608e-10
-6.11511e-09
4.15121e-09
1.65129e-09
1.44519e-09
3.01132e-10
4.00824e-09
3.01256e-10
-3.12648e-09
7.95749e-09
-4.83391e-09
-6.12661e-09
-2.53802e-09
-1.72411e-10
2.83693e-09
-6.47796e-10
1.3149e-09
5.96794e-09
-6.07336e-10
1.2522e-09
5.36446e-09
-5.60242e-10
1.17578e-09
4.76547e-09
-5.45301e-10
1.15136e-09
4.58124e-09
-5.55039e-10
1.16768e-09
4.68895e-09
-8.88812e-10
-9.41941e-10
-5.59817e-09
7.42892e-09
-2.8401e-09
2.69651e-09
2.00874e-10
-5.7288e-11
-3.67949e-09
7.31248e-10
3.20886e-09
-2.6062e-10
-4.0613e-09
4.26967e-09
6.12109e-09
-6.32945e-09
-3.19714e-09
3.47897e-09
4.76112e-09
-5.04295e-09
-3.26584e-09
3.5453e-09
4.86726e-09
-5.14672e-09
-3.31381e-09
3.58799e-09
4.94324e-09
-5.21741e-09
-3.68982e-09
3.93731e-09
5.53148e-09
-5.77897e-09
3.77504e-09
2.95322e-09
-1.01532e-09
3.33877e-09
-4.35508e-09
4.75484e-09
5.73853e-09
-6.191e-10
4.13357e-10
-5.53279e-09
4.60316e-09
1.51983e-10
-4.26609e-09
-3.83014e-09
-9.56312e-10
4.0409e-09
-6.04277e-09
-4.40074e-09
6.40261e-09
8.91984e-10
-5.02369e-09
3.91291e-13
1.57089e-09
-6.15612e-10
-5.46206e-09
4.50678e-09
-1.242e-10
-2.47454e-09
2.59874e-09
-3.19188e-09
-1.7928e-09
6.30143e-09
-5.68855e-09
-2.16639e-09
-3.08948e-09
3.77855e-09
1.47732e-09
3.48391e-09
-3.40997e-09
3.09687e-09
-5.47258e-09
8.87534e-10
4.78435e-09
-1.99307e-10
-2.98992e-09
1.12445e-09
-6.04152e-09
5.22945e-09
2.30471e-10
-1.04938e-08
-6.56887e-09
9.79558e-09
3.24216e-09
-2.84411e-09
3.58545e-09
1.11416e-09
3.29491e-09
3.50892e-09
-2.47005e-09
3.62192e-09
-4.6608e-09
3.04571e-09
1.13416e-08
-1.13161e-09
-1.32557e-08
-5.62987e-09
3.91086e-09
4.99262e-09
-1.42492e-09
1.52369e-09
3.39256e-09
-3.49133e-09
1.73899e-09
-2.92459e-09
5.77941e-09
7.38408e-10
9.5714e-10
-9.56329e-10
-7.39219e-10
-5.45986e-09
-7.55676e-09
5.30851e-09
7.70811e-09
3.17188e-10
-3.06447e-10
-4.11682e-09