/*--------------------------------*- C++ -*----------------------------------*\
  =========                 |
  \\      /  F ield         | OpenFOAM: The Open Source CFD Toolbox
   \\    /   O peration     | Website:  https://openfoam.org
    \\  /    A nd           | Version:  8
     \\/     M anipulation  |
\*---------------------------------------------------------------------------*/
FoamFile
{
    version     2.0;
    format      ascii;
    class       surfaceScalarField;
    location    "7.4";
    object      phi;
}
// * * * * * * * * * * * * * * * * * * * * * * * * * * * * * * * * * * * * * //

dimensions      [0 3 -1 0 0 0 0];

internalField   nonuniform List<scalar> 
33977
(
3.50066e-09
-1.5255e-10
-3.76507e-09
4.1696e-10
-8.13058e-10
-1.65247e-09
1.71627e-09
7.49259e-10
3.867e-09
-2.78362e-10
1.57642e-10
-3.74628e-09
3.72879e-09
-3.67266e-09
-3.15791e-10
2.59659e-10
2.26093e-11
-2.32572e-10
-5.0792e-10
7.17883e-10
-1.91733e-09
1.54217e-09
-4.37898e-10
-3.19047e-09
4.11997e-09
-2.22804e-09
1.29854e-09
-1.80128e-09
-2.09243e-09
1.34479e-09
2.54892e-09
3.81454e-09
-3.92892e-09
1.87104e-10
-7.2721e-11
-9.93847e-10
2.07017e-09
-3.14046e-09
2.06413e-09
2.75782e-09
3.58522e-10
-3.24771e-09
1.31368e-10
-1.32748e-09
1.37549e-09
-7.05913e-10
6.57899e-10
-5.92491e-09
-4.5044e-09
4.93388e-09
5.49543e-09
-3.40075e-09
-3.96635e-09
4.47621e-09
2.8909e-09
2.3852e-09
-2.78688e-09
-2.27866e-09
2.68034e-09
-1.22199e-09
1.38813e-09
-1.66144e-10
7.41485e-10
-8.16955e-10
-1.25201e-09
-2.69198e-09
1.05774e-10
1.71099e-09
8.75214e-10
5.4096e-09
-9.63215e-10
-5.76899e-09
1.3226e-09
2.7268e-09
-1.49796e-09
-2.66735e-09
1.43851e-09
2.51531e-09
2.50777e-09
-2.63788e-09
-1.22066e-09
5.15515e-09
-4.33693e-09
4.02434e-10
-3.83557e-09
3.85145e-09
7.70401e-12
-2.35829e-11
2.59489e-09
-1.36083e-09
1.0889e-09
-2.32296e-09
-2.08258e-09
9.59709e-10
-9.25958e-10
2.04883e-09
2.4726e-09
-2.44397e-09
2.48668e-09
3.80523e-09
-3.80811e-09
-2.68902e-11
2.97791e-11
3.75477e-09
-3.33289e-09
8.89821e-11
-5.10861e-10
-3.4673e-10
-1.17534e-09
6.91413e-09
-5.39206e-09
3.82362e-09
-3.8206e-09
-3.05608e-11
2.75341e-11
3.9301e-09
-3.93274e-09
6.13807e-13
2.02761e-12
8.99144e-10
-8.24638e-10
-4.48238e-11
-2.96819e-11
-3.84046e-09
-2.4731e-11
2.96135e-11
2.56054e-09
2.40196e-09
-2.48989e-09
-3.18945e-09
1.81822e-09
-1.43443e-09
2.80566e-09
1.42113e-09
2.13759e-09
-2.95438e-09
-6.04347e-10
2.38546e-09
2.58391e-09
-2.40882e-09
1.01083e-09
-9.88236e-10
1.51598e-09
-1.53857e-09
-3.06196e-09
-2.66322e-11
-8.08085e-11
3.1694e-09
-2.39484e-09
-2.27361e-09
2.49552e-09
2.17293e-09
3.79455e-09
-3.79704e-09
-4.49562e-11
4.74436e-11
3.84907e-09
1.3394e-10
-2.3088e-10
-3.75213e-09
-6.16197e-10
8.43555e-13
4.37012e-09
2.3367e-09
-2.68669e-09
2.43076e-09
-2.08078e-09
1.28206e-10
-6.14214e-11
3.11684e-09
-3.18363e-09
3.87118e-09
-1.18408e-12
-1.85421e-11
-1.22637e-09
-2.83627e-10
2.79709e-10
1.23029e-09
-1.36431e-09
2.13022e-09
-7.6591e-10
2.52354e-09
2.43628e-09
-2.57437e-09
-3.09719e-09
3.10115e-09
-8.99661e-12
5.03271e-12
-1.74539e-09
7.9469e-10
1.13171e-09
-1.81006e-10
-2.94967e-09
-2.42573e-09
2.58853e-09
3.16883e-09
2.64457e-11
-2.64389e-11
-3.16883e-09
3.96322e-09
-1.0282e-10
6.5984e-12
-2.30755e-09
4.78999e-10
-8.63426e-10
-3.97256e-10
3.13632e-10
1.33408e-09
-1.25045e-09
2.49953e-09
-2.49124e-09
2.51526e-09
-3.0875e-11
7.59353e-10
-4.13029e-09
3.40182e-09
3.91194e-09
-3.89973e-09
-2.36281e-11
1.1421e-11
2.37621e-09
-1.82132e-09
-1.43779e-09
8.82907e-10
-3.00701e-09
3.49112e-11
-8.23676e-11
3.05447e-09
-1.83833e-09
1.89242e-09
1.79029e-09
-1.84439e-09
2.41963e-11
-4.10309e-11
3.21961e-09
-3.43457e-09
-9.35352e-10
1.15031e-09
-3.88136e-10
-1.07078e-11
-2.93405e-09
2.66515e-09
1.47893e-09
-1.76788e-09
6.32129e-11
-3.16863e-09
-2.6872e-11
3.13229e-09
1.67075e-10
-1.83463e-09
3.67743e-09
-2.00988e-09
2.34838e-09
-3.41075e-09
7.48127e-09
-6.4189e-09
-1.06787e-09
1.13015e-09
-1.62883e-09
1.56655e-09
2.19359e-09
-1.74364e-10
2.17006e-09
-4.18928e-09
1.52189e-09
-1.69619e-09
1.74295e-10
-4.1729e-09
1.16358e-09
-1.17622e-09
4.18554e-09
6.5976e-12
-3.19689e-09
6.32012e-11
3.12709e-09
2.75719e-09
-2.86895e-09
-2.28308e-09
3.17992e-10
3.78582e-09
-3.97561e-09
3.33243e-09
-6.14992e-11
4.94143e-12
-3.27588e-09
-4.29723e-09
4.12923e-09
4.85998e-10
-5.37973e-09
-1.91813e-09
4.79564e-09
2.50223e-09
3.16041e-09
-1.78702e-09
1.42069e-09
-2.79408e-09
1.38706e-09
-3.5184e-11
2.57245e-11
-1.3776e-09
-2.89504e-09
2.9445e-09
-5.97627e-11
1.03018e-11
3.06499e-09
1.35035e-11
9.28748e-11
-3.17137e-09
-6.13783e-10
5.43477e-10
-4.75018e-10
5.45324e-10
-9.68148e-12
1.35279e-09
4.39475e-11
-4.21166e-09
-3.12572e-10
2.93642e-10
4.23059e-09
-3.10421e-09
-2.48071e-11
3.18283e-11
1.49202e-09
-1.01415e-09
2.74174e-09
2.59442e-09
2.58791e-09
-2.6828e-09
-2.36116e-09
2.42146e-09
-1.25833e-10
6.55363e-11
8.76776e-10
-4.11204e-09
5.00011e-09
-1.76485e-09
2.47096e-09
-2.72174e-09
2.88587e-09
-2.63509e-09
1.95083e-10
3.4978e-09
-7.02661e-10
-2.99022e-09
3.33269e-09
5.07691e-10
-2.52007e-09
-1.32031e-09
-3.7571e-09
-1.80119e-11
1.09413e-09
2.68099e-09
3.78576e-09
-3.77562e-09
-4.82585e-11
3.81203e-11
2.87794e-09
-3.49135e-09
6.13408e-10
2.90067e-10
-1.19958e-09
-3.16854e-10
7.36162e-10
-7.8756e-10
-2.25615e-09
-2.57036e-09
-1.61454e-09
6.88756e-10
3.49615e-09
1.00311e-10
5.19611e-09
-4.70512e-09
-5.91302e-10
-2.84905e-09
2.83466e-09
-2.24984e-11
3.68939e-11
-1.61076e-09
1.55372e-09
-1.58187e-09
-4.47918e-10
8.14157e-10
1.21563e-09
3.87486e-09
-3.86192e-09
-2.87813e-11
1.58384e-11
2.42617e-09
-2.62273e-09
-2.51268e-09
2.70925e-09
-3.07143e-10
4.22419e-09
-4.02057e-09
1.03529e-10
1.06486e-09
-6.05728e-09
5.34272e-09
-3.50291e-10
-5.20391e-10
1.02659e-09
-1.33538e-09
8.29178e-10
-2.8898e-09
2.87213e-09
-1.70113e-11
3.46831e-11
8.07267e-09
-7.28654e-09
1.53255e-09
-2.31868e-09
-2.01021e-09
1.9815e-09
7.57379e-10
-7.28672e-10
-2.92951e-09
2.90769e-09
-1.45025e-11
3.63257e-11
3.08571e-09
-3.10266e-09
1.93445e-11
-2.39281e-12
-1.6974e-10
4.79708e-10
3.50457e-09
3.1059e-09
9.41459e-12
-3.14259e-09
2.72792e-11
-2.97455e-09
2.94765e-09
-1.49001e-11
4.17956e-11
-2.61474e-09
2.28539e-09
2.75551e-09
-5.29352e-10
9.99328e-11
-4.83349e-09
5.26291e-09
-3.02084e-09
2.99278e-09
-1.39183e-11
4.19746e-11
-2.88324e-11
3.00101e-11
-3.06351e-09
3.03479e-09
-1.31884e-11
4.19149e-11
6.1502e-12
-2.69517e-11
-1.56508e-09
-2.19643e-09
1.49278e-10
3.61223e-09
1.23257e-09
-1.61593e-09
1.51351e-09
1.0674e-11
-3.55423e-11
3.45701e-09
-3.44062e-09
-4.10558e-11
2.4664e-11
-2.65645e-09
-2.00338e-09
1.46777e-09
3.19207e-09
-2.0477e-10
4.907e-10
-4.38411e-10
1.52481e-10
3.07126e-09
-1.32012e-11
2.76536e-11
-3.83338e-09
1.33856e-11
-4.19263e-11
3.41029e-09
-3.4067e-09
-1.78006e-11
1.42148e-11
1.87149e-11
-3.40857e-11
3.03798e-12
-4.55052e-12
3.50659e-09
-3.48519e-09
-3.87864e-11
1.7393e-11
-2.27345e-09
2.85815e-09
2.00952e-10
-7.8565e-10
-3.43947e-09
2.93448e-09
3.86433e-10
1.18549e-10
3.55073e-09
-3.53065e-09
-3.5039e-11
1.49586e-11
1.61161e-09
-4.0274e-10
-4.53341e-09
3.32454e-09
8.27067e-10
-8.33593e-10
-1.026e-09
1.03252e-09
-3.36132e-09
2.34961e-09
-1.7127e-09
2.72441e-09
3.61361e-09
-3.58526e-09
-5.31629e-11
2.48184e-11
3.74129e-09
-3.75212e-09
-1.36551e-11
2.44885e-11
3.81776e-09
-3.78996e-09
-4.56058e-11
1.78043e-11
5.66151e-10
-1.49523e-09
-2.73238e-09
3.66146e-09
3.72097e-09
-3.7343e-09
3.351e-12
9.9734e-12
3.74571e-09
-3.73049e-09
-2.89265e-11
1.37074e-11
-1.18616e-09
-6.17799e-09
5.62661e-09
1.73754e-09
-3.88059e-09
-8.98612e-11
3.12295e-09
8.475e-10
4.98069e-11
3.7571e-09
-7.81154e-11
2.08836e-09
-2.08262e-09
-5.74532e-12
7.30153e-10
3.24292e-09
-3.96405e-09
-9.02308e-12
5.70004e-09
-3.54495e-10
5.07246e-11
-5.39627e-09
-4.1614e-09
-8.26777e-11
-1.71297e-11
4.26121e-09
3.16408e-10
-2.91761e-10
-1.98068e-09
1.95603e-09
3.12893e-09
-1.29421e-11
4.78129e-11
-3.1638e-09
-5.5187e-09
-1.70333e-09
4.72957e-09
2.49245e-09
-7.24585e-11
-5.46048e-10
7.55843e-11
5.42922e-10
-1.44124e-09
-2.75851e-09
1.25142e-09
2.94832e-09
-2.80673e-09
2.80572e-09
-1.50285e-11
1.60427e-11
-3.5086e-11
1.94656e-11
9.98314e-10
7.43106e-10
-9.14353e-10
3.24388e-09
-8.0782e-10
-2.67909e-09
2.43024e-10
-1.56639e-09
2.42164e-09
1.92624e-09
-2.78149e-09
3.76206e-09
-3.74181e-09
-4.28448e-11
2.26034e-11
3.17341e-09
-2.56364e-10
7.97794e-10
-3.71484e-09
-3.89323e-10
3.8708e-09
-3.52826e-09
4.67837e-11
-2.99761e-09
2.91459e-09
2.02301e-09
-1.93998e-09
2.25255e-11
2.06584e-09
1.28106e-09
2.26572e-09
-3.31906e-09
-2.27721e-10
3.79669e-09
-4.02489e-09
-1.13588e-09
1.36408e-09
3.03571e-09
7.00176e-11
-2.87297e-09
-2.32755e-10
-9.81709e-12
-4.22826e-09
3.66335e-09
5.74729e-10
-1.87634e-09
1.92483e-09
9.40531e-10
-9.89018e-10
3.38418e-09
-3.37169e-09
-2.72784e-11
1.47853e-11
-4.58445e-11
-3.30843e-09
1.62843e-10
3.19143e-09
-3.31557e-09
3.29212e-09
-8.79077e-11
1.11359e-10
9.41909e-10
-3.52063e-09
2.858e-09
-2.79278e-10
-2.11216e-09
2.00856e-09
-1.73472e-09
-1.0073e-09
9.32852e-10
-8.37932e-10
9.12385e-10
-3.24003e-09
2.13435e-10
9.45652e-10
2.08094e-09
-3.56291e-09
8.81099e-12
1.14635e-10
5.28556e-11
-1.46441e-10
-2.26758e-09
-1.69291e-09
1.55781e-09
1.35105e-10
3.15446e-09
-3.15936e-09
-8.52606e-12
1.34213e-11
-3.88793e-09
3.8611e-09
8.165e-11
-5.48178e-11
-4.94316e-10
4.55359e-09
-4.58863e-09
-9.9814e-10
2.42112e-10
-4.1464e-10
1.17067e-09
2.23218e-09
-5.24391e-09
7.44899e-09
-4.43727e-09
-9.44846e-11
2.72308e-10
-1.95281e-10
1.74573e-11
2.8133e-10
-3.67209e-09
-9.16695e-11
3.48243e-09
2.16302e-09
-1.62753e-09
-5.35482e-10
-1.15693e-10
-6.52617e-11
3.12234e-09
-2.94139e-09
-1.8457e-09
-7.28626e-10
1.61124e-09
9.63083e-10
2.50663e-11
-1.73207e-11
2.38365e-10
7.84762e-10
-2.86195e-10
-7.36931e-10
2.76522e-09
-7.16739e-10
-1.97266e-09
-7.58176e-11
-2.07818e-10
1.16783e-09
-5.02634e-09
4.06633e-09
1.44845e-09
-6.7495e-10
7.35192e-10
-1.50869e-09
-3.98584e-09
4.43548e-09
-4.1066e-09
3.65696e-09
-8.01944e-10
8.2573e-10
2.14579e-10
1.56229e-09
2.34195e-09
-2.43628e-09
-1.46796e-09
2.71261e-09
-1.23577e-09
1.07272e-09
-2.54955e-09
-1.7211e-09
-2.27118e-09
7.68844e-10
3.22343e-09
-3.79712e-10
6.42069e-11
3.18407e-09
-2.86857e-09
6.2121e-10
5.14274e-11
-3.75309e-11
-6.35106e-10
-3.79432e-09
3.30323e-10
-9.89193e-11
4.54278e-09
-1.95949e-09
-3.69711e-09
1.11382e-09
4.29576e-09
-4.26238e-09
-5.94137e-12
-2.74368e-11
3.76794e-09
-3.37002e-11
1.14676e-11
3.20712e-09
-3.16207e-09
-6.25802e-11
1.75252e-11
3.40117e-11
-4.75729e-11
-3.35414e-09
3.55243e-09
-3.2267e-10
1.24379e-10
3.27701e-09
-3.24167e-09
-5.75714e-11
2.2227e-11
-8.531e-10
4.59536e-10
9.02951e-10
-5.09387e-10
-1.51697e-09
7.81665e-10
3.31836e-09
-2.58305e-09
-9.03812e-10
1.19313e-09
-3.09973e-09
2.81041e-09
-1.99291e-09
2.73772e-09
2.01237e-09
-1.43548e-10
4.65727e-09
-4.60625e-09
9.2532e-11
4.96276e-09
-3.04779e-09
-1.14755e-09
-7.67422e-10
-1.17822e-10
3.62488e-09
-6.44181e-11
-3.44264e-09
-2.25642e-09
3.07353e-09
1.84804e-09
8.85236e-10
-8.38174e-10
3.24452e-10
-3.71514e-10
2.30231e-09
-5.08231e-09
-1.5331e-09
4.31309e-09
1.77637e-11
-3.97789e-11
2.04916e-09
-1.40644e-09
2.06989e-09
3.29198e-09
1.26475e-09
-2.3702e-09
-2.18653e-09
-3.38604e-09
3.13924e-09
9.03195e-10
-6.56401e-10
-1.2532e-09
-1.03018e-09
2.06472e-09
2.18648e-10
-2.78555e-09
2.78786e-09
-1.14479e-11
9.13758e-12
-1.37363e-09
1.41411e-09
-1.02871e-09
-4.56494e-09
8.11414e-10
-4.07855e-11
2.77562e-09
-2.72572e-09
-8.5714e-10
8.07244e-10
1.02956e-09
-4.40623e-09
-8.19409e-10
4.19608e-09
4.19298e-09
-4.24863e-09
1.08521e-09
-4.51448e-09
-1.47901e-09
6.61654e-09
-6.23057e-10
1.59155e-09
-1.4332e-09
-2.59641e-09
2.43806e-09
1.73645e-09
-1.93125e-10
-1.54333e-09
9.49204e-10
-4.52052e-09
5.8035e-09
-1.30903e-09
3.1026e-09
-2.2845e-09
4.90922e-10
3.91995e-09
3.56512e-10
-4.4682e-09
1.91735e-10
-2.36439e-11
-3.7391e-09
3.73756e-09
2.51854e-11
5.64498e-10
-5.81605e-11
-5.78796e-10
-2.72214e-09
1.19806e-09
-6.60208e-10
2.18429e-09
4.9768e-09
1.35847e-09
-3.28891e-09
-3.04637e-09
-3.71276e-09
3.72782e-09
2.09289e-11
-3.59907e-11
4.76501e-09
-4.4545e-09
-3.71126e-09
-7.0432e-12
3.16334e-09
1.25267e-11
5.04442e-11
2.94497e-09
5.97337e-11
-3.05515e-09
4.36253e-10
-4.34554e-10
1.04472e-10
-1.06172e-10
2.64492e-10
-5.22898e-10
-2.15055e-10
4.73461e-10
2.38394e-09
1.87745e-09
-4.12483e-09
-1.36563e-10
7.54281e-09
-5.70053e-09
5.06096e-10
3.11524e-09
1.26162e-09
-1.90591e-09
4.97244e-10
-9.55427e-11
-5.07325e-10
1.05623e-10
-1.54137e-09
-2.30481e-09
-1.52687e-11
3.86145e-09
3.31458e-09
-3.33158e-09
6.27951e-12
1.07225e-11
-1.18773e-09
1.15098e-09
-2.76501e-10
3.13251e-10
1.49247e-10
-2.20932e-10
-3.21135e-09
1.25139e-09
3.47693e-09
-1.51697e-09
4.59854e-09
7.60431e-10
-4.48219e-09
3.87988e-09
-4.79459e-11
1.7133e-11
-8.16264e-10
-3.55665e-09
2.80652e-09
1.93784e-09
-1.30096e-09
1.41227e-09
5.70037e-11
3.08346e-10
-5.26859e-10
1.6151e-10
-1.12549e-09
9.15152e-10
-9.20882e-10
1.13122e-09
-4.64301e-09
4.68313e-09
-4.34393e-10
3.94266e-10
4.51541e-10
-2.24875e-09
-3.91942e-10
2.18916e-09
1.15334e-10
-1.08191e-10
-3.92296e-09
3.91582e-09
-6.47182e-10
1.4149e-10
-1.76017e-10
6.81709e-10
2.8923e-09
5.3716e-11
-2.87016e-10
-2.659e-09
-3.70121e-09
-3.38394e-11
2.22906e-11
-1.57914e-09
2.87733e-09
-2.73943e-09
-5.88653e-09
-2.22518e-09
1.83247e-09
6.27923e-09
2.29699e-09
-2.0031e-09
-2.45876e-09
2.16487e-09
1.00242e-10
1.09721e-10
-3.20447e-09
2.99451e-09
3.27789e-11
-1.88293e-11
-5.73308e-09
5.78792e-09
-1.02712e-10
4.78704e-11
-3.65868e-09
2.23349e-09
1.23937e-09
1.85812e-10
-2.33697e-09
2.21131e-09
1.71721e-09
-2.24591e-09
2.38444e-09
2.15846e-09
2.06997e-10
5.07252e-10
-5.94222e-10
-1.20026e-10
1.50559e-09
-4.48036e-09
3.97688e-09
-1.00211e-09
6.18483e-10
-5.96481e-10
2.52294e-10
-2.74296e-10
4.33318e-11
-5.46132e-11
3.67228e-09
-6.17839e-09
6.06499e-09
-3.55889e-09
-1.50475e-09
-2.09036e-09
7.92952e-10
2.80216e-09
7.16582e-11
-2.7937e-09
-4.83559e-11
2.7704e-09
-1.27207e-09
-1.9773e-09
5.10174e-10
2.7392e-09
2.67444e-09
-1.92632e-09
1.18782e-09
-1.93594e-09
-1.33596e-09
-1.48935e-10
1.48489e-09
2.92556e-10
-3.33669e-09
4.99582e-09
-1.95169e-09
-2.76555e-09
2.74941e-09
-1.81139e-11
3.42559e-11
7.91839e-10
-6.72109e-10
-2.04644e-09
1.92671e-09
1.8965e-10
-2.57354e-09
2.81621e-09
-4.32325e-10
-3.2589e-09
3.20854e-09
-3.73433e-11
8.77089e-11
-1.07296e-09
-2.13877e-09
3.24491e-09
-3.31847e-11
5.39279e-09
-4.45509e-09
-1.40819e-09
4.70503e-10
-3.44647e-09
-4.3406e-09
2.40734e-09
3.8979e-09
-2.628e-11
-3.87657e-09
4.94266e-12
4.74596e-09
-3.36413e-10
-4.74911e-09
3.39564e-10
5.66529e-10
-5.38943e-10
2.49491e-10
-2.77077e-10
-3.19245e-09
4.09119e-09
-9.4861e-10
4.98718e-11
1.0458e-10
-7.53827e-10
-1.52697e-10
-1.74559e-10
-3.20832e-10
1.59938e-10
3.35453e-10
2.04654e-09
3.04802e-09
-2.75786e-09
-6.55513e-10
7.94759e-10
-4.60129e-09
4.46204e-09
3.50261e-09
5.40014e-10
-4.86902e-11
-3.99394e-09
-2.04651e-10
-1.09769e-09
1.30234e-09
-7.93467e-10
1.93464e-09
8.90176e-10
-2.03135e-09
1.94066e-09
-1.23154e-09
2.45129e-09
-4.63628e-09
-3.89109e-09
3.53925e-09
4.98811e-09
-3.30505e-09
-1.14477e-10
6.53857e-11
5.13009e-10
-4.93447e-10
2.26801e-10
-2.46363e-10
-2.38124e-09
2.55799e-10
-1.55318e-10
2.28075e-09
-1.7633e-09
-3.45258e-09
1.46026e-09
3.75563e-09
-3.68855e-09
3.69579e-09
1.87485e-11
-2.5991e-11
-3.29903e-10
8.44118e-10
-2.03021e-09
1.51599e-09
1.15956e-09
-1.1772e-09
-2.10682e-09
2.12446e-09
2.37688e-09
-2.60401e-09
-2.49461e-09
-1.20744e-09
4.85993e-09
-3.65249e-09
-3.64684e-09
2.70285e-09
3.89336e-09
-2.94937e-09
8.63512e-12
-1.81493e-11
1.44136e-10
-5.97531e-09
-1.6762e-10
5.99879e-09
-1.4481e-09
-4.28268e-09
5.07527e-09
-6.97731e-10
-3.01611e-10
9.99342e-10
1.04113e-10
-3.12958e-09
-7.31639e-10
4.74419e-10
-4.316e-10
2.16254e-10
-2.59073e-10
2.43417e-10
-7.35352e-10
-2.20935e-09
2.70129e-09
-3.13661e-09
3.16356e-12
1.97252e-10
2.93619e-09
3.68046e-09
-8.773e-11
2.08816e-11
1.32803e-09
-5.46615e-09
5.20298e-09
1.08515e-09
-6.62655e-10
-1.16031e-09
7.37818e-10
2.5672e-11
-1.66521e-10
3.27593e-09
-3.13508e-09
3.4926e-09
-4.27335e-09
8.01093e-10
-2.03379e-11
-3.28052e-09
6.86926e-11
3.26281e-09
-5.09792e-11
3.90412e-10
-3.65064e-10
1.9901e-10
-2.24358e-10
4.10986e-09
-4.37446e-09
-9.99593e-10
1.2642e-09
-3.77959e-09
3.73544e-09
9.81704e-11
-5.40209e-11
1.12451e-09
7.78346e-10
-1.90285e-09
-4.30298e-12
7.95893e-11
-2.48866e-09
2.15262e-09
-3.69944e-10
7.05982e-10
-1.2041e-09
1.20687e-09
3.01916e-09
-3.02193e-09
1.43297e-10
-1.15581e-09
1.72975e-10
3.9817e-09
-3.95988e-09
-1.94793e-10
-3.73573e-09
3.2551e-10
3.51277e-09
-1.02548e-10
5.8393e-10
-3.18341e-10
-3.08354e-10
4.27655e-11
4.26822e-09
-1.77561e-09
-3.71326e-09
8.89421e-11
-7.7619e-11
3.89312e-09
-3.90444e-09
8.84971e-11
-2.44194e-10
2.97686e-09
-2.82117e-09
3.39929e-10
-3.2298e-10
1.80114e-10
-1.97063e-10
-3.05006e-09
3.83303e-09
-1.55147e-09
7.68496e-10
2.64349e-10
-3.77253e-10
4.18106e-09
3.50139e-10
-2.14893e-09
-2.38227e-09
-3.68173e-09
3.62412e-09
8.8561e-11
-3.09557e-11
-5.29444e-11
4.3065e-11
4.46133e-10
9.78452e-10
2.69026e-09
-3.65029e-11
-3.70326e-09
3.68323e-09
5.65287e-11
3.01718e-10
-2.88135e-10
1.61374e-10
-1.74957e-10
-3.48191e-09
3.36528e-09
1.86384e-10
-6.97564e-11
1.98747e-09
2.48588e-10
-1.72389e-09
-5.12169e-10
2.77886e-10
-3.01047e-10
1.46289e-10
-1.23127e-10
-3.86068e-11
1.2012e-10
-3.58822e-09
3.54749e-09
6.87268e-11
-2.79978e-11
-3.61309e-09
3.66955e-09
-2.4964e-11
-3.14997e-11
2.2349e-10
-2.02331e-10
1.48334e-10
-1.69492e-10
-2.64477e-10
2.82441e-10
1.82923e-10
-2.00887e-10
-1.65601e-09
1.19806e-09
-2.90337e-09
-3.52431e-09
3.5507e-09
-1.1452e-11
-1.49463e-11
-5.64859e-09
4.28179e-11
-1.27305e-10
1.86666e-09
-1.79604e-09
-3.37438e-09
3.30376e-09
1.03404e-09
-1.01309e-09
-1.14645e-09
-8.45175e-10
9.06074e-10
1.02425e-09
-4.49138e-09
-2.12539e-09
1.88166e-09
4.73512e-09
2.4936e-09
-2.80787e-09
3.47403e-09
-3.15976e-09
1.79761e-10
1.14996e-10
-1.30112e-10
-1.64645e-10
2.50782e-11
-3.23968e-09
-1.42171e-11
3.22882e-09
1.30941e-09
-4.17035e-09
2.9864e-09
-1.25454e-10
-4.04965e-09
3.87516e-09
1.74487e-10
3.91735e-10
1.762e-10
-1.53181e-10
-4.14755e-10
2.90222e-10
-3.43635e-10
-2.70433e-09
2.69487e-09
-1.79432e-11
2.74e-11
-2.00011e-09
2.1832e-09
1.46132e-09
-1.64441e-09
3.56648e-11
-1.74318e-11
-1.65104e-12
-2.16602e-12
9.51771e-11
-9.136e-11
-3.36727e-09
5.52649e-10
-3.68589e-10
3.18321e-09
-2.22741e-09
-3.59588e-09
3.24839e-09
2.5749e-09
3.22906e-09
3.42729e-11
-3.32225e-09
5.89117e-11
-2.73143e-09
-1.20861e-09
2.50685e-09
-3.46497e-09
3.22095e-09
2.00444e-09
-1.76042e-09
-7.01713e-10
-2.55481e-09
1.10625e-10
3.1459e-09
6.8553e-10
4.31326e-11
-6.61468e-10
-6.71952e-11
3.63982e-11
-4.99627e-11
-6.25159e-09
4.91592e-09
5.00795e-09
6.52213e-10
-5.66386e-10
5.64358e-10
-6.50186e-10
5.41815e-09
-5.28677e-09
-2.99483e-10
1.68098e-10
4.59861e-10
2.23514e-09
-2.78667e-09
9.16692e-11
1.21589e-11
-1.27319e-11
-1.8514e-11
1.90869e-11
3.49304e-10
-1.83661e-10
-3.40202e-10
-2.45588e-09
3.46629e-09
7.52341e-10
-1.76276e-09
3.2847e-09
-3.18361e-09
1.12301e-10
-2.13395e-10
-3.98038e-09
-3.87925e-09
2.71295e-09
5.14668e-09
2.35466e-09
-4.62005e-10
4.74198e-10
-2.36686e-09
-3.76578e-09
3.70398e-09
2.347e-10
-1.72897e-10
9.33831e-10
-4.27409e-09
4.28724e-09
-9.46975e-10
9.17856e-11
-5.85689e-11
-3.05039e-09
3.11068e-09
-3.70714e-09
-3.39881e-09
-1.49451e-09
1.2063e-09
3.68703e-09
1.48046e-09
-6.60116e-10
5.55145e-10
-1.71402e-09
-4.21661e-09
1.52439e-09
5.93086e-11
-5.37554e-11
5.58944e-10
1.87432e-09
-2.50185e-09
-8.48483e-10
1.47602e-09
1.50423e-09
-4.01663e-09
-2.73151e-09
2.87592e-11
3.13087e-09
-5.16904e-12
6.23837e-12
7.52237e-13
3.79181e-10
-3.30983e-10
-2.52968e-10
-3.69158e-09
-3.35444e-11
3.65739e-11
1.34508e-10
-4.86478e-10
7.49849e-10
-3.97879e-10
3.30835e-09
-1.06329e-09
2.14697e-10
-2.45976e-09
-4.39876e-09
8.30565e-10
-6.43462e-10
2.97765e-09
-2.18311e-09
-1.20724e-09
4.12696e-10
3.44118e-09
-6.98594e-09
-1.92734e-09
5.4721e-09
-4.68564e-11
3.18099e-09
1.63645e-10
-3.29778e-09
5.88502e-09
4.70341e-11
9.0199e-11
-3.64898e-11
-4.38525e-09
-1.53217e-09
4.73384e-09
1.18359e-09
-8.66666e-10
2.69095e-09
5.83075e-10
-2.40736e-09
-4.25853e-09
-1.87404e-10
4.49381e-10
3.99655e-09
-3.77314e-09
3.97735e-09
3.88465e-09
-4.08886e-09
1.95676e-09
-2.24301e-10
-2.60731e-09
8.74855e-10
-2.58936e-09
1.52709e-09
-1.74546e-09
2.80773e-09
4.28689e-09
2.40169e-09
-5.37917e-09
-1.22786e-09
-2.26829e-09
3.05496e-09
4.41189e-10
7.15619e-10
-3.62403e-09
2.76928e-09
1.39125e-10
-5.31696e-09
1.07291e-10
8.59484e-10
4.35019e-09
-3.12577e-09
3.56848e-09
4.50568e-10
-8.93281e-10
1.58826e-09
-1.4363e-09
-2.30191e-09
2.14995e-09
3.01273e-09
-3.31129e-09
3.873e-10
-8.8738e-11
1.79653e-09
-2.18061e-09
4.23621e-09
-3.85213e-09
-1.65489e-09
7.18645e-10
-3.04108e-10
1.24036e-09
-1.85336e-09
2.0908e-09
2.51571e-10
-3.24113e-10
2.92777e-10
-2.20235e-10
-8.54865e-11
1.02287e-09
-2.7982e-09
1.86082e-09
3.19721e-10
-2.18419e-09
2.31601e-09
-1.61999e-10
2.8935e-10
-2.76461e-10
1.49111e-10
-2.12766e-09
-1.43292e-09
2.08213e-09
1.47845e-09
2.09286e-10
7.49944e-10
-1.43569e-10
-8.15661e-10
3.43255e-09
-5.17639e-09
2.42205e-09
-6.78203e-10
-8.71515e-10
1.4169e-09
-3.24108e-09
2.6957e-09
2.04578e-09
-3.18844e-09
-4.36486e-10
-2.93982e-12
4.47994e-12
-9.23422e-11
9.08021e-11
1.65795e-09
-8.0835e-10
1.08825e-09
-1.65865e-09
-2.60725e-09
1.07542e-09
-3.17489e-09
3.12144e-09
-2.45376e-11
7.79856e-11
7.06096e-11
-6.30587e-11
3.87646e-09
-3.88401e-09
6.92603e-12
1.39824e-10
-3.58674e-12
-1.43163e-10
2.1177e-10
-2.40469e-10
-1.97313e-09
-1.8389e-09
2.01076e-09
-3.28915e-09
3.66091e-09
-4.1449e-09
2.18516e-09
8.05935e-10
-3.43882e-09
4.47727e-10
3.01961e-09
-1.20909e-09
-2.51224e-09
-4.53966e-09
-1.07637e-09
9.73022e-10
-3.53426e-09
-1.92208e-09
3.43243e-09
2.02392e-09
3.13616e-09
-3.13576e-09
2.58844e-11
-2.62768e-11
5.38755e-10
7.55796e-09
-1.99718e-09
-6.09953e-09
-3.48426e-09
1.12587e-10
3.41144e-09
-3.97634e-11
-2.35677e-09
-2.84734e-09
2.88647e-09
2.31765e-09
3.34229e-09
-2.93538e-09
-1.47987e-09
-2.05344e-09
1.63289e-09
-1.0932e-09
1.51375e-09
-1.87736e-10
-2.16998e-09
2.35772e-09
3.51871e-09
-2.3484e-09
1.65914e-09
-6.17691e-09
3.6007e-09
9.17078e-10
4.04844e-12
5.45847e-12
-9.50691e-12
2.81237e-09
-3.83639e-09
-1.97359e-09
-2.08165e-09
-1.19567e-09
2.39954e-09
8.77778e-10
-1.09281e-09
9.82964e-10
-3.75619e-10
4.85465e-10
2.24424e-10
-4.15412e-09
4.07974e-09
-1.50049e-10
8.86692e-10
-5.42899e-10
3.31127e-09
-2.38843e-09
-3.15087e-09
2.517e-10
-2.81652e-10
-3.5526e-11
-3.64145e-09
3.61522e-09
6.17505e-11
2.48449e-10
-3.32934e-09
-1.95486e-10
3.27637e-09
1.7929e-09
-2.33571e-09
2.08286e-09
-1.54005e-09
2.18303e-09
-3.44565e-09
1.51427e-09
-2.5165e-10
1.60857e-09
9.23122e-10
-3.16498e-10
-2.2152e-09
2.51802e-09
8.09453e-11
-1.77505e-10
-2.5051e-09
2.47679e-09
-6.8792e-10
5.50352e-10
-4.86107e-10
6.23675e-10
6.70883e-10
-1.73811e-09
1.82517e-09
-7.57935e-10
-4.0212e-09
4.08743e-09
1.06746e-10
1.8476e-09
-1.79779e-09
1.82341e-09
-3.6094e-09
-1.27343e-09
3.05942e-09
-4.5294e-09
8.61518e-11
-1.8234e-10
4.62559e-09
1.12316e-11
-8.28997e-11
-7.63395e-10
5.48035e-09
1.37788e-10
-4.85474e-09
3.23639e-10
-3.50106e-10
2.68856e-10
-2.42389e-10
3.46724e-11
-1.65307e-11
-3.54086e-11
4.47578e-11
6.1186e-10
3.49145e-09
-5.0141e-09
9.65821e-10
5.56829e-10
-1.5998e-09
1.98241e-09
1.50981e-09
1.89247e-11
-3.29214e-11
2.74464e-09
-2.46164e-09
-3.07188e-09
2.78888e-09
7.50629e-10
3.44189e-10
-1.95674e-10
2.2301e-09
-2.85223e-10
-3.92622e-09
1.98134e-09
2.38876e-10
-2.64811e-10
3.01848e-10
4.29045e-09
-4.11237e-10
4.42046e-12
-1.14641e-11
-2.98007e-11
3.68443e-11
-4.09035e-09
5.07152e-09
-3.33794e-09
8.44266e-11
-3.96585e-09
3.99675e-09
-2.17912e-09
2.04815e-09
-3.60017e-09
3.73115e-09
1.411e-10
-2.93391e-09
1.49834e-11
2.77783e-09
-1.45176e-10
3.87399e-09
-3.88373e-09
1.54916e-10
-2.88436e-09
3.806e-09
2.79343e-11
-9.49572e-10
-1.18398e-09
3.01372e-09
7.57366e-10
-2.5871e-09
3.85203e-09
-3.85069e-09
2.61842e-11
-2.75228e-11
4.09107e-09
-3.21334e-09
-1.37204e-09
2.04256e-09
-9.65884e-11
-1.86142e-09
-8.45476e-11
2.36735e-09
-1.30278e-09
-2.74446e-09
2.73042e-09
2.45322e-11
-1.04949e-11
3.23057e-09
-3.2453e-09
4.12687e-11
-2.65394e-11
-4.36584e-10
-1.29805e-09
6.41827e-10
-1.94163e-09
2.95015e-09
-3.12647e-09
1.82549e-11
3.1099e-09
-1.68323e-12
2.24289e-10
-2.43316e-10
-5.8122e-10
5.58479e-10
-5.87887e-10
5.70625e-10
-7.21113e-10
7.38374e-10
3.10267e-09
-3.09753e-09
2.09767e-11
-2.61125e-11
3.13976e-09
6.50722e-11
-4.51991e-11
-3.15963e-09
3.6878e-09
3.44723e-09
-3.11092e-09
-4.02411e-09
-2.83267e-09
3.39308e-09
-2.21643e-09
3.26375e-09
-3.23715e-09
-3.11149e-11
4.51437e-12
2.61083e-09
5.16995e-09
2.91891e-10
1.51727e-09
1.98262e-09
-1.07825e-09
-2.88059e-09
2.8239e-09
1.03559e-10
-4.68661e-11
-2.70153e-09
3.70396e-10
2.84762e-09
-2.62533e-09
-1.53133e-09
-6.31578e-11
2.06645e-09
-2.0033e-09
2.08581e-10
-2.49768e-10
3.61667e-11
-6.4206e-11
-4.09571e-09
-1.2098e-09
2.25512e-09
-1.73211e-09
2.03396e-09
3.22559e-09
-3.1942e-09
-4.23831e-11
1.09975e-11
5.43175e-10
-5.70068e-09
5.55368e-09
-3.96181e-10
-1.93367e-09
-5.60005e-10
9.118e-10
-3.49571e-09
9.2812e-10
2.86015e-09
7.22087e-10
-1.07572e-09
-1.69981e-09
-2.32036e-10
-2.214e-09
2.31085e-09
1.35187e-10
-4.57914e-09
-2.03514e-10
4.66938e-09
1.13283e-10
-5.36954e-09
-4.42703e-10
5.24615e-09
5.6609e-10
3.18021e-09
-3.16145e-09
-2.94953e-11
1.07375e-11
2.77175e-09
-4.16973e-11
-2.75598e-09
2.59249e-11
7.48807e-12
-4.06307e-09
-2.4964e-11
4.08054e-09
4.53474e-11
-4.49619e-11
1.1736e-12
-1.55908e-12
-1.13533e-10
5.39687e-11
3.95747e-09
-4.00773e-09
-3.32236e-10
5.74183e-10
3.76713e-09
4.51321e-09
-5.04105e-09
-3.23928e-09
6.06745e-11
-7.17784e-11
5.08348e-10
1.12712e-09
1.70711e-09
-1.37049e-09
-1.46374e-09
1.8329e-10
-2.08425e-10
3.16255e-09
-3.16895e-09
-4.48409e-12
1.08839e-11
4.73113e-11
1.43929e-10
-3.02572e-09
2.83448e-09
-1.68851e-09
-2.53216e-09
3.11928e-09
1.1014e-09
1.25613e-10
2.51606e-09
1.20483e-10
-2.76216e-09
-3.18548e-09
-9.01504e-10
4.02465e-09
6.2328e-11
-5.84094e-09
6.19671e-09
-1.11917e-09
1.07532e-09
-1.23244e-09
-2.33888e-09
2.49599e-09
7.21089e-11
-3.846e-11
2.5425e-11
-2.81632e-11
1.2989e-10
-1.27151e-10
3.14657e-09
-3.10436e-09
-6.62191e-11
2.40134e-11
-6.72036e-12
-1.88753e-09
1.89425e-09
5.99709e-11
-5.584e-11
3.85837e-09
-3.8625e-09
1.44501e-09
3.01547e-09
-4.10764e-09
-3.52843e-10
-5.3231e-11
-2.42961e-09
4.83989e-11
2.43444e-09
-6.6095e-11
1.51893e-11
-2.37524e-11
7.46581e-11
3.0465e-09
-3.0088e-09
-5.84649e-11
2.07589e-11
3.71584e-09
-1.78347e-09
8.30253e-12
1.65387e-10
-1.86649e-10
-2.98728e-09
3.09567e-09
1.61373e-11
-1.24526e-10
-3.47126e-09
3.85433e-09
-7.63989e-10
3.80917e-10
3.98152e-09
4.98116e-09
-5.19556e-09
2.96711e-09
-2.95463e-09
-1.1343e-11
-1.13409e-12
1.70534e-10
-3.38443e-09
3.28555e-09
-2.98265e-09
-6.8587e-11
-5.78002e-11
3.10903e-09
2.39155e-09
2.18182e-11
-6.61534e-09
4.20197e-09
-3.21427e-09
-7.56399e-11
3.33621e-09
-4.6295e-11
7.88248e-09
-6.57808e-09
-1.3044e-09
7.79195e-10
-5.04195e-09
5.59078e-09
-4.04921e-09
2.5611e-09
-1.97806e-09
-2.51015e-09
2.23216e-09
2.25604e-09
-4.26647e-09
-4.92978e-09
3.67756e-09
-3.0114e-09
2.88516e-09
1.33499e-09
-1.48715e-09
4.6969e-10
-3.1753e-10
-1.93434e-09
2.40679e-09
-4.72453e-10
1.3287e-09
-4.21638e-09
-4.98348e-10
1.80115e-09
-1.96401e-10
-1.28834e-09
3.058e-09
-3.05462e-09
2.16676e-11
-2.50533e-11
7.46411e-11
-8.40736e-11
1.55612e-11
-6.12867e-12
1.44549e-10
-1.54799e-10
-3.93543e-09
6.50984e-11
3.95927e-09
4.97612e-09
-4.94564e-09
-8.40993e-11
5.36201e-11
1.85391e-09
-1.87756e-09
-2.85623e-09
2.64984e-09
-1.36257e-10
3.42653e-10
1.2192e-09
-1.14293e-09
-5.4128e-09
5.33653e-09
3.87241e-09
-3.83717e-09
2.10064e-11
-5.62486e-11
-2.41987e-09
2.32034e-09
2.59312e-09
-5.36046e-09
1.39516e-09
3.96569e-09
-3.95066e-13
-6.01877e-11
6.27e-11
-4.56561e-12
2.05326e-12
-3.12298e-10
1.73709e-10
-1.82243e-10
1.01798e-10
-3.54983e-09
3.4746e-09
-2.65664e-11
-4.44869e-09
4.57795e-09
-2.33656e-10
1.04395e-10
-4.56654e-09
2.23773e-10
4.16066e-09
1.82099e-10
-1.37286e-09
-1.31521e-09
9.68044e-10
1.72002e-09
-3.21719e-09
1.27742e-09
-1.24968e-09
1.518e-10
-2.29358e-10
-4.36645e-09
3.84214e-09
-9.9547e-10
1.51978e-09
1.80852e-09
-1.73288e-09
2.662e-09
-2.73765e-09
-3.43773e-11
3.11977e-09
-3.08816e-09
3.03135e-09
-2.28238e-11
7.96254e-11
-3.17996e-11
-3.57501e-09
3.54696e-09
5.9843e-11
-3.74394e-09
3.04117e-09
3.45921e-09
-2.75644e-09
3.26862e-11
-1.4802e-11
4.68267e-09
-4.68148e-09
-1.18252e-11
1.064e-11
3.05425e-09
2.51564e-10
-3.26351e-09
-4.23064e-11
-1.98411e-09
2.75971e-11
1.95651e-09
-2.65278e-09
2.48546e-09
-1.81679e-09
4.02645e-11
-2.62322e-10
-2.36334e-09
2.01651e-09
1.12648e-09
-7.79649e-10
-9.97977e-11
-3.84478e-09
1.95213e-10
3.74937e-09
2.94857e-09
-4.73584e-09
2.82747e-09
-1.04021e-09
-3.30739e-09
2.37908e-09
-1.04974e-09
1.56748e-09
-1.56122e-09
-1.94701e-09
1.94074e-09
-2.38312e-09
-1.84202e-09
2.25201e-09
-8.40211e-11
1.68796e-10
-3.26412e-09
3.17934e-09
2.44504e-09
2.27398e-09
-1.38633e-09
-8.10457e-11
1.35125e-10
-4.58348e-09
-1.71818e-10
-3.37347e-09
6.10229e-11
-2.21131e-10
-3.57671e-09
4.30571e-10
1.61529e-09
-2.32553e-09
-3.0337e-09
1.94872e-09
-2.94068e-09
2.53659e-09
-1.54464e-09
1.10427e-11
-4.55779e-11
-1.11162e-09
4.57628e-10
-1.96733e-09
2.62133e-09
-5.59919e-09
9.31865e-10
-8.11322e-10
3.57639e-09
-7.40274e-11
-2.69104e-09
3.49805e-09
-1.33947e-09
4.90394e-10
-2.64897e-09
-2.33653e-11
-9.41426e-11
-4.92385e-12
1.22432e-10
-2.09707e-09
-1.44064e-09
1.41004e-09
3.09189e-09
-3.1151e-09
2.23091e-11
9.0088e-13
4.69889e-09
-1.03017e-12
-1.5197e-11
1.05331e-08
-2.73776e-09
-7.25659e-09
1.0223e-09
1.37335e-09
-9.47202e-10
-4.13722e-09
2.08644e-09
-1.15728e-09
3.20806e-09
-6.07777e-09
1.3213e-09
5.79954e-09
-1.04306e-09
2.83669e-09
-1.19391e-09
2.75064e-10
-1.91785e-09
-2.11362e-11
4.36071e-09
-4.42062e-09
4.68505e-09
1.87761e-11
-4.93083e-12
-4.6355e-09
-5.63113e-11
1.03298e-11
3.00771e-09
6.14062e-12
6.5905e-12
-3.02044e-09
-2.6149e-09
1.62691e-10
-5.13127e-10
2.96533e-09
2.91103e-09
-1.9333e-09
1.46732e-09
-3.49513e-09
6.32288e-10
-1.7755e-11
1.14049e-10
-1.25236e-10
1.83757e-11
-7.18892e-12
-3.88704e-09
-2.30832e-10
5.7171e-10
3.54616e-09
-8.07624e-10
9.12784e-10
-7.13861e-11
8.88548e-11
-4.65297e-09
-1.20671e-10
6.16866e-12
-1.57707e-11
1.30273e-10