/*--------------------------------*- C++ -*----------------------------------*\
  =========                 |
  \\      /  F ield         | OpenFOAM: The Open Source CFD Toolbox
   \\    /   O peration     | Website:  https://openfoam.org
    \\  /    A nd           | Version:  8
     \\/     M anipulation  |
\*---------------------------------------------------------------------------*/
FoamFile
{
    version     2.0;
    format      ascii;
    class       volVectorField;
    location    "7.4";
    object      U;
}
// * * * * * * * * * * * * * * * * * * * * * * * * * * * * * * * * * * * * * //

dimensions      [0 1 -1 0 0 0 0];

internalField   nonuniform List<vector> 
17372
(
(0.000643922 0.00111558 1.24855e-21)
(7.88974e-05 0.000242605 4.51375e-21)
(0.000629222 0.00110198 1.33446e-23)
(0.000570107 0.00102452 1.6991e-21)
(0.000110011 2.58082e-05 -2.65634e-22)
(6.74143e-05 0.000251167 -2.08727e-21)
(0.000625956 0.00107164 1.10141e-22)
(0.000253884 0.000542388 -5.04307e-22)
(0.000631275 0.00110197 -2.29308e-22)
(0.000471778 0.000631647 5.33752e-22)
(0.000602145 0.000973099 -1.23014e-21)
(0.000131268 0.00018511 1.09203e-21)
(0.0011983 6.46885e-05 1.50838e-21)
(0.000953622 8.73933e-05 1.13656e-21)
(0.000621757 0.00107744 -1.20862e-22)
(0.000224164 0.000431956 -5.86632e-22)
(0.000129354 0.000175527 -1.66507e-21)
(0.000398433 0.000189691 1.15612e-21)
(0.000981923 5.29194e-05 4.49994e-25)
(0.000191599 0.000596081 0)
(0.000619116 0.00107671 -5.64317e-23)
(0.000569977 0.00108689 -1.63996e-22)
(0.000645924 0.00111801 -1.62908e-21)
(0.000209503 0.0005906 -3.47115e-21)
(0.000424706 0.000126942 -3.20537e-21)
(0.000617717 0.00107734 5.66492e-23)
(0.000645386 0.001118 4.6639e-24)
(0.000586494 0.000993414 4.57239e-22)
(0.00100683 6.4194e-05 8.86938e-22)
(0.000645606 0.00111816 -8.25111e-22)
(0.000638414 0.0011046 -2.4027e-22)
(8.98913e-05 8.84804e-05 1.46994e-21)
(0.000645824 0.00111811 -6.06631e-24)
(0.000617319 0.00107797 -2.6606e-22)
(0.000168834 0.000716414 5.75435e-22)
(0.000500751 0.000873783 -5.15379e-24)
(0.000618095 0.00107742 0)
(0.000261609 0.000176831 -3.21446e-23)
(0.00052943 0.000923443 3.13332e-22)
(0.000460651 0.000852478 3.9259e-23)
(0.000645269 0.00111782 5.2016e-24)
(0.000585166 0.00104535 2.75457e-22)
(0.000607951 0.00105709 3.66338e-22)
(0.000655184 0.000581008 2.97151e-23)
(0.000501799 0.000869404 0)
(0.00064609 0.00111798 8.00036e-22)
(4.55178e-05 0.000200331 4.28303e-22)
(0.000278617 0.000482572 -1.00563e-22)
(0.000618389 0.00107794 -1.90923e-22)
(0.000517998 0.000883877 4.9312e-22)
(3.26066e-05 0.000261497 1.03653e-21)
(0.000621901 0.00107414 3.37172e-22)
(0.000520807 0.000885934 -5.71584e-24)
(0.000637961 0.00111035 8.4273e-22)
(0.000409589 0.000182951 -9.25231e-22)
(0.000219634 0.000122898 -2.92678e-22)
(0.000616963 0.0010761 -2.19708e-22)
(0.000541777 0.00101081 1.88156e-23)
(0.000638905 0.00110181 -2.68016e-22)
(0.000219716 0.000507152 -8.47765e-22)
(0.000502757 0.000871615 1.08175e-23)
(0.000465068 0.000566364 -4.34436e-22)
(0.000645682 0.00111818 8.17264e-22)
(0.000625523 0.00106371 6.79666e-22)
(0.000587664 0.000956085 -5.15904e-24)
(0.000210065 0.000511664 1.04781e-21)
(0.000497865 0.000871537 -2.88041e-22)
(0.000479961 0.000891736 -5.27082e-23)
(0.000418187 0.00122016 -2.05635e-24)
(0.000272035 0.000196952 2.22035e-22)
(0.000709487 0.00040768 0)
(0.000268791 0.00047098 1.93666e-22)
(0.000721854 0.00124818 -3.42118e-22)
(0.000507794 0.000873435 1.02037e-21)
(0.000548434 0.000926426 -1.04936e-21)
(0.000595098 0.00102672 -1.1137e-21)
(0.000566171 0.000977095 -3.72262e-22)
(0.00060705 0.00106487 0)
(0.000538668 0.00116566 5.11813e-22)
(0.000529129 0.000984928 -2.78995e-21)
(1.03139e-05 0.000231106 0)
(0.000484614 0.000863555 3.62475e-22)
(0.000536944 0.000920208 -8.43524e-22)
(0.000113087 3.353e-05 -1.41618e-21)
(9.36297e-06 0.000238446 -1.3517e-22)
(0.000615357 0.00108533 0)
(0.000515583 0.000880708 -1.00612e-21)
(0.000559625 0.000982478 -9.90391e-25)
(0.000619873 0.00107847 1.71791e-22)
(1.10297e-05 0.000426372 0)
(0.000706684 0.00128499 -8.04505e-23)
(0.000615912 0.00108376 6.98351e-23)
(0.000464504 0.000487557 0)
(0.000582702 -4.27812e-05 -9.95697e-22)
(5.63191e-06 0.00050201 -6.84439e-22)
(0.000645353 0.00111751 9.09815e-22)
(0.000986751 -2.96281e-05 0)
(4.60515e-05 0.000192624 1.97438e-22)
(0.000417366 0.000168172 -1.01687e-21)
(0.000238306 0.000557623 3.01289e-25)
(0.000868361 0.000269717 -5.83516e-22)
(0.000500974 0.00086455 8.53709e-22)
(0.000266883 0.000186652 -1.26853e-22)
(0.000153734 0.000346633 -1.11232e-21)
(0.000637654 0.00109835 0)
(0.00061721 0.00107958 7.52261e-24)
(0.000647256 0.00110449 1.6892e-24)
(0.00096153 0.000859765 -4.48201e-21)
(0.000126244 0.000123338 0)
(0.000504373 0.000870347 -1.52574e-21)
(0.000733401 0.00150361 0)
(0.000298573 0.000301156 1.08208e-21)
(0.000507085 0.000874789 8.88865e-22)
(0.000518357 0.000888709 -9.58286e-22)
(0.000619469 0.00108206 0)
(0.000488636 0.000850676 -1.07432e-22)
(0.000509838 0.00087956 -9.09376e-22)
(0.00061477 0.00107913 -1.60179e-22)
(0.000634109 0.00115411 0)
(0.000512662 0.000884132 0)
(0.000634973 0.0011017 2.40162e-22)
(0.000515312 0.000887857 -2.32244e-22)
(0.000637713 0.00110032 2.61401e-22)
(0.000525684 0.000930586 1.17413e-22)
(0.000279146 0.000207446 -1.31005e-22)
(0.000637179 0.00109739 2.74957e-22)
(0.000611164 0.00105193 7.96488e-22)
(0.000493249 0.000507898 3.773e-22)
(6.75786e-05 -9.005e-06 -6.84182e-22)
(0.000517709 0.000889258 -4.69988e-22)
(0.000635333 0.00109363 -3.01408e-22)
(0.000607669 0.00104733 0)
(0.000645451 0.00111812 8.44496e-22)
(0.000518187 0.000885853 4.86626e-22)
(0.000614922 0.00105828 2.54024e-22)
(0.000483792 0.000520899 5.11616e-22)
(0.000531176 0.000981557 -6.02355e-22)
(0.00061758 0.00106345 -2.34385e-22)
(0.000593496 0.00128417 -6.31744e-22)
(0.000134675 0.000139383 -8.86322e-22)
(0.000498331 0.00060163 9.30069e-22)
(0.000620508 0.00106816 2.25555e-22)
(0.000626327 0.00107907 0)
(0.000632536 0.00108867 -3.24379e-22)
(4.38347e-05 0.000483752 8.9177e-23)
(0.000626287 0.00107939 0)
(0.000628614 0.00108129 5.23314e-24)
(0.000976738 4.81868e-05 -8.55455e-22)
(0.000675356 0.00064519 -8.73757e-22)
(0.000571459 0.00102986 -1.78814e-24)
(0.000319615 0.000561394 -1.06268e-22)
(0.000522464 0.000896945 -8.71502e-22)
(0.000575331 0.00129447 -5.34246e-24)
(0.000722219 0.00124837 3.0991e-22)
(2.39672e-05 0.000344426 8.21297e-22)
(0.000539654 0.000929723 3.71572e-22)
(0.00104464 0.00105212 7.07403e-22)
(8.27072e-05 1.89655e-05 -5.01396e-23)
(8.19124e-05 0.000512727 -1.87869e-21)
(0.000498838 0.000859813 1.05517e-21)
(0.000635302 0.00109409 -6.31269e-22)
(0.000127874 0.00014099 -4.6257e-22)
(0.000587962 0.00101794 7.54698e-22)
(0.000603405 0.000123911 2.19149e-21)
(0.000645655 0.00111705 4.76274e-24)
(0.000689104 0.000515756 8.66885e-22)
(0.000604823 0.00103839 -1.34067e-21)
(0.000643991 0.000239995 -1.05571e-21)
(0.000323391 0.000563943 2.09246e-22)
(0.000502671 0.000862149 -5.69536e-22)
(0.000357572 0.000898208 -5.61061e-23)
(0.000496937 0.000866223 1.58805e-22)
(0.000526439 0.000925883 2.02395e-21)
(0.000281377 0.000319413 1.06976e-21)
(0.000605749 0.00104491 -1.16393e-21)
(0.000504922 0.000886861 4.18808e-22)
(0.000582615 0.000974642 -1.94345e-22)
(0.000187724 0.000584855 1.04281e-21)
(0.000485537 0.000572064 2.70855e-22)
(0.000135193 0.000154656 -6.00065e-23)
(0.000171981 0.000712456 1.15108e-21)
(0.000582077 0.00100306 1.51064e-21)
(7.43569e-06 0.000411141 0)
(0.000242767 0.000454701 5.33682e-23)
(0.000520261 0.000896457 -4.45521e-22)
(0.000639425 0.00109929 -4.79005e-24)
(0.000637081 0.00117432 -5.75579e-23)
(5.71987e-05 0.000143561 3.04151e-22)
(0.00042428 0.00119937 -2.16934e-23)
(4.36814e-05 3.35709e-05 3.84873e-22)
(0.000500677 0.000916677 6.57822e-23)
(0.000302314 0.000563728 -7.51455e-22)
(0.00054024 0.00096081 -2.63458e-22)
(0.000252043 0.000434433 0)
(0.000516312 0.000888239 1.41769e-21)
(5.48422e-05 0.000121163 0)
(0.000457592 0.000906403 0)
(0.000674379 0.00118943 1.5341e-22)
(0.000235035 0.000248647 -5.79976e-22)
(0.001168 0.000821465 0)
(4.82741e-05 0.00011965 -4.12186e-22)
(0.00043689 0.000629859 -7.12559e-23)
(0.000425884 -1.56252e-05 -1.96935e-25)
(0.000540064 0.000945747 -6.09309e-22)
(0.000431832 0.000783476 -1.27355e-23)
(9.66554e-05 2.38493e-05 1.05204e-21)
(0.000579108 0.00101393 0)
(0.000819895 0.000399266 1.5215e-22)
(0.000617546 0.00107895 -5.68324e-24)
(0.000629122 0.0010849 3.54222e-22)
(0.000557864 0.000959643 -8.71999e-22)
(0.000645274 0.00111796 8.6494e-22)
(0.00057725 0.00098603 -2.35238e-21)
(0.000564434 0.000971318 8.34975e-22)
(5.89787e-05 0.00016213 0)
(0.000542383 0.000935289 0)
(0.000552464 0.000964701 1.13965e-21)
(0.000538228 0.000958719 2.09105e-21)
(0.000881401 0.000250254 5.98114e-22)
(0.000597614 0.00116262 -7.53769e-23)
(0.000558842 0.000949475 -4.55513e-22)
(0.000200172 0.000525685 0)
(5.79329e-05 0.000132028 1.0282e-22)
(0.000958507 0.000137893 -3.14341e-21)
(0.000632168 0.00108865 -3.38776e-22)
(0.000407143 -6.01345e-06 2.6563e-21)
(0.000633751 0.00110416 3.8698e-23)
(0.000278113 0.000758109 3.25804e-21)
(-0.000462372 0.000372498 -1.54203e-23)
(0.000498249 0.000857912 0)
(0.00025635 0.000167233 2.69729e-22)
(0.000602073 0.00104681 1.13698e-21)
(0.000470798 0.000458674 -1.53601e-21)
(0.000694729 0.00125841 1.17686e-21)
(0.000695089 0.00124845 2.4036e-21)
(0.000973647 5.0665e-05 1.28925e-22)
(0.000390737 0.000528361 -8.45408e-22)
(0.000262689 0.000475895 0)
(0.000364025 0.00110235 6.45135e-24)
(0.000492145 0.000871306 -6.38923e-22)
(0.000623184 0.00107095 -4.22747e-22)
(0.000581655 0.0010258 9.51711e-22)
(8.71622e-05 2.05633e-05 0)
(0.00043949 0.000228906 1.12348e-21)
(0.000875393 0.000488216 1.08782e-21)
(0.000646462 0.00111666 0)
(0.000951057 9.03022e-05 -9.49799e-22)
(0.000521907 0.000892241 -4.7627e-22)
(0.000454443 0.000819746 2.98055e-23)
(6.62196e-05 1.34042e-05 -2.06638e-22)
(7.47001e-05 -1.45362e-06 2.52326e-21)
(0.000537122 0.000929274 -5.99808e-22)
(0.000396207 0.00110569 8.74681e-25)
(0.00061552 0.00108885 1.77495e-22)
(7.39718e-05 1.56113e-05 1.40035e-21)
(0.000530736 0.000923323 -5.7023e-25)
(0.0006003 0.00103919 9.37098e-22)
(3.90242e-05 0.000210382 -2.46716e-22)
(0.000583766 0.000973413 -2.1319e-22)
(0.000623313 0.000150696 1.07302e-22)
(0.000730806 0.0013418 8.40166e-23)
(0.000592446 0.00105316 -4.1938e-24)
(0.000602774 0.000113834 -1.25616e-21)
(0.00039181 -1.6664e-06 -3.33519e-21)
(6.54854e-05 -4.2433e-06 1.00809e-21)
(0.000185116 0.000142007 -4.7578e-22)
(0.000761707 0.00129973 -9.46126e-22)
(0.000367239 0.000272358 3.68231e-21)
(0.000622846 0.00112003 0)
(4.74492e-05 0.000104094 -4.99167e-22)
(0.000455153 0.000819172 -1.56096e-21)
(0.000647592 0.00111637 -5.31645e-24)
(6.50285e-05 0.000504836 5.4006e-21)
(0.00112569 -0.000179451 -2.20138e-22)
(0.000644944 8.71777e-05 0)
(0.000494705 0.000885865 0)
(0.000513712 0.000885285 -6.95136e-22)
(0.00104763 -1.19758e-05 -4.39148e-22)
(0.000585237 2.5997e-06 8.25359e-22)
(0.000397639 0.000540368 2.35603e-22)
(0.000635049 8.0776e-05 0)
(6.31323e-05 6.36869e-05 -1.88553e-21)
(0.000459213 0.00106412 0)
(4.38069e-05 9.37468e-05 7.69324e-22)
(0.000645245 0.00111771 -8.85054e-22)
(0.00143767 0.00114857 -2.30952e-21)
(0.000572839 0.000999105 0)
(0.000489217 0.000836875 -1.20752e-24)
(0.000491707 0.000846838 0)
(0.000344564 0.000439278 0)
(0.000230226 0.000406588 0)
(0.00085591 0.000556016 -8.59122e-22)
(0.000496283 0.000855097 -6.05389e-22)
(0.000351312 0.000594763 -1.21265e-22)
(0.000333312 0.000490615 2.34829e-21)
(0.000570763 0.000970285 -1.80161e-22)
(0.000472135 0.000847779 7.34167e-22)
(0.00089109 0.000170052 2.29033e-25)
(0.00049355 0.00117117 6.78729e-22)
(0.000597863 0.00106278 -1.8101e-24)
(0.000626506 0.00123274 -4.46227e-24)
(4.0393e-05 8.41237e-05 8.51441e-22)
(0.000614979 0.00107136 -1.87982e-22)
(4.60995e-05 0.000114155 4.33152e-22)
(4.92352e-05 -2.80576e-06 1.1341e-21)
(0.000671148 0.000608955 -2.66271e-22)
(0.000697774 0.00117274 -1.07349e-21)
(0.000575876 0.000956175 0)
(0.000211112 0.000391894 0)
(0.000330586 0.000264523 1.15031e-21)
(0.000595046 0.00107711 4.23866e-24)
(0.000967037 0.000100892 4.41913e-21)
(0.000573009 0.000981431 8.16567e-22)
(3.70127e-05 7.51159e-05 5.83148e-23)
(0.000331331 0.000555158 -1.03794e-21)
(0.000183601 0.000582636 7.92176e-22)
(0.000650889 0.00111638 -1.01103e-21)
(0.000208033 0.000335895 -3.84378e-23)
(0.000460599 -8.83444e-05 -2.14195e-21)
(0.000617355 0.00107981 -1.43696e-22)
(9.56248e-05 0.000961302 -1.15297e-22)
(0.000874719 0.000375521 0)
(0.000628219 0.00108243 0)
(0.00109311 4.53012e-05 1.17859e-22)
(0.000627123 0.00109914 0)
(0.000184165 8.33702e-05 6.35565e-22)
(1.81093e-05 0.000490808 0)
(3.38923e-05 6.72887e-05 4.77873e-23)
(0.000424238 0.000316321 6.96718e-22)
(0.000517314 0.000920957 0)
(0.000622429 0.0010737 0)
(0.000900932 0.000780139 -1.01468e-23)
(0.000176676 0.000112404 3.47993e-22)
(0.000560528 0.000966167 -8.18707e-23)
(0.000626172 0.00108203 -7.95768e-22)
(0.000595413 0.00102602 0)
(3.08374e-05 5.97263e-05 -4.08203e-22)
(0.00072037 0.00124684 3.69804e-22)
(0.000634508 0.00108503 -3.9113e-22)
(0.000465881 3.27741e-05 0)
(0.00063968 0.00110444 3.91346e-22)
(0.000260769 0.000336687 2.78671e-21)
(0.000513797 0.00073177 -1.20433e-21)
(0.00060517 0.00103759 1.25137e-21)
(0.000607132 0.00111988 -5.72608e-23)
(0.00052078 0.000914405 -3.80201e-22)
(5.8728e-05 5.20578e-05 -4.7491e-22)
(0.000581738 0.00109774 4.18167e-23)
(0.000632085 0.00111976 -3.95919e-22)
(0.000438608 0.000803766 1.26188e-21)
(2.82359e-05 5.32021e-05 4.18514e-22)
(7.48557e-05 0.000605756 -4.12881e-22)
(5.93322e-05 0.000139049 -1.06529e-21)
(0.00059518 0.0010788 -1.07873e-22)
(0.000625683 0.00107316 -3.66565e-22)
(6.65966e-05 1.67953e-05 -8.08631e-22)
(0.000190352 0.000591893 1.49775e-21)
(0.000585136 0.00102057 -9.52086e-22)
(2.58926e-05 4.7157e-05 -4.08785e-22)
(0.000607307 0.00104264 -2.7277e-22)
(0.000313561 0.000284654 1.45169e-21)
(2.30229e-05 4.05639e-05 5.86833e-22)
(0.000636722 0.00109078 3.74876e-22)
(0.000619175 0.00106407 0)
(0.000618012 0.00106428 -2.79052e-22)
(2.16195e-05 3.63165e-05 -9.61319e-23)
(4.29557e-05 -8.29507e-06 2.01954e-22)
(0.000515304 0.00061984 -7.2824e-22)
(0.000614697 0.00105847 -3.22891e-22)
(0.00103968 -1.26488e-05 4.72493e-22)
(0.000485269 0.000862898 -8.86771e-22)
(0.000181643 0.000128612 -1.05184e-21)
(0.000170264 0.000117344 1.11613e-22)
(0.00097707 0.000146959 0)
(0.000749272 0.000876898 0)
(1.97423e-05 3.2102e-05 -1.92389e-22)
(0.000505186 0.0009055 -1.14213e-22)
(0.00064709 0.00122099 -9.94875e-24)
(0.000750995 1.96015e-05 -1.21102e-22)
(5.77973e-05 -3.7076e-06 0)
(5.6234e-05 0.000125954 7.65809e-22)
(0.000492735 0.000846837 -9.86549e-22)
(0.000201056 0.000586904 0)
(0.000511032 0.000881157 0)
(1.68418e-05 1.33097e-06 4.95976e-22)
(0.000540758 0.000497092 -1.603e-21)
(0.000614031 0.00106868 5.16814e-22)
(0.00051296 0.000880215 -5.74751e-24)
(0.000384722 0.00051976 -8.79591e-25)
(0.000679324 0.000539972 -1.47835e-24)
(0.000217262 0.000488291 5.44729e-22)
(0.00010617 5.93269e-05 -6.46875e-26)
(0.000645414 0.00111732 1.30435e-23)
(0.00125896 0.00111641 1.52979e-21)
(0.000123128 4.08522e-05 1.93845e-21)
(0.000654498 0.00141724 4.11906e-24)
(-6.27563e-05 0.00100594 2.90697e-24)
(2.61603e-06 -4.16583e-06 0)
(5.23632e-05 -2.94114e-06 -1.68131e-21)
(0.000459906 -0.000185876 -1.88637e-21)
(0.000598476 0.00102009 3.46104e-22)
(0.000890405 -0.000317609 0)
(0.00043941 0.000438739 1.01644e-21)
(0.0006531 0.00112084 0)
(0.000719551 0.00124504 0)
(0.000574981 0.000971505 1.90486e-22)
(0.000868178 0.000356598 -1.3031e-21)
(0.000394063 0.000847806 0)
(0.000130776 0.000191274 0)
(0.000688488 0.00125157 -1.15751e-21)
(8.65958e-05 2.56324e-05 -1.02993e-22)
(5.44585e-05 0.00100019 -1.14657e-21)
(0.000454135 0.00123068 -1.36061e-23)
(0.000519547 0.000897809 8.88529e-22)
(0.000627789 0.00108232 -3.92882e-22)
(7.42865e-05 -1.11971e-05 0)
(0.000652719 0.00111674 -2.05714e-21)
(0.000110347 7.11594e-05 9.28913e-22)
(0.000480758 0.000907318 -2.30276e-21)
(0.000613001 0.00108618 5.52518e-22)
(0.000564033 0.000275034 1.2955e-21)
(0.00103736 -3.50559e-06 -1.63569e-21)
(0.000541267 0.000938429 -4.36722e-22)
(0.00106138 -3.42319e-06 4.59621e-22)
(0.000629855 0.00108056 3.57305e-22)
(0.000463169 0.00102751 9.12392e-22)
(5.31495e-05 0.000435319 1.54079e-21)
(0.00070922 0.00125049 -2.53352e-22)
(0.00112975 0.000667173 -7.36254e-22)
(0.00022931 0.000649568 6.37697e-22)
(0.000652834 0.000550795 1.48062e-21)
(0.000659685 0.00122671 0)
(0.000491705 0.000879823 -1.98843e-22)
(0.000672628 0.00106838 -1.43566e-23)
(0.000715776 0.00124541 1.81431e-22)
(0.000833919 0.000665032 2.43723e-21)
(0.00023313 0.000497682 0)
(0.000535522 0.000925052 0)
(0.000947409 -1.41591e-05 -1.21686e-21)
(0.000241861 0.000133002 -1.51486e-21)
(0.000487432 0.000588612 -7.28028e-22)
(4.60314e-05 4.2123e-05 -4.54255e-23)
(5.17523e-05 0.000724184 1.37682e-21)
(0.000355575 0.000272987 1.21575e-21)
(4.38395e-05 -4.74058e-06 0)
(0.000133584 0.000524552 1.11798e-21)
(0.000122007 7.57905e-05 1.74758e-21)
(0.000503895 0.00109357 -1.30328e-23)
(0.000588365 0.00103022 -2.88575e-23)
(5.43242e-05 0.000489459 4.75978e-22)
(1.35018e-05 -1.29043e-06 -3.85028e-22)
(0.000375647 2.36698e-06 0)
(0.000627531 0.00107474 -2.30399e-22)
(0.000561652 0.000961077 -1.7117e-22)
(0.000637538 0.00111945 2.72737e-24)
(2.46896e-05 4.7024e-07 0)
(4.59229e-05 9.91941e-05 -7.02037e-22)
(0.000266957 0.000531087 2.11179e-21)
(0.0011129 0.000603093 -2.14086e-24)
(0.000556934 0.000731385 -1.73629e-21)
(0.000217508 0.000488269 0)
(0.000747931 0.00126469 1.81652e-22)
(0.000783335 0.000416124 0)
(0.000590506 0.00101397 0)
(0.000490511 0.00126608 2.60435e-23)
(0.000541063 0.000947375 -6.51575e-22)
(0.000930824 0.000146765 2.02147e-21)
(0.000579615 0.000991326 7.37138e-22)
(0.000177213 0.00026183 -1.79868e-22)
(0.000329699 0.000572659 -7.47819e-22)
(0.000625249 0.00107364 1.83637e-22)
(0.000463549 0.00108703 1.00964e-21)
(3.8605e-07 -1.06293e-06 -2.12091e-22)
(0.000646204 0.000224975 -5.06194e-22)
(0.000110438 0.000538343 3.48291e-22)
(6.15638e-05 -0.000192919 0)
(0.000616118 0.00114632 1.37503e-22)
(0.00011336 7.85127e-05 -2.18431e-21)
(0.000624552 0.00107127 1.20796e-22)
(4.2015e-05 8.88217e-05 -5.33704e-23)
(0.000582762 0.00101451 9.91348e-24)
(0.000606635 0.00101897 6.68054e-22)
(0.000300473 0.000579182 -1.03488e-21)
(0.000520582 0.000911973 8.16809e-24)
(0.000362524 0.000403314 2.24735e-21)
(8.44936e-06 0.000441857 -4.89043e-22)
(0.000617825 0.00107795 -2.0331e-22)
(9.85084e-05 9.59902e-05 -1.06133e-21)
(0.000348966 4.94158e-05 -1.05919e-21)
(0.000610382 0.00112865 1.07248e-22)
(0.000284306 0.000492345 -1.90111e-21)
(0.000214213 0.000757027 0)
(0.000704361 0.00126092 2.59488e-22)
(0.000626412 0.0010787 0)
(0.000588674 0.0010857 4.65022e-23)
(5.09555e-05 4.48622e-05 0)
(0.000508159 0.000876416 0)
(9.52956e-05 3.10342e-05 0)
(0.000653334 0.000265463 0)
(0.000433166 0.000556552 1.85172e-23)
(0.000645953 0.00111682 0)
(0.000604691 0.0010855 0)
(8.47764e-05 9.57856e-05 1.77227e-21)
(0.00046871 -0.000268179 2.08545e-21)
(3.87204e-05 7.95385e-05 -8.4135e-22)
(0.000639486 0.00114621 -2.29939e-22)
(1.37766e-06 7.43973e-06 0)
(0.000921564 0.000144312 -1.8992e-21)
(0.000624882 0.00112544 0)
(0.000696341 0.000347122 1.23387e-21)
(0.000498492 0.000846839 0)
(0.000671409 0.00117548 9.55104e-22)
(0.000528025 0.000899253 1.06226e-21)
(0.000364278 0.000530719 -2.79643e-21)
(0.000645032 0.00109514 -1.46645e-21)
(0.000641518 0.00118132 -6.85918e-23)
(-0.000411246 0.000444305 -3.11396e-21)
(0.000651938 0.00113825 -6.12497e-22)
(0.000529903 0.000914614 1.33933e-21)
(0.000560435 0.000971458 -9.67073e-22)
(7.06872e-05 -0.000209841 3.77343e-22)
(0.000802368 0.000404411 -1.46063e-22)
(0.000518159 0.000896976 0)
(3.62e-05 7.08575e-05 9.85776e-23)
(0.000305719 0.000291843 -3.46025e-21)
(0.000104001 0.00010256 1.6625e-24)
(0.000586138 0.00100834 3.81874e-22)
(0.000538227 0.000919353 0)
(0.000756703 -0.000253969 -1.04204e-21)
(0.000526825 0.00059464 6.83909e-22)
(0.000563037 0.000971598 1.97474e-21)
(0.000678398 0.0015423 -6.32416e-24)
(0.000590129 0.00012975 9.40508e-22)
(0.000536612 0.000926093 -1.36967e-21)
(0.000544369 0.000959858 -3.76514e-23)
(0.000580679 0.00100446 -8.03557e-23)
(0.000298778 0.0005559 8.25025e-22)
(3.2497e-05 6.34119e-05 -9.92094e-23)
(0.000567522 0.000976062 -4.4517e-24)
(0.000863048 0.000339217 9.43668e-22)
(0.000300055 0.000541364 2.06992e-22)
(0.000560978 0.000966702 0)
(0.000981436 7.20941e-05 -4.47768e-22)
(0.000177585 0.000407482 2.08914e-22)
(0.000828036 0.000585833 1.44129e-21)
(0.000174341 0.000251946 -7.14049e-22)
(3.16001e-05 0.000402317 -8.61479e-22)
(0.000900002 9.08712e-05 7.00297e-23)
(0.000984229 0.000161811 5.11686e-22)
(0.000557966 0.000962049 6.85313e-24)
(0.000530199 0.000913867 0)
(2.96611e-05 0.000814006 4.42834e-22)
(7.80537e-06 2.02908e-06 9.19334e-22)
(0.000600223 0.00107669 0)
(0.000652419 0.00112365 0)
(0.000963961 8.37691e-05 -9.83088e-22)
(7.44701e-05 2.00805e-05 -2.9208e-21)
(0.000199736 0.000251012 3.96678e-22)
(2.94971e-05 5.6403e-05 -2.6282e-23)
(0.000556575 0.000960886 -1.09123e-24)
(0.000511077 0.000864166 2.72932e-22)
(0.000620123 0.0010686 0)
(0.000532952 0.000860597 4.92455e-22)
(0.000509535 0.000883445 -2.42925e-22)
(0.000592861 0.00114119 3.9566e-23)
(0.000554928 0.000461471 -2.08413e-21)
(0.000563869 0.000962425 5.88958e-24)
(2.16011e-05 -1.52814e-06 -1.75548e-21)
(0.000555451 0.000956947 -1.63052e-21)
(0.000293567 0.000512119 -6.82041e-26)
(0.000640744 0.00111915 -1.00644e-22)
(0.000620458 0.00110883 9.65665e-22)
(0.00032604 0.000461814 -1.58657e-21)
(2.35971e-06 1.50037e-05 -5.82989e-23)
(0.00054947 0.000947789 5.75746e-22)
(0.000543651 0.000866444 8.31385e-22)
(2.70175e-05 5.01548e-05 4.25635e-22)
(0.000535685 0.000931593 -9.11598e-22)
(0.000558351 0.000975625 6.50305e-24)
(0.000956605 8.10413e-05 2.87806e-21)
(0.000545889 0.000942087 6.0136e-22)
(0.000597951 0.0010218 5.67655e-22)
(0.000512173 0.00086564 6.75223e-22)
(0.00136639 0.000404393 0)
(0.000506553 0.000878579 1.12862e-21)
(0.00179091 0.000232272 0)
(0.000872784 0.000729863 -1.26911e-21)
(0.000628375 0.00107483 2.74993e-22)
(0.000185522 0.000535031 -4.71201e-21)
(0.0014096 0.000986422 6.66174e-22)
(0.000521795 0.000914086 -2.45762e-21)
(0.0002036 0.00015696 2.13495e-21)
(0.000393149 8.96676e-06 0)
(0.000291214 0.000715475 5.96987e-24)
(3.48861e-05 0.000367431 0)
(0.000582086 0.00100231 -7.91833e-22)
(1.44825e-06 -1.35512e-05 8.61979e-22)
(2.45825e-05 4.48949e-05 2.0986e-22)
(0.000633222 0.00112318 1.5607e-22)
(0.000768725 0.00139671 5.45103e-23)
(0.000294214 0.000493656 -9.42692e-22)
(0.000489438 0.000852074 6.82001e-22)
(0.00102457 -0.00012441 -2.34558e-22)
(0.000641065 0.00109586 0)
(0.000695906 0.000883305 1.70191e-21)
(0.00102363 -2.26618e-06 6.95312e-22)
(1.63474e-06 -8.67436e-06 -5.03953e-22)
(4.8109e-05 -5.24351e-06 -1.74335e-21)
(0.000522734 0.00090848 0)
(0.000714979 0.0012598 5.19071e-22)
(0.000694065 0.0012772 -3.84015e-24)
(0.000293794 0.000224963 1.20784e-21)
(0.000142277 0.000688228 -2.54304e-22)
(2.28581e-05 3.81401e-05 0)
(0.000885124 0.000125562 -4.80864e-22)
(0.000610549 0.000299681 -1.42505e-21)
(0.000558637 0.000968218 -9.77234e-22)
(0.000554805 0.000950699 -4.91048e-22)
(0.000579178 0.00100812 9.30981e-22)
(0.000660453 0.00117611 -7.64811e-24)
(0.000505478 0.000871978 -2.19404e-22)
(0.000780862 0.0013716 1.1474e-21)
(0.0005423 0.000936885 1.28137e-22)
(0.000207125 0.000561096 0)
(0.000464993 0.000725646 0)
(0.000519762 0.0009108 0)
(0.000270317 0.00039812 0)
(0.000593191 0.00103317 -3.53731e-22)
(0.000823021 8.82374e-05 -9.51968e-26)
(0.0001819 0.000525632 2.04694e-21)
(0.000468443 0.000191296 -2.11834e-25)
(0.000275585 0.000521312 6.09508e-22)
(0.00046108 0.00086812 3.93722e-26)
(0.000566648 -4.01142e-05 2.81285e-21)
(0.000708736 0.00125948 -1.45808e-22)
(0.000540607 0.000946205 6.55578e-22)
(0.000546778 0.00048561 1.41388e-21)
(0.000660289 0.00117008 0)
(0.000193768 0.000603793 0)
(0.000619759 0.0010672 -6.92533e-22)
(0.000448528 0.000493509 -2.02643e-21)
(0.00102084 -0.000113408 -2.26479e-22)
(0.000473199 -0.000411676 -3.0976e-24)
(0.000629036 0.0011164 0)
(2.35016e-05 9.41082e-07 -3.82724e-22)
(0.000130078 0.000514615 5.69798e-22)
(0.000517439 0.000896202 8.13088e-22)
(0.000783151 0.00137168 0)
(0.000474344 0.00134879 -2.45475e-23)
(0.000228952 0.000256193 5.68731e-22)
(0.000350061 0.00126948 -6.62994e-22)
(0.00101651 -5.12996e-05 4.73316e-22)
(0.000385021 0.000588046 0)
(0.000711061 0.00125592 1.50344e-22)
(0.000785042 0.00137102 0)
(0.000778115 0.00137033 1.11016e-21)
(0.000495426 0.000861818 1.21704e-21)
(0.000309287 0.000532522 1.00514e-21)
(0.000554632 -2.8964e-05 3.49005e-21)
(0.000550371 0.00094268 1.19974e-21)
(1.52295e-06 -2.08051e-05 -6.83713e-24)
(0.000260095 0.000729996 0)
(0.000288703 0.000310069 1.087e-21)
(0.000773791 0.00136811 -1.05785e-21)
(2.28196e-06 2.54966e-05 -1.84612e-21)
(0.000186964 0.000604048 -3.20886e-25)
(0.000578267 0.000997123 -1.23201e-21)
(0.000449347 0.0013153 0)
(0.000602067 0.00104158 -9.2597e-22)
(0.000622362 0.00106327 4.70194e-22)
(0.000521726 0.000912331 5.62098e-24)
(0.000622309 0.00107311 1.21387e-22)
(0.000558383 0.000398448 8.22618e-22)
(0.00046022 0.000924538 -7.85915e-22)
(0.000345682 0.00026835 -3.03759e-21)
(0.000530178 0.000916456 1.99771e-21)
(1.61338e-06 -2.49511e-05 -8.62912e-22)
(0.000620509 0.00108264 6.8829e-23)
(0.000780138 0.000581163 -2.0001e-21)
(0.000717136 0.00124613 -5.09786e-24)
(0.000535695 0.000907714 -2.02429e-22)
(0.000534238 0.000945896 2.83325e-22)
(1.48824e-06 -1.70465e-05 0)
(0.000595459 0.00102952 3.08384e-22)
(0.000522885 0.000922302 3.11556e-22)
(0.000986746 0.000122398 -1.967e-21)
(0.000569759 0.000121928 -2.34183e-23)
(0.000670546 0.00117704 0)
(0.000336022 0.00105736 -1.32793e-23)
(0.000559848 0.00098978 4.89521e-22)
(0.000590404 0.00108574 0)
(0.000649041 0.00111624 9.89502e-22)
(0.000786686 0.00137006 -1.14481e-21)
(5.95194e-05 -6.63743e-07 -1.59094e-21)
(0.000143799 0.00038994 -1.39715e-21)
(0.000522047 0.00114328 6.0074e-24)
(1.14454e-05 5.54794e-05 -1.01333e-21)
(0.000370451 0.000225897 1.16278e-25)
(0.000646951 0.00115589 2.19968e-22)
(1.38286e-06 -1.02528e-05 7.24979e-22)
(0.000623791 0.00107119 0)
(0.000245256 0.00081913 0)
(1.79771e-06 -3.18174e-05 1.7615e-21)
(0.000985653 4.39839e-05 -2.14087e-22)
(0.000221243 0.0007856 1.75362e-23)
(0.000566189 0.000951304 -6.01907e-24)
(0.000393771 0.000136197 9.70328e-22)
(0.000823007 0.000856929 0)
(0.000716672 0.00124837 0)
(0.000471622 0.000823335 0)
(0.000718435 0.00124721 7.20129e-24)
(0.000242195 0.000407143 6.40297e-22)
(0.000788189 0.00136893 1.0708e-23)
(5.36229e-05 -5.06329e-07 0)
(0.00056205 0.000966635 0)
(0.000637704 0.00109147 5.15642e-22)
(0.000619645 0.00145211 -3.85597e-23)
(0.000454446 0.000998865 -1.95594e-21)
(0.000638127 0.00112167 -2.25387e-22)
(2.13453e-06 -3.99704e-05 8.89248e-22)
(0.000486384 0.000866395 4.22504e-22)
(0.000520753 0.000907536 0)
(0.000844008 0.000113749 -1.6036e-21)
(0.000375713 0.000644621 1.77673e-21)
(0.000627138 0.00105918 -4.12275e-22)
(0.000642603 0.00111886 -1.16385e-22)
(7.77081e-05 7.00102e-05 -8.85549e-22)
(0.000406961 0.000139038 0)
(0.000318936 0.00113852 -1.69933e-21)
(-0.000349522 0.00105681 -2.42621e-21)
(0.00030636 0.000488026 1.61697e-21)
(0.000647535 0.00113024 8.93653e-22)
(0.000723327 0.00125028 -1.08364e-21)
(0.000496762 0.000840383 -2.47523e-22)
(2.44091e-06 -4.96559e-05 -1.77028e-21)
(3.11486e-05 0.00038246 0)
(0.000695906 0.0012698 0)
(0.000291811 0.000487251 -1.11689e-23)
(6.77446e-05 6.14214e-05 -3.54022e-23)
(0.000577316 0.000994417 -4.24287e-22)
(0.000530902 0.000917536 -1.34711e-21)
(0.000220233 0.000500051 0)
(1.13517e-05 0.000328566 0)
(2.77393e-06 -5.73015e-05 7.12207e-24)
(0.000557551 0.000964859 -1.16705e-21)
(7.46758e-05 6.65744e-05 0)
(0.000176258 8.13702e-05 4.23672e-22)
(0.00099944 0.000114817 0)
(0.000158906 0.000272131 -2.29818e-21)
(0.000530088 0.000914106 -5.39113e-22)
(0.000617192 0.00106256 -2.43474e-22)
(6.73264e-05 6.57387e-05 0)
(0.000540485 0.000929514 -6.28284e-22)
(0.000262146 0.000421021 0)
(0.000183683 0.000586505 1.03391e-21)
(3.23062e-06 -6.59767e-05 8.96518e-22)
(0.000365585 0.000573244 1.41822e-21)
(0.000782757 0.00136666 1.17009e-21)
(0.000335957 4.21048e-05 -1.82906e-26)
(0.000405213 -0.000548805 0)
(0.000563813 0.000975626 0)
(0.000724426 0.00125026 6.23918e-22)
(0.000110609 0.000393875 0)
(0.000600925 0.0010459 -6.30908e-22)
(9.0158e-05 0.000393138 9.63884e-22)
(0.000695458 0.00126272 -1.02632e-22)
(0.000606352 0.00105006 -3.17021e-22)
(0.000571283 0.00100086 -6.82113e-23)
(0.000531985 0.000918483 -5.91804e-22)
(0.000615118 0.00104885 2.0522e-21)
(0.000616857 0.000684971 1.4578e-21)
(4.02371e-06 -8.15114e-05 0)
(0.000773309 0.00130694 -1.70131e-21)
(0.000558025 0.00059807 1.45577e-21)
(0.000494327 0.000890344 -3.87831e-22)
(9.92623e-05 0.000421494 6.51037e-23)
(0.000502515 0.000867315 -8.62352e-22)
(0.000409827 0.000323657 0)
(0.000654637 0.00117864 1.07978e-22)
(0.000567566 0.000964918 -7.15745e-23)
(7.44747e-05 5.85055e-05 -5.46068e-22)
(0.000496609 0.000833799 -5.31382e-22)
(0.000606108 0.00104907 1.17184e-21)
(0.000575631 0.00100193 9.22551e-22)
(0.000367484 0.00041287 0)
(0.000688164 0.00122655 1.28764e-21)
(2.33017e-05 -1.5013e-06 -5.89835e-23)
(0.00055617 0.000952829 0)
(0.000217216 0.000265693 -3.52833e-25)
(0.000780171 0.00138181 0)
(0.000778767 0.00130556 8.41233e-22)
(0.000648356 0.00112372 5.60929e-22)
(0.000235936 0.000440137 -1.91451e-21)
(0.000515157 0.000893501 -4.99377e-24)
(2.43245e-05 -0.000155099 -8.93569e-22)
(0.000526598 0.000496011 8.67497e-22)
(0.000477213 0.00083636 5.21555e-24)
(0.000146385 0.000398939 9.71736e-22)
(0.000536551 0.000911904 2.27267e-22)
(0.000277954 0.000389741 -2.00393e-21)
(1.70204e-05 -0.000114538 1.76977e-21)
(0.00135116 9.41726e-05 2.74795e-22)
(0.000780946 0.00138439 -5.72652e-24)
(2.02334e-05 -0.000132964 0)
(0.00033352 0.000502502 -1.03188e-21)
(0.000997578 0.00040935 1.35175e-22)
(0.000601966 0.000817859 -1.43408e-21)
(0.0012185 0.000377113 -5.58803e-22)
(0.000421557 0.00125097 8.71658e-22)
(0.000484263 0.000869026 -4.8954e-22)