/*--------------------------------*- C++ -*----------------------------------*\
  =========                 |
  \\      /  F ield         | OpenFOAM: The Open Source CFD Toolbox
   \\    /   O peration     | Website:  https://openfoam.org
    \\  /    A nd           | Version:  7
     \\/     M anipulation  |
\*---------------------------------------------------------------------------*/
FoamFile
{
    version     2.0;
    format      ascii;
    class       volVectorField;
    location    "67";
    object      U;
}
// * * * * * * * * * * * * * * * * * * * * * * * * * * * * * * * * * * * * * //

dimensions      [0 1 -1 0 0 0 0];

internalField   nonuniform List<vector> 
591
(
(0.000828308 -2.5486e-05 1.218e-18)
(0.000817123 -2.32542e-05 -6.63993e-19)
(0.000857209 -9.51325e-06 5.68713e-20)
(0.000858007 -9.67337e-06 -1.49121e-19)
(0.000841688 3.75547e-06 2.25595e-19)
(0.000802068 -4.08607e-05 -1.39629e-19)
(0.000559245 -0.000297135 8.06453e-19)
(0.000802972 4.10756e-06 2.08225e-18)
(0.00573465 0.00250051 9.87754e-19)
(0.000798775 -1.3277e-05 2.45481e-18)
(4.94962e-05 0.000169874 1.21831e-18)
(0.000929564 0.00137688 9.40768e-21)
(0.000798955 5.21561e-06 1.32531e-18)
(0.00160085 0.00238999 -7.87627e-19)
(0.000803295 2.7417e-06 -4.43603e-19)
(6.69647e-05 -0.000204053 2.40754e-22)
(0.00013648 0.000677246 7.0498e-19)
(0.000818841 6.40339e-05 -4.92028e-19)
(0.00192965 0.00039272 4.737e-19)
(0.00135793 0.000254025 -2.47117e-19)
(0.000833401 -4.47789e-06 3.72587e-19)
(0.0034001 0.00655935 -8.15412e-20)
(2.76599e-05 7.0242e-05 2.70954e-19)
(0.000834961 -1.47331e-05 -4.5098e-19)
(1.14411e-05 -1.61977e-05 3.58943e-19)
(0.000772244 3.26261e-05 0)
(9.30424e-05 0.000474547 1.59968e-19)
(0.000543098 1.16026e-05 -1.78849e-19)
(0.000753658 4.7977e-05 1.14957e-18)
(0.000811928 4.86585e-05 5.91128e-19)
(5.77968e-05 -3.5992e-06 -4.49369e-24)
(3.29715e-05 -4.65949e-05 3.52191e-19)
(3.68211e-05 -3.1123e-06 -4.64244e-20)
(4.5639e-05 -1.18593e-05 0)
(5.47929e-05 -1.32247e-05 1.13151e-18)
(0.00117455 0.000131457 1.79929e-19)
(3.14127e-05 -5.42514e-06 4.47163e-20)
(0.000826682 5.56226e-06 3.05139e-23)
(2.74469e-05 4.38966e-05 2.66039e-19)
(1.54168e-05 -0.000102437 -8.54852e-19)
(0.000634484 -0.000204098 9.60196e-19)
(2.52483e-05 -6.81393e-06 4.54843e-20)
(0.00080101 1.32078e-06 -1.58086e-18)
(0.000830463 4.14175e-05 -6.91186e-19)
(1.72498e-05 -8.00953e-06 0)
(5.519e-05 7.05048e-06 8.51902e-20)
(0.0013455 0.00450242 8.9297e-19)
(7.63269e-05 1.62702e-05 8.63653e-20)
(0.000800251 1.67758e-05 0)
(0.00038186 -0.000204571 6.77603e-19)
(0.000381141 0.000273776 5.11924e-21)
(0.00039363 5.01247e-05 -1.00383e-18)
(0.00634839 0.0109418 -7.68279e-19)
(0.00622519 0.0107971 1.52757e-20)
(0.0056146 0.0103801 1.4555e-18)
(0.000809315 2.76721e-05 0)
(6.72798e-05 3.11989e-05 0)
(0.000317601 1.49834e-05 1.45841e-23)
(6.32575e-05 1.06859e-05 -3.4647e-19)
(0.000815318 -8.13448e-06 0)
(0.000635751 2.88077e-05 3.17579e-19)
(0.000833053 8.54016e-06 2.20822e-18)
(0.000798971 2.8579e-05 -5.41899e-19)
(0.000799353 1.53068e-05 -3.15762e-19)
(0.00171202 0.000482974 5.42561e-19)
(0.000797834 1.35242e-05 -1.15448e-18)
(0.000827605 1.82568e-05 -5.24248e-19)
(8.1147e-05 -2.26922e-06 -1.73418e-19)
(0.000688955 0.00226298 0)
(0.000835571 3.67853e-05 0)
(0.000777351 1.62874e-05 -1.39207e-18)
(3.8261e-05 1.61609e-05 0)
(0.00028831 0.000270804 3.2685e-19)
(4.06876e-05 -1.74101e-05 0)
(4.19114e-05 -5.93243e-06 1.59478e-19)
(1.62177e-05 -4.50178e-05 -3.36685e-20)
(0.000789519 7.61613e-05 2.46934e-19)
(4.4517e-05 1.08193e-05 0)
(0.000799727 5.65296e-05 4.47399e-19)
(0.000770999 0.000293637 2.10734e-19)
(0.00096464 6.22415e-05 -3.97945e-20)
(4.31587e-05 2.32322e-05 -4.51878e-20)
(5.71454e-06 -2.35773e-05 0)
(0.00043286 0.000216977 1.70189e-19)
(2.85488e-06 2.3015e-05 0)
(0.000790066 3.68078e-05 -6.07112e-19)
(0.000606165 -0.000120622 0)
(6.51759e-05 -1.5078e-06 -1.74485e-19)
(3.38891e-06 -3.23158e-05 0)
(0.00082713 0.000242086 -3.41277e-19)
(3.8125e-06 -1.40507e-05 0)
(0.000422773 0.000323436 -1.29951e-23)
(0.000528941 0.000112175 0)
(0.000805605 4.53188e-05 -3.27926e-24)
(2.73528e-06 1.46222e-05 -4.21728e-20)
(0.000453386 -1.22783e-05 1.76361e-18)
(0.00102354 7.22197e-05 4.16047e-20)
(0.000837109 4.44013e-05 6.41123e-22)
(0.000737872 0.000657623 2.69505e-19)
(6.68501e-06 4.9209e-05 0)
(6.9167e-07 -4.91451e-05 -3.11998e-19)
(-1.92938e-05 -8.77234e-05 -1.1006e-18)
(4.04039e-06 7.84459e-05 -5.96332e-19)
(0.00062452 -2.00654e-05 0)
(8.09839e-06 0.000103305 0)
(0.000809369 2.42123e-05 2.18435e-18)
(0.000786495 2.35205e-05 1.53369e-18)
(0.000424096 -7.85893e-05 0)
(4.27861e-05 0.000218876 -8.95413e-19)
(-3.50574e-07 0.000170093 4.96643e-19)
(6.23962e-05 0.000412687 6.2513e-19)
(0.000304976 8.36689e-05 -9.37143e-19)
(0.000802991 1.99749e-05 1.37341e-19)
(0.000261487 -4.03139e-05 5.31242e-19)
(4.17419e-06 3.28325e-05 0)
(2.22707e-05 0.000287578 -1.0939e-18)
(0.000319904 0.000324201 -1.61706e-19)
(1.76996e-06 -3.99475e-05 1.46504e-19)
(0.000670247 0.000813504 0)
(0.00036774 0.000388175 5.74422e-20)
(0.00081499 1.47702e-05 1.07029e-18)
(0.000799284 1.47261e-06 -2.71703e-18)
(6.11794e-06 -4.65075e-05 0)
(0.000676071 -3.24764e-05 -1.12321e-19)
(0.000320664 -0.000111087 1.24328e-18)
(0.0026464 0.000805738 -3.36211e-19)
(5.39815e-06 0.000133581 -6.13144e-19)
(4.38096e-06 0.00016296 1.6193e-18)
(0.000713998 2.20555e-05 -3.89925e-20)
(6.36331e-05 -1.3342e-05 -7.50193e-19)
(0.000805572 2.8047e-05 -3.87839e-19)
(0.000762553 2.61945e-05 -4.10423e-20)
(3.75707e-05 0.000333631 -5.96894e-19)
(0.000485314 6.70424e-05 -4.93946e-19)
(4.87948e-05 -3.29818e-06 1.56159e-19)
(0.00083223 2.76857e-05 -1.09532e-18)
(0.00156337 0.000238111 -1.13702e-18)
(4.16204e-06 6.30643e-05 4.96409e-19)
(0.000809249 2.70925e-05 -4.95232e-19)
(0.000909894 0.000542665 -7.85124e-20)
(0.000144765 0.000792333 0)
(0.000580672 6.49435e-05 0)
(0.000275299 5.40816e-05 -1.60972e-18)
(6.32586e-05 5.85349e-05 -1.37414e-18)
(3.08019e-05 2.05746e-05 0)
(0.00424703 0.00740005 -1.01933e-20)
(0.00422546 0.00737195 3.16284e-20)
(0.00442768 0.00757473 -4.95274e-21)
(0.00420672 0.00773533 0)
(0.00419909 0.00760114 5.77047e-19)
(0.00424424 0.00740138 -9.19503e-20)
(0.00421042 0.00804308 4.8429e-19)
(0.00428929 0.00742186 0)
(0.00420864 0.00853632 6.16555e-19)
(0.00432567 0.00745025 2.23821e-19)
(0.000822795 5.8381e-06 -1.37374e-18)
(0.000768298 5.31134e-05 0)
(0.000213846 5.31919e-05 1.27698e-19)
(5.03171e-05 1.58133e-05 8.71875e-20)
(7.77878e-05 4.47278e-05 6.80041e-19)
(0.000105555 4.11023e-05 -3.4168e-19)
(9.99043e-05 5.32179e-06 0)
(4.81542e-05 4.87371e-06 8.18403e-20)
(0.000206039 0.00013289 0)
(0.000165481 4.2315e-05 -5.24302e-20)
(0.000342965 0.000222699 -5.09265e-21)
(5.57611e-05 4.28658e-05 -4.37669e-19)
(9.04101e-05 2.71772e-05 -8.525e-20)
(9.01682e-05 6.17175e-05 1.31199e-21)
(0.000255176 0.000366475 -6.66183e-19)
(0.000106844 0.00100379 0)
(4.19514e-05 5.25411e-05 3.43073e-19)
(0.000200757 0.00175207 0)
(0.000207599 0.000253603 7.04674e-19)
(3.78694e-05 -3.8059e-06 1.11499e-19)
(0.000482497 0.00016429 -1.72306e-19)
(0.00075996 2.42653e-05 -1.9242e-18)
(4.27152e-05 -1.23752e-06 4.42748e-24)
(0.000148096 2.44762e-05 2.24596e-19)
(0.000243847 9.26118e-05 -8.99355e-20)
(0.000881177 0.000705363 3.34947e-19)
(0.000720024 0.00163408 -9.23581e-21)
(0.000394584 0.00142417 -9.39456e-21)
(0.00102379 0.000548293 0)
(0.000102161 -1.55701e-05 1.11875e-18)
(0.000115561 1.55665e-05 -4.43162e-20)
(0.000453938 -0.00028755 -1.13607e-18)
(0.000813468 3.85034e-05 0)
(0.000181556 2.1501e-06 3.63311e-19)
(0.000300361 0.00131284 0)
(0.0010769 0.000773295 -7.30214e-20)
(0.000826349 3.37918e-05 -1.86548e-19)
(7.70766e-05 -2.12081e-05 -2.99992e-19)
(0.000827472 0.000319613 -2.08055e-20)
(5.67786e-05 -2.14244e-05 -5.99522e-19)
(0.000226281 0.000175546 8.63896e-20)
(0.000229523 0.000309171 -3.45018e-19)
(0.000884812 0.000247495 0)
(0.000814445 5.10786e-05 0)
(0.000263061 0.000136648 1.76851e-19)
(0.000233968 1.8079e-06 3.24371e-24)
(0.000184426 0.000206046 0)
(0.000294046 0.000653494 -5.55708e-21)
(0.000347057 -4.66976e-06 0)
(0.000370539 0.000600137 0)
(0.00010867 8.2188e-05 -1.34674e-21)
(0.000809861 2.74953e-05 -9.3949e-19)
(0.000808091 1.9744e-05 7.97274e-19)
(0.000128592 5.73449e-05 -1.49861e-19)
(0.000957605 0.000150339 8.50573e-20)
(0.000836327 4.3201e-05 3.33038e-19)
(0.000816213 2.66929e-05 -2.94337e-19)
(0.0010184 0.000413389 0)
(0.000437992 0.000119675 6.24457e-19)
(0.000897791 0.000320254 2.09146e-20)
(0.000576308 0.000156461 0)
(0.000271765 0.000447009 4.09647e-19)
(0.000261449 0.000217176 -8.44194e-20)
(0.00109512 0.000377801 -7.82157e-19)
(0.000622804 0.000105073 -1.79299e-19)
(0.000808762 7.29686e-05 -7.45184e-21)
(0.000839897 2.92204e-05 9.39556e-20)
(7.78764e-05 -8.75092e-05 -1.98145e-18)
(0.000738125 0.000381762 2.1924e-19)
(0.000667426 6.32223e-05 2.30636e-20)
(0.000706158 0.000279278 1.59976e-23)
(0.00072902 0.000459566 -4.09685e-19)
(0.000845158 2.99613e-05 9.06502e-20)
(7.18304e-05 7.98142e-05 0)
(0.000655464 0.000419409 -4.6592e-20)
(0.000183593 9.54235e-05 0)
(0.000374384 0.000501767 -2.64841e-19)
(0.000309801 0.000167912 0)
(0.000674142 0.000204221 3.55241e-19)
(0.000648758 0.00026016 -4.37267e-20)
(8.1402e-05 0.00010396 6.19176e-19)
(0.000875499 9.27636e-05 -1.62153e-18)
(5.76762e-05 2.19654e-05 2.572e-19)
(0.000885436 6.76888e-05 -1.68491e-18)
(0.000839399 8.81518e-05 1.63018e-19)
(0.000809256 3.22213e-05 1.89306e-18)
(0.000814521 3.26256e-05 -1.32845e-19)
(0.000735445 7.26416e-05 0)
(0.000806087 2.60561e-05 8.9565e-19)
(0.000958001 0.000230179 -4.2712e-19)
(0.000771767 9.29832e-05 -4.83729e-19)
(0.000778018 0.000231144 -8.81259e-20)
(0.000214091 -0.00016265 -2.07931e-18)
(0.000745399 8.06823e-05 8.87523e-19)
(0.000640058 0.0005961 0)
(9.10366e-05 -0.000115968 0)
(0.00121916 0.000471747 4.97247e-19)
(0.000631393 -6.17613e-05 -3.25793e-18)
(0.00134195 0.000418711 5.76397e-19)
(0.0012393 0.000717878 -6.38668e-20)
(0.000810734 3.04452e-05 -2.10985e-19)
(0.000834525 6.7299e-05 -1.42498e-18)
(0.000814458 2.52695e-05 1.57526e-18)
(0.000816828 2.80326e-05 9.78275e-20)
(0.000669215 0.000351894 -4.40414e-20)
(0.000101698 0.000123492 5.60341e-24)
(0.000749365 -4.10422e-05 2.65096e-19)
(0.000218194 -0.000258604 -7.32767e-19)
(0.000622109 0.000186583 0)
(0.000707412 4.41306e-05 9.90444e-20)
(0.000691854 1.00659e-05 -3.80827e-19)
(0.000388561 0.000171188 3.93371e-20)
(0.000805503 0.000505332 -1.65478e-19)
(0.000148944 7.56556e-05 3.11416e-25)
(0.000810871 0.000410898 0)
(0.000978429 0.000318754 4.15787e-20)
(0.000754711 -7.65788e-05 -6.16268e-19)
(0.000347583 0.00010586 4.97815e-19)
(0.000903515 0.00042515 0)
(4.92866e-05 3.13007e-05 1.33715e-19)
(0.000482689 0.000267961 2.13954e-19)
(0.000504304 -0.000148138 -7.09543e-19)
(0.000133976 -0.000159834 -1.05717e-18)
(0.000823431 3.1525e-05 -4.86859e-19)
(0.000777433 -8.92152e-05 -1.94285e-19)
(0.00054916 0.000728856 -1.17439e-18)
(0.000845947 4.67992e-05 -6.74219e-20)
(0.000635021 -2.35108e-05 1.2741e-18)
(0.000701081 9.95087e-05 2.27789e-20)
(0.000530343 0.00021007 -1.65687e-19)
(3.16036e-05 -2.18559e-05 -8.75863e-20)
(0.000168781 -4.3356e-05 2.40615e-18)
(1.86967e-05 7.40095e-07 -1.94843e-19)
(0.000825659 0.000111983 3.63759e-19)
(0.000661335 0.000136539 0)
(0.000187052 -8.46246e-05 -1.04815e-18)
(0.000121574 -1.7603e-05 3.1292e-19)
(0.000109477 -3.58717e-05 1.21819e-23)
(0.000796767 0.000106753 -3.19272e-19)
(0.00015328 -1.22767e-05 0)
(0.000583724 0.000242086 0)
(0.00011124 0.000330261 -3.62855e-19)
(0.000859182 0.00010032 2.09554e-18)
(1.5241e-05 1.13436e-06 0)
(0.000877317 5.27884e-05 0)
(4.39222e-05 -2.60253e-05 0)
(0.000815393 4.49163e-05 -4.46847e-21)
(0.000790459 -4.63739e-05 0)
(0.00425983 0.00740629 8.06654e-20)
(0.00436135 0.00748594 1.43274e-19)
(0.00084394 -5.00414e-06 0)
(0.000784758 -4.8702e-05 8.09959e-19)
(0.000152746 0.000125217 1.49211e-19)
(0.000851621 6.89316e-05 8.07631e-19)
(0.000130059 0.000101999 2.344e-20)
(0.000778072 -2.92699e-05 6.24478e-19)
(3.50433e-05 9.75763e-06 0)
(2.87133e-05 -1.37472e-05 -4.48492e-20)
(0.000894974 4.93939e-05 -4.8658e-19)
(3.37801e-05 -3.22731e-05 -6.69821e-19)
(0.000754893 0.000121117 -4.23254e-20)
(0.000168313 0.000162996 -1.88102e-19)
(0.000814336 2.69362e-05 0)
(0.00468255 0.00815355 8.99787e-22)
(0.000178651 0.000787324 3.33516e-19)
(0.000117918 -5.79598e-05 -9.1455e-19)
(6.15488e-05 -3.51412e-05 -1.16878e-18)
(0.000649687 1.4226e-05 1.89857e-20)
(0.000580386 0.000408759 0)
(0.000417537 0.000442267 -2.56334e-19)
(8.53606e-05 -5.96725e-05 1.18371e-18)
(0.000607653 6.33587e-07 7.70267e-20)
(4.22906e-05 1.92146e-06 4.07106e-19)
(0.000696931 -5.32791e-05 1.17168e-18)
(0.000810296 3.22841e-05 -5.9594e-19)
(6.6384e-05 -5.52561e-05 1.70931e-18)
(0.000842484 -2.2241e-05 -5.57118e-24)
(0.000626203 6.97796e-06 -3.76514e-20)
(0.00086592 6.87037e-05 0)
(0.00083741 3.82898e-05 0)
(0.00591708 0.00723915 2.59513e-19)
(1.95142e-05 -2.09988e-06 -1.19583e-19)
(0.000128973 -0.000100142 7.72989e-19)
(0.000722704 0.000118797 -6.96464e-19)
(2.2633e-05 -8.96731e-08 2.01512e-19)
(0.000617181 -3.46301e-05 -7.23844e-19)
(0.00074117 3.71188e-05 1.55811e-18)
(0.000702555 0.000159397 -3.55447e-19)
(0.00080768 -1.28618e-05 3.60533e-19)
(7.74211e-05 -3.36666e-05 1.11604e-18)
(0.000799337 7.21844e-06 -3.22704e-19)
(0.000865217 4.23354e-05 0)
(0.000539704 0.000303308 4.21025e-20)
(0.000855006 5.0598e-05 -9.46138e-19)
(2.00417e-05 2.26448e-06 9.11245e-19)
(0.000851314 4.66064e-05 9.65522e-19)
(0.000855553 6.48318e-06 -9.60197e-19)
(0.000746532 -1.75622e-06 -5.69202e-19)
(0.000517395 -7.04248e-05 -5.25665e-19)
(0.00432859 0.0074524 2.46905e-19)
(0.00422355 0.00752952 -2.53876e-19)
(0.00422149 0.0075877 2.6665e-19)
(0.00425575 0.00741053 1.97872e-19)
(0.000845043 -2.53836e-05 1.43989e-19)
(0.00447508 0.00751155 0)
(0.00440276 0.00751642 -3.86682e-19)
(3.08146e-05 -1.36903e-07 -9.98086e-19)
(0.00417053 0.00746941 -6.3338e-20)
(0.00414585 0.0074324 -2.21416e-19)
(0.00602996 0.0106067 0)
(0.0065405 0.0111876 3.71178e-20)
(0.00600992 0.0105764 0)
(0.0065562 0.0112112 1.30788e-19)
(0.0059973 0.0106004 2.69609e-19)
(0.00659285 0.011228 1.24495e-20)
(0.00593593 0.0106132 -7.76521e-19)
(0.00662309 0.0111469 8.13928e-21)
(0.00390375 0.00920058 -1.90831e-19)
(0.00418686 0.00748856 3.89862e-21)
(0.00423814 0.00755296 7.93257e-20)
(0.0041503 0.00743467 4.11851e-20)
(0.000875373 0.000190883 4.46759e-20)
(1.08324e-05 1.54655e-06 0)
(0.000698206 -0.000124675 0)
(0.000667727 4.93475e-05 0)
(0.00244428 0.00110859 4.24366e-21)
(0.000753588 -3.16234e-05 1.72591e-19)
(4.07895e-05 5.87838e-06 4.54069e-20)
(1.10755e-05 -2.78887e-05 1.6533e-18)
(0.000849084 1.54661e-05 0)
(2.81222e-05 1.28283e-05 -1.91733e-19)
(0.000140503 0.000224002 0)
(1.89717e-05 -1.05315e-06 0)
(1.54499e-05 -1.41186e-06 0)
(0.000820324 0.000137499 1.1371e-20)
(0.000810211 -1.65791e-05 1.79313e-19)
(3.61328e-05 0.000276804 -1.78207e-23)
(0.000158097 0.000273543 -1.84196e-18)
(0.000601163 0.000330056 -8.5702e-20)
(0.000896059 0.000110894 6.00294e-19)
(0.000665582 -0.000230648 6.72853e-19)
(0.000363547 0.00110893 0)
(0.000469094 0.000574743 2.71529e-18)
(9.08054e-05 0.000146839 -1.80311e-18)
(2.34893e-05 1.03932e-07 0)
(0.00082059 -5.59267e-05 3.63157e-20)
(1.67496e-05 3.68152e-05 1.64455e-18)
(0.000899699 3.13463e-05 2.71212e-19)
(-1.13735e-05 -7.61825e-06 3.80428e-18)
(0.000929953 3.96218e-05 -2.69064e-19)
(0.00135602 0.000151734 7.47264e-19)
(3.6127e-05 -1.08823e-05 8.25742e-20)
(3.74988e-05 4.0882e-06 -8.59093e-19)
(5.05804e-05 0.000143803 0)
(0.000907373 7.87739e-05 5.98584e-19)
(0.000492845 0.000368278 2.37149e-19)
(0.000673821 1.79314e-05 -3.89163e-20)
(0.000775654 -5.25164e-06 2.57173e-19)
(0.000736206 -0.000186973 0)
(0.00632156 0.0108968 -1.67999e-19)
(0.00637928 0.0109744 4.0568e-19)
(0.0061607 0.0107317 -6.18231e-19)
(0.00650157 0.011133 -8.09494e-20)
(3.50253e-05 0.000119811 8.00563e-19)
(0.000917 5.94897e-05 1.46329e-22)
(0.00641181 0.0110068 -3.86316e-19)
(0.00628254 0.0108466 5.4827e-19)
(0.00608083 0.0106735 -4.16684e-19)
(0.00652204 0.0111654 -6.81129e-20)
(8.08293e-05 0.000510493 -2.01821e-20)
(9.03451e-05 -0.00020352 -7.93654e-19)
(0.000680652 -2.05136e-05 -7.63576e-19)
(0.000722503 0.000220554 0)
(0.000799855 6.79705e-07 0)
(0.000185522 0.000391339 3.36305e-19)
(0.00059692 0.000517544 -5.41871e-19)
(1.07445e-05 -1.80094e-06 1.78405e-19)
(0.000201945 0.000466833 -7.3841e-19)
(0.00100635 0.000970396 -1.12682e-19)
(0.00074101 0.000166262 0)
(0.00078622 0.000182607 1.31028e-19)
(0.00635459 0.00587784 1.13124e-18)
(0.000740481 0.00112682 8.26555e-20)
(3.94228e-05 3.88418e-05 -7.44726e-20)
(0.000811551 1.62916e-05 0)
(0.000875155 2.62425e-05 -3.56933e-20)
(3.57248e-05 3.54261e-06 -1.96713e-19)
(3.08696e-05 4.96616e-06 1.93e-19)
(0.000832139 2.02731e-05 5.37262e-19)
(0.000969795 0.000108228 6.58472e-19)
(0.0005771 3.7819e-05 0)
(0.000222167 -0.000303788 -3.98041e-19)
(0.000913406 0.000148658 3.89627e-19)
(1.54005e-05 -6.402e-05 2.03129e-19)
(0.0014476 0.000441825 -2.58098e-18)
(0.00060711 -6.54834e-06 0)
(0.000789367 0.000144454 3.75494e-19)
(9.39635e-05 0.000397136 0)
(0.00118727 0.00816292 4.62152e-19)
(0.000487308 0.000500629 -1.22459e-18)
(0.000542365 0.00100432 -1.83758e-19)
(0.000879018 1.90687e-05 -1.4606e-19)
(1.37642e-05 2.60591e-05 0)
(0.000942029 7.69683e-05 6.11755e-19)
(0.00410631 0.00739536 8.13906e-20)
(0.00417142 0.00747393 4.72834e-20)
(0.00449874 0.00751425 4.53924e-19)
(0.00444413 0.00754055 -3.2903e-19)
(0.00647551 0.01111 8.1027e-20)
(0.0039149 0.00714596 -9.76506e-22)
(0.0055071 0.00779587 -5.64605e-19)
(0.00409793 0.00737158 5.2171e-21)
(0.0051876 0.00785588 5.11529e-19)
(0.00407971 0.00734001 -4.86869e-20)
(0.00495261 0.00771523 0)
(0.00408499 0.00736438 -8.56095e-20)
(0.00474128 0.00758665 4.92371e-19)
(0.00409824 0.00737601 8.74725e-20)
(0.00457387 0.00752624 0)
(0.00428335 0.00742044 1.39696e-19)
(0.00423968 0.00759926 5.80009e-19)
(0.00446653 0.0075259 -5.54808e-19)
(0.00438703 0.00750404 3.71264e-19)
(0.00422814 0.0075254 2.88223e-19)
(0.00643095 0.0110435 -4.97498e-21)
(0.00411774 0.0074015 3.11465e-20)
(0.006459 0.0110733 0)
(2.49432e-05 6.24176e-06 -1.8987e-19)
(0.00199962 0.00654326 2.2829e-19)
(0.000839979 -4.40328e-05 1.09632e-19)
(0.000857113 1.05194e-05 0)
(1.82797e-06 1.61211e-06 -3.99135e-19)
(1.83752e-06 -0.000143917 6.91957e-19)
(2.4547e-05 5.79391e-05 2.0891e-18)
(0.000824984 0.000179497 -9.00798e-20)
(0.000799514 9.71686e-06 7.06447e-19)
(1.73836e-06 -1.51652e-06 3.10008e-19)
(1.99338e-05 -3.5371e-05 -1.84578e-18)
(0.000761545 2.76829e-05 1.63164e-19)
(0.000866059 0.000124299 -3.08012e-20)
(0.000800073 -9.24767e-06 1.48149e-19)
(0.000410218 0.000679053 0)
(5.34581e-05 -0.000148666 1.15151e-18)
(0.000861065 9.71735e-06 1.52525e-19)
(2.04507e-05 2.45328e-05 0)
(0.000113705 0.000562065 -6.31248e-19)
(0.000606462 0.000596123 1.31798e-18)
(0.000326528 0.000748305 0)
(0.000800643 -1.729e-05 0)
(0.000800293 3.16185e-06 1.17469e-18)
(1.83074e-05 5.01359e-05 -3.51513e-18)
(1.73486e-05 7.64582e-06 3.73644e-19)
(0.000115995 0.000146893 0)
(4.75332e-05 -4.15774e-05 0)
(6.28002e-05 0.000113939 2.01009e-19)
(0.000933391 0.000186189 3.50458e-19)
(0.000799847 1.60637e-05 -1.39587e-18)
(2.33761e-05 3.40612e-05 0)
(0.000471106 1.2631e-05 -6.03877e-20)
(0.000801324 3.94084e-05 -1.56355e-19)
(0.000839124 3.38755e-05 1.06382e-18)
(0.000258195 0.000542626 6.3225e-19)
(0.000871496 0.000155958 0)
(2.03884e-05 -2.47814e-05 5.38713e-19)
(2.82981e-06 -6.75917e-06 -3.19986e-19)
(0.000988423 3.0582e-05 0)
(0.00103297 0.00226187 0)
(0.000947788 -7.90938e-06 0)
(0.000999558 0.000206092 4.27212e-19)
(0.000816547 -3.25491e-05 -2.83767e-19)
(0.000926806 0.000109889 -6.84826e-19)
(0.000800181 3.32609e-06 0)
(4.23762e-05 7.02132e-05 -1.71575e-19)
(0.000174159 0.000327922 1.08118e-18)
(0.000798268 1.71907e-05 -1.56662e-23)
(0.00108661 0.000208573 -6.69034e-19)
(0.00109039 0.000124424 0)
(2.70402e-06 6.96803e-06 2.51044e-19)
(1.95041e-05 -1.61066e-05 -1.94325e-19)
(0.000583276 3.81501e-05 6.9506e-21)
(1.45193e-05 -8.43475e-05 0)
(0.00105681 0.000253326 9.50101e-19)
(0.00502888 0.00974948 -2.82976e-19)
(0.00312109 0.00961953 1.27217e-18)
(4.73164e-05 -0.000108318 -1.91353e-19)
(5.91988e-05 -7.6439e-05 1.85964e-18)
(0.00119195 0.000243051 1.67306e-19)
(0.00132789 0.00108067 2.34095e-19)
(0.000812352 1.7957e-07 -7.32636e-19)
(0.000199859 0.000952219 -2.38324e-19)
(0.000811785 0.000929313 -2.18592e-19)
(0.000799846 -3.0591e-06 0)
(8.58775e-05 0.000630313 0)
(9.58492e-05 0.000283425 -4.05524e-23)
(0.000720231 -4.0671e-05 -1.6805e-23)
(0.000821364 6.298e-05 1.51242e-19)
(0.00263057 0.00206346 -1.23132e-18)
(0.00175931 0.0092397 -1.17175e-19)
(0.000833973 4.96179e-05 4.92244e-19)
(0.00632808 0.00404582 -1.75895e-19)
(0.00672105 0.0115578 -1.36359e-20)
(0.00473421 0.00784381 4.9246e-21)
(0.000801524 1.38371e-05 -2.19166e-18)
(0.000835204 1.09749e-05 4.25672e-24)
(9.68898e-06 -8.16321e-06 -3.48041e-19)
(4.67578e-05 9.13473e-05 -3.49299e-19)
(6.7943e-05 0.000272481 8.7532e-19)
(1.1635e-05 1.67812e-05 4.90438e-19)
(8.96865e-05 0.000232154 3.69783e-19)
(0.000822454 2.57208e-05 0)
(0.0053481 0.00949243 1.95092e-20)
(0.00153151 0.000632621 -2.61131e-20)
(0.000819936 3.35359e-05 3.60043e-19)
(3.83109e-05 -8.44219e-05 0)
(0.00184797 0.00074 5.46038e-19)
(1.00412e-05 8.0382e-06 -2.70172e-19)
(3.46818e-05 2.92791e-05 9.71886e-20)
(0.00132484 0.00139461 6.36578e-19)
(0.000736084 4.71539e-05 1.83117e-19)
(5.84043e-06 -1.86916e-06 -1.70216e-19)
(0.00206341 0.00155644 -1.05596e-18)
(0.000126524 0.000180616 -8.18789e-19)
(0.00392151 0.00848766 -1.09089e-18)
(6.13181e-06 1.74816e-06 8.81485e-20)
(0.000142177 -0.000136384 -1.25587e-18)
(5.12839e-05 -5.82165e-05 4.05676e-20)
(0.00152705 0.000978624 0)
(0.00103793 0.000138878 -4.06946e-22)
(0.000454336 0.000849702 -4.02091e-20)
(0.000802669 2.70023e-05 -2.34006e-19)
(8.71476e-05 0.000186814 7.36103e-19)
(3.45319e-05 -6.33853e-05 4.04044e-19)
(1.89547e-05 1.58004e-05 -9.47166e-20)
(3.24551e-05 9.4347e-05 -3.20309e-19)
(0.000204175 -0.000271788 -5.44982e-19)
(0.00325166 0.00345749 2.82849e-21)
)
;

boundaryField
{
    back
    {
        type            empty;
    }
    ingreso
    {
        type            fixedValue;
        value           uniform (0.0008 0 0);
    }
    salida
    {
        type            zeroGradient;
    }
    front
    {
        type            empty;
    }
    defaultFaces
    {
        type            noSlip;
    }
}


// ************************************************************************* //
