/*--------------------------------*- C++ -*----------------------------------*\
  =========                 |
  \\      /  F ield         | OpenFOAM: The Open Source CFD Toolbox
   \\    /   O peration     | Website:  https://openfoam.org
    \\  /    A nd           | Version:  7
     \\/     M anipulation  |
\*---------------------------------------------------------------------------*/
FoamFile
{
    version     2.0;
    format      ascii;
    class       surfaceScalarField;
    location    "58.5";
    object      phi;
}
// * * * * * * * * * * * * * * * * * * * * * * * * * * * * * * * * * * * * * //

dimensions      [0 3 -1 0 0 0 0];

internalField   nonuniform List<scalar> 
1111
(
6.50853e-09
1.32019e-08
-1.58604e-08
-3.85001e-09
6.57409e-09
-1.18101e-08
1.17446e-08
-1.4732e-08
5.16728e-09
9.25981e-09
3.04917e-10
5.08429e-10
-5.89229e-10
-1.42301e-08
1.43109e-08
-1.41449e-08
1.38868e-08
7.66518e-10
-1.6459e-09
1.48894e-08
2.18508e-09
-3.73907e-09
9.73926e-09
-1.05314e-08
4.53125e-09
-6.69621e-09
-1.26182e-08
1.25882e-08
6.72626e-09
-5.04697e-08
-2.59134e-08
7.63831e-08
-8.11962e-09
7.60009e-09
7.09361e-09
3.53579e-09
3.45852e-10
-3.61555e-09
-2.66092e-10
1.56352e-08
-1.59438e-08
-2.30422e-08
2.33508e-08
-9.63786e-09
-7.91429e-09
8.78486e-09
8.76728e-09
-3.5319e-08
1.7606e-08
-3.23401e-08
5.00531e-08
9.52813e-09
-1.95092e-09
-1.42734e-08
-1.63407e-09
2.3523e-09
-3.6652e-09
2.94696e-09
-3.76792e-09
1.33053e-08
1.94483e-09
-1.14822e-08
8.84238e-09
-2.42562e-09
-1.50346e-08
8.61788e-09
3.7689e-08
-3.05303e-08
-7.15866e-09
-1.93856e-08
2.18261e-10
1.73839e-08
1.78344e-09
-8.14313e-10
4.09097e-09
-1.78891e-08
1.46124e-08
-6.12198e-08
-3.96261e-09
6.51824e-08
1.5668e-10
-1.28536e-09
-3.60881e-10
1.48956e-09
-1.41536e-09
-1.35439e-08
-1.65295e-10
-3.11555e-10
2.69983e-10
2.06867e-10
-1.01427e-08
-8.22075e-09
1.26191e-08
5.74429e-09
7.18253e-10
-2.14294e-09
-8.43613e-09
9.86082e-09
8.09534e-09
9.21141e-10
-9.02584e-09
9.36414e-12
-2.84938e-09
-7.84632e-09
1.09138e-08
-2.18133e-10
1.13779e-08
-6.50421e-10
-1.8851e-09
-9.73184e-10
9.55057e-10
6.48222e-11
-4.66954e-11
-2.56291e-10
8.47158e-10
4.11042e-10
-1.00191e-09
-5.75753e-10
-4.05794e-11
6.13315e-10
3.0178e-12
7.42522e-12
-9.80202e-10
1.01331e-10
8.71446e-10
-6.26991e-11
-9.0306e-10
8.14507e-10
-1.84409e-08
-1.75923e-09
-4.87133e-10
5.28845e-11
-1.41504e-10
1.34129e-08
-1.32652e-08
3.94333e-09
-4.15396e-10
6.25079e-10
3.91374e-10
-6.01057e-10
-3.43223e-10
-2.19187e-09
1.69797e-09
8.3712e-10
-2.14176e-09
9.8908e-09
-1.14881e-08
-3.62833e-10
-1.90717e-10
6.64166e-11
-8.79953e-09
1.01788e-08
-9.4989e-09
1.20452e-08
-1.70812e-08
4.91031e-09
1.25647e-10
8.22178e-11
-1.98416e-10
-2.46634e-10
2.43705e-10
8.74209e-10
-1.62857e-10
-5.95746e-08
7.42805e-08
-1.47059e-08
1.12237e-09
-3.34983e-10
-1.28516e-09
4.97768e-10
1.12059e-09
1.03179e-08
-1.37318e-08
2.29333e-09
-1.13383e-09
7.18756e-09
-8.65279e-09
2.59907e-09
-6.53265e-09
5.75329e-09
5.52909e-09
-4.74972e-09
-7.24204e-09
-2.10431e-09
2.03264e-09
7.31372e-09
-1.84567e-10
-9.09251e-08
9.13108e-08
-2.01204e-10
-2.59057e-10
-8.9765e-08
9.01731e-08
-1.49103e-10
8.30927e-08
-1.49785e-09
1.14423e-10
-8.17093e-08
-3.11589e-09
-2.38221e-10
7.72446e-10
8.99757e-10
-5.49831e-10
4.0046e-09
-1.5491e-09
3.32019e-09
-5.7757e-09
-1.07216e-09
9.80885e-10
-1.49769e-08
6.61591e-09
9.4034e-09
9.92576e-10
-1.01164e-08
-2.79624e-10
-6.25507e-09
1.30543e-08
1.34686e-09
-8.14609e-09
1.43278e-08
-4.23269e-09
3.42286e-09
-1.3518e-08
1.54242e-08
1.726e-09
-1.72136e-09
-4.14071e-10
-1.99791e-08
-7.25057e-09
2.76437e-08
1.39258e-08
-8.39753e-09
-2.116e-09
7.74159e-09
-1.18807e-08
-8.2357e-11
1.92919e-10
-1.39572e-09
-3.63932e-08
-2.31815e-08
8.10665e-09
1.19544e-10
3.81905e-09
-7.01037e-09
1.08299e-08
6.35933e-09
-6.66291e-10
3.73681e-10
5.37245e-10
-2.44635e-10
5.88715e-09
-4.67153e-09
3.58336e-09
-4.79899e-09
-5.81068e-10
-6.92681e-10
2.93547e-10
7.6726e-10
-7.06508e-10
-1.05067e-10
-1.0537e-09
9.02479e-10
-1.77769e-08
2.48615e-09
1.49059e-09
1.38001e-08
2.75819e-10
-7.82969e-10
-1.59142e-10
-3.95221e-09
-1.48922e-08
1.06758e-09
5.6578e-09
1.1874e-08
-5.23229e-09
-1.22995e-08
1.64633e-08
5.9617e-10
-1.59316e-08
-1.12793e-09
-7.50494e-10
5.22909e-10
6.01265e-10
-6.93555e-10
3.65073e-10
3.28482e-10
-7.20932e-09
-3.71722e-09
4.39389e-09
-3.185e-10
4.7022e-10
-1.5172e-10
1.30531e-09
-1.54002e-08
-8.37872e-10
9.2345e-09
-1.05384e-08
-1.0897e-09
-7.98621e-10
1.2696e-08
4.39006e-09
-4.13176e-09
-1.29543e-08
1.99779e-10
7.0201e-09
-7.74161e-09
6.4748e-09
-1.8437e-09
-8.64123e-09
7.93187e-09
2.55307e-09
-1.79358e-09
6.19767e-10
-1.37184e-08
-1.88528e-10
-1.29973e-10
-2.15771e-10
1.04901e-09
-8.07529e-09
7.38363e-10
1.73222e-08
-1.59726e-09
-1.3231e-08
1.45119e-08
-1.2809e-09
1.20708e-08
1.40665e-08
-1.55866e-08
-1.05507e-08
-7.03693e-10
1.22673e-09
-5.23036e-10
9.34624e-10
-1.1221e-09
1.87478e-10
1.46532e-09
-1.89385e-09
4.28529e-10
1.67489e-09
-1.38341e-09
-2.91488e-10
-1.11084e-08
5.34202e-10
1.05742e-08
2.36768e-09
-6.92784e-10
8.91066e-09
-1.52594e-08
6.90873e-09
-8.25833e-09
5.93885e-11
3.87793e-09
-4.0153e-10
-2.71353e-09
2.77291e-09
-7.01883e-09
8.34493e-09
-1.3261e-09
-7.6227e-10
4.15306e-09
6.13801e-10
1.72471e-08
-1.45123e-08
-1.61426e-09
-5.65579e-09
5.24447e-09
-1.13777e-09
-2.33474e-10
6.30058e-09
-6.32694e-09
2.63618e-11
7.01243e-09
4.40381e-09
1.36004e-10
-1.59732e-08
1.04618e-08
1.75822e-08
5.70423e-09
8.3283e-09
8.25473e-09
-6.82726e-09
1.04973e-09
-1.21581e-08
9.71279e-10
5.60483e-10
-1.27808e-08
3.20984e-09
-4.36926e-10
1.24927e-08
-1.18965e-08
-1.69622e-10
-9.82777e-10
-1.37709e-08
7.30065e-09
8.58721e-10
-3.39709e-11
-8.92013e-09
5.14612e-09
-3.09444e-08
-1.25141e-08
-2.61781e-09
1.36103e-09
1.39224e-08
1.09463e-08
-1.06548e-08
-1.42139e-08
1.57371e-08
-3.11907e-09
-1.2618e-08
1.68331e-09
3.89325e-09
-1.33533e-09
-9.54064e-10
-9.7499e-10
1.2915e-09
6.37558e-10
-2.78275e-10
4.04279e-10
4.11241e-10
6.21366e-08
-6.21616e-08
2.49819e-11
6.20569e-08
-6.23608e-08
3.03951e-10
8.37057e-10
6.47509e-08
-6.55792e-08
8.28276e-10
6.41416e-08
6.093e-10
-2.2419e-10
-6.65266e-08
9.47465e-10
-6.20438e-08
6.19105e-08
1.33341e-10
1.31863e-09
-6.78452e-08
-6.22025e-08
1.58691e-10
1.22559e-08
-9.91895e-10
1.60104e-09
-3.71461e-09
3.10547e-09
3.99533e-10
-1.26088e-09
1.07926e-09
-7.45388e-10
1.46144e-09
-1.72566e-09
1.00961e-09
1.5085e-09
-1.65997e-09
3.44392e-10
-8.7106e-11
-3.35821e-09
2.98638e-09
-2.23447e-09
2.6063e-09
-7.32993e-10
-2.83543e-09
2.57653e-09
-3.7698e-09
-5.65144e-09
6.34062e-10
-7.09297e-10
1.37546e-09
1.16523e-09
-6.58027e-09
8.0073e-09
2.97678e-09
2.01035e-08
-4.36634e-09
-7.90291e-10
2.99431e-10
1.12492e-09
-1.00552e-08
-2.6338e-08
5.43813e-09
-4.4266e-09
-3.12208e-09
2.11055e-09
1.28045e-10
1.73119e-11
4.67958e-10
-2.74004e-09
3.46258e-09
8.72782e-09
8.61334e-10
-4.66773e-10
2.19084e-09
-2.45706e-09
2.13607e-09
1.47699e-08
1.3219e-08
-2.69901e-08
3.257e-08
6.23451e-09
-2.28575e-08
-1.03671e-08
1.82231e-08
-1.77807e-08
1.05039e-08
-2.11125e-10
-7.77605e-11
-1.37109e-09
-1.84804e-09
-2.80104e-09
3.88751e-09
1.483e-08
-5.98887e-10
-1.36113e-08
-1.94526e-10
-2.68756e-09
4.66486e-11
1.54386e-08
1.75544e-08
1.36566e-08
6.88202e-10
-1.56868e-09
-1.27762e-08
-1.77647e-09
6.01901e-09
1.23348e-08
-6.94469e-10
-1.19137e-09
-3.54051e-09
2.73674e-09
3.79015e-09
2.44122e-09
1.42477e-08
4.14419e-09
-1.40018e-08
1.76675e-08
-1.76989e-09
2.74862e-09
-3.56904e-09
1.87918e-09
-4.66932e-09
1.29148e-08
-1.20134e-08
-1.39564e-08
5.13874e-10
8.77323e-09
-1.88146e-09
1.57866e-09
1.67826e-09
-8.6875e-09
6.33639e-10
-4.46023e-09
-6.05311e-09
1.22143e-08
-1.48487e-08
1.31899e-09
1.66621e-09
-2.20714e-09
1.65569e-08
-1.60159e-08
-9.85263e-10
1.4043e-08
2.89911e-09
-4.20253e-09
-1.39559e-08
7.36641e-09
-1.71186e-08
-8.02852e-09
6.59325e-09
5.85996e-09
1.44067e-08
-9.69901e-09
3.11794e-09
9.13414e-09
9.87374e-09
3.83778e-09
-4.13092e-09
2.15118e-08
-1.89074e-08
4.76193e-09
-1.02283e-08
2.2126e-09
5.51705e-09
1.3641e-08
-1.1684e-10
1.26359e-08
-1.35043e-08
-1.77695e-09
2.27527e-09
-1.35407e-09
8.55746e-10
1.08657e-08
-6.38624e-09
7.39457e-09
-1.06315e-08
1.39575e-09
-4.75293e-09
1.13147e-08
-1.1794e-08
-7.50322e-09
9.0571e-09
9.31183e-09
1.27348e-08
8.67236e-10
-1.37189e-08
1.6322e-09
8.24526e-10
-1.09574e-08
-6.71504e-09
1.01692e-08
-1.65131e-09
2.52232e-09
-8.88572e-09
4.80304e-09
-5.1521e-09
1.1372e-08
-3.49172e-09
-1.15586e-08
3.67835e-09
-4.51019e-09
1.11292e-08
2.03589e-09
1.17497e-09
-5.06136e-09
-1.75449e-08
1.0386e-08
1.22203e-08
8.30586e-10
-1.08428e-08
-9.81685e-09
1.55983e-08
1.23643e-08
2.78928e-09
-9.63658e-09
-1.32367e-08
-2.78694e-10
-1.26444e-08
2.11883e-10
-7.09498e-10
1.14115e-08
1.24442e-08
-8.17945e-09
1.63712e-08
-1.57497e-08
3.52272e-09
-4.48363e-10
1.70449e-09
1.2544e-08
-3.87487e-09
-1.25564e-08
-5.12139e-09
1.11365e-09
4.56823e-09
1.20194e-08
-7.33514e-09
8.056e-10
-1.36887e-09
1.30891e-09
-1.71699e-09
6.00315e-09
2.60126e-08
-3.5359e-10
-1.12994e-08
1.1653e-08
2.8358e-08
-2.21366e-08
2.19483e-08
1.95029e-08
-1.26361e-08
-2.63906e-09
1.49122e-08
2.1189e-10
-1.21171e-08
-3.15498e-10
-6.02897e-09
-1.93141e-09
2.33038e-09
1.63692e-09
-1.18963e-10
-1.08923e-08
1.11559e-08
-1.44679e-10
2.94393e-09
-5.46625e-09
-1.07486e-08
1.03748e-08
-8.05655e-10
-1.05353e-08
-7.68776e-11
-1.08451e-08
-2.77542e-09
-1.18936e-08
2.24421e-09
7.83575e-09
5.11254e-09
-2.69583e-11
-1.16391e-08
1.15471e-08
6.44198e-10
-8.59122e-09
5.2435e-09
-1.16858e-09
2.56689e-09
-2.82212e-09
-1.30031e-08
-1.30434e-08
1.26628e-08
-1.02043e-08
-1.57993e-08
1.00304e-08
9.13148e-09
8.6534e-10
2.59064e-09
-1.389e-08
1.11027e-08
1.7045e-09
4.0055e-09
3.52014e-10
-5.86756e-10
-3.46326e-10
-4.05846e-09
2.65261e-09
-1.28171e-09
2.86793e-10
-3.35558e-10
4.87645e-11
-2.5804e-09
1.27845e-08
2.16019e-09
2.56673e-09
-6.27999e-10
-1.68361e-09
-2.42193e-10
-2.49352e-09
-5.6118e-10
1.27651e-08
9.8701e-09
-4.31352e-10
7.00461e-09
-1.20575e-09
-5.36752e-09
-9.67923e-09
-5.07644e-09
2.22525e-10
6.42682e-11
4.79566e-09
1.32388e-09
-1.69624e-08
-5.11886e-10
-8.75263e-10
-2.61124e-09
9.54197e-10
2.7492e-09
6.19358e-08
-8.77954e-11
-6.1848e-08
6.23522e-08
1.87383e-10
-6.25396e-08
-1.419e-08
-6.58141e-12
1.45526e-08
-3.55999e-10
2.85468e-09
-1.99106e-09
2.71942e-09
1.79396e-09
-4.40363e-09
-4.37499e-10
-6.05342e-10
4.90818e-10
-1.30111e-10
5.54465e-10
-3.93167e-10
1.93179e-08
1.11544e-09
-1.56377e-08
-2.51483e-10
-1.9536e-09
1.22614e-08
2.2362e-09
1.75667e-09
5.25268e-09
-1.96149e-09
-7.72357e-08
-2.41775e-08
-4.78185e-09
1.57589e-08
2.32828e-09
-5.27427e-10
-3.2478e-09
-1.28543e-09
5.83337e-10
-4.89276e-10
-1.12781e-08
-3.19327e-10
1.15974e-08
-1.07059e-08
-6.64336e-09
1.06342e-08
-9.33944e-09
8.78203e-09
-6.46172e-12
1.75431e-09
1.07599e-08
-1.05676e-08
-1.9232e-10
6.98352e-10
7.58761e-11
1.01433e-08
9.35698e-10
-1.03024e-09
-2.61649e-10
-1.4245e-08
-5.18175e-10
-1.35694e-08
1.23462e-08
-1.16431e-08
-6.59912e-08
6.49475e-08
1.04364e-09
3.81863e-10
-3.64552e-10
1.17703e-08
-3.50721e-10
1.51626e-11
-2.02564e-09
2.77843e-09
-3.41657e-09
-1.35112e-08
-1.65578e-09
2.5723e-09
-4.75857e-09
-1.39044e-08
1.70064e-09
5.6056e-09
9.508e-09
-8.84156e-09
-3.79499e-10
2.87779e-11
-9.34628e-09
-1.30154e-08
1.49681e-10
-6.27069e-08
2.3733e-10
6.24696e-08
6.96704e-10
6.34449e-08
-2.25769e-10
-1.23013e-09
-1.44153e-08
1.05711e-10
-6.33746e-08
6.32689e-08
1.83035e-10
-6.29238e-08
6.27408e-08
4.70322e-10
6.1805e-08
1.52101e-10
-6.19571e-08
6.1635e-08
1.7009e-10
-8.79065e-08
8.85158e-08
9.303e-16
9.33972e-08
-9.31051e-08
-2.67157e-10
-8.66458e-08
-4.32461e-10
9.33564e-08
-1.83374e-10
-8.49311e-08
-7.67215e-10
9.3487e-08
1.73295e-10
-5.19753e-10
1.96117e-09
9.23629e-08
-6.93431e-08
6.21495e-08
-6.23341e-08
-6.2966e-08
6.14914e-08
1.4355e-10
-3.0106e-09
2.82008e-09
-1.38113e-08
7.10087e-11
1.51516e-10
1.94439e-09
9.06394e-09
-1.14896e-08
3.82965e-08
-3.44608e-08
-1.66165e-08
1.37827e-08
-6.61332e-11
-2.22984e-10
2.39912e-10
8.49614e-10
-1.61599e-10
3.74141e-10
4.6007e-09
1.02824e-09
-3.74975e-09
-3.08649e-10
3.61533e-10
-2.42232e-10
-2.4732e-09
1.29439e-08
2.3138e-09
-1.44502e-08
-2.5102e-09
-3.54845e-09
5.6559e-09
1.05534e-09
-2.64736e-09
1.42024e-08
-1.1691e-09
-3.11908e-09
4.24061e-09
-8.16361e-09
-1.90602e-08
-1.32347e-08
7.77046e-09
5.97815e-09
-2.90834e-10
-5.31553e-10
3.15276e-09
1.44254e-08
2.08851e-09
-1.62455e-09
-4.47756e-10
4.92521e-10
-2.7824e-10
1.60033e-08
-4.9764e-10
-1.5825e-08
-1.98544e-09
-1.54247e-09
2.99055e-10
-2.27319e-10
3.54938e-09
-1.71099e-08
5.74976e-10
-1.64767e-09
-2.25872e-09
-2.40479e-09
1.53558e-08
-9.06065e-08
-1.35517e-10
9.16906e-08
-1.92364e-10
-8.91804e-08
-4.78888e-10
9.31101e-08
-2.75037e-10
-9.29228e-08
-5.97412e-10
-1.74304e-09
1.64155e-08
9.19924e-08
-1.9603e-10
3.21209e-11
-2.20748e-10
1.02898e-08
2.47411e-09
-8.48021e-09
-1.19905e-08
-5.67237e-09
8.463e-09
1.40516e-09
-6.89137e-09
-6.18148e-09
9.01555e-09
-1.60013e-10
1.01578e-08
1.9383e-08
-1.77725e-08
3.04927e-09
-1.25281e-08
3.02096e-09
-6.99507e-08
3.9595e-09
-2.03805e-08
-1.30287e-08
-5.6149e-10
-5.93883e-09
-1.53266e-08
9.14832e-09
-1.52277e-08
5.24005e-10
4.42658e-10
-1.66009e-09
-1.63076e-08
1.68459e-08
8.1753e-09
-8.41352e-09
-5.24394e-09
1.51368e-08
-1.71397e-09
7.79631e-10
-1.30014e-09
3.82437e-10
1.19283e-08
3.34006e-09
7.09405e-08
-1.80823e-08
8.67486e-10
-1.48045e-08
-2.76305e-10
-3.23172e-10
-1.19443e-10
6.0954e-08
-6.12291e-08
-6.33425e-08
-6.31198e-08
-6.24266e-11
-2.62353e-10
-9.25981e-08
-6.0456e-08
6.24172e-08
6.5062e-08
-6.02828e-08
6.45422e-08
-6.04661e-08
6.3775e-08
-6.07333e-08
6.33425e-08
9.23212e-08
3.45326e-10
-6.43243e-09
7.51088e-08
-6.53363e-08
7.75141e-11
-7.75141e-11
1.18362e-09
-3.60857e-10
1.5499e-08
-8.03632e-11
8.03632e-11
4.28012e-10
1.57088e-09
1.38579e-08
1.32114e-08
-2.77661e-09
3.75503e-09
6.33942e-09
1.94074e-09
4.28284e-10
-3.00312e-10
-2.94751e-09
1.44723e-08
1.4837e-08
-4.26848e-09
1.1783e-08
2.31876e-10
1.84458e-10
2.89933e-09
-9.53497e-10
-1.68116e-09
-5.89688e-09
-1.66991e-10
-4.51014e-10
1.52775e-08
3.21599e-10
1.19416e-10
1.53264e-08
-2.59304e-08
1.74746e-08
2.60501e-09
1.4016e-09
2.39954e-09
-3.67978e-09
1.91339e-08
-1.78536e-08
-1.11015e-10
5.85316e-10
-1.44362e-09
-7.9222e-08
-7.07867e-08
1.4238e-09
-8.71708e-10
6.97215e-10
2.2847e-08
1.84843e-08
-6.4204e-09
1.0745e-10
-4.41962e-09
-2.36835e-09
2.99891e-08
1.53728e-10
1.48185e-08
7.35818e-08
7.96496e-11
5.44964e-10
-1.9486e-10
-2.58286e-10
-3.79292e-09
2.41806e-08
-1.4839e-08
1.1374e-09
-1.39757e-08
-7.40003e-11
2.02675e-08
-2.86892e-08
9.06246e-10
2.25516e-09
-5.17931e-10
)
;

boundaryField
{
    back
    {
        type            empty;
        value           nonuniform 0();
    }
    ingreso
    {
        type            calculated;
        value           nonuniform List<scalar> 
14
(
-1.54286e-08
-1.54288e-08
-1.54288e-08
-1.54288e-08
-1.54286e-08
-1.54283e-08
-1.54288e-08
-1.54288e-08
-1.54286e-08
-1.54286e-08
-1.54288e-08
-1.5428e-08
-1.5428e-08
-1.54286e-08
)
;
    }
    salida
    {
        type            calculated;
        value           nonuniform List<scalar> 2(1.01413e-07 1.14587e-07);
    }
    front
    {
        type            empty;
        value           nonuniform 0();
    }
    defaultFaces
    {
        type            calculated;
        value           uniform 0;
    }
}


// ************************************************************************* //
