# Residuals   
# Time        	p             	Ux            	Uy            
16            	N/A	N/A
16.0102       	1.616781e-01	1.688806e-03	2.947045e-03
16.0204       	1.348758e-01	2.641488e-03	2.984940e-03
16.0306       	2.535474e-02	1.505194e-03	1.730307e-03
16.0408       	2.009615e-02	1.474780e-03	1.730558e-03
16.051        	1.755635e-02	1.467374e-03	1.667426e-03
16.0612       	1.535939e-02	1.445813e-03	1.653949e-03
16.0714       	1.487916e-02	1.404367e-03	1.612233e-03
16.0816       	1.556132e-02	1.392484e-03	1.618949e-03
16.0918       	1.599160e-02	1.389884e-03	1.606134e-03
16.102        	1.413608e-02	1.374634e-03	1.606081e-03
16.1122       	1.372932e-02	1.355103e-03	1.606105e-03
16.1222       	1.601571e-02	1.309406e-03	1.576832e-03
16.1321       	1.488544e-02	1.322727e-03	1.592701e-03
16.1421       	1.495444e-02	1.311631e-03	1.563237e-03
16.152        	1.398902e-02	1.306382e-03	1.561100e-03
16.1617       	1.681622e-02	1.271633e-03	1.517566e-03
16.1713       	1.553749e-02	1.282968e-03	1.540872e-03
16.181        	1.449526e-02	1.267161e-03	1.507052e-03
16.1907       	1.421605e-02	1.273877e-03	1.520651e-03
16.2003       	1.385467e-02	1.292330e-03	1.513312e-03
16.21         	1.479267e-02	1.306952e-03	1.505822e-03
16.2197       	1.400131e-02	1.324848e-03	1.495760e-03
16.2293       	1.280564e-02	1.327603e-03	1.490752e-03
16.239        	1.466517e-02	1.320478e-03	1.487028e-03
16.2487       	1.304464e-02	1.319802e-03	1.474781e-03
16.2583       	1.302263e-02	1.320621e-03	1.469026e-03
16.268        	1.311921e-02	1.324770e-03	1.478289e-03
16.2777       	1.324972e-02	1.315442e-03	1.476131e-03
16.2878       	1.892139e-02	1.396570e-03	1.537292e-03
16.2979       	1.667842e-02	1.405253e-03	1.576859e-03
16.308        	1.606690e-02	1.384448e-03	1.562681e-03
16.3181       	1.519565e-02	1.393462e-03	1.563702e-03
16.3282       	1.407266e-02	1.405710e-03	1.542554e-03
16.3383       	1.410376e-02	1.407872e-03	1.533008e-03
16.3484       	1.344899e-02	1.399435e-03	1.509116e-03
16.3585       	1.370857e-02	1.396117e-03	1.492037e-03
16.3686       	1.376700e-02	1.401311e-03	1.487409e-03
16.3787       	1.331904e-02	1.407770e-03	1.491282e-03
16.3888       	1.255862e-02	1.404652e-03	1.496033e-03
16.3989       	1.263299e-02	1.407438e-03	1.489601e-03
16.409        	1.327357e-02	1.410956e-03	1.482749e-03
16.4192       	1.219408e-02	1.403834e-03	1.474893e-03
16.4293       	1.165688e-02	1.403475e-03	1.460418e-03
16.4394       	1.247912e-02	1.400667e-03	1.455984e-03
16.4495       	1.276469e-02	1.392642e-03	1.452999e-03
16.4596       	1.188160e-02	1.389068e-03	1.455463e-03
16.4697       	1.280142e-02	1.385027e-03	1.456144e-03
16.4798       	1.323222e-02	1.397392e-03	1.460575e-03
16.4899       	1.316008e-02	1.399703e-03	1.463478e-03
16.5          	1.338493e-02	1.404954e-03	1.464410e-03
16.5104       	1.584568e-02	1.452122e-03	1.525040e-03
16.5208       	1.610672e-02	1.455227e-03	1.566004e-03
16.5313       	1.527620e-02	1.453115e-03	1.559119e-03
16.5417       	1.577757e-02	1.461423e-03	1.577182e-03
16.5521       	1.680569e-02	1.463057e-03	1.594792e-03
16.5627       	1.592562e-02	1.506490e-03	1.639449e-03
16.5734       	1.659737e-02	1.506140e-03	1.690496e-03
16.5841       	1.546297e-02	1.506760e-03	1.684543e-03
16.5945       	1.750535e-02	1.473068e-03	1.662515e-03
16.6049       	1.552372e-02	1.481182e-03	1.666896e-03
16.6153       	1.463386e-02	1.487765e-03	1.656139e-03
16.6257       	1.445700e-02	1.501145e-03	1.651178e-03
16.6361       	1.530849e-02	1.488010e-03	1.617717e-03
16.6465       	1.517374e-02	1.483962e-03	1.596795e-03
16.6569       	1.508599e-02	1.478380e-03	1.584820e-03
16.667        	1.792230e-02	1.423326e-03	1.555319e-03
16.677        	1.701263e-02	1.446257e-03	1.604321e-03
16.6871       	1.535972e-02	1.437797e-03	1.601213e-03
16.6972       	1.513997e-02	1.440584e-03	1.619321e-03
16.7073       	1.375563e-02	1.434522e-03	1.593718e-03
16.7171       	1.719920e-02	1.397363e-03	1.552726e-03
16.7268       	1.659103e-02	1.419261e-03	1.581154e-03
16.7366       	1.577843e-02	1.399450e-03	1.529812e-03
16.7463       	1.412798e-02	1.401355e-03	1.511837e-03
16.7561       	1.519816e-02	1.394811e-03	1.497342e-03
16.7659       	1.442411e-02	1.387260e-03	1.511627e-03
16.7756       	1.385484e-02	1.401198e-03	1.512139e-03
16.7854       	1.321922e-02	1.398638e-03	1.513330e-03
16.7951       	1.238715e-02	1.396847e-03	1.509777e-03
16.8049       	1.465347e-02	1.393691e-03	1.525753e-03
16.8146       	1.478896e-02	1.397463e-03	1.538253e-03
16.8244       	1.310504e-02	1.390179e-03	1.541421e-03
16.8342       	1.359411e-02	1.401166e-03	1.548091e-03
16.8439       	1.363405e-02	1.409455e-03	1.551312e-03
16.8537       	1.490127e-02	1.417488e-03	1.547009e-03
16.8634       	1.406064e-02	1.423774e-03	1.550082e-03
16.8732       	1.361906e-02	1.427976e-03	1.549584e-03
16.8829       	1.321955e-02	1.433104e-03	1.539639e-03
16.8927       	1.351038e-02	1.437756e-03	1.536689e-03
16.9024       	1.248357e-02	1.449553e-03	1.550759e-03
16.9122       	1.284312e-02	1.463864e-03	1.551359e-03
16.922        	1.268670e-02	1.464263e-03	1.564123e-03
16.9317       	1.248949e-02	1.477009e-03	1.569515e-03
16.9415       	1.291387e-02	1.480239e-03	1.579705e-03
16.9512       	1.298114e-02	1.476776e-03	1.593763e-03
16.961        	1.405809e-02	1.485007e-03	1.595780e-03
16.9707       	1.354589e-02	1.492436e-03	1.581541e-03
16.9805       	1.448783e-02	1.497800e-03	1.583470e-03
16.9902       	1.379954e-02	1.501227e-03	1.582586e-03
17            	1.430975e-02	1.496749e-03	1.569886e-03
17.0098       	1.573138e-02	1.512426e-03	1.582989e-03
17.0196       	1.494669e-02	1.521560e-03	1.598295e-03
17.0294       	1.406899e-02	1.525221e-03	1.592032e-03
17.0392       	1.450278e-02	1.525848e-03	1.589955e-03
17.049        	1.458269e-02	1.526089e-03	1.596330e-03
17.0588       	1.411733e-02	1.543305e-03	1.603923e-03
17.0686       	1.488949e-02	1.552236e-03	1.609408e-03
17.0784       	1.476944e-02	1.582373e-03	1.602433e-03
17.088        	1.691629e-02	1.546459e-03	1.583438e-03
17.0976       	1.560000e-02	1.538070e-03	1.596380e-03
17.1072       	1.512786e-02	1.526690e-03	1.564734e-03
17.1168       	1.500184e-02	1.529360e-03	1.570452e-03
17.1263       	1.455670e-02	1.538526e-03	1.566417e-03
17.1357       	1.616449e-02	1.504255e-03	1.532634e-03
17.145        	1.596594e-02	1.510231e-03	1.553697e-03
17.1544       	1.566842e-02	1.503399e-03	1.542579e-03
17.1637       	1.530388e-02	1.516031e-03	1.540845e-03
17.173        	1.536386e-02	1.524044e-03	1.515928e-03
17.1824       	1.447186e-02	1.522060e-03	1.505817e-03
17.1917       	1.419587e-02	1.520627e-03	1.503214e-03
17.2011       	1.474909e-02	1.527162e-03	1.513822e-03
17.2104       	1.534978e-02	1.532839e-03	1.504027e-03
17.2198       	1.442189e-02	1.533847e-03	1.501733e-03
17.2294       	1.714083e-02	1.593242e-03	1.546947e-03
17.2391       	1.505912e-02	1.585154e-03	1.590866e-03
17.2487       	1.514941e-02	1.594824e-03	1.593827e-03
17.2584       	1.400844e-02	1.594880e-03	1.601122e-03
17.2681       	1.506367e-02	1.592670e-03	1.585805e-03
17.2777       	1.447685e-02	1.601916e-03	1.593479e-03
17.2878       	2.031810e-02	1.685730e-03	1.656332e-03
17.2979       	1.814492e-02	1.695696e-03	1.701255e-03
17.308        	1.834141e-02	1.710026e-03	1.674606e-03
17.3181       	1.682690e-02	1.706476e-03	1.672665e-03
17.3282       	1.535951e-02	1.719599e-03	1.619643e-03
17.3384       	1.605478e-02	1.723884e-03	1.638609e-03
17.3485       	1.436158e-02	1.723722e-03	1.612179e-03
17.3586       	1.588053e-02	1.719751e-03	1.603812e-03
17.3687       	1.604497e-02	1.721528e-03	1.614298e-03
17.3788       	1.595836e-02	1.720740e-03	1.625823e-03
17.3889       	1.524844e-02	1.721363e-03	1.618175e-03
17.399        	1.496172e-02	1.711545e-03	1.618456e-03
17.4091       	1.380067e-02	1.685976e-03	1.620198e-03
17.4192       	1.367425e-02	1.669198e-03	1.607052e-03
17.4293       	1.323871e-02	1.658914e-03	1.601012e-03
17.4394       	1.368065e-02	1.652607e-03	1.601391e-03
17.448        	3.811247e-02	1.433480e-03	1.497969e-03
17.4567       	2.732128e-02	1.521178e-03	1.628400e-03
17.4654       	1.717252e-02	1.428592e-03	1.426287e-03
17.474        	1.603213e-02	1.433152e-03	1.485740e-03
17.4827       	1.540697e-02	1.437666e-03	1.453314e-03
17.4913       	1.532741e-02	1.443886e-03	1.435757e-03
17.5          	1.508602e-02	1.448399e-03	1.433813e-03
17.5096       	3.096420e-02	1.615765e-03	1.698650e-03
17.5192       	2.456009e-02	1.634109e-03	1.647433e-03
17.5287       	2.185996e-02	1.586998e-03	1.674084e-03
17.5381       	1.757066e-02	1.605659e-03	1.638233e-03
17.5475       	1.567608e-02	1.611630e-03	1.553563e-03
17.5569       	1.461052e-02	1.623840e-03	1.547037e-03
17.5666       	1.623333e-02	1.669985e-03	1.587473e-03
17.5762       	1.622630e-02	1.660470e-03	1.589415e-03
17.5858       	1.645100e-02	1.673845e-03	1.589620e-03
17.5955       	1.501311e-02	1.676160e-03	1.607538e-03
17.6051       	1.487613e-02	1.683614e-03	1.584619e-03
17.6147       	1.529743e-02	1.676069e-03	1.595144e-03
17.6244       	1.495828e-02	1.675833e-03	1.602333e-03
17.634        	1.440915e-02	1.686695e-03	1.602303e-03
17.6439       	1.627364e-02	1.749666e-03	1.640560e-03
17.6538       	1.535091e-02	1.762115e-03	1.660265e-03
17.6637       	1.622671e-02	1.791233e-03	1.698886e-03
17.6736       	1.564841e-02	1.796806e-03	1.672170e-03
17.6835       	1.589646e-02	1.788309e-03	1.686883e-03
17.6933       	1.562967e-02	1.795445e-03	1.686504e-03
17.7032       	1.429128e-02	1.792505e-03	1.691977e-03
17.7131       	1.349670e-02	1.805996e-03	1.702790e-03
17.723        	1.535452e-02	1.829864e-03	1.716379e-03
17.7329       	1.486039e-02	1.833108e-03	1.717713e-03
17.7428       	1.592899e-02	1.837175e-03	1.722405e-03
17.7527       	1.568869e-02	1.851303e-03	1.716720e-03
17.7626       	1.611559e-02	1.858707e-03	1.722066e-03
17.7725       	1.607826e-02	1.861034e-03	1.720269e-03
17.7824       	1.452436e-02	1.861564e-03	1.711602e-03
17.7923       	1.410449e-02	1.860662e-03	1.700840e-03
17.8022       	1.504199e-02	1.873876e-03	1.687719e-03
17.8121       	1.563425e-02	1.881887e-03	1.689478e-03
17.8219       	1.500976e-02	1.898444e-03	1.697249e-03
17.8318       	1.557314e-02	1.889410e-03	1.706100e-03
17.8417       	1.444777e-02	1.882633e-03	1.693133e-03
17.8516       	1.383906e-02	1.870463e-03	1.687395e-03
17.8615       	1.674821e-02	1.875702e-03	1.688195e-03
17.8714       	1.578313e-02	1.889755e-03	1.688596e-03
17.8813       	1.520236e-02	1.886274e-03	1.689647e-03
17.8912       	1.441602e-02	1.879666e-03	1.676645e-03
17.9011       	1.411695e-02	1.861195e-03	1.656658e-03
17.911        	1.426391e-02	1.864961e-03	1.648526e-03
17.9209       	1.428716e-02	1.862856e-03	1.646710e-03
17.9308       	1.410479e-02	1.863304e-03	1.643909e-03
17.9406       	1.421521e-02	1.855007e-03	1.641328e-03
17.9505       	1.469906e-02	1.847393e-03	1.632342e-03
17.9604       	1.344341e-02	1.836229e-03	1.634735e-03
17.9703       	1.402747e-02	1.839272e-03	1.631485e-03
17.9802       	1.383048e-02	1.847995e-03	1.616548e-03
17.9901       	1.413736e-02	1.843673e-03	1.603347e-03
18            	1.446984e-02	1.832201e-03	1.593947e-03
18.0098       	1.405496e-02	1.809480e-03	1.573647e-03
18.0196       	1.383272e-02	1.813996e-03	1.573755e-03
18.0294       	1.401033e-02	1.816031e-03	1.568209e-03
18.039        	1.521277e-02	1.780091e-03	1.529516e-03
18.0486       	1.498312e-02	1.788195e-03	1.542292e-03
18.0582       	1.465607e-02	1.772873e-03	1.546169e-03
18.068        	1.653132e-02	1.814257e-03	1.564769e-03
18.0779       	1.480904e-02	1.818057e-03	1.567461e-03
18.0877       	1.445848e-02	1.827006e-03	1.575286e-03
18.0975       	1.385573e-02	1.825707e-03	1.567708e-03
18.1073       	1.369219e-02	1.821068e-03	1.563303e-03
18.1171       	1.567525e-02	1.820238e-03	1.573255e-03
18.1272       	1.664104e-02	1.871308e-03	1.630845e-03
18.1373       	1.753199e-02	1.872179e-03	1.678097e-03
18.1474       	1.672485e-02	1.884018e-03	1.683932e-03
18.1574       	1.591214e-02	1.881963e-03	1.665412e-03
18.1678       	1.878420e-02	1.945083e-03	1.700442e-03
18.1782       	1.745824e-02	1.983714e-03	1.745146e-03
18.1886       	1.678113e-02	1.996401e-03	1.749073e-03
18.199        	1.511575e-02	1.981127e-03	1.719042e-03
18.2093       	1.568645e-02	1.981494e-03	1.701806e-03
18.2197       	1.442342e-02	1.983922e-03	1.686388e-03
18.2305       	1.773327e-02	2.062401e-03	1.756196e-03
18.2413       	1.760886e-02	2.071894e-03	1.828652e-03
18.2521       	1.717511e-02	2.085843e-03	1.829309e-03
18.2628       	1.590338e-02	2.094352e-03	1.818194e-03
18.2736       	1.465334e-02	2.094702e-03	1.796490e-03
18.2844       	1.562591e-02	2.088160e-03	1.775496e-03
18.2947       	2.018368e-02	1.972412e-03	1.710008e-03
18.3049       	1.960077e-02	1.981674e-03	1.750001e-03
18.3152       	1.709234e-02	1.953224e-03	1.746675e-03
18.3255       	1.514434e-02	1.943735e-03	1.705248e-03
18.3357       	1.440053e-02	1.947333e-03	1.679454e-03
18.346        	1.385986e-02	1.949873e-03	1.661034e-03
18.3563       	1.474889e-02	1.957316e-03	1.655039e-03
18.3665       	1.444526e-02	1.973825e-03	1.663465e-03
18.3768       	1.494045e-02	1.997050e-03	1.674077e-03
18.3871       	1.570285e-02	2.004561e-03	1.676188e-03
18.3973       	1.603851e-02	2.016916e-03	1.675757e-03
18.4076       	1.511489e-02	2.025970e-03	1.675622e-03
18.4179       	1.488726e-02	2.035153e-03	1.687462e-03
18.4281       	1.507919e-02	2.047505e-03	1.702668e-03
18.4384       	1.397486e-02	2.042966e-03	1.703866e-03
18.4487       	1.383350e-02	2.044984e-03	1.705751e-03
18.4589       	1.507637e-02	2.046396e-03	1.703616e-03
18.4692       	1.437138e-02	2.049192e-03	1.686254e-03
18.4795       	1.448848e-02	2.051810e-03	1.673042e-03
18.4863       	9.871112e-02	1.442112e-03	1.572030e-03
18.4932       	6.340369e-02	1.771143e-03	1.624285e-03
18.5          	3.551954e-02	1.451877e-03	1.673179e-03
18.5078       	4.788827e-02	1.645500e-03	1.517354e-03
18.5166       	3.019760e-02	1.844833e-03	1.721749e-03
18.5263       	2.436997e-02	2.010576e-03	1.826706e-03
18.5361       	2.342810e-02	2.048882e-03	1.813942e-03
18.5458       	2.325823e-02	2.009936e-03	1.769638e-03
18.5555       	1.850361e-02	2.000272e-03	1.609822e-03
18.5649       	1.871520e-02	1.955164e-03	1.607154e-03
18.5744       	1.705377e-02	1.968534e-03	1.595055e-03
18.5836       	1.814991e-02	1.928930e-03	1.537387e-03
18.5929       	1.702514e-02	1.927403e-03	1.553532e-03
18.6019       	1.666951e-02	1.878874e-03	1.493077e-03
18.611        	1.730152e-02	1.885520e-03	1.524443e-03
18.62         	1.598656e-02	1.876719e-03	1.498471e-03
18.6291       	1.596585e-02	1.864295e-03	1.522832e-03
18.6381       	1.469615e-02	1.866989e-03	1.485830e-03
18.6472       	1.471216e-02	1.858902e-03	1.476000e-03
18.6562       	1.480729e-02	1.847301e-03	1.483978e-03
18.6653       	1.555069e-02	1.837870e-03	1.497814e-03
18.6743       	1.385765e-02	1.832740e-03	1.500755e-03
18.6834       	1.456759e-02	1.823385e-03	1.494247e-03
18.6924       	1.463732e-02	1.831749e-03	1.543897e-03
18.7017       	1.753447e-02	1.872149e-03	1.600374e-03
18.711        	1.481464e-02	1.856186e-03	1.589507e-03
18.7204       	1.470190e-02	1.852812e-03	1.590610e-03
18.7297       	1.729500e-02	1.870026e-03	1.607472e-03
18.739        	2.238238e-02	1.902769e-03	1.654315e-03
18.7487       	2.218914e-02	1.924745e-03	1.709432e-03
18.7583       	1.686271e-02	1.935218e-03	1.701906e-03
18.768        	1.485991e-02	1.950447e-03	1.665684e-03
18.7777       	1.447133e-02	1.947829e-03	1.623857e-03
18.7873       	1.470174e-02	1.926268e-03	1.607498e-03
18.797        	1.509900e-02	1.932814e-03	1.608628e-03
18.8067       	1.445225e-02	1.937618e-03	1.613204e-03
18.8168       	2.177149e-02	2.077183e-03	1.695896e-03
18.827        	1.926746e-02	2.058142e-03	1.776221e-03
18.8372       	1.863814e-02	2.024379e-03	1.752579e-03
18.8474       	1.601999e-02	2.030677e-03	1.712290e-03
18.8575       	1.426611e-02	2.035634e-03	1.678640e-03
18.8677       	1.504914e-02	2.033140e-03	1.665475e-03
18.8779       	1.873940e-02	2.063607e-03	1.659146e-03
18.8881       	1.729414e-02	2.031844e-03	1.667133e-03
18.8982       	1.512553e-02	2.021651e-03	1.639683e-03
18.9084       	1.452447e-02	2.017700e-03	1.627506e-03
18.9186       	1.475231e-02	2.013533e-03	1.625042e-03
18.9288       	1.640665e-02	2.014062e-03	1.646933e-03
18.9389       	1.547502e-02	2.003589e-03	1.652100e-03
18.9491       	1.460532e-02	2.011373e-03	1.646801e-03
18.9593       	1.497352e-02	2.010329e-03	1.631053e-03
18.9695       	1.533941e-02	2.006495e-03	1.627569e-03
18.9796       	1.619231e-02	2.001823e-03	1.653370e-03
18.9898       	1.605106e-02	2.000968e-03	1.644962e-03
19            	1.614848e-02	2.004571e-03	1.633832e-03
19.0104       	1.622357e-02	2.076715e-03	1.680242e-03
19.0208       	1.884372e-02	2.061096e-03	1.722780e-03
19.0313       	1.770604e-02	2.056999e-03	1.710193e-03
19.0417       	1.622644e-02	2.053646e-03	1.688504e-03
19.0521       	1.576876e-02	2.032314e-03	1.669724e-03
19.0625       	1.488786e-02	2.010572e-03	1.669692e-03
19.0727       	1.824289e-02	1.957928e-03	1.647705e-03
19.0828       	1.629553e-02	1.978337e-03	1.660832e-03
19.093        	1.481258e-02	1.960240e-03	1.664592e-03
19.1032       	1.465398e-02	1.960420e-03	1.636762e-03
19.1131       	1.625900e-02	1.907847e-03	1.587448e-03
19.123        	1.714822e-02	1.917714e-03	1.613311e-03
19.133        	1.523747e-02	1.918730e-03	1.627465e-03
19.1426       	1.574213e-02	1.875671e-03	1.579407e-03
19.1523       	1.674467e-02	1.885228e-03	1.600630e-03
19.1619       	1.583485e-02	1.884274e-03	1.605282e-03
19.1716       	1.632326e-02	1.883643e-03	1.606424e-03
19.1813       	1.721970e-02	1.901665e-03	1.605564e-03
19.1909       	1.445012e-02	1.905000e-03	1.602462e-03
19.2006       	1.522268e-02	1.903052e-03	1.594695e-03
19.2102       	1.570487e-02	1.899212e-03	1.591082e-03
19.2199       	1.490217e-02	1.901892e-03	1.590092e-03
19.2295       	1.389423e-02	1.894879e-03	1.596500e-03
19.2392       	1.494738e-02	1.924173e-03	1.601888e-03
19.2489       	1.391944e-02	1.920257e-03	1.610285e-03
19.2585       	1.344233e-02	1.897079e-03	1.606769e-03
19.2682       	1.521646e-02	1.883945e-03	1.607134e-03
19.2778       	1.415770e-02	1.892010e-03	1.584454e-03
19.2875       	1.402519e-02	1.889836e-03	1.570200e-03
19.2972       	1.402631e-02	1.888175e-03	1.557397e-03
19.3068       	1.609533e-02	1.894060e-03	1.564734e-03
19.3165       	1.512494e-02	1.908112e-03	1.552043e-03
19.3261       	1.360916e-02	1.908521e-03	1.536789e-03
19.3358       	1.319095e-02	1.920083e-03	1.532018e-03
19.3455       	1.345459e-02	1.923744e-03	1.525965e-03
19.3551       	1.332701e-02	1.934693e-03	1.521661e-03
19.3648       	1.439249e-02	1.932957e-03	1.522439e-03
19.3744       	1.395416e-02	1.949518e-03	1.539827e-03
19.3841       	1.648878e-02	1.954525e-03	1.560604e-03
19.3938       	1.672564e-02	1.957572e-03	1.544356e-03
19.4034       	1.399400e-02	1.962769e-03	1.539439e-03
19.4131       	1.482811e-02	1.959605e-03	1.530515e-03
19.4227       	1.459059e-02	1.952831e-03	1.513524e-03
19.4324       	1.542575e-02	1.950657e-03	1.508483e-03
19.442        	1.529955e-02	1.953832e-03	1.518902e-03
19.4517       	1.546303e-02	1.950728e-03	1.522171e-03
19.4614       	1.569488e-02	1.944246e-03	1.521865e-03
19.471        	1.574723e-02	1.931650e-03	1.532780e-03
19.4807       	1.788879e-02	1.935180e-03	1.541190e-03
19.4903       	1.592264e-02	1.922315e-03	1.536010e-03
19.5          	1.572965e-02	1.932159e-03	1.541487e-03
19.5104       	2.560197e-02	2.077563e-03	1.670575e-03
19.5206       	2.375004e-02	2.014900e-03	1.739403e-03
19.5308       	1.710948e-02	1.990694e-03	1.654266e-03
19.541        	1.698140e-02	1.965374e-03	1.638129e-03
19.551        	1.883173e-02	1.905414e-03	1.592683e-03
19.561        	1.796842e-02	1.900929e-03	1.586367e-03
19.5707       	1.783684e-02	1.857257e-03	1.554759e-03
19.5805       	1.705566e-02	1.857666e-03	1.548899e-03
19.5902       	1.541364e-02	1.836522e-03	1.537359e-03
19.5998       	1.683998e-02	1.780994e-03	1.492962e-03
19.6093       	1.576315e-02	1.794951e-03	1.494562e-03
19.6188       	1.626254e-02	1.784514e-03	1.507324e-03
19.6281       	1.801640e-02	1.763232e-03	1.468012e-03
19.6374       	1.874886e-02	1.791340e-03	1.490560e-03
19.6467       	1.591393e-02	1.764460e-03	1.470352e-03
19.656        	1.475162e-02	1.754916e-03	1.478109e-03
19.6653       	1.454057e-02	1.757433e-03	1.482991e-03
19.6746       	1.332011e-02	1.751919e-03	1.493290e-03
19.6842       	1.696937e-02	1.797242e-03	1.544517e-03
19.6937       	1.622264e-02	1.777771e-03	1.568340e-03
19.7033       	1.408829e-02	1.773043e-03	1.578719e-03
19.7129       	1.426365e-02	1.772647e-03	1.577298e-03
19.7225       	1.353764e-02	1.770609e-03	1.580443e-03
19.732        	2.109990e-02	1.827654e-03	1.598017e-03
19.742        	2.390191e-02	1.837920e-03	1.674834e-03
19.7519       	1.760914e-02	1.843878e-03	1.680660e-03
19.7618       	1.640181e-02	1.849859e-03	1.644845e-03
19.7717       	1.544009e-02	1.864965e-03	1.633143e-03
19.7817       	1.434924e-02	1.877820e-03	1.615097e-03
19.7916       	1.293942e-02	1.895828e-03	1.601359e-03
19.8015       	1.295570e-02	1.890987e-03	1.584085e-03
19.8114       	1.314828e-02	1.894997e-03	1.586931e-03
19.8214       	1.504217e-02	1.938669e-03	1.609502e-03
19.8313       	1.614917e-02	1.888295e-03	1.641339e-03
19.8412       	1.771141e-02	1.880437e-03	1.623355e-03
19.8511       	1.339433e-02	1.883588e-03	1.633210e-03
19.8611       	1.438868e-02	1.885974e-03	1.639856e-03
19.871        	1.524256e-02	1.910523e-03	1.636968e-03
19.8809       	1.527195e-02	1.931456e-03	1.630101e-03
19.8908       	1.487340e-02	1.917940e-03	1.615513e-03
19.9008       	1.450258e-02	1.920313e-03	1.608328e-03
19.9107       	1.528957e-02	1.949896e-03	1.615532e-03
19.9206       	1.571355e-02	1.983597e-03	1.623822e-03
19.9305       	1.646747e-02	1.995465e-03	1.635049e-03
19.9405       	1.383039e-02	2.001648e-03	1.626273e-03
19.9504       	1.335994e-02	2.000076e-03	1.618226e-03
19.9603       	1.376762e-02	1.993052e-03	1.620091e-03
19.9702       	1.619085e-02	2.002933e-03	1.641539e-03
19.9802       	1.566928e-02	2.012751e-03	1.649958e-03
19.9901       	1.439350e-02	2.015179e-03	1.636860e-03
20            	1.406277e-02	2.006269e-03	1.630826e-03
20.0102       	1.589095e-02	2.060204e-03	1.683434e-03
20.0204       	1.718770e-02	2.042129e-03	1.738243e-03
20.0306       	1.661942e-02	2.075389e-03	1.744677e-03
20.0408       	1.533559e-02	2.076949e-03	1.745775e-03
20.051        	1.431681e-02	2.056109e-03	1.688264e-03
20.0612       	1.377835e-02	2.038879e-03	1.677958e-03
20.0712       	1.806660e-02	1.983420e-03	1.656428e-03
20.0812       	1.749183e-02	1.998925e-03	1.678721e-03
20.0911       	1.553344e-02	2.008693e-03	1.694107e-03
20.1011       	1.525799e-02	2.006502e-03	1.685880e-03
20.1108       	1.585695e-02	1.954372e-03	1.646235e-03
20.1206       	1.641220e-02	1.974480e-03	1.679835e-03
20.1303       	1.720129e-02	1.978536e-03	1.677376e-03
20.14         	1.515218e-02	1.993859e-03	1.661386e-03
20.1498       	1.472511e-02	1.990423e-03	1.642218e-03
20.1592       	1.633124e-02	1.927941e-03	1.609503e-03
20.1687       	1.420764e-02	1.941965e-03	1.619522e-03
20.1782       	1.527567e-02	1.938060e-03	1.633141e-03
20.1876       	1.637079e-02	1.944265e-03	1.646095e-03
20.1971       	1.594790e-02	1.968199e-03	1.632071e-03
20.2066       	1.594583e-02	1.979052e-03	1.643379e-03
20.216        	1.502601e-02	1.990544e-03	1.637452e-03
20.2255       	1.541306e-02	1.994464e-03	1.657733e-03
20.235        	1.572276e-02	2.006204e-03	1.678118e-03
20.2444       	1.455802e-02	2.011801e-03	1.685890e-03
20.2539       	1.383993e-02	2.013337e-03	1.682167e-03
20.2633       	1.293674e-02	2.010094e-03	1.696617e-03
20.2728       	1.324992e-02	2.029362e-03	1.719174e-03
20.2823       	1.330510e-02	2.035481e-03	1.724214e-03
20.2917       	1.490601e-02	2.019370e-03	1.716880e-03
20.3012       	1.560599e-02	1.998099e-03	1.721973e-03
20.3107       	1.514523e-02	2.012745e-03	1.708418e-03
20.3201       	1.492564e-02	2.024830e-03	1.710764e-03
20.3296       	1.402790e-02	2.037263e-03	1.711008e-03
20.3391       	1.443953e-02	2.042778e-03	1.706494e-03
20.3485       	1.474008e-02	2.047655e-03	1.715376e-03
20.358        	1.446627e-02	2.060567e-03	1.721242e-03
20.3675       	1.416518e-02	2.075662e-03	1.748590e-03
20.3769       	1.526283e-02	2.062781e-03	1.770578e-03
20.3864       	1.581837e-02	2.074359e-03	1.769946e-03
20.3959       	1.426772e-02	2.083764e-03	1.789332e-03
20.4053       	1.409303e-02	2.096428e-03	1.783972e-03
20.4148       	1.527124e-02	2.089983e-03	1.770271e-03
20.4243       	1.494556e-02	2.089863e-03	1.759727e-03
20.4337       	1.448941e-02	2.091921e-03	1.754138e-03
20.4432       	1.436307e-02	2.088356e-03	1.741484e-03
20.4527       	1.312455e-02	2.075844e-03	1.738939e-03
20.4621       	1.311042e-02	2.085486e-03	1.778742e-03
20.4716       	1.440129e-02	2.084675e-03	1.800663e-03
20.4811       	1.421032e-02	2.080885e-03	1.789102e-03
20.4905       	1.396343e-02	2.085509e-03	1.801077e-03
20.5          	1.462212e-02	2.088896e-03	1.795297e-03
20.5098       	1.794754e-02	2.155156e-03	1.849103e-03
20.5196       	1.503561e-02	2.153275e-03	1.884690e-03
20.5294       	1.487014e-02	2.166298e-03	1.869290e-03
20.5392       	1.342434e-02	2.170780e-03	1.855511e-03
20.549        	1.384397e-02	2.153255e-03	1.828982e-03
20.5588       	1.408176e-02	2.136977e-03	1.825222e-03
20.5686       	1.330483e-02	2.128709e-03	1.833633e-03
20.5787       	1.491576e-02	2.168150e-03	1.882979e-03
20.5887       	1.525917e-02	2.175245e-03	1.926294e-03
20.5987       	1.480075e-02	2.170592e-03	1.919520e-03
20.6088       	1.372931e-02	2.167618e-03	1.913110e-03
20.6188       	1.303169e-02	2.182463e-03	1.906074e-03
20.6288       	1.453364e-02	2.196836e-03	1.912895e-03
20.6389       	1.435244e-02	2.185433e-03	1.902547e-03
20.6489       	1.341872e-02	2.182794e-03	1.906512e-03
20.6589       	1.319020e-02	2.177439e-03	1.908568e-03
20.6689       	1.295467e-02	2.174373e-03	1.904097e-03
20.679        	1.308461e-02	2.170397e-03	1.911162e-03
20.689        	1.348872e-02	2.169565e-03	1.912544e-03
20.699        	1.433031e-02	2.173234e-03	1.914473e-03
20.7091       	1.411417e-02	2.180174e-03	1.918515e-03
20.7191       	1.606048e-02	2.189072e-03	1.925682e-03
20.7291       	1.540963e-02	2.217223e-03	1.925855e-03
20.7392       	1.460386e-02	2.230971e-03	1.909151e-03
20.7492       	1.435377e-02	2.222797e-03	1.904037e-03
20.7592       	1.331918e-02	2.219884e-03	1.901412e-03
20.7693       	1.371765e-02	2.216770e-03	1.902151e-03
20.7793       	1.447414e-02	2.214280e-03	1.900589e-03
20.7893       	1.340515e-02	2.215710e-03	1.890827e-03
20.7994       	1.280073e-02	2.213706e-03	1.889885e-03
20.8094       	1.226644e-02	2.210572e-03	1.897799e-03
20.8194       	1.267557e-02	2.228548e-03	1.906711e-03
20.8295       	1.243868e-02	2.238473e-03	1.910265e-03
20.8395       	1.351446e-02	2.232859e-03	1.908445e-03
20.8495       	1.325846e-02	2.235429e-03	1.922870e-03
20.8596       	1.389080e-02	2.242770e-03	1.914558e-03
20.8696       	1.447016e-02	2.250837e-03	1.911505e-03
20.8796       	1.436105e-02	2.250808e-03	1.912445e-03
20.8896       	1.446664e-02	2.252527e-03	1.915706e-03
20.8997       	1.413721e-02	2.257487e-03	1.917859e-03
20.9097       	1.423529e-02	2.256631e-03	1.933251e-03
20.9197       	1.321397e-02	2.286152e-03	1.943303e-03
20.9298       	1.368228e-02	2.293069e-03	1.949360e-03
20.9398       	1.384801e-02	2.283039e-03	1.940196e-03
20.9498       	1.375712e-02	2.293044e-03	1.944816e-03
20.9599       	1.652449e-02	2.292461e-03	1.955312e-03
20.9699       	1.511780e-02	2.290017e-03	1.946438e-03
20.9799       	1.516769e-02	2.284001e-03	1.953887e-03
20.99         	1.473230e-02	2.286416e-03	1.955673e-03
21            	1.373097e-02	2.285261e-03	1.950187e-03
21.0109       	2.563940e-02	2.489421e-03	2.135911e-03
21.0215       	2.305399e-02	2.426209e-03	2.228038e-03
21.0321       	1.630382e-02	2.450648e-03	2.145600e-03
21.0428       	1.555040e-02	2.440475e-03	2.138745e-03
21.0534       	1.442166e-02	2.406921e-03	2.055132e-03
21.064        	1.456977e-02	2.398536e-03	2.062397e-03
21.0747       	1.528741e-02	2.395430e-03	2.033919e-03
21.0853       	1.475846e-02	2.400989e-03	2.052657e-03
21.0957       	1.596235e-02	2.344662e-03	2.010663e-03
21.106        	1.605445e-02	2.369616e-03	2.033727e-03
21.1164       	1.564603e-02	2.351073e-03	2.002868e-03
21.1268       	1.431533e-02	2.331410e-03	1.999389e-03
21.1369       	1.670447e-02	2.267842e-03	1.944323e-03
21.1469       	1.592721e-02	2.279103e-03	1.986554e-03
21.157        	1.531428e-02	2.263860e-03	1.949307e-03
21.1668       	1.643467e-02	2.207676e-03	1.925661e-03
21.1766       	1.569402e-02	2.224727e-03	1.948297e-03
21.1864       	1.469881e-02	2.214354e-03	1.926570e-03
21.1962       	1.509395e-02	2.216466e-03	1.926582e-03
21.206        	1.511009e-02	2.218971e-03	1.915741e-03
21.2158       	1.465296e-02	2.218223e-03	1.911255e-03
21.2253       	1.730621e-02	2.135384e-03	1.858261e-03
21.2348       	1.561551e-02	2.145471e-03	1.893529e-03
21.2442       	1.336426e-02	2.128750e-03	1.843019e-03
21.2537       	1.242463e-02	2.123682e-03	1.849716e-03
21.2632       	1.403888e-02	2.118924e-03	1.827419e-03
21.2727       	1.408415e-02	2.110929e-03	1.847423e-03
21.2821       	1.357256e-02	2.101924e-03	1.847179e-03
21.2916       	1.427560e-02	2.100639e-03	1.841560e-03
21.3011       	1.421666e-02	2.103136e-03	1.826329e-03
21.3106       	1.434502e-02	2.126677e-03	1.854946e-03
21.32         	1.374983e-02	2.133802e-03	1.853746e-03
21.3295       	1.353827e-02	2.126375e-03	1.823095e-03
21.339        	1.401541e-02	2.120394e-03	1.830652e-03
21.3484       	1.353096e-02	2.124646e-03	1.820682e-03
21.3574       	1.962247e-02	1.999435e-03	1.741371e-03
21.3663       	1.758259e-02	2.019796e-03	1.793367e-03
21.3752       	1.389096e-02	2.001720e-03	1.727860e-03
21.3841       	1.223415e-02	2.006688e-03	1.745775e-03
21.393        	1.319431e-02	2.000938e-03	1.747181e-03
21.4019       	1.279486e-02	2.000644e-03	1.757113e-03
21.4108       	1.388366e-02	2.009391e-03	1.826038e-03
21.4198       	1.405234e-02	2.012044e-03	1.774095e-03
21.4287       	1.370823e-02	2.013947e-03	1.800239e-03