/*--------------------------------*- C++ -*----------------------------------*\
  =========                 |
  \\      /  F ield         | OpenFOAM: The Open Source CFD Toolbox
   \\    /   O peration     | Website:  https://openfoam.org
    \\  /    A nd           | Version:  7
     \\/     M anipulation  |
\*---------------------------------------------------------------------------*/
FoamFile
{
    version     2.0;
    format      ascii;
    class       surfaceScalarField;
    location    "57.5";
    object      phi;
}
// * * * * * * * * * * * * * * * * * * * * * * * * * * * * * * * * * * * * * //

dimensions      [0 3 -1 0 0 0 0];

internalField   nonuniform List<scalar> 
1111
(
6.49676e-09
1.32072e-08
-1.58513e-08
-3.85269e-09
6.56583e-09
-1.18072e-08
1.17381e-08
-1.47306e-08
5.14866e-09
9.2732e-09
3.0879e-10
4.98164e-10
-5.78122e-10
-1.42245e-08
1.43045e-08
-1.41378e-08
1.38806e-08
7.55331e-10
-1.6441e-09
1.48879e-08
2.18475e-09
-3.75781e-09
9.74138e-09
-1.05536e-08
4.57008e-09
-6.69493e-09
-1.26181e-08
1.25873e-08
6.72572e-09
-5.04724e-08
-2.59108e-08
7.63832e-08
-8.11779e-09
7.5963e-09
7.08733e-09
3.54158e-09
3.45629e-10
-3.62117e-09
-2.66043e-10
1.56299e-08
-1.59339e-08
-2.30376e-08
2.33416e-08
-9.63656e-09
-7.91699e-09
8.78475e-09
8.76881e-09
-3.53074e-08
1.7603e-08
-3.23422e-08
5.00465e-08
9.52911e-09
-1.94975e-09
-1.42743e-08
-1.67298e-09
2.38136e-09
-3.67784e-09
2.96945e-09
-3.76335e-09
1.33018e-08
1.94443e-09
-1.14828e-08
8.84359e-09
-2.41629e-09
-1.50344e-08
8.60714e-09
3.76947e-08
-3.05408e-08
-7.15399e-09
-1.93798e-08
2.03822e-10
1.73927e-08
1.78326e-09
-8.04194e-10
4.08417e-09
-1.78905e-08
1.46105e-08
-6.12194e-08
-3.9626e-09
6.5182e-08
1.57515e-10
-1.28874e-09
-3.619e-10
1.49313e-09
-1.40309e-09
-1.35389e-08
-1.6766e-10
-3.13378e-10
2.72439e-10
2.08599e-10
-1.01346e-08
-8.21326e-09
1.26071e-08
5.74077e-09
7.20257e-10
-2.14419e-09
-8.44004e-09
9.86397e-09
8.08237e-09
9.2549e-10
-9.00815e-09
2.85431e-13
-2.84795e-09
-7.84308e-09
1.09092e-08
-2.18212e-10
1.13763e-08
-6.38706e-10
-1.89401e-09
-9.77277e-10
9.58656e-10
6.67706e-11
-4.81494e-11
-2.61044e-10
8.5118e-10
4.16475e-10
-1.00661e-09
-5.79544e-10
-4.0736e-11
6.17353e-10
2.92718e-12
8.56584e-12
-9.85302e-10
1.00946e-10
8.7579e-10
-6.16108e-11
-9.07101e-10
8.10325e-10
-1.84374e-08
-1.75275e-09
-4.90737e-10
5.33017e-11
-1.42109e-10
1.34132e-08
-1.32671e-08
3.93809e-09
-4.17264e-10
6.27194e-10
3.93436e-10
-6.03366e-10
-3.54411e-10
-2.21018e-09
1.71017e-09
8.5442e-10
-2.14314e-09
9.86142e-09
-1.14761e-08
-3.65944e-10
-1.91861e-10
6.7067e-11
-8.79984e-09
1.01723e-08
-9.49027e-09
1.20368e-08
-1.7076e-08
4.92086e-09
1.18334e-10
8.31376e-11
-1.99875e-10
-2.49207e-10
2.4597e-10
8.77298e-10
-1.64613e-10
-5.95828e-08
7.42851e-08
-1.47023e-08
1.1253e-09
-3.37859e-10
-1.28929e-09
5.01845e-10
1.11854e-09
1.03173e-08
-1.37319e-08
2.29607e-09
-1.11068e-09
7.17028e-09
-8.6375e-09
2.5779e-09
-6.52722e-09
5.75654e-09
5.52513e-09
-4.75445e-09
-7.23056e-09
-2.11556e-09
2.04114e-09
7.30498e-09
-1.84565e-10
-9.09247e-08
9.13105e-08
-2.01205e-10
-2.59058e-10
-8.97648e-08
9.01729e-08
-1.49027e-10
8.30926e-08
-1.49818e-09
1.147e-10
-8.17091e-08
-3.12151e-09
-2.32826e-10
7.76179e-10
9.01917e-10
-5.52792e-10
4.00734e-09
-1.5613e-09
3.31697e-09
-5.76302e-09
-1.07588e-09
9.83987e-10
-1.49774e-08
6.61601e-09
9.39261e-09
9.91479e-10
-1.01035e-08
-2.80601e-10
-6.25946e-09
1.3042e-08
1.35619e-09
-8.13876e-09
1.43257e-08
-4.22103e-09
3.41145e-09
-1.35161e-08
1.54244e-08
1.7276e-09
-1.72316e-09
-4.32178e-10
-1.9971e-08
-7.23818e-09
2.76414e-08
1.39134e-08
-8.38755e-09
-2.12346e-09
7.73437e-09
-1.18704e-08
-8.49806e-11
1.97024e-10
-1.40133e-09
-3.64046e-08
-2.31782e-08
8.09945e-09
1.14369e-10
3.82298e-09
-7.0078e-09
1.08233e-08
6.35681e-09
-6.68745e-10
3.75584e-10
5.3926e-10
-2.46099e-10
5.89081e-09
-4.66817e-09
3.58104e-09
-4.80367e-09
-5.85361e-10
-6.94681e-10
2.94741e-10
7.7095e-10
-7.10741e-10
-1.08799e-10
-1.06087e-09
9.08625e-10
-1.77651e-08
2.48761e-09
1.48865e-09
1.37888e-08
2.77654e-10
-7.85982e-10
-1.60417e-10
-3.94639e-09
-1.48844e-08
1.06569e-09
5.65953e-09
1.18667e-08
-5.23294e-09
-1.22933e-08
1.64632e-08
5.93236e-10
-1.59313e-08
-1.1251e-09
-7.53045e-10
5.25294e-10
6.03335e-10
-7.0444e-10
3.71243e-10
3.33196e-10
-7.20286e-09
-3.72193e-09
4.39757e-09
-3.22087e-10
4.74973e-10
-1.52885e-10
1.30765e-09
-1.53887e-08
-8.36165e-10
9.21564e-09
-1.05226e-08
-1.09409e-09
-8.13239e-10
1.2688e-08
4.39041e-09
-4.13212e-09
-1.29463e-08
2.03583e-10
7.01635e-09
-7.73637e-09
6.47656e-09
-1.84928e-09
-8.63165e-09
7.92406e-09
2.55686e-09
-1.79154e-09
6.17711e-10
-1.37106e-08
-1.91009e-10
-1.31078e-10
-2.28956e-10
1.05834e-09
-8.05995e-09
7.38905e-10
1.73217e-08
-1.59746e-09
-1.32707e-08
1.45488e-08
-1.27806e-09
1.20653e-08
1.40693e-08
-1.55896e-08
-1.0545e-08
-7.09836e-10
1.23538e-09
-5.25544e-10
9.54907e-10
-1.15137e-09
1.96463e-10
1.50578e-09
-1.96019e-09
4.54412e-10
1.68546e-09
-1.39289e-09
-2.92567e-10
-1.11326e-08
5.24069e-10
1.06085e-08
2.38013e-09
-6.94668e-10
8.90862e-09
-1.52531e-08
6.89009e-09
-8.22973e-09
6.00231e-11
3.88376e-09
-4.02202e-10
-2.72576e-09
2.78578e-09
-7.03743e-09
8.36374e-09
-1.32631e-09
-7.6866e-10
4.15009e-09
6.25905e-10
1.72438e-08
-1.45136e-08
-1.61159e-09
-5.64438e-09
5.23963e-09
-1.15655e-09
-2.34863e-10
6.31718e-09
-6.34378e-09
2.66045e-11
7.01563e-09
4.4003e-09
1.41667e-10
-1.59665e-08
1.04604e-08
1.75714e-08
5.70278e-09
8.3292e-09
8.25545e-09
-6.82587e-09
1.03744e-09
-1.217e-08
9.88481e-10
5.37421e-10
-1.27777e-08
3.22312e-09
-4.37343e-10
1.25318e-08
-1.19386e-08
-1.67036e-10
-9.88661e-10
-1.37688e-08
7.29144e-09
8.62469e-10
-3.48293e-11
-8.92066e-09
5.14973e-09
-3.09729e-08
-1.2516e-08
-2.61028e-09
1.35755e-09
1.39148e-08
1.09462e-08
-1.06524e-08
-1.42086e-08
1.57544e-08
-3.11999e-09
-1.26344e-08
1.68645e-09
3.89087e-09
-1.34256e-09
-9.55792e-10
-9.78437e-10
1.29556e-09
6.38673e-10
-2.79721e-10
4.05923e-10
4.13059e-10
6.21364e-08
-6.21615e-08
2.50573e-11
6.20565e-08
-6.23605e-08
3.03995e-10
8.37066e-10
6.47509e-08
-6.55793e-08
8.28404e-10
6.41415e-08
6.09404e-10
-2.24027e-10
-6.6527e-08
9.47668e-10
-6.20437e-08
6.19103e-08
1.3338e-10
1.31896e-09
-6.78459e-08
-6.22025e-08
1.58808e-10
1.22468e-08
-9.99839e-10
1.60926e-09
-3.71556e-09
3.10613e-09
4.01906e-10
-1.26326e-09
1.08365e-09
-7.50164e-10
1.46371e-09
-1.72874e-09
1.01519e-09
1.51158e-09
-1.6643e-09
3.4974e-10
-8.81267e-11
-3.35613e-09
2.99243e-09
-2.24127e-09
2.60497e-09
-7.40797e-10
-2.83788e-09
2.57884e-09
-3.77573e-09
-5.6469e-09
6.35585e-10
-7.12105e-10
1.38035e-09
1.167e-09
-6.58255e-09
8.00888e-09
2.97398e-09
2.01171e-08
-4.36265e-09
-7.92742e-10
2.9975e-10
1.12858e-09
-1.00589e-08
-2.63457e-08
5.4412e-09
-4.43058e-09
-3.12071e-09
2.1101e-09
1.28681e-10
1.705e-11
4.71621e-10
-2.74512e-09
3.46633e-09
8.721e-09
8.64801e-10
-4.73166e-10
2.19347e-09
-2.4611e-09
2.14401e-09
1.47685e-08
1.32155e-08
-2.69896e-08
3.25607e-08
6.22866e-09
-2.28594e-08
-1.03589e-08
1.82119e-08
-1.77731e-08
1.05074e-08
-2.14864e-10
-7.42784e-11
-1.37515e-09
-1.85216e-09
-2.78766e-09
3.89153e-09
1.4821e-08
-5.99666e-10
-1.36036e-08
-1.81515e-10
-2.69725e-09
4.08851e-11
1.5435e-08
1.75455e-08
1.36535e-08
6.87749e-10
-1.56554e-09
-1.27757e-08
-1.78323e-09
6.01893e-09
1.23286e-08
-7.00523e-10
-1.19524e-09
-3.53847e-09
2.73593e-09
3.79497e-09
2.43968e-09
1.42413e-08
4.1419e-09
-1.39928e-08
1.76555e-08
-1.76881e-09
2.75564e-09
-3.57373e-09
1.87908e-09
-4.66076e-09
1.29115e-08
-1.20141e-08
-1.39525e-08
5.20456e-10
8.77132e-09
-1.88363e-09
1.58082e-09
1.68317e-09
-8.69016e-09
6.28207e-10
-4.45407e-09
-6.05298e-09
1.22127e-08
-1.48499e-08
1.32503e-09
1.66596e-09
-2.20528e-09
1.65482e-08
-1.60089e-08
-9.83668e-10
1.40375e-08
2.89252e-09
-4.19464e-09
-1.3951e-08
7.36042e-09
-1.71098e-08
-8.02377e-09
6.58746e-09
5.85923e-09
1.4401e-08
-9.68952e-09
3.12064e-09
9.12574e-09
9.87281e-09
3.83885e-09
-4.12942e-09
2.1505e-08
-1.88989e-08
4.75438e-09
-1.0218e-08
2.21488e-09
5.51148e-09
1.36327e-08
-1.12938e-10
1.26286e-08
-1.34993e-08
-1.77206e-09
2.28788e-09
-1.3701e-09
8.54278e-10
1.08604e-08
-6.38574e-09
7.39205e-09
-1.06213e-08
1.39483e-09
-4.75316e-09
1.1309e-08
-1.17888e-08
-7.50052e-09
9.05273e-09
9.30815e-09
1.27284e-08
8.72809e-10
-1.37142e-08
1.63684e-09
8.2572e-10
-1.09521e-08
-6.71512e-09
1.01667e-08
-1.65761e-09
2.52247e-09
-8.88085e-09
4.80112e-09
-5.14951e-09
1.13658e-08
-3.49159e-09
-1.15517e-08
3.67752e-09
-4.51124e-09
1.11238e-08
2.04093e-09
1.17673e-09
-5.06355e-09
-1.7538e-08
1.03855e-08
1.2216e-08
8.33102e-10
-1.08381e-08
-9.81009e-09
1.55846e-08
1.23571e-08
2.78609e-09
-9.6317e-09
-1.32339e-08
-2.7839e-10
-1.26375e-08
2.14381e-10
-7.06162e-10
1.1401e-08
1.24406e-08
-8.17632e-09
1.63615e-08
-1.57387e-08
3.51917e-09
-4.48693e-10
1.70253e-09
1.2535e-08
-3.87368e-09
-1.25517e-08
-5.12088e-09
1.09273e-09
4.56557e-09
1.20125e-08
-7.33962e-09
8.02778e-10
-1.35966e-09
1.32663e-09
-1.73902e-09
6.01314e-09
2.59993e-08
-3.62563e-10
-1.13495e-08
1.17121e-08
2.83464e-08
-2.21294e-08
2.19462e-08
1.94881e-08
-1.26314e-08
-2.63781e-09
1.49065e-08
2.09474e-10
-1.2115e-08
-3.13022e-10
-6.0288e-09
-1.93359e-09
2.33399e-09
1.64054e-09
-1.09453e-10
-1.08852e-08
1.11433e-08
-1.48626e-10
2.92737e-09
-5.47036e-09
-1.07388e-08
1.03678e-08
-8.00582e-10
-1.05269e-08
-7.37143e-11
-1.08304e-08
-2.78137e-09
-1.18893e-08
2.24626e-09
7.83139e-09
5.11094e-09
-1.73888e-11
-1.16311e-08
1.15391e-08
6.46291e-10
-8.58424e-09
5.24543e-09
-1.15597e-09
2.57466e-09
-2.84158e-09
-1.30009e-08
-1.30562e-08
1.26763e-08
-1.01987e-08
-1.58009e-08
1.00331e-08
9.12591e-09
8.64865e-10
2.58989e-09
-1.39394e-08
1.10904e-08
1.70542e-09
4.00783e-09
3.53731e-10
-5.89118e-10
-3.49974e-10
-4.05611e-09
2.65535e-09
-1.29649e-09
2.90405e-10
-3.39733e-10
4.9328e-11
-2.57678e-09
1.27752e-08
2.15865e-09
2.56653e-09
-6.47089e-10
-1.6913e-09
-2.35139e-10
-2.49777e-09
-5.68683e-10
1.27584e-08
9.86443e-09
-4.3494e-10
7.01001e-09
-1.20486e-09
-5.37021e-09
-9.67582e-09
-5.07607e-09
2.25421e-10
6.49828e-11
4.79007e-09
1.32504e-09
-1.69532e-08
-5.16853e-10
-8.78351e-10
-2.60124e-09
9.49609e-10
2.74087e-09
6.19358e-08
-8.78437e-11
-6.18479e-08
6.23523e-08
1.87455e-10
-6.25397e-08
-1.41907e-08
-9.21792e-13
1.4553e-08
-3.61308e-10
2.84788e-09
-1.99583e-09
2.72463e-09
1.79367e-09
-4.401e-09
-4.41056e-10
-6.07817e-10
4.92823e-10
-1.31106e-10
5.58109e-10
-3.96239e-10
1.93035e-08
1.11618e-09
-1.56296e-08
-2.54792e-10
-1.95442e-09
1.22545e-08
2.23493e-09
1.75588e-09
5.24733e-09
-1.95456e-09
-7.72362e-08
-2.41774e-08
-4.78077e-09
1.57563e-08
2.32626e-09
-5.40071e-10
-3.2542e-09
-1.29046e-09
5.90153e-10
-4.94933e-10
-1.13218e-08
-3.18391e-10
1.16402e-08
-1.07015e-08
-6.64461e-09
1.0631e-08
-9.33537e-09
8.78371e-09
-1.39546e-11
1.76176e-09
1.08031e-08
-1.06076e-08
-1.95476e-10
7.01262e-10
7.54125e-11
1.01249e-08
9.44674e-10
-1.03765e-09
-2.66759e-10
-1.42448e-08
-5.18761e-10
-1.35611e-08
1.23355e-08
-1.1634e-08
-6.59898e-08
6.49464e-08
1.04346e-09
3.86456e-10
-3.69406e-10
1.17635e-08
-3.55096e-10
1.5363e-11
-2.0241e-09
2.77829e-09
-3.41444e-09
-1.35127e-08
-1.65726e-09
2.57244e-09
-4.7571e-09
-1.38992e-08
1.70308e-09
5.60644e-09
9.50342e-09
-8.83621e-09
-3.83966e-10
2.88697e-11
-9.34642e-09
-1.30031e-08
1.49754e-10
-6.27068e-08
2.37317e-10
6.24694e-08
6.96733e-10
6.34447e-08
-2.25742e-10
-1.21564e-09
-1.4412e-08
1.05634e-10
-6.33746e-08
6.32689e-08
1.83008e-10
-6.29239e-08
6.27409e-08
4.74111e-10
6.18049e-08
1.52111e-10
-6.1957e-08
6.16349e-08
1.70046e-10
-8.79064e-08
8.85157e-08
1.61108e-13
9.33966e-08
-9.31045e-08
-2.67068e-10
-8.66457e-08
-4.3233e-10
9.3356e-08
-1.83399e-10
-8.4931e-08
-7.66984e-10
9.34867e-08
1.73283e-10
-5.19481e-10
1.96113e-09
9.23626e-08
-6.93441e-08
6.21494e-08
-6.2334e-08
-6.29658e-08
6.14914e-08
1.43444e-10
-3.00842e-09
2.81444e-09
-1.37988e-08
7.17473e-11
1.53674e-10
1.96113e-09
9.08167e-09
-1.1498e-08
3.82949e-08
-3.44596e-08
-1.6613e-08
1.37845e-08
-6.69716e-11
-2.22967e-10
2.42785e-10
8.54277e-10
-1.62702e-10
3.75804e-10
4.60416e-09
1.02858e-09
-3.75366e-09
-3.13178e-10
3.66479e-10
-2.46111e-10
-2.47004e-09
1.29353e-08
2.30996e-09
-1.44499e-08
-2.50339e-09
-3.5556e-09
5.65811e-09
1.05615e-09
-2.64208e-09
1.41999e-08
-1.17234e-09
-3.16129e-09
4.31976e-09
-8.16036e-09
-1.90617e-08
-1.32249e-08
7.76404e-09
5.9813e-09
-2.92516e-10
-5.3081e-10
3.15731e-09
1.4423e-08
2.07935e-09
-1.61443e-09
-4.49412e-10
4.93907e-10
-2.79358e-10
1.60027e-08
-4.95281e-10
-1.58258e-08
-2.05379e-09
-1.57938e-09
2.98363e-10
-2.26927e-10
3.56219e-09
-1.71424e-08
5.78393e-10
-1.65092e-09
-2.26276e-09
-2.40505e-09
1.53476e-08
-9.06062e-08
-1.35492e-10
9.16903e-08
-1.92391e-10
-8.91802e-08
-4.78959e-10
9.31096e-08
-2.74869e-10
-9.29226e-08
-5.99127e-10
-1.74647e-09
1.64031e-08
9.19922e-08
-1.95984e-10
3.21428e-11
-2.20595e-10
1.03082e-08
2.46715e-09
-8.51892e-09
-1.1985e-08
-5.67183e-09
8.46347e-09
1.40343e-09
-6.89293e-09
-6.18979e-09
9.01684e-09
-1.62974e-10
1.01581e-08
1.93771e-08
-1.77655e-08
3.04784e-09
-1.25233e-08
3.01945e-09
-6.99496e-08
3.95976e-09
-2.0375e-08
-1.30214e-08
-5.63715e-10
-5.93619e-09
-1.53295e-08
9.15067e-09
-1.52284e-08
5.26784e-10
4.45006e-10
-1.65165e-09
-1.62987e-08
1.68396e-08
8.21013e-09
-8.44296e-09
-5.25667e-09
1.51296e-08
-1.71353e-09
7.83849e-10
-1.30919e-09
3.89982e-10
1.19375e-08
3.34281e-09
7.09422e-08
-1.8075e-08
8.70953e-10
-1.47975e-08
-2.77666e-10
-3.24631e-10
-1.22493e-10
6.09544e-08
-6.12292e-08
-6.33424e-08
-6.31199e-08
-6.244e-11
-2.622e-10
-9.25979e-08
-6.04566e-08
6.24177e-08
6.50611e-08
-6.02833e-08
6.45416e-08
-6.04667e-08
6.37746e-08
-6.07338e-08
6.33423e-08
9.23211e-08
3.47286e-10
-6.43364e-09
7.51078e-08
-6.53313e-08
7.89261e-11
-7.89261e-11
1.21368e-09
-3.61798e-10
1.54991e-08
-8.23543e-11
8.23543e-11
4.30865e-10
1.5712e-09
1.38576e-08
1.32024e-08
-2.77729e-09
3.75598e-09
6.33663e-09
1.94181e-09
4.30047e-10
-3.01791e-10
-2.94517e-09
1.44673e-08
1.4836e-08
-4.26853e-09
1.17803e-08
2.3339e-10
1.85644e-10
2.90339e-09
-9.5681e-10
-1.68516e-09
-5.90009e-09
-1.65036e-10
-4.52678e-10
1.5276e-08
3.23676e-10
1.21229e-10
1.53591e-08
-2.59249e-08
1.74637e-08
2.60369e-09
1.40535e-09
2.39376e-09
-3.67572e-09
1.91278e-08
-1.78458e-08
-1.12084e-10
5.97447e-10
-1.44391e-09
-7.92218e-08
-7.0788e-08
1.42613e-09
-8.82092e-10
6.98716e-10
2.2845e-08
1.84782e-08
-6.42547e-09
1.09188e-10
-4.42325e-09
-2.35964e-09
2.9987e-08
1.54218e-10
1.48185e-08
7.35815e-08
8.06199e-11
5.45907e-10
-1.96053e-10
-2.59656e-10
-3.79687e-09
2.41874e-08
-1.48372e-08
1.14148e-09
-1.39722e-08
-7.47476e-11
2.02617e-08
-2.86935e-08
9.05605e-10
2.26597e-09
-5.24853e-10
)
;

boundaryField
{
    back
    {
        type            empty;
        value           nonuniform 0();
    }
    ingreso
    {
        type            calculated;
        value           nonuniform List<scalar> 
14
(
-1.54286e-08
-1.54288e-08
-1.54288e-08
-1.54288e-08
-1.54286e-08
-1.54283e-08
-1.54288e-08
-1.54288e-08
-1.54286e-08
-1.54286e-08
-1.54288e-08
-1.5428e-08
-1.5428e-08
-1.54286e-08
)
;
    }
    salida
    {
        type            calculated;
        value           nonuniform List<scalar> 2(1.01414e-07 1.14586e-07);
    }
    front
    {
        type            empty;
        value           nonuniform 0();
    }
    defaultFaces
    {
        type            calculated;
        value           uniform 0;
    }
}


// ************************************************************************* //
