/*--------------------------------*- C++ -*----------------------------------*\
  =========                 |
  \\      /  F ield         | OpenFOAM: The Open Source CFD Toolbox
   \\    /   O peration     | Website:  https://openfoam.org
    \\  /    A nd           | Version:  7
     \\/     M anipulation  |
\*---------------------------------------------------------------------------*/
FoamFile
{
    version     2.0;
    format      ascii;
    class       volVectorField;
    location    "57.5";
    object      U;
}
// * * * * * * * * * * * * * * * * * * * * * * * * * * * * * * * * * * * * * //

dimensions      [0 1 -1 0 0 0 0];

internalField   nonuniform List<vector> 
591
(
(0.000824213 -3.0424e-05 1.21823e-18)
(0.000810674 -2.694e-05 -6.63699e-19)
(0.000856325 -2.02869e-05 5.69054e-20)
(0.000853491 -5.20956e-06 -1.49158e-19)
(0.000836475 7.89076e-06 2.25452e-19)
(0.00080073 -4.0659e-05 -1.39654e-19)
(0.000553239 -0.000319913 8.06448e-19)
(0.000801949 3.34174e-06 2.06503e-18)
(0.00573545 0.00249588 9.8772e-19)
(0.000794439 -1.4914e-05 2.45316e-18)
(5.1105e-05 0.000172335 1.21843e-18)
(0.000923075 0.00137106 9.41089e-21)
(0.000797677 6.21897e-06 1.31987e-18)
(0.0016022 0.00238289 -7.87789e-19)
(0.000802944 3.98534e-06 -4.3854e-19)
(7.815e-05 -0.000217695 2.48263e-22)
(0.000134972 0.000676967 7.05092e-19)
(0.000819211 5.56391e-05 -4.89761e-19)
(0.00193774 0.000388414 4.73317e-19)
(0.00135584 0.000257552 -2.47163e-19)
(0.00083327 -1.99744e-06 3.72021e-19)
(0.0034001 0.00655901 -8.1518e-20)
(2.92831e-05 7.19151e-05 2.70989e-19)
(0.000833804 -9.68716e-06 -4.50439e-19)
(1.30813e-05 -1.77654e-05 3.58996e-19)
(0.000766632 3.04144e-05 0)
(9.23601e-05 0.000476549 1.59984e-19)
(0.00053507 1.63114e-05 -1.78876e-19)
(0.000751357 4.92082e-05 1.14975e-18)
(0.000814301 3.89819e-05 5.92447e-19)
(6.02227e-05 -2.97773e-06 -3.96338e-24)
(3.6296e-05 -4.85752e-05 3.52243e-19)
(3.92809e-05 -3.33349e-06 -4.64313e-20)
(4.79634e-05 -1.15487e-05 0)
(5.70875e-05 -1.33962e-05 1.13168e-18)
(0.00117356 0.000129601 1.79934e-19)
(3.36411e-05 -5.84389e-06 4.47229e-20)
(0.000827035 8.82326e-06 3.09973e-23)
(2.89301e-05 4.55753e-05 2.66077e-19)
(2.43556e-05 -0.000114318 -8.54827e-19)
(0.000620911 -0.000203315 9.60053e-19)
(2.72865e-05 -7.43611e-06 4.54909e-20)
(0.000797362 -1.80652e-06 -1.57924e-18)
(0.000828667 3.68134e-05 -6.89239e-19)
(1.8907e-05 -8.81388e-06 0)
(5.72133e-05 8.02086e-06 8.52024e-20)
(0.00134228 0.00450604 8.9305e-19)
(7.86748e-05 1.79848e-05 8.63773e-20)
(0.000798823 1.79308e-05 0)
(0.000377516 -0.000192328 6.77829e-19)
(0.000378339 0.000275817 5.11986e-21)
(0.000390926 5.5521e-05 -1.00397e-18)
(0.00634807 0.010942 -7.68326e-19)
(0.00622512 0.0107973 1.52846e-20)
(0.00561462 0.0103806 1.45552e-18)
(0.000810607 2.19794e-05 0)
(6.9073e-05 3.29164e-05 0)
(0.000318015 2.03811e-05 1.21939e-23)
(6.54217e-05 1.18836e-05 -3.46519e-19)
(0.000817076 -8.12794e-06 0)
(0.000628534 2.84845e-05 3.17628e-19)
(0.000828828 3.08496e-06 2.21027e-18)
(0.000793475 2.2804e-05 -5.44058e-19)
(0.000798421 1.68209e-05 -3.15812e-19)
(0.00171481 0.000473596 5.42289e-19)
(0.000793989 8.45447e-06 -1.1553e-18)
(0.000824337 1.19468e-05 -5.242e-19)
(8.43409e-05 -7.60591e-07 -1.73442e-19)
(0.000687977 0.00226683 0)
(0.000830923 3.18445e-05 0)
(0.000772416 1.53021e-05 -1.39038e-18)
(3.96704e-05 1.70549e-05 0)
(0.000286628 0.000272756 3.2689e-19)
(4.31708e-05 -1.80708e-05 0)
(4.41197e-05 -6.13693e-06 1.59501e-19)
(1.9876e-05 -4.79694e-05 -3.36736e-20)
(0.000784591 7.4099e-05 2.47035e-19)
(4.61522e-05 1.16185e-05 0)
(0.000795758 5.69701e-05 4.47416e-19)
(0.000766274 0.000294454 2.10763e-19)
(0.000965116 6.09361e-05 -3.98012e-20)
(4.46325e-05 2.44109e-05 -4.51942e-20)
(6.29572e-06 -2.77257e-05 0)
(0.000429632 0.000218936 1.70211e-19)
(2.82966e-06 2.53629e-05 0)
(0.000782163 3.39189e-05 -6.07967e-19)
(0.000593861 -0.000120709 0)
(6.76852e-05 -4.90494e-07 -1.7451e-19)
(4.12282e-06 -3.78705e-05 0)
(0.000823234 0.000243959 -3.41327e-19)
(4.33062e-06 -1.66978e-05 0)
(0.000420179 0.000324142 -1.28798e-23)
(0.000524145 0.000113491 0)
(0.000801598 4.713e-05 -3.69956e-24)
(2.89002e-06 1.63661e-05 -4.21787e-20)
(0.000448138 -7.37748e-06 1.76388e-18)
(0.00102398 7.24418e-05 4.16112e-20)
(0.000858535 4.35329e-05 6.40987e-22)
(0.000734492 0.000657289 2.69539e-19)
(6.4516e-06 5.27439e-05 0)
(2.88409e-06 -6.08904e-05 -3.12309e-19)
(-1.16604e-05 -0.000112546 -1.10005e-18)
(3.59799e-06 8.33489e-05 -5.96333e-19)
(0.00063946 -1.68641e-05 0)
(7.57209e-06 0.000108722 0)
(0.000803982 2.00578e-05 2.19705e-18)
(0.00078133 2.11794e-05 1.52943e-18)
(0.000417075 -6.76676e-05 0)
(4.4626e-05 0.00022221 -8.95496e-19)
(-7.91272e-07 0.000177241 4.96592e-19)
(6.54318e-05 0.000422082 6.25115e-19)
(0.000302764 8.9466e-05 -9.37243e-19)
(0.000803377 1.9199e-05 1.37366e-19)
(0.000262663 -3.15059e-05 5.31317e-19)
(4.04927e-06 3.57476e-05 0)
(2.44401e-05 0.000294127 -1.09392e-18)
(0.000317993 0.000325812 -1.61725e-19)
(3.35144e-06 -4.88982e-05 1.46548e-19)
(0.000669344 0.000812574 0)
(0.000365601 0.000389927 5.74491e-20)
(0.000811953 9.93959e-06 1.07038e-18)
(0.000798293 8.59654e-07 -2.69227e-18)
(6.97006e-06 -6.69133e-05 0)
(0.000686278 -2.91838e-05 -1.12341e-19)
(0.000319947 -9.87396e-05 1.24346e-18)
(0.00265043 0.000800098 -3.36032e-19)
(4.26877e-06 0.000139379 -6.13157e-19)
(2.28797e-06 0.000169891 1.61928e-18)
(0.00073614 2.08292e-05 -3.89911e-20)
(6.63025e-05 -1.22008e-05 -7.50301e-19)
(0.000802512 2.49392e-05 -3.88409e-19)
(0.000784209 2.60939e-05 -4.10396e-20)
(4.08722e-05 0.000340548 -5.96822e-19)
(0.000480398 7.16229e-05 -4.94011e-19)
(5.1101e-05 -2.95077e-06 1.56182e-19)
(0.000828194 2.26866e-05 -1.09071e-18)
(0.00157693 0.0002361 -1.13669e-18)
(3.66267e-06 6.68143e-05 4.9642e-19)
(0.000807519 2.20488e-05 -4.95395e-19)
(0.000903226 0.000540506 -7.85228e-20)
(0.000141085 0.000799818 0)
(0.000574682 6.56048e-05 0)
(0.0002743 5.75283e-05 -1.60995e-18)
(6.46534e-05 6.04147e-05 -1.37433e-18)
(3.19955e-05 2.15419e-05 0)
(0.00424717 0.00740012 -1.01964e-20)
(0.00422553 0.00737172 3.16407e-20)
(0.0044277 0.00757448 -4.96304e-21)
(0.00420669 0.00773588 0)
(0.00419906 0.00760153 5.77059e-19)
(0.00424436 0.0074012 -9.19763e-20)
(0.0042103 0.00804384 4.84281e-19)
(0.00428948 0.00742178 0)
(0.00420847 0.00853734 6.16546e-19)
(0.00432597 0.00745021 2.2387e-19)
(0.000818462 1.59506e-06 -1.37302e-18)
(0.000763524 5.13914e-05 0)
(0.000215091 5.75169e-05 1.2771e-19)
(5.20377e-05 1.69148e-05 8.71999e-20)
(7.94328e-05 4.67539e-05 6.80135e-19)
(0.000107569 4.35832e-05 -3.41726e-19)
(0.000102469 7.60039e-06 0)
(5.01108e-05 5.5622e-06 8.18512e-20)
(0.000205499 0.000136471 0)
(0.000167016 4.65206e-05 -5.24355e-20)
(0.000341219 0.00022513 -5.09326e-21)
(5.71564e-05 4.45363e-05 -4.3773e-19)
(9.24228e-05 2.94017e-05 -8.52619e-20)
(9.16814e-05 6.39881e-05 1.31216e-21)
(0.000253036 0.000368426 -6.66262e-19)
(0.000106791 0.0010117 0)
(4.30732e-05 5.41811e-05 3.4312e-19)
(0.000204084 0.0017562 0)
(0.000207208 0.000255761 7.0476e-19)
(3.99738e-05 -4.17245e-06 1.11515e-19)
(0.000478622 0.000165847 -1.72328e-19)
(0.000755405 2.54686e-05 -1.92448e-18)
(4.45904e-05 -1.01355e-06 4.33541e-24)
(0.000150512 2.78742e-05 2.24626e-19)
(0.000242861 9.6589e-05 -8.99473e-20)
(0.000880708 0.00070853 3.34989e-19)
(0.000718009 0.00163214 -9.23734e-21)
(0.00038757 0.00142728 -9.39179e-21)
(0.0010217 0.000550972 0)
(0.000105484 -1.39683e-05 1.11891e-18)
(0.000118221 1.86972e-05 -4.43226e-20)
(0.000447002 -0.000286271 -1.136e-18)
(0.000809364 3.53772e-05 0)
(0.000183031 8.01541e-06 3.63356e-19)
(0.000300774 0.00131979 0)
(0.0010679 0.000769614 -7.30309e-20)
(0.000825274 3.53759e-05 -1.86445e-19)
(8.05637e-05 -2.03491e-05 -3.00037e-19)
(0.000821965 0.000320309 -2.08084e-20)
(6.08649e-05 -2.15441e-05 -5.99614e-19)
(0.00022606 0.000178211 8.64002e-20)
(0.000228628 0.000310482 -3.4506e-19)
(0.000880522 0.00024532 0)
(0.00081009 4.89624e-05 0)
(0.000261789 0.000140955 1.76874e-19)
(0.000234328 6.97995e-06 1.96731e-24)
(0.00018439 0.000208376 0)
(0.00028943 0.000654631 -5.55774e-21)
(0.000342708 2.35972e-06 0)
(0.000363646 0.000601067 0)
(0.000110218 8.48585e-05 -1.34693e-21)
(0.00080982 2.34282e-05 -9.39805e-19)
(0.000809237 1.83149e-05 7.9494e-19)
(0.000130149 6.04565e-05 -1.49881e-19)
(0.000952653 0.000152104 8.50765e-20)
(0.000833609 4.46509e-05 3.32966e-19)
(0.000813043 2.39638e-05 -2.92624e-19)
(0.00101194 0.000410332 0)
(0.000434917 0.000122545 6.24541e-19)
(0.000893412 0.000318885 2.09175e-20)
(0.000570762 0.000158684 0)
(0.000271536 0.00044666 4.09694e-19)
(0.000260864 0.000219774 -8.44298e-20)
(0.00109369 0.000376198 -7.82223e-19)
(0.000616707 0.000107099 -1.79325e-19)
(0.000803857 7.34086e-05 -7.45145e-21)
(0.000836491 2.97009e-05 9.39315e-20)
(8.53e-05 -8.81571e-05 -1.98172e-18)
(0.000734888 0.00038232 2.19268e-19)
(0.000661316 6.20826e-05 2.30657e-20)
(0.000702248 0.000278795 1.59275e-23)
(0.000725193 0.000458213 -4.09704e-19)
(0.000842025 3.40911e-05 9.06537e-20)
(7.31006e-05 8.2331e-05 0)
(0.000651869 0.00041781 -4.65899e-20)
(0.000184135 9.90678e-05 0)
(0.000373633 0.000502085 -2.6487e-19)
(0.000309427 0.000170943 0)
(0.000670482 0.000203366 3.55291e-19)
(0.00064465 0.000261047 -4.37327e-20)
(8.20176e-05 0.000105812 6.19261e-19)
(0.00087428 9.14812e-05 -1.61871e-18)
(5.94729e-05 2.32963e-05 2.57236e-19)
(0.000880699 6.32913e-05 -1.68336e-18)
(0.00083543 8.5969e-05 1.63087e-19)
(0.000806917 3.0135e-05 1.8963e-18)
(0.000809783 3.06995e-05 -1.30769e-19)
(0.000730631 7.33908e-05 0)
(0.0008062 2.84835e-05 8.95799e-19)
(0.000951669 0.000229225 -4.27183e-19)
(0.000765794 8.96813e-05 -4.83772e-19)
(0.000775482 0.000229017 -8.81388e-20)
(0.000220432 -0.000151082 -2.07983e-18)
(0.000739035 8.2071e-05 8.87523e-19)
(0.000638787 0.000596859 0)
(0.000101145 -0.000112561 0)
(0.00121203 0.000470837 4.97225e-19)
(0.000661463 -6.4281e-05 -3.23865e-18)
(0.00133497 0.000424805 5.76213e-19)
(0.00123337 0.000718843 -6.38421e-20)
(0.000806355 3.16943e-05 -2.10774e-19)
(0.000830433 6.79102e-05 -1.42431e-18)
(0.000813966 2.23937e-05 1.5716e-18)
(0.00081549 2.95891e-05 9.67193e-20)
(0.000667271 0.000350457 -4.40472e-20)
(0.000102717 0.000126863 5.13641e-24)
(0.000742707 -4.58966e-05 2.6514e-19)
(0.000223445 -0.000248979 -7.33045e-19)
(0.000616777 0.000187867 0)
(0.000700906 3.97148e-05 9.90595e-20)
(0.000682324 1.03321e-05 -3.80884e-19)
(0.000385924 0.000173525 3.93422e-20)
(0.000801475 0.000502879 -1.65499e-19)
(0.000150336 7.89507e-05 2.89232e-25)
(0.000808437 0.000407868 0)
(0.000974154 0.000320249 4.15846e-20)
(0.000748217 -8.10724e-05 -6.16422e-19)
(0.000345147 0.000109115 4.97872e-19)
(0.000902049 0.000423367 0)
(5.08218e-05 3.26646e-05 1.33734e-19)
(0.000478758 0.000269772 2.13982e-19)
(0.000488433 -0.000137651 -7.09578e-19)
(0.000146739 -0.000152884 -1.05846e-18)
(0.000821111 2.80838e-05 -4.86979e-19)
(0.000783869 -9.81051e-05 -1.94269e-19)
(0.000552816 0.000727324 -1.17453e-18)
(0.000841616 4.59021e-05 -6.73845e-20)
(0.000660769 -2.65627e-05 1.26335e-18)
(0.000693431 9.93584e-05 2.27824e-20)
(0.000525646 0.000212243 -1.65708e-19)
(3.41306e-05 -2.27704e-05 -8.75984e-20)
(0.000174755 -3.82909e-05 2.4065e-18)
(2.1108e-05 8.15387e-07 -1.94864e-19)
(0.000818474 0.000107991 3.63752e-19)
(0.000654192 0.000137326 0)
(0.000191575 -7.63384e-05 -1.04827e-18)
(0.000124431 -1.41259e-05 3.12961e-19)
(0.000114893 -3.43499e-05 9.07085e-24)
(0.000792387 0.000108333 -3.19318e-19)
(0.00015545 -9.27667e-06 0)
(0.000579916 0.000242922 0)
(0.000111177 0.000332736 -3.629e-19)
(0.000854457 9.99363e-05 2.09588e-18)
(1.72126e-05 1.29234e-06 0)
(0.000872541 5.16331e-05 0)
(4.66005e-05 -2.62931e-05 0)
(0.000814794 4.21414e-05 -4.45845e-21)
(0.000792998 -5.14456e-05 0)
(0.00425993 0.00740628 8.06907e-20)
(0.00436152 0.00748591 1.43558e-19)
(0.000843633 -1.6433e-06 0)
(0.000778708 -5.22417e-05 8.10744e-19)
(0.000153099 0.000128157 1.4923e-19)
(0.000848094 7.08199e-05 8.07771e-19)
(0.000131179 0.000104814 2.34431e-20)
(0.000773185 -3.16066e-05 6.2506e-19)
(3.64553e-05 1.03898e-05 0)
(3.07806e-05 -1.45488e-05 -4.48557e-20)
(0.000889576 4.99625e-05 -4.86663e-19)
(3.67791e-05 -3.3377e-05 -6.69916e-19)
(0.000750385 0.000119774 -4.23317e-20)
(0.000168093 0.000165874 -1.88126e-19)
(0.000813337 2.40993e-05 0)
(0.00468263 0.00815376 9.01448e-22)
(0.000173953 0.000785992 3.33585e-19)
(0.000123399 -5.48524e-05 -9.14677e-19)
(6.50679e-05 -3.51824e-05 -1.16894e-18)
(0.000672773 1.50952e-05 1.89891e-20)
(0.000578443 0.000410444 0)
(0.000414258 0.000440687 -2.56365e-19)
(9.16767e-05 -5.78875e-05 1.18385e-18)
(0.000630345 1.06564e-06 7.70393e-20)
(4.39838e-05 2.17892e-06 4.0716e-19)
(0.000686388 -5.61443e-05 1.17187e-18)
(0.00080901 3.14496e-05 -5.96093e-19)
(7.20007e-05 -5.54153e-05 1.70949e-18)
(0.00084203 -1.59134e-05 -5.3466e-24)
(0.000649239 7.41663e-06 -3.76579e-20)
(0.000862555 6.6591e-05 0)
(0.000832683 3.50904e-05 0)
(0.00591682 0.00723715 2.59443e-19)
(2.20918e-05 -1.6207e-06 -1.19593e-19)
(0.000139953 -9.4621e-05 7.73068e-19)
(0.000718151 0.000120362 -6.96571e-19)
(2.5438e-05 -2.47875e-07 2.01525e-19)
(0.000605653 -3.26328e-05 -7.23958e-19)
(0.000736464 3.64566e-05 1.55836e-18)
(0.000698631 0.000158878 -3.55497e-19)
(0.000807464 -1.32889e-05 3.60296e-19)
(8.20707e-05 -3.24844e-05 1.11622e-18)
(0.000797956 7.86812e-06 -3.22759e-19)
(0.000862205 4.39018e-05 0)
(0.000536338 0.000303306 4.2108e-20)
(0.000850217 4.96173e-05 -9.45548e-19)
(2.2501e-05 1.87314e-06 9.11289e-19)
(0.000847094 4.67092e-05 9.6567e-19)
(0.000852088 1.47217e-07 -9.60111e-19)
(0.000738058 -6.37195e-07 -5.69298e-19)
(0.000508503 -6.54182e-05 -5.25749e-19)
(0.00432875 0.00745236 2.4742e-19)
(0.00422295 0.00752978 -2.7876e-19)
(0.00422152 0.0075879 2.66447e-19)
(0.00425585 0.00741053 1.97935e-19)
(0.000845582 -2.01781e-05 1.43906e-19)
(0.00447481 0.00751123 0)
(0.00440259 0.00751635 -3.86765e-19)
(3.41544e-05 -1.58957e-07 -9.9818e-19)
(0.00417058 0.00746926 -6.33519e-20)
(0.00414593 0.00743225 -2.2147e-19)
(0.00603001 0.010607 0)
(0.00654038 0.0111876 3.71274e-20)
(0.00600999 0.0105767 0)
(0.00655608 0.0112111 1.30855e-19)
(0.00599739 0.0106009 2.69619e-19)
(0.00659268 0.0112278 1.2458e-20)
(0.00593601 0.0106137 -7.7653e-19)
(0.00662289 0.0111467 8.14941e-21)
(0.00390342 0.00920187 -1.90864e-19)
(0.00418695 0.00748868 3.87245e-21)
(0.00423801 0.00755277 7.93379e-20)
(0.00415035 0.00743446 4.11959e-20)
(0.000868294 0.000188455 4.46827e-20)
(1.23196e-05 1.76543e-06 0)
(0.000687903 -0.000132103 0)
(0.000676337 4.5619e-05 0)
(0.00244333 0.00111012 4.25154e-21)
(0.000750507 -3.12497e-05 1.72621e-19)
(4.24644e-05 6.39131e-06 4.54133e-20)
(1.31012e-05 -2.96192e-05 1.65355e-18)
(0.000845435 1.77764e-05 0)
(2.92992e-05 1.35563e-05 -1.91761e-19)
(0.000141339 0.000226186 0)
(2.17985e-05 -1.13366e-06 0)
(1.78982e-05 -1.57786e-06 0)
(0.000814402 0.00013343 1.13656e-20)
(0.000809032 -1.44576e-05 1.79249e-19)
(3.51796e-05 0.000284218 -1.96135e-23)
(0.000158856 0.000275173 -1.84219e-18)
(0.000598161 0.000331832 -8.5713e-20)
(0.000894998 0.000114443 5.99382e-19)
(0.000681676 -0.000265051 6.73204e-19)
(0.000360891 0.00110859 0)
(0.000463873 0.000573369 2.71559e-18)
(9.18933e-05 0.00014917 -1.80326e-18)
(2.66745e-05 2.21999e-07 0)
(0.00081894 -5.12827e-05 3.63223e-20)
(1.76964e-05 3.84943e-05 1.64478e-18)
(0.000900311 2.96254e-05 2.71282e-19)
(1.28257e-06 -4.23904e-05 3.79835e-18)
(0.000929844 3.93103e-05 -2.69108e-19)
(0.00136873 0.000151879 7.4749e-19)
(3.83889e-05 -1.13139e-05 8.25862e-20)
(3.95471e-05 4.80191e-06 -8.59183e-19)
(5.02738e-05 0.00014665 0)
(0.000902787 7.67897e-05 5.98369e-19)
(0.000491066 0.000368675 2.37178e-19)
(0.000696804 1.79687e-05 -3.89168e-20)
(0.000771061 -7.69227e-06 2.57003e-19)
(0.000734352 -0.000199137 0)
(0.0063208 0.0108973 -1.68087e-19)
(0.00637911 0.0109744 4.05746e-19)
(0.00616077 0.0107319 -6.18258e-19)
(0.00650133 0.0111328 -8.09798e-20)
(3.62806e-05 0.000121644 8.00671e-19)
(0.000911211 5.88688e-05 1.48277e-22)
(0.00641165 0.0110068 -3.86381e-19)
(0.00628191 0.0108473 5.48163e-19)
(0.00608084 0.0106737 -4.16721e-19)
(0.00652184 0.0111652 -6.81376e-20)
(8.20279e-05 0.000518812 -2.01853e-20)
(0.000106827 -0.000203652 -7.92617e-19)
(0.000698523 -1.94018e-05 -7.60271e-19)
(0.000719699 0.00022092 0)
(0.000799035 1.05319e-06 0)
(0.000184678 0.000392479 3.36345e-19)
(0.000595594 0.000523203 -5.41807e-19)
(1.26833e-05 -2.08236e-06 1.78431e-19)
(0.000203508 0.000466128 -7.38497e-19)
(0.00100186 0.000968841 -1.1272e-19)
(0.000737138 0.000167037 0)
(0.000783402 0.000180354 1.31048e-19)
(0.0063551 0.00587506 1.13126e-18)
(0.000739997 0.00112745 8.26676e-20)
(4.06914e-05 4.02011e-05 -7.44833e-20)
(0.000813611 2.16689e-05 0)
(0.000875734 2.62308e-05 -3.5699e-20)
(3.77238e-05 4.0796e-06 -1.96729e-19)
(3.25405e-05 5.5229e-06 1.93022e-19)
(0.000830268 2.23721e-05 5.37172e-19)
(0.000966559 0.000106408 6.58642e-19)
(0.00059633 3.65779e-05 0)
(0.00022092 -0.000310013 -3.98061e-19)
(0.000909918 0.000150455 3.8969e-19)
(2.03197e-05 -6.89429e-05 2.03158e-19)
(0.00144145 0.000432419 -2.58006e-18)
(0.000627195 -4.58291e-06 0)
(0.000786186 0.000144838 3.75551e-19)
(9.32119e-05 0.000400211 0)
(0.00118575 0.0081657 4.62137e-19)
(0.000482618 0.000501995 -1.22474e-18)
(0.000543581 0.000996251 -1.8378e-19)
(0.000875509 2.04461e-05 -1.46055e-19)
(1.48264e-05 2.72293e-05 0)
(0.000934655 7.63725e-05 6.11852e-19)
(0.0041067 0.00739528 8.14173e-20)
(0.00417153 0.00747388 4.73047e-20)
(0.00449831 0.00751379 4.53938e-19)
(0.00444391 0.00754074 -3.28378e-19)
(0.00647524 0.0111098 8.10576e-20)
(0.00391522 0.00714632 -9.63178e-22)
(0.00550649 0.00779457 -5.64611e-19)
(0.00409829 0.00737193 5.21728e-21)
(0.00518681 0.00785468 5.11529e-19)
(0.00408013 0.00734033 -4.87004e-20)
(0.00495188 0.00771425 0)
(0.00408554 0.00736454 -8.56318e-20)
(0.0047406 0.00758577 4.92386e-19)
(0.00409866 0.00737602 8.75008e-20)
(0.00457331 0.0075255 0)
(0.00428352 0.00742033 1.39738e-19)
(0.00423966 0.00759937 5.79566e-19)
(0.00446633 0.00752602 -5.53257e-19)
(0.00438694 0.00750393 3.71265e-19)
(0.00422815 0.00752561 3.22771e-19)
(0.00643073 0.0110434 -4.9725e-21)
(0.00411802 0.00740137 3.11564e-20)
(0.00645875 0.0110731 0)
(2.63138e-05 6.87607e-06 -1.89897e-19)
(0.00199812 0.00654276 2.28363e-19)
(0.000841832 -3.62447e-05 1.09646e-19)
(0.000857823 1.29558e-05 0)
(2.24466e-06 2.05722e-06 -3.99191e-19)
(1.63406e-05 -0.000161103 6.91835e-19)
(2.47596e-05 5.96712e-05 2.08938e-18)
(0.000820841 0.000178994 -9.0095e-20)
(0.000797833 1.05478e-05 7.06568e-19)
(2.31845e-06 -2.12157e-06 3.10053e-19)
(2.19357e-05 -3.74986e-05 -1.84607e-18)
(0.000759358 2.79323e-05 1.63192e-19)
(0.000862735 0.000125471 -3.07992e-20)
(0.000799108 -9.79907e-06 1.48174e-19)
(0.000404718 0.000676393 0)
(6.94909e-05 -0.000151162 1.15127e-18)
(0.000856652 1.22049e-05 1.52531e-19)
(2.12097e-05 2.55883e-05 0)
(0.000111226 0.000564482 -6.31308e-19)
(0.000604824 0.000599404 1.31813e-18)
(0.000328419 0.000743004 0)
(0.000799199 -1.78488e-05 0)
(0.000798567 4.34066e-06 1.17345e-18)
(1.94785e-05 5.15337e-05 -3.5156e-18)
(1.83869e-05 8.35575e-06 3.73696e-19)
(0.0001156 0.000149537 0)
(5.13786e-05 -4.24315e-05 0)
(6.4283e-05 0.000116081 2.01037e-19)
(0.000928587 0.000182815 3.5051e-19)
(0.000799576 1.60017e-05 -1.39201e-18)
(2.41867e-05 3.54123e-05 0)
(0.000493793 1.84395e-05 -6.0353e-20)
(0.000800945 4.03581e-05 -1.56379e-19)
(0.00083478 2.98699e-05 1.05996e-18)
(0.000258228 0.000543594 6.32325e-19)
(0.000864575 0.000154901 0)
(2.28249e-05 -2.64356e-05 5.38788e-19)
(3.30568e-06 -8.40284e-06 -3.20033e-19)
(0.00100746 2.86585e-05 0)
(0.00103243 0.0022547 0)
(0.000967073 -1.28869e-05 0)
(0.000996022 0.000204024 4.27277e-19)
(0.00081491 -2.95781e-05 -2.8364e-19)
(0.000920732 0.000111815 -6.84931e-19)
(0.000798937 3.33147e-06 0)
(4.29506e-05 7.22676e-05 -1.71599e-19)
(0.000173855 0.000329128 1.08131e-18)
(0.000796825 2.11769e-05 -8.68013e-24)
(0.00108077 0.000206068 -6.69145e-19)
(0.00109012 0.000122391 0)
(2.97966e-06 8.13425e-06 2.5108e-19)
(2.11371e-05 -1.72838e-05 -1.94353e-19)
(0.000598865 3.57897e-05 6.95173e-21)
(2.20268e-05 -9.11904e-05 0)
(0.00104932 0.000251592 9.50181e-19)
(0.00502884 0.00974978 -2.82991e-19)
(0.00312053 0.00962128 1.272e-18)
(5.68185e-05 -0.000112262 -1.91345e-19)
(6.56724e-05 -7.81401e-05 1.85994e-18)
(0.00119273 0.000237889 1.67236e-19)
(0.00133086 0.00108028 2.34124e-19)
(0.00081448 2.80074e-07 -7.31731e-19)
(0.000204502 0.000952378 -2.38519e-19)
(0.00080606 0.000918334 -2.18618e-19)
(0.000799318 -3.82001e-06 0)
(8.84058e-05 0.000640091 0)
(9.64161e-05 0.000284905 -4.22033e-23)
(0.000723289 -3.69012e-05 -1.68358e-23)
(0.000818862 5.70925e-05 1.50691e-19)
(0.00262884 0.00206594 -1.23161e-18)
(0.00175865 0.0092421 -1.17147e-19)
(0.000832618 4.24392e-05 4.92282e-19)
(0.00632885 0.00404213 -1.75872e-19)
(0.00672089 0.0115577 -1.36476e-20)
(0.00473446 0.00784419 4.93032e-21)
(0.000800508 1.52008e-05 -2.18737e-18)
(0.000831971 1.64176e-05 2.38126e-24)
(1.1147e-05 -9.08957e-06 -3.48092e-19)
(4.72076e-05 9.36188e-05 -3.49347e-19)
(7.05576e-05 0.000275798 8.75511e-19)
(1.25878e-05 1.77415e-05 4.90508e-19)
(8.9798e-05 0.000234751 3.6983e-19)
(0.000822275 2.91497e-05 0)
(0.00534795 0.00949219 1.95056e-20)
(0.00153355 0.000625071 -2.61019e-20)
(0.000820113 3.04587e-05 3.59594e-19)
(4.49423e-05 -8.75285e-05 0)
(0.00184745 0.000738533 5.46163e-19)
(1.09571e-05 8.77984e-06 -2.7021e-19)
(3.58881e-05 3.0544e-05 9.72025e-20)
(0.0013196 0.00138957 6.36624e-19)
(0.000736587 4.46495e-05 1.83149e-19)
(7.30208e-06 -2.24022e-06 -1.70241e-19)
(0.00206554 0.00155139 -1.05622e-18)
(0.00012667 0.000182993 -8.18889e-19)
(0.00392124 0.00848781 -1.09106e-18)
(7.21007e-06 2.02862e-06 8.8161e-20)
(0.000157299 -0.000172014 -1.25401e-18)
(5.57464e-05 -5.91927e-05 4.05737e-20)
(0.00153116 0.000972247 0)
(0.00103458 0.00013973 -4.11597e-22)
(0.000454429 0.000850994 -4.02244e-20)
(0.000802185 2.57721e-05 -2.33759e-19)
(8.71724e-05 0.000189248 7.36197e-19)
(3.91632e-05 -6.59311e-05 4.04109e-19)
(1.97802e-05 1.66551e-05 -9.473e-20)
(3.38262e-05 9.70887e-05 -3.20352e-19)
(0.000201496 -0.000299165 -5.44782e-19)
(0.0032521 0.00345318 2.78373e-21)
)
;

boundaryField
{
    back
    {
        type            empty;
    }
    ingreso
    {
        type            fixedValue;
        value           uniform (0.0008 0 0);
    }
    salida
    {
        type            zeroGradient;
    }
    front
    {
        type            empty;
    }
    defaultFaces
    {
        type            noSlip;
    }
}


// ************************************************************************* //
