/*--------------------------------*- C++ -*----------------------------------*\
  =========                 |
  \\      /  F ield         | OpenFOAM: The Open Source CFD Toolbox
   \\    /   O peration     | Website:  https://openfoam.org
    \\  /    A nd           | Version:  7
     \\/     M anipulation  |
\*---------------------------------------------------------------------------*/
FoamFile
{
    version     2.0;
    format      ascii;
    class       volScalarField;
    location    "101.5";
    object      p;
}
// * * * * * * * * * * * * * * * * * * * * * * * * * * * * * * * * * * * * * //

dimensions      [0 2 -2 0 0 0 0];

internalField   nonuniform List<scalar> 
591
(
0.000123829
0.000123845
0.00012385
0.000123796
0.0001238
0.00012387
0.000123857
0.000123834
0.000116957
0.000123854
0.000124041
0.000122793
0.00012384
0.000119682
0.000123834
0.000123874
0.000123834
0.000123884
0.00012191
0.000123216
0.000123817
-3.52337e-06
0.000124036
0.000123818
0.000123991
0.000123841
0.000123957
0.000123951
0.000123854
0.000123863
0.000124011
0.000123985
0.000124005
0.000124004
0.000124006
0.000123328
0.000124001
0.000123819
0.00012403
0.000123947
0.000123896
0.000123998
0.000123849
0.000123874
0.000123995
0.000124016
0.000119187
0.00012402
0.000123853
0.000123965
0.000123973
0.000124002
2.39451e-05
3.05893e-05
4.78365e-05
0.000123847
0.000124025
0.000124018
0.000124018
0.000123827
0.000123914
0.000123846
0.000123842
0.000123894
0.00012252
0.000123845
0.000123849
0.000124014
0.000120688
0.000123861
0.000123853
0.000124022
0.000123999
0.000123999
0.000124005
0.000123981
0.000123821
0.000124018
0.000123824
0.000123763
0.000123596
0.000124023
0.000123982
0.000123969
0.00012403
0.000123835
0.000123919
0.000124013
0.000123975
0.000123727
0.000123987
0.000123942
0.000123952
0.000123826
0.000124028
0.000123984
0.000123528
0.000123427
0.000123602
0.000124035
0.000123938
0.000123868
0.000124041
0.000123791
0.000124042
0.000123847
0.000123843
0.000123985
0.000124036
0.000124039
0.000123931
0.000124014
0.00012386
0.000124016
0.000124033
0.000124021
0.000123976
0.000123965
0.000123538
0.000123943
0.000123847
0.000123838
0.000123936
0.000123823
0.000123998
0.000120151
0.000124042
0.000124021
0.000123594
0.000124007
0.000123836
0.00012352
0.000123982
0.000123972
0.00012401
0.000123852
0.000122583
0.000124038
0.000123838
0.000123528
0.000123601
0.000123936
0.000124024
0.000124031
0.000124024
7.61867e-06
3.68033e-06
2.07303e-06
3.81604e-05
3.67001e-05
5.66314e-06
3.8313e-05
1.57427e-05
3.72967e-05
1.78095e-05
0.000123847
0.000123837
0.00012403
0.00012402
0.000124028
0.000124027
0.000124019
0.000124014
0.000124031
0.000124028
0.000123996
0.000124028
0.000124024
0.000124031
0.000123977
0.00012335
0.000124031
0.000122087
0.000124018
0.000124009
0.000123963
0.000123855
0.00012401
0.000124026
0.000124028
0.000123447
0.000122432
0.000123007
0.000123396
0.000124014
0.000124022
0.000123914
0.000123816
0.000124018
0.000122927
0.000123254
0.000123815
0.000124007
0.000123705
0.000124001
0.000124026
0.000124001
0.000123672
0.000123806
0.000124023
0.000124026
0.000124028
0.00012383
0.000124007
0.000123826
0.000124034
0.00012384
0.000123839
0.000124031
0.00012363
0.000123807
0.00012385
0.00012349
0.000123985
0.000123636
0.000123925
0.000123944
0.000124016
0.000123402
0.000123911
0.0001238
0.000123799
0.000123982
0.000123747
0.000123895
0.000123813
0.000123728
0.000123791
0.000124034
0.000123793
0.000124034
0.000123889
0.000124013
0.000123855
0.000123857
0.000124038
0.00012374
0.000124022
0.000123729
0.000123779
0.000123844
0.000123822
0.000123861
0.000123848
0.000123617
0.00012382
0.000123775
0.000123985
0.000123839
0.000123699
0.000123975
0.000123245
0.000123815
0.000123136
0.000123024
0.00012383
0.000123794
0.000123833
0.000123829
0.000123805
0.000124037
0.000123876
0.000123947
0.000123891
0.00012388
0.000123892
0.000123992
0.000123641
0.000124032
0.000123676
0.000123563
0.000123864
0.000124012
0.000123588
0.000124025
0.000123939
0.000123945
0.000123975
0.000123856
0.000123833
0.000123671
0.000123787
0.00012383
0.000123871
0.000123934
0.000123994
0.000124013
0.000124018
0.000123772
0.000123882
0.000124006
0.000124013
0.000124007
0.000123797
0.000124021
0.000123898
0.00012401
0.000123758
0.000124021
0.000123745
0.000123997
0.000123887
0.000123831
1.16432e-05
2.19137e-05
0.000123767
0.000123852
0.000124036
0.000123778
0.000124035
0.000123862
0.00012402
0.000123996
0.000123727
0.000123991
0.000123819
0.000124034
0.000123855
-2.095e-07
0.000123733
0.000124002
0.000123997
0.000123685
0.00012385
0.000123895
0.000123991
0.00012374
0.000124014
0.000123895
0.000123847
0.000123989
0.00012379
0.000123714
0.000123754
0.000123857
4.74911e-05
0.000124008
0.000123987
0.000123845
0.000124015
0.000123922
0.000123867
0.000123851
0.000123834
0.000124
0.000123862
0.000123765
0.000123901
0.000123771
0.000124014
0.000123778
0.00012384
0.000123873
0.000123956
1.98746e-05
2.73352e-05
3.4296e-05
9.64047e-06
0.000123818
3.30553e-05
2.60025e-05
0.000124011
1.90756e-05
1.70312e-05
3.81851e-05
7.57743e-06
3.9936e-05
5.60605e-06
4.08294e-05
3.68991e-06
4.28111e-05
1.87724e-06
3.64096e-05
2.31995e-05
2.94513e-05
1.49935e-05
0.000123703
0.000124023
0.000123886
0.0001239
0.000120848
0.000123937
0.000124017
0.000123987
0.000123783
0.000124023
0.00012403
0.000124002
0.000123999
0.000123762
0.000123835
0.000124015
0.000124021
0.000123856
0.000123716
0.000123808
0.000123365
0.000123816
0.00012404
0.000124006
0.000123846
0.00012403
0.000123686
0.000123859
0.000123646
0.000122804
0.000124001
0.000124013
0.000124039
0.000123702
0.000123901
0.000123644
0.000123861
0.000123853
2.60443e-05
2.18789e-05
3.30366e-05
1.16193e-05
0.000124042
0.000123694
1.98213e-05
2.82559e-05
3.56027e-05
9.58925e-06
0.000123866
0.000123942
0.000123809
0.000123817
0.000123836
0.000123983
0.000123772
0.000123996
0.000123949
0.00012306
0.000123819
0.000123785
5.93821e-05
0.000123186
0.000124028
0.00012383
0.000123718
0.000124016
0.000124019
0.000123809
0.000123609
0.000123843
0.000123884
0.000123693
0.000123972
0.000122855
0.000123765
0.000123792
0.000123992
0.000100852
0.000123837
0.000123446
0.000123754
0.000124028
0.000123656
1.08971e-05
2.11163e-05
3.53683e-05
2.81924e-05
1.36631e-05
5.60797e-08
4.20851e-05
2.69133e-06
4.01585e-05
4.76332e-06
3.94163e-05
6.816e-06
3.86242e-05
8.85862e-06
3.72907e-05
1.36748e-05
3.17288e-05
3.05853e-05
2.39384e-05
2.52787e-05
1.77665e-05
1.29394e-05
1.57088e-05
0.000124022
0.000102366
0.000123817
0.000123743
0.000124025
0.000123916
0.000124032
0.000123747
0.000123875
0.000123992
0.000123987
0.000123996
0.000123745
0.000123841
0.000123761
0.000123949
0.000123775
0.000124026
0.000123906
0.000123735
0.000123743
0.000123851
0.000123845
0.000124033
0.000124024
0.000124038
0.000123991
0.000124039
0.000123661
0.000123841
0.000124028
0.000123786
0.000123918
0.000123848
0.000123901
0.000123728
0.000123991
0.00012399
0.000123303
0.000121329
0.000123029
0.000123575
0.00012384
0.00012367
0.000123853
0.000124034
0.000124005
0.000123847
0.000123461
0.000123438
0.000124027
0.000123993
0.000123866
0.000123957
0.000123502
5.83042e-05
4.0116e-05
0.000123963
0.000123981
0.000123344
0.000122705
0.000123827
0.000123587
0.000123333
0.000123836
0.000123761
0.000124024
0.000123869
0.000123903
0.000118961
5.44592e-05
0.000123872
8.12505e-05
1.86249e-06
-3.80456e-07
0.000123836
0.000123804
0.000123992
0.000124036
0.00012403
0.000124026
0.000124033
0.000123823
-2.30651e-06
0.00012278
0.000123865
0.000123968
0.000121967
0.000124025
0.000124026
0.000122248
0.000123942
0.000123994
0.000121646
0.000124036
7.63185e-05
0.000124024
0.000123752
0.000123986
0.000122331
0.000123548
0.000123626
0.000123873
0.000124038
0.000123978
0.000124025
0.000124038
0.000123825
0.00011613
)
;

boundaryField
{
    back
    {
        type            empty;
    }
    ingreso
    {
        type            zeroGradient;
    }
    salida
    {
        type            fixedValue;
        value           uniform 0;
    }
    front
    {
        type            empty;
    }
    defaultFaces
    {
        type            zeroGradient;
    }
}


// ************************************************************************* //
