/*--------------------------------*- C++ -*----------------------------------*\
  =========                 |
  \\      /  F ield         | OpenFOAM: The Open Source CFD Toolbox
   \\    /   O peration     | Website:  https://openfoam.org
    \\  /    A nd           | Version:  7
     \\/     M anipulation  |
\*---------------------------------------------------------------------------*/
FoamFile
{
    version     2.0;
    format      ascii;
    class       surfaceScalarField;
    location    "59";
    object      phi;
}
// * * * * * * * * * * * * * * * * * * * * * * * * * * * * * * * * * * * * * //

dimensions      [0 3 -1 0 0 0 0];

internalField   nonuniform List<scalar> 
1111
(
6.51439e-09
1.31993e-08
-1.58649e-08
-3.84877e-09
6.57821e-09
-1.18115e-08
1.17477e-08
-1.47327e-08
5.17651e-09
9.25319e-09
3.02981e-10
5.13571e-10
-5.94804e-10
-1.42329e-08
1.43141e-08
-1.41484e-08
1.38899e-08
7.72069e-10
-1.64671e-09
1.48901e-08
2.18518e-09
-3.72956e-09
9.73813e-09
-1.05203e-08
4.51171e-09
-6.69683e-09
-1.26183e-08
1.25886e-08
6.72652e-09
-5.04685e-08
-2.59146e-08
7.63831e-08
-8.12051e-09
7.60198e-09
7.09674e-09
3.53288e-09
3.45972e-10
-3.61273e-09
-2.6613e-10
1.5638e-08
-1.59489e-08
-2.30444e-08
2.33552e-08
-9.63848e-09
-7.91304e-09
8.78496e-09
8.76657e-09
-3.53246e-08
1.76074e-08
-3.23388e-08
5.00561e-08
9.52765e-09
-1.95146e-09
-1.4273e-08
-1.6148e-09
2.33792e-09
-3.65874e-09
2.93562e-09
-3.77023e-09
1.3307e-08
1.94505e-09
-1.14818e-08
8.84178e-09
-2.43023e-09
-1.50347e-08
8.62318e-09
3.7686e-08
-3.05247e-08
-7.16123e-09
-1.93884e-08
2.25326e-10
1.73795e-08
1.78353e-09
-8.19314e-10
4.09432e-09
-1.78884e-08
1.46134e-08
-6.12199e-08
-3.96262e-09
6.51825e-08
1.56274e-10
-1.28367e-09
-3.60375e-10
1.48777e-09
-1.42146e-09
-1.35463e-08
-1.64116e-10
-3.10638e-10
2.68754e-10
2.06e-10
-1.01466e-08
-8.22452e-09
1.26251e-08
5.74604e-09
7.17277e-10
-2.14233e-09
-8.43415e-09
9.8592e-09
8.10204e-09
9.19118e-10
-9.03453e-09
1.33748e-11
-2.85009e-09
-7.84795e-09
1.09161e-08
-2.18058e-10
1.13787e-08
-6.5627e-10
-1.88062e-09
-9.71133e-10
9.53251e-10
6.38506e-11
-4.59686e-11
-2.53905e-10
8.45143e-10
4.08311e-10
-9.99548e-10
-5.7385e-10
-4.05039e-11
6.11289e-10
3.06497e-12
6.85331e-12
-9.77645e-10
1.01523e-10
8.69269e-10
-6.32402e-11
-9.0104e-10
8.16585e-10
-1.84425e-08
-1.76249e-09
-4.85325e-10
5.26779e-11
-1.41203e-10
1.34127e-08
-1.32643e-08
3.94596e-09
-4.14463e-10
6.24021e-10
3.90345e-10
-5.99903e-10
-3.37675e-10
-2.18261e-09
1.6918e-09
8.28493e-10
-2.14101e-09
9.9053e-09
-1.14939e-08
-3.61274e-10
-1.90146e-10
6.60939e-11
-8.79935e-09
1.01821e-08
-9.50326e-09
1.20494e-08
-1.70837e-08
4.90503e-09
1.2926e-10
8.17605e-11
-1.97688e-10
-2.45347e-10
2.42572e-10
8.72657e-10
-1.61979e-10
-5.95707e-08
7.42782e-08
-1.47075e-08
1.1209e-09
-3.33544e-10
-1.28308e-09
4.95725e-10
1.1216e-09
1.03182e-08
-1.37317e-08
2.29196e-09
-1.14531e-09
7.19615e-09
-8.66024e-09
2.60941e-09
-6.53537e-09
5.75164e-09
5.53107e-09
-4.74734e-09
-7.24778e-09
-2.09863e-09
2.02832e-09
7.31809e-09
-1.82404e-10
-9.0926e-08
9.13112e-08
-2.02808e-10
-2.57333e-10
-8.97647e-08
9.01724e-08
-1.50344e-10
8.30927e-08
-1.4977e-09
1.14274e-10
-8.17092e-08
-3.11305e-09
-2.40958e-10
7.70574e-10
8.9867e-10
-5.48347e-10
4.00321e-09
-1.54295e-09
3.32182e-09
-5.78208e-09
-1.0703e-09
9.79326e-10
-1.49766e-08
6.61583e-09
9.40875e-09
9.93172e-10
-1.01228e-08
-2.79146e-10
-6.25286e-09
1.30604e-08
1.34218e-09
-8.14976e-09
1.43288e-08
-4.23847e-09
3.42857e-09
-1.35189e-08
1.5424e-08
1.72519e-09
-1.72042e-09
-4.05076e-10
-1.99829e-08
-7.25677e-09
2.76448e-08
1.3932e-08
-8.40255e-09
-2.1123e-09
7.7452e-09
-1.18858e-08
-8.10486e-11
1.9087e-10
-1.3929e-09
-3.63877e-08
-2.3183e-08
8.11022e-09
1.22125e-10
3.81708e-09
-7.01157e-09
1.08331e-08
6.36053e-09
-6.65059e-10
3.72728e-10
5.36234e-10
-2.43903e-10
5.8853e-09
-4.6732e-09
3.58452e-09
-4.79662e-09
-5.78918e-10
-6.91681e-10
2.92954e-10
7.65407e-10
-7.04388e-10
-1.03207e-10
-1.0501e-09
8.994e-10
-1.77827e-08
2.48541e-09
1.49154e-09
1.38057e-08
2.74901e-10
-7.81455e-10
-1.58505e-10
-3.95509e-09
-1.48961e-08
1.06856e-09
5.65691e-09
1.18777e-08
-5.23196e-09
-1.23026e-08
1.64634e-08
5.97653e-10
-1.59317e-08
-1.12936e-09
-7.49213e-10
5.21715e-10
6.00226e-10
-6.88135e-10
3.62005e-10
3.2613e-10
-7.21255e-09
-3.71485e-09
4.39203e-09
-3.16718e-10
4.6786e-10
-1.51142e-10
1.30407e-09
-1.54058e-08
-8.38807e-10
9.24412e-09
-1.05463e-08
-1.0875e-09
-7.91342e-10
1.27e-08
4.38989e-09
-4.13161e-09
-1.29582e-08
1.97888e-10
7.02198e-09
-7.74424e-09
6.4739e-09
-1.84091e-09
-8.64605e-09
7.93578e-09
2.55118e-09
-1.79465e-09
6.20824e-10
-1.37223e-08
-1.87296e-10
-1.29423e-10
-2.09164e-10
1.0442e-09
-8.08281e-09
7.3812e-10
1.73224e-08
-1.59716e-09
-1.32114e-08
1.44937e-08
-1.28232e-09
1.20736e-08
1.4065e-08
-1.55851e-08
-1.05534e-08
-7.00636e-10
1.22242e-09
-5.21783e-10
9.24523e-10
-1.10752e-09
1.82997e-10
1.44519e-09
-1.86086e-09
4.15669e-10
1.66964e-09
-1.37869e-09
-2.90948e-10
-1.10965e-08
5.39241e-10
1.05573e-08
2.36148e-09
-6.91842e-10
8.91167e-09
-1.52624e-08
6.91806e-09
-8.27254e-09
5.90882e-11
3.875e-09
-4.01209e-10
-2.70745e-09
2.76654e-09
-7.00964e-09
8.33565e-09
-1.32602e-09
-7.59062e-10
4.15455e-09
6.07731e-10
1.72487e-08
-1.45116e-08
-1.61553e-09
-5.6615e-09
5.24686e-09
-1.12832e-09
-2.32777e-10
6.29236e-09
-6.31857e-09
2.62112e-11
7.0108e-09
4.40557e-09
1.33181e-10
-1.59763e-08
1.04624e-08
1.75875e-08
5.70496e-09
8.32782e-09
8.25433e-09
-6.82793e-09
1.05582e-09
-1.21523e-08
9.62649e-10
5.72003e-10
-1.27825e-08
3.20325e-09
-4.36715e-10
1.24732e-08
-1.18756e-08
-1.70902e-10
-9.79836e-10
-1.37719e-08
7.30532e-09
8.5684e-10
-3.35405e-11
-8.91988e-09
5.14434e-09
-3.09298e-08
-1.25132e-08
-2.6215e-09
1.36279e-09
1.39262e-08
1.09464e-08
-1.0656e-08
-1.42166e-08
1.57286e-08
-3.11861e-09
-1.261e-08
1.68182e-09
3.89443e-09
-1.33167e-09
-9.53196e-10
-9.73262e-10
1.28946e-09
6.36999e-10
-2.77551e-10
4.03455e-10
4.1033e-10
6.21366e-08
-6.21615e-08
2.49477e-11
6.20569e-08
-6.23608e-08
3.03922e-10
8.37048e-10
6.47508e-08
-6.5579e-08
8.28202e-10
6.41415e-08
6.09268e-10
-2.24268e-10
-6.65263e-08
9.47325e-10
-6.20438e-08
6.19104e-08
1.33373e-10
1.31848e-09
-6.78448e-08
-6.22026e-08
1.58758e-10
1.22604e-08
-9.87899e-10
1.59691e-09
-3.71414e-09
3.10513e-09
3.98344e-10
-1.25968e-09
1.07706e-09
-7.42991e-10
1.46029e-09
-1.72412e-09
1.00681e-09
1.50695e-09
-1.65779e-09
3.41711e-10
-8.65949e-11
-3.35924e-09
2.98332e-09
-2.23104e-09
2.60696e-09
-7.29082e-10
-2.83419e-09
2.57537e-09
-3.76682e-09
-5.65372e-09
6.33297e-10
-7.0789e-10
1.37301e-09
1.16435e-09
-6.5791e-09
8.00647e-09
2.9782e-09
2.00967e-08
-4.36802e-09
-7.89059e-10
2.99265e-10
1.12309e-09
-1.00536e-08
-2.63341e-08
5.43657e-09
-4.42458e-09
-3.12277e-09
2.11078e-09
1.27722e-10
1.74408e-11
4.66126e-10
-2.73747e-09
3.4607e-09
8.73123e-09
8.59588e-10
-4.63567e-10
2.18952e-09
-2.45503e-09
2.13209e-09
1.47704e-08
1.32207e-08
-2.69901e-08
3.25745e-08
6.23749e-09
-2.28564e-08
-1.03712e-08
1.82286e-08
-1.77844e-08
1.05022e-08
-2.09249e-10
-7.95003e-11
-1.36904e-09
-1.84597e-09
-2.80744e-09
3.88533e-09
1.48345e-08
-5.98493e-10
-1.36151e-08
-2.01049e-10
-2.68269e-09
4.95552e-11
1.54402e-08
1.75587e-08
1.36581e-08
6.88492e-10
-1.57028e-09
-1.27763e-08
-1.77305e-09
6.01899e-09
1.23379e-08
-6.9144e-10
-1.18944e-09
-3.54155e-09
2.73715e-09
3.78772e-09
2.44199e-09
1.42508e-08
4.14536e-09
-1.40063e-08
1.76734e-08
-1.77035e-09
2.74508e-09
-3.56668e-09
1.87925e-09
-4.67361e-09
1.29163e-08
-1.2013e-08
-1.39583e-08
5.10562e-10
8.77413e-09
-1.88037e-09
1.57758e-09
1.6758e-09
-8.68622e-09
6.36281e-10
-4.46323e-09
-6.05313e-09
1.22151e-08
-1.48482e-08
1.31596e-09
1.66631e-09
-2.208e-09
1.65611e-08
-1.60194e-08
-9.86097e-10
1.40457e-08
2.90234e-09
-4.20644e-09
-1.39583e-08
7.3694e-09
-1.7123e-08
-8.03088e-09
6.59616e-09
5.86029e-09
1.44095e-08
-9.70376e-09
3.11659e-09
9.13835e-09
9.87416e-09
3.83727e-09
-4.13167e-09
2.15152e-08
-1.89115e-08
4.76568e-09
-1.02334e-08
2.21151e-09
5.51976e-09
1.36452e-08
-1.18856e-10
1.26395e-08
-1.35067e-08
-1.7794e-09
2.26902e-09
-1.34605e-09
8.56428e-10
1.08684e-08
-6.38645e-09
7.39576e-09
-1.06365e-08
1.39626e-09
-4.75281e-09
1.13174e-08
-1.17966e-08
-7.50455e-09
9.05926e-09
9.31364e-09
1.27379e-08
8.64389e-10
-1.37212e-08
1.62988e-09
8.23929e-10
-1.096e-08
-6.71501e-09
1.01705e-08
-1.64814e-09
2.52223e-09
-8.88808e-09
4.80394e-09
-5.15341e-09
1.13751e-08
-3.49179e-09
-1.15621e-08
3.67876e-09
-4.50967e-09
1.11319e-08
2.03336e-09
1.17409e-09
-5.06025e-09
-1.75485e-08
1.03863e-08
1.22225e-08
8.29323e-10
-1.08452e-08
-9.82019e-09
1.56051e-08
1.23679e-08
2.79084e-09
-9.639e-09
-1.32381e-08
-2.7883e-10
-1.26478e-08
2.10661e-10
-7.11138e-10
1.14166e-08
1.2446e-08
-8.18099e-09
1.6376e-08
-1.57551e-08
3.52449e-09
-4.48224e-10
1.70547e-09
1.25485e-08
-3.87548e-09
-1.25587e-08
-5.12162e-09
1.12411e-09
4.56951e-09
1.20229e-08
-7.33293e-09
8.07064e-10
-1.37349e-09
1.30004e-09
-1.70596e-09
5.99814e-09
2.60193e-08
-3.49186e-10
-1.12744e-08
1.16236e-08
2.83635e-08
-2.214e-08
2.19495e-08
1.95101e-08
-1.26384e-08
-2.63964e-09
1.4915e-08
2.13017e-10
-1.2118e-08
-3.16767e-10
-6.02904e-09
-1.93032e-09
2.32857e-09
1.63511e-09
-1.23718e-10
-1.08957e-08
1.11622e-08
-1.42705e-10
2.95187e-09
-5.46408e-09
-1.07535e-08
1.03783e-08
-8.08148e-10
-1.05395e-08
-7.84609e-11
-1.08525e-08
-2.77241e-09
-1.18957e-08
2.24318e-09
7.83789e-09
5.1133e-09
-3.18313e-11
-1.1643e-08
1.15511e-08
6.43147e-10
-8.59472e-09
5.24251e-09
-1.17468e-09
2.56298e-09
-2.81236e-09
-1.30042e-08
-1.3037e-08
1.26559e-08
-1.02069e-08
-1.57985e-08
1.0029e-08
9.13425e-09
8.65562e-10
2.59104e-09
-1.38655e-08
1.11088e-08
1.70403e-09
4.00433e-09
3.51156e-10
-5.85571e-10
-3.44503e-10
-4.05963e-09
2.65121e-09
-1.27427e-09
2.84997e-10
-3.33481e-10
4.84844e-11
-2.58219e-09
1.27891e-08
2.16097e-09
2.56682e-09
-6.18432e-10
-1.67974e-09
-2.45731e-10
-2.49136e-09
-5.57421e-10
1.27684e-08
9.87294e-09
-4.29568e-10
7.0019e-09
-1.20619e-09
-5.36614e-09
-9.68096e-09
-5.07667e-09
2.21084e-10
6.3913e-11
4.79838e-09
1.32332e-09
-1.69669e-08
-5.09397e-10
-8.73724e-10
-2.61611e-09
9.56418e-10
2.75335e-09
6.19357e-08
-8.77665e-11
-6.1848e-08
6.23522e-08
1.8759e-10
-6.25398e-08
-1.41895e-08
-9.53603e-12
1.45524e-08
-3.53284e-10
2.85802e-09
-1.98866e-09
2.71679e-09
1.7941e-09
-4.40495e-09
-4.35753e-10
-6.041e-10
4.89811e-10
-1.29614e-10
5.52638e-10
-3.91629e-10
1.9325e-08
1.11506e-09
-1.56417e-08
-2.49825e-10
-1.95318e-09
1.22648e-08
2.23683e-09
1.75707e-09
5.2553e-09
-1.9649e-09
-7.72354e-08
-2.41775e-08
-4.78246e-09
1.57602e-08
2.32932e-09
-5.21045e-10
-3.24459e-09
-1.28297e-09
5.79966e-10
-4.86434e-10
-1.12564e-08
-3.19804e-10
1.15762e-08
-1.07081e-08
-6.64272e-09
1.06358e-08
-9.34146e-09
8.7812e-09
-2.53138e-12
1.75051e-09
1.07385e-08
-1.05477e-08
-1.90769e-10
6.96891e-10
7.61028e-11
1.01525e-08
9.31226e-10
-1.02646e-09
-2.59037e-10
-1.42451e-08
-5.1788e-10
-1.35735e-08
1.23516e-08
-1.16476e-08
-6.59918e-08
6.49481e-08
1.04373e-09
3.79578e-10
-3.62137e-10
1.17737e-08
-3.48545e-10
1.5063e-11
-2.02635e-09
2.77849e-09
-3.41759e-09
-1.35105e-08
-1.65505e-09
2.57224e-09
-4.75924e-09
-1.39071e-08
1.6994e-09
5.60516e-09
9.51028e-09
-8.84424e-09
-3.77275e-10
2.87307e-11
-9.34621e-09
-1.30215e-08
1.49678e-10
-6.27096e-08
2.38122e-10
6.24714e-08
6.96661e-10
6.34449e-08
-2.25784e-10
-1.23733e-09
-1.4417e-08
1.06242e-10
-6.33744e-08
6.32682e-08
1.81134e-10
-6.29238e-08
6.27426e-08
4.68428e-10
6.18049e-08
1.51923e-10
-6.19569e-08
6.16349e-08
1.70035e-10
-8.79064e-08
8.85158e-08
-9.12963e-14
9.33974e-08
-9.31052e-08
-2.6719e-10
-8.66457e-08
-4.3253e-10
9.33565e-08
-1.83376e-10
-8.4931e-08
-7.67343e-10
9.34871e-08
1.73298e-10
-5.19876e-10
1.96119e-09
9.2363e-08
-6.93425e-08
6.21488e-08
-6.23311e-08
-6.29669e-08
6.14913e-08
1.4357e-10
-3.01172e-09
2.82286e-09
-1.38175e-08
7.06411e-11
1.50442e-10
1.93602e-09
9.0553e-09
-1.14855e-08
3.82972e-08
-3.44613e-08
-1.66183e-08
1.37818e-08
-6.57154e-11
-2.22988e-10
2.38479e-10
8.47235e-10
-1.61049e-10
3.73307e-10
4.59895e-09
1.02808e-09
-3.74778e-09
-3.06395e-10
3.59073e-10
-2.40301e-10
-2.47477e-09
1.29482e-08
2.31569e-09
-1.44503e-08
-2.51353e-09
-3.54489e-09
5.65477e-09
1.05495e-09
-2.64983e-09
1.42036e-08
-1.16755e-09
-3.09812e-09
4.20145e-09
-8.16503e-09
-1.90594e-08
-1.32396e-08
7.77368e-09
5.97647e-09
-2.89984e-10
-5.31926e-10
3.15048e-09
1.44266e-08
2.093e-09
-1.62952e-09
-4.46922e-10
4.91822e-10
-2.77677e-10
1.60035e-08
-4.98829e-10
-1.58245e-08
-1.95161e-09
-1.52405e-09
2.99403e-10
-2.27523e-10
3.54348e-09
-1.70938e-08
5.73261e-10
-1.64603e-09
-2.25668e-09
-2.40456e-09
1.53599e-08
-9.06046e-08
-1.40302e-10
9.16907e-08
-1.9188e-10
-8.91805e-08
-4.77966e-10
9.31102e-08
-2.75104e-10
-9.29228e-08
-5.96559e-10
-1.74131e-09
1.64216e-08
9.19923e-08
-1.94087e-10
3.19234e-11
-2.20836e-10
1.02807e-08
2.47743e-09
-8.46105e-09
-1.19933e-08
-5.67263e-09
8.46273e-09
1.40603e-09
-6.89057e-09
-6.17738e-09
9.01495e-09
-1.58541e-10
1.01577e-08
1.93859e-08
-1.7776e-08
3.04999e-09
-1.25305e-08
3.02175e-09
-6.99512e-08
3.9594e-09
-2.03834e-08
-1.30322e-08
-5.60375e-10
-5.94008e-09
-1.53251e-08
9.14714e-09
-1.52273e-08
5.22608e-10
4.41479e-10
-1.66431e-09
-1.63121e-08
1.6849e-08
8.15807e-09
-8.39903e-09
-5.2375e-09
1.51402e-08
-1.7141e-09
7.77504e-10
-1.29557e-09
3.78649e-10
1.1924e-08
3.33874e-09
7.09394e-08
-1.8086e-08
8.65749e-10
-1.4808e-08
-2.75625e-10
-3.2244e-10
-1.17954e-10
6.09538e-08
-6.12289e-08
-6.33425e-08
-6.31179e-08
-6.24217e-11
-2.62399e-10
-9.2598e-08
-6.04557e-08
6.24169e-08
6.50624e-08
-6.02824e-08
6.45425e-08
-6.04658e-08
6.37751e-08
-6.0733e-08
6.33426e-08
9.23211e-08
3.44343e-10
-6.43186e-09
7.51091e-08
-6.53385e-08
7.68135e-11
-7.68135e-11
1.16868e-09
-3.60383e-10
1.54989e-08
-7.93752e-11
7.93752e-11
4.26587e-10
1.57066e-09
1.38581e-08
1.32159e-08
-2.77623e-09
3.75454e-09
6.34095e-09
1.94015e-09
4.27401e-10
-2.99572e-10
-2.94865e-09
1.44748e-08
1.48375e-08
-4.26851e-09
1.17843e-08
2.31118e-10
1.83866e-10
2.89728e-09
-9.51848e-10
-1.67915e-09
-5.89524e-09
-1.67988e-10
-4.5018e-10
1.52782e-08
3.20562e-10
1.18513e-10
1.53103e-08
-2.5933e-08
1.74799e-08
2.60565e-09
1.39971e-09
2.40237e-09
-3.68171e-09
1.91368e-08
-1.78575e-08
-1.10483e-10
5.79227e-10
-1.44348e-09
-7.9222e-08
-7.0786e-08
1.42259e-09
-8.66484e-10
6.96448e-10
2.28481e-08
1.84873e-08
-6.41786e-09
1.066e-10
-4.41779e-09
-2.37261e-09
2.99899e-08
1.53477e-10
1.48185e-08
7.35818e-08
7.91661e-11
5.44491e-10
-1.94263e-10
-2.576e-10
-3.79092e-09
2.41774e-08
-1.48398e-08
1.13534e-09
-1.39778e-08
-7.36282e-11
2.02703e-08
-2.86869e-08
9.06573e-10
2.24983e-09
-5.14436e-10
)
;

boundaryField
{
    back
    {
        type            empty;
        value           nonuniform 0();
    }
    ingreso
    {
        type            calculated;
        value           nonuniform List<scalar> 
14
(
-1.54286e-08
-1.54288e-08
-1.54288e-08
-1.54288e-08
-1.54286e-08
-1.54283e-08
-1.54288e-08
-1.54288e-08
-1.54286e-08
-1.54286e-08
-1.54288e-08
-1.5428e-08
-1.5428e-08
-1.54286e-08
)
;
    }
    salida
    {
        type            calculated;
        value           nonuniform List<scalar> 2(1.01413e-07 1.14587e-07);
    }
    front
    {
        type            empty;
        value           nonuniform 0();
    }
    defaultFaces
    {
        type            calculated;
        value           uniform 0;
    }
}


// ************************************************************************* //
