/*--------------------------------*- C++ -*----------------------------------*\
  =========                 |
  \\      /  F ield         | OpenFOAM: The Open Source CFD Toolbox
   \\    /   O peration     | Website:  https://openfoam.org
    \\  /    A nd           | Version:  7
     \\/     M anipulation  |
\*---------------------------------------------------------------------------*/
FoamFile
{
    version     2.0;
    format      ascii;
    class       volVectorField;
    location    "59";
    object      U;
}
// * * * * * * * * * * * * * * * * * * * * * * * * * * * * * * * * * * * * * //

dimensions      [0 1 -1 0 0 0 0];

internalField   nonuniform List<vector> 
591
(
(0.000824928 -2.96863e-05 1.21825e-18)
(0.000811755 -2.6396e-05 -6.63803e-19)
(0.000856527 -1.84529e-05 5.69039e-20)
(0.000854264 -5.89932e-06 -1.49159e-19)
(0.000837316 7.24568e-06 2.25507e-19)
(0.000800999 -4.07475e-05 -1.39656e-19)
(0.000554238 -0.00031636 8.06498e-19)
(0.00080215 3.51346e-06 2.06505e-18)
(0.00573522 0.0024966 9.87767e-19)
(0.000795101 -1.47114e-05 2.4546e-18)
(5.08252e-05 0.000171956 1.21848e-18)
(0.000924181 0.00137225 9.41051e-21)
(0.000797901 6.01438e-06 1.32122e-18)
(0.0016021 0.00238401 -7.87799e-19)
(0.000803011 3.724e-06 -4.38644e-19)
(7.63126e-05 -0.000215572 2.47167e-22)
(0.000135209 0.000677102 7.05105e-19)
(0.000819095 5.71374e-05 -4.89682e-19)
(0.00193665 0.000389312 4.73408e-19)
(0.00135621 0.000256868 -2.47166e-19)
(0.00083331 -2.41666e-06 3.72076e-19)
(0.00340012 0.00655908 -8.15243e-20)
(2.90139e-05 7.1659e-05 2.70996e-19)
(0.00083402 -1.05208e-05 -4.50586e-19)
(1.2821e-05 -1.75154e-05 3.59004e-19)
(0.000767474 3.07322e-05 0)
(9.24766e-05 0.000476242 1.59989e-19)
(0.0005363 1.55663e-05 -1.7888e-19)
(0.0007517 4.90003e-05 1.14978e-18)
(0.000813925 4.05625e-05 5.92519e-19)
(5.98454e-05 -3.07559e-06 -3.97956e-24)
(3.57717e-05 -4.82744e-05 3.52251e-19)
(3.88981e-05 -3.29633e-06 -4.64323e-20)
(4.76003e-05 -1.16027e-05 0)
(5.67381e-05 -1.33636e-05 1.1317e-18)
(0.00117383 0.000129852 1.79942e-19)
(3.32938e-05 -5.77626e-06 4.47239e-20)
(0.000827012 8.2738e-06 3.08027e-23)
(2.86882e-05 4.53081e-05 2.66083e-19)
(2.28786e-05 -0.000112462 -8.54869e-19)
(0.000623302 -0.000203552 9.60255e-19)
(2.69679e-05 -7.33577e-06 4.54919e-20)
(0.000797908 -1.36811e-06 -1.57994e-18)
(0.000828959 3.76236e-05 -6.89593e-19)
(1.86462e-05 -8.68435e-06 0)
(5.68983e-05 7.86873e-06 8.52043e-20)
(0.00134297 0.00450527 8.93076e-19)
(7.83092e-05 1.77185e-05 8.63793e-20)
(0.000799092 1.76913e-05 0)
(0.000378224 -0.000194397 6.77822e-19)
(0.00037878 0.000275503 5.12e-21)
(0.000391336 5.46649e-05 -1.00399e-18)
(0.00634832 0.010942 -7.68374e-19)
(0.00622519 0.0107973 1.5278e-20)
(0.00561465 0.0103806 1.45566e-18)
(0.000810426 2.28582e-05 0)
(6.87926e-05 3.26494e-05 0)
(0.000317904 1.95682e-05 1.28105e-23)
(6.50848e-05 1.16976e-05 -3.46527e-19)
(0.000816754 -8.13968e-06 0)
(0.000629639 2.85503e-05 3.17635e-19)
(0.000829512 3.89261e-06 2.21008e-18)
(0.000794405 2.38281e-05 -5.43953e-19)
(0.00079861 1.65818e-05 -3.15818e-19)
(0.00171414 0.000475123 5.42341e-19)
(0.000794574 9.18255e-06 -1.15556e-18)
(0.000824835 1.29682e-05 -5.24232e-19)
(8.38408e-05 -9.93966e-07 -1.73446e-19)
(0.000688271 0.00226595 0)
(0.000831696 3.26341e-05 0)
(0.000773226 1.53822e-05 -1.39075e-18)
(3.94495e-05 1.69144e-05 0)
(0.000286898 0.000272461 3.26898e-19)
(4.27819e-05 -1.79664e-05 0)
(4.37763e-05 -6.10336e-06 1.59504e-19)
(1.92806e-05 -4.75124e-05 -3.36743e-20)
(0.00078541 7.4482e-05 2.47026e-19)
(4.58979e-05 1.14928e-05 0)
(0.000796389 5.69184e-05 4.4743e-19)
(0.000767062 0.000294279 2.10768e-19)
(0.000965082 6.11198e-05 -3.9802e-20)
(4.44013e-05 2.42262e-05 -4.51952e-20)
(6.20635e-06 -2.70535e-05 0)
(0.000430142 0.000218625 1.70215e-19)
(2.83815e-06 2.49801e-05 0)
(0.000783484 3.43695e-05 -6.07823e-19)
(0.000595793 -0.000120747 0)
(6.72956e-05 -6.48551e-07 -1.74514e-19)
(4.00844e-06 -3.69782e-05 0)
(0.000823889 0.000243632 -3.41335e-19)
(4.25201e-06 -1.62668e-05 0)
(0.000420572 0.000324048 -1.28895e-23)
(0.000524901 0.000113282 0)
(0.000802221 4.68255e-05 -3.60601e-24)
(2.86739e-06 1.6082e-05 -4.21797e-20)
(0.000448954 -8.14186e-06 1.76391e-18)
(0.00102397 7.23958e-05 4.16121e-20)
(0.00085494 4.36734e-05 6.41041e-22)
(0.000735022 0.000657339 2.69547e-19)
(6.49524e-06 5.2172e-05 0)
(2.53547e-06 -5.89464e-05 -3.12275e-19)
(-1.29031e-05 -0.00010851 -1.10019e-18)
(3.67216e-06 8.25493e-05 -5.96361e-19)
(0.000636905 -1.73834e-05 0)
(7.66347e-06 0.000107841 0)
(0.000804865 2.074e-05 2.1956e-18)
(0.000782198 2.14494e-05 1.52989e-18)
(0.000418139 -6.93907e-05 0)
(4.43092e-05 0.00022169 -8.95536e-19)
(-7.24661e-07 0.000176061 4.96624e-19)
(6.49047e-05 0.000420489 6.25145e-19)
(0.000303125 8.85315e-05 -9.3727e-19)
(0.000803337 1.93756e-05 1.37368e-19)
(0.000262481 -3.28616e-05 5.31329e-19)
(4.07301e-06 3.52735e-05 0)
(2.40485e-05 0.000293066 -1.09397e-18)
(0.000318289 0.000325565 -1.61729e-19)
(3.09704e-06 -4.74468e-05 1.46533e-19)
(0.000669582 0.000812877 0)
(0.000365941 0.000389671 5.74507e-20)
(0.000812423 1.06866e-05 1.07044e-18)
(0.000798514 1.00735e-06 -2.69796e-18)
(6.82376e-06 -6.36043e-05 0)
(0.000684468 -2.9718e-05 -1.12343e-19)
(0.000320048 -0.000100681 1.24349e-18)
(0.00264982 0.000801084 -3.36074e-19)
(4.46031e-06 0.000138436 -6.13184e-19)
(2.65479e-06 0.00016874 1.61936e-18)
(0.000732455 2.10189e-05 -3.89956e-20)
(6.58946e-05 -1.23852e-05 -7.50319e-19)
(0.000803066 2.53642e-05 -3.88379e-19)
(0.000780609 2.60926e-05 -4.10444e-20)
(4.02882e-05 0.00033939 -5.9686e-19)
(0.000481141 7.09159e-05 -4.94025e-19)
(5.0741e-05 -3.00448e-06 1.56185e-19)
(0.000828881 2.35536e-05 -1.09164e-18)
(0.00157488 0.000236758 -1.13681e-18)
(3.74964e-06 6.62113e-05 4.96442e-19)
(0.000807821 2.29286e-05 -4.95519e-19)
(0.000904311 0.000540778 -7.85248e-20)
(0.000141756 0.000798476 0)
(0.000575621 6.54922e-05 0)
(0.000274463 5.7016e-05 -1.60999e-18)
(6.44332e-05 6.01237e-05 -1.37436e-18)
(3.18079e-05 2.139e-05 0)
(0.00424716 0.00740012 -1.01956e-20)
(0.00422554 0.00737178 3.16367e-20)
(0.00442772 0.00757454 -4.95992e-21)
(0.0042067 0.00773583 0)
(0.00419907 0.00760152 5.77109e-19)
(0.00424436 0.00740125 -9.19679e-20)
(0.00421033 0.00804376 4.84333e-19)
(0.00428944 0.00742181 0)
(0.00420852 0.0085372 6.16614e-19)
(0.00432589 0.00745023 2.2386e-19)
(0.000819169 2.18693e-06 -1.37325e-18)
(0.000764271 5.16157e-05 0)
(0.000214887 5.68437e-05 1.27714e-19)
(5.1769e-05 1.67421e-05 8.72019e-20)
(7.91738e-05 4.64405e-05 6.80151e-19)
(0.000107252 4.32025e-05 -3.41734e-19)
(0.000102074 7.24688e-06 0)
(4.98067e-05 5.45333e-06 8.18533e-20)
(0.000205579 0.000135919 0)
(0.00016678 4.58693e-05 -5.24371e-20)
(0.000341497 0.000224753 -5.0934e-21)
(5.6938e-05 4.42759e-05 -4.3774e-19)
(9.21082e-05 2.90579e-05 -8.52639e-20)
(9.14423e-05 6.36377e-05 1.3122e-21)
(0.000253368 0.000368133 -6.6628e-19)
(0.000106636 0.00101027 0)
(4.28945e-05 5.39272e-05 3.43129e-19)
(0.000203507 0.00175537 0)
(0.000207267 0.000255434 7.04779e-19)
(3.96508e-05 -4.11021e-06 1.11518e-19)
(0.000479237 0.000165599 -1.72333e-19)
(0.000756096 2.52306e-05 -1.92452e-18)
(4.43005e-05 -1.0517e-06 4.36111e-24)
(0.000150135 2.73455e-05 2.24631e-19)
(0.00024302 9.59674e-05 -8.99495e-20)
(0.000880796 0.000708102 3.34998e-19)
(0.000718022 0.00163258 -9.23751e-21)
(0.000388679 0.00142676 -9.39274e-21)
(0.00102203 0.000550504 0)
(0.000104974 -1.42082e-05 1.11894e-18)
(0.000117803 1.82104e-05 -4.43235e-20)
(0.000448114 -0.000286745 -1.13607e-18)
(0.000810004 3.59382e-05 0)
(0.000182818 7.08832e-06 3.63365e-19)
(0.000300652 0.00131872 0)
(0.00106949 0.000770322 -7.30328e-20)
(0.000825477 3.51134e-05 -1.86482e-19)
(8.00197e-05 -2.0477e-05 -3.00043e-19)
(0.000822842 0.000320284 -2.08089e-20)
(6.02178e-05 -2.15254e-05 -5.99627e-19)
(0.000226083 0.00017781 8.64025e-20)
(0.00022877 0.000310288 -3.45069e-19)
(0.000881186 0.000245684 0)
(0.000810806 4.92458e-05 0)
(0.000261982 0.00014029 1.76878e-19)
(0.000234274 6.20184e-06 2.2338e-24)
(0.000184388 0.000208021 0)
(0.00029012 0.000654539 -5.55789e-21)
(0.000343385 1.29497e-06 0)
(0.000364811 0.000600936 0)
(0.000109971 8.4445e-05 -1.34696e-21)
(0.000809796 2.41819e-05 -9.39815e-19)
(0.000809045 1.86543e-05 7.95404e-19)
(0.000129906 5.99735e-05 -1.49885e-19)
(0.000953439 0.000151859 8.50773e-20)
(0.00083408 4.44244e-05 3.32985e-19)
(0.000813604 2.4405e-05 -2.92471e-19)
(0.00101299 0.000410825 0)
(0.00043539 0.000122119 6.24558e-19)
(0.000894083 0.000319111 2.0918e-20)
(0.000571644 0.000158328 0)
(0.000271542 0.000446764 4.09705e-19)
(0.000260959 0.000219371 -8.4432e-20)
(0.00109386 0.000376409 -7.82254e-19)
(0.000617687 0.000106738 -1.79329e-19)
(0.000804643 7.32782e-05 -7.45105e-21)
(0.000837091 2.96806e-05 9.39583e-20)
(8.41684e-05 -8.8037e-05 -1.98176e-18)
(0.000735405 0.000382262 2.19274e-19)
(0.000662292 6.22019e-05 2.30666e-20)
(0.000702883 0.000278901 1.59461e-23)
(0.000725793 0.00045847 -4.09721e-19)
(0.000842538 3.34848e-05 9.06557e-20)
(7.28993e-05 8.19376e-05 0)
(0.000652455 0.000418043 -4.65925e-20)
(0.000184053 9.85016e-05 0)
(0.000373796 0.000502006 -2.64877e-19)
(0.000309468 0.000170476 0)
(0.000671067 0.000203494 3.553e-19)
(0.000645315 0.000260874 -4.37338e-20)
(8.19237e-05 0.000105533 6.19276e-19)
(0.000874386 9.15875e-05 -1.61878e-18)
(5.91922e-05 2.30889e-05 2.57242e-19)
(0.000881475 6.40648e-05 -1.68374e-18)
(0.000836104 8.63946e-05 1.63081e-19)
(0.00080732 3.05253e-05 1.89579e-18)
(0.000810677 3.10773e-05 -1.31428e-19)
(0.000731473 7.32818e-05 0)
(0.000806186 2.81227e-05 8.95815e-19)
(0.000952709 0.0002293 -4.27193e-19)
(0.000766743 9.02215e-05 -4.83788e-19)
(0.000775925 0.000229327 -8.81409e-20)
(0.000219424 -0.000152951 -2.07988e-18)
(0.000740056 8.17989e-05 8.87629e-19)
(0.000639005 0.000596777 0)
(9.95932e-05 -0.000113128 0)
(0.00121329 0.00047099 4.97251e-19)
(0.000656575 -6.36468e-05 -3.24276e-18)
(0.00133619 0.000423784 5.76278e-19)
(0.00123413 0.000718656 -6.38484e-20)
(0.000807152 3.13325e-05 -2.1077e-19)
(0.000831104 6.77863e-05 -1.42446e-18)
(0.000814058 2.29226e-05 1.57159e-18)
(0.000815696 2.94279e-05 9.68557e-20)
(0.000667574 0.000350713 -4.40484e-20)
(0.00010255 0.000126322 5.23248e-24)
(0.000743819 -4.50866e-05 2.65145e-19)
(0.000222516 -0.000250808 -7.33049e-19)
(0.000617592 0.000187669 0)
(0.000701959 4.04714e-05 9.90619e-20)
(0.000683823 1.03004e-05 -3.80893e-19)
(0.000386337 0.000173165 3.93432e-20)
(0.000802189 0.000503268 -1.65503e-19)
(0.000150113 7.84411e-05 2.94945e-25)
(0.000808798 0.000408432 0)
(0.000974859 0.000320027 4.15856e-20)
(0.000749281 -8.03267e-05 -6.16427e-19)
(0.000345524 0.000108631 4.97885e-19)
(0.000902347 0.000423663 0)
(5.05805e-05 3.24518e-05 1.33737e-19)
(0.00047937 0.000269501 2.13987e-19)
(0.00049095 -0.000139408 -7.0961e-19)
(0.000144791 -0.00015399 -1.05826e-18)
(0.000821519 2.86296e-05 -4.86983e-19)
(0.000782845 -9.67007e-05 -1.94284e-19)
(0.000552117 0.000727604 -1.17457e-18)
(0.00084233 4.60641e-05 -6.74146e-20)
(0.000656697 -2.61791e-05 1.26483e-18)
(0.000694701 9.93868e-05 2.27829e-20)
(0.000526386 0.000211899 -1.65713e-19)
(3.37327e-05 -2.26306e-05 -8.76005e-20)
(0.000173804 -3.90771e-05 2.40656e-18)
(2.07138e-05 8.03318e-07 -1.94869e-19)
(0.000819676 0.000108675 3.63803e-19)
(0.000655314 0.000137194 0)
(0.000190885 -7.76307e-05 -1.0483e-18)
(0.000123995 -1.46844e-05 3.12969e-19)
(0.000114036 -3.45715e-05 9.17379e-24)
(0.000793064 0.000108059 -3.19326e-19)
(0.000155128 -9.7253e-06 0)
(0.000580503 0.000242806 0)
(0.000111186 0.000332349 -3.62909e-19)
(0.000855231 0.000100017 2.09534e-18)
(1.68906e-05 1.26685e-06 0)
(0.000873346 5.18686e-05 0)
(4.61869e-05 -2.62581e-05 0)
(0.00081496 4.26457e-05 -4.46031e-21)
(0.000792545 -5.05956e-05 0)
(0.00425992 0.00740629 8.06837e-20)
(0.00436145 0.00748591 1.43271e-19)
(0.000843716 -2.15277e-06 0)
(0.00077974 -5.17334e-05 8.10622e-19)
(0.000153043 0.000127704 1.49234e-19)
(0.000848633 7.04684e-05 8.07768e-19)
(0.000131001 0.000104377 2.34437e-20)
(0.000773983 -3.1186e-05 6.25026e-19)
(3.62347e-05 1.02901e-05 0)
(3.0456e-05 -1.44219e-05 -4.48567e-20)
(0.000890487 4.9866e-05 -4.86672e-19)
(3.63049e-05 -3.3213e-05 -6.69932e-19)
(0.000751085 0.000119955 -4.23327e-20)
(0.000168123 0.000165434 -1.8813e-19)
(0.000813536 2.45919e-05 0)
(0.00468263 0.00815371 9.01037e-22)
(0.000174657 0.000786161 3.33589e-19)
(0.000122559 -5.53383e-05 -9.14697e-19)
(6.45427e-05 -3.51847e-05 -1.16897e-18)
(0.000668967 1.49429e-05 1.89894e-20)
(0.000578774 0.000410172 0)
(0.00041481 0.000440948 -2.56372e-19)
(9.06998e-05 -5.81519e-05 1.18388e-18)
(0.000626598 1.00514e-06 7.70407e-20)
(4.37218e-05 2.14088e-06 4.07171e-19)
(0.000688109 -5.57286e-05 1.1719e-18)
(0.000809209 3.16001e-05 -5.96095e-19)
(7.11328e-05 -5.53753e-05 1.70954e-18)
(0.000842157 -1.68944e-05 -5.3508e-24)
(0.000645444 7.3277e-06 -3.76585e-20)
(0.000863069 6.69633e-05 0)
(0.000833496 3.55652e-05 0)
(0.00591679 0.0072374 2.59487e-19)
(2.16723e-05 -1.70494e-06 -1.19597e-19)
(0.000138214 -9.55029e-05 7.73089e-19)
(0.000718844 0.000120135 -6.96587e-19)
(2.49798e-05 -2.21584e-07 2.01532e-19)
(0.000607477 -3.29935e-05 -7.23974e-19)
(0.000737213 3.66608e-05 1.55839e-18)
(0.000699245 0.000159003 -3.55506e-19)
(0.000807515 -1.32125e-05 3.60324e-19)
(8.13351e-05 -3.2657e-05 1.11624e-18)
(0.000798214 7.74768e-06 -3.22765e-19)
(0.000862698 4.36614e-05 0)
(0.00053686 0.000303321 4.21091e-20)
(0.000850987 4.9814e-05 -9.45697e-19)
(2.21018e-05 1.94342e-06 9.11324e-19)
(0.000847796 4.6757e-05 9.65689e-19)
(0.000852681 1.15633e-06 -9.6021e-19)
(0.000739485 -8.8229e-07 -5.69309e-19)
(0.000509877 -6.62066e-05 -5.25756e-19)
(0.00432872 0.0074524 2.46902e-19)
(0.00422354 0.00752959 -2.54642e-19)
(0.00422151 0.00758792 2.66609e-19)
(0.00425584 0.00741054 1.97918e-19)
(0.000845483 -2.10324e-05 1.43925e-19)
(0.00447479 0.00751117 0)
(0.00440271 0.0075164 -3.86659e-19)
(3.36143e-05 -1.54623e-07 -9.98211e-19)
(0.00417054 0.00746927 -6.33478e-20)
(0.00414589 0.00743225 -2.21457e-19)
(0.00603006 0.010607 0)
(0.0065404 0.0111876 3.71241e-20)
(0.00601002 0.0105767 0)
(0.0065561 0.0112111 1.30843e-19)
(0.00599742 0.0106009 2.69644e-19)
(0.00659271 0.0112278 1.2456e-20)
(0.00593604 0.0106137 -7.76608e-19)
(0.00662293 0.0111467 8.14662e-21)
(0.0039035 0.00920169 -1.90873e-19)
(0.00418692 0.00748848 3.89729e-21)
(0.00423817 0.00755304 7.93349e-20)
(0.00415032 0.00743448 4.11932e-20)
(0.000869411 0.000188873 4.46837e-20)
(1.20763e-05 1.72999e-06 0)
(0.000689552 -0.000130903 0)
(0.000674739 4.62225e-05 0)
(0.00244364 0.00110957 4.25096e-21)
(0.000751052 -3.13509e-05 1.72624e-19)
(4.22033e-05 6.31027e-06 4.54144e-20)
(1.27708e-05 -2.9358e-05 1.65359e-18)
(0.00084599 1.74459e-05 0)
(2.9115e-05 1.34413e-05 -1.91765e-19)
(0.000141192 0.000225852 0)
(2.13383e-05 -1.12088e-06 0)
(1.75006e-05 -1.5516e-06 0)
(0.000815368 0.000134069 1.13671e-20)
(0.000809256 -1.48562e-05 1.79259e-19)
(3.53322e-05 0.000282994 -1.9319e-23)
(0.00015873 0.000274931 -1.84224e-18)
(0.000598612 0.000331535 -8.57153e-20)
(0.000895175 0.000113674 5.99552e-19)
(0.0006793 -0.000259238 6.73145e-19)
(0.000361679 0.00110855 0)
(0.000464687 0.000573665 2.71567e-18)
(9.17081e-05 0.000148817 -1.80332e-18)
(2.61565e-05 2.03886e-07 0)
(0.00081922 -5.21062e-05 3.63201e-20)
(1.75453e-05 3.82312e-05 1.64482e-18)
(0.000900267 2.98975e-05 2.71283e-19)
(-9.00126e-07 -3.66075e-05 3.7996e-18)
(0.000929916 3.93378e-05 -2.69113e-19)
(0.00136661 0.000152044 7.47486e-19)
(3.80347e-05 -1.12467e-05 8.25881e-20)
(3.92317e-05 4.68389e-06 -8.59208e-19)
(5.03324e-05 0.000146198 0)
(0.000903525 7.70125e-05 5.98437e-19)
(0.000491346 0.000368607 2.37184e-19)
(0.00069302 1.79736e-05 -3.8919e-20)
(0.00077184 -7.31454e-06 2.57042e-19)
(0.000734872 -0.000197343 0)
(0.00632147 0.010897 -1.68019e-19)
(0.00637919 0.0109745 4.05735e-19)
(0.00616076 0.0107319 -6.18303e-19)
(0.00650138 0.0111329 -8.09714e-20)
(3.60739e-05 0.000121379 8.0069e-19)
(0.000912183 5.89626e-05 1.47876e-22)
(0.00641169 0.0110069 -3.86371e-19)
(0.0062825 0.0108468 5.48328e-19)
(0.00608089 0.0106738 -4.16767e-19)
(0.00652188 0.0111653 -6.8131e-20)
(8.18046e-05 0.000517383 -2.01857e-20)
(0.00010402 -0.000203824 -7.92611e-19)
(0.000695354 -1.96671e-05 -7.60405e-19)
(0.000720149 0.000220873 0)
(0.000799217 9.98064e-07 0)
(0.000184789 0.000392323 3.36355e-19)
(0.000595756 0.000522158 -5.41843e-19)
(1.23674e-05 -2.03767e-06 1.78435e-19)
(0.000203236 0.00046625 -7.38518e-19)
(0.00100243 0.000968837 -1.12716e-19)
(0.000737742 0.000166884 0)
(0.000783852 0.000180763 1.31051e-19)
(0.00635495 0.00587546 1.13135e-18)
(0.000740238 0.00112714 8.26686e-20)
(4.04921e-05 3.99902e-05 -7.4485e-20)
(0.000813293 2.0689e-05 0)
(0.000875683 2.62788e-05 -3.56997e-20)
(3.74129e-05 3.9924e-06 -1.96736e-19)
(3.22799e-05 5.43311e-06 1.93028e-19)
(0.000830614 2.20937e-05 5.37253e-19)
(0.000967029 0.000106679 6.58657e-19)
(0.000593075 3.6713e-05 0)
(0.000221162 -0.000309148 -3.98073e-19)
(0.000910541 0.000150259 3.89698e-19)
(1.95223e-05 -6.81823e-05 2.03163e-19)
(0.0014425 0.000434653 -2.58026e-18)
(0.000623823 -4.88826e-06 0)
(0.000786676 0.000144814 3.75559e-19)
(9.33334e-05 0.000399732 0)
(0.00118604 0.00816522 4.62166e-19)
(0.000483398 0.000501761 -1.22477e-18)
(0.000543404 0.000997611 -1.83785e-19)
(0.000876092 2.02362e-05 -1.46075e-19)
(1.46547e-05 2.70482e-05 0)
(0.000935827 7.6483e-05 6.11865e-19)
(0.00410659 0.00739525 8.14096e-20)
(0.00417148 0.00747384 4.72932e-20)
(0.00449832 0.00751382 4.53976e-19)
(0.00444396 0.0075405 -3.28822e-19)
(0.0064753 0.0111099 8.10492e-20)
(0.00391516 0.00714622 -9.66782e-22)
(0.00550652 0.00779472 -5.64667e-19)
(0.00409822 0.00737182 5.21715e-21)
(0.00518689 0.00785483 5.11584e-19)
(0.00408005 0.00734021 -4.86957e-20)
(0.00495194 0.00771434 0)
(0.00408541 0.00736444 -8.56248e-20)
(0.00474066 0.00758589 4.9243e-19)
(0.00409855 0.00737597 8.74918e-20)
(0.00457333 0.00752555 0)
(0.00428349 0.00742037 1.39726e-19)
(0.00423968 0.00759945 5.79918e-19)
(0.00446632 0.00752579 -5.54553e-19)
(0.00438702 0.00750405 3.71313e-19)
(0.0042282 0.00752542 2.89263e-19)
(0.00643079 0.0110435 -4.97405e-21)
(0.00411794 0.00740136 3.11536e-20)
(0.00645881 0.0110732 0)
(2.60997e-05 6.77354e-06 -1.89902e-19)
(0.0019985 0.00654288 2.28364e-19)
(0.000841518 -3.75431e-05 1.0964e-19)
(0.000857747 1.25812e-05 0)
(2.17651e-06 1.98358e-06 -3.99201e-19)
(1.39383e-05 -0.000158498 6.91883e-19)
(2.47348e-05 5.93995e-05 2.08943e-18)
(0.000821498 0.000178988 -9.00967e-20)
(0.000798157 1.0412e-05 7.06581e-19)
(2.22451e-06 -2.0222e-06 3.1006e-19)
(2.16246e-05 -3.71651e-05 -1.84611e-18)
(0.000759767 2.79164e-05 1.63195e-19)
(0.000863347 0.00012524 -3.08047e-20)
(0.000799307 -9.73016e-06 1.48177e-19)
(0.000405432 0.000676943 0)
(6.69031e-05 -0.000150845 1.15136e-18)
(0.000857349 1.18293e-05 1.52549e-19)
(2.109e-05 2.54228e-05 0)
(0.000111628 0.000564131 -6.31328e-19)
(0.000605013 0.000598941 1.31817e-18)
(0.000327992 0.00074388 0)
(0.000799489 -1.77861e-05 0)
(0.000798929 4.03234e-06 1.17282e-18)
(1.92875e-05 5.13257e-05 -3.51569e-18)
(1.82233e-05 8.24133e-06 3.73705e-19)
(0.000115671 0.000149134 0)
(5.07787e-05 -4.23058e-05 0)
(6.40366e-05 0.000115748 2.01042e-19)
(0.000929419 0.000183404 3.50518e-19)
(0.000799643 1.61002e-05 -1.39278e-18)
(2.40599e-05 3.52002e-05 0)
(0.00049008 1.73899e-05 -6.03619e-20)
(0.000801042 4.02655e-05 -1.56382e-19)
(0.000835475 3.04888e-05 1.06078e-18)
(0.000258272 0.000543413 6.32342e-19)
(0.000865753 0.000155106 0)
(2.24325e-05 -2.61745e-05 5.38801e-19)
(3.23066e-06 -8.13421e-06 -3.2004e-19)
(0.00100424 2.90164e-05 0)
(0.00103235 0.00225607 0)
(0.000963814 -1.20013e-05 0)
(0.000996636 0.000204411 4.27287e-19)
(0.000815195 -3.00975e-05 -2.83657e-19)
(0.000921725 0.000111429 -6.84946e-19)
(0.000799206 3.31708e-06 0)
(4.28626e-05 7.19474e-05 -1.71603e-19)
(0.000173904 0.00032895 1.08134e-18)
(0.000797066 2.05034e-05 -1.01366e-23)
(0.00108165 0.000206558 -6.69161e-19)
(0.00109023 0.00012272 0)
(2.93646e-06 7.94283e-06 2.51086e-19)
(2.08807e-05 -1.70968e-05 -1.94358e-19)
(0.000596181 3.61342e-05 6.95186e-21)
(2.08145e-05 -9.01218e-05 0)
(0.00105054 0.00025189 9.50218e-19)
(0.00502887 0.00974979 -2.83014e-19)
(0.00312065 0.00962102 1.27216e-18)
(5.53188e-05 -0.000111669 -1.91355e-19)
(6.46461e-05 -7.78456e-05 1.85998e-18)
(0.00119268 0.000238708 1.67257e-19)
(0.00133019 0.00108056 2.34131e-19)
(0.000814078 2.21601e-07 -7.31831e-19)
(0.000203631 0.000952454 -2.38492e-19)
(0.000807069 0.000920193 -2.18624e-19)
(0.000799434 -3.66807e-06 0)
(8.79662e-05 0.000638384 0)
(9.63227e-05 0.000284689 -4.19031e-23)
(0.000722653 -3.75483e-05 -1.68402e-23)
(0.000819325 5.81576e-05 1.50692e-19)
(0.00262927 0.00206559 -1.23162e-18)
(0.00175879 0.00924173 -1.17163e-19)
(0.000832902 4.35578e-05 4.92298e-19)
(0.00632861 0.0040427 -1.75895e-19)
(0.00672092 0.0115577 -1.36445e-20)
(0.00473442 0.00784409 4.92883e-21)
(0.000800668 1.48952e-05 -2.18738e-18)
(0.000832513 1.54665e-05 2.68104e-24)
(1.09145e-05 -8.94146e-06 -3.48099e-19)
(4.71368e-05 9.32669e-05 -3.49355e-19)
(7.01163e-05 0.000275289 8.75518e-19)
(1.24348e-05 1.75902e-05 4.90519e-19)
(8.97732e-05 0.000234349 3.6984e-19)
(0.000822349 2.86334e-05 0)
(0.00534798 0.00949224 1.95065e-20)
(0.00153271 0.000626537 -2.61046e-20)
(0.00082007 3.0983e-05 3.59663e-19)
(4.38995e-05 -8.70456e-05 0)
(0.00184765 0.00073833 5.4617e-19)
(1.08108e-05 8.66049e-06 -2.70217e-19)
(3.56987e-05 3.03455e-05 9.72047e-20)
(0.0013205 0.00139061 6.36644e-19)
(0.000736392 4.5111e-05 1.83152e-19)
(7.06377e-06 -2.18125e-06 -1.70244e-19)
(0.00206533 0.00155221 -1.05623e-18)
(0.000126636 0.00018263 -8.18911e-19)
(0.00392131 0.00848788 -1.09111e-18)
(7.03324e-06 1.98281e-06 8.81631e-20)
(0.000154896 -0.00016609 -1.25441e-18)
(5.50447e-05 -5.90592e-05 4.05746e-20)
(0.0015305 0.000973231 0)
(0.00103519 0.000139564 -4.10662e-22)
(0.000454522 0.000850749 -4.02233e-20)
(0.000802284 2.6027e-05 -2.33798e-19)
(8.71702e-05 0.000188873 7.36216e-19)
(3.84244e-05 -6.55423e-05 4.04117e-19)
(1.96498e-05 1.65202e-05 -9.47322e-20)
(3.36015e-05 9.66597e-05 -3.2036e-19)
(0.000201766 -0.000295084 -5.44842e-19)
(0.00325219 0.00345394 2.78964e-21)
)
;

boundaryField
{
    back
    {
        type            empty;
    }
    ingreso
    {
        type            fixedValue;
        value           uniform (0.0008 0 0);
    }
    salida
    {
        type            zeroGradient;
    }
    front
    {
        type            empty;
    }
    defaultFaces
    {
        type            noSlip;
    }
}


// ************************************************************************* //
