/*--------------------------------*- C++ -*----------------------------------*\
  =========                 |
  \\      /  F ield         | OpenFOAM: The Open Source CFD Toolbox
   \\    /   O peration     | Website:  https://openfoam.org
    \\  /    A nd           | Version:  7
     \\/     M anipulation  |
\*---------------------------------------------------------------------------*/
FoamFile
{
    version     2.0;
    format      ascii;
    class       surfaceScalarField;
    location    "31.5";
    object      phi;
}
// * * * * * * * * * * * * * * * * * * * * * * * * * * * * * * * * * * * * * //

dimensions      [0 3 -1 0 0 0 0];

internalField   nonuniform List<scalar> 
1111
(
6.16569e-09
1.33417e-08
-1.55007e-08
-4.00675e-09
6.32296e-09
-1.16316e-08
1.14744e-08
-1.46136e-08
4.6201e-09
9.64123e-09
3.5225e-10
2.61678e-10
-3.17123e-10
-1.4048e-08
1.41034e-08
-1.39377e-08
1.37406e-08
4.5877e-10
-1.49576e-09
1.48607e-08
2.06358e-09
-4.06597e-09
9.67058e-09
-1.11016e-08
5.49701e-09
-6.60242e-09
-1.25584e-08
1.25203e-08
6.64056e-09
-5.09618e-08
-2.56614e-08
7.66232e-08
-8.07207e-09
7.49281e-09
6.90222e-09
3.69228e-09
3.53259e-10
-3.7646e-09
-2.80941e-10
1.57392e-08
-1.57974e-08
-2.28231e-08
2.28813e-08
-9.62108e-09
-8.12497e-09
8.85972e-09
8.88633e-09
-3.49996e-08
1.73695e-08
-3.19509e-08
4.9581e-08
9.5603e-09
-1.89737e-09
-1.42654e-08
-2.90447e-09
3.23811e-09
-3.73396e-09
3.40031e-09
-3.70154e-09
1.315e-08
1.96953e-09
-1.1418e-08
8.88664e-09
-2.1617e-09
-1.50375e-08
8.31257e-09
3.82493e-08
-3.10418e-08
-7.2075e-09
-1.9185e-08
-9.03702e-11
1.75572e-08
1.71817e-09
-4.93906e-10
3.87671e-09
-1.79644e-08
1.45816e-08
-6.1241e-08
-3.94009e-09
6.51811e-08
1.90145e-10
-1.37007e-09
-3.95409e-10
1.57533e-09
-1.08031e-09
-1.33513e-08
-2.3426e-10
-3.52982e-10
3.34891e-10
2.52351e-10
-9.96435e-09
-8.06334e-09
1.23361e-08
5.69159e-09
8.08046e-10
-2.19152e-09
-8.51628e-09
9.89975e-09
7.77211e-09
1.04328e-09
-8.56619e-09
-2.492e-10
-2.79958e-09
-7.76523e-09
1.07418e-08
-1.7701e-10
1.13104e-08
-3.59527e-10
-2.06428e-09
-1.08057e-09
1.04934e-09
1.18978e-10
-8.77484e-11
-3.85102e-10
9.50677e-10
5.54607e-10
-1.12018e-09
-6.72863e-10
-4.52032e-11
7.16224e-10
1.84169e-12
3.4482e-11
-1.11162e-09
8.91362e-11
9.87998e-10
-3.34143e-11
-1.01268e-09
6.53771e-10
-1.8213e-08
-1.62581e-09
-5.80967e-10
6.65512e-11
-1.58447e-10
1.33552e-08
-1.3314e-08
3.83551e-09
-4.69846e-10
6.82208e-10
4.52518e-10
-6.6488e-10
-6.9128e-10
-2.58959e-09
1.9694e-09
1.31147e-09
-2.0755e-09
8.90571e-09
-1.08962e-08
-4.44606e-10
-2.23129e-10
8.67682e-11
-8.79046e-09
1.0037e-08
-9.31864e-09
1.17542e-08
-1.68177e-08
5.13588e-09
-7.23485e-11
1.09294e-10
-2.38443e-10
-3.15457e-10
3.02603e-10
9.55698e-10
-2.08959e-10
-5.98849e-08
7.43515e-08
-1.44666e-08
1.19962e-09
-4.08727e-10
-1.39333e-09
6.02443e-10
1.02245e-09
1.02794e-08
-1.36742e-08
2.37235e-09
-4.8207e-10
6.71431e-09
-8.11633e-09
1.88409e-09
-6.38799e-09
5.82539e-09
5.43051e-09
-4.8679e-09
-6.9374e-09
-2.38176e-09
2.24287e-09
7.07629e-09
-1.93759e-10
-9.08922e-08
9.12929e-08
-2.06943e-10
-2.41489e-10
-8.97509e-08
9.01476e-08
-1.55221e-10
8.30627e-08
-1.50003e-09
1.06329e-10
-8.1669e-08
-3.26081e-09
-4.23232e-11
8.68122e-10
9.57851e-10
-6.26357e-10
4.09215e-09
-1.85029e-09
3.25947e-09
-5.50133e-09
-1.16924e-09
1.06311e-09
-1.49877e-08
6.58363e-09
9.11439e-09
1.00767e-09
-9.80052e-09
-3.21547e-10
-6.28665e-09
1.27349e-08
1.51689e-09
-7.96514e-09
1.42123e-08
-3.92948e-09
3.1897e-09
-1.34725e-08
1.54019e-08
1.71732e-09
-1.69043e-09
-3.97792e-10
-1.98776e-08
-7.36845e-09
2.76438e-08
1.36003e-08
-8.1785e-09
-2.29082e-09
7.55725e-09
-1.15531e-08
-1.51053e-10
3.06307e-10
-1.54859e-09
-3.71122e-08
-2.27727e-08
7.90813e-09
-5.26529e-11
3.89869e-09
-6.85471e-09
1.06454e-08
6.2463e-09
-7.31637e-10
4.23782e-10
5.91969e-10
-2.84114e-10
5.96949e-09
-4.58179e-09
3.52466e-09
-4.91236e-09
-6.9558e-10
-7.43864e-10
3.27827e-10
8.63741e-10
-8.19808e-10
-2.16467e-10
-1.22924e-09
1.06061e-09
-1.7393e-08
2.49204e-09
1.42272e-09
1.34783e-08
3.24102e-10
-8.61457e-10
-1.94283e-10
-3.72594e-09
-1.46901e-08
1.02299e-09
5.67225e-09
1.16582e-08
-5.24656e-09
-1.20839e-08
1.6399e-08
5.47192e-10
-1.58681e-08
-1.07808e-09
-8.18524e-10
5.84769e-10
6.57536e-10
-1.00661e-09
5.46967e-10
4.59639e-10
-7.02826e-09
-3.84184e-09
4.48211e-09
-4.29825e-10
6.16636e-10
-1.86811e-10
1.31771e-09
-1.5008e-08
-7.20031e-10
8.70799e-09
-1.00635e-08
-1.20131e-09
-1.22307e-09
1.24829e-08
4.40102e-09
-4.16177e-09
-1.27222e-08
3.12706e-10
6.92422e-09
-7.60858e-09
6.50975e-09
-1.99907e-09
-8.37106e-09
7.71498e-09
2.65516e-09
-1.78791e-09
5.90277e-10
-1.34925e-08
-2.65472e-10
-1.64352e-10
-5.49713e-10
1.29811e-09
-7.6858e-09
7.8559e-10
1.72205e-08
-1.60713e-09
-1.45711e-08
1.57634e-08
-1.19236e-09
1.18732e-08
1.4041e-08
-1.56135e-08
-1.03007e-08
-8.86391e-10
1.48147e-09
-5.9508e-10
1.52423e-09
-1.96289e-09
4.38657e-10
2.65417e-09
-3.86897e-09
1.2148e-09
1.99509e-09
-1.67162e-09
-3.23472e-10
-1.19925e-08
2.75848e-10
1.17167e-08
2.74292e-09
-7.47834e-10
8.8366e-09
-1.50569e-08
6.46202e-09
-7.49381e-09
1.00637e-10
4.03125e-09
-4.39605e-10
-3.09618e-09
3.19682e-09
-7.68248e-09
9.04377e-09
-1.36129e-09
-9.32348e-10
4.07652e-09
9.47985e-10
1.70723e-08
-1.45231e-08
-1.52676e-09
-5.35657e-09
5.11319e-09
-1.60691e-09
-2.69755e-10
6.87443e-09
-6.86682e-09
-7.61008e-12
7.07786e-09
4.32214e-09
3.01158e-10
-1.56618e-08
1.03186e-08
1.72164e-08
5.67663e-09
8.32546e-09
8.21535e-09
-6.75072e-09
6.89361e-10
-1.26819e-08
1.42107e-09
-6.33327e-11
-1.27125e-08
3.63861e-09
-4.41791e-10
1.37855e-08
-1.32383e-08
-9.57539e-11
-1.13897e-09
-1.36062e-08
7.07115e-09
9.57445e-10
-5.71952e-11
-8.95174e-09
5.30679e-09
-3.14396e-08
-1.25677e-08
-2.3306e-09
1.2921e-09
1.36708e-08
1.09945e-08
-1.06648e-08
-1.40005e-08
1.64601e-08
-3.11343e-09
-1.33467e-08
1.78661e-09
3.82522e-09
-1.49809e-09
-1.00319e-09
-1.06418e-09
1.3962e-09
6.71176e-10
-3.17105e-10
4.50091e-10
4.58983e-10
6.2259e-08
-6.22853e-08
2.62704e-11
6.21215e-08
-6.24563e-08
3.34783e-10
8.80538e-10
6.47695e-08
-6.55943e-08
8.24799e-10
6.41654e-08
6.04089e-10
-1.9729e-10
-6.65389e-08
9.44676e-10
-6.20258e-08
6.19141e-08
1.11738e-10
1.32428e-09
-6.78632e-08
-6.21727e-08
1.46879e-10
1.20286e-08
-1.19951e-09
1.82522e-09
-3.74649e-09
3.12078e-09
4.61276e-10
-1.32634e-09
1.19126e-09
-8.65284e-10
1.52554e-09
-1.81034e-09
1.15009e-09
1.58918e-09
-1.7632e-09
4.80333e-10
-1.12972e-10
-3.30684e-09
3.13123e-09
-2.40584e-09
2.58144e-09
-9.2935e-10
-2.91755e-09
2.64739e-09
-3.92648e-09
-5.52321e-09
6.75806e-10
-7.82136e-10
1.50007e-09
1.21673e-09
-6.62257e-09
8.01776e-09
2.92695e-09
2.07347e-08
-4.27459e-09
-8.49479e-10
3.05402e-10
1.21988e-09
-1.02554e-08
-2.68568e-08
5.50274e-09
-4.52031e-09
-3.08549e-09
2.10305e-09
1.4033e-10
7.36391e-12
5.6853e-10
-2.87065e-09
3.55736e-09
8.5718e-09
9.46875e-10
-6.31092e-10
2.25692e-09
-2.55518e-09
2.3436e-09
1.46386e-08
1.30731e-08
-2.66639e-08
3.21477e-08
6.12212e-09
-2.26297e-08
-1.01563e-08
1.78955e-08
-1.75432e-08
1.06422e-08
-3.02609e-10
2.19371e-11
-1.48253e-09
-1.9611e-09
-2.1849e-09
3.73915e-09
1.45845e-08
-5.77068e-10
-1.34172e-08
1.31392e-10
-2.92326e-09
-1.25682e-10
1.51952e-08
1.73388e-08
1.35123e-08
7.44447e-10
-1.53152e-09
-1.27252e-08
-1.94695e-09
5.97532e-09
1.21799e-08
-8.58398e-10
-1.29325e-09
-3.50373e-09
2.7296e-09
3.90536e-09
2.40482e-09
1.40623e-08
4.12724e-09
-1.37885e-08
1.72849e-08
-1.6774e-09
2.91639e-09
-3.68084e-09
1.89014e-09
-4.48635e-09
1.27634e-08
-1.19786e-08
-1.37784e-08
6.20688e-10
8.67141e-09
-1.93978e-09
1.63995e-09
1.79991e-09
-8.81222e-09
4.83245e-10
-4.23873e-09
-5.97782e-09
1.20967e-08
-1.49311e-08
1.46723e-09
1.64395e-09
-2.11672e-09
1.62717e-08
-1.57989e-08
-9.69896e-10
1.39051e-08
2.62546e-09
-3.89327e-09
-1.37891e-08
7.2468e-09
-1.68583e-08
-7.9317e-09
6.44337e-09
5.82531e-09
1.42123e-08
-9.42966e-09
3.18056e-09
8.90425e-09
9.80495e-09
3.88943e-09
-4.09249e-09
2.13571e-08
-1.87014e-08
4.59107e-09
-9.93057e-09
2.28752e-09
5.27946e-09
1.34282e-08
-7.96174e-11
1.24094e-08
-1.32997e-08
-1.64309e-09
2.5983e-09
-1.76988e-09
8.14672e-10
1.07178e-08
-6.33853e-09
7.27893e-09
-1.03267e-08
1.40377e-09
-4.75583e-09
1.11407e-08
-1.16314e-08
-7.41579e-09
8.90702e-09
9.22656e-09
1.25137e-08
9.70981e-10
-1.35643e-08
1.74923e-09
8.63695e-10
-1.0813e-08
-6.72707e-09
1.01243e-08
-1.81045e-09
2.52539e-09
-8.67398e-09
4.70048e-09
-5.10258e-09
1.11971e-08
-3.49038e-09
-1.136e-08
3.65328e-09
-4.53802e-09
1.09793e-08
2.16419e-09
1.225e-09
-4.99731e-09
-1.7461e-08
1.04068e-08
1.20515e-08
8.98033e-10
-1.06698e-08
-9.62727e-09
1.52998e-08
1.20981e-08
2.69352e-09
-9.5122e-09
-1.31777e-08
-2.65968e-10
-1.24068e-08
3.07109e-10
-6.17253e-10
1.1052e-08
1.23584e-08
-8.05677e-09
1.60895e-08
-1.54042e-08
3.44194e-09
-4.87879e-10
1.64952e-09
1.23166e-08
-3.85612e-09
-1.23895e-08
-5.12315e-09
5.67281e-10
4.49253e-09
1.18478e-08
-7.48625e-09
7.79804e-10
-1.13451e-09
1.77371e-09
-2.28229e-09
6.02012e-09
2.59792e-08
-6.98508e-10
-1.27674e-08
1.34659e-08
2.78135e-08
-2.18837e-08
2.19929e-08
1.91815e-08
-1.24663e-08
-2.56034e-09
1.47881e-08
1.13633e-10
-1.19785e-08
-3.14697e-10
-6.01083e-09
-1.99613e-09
2.43059e-09
1.72973e-09
1.67414e-10
-1.06814e-08
1.07478e-08
-2.33819e-10
2.28062e-09
-5.51968e-09
-1.05075e-08
1.01977e-08
-6.45992e-10
-1.02979e-08
-1.17276e-11
-1.04348e-08
-2.92169e-09
-1.17389e-08
2.30417e-09
7.71991e-09
5.05651e-09
2.66558e-10
-1.14292e-08
1.133e-08
7.00666e-10
-8.40638e-09
5.27991e-09
-7.72991e-10
2.76083e-09
-3.32805e-09
-1.28977e-08
-1.33599e-08
1.29279e-08
-9.91988e-09
-1.57953e-08
1.00533e-08
9.00607e-09
8.43018e-10
2.58477e-09
-1.53522e-08
1.07616e-08
1.69415e-09
4.05523e-09
3.97767e-10
-6.44367e-10
-4.48981e-10
-4.01123e-09
2.73635e-09
-1.64838e-09
3.97768e-10
-4.64389e-10
6.6621e-11
-2.48101e-09
1.2486e-08
2.09312e-09
2.54163e-09
-1.12561e-09
-1.88368e-09
-5.54903e-11
-2.61098e-09
-7.55225e-10
1.25967e-08
9.71488e-09
-5.36202e-10
7.14148e-09
-1.18571e-09
-5.41957e-09
-9.6682e-09
-5.09927e-09
3.11373e-10
8.63947e-11
4.5492e-09
1.40623e-09
-1.66252e-08
-6.4525e-10
-9.57012e-10
-2.19983e-09
7.84046e-10
2.56663e-09
6.20365e-08
-1.39676e-10
-6.18969e-08
6.23303e-08
1.85502e-10
-6.25158e-08
-1.41567e-08
1.23472e-10
1.45074e-08
-4.74229e-10
2.61179e-09
-2.10795e-09
2.84714e-09
1.7862e-09
-4.39232e-09
-5.76785e-10
-6.70933e-10
5.44264e-10
-1.57445e-10
6.50429e-10
-4.75791e-10
1.88425e-08
1.11933e-09
-1.54127e-08
-3.38939e-10
-1.96056e-09
1.20843e-08
2.19289e-09
1.74774e-09
5.05802e-09
-1.77478e-09
-7.72485e-08
-2.41917e-08
-4.81928e-09
1.56359e-08
2.33338e-09
-8.50435e-10
-3.40893e-09
-1.41599e-09
7.57336e-10
-6.34592e-10
-1.26433e-08
-3.07777e-10
1.29511e-08
-1.05864e-08
-6.67016e-09
1.05295e-08
-9.21644e-09
8.86792e-09
-1.96972e-10
1.94484e-09
1.21224e-08
-1.18402e-08
-2.82247e-10
7.75903e-10
5.80005e-11
9.60777e-09
1.12829e-09
-1.2209e-09
-3.92067e-10
-1.41979e-08
-5.20899e-10
-1.33203e-08
1.2022e-08
-1.13842e-08
-6.60291e-08
6.49674e-08
1.06168e-09
5.21417e-10
-5.14053e-10
1.15814e-08
-4.8598e-10
2.15911e-11
-1.90314e-09
2.76297e-09
-3.36665e-09
-1.35184e-08
-1.65861e-09
2.56428e-09
-4.65012e-09
-1.37586e-08
1.78345e-09
5.61793e-09
9.37685e-09
-8.70657e-09
-5.15195e-10
2.92143e-11
-9.36368e-09
-1.25717e-08
1.576e-10
-6.27534e-08
2.26154e-10
6.25273e-08
6.94711e-10
6.34707e-08
-2.48802e-10
-8.34806e-10
-1.42935e-08
1.17499e-10
-6.33714e-08
6.32539e-08
1.83201e-10
-6.2906e-08
6.27228e-08
5.74752e-10
6.18282e-08
1.57463e-10
-6.19857e-08
6.16518e-08
1.76479e-10
-8.78788e-08
8.84901e-08
-7.27558e-12
9.33699e-08
-9.3065e-08
-2.78687e-10
-8.66209e-08
-4.33067e-10
9.33476e-08
-1.74953e-10
-8.49052e-08
-7.70994e-10
9.34843e-08
1.98076e-10
-5.18184e-10
1.99213e-09
9.23727e-08
-6.93632e-08
6.2191e-08
-6.23848e-08
-6.2995e-08
6.15006e-08
1.51147e-10
-2.98752e-09
2.67329e-09
-1.34743e-08
9.27053e-11
2.18668e-10
2.39487e-09
9.76733e-09
-1.1929e-08
3.82024e-08
-3.44471e-08
-1.64679e-08
1.39328e-08
-8.93136e-11
-2.16373e-10
3.2303e-10
9.53006e-10
-1.92331e-10
4.1949e-10
4.68172e-09
1.05603e-09
-3.84762e-09
-4.45661e-10
5.12212e-10
-3.58893e-10
-2.39477e-09
1.26914e-08
2.1894e-09
-1.44341e-08
-2.28378e-09
-3.76441e-09
5.69614e-09
1.08863e-09
-2.41518e-09
1.40655e-08
-1.24345e-09
-4.42661e-09
6.79092e-09
-7.89871e-09
-1.90056e-08
-1.29411e-08
7.64063e-09
5.92116e-09
-3.2377e-10
-5.1637e-10
3.27073e-09
1.43434e-08
1.76826e-09
-1.25091e-09
-4.87455e-10
5.25025e-10
-3.07325e-10
1.59223e-08
-4.53453e-10
-1.57766e-08
-4.23239e-09
-2.54105e-09
2.87221e-10
-2.33064e-10
4.25299e-09
-1.81354e-08
6.61967e-10
-1.73006e-09
-2.35831e-09
-2.296e-09
1.51806e-08
-9.05665e-08
-1.42497e-10
9.16837e-08
-2.05335e-10
-8.91577e-08
-4.75713e-10
9.30573e-08
-3.0333e-10
-9.28936e-08
-6.52156e-10
-1.82574e-09
1.60931e-08
9.19988e-08
-1.92666e-10
2.71113e-11
-2.56574e-10
1.10133e-08
2.19068e-09
-9.71773e-09
-1.18343e-08
-5.58776e-09
8.4598e-09
1.38241e-09
-6.91526e-09
-6.45634e-09
9.09435e-09
-2.496e-10
1.01577e-08
1.9178e-08
-1.76366e-08
3.01302e-09
-1.23948e-08
3.01831e-09
-7.00773e-08
4.04817e-09
-2.03265e-08
-1.26529e-08
-6.18659e-10
-5.78994e-09
-1.53929e-08
9.20442e-09
-1.51782e-08
5.94244e-10
5.0342e-10
-1.47605e-09
-1.60757e-08
1.66416e-08
9.36548e-09
-9.4078e-09
-5.51449e-09
1.48477e-08
-1.61625e-09
8.34061e-10
-1.51058e-09
5.82493e-10
1.21888e-08
3.41686e-09
7.09347e-08
-1.79066e-08
9.53013e-10
-1.45822e-08
-3.14797e-10
-3.5947e-10
-2.15695e-10
6.09059e-08
-6.12092e-08
-6.33442e-08
-6.30987e-08
-1.72309e-11
-2.91354e-10
-9.2585e-08
-6.03937e-08
6.23859e-08
6.50737e-08
-6.01957e-08
6.45556e-08
-6.03706e-08
6.37846e-08
-6.06493e-08
6.33515e-08
9.23221e-08
3.97483e-10
-6.54592e-09
7.49877e-08
-6.5025e-08
1.22394e-10
-1.22394e-10
2.02552e-09
-3.82462e-10
1.54875e-08
-1.41094e-10
1.41094e-10
5.05293e-10
1.47206e-09
1.39567e-08
1.29011e-08
-2.68312e-09
3.67761e-09
6.39215e-09
1.93391e-09
4.74345e-10
-3.39051e-10
-2.87956e-09
1.43363e-08
1.4809e-08
-4.31805e-09
1.16219e-08
2.73755e-10
2.16433e-10
2.99955e-09
-1.037e-09
-1.78547e-09
-5.93746e-09
-1.33942e-10
-4.9786e-10
1.52096e-08
3.79343e-10
1.71612e-10
1.64172e-08
-2.56246e-08
1.71604e-08
2.55323e-09
1.49565e-09
2.18479e-09
-3.51556e-09
1.89185e-08
-1.75877e-08
-1.43078e-10
8.97484e-10
-1.44482e-09
-7.91625e-08
-7.08081e-08
1.4755e-09
-1.14017e-09
7.33946e-10
2.28489e-08
1.8322e-08
-6.48309e-09
1.74955e-10
-4.50589e-09
-2.02771e-09
2.99106e-08
1.26619e-10
1.48626e-08
7.357e-08
1.08505e-10
5.73878e-10
-2.2695e-10
-2.96872e-10
-3.88946e-09
2.40019e-08
-1.47448e-08
1.23281e-09
-1.40107e-08
-9.62735e-11
2.01056e-08
-2.83132e-08
8.99677e-10
2.55853e-09
-6.95118e-10
)
;

boundaryField
{
    back
    {
        type            empty;
        value           nonuniform 0();
    }
    ingreso
    {
        type            calculated;
        value           nonuniform List<scalar> 
14
(
-1.54286e-08
-1.54288e-08
-1.54288e-08
-1.54288e-08
-1.54286e-08
-1.54283e-08
-1.54288e-08
-1.54288e-08
-1.54286e-08
-1.54286e-08
-1.54288e-08
-1.5428e-08
-1.5428e-08
-1.54286e-08
)
;
    }
    salida
    {
        type            calculated;
        value           nonuniform List<scalar> 2(1.0144e-07 1.14559e-07);
    }
    front
    {
        type            empty;
        value           nonuniform 0();
    }
    defaultFaces
    {
        type            calculated;
        value           uniform 0;
    }
}


// ************************************************************************* //
