/*--------------------------------*- C++ -*----------------------------------*\
  =========                 |
  \\      /  F ield         | OpenFOAM: The Open Source CFD Toolbox
   \\    /   O peration     | Website:  https://openfoam.org
    \\  /    A nd           | Version:  7
     \\/     M anipulation  |
\*---------------------------------------------------------------------------*/
FoamFile
{
    version     2.0;
    format      ascii;
    class       volScalarField;
    location    "27.5";
    object      p;
}
// * * * * * * * * * * * * * * * * * * * * * * * * * * * * * * * * * * * * * //

dimensions      [0 2 -2 0 0 0 0];

internalField   nonuniform List<scalar> 
591
(
0.000124024
0.000124039
0.000124054
0.000124017
0.000124018
0.000124107
0.000124079
0.00012405
0.000117009
0.000124052
0.00012421
0.000122928
0.000124081
0.000119808
0.000124052
0.000124093
0.000123975
0.000124085
0.000122057
0.000123434
0.000124019
-3.58522e-06
0.000124209
0.000124021
0.000124168
0.000124038
0.000124105
0.000124131
0.000124049
0.000124083
0.000124187
0.000124164
0.000124183
0.000124181
0.000124184
0.000123529
0.000124179
0.000124033
0.000124204
0.000124119
0.000124107
0.000124176
0.000124049
0.00012407
0.000124174
0.000124191
0.000119317
0.000124194
0.000124063
0.000124166
0.000124128
0.000124168
2.3887e-05
3.05646e-05
4.78642e-05
0.000124071
0.000124198
0.00012418
0.000124192
0.000124024
0.000124103
0.000124045
0.00012405
0.000124119
0.000122664
0.000124047
0.000124052
0.00012419
0.00012079
0.000124072
0.000124051
0.000124196
0.000124154
0.000124177
0.000124182
0.000124158
0.000124017
0.000124193
0.000124022
0.00012394
0.000123805
0.000124198
0.00012416
0.000124128
0.000124205
0.00012403
0.000124122
0.000124188
0.000124152
0.000123911
0.000124165
0.000124097
0.000124123
0.00012403
0.000124204
0.000124161
0.000123735
0.000123631
0.000123752
0.000124208
0.000124119
0.000124032
0.000124211
0.000124021
0.00012421
0.000124053
0.00012404
0.000124161
0.000124201
0.000124206
0.000124089
0.000124178
0.000124068
0.000124186
0.000124207
0.000124183
0.000124128
0.000124139
0.000123682
0.000124094
0.000124049
0.000124088
0.000124088
0.000124035
0.00012418
0.000120309
0.000124209
0.000124182
0.000123806
0.000124183
0.000124037
0.000123729
0.000124143
0.000124142
0.000124186
0.000124062
0.000122701
0.000124211
0.000124047
0.000123688
0.000123748
0.000124115
0.000124188
0.000124203
0.000124199
7.56481e-06
3.62524e-06
1.97971e-06
3.81644e-05
3.67084e-05
5.60805e-06
3.8302e-05
1.57392e-05
3.72732e-05
1.78029e-05
0.000124047
0.000124031
0.000124196
0.000124194
0.0001242
0.000124198
0.000124192
0.00012419
0.000124192
0.000124193
0.000124153
0.000124201
0.000124196
0.000124202
0.000124129
0.000123487
0.000124204
0.000122207
0.000124174
0.000124186
0.000124126
0.000124052
0.000124186
0.000124194
0.00012419
0.000123596
0.000122553
0.00012314
0.000123559
0.000124189
0.000124193
0.000124142
0.000124023
0.000124186
0.000123049
0.000123412
0.000124025
0.000124185
0.000123884
0.000124178
0.000124184
0.000124155
0.000123855
0.000124009
0.000124183
0.000124195
0.000124187
0.000123977
0.000124169
0.000123974
0.000124202
0.000124049
0.000124041
0.000124198
0.000123826
0.000124013
0.000124061
0.000123664
0.000124149
0.000123811
0.000124095
0.000124092
0.000124172
0.000123585
0.00012409
0.000123997
0.000124011
0.000124159
0.000123917
0.000124082
0.000123988
0.000123892
0.000124004
0.000124205
0.000123957
0.000124198
0.000124032
0.000124172
0.000124033
0.000124029
0.000124205
0.000123937
0.000124196
0.000123933
0.00012398
0.000124058
0.000124032
0.000124052
0.000124049
0.000123802
0.000124013
0.000123957
0.000124164
0.000124035
0.000123859
0.000124153
0.000123419
0.000123972
0.000123337
0.000123185
0.000124037
0.000124
0.000124031
0.000124027
0.000123974
0.000124202
0.00012407
0.000124146
0.000124065
0.000124074
0.000124086
0.000124152
0.000123807
0.000124198
0.000123848
0.000123743
0.000124061
0.000124173
0.000123758
0.000124199
0.000124098
0.000124145
0.000124156
0.000124065
0.000124015
0.000123812
0.000123999
0.00012401
0.000124058
0.000124098
0.000124172
0.000124183
0.000124193
0.00012397
0.000124063
0.000124176
0.000124186
0.000124183
0.000123992
0.000124194
0.000124065
0.000124166
0.000123958
0.000124195
0.000123953
0.000124173
0.000124093
0.000124017
1.16236e-05
2.19012e-05
0.000123998
0.000124045
0.0001242
0.000123983
0.000124201
0.000124057
0.000124195
0.000124175
0.000123945
0.000124169
0.000124009
0.000124195
0.000124056
-2.11704e-07
0.000123872
0.000124176
0.000124174
0.000123904
0.000124012
0.000124043
0.000124169
0.000123969
0.000124189
0.000124088
0.000124051
0.000124167
0.000124016
0.000123939
0.000123961
0.000124069
4.74069e-05
0.000124184
0.000124166
0.000124036
0.00012419
0.000124112
0.000124062
0.000124034
0.000124044
0.000124177
0.000124093
0.000123977
0.000124062
0.000123981
0.00012419
0.000123987
0.000124026
0.000124068
0.000124148
1.98691e-05
2.7267e-05
3.42979e-05
9.59818e-06
0.000124023
3.30479e-05
2.59565e-05
0.000124187
1.90802e-05
1.70335e-05
3.81928e-05
7.5091e-06
3.99466e-05
5.52248e-06
4.08493e-05
3.58296e-06
4.28354e-05
1.771e-06
3.63911e-05
2.31689e-05
2.9404e-05
1.49607e-05
0.000123889
0.000124197
0.000124088
0.000124101
0.000121014
0.000124173
0.000124192
0.000124164
0.000124001
0.000124198
0.00012419
0.00012418
0.000124178
0.000123953
0.000124044
0.000124174
0.000124178
0.00012402
0.000123914
0.000123906
0.0001235
0.000123965
0.000124207
0.000124184
0.000124055
0.000124206
0.000123903
0.000124049
0.000123859
0.000122974
0.000124178
0.000124189
0.000124205
0.000123906
0.000124056
0.000123862
0.00012406
0.000124036
2.5987e-05
2.18568e-05
3.30282e-05
1.15593e-05
0.000124212
0.000123908
1.9838e-05
2.82123e-05
3.56041e-05
9.52798e-06
0.00012402
0.000124134
0.000124003
0.000123998
0.000124079
0.000124135
0.000123926
0.000124175
0.000124098
0.000123199
0.000124004
0.000123972
5.92661e-05
0.000123327
0.000124202
0.000124035
0.00012394
0.000124191
0.000124194
0.000124025
0.000123813
0.000124053
0.000124118
0.00012389
0.000124148
0.000123019
0.000123998
0.000123984
0.000124143
0.000100869
0.000123989
0.000123591
0.000123973
0.000124204
0.000123868
1.08102e-05
2.11021e-05
3.53826e-05
2.81265e-05
1.36196e-05
-1.25024e-08
4.2046e-05
2.61365e-06
4.01463e-05
4.6784e-06
3.9413e-05
6.73745e-06
3.86267e-05
8.76862e-06
3.73018e-05
1.36789e-05
3.17078e-05
3.05364e-05
2.39136e-05
2.52433e-05
1.77931e-05
1.28767e-05
1.57053e-05
0.000124196
0.000102517
0.000124026
0.00012397
0.0001242
0.000124096
0.000124206
0.000123932
0.000124105
0.000124171
0.000124165
0.000124218
0.000123938
0.000124076
0.000123904
0.000124136
0.000123998
0.000124201
0.000124051
0.000123883
0.000123885
0.000124088
0.000124093
0.000124208
0.000124198
0.000124202
0.000124169
0.000124206
0.000123851
0.000124051
0.000124202
0.000123995
0.000124145
0.000124048
0.00012405
0.000123916
0.000124169
0.000124168
0.000123495
0.000121446
0.000123229
0.000123765
0.00012405
0.000123873
0.000124089
0.000124205
0.000124159
0.000124066
0.000123656
0.000123644
0.000124202
0.000124172
0.000124078
0.000124136
0.000123689
5.83465e-05
4.01267e-05
0.000124143
0.00012416
0.000123539
0.00012285
0.000124034
0.000123728
0.000123475
0.000124071
0.000123911
0.000124182
0.000124072
0.000124109
0.000119113
5.45066e-05
0.000124077
8.12051e-05
1.75783e-06
-4.04117e-07
0.000124046
0.000124019
0.000124171
0.000124206
0.000124192
0.000124202
0.000124194
0.000124034
-2.35717e-06
0.000122946
0.000124062
0.00012415
0.000122125
0.0001242
0.0001242
0.000122366
0.000124144
0.000124173
0.000121773
0.000124198
7.64049e-05
0.000124199
0.000123681
0.000124163
0.000122479
0.000123747
0.00012377
0.000124081
0.000124201
0.000124157
0.000124199
0.000124211
0.000124055
0.00011628
)
;

boundaryField
{
    back
    {
        type            empty;
    }
    ingreso
    {
        type            zeroGradient;
    }
    salida
    {
        type            fixedValue;
        value           uniform 0;
    }
    front
    {
        type            empty;
    }
    defaultFaces
    {
        type            zeroGradient;
    }
}


// ************************************************************************* //
