/*--------------------------------*- C++ -*----------------------------------*\
  =========                 |
  \\      /  F ield         | OpenFOAM: The Open Source CFD Toolbox
   \\    /   O peration     | Website:  https://openfoam.org
    \\  /    A nd           | Version:  7
     \\/     M anipulation  |
\*---------------------------------------------------------------------------*/
FoamFile
{
    version     2.0;
    format      ascii;
    class       surfaceScalarField;
    location    "27.5";
    object      phi;
}
// * * * * * * * * * * * * * * * * * * * * * * * * * * * * * * * * * * * * * //

dimensions      [0 3 -1 0 0 0 0];

internalField   nonuniform List<scalar> 
1111
(
6.11156e-09
1.3367e-08
-1.54337e-08
-4.04487e-09
6.26962e-09
-1.15795e-08
1.14215e-08
-1.45716e-08
4.54018e-09
9.70366e-09
3.27722e-10
2.28973e-10
-2.74195e-10
-1.40155e-08
1.40607e-08
-1.39152e-08
1.37232e-08
4.21013e-10
-1.44291e-09
1.48562e-08
2.01524e-09
-4.06573e-09
9.61949e-09
-1.11817e-08
5.6279e-09
-6.57278e-09
-1.25353e-08
1.24975e-08
6.61062e-09
-5.10865e-08
-2.55747e-08
7.66613e-08
-8.0697e-09
7.47546e-09
6.86386e-09
3.71508e-09
3.57866e-10
-3.78708e-09
-2.85865e-10
1.57801e-08
-1.58047e-08
-2.2734e-08
2.27586e-08
-9.62642e-09
-8.19372e-09
8.89848e-09
8.92166e-09
-3.49255e-08
1.72896e-08
-3.18476e-08
4.94836e-08
9.56877e-09
-1.88492e-09
-1.42566e-08
-3.14295e-09
3.37466e-09
-3.6596e-09
3.42788e-09
-3.70302e-09
1.31126e-08
1.98012e-09
-1.13897e-08
8.88857e-09
-2.1249e-09
-1.5035e-08
8.27128e-09
3.84492e-08
-3.1286e-08
-7.16323e-09
-1.9153e-08
-1.30159e-10
1.75889e-08
1.69427e-09
-4.34218e-10
3.8393e-09
-1.79839e-08
1.45788e-08
-6.1053e-08
-3.97896e-09
6.5032e-08
1.97257e-10
-1.38163e-09
-4.02075e-10
1.58644e-09
-1.04289e-09
-1.33065e-08
-2.44663e-10
-3.58475e-10
3.43829e-10
2.59309e-10
-9.94816e-09
-8.05338e-09
1.23025e-08
5.69903e-09
8.30388e-10
-2.20185e-09
-8.52013e-09
9.89159e-09
7.7291e-09
1.06327e-09
-8.50336e-09
-2.89015e-10
-2.77547e-09
-7.75903e-09
1.07003e-08
-1.65782e-10
1.12802e-08
-3.09722e-10
-2.08191e-09
-1.09599e-09
1.06291e-09
1.27692e-10
-9.46076e-11
-4.04793e-10
9.65581e-10
5.76235e-10
-1.13702e-09
-6.86187e-10
-4.58976e-11
7.30064e-10
2.02083e-12
3.75959e-11
-1.13028e-09
8.70819e-11
1.0056e-09
-2.89636e-11
-1.02944e-09
6.21001e-10
-1.81527e-08
-1.6213e-09
-5.94282e-10
6.91683e-11
-1.61073e-10
1.33255e-08
-1.33159e-08
3.82971e-09
-4.78612e-10
6.90764e-10
4.62767e-10
-6.74919e-10
-7.54381e-10
-2.63115e-09
2.00207e-09
1.38346e-09
-2.03939e-09
8.72883e-09
-1.07552e-08
-4.56352e-10
-2.28279e-10
9.03482e-11
-8.79165e-09
1.00205e-08
-9.29856e-09
1.1704e-08
-1.67533e-08
5.15057e-09
-1.01271e-10
1.1372e-10
-2.44473e-10
-3.256e-10
3.10895e-10
9.67522e-10
-2.15507e-10
-5.98871e-08
7.43585e-08
-1.44714e-08
1.21079e-09
-4.19063e-10
-1.40885e-09
6.17123e-10
9.82613e-10
1.02804e-08
-1.36567e-08
2.39369e-09
-3.88907e-10
6.64118e-09
-8.02011e-09
1.76784e-09
-6.36661e-09
5.83242e-09
5.41683e-09
-4.88264e-09
-6.88769e-09
-2.41855e-09
2.26852e-09
7.03772e-09
-2.18491e-10
-9.08809e-08
9.12958e-08
-1.96466e-10
-2.3436e-10
-8.97437e-08
9.01324e-08
-1.54341e-10
8.30633e-08
-1.49768e-09
1.0396e-10
-8.16695e-08
-3.28961e-09
-1.75361e-12
8.81549e-10
9.66509e-10
-6.37272e-10
4.10772e-09
-1.88763e-09
3.25468e-09
-5.47478e-09
-1.18341e-09
1.07525e-09
-1.49901e-08
6.57497e-09
9.068e-09
1.02114e-09
-9.75793e-09
-3.31214e-10
-6.26362e-09
1.26786e-08
1.53004e-09
-7.945e-09
1.41817e-08
-3.88919e-09
3.17077e-09
-1.34633e-08
1.539e-08
1.69461e-09
-1.65579e-09
-2.66919e-10
-1.99253e-08
-7.50233e-09
2.76946e-08
1.35446e-08
-8.15459e-09
-2.30306e-09
7.53165e-09
-1.14922e-08
-1.6085e-10
3.23663e-10
-1.57166e-09
-3.7262e-08
-2.26252e-08
7.87967e-09
-8.99951e-11
3.91429e-09
-6.81097e-09
1.06118e-08
6.21965e-09
-7.41346e-10
4.30994e-10
6.00276e-10
-2.89924e-10
5.9774e-09
-4.56834e-09
3.51663e-09
-4.92568e-09
-7.12277e-10
-7.51256e-10
3.33253e-10
8.77631e-10
-8.36447e-10
-2.35259e-10
-1.25362e-09
1.08409e-09
-1.73188e-08
2.47133e-09
1.41959e-09
1.34279e-08
3.31087e-10
-8.7264e-10
-1.99792e-10
-3.67105e-09
-1.46657e-08
1.0179e-09
5.66827e-09
1.16219e-08
-5.24723e-09
-1.20429e-08
1.63767e-08
5.49522e-10
-1.5848e-08
-1.07822e-09
-8.28566e-10
5.93488e-10
6.66072e-10
-1.0555e-09
5.7601e-10
4.79486e-10
-6.99922e-09
-3.85982e-09
4.49243e-09
-4.49352e-10
6.41881e-10
-1.92528e-10
1.3197e-09
-1.49389e-08
-6.8762e-10
8.6276e-09
-9.97937e-09
-1.21657e-09
-1.29076e-09
1.24522e-08
4.40309e-09
-4.16853e-09
-1.26867e-08
3.31347e-10
6.90905e-09
-7.58872e-09
6.51208e-09
-2.0237e-09
-8.32686e-09
7.68045e-09
2.67011e-09
-1.79236e-09
5.93941e-10
-1.34672e-08
-2.79168e-10
-1.70185e-10
-5.92144e-10
1.33506e-09
-7.63061e-09
7.98575e-10
1.71858e-08
-1.60765e-09
-1.48294e-08
1.60057e-08
-1.17625e-09
1.18286e-08
1.40091e-08
-1.55957e-08
-1.0242e-08
-9.1685e-10
1.52391e-09
-6.07055e-10
1.61916e-09
-2.09835e-09
4.79184e-10
2.85273e-09
-4.2043e-09
1.35157e-09
2.04993e-09
-1.72116e-09
-3.28765e-10
-1.21655e-08
2.36411e-10
1.19291e-08
2.80716e-09
-7.57232e-10
8.82244e-09
-1.50147e-08
6.40971e-09
-7.39076e-09
1.12325e-10
4.05226e-09
-4.49505e-10
-3.16503e-09
3.27735e-09
-7.81794e-09
9.19138e-09
-1.37344e-09
-9.58185e-10
4.06427e-09
1.00163e-09
1.70218e-08
-1.45189e-08
-1.52021e-09
-5.30625e-09
5.09142e-09
-1.6728e-09
-2.7497e-10
6.98755e-09
-6.96894e-09
-1.86157e-11
7.08172e-09
4.3125e-09
3.28409e-10
-1.55951e-08
1.02748e-08
1.71489e-08
5.6732e-09
8.31758e-09
8.1995e-09
-6.73292e-09
6.37015e-10
-1.28025e-08
1.48361e-09
-1.48687e-10
-1.26373e-08
3.71771e-09
-4.40355e-10
1.40309e-08
-1.34813e-08
-8.31009e-11
-1.16244e-09
-1.35605e-08
7.04046e-09
9.71733e-10
-6.07385e-11
-8.95637e-09
5.34382e-09
-3.15529e-08
-1.25616e-08
-2.28369e-09
1.2848e-09
1.3625e-08
1.10063e-08
-1.06786e-08
-1.39527e-08
1.6623e-08
-3.11008e-09
-1.35129e-08
1.80442e-09
3.81293e-09
-1.51643e-09
-1.01117e-09
-1.07704e-09
1.41101e-09
6.77205e-10
-3.22861e-10
4.57286e-10
4.65851e-10
6.21926e-08
-6.22958e-08
1.03165e-10
6.19474e-08
-6.23231e-08
3.75663e-10
8.94414e-10
6.47862e-08
-6.56118e-08
8.25612e-10
6.41821e-08
6.04043e-10
-1.3049e-10
-6.65494e-08
9.37656e-10
-6.21159e-08
6.20549e-08
6.10567e-11
1.32016e-09
-6.78696e-08
-6.22096e-08
9.36429e-11
1.19984e-08
-1.22935e-09
1.86027e-09
-3.75254e-09
3.12162e-09
4.70042e-10
-1.33645e-09
1.20683e-09
-8.81461e-10
1.53569e-09
-1.82333e-09
1.16911e-09
1.60079e-09
-1.77595e-09
4.98824e-10
-1.16415e-10
-3.29999e-09
3.14889e-09
-2.42858e-09
2.57968e-09
-9.57707e-10
-2.93038e-09
2.65874e-09
-3.94882e-09
-5.50216e-09
6.82055e-10
-7.9259e-10
1.51724e-09
1.22528e-09
-6.62402e-09
8.01197e-09
2.92455e-09
2.09118e-08
-4.2888e-09
-8.56749e-10
3.05894e-10
1.23291e-09
-1.02366e-08
-2.70253e-08
5.50782e-09
-4.53091e-09
-3.07917e-09
2.10226e-09
1.41172e-10
5.20301e-12
5.83689e-10
-2.88847e-09
3.5697e-09
8.55184e-09
9.58063e-10
-6.53192e-10
2.26633e-09
-2.57085e-09
2.3732e-09
1.45968e-08
1.30373e-08
-2.65495e-08
3.20929e-08
6.11352e-09
-2.25059e-08
-1.01571e-08
1.78499e-08
-1.74988e-08
1.06552e-08
-3.16576e-10
4.05856e-11
-1.49996e-09
-1.9777e-09
-2.04604e-09
3.64542e-09
1.45413e-08
-5.573e-10
-1.33901e-08
1.77544e-10
-2.95555e-09
-1.52377e-10
1.51386e-08
1.73081e-08
1.34789e-08
7.58146e-10
-1.52963e-09
-1.27074e-08
-1.97133e-09
5.96692e-09
1.21535e-08
-8.83163e-10
-1.30871e-09
-3.50131e-09
2.73059e-09
3.91961e-09
2.40043e-09
1.40267e-08
4.13658e-09
-1.37602e-08
1.72086e-08
-1.64935e-09
2.93617e-09
-3.69415e-09
1.89383e-09
-4.47366e-09
1.273e-08
-1.19594e-08
-1.37331e-08
6.1434e-10
8.64512e-09
-1.94838e-09
1.64966e-09
1.81596e-09
-8.84591e-09
4.77751e-10
-4.19344e-09
-5.95262e-09
1.2065e-08
-1.49582e-08
1.48706e-09
1.64119e-09
-2.10357e-09
1.62235e-08
-1.57611e-08
-9.68168e-10
1.38897e-08
2.57584e-09
-3.82787e-09
-1.37627e-08
7.24188e-09
-1.68113e-08
-7.92935e-09
6.42052e-09
5.82285e-09
1.41708e-08
-9.38636e-09
3.18749e-09
8.86897e-09
9.7851e-09
3.90007e-09
-4.08524e-09
2.13299e-08
-1.8678e-08
4.58998e-09
-9.88128e-09
2.29934e-09
5.23357e-09
1.33946e-08
-8.03154e-11
1.23683e-08
-1.32562e-08
-1.6216e-09
2.6426e-09
-1.82969e-09
8.08683e-10
1.06885e-08
-6.32545e-09
7.25881e-09
-1.02719e-08
1.41174e-09
-4.75569e-09
1.11091e-08
-1.16006e-08
-7.40239e-09
8.87132e-09
9.21958e-09
1.24748e-08
9.84423e-10
-1.35395e-08
1.76515e-09
8.7114e-10
-1.07895e-08
-6.73147e-09
1.01185e-08
-1.83234e-09
2.52538e-09
-8.62545e-09
4.67744e-09
-5.09789e-09
1.11687e-08
-3.49197e-09
-1.13266e-08
3.64991e-09
-4.54163e-09
1.09546e-08
2.18211e-09
1.23269e-09
-4.96081e-09
-1.74643e-08
1.0406e-08
1.2019e-08
9.08016e-10
-1.06348e-08
-9.61635e-09
1.52903e-08
1.20438e-08
2.69095e-09
-9.50116e-09
-1.31712e-08
-2.55951e-10
-1.2376e-08
3.22834e-10
-6.0719e-10
1.09846e-08
1.23584e-08
-8.03055e-09
1.60457e-08
-1.53474e-08
3.43834e-09
-4.93735e-10
1.63722e-09
1.22844e-08
-3.85675e-09
-1.23547e-08
-5.12497e-09
4.91143e-10
4.48514e-09
1.18275e-08
-7.50862e-09
7.84258e-10
-1.10307e-09
1.83912e-09
-2.35765e-09
5.97284e-09
2.60123e-08
-7.69452e-10
-1.302e-08
1.37894e-08
2.77046e-08
-2.18619e-08
2.19494e-08
1.92015e-08
-1.24384e-08
-2.53352e-09
1.47739e-08
1.04315e-10
-1.19389e-08
-3.32788e-10
-6.0058e-09
-2.0062e-09
2.44564e-09
1.74268e-09
2.11291e-10
-1.06446e-08
1.06709e-08
-2.37582e-10
2.15994e-09
-5.51707e-09
-1.04751e-08
1.01706e-08
-6.25662e-10
-1.02534e-08
-7.97533e-12
-1.03756e-08
-2.94146e-09
-1.17011e-08
2.31345e-09
7.71125e-09
5.05722e-09
3.00952e-10
-1.13964e-08
1.13067e-08
7.08913e-10
-8.37861e-09
5.28232e-09
-7.07973e-10
2.78652e-09
-3.39844e-09
-1.28742e-08
-1.33984e-08
1.29299e-08
-9.85987e-09
-1.57699e-08
1.00347e-08
8.99664e-09
8.38175e-10
2.57256e-09
-1.55925e-08
1.07122e-08
1.6842e-09
4.06006e-09
4.04574e-10
-6.51971e-10
-4.64881e-10
-4.00733e-09
2.74812e-09
-1.69634e-09
4.17108e-10
-4.8681e-10
6.97015e-11
-2.45703e-09
1.24425e-08
2.05836e-09
2.53643e-09
-1.19499e-09
-1.91222e-09
-2.48997e-11
-2.62967e-09
-7.82504e-10
1.25748e-08
9.68903e-09
-5.49886e-10
7.15505e-09
-1.18327e-09
-5.4219e-09
-9.68812e-09
-5.08521e-09
3.26891e-10
9.02166e-11
4.49109e-09
1.42618e-09
-1.65521e-08
-6.65209e-10
-9.69211e-10
-2.12367e-09
7.60394e-10
2.54114e-09
6.21295e-08
-8.7008e-11
-6.20425e-08
6.23429e-08
1.81036e-10
-6.2524e-08
-1.41384e-08
1.38913e-10
1.44869e-08
-4.87442e-10
2.56622e-09
-2.12321e-09
2.86316e-09
1.78544e-09
-4.41537e-09
-6.02967e-10
-6.80534e-10
5.52128e-10
-1.61519e-10
6.64267e-10
-4.87972e-10
1.87571e-08
1.1182e-09
-1.53842e-08
-3.516e-10
-1.96167e-09
1.20572e-08
2.18887e-09
1.74869e-09
5.00623e-09
-1.74713e-09
-7.74025e-08
-2.4145e-08
-4.82838e-09
1.55996e-08
2.34142e-09
-8.95364e-10
-3.43065e-09
-1.43451e-09
7.81598e-10
-6.55798e-10
-1.2883e-08
-3.10476e-10
1.31935e-08
-1.05663e-08
-6.67303e-09
1.05079e-08
-9.1929e-09
8.88502e-09
-2.25003e-10
1.97224e-09
1.23629e-08
-1.2068e-08
-2.94867e-10
7.87579e-10
5.40699e-11
9.5222e-09
1.14077e-09
-1.24877e-09
-4.10742e-10
-1.41762e-08
-5.20181e-10
-1.32754e-08
1.19646e-08
-1.13399e-08
-6.60381e-08
6.49633e-08
1.07484e-09
5.45514e-10
-5.40311e-10
1.155e-08
-5.09901e-10
2.30909e-11
-1.86735e-09
2.75984e-09
-3.3642e-09
-1.35108e-08
-1.64095e-09
2.55082e-09
-4.61886e-09
-1.37384e-08
1.80516e-09
5.61751e-09
9.35384e-09
-8.6941e-09
-5.38745e-10
2.88441e-11
-9.36345e-09
-1.24805e-08
1.3335e-10
-6.27851e-08
2.29806e-10
6.25553e-08
6.89122e-10
6.3493e-08
-1.66288e-10
-7.90615e-10
-1.42678e-08
1.22702e-10
-6.33597e-08
6.3237e-08
1.78137e-10
-6.28986e-08
6.27204e-08
5.90457e-10
6.17731e-08
1.8666e-10
-6.19598e-08
6.15762e-08
1.96963e-10
-8.78644e-08
8.84757e-08
-7.21512e-12
9.34421e-08
-9.31188e-08
-2.20049e-10
-8.661e-08
-4.28845e-10
9.34461e-08
-1.34515e-10
-8.4902e-08
-7.70331e-10
9.35772e-08
2.44591e-10
-5.18566e-10
2.01324e-09
9.24583e-08
-6.93673e-08
6.21804e-08
-6.23989e-08
-6.30195e-08
6.13831e-08
1.93084e-10
-2.99432e-09
2.66261e-09
-1.34285e-08
9.62336e-11
2.30658e-10
2.46813e-09
9.91748e-09
-1.20424e-08
3.82533e-08
-3.44775e-08
-1.64131e-08
1.39856e-08
-9.27479e-11
-2.15239e-10
3.36249e-10
9.69219e-10
-1.97053e-10
4.26319e-10
4.69052e-09
1.0635e-09
-3.8602e-09
-4.69123e-10
5.38291e-10
-3.78775e-10
-2.39376e-09
1.26563e-08
2.17992e-09
-1.44251e-08
-2.24561e-09
-3.80112e-09
5.6973e-09
1.09549e-09
-2.38454e-09
1.40238e-08
-1.23321e-09
-4.64285e-09
7.2506e-09
-7.83836e-09
-1.89563e-08
-1.28929e-08
7.6315e-09
5.87576e-09
-3.25242e-10
-5.15804e-10
3.28668e-09
1.43298e-08
1.70957e-09
-1.18314e-09
-4.92738e-10
5.29257e-10
-3.11489e-10
1.58965e-08
-4.53494e-10
-1.57535e-08
-4.65393e-09
-2.69332e-09
2.87816e-10
-2.3932e-10
4.35689e-09
-1.8321e-08
6.73371e-10
-1.7416e-09
-2.37072e-09
-2.25436e-09
1.51601e-08
-9.05463e-08
-1.56402e-10
9.16975e-08
-2.20591e-10
-8.91475e-08
-4.73531e-10
9.30806e-08
-2.93237e-10
-9.28744e-08
-6.62097e-10
-1.83673e-09
1.60493e-08
9.20175e-08
-1.84109e-10
1.737e-11
-2.04541e-10
1.11715e-08
2.13616e-09
-9.93372e-09
-1.18075e-08
-5.56123e-09
8.45532e-09
1.38369e-09
-6.91446e-09
-6.49997e-09
9.1099e-09
-2.65055e-10
1.01535e-08
1.91213e-08
-1.76179e-08
3.00955e-09
-1.23699e-08
3.02474e-09
-7.00892e-08
4.05104e-09
-2.03227e-08
-1.25683e-08
-6.26448e-10
-5.75653e-09
-1.53928e-08
9.21046e-09
-1.51555e-08
6.03714e-10
5.11897e-10
-1.46033e-09
-1.604e-08
1.6603e-08
9.606e-09
-9.60776e-09
-5.53125e-09
1.47884e-08
-1.5956e-09
8.31004e-10
-1.53779e-09
6.12576e-10
1.21362e-08
3.41916e-09
7.09394e-08
-1.78863e-08
9.63412e-10
-1.45425e-08
-3.20797e-10
-3.6447e-10
-2.30078e-10
6.07901e-08
-6.10833e-08
-6.33423e-08
-6.30827e-08
-1.23786e-11
-2.99794e-10
-9.25622e-08
-6.04756e-08
6.24888e-08
6.50673e-08
-6.0231e-08
6.45487e-08
-6.03655e-08
6.37784e-08
-6.05855e-08
6.33495e-08
9.23081e-08
4.0506e-10
-6.57208e-09
7.49716e-08
-6.49803e-08
1.30609e-10
-1.30609e-10
2.14831e-09
-3.84969e-10
1.54825e-08
-1.51451e-10
1.51451e-10
5.17249e-10
1.42382e-09
1.4005e-08
1.28442e-08
-2.63998e-09
3.64352e-09
6.41675e-09
1.92681e-09
4.80934e-10
-3.44445e-10
-2.87158e-09
1.43184e-08
1.48038e-08
-4.32209e-09
1.15572e-08
2.80279e-10
2.21015e-10
3.01231e-09
-1.04878e-09
-1.80012e-09
-5.92031e-09
-1.39459e-10
-5.05475e-10
1.5196e-08
3.88616e-10
1.79895e-10
1.66267e-08
-2.54578e-08
1.71174e-08
2.54441e-09
1.50804e-09
2.1431e-09
-3.49658e-09
1.88932e-08
-1.75398e-08
-1.4856e-10
9.43465e-10
-1.44271e-09
-7.9152e-08
-7.081e-08
1.48058e-09
-1.17916e-09
7.39076e-10
2.28043e-08
1.82663e-08
-6.46682e-09
1.89211e-10
-4.51562e-09
-1.9626e-09
2.99681e-08
1.29372e-10
1.49137e-08
7.35656e-08
1.13604e-10
5.79057e-10
-2.31767e-10
-3.02888e-10
-3.90163e-09
2.38354e-08
-1.47226e-08
1.24489e-09
-1.39462e-08
-1.00049e-10
2.01051e-08
-2.81555e-08
9.00807e-10
2.59666e-09
-7.20441e-10
)
;

boundaryField
{
    back
    {
        type            empty;
        value           nonuniform 0();
    }
    ingreso
    {
        type            calculated;
        value           nonuniform List<scalar> 
14
(
-1.54286e-08
-1.54288e-08
-1.54288e-08
-1.54288e-08
-1.54286e-08
-1.54283e-08
-1.54288e-08
-1.54288e-08
-1.54286e-08
-1.54286e-08
-1.54288e-08
-1.5428e-08
-1.5428e-08
-1.54286e-08
)
;
    }
    salida
    {
        type            calculated;
        value           nonuniform List<scalar> 2(1.01548e-07 1.14453e-07);
    }
    front
    {
        type            empty;
        value           nonuniform 0();
    }
    defaultFaces
    {
        type            calculated;
        value           uniform 0;
    }
}


// ************************************************************************* //
