/*--------------------------------*- C++ -*----------------------------------*\
  =========                 |
  \\      /  F ield         | OpenFOAM: The Open Source CFD Toolbox
   \\    /   O peration     | Website:  https://openfoam.org
    \\  /    A nd           | Version:  7
     \\/     M anipulation  |
\*---------------------------------------------------------------------------*/
FoamFile
{
    version     2.0;
    format      ascii;
    class       volScalarField;
    location    "11.5";
    object      p;
}
// * * * * * * * * * * * * * * * * * * * * * * * * * * * * * * * * * * * * * //

dimensions      [0 2 -2 0 0 0 0];

internalField   nonuniform List<scalar> 
591
(
0.000124728
0.000124739
0.000124781
0.000124722
0.000124724
0.000124897
0.00012478
0.000124761
0.000117563
0.000124755
0.0001249
0.000123596
0.000124879
0.000120438
0.000124762
0.000124776
0.000124643
0.00012479
0.000122684
0.000124113
0.000124727
-3.5932e-07
0.000124898
0.00012472
0.000124852
0.000124731
0.000124777
0.000124815
0.00012474
0.000124813
0.000124872
0.000124849
0.000124869
0.000124867
0.000124871
0.000124232
0.000124866
0.000124748
0.000124888
0.000124801
0.00012477
0.000124863
0.000124754
0.000124782
0.00012486
0.000124875
0.000119977
0.000124879
0.000124742
0.000124868
0.000124806
0.000124851
2.53121e-05
3.04613e-05
4.8525e-05
0.000124809
0.000124882
0.000124862
0.000124876
0.000124708
0.000124788
0.000124736
0.000124748
0.000124913
0.000123311
0.000124745
0.000124752
0.000124875
0.000121427
0.0001248
0.000124746
0.00012488
0.000124833
0.000124862
0.000124867
0.000124841
0.000124709
0.000124877
0.000124715
0.000124634
0.000124506
0.000124881
0.000124848
0.000124805
0.000124889
0.000124725
0.000124814
0.000124872
0.000124838
0.000124604
0.000124852
0.000124773
0.000124803
0.000124727
0.000124888
0.000124848
0.000124439
0.000124324
0.000124445
0.00012489
0.000124808
0.000124739
0.000124894
0.000124726
0.000124891
0.000124755
0.00012475
0.000124838
0.000124889
0.000124891
0.000124779
0.000124859
0.000124748
0.00012487
0.00012489
0.000124875
0.000124806
0.000124825
0.000124355
0.000124771
0.00012475
0.000124922
0.00012478
0.000124722
0.000124871
0.000120853
0.000124894
0.000124858
0.000124508
0.000124868
0.000124733
0.000124428
0.000124836
0.000124826
0.000124871
0.000124769
0.000123411
0.000124895
0.000124747
0.000124364
0.00012443
0.000124798
0.000124871
0.000124887
0.000124882
9.82454e-06
5.78663e-06
4.24077e-06
3.89823e-05
3.69112e-05
7.83953e-06
3.9204e-05
1.7845e-05
3.80048e-05
1.9788e-05
0.000124747
0.000124724
0.000124882
0.000124878
0.000124884
0.000124881
0.000124876
0.000124874
0.000124875
0.000124876
0.000124831
0.000124885
0.00012488
0.000124885
0.000124807
0.000124165
0.000124888
0.000122852
0.000124853
0.00012487
0.000124805
0.000124745
0.000124869
0.000124878
0.000124873
0.000124277
0.000123225
0.000123804
0.000124231
0.000124873
0.000124877
0.00012486
0.00012472
0.000124868
0.000123699
0.000124084
0.000124721
0.000124872
0.000124576
0.000124863
0.000124866
0.000124833
0.000124536
0.000124711
0.000124865
0.000124885
0.000124867
0.000124658
0.000124845
0.000124666
0.000124885
0.000124755
0.000124749
0.000124881
0.000124515
0.000124709
0.000124779
0.000124336
0.000124832
0.000124489
0.000124775
0.000124769
0.000124853
0.000124261
0.000124772
0.000124699
0.000124722
0.000124839
0.00012461
0.000124768
0.00012468
0.000124582
0.000124709
0.000124888
0.000124641
0.000124882
0.000124709
0.000124854
0.000124723
0.000124716
0.000124885
0.000124632
0.00012488
0.000124628
0.000124681
0.00012478
0.000124737
0.000124745
0.000124742
0.000124481
0.000124708
0.000124653
0.000124845
0.000124742
0.000124557
0.000124832
0.000124089
0.000124691
0.000124013
0.000123848
0.000124746
0.000124685
0.000124739
0.000124734
0.000124663
0.000124883
0.000124762
0.000124829
0.000124749
0.000124768
0.000124778
0.000124831
0.000124499
0.00012488
0.00012454
0.000124419
0.000124767
0.00012486
0.000124435
0.000124883
0.000124775
0.000124816
0.00012484
0.000124778
0.000124709
0.000124492
0.000124709
0.00012473
0.000124747
0.000124776
0.000124858
0.000124865
0.000124876
0.000124668
0.000124749
0.000124857
0.000124872
0.000124868
0.000124697
0.000124884
0.000124746
0.000124845
0.00012464
0.000124879
0.000124648
0.000124857
0.000124777
0.000124721
1.39124e-05
2.35181e-05
0.000124704
0.000124752
0.000124884
0.000124675
0.000124883
0.000124756
0.000124879
0.00012486
0.000124644
0.000124854
0.000124707
0.000124878
0.000124769
1.10017e-07
0.000124539
0.000124857
0.000124855
0.000124609
0.000124694
0.000124715
0.00012485
0.000124674
0.000124874
0.000124771
0.000124768
0.000124848
0.000124726
0.000124643
0.000124666
0.00012477
4.81166e-05
0.000124866
0.000124848
0.000124732
0.000124874
0.000124796
0.000124758
0.000124727
0.000124722
0.000124861
0.00012489
0.000124676
0.00012474
0.000124681
0.000124877
0.000124689
0.000124711
0.000124761
0.000124841
2.16936e-05
2.80328e-05
3.40938e-05
1.18853e-05
0.000124719
3.30185e-05
2.70267e-05
0.000124872
2.10101e-05
1.90751e-05
3.86948e-05
9.87479e-06
4.06973e-05
7.84039e-06
4.16441e-05
5.80029e-06
4.35203e-05
3.82377e-06
3.70615e-05
2.47449e-05
2.95966e-05
1.70968e-05
0.000124575
0.000124881
0.00012478
0.000124792
0.000121585
0.000124951
0.000124876
0.000124848
0.000124703
0.000124881
0.00012487
0.000124866
0.000124864
0.000124648
0.0001247
0.000124853
0.000124857
0.000124705
0.000124603
0.000124555
0.000124167
0.000124649
0.000124893
0.000124869
0.000124726
0.000124894
0.00012461
0.000124714
0.000124559
0.000123629
0.000124864
0.000124873
0.000124888
0.000124597
0.000124733
0.000124567
0.000124756
0.000124702
2.69714e-05
2.35366e-05
3.28307e-05
1.3913e-05
0.0001249
0.000124617
2.17141e-05
2.85705e-05
3.56903e-05
1.19063e-05
0.000124708
0.000124818
0.000124706
0.000124692
0.000124901
0.000124815
0.000124601
0.000124861
0.000124778
0.000123869
0.000124702
0.00012467
5.99884e-05
0.000124006
0.000124885
0.000124743
0.000124643
0.000124874
0.000124877
0.000124737
0.000124508
0.000124767
0.000124797
0.000124577
0.000124831
0.000123704
0.000124703
0.000124684
0.000124819
0.000101412
0.000124657
0.000124271
0.000124673
0.00012489
0.000124571
1.31816e-05
2.29189e-05
3.56091e-05
2.87689e-05
1.58708e-05
2.17621e-06
4.27184e-05
4.90668e-06
4.08493e-05
6.98736e-06
4.025e-05
9.06458e-06
3.95246e-05
1.11604e-05
3.79722e-05
1.58685e-05
3.14649e-05
3.06956e-05
2.52899e-05
2.64294e-05
1.97869e-05
1.51214e-05
1.78168e-05
0.00012488
0.000103008
0.000124719
0.000124675
0.000124884
0.000124784
0.00012489
0.000124626
0.0001249
0.000124857
0.000124851
0.000125003
0.000124619
0.00012486
0.00012459
0.000124819
0.000124701
0.000124884
0.00012472
0.000124568
0.000124563
0.000124873
0.000124937
0.000124895
0.000124882
0.000124885
0.000124853
0.000124888
0.000124533
0.000124742
0.000124886
0.000124679
0.000124941
0.000124743
0.000124731
0.000124607
0.000124855
0.000124855
0.000124192
0.000122149
0.000123898
0.00012445
0.000124718
0.000124572
0.0001249
0.000124887
0.000124838
0.000124791
0.00012434
0.000124348
0.000124886
0.000124858
0.000124784
0.000124817
0.000124371
5.90386e-05
4.07496e-05
0.000124826
0.000124843
0.000124221
0.000123516
0.000124746
0.000124392
0.000124153
0.000124877
0.000124597
0.000124859
0.000124741
0.0001248
0.00011968
5.50051e-05
0.000124792
8.18274e-05
2.59239e-06
9.61137e-07
0.000124739
0.000124732
0.000124856
0.000124888
0.000124874
0.000124887
0.000124873
0.000124733
-9.71714e-07
0.000123619
0.000124769
0.000124834
0.000122711
0.000124885
0.000124884
0.000123038
0.000124835
0.000124859
0.000122454
0.00012488
7.70302e-05
0.000124883
0.000124274
0.000124847
0.000123132
0.000124438
0.000124452
0.000124776
0.000124882
0.000124842
0.000124883
0.0001249
0.000124722
0.000116816
)
;

boundaryField
{
    back
    {
        type            empty;
    }
    ingreso
    {
        type            zeroGradient;
    }
    salida
    {
        type            fixedValue;
        value           uniform 0;
    }
    front
    {
        type            empty;
    }
    defaultFaces
    {
        type            zeroGradient;
    }
}


// ************************************************************************* //
