/*--------------------------------*- C++ -*----------------------------------*\
  =========                 |
  \\      /  F ield         | OpenFOAM: The Open Source CFD Toolbox
   \\    /   O peration     | Website:  https://openfoam.org
    \\  /    A nd           | Version:  8
     \\/     M anipulation  |
\*---------------------------------------------------------------------------*/
FoamFile
{
    version     2.0;
    format      ascii;
    class       volScalarField;
    location    "2.2";
    object      p;
}
// * * * * * * * * * * * * * * * * * * * * * * * * * * * * * * * * * * * * * //

dimensions      [0 2 -2 0 0 0 0];

internalField   nonuniform List<scalar> 
5490
(
7.44777e-06
7.99173e-06
6.37506e-06
7.5762e-06
1.24821e-06
1.28259e-05
1.33343e-05
1.32871e-05
5.31264e-06
1.32593e-05
5.90129e-06
5.50474e-06
4.5953e-06
5.14635e-06
5.1402e-06
1.33041e-05
1.33378e-05
1.29191e-05
7.29258e-06
5.46932e-06
3.8091e-06
1.33334e-05
1.30733e-05
1.3333e-05
3.74105e-06
4.15967e-06
4.72721e-06
7.31609e-06
1.25843e-05
2.6699e-06
7.03799e-06
1.33247e-05
1.06635e-05
9.22585e-06
3.21801e-06
6.83905e-06
1.25146e-05
7.26409e-06
1.72077e-06
3.56674e-06
7.08501e-06
1.25216e-05
6.21881e-06
1.25874e-05
1.34358e-05
9.10317e-06
2.51947e-06
1.86807e-06
7.33141e-06
1.15469e-05
1.32684e-05
2.81635e-06
3.32988e-06
1.48653e-06
4.45413e-06
9.29443e-06
1.23321e-05
1.38651e-05
5.24357e-06
2.78165e-06
1.25584e-05
6.80855e-07
8.61304e-06
1.32991e-05
1.33353e-05
1.31684e-05
1.32652e-05
1.25968e-05
2.24997e-06
1.34474e-05
1.79052e-06
3.7859e-06
1.32639e-05
1.33076e-05
1.32453e-05
3.2159e-06
1.29147e-05
6.47207e-07
7.65734e-06
6.28156e-06
1.25171e-05
1.16774e-05
1.26919e-05
7.41437e-06
1.16076e-06
8.39672e-06
1.29059e-05
1.2868e-05
3.51253e-06
1.24985e-05
1.3334e-05
1.27576e-05
1.55229e-06
1.34433e-05
7.12605e-06
1.33143e-05
5.54093e-06
1.27561e-05
1.27259e-05
4.28359e-06
5.27055e-06
3.29645e-06
9.27792e-06
1.33327e-05
9.44044e-06
8.95148e-06
3.27098e-06
1.22764e-05
1.33117e-05
1.33262e-05
1.33405e-05
1.32899e-05
1.32572e-05
9.1966e-06
6.55453e-06
1.25914e-05
7.74803e-06
1.31707e-05
1.31594e-05
2.90554e-06
9.4891e-06
1.07718e-05
1.26682e-05
7.53276e-06
1.33378e-05
1.3216e-05
5.00784e-06
9.18107e-07
1.33516e-05
4.87632e-06
1.32872e-05
1.25105e-05
4.0082e-06
6.05311e-06
2.02071e-06
1.33119e-05
1.37011e-05
1.32522e-05
1.32535e-05
8.92657e-06
1.33391e-05
1.33439e-05
3.91846e-06
1.2416e-05
1.33103e-05
1.3381e-05
4.22253e-08
1.33716e-05
2.96595e-06
1.26913e-05
1.33269e-05
1.33234e-05
5.40154e-06
1.33441e-05
1.23447e-05
1.33375e-05
1.33304e-05
1.32577e-05
1.33832e-05
4.96063e-06
6.3722e-06
1.21001e-05
1.23472e-05
1.31625e-05
1.32962e-05
1.3056e-05
1.33211e-05
5.67668e-07
1.28912e-05
3.01613e-07
1.37699e-05
9.79053e-07
4.13024e-06
1.33225e-05
5.67796e-06
2.43365e-06
3.17888e-06
1.33451e-05
4.05618e-06
5.03289e-06
1.34158e-05
1.33117e-05
7.92194e-06
7.12331e-06
1.33391e-05
2.10103e-06
2.87867e-06
1.40942e-06
1.3326e-05
1.32957e-05
1.3804e-05
1.89509e-06
7.65471e-06
1.33239e-05
1.32418e-05
6.6894e-06
9.28865e-06
1.33366e-05
1.27114e-05
2.95557e-06
1.32117e-05
8.85935e-06
1.33406e-05
1.33446e-05
1.12523e-05
1.40084e-05
1.33199e-05
1.31915e-05
5.95488e-06
1.28719e-05
1.3497e-05
1.33223e-05
7.17902e-06
6.8806e-06
6.52881e-06
9.04584e-06
6.3191e-06
6.06131e-06
1.36082e-05
1.33356e-05
1.30276e-05
1.33239e-05
1.19434e-05
4.31162e-06
4.04957e-06
1.06643e-06
3.15943e-06
3.20807e-06
1.64001e-06
1.33317e-05
1.44223e-06
1.25146e-05
1.33239e-05
1.32628e-05
8.78076e-06
1.22198e-05
1.32254e-05
1.33264e-05
1.33386e-05
4.86477e-06
1.33372e-05
6.56115e-06
3.72415e-07
2.77707e-06
1.33427e-05
1.30337e-05
1.26508e-05
1.02054e-05
1.2437e-05
1.33188e-05
1.33422e-05
1.08947e-05
1.33694e-05
1.24997e-05
2.59755e-06
8.89498e-06
1.04189e-05
3.3277e-06
5.60893e-06
1.31952e-05
1.26133e-05
7.70369e-06
7.83512e-06
1.36127e-05
1.33237e-05
1.29278e-05
9.51004e-06
1.25449e-05
1.3329e-05
1.32915e-05
1.33165e-05
6.43857e-06
1.33281e-05
1.31934e-05
1.0923e-05
1.33227e-05
1.3301e-05
1.69292e-06
7.27384e-06
9.53931e-06
1.33385e-05
1.33245e-05
1.3338e-05
1.23181e-05
5.76432e-06
1.32688e-05
1.22959e-05
1.33228e-05
1.2079e-05
5.26177e-06
1.12479e-06
1.24863e-05
1.279e-05
9.58469e-06
5.01853e-06
1.30637e-05
1.33381e-05
1.33222e-05
1.23785e-06
1.25927e-05
8.17718e-06
1.32197e-05
7.50876e-06
1.26551e-05
4.48306e-06
1.61293e-06
1.3629e-05
1.3275e-05
8.16019e-06
1.90486e-06
4.03677e-06
1.30315e-05
1.27103e-05
8.64803e-06
5.39178e-06
9.20543e-06
1.96866e-07
1.34413e-05
1.14679e-05
1.33436e-05
1.32856e-05
3.1286e-06
4.73078e-06
1.32534e-05
1.33228e-05
1.78817e-06
9.64331e-07
4.57387e-06
1.29813e-05
7.14772e-06
8.68154e-06
1.33198e-05
1.33262e-05
1.23144e-05
6.83907e-06
2.39611e-06
1.33461e-05
5.27972e-06
1.33424e-05
1.32629e-05
1.34757e-05
1.32875e-05
7.92295e-06
8.72552e-06
5.54871e-06
1.57308e-06
1.69813e-06
1.33343e-05
7.95309e-06
1.40471e-06
1.33446e-05
8.22994e-06
2.99529e-06
3.23411e-06
5.10175e-06
1.33189e-05
6.0203e-06
9.53324e-06
1.34647e-05
7.47692e-06
8.14838e-06
4.65086e-06
1.34271e-05
1.3755e-06
1.90946e-06
8.05396e-07
1.29088e-06
1.3291e-05
1.34014e-05
9.34851e-06
1.66976e-06
3.10191e-06
3.07877e-06
1.33201e-05
1.18458e-05
1.33205e-05
1.33511e-05
4.23359e-06
1.32624e-05
1.26875e-05
1.71283e-06
3.11355e-06
8.51298e-06
9.05224e-06
1.06637e-05
4.77407e-06
5.52652e-06
3.72584e-06
4.30873e-06
1.33219e-05
1.24226e-05
4.97088e-06
1.33115e-05
8.41518e-07
4.08901e-06
4.06905e-06
4.07698e-06
1.33148e-05
2.12359e-06
3.11941e-06
1.34599e-05
1.18744e-05
1.25299e-06
1.28726e-05
4.67626e-06
1.33283e-05
1.3338e-05
1.33253e-05
1.33116e-05
2.73276e-06
9.80752e-06
1.33335e-05
7.4756e-06
1.14853e-05
5.9845e-06
4.08787e-06
3.33723e-06
1.33264e-05
1.33457e-05
8.67965e-06
2.95229e-06
9.31134e-06
1.03444e-05
5.2214e-06
1.24354e-05
1.30006e-05
5.01259e-06
1.33188e-05
1.54905e-06
1.33225e-05
5.83523e-06
5.82589e-06
5.82575e-06
6.66032e-07
1.30299e-05
1.33246e-05
1.32358e-05
1.24108e-05
4.36716e-06
1.83104e-06
9.78412e-06
6.98879e-06
1.64846e-06
1.28407e-05
7.68005e-06
1.32797e-05
9.05847e-06
1.3314e-05
1.33241e-05
1.29357e-05
6.84742e-06
1.33038e-05
5.83016e-06
5.05523e-06
6.8341e-06
6.84e-06
1.32964e-05
1.3322e-05
7.74437e-06
7.56573e-06
7.86792e-06
1.5774e-06
8.92082e-06
9.93993e-06
1.30009e-05
9.12698e-06
6.52034e-06
1.2975e-05
8.52713e-06
1.14081e-05
9.21646e-06
6.8406e-06
6.09897e-06
5.33505e-06
1.49662e-07
1.27019e-05
1.29466e-05
9.65253e-06
9.50637e-06
1.3314e-05
1.33081e-05
9.06807e-06
8.47457e-06
8.88858e-08
7.11596e-06
1.58019e-06
1.35338e-05
9.33663e-06
8.12502e-06
4.12347e-07
4.74314e-06
9.3529e-07
7.93236e-06
1.32914e-05
1.24648e-05
1.33135e-05
1.3288e-05
1.33261e-05
1.848e-06
1.33904e-06
1.79724e-06
1.74647e-06
1.33267e-05
1.33148e-05
1.3188e-05
7.97712e-06
3.41732e-06
8.3051e-06
1.21954e-05
1.27278e-05
1.30174e-05
1.26284e-05
1.33155e-05
1.33022e-05
1.33149e-05
1.33254e-05
1.24209e-05
1.56829e-06
8.04578e-06
1.29981e-05
1.28309e-05
1.33132e-05
1.25403e-05
1.24881e-05
1.33315e-05
1.32896e-05
2.06808e-06
1.30171e-05
1.32961e-05
8.90132e-07
1.3341e-05
2.0466e-06
1.37868e-05
1.37632e-05
8.82337e-06
1.12068e-05
1.33192e-05
1.24835e-05
1.33269e-05
4.63744e-06
1.32325e-05
1.24948e-05
1.31556e-05
1.15962e-05
1.33098e-05
1.32956e-05
1.23245e-05
1.23331e-05
1.31438e-05
1.33232e-05
7.07511e-06
1.06734e-05
8.32683e-07
1.31114e-05
1.32822e-05
2.23938e-06
1.30688e-05
1.32947e-05
8.12752e-07
1.33124e-05
1.3345e-05
1.3311e-05
1.33287e-05
1.33459e-05
1.22921e-05
1.03919e-05
1.2994e-05
1.01174e-05
2.19429e-06
1.33369e-05
7.76966e-07
1.2391e-05
1.33286e-05
1.31961e-05
1.332e-05
1.33356e-05
1.3032e-05
9.79028e-06
1.17502e-05
2.66804e-06
1.33255e-05
1.27404e-05
1.25125e-05
1.68672e-06
9.55442e-06
1.333e-06
1.18302e-05
1.3316e-05
1.32695e-05
1.33174e-05
1.30352e-05
1.31981e-05
1.33273e-05
1.29661e-05
1.33138e-05
1.3297e-05
1.32792e-05
1.3345e-05
1.33271e-05
1.32838e-05
1.46008e-06
3.34903e-06
1.27667e-05
1.33413e-05
7.147e-06
1.79388e-06
5.46417e-06
1.3085e-05
1.96882e-06
8.9912e-06
1.33091e-05
1.32972e-05
1.25514e-05
5.68704e-06
6.75894e-06
1.76168e-06
1.33035e-05
1.25279e-05
1.3321e-05
1.04262e-05
1.36502e-05
1.84903e-06
1.71104e-06
2.86381e-06
2.45809e-07
1.3321e-05
1.32907e-05
6.67142e-06
1.31194e-05
1.23234e-05
1.33108e-05
1.23797e-05
1.32674e-05
1.12975e-05
1.26348e-05
2.64144e-06
9.98336e-06
1.92736e-06
1.23833e-05
1.35575e-05
1.3544e-05
1.25685e-05
1.33264e-05
1.32997e-05
1.27017e-05
1.45432e-06
9.69498e-06
1.35322e-05
1.29985e-05
3.86894e-06
1.10437e-05
1.29745e-05
9.26101e-06
1.33441e-05
1.33616e-05
1.28631e-05
1.33282e-05
1.30908e-05
1.24096e-05
1.23179e-05
1.24848e-05
9.9907e-06
1.22574e-05
1.33129e-05
2.49146e-06
1.36785e-05
8.06556e-06
1.08806e-05
1.2539e-05
1.31722e-05
1.3291e-05
1.35516e-05
1.27341e-05
1.31508e-05
1.28887e-05
1.23571e-05
1.29487e-05
5.64973e-06
1.28124e-05
1.26441e-05
1.32928e-05
1.23025e-05
8.78334e-06
9.70895e-06
9.43788e-06
1.36535e-05
1.33155e-05
1.32411e-05
1.33274e-05
1.94997e-06
1.23927e-05
1.33287e-05
4.82215e-06
9.66469e-06
1.33095e-05
1.33222e-05
1.24202e-05
1.3322e-05
1.02287e-05
1.23023e-05
1.25361e-05
4.22951e-06
1.02977e-05
1.24668e-05
6.65724e-06
1.3327e-05
1.29857e-05
1.24627e-05
1.25381e-05
9.81974e-06
1.27464e-05
1.25309e-05
1.28511e-05
1.35228e-05
1.3313e-05
1.32994e-05
1.33235e-05
1.01513e-05
1.01376e-05
1.24894e-05
1.33009e-05
9.6404e-06
5.14568e-06
1.31569e-05
2.23522e-06
1.28598e-05
1.33253e-05
9.04919e-06
9.41899e-06
9.37012e-06
1.33004e-05
1.22591e-05
1.2167e-05
1.25192e-05
1.26691e-05
1.33086e-05
1.29948e-05
1.25033e-05
8.92023e-06
1.33254e-05
1.2554e-05
1.11071e-05
7.71539e-06
1.15779e-05
5.28754e-06
1.31427e-05
1.26201e-05
1.3327e-05
1.25067e-05
1.36048e-05
1.30314e-05
1.1043e-06
1.30632e-05
1.33297e-05
1.31786e-05
9.72696e-06
1.30726e-05
1.33239e-05
1.24908e-05
1.24383e-05
1.28533e-05
1.33161e-05
9.72478e-06
1.33205e-05
4.43116e-06
1.33275e-05
1.33916e-05
1.00254e-05
4.98106e-06
5.5173e-06
1.3473e-05
9.74774e-06
1.27411e-05
1.01936e-05
1.28899e-05
1.26816e-05
1.31715e-05
1.84821e-06
1.27573e-05
1.3329e-05
5.10501e-06
1.29855e-05
1.13007e-05
1.27242e-05
9.26834e-06
9.99838e-06
1.25707e-05
1.33268e-05
1.33039e-05
1.27532e-05
1.29454e-05
1.31763e-05
9.90368e-06
9.07433e-06
1.25406e-05
1.2795e-05
7.77211e-06
1.2902e-05
1.33055e-05
1.32004e-05
7.32072e-07
1.27531e-05
1.27544e-05
9.19845e-06
1.30324e-05
1.33099e-05
1.3333e-05
1.28744e-05
9.121e-06
1.33303e-05
1.30087e-05
1.32825e-05
9.93991e-06
1.33251e-05
1.04488e-05
1.28916e-05
1.28229e-05
1.33136e-05
3.49323e-06
9.64175e-06
8.68771e-07
5.70347e-06
1.2967e-05
9.01307e-06
1.3384e-05
1.2656e-05
5.38378e-06
2.38021e-06
1.37308e-05
1.31246e-05
1.33344e-05
1.30816e-05
4.92746e-06
1.01762e-05
1.10487e-05
1.33303e-05
1.33219e-05
1.29337e-05
1.35827e-05
1.33057e-05
3.93887e-06
1.28271e-05
3.38483e-06
1.07598e-05
1.26155e-05
1.02659e-05
1.24598e-05
1.33453e-05
1.2946e-05
1.2222e-05
3.0677e-06
3.02079e-06
1.28e-05
1.29272e-05
1.325e-05
1.33275e-05
1.32242e-05
1.33103e-05
1.3145e-05
9.53046e-06
1.35043e-05
1.33233e-05
2.33287e-06
4.38652e-06
1.26735e-05
1.28976e-05
1.2426e-06
1.33338e-05
1.32199e-05
8.78944e-06
1.32971e-05
1.09471e-05
1.29254e-05
1.10662e-05
1.31654e-05
1.33073e-05
4.56844e-06
1.06032e-05
1.27986e-05
5.11406e-06
1.31234e-05
1.15504e-05
9.72862e-06
1.02676e-05
1.31903e-05
1.32018e-05
1.2418e-05
1.31313e-05
1.30554e-05
9.36707e-06
1.33268e-05
1.33158e-05
1.28088e-05
1.28351e-06
6.13849e-06
8.74172e-06
9.49809e-07
1.3082e-05
1.33556e-05
1.05381e-05
1.02438e-05
1.28706e-05
1.21455e-05
1.32043e-05
1.32718e-05
1.2817e-05
1.31257e-05
1.09634e-05
1.65111e-06
1.33084e-05
9.36929e-06
1.33164e-05
9.34103e-06
9.45755e-06
1.3222e-05
1.30266e-05
1.29604e-05
1.334e-05
1.30261e-05
1.332e-05
1.32185e-05
1.3228e-05
1.254e-05
9.901e-07
1.33051e-05
1.36137e-05
1.33211e-05
1.17501e-05
1.35047e-05
8.87581e-06
8.8555e-06
1.32845e-05
1.29379e-05
1.31304e-05
1.29871e-05
1.32572e-05
1.10969e-05
1.32966e-05
1.34999e-05
1.331e-05
1.34415e-05
1.3229e-05
1.33075e-05
1.27904e-05
1.33864e-05
1.35848e-05
1.32706e-05
1.05342e-05
9.56122e-06
1.31596e-05
1.36944e-05
1.33271e-05
1.3209e-05
1.33163e-05
1.33151e-05
1.31873e-05
1.36328e-05
1.33434e-05
1.03743e-05
1.33276e-05
1.00382e-05
1.33046e-05
1.33409e-05
1.3169e-05
1.32207e-05
1.26483e-05
1.35226e-05
9.95444e-06
1.30296e-05
1.2859e-05
1.32273e-05
1.24685e-05
1.35931e-05
1.3548e-05
1.32783e-05
1.0022e-05
1.02201e-05
1.2841e-05
1.26791e-05
1.33321e-05
1.31935e-05
1.08563e-05
9.29584e-06
1.32079e-05
1.32733e-05
2.05566e-06
1.16871e-05
1.31831e-05
1.33029e-05
1.06285e-05
1.30685e-05
9.57107e-06
1.33425e-05
1.33219e-05
1.32957e-05
9.68296e-06
1.34834e-05
1.33474e-05
1.33839e-05
1.31936e-05
9.88335e-06
1.31934e-05
1.32953e-05
8.75305e-07
1.02362e-05
3.14938e-06
1.3335e-05
1.33355e-05
1.33063e-05
1.33411e-05
1.32272e-05
1.33189e-05
1.25785e-05
1.28476e-05
1.32944e-05
1.31252e-05
9.49333e-06
1.29871e-05
1.31215e-05
1.33063e-05
1.37945e-06
1.33005e-05
1.32984e-05
1.32858e-05
1.3576e-05
1.31619e-05
1.33103e-05
1.32586e-05
2.30977e-06
1.33065e-05
1.39039e-05
1.33883e-05
1.33251e-05
1.33234e-05
1.32943e-05
4.52691e-06
1.32586e-05
1.27726e-05
1.00426e-05
1.36962e-05
1.32968e-05
1.33269e-05
1.31833e-05
1.3062e-05
1.33016e-05
1.33262e-05
1.3309e-05
1.33339e-05
1.31946e-05
1.03843e-05
1.33352e-05
1.32918e-05
1.33188e-05
1.3051e-05
1.3364e-05
1.32772e-05
1.33151e-05
1.33338e-05
1.34626e-05
1.32883e-05
1.25233e-05
1.04342e-05
1.33144e-05
1.35652e-05
1.32516e-05
9.82035e-06
1.3283e-05
1.3298e-05
1.33246e-05
1.33276e-05
1.33157e-05
1.31665e-05
1.33081e-05
1.32092e-05
1.33195e-05
7.64456e-06
1.38885e-05
1.32778e-05
9.14229e-06
1.32538e-05
1.25881e-05
1.33154e-05
1.33403e-05
1.33201e-05
1.13785e-05
1.33255e-05
1.33259e-05
1.33892e-05
7.79288e-06
1.33139e-05
1.33253e-05
9.74306e-06
1.33257e-05
1.33117e-05
1.33058e-05
1.32622e-05
1.33049e-05
1.33251e-05
1.32e-05
1.33032e-05
1.30949e-05
5.53109e-06
9.07556e-06
1.33476e-05
1.33858e-05
1.33067e-05
1.33055e-05
4.79274e-06
1.32746e-05
1.34452e-05
1.31537e-05
1.33554e-05
9.36976e-06
1.33503e-05
1.33368e-05
1.32294e-05
1.3331e-05
1.25534e-05
1.33455e-05
1.31067e-05
8.53278e-06
3.77947e-06
1.33215e-05
1.33234e-05
1.33202e-05
1.33265e-05
1.33342e-05
7.4086e-06
1.32082e-05
1.33418e-05
9.21348e-06
1.33367e-05
1.32995e-05
1.34505e-05
1.33624e-05
1.33055e-05
1.3256e-05
2.87769e-06
1.3332e-05
1.35434e-05
1.06134e-05
1.24156e-05
9.62974e-06
8.65158e-06
1.33318e-05
1.33127e-05
1.33105e-05
1.33338e-05
1.3297e-05
1.02707e-05
8.26526e-06
1.35491e-05
1.33162e-05
1.33131e-05
9.2768e-06
1.33261e-05
1.32896e-05
1.32646e-05
1.33132e-05
1.33275e-05
1.33393e-05
1.33325e-05
1.33277e-05
1.38785e-05
9.88702e-06
1.35909e-05
1.33102e-05
9.97005e-06
1.33089e-05
1.35682e-05
1.33306e-05
1.36012e-05
1.33358e-05
6.98889e-06
1.3276e-05
1.33317e-05
1.33114e-05
1.35206e-05
1.35452e-05
9.30758e-06
1.33098e-05
1.34416e-05
1.35218e-05
1.38872e-05
1.33174e-05
1.33273e-05
1.3325e-05
1.33938e-05
1.33113e-05
1.33298e-05
1.33275e-05
9.64362e-06
1.05226e-05
1.33296e-05
1.01418e-05
1.32499e-05
1.33036e-05
1.33121e-05
1.33302e-05
1.02342e-05
5.82584e-06
1.33258e-05
1.35283e-05
1.33114e-05
1.32652e-05
1.34403e-05
1.33251e-05
1.33357e-05
9.34401e-06
1.32716e-05
1.33132e-05
1.32262e-05
9.76355e-06
1.33408e-05
9.73982e-06
1.34623e-05
1.35496e-05
1.3309e-05
1.33117e-05
1.33311e-05
1.33666e-05
1.33205e-05
1.33194e-05
1.33027e-05
1.3308e-05
1.33181e-05
1.32794e-05
1.33101e-05
1.06124e-05
1.33188e-05
1.33274e-05
1.32991e-05
1.33809e-05
1.33089e-05
1.33125e-05
1.33499e-05
1.33938e-05
2.92669e-06
1.3308e-05
1.33087e-05
1.3289e-05
1.33004e-05
1.33338e-05
1.32583e-05
1.35883e-05
9.45004e-06
1.33141e-05
1.32908e-05
1.34459e-05
9.95367e-06
1.33115e-05
1.33063e-05
3.86711e-08
1.33232e-05
1.35094e-05
1.3313e-05
1.32839e-05
1.33272e-05
3.94292e-06
7.2529e-06
1.36238e-05
1.32783e-05
1.36418e-05
8.95538e-06
1.32693e-05
5.0151e-06
1.32836e-05
1.32325e-05
1.33116e-05
1.33305e-05
9.02159e-06
1.35588e-05
9.64701e-06
1.32693e-05
9.81372e-06
1.35602e-05
1.33317e-05
1.33218e-05
1.35058e-05
1.33287e-05
1.33148e-05
1.30376e-05
1.32756e-05
1.33067e-05
1.3318e-05
1.2517e-05
1.333e-05
1.39039e-05
1.33197e-05
1.33949e-05
1.32965e-05
9.38022e-06
1.33115e-05
1.33284e-05
1.33161e-05
1.26407e-05
1.32785e-05
1.34938e-05
9.50775e-06
9.60384e-06
5.68971e-06
1.33189e-05
1.33369e-05
9.41464e-06
1.32847e-05
1.33178e-05
1.33203e-05
1.33196e-05
1.33525e-05
1.33166e-05
1.36145e-05
1.35733e-05
1.33327e-05
1.32883e-05
1.33133e-05
1.33159e-05
1.3308e-05
1.34584e-05
1.33337e-05
1.3294e-05
1.33276e-05
9.85916e-06
1.29242e-05
1.35446e-05
1.34601e-05
1.32828e-05
8.19516e-06
6.70669e-06
1.3333e-05
1.33264e-05
1.32759e-05
1.3295e-05
1.32994e-05
9.46135e-06
1.3307e-05
1.32969e-05
9.59821e-06
1.33322e-05
1.33061e-05
1.33323e-05
1.33609e-05
1.33347e-05
1.34767e-05
4.81341e-06
4.84002e-06
1.38246e-05
1.32785e-05
1.33341e-05
1.33129e-05
9.78659e-06
1.33422e-05
1.33021e-05
1.34851e-05
1.33331e-05
1.38349e-05
1.33244e-05
1.33305e-05
4.53006e-06
9.49791e-06
1.52133e-06
1.33274e-05
1.33126e-05
2.90459e-06
1.32986e-05
9.73532e-06
1.33225e-05
8.13091e-06
1.35413e-05
1.33277e-05
1.30625e-05
1.33127e-05
9.90703e-06
9.64053e-06
8.90715e-06
1.32944e-05
1.33293e-05
1.33374e-05
1.33216e-05
1.33128e-05
1.35502e-05
9.88457e-06
1.33287e-05
1.3311e-05
1.33011e-05
1.32813e-05
1.33108e-05
4.85711e-06
1.33048e-05
1.33273e-05
1.33137e-05
1.3321e-05
1.33246e-05
8.98728e-06
1.38844e-05
1.37065e-05
1.32828e-05
1.34332e-05
1.33357e-05
1.3328e-05
1.33206e-05
8.31738e-06
1.33539e-05
1.33871e-05
1.35584e-05
1.33285e-05
1.33221e-05
1.33109e-05
1.29049e-05
1.33896e-05
7.96404e-06
8.51335e-06
1.33362e-05
1.33315e-05
1.33127e-05
1.33015e-05
1.3311e-05
1.33676e-05
1.32768e-05
3.51593e-06
1.33221e-05
1.33234e-05
8.57896e-06
1.33131e-05
8.41877e-06
1.33109e-05
1.27501e-05
1.33081e-05
1.33233e-05
1.3331e-05
9.34798e-06
1.34017e-05
1.32886e-05
1.33074e-05
1.36587e-05
1.33317e-05
1.33134e-05
1.33399e-05
1.33233e-05
8.66241e-06
1.33281e-05
1.33206e-05
1.33185e-05
1.33798e-05
1.33075e-05
1.33072e-05
5.2802e-06
8.58747e-06
1.33043e-05
9.11167e-06
1.33234e-05
1.33891e-05
1.33211e-05
1.33214e-05
1.33221e-05
1.33333e-05
1.35667e-05
1.34884e-05
1.33247e-05
1.33272e-05
1.35724e-05
1.32642e-05
1.07238e-05
1.33316e-05
1.32799e-05
1.35057e-05
1.35332e-05
1.33228e-05
1.33219e-05
1.33324e-05
1.32284e-05
8.88927e-06
1.34005e-05
1.3325e-05
9.02886e-06
1.33417e-05
8.69949e-06
1.33352e-05
1.33245e-05
1.33098e-05
1.33196e-05
1.32969e-05
1.3333e-05
6.86705e-06
1.3574e-05
1.33414e-05
1.32852e-05
1.33085e-05
1.32656e-05
1.33222e-05
1.32337e-05
1.33265e-05
1.33076e-05
1.33295e-05
8.43043e-06
1.33254e-05
1.34813e-05
1.33954e-05
1.3329e-05
8.79144e-06
1.33305e-05
1.33105e-05
1.35069e-05
1.34536e-05
1.31809e-05
8.88089e-06
1.33279e-05
1.33312e-05
1.32315e-05
1.33226e-05
1.33218e-05
1.33273e-05
9.22158e-06
1.33228e-05
1.33076e-05
8.45507e-06
1.32922e-05
1.33259e-05
1.33147e-05
1.33802e-05
1.32917e-05
1.34668e-05
1.35199e-05
8.73353e-06
8.86879e-06
1.31552e-05
1.43404e-06
1.37265e-05
1.33257e-05
1.33126e-05
1.3343e-05
8.98432e-06
1.34759e-05
1.33664e-05
1.33203e-05
1.33078e-05
1.33194e-05
9.02507e-06
9.22202e-06
8.78253e-06
8.40057e-06
8.32328e-06
1.65582e-06
3.9241e-06
1.33263e-05
1.33284e-05
8.4496e-06
8.20228e-06
8.58709e-06
1.33146e-05
1.32717e-05
1.33324e-05
1.33064e-05
1.33189e-05
1.33248e-05
1.33335e-05
1.3333e-05
1.33201e-05
1.33256e-05
1.33207e-05
1.33252e-05
5.67022e-06
1.33203e-05
1.33282e-05
1.33239e-05
1.33257e-05
1.33253e-05
1.33231e-05
8.97303e-06
1.25054e-05
1.33263e-05
1.37997e-05
1.38193e-05
1.33389e-05
8.07335e-06
1.34471e-05
1.33265e-05
6.68787e-06
1.33174e-05
1.33242e-05
8.84481e-06
8.61659e-06
8.92803e-06
9.01213e-06
8.14007e-06
1.34379e-05
1.33139e-05
1.33343e-05
1.35109e-05
1.33259e-05
1.33215e-05
1.33937e-05
8.2101e-06
8.0562e-06
1.34966e-05
1.33355e-05
1.33237e-05
1.33306e-05
1.33323e-05
9.14551e-06
8.44463e-06
8.27208e-06
1.33258e-05
1.33229e-05
1.37675e-05
1.33275e-05
1.36378e-05
1.33059e-05
9.64287e-06
1.33943e-05
1.33349e-05
7.70553e-06
8.18268e-06
8.51846e-06
1.33376e-05
1.25859e-05
1.33192e-05
1.87483e-06
8.08005e-06
9.14656e-06
1.33406e-05
1.32893e-05
8.32392e-06
1.3311e-05
8.69025e-06
1.32911e-05
1.32988e-05
1.33258e-05
7.99286e-06
1.34483e-05
1.32398e-05
1.33323e-05
1.33317e-05
1.33294e-05
7.73401e-06
1.33262e-05
8.70559e-06
1.33333e-05
1.33038e-05
1.35191e-05
8.83454e-06
1.33268e-05
8.07152e-06
1.33165e-05
1.34951e-05
8.61397e-06
1.33175e-05
7.91898e-06
1.33403e-05
7.90664e-06
8.79367e-06
1.3305e-05
1.33295e-05
8.53924e-06
8.67282e-06
8.75488e-06
8.74214e-06
1.33275e-05
1.32745e-05
1.33255e-05
7.762e-06
1.33105e-05
1.79099e-06
1.33284e-05
8.73718e-06
1.33021e-05
8.48546e-06
8.05359e-06
2.85243e-06
7.90531e-06
7.85268e-06
1.33141e-05
8.80517e-06
8.57674e-06
3.25891e-06
8.18553e-06
8.38121e-06
7.94344e-06
8.72482e-06
1.33165e-05
8.6908e-06
1.3333e-05
8.51958e-06
8.73407e-06
8.65867e-06
6.17737e-06
1.33344e-05
6.31829e-06
7.76652e-06
8.50814e-06
7.13463e-06
8.5781e-06
1.33289e-05
6.99354e-06
7.71659e-06
6.80158e-06
1.32837e-05
8.41635e-06
8.1745e-06
8.41287e-06
8.23364e-06
8.33339e-06
4.73984e-06
4.83817e-06
7.26687e-06
8.77999e-06
8.13488e-06
6.97333e-06
8.04461e-06
8.2292e-06
8.84731e-06
7.57471e-06
7.27154e-06
6.96126e-06
6.66702e-06
8.2708e-06
8.08414e-06
8.36715e-06
1.33362e-05
8.28561e-06
8.32001e-06
7.89442e-06
8.24768e-06
8.34815e-06
7.34108e-06
7.51815e-06
8.43005e-06
8.56095e-06
8.18154e-06
7.93265e-06
7.42389e-06
7.93931e-06
7.02768e-06
7.11938e-06
1.33213e-05
8.03997e-06
3.7881e-06
7.72117e-06
7.60983e-06
7.46492e-06
6.88473e-06
6.5452e-06
1.33231e-05
7.28982e-06
5.52259e-06
7.23192e-06
7.79619e-06
7.55103e-06
8.01775e-06
6.55145e-06
7.37841e-06
7.99833e-06
7.64537e-06
8.00782e-06
8.1273e-06
7.99215e-06
8.87035e-06
7.18345e-06
8.02042e-06
7.62023e-06
7.24021e-06
7.71898e-06
7.29355e-06
7.09036e-06
7.98413e-06
7.79979e-06
7.54179e-06
7.559e-06
7.57383e-06
7.12569e-06
7.48982e-06
7.49889e-06
6.98576e-06
7.86363e-06
6.95039e-06
7.28173e-06
8.51435e-06
6.86472e-06
7.33639e-06
7.10818e-06
7.854e-06
7.46055e-06
7.41963e-06
7.22486e-06
1.33188e-05
7.4495e-06
7.41472e-06
7.15557e-06
7.24331e-06
7.04089e-06
7.20285e-06
6.8176e-06
7.66386e-06
7.62026e-06
7.39404e-06
6.87358e-06
7.40027e-06
1.33397e-05
7.27085e-06
8.69133e-06
7.25005e-06
7.13868e-06
6.69235e-06
6.56634e-06
7.30503e-06
7.17049e-06
6.61056e-06
7.20772e-06
7.05567e-06
7.41978e-06
7.12986e-06
7.13643e-06
7.08256e-06
6.99078e-06
6.74673e-06
7.18563e-06
7.12864e-06
7.34845e-06
6.48059e-06
7.11043e-06
7.08837e-06
7.17647e-06
6.31865e-06
6.4365e-06
6.98867e-06
6.34624e-06
6.59271e-06
7.03595e-06
6.765e-06
7.13135e-06
7.11908e-06
6.96594e-06
7.26319e-06
8.17658e-06
6.32052e-06
6.94096e-06
6.96059e-06
6.46158e-06
6.8461e-06
6.17879e-06
7.01679e-06
6.82723e-06
6.43076e-06
7.2801e-06
6.21107e-06
6.24884e-06
6.72023e-06
6.71543e-06
4.48609e-06
6.39956e-06
6.68096e-06
6.07394e-06
6.47814e-06
6.28968e-06
6.78142e-06
6.5965e-06
6.61038e-06
6.71369e-06
6.97625e-06
6.9027e-06
5.76499e-06
5.94499e-06
6.44768e-06
6.54428e-06
6.62931e-06
7.05611e-06
6.18969e-06
5.88789e-06
6.47459e-06
5.36381e-06
6.51734e-06
6.49725e-06
6.2723e-06
6.17188e-06
5.06175e-06
5.45777e-06
5.58661e-06
6.19281e-06
6.39624e-06
5.81929e-06
6.00398e-06
6.34117e-06
6.07407e-06
6.38626e-06
5.97293e-06
6.3904e-06
6.18701e-06
5.63859e-06
6.34686e-06
5.82889e-06
5.49428e-06
5.46378e-06
6.23087e-06
6.07648e-06
5.94478e-06
6.34828e-06
6.11924e-06
6.15345e-06
5.70418e-06
6.14493e-06
5.53718e-06
5.62812e-06
6.22534e-06
5.50701e-06
5.74251e-06
6.0796e-06
5.65316e-06
6.26321e-06
5.2327e-06
5.79308e-06
6.51219e-06
6.0915e-06
6.07e-06
6.00974e-06
5.42223e-06
6.0155e-06
5.24347e-06
5.50537e-06
5.62827e-06
5.88604e-06
6.16675e-06
5.89566e-06
5.5127e-06
5.37722e-06
5.99526e-06
5.85135e-06
5.97411e-06
8.07353e-06
5.27905e-06
5.75428e-06
1.86711e-06
1.87862e-06
5.79992e-06
5.60799e-06
5.30662e-06
5.33645e-06
5.75322e-06
5.64827e-06
4.37902e-06
5.44509e-06
5.649e-06
5.91685e-06
5.14586e-06
5.63568e-06
6.30295e-06
5.11054e-06
5.5595e-06
5.94777e-06
5.65734e-06
5.02524e-06
5.55484e-06
5.18005e-06
5.8698e-06
5.58574e-06
4.88873e-06
5.67894e-06
5.42671e-06
4.57443e-06
5.71141e-06
4.80008e-06
5.42837e-06
5.51176e-06
5.19091e-06
5.41064e-06
4.49674e-06
7.72486e-06
5.35261e-06
4.75644e-06
5.25104e-06
5.08494e-06
5.40677e-06
4.44626e-06
4.60713e-06
5.02297e-06
4.62213e-06
4.75009e-06
5.29501e-06
5.13173e-06
5.16476e-06
4.68395e-06
5.12671e-06
5.00312e-06
4.62933e-06
5.37094e-06
5.0533e-06
5.15247e-06
5.05785e-06
4.49154e-06
4.93036e-06
5.01337e-06
5.04321e-06
4.84822e-06
5.19295e-06
4.73014e-06
4.33551e-06
5.18528e-06
4.6845e-06
4.89893e-06
4.94664e-06
3.23954e-06
4.43135e-06
4.771e-06
4.94923e-06
4.76748e-06
5.00947e-06
5.48109e-06
3.70696e-06
4.62193e-06
4.1628e-06
4.40213e-06
4.81901e-06
4.9398e-06
4.70964e-06
4.6776e-06
4.5995e-06
4.69165e-06
4.24221e-06
4.51067e-06
4.20733e-06
3.62937e-06
3.18491e-06
3.84303e-06
3.27828e-06
5.89946e-06
3.99531e-06
4.58993e-06
3.53287e-06
4.56832e-06
4.48799e-06
4.399e-06
3.70599e-06
3.42145e-06
4.34155e-06
4.57558e-06
4.40482e-06
4.13961e-06
3.7095e-06
4.53748e-06
2.85043e-06
4.09389e-06
2.97838e-06
4.37268e-06
3.99985e-06
3.46076e-06
4.43444e-06
4.54777e-06
4.25087e-06
4.39319e-06
4.27995e-06
3.93599e-06
3.78675e-06
4.49969e-06
3.99423e-06
2.70773e-06
3.28239e-06
4.10194e-06
4.38357e-06
4.26938e-06
4.25562e-06
4.13336e-06
3.76438e-06
3.42605e-06
3.84925e-06
3.37056e-06
3.64243e-06
3.60396e-06
3.815e-06
4.01777e-06
3.55989e-06
3.78942e-06
3.819e-06
3.8885e-06
5.29812e-06
4.28168e-06
4.16179e-06
3.50838e-06
4.22461e-06
4.62115e-06
3.97572e-06
4.15794e-06
4.10545e-06
3.71665e-06
3.57839e-06
3.46669e-06
3.88446e-06
3.68285e-06
3.56315e-06
3.95022e-06
4.37057e-06
3.79096e-06
3.565e-06
3.11987e-06
3.74775e-06
4.18633e-06
3.96498e-06
3.17496e-06
3.70936e-06
3.59395e-06
3.83533e-06
4.08781e-06
3.59169e-06
3.40525e-06
3.36597e-06
3.11739e-06
3.71052e-06
2.72848e-06
2.82645e-06
3.60662e-06
3.30593e-06
3.30506e-06
3.95047e-06
2.96514e-06
3.03689e-06
3.70254e-06
3.73787e-06
3.43788e-06
3.25562e-06
3.0157e-06
3.22229e-06
3.51929e-06
2.92367e-06
3.06347e-06
3.08625e-06
3.58434e-06
3.39778e-06
3.47811e-06
2.58178e-06
3.02355e-06
3.26087e-06
2.92867e-06
2.78451e-06
4.85746e-06
3.3633e-06
3.16071e-06
3.14603e-06
3.45853e-06
3.48406e-06
2.76214e-06
3.49401e-06
3.23426e-06
3.29269e-06
2.64594e-06
2.6846e-06
2.87161e-06
3.09944e-06
3.29871e-06
3.23928e-06
2.90945e-06
3.3128e-06
2.64812e-06
3.41014e-06
2.50291e-06
3.17679e-06
2.13571e-06
2.83864e-06
2.79184e-06
2.41748e-06
2.54741e-06
2.95812e-06
2.41995e-06
2.37526e-06
4.13817e-06
2.78628e-06
2.99651e-06
2.5527e-06
2.57808e-06
2.23647e-06
2.29537e-06
2.28363e-06
2.57473e-06
2.331e-06
2.69124e-06
2.39456e-06
2.42507e-06
2.34275e-06
2.46494e-06
2.67268e-06
2.09826e-06
2.03493e-06
2.26263e-06
2.02941e-06
2.61738e-06
2.13157e-06
2.19874e-06
2.73142e-06
2.53312e-06
1.98936e-06
1.95886e-06
2.47495e-06
2.07198e-06
2.18036e-06
2.41904e-06
2.00537e-06
1.81948e-06
2.21894e-06
1.88625e-06
2.0497e-06
1.96733e-06
2.18276e-06
1.67838e-06
1.99669e-06
1.74758e-06
1.97611e-06
2.37485e-06
1.71121e-06
2.28901e-06
2.2214e-06
1.61224e-06
2.35106e-06
1.76487e-06
5.29569e-06
2.03617e-06
2.84019e-06
1.95242e-06
1.86978e-06
1.90137e-06
6.33003e-06
4.9137e-06
4.58224e-06
3.13712e-06
2.1119e-06
2.68394e-06
1.43595e-06
1.76207e-06
1.64418e-06
2.94226e-06
1.47618e-06
2.04391e-06
7.56095e-06
3.28529e-06
4.03225e-06
2.93169e-06
2.14009e-06
4.5316e-06
5.02612e-06
4.66748e-06
3.31683e-06
2.56413e-06
6.82013e-06
2.47105e-06
6.15072e-06
1.79554e-06
1.6319e-06
1.86787e-06
6.97041e-06
1.94216e-06
9.00155e-06
3.93494e-06
3.92198e-06
4.18143e-06
4.23075e-06
6.84487e-06
4.44135e-06
3.16848e-06
3.22464e-06
4.25011e-06
4.42385e-06
4.39045e-06
1.52996e-06
5.96289e-06
5.89459e-06
2.98921e-06
7.24419e-06
4.50373e-06
8.08846e-07
3.46583e-06
1.72416e-06
4.9182e-06
9.10798e-06
9.20123e-06
2.78233e-06
2.21718e-06
1.97481e-06
6.208e-06
2.22757e-06
6.24625e-06
1.93905e-06
7.0024e-06
7.16765e-06
2.65358e-06
9.37456e-06
1.70468e-06
1.86291e-06
4.82838e-06
7.35671e-06
5.68556e-06
5.94263e-06
6.33775e-06
7.4097e-06
3.39734e-06
9.87207e-06
1.79019e-06
5.15081e-06
2.03649e-06
8.87022e-06
8.93356e-06
1.7887e-06
9.47225e-07
9.19033e-06
7.29139e-06
7.27428e-06
7.53553e-06
8.85568e-06
1.08116e-06
1.24107e-06
6.07974e-06
6.97902e-06
9.10529e-06
7.42872e-06
1.96837e-06
5.13958e-06
9.38595e-06
6.75864e-06
1.84023e-06
6.69642e-06
9.63771e-06
7.82801e-06
1.00086e-05
4.1876e-06
2.66744e-06
2.53914e-06
1.84816e-06
8.58394e-06
8.61105e-06
7.4121e-06
1.51062e-06
1.67617e-06
2.4236e-06
8.93166e-06
1.57191e-06
1.94241e-06
1.89294e-06
2.51795e-06
3.16851e-06
1.87218e-06
1.71841e-06
3.20206e-06
1.91291e-06
2.10699e-06
2.60351e-06
2.24926e-06
3.03912e-06
2.06855e-06
2.54556e-06
3.04536e-06
2.26641e-06
2.65445e-06
2.47495e-06
3.31568e-06
3.01285e-06
2.53906e-06
2.51372e-06
2.4294e-06
2.68021e-06
3.64163e-06
2.61273e-06
4.01366e-06
2.42977e-06
2.61284e-06
2.69375e-06
2.40744e-06
3.96063e-06
2.57199e-06
3.52578e-06
2.7951e-06
2.83484e-06
3.86057e-06
2.88717e-06
4.17984e-06
4.7257e-06
3.67682e-06
2.92619e-06
4.58912e-06
4.20775e-06
4.27079e-06
4.27698e-06
3.97267e-06
3.87658e-06
4.10306e-06
3.03904e-06
4.12675e-06
3.79783e-06
4.03563e-06
2.96727e-06
4.08162e-06
5.2017e-06
4.25663e-06
4.40938e-06
4.48033e-06
3.99672e-06
5.26847e-06
4.12285e-06
4.28799e-06
4.49901e-06
4.88298e-06
4.38018e-06
4.1406e-06
4.99834e-06
5.795e-06
4.9008e-06
5.24482e-06
5.1695e-06
6.05002e-06
5.01822e-06
5.34831e-06
4.13084e-06
6.01149e-06
5.12208e-06
5.48654e-06
5.65456e-06
5.06913e-06
5.56258e-06
5.80246e-06
6.41987e-06
5.68157e-06
5.81869e-06
5.9561e-06
6.96777e-06
6.02521e-06
5.83885e-06
6.33967e-06
6.83358e-06
6.3932e-06
5.88569e-06
5.86243e-06
5.79193e-06
6.80903e-06
6.5189e-06
5.88749e-06
5.7792e-06
5.93039e-06
6.50663e-06
6.02699e-06
6.60429e-06
5.91591e-06
6.7607e-06
6.04534e-06
6.99072e-06
6.72329e-06
6.5957e-06
7.57511e-06
6.85796e-06
6.94409e-06
7.10448e-06
7.39866e-06
6.95892e-06
6.08757e-06
7.86763e-06
6.84193e-06
1.33366e-05
7.25974e-06
8.21435e-06
7.32357e-06
8.0237e-06
8.12428e-06
1.33054e-05
7.55831e-06
8.17687e-06
8.37819e-06
1.72043e-06
7.59569e-06
7.87646e-06
1.33278e-05
8.48165e-06
8.32805e-06
8.76953e-06
1.3292e-05