/*--------------------------------*- C++ -*----------------------------------*\
  =========                 |
  \\      /  F ield         | OpenFOAM: The Open Source CFD Toolbox
   \\    /   O peration     | Website:  https://openfoam.org
    \\  /    A nd           | Version:  8
     \\/     M anipulation  |
\*---------------------------------------------------------------------------*/
FoamFile
{
    version     2.0;
    format      ascii;
    class       volScalarField;
    location    "2.2";
    object      p;
}
// * * * * * * * * * * * * * * * * * * * * * * * * * * * * * * * * * * * * * //

dimensions      [0 2 -2 0 0 0 0];

internalField   nonuniform List<scalar> 
6388
(
1.42367e-05
1.42463e-05
1.36599e-05
1.37348e-05
1.11365e-05
9.03901e-06
1.34185e-05
1.2985e-05
1.35892e-05
1.29581e-05
1.13856e-05
1.29116e-05
1.33587e-05
9.15488e-06
1.33127e-05
1.32654e-05
1.30842e-05
9.89512e-06
1.32016e-05
1.33749e-05
1.32059e-05
1.31944e-05
1.00328e-05
1.02835e-05
9.96061e-06
1.31756e-05
1.34022e-05
1.30848e-05
1.30478e-05
1.37471e-05
9.74871e-06
9.82556e-06
1.09676e-05
1.21747e-05
9.52082e-06
1.11372e-05
1.01748e-05
1.24844e-05
1.3381e-05
9.23835e-06
1.32963e-05
1.32515e-05
1.41396e-05
1.02094e-05
1.36782e-05
1.2885e-05
1.42762e-05
1.34409e-05
1.37607e-05
1.32843e-05
1.36567e-05
1.39064e-05
1.3418e-05
1.33166e-05
1.28076e-05
1.3672e-05
1.31768e-05
1.36782e-05
1.3375e-05
1.34114e-05
9.95516e-06
1.36875e-05
1.31467e-05
1.37226e-05
1.29056e-05
1.36654e-05
1.2982e-05
1.32819e-05
1.25104e-05
1.36614e-05
1.26374e-05
9.63688e-06
9.00495e-06
1.23409e-05
1.36537e-05
1.35112e-05
9.414e-06
1.36685e-05
1.37294e-05
9.85649e-06
1.29705e-05
1.10073e-07
9.82023e-08
9.89252e-08
9.60925e-08
1.07698e-07
1.18009e-05
1.08519e-07
9.66163e-08
9.78384e-08
1.05449e-07
9.13564e-08
1.36694e-05
1.40065e-05
1.32443e-05
1.39022e-05
1.36649e-05
9.44258e-06
1.38307e-05
1.33747e-05
1.31958e-05
1.26258e-05
1.30986e-05
1.29421e-05
1.29707e-05
1.19681e-05
1.35312e-05
1.30379e-05
1.31171e-05
1.36575e-05
1.33625e-05
1.03591e-05
1.063e-05
1.33793e-05
1.40247e-05
1.38841e-05
1.15131e-05
1.42144e-05
1.3392e-05
1.36554e-05
8.59755e-06
1.36492e-05
1.31793e-05
1.36084e-05
1.00733e-05
1.3891e-05
1.36055e-05
1.33223e-05
1.36285e-05
1.32182e-05
1.0462e-05
1.30196e-05
1.35441e-05
1.39084e-05
1.36703e-05
1.03046e-05
9.9118e-06
1.26659e-05
1.3696e-05
1.299e-05
1.06324e-05
1.38659e-05
1.31697e-05
1.37577e-05
1.36352e-05
1.31862e-05
1.35029e-05
1.36614e-05
1.33107e-05
1.39021e-05
1.29609e-05
1.37961e-05
1.29504e-05
1.02786e-05
1.28549e-05
1.33795e-05
1.23979e-05
1.36612e-05
1.01336e-05
1.22697e-05
1.37534e-05
1.40044e-05
9.38875e-06
1.23489e-05
1.36631e-05
1.21153e-05
8.89984e-06
8.72306e-06
8.65343e-06
1.35922e-05
9.30701e-06
1.30032e-05
1.31788e-05
1.36618e-05
1.30351e-05
9.80213e-06
1.3603e-05
1.3424e-05
1.39363e-05
1.29885e-05
1.29661e-05
1.26594e-05
9.53568e-06
8.22584e-06
1.31662e-05
1.20398e-05
1.367e-05
1.01665e-05
1.31146e-05
1.0333e-05
1.06296e-05
1.28048e-05
1.08603e-05
1.42403e-05
1.31171e-05
1.36249e-05
1.36634e-05
1.36332e-05
9.09351e-06
8.61628e-06
8.33296e-06
9.32048e-06
1.36594e-05
8.40191e-06
8.47562e-06
8.64183e-06
9.06981e-06
1.01975e-05
1.36454e-05
1.34526e-05
9.51853e-06
9.97519e-06
9.08351e-06
1.2056e-05
6.68129e-06
6.42868e-06
6.30553e-06
6.24956e-06
9.75437e-06
1.33141e-05
6.66485e-06
1.36812e-05
8.42736e-06
9.99884e-06
1.36572e-05
8.07585e-06
1.06375e-05
7.11761e-06
6.85245e-06
6.72071e-06
6.66153e-06
1.2293e-05
8.38514e-06
1.34758e-05
1.29836e-05
7.09804e-06
1.19853e-05
8.92465e-06
7.78112e-06
9.31099e-06
7.56433e-06
7.42179e-06
7.3541e-06
1.19274e-05
7.98011e-06
7.82983e-06
7.75845e-06
8.44764e-06
9.48652e-06
1.11038e-05
1.36388e-05
9.21164e-06
8.83484e-06
8.40665e-06
8.24656e-06
8.1731e-06
8.87942e-06
8.66742e-06
8.64896e-06
8.93057e-06
5.58658e-06
8.86e-06
9.11236e-06
5.53875e-06
6.02317e-06
7.96966e-06
8.04265e-06
8.19742e-06
6.01246e-06
5.89766e-06
5.84497e-06
5.94564e-06
6.25226e-06
8.95054e-06
1.29371e-05
6.27532e-06
1.36564e-05
1.10168e-05
6.87332e-06
6.33173e-06
8.22773e-06
7.08802e-06
6.9081e-06
1.33466e-05
6.9485e-06
1.35401e-05
7.51412e-06
7.4913e-06
1.31668e-05
9.23154e-06
9.00417e-06
1.3e-05
1.03055e-05
1.33302e-05
7.53883e-06
7.91371e-06
1.36664e-05
7.63006e-06
8.74161e-06
1.33112e-05
1.10196e-05
1.05378e-05
1.36793e-05
7.49968e-06
7.56521e-06
7.94648e-06
7.10399e-06
7.16843e-06
7.3072e-06
6.76895e-06
1.36824e-05
1.08411e-05
1.36034e-05
1.14864e-05
9.55056e-06
1.366e-05
1.06444e-05
7.18042e-06
1.33452e-05
8.17452e-06
8.54576e-06
1.35241e-05
9.15297e-06
8.5447e-06
7.60763e-06
1.3093e-05
1.24513e-05
1.00779e-05
1.04147e-05
5.3124e-06
6.51046e-07
5.91784e-07
6.0873e-07
6.01751e-07
6.47354e-07
6.38862e-06
5.8303e-06
1.04273e-05
1.0137e-05
1.23657e-05
1.28044e-05
6.4621e-06
5.72013e-06
1.35458e-05
5.8956e-06
7.72253e-06
1.33757e-05
5.85021e-06
7.34024e-06
6.91366e-06
6.97467e-06
7.11106e-06
9.92515e-06
1.02092e-05
6.33459e-06
8.03238e-06
1.04796e-05
6.90001e-06
1.12471e-05
7.99096e-06
7.56243e-06
7.63153e-06
7.77843e-06
9.51208e-06
1.30175e-05
1.14122e-05
4.91258e-06
6.90091e-06
1.31292e-05
6.45093e-06
6.50842e-06
6.63582e-06
5.63818e-06
1.02882e-05
1.03803e-05
7.84048e-06
1.21803e-05
6.0752e-06
7.37523e-06
7.30567e-06
1.30243e-05
1.36504e-05
5.59251e-06
5.48603e-06
5.43676e-06
1.29513e-05
1.30283e-05
7.34786e-06
7.20123e-06
1.35925e-05
7.29791e-06
7.88828e-06
6.66367e-06
6.76011e-06
1.36466e-05
1.02651e-05
7.09568e-06
1.10804e-05
6.71896e-06
7.13342e-06
1.30481e-05
1.33381e-05
1.3172e-05
1.3755e-05
6.82177e-06
7.73853e-06
8.13794e-06
1.33626e-05
1.37905e-05
5.14918e-06
1.28882e-05
1.36545e-05
1.37747e-05
4.63456e-06
4.59213e-06
4.72371e-06
1.15913e-05
1.36217e-05
1.36772e-05
6.48411e-06
1.3233e-05
1.36575e-05
5.92413e-06
6.5453e-06
1.39123e-05
4.7135e-06
5.19211e-06
1.23511e-05
1.35415e-05
7.69757e-06
1.36599e-05
5.22779e-06
1.26987e-05
6.4531e-06
1.07131e-05
5.20067e-06
1.39308e-05
6.12781e-06
5.35103e-06
6.49705e-06
6.04838e-06
6.10277e-06
6.22172e-06
1.23685e-05
6.19687e-06
7.37709e-06
5.13237e-06
5.36878e-06
1.3317e-05
5.03802e-06
1.31848e-05
1.07989e-05
7.29192e-06
1.04481e-05
1.20146e-05
6.2426e-06
1.34872e-05
1.25153e-05
4.77077e-06
5.64265e-06
5.69371e-06
5.80432e-06
5.74077e-06
4.76997e-06
4.79647e-06
4.84029e-06
4.93383e-06
5.62317e-06
1.3578e-05
4.77863e-06
6.98094e-06
1.36584e-05
5.63876e-06
1.3339e-05
5.80673e-06
1.08361e-05
1.30413e-05
1.38863e-05
5.6792e-06
1.02427e-05
1.13089e-05
6.59971e-06
5.41209e-06
6.04101e-06
5.11127e-06
6.06279e-06
5.42419e-06
1.36635e-05
8.85439e-06
5.45829e-06
1.36731e-05
4.91274e-06
4.97719e-06
5.4365e-06
1.3298e-05
4.97811e-06
1.01136e-05
6.27076e-06
6.11288e-06
1.08562e-05
8.62117e-06
1.37609e-05
1.36697e-05
5.517e-06
1.26651e-05
5.23622e-06
4.99471e-06
1.36639e-05
1.13736e-05
1.35191e-05
5.84942e-06
1.16487e-05
4.52777e-06
1.38075e-05
1.26957e-05
1.05844e-05
1.33536e-05
1.30598e-05
4.83063e-06
1.10143e-05
4.33267e-06
1.02771e-05
1.14715e-05
9.96483e-06
1.36473e-05
1.13654e-05
1.37702e-05
1.3198e-05
1.3304e-05
1.18872e-05
1.36134e-05
4.63448e-06
1.31512e-05
8.37336e-06
1.30251e-05
1.36639e-05
1.35091e-05
1.23055e-05
1.36846e-05
1.32124e-05
1.03455e-05
1.38049e-05
1.36472e-05
1.36756e-05
1.37708e-05
1.34098e-05
1.38434e-05
1.32183e-05
1.37674e-05
1.36684e-05
1.34237e-05
1.33239e-05
1.22994e-05
1.36691e-05
1.08818e-05
1.33847e-05
1.36297e-05
1.1854e-05
1.36194e-05
1.34581e-05
1.29021e-05
9.74233e-06
1.33845e-05
1.3735e-05
1.26524e-05
1.17564e-05
1.35948e-05
1.27501e-05
1.37736e-05
1.12339e-05
1.16184e-05
1.3587e-05
1.33547e-05
1.36762e-05
1.11986e-05
1.37492e-05
1.0173e-05
1.0026e-06
1.03654e-06
9.59402e-07
9.70484e-07
9.86623e-07
3.99364e-06
4.03023e-06
4.10808e-06
1.29387e-05
1.13651e-05
1.17347e-05
1.31202e-05
1.33278e-05
1.11797e-05
1.35761e-05
1.05365e-05
1.37242e-05
1.36823e-05
1.43848e-05
8.60651e-06
1.17637e-05
1.38985e-05
1.14891e-05
1.38395e-05
1.32854e-05
1.37237e-05
1.36755e-05
1.36059e-05
1.26447e-05
1.36578e-05
1.03323e-05
1.27624e-05
1.36647e-05
1.32006e-05
1.34983e-05
1.37399e-05
1.22556e-05
1.06435e-05
1.36569e-05
1.05117e-05
1.18462e-05
1.35289e-05
4.18877e-06
3.77766e-07
3.75249e-07
3.9561e-07
3.66656e-07
1.29808e-05
3.74735e-07
1.2877e-05
1.34933e-05
9.10592e-06
1.36656e-05
1.21165e-05
1.32067e-05
1.35082e-05
4.156e-06
1.01499e-05
1.35979e-05
8.04943e-06
1.36721e-05
1.36688e-05
3.72004e-06
1.09772e-05
1.31118e-05
1.30114e-05
1.02531e-05
3.88147e-07
4.61016e-07
4.1371e-07
4.21522e-07
4.90766e-07
1.29591e-05
1.07974e-05
1.33353e-05
1.1647e-05
1.32706e-05
1.36589e-05
1.24567e-05
1.10296e-05
3.92696e-06
1.23537e-05
1.16796e-05
1.2461e-05
9.7506e-06
1.37069e-05
1.38359e-05
1.38488e-05
1.35297e-05
9.85909e-06
1.38215e-05
1.36704e-05
1.34042e-05
9.96413e-06
1.37335e-05
1.26513e-05
4.63333e-07
4.4748e-07
4.04269e-07
3.94469e-07
4.06511e-07
1.36888e-05
1.36094e-05
1.35826e-05
4.03988e-07
3.99874e-07
4.10961e-07
4.03195e-07
4.26563e-07
1.08801e-05
1.01753e-05
1.32711e-05
8.56784e-06
1.34262e-05
1.37704e-05
1.14535e-05
1.33939e-05
1.10837e-05
1.09745e-05
1.31857e-05
1.28862e-05
1.29892e-05
1.32575e-05
1.03914e-05
1.36089e-05
1.36637e-05
1.38151e-05
1.32439e-05
1.34037e-05
1.32751e-05
1.28582e-05
1.27561e-05
1.37144e-05
1.3752e-05
1.36464e-05
1.38224e-05
1.36653e-05
1.35609e-05
9.57805e-06
1.07547e-05
9.9656e-06
1.16173e-05
1.30888e-05
1.37147e-05
1.03892e-05
1.33111e-05
1.13913e-05
1.35367e-05
1.32384e-05
1.36633e-05
1.19879e-05
1.10583e-05
1.39416e-05
1.37559e-05
1.36668e-05
7.10192e-06
1.31608e-05
1.3333e-05
1.15384e-05
4.13657e-06
1.3677e-05
1.3589e-05
1.22132e-05
1.36753e-05
4.93194e-06
1.34108e-05
1.26036e-05
8.34836e-06
1.32276e-05
1.36718e-05
1.31914e-05
1.35026e-05
9.44005e-06
4.40411e-06
1.22355e-05
1.11283e-05
9.79249e-06
1.04e-05
9.53381e-06
1.18071e-05
1.35721e-05
1.21402e-05
1.24292e-05
1.37707e-05
1.35201e-05
1.36488e-05
1.07076e-05
1.34236e-05
8.86694e-06
8.70996e-06
8.62094e-06
6.46755e-07
1.3678e-05
1.36613e-05
1.34762e-05
1.36563e-05
1.255e-05
5.75265e-07
6.53485e-07
5.9842e-07
6.09608e-07
1.24764e-05
1.26291e-05
1.33769e-05
1.21425e-05
1.3557e-05
1.36424e-05
1.3363e-05
1.32723e-05
1.3622e-05
1.14809e-05
1.36535e-05
1.36953e-05
1.37241e-05
1.24258e-05
1.34616e-05
1.37634e-05
1.35979e-05
1.36628e-05
1.39007e-05
1.2765e-05
9.36276e-06
1.31179e-05
1.35427e-05
1.23044e-05
8.14121e-06
1.37303e-05
1.26152e-05
1.31129e-05
1.19851e-05
1.35026e-05
1.29743e-05
1.04912e-05
1.13565e-05
1.12306e-05
1.28134e-05
1.36618e-05
1.36557e-05
1.01828e-05
8.95041e-06
1.20964e-05
1.38892e-05
1.36413e-05
1.32793e-05
1.37347e-05
1.32795e-05
1.14945e-05
1.43007e-05
1.08737e-05
1.32091e-05
9.99487e-06
8.74834e-06
9.47788e-06
1.36604e-05
1.33473e-05
1.39015e-05
1.3211e-05
1.36762e-05
1.39677e-05
1.36122e-05
9.25574e-06
1.35684e-05
1.31094e-05
1.36683e-05
1.28875e-05
9.42854e-06
1.36882e-05
3.92831e-06
1.36321e-05
1.29205e-05
1.32075e-05
1.29232e-05
5.4476e-06
9.60198e-06
1.37333e-05
1.40044e-05
1.36996e-05
1.38328e-05
4.1612e-06
1.36653e-05
1.33818e-05
1.27862e-05
1.13568e-05
1.31645e-05
9.55725e-06
1.01625e-05
9.88005e-06
1.33361e-05
9.68416e-06
9.67047e-06
2.1063e-06
5.88203e-06
5.76995e-06
5.71822e-06
1.39298e-05
1.35961e-05
1.36635e-05
9.95688e-06
1.35627e-05
1.25418e-05
1.3652e-05
1.1178e-05
1.3673e-05
1.34287e-05
1.3548e-05
3.89852e-06
3.82455e-06
3.78994e-06
1.07889e-05
1.36767e-05
1.31089e-05
1.13401e-05
1.36359e-05
8.75951e-06
1.00319e-05
1.3393e-05
8.52511e-07
8.01541e-07
7.636e-07
1.30039e-05
2.21937e-06
1.3857e-05
1.32036e-05
6.48642e-06
7.82825e-07
1.29277e-05
1.32596e-05
9.50414e-06
9.77532e-06
1.32735e-05
1.35236e-05
8.8948e-06
9.338e-06
9.60423e-06
1.00569e-06
1.18911e-05
1.35126e-05
1.01149e-05
9.96141e-06
1.27931e-05
5.14411e-06
1.18897e-05
7.55757e-06
5.56035e-06
1.35431e-05
1.36051e-05
1.02217e-06
1.36015e-05
9.36598e-06
9.10631e-06
1.16039e-05
7.71976e-06
1.23099e-05
8.33946e-06
1.35833e-05
1.79054e-06
1.355e-05
9.19845e-06
1.36686e-05
7.93141e-06
1.28041e-05
1.87155e-06
1.81947e-06
1.83695e-06
1.86598e-06
1.26938e-05
3.63177e-06
1.11276e-05
2.60646e-06
1.67264e-06
9.00239e-06
2.4491e-06
1.17564e-05
1.32322e-05
1.09835e-05
3.94582e-06
8.47284e-06
1.20228e-05
1.35534e-05
1.31956e-05
9.66265e-06
1.37108e-05
1.38423e-05
3.90675e-06
3.83287e-06
3.79793e-06
1.32221e-05
1.38755e-05
4.53066e-06
4.44535e-06
4.40456e-06
8.52199e-06
8.26878e-06
8.11411e-06
8.03928e-06
2.53127e-06
1.31861e-05
1.51213e-06
9.40268e-06
1.36599e-05
3.65834e-06
1.6922e-06
1.36484e-05
1.36534e-05
2.82766e-06
1.38813e-05
1.36696e-05
1.238e-05
1.34257e-05
2.08188e-06
2.02394e-06
2.04326e-06
3.51223e-06
1.88879e-06
2.22683e-06
2.18567e-06
2.1649e-06
1.29251e-05
1.28486e-05
2.90415e-06
3.06619e-06
2.98086e-06
3.00864e-06
3.97428e-06
1.78393e-06
1.36924e-05
2.64684e-06
2.5732e-06
2.59748e-06
1.35478e-05
1.32709e-05
1.21873e-06
1.31541e-05
1.34905e-05
2.44173e-06
1.36747e-05
1.36694e-05
1.41274e-06
1.38751e-06
1.37356e-06
1.41596e-06
9.81381e-06
1.33757e-05
1.28392e-05
1.234e-06
9.55815e-06
9.11294e-06
2.48293e-06
1.32652e-05
1.47851e-06
3.75318e-06
3.70539e-06
1.37044e-05
1.24382e-05
1.7335e-06
3.48707e-06
3.38999e-06
3.42138e-06
4.72252e-06
9.28396e-06
3.68591e-06
1.36387e-05
3.95737e-06
3.04564e-06
2.07432e-06
2.02746e-06
1.85145e-06
1.63896e-06
2.50235e-06
2.4327e-06
2.4556e-06
1.32957e-05
2.45334e-06
2.38515e-06
2.40776e-06
6.70372e-06
3.19467e-06
2.19295e-06
4.58537e-06
2.85619e-06
2.77671e-06
2.80275e-06
1.95245e-06
3.30449e-06
3.11142e-06
4.19976e-06
4.23879e-06
4.32013e-06
2.56415e-06
3.45196e-06
1.36088e-05
3.25419e-06
1.17045e-05
1.37214e-05
4.08479e-06
3.66958e-06
3.52693e-06
4.57787e-06
1.36218e-05
4.6135e-06
3.86725e-06
2.05022e-06
2.43683e-06
2.36905e-06
2.39157e-06
2.92273e-06
2.86784e-06
2.84138e-06
1.15176e-05
3.62001e-06
3.58687e-06
3.68972e-06
2.82685e-06
3.21756e-06
1.37798e-06
1.30644e-05
2.64186e-06
1.3661e-05
4.35661e-06
1.37744e-05
3.27625e-06
3.18505e-06
3.21464e-06
5.7631e-06
1.3655e-05
1.271e-05
1.33459e-05
1.06704e-05
1.45843e-06
1.36862e-05
2.29265e-06
2.24995e-06
2.22885e-06
4.36006e-06
1.36251e-05
2.7132e-06
2.66235e-06
2.63769e-06
4.50238e-06
3.49173e-06
1.39253e-06
3.34354e-06
3.28051e-06
3.25047e-06
1.43162e-06
1.57982e-06
1.84597e-06
1.36726e-05
1.30139e-05
3.70522e-06
1.35959e-05
3.26588e-06
3.87707e-06
2.86589e-06
1.36717e-05
3.69783e-06
3.59483e-06
3.62811e-06
2.12183e-06
1.98822e-06
3.52614e-06
2.68888e-06
1.17144e-05
3.41328e-06
4.39362e-06
1.62459e-06
2.25018e-06
3.1339e-06
3.04667e-06
3.07491e-06
2.39784e-06
2.00816e-06
3.09419e-06
1.35301e-05
1.32849e-05
1.32864e-05
1.44088e-06
3.46169e-06
1.32912e-05
3.10701e-06
1.29499e-05
3.53634e-06
1.2758e-05
4.36824e-06
2.42555e-06
2.07874e-06
3.24657e-06
1.36411e-05
5.91028e-07
6.53288e-07
6.17722e-07
3.36878e-06
2.32258e-06
4.14493e-06
6.09618e-07
1.29002e-06
1.36722e-05
3.27541e-06
3.254e-06
3.26473e-06
2.15725e-06
2.17774e-06
2.219e-06
3.94086e-06
3.29861e-06
2.24254e-06
4.28537e-06
4.29367e-06
3.48268e-06
2.20891e-06
1.19688e-05
9.38124e-06
4.27944e-06
2.47727e-06
2.27986e-06
1.59651e-06
5.66527e-06
1.36212e-05
3.2789e-06
3.55515e-06
3.45618e-06
3.48803e-06
2.43834e-06
1.96613e-06
3.31929e-06
1.22632e-05
3.73926e-06
3.55149e-06
3.12505e-06
1.32634e-05
3.73387e-06
8.02102e-07
2.01633e-06
1.97926e-06
1.96028e-06
2.01122e-06
8.42568e-06
1.02161e-06
3.84283e-06
1.34822e-05
4.57716e-06
1.36355e-05
6.14272e-06
1.37667e-05
2.8832e-06
2.8831e-06
4.71057e-06
4.356e-06
1.18891e-05
3.76485e-06
3.69365e-06
3.66006e-06
5.64968e-06
3.03763e-06
9.53851e-06
9.81076e-06
5.2316e-06
5.27923e-06
5.38142e-06
3.0475e-06
1.31479e-05
3.33072e-06
3.48513e-06
2.63726e-06
1.09272e-06
1.14745e-06
1.18478e-05
3.47332e-06
1.06382e-06
3.84948e-06
3.40587e-06
4.57433e-06
8.0124e-07
7.84129e-07
7.75821e-07
8.39362e-07
3.99285e-06
8.11118e-07
8.0121e-07
7.91248e-07
8.52768e-07
8.3452e-07
4.14945e-06
1.30588e-05
3.17699e-06
3.20644e-06
3.26804e-06
4.7555e-06
1.33662e-05
1.33736e-05
2.91694e-06
6.0921e-06
5.97595e-06
5.92244e-06
3.07159e-06
1.30001e-05
1.37429e-05
5.01191e-06
5.15551e-06
5.05791e-06
1.3987e-06
1.35524e-06
1.36915e-06
1.3939e-06
6.34195e-06
1.29007e-05
1.21084e-05
1.3133e-05
3.32574e-06
5.32661e-06
3.77436e-06
8.73857e-06
3.92449e-06
2.63729e-06
2.96892e-06
1.39756e-05
1.56844e-06
1.17225e-05
1.29819e-05
1.29749e-05
2.80894e-06
5.2735e-06
1.31303e-05
4.56308e-06
3.07208e-06
2.97576e-06
4.59568e-06
1.36231e-05
1.06348e-05
1.03337e-05
1.413e-06
4.51195e-06
3.04639e-06
3.59409e-06
1.07289e-05
5.29399e-06
8.48125e-06
8.32358e-06
8.24593e-06
3.4797e-06
3.74781e-06
5.11982e-06
1.27072e-05
1.26893e-05
1.03009e-06
1.28918e-05
1.27202e-06
1.34673e-06
1.14201e-06
1.085e-06
1.80972e-06
4.98812e-06
2.25833e-06
1.23663e-06
8.97676e-06
2.82319e-06
1.18602e-06
4.11811e-06
4.04011e-06
4.00335e-06
4.17036e-06
4.37734e-06
1.29363e-05
4.21242e-06
1.37256e-05
1.78186e-06
1.29138e-05
3.80706e-06
1.36218e-05
9.89471e-06
3.50849e-06
5.52173e-06
1.36102e-05
6.90369e-06
4.96023e-06
4.15936e-06
2.38043e-06
5.11154e-06
1.01915e-05
3.91341e-06
1.45679e-06
1.54089e-06
3.54883e-06
4.93989e-06
1.38759e-05
4.7156e-06
4.77266e-06
2.8672e-06
1.63974e-06
5.40189e-06
1.19262e-05
5.54719e-06
2.26531e-06
1.34635e-05
6.04877e-06
5.60893e-06
2.02651e-06
4.43139e-06
5.70018e-06
1.4954e-06
2.60716e-06
5.48674e-06
1.28494e-05
1.36131e-05
1.3737e-06
1.36708e-05
1.36554e-05
7.31944e-06
1.5548e-06
1.57031e-06
1.59918e-06
1.59989e-06
1.23501e-06
1.20053e-06
1.21233e-06
1.23458e-06
5.63378e-06
3.3219e-06
1.35737e-05
3.723e-06
5.97534e-06
3.47018e-06
3.50213e-06
3.56962e-06
5.24977e-06
8.20977e-07
5.44382e-06
5.93249e-06
1.33087e-05
5.87226e-06
1.37912e-05
1.24969e-05
1.28092e-05
1.79489e-06
1.74972e-06
1.76655e-06
1.79966e-06
1.36615e-05
3.88501e-06
1.30109e-05
1.3281e-05
4.50392e-06
1.04429e-06
1.00476e-06
9.7013e-07
9.97399e-07
9.80384e-07
6.48465e-06
4.16685e-06
2.30652e-06
2.65967e-06
5.37817e-06
1.6149e-06
1.32069e-05
1.74329e-06
9.65425e-06
9.38658e-06
3.07127e-06
1.0831e-05
2.39259e-06
2.63119e-06
1.36544e-05
3.28642e-06
1.07297e-05
2.53916e-06
3.06473e-06
3.0932e-06
3.1525e-06
3.13293e-06
6.33775e-06
1.36506e-05
1.19006e-05
3.3267e-06
6.90576e-06
5.31731e-06
1.36583e-05
1.34356e-05
3.75455e-06
4.83746e-06
5.19878e-06
1.2108e-06
1.16908e-06
1.18143e-06
1.20197e-06
9.32878e-06
9.59502e-06
1.03129e-06
1.06621e-06
1.12814e-06
1.07799e-05
9.93875e-07
5.90595e-06
1.25864e-06
7.91056e-06
2.17222e-06
5.50357e-06
5.17187e-06
2.656e-06
5.72681e-06
4.22698e-06
5.78986e-06
1.36922e-05
5.91982e-06
1.36544e-05
9.98808e-06
2.45172e-06
5.71136e-06
9.15923e-06
1.30148e-05
5.83978e-06
2.67622e-06
1.45177e-06
2.28221e-06
3.35529e-06
1.95733e-06
1.59445e-06
8.20274e-06
1.08079e-05
2.25303e-06
1.36753e-05
1.1798e-05
5.76919e-06
2.84985e-06
1.84944e-06
6.26791e-06
1.33008e-05
1.27877e-06
5.58507e-06
6.13647e-06
1.018e-06
1.36471e-05
6.7964e-06
5.69851e-06
1.34237e-05
9.8625e-06
6.3219e-06
1.36558e-05
5.49265e-06
1.2485e-05
2.02388e-06
5.65968e-06
8.40557e-06
1.22159e-06
1.20006e-06
1.18783e-06
1.22659e-06
1.36363e-05
3.6153e-06
3.78588e-06
8.29614e-07
8.06193e-07
8.14995e-07
8.69668e-07
8.37648e-07
1.33144e-05
1.32146e-05
6.15726e-06
5.99034e-06
6.11464e-06
1.6045e-06
7.23354e-06
1.36185e-05
5.81348e-06
5.99572e-06
4.33907e-06
4.25695e-06
4.21815e-06
1.87876e-06
4.0666e-06
3.15463e-06
6.69828e-06
9.24829e-06
2.88618e-06
2.91872e-06
1.34164e-05
1.31145e-05
6.1006e-06
5.93441e-06
1.34407e-05
6.03196e-06
1.86242e-06
8.02835e-06
7.99861e-06
1.36599e-05
3.13438e-06
5.85767e-06
1.32e-05
3.02871e-06
1.81735e-06
2.07235e-06
1.65765e-06
1.61379e-06
1.62949e-06
1.65999e-06
3.28816e-06
3.19583e-06
6.36626e-06
9.60715e-06
2.09649e-06
2.06514e-06
2.04562e-06
2.10404e-06
7.58556e-06
3.35739e-06
3.66951e-06
3.70309e-06
3.77471e-06
1.2935e-05
6.59939e-06
1.3635e-05
1.2324e-06
3.77528e-06
7.5909e-06
3.16189e-06
6.53384e-06
1.37884e-05
7.6438e-06
1.29463e-06
1.35914e-06
1.30377e-05
1.31298e-05
3.56841e-06
4.2522e-06
1.3577e-05
6.38194e-06
1.40556e-05
6.20242e-06
6.57071e-06
2.48335e-06
1.05012e-05
1.04473e-05
1.14913e-05
6.23501e-06
6.11624e-06
6.06134e-06
3.52531e-06
3.31616e-06
3.70162e-06
4.60623e-06
4.51846e-06
4.47795e-06
7.31229e-06
1.32809e-05
7.13153e-06
2.63284e-06
1.74255e-07
1.70525e-07
1.51004e-07
1.76455e-07
1.75039e-07
1.57892e-07
1.61858e-07
1.56922e-07
1.58423e-07
1.53822e-07
6.4476e-06
6.32483e-06
6.268e-06
1.3476e-05
1.66894e-06
1.30251e-05
3.86572e-06
2.70553e-06
1.32696e-05
2.60888e-06
1.2657e-05
1.03368e-05
4.39607e-06
4.27365e-06
4.31255e-06
9.70937e-06
1.30766e-05
2.04644e-06
1.36197e-05
1.3664e-05
7.03278e-06
4.30756e-06
1.21448e-06
1.34238e-05
8.07634e-06
4.90621e-06
4.01174e-06
7.01799e-06
6.55164e-06
1.28484e-05
1.29124e-05
1.35475e-05
1.36614e-05
6.74652e-06
1.34025e-05
1.32206e-05
1.35641e-05
2.69576e-06
2.82985e-06
6.81609e-06
2.69685e-06
1.36815e-05
3.97674e-06
3.90144e-06
3.86605e-06
5.036e-06
4.94034e-06
4.89576e-06
1.30425e-05
1.38814e-05
1.51999e-06
5.48288e-06
3.12837e-06
3.89233e-06
3.74102e-06
3.11672e-06
3.35108e-06
7.79833e-06
5.42852e-06
1.3634e-05
4.70283e-06
4.18086e-06
1.25418e-05
4.08271e-06
1.35675e-05
3.34034e-06
9.36459e-06
2.29271e-06
1.36616e-05
7.44585e-06
2.76796e-06
2.79377e-06
2.84726e-06
9.46331e-06
4.49298e-06
5.44215e-06
7.97269e-06
3.60596e-06
3.63906e-06
3.70923e-06
2.74309e-06
7.10671e-06
3.93301e-06
5.25073e-06
5.151e-06
5.10451e-06
1.10295e-05
9.04397e-06
3.77926e-06
1.3088e-05
4.51955e-06
8.56737e-07
7.47185e-06
6.2484e-06
8.50078e-06
4.98877e-06
4.89459e-06
4.84984e-06
3.36993e-06
5.22807e-06
3.8123e-06
2.99249e-06
7.25231e-06
3.82039e-06
1.32889e-05
1.23308e-05
1.31911e-05
4.65745e-06
7.55009e-06
5.15716e-06
1.24685e-05
2.25514e-06
1.3682e-05
2.13536e-06
1.03769e-05
3.42954e-06
9.35486e-06
9.49369e-06
9.23077e-06
1.27554e-05
1.36545e-05
1.11492e-05
4.64994e-06
3.22912e-06
3.1994e-06
3.29102e-06
7.85608e-06
1.35768e-05
1.29596e-05
4.79295e-06
4.38662e-06
3.98225e-06
2.92582e-06
4.46769e-06
1.33878e-05
8.49462e-07
9.26851e-07
8.78764e-07
8.34792e-07
7.08576e-06
2.32171e-06
3.64694e-06
7.89699e-06
3.50449e-06
6.65866e-06
6.53169e-06
6.47325e-06
4.45432e-06
1.33216e-05
4.02138e-06
4.13771e-06
8.18341e-06
7.6885e-06
3.40266e-06
3.43407e-06
3.5001e-06
3.33758e-06
1.39496e-05
1.66056e-06
3.70201e-06
4.40756e-06
1.32002e-05
4.30219e-06
9.17113e-06
1.35626e-05
1.31195e-05
3.37696e-06
1.32517e-05
8.96084e-06
8.28878e-06
1.80246e-06
1.70993e-06
2.25054e-06
9.67269e-06
1.36627e-05
4.77804e-06
4.64491e-06
4.6878e-06
5.39613e-06
5.24585e-06
5.29376e-06
4.09952e-06
1.32874e-05
4.49659e-06
4.45055e-06
6.3216e-06
3.58057e-06
2.89989e-06
3.56504e-06
2.20179e-06
2.18086e-06
2.24321e-06
3.75466e-06
1.3722e-05
4.44074e-06
7.79188e-06
1.32781e-05
3.93598e-06
9.16393e-06
4.65113e-06
3.21013e-06
3.33994e-06
3.27102e-06
1.8948e-06
8.3103e-06
6.68653e-06
8.01654e-06
9.82375e-06
1.16787e-05
4.89764e-06
8.03169e-06
1.34214e-05
8.10278e-06
9.16321e-06
6.54014e-06
5.05772e-06
8.7175e-06
6.97832e-06
1.36592e-05
4.16575e-06
1.29246e-05
4.06381e-06
1.17812e-05
4.20756e-06
2.23495e-06
1.37257e-05
9.40721e-06
1.35705e-05
1.04792e-05
4.07431e-06
3.49735e-06
6.19679e-06
6.73098e-06
6.60264e-06
6.54367e-06
1.11688e-05
8.23972e-06
1.28971e-05
1.41964e-05
2.99751e-06
6.90546e-06
4.24839e-06
5.88357e-06
1.24569e-06
4.06009e-06
6.06546e-06
1.28078e-05
8.52507e-06
1.20688e-05
1.36418e-05
1.4608e-06
3.54597e-06
1.32374e-05
2.34071e-06
1.30609e-05
5.60326e-06
5.49674e-06
5.44721e-06
5.81867e-06
4.47492e-06
7.72568e-06
4.47366e-06
1.33186e-05
4.80122e-06
1.16353e-05
1.94807e-06
7.63439e-06
9.89543e-06
1.1322e-05
7.38611e-06
7.24596e-06
7.1808e-06
4.82555e-06
7.19675e-06
6.94694e-06
6.81451e-06
6.75369e-06
9.86579e-06
5.01491e-06
6.34879e-06
7.76377e-06
2.99492e-06
3.02288e-06
3.08065e-06
1.32428e-05
1.35148e-05
7.57689e-06
1.32969e-05
9.93185e-06
9.65647e-06
7.34547e-06
2.62074e-06
7.32988e-06
7.19118e-06
7.12599e-06
7.09495e-06
6.96008e-06
6.8974e-06
8.39405e-06
3.06191e-06
5.03577e-06
1.3461e-05
1.1832e-05
1.35803e-05
1.37264e-05
9.57438e-06
8.75024e-06
2.31245e-06
2.26675e-06
8.97837e-06
1.36422e-05
6.60046e-06
6.30406e-06
6.1838e-06
6.12852e-06
1.13132e-05
1.01372e-05
1.25593e-05
6.76539e-06
2.02965e-06
1.06805e-05
5.71364e-06
3.62306e-06
1.26681e-05
2.58746e-06
2.56353e-06
2.63694e-06
1.37815e-05
3.38094e-06
3.41218e-06
3.47786e-06
4.55308e-06
3.13095e-06
1.84695e-06
3.71443e-06
1.34152e-05
6.13431e-06
4.37641e-06
2.83971e-06
2.41164e-06
9.22093e-06
8.64382e-07
8.2649e-07
8.12437e-07
8.04172e-07
8.31733e-07
1.29072e-05
1.80015e-06
6.21621e-06
8.26024e-06
1.31738e-05
5.05317e-06
7.98802e-06
7.83861e-06
7.76603e-06
1.00882e-05
1.28585e-05
1.28933e-05
8.04149e-06
1.09892e-05
7.33498e-06
7.77551e-06
7.62953e-06
7.55945e-06
1.09832e-05
5.35998e-06
7.85864e-06
1.02022e-05
7.7757e-06
7.606e-06
7.46199e-06
7.39464e-06
6.36207e-07
6.97672e-06
4.13789e-06
1.36521e-05
2.62075e-06
5.07936e-06
2.8797e-06
2.64985e-06
1.36513e-05
8.68542e-06
5.10112e-06
6.7676e-06
2.17616e-06
3.87464e-06
3.90969e-06
3.98557e-06
3.03731e-06
1.03167e-05
1.36696e-05
2.25242e-06
7.03507e-06
1.02397e-05
2.67352e-06
6.71201e-06
3.18596e-06
6.91398e-06
7.31115e-06
1.16186e-05
4.37627e-06
8.58585e-06
2.97143e-06
2.99897e-06
3.05657e-06
1.34629e-05
1.3666e-05
2.05448e-06
1.37803e-05
1.36263e-05
6.82527e-06
4.92593e-06
1.36575e-05
6.41411e-06
2.84306e-06
1.3646e-05
1.18835e-05
1.33919e-05
6.49443e-06
3.09303e-06
2.19881e-06
1.3657e-05
1.40705e-05
3.52934e-06
1.05987e-05
1.35114e-05
1.61007e-06
2.02536e-06
1.97496e-06
1.99399e-06
2.03137e-06
1.16396e-05
3.6932e-06
1.35606e-05
1.30126e-05
8.02806e-06
1.19956e-05
2.68239e-06
3.96164e-06
2.74851e-06
7.46555e-06
7.80162e-06
2.40171e-06
1.8161e-06
1.66356e-06
6.95978e-06
1.13694e-05
5.22892e-06
9.56432e-06
1.14912e-05
7.35627e-06
7.68555e-06
7.41798e-06
3.99479e-06
2.68345e-06
1.35913e-05
2.85558e-06
1.61635e-06
1.57148e-06
1.5871e-06
1.61632e-06
1.02646e-05
4.03067e-06
2.46509e-06
1.07949e-05
2.46803e-06
7.75599e-06
1.30397e-05
3.93972e-06
9.95541e-06
5.67136e-06
5.51343e-06
5.56347e-06
8.3042e-06
1.04923e-05
1.32334e-05
7.13317e-06
7.72969e-06
8.04643e-06
7.89562e-06
7.82302e-06
3.11115e-06
3.33899e-06
8.47655e-06
1.32138e-05
7.34043e-06
8.97632e-06
9.15326e-06
8.89989e-06
6.67619e-06
1.29696e-05
7.19085e-06
1.16342e-05
1.34958e-05
1.3887e-05
2.79173e-06
2.81795e-06
2.87162e-06
1.22804e-05
2.26891e-06
2.24756e-06
2.31183e-06
2.30252e-06
8.1282e-06
9.77919e-06
8.43716e-06
1.37868e-05
1.20606e-05
1.59014e-06
1.56334e-06
1.59232e-06
1.54826e-06
1.10686e-06
1.05697e-06
1.03857e-06
1.02782e-06
1.06299e-06
2.91397e-06
1.12934e-05
8.70062e-06
1.36101e-05
1.1708e-05
1.17879e-05
8.67828e-06
1.3715e-05
2.86224e-06
1.36548e-05
8.43812e-06
8.28287e-06
8.20371e-06
1.35674e-05
8.09022e-06
8.21292e-06
1.05051e-05
5.59454e-06
1.38099e-05
1.3902e-05
2.58984e-06
2.61426e-06
2.66392e-06
1.26135e-05
1.3293e-05
6.26292e-06
7.86903e-06
8.3415e-06
3.54693e-06
1.35599e-05
1.36557e-05
2.69319e-06
1.42846e-06
1.36587e-05
7.38364e-06
9.21144e-06
9.40767e-06
7.37763e-06
3.79345e-06
2.0014e-06
1.95274e-06
1.97141e-06
2.00859e-06
1.36621e-05
1.05602e-05
2.41405e-06
9.33327e-06
8.7679e-06
1.83795e-06
2.50076e-06
1.37303e-05
2.38249e-06
2.36036e-06
2.42792e-06
1.36425e-05
1.13205e-05
3.50339e-06
3.26659e-06
3.2968e-06
3.36017e-06
2.47877e-06
7.95123e-06
6.02297e-06
5.90829e-06
5.8552e-06
1.15165e-05
8.88558e-06
1.15487e-05
9.79277e-06
1.32461e-05
4.00249e-06
1.05217e-05
8.70678e-06
1.08289e-05
8.50898e-06
2.60767e-06
1.97303e-06
6.64529e-06
8.9643e-06
1.3703e-05
1.35704e-05
1.36147e-05
1.34336e-05
2.66039e-06
1.24399e-05
1.03281e-05
1.35076e-05
1.3627e-05
1.77152e-06
1.78876e-06
1.82207e-06
1.81871e-06
1.36604e-05
9.6731e-06
1.13712e-05
8.46752e-06
1.0328e-06
3.13979e-06
2.62434e-06
1.02681e-05
1.33309e-05
2.34432e-06
8.98816e-06
1.13847e-05
1.06379e-05
1.36244e-05
4.7386e-06
1.30728e-05
1.34555e-05
1.08552e-05
1.35215e-05
2.07776e-06
2.09466e-06
1.36722e-05
3.06686e-06
9.83652e-06
9.56347e-06
2.92465e-06
2.86007e-06
2.88676e-06
2.94196e-06
1.32164e-05
1.325e-05
2.46886e-06
1.35796e-05
4.56158e-06
4.43443e-06
4.4754e-06
3.56746e-06
2.17586e-06
3.40559e-06
1.36184e-05
9.1113e-06
1.28367e-05
2.24148e-06
1.17514e-05
2.05035e-06
1.36757e-05
9.76177e-06
2.254e-06
9.8242e-06
9.55319e-06
9.78848e-06
2.70851e-06
1.28713e-05
1.31209e-05
2.9135e-06
9.46019e-06
1.86828e-06
9.6115e-06
1.32572e-05
1.09244e-05
1.38199e-05
1.35148e-05
1.23629e-05
1.30509e-05
6.46523e-06
1.36583e-05
1.37388e-05
5.1894e-06
5.09123e-06
5.04487e-06
2.9512e-06
9.37229e-06
1.38658e-05
1.36709e-05
8.61044e-06
1.32532e-05
1.22202e-05
1.36711e-05
1.3134e-05
1.327e-05
1.14757e-05
1.04844e-05
9.27135e-06
1.29168e-05
1.23049e-05
8.94153e-06
9.09487e-06
8.84314e-06
1.35175e-05
9.82851e-06
2.6307e-06
1.36609e-05
1.98916e-06
1.0767e-05
8.99292e-06
9.89718e-06
1.38808e-05
6.86901e-06
6.73798e-06
6.67778e-06
9.07743e-06
1.40816e-06
1.04318e-05
1.01421e-05
2.9826e-06
9.46603e-06
9.78697e-06
1.36903e-05
1.3299e-05
1.36256e-05
1.31902e-05
1.35708e-05
1.21384e-06
1.34562e-05
7.12167e-06
1.38298e-05
9.13441e-06
9.39478e-06
1.32338e-05
9.78506e-06
1.27086e-05
1.3668e-05
1.14687e-05
1.37032e-05
1.32924e-05
1.35544e-05
1.81052e-06
9.74822e-06
1.16608e-05
1.39406e-05
1.35147e-05
8.01727e-06
7.81453e-06
1.09404e-05
1.38842e-05
9.22751e-06
7.55435e-06
7.41188e-06
7.34429e-06
1.31284e-05
1.80534e-06
1.7552e-06
1.77237e-06
1.80234e-06
1.3732e-05
8.14006e-06
1.36674e-05
1.35967e-05
8.44873e-06
1.31332e-05
1.748e-06
1.31754e-05
1.65272e-06
2.75537e-06
1.57504e-06
1.32441e-05
9.14998e-06
9.28937e-06
9.03226e-06
1.33678e-05
1.18207e-05
1.26767e-05
1.38808e-05
1.36567e-05
1.26106e-05
1.37892e-05
1.25643e-05
9.15214e-06
2.83706e-06
1.2772e-05
1.37446e-05
1.34007e-05
1.03945e-05
1.01034e-05
1.30912e-05
1.35424e-05
1.26774e-05
1.3651e-05
4.28351e-06
1.37193e-05
1.27805e-05
4.60952e-06
1.27559e-05
1.3626e-05
9.88606e-06
1.05745e-05
9.39429e-06
9.13442e-06
9.22214e-06
1.36826e-05
1.09286e-05
1.34057e-05
1.08934e-05
1.19072e-06
1.38929e-05
1.83981e-06
1.85748e-06
1.8923e-06
1.8865e-06
2.47549e-06
1.00043e-05
1.26175e-05
2.5318e-06
1.36645e-05
9.57163e-06
1.30693e-05
1.36187e-05
9.46861e-06
1.20878e-06
1.17265e-06
1.18441e-06
1.20615e-06
1.00281e-05
9.75194e-06
1.17931e-05
1.04015e-05
1.0953e-05
1.43844e-06
1.3655e-05
1.36695e-05
1.36484e-05
1.3665e-05
6.27422e-06
1.34615e-05
2.05366e-06
1.38385e-05