/*--------------------------------*- C++ -*----------------------------------*\
  =========                 |
  \\      /  F ield         | OpenFOAM: The Open Source CFD Toolbox
   \\    /   O peration     | Website:  https://openfoam.org
    \\  /    A nd           | Version:  8
     \\/     M anipulation  |
\*---------------------------------------------------------------------------*/
FoamFile
{
    version     2.0;
    format      ascii;
    class       surfaceScalarField;
    location    "2.2";
    object      phi;
}
// * * * * * * * * * * * * * * * * * * * * * * * * * * * * * * * * * * * * * //

dimensions      [0 3 -1 0 0 0 0];

internalField   nonuniform List<scalar> 
8330
(
-7.47062e-09
2.85633e-10
1.70857e-11
7.16791e-09
8.2265e-09
-6.69233e-09
-1.53417e-09
-6.07318e-09
6.71827e-09
-6.4509e-10
-3.38522e-10
2.03116e-13
5.1969e-10
-1.81371e-10
-3.53066e-09
4.13009e-09
7.26826e-09
-7.86769e-09
5.76963e-09
4.7847e-09
-6.30079e-09
-4.25354e-09
-9.70778e-09
1.04121e-09
-3.33574e-10
9.00015e-09
-9.58654e-10
-8.08694e-09
8.79008e-09
2.55513e-10
-1.30137e-08
-5.27806e-10
-8.66074e-10
1.44076e-08
-7.36286e-09
7.52858e-10
-1.62066e-10
6.77207e-09
8.63612e-09
-8.48889e-09
-4.34233e-11
-1.03807e-10
8.82734e-09
1.91581e-09
-7.02825e-09
-3.71491e-09
-1.9878e-10
8.16242e-09
6.72483e-10
7.29666e-09
-8.15227e-10
3.70144e-10
-6.85157e-09
6.95021e-10
1.4357e-10
-1.009e-08
9.25144e-09
-7.83034e-09
7.89616e-09
-8.98284e-11
2.40074e-11
-4.1821e-10
6.26206e-09
-5.84385e-09
-3.56492e-09
4.4309e-09
-3.57529e-09
2.7093e-09
-8.21334e-09
-3.66015e-10
9.04607e-11
7.97573e-09
-7.92809e-09
-1.08428e-10
6.07832e-11
8.07363e-09
-8.02829e-09
-1.48899e-10
1.03559e-10
3.35134e-10
-8.54516e-09
-1.50835e-10
8.36086e-09
7.45377e-09
2.18411e-10
-6.25233e-11
-7.60966e-09
-8.07804e-09
8.1988e-09
-9.73871e-12
-1.1102e-10
7.55891e-09
-5.48114e-10
2.24196e-10
-7.23499e-09
-8.28371e-09
4.95468e-10
-2.14917e-10
8.00316e-09
-7.92624e-09
-4.10935e-10
-6.99028e-11
8.40708e-09
4.09719e-10
-8.32609e-09
8.59013e-09
-6.73758e-10
-8.05571e-09
-1.20532e-10
9.82075e-11
-2.29096e-09
5.01453e-09
-5.48519e-09
2.76163e-09
7.9796e-09
-7.56102e-09
9.36221e-11
-5.12205e-10
8.66988e-09
4.3194e-10
8.23992e-11
-9.18422e-09
5.2908e-11
-8.44297e-09
2.30838e-12
8.38775e-09
7.33191e-09
-1.41791e-09
7.13606e-10
-6.62761e-09
6.83876e-09
-8.55935e-09
1.72059e-09
8.51039e-09
-1.00502e-08
2.07663e-09
-5.36826e-10
1.07937e-10
-2.47642e-10
5.9355e-10
7.75591e-09
2.20745e-09
-1.05569e-08
4.02671e-11
1.28483e-08
5.17264e-10
-1.34058e-08
-6.92213e-09
7.07938e-09
-1.5725e-10
-7.19336e-09
2.15494e-09
-2.29603e-09
7.33445e-09
1.97561e-10
-5.38985e-10
8.32102e-09
4.06832e-09
5.05544e-09
-4.37439e-09
-4.74937e-09
7.66336e-09
-6.89314e-09
-6.81522e-10
-8.86959e-11
-8.23982e-09
-4.09211e-10
-4.79216e-10
9.12825e-09
1.07212e-09
-4.02431e-10
7.89577e-09
-8.56546e-09
-1.29347e-08
-1.47743e-08
-8.51655e-09
1.41076e-09
-1.76127e-10
7.28192e-09
1.11258e-08
2.20447e-10
-4.5077e-10
-1.08955e-08
7.75901e-09
-7.70536e-09
-1.09948e-10
5.62978e-11
-8.57052e-09
-4.33842e-10
1.05859e-08
-1.58154e-09
2.1866e-09
-2.36658e-09
-7.26987e-09
7.44985e-09
9.08026e-09
-9.51423e-09
5.16132e-09
-4.72735e-09
-1.23567e-08
-1.64868e-09
1.40054e-08
-1.65152e-08
1.03853e-08
6.12987e-09
-9.46276e-09
1.99966e-09
-3.7764e-10
7.84073e-09
-4.00484e-11
-7.31217e-09
-1.0642e-11
1.51178e-09
-1.85166e-09
7.67179e-09
9.03772e-09
-9.79849e-09
-2.69955e-09
3.46033e-09
-3.78595e-10
-3.94889e-09
4.52439e-09
-1.96902e-10
8.08865e-11
-1.33448e-10
-7.88055e-09
1.65827e-10
-3.80224e-10
8.09494e-09
-7.47581e-09
7.71855e-09
1.03656e-10
-3.46401e-10
-7.79777e-09
-7.46788e-11
4.21124e-11
-3.64027e-09
1.48545e-08
-1.35565e-08
2.34233e-09
-4.49836e-10
7.81113e-11
-4.45823e-09
7.04373e-09
1.48282e-09
-4.84559e-10
1.75763e-10
7.56853e-09
-7.25973e-09
6.12205e-09
-3.70719e-09
-1.02348e-08
7.81998e-09
-9.16268e-09
-5.57341e-09
3.47672e-09
1.12594e-08
1.58531e-09
6.95497e-09
-8.54029e-09
7.6909e-10
-8.99385e-09
8.58444e-11
8.13892e-09
-7.61759e-09
-1.17435e-09
-7.70256e-11
8.86897e-09
-8.35456e-09
1.94545e-09
-6.07332e-10
7.01644e-09
7.65844e-09
-7.5904e-09
-1.40723e-10
7.26857e-11
8.08626e-09
1.35138e-09
-7.85232e-09
-1.24484e-09
8.51328e-09
-7.26844e-09
3.597e-09
5.90858e-09
-6.70723e-09
-2.79834e-09
-3.32602e-09
3.67929e-09
-1.51761e-09
1.16434e-09
3.18543e-09
-9.76874e-09
-2.51738e-09
9.10069e-09
8.0017e-09
-7.74064e-09
-8.93373e-11
-1.71722e-10
6.96922e-09
-6.87694e-09
-9.2277e-11
-6.84008e-09
-1.99117e-10
7.03919e-09
8.49718e-09
-8.62375e-09
2.41507e-10
-1.14937e-10
-3.026e-09
1.11376e-09
-1.41378e-09
2.8362e-10
6.55514e-09
1.21893e-09
-2.58883e-09
-1.50395e-09
2.87384e-09
-7.50462e-09
7.47233e-09
1.88182e-10
-1.55895e-10
-8.63663e-09
1.35685e-08
-1.05336e-08
5.60167e-09
8.57184e-09
3.74798e-10
-2.76754e-10
-2.23869e-09
-1.28526e-08
1.1451e-08
-9.16093e-09
9.38086e-10
-3.39597e-10
8.56244e-09
-6.73e-09
6.82145e-10
-7.47918e-09
1.3527e-08
2.85024e-09
1.05084e-09
-1.08996e-09
-2.81112e-09
-7.3367e-09
7.4327e-09
-1.19535e-10
2.35345e-11
-6.45598e-10
-6.86666e-09
3.64498e-11
-6.53847e-09
-3.01605e-10
7.01834e-11
-1.0211e-10
8.77926e-09
2.45475e-10
-2.24554e-10
-8.80018e-09
8.9983e-09
-8.74179e-09
4.38505e-10
-2.45238e-09
2.73527e-09
9.36046e-10
-7.45673e-09
7.55067e-09
-1.14625e-10
2.06929e-11
1.69102e-11
-9.3296e-11
8.69236e-09
-8.61597e-09
7.08075e-09
-7.21488e-09
1.34122e-10
-7.09898e-09
1.00448e-08
8.14389e-09
-1.10897e-08
1.36752e-10
6.73354e-09
-6.8703e-09
1.83327e-10
-6.82547e-09
6.64214e-09
-4.26249e-09
-5.42012e-09
5.60322e-09
4.07939e-09
-1.24521e-08
1.12106e-08
1.24144e-09
5.46253e-10
-6.94478e-09
6.39853e-09
-4.44402e-10
9.50277e-09
-1.41197e-08
5.06136e-09
7.94544e-10
-3.36302e-10
-9.08417e-09
8.62593e-09
-8.26944e-09
8.36688e-09
-2.22003e-10
1.24562e-10
-5.38184e-10
9.03914e-09
-9.67266e-11
-8.40423e-09
-7.19615e-11
1.1773e-10
1.25132e-09
-7.83217e-09
-1.33502e-09
7.91587e-09
1.02617e-09
-1.09842e-08
7.63455e-10
9.19456e-09
-1.68551e-10
6.79259e-09
1.53581e-09
-8.15985e-09
-1.99365e-10
2.18724e-10
-1.41424e-09
1.39488e-09
-7.99746e-09
7.41931e-09
-6.52082e-09
-1.30418e-09
-7.268e-09
7.77004e-09
8.02134e-10
7.41119e-09
-7.00147e-09
8.79018e-09
5.78794e-10
-8.11766e-09
-7.52026e-09
4.71979e-09
1.03029e-08
-7.5024e-09
8.77802e-09
-8.85034e-09
1.95773e-10
-1.23451e-10
-9.04632e-09
1.18155e-09
8.54659e-09
-6.81828e-10
-1.79068e-09
9.29464e-09
8.77933e-10
-8.38189e-09
-7.41355e-09
-2.90139e-11
-1.41714e-11
-7.91955e-09
-6.95444e-10
2.88902e-10
-7.59763e-09
-2.10083e-09
2.35703e-10
1.94023e-10
4.65443e-10
-8.92891e-09
4.44641e-10
8.36152e-09
4.34956e-11
-8.84965e-09
-1.15778e-10
-7.40318e-09
7.51896e-09
-9.49472e-09
9.49991e-10
-4.18394e-10
8.96312e-09
-7.46156e-09
4.18146e-10
-1.1964e-09
3.97129e-10
-3.22828e-09
-1.06073e-10
2.93723e-09
8.56061e-09
-1.56458e-09
-6.99602e-09
-4.57752e-10
2.75376e-09
5.54235e-10
6.78944e-09
-8.66817e-09
2.57703e-09
-6.983e-10
6.99723e-09
-3.01601e-09
-6.27218e-09
-6.17554e-09
4.6057e-10
5.71497e-09
2.09644e-10
7.32281e-09
-7.48313e-09
-4.93216e-11
6.05766e-09
-1.75612e-08
-9.25456e-09
5.60546e-10
4.49282e-10
-1.04128e-09
-6.86956e-09
-4.4147e-10
4.47228e-10
-7.56677e-09
-8.62036e-09
5.55549e-09
3.21908e-09
-1.54219e-10
-1.01408e-10
9.37082e-11
2.04726e-10
-1.97026e-10
2.06799e-09
4.87192e-09
-1.50471e-10
-1.38807e-08
-4.54312e-09
5.60776e-11
-9.48433e-11
-7.40133e-09
4.45102e-09
1.40863e-08
-1.1136e-08
5.76069e-09
-1.01173e-08
4.97661e-09
-6.20011e-10
-7.65455e-09
5.89498e-09
-8.42536e-10
-7.82852e-09
1.6981e-09
6.97296e-09
1.08496e-09
-2.40164e-09
8.80441e-09
-7.48772e-09
-1.07141e-08
1.27838e-08
2.36639e-09
-4.43613e-09
-1.37098e-09
9.25603e-10
1.15712e-08
1.15593e-09
-1.57262e-09
4.09599e-09
-2.24696e-10
6.27029e-11
2.21699e-09
-1.99872e-09
-9.96844e-10
7.78574e-10
-2.25826e-10
-7.06083e-09
7.28666e-09
-8.11117e-10
2.54535e-10
7.94078e-09
-7.3842e-09
1.21033e-08
-6.84374e-11
-3.24472e-09
-3.95023e-09
-6.27954e-09
5.71455e-10
9.65832e-09
1.95978e-09
7.91192e-09
-2.49234e-09
-7.37935e-09
-3.58707e-09
1.09424e-08
6.95594e-10
-8.05092e-09
-9.18111e-09
6.54329e-09
3.66399e-09
1.12197e-08
-2.20967e-09
6.8312e-09
-1.58413e-08
-3.08773e-09
2.3324e-09
-6.65381e-09
7.40914e-09
1.19474e-11
-1.38346e-09
5.95138e-10
-1.42504e-09
8.79222e-09
-7.96233e-09
7.65426e-09
-1.12962e-10
-7.5413e-09
-8.4959e-09
-3.76086e-09
9.92991e-09
2.32685e-09
-4.3842e-09
-5.98335e-09
6.10506e-09
-8.2652e-09
9.32748e-09
2.13896e-09
-3.20124e-09
-8.90065e-10
-7.899e-09
8.23083e-10
7.96598e-09
3.20062e-09
-8.17519e-09
5.36195e-09
-3.87383e-10
-8.38165e-09
-1.25185e-09
8.32932e-09
-9.73808e-11
7.45492e-09
-7.35754e-09
3.83021e-09
-9.34666e-09
-3.73241e-09
9.24886e-09
-9.0159e-09
1.54859e-10
9.44703e-10
7.91634e-09
8.71692e-09
-4.55553e-09
-5.22856e-09
1.06717e-09
-1.67299e-09
5.09048e-09
-1.20541e-08
4.80966e-09
-5.01975e-09
-1.09363e-08
1.11464e-08
-6.89162e-09
5.83554e-09
-2.50884e-09
1.79989e-09
-1.54939e-09
-8.49788e-10
5.99287e-10
5.93238e-09
-9.75167e-09
-1.20216e-08
1.58409e-08
6.81534e-09
-2.04834e-09
-7.44083e-09
2.67383e-09
8.31266e-09
-1.74896e-09
-5.84439e-11
-7.57034e-09
7.91241e-09
-7.74534e-09
-8.03889e-10
4.83254e-10
8.06597e-09
-8.89662e-09
-9.63237e-09
1.27136e-08
5.81542e-09
-2.0374e-09
-7.71249e-09
7.8218e-09
1.92809e-09
-2.07048e-11
-1.13399e-08
-7.18948e-10
1.20796e-08
8.16282e-09
-8.37041e-09
-1.16656e-10
3.24244e-10
2.84176e-10
-2.00604e-10
-8.2073e-09
8.12373e-09
-8.2404e-09
1.20155e-09
6.33288e-09
7.05964e-10
7.57308e-09
-7.91595e-09
9.02764e-10
-5.59895e-10
8.6095e-11
-1.33016e-10
-3.82534e-09
1.82821e-09
1.59517e-10
-1.32609e-10
-7.36361e-09
-6.30397e-10
2.63061e-10
-1.32207e-09
-1.06781e-10
-7.19151e-09
-2.22057e-09
1.1542e-08
-1.27794e-08
3.45793e-09
-6.73718e-09
-6.41088e-09
6.25491e-09
1.06884e-08
-4.46307e-09
-7.85963e-09
1.63431e-09
8.50797e-10
-1.0862e-09
7.90081e-10
4.74786e-10
-1.02808e-08
1.49657e-08
-1.27393e-08
1.15121e-09
-3.3776e-09
-9.30852e-09
-8.2102e-11
7.62345e-09
1.76717e-09
3.58473e-09
-3.56619e-09
1.61917e-09
-7.68652e-09
-2.19785e-09
7.30261e-10
-9.2909e-10
2.46599e-10
-1.90267e-10
-1.14192e-10
5.786e-11
1.35417e-09
-1.16463e-09
-3.88906e-10
-4.75289e-11
-1.19662e-10
8.31066e-11
8.40838e-11
-6.7546e-10
4.80243e-10
-5.43908e-09
-9.31054e-09
5.199e-09
9.55062e-09
3.05909e-11
-8.70461e-09
-1.44327e-09
4.28131e-09
-4.44418e-09
5.61307e-09
-5.4502e-09
8.01076e-09
-7.61276e-09
1.74104e-10
-5.72102e-10
-3.63914e-10
-3.32212e-09
-1.15723e-08
-2.63379e-09
3.45275e-09
1.07533e-08
-8.24549e-09
2.45955e-10
7.08762e-09
-7.97861e-09
4.24089e-10
4.66893e-10
4.75671e-09
-8.38069e-09
8.34377e-09
-1.75342e-09
-1.28937e-09
7.47369e-09
3.86537e-09
-8.3137e-09
8.27854e-09
-9.54037e-09
4.34034e-09
1.09561e-08
-5.75609e-09
-8.79952e-09
2.79818e-09
-2.38031e-09
1.15721e-08
-1.30614e-08
6.29892e-09
-1.81727e-11
7.05972e-09
-7.04155e-09
9.20204e-11
-3.05308e-09
8.51393e-09
-1.13273e-10
-3.37747e-11
-3.13082e-09
2.68641e-09
2.97434e-09
-2.52993e-09
-3.12721e-10
-8.38853e-09
9.84394e-09
-1.14269e-09
-3.63451e-10
1.49026e-10
-7.29019e-09
6.51021e-09
-2.11053e-09
3.47496e-10
-4.74718e-09
5.23853e-09
-4.5325e-09
5.0607e-09
-5.76672e-09
-1.37552e-08
1.54124e-08
-8.38718e-09
-5.67144e-09
5.93749e-09
1.1306e-08
-1.42056e-09
-1.23723e-08
-9.00815e-09
1.05342e-09
-3.54683e-10
8.30941e-09
8.67155e-09
-6.12386e-10
-1.19024e-11
-8.04726e-09
-3.56603e-09
-1.14343e-08
4.32321e-09
-4.95033e-09
3.31473e-09
-2.6876e-09
-4.79306e-09
4.05958e-09
-3.06357e-09
3.79705e-09
-3.26761e-10
-8.09591e-09
8.35614e-09
6.65299e-11
-5.20643e-10
-6.40148e-09
8.32974e-09
-2.91669e-09
-3.23771e-10
-5.08927e-09
7.41291e-09
-4.86189e-09
-3.7841e-09
1.23308e-09
9.44844e-09
1.68341e-09
-2.56001e-09
1.11898e-08
3.21794e-09
-6.53663e-09
-7.87116e-09
8.45923e-10
8.69354e-09
1.65038e-09
-5.36897e-09
-3.27026e-10
-1.2087e-09
6.90469e-09
4.4806e-10
-3.77521e-10
-1.42813e-10
7.22742e-11
3.43991e-10
8.36852e-09
-8.08248e-09
-6.3003e-10
9.47144e-11
6.36543e-09
-6.46014e-09
-4.46516e-09
-5.94236e-09
5.97689e-09
-2.37545e-09
4.16059e-09
-7.76203e-09
-1.60283e-09
-1.10681e-08
7.65122e-09
-4.13159e-09
9.16728e-09
1.08636e-09
-9.61626e-09
-1.61221e-09
1.73374e-09
-7.28324e-09
3.1457e-09
3.98397e-09
1.53573e-10
9.82679e-11
-1.38001e-10
1.12276e-08
-1.23302e-08
-1.13607e-09
6.93862e-09
-6.59462e-09
-1.09295e-08
2.89517e-10
1.07835e-08
-9.91278e-10
1.4397e-09
4.56611e-09
7.15511e-09
-7.04578e-09
-1.96526e-10
8.71918e-11
-6.17394e-10
7.07744e-10
-1.88693e-10
9.83436e-11
-1.89058e-10
8.79496e-09
-9.83811e-09
-3.41173e-09
4.40532e-09
8.84452e-09
-8.66588e-10
-1.26915e-08
7.05438e-10
8.01011e-09
-8.11146e-09
1.30587e-10
-2.92365e-11
-3.54463e-09
3.48797e-09
-3.07417e-09
3.38075e-10
-6.39503e-09
6.05696e-09
-5.00651e-10
5.85154e-10
-4.17668e-10
3.33165e-10
-8.5109e-10
1.00054e-09
-2.74801e-10
1.25351e-10
1.2129e-09
2.42728e-09
-2.29272e-09
-8.0533e-09
7.91874e-09
6.24054e-09
3.6654e-09
3.90864e-11
-9.94502e-09
-8.66073e-09
-5.80867e-09
7.30641e-09
7.16299e-09
-7.46817e-09
3.54734e-10
-6.31907e-10
3.84656e-09
6.50271e-09
2.57124e-11
-1.0375e-08
-3.03572e-10
1.59793e-10
-7.77577e-09
-1.43352e-09
1.30971e-09
-2.2135e-09
2.33731e-09
-8.74375e-09
4.90649e-09
-1.45268e-09
5.28994e-09
4.99495e-09
4.43331e-09
-2.20665e-09
-7.22161e-09
7.89696e-09
3.29566e-10
-9.38933e-10
-7.28759e-09
-3.6287e-09
-7.98801e-09
5.04311e-10
1.11124e-08
3.08827e-10
-1.22798e-10
6.057e-11
-5.86355e-09
-2.9557e-09
4.81171e-09
4.00755e-09
-1.76838e-09
-9.65894e-09
6.63094e-09
4.79638e-09
2.27855e-09
1.69447e-10
8.5058e-09
-8.40522e-09
-1.22219e-10
2.16372e-11
7.35718e-09
-1.52686e-09
-5.38715e-09
-4.43175e-10
1.42008e-09
-1.03498e-08
-1.15775e-09
1.00874e-08
-7.39267e-09
-5.3779e-10
8.12449e-09
5.2518e-10
-1.53047e-10
7.59261e-11
6.74403e-09
-1.03889e-10
-6.68837e-09
4.82289e-11
8.6331e-09
2.29444e-10
-8.45201e-11
-7.23007e-09
-6.32653e-10
7.51975e-09
3.4297e-10
1.46698e-10
-8.93308e-11
8.14518e-09
-8.20255e-09
2.5035e-09
8.50368e-09
-1.261e-08
-7.79468e-09
4.03264e-09
-2.15143e-09
5.91347e-09
8.72818e-09
-7.93229e-11
6.39004e-11
-8.71276e-09
-9.45078e-09
-1.73778e-09
2.14224e-09
6.94019e-09
1.05086e-10
7.807e-09
-7.71581e-09
-1.96271e-10
7.85299e-09
-1.12035e-10
1.55997e-10
-5.51763e-09
6.2421e-09
-5.43387e-09
4.7094e-09
-2.22942e-09
9.46079e-09
1.08129e-09
7.02907e-09
-6.91723e-09
-1.89804e-10
7.79697e-11
2.56236e-09
7.91905e-09
-7.30819e-09
-3.17321e-09
-4.46664e-09
-1.39723e-09
1.53389e-09
4.32998e-09
-7.81904e-09
7.79039e-09
8.09791e-11
-5.23314e-11
-1.03639e-08
-1.52123e-09
1.05142e-08
6.71632e-11
8.25615e-09
-8.19525e-09
-1.44526e-09
1.38436e-09
8.16765e-11
-1.73891e-10
4.04084e-09
-4.75247e-09
-1.68595e-09
2.39758e-09
1.08203e-10
-2.51549e-10
-1.41347e-08
1.55163e-08
1.87787e-10
-1.22976e-09
1.2607e-09
-6.90252e-09
1.48476e-09
7.84504e-09
-7.82387e-09
-6.69531e-09
2.0671e-09
-1.37678e-08
7.57674e-10
-1.48919e-09
1.44993e-08
8.52822e-09
-3.00666e-09
-9.98671e-09
-7.2213e-09
1.46513e-10
-4.51261e-10
7.52605e-09
5.61972e-10
-7.6183e-10
8.41184e-09
-8.21199e-09
-1.67477e-09
-7.94218e-09
7.84409e-10
8.83254e-09
6.41083e-11
-1.32803e-10
-5.92358e-09
4.55295e-09
-9.56564e-09
-1.33472e-08
-2.75308e-09
7.30081e-09
-5.47175e-09
2.4099e-09
-5.36232e-09
8.42417e-09
-2.42654e-09
-2.0293e-09
3.02232e-09
7.90422e-09
-3.5104e-09
9.31868e-11
7.8762e-10
2.6296e-09
9.33624e-09
-1.9766e-09
7.80622e-10
-8.14026e-09
-8.58118e-09
8.2546e-09
4.81436e-10
7.58404e-09
-7.6945e-09
1.59105e-10
-4.86514e-11
5.24093e-09
-5.5824e-09
6.65541e-09
-6.31393e-09
-6.46418e-09
4.76823e-09
-3.65302e-09
5.34897e-09
1.11537e-09
7.29537e-11
-1.6367e-09
3.54464e-09
2.13289e-09
-1.15351e-08
8.14808e-09
1.61869e-09
-1.929e-09
-1.11567e-08
3.90523e-09
-1.88381e-09
-3.53903e-09
-2.54313e-09
-8.59687e-09
1.05996e-08
5.40399e-10
-1.0154e-09
-8.76408e-09
1.62266e-09
8.15681e-09
-1.05445e-10
2.75313e-09
-1.03471e-08
1.64688e-09
-1.97064e-09
1.06708e-08
-7.53367e-10
4.75577e-10
-7.31984e-09
-3.14124e-09
1.0993e-08
1.47573e-09
1.81854e-09
7.49222e-09
-8.23865e-09
9.06229e-09
4.41323e-09
-1.26854e-08
-8.42436e-09
2.06034e-09
9.58196e-09
-5.31226e-09
4.68627e-09
-5.44433e-09
6.07031e-09
6.66575e-09
-6.27046e-09
-9.5764e-09
-3.09405e-09
8.80707e-09
6.49908e-09
-2.92408e-10
-6.28754e-09
8.08615e-11
7.5297e-09
-6.80215e-09
1.47195e-09
-2.1995e-09
-1.34027e-09
-1.05869e-08
8.60185e-09
3.96874e-10
-7.91376e-09
-1.36482e-10
5.1421e-11
-1.05206e-10
3.14606e-09
1.37516e-08
-1.68976e-08
-3.51346e-09
-4.26969e-09
1.7773e-09
6.00585e-09
-7.50361e-09
6.99172e-11
-6.2827e-12
7.43997e-09
-5.51158e-11
6.1638e-11
-7.42007e-09
-9.9875e-09
-3.52636e-09
1.03726e-08
7.7644e-09
-6.97841e-09
-1.69607e-09
9.10083e-10
-8.06245e-09
1.27177e-09
8.40985e-09
-9.37238e-09
-1.38894e-10
8.96198e-09
5.49293e-10
3.00079e-09
-1.75023e-09
1.85154e-09
-3.1021e-09
2.06405e-09
-1.00185e-08
-1.1964e-09
9.15086e-09
6.89181e-09
-1.90711e-10
4.29315e-11
-9.21863e-10
1.45456e-09
3.05203e-09
-1.01633e-08
2.75009e-09
7.54999e-09
4.78531e-11
-9.27596e-11
-9.15754e-11
1.27829e-09
1.16142e-08
-1.86693e-09
-1.10256e-08
-7.55503e-09
9.63118e-09
8.1607e-09
-1.02369e-08
-4.10448e-09
-4.08466e-09
1.28663e-09
2.45015e-10
7.29189e-09
7.71427e-09
-5.03445e-11
1.06423e-09
-1.01389e-09
-5.32546e-09
4.38204e-09
-4.4767e-09
1.91801e-10
9.08064e-09
-5.44256e-10
-6.1158e-10
5.7941e-10
-1.03688e-09
1.06905e-09
-1.44905e-09
1.00208e-09
-9.577e-09
1.0024e-08
-4.91029e-09
7.59367e-09
3.77804e-09
-6.46141e-09
-2.90348e-11
-3.61966e-10
4.88623e-11
3.42138e-10
8.67353e-11
-1.70881e-09
1.98045e-09
-3.58373e-10
-2.08555e-09
9.47501e-09
-5.88717e-09
-1.50229e-09
-3.68552e-09
4.30883e-09
4.96164e-09
-5.58494e-09
4.36532e-09
-6.28375e-09
-3.63877e-09
5.55721e-09
3.95668e-09
1.03334e-08
-6.76034e-09
-9.23435e-09
1.12795e-09
6.95677e-14
3.38843e-11
-4.65795e-09
4.83518e-09
-3.91748e-09
3.74025e-09
-7.15464e-09
-4.82716e-09
-1.14311e-08
-9.95262e-09
8.56428e-09
7.46856e-09
-6.08022e-09
-1.15996e-09
1.08851e-09
-5.40128e-10
-1.0553e-08
-2.05897e-09
-4.01711e-10
-7.74455e-09
7.73572e-09
1.04785e-10
-5.01098e-11
1.96863e-09
8.11975e-09
-1.57799e-09
8.77612e-09
2.6732e-10
-1.06678e-08
1.01717e-08
-2.13767e-09
-5.6201e-09
6.99234e-09
-8.64582e-09
7.27359e-09
3.19851e-09
-6.25042e-09
-3.41401e-09
6.46592e-09
-3.74471e-09
-4.30659e-09
4.50668e-09
-5.26932e-09
7.99511e-10
-1.47559e-09
1.29494e-09
2.67392e-10
-7.71814e-09
7.65589e-10
7.29063e-09
-2.39842e-10
-1.45447e-08
9.33441e-09
5.45017e-09
-1.19636e-08
1.03538e-08
2.88804e-09
4.57233e-09
-1.39337e-08
1.18649e-08
-2.06378e-09
3.76543e-10
9.10015e-09
3.88954e-09
1.72683e-09
-2.12839e-09
-8.09144e-09
7.81306e-09
5.54001e-09
-5.26163e-09
1.74762e-09
-1.86622e-09
3.11939e-09
-2.23932e-09
5.43096e-09
-1.25291e-08
-4.46259e-09
-1.13564e-08
-7.31968e-10
4.90795e-09
7.94876e-09
-8.1e-09
1.22322e-09
-8.34614e-10
1.90803e-10
9.8986e-10
-1.19754e-08
-4.42906e-09
1.54146e-08
6.15774e-09
-5.54808e-09
3.07877e-09
-3.68843e-09
-7.5962e-09
1.27011e-09
-9.72893e-10
7.29898e-09
-4.56856e-10
1.0149e-09
3.82239e-10
-9.40279e-10
-7.90198e-10
-6.94934e-09
7.49605e-09
2.43483e-10
7.08846e-09
-7.77976e-09
-4.78045e-09
4.3738e-10
-5.95159e-10
-1.45912e-09
1.6169e-09
-1.17676e-08
8.13515e-09
-4.459e-09
4.99464e-09
1.31508e-09
5.79363e-09
-1.32452e-09
-7.55899e-09
1.28731e-09
1.29758e-08
3.73882e-09
6.26177e-09
4.62006e-09
-6.39883e-09
-4.483e-09
1.03578e-09
-4.07593e-10
5.97953e-10
-1.22614e-09
-5.6664e-10
-5.1469e-09
-1.98323e-09
7.69676e-09
-7.33836e-10
6.82959e-10
3.35686e-10
-2.8481e-10
3.22716e-09
-8.57061e-11
1.58324e-10
3.08823e-10
-3.81441e-10
4.94426e-10
-7.72164e-09
-1.0718e-10
7.33439e-09
1.44432e-10
7.64656e-09
-8.80049e-09
1.0095e-09
-1.98967e-10
2.24774e-09
5.66549e-09
-8.34861e-09
1.38235e-08
9.85257e-09
-1.01812e-08
-2.4244e-09
-3.94802e-09
4.53746e-09
-1.02484e-08
-7.94443e-10
9.27533e-10
-5.89946e-10
-3.54009e-09
-7.60883e-09
2.55799e-09
8.59092e-09
6.38348e-09
-6.25229e-09
6.53456e-09
-1.25694e-09
1.13993e-10
-2.16807e-11
7.04552e-09
-9.244e-09
-5.19419e-09
-2.46522e-09
5.98992e-10
-1.22583e-08
1.26492e-08
4.28672e-10
-8.62519e-10
-8.23093e-10
1.45216e-09
-1.72225e-09
2.01772e-09
7.09957e-09
-4.87096e-09
-2.79525e-09
-6.59091e-09
4.08873e-09
-3.76827e-09
-9.454e-09
8.87297e-09
-6.7082e-10
6.37774e-09
-6.18753e-09
-1.42504e-09
1.23483e-09
-9.55581e-09
-2.05185e-09
3.03051e-09
8.57715e-09
7.7904e-09
-5.82288e-09
-4.05307e-09
7.67104e-09
6.78564e-09
-7.84609e-09
-6.61059e-09
-8.02668e-10
8.53084e-10
3.78255e-10
8.13727e-09
-8.22851e-09
-2.71496e-10
3.6274e-10
9.16448e-09
-6.04897e-09
1.10195e-08
-6.25685e-09
-1.10017e-08
6.23906e-09
9.53163e-09
-6.29193e-09
8.38453e-09
-1.80555e-09
-7.78361e-09
2.8063e-10
6.67947e-09
-2.17103e-10
3.67156e-11
1.28454e-08
-6.41635e-09
5.17143e-09
-1.16005e-08
-4.22622e-10
6.80432e-10
-3.3549e-09
4.95363e-10
-1.20262e-09
4.06216e-09
8.41896e-09
9.94684e-10
-8.2351e-10
-2.16963e-10
-8.2958e-10
3.12707e-10
-3.10697e-09
9.23148e-10
-2.13194e-09
2.32092e-09
-1.18582e-09
2.75911e-09
1.12019e-08
2.44216e-09
-8.63287e-09
-5.01121e-09
-1.75721e-09
1.49643e-10
9.86217e-09
-1.98174e-09
1.5219e-09
-1.23202e-08
1.13973e-08
7.45768e-09
1.70473e-09
-7.29681e-09
-1.8656e-09
-1.3563e-09
5.52561e-09
-8.04319e-11
-4.54811e-10
1.96721e-10
4.29949e-09
-4.03404e-09
7.5476e-09
7.93554e-09
-1.98041e-09
1.14444e-09
-1.35337e-09
1.20211e-09
-2.37826e-09
2.52952e-09
-3.32863e-09
-1.21545e-08
-8.13564e-09
2.13898e-11
2.79261e-12
-6.87258e-09
-1.34589e-08
1.70028e-08
-1.08413e-08
7.04286e-09
-6.15418e-09
-9.62481e-09
4.36202e-09
6.65732e-09
-1.39453e-09
9.39971e-09
-8.1985e-09
3.56702e-09
-1.74377e-10
9.36971e-09
-1.14933e-08
2.29794e-09
6.20979e-09
-6.15488e-09
-5.49116e-11
-7.21243e-09
-6.11433e-10
-7.91851e-09
2.82343e-09
4.94228e-09
-5.04746e-09
-4.41875e-09
4.52393e-09
2.64641e-10
-4.76156e-10
-7.25665e-09
2.36578e-10
2.17403e-10
7.68329e-09
6.5808e-09
-7.45373e-09
-6.92175e-09
4.65004e-09
-4.8589e-09
6.93772e-09
-6.72886e-09
2.32329e-09
9.8337e-09
-3.17893e-09
-8.97806e-09
8.50196e-09
-8.9776e-09
-1.75378e-09
7.96654e-09
-7.90611e-09
9.96736e-10
-1.05717e-09
-1.30174e-08
2.22464e-10
7.04282e-09
-7.05256e-09
2.34297e-09
6.64664e-09
-8.91236e-09
-7.72489e-11
8.11846e-09
4.29308e-09
-7.41689e-09
-3.95806e-10
-8.47924e-09
1.08437e-08
1.65683e-09
8.26311e-09
-9.91993e-09
-1.29355e-09
-6.76462e-09
3.03955e-09
5.01862e-09
-7.91745e-10
-8.51197e-09
9.79918e-09
-1.17424e-09
1.58415e-09
2.25041e-10
-6.34955e-10
-2.44715e-10
8.52469e-09
6.87988e-11
-1.03194e-10
5.06677e-10
-4.72282e-10
8.71225e-09
-7.14934e-09
3.34503e-09
6.92309e-09
-1.24597e-09
1.03444e-09
-6.71156e-09
-1.4772e-09
-7.0312e-09
-1.09956e-08
1.44883e-09
1.11539e-08
-5.84235e-09
-1.01734e-08
-8.93084e-09
4.65137e-09
-4.10123e-09
-2.4387e-10
7.75626e-09
-7.82366e-09
3.11269e-10
6.46213e-09
-5.57943e-09
1.03192e-08
4.30267e-10
-5.95047e-10
6.92947e-10
-5.28168e-10
5.96017e-09
7.92446e-09
2.84154e-10
3.0441e-10
-8.51302e-09
8.53827e-10
8.26368e-09
-2.44537e-10
-1.62421e-08
-3.11977e-09
1.15218e-08
7.84012e-09
4.69635e-10
-1.18949e-09
-5.18451e-09
9.1977e-09
-9.87898e-10
8.04865e-09
7.09293e-10
1.57722e-09
-1.38824e-09
2.46008e-10
-4.34981e-10
-7.52266e-09
-1.85576e-09
5.83833e-09
-9.01276e-09
-3.28339e-09
7.6382e-09
1.1044e-09
-3.93675e-11
-7.53305e-09
-9.73434e-10
7.31864e-09
1.18784e-09
9.40189e-09
-1.22637e-09
4.26329e-10
1.72078e-09
8.94818e-09
-1.13398e-08
7.71438e-10
5.80352e-09
2.88583e-09
4.15747e-09
-3.62322e-09
4.11578e-09
1.15957e-09
-8.07466e-09
-7.88736e-09
9.84474e-10
-6.58087e-10
7.14546e-10
3.73809e-10
-1.5798e-09
-6.42495e-09
1.04469e-08
-1.41033e-09
1.24084e-09
1.62165e-09
-8.3565e-09
9.04092e-09
-2.65274e-09
1.25752e-08
8.10361e-09
3.93555e-09
-7.73966e-09
1.09243e-10
7.52071e-09
-4.59124e-11
4.59923e-09
6.09412e-09
-7.23596e-09
-3.4574e-09
-8.12508e-09
8.36187e-10
-3.66513e-10
7.6554e-09
4.3743e-09
7.97635e-09
-1.02583e-08
-2.09234e-09
-1.64498e-09
1.95324e-09
-1.15805e-09
6.91171e-10
7.88817e-09
-3.57651e-09
-8.06635e-09
-6.70475e-10
9.31855e-10
-7.89928e-09
7.6379e-09
1.08657e-08
-7.25579e-09
-7.51889e-09
6.77257e-09
8.00211e-09
9.7951e-10
-1.05529e-09
-1.09407e-09
1.16984e-09
7.22399e-09
2.97545e-10
-1.07909e-09
-2.57336e-09
-8.3297e-09
-5.01688e-09
6.57396e-09
-2.15125e-09
-6.25063e-09
1.45253e-09
-8.26522e-09
-1.77963e-09
1.99751e-09
1.94579e-10
-4.12456e-10
5.89378e-09
-6.39364e-09
-4.35904e-09
1.05692e-09
9.15282e-10
-1.55663e-08
1.35941e-08
5.84354e-09
-5.95751e-09
8.66257e-09
-8.5486e-09
8.27403e-09
1.89245e-09
-3.1716e-09
-3.71921e-09
2.86956e-09
4.02125e-09
-7.21835e-09
5.91821e-12
-5.25832e-10
-2.34462e-11
3.1056e-10
2.38718e-10
-4.45366e-09
-4.79545e-09
7.66932e-09
-4.97502e-09
-8.57724e-09
6.59155e-09
6.9607e-09
1.8595e-09
7.65179e-09
-7.84222e-09
-1.66907e-09
-3.5675e-09
7.7824e-09
-1.07774e-08
1.373e-08
-1.07351e-08
7.76015e-09
-9.41729e-10
-2.6879e-09
3.22172e-09
-7.83736e-09
7.30354e-09
6.83975e-09
-6.88318e-09
-2.05977e-10
6.42913e-10
-6.40035e-10
2.031e-10
7.80867e-09
-1.34213e-12
-5.22311e-09
8.17792e-09
7.09154e-09
-7.70301e-09
-3.33876e-09
4.64454e-09
-2.1229e-09
7.66058e-09
-1.01822e-08
8.43215e-09
1.70668e-10
-3.73085e-10
-2.3708e-09
5.77257e-09
6.22941e-09
-7.96454e-09
2.5966e-09
-1.72968e-09
7.09762e-09
-4.17432e-09
-5.6218e-09
-8.84647e-10
6.50644e-09
-6.8616e-09
-2.40292e-09
4.2895e-09
-6.69969e-09
-9.64088e-09
7.67984e-09
-6.08753e-10
4.90425e-10
7.04141e-09
1.27636e-09
-5.04832e-10
4.51693e-10
1.58141e-08
-1.00866e-08
-5.96735e-09
5.2818e-09
3.98676e-09
-4.92439e-10
9.66789e-10
6.09362e-09
-9.28089e-09
6.36911e-09
-3.18184e-09
9.17591e-11
-5.43908e-11
-8.17301e-09
8.14516e-10
-6.80152e-10
-5.23127e-09
3.68765e-09
5.26242e-09
-3.7188e-09
3.91585e-09
-4.31224e-09
-9.2199e-09
9.61629e-09
2.96436e-10
-3.46609e-10
2.81627e-10
-2.31454e-10
1.05968e-08
1.23499e-08
-1.40244e-08
-8.92234e-09
2.02171e-10
7.83203e-11
-1.75311e-10
-1.0518e-10
-5.56859e-09
4.52443e-09
-1.78912e-08
1.59622e-08
5.80187e-09
-4.7494e-09
-4.30989e-10
-6.21481e-10
-2.12873e-10
-6.716e-10
6.6751e-10
4.03667e-09
-1.15581e-09
6.96034e-09
-9.84121e-09
-2.47824e-09
1.05468e-08
-7.9061e-09
-1.62454e-10
2.32425e-09
-9.76655e-09
-8.79982e-09
-2.22057e-09
2.47812e-09
2.32909e-10
-4.90461e-10
-8.30264e-09
6.8977e-09
7.71039e-09
-8.67729e-10
4.45907e-10
-7.28857e-09
5.45946e-09
4.25642e-09
-6.16584e-09
-3.55004e-09
-5.59941e-10
9.28059e-10
7.79348e-11
-9.97188e-10
-4.68989e-10
8.56845e-09
-5.07532e-09
2.969e-09
-6.44455e-09
8.60733e-09
5.79079e-09
-7.95356e-09
-5.5019e-09
-8.45358e-09
-3.60924e-09
3.11887e-09
3.28643e-09
-2.79606e-09
-5.35202e-10
-1.50456e-10
-1.43922e-10
-1.01545e-08
-2.16757e-09
-8.62375e-09
-1.71092e-09
7.09859e-10
7.18332e-09
-2.51722e-09
-8.49645e-10
-3.60522e-09
1.48033e-08
-1.03484e-08
-7.81776e-09
8.85728e-09
-3.83466e-09
1.07914e-08
8.30146e-10
-9.07462e-10
1.05683e-09
2.0352e-09
8.52207e-09
-3.74659e-10
-1.01826e-08
9.03082e-09
-1.0777e-09
9.71709e-09
-2.53868e-09
-7.78717e-09
-4.36737e-10
1.30841e-10
1.35877e-08
5.05695e-09
-1.40723e-08
4.64181e-10
-4.02429e-10
2.34685e-10
7.80629e-09
-9.50898e-09
8.34528e-09
6.67061e-09
-5.50692e-09
-6.16749e-10
5.01928e-10
-1.05942e-09
7.65544e-09
-1.05005e-09
5.63139e-10
-7.16853e-09
4.92045e-09
-1.56274e-09
5.06125e-09
-4.10606e-10
5.62797e-09
-1.53039e-08
-1.13802e-09
8.32777e-09
-3.18806e-09
2.85694e-09
-3.27812e-09
-2.98139e-09
-7.73036e-09
1.98309e-09
8.72867e-09
-3.32121e-09
2.31435e-09
-6.29468e-10
6.95881e-10
-2.7239e-10
3.88239e-09
-6.89504e-09
7.17242e-09
7.61681e-09
-7.89419e-09
-9.87948e-09
1.07577e-08
6.16462e-09
6.48938e-09
-6.46799e-09
1.53514e-08
-1.36706e-08
-1.68083e-09
-2.00604e-09
1.14769e-09
2.16806e-09
-1.04627e-09
1.79458e-09
-4.0465e-09
3.29819e-09
4.18269e-09
-1.09385e-08
8.27771e-09
-6.67072e-09
-4.78602e-09
-7.3331e-09
2.21426e-10
8.02064e-09
-7.35767e-10
-7.5063e-09
2.79287e-09
-2.4345e-09
-2.1668e-09
1.80844e-09
-4.12861e-09
1.03951e-08
-8.04978e-10
4.38942e-10
-2.92051e-10
-8.51302e-09
5.78726e-09
3.61206e-09
-8.86308e-10
3.4477e-09
-5.48583e-09
-3.50995e-09
1.96154e-09
-8.45772e-09
9.09235e-09
4.2618e-09
-5.25054e-09
4.53415e-09
6.76e-09
-4.11082e-09
-8.29396e-09
8.46406e-09
8.68718e-09
7.50727e-09
-3.74768e-09
3.73966e-09
4.33384e-11
1.06539e-10
-2.71821e-09
4.58698e-09
-5.61348e-09
-2.082e-09
1.29798e-10
6.10968e-09
3.60595e-09
-9.12566e-10
2.12738e-10
-4.35797e-10
-7.31167e-09
-4.4273e-10
-7.02795e-09
-2.89602e-09
2.43318e-09
-1.28739e-09
8.36139e-10
7.2831e-09
-6.79645e-10
2.79625e-09
1.17822e-09
-9.23068e-10
-6.44059e-10
2.01703e-09
2.3962e-09
-3.60105e-09
1.81497e-09
4.90495e-09
9.80391e-09
-9.89766e-09
-8.20021e-09
9.87661e-09
-7.70782e-09
-9.24825e-11
5.28309e-09
-1.22443e-08
1.25764e-08
-3.32151e-10
5.44779e-09
-1.32768e-09
6.22878e-09
-5.62797e-09
4.84697e-09
6.36454e-09
-4.51996e-09
-6.30673e-09
6.65914e-09
-3.36842e-09
3.73462e-09
-3.67681e-09
5.96875e-09
-6.22823e-09
2.59483e-10
-1.38345e-10
5.68385e-10
-6.92665e-09
-2.21277e-10
-1.2023e-08
-6.30704e-09
5.06068e-09
-1.40702e-09
2.65338e-09
2.57617e-09
4.09707e-09
-3.3868e-09
6.05269e-09
-7.89963e-09
-8.70609e-09
-2.13384e-10
1.02441e-09
-1.83732e-09
-1.19313e-09
6.61556e-09
-1.03229e-08
6.90795e-09
-2.83896e-09
-8.65623e-09
3.74823e-09
-4.94605e-09
-3.97531e-09
5.17313e-09
3.568e-09
-5.95675e-09
5.99048e-09
-3.60173e-09
7.48137e-09
-1.42562e-09
2.97507e-09
2.47838e-09
5.92436e-09
-8.2583e-09
-8.28457e-09
9.44594e-09
-1.40608e-09
-1.17978e-10
1.05318e-09
-3.60785e-09
2.67265e-09
7.21992e-09
-3.17853e-10
-8.38505e-09
4.10382e-09
8.46392e-09
-4.75769e-09
-8.64113e-10
1.18197e-09
-7.33304e-09
7.42118e-09
7.08784e-09
-5.24725e-09
-5.79765e-09
2.62579e-09
1.52368e-10
-1.99878e-10
4.75102e-11
9.65654e-09
-6.75494e-09
6.90231e-09
6.78695e-10
2.90767e-09
-1.56933e-09
1.55402e-08
2.5974e-09
-1.19896e-08
-6.14799e-09
1.02844e-08
8.1886e-09
6.31637e-09
-6.15969e-09
9.94702e-10
-1.34209e-09
-1.23919e-08
-1.9844e-09
1.63574e-09
-1.37359e-09
-8.17115e-09
5.14629e-10
-1.63804e-10
7.82032e-09
-7.12093e-09
6.68709e-09
6.05125e-09
-3.37716e-09
-1.36126e-08
1.01942e-08
-7.86215e-09
8.26476e-09
-2.53975e-09
-7.08279e-09
-7.08134e-10
4.80953e-09
2.85558e-09
-3.60853e-09
2.54753e-09
-3.46878e-10
-2.7071e-10
2.70979e-10
4.7633e-09
-3.75681e-09
6.94228e-09
2.17826e-09
-1.07975e-08
6.10569e-11
8.55821e-09
1.04839e-10
3.49367e-09
2.7646e-10
-3.2653e-09
-5.04825e-10
5.80776e-11
-9.24411e-09
2.51049e-11