/*--------------------------------*- C++ -*----------------------------------*\
  =========                 |
  \\      /  F ield         | OpenFOAM: The Open Source CFD Toolbox
   \\    /   O peration     | Website:  https://openfoam.org
    \\  /    A nd           | Version:  8
     \\/     M anipulation  |
\*---------------------------------------------------------------------------*/
FoamFile
{
    version     2.0;
    format      ascii;
    class       surfaceScalarField;
    location    "2.2";
    object      phi;
}
// * * * * * * * * * * * * * * * * * * * * * * * * * * * * * * * * * * * * * //

dimensions      [0 3 -1 0 0 0 0];

internalField   nonuniform List<scalar> 
10659
(
-8.55905e-09
8.7861e-09
2.34267e-10
-4.61323e-10
4.32199e-10
-7.05447e-10
8.56597e-09
-8.29272e-09
8.42266e-09
-7.7706e-09
6.17177e-10
-1.26924e-09
-8.31717e-09
-3.81596e-10
1.39718e-10
-1.2102e-08
3.0573e-09
9.70283e-09
-6.58142e-10
-3.47536e-10
5.84964e-09
-6.28041e-09
7.78307e-10
1.136e-10
4.8693e-11
-8.25031e-11
-7.97903e-11
-1.52891e-09
-2.48124e-09
2.4239e-09
1.58625e-09
8.9101e-09
-8.76019e-09
6.79611e-11
-2.17874e-10
-2.45877e-09
2.12882e-09
-4.08043e-09
4.41038e-09
-9.18456e-09
-1.27427e-10
1.44417e-10
9.16757e-09
-4.17364e-10
6.44888e-09
-6.03151e-09
-8.55701e-09
8.83708e-09
2.43821e-10
-5.23886e-10
1.20772e-10
8.01656e-09
-2.67404e-10
-7.86992e-09
-6.55419e-11
3.07579e-10
8.66806e-09
-1.95834e-09
-3.80428e-09
3.30386e-09
-2.50362e-10
2.53542e-10
-3.17992e-12
-2.2186e-09
-5.87825e-09
4.29595e-09
3.8009e-09
-7.2175e-09
-3.32488e-10
9.431e-10
6.60689e-09
-8.47081e-09
-3.20961e-10
3.15834e-11
-5.92433e-09
6.25596e-09
-3.31627e-10
9.49001e-11
-1.22435e-10
1.41136e-10
5.104e-09
3.00328e-09
-7.48748e-09
-6.19804e-10
-1.55462e-10
7.34612e-09
-6.89373e-09
-4.52386e-10
-9.51186e-09
-2.70965e-10
6.86561e-10
9.09627e-09
-8.34815e-09
-3.52182e-10
1.4332e-10
9.03378e-09
1.49073e-10
-3.96753e-10
5.50003e-09
-2.56155e-09
-6.40773e-09
3.46924e-09
8.76217e-09
-8.63336e-09
3.32208e-11
-1.62032e-10
-9.20524e-09
9.53422e-09
5.25479e-10
-8.54461e-10
2.38431e-10
1.16989e-10
-2.25093e-10
-1.30327e-10
-7.60352e-09
6.48022e-09
2.76624e-09
-1.64294e-09
-1.07314e-08
2.48203e-09
8.57003e-09
-3.20703e-10
-9.51189e-09
-1.47987e-10
4.15732e-10
9.24415e-09
6.85481e-09
4.56688e-10
-7.11286e-09
-1.98639e-10
6.31926e-09
-5.65575e-09
-1.82509e-10
-4.81003e-10
7.40922e-09
-5.80492e-10
2.05064e-10
-7.03379e-09
-9.38913e-09
2.14915e-10
-1.49645e-10
9.32386e-09
8.7788e-11
7.66016e-09
9.12801e-10
-8.66075e-09
-7.78607e-09
1.05431e-09
8.5414e-09
-1.80964e-09
4.40074e-09
-1.03657e-09
2.9551e-09
9.00318e-09
2.92453e-10
-8.72973e-10
5.39103e-09
3.01324e-09
-3.73281e-09
-4.67146e-09
-2.66931e-09
2.58891e-09
9.34089e-09
-9.26049e-09
-3.12307e-10
-7.43834e-09
1.70424e-10
7.58023e-09
-4.70694e-11
-5.96703e-12
8.81521e-09
-8.83086e-09
3.06857e-10
-8.65123e-10
-1.64163e-09
-8.34623e-09
1.63117e-09
8.3567e-09
-7.69202e-09
5.64389e-09
-6.03085e-09
8.07898e-09
1.12371e-09
4.95021e-09
-5.30008e-09
-7.73833e-10
-8.57465e-09
-4.07981e-11
-1.79123e-11
-6.92096e-10
-8.99626e-09
1.76461e-10
-9.0467e-09
-3.71974e-11
-4.66321e-11
9.13053e-09
9.26289e-09
1.67252e-10
-5.93069e-10
8.14227e-10
-8.81005e-09
-3.45529e-10
8.34135e-09
-1.20868e-08
1.94416e-11
-5.41482e-10
1.26089e-08
-2.71855e-09
6.11924e-09
-1.05974e-08
7.19672e-09
8.46428e-09
-7.93139e-10
-7.96533e-09
2.94181e-10
-8.81914e-09
8.85556e-09
-3.0382e-09
3.00178e-09
-2.19329e-09
4.70411e-09
2.98922e-09
9.77448e-09
-1.86224e-09
7.72604e-10
-8.68484e-09
-8.24555e-09
-1.60236e-09
6.84158e-09
3.00633e-09
1.26725e-09
-2.36022e-09
2.25884e-09
-1.16588e-09
3.81098e-12
7.31523e-11
1.97145e-10
-2.74108e-10
-6.36191e-10
1.43649e-09
-5.69481e-09
4.89451e-09
-5.50141e-10
2.34237e-09
-3.75058e-09
-7.89034e-09
-1.17879e-09
9.06913e-09
-4.68323e-10
8.05295e-09
1.61748e-10
-7.74638e-09
-5.14781e-10
9.2916e-09
3.26048e-10
-9.10287e-09
8.96405e-09
8.03962e-11
-8.82953e-09
-8.35477e-09
-4.77338e-10
1.43653e-09
7.39557e-09
3.48169e-11
3.47219e-09
-1.1462e-10
-3.39239e-09
-2.78422e-09
-7.5154e-10
3.5e-09
3.5757e-11
4.49526e-09
-4.3982e-09
1.02664e-09
-8.1572e-09
-2.37215e-10
7.7273e-10
7.62168e-09
3.65802e-09
3.72345e-09
-1.81056e-09
-5.57091e-09
-5.46929e-10
-9.20826e-09
2.00297e-10
9.55489e-09
7.31674e-09
-1.52636e-09
1.22133e-09
-7.01171e-09
8.86054e-09
-1.4512e-09
-8.06234e-09
6.52994e-10
2.52302e-09
-9.81586e-10
2.8593e-09
6.06342e-09
-4.45736e-09
4.41851e-09
-6.02457e-09
-4.39834e-09
5.27356e-09
-4.92493e-09
4.04971e-09
-7.37898e-09
3.89598e-10
-2.28117e-10
1.09288e-08
5.06578e-10
-3.1663e-09
-8.26904e-09
-5.11823e-10
8.43827e-09
1.9595e-10
-8.1224e-09
-1.2498e-09
4.6173e-09
-3.3675e-09
2.45322e-09
-7.02726e-10
8.55303e-10
-2.6058e-09
1.09172e-08
-3.66536e-09
-8.12758e-09
8.75755e-10
-5.13294e-09
-1.33406e-10
-3.89406e-10
-4.92416e-09
4.56031e-09
2.00802e-09
-1.64417e-09
4.85663e-10
-1.80121e-09
7.87091e-09
-6.55536e-09
-8.12458e-09
1.43567e-09
-5.97935e-10
7.28684e-09
-8.4048e-09
-3.93025e-11
3.93415e-10
8.05069e-09
2.40793e-09
8.59683e-09
-5.29258e-09
-5.71218e-09
-3.98254e-09
3.96489e-09
1.95271e-09
-1.93506e-09
-8.74097e-09
-7.58457e-10
1.78827e-09
7.71116e-09
5.40186e-09
4.22779e-09
-6.07513e-09
-3.55452e-09
-4.53443e-09
1.11529e-08
2.99188e-09
-9.61032e-09
6.78075e-09
-2.40086e-09
-7.86897e-09
3.48908e-09
-6.48148e-09
6.64806e-09
-1.66584e-10
7.5574e-09
-1.72801e-10
-9.10094e-11
-7.29359e-09
1.92307e-09
-5.59147e-09
4.9245e-09
-1.25611e-09
-3.88915e-09
-2.15961e-09
2.06621e-09
-9.18847e-09
2.55003e-10
-1.79789e-09
2.17085e-10
3.65292e-10
8.24188e-09
-8.82426e-09
-5.12105e-09
-6.94191e-09
3.58466e-09
8.4783e-09
-3.24081e-10
-5.28766e-09
1.12122e-08
-5.6005e-09
-2.71066e-09
-6.02803e-10
7.97823e-10
2.51564e-09
-1.51222e-10
-2.99208e-10
2.35901e-10
2.14528e-10
3.33915e-09
-2.90711e-09
2.78847e-09
-3.22052e-09
3.12307e-09
1.25973e-10
-3.04088e-09
-2.08165e-10
7.58923e-09
-8.49155e-09
1.2576e-09
-3.55272e-10
7.72056e-09
5.63534e-11
-2.52899e-10
-7.52402e-09
-8.95112e-09
-6.5011e-10
1.83373e-09
7.7675e-09
-1.24908e-09
7.22588e-09
-7.55014e-09
1.57334e-09
1.12622e-08
-2.24949e-10
-6.76946e-09
-4.26777e-09
7.98892e-09
-2.12218e-10
-1.87476e-10
-1.0062e-10
3.70658e-10
8.47953e-09
-8.74957e-09
-3.2632e-09
3.16123e-09
-8.71717e-09
-5.32003e-10
-8.82708e-09
2.2192e-10
9.13716e-09
6.70715e-09
-7.63914e-09
-7.22059e-09
8.15258e-09
-6.11746e-09
2.55137e-09
6.52993e-09
-2.96384e-09
4.06482e-10
-4.68726e-10
4.94824e-09
-8.9187e-11
1.17642e-09
-6.03548e-09
4.33976e-09
2.85659e-10
-3.89352e-09
-7.319e-10
-6.80183e-09
6.9226e-09
1.21316e-10
-9.63748e-09
-1.02445e-09
1.05406e-08
3.67777e-09
2.396e-09
-2.73462e-09
8.49941e-09
-8.19871e-09
-4.95048e-10
1.94354e-10
-6.6071e-10
-8.82396e-09
8.96989e-09
-1.55547e-09
-2.42112e-10
6.73909e-09
-4.94151e-09
-6.81041e-09
5.94515e-09
9.09728e-10
-4.44724e-11
-2.07714e-10
-7.49519e-09
9.35154e-11
7.60939e-09
-4.26367e-10
1.50812e-10
-8.55531e-09
-2.6967e-09
2.8922e-09
-1.95499e-10
8.72747e-09
-2.62541e-11
2.51479e-10
-8.9527e-09
-3.22768e-09
3.21566e-09
4.68373e-11
-1.81902e-09
-3.43243e-09
3.17483e-09
2.07662e-09
-8.15825e-09
-1.31248e-10
7.88267e-09
4.06827e-10
-2.38771e-09
-4.01287e-09
3.49347e-09
-7.68563e-10
8.40144e-10
-7.15812e-11
-8.81232e-09
1.27214e-09
-8.14599e-10
6.47316e-09
6.13608e-10
-2.04749e-09
-5.03928e-09
4.8181e-12
-8.88839e-11
1.92532e-10
-1.08466e-10
7.48912e-09
3.70343e-09
-9.87943e-09
-1.31312e-09
-2.69998e-09
1.89172e-10
-1.10571e-08
-1.28298e-09
2.22635e-09
6.54575e-09
-7.50911e-09
2.42581e-09
-4.00876e-09
9.09206e-09
-4.11814e-09
4.28258e-09
5.23741e-09
-1.47911e-10
1.95912e-10
-1.55878e-11
-3.24129e-11
-3.62288e-10
4.59306e-10
-2.20517e-09
2.10815e-09
-1.8207e-10
-6.29941e-09
-1.28008e-09
1.39353e-09
-1.13455e-10
2.194e-09
5.4034e-09
-5.66065e-09
-1.93676e-09
3.37356e-11
3.43564e-10
-6.67301e-11
-3.1057e-10
-8.52264e-11
5.73536e-11
1.98241e-09
-1.95453e-09
-1.06538e-09
5.91954e-09
2.94752e-09
-7.80167e-09
-1.3869e-09
5.0397e-09
-6.2985e-09
2.6457e-09
-7.98969e-09
5.64857e-10
8.88041e-09
-1.45557e-09
-7.04662e-09
6.87325e-09
2.85334e-10
-1.11965e-10
7.84217e-09
-2.14774e-09
2.52152e-10
-5.94658e-09
-2.06112e-09
1.67002e-09
6.86427e-09
7.68581e-10
-5.05303e-09
-7.38827e-10
5.02328e-09
-2.35325e-09
2.09159e-09
3.94188e-09
4.33724e-09
-4.87085e-09
-3.40826e-09
3.92521e-10
5.54604e-12
-9.4502e-13
-3.97122e-10
-1.51982e-09
3.74065e-10
1.09202e-08
-8.8985e-09
8.38781e-11
-1.29911e-09
1.01137e-08
9.98374e-09
-3.39766e-09
1.65545e-09
-8.24153e-09
1.96048e-09
-1.01597e-09
-9.78494e-09
8.84043e-09
8.87961e-09
9.4954e-10
-3.70592e-10
-9.45856e-09
7.21765e-11
-2.73126e-10
-6.60946e-09
2.54604e-10
-1.67395e-10
-8.79947e-09
8.55479e-10
-7.96982e-10
-3.71065e-10
-6.80518e-10
-9.59768e-09
1.06493e-08
-1.5558e-09
-8.49522e-09
2.08016e-09
7.97085e-09
1.01648e-10
-1.09599e-09
1.19949e-09
-2.05152e-10
-1.97267e-09
-8.16819e-09
2.32268e-09
7.81818e-09
-7.98049e-10
-8.42058e-09
1.70417e-09
7.51446e-09
-9.22112e-09
-9.52485e-10
9.4605e-09
7.13105e-10
2.51464e-09
-1.67832e-09
1.22089e-09
-2.05721e-09
-6.28323e-10
-8.31942e-09
1.39662e-09
7.55112e-09
1.88674e-11
2.76377e-11
7.36272e-09
-2.57353e-10
3.00925e-10
-4.35729e-11
5.26704e-10
-7.81048e-09
7.80093e-09
-5.17156e-10
6.95733e-09
5.61688e-10
-2.84554e-10
-7.23446e-09
2.82421e-10
-9.91402e-09
-2.47039e-09
-1.55819e-09
-1.354e-10
1.57041e-09
1.23181e-10
4.18262e-09
-1.16211e-09
-4.83953e-09
4.27316e-10
5.6361e-09
6.37078e-09
-5.84408e-09
8.74097e-09
3.73307e-09
-1.21186e-09
7.55317e-10
2.11852e-10
-7.64525e-10
-2.02644e-10
-8.24582e-10
3.56867e-09
-3.4676e-09
7.23518e-10
-9.44427e-09
1.09317e-09
-6.00024e-10
8.47724e-09
1.12467e-09
-8.78768e-09
5.09625e-10
-4.61015e-10
-1.55559e-10
1.06949e-10
5.22218e-09
-2.51958e-09
-4.54657e-09
1.84396e-09
3.5454e-10
-2.07449e-10
-8.72174e-09
-2.45486e-09
2.16322e-09
8.16087e-10
-5.24447e-10
-1.92255e-09
-6.26082e-10
-6.08301e-09
8.63165e-09
-4.38052e-11
-4.1624e-10
4.60045e-10
-2.42767e-09
2.2163e-09
-7.8297e-09
6.81317e-09
-6.2954e-09
7.31193e-09
-1.15699e-09
9.36949e-09
1.86377e-09
3.18292e-10
-8.17343e-10
-3.44834e-10
8.43886e-10
-5.14208e-10
-2.7455e-09
8.04842e-10
-6.60032e-09
-1.10346e-09
7.65447e-09
4.93013e-11
2.98367e-09
-9.08043e-09
1.01274e-08
-4.03066e-09
-3.33124e-09
-6.62784e-09
3.91283e-11
9.91995e-09
-5.12896e-10
-2.36014e-09
2.65498e-09
2.18063e-10
-4.35713e-10
2.64258e-10
1.0098e-08
-1.94225e-09
1.37848e-09
-1.46488e-09
4.81602e-10
-6.78732e-09
-1.62744e-10
-8.05806e-09
6.25484e-11
-2.09299e-10
7.60944e-09
-8.14721e-11
-7.31866e-09
-2.99886e-10
1.18508e-10
9.81799e-10
-9.64987e-09
-7.16499e-10
9.38457e-09
8.78418e-11
4.13498e-10
-3.67771e-10
-1.33569e-10
2.81811e-09
-3.03558e-09
-6.20183e-09
6.4193e-09
8.12881e-11
-6.97317e-11
-1.56974e-09
5.89585e-09
7.66973e-09
-9.29542e-09
-4.27016e-09
-2.44062e-10
-4.90406e-12
2.28469e-09
-8.50678e-09
-1.28938e-10
6.35103e-09
-8.624e-09
8.69706e-09
2.98424e-09
-1.06945e-10
1.0885e-10
7.55549e-09
2.42829e-09
-2.11179e-09
-8.2425e-09
7.926e-09
-1.06827e-11
-7.19604e-11
-3.41648e-10
-1.97773e-09
2.15341e-09
1.65963e-10
4.06198e-10
-6.83582e-09
6.42962e-09
3.90203e-09
-7.34347e-10
-6.53993e-09
3.37225e-09
-2.31596e-10
4.93783e-11
-3.35393e-09
1.29132e-09
-1.40259e-09
3.46519e-09
3.96189e-10
-6.16996e-09
5.77377e-09
-8.05084e-09
5.30967e-09
-2.62749e-09
5.36867e-09
-4.92611e-10
7.64808e-10
1.89103e-09
-1.91412e-10
2.17696e-09
-2.07077e-09
-2.74323e-10
-1.68391e-09
1.8204e-09
1.37841e-10
7.71954e-11
-8.43401e-09
8.6689e-12
5.64146e-10
-1.75714e-10
1.21193e-10
-1.57289e-09
2.12573e-09
-7.73084e-09
7.178e-09
1.36737e-08
-1.20659e-08
1.60623e-09
-3.214e-09
3.05438e-09
6.5258e-09
-6.42045e-09
-3.15974e-09
-2.36818e-10
1.54773e-09
1.20154e-10
-1.43107e-09
2.62772e-09
-6.31992e-09
6.5103e-09
-5.30134e-09
5.36616e-09
4.09915e-09
-4.16398e-09
-4.61187e-09
2.25474e-09
5.70903e-09
-3.3519e-09
-6.7859e-09
-2.59016e-09
6.69325e-09
2.6828e-09
-8.00102e-10
2.15292e-09
1.16183e-09
-3.82542e-10
4.26579e-10
7.95604e-09
5.98671e-09
-5.89455e-09
-8.0482e-09
-8.43404e-09
8.57813e-09
1.78697e-10
-3.22794e-10
-5.82755e-09
5.06265e-09
9.91164e-10
-2.2626e-10
-6.66904e-09
-2.96313e-10
6.47561e-10
6.31779e-09
1.11428e-10
-7.6752e-09
7.99572e-09
-4.31954e-10
-9.16994e-09
4.08969e-09
-3.47315e-09
8.5534e-09
-8.77473e-09
-7.06249e-10
1.32378e-09
5.2349e-10
-8.83985e-09
-1.54456e-10
5.67014e-09
2.43871e-10
-1.57426e-09
1.39309e-08
-1.0322e-08
-8.14334e-09
-2.03927e-11
-8.3882e-09
9.14239e-11
7.05729e-09
-6.62509e-09
4.17056e-09
-5.26245e-09
6.2898e-09
-5.19791e-09
1.06405e-10
-1.51503e-09
1.48992e-09
4.79971e-09
-9.48759e-10
-6.74326e-09
2.89231e-09
-1.29147e-09
1.33393e-09
-8.7154e-09
8.67294e-09
1.13144e-08
-1.40725e-09
-9.49807e-09
-4.09072e-10
-1.80741e-09
4.54603e-11
1.81931e-09
1.41091e-10
-6.35255e-10
-6.65119e-11
5.60676e-10
7.46918e-10
-3.23102e-10
2.78647e-10
-7.02464e-10
7.9442e-09
-2.50087e-09
-6.90821e-09
7.49073e-10
-1.02785e-10
1.09029e-10
5.57108e-09
-9.35962e-10
-6.27678e-09
1.64167e-09
4.56777e-09
-8.82092e-09
9.96316e-09
-5.71001e-09
2.69463e-10
-1.2381e-09
-2.48849e-10
1.21748e-09
-1.98275e-09
2.61561e-09
-2.44325e-09
1.81039e-09
7.95734e-09
-7.72622e-09
2.01671e-10
-4.32782e-10
-3.08716e-11
8.73395e-09
4.81523e-11
-8.75123e-09
-8.93163e-09
8.66251e-09
-1.02235e-09
-3.40343e-10
3.74079e-10
-1.82605e-10
9.09132e-10
-9.30318e-10
2.03791e-10
-7.73881e-10
-3.55373e-10
9.16052e-10
2.13201e-10
6.21496e-09
-3.07389e-09
-4.7269e-09
1.58583e-09
-7.81694e-09
7.68951e-09
3.46689e-09
-3.02199e-09
-1.31127e-09
8.66373e-10
2.89225e-09
5.50786e-09
-4.81467e-09
-3.58543e-09
-8.31807e-10
1.43004e-11
-1.96671e-09
-9.00528e-09
1.08305e-09
-1.74975e-09
9.67197e-09
-3.20078e-10
8.32933e-09
-1.50036e-10
-7.85921e-09
-7.31372e-09
2.7017e-09
7.60395e-09
-2.99192e-09
-7.46378e-09
-1.85427e-09
2.53216e-09
2.55789e-09
-2.22023e-09
-4.73599e-09
-7.05263e-09
-9.54627e-11
7.1481e-09
-7.4134e-09
7.34786e-09
2.90655e-09
1.17156e-08
-6.39497e-09
-8.22718e-09
7.27456e-09
-7.39658e-10
-7.81788e-09
-1.30025e-10
7.16755e-10
-3.29739e-09
-5.65533e-09
6.48991e-09
-8.41385e-10
6.80448e-12
1.75774e-09
-5.10776e-09
-4.72504e-09
8.07506e-09
-1.77853e-10
8.57926e-09
9.6008e-11
-8.49741e-09
1.84699e-09
-2.5256e-10
-2.08704e-09
-8.29676e-09
8.68325e-09
-7.6808e-10
-6.24512e-09
5.64209e-09
5.87659e-09
4.75387e-09
1.19507e-09
-6.10662e-09
1.57683e-10
-7.21728e-10
-7.70151e-09
7.61951e-09
8.03728e-10
2.19315e-10
-8.46272e-09
9.2252e-09
1.01634e-09
-1.14774e-09
-3.70561e-10
5.01959e-10
8.39433e-09
-5.95139e-10
2.16858e-10
-8.01605e-09
-4.75822e-10
-7.60254e-09
7.65453e-09
4.23839e-10
-7.82711e-09
7.55614e-09
-3.60473e-09
-6.1997e-09
6.76885e-09
-4.79926e-09
-4.14279e-09
4.82392e-09
1.31344e-09
8.91151e-09
-1.84953e-09
-8.37542e-09
7.0669e-09
3.1389e-10
-7.72337e-09
3.42579e-10
1.10189e-09
8.12971e-09
-7.54368e-10
3.81914e-09
-7.21413e-10
-8.88458e-09
5.78685e-09
-9.06494e-09
-8.16897e-10
-1.17437e-08
-6.00662e-09
9.92066e-09
-7.80283e-11
-6.90535e-10
7.93685e-11
-1.83981e-10
7.87882e-09
-8.02681e-09
-4.99329e-11
9.67439e-09
-1.12505e-09
-3.10701e-09
3.64652e-10
3.28846e-09
-5.46101e-10
8.10293e-09
3.61592e-10
-7.9743e-09
-4.90221e-10
-1.78052e-10
8.68201e-09
-9.10051e-09
5.96561e-10
2.25732e-09
1.02929e-08
-2.88629e-09
-9.66393e-09
-2.80358e-09
5.01082e-10
1.06279e-08
-8.32542e-09
3.48032e-09
2.89015e-09
-3.84745e-09
7.85225e-09
-7.70318e-09
-2.42203e-10
-9.78572e-09
8.10537e-09
1.05925e-10
3.6381e-10
-1.39108e-10
-3.30628e-10
-1.63485e-10
2.10651e-10
-3.34712e-10
2.87547e-10
-5.58529e-09
-2.52425e-09
5.92803e-09
2.18152e-09
8.64199e-09
-8.11651e-09
-7.42709e-09
7.38002e-09
-6.59114e-10
-1.725e-10
7.53585e-10
-6.39612e-09
1.02079e-08
-4.13274e-09
6.23188e-10
-6.11779e-11
-5.6201e-10
8.89382e-10
-9.9237e-09
3.95347e-10
8.63897e-09
-1.15943e-09
-8.87611e-09
1.32589e-09
8.70965e-09
-8.18377e-10
7.26696e-10
-2.64161e-10
3.55842e-10
-8.35083e-09
3.20243e-09
-1.76599e-09
6.91439e-09
-6.37753e-09
6.48896e-09
-7.42512e-09
-3.69772e-10
7.61282e-09
8.8096e-10
-5.25459e-10
8.48094e-09
-8.83644e-09
-8.54146e-09
1.29784e-09
2.50492e-09
-2.25393e-09
-4.42405e-10
-6.90326e-09
-1.38021e-10
6.6889e-09
3.52384e-10
1.02465e-08
-8.34086e-09
-1.49943e-09
-1.17711e-09
-1.0297e-10
-6.39865e-09
-2.81928e-09
6.8102e-09
2.40773e-09
1.00994e-09
-7.85386e-09
7.38367e-09
-5.39752e-10
1.12703e-08
-9.46874e-09
-1.89856e-09
9.70308e-11
5.66376e-10
-6.37097e-10
-7.91897e-09
-1.49208e-10
-2.72761e-10
2.58484e-10
-7.40598e-09
7.69843e-09
-7.45133e-10
-7.53596e-09
7.37065e-09
9.10441e-10
6.83159e-09
-5.72952e-09
2.6189e-09
-3.72097e-09
-2.08147e-09
3.08322e-09
7.73921e-09
8.23939e-09
-8.3597e-09
1.61519e-10
-4.12125e-11
-8.22934e-09
8.67488e-09
-7.97715e-10
4.23926e-10
7.14214e-09
3.93764e-10
-7.95983e-09
-7.55935e-09
7.52215e-09
-3.9266e-10
-7.08265e-09
7.47531e-09
-9.11981e-09
-1.25252e-09
9.66688e-09
7.05453e-10
-1.43651e-09
-7.56762e-09
1.69041e-09
3.3147e-09
-1.74463e-09
-2.57281e-09
1.00274e-09
5.62576e-09
6.85008e-09
-5.64425e-09
-9.78324e-09
9.27303e-09
-1.93655e-10
7.03865e-10
7.347e-09
-7.52505e-09
9.351e-09
-5.99439e-09
-6.69938e-09
3.34278e-09
-5.44651e-10
2.84807e-09
8.96684e-09
-8.6828e-13
-1.24803e-11
4.0587e-10
5.64017e-09
-7.43633e-09
2.99652e-10
7.65558e-10
-2.15656e-10
1.2834e-10
-6.86565e-10
8.87589e-09
-9.01301e-09
2.69247e-10
-1.32126e-10
-1.52583e-10
4.05858e-10
3.21892e-09
2.27109e-09
-2.21197e-09
-6.17658e-09
-8.55531e-09
1.75642e-10
8.45137e-09
-7.16984e-11
-6.16372e-09
6.05677e-09
-3.94266e-09
6.97052e-09
-4.46025e-09
1.43239e-09
-2.22213e-09
7.6422e-09
2.16524e-09
-7.58531e-09
6.37156e-09
4.50606e-09
-2.92158e-09
-7.13552e-11
-7.22124e-09
7.2926e-09
-8.60988e-09
-1.62232e-09
2.27221e-09
7.95998e-09
-1.00141e-08
8.66327e-09
-1.14314e-09
2.49398e-09
-7.66476e-09
7.83201e-09
-9.59397e-11
3.53049e-10
-2.50117e-10
-6.99195e-12
-6.58511e-09
-6.52494e-10
7.85121e-09
8.76619e-09
-8.59029e-09
-3.34418e-10
1.58526e-10
-1.94653e-09
-2.09157e-09
2.22468e-09
1.81343e-09
-9.19076e-09
8.54958e-10
-4.37292e-10
8.77309e-09
4.43468e-10
-1.78648e-10
8.61107e-09
8.56681e-10
8.81562e-09
-9.22883e-09
-9.34811e-09
1.39248e-09
-2.86166e-09
-1.10177e-09
1.27726e-09
2.68618e-09
-8.38377e-09
-1.15143e-09
9.14253e-09
-7.94002e-09
7.39537e-09
5.84551e-10
-8.96667e-09
-6.82819e-10
3.79227e-09
-5.5467e-09
-5.78678e-09
7.54121e-09
-1.44674e-09
6.03789e-09
-6.19293e-09
-2.1146e-09
2.46547e-09
5.84207e-09
-8.89205e-09
8.96909e-09
5.51236e-11
-1.32165e-10
-2.30758e-09
9.32451e-10
-7.09935e-10
2.08507e-09
-3.61396e-10
-1.38766e-09
1.51224e-09
1.82239e-09
-5.95025e-11
7.49231e-11
-1.83781e-09
4.73478e-11
-7.71772e-11
-2.1471e-10
2.4454e-10
-8.5368e-09
8.98809e-09
-4.92082e-10
1.28013e-09
-9.09199e-09
9.02399e-09
-1.21213e-09
-4.15516e-10
-1.64061e-09
1.7818e-09
7.70648e-09
-1.3632e-09
-8.42475e-09
-6.3132e-09
4.32044e-09
7.63665e-09
9.07429e-09
-9.19715e-09
1.60475e-10
-3.76161e-11
7.01995e-09
-7.1986e-09
-4.92702e-10
7.84299e-09
-7.35028e-09
-5.06912e-10
-1.92956e-09
2.09482e-09
6.73471e-11
-1.40216e-10
-5.86245e-10
2.08169e-09
-8.76013e-09
9.02073e-09
-2.34229e-09
8.93587e-09
-1.05123e-08
8.90002e-10
-1.60923e-10
1.78322e-09
2.05886e-10
-1.06903e-08
8.70124e-09
-7.11723e-09
1.86341e-09
-1.61343e-09
6.86725e-09
-4.96867e-09
3.94422e-09
4.92648e-09
8.31321e-10
5.98788e-09
-9.85087e-10
-5.83411e-09
-3.51122e-10
1.68968e-10
4.06069e-10
6.71473e-11
-4.6767e-10
-6.31282e-10
2.47762e-10
-7.96982e-10
-2.29289e-09
2.57698e-09
5.59922e-10
-1.68559e-10
8.68293e-09
9.06137e-10
8.80313e-09
-9.14934e-09
-8.53087e-09
6.3754e-10
-9.2495e-09
1.01641e-08
-1.46148e-09
1.97594e-09
5.3362e-09
-2.23327e-09
-5.07887e-09
-1.00935e-09
1.01446e-09
-1.87723e-10
1.64088e-09
-2.15815e-10
4.21931e-10
3.01037e-09
-6.40166e-09
2.26589e-11
7.33072e-09
-7.35338e-09
-7.537e-09
-3.30334e-10
1.41114e-10
-8.45746e-09
1.03846e-09
8.69912e-09
8.66899e-09
-8.71232e-09
1.11628e-10
-6.82962e-11
-7.48964e-09
7.57003e-09
-4.90414e-09
2.69116e-10
3.59846e-09
6.86837e-12
-7.23753e-09
7.23066e-09
9.10138e-10
-3.31558e-10
4.37761e-10
7.84622e-09
1.40876e-10
-2.66534e-10
5.36071e-10
-3.35845e-10
-1.83659e-10
-1.6566e-11
1.28467e-09
-1.45142e-09
1.4653e-09
-1.29855e-09
-1.0187e-08
-1.75719e-09
1.12193e-08
7.24827e-10
2.1453e-10
-1.13592e-10
8.56805e-09
2.93688e-09
-6.10852e-09
8.92289e-09
-5.75124e-09
-7.24064e-09
7.07208e-09
-1.89658e-10
7.06272e-09
-6.87306e-09
2.35393e-10
8.87374e-09
-8.8946e-09
-9.20304e-09
-5.83534e-12
3.09754e-09
-3.01817e-09
-3.15418e-10
-1.92623e-10
2.82947e-10
1.78293e-09
5.62161e-09
-7.39283e-09
-1.17069e-11
-8.789e-09
8.788e-09
-6.94688e-12
7.94924e-12
8.74265e-09
-8.66583e-09
-6.69141e-11
-9.89779e-12
6.58806e-09
-6.38639e-09
2.21102e-10
-3.95731e-10
8.02085e-09
-2.59246e-09
-7.32904e-09
7.66995e-09
2.25155e-09
-5.55678e-09
1.11701e-09
6.41571e-09
-7.13018e-09
-8.2023e-11
4.99008e-09
-7.01948e-09
-6.80737e-12
-2.03353e-11
-4.99779e-09
-4.46272e-09
3.31499e-09
6.14552e-09
-8.23972e-09
1.03214e-08
-8.11937e-09
-6.24628e-09
6.77445e-09
7.5912e-09
-7.5271e-09
-8.37323e-10
1.23425e-09
-7.06127e-09
6.94767e-09
-1.98872e-10
7.27825e-09
-7.07938e-09
-7.34463e-09
-1.12485e-09
1.35225e-09
3.03547e-09
-7.11961e-09
-1.08495e-08
3.63056e-09
6.63668e-09
-8.81217e-09
-1.45506e-09
5.35899e-10
-8.45443e-09
-9.79971e-10
-8.66879e-09
-1.05168e-09
-7.68129e-09
-5.73772e-10
7.50993e-09
-4.74471e-11
3.23903e-10
-3.59886e-10
8.34299e-11
-1.37756e-09
1.62164e-09
-2.59733e-09
-6.66766e-09
6.53641e-09
-6.75132e-09
8.35292e-09
-2.28024e-09
6.78635e-10
7.19427e-09
8.40594e-09
-7.06676e-09
-8.53346e-09
-7.1701e-09
4.05347e-11
7.12956e-09
-6.43578e-10
-7.53187e-09
7.45372e-09
-9.52827e-09
-6.53611e-10
9.02245e-09
7.45064e-10
-2.82082e-10
1.80429e-09
7.99212e-09
-9.79641e-09
9.48827e-09
-5.95047e-09
-3.9903e-09
4.52501e-10
-2.43437e-09
-6.37612e-09
3.50626e-09
5.30423e-09
-1.04924e-08
5.74738e-09
7.00231e-09
8.54252e-09
3.85259e-10
-8.76234e-09
-1.65444e-10
1.31134e-09
2.17888e-09
-1.35772e-09
-2.1325e-09
-1.94275e-09
4.46188e-09
-3.89012e-09
1.37098e-09
-4.24552e-10
2.99392e-11
3.47166e-10
2.37619e-10
6.50839e-10
-1.56215e-10
-7.32243e-10
-9.75563e-11
-2.3161e-10
2.4034e-10
8.88259e-11
-7.55584e-09
-5.07069e-10
7.58709e-09
-7.1734e-09
-9.96268e-10
6.73315e-09
1.86959e-10
-8.21448e-11
-7.69437e-09
7.58956e-09
3.46151e-10
-7.84973e-09
7.69054e-09
-3.9276e-10
2.00371e-09
-1.97323e-09
-1.98158e-10
-2.49854e-09
4.65241e-09
4.07966e-09
-4.66677e-09
-4.0653e-09
-7.30143e-09
5.4006e-11
7.24743e-09
1.90169e-09
-1.40601e-09
-9.2704e-09
-1.74754e-09
-7.53785e-09
1.29414e-09
7.99125e-09
6.67014e-09
-2.49749e-09
2.01669e-09
-6.18934e-09
4.47793e-09
-5.77701e-09
5.52686e-09
3.6161e-09
-1.0483e-09
2.93807e-09
-5.50587e-09
6.35947e-09
2.2675e-10
2.25906e-11
-2.01992e-10
-3.46256e-10
3.03486e-10
-8.4476e-11
1.27246e-10
9.68048e-11
-3.95786e-10
4.30269e-10
-1.31287e-10
2.60372e-11
-1.86218e-10
-1.91732e-11
1.79355e-10
2.00414e-09
-3.25394e-09
-6.38434e-09
6.27969e-09
1.04658e-10
-2.58314e-10
8.49835e-09
1.54296e-10
2.83462e-09
-3.67609e-09
4.52705e-09
-3.68557e-09
-6.09112e-09
3.22739e-10
6.25404e-09
-7.15581e-10
1.94769e-09
-2.03221e-09
-2.47684e-11
-9.20292e-09
8.65578e-09
5.71907e-10
-5.44656e-10
-3.92093e-09
-6.67358e-10
2.45108e-09
-7.61793e-11
-4.31099e-10
2.98005e-09
7.65747e-10
7.51438e-09
2.32164e-10
-3.16392e-10
-7.43015e-09
5.55109e-09
2.44609e-09
-2.66099e-09
1.27131e-09
-2.11578e-09
2.15582e-09
8.72462e-09
5.48168e-10
-8.64236e-09
-6.30437e-10
4.21613e-11
-8.11394e-11
3.41472e-10
-4.33893e-10
-7.51012e-09
9.54816e-09
1.6058e-09
-9.42716e-09
-1.7268e-09
8.97022e-09
-1.71558e-09
2.09101e-09
-9.34565e-09
-2.61859e-10
7.5767e-09
-7.31484e-09
1.09493e-08
-1.37909e-08
2.84164e-09
4.77751e-10
-3.72694e-10
-2.18234e-09
-8.84858e-09
8.44076e-09
-1.94262e-10
2.28048e-09
-2.08622e-09
7.23599e-09
-7.28592e-09
5.28511e-09
-3.87614e-09
-6.64661e-09
5.23764e-09
-1.76094e-10
-5.95939e-09
6.40986e-09
-2.74375e-10
5.09011e-10
5.03264e-09
-4.85486e-09
-6.86792e-10
8.11242e-09
5.57934e-09
-5.3218e-09
-8.36996e-09
1.67283e-10
-1.93336e-10
4.32965e-10
-4.06912e-10
-1.68953e-09
1.32532e-09
-1.26692e-09
1.63114e-09
4.12699e-09
-6.37328e-09
3.01693e-09
-7.70638e-10
7.01079e-09
1.76832e-09
-7.47636e-09
-1.30275e-09
3.42564e-09
-3.79701e-09
5.3568e-09
-4.98543e-09
-1.24516e-09
1.30484e-09
1.19737e-09
-1.25705e-09
-2.75585e-10
7.18025e-10
-8.02161e-09
7.57917e-09
8.98448e-09
6.47283e-09
-9.4706e-09
8.85689e-10
-1.42644e-10
8.13656e-09
1.98465e-10
-5.01551e-09
6.02083e-10
4.21496e-09
1.67263e-09
-1.31433e-09
-3.27333e-09
2.91503e-09
-4.18617e-09
-4.49304e-09
8.68729e-10
6.24637e-10
-9.63663e-09
1.00186e-08
-1.00665e-09
1.93608e-09
-2.3543e-09
-8.86271e-09
-4.34909e-10
8.9354e-11
1.28586e-10
-2.18936e-10
2.56696e-10
-1.66346e-10
-9.90105e-10
1.07546e-09
-8.53561e-11
4.52115e-10
1.1091e-11
-3.66401e-10
-1.17214e-09
8.13597e-09
1.1391e-09
4.40721e-09
-1.77176e-09
7.32986e-09
-9.96531e-09
8.81e-09
-4.66624e-09
4.84072e-09
-4.35087e-09
4.95221e-09
4.11363e-09
8.10861e-09
-3.41225e-09
1.72352e-09
8.6001e-09
-2.8622e-09
-7.46142e-09
8.81058e-09
-9.27872e-09
1.54273e-09
-1.07458e-09
-7.48449e-09
6.7699e-09
3.88508e-09
-3.17049e-09
-1.76495e-09
7.31872e-09
5.76061e-09
-2.46732e-11
4.53475e-11
-1.38575e-10
1.17901e-10
-4.28324e-10
3.67514e-10
4.53315e-09
-4.47234e-09
-1.24665e-09
1.57097e-09
-1.0399e-09
-1.46594e-10
1.92026e-09
-1.77366e-09
-5.66515e-10
-7.81893e-09
1.01667e-09
7.36877e-09
-1.45394e-10
-6.90724e-09
-5.89439e-09
7.53327e-09
-1.23276e-09
-9.67914e-09
1.67818e-09
9.23372e-09
-2.55355e-10
2.56458e-10
-9.86594e-11
4.07519e-10
1.1367e-08
-1.16338e-08
-1.40715e-10
-1.58014e-10
5.53717e-09
-3.94406e-09
-1.43509e-09
-6.46649e-09
-3.12428e-09
4.95748e-09
-8.32461e-09
6.49141e-09
5.17734e-10
-8.53923e-10
8.59204e-09
-8.25585e-09
-6.82522e-09
5.29435e-09
-3.51603e-10
1.23099e-10
-4.25661e-10
5.59305e-10
-1.28138e-09
7.32462e-11
4.91651e-10
-2.88261e-11
-9.45019e-09
2.81138e-09
9.54537e-09
4.64096e-09
-4.42733e-09
5.07148e-09
-1.21603e-10
1.6931e-09
-1.7069e-09
-3.93506e-09
8.88659e-11
4.38227e-10
-9.68234e-11
4.80799e-09
-2.73946e-09
-4.45623e-09
9.61129e-09
1.36489e-09
-2.1656e-09
6.93807e-11
-9.26827e-10
9.9826e-10
-1.40814e-10
-2.44453e-09
-3.89935e-09
4.18427e-09
-2.98044e-10
3.89805e-10
-8.11467e-09
2.49998e-09
7.05036e-09
3.63631e-09
-2.06147e-09
-6.69589e-09
-1.74527e-09
2.53448e-10
4.88837e-09
-3.39655e-09
-1.22135e-10
-1.51369e-09
1.63582e-09
-5.83074e-09
5.84961e-09
-7.93412e-09
2.0277e-09
-1.75444e-09
7.66086e-09
-7.11957e-09
-1.55681e-09
1.33174e-09
-9.50025e-09
-1.93216e-09
1.83768e-09
9.59473e-09
-2.69588e-10
1.26492e-10
-7.39391e-09
6.15051e-09
-2.91467e-10
-5.85904e-09
-2.76613e-10
-9.4547e-11
4.08986e-11
3.30262e-10
-1.12228e-09
1.03612e-09
-1.16727e-09
1.25343e-09
1.21502e-09
1.49409e-08
-6.71048e-09
-9.44541e-09
-7.22696e-09
-3.73668e-10
1.75514e-10
-3.24309e-09
6.89975e-09
6.44133e-09
5.64162e-10
-6.11144e-10
2.98769e-09
7.86767e-10
5.83683e-09
-1.75467e-09
5.23654e-09
-5.95513e-09
2.47327e-09
-2.00707e-10
-7.9805e-10
8.23136e-09
-8.24443e-09
8.11116e-10
8.57895e-09
9.22484e-10
-9.15962e-09
-3.41811e-10
-1.0238e-10
-8.59861e-09
1.45678e-10
-7.55407e-09
4.96769e-10
7.47269e-09
-4.15385e-10
3.04395e-09
-8.41037e-09
8.52765e-09
4.96932e-09
-2.86001e-09
-9.38389e-09
7.27459e-09
4.13159e-10
-1.51128e-10
1.01779e-10
6.52012e-10
3.12302e-10
-3.2024e-11
-1.32641e-10
9.99959e-09
5.362e-10
-1.27122e-09
-9.26458e-09
-3.17852e-09
7.29408e-09
-9.64134e-11
9.88317e-11
-7.22842e-11
6.98658e-11
-4.93965e-09
2.35044e-09
3.72557e-09
-1.13636e-09
-7.1787e-09
8.0033e-09
2.11228e-09
6.71582e-09
-3.31227e-09
3.15339e-09
-6.55694e-09
2.9877e-09
-5.54873e-09
-1.78621e-09
4.34724e-09
2.49332e-09
-5.16537e-09
1.15276e-08
9.64018e-09
-8.11901e-09
7.58626e-09
-5.37527e-09
4.35998e-09
-3.92436e-09
-1.84639e-12
-8.11287e-12
8.89717e-09
-8.88721e-09
7.35221e-11
-9.15443e-09
-3.32282e-10
9.41319e-09
5.58372e-09
-5.72308e-09
-1.40258e-09
1.54194e-09
9.09515e-10
6.88225e-11
-6.92054e-11
-2.88187e-09
2.43926e-09
5.78804e-10
-1.36197e-10
-5.33453e-09
2.53095e-09
-3.02081e-09
5.8244e-09
1.12448e-09
-1.07259e-09
1.22671e-09
-9.8629e-09
7.78881e-09
8.47377e-10
7.02917e-10
-6.72139e-09
-5.13407e-09
1.11526e-08
-5.93064e-09
-5.4215e-09
7.74741e-09
1.81468e-09
8.59291e-09
-9.13545e-09
-4.04856e-09
3.83883e-09
6.92555e-09
-1.09663e-08
1.13738e-08
3.29552e-09
4.79078e-09
-6.16323e-09
-9.20724e-10
-8.86266e-09
1.09386e-09
-1.50993e-09
-4.40806e-09
-4.8172e-09
3.03233e-09
4.44006e-11
-1.47088e-11
-1.42081e-09
1.39112e-09
-1.10137e-08
4.7335e-11
6.86922e-09
-2.731e-09
-6.18571e-09
-1.92856e-09
-6.44636e-09
-6.3117e-09
5.98785e-09
1.47762e-10
-1.8779e-09
-8.84759e-09
1.6335e-09
-4.65388e-09
6.24848e-09
4.62035e-09
-2.11712e-10
-4.50312e-10
4.68688e-10
-7.30452e-09
9.5994e-11
7.20852e-09
2.42148e-10
-7.94976e-11
8.56482e-09
-2.14098e-09
-9.88658e-10
-5.22119e-09
3.5782e-09
-8.18036e-09
-1.70489e-09
-7.84947e-09
2.09057e-09
3.30783e-09
4.77023e-09
5.78174e-10
2.13756e-10
-9.54411e-09
-7.37573e-10
1.46651e-09
8.81517e-09
-8.19237e-09
8.60765e-10
7.33161e-09
-4.72611e-09
4.8068e-09
-2.58737e-09
-5.92673e-09
2.50035e-09
6.01376e-09
-3.89486e-09
5.29236e-09
-7.16011e-10
1.0369e-08
-8.79755e-09
-4.94837e-09
5.31143e-09
-2.81622e-09
2.45316e-09
9.21079e-09
-1.05428e-09
-9.92146e-09
-1.21135e-09
1.41439e-09
-8.8327e-10
8.65117e-09
-7.7679e-09
-4.88081e-09
-3.40587e-09
7.6606e-09
-5.28248e-10
-8.56779e-09
2.68957e-10
1.00837e-08
-3.21068e-09
3.48524e-09
-1.03582e-08
9.28002e-09
2.45637e-10
-2.10706e-10
-1.12108e-10
3.93266e-09
-2.06794e-10
8.71366e-10
-4.59723e-09
-1.06622e-10
9.57039e-11
1.08541e-11
-4.36815e-09
-3.5945e-09
7.06283e-11
1.51533e-09
-1.54156e-09
-1.9722e-10
-1.00138e-09
1.09373e-09
-6.45042e-09
5.83727e-09
-9.68177e-10
1.58133e-09
1.11459e-09
-4.99997e-09
-2.66295e-10
4.15168e-09
-5.8301e-09
-3.51091e-09
7.15868e-09
-4.00642e-10
-8.32782e-11
-8.81268e-10
-8.29035e-09
8.37356e-09
6.40056e-09
-1.59247e-09
-5.33689e-10
1.09894e-09
-9.11255e-09
8.49801e-09
-4.84401e-10
8.01751e-09
-5.98793e-10
-7.7189e-09
3.00174e-10
-5.51803e-09
-2.88971e-09
6.9693e-09
1.43845e-09
3.49859e-09
9.21122e-09
-1.16166e-08
1.04514e-09
2.18246e-10
-1.14682e-09
-1.16567e-10
-8.41178e-09
-6.29359e-11
8.55859e-09
2.77e-10
-4.52243e-10
-5.66551e-09
4.20578e-09
7.25383e-10
-6.88256e-10
-6.20485e-09
7.10832e-09
-2.15212e-10