/*--------------------------------*- C++ -*----------------------------------*\
  =========                 |
  \\      /  F ield         | OpenFOAM: The Open Source CFD Toolbox
   \\    /   O peration     | Website:  https://openfoam.org
    \\  /    A nd           | Version:  7
     \\/     M anipulation  |
\*---------------------------------------------------------------------------*/
FoamFile
{
    version     2.0;
    format      ascii;
    class       volVectorField;
    location    "103.5";
    object      U;
}
// * * * * * * * * * * * * * * * * * * * * * * * * * * * * * * * * * * * * * //

dimensions      [0 1 -1 0 0 0 0];

internalField   nonuniform List<vector> 
591
(
(0.000837969 -3.07521e-06 1.21619e-18)
(0.000834387 -2.64179e-06 -6.61508e-19)
(0.000853124 2.15019e-05 5.69823e-20)
(0.000868131 -2.71492e-05 -1.49008e-19)
(0.000856515 -1.17322e-05 2.25429e-19)
(0.000803641 -3.81241e-05 -1.39567e-19)
(0.000561808 -0.000218555 8.06104e-19)
(0.000803638 4.24689e-06 2.1076e-18)
(0.00572219 0.00251088 9.87953e-19)
(0.000818042 1.38704e-06 2.44465e-18)
(4.56385e-05 0.000159163 1.21784e-18)
(0.000938979 0.00139671 9.40691e-21)
(0.000801414 4.31331e-06 1.32264e-18)
(0.00160451 0.00240493 -7.87361e-19)
(0.000803264 1.40041e-06 -4.46516e-19)
(4.10305e-05 -0.000143662 2.48778e-22)
(0.000141227 0.00066768 7.04762e-19)
(0.000817791 8.07835e-05 -4.96883e-19)
(0.0018959 0.000392183 4.7371e-19)
(0.00135905 0.000258077 -2.47074e-19)
(0.000830952 -8.9611e-06 3.73072e-19)
(0.00340067 0.00656005 -8.14408e-20)
(2.2623e-05 6.27651e-05 2.7085e-19)
(0.00083587 -2.59282e-05 -4.51522e-19)
(5.65849e-06 -1.05405e-05 3.58779e-19)
(0.000794279 4.51074e-05 0)
(9.48778e-05 0.000465796 1.59923e-19)
(0.000578561 -3.16316e-06 -1.78765e-19)
(0.00076771 4.78162e-05 1.14903e-18)
(0.00080575 7.23102e-05 5.84108e-19)
(4.77678e-05 -5.84447e-06 -5.36994e-24)
(1.99449e-05 -3.77661e-05 3.52038e-19)
(2.69015e-05 -2.48034e-06 -4.64042e-20)
(3.63844e-05 -1.22566e-05 0)
(4.47968e-05 -1.2817e-05 1.13101e-18)
(0.00116964 0.000141247 1.79819e-19)
(2.25199e-05 -4.01557e-06 4.46972e-20)
(0.000823836 4.92786e-07 3.10968e-23)
(2.24878e-05 3.7488e-05 2.65929e-19)
(-9.55208e-06 -5.54351e-05 -8.5293e-19)
(0.000661194 -0.000186422 9.58659e-19)
(1.72833e-05 -4.67075e-06 4.54648e-20)
(0.000815703 2.13283e-05 -1.57703e-18)
(0.000831907 5.08595e-05 -6.90718e-19)
(1.10196e-05 -5.17834e-06 0)
(4.68483e-05 3.35681e-06 8.51547e-20)
(0.00134989 0.00450299 8.92773e-19)
(6.65131e-05 9.36038e-06 8.63301e-20)
(0.000802717 1.69408e-05 0)
(0.000395815 -0.000233005 6.76896e-19)
(0.000391412 0.000264956 5.11751e-21)
(0.000406104 2.92069e-05 -1.0034e-18)
(0.00634757 0.0109402 -7.68647e-19)
(0.00622446 0.0107953 1.52875e-20)
(0.00561458 0.0103781 1.45588e-18)
(0.000805152 5.00917e-05 0)
(5.99084e-05 2.41877e-05 0)
(0.000321186 -1.12238e-05 2.85087e-23)
(5.44381e-05 5.90377e-06 -3.46328e-19)
(0.000812037 -6.75462e-06 0)
(0.000667704 2.81524e-05 3.17433e-19)
(0.000847566 2.9974e-05 2.20777e-18)
(0.000812572 4.00438e-05 -5.36971e-19)
(0.000800057 1.12958e-05 -3.1564e-19)
(0.0017136 0.000486627 5.42405e-19)
(0.000812564 3.41876e-05 -1.14444e-18)
(0.000840086 3.83795e-05 -5.23815e-19)
(6.82405e-05 -8.21626e-06 -1.73345e-19)
(0.00069096 0.00225686 0)
(0.000846192 5.0472e-05 0)
(0.000794512 2.9224e-05 -1.39223e-18)
(3.265e-05 1.27006e-05 0)
(0.000293937 0.000261553 3.26744e-19)
(3.07178e-05 -1.49841e-05 0)
(3.29129e-05 -5.43312e-06 1.59412e-19)
(4.66985e-06 -3.26032e-05 -3.36533e-20)
(0.000805285 7.93279e-05 2.46928e-19)
(3.78265e-05 7.77465e-06 0)
(0.000814072 5.56975e-05 4.47377e-19)
(0.000783232 0.000296412 2.10651e-19)
(0.000960077 6.94485e-05 -3.97593e-20)
(3.72998e-05 1.85989e-05 -4.51691e-20)
(3.1052e-06 -9.96261e-06 0)
(0.000444761 0.000209573 1.70128e-19)
(2.63419e-06 1.52994e-05 0)
(0.000807768 4.96023e-05 -6.07816e-19)
(0.000653524 -0.000113668 0)
(5.47682e-05 -5.37354e-06 -1.74413e-19)
(7.07289e-07 -1.42739e-05 0)
(0.000837769 0.00024317 -3.41128e-19)
(1.75097e-06 -5.37136e-06 0)
(0.00043442 0.000318514 -1.35488e-23)
(0.00054811 0.000106632 0)
(0.000817498 4.47274e-05 -3.12603e-24)
(2.07963e-06 8.97833e-06 -4.21553e-20)
(0.000477363 -3.14998e-05 1.76281e-18)
(0.00101707 7.42241e-05 4.15758e-20)
(0.000777339 4.77604e-05 6.41613e-22)
(0.000749217 0.000660247 2.6941e-19)
(6.87522e-06 3.71588e-05 0)
(-7.83399e-06 -1.37651e-05 -3.12191e-19)
(-3.74424e-05 -4.94946e-06 -1.1015e-18)
(5.17167e-06 6.22119e-05 -5.96148e-19)
(0.000590206 -3.02849e-05 0)
(9.29234e-06 8.52709e-05 0)
(0.000822033 3.60295e-05 2.18097e-18)
(0.000803149 3.96126e-05 1.53372e-18)
(0.000456228 -0.000118617 0)
(3.85741e-05 0.000205164 -8.95037e-19)
(1.51854e-06 0.000147935 4.96774e-19)
(5.53374e-05 0.000386881 6.25077e-19)
(0.000312687 6.19e-05 -9.36876e-19)
(0.0008018 1.99269e-05 1.37366e-19)
(0.000255879 -7.76938e-05 5.31014e-19)
(4.15287e-06 2.318e-05 0)
(1.84589e-05 0.000265596 -1.09387e-18)
(0.000327382 0.000317035 -1.61654e-19)
(-1.8838e-06 -8.81435e-06 1.46498e-19)
(0.000670462 0.000803583 0)
(0.000376093 0.000379247 5.74235e-20)
(0.000827421 3.16524e-05 1.07023e-18)
(0.000799742 1.77685e-06 -2.72514e-18)
(6.67697e-06 1.75864e-05 0)
(0.000658203 -4.25908e-05 -1.12267e-19)
(0.000324774 -0.000156869 1.2427e-18)
(0.00261692 0.000810422 -3.36507e-19)
(8.52961e-06 0.000114251 -6.1308e-19)
(9.17393e-06 0.000142315 1.61942e-18)
(0.000649187 2.6084e-05 -3.89651e-20)
(5.20054e-05 -1.69228e-05 -7.49875e-19)
(0.000813054 4.07504e-05 -3.90312e-19)
(0.000700399 2.79761e-05 -4.10448e-20)
(3.10091e-05 0.000312892 -5.97012e-19)
(0.00050798 4.87602e-05 -4.93754e-19)
(3.97007e-05 -4.57072e-06 1.56091e-19)
(0.00084353 4.35176e-05 -1.08615e-18)
(0.00152862 0.000235543 -1.13639e-18)
(5.32574e-06 4.99319e-05 4.96246e-19)
(0.000814059 3.80077e-05 -5.03324e-19)
(0.000926364 0.000556706 -7.84828e-20)
(0.000150324 0.000777344 0)
(0.000606157 6.15056e-05 0)
(0.000278967 3.66762e-05 -1.60891e-18)
(5.78007e-05 5.06177e-05 -1.37359e-18)
(2.61404e-05 1.67969e-05 0)
(0.00424788 0.00740116 -1.01969e-20)
(0.00422595 0.00737271 3.16676e-20)
(0.00442812 0.00757543 -4.9892e-21)
(0.00420536 0.00773335 0)
(0.00419781 0.0075992 5.77263e-19)
(0.00424482 0.0074022 -9.20416e-20)
(0.00420916 0.00804072 4.84508e-19)
(0.00429058 0.00742369 0)
(0.00420764 0.00853343 6.16817e-19)
(0.00432713 0.00745236 2.23956e-19)
(0.000837929 2.52241e-05 -1.37189e-18)
(0.000787234 6.35139e-05 0)
(0.000209698 3.45134e-05 1.27658e-19)
(4.33266e-05 1.15317e-05 8.71515e-20)
(7.11598e-05 3.6189e-05 6.79769e-19)
(9.73318e-05 3.02961e-05 -3.41543e-19)
(8.84522e-05 -3.89319e-06 0)
(4.02221e-05 2.34378e-06 8.18056e-20)
(0.000208289 0.000117465 0)
(0.000158573 2.43191e-05 -5.24141e-20)
(0.000349424 0.000212358 -5.09095e-21)
(5.0064e-05 3.60458e-05 -4.37491e-19)
(8.19945e-05 1.78861e-05 -8.52154e-20)
(8.41458e-05 5.19187e-05 1.31147e-21)
(0.00026317 0.000357793 -6.65975e-19)
(0.000110913 0.000989743 0)
(3.76602e-05 4.56843e-05 3.42935e-19)
(0.000200005 0.00173841 0)
(0.000209278 0.000243429 7.04441e-19)
(2.89289e-05 -2.82138e-06 1.11452e-19)
(0.000496977 0.000158016 -1.72244e-19)
(0.000780023 3.01128e-05 -1.92346e-18)
(3.48168e-05 -1.86565e-06 4.93062e-24)
(0.000138059 1.00926e-05 2.24511e-19)
(0.00024715 7.60054e-05 -8.99014e-20)
(0.000883925 0.000694487 3.3484e-19)
(0.00072626 0.0016347 -9.23316e-21)
(0.000394711 0.00141756 -9.37965e-21)
(0.00103249 0.000549123 0)
(8.7027e-05 -2.2435e-05 1.1183e-18)
(0.000104569 2.47233e-06 -4.42801e-20)
(0.000476218 -0.000264182 -1.13604e-18)
(0.000826808 4.39805e-05 0)
(0.000173305 -2.11819e-05 3.63183e-19)
(0.000307146 0.00129621 0)
(0.00108985 0.000773225 -7.29972e-20)
(0.000826744 2.63695e-05 -1.8648e-19)
(6.26661e-05 -2.46734e-05 -2.99864e-19)
(0.000844006 0.000314011 -2.0797e-20)
(4.18221e-05 -2.10542e-05 -5.99253e-19)
(0.000228364 0.000162586 8.63605e-20)
(0.000232564 0.000302128 -3.44903e-19)
(0.000900906 0.000254426 0)
(0.000829066 5.88466e-05 0)
(0.000268062 0.00011843 1.76788e-19)
(0.000231493 -2.29537e-05 8.5214e-24)
(0.000185359 0.00019511 0)
(0.000308415 0.000643342 -5.5552e-21)
(0.000365965 -3.74093e-05 0)
(0.000383456 0.000598148 0)
(0.00010277 7.07672e-05 -1.34621e-21)
(0.000810531 3.08242e-05 -9.56146e-19)
(0.000804985 1.63608e-05 7.94374e-19)
(0.000121922 4.42443e-05 -1.49802e-19)
(0.000976685 0.000145914 8.50049e-20)
(0.000841729 3.67975e-05 3.3352e-19)
(0.000823386 3.66503e-05 -2.93964e-19)
(0.00103558 0.000422086 0)
(0.000451599 0.000105546 6.24203e-19)
(0.00091761 0.000324563 2.09061e-20)
(0.000596306 0.000149393 0)
(0.000276384 0.000442281 4.09523e-19)
(0.00026369 0.000205778 -8.4391e-20)
(0.00110716 0.000385996 -7.81817e-19)
(0.00064463 0.000102446 -1.79221e-19)
(0.000824928 7.78625e-05 -7.45752e-21)
(0.000846507 2.14559e-05 9.39338e-20)
(4.66825e-05 -8.47357e-05 -1.98054e-18)
(0.000747564 0.000379339 2.19163e-19)
(0.000690404 7.04408e-05 2.3056e-20)
(0.000719041 0.000278781 1.62642e-23)
(0.000742518 0.000462094 -4.0954e-19)
(0.00085542 1.35028e-05 9.06719e-20)
(6.69491e-05 6.95468e-05 0)
(0.000664919 0.000425738 -4.65767e-20)
(0.000181065 7.98703e-05 0)
(0.000374243 0.000501247 -2.64762e-19)
(0.000313485 0.000154282 0)
(0.000688608 0.000205604 3.55092e-19)
(0.000662642 0.000259468 -4.37093e-20)
(7.85784e-05 9.49976e-05 6.18931e-19)
(0.000888947 9.76178e-05 -1.63825e-18)
(5.038e-05 1.66258e-05 2.57094e-19)
(0.000901697 7.39922e-05 -1.68587e-18)
(0.000852118 9.13574e-05 1.63023e-19)
(0.000815995 3.83821e-05 1.91191e-18)
(0.000822833 3.25265e-05 -1.32794e-19)
(0.000749371 7.02292e-05 0)
(0.000805039 1.8866e-05 8.98083e-19)
(0.000976064 0.000239759 -4.26929e-19)
(0.000792905 0.000102098 -4.8355e-19)
(0.000784874 0.00023869 -8.80881e-20)
(0.000191135 -0.000201045 -2.07444e-18)
(0.000768247 8.28376e-05 8.87192e-19)
(0.000645464 0.000590595 0)
(5.064e-05 -0.000123102 0)
(0.00123153 0.000477807 4.97131e-19)
(0.00053594 -5.38402e-05 -3.27007e-18)
(0.00135725 0.000419503 5.76227e-19)
(0.00125612 0.000720873 -6.38813e-20)
(0.000817871 3.51306e-05 -2.12669e-19)
(0.000845449 6.64542e-05 -1.42776e-18)
(0.000814008 2.74625e-05 1.58635e-18)
(0.000814155 1.93868e-05 9.77681e-20)
(0.000677406 0.000353259 -4.4025e-20)
(9.80905e-05 0.000110764 9.83128e-24)
(0.000769393 -2.65946e-05 2.64863e-19)
(0.000205517 -0.000255981 -7.30825e-19)
(0.000644729 0.000181594 0)
(0.000730346 5.16759e-05 9.89985e-20)
(0.000725994 9.96762e-06 -3.80656e-19)
(0.000399123 0.000160659 3.93229e-20)
(0.000814528 0.0005107 -1.65421e-19)
(0.000143571 6.13321e-05 4.33775e-25)
(0.000823047 0.000412559 0)
(0.000992573 0.000315622 4.15607e-20)
(0.000772253 -5.7086e-05 -6.15817e-19)
(0.000357831 8.96523e-05 4.97658e-19)
(0.000906317 0.000427786 0)
(4.31979e-05 2.57871e-05 1.3366e-19)
(0.000498004 0.000259771 2.13877e-19)
(0.000555616 -0.000174581 -7.0913e-19)
(8.45725e-05 -0.000176907 -1.05579e-18)
(0.00082728 4.24573e-05 -4.86501e-19)
(0.000757267 -5.7154e-05 -1.94584e-19)
(0.000553025 0.000728194 -1.17404e-18)
(0.00085714 4.53099e-05 -6.73757e-20)
(0.00055215 -7.50868e-06 1.2825e-18)
(0.000722418 9.9407e-05 2.27687e-20)
(0.00054778 0.000202192 -1.65628e-19)
(2.18577e-05 -1.78422e-05 -8.75512e-20)
(0.000144778 -6.51055e-05 2.40505e-18)
(1.10291e-05 4.95227e-07 -1.94785e-19)
(0.000846766 0.000120325 3.63602e-19)
(0.000686441 0.00013456 0)
(0.000165232 -0.000118001 -1.04781e-18)
(0.000107995 -3.02298e-05 3.12666e-19)
(8.74213e-05 -4.27129e-05 1.21231e-23)
(0.000814336 0.000105959 -3.19138e-19)
(0.000141954 -2.68236e-05 0)
(0.00060042 0.000237005 0)
(0.000111386 0.000319854 -3.62738e-19)
(0.000871424 0.000101984 2.10765e-18)
(8.95921e-06 6.2816e-07 0)
(0.000891372 5.13229e-05 0)
(3.28026e-05 -2.42526e-05 0)
(0.000815148 4.91237e-05 -4.46625e-21)
(0.00078035 -2.44256e-05 0)
(0.00426101 0.00740793 8.07188e-20)
(0.00436302 0.00748841 1.43652e-19)
(0.000842285 -2.08472e-05 0)
(0.000801234 -2.99169e-05 8.11493e-19)
(0.000151099 0.000112344 1.49158e-19)
(0.000865493 6.64301e-05 8.08207e-19)
(0.000125643 8.98693e-05 2.34311e-20)
(0.000795842 -1.73539e-05 6.2392e-19)
(2.93579e-05 7.3674e-06 0)
(2.0614e-05 -1.06933e-05 -4.48304e-20)
(0.000909847 4.66079e-05 -4.86351e-19)
(2.2348e-05 -2.69051e-05 -6.69542e-19)
(0.000773513 0.000128187 -4.23068e-20)
(0.00016946 0.000150022 -1.88036e-19)
(0.000813342 3.24778e-05 0)
(0.00468253 0.00815355 9.00869e-22)
(0.000196866 0.000791969 3.33354e-19)
(9.2055e-05 -7.00112e-05 -9.14171e-19)
(4.66214e-05 -3.43391e-05 -1.16834e-18)
(0.000579803 1.29541e-05 1.8953e-20)
(0.000586865 0.000402689 0)
(0.000427069 0.000446 -2.56249e-19)
(6.0493e-05 -6.50438e-05 1.1833e-18)
(0.000542768 -1.9214e-06 7.67442e-20)
(3.51768e-05 7.29169e-07 4.06934e-19)
(0.000730021 -3.92384e-05 1.17111e-18)
(0.000812899 3.22211e-05 -6.06201e-19)
(4.42574e-05 -5.31723e-05 1.70885e-18)
(0.00084082 -4.63111e-05 -6.38758e-24)
(0.00055615 5.94314e-06 -3.74711e-20)
(0.000880232 7.22552e-05 0)
(0.000847378 5.45708e-05 0)
(0.00591495 0.00724365 2.59975e-19)
(1.11522e-05 -3.1069e-06 -1.19553e-19)
(8.625e-05 -0.000118998 7.72768e-19)
(0.000742286 0.000113873 -6.96152e-19)
(1.36518e-05 3.12923e-07 2.01478e-19)
(0.00066038 -3.55584e-05 -7.23497e-19)
(0.000759286 3.55606e-05 1.55739e-18)
(0.000719099 0.00015649 -3.553e-19)
(0.000807232 -1.13143e-05 3.60715e-19)
(5.91495e-05 -3.75223e-05 1.11555e-18)
(0.000801911 6.54184e-06 -3.22559e-19)
(0.000877069 3.42638e-05 0)
(0.000553795 0.000300782 4.20866e-20)
(0.000869974 4.85028e-05 -9.47452e-19)
(1.19539e-05 2.96936e-06 9.11251e-19)
(0.000863451 3.94665e-05 9.6591e-19)
(0.000864739 2.9066e-05 -9.64165e-19)
(0.000769305 2.42327e-06 -5.68929e-19)
(0.000556632 -8.60546e-05 -5.25421e-19)
(0.00433004 0.00745455 2.47589e-19)
(0.00422197 0.00752814 -2.78898e-19)
(0.00422025 0.00758574 2.66811e-19)
(0.0042566 0.00741167 1.98018e-19)
(0.000845148 -3.93756e-05 1.44212e-19)
(0.00447702 0.00751521 0)
(0.00440443 0.00751906 -3.86965e-19)
(1.95641e-05 -1.5337e-07 -9.9785e-19)
(0.00416992 0.00746833 -6.33778e-20)
(0.00414544 0.00743161 -2.21556e-19)
(0.00602921 0.0106048 0)
(0.00654021 0.0111867 3.71577e-20)
(0.00600914 0.0105745 0)
(0.00655591 0.0112103 1.30974e-19)
(0.00599658 0.0105985 2.69679e-19)
(0.00659261 0.0112272 1.2473e-20)
(0.00593549 0.0106112 -7.76787e-19)
(0.00662288 0.0111462 8.16516e-21)
(0.00390341 0.00919717 -1.90799e-19)
(0.00418611 0.00748753 3.87517e-21)
(0.00423693 0.00755099 7.93745e-20)
(0.00414993 0.00743392 4.12119e-20)
(0.000898385 0.000197359 4.46557e-20)
(6.12738e-06 8.43812e-07 0)
(0.000731434 -9.7091e-05 0)
(0.000656989 5.8213e-05 0)
(0.00244667 0.00111913 4.23486e-21)
(0.000759054 -3.01152e-05 1.72507e-19)
(3.39925e-05 3.97651e-06 4.53883e-20)
(4.54432e-06 -2.01089e-05 1.65231e-18)
(0.000864986 2.48384e-06 0)
(2.3437e-05 1.0081e-05 -1.91654e-19)
(0.000139 0.000213952 0)
(9.78597e-06 -7.60864e-07 0)
(7.46629e-06 -8.07352e-07 0)
(0.00084054 0.000150445 1.13731e-20)
(0.000811003 -1.78341e-05 1.7954e-19)
(3.87466e-05 0.000253516 -8.45909e-24)
(0.00015609 0.000265067 -1.84134e-18)
(0.000614614 0.000325473 -8.56708e-20)
(0.000905027 0.00011547 6.01853e-19)
(0.000585535 -0.000139692 6.74732e-19)
(0.000358086 0.00111714 0)
(0.000483665 0.000575336 2.71449e-18)
(8.77648e-05 0.000136098 -1.80253e-18)
(1.31116e-05 -3.17094e-07 0)
(0.00082292 -6.44542e-05 3.64041e-20)
(1.32351e-05 3.01785e-05 1.64388e-18)
(0.000892847 3.63836e-05 2.71018e-19)
(-3.18618e-05 8.90365e-05 3.81014e-18)
(0.000924778 4.23704e-05 -2.68887e-19)
(0.00133212 0.000157 7.47219e-19)
(2.71864e-05 -9.22368e-06 8.25391e-20)
(2.89816e-05 1.90904e-06 -8.58781e-19)
(5.06954e-05 0.000132399 0)
(0.000922361 9.10039e-05 5.98176e-19)
(0.000500822 0.000366066 2.37069e-19)
(0.000604238 1.71325e-05 -3.88893e-20)
(0.00079091 8.19313e-06 2.57214e-19)
(0.000727127 -0.000129958 0)
(0.0063203 0.0108955 -1.68161e-19)
(0.00637866 0.0109729 4.0592e-19)
(0.00616003 0.0107298 -6.185e-19)
(0.00650122 0.0111319 -8.10034e-20)
(3.10421e-05 0.000110188 8.00258e-19)
(0.000931987 6.21558e-05 1.44268e-22)
(0.00641128 0.0110054 -3.86541e-19)
(0.00628135 0.0108453 5.48393e-19)
(0.00608008 0.0106716 -4.16821e-19)
(0.00652173 0.0111644 -6.8162e-20)
(7.84483e-05 0.000486893 -2.01766e-20)
(3.97796e-05 -0.000187191 -7.92649e-19)
(0.000632124 -1.91567e-05 -7.66814e-19)
(0.000733663 0.000219377 0)
(0.000800306 2.2112e-07 0)
(0.000190453 0.000384069 3.36199e-19)
(0.000604671 0.000510899 -5.41698e-19)
(4.5444e-06 -8.06728e-07 1.78328e-19)
(0.000200386 0.000465936 -7.38183e-19)
(0.00102514 0.000980712 -1.12669e-19)
(0.00075734 0.000166822 0)
(0.000798271 0.000184775 1.30973e-19)
(0.0063482 0.00588364 1.13207e-18)
(0.000735064 0.00113114 8.2646e-20)
(3.44188e-05 3.3197e-05 -7.44415e-20)
(0.000808165 1.13236e-05 0)
(0.000869231 2.1458e-05 -3.56781e-20)
(2.76544e-05 1.79668e-06 -1.96667e-19)
(2.42052e-05 3.10534e-06 1.92932e-19)
(0.000835026 1.14112e-05 5.37006e-19)
(0.000989265 0.000114771 6.57964e-19)
(0.000530149 4.84567e-05 0)
(0.000220422 -0.000258888 -3.98183e-19)
(0.000922153 0.000143016 3.89437e-19)
(6.66501e-07 -4.2442e-05 2.02919e-19)
(0.00145485 0.000444181 -2.58001e-18)
(0.000553934 -1.47301e-05 0)
(0.000803363 0.000141853 3.75329e-19)
(9.67134e-05 0.000384389 0)
(0.00118899 0.00816149 4.62035e-19)
(0.000498936 0.000496638 -1.22418e-18)
(0.000541035 0.00101845 -1.83704e-19)
(0.00089042 1.24736e-05 -1.46004e-19)
(1.01351e-05 2.12686e-05 0)
(0.000965031 7.87049e-05 6.11371e-19)
(0.00410604 0.00739488 8.14528e-20)
(0.00417076 0.00747286 4.73233e-20)
(0.00450079 0.00751789 4.54113e-19)
(0.00444598 0.00754369 -3.29076e-19)
(0.00647513 0.0111089 8.10806e-20)
(0.00391478 0.00714593 -9.47884e-22)
(0.00550742 0.00780059 -5.64783e-19)
(0.0040978 0.00737146 5.21935e-21)
(0.00518883 0.00786042 5.11719e-19)
(0.00407957 0.00733981 -4.87467e-20)
(0.00495421 0.00771998 0)
(0.00408478 0.00736407 -8.56925e-20)
(0.0047431 0.00759084 4.92556e-19)
(0.00409802 0.00737567 8.75435e-20)
(0.00457585 0.00753045 0)
(0.00428454 0.00742214 1.39777e-19)
(0.00423842 0.00759727 5.80382e-19)
(0.00446848 0.0075292 -5.5436e-19)
(0.00438867 0.0075065 3.71386e-19)
(0.00422709 0.00752407 3.2291e-19)
(0.00643046 0.0110422 -4.97661e-21)
(0.00411747 0.00740098 3.11688e-20)
(0.00645861 0.0110721 0)
(1.95018e-05 4.14263e-06 -1.89792e-19)
(0.00200228 0.00654736 2.2816e-19)
(0.000838274 -6.1701e-05 1.096e-19)
(0.000851393 -8.03749e-08 0)
(5.74406e-07 3.16784e-07 -3.98966e-19)
(-3.71502e-05 -6.92593e-05 6.90982e-19)
(2.28076e-05 5.07848e-05 2.08831e-18)
(0.000841088 0.000188548 -9.00344e-20)
(0.000801702 8.28208e-06 7.06133e-19)
(-6.47492e-08 2.76258e-07 3.09874e-19)
(1.21001e-05 -2.65947e-05 -1.84493e-18)
(0.000763587 2.65349e-05 1.63095e-19)
(0.000874722 0.000126183 -3.07869e-20)
(0.000801097 -6.82598e-06 1.48077e-19)
(0.000437224 0.000678505 0)
(-7.03587e-07 -0.000129013 1.15094e-18)
(0.000877065 -2.00874e-06 1.52477e-19)
(1.74435e-05 2.03699e-05 0)
(0.00012058 0.000552279 -6.31097e-19)
(0.000615194 0.000583054 1.31756e-18)
(0.000335555 0.000757959 0)
(0.000802173 -1.40415e-05 0)
(0.000801851 3.12783e-06 1.17685e-18)
(1.44443e-05 4.34303e-05 -3.51377e-18)
(1.33309e-05 5.262e-06 3.7349e-19)
(0.000116514 0.00013494 0)
(3.2009e-05 -3.77523e-05 0)
(5.81896e-05 0.000104741 2.00931e-19)
(0.000944285 0.00019054 3.50299e-19)
(0.000801529 1.51164e-05 -1.38937e-18)
(2.01405e-05 2.87018e-05 0)
(0.000405172 2.14536e-06 -6.04573e-20)
(0.000799439 3.52386e-05 -1.56297e-19)
(0.000851753 5.01843e-05 1.06518e-18)
(0.000252069 0.000542558 6.32052e-19)
(0.000885742 0.000158286 0)
(1.20555e-05 -1.84664e-05 5.38416e-19)
(1.13879e-06 -1.63759e-06 -3.19849e-19)
(0.000938604 3.53005e-05 0)
(0.00104951 0.00227129 0)
(0.000899837 3.71984e-06 0)
(0.00100898 0.000209252 4.27011e-19)
(0.00081895 -3.73721e-05 -2.84172e-19)
(0.000944905 0.000114618 -6.84511e-19)
(0.000801243 3.72742e-06 0)
(3.96747e-05 6.18386e-05 -1.71507e-19)
(0.000174769 0.000321401 1.08082e-18)
(0.000801173 1.37918e-05 -2.54347e-23)
(0.00110987 0.000208859 -6.68446e-19)
(0.00108778 0.000129698 0)
(1.71611e-06 3.38607e-06 2.50938e-19)
(1.32494e-05 -1.17047e-05 -1.94245e-19)
(0.000549852 4.90431e-05 6.94784e-21)
(-1.08141e-05 -5.56084e-05 0)
(0.00107843 0.000257503 9.49589e-19)
(0.00502879 0.00974822 -2.82864e-19)
(0.0031216 0.00961665 1.27236e-18)
(1.12215e-05 -8.91904e-05 -1.9125e-19)
(3.26129e-05 -6.9131e-05 1.85873e-18)
(0.00119226 0.000259804 1.67283e-19)
(0.00133202 0.00107537 2.34024e-19)
(0.000810529 3.62126e-06 -7.36773e-19)
(0.000200548 0.000948346 -2.38185e-19)
(0.000819649 0.000946852 -2.18523e-19)
(0.000800389 -1.94415e-06 0)
(8.14711e-05 0.000607625 0)
(9.41958e-05 0.000275307 -3.4924e-23)
(0.000720441 -4.82072e-05 -1.67266e-23)
(0.000827739 6.95677e-05 1.5255e-19)
(0.00263302 0.00206804 -1.23116e-18)
(0.00176083 0.0092381 -1.17184e-19)
(0.000833946 7.34946e-05 4.91985e-19)
(0.00631738 0.00405356 -1.76222e-19)
(0.0067208 0.011557 -1.36626e-20)
(0.00473402 0.00784368 4.93615e-21)
(0.00080617 1.35942e-05 -2.16566e-18)
(0.000844182 -4.72957e-07 8.06911e-24)
(4.63966e-06 -4.88516e-06 -3.47893e-19)
(4.47258e-05 8.17055e-05 -3.49161e-19)
(6.12302e-05 0.00025831 8.75039e-19)
(8.35002e-06 1.30953e-05 4.90235e-19)
(8.98119e-05 0.000221015 3.69653e-19)
(0.000818847 1.41134e-05 0)
(0.00534822 0.00949236 1.94908e-20)
(0.00154903 0.00063966 -2.61128e-20)
(0.000819096 4.09866e-05 3.60049e-19)
(1.15491e-05 -6.98397e-05 0)
(0.0018488 0.000749985 5.45874e-19)
(6.81993e-06 5.47617e-06 -2.7006e-19)
(2.99379e-05 2.43025e-05 9.71483e-20)
(0.00133632 0.0013988 6.36519e-19)
(0.000739947 4.98184e-05 1.8304e-19)
(1.30427e-06 -5.93602e-07 -1.7014e-19)
(0.00206581 0.00156356 -1.05559e-18)
(0.000126851 0.000169649 -8.18517e-19)
(0.00392009 0.00848874 -1.09075e-18)
(2.82724e-06 8.55424e-07 8.81123e-20)
(9.21059e-05 -3.33492e-05 -1.25813e-18)
(3.23668e-05 -5.26084e-05 4.05496e-20)
(0.00153331 0.000988841 0)
(0.00104406 0.000142178 -3.99611e-22)
(0.000455837 0.000845434 -4.01962e-20)
(0.00080355 2.75736e-05 -2.33995e-19)
(8.68623e-05 0.000176099 7.35841e-19)
(1.69185e-05 -5.12623e-05 4.0385e-19)
(1.57099e-05 1.25749e-05 -9.46775e-20)
(2.78937e-05 8.33299e-05 -3.20183e-19)
(0.000216043 -0.000156364 -5.45663e-19)
(0.00325157 0.00346827 2.89415e-21)
)
;

boundaryField
{
    back
    {
        type            empty;
    }
    ingreso
    {
        type            fixedValue;
        value           uniform (0.0008 0 0);
    }
    salida
    {
        type            zeroGradient;
    }
    front
    {
        type            empty;
    }
    defaultFaces
    {
        type            noSlip;
    }
}


// ************************************************************************* //
