/*--------------------------------*- C++ -*----------------------------------*\
  =========                 |
  \\      /  F ield         | OpenFOAM: The Open Source CFD Toolbox
   \\    /   O peration     | Website:  https://openfoam.org
    \\  /    A nd           | Version:  7
     \\/     M anipulation  |
\*---------------------------------------------------------------------------*/
FoamFile
{
    version     2.0;
    format      ascii;
    class       volScalarField;
    location    "82.5";
    object      p;
}
// * * * * * * * * * * * * * * * * * * * * * * * * * * * * * * * * * * * * * //

dimensions      [0 2 -2 0 0 0 0];

internalField   nonuniform List<scalar> 
591
(
0.00012386
0.000123877
0.00012388
0.000123831
0.000123835
0.000123904
0.000123896
0.000123868
0.000116974
0.000123887
0.00012407
0.000122812
0.000123874
0.000119708
0.000123868
0.000123912
0.000123857
0.000123913
0.000121937
0.000123247
0.00012385
-3.52531e-06
0.000124066
0.000123851
0.000124022
0.000123873
0.000123981
0.000123983
0.000123887
0.000123894
0.000124042
0.000124017
0.000124037
0.000124036
0.000124038
0.000123361
0.000124033
0.000123852
0.000124061
0.000123978
0.000123936
0.000124029
0.000123881
0.000123904
0.000124026
0.000124047
0.000119213
0.000124051
0.000123885
0.000124003
0.000123999
0.00012403
2.39445e-05
3.05887e-05
4.78399e-05
0.000123879
0.000124055
0.000124046
0.000124049
0.00012386
0.000123947
0.000123877
0.000123875
0.000123924
0.000122549
0.000123877
0.00012388
0.000124045
0.000120704
0.000123891
0.000123886
0.000124052
0.000124025
0.000124031
0.000124037
0.000124013
0.000123854
0.000124049
0.000123856
0.000123794
0.000123632
0.000124054
0.000124013
0.000123996
0.000124061
0.000123867
0.000123956
0.000124044
0.000124006
0.000123758
0.000124018
0.000123968
0.000123982
0.000123859
0.000124059
0.000124015
0.000123563
0.000123462
0.000123628
0.000124065
0.000123973
0.000123893
0.00012407
0.000123828
0.000124071
0.000123878
0.000123876
0.000124019
0.000124063
0.000124066
0.000123956
0.000124043
0.000123892
0.000124046
0.000124063
0.000124047
0.000124001
0.000123993
0.000123561
0.000123968
0.000123878
0.000123871
0.000123961
0.000123857
0.000124032
0.000120181
0.000124071
0.000124048
0.000123629
0.000124038
0.000123868
0.000123555
0.000124008
0.000124002
0.000124041
0.000123884
0.000122609
0.000124068
0.00012387
0.000123556
0.000123623
0.000123967
0.000124052
0.000124061
0.000124055
7.61781e-06
3.67948e-06
2.07185e-06
3.816e-05
3.67002e-05
5.66222e-06
3.83113e-05
1.57421e-05
3.72932e-05
1.78089e-05
0.000123878
0.000123869
0.000124059
0.000124051
0.000124058
0.000124057
0.00012405
0.000124045
0.000124058
0.000124057
0.000124022
0.000124059
0.000124054
0.000124061
0.000124002
0.000123374
0.000124061
0.000122106
0.000124044
0.000124041
0.000123991
0.000123888
0.000124041
0.000124056
0.000124055
0.000123472
0.000122454
0.00012303
0.000123424
0.000124045
0.000124052
0.000123957
0.000123849
0.000124048
0.00012295
0.00012328
0.000123849
0.000124039
0.000123735
0.000124033
0.000124052
0.000124027
0.000123704
0.00012384
0.00012405
0.000124055
0.000124054
0.000123853
0.000124037
0.00012385
0.000124064
0.000123872
0.000123871
0.00012406
0.000123664
0.000123841
0.000123881
0.000123521
0.000124013
0.000123666
0.000123954
0.000123969
0.000124042
0.000123434
0.000123943
0.000123833
0.000123834
0.000124014
0.000123775
0.000123928
0.000123843
0.000123755
0.000123826
0.000124064
0.00012382
0.000124062
0.000123913
0.00012404
0.000123885
0.000123886
0.000124067
0.000123775
0.000124053
0.000123764
0.000123813
0.000123876
0.000123856
0.000123893
0.000123879
0.00012365
0.000123853
0.000123806
0.000124021
0.000123872
0.000123726
0.000124008
0.000123275
0.000123837
0.000123168
0.000123053
0.000123863
0.000123827
0.000123865
0.000123862
0.000123834
0.000124065
0.000123908
0.000123988
0.000123921
0.000123912
0.000123925
0.000124019
0.000123669
0.000124061
0.000123705
0.000123594
0.000123897
0.000124038
0.000123617
0.000124056
0.000123966
0.000123984
0.000124011
0.000123887
0.000123861
0.000123695
0.000123822
0.000123855
0.000123903
0.000123962
0.000124026
0.000124044
0.000124049
0.000123806
0.000123913
0.000124037
0.000124044
0.000124038
0.000123831
0.000124052
0.000123926
0.000124036
0.000123792
0.000124052
0.00012378
0.000124028
0.000123917
0.000123861
1.16426e-05
2.19132e-05
0.000123806
0.000123884
0.000124064
0.000123812
0.000124064
0.000123895
0.000124051
0.000124028
0.000123763
0.000124022
0.000123852
0.000124061
0.000123886
-2.09638e-07
0.000123755
0.000124033
0.000124029
0.000123723
0.000123877
0.000123919
0.000124023
0.000123779
0.000124045
0.000123929
0.000123879
0.000124021
0.000123827
0.000123753
0.000123789
0.000123888
4.74783e-05
0.00012404
0.000124021
0.000123878
0.000124046
0.000123957
0.0001239
0.000123882
0.000123868
0.000124032
0.000123894
0.000123801
0.000123929
0.000123805
0.000124045
0.000123813
0.00012387
0.000123906
0.000123991
1.98741e-05
2.73345e-05
3.42955e-05
9.63976e-06
0.000123852
3.30543e-05
2.6002e-05
0.000124042
1.9075e-05
1.70306e-05
3.81852e-05
7.57653e-06
3.9937e-05
5.60508e-06
4.0831e-05
3.68888e-06
4.28131e-05
1.87587e-06
3.64066e-05
2.31989e-05
2.94506e-05
1.4993e-05
0.000123735
0.000124053
0.00012392
0.000123929
0.000120878
0.000123971
0.000124048
0.000124018
0.000123819
0.000124054
0.000124057
0.000124034
0.000124031
0.000123795
0.000123868
0.000124041
0.000124047
0.000123883
0.00012375
0.000123827
0.000123389
0.000123841
0.000124068
0.000124038
0.00012388
0.000124061
0.000123723
0.000123908
0.000123683
0.000122837
0.000124032
0.000124044
0.000124067
0.000123737
0.000123927
0.000123682
0.000123893
0.000123884
2.60437e-05
2.18783e-05
3.30359e-05
1.16186e-05
0.000124071
0.00012373
1.98207e-05
2.82553e-05
3.56022e-05
9.58845e-06
0.000123889
0.00012398
0.000123837
0.000123847
0.00012387
0.000124008
0.000123799
0.000124028
0.000123973
0.000123083
0.000123851
0.000123817
5.93635e-05
0.000123208
0.000124059
0.000123863
0.000123756
0.000124047
0.00012405
0.000123844
0.000123644
0.000123873
0.00012393
0.000123727
0.000124004
0.000122886
0.000123804
0.000123825
0.000124016
0.000100867
0.000123864
0.000123469
0.000123791
0.000124059
0.000123692
1.08965e-05
2.11157e-05
3.53671e-05
2.81918e-05
1.36624e-05
5.47962e-08
4.20802e-05
2.69007e-06
4.01577e-05
4.76229e-06
3.94163e-05
6.81512e-06
3.86237e-05
8.85785e-06
3.72897e-05
1.36744e-05
3.17281e-05
3.05845e-05
2.3938e-05
2.52782e-05
1.77659e-05
1.29388e-05
1.57082e-05
0.000124053
0.000102397
0.000123851
0.000123782
0.000124056
0.000123946
0.000124063
0.000123779
0.000123907
0.000124023
0.000124019
0.000124026
0.000123779
0.000123875
0.000123785
0.000123983
0.000123812
0.000124057
0.00012393
0.000123761
0.000123766
0.000123886
0.000123878
0.000124064
0.000124055
0.000124066
0.000124023
0.000124068
0.000123694
0.000123873
0.000124059
0.000123819
0.000123949
0.000123879
0.000123925
0.000123761
0.000124023
0.000124021
0.000123335
0.000121351
0.000123062
0.000123608
0.000123874
0.000123704
0.000123885
0.000124064
0.00012403
0.000123879
0.000123495
0.000123473
0.000124058
0.000124025
0.000123895
0.00012399
0.000123534
5.83119e-05
4.01201e-05
0.000123995
0.000124013
0.000123376
0.000122728
0.000123861
0.000123609
0.000123356
0.00012387
0.000123783
0.00012405
0.000123903
0.000123933
0.000118988
5.44735e-05
0.000123902
8.1241e-05
1.86171e-06
-3.81065e-07
0.00012387
0.000123838
0.000124024
0.000124066
0.000124057
0.000124057
0.00012406
0.000123856
-2.30747e-06
0.000122808
0.000123895
0.000124001
0.000121995
0.000124056
0.000124057
0.000122267
0.000123972
0.000124026
0.000121672
0.000124063
7.63356e-05
0.000124055
0.000123732
0.000124017
0.000122356
0.000123582
0.000123648
0.000123904
0.000124065
0.000124009
0.000124056
0.000124068
0.000123869
0.000116157
)
;

boundaryField
{
    back
    {
        type            empty;
    }
    ingreso
    {
        type            zeroGradient;
    }
    salida
    {
        type            fixedValue;
        value           uniform 0;
    }
    front
    {
        type            empty;
    }
    defaultFaces
    {
        type            zeroGradient;
    }
}


// ************************************************************************* //
