/*--------------------------------*- C++ -*----------------------------------*\
  =========                 |
  \\      /  F ield         | OpenFOAM: The Open Source CFD Toolbox
   \\    /   O peration     | Website:  https://openfoam.org
    \\  /    A nd           | Version:  7
     \\/     M anipulation  |
\*---------------------------------------------------------------------------*/
FoamFile
{
    version     2.0;
    format      ascii;
    class       surfaceScalarField;
    location    "82.5";
    object      phi;
}
// * * * * * * * * * * * * * * * * * * * * * * * * * * * * * * * * * * * * * //

dimensions      [0 3 -1 0 0 0 0];

internalField   nonuniform List<scalar> 
1111
(
6.80699e-09
1.30596e-08
-1.59988e-08
-3.86785e-09
6.79275e-09
-1.18215e-08
1.18357e-08
-1.47525e-08
5.54702e-09
8.99426e-09
2.112e-10
7.56332e-10
-8.68772e-10
-1.4335e-08
1.44474e-08
-1.42818e-08
1.40407e-08
9.97488e-10
-1.64299e-09
1.49101e-08
2.16149e-09
-3.19888e-09
9.60932e-09
-9.94445e-09
3.53401e-09
-6.71479e-09
-1.26163e-08
1.26002e-08
6.73092e-09
-5.03563e-08
-2.60118e-08
7.63681e-08
-8.13468e-09
7.6787e-09
7.24873e-09
3.39365e-09
3.58222e-10
-3.47552e-09
-2.76349e-10
1.5821e-08
-1.61801e-08
-2.31671e-08
2.35261e-08
-9.65939e-09
-7.89378e-09
8.79877e-09
8.7544e-09
-3.55257e-08
1.76781e-08
-3.22983e-08
5.01459e-08
9.50833e-09
-1.96326e-09
-1.42599e-08
-8.50664e-10
1.76157e-09
-3.25985e-09
2.34894e-09
-3.88862e-09
1.33463e-08
1.96138e-09
-1.1419e-08
8.82081e-09
-2.60109e-09
-1.5045e-08
8.82529e-09
3.74162e-08
-3.01033e-08
-7.31297e-09
-1.94529e-08
3.86153e-10
1.72468e-08
1.82e-09
-1.00534e-09
4.21081e-09
-1.78605e-08
1.46551e-08
-6.12216e-08
-3.96269e-09
6.51843e-08
1.43453e-10
-1.19837e-09
-3.40161e-10
1.39507e-09
-1.6653e-09
-1.36219e-08
-1.1107e-10
-2.63861e-10
2.10686e-10
1.64245e-10
-1.03132e-08
-8.42525e-09
1.29258e-08
5.81261e-09
6.87715e-10
-2.12492e-09
-8.33359e-09
9.7708e-09
8.43264e-09
8.24466e-10
-9.4492e-09
1.92095e-10
-2.8747e-09
-7.9455e-09
1.10208e-08
-2.00626e-10
1.14017e-08
-9.02436e-10
-1.67845e-09
-8.68611e-10
8.64774e-10
1.68237e-11
-1.29857e-11
-1.43678e-10
7.41958e-10
2.81024e-10
-8.79304e-10
-4.81239e-10
-3.91711e-11
5.14514e-10
5.89601e-12
-2.65682e-11
-8.50293e-10
1.09929e-10
7.66932e-10
-8.99811e-11
-8.05199e-10
9.17465e-10
-1.84415e-08
-1.92892e-09
-3.98292e-10
4.36893e-11
-1.26636e-10
1.33919e-08
-1.3241e-08
4.05989e-09
-3.73124e-10
5.73608e-10
3.44975e-10
-5.4546e-10
-1.14445e-10
-1.68617e-09
1.36201e-09
4.38601e-10
-2.0536e-09
1.04331e-08
-1.15784e-08
-2.87331e-10
-1.62944e-10
5.19821e-11
-8.76913e-09
1.03737e-08
-9.73921e-09
1.22074e-08
-1.71461e-08
4.67597e-09
2.62679e-10
6.17043e-11
-1.63699e-10
-1.85337e-10
1.8778e-10
7.9752e-10
-1.20527e-10
-5.9529e-08
7.42284e-08
-1.46994e-08
1.0495e-09
-2.63288e-10
-1.18218e-09
3.95969e-10
1.14803e-09
1.03146e-08
-1.37189e-08
2.25623e-09
-1.61149e-09
7.58224e-09
-8.89856e-09
2.92781e-09
-6.66262e-09
5.66595e-09
5.62814e-09
-4.63148e-09
-7.53343e-09
-1.81315e-09
1.81671e-09
7.52987e-09
-1.83331e-10
-9.09191e-08
9.13053e-08
-2.02848e-10
-2.57782e-10
-8.97555e-08
9.01657e-08
-1.52349e-10
8.3081e-08
-1.49381e-09
1.09967e-10
-8.16971e-08
-2.95091e-09
-3.99882e-10
6.78619e-10
8.46775e-10
-4.75894e-10
3.9444e-09
-1.23206e-09
3.41945e-09
-6.13179e-09
-9.79617e-10
9.04109e-10
-1.4951e-08
6.59877e-09
9.6781e-09
1.03549e-09
-1.04423e-08
-2.71297e-10
-6.14865e-09
1.33472e-08
1.11959e-09
-8.31812e-09
1.43613e-08
-4.45473e-09
3.6618e-09
-1.35683e-08
1.54062e-08
1.68856e-09
-1.66596e-09
-1.89882e-10
-2.00632e-08
-7.42479e-09
2.76779e-08
1.42471e-08
-8.65493e-09
-1.96372e-09
7.91378e-09
-1.20987e-08
-1.6549e-11
9.3455e-11
-1.25909e-09
-3.6251e-08
-2.3278e-08
8.25852e-09
2.35332e-10
3.71358e-09
-7.01927e-09
1.10251e-08
6.36782e-09
-6.0582e-10
3.27148e-10
4.88326e-10
-2.09654e-10
5.78981e-09
-4.75173e-09
3.63947e-09
-4.67756e-09
-4.76865e-10
-6.38934e-10
2.65506e-10
6.74724e-10
-6.03967e-10
-2.47057e-11
-8.7052e-10
7.51547e-10
-1.80341e-08
2.44075e-09
1.5431e-09
1.40503e-08
2.31109e-10
-7.0784e-10
-1.2909e-10
-4.08717e-09
-1.50686e-08
1.12162e-09
5.61646e-09
1.20246e-08
-5.22486e-09
-1.24162e-08
1.64383e-08
6.7451e-10
-1.5903e-08
-1.20984e-09
-6.87812e-10
4.63905e-10
5.51055e-10
-4.4928e-10
2.2788e-10
2.214e-10
-7.36125e-09
-3.60264e-09
4.30127e-09
-2.40639e-10
3.67404e-10
-1.26765e-10
1.19746e-09
-1.55978e-08
-8.30876e-10
9.68696e-09
-1.09097e-08
-9.79342e-10
-4.73986e-10
1.28695e-08
4.40241e-09
-4.14974e-09
-1.31222e-08
1.16809e-10
7.1183e-09
-7.87632e-09
6.42398e-09
-1.70925e-09
-8.87402e-09
8.11763e-09
2.46564e-09
-1.86227e-09
6.56919e-10
-1.38632e-08
-1.35006e-10
-1.05633e-10
1.04149e-10
8.19104e-10
-8.45669e-09
7.43614e-10
1.72995e-08
-1.60479e-09
-1.24361e-08
1.3781e-08
-1.34494e-09
1.21863e-08
1.39763e-08
-1.55208e-08
-1.06419e-08
-5.68596e-10
1.03231e-09
-4.63719e-10
4.89572e-10
-4.75583e-10
-1.39888e-11
5.90028e-10
-4.50503e-10
-1.39524e-10
1.44374e-09
-1.17577e-09
-2.67977e-10
-1.06853e-08
7.73745e-10
9.91159e-09
2.09276e-09
-6.49014e-10
8.95466e-09
-1.53731e-08
7.40185e-09
-8.90919e-09
5.55429e-11
3.73552e-09
-3.97416e-10
-2.45098e-09
2.50652e-09
-6.65267e-09
7.98352e-09
-1.33085e-09
-6.03401e-10
4.22698e-09
3.20821e-10
1.72734e-08
-1.44862e-08
-1.63919e-09
-5.93557e-09
5.35908e-09
-6.55567e-10
-2.01192e-10
5.96495e-09
-5.96715e-09
2.19615e-12
6.9253e-09
4.49266e-09
1.55855e-11
-1.60168e-08
1.04621e-08
1.7741e-08
5.75361e-09
8.28998e-09
8.21351e-09
-6.8469e-09
1.29917e-09
-1.19845e-08
5.43087e-10
1.10358e-09
-1.29401e-08
2.93323e-09
-4.26711e-10
1.16925e-08
-1.1018e-08
-2.33548e-10
-8.35776e-10
-1.37983e-08
7.54249e-09
7.66309e-10
-1.2363e-11
-8.90499e-09
5.06481e-09
-3.02932e-08
-1.25061e-08
-2.76045e-09
1.46829e-09
1.40651e-08
1.09894e-08
-1.07471e-08
-1.43073e-08
1.54628e-08
-3.1166e-09
-1.23462e-08
1.62855e-09
3.95252e-09
-1.13647e-09
-9.1315e-10
-8.88507e-10
1.18989e-09
6.11768e-10
-2.43462e-10
3.65138e-10
3.6665e-10
6.21373e-08
-6.21625e-08
2.52733e-11
6.20585e-08
-6.23621e-08
3.03649e-10
8.36926e-10
6.47382e-08
-6.55646e-08
8.26487e-10
6.41307e-08
6.07459e-10
-2.24866e-10
-6.65098e-08
9.4518e-10
-6.20493e-08
6.19151e-08
1.34187e-10
1.31554e-09
-6.78254e-08
-6.22087e-08
1.59462e-10
1.24919e-08
-7.86522e-10
1.39723e-09
-3.70157e-09
3.09087e-09
3.40817e-10
-1.20303e-09
9.68497e-10
-6.24067e-10
1.4075e-09
-1.65127e-09
8.67836e-10
1.43113e-09
-1.54733e-09
2.09658e-10
-6.20583e-11
-3.41043e-09
2.82772e-09
-2.06147e-09
2.64418e-09
-5.383e-10
-2.76922e-09
2.521e-09
-3.62248e-09
-5.76072e-09
5.9743e-10
-6.39162e-10
1.25159e-09
1.12441e-09
-6.51333e-09
7.94974e-09
3.05625e-09
1.98258e-08
-4.36295e-09
-7.27071e-10
2.89543e-10
1.03496e-09
-1.00839e-08
-2.61671e-08
5.35232e-09
-4.3205e-09
-3.1576e-09
2.12577e-09
1.09925e-10
2.2311e-11
3.82278e-10
-2.61551e-09
3.37189e-09
8.89221e-09
7.72286e-10
-3.0504e-10
2.1235e-09
-2.35676e-09
1.93932e-09
1.47488e-08
1.32926e-08
-2.69525e-08
3.26896e-08
6.34134e-09
-2.28272e-08
-1.04667e-08
1.84397e-08
-1.79356e-08
1.04852e-08
-1.14048e-10
-1.63249e-10
-1.27003e-09
-1.74665e-09
-2.94625e-09
3.65701e-09
1.50301e-08
-6.03117e-10
-1.377e-08
-5.21039e-10
-2.44729e-09
1.99109e-10
1.54688e-08
1.77198e-08
1.37029e-08
7.11936e-10
-1.65547e-09
-1.27593e-08
-1.60668e-09
5.99353e-09
1.24925e-08
-5.49836e-10
-1.09114e-09
-3.60099e-09
2.7674e-09
3.66131e-09
2.47846e-09
1.44087e-08
4.22192e-09
-1.42282e-08
1.79204e-08
-1.76874e-09
2.5653e-09
-3.44539e-09
1.89229e-09
-4.86327e-09
1.29505e-08
-1.19758e-08
-1.40239e-08
3.68456e-10
8.7922e-09
-1.82803e-09
1.5282e-09
1.55142e-09
-8.6591e-09
7.03506e-10
-4.55051e-09
-6.02457e-09
1.22085e-08
-1.48431e-08
1.1633e-09
1.66789e-09
-2.21328e-09
1.67268e-08
-1.61814e-08
-1.0495e-09
1.41492e-08
3.02445e-09
-4.3746e-09
-1.4023e-08
7.50454e-09
-1.73102e-08
-8.12992e-09
6.7437e-09
5.86563e-09
1.45366e-08
-9.91885e-09
3.05305e-09
9.33144e-09
9.8676e-09
3.83576e-09
-4.17384e-09
2.16754e-08
-1.91099e-08
4.93911e-09
-1.04672e-08
2.17684e-09
5.62466e-09
1.38389e-08
-2.44768e-10
1.27678e-08
-1.35726e-08
-1.8839e-09
1.94705e-09
-9.62415e-10
8.99266e-10
1.09958e-08
-6.38027e-09
7.40906e-09
-1.0865e-08
1.43339e-09
-4.74757e-09
1.14354e-08
-1.19127e-08
-7.55533e-09
9.16298e-09
9.38815e-09
1.28682e-08
7.03464e-10
-1.38164e-08
1.51628e-09
7.98019e-10
-1.10784e-08
-6.72078e-09
1.02439e-08
-1.48809e-09
2.51749e-09
-8.96238e-09
4.80604e-09
-5.23103e-09
1.15195e-08
-3.489e-09
-1.17229e-08
3.69237e-09
-4.48604e-09
1.1258e-08
1.90828e-09
1.1362e-09
-5.03103e-09
-1.77243e-08
1.04475e-08
1.23079e-08
7.69032e-10
-1.09622e-08
-9.96045e-09
1.58916e-08
1.25287e-08
2.84669e-09
-9.75069e-09
-1.33043e-08
-3.12787e-10
-1.27453e-08
1.68167e-10
-7.60638e-10
1.16133e-08
1.25209e-08
-8.23081e-09
1.65793e-08
-1.59632e-08
3.60577e-09
-4.61211e-10
1.75115e-09
1.27603e-08
-3.90903e-09
-1.26569e-08
-5.09942e-09
1.59187e-09
4.61114e-09
1.21988e-08
-7.26111e-09
9.03296e-10
-1.57293e-09
8.69978e-10
-1.18095e-09
5.85964e-09
2.63009e-08
-1.82041e-10
-1.01819e-08
1.0364e-08
2.85141e-08
-2.22683e-08
2.20595e-08
1.97102e-08
-1.27077e-08
-2.67133e-09
1.50518e-08
2.04327e-10
-1.21431e-08
-3.97902e-10
-6.02332e-09
-1.88165e-09
2.24402e-09
1.54591e-09
-3.26938e-10
-1.10476e-08
1.1424e-08
-4.94796e-11
3.11267e-09
-5.28428e-09
-1.0992e-08
1.05561e-08
-8.92767e-10
-1.07329e-08
-1.66338e-10
-1.11687e-08
-2.61966e-09
-1.20008e-08
2.19622e-09
7.90069e-09
5.13477e-09
-2.76142e-10
-1.17806e-08
1.17298e-08
5.93775e-10
-8.7608e-09
5.18575e-09
-1.42237e-09
2.35986e-09
-2.34093e-09
-1.30443e-08
-1.27449e-08
1.22867e-08
-1.02298e-08
-1.57856e-08
9.9986e-09
9.2444e-09
8.52117e-10
2.642e-09
-1.28239e-08
1.13703e-08
1.67642e-09
3.94253e-09
3.09073e-10
-5.23698e-10
-2.6224e-10
-4.11824e-09
2.57744e-09
-9.0649e-10
2.08821e-10
-2.4533e-10
3.6509e-11
-2.65635e-09
1.29816e-08
2.20342e-09
2.55505e-09
-1.62665e-10
-1.49011e-09
-4.19788e-10
-2.38323e-09
-3.76911e-10
1.29337e-08
1.00126e-08
-3.5467e-10
6.87365e-09
-1.22854e-09
-5.29044e-09
-9.77206e-09
-5.10559e-09
1.60038e-10
4.87825e-11
4.87311e-09
1.31644e-09
-1.71517e-08
-3.93123e-10
-7.95647e-10
-2.75611e-09
1.01622e-09
2.95672e-09
6.19379e-08
-8.63922e-11
-6.18515e-08
6.23593e-08
1.8841e-10
-6.25477e-08
-1.41477e-08
-1.62044e-10
1.4511e-08
-2.01253e-10
3.01188e-09
-1.86598e-09
2.58406e-09
1.79941e-09
-4.4709e-09
-3.57017e-10
-5.44446e-10
4.41644e-10
-1.06853e-10
4.65098e-10
-3.18969e-10
1.95946e-08
1.08338e-09
-1.58048e-08
-1.74864e-10
-1.93684e-09
1.24351e-08
2.26207e-09
1.78285e-09
5.33398e-09
-2.0835e-09
-7.72337e-08
-2.41774e-08
-4.87551e-09
1.58204e-08
2.40134e-09
-2.22551e-10
-3.06717e-09
-1.14579e-09
4.05614e-10
-3.50959e-10
-1.0354e-08
-3.46658e-10
1.07006e-08
-1.08121e-08
-6.61102e-09
1.07023e-08
-9.43387e-09
8.76147e-09
1.46523e-10
1.57798e-09
9.86059e-09
-9.74954e-09
-1.11052e-10
6.26202e-10
8.40254e-11
1.05514e-08
7.06307e-10
-8.54958e-10
-1.44313e-10
-1.42427e-08
-4.93357e-10
-1.37496e-08
1.25855e-08
-1.18228e-08
-6.603e-08
6.49835e-08
1.04649e-09
2.81297e-10
-2.58986e-10
1.19384e-08
-2.55908e-10
1.05782e-11
-2.04133e-09
2.77056e-09
-3.4332e-09
-1.34811e-08
-1.62931e-09
2.5719e-09
-4.7442e-09
-1.40348e-08
1.6273e-09
5.57742e-09
9.62092e-09
-8.9761e-09
-2.81652e-10
2.5743e-11
-9.33216e-09
-1.32595e-08
1.50544e-10
-6.27e-08
2.35728e-10
6.24642e-08
6.95266e-10
6.34354e-08
-2.24629e-10
-1.52394e-09
-1.44763e-08
1.0734e-10
-6.33938e-08
6.32865e-08
1.85113e-10
-6.29356e-08
6.27505e-08
3.81923e-10
6.18047e-08
1.5087e-10
-6.19556e-08
6.16354e-08
1.69294e-10
-8.78951e-08
8.85046e-08
-2.0387e-12
9.33977e-08
-9.31045e-08
-2.67839e-10
-8.66338e-08
-4.34808e-10
9.33564e-08
-1.83571e-10
-8.49194e-08
-7.69195e-10
9.34871e-08
1.72945e-10
-5.2292e-10
1.96091e-09
9.23631e-08
-6.93192e-08
6.21468e-08
-6.23301e-08
-6.29577e-08
6.14925e-08
1.42946e-10
-3.07992e-09
2.92143e-09
-1.40697e-08
5.4763e-11
1.05275e-10
1.52639e-09
8.78864e-09
-1.13897e-08
3.82905e-08
-3.4507e-08
-1.67236e-08
1.37856e-08
-4.73331e-11
-2.177e-10
1.75239e-10
7.09328e-10
-1.35942e-10
3.34124e-10
4.50908e-09
1.03185e-09
-3.64863e-09
-2.09402e-10
2.53091e-10
-1.5742e-10
-2.54368e-09
1.31306e-08
2.39464e-09
-1.44407e-08
-2.61437e-09
-3.38859e-09
5.58963e-09
1.04522e-09
-2.66902e-09
1.42652e-08
-1.14867e-09
-2.23476e-09
2.65427e-09
-8.1397e-09
-1.90504e-08
-1.34268e-08
7.93268e-09
5.86259e-09
-2.43346e-10
-5.51718e-10
3.03909e-09
1.44675e-08
2.24362e-09
-1.80107e-09
-4.04418e-10
4.53958e-10
-2.50733e-10
1.59789e-08
-5.57637e-10
-1.57679e-08
-6.16855e-10
-6.84312e-10
3.17381e-10
-2.41505e-10
3.47212e-09
-1.65185e-08
4.91691e-10
-1.56234e-09
-2.15653e-09
-2.347e-09
1.55696e-08
-9.05999e-08
-1.34128e-10
9.1685e-08
-1.91214e-10
-8.91705e-08
-4.77687e-10
9.31078e-08
-2.75708e-10
-9.29185e-08
-5.61091e-10
-1.65026e-09
1.66899e-08
9.19864e-08
-1.98512e-10
2.93413e-11
-2.21332e-10
9.9449e-09
2.53331e-09
-7.69752e-09
-1.21293e-08
-5.67843e-09
8.43804e-09
1.45775e-09
-6.83954e-09
-6.03697e-09
9.01974e-09
-9.5716e-11
1.01489e-08
1.94841e-08
-1.79444e-08
3.07635e-09
-1.26521e-08
3.0715e-09
-6.99802e-08
3.95025e-09
-2.05445e-08
-1.30892e-08
-5.06419e-10
-5.95796e-09
-1.52825e-08
9.09735e-09
-1.51779e-08
4.54936e-10
3.84591e-10
-1.83613e-09
-1.65344e-08
1.69924e-08
7.48632e-09
-7.8862e-09
-4.88712e-09
1.5255e-08
-1.68761e-09
6.97739e-10
-1.05875e-09
2.03812e-10
1.19229e-08
3.31931e-09
7.09091e-08
-1.82221e-08
7.7793e-10
-1.49555e-08
-2.44695e-10
-2.86488e-10
-8.59263e-11
6.09541e-08
-6.12298e-08
-6.33645e-08
-6.31341e-08
-6.35787e-11
-2.62631e-10
-9.25923e-08
-6.04543e-08
6.24153e-08
6.50935e-08
-6.02814e-08
6.45705e-08
-6.0465e-08
6.38013e-08
-6.07328e-08
6.33665e-08
9.23152e-08
2.97432e-10
-6.3879e-09
7.51104e-08
-6.54032e-08
4.79604e-11
-4.79604e-11
5.23253e-10
-3.35214e-10
1.5488e-08
-3.82386e-11
3.82386e-11
3.58984e-10
1.54014e-09
1.38887e-08
1.33626e-08
-2.74299e-09
3.73092e-09
6.49513e-09
1.87562e-09
3.84908e-10
-2.64466e-10
-2.97908e-09
1.45701e-08
1.48471e-08
-4.28101e-09
1.1816e-08
1.95784e-10
1.56411e-10
2.7936e-09
-8.65583e-10
-1.58142e-09
-5.84145e-09
-2.02862e-10
-4.11285e-10
1.53022e-08
2.71983e-10
7.857e-11
1.46985e-08
-2.61141e-08
1.76987e-08
2.63382e-09
1.30656e-09
2.4869e-09
-3.72354e-09
1.92581e-08
-1.80214e-08
-8.70456e-11
2.89277e-10
-1.43981e-09
-7.92108e-08
-7.0759e-08
1.3518e-09
-6.14203e-10
6.58512e-10
2.29544e-08
1.85892e-08
-6.34661e-09
7.97796e-11
-4.32499e-09
-2.49893e-09
2.99567e-08
1.50138e-10
1.48184e-08
7.3582e-08
5.74777e-11
5.23161e-10
-1.66053e-10
-2.26069e-10
-3.69056e-09
2.42083e-08
-1.48651e-08
1.02688e-09
-1.4142e-08
-5.73147e-11
2.03664e-08
-2.86555e-08
9.27822e-10
2.03742e-09
-3.51384e-10
)
;

boundaryField
{
    back
    {
        type            empty;
        value           nonuniform 0();
    }
    ingreso
    {
        type            calculated;
        value           nonuniform List<scalar> 
14
(
-1.54286e-08
-1.54288e-08
-1.54288e-08
-1.54288e-08
-1.54286e-08
-1.54283e-08
-1.54288e-08
-1.54288e-08
-1.54286e-08
-1.54286e-08
-1.54288e-08
-1.5428e-08
-1.5428e-08
-1.54286e-08
)
;
    }
    salida
    {
        type            calculated;
        value           nonuniform List<scalar> 2(1.01411e-07 1.14589e-07);
    }
    front
    {
        type            empty;
        value           nonuniform 0();
    }
    defaultFaces
    {
        type            calculated;
        value           uniform 0;
    }
}


// ************************************************************************* //
