/*--------------------------------*- C++ -*----------------------------------*\
  =========                 |
  \\      /  F ield         | OpenFOAM: The Open Source CFD Toolbox
   \\    /   O peration     | Website:  https://openfoam.org
    \\  /    A nd           | Version:  8
     \\/     M anipulation  |
\*---------------------------------------------------------------------------*/
FoamFile
{
    version     2.0;
    format      ascii;
    class       volScalarField;
    location    "1.6";
    object      p;
}
// * * * * * * * * * * * * * * * * * * * * * * * * * * * * * * * * * * * * * //

dimensions      [0 2 -2 0 0 0 0];

internalField   nonuniform List<scalar> 
5756
(
-1.59492e-07
2.75772e-06
5.31374e-06
4.53571e-06
6.59506e-06
4.7105e-06
5.73547e-06
5.912e-06
7.93806e-06
7.04083e-06
7.21727e-06
9.31647e-06
8.39705e-06
8.57163e-06
9.78488e-06
2.42514e-06
9.95291e-06
1.07177e-05
0.000171261
-1.26798e-06
1.11929e-05
1.13592e-05
1.21398e-05
1.26215e-05
1.27893e-05
1.40645e-05
0.000171315
0.00017151
1.42326e-05
1.3579e-05
0.000170966
1.55166e-05
8.08155e-05
1.56855e-05
9.63877e-05
0.000170932
0.000171543
1.50297e-05
0.000171714
1.69663e-05
0.000171049
1.71284e-05
0.000171266
0.000171334
1.64801e-05
0.000171568
0.00017056
2.03419e-05
1.8022e-06
9.82463e-05
8.7414e-05
2.05013e-05
1.9853e-05
2.17964e-05
1.80898e-05
0.000110914
2.19599e-05
0.000170876
9.98887e-05
0.000171138
1.90508e-05
0.000171186
0.000171506
8.26422e-05
2.326e-05
2.1307e-05
0.000169342
6.68009e-07
0.000107825
2.34237e-05
0.000170956
0.000171209
1.42772e-06
2.47247e-05
0.000109634
2.03427e-06
2.27687e-05
2.48898e-05
0.000171196
-6.1728e-06
9.3301e-05
0.000171329
9.96258e-05
2.61883e-05
2.4233e-05
2.05647e-06
2.63489e-05
0.000171611
0.000171262
8.21458e-05
0.000112142
2.56967e-05
2.73249e-05
1.46955e-06
1.7609e-05
1.85704e-05
8.41565e-07
2.82992e-05
0.000166475
2.68378e-05
2.78125e-05
2.87859e-05
2.92647e-05
1.79304e-05
0.00017127
3.7793e-07
1.25269e-06
2.97418e-05
3.02305e-05
5.7289e-07
1.88971e-05
0.000171052
0.000171247
0.000171489
0.000106062
0.000171275
-2.72363e-06
0.000171285
0.000171301
9.70208e-05
0.000106457
-5.07604e-06
0.000171292
2.83051e-05
0.000102889
0.000171315
6.67634e-07
2.73301e-05
5.97817e-07
1.21592e-06
0.000170757
0.000171281
1.50196e-06
0.000171157
9.84442e-05
2.48944e-05
0.000171295
0.000171223
0.000171018
0.000171285
2.34232e-05
0.000171201
0.000171575
9.60968e-05
0.000104382
0.000171288
0.000107396
1.2818e-06
2.19596e-05
0.00017131
0.000171162
-2.51282e-06
2.05033e-05
8.46938e-05
1.70307e-06
0.000168964
1.90616e-05
0.000171308
0.000171131
0.000101507
0.000171489
9.50484e-05
-4.0585e-07
0.000171229
8.21155e-05
-4.02336e-06
0.00017136
0.000171396
4.74452e-07
0.000171207
0.000171304
0.000171233
2.984e-05
9.73424e-05
0.000171292
0.00017156
-1.34961e-06
0.000171374
1.69468e-06
0.000171063
0.000170865
0.000171767
9.52575e-05
8.84727e-05
0.000169105
0.000171408
1.84658e-06
0.000171539
2.93462e-05
0.000171276
9.96657e-05
0.000171409
0.000171277
0.000171205
0.000171291
8.32571e-05
0.000171217
0.000171259
2.88597e-05
0.000100161
2.17652e-06
0.000171284
0.000171295
0.000171243
0.000171141
0.000166604
0.000171286
0.000171222
0.000171086
0.000170926
2.71622e-05
0.0001713
3.37802e-05
-3.90407e-07
0.000171277
0.00017126
8.80191e-05
0.000171304
9.80388e-05
0.000171586
0.000171277
-5.04347e-07
8.59872e-05
9.88725e-05
0.000171258
0.000171277
9.76872e-05
2.47997e-06
0.000171212
0.000171315
0.000171236
0.000171303
0.000171451
1.86678e-05
4.73917e-05
2.11114e-05
-1.12308e-06
0.000170882
0.000170661
0.000170855
0.000171293
0.000171293
2.3756e-06
0.000171251
0.00010099
0.000170915
0.000171296
0.000170884
0.000171296
0.000171085
0.000171169
0.00017115
0.000171322
0.000171317
0.000171171
2.8301e-06
0.000171292
0.00017129
0.000171302
0.000171259
0.000171226
-1.27335e-06
0.000171265
2.81368e-05
0.000171038
0.000171194
2.70322e-06
0.000171671
0.000171297
0.00017173
0.000171442
0.00016472
-1.90207e-06
0.000171311
0.000171264
3.18828e-06
9.66363e-05
0.000170924
0.000171288
0.000171205
0.000170843
0.000171249
0.000171136
0.000171283
0.00017131
0.000170184
0.000171321
8.71311e-05
-2.92268e-06
3.40947e-06
9.57041e-05
9.63579e-05
0.0001712
0.000170849
0.000171355
0.000171269
0.00010532
0.000171311
0.000170662
0.000171304
4.55712e-06
3.45121e-06
4.389e-06
4.80808e-06
4.37527e-06
5.19786e-06
5.60453e-06
6.01714e-06
6.4457e-06
6.87784e-06
4.82876e-05
5.26381e-05
5.40939e-05
5.55501e-05
5.70078e-05
5.84662e-05
5.99239e-05
6.52614e-05
6.67198e-05
6.81797e-05
7.15732e-05
5.21546e-05
5.36097e-05
7.30288e-05
5.5065e-05
5.65231e-05
7.44839e-05
5.7981e-05
5.94398e-05
7.59396e-05
4.97604e-05
5.07298e-05
5.16969e-05
7.73953e-05
6.47763e-05
6.62347e-05
7.88514e-05
6.76952e-05
7.109e-05
7.25449e-05
4.925e-05
6.14068e-05
8.22329e-05
5.02199e-05
7.40001e-05
6.23764e-05
5.11877e-05
6.3348e-05
7.54552e-05
6.43174e-05
8.3679e-05
7.69108e-05
4.87924e-05
7.83683e-05
8.51302e-05
6.9664e-05
8.17521e-05
7.06331e-05
5.31507e-05
8.3198e-05
5.4606e-05
6.08969e-05
8.46472e-05
6.18663e-05
5.6063e-05
6.28377e-05
5.75203e-05
6.38065e-05
5.89796e-05
7.32142e-06
6.04373e-05
8.03368e-05
8.65893e-05
6.91525e-05
8.13025e-05
7.01233e-05
8.80663e-05
6.57749e-05
9.28638e-05
6.72333e-05
9.32835e-05
8.95761e-05
6.86912e-05
2.81582e-06
9.11517e-05
8.61026e-05
7.2087e-05
8.75727e-05
7.35411e-05
7.98224e-05
8.07891e-05
7.49968e-05
8.9069e-05
9.27267e-05
7.64546e-05
5.06937e-05
5.11759e-05
9.0617e-05
5.16602e-05
5.21439e-05
7.79109e-05
5.26271e-05
4.77807e-05
5.40783e-05
7.93664e-05
7.76889e-06
5.55347e-05
5.69957e-05
5.8456e-05
9.37119e-05
8.61394e-05
8.71136e-05
8.76033e-05
5.99143e-05
8.27497e-05
8.90831e-05
8.85871e-05
9.05931e-05
6.13701e-05
6.18561e-05
8.41997e-05
6.23394e-05
9.00841e-05
6.2824e-05
6.33083e-05
6.37935e-05
6.42776e-05
9.16358e-05
8.5653e-05
6.47638e-05
6.5248e-05
9.22725e-05
6.67078e-05
9.32998e-05
6.81724e-05
6.96259e-05
7.01119e-05
7.0596e-05
7.10797e-05
7.15621e-05
5.35942e-05
5.30839e-05
8.21991e-06
5.12143e-05
5.02451e-05
4.9276e-05
6.09228e-05
6.18916e-05
6.38335e-05
6.28623e-05
7.01492e-05
6.91779e-05
7.98515e-05
8.08202e-05
9.67453e-05
5.50481e-05
5.45383e-05
7.30141e-05
5.65078e-05
9.21742e-05
5.59958e-05
5.79682e-05
5.74561e-05
7.44676e-05
5.94291e-05
5.89154e-05
6.08844e-05
6.03717e-05
7.5923e-05
9.5435e-05
7.73785e-05
6.62197e-05
9.41668e-05
6.57082e-05
7.88376e-05
6.76852e-05
6.71693e-05
6.91419e-05
6.86295e-05
8.02854e-05
9.54867e-05
8.07688e-05
7.25285e-05
8.1249e-05
7.20188e-05
8.17287e-05
4.78071e-05
7.39817e-05
7.3473e-05
8.22072e-05
7.54379e-05
7.49269e-05
7.6892e-05
9.48372e-05
7.63827e-05
8.36437e-05
7.83509e-05
7.78401e-05
7.98034e-05
7.92954e-05
8.50905e-05
8.6751e-06
9.704e-05
9.61924e-05
8.31661e-05
8.2665e-05
8.70245e-05
9.76206e-05
8.4608e-05
8.41066e-05
9.1331e-06
9.67122e-05
9.63468e-05
8.60615e-05
8.55568e-05
8.65311e-05
8.85278e-05
9.71991e-05
9.76577e-05
8.75415e-05
9.55496e-05
9.36031e-05
9.59183e-06
9.45273e-05
8.80199e-05
4.70044e-05
9.48127e-05
4.84539e-05
9.58433e-05
5.03942e-05
5.08775e-05
8.90734e-05
5.20532e-05
9.41733e-05
9.41269e-05
9.37526e-05
5.76799e-05
5.81697e-05
5.47628e-05
9.0211e-05
9.62722e-05
5.42789e-05
6.10807e-05
6.15643e-05
5.91323e-05
9.38979e-05
9.12756e-05
9.34792e-05
6.25308e-05
4.65171e-05
6.44691e-05
4.79753e-05
4.75459e-05
9.18842e-05
6.68993e-05
4.94302e-05
4.89353e-05
4.99029e-05
9.43095e-05
9.11086e-05
6.84291e-05
9.2525e-05
6.54428e-05
5.28258e-05
9.28616e-05
5.14385e-05
5.15705e-05
5.33085e-05
5.37882e-05
6.49555e-05
8.96025e-05
5.96123e-05
5.62213e-05
1.00541e-05
5.67052e-05
5.52449e-05
5.71853e-05
9.31991e-05
6.89203e-05
6.20476e-05
5.58131e-05
6.01114e-05
9.29601e-05
6.0588e-05
6.35064e-05
6.39817e-05
6.30109e-05
5.86603e-05
7.37045e-05
3.15041e-05
6.64234e-05
9.33458e-05
7.51594e-05
7.32214e-05
6.59273e-05
6.73797e-05
9.30632e-05
3.2962e-05
6.79437e-05
9.23398e-05
7.80829e-05
7.02994e-05
9.17457e-05
7.07754e-05
1.05187e-05
7.85703e-05
7.12709e-05
8.96634e-05
3.44282e-05
7.00219e-05
7.17524e-05
1.51373e-05
7.22465e-05
7.90588e-05
1.85248e-05
7.27277e-05
7.56386e-05
3.56411e-05
3.05084e-05
3.07587e-05
3.61276e-05
1.99728e-05
3.19604e-05
9.17983e-05
9.13778e-05
3.22389e-05
7.41881e-05
8.24515e-05
6.94096e-05
7.61326e-05
9.11736e-05
8.95622e-05
7.46901e-05
7.66133e-05
9.17037e-05
7.71086e-05
9.07597e-05
3.34204e-05
2.14294e-05
5.96248e-05
7.75875e-05
3.37041e-05
3.48817e-05
8.12146e-05
3.78358e-05
8.13974e-05
1.09868e-05
3.51601e-05
8.02466e-05
1.6931e-05
1.5963e-05
8.39104e-05
9.06214e-05
1.70692e-05
1.61012e-05
7.9623e-05
8.89343e-05
1.46488e-05
1.80392e-05
1.45129e-05
2.28909e-05
9.00965e-05
3.904e-05
9.26495e-05
1.7902e-05
7.03732e-05
7.97643e-05
8.29351e-05
8.75116e-05
1.94874e-05
1.93527e-05
9.0085e-05
3.68319e-05
9.0641e-05
8.8462e-05
3.71061e-05
9.07743e-05
3.95184e-05
8.43907e-05
8.68215e-05
9.06972e-05
3.19679e-05
3.05029e-05
3.82944e-05
4.63528e-05
8.79901e-05
2.0807e-05
2.90435e-05
2.09397e-05
3.85669e-05
3.94371e-05
3.99993e-05
8.70311e-05
8.98626e-05
9.19869e-05
3.79801e-05
8.65517e-05
3.34235e-05
7.5648e-05
8.799e-05
8.95593e-05
8.48935e-05
9.13623e-05
4.04816e-05
2.75824e-05
2.43522e-05
8.6067e-05
8.04248e-05
8.34391e-05
2.70942e-05
3.65222e-05
3.88092e-05
8.84524e-05
6.95409e-05
8.55821e-05
8.58547e-05
8.53594e-05
2.23999e-05
8.07272e-05
9.00923e-05
4.09696e-05
2.66061e-05
4.02673e-05
8.90435e-05
8.63213e-05
3.73526e-05
4.04006e-05
3.39104e-05
3.89491e-05
3.60307e-05
2.22661e-05
2.95325e-05
3.09929e-05
2.80709e-05
8.94018e-05
3.24555e-05
1.1457e-05
8.73801e-05
3.74903e-05
3.5897e-05
9.01441e-05
3.54103e-05
8.89045e-05
2.58129e-05
4.14596e-05
8.17039e-05
3.48823e-05
8.85354e-05
8.51007e-05
2.37262e-05
4.06867e-05
8.91337e-05
4.60914e-05
4.57426e-05
8.85658e-05
6.98188e-05
2.96166e-05
3.49241e-05
5.57411e-05
2.38618e-05
8.75244e-05
5.96936e-05
3.10766e-05
9.03343e-05
3.43952e-05
8.8032e-05
4.74808e-05
8.4616e-05
8.9039e-05
2.81571e-05
3.53682e-05
8.44089e-05
4.19534e-05
3.25391e-05
2.61197e-05
8.99659e-05
4.1859e-05
1.19332e-05
2.55728e-05
8.75338e-05
2.85555e-05
6.05968e-05
8.37136e-05
2.50843e-05
8.86104e-05
3.66396e-05
8.41327e-05
8.95564e-05
2.95673e-05
5.13652e-05
6.03061e-05
3.00157e-05
2.53228e-05
4.24408e-05
3.71231e-05
5.893e-05
9.10557e-05
2.66472e-05
9.14219e-05
4.29447e-05
9.06765e-05
8.70397e-05
1.19219e-05
8.70802e-05
8.80637e-05
6.07893e-05
8.91257e-05
5.98247e-05
2.71344e-05
4.33151e-05
7.26322e-05
3.61527e-05
4.1371e-05
4.25176e-05
5.80695e-05
9.15599e-05
3.0054e-05
8.23886e-05
5.71911e-05
9.09752e-05
6.12747e-05
8.80967e-05
8.75185e-05
8.65479e-05
9.09521e-05
7.11636e-05
1.24087e-05
8.75936e-05
5.55206e-05
1.17201e-05
5.60063e-05
2.76212e-05
5.94194e-05
7.30748e-06
1.64455e-05
2.87275e-05
7.06776e-05
2.6782e-05
7.82984e-05
6.72214e-06
6.51608e-05
5.3793e-05
8.99568e-05
8.60595e-05
8.70939e-05
6.84899e-06
9.12273e-05
3.29801e-05
9.16459e-05
3.66178e-05
7.84735e-05
1.74156e-05
8.87587e-05
1.57003e-05
5.46662e-05
7.34953e-05
4.29274e-05
6.71811e-05
2.85034e-05
2.7756e-05
4.1243e-05
4.73441e-05
5.17347e-05
6.98056e-05
4.45512e-05
6.55169e-05
8.53752e-05
7.8955e-05
6.17583e-05
8.40084e-05
1.71539e-05
2.85944e-05
7.05736e-05
2.81081e-05
1.47883e-05
7.87894e-05
3.4205e-05
5.26033e-05
8.29651e-06
1.81283e-05
5.79584e-05
4.36377e-05
8.55732e-05
8.22777e-05
3.35962e-05
3.34734e-06
3.58505e-05
6.25473e-06
1.21989e-05
4.28253e-05
7.39874e-05
1.65883e-05
5.28239e-06
2.5186e-05
6.42526e-05
4.00401e-05
3.43569e-05
4.49374e-05
3.4001e-05
9.10484e-05
2.0989e-05
5.06626e-05
8.56163e-05
4.68877e-05
4.2695e-05
8.6616e-05
3.20492e-06
7.78052e-05
3.27239e-05
7.27349e-05
8.10028e-05
4.80319e-05
2.34652e-05
0.000111619
8.65977e-05
8.61116e-05
3.34668e-05
8.60413e-05
1.32408e-05
5.45607e-05
3.90672e-05
1.28863e-05
2.50381e-05
6.66907e-05
1.61862e-05
3.20037e-05
8.96228e-05
8.51119e-05
4.37969e-05
4.39058e-05
5.62897e-05
4.02195e-05
3.76077e-05
5.07663e-05
1.76744e-05
4.86505e-05
8.50878e-05
2.00563e-05
9.16776e-05
1.42987e-05
7.25245e-05
3.56645e-05
9.16756e-05
8.61997e-05
5.02768e-05
5.73895e-05
4.77173e-05
3.40041e-06
4.29652e-05
1.47448e-05
2.44401e-05
8.46791e-05
4.34154e-05
9.16012e-05
8.61306e-05
9.09816e-05
8.55916e-05
4.34349e-05
7.17572e-05
4.34112e-05
6.19361e-05
4.21269e-05
4.65794e-05
4.49082e-05
1.28218e-05
4.8558e-06
4.17587e-05
8.4604e-05
3.05396e-05
1.37319e-05
4.24808e-05
3.56773e-05
2.73825e-05
2.35738e-05
9.04764e-05
4.43818e-05
5.28153e-05
3.85805e-05
4.81623e-05
7.31153e-05
2.78697e-05
5.28896e-05
3.41679e-05
5.95162e-05
1.2415e-05
1.42265e-05
7.95301e-05
7.90864e-05
4.74917e-05
9.16284e-05
8.44993e-05
4.20254e-05
4.80498e-06
4.481e-05
7.81247e-05
9.08704e-05
2.89281e-05
9.14723e-05
3.98188e-05
3.80548e-05
9.11689e-05
8.51641e-05
8.94283e-05
8.41633e-05
5.18403e-05
3.4695e-05
4.3345e-05
3.32327e-05
3.51436e-05
8.00199e-05
4.39748e-05
4.50976e-05
3.08145e-05
7.59281e-05
7.84665e-05
1.74036e-05
6.25369e-05
8.60707e-05
4.68317e-05
3.07876e-05
8.56254e-05
2.00908e-05
7.25964e-06
4.29788e-05
4.05239e-05
1.5234e-05
-4.76017e-06
2.0543e-05
5.99292e-05
9.76983e-06
3.03012e-05
7.49566e-05
8.51406e-05
4.98028e-05
3.81835e-05
4.51892e-05
4.9698e-05
6.0388e-05
8.4121e-05
3.02456e-05
4.00383e-05
3.75966e-05
2.6558e-05
1.38053e-05
9.32131e-06
2.64341e-05
1.86022e-05
3.2322e-05
8.64147e-05
1.38476e-05
2.94136e-05
7.99329e-05
8.466e-05
8.56471e-05
6.27155e-05
1.17623e-05
9.1677e-05
1.85354e-05
9.65205e-06
4.92124e-05
5.64204e-05
8.45869e-05
8.36381e-05
6.46696e-05
7.16473e-05
4.44051e-05
4.51414e-05
1.18279e-05
4.34341e-05
6.04841e-05
7.05653e-05
9.09895e-05
4.37381e-05
7.57152e-05
2.75321e-05
3.0453e-05
7.73223e-06
7.83957e-05
4.45568e-05
7.49771e-06
2.25374e-05
9.55878e-05
1.8704e-05
3.28978e-06
8.31566e-05
6.52153e-05
5.07631e-05
8.58187e-05
4.48672e-05
5.80067e-05
8.37035e-05
8.63074e-05
9.21288e-05
4.2438e-05
7.42696e-05
7.65149e-05
7.18202e-05
6.2838e-05
9.10132e-05
1.1541e-05
4.32888e-06
6.70931e-05
3.73951e-05
7.66671e-05
4.10044e-05
5.05891e-05
7.00469e-05
8.93462e-05
8.41487e-05
5.12365e-05
6.32028e-05
5.21807e-05
3.79675e-06
8.27726e-05
7.75968e-05
8.69543e-05
3.08759e-05
2.05807e-05
5.51402e-05
8.35175e-05
2.60581e-05
8.87292e-05
7.83642e-05
8.46307e-05
7.78654e-05
5.93597e-06
4.78269e-05
8.28775e-05
2.70447e-05
3.06752e-05
3.92965e-05
4.21688e-05
5.38549e-05
6.11067e-05
2.61436e-05
5.31658e-06
5.12535e-05
3.23945e-05
9.13082e-06
8.00989e-05
2.53684e-05
5.51453e-05
1.02743e-05
4.97994e-05
9.00115e-05
0.000111212
5.85487e-05
6.59213e-06
7.98951e-05
7.78109e-06
2.25366e-05
7.46794e-05
4.85161e-05
8.13106e-05
8.3143e-05
1.76352e-05
3.60788e-05
8.26757e-05
1.27557e-05
6.90944e-05
2.34318e-05
8.63226e-06
3.80214e-05
2.88633e-05
6.43555e-05
4.72744e-05
3.08091e-05
8.41798e-05
8.17904e-05
4.34853e-05
5.77455e-05
9.05588e-05
4.40965e-05
5.05556e-05
5.89429e-05
2.93517e-05
8.59857e-05
3.81083e-05
6.86673e-05
3.07022e-05
3.70489e-05
6.42484e-05
7.92063e-05
4.68404e-05
1.37665e-05
6.39005e-06
6.96056e-05
5.23371e-05
8.21944e-05
6.2044e-05
3.85895e-05
5.62493e-06
8.24745e-06
1.51994e-05
5.35018e-05
4.23415e-05
7.76398e-05
3.37259e-05
3.81035e-05
7.51879e-05
6.9694e-05
2.48863e-05
2.64403e-05
9.5387e-06
8.57107e-05
7.17873e-05
3.90284e-05
3.75362e-05
7.7987e-05
4.32559e-06
8.75755e-06
1.67429e-05
2.39998e-05
3.29032e-05
7.49695e-05
1.90267e-05
7.00935e-05
7.20446e-05
6.96387e-05
6.48264e-05
4.73831e-05
5.7536e-05
8.31617e-05
6.32845e-06
8.05828e-05
2.78899e-05
4.87675e-05
6.04116e-05
1.48149e-05
7.55419e-05
5.33261e-05
8.22687e-05
8.86627e-05
6.15741e-06
1.77186e-05
8.65578e-05
3.47269e-05
3.81104e-05
5.51058e-05
5.86799e-05
8.12706e-05
4.31545e-05
1.66642e-05
9.03036e-05
6.772e-05
1.71637e-05
1.33672e-05
4.04894e-05
7.63306e-05
3.91464e-05
2.48357e-05
1.3745e-05
4.58216e-05
6.6209e-05
1.7578e-05
3.8593e-05
9.12877e-05
3.57449e-05
8.06969e-05
5.02799e-05
2.11351e-05
7.54975e-05
3.62913e-05
7.20951e-06
6.04674e-05
4.00499e-05
4.34498e-05
7.66837e-05
2.10447e-05
1.56183e-05
1.12698e-05
8.77658e-05
7.34991e-05
9.11559e-05
5.163e-05
5.0667e-05
6.13491e-05
3.85957e-05
3.7143e-05
6.83493e-05
2.80172e-05
2.82428e-05
3.14231e-05
7.76665e-05
8.82548e-05
1.1583e-06
5.64803e-05
5.40733e-05
1.7806e-05
1.275e-05
4.58287e-05
3.90905e-05
2.98121e-05
3.17562e-05
2.29998e-05
6.68696e-06
6.25318e-05
5.70839e-05
6.48026e-05
3.0833e-05
4.39392e-05
2.66274e-05
8.54498e-05
3.65605e-05
3.13637e-05
8.64693e-05
3.96856e-06
8.19623e-05
9.75907e-05
7.08143e-05
7.78825e-05
7.20367e-05
3.02334e-05
9.11205e-05
4.4275e-05
2.93572e-05
4.19738e-05
2.14649e-05
2.50942e-05
4.9067e-06
6.85219e-05
2.14462e-06
5.72522e-05
4.56818e-05
4.9698e-05
6.3722e-05
3.51906e-05
1.93758e-05
5.33025e-05
4.8286e-05
5.31249e-05
5.21207e-05
2.64065e-05
2.90349e-06
9.19831e-05
5.747e-05
1.91941e-05
6.13815e-05
9.14576e-05
4.302e-06
4.59057e-05
9.11493e-05
2.04536e-05
4.07052e-05
8.95163e-05
8.32236e-05
3.62303e-05
5.16388e-05
8.58404e-05
3.22393e-05
5.31985e-05
6.04001e-05
9.09184e-05
1.81585e-05
7.14669e-05
4.38954e-05
6.1433e-06
3.03217e-05
7.20601e-05
6.91917e-05
8.27158e-05
7.98342e-05
2.83425e-05
5.16352e-05
2.76487e-05
8.17038e-05
2.21538e-06
2.41197e-05
6.23554e-05
6.50235e-05
7.45276e-05
7.42126e-05
1.37413e-05
7.84105e-05
5.24061e-05
4.53953e-05
8.81398e-05
5.45797e-05
8.07918e-05
7.44733e-05
6.42907e-05
5.99646e-05
2.49273e-05
2.54476e-05
4.54116e-05
5.74948e-05
6.33229e-05
9.36077e-06
6.23513e-05
5.3683e-05
3.83794e-06
5.41388e-05
1.025e-05
6.78696e-05
7.86066e-05
7.71001e-05
6.87367e-05
4.69937e-05
3.90757e-05
2.78502e-06
6.47385e-05
3.09303e-05
5.70945e-06
3.90365e-05
3.22669e-05
1.74463e-05
5.81947e-06
5.89534e-05
5.26032e-05
3.16451e-06
3.99173e-05
4.97351e-05
3.90751e-05
3.76209e-05
8.48768e-05
0.00010282
3.53283e-05
7.25719e-05
2.19126e-05
3.27495e-05
7.38105e-05
9.06713e-05
6.20421e-05
6.27696e-05
4.63736e-05
4.54317e-05
4.88028e-05
3.98192e-05
7.79248e-05
5.01085e-05
3.03362e-05
6.19057e-05
8.12319e-05
5.90072e-05
4.34524e-05
7.3478e-05
5.86471e-05
8.66858e-05
8.60118e-05
5.42732e-05
8.68016e-05
4.52837e-05
4.4459e-05
8.33678e-05
7.73152e-05
7.97754e-05
6.88696e-05
6.09353e-05
7.54829e-05
7.48657e-06
1.80553e-05
2.79482e-05
6.19439e-06
9.07536e-05
8.02663e-05
-2.67408e-06
9.16684e-06
7.94463e-05
3.71133e-05
7.13e-05
4.26006e-05
5.50441e-05
7.64258e-05
9.18107e-05
5.36483e-05
8.41637e-06
7.74926e-05
3.40811e-05
4.34863e-05
2.66732e-05
2.35172e-05
8.85464e-06
8.5331e-05
6.95759e-05
5.11518e-05
4.25172e-05
2.68956e-05
8.5039e-05
9.01351e-05
4.68064e-05
8.10731e-05
3.97024e-05
3.85419e-05
2.06344e-05
5.65938e-06
5.55142e-05
6.19236e-05
9.07978e-05
4.29202e-05
1.9124e-05
2.8626e-06
5.55945e-05
1.24132e-05
4.2427e-05
1.31759e-05
8.57897e-05
5.89926e-05
4.52474e-05
2.39618e-05
1.65854e-05
2.00921e-05
3.51942e-05
4.14512e-05
7.61262e-05
4.57947e-05
4.88304e-05
7.5417e-05
1.87026e-05
8.86137e-05
1.95725e-05
7.81971e-05
8.27443e-05
3.32005e-05
6.31792e-05
1.32776e-05
1.13098e-05
5.16709e-05
7.46743e-05
3.67002e-05
4.19425e-05
3.72661e-05
4.67086e-05
6.4086e-05
3.73247e-05
8.07492e-05
3.71374e-05
8.93354e-05
2.61574e-05
6.8467e-05
3.39143e-05
7.80735e-05
3.84642e-05
2.15214e-05
3.28082e-05
3.10034e-05
4.92044e-05
4.09617e-05
6.32424e-06
2.66921e-05
2.39525e-05
1.96079e-05
5.02843e-05
1.84112e-05
5.13547e-05
7.06814e-06
3.86433e-05
1.75552e-05
7.06068e-05
4.8208e-06
3.76465e-05
3.44386e-05
3.56932e-05
7.05703e-05
5.2206e-05
1.71373e-05
6.5712e-05
6.0101e-05
3.37458e-05
2.75183e-05
2.21731e-05
2.93136e-05
3.2142e-05
4.53756e-05
7.93374e-05
6.38463e-05
4.71548e-05
1.29154e-05
8.17135e-05
5.66983e-05
3.24531e-05
7.22726e-05
4.91493e-06
6.32514e-05
8.47287e-05
1.17439e-05
1.05142e-05
9.3298e-05
2.16364e-05
7.201e-06
6.72078e-05
1.57218e-05
8.03057e-05
4.57924e-05
3.07749e-05
7.07847e-05
7.34856e-06
3.39881e-06
1.71891e-05
4.8073e-05
9.17727e-05
5.30877e-05
2.8644e-06
7.40457e-05
6.4816e-05
1.90851e-05
4.4421e-05
4.55983e-05
6.93207e-05
3.95152e-05
9.15041e-05
1.81192e-05
2.09575e-05
4.45639e-05
4.1272e-05
2.97183e-05
1.90126e-05
4.93208e-05
4.85579e-05
3.51872e-05
1.90865e-05
6.70084e-05
2.40105e-05
1.87749e-05
8.00114e-05
3.08595e-05
4.16414e-05
3.15109e-05
6.64119e-05
5.11509e-05
6.86089e-05
9.16294e-05
6.49517e-05
2.83921e-05
7.76395e-05
5.31049e-06
2.72835e-05
5.09793e-05
8.4994e-05
3.50572e-05
4.55237e-05
7.8559e-05
4.39179e-05
5.11097e-06
4.08871e-05
7.12639e-05
1.60954e-05
3.41766e-05
6.09689e-05
5.53568e-05
3.95191e-05
3.22223e-05
2.65441e-05
5.26865e-05
7.56972e-05
9.11323e-05
3.31236e-05
6.5749e-05
6.01577e-05
1.83532e-05
8.02297e-05
4.94175e-05
2.52107e-05
5.45432e-05
5.23282e-05
4.43327e-05
2.87443e-05
4.49435e-05
9.27252e-06
6.71723e-05
1.14378e-05
4.29989e-05
4.14875e-05
3.47505e-05
6.30352e-05
5.74603e-05
2.15633e-05
8.07414e-05
5.34833e-06
2.74169e-05
6.69513e-05
4.4756e-05
5.67556e-05
5.91849e-05
2.37464e-05
7.79841e-05
1.30985e-05
4.38434e-05
9.15286e-05
7.22951e-05
7.30476e-06
1.122e-05
2.0294e-06
3.99535e-06
5.50925e-05
6.13968e-05
6.3282e-05
1.61592e-05
5.6037e-05
6.22092e-05
3.71872e-05
8.29858e-05
3.64162e-05
4.75338e-05
5.48125e-05
1.47122e-05
8.82617e-05
5.97277e-05
2.84256e-05
5.23837e-05
5.82132e-05
1.5998e-05
9.24337e-06
8.82054e-05
5.21189e-05
1.07316e-05
8.78428e-05
5.07038e-05
2.03194e-05
2.74642e-05
7.32671e-05
7.20235e-05
1.75549e-05
3.62956e-05
6.82231e-06
6.25851e-05
5.01831e-05
9.0452e-05
7.47248e-05
6.29204e-06
3.45667e-05
5.96697e-05
7.35145e-05
7.3238e-05
2.3877e-05
4.43837e-05
7.22403e-05
3.93304e-05
2.50173e-05
2.6884e-05
6.1878e-05
5.68999e-05
8.98917e-05
9.82177e-06
4.84696e-05
4.49229e-05
5.56268e-05
1.14609e-05
7.37529e-05
4.53909e-05
7.13211e-05
4.04124e-05
1.46933e-05
4.54697e-06
3.21505e-05
4.32095e-05
6.67715e-05
9.26058e-05
2.86413e-05
7.83298e-05
8.91953e-05
7.64225e-05
4.72395e-05
-5.85339e-06
2.29944e-05
7.10554e-05
6.77316e-05
1.45462e-05
7.4952e-05
1.46348e-05
3.46572e-05
8.84094e-05
3.85539e-05
4.87317e-05
4.2456e-05
3.91274e-05
-3.63634e-06
3.89536e-05
3.55559e-05
7.66663e-05
5.18667e-05
5.28313e-05
1.07503e-05
3.99249e-05
2.1931e-05
1.78788e-05
9.11396e-05
1.01377e-05
2.69655e-05
7.61813e-05
4.40694e-05
1.41488e-05
5.21951e-05
7.6248e-05
2.14438e-05
4.78568e-05
4.7048e-05
4.10322e-05
2.25788e-05
3.26377e-05
5.47978e-05
8.68495e-05
4.15167e-05
8.78578e-06
7.77108e-05
1.64724e-05
8.96631e-05
4.33293e-06
8.84393e-06
1.02437e-05
3.30236e-05
7.37331e-05
1.65818e-05
8.54947e-05
3.81579e-05
2.051e-05
6.9382e-05
2.24179e-05
4.75882e-05
4.70358e-05
2.46022e-06
1.58033e-05
3.84653e-05
6.06181e-05
9.28318e-05
5.82696e-05
8.40057e-05
4.24819e-05
5.72993e-05
9.21094e-05
4.34159e-05
6.84081e-05
3.75285e-06
6.06435e-05
7.86458e-05
4.34176e-05
4.09677e-05
5.72396e-05
7.87196e-05
7.06595e-05
6.42541e-05
6.33611e-05
7.20996e-05
6.26254e-05
2.40414e-05
3.56427e-05
8.15274e-05
5.57554e-05
7.97832e-05
4.44242e-05
9.11652e-05
5.94043e-05
4.19966e-05
7.02895e-05
8.18159e-06
7.78796e-05
9.75657e-06
4.4319e-05
5.45645e-05
3.70064e-05
4.53048e-05
7.86817e-05
5.99996e-05
6.64656e-05
6.50066e-05
2.24602e-05
6.40361e-05
7.61793e-05
6.45225e-05
1.9983e-05
9.07879e-05
6.25849e-05
3.19112e-05
3.0939e-05
2.04703e-05
2.44745e-05
8.69768e-05
6.55465e-05
7.03495e-05
8.34717e-05
3.70066e-05
7.64691e-05
3.3779e-05
6.1567e-05
5.77257e-05
2.97457e-05
5.82011e-05
8.00702e-05
4.59255e-05
4.44523e-05
8.73264e-05
5.30029e-06
1.76258e-05
5.38438e-05
4.877e-05
7.27591e-05
1.94978e-05
2.72701e-05
3.74921e-05
5.72216e-05
3.55917e-05
8.22907e-06
5.36364e-05
5.89186e-05
7.81266e-05
5.79296e-06
4.96988e-05
1.17084e-05
7.93864e-05
9.00632e-05
2.05485e-05
4.05813e-05
3.94682e-05
1.21961e-05
5.79454e-06
6.11276e-05
6.78604e-05
1.95725e-05
9.14451e-05
8.14758e-05
5.19553e-05
5.38986e-05
4.81429e-06
4.41714e-05
9.24877e-05
4.10648e-05
7.28042e-05
8.22383e-06
8.88695e-05
8.74587e-05
6.3067e-05
7.32137e-05
5.35725e-05
1.26838e-05
5.60855e-05
6.54933e-05
2.08236e-05
6.20986e-05
3.56762e-05
2.44458e-05
5.28712e-05
5.52986e-05
4.67986e-05
2.01485e-05
8.77973e-05
2.82577e-05
2.3391e-05
7.91006e-05
4.26707e-05
3.45844e-05
8.64201e-06
2.33746e-05
2.29045e-05
1.09641e-05
4.80201e-05
6.11772e-05
4.79653e-05
3.3811e-06
1.69581e-05
5.57838e-05
6.79768e-06
2.11191e-05
4.77563e-05
2.49857e-05
3.02053e-05
1.85265e-05
8.69678e-06
9.3052e-05
1.03279e-05
6.16122e-05
6.79213e-05
7.44473e-05
6.28965e-05
9.77528e-06
4.30976e-06
2.49304e-05
4.85069e-05
7.70031e-05
7.52117e-05
2.10332e-05
6.98654e-05
8.637e-05
3.36098e-05
2.71802e-05
6.11395e-05
2.63106e-05
5.04931e-05
6.18005e-05
6.18302e-05
4.53553e-05
7.95604e-06
4.16251e-05
4.92154e-05
6.3113e-05
2.53381e-05
5.24411e-05
5.0889e-05
9.26124e-06
7.59023e-05
1.22642e-05
9.08381e-05
4.71883e-05
7.541e-05
3.42656e-05
2.54162e-05
6.01725e-05
7.10502e-05
3.51551e-05
4.03087e-05
2.93995e-05
1.16638e-05
1.58682e-05
5.98897e-05
1.51212e-05
1.64035e-06
5.02563e-05
7.18674e-05
2.91595e-06
7.9585e-05
7.33251e-05
5.68136e-05
4.29661e-05
8.93156e-05
3.94394e-05
8.03518e-05
4.94792e-05
6.58208e-05
9.09402e-05
7.16151e-05
6.74369e-05
5.14139e-05
4.68609e-05
7.30744e-05
6.26929e-05
1.22383e-05
4.29941e-05
5.87003e-05
6.35498e-05
2.2504e-05
4.3452e-05
5.60779e-05
3.85562e-06
6.34937e-05
4.39373e-05
6.06939e-05
4.14704e-05
3.11606e-05
1.48374e-05
4.14479e-05
3.66673e-05
9.10677e-06
3.49713e-05
7.96599e-05
1.6873e-06
7.45299e-05
1.81775e-05
6.89525e-05
5.48719e-05
6.88974e-05
4.62291e-05
9.09801e-05
3.65239e-05
2.16057e-05
6.62603e-05
4.08e-05
3.40975e-05
5.60215e-05
2.35196e-05
2.39872e-05
7.72213e-05
4.21127e-05
6.28757e-05
8.34231e-05
8.10421e-05
3.79788e-05
1.85999e-05
2.77707e-05
4.54186e-05
8.5406e-05
8.02576e-05
2.12017e-05
2.99522e-05
4.0095e-05
1.54784e-05
1.97431e-05
8.40622e-05
5.0071e-05
6.96775e-05
1.43526e-05
1.33788e-05
8.25916e-05
1.56707e-05
9.27124e-06
7.13791e-05
3.82385e-05
1.80407e-05
7.72493e-06
6.94381e-05
3.69095e-05
4.6561e-05
4.88362e-05
3.55439e-05
1.49049e-05
2.58238e-05
5.97824e-05
4.95273e-05
1.67687e-05
5.51375e-06
3.52361e-05
4.4398e-05
4.1997e-05
7.19551e-05
8.45511e-05
6.72751e-05
1.45301e-05
3.06911e-05
2.8381e-05
7.63885e-05
7.39623e-05
3.11776e-05
3.03319e-05
3.66155e-05
4.09015e-05
6.81455e-05
5.00111e-05
2.35552e-05
3.97354e-05
1.56079e-05
4.68778e-06
8.3572e-05
6.91164e-05
8.39563e-05
3.33039e-05
5.093e-05
6.74934e-05
7.86138e-05
4.89938e-05
5.8756e-05
7.73596e-05
8.2976e-06
7.93003e-05
3.27155e-05
6.15747e-06
6.13456e-05
8.7938e-05
4.60704e-05
4.41222e-05
4.57745e-05
4.58843e-05
9.03677e-05
6.59806e-05
6.92127e-05
7.78451e-05
1.70682e-05
7.57598e-05
3.60405e-05
7.35564e-05
5.627e-05
2.17772e-05
7.90442e-05
8.58886e-05
9.00437e-05
9.06395e-05
1.91832e-05
7.71528e-05
5.04467e-05
7.47865e-05
8.49228e-05
1.62854e-05
1.0988e-05
8.96174e-05
2.43634e-05
3.33688e-05
3.95708e-05
0.000104356
5.43265e-05
5.18989e-05
3.85643e-05
4.76747e-05
9.23647e-05
2.67972e-05
4.11964e-05
7.08353e-05
6.61984e-05
6.6798e-05
7.21081e-05
6.21048e-05
4.26113e-05
6.72461e-05
1.20218e-05
2.84906e-05
5.9905e-05
5.09108e-06
7.42394e-05
5.85211e-05
8.13188e-05
1.86133e-05
6.08602e-05
3.62126e-05
2.78585e-05
1.76428e-05
5.94224e-06
8.64952e-05
8.36557e-05
2.98859e-05
3.9046e-05
6.57881e-05
6.90067e-05
9.18324e-05
3.71022e-05
2.59929e-05
8.11209e-05
6.27971e-05
5.65982e-05
6.66847e-05
3.95514e-05
4.15484e-05
8.30806e-05
3.16642e-05
6.52253e-05
3.96107e-05
2.64794e-05
1.92581e-05
8.90742e-05
4.10042e-05
1.79297e-05
3.18362e-05
3.18117e-05
4.16787e-05
3.17451e-05
6.37683e-05
6.7764e-05
7.29925e-05
7.08937e-05
1.38659e-05
5.31099e-05
7.18234e-06
3.67817e-05
6.0212e-05
6.09521e-05
7.84199e-05
8.87218e-05
2.83552e-05
1.62648e-05
4.53396e-05
5.69738e-05
1.82193e-05
6.87059e-05
3.44849e-05
8.01456e-05
8.44396e-05
1.77363e-05
2.4851e-05
8.29478e-05
6.08706e-05
7.27212e-06
6.76586e-05
3.50706e-05
9.1125e-05
4.40632e-05
9.11971e-05
6.79798e-05
8.97489e-05
7.18079e-05
9.11255e-05
7.52738e-05
4.83442e-05
2.89113e-05
3.87216e-05
1.36619e-05
3.00998e-05
8.91753e-05
1.72527e-05
6.60364e-05
6.92244e-05
4.49047e-05
2.05569e-05
9.10158e-05
3.15615e-05
3.75892e-05
4.22084e-05
1.76975e-05
3.99995e-05
8.24991e-05
7.3955e-05
3.61296e-05
2.80048e-05
3.03716e-05
2.74531e-05
3.69001e-05
3.36865e-05
6.23139e-05
3.53153e-05
6.37808e-06
2.39208e-05
7.89014e-05
6.99245e-05
8.20129e-05
6.75827e-05
7.80508e-06
1.68383e-05
1.2894e-05
4.6858e-05
3.32917e-05
2.10664e-05
7.40417e-05
8.82194e-05
3.46656e-05
2.02292e-05
6.16595e-05
1.57822e-05
2.348e-05
6.71976e-05
2.92311e-05
3.22295e-05
8.21021e-05
9.57503e-06
7.68205e-05
6.83672e-05
1.81135e-05
8.97432e-05
1.90036e-05
7.27802e-05
6.17253e-05
3.3266e-05
1.27309e-05
4.90415e-05
7.98712e-05
6.45746e-05
7.15399e-05
7.25917e-05
8.06314e-05
7.23524e-05
3.10228e-05
4.04815e-05
1.42038e-05
4.99636e-05
4.00516e-05
3.99436e-05
4.10764e-05
3.13487e-05
6.28923e-05
5.62753e-06
1.66746e-05
4.05943e-05
5.79458e-05
9.01422e-05
3.23228e-05
6.21421e-05
4.36891e-05
8.05556e-05
5.50287e-05
9.01945e-05
8.64639e-05
8.13566e-05
7.83231e-05
6.16229e-05
6.95999e-05
1.26821e-05
8.83051e-05
1.70971e-05
4.53339e-05
8.62696e-05
6.53633e-06
6.83565e-05
1.02745e-05
1.31737e-05
9.65369e-05
2.98004e-05
9.09796e-05
2.22828e-05
7.59838e-05
8.59294e-05
5.21146e-05
2.32375e-05
5.33577e-05
2.25422e-05
6.68201e-06
6.06558e-05
2.63918e-05
7.64068e-05
9.04645e-05
2.44989e-05
5.4057e-05
3.1261e-05
7.2313e-05
6.61917e-05
9.04998e-05
2.07143e-05
2.30677e-05
6.47396e-05
6.86308e-05
2.6424e-05
1.96659e-05
2.25124e-05
4.82382e-05
6.2283e-05
5.11459e-05
5.84315e-05
2.59038e-05
7.9752e-05
1.63533e-05
6.65218e-05
2.39682e-05
1.37127e-05
5.3566e-05
9.74721e-06
5.29276e-05
6.77542e-05
7.91687e-05
3.38542e-05
6.03748e-05
4.48132e-05
5.58408e-05
8.16116e-05
6.50593e-05
5.60008e-05
5.52784e-05
9.12318e-05
1.0775e-05
7.2839e-05
3.46938e-05
5.70496e-05
3.03272e-05
7.06472e-05
8.95226e-05
7.0173e-05
5.17232e-05
2.98399e-05
2.2092e-05
3.76733e-05
5.34127e-05
1.00437e-05
4.75191e-05
5.62109e-05
2.79399e-05
3.14272e-05
8.0352e-05
6.53016e-05
1.42377e-05
5.41827e-05
5.93996e-05
3.57242e-05
5.77848e-05
5.43865e-05
7.1053e-05
5.70595e-05
1.0814e-05
5.12253e-05
4.48826e-05
4.87349e-05
1.56874e-05
2.40763e-06
7.30112e-05
3.80732e-05
6.53074e-05
3.484e-05
4.39024e-05
7.88157e-05
5.63275e-05
1.1249e-05
4.58579e-05
7.61947e-05
4.00016e-05
1.52152e-05
4.35739e-05
8.28602e-05
4.90054e-05
4.7062e-05
7.25076e-05
9.15814e-05
9.47158e-05
2.10339e-05
7.04477e-06
4.58643e-05
4.79937e-05