/*--------------------------------*- C++ -*----------------------------------*\
  =========                 |
  \\      /  F ield         | OpenFOAM: The Open Source CFD Toolbox
   \\    /   O peration     | Website:  https://openfoam.org
    \\  /    A nd           | Version:  8
     \\/     M anipulation  |
\*---------------------------------------------------------------------------*/
FoamFile
{
    version     2.0;
    format      ascii;
    class       volScalarField;
    location    "1.6";
    object      p;
}
// * * * * * * * * * * * * * * * * * * * * * * * * * * * * * * * * * * * * * //

dimensions      [0 2 -2 0 0 0 0];

internalField   nonuniform List<scalar> 
6388
(
1.53078e-05
1.53051e-05
1.45977e-05
1.47601e-05
1.19474e-05
9.63774e-06
1.43431e-05
1.38526e-05
1.45158e-05
1.38252e-05
1.21752e-05
1.37931e-05
1.42867e-05
9.73872e-06
1.42245e-05
1.4183e-05
1.39769e-05
1.05668e-05
1.40914e-05
1.42745e-05
1.41044e-05
1.41084e-05
1.06935e-05
1.09904e-05
1.0641e-05
1.40667e-05
1.43467e-05
1.39663e-05
1.39265e-05
1.47311e-05
1.04159e-05
1.04665e-05
1.17248e-05
1.30519e-05
1.01731e-05
1.19032e-05
1.08701e-05
1.334e-05
1.43258e-05
9.85528e-06
1.41989e-05
1.41393e-05
1.51895e-05
1.08804e-05
1.46361e-05
1.37401e-05
1.53177e-05
1.43709e-05
1.46995e-05
1.42377e-05
1.45923e-05
1.48932e-05
1.43438e-05
1.42183e-05
1.36681e-05
1.46053e-05
1.40923e-05
1.46704e-05
1.42872e-05
1.43325e-05
1.06247e-05
1.46679e-05
1.40465e-05
1.47463e-05
1.37918e-05
1.46009e-05
1.38541e-05
1.4214e-05
1.33661e-05
1.45977e-05
1.36214e-05
1.02943e-05
9.6078e-06
1.3221e-05
1.45796e-05
1.44522e-05
1.0056e-05
1.46472e-05
1.47341e-05
1.05263e-05
1.38437e-05
1.31301e-07
1.14612e-07
1.15459e-07
1.11941e-07
1.27396e-07
1.26732e-05
1.33259e-07
1.12278e-07
1.14647e-07
1.26025e-07
1.05875e-07
1.46054e-05
1.50423e-05
1.41552e-05
1.4931e-05
1.46008e-05
1.00677e-05
1.48663e-05
1.43925e-05
1.40937e-05
1.3507e-05
1.3979e-05
1.38158e-05
1.38513e-05
1.28586e-05
1.44529e-05
1.39259e-05
1.39979e-05
1.45929e-05
1.42836e-05
1.10689e-05
1.13739e-05
1.42783e-05
1.50124e-05
1.4852e-05
1.23595e-05
1.52999e-05
1.43262e-05
1.45859e-05
9.14991e-06
1.45948e-05
1.40737e-05
1.45528e-05
1.07554e-05
1.49655e-05
1.45398e-05
1.42408e-05
1.45614e-05
1.41126e-05
1.11727e-05
1.38915e-05
1.44703e-05
1.49471e-05
1.46046e-05
1.10106e-05
1.0569e-05
1.35912e-05
1.46651e-05
1.38551e-05
1.13465e-05
1.48621e-05
1.40584e-05
1.47452e-05
1.45684e-05
1.41145e-05
1.44193e-05
1.45985e-05
1.42504e-05
1.48729e-05
1.38274e-05
1.48172e-05
1.38112e-05
1.09719e-05
1.3718e-05
1.43252e-05
1.32301e-05
1.45971e-05
1.08173e-05
1.31979e-05
1.4713e-05
1.50794e-05
1.00132e-05
1.32003e-05
1.45995e-05
1.29332e-05
9.52546e-06
9.28194e-06
9.23148e-06
1.45535e-05
9.92696e-06
1.38753e-05
1.40851e-05
1.45991e-05
1.40477e-05
1.04831e-05
1.45414e-05
1.43607e-05
1.48943e-05
1.38595e-05
1.39486e-05
1.3495e-05
1.01755e-05
8.78594e-06
1.40663e-05
1.28936e-05
1.46081e-05
1.08297e-05
1.40522e-05
1.10056e-05
1.13558e-05
1.3663e-05
1.16019e-05
1.52022e-05
1.40149e-05
1.45678e-05
1.46005e-05
1.45751e-05
9.70339e-06
9.26826e-06
8.91029e-06
9.94973e-06
1.45968e-05
8.9561e-06
9.00962e-06
9.24224e-06
9.74933e-06
1.09555e-05
1.45802e-05
1.43963e-05
1.02319e-05
1.07125e-05
9.69099e-06
1.28626e-05
7.14299e-06
6.85408e-06
6.67995e-06
6.64063e-06
1.04804e-05
1.42461e-05
7.09494e-06
1.4653e-05
9.0707e-06
1.06864e-05
1.46007e-05
8.62964e-06
1.14162e-05
7.6083e-06
7.30521e-06
7.11906e-06
7.07766e-06
1.31273e-05
9.00322e-06
1.43913e-05
1.38548e-05
7.54678e-06
1.27851e-05
9.6245e-06
8.32353e-06
1.00208e-05
8.08579e-06
7.88489e-06
7.83523e-06
1.28097e-05
8.52563e-06
8.31386e-06
8.26149e-06
9.01849e-06
1.01004e-05
1.18664e-05
1.45741e-05
9.83322e-06
9.50318e-06
8.98647e-06
8.76111e-06
8.70815e-06
9.47845e-06
9.25852e-06
9.31715e-06
9.50277e-06
5.98274e-06
9.45024e-06
9.75116e-06
5.87772e-06
6.445e-06
8.49025e-06
8.5435e-06
8.76157e-06
6.41408e-06
6.25189e-06
6.21443e-06
6.30899e-06
6.67249e-06
9.52373e-06
1.37948e-05
6.64891e-06
1.45965e-05
1.17418e-05
7.32454e-06
6.75378e-06
8.85739e-06
7.63403e-06
7.30941e-06
1.42936e-05
7.39888e-06
1.45357e-05
8.00225e-06
8.05139e-06
1.40504e-05
9.82617e-06
9.60898e-06
1.38722e-05
1.10018e-05
1.42446e-05
7.97995e-06
8.50203e-06
1.46009e-05
8.15518e-06
9.336e-06
1.42604e-05
1.18401e-05
1.12227e-05
1.46154e-05
7.9644e-06
8.08809e-06
8.40054e-06
7.55582e-06
7.60182e-06
7.7979e-06
7.31349e-06
1.46187e-05
1.1581e-05
1.45223e-05
1.22178e-05
1.00995e-05
1.46132e-05
1.14464e-05
7.74413e-06
1.42578e-05
8.64767e-06
9.10024e-06
1.44437e-05
9.86609e-06
9.1244e-06
8.18926e-06
1.39783e-05
1.32868e-05
1.07652e-05
1.11817e-05
5.68414e-06
7.48388e-07
6.70743e-07
6.916e-07
6.82433e-07
7.48735e-07
6.79136e-06
6.22656e-06
1.11514e-05
1.08072e-05
1.31968e-05
1.36703e-05
6.91015e-06
6.11209e-06
1.44724e-05
6.32982e-06
8.22092e-06
1.42869e-05
6.20568e-06
7.84433e-06
7.36954e-06
7.41328e-06
7.60529e-06
1.05749e-05
1.09118e-05
6.79973e-06
8.65615e-06
1.11887e-05
7.33647e-06
1.199e-05
8.5389e-06
8.05689e-06
8.10758e-06
8.3144e-06
1.016e-05
1.38874e-05
1.22296e-05
5.22186e-06
7.37758e-06
1.40146e-05
6.8522e-06
6.89229e-06
7.07248e-06
6.06817e-06
1.09815e-05
1.1072e-05
8.44862e-06
1.3048e-05
6.53727e-06
7.85885e-06
7.78458e-06
1.38974e-05
1.45883e-05
5.97213e-06
5.82192e-06
5.7864e-06
1.38154e-05
1.39148e-05
7.78146e-06
7.70125e-06
1.45399e-05
7.76284e-06
8.43033e-06
7.11488e-06
7.21242e-06
1.45842e-05
1.10484e-05
7.56537e-06
1.18832e-05
7.12281e-06
7.55569e-06
1.39264e-05
1.42529e-05
1.40833e-05
1.47605e-05
7.33626e-06
8.18629e-06
8.74021e-06
1.42979e-05
1.47683e-05
5.51934e-06
1.37405e-05
1.45907e-05
1.47537e-05
4.92533e-06
4.89385e-06
5.05085e-06
1.24111e-05
1.45636e-05
1.46369e-05
7.00188e-06
1.41246e-05
1.45946e-05
6.32671e-06
6.97858e-06
1.49492e-05
5.05424e-06
5.54827e-06
1.3271e-05
1.4463e-05
8.26824e-06
1.45971e-05
5.62076e-06
1.36095e-05
6.89527e-06
1.14368e-05
5.52251e-06
1.495e-05
6.54036e-06
5.69081e-06
6.88391e-06
6.42864e-06
6.46713e-06
6.63526e-06
1.32502e-05
6.61067e-06
7.95102e-06
5.45491e-06
5.75234e-06
1.4251e-05
5.4332e-06
1.40851e-05
1.15117e-05
7.8442e-06
1.12432e-05
1.28766e-05
6.67753e-06
1.44212e-05
1.33539e-05
5.10809e-06
6.00243e-06
6.03905e-06
6.19519e-06
6.08641e-06
5.07205e-06
5.10925e-06
5.14132e-06
5.2731e-06
6.00789e-06
1.45237e-05
5.14612e-06
7.52549e-06
1.45953e-05
5.98521e-06
1.42457e-05
6.21582e-06
1.1646e-05
1.39424e-05
1.48674e-05
6.1036e-06
1.09581e-05
1.21262e-05
7.11066e-06
5.78467e-06
6.44829e-06
5.47412e-06
6.42806e-06
5.7612e-06
1.46002e-05
9.44154e-06
5.86994e-06
1.46075e-05
5.26774e-06
5.32524e-06
5.857e-06
1.42309e-05
5.28943e-06
1.08174e-05
6.77574e-06
6.55728e-06
1.1647e-05
9.17924e-06
1.48241e-05
1.46038e-05
5.89864e-06
1.35745e-05
5.64727e-06
5.37358e-06
1.46003e-05
1.2223e-05
1.44992e-05
6.29224e-06
1.24412e-05
4.86699e-06
1.47801e-05
1.35719e-05
1.12879e-05
1.43002e-05
1.39405e-05
5.21193e-06
1.17781e-05
4.66022e-06
1.09639e-05
1.23526e-05
1.06393e-05
1.45798e-05
1.21444e-05
1.48109e-05
1.41036e-05
1.42312e-05
1.27342e-05
1.45537e-05
4.9997e-06
1.40507e-05
8.90083e-06
1.38988e-05
1.46003e-05
1.4428e-05
1.31324e-05
1.46426e-05
1.41357e-05
1.1033e-05
1.47793e-05
1.45876e-05
1.46115e-05
1.47663e-05
1.43356e-05
1.48531e-05
1.41814e-05
1.47304e-05
1.46133e-05
1.43421e-05
1.42701e-05
1.32494e-05
1.46195e-05
1.16702e-05
1.43011e-05
1.45521e-05
1.26457e-05
1.45601e-05
1.4404e-05
1.37725e-05
1.04051e-05
1.43033e-05
1.47655e-05
1.3569e-05
1.26009e-05
1.45203e-05
1.35997e-05
1.47482e-05
1.20071e-05
1.24514e-05
1.45186e-05
1.42664e-05
1.46524e-05
1.20304e-05
1.47521e-05
1.08604e-05
1.12848e-06
1.16329e-06
1.06218e-06
1.07395e-06
1.09549e-06
4.26056e-06
4.28792e-06
4.39728e-06
1.38038e-05
1.2156e-05
1.24734e-05
1.40025e-05
1.42437e-05
1.19464e-05
1.45116e-05
1.12363e-05
1.46892e-05
1.46289e-05
1.54069e-05
9.15195e-06
1.25605e-05
1.49246e-05
1.2281e-05
1.48354e-05
1.42566e-05
1.4688e-05
1.46112e-05
1.45812e-05
1.35142e-05
1.45945e-05
1.1037e-05
1.36084e-05
1.46009e-05
1.40932e-05
1.44894e-05
1.47264e-05
1.30643e-05
1.13736e-05
1.45937e-05
1.1219e-05
1.26836e-05
1.44367e-05
4.48771e-06
4.42733e-07
4.37841e-07
4.73147e-07
4.26223e-07
1.38874e-05
4.63146e-07
1.38176e-05
1.44889e-05
9.71658e-06
1.46014e-05
1.29776e-05
1.41094e-05
1.44905e-05
4.42497e-06
1.08414e-05
1.45374e-05
8.55744e-06
1.46057e-05
1.46036e-05
4.00433e-06
1.1707e-05
1.40735e-05
1.39671e-05
1.09377e-05
4.21349e-07
5.07882e-07
4.47769e-07
4.58536e-07
5.44109e-07
1.3894e-05
1.15245e-05
1.42474e-05
1.24454e-05
1.4177e-05
1.46036e-05
1.32868e-05
1.17657e-05
4.23332e-06
1.32825e-05
1.24708e-05
1.32835e-05
1.04145e-05
1.46736e-05
1.48045e-05
1.48565e-05
1.44562e-05
1.05289e-05
1.48116e-05
1.46109e-05
1.43149e-05
1.06408e-05
1.47136e-05
1.34943e-05
5.11928e-07
4.95143e-07
4.43964e-07
4.33707e-07
4.47771e-07
1.46652e-05
1.45349e-05
1.45141e-05
4.84788e-07
4.5731e-07
4.71762e-07
4.62645e-07
5.01985e-07
1.16021e-05
1.08571e-05
1.42148e-05
9.12367e-06
1.43438e-05
1.4783e-05
1.23936e-05
1.43094e-05
1.17931e-05
1.17259e-05
1.41568e-05
1.37434e-05
1.38543e-05
1.416e-05
1.10859e-05
1.45958e-05
1.45998e-05
1.48771e-05
1.41399e-05
1.43298e-05
1.42082e-05
1.38532e-05
1.36203e-05
1.46641e-05
1.47329e-05
1.45843e-05
1.4855e-05
1.46e-05
1.45005e-05
1.02009e-05
1.14494e-05
1.06415e-05
1.23843e-05
1.39792e-05
1.46687e-05
1.1079e-05
1.42471e-05
1.2152e-05
1.45949e-05
1.41672e-05
1.46014e-05
1.28373e-05
1.18071e-05
1.49686e-05
1.47623e-05
1.46288e-05
7.55352e-06
1.40514e-05
1.42806e-05
1.23728e-05
4.45016e-06
1.46114e-05
1.45113e-05
1.3067e-05
1.46104e-05
5.28864e-06
1.43339e-05
1.34663e-05
8.8804e-06
1.41688e-05
1.46141e-05
1.41382e-05
1.44419e-05
1.00942e-05
4.74825e-06
1.30644e-05
1.18969e-05
1.04436e-05
1.10991e-05
1.01852e-05
1.26479e-05
1.44998e-05
1.31312e-05
1.32701e-05
1.47918e-05
1.45037e-05
1.4585e-05
1.14348e-05
1.43733e-05
9.47171e-06
9.25058e-06
9.1787e-06
7.38354e-07
1.46167e-05
1.45976e-05
1.4444e-05
1.45934e-05
1.3432e-05
6.38103e-07
7.3566e-07
6.6373e-07
6.7747e-07
1.34002e-05
1.35958e-05
1.43321e-05
1.30014e-05
1.45002e-05
1.45706e-05
1.42919e-05
1.41729e-05
1.45501e-05
1.22819e-05
1.45934e-05
1.46729e-05
1.46754e-05
1.32631e-05
1.43782e-05
1.47337e-05
1.46688e-05
1.45989e-05
1.49466e-05
1.36344e-05
9.9802e-06
1.40064e-05
1.44849e-05
1.31734e-05
8.66236e-06
1.46977e-05
1.35054e-05
1.40872e-05
1.28056e-05
1.44937e-05
1.38357e-05
1.12016e-05
1.21548e-05
1.19542e-05
1.36654e-05
1.45988e-05
1.45927e-05
1.08692e-05
9.55939e-06
1.29987e-05
1.4916e-05
1.45844e-05
1.4201e-05
1.47007e-05
1.42301e-05
1.2258e-05
1.53805e-05
1.15903e-05
1.41091e-05
1.07346e-05
9.33234e-06
1.01072e-05
1.45926e-05
1.42929e-05
1.49329e-05
1.4136e-05
1.46282e-05
1.49918e-05
1.45394e-05
9.8736e-06
1.4511e-05
1.40023e-05
1.46037e-05
1.37474e-05
1.01789e-05
1.46551e-05
4.22821e-06
1.45686e-05
1.37793e-05
1.41301e-05
1.3798e-05
5.83556e-06
1.02446e-05
1.47247e-05
1.50341e-05
1.46518e-05
1.4812e-05
4.48597e-06
1.46008e-05
1.42981e-05
1.36345e-05
1.21511e-05
1.40563e-05
1.02038e-05
1.08575e-05
1.05215e-05
1.42517e-05
1.03193e-05
1.03046e-05
2.2952e-06
6.2777e-06
6.11948e-06
6.08243e-06
1.4957e-05
1.46163e-05
1.46006e-05
1.06158e-05
1.4497e-05
1.33855e-05
1.45911e-05
1.19498e-05
1.46088e-05
1.43276e-05
1.45594e-05
4.17377e-06
4.07008e-06
4.04392e-06
1.14986e-05
1.46113e-05
1.39878e-05
1.20619e-05
1.45814e-05
9.33253e-06
1.07162e-05
1.42959e-05
9.63464e-07
8.93936e-07
8.49598e-07
1.38845e-05
2.40218e-06
1.49124e-05
1.41079e-05
6.89117e-06
8.63747e-07
1.37881e-05
1.41634e-05
1.01245e-05
1.04469e-05
1.41806e-05
1.44902e-05
9.48711e-06
9.94877e-06
1.02656e-05
1.09216e-06
1.26948e-05
1.44356e-05
1.07946e-05
1.06233e-05
1.36461e-05
5.47012e-06
1.27255e-05
8.02044e-06
5.90414e-06
1.44793e-05
1.45232e-05
1.1272e-06
1.45341e-05
1.00304e-05
9.72072e-06
1.23764e-05
8.2158e-06
1.31425e-05
8.87519e-06
1.45495e-05
1.95121e-06
1.44817e-05
9.82278e-06
1.45999e-05
8.44012e-06
1.36473e-05
2.02995e-06
1.96714e-06
1.98212e-06
2.03113e-06
1.35283e-05
3.91218e-06
1.19719e-05
2.7787e-06
1.8358e-06
9.56058e-06
2.6138e-06
1.25102e-05
1.41434e-05
1.17326e-05
4.20366e-06
9.02866e-06
1.28309e-05
1.45045e-05
1.40925e-05
1.03996e-05
1.46706e-05
1.49257e-05
4.17963e-06
4.07569e-06
4.04971e-06
1.41495e-05
1.48985e-05
4.85147e-06
4.73168e-06
4.70077e-06
9.10021e-06
8.82963e-06
8.61261e-06
8.55631e-06
2.7469e-06
1.40721e-05
1.66454e-06
1.00352e-05
1.45968e-05
3.91031e-06
1.82111e-06
1.46223e-05
1.45897e-05
3.06057e-06
1.49052e-05
1.46052e-05
1.32072e-05
1.43639e-05
2.25212e-06
2.18245e-06
2.19854e-06
3.78086e-06
2.06516e-06
2.40554e-06
2.34824e-06
2.3312e-06
1.37881e-05
1.37066e-05
3.12029e-06
3.29195e-06
3.18983e-06
3.21132e-06
4.2531e-06
1.91661e-06
1.4643e-05
2.8491e-06
2.76085e-06
2.78012e-06
1.47143e-05
1.41923e-05
1.3184e-06
1.40408e-05
1.44085e-05
2.635e-06
1.4611e-05
1.46026e-05
1.54399e-06
1.50942e-06
1.49653e-06
1.55779e-06
1.05616e-05
1.43023e-05
1.36674e-05
1.35899e-06
1.01703e-05
9.72923e-06
2.69566e-06
1.41935e-05
1.62929e-06
4.01555e-06
3.99817e-06
1.47331e-05
1.33171e-05
1.90071e-06
3.7361e-06
3.62009e-06
3.64387e-06
5.06742e-06
9.92275e-06
3.97113e-06
1.45774e-05
4.21045e-06
3.29123e-06
2.24973e-06
2.17397e-06
1.98979e-06
1.75886e-06
2.6968e-06
2.61327e-06
2.63162e-06
1.42064e-05
2.64498e-06
2.56313e-06
2.58145e-06
7.12058e-06
3.44921e-06
2.34311e-06
4.91486e-06
3.07035e-06
2.97516e-06
2.99556e-06
2.13237e-06
3.56156e-06
3.33711e-06
4.48098e-06
4.5102e-06
4.62466e-06
2.78061e-06
3.69329e-06
1.45838e-05
3.48623e-06
1.25414e-05
1.46783e-05
4.35619e-06
3.92122e-06
3.76898e-06
4.87702e-06
1.45466e-05
4.96634e-06
4.12909e-06
2.19206e-06
2.62763e-06
2.54631e-06
2.56452e-06
3.14093e-06
3.06414e-06
3.04353e-06
1.22925e-05
3.85372e-06
3.82879e-06
3.95166e-06
3.06991e-06
3.43092e-06
1.49069e-06
1.39454e-05
2.87374e-06
1.45993e-05
4.68018e-06
1.47759e-05
3.51391e-06
3.40484e-06
3.42749e-06
6.12088e-06
1.45856e-05
1.36038e-05
1.425e-05
1.14811e-05
1.60998e-06
1.46438e-05
2.47531e-06
2.4159e-06
2.39871e-06
4.70243e-06
1.4573e-05
2.91971e-06
2.84868e-06
2.82923e-06
4.79441e-06
3.77321e-06
1.53361e-06
3.58546e-06
3.49706e-06
3.47416e-06
1.54253e-06
1.70158e-06
1.97816e-06
1.4626e-05
1.38951e-05
3.99683e-06
1.45953e-05
3.53143e-06
4.13879e-06
3.1088e-06
1.46079e-05
3.95906e-06
3.83605e-06
3.86106e-06
2.31247e-06
2.12986e-06
3.77152e-06
2.92253e-06
1.25444e-05
3.68091e-06
4.7137e-06
1.76642e-06
2.4017e-06
3.36428e-06
3.2599e-06
3.28163e-06
2.55829e-06
2.15146e-06
3.33607e-06
1.447e-05
1.4187e-05
1.41869e-05
1.57761e-06
3.70437e-06
1.41898e-05
3.36431e-06
1.38151e-05
3.77413e-06
1.36158e-05
4.65151e-06
2.6189e-06
2.22636e-06
3.47883e-06
1.458e-05
6.35684e-07
7.07856e-07
6.6123e-07
3.59785e-06
2.5252e-06
4.46185e-06
6.69373e-07
1.42698e-06
1.46067e-05
3.53224e-06
3.52197e-06
3.52355e-06
2.32319e-06
2.34017e-06
2.39741e-06
4.20599e-06
3.52285e-06
2.39581e-06
4.56707e-06
4.57534e-06
3.75437e-06
2.39168e-06
1.28447e-05
1.00781e-05
4.59847e-06
2.64659e-06
2.43253e-06
1.7455e-06
6.06599e-06
1.4549e-05
3.54763e-06
3.80933e-06
3.69104e-06
3.71508e-06
2.59819e-06
2.13507e-06
3.55482e-06
1.31285e-05
3.9848e-06
3.83587e-06
3.3744e-06
1.42109e-05
3.98925e-06
9.14404e-07
2.1838e-06
2.13233e-06
2.11645e-06
2.18533e-06
8.96801e-06
1.11763e-06
4.13573e-06
1.44298e-05
4.9409e-06
1.45729e-05
6.5969e-06
1.48147e-05
3.10951e-06
3.1264e-06
5.01341e-06
4.64117e-06
1.2849e-05
4.03094e-06
3.93092e-06
3.90572e-06
5.99587e-06
3.29243e-06
1.01716e-05
1.04956e-05
5.5714e-06
5.60604e-06
5.7501e-06
3.30132e-06
1.40093e-05
3.60199e-06
3.76415e-06
2.81387e-06
1.19531e-06
1.272e-06
1.27067e-05
3.7547e-06
1.15956e-06
4.14322e-06
3.67297e-06
4.91057e-06
8.9129e-07
8.66711e-07
8.60429e-07
9.46961e-07
4.30406e-06
9.05445e-07
8.92493e-07
8.81021e-07
9.62893e-07
9.47844e-07
4.42468e-06
1.39486e-05
3.39642e-06
3.4189e-06
3.50531e-06
5.09503e-06
1.42965e-05
1.42612e-05
3.15675e-06
6.49985e-06
6.33587e-06
6.29767e-06
3.3262e-06
1.38825e-05
1.47431e-05
5.33557e-06
5.50685e-06
5.36929e-06
1.54265e-06
1.4797e-06
1.49263e-06
1.52653e-06
6.76736e-06
1.37718e-05
1.29831e-05
1.40242e-05
3.58426e-06
5.72772e-06
4.07252e-06
9.33068e-06
4.22952e-06
2.81441e-06
3.21033e-06
1.49286e-05
1.71315e-06
1.25498e-05
1.38577e-05
1.38387e-05
2.99835e-06
5.63516e-06
1.40186e-05
4.85853e-06
3.3207e-06
3.21754e-06
4.93325e-06
1.45633e-05
1.1358e-05
1.0998e-05
1.5209e-06
4.80342e-06
3.2687e-06
3.83118e-06
1.14705e-05
5.61997e-06
9.05695e-06
8.83584e-06
8.77667e-06
3.74888e-06
3.9926e-06
5.51646e-06
1.35924e-05
1.35242e-05
1.11335e-06
1.37591e-05
1.39024e-06
1.4933e-06
1.253e-06
1.17462e-06
1.94041e-06
5.30652e-06
2.42267e-06
1.3543e-06
9.56648e-06
3.06652e-06
1.28985e-06
4.40307e-06
4.29325e-06
4.26613e-06
4.4459e-06
4.71272e-06
1.37886e-05
4.53744e-06
1.46815e-05
1.91506e-06
1.37822e-05
4.05443e-06
1.45679e-05
1.06694e-05
3.77171e-06
5.90387e-06
1.45355e-05
7.35912e-06
5.31168e-06
4.47093e-06
2.60676e-06
5.47287e-06
1.08575e-05
4.22464e-06
1.58847e-06
1.70483e-06
3.79449e-06
5.29829e-06
1.49022e-05
5.06021e-06
5.07921e-06
3.10902e-06
1.76361e-06
5.73552e-06
1.27794e-05
5.96311e-06
2.43479e-06
1.44386e-05
6.44843e-06
5.95768e-06
2.17574e-06
4.76969e-06
6.12589e-06
1.62078e-06
2.83969e-06
5.85937e-06
1.37125e-05
1.4544e-05
1.48754e-06
1.46036e-05
1.45905e-05
7.86442e-06
1.68883e-06
1.70256e-06
1.74238e-06
1.75256e-06
1.35437e-06
1.31244e-06
1.3235e-06
1.3641e-06
6.01715e-06
3.54555e-06
1.45652e-05
4.00863e-06
6.34502e-06
3.7041e-06
3.72795e-06
3.82285e-06
5.66045e-06
9.09536e-07
5.86325e-06
6.33635e-06
1.42205e-05
6.31309e-06
1.47762e-05
1.3378e-05
1.36862e-05
1.96048e-06
1.89565e-06
1.9104e-06
1.95592e-06
1.45991e-05
4.19217e-06
1.38827e-05
1.41935e-05
4.83601e-06
1.17746e-06
1.13646e-06
1.07919e-06
1.11269e-06
1.09006e-06
6.91406e-06
4.42917e-06
2.52182e-06
2.89617e-06
5.75235e-06
1.73791e-06
1.41005e-05
1.89366e-06
1.03178e-05
9.999e-06
3.27962e-06
1.15727e-05
2.61087e-06
2.83345e-06
1.45915e-05
3.54628e-06
1.1445e-05
2.75442e-06
3.27765e-06
3.29949e-06
3.38262e-06
3.35949e-06
6.82501e-06
1.45905e-05
1.26939e-05
3.55808e-06
7.41726e-06
5.68923e-06
1.45914e-05
1.43921e-05
4.01025e-06
5.20652e-06
5.52323e-06
1.35202e-06
1.2878e-06
1.30018e-06
1.32788e-06
9.94634e-06
1.02633e-05
1.13708e-06
1.1749e-06
1.26142e-06
1.15077e-05
1.08979e-06
6.30249e-06
1.40392e-06
8.42744e-06
2.36591e-06
5.83983e-06
5.53507e-06
2.85154e-06
6.1197e-06
4.55366e-06
6.1861e-06
1.46608e-05
6.35939e-06
1.45966e-05
1.06626e-05
2.6667e-06
6.14909e-06
9.87804e-06
1.39053e-05
6.23116e-06
2.88942e-06
1.56987e-06
2.46839e-06
3.57597e-06
2.1462e-06
1.74675e-06
8.72624e-06
1.15462e-05
2.42772e-06
1.46107e-05
1.2632e-05
6.20048e-06
3.08407e-06
1.99761e-06
6.68236e-06
1.42128e-05
1.41978e-06
5.97042e-06
6.55201e-06
1.1463e-06
1.45849e-05
7.32417e-06
6.08393e-06
1.43751e-05
1.05225e-05
6.74124e-06
1.45916e-05
5.91471e-06
1.33245e-05
2.20873e-06
6.0893e-06
8.91048e-06
1.34342e-06
1.3143e-06
1.30232e-06
1.36238e-06
1.45825e-05
3.84946e-06
4.08107e-06
9.16855e-07
8.88328e-07
8.97038e-07
9.7003e-07
9.34456e-07
1.42352e-05
1.41145e-05
6.62851e-06
6.43629e-06
6.52254e-06
1.764e-06
7.79357e-06
1.45703e-05
6.22289e-06
6.40351e-06
4.63894e-06
4.52331e-06
4.49467e-06
2.05753e-06
4.37276e-06
3.36542e-06
7.14108e-06
9.87149e-06
3.1082e-06
3.14101e-06
1.43321e-05
1.39997e-05
6.56228e-06
6.3881e-06
1.4344e-05
6.45421e-06
2.01899e-06
8.47953e-06
8.51025e-06
1.46062e-05
3.39199e-06
6.21427e-06
1.41055e-05
3.24037e-06
1.95791e-06
2.23423e-06
1.81065e-06
1.74955e-06
1.76355e-06
1.80555e-06
3.53189e-06
3.40887e-06
6.83582e-06
1.03194e-05
2.27467e-06
2.22249e-06
2.20591e-06
2.27628e-06
8.07596e-06
3.57749e-06
3.9126e-06
3.93748e-06
4.03821e-06
1.37977e-05
7.10612e-06
1.45573e-05
1.33278e-06
4.02057e-06
8.02302e-06
3.41908e-06
6.96602e-06
1.48002e-05
8.23074e-06
1.40369e-06
1.49196e-06
1.39196e-05
1.40029e-05
3.80314e-06
4.58353e-06
1.45915e-05
6.87142e-06
1.50737e-05
6.62242e-06
7.07874e-06
2.64e-06
1.12268e-05
1.11264e-05
1.23367e-05
6.65033e-06
6.48256e-06
6.44347e-06
3.79266e-06
3.55985e-06
3.98643e-06
4.92199e-06
4.79835e-06
4.76893e-06
7.77973e-06
1.41876e-05
7.65932e-06
2.79626e-06
1.93644e-07
1.89321e-07
1.66969e-07
2.00988e-07
1.94015e-07
1.73311e-07
1.78304e-07
1.71992e-07
1.74429e-07
1.68426e-07
6.87573e-06
6.70213e-06
6.66183e-06
1.44136e-05
1.79081e-06
1.39003e-05
4.15996e-06
2.91734e-06
1.41878e-05
2.8286e-06
1.35293e-05
1.10497e-05
4.69882e-06
4.55273e-06
4.58122e-06
1.04524e-05
1.39635e-05
2.21469e-06
1.46936e-05
1.46014e-05
7.57376e-06
4.58939e-06
1.35112e-06
1.43403e-05
8.69107e-06
5.25784e-06
4.28569e-06
7.56372e-06
6.98975e-06
1.37164e-05
1.37679e-05
1.44838e-05
1.45988e-05
7.191e-06
1.432e-05
1.413e-05
1.4495e-05
2.9274e-06
3.04256e-06
7.3397e-06
2.90295e-06
1.47456e-05
4.25526e-06
4.14939e-06
4.12305e-06
5.38009e-06
5.24522e-06
5.21282e-06
1.3916e-05
1.49049e-05
1.64386e-06
5.89563e-06
3.36588e-06
4.15429e-06
3.98478e-06
3.32798e-06
3.6215e-06
8.24136e-06
5.8022e-06
1.458e-05
5.00394e-06
4.49181e-06
1.33846e-05
4.38958e-06
1.45047e-05
3.5996e-06
1.00987e-05
2.46269e-06
1.45965e-05
8.02231e-06
2.96601e-06
2.98624e-06
3.061e-06
1.00706e-05
4.78374e-06
5.77801e-06
8.43352e-06
3.84684e-06
3.87164e-06
3.9702e-06
2.97379e-06
7.57349e-06
4.23456e-06
5.60867e-06
5.46803e-06
5.4343e-06
1.17808e-05
9.63398e-06
4.028e-06
1.40779e-05
4.85171e-06
9.68281e-07
8.04379e-06
6.68305e-06
9.14682e-06
5.33137e-06
5.19851e-06
5.16571e-06
3.63904e-06
5.63249e-06
4.07684e-06
3.23506e-06
7.81068e-06
4.0638e-06
1.41988e-05
1.32515e-05
1.40855e-05
4.98156e-06
8.11123e-06
5.52735e-06
1.3306e-05
2.4569e-06
1.4676e-05
2.29289e-06
1.10534e-05
3.69778e-06
9.97394e-06
1.01532e-05
9.83962e-06
1.35949e-05
1.45913e-05
1.19609e-05
4.93951e-06
3.44229e-06
3.41959e-06
3.52913e-06
8.45661e-06
1.45025e-05
1.3837e-05
5.1423e-06
4.66283e-06
4.28666e-06
3.14152e-06
4.80333e-06
1.4344e-05
9.39585e-07
1.04354e-06
9.74442e-07
9.17777e-07
7.61201e-06
2.52443e-06
3.92779e-06
8.49685e-06
3.78017e-06
7.09946e-06
6.92e-06
6.87862e-06
4.7648e-06
1.42732e-05
4.27983e-06
4.44813e-06
8.66383e-06
8.27574e-06
3.63316e-06
3.65692e-06
3.74961e-06
3.58956e-06
1.49855e-05
1.78829e-06
3.97272e-06
4.74248e-06
1.40895e-05
4.62235e-06
9.76165e-06
1.44767e-05
1.40058e-05
3.59058e-06
1.41514e-05
9.56797e-06
8.91975e-06
1.97431e-06
1.84686e-06
2.45191e-06
1.04218e-05
1.45995e-05
5.10711e-06
4.94834e-06
4.97983e-06
5.76427e-06
5.58505e-06
5.61986e-06
4.37078e-06
1.42213e-05
4.82871e-06
4.76983e-06
6.7615e-06
3.86226e-06
3.09923e-06
3.82636e-06
2.36575e-06
2.34848e-06
2.42339e-06
3.99629e-06
1.46813e-05
4.71953e-06
8.29251e-06
1.41864e-05
4.23625e-06
9.78237e-06
5.00431e-06
3.46517e-06
3.56148e-06
3.50351e-06
2.06916e-06
8.93657e-06
7.14755e-06
8.47867e-06
1.04765e-05
1.24893e-05
5.30273e-06
8.51708e-06
1.43393e-05
8.71454e-06
9.78458e-06
6.99321e-06
5.44199e-06
9.38528e-06
7.45767e-06
1.45925e-05
4.48064e-06
1.37861e-05
4.34034e-06
1.26232e-05
4.53552e-06
2.41886e-06
1.46834e-05
1.00461e-05
1.4549e-05
1.12022e-05
4.34574e-06
3.77623e-06
6.58217e-06
7.17952e-06
6.99828e-06
6.95633e-06
1.19684e-05
8.71348e-06
1.37682e-05
1.52251e-05
3.20272e-06
7.37816e-06
4.55696e-06
6.29758e-06
1.38658e-06
4.36572e-06
6.42958e-06
1.36576e-05
9.16885e-06
1.29026e-05
1.45736e-05
1.61153e-06
3.77698e-06
1.41525e-05
2.54469e-06
1.39452e-05
5.9829e-06
5.83259e-06
5.79682e-06
6.18054e-06
4.79702e-06
8.22418e-06
4.81475e-06
1.42295e-05
5.14244e-06
1.24741e-05
2.11901e-06
8.15469e-06
1.05574e-05
1.21239e-05
7.88018e-06
7.68245e-06
7.63565e-06
5.12785e-06
7.68987e-06
7.41032e-06
7.22331e-06
7.18005e-06
1.05401e-05
5.36756e-06
6.7285e-06
8.21467e-06
3.20399e-06
3.22552e-06
3.30658e-06
1.41464e-05
1.44741e-05
8.0937e-06
1.42353e-05
1.06173e-05
1.02891e-05
7.84441e-06
2.82315e-06
7.81939e-06
7.62345e-06
7.57664e-06
7.56423e-06
7.37357e-06
7.32905e-06
8.89651e-06
3.28401e-06
5.35004e-06
1.43838e-05
1.27207e-05
1.45206e-05
1.47267e-05
1.02195e-05
9.41064e-06
2.51511e-06
2.42609e-06
9.66251e-06
1.45725e-05
7.08767e-06
6.72461e-06
6.55476e-06
6.51546e-06
1.21348e-05
1.0789e-05
1.33954e-05
7.21937e-06
2.20631e-06
1.13773e-05
6.06144e-06
3.90286e-06
1.35018e-05
2.76998e-06
2.75097e-06
2.83899e-06
1.47874e-05
3.611e-06
3.63457e-06
3.72682e-06
4.87927e-06
3.33952e-06
1.98277e-06
4.00526e-06
1.43945e-05
6.5032e-06
4.66159e-06
3.07831e-06
2.57841e-06
9.93136e-06
9.79051e-07
9.26467e-07
9.07833e-07
8.99031e-07
9.45257e-07
1.3773e-05
1.93239e-06
6.6785e-06
8.82936e-06
1.407e-05
5.40088e-06
8.52664e-06
8.31626e-06
8.2624e-06
1.08522e-05
1.37102e-05
1.37545e-05
8.59463e-06
1.17459e-05
7.78305e-06
8.29991e-06
8.0942e-06
8.04269e-06
1.16985e-05
5.70182e-06
8.39358e-06
1.09569e-05
8.35179e-06
8.11776e-06
7.91481e-06
7.86601e-06
7.04845e-07
7.38187e-06
4.46163e-06
1.45881e-05
2.84567e-06
5.39355e-06
3.11785e-06
2.85277e-06
1.45885e-05
9.18886e-06
5.48643e-06
7.16135e-06
2.36792e-06
4.13047e-06
4.15668e-06
4.26311e-06
3.25926e-06
1.10106e-05
1.46032e-05
2.44131e-06
7.50421e-06
1.10205e-05
2.89862e-06
7.10974e-06
3.43999e-06
7.34033e-06
7.78786e-06
1.24016e-05
4.70077e-06
9.10823e-06
3.17997e-06
3.20121e-06
3.28186e-06
1.4377e-05
1.46354e-05
2.20167e-06
1.47814e-05
1.45799e-05
7.27922e-06
5.31723e-06
1.45926e-05
6.84737e-06
3.03457e-06
1.45791e-05
1.27197e-05
1.43069e-05
6.87867e-06
3.29552e-06
2.35416e-06
1.45966e-05
1.50895e-05
3.76347e-06
1.13117e-05
1.4487e-05
1.76547e-06
2.19875e-06
2.13126e-06
2.14731e-06
2.1992e-06
1.24192e-05
3.98843e-06
1.44825e-05
1.38839e-05
8.61859e-06
1.28226e-05
2.86776e-06
4.2268e-06
2.97682e-06
7.96547e-06
8.37612e-06
2.61157e-06
1.97712e-06
1.83092e-06
7.41742e-06
1.21713e-05
5.60365e-06
1.03077e-05
1.23016e-05
7.90038e-06
8.20241e-06
7.91829e-06
4.26238e-06
2.88176e-06
1.45124e-05
3.06836e-06
1.76792e-06
1.70517e-06
1.71903e-06
1.75936e-06
1.10191e-05
4.28741e-06
2.66293e-06
1.15365e-05
2.67899e-06
8.22487e-06
1.39301e-05
4.23813e-06
1.06238e-05
6.05449e-06
5.86621e-06
5.90224e-06
8.86783e-06
1.11771e-05
1.41604e-05
7.55167e-06
8.22385e-06
8.58992e-06
8.37758e-06
8.32388e-06
3.32402e-06
3.57438e-06
9.10295e-06
1.41122e-05
7.77038e-06
9.54283e-06
9.78483e-06
9.48256e-06
7.1704e-06
1.38338e-05
7.6706e-06
1.24336e-05
1.44147e-05
1.48862e-05
2.99039e-06
3.01092e-06
3.08605e-06
1.31171e-05
2.43561e-06
2.41801e-06
2.49525e-06
2.48936e-06
8.67957e-06
1.04457e-05
9.0644e-06
1.47905e-05
1.28782e-05
1.74739e-06
1.69867e-06
1.73828e-06
1.68493e-06
1.24402e-06
1.17502e-06
1.15055e-06
1.13926e-06
1.19869e-06
3.11044e-06
1.20581e-05
9.34743e-06
1.45374e-05
1.25568e-05
1.26571e-05
9.27027e-06
1.46743e-05
3.05173e-06
1.45838e-05
9.01425e-06
8.79646e-06
8.73508e-06
1.44894e-05
8.64938e-06
8.82246e-06
1.13002e-05
5.99127e-06
1.48286e-05
1.48948e-05
2.77804e-06
2.79743e-06
2.86683e-06
1.34524e-05
1.42085e-05
6.65292e-06
8.41004e-06
8.90698e-06
3.81339e-06
1.44801e-05
1.46033e-05
2.87561e-06
1.55858e-06
1.45975e-05
7.80416e-06
9.78006e-06
1.00408e-05
7.85757e-06
4.08762e-06
2.17426e-06
2.10816e-06
2.1239e-06
2.17536e-06
1.45991e-05
1.12451e-05
2.60567e-06
9.96387e-06
9.364e-06
1.99154e-06
2.67179e-06
1.47181e-05
2.5546e-06
2.53674e-06
2.61784e-06
1.4572e-05
1.20828e-05
3.77601e-06
3.48975e-06
3.5126e-06
3.60158e-06
2.66365e-06
8.45985e-06
6.42632e-06
6.26432e-06
6.22639e-06
1.23791e-05
9.54491e-06
1.23908e-05
1.04576e-05
1.41493e-05
4.31075e-06
1.11984e-05
9.30879e-06
1.1565e-05
9.09783e-06
2.83781e-06
2.15549e-06
7.06816e-06
9.50179e-06
1.46716e-05
1.44936e-05
1.45389e-05
1.4352e-05
2.88835e-06
1.32742e-05
1.10062e-05
1.4509e-05
1.46775e-05
1.91741e-06
1.93235e-06
1.97841e-06
1.98239e-06
1.45887e-05
1.0317e-05
1.21953e-05
8.96193e-06
1.15861e-06
3.34653e-06
2.80318e-06
1.09723e-05
1.42459e-05
2.5111e-06
9.60005e-06
1.22542e-05
1.14166e-05
1.45552e-05
5.08448e-06
1.39603e-05
1.4445e-05
1.16462e-05
1.44918e-05
2.24059e-06
2.28401e-06
1.46066e-05
3.31377e-06
1.05054e-05
1.01807e-05
3.14117e-06
3.06216e-06
3.08292e-06
3.16018e-06
1.41138e-05
1.41468e-05
2.6434e-06
1.45549e-05
4.87634e-06
4.72472e-06
4.75476e-06
3.84998e-06
2.37931e-06
3.62943e-06
1.45631e-05
9.79118e-06
1.36876e-05
2.44227e-06
1.26035e-05
2.20534e-06
1.46184e-05
1.04032e-05
2.43546e-06
1.04997e-05
1.01753e-05
1.04385e-05
2.91612e-06
1.37731e-05
1.4015e-05
3.15704e-06
1.01891e-05
2.00572e-06
1.02552e-05
1.4192e-05
1.17208e-05
1.48192e-05
1.45237e-05
1.32101e-05
1.39262e-05
6.91319e-06
1.45977e-05
1.47263e-05
5.54466e-06
5.4062e-06
5.37228e-06
3.19394e-06
1.00049e-05
1.48769e-05
1.46055e-05
9.18307e-06
1.41583e-05
1.30555e-05
1.4604e-05
1.40381e-05
1.42088e-05
1.22536e-05
1.12524e-05
9.89754e-06
1.37783e-05
1.31232e-05
9.51832e-06
9.73275e-06
9.43247e-06
1.44386e-05
1.05555e-05
2.85185e-06
1.46219e-05
2.13293e-06
1.14872e-05
9.60774e-06
1.06512e-05
1.48683e-05
7.32346e-06
7.13827e-06
7.09571e-06
9.69862e-06
1.55066e-06
1.11413e-05
1.07933e-05
3.1835e-06
1.01984e-05
1.05434e-05
1.46431e-05
1.4199e-05
1.46618e-05
1.4182e-05
1.45319e-05
1.34424e-06
1.4436e-05
7.60716e-06
1.48143e-05
9.73297e-06
1.0043e-05
1.41342e-05
1.04444e-05
1.36419e-05
1.4603e-05
1.23455e-05
1.46489e-05
1.42058e-05
1.44914e-05
1.98366e-06
1.0393e-05
1.24964e-05
1.49901e-05
1.44425e-05
8.52675e-06
8.35031e-06
1.1694e-05
1.48963e-05
9.80495e-06
8.06143e-06
7.86039e-06
7.81139e-06
1.4106e-05
1.96084e-06
1.90053e-06
1.91528e-06
1.96705e-06
1.4695e-05
8.66385e-06
1.46013e-05
1.46312e-05
8.92302e-06
1.40972e-05
1.92582e-06
1.41599e-05
1.79349e-06
2.98411e-06
1.69761e-06
1.41405e-05
9.74832e-06
9.93925e-06
9.63246e-06
1.42866e-05
1.26124e-05
1.35237e-05
1.48807e-05
1.45937e-05
1.34932e-05
1.47892e-05
1.33941e-05
9.83221e-06
3.04977e-06
1.36186e-05
1.47012e-05
1.44208e-05
1.11097e-05
1.07674e-05
1.39741e-05
1.4484e-05
1.35263e-05
1.45839e-05
4.6026e-06
1.46745e-05
1.36355e-05
4.89874e-06
1.36064e-05
1.45498e-05
1.05411e-05
1.13e-05
1.00439e-05
9.7338e-06
9.81242e-06
1.46747e-05
1.1661e-05
1.43617e-05
1.17176e-05
1.32548e-06
1.48827e-05
1.9895e-06
2.00484e-06
2.05284e-06
2.05482e-06
2.69259e-06
1.06633e-05
1.34678e-05
2.74843e-06
1.46006e-05
1.02894e-05
1.39466e-05
1.45515e-05
1.0091e-05
1.34201e-06
1.28819e-06
1.2993e-06
1.32889e-06
1.07162e-05
1.03844e-05
1.26821e-05
1.10842e-05
1.17784e-05
1.56016e-06
1.45917e-05
1.46036e-05
1.45848e-05
1.46017e-05
6.64749e-06
1.43721e-05
2.206e-06