/*--------------------------------*- C++ -*----------------------------------*\
  =========                 |
  \\      /  F ield         | OpenFOAM: The Open Source CFD Toolbox
   \\    /   O peration     | Website:  https://openfoam.org
    \\  /    A nd           | Version:  7
     \\/     M anipulation  |
\*---------------------------------------------------------------------------*/
FoamFile
{
    version     2.0;
    format      ascii;
    class       volScalarField;
    location    "5.5";
    object      p;
}
// * * * * * * * * * * * * * * * * * * * * * * * * * * * * * * * * * * * * * //

dimensions      [0 2 -2 0 0 0 0];

internalField   nonuniform List<scalar> 
591
(
0.000127178
0.000127186
0.000127252
0.000127119
0.00012713
0.000127523
0.000127247
0.000127208
0.000120062
0.0001272
0.000127347
0.000126041
0.000127458
0.000122888
0.00012719
0.000127203
0.000127049
0.000127225
0.00012508
0.00012652
0.000127176
1.82392e-06
0.000127337
0.000127108
0.000127281
0.000127171
0.000127193
0.000127241
0.000127171
0.000127264
0.000127302
0.000127277
0.000127302
0.000127298
0.000127304
0.00012669
0.000127298
0.000127197
0.000127318
0.000127225
0.000127171
0.000127294
0.000127198
0.00012723
0.000127291
0.000127305
0.000122458
0.00012731
0.000127149
0.000127308
0.000127229
0.000127272
2.86032e-05
3.51027e-05
5.08885e-05
0.000127265
0.000127313
0.000127294
0.000127307
0.000127116
0.000127213
0.000127153
0.00012717
0.000127564
0.000125702
0.000127182
0.000127203
0.000127308
0.000123644
0.000127257
0.000127169
0.00012731
0.000127258
0.000127291
0.000127296
0.000127269
0.000127143
0.000127307
0.000127129
0.000127081
0.000126944
0.000127312
0.000127283
0.000127225
0.000127318
0.000127156
0.000127232
0.000127302
0.000127273
0.000127044
0.000127287
0.000127196
0.000127223
0.000127152
0.000127317
0.000127265
0.000126885
0.000126744
0.000126888
0.000127317
0.000127251
0.000127194
0.000127319
0.000127119
0.000127315
0.000127203
0.000127207
0.000127259
0.000127332
0.00012732
0.000127232
0.000127286
0.000127134
0.000127302
0.000127316
0.00012733
0.000127231
0.000127264
0.0001268
0.000127194
0.000127186
0.000127574
0.000127231
0.000127095
0.000127305
0.000123071
0.000127322
0.000127273
0.000126941
0.000127297
0.000127157
0.000126857
0.000127291
0.000127249
0.000127301
0.000127197
0.000125952
0.000127323
0.000127174
0.00012679
0.000126867
0.00012722
0.000127301
0.000127316
0.000127313
1.11075e-05
6.94106e-06
5.52946e-06
4.18295e-05
4.00615e-05
9.02795e-06
4.26336e-05
1.97427e-05
4.1634e-05
2.18911e-05
0.000127184
0.000127184
0.000127315
0.000127309
0.000127313
0.00012731
0.000127307
0.000127304
0.000127305
0.000127305
0.000127255
0.000127316
0.000127311
0.000127313
0.000127231
0.000126585
0.000127319
0.0001252
0.000127278
0.0001273
0.000127224
0.000127182
0.000127298
0.000127309
0.000127303
0.000126722
0.000125598
0.000126197
0.000126647
0.000127305
0.000127308
0.000127313
0.000127144
0.000127298
0.000126091
0.000126524
0.000127151
0.000127309
0.000127015
0.000127291
0.000127293
0.000127258
0.000126943
0.000127151
0.000127293
0.000127327
0.000127294
0.000127077
0.000127265
0.000127112
0.000127311
0.000127186
0.000127185
0.00012731
0.000126934
0.000127124
0.000127224
0.000126738
0.000127255
0.000126896
0.000127195
0.000127192
0.000127279
0.000126656
0.000127194
0.000127169
0.000127163
0.00012726
0.000127057
0.000127192
0.000127125
0.000127032
0.000127132
0.000127315
0.000127079
0.000127312
0.00012714
0.000127283
0.000127165
0.000127154
0.000127307
0.000127053
0.00012731
0.000127045
0.000127127
0.000127239
0.000127173
0.000127178
0.000127172
0.000126884
0.000127158
0.000127101
0.000127271
0.000127196
0.000126986
0.000127249
0.000126481
0.000127217
0.000126381
0.000126276
0.000127186
0.000127068
0.000127208
0.000127201
0.000127107
0.000127307
0.000127191
0.000127256
0.000127177
0.000127199
0.00012721
0.000127251
0.00012694
0.000127309
0.000126979
0.00012682
0.000127226
0.000127295
0.000126849
0.000127313
0.000127197
0.000127228
0.000127269
0.000127216
0.000127137
0.000126918
0.000127149
0.00012724
0.000127179
0.000127196
0.000127287
0.000127294
0.000127307
0.000127118
0.00012718
0.000127283
0.000127306
0.0001273
0.000127161
0.000127323
0.000127171
0.00012727
0.000127012
0.00012731
0.000127059
0.000127283
0.000127183
0.000127169
1.54689e-05
2.62724e-05
0.000127112
0.000127213
0.000127314
0.000127086
0.000127311
0.000127194
0.000127309
0.000127291
0.000127043
0.000127281
0.00012716
0.000127306
0.000127216
2.29585e-07
0.000126942
0.000127283
0.000127279
0.000127039
0.000127122
0.000127138
0.000127276
0.000127089
0.000127306
0.00012719
0.000127243
0.000127272
0.000127126
0.000127064
0.00012711
0.00012716
5.08558e-05
0.000127292
0.000127272
0.000127178
0.000127305
0.000127222
0.000127201
0.000127171
0.000127089
0.000127289
0.000127536
0.000127075
0.000127164
0.000127095
0.000127312
0.000127103
0.000127138
0.000127197
0.000127259
2.40974e-05
3.18269e-05
3.80767e-05
1.32909e-05
0.000127096
3.67103e-05
3.05415e-05
0.000127302
2.32598e-05
2.11154e-05
4.14384e-05
1.13034e-05
4.36372e-05
9.19204e-06
4.53917e-05
7.13586e-06
4.69547e-05
5.03495e-06
4.01913e-05
2.76125e-05
3.39716e-05
1.89398e-05
0.000126985
0.000127313
0.000127207
0.000127193
0.000123876
0.000127569
0.000127307
0.000127278
0.000127108
0.000127312
0.000127296
0.000127297
0.000127294
0.000127089
0.000127029
0.000127277
0.000127281
0.000127139
0.000127024
0.000127009
0.000126568
0.000127113
0.000127325
0.000127299
0.000127097
0.000127332
0.00012704
0.000127126
0.000126991
0.000126032
0.000127294
0.000127304
0.000127325
0.000127038
0.000127157
0.000126999
0.000127187
0.000127101
3.08504e-05
2.64939e-05
3.72378e-05
1.56669e-05
0.000127339
0.00012705
2.42211e-05
3.29947e-05
3.92687e-05
1.35018e-05
0.000127158
0.000127246
0.000127155
0.00012714
0.000127562
0.000127241
0.00012703
0.000127292
0.000127204
0.00012632
0.000127154
0.000127122
6.24075e-05
0.000126433
0.000127316
0.000127176
0.00012707
0.000127303
0.000127306
0.000127177
0.00012694
0.000127192
0.000127212
0.000126994
0.000127258
0.00012614
0.000127109
0.000127141
0.000127243
0.000103451
0.000127074
0.000126693
0.000127083
0.000127325
0.000127005
1.46685e-05
2.54333e-05
3.8699e-05
3.2627e-05
1.7703e-05
3.63437e-06
4.61977e-05
6.01083e-06
4.48122e-05
8.18471e-06
4.40086e-05
1.04172e-05
4.26806e-05
1.26043e-05
4.07794e-05
1.7578e-05
3.60697e-05
3.47307e-05
2.83747e-05
2.97107e-05
2.20112e-05
1.67821e-05
1.98412e-05
0.00012731
0.000105396
0.000127101
0.000127092
0.000127315
0.000127209
0.000127322
0.000127064
0.000127548
0.00012729
0.000127283
0.000127634
0.000127046
0.000127473
0.00012702
0.000127242
0.000127107
0.000127316
0.000127129
0.000126989
0.000126982
0.000127493
0.000127594
0.000127329
0.000127313
0.000127314
0.000127279
0.000127314
0.000126939
0.000127135
0.000127317
0.000127084
0.000127587
0.000127159
0.000127156
0.000127031
0.000127286
0.000127288
0.000126615
0.000124495
0.000126242
0.000126863
0.000127083
0.000127006
0.000127556
0.000127316
0.000127262
0.000127253
0.000126752
0.000126807
0.000127316
0.000127288
0.000127202
0.000127243
0.000126775
6.0968e-05
4.31156e-05
0.000127249
0.000127268
0.000126613
0.000126004
0.000127193
0.000126794
0.000126599
0.000127539
0.000127042
0.000127283
0.000127107
0.0001272
0.000122321
5.7157e-05
0.000127238
8.40843e-05
3.49026e-06
2.0273e-06
0.000127154
0.000127167
0.000127287
0.000127317
0.000127308
0.00012732
0.000127299
0.000127161
8.36358e-08
0.000126096
0.000127205
0.000127259
0.000124999
0.000127317
0.000127314
0.00012553
0.000127248
0.00012729
0.000124971
0.000127309
7.92154e-05
0.000127315
0.000126665
0.000127272
0.000125574
0.000126865
0.000126875
0.000127211
0.000127311
0.000127269
0.000127315
0.000127342
0.000127099
0.00011951
)
;

boundaryField
{
    back
    {
        type            empty;
    }
    ingreso
    {
        type            zeroGradient;
    }
    salida
    {
        type            fixedValue;
        value           uniform 0;
    }
    front
    {
        type            empty;
    }
    defaultFaces
    {
        type            zeroGradient;
    }
}


// ************************************************************************* //
