/*--------------------------------*- C++ -*----------------------------------*\
  =========                 |
  \\      /  F ield         | OpenFOAM: The Open Source CFD Toolbox
   \\    /   O peration     | Website:  https://openfoam.org
    \\  /    A nd           | Version:  7
     \\/     M anipulation  |
\*---------------------------------------------------------------------------*/
FoamFile
{
    version     2.0;
    format      ascii;
    class       volVectorField;
    location    "5.5";
    object      U;
}
// * * * * * * * * * * * * * * * * * * * * * * * * * * * * * * * * * * * * * //

dimensions      [0 1 -1 0 0 0 0];

internalField   nonuniform List<vector> 
591
(
(0.000817959 -4.54389e-05 1.23483e-18)
(0.000734711 -4.8956e-05 -6.78436e-19)
(0.00083239 -4.83594e-05 5.8059e-20)
(0.000819004 1.56374e-05 -1.51592e-19)
(0.000815077 2.32928e-05 2.29256e-19)
(0.000602313 -8.56779e-06 -1.4234e-19)
(0.000496077 -0.000361832 8.15454e-19)
(0.000808703 -1.44481e-05 2.13677e-18)
(0.00562647 0.00246553 1.01264e-18)
(0.000783499 -2.6194e-05 2.42943e-18)
(7.46551e-05 0.000180253 1.24421e-18)
(0.000883586 0.00123263 9.65401e-21)
(0.000760495 1.59788e-05 1.32396e-18)
(0.00152474 0.00242593 -8.06776e-19)
(0.000799715 8.25166e-05 -4.51697e-19)
(0.000189501 -0.000254752 3.62187e-22)
(0.000127769 0.000650327 7.22569e-19)
(0.000873437 3.63979e-05 -5.05285e-19)
(0.0020049 0.000458525 4.81483e-19)
(0.0013085 0.00031844 -2.5541e-19)
(0.000788868 4.55437e-05 3.75249e-19)
(0.00413577 0.00773575 5.7713e-20)
(4.52595e-05 8.14387e-05 2.77626e-19)
(0.00080708 -1.40946e-06 -4.5527e-19)
(2.13135e-05 -2.79362e-05 3.68203e-19)
(0.000827788 2.19554e-05 0)
(9.07525e-05 0.00047258 1.64015e-19)
(0.000502903 3.50653e-05 -1.83527e-19)
(0.00070509 7.96907e-05 1.1622e-18)
(0.000818696 -8.55866e-05 5.96372e-19)
(7.15834e-05 1.85054e-06 3.38784e-24)
(5.37465e-05 -5.78628e-05 3.6139e-19)
(5.01719e-05 -5.55548e-06 -4.76036e-20)
(6.0692e-05 -6.04103e-06 0)
(6.49636e-05 -1.79064e-05 1.15858e-18)
(0.00114487 0.000162041 1.85272e-19)
(4.45974e-05 -8.79223e-06 4.58859e-20)
(0.000801233 2.19383e-06 4.1292e-23)
(4.30014e-05 5.73151e-05 2.7258e-19)
(8.91126e-05 -0.000161896 -8.76291e-19)
(0.000500736 -0.000142446 9.81706e-19)
(3.76352e-05 -1.14901e-05 4.6673e-20)
(0.000787983 -1.12918e-05 -1.58018e-18)
(0.000820689 -2.3739e-05 -6.88731e-19)
(2.81414e-05 -1.36856e-05 0)
(6.72812e-05 1.34236e-05 8.74136e-20)
(0.00118356 0.00455201 9.18907e-19)
(8.9906e-05 2.69853e-05 8.86187e-20)
(0.000786922 9.45368e-05 0)
(0.000351505 -0.000103217 6.95985e-19)
(0.00036373 0.000281605 5.25197e-21)
(0.000381755 9.15987e-05 -1.02995e-18)
(0.00595196 0.00941516 -5.72716e-19)
(0.00599397 0.00945227 1.35379e-20)
(0.00584766 0.0105257 1.5604e-18)
(0.000799941 -8.1973e-05 0)
(7.82038e-05 4.17336e-05 0)
(0.000349292 2.85157e-05 7.99725e-25)
(7.66033e-05 1.8337e-05 -3.55383e-19)
(0.000932427 -2.80582e-05 0)
(0.000587675 2.74252e-05 3.24879e-19)
(0.000744902 5.11037e-05 2.22108e-18)
(0.000727737 -9.38343e-06 -5.51167e-19)
(0.00061474 1.33873e-05 -3.2127e-19)
(0.00169115 0.000529851 5.59046e-19)
(0.000813694 -1.17677e-05 -1.15316e-18)
(0.000748044 4.6297e-05 -5.24852e-19)
(9.96567e-05 8.25613e-06 -1.77861e-19)
(0.000811726 0.00237066 0)
(0.00079702 2.32229e-05 0)
(0.000690682 1.23661e-05 -1.40583e-18)
(4.73161e-05 2.19603e-05 0)
(0.000276223 0.000277062 3.35323e-19)
(5.70072e-05 -2.42027e-05 0)
(5.44265e-05 -8.52031e-06 1.63627e-19)
(4.25695e-05 -6.40191e-05 -3.454e-20)
(0.000745109 2.62395e-05 2.48638e-19)
(5.43819e-05 1.5932e-05 0)
(0.000767285 9.01426e-05 4.5121e-19)
(0.000731352 0.000301506 2.16292e-19)
(0.00095022 6.31033e-05 -4.08645e-20)
(5.25281e-05 3.08501e-05 -4.6367e-20)
(5.72787e-06 -5.49121e-05 0)
(0.00041165 0.000227236 1.74602e-19)
(-9.3035e-08 4.23613e-05 0)
(0.000707011 -6.73329e-05 -6.13935e-19)
(0.000531131 -8.77111e-05 0)
(7.99386e-05 4.82108e-06 -1.78969e-19)
(3.49423e-06 -7.19319e-05 0)
(0.000793113 0.000229186 -3.5028e-19)
(3.88098e-06 -3.44239e-05 0)
(0.000407304 0.000321893 -1.20548e-23)
(0.000495205 0.000117955 0)
(0.000785354 2.7534e-05 1.80991e-23)
(2.20458e-06 2.93623e-05 -4.32729e-20)
(0.000419567 2.58721e-05 1.80968e-18)
(0.00100049 8.06895e-05 4.27322e-20)
(0.00106619 1.17209e-05 6.58665e-22)
(0.000732777 0.000639524 2.7439e-19)
(-4.25039e-07 7.81076e-05 0)
(6.85325e-06 -0.00014627 -3.20402e-19)
(1.01334e-05 -0.000246432 -1.12918e-18)
(-4.18619e-06 0.000119255 -6.10978e-19)
(0.000792573 -2.90128e-06 0)
(-3.28248e-06 0.000150019 0)
(0.000766065 -3.42228e-05 2.21012e-18)
(0.0006962 7.2215e-05 1.53206e-18)
(0.000389903 -2.63159e-05 0)
(6.37259e-05 0.000237433 -9.15521e-19)
(-6.73732e-07 0.000232856 5.08165e-19)
(0.000109169 0.000517923 6.4133e-19)
(0.000273918 0.000149536 -9.55862e-19)
(0.000841315 -2.50478e-05 1.38219e-19)
(0.000273349 1.08002e-05 5.44727e-19)
(-9.38755e-07 5.59138e-05 0)
(7.56225e-05 0.000334845 -1.11601e-18)
(0.000308161 0.000329226 -1.65896e-19)
(7.92706e-06 -0.00010648 1.50404e-19)
(0.000615257 0.000741569 0)
(0.000348803 0.000386487 5.89307e-20)
(0.000828262 -1.17556e-06 1.05826e-18)
(0.00060954 -9.17732e-05 -2.76365e-18)
(3.82283e-06 -0.00019606 0)
(0.000806224 -9.89242e-06 -1.14107e-19)
(0.000311432 -3.25018e-05 1.276e-18)
(0.00278809 0.000829359 -3.44902e-19)
(-1.32091e-05 0.000182662 -6.28131e-19)
(-3.40514e-05 0.000230334 1.65909e-18)
(0.000928542 1.84669e-05 -3.98917e-20)
(7.73708e-05 -5.86196e-07 -7.68831e-19)
(0.000769078 5.41356e-05 -3.9873e-19)
(0.000987032 2.39796e-05 -4.20726e-20)
(9.22335e-05 0.000420273 -6.11671e-19)
(0.00045831 8.61594e-05 -5.0681e-19)
(6.26883e-05 -1.1137e-06 1.60198e-19)
(0.00086098 -3.81216e-05 -1.08559e-18)
(0.00163208 0.000253267 -1.15603e-18)
(-4.75712e-06 9.0727e-05 5.08667e-19)
(0.000769641 1.91544e-06 -5.12139e-19)
(0.000866966 0.000525923 -8.05682e-20)
(0.000147105 0.000918613 0)
(0.000537299 6.99195e-05 0)
(0.000255829 6.42047e-05 -1.64281e-18)
(7.12058e-05 6.93149e-05 -1.40996e-18)
(3.83218e-05 2.68432e-05 0)
(0.00439131 0.00828561 -1.09479e-20)
(0.0044045 0.00824313 5.77765e-20)
(0.00457367 0.00842143 -4.15418e-20)
(0.00406153 0.00774963 0)
(0.00424662 0.00797083 6.01052e-19)
(0.00440295 0.00827986 -1.20656e-19)
(0.00386287 0.00770291 5.14072e-19)
(0.0043505 0.0083037 0)
(0.00372225 0.00805075 6.82568e-19)
(0.0043328 0.00831123 2.60142e-19)
(0.000813786 -2.66428e-05 -1.37356e-18)
(0.00070779 8.23733e-05 0)
(0.000218973 8.27729e-05 1.31045e-19)
(6.08827e-05 2.31476e-05 8.94627e-20)
(8.83361e-05 5.60608e-05 6.97772e-19)
(0.000117987 5.39277e-05 -3.50488e-19)
(0.000113456 1.92007e-05 0)
(5.96668e-05 9.37158e-06 8.39457e-20)
(0.000203333 0.000150802 0)
(0.000177209 6.75011e-05 -5.3785e-20)
(0.000328964 0.000232217 -5.22465e-21)
(6.42765e-05 5.34629e-05 -4.49088e-19)
(0.000102696 3.94731e-05 -8.74743e-20)
(9.99161e-05 7.40613e-05 1.34615e-21)
(0.000244487 0.000370351 -6.83449e-19)
(0.000169024 0.00113214 0)
(5.06002e-05 6.08381e-05 3.52017e-19)
(0.000238617 0.00185791 0)
(0.000204405 0.000261913 7.22947e-19)
(4.67267e-05 -8.1747e-06 1.14207e-19)
(0.000454384 0.000172208 -1.76773e-19)
(0.000799195 2.98641e-05 -1.89992e-18)
(5.42197e-05 1.45221e-06 5.82031e-24)
(0.000158394 4.66782e-05 2.30228e-19)
(0.000236317 0.00011747 -9.22826e-20)
(0.000851209 0.000676122 3.43715e-19)
(0.00066277 0.00164616 -9.4752e-21)
(0.000429803 0.00133046 -9.68499e-21)
(0.000994893 0.000550448 0)
(0.000117343 -9.71487e-06 1.14697e-18)
(0.000132207 3.23391e-05 -4.54713e-20)
(0.00040365 -0.000192435 -1.16816e-18)
(0.000792578 4.42468e-05 0)
(0.000181809 5.23318e-05 3.71486e-19)
(0.00021072 0.00142238 0)
(0.00101313 0.000716362 -7.49343e-20)
(0.000798805 4.60982e-05 -1.87186e-19)
(9.93148e-05 -1.77554e-05 -3.07721e-19)
(0.000791016 0.000286733 -2.13495e-20)
(9.14998e-05 -2.51656e-05 -6.1328e-19)
(0.00022552 0.000186757 8.85334e-20)
(0.000223232 0.000312723 -3.53966e-19)
(0.000850314 0.000227811 0)
(0.000766524 1.41513e-05 0)
(0.00025958 0.000155395 1.8124e-19)
(0.000235908 2.78263e-05 1.82769e-24)
(0.000184592 0.00021618 0)
(0.000278103 0.000628004 -5.69061e-21)
(0.000322647 2.19347e-05 0)
(0.000301806 0.000573767 0)
(0.000118194 9.7359e-05 -1.38182e-21)
(0.000775877 -3.34311e-05 -9.59261e-19)
(0.000876047 -2.07238e-05 7.91195e-19)
(0.000137611 7.54665e-05 -1.53765e-19)
(0.000923059 0.000150433 8.7413e-20)
(0.000811904 5.01002e-05 3.35673e-19)
(0.000780874 3.4728e-05 -3.01308e-19)
(0.000968781 0.000401332 0)
(0.000416367 0.000128036 6.40728e-19)
(0.00086133 0.00031001 2.14614e-20)
(0.000538475 0.000171544 0)
(0.000278406 0.000432547 4.20262e-19)
(0.000252696 0.000230764 -8.66118e-20)
(0.0010758 0.000383421 -8.02604e-19)
(0.000576412 0.000123922 -1.83981e-19)
(0.000782771 0.000134514 -7.49599e-21)
(0.000802624 3.32723e-05 9.56746e-20)
(0.00012169 -9.91401e-05 -2.03182e-18)
(0.000710994 0.000368328 2.25007e-19)
(0.000616955 8.04035e-05 2.36406e-20)
(0.000673424 0.000270361 1.26608e-23)
(0.000693526 0.000433162 -4.19807e-19)
(0.000820048 2.72187e-05 9.20932e-20)
(7.93589e-05 9.35865e-05 0)
(0.000621152 0.000431979 -4.78076e-20)
(0.000184238 0.00011784 0)
(0.000362012 0.000516911 -2.69814e-19)
(0.000307438 0.000185219 0)
(0.000643523 0.000213601 3.64597e-19)
(0.000615727 0.000280067 -4.48759e-20)
(8.25955e-05 0.000109864 6.33916e-19)
(0.000913885 0.000100656 -1.60996e-18)
(6.87518e-05 3.04596e-05 2.63912e-19)
(0.000936212 9.21758e-05 -1.66443e-18)
(0.000725897 -2.56352e-05 1.6356e-19)
(0.000774592 -1.47704e-05 1.93886e-18)
(0.000792155 5.48824e-06 -1.34884e-19)
(0.000668828 7.49196e-05 0)
(0.000899694 1.41436e-05 9.09098e-19)
(0.000908233 0.000247354 -4.37926e-19)
(0.000736052 8.35029e-05 -4.91125e-19)
(0.000745598 0.000234263 -9.04599e-20)
(0.000255269 -8.06683e-05 -2.13333e-18)
(0.000706212 9.56624e-05 9.09871e-19)
(0.000564633 0.000569752 0)
(0.000142719 -8.29915e-05 0)
(0.00115023 0.000442566 5.07039e-19)
(0.000855204 -0.000240694 -3.30924e-18)
(0.00122458 0.000413118 5.85282e-19)
(0.00125353 0.000738336 -6.46548e-20)
(0.000784899 5.1582e-05 -2.16418e-19)
(0.000783382 0.000100393 -1.43794e-18)
(0.000750037 0.000110647 1.5948e-18)
(0.00073692 -6.49269e-05 9.82151e-20)
(0.000649561 0.000342292 -4.52002e-20)
(0.000114963 0.000156715 6.549e-23)
(0.00067931 -7.2639e-05 2.72167e-19)
(0.000273304 -0.00015298 -7.55733e-19)
(0.000589861 0.000198138 0)
(0.000656552 3.00519e-05 1.00736e-19)
(0.000639783 4.06989e-06 -3.85875e-19)
(0.000371631 0.000186584 4.02611e-20)
(0.000752916 0.000491509 -1.69837e-19)
(0.000158909 9.64004e-05 1.01031e-25)
(0.000784225 0.000376492 0)
(0.00093857 0.000319096 4.266e-20)
(0.000699931 -0.000117142 -6.31209e-19)
(0.000331996 0.000109055 5.09289e-19)
(0.000868355 0.000406493 0)
(5.895e-05 4.00009e-05 1.37204e-19)
(0.000458361 0.000273276 2.19506e-19)
(0.000434695 -7.77055e-05 -7.27918e-19)
(0.000201217 -0.000121703 -1.08648e-18)
(0.000735075 -4.36395e-05 -4.89774e-19)
(0.000775346 -0.000111115 -1.97975e-19)
(0.000529171 0.000758227 -1.18496e-18)
(0.000811562 7.82407e-05 -6.76837e-20)
(0.000791698 -0.000129468 1.28971e-18)
(0.000647184 0.00010307 2.33764e-20)
(0.000500098 0.000223678 -1.69985e-19)
(4.71974e-05 -2.77396e-05 -8.98619e-20)
(0.000222158 -2.01322e-05 2.44864e-18)
(3.93696e-05 6.87139e-07 -1.99865e-19)
(0.000759141 8.14942e-05 3.67827e-19)
(0.000619585 0.000148795 0)
(0.000212095 -3.77112e-05 -1.07181e-18)
(0.000133953 2.09606e-05 3.2035e-19)
(0.000150947 -3.30883e-05 -2.25289e-23)
(0.000773263 0.000112774 -3.20458e-19)
(0.000158544 -5.73715e-06 0)
(0.000556044 0.0002479 0)
(0.000111496 0.0003414 -3.72205e-19)
(0.000792428 0.000169966 2.11618e-18)
(3.22472e-05 1.67702e-06 0)
(0.000785109 -4.76492e-05 0)
(5.88016e-05 -2.73502e-05 0)
(0.00084091 2.43558e-05 -4.49659e-21)
(0.000816922 -6.75849e-05 0)
(0.00438273 0.00828407 8.4096e-20)
(0.00430318 0.00831402 1.15257e-19)
(0.000831818 1.25397e-05 0)
(0.000733399 -7.01978e-05 8.32736e-19)
(0.000154484 0.000142332 1.53096e-19)
(0.000928034 5.54494e-05 8.0832e-19)
(0.000136078 0.000120267 2.4051e-20)
(0.000714412 -8.19921e-05 6.39147e-19)
(4.3738e-05 1.43174e-05 0)
(4.15532e-05 -1.99241e-05 -4.60211e-20)
(0.000851958 9.6967e-05 -4.89452e-19)
(5.29952e-05 -3.81831e-05 -6.87065e-19)
(0.000728175 0.000133794 -4.34492e-20)
(0.000167273 0.000176117 -1.92997e-19)
(0.000789086 2.12214e-05 0)
(0.00449337 0.00853696 1.19175e-21)
(0.000164261 0.000766745 3.42317e-19)
(0.000140609 -4.50462e-05 -9.34684e-19)
(8.12918e-05 -3.66822e-05 -1.19772e-18)
(0.00085555 2.1406e-05 1.94128e-20)
(0.000546428 0.000420051 0)
(0.000382278 0.000418031 -2.61866e-19)
(0.000127856 -4.38534e-05 1.21381e-18)
(0.000813716 6.21141e-06 7.90675e-20)
(5.26964e-05 1.71488e-06 4.17245e-19)
(0.000613311 -5.0834e-05 1.20242e-18)
(0.00076236 -3.92626e-06 -6.11321e-19)
(0.000101565 -5.31129e-05 1.75322e-18)
(0.000822691 9.77105e-06 5.31597e-24)
(0.000830723 1.75219e-05 -3.8645e-20)
(0.000797694 0.000106036 0)
(0.000749859 4.6613e-05 0)
(0.00563063 0.00738909 2.83612e-19)
(4.09108e-05 7.29896e-06 -1.22666e-19)
(0.000209598 -6.33783e-05 7.90863e-19)
(0.000695053 0.000117359 -7.13989e-19)
(4.53549e-05 -1.27327e-06 2.06632e-19)
(0.000552282 -1.41901e-05 -7.42785e-19)
(0.000662254 -3.4416e-05 1.56435e-18)
(0.000668937 0.00015776 -3.64806e-19)
(0.000784333 -7.50499e-05 3.67136e-19)
(0.000111187 -2.59794e-05 1.14502e-18)
(0.000615263 2.14039e-05 -3.28369e-19)
(0.000835742 8.02366e-05 0)
(0.000516129 0.000306474 4.3204e-20)
(0.000896647 1.70963e-05 -9.43277e-19)
(3.94192e-05 -6.38567e-06 9.34295e-19)
(0.000759489 -1.90218e-05 9.64677e-19)
(0.000762275 -9.14489e-05 -9.76261e-19)
(0.000674178 3.71474e-05 -5.78256e-19)
(0.000470898 -3.07657e-05 -5.39406e-19)
(0.00430768 0.00831198 2.44756e-19)
(0.00420805 0.00842936 -2.80912e-19)
(0.00433218 0.00823643 3.60261e-19)
(0.00438038 0.00827199 2.69141e-19)
(0.000828538 7.99883e-06 1.46481e-19)
(0.00412479 0.00816087 0)
(0.00425626 0.00829262 -5.90511e-19)
(6.23642e-05 -7.08554e-07 -1.02212e-18)
(0.00425826 0.00836302 -7.67897e-20)
(0.00425007 0.008354 -2.69188e-19)
(0.00625649 0.00987087 0)
(0.00587707 0.0094377 5.80379e-20)
(0.0062921 0.0100556 0)
(0.00586243 0.00941307 2.25783e-19)
(0.00626283 0.010216 2.97023e-19)
(0.00582812 0.00940733 3.02501e-20)
(0.00620553 0.0104331 -8.58485e-19)
(0.00585026 0.00938794 3.29e-20)
(0.00345639 0.00883513 -1.99111e-19)
(0.00419817 0.00836922 6.34606e-21)
(0.00423481 0.00843204 8.90181e-20)
(0.00425192 0.00835715 5.04535e-20)
(0.000840884 0.00017093 4.5849e-20)
(2.39216e-05 2.66358e-06 0)
(0.000620085 -0.000144071 0)
(0.000799605 3.72162e-05 0)
(0.00239972 0.00106144 4.17347e-21)
(0.000591753 -8.02423e-06 1.75812e-19)
(5.05621e-05 9.74173e-06 4.6575e-20)
(2.7357e-05 -3.19748e-05 1.69517e-18)
(0.000830786 3.34285e-05 0)
(3.54117e-05 1.78878e-05 -1.96738e-19)
(0.000147988 0.000233468 0)
(4.26252e-05 -1.04946e-06 0)
(3.54838e-05 -2.03712e-06 0)
(0.000793798 0.000137547 1.16387e-20)
(0.000856709 3.1922e-05 1.80068e-19)
(3.86573e-05 0.000362099 3.08169e-22)
(0.000162225 0.000278804 -1.88973e-18)
(0.000582864 0.000348454 -8.79347e-20)
(0.000855805 0.000117884 5.97861e-19)
(0.000734259 -0.000569612 6.78666e-19)
(0.000312313 0.00108817 0)
(0.000478733 0.000509676 2.71888e-18)
(0.0001065 0.000148183 -1.83724e-18)
(4.80879e-05 6.97413e-07 0)
(0.000873964 -1.19847e-06 3.66508e-20)
(2.2533e-05 4.78114e-05 1.68762e-18)
(0.000882978 2.85969e-05 2.76451e-19)
(0.00012972 -0.000381743 3.87788e-18)
(0.000909233 4.61312e-05 -2.76263e-19)
(0.00158573 0.000102177 7.67708e-19)
(4.98149e-05 -1.41766e-05 8.47209e-20)
(4.60244e-05 1.12825e-05 -8.80682e-19)
(4.41411e-05 0.000173472 0)
(0.000843715 0.00011977 5.9982e-19)
(0.000471341 0.000374435 2.43292e-19)
(0.00088407 1.65632e-05 -3.97284e-20)
(0.00071232 -1.7399e-05 2.62172e-19)
(0.000640413 -0.000226337 0)
(0.00595537 0.00941313 -1.23235e-19)
(0.00595708 0.00941604 3.08303e-19)
(0.00610605 0.00951615 -6.99028e-19)
(0.0059186 0.00945767 -7.25055e-20)
(4.6414e-05 0.000115949 8.19538e-19)
(0.000869971 4.03882e-05 7.94036e-23)
(0.00595568 0.00942019 -3.13091e-19)
(0.00595724 0.00941728 4.89737e-19)
(0.00621098 0.00965016 -4.93393e-19)
(0.00590729 0.00943754 -7.84676e-20)
(0.000116756 0.000625958 -2.07241e-20)
(0.000206392 -0.00016282 -8.15682e-19)
(0.000897757 -2.14224e-06 -7.72702e-19)
(0.00069564 0.000215256 0)
(0.00062946 -2.93744e-05 0)
(0.000185518 0.000392434 3.45025e-19)
(0.000608129 0.000594142 -5.44893e-19)
(2.67823e-05 -3.35897e-06 1.83069e-19)
(0.000210777 0.00046329 -7.57561e-19)
(0.000985848 0.00094972 -1.15697e-19)
(0.000713303 0.000174664 0)
(0.000756667 0.000164832 1.33695e-19)
(0.00622408 0.0058286 1.19923e-18)
(0.000662052 0.00110817 8.49437e-20)
(4.73762e-05 4.69068e-05 -7.64167e-20)
(0.000865593 2.37175e-05 0)
(0.000860441 9.30609e-06 -3.61637e-20)
(4.6356e-05 7.68304e-06 -2.01713e-19)
(4.05635e-05 9.19172e-06 1.9794e-19)
(0.000801778 2.24621e-05 5.4424e-19)
(0.000942847 0.000113751 6.75935e-19)
(0.000787283 9.30468e-05 0)
(0.00026896 -0.000239022 -4.11312e-19)
(0.000862098 0.000136286 3.94906e-19)
(4.76013e-05 -9.202e-05 2.08356e-19)
(0.00153621 0.000376309 -2.59564e-18)
(0.000800796 3.00556e-06 0)
(0.00076366 0.000120835 3.7931e-19)
(9.2002e-05 0.00040658 0)
(0.00093472 0.00814161 4.74395e-19)
(0.000468135 0.000520677 -1.2393e-18)
(0.000519488 0.000947881 -1.88536e-19)
(0.000850799 2.41085e-05 -1.48332e-19)
(2.20096e-05 3.43314e-05 0)
(0.000900548 7.95438e-05 6.20245e-19)
(0.00430205 0.00829062 1.28443e-19)
(0.00422279 0.00835931 6.9438e-20)
(0.00415363 0.00814087 4.96612e-19)
(0.00424085 0.00828008 -4.19098e-19)
(0.00591393 0.00945905 8.22676e-20)
(0.00430334 0.00830798 2.73449e-20)
(0.0051951 0.00804212 -6.08381e-19)
(0.00437619 0.00839411 5.32957e-21)
(0.00483648 0.0080617 5.71013e-19)
(0.00438256 0.00838501 -9.32555e-20)
(0.00454684 0.0080149 0)
(0.00437182 0.00834866 -1.04759e-19)
(0.00434762 0.00802257 5.4425e-19)
(0.00436587 0.0083235 9.79808e-20)
(0.00422839 0.0080788 0)
(0.00438327 0.00831011 2.20454e-19)
(0.00431482 0.0083937 8.04305e-19)
(0.00418604 0.00821785 -6.45443e-19)
(0.00429222 0.0083101 4.32217e-19)
(0.00421292 0.00839491 3.26635e-19)
(0.00593491 0.00942204 -4.12238e-21)
(0.00424463 0.0083206 4.79665e-20)
(0.00591824 0.00943845 0)
(3.34439e-05 1.08561e-05 -1.94825e-19)
(0.00218396 0.00651406 2.35646e-19)
(0.000831991 5.13764e-06 1.11695e-19)
(0.00084226 2.06439e-05 0)
(4.8626e-06 5.40951e-06 -4.09551e-19)
(0.000124933 -0.00020978 7.08816e-19)
(2.25684e-05 7.1992e-05 2.1387e-18)
(0.000794616 0.000186028 -9.24605e-20)
(0.000607017 5.17748e-06 7.17386e-19)
(5.53038e-06 -6.29821e-06 3.1812e-19)
(2.9697e-05 -5.16989e-05 -1.89282e-18)
(0.00060653 4.70979e-06 1.65966e-19)
(0.000778524 0.000103525 -3.06689e-20)
(0.000605255 -5.47341e-06 1.5039e-19)
(0.000437082 0.000673077 0)
(0.000150894 -0.000149674 1.18175e-18)
(0.000829329 2.43882e-05 1.54802e-19)
(2.69631e-05 3.11839e-05 0)
(0.000101529 0.000554945 -6.47045e-19)
(0.000624211 0.000521156 1.32107e-18)
(0.000326571 0.000722902 0)
(0.000600609 -1.08475e-06 0)
(0.000609278 0.000123296 1.19352e-18)
(2.98634e-05 5.06392e-05 -3.60188e-18)
(2.47179e-05 1.23944e-05 3.83395e-19)
(0.000108529 0.000157268 0)
(7.07272e-05 -4.71889e-05 0)
(8.30972e-05 0.000127199 2.05496e-19)
(0.000884146 0.000183937 3.59262e-19)
(0.000743834 -9.2182e-05 -1.40806e-18)
(3.11542e-05 4.29838e-05 0)
(0.000642228 0.000138879 -6.15746e-20)
(0.000617938 6.21762e-06 -1.59178e-19)
(0.000897929 -7.6306e-06 1.06284e-18)
(0.000243026 0.000543191 6.47992e-19)
(0.000817047 0.000129035 0)
(3.99535e-05 -3.7066e-05 5.52464e-19)
(4.63368e-06 -1.97631e-05 -3.28301e-19)
(0.00119297 -2.50551e-05 0)
(0.000874624 0.00204566 0)
(0.00106554 -0.000182273 0)
(0.000959102 0.000194125 4.38112e-19)
(0.000873061 -2.44952e-06 -2.85787e-19)
(0.00087988 0.000129983 -6.93766e-19)
(0.000611739 4.79096e-05 0)
(4.77026e-05 8.08475e-05 -1.76084e-19)
(0.000172541 0.000331713 1.10921e-18)
(0.000772874 1.34873e-05 -9.19316e-23)
(0.00106035 0.000177176 -6.86619e-19)
(0.00105781 0.000125072 0)
(3.82799e-06 1.69609e-05 2.57595e-19)
(3.03672e-05 -2.42278e-05 -1.99367e-19)
(0.000767286 6.22747e-05 7.09212e-21)
(6.41935e-05 -0.000123781 0)
(0.00100944 0.0002663 9.75239e-19)
(0.00515965 0.0099643 -2.98373e-19)
(0.00280415 0.00948578 1.33572e-18)
(0.000106377 -0.000125785 -1.9635e-19)
(9.78758e-05 -8.83352e-05 1.90804e-18)
(0.00116451 0.000232719 1.71737e-19)
(0.00124525 0.00102749 2.40241e-19)
(0.000810941 2.14416e-05 -7.42046e-19)
(0.000219378 0.000911082 -2.45026e-19)
(0.00076719 0.000867182 -2.23098e-19)
(0.000630418 -5.19203e-05 0)
(0.000124242 0.000757823 0)
(0.000101242 0.000287211 -7.44557e-23)
(0.000853228 -1.18626e-05 -6.82598e-23)
(0.000832997 -2.92743e-05 1.54919e-19)
(0.00255325 0.0018606 -1.27058e-18)
(0.00159143 0.00919632 -1.22876e-19)
(0.00072717 4.66276e-05 4.91152e-19)
(0.00617573 0.00405064 -1.89257e-19)
(0.00590227 0.00958779 -3.97841e-20)
(0.0045437 0.00851503 1.30548e-20)
(0.000746749 0.000129262 -2.20297e-18)
(0.000809104 3.78769e-05 -2.86446e-24)
(1.88997e-05 -1.54629e-05 -3.57046e-19)
(5.38897e-05 0.000103855 -3.58425e-19)
(9.24066e-05 0.000282655 8.98659e-19)
(1.87328e-05 2.37407e-05 5.03237e-19)
(9.66919e-05 0.000242445 3.79378e-19)
(0.000794271 7.59089e-05 0)
(0.00519571 0.0089731 -6.70138e-21)
(0.00136432 0.000587296 -2.60433e-20)
(0.00081562 1.38271e-05 3.63239e-19)
(8.03877e-05 -0.000101884 0)
(0.00192068 0.000633965 5.60493e-19)
(1.64203e-05 1.36855e-05 -2.77232e-19)
(4.22741e-05 3.73579e-05 9.9725e-20)
(0.00131562 0.0014352 6.55386e-19)
(0.00085191 2.89193e-05 1.83115e-19)
(1.70076e-05 -4.46439e-06 -1.74665e-19)
(0.00200901 0.00142605 -1.09299e-18)
(0.000132121 0.000193415 -8.37873e-19)
(0.00406428 0.00863377 -1.14558e-18)
(1.50863e-05 3.84782e-06 9.04494e-20)
(0.000215577 -0.000487401 -1.26518e-18)
(7.18945e-05 -6.22879e-05 4.16224e-20)
(0.00151448 0.000862862 0)
(0.000992165 0.000146879 -5.08399e-22)
(0.000408773 0.000848709 -4.12526e-20)
(0.00084943 1.93025e-05 -2.34735e-19)
(8.5708e-05 0.000201781 7.531e-19)
(6.557e-05 -7.77878e-05 4.14624e-19)
(2.54533e-05 2.11333e-05 -9.71909e-20)
(4.40156e-05 0.000110635 -3.2853e-19)
(0.000220281 -0.000330013 -5.54052e-19)
(0.00331464 0.00345792 2.90066e-21)
)
;

boundaryField
{
    back
    {
        type            empty;
    }
    ingreso
    {
        type            fixedValue;
        value           uniform (0.0008 0 0);
    }
    salida
    {
        type            zeroGradient;
    }
    front
    {
        type            empty;
    }
    defaultFaces
    {
        type            noSlip;
    }
}


// ************************************************************************* //
