/*--------------------------------*- C++ -*----------------------------------*\
  =========                 |
  \\      /  F ield         | OpenFOAM: The Open Source CFD Toolbox
   \\    /   O peration     | Website:  https://openfoam.org
    \\  /    A nd           | Version:  7
     \\/     M anipulation  |
\*---------------------------------------------------------------------------*/
FoamFile
{
    version     2.0;
    format      ascii;
    class       surfaceScalarField;
    location    "81";
    object      phi;
}
// * * * * * * * * * * * * * * * * * * * * * * * * * * * * * * * * * * * * * //

dimensions      [0 3 -1 0 0 0 0];

internalField   nonuniform List<scalar> 
1111
(
6.78717e-09
1.30702e-08
-1.59934e-08
-3.86401e-09
6.77753e-09
-1.18235e-08
1.18331e-08
-1.47524e-08
5.52626e-09
9.00907e-09
2.17031e-10
7.40981e-10
-8.50977e-10
-1.43298e-08
1.44398e-08
-1.42751e-08
1.40312e-08
9.84876e-10
-1.64487e-09
1.49094e-08
2.16399e-09
-3.23591e-09
9.62162e-09
-9.98475e-09
3.59904e-09
-6.71404e-09
-1.26167e-08
1.25998e-08
6.73095e-09
-5.03688e-08
-2.60036e-08
7.63725e-08
-8.13553e-09
7.67457e-09
7.23848e-09
3.40277e-09
3.57148e-10
-3.48465e-09
-2.75263e-10
1.58118e-08
-1.61691e-08
-2.31578e-08
2.35151e-08
-9.65836e-09
-7.89379e-09
8.7979e-09
8.75425e-09
-3.55177e-08
1.76731e-08
-3.22956e-08
5.01402e-08
9.50951e-09
-1.96309e-09
-1.42605e-08
-8.89568e-10
1.79291e-09
-3.29121e-09
2.38787e-09
-3.88145e-09
1.33464e-08
1.96025e-09
-1.14252e-08
8.82186e-09
-2.59278e-09
-1.50443e-08
8.81517e-09
3.74385e-08
-3.0131e-08
-7.3075e-09
-1.94521e-08
3.86515e-10
1.72502e-08
1.8154e-09
-9.96954e-10
4.20623e-09
-1.7862e-08
1.46528e-08
-6.12213e-08
-3.96275e-09
6.51841e-08
1.44061e-10
-1.20418e-09
-3.41298e-10
1.40142e-09
-1.65298e-09
-1.3619e-08
-1.14321e-10
-2.67016e-10
2.14438e-10
1.66898e-10
-1.03044e-08
-8.41161e-09
1.29062e-08
5.80989e-09
6.88701e-10
-2.12528e-09
-8.34029e-09
9.77687e-09
8.41067e-09
8.30243e-10
-9.42268e-09
1.81769e-10
-2.87381e-09
-7.93777e-09
1.10134e-08
-2.01869e-10
1.14007e-08
-8.88861e-10
-1.69001e-09
-8.75446e-10
8.70631e-10
1.98803e-11
-1.5065e-11
-1.50461e-10
7.49041e-10
2.8904e-10
-8.8762e-10
-4.87298e-10
-3.91562e-11
5.20755e-10
5.69949e-12
-2.42945e-11
-8.58718e-10
1.09477e-10
7.73536e-10
-8.83012e-11
-8.1144e-10
9.10724e-10
-1.84446e-08
-1.91819e-09
-4.03931e-10
4.42312e-11
-1.27599e-10
1.33934e-08
-1.32411e-08
4.05399e-09
-3.75651e-10
5.76899e-10
3.47736e-10
-5.48984e-10
-1.25563e-10
-1.72185e-09
1.38468e-09
4.62733e-10
-2.06253e-09
1.04082e-08
-1.15815e-08
-2.92047e-10
-1.64719e-10
5.28349e-11
-8.7724e-09
1.03596e-08
-9.72272e-09
1.21999e-08
-1.71449e-08
4.68884e-09
2.56196e-10
6.29173e-11
-1.65874e-10
-1.8909e-10
1.91346e-10
8.02462e-10
-1.23179e-10
-5.95275e-08
7.42284e-08
-1.47009e-08
1.05424e-09
-2.67851e-10
-1.18892e-09
4.02526e-10
1.14748e-09
1.03154e-08
-1.37197e-08
2.25675e-09
-1.58654e-09
7.55914e-09
-8.88909e-09
2.91648e-09
-6.65461e-09
5.67192e-09
5.62186e-09
-4.63917e-09
-7.51389e-09
-1.83275e-09
1.83082e-09
7.51582e-09
-1.8114e-10
-9.09208e-08
9.13064e-08
-2.04409e-10
-2.56048e-10
-8.97561e-08
9.01655e-08
-1.5342e-10
8.30817e-08
-1.49391e-09
1.09987e-10
-8.16978e-08
-2.96314e-09
-3.88492e-10
6.84716e-10
8.50185e-10
-4.80658e-10
3.94801e-09
-1.25328e-09
3.41201e-09
-6.10673e-09
-9.85552e-10
9.09046e-10
-1.49531e-08
6.60058e-09
9.65986e-09
1.03245e-09
-1.04213e-08
-2.70965e-10
-6.15486e-09
1.33295e-08
1.13328e-09
-8.30795e-09
1.43598e-08
-4.44387e-09
3.6491e-09
-1.3565e-08
1.54076e-08
1.69042e-09
-1.66919e-09
-1.91143e-10
-2.00629e-08
-7.42275e-09
2.76768e-08
1.42263e-08
-8.63894e-09
-1.97197e-09
7.90329e-09
-1.20862e-08
-2.08776e-11
9.97495e-11
-1.26779e-09
-3.62588e-08
-2.32687e-08
8.25023e-09
2.29028e-10
3.72061e-09
-7.02089e-09
1.10102e-08
6.37023e-09
-6.09697e-10
3.30104e-10
4.91429e-10
-2.11836e-10
5.79646e-09
-4.74675e-09
3.63601e-09
-4.68571e-09
-4.83429e-10
-6.42535e-10
2.67245e-10
6.80735e-10
-6.10415e-10
-2.89427e-11
-8.82654e-10
7.61136e-10
-1.8019e-08
2.44387e-09
1.53944e-09
1.40357e-08
2.33937e-10
-7.1269e-10
-1.30944e-10
-4.07854e-09
-1.50587e-08
1.11827e-09
5.61821e-09
1.20169e-08
-5.22466e-09
-1.24105e-08
1.64411e-08
6.69455e-10
-1.59061e-08
-1.20442e-09
-6.91823e-10
4.67687e-10
5.54239e-10
-4.63527e-10
2.35872e-10
2.27655e-10
-7.35191e-09
-3.60997e-09
4.30726e-09
-2.45107e-10
3.73325e-10
-1.28218e-10
1.20618e-09
-1.55892e-08
-8.34015e-10
9.65877e-09
-1.08873e-08
-9.8655e-10
-4.9247e-10
1.28601e-08
4.39992e-09
-4.14713e-09
-1.31129e-08
1.21551e-10
7.11173e-09
-7.86754e-09
6.42774e-09
-1.71773e-09
-8.85911e-09
8.10601e-09
2.47083e-09
-1.85676e-09
6.54378e-10
-1.38564e-08
-1.38051e-10
-1.07057e-10
8.47661e-11
8.33303e-10
-8.43196e-09
7.42301e-10
1.73018e-08
-1.60301e-09
-1.24779e-08
1.38192e-08
-1.34135e-09
1.218e-08
1.3982e-08
-1.55241e-08
-1.06379e-08
-5.76402e-10
1.04381e-09
-4.67403e-10
5.13608e-10
-5.13407e-10
-2.01466e-13
6.3897e-10
-5.35173e-10
-1.03797e-10
1.4571e-09
-1.18787e-09
-2.69231e-10
-1.07039e-08
7.5925e-10
9.94461e-09
2.10879e-09
-6.51699e-10
8.95231e-09
-1.53682e-08
7.369e-09
-8.87077e-09
5.52567e-11
3.74458e-09
-3.97067e-10
-2.46594e-09
2.5212e-09
-6.67206e-09
8.00234e-09
-1.33028e-09
-6.13832e-10
4.22228e-09
3.39563e-10
1.72737e-08
-1.44873e-08
-1.63895e-09
-5.91805e-09
5.35202e-09
-6.87256e-10
-2.03077e-10
5.98336e-09
-5.98741e-09
4.04397e-12
6.93128e-09
4.48703e-09
2.11389e-11
-1.60203e-08
1.04625e-08
1.77379e-08
5.7497e-09
8.29331e-09
8.21666e-09
-6.84627e-09
1.28656e-09
-1.19904e-08
5.70488e-10
1.0706e-09
-1.29303e-08
2.94847e-09
-4.27276e-10
1.17356e-08
-1.10661e-08
-2.29636e-10
-8.45215e-10
-1.37968e-08
7.52624e-09
7.72216e-10
-1.37462e-11
-8.90625e-09
5.0703e-09
-3.03222e-08
-1.25055e-08
-2.75289e-09
1.4616e-09
1.40589e-08
1.09841e-08
-1.07401e-08
-1.43029e-08
1.54734e-08
-3.11488e-09
-1.23585e-08
1.63099e-09
3.94863e-09
-1.15045e-09
-9.15721e-10
-8.94135e-10
1.19649e-09
6.13369e-10
-2.45648e-10
3.67585e-10
3.69492e-10
6.21369e-08
-6.21621e-08
2.51758e-11
6.20582e-08
-6.23618e-08
3.03606e-10
8.36894e-10
6.47392e-08
-6.55656e-08
8.26475e-10
6.41316e-08
6.07514e-10
-2.24959e-10
-6.65108e-08
9.45144e-10
-6.20484e-08
6.19143e-08
1.34142e-10
1.31555e-09
-6.78263e-08
-6.22079e-08
1.5949e-10
1.24762e-08
-8.00255e-10
1.41053e-09
-3.70199e-09
3.09172e-09
3.44576e-10
-1.20675e-09
9.75742e-10
-6.32019e-10
1.41091e-09
-1.65607e-09
8.77181e-10
1.43624e-09
-1.55496e-09
2.18469e-10
-6.36533e-11
-3.40709e-09
2.8384e-09
-2.07287e-09
2.64156e-09
-5.51057e-10
-2.77379e-09
2.52459e-09
-3.63211e-09
-5.75382e-09
5.99751e-10
-6.43702e-10
1.25975e-09
1.1269e-09
-6.51822e-09
7.95438e-09
3.05088e-09
1.98387e-08
-4.36535e-09
-7.31253e-10
2.90283e-10
1.04072e-09
-1.00804e-08
-2.61785e-08
5.35842e-09
-4.32779e-09
-3.1552e-09
2.12457e-09
1.11187e-10
2.2058e-11
3.8751e-10
-2.62347e-09
3.37757e-09
8.88237e-09
7.78175e-10
-3.15711e-10
2.128e-09
-2.36334e-09
1.95207e-09
1.47521e-08
1.32888e-08
-2.69553e-08
3.26867e-08
6.33974e-09
-2.28271e-08
-1.04679e-08
1.84296e-08
-1.79275e-08
1.0482e-08
-1.20395e-10
-1.57805e-10
-1.27676e-09
-1.75331e-09
-2.94596e-09
3.67849e-09
1.50184e-08
-6.01893e-10
-1.37621e-08
-4.99578e-10
-2.46306e-09
1.88843e-10
1.54688e-08
1.7713e-08
1.37017e-08
7.09225e-10
-1.64951e-09
-1.27614e-08
-1.61782e-09
5.9957e-09
1.24826e-08
-5.5887e-10
-1.09778e-09
-3.59671e-09
2.76491e-09
3.6702e-09
2.4762e-09
1.43981e-08
4.21598e-09
-1.42142e-08
1.79061e-08
-1.76945e-09
2.57764e-09
-3.4538e-09
1.89092e-09
-4.85311e-09
1.29506e-08
-1.19789e-08
-1.40208e-08
3.75678e-10
8.79206e-09
-1.83151e-09
1.53135e-09
1.5599e-09
-8.65944e-09
7.02014e-10
-4.5481e-09
-6.0275e-09
1.22106e-08
-1.48426e-08
1.17367e-09
1.66754e-09
-2.21427e-09
1.67174e-08
-1.61707e-08
-1.04418e-09
1.4144e-08
3.01728e-09
-4.36517e-09
-1.40203e-08
7.49642e-09
-1.72993e-08
-8.12464e-09
6.73359e-09
5.86537e-09
1.45285e-08
-9.90552e-09
3.05691e-09
9.31944e-09
9.86959e-09
3.83449e-09
-4.17071e-09
2.16654e-08
-1.90974e-08
4.92842e-09
-1.04526e-08
2.17808e-09
5.61865e-09
1.38269e-08
-2.35539e-10
1.27619e-08
-1.35705e-08
-1.87826e-09
1.96864e-09
-9.86949e-10
8.96564e-10
1.0988e-08
-6.38127e-09
7.41016e-09
-1.08508e-08
1.43062e-09
-4.74785e-09
1.14286e-08
-1.19054e-08
-7.55259e-09
9.15632e-09
9.3843e-09
1.28608e-08
7.14687e-10
-1.3811e-08
1.52376e-09
7.99626e-10
-1.10715e-08
-6.72012e-09
1.0239e-08
-1.49903e-09
2.51788e-09
-8.95915e-09
4.80789e-09
-5.22518e-09
1.15103e-08
-3.48964e-09
-1.17126e-08
3.6919e-09
-4.48752e-09
1.125e-08
1.91667e-09
1.13844e-09
-5.0308e-09
-1.77131e-08
1.04412e-08
1.23027e-08
7.72965e-10
-1.09541e-08
-9.95225e-09
1.58755e-08
1.25187e-08
2.84367e-09
-9.74368e-09
-1.33006e-08
-3.10564e-10
-1.27423e-08
1.69797e-10
-7.59053e-10
1.16027e-08
1.25172e-08
-8.22923e-09
1.65677e-08
-1.59524e-08
3.6007e-09
-4.59069e-10
1.74795e-09
1.27468e-08
-3.90676e-09
-1.26508e-08
-5.10345e-09
1.56412e-09
4.60993e-09
1.21869e-08
-7.26413e-09
8.96323e-10
-1.56187e-09
8.98249e-10
-1.21463e-09
5.8597e-09
2.62877e-08
-1.92433e-10
-1.02472e-08
1.04396e-08
2.85067e-08
-2.22605e-08
2.20522e-08
1.97042e-08
-1.27053e-08
-2.66883e-09
1.50434e-08
2.0732e-10
-1.21427e-08
-3.92307e-10
-6.02421e-09
-1.88469e-09
2.24949e-09
1.55188e-09
-3.14735e-10
-1.10385e-08
1.14089e-08
-5.56551e-11
3.11295e-09
-5.29992e-09
-1.09768e-08
1.0544e-08
-8.8917e-10
-1.07207e-08
-1.60159e-10
-1.11503e-08
-2.6302e-09
-1.19936e-08
2.19923e-09
7.8991e-09
5.13371e-09
-2.60074e-10
-1.17746e-08
1.17199e-08
5.9695e-10
-8.75025e-09
5.18997e-09
-1.40858e-09
2.37391e-09
-2.37166e-09
-1.30424e-08
-1.27637e-08
1.23112e-08
-1.02329e-08
-1.57847e-08
9.99729e-09
9.23877e-09
8.54282e-10
2.63646e-09
-1.28837e-08
1.13553e-08
1.67808e-09
3.94676e-09
3.11865e-10
-5.28005e-10
-2.6729e-10
-4.11429e-09
2.58267e-09
-9.31434e-10
2.13258e-10
-2.50475e-10
3.72167e-11
-2.65204e-09
1.29702e-08
2.20045e-09
2.55656e-09
-1.91618e-10
-1.50295e-09
-4.0817e-10
-2.3911e-09
-3.88609e-10
1.29228e-08
1.00033e-08
-3.59106e-10
6.88215e-09
-1.22708e-09
-5.29597e-09
-9.76626e-09
-5.10321e-09
1.63587e-10
4.96711e-11
4.87123e-09
1.31575e-09
-1.7141e-08
-4.0046e-10
-8.00946e-10
-2.75165e-09
1.01432e-09
2.94293e-09
6.19373e-08
-8.64923e-11
-6.18508e-08
6.23584e-08
1.88572e-10
-6.2547e-08
-1.41509e-08
-1.51672e-10
1.4515e-08
-2.12457e-10
3.00144e-09
-1.87444e-09
2.59313e-09
1.79919e-09
-4.46654e-09
-3.62527e-10
-5.48345e-10
4.44783e-10
-1.08274e-10
4.70769e-10
-3.23623e-10
1.95807e-08
1.08624e-09
-1.57957e-08
-1.79424e-10
-1.93743e-09
1.24238e-08
2.26047e-09
1.78088e-09
5.33155e-09
-2.07808e-09
-7.72335e-08
-2.41774e-08
-4.8663e-09
1.58168e-08
2.39589e-09
-2.4199e-10
-3.08054e-09
-1.15517e-09
4.1699e-10
-3.59602e-10
-1.04052e-08
-3.44748e-10
1.075e-08
-1.08054e-08
-6.61334e-09
1.06986e-08
-9.42805e-09
8.7622e-09
1.37206e-10
1.58944e-09
9.90947e-09
-9.79294e-09
-1.16527e-10
6.30856e-10
8.3666e-11
1.05277e-08
7.21111e-10
-8.66313e-10
-1.51654e-10
-1.42426e-08
-4.95758e-10
-1.37397e-08
1.25715e-08
-1.1814e-08
-6.60285e-08
6.49819e-08
1.04663e-09
2.87097e-10
-2.65039e-10
1.19276e-08
-2.61332e-10
1.08574e-11
-2.04018e-09
2.77158e-09
-3.43378e-09
-1.34824e-08
-1.63031e-09
2.5718e-09
-4.74755e-09
-1.40263e-08
1.63279e-09
5.57959e-09
9.61365e-09
-8.96748e-09
-2.873e-10
2.59669e-11
-9.33382e-09
-1.32462e-08
1.50483e-10
-6.27035e-08
2.36644e-10
6.24669e-08
6.95287e-10
6.34364e-08
-2.24756e-10
-1.50937e-09
-1.44734e-08
1.07791e-10
-6.3392e-08
6.32842e-08
1.83008e-10
-6.29344e-08
6.27514e-08
3.87307e-10
6.18049e-08
1.50768e-10
-6.19557e-08
6.16357e-08
1.69289e-10
-8.78959e-08
8.85055e-08
-2.05031e-12
9.33979e-08
-9.31049e-08
-2.67883e-10
-8.66346e-08
-4.34827e-10
9.33566e-08
-1.8362e-10
-8.49202e-08
-7.69308e-10
9.34873e-08
1.72916e-10
-5.2293e-10
1.96089e-09
9.23633e-08
-6.93202e-08
6.21465e-08
-6.23276e-08
-6.29596e-08
6.14926e-08
1.43003e-10
-3.07475e-09
2.91707e-09
-1.40565e-08
5.57004e-11
1.07886e-10
1.55375e-09
8.79893e-09
-1.13917e-08
3.82901e-08
-3.4503e-08
-1.67174e-08
1.37837e-08
-4.84341e-11
-2.18398e-10
1.79036e-10
7.19574e-10
-1.3751e-10
3.36645e-10
4.51534e-09
1.03102e-09
-3.65544e-09
-2.1511e-10
2.5934e-10
-1.62275e-10
-2.53958e-09
1.31197e-08
2.39016e-09
-1.44418e-08
-2.61103e-09
-3.39804e-09
5.59456e-09
1.04535e-09
-2.67181e-09
1.42602e-08
-1.14711e-09
-2.28345e-09
2.73834e-09
-8.14349e-09
-1.9049e-08
-1.34177e-08
7.92298e-09
5.87037e-09
-2.4669e-10
-5.50338e-10
3.04651e-09
1.44654e-08
2.23728e-09
-1.79327e-09
-4.07276e-10
4.56668e-10
-2.52469e-10
1.59821e-08
-5.53857e-10
-1.5773e-08
-6.88604e-10
-7.36137e-10
3.16154e-10
-2.40215e-10
3.47336e-09
-1.65454e-08
4.9694e-10
-1.56812e-09
-2.16323e-09
-2.35225e-09
1.55559e-08
-9.05986e-08
-1.39232e-10
9.16857e-08
-1.90781e-10
-8.91715e-08
-4.76796e-10
9.31083e-08
-2.75759e-10
-9.2919e-08
-5.63139e-10
-1.65668e-09
1.66745e-08
9.19869e-08
-1.96397e-10
2.92739e-11
-2.21391e-10
9.9626e-09
2.53419e-09
-7.73861e-09
-1.21202e-08
-5.67842e-09
8.44046e-09
1.45409e-09
-6.84368e-09
-6.04311e-09
9.01801e-09
-9.93579e-11
1.01497e-08
1.94805e-08
-1.79367e-08
3.07513e-09
-1.26437e-08
3.06796e-09
-6.99803e-08
3.95185e-09
-2.05357e-08
-1.309e-08
-5.09955e-10
-5.95925e-09
-1.52832e-08
9.09976e-09
-1.51825e-08
4.59363e-10
3.88305e-10
-1.82667e-09
-1.65198e-08
1.6983e-08
7.52158e-09
-7.91007e-09
-4.91264e-09
1.52496e-08
-1.68969e-09
7.00284e-10
-1.07605e-09
2.14537e-10
1.19172e-08
3.31889e-09
7.09095e-08
-1.82167e-08
7.83997e-10
-1.49469e-08
-2.4663e-10
-2.88864e-10
-8.55041e-11
6.09542e-08
-6.123e-08
-6.33627e-08
-6.31308e-08
-6.3479e-11
-2.62662e-10
-9.25929e-08
-6.04542e-08
6.24151e-08
6.50919e-08
-6.02813e-08
6.45689e-08
-6.04649e-08
6.37996e-08
-6.07328e-08
6.33648e-08
9.23157e-08
3.00466e-10
-6.39213e-09
7.511e-08
-6.53989e-08
4.95885e-11
-4.95885e-11
5.62223e-10
-3.37e-10
1.54889e-08
-4.05694e-11
4.05694e-11
3.63314e-10
1.5423e-09
1.38865e-08
1.3356e-08
-2.74542e-09
3.73229e-09
6.48213e-09
1.88179e-09
3.87678e-10
-2.66724e-10
-2.97862e-09
1.45664e-08
1.48471e-08
-4.28014e-09
1.18152e-08
1.98031e-10
1.58135e-10
2.80073e-09
-8.71508e-10
-1.58793e-09
-5.84268e-09
-2.01996e-10
-4.13776e-10
1.53011e-08
2.7506e-10
8.09813e-11
1.473e-08
-2.60997e-08
1.76867e-08
2.63141e-09
1.31279e-09
2.48416e-09
-3.72304e-09
1.92502e-08
-1.80114e-08
-8.84625e-11
3.08424e-10
-1.43978e-09
-7.92113e-08
-7.076e-08
1.35757e-09
-6.31037e-10
6.61288e-10
2.29471e-08
1.85857e-08
-6.34705e-09
8.0743e-11
-4.33137e-09
-2.49479e-09
2.99596e-08
1.49508e-10
1.48184e-08
7.35821e-08
5.87887e-11
5.24491e-10
-1.67866e-10
-2.28055e-10
-3.69741e-09
2.41987e-08
-1.48643e-08
1.03496e-09
-1.41338e-08
-5.82976e-11
2.03624e-08
-2.86506e-08
9.26167e-10
2.04974e-09
-3.61874e-10
)
;

boundaryField
{
    back
    {
        type            empty;
        value           nonuniform 0();
    }
    ingreso
    {
        type            calculated;
        value           nonuniform List<scalar> 
14
(
-1.54286e-08
-1.54288e-08
-1.54288e-08
-1.54288e-08
-1.54286e-08
-1.54283e-08
-1.54288e-08
-1.54288e-08
-1.54286e-08
-1.54286e-08
-1.54288e-08
-1.5428e-08
-1.5428e-08
-1.54286e-08
)
;
    }
    salida
    {
        type            calculated;
        value           nonuniform List<scalar> 2(1.01411e-07 1.14589e-07);
    }
    front
    {
        type            empty;
        value           nonuniform 0();
    }
    defaultFaces
    {
        type            calculated;
        value           uniform 0;
    }
}


// ************************************************************************* //
