/*--------------------------------*- C++ -*----------------------------------*\
  =========                 |
  \\      /  F ield         | OpenFOAM: The Open Source CFD Toolbox
   \\    /   O peration     | Website:  https://openfoam.org
    \\  /    A nd           | Version:  7
     \\/     M anipulation  |
\*---------------------------------------------------------------------------*/
FoamFile
{
    version     2.0;
    format      ascii;
    class       surfaceScalarField;
    location    "79.5";
    object      phi;
}
// * * * * * * * * * * * * * * * * * * * * * * * * * * * * * * * * * * * * * //

dimensions      [0 3 -1 0 0 0 0];

internalField   nonuniform List<scalar> 
1111
(
6.76749e-09
1.30806e-08
-1.59877e-08
-3.86036e-09
6.76254e-09
-1.18252e-08
1.18301e-08
-1.4752e-08
5.50523e-09
9.02401e-09
2.22778e-10
7.25589e-10
-8.33277e-10
-1.43243e-08
1.4432e-08
-1.4268e-08
1.40216e-08
9.72037e-10
-1.64662e-09
1.49087e-08
2.16644e-09
-3.27267e-09
9.6334e-09
-1.00246e-08
3.66386e-09
-6.71327e-09
-1.26171e-08
1.25993e-08
6.7311e-09
-5.03809e-08
-2.59954e-08
7.63763e-08
-8.13614e-09
7.67033e-09
7.22835e-09
3.41188e-09
3.56117e-10
-3.49375e-09
-2.74247e-10
1.58018e-08
-1.61573e-08
-2.31484e-08
2.3504e-08
-9.65724e-09
-7.89394e-09
8.79694e-09
8.75423e-09
-3.5509e-08
1.76681e-08
-3.22936e-08
5.01346e-08
9.5107e-09
-1.96285e-09
-1.42611e-08
-9.29527e-10
1.82502e-09
-3.32167e-09
2.42618e-09
-3.87412e-09
1.33462e-08
1.95913e-09
-1.14312e-08
8.82295e-09
-2.58413e-09
-1.50435e-08
8.80468e-09
3.74609e-08
-3.01598e-08
-7.30112e-09
-1.94509e-08
3.8561e-10
1.72542e-08
1.81107e-09
-9.8804e-10
4.20122e-09
-1.78636e-08
1.46504e-08
-6.12212e-08
-3.9628e-09
6.5184e-08
1.44689e-10
-1.20994e-09
-3.42455e-10
1.40771e-09
-1.64014e-09
-1.36159e-08
-1.17614e-10
-2.70146e-10
2.18199e-10
1.69561e-10
-1.02954e-08
-8.398e-09
1.28865e-08
5.80691e-09
6.89953e-10
-2.12576e-09
-8.34717e-09
9.78298e-09
8.38883e-09
8.36071e-10
-9.39615e-09
1.71252e-10
-2.87281e-09
-7.93026e-09
1.10063e-08
-2.03185e-10
1.13997e-08
-8.74936e-10
-1.70184e-09
-8.82238e-10
8.76456e-10
2.29296e-11
-1.71478e-11
-1.57358e-10
7.56012e-10
2.97088e-10
-8.95742e-10
-4.93344e-10
-3.9147e-11
5.26989e-10
5.50183e-12
-2.20164e-11
-8.6711e-10
1.09009e-10
7.80117e-10
-8.66158e-11
-8.17639e-10
9.03996e-10
-1.84475e-08
-1.90734e-09
-4.09566e-10
4.47741e-11
-1.28552e-10
1.33949e-08
-1.32415e-08
4.04781e-09
-3.78191e-10
5.80176e-10
3.50512e-10
-5.52498e-10
-1.37557e-10
-1.75764e-09
1.40821e-09
4.86984e-10
-2.07094e-09
1.0382e-08
-1.15838e-08
-2.96775e-10
-1.66481e-10
5.36902e-11
-8.77553e-09
1.03457e-08
-9.70635e-09
1.21919e-08
-1.71434e-08
4.70203e-09
2.49442e-10
6.41354e-11
-1.68043e-10
-1.92867e-10
1.94903e-10
8.07382e-10
-1.25829e-10
-5.9526e-08
7.42286e-08
-1.47027e-08
1.05896e-09
-2.72408e-10
-1.1956e-09
4.09052e-10
1.14681e-09
1.03162e-08
-1.37205e-08
2.25748e-09
-1.56094e-09
7.53575e-09
-8.87886e-09
2.90406e-09
-6.64658e-09
5.67784e-09
5.61557e-09
-4.64683e-09
-7.49448e-09
-1.85222e-09
1.84485e-09
7.50185e-09
-1.83502e-10
-9.09204e-08
9.13066e-08
-2.0265e-10
-2.57926e-10
-8.97571e-08
9.0167e-08
-1.5205e-10
8.30824e-08
-1.49402e-09
1.10045e-10
-8.16984e-08
-2.97512e-09
-3.77169e-10
6.90779e-10
8.53579e-10
-4.85402e-10
3.95163e-09
-1.27434e-09
3.40474e-09
-6.08203e-09
-9.91467e-10
9.13962e-10
-1.49552e-08
6.60232e-09
9.64176e-09
1.0294e-09
-1.04004e-08
-2.70757e-10
-6.16113e-09
1.33117e-08
1.14713e-09
-8.29771e-09
1.43583e-08
-4.4327e-09
3.63614e-09
-1.35617e-08
1.5409e-08
1.69237e-09
-1.67253e-09
-1.93518e-10
-2.00622e-08
-7.41983e-09
2.76755e-08
1.42055e-08
-8.62281e-09
-1.98034e-09
7.89272e-09
-1.20735e-08
-2.51613e-11
1.06025e-10
-1.27646e-09
-3.62663e-08
-2.32597e-08
8.24175e-09
2.22572e-10
3.72763e-09
-7.02225e-09
1.09958e-08
6.37223e-09
-6.13558e-10
3.33052e-10
4.94523e-10
-2.14017e-10
5.80303e-09
-4.74176e-09
3.63253e-09
-4.69379e-09
-4.89993e-10
-6.46089e-10
2.68972e-10
6.86717e-10
-6.16854e-10
-3.35342e-11
-8.94501e-10
7.70677e-10
-1.80038e-08
2.44697e-09
1.5358e-09
1.4021e-08
2.36761e-10
-7.17518e-10
-1.32802e-10
-4.07e-09
-1.50487e-08
1.11494e-09
5.62016e-09
1.2009e-08
-5.22458e-09
-1.24046e-08
1.64438e-08
6.6438e-10
-1.59092e-08
-1.19896e-09
-6.95819e-10
4.71457e-10
5.57415e-10
-4.78011e-10
2.43978e-10
2.34033e-10
-7.34255e-09
-3.61727e-09
4.31324e-09
-2.49623e-10
3.79305e-10
-1.29682e-10
1.21471e-09
-1.55801e-08
-8.36818e-10
9.63059e-09
-1.08647e-08
-9.93699e-10
-5.11545e-10
1.28504e-08
4.39772e-09
-4.14471e-09
-1.31034e-08
1.26364e-10
7.10521e-09
-7.85879e-09
6.43142e-09
-1.72619e-09
-8.84428e-09
8.0944e-09
2.47606e-09
-1.85142e-09
6.5195e-10
-1.38492e-08
-1.41132e-10
-1.08492e-10
6.54058e-11
8.47488e-10
-8.40738e-09
7.41118e-10
1.73041e-08
-1.60147e-09
-1.25206e-08
1.38583e-08
-1.33769e-09
1.21736e-08
1.39878e-08
-1.55276e-08
-1.06338e-08
-5.84285e-10
1.05538e-09
-4.71092e-10
5.39327e-10
-5.49968e-10
1.06411e-11
6.87525e-10
-6.2088e-10
-6.66446e-11
1.47058e-09
-1.20006e-09
-2.70518e-10
-1.07234e-08
7.44725e-10
9.97867e-09
2.12498e-09
-6.54397e-10
8.9499e-09
-1.53629e-08
7.33636e-09
-8.8319e-09
5.50491e-11
3.75365e-09
-3.96824e-10
-2.4811e-09
2.53615e-09
-6.69177e-09
8.02152e-09
-1.32975e-09
-6.24184e-10
4.21758e-09
3.58237e-10
1.72739e-08
-1.44885e-08
-1.63861e-09
-5.90054e-09
5.34497e-09
-7.18775e-10
-2.0498e-10
6.00182e-09
-6.00827e-09
6.45108e-12
6.93721e-09
4.48139e-09
2.7782e-11
-1.60231e-08
1.0463e-08
1.77338e-08
5.74588e-09
8.29654e-09
8.21981e-09
-6.84556e-09
1.27345e-09
-1.19968e-08
5.97885e-10
1.03732e-09
-1.292e-08
2.96403e-09
-4.27886e-10
1.17795e-08
-1.11151e-08
-2.25705e-10
-8.5461e-10
-1.37954e-08
7.51013e-09
7.781e-10
-1.5131e-11
-8.90747e-09
5.0757e-09
-3.03533e-08
-1.2505e-08
-2.74517e-09
1.45471e-09
1.40524e-08
1.09791e-08
-1.07331e-08
-1.42984e-08
1.54846e-08
-3.11344e-09
-1.23712e-08
1.63356e-09
3.94477e-09
-1.16422e-09
-9.18289e-10
-8.99732e-10
1.20305e-09
6.1497e-10
-2.47832e-10
3.70029e-10
3.72326e-10
6.21366e-08
-6.21617e-08
2.5076e-11
6.20581e-08
-6.23616e-08
3.03557e-10
8.36855e-10
6.474e-08
-6.55665e-08
8.26495e-10
6.41325e-08
6.07551e-10
-2.25049e-10
-6.65117e-08
9.45171e-10
-6.20475e-08
6.19135e-08
1.34002e-10
1.31557e-09
-6.78273e-08
-6.22068e-08
1.59278e-10
1.24607e-08
-8.13859e-10
1.42374e-09
-3.70247e-09
3.09259e-09
3.48323e-10
-1.21045e-09
9.8294e-10
-6.39917e-10
1.41431e-09
-1.66084e-09
8.86452e-10
1.44131e-09
-1.56251e-09
2.27218e-10
-6.52463e-11
-3.40376e-09
2.84898e-09
-2.0842e-09
2.63897e-09
-5.63715e-10
-2.77831e-09
2.52817e-09
-3.64166e-09
-5.74693e-09
6.02067e-10
-6.4822e-10
1.26784e-09
1.1294e-09
-6.52301e-09
7.95891e-09
3.04549e-09
1.98524e-08
-4.36783e-09
-7.35406e-10
2.91008e-10
1.04646e-09
-1.00765e-08
-2.61898e-08
5.3644e-09
-4.33498e-09
-3.15283e-09
2.1234e-09
1.12435e-10
2.17973e-11
3.92756e-10
-2.63141e-09
3.38325e-09
8.87241e-09
7.84021e-10
-3.26295e-10
2.13246e-09
-2.36988e-09
1.96476e-09
1.47553e-08
1.32849e-08
-2.69582e-08
3.26834e-08
6.33734e-09
-2.28273e-08
-1.04682e-08
1.8419e-08
-1.79193e-08
1.04794e-08
-1.26701e-10
-1.52389e-10
-1.28342e-09
-1.75992e-09
-2.94461e-09
3.69915e-09
1.50066e-08
-6.00789e-10
-1.37538e-08
-4.78287e-10
-2.47871e-09
1.78684e-10
1.54687e-08
1.77056e-08
1.37003e-08
7.06657e-10
-1.64362e-09
-1.27634e-08
-1.62887e-09
5.99792e-09
1.24726e-08
-5.679e-10
-1.10435e-09
-3.59248e-09
2.7625e-09
3.67896e-09
2.47391e-09
1.43877e-08
4.21017e-09
-1.42001e-08
1.78916e-08
-1.7701e-09
2.58986e-09
-3.46211e-09
1.88963e-09
-4.84255e-09
1.29504e-08
-1.1982e-08
-1.40177e-08
3.83246e-10
8.79185e-09
-1.83496e-09
1.5345e-09
1.5683e-09
-8.65989e-09
7.0018e-10
-4.54526e-09
-6.03037e-09
1.22126e-08
-1.48421e-08
1.18395e-09
1.66726e-09
-2.21518e-09
1.67081e-08
-1.61601e-08
-1.03903e-09
1.41386e-08
3.01003e-09
-4.35554e-09
-1.40174e-08
7.48818e-09
-1.72883e-08
-8.11917e-09
6.72357e-09
5.86516e-09
1.45204e-08
-9.89216e-09
3.06082e-09
9.3074e-09
9.87139e-09
3.8334e-09
-4.16766e-09
2.16554e-08
-1.90848e-08
4.9176e-09
-1.0438e-08
2.17944e-09
5.61259e-09
1.38148e-08
-2.26402e-10
1.27556e-08
-1.35683e-08
-1.87256e-09
1.99006e-09
-1.01146e-09
8.9396e-10
1.09802e-08
-6.38224e-09
7.41108e-09
-1.08365e-08
1.42787e-09
-4.74816e-09
1.14217e-08
-1.18981e-08
-7.5498e-09
9.14965e-09
9.38032e-09
1.28532e-08
7.25844e-10
-1.38054e-08
1.53122e-09
8.01237e-10
-1.10645e-08
-6.71948e-09
1.02341e-08
-1.50987e-09
2.51827e-09
-8.9558e-09
4.80954e-09
-5.21946e-09
1.15011e-08
-3.49022e-09
-1.17023e-08
3.69137e-09
-4.48901e-09
1.1242e-08
1.925e-09
1.14072e-09
-5.03089e-09
-1.77019e-08
1.04353e-08
1.22975e-08
7.76883e-10
-1.0946e-08
-9.94395e-09
1.58591e-08
1.25087e-08
2.84059e-09
-9.73665e-09
-1.32968e-08
-3.0818e-10
-1.2739e-08
1.71607e-10
-7.57285e-10
1.15919e-08
1.25132e-08
-8.22744e-09
1.65558e-08
-1.59413e-08
3.59563e-09
-4.57109e-10
1.74481e-09
1.27333e-08
-3.90449e-09
-1.26448e-08
-5.1071e-09
1.53595e-09
4.60848e-09
1.21752e-08
-7.26735e-09
8.89367e-10
-1.55056e-09
9.26444e-10
-1.24844e-09
5.86106e-09
2.62737e-08
-2.02722e-10
-1.03131e-08
1.05158e-08
2.84994e-08
-2.22528e-08
2.20446e-08
1.96978e-08
-1.27027e-08
-2.6664e-09
1.50349e-08
2.10084e-10
-1.21422e-08
-3.86748e-10
-6.02504e-09
-1.88775e-09
2.25494e-09
1.5578e-09
-3.02484e-10
-1.10294e-08
1.13937e-08
-6.17635e-11
3.112e-09
-5.31504e-09
-1.09615e-08
1.05321e-08
-8.85369e-10
-1.07084e-08
-1.54052e-10
-1.11317e-08
-2.64063e-09
-1.19865e-08
2.20224e-09
7.89719e-09
5.13266e-09
-2.44077e-10
-1.17682e-08
1.17098e-08
6.0012e-10
-8.73967e-09
5.19411e-09
-1.39446e-09
2.38789e-09
-2.40251e-09
-1.30404e-08
-1.27824e-08
1.23356e-08
-1.02356e-08
-1.5784e-08
9.99651e-09
9.23295e-09
8.56288e-10
2.63117e-09
-1.29443e-08
1.134e-08
1.67979e-09
3.95098e-09
3.1463e-10
-5.32239e-10
-2.72385e-10
-4.11042e-09
2.58785e-09
-9.56144e-10
2.17747e-10
-2.55678e-10
3.79309e-11
-2.6477e-09
1.29588e-08
2.19753e-09
2.55801e-09
-2.20712e-10
-1.51565e-09
-3.96652e-10
-2.39882e-09
-4.00257e-10
1.29119e-08
9.99403e-09
-3.63393e-10
6.89039e-09
-1.22562e-09
-5.30137e-09
-9.76043e-09
-5.10088e-09
1.67178e-10
5.05689e-11
4.869e-09
1.31522e-09
-1.71303e-08
-4.07823e-10
-8.06166e-10
-2.74669e-09
1.01222e-09
2.92932e-09
6.19368e-08
-8.66075e-11
-6.18502e-08
6.23572e-08
1.8823e-10
-6.25454e-08
-1.41541e-08
-1.41355e-10
1.45189e-08
-2.23483e-10
2.99119e-09
-1.8828e-09
2.60211e-09
1.79896e-09
-4.46221e-09
-3.67893e-10
-5.5223e-10
4.47911e-10
-1.09699e-10
4.76434e-10
-3.28286e-10
1.95664e-08
1.089e-09
-1.57864e-08
-1.8405e-10
-1.93812e-09
1.24125e-08
2.2589e-09
1.77897e-09
5.32885e-09
-2.07238e-09
-7.72335e-08
-2.41774e-08
-4.85744e-09
1.58131e-08
2.39051e-09
-2.61337e-10
-3.09362e-09
-1.16442e-09
4.28317e-10
-3.68244e-10
-1.04573e-08
-3.42851e-10
1.08002e-08
-1.07987e-08
-6.61562e-09
1.06948e-08
-9.42223e-09
8.76296e-09
1.27913e-10
1.60081e-09
9.95928e-09
-9.83732e-09
-1.21962e-10
6.35487e-10
8.32871e-11
1.05037e-08
7.3588e-10
-8.77534e-10
-1.58977e-10
-1.42426e-08
-4.98027e-10
-1.37296e-08
1.25574e-08
-1.18049e-08
-6.60267e-08
6.498e-08
1.04674e-09
2.92956e-10
-2.71159e-10
1.19168e-08
-2.66816e-10
1.11374e-11
-2.03921e-09
2.77256e-09
-3.43418e-09
-1.34839e-08
-1.6314e-09
2.57174e-09
-4.75062e-09
-1.40178e-08
1.63815e-09
5.58172e-09
9.60643e-09
-8.95887e-09
-2.93003e-10
2.61876e-11
-9.33536e-09
-1.32327e-08
1.50368e-10
-6.27014e-08
2.35904e-10
6.24655e-08
6.95388e-10
6.34371e-08
-2.24871e-10
-1.49415e-09
-1.44703e-08
1.07196e-10
-6.33905e-08
6.32833e-08
1.84883e-10
-6.29329e-08
6.2748e-08
3.92708e-10
6.18053e-08
1.51026e-10
-6.19564e-08
6.16359e-08
1.69442e-10
-8.78967e-08
8.85063e-08
-2.00919e-12
9.33983e-08
-9.31053e-08
-2.67932e-10
-8.66354e-08
-4.34812e-10
9.33569e-08
-1.83664e-10
-8.49209e-08
-7.69381e-10
9.34876e-08
1.72897e-10
-5.22925e-10
1.96089e-09
9.23636e-08
-6.93213e-08
6.21477e-08
-6.23312e-08
-6.29593e-08
6.14928e-08
1.43109e-10
-3.06966e-09
2.91248e-09
-1.40429e-08
5.66472e-11
1.10531e-10
1.581e-09
8.80995e-09
-1.13941e-08
3.82902e-08
-3.44992e-08
-1.6711e-08
1.37819e-08
-4.95442e-11
-2.18997e-10
1.82884e-10
7.2965e-10
-1.39082e-10
3.39161e-10
4.52153e-09
1.03029e-09
-3.66218e-09
-2.20883e-10
2.65657e-10
-1.67193e-10
-2.53545e-09
1.31086e-08
2.38562e-09
-1.44428e-08
-2.6073e-09
-3.40764e-09
5.59936e-09
1.04557e-09
-2.67425e-09
1.42554e-08
-1.14587e-09
-2.33288e-09
2.82411e-09
-8.14736e-09
-1.90478e-08
-1.34081e-08
7.91312e-09
5.87825e-09
-2.49979e-10
-5.4898e-10
3.0539e-09
1.44633e-08
2.23051e-09
-1.7851e-09
-4.10116e-10
4.59341e-10
-2.54204e-10
1.59851e-08
-5.50059e-10
-1.57779e-08
-7.62056e-10
-7.88352e-10
3.14945e-10
-2.39018e-10
3.47423e-09
-1.65733e-08
5.02183e-10
-1.57384e-09
-2.16989e-09
-2.35744e-09
1.55423e-08
-9.06012e-08
-1.34301e-10
9.16862e-08
-1.91361e-10
-8.91721e-08
-4.77776e-10
9.31088e-08
-2.75819e-10
-9.29195e-08
-5.65216e-10
-1.66302e-09
1.66589e-08
9.19876e-08
-1.98284e-10
2.95621e-11
-2.21409e-10
9.98065e-09
2.5345e-09
-7.78063e-09
-1.21112e-08
-5.67836e-09
8.4428e-09
1.45034e-09
-6.84765e-09
-6.04964e-09
9.01642e-09
-1.03057e-10
1.01504e-08
1.94766e-08
-1.79283e-08
3.07385e-09
-1.26354e-08
3.06444e-09
-6.998e-08
3.95331e-09
-2.05263e-08
-1.30904e-08
-5.13477e-10
-5.96014e-09
-1.52843e-08
9.10231e-09
-1.51869e-08
4.63776e-10
3.92008e-10
-1.81701e-09
-1.65053e-08
1.69736e-08
7.55785e-09
-7.93502e-09
-4.93756e-09
1.5244e-08
-1.69189e-09
7.03286e-10
-1.09209e-09
2.25374e-10
1.19115e-08
3.31853e-09
7.09101e-08
-1.82107e-08
7.89989e-10
-1.49382e-08
-2.48569e-10
-2.9123e-10
-8.54246e-11
6.09543e-08
-6.12301e-08
-6.33609e-08
-6.31312e-08
-6.33697e-11
-2.62731e-10
-9.25934e-08
-6.04542e-08
6.24151e-08
6.509e-08
-6.02813e-08
6.45671e-08
-6.04649e-08
6.37977e-08
-6.07329e-08
6.33629e-08
9.23163e-08
3.03495e-10
-6.39626e-09
7.51096e-08
-6.53948e-08
5.1243e-11
-5.1243e-11
6.01895e-10
-3.3876e-10
1.54898e-08
-4.29441e-11
4.29441e-11
3.67631e-10
1.5445e-09
1.38843e-08
1.33492e-08
-2.74787e-09
3.73369e-09
6.46935e-09
1.88796e-09
3.90439e-10
-2.68979e-10
-2.97796e-09
1.45624e-08
1.48471e-08
-4.27927e-09
1.18141e-08
2.00278e-10
1.59864e-10
2.80778e-09
-8.77321e-10
-1.59439e-09
-5.84418e-09
-2.01003e-10
-4.16264e-10
1.53e-08
2.7813e-10
8.34197e-11
1.47623e-08
-2.60853e-08
1.76745e-08
2.6292e-09
1.31898e-09
2.48113e-09
-3.72234e-09
1.92425e-08
-1.80013e-08
-8.98888e-11
3.2676e-10
-1.43979e-09
-7.92119e-08
-7.07611e-08
1.36348e-09
-6.47549e-10
6.63975e-10
2.29394e-08
1.85818e-08
-6.34814e-09
8.18687e-11
-4.33767e-09
-2.49022e-09
2.99628e-08
1.48996e-10
1.48185e-08
7.35823e-08
6.01131e-11
5.25826e-10
-1.69677e-10
-2.30045e-10
-3.70421e-09
2.41895e-08
-1.48634e-08
1.04269e-09
-1.41248e-08
-5.92877e-11
2.03581e-08
-2.86465e-08
9.24562e-10
2.06205e-09
-3.72323e-10
)
;

boundaryField
{
    back
    {
        type            empty;
        value           nonuniform 0();
    }
    ingreso
    {
        type            calculated;
        value           nonuniform List<scalar> 
14
(
-1.54286e-08
-1.54288e-08
-1.54288e-08
-1.54288e-08
-1.54286e-08
-1.54283e-08
-1.54288e-08
-1.54288e-08
-1.54286e-08
-1.54286e-08
-1.54288e-08
-1.5428e-08
-1.5428e-08
-1.54286e-08
)
;
    }
    salida
    {
        type            calculated;
        value           nonuniform List<scalar> 2(1.01411e-07 1.14589e-07);
    }
    front
    {
        type            empty;
        value           nonuniform 0();
    }
    defaultFaces
    {
        type            calculated;
        value           uniform 0;
    }
}


// ************************************************************************* //
