/*--------------------------------*- C++ -*----------------------------------*\
  =========                 |
  \\      /  F ield         | OpenFOAM: The Open Source CFD Toolbox
   \\    /   O peration     | Website:  https://openfoam.org
    \\  /    A nd           | Version:  7
     \\/     M anipulation  |
\*---------------------------------------------------------------------------*/
FoamFile
{
    version     2.0;
    format      ascii;
    class       volScalarField;
    location    "87";
    object      p;
}
// * * * * * * * * * * * * * * * * * * * * * * * * * * * * * * * * * * * * * //

dimensions      [0 2 -2 0 0 0 0];

internalField   nonuniform List<scalar> 
591
(
0.000123849
0.000123866
0.000123868
0.000123819
0.000123822
0.000123892
0.000123883
0.000123856
0.000116967
0.000123875
0.000124059
0.000122804
0.000123862
0.000119698
0.000123856
0.000123899
0.000123848
0.000123902
0.000121927
0.000123235
0.000123838
-3.52538e-06
0.000124055
0.000123839
0.000124011
0.000123862
0.000123971
0.000123972
0.000123875
0.000123882
0.000124031
0.000124005
0.000124025
0.000124024
0.000124026
0.000123349
0.000124021
0.00012384
0.000124049
0.000123966
0.000123922
0.000124018
0.00012387
0.000123893
0.000124015
0.000124036
0.000119202
0.00012404
0.000123874
0.00012399
0.000123989
0.00012402
2.3943e-05
3.05887e-05
4.78378e-05
0.000123867
0.000124044
0.000124036
0.000124037
0.000123848
0.000123936
0.000123866
0.000123863
0.000123913
0.000122538
0.000123866
0.000123869
0.000124034
0.000120697
0.00012388
0.000123874
0.000124041
0.000124015
0.00012402
0.000124025
0.000124001
0.000123843
0.000124038
0.000123845
0.000123783
0.00012362
0.000124043
0.000124002
0.000123986
0.00012405
0.000123856
0.000123943
0.000124033
0.000123995
0.000123747
0.000124007
0.000123958
0.000123971
0.000123847
0.000124048
0.000124004
0.00012355
0.00012345
0.000123618
0.000124054
0.000123961
0.000123879
0.00012406
0.000123815
0.000124061
0.000123867
0.000123864
0.000124007
0.000124053
0.000124056
0.000123946
0.000124032
0.00012388
0.000124036
0.000124052
0.000124037
0.000123991
0.000123982
0.000123552
0.000123958
0.000123867
0.000123859
0.00012395
0.000123845
0.00012402
0.000120171
0.00012406
0.000124038
0.000123617
0.000124027
0.000123856
0.000123542
0.000123998
0.000123991
0.00012403
0.000123872
0.000122599
0.000124057
0.000123859
0.000123546
0.000123614
0.000123956
0.000124042
0.00012405
0.000124044
7.61613e-06
3.67846e-06
2.07127e-06
3.8159e-05
3.66991e-05
5.66089e-06
3.83106e-05
1.57394e-05
3.72931e-05
1.78062e-05
0.000123867
0.000123858
0.000124048
0.00012404
0.000124047
0.000124046
0.000124038
0.000124034
0.000124048
0.000124046
0.000124012
0.000124048
0.000124043
0.00012405
0.000123992
0.000123365
0.00012405
0.000122098
0.000124034
0.000124029
0.00012398
0.000123876
0.00012403
0.000124045
0.000124045
0.000123463
0.000122445
0.000123021
0.000123413
0.000124033
0.000124041
0.000123943
0.000123837
0.000124037
0.000122941
0.000123271
0.000123837
0.000124027
0.000123724
0.000124021
0.000124042
0.000124017
0.000123692
0.000123828
0.000124039
0.000124045
0.000124044
0.000123844
0.000124026
0.000123841
0.000124053
0.00012386
0.00012386
0.000124049
0.000123652
0.000123828
0.00012387
0.00012351
0.000124002
0.000123655
0.000123943
0.000123959
0.000124032
0.000123422
0.000123931
0.000123822
0.000123821
0.000124002
0.000123765
0.000123916
0.000123832
0.000123745
0.000123814
0.000124053
0.00012381
0.000124051
0.000123903
0.00012403
0.000123874
0.000123876
0.000124056
0.000123763
0.000124042
0.000123752
0.000123801
0.000123865
0.000123844
0.000123882
0.000123868
0.000123638
0.000123841
0.000123795
0.000124009
0.00012386
0.000123716
0.000123996
0.000123264
0.000123828
0.000123157
0.000123042
0.000123851
0.000123815
0.000123854
0.00012385
0.000123823
0.000124055
0.000123897
0.000123974
0.00012391
0.000123901
0.000123913
0.000124009
0.000123658
0.000124051
0.000123694
0.000123582
0.000123885
0.000124028
0.000123606
0.000124045
0.000123956
0.000123971
0.000123999
0.000123876
0.00012385
0.000123686
0.00012381
0.000123845
0.000123892
0.000123951
0.000124015
0.000124033
0.000124038
0.000123794
0.000123902
0.000124027
0.000124033
0.000124027
0.000123819
0.000124041
0.000123916
0.000124026
0.00012378
0.00012404
0.000123768
0.000124017
0.000123906
0.00012385
1.16403e-05
2.1911e-05
0.000123792
0.000123873
0.000124054
0.0001238
0.000124054
0.000123883
0.00012404
0.000124017
0.00012375
0.000124011
0.00012384
0.000124051
0.000123874
-2.09687e-07
0.000123746
0.000124022
0.000124017
0.00012371
0.000123867
0.00012391
0.000124011
0.000123766
0.000124034
0.000123917
0.000123867
0.00012401
0.000123814
0.00012374
0.000123777
0.000123877
4.74802e-05
0.000124028
0.000124009
0.000123866
0.000124035
0.000123945
0.000123888
0.000123871
0.000123856
0.00012402
0.000123883
0.000123788
0.000123918
0.000123793
0.000124034
0.0001238
0.000123859
0.000123894
0.000123979
1.9871e-05
2.73078e-05
3.42949e-05
9.63774e-06
0.00012384
3.3055e-05
2.60144e-05
0.000124031
1.90717e-05
1.70277e-05
3.8184e-05
7.57491e-06
3.99357e-05
5.6038e-06
4.08295e-05
3.68794e-06
4.28115e-05
1.87535e-06
3.64065e-05
2.31927e-05
2.94422e-05
1.49903e-05
0.000123723
0.000124042
0.000123908
0.000123918
0.000120868
0.000123959
0.000124037
0.000124007
0.000123806
0.000124043
0.000124047
0.000124022
0.000124019
0.000123783
0.000123856
0.000124031
0.000124037
0.000123873
0.000123738
0.000123819
0.00012338
0.000123831
0.000124058
0.000124026
0.000123868
0.00012405
0.000123711
0.000123899
0.00012367
0.000122825
0.000124021
0.000124033
0.000124057
0.000123725
0.000123917
0.000123669
0.000123882
0.000123873
2.60496e-05
2.18757e-05
3.30345e-05
1.16164e-05
0.00012406
0.000123718
1.98178e-05
2.82566e-05
3.56012e-05
9.5865e-06
0.00012388
0.000123967
0.000123827
0.000123836
0.000123858
0.000123998
0.000123789
0.000124016
0.000123963
0.000123074
0.000123839
0.000123806
5.9367e-05
0.000123199
0.000124048
0.000123851
0.000123743
0.000124036
0.000124039
0.000123832
0.000123632
0.000123862
0.000123915
0.000123715
0.000123992
0.000122874
0.00012379
0.000123813
0.000124006
0.00010086
0.000123854
0.00012346
0.000123778
0.000124048
0.00012368
1.08942e-05
2.11116e-05
3.53664e-05
2.82065e-05
1.36599e-05
5.43748e-08
4.20801e-05
2.68928e-06
4.01567e-05
4.76109e-06
3.94152e-05
6.81355e-06
3.86227e-05
8.8559e-06
3.72888e-05
1.36718e-05
3.17265e-05
3.05904e-05
2.39383e-05
2.52603e-05
1.77632e-05
1.29363e-05
1.57055e-05
0.000124042
0.000102387
0.000123839
0.000123769
0.000124045
0.000123934
0.000124052
0.000123767
0.000123895
0.000124012
0.000124007
0.000124014
0.000123767
0.000123863
0.000123775
0.000123971
0.000123799
0.000124046
0.00012392
0.000123751
0.000123757
0.000123873
0.000123866
0.000124053
0.000124043
0.000124055
0.000124011
0.000124057
0.000123682
0.000123862
0.000124048
0.000123807
0.000123937
0.000123868
0.000123915
0.000123749
0.000124011
0.00012401
0.000123323
0.000121342
0.00012305
0.000123596
0.000123861
0.000123692
0.000123873
0.000124053
0.000124021
0.000123868
0.000123483
0.000123461
0.000124047
0.000124013
0.000123884
0.000123978
0.000123523
5.83087e-05
4.01183e-05
0.000123983
0.000124001
0.000123365
0.000122719
0.000123849
0.0001236
0.000123347
0.000123858
0.000123774
0.00012404
0.000123891
0.000123922
0.000118979
5.44687e-05
0.000123891
8.12425e-05
1.86142e-06
-3.81282e-07
0.000123858
0.000123826
0.000124012
0.000124055
0.000124047
0.000124046
0.00012405
0.000123844
-2.30743e-06
0.000122798
0.000123884
0.00012399
0.000121985
0.000124045
0.000124046
0.000122258
0.000123961
0.000124014
0.000121662
0.000124053
7.63299e-05
0.000124044
0.000123732
0.000124006
0.000122346
0.00012357
0.000123639
0.000123893
0.000124055
0.000123998
0.000124045
0.000124057
0.000123855
0.000116147
)
;

boundaryField
{
    back
    {
        type            empty;
    }
    ingreso
    {
        type            zeroGradient;
    }
    salida
    {
        type            fixedValue;
        value           uniform 0;
    }
    front
    {
        type            empty;
    }
    defaultFaces
    {
        type            zeroGradient;
    }
}


// ************************************************************************* //
