/*--------------------------------*- C++ -*----------------------------------*\
  =========                 |
  \\      /  F ield         | OpenFOAM: The Open Source CFD Toolbox
   \\    /   O peration     | Website:  https://openfoam.org
    \\  /    A nd           | Version:  7
     \\/     M anipulation  |
\*---------------------------------------------------------------------------*/
FoamFile
{
    version     2.0;
    format      ascii;
    class       surfaceScalarField;
    location    "87";
    object      phi;
}
// * * * * * * * * * * * * * * * * * * * * * * * * * * * * * * * * * * * * * //

dimensions      [0 3 -1 0 0 0 0];

internalField   nonuniform List<scalar> 
1111
(
6.8671e-09
1.30271e-08
-1.60138e-08
-3.88039e-09
6.83984e-09
-1.18142e-08
1.18414e-08
-1.47516e-08
5.60807e-09
8.95044e-09
1.93097e-10
8.01797e-10
-9.22217e-10
-1.43492e-08
1.44696e-08
-1.43009e-08
1.40689e-08
1.03381e-09
-1.63697e-09
1.49117e-08
2.15386e-09
-3.08663e-09
9.56937e-09
-9.82111e-09
3.33837e-09
-6.717e-09
-1.26152e-08
1.26004e-08
6.73176e-09
-5.03173e-08
-2.6036e-08
7.63533e-08
-8.13082e-09
7.69043e-09
7.28023e-09
3.36604e-09
3.61616e-10
-3.44774e-09
-2.79924e-10
1.58438e-08
-1.62086e-08
-2.3194e-08
2.35587e-08
-9.66195e-09
-7.89447e-09
8.80077e-09
8.75565e-09
-3.55458e-08
1.76924e-08
-3.23106e-08
5.0164e-08
9.50483e-09
-1.96352e-09
-1.42583e-08
-7.41452e-10
1.6715e-09
-3.16065e-09
2.2306e-09
-3.90892e-09
1.33435e-08
1.96462e-09
-1.13992e-08
8.81785e-09
-2.624e-09
-1.50473e-08
8.8535e-09
3.73518e-08
-3.00274e-08
-7.32443e-09
-1.94531e-08
3.78406e-10
1.72397e-08
1.835e-09
-1.0276e-09
4.22216e-09
-1.78562e-08
1.46616e-08
-6.12223e-08
-3.96245e-09
6.51847e-08
1.41721e-10
-1.18061e-09
-3.36829e-10
1.37572e-09
-1.69952e-09
-1.3629e-08
-1.01464e-10
-2.54226e-10
1.99391e-10
1.563e-10
-1.03375e-08
-8.46627e-09
1.29845e-08
5.81922e-09
6.85241e-10
-2.12451e-09
-8.31318e-09
9.75245e-09
8.49926e-09
8.07403e-10
-9.52862e-09
2.21953e-10
-2.87662e-09
-7.97002e-09
1.10441e-08
-1.97456e-10
1.14043e-08
-9.40935e-10
-1.64555e-09
-8.47873e-10
8.47048e-10
7.55615e-12
-6.73181e-12
-1.23449e-10
7.2036e-10
2.57055e-10
-8.53966e-10
-4.62952e-10
-3.92759e-11
4.95734e-10
6.49449e-12
-3.34387e-11
-8.24811e-10
1.11247e-10
7.47003e-10
-9.50161e-11
-7.86296e-10
9.37594e-10
-1.84306e-08
-1.96012e-09
-3.81311e-10
4.20862e-11
-1.23728e-10
1.3388e-08
-1.32413e-08
4.07547e-09
-3.6561e-10
5.63656e-10
3.36775e-10
-5.34821e-10
-8.19962e-11
-1.57794e-09
1.2935e-09
3.66443e-10
-2.02364e-09
1.05009e-08
-1.15639e-08
-2.73188e-10
-1.57573e-10
4.94499e-11
-8.75872e-09
1.04171e-08
-9.78915e-09
1.22281e-08
-1.7148e-08
4.63934e-09
2.80552e-10
5.8092e-11
-1.57139e-10
-1.74141e-10
1.77016e-10
7.82575e-10
-1.12543e-10
-5.95323e-08
7.42296e-08
-1.46973e-08
1.03507e-09
-2.49608e-10
-1.16158e-09
3.76119e-10
1.14881e-09
1.03122e-08
-1.37168e-08
2.25583e-09
-1.68246e-09
7.64935e-09
-8.92234e-09
2.95545e-09
-6.68646e-09
5.64763e-09
5.64695e-09
-4.60812e-09
-7.59296e-09
-1.75341e-09
1.7739e-09
7.57247e-09
-1.80848e-10
-9.09183e-08
9.13039e-08
-2.04749e-10
-2.55838e-10
-8.97532e-08
9.01629e-08
-1.53855e-10
8.30794e-08
-1.49355e-09
1.1001e-10
-8.16958e-08
-2.91299e-09
-4.3428e-10
6.60128e-10
8.36441e-10
-4.61497e-10
3.93361e-09
-1.16746e-09
3.44272e-09
-6.20887e-09
-9.61784e-10
8.89191e-10
-1.49444e-08
6.59305e-09
9.7337e-09
1.04445e-09
-1.05052e-08
-2.72947e-10
-6.13028e-09
1.33992e-08
1.07924e-09
-8.34815e-09
1.43658e-08
-4.48551e-09
3.69829e-09
-1.35785e-08
1.54021e-08
1.6836e-09
-1.65693e-09
-1.90809e-10
-2.00633e-08
-7.42694e-09
2.7681e-08
1.43089e-08
-8.70183e-09
-1.93964e-09
7.94468e-09
-1.21353e-08
-3.12765e-12
7.44476e-11
-1.2329e-09
-3.62256e-08
-2.33067e-08
8.28224e-09
2.53349e-10
3.69251e-09
-7.01306e-09
1.10718e-08
6.35831e-09
-5.941e-10
3.18236e-10
4.78968e-10
-2.03103e-10
5.76941e-09
-4.76664e-09
3.64981e-09
-4.65258e-09
-4.57096e-10
-6.28002e-10
2.60286e-10
6.56508e-10
-5.84538e-10
-1.24702e-11
-8.33371e-10
7.22392e-10
-1.80788e-08
2.4313e-09
1.55425e-09
1.40933e-08
2.22585e-10
-6.93158e-10
-1.23528e-10
-4.11365e-09
-1.5097e-08
1.13183e-09
5.61244e-09
1.20461e-08
-5.22599e-09
-1.24325e-08
1.64292e-08
6.89486e-10
-1.5893e-08
-1.22567e-09
-6.75694e-10
4.52475e-10
5.41454e-10
-4.07408e-10
2.04378e-10
2.0303e-10
-7.38917e-09
-3.58044e-09
4.28314e-09
-2.27504e-10
3.49972e-10
-1.22469e-10
1.17045e-09
-1.56216e-08
-8.19605e-10
9.77147e-09
-1.09755e-08
-9.57356e-10
-4.19879e-10
1.28965e-08
4.41142e-09
-4.1585e-09
-1.31495e-08
1.02913e-10
7.1383e-09
-7.90281e-09
6.41214e-09
-1.68362e-09
-8.9193e-09
8.15264e-09
2.45028e-09
-1.87993e-09
6.652e-10
-1.38823e-08
-1.26078e-10
-1.01426e-10
1.62329e-10
7.76443e-10
-8.53174e-09
7.48295e-10
1.72924e-08
-1.61156e-09
-1.23161e-08
1.36713e-08
-1.35522e-09
1.22048e-08
1.39602e-08
-1.55117e-08
-1.06533e-08
-5.45601e-10
9.98289e-10
-4.52688e-10
4.1996e-10
-3.63717e-10
-5.62439e-11
4.45713e-10
-2.01886e-10
-2.43827e-10
1.40439e-09
-1.14001e-09
-2.6438e-10
-1.06355e-08
8.16933e-10
9.81854e-09
2.04539e-09
-6.41002e-10
8.96128e-09
-1.53864e-08
7.50129e-09
-9.02142e-09
5.67242e-11
3.70821e-09
-3.98893e-10
-2.407e-09
2.46373e-09
-6.59656e-09
7.92904e-09
-1.33248e-09
-5.71601e-10
4.24108e-09
2.64138e-10
1.72716e-08
-1.44833e-08
-1.63944e-09
-5.98803e-09
5.38024e-09
-5.59677e-10
-1.9563e-10
5.91132e-09
-5.90771e-09
-3.60867e-12
6.90692e-09
4.50944e-09
8.11805e-14
-1.60022e-08
1.04617e-08
1.77453e-08
5.76598e-09
8.27924e-09
8.20413e-09
-6.84832e-09
1.33429e-09
-1.19698e-08
4.60996e-10
1.20032e-09
-1.29655e-08
2.88884e-09
-4.2511e-10
1.15678e-08
-1.08783e-08
-2.45131e-10
-8.07242e-10
-1.38032e-08
7.59208e-09
7.48455e-10
-8.18481e-12
-8.90092e-09
5.04783e-09
-3.02182e-08
-1.25082e-08
-2.78192e-09
1.48691e-09
1.40814e-08
1.10071e-08
-1.07684e-08
-1.43201e-08
1.54351e-08
-3.12347e-09
-1.23116e-08
1.6218e-09
3.96443e-09
-1.09331e-09
-9.05402e-10
-8.71423e-10
1.16987e-09
6.06952e-10
-2.36889e-10
3.57781e-10
3.58075e-10
6.21386e-08
-6.21642e-08
2.55583e-11
6.20594e-08
-6.23632e-08
3.0381e-10
8.37063e-10
6.47356e-08
-6.55622e-08
8.26589e-10
6.41282e-08
6.07471e-10
-2.24565e-10
-6.65075e-08
9.45252e-10
-6.20521e-08
6.19176e-08
1.3448e-10
1.31553e-09
-6.7823e-08
-6.22119e-08
1.59809e-10
1.25392e-08
-7.44577e-10
1.35675e-09
-3.70055e-09
3.08838e-09
3.29464e-10
-1.19175e-09
9.4648e-10
-5.99901e-10
1.39722e-09
-1.63669e-09
8.39371e-10
1.41554e-09
-1.52396e-09
1.82867e-10
-5.72464e-11
-3.42053e-09
2.79508e-09
-2.02675e-09
2.6522e-09
-4.99462e-10
-2.7552e-09
2.51008e-09
-3.5932e-09
-5.78155e-09
5.90424e-10
-6.25407e-10
1.22674e-09
1.11695e-09
-6.49809e-09
7.93505e-09
3.07248e-09
1.97918e-08
-4.35669e-09
-7.14349e-10
2.87247e-10
1.01753e-09
-1.0092e-08
-2.61336e-08
5.33344e-09
-4.29807e-09
-3.16498e-09
2.12961e-09
1.06041e-10
2.30348e-11
3.66658e-10
-2.59136e-09
3.35483e-09
8.92099e-09
7.54363e-10
-2.72532e-10
2.10979e-09
-2.33672e-09
1.90065e-09
1.47386e-08
1.3303e-08
-2.69452e-08
3.2697e-08
6.34184e-09
-2.28287e-08
-1.04584e-08
1.84674e-08
-1.79585e-08
1.04982e-08
-9.48107e-11
-1.79734e-10
-1.24941e-09
-1.72635e-09
-2.9412e-09
3.58823e-09
1.50643e-08
-6.07471e-10
-1.37916e-08
-5.86383e-10
-2.39931e-09
2.30497e-10
1.54685e-08
1.77375e-08
1.37047e-08
7.2082e-10
-1.67359e-09
-1.27519e-08
-1.57285e-09
5.98747e-09
1.25215e-08
-5.2265e-10
-1.07089e-09
-3.61416e-09
2.77528e-09
3.63396e-09
2.48516e-09
1.44404e-08
4.24029e-09
-1.42693e-08
1.79625e-08
-1.7664e-09
2.52757e-09
-3.41959e-09
1.8968e-09
-4.89122e-09
1.29486e-08
-1.19663e-08
-1.40324e-08
3.48885e-10
8.79226e-09
-1.81749e-09
1.51873e-09
1.5255e-09
-8.65883e-09
7.0627e-10
-4.55568e-09
-6.01563e-09
1.22017e-08
-1.48449e-08
1.13167e-09
1.66937e-09
-2.21001e-09
1.67544e-08
-1.62137e-08
-1.06642e-09
1.41636e-08
3.04542e-09
-4.4018e-09
-1.403e-08
7.52795e-09
-1.73419e-08
-8.14448e-09
6.77462e-09
5.86677e-09
1.45611e-08
-9.95858e-09
3.04173e-09
9.36714e-09
9.86031e-09
3.84072e-09
-4.1836e-09
2.1705e-08
-1.91471e-08
4.97005e-09
-1.05106e-08
2.1738e-09
5.64234e-09
1.38744e-08
-2.72892e-10
1.2784e-08
-1.35776e-08
-1.89967e-09
1.88146e-09
-8.88967e-10
9.07178e-10
1.10183e-08
-6.37702e-09
7.40479e-09
-1.09077e-08
1.44158e-09
-4.74674e-09
1.14554e-08
-1.19347e-08
-7.56321e-09
9.18276e-09
9.39878e-09
1.28898e-08
6.69556e-10
-1.38323e-08
1.49362e-09
7.93204e-10
-1.10987e-08
-6.72266e-09
1.02581e-08
-1.45463e-09
2.51625e-09
-8.97146e-09
4.79941e-09
-5.24924e-09
1.15472e-08
-3.48657e-09
-1.1754e-08
3.69336e-09
-4.48153e-09
1.12819e-08
1.88277e-09
1.12959e-09
-5.03353e-09
-1.77576e-08
1.04674e-08
1.23237e-08
7.57157e-10
-1.09871e-08
-9.9843e-09
1.59378e-08
1.25585e-08
2.85536e-09
-9.77152e-09
-1.3315e-08
-3.18309e-10
-1.27525e-08
1.64335e-10
-7.6432e-10
1.16441e-08
1.2531e-08
-8.23447e-09
1.66132e-08
-1.59939e-08
3.6209e-09
-4.68594e-10
1.76107e-09
1.28008e-08
-3.91572e-09
-1.26753e-08
-5.08464e-09
1.67202e-09
4.61293e-09
1.2235e-08
-7.2532e-09
9.24207e-10
-1.60413e-09
7.84823e-10
-1.08037e-09
5.86655e-09
2.63366e-08
-1.49566e-10
-9.99008e-09
1.01396e-08
2.85373e-08
-2.22924e-08
2.20793e-08
1.97258e-08
-1.27137e-08
-2.67928e-09
1.50765e-08
1.9424e-10
-1.21436e-08
-4.14593e-10
-6.02026e-09
-1.87253e-09
2.22754e-09
1.52776e-09
-3.63344e-10
-1.10743e-08
1.14682e-08
-3.05624e-11
3.10518e-09
-5.23436e-09
-1.10376e-08
1.05927e-08
-9.02379e-10
-1.07696e-08
-1.85251e-10
-1.12223e-08
-2.58737e-09
-1.20229e-08
2.18713e-09
7.90345e-09
5.13807e-09
-3.24905e-10
-1.17962e-08
1.17577e-08
5.84225e-10
-8.79231e-09
5.17263e-09
-1.46169e-09
2.31727e-09
-2.24937e-09
-1.30494e-08
-1.26876e-08
1.22131e-08
-1.0218e-08
-1.57897e-08
1.00056e-08
9.26004e-09
8.44719e-10
2.65959e-09
-1.26497e-08
1.14138e-08
1.67184e-09
3.92966e-09
3.00589e-10
-5.1048e-10
-2.47205e-10
-4.13036e-09
2.56142e-09
-8.3038e-10
1.9581e-10
-2.30232e-10
3.44222e-11
-2.66904e-09
1.30151e-08
2.21243e-09
2.55006e-09
-7.71006e-11
-1.45089e-09
-4.55194e-10
-2.35866e-09
-3.4165e-10
1.29664e-08
1.00409e-08
-3.4165e-10
6.84781e-09
-1.2329e-09
-5.27326e-09
-9.78917e-09
-5.11308e-09
1.49641e-10
4.61682e-11
4.87668e-09
1.3195e-09
-1.71832e-08
-3.71154e-10
-7.79498e-10
-2.76679e-09
1.02093e-09
2.99909e-09
6.19399e-08
-8.60971e-11
-6.18538e-08
6.23627e-08
1.88881e-10
-6.25516e-08
-1.41382e-08
-1.93542e-10
1.44983e-08
-1.66592e-10
3.04434e-09
-1.8401e-09
2.55635e-09
1.8e-09
-4.48417e-09
-3.39542e-10
-5.32658e-10
4.32163e-10
-1.02608e-10
4.47981e-10
-3.04966e-10
1.96342e-08
1.07406e-09
-1.58316e-08
-1.61274e-10
-1.93569e-09
1.24695e-08
2.26705e-09
1.78896e-09
5.3397e-09
-2.09817e-09
-7.72337e-08
-2.41775e-08
-4.90485e-09
1.58304e-08
2.41798e-09
-1.64042e-10
-3.025e-09
-1.11718e-09
3.71354e-10
-3.25063e-10
-1.02048e-08
-3.52385e-10
1.05572e-08
-1.08323e-08
-6.60362e-09
1.07132e-08
-9.4514e-09
8.75918e-09
1.74273e-10
1.54314e-09
9.71939e-09
-9.62499e-09
-9.44014e-11
6.12113e-10
8.50037e-11
1.06212e-08
6.61788e-10
-8.20587e-10
-1.2232e-10
-1.42435e-08
-4.85401e-10
-1.37779e-08
1.26268e-08
-1.18473e-08
-6.60333e-08
6.49875e-08
1.04581e-09
2.64225e-10
-2.4119e-10
1.19711e-08
-2.39974e-10
9.74199e-12
-2.04611e-09
2.76721e-09
-3.43061e-09
-1.34773e-08
-1.62691e-09
2.57238e-09
-4.73254e-09
-1.40607e-08
1.61001e-09
5.5706e-09
9.64289e-09
-9.002e-09
-2.65024e-10
2.50491e-11
-9.32649e-09
-1.3299e-08
1.50791e-10
-6.27005e-08
2.36364e-10
6.24642e-08
6.95133e-10
6.3433e-08
-2.24291e-10
-1.56429e-09
-1.44844e-08
1.07975e-10
-6.33983e-08
6.32903e-08
1.83356e-10
-6.29397e-08
6.27564e-08
3.65857e-10
6.18033e-08
1.50494e-10
-6.19538e-08
6.16343e-08
1.6902e-10
-8.78929e-08
8.85024e-08
-1.99042e-12
9.33965e-08
-9.31032e-08
-2.67683e-10
-8.66317e-08
-4.34636e-10
9.33553e-08
-1.83397e-10
-8.49177e-08
-7.68787e-10
9.34861e-08
1.73052e-10
-5.2276e-10
1.96097e-09
9.23622e-08
-6.93166e-08
6.21444e-08
-6.23252e-08
-6.29564e-08
6.14916e-08
1.42688e-10
-3.0958e-09
2.9331e-09
-1.41066e-08
5.20037e-11
9.76375e-11
1.44402e-09
8.76173e-09
-1.13857e-08
3.82939e-08
-3.4519e-08
-1.67403e-08
1.37916e-08
-4.40739e-11
-2.15195e-10
1.63998e-10
6.77734e-10
-1.31255e-10
3.26529e-10
4.4898e-09
1.03475e-09
-3.62775e-09
-1.92611e-10
2.34697e-10
-1.43162e-10
-2.55575e-09
1.31632e-08
2.40764e-09
-1.44373e-08
-2.62227e-09
-3.36052e-09
5.57418e-09
1.04523e-09
-2.65901e-09
1.42814e-08
-1.15498e-09
-2.09322e-09
2.41175e-09
-8.1294e-09
-1.9056e-08
-1.34518e-08
7.9607e-09
5.84001e-09
-2.33031e-10
-5.55945e-10
3.01651e-09
1.44735e-08
2.26e-09
-1.82183e-09
-3.95734e-10
4.45619e-10
-2.45515e-10
1.59682e-08
-5.68768e-10
-1.57518e-08
-4.11716e-10
-5.31622e-10
3.21162e-10
-2.45916e-10
3.46547e-09
-1.64439e-08
4.7591e-10
-1.54461e-09
-2.13615e-09
-2.33122e-09
1.561e-08
-9.0596e-08
-1.3899e-10
9.16833e-08
-1.90529e-10
-8.91685e-08
-4.76662e-10
9.31063e-08
-2.75533e-10
-9.29169e-08
-5.55088e-10
-1.63053e-09
1.67342e-08
9.19846e-08
-1.96746e-10
2.89933e-11
-2.21227e-10
9.89366e-09
2.5273e-09
-7.57961e-09
-1.2157e-08
-5.67831e-09
8.42993e-09
1.46898e-09
-6.82643e-09
-6.02059e-09
9.02551e-09
-8.507e-11
1.01461e-08
1.94924e-08
-1.79635e-08
3.07963e-09
-1.26778e-08
3.08206e-09
-6.99781e-08
3.94489e-09
-2.05675e-08
-1.30848e-08
-4.95735e-10
-5.95213e-09
-1.52826e-08
9.09105e-09
-1.51632e-08
4.41578e-10
3.73391e-10
-1.86313e-09
-1.65775e-08
1.70212e-08
7.38652e-09
-7.8208e-09
-4.80678e-09
1.52708e-08
-1.68224e-09
6.92881e-10
-1.00523e-09
1.71944e-10
1.19395e-08
3.32062e-09
7.0909e-08
-1.82352e-08
7.59223e-10
-1.49808e-08
-2.38915e-10
-2.79288e-10
-8.91826e-11
6.09536e-08
-6.12291e-08
-6.33693e-08
-6.31365e-08
-6.38532e-11
-2.6246e-10
-9.25906e-08
-6.04543e-08
6.24153e-08
6.50975e-08
-6.02813e-08
6.45747e-08
-6.04647e-08
6.38059e-08
-6.07324e-08
6.33713e-08
9.23134e-08
2.88303e-10
-6.37513e-09
7.51127e-08
-6.54169e-08
4.32293e-11
-4.32293e-11
4.08829e-10
-3.29705e-10
1.54855e-08
-3.14677e-11
3.14677e-11
3.45922e-10
1.534e-09
1.38948e-08
1.33812e-08
-2.7357e-09
3.72704e-09
6.53491e-09
1.85577e-09
3.76544e-10
-2.57679e-10
-2.97927e-09
1.45786e-08
1.48467e-08
-4.28355e-09
1.18179e-08
1.89041e-10
1.51266e-10
2.77181e-09
-8.47507e-10
-1.56166e-09
-5.83924e-09
-2.0484e-10
-4.03793e-10
1.53051e-08
2.62715e-10
7.14453e-11
1.46089e-08
-2.61555e-08
1.77331e-08
2.64222e-09
1.28765e-09
2.49338e-09
-3.72403e-09
1.92825e-08
-1.80518e-08
-8.28493e-11
2.32018e-10
-1.44005e-09
-7.921e-08
-7.07566e-08
1.33324e-09
-5.63316e-10
6.49907e-10
2.29741e-08
1.85977e-08
-6.34903e-09
7.74222e-11
-4.30546e-09
-2.50907e-09
2.99503e-08
1.52424e-10
1.48184e-08
7.35813e-08
5.36027e-11
5.19195e-10
-1.60599e-10
-2.20115e-10
-3.6696e-09
2.42384e-08
-1.4867e-08
1.00194e-09
-1.41624e-08
-5.44077e-11
2.03773e-08
-2.86736e-08
9.33012e-10
2.00003e-09
-3.19921e-10
)
;

boundaryField
{
    back
    {
        type            empty;
        value           nonuniform 0();
    }
    ingreso
    {
        type            calculated;
        value           nonuniform List<scalar> 
14
(
-1.54286e-08
-1.54288e-08
-1.54288e-08
-1.54288e-08
-1.54286e-08
-1.54283e-08
-1.54288e-08
-1.54288e-08
-1.54286e-08
-1.54286e-08
-1.54288e-08
-1.5428e-08
-1.5428e-08
-1.54286e-08
)
;
    }
    salida
    {
        type            calculated;
        value           nonuniform List<scalar> 2(1.01411e-07 1.14589e-07);
    }
    front
    {
        type            empty;
        value           nonuniform 0();
    }
    defaultFaces
    {
        type            calculated;
        value           uniform 0;
    }
}


// ************************************************************************* //
