/*--------------------------------*- C++ -*----------------------------------*\
  =========                 |
  \\      /  F ield         | OpenFOAM: The Open Source CFD Toolbox
   \\    /   O peration     | Website:  https://openfoam.org
    \\  /    A nd           | Version:  7
     \\/     M anipulation  |
\*---------------------------------------------------------------------------*/
FoamFile
{
    version     2.0;
    format      ascii;
    class       volVectorField;
    location    "47.5";
    object      U;
}
// * * * * * * * * * * * * * * * * * * * * * * * * * * * * * * * * * * * * * //

dimensions      [0 1 -1 0 0 0 0];

internalField   nonuniform List<vector> 
591
(
(0.000818677 -3.50879e-05 1.21828e-18)
(0.000802796 -3.02764e-05 -6.63072e-19)
(0.000854931 -3.4217e-05 5.69518e-20)
(0.000847834 -7.95028e-07 -1.49197e-19)
(0.00083093 1.2204e-05 2.2522e-19)
(0.000798152 -3.93433e-05 -1.39682e-19)
(0.000547241 -0.000343084 8.05946e-19)
(0.000800082 1.59627e-06 2.06591e-18)
(0.00574048 0.00249163 9.87696e-19)
(0.000790356 -1.61089e-05 2.44168e-18)
(5.32753e-05 0.000174736 1.21843e-18)
(0.000913915 0.00135853 9.40879e-21)
(0.000795841 7.97997e-06 1.30103e-18)
(0.00160014 0.00237582 -7.8786e-19)
(0.000802051 6.55631e-06 -4.38125e-19)
(9.21287e-05 -0.000231236 2.54098e-22)
(0.000133492 0.000675185 7.05232e-19)
(0.000821032 4.39651e-05 -4.90089e-19)
(0.00194513 0.000381304 4.72931e-19)
(0.00135321 0.000262883 -2.47234e-19)
(0.000832756 1.22876e-06 3.72116e-19)
(0.00339987 0.00655919 -8.14956e-20)
(3.12335e-05 7.35578e-05 2.71022e-19)
(0.000831489 -4.01385e-06 -4.50926e-19)
(1.48143e-05 -1.94646e-05 3.5905e-19)
(0.000761585 2.85012e-05 0)
(9.1508e-05 0.000478445 1.6e-19)
(0.000527254 2.12802e-05 -1.78904e-19)
(0.000749157 5.0597e-05 1.14995e-18)
(0.000816945 2.93494e-05 5.85936e-19)
(6.27134e-05 -2.31235e-06 -3.7832e-24)
(3.97336e-05 -5.05166e-05 3.52297e-19)
(4.17896e-05 -3.59617e-06 -4.64099e-20)
(5.03732e-05 -1.11406e-05 0)
(5.93243e-05 -1.36853e-05 1.13183e-18)
(0.00117079 0.000128321 1.79945e-19)
(3.59212e-05 -6.31096e-06 4.47298e-20)
(0.000826683 1.25659e-05 3.39294e-23)
(3.06359e-05 4.73981e-05 2.66115e-19)
(3.48739e-05 -0.000126379 -8.54898e-19)
(0.000601959 -0.000200619 9.5915e-19)
(2.93841e-05 -8.12702e-06 4.54977e-20)
(0.000794208 -4.13932e-06 -1.57355e-18)
(0.000826499 3.06165e-05 -6.88607e-19)
(2.06419e-05 -9.70346e-06 0)
(5.92873e-05 9.03619e-06 8.52149e-20)
(0.00133573 0.00451247 8.9318e-19)
(8.10634e-05 1.97367e-05 8.63897e-20)
(0.000796612 1.99955e-05 0)
(0.000372781 -0.000177307 6.78021e-19)
(0.000375419 0.000277798 5.1205e-21)
(0.000388348 6.13337e-05 -1.00412e-18)
(0.00634746 0.0109419 -7.68247e-19)
(0.00622483 0.0107968 1.52878e-20)
(0.00561373 0.0103804 1.45551e-18)
(0.000810973 1.51014e-05 0)
(7.09207e-05 3.46697e-05 0)
(0.000319239 2.54438e-05 1.03627e-23)
(6.76356e-05 1.31117e-05 -3.46569e-19)
(0.000819807 -7.95856e-06 0)
(0.00062141 2.79013e-05 3.1768e-19)
(0.000824071 -1.15323e-06 2.21276e-18)
(0.000786911 1.5414e-05 -5.45351e-19)
(0.000796426 1.83609e-05 -3.1587e-19)
(0.00171954 0.000468053 5.4257e-19)
(0.000790216 4.17411e-06 -1.15462e-18)
(0.000821198 5.22171e-06 -5.24198e-19)
(8.76359e-05 7.81554e-07 -1.73467e-19)
(0.000684044 0.00227619 0)
(0.000825554 2.67386e-05 0)
(0.00076656 1.54121e-05 -1.38713e-18)
(4.11387e-05 1.7991e-05 0)
(0.000284796 0.000274581 3.2693e-19)
(4.57633e-05 -1.88043e-05 0)
(4.63794e-05 -6.37523e-06 1.59524e-19)
(2.39774e-05 -5.09148e-05 -3.36789e-20)
(0.00077863 7.09135e-05 2.47191e-19)
(4.7823e-05 1.2457e-05 0)
(0.000791447 5.70132e-05 4.47314e-19)
(0.000760664 0.000295991 2.10793e-19)
(0.000964835 5.99689e-05 -3.98084e-20)
(4.61685e-05 2.5637e-05 -4.52008e-20)
(6.84987e-06 -3.23791e-05 0)
(0.000426219 0.000221019 1.70233e-19)
(2.71838e-06 2.80524e-05 0)
(0.000773151 3.06013e-05 -6.09257e-19)
(0.000581008 -0.000119631 0)
(7.02395e-05 5.63171e-07 -1.74535e-19)
(4.85896e-06 -4.39471e-05 0)
(0.000818506 0.000246158 -3.4138e-19)
(4.79332e-06 -1.97102e-05 0)
(0.000417709 0.000324594 -1.27693e-23)
(0.000519084 0.000114873 0)
(0.000797724 4.90046e-05 -3.83583e-24)
(3.01285e-06 1.83596e-05 -4.21849e-20)
(0.000442817 -2.3331e-06 1.76415e-18)
(0.00102336 7.28476e-05 4.1618e-20)
(0.000884843 4.24364e-05 6.40856e-22)
(0.000730997 0.000656816 2.69574e-19)
(6.08033e-06 5.67171e-05 0)
(5.14965e-06 -7.46469e-05 -3.12476e-19)
(-2.98248e-06 -0.000140411 -1.09941e-18)
(3.04662e-06 8.8957e-05 -5.96315e-19)
(0.000658596 -1.32834e-05 0)
(6.86073e-06 0.000114889 0)
(0.000798181 1.53422e-05 2.20966e-18)
(0.000775078 2.02403e-05 1.52704e-18)
(0.000410419 -5.6172e-05 0)
(4.701e-05 0.000225661 -8.95465e-19)
(-1.20093e-06 0.000185676 4.96512e-19)
(6.94928e-05 0.000433962 6.2513e-19)
(0.000300194 9.59853e-05 -9.37345e-19)
(0.000803404 1.74394e-05 1.37421e-19)
(0.000263892 -2.28053e-05 5.31391e-19)
(3.84057e-06 3.90599e-05 0)
(2.76458e-05 0.000301456 -1.09392e-18)
(0.000316082 0.000327375 -1.61744e-19)
(5.09227e-06 -5.89565e-05 1.46626e-19)
(0.000666492 0.000808703 0)
(0.000363262 0.000391388 5.74562e-20)
(0.000808876 5.3807e-06 1.0712e-18)
(0.000795779 -1.11917e-06 -2.68493e-18)
(8.02383e-06 -8.98368e-05 0)
(0.00070048 -2.54983e-05 -1.12361e-19)
(0.000319467 -8.59603e-05 1.24365e-18)
(0.00265791 0.000794136 -3.35909e-19)
(2.82452e-06 0.000145969 -6.13147e-19)
(-6.01711e-07 0.000178202 1.61923e-18)
(0.00076258 1.96587e-05 -3.89662e-20)
(6.89459e-05 -1.08552e-05 -7.50412e-19)
(0.000797658 2.33597e-05 -3.8897e-19)
(0.000810355 2.63516e-05 -4.1019e-20)
(4.54891e-05 0.000349077 -5.96757e-19)
(0.00047569 7.61458e-05 -4.9408e-19)
(5.34798e-05 -2.60685e-06 1.56205e-19)
(0.000823634 1.58738e-05 -1.0819e-18)
(0.00158926 0.00022833 -1.13624e-18)
(2.99245e-06 7.0951e-05 4.96415e-19)
(0.000805053 1.53507e-05 -4.95727e-19)
(0.000895849 0.000539382 -7.85332e-20)
(0.000136147 0.000810567 0)
(0.00056839 6.6425e-05 0)
(0.00027313 6.06334e-05 -1.61017e-18)
(6.61173e-05 6.23068e-05 -1.37452e-18)
(3.32433e-05 2.25535e-05 0)
(0.00424691 0.00739994 -1.01975e-20)
(0.00422529 0.00737133 3.16294e-20)
(0.00442733 0.00757421 -4.96748e-21)
(0.00420679 0.00773592 0)
(0.00419934 0.00760106 5.77058e-19)
(0.00424422 0.00740079 -9.19285e-20)
(0.0042102 0.00804415 4.84242e-19)
(0.00428939 0.00742112 0)
(0.00420806 0.0085382 6.16521e-19)
(0.00432636 0.00744946 2.2388e-19)
(0.000813595 -1.39965e-06 -1.37158e-18)
(0.000758817 5.01905e-05 0)
(0.000216523 6.19612e-05 1.27724e-19)
(5.38115e-05 1.80639e-05 8.72125e-20)
(8.11526e-05 4.87895e-05 6.80232e-19)
(0.000109674 4.60207e-05 -3.41774e-19)
(0.000104987 9.92461e-06 0)
(5.2108e-05 6.29513e-06 8.18614e-20)
(0.000205025 0.000140024 0)
(0.00016862 5.07114e-05 -5.2441e-20)
(0.000339316 0.000227571 -5.09389e-21)
(5.85956e-05 4.62519e-05 -4.37793e-19)
(9.44901e-05 3.16353e-05 -8.52741e-20)
(9.32744e-05 6.62526e-05 1.31235e-21)
(0.000250899 0.000370197 -6.66342e-19)
(0.000110665 0.00102412 0)
(4.42879e-05 5.58268e-05 3.43169e-19)
(0.000207588 0.00176506 0)
(0.000206838 0.000257802 7.04848e-19)
(4.20452e-05 -4.64025e-06 1.1145e-19)
(0.000474466 0.000167514 -1.7235e-19)
(0.000751141 2.72361e-05 -1.92477e-18)
(4.64808e-05 -7.30232e-07 4.20705e-24)
(0.00015288 3.13079e-05 2.24656e-19)
(0.000241771 0.000100694 -8.99593e-20)
(0.000879602 0.000710286 3.3503e-19)
(0.000721829 0.00162727 -9.23447e-21)
(0.000382043 0.00142939 -9.39163e-21)
(0.00101926 0.000554338 0)
(0.00010872 -1.24698e-05 1.11909e-18)
(0.000120982 2.1888e-05 -4.43294e-20)
(0.000439178 -0.000280163 -1.13596e-18)
(0.000805522 3.19602e-05 0)
(0.000184198 1.41264e-05 3.63401e-19)
(0.00030098 0.00132633 0)
(0.00105597 0.000763978 -7.30402e-20)
(0.000823555 3.7329e-05 -1.86261e-19)
(8.41208e-05 -1.95131e-05 -3.00084e-19)
(0.000816146 0.000319418 -2.08113e-20)
(6.53054e-05 -2.1706e-05 -5.99706e-19)
(0.000226028 0.000180688 8.6411e-20)
(0.000227689 0.000311647 -3.45102e-19)
(0.000876243 0.000242703 0)
(0.000804857 4.75716e-05 0)
(0.000260599 0.000145236 1.76896e-19)
(0.00023466 1.18837e-05 1.24589e-24)
(0.000184479 0.000210611 0)
(0.000285444 0.000654181 -5.55839e-21)
(0.000338258 9.04967e-06 0)
(0.000355375 0.000601528 0)
(0.000111889 8.75414e-05 -1.34712e-21)
(0.00081019 1.72844e-05 -9.37856e-19)
(0.000810472 1.43496e-05 7.80791e-19)
(0.000131725 6.35934e-05 -1.49902e-19)
(0.00094733 0.000153191 8.50975e-20)
(0.000830011 4.61124e-05 3.32913e-19)
(0.000808362 2.10507e-05 -2.93843e-19)
(0.00100474 0.000407067 0)
(0.000431825 0.000125114 6.2463e-19)
(0.000889012 0.000317352 2.09204e-20)
(0.000564821 0.000161064 0)
(0.000271774 0.000445488 4.09742e-19)
(0.000260168 0.000222396 -8.44403e-20)
(0.00109302 0.000375475 -7.82206e-19)
(0.000609962 0.000109845 -1.79352e-19)
(0.000798614 7.46376e-05 -7.45763e-21)
(0.000831805 2.91447e-05 9.37221e-20)
(9.27724e-05 -8.91151e-05 -1.982e-18)
(0.000731433 0.000382291 2.19297e-19)
(0.000654623 6.20137e-05 2.30678e-20)
(0.000697842 0.000277772 1.58488e-23)
(0.000721154 0.000455974 -4.09706e-19)
(0.000838364 3.74978e-05 9.06682e-20)
(7.44468e-05 8.49179e-05 0)
(0.000647793 0.000416586 -4.65875e-20)
(0.000184651 0.000102766 0)
(0.000372071 0.000502943 -2.64898e-19)
(0.000309301 0.00017398 0)
(0.000666454 0.000202683 3.55344e-19)
(0.000640051 0.000262543 -4.37389e-20)
(8.2603e-05 0.000107538 6.19348e-19)
(0.000873621 9.30731e-05 -1.62731e-18)
(6.1324e-05 2.46652e-05 2.57274e-19)
(0.000875179 5.75198e-05 -1.67635e-18)
(0.000830348 8.21028e-05 1.62833e-19)
(0.000803665 2.6516e-05 1.90239e-18)
(0.000802665 2.60607e-05 -1.30313e-19)
(0.000724051 7.3922e-05 0)
(0.000806391 3.06762e-05 8.94438e-19)
(0.000944388 0.000229566 -4.27249e-19)
(0.000759506 8.59386e-05 -4.83801e-19)
(0.000772045 0.000227338 -8.81523e-20)
(0.000227245 -0.000138472 -2.08006e-18)
(0.000731826 8.45754e-05 8.86816e-19)
(0.000636969 0.000596978 0)
(0.00011107 -0.00010856 0)
(0.00120247 0.000469788 4.97248e-19)
(0.000695874 -7.15988e-05 -3.23429e-18)
(0.00132526 0.000430116 5.7592e-19)
(0.00123262 0.000719434 -6.38559e-20)
(0.000800101 3.60909e-05 -2.11121e-19)
(0.000825982 6.9152e-05 -1.42459e-18)
(0.000813253 1.87652e-05 1.55671e-18)
(0.000813761 3.00392e-05 9.69552e-20)
(0.000665263 0.000348494 -4.40533e-20)
(0.000103914 0.000130594 5.37741e-24)
(0.00073462 -5.1878e-05 2.65191e-19)
(0.000230809 -0.00023377 -7.34035e-19)
(0.000611605 0.000189129 0)
(0.000693568 3.42606e-05 9.90756e-20)
(0.000672457 1.03184e-05 -3.80945e-19)
(0.000383166 0.000175852 3.93473e-20)
(0.000795816 0.00050046 -1.6552e-19)
(0.000151898 8.22494e-05 2.64536e-25)
(0.000806115 0.000403375 0)
(0.000969151 0.000321426 4.15908e-20)
(0.000741004 -8.59213e-05 -6.16527e-19)
(0.000342689 0.000112045 4.9793e-19)
(0.000899255 0.000421374 0)
(5.24255e-05 3.40679e-05 1.33753e-19)
(0.000474762 0.000271408 2.1401e-19)
(0.000472118 -0.000124795 -7.09559e-19)
(0.000159023 -0.000145928 -1.05938e-18)
(0.000817744 2.34853e-05 -4.77064e-19)
(0.000790751 -0.000106029 -1.93981e-19)
(0.000558112 0.000725223 -1.17468e-18)
(0.000836805 4.52105e-05 -6.71615e-20)
(0.000688725 -2.86594e-05 1.26137e-18)
(0.000684405 9.90979e-05 2.2786e-20)
(0.000520746 0.000214526 -1.6573e-19)
(3.67765e-05 -2.36802e-05 -8.76108e-20)
(0.000181216 -3.33191e-05 2.40686e-18)
(2.38888e-05 8.93255e-07 -1.94884e-19)
(0.000809356 0.000102936 3.63002e-19)
(0.000646851 0.000138263 0)
(0.000195994 -6.79654e-05 -1.0484e-18)
(0.000127162 -1.01203e-05 3.13003e-19)
(0.000120608 -3.30217e-05 5.42277e-24)
(0.000788042 0.000110359 -3.19367e-19)
(0.000157396 -6.63821e-06 0)
(0.000576077 0.000243532 0)
(0.000111153 0.000335274 -3.62945e-19)
(0.000849883 9.89952e-05 2.10783e-18)
(1.94774e-05 1.46274e-06 0)
(0.000866457 4.944e-05 0)
(4.92857e-05 -2.65011e-05 0)
(0.00081305 3.80087e-05 -4.45565e-21)
(0.000796469 -5.69456e-05 0)
(0.00425941 0.00740591 8.06844e-20)
(0.00436221 0.00748565 1.43724e-19)
(0.000842787 1.64019e-06 0)
(0.000771478 -5.49557e-05 8.11934e-19)
(0.000153475 0.000131086 1.4925e-19)
(0.000844563 7.35507e-05 8.07919e-19)
(0.000132382 0.000107664 2.34464e-20)
(0.000767504 -3.54575e-05 6.25598e-19)
(3.79122e-05 1.10583e-05 0)
(3.29367e-05 -1.54103e-05 -4.48623e-20)
(0.000882931 5.07278e-05 -4.86239e-19)
(3.99504e-05 -3.441e-05 -6.69983e-19)
(0.000745884 0.000118937 -4.23383e-20)
(0.000167948 0.000168667 -1.8815e-19)
(0.000811841 2.05193e-05 0)
(0.00468214 0.00815384 9.01339e-22)
(0.000169859 0.000785143 3.3367e-19)
(0.000128625 -5.18451e-05 -9.14807e-19)
(6.8543e-05 -3.51761e-05 -1.1691e-18)
(0.000699829 1.62272e-05 1.89923e-20)
(0.000575957 0.000412226 0)
(0.000410183 0.000438821 -2.56397e-19)
(9.82715e-05 -5.58994e-05 1.184e-18)
(0.000657125 1.63357e-06 7.66106e-20)
(4.56907e-05 2.40376e-06 4.07211e-19)
(0.000674223 -5.84099e-05 1.17207e-18)
(0.000807865 3.04258e-05 -5.96266e-19)
(7.77904e-05 -5.54559e-05 1.70966e-18)
(0.00084055 -9.63317e-06 -4.97714e-24)
(0.000676155 8.23199e-06 -3.76648e-20)
(0.000859346 6.36468e-05 0)
(0.000826298 3.26696e-05 0)
(0.00591894 0.00723693 2.59248e-19)
(2.50346e-05 -9.50561e-07 -1.19604e-19)
(0.000151678 -8.87217e-05 7.73146e-19)
(0.000713848 0.000121469 -6.96684e-19)
(2.86682e-05 -4.33324e-07 2.01537e-19)
(0.000593495 -2.97679e-05 -7.24079e-19)
(0.000731399 3.371e-05 1.55862e-18)
(0.000694514 0.000157648 -3.5555e-19)
(0.000806811 -1.40137e-05 3.57348e-19)
(8.69295e-05 -3.12499e-05 1.11639e-18)
(0.000795605 8.87326e-06 -3.22816e-19)
(0.000858688 4.55995e-05 0)
(0.000532914 0.00030311 4.21137e-20)
(0.000845308 4.79196e-05 -9.35658e-19)
(2.52858e-05 1.29947e-06 9.11325e-19)
(0.000841732 4.55817e-05 9.56079e-19)
(0.000847884 -6.48414e-06 -9.59292e-19)
(0.000727672 1.51288e-06 -5.694e-19)
(0.000499647 -6.01741e-05 -5.25828e-19)
(0.00432915 0.00745219 2.47708e-19)
(0.00422372 0.00752971 -2.78748e-19)
(0.00422179 0.00758759 2.66662e-19)
(0.0042555 0.00741032 1.9789e-19)
(0.00084615 -1.41585e-05 1.43952e-19)
(0.00447548 0.0075115 0)
(0.00440307 0.00751649 -3.86518e-19)
(3.79156e-05 -1.95549e-07 -9.98272e-19)
(0.00417079 0.00746978 -6.33504e-20)
(0.00414637 0.00743289 -2.21475e-19)
(0.00602938 0.0106066 0)
(0.00654028 0.0111875 3.71015e-20)
(0.00600933 0.0105763 0)
(0.00655595 0.011211 1.30772e-19)
(0.00599653 0.0106007 2.69633e-19)
(0.00659239 0.0112274 1.24585e-20)
(0.00593516 0.0106136 -7.76531e-19)
(0.00662257 0.0111463 8.15803e-21)
(0.00390273 0.00920291 -1.90896e-19)
(0.00418751 0.00748908 3.8633e-21)
(0.00423857 0.00755282 7.93335e-20)
(0.00415071 0.00743503 4.11961e-20)
(0.00086105 0.000185304 4.46898e-20)
(1.40357e-05 2.00747e-06 0)
(0.000676437 -0.00013975 0)
(0.000689716 4.1552e-05 0)
(0.00244 0.00111509 4.24467e-21)
(0.000746283 -3.00767e-05 1.72654e-19)
(4.41833e-05 6.93422e-06 4.542e-20)
(1.54112e-05 -3.12182e-05 1.6537e-18)
(0.000841898 1.96735e-05 0)
(3.05169e-05 1.43291e-05 -1.91789e-19)
(0.000142472 0.000228308 0)
(2.5032e-05 -1.21768e-06 0)
(2.06743e-05 -1.75137e-06 0)
(0.000807767 0.000129352 1.13597e-20)
(0.000808854 -1.13107e-05 1.77617e-19)
(3.42157e-05 0.000293004 -1.95333e-23)
(0.00015975 0.000276628 -1.84242e-18)
(0.000595392 0.000333961 -8.57243e-20)
(0.000893453 0.000121159 5.9935e-19)
(0.000695181 -0.000306804 6.733e-19)
(0.000351891 0.00111017 0)
(0.000458896 0.000570352 2.71587e-18)
(9.32831e-05 0.000151377 -1.8034e-18)
(3.03046e-05 3.33028e-07 0)
(0.000817059 -4.47675e-05 3.63752e-20)
(1.87235e-05 4.02337e-05 1.64501e-18)
(0.000899985 2.78951e-05 2.71357e-19)
(1.7427e-05 -8.35456e-05 3.78922e-18)
(0.000928785 3.93728e-05 -2.69157e-19)
(0.00138226 0.000147715 7.47743e-19)
(4.07421e-05 -1.17612e-05 8.25985e-20)
(4.15695e-05 5.65549e-06 -8.59275e-19)
(4.97678e-05 0.000149742 0)
(0.000897805 7.65538e-05 5.98204e-19)
(0.000489138 0.000369227 2.37207e-19)
(0.000723689 1.78137e-05 -3.891e-20)
(0.000765234 -1.03288e-05 2.56823e-19)
(0.000729724 -0.000210466 0)
(0.00632066 0.0108968 -1.68086e-19)
(0.00637904 0.0109738 4.05711e-19)
(0.00615999 0.0107317 -6.1824e-19)
(0.00650105 0.0111323 -8.09895e-20)
(3.77519e-05 0.000123141 8.00782e-19)
(0.000904247 5.82363e-05 1.50763e-22)
(0.00641115 0.0110066 -3.86356e-19)
(0.0062812 0.0108471 5.4812e-19)
(0.00608037 0.0106733 -4.16633e-19)
(0.00652156 0.0111648 -6.81313e-20)
(8.399e-05 0.000529824 -2.01894e-20)
(0.000126276 -0.000200718 -7.92975e-19)
(0.000721014 -1.66033e-05 -7.60008e-19)
(0.000716573 0.000221036 0)
(0.000796873 1.51444e-06 0)
(0.000184184 0.000393276 3.36386e-19)
(0.000595116 0.000531677 -5.41735e-19)
(1.48962e-05 -2.37993e-06 1.78458e-19)
(0.000205514 0.000465274 -7.38587e-19)
(0.00100022 0.000971144 -1.12747e-19)
(0.000733154 0.000168325 0)
(0.000780273 0.000177142 1.31068e-19)
(0.00635832 0.00587338 1.13092e-18)
(0.000736106 0.00113177 8.26994e-20)
(4.20119e-05 4.15771e-05 -7.44942e-20)
(0.000815152 2.89965e-05 0)
(0.000875586 2.54137e-05 -3.57051e-20)
(3.97555e-05 4.68794e-06 -1.96743e-19)
(3.42466e-05 6.14086e-06 1.93042e-19)
(0.000827478 2.33357e-05 5.35993e-19)
(0.000963664 0.000104874 6.58751e-19)
(0.000619997 3.6227e-05 0)
(0.000219719 -0.000314488 -3.96793e-19)
(0.00090492 0.000150382 3.89757e-19)
(2.57587e-05 -7.37991e-05 2.03189e-19)
(0.0014365 0.000410373 -2.5814e-18)
(0.000651433 -2.72971e-06 0)
(0.000783017 0.000144529 3.75611e-19)
(9.23761e-05 0.00040331 0)
(0.00118348 0.00816856 4.62058e-19)
(0.000477046 0.0005038 -1.22469e-18)
(0.000544187 0.000986835 -1.83802e-19)
(0.000871498 2.19158e-05 -1.459e-19)
(1.60156e-05 2.8405e-05 0)
(0.000926908 7.54313e-05 6.11956e-19)
(0.00410802 0.00739645 8.14108e-20)
(0.00417224 0.0074745 4.73131e-20)
(0.00449886 0.00751399 4.53936e-19)
(0.00444445 0.00754107 -3.2775e-19)
(0.00647478 0.0111087 8.1068e-20)
(0.00391526 0.00714718 -9.59732e-22)
(0.00550754 0.00779437 -5.64579e-19)
(0.00409848 0.00737295 5.21371e-21)
(0.00518747 0.00785474 5.11497e-19)
(0.00408065 0.00734172 -4.86656e-20)
(0.0049524 0.00771404 0)
(0.00408676 0.00736616 -8.55784e-20)
(0.00474112 0.00758587 4.92394e-19)
(0.00409939 0.00737697 8.74834e-20)
(0.00457393 0.00752561 0)
(0.00428329 0.00741961 1.39737e-19)
(0.00423989 0.00759907 5.80013e-19)
(0.00446696 0.00752629 -5.52516e-19)
(0.00438728 0.00750416 3.7123e-19)
(0.00422891 0.00752576 3.22751e-19)
(0.00643037 0.0110423 -4.97245e-21)
(0.00411895 0.00740215 3.11548e-20)
(0.00645827 0.0110724 0)
(2.77231e-05 7.58303e-06 -1.89925e-19)
(0.00199336 0.00654121 2.2844e-19)
(0.000843824 -2.71035e-05 1.098e-19)
(0.000857885 1.53083e-05 0)
(2.71809e-06 2.58216e-06 -3.99249e-19)
(3.35833e-05 -0.000177199 6.91806e-19)
(2.48264e-05 6.1489e-05 2.08967e-18)
(0.000816428 0.000179943 -9.01094e-20)
(0.000794787 1.14621e-05 7.06705e-19)
(2.95699e-06 -2.81988e-06 3.101e-19)
(2.39265e-05 -3.97063e-05 -1.84626e-18)
(0.000755936 2.76973e-05 1.63223e-19)
(0.00085811 0.000127319 -3.07695e-20)
(0.000795534 -9.73653e-06 1.46779e-19)
(0.000401782 0.000671411 0)
(8.70334e-05 -0.000152595 1.15119e-18)
(0.00085179 1.44594e-05 1.52391e-19)
(2.2014e-05 2.66855e-05 0)
(0.000108515 0.000566361 -6.31371e-19)
(0.000604373 0.000601732 1.31827e-18)
(0.000332201 0.000737062 0)
(0.000796424 -1.80457e-05 0)
(0.000795019 8.12179e-06 1.1684e-18)
(2.08246e-05 5.27786e-05 -3.51609e-18)
(1.94827e-05 9.13914e-06 3.73751e-19)
(0.000115048 0.000152074 0)
(5.53287e-05 -4.32681e-05 0)
(6.6071e-05 0.000118279 2.01065e-19)
(0.000922312 0.000178621 3.50565e-19)
(0.000798781 1.39215e-05 -1.38824e-18)
(2.50304e-05 3.68213e-05 0)
(0.000519914 2.73669e-05 -6.03117e-20)
(0.000799673 4.00872e-05 -1.56408e-19)
(0.000830231 2.57356e-05 1.0405e-18)
(0.000257502 0.000544969 6.324e-19)
(0.000855948 0.000153006 0)
(2.55314e-05 -2.8193e-05 5.38867e-19)
(3.78745e-06 -1.02848e-05 -3.20081e-19)
(0.00103124 2.53742e-05 0)
(0.00103348 0.00224307 0)
(0.000990565 -2.07379e-05 0)
(0.000991331 0.000200833 4.27346e-19)
(0.000812927 -2.55204e-05 -2.8332e-19)
(0.000913744 0.000115004 -6.85042e-19)
(0.00079606 3.82048e-06 0)
(4.35151e-05 7.4364e-05 -1.71623e-19)
(0.000173531 0.000330183 1.08144e-18)
(0.000795018 2.56803e-05 1.95187e-24)
(0.0010753 0.000201798 -6.69099e-19)
(0.00108857 0.00012021 0)
(3.25745e-06 9.48636e-06 2.51116e-19)
(2.28446e-05 -1.85504e-05 -1.94382e-19)
(0.000619169 3.35815e-05 6.88884e-21)
(3.02802e-05 -9.81407e-05 0)
(0.00104112 0.000249455 9.50187e-19)
(0.00502833 0.00974912 -2.83086e-19)
(0.00311953 0.00962247 1.27192e-18)
(6.67891e-05 -0.000115901 -1.9136e-19)
(7.23218e-05 -8.00053e-05 1.86024e-18)
(0.00119196 0.000232237 1.671e-19)
(0.00133561 0.00107585 2.34155e-19)
(0.000817853 1.44735e-06 -7.32162e-19)
(0.000210631 0.000950415 -2.38742e-19)
(0.000798548 0.000905474 -2.18643e-19)
(0.000797695 -5.02485e-06 0)
(9.17656e-05 0.00065329 0)
(9.7078e-05 0.000286175 -4.41938e-23)
(0.000729415 -3.21511e-05 -1.68861e-23)
(0.000814796 4.85433e-05 1.50734e-19)
(0.00262428 0.00206513 -1.23182e-18)
(0.00175754 0.00924392 -1.17133e-19)
(0.000829912 3.56271e-05 4.86181e-19)
(0.00633381 0.00403901 -1.75781e-19)
(0.00672057 0.0115573 -1.36557e-20)
(0.00473411 0.00784454 4.93428e-21)
(0.00079975 1.85875e-05 -2.17991e-18)
(0.000828094 2.32981e-05 -4.68648e-25)
(1.2706e-05 -1.01053e-05 -3.48144e-19)
(4.76944e-05 9.59049e-05 -3.49396e-19)
(7.37939e-05 0.000279026 8.7575e-19)
(1.36344e-05 1.87486e-05 4.9058e-19)
(9.00545e-05 0.000237334 3.69879e-19)
(0.000821529 3.22279e-05 0)
(0.00534767 0.00949219 1.95011e-20)
(0.00154255 0.000613802 -2.61098e-20)
(0.00082046 2.73262e-05 3.55607e-19)
(5.17265e-05 -9.05969e-05 0)
(0.00184434 0.000744768 5.46197e-19)
(1.1948e-05 9.59884e-06 -2.7025e-19)
(3.71447e-05 3.18619e-05 9.72166e-20)
(0.00131368 0.00138134 6.36497e-19)
(0.000739488 4.09474e-05 1.83185e-19)
(8.95852e-06 -2.63774e-06 -1.70266e-19)
(0.00206413 0.00154728 -1.05642e-18)
(0.000127028 0.000185299 -8.18992e-19)
(0.00392082 0.00848591 -1.0911e-18)
(8.45462e-06 2.34951e-06 8.81738e-20)
(0.000174136 -0.00021541 -1.25098e-18)
(6.01393e-05 -6.00127e-05 4.058e-20)
(0.00153166 0.000967689 0)
(0.00102956 0.000141017 -4.17112e-22)
(0.000452673 0.000852899 -4.02318e-20)
(0.000801423 2.3564e-05 -2.33959e-19)
(8.7167e-05 0.000191648 7.36292e-19)
(4.40263e-05 -6.83904e-05 4.04176e-19)
(2.06579e-05 1.75553e-05 -9.47438e-20)
(3.54149e-05 9.99145e-05 -3.20397e-19)
(0.000199797 -0.000323576 -5.41027e-19)
(0.00324875 0.00344647 2.77936e-21)
)
;

boundaryField
{
    back
    {
        type            empty;
    }
    ingreso
    {
        type            fixedValue;
        value           uniform (0.0008 0 0);
    }
    salida
    {
        type            zeroGradient;
    }
    front
    {
        type            empty;
    }
    defaultFaces
    {
        type            noSlip;
    }
}


// ************************************************************************* //
