/*--------------------------------*- C++ -*----------------------------------*\
  =========                 |
  \\      /  F ield         | OpenFOAM: The Open Source CFD Toolbox
   \\    /   O peration     | Website:  https://openfoam.org
    \\  /    A nd           | Version:  7
     \\/     M anipulation  |
\*---------------------------------------------------------------------------*/
FoamFile
{
    version     2.0;
    format      ascii;
    class       volScalarField;
    location    "73";
    object      p;
}
// * * * * * * * * * * * * * * * * * * * * * * * * * * * * * * * * * * * * * //

dimensions      [0 2 -2 0 0 0 0];

internalField   nonuniform List<scalar> 
591
(
0.000123884
0.000123902
0.000123906
0.000123858
0.000123861
0.000123931
0.000123924
0.000123894
0.000116988
0.000123911
0.000124092
0.000122829
0.0001239
0.00011973
0.000123894
0.000123941
0.000123876
0.000123938
0.000121954
0.000123272
0.000123875
-3.52608e-06
0.000124089
0.000123877
0.000124046
0.000123898
0.000124
0.000124007
0.000123911
0.000123919
0.000124066
0.000124041
0.000124061
0.00012406
0.000124062
0.000123385
0.000124057
0.000123878
0.000124084
0.000124003
0.000123963
0.000124054
0.000123906
0.000123928
0.000124051
0.00012407
0.00011924
0.000124074
0.000123911
0.000124029
0.000124019
0.000124052
2.39434e-05
3.05892e-05
4.78433e-05
0.000123904
0.000124079
0.000124067
0.000124072
0.000123885
0.000123972
0.000123902
0.0001239
0.000123949
0.00012257
0.000123902
0.000123905
0.000124069
0.000120722
0.000123916
0.00012391
0.000124076
0.000124045
0.000124055
0.000124061
0.000124037
0.000123879
0.000124073
0.000123881
0.000123816
0.000123658
0.000124077
0.000124037
0.000124017
0.000124085
0.000123892
0.000123982
0.000124067
0.00012403
0.000123782
0.000124042
0.000123988
0.000124004
0.000123884
0.000124083
0.000124037
0.000123589
0.000123488
0.000123648
0.000124089
0.000123997
0.000123913
0.000124093
0.000123856
0.000124094
0.000123903
0.0001239
0.000124043
0.000124085
0.000124088
0.000123976
0.000124064
0.000123917
0.000124069
0.000124087
0.000124067
0.000124021
0.000124016
0.00012358
0.000123988
0.000123903
0.000123897
0.000123981
0.000123883
0.000124056
0.0001202
0.000124092
0.000124069
0.000123656
0.000124062
0.000123893
0.000123581
0.000124028
0.000124024
0.000124065
0.000123908
0.000122627
0.000124091
0.000123896
0.000123578
0.000123643
0.000123991
0.000124074
0.000124085
0.000124079
7.61612e-06
3.67832e-06
2.07097e-06
3.81602e-05
3.67001e-05
5.66074e-06
3.83111e-05
1.57398e-05
3.7292e-05
1.78065e-05
0.000123903
0.000123894
0.000124081
0.000124074
0.000124081
0.00012408
0.000124073
0.000124069
0.00012408
0.000124079
0.000124043
0.000124082
0.000124078
0.000124084
0.000124022
0.000123394
0.000124084
0.000122122
0.000124064
0.000124064
0.000124012
0.000123913
0.000124065
0.000124079
0.000124077
0.000123491
0.000122472
0.000123049
0.000123445
0.000124068
0.000124075
0.000123986
0.000123874
0.00012407
0.000122967
0.000123301
0.000123875
0.000124063
0.000123758
0.000124057
0.000124073
0.000124047
0.000123728
0.000123865
0.000124071
0.000124077
0.000124075
0.000123873
0.000124059
0.000123869
0.000124086
0.000123897
0.000123896
0.000124083
0.000123689
0.000123866
0.000123906
0.000123543
0.000124034
0.000123689
0.000123977
0.000123988
0.000124062
0.000123457
0.000123966
0.000123858
0.00012386
0.000124038
0.000123797
0.000123952
0.000123866
0.000123777
0.000123852
0.000124087
0.000123842
0.000124083
0.000123932
0.000124061
0.000123908
0.000123909
0.000124089
0.000123801
0.000124076
0.000123791
0.000123838
0.000123901
0.000123881
0.000123918
0.000123904
0.000123674
0.000123877
0.000123829
0.000124046
0.000123896
0.000123747
0.000124033
0.000123299
0.000123856
0.000123193
0.000123075
0.000123888
0.000123853
0.00012389
0.000123887
0.000123855
0.000124088
0.000123933
0.000124016
0.000123944
0.000123937
0.00012395
0.00012404
0.00012369
0.000124083
0.000123727
0.000123617
0.000123921
0.000124059
0.000123639
0.000124079
0.000123987
0.000124011
0.000124036
0.000123912
0.000123883
0.000123714
0.000123847
0.000123876
0.000123927
0.000123983
0.00012405
0.000124067
0.000124073
0.000123831
0.000123937
0.000124061
0.000124067
0.000124063
0.000123855
0.000124075
0.000123948
0.000124056
0.000123818
0.000124075
0.000123806
0.000124052
0.000123942
0.000123883
1.16406e-05
2.19116e-05
0.000123834
0.000123908
0.000124086
0.000123837
0.000124086
0.000123919
0.000124075
0.000124052
0.000123789
0.000124047
0.000123876
0.000124082
0.00012391
-2.09749e-07
0.000123773
0.000124058
0.000124053
0.00012375
0.000123898
0.000123939
0.000124047
0.000123807
0.000124069
0.000123954
0.000123903
0.000124046
0.000123854
0.000123781
0.000123815
0.000123912
4.74751e-05
0.000124063
0.000124046
0.000123902
0.00012407
0.000123982
0.000123924
0.000123906
0.000123894
0.000124056
0.00012392
0.000123827
0.00012395
0.000123831
0.000124069
0.000123839
0.000123895
0.000123931
0.000124016
1.98715e-05
2.73081e-05
3.42953e-05
9.63787e-06
0.000123878
3.30554e-05
2.60149e-05
0.000124066
1.9072e-05
1.70281e-05
3.81853e-05
7.57474e-06
3.99375e-05
5.6035e-06
4.08321e-05
3.68767e-06
4.28151e-05
1.87495e-06
3.64047e-05
2.3193e-05
2.94426e-05
1.49906e-05
0.000123759
0.000124077
0.000123946
0.000123952
0.000120897
0.000123997
0.000124072
0.000124042
0.000123845
0.000124077
0.000124078
0.000124058
0.000124055
0.000123819
0.000123894
0.000124062
0.000124068
0.000123905
0.000123776
0.000123844
0.000123409
0.000123861
0.00012409
0.000124062
0.000123906
0.000124084
0.000123751
0.00012393
0.00012371
0.000122862
0.000124056
0.000124068
0.00012409
0.000123763
0.000123948
0.000123709
0.000123918
0.000123908
2.605e-05
2.1876e-05
3.30351e-05
1.16166e-05
0.000124094
0.000123757
1.98181e-05
2.8257e-05
3.5602e-05
9.58653e-06
0.000123909
0.000124007
0.00012386
0.000123871
0.000123896
0.000124028
0.000123819
0.000124052
0.000123993
0.000123102
0.000123874
0.000123841
5.93576e-05
0.000123227
0.000124082
0.000123888
0.000123784
0.000124071
0.000124074
0.00012387
0.00012367
0.000123898
0.000123961
0.000123752
0.000124028
0.000122911
0.000123833
0.000123849
0.000124036
0.000100881
0.000123884
0.000123488
0.000123818
0.000124083
0.000123718
1.08943e-05
2.11119e-05
3.5367e-05
2.82065e-05
1.36602e-05
5.38986e-08
4.20801e-05
2.68883e-06
4.01585e-05
4.76079e-06
3.94169e-05
6.81339e-06
3.86238e-05
8.85587e-06
3.72895e-05
1.36723e-05
3.17267e-05
3.05904e-05
2.3939e-05
2.52606e-05
1.77635e-05
1.29366e-05
1.57058e-05
0.000124076
0.000102413
0.000123877
0.00012381
0.00012408
0.000123972
0.000124086
0.000123803
0.000123932
0.000124048
0.000124043
0.00012405
0.000123804
0.000123901
0.000123804
0.000124009
0.000123839
0.000124081
0.000123949
0.000123781
0.000123785
0.000123912
0.000123904
0.000124087
0.000124078
0.000124087
0.000124047
0.00012409
0.000123718
0.000123899
0.000124082
0.000123844
0.000123973
0.000123904
0.000123944
0.000123785
0.000124047
0.000124045
0.000123359
0.000121373
0.000123088
0.000123632
0.0001239
0.00012373
0.000123911
0.000124087
0.000124051
0.000123905
0.00012352
0.000123499
0.000124081
0.000124049
0.000123919
0.000124015
0.000123558
5.8318e-05
4.01202e-05
0.00012402
0.000124038
0.0001234
0.000122747
0.000123886
0.000123629
0.000123376
0.000123896
0.000123802
0.000124071
0.000123929
0.000123958
0.000119006
5.44789e-05
0.000123926
8.12379e-05
1.86123e-06
-3.81529e-07
0.000123895
0.000123864
0.000124048
0.000124089
0.000124079
0.000124081
0.000124081
0.000123881
-2.30777e-06
0.00012283
0.00012392
0.000124027
0.000122014
0.00012408
0.00012408
0.000122287
0.000123996
0.00012405
0.000121695
0.000124084
7.63462e-05
0.000124078
0.000123728
0.000124041
0.000122376
0.000123608
0.000123667
0.000123929
0.000124087
0.000124034
0.000124079
0.000124091
0.000123899
0.000116177
)
;

boundaryField
{
    back
    {
        type            empty;
    }
    ingreso
    {
        type            zeroGradient;
    }
    salida
    {
        type            fixedValue;
        value           uniform 0;
    }
    front
    {
        type            empty;
    }
    defaultFaces
    {
        type            zeroGradient;
    }
}


// ************************************************************************* //
