/*--------------------------------*- C++ -*----------------------------------*\
  =========                 |
  \\      /  F ield         | OpenFOAM: The Open Source CFD Toolbox
   \\    /   O peration     | Website:  https://openfoam.org
    \\  /    A nd           | Version:  7
     \\/     M anipulation  |
\*---------------------------------------------------------------------------*/
FoamFile
{
    version     2.0;
    format      ascii;
    class       surfaceScalarField;
    location    "73";
    object      phi;
}
// * * * * * * * * * * * * * * * * * * * * * * * * * * * * * * * * * * * * * //

dimensions      [0 3 -1 0 0 0 0];

internalField   nonuniform List<scalar> 
1111
(
6.68428e-09
1.31228e-08
-1.5959e-08
-3.84816e-09
6.70044e-09
-1.18286e-08
1.18124e-08
-1.47485e-08
5.40948e-09
9.09081e-09
2.48247e-10
6.58459e-10
-7.56631e-10
-1.42991e-08
1.43972e-08
-1.42351e-08
1.39797e-08
9.13935e-10
-1.6522e-09
1.49047e-08
2.17601e-09
-3.42813e-09
9.67951e-09
-1.01923e-08
3.94093e-09
-6.7094e-09
-1.26183e-08
1.25962e-08
6.73158e-09
-5.0425e-08
-2.59619e-08
7.63869e-08
-8.13623e-09
7.65092e-09
7.18575e-09
3.45081e-09
3.52024e-10
-3.53235e-09
-2.70477e-10
1.575e-08
-1.60983e-08
-2.31093e-08
2.34576e-08
-9.65203e-09
-7.89591e-09
8.79242e-09
8.75552e-09
-3.54628e-08
1.76464e-08
-3.22961e-08
5.01125e-08
9.51601e-09
-1.96104e-09
-1.42644e-08
-1.12208e-09
1.97258e-09
-3.4463e-09
2.59581e-09
-3.84102e-09
1.33409e-08
1.95413e-09
-1.1454e-08
8.82802e-09
-2.54253e-09
-1.50402e-08
8.75473e-09
3.7554e-08
-3.02907e-08
-7.2633e-09
-1.94409e-08
3.6526e-10
1.72798e-08
1.7958e-09
-9.43243e-10
4.17464e-09
-1.7871e-08
1.46396e-08
-6.12213e-08
-3.9629e-09
6.51842e-08
1.47631e-10
-1.23425e-09
-3.47666e-10
1.43428e-09
-1.57889e-09
-1.35995e-08
-1.32057e-10
-2.8345e-10
2.34362e-10
1.81145e-10
-1.0253e-08
-8.33988e-09
1.28016e-08
5.79121e-09
6.96372e-10
-2.12911e-09
-8.37605e-09
9.8088e-09
8.29531e-09
8.61884e-10
-9.28105e-09
1.23858e-10
-2.86725e-09
-7.90031e-09
1.09768e-08
-2.09233e-10
1.13949e-08
-8.11126e-10
-1.75572e-09
-9.11236e-10
9.01335e-10
3.60555e-11
-2.61547e-11
-1.87693e-10
7.85455e-10
3.3222e-10
-9.29982e-10
-5.19291e-10
-3.92402e-11
5.53871e-10
4.66006e-12
-1.21598e-11
-9.03066e-10
1.06853e-10
8.08373e-10
-7.92565e-11
-8.44138e-10
8.7526e-10
-1.84563e-08
-1.85986e-09
-4.33838e-10
4.7168e-11
-1.32621e-10
1.34014e-08
-1.32449e-08
4.01815e-09
-3.89327e-10
5.94212e-10
3.62709e-10
-5.67594e-10
-1.94398e-10
-1.9022e-09
1.50403e-09
5.92573e-10
-2.10201e-09
1.02561e-08
-1.15822e-08
-3.17258e-10
-1.74038e-10
5.74584e-11
-8.78719e-09
1.02884e-08
-9.63741e-09
1.21536e-08
-1.71331e-08
4.76247e-09
2.16996e-10
6.94947e-11
-1.77406e-10
-2.09346e-10
2.10191e-10
8.28418e-10
-1.37273e-10
-5.95221e-08
7.42344e-08
-1.47123e-08
1.079e-09
-2.92038e-10
-1.22395e-09
4.36995e-10
1.14226e-09
1.03189e-08
-1.37243e-08
2.26311e-09
-1.44183e-09
7.43113e-09
-8.82659e-09
2.83729e-09
-6.61164e-09
5.70261e-09
5.58845e-09
-4.67942e-09
-7.41407e-09
-1.93319e-09
1.90455e-09
7.44271e-09
-1.81629e-10
-9.09243e-08
9.13097e-08
-2.0378e-10
-2.56512e-10
-8.97606e-08
9.01695e-08
-1.52424e-10
8.30865e-08
-1.49466e-09
1.10683e-10
-8.17025e-08
-3.02392e-09
-3.2974e-10
7.1664e-10
8.68069e-10
-5.05711e-10
3.96724e-09
-1.36322e-09
3.37507e-09
-5.97909e-09
-1.01684e-09
9.34994e-10
-1.49638e-08
6.60884e-09
9.56505e-09
1.01636e-09
-1.03103e-08
-2.71134e-10
-6.18912e-09
1.32329e-08
1.20853e-09
-8.25231e-09
1.43511e-08
-4.38026e-09
3.57662e-09
-1.35474e-08
1.54148e-08
1.7019e-09
-1.68795e-09
-2.21361e-10
-2.00534e-08
-7.3941e-09
2.76688e-08
1.41157e-08
-8.55185e-09
-2.01818e-09
7.84625e-09
-1.20172e-08
-4.33109e-11
1.33041e-10
-1.31368e-09
-3.62958e-08
-2.32263e-08
8.20304e-09
1.92876e-10
3.75768e-09
-7.02518e-09
1.09373e-08
6.37623e-09
-6.30094e-10
3.45728e-10
5.07819e-10
-2.23453e-10
5.83054e-09
-4.72018e-09
3.6174e-09
-4.72776e-09
-5.18335e-10
-6.61169e-10
2.7644e-10
7.12247e-10
-6.44633e-10
-5.42884e-11
-9.45242e-10
8.11837e-10
-1.79363e-08
2.46017e-09
1.52032e-09
1.39558e-08
2.48917e-10
-7.38147e-10
-1.40863e-10
-4.03369e-09
-1.50032e-08
1.10068e-09
5.63045e-09
1.19719e-08
-5.22534e-09
-1.2377e-08
1.64536e-08
6.42355e-10
-1.59208e-08
-1.17507e-09
-7.12943e-10
4.87611e-10
5.7106e-10
-5.42141e-10
2.79893e-10
2.62248e-10
-7.30193e-09
-3.6485e-09
4.33879e-09
-2.69738e-10
4.05882e-10
-1.36144e-10
1.24932e-09
-1.5536e-08
-8.45245e-10
9.50867e-09
-1.07654e-08
-1.02409e-09
-5.96428e-10
1.28061e-08
4.39116e-09
-4.13643e-09
-1.30609e-08
1.47837e-10
7.07766e-09
-7.82141e-09
6.44637e-09
-1.76292e-09
-8.78078e-09
8.04439e-09
2.49931e-09
-1.8305e-09
6.42732e-10
-1.38155e-08
-1.549e-10
-1.14837e-10
-2.27946e-11
9.09996e-10
-8.30128e-09
7.37508e-10
1.73133e-08
-1.59727e-09
-1.27171e-08
1.40382e-08
-1.32106e-09
1.21445e-08
1.40138e-08
-1.55443e-08
-1.0614e-08
-6.1932e-10
1.1064e-09
-4.87076e-10
6.55134e-10
-7.18047e-10
6.29128e-11
9.12443e-10
-9.92173e-10
7.97302e-11
1.53048e-09
-1.25403e-09
-2.76449e-10
-1.08195e-08
6.80688e-10
1.01388e-08
2.1966e-09
-6.66125e-10
8.93869e-09
-1.53371e-08
7.19649e-09
-8.66112e-09
5.48405e-11
3.79255e-09
-3.9658e-10
-2.54863e-09
2.60347e-09
-6.78193e-09
8.10951e-09
-1.32757e-09
-6.67932e-10
4.19733e-09
4.3784e-10
1.72723e-08
-1.44943e-08
-1.63573e-09
-5.82451e-09
5.31412e-09
-8.52834e-10
-2.13437e-10
6.08556e-09
-6.10093e-09
1.53656e-11
6.96202e-09
4.45697e-09
5.87061e-11
-1.60261e-08
1.04655e-08
1.77051e-08
5.73068e-09
8.30899e-09
8.23308e-09
-6.84158e-09
1.21185e-09
-1.20313e-08
7.15778e-10
8.90846e-10
-1.28709e-08
3.03409e-09
-4.30625e-10
1.19796e-08
-1.13373e-08
-2.08436e-10
-8.94914e-10
-1.37899e-08
7.44239e-09
8.03323e-10
-2.11036e-11
-8.91213e-09
5.098e-09
-3.05121e-08
-1.25031e-08
-2.70995e-09
1.42318e-09
1.40195e-08
1.09618e-08
-1.07041e-08
-1.42772e-08
1.55423e-08
-3.1106e-09
-1.24317e-08
1.64615e-09
3.92837e-09
-1.22123e-09
-9.29325e-10
-9.23574e-10
1.23103e-09
6.21872e-10
-2.57257e-10
3.80582e-10
3.84495e-10
6.21362e-08
-6.21609e-08
2.47136e-11
6.2058e-08
-6.23615e-08
3.03445e-10
8.36768e-10
6.47446e-08
-6.55713e-08
8.26748e-10
6.41366e-08
6.07949e-10
-2.25301e-10
-6.65167e-08
9.4539e-10
-6.20449e-08
6.19113e-08
1.33639e-10
1.31588e-09
-6.78326e-08
-6.22039e-08
1.58949e-10
1.23946e-08
-8.71243e-10
1.47979e-09
-3.70493e-09
3.09638e-09
3.64393e-10
-1.22623e-09
1.01355e-09
-6.73512e-10
1.42888e-09
-1.68114e-09
9.25773e-10
1.46275e-09
-1.59415e-09
2.64442e-10
-7.20958e-11
-3.3894e-09
2.8935e-09
-2.13218e-09
2.62807e-09
-6.17451e-10
-2.79711e-09
2.54332e-09
-3.68222e-09
-5.71737e-09
6.12006e-10
-6.6751e-10
1.30217e-09
1.14027e-09
-6.54261e-09
7.97687e-09
3.02271e-09
1.99201e-08
-4.37782e-09
-7.53016e-10
2.93952e-10
1.07107e-09
-1.00584e-08
-2.62374e-08
5.38911e-09
-4.36499e-09
-3.14291e-09
2.11878e-09
1.1765e-10
2.05864e-11
4.15636e-10
-2.66542e-09
3.40788e-09
8.82824e-09
8.08794e-10
-3.71148e-10
2.15125e-09
-2.39756e-09
2.01876e-09
1.47668e-08
1.32665e-08
-2.69723e-08
3.26639e-08
6.31735e-09
-2.28316e-08
-1.0458e-08
1.83676e-08
-1.7881e-08
1.04753e-08
-1.53626e-10
-1.29111e-10
-1.31141e-09
-1.78785e-09
-2.92622e-09
3.77914e-09
1.49541e-08
-5.97387e-10
-1.3714e-08
-3.87966e-10
-2.54501e-09
1.3586e-10
1.54663e-08
1.76681e-08
1.36915e-08
6.97933e-10
-1.61888e-09
-1.27706e-08
-1.67574e-09
6.00739e-09
1.24292e-08
-6.06939e-10
-1.13211e-09
-3.57487e-09
2.7529e-09
3.71548e-09
2.46391e-09
1.43429e-08
4.18648e-09
-1.41383e-08
1.78269e-08
-1.77214e-09
2.64122e-09
-3.49695e-09
1.88486e-09
-4.79288e-09
1.29462e-08
-1.19943e-08
-1.40022e-08
4.19607e-10
8.78966e-09
-1.84965e-09
1.54806e-09
1.60375e-09
-8.66363e-09
6.8863e-10
-4.5281e-09
-6.04174e-09
1.22194e-08
-1.48413e-08
1.22738e-09
1.66673e-09
-2.21768e-09
1.66661e-08
-1.61151e-08
-1.01861e-09
1.41127e-08
2.97761e-09
-4.31171e-09
-1.4003e-08
7.4515e-09
-1.7239e-08
-8.09357e-09
6.68152e-09
5.86454e-09
1.44858e-08
-9.83368e-09
3.07825e-09
9.25474e-09
9.87662e-09
3.83093e-09
-4.15519e-09
2.16116e-08
-1.90299e-08
4.86979e-09
-1.03744e-08
2.18689e-09
5.58533e-09
1.37619e-08
-1.88116e-10
1.27252e-08
-1.35557e-08
-1.84549e-09
2.08081e-09
-1.11736e-09
8.82044e-10
1.09452e-08
-6.38573e-09
7.41247e-09
-1.07743e-08
1.41625e-09
-4.74957e-09
1.13908e-08
-1.18666e-08
-7.53703e-09
9.1207e-09
9.36148e-09
1.28191e-08
7.73166e-10
-1.37804e-08
1.56307e-09
8.08221e-10
-1.10329e-08
-6.71695e-09
1.02128e-08
-1.55554e-09
2.51975e-09
-8.93944e-09
4.81389e-09
-5.19619e-09
1.14614e-08
-3.49191e-09
-1.16579e-08
3.68842e-09
-4.49547e-09
1.12073e-08
1.96033e-09
1.1508e-09
-5.03498e-09
-1.76528e-08
1.04126e-08
1.22751e-08
7.93677e-10
-1.09125e-08
-9.90685e-09
1.57844e-08
1.24649e-08
2.82651e-09
-9.70611e-09
-1.32798e-08
-2.96198e-10
-1.27199e-08
1.81358e-10
-7.47249e-10
1.15427e-08
1.24943e-08
-8.21711e-09
1.65025e-08
-1.58895e-08
3.57355e-09
-4.50745e-10
1.73187e-09
1.26746e-08
-3.89474e-09
-1.26187e-08
-5.11845e-09
1.40999e-09
4.59931e-09
1.21252e-08
-7.2836e-09
8.59953e-10
-1.4988e-09
1.04685e-09
-1.39353e-09
5.88246e-09
2.62045e-08
-2.46156e-10
-1.06055e-08
1.08516e-08
2.84679e-08
-2.22201e-08
2.20099e-08
1.96608e-08
-1.26885e-08
-2.6567e-09
1.49973e-08
2.19542e-10
-1.21379e-08
-3.62477e-10
-6.02781e-09
-1.90097e-09
2.27834e-09
1.58297e-09
-2.48606e-10
-1.0989e-08
1.13252e-08
-8.76245e-11
3.09356e-09
-5.37472e-09
-1.08949e-08
1.04813e-08
-8.66205e-10
-1.06554e-08
-1.28328e-10
-1.10482e-08
-2.68436e-09
-1.19567e-08
2.21516e-09
7.88498e-09
5.12803e-09
-1.75487e-10
-1.17365e-08
1.16633e-08
6.13779e-10
-8.69376e-09
5.21114e-09
-1.33125e-09
2.44676e-09
-2.53557e-09
-1.3031e-08
-1.28623e-08
1.24407e-08
-1.02411e-08
-1.57839e-08
9.99899e-09
9.2054e-09
8.63058e-10
2.6118e-09
-1.32173e-08
1.12712e-08
1.6877e-09
3.96887e-09
3.26425e-10
-5.50021e-10
-2.94738e-10
-4.09382e-09
2.60935e-09
-1.06054e-09
2.37802e-10
-2.78903e-10
4.11008e-11
-2.62843e-09
1.29081e-08
2.18522e-09
2.56321e-09
-3.47342e-10
-1.56931e-09
-3.47653e-10
-2.43031e-09
-4.5041e-10
1.28654e-08
9.95465e-09
-3.82842e-10
6.92591e-09
-1.21937e-09
-5.32371e-09
-9.73484e-09
-5.09143e-09
1.83238e-10
5.45649e-11
4.85496e-09
1.31477e-09
-1.70822e-08
-4.39869e-10
-8.28238e-10
-2.71886e-09
1.00064e-09
2.87231e-09
6.19355e-08
-8.71021e-11
-6.18484e-08
6.23539e-08
1.87994e-10
-6.25419e-08
-1.41676e-08
-9.74522e-11
1.4534e-08
-2.68943e-10
2.94824e-09
-1.91795e-09
2.63997e-09
1.79772e-09
-4.44366e-09
-3.89848e-10
-5.68874e-10
4.61327e-10
-1.15906e-10
5.00812e-10
-3.48425e-10
1.94997e-08
1.09951e-09
-1.57443e-08
-2.04434e-10
-1.94207e-09
1.23644e-08
2.2523e-09
1.77109e-09
5.3136e-09
-2.04437e-09
-7.72333e-08
-2.41775e-08
-4.82372e-09
1.57966e-08
2.36803e-09
-3.44581e-10
-3.14627e-09
-1.20346e-09
4.77132e-10
-4.05788e-10
-1.06925e-08
-3.34943e-10
1.10274e-08
-1.07698e-08
-6.62482e-09
1.06777e-08
-9.39704e-09
8.7666e-09
8.72065e-11
1.64902e-09
1.01862e-08
-1.00413e-08
-1.44917e-10
6.55278e-10
8.14203e-11
1.03974e-08
7.99488e-10
-9.25461e-10
-1.90789e-10
-1.42435e-08
-5.06215e-10
-1.36835e-08
1.24952e-08
-1.17615e-08
-6.60171e-08
6.49705e-08
1.04653e-09
3.19009e-10
-2.98422e-10
1.18708e-08
-2.91257e-10
1.23542e-11
-2.03635e-09
2.77611e-09
-3.43378e-09
-1.34911e-08
-1.63727e-09
2.57182e-09
-4.76044e-09
-1.39817e-08
1.6599e-09
5.59029e-09
9.5755e-09
-8.92176e-09
-3.18357e-10
2.71005e-11
-9.34094e-09
-1.31721e-08
1.49994e-10
-6.27072e-08
2.37169e-10
6.247e-08
6.9573e-10
6.34409e-08
-2.25385e-10
-1.42194e-09
-1.4456e-08
1.07327e-10
-6.33833e-08
6.3276e-08
1.82296e-10
-6.2928e-08
6.27457e-08
4.16289e-10
6.18063e-08
1.51215e-10
-6.19575e-08
6.16366e-08
1.69709e-10
-8.79009e-08
8.85105e-08
-1.64492e-12
9.33995e-08
-9.31067e-08
-2.68036e-10
-8.66397e-08
-4.34441e-10
9.33579e-08
-1.83752e-10
-8.49249e-08
-7.69375e-10
9.34885e-08
1.72893e-10
-5.22556e-10
1.96094e-09
9.23643e-08
-6.93272e-08
6.21487e-08
-6.23303e-08
-6.29637e-08
6.14931e-08
1.43464e-10
-3.0488e-09
2.88956e-09
-1.3979e-08
6.08591e-11
1.22379e-10
1.69739e-09
8.86724e-09
-1.14098e-08
3.82941e-08
-3.4484e-08
-1.66811e-08
1.37764e-08
-5.44578e-11
-2.21068e-10
1.99868e-10
7.71157e-10
-1.45928e-10
3.49999e-10
4.54738e-09
1.02796e-09
-3.69048e-09
-2.46592e-10
2.9376e-10
-1.89133e-10
-2.51714e-09
1.30602e-08
2.36508e-09
-1.44469e-08
-2.58633e-09
-3.44968e-09
5.61891e-09
1.04725e-09
-2.67979e-09
1.4237e-08
-1.14453e-09
-2.55588e-09
3.2152e-09
-8.1633e-09
-1.90461e-08
-1.33621e-08
7.86909e-09
5.91264e-09
-2.63657e-10
-5.43265e-10
3.08526e-09
1.44536e-08
2.1962e-09
-1.74506e-09
-4.22193e-10
4.70447e-10
-2.6169e-10
1.5996e-08
-5.33542e-10
-1.57974e-08
-1.09863e-09
-1.01562e-09
3.09888e-10
-2.34702e-10
3.47697e-09
-1.67093e-08
5.2481e-10
-1.59784e-09
-2.19817e-09
-2.37843e-09
1.5483e-08
-9.06023e-08
-1.39699e-10
9.16889e-08
-1.91224e-10
-8.91761e-08
-4.77155e-10
9.31106e-08
-2.75982e-10
-9.29217e-08
-5.745e-10
-1.68947e-09
1.65877e-08
9.19902e-08
-1.9564e-10
3.01341e-11
-2.21538e-10
1.00636e-08
2.53057e-09
-7.97463e-09
-1.20729e-08
-5.67763e-09
8.45139e-09
1.43477e-09
-6.86345e-09
-6.08215e-09
9.01134e-09
-1.19638e-10
1.01532e-08
1.94552e-08
-1.78854e-08
3.06761e-09
-1.26005e-08
3.04946e-09
-6.99749e-08
3.9578e-09
-2.04811e-08
-1.30862e-08
-5.28563e-10
-5.96006e-09
-1.52927e-08
9.11488e-09
-1.52041e-08
4.82707e-10
4.07903e-10
-1.7731e-09
-1.64421e-08
1.69337e-08
7.72638e-09
-8.05612e-09
-5.04188e-09
1.52177e-08
-1.70188e-09
7.21178e-10
-1.15994e-09
2.73407e-10
1.18915e-08
3.31872e-09
7.09156e-08
-1.81789e-08
8.15089e-10
-1.48994e-08
-2.57001e-10
-3.01336e-10
-8.90419e-11
6.09542e-08
-6.12302e-08
-6.33532e-08
-6.31236e-08
-6.2895e-11
-2.62911e-10
-9.25959e-08
-6.04538e-08
6.24147e-08
6.50812e-08
-6.02809e-08
6.45586e-08
-6.04646e-08
6.37893e-08
-6.07327e-08
6.33548e-08
9.23188e-08
3.16541e-10
-6.41208e-09
7.51097e-08
-6.53789e-08
5.87227e-11
-5.87227e-11
7.73336e-10
-3.46082e-10
1.54934e-08
-5.36666e-11
5.36666e-11
3.86336e-10
1.55422e-09
1.38746e-08
1.33158e-08
-2.75844e-09
3.74014e-09
6.41762e-09
1.91037e-09
4.0229e-10
-2.78709e-10
-2.97275e-09
1.45401e-08
1.48461e-08
-4.27555e-09
1.18084e-08
2.10007e-10
1.67393e-10
2.83742e-09
-9.01804e-10
-1.62187e-09
-5.85444e-09
-1.94435e-10
-4.26992e-10
1.52943e-08
2.91466e-10
9.4171e-11
1.49135e-08
-2.60252e-08
1.76183e-08
2.62137e-09
1.34528e-09
2.46402e-09
-3.71642e-09
1.92102e-08
-1.79578e-08
-9.61767e-11
4.07e-10
-1.44028e-09
-7.92157e-08
-7.07675e-08
1.38558e-09
-7.18331e-10
6.74916e-10
2.29048e-08
1.85604e-08
-6.36019e-09
8.77527e-11
-4.36421e-09
-2.46481e-09
2.99787e-08
1.48135e-10
1.48185e-08
7.35829e-08
6.59705e-11
5.31632e-10
-1.77488e-10
-2.38684e-10
-3.73282e-09
2.41582e-08
-1.48583e-08
1.07425e-09
-1.40785e-08
-6.36573e-11
2.03372e-08
-2.86401e-08
9.18039e-10
2.11657e-09
-4.17677e-10
)
;

boundaryField
{
    back
    {
        type            empty;
        value           nonuniform 0();
    }
    ingreso
    {
        type            calculated;
        value           nonuniform List<scalar> 
14
(
-1.54286e-08
-1.54288e-08
-1.54288e-08
-1.54288e-08
-1.54286e-08
-1.54283e-08
-1.54288e-08
-1.54288e-08
-1.54286e-08
-1.54286e-08
-1.54288e-08
-1.5428e-08
-1.5428e-08
-1.54286e-08
)
;
    }
    salida
    {
        type            calculated;
        value           nonuniform List<scalar> 2(1.01411e-07 1.1459e-07);
    }
    front
    {
        type            empty;
        value           nonuniform 0();
    }
    defaultFaces
    {
        type            calculated;
        value           uniform 0;
    }
}


// ************************************************************************* //
