/*--------------------------------*- C++ -*----------------------------------*\
  =========                 |
  \\      /  F ield         | OpenFOAM: The Open Source CFD Toolbox
   \\    /   O peration     | Website:  https://openfoam.org
    \\  /    A nd           | Version:  8
     \\/     M anipulation  |
\*---------------------------------------------------------------------------*/
FoamFile
{
    version     2.0;
    format      ascii;
    class       volScalarField;
    location    "4";
    object      p;
}
// * * * * * * * * * * * * * * * * * * * * * * * * * * * * * * * * * * * * * //

dimensions      [0 2 -2 0 0 0 0];

internalField   nonuniform List<scalar> 
4320
(
3.38207e-06
8.76349e-07
3.27795e-06
1.32257e-05
1.32168e-05
2.35576e-06
1.24433e-06
7.01818e-06
1.14831e-05
1.18715e-06
2.7845e-06
7.55329e-06
2.64909e-06
5.19274e-06
1.22979e-05
3.75729e-06
8.2687e-06
1.342e-05
2.9216e-06
3.47717e-06
3.19807e-06
5.96919e-06
1.30096e-05
3.02091e-06
8.28148e-06
8.68135e-06
8.01575e-06
8.85161e-06
3.14376e-06
1.32387e-05
9.8415e-06
7.44671e-06
4.94005e-06
7.12819e-06
1.56288e-06
1.11245e-06
3.05843e-06
7.6641e-07
1.29542e-05
4.10813e-06
4.55007e-06
9.72567e-06
1.31794e-05
8.97949e-06
1.28492e-05
9.35387e-06
6.74613e-08
5.28929e-06
1.26283e-05
4.17661e-06
2.75833e-06
3.16395e-06
1.32144e-05
1.25049e-05
1.1188e-05
7.0759e-06
1.29835e-06
6.98761e-06
2.88208e-09
1.32262e-05
3.33737e-06
1.79129e-06
2.06227e-06
3.89676e-06
1.31883e-05
2.88839e-06
1.31893e-05
2.45489e-06
5.80039e-06
6.45782e-07
6.63998e-06
8.11515e-06
8.86306e-06
1.01119e-05
4.45427e-06
6.3973e-06
9.98238e-07
1.26182e-05
1.32289e-05
1.31642e-05
2.41461e-06
6.05016e-06
8.97154e-06
8.02088e-06
1.32344e-05
1.49757e-06
1.32385e-05
4.21931e-06
1.3075e-05
7.3285e-06
1.30176e-05
2.28723e-06
1.26684e-05
1.32267e-05
3.6006e-06
2.20524e-06
9.09764e-06
3.61765e-06
8.285e-06
1.25416e-05
1.32415e-05
4.73693e-06
2.14533e-06
5.25567e-06
3.22051e-07
9.18809e-06
9.67732e-06
1.32366e-05
1.28548e-05
7.89495e-06
1.34503e-05
3.4126e-06
9.90236e-06
3.68695e-06
8.96313e-06
1.35298e-06
1.26219e-05
1.23296e-05
1.32513e-05
4.52809e-07
9.83552e-06
8.70625e-06
1.30292e-06
1.25731e-05
4.68233e-06
4.41616e-06
2.61095e-06
4.88417e-06
8.98199e-06
7.21679e-06
1.00207e-05
6.40214e-06
3.52214e-06
5.42278e-06
1.2951e-05
1.32278e-05
2.99227e-06
1.3231e-05
4.90037e-06
1.32388e-05
2.15526e-06
2.08331e-06
1.43042e-07
8.94212e-08
1.29477e-05
9.94684e-06
5.52287e-06
1.3208e-05
4.91794e-06
2.12642e-07
4.03702e-06
5.03274e-07
1.27097e-05
1.2524e-05
2.08136e-06
1.58588e-06
1.29084e-05
1.25629e-05
1.32197e-05
1.92331e-06
1.32454e-05
8.68854e-06
6.92217e-07
1.15874e-06
9.25657e-06
1.69488e-06
8.41294e-06
1.26387e-05
1.06405e-05
1.05953e-05
5.04521e-06
2.24592e-06
1.28409e-06
7.82081e-07
1.32288e-05
1.28094e-05
1.29916e-05
9.98769e-06
9.94754e-06
2.42166e-06
1.29544e-05
1.02269e-05
1.29968e-05
1.32061e-05
1.24745e-05
1.23068e-05
1.32481e-05
5.10062e-07
3.40578e-06
1.29874e-05
1.34285e-06
6.22713e-06
1.30283e-05
1.55857e-06
1.3205e-05
9.48668e-06
8.79751e-06
1.11743e-06
2.2118e-06
4.31524e-06
1.29684e-05
3.7303e-06
8.14128e-06
5.669e-06
1.06512e-05
9.08454e-06
1.33404e-06
1.32434e-05
1.0468e-05
1.31848e-05
5.28668e-06
1.32354e-05
1.28698e-05
1.32467e-05
1.32397e-05
1.32475e-05
1.3236e-05
1.3242e-05
1.31015e-05
1.2754e-05
1.32318e-05
2.36161e-06
1.3224e-05
1.0896e-05
8.81132e-06
1.30606e-05
1.25747e-05
1.20393e-05
1.29699e-05
1.34066e-05
1.01281e-05
1.25861e-05
8.13677e-06
5.41759e-06
9.7767e-06
1.32058e-05
9.64996e-06
4.35452e-06
1.78052e-06
5.65694e-06
1.27674e-05
1.24636e-05
1.11987e-05
3.32785e-06
2.64158e-06
1.24677e-07
1.31059e-05
1.32081e-05
5.1428e-06
4.2164e-06
8.71405e-06
6.26442e-07
7.22003e-06
8.18873e-06
8.05998e-06
2.8214e-06
1.32432e-05
1.07122e-06
8.76882e-06
6.80659e-07
2.4636e-06
1.24809e-05
5.70289e-06
5.49511e-06
1.31747e-05
4.59456e-06
1.32111e-05
1.11428e-06
1.22324e-05
1.32133e-05
5.85782e-06
1.32476e-05
2.21724e-06
8.62446e-06
1.31076e-05
8.93312e-06
1.3199e-05
6.3231e-06
1.32252e-05
1.32496e-05
1.32129e-05
1.00832e-05
8.38899e-06
1.31529e-05
6.36004e-06
9.29325e-06
9.11058e-06
1.32154e-05
7.92882e-06
1.24201e-05
8.09076e-06
6.36354e-06
1.32408e-05
1.5492e-06
1.28766e-05
1.22402e-06
8.84882e-06
1.03149e-06
1.0254e-05
1.00505e-05
1.32444e-05
6.53901e-06
4.56783e-06
1.5734e-06
5.37779e-06
1.24911e-05
6.52196e-06
1.01884e-06
4.48702e-06
2.07848e-06
3.44525e-06
7.95004e-06
1.24452e-05
1.29332e-05
6.12841e-06
1.26288e-06
1.32161e-05
7.69047e-06
1.25769e-05
3.48474e-06
9.62341e-06
1.32463e-05
1.31427e-05
1.32518e-05
9.61635e-06
1.32552e-05
9.96629e-06
1.2797e-05
1.24486e-05
9.51896e-07
5.58863e-06
4.07799e-06
6.21623e-06
1.32418e-05
1.26259e-05
1.0276e-05
1.23855e-05
1.32264e-05
8.79602e-06
1.3206e-05
8.49761e-06
1.02251e-05
7.26932e-06
1.2461e-05
1.24741e-05
1.3256e-05
1.31484e-05
1.28718e-05
1.25646e-05
1.32243e-05
9.41105e-06
7.9776e-06
1.3232e-05
1.16769e-05
7.35401e-06
1.27488e-05
9.41197e-06
1.03979e-05
8.228e-06
5.91926e-06
1.26717e-05
9.48096e-06
6.95678e-06
1.22711e-05
1.05269e-05
1.60641e-06
1.32386e-05
1.31853e-05
1.31304e-05
6.85101e-06
5.0304e-06
1.27551e-05
8.43188e-06
1.28902e-05
1.11471e-05
1.31688e-05
3.71813e-07
6.4007e-06
1.32278e-05
9.14234e-06
1.32382e-05
1.19444e-05
1.28439e-05
1.00804e-05
1.29896e-05
1.01748e-05
1.32463e-05
1.32062e-05
9.01936e-07
1.32395e-05
8.15877e-07
1.31138e-05
1.32295e-05
1.32264e-05
9.51523e-06
1.32328e-05
3.8833e-06
1.16183e-05
1.04523e-05
7.82062e-06
1.21407e-05
1.25118e-05
1.2611e-05
1.3226e-05
1.32424e-05
1.17745e-05
1.02829e-05
7.55042e-06
9.73248e-07
7.89195e-06
1.12334e-05
1.27566e-05
1.26222e-05
1.32018e-05
9.95234e-06
1.3224e-05
6.12382e-06
1.32461e-05
1.23085e-05
1.21539e-05
5.73073e-07
1.32139e-05
9.99938e-06
1.31871e-05
3.15591e-06
1.26789e-05
1.14899e-05
1.25955e-05
1.32392e-05
1.33219e-05
1.31218e-05
8.0455e-06
1.32258e-05
1.30859e-05
1.23594e-05
1.32341e-05
1.03036e-05
1.03103e-06
8.18679e-06
1.30099e-05
5.35993e-06
1.31848e-05
1.29446e-05
1.32404e-05
1.0453e-05
1.31983e-05
8.11636e-06
1.30314e-05
1.00217e-05
1.23398e-05
1.04781e-05
1.29251e-05
1.32301e-05
9.55024e-06
1.26578e-05
1.32467e-05
1.01569e-05
1.22595e-05
1.33216e-05
1.32422e-05
1.31853e-05
1.29641e-05
1.27244e-05
1.00516e-05
1.21572e-05
6.85268e-06
9.5533e-06
1.30233e-05
1.27036e-05
1.32461e-05
9.94348e-06
1.2974e-05
1.25519e-05
1.24597e-05
9.64144e-06
5.44697e-06
6.81263e-06
1.29436e-05
1.17063e-05
1.32382e-05
8.71544e-06
1.32332e-05
8.32813e-06
1.32413e-05
1.31228e-05
1.27566e-05
1.00461e-05
1.02512e-05
1.3308e-05
9.5336e-06
1.24894e-05
1.3221e-05
9.74944e-06
1.29438e-05
1.37231e-05
1.29191e-05
9.0678e-06
1.28706e-05
1.31633e-05
1.27927e-05
1.25028e-05
1.14053e-05
8.00515e-06
1.28091e-05
1.23646e-05
7.68049e-06
6.49838e-06
9.78527e-06
6.67282e-06
1.31604e-05
7.58838e-06
1.28982e-05
1.61927e-06
1.13974e-05
2.93199e-06
2.88971e-06
9.30744e-07
9.60582e-07
1.13647e-05
1.29994e-05
8.65292e-06
1.32219e-05
8.7236e-06
1.32166e-05
1.25895e-05
1.31003e-05
1.26475e-05
1.15489e-05
7.68815e-07
1.26799e-05
1.30299e-05
1.26985e-05
1.32414e-05
1.00507e-05
1.30703e-05
9.87087e-06
1.32459e-05
1.69158e-06
1.31311e-05
9.68781e-06
1.32401e-05
9.49929e-06
1.21304e-05
1.32567e-05
1.2987e-05
1.48105e-06
1.0118e-05
1.28939e-05
1.31578e-05
1.29219e-05
1.29315e-05
1.32406e-05
1.27602e-05
1.31897e-05
1.16976e-06
1.24121e-05
9.74862e-06
7.12944e-06
1.30242e-05
1.31971e-05
9.15541e-06
2.27235e-06
1.32459e-05
1.30093e-05
9.69616e-06
7.6351e-06
1.20875e-05
1.30863e-05
1.31954e-05
9.77496e-06
1.28227e-05
1.3237e-05
1.30707e-05
1.30136e-05
1.31176e-05
9.79055e-06
1.32434e-05
1.31705e-05
1.31306e-05
1.30398e-05
9.91195e-06
1.31394e-05
1.29796e-05
1.00879e-05
1.32355e-05
1.2822e-05
1.27945e-05
9.63464e-06
1.32148e-05
1.28962e-05
9.7123e-06
9.24297e-06
1.31014e-05
2.74556e-06
1.32327e-05
1.30588e-05
8.06891e-07
9.34021e-06
1.28859e-05
9.93362e-06
1.32512e-05
1.28793e-05
1.32033e-05
1.29756e-05
1.30832e-05
1.28574e-05
1.31565e-05
1.30868e-05
1.32468e-05
1.32075e-05
7.74685e-06
1.30291e-05
9.66307e-06
9.19767e-06
1.48506e-06
1.31621e-05
1.31978e-05
1.32411e-05
1.33862e-05
1.32349e-05
1.31806e-05
1.28844e-05
1.28608e-05
7.28645e-06
1.32362e-05
6.64497e-06
1.31669e-05
1.32545e-05
1.32421e-05
1.27155e-05
4.43461e-06
8.8778e-06
9.93034e-06
6.25707e-06
1.32482e-05
1.27082e-05
1.3139e-05
1.3116e-05
1.32165e-05
1.32355e-05
1.08248e-05
1.28345e-05
9.58249e-06
6.6567e-07
1.31316e-06
1.32236e-05
1.31985e-05
3.09893e-06
9.53921e-06
1.30519e-05
1.36392e-06
1.21267e-05
1.3241e-05
1.23339e-05
9.35298e-06
1.32192e-05
7.4907e-06
8.60349e-06
1.32979e-05
4.29828e-06
1.32306e-05
8.86792e-06
9.75985e-06
1.32326e-05
1.32368e-05
9.33135e-06
1.32986e-05
9.02685e-06
1.29525e-05
1.32075e-05
1.32283e-05
1.3315e-05
1.28681e-05
1.30975e-05
9.25131e-06
1.32332e-05
1.31127e-05
1.32456e-05
8.68288e-06
1.31427e-05
1.2329e-05
9.57835e-06
9.47551e-06
1.31708e-05
1.30602e-05
1.32114e-05
1.31902e-05
1.31246e-05
1.32205e-05
1.3244e-05
9.4429e-06
1.31301e-05
1.31666e-05
9.54968e-06
1.24451e-05
1.32461e-05
1.32169e-05
1.32313e-05
1.3225e-05
1.29317e-05
9.65978e-06
1.33178e-05
1.31937e-05
1.32021e-05
1.32189e-05
1.32061e-05
1.32163e-05
1.26857e-05
1.32351e-05
1.23866e-05
1.34663e-05
4.48849e-06
1.32111e-05
1.197e-05
9.27118e-06
1.32069e-05
9.752e-06
1.32109e-05
1.31734e-05
1.31985e-05
9.40603e-06
1.30332e-05
8.72914e-06
1.32245e-05
7.35975e-06
1.33177e-05
1.31101e-05
7.9951e-06
1.32227e-05
1.31378e-05
1.32346e-05
1.31974e-05
1.32072e-05
1.33399e-05
1.32266e-05
9.24468e-06
1.32104e-05
1.31705e-05
2.34506e-06
2.83655e-06
1.33577e-05
1.33991e-05
1.28787e-05
8.89448e-06
1.32311e-05
1.32398e-05
1.25346e-05
9.1826e-06
1.32352e-05
1.32205e-05
2.40282e-06
7.41024e-06
1.31511e-05
1.33036e-05
1.32124e-05
9.13621e-06
9.2696e-06
9.1333e-06
9.22557e-06
1.29511e-05
1.31377e-05
1.32281e-05
8.77623e-06
9.50985e-06
1.21044e-06
9.14561e-06
1.33639e-05
1.32287e-05
1.32299e-05
1.32133e-05
2.27794e-06
1.30125e-05
9.15916e-06
9.5642e-06
3.28819e-06
1.29621e-05
1.32412e-05
1.32003e-05
9.23761e-06
1.3232e-05
8.97019e-06
9.77422e-06
1.32446e-05
1.32196e-05
1.33432e-05
1.32325e-05
1.31527e-05
1.31723e-05
1.16755e-05
1.32377e-05
8.86983e-06
9.21806e-06
1.3367e-05
1.33764e-05
9.37903e-06
1.3214e-05
9.0029e-06
9.44758e-06
8.96413e-06
1.32437e-05
1.32212e-05
1.32302e-05
1.32398e-05
1.43587e-06
1.31912e-05
1.32008e-05
1.3243e-05
8.66143e-06
1.32091e-05
1.2895e-05
1.33002e-05
1.32049e-05
1.31903e-05
1.313e-05
1.32099e-05
1.30594e-05
1.3239e-05
1.11544e-06
1.32103e-05
1.32271e-05
9.03398e-06
1.32013e-05
1.32284e-05
9.21623e-06
8.988e-06
9.31272e-06
8.10745e-06
1.32317e-05
1.28063e-05
1.31229e-05
1.32384e-05
9.05408e-06
1.32332e-05
1.31743e-05
9.3094e-06
8.9598e-06
1.32315e-05
1.32393e-05
7.37802e-06
9.2231e-06
9.10324e-06
1.32274e-05
8.87809e-06
1.32342e-05
1.32364e-05
1.32429e-05
9.14964e-06
1.32343e-05
1.31766e-05
1.32209e-05
9.08401e-06
1.32368e-05
2.49845e-06
1.32184e-05
1.31125e-05
1.32014e-05
1.32288e-05
1.32375e-05
1.32338e-05
1.31924e-05
1.32309e-05
1.32314e-05
1.31675e-05
1.32372e-05
1.31682e-05
1.3162e-05
1.31845e-05
1.32365e-05
1.33063e-05
8.55572e-06
1.31924e-05
1.30799e-05
1.32306e-05
9.1026e-06
8.79871e-06
1.32217e-05
1.31883e-05
1.32287e-05
1.32199e-05
1.33313e-05
1.32406e-05
1.31444e-05
9.08215e-06
1.32323e-05
1.32282e-05
1.3225e-05
1.32148e-05
9.063e-06
1.32296e-05
1.32323e-05
9.33235e-06
1.22575e-05
1.31547e-05
8.65815e-06
1.32261e-05
1.31912e-05
8.77237e-06
9.14703e-06
1.3203e-05
1.31826e-05
1.32248e-05
1.32389e-05
9.38729e-06
1.31523e-05
1.31988e-05
1.32035e-05
1.32112e-05
8.90874e-06
1.32058e-05
1.32038e-05
8.93324e-06
1.32441e-05
1.32282e-05
8.62762e-06
1.31703e-05
1.32053e-05
9.1648e-06
1.32186e-05
9.00502e-06
1.30954e-05
8.6948e-06
1.32404e-05
1.30465e-05
1.32426e-05
1.3248e-05
8.36144e-06
1.32103e-05
1.33402e-05
1.32069e-05
1.32428e-05
8.79052e-06
8.9924e-06
1.32129e-05
8.98351e-06
1.32396e-05
8.63712e-06
8.57571e-06
8.80093e-06
1.32482e-05
1.3238e-05
1.3159e-05
1.32147e-05
1.32215e-05
1.32135e-05
8.85152e-06
8.74325e-06
1.31797e-05
8.93752e-06
9.02893e-06
8.66187e-06
8.50862e-06
1.32168e-05
1.31318e-05
9.25254e-06
1.33629e-05
1.32094e-05
1.32145e-05
1.32287e-05
8.73887e-06
1.32118e-05
1.31953e-05
9.09871e-06
1.3235e-05
7.75673e-06
1.32222e-05
1.32271e-05
2.63086e-06
1.31792e-05
1.31905e-05
1.32125e-05
1.32358e-05
1.32156e-05
8.46579e-06
8.67601e-06
1.31856e-05
8.971e-06
1.32294e-05
1.32264e-05
1.32437e-05
1.31988e-05
1.27082e-05
8.19114e-06
1.31371e-05
1.31475e-05
8.86049e-06
8.56748e-06
8.66514e-06
1.25266e-05
1.32063e-05
1.32259e-05
8.5679e-06
8.57496e-06
1.32432e-05
8.46447e-06
8.36851e-06
8.28016e-06
1.3229e-05
1.322e-05
1.32388e-05
8.72983e-06
7.82616e-06
5.76537e-06
1.32313e-05
1.31687e-05
1.32124e-05
8.332e-06
1.31923e-05
8.37172e-06
1.32195e-05
3.8384e-06
3.9359e-06
1.32145e-05
8.25941e-06
8.3106e-06
1.32364e-05
8.39743e-06
8.28098e-06
8.17414e-06
8.01732e-06
1.32152e-05
8.14183e-06
1.34746e-05
8.25033e-06
8.47885e-06
1.31761e-05
1.32238e-05
8.13799e-06
8.10447e-06
8.24015e-06
8.34918e-06
8.15788e-06
9.47555e-06
8.24564e-06
8.31644e-06
8.07174e-06
8.22735e-06
1.32001e-05
8.01242e-06
8.17021e-06
8.21267e-06
8.22393e-06
7.86356e-06
8.46095e-06
8.08648e-06
1.33207e-05
1.3204e-05
1.34695e-05
9.05943e-06
7.9134e-06
7.84019e-06
8.30493e-06
9.30964e-06
7.77455e-06
8.06569e-06
7.88666e-06
7.99389e-06
7.94973e-06
8.12832e-06
8.06992e-06
8.1526e-06
8.14384e-06
7.17382e-06
8.3677e-06
7.93872e-06
8.0481e-06
7.72635e-06
3.1952e-06
7.81826e-06
1.28708e-05
7.28668e-06
7.60303e-06
1.32593e-05
7.56156e-06
7.80283e-06
1.34667e-05
7.7301e-06
8.1512e-06
8.84381e-06
7.48237e-06
7.86718e-06
8.00758e-06
7.3687e-06
7.89804e-06
7.78633e-06
7.6912e-06
8.01237e-06
7.65429e-06
7.29799e-06
6.98912e-06
7.0935e-06
1.32213e-05
7.44865e-06
6.85392e-06
7.52707e-06
7.71711e-06
8.02663e-06
7.43066e-06
7.62545e-06
7.38288e-06
5.66102e-06
6.90356e-06
7.10864e-06
7.8639e-06
7.4308e-06
7.98283e-06
6.37452e-06
7.3927e-06
7.00982e-06
7.40337e-06
8.26878e-06
7.22382e-06
3.71681e-06
7.33478e-06
6.67611e-06
7.25684e-06
7.23214e-06
7.41727e-06
7.5674e-06
6.79831e-06
7.07624e-06
6.54558e-06
7.27491e-06
6.35623e-06
7.33703e-06
6.66642e-06
7.24119e-06
6.99277e-06
6.26298e-06
6.79133e-06
7.22882e-06
7.13419e-06
6.75631e-06
7.08459e-06
7.09209e-06
6.9429e-06
7.13081e-06
7.32401e-06
7.16955e-06
7.15632e-06
6.85469e-06
7.08993e-06
7.55698e-06
7.12018e-06
7.04521e-06
7.51712e-06
6.99313e-06
6.77055e-06
7.35703e-06
7.13359e-06
6.94999e-06
7.07154e-06
6.92476e-06
6.85755e-06
7.66571e-06
6.7518e-06
7.20563e-06
6.77609e-06
6.83984e-06
7.80756e-06
6.94204e-06
6.88192e-06
6.8999e-06
7.14058e-06
6.96385e-06
6.80255e-06
6.6854e-06
6.72046e-06
6.5267e-06
6.74628e-06
6.88869e-06
6.90705e-06
6.97261e-06
7.28982e-06
6.56062e-06
6.51731e-06
7.24753e-06
6.67657e-06
6.58298e-06
6.26203e-06
6.63438e-06
6.45391e-06
6.99735e-06
6.24129e-06
6.60402e-06
6.83978e-06
7.33054e-06
6.66362e-06
6.7581e-06
7.03623e-06
6.3795e-06
6.44632e-06
6.49933e-06
6.63734e-06
6.23328e-06
6.26824e-06
6.36429e-06
7.31111e-06
6.26004e-06
6.31076e-06
6.38607e-06
6.34151e-06
6.50962e-06
6.1744e-06
5.83599e-06
6.1255e-06
6.38574e-06
6.11181e-06
6.16647e-06
6.17366e-06
6.25538e-06
6.80573e-06
6.27856e-06
6.41796e-06
5.63593e-06
6.4031e-06
6.147e-06
6.03678e-06
5.99861e-06
6.37077e-06
6.23273e-06
1.62376e-06
1.70276e-06
6.2311e-06
5.82627e-06
6.09137e-06
6.14637e-06
5.98588e-06
6.48916e-06
6.0376e-06
6.06461e-06
5.42111e-06
5.93444e-06
6.03174e-06
5.83471e-06
5.8748e-06
6.39464e-06
6.25695e-06
6.09513e-06
5.88387e-06
6.23699e-06
4.96122e-06
6.05506e-06
5.24475e-06
6.02219e-06
5.69527e-06
5.77472e-06
6.26275e-06
5.63219e-06
6.6622e-06
5.13477e-06
5.97862e-06
5.76242e-06
5.81661e-06
5.70231e-06
5.88307e-06
5.897e-06
5.76476e-06
5.25124e-06
5.07958e-06
5.60964e-06
5.66429e-06
5.86982e-06
5.1885e-06
5.39037e-06
5.48512e-06
5.67055e-06
5.37692e-06
5.54886e-06
5.62854e-06
5.4692e-06
5.32428e-06
5.73892e-06
5.53662e-06
5.51438e-06
5.57155e-06
5.66545e-06
5.38595e-06
6.49864e-06
5.95585e-06
5.68043e-06
5.38594e-06
5.41086e-06
5.94818e-06
5.38111e-06
5.43918e-06
5.39414e-06
5.55963e-06
4.80834e-06
5.37432e-06
5.58605e-06
5.30423e-06
5.30588e-06
5.0421e-06
5.33026e-06
4.95213e-06
5.1717e-06
5.72759e-06
4.86907e-06
5.49441e-06
5.16862e-06
4.94621e-06
5.2222e-06
5.30643e-06
5.46709e-06
5.2482e-06
5.05022e-06
5.19067e-06
5.15107e-06
5.38029e-06
5.14608e-06
5.18418e-06
5.32869e-06
5.06916e-06
5.06636e-06
5.03208e-06
4.85936e-06
5.93332e-06
4.46549e-06
5.22851e-06
4.2325e-06
4.03167e-06
5.46799e-06
5.53809e-06
5.17776e-06
3.25835e-06
5.06744e-06
4.04324e-06
4.18375e-06
4.47692e-06
4.57188e-06
4.9202e-06
2.92061e-06
4.65641e-06
5.09993e-06
4.79761e-06
3.6785e-06
4.37359e-06
4.64927e-06
4.89366e-06
4.92526e-06
3.12244e-06
5.71646e-06
2.98565e-06
5.09187e-06
4.94984e-06
4.94873e-06
2.80726e-06
5.96469e-06
4.24611e-06
3.93424e-06
4.81022e-06
4.8307e-06
4.94813e-06
4.75672e-06
3.38532e-06
3.39227e-06
4.45733e-06
4.17657e-06
4.69191e-06
4.7829e-06
3.49915e-06
4.56327e-06
4.94762e-06
4.81359e-06
3.81776e-06
4.80066e-06
4.69958e-06
3.25212e-06
4.63547e-06
4.76165e-06
5.25876e-06
5.02753e-06
4.91725e-06
4.21761e-06
4.8023e-06
4.66566e-06
4.66079e-06
4.33687e-06
4.70495e-06
3.73373e-06
4.63969e-06
4.62055e-06
4.29777e-06
4.42556e-06
4.61126e-06
3.79056e-06
4.81337e-06
4.60067e-06
4.59608e-06
4.49848e-06
4.85867e-06
4.44671e-06
4.64546e-06
4.51747e-06
4.55719e-06
4.87483e-06
4.4615e-06
4.73571e-06
4.45438e-06
4.58947e-06
4.33224e-06
4.3603e-06
4.35833e-06
4.51238e-06
4.79261e-06
4.92981e-06
4.04847e-06
4.54285e-06
4.33245e-06
4.67445e-06
4.24357e-06
4.37516e-06
4.45999e-06
4.04415e-06
4.78111e-06
4.78287e-06
4.91597e-06
4.28792e-06
4.34934e-06
4.50951e-06
3.87924e-06
4.23204e-06
4.3183e-06
3.50783e-06
4.22329e-06
4.10302e-06
4.2331e-06
4.15939e-06
4.00677e-06
4.36614e-06
4.12496e-06
4.31494e-06
4.13285e-06
4.2784e-06
3.61619e-06
4.37105e-06
2.99937e-06
4.02247e-06
5.04226e-06
4.08779e-06
4.03623e-06
4.53131e-06
3.45231e-06
4.18069e-06
3.87742e-06
3.93644e-06
4.07698e-06
3.93475e-06
3.94555e-06
3.85024e-06
3.92728e-06
3.91519e-06
3.98055e-06
4.08694e-06
3.78703e-06
4.22628e-06
4.44738e-06
3.69956e-06
3.64983e-06
3.08221e-06
3.13532e-06
3.77515e-06
4.073e-06
5.62262e-06
3.83779e-06
3.64264e-06
3.73208e-06
3.27326e-06
3.91891e-06
3.92905e-06
3.41953e-06
3.6169e-06
3.72896e-06
3.88027e-06
4.137e-06
3.49926e-06
4.1079e-06
3.62235e-06
3.58583e-06
4.90187e-06
3.36722e-06
3.54604e-06
2.81643e-06
3.36669e-06
3.59085e-06
3.73554e-06
3.50889e-06
3.61364e-06
3.47931e-06
3.22377e-06
3.52401e-06
3.53741e-06
2.88735e-06
3.41208e-06
3.41791e-06
3.44564e-06
3.38593e-06
3.23971e-06
3.8461e-06
3.43547e-06
3.37894e-06
3.33624e-06
2.84879e-06
2.92734e-06
3.36761e-06
2.97927e-06
3.1424e-06
3.20993e-06
3.13564e-06
3.3161e-06
3.54052e-06
3.2654e-06
3.19414e-06
3.25728e-06
3.42203e-06
3.23513e-06
3.6515e-06
3.07539e-06
3.35607e-06
3.31134e-06
3.29873e-06
3.42434e-06
3.16388e-06
3.05383e-06
3.2434e-06
3.12288e-06
3.03857e-06
3.04819e-06
2.95699e-06
3.05114e-06
2.96565e-06
2.91285e-06
2.64715e-06
2.30663e-06
3.02563e-06
2.91968e-06
3.37145e-06
2.85533e-06
2.77704e-06
2.88037e-06
3.11666e-06
2.87727e-06
3.03225e-06
2.75648e-06
2.9357e-06
2.80125e-06
2.93893e-06
2.75451e-06
2.49509e-06
2.86176e-06
2.80192e-06
2.94258e-06
2.4711e-06
2.78604e-06
2.68275e-06
2.62143e-06
2.8271e-06
2.64549e-06
2.86233e-06
2.90746e-06
3.31296e-06
2.15095e-06
2.6925e-06
2.67318e-06
2.79533e-06
2.37674e-06
2.3438e-06
1.96279e-06
2.48027e-06
2.52025e-06
2.73597e-06
2.46622e-06
3.76509e-06
2.51045e-06
2.66906e-06
2.54063e-06
2.32396e-06
2.4193e-06
2.64279e-06
2.349e-06
2.4904e-06
2.02903e-06
2.52733e-06
2.41544e-06
2.18182e-06
2.24307e-06
1.56551e-06
2.17796e-06
2.31539e-06
2.04869e-06
2.29059e-06
2.35148e-06
2.67263e-06
2.15808e-06
2.0188e-06
2.19455e-06
2.45232e-06
2.30246e-06
2.39282e-06
2.74677e-06
2.17911e-06
1.89136e-06
2.76199e-06
2.24192e-06
2.00223e-06
2.21402e-06
2.26563e-06
2.06435e-06
1.71797e-06
2.18375e-06
2.1739e-06
1.98212e-06
1.18614e-06
2.02758e-06
1.34105e-06
1.83861e-06
2.03492e-06
1.56352e-06
1.87626e-06
2.36039e-06
2.15032e-06
2.0842e-06
1.9124e-06
2.04782e-06
2.43599e-06
1.92629e-06
1.9104e-06
8.75534e-06
5.67118e-06
1.89965e-06
1.75974e-06
4.75386e-06
2.02264e-06
1.74093e-06
1.80179e-06
5.7318e-06
7.92153e-06
1.78688e-06
9.80494e-06
7.83511e-06
1.29697e-06
1.68471e-06
9.23869e-06
1.78847e-06
1.43067e-06
1.44715e-06
1.74273e-06
1.33801e-06
7.89521e-06
1.6601e-06
1.61267e-06
1.67591e-06
5.86702e-06
1.59661e-06
6.89182e-06
2.61566e-06
6.42393e-06
7.83621e-06
9.19836e-07
9.91189e-06
2.47619e-06
1.57185e-06
9.33412e-06
7.50422e-06
1.14694e-06
6.4748e-06
3.98823e-06
1.37731e-06
1.13524e-06
1.74125e-06
1.94926e-06
1.5502e-06
1.0135e-05
8.49989e-06
2.31367e-06
7.67386e-06
6.40871e-06
6.43918e-07
9.68886e-07
8.90792e-06
1.66644e-06
6.2761e-06
1.89379e-06
6.13824e-06
1.04742e-06
1.79264e-06
4.89486e-06
6.00372e-06
1.65679e-06
4.76419e-06
1.46567e-06
2.36723e-06
6.5445e-06
1.07227e-06
1.18868e-06
1.87967e-06
7.16238e-07
4.91809e-06
1.88769e-06
8.14515e-06
1.02295e-05
8.71581e-07
6.91142e-07
5.92649e-06
9.2672e-06
1.98458e-06
1.66476e-06
1.25666e-06
8.63106e-06
1.00025e-05
6.86611e-06
9.25223e-06
8.66474e-06
7.92711e-06
2.24947e-06
1.30041e-06
2.28171e-06
1.25385e-06
9.37559e-06
8.8994e-06
8.8437e-06
7.34867e-06
8.02309e-06
2.79611e-06
8.00449e-06
1.3392e-06
3.76264e-06
4.6077e-06
8.48428e-06
1.29634e-06
1.25829e-06
2.05975e-06
1.59794e-06
4.60833e-06
1.18178e-06
1.66285e-06
1.39224e-06
6.71281e-06
2.60373e-06
1.40873e-06
2.50246e-06
1.66442e-06
1.88491e-06
1.48299e-06
2.43068e-06
1.90051e-06
1.87705e-06
1.73037e-06
1.53861e-06
1.7231e-06
1.47071e-06
6.55769e-06
6.41275e-06
1.80568e-06
1.76224e-06
1.74231e-06
3.19531e-06
2.77839e-06
1.82161e-06
2.03529e-06
2.10526e-06
2.14307e-06
2.52488e-06
4.14252e-06
2.93325e-06
3.29061e-06
2.5967e-06
2.51286e-06
2.67349e-06
2.72763e-06
2.52988e-06
3.04907e-06
2.93798e-06
2.86828e-06
2.58354e-06
2.91715e-06
2.99108e-06
2.79006e-06
3.666e-06
2.73791e-06
3.12848e-06
3.80465e-06
3.17583e-06
4.07785e-06
3.99474e-06
3.07855e-06
3.17897e-06
3.58381e-06
3.84568e-06
3.4991e-06
3.82516e-06
3.04394e-06
3.88668e-06
3.70692e-06
3.93236e-06
3.76489e-06
4.63997e-06
5.35212e-06
4.47039e-06
4.39981e-06
4.66834e-06
5.07837e-06
5.18897e-06
5.75194e-06
4.67592e-06
5.07896e-06
4.59745e-06
5.21696e-06
5.00942e-06
4.73214e-06
5.10345e-06
5.25038e-06
5.48354e-06
5.49196e-06
5.07989e-06
5.2407e-06
5.63293e-06
5.84534e-06
5.1538e-06
5.7772e-06
5.11401e-06
5.013e-06
5.93005e-06
5.74173e-06
5.06502e-06
5.65321e-06
5.60419e-06
5.68887e-06
5.27601e-06
5.33412e-06
5.31753e-06
5.29261e-06
6.25782e-06
5.949e-06
6.32296e-06
6.07078e-06
4.77162e-06
4.7714e-06
5.97679e-06
6.18296e-06
5.97342e-06
6.59392e-06
6.10328e-06
5.84692e-06
6.54765e-06
6.52336e-06
6.77388e-06
6.55394e-06
6.14889e-06
6.52282e-06
6.46265e-06
6.41381e-06
7.00857e-06
6.45257e-06
6.17497e-06
6.52782e-06
6.41615e-06
6.53184e-06
7.48777e-06
6.38947e-06
7.50494e-06
6.99861e-06
7.84158e-06
7.96886e-06
6.28042e-06
7.13356e-06
7.02654e-06
7.16894e-06
6.30948e-06
6.52678e-06
6.79105e-06
7.22491e-06
1.35671e-05
7.95466e-06
7.30467e-06
1.31872e-05
6.43425e-06
6.16467e-06
1.35818e-05
7.29706e-06
7.67366e-06
6.65107e-06
1.32788e-05
7.31778e-06
1.34944e-05
7.41616e-06
6.059e-06
1.32646e-05
7.39804e-06
7.38246e-06
6.92818e-06
1.3504e-05
6.65491e-06
1.94307e-06
7.16284e-06
7.20971e-06
7.18857e-06
7.16957e-06
1.81198e-06
1.97844e-06
6.93234e-06
7.57768e-06
7.6373e-06
8.43262e-06
7.94193e-06
7.53102e-06
2.10833e-06
8.5447e-06
1.32372e-05
7.91949e-06
8.09436e-06
8.16496e-06
8.18818e-06
1.31916e-05
1.2971e-05
1.89119e-06
7.74027e-06
1.32974e-05
7.4378e-06
9.03765e-06
7.65227e-06
8.91001e-06
1.3353e-05
1.32466e-05
1.24785e-05
1.32291e-05
1.61335e-06
1.86646e-06
1.33557e-05
8.96312e-06
1.32286e-05
8.55373e-06
8.71965e-06
8.37977e-06
1.75228e-06
1.45191e-06
1.31747e-05
1.32157e-05
8.86086e-06
1.3241e-05
1.32072e-05
1.29775e-06
8.31348e-06
8.96598e-06
1.32238e-05
1.32281e-05
1.31821e-05
9.66404e-06
1.33537e-05
9.02735e-06
1.32343e-05
1.28476e-05
1.32276e-05
8.4675e-06
1.33686e-05
1.4706e-06
1.33141e-05
1.33361e-05
1.32315e-05
1.32405e-05
8.86495e-06
1.32116e-05
1.31955e-05
1.32497e-05
1.33603e-05
1.33154e-05
8.92877e-06
1.32018e-05
1.32371e-05
1.32897e-05
1.32242e-05
1.3195e-05
1.3235e-05
8.74474e-06
9.16107e-06
1.33408e-05
1.3245e-05
9.51407e-06
1.32147e-05
8.83723e-06
9.78861e-06
1.32142e-05
1.32459e-05
1.33256e-05
1.33209e-05
1.32181e-05
1.32008e-05
9.06082e-06
2.1675e-06
8.69163e-06
1.31553e-05
1.33052e-05
1.31984e-05
1.32077e-05
1.32122e-05
1.31342e-05
9.59409e-07
1.32401e-05
5.72277e-06
1.32564e-05
1.32947e-05
9.152e-06
1.32083e-05
1.33376e-05
8.61505e-06
1.33146e-05
1.32406e-05
1.32445e-05
1.28811e-05
1.32062e-05
1.32109e-05
1.24412e-05
1.33454e-05
1.32036e-05
1.32372e-05
1.32007e-05
1.32104e-05
1.32064e-05
1.32185e-05
1.32024e-05
1.32189e-05
1.3209e-05
1.46587e-06
1.32226e-05
1.33706e-05
1.32415e-05
1.321e-05
1.31856e-05
1.33155e-05
1.32013e-05
1.32417e-05
1.32931e-05
1.31983e-05
1.31647e-05
1.32113e-05
1.4876e-06
1.32708e-05
1.32406e-05
1.32339e-05
1.5925e-06
1.49104e-06
1.30327e-05
1.32045e-05
8.95391e-06
1.32528e-05
1.32522e-05
1.3239e-05
1.31535e-05
1.3224e-05
1.3239e-05
9.28575e-06
1.32402e-05
1.32757e-05
1.00241e-05
1.32236e-05
1.32107e-05
1.32378e-05
1.32832e-05
1.32414e-05
1.32463e-05
1.3181e-05
1.32397e-05
1.32064e-05
1.32244e-05
1.32142e-05
1.31913e-05
1.31751e-05
2.27717e-06
1.32043e-05
1.3245e-05
1.32132e-05
9.72412e-06
1.32283e-05
1.32347e-05
1.32119e-05
1.32696e-05
1.3213e-05
1.32324e-05
1.32651e-05
1.32169e-05
1.31348e-05
1.32668e-05
1.32393e-05
1.30709e-05
1.32162e-05
1.32025e-05
1.32367e-05
1.32194e-05
1.32401e-05
9.43197e-06
1.32412e-05
1.32177e-05
1.32227e-05
1.32109e-05
1.3317e-05
1.32206e-05
9.5411e-06
1.32301e-05
1.32444e-05
1.32135e-05
1.32142e-05
1.32359e-05
1.32218e-05
1.32251e-05
1.32186e-05
1.31951e-05
1.32407e-05
1.31215e-05
1.32695e-05
1.32348e-05
1.32177e-05
1.32272e-05
1.32335e-05
1.32204e-05
1.32214e-05
1.32081e-05
1.3232e-05
9.32772e-06
1.33649e-05
1.30747e-05
9.89991e-06
1.32058e-05
1.32428e-05
1.29949e-05
1.32383e-05
8.89715e-06
1.32243e-05
1.32201e-05
1.32226e-05
1.32247e-05
1.32421e-05
1.32349e-05
1.32337e-05
1.32371e-05
1.3239e-05
2.6895e-06
1.30595e-05
1.32424e-05
1.32289e-05
1.32366e-05
1.32153e-05
1.32149e-05
1.32294e-05
1.32641e-05
1.32388e-05
1.32377e-05
1.3234e-05
1.32294e-05
1.32375e-05
1.32303e-05
4.07198e-06
1.31693e-05
1.32349e-05
1.32379e-05
1.31947e-05
1.32145e-05
1.31959e-05
1.32301e-05
1.3234e-05
1.32599e-05
1.31584e-05
1.32245e-05
1.32282e-05
1.32284e-05
1.32409e-05
1.32469e-05
9.60808e-06
1.32358e-05
1.32047e-05
1.32283e-05
1.31914e-05
6.00592e-06
1.29963e-05
1.32112e-05
1.32282e-05
1.32352e-05
1.30239e-05
1.32185e-05
1.32205e-05
1.32526e-05
1.32179e-05
1.32114e-05
1.32329e-05
7.49262e-06
1.3224e-05
2.86688e-06
1.32552e-05
1.32182e-05
1.3221e-05
1.32141e-05
1.32165e-05
1.32257e-05
1.32197e-05
1.31949e-05
9.82032e-06
1.32153e-05
9.05697e-06
1.30415e-05
1.32314e-05
3.43186e-06
1.31911e-05
1.31278e-05
1.3144e-05
4.32306e-06
1.32284e-05
1.32268e-05
1.32101e-05
1.03682e-05
1.32218e-05
8.21265e-06
1.33012e-05
1.32348e-05
6.25932e-06
1.32186e-05
1.32979e-05
1.31678e-05
1.32461e-05
1.32335e-05
1.31323e-05
1.31888e-05
1.33001e-05
1.32265e-05
1.26043e-05
1.3546e-06
1.32e-05
1.32216e-05
1.32257e-05
1.31813e-05
1.32326e-05
1.32372e-05
1.32273e-05
1.33135e-05
1.28394e-05
1.32388e-05
1.3234e-05
1.32149e-05
6.70657e-07
1.32231e-05
1.32151e-05
1.32306e-05
1.31195e-05
1.32993e-05
1.3245e-05
1.32289e-05
1.31849e-05
1.32338e-05
1.30982e-05
1.32328e-05
7.57814e-06
1.33251e-05
1.32348e-05
1.32805e-05
1.22395e-06
1.33127e-05
1.32304e-05
1.32358e-05
3.73073e-06
1.32169e-05
1.3286e-05
1.32211e-05
1.32233e-05
1.27019e-05
1.31896e-05
1.23567e-05
1.32456e-05
1.32243e-05
1.32299e-05
8.62117e-06
1.31942e-05
1.32515e-05
1.3235e-05
1.32179e-05
1.31729e-05
1.32182e-05
1.32144e-05
1.41294e-06
1.32925e-05
1.26296e-05
1.31536e-05
1.32328e-05
8.77932e-06
1.31549e-05
1.32391e-05
1.32195e-05
2.55176e-06
1.305e-05
1.32504e-05
1.31769e-05
6.16236e-06
1.32115e-05
1.32364e-05
8.99794e-06
1.32284e-05
1.31581e-05
6.38226e-06
1.32971e-05
1.02169e-05
1.32336e-05
1.32331e-05
1.32519e-05
1.32701e-05
1.31888e-05
6.16223e-06
1.3267e-05
1.32101e-05
1.32317e-05
9.26466e-07
1.32314e-05
1.32337e-05
1.32881e-05
1.30038e-05
6.14699e-06
9.59098e-06
9.43858e-06
1.32383e-05
1.32004e-05
1.32192e-05
1.21219e-05
1.32503e-05
1.29603e-05
1.32353e-05
1.3169e-05
1.31974e-05
1.31848e-05
5.59234e-07
1.32782e-05
1.23531e-06
1.32351e-05
1.31831e-05
1.30034e-05
1.32268e-05
1.31398e-05
1.32485e-05
1.31407e-05
1.26341e-05
1.32177e-05
9.49354e-06
1.31467e-05
1.33049e-05
1.32325e-05
1.31336e-05
2.99323e-06
1.10822e-07
1.31924e-05
1.31629e-05
1.31391e-05
1.31728e-05
1.32289e-05
1.31968e-05
1.32686e-05
1.26921e-05
1.31765e-05
4.39882e-06
1.32436e-05
1.31769e-05
1.32316e-05
1.31175e-05
1.31738e-05
1.03128e-05
1.32617e-05
1.32103e-05
1.32526e-05
1.32076e-05
1.30199e-05
1.31592e-05
1.34692e-05
1.29417e-05
1.32418e-05
1.3193e-05
8.33411e-06
1.32267e-05
1.3153e-05
1.31412e-05
1.31805e-05
1.31683e-05
1.32157e-05
3.18517e-06
1.32344e-05
1.0075e-06
1.31544e-05
1.31563e-05
1.31327e-05
1.31759e-05
1.32279e-05
1.30656e-06
1.31576e-05
1.32213e-05
1.31572e-05
1.30837e-05
8.02664e-06
1.32165e-05
9.32415e-06
7.87441e-06
1.3209e-05
1.31153e-05
1.32529e-05
5.54959e-06
1.32478e-05
1.99646e-06
5.84407e-06
1.3242e-05
1.326e-05
1.25279e-05
1.25451e-05
1.03163e-05
1.32165e-05
1.28051e-05
1.32131e-05
1.3147e-05
1.29859e-05
1.3215e-05
1.32465e-05
1.31002e-05
1.95064e-06
1.31869e-05
1.32117e-05
1.31814e-05
1.31599e-05
1.26577e-06
6.27759e-06
1.32088e-05
1.29406e-05
2.32133e-06
6.2966e-06
1.3262e-05
1.48053e-06
1.01387e-05
1.31222e-05
1.31721e-05
1.75027e-06
9.23819e-06
1.31711e-05
1.32399e-05
1.06108e-05
1.32362e-05
1.28666e-06
1.32252e-05
9.15004e-06
1.31923e-05
1.28066e-05
1.38539e-06
1.32135e-05
1.2783e-05
1.31745e-05
1.32109e-05
1.31887e-05
1.31242e-05
1.32377e-05
6.12674e-06
3.08214e-06
6.00241e-06
8.04825e-06
2.89969e-06
1.31102e-05
1.29886e-05
1.39977e-06
2.62341e-06
1.30178e-05
1.29662e-05
8.38253e-07
7.69678e-06
1.32058e-05
1.3166e-05
1.28785e-05
1.31727e-05
3.12374e-06
1.30189e-05