/*--------------------------------*- C++ -*----------------------------------*\
  =========                 |
  \\      /  F ield         | OpenFOAM: The Open Source CFD Toolbox
   \\    /   O peration     | Website:  https://openfoam.org
    \\  /    A nd           | Version:  8
     \\/     M anipulation  |
\*---------------------------------------------------------------------------*/
FoamFile
{
    version     2.0;
    format      ascii;
    class       volScalarField;
    location    "4";
    object      p;
}
// * * * * * * * * * * * * * * * * * * * * * * * * * * * * * * * * * * * * * //

dimensions      [0 2 -2 0 0 0 0];

internalField   nonuniform List<scalar> 
6388
(
1.21952e-05
1.22177e-05
1.18389e-05
1.17853e-05
9.4584e-06
7.80835e-06
1.16289e-05
1.12837e-05
1.17862e-05
1.12611e-05
9.80168e-06
1.12112e-05
1.15561e-05
7.94671e-06
1.15495e-05
1.14717e-05
1.13301e-05
8.56711e-06
1.14702e-05
1.16203e-05
1.14474e-05
1.14039e-05
8.67653e-06
8.76892e-06
8.61138e-06
1.14387e-05
1.15755e-05
1.13618e-05
1.13393e-05
1.18438e-05
8.42859e-06
8.49548e-06
9.45209e-06
1.0459e-05
8.22368e-06
9.59408e-06
8.79613e-06
1.08325e-05
1.15663e-05
7.98412e-06
1.1543e-05
1.1511e-05
1.21253e-05
8.8292e-06
1.18287e-05
1.12079e-05
1.22442e-05
1.16556e-05
1.1843e-05
1.14337e-05
1.18369e-05
1.19732e-05
1.16372e-05
1.15583e-05
1.11326e-05
1.18574e-05
1.13794e-05
1.17605e-05
1.16129e-05
1.16279e-05
8.59942e-06
1.17976e-05
1.14085e-05
1.17636e-05
1.11585e-05
1.18456e-05
1.1274e-05
1.14803e-05
1.08548e-05
1.18406e-05
1.06884e-05
8.32544e-06
7.78499e-06
1.05861e-05
1.18479e-05
1.16875e-05
8.13986e-06
1.18002e-05
1.179e-05
8.51996e-06
1.12785e-05
8.04236e-08
7.48777e-08
7.52473e-08
7.335e-08
8.04727e-08
1.0031e-05
8.21233e-08
7.46293e-08
7.63097e-08
8.12793e-08
7.14241e-08
1.18489e-05
1.20055e-05
1.1472e-05
1.19261e-05
1.18446e-05
8.16227e-06
1.18366e-05
1.14334e-05
1.14483e-05
1.08747e-05
1.13458e-05
1.12429e-05
1.12664e-05
1.02303e-05
1.17409e-05
1.12888e-05
1.13904e-05
1.18412e-05
1.15841e-05
8.95667e-06
9.18633e-06
1.16261e-05
1.20451e-05
1.19677e-05
9.77907e-06
1.21162e-05
1.1572e-05
1.18452e-05
7.45844e-06
1.18184e-05
1.14389e-05
1.17904e-05
8.71171e-06
1.18666e-05
1.17898e-05
1.15423e-05
1.18238e-05
1.14795e-05
9.03877e-06
1.13086e-05
1.17517e-05
1.19325e-05
1.18524e-05
8.82368e-06
8.50136e-06
1.08158e-05
1.18248e-05
1.12975e-05
9.19456e-06
1.19291e-05
1.14338e-05
1.18539e-05
1.18264e-05
1.13541e-05
1.17175e-05
1.18395e-05
1.14726e-05
1.19892e-05
1.12661e-05
1.18225e-05
1.12866e-05
8.89343e-06
1.11757e-05
1.15797e-05
1.07648e-05
1.1843e-05
8.77549e-06
1.04173e-05
1.18811e-05
1.19556e-05
8.09457e-06
1.06932e-05
1.1842e-05
1.04847e-05
7.67227e-06
7.58019e-06
7.50132e-06
1.17517e-05
8.01966e-06
1.12975e-05
1.13959e-05
1.1839e-05
1.10607e-05
8.41351e-06
1.17812e-05
1.15965e-05
1.2021e-05
1.12855e-05
1.10386e-05
1.10213e-05
8.20845e-06
7.07411e-06
1.13793e-05
1.03314e-05
1.18471e-05
8.81783e-06
1.12763e-05
8.97315e-06
9.1809e-06
1.11301e-05
9.38571e-06
1.22693e-05
1.13553e-05
1.18011e-05
1.18415e-05
1.18075e-05
7.83419e-06
7.34291e-06
7.17654e-06
8.0074e-06
1.18364e-05
7.29284e-06
7.37162e-06
7.45941e-06
7.73504e-06
8.70737e-06
1.18264e-05
1.16319e-05
8.11848e-06
8.51615e-06
7.82906e-06
1.04475e-05
5.74221e-06
5.58107e-06
5.5177e-06
5.45613e-06
8.3239e-06
1.14815e-05
5.74457e-06
1.1814e-05
7.13049e-06
8.5751e-06
1.18276e-05
6.94652e-06
9.09495e-06
6.12003e-06
5.94617e-06
5.87803e-06
5.81332e-06
1.06671e-05
7.157e-06
1.16982e-05
1.12822e-05
6.11886e-06
1.04109e-05
7.51882e-06
6.68165e-06
7.92286e-06
6.53914e-06
6.46548e-06
6.39282e-06
1.01465e-05
6.90402e-06
6.8263e-06
6.7495e-06
7.26668e-06
8.20295e-06
9.59332e-06
1.18153e-05
7.92067e-06
7.53434e-06
7.26835e-06
7.18424e-06
7.10583e-06
7.64579e-06
7.45619e-06
7.30946e-06
7.74954e-06
4.79058e-06
7.67139e-06
7.84651e-06
4.7976e-06
5.17052e-06
6.92876e-06
7.0065e-06
7.08734e-06
5.21452e-06
5.15536e-06
5.09778e-06
5.14485e-06
5.41117e-06
7.71175e-06
1.12555e-05
5.45772e-06
1.18305e-05
9.52282e-06
5.96044e-06
5.48335e-06
6.95568e-06
6.02885e-06
6.01908e-06
1.14859e-05
6.02368e-06
1.1636e-05
6.52088e-06
6.38084e-06
1.1442e-05
7.98724e-06
7.74657e-06
1.12963e-05
8.92281e-06
1.15595e-05
6.56761e-06
6.75163e-06
1.18481e-05
6.57746e-06
7.53545e-06
1.14671e-05
9.34812e-06
9.15724e-06
1.18593e-05
6.46932e-06
6.50004e-06
6.93268e-06
6.17519e-06
6.24418e-06
6.31636e-06
5.7115e-06
1.18629e-05
9.37046e-06
1.1809e-05
1.00053e-05
8.29207e-06
1.18266e-05
9.01247e-06
6.06212e-06
1.15767e-05
7.13341e-06
7.4263e-06
1.1736e-05
7.69863e-06
7.36842e-06
6.42682e-06
1.13686e-05
1.08093e-05
8.71639e-06
8.90045e-06
4.58359e-06
5.09196e-07
4.74902e-07
4.86363e-07
4.825e-07
4.98685e-07
5.49987e-06
5.04357e-06
8.99043e-06
8.78832e-06
1.07025e-05
1.11161e-05
5.55183e-06
4.94275e-06
1.17326e-05
5.03897e-06
6.70487e-06
1.16057e-05
5.07977e-06
6.30889e-06
6.00716e-06
6.07317e-06
6.14412e-06
8.61314e-06
8.81099e-06
5.4107e-06
6.78083e-06
9.06621e-06
5.94177e-06
9.72097e-06
6.87149e-06
6.57209e-06
6.64648e-06
6.72241e-06
8.21783e-06
1.13089e-05
9.7753e-06
4.24844e-06
5.9318e-06
1.13679e-05
5.63366e-06
5.69693e-06
5.76256e-06
4.78089e-06
8.90281e-06
8.96224e-06
6.61272e-06
1.04435e-05
5.12905e-06
6.37386e-06
6.33614e-06
1.13152e-05
1.18272e-05
4.84306e-06
4.78806e-06
4.73463e-06
1.12392e-05
1.12981e-05
6.38849e-06
6.2093e-06
1.17662e-05
6.2811e-06
6.79122e-06
5.7715e-06
5.84572e-06
1.18229e-05
8.66848e-06
6.14992e-06
9.48879e-06
5.8345e-06
6.20414e-06
1.13409e-05
1.15662e-05
1.13864e-05
1.18243e-05
5.79364e-06
6.74224e-06
6.94938e-06
1.15586e-05
1.18893e-05
4.40928e-06
1.12002e-05
1.18325e-05
1.18766e-05
4.03402e-06
3.98896e-06
4.08035e-06
9.94477e-06
1.17968e-05
1.18201e-05
5.45296e-06
1.14983e-05
1.18346e-05
5.12155e-06
5.66782e-06
1.19317e-05
4.05522e-06
4.48431e-06
1.04925e-05
1.17512e-05
6.56385e-06
1.18372e-05
4.45825e-06
1.08733e-05
5.58433e-06
9.26461e-06
4.50933e-06
1.19578e-05
5.30146e-06
4.61549e-06
5.64829e-06
5.27763e-06
5.33723e-06
5.39847e-06
1.063e-05
5.33685e-06
6.23404e-06
4.43599e-06
4.60055e-06
1.14982e-05
4.2532e-06
1.13993e-05
9.33421e-06
6.20445e-06
8.83445e-06
1.02942e-05
5.36044e-06
1.16937e-05
1.08585e-05
4.10902e-06
4.91745e-06
4.97302e-06
5.03008e-06
4.96962e-06
4.1265e-06
4.17261e-06
4.2201e-06
4.26829e-06
4.85984e-06
1.1752e-05
4.06216e-06
5.89357e-06
1.18357e-05
4.89151e-06
1.15797e-05
4.98127e-06
9.18521e-06
1.12564e-05
1.19536e-05
4.84856e-06
8.79032e-06
9.68456e-06
5.60855e-06
4.67411e-06
5.22713e-06
4.40484e-06
5.26736e-06
4.70222e-06
1.18419e-05
7.618e-06
4.65479e-06
1.18557e-05
4.2275e-06
4.29466e-06
4.60603e-06
1.14726e-05
4.31585e-06
8.63701e-06
5.27108e-06
5.22508e-06
9.28843e-06
7.3946e-06
1.17595e-05
1.18533e-05
4.76317e-06
1.08406e-05
4.42618e-06
4.25981e-06
1.18428e-05
9.63167e-06
1.16517e-05
4.95651e-06
1.0057e-05
3.88126e-06
1.19078e-05
1.09712e-05
9.14506e-06
1.15072e-05
1.13115e-05
4.07224e-06
9.38969e-06
3.7153e-06
8.88499e-06
9.65478e-06
8.61721e-06
1.18364e-05
9.82892e-06
1.17834e-05
1.14273e-05
1.1496e-05
1.01976e-05
1.17881e-05
3.90234e-06
1.13821e-05
7.27446e-06
1.13144e-05
1.18427e-05
1.17225e-05
1.06676e-05
1.18439e-05
1.1408e-05
8.96173e-06
1.19016e-05
1.18244e-05
1.18569e-05
1.18515e-05
1.16172e-05
1.19107e-05
1.13597e-05
1.18925e-05
1.18373e-05
1.16514e-05
1.15012e-05
1.04379e-05
1.18319e-05
9.27114e-06
1.1607e-05
1.183e-05
1.02414e-05
1.17978e-05
1.16304e-05
1.12135e-05
8.41932e-06
1.1606e-05
1.17719e-05
1.07943e-05
1.00672e-05
1.17961e-05
1.10591e-05
1.1872e-05
9.69772e-06
9.95466e-06
1.17745e-05
1.15837e-05
1.17992e-05
9.4993e-06
1.18691e-05
8.80105e-06
8.04318e-07
8.34231e-07
7.89709e-07
7.99226e-07
8.08071e-07
3.46527e-06
3.50433e-06
3.54476e-06
1.12478e-05
9.79681e-06
1.0242e-05
1.13984e-05
1.15574e-05
9.66564e-06
1.17562e-05
9.11003e-06
1.18698e-05
1.18479e-05
1.23541e-05
7.46199e-06
1.02008e-05
1.19195e-05
9.91967e-06
1.19135e-05
1.13997e-05
1.18641e-05
1.18561e-05
1.17233e-05
1.09518e-05
1.18388e-05
8.90461e-06
1.11065e-05
1.18439e-05
1.14586e-05
1.15822e-05
1.18479e-05
1.06207e-05
9.10422e-06
1.18343e-05
9.09671e-06
1.01885e-05
1.17566e-05
3.5971e-06
2.88971e-07
2.89004e-07
2.93414e-07
2.84611e-07
1.11867e-05
2.65709e-07
1.10753e-05
1.15788e-05
7.83899e-06
1.18454e-05
1.04051e-05
1.14504e-05
1.16054e-05
3.58974e-06
8.66658e-06
1.17737e-05
6.93359e-06
1.18556e-05
1.185e-05
3.18736e-06
9.47817e-06
1.12374e-05
1.11493e-05
8.8774e-06
3.29618e-07
3.78217e-07
3.50014e-07
3.54372e-07
3.96342e-07
1.11376e-05
9.33538e-06
1.1572e-05
1.00439e-05
1.15199e-05
1.18246e-05
1.07747e-05
9.54758e-06
3.31573e-06
1.05226e-05
1.00978e-05
1.08435e-05
8.42631e-06
1.18402e-05
1.19387e-05
1.192e-05
1.17368e-05
8.52288e-06
1.19061e-05
1.18474e-05
1.16334e-05
8.61603e-06
1.18326e-05
1.09977e-05
3.70555e-07
3.66366e-07
3.389e-07
3.3093e-07
3.39698e-07
1.17968e-05
1.18113e-05
1.17795e-05
2.98534e-07
3.11026e-07
3.17706e-07
3.12819e-07
3.2038e-07
9.40823e-06
8.78752e-06
1.14455e-05
7.43022e-06
1.16452e-05
1.18253e-05
9.45869e-06
1.16055e-05
9.64935e-06
9.47896e-06
1.13123e-05
1.11928e-05
1.12868e-05
1.15099e-05
8.99566e-06
1.172e-05
1.18431e-05
1.18186e-05
1.14983e-05
1.16223e-05
1.14518e-05
1.09037e-05
1.10875e-05
1.18693e-05
1.18473e-05
1.18161e-05
1.18327e-05
1.18464e-05
1.17418e-05
8.25115e-06
9.3515e-06
8.61847e-06
1.00852e-05
1.13504e-05
1.18709e-05
8.99094e-06
1.14837e-05
9.87248e-06
1.15292e-05
1.14266e-05
1.18404e-05
1.03051e-05
9.56988e-06
1.19512e-05
1.18135e-05
1.18158e-05
6.12069e-06
1.14295e-05
1.14875e-05
9.87468e-06
3.54705e-06
1.18593e-05
1.17934e-05
1.05502e-05
1.18564e-05
4.22098e-06
1.16255e-05
1.08745e-05
7.25245e-06
1.13695e-05
1.18453e-05
1.13371e-05
1.16842e-05
8.14186e-06
3.71466e-06
1.06167e-05
9.50295e-06
8.46298e-06
9.00376e-06
8.23626e-06
1.01408e-05
1.17681e-05
1.01415e-05
1.07676e-05
1.18069e-05
1.16395e-05
1.1827e-05
9.25749e-06
1.15873e-05
7.6621e-06
7.5774e-06
7.49095e-06
4.93712e-07
1.18489e-05
1.18422e-05
1.16093e-05
1.18333e-05
1.07898e-05
4.74448e-07
5.13408e-07
4.86387e-07
4.94948e-07
1.05948e-05
1.06876e-05
1.15312e-05
1.04367e-05
1.17259e-05
1.18353e-05
1.15756e-05
1.15272e-05
1.18181e-05
9.89713e-06
1.18378e-05
1.18206e-05
1.18739e-05
1.07692e-05
1.16883e-05
1.18873e-05
1.15991e-05
1.18419e-05
1.19137e-05
1.10278e-05
8.04288e-06
1.13915e-05
1.17078e-05
1.05619e-05
7.07082e-06
1.1846e-05
1.08444e-05
1.1218e-05
1.03598e-05
1.16011e-05
1.12855e-05
9.07582e-06
9.76929e-06
9.77137e-06
1.11516e-05
1.18394e-05
1.18328e-05
8.81067e-06
7.71716e-06
1.02988e-05
1.19251e-05
1.18041e-05
1.14924e-05
1.18657e-05
1.14111e-05
9.93185e-06
1.22378e-05
9.42904e-06
1.14563e-05
8.53276e-06
7.52178e-06
8.13868e-06
1.18455e-05
1.15112e-05
1.19298e-05
1.14082e-05
1.18412e-05
1.19855e-05
1.18104e-05
7.9418e-06
1.17518e-05
1.13624e-05
1.18489e-05
1.12025e-05
7.94305e-06
1.1831e-05
3.36714e-06
1.18086e-05
1.12425e-05
1.14131e-05
1.11766e-05
4.66981e-06
8.29168e-06
1.18101e-05
1.20089e-05
1.18598e-05
1.19207e-05
3.51401e-06
1.18505e-05
1.15807e-05
1.11306e-05
9.77558e-06
1.1425e-05
8.22249e-06
8.77807e-06
8.58264e-06
1.15694e-05
8.32501e-06
8.30888e-06
1.76319e-06
5.09634e-06
5.03842e-06
4.9823e-06
1.1959e-05
1.16515e-05
1.18416e-05
8.6086e-06
1.1745e-05
1.08782e-05
1.18205e-05
9.64133e-06
1.18544e-05
1.16695e-05
1.16152e-05
3.36309e-06
3.32466e-06
3.28771e-06
9.32534e-06
1.18591e-05
1.13918e-05
9.87956e-06
1.17993e-05
7.52554e-06
8.61946e-06
1.16303e-05
6.67631e-07
6.47116e-07
6.21528e-07
1.12583e-05
1.87261e-06
1.1846e-05
1.14322e-05
5.60399e-06
6.40666e-07
1.12467e-05
1.15143e-05
8.2608e-06
8.44963e-06
1.15148e-05
1.16572e-05
7.64707e-06
8.10936e-06
8.29472e-06
8.49298e-07
1.02845e-05
1.17197e-05
8.7568e-06
8.63401e-06
1.11322e-05
4.44026e-06
1.02628e-05
6.53149e-06
4.80232e-06
1.17257e-05
1.18116e-05
8.31103e-07
1.17724e-05
8.07287e-06
7.89231e-06
1.00439e-05
6.64417e-06
1.06435e-05
7.24821e-06
1.17152e-05
1.47246e-06
1.17355e-05
7.93406e-06
1.18549e-05
6.88864e-06
1.11566e-05
1.58701e-06
1.55137e-06
1.56856e-06
1.56501e-06
1.10659e-05
3.08993e-06
9.39092e-06
2.23866e-06
1.38584e-06
7.83305e-06
2.09565e-06
1.02475e-05
1.14681e-05
9.49448e-06
3.40783e-06
7.28404e-06
1.04217e-05
1.17236e-05
1.14569e-05
8.16159e-06
1.18621e-05
1.1815e-05
3.37224e-06
3.33393e-06
3.29664e-06
1.1405e-05
1.19146e-05
3.90273e-06
3.85812e-06
3.81545e-06
7.33432e-06
7.15513e-06
7.07547e-06
6.99523e-06
2.13273e-06
1.1457e-05
1.25356e-06
8.11586e-06
1.18374e-05
3.14031e-06
1.44313e-06
1.17711e-05
1.18315e-05
2.3914e-06
1.19127e-05
1.18522e-05
1.07751e-05
1.1597e-05
1.77121e-06
1.73146e-06
1.75074e-06
3.00849e-06
1.5738e-06
1.89675e-06
1.87496e-06
1.85423e-06
1.12402e-05
1.11767e-05
2.4767e-06
2.63387e-06
2.57489e-06
2.60379e-06
3.41703e-06
1.52148e-06
1.18582e-05
2.26546e-06
2.21469e-06
2.23953e-06
1.1475e-05
1.14671e-05
1.03202e-06
1.142e-05
1.17076e-05
2.06829e-06
1.18565e-05
1.1854e-05
1.18154e-06
1.1678e-06
1.15501e-06
1.16508e-06
8.30483e-06
1.1585e-05
1.1218e-05
1.00908e-06
8.26214e-06
7.842e-06
2.0905e-06
1.14507e-05
1.21583e-06
3.2273e-06
3.12648e-06
1.1739e-05
1.07004e-05
1.44307e-06
3.00339e-06
2.93613e-06
2.96923e-06
4.03845e-06
8.01683e-06
3.10622e-06
1.18106e-05
3.4174e-06
2.58114e-06
1.74761e-06
1.73056e-06
1.5787e-06
1.39718e-06
2.13962e-06
2.09167e-06
2.115e-06
1.15313e-05
2.09554e-06
2.0486e-06
2.0715e-06
5.79122e-06
2.70983e-06
1.88275e-06
3.93846e-06
2.44899e-06
2.39414e-06
2.42097e-06
1.63247e-06
2.82667e-06
2.65949e-06
3.64287e-06
3.68409e-06
3.72641e-06
2.15879e-06
2.95888e-06
1.17301e-05
2.7839e-06
1.00382e-05
1.18703e-05
3.51507e-06
3.14939e-06
3.03362e-06
3.94744e-06
1.18232e-05
3.92185e-06
3.32394e-06
1.76163e-06
2.08057e-06
2.03393e-06
2.0567e-06
2.50837e-06
2.4796e-06
2.45219e-06
9.9809e-06
3.14447e-06
3.10951e-06
3.18079e-06
2.37326e-06
2.77428e-06
1.16113e-06
1.13105e-05
2.21177e-06
1.18362e-05
3.72059e-06
1.18271e-05
2.81781e-06
2.75471e-06
2.78567e-06
4.97949e-06
1.1844e-05
1.09311e-05
1.15905e-05
9.01325e-06
1.19842e-06
1.18396e-05
1.95573e-06
1.93317e-06
1.91188e-06
3.69699e-06
1.17855e-05
2.3245e-06
2.29779e-06
2.27242e-06
3.88086e-06
2.94255e-06
1.13391e-06
2.8772e-06
2.84429e-06
2.8128e-06
1.21501e-06
1.34021e-06
1.57994e-06
1.18424e-05
1.13008e-05
3.13962e-06
1.16776e-05
2.75654e-06
3.33137e-06
2.40515e-06
1.18527e-05
3.18756e-06
3.1162e-06
3.15134e-06
1.77595e-06
1.70205e-06
3.02413e-06
2.24903e-06
1.00381e-05
2.89932e-06
3.76795e-06
1.33925e-06
1.93913e-06
2.69334e-06
2.63304e-06
2.66249e-06
2.06077e-06
1.71601e-06
2.64344e-06
1.17087e-05
1.15301e-05
1.15348e-05
1.17996e-06
2.96615e-06
1.1542e-05
2.62026e-06
1.12571e-05
3.04367e-06
1.1094e-05
3.77207e-06
2.05382e-06
1.78064e-06
2.77742e-06
1.18108e-05
5.14966e-07
5.53818e-07
5.3546e-07
2.89423e-06
1.9512e-06
3.52215e-06
5.15035e-07
1.06597e-06
1.18541e-05
2.76336e-06
2.74849e-06
2.7714e-06
1.84802e-06
1.86853e-06
1.89038e-06
3.38923e-06
2.8389e-06
1.91633e-06
3.69164e-06
3.69775e-06
2.96085e-06
1.86402e-06
1.01592e-05
8.01156e-06
3.65329e-06
2.1232e-06
1.95372e-06
1.3052e-06
4.85946e-06
1.18169e-05
2.759e-06
3.06262e-06
2.99408e-06
3.02764e-06
2.10749e-06
1.6375e-06
2.84205e-06
1.05095e-05
3.22629e-06
3.00516e-06
2.63905e-06
1.14174e-05
3.20693e-06
6.13289e-07
1.71161e-06
1.69189e-06
1.67322e-06
1.68953e-06
7.32205e-06
8.46215e-07
3.27326e-06
1.16498e-05
3.87704e-06
1.18195e-05
5.24219e-06
1.1779e-05
2.46102e-06
2.42701e-06
4.06412e-06
3.75372e-06
9.91994e-06
3.24682e-06
3.20981e-06
3.17412e-06
4.90331e-06
2.56106e-06
8.27111e-06
8.46067e-06
4.55157e-06
4.60292e-06
4.65581e-06
2.566e-06
1.13815e-05
2.81346e-06
2.94738e-06
2.26694e-06
9.00386e-07
9.25955e-07
1.01331e-05
2.93847e-06
8.81458e-07
3.2787e-06
2.89352e-06
3.91023e-06
6.41235e-07
6.2979e-07
6.2602e-07
6.5828e-07
3.38896e-06
6.45462e-07
6.39232e-07
6.32523e-07
6.63599e-07
6.42208e-07
3.57242e-06
1.13028e-05
2.74876e-06
2.77958e-06
2.81175e-06
4.09949e-06
1.15828e-05
1.1634e-05
2.45658e-06
5.27982e-06
5.21982e-06
5.16169e-06
2.58047e-06
1.12925e-05
1.183e-05
4.36215e-06
4.46209e-06
4.41155e-06
1.14993e-06
1.13826e-06
1.15099e-06
1.16441e-06
5.48693e-06
1.12041e-05
1.03759e-05
1.14079e-05
2.81503e-06
4.53943e-06
3.19874e-06
7.52023e-06
3.32977e-06
2.26808e-06
2.51339e-06
1.20464e-05
1.29951e-06
1.00803e-05
1.12739e-05
1.12796e-05
2.40957e-06
4.55618e-06
1.14057e-05
3.93585e-06
2.58622e-06
2.51915e-06
3.92863e-06
1.17986e-05
9.19567e-06
8.99038e-06
1.1979e-06
3.89209e-06
2.60063e-06
3.09896e-06
9.19398e-06
4.59143e-06
7.34046e-06
7.25951e-06
7.17638e-06
2.93661e-06
3.23171e-06
4.34894e-06
1.0961e-05
1.10632e-05
8.73543e-07
1.1178e-05
1.05035e-06
1.08703e-06
9.42195e-07
9.12889e-07
1.54028e-06
4.3086e-06
1.92365e-06
1.02509e-06
7.76974e-06
2.37318e-06
9.8972e-07
3.55759e-06
3.51716e-06
3.47781e-06
3.59085e-06
3.72121e-06
1.12664e-05
3.57994e-06
1.18774e-05
1.51455e-06
1.12241e-05
3.28611e-06
1.17911e-05
8.3413e-06
2.97593e-06
4.76636e-06
1.18095e-05
5.98284e-06
4.27735e-06
3.549e-06
1.98483e-06
4.40546e-06
8.82117e-06
3.31831e-06
1.20744e-06
1.24837e-06
3.04355e-06
4.22751e-06
1.19176e-05
4.03257e-06
4.11992e-06
2.40307e-06
1.39419e-06
4.67413e-06
1.02355e-05
4.72993e-06
1.9369e-06
1.15761e-05
5.23997e-06
4.85029e-06
1.727e-06
3.76985e-06
4.86202e-06
1.26299e-06
2.18086e-06
4.74329e-06
1.11655e-05
1.18112e-05
1.1529e-06
1.18578e-05
1.18353e-05
6.23988e-06
1.31562e-06
1.33027e-06
1.34582e-06
1.32821e-06
1.03594e-06
1.01243e-06
1.02375e-06
1.02147e-06
4.87263e-06
2.85976e-06
1.16685e-05
3.16966e-06
5.16454e-06
3.00975e-06
3.04364e-06
3.07873e-06
4.43402e-06
6.66123e-07
4.60455e-06
5.12644e-06
1.15426e-05
4.97186e-06
1.18923e-05
1.07154e-05
1.10473e-05
1.49887e-06
1.48653e-06
1.50289e-06
1.5206e-06
1.18424e-05
3.27345e-06
1.13171e-05
1.15134e-05
3.84799e-06
8.3902e-07
8.04403e-07
7.96847e-07
8.15136e-07
8.0575e-07
5.61924e-06
3.60331e-06
1.91893e-06
2.22309e-06
4.64217e-06
1.37971e-06
1.14678e-05
1.46235e-06
8.34186e-06
8.15551e-06
2.64251e-06
9.34885e-06
1.99828e-06
2.23622e-06
1.18312e-05
2.78985e-06
9.26724e-06
2.14033e-06
2.65036e-06
2.68012e-06
2.71109e-06
2.67696e-06
5.35686e-06
1.18226e-05
1.02969e-05
2.85654e-06
5.89149e-06
4.58625e-06
1.18409e-05
1.15994e-05
3.22499e-06
4.11364e-06
4.4911e-06
9.79504e-07
9.70046e-07
9.80853e-07
9.92187e-07
8.09604e-06
8.28151e-06
8.47445e-07
8.7283e-07
9.03386e-07
9.34292e-06
8.20435e-07
5.11199e-06
1.02122e-06
6.79094e-06
1.82235e-06
4.77652e-06
4.46164e-06
2.27353e-06
4.94634e-06
3.59382e-06
5.00195e-06
1.18332e-05
5.05146e-06
1.18276e-05
8.6173e-06
2.04362e-06
4.8344e-06
7.71963e-06
1.12569e-05
5.05424e-06
2.27965e-06
1.22358e-06
1.92966e-06
2.89564e-06
1.61826e-06
1.31367e-06
7.13139e-06
9.34779e-06
1.92882e-06
1.1856e-05
1.01793e-05
4.92026e-06
2.41e-06
1.55929e-06
5.43028e-06
1.15346e-05
1.0436e-06
4.82295e-06
5.30556e-06
8.02997e-07
1.18167e-05
5.73452e-06
4.92892e-06
1.15756e-05
8.52002e-06
5.47872e-06
1.1836e-05
4.64853e-06
1.08148e-05
1.67783e-06
4.79038e-06
7.30398e-06
1.014e-06
1.00222e-06
9.91224e-07
1.00001e-06
1.18067e-05
3.12114e-06
3.21454e-06
6.90814e-07
6.74797e-07
6.83043e-07
7.13549e-07
6.87314e-07
1.15282e-05
1.14653e-05
5.2109e-06
5.11004e-06
5.29572e-06
1.3094e-06
6.1019e-06
1.17844e-05
4.98706e-06
5.1818e-06
3.74891e-06
3.70633e-06
3.66484e-06
1.56451e-06
3.4685e-06
2.71557e-06
5.80219e-06
7.98091e-06
2.47696e-06
2.49797e-06
1.1646e-05
1.13856e-05
5.16413e-06
5.02397e-06
1.16772e-05
5.17643e-06
1.5606e-06
6.95092e-06
6.95293e-06
1.18384e-05
2.64636e-06
5.08713e-06
1.14386e-05
2.59721e-06
1.51558e-06
1.75219e-06
1.38353e-06
1.37141e-06
1.38664e-06
1.40296e-06
2.82173e-06
2.75102e-06
5.43282e-06
8.20478e-06
1.7636e-06
1.76716e-06
1.74783e-06
1.78785e-06
6.58724e-06
2.88888e-06
3.18629e-06
3.22215e-06
3.25934e-06
1.12353e-05
5.57845e-06
1.18361e-05
1.04706e-06
3.26025e-06
6.62819e-06
2.65786e-06
5.6647e-06
1.18447e-05
6.45557e-06
1.0946e-06
1.12852e-06
1.13238e-05
1.14151e-05
3.08144e-06
3.58678e-06
1.16437e-05
5.39742e-06
1.20629e-05
5.36231e-06
5.54568e-06
2.14199e-06
9.00732e-06
9.07526e-06
9.80876e-06
5.40498e-06
5.34368e-06
5.28402e-06
3.02883e-06
2.84788e-06
3.15089e-06
3.98409e-06
3.93853e-06
3.89492e-06
6.29873e-06
1.14868e-05
6.08427e-06
2.27809e-06
1.16142e-07
1.1638e-07
1.07478e-07
1.13226e-07
1.13444e-07
1.11955e-07
1.11838e-07
1.10942e-07
1.09662e-07
1.09482e-07
5.58929e-06
5.52588e-06
5.46425e-06
1.16528e-05
1.42397e-06
1.13259e-05
3.29314e-06
2.30107e-06
1.14909e-05
2.20157e-06
1.09871e-05
8.87379e-06
3.80022e-06
3.71514e-06
3.75689e-06
8.20714e-06
1.13188e-05
1.73251e-06
1.1618e-05
1.18413e-05
5.94355e-06
3.71095e-06
9.73865e-07
1.16489e-05
6.8263e-06
4.22316e-06
3.45755e-06
5.92013e-06
5.666e-06
1.11691e-05
1.12362e-05
1.17308e-05
1.18383e-05
5.85024e-06
1.16311e-05
1.14433e-05
1.1768e-05
2.26396e-06
2.41055e-06
5.76018e-06
2.29453e-06
1.16845e-05
3.43242e-06
3.39332e-06
3.35555e-06
4.35745e-06
4.30786e-06
4.25992e-06
1.13413e-05
1.19155e-05
1.28206e-06
4.67228e-06
2.68017e-06
3.34509e-06
3.22411e-06
2.6705e-06
2.83585e-06
6.81076e-06
4.68952e-06
1.18032e-05
4.05963e-06
3.60101e-06
1.08846e-05
3.48237e-06
1.1751e-05
2.85067e-06
7.89988e-06
1.96639e-06
1.18419e-05
6.27843e-06
2.38756e-06
2.41423e-06
2.44228e-06
8.2051e-06
3.87542e-06
4.71901e-06
6.94811e-06
3.12827e-06
3.16349e-06
3.19991e-06
2.29692e-06
6.16237e-06
3.37385e-06
4.54427e-06
4.49263e-06
4.44255e-06
9.50955e-06
7.82024e-06
3.26671e-06
1.11676e-05
3.86194e-06
6.72037e-07
6.31625e-06
5.36622e-06
7.18906e-06
4.31155e-06
4.26269e-06
4.215e-06
2.83734e-06
4.419e-06
3.26684e-06
2.5338e-06
6.12883e-06
3.30283e-06
1.15195e-05
1.04936e-05
1.14467e-05
4.02989e-06
6.43681e-06
4.41728e-06
1.08571e-05
1.8808e-06
1.17472e-05
1.81625e-06
8.98201e-06
2.91397e-06
8.10848e-06
8.19687e-06
8.01387e-06
1.1106e-05
1.1832e-05
9.53577e-06
4.02853e-06
2.79951e-06
2.76835e-06
2.83177e-06
6.63673e-06
1.17783e-05
1.12654e-05
4.1e-06
3.79482e-06
3.41223e-06
2.51481e-06
3.76606e-06
1.15338e-05
6.93103e-07
7.36709e-07
7.13192e-07
6.86505e-07
6.04193e-06
1.93367e-06
3.1034e-06
6.68001e-06
2.9519e-06
5.77318e-06
5.70764e-06
5.64406e-06
3.84309e-06
1.14587e-05
3.47416e-06
3.53061e-06
7.12723e-06
6.50113e-06
2.94822e-06
2.9814e-06
3.01573e-06
2.86249e-06
1.19474e-05
1.40649e-06
3.13904e-06
3.74804e-06
1.14683e-05
3.67235e-06
7.96778e-06
1.17807e-05
1.14045e-05
2.90541e-06
1.14962e-05
7.7101e-06
7.00946e-06
1.48861e-06
1.43938e-06
1.88139e-06
8.16192e-06
1.18408e-05
4.12844e-06
4.03594e-06
4.08162e-06
4.66984e-06
4.56531e-06
4.61688e-06
3.52805e-06
1.147e-05
3.84289e-06
3.83807e-06
5.42919e-06
3.01924e-06
2.48843e-06
3.0664e-06
1.88868e-06
1.86782e-06
1.91062e-06
3.24331e-06
1.18752e-05
3.8443e-06
6.77064e-06
1.15182e-05
3.34332e-06
7.90849e-06
3.96015e-06
2.72354e-06
2.87653e-06
2.79821e-06
1.56523e-06
7.03603e-06
5.74643e-06
6.99798e-06
8.43661e-06
1.00657e-05
4.14751e-06
6.9504e-06
1.16486e-05
6.85726e-06
7.90109e-06
5.61844e-06
4.30224e-06
7.36624e-06
5.99926e-06
1.18461e-05
3.54254e-06
1.12325e-05
3.4976e-06
1.01111e-05
3.53288e-06
1.88508e-06
1.18692e-05
8.09056e-06
1.16926e-05
8.99061e-06
3.50684e-06
2.96106e-06
5.35707e-06
5.83395e-06
5.76763e-06
5.70354e-06
9.55829e-06
7.18035e-06
1.12037e-05
1.21564e-05
2.56979e-06
5.93721e-06
3.65191e-06
5.04914e-06
1.01149e-06
3.46298e-06
5.2724e-06
1.1144e-05
7.217e-06
1.04222e-05
1.18327e-05
1.18559e-06
3.05927e-06
1.14567e-05
1.94943e-06
1.13461e-05
4.85264e-06
4.79759e-06
4.74404e-06
5.03034e-06
3.84874e-06
6.70975e-06
3.77352e-06
1.15533e-05
4.13504e-06
9.95504e-06
1.62747e-06
6.57009e-06
8.48387e-06
9.71988e-06
6.39902e-06
6.32659e-06
6.25599e-06
4.17559e-06
6.18901e-06
6.02113e-06
5.95271e-06
5.88654e-06
8.47792e-06
4.32461e-06
5.5213e-06
6.76521e-06
2.58796e-06
2.61706e-06
2.64725e-06
1.14881e-05
1.16604e-05
6.51841e-06
1.14894e-05
8.5779e-06
8.38655e-06
6.31976e-06
2.22662e-06
6.35158e-06
6.28006e-06
6.20943e-06
6.15267e-06
6.08315e-06
6.01495e-06
7.32909e-06
2.61467e-06
4.35915e-06
1.16739e-05
9.97229e-06
1.17618e-05
1.17953e-05
8.26266e-06
7.40483e-06
1.94224e-06
1.93515e-06
7.59072e-06
1.18342e-05
5.63315e-06
5.46405e-06
5.40191e-06
5.34183e-06
9.67602e-06
8.71537e-06
1.09176e-05
5.84515e-06
1.68758e-06
9.27529e-06
4.96074e-06
3.08312e-06
1.10384e-05
2.23143e-06
2.20686e-06
2.25744e-06
1.18096e-05
2.92901e-06
2.96188e-06
2.99614e-06
3.92736e-06
2.69392e-06
1.57018e-06
3.15081e-06
1.15245e-05
5.33222e-06
3.77188e-06
2.3901e-06
2.06607e-06
7.78567e-06
6.88421e-07
6.70901e-07
6.62941e-07
6.56158e-07
6.58623e-07
1.12199e-05
1.53274e-06
5.30294e-06
7.09456e-06
1.14366e-05
4.36654e-06
6.91296e-06
6.83552e-06
6.75816e-06
8.53322e-06
1.11891e-05
1.12135e-05
6.91057e-06
9.48323e-06
6.34981e-06
6.72749e-06
6.652e-06
6.57707e-06
9.54022e-06
4.61767e-06
6.76237e-06
8.71504e-06
6.63049e-06
6.58674e-06
6.51234e-06
6.4395e-06
5.1085e-07
6.07955e-06
3.50978e-06
1.18366e-05
2.20028e-06
4.4034e-06
2.4176e-06
2.25147e-06
1.18284e-05
7.56227e-06
4.34592e-06
5.89617e-06
1.82277e-06
3.36677e-06
3.40463e-06
3.44393e-06
2.59359e-06
8.8749e-06
1.18504e-05
1.87819e-06
6.08613e-06
8.64468e-06
2.23951e-06
5.83328e-06
2.70287e-06
5.97963e-06
6.34414e-06
1.00271e-05
3.73766e-06
7.46573e-06
2.56764e-06
2.59638e-06
2.62648e-06
1.16857e-05
1.17962e-05
1.75025e-06
1.18547e-05
1.17806e-05
5.90769e-06
4.16531e-06
1.18379e-05
5.54627e-06
2.44535e-06
1.18356e-05
1.0246e-05
1.16103e-05
5.64814e-06
2.66193e-06
1.88015e-06
1.18295e-05
1.20686e-05
3.04277e-06
9.18008e-06
1.16363e-05
1.31794e-06
1.70121e-06
1.68612e-06
1.70487e-06
1.72475e-06
1.00261e-05
3.12828e-06
1.17563e-05
1.13154e-05
6.85189e-06
1.03628e-05
2.29988e-06
3.40725e-06
2.32216e-06
6.45264e-06
6.6584e-06
2.01232e-06
1.4986e-06
1.37646e-06
6.03554e-06
9.81494e-06
4.47985e-06
8.07659e-06
9.90717e-06
6.27637e-06
6.63948e-06
6.40776e-06
3.4546e-06
2.3001e-06
1.17986e-05
2.43211e-06
1.34068e-06
1.32956e-06
1.34422e-06
1.36003e-06
8.77302e-06
3.48768e-06
2.09614e-06
9.31897e-06
2.06201e-06
6.69378e-06
1.13095e-05
3.35804e-06
8.60649e-06
4.91251e-06
4.80258e-06
4.85675e-06
7.1472e-06
9.11076e-06
1.14293e-05
6.21136e-06
6.64646e-06
6.96502e-06
6.88724e-06
6.80941e-06
2.67497e-06
2.85878e-06
7.23643e-06
1.1466e-05
6.38915e-06
7.80456e-06
7.90476e-06
7.72851e-06
5.69674e-06
1.12804e-05
6.21605e-06
1.00317e-05
1.17163e-05
1.19392e-05
2.4078e-06
2.43481e-06
2.46296e-06
1.06234e-05
1.9488e-06
1.92736e-06
1.97152e-06
1.94533e-06
7.01447e-06
8.45806e-06
7.19771e-06
1.18584e-05
1.04628e-05
1.31711e-06
1.32163e-06
1.33726e-06
1.30733e-06
8.87567e-07
8.63971e-07
8.5365e-07
8.44592e-07
8.48403e-07
2.50627e-06
9.7614e-06
7.42897e-06
1.18059e-05
9.96625e-06
1.00087e-05
7.46285e-06
1.18588e-05
2.46157e-06
1.18463e-05
7.29439e-06
7.21464e-06
7.1312e-06
1.17747e-05
6.96941e-06
7.00583e-06
8.87943e-06
4.79678e-06
1.18313e-05
1.19645e-05
2.22948e-06
2.25444e-06
2.28056e-06
1.09843e-05
1.15163e-05
5.41156e-06
6.78229e-06
7.19774e-06
3.04503e-06
1.1769e-05
1.18281e-05
2.31363e-06
1.1912e-06
1.18423e-05
6.44699e-06
7.98505e-06
8.11723e-06
6.40371e-06
3.20413e-06
1.68131e-06
1.6671e-06
1.68553e-06
1.70532e-06
1.18398e-05
9.14138e-06
2.04533e-06
8.03139e-06
7.55888e-06
1.55038e-06
2.14493e-06
1.1812e-05
2.05029e-06
2.02778e-06
2.07425e-06
1.18346e-05
9.7669e-06
2.97852e-06
2.82931e-06
2.86113e-06
2.89415e-06
2.1233e-06
6.90687e-06
5.21966e-06
5.16045e-06
5.10284e-06
9.72229e-06
7.58038e-06
9.86444e-06
8.42124e-06
1.14964e-05
3.40214e-06
9.15087e-06
7.49831e-06
9.35965e-06
7.32798e-06
2.18551e-06
1.64577e-06
5.7364e-06
7.77675e-06
1.18306e-05
1.17792e-05
1.18237e-05
1.16589e-05
2.22423e-06
1.06742e-05
8.92609e-06
1.15857e-05
1.16464e-05
1.50567e-06
1.52231e-06
1.54015e-06
1.51838e-06
1.18457e-05
8.35689e-06
9.72148e-06
7.37374e-06
8.23381e-07
2.70689e-06
2.25362e-06
8.81584e-06
1.15659e-05
2.00142e-06
7.74805e-06
9.59906e-06
9.09457e-06
1.1811e-05
4.05213e-06
1.13376e-05
1.15424e-05
9.28552e-06
1.16302e-05
1.76629e-06
1.7535e-06
1.18539e-05
2.59882e-06
8.51142e-06
8.3213e-06
2.49358e-06
2.46915e-06
2.49682e-06
2.52573e-06
1.14674e-05
1.15101e-05
2.1106e-06
1.17028e-05
3.94104e-06
3.8527e-06
3.8963e-06
3.02512e-06
1.80854e-06
2.93598e-06
1.1794e-05
7.7742e-06
1.11783e-05
1.86119e-06
1.00857e-05
1.73956e-06
1.18496e-05
8.38688e-06
1.91414e-06
8.49036e-06
8.30114e-06
8.46219e-06
2.31499e-06
1.10618e-05
1.13687e-05
2.45375e-06
7.98933e-06
1.58998e-06
8.2987e-06
1.14446e-05
9.34412e-06
1.18551e-05
1.15647e-05
1.07088e-05
1.13421e-05
5.55376e-06
1.18304e-05
1.18017e-05
4.48785e-06
4.43695e-06
4.38738e-06
2.47631e-06
8.08724e-06
1.19025e-05
1.18526e-05
7.40001e-06
1.15078e-05
1.05792e-05
1.18554e-05
1.13609e-05
1.14408e-05
9.9183e-06
8.96279e-06
7.99977e-06
1.12335e-05
1.06665e-05
7.75979e-06
7.84212e-06
7.66721e-06
1.17299e-05
8.39777e-06
2.21918e-06
1.1804e-05
1.69729e-06
9.32074e-06
7.75448e-06
8.36653e-06
1.19496e-05
5.95583e-06
5.88823e-06
5.82262e-06
7.82625e-06
1.14362e-06
9.02312e-06
8.82317e-06
2.56397e-06
7.98913e-06
8.26533e-06
1.18553e-05
1.15444e-05
1.16569e-05
1.12645e-05
1.17145e-05
9.80008e-07
1.15369e-05
6.1251e-06
1.19096e-05
7.93281e-06
8.11412e-06
1.14842e-05
8.444e-06
1.08654e-05
1.18506e-05
9.64802e-06
1.18598e-05
1.15266e-05
1.17498e-05
1.4911e-06
8.43826e-06
9.98693e-06
1.19234e-05
1.17236e-05
6.9687e-06
6.72031e-06
9.37791e-06
1.19342e-05
8.02495e-06
6.54096e-06
6.46742e-06
6.39462e-06
1.12415e-05
1.52589e-06
1.49168e-06
1.50825e-06
1.50573e-06
1.18716e-05
7.07085e-06
1.1852e-05
1.16141e-05
7.37624e-06
1.12622e-05
1.43116e-06
1.12883e-05
1.38184e-06
2.3273e-06
1.33228e-06
1.15027e-05
7.9324e-06
8.0152e-06
7.83635e-06
1.15739e-05
1.02362e-05
1.10039e-05
1.1941e-05
1.18342e-05
1.0848e-05
1.18248e-05
1.09287e-05
7.81616e-06
2.41598e-06
1.10952e-05
1.18751e-05
1.14772e-05
8.96498e-06
8.7666e-06
1.13662e-05
1.17214e-05
1.10213e-05
1.18398e-05
3.65602e-06
1.18719e-05
1.11146e-05
3.9877e-06
1.11083e-05
1.18254e-05
8.54229e-06
9.07674e-06
8.1105e-06
7.92959e-06
8.01013e-06
1.17749e-05
9.42724e-06
1.15559e-05
9.20012e-06
9.60878e-07
1.19589e-05
1.56552e-06
1.58267e-06
1.60133e-06
1.5778e-06
2.07245e-06
8.65274e-06
1.09532e-05
2.11484e-06
1.18439e-05
8.16362e-06
1.13501e-05
1.18115e-05
8.13899e-06
9.96395e-07
9.86252e-07
9.97357e-07
1.00905e-06
8.66973e-06
8.47683e-06
9.98594e-06
8.99234e-06
9.24601e-06
1.20773e-06
1.18336e-05
1.1853e-05
1.18254e-05
1.18428e-05
5.45803e-06
1.16874e-05
1.75249e-06