/*--------------------------------*- C++ -*----------------------------------*\
  =========                 |
  \\      /  F ield         | OpenFOAM: The Open Source CFD Toolbox
   \\    /   O peration     | Website:  https://openfoam.org
    \\  /    A nd           | Version:  8
     \\/     M anipulation  |
\*---------------------------------------------------------------------------*/
FoamFile
{
    version     2.0;
    format      ascii;
    class       volScalarField;
    location    "4";
    object      p;
}
// * * * * * * * * * * * * * * * * * * * * * * * * * * * * * * * * * * * * * //

dimensions      [0 2 -2 0 0 0 0];

internalField   nonuniform List<scalar> 
17372
(
4.79388e-06
9.59426e-06
2.85971e-06
6.71372e-06
9.63701e-06
9.59797e-06
1.96407e-06
9.30386e-06
1.57283e-06
9.23957e-06
4.51686e-06
9.6169e-06
9.42515e-06
9.74348e-06
1.77346e-06
6.35055e-06
9.6191e-06
9.603e-06
9.79287e-06
9.19738e-06
1.7152e-06
7.11151e-07
4.99187e-06
9.21132e-06
9.62772e-06
1.65468e-06
5.34252e-06
2.91045e-06
1.01496e-05
5.20104e-06
1.71208e-06
9.63924e-06
5.06087e-06
1.59544e-06
9.00648e-06
6.45074e-06
1.5336e-06
9.60978e-06
1.81975e-06
8.56506e-06
5.48356e-06
1.01176e-06
2.85821e-06
9.33788e-06
7.47237e-06
4.9235e-06
9.62263e-06
5.67894e-06
1.47617e-06
6.22879e-06
9.59854e-06
1.83245e-06
3.15758e-06
2.78804e-06
9.61016e-06
9.62742e-06
1.41031e-06
3.86479e-07
1.85089e-06
9.33399e-06
6.28079e-06
9.36967e-06
5.13058e-06
6.88673e-06
2.97848e-06
9.31975e-06
1.85883e-06
3.08522e-07
1.76504e-07
9.60251e-06
9.47838e-06
4.39298e-06
2.19927e-06
6.39185e-06
8.68452e-06
7.47034e-06
2.35667e-06
7.46984e-06
7.84231e-06
8.06697e-06
9.61548e-06
2.05666e-06
2.00551e-06
9.63726e-06
9.60975e-06
7.38735e-06
6.29333e-06
6.82857e-06
1.35383e-06
9.44434e-06
7.0672e-07
1.05446e-06
9.40511e-06
9.6395e-06
9.356e-06
5.62421e-06
9.73449e-06
9.62608e-06
9.61337e-06
9.27068e-06
9.55003e-06
5.17592e-06
9.60617e-06
9.32114e-06
1.99065e-06
1.23401e-06
5.80298e-06
9.0077e-06
9.631e-06
5.31788e-06
3.70403e-07
9.54624e-06
5.4595e-06
6.09313e-06
1.50336e-06
7.33051e-07
5.60063e-06
1.17446e-06
7.83566e-07
5.74173e-06
1.64185e-06
5.88276e-06
1.78142e-06
1.33216e-06
9.59803e-06
1.92065e-06
3.33916e-06
9.38358e-06
9.62787e-06
6.02307e-06
2.06065e-06
3.48077e-06
5.27169e-06
6.16151e-06
3.19683e-06
9.38275e-06
4.68411e-06
3.05398e-06
8.29515e-06
9.62786e-06
9.3366e-06
2.91057e-06
2.69695e-06
2.20075e-06
9.4018e-06
2.55404e-06
2.41201e-06
9.76293e-06
9.3756e-06
6.65015e-06
8.70745e-07
6.6061e-06
4.07298e-07
1.93756e-06
9.53676e-06
2.1366e-06
7.60529e-06
9.63513e-06
9.35299e-06
5.03514e-06
2.13062e-06
9.62847e-06
2.55147e-06
9.63348e-06
5.76522e-06
9.39583e-06
5.87473e-06
9.59053e-06
7.93592e-07
6.09495e-06
1.82683e-07
1.01458e-06
6.99476e-06
9.53457e-06
3.62245e-06
2.57823e-06
2.43094e-06
9.18341e-06
9.35688e-06
9.62507e-06
9.09425e-06
4.77002e-06
9.45875e-06
7.50056e-07
2.95075e-06
2.65054e-06
7.85265e-07
9.63813e-06
2.05183e-07
9.64189e-06
5.20436e-07
7.72364e-06
1.44939e-06
9.43756e-06
5.95265e-06
9.64236e-06
5.51464e-06
1.16951e-06
9.58133e-06
8.916e-06
9.64296e-06
9.33468e-06
9.64681e-06
3.18267e-06
3.70952e-07
9.63675e-06
4.83384e-06
9.46665e-06
7.32247e-06
2.34043e-06
5.39006e-06
5.413e-06
5.04542e-06
5.25365e-06
9.63068e-06
1.10758e-06
4.98725e-06
8.65999e-06
9.5704e-06
5.27394e-07
3.01227e-06
9.30998e-06
9.64114e-06
9.66283e-06
2.27098e-06
9.64396e-06
6.23322e-06
9.00975e-06
9.35473e-06
4.89517e-06
9.61233e-06
4.90045e-06
9.4325e-06
7.91684e-06
7.87607e-06
9.87137e-06
9.34852e-06
1.06803e-06
1.92441e-07
3.24826e-06
3.30141e-06
6.51483e-06
9.63641e-06
9.59124e-06
9.32347e-06
5.9061e-06
9.74484e-06
3.08864e-06
4.66015e-07
9.63451e-06
9.62951e-06
3.34282e-06
1.75908e-07
1.00005e-06
9.63454e-06
5.05462e-06
3.83696e-06
9.62258e-06
2.50665e-06
9.63151e-06
6.8709e-07
9.37584e-07
9.63863e-06
9.64167e-06
9.62785e-06
9.62432e-06
6.26665e-06
9.56426e-06
9.11206e-07
9.64573e-06
8.41527e-06
5.97658e-06
9.36258e-06
9.45606e-06
9.64514e-06
6.64053e-06
5.81208e-06
9.68665e-06
9.65731e-06
9.33656e-06
9.64951e-06
9.64174e-06
7.79576e-06
9.64667e-06
5.55384e-06
8.29406e-06
5.93444e-06
2.05194e-06
1.32948e-06
9.42963e-06
4.6506e-06
9.27358e-06
4.75468e-06
4.71049e-06
9.37806e-06
2.28311e-06
7.27884e-06
9.6374e-06
7.93963e-06
7.83416e-07
5.79923e-07
9.64728e-06
1.42473e-06
9.64392e-06
9.62871e-06
9.3156e-06
8.70097e-06
4.72618e-06
1.5689e-06
9.56773e-06
7.99786e-06
9.72164e-06
5.11626e-06
9.64731e-06
9.30533e-06
9.19539e-06
6.11712e-06
9.51847e-06
9.63963e-06
1.11929e-06
8.25153e-06
9.4721e-06
2.48279e-06
9.68161e-06
8.87358e-06
9.34559e-06
9.37794e-06
9.64782e-06
9.53618e-06
7.46719e-06
2.83843e-06
9.11289e-06
9.62917e-06
2.01772e-06
4.05241e-06
1.63854e-06
9.64767e-06
2.33327e-06
2.50566e-06
9.55878e-06
2.72158e-06
9.51876e-06
9.11694e-06
4.98166e-06
7.70041e-07
2.70996e-06
9.64174e-06
7.31772e-07
1.0513e-06
8.18816e-06
9.64741e-06
9.22529e-06
9.6405e-06
1.07725e-06
2.36299e-06
9.63567e-06
9.18622e-06
6.37231e-06
9.64708e-06
1.78693e-06
9.55721e-06
9.64624e-06
2.57893e-06
2.22027e-06
1.93451e-06
9.64576e-06
9.62618e-06
9.32445e-06
2.07669e-06
9.71571e-06
8.8228e-06
9.62319e-06
9.62884e-06
9.63736e-06
8.99168e-06
9.64482e-06
8.20248e-07
8.26296e-06
9.61451e-06
9.62873e-06
9.64228e-06
4.61186e-06
9.22116e-06
5.67103e-06
9.63629e-06
9.41284e-06
6.14579e-06
4.06062e-06
9.3597e-06
9.36616e-06
9.36408e-06
9.63732e-06
5.69459e-06
8.50653e-06
9.63785e-06
4.49016e-07
9.40759e-06
9.61709e-06
9.62892e-06
9.61416e-06
4.19464e-06
9.53348e-06
9.44337e-06
6.32537e-06
2.422e-06
2.35384e-06
9.49199e-06
2.34676e-07
9.61408e-06
7.98634e-06
9.63743e-06
8.95517e-06
2.64329e-07
2.88073e-06
2.62496e-06
9.62771e-06
6.18706e-06
9.64022e-06
8.28401e-06
7.45317e-06
9.45905e-06
9.82453e-06
2.62627e-06
9.65587e-06
2.43477e-06
8.23318e-06
9.44409e-06
1.11239e-06
9.08512e-06
9.15406e-06
9.3707e-06
8.21213e-06
3.72713e-06
6.46701e-06
1.49603e-06
8.48744e-06
9.36022e-06
3.96359e-06
9.87098e-06
9.62365e-06
9.34752e-06
9.64222e-06
9.08413e-06
9.5651e-06
9.62791e-06
9.31799e-06
9.63763e-06
2.10804e-07
3.74761e-06
9.37829e-06
9.62141e-06
9.64043e-06
2.02723e-06
2.13983e-06
1.19154e-06
9.63167e-06
9.64643e-06
9.31241e-06
9.14948e-06
9.225e-06
9.3657e-06
6.37121e-06
9.46267e-06
4.33948e-06
2.60636e-07
4.14889e-06
9.64873e-06
7.30498e-06
9.57666e-06
5.74491e-06
1.89514e-06
8.12533e-06
9.61706e-06
9.60409e-06
9.31395e-06
9.5456e-06
6.33456e-07
9.63681e-06
2.0173e-06
9.64702e-06
6.22869e-06
7.91202e-06
9.24399e-06
1.51848e-06
9.46813e-06
9.42796e-06
1.2884e-06
9.6385e-06
9.63928e-06
7.88902e-07
6.59818e-06
7.60038e-08
1.00334e-06
2.76764e-06
5.81702e-07
9.64177e-06
5.53001e-06
9.63745e-06
9.57256e-06
9.38687e-06
5.83572e-06
9.28213e-07
9.63821e-06
9.60786e-06
9.64739e-06
9.90545e-07
9.64404e-06
9.65041e-06
9.30155e-07
9.5186e-06
2.34914e-06
5.91297e-06
4.39215e-06
9.34338e-06
6.59428e-06
7.88113e-07
9.45047e-06
6.17741e-06
7.74087e-06
6.00027e-06
9.53912e-06
9.46226e-06
2.74015e-06
9.64725e-06
9.55237e-06
9.63625e-06
4.48001e-06
6.50292e-06
9.61836e-06
9.3388e-06
6.13887e-06
2.5482e-07
9.6334e-06
7.7468e-06
6.2228e-06
3.26204e-06
5.86524e-06
9.64785e-06
5.18496e-06
9.50864e-06
9.96794e-07
6.27821e-06
9.76722e-06
9.25003e-06
9.27975e-06
9.58282e-06
9.49125e-06
9.68591e-06
9.61434e-06
6.41801e-06
7.53646e-06
8.83201e-06
9.63936e-06
6.98969e-07
6.39447e-06
9.75937e-06
9.6361e-06
9.57826e-06
9.64756e-06
6.55898e-06
6.2675e-06
2.82768e-06
4.86567e-06
3.88877e-06
5.8166e-07
9.37679e-06
2.21112e-06
9.62566e-06
6.70126e-06
8.64233e-07
1.33206e-06
7.86845e-06
9.40538e-06
9.6452e-06
6.84118e-06
7.89077e-06
9.64723e-06
5.51566e-06
2.30303e-06
9.74923e-06
7.05268e-06
2.05563e-06
4.27259e-06
9.05654e-06
7.62627e-06
8.68944e-06
9.19094e-06
2.05986e-06
9.29096e-06
7.49431e-06
8.73896e-06
9.61789e-06
9.80603e-06
9.06137e-06
9.5218e-06
4.61989e-06
9.61361e-06
9.64628e-06
1.07042e-06
8.43645e-07
6.46305e-06
4.23971e-06
9.50291e-06
6.72614e-06
9.00414e-06
9.97916e-06
9.61556e-06
9.62741e-06
6.83356e-06
1.22692e-06
7.72759e-07
9.58856e-06
9.03946e-06
9.64582e-06
9.66254e-06
9.56095e-06
5.93433e-06
1.99635e-06
6.08484e-06
9.4106e-07
5.38878e-06
7.80775e-06
2.94119e-06
6.35047e-06
6.00038e-06
5.53695e-06
9.46082e-06
1.48958e-06
9.6677e-06
9.30342e-06
9.61073e-06
9.31838e-06
3.96701e-07
9.64815e-06
1.07863e-06
4.21472e-06
9.42192e-06
1.00831e-06
9.1874e-06
2.982e-06
9.39164e-06
9.45751e-06
9.56214e-06
1.20314e-06
9.63294e-06
9.33295e-06
2.60013e-06
7.73926e-06
2.05112e-07
9.57858e-06
8.63681e-06
9.95088e-06
9.28663e-06
1.09641e-06
7.67141e-06
7.87606e-06
7.26071e-06
9.31913e-06
9.65251e-06
7.81543e-06
9.61078e-06
8.93806e-06
9.53971e-06
7.94528e-06
9.64901e-06
9.18149e-06
4.75997e-06
2.12464e-07
3.7631e-06
3.08244e-06
5.27396e-06
1.88936e-06
9.48984e-06
8.52971e-06
9.5679e-06
7.52682e-06
9.6091e-06
1.29751e-06
9.29695e-06
6.06574e-06
7.99185e-07
1.77444e-06
9.61227e-06
7.82515e-06
2.80906e-06
9.68968e-06
9.6306e-06
5.83892e-06
2.02343e-07
5.50566e-06
7.66892e-06
6.04697e-06
7.60296e-06
9.62993e-06
9.4804e-06
2.14134e-07
9.40173e-06
9.58805e-06
9.18786e-07
9.61488e-06
2.29157e-06
8.52629e-08
9.60622e-06
9.74871e-06
8.21445e-08
4.66369e-06
9.6238e-06
8.98138e-06
1.71501e-06
4.09087e-06
6.20977e-06
4.13456e-06
7.53444e-06
9.62986e-06
5.32238e-06
6.86537e-06
3.91382e-07
8.32762e-06
1.21087e-06
9.6028e-06
2.5308e-06
5.83291e-06
9.66323e-06
8.98066e-06
5.03678e-06
1.47276e-06
9.64283e-06
9.62323e-06
8.80295e-06
8.84595e-06
9.38041e-06
6.6285e-06
6.35099e-06
2.82449e-06
9.59873e-06
9.50114e-06
8.47765e-07
6.31829e-06
9.64329e-06
4.8995e-06
7.59899e-06
9.35332e-06
9.54817e-06
9.5955e-06
7.78392e-06
9.64077e-06
9.63246e-06
9.67912e-06
9.57838e-06
3.11288e-06
3.12542e-06
9.64144e-06
7.1713e-06
9.4443e-06
9.19873e-06
9.59175e-06
6.90119e-06
7.5258e-06
9.64003e-06
9.47959e-06
6.06969e-06
6.48808e-06
9.47389e-06
7.65143e-06
9.47886e-06
9.3735e-07
3.98285e-06
5.64364e-07
2.18105e-06
7.59006e-06
9.25104e-06
9.58495e-06
5.8262e-06
9.3302e-06
2.44523e-06
9.45299e-06
5.24702e-06
9.53227e-06
8.79061e-07
1.8147e-06
9.64286e-06
5.99062e-06
7.25109e-06
5.94071e-06
9.45655e-06
7.90152e-06
9.62727e-06
2.06756e-06
9.57239e-06
1.0855e-06
5.99322e-06
3.49515e-06
9.42107e-06
2.45915e-06
9.55208e-06
9.41737e-06
6.71311e-07
9.47116e-06
2.4348e-06
9.47372e-06
9.57101e-06
9.04973e-06
1.09019e-06
9.56249e-06
9.36055e-06
9.4051e-06
8.72466e-06
9.23495e-06
8.59042e-06
4.59263e-06
2.31284e-06
3.94635e-06
9.30016e-06
9.36658e-06
9.61593e-06
6.87184e-07
6.68735e-06
3.94576e-06
7.20143e-06
9.38757e-06
9.3469e-06
9.6374e-06
4.37829e-06
1.85261e-06
9.39365e-06
9.52663e-06
9.05546e-07
7.00691e-06
2.86737e-06
6.80181e-07
9.05164e-06
9.49622e-06
9.66116e-06
8.91458e-06
7.94286e-06
4.37154e-06
9.32546e-06
9.44256e-06
9.10375e-06
9.61425e-06
9.4361e-06
1.29951e-06
2.19738e-06
6.82341e-06
6.04941e-06
9.60818e-06
1.35152e-06
2.28659e-06
2.79587e-06
8.4108e-06
4.46412e-06
9.63407e-06
9.34691e-06
9.23562e-06
9.66459e-06
9.62533e-06
3.56185e-06
2.33944e-07
9.62837e-06
9.08327e-06
8.03193e-06
5.03205e-07
9.37842e-06
8.14754e-06
1.48665e-06
9.63179e-06
2.87201e-06
9.4139e-06
9.57293e-06
9.32725e-06
6.96293e-06
9.50883e-06
6.25913e-06
3.26795e-06
1.57176e-06
7.97652e-06
7.32754e-06
7.19079e-07
9.75286e-06
1.61352e-06
8.81191e-06
5.58535e-06
9.61296e-06
6.54134e-06
7.25813e-06
9.63474e-06
9.63726e-06
2.11876e-06
6.17344e-06
9.62615e-06
9.6255e-06
8.32503e-06
9.36067e-06
9.38895e-06
9.60514e-06
1.43565e-06
9.62693e-06
1.00558e-06
9.049e-06
5.45634e-06
9.34197e-06
9.61389e-06
4.78962e-06
9.31905e-06
7.5327e-06
1.17239e-06
6.66003e-06
6.14755e-06
4.58649e-08
9.22993e-06
7.11842e-06
7.10305e-06
2.79908e-08
1.79032e-07
9.14012e-06
3.02038e-06
5.92295e-06
9.33058e-06
6.25676e-06
9.80998e-06
5.78952e-06
9.5978e-06
7.71919e-06
9.64476e-06
7.38405e-06
9.64195e-06
5.42901e-06
6.79591e-06
7.97712e-06
9.40248e-06
6.5861e-06
7.17125e-06
9.12836e-06
8.88339e-06
9.50987e-06
9.63987e-06
9.34639e-06
6.20871e-06
1.86754e-06
9.58841e-06
4.2222e-06
9.61155e-06
4.01153e-06
6.98695e-06
6.93633e-06
9.20726e-06
3.20835e-06
9.62748e-06
6.97781e-06
7.1497e-06
9.64206e-06
9.26806e-06
9.61032e-06
9.13723e-06
7.0783e-06
9.62953e-06
9.64216e-06
5.10584e-06
9.61776e-06
7.33393e-06
2.31803e-06
8.00761e-08
1.10236e-07
3.55852e-07
9.17336e-06
3.41189e-08
5.34136e-08
5.7964e-06
9.67395e-06
3.35305e-06
7.24331e-06
9.60152e-06
9.63854e-06
9.64058e-06
6.18403e-06
9.61656e-06
8.84721e-06
9.64536e-06
9.64064e-06
6.83671e-06
9.52303e-06
9.56938e-06
3.73857e-06
9.6108e-06
9.61081e-06
9.5034e-06
1.5845e-06
6.35297e-08
6.49168e-07
8.56819e-06
3.1768e-06
2.52934e-06
4.26107e-06
2.81022e-06
9.38027e-06
1.92605e-07
9.60997e-06
7.03013e-06
7.73528e-06
6.44454e-06
9.66617e-06
3.20583e-06
9.58037e-06
9.67582e-06
6.69519e-06
2.38843e-06
9.55901e-06
9.62616e-06
9.61488e-06
9.55069e-06
8.02516e-06
7.81193e-06
9.4861e-06
9.67621e-07
9.37324e-06
5.69086e-06
3.80877e-06
9.50185e-06
7.22214e-06
3.99252e-06
7.18851e-06
6.53148e-06
9.47742e-06
5.78419e-06
7.38344e-06
9.37264e-06
9.36378e-06
4.47041e-06
1.49228e-06
2.09492e-07
9.30554e-06
5.37862e-06
9.183e-07
9.63939e-06
9.10086e-06
9.50839e-06
8.82954e-06
5.49262e-07
6.55324e-06
9.3128e-06
9.55253e-06
9.51372e-06
9.55449e-06
2.36471e-06
9.63549e-06
3.40949e-06
9.42367e-06
9.61239e-06
8.70353e-06
9.5089e-06
4.13179e-06
9.63536e-06
9.37462e-06
7.90879e-07
2.24714e-06
2.7313e-06
2.14891e-06
9.68169e-06
9.61554e-06
9.25023e-06
1.92378e-06
9.34104e-06
9.63414e-06
9.53962e-06
9.63487e-06
8.89171e-07
6.41049e-06
7.39666e-06
6.30126e-06
9.64097e-06
7.36808e-06
1.71889e-06
1.70874e-06
4.28181e-06
9.27364e-06
2.28954e-06
9.68475e-06
9.40123e-06
2.72921e-06
9.67373e-06
7.81802e-06
9.5813e-06
8.944e-06
8.48272e-06
9.59681e-06
9.68103e-06
9.62897e-06
9.4662e-06
4.25162e-06
9.63728e-06
7.5243e-06
7.24225e-06
9.01095e-07
9.60724e-06
8.08165e-06
1.75428e-06
4.98984e-07
3.98192e-07
9.31964e-06
9.61911e-06
9.29627e-06
1.00866e-05
1.43977e-06
6.31727e-07
6.43069e-06
5.55367e-07
6.02899e-06
1.55496e-06
9.28485e-06
8.95952e-06
8.96656e-06
9.58964e-06
6.82044e-07
4.71025e-07
6.12246e-06
6.15728e-06
8.35071e-06
9.62103e-06
9.19027e-06
7.26986e-06
9.29763e-06
1.24994e-06
1.35939e-06
9.36423e-06
9.63357e-06
6.73128e-06
9.40322e-06
6.51637e-07
9.50345e-06
7.51714e-06
9.66571e-06
9.61777e-06
9.56797e-06
9.61101e-06
9.24889e-07
1.31486e-07
9.61512e-06
9.23629e-06
7.86883e-07
9.50552e-06
2.67282e-06
9.49436e-06
5.1255e-07
9.20151e-06
9.61529e-06
7.29476e-06
9.63425e-06
9.6457e-06
9.34043e-06
1.85964e-06
2.12865e-06
6.98115e-07
8.68768e-06
5.51471e-06
9.57886e-06
8.48956e-06
9.31552e-06
8.43294e-06
9.83808e-06
2.00356e-06
9.63031e-06
9.59134e-06
4.91975e-07
9.62893e-06
9.64473e-06
6.67864e-06
6.0132e-06
9.63957e-06
8.29839e-07
7.66578e-06
1.31731e-06
8.86309e-06
9.25509e-06
6.3482e-06
9.28146e-06
9.64635e-06
7.04829e-06
9.58225e-06
4.97137e-06
2.03509e-06
9.62804e-06
6.26618e-06
6.96099e-06
1.66786e-07
1.413e-07
8.22653e-06
9.47157e-06
4.96573e-06
3.30558e-06
9.57906e-06
9.56837e-06
9.64666e-06
9.58807e-06
4.75282e-07
9.51393e-06
9.66599e-06
5.15741e-06
9.60402e-06
9.79299e-06
9.04201e-06
5.86882e-06
9.18523e-06
9.32942e-07
7.48278e-06
9.63178e-06
9.64749e-06
5.65208e-06
9.67044e-06
4.31976e-07
2.26662e-06
2.17616e-06
7.96494e-06
7.94961e-06
9.88838e-06
5.47237e-06
9.35651e-06
3.55103e-06
9.63892e-06
9.41732e-06
5.7243e-06
9.57608e-06
9.64707e-06
9.64807e-06
1.63307e-06
5.00361e-06
9.63989e-06
8.99096e-06
8.33215e-06
5.97557e-06
8.85218e-06
8.45075e-06
6.18356e-07
9.6218e-06
9.58465e-06
1.19051e-06
7.24258e-07
2.00263e-06
5.45427e-07
5.57992e-06
1.89417e-06
9.64844e-06
9.55816e-06
6.46406e-06
9.63666e-06
9.27822e-06
9.75872e-06
7.75099e-06
9.43545e-06
8.36193e-07
9.53089e-06
5.09396e-07
9.6391e-06
9.62063e-06
1.4637e-06
6.0739e-07
9.06728e-06
7.17602e-06
9.70644e-06
9.64868e-06
9.6161e-06
1.50566e-07
9.32867e-08
1.69562e-06
7.84311e-06
9.6683e-06
9.75944e-06
9.02025e-06
9.63127e-06
9.63843e-06
5.65007e-06
7.62725e-07
9.56418e-06
7.2564e-06
9.64847e-06
6.35752e-07
3.31082e-06
9.45443e-06
8.14028e-06
9.06127e-06
9.5181e-06
8.10693e-06
9.36576e-06
9.4937e-06
2.10587e-06
9.31131e-06
9.4168e-06
9.36683e-06
1.32543e-06
9.64823e-06
9.27798e-06
9.50025e-06
9.6394e-06
7.81483e-06
5.79314e-07
7.70072e-06
7.81562e-06
9.71363e-06
8.00688e-06
9.5299e-06
9.51834e-06
9.63257e-06
9.63852e-06
4.52664e-07
9.66439e-07
9.64767e-06
4.89881e-07
6.44594e-07
9.39691e-06
9.19696e-06
8.84114e-06
7.87927e-06
9.66509e-06
9.13215e-06
2.75513e-06
9.62304e-06
9.60021e-06
9.61073e-06
7.19946e-06
9.64434e-06
9.6478e-06
9.63931e-06
1.00097e-05
9.2927e-06
6.30839e-08
9.10188e-06
1.89506e-06
8.24108e-06
9.62595e-06
1.56426e-06
9.69023e-06
9.21054e-06
1.02455e-06
9.62837e-06
9.40442e-06
2.20037e-06
9.64139e-06
3.83858e-08
2.22655e-06
8.40006e-06
9.40432e-06
9.69385e-06
9.65099e-06
7.80457e-06
9.20633e-06
1.03473e-06
6.82144e-06
5.43594e-06
9.61263e-06
9.63994e-06
9.27636e-06
9.3091e-06
9.51284e-06
7.174e-06
7.03163e-06
9.64164e-06
5.88471e-06
9.63635e-06
6.77807e-07
8.76467e-06
9.41504e-06
8.09674e-06
1.47751e-06
6.83131e-07
4.95865e-06
8.1575e-06
9.15798e-06
6.9074e-06
8.95536e-07
9.32124e-06
1.17436e-06
6.60006e-07
1.5654e-06
9.61038e-06
9.21996e-06
9.64513e-06
9.62574e-06
9.62044e-06
8.3652e-06
2.53265e-06
9.61417e-06
7.41164e-06
7.62994e-07
9.21248e-06
7.38887e-06
5.1887e-06
9.62645e-06
8.34703e-06
8.2648e-06
9.75663e-06
9.44517e-06
9.55131e-06
9.56701e-06
9.63744e-06
7.97407e-06
9.45533e-06
9.51419e-06
7.44225e-06
9.59721e-06
8.12255e-06
9.65041e-06
9.50848e-06
6.90538e-06
8.72482e-06
9.31272e-06
8.86621e-06
9.64339e-06
9.64894e-06
1.77972e-06
4.96856e-06
6.15111e-07
1.41176e-06
1.31451e-06
7.93709e-06
9.52914e-06
9.64029e-06
9.2997e-06
9.31583e-06
9.43031e-06
9.19697e-06
8.96889e-06
9.61855e-06
1.56005e-06
9.30842e-06
8.04514e-06
7.59246e-06
1.69681e-06
9.62764e-06
8.94467e-06
8.73821e-06
9.63852e-06
9.6899e-06
9.61149e-06
2.94159e-06
8.34118e-06
9.49148e-06
9.63645e-06
9.63932e-06
9.63801e-06
9.31753e-06
1.10921e-07
9.1947e-06
6.43528e-06
2.30178e-06
3.69284e-06
9.63948e-06
7.60776e-06
9.60686e-06
9.63404e-06
9.2331e-06
9.43902e-06
1.78849e-06
9.0251e-06
8.08093e-06
3.29717e-07
7.80398e-06
9.5945e-06
1.40172e-06
9.29456e-06
9.15259e-06
2.10553e-07
5.30741e-06
1.93134e-06
1.45502e-06
8.88364e-06
9.317e-06
1.73822e-06
1.98976e-06
7.62719e-06
9.34152e-06
9.08533e-06
9.64639e-06
9.09007e-06
9.6117e-06
6.4885e-06
2.07552e-06
5.49019e-07
1.83572e-06
9.39083e-06
8.83586e-06
9.02379e-06
9.53711e-06
8.44615e-06
9.65055e-06
4.82557e-06
9.16253e-06
9.30762e-06
9.64996e-06
9.48853e-06
9.59549e-06
9.62039e-06
7.52336e-07
9.67264e-06
9.07685e-06
8.43752e-06
1.77384e-06
9.64195e-06
9.33879e-06
9.4571e-06
9.45404e-06
4.98587e-07
8.78381e-06
5.0362e-06
9.68257e-06
5.22055e-06
3.59386e-06
6.30436e-07
8.37142e-06
1.59569e-06
3.76838e-06
2.37618e-06
9.62183e-06
9.61509e-06
4.22653e-07
9.4597e-06
9.37417e-06
9.57433e-06
9.61306e-06
8.24779e-07
1.88133e-06
9.44736e-06
8.61154e-06
6.76811e-07
9.59373e-06
9.71416e-06
8.84989e-07
9.2181e-06
9.13107e-06
8.47684e-06
9.29694e-06
9.64009e-06
8.84938e-06
5.74154e-06
9.28538e-06
9.34824e-06
6.86416e-07
9.54978e-06
8.65817e-06
9.06007e-06
7.83798e-06
2.95842e-06
9.46009e-06
9.68885e-06
2.58428e-06
4.36636e-06
9.63164e-06
9.16654e-06
6.82221e-06
9.13887e-06
9.32888e-06
9.63826e-06
9.42769e-06
9.64221e-06
9.60733e-06
9.61204e-06
9.53918e-06
1.73642e-06
8.4424e-06
7.31722e-06
8.36569e-06
9.12163e-06
9.81187e-06
9.6113e-06
9.64114e-06
2.52064e-06
7.88845e-06
7.98956e-06
9.63873e-06
8.80255e-06
9.65056e-06
6.61915e-06
8.53577e-07
8.03742e-06
9.61307e-06
9.59158e-06
7.24938e-07
9.63418e-06
9.59373e-06
1.82453e-06
7.05576e-07
7.85472e-06
9.61556e-06
7.5342e-06
4.03372e-07
9.0041e-06
6.96382e-06
8.60242e-06
8.0795e-06
9.81849e-06
9.61132e-06
9.74323e-06
9.64099e-06
9.32386e-06
9.61322e-06
7.1474e-06
9.13311e-06
3.80651e-06
9.63915e-06
9.75707e-06
9.59532e-06
9.62972e-06
6.98169e-06
9.28362e-06
9.24192e-06
9.56197e-06
9.31569e-06
9.42955e-06
9.2416e-06
1.96536e-06
8.86544e-06
9.63722e-06
9.13836e-06
9.68418e-06
9.37146e-06
9.3283e-06
9.63291e-06
8.52498e-06
8.29544e-06
9.45387e-06
5.10299e-06
9.65068e-06
5.85575e-06
9.51616e-06
9.63496e-06
9.38657e-06
9.41185e-06
9.60895e-06
7.75934e-06
8.56866e-06
1.87848e-06
5.53186e-07
7.25599e-07
9.5772e-06
9.24829e-06
9.22577e-06
9.35319e-06
9.50426e-06
9.27377e-06
9.18617e-06
9.20912e-06
9.27904e-06
9.46538e-06
3.67179e-06
7.98246e-06
5.99683e-07
9.50932e-06
9.8327e-06
9.09519e-06
6.03809e-07
9.30382e-06
9.2929e-06
9.44993e-06
8.95036e-06
9.28861e-06
9.11401e-06
8.49598e-06
9.27011e-06
9.63838e-06
9.47825e-06
9.2813e-06
6.19143e-06
8.52993e-06
9.29486e-06
9.63512e-06
9.35633e-06
9.62684e-06
9.63876e-06
9.64364e-06
7.95182e-06
8.93883e-06
9.60272e-06
8.78975e-06
9.60157e-06
9.61435e-06
7.96115e-06
7.72622e-07
9.21643e-06
9.3233e-06
9.19995e-06
2.66978e-06
9.34345e-06
9.63065e-06
6.44819e-06
9.11811e-06
8.03141e-06
9.4979e-06
9.28248e-06
8.11948e-06
9.39125e-06
9.33587e-06
9.31888e-06
9.60376e-06
9.09154e-06
8.63792e-06
6.78328e-06
9.34545e-06
8.43694e-06
8.05747e-07
9.29179e-06
9.60516e-06
6.76607e-06
9.28085e-06
6.99963e-07
9.5819e-06
9.6361e-06
9.53337e-06
9.36558e-06
2.00632e-06
9.36137e-06
9.61427e-06
9.44496e-06
8.41924e-06
9.60615e-06
9.25833e-06
8.00584e-06
6.3424e-06
9.40507e-06
9.59979e-06
9.38955e-06
9.20253e-06
5.5079e-06
2.44905e-06
9.60711e-06
1.82042e-06
9.58282e-06
9.31344e-06
8.92031e-06
9.63851e-06
7.55773e-07
9.57603e-06
9.81084e-07
9.63142e-06
9.65019e-06
9.36959e-06
9.63107e-06
5.82839e-06
9.63537e-06
1.00855e-06
9.2826e-06
7.71151e-06
2.24449e-06
9.38629e-06
4.7222e-07
9.32124e-06
9.61459e-06
9.1793e-06
9.38373e-06
7.85466e-06
9.60008e-06
9.27456e-06
2.10623e-06
8.74631e-06
7.6052e-06
7.88726e-06
6.71447e-07
9.23488e-06
8.35678e-06
9.53443e-06
9.36727e-06
9.2678e-06
9.60686e-06
9.64567e-06
8.37983e-06
2.8129e-06
9.00733e-06
1.74551e-06
7.78892e-06
7.2832e-06
9.39229e-06
9.11484e-06
8.27248e-06
8.13177e-06
9.64062e-06
9.60882e-06
9.26927e-06
9.67431e-06
9.26939e-06
9.58993e-06
8.09952e-06
9.15987e-06
9.58744e-06
9.30015e-06
8.57021e-06
5.16779e-06
9.56935e-06
9.39716e-06
9.36243e-06
9.6e-06
9.32954e-06
9.50224e-06
6.74611e-07
8.21303e-06
7.9883e-06
2.26444e-06
9.33522e-06
9.41047e-06
9.50222e-06
9.52128e-06
5.74043e-06
9.32599e-06
8.41216e-06
9.50897e-06
9.36893e-06
9.62961e-06
6.8068e-07
9.60805e-06
9.36998e-06
7.75885e-06
9.385e-06
9.25094e-06
8.75408e-06
9.63983e-06
9.59189e-06
8.91455e-06
9.35605e-06
9.29884e-06
9.61489e-06
1.4825e-06
9.36134e-06
7.649e-06
9.38262e-06
9.63788e-06
2.39196e-06
9.41227e-06
9.61669e-06
9.34201e-06
9.64864e-06
9.62863e-06
7.12329e-06
6.69297e-06
1.1212e-06
2.0724e-06
9.29777e-06
9.36994e-06
8.41096e-06
9.39125e-06
9.56375e-06
9.36118e-06
9.29108e-06
9.6569e-06
9.061e-06
9.63837e-06
9.6505e-06
9.28551e-06
9.11124e-06
8.11098e-06
9.31932e-06
9.63799e-06
9.63314e-06
3.78735e-06
8.19379e-06
9.51401e-06
2.03594e-06
9.31792e-06
9.21272e-06
7.39055e-06
9.63888e-06
3.10905e-06
9.28376e-06
8.29451e-06
8.2611e-06
7.19329e-06
9.62495e-06
9.51032e-06
9.37514e-06
6.57367e-07
3.00239e-06
1.97601e-06
9.34843e-06
9.18506e-06
9.58551e-06
9.68851e-07
3.61486e-06
9.73165e-06
9.38961e-06
9.41092e-06
9.39863e-06
9.34295e-06
9.39228e-06
9.33854e-06
2.02148e-06
9.63103e-06
8.75382e-06
9.50174e-06
9.39283e-06
9.56703e-06
9.63235e-06
1.52378e-06
9.38351e-06
9.59908e-06
9.62261e-06
9.62601e-06
7.97013e-06
9.26657e-06
9.43492e-06
7.88768e-07
9.63824e-06
9.47638e-06
8.62941e-07
7.97115e-06
9.18694e-06
9.42586e-06
9.40411e-06
9.35942e-06
9.14412e-06
9.33677e-06
9.44168e-06
9.42555e-06
9.40495e-06
8.58366e-06
8.94598e-06
9.47597e-06
9.63904e-06
8.15545e-06
9.23517e-06
9.65039e-06
9.42191e-06
9.32198e-06
9.61425e-06
5.52006e-06
9.30359e-06
9.58643e-06
9.35482e-06
9.31267e-06
7.67965e-07
9.38972e-06
9.39143e-06
7.74618e-06
8.0014e-06
9.63329e-06
7.51954e-06
8.24593e-06
9.61467e-06
4.06793e-06
9.19206e-06
9.55749e-06
9.34609e-06
9.28076e-06
9.42195e-06
9.53713e-06
8.81305e-06
9.62858e-06
9.60984e-06
9.61571e-06
9.61267e-06
8.12036e-06
9.3604e-06
9.65057e-06
1.2616e-06
9.59771e-06
9.62093e-06
9.65316e-06
9.36942e-06
8.73076e-06
9.63954e-06
8.29933e-06
9.49651e-06
4.30703e-06
1.00182e-05
8.89969e-06
8.65464e-06
9.61644e-06
8.05047e-06
7.89345e-06
9.41455e-06
8.06634e-06
9.37938e-06
9.8917e-06
8.40714e-07
9.63537e-06
9.45591e-06
7.86216e-06
9.38902e-06
9.34978e-06
9.51508e-06
8.85107e-06
9.22617e-06
9.39669e-06
7.99219e-06
9.00656e-06
9.39229e-06
9.38888e-06
9.74134e-06
9.38094e-06
9.19663e-06
9.47479e-06
9.48012e-06
9.7474e-06
8.7687e-06
9.37764e-06
9.34314e-06
9.69534e-06
9.10733e-06
8.08007e-06
8.10769e-06
9.48783e-06
9.39808e-06
9.84088e-06
8.87995e-06
7.48551e-06
9.45527e-06
1.41841e-06
9.49838e-06
9.17298e-06
7.58509e-06
9.27186e-06
9.25925e-06
9.63379e-06
8.04481e-06
9.39865e-06
9.40167e-06
8.17304e-07
9.48995e-06
9.44042e-06
9.32328e-06
8.24874e-07
9.4283e-06
9.65361e-06
9.27724e-06
9.37971e-06
9.46301e-06
9.63974e-06
9.63836e-06
9.5193e-06
9.45511e-06
8.07347e-06
9.62943e-06
9.52353e-06
9.637e-06
9.50373e-06
9.41376e-06
9.47133e-06
9.5924e-06
8.42293e-06
9.34791e-06
9.40335e-06
7.5672e-06
9.45462e-06
9.32434e-06
9.49074e-06
9.53058e-06
7.87591e-06
6.85854e-07
9.13693e-06
9.43984e-06
8.33739e-06
9.26889e-06
9.00762e-06
7.68195e-07
9.09903e-06
9.91827e-06
7.72972e-06
9.50249e-06
9.27734e-06
9.32325e-06
9.26119e-06
9.44693e-06
6.2779e-06
9.41299e-06
9.52239e-06
9.59828e-06
9.74617e-06
9.39896e-06
9.62948e-06
8.01666e-06
9.29657e-06
9.14437e-06
9.5052e-06
9.51877e-06
8.27828e-06
9.18346e-06
9.36477e-06
9.44442e-06
9.37471e-06
9.63036e-06
9.46113e-06
8.70987e-06
6.97615e-07
9.50914e-06
9.61679e-06
9.49597e-06
9.47206e-06
9.43266e-06
9.6364e-06
9.50721e-06
9.43158e-06
8.18314e-06
9.60607e-06
9.2284e-06
9.28582e-06
9.2901e-06
9.28032e-06
9.63456e-06
9.51305e-06
9.61054e-06
9.44905e-06
1.2197e-06
9.6098e-06
9.31485e-06
9.61413e-06
9.35126e-06
9.25876e-06
9.45751e-06
9.57824e-06
8.98362e-06
8.80952e-06
9.85143e-06
9.41362e-06
6.36614e-06
8.0788e-06
9.74952e-06
2.24667e-06
9.57423e-06
9.65051e-06
9.63696e-06
9.35258e-06
9.61485e-06
9.21706e-06
8.19325e-06
9.0977e-06
9.33841e-06
9.47462e-06
9.60719e-06
9.28017e-06
9.63003e-06
9.69955e-06
8.911e-06
4.79177e-06
9.57409e-06
9.40329e-06
9.25862e-06
9.63184e-06
9.44693e-06
9.31109e-06
9.61625e-06
9.08024e-06
9.56552e-06
9.52462e-06
9.43683e-06
9.36619e-06
9.61866e-06
9.6401e-06
9.64134e-06
9.26395e-06
9.36424e-06
9.63227e-06
9.64261e-06
9.63111e-06
9.31829e-06
9.35397e-06
7.6551e-06
9.13337e-07
1.40223e-06
9.62752e-06
8.17328e-06
9.55965e-06
9.5361e-06
9.38512e-06
3.05741e-06
9.29747e-06
9.46529e-06
9.52942e-06
9.68362e-06
9.61972e-06
9.51469e-06
9.52537e-06
9.65041e-06
9.61416e-06
9.31456e-06
7.10723e-06
9.84339e-06
9.30745e-06
9.46897e-06
9.63341e-06
8.3124e-06
9.51811e-06
9.40958e-06
9.60731e-06
9.61598e-06
8.28297e-06
9.4528e-06
9.54772e-06
9.30052e-06
9.54661e-06
7.37509e-06
9.51355e-06
8.03161e-06
9.49213e-06
9.52101e-06
9.63505e-06
9.61906e-06
9.41287e-06
9.06043e-06
9.46544e-06
7.50789e-06
9.61388e-06
2.65382e-07
1.91472e-06
9.39707e-06
9.6484e-06
9.7957e-06
9.49607e-06
9.70878e-06
8.04699e-07
9.65814e-06
9.45174e-06
2.55392e-06
3.47106e-06
3.96862e-06
4.18259e-06
4.81975e-06
5.73769e-06
5.94916e-06
6.44928e-06
6.665e-06
9.31167e-06
9.26973e-06
9.25606e-06
9.56668e-06
9.56616e-06
9.62752e-06
9.46112e-06
9.5915e-06
9.57702e-06
9.61838e-06
9.61443e-06
9.62706e-06
8.54667e-06
9.23056e-06
7.23324e-06
9.49107e-06
9.50332e-06
9.64109e-06
9.62712e-06
7.30405e-06
9.62456e-06
6.33505e-06
9.46249e-06
9.60561e-06
7.44602e-06
7.51713e-06
1.00691e-06
9.63641e-06
9.52436e-06
9.60508e-06
9.65279e-06
9.52909e-06
9.47234e-06
9.34943e-06
9.63023e-06
8.51252e-07
9.53466e-06
9.61508e-06
9.62378e-06
9.62689e-06
7.504e-06
9.0022e-06
9.61067e-06
9.32248e-06
9.44187e-06
9.31267e-06
9.36632e-06
9.27066e-06
2.17632e-07
8.50547e-06
9.4482e-06
9.48089e-06
8.58355e-06
9.50772e-06
9.64659e-06
9.24935e-06
7.6931e-06
9.67894e-06
9.53853e-06
9.48446e-06
7.19321e-06
9.30248e-06
9.25228e-06
9.58714e-06
9.61946e-06
8.65874e-06
9.55075e-06
9.46895e-06
9.64853e-06
9.64367e-06
7.84028e-06
9.34329e-06
9.42281e-06
9.41581e-06
9.7689e-06
9.34015e-06
9.5179e-06
9.80529e-06
9.64372e-06
9.51807e-06
9.57746e-06
9.52943e-06
9.63819e-06
9.64169e-06
9.63509e-06
9.38425e-06
9.53045e-06
6.3906e-06
9.12925e-06
9.48382e-06
7.36014e-06
9.61504e-06
7.83297e-06
9.65026e-06
9.34501e-06
9.61963e-06
7.20515e-06
9.07621e-06
9.64805e-06
9.63302e-06
9.68111e-06
7.43924e-06
9.35284e-06
9.60938e-06
8.1916e-06
9.39659e-06
2.37735e-06
9.59682e-06
9.41837e-06
9.25462e-06
9.63935e-06
9.62283e-06
9.62919e-06
9.66358e-06
8.9073e-06
9.51626e-06
9.4188e-06
8.75722e-06
5.51886e-07
9.61099e-06
9.62265e-06
9.59711e-06
3.33642e-07
9.35189e-06
9.39628e-06
3.54961e-06
9.61012e-06
9.63212e-06
9.586e-06
7.94964e-06
8.4886e-06
9.57938e-06
9.36255e-06
9.11214e-06
9.33602e-06
9.5905e-06
9.61933e-06
9.6173e-06
9.50876e-06
9.24934e-06
9.75168e-06
9.37812e-06
1.9646e-06
9.5437e-06
9.61184e-06
9.39076e-06
9.60695e-06
9.61619e-06
9.59385e-06
9.64923e-06
9.65036e-06
9.2804e-06
9.62506e-06
8.28539e-06
9.58402e-06
9.6843e-06
9.35191e-06
9.59403e-06
9.65006e-06
8.25631e-06
9.48409e-06
9.5156e-06
9.32481e-06
9.63193e-06
9.63763e-06
9.24465e-06
9.63776e-06
9.61802e-06
9.67637e-06
9.65962e-06
9.33106e-06
9.74522e-06
9.46352e-06
9.61831e-06
9.29153e-06
9.37993e-06
9.61738e-06
9.56083e-06
9.53549e-06
9.43543e-06
9.66029e-06
8.29146e-06
9.67254e-06
9.63742e-06
8.31673e-06
9.44961e-06
9.83854e-06
9.49173e-06
9.69824e-06
9.66932e-06
9.42741e-06
9.36885e-06
9.3005e-06
9.62832e-06
9.46382e-06
9.63425e-06
9.6828e-06
9.57017e-06
9.83925e-06
8.86185e-06
7.02129e-06
9.51636e-06
9.60515e-07
9.26698e-06
8.52263e-06
9.37732e-06
9.73141e-06
9.70696e-06
9.37536e-06
1.54299e-06
9.52497e-06
9.31477e-06
9.52455e-06
9.61066e-06
4.68402e-06
9.20992e-06
1.26331e-06
9.51698e-06
9.63492e-06
9.63656e-06
8.07992e-06
9.57436e-06
9.96149e-06
9.74746e-07
7.41498e-06
9.37666e-06
9.76309e-06
9.76703e-06
8.56017e-06
9.61907e-06
7.58852e-06
7.64269e-06
8.45102e-06
9.61773e-06
9.5462e-06
9.63454e-06
9.8363e-06
9.64127e-06
9.70292e-06
9.63593e-06
7.37607e-06
9.58925e-06
1.00253e-05
9.58537e-06
9.46747e-06
1.16504e-06
9.5641e-06
9.58657e-06
9.61578e-06
8.33617e-06