/*--------------------------------*- C++ -*----------------------------------*\
  =========                 |
  \\      /  F ield         | OpenFOAM: The Open Source CFD Toolbox
   \\    /   O peration     | Website:  https://openfoam.org
    \\  /    A nd           | Version:  8
     \\/     M anipulation  |
\*---------------------------------------------------------------------------*/
FoamFile
{
    version     2.0;
    format      ascii;
    class       volScalarField;
    location    "4";
    object      p;
}
// * * * * * * * * * * * * * * * * * * * * * * * * * * * * * * * * * * * * * //

dimensions      [0 2 -2 0 0 0 0];

internalField   nonuniform List<scalar> 
5490
(
6.22607e-06
6.67994e-06
5.27664e-06
6.34115e-06
1.00052e-06
1.11016e-05
1.15388e-05
1.15004e-05
4.40649e-06
1.14757e-05
4.90511e-06
4.70713e-06
3.81074e-06
4.38133e-06
4.27769e-06
1.14936e-05
1.15418e-05
1.11933e-05
6.22609e-06
4.53471e-06
3.36008e-06
1.15391e-05
1.12531e-05
1.15389e-05
3.25724e-06
3.45499e-06
3.92702e-06
6.11129e-06
1.08797e-05
2.20359e-06
5.875e-06
1.15282e-05
9.01358e-06
7.72583e-06
2.66809e-06
5.83692e-06
1.08041e-05
6.20827e-06
1.44782e-06
3.04575e-06
6.00655e-06
1.08311e-05
5.15328e-06
1.08696e-05
1.14992e-05
7.74271e-06
2.07786e-06
1.57173e-06
6.22492e-06
9.89136e-06
1.14591e-05
2.32533e-06
2.77922e-06
1.21638e-06
3.69485e-06
7.7412e-06
1.04448e-05
1.17816e-05
4.3782e-06
2.3027e-06
1.08573e-05
5.10581e-07
7.31941e-06
1.15118e-05
1.154e-05
1.13649e-05
1.14721e-05
1.0784e-05
1.87308e-06
1.15081e-05
1.47189e-06
3.14363e-06
1.14804e-05
1.15163e-05
1.14417e-05
2.72958e-06
1.11425e-05
4.76278e-07
6.55878e-06
5.23385e-06
1.0848e-05
1.00328e-05
1.10186e-05
6.34181e-06
9.81422e-07
7.14308e-06
1.11668e-05
1.11164e-05
2.91619e-06
1.07863e-05
1.15014e-05
1.10396e-05
1.27884e-06
1.15529e-05
6.01606e-06
1.15001e-05
4.61088e-06
1.10085e-05
1.08569e-05
3.64955e-06
4.51274e-06
2.8193e-06
7.91272e-06
1.15145e-05
7.88797e-06
7.51291e-06
2.79226e-06
1.06336e-05
1.15215e-05
1.15302e-05
1.15208e-05
1.1505e-05
1.13967e-05
7.81202e-06
5.45628e-06
1.084e-05
6.57239e-06
1.13678e-05
1.1318e-05
2.41067e-06
7.97767e-06
9.03959e-06
1.09502e-05
6.45545e-06
1.15021e-05
1.14335e-05
4.28195e-06
7.13245e-07
1.15246e-05
4.14523e-06
1.14372e-05
1.08038e-05
3.49029e-06
5.12466e-06
1.70105e-06
1.15242e-05
1.17551e-05
1.1478e-05
1.14536e-05
7.64005e-06
1.15151e-05
1.1551e-05
3.26097e-06
1.07221e-05
1.15141e-05
1.1502e-05
9.81598e-09
1.15082e-05
2.48879e-06
1.09617e-05
1.15311e-05
1.15277e-05
4.6274e-06
1.15527e-05
1.06779e-05
1.15428e-05
1.15322e-05
1.14049e-05
1.15037e-05
4.21243e-06
5.44399e-06
1.04454e-05
1.06819e-05
1.13905e-05
1.15087e-05
1.12892e-05
1.15237e-05
4.25439e-07
1.10797e-05
2.43184e-07
1.17471e-05
8.08417e-07
3.46783e-06
1.15281e-05
4.73032e-06
2.01513e-06
2.61285e-06
1.15516e-05
3.36309e-06
4.18192e-06
1.14729e-05
1.15216e-05
6.61247e-06
6.08719e-06
1.15437e-05
1.74123e-06
2.44167e-06
1.13578e-06
1.15285e-05
1.14844e-05
1.1776e-05
1.6102e-06
6.46843e-06
1.15277e-05
1.14535e-05
5.57376e-06
7.75588e-06
1.15441e-05
1.10001e-05
2.44262e-06
1.14171e-05
7.54357e-06
1.15464e-05
1.15197e-05
9.68863e-06
1.19725e-05
1.15238e-05
1.13981e-05
5.07138e-06
1.10087e-05
1.15856e-05
1.15321e-05
5.99772e-06
5.74897e-06
5.39691e-06
7.74489e-06
5.36537e-06
5.03404e-06
1.1759e-05
1.15425e-05
1.12361e-05
1.15263e-05
1.02574e-05
3.5806e-06
3.43573e-06
9.04294e-07
2.69598e-06
2.68479e-06
1.34494e-06
1.15406e-05
1.19268e-06
1.07976e-05
1.15284e-05
1.14689e-05
7.49012e-06
1.05889e-05
1.14308e-05
1.15296e-05
1.15466e-05
4.04398e-06
1.15449e-05
5.56743e-06
2.78292e-07
2.32436e-06
1.15499e-05
1.12435e-05
1.09144e-05
8.67599e-06
1.07471e-05
1.15206e-05
1.15459e-05
9.32458e-06
1.14963e-05
1.07933e-05
2.18648e-06
7.59283e-06
8.82281e-06
2.83275e-06
4.65285e-06
1.14183e-05
1.07906e-05
6.45044e-06
6.58175e-06
1.17427e-05
1.1526e-05
1.11154e-05
7.95762e-06
1.07464e-05
1.15311e-05
1.14937e-05
1.15211e-05
5.38712e-06
1.15306e-05
1.13639e-05
9.28516e-06
1.15264e-05
1.15097e-05
1.39414e-06
6.07814e-06
7.94688e-06
1.15444e-05
1.15282e-05
1.15471e-05
1.06568e-05
4.81594e-06
1.14843e-05
1.06448e-05
1.15262e-05
1.04522e-05
4.47266e-06
9.23547e-07
1.08045e-05
1.10682e-05
8.05545e-06
4.19827e-06
1.11678e-05
1.14934e-05
1.15264e-05
9.65227e-07
1.09117e-05
6.84185e-06
1.14249e-05
6.30869e-06
1.09802e-05
3.81639e-06
1.32068e-06
1.1755e-05
1.14774e-05
6.9427e-06
1.5738e-06
3.36713e-06
1.1228e-05
1.09703e-05
7.33961e-06
4.61845e-06
7.69589e-06
1.69176e-07
1.14978e-05
9.88808e-06
1.15505e-05
1.15023e-05
2.61592e-06
4.0233e-06
1.14724e-05
1.14639e-05
1.48377e-06
7.6112e-07
3.86936e-06
1.12034e-05
5.9919e-06
7.44879e-06
1.15239e-05
1.15278e-05
1.06388e-05
5.71561e-06
1.99103e-06
1.15503e-05
4.48228e-06
1.15488e-05
1.13921e-05
1.15972e-05
1.14898e-05
6.76778e-06
7.4732e-06
4.73348e-06
1.33303e-06
1.3973e-06
1.15322e-05
6.80144e-06
1.13802e-06
1.15529e-05
7.02561e-06
2.56065e-06
2.67671e-06
4.33255e-06
1.15241e-05
5.03057e-06
8.10365e-06
1.15638e-05
6.32617e-06
6.9122e-06
3.90072e-06
1.15223e-05
1.13592e-06
1.61652e-06
6.71546e-07
1.05541e-06
1.14964e-05
1.15301e-05
7.71674e-06
1.40597e-06
2.57537e-06
2.546e-06
1.15238e-05
1.01871e-05
1.15242e-05
1.15524e-05
3.52465e-06
1.14814e-05
1.09871e-05
1.40411e-06
2.65978e-06
7.29305e-06
7.70813e-06
9.11247e-06
3.98393e-06
4.68724e-06
3.13046e-06
3.59779e-06
1.15264e-05
1.07406e-05
4.13727e-06
1.15015e-05
7.22208e-07
3.39896e-06
3.38725e-06
3.39563e-06
1.15221e-05
1.74506e-06
2.58409e-06
1.15206e-05
1.02327e-05
9.93919e-07
1.11213e-05
3.89472e-06
1.15309e-05
1.15471e-05
1.15271e-05
1.15153e-05
2.29618e-06
8.1296e-06
1.15437e-05
6.33765e-06
9.86953e-06
4.98481e-06
3.39767e-06
2.76725e-06
1.15377e-05
1.15495e-05
7.27151e-06
2.45724e-06
7.58451e-06
8.54731e-06
4.45105e-06
1.07414e-05
1.1255e-05
4.26367e-06
1.15227e-05
1.26496e-06
1.15311e-05
4.86032e-06
4.85571e-06
4.85088e-06
4.88419e-07
1.12647e-05
1.15284e-05
1.14391e-05
1.07033e-05
3.63649e-06
1.51822e-06
8.1893e-06
5.83135e-06
1.37025e-06
1.10911e-05
6.42422e-06
1.1482e-05
7.6928e-06
1.15178e-05
1.15309e-05
1.11027e-05
5.70851e-06
1.14178e-05
4.85938e-06
4.21517e-06
5.7027e-06
5.70121e-06
1.1513e-05
1.15266e-05
6.59396e-06
6.32447e-06
6.57426e-06
1.32032e-06
7.57265e-06
8.43519e-06
1.12618e-05
7.77183e-06
5.57173e-06
1.12192e-05
7.16722e-06
9.70859e-06
7.86786e-06
5.7044e-06
5.08377e-06
4.55336e-06
9.91979e-08
1.09291e-05
1.11244e-05
8.07124e-06
8.13297e-06
1.15166e-05
1.15141e-05
7.73715e-06
7.07156e-06
1.09199e-07
5.94269e-06
1.32592e-06
1.16137e-05
7.75553e-06
6.39268e-06
3.02212e-07
4.04782e-06
7.22246e-07
6.72388e-06
1.14921e-05
1.08114e-05
1.15168e-05
1.14907e-05
1.15306e-05
1.56814e-06
1.09645e-06
1.49124e-06
1.47468e-06
1.15323e-05
1.15278e-05
1.13769e-05
6.6774e-06
2.91636e-06
7.08628e-06
1.05211e-05
1.10016e-05
1.12631e-05
1.08633e-05
1.1518e-05
1.1505e-05
1.15172e-05
1.15314e-05
1.08144e-05
1.30204e-06
6.83042e-06
1.12516e-05
1.1098e-05
1.15206e-05
1.07737e-05
1.07818e-05
1.15319e-05
1.14934e-05
1.75902e-06
1.12428e-05
1.14947e-05
7.02604e-07
1.15451e-05
1.69863e-06
1.17443e-05
1.17245e-05
7.39987e-06
9.64022e-06
1.15236e-05
1.07879e-05
1.15382e-05
3.9588e-06
1.14157e-05
1.07986e-05
1.13831e-05
1.00051e-05
1.15133e-05
1.14943e-05
1.06149e-05
1.06431e-05
1.13394e-05
1.15313e-05
6.00346e-06
9.13155e-06
6.85326e-07
1.13451e-05
1.14971e-05
1.85585e-06
1.11747e-05
1.1495e-05
6.13802e-07
1.15154e-05
1.1553e-05
1.15157e-05
1.15313e-05
1.14629e-05
1.0556e-05
8.85806e-06
1.12466e-05
8.61512e-06
1.85397e-06
1.14446e-05
5.8985e-07
1.06096e-05
1.15338e-05
1.14131e-05
1.15282e-05
1.15459e-05
1.12084e-05
8.23544e-06
1.00386e-05
2.27929e-06
1.153e-05
1.088e-05
1.08104e-05
1.41548e-06
8.09021e-06
1.07517e-06
1.02363e-05
1.15168e-05
1.1472e-05
1.15204e-05
1.11463e-05
1.1382e-05
1.15297e-05
1.11343e-05
1.15177e-05
1.15029e-05
1.14145e-05
1.15512e-05
1.15079e-05
1.14862e-05
1.23314e-06
2.86542e-06
1.10514e-05
1.15506e-05
6.10746e-06
1.45841e-06
4.66066e-06
1.126e-05
1.64066e-06
7.70127e-06
1.1513e-05
1.14989e-05
1.06969e-05
4.85324e-06
5.64033e-06
1.44823e-06
1.14121e-05
1.08175e-05
1.15254e-05
8.74878e-06
1.1713e-05
1.52193e-06
1.40378e-06
2.36539e-06
2.02489e-07
1.15248e-05
1.1493e-05
5.70344e-06
1.12563e-05
1.05138e-05
1.15135e-05
1.07144e-05
1.14174e-05
9.70344e-06
1.08821e-05
2.17543e-06
8.5248e-06
1.63642e-06
1.07204e-05
1.16375e-05
1.16489e-05
1.08655e-05
1.15302e-05
1.15168e-05
1.09773e-05
1.18716e-06
8.26843e-06
1.16137e-05
1.12123e-05
3.22205e-06
9.42513e-06
1.10516e-05
7.89807e-06
1.15519e-05
1.14674e-05
1.11514e-05
1.15322e-05
1.11637e-05
1.07122e-05
1.06722e-05
1.08033e-05
8.24914e-06
1.05958e-05
1.1515e-05
2.07011e-06
1.17299e-05
6.86641e-06
9.30281e-06
1.08507e-05
1.13576e-05
1.14938e-05
1.16987e-05
1.10213e-05
1.13846e-05
1.11253e-05
1.06893e-05
1.1216e-05
4.70393e-06
1.10689e-05
1.08439e-05
1.14949e-05
1.06365e-05
7.51354e-06
8.17105e-06
7.78819e-06
1.16952e-05
1.15174e-05
1.14481e-05
1.15292e-05
1.61844e-06
1.07154e-05
1.15322e-05
4.01608e-06
8.03842e-06
1.14719e-05
1.15067e-05
1.07683e-05
1.15257e-05
8.62138e-06
1.06356e-05
1.08359e-05
3.59382e-06
8.6344e-06
1.07758e-05
5.54589e-06
1.15241e-05
1.11439e-05
1.07717e-05
1.08091e-05
8.35381e-06
1.10046e-05
1.08089e-05
1.1088e-05
1.16037e-05
1.1524e-05
1.15015e-05
1.15274e-05
8.61908e-06
8.49125e-06
1.07184e-05
1.14847e-05
8.14216e-06
4.38656e-06
1.13813e-05
1.86973e-06
1.11134e-05
1.15289e-05
7.71772e-06
7.85139e-06
7.71404e-06
1.15032e-05
1.05878e-05
1.05353e-05
1.07994e-05
1.09401e-05
1.15113e-05
1.11708e-05
1.08089e-05
7.60959e-06
1.15299e-05
1.08252e-05
9.5927e-06
6.44925e-06
9.94757e-06
4.52423e-06
1.13656e-05
1.09024e-05
1.15297e-05
1.08027e-05
1.17213e-05
1.12512e-05
8.76762e-07
1.12727e-05
1.14969e-05
1.14118e-05
8.25908e-06
1.12117e-05
1.15284e-05
1.07889e-05
1.07401e-05
1.10966e-05
1.15181e-05
8.31815e-06
1.15224e-05
3.76647e-06
1.15322e-05
1.15105e-05
8.40292e-06
4.26211e-06
4.73303e-06
1.15716e-05
8.19159e-06
1.10098e-05
8.54436e-06
1.11323e-05
1.09422e-05
1.13809e-05
1.5247e-06
1.10302e-05
1.15316e-05
4.3777e-06
1.12504e-05
9.70044e-06
1.08522e-05
7.28158e-06
8.4342e-06
1.07143e-05
1.15298e-05
1.15067e-05
1.10596e-05
1.12129e-05
1.13596e-05
8.44986e-06
7.56242e-06
1.08225e-05
1.10518e-05
6.53487e-06
1.11749e-05
1.15084e-05
1.13942e-05
5.71807e-07
1.10067e-05
1.10489e-05
7.26988e-06
1.12775e-05
1.15116e-05
1.15373e-05
1.11079e-05
7.60587e-06
1.14733e-05
1.12296e-05
1.14716e-05
8.42324e-06
1.1485e-05
8.90274e-06
1.11222e-05
1.10858e-05
1.15267e-05
3.01526e-06
8.20492e-06
7.03409e-07
4.7648e-06
1.12372e-05
7.54338e-06
1.14889e-05
1.0675e-05
4.58934e-06
2.00343e-06
1.17339e-05
1.1254e-05
1.15378e-05
1.13214e-05
4.12623e-06
8.65127e-06
9.48422e-06
1.15371e-05
1.15333e-05
1.11932e-05
1.16597e-05
1.15092e-05
3.28841e-06
1.11321e-05
2.79546e-06
9.06306e-06
1.0868e-05
8.48076e-06
1.08006e-05
1.15236e-05
1.12007e-05
1.05784e-05
2.58787e-06
2.54045e-06
1.10443e-05
1.11878e-05
1.14536e-05
1.15186e-05
1.14021e-05
1.15143e-05
1.13676e-05
8.12034e-06
1.15852e-05
1.15275e-05
1.94916e-06
3.65008e-06
1.09632e-05
1.11501e-05
1.00544e-06
1.15381e-05
1.14138e-05
7.51882e-06
1.14918e-05
9.3189e-06
1.10379e-05
9.48081e-06
1.13798e-05
1.15097e-05
3.88545e-06
8.91457e-06
1.10932e-05
4.25583e-06
1.13347e-05
9.92867e-06
8.3164e-06
8.58094e-06
1.14177e-05
1.14014e-05
1.0743e-05
1.13543e-05
1.1263e-05
7.75734e-06
1.15317e-05
1.15208e-05
1.10383e-05
1.07403e-06
5.11092e-06
7.46453e-06
7.44055e-07
1.12927e-05
1.14965e-05
8.92761e-06
8.63474e-06
1.11545e-05
1.0501e-05
1.13973e-05
1.14788e-05
1.10577e-05
1.12652e-05
9.21569e-06
1.36594e-06
1.15114e-05
7.9669e-06
1.15154e-05
7.98928e-06
8.05276e-06
1.14411e-05
1.12536e-05
1.12417e-05
1.15487e-05
1.1206e-05
1.15216e-05
1.14201e-05
1.14182e-05
1.08448e-05
8.48502e-07
1.15079e-05
1.1669e-05
1.15266e-05
1.01417e-05
1.15975e-05
7.59691e-06
7.40718e-06
1.147e-05
1.11918e-05
1.12934e-05
1.12227e-05
1.14499e-05
9.5202e-06
1.1499e-05
1.15831e-05
1.15131e-05
1.15202e-05
1.14286e-05
1.15107e-05
1.10348e-05
1.14794e-05
1.16637e-05
1.14728e-05
8.9117e-06
8.17951e-06
1.13835e-05
1.1735e-05
1.15371e-05
1.1426e-05
1.15088e-05
1.15093e-05
1.13845e-05
1.1707e-05
1.1547e-05
8.8041e-06
1.15284e-05
8.51194e-06
1.14905e-05
1.15485e-05
1.13726e-05
1.14395e-05
1.0901e-05
1.15846e-05
8.33943e-06
1.1284e-05
1.10995e-05
1.14095e-05
1.07642e-05
1.1651e-05
1.16274e-05
1.14877e-05
8.37634e-06
8.67426e-06
1.10909e-05
1.09241e-05
1.15364e-05
1.12611e-05
9.27162e-06
7.90959e-06
1.14285e-05
1.14766e-05
1.73068e-06
9.98054e-06
1.13871e-05
1.15052e-05
9.04867e-06
1.13028e-05
8.01723e-06
1.15019e-05
1.15022e-05
1.15052e-05
8.25223e-06
1.1547e-05
1.15134e-05
1.15118e-05
1.13116e-05
8.27031e-06
1.13985e-05
1.1502e-05
7.00005e-07
8.64221e-06
2.65606e-06
1.154e-05
1.1544e-05
1.15094e-05
1.15121e-05
1.14576e-05
1.15152e-05
1.08543e-05
1.1099e-05
1.14979e-05
1.13465e-05
8.05016e-06
1.12372e-05
1.13494e-05
1.15095e-05
1.13755e-06
1.14899e-05
1.15026e-05
1.1489e-05
1.16624e-05
1.13911e-05
1.15127e-05
1.1425e-05
1.87539e-06
1.15093e-05
1.18678e-05
1.14993e-05
1.15294e-05
1.15274e-05
1.15084e-05
3.76899e-06
1.14618e-05
1.10259e-05
8.52019e-06
1.17448e-05
1.1499e-05
1.15361e-05
1.141e-05
1.13012e-05
1.15035e-05
1.15296e-05
1.15122e-05
1.15395e-05
1.13687e-05
8.82011e-06
1.15202e-05
1.1507e-05
1.15064e-05
1.12468e-05
1.14753e-05
1.1497e-05
1.15191e-05
1.1524e-05
1.15483e-05
1.15049e-05
1.08323e-05
8.86779e-06
1.15146e-05
1.16424e-05
1.14513e-05
8.20757e-06
1.14841e-05
1.15126e-05
1.15188e-05
1.1532e-05
1.152e-05
1.13599e-05
1.15107e-05
1.1414e-05
1.14549e-05
6.41954e-06
1.18192e-05
1.14837e-05
7.7859e-06
1.14606e-05
1.08726e-05
1.15188e-05
1.14533e-05
1.15092e-05
9.70304e-06
1.15301e-05
1.15293e-05
1.14965e-05
6.60749e-06
1.15165e-05
1.15307e-05
8.26204e-06
1.14931e-05
1.15142e-05
1.15084e-05
1.14886e-05
1.14972e-05
1.15295e-05
1.14047e-05
1.15142e-05
1.13432e-05
4.63047e-06
7.73342e-06
1.1518e-05
1.15051e-05
1.151e-05
1.15196e-05
4.00941e-06
1.13138e-05
1.15373e-05
1.12671e-05
1.15197e-05
7.79429e-06
1.15188e-05
1.15134e-05
1.143e-05
1.15363e-05
1.08374e-05
1.15287e-05
1.13041e-05
7.13873e-06
3.16399e-06
1.1516e-05
1.14618e-05
1.15001e-05
1.15006e-05
1.15401e-05
6.19632e-06
1.14243e-05
1.14986e-05
7.83614e-06
1.14455e-05
1.15046e-05
1.15595e-05
1.14632e-05
1.15158e-05
1.14835e-05
2.41304e-06
1.15235e-05
1.17215e-05
8.901e-06
1.07253e-05
8.04706e-06
7.39946e-06
1.15364e-05
1.15124e-05
1.15132e-05
1.15382e-05
1.15005e-05
8.63857e-06
6.93678e-06
1.16028e-05
1.15116e-05
1.15251e-05
7.92336e-06
1.15073e-05
1.15056e-05
1.14705e-05
1.15112e-05
1.15304e-05
1.15313e-05
1.15172e-05
1.15318e-05
1.18488e-05
8.38525e-06
1.16627e-05
1.15131e-05
8.39019e-06
1.15115e-05
1.16316e-05
1.15399e-05
1.16637e-05
1.15223e-05
5.96314e-06
1.14781e-05
1.15365e-05
1.15143e-05
1.15965e-05
1.16331e-05
7.75746e-06
1.15128e-05
1.15316e-05
1.16093e-05
1.1833e-05
1.15171e-05
1.15325e-05
1.1528e-05
1.15133e-05
1.15146e-05
1.15327e-05
1.15322e-05
8.06911e-06
8.9254e-06
1.15343e-05
8.60736e-06
1.146e-05
1.15064e-05
1.15146e-05
1.15353e-05
8.68538e-06
4.97489e-06
1.15185e-05
1.16238e-05
1.15084e-05
1.14846e-05
1.15221e-05
1.15309e-05
1.14918e-05
7.79013e-06
1.14745e-05
1.15132e-05
1.14297e-05
8.3062e-06
1.15289e-05
8.26614e-06
1.15541e-05
1.163e-05
1.15121e-05
1.15092e-05
1.15365e-05
1.14866e-05
1.1524e-05
1.15068e-05
1.14824e-05
1.15067e-05
1.15149e-05
1.14757e-05
1.1514e-05
8.78754e-06
1.15184e-05
1.15303e-05
1.15018e-05
1.14804e-05
1.15106e-05
1.15156e-05
1.14979e-05
1.15185e-05
2.42005e-06
1.15075e-05
1.15131e-05
1.14926e-05
1.15032e-05
1.15391e-05
1.14653e-05
1.16151e-05
7.89818e-06
1.15257e-05
1.15006e-05
1.15128e-05
8.38793e-06
1.15163e-05
1.14952e-05
-3.90997e-08
1.15267e-05
1.15984e-05
1.14848e-05
1.14876e-05
1.15381e-05
3.27455e-06
6.06074e-06
1.16777e-05
1.14501e-05
1.16927e-05
7.61475e-06
1.14715e-05
4.26255e-06
1.15012e-05
1.14416e-05
1.15164e-05
1.15406e-05
7.68858e-06
1.16193e-05
8.18216e-06
1.14697e-05
8.31458e-06
1.16368e-05
1.15083e-05
1.15095e-05
1.15915e-05
1.15332e-05
1.15192e-05
1.12097e-05
1.14786e-05
1.15067e-05
1.15219e-05
1.08456e-05
1.15344e-05
1.18316e-05
1.1531e-05
1.15187e-05
1.14993e-05
7.85013e-06
1.15135e-05
1.15336e-05
1.15139e-05
1.08753e-05
1.14782e-05
1.1625e-05
8.05996e-06
8.14673e-06
4.73768e-06
1.15214e-05
1.15413e-05
8.04579e-06
1.14869e-05
1.15206e-05
1.14199e-05
1.15199e-05
1.15284e-05
1.15194e-05
1.16589e-05
1.16531e-05
1.15322e-05
1.14905e-05
1.15121e-05
1.15214e-05
1.15106e-05
1.15671e-05
1.14772e-05
1.15088e-05
1.15331e-05
8.36353e-06
1.11855e-05
1.16127e-05
1.15482e-05
1.14955e-05
6.85661e-06
5.58655e-06
1.15382e-05
1.15179e-05
1.14775e-05
1.14822e-05
1.15023e-05
8.032e-06
1.15128e-05
1.14997e-05
8.14628e-06
1.14409e-05
1.15084e-05
1.15371e-05
1.14823e-05
1.15413e-05
1.15683e-05
4.01379e-06
4.03465e-06
1.18844e-05
1.14923e-05
1.15332e-05
1.1525e-05
8.20068e-06
1.15109e-05
1.15049e-05
1.15733e-05
1.15419e-05
1.17879e-05
1.15284e-05
1.15336e-05
3.77236e-06
8.07945e-06
1.27101e-06
1.15315e-05
1.15157e-05
2.45079e-06
1.15014e-05
8.26406e-06
1.15343e-05
6.81719e-06
1.16232e-05
1.15308e-05
1.12598e-05
1.15143e-05
8.39285e-06
8.17387e-06
7.60885e-06
1.14973e-05
1.15379e-05
1.15431e-05
1.15234e-05
1.1511e-05
1.16277e-05
8.3818e-06
1.15343e-05
1.15117e-05
1.15144e-05
1.14841e-05
1.15121e-05
4.15028e-06
1.1507e-05
1.1532e-05
1.15181e-05
1.15251e-05
1.15269e-05
7.63725e-06
1.18178e-05
1.17901e-05
1.14856e-05
1.15249e-05
1.15414e-05
1.15325e-05
1.15283e-05
6.96068e-06
1.14466e-05
1.14909e-05
1.16426e-05
1.15342e-05
1.15207e-05
1.15107e-05
1.11589e-05
1.15083e-05
6.66792e-06
7.27343e-06
1.15296e-05
1.15369e-05
1.14115e-05
1.1507e-05
1.1511e-05
1.15031e-05
1.14797e-05
2.96956e-06
1.15261e-05
1.15306e-05
7.33797e-06
1.15149e-05
7.21997e-06
1.15139e-05
1.09969e-05
1.1511e-05
1.15266e-05
1.15339e-05
7.93287e-06
1.15132e-05
1.14913e-05
1.15132e-05
1.16864e-05
1.15418e-05
1.15158e-05
1.15456e-05
1.15272e-05
7.40334e-06
1.15363e-05
1.15232e-05
1.1523e-05
1.15111e-05
1.15145e-05
1.15105e-05
4.50468e-06
7.19131e-06
1.1507e-05
7.62714e-06
1.15324e-05
1.15135e-05
1.15299e-05
1.15244e-05
1.15249e-05
1.15074e-05
1.16575e-05
1.15883e-05
1.15272e-05
1.15304e-05
1.16262e-05
1.14665e-05
9.03305e-06
1.15424e-05
1.14814e-05
1.15861e-05
1.16107e-05
1.15274e-05
1.15252e-05
1.15374e-05
1.14514e-05
7.42474e-06
1.15178e-05
1.15297e-05
7.53865e-06
1.1526e-05
7.43095e-06
1.15437e-05
1.15302e-05
1.15126e-05
1.15232e-05
1.15001e-05
1.15379e-05
5.8462e-06
1.16592e-05
1.15428e-05
1.1488e-05
1.15097e-05
1.14687e-05
1.15266e-05
1.14386e-05
1.15306e-05
1.15106e-05
1.15339e-05
7.04763e-06
1.15299e-05
1.15816e-05
1.1489e-05
1.15382e-05
7.50552e-06
1.15383e-05
1.15054e-05
1.15916e-05
1.15532e-05
1.13887e-05
7.56197e-06
1.15331e-05
1.15401e-05
1.14081e-05
1.15258e-05
1.1527e-05
1.1532e-05
7.83464e-06
1.15263e-05
1.15095e-05
7.2377e-06
1.14956e-05
1.15314e-05
1.15189e-05
1.15096e-05
1.14948e-05
1.15647e-05
1.16128e-05
7.31043e-06
7.42332e-06
1.13623e-05
1.21695e-06
1.17823e-05
1.15259e-05
1.15107e-05
1.15519e-05
7.52516e-06
1.15631e-05
1.15002e-05
1.15264e-05
1.1512e-05
1.15223e-05
7.65201e-06
7.85775e-06
7.34117e-06
7.18218e-06
7.13079e-06
1.39506e-06
3.26379e-06
1.15312e-05
1.15319e-05
7.07398e-06
7.02593e-06
7.17368e-06
1.15277e-05
1.14791e-05
1.15404e-05
1.15101e-05
1.15251e-05
1.15301e-05
1.15325e-05
1.15372e-05
1.15226e-05
1.15292e-05
1.15243e-05
1.15299e-05
4.73046e-06
1.15258e-05
1.15335e-05
1.15285e-05
1.1531e-05
1.15289e-05
1.15266e-05
7.51651e-06
1.07931e-05
1.15317e-05
1.17656e-05
1.17765e-05
1.15486e-05
6.89834e-06
1.15566e-05
1.15306e-05
5.58001e-06
1.1501e-05
1.15362e-05
7.40263e-06
7.31e-06
7.56801e-06
7.66953e-06
6.96216e-06
1.15471e-05
1.15183e-05
1.15387e-05
1.16032e-05
1.15304e-05
1.15271e-05
1.15164e-05
7.0264e-06
6.8998e-06
1.15955e-05
1.15408e-05
1.15245e-05
1.15331e-05
1.15382e-05
7.74782e-06
7.15368e-06
7.07391e-06
1.15302e-05
1.15265e-05
1.1753e-05
1.15314e-05
1.16794e-05
1.15088e-05
8.19098e-06
1.15029e-05
1.15383e-05
6.44874e-06
7.00109e-06
7.22805e-06
1.15225e-05
1.08803e-05
1.15233e-05
1.54116e-06
6.74062e-06
7.76351e-06
1.1544e-05
1.14895e-05
7.11599e-06
1.15146e-05
7.27294e-06
1.15155e-05
1.1457e-05
1.15312e-05
6.83895e-06
1.15621e-05
1.14438e-05
1.15362e-05
1.1542e-05
1.15379e-05
6.46612e-06
1.15316e-05
7.30373e-06
1.15344e-05
1.15059e-05
1.16133e-05
7.40223e-06
1.15301e-05
6.89432e-06
1.15163e-05
1.15821e-05
7.21529e-06
1.15202e-05
6.76145e-06
1.15458e-05
6.70331e-06
7.4621e-06
1.15073e-05
1.1534e-05
7.13531e-06
7.3608e-06
7.43815e-06
7.40845e-06
1.15327e-05
1.14783e-05
1.15276e-05
6.63933e-06
1.15115e-05
1.51605e-06
1.15393e-05
7.30165e-06
1.15042e-05
7.09779e-06
6.82446e-06
2.35341e-06
6.76925e-06
6.7146e-06
1.15177e-05
7.34436e-06
7.28241e-06
2.80094e-06
6.84556e-06
7.01064e-06
6.78861e-06
7.36921e-06
1.15192e-05
7.38306e-06
1.15374e-05
7.25166e-06
7.41402e-06
7.22449e-06
5.29557e-06
1.15441e-05
5.41006e-06
6.62988e-06
7.10271e-06
6.0898e-06
7.28103e-06
1.15342e-05
5.96592e-06
6.59275e-06
5.80842e-06
1.14854e-05
7.14904e-06
6.85634e-06
7.20021e-06
6.88838e-06
6.98447e-06
4.04098e-06
4.10888e-06
6.20632e-06
7.44298e-06
6.80345e-06
5.95281e-06
6.72384e-06
6.9891e-06
7.51572e-06
6.46748e-06
6.20683e-06
5.94058e-06
5.68579e-06
7.01029e-06
6.76411e-06
6.9864e-06
1.15436e-05
6.926e-06
7.05768e-06
6.59882e-06
6.88685e-06
7.08659e-06
6.26273e-06
6.42345e-06
7.15745e-06
7.25082e-06
6.92579e-06
6.65914e-06
6.33623e-06
6.63824e-06
5.99981e-06
6.07148e-06
1.15252e-05
6.7308e-06
3.14821e-06
6.53959e-06
6.4988e-06
6.36791e-06
5.87706e-06
5.58003e-06
1.15295e-05
6.22679e-06
4.60522e-06
6.17149e-06
6.51097e-06
6.46265e-06
6.69976e-06
5.46169e-06
6.29939e-06
6.69804e-06
6.3936e-06
6.79396e-06
6.81456e-06
6.77962e-06
7.51825e-06
6.12876e-06
6.80497e-06
6.5155e-06
6.05605e-06
6.54871e-06
6.22783e-06
6.04857e-06
6.76306e-06
6.53676e-06
6.31016e-06
6.32883e-06
6.424e-06
6.08035e-06
6.40561e-06
6.39474e-06
5.83137e-06
6.66132e-06
5.9304e-06
6.08418e-06
7.29973e-06
5.73275e-06
6.15393e-06
5.93698e-06
6.57681e-06
6.26732e-06
6.34047e-06
6.12374e-06
1.15227e-05
6.32475e-06
6.20523e-06
6.09713e-06
6.06379e-06
5.95837e-06
6.09613e-06
5.81845e-06
6.50868e-06
6.50185e-06
6.19323e-06
5.86529e-06
6.17956e-06
1.15471e-05
6.07797e-06
7.28069e-06
6.08986e-06
5.96176e-06
5.71031e-06
5.60219e-06
6.20193e-06
6.0839e-06
5.64753e-06
6.04173e-06
5.98636e-06
6.29062e-06
5.98139e-06
6.04291e-06
5.9309e-06
5.83247e-06
5.75913e-06
6.07945e-06
5.95269e-06
6.22626e-06
5.53739e-06
6.02231e-06
6.00444e-06
6.05379e-06
5.37954e-06
5.47991e-06
5.82963e-06
5.42367e-06
5.61008e-06
5.97126e-06
5.75381e-06
5.95443e-06
5.94988e-06
5.82559e-06
6.07359e-06
6.9488e-06
5.40325e-06
5.89583e-06
5.89326e-06
5.51304e-06
5.7975e-06
5.27862e-06
5.8807e-06
5.70299e-06
5.48912e-06
6.1797e-06
5.3053e-06
5.31805e-06
5.69511e-06
5.68905e-06
3.82821e-06
5.44075e-06
5.66325e-06
5.18576e-06
5.41246e-06
5.36986e-06
5.76899e-06
5.49172e-06
5.59611e-06
5.5981e-06
5.82643e-06
5.78276e-06
4.92125e-06
5.07031e-06
5.4653e-06
5.54244e-06
5.61403e-06
5.97594e-06
5.12674e-06
5.0233e-06
5.37831e-06
4.56643e-06
5.42438e-06
5.50085e-06
5.30969e-06
5.26369e-06
4.32381e-06
4.68177e-06
4.76064e-06
5.16549e-06
5.39082e-06
4.96215e-06
4.98355e-06
5.29589e-06
5.06306e-06
5.40436e-06
5.04809e-06
5.41247e-06
5.23463e-06
4.81275e-06
5.26738e-06
4.83876e-06
4.69678e-06
4.61592e-06
5.16206e-06
5.18013e-06
4.96771e-06
5.2581e-06
5.17199e-06
5.14324e-06
4.86141e-06
5.2448e-06
4.7234e-06
4.80459e-06
5.26418e-06
4.72196e-06
4.89787e-06
5.13901e-06
4.8511e-06
5.29848e-06
4.44876e-06
4.935e-06
5.51321e-06
5.07089e-06
5.13337e-06
5.02243e-06
4.61654e-06
5.08233e-06
4.4942e-06
4.68853e-06
4.81991e-06
4.97252e-06
5.21278e-06
4.91541e-06
4.71367e-06
4.61221e-06
5.00388e-06
4.84814e-06
4.98207e-06
6.84086e-06
4.49434e-06
4.85635e-06
1.46943e-06
1.52551e-06
4.82637e-06
4.75363e-06
4.55204e-06
4.5138e-06
4.88549e-06
4.76754e-06
3.73437e-06
4.6029e-06
4.81254e-06
4.93111e-06
4.37203e-06
4.77911e-06
5.33521e-06
4.37731e-06
4.68728e-06
5.06934e-06
4.71314e-06
4.26401e-06
4.61779e-06
4.43561e-06
4.8991e-06
4.72771e-06
4.18096e-06
4.81415e-06
4.59592e-06
3.88847e-06
4.74814e-06
4.09135e-06
4.51864e-06
4.58257e-06
4.39823e-06
4.59437e-06
3.80197e-06
6.4677e-06
4.52137e-06
4.0673e-06
4.37821e-06
4.2443e-06
4.50464e-06
3.80726e-06
3.94219e-06
4.24245e-06
3.93636e-06
4.01503e-06
4.4145e-06
4.29923e-06
4.32814e-06
3.99876e-06
4.33648e-06
4.16899e-06
3.91059e-06
4.53997e-06
4.29178e-06
4.37327e-06
4.24672e-06
3.83181e-06
4.18625e-06
4.26006e-06
4.2131e-06
4.10058e-06
4.41092e-06
4.01304e-06
3.69693e-06
4.30902e-06
3.97623e-06
4.0841e-06
4.19658e-06
2.71972e-06
3.76365e-06
3.97274e-06
4.13498e-06
4.02644e-06
4.1827e-06
4.63479e-06
3.1724e-06
3.90189e-06
3.55687e-06
3.6518e-06
4.08811e-06
4.12231e-06
3.98383e-06
3.88608e-06
3.90001e-06
3.91201e-06
3.58879e-06
3.79128e-06
3.6059e-06
3.09419e-06
2.68852e-06
3.29263e-06
2.81477e-06
4.9248e-06
3.42163e-06
3.84604e-06
2.9899e-06
3.79149e-06
3.74692e-06
3.65432e-06
3.16439e-06
2.88015e-06
3.6778e-06
3.87323e-06
3.66429e-06
3.50315e-06
3.13273e-06
3.77882e-06
2.4435e-06
3.41423e-06
2.56069e-06
3.70424e-06
3.37599e-06
2.95862e-06
3.68084e-06
3.76762e-06
3.52792e-06
3.67713e-06
3.64312e-06
3.35892e-06
3.23223e-06
3.80522e-06
3.38569e-06
2.32246e-06
2.74646e-06
3.46449e-06
3.64992e-06
3.56009e-06
3.55583e-06
3.49447e-06
3.23835e-06
2.92321e-06
3.28973e-06
2.82057e-06
3.11186e-06
3.03552e-06
3.22125e-06
3.41301e-06
3.04392e-06
3.22911e-06
3.28069e-06
3.31278e-06
4.48235e-06
3.56487e-06
3.46695e-06
3.00127e-06
3.51466e-06
3.90123e-06
3.40929e-06
3.5348e-06
3.41681e-06
3.14161e-06
3.06288e-06
2.91803e-06
3.31661e-06
3.10815e-06
3.04059e-06
3.37168e-06
3.63947e-06
3.21231e-06
3.01066e-06
2.61173e-06
3.15654e-06
3.49858e-06
3.30652e-06
2.71918e-06
3.12773e-06
3.03083e-06
3.18469e-06
3.41932e-06
3.02982e-06
2.9002e-06
2.82255e-06
2.66333e-06
3.1064e-06
2.30698e-06
2.40631e-06
3.00135e-06
2.82058e-06
2.79442e-06
3.30008e-06
2.52743e-06
2.58913e-06
3.07454e-06
3.10966e-06
2.89379e-06
2.75928e-06
2.56373e-06
2.7222e-06
2.91682e-06
2.48884e-06
2.5821e-06
2.61625e-06
2.97707e-06
2.81295e-06
2.929e-06
2.17717e-06
2.5737e-06
2.68383e-06
2.47625e-06
2.37354e-06
4.04904e-06
2.82147e-06
2.66433e-06
2.65094e-06
2.8626e-06
2.92952e-06
2.33633e-06
2.903e-06
2.67758e-06
2.7208e-06
2.25081e-06
2.28159e-06
2.43784e-06
2.57159e-06
2.72799e-06
2.6784e-06
2.43647e-06
2.79003e-06
2.21429e-06
2.82395e-06
2.12457e-06
2.67376e-06
1.81889e-06
2.37182e-06
2.33942e-06
2.02185e-06
2.12868e-06
2.48396e-06
2.01881e-06
1.99076e-06
3.45517e-06
2.30515e-06
2.47135e-06
2.14907e-06
2.1508e-06
1.86675e-06
1.92653e-06
1.94552e-06
2.14849e-06
1.95049e-06
2.25886e-06
2.0058e-06
2.00323e-06
1.9425e-06
2.05281e-06
2.21075e-06
1.74229e-06
1.72985e-06
1.92281e-06
1.72015e-06
2.15206e-06
1.7734e-06
1.86453e-06
2.25564e-06
2.09275e-06
1.69238e-06
1.61891e-06
2.07006e-06
1.74249e-06
1.82445e-06
2.03482e-06
1.67518e-06
1.49676e-06
1.82937e-06
1.60034e-06
1.70852e-06
1.62756e-06
1.80397e-06
1.3757e-06
1.62438e-06
1.44605e-06
1.6505e-06
1.9662e-06
1.44587e-06
1.89835e-06
1.84722e-06
1.3371e-06
1.99562e-06
1.49048e-06
4.43531e-06
1.69656e-06
2.36957e-06
1.62507e-06
1.5527e-06
1.56079e-06
5.27051e-06
4.09996e-06
3.82531e-06
2.68137e-06
1.78845e-06
2.23447e-06
1.1794e-06
1.45473e-06
1.38762e-06
2.43974e-06
1.22865e-06
1.72224e-06
6.45385e-06
2.81195e-06
3.43807e-06
2.51925e-06
1.75602e-06
3.8564e-06
4.24605e-06
3.94901e-06
2.80664e-06
2.14438e-06
5.7178e-06
2.07471e-06
5.13445e-06
1.52e-06
1.34123e-06
1.58441e-06
5.8902e-06
1.6134e-06
7.51021e-06
3.26693e-06
3.32699e-06
3.55683e-06
3.51951e-06
5.79402e-06
3.70802e-06
2.67817e-06
2.67755e-06
3.59467e-06
3.75203e-06
3.74493e-06
1.28529e-06
4.97299e-06
4.92807e-06
2.46319e-06
6.16334e-06
3.79625e-06
6.72508e-07
2.95926e-06
1.45707e-06
4.18663e-06
7.60071e-06
7.85509e-06
2.37866e-06
1.83017e-06
1.66826e-06
5.33372e-06
1.86323e-06
5.3115e-06
1.61186e-06
5.8712e-06
6.07338e-06
2.26092e-06
7.95947e-06
1.4317e-06
1.51772e-06
4.08841e-06
6.24304e-06
4.73663e-06
5.10087e-06
5.42818e-06
6.33208e-06
2.84575e-06
8.48904e-06
1.51305e-06
4.31209e-06
1.66914e-06
7.40254e-06
7.62107e-06
1.48768e-06
7.89987e-07
7.6713e-06
6.11461e-06
6.21884e-06
6.43666e-06
7.58543e-06
9.04105e-07
9.99777e-07
5.22049e-06
5.82411e-06
7.7185e-06
6.2371e-06
1.59279e-06
4.39794e-06
7.8807e-06
5.69325e-06
1.54938e-06
5.58005e-06
8.1562e-06
6.54952e-06
8.42303e-06
3.4943e-06
2.22305e-06
2.11075e-06
1.52305e-06
7.34891e-06
7.2133e-06
6.30753e-06
1.25519e-06
1.35628e-06
2.01313e-06
7.56997e-06
1.33309e-06
1.59623e-06
1.5784e-06
2.1433e-06
2.62771e-06
1.55931e-06
1.44995e-06
2.67001e-06
1.56552e-06
1.72469e-06
2.16662e-06
1.8972e-06
2.52024e-06
1.72388e-06
2.15642e-06
2.54529e-06
1.90363e-06
2.24069e-06
2.07457e-06
2.75401e-06
2.52302e-06
2.099e-06
2.1152e-06
2.07218e-06
2.24253e-06
3.12253e-06
2.1995e-06
3.34161e-06
2.04415e-06
2.18201e-06
2.26377e-06
2.02933e-06
3.37193e-06
2.19574e-06
2.96705e-06
2.36504e-06
2.37761e-06
3.26685e-06
2.41959e-06
3.53744e-06
3.9919e-06
3.11034e-06
2.48321e-06
3.88661e-06
3.55594e-06
3.61063e-06
3.62986e-06
3.38161e-06
3.27325e-06
3.4728e-06
2.56193e-06
3.50003e-06
3.24506e-06
3.43533e-06
2.50808e-06
3.48485e-06
4.40701e-06
3.59977e-06
3.71673e-06
3.77631e-06
3.41446e-06
4.461e-06
3.50048e-06
3.67319e-06
3.80783e-06
4.13882e-06
3.70021e-06
3.53202e-06
4.23837e-06
4.8272e-06
4.14061e-06
4.44958e-06
4.38706e-06
5.16301e-06
4.25756e-06
4.51714e-06
3.54002e-06
5.12849e-06
4.34735e-06
4.64181e-06
4.78359e-06
4.30908e-06
4.69319e-06
4.97923e-06
5.43805e-06
4.81228e-06
4.92821e-06
5.03777e-06
5.81871e-06
5.10468e-06
4.93965e-06
5.36669e-06
5.78791e-06
5.41218e-06
4.9985e-06
4.93627e-06
4.87611e-06
5.68388e-06
5.51727e-06
5.01913e-06
4.95113e-06
5.05534e-06
5.50319e-06
5.13977e-06
5.59256e-06
5.07035e-06
5.72083e-06
5.1834e-06
5.91606e-06
5.69468e-06
5.59129e-06
6.42325e-06
5.81785e-06
5.88104e-06
5.94024e-06
6.27549e-06
5.88816e-06
5.19601e-06
6.65672e-06
5.79529e-06
1.15456e-05
6.14987e-06
6.96279e-06
6.19676e-06
6.80034e-06
6.87623e-06
1.15114e-05
6.40786e-06
6.99485e-06
7.12233e-06
1.40951e-06
6.43394e-06
6.66437e-06
1.15324e-05
7.18895e-06
7.06889e-06
7.42644e-06