/*--------------------------------*- C++ -*----------------------------------*\
  =========                 |
  \\      /  F ield         | OpenFOAM: The Open Source CFD Toolbox
   \\    /   O peration     | Website:  https://openfoam.org
    \\  /    A nd           | Version:  8
     \\/     M anipulation  |
\*---------------------------------------------------------------------------*/
FoamFile
{
    version     2.0;
    format      ascii;
    class       volScalarField;
    location    "4";
    object      p;
}
// * * * * * * * * * * * * * * * * * * * * * * * * * * * * * * * * * * * * * //

dimensions      [0 2 -2 0 0 0 0];

internalField   nonuniform List<scalar> 
3080
(
4.67193e-05
4.41954e-05
4.66144e-05
4.67261e-05
4.55951e-05
4.65611e-05
4.65711e-05
2.88593e-05
4.65685e-05
4.67388e-05
4.67395e-05
4.67681e-05
4.3031e-05
4.53485e-05
4.67434e-05
4.47268e-05
4.66724e-05
4.66455e-05
4.67331e-05
4.62912e-05
3.26921e-05
4.62784e-05
4.60389e-05
2.94779e-05
4.57136e-05
4.4864e-05
4.65072e-05
4.49263e-05
4.6727e-05
4.51028e-05
4.03942e-05
3.12614e-05
4.46824e-05
3.17418e-05
3.63066e-05
4.68241e-05
4.63979e-05
3.72881e-05
4.66217e-05
4.50567e-05
4.67017e-05
4.66469e-05
4.68478e-05
4.66587e-05
4.48512e-05
4.67414e-05
4.6506e-05
4.67203e-05
4.66815e-05
4.43643e-05
4.66514e-05
3.86905e-05
4.60667e-05
4.65991e-05
4.50994e-05
4.66343e-05
4.66026e-05
3.83293e-06
3.69554e-05
4.66235e-05
4.24391e-06
4.54368e-06
5.62767e-06
4.66829e-05
5.28865e-06
5.65377e-06
4.66085e-05
4.66035e-05
3.0887e-06
7.46647e-06
4.65809e-05
4.86194e-06
3.43943e-05
9.31966e-06
4.6678e-05
3.34245e-05
4.66704e-05
6.69546e-06
4.66234e-05
4.66792e-05
4.44483e-05
4.6607e-05
1.11761e-05
4.01656e-05
4.62879e-05
8.54454e-06
4.64224e-05
1.29071e-05
1.37438e-05
4.64489e-05
1.03991e-05
1.30336e-05
1.94458e-06
1.18377e-05
1.26092e-05
4.6591e-05
1.22551e-05
1.46717e-05
1.56166e-05
4.66185e-05
4.65758e-05
3.56522e-06
3.81932e-06
3.35975e-05
4.63583e-05
4.53656e-05
4.66593e-05
1.41155e-05
1.36013e-05
1.44816e-05
1.6439e-05
1.74922e-05
4.6645e-05
6.45208e-06
6.8902e-06
2.98394e-05
4.633e-05
2.48544e-06
2.66282e-06
1.53673e-05
1.6356e-05
4.66693e-05
4.63887e-05
7.62264e-06
8.13329e-06
4.66886e-05
4.66788e-05
1.93743e-05
2.06087e-05
4.48723e-05
8.79648e-06
9.37989e-06
4.65601e-05
9.97335e-06
1.06291e-05
4.6739e-05
4.65188e-05
4.67075e-05
2.11386e-05
2.24832e-05
2.09248e-05
1.98454e-05
4.66608e-05
1.11463e-05
1.18746e-05
4.45642e-05
4.66753e-05
1.83079e-05
1.94775e-05
4.81788e-06
5.15421e-06
4.66961e-05
4.65658e-05
4.65118e-05
4.6685e-05
2.2903e-05
2.43605e-05
3.54639e-05
4.42197e-06
4.65409e-05
2.278e-05
2.47912e-05
2.63577e-05
4.51426e-05
2.67727e-06
2.16999e-05
4.67127e-05
4.65526e-05
6.24084e-06
2.00718e-05
2.13507e-05
4.6486e-05
2.91038e-05
2.46456e-05
3.65014e-05
8.08562e-06
2.82578e-05
2.66011e-05
4.669e-05
4.33962e-07
4.36843e-07
4.11318e-07
1.53538e-05
2.3553e-05
3.33706e-05
4.65358e-05
2.65134e-05
9.94027e-06
2.18291e-05
2.32238e-05
4.66085e-05
1.65929e-05
4.6324e-05
3.11359e-05
4.6665e-05
1.76109e-05
1.87366e-05
4.66523e-05
2.53898e-05
2.69908e-05
3.12304e-06
3.3498e-06
1.17984e-05
3.00854e-05
1.78315e-05
2.59253e-05
2.74985e-05
2.54111e-05
2.84396e-05
4.66714e-05
1.24288e-05
1.32366e-05
4.62199e-05
4.66938e-05
4.48233e-05
4.65852e-05
1.90667e-05
2.88971e-05
2.71683e-05
1.3655e-05
5.975e-06
6.3843e-06
2.93497e-05
1.41942e-05
1.51107e-05
4.63176e-05
4.60063e-05
4.6444e-05
7.14178e-06
7.62382e-06
3.17637e-05
4.63709e-05
3.05239e-05
2.72596e-05
4.63557e-05
3.08398e-05
3.03596e-05
8.31405e-06
8.86867e-06
4.67234e-05
1.59595e-05
1.69843e-05
4.64306e-05
2.85923e-05
9.67902e-07
9.15543e-07
9.89664e-07
2.90827e-05
4.67407e-05
9.48776e-06
1.01147e-05
4.25068e-05
2.68588e-05
2.08394e-06
2.23904e-06
4.3701e-05
2.6219e-05
1.06637e-05
1.13629e-05
3.10327e-05
4.67135e-05
2.41034e-05
2.56114e-05
2.65738e-05
2.50283e-05
2.72073e-05
2.56142e-05
4.66683e-05
2.53201e-05
2.38212e-05
4.66025e-05
1.8898e-05
2.0104e-05
2.04641e-05
2.66857e-05
4.63636e-05
2.40764e-05
2.26449e-05
4.67209e-05
2.28295e-05
2.1469e-05
2.97023e-05
2.15842e-05
2.02916e-05
3.1463e-05
2.59454e-05
2.44278e-05
2.65837e-05
1.48937e-05
1.9706e-05
1.85236e-05
2.59706e-05
2.06607e-05
2.19769e-05
2.23167e-05
1.84549e-05
1.73441e-05
3.41061e-05
6.54839e-07
6.29192e-07
6.86453e-07
2.53515e-05
2.4114e-05
1.72096e-05
1.61714e-05
1.61307e-05
1.59608e-05
1.4995e-05
2.47005e-05
2.32421e-05
2.22631e-05
4.66072e-05
1.47081e-05
1.38149e-05
2.9751e-05
2.04071e-05
3.19436e-05
2.47331e-05
1.28223e-05
1.20373e-05
2.34963e-05
2.24154e-05
2.38523e-05
4.66835e-05
2.41713e-05
1.73699e-05
1.85439e-05
1.09533e-05
1.02767e-05
2.0966e-05
1.97103e-05
2.34539e-05
2.20599e-05
9.716e-06
9.11195e-06
1.66827e-05
8.46888e-06
7.93803e-06
1.54469e-05
1.86058e-05
2.16436e-05
1.71352e-05
1.82322e-05
6.57924e-06
6.15605e-06
4.65158e-05
1.35848e-05
2.60276e-05
5.3294e-06
4.97791e-06
3.86396e-05
2.22084e-05
2.08821e-05
2.28814e-05
4.67087e-05
1.1727e-05
4.66559e-05
3.20837e-06
3.4517e-06
4.3813e-05
4.65923e-05
1.97856e-05
9.86934e-06
8.00982e-06
2.78901e-05
6.14524e-06
4.63949e-05
4.26073e-06
2.03372e-05
1.91188e-05
4.65893e-05
2.10269e-05
4.40227e-05
3.18448e-05
1.73022e-05
4.64053e-05
3.30643e-05
1.90845e-05
1.79377e-05
4.65813e-05
4.48927e-05
4.66795e-05
4.67394e-05
1.34501e-05
1.26295e-05
1.91678e-05
2.5115e-06
1.42059e-05
1.78383e-05
1.67637e-05
4.66805e-05
2.35998e-05
2.51024e-05
3.13856e-05
1.15753e-05
1.08628e-05
4.66066e-05
1.79204e-05
2.77967e-05
3.14887e-05
4.65891e-05
1.2348e-05
2.73071e-05
4.66632e-05
1.65884e-05
1.55865e-05
4.52347e-05
1.04897e-05
1.60667e-05
1.53403e-05
1.44108e-05
4.64614e-05
3.11736e-05
7.20779e-06
6.74911e-06
4.52634e-05
8.6319e-06
1.48248e-05
1.40887e-05
1.32323e-05
4.66704e-05
4.6354e-05
6.77087e-06
7.71868e-07
8.15692e-07
7.34087e-07
4.66506e-05
2.09775e-06
1.95916e-06
4.67364e-05
1.29654e-05
1.22073e-05
1.14589e-05
4.07373e-06
3.79576e-06
4.67124e-05
4.5559e-05
4.64767e-05
4.63654e-05
4.5862e-05
3.22086e-06
3.00423e-06
4.65938e-05
4.8941e-06
5.87155e-06
6.2732e-06
1.468e-06
1.58332e-06
1.53565e-06
4.66499e-05
7.03826e-06
7.51264e-06
8.21175e-06
8.75873e-06
9.38623e-06
1.00059e-05
1.05626e-05
1.12546e-05
1.1107e-05
4.66257e-05
1.03411e-05
9.70097e-06
1.88422e-06
2.01097e-06
1.09768e-06
1.07665e-06
1.16064e-06
4.08123e-05
1.70261e-05
1.81155e-05
4.43301e-05
4.65846e-05
4.66999e-05
9.09983e-06
8.53245e-06
4.6672e-05
4.40211e-05
4.29741e-05
4.67439e-05
2.35033e-05
2.49864e-05
9.2499e-06
4.65918e-05
4.66093e-05
4.6602e-05
2.06845e-06
2.21452e-06
1.47347e-05
1.59754e-05
4.60765e-05
7.84887e-06
7.35418e-06
1.72143e-05
3.22615e-05
1.84508e-05
4.66942e-05
4.30899e-05
4.66657e-05
4.67034e-05
4.67003e-05
4.46598e-05
4.65758e-05
4.6466e-05
7.39012e-06
1.97883e-06
4.66656e-05
4.60546e-05
4.32936e-05
4.66741e-05
2.99846e-05
4.64669e-05
5.9617e-06
5.5745e-06
4.66236e-05
4.03449e-05
4.65234e-05
2.9973e-06
4.65914e-05
4.66456e-05
4.66318e-05
3.18042e-05
4.66185e-05
4.70676e-06
5.03522e-06
5.51976e-06
4.55563e-05
4.65661e-05
4.70728e-06
4.39344e-06
4.66514e-05
4.6566e-05
4.65542e-05
6.07498e-06
4.63799e-05
4.25104e-06
4.57058e-05
4.66237e-05
7.92034e-06
1.23169e-05
1.31176e-05
4.57421e-05
4.67059e-05
1.49896e-05
1.40808e-05
9.77428e-06
1.68642e-05
1.58473e-05
4.66079e-05
1.9981e-05
1.87827e-05
2.18552e-05
2.05485e-05
2.3731e-05
2.23111e-05
1.16304e-05
4.65468e-05
3.25633e-05
4.66777e-05
4.59238e-05
1.34873e-05
4.67296e-05
4.66689e-05
2.50233e-06
2.83591e-05
2.6011e-06
2.79172e-06
4.62513e-05
4.66061e-05
4.42375e-05
4.66687e-05
2.02987e-05
2.21532e-05
2.40175e-05
4.67207e-05
2.77794e-05
2.58821e-05
4.52918e-05
3.07591e-05
4.57982e-05
4.66758e-05
4.66151e-05
4.55568e-05
4.64836e-05
4.66315e-05
4.66856e-05
4.6604e-05
4.66531e-05
4.2194e-05
4.65393e-05
3.40596e-05
4.667e-05
4.66661e-05
4.57746e-05
4.5613e-05
4.54651e-05
4.66719e-05
4.42456e-05
4.61131e-05
4.67153e-05
4.62173e-05
4.66096e-05
4.6665e-05
4.65902e-05
3.16167e-05
4.65536e-05
4.66518e-05
4.43763e-05
4.6587e-05
4.67121e-05
2.77986e-05
4.66422e-05
4.66198e-05
4.66436e-05
4.66551e-05
4.62725e-05
3.05232e-06
4.66775e-05
3.62708e-06
4.66648e-05
4.51593e-05
3.30866e-05
2.84143e-05
4.59098e-05
4.66643e-05
4.66296e-05
4.67122e-05
4.66182e-05
4.66866e-05
4.66742e-05
4.66913e-05
4.67131e-05
4.66453e-05
4.61761e-05
4.66882e-05
4.64668e-05
4.66235e-05
4.62057e-05
3.01793e-05
4.66236e-05
4.66534e-05
4.12907e-05
4.66386e-05
4.66404e-05
4.44423e-05
4.57294e-05
4.10124e-05
4.65818e-05
4.66761e-05
4.61792e-05
4.66908e-05
4.66864e-05
4.65453e-05
4.59711e-05
4.66876e-05
4.57027e-05
4.66086e-05
4.6395e-05
4.67242e-05
4.66248e-05
4.66276e-05
3.36223e-06
3.13617e-06
4.65794e-05
4.55891e-05
4.66426e-05
4.5521e-05
4.67037e-05
4.66968e-05
4.656e-05
4.67029e-05
2.9651e-05
4.66931e-05
4.66176e-05
4.6691e-05
4.67132e-05
4.65116e-05
4.67187e-05
4.66701e-05
4.66443e-05
4.66701e-05
4.66617e-05
4.65976e-05
4.66084e-05
4.67005e-05
4.66633e-05
4.66825e-05
4.67104e-05
4.6624e-05
4.65756e-05
4.66227e-05
4.66724e-05
4.66363e-05
4.66013e-05
4.65864e-05
4.66338e-05
4.67067e-05
4.65766e-05
4.66149e-05
4.50949e-05
4.67193e-05
4.60108e-05
4.66616e-05
4.65699e-05
4.59969e-05
4.60365e-05
4.66548e-05
3.29828e-05
4.68492e-05
4.58816e-05
4.66001e-05
4.66686e-05
4.66243e-05
4.67222e-05
4.65996e-05
4.66859e-05
4.66504e-05
4.67066e-05
4.65992e-05
4.66945e-05
4.56869e-05
4.62275e-05
4.66937e-05
4.66904e-05
4.66108e-05
4.60573e-05
4.66354e-05
4.65589e-05
4.67079e-05
4.53767e-05
4.64131e-05
4.68835e-05
4.66388e-05
4.66993e-05
4.6599e-05
4.66093e-05
4.66152e-05
4.67256e-05
4.66772e-05
4.65399e-05
4.66849e-05
4.66133e-05
4.65844e-05
4.67192e-05
4.59238e-05
3.12358e-06
4.66714e-05
4.6027e-05
4.65416e-05
4.6667e-05
4.66236e-05
4.66775e-05
4.66732e-05
4.67441e-05
4.67772e-05
4.64794e-05
4.65823e-05
4.51026e-05
4.67271e-05
4.66765e-05
4.66917e-05
4.63988e-05
4.66516e-05
4.66409e-05
4.67168e-05
4.66947e-05
4.67477e-05
4.64557e-05
4.67023e-05
4.6632e-05
4.65974e-05
4.66984e-05
4.56816e-05
3.63338e-06
4.65942e-05
4.66993e-05
4.57943e-05
4.62742e-05
4.66615e-05
4.56868e-05
4.682e-05
4.65038e-05
4.65558e-05
4.67204e-05
4.661e-05
4.67151e-05
4.65901e-05
4.6309e-05
3.00887e-05
4.62545e-05
4.61516e-05
4.66688e-05
4.66539e-05
4.67149e-05
4.67253e-05
4.67111e-05
4.66221e-05
4.68428e-05
4.67315e-05
4.61167e-05
4.67453e-05
4.61575e-05
4.67052e-05
4.67401e-05
4.68678e-05
4.66343e-05
4.66128e-05
4.67106e-05
4.66947e-05
4.66643e-05
4.67461e-05
4.65476e-05
4.66498e-05
4.65449e-05
4.67189e-05
4.67017e-05
4.65789e-05
4.66678e-05
4.66867e-05
4.66328e-05
2.85009e-05
4.67192e-05
4.64387e-05
4.63995e-05
4.66557e-05
4.66695e-05
4.66927e-05
4.6714e-05
4.62443e-05
4.67317e-05
4.66415e-05
4.65995e-05
4.66278e-05
4.66015e-05
4.68675e-05
4.66183e-05
4.66939e-05
4.65437e-05
4.67346e-05
4.66249e-05
4.66263e-05
4.67132e-05
4.63639e-05
4.65562e-05
4.68257e-05
4.66374e-05
4.67467e-05
4.67221e-05
4.65905e-05
4.66015e-05
4.66744e-05
4.65715e-05
4.66602e-05
4.67424e-05
4.65919e-05
4.65955e-05
4.66301e-05
4.65888e-05
4.65456e-05
4.65226e-05
4.66463e-05
4.6745e-05
4.67008e-05
4.66582e-05
4.60571e-05
4.65379e-05
4.66302e-05
3.94893e-06
3.68466e-06
4.66553e-05
4.67169e-05
4.65444e-05
4.61862e-05
4.61369e-05
4.22978e-06
4.66149e-05
4.65988e-05
4.67209e-05
4.6645e-05
4.65541e-05
4.66208e-05
4.65052e-05
4.60716e-05
4.67864e-05
4.60161e-05
4.60928e-05
4.61609e-05
4.67202e-05
4.67224e-05
4.60735e-05
4.65809e-05
4.65276e-05
4.64918e-05
4.67352e-05
4.61259e-05
4.58467e-05
4.67058e-05
4.66821e-05
4.66071e-05
4.08733e-05
4.67073e-05
4.6329e-05
4.66705e-05
4.60855e-05
4.66941e-05
4.59782e-05
4.62432e-05
4.67244e-05
4.5985e-05
4.61968e-05
4.65304e-05
4.6672e-05
4.67185e-05
4.5288e-05
4.59332e-05
4.61349e-05
4.61843e-05
4.67245e-05
4.65281e-05
4.66439e-05
4.62791e-05
4.61229e-05
4.65449e-05
4.64642e-05
4.64977e-05
4.64787e-05
4.60641e-05
4.62832e-05
4.58811e-05
4.83281e-06
4.66954e-05
4.66188e-05
4.67126e-05
4.54418e-06
4.2426e-06
4.63148e-05
4.05563e-06
3.77973e-06
4.64968e-05
4.53491e-05
4.66984e-05
4.66999e-05
4.65028e-05
4.66941e-05
4.63566e-05
4.65076e-05
4.66097e-05
4.66763e-05
4.63447e-05
4.67165e-05
4.64999e-05
4.65348e-05
4.63775e-05
4.64005e-05
4.81286e-06
5.15098e-06
2.86193e-05
4.63972e-05
4.61461e-05
4.66541e-05
4.63225e-05
4.6449e-05
4.64725e-05
4.67149e-05
4.65839e-05
4.51561e-05
4.62408e-05
4.53747e-05
4.63873e-05
4.69736e-05
4.62718e-05
4.6657e-05
4.65419e-05
4.99085e-06
4.65237e-05
4.5328e-05
4.62851e-05
4.62006e-05
4.64257e-05
4.6301e-05
5.44242e-06
4.66102e-05
4.67527e-05
4.57438e-05
4.63875e-05
5.76504e-06
5.39062e-06
4.58688e-05
4.63774e-05
2.92201e-06
2.71811e-06
2.82366e-05
4.66952e-05
4.6078e-05
4.63981e-05
6.05736e-06
4.57626e-05
4.66969e-05
4.6016e-05
4.6538e-05
4.65182e-05
5.97366e-06
6.38426e-06
4.65816e-05
6.67558e-06
4.63116e-05
4.6334e-05
4.58387e-05
4.62963e-05
6.8556e-06
7.2937e-06
4.66072e-05
7.00821e-06
6.56141e-06
4.66696e-05
7.91212e-06
7.15157e-06
7.6346e-06
6.75688e-06
7.21464e-06
4.54745e-05
8.5316e-06
4.66802e-05
7.74206e-06
8.26113e-06
8.71116e-06
9.15007e-06
2.79394e-05
8.33032e-06
8.8858e-06
9.76819e-06
3.08761e-05
9.50727e-06
8.91527e-06
1.03872e-05
1.01277e-05
9.49949e-06
1.05664e-05
1.10067e-05
1.07466e-05
1.00824e-05
1.16258e-05
1.22462e-05
1.06685e-05
1.1369e-05
1.24247e-05
1.12541e-05
1.19908e-05
1.28648e-05
1.08726e-05
1.15835e-05
1.34836e-05
1.26158e-05
1.1843e-05
1.41038e-05
1.24362e-05
1.32449e-05
1.47236e-05
1.42823e-05
1.38733e-05
1.30283e-05
1.345e-05
1.26302e-05
1.53431e-05
1.36177e-05
1.4499e-05
1.51258e-05
1.42083e-05
1.59614e-05
1.57487e-05
1.4795e-05
1.65772e-05
1.63725e-05
1.53826e-05
1.71973e-05
1.59702e-05
1.69961e-05
1.55118e-05
8.70382e-06
2.95199e-05
3.12199e-05
2.85265e-05
2.60184e-05
2.76342e-05
3.94366e-06
3.68068e-06
1.47828e-05
1.57352e-05
8.24683e-06
7.72868e-06
1.73822e-05
2.82591e-05
2.66253e-05
1.24167e-05
2.54617e-05
1.65601e-05
2.90875e-05
1.76223e-05
5.02299e-06
3.00298e-05
2.17525e-05
1.98947e-05
1.60835e-06
1.48183e-06
2.72369e-05
3.25135e-06
1.42748e-05
1.38608e-05
1.30168e-05
2.57288e-05
2.41974e-05
2.78563e-05
1.78161e-05
2.26005e-05
2.12464e-05
3.5287e-05
2.44775e-05
2.30021e-05
8.90182e-06
1.05584e-05
1.19882e-05
1.12529e-05
9.49247e-06
1.76106e-05
1.655e-05
2.88901e-05
5.76983e-06
5.39733e-06
2.72805e-05
6.85446e-06
3.06911e-05
3.24501e-05
7.00549e-06
6.56008e-06
3.16984e-05
2.77712e-06
2.58542e-06
3.08638e-05
1.0739e-05
1.00761e-05
3.43228e-05
2.69957e-05
2.30272e-05
2.36097e-05
2.44873e-05
2.38624e-05
2.24368e-05
2.85771e-05
2.07878e-05
1.95428e-05
2.511e-05
2.46203e-05
1.6749e-05
2.63664e-05
2.57359e-05
3.04582e-05
2.4004e-05
2.36219e-05
2.21544e-05
1.71469e-05
1.92237e-05
3.06331e-05
2.48122e-05
1.79876e-05
2.06783e-05
2.42184e-05
2.64824e-05
2.15357e-05
2.09165e-05
2.70934e-05
2.54049e-05
1.77365e-05
1.94957e-05
1.8871e-05
2.33885e-05
2.01227e-05
2.07472e-05
1.82451e-05
2.00914e-05
2.47906e-05
2.1849e-05
1.89161e-05
2.27716e-05
2.5863e-05
1.96794e-05
3.07112e-05
2.95183e-05
1.83253e-05
2.90637e-05
2.52405e-05
2.66452e-05
2.1371e-05
2.10824e-05
1.88558e-05
1.77227e-05
2.1994e-05
2.76207e-05
2.02976e-05
2.29344e-05
2.94764e-05
2.32392e-05
2.07288e-05
1.9487e-05
1.95038e-05
3.00719e-05
1.84377e-05
2.12634e-05
2.88642e-05
1.90581e-05
2.76227e-05
2.60054e-05
3.08141e-05
2.82434e-05
2.71852e-05
2.26157e-05
3.02615e-05
2.93691e-05
3.0687e-05
2.90333e-05
2.76907e-05
2.60047e-05
4.6256e-05
2.68198e-05
2.72007e-05
2.65868e-05
2.77224e-05
4.64231e-05
4.65482e-05
4.64422e-05
2.85519e-05
4.65965e-05
4.66952e-05
4.63977e-05
2.55906e-05
4.64139e-05
4.63603e-05
4.66595e-05
4.65379e-05
4.65794e-05
2.9893e-05
4.60753e-05
2.66799e-05
4.63655e-05
4.64808e-05
4.63363e-05
4.59783e-05
4.61556e-05
4.48582e-05
2.6211e-05
2.92435e-05
4.64146e-05
4.61891e-05
2.89449e-05
4.64601e-05
4.63328e-05
2.60726e-05
4.65277e-05
4.62572e-05
4.66955e-05
4.66929e-05
4.66993e-05
4.65224e-05
4.63096e-05
4.65796e-05
4.65652e-05
4.45769e-05
4.63269e-05
4.62893e-05
4.66069e-05
4.53648e-05
2.3108e-05
2.17262e-05
4.65369e-05
4.65775e-05
4.68208e-05
4.66656e-05
2.82717e-05
4.61417e-05
4.66188e-05
4.62147e-05
4.60664e-05
4.67104e-05
4.55447e-05
4.65791e-05
4.61389e-05
4.64718e-05
4.64445e-05
4.6151e-05
4.6502e-05
4.58493e-05
4.66733e-05
4.6501e-05
4.67136e-05
4.64171e-05
4.628e-05
4.60921e-05
4.64502e-05
4.65533e-05
4.6438e-05
4.66184e-05
4.66884e-05
4.6583e-05
4.66109e-05
4.66563e-05
4.65943e-05
4.58496e-05
4.64451e-05
4.66152e-05
4.64843e-05
2.6386e-05
2.4841e-05
4.66501e-05
4.64848e-05
4.60946e-05
4.64567e-05
4.64591e-05
4.65409e-05
4.65722e-05
4.66298e-05
4.64323e-05
4.665e-05
2.60619e-05
4.6411e-05
4.66693e-05
4.63654e-05
4.65816e-05
4.57431e-05
4.66999e-05
4.5738e-05
4.64031e-05
4.65955e-05
4.61929e-05
4.63375e-05
4.66819e-05
4.61468e-05
4.61028e-05
4.65765e-05
4.66788e-05
4.6447e-05
4.66358e-05
4.66794e-05
4.67133e-05
3.1523e-05
4.66584e-05
4.67285e-05
4.67173e-05
4.66628e-05
4.65499e-05
4.65455e-05
4.66034e-05
4.65078e-05
4.67222e-05
4.66797e-05
4.66971e-05
4.64709e-05
4.65479e-05
4.6736e-05
4.67065e-05
4.66972e-05
4.66764e-05
4.64745e-05
4.67094e-05
4.66746e-05
4.67026e-05
4.63984e-05
4.60474e-05
4.65938e-05
4.66218e-05
2.12325e-05
1.99624e-05
4.66685e-05
4.67142e-05
4.65762e-05
4.65264e-05
4.63177e-05
4.65687e-05
2.59338e-05
2.44021e-05
4.66616e-05
4.54433e-05
4.64669e-05
3.115e-05
4.66782e-05
4.64869e-05
2.7022e-05
2.5434e-05
1.53129e-06
4.66306e-05
4.64837e-05
4.64845e-05
4.67217e-05
4.67109e-05
4.66209e-05
4.66199e-05
4.66999e-05
4.65872e-05
4.66643e-05
4.64816e-05
4.67217e-05
4.67713e-05
4.59219e-05
4.65824e-05
4.66429e-05
4.65639e-05
4.6544e-05
4.67086e-05
4.65501e-05
4.65479e-05
4.6621e-05
4.6737e-05
4.66109e-05
4.66927e-05
4.67102e-05
4.67066e-05
4.61417e-05
4.67048e-05
4.6118e-05
4.6718e-05
4.6675e-05
4.58091e-05
4.5604e-05
4.6675e-05
4.67205e-05
4.66036e-05
4.66243e-05
4.67471e-05
4.64304e-05
4.67116e-05
4.60317e-05
4.6731e-05
4.65543e-05
4.64223e-05
4.61311e-05
4.66762e-05
4.66023e-05
4.67178e-05
4.65487e-05
2.51488e-05
2.36615e-05
4.64653e-05
4.66192e-05
4.66345e-05
1.93602e-05
1.81982e-05
4.58076e-05
2.4847e-05
4.65178e-05
4.67143e-05
4.67162e-05
4.65284e-05
4.66584e-05
4.67077e-05
4.66504e-05
4.64256e-05
4.66353e-05
4.64529e-05
4.66918e-05
4.66923e-05
4.66914e-05
2.54408e-05
4.66406e-05
4.66645e-05
4.65074e-05
4.67215e-05
4.58979e-05
4.66967e-05
4.66493e-05
4.67332e-05
4.65601e-05
4.5496e-05
4.65399e-05
4.5159e-05
4.63708e-05
4.65104e-05
4.65847e-05
4.66051e-05
4.67026e-05
4.66668e-05
4.66105e-05
4.67236e-05
4.62783e-05
4.66369e-05
4.63254e-05
4.66595e-05
4.67042e-05
4.67222e-05
4.64959e-05
4.67118e-05
4.67102e-05
4.65803e-05
4.65272e-05
4.67373e-05
4.66305e-05
4.66336e-05
4.67134e-05
4.64798e-05
4.64114e-05
2.71435e-05
4.66971e-05
4.66862e-05
4.6641e-05
4.67102e-05
4.66808e-05
4.6379e-05
4.64617e-05
4.64152e-05
4.67e-05
4.66373e-05
4.66829e-05
4.61855e-05
4.67029e-05
4.6324e-05
4.66612e-05
4.65518e-05
4.66965e-05
4.66815e-05
4.66813e-05
4.65762e-05
4.65707e-05
4.65764e-05
4.67001e-05
4.65849e-05
4.65781e-05
4.62501e-05
4.60161e-05
4.66889e-05
4.6662e-05
4.65853e-05
4.66399e-05
4.63816e-05
4.56316e-05
2.46815e-05
2.32157e-05
4.66719e-05
4.66149e-05
2.41996e-05
4.66874e-05
4.63746e-05
4.67281e-05
4.65746e-05
4.67193e-05
4.66678e-05
4.67206e-05
4.6595e-05
2.65576e-05
2.49889e-05
4.67266e-05
4.67005e-05
4.66292e-05
4.6599e-05
4.67073e-05
4.67413e-05
4.66596e-05
4.66272e-05
4.66559e-05
4.66904e-05
4.65333e-05
2.48219e-05
4.66353e-05
4.6695e-05
4.66745e-05
4.66985e-05
4.65449e-05
4.67224e-05
4.5707e-05
4.66992e-05
4.66649e-05
3.41685e-05
4.67179e-05
4.65879e-05
4.67233e-05
4.66936e-05
4.65773e-05
4.60707e-05
4.67263e-05
4.6715e-05
4.65636e-05
4.67338e-05
4.59265e-05
4.66957e-05
4.6693e-05
4.6602e-05
4.66794e-05
4.65723e-05
4.67047e-05
4.6688e-05
4.66551e-05
4.63548e-05
4.66145e-05
4.66888e-05
4.67246e-05
4.66457e-05
4.5813e-05
4.64976e-05
4.67378e-05
4.66043e-05
4.62226e-05
4.66452e-05
4.6713e-05
4.67284e-05
4.6712e-05
4.67313e-05
4.66801e-05
4.65321e-05
4.6652e-05
4.67066e-05
4.66861e-05
4.67213e-05
4.67351e-05
4.66957e-05
4.6565e-05
4.65834e-05
4.67034e-05
4.67215e-05
4.67337e-05
4.67307e-05
4.65614e-05
4.65449e-05
4.66437e-05
4.64446e-05
4.67167e-05
4.67316e-05
4.66946e-05
4.66999e-05
4.67043e-05
4.64473e-05
4.65653e-05
4.67554e-05
4.63708e-05
4.67228e-05
2.39031e-05
2.24834e-05
4.66941e-05
4.66838e-05
4.66503e-05
2.52669e-05
4.64807e-05
4.6674e-05
1.62411e-05
1.52602e-05
4.66887e-05
4.6589e-05
4.67012e-05
4.66364e-05
4.66211e-05
4.66751e-05
4.64743e-05
4.66035e-05
4.66016e-05
4.65422e-05
4.64543e-05
4.66156e-05
4.66513e-05
4.66612e-05
4.6428e-05
4.64506e-05
4.67232e-05
4.59462e-05
4.6602e-05
4.62653e-05
4.61998e-05
4.57673e-05
4.64882e-05
4.62279e-05
4.66796e-05
4.64985e-05
4.62522e-05
4.58573e-05
4.66641e-05
4.66396e-05
4.67146e-05
4.66847e-05
4.66266e-05
4.59879e-05
4.65432e-05
4.66651e-05
4.67274e-05
4.66921e-05
4.65865e-05
4.66849e-05
4.66363e-05
4.66557e-05
4.66812e-05
4.64178e-05
4.64115e-05
4.66805e-05
4.56843e-05
4.65996e-05
4.66846e-05
4.62381e-05
4.56226e-05
4.63694e-05
5.47152e-06
4.60176e-05
4.67357e-05
4.6685e-05
2.34311e-05
2.20337e-05
4.67251e-05
2.29901e-05
4.6649e-05
4.57539e-05
4.66996e-05
4.66168e-05
4.67237e-05
4.66587e-05
4.66431e-05
2.57709e-05
2.4254e-05
4.65875e-05
4.66e-05
1.43674e-05
1.34946e-05
4.66708e-05
4.67005e-05
4.66393e-05
4.55284e-05
4.67538e-05
4.66341e-05
4.58414e-05
4.66631e-05
4.6736e-05
2.42288e-05
4.58019e-05
4.66746e-05
4.66466e-05
4.67049e-05
2.34009e-05
4.66541e-05
7.31085e-06
4.67267e-05
4.60229e-05
4.64518e-05
4.66938e-05
4.65841e-05
4.64013e-05
4.64747e-05
4.66883e-05
4.66799e-05
4.66701e-05
4.66653e-05
4.62762e-05
4.6647e-05
4.66674e-05
4.67011e-05
4.66482e-05
4.65017e-05
4.6706e-05
4.67611e-05
9.16293e-06
4.66077e-05
4.653e-05
4.67166e-05
4.65825e-05
4.67252e-05
2.26541e-05
2.13038e-05
2.23368e-05
4.66787e-05
4.66521e-05
4.66024e-05
3.67177e-06
4.65275e-05
4.67152e-05
4.67114e-05
4.66908e-05
1.24976e-05
1.17332e-05
4.67247e-05
4.66988e-05
1.10177e-05
4.66629e-05
4.65691e-05
4.67007e-05
-2.57971e-08
-5.06202e-08
-3.23237e-08
4.65742e-05
4.67203e-05
4.66826e-05
4.5905e-05
4.6669e-05
4.65593e-05
4.66783e-05
4.60626e-05
3.16476e-05
4.65535e-05
4.64133e-05
2.15423e-05
4.64693e-05
4.55043e-05
4.65903e-05
4.66969e-05
4.66779e-05
4.67004e-05
4.61615e-05
4.66299e-05
1.63369e-06
1.52777e-06
1.28734e-05
4.66715e-05
4.66373e-05
3.22131e-05
4.66052e-05
4.66358e-05
4.66634e-05
4.6699e-05
4.6656e-05
2.21818e-05
2.08559e-05
4.66433e-05
4.66746e-05
4.66132e-05
4.66684e-05
4.66266e-05
4.66659e-05
4.66414e-05
2.53078e-05
2.38105e-05
4.64534e-05
4.67344e-05
4.66586e-05
4.67243e-05
4.66296e-05
4.67286e-05
4.66964e-05
4.66734e-05
4.6655e-05
4.60712e-05
4.6716e-05
4.66921e-05
4.64448e-05
4.66254e-05
4.66082e-05
4.66215e-05
4.65763e-05
1.96867e-05
4.67279e-05
4.13592e-06
4.42741e-06
4.66215e-05
2.11341e-05
2.14099e-05
2.01293e-05
4.6493e-05
4.66637e-05
4.62335e-05
4.66079e-05
4.66735e-05
4.66257e-05
4.6514e-05
4.66412e-05
4.66409e-05
4.67352e-05
4.62868e-05
4.67181e-05
4.65272e-05
4.66704e-05
2.35763e-05
4.65763e-05
4.5948e-05
4.66761e-05
4.62768e-05
4.67184e-05
4.66225e-05
4.63627e-05
4.66373e-05
4.66897e-05
2.37518e-06
2.20138e-06
4.59663e-05
2.04809e-05
4.61957e-05
4.66433e-05
4.67334e-05
4.65142e-05
4.66896e-05
4.65761e-05
4.66857e-05
4.67259e-05
2.45327e-05
2.30784e-05
2.29554e-05
4.65185e-05
4.6719e-05
4.66475e-05
4.673e-05
4.586e-05
4.66838e-05
4.66517e-05
4.67279e-05
4.66745e-05
4.66597e-05
4.65599e-05
4.58569e-05
2.03096e-05
1.90924e-05
4.67229e-05
4.66817e-05
4.66812e-05
4.66183e-05
4.66788e-05
4.66028e-05
4.66443e-05
4.67382e-05
4.66876e-05
4.6677e-05
4.64791e-05
4.66842e-05
4.6605e-05
1.92752e-05
4.66591e-05
1.95278e-05
1.83551e-05
4.65931e-05
4.58428e-05
4.65923e-05
4.66677e-05
4.67425e-05
4.6727e-05
4.66827e-05
2.40558e-05
2.26234e-05
2.23703e-05
4.66747e-05
4.66685e-05
1.86206e-05
1.90617e-05
1.79166e-05
4.61366e-05
4.65808e-05
4.65793e-05
4.659e-05
4.65548e-05
4.66897e-05
4.66799e-05
4.65969e-05
4.66692e-05
4.54325e-05
1.80381e-05
4.65005e-05
4.67279e-05
4.66812e-05
1.82843e-05
1.71844e-05
4.67196e-05
4.66774e-05
4.66814e-05
2.32819e-05
2.18973e-05
4.52755e-05
4.65477e-05
4.52459e-05
4.6616e-05
4.54333e-05
4.55181e-05
4.60641e-05
4.67317e-05
1.78155e-05
1.67424e-05
3.14623e-05
2.17176e-05
4.54754e-05
4.67177e-05
1.6765e-05
1.70358e-05
1.60081e-05
2.47063e-05
2.62399e-05
2.65436e-05
2.81236e-05
2.10989e-05
2.28046e-05
2.14436e-05
4.67233e-05
4.61152e-05
4.6588e-05
2.99221e-05
4.66142e-05
4.66958e-05
1.61818e-05
1.65653e-05
1.55657e-05
4.67296e-05
4.66599e-05
4.66521e-05
4.30851e-05
3.54345e-05
4.67369e-05
4.65923e-05
4.67283e-05
2.37744e-06
1.55225e-05
4.66061e-05
1.57883e-05
1.48331e-05
4.66522e-05
4.55558e-05
4.66787e-05
2.05139e-05
2.20335e-05
2.07171e-05
1.49435e-05
4.43121e-05
1.53177e-05
1.43902e-05
4.63973e-05
4.65805e-05
4.66889e-05
4.66266e-05
4.57708e-05
4.65859e-05
4.67233e-05
4.66602e-05
4.66849e-05
1.45408e-05
1.36579e-05
4.6441e-05
4.66622e-05
3.63175e-05
4.67335e-05
2.1555e-05
2.02648e-05
4.63114e-05
4.38138e-05
1.36641e-05
1.40679e-05
1.32127e-05
4.6569e-05
4.67077e-05
4.67423e-05
4.67003e-05
4.67362e-05
4.65551e-05
4.53912e-05
4.6467e-05
4.66398e-05
1.98603e-05
4.66833e-05
4.67291e-05
1.30862e-05
4.67329e-05
4.66684e-05
2.13769e-06
4.66528e-05
4.66438e-05
4.66072e-05
4.67002e-05
4.66854e-05
4.66754e-05
3.00947e-05
1.92394e-05
4.67128e-05
4.6667e-05
2.09249e-05
1.96727e-05
4.53265e-05
4.66915e-05
4.66348e-05
4.67097e-05
1.26611e-05
1.18863e-05
4.6636e-05
4.65808e-05
4.67112e-05
4.66898e-05
4.66412e-05
4.66821e-05
4.66059e-05
4.65647e-05
4.67263e-05
1.18071e-05
4.62239e-05
3.36517e-05
1.22026e-05
1.14559e-05
3.14203e-05
4.66695e-05
3.8407e-05
4.66286e-05
4.57393e-05
4.56917e-05
1.86553e-05
1.12266e-05
2.01696e-05
1.89618e-05
4.40677e-05
4.67321e-05
4.62323e-05
4.66888e-05
4.65823e-05
4.66808e-05
1.07856e-05
1.01195e-05
4.65803e-05
4.61232e-05
4.66939e-05
4.67276e-05
4.66594e-05
9.94983e-06
4.65898e-05
1.79998e-05
1.03287e-05
9.69026e-06
1.96807e-05
1.85007e-05
4.65968e-05
4.67136e-05
4.6715e-05
4.66115e-05
9.36974e-06
4.66667e-05
9.54708e-06
8.9539e-06
4.66688e-05
4.65947e-05
4.67082e-05
4.66915e-05
4.66543e-05
9.07856e-06
8.51263e-06
1.89086e-05
1.77717e-05
4.67877e-05
4.66174e-05
4.65722e-05
4.67339e-05
8.09427e-06
4.66613e-05
8.2971e-06
7.77601e-06
4.66266e-05
1.74183e-05
4.68077e-05
4.66806e-05
4.66838e-05
4.66629e-05
4.66233e-05
4.67302e-05
7.50871e-06
7.83186e-06
7.33846e-06
4.66904e-05
1.67976e-05
4.65192e-05
4.66967e-05
1.84333e-05
1.73262e-05
4.66648e-05
4.66344e-05
4.65937e-05
6.23764e-06
4.63654e-05
6.40677e-06
5.99346e-06
1.61434e-05
1.76664e-05
1.66029e-05
2.53109e-05
2.68675e-05
4.65853e-05
5.95688e-06
5.57205e-06
4.63035e-05
5.63719e-06
4.59607e-05
4.66864e-05
2.71706e-05
2.87412e-05
4.66166e-05
3.19534e-05
4.46842e-05
4.56816e-05
5.14603e-06
4.80544e-06
3.04288e-05
4.18455e-05
4.66767e-05
4.65913e-05
4.66025e-05
4.665e-05
1.55617e-05
2.82625e-06
2.6214e-06
4.66991e-05
1.71868e-05
1.61511e-05
4.68252e-06
4.37098e-06
4.66884e-05
4.65795e-05
4.66352e-05
4.65744e-05
4.66798e-05
4.3657e-06
1.49008e-05
4.66492e-05
4.66978e-05
1.64167e-05
1.54252e-05
4.6736e-05
4.66157e-05
4.66684e-05
4.66447e-05
3.10615e-06
2.86912e-06
4.64521e-05
4.66855e-05
4.66477e-05
4.66042e-05
4.66023e-05
4.66695e-05
4.6508e-05
1.59378e-05
1.4974e-05
4.61655e-05
4.66905e-05
4.66094e-05
4.48808e-05
4.59971e-05
1.4323e-05
4.66945e-05
4.67366e-05
1.37013e-05
3.03603e-05
3.69668e-06
2.95275e-05
1.51666e-05
1.42473e-05
4.66427e-05
1.49431e-06
4.67089e-05
4.37078e-05
4.65236e-05
4.47387e-05
4.6742e-05
1.30428e-05
4.65735e-05
1.4688e-05
1.37965e-05
4.66465e-05
2.85039e-05
4.66746e-05
1.39156e-05
1.30685e-05
4.56346e-05
4.17602e-05
4.66704e-05
1.24669e-05
4.67e-05
1.18441e-05
1.33341e-06
1.16067e-06
4.64461e-05
4.65368e-05
1.32945e-05
1.24843e-05
4.6641e-05
4.6671e-05
4.66748e-05
4.66225e-05
4.66595e-05
4.67291e-05
1.11852e-05
4.66255e-05
1.28239e-05
1.20402e-05
4.51012e-05
4.67289e-05
4.6688e-05
4.66933e-05
4.66742e-05
4.66653e-05
4.66715e-05
1.20393e-05
1.13006e-05
4.66972e-05
1.06075e-05
4.66869e-05
4.66995e-05
1.98579e-06
9.98661e-06
4.62519e-05
1.1424e-05
1.07228e-05
4.61735e-05
4.56448e-05
4.647e-05
4.66986e-05
4.66921e-05
4.66697e-05
4.66646e-05
9.32974e-06
4.65256e-05
4.59474e-05
1.0953e-05
1.02782e-05
4.38562e-05
4.95891e-05
4.63379e-05
4.68629e-05
4.62359e-05
4.65942e-05
1.0171e-05
9.54097e-06
4.66244e-05
4.62446e-05
8.75005e-06
4.6612e-05
4.62835e-05
4.62983e-05
8.12676e-06
9.70215e-06
9.09995e-06
2.95267e-05
4.64914e-05
4.65054e-05
4.68053e-05
4.62958e-05
4.66759e-05
2.8449e-05
3.74961e-05
4.66874e-05
4.6576e-05
7.47341e-06
8.92593e-06
8.36878e-06
4.67879e-05
4.65753e-05
4.67183e-05
4.67322e-05
4.66998e-05
4.65857e-05
4.66175e-05
8.45157e-06
7.92188e-06
4.46456e-05
4.17881e-05
6.88853e-06
4.55211e-05
4.65286e-05
4.6346e-05
4.66897e-05
3.73686e-05
6.26025e-06
4.66324e-05
7.67009e-06
7.18478e-06
4.63861e-05
4.66941e-05
5.61435e-06
7.04957e-06
6.6014e-06
4.66035e-05
3.62252e-05
4.3962e-05
4.66044e-05
4.6669e-05
4.67103e-05
6.58439e-06
6.16294e-06
2.80743e-05
4.66292e-05
4.63399e-05
4.67795e-05
4.65436e-05
5.00263e-06
4.63347e-05
5.78404e-06
5.40662e-06
4.67002e-05
4.65959e-05
4.3567e-06
4.63962e-05
4.66537e-05
3.21184e-05
5.32294e-06
4.97478e-06
4.66403e-05
4.67744e-05
4.6357e-05
3.7409e-06
4.6298e-05
1.38736e-06
1.37187e-06
1.4734e-06
4.62198e-05
4.50146e-06
4.19658e-06
2.71399e-05
4.65746e-05
4.65534e-05
4.67101e-05
4.63028e-05
4.66535e-05
4.66894e-05
4.65421e-05
3.8394e-06
3.57019e-06
4.6501e-05
4.51746e-05
4.65343e-05
3.8114e-05
3.42328e-06
3.18437e-06
4.65037e-05
4.65972e-05
3.06555e-05
4.65658e-05
4.65235e-05
4.65398e-05
4.64291e-05
3.42488e-05
4.64769e-05
4.16975e-05
4.65746e-05
2.90704e-05
4.66874e-05
4.65858e-05
4.64801e-05
4.67371e-05
4.47045e-05
4.30321e-05
4.42037e-05
4.11169e-05
4.63197e-05
4.66912e-05
3.02141e-06
4.6514e-05
4.65954e-05
2.42395e-06
2.22135e-06
3.11402e-05
1.56651e-06
4.65971e-05
4.30326e-05
4.67622e-05
4.62517e-05
4.67829e-05
4.64691e-05
4.45172e-05
2.93568e-05
4.67325e-05
4.65129e-05
4.61458e-05
4.59419e-05
4.6585e-05
4.66808e-05
4.67146e-05
3.21516e-05
2.24713e-06
3.1251e-05
4.49966e-05
4.65287e-05
1.78212e-06
8.93652e-07
1.04073e-06
4.66625e-05
4.67078e-05
4.64717e-05
4.67156e-05
4.63073e-05
3.05555e-05
1.62098e-06
1.68295e-06
1.59871e-06