/*--------------------------------*- C++ -*----------------------------------*\
  =========                 |
  \\      /  F ield         | OpenFOAM: The Open Source CFD Toolbox
   \\    /   O peration     | Website:  https://openfoam.org
    \\  /    A nd           | Version:  8
     \\/     M anipulation  |
\*---------------------------------------------------------------------------*/
FoamFile
{
    version     2.0;
    format      ascii;
    class       surfaceScalarField;
    location    "4";
    object      phi;
}
// * * * * * * * * * * * * * * * * * * * * * * * * * * * * * * * * * * * * * //

dimensions      [0 3 -1 0 0 0 0];

internalField   nonuniform List<scalar> 
9048
(
6.95819e-09
-6.30723e-09
-3.27412e-09
2.62316e-09
-1.55941e-09
-1.35318e-09
1.72845e-09
1.18414e-09
8.58945e-09
-2.39333e-09
-6.61665e-09
4.20538e-10
-2.28755e-09
5.1252e-09
1.21904e-09
-4.05669e-09
-4.68662e-09
-3.28441e-09
1.97982e-09
5.99121e-09
3.06735e-09
-2.11417e-09
6.31384e-09
-7.26702e-09
-2.53551e-09
1.91405e-09
1.96143e-09
-1.33998e-09
3.31858e-10
-2.86609e-10
-6.20352e-11
1.67856e-11
5.02336e-09
-3.77723e-09
3.51077e-09
-4.75689e-09
7.66683e-09
-3.59537e-09
-7.00124e-09
2.92979e-09
1.44505e-09
-5.5325e-09
4.07626e-09
1.11937e-11
5.69291e-09
-4.82562e-09
-2.49395e-09
1.62666e-09
-5.64511e-09
2.11252e-09
5.23532e-09
-1.70272e-09
4.79982e-09
4.28574e-09
-2.69797e-09
-6.38758e-09
6.70117e-09
-6.01409e-09
-2.8386e-09
2.15152e-09
-6.58846e-09
4.98557e-09
2.12161e-09
-5.1872e-10
-8.29838e-09
6.27252e-09
2.63154e-09
-6.05683e-10
8.12326e-09
-6.42637e-09
-2.83676e-09
1.13986e-09
7.82079e-09
-6.84843e-09
-3.28826e-09
2.3159e-09
6.20114e-09
-5.42124e-09
-2.65688e-09
1.87698e-09
-6.08304e-09
5.46913e-09
2.39957e-09
-1.78565e-09
-5.37874e-09
4.91245e-09
2.18144e-09
-1.71515e-09
5.51272e-09
-4.86829e-09
-2.26915e-09
1.62473e-09
6.33761e-09
-5.79222e-09
-2.99807e-09
2.45269e-09
-5.79574e-09
5.34866e-09
2.47319e-09
-2.0261e-09
-7.34551e-09
7.06172e-09
3.30123e-09
-3.01744e-09
5.35391e-09
-5.02378e-09
-2.48318e-09
2.15305e-09
5.44121e-09
-5.111e-09
-2.59139e-09
2.26119e-09
5.57581e-09
-5.23654e-09
-2.65986e-09
2.32059e-09
6.45525e-09
-5.16696e-09
-2.21029e-09
9.22001e-10
7.26212e-09
-5.79862e-09
-2.62151e-09
1.15801e-09
5.78777e-09
-5.30863e-09
-2.67056e-09
2.19142e-09
-5.4449e-09
5.00937e-09
2.36566e-09
-1.93012e-09
6.50191e-09
-5.87652e-09
-2.92653e-09
2.30114e-09
7.55569e-09
-7.02559e-09
-3.68041e-09
3.15031e-09
6.88516e-09
-5.49806e-09
-2.40144e-09
1.01434e-09
6.59607e-09
-5.27068e-09
-2.30051e-09
9.75119e-10
6.71627e-09
-5.36568e-09
-2.3416e-09
9.91012e-10
-5.9334e-09
5.74959e-09
1.90136e-09
-1.71755e-09
-5.26903e-09
2.35418e-09
4.89846e-09
-1.98361e-09
-4.06185e-09
3.64468e-09
-3.45228e-09
3.86945e-09
7.62438e-09
-7.81228e-09
2.72156e-09
-2.53366e-09
2.99321e-09
-3.25859e-09
5.07828e-09
-4.8129e-09
2.73314e-09
-3.03387e-09
4.63906e-09
-4.33833e-09
2.67028e-09
-2.96962e-09
4.55346e-09
-4.25413e-09
-3.84368e-09
-4.28963e-09
4.07145e-09
3.22025e-09
-3.62491e-09
5.4439e-09
-5.03924e-09
2.73023e-09
-3.00621e-09
4.51918e-09
-4.2432e-09
3.04633e-09
-3.2981e-09
5.09695e-09
-4.84519e-09
-3.13826e-09
2.76501e-09
5.16055e-09
-4.7873e-09
-1.66117e-09
1.58452e-09
-5.48032e-09
5.55697e-09
1.48018e-09
-1.73719e-09
-5.31268e-09
5.56969e-09
-8.10529e-09
2.99316e-09
-2.14965e-09
7.26178e-09
3.37481e-09
-3.3222e-09
-4.55816e-09
4.50555e-09
-2.85401e-09
3.27728e-09
3.02142e-09
-3.44469e-09
3.54618e-09
3.68448e-09
-3.44877e-09
-3.7819e-09
5.14692e-09
-6.5076e-09
2.69163e-10
1.09152e-09
-3.50225e-10
3.34734e-10
1.56696e-12
1.39246e-11
-3.99535e-09
-4.34242e-09
3.98089e-09
4.35688e-09
3.95392e-09
-5.10127e-09
-5.56972e-09
6.71707e-09
4.47122e-09
3.31532e-09
-4.39223e-09
-3.39431e-09
3.75885e-09
3.76288e-09
-3.95379e-09
-3.56795e-09
3.05818e-09
-3.86512e-09
-4.29444e-09
5.10138e-09
4.50417e-09
4.57708e-09
-4.76944e-09
-4.31181e-09
-2.29234e-09
2.32958e-09
3.59105e-09
-3.62829e-09
-4.71468e-09
-4.51684e-09
3.78059e-09
5.45093e-09
5.59817e-09
2.43464e-09
-2.41691e-09
-5.6159e-09
4.82953e-09
4.94287e-09
-4.2727e-09
-5.4997e-09
3.48673e-09
-4.51619e-09
-4.83554e-09
5.86501e-09
-2.35515e-09
2.86953e-09
4.28544e-09
-2.1965e-09
2.26964e-09
2.46905e-09
-2.5422e-09
1.13798e-09
1.81535e-09
-1.58799e-09
-1.36534e-09
-1.01287e-09
6.16701e-09
2.76505e-09
-7.91918e-09
-4.16369e-09
-3.7079e-09
3.21039e-09
4.6612e-09
3.94814e-09
3.75352e-09
-4.0654e-09
-3.63626e-09
4.97541e-09
4.74803e-09
-5.11376e-09
-4.60967e-09
2.55377e-09
-1.16842e-09
7.2846e-10
-2.11381e-09
-4.92964e-09
4.21572e-09
4.35859e-09
4.71682e-09
-4.78995e-09
2.87634e-09
-2.80322e-09
4.20123e-09
-4.24548e-09
2.543e-09
-2.49875e-09
3.77312e-09
6.39955e-09
-4.29278e-09
-5.8799e-09
2.05428e-09
5.99619e-09
-2.65055e-09
-5.39993e-09
6.86142e-09
-4.66465e-09
5.32551e-09
-7.52229e-09
-5.45019e-09
-3.8704e-09
4.39437e-09
4.92623e-09
4.11062e-09
-4.57948e-09
-4.66967e-09
-3.83653e-09
4.56546e-09
3.94074e-09
7.434e-09
-4.85415e-09
-4.0473e-09
1.46745e-09
-4.91056e-09
3.38933e-09
-4.3032e-09
5.82444e-09
-4.44226e-09
-3.13666e-09
3.53508e-09
4.04385e-09
-4.63439e-09
-3.27263e-09
3.69391e-09
4.21311e-09
-4.5222e-09
-3.19323e-09
3.601e-09
4.11443e-09
-4.35989e-09
-3.08007e-09
3.46866e-09
3.9713e-09
-1.03801e-11
-7.9871e-12
-4.53863e-09
-2.33296e-10
-2.61178e-10
5.03311e-09
3.5322e-09
-3.67952e-09
2.15433e-09
-2.00701e-09
3.99773e-09
1.85658e-09
-7.71255e-10
-5.08305e-09
-3.1814e-10
-7.19046e-09
6.76066e-09
7.47943e-10
-4.48903e-09
4.11707e-09
4.25208e-09
-3.88012e-09
-1.27557e-09
6.19244e-09
2.30051e-10
-4.33615e-09
4.80991e-09
3.93189e-09
-4.40565e-09
-5.33854e-09
3.65419e-09
-4.4888e-09
6.17316e-09
-4.24787e-09
2.97996e-09
-3.8944e-09
5.16231e-09
4.24747e-09
8.39677e-09
-8.18934e-10
-1.18253e-08
-6.56376e-09
4.56618e-09
-5.15381e-09
7.15139e-09
6.85161e-10
3.39679e-09
-1.52818e-09
-3.59346e-10
2.43261e-11
3.35847e-10
-8.26595e-13
-4.15574e-09
-4.25699e-09
3.77153e-09
4.6412e-09
-4.69681e-09
-1.52775e-09
1.90759e-09
4.31697e-09
-4.06955e-09
5.97157e-09
2.92751e-09
-2.7291e-09
3.99611e-09
-4.58922e-09
4.73332e-09
5.32844e-09
-5.03841e-09
3.90451e-10
-3.50719e-10
-3.71737e-12
-3.6014e-11
-2.80841e-09
2.36731e-09
7.95872e-10
-3.54774e-10
5.35883e-09
5.14968e-09
-4.26197e-09
-6.24655e-09
2.73418e-09
-3.22241e-09
-1.14504e-09
1.63328e-09
2.60541e-09
-2.3647e-09
4.61742e-09
-4.85813e-09
-2.99577e-09
3.17545e-09
3.90282e-09
-4.0825e-09
4.94965e-12
-3.74666e-10
1.037e-11
-4.20328e-09
-2.49728e-12
4.42825e-09
-2.2247e-10
5.95664e-09
-4.05751e-09
4.22571e-09
-6.12484e-09
-5.16252e-09
5.19529e-09
2.14274e-09
-2.17551e-09
5.48423e-09
-4.1728e-09
4.79079e-09
-6.10222e-09
-4.35575e-09
1.17181e-09
-3.61801e-10
3.54573e-09
-4.87724e-09
4.54894e-09
-4.75144e-09
5.07974e-09
-6.00322e-09
4.19756e-09
-4.9792e-09
6.78487e-09
6.35678e-09
-5.73011e-09
6.45182e-09
-7.07849e-09
-5.22384e-09
4.76392e-09
-5.02009e-09
5.48e-09
-6.70858e-09
4.68598e-09
-4.9996e-09
7.0222e-09
5.4405e-09
-4.40062e-09
5.51697e-09
-6.55685e-09
4.81958e-09
-4.44644e-09
4.55761e-09
-4.93075e-09
-5.31839e-09
4.64974e-09
-5.0244e-09
5.69305e-09
4.95676e-09
-4.40517e-09
4.62376e-09
-5.17535e-09
5.86403e-09
-4.62686e-09
5.71676e-09
-6.95394e-09
4.86983e-09
-4.08663e-09
5.2409e-09
-6.0241e-09
4.78373e-09
-4.42342e-09
4.39884e-09
-4.75914e-09
1.57464e-09
-3.81099e-09
3.74398e-09
-1.50762e-09
5.79814e-09
-4.05373e-09
3.51272e-09
-5.25714e-09
5.18496e-09
5.10517e-09
-4.70084e-09
-5.58929e-09
-7.00333e-10
1.23396e-09
-3.263e-09
2.72937e-09
5.45416e-09
5.17898e-09
-4.63967e-09
-5.99347e-09
-4.77831e-09
-4.7013e-09
3.82997e-09
5.64963e-09
-4.68161e-09
-4.61186e-09
3.83943e-09
5.45403e-09
-4.46966e-09
-3.23399e-09
4.40254e-09
3.3011e-09
4.22064e-09
3.37916e-09
-4.3299e-09
-3.2699e-09
4.98099e-09
4.5548e-09
-4.54229e-09
-4.9935e-09
4.8494e-09
4.44554e-09
-4.40435e-09
-4.89059e-09
5.05493e-09
4.80166e-09
-4.46702e-09
-5.38956e-09
5.27862e-09
5.00749e-09
-4.67992e-09
-5.60618e-09
5.15219e-09
4.8842e-09
-4.57311e-09
-5.46328e-09
4.20786e-09
-4.63637e-09
-2.3283e-09
2.75681e-09
-5.5464e-09
4.33568e-09
-3.59411e-09
4.80483e-09
7.49429e-09
-5.09594e-10
-6.35796e-12
-6.97834e-09
-2.93279e-09
3.05449e-09
3.98175e-09
-4.10344e-09
5.63036e-09
-4.92018e-09
-9.9579e-10
2.85617e-10
3.77749e-09
1.25001e-09
-3.5823e-09
-1.4452e-09
6.66663e-09
-4.54248e-09
4.77343e-09
-6.89758e-09
-4.21723e-09
2.06922e-09
-8.90818e-10
3.03883e-09
5.83052e-09
-7.65332e-09
7.33189e-09
-5.50909e-09
-1.4235e-09
-2.27285e-09
2.43943e-09
1.25691e-09
2.52647e-09
-4.88393e-09
-2.18896e-09
4.54642e-09
-4.69746e-09
4.22169e-09
-4.74198e-09
5.21775e-09
3.87628e-11
4.03673e-11
-7.91302e-11
-2.60046e-09
-3.45701e-10
2.38665e-10
2.7075e-09
-1.63031e-09
2.8804e-09
-6.68286e-09
5.43278e-09
3.05166e-10
9.02347e-11
-7.47649e-09
-4.96679e-09
8.76987e-09
3.67341e-09
-8.70052e-10
1.59933e-09
1.06113e-09
-1.7904e-09
1.25897e-09
1.28133e-09
-1.40231e-09
-8.8227e-11
9.43203e-11
-2.64431e-10
2.58338e-10
-3.75837e-09
3.31691e-09
4.54231e-09
-4.10085e-09
-3.04221e-09
-8.83053e-10
3.21379e-09
7.11474e-10
-1.88333e-09
3.28638e-09
-7.51756e-09
6.11451e-09
5.30594e-10
4.44666e-09
-4.70688e-09
-2.7037e-10
2.99265e-09
-3.32615e-09
4.07147e-09
-3.73797e-09
4.70732e-09
-1.04745e-09
-3.55728e-09
-1.02595e-10
5.29764e-09
6.84857e-10
-1.95016e-09
-4.03234e-09
2.49846e-09
-1.5336e-09
2.59747e-09
-3.56233e-09
4.93001e-09
-5.20084e-09
5.67838e-09
-5.40755e-09
-3.81265e-10
-4.95333e-11
4.04028e-10
2.67703e-11
5.52856e-09
-5.30791e-09
-4.86871e-09
4.64806e-09
-6.2266e-09
-3.91839e-09
4.98247e-09
-2.26073e-09
-5.60431e-09
4.95045e-09
2.91458e-09
-1.62414e-09
2.61731e-09
-5.65331e-09
4.66014e-09
4.00957e-09
-4.08973e-09
-4.29832e-09
4.37848e-09
1.92397e-09
-9.45035e-10
-1.86274e-09
8.83799e-10
2.05569e-09
4.02638e-09
-2.08433e-09
3.65762e-09
-5.48956e-10
-4.21669e-09
1.10802e-09
-1.39955e-09
-2.52381e-09
1.21287e-09
2.71048e-09
-1.82284e-09
5.12304e-09
-4.96136e-09
-5.56969e-10
1.02735e-09
-3.00589e-09
2.80338e-09
-5.04826e-09
4.77136e-09
3.20008e-09
-3.30698e-09
-5.43949e-09
4.51776e-09
4.71529e-09
-3.91299e-09
-5.32005e-09
6.76132e-10
4.75894e-09
-5.28479e-09
-1.50284e-10
2.72106e-10
4.72296e-11
-2.06841e-10
-1.12495e-10
-2.57846e-09
-4.09408e-09
2.82498e-09
3.84756e-09
4.88038e-09
-3.30791e-09
-4.30157e-09
-2.8528e-09
1.26715e-09
-4.97553e-09
6.56118e-09
-3.20682e-09
3.25206e-09
2.27217e-09
-2.3174e-09
4.29992e-09
-3.25533e-09
-7.58945e-09
6.54486e-09
8.30262e-10
-5.54253e-10
9.82957e-10
-5.0725e-09
5.98328e-09
-7.02868e-09
6.1179e-09
-1.2229e-10
4.10376e-11
-2.69467e-10
-4.41377e-09
4.66418e-09
-5.79752e-09
5.5471e-09
-3.52601e-09
4.08255e-09
-5.39703e-09
4.84048e-09
-3.52916e-09
3.16496e-09
-4.57219e-09
4.93639e-09
3.52379e-09
-3.8021e-09
4.89534e-09
-4.61704e-09
-8.17356e-09
4.0173e-10
5.89116e-09
1.88067e-09
-3.18378e-09
-1.24502e-09
1.07179e-09
3.35701e-09
-5.7477e-10
7.73906e-10
-6.25237e-09
6.05324e-09
-2.58052e-09
-1.14673e-10
9.47322e-11
5.10843e-09
-2.56543e-09
-2.543e-09
-1.83652e-09
8.98755e-09
-8.1639e-09
5.77827e-09
-2.90193e-09
-2.87634e-09
-1.59895e-09
-5.0168e-09
1.91895e-09
-3.30234e-09
1.45925e-09
-2.05836e-09
3.90145e-09
-8.16217e-10
2.92759e-09
-2.8117e-09
4.43872e-09
-2.28439e-09
-2.15433e-09
3.53765e-10
1.16759e-10
4.2368e-09
-2.48023e-09
-1.4888e-09
2.56949e-09
-5.17423e-09
6.05799e-09
-6.99487e-09
6.11111e-09
-2.55018e-09
2.66447e-09
3.73663e-09
-3.85093e-09
-2.47576e-10
3.12098e-10
1.37743e-10
-2.02265e-10
5.72793e-09
-6.35593e-09
1.08207e-09
-4.54069e-10
4.31291e-09
-4.25768e-09
3.15193e-09
-3.32802e-09
4.44333e-09
-4.26724e-09
-5.59927e-10
2.07458e-09
4.09315e-10
-2.71912e-09
-5.70237e-09
5.29656e-09
3.12493e-09
-5.18309e-09
5.11541e-09
5.09442e-09
-5.02675e-09
-3.80588e-09
-5.40569e-09
4.17412e-09
5.03745e-09
1.45599e-10
-1.77841e-10
3.66477e-10
-3.34234e-10
5.46159e-09
-4.4615e-09
5.52122e-09
-6.52132e-09
-4.57136e-09
-3.10936e-09
4.37911e-09
3.3016e-09
-5.26867e-09
4.70146e-09
-5.59602e-09
6.16323e-09
-4.37176e-09
5.14956e-09
-5.70539e-09
4.92759e-09
-1.06413e-09
-3.0835e-09
3.21056e-09
9.37079e-10
4.16959e-09
4.55001e-09
-3.71258e-09
-5.00702e-09
3.26315e-09
-3.5737e-09
4.8042e-09
-4.49365e-09
-2.40127e-10
-2.49705e-10
3.71269e-09
-3.22285e-09
-2.75755e-09
4.2618e-09
2.44645e-09
-3.95069e-09
-4.15288e-09
-3.75956e-10
4.39105e-09
1.37787e-10
2.22185e-09
-2.6594e-09
9.18519e-11
2.78459e-09
-4.09328e-09
-2.34095e-09
3.64964e-09
-1.00698e-08
5.18318e-09
-5.00821e-09
9.89488e-09
-4.36239e-09
-5.73932e-09
4.86033e-09
5.24138e-09
6.30084e-09
6.47572e-09
-7.32194e-09
-5.45461e-09
3.44803e-09
5.11706e-09
-3.35094e-09
-5.21415e-09
-3.08991e-09
-1.158e-09
3.67813e-09
4.01653e-09
-3.30647e-09
-4.38819e-09
-3.25835e-09
-4.86844e-09
3.32691e-09
4.79988e-09
3.45255e-09
4.56475e-09
-3.81161e-09
-4.20569e-09
4.47313e-09
5.24008e-09
-5.11909e-09
-4.59412e-09
3.8053e-09
5.17967e-09
-4.03414e-09
-4.95083e-09
-3.95272e-09
-5.64615e-09
4.34578e-09
5.25309e-09
-3.12925e-09
-3.84207e-09
3.71873e-09
3.25258e-09
3.41909e-09
4.91754e-09
-3.38534e-09
-4.95129e-09
-3.20574e-09
-3.93756e-09
3.8107e-09
3.3326e-09
-2.96242e-09
-4.02169e-09
2.38174e-09
4.60237e-09
-4.43822e-09
-6.11855e-09
4.99167e-09
5.5651e-09
4.79635e-09
-4.21436e-09
-5.88895e-09
5.30695e-09
-2.43866e-09
-1.39856e-09
2.60371e-09
1.2335e-09
-2.06569e-10
2.14791e-09
-2.28511e-09
3.43771e-10
3.86566e-09
-3.16675e-09
7.03273e-09
-7.73164e-09
-4.86512e-09
-3.77158e-09
4.97343e-09
3.66327e-09
3.3433e-09
-3.43645e-09
5.13259e-09
-5.03944e-09
3.4156e-09
-3.17673e-09
5.04957e-09
-5.28843e-09
-3.24825e-09
3.84295e-09
-5.75674e-09
5.16203e-09
-4.33817e-09
3.8058e-09
-4.68259e-09
5.21496e-09
1.35329e-09
-2.63793e-09
2.5186e-09
-6.47599e-09
6.11735e-09
-6.87094e-09
7.22959e-09
-4.42929e-09
-1.98747e-09
4.59392e-09
7.1442e-11
1.42798e-10
-1.44928e-10
-6.93128e-11
5.84713e-09
-5.43001e-09
6.55731e-09
-6.97443e-09
-5.14282e-09
3.57222e-09
-4.63916e-09
6.20976e-09
7.947e-09
4.95973e-09
-6.60589e-09
3.62201e-09
-4.10929e-09
5.59341e-09
-5.10613e-09
-1.08949e-08
6.06926e-09
1.32679e-09
-5.58769e-09
-1.80835e-09
-4.67699e-09
6.17397e-09
3.74593e-09
-5.24291e-09
5.60064e-09
-7.32383e-09
6.19633e-09
4.76234e-09
-5.95163e-09
4.9946e-09
-4.15159e-09
5.47387e-09
-4.52801e-09
-4.05481e-09
5.34193e-09
-4.41637e-09
4.58737e-09
-5.88183e-09
4.71355e-09
-4.16227e-09
5.58542e-09
-4.38557e-09
-5.1668e-09
6.69343e-09
-5.47936e-09
-5.73178e-09
7.51204e-09
-6.21848e-09
4.43914e-09
-5.68126e-09
4.69467e-09
-5.70644e-09
7.52013e-09
4.5811e-09
-6.39479e-09
-4.97462e-09
6.37871e-09
-5.20997e-09
4.68348e-09
-5.6504e-09
5.13651e-09
-4.54315e-09
5.89076e-09
-4.60596e-09
4.14115e-09
-4.9932e-09
4.53018e-09
-3.14452e-10
-2.18087e-09
-8.51917e-11
-5.64962e-09
7.23432e-09
-5.94708e-09
-7.05395e-09
-8.55676e-10
6.85277e-09
1.05685e-09
-4.6083e-09
-5.40625e-09
3.93334e-09
6.08122e-09
3.96531e-09
4.21896e-09
-5.19162e-09
6.94676e-10
-7.40458e-10
4.2797e-10
-3.82188e-10
4.80726e-09
2.27046e-09
-2.42479e-09
-4.65294e-09
4.41362e-09
-7.79752e-09
8.03639e-09
-4.65248e-09
4.98706e-09
-6.07959e-09
4.54057e-09
2.39797e-09
-3.14489e-09
-3.40868e-09
4.15561e-09
-2.70452e-09
5.97519e-09
-5.31393e-09
2.04327e-09
-5.34956e-09
1.72728e-09
-3.82481e-09
3.46009e-09
-7.11177e-09
-5.90146e-09
-5.43074e-09
4.44812e-09
6.88408e-09
-4.63965e-09
4.35093e-09
4.97293e-09
-4.68421e-09
2.13092e-09
4.35555e-09
-2.17356e-09
-1.04353e-09
-5.50886e-10
-6.90347e-09
8.49788e-09
3.96445e-09
6.56399e-09
-5.16961e-09
3.20243e-09
-2.90386e-09
3.97614e-09
-4.27472e-09
6.28199e-09
4.48049e-10
-6.07211e-09
-6.57929e-10
-6.73172e-09
6.60074e-09
1.78575e-10
-4.75986e-11
-4.99745e-09
-6.08158e-09
5.89595e-09
-7.41874e-09
-9.18664e-10
6.9864e-09
1.35101e-09
-2.48728e-09
2.16822e-09
-6.25981e-10
1.9523e-09
6.2083e-09
4.28851e-10
-6.18238e-09
-4.03768e-09
5.77063e-09
4.44943e-09
5.46661e-09
4.78065e-09
-4.47394e-09
-5.77332e-09
-2.24324e-09
2.04195e-09
3.8359e-09
-3.63462e-09
-4.93304e-09
4.93644e-09
4.00618e-09
3.82328e-09
6.43868e-09
-4.77773e-09
2.1365e-09
7.03825e-09
-1.04555e-09
-8.1292e-09
-1.09394e-10
1.20112e-09
5.77142e-09
-4.61096e-09
3.57286e-09
-5.28464e-09
6.51411e-10
6.52682e-09
-1.8936e-09
5.25325e-09
5.70905e-09
-6.03229e-09
-4.95168e-09
-6.21039e-09
4.69131e-09
6.47076e-09
3.48093e-09
3.52025e-09
-3.39833e-09
-3.60285e-09
4.57211e-09
5.36777e-09
-4.1857e-09
-5.75419e-09
-6.25291e-09
6.95507e-09
6.9168e-09
-7.61896e-09
-6.65957e-09
2.05518e-09
4.04517e-09
5.59215e-10
-2.88653e-09
7.46605e-10
-9.02291e-10
-6.05614e-09
7.66288e-09
4.95634e-09
-6.56308e-09
4.4747e-09
7.18768e-09
-6.13382e-09
-3.20447e-09
-5.70093e-09
4.02816e-09
-3.92099e-09
-7.11427e-09
5.03203e-09
4.34137e-09
7.24191e-09
-5.71924e-09
4.55379e-09
7.52797e-09
-5.72498e-09
-3.63909e-09
-5.93244e-09
4.34769e-09
3.78241e-09
6.02769e-09
-4.94028e-09
2.634e-09
3.28055e-09
-3.08868e-09
-2.82587e-09
-4.92177e-09
-7.83082e-09
6.04401e-09
-3.84832e-09
-5.93676e-09
4.46668e-09
3.43362e-09
5.48029e-09
-4.09433e-09
4.29332e-09
6.56323e-09
-5.41605e-09
3.3502e-09
5.73423e-09
-4.12767e-09
-5.22096e-09
-6.4895e-10
1.00823e-09
4.86168e-09
1.24199e-09
4.93346e-09
6.7572e-09
-1.0142e-09
-5.56024e-09
-1.82753e-10
5.50922e-09
-1.28852e-10
-5.54756e-09
1.67193e-10
6.38018e-09
-1.08343e-10
-6.42523e-09
1.5339e-10
7.09644e-09
-1.52445e-10
-7.85273e-09
9.08741e-10
-6.04768e-09
4.00276e-09
1.43507e-09
6.09855e-10
5.01716e-09
-5.57649e-09
2.22952e-10
3.36379e-10
-6.50452e-09
6.61082e-09
-1.04249e-10
-2.0501e-12
-6.84168e-09
6.77129e-09
2.22469e-11
4.81463e-11
-6.49538e-09
6.25077e-09
-1.73749e-10
4.18362e-10
-7.68178e-09
6.73038e-09
1.96663e-09
-1.01524e-09
-8.09098e-09
8.18811e-09
-1.56332e-10
5.92023e-11
-6.01014e-09
6.09019e-09
-1.88838e-10
1.08791e-10
-5.17471e-09
6.09584e-09
1.81924e-11
-9.3932e-10
-5.74242e-09
4.77187e-09
1.36881e-09
-3.98263e-10
-5.83847e-09
4.74918e-09
-4.39442e-10
1.52873e-09
-5.30359e-09
6.24792e-09
1.61625e-11
-9.60498e-10
-7.75916e-09
7.52744e-09
-7.50737e-11
3.06793e-10
-5.07704e-09
5.903e-09
2.24912e-11
-8.48444e-10
-5.99769e-09
6.03942e-09
-6.3888e-11
2.21608e-11
-6.12641e-09
6.21572e-09
-6.0652e-11
-2.86639e-11
-5.97693e-09
5.97562e-09
-1.0944e-10
1.10747e-10
-7.57068e-09
7.72169e-09
-9.83812e-11
-5.26249e-11
7.02653e-09
-8.4711e-09
-3.13745e-11
1.47595e-09
8.41205e-09
-8.16203e-09
2.17287e-10
-4.67315e-10
-4.21653e-09
-1.67126e-09
4.47574e-09
1.41205e-09
6.09802e-09
-6.5901e-09
-8.26884e-11
5.74713e-09
1.44419e-09
-5.6068e-09
-4.52857e-09
1.00142e-09
5.98741e-09
-6.29454e-09
-4.89371e-09
-6.8569e-09
6.43826e-09
4.04065e-09
1.94737e-09
4.7099e-09
-4.16375e-09
-2.49352e-09
-1.5918e-09
-2.27035e-09
-5.40667e-09
6.35034e-09
-6.1179e-09
4.84789e-09
-5.67838e-09
6.08373e-09
-2.03525e-09
5.63125e-09
1.21126e-09
-3.82332e-09
5.68473e-09
-4.98513e-09
3.12372e-09
1.85113e-10
-2.1665e-11
-1.63448e-10
3.76495e-09
5.91322e-09
-4.49322e-09
4.0952e-09
6.52253e-09
-5.16357e-09
-3.73807e-09
-5.62385e-09
4.58362e-09
-6.2212e-09
7.97993e-09
-6.72552e-09
2.47695e-10
-4.04188e-10
7.65078e-09
-6.56419e-09
6.7774e-09
-4.03654e-09
4.67391e-09
-4.76928e-09
-1.50358e-09
-5.46981e-09
-3.67105e-09
4.45926e-09
-3.05988e-09
-5.3215e-09
3.91172e-09
2.94891e-09
5.20613e-09
-3.9344e-09
3.61497e-09
5.80286e-09
-4.43684e-09
3.52641e-09
5.65631e-09
-4.33332e-09
-2.0383e-09
5.37574e-09
-5.09678e-09
-5.01103e-09
4.12164e-09
5.98617e-09
1.52038e-09
-2.39035e-09
-1.61026e-09
-1.81423e-10
-1.05977e-10
5.88946e-11
2.28506e-10
-3.51482e-09
3.64777e-09
5.6652e-09
4.98483e-09
4.51994e-09
-5.6741e-09
-3.83067e-09
6.34344e-09
-7.19611e-09
-2.82414e-09
3.67681e-09
1.39699e-09
-6.26586e-09
5.13119e-10
-3.93924e-10
3.69846e-11
-3.03047e-09
-3.63749e-09
2.90958e-09
-4.7235e-09
-9.68835e-10
5.12274e-09
5.69593e-10
6.65844e-09
-6.08545e-10
-3.21972e-10
5.73845e-09
-4.67005e-09
5.86925e-09
-6.93766e-09
5.13752e-09
-3.77834e-09
4.47587e-09
-5.83505e-09
3.62562e-09
6.13508e-09
-4.48208e-09
3.47792e-09
5.88163e-09
-4.30463e-09
3.53536e-09
5.98628e-09
-4.36945e-09
-1.99261e-09
2.83793e-09
-4.05215e-09
-4.44693e-09
-3.95605e-09
4.97707e-09
3.42591e-09
4.7352e-09
5.33698e-09
-3.97398e-09
-6.09821e-09
2.46749e-09
-6.34494e-09
-2.19515e-09
6.07259e-09
-1.06609e-09
4.21225e-09
-4.69178e-09
3.34811e-09
-3.86302e-09
5.20669e-09
-2.56797e-10
4.3275e-09
1.35766e-09
-4.21231e-09
-2.97394e-09
-9.92619e-10
4.34472e-09
1.65112e-09
-1.56494e-09
-4.4309e-09
-6.26061e-09
-4.14131e-09
5.69928e-09
4.70265e-09
-4.87853e-09
4.29366e-09
-4.44634e-09
5.03122e-09
6.94499e-09
2.43449e-09
-3.43037e-09
-5.94911e-09
-7.61157e-09
6.91212e-09
-2.0225e-09
2.72195e-09
-5.47171e-09
7.0947e-09
-5.13781e-09
4.20982e-10
-2.13555e-09
6.19246e-09
2.95385e-09
-6.56443e-09
-2.58188e-09
-7.32202e-09
3.76584e-09
-3.43378e-09
6.98997e-09
-5.20741e-09
-2.62046e-10
2.48501e-10
5.15968e-09
1.9707e-09
-3.5598e-09
-3.57059e-09
-5.25015e-09
6.37323e-09
-4.01793e-09
2.89485e-09
-5.35084e-09
4.59838e-09
5.08814e-09
3.20329e-09
-7.44307e-09
6.37628e-09
-2.44932e-09
1.5551e-09
-1.78637e-09
2.68059e-09
-5.64864e-09
9.43448e-10
5.01775e-09
-3.12565e-10
-1.77136e-09
8.26907e-09
-8.33423e-09
-3.67382e-09
-3.53986e-09
4.63522e-09
-2.89642e-09
4.40893e-09
-5.87241e-09
-3.00289e-09
4.57493e-09
-6.09424e-09
-3.07661e-09
4.69212e-09
-6.2499e-09
-2.95027e-09
4.49166e-09
-5.98365e-09
-2.40198e-09
-4.86403e-09
2.89831e-09
-3.48548e-09
5.4512e-09
-4.51991e-09
6.20835e-09
4.50401e-09
-5.50312e-09
-7.21647e-09
8.55057e-09
4.16902e-09
-1.01726e-10
-6.18062e-10
-4.96299e-12
7.24751e-10
-4.52277e-09
6.09523e-09
-7.82538e-09
5.42535e-09
1.17619e-09
-5.94778e-09
-6.53765e-10
-6.80819e-09
-1.59066e-09
7.33584e-09
1.06301e-09
-7.00959e-09
-1.05669e-09
-2.46955e-11
-5.60006e-09
-9.89189e-10
5.79099e-10
-5.51489e-09
-1.24594e-09
9.22353e-10
-4.24042e-09
-8.29806e-10
-1.04485e-10
-4.34379e-09
-8.54168e-10
-1.05632e-10
5.68713e-09
1.40387e-09
-1.02175e-09
5.77773e-09
1.09038e-09
1.58421e-10
4.2841e-09
5.01019e-09
-5.04878e-09
-4.24551e-09
5.1772e-09
-5.48064e-09
2.39067e-09
-2.08723e-09
-3.14523e-09
-1.40213e-09
4.85002e-10
5.12833e-09
-5.31094e-09
-3.02391e-10
-4.84651e-09
-6.43853e-09
5.97713e-09
-3.21227e-09
5.3903e-09
-6.8477e-09
-1.86518e-10
1.02035e-10
-3.30774e-10
5.35872e-09
4.81269e-10
-4.41878e-11
-8.0149e-11
-5.78549e-10
6.37708e-09
1.2979e-09
6.40519e-10
-5.81378e-09
-8.74423e-10
4.12933e-10
-5.47917e-09
-5.10246e-10
-4.47403e-10
6.15216e-09
9.06056e-10
-1.22378e-10
3.98281e-10
-4.35245e-10
6.02874e-09
6.57268e-10
1.08054e-09
-7.03514e-09
-1.72718e-09
-1.58941e-10
5.87889e-10
4.3195e-11
5.49574e-11
-9.08511e-11
2.04115e-10
4.74494e-11
7.40669e-11
7.04979e-10
-5.46675e-09
-9.80645e-10
-1.15001e-10
-2.12861e-10
-5.61738e-11
1.29365e-11
-2.58723e-10
5.62355e-09
5.38173e-10
-3.5224e-10
6.0884e-09
4.79567e-10
-3.45342e-10
5.93345e-09
4.51313e-10
-3.70371e-10
5.83043e-09
5.15566e-10
-4.58412e-10
7.42665e-09
7.53448e-10
-8.4701e-11
2.56573e-11
7.50026e-10
-7.82879e-09
-1.08326e-09
9.60929e-10
-1.18252e-09
-1.33782e-09
5.95664e-09
-3.09808e-10
1.37535e-09
-7.02218e-09
-4.17801e-09
1.6959e-09
-1.03463e-09
3.51673e-09
-2.67784e-09
6.63941e-09
1.72316e-09
-4.0512e-09
5.35825e-09
-5.46279e-09
8.17673e-10
-3.65377e-09
-7.80547e-11
2.91415e-09
-6.47716e-09
-1.58077e-09
4.46365e-10
3.96184e-09
-4.00206e-09
-3.28592e-09
-3.52399e-09
-6.96954e-09
6.88554e-09
3.60798e-09
3.29023e-10
5.49908e-09
-5.12544e-09
-7.0266e-10
-3.53913e-09
-5.98631e-09
2.12123e-09
3.6315e-09
-3.05715e-09
-2.69558e-09
-3.8728e-09
-4.84551e-09
2.45769e-09
-3.60956e-09
5.58213e-09
-7.42276e-09
-1.2513e-09
1.82034e-09
3.64597e-09
-4.21501e-09
-5.33e-09
-5.67253e-09
6.13382e-09
-2.3739e-09
-7.43694e-09
5.31562e-09
4.49522e-09
9.52657e-10
3.94237e-09
-4.89503e-09
1.19522e-09
3.88546e-09
-5.08067e-09
1.54922e-09
5.30888e-09
-6.8581e-09
-3.53362e-09
3.25483e-09
-4.12473e-09
4.40352e-09
-4.14534e-09
4.43294e-09
-5.51904e-09
5.23144e-09
2.68717e-09
-2.86924e-09
4.95394e-09
4.06327e-09
-3.68452e-09
4.57691e-09
-4.95566e-09
-3.75853e-09
4.97268e-09
2.78354e-11
-3.45957e-09
4.46234e-09
2.96254e-09
-2.39588e-09
3.1142e-09
-1.03277e-09
4.59796e-09
-1.63114e-10
-4.3792e-11
-5.72767e-09
5.59397e-09
7.08878e-09
3.50034e-09
5.56869e-09
-4.78493e-09
1.50556e-10
-2.85157e-10
3.81216e-10
-2.46615e-10
6.84576e-10
-6.21956e-09
-8.20953e-10
4.8186e-09
3.04921e-09
-5.06443e-09
-5.916e-09
-4.56815e-09
5.609e-09
4.87514e-09
3.67751e-09
-3.75032e-09
6.8032e-09
-6.25817e-09
-1.92386e-09
7.63288e-10
7.24093e-09
-7.37526e-09
-3.75265e-10
-5.64971e-09
3.44519e-09
7.79584e-09
-5.59133e-09
-7.44405e-09
-4.69461e-09
5.66267e-09
6.9806e-09
4.26897e-09
-5.40244e-09
-7.00719e-09
5.05712e-09
5.46279e-09
-5.25403e-09
-3.41807e-09
4.33393e-09
-6.29587e-09
-3.92877e-09
5.08181e-09
4.854e-10
-2.50513e-09
-3.76152e-10
-5.98329e-09
3.936e-09
-3.34474e-09
5.39203e-09
5.92677e-09
1.00727e-09
-6.24946e-09
-4.4711e-09
1.52901e-10
-2.18941e-09
6.74146e-09
-5.4252e-09
-5.80474e-09
3.92055e-09
-6.33592e-09
5.13051e-09
5.75979e-09
3.92119e-09
-3.73625e-09
5.74298e-09
-5.92792e-09
-7.10592e-10
-7.51741e-09
8.33167e-09
-1.0367e-10
1.83919e-10
5.65476e-09
7.62064e-10
3.28723e-10
5.43513e-09
5.18133e-10
-6.63259e-09
4.48103e-09
-4.4502e-09
6.60177e-09
3.70303e-09
2.2888e-09
-1.42928e-09
-4.56255e-09
3.93103e-09
5.09058e-09
-3.3951e-09
-5.62652e-09
-5.70223e-09
1.29756e-09
-2.05772e-09
6.46239e-09
-7.82543e-09
5.36459e-09
1.33876e-09
1.12209e-09
8.50315e-10
3.66987e-09
-6.03215e-09
1.51196e-09
3.7583e-10
1.34666e-09
-1.30872e-09
-4.13774e-10
-6.25954e-09
-6.24354e-10
-4.12187e-10
7.29608e-09
-5.82396e-09
-3.4307e-09
4.38955e-09
-4.22245e-09
4.61625e-09
-5.90948e-09
5.51568e-09
-4.51591e-09
-4.91476e-09
4.82236e-09
4.16889e-09
-3.88453e-09
3.17569e-09
-3.46005e-09
4.79074e-09
-4.08963e-09
5.01833e-09
-5.71943e-09
2.70678e-10
-1.00458e-10
-4.89372e-09
4.47734e-10
-4.2e-10
-5.23402e-10
4.95668e-10
-3.29288e-09
3.89884e-09
-3.60174e-09
3.57705e-09
-4.01551e-09
6.71195e-09
-6.27349e-09
5.21142e-09
3.8513e-09
-5.18221e-09
-3.88051e-09
-9.29438e-11
3.79257e-10
5.65518e-09
1.57366e-09
-1.86493e-09
-5.36391e-09
5.36208e-09
-5.98034e-09
5.46615e-09
-1.01511e-09
-2.68763e-09
5.31896e-09
-8.01617e-09
1.24265e-08
-9.72928e-09
4.06681e-09
-4.04798e-09
-1.11661e-09
1.09777e-09
3.26787e-09
5.00474e-09
-4.26986e-09
2.15153e-10
9.15736e-11
-7.38625e-09
7.07952e-09
5.12909e-09
-7.11274e-09
5.18694e-09
4.31643e-10
7.86876e-09
-2.13339e-09
-4.10782e-09
4.80668e-09
-5.68399e-09
2.3419e-09
-2.37015e-09
-3.64557e-09
4.90427e-09
1.27298e-09
-5.32694e-09
7.21148e-09
3.57539e-10
-7.57537e-09
1.24812e-10
-2.34793e-10
-5.89831e-09
5.69274e-09
1.15823e-09
-5.62662e-09
5.28178e-09
1.54006e-09
-7.6565e-09
7.34464e-09
1.86108e-09
7.25421e-09
-6.15036e-09
5.87705e-09
1.04722e-09
4.38845e-11
-4.75326e-09
6.98717e-09
-8.5618e-09
1.92119e-10
1.38251e-09
-4.08414e-09
3.8052e-09
5.06266e-09
4.06674e-09
-3.78167e-09
-4.71126e-09
4.4262e-09
5.10899e-09
7.96703e-09
-6.15922e-09
-4.09846e-10
-5.03953e-10
3.99031e-10
5.14767e-10
-4.35557e-09
-1.11082e-09
6.5326e-10
4.81313e-09
-2.45574e-10
-9.85558e-12
3.21782e-10
-6.63528e-11
3.90234e-09
-4.80668e-09
4.02805e-09
-1.32943e-09
6.67686e-09
3.07741e-10
3.09266e-09
5.81531e-10
-6.1825e-09
5.43784e-09
6.52238e-09
-3.38842e-09
3.96751e-09
5.10805e-09
4.64017e-09
-4.08125e-09
-4.90271e-09
4.52611e-09
-3.98373e-09
-4.78281e-09
-4.04921e-09
3.02448e-09
-4.57533e-09
3.36932e-09
-5.44542e-09
-4.73209e-09
-2.30431e-09
4.10472e-09
3.62494e-09
2.56371e-09
-5.08442e-09
-4.48888e-09
3.27497e-09
-3.81529e-09
-4.97457e-09
4.23013e-09
-2.66771e-09
-4.49522e-09
6.69261e-09
-5.83663e-09
-3.95856e-09
4.38666e-09
1.69312e-09
-2.56795e-09
8.72471e-10
7.80165e-10
8.1374e-11
-9.78201e-10
1.16662e-10
-8.23273e-10
-5.51232e-09
-7.18355e-10
7.37939e-09
7.97841e-11
4.8422e-09
4.20883e-09
-4.79375e-09
-4.25728e-09
-5.21719e-09
3.66026e-09
-2.90737e-09
4.4643e-09
-8.70974e-09
6.02878e-09
6.25801e-09
-2.12707e-10
7.04945e-09
6.43127e-09
7.71624e-10
-1.90525e-09
-1.11196e-10
-5.34491e-10
5.43961e-10
-5.17724e-09
4.41974e-09
6.20954e-09
-5.45204e-09
-1.50399e-09
2.23743e-09
-1.77345e-09
1.04001e-09
1.6807e-09
-1.50804e-09
-5.18946e-09
-2.80148e-09
-1.07475e-09
3.95048e-09
-4.16089e-09
-3.08246e-09
1.55e-09
4.37528e-09
-1.11405e-09
-4.81123e-09
-7.82894e-09
5.32407e-09
-4.02535e-09
2.98659e-09
6.02581e-09
-5.58429e-09
-5.2908e-09
5.37197e-09
9.9833e-11
-4.70563e-10
-1.37552e-10
5.08282e-10
-5.46179e-09
3.55839e-09
-5.4355e-09
5.38231e-09
1.73389e-09
7.42198e-10
6.85234e-09
3.67843e-09
-3.57885e-09
4.12283e-09
-4.2224e-09
-6.63077e-09
4.48001e-09
4.67419e-09
-4.0909e-09
4.01528e-09
-4.59856e-09
-5.15194e-09
4.58287e-09
-4.72018e-09
5.28925e-09
2.2431e-09
-1.96429e-09
6.51821e-09
-6.79702e-09
4.46731e-09
-3.05652e-09
-4.71778e-09
6.63414e-09
-6.71691e-09
-5.62366e-09
-4.1754e-09
4.48457e-09
4.12997e-09
5.49787e-09
-5.51501e-09
-4.65986e-09
-5.62291e-09
5.54478e-09
5.67877e-09
4.06607e-09
-4.03113e-09
-4.08976e-09
4.16775e-09
-4.12854e-09
-4.1908e-09
-4.90851e-09
5.40612e-09
4.26472e-09
-4.50435e-09
5.10218e-09
3.98954e-09
5.33866e-09
-5.88691e-09
-4.61855e-09
3.83149e-09
-4.02831e-09
-3.96544e-09
5.58604e-09
-5.69399e-09
-5.62383e-09
3.94851e-09
-3.33661e-09
-6.75213e-09
-1.06745e-09
6.46895e-09
1.35063e-09
1.13433e-09
-3.64285e-09
7.32899e-09
-5.45766e-09
4.79529e-09
-5.01666e-09
5.11872e-09
-4.58341e-09
4.48136e-09
7.35105e-11
-7.78869e-09
7.80675e-09
-4.07278e-09
4.11758e-09
1.08954e-09
-1.3582e-09
1.46641e-09
-1.97094e-09
-8.44726e-10
-1.10926e-09
7.20549e-10
1.23344e-09
6.52685e-09
-4.84217e-09
4.27196e-09
-5.08214e-09
-4.34264e-09
4.84005e-09
4.58472e-09
3.51376e-10
-4.70373e-11
2.89828e-09
-4.73508e-09
6.30802e-09
-5.70815e-09
-4.08344e-09
-4.72582e-09
-4.31528e-10
6.48534e-09
-1.328e-09
-4.74531e-09
3.98955e-09
6.36601e-09
-5.61026e-09
3.6943e-09
3.34809e-09
-3.29925e-09
-3.74314e-09
5.99966e-09
-4.43911e-09
-6.25801e-09
2.29238e-09
-3.58013e-09
-1.55777e-09
2.84552e-09
1.26299e-09
-1.13058e-09
1.16819e-09
-1.3006e-09
4.49227e-09
-4.87385e-09
-3.59828e-09
3.97986e-09
5.11485e-09
-5.86628e-09
7.61285e-09
-5.008e-09
-5.24531e-09
5.91715e-09
8.28968e-09
-6.75742e-09
3.67916e-09
2.38381e-09
-1.68582e-09
6.16284e-10
-1.31427e-09
-8.92523e-10
-4.56456e-10
5.41579e-09
-2.33223e-09
2.75295e-09
-5.46898e-09
-4.96948e-09
-3.30936e-09
4.2333e-09
4.04553e-09
-4.04864e-09
-5.87391e-09
-2.61175e-09
2.58096e-09
2.52926e-09
7.9698e-10
-3.79506e-09
4.21848e-09