/*--------------------------------*- C++ -*----------------------------------*\
  =========                 |
  \\      /  F ield         | OpenFOAM: The Open Source CFD Toolbox
   \\    /   O peration     | Website:  https://openfoam.org
    \\  /    A nd           | Version:  8
     \\/     M anipulation  |
\*---------------------------------------------------------------------------*/
FoamFile
{
    version     2.0;
    format      ascii;
    class       surfaceScalarField;
    location    "4";
    object      phi;
}
// * * * * * * * * * * * * * * * * * * * * * * * * * * * * * * * * * * * * * //

dimensions      [0 3 -1 0 0 0 0];

internalField   nonuniform List<scalar> 
33977
(
3.33848e-09
-1.49593e-10
-3.58441e-09
3.95526e-10
-8.12574e-10
-1.64516e-09
1.6982e-09
7.59538e-10
4.18795e-09
-2.84829e-10
1.90731e-10
-4.09385e-09
3.98416e-09
-3.96123e-09
-3.43845e-10
3.20909e-10
3.13577e-11
-2.40798e-10
-5.17758e-10
7.27199e-10
-1.92311e-09
1.55162e-09
-4.41084e-10
-3.0432e-09
3.91563e-09
-2.11801e-09
1.24558e-09
-1.78229e-09
-2.08758e-09
1.33178e-09
2.53809e-09
4.15126e-09
-4.25818e-09
1.9132e-10
-8.43979e-11
-9.60828e-10
2.01517e-09
-3.10739e-09
2.05305e-09
3.10885e-09
3.51963e-10
-3.56787e-09
1.07058e-10
-1.3255e-09
1.37153e-09
-7.0487e-10
6.58833e-10
-5.91459e-09
-4.53007e-09
4.96822e-09
5.47644e-09
-3.38572e-09
-3.94161e-09
4.45995e-09
2.86739e-09
2.27625e-09
-2.64536e-09
-2.17125e-09
2.54037e-09
-1.61592e-09
1.83022e-09
-2.14303e-10
7.41553e-10
-8.15133e-10
-1.25192e-09
-2.64585e-09
9.67246e-11
1.70228e-09
8.46855e-10
5.41401e-09
-1.08239e-09
-5.77678e-09
1.44517e-09
2.70138e-09
-1.4975e-09
-2.63974e-09
1.43585e-09
2.38631e-09
2.39406e-09
-2.50412e-09
-1.11953e-09
4.88462e-09
-4.1183e-09
3.53199e-10
-3.65565e-09
3.67221e-09
6.9623e-12
-2.35286e-11
2.55376e-09
-1.35796e-09
1.08649e-09
-2.28228e-09
-2.07219e-09
9.39449e-10
-9.07101e-10
2.03984e-09
2.35672e-09
-2.32269e-09
2.35229e-09
3.62558e-09
-3.62811e-09
-2.6109e-11
2.86335e-11
4.03623e-09
-3.64289e-09
1.45414e-10
-5.38753e-10
-1.99327e-10
-1.30712e-09
6.82117e-09
-5.31473e-09
3.64359e-09
-3.64048e-09
-2.95953e-11
2.6487e-11
4.2562e-09
-4.25937e-09
-1.5398e-14
3.18717e-12
8.94327e-10
-8.31103e-10
-3.78901e-11
-2.53337e-11
-3.65984e-09
-2.40227e-11
2.8212e-11
2.4317e-09
2.29179e-09
-2.36677e-09
-3.12792e-09
1.76113e-09
-1.40656e-09
2.77335e-09
1.47395e-09
2.28383e-09
-3.05204e-09
-7.0574e-10
2.26798e-09
2.44715e-09
-2.28343e-09
1.01063e-09
-9.89675e-10
1.50648e-09
-1.52744e-09
-3.32956e-09
-3.28827e-11
-8.05676e-11
3.44301e-09
-2.44775e-09
-2.45801e-09
2.57426e-09
2.3315e-09
3.61514e-09
-3.61749e-09
-4.34083e-11
4.57606e-11
4.12046e-09
1.64043e-10
-2.4e-10
-4.0445e-09
-6.39012e-10
1.84449e-11
4.6568e-09
2.3408e-09
-2.67495e-09
2.38152e-09
-2.04738e-09
1.25155e-10
-6.72035e-11
3.32218e-09
-3.38013e-09
3.69324e-09
-2.84114e-12
-1.81809e-11
-1.22109e-09
-2.85496e-10
2.82689e-10
1.2239e-09
-1.77672e-09
2.68199e-09
-9.05266e-10
2.40474e-09
2.31735e-09
-2.4541e-09
-3.32984e-09
3.33338e-09
-1.25783e-11
9.03646e-12
-1.73695e-09
7.87805e-10
1.13551e-09
-1.86364e-10
-2.80243e-09
-2.31394e-09
2.47101e-09
3.40383e-09
2.69467e-11
-2.83914e-11
-3.40239e-09
4.28126e-09
-1.01244e-10
7.93318e-12
-2.29183e-09
4.65331e-10
-8.19354e-10
-4.13633e-10
3.21742e-10
1.33371e-09
-1.24182e-09
2.37704e-09
-2.36372e-09
2.39141e-09
-3.9997e-11
7.4883e-10
-4.48785e-09
3.77902e-09
4.23898e-09
-4.22824e-09
-2.44976e-11
1.37639e-11
2.33859e-09
-1.79272e-09
-1.4314e-09
8.85525e-10
-3.21507e-09
4.6733e-11
-9.37607e-11
3.26209e-09
-1.83995e-09
1.89369e-09
1.78999e-09
-1.84373e-09
2.35239e-11
-3.97751e-11
3.34187e-09
-3.4722e-09
-1.00532e-09
1.13564e-09
-4.4276e-10
2.14098e-11
-3.22154e-09
2.61535e-09
1.47535e-09
-1.75211e-09
6.72123e-11
-3.39172e-09
-2.76128e-11
3.35212e-09
1.60549e-10
-1.80901e-09
3.81759e-09
-2.16913e-09
1.89862e-09
-2.83047e-09
7.06284e-09
-6.13099e-09
-1.06678e-09
1.12779e-09
-1.61606e-09
1.55506e-09
2.18741e-09
-1.80635e-10
2.13106e-09
-4.13784e-09
2.04308e-09
-2.24121e-09
1.98129e-10
-4.00531e-09
1.10866e-09
-1.12167e-09
4.01832e-09
1.43127e-11
-3.40263e-09
4.89968e-11
3.33932e-09
2.68973e-09
-2.85921e-09
-2.27826e-09
2.98605e-10
3.71487e-09
-3.88833e-09
3.64529e-09
-7.07639e-11
1.27e-11
-3.58723e-09
-4.09409e-09
3.94196e-09
4.5074e-10
-5.12336e-09
-1.82621e-09
4.51084e-09
2.43873e-09
3.21887e-09
-1.81221e-09
1.57683e-09
-2.98348e-09
1.40658e-09
-4.05169e-11
3.27435e-11
-1.39881e-09
-3.11614e-09
3.17769e-09
-6.9957e-11
8.39991e-12
3.32731e-09
2.74616e-11
7.86381e-11
-3.43341e-09
-6.11734e-10
5.49457e-10
-4.76811e-10
5.39088e-10
-7.0157e-12
1.37422e-09
3.93786e-11
-3.99854e-09
-2.87758e-10
2.69381e-10
4.01692e-09
-3.35326e-09
-2.0587e-11
4.40059e-11
1.5162e-09
-1.15912e-09
2.9848e-09
2.46731e-09
2.4671e-09
-2.55736e-09
-2.39404e-09
2.45237e-09
-1.30791e-10
7.24574e-11
8.80162e-10
-4.01352e-09
4.93765e-09
-1.80428e-09
2.36495e-09
-2.58829e-09
2.73701e-09
-2.51367e-09
2.07258e-10
3.45289e-09
-7.01666e-10
-2.95848e-09
3.25588e-09
5.06506e-10
-2.49922e-09
-1.26316e-09
-3.74655e-09
-5.21465e-12
1.07749e-09
2.67427e-09
3.6068e-09
-3.59713e-09
-4.67546e-11
3.70819e-11
3.51645e-09
-3.98858e-09
4.72134e-10
2.96486e-10
-1.19864e-09
-3.18939e-10
7.29188e-10
-7.69449e-10
-2.25157e-09
-2.54792e-09
-1.59617e-09
6.92165e-10
3.45192e-09
6.38505e-11
5.16718e-09
-4.6535e-09
-5.77533e-10
-3.10835e-09
3.0974e-09
-2.79117e-11
3.88644e-11
-1.59972e-09
1.54357e-09
-1.62053e-09
-4.45433e-10
8.32348e-10
1.23361e-09
4.20484e-09
-4.1939e-09
-2.99284e-11
1.89904e-11
2.29953e-09
-2.49921e-09
-2.38578e-09
2.58546e-09
-2.98038e-10
4.53357e-09
-4.36379e-09
1.28258e-10
1.138e-09
-5.9557e-09
5.23996e-09
-4.22257e-10
-5.22181e-10
1.02821e-09
-1.33501e-09
8.28983e-10
-3.14431e-09
3.12918e-09
-2.14843e-11
3.66151e-11
8.16597e-09
-7.22293e-09
1.23905e-09
-2.18208e-09
-1.9993e-09
1.96663e-09
7.61654e-10
-7.28983e-10
-3.17966e-09
3.15999e-09
-1.83548e-11
3.80217e-11
3.31988e-09
-3.33647e-09
2.32301e-11
-6.63375e-12
-2.07763e-10
5.05226e-10
3.8538e-09
3.28828e-09
1.07307e-11
-3.33113e-09
3.2115e-11
-3.22027e-09
3.19537e-09
-1.86049e-11
4.35125e-11
-2.49472e-09
2.16492e-09
2.62933e-09
-4.63563e-10
7.39206e-11
-4.61774e-09
5.00738e-09
-3.26231e-09
3.23604e-09
-1.74367e-11
4.37061e-11
-3.28664e-11
3.08844e-11
-3.30091e-09
3.27354e-09
-1.68134e-11
4.418e-11
8.34088e-12
-2.87357e-11
-1.65342e-09
-2.41217e-09
1.85813e-10
3.87978e-09
1.22926e-09
-1.60548e-09
1.504e-09
1.35751e-11
-3.69761e-11
3.82562e-09
-3.81279e-09
-4.37241e-11
3.08922e-11
-2.6076e-09
-2.00506e-09
1.45352e-09
3.15914e-09
-2.09526e-10
4.9447e-10
-4.38477e-10
1.53533e-10
3.3066e-09
-1.81053e-11
3.13848e-11
-4.16679e-09
1.68913e-11
-4.40052e-11
3.78268e-09
-3.78124e-09
-1.96016e-11
1.81627e-11
1.82238e-11
-3.31186e-11
6.27289e-12
-9.36121e-12
3.87009e-09
-3.85175e-09
-4.01531e-11
2.18133e-11
-2.26485e-09
2.85748e-09
1.74891e-10
-7.67517e-10
-3.69826e-09
3.13831e-09
4.04339e-10
1.55608e-10
3.90874e-09
-3.89167e-09
-3.56529e-11
1.85877e-11
1.67438e-09
-4.64972e-10
-4.29863e-09
3.08923e-09
8.2719e-10
-8.32233e-10
-1.02706e-09
1.0321e-09
-3.34004e-09
2.34562e-09
-1.69472e-09
2.68915e-09
3.96704e-09
-3.94201e-09
-5.58113e-11
3.07811e-11
4.08821e-09
-4.10435e-09
-1.37599e-11
2.98983e-11
4.15426e-09
-4.12892e-09
-4.70104e-11
2.16775e-11
5.81756e-10
-1.4846e-09
-2.71768e-09
3.62052e-09
4.0657e-09
-4.08009e-09
1.33782e-12
1.30549e-11
4.09051e-09
-4.07576e-09
-3.13778e-11
1.66245e-11
-1.31513e-09
-6.19373e-09
5.66264e-09
1.84622e-09
-3.85521e-09
-5.50842e-11
3.12967e-09
7.80625e-10
5.71637e-11
4.01087e-09
-8.38765e-11
2.75171e-09
-2.74931e-09
-2.40059e-12
7.55645e-10
3.42298e-09
-4.1453e-09
-3.33179e-11
5.41488e-09
-1.7991e-10
-1.02848e-10
-5.13212e-09
-3.98537e-09
-7.76824e-11
-1.55511e-11
4.0786e-09
2.92772e-10
-2.74829e-10
-1.96963e-09
1.95169e-09
3.36974e-09
-1.20145e-11
3.61535e-11
-3.39388e-09
-6.13383e-09
-1.77047e-09
5.75089e-09
2.15341e-09
-7.177e-11
-5.48421e-10
7.45891e-11
5.45602e-10
-1.40648e-09
-2.72891e-09
1.23005e-09
2.90534e-09
-3.07073e-09
3.07288e-09
-1.85919e-11
1.64433e-11
-3.64073e-11
2.38744e-11
9.97834e-10
7.46845e-10
-9.1749e-10
3.48369e-09
-9.28914e-10
-2.79927e-09
2.445e-10
-1.54948e-09
2.40838e-09
1.90719e-09
-2.76609e-09
3.58408e-09
-3.56427e-09
-4.1974e-11
2.21601e-11
3.1529e-09
-2.54842e-10
7.81465e-10
-3.67953e-09
-3.94575e-10
4.25149e-09
-3.929e-09
7.20777e-11
-2.9718e-09
2.89187e-09
2.01476e-09
-1.93483e-09
2.80335e-11
2.72367e-09
1.33501e-09
2.4243e-09
-3.47733e-09
-2.81984e-10
3.42749e-09
-3.68583e-09
-1.15476e-09
1.41311e-09
3.26779e-09
9.43514e-11
-3.10621e-09
-2.55927e-10
-3.25212e-11
-4.35341e-09
3.80768e-09
5.78251e-10
-1.86305e-09
1.9097e-09
9.36465e-10
-9.83114e-10
3.7581e-09
-3.74747e-09
-2.98759e-11
1.92434e-11
-4.93139e-11
-3.48958e-09
1.55389e-10
3.38351e-09
-3.59815e-09
3.59026e-09
-1.00218e-10
1.08114e-10
9.33215e-10
-3.47371e-09
2.82586e-09
-2.85373e-10
-2.11607e-09
2.01106e-09
-1.73495e-09
-1.00354e-09
9.35976e-10
-8.31753e-10
8.99322e-10
-3.21423e-09
2.05621e-10
9.42456e-10
2.06615e-09
-3.81367e-09
-3.22138e-12
1.18637e-10
5.89126e-11
-1.56969e-10
-2.29599e-09
-2.19654e-09
2.03957e-09
1.5697e-10
3.38702e-09
-3.39154e-09
-1.1917e-11
1.64306e-11
-4.20465e-09
4.18571e-09
8.75842e-11
-6.864e-11
-4.36857e-10
4.3342e-09
-4.36091e-09
-9.97107e-10
2.47686e-10
-4.1632e-10
1.16574e-09
1.80199e-09
-4.69087e-09
7.16986e-09
-4.28098e-09
-9.16765e-11
2.72749e-10
-1.9821e-10
1.71377e-11
3.30077e-10
-3.83766e-09
-1.16729e-10
3.62431e-09
2.78074e-09
-2.14826e-09
-6.32478e-10
-1.38371e-10
-6.61177e-11
3.40018e-09
-3.19569e-09
-1.84433e-09
-7.35399e-10
1.61255e-09
9.67172e-10
2.71013e-11
-2.14099e-11
2.42445e-10
7.86325e-10
-2.89385e-10
-7.39385e-10
3.13038e-09
-7.80831e-10
-2.30592e-09
-4.36329e-11
-1.98931e-10
1.12559e-09
-4.96748e-09
4.04082e-09
1.4406e-09
-6.73361e-10
7.28454e-10
-1.49569e-09
-3.86166e-09
4.37722e-09
-4.05581e-09
3.54025e-09
-8.01867e-10
8.25871e-10
2.18441e-10
1.56477e-09
2.3417e-09
-2.41813e-09
-1.48834e-09
2.66155e-09
-1.2408e-09
1.10553e-09
-2.52628e-09
-1.77814e-09
-2.4725e-09
8.90318e-10
3.36032e-09
-3.47512e-10
6.23371e-11
3.26774e-09
-2.98256e-09
6.21763e-10
5.21522e-11
-3.70751e-11
-6.3684e-10
-4.03535e-09
3.35897e-10
-1.14214e-10
4.47871e-09
-1.92723e-09
-3.67412e-09
1.12264e-09
4.08795e-09
-4.05733e-09
3.52888e-12
-3.41523e-11
4.10992e-09
-3.47124e-11
1.53091e-11
3.52614e-09
-3.48975e-09
-5.74199e-11
2.10347e-11
3.30237e-11
-4.59941e-11
-3.64441e-09
3.82387e-09
-3.27158e-10
1.47694e-10
3.58374e-09
-3.55365e-09
-5.53708e-11
2.52759e-11
-8.4195e-10
4.61498e-10
8.96392e-10
-5.1594e-10
-1.50963e-09
7.91813e-10
3.46061e-09
-2.74279e-09
-8.94768e-10
1.20292e-09
-3.2285e-09
2.92034e-09
-1.91971e-09
2.65612e-09
1.95332e-09
-1.59818e-10
4.62435e-09
-4.55969e-09
9.51632e-11
4.89581e-09
-2.99238e-09
-1.20495e-09
-6.98482e-10
-1.37987e-10
3.82342e-09
-6.52372e-11
-3.62019e-09
-2.23913e-09
3.02078e-09
1.83371e-09
8.85701e-10
-8.39138e-10
3.28195e-10
-3.74758e-10
2.2999e-09
-5.06192e-09
-1.53077e-09
4.29279e-09
2.13974e-11
-4.04049e-11
2.02639e-09
-1.41411e-09
2.04927e-09
3.2486e-09
1.29371e-09
-2.42874e-09
-2.11357e-09
-3.32305e-09
3.08889e-09
8.67169e-10
-6.33005e-10
-1.26147e-09
-1.00836e-09
2.12668e-09
1.43153e-10
-3.05295e-09
3.05759e-09
-1.4591e-11
9.95248e-12
-1.36434e-09
1.40625e-09
-1.03158e-09
-4.8243e-09
8.30435e-10
-4.14874e-11
2.75679e-09
-2.69793e-09
-8.67402e-10
8.08539e-10
9.85381e-10
-4.22655e-09
-7.7198e-10
4.01315e-09
4.01669e-09
-4.07402e-09
1.04271e-09
-4.51943e-09
-1.51174e-09
6.55265e-09
-5.21488e-10
1.58488e-09
-1.42514e-09
-2.57341e-09
2.41367e-09
2.28401e-09
-2.36354e-10
-2.04766e-09
6.19303e-10
-4.25892e-09
5.44161e-09
-1.3385e-09
3.22741e-09
-2.44191e-09
5.52992e-10
3.85088e-09
3.35546e-10
-4.40465e-09
2.18233e-10
-3.00307e-11
-3.9883e-09
3.98392e-09
3.44131e-11
5.67523e-10
-5.67577e-11
-5.82535e-10
-2.69759e-09
1.14906e-09
-6.19359e-10
2.16789e-09
4.90425e-09
1.43621e-09
-3.32329e-09
-3.01717e-09
-3.53463e-09
3.55006e-09
2.17164e-11
-3.7151e-11
4.7377e-09
-4.43377e-09
-3.68965e-09
-2.88652e-12
3.39737e-09
9.34999e-12
8.45242e-11
3.12813e-09
6.99011e-11
-3.28255e-09
4.39528e-10
-4.38161e-10
1.04509e-10
-1.05876e-10
2.64309e-10
-5.26653e-10
-2.14769e-10
4.77113e-10
2.59193e-09
1.94759e-09
-4.38703e-09
-1.5249e-10
7.01895e-09
-5.33246e-09
2.1212e-10
2.96397e-09
1.22541e-09
-1.82443e-09
5.01394e-10
-9.59868e-11
-5.10859e-10
1.05451e-10
-1.60203e-09
-2.52289e-09
-3.87866e-11
4.16371e-09
3.69148e-09
-3.70631e-09
1.16059e-12
1.36642e-11
-1.18324e-09
1.14037e-09
-2.76105e-10
3.1897e-10
1.44883e-10
-2.59348e-10
-3.16307e-09
1.25989e-09
3.41015e-09
-1.50696e-09
4.3914e-09
7.68269e-10
-4.27951e-09
4.14899e-09
-5.15721e-11
2.3042e-11
-7.86574e-10
-3.52078e-09
2.75787e-09
1.92405e-09
-1.31481e-09
1.41714e-09
5.1895e-11
3.14738e-10
-5.31777e-10
1.65145e-10
-1.12811e-09
9.15259e-10
-9.17309e-10
1.13016e-09
-4.69943e-09
4.70644e-09
-4.20748e-10
4.13732e-10
4.37142e-10
-2.23582e-09
-3.80908e-10
2.17959e-09
1.29599e-10
-1.21609e-10
-3.73597e-09
3.72797e-09
-6.50481e-10
1.5022e-10
-1.79739e-10
6.8e-10
3.19771e-09
6.14605e-11
-2.81316e-10
-2.97786e-09
-3.52213e-09
-3.64703e-11
2.39713e-11
-1.52348e-09
2.83798e-09
-2.72098e-09
-6.00697e-09
-2.26811e-09
1.93984e-09
6.33524e-09
2.28187e-09
-2.04316e-09
-2.41686e-09
2.17816e-09
9.94341e-11
1.13416e-10
-3.39757e-09
3.18472e-09
3.41898e-11
-2.29641e-11
-5.82439e-09
5.88633e-09
-1.23365e-10
6.14233e-11
-3.62848e-09
2.2382e-09
1.19735e-09
1.92923e-10
-2.31956e-09
2.18931e-09
1.71513e-09
-2.24515e-09
2.35992e-09
2.1671e-09
2.04297e-10
5.12362e-10
-5.96558e-10
-1.20101e-10
1.39675e-09
-4.59806e-09
4.22814e-09
-1.02683e-09
6.20594e-10
-5.98097e-10
2.55031e-10
-2.77528e-10
4.22592e-11
-5.29491e-11
3.39266e-09
-6.15238e-09
5.99809e-09
-3.23838e-09
-1.533e-09
-2.26609e-09
8.10673e-10
2.98842e-09
5.8999e-11
-3.0254e-09
-4.88754e-11
3.01528e-09
-1.33743e-09
-2.17354e-09
6.13507e-10
2.89745e-09
2.63059e-09
-1.89268e-09
1.19008e-09
-1.92799e-09
-1.76418e-09
-1.85287e-10
1.94947e-09
3.00499e-10
-3.3714e-09
4.98357e-09
-1.91266e-09
-3.03462e-09
3.01718e-09
-2.37941e-11
4.12283e-11
9.00976e-10
-7.32282e-10
-2.57368e-09
2.40498e-09
1.84547e-10
-2.55125e-09
2.80162e-09
-4.34923e-10
-3.56661e-09
3.52153e-09
-4.42555e-11
8.93332e-11
-1.14212e-09
-2.37738e-09
3.53687e-09
-1.73751e-11
5.31791e-09
-4.40411e-09
-1.39244e-09
4.78636e-10
-3.25581e-09
-4.1302e-09
2.26265e-09
4.17946e-09
-3.30815e-11
-4.15096e-09
4.58461e-12
4.49495e-09
-3.85174e-10
-4.52455e-09
4.14775e-10
5.68152e-10
-5.40699e-10
2.5276e-10
-2.80213e-10
-3.56544e-09
4.50334e-09
-9.97342e-10
5.94354e-11
1.08497e-10
-7.55676e-10
-1.54689e-10
-1.7589e-10
-3.24583e-10
1.61343e-10
3.39129e-10
2.05613e-09
3.03721e-09
-2.75255e-09
-5.30004e-10
6.42354e-10
-4.52029e-09
4.40794e-09
3.75242e-09
5.68901e-10
-5.76075e-11
-4.26371e-09
-2.12318e-10
-1.47242e-09
1.68474e-09
-7.82455e-10
1.91789e-09
8.85208e-10
-2.02065e-09
2.02746e-09
-1.21925e-09
2.41066e-09
-4.59395e-09
-3.91063e-09
3.53656e-09
4.96802e-09
-3.60498e-09
-1.1679e-10
7.73648e-11
5.14751e-10
-4.94991e-10
2.2991e-10
-2.4967e-10
-2.36631e-09
2.58708e-10
-1.64883e-10
2.27248e-09
-1.71832e-09
-3.39149e-09
1.40962e-09
3.70019e-09
-3.50664e-09
3.51524e-09
2.31253e-11
-3.17228e-11
-3.37058e-10
8.41517e-10
-2.01448e-09
1.51002e-09
1.16123e-09
-1.18235e-09
-2.06842e-09
2.08954e-09
2.29355e-09
-2.49796e-09
-2.38389e-09
-1.31433e-09
5.49559e-09
-4.18126e-09
-3.62905e-09
2.66934e-09
3.88154e-09
-2.92184e-09
1.08972e-11
-2.09606e-11
1.64283e-10
-5.93711e-09
-2.00137e-10
5.97297e-09
-1.28123e-09
-4.2202e-09
4.97142e-09
-7.42241e-10
-3.42764e-10
1.085e-09
1.23911e-10
-3.1622e-09
-7.0826e-10
4.77214e-10
-4.332e-10
2.18799e-10
-2.62812e-10
2.46275e-10
-7.17092e-10
-2.19723e-09
2.66804e-09
-3.38291e-09
-4.93015e-12
2.048e-10
3.18304e-09
4.03216e-09
-9.31803e-11
2.80608e-11
1.33104e-09
-5.35644e-09
5.16341e-09
1.08419e-09
-6.73788e-10
-1.15249e-09
7.42086e-10
4.11544e-11
-1.78415e-10
3.58081e-09
-3.44355e-09
3.84946e-09
-4.66098e-09
8.35227e-10
-2.37115e-11
-3.66058e-09
7.02851e-11
3.65388e-09
-6.35892e-11
3.91946e-10
-3.6677e-10
2.01962e-10
-2.27137e-10
3.94425e-09
-4.19338e-09
-9.6103e-10
1.21016e-09
-4.10929e-09
4.07193e-09
1.02007e-10
-6.46439e-11
1.34843e-09
8.23031e-10
-2.17146e-09
-9.46077e-12
8.60676e-11
-2.45954e-09
2.15545e-09
-4.01996e-10
7.06091e-10
-1.20182e-09
1.21213e-09
2.9599e-09
-2.9702e-09
1.67898e-10
-1.16833e-09
1.96637e-10
3.78961e-09
-3.77016e-09
-2.1608e-10
-3.89311e-09
3.24629e-10
3.68501e-09
-1.16531e-10
5.86435e-10
-3.16216e-10
-3.14924e-10
4.4705e-11
4.08463e-09
-1.65199e-09
-3.55216e-09
9.70669e-11
-8.55199e-11
3.70751e-09
-3.71906e-09
1.05003e-10
-2.46736e-10
3.16362e-09
-3.02189e-09
3.41621e-10
-3.24758e-10
1.8295e-10
-1.99812e-10
-3.00474e-09
3.74974e-09
-1.53263e-09
7.87621e-10
2.68884e-10
-3.80289e-10
4.56973e-09
4.34871e-10
-2.44303e-09
-2.56156e-09
-4.02543e-09
3.97314e-09
9.06604e-11
-3.83757e-11
-5.30394e-11
4.30782e-11
4.49489e-10
9.78087e-10
2.65651e-09
-4.06852e-11
-3.94668e-09
3.92999e-09
5.73688e-11
3.03539e-10
-2.90527e-10
1.64304e-10
-1.77317e-10
-3.8522e-09
3.74199e-09
1.98538e-10
-8.83269e-11
1.96951e-09
2.56147e-10
-1.71462e-09
-5.1104e-10
2.806e-10
-3.00774e-10
1.4866e-10
-1.28486e-10
-4.97914e-11
1.2621e-10
-3.94289e-09
3.90614e-09
7.20567e-11
-3.53105e-11
-3.97912e-09
4.04233e-09
-2.2539e-11
-4.06683e-11
2.25104e-10
-2.04e-10
1.50769e-10
-1.71872e-10
-2.67164e-10
2.85288e-10
1.84623e-10
-2.02746e-10
-1.65166e-09
1.19471e-09
-2.8831e-09
-3.88558e-09
3.91481e-09
-8.49385e-12
-2.07369e-11
-5.74359e-09
6.74753e-11
-1.48273e-10
1.80485e-09
-1.75688e-09
-3.19254e-09
3.14457e-09
1.03205e-09
-1.01402e-09
-1.14614e-09
-8.45677e-10
9.07572e-10
1.0223e-09
-4.47409e-09
-2.10009e-09
1.86947e-09
4.70471e-09
2.44324e-09
-2.72613e-09
3.38313e-09
-3.10024e-09
1.81304e-10
1.17326e-10
-1.31043e-10
-1.67587e-10
1.83248e-11
-3.47784e-09
-1.82975e-11
3.47781e-09
1.18729e-09
-4.00819e-09
2.88854e-09
-6.76386e-11
-4.86263e-09
4.69428e-09
1.68354e-10
3.95334e-10
1.76677e-10
-1.54311e-10
-4.17699e-10
2.93788e-10
-3.46601e-10
-2.96887e-09
2.96163e-09
-2.15049e-11
2.87429e-11
-1.99216e-09
2.16462e-09
1.46109e-09
-1.63356e-09
3.68206e-11
-2.10498e-11
-2.04764e-12
-1.91837e-12
9.86045e-11
-9.46385e-11
-3.34639e-09
5.48295e-10
-3.62526e-10
3.16062e-09
-2.22664e-09
-3.74685e-09
3.2682e-09
2.7053e-09
3.43869e-09
4.30352e-11
-3.54019e-09
5.84652e-11
-2.70461e-09
-1.19827e-09
2.47774e-09
-3.44819e-09
3.20252e-09
1.98715e-09
-1.74147e-09
-6.91049e-10
-2.5295e-09
1.28406e-10
3.09214e-09
6.90618e-10
4.0998e-11
-6.64415e-10
-6.72015e-11
3.57061e-11
-4.87546e-11
-6.05884e-09
4.66509e-09
4.78641e-09
6.499e-10
-5.70202e-10
5.71045e-10
-6.50744e-10
5.17191e-09
-5.06179e-09
-4.35731e-10
3.25612e-10
2.66452e-10
2.29478e-09
-2.76737e-09
2.06136e-10
1.345e-11
-1.43484e-11
-1.90743e-11
1.99727e-11
3.53662e-10
-1.84193e-10
-3.45358e-10
-2.4457e-09
3.3881e-09
7.90373e-10
-1.73277e-09
3.64539e-09
-3.56842e-09
1.42496e-10
-2.19463e-10
-3.9492e-09
-3.74428e-09
2.69008e-09
5.00341e-09
2.34036e-09
-4.85102e-10
4.86127e-10
-2.34139e-09
-3.5796e-09
3.51952e-09
2.1929e-10
-1.59213e-10
9.00272e-10
-4.09598e-09
4.10923e-09
-9.13521e-10
9.22533e-11
-6.86079e-11
-3.02371e-09
3.07702e-09
-3.68237e-09
-3.26426e-09
-1.5659e-09
1.26034e-09
3.56982e-09
1.48283e-09
-6.60581e-10
5.49281e-10
-1.62624e-09
-4.06379e-09
1.46348e-09
5.83186e-11
-5.24964e-11
5.61701e-10
1.7928e-09
-2.44015e-09
-9.01528e-10
1.54887e-09
1.77588e-09
-3.79115e-09
-2.6756e-09
3.05013e-11
3.36357e-09
-7.04509e-12
7.5786e-12
5.41366e-13
3.89712e-10
-3.39267e-10
-2.59971e-10
-3.50807e-09
-3.64571e-11
3.78942e-11
1.3617e-10
-4.9694e-10
7.54653e-10
-3.93883e-10
3.85966e-09
-9.9354e-10
1.90447e-10
-3.05657e-09
-4.17573e-09
7.72772e-10
-5.95586e-10
3.00415e-09
-2.23447e-09
-1.29533e-09
5.25639e-10
3.36e-09
-6.91125e-09
-1.99096e-09
5.54221e-09
-4.35657e-11
3.42933e-09
1.50804e-10
-3.53657e-09
5.97931e-09
7.13068e-11
9.16655e-11
-4.51663e-11
-4.16836e-09
-1.45532e-09
4.50088e-09
1.12281e-09
-8.61526e-10
2.65336e-09
5.87776e-10
-2.37961e-09
-4.07965e-09
-1.67525e-10
4.14337e-10
3.83284e-09
-3.73403e-09
3.92967e-09
3.81226e-09
-4.0079e-09
1.94958e-09
-2.28583e-10
-2.5929e-09
8.7191e-10
-2.59598e-09
1.53342e-09
-1.73685e-09
2.7994e-09
4.13954e-09
2.22893e-09
-5.18118e-09
-1.26083e-09
-2.41355e-09
3.17409e-09
5.00289e-10
7.8828e-10
-3.91796e-09
2.97783e-09
1.51847e-10
-5.06899e-09
1.04056e-10
7.97029e-10
4.1679e-09
-3.42697e-09
3.87767e-09
6.80898e-10
-1.1316e-09
1.57163e-09
-1.42042e-09
-2.28826e-09
2.13705e-09
3.26417e-09
-3.5612e-09
4.078e-10
-1.10777e-10
1.91577e-09
-2.20548e-09
4.23184e-09
-3.94214e-09
-1.65288e-09
7.2268e-10
-3.12741e-10
1.24294e-09
-1.86446e-09
2.09401e-09
2.53828e-10
-3.327e-10
2.95896e-10
-2.17024e-10
-1.0176e-10
1.00924e-09
-2.74872e-09
1.84124e-09
3.10479e-10
-2.17383e-09
2.30049e-09
-1.63553e-10
2.93207e-10
-2.80082e-10
1.50428e-10
-2.10276e-09
-1.41059e-09
2.05828e-09
1.45508e-09
1.97746e-10
7.56541e-10
-1.36553e-10
-8.17734e-10
3.29938e-09
-4.79489e-09
2.26077e-09
-7.65264e-10
-8.71325e-10
1.44097e-09
-3.40169e-09
2.83204e-09
2.04849e-09
-3.1568e-09
-4.15175e-10
-2.4312e-12
3.94707e-12
-9.56529e-11
9.41371e-11
1.64847e-09
-8.14171e-10
1.08975e-09
-1.59454e-09
-2.48518e-09
1.03652e-09
-3.49439e-09
3.44306e-09
-3.13335e-11
8.26635e-11
7.51193e-11
-6.74683e-11
3.69238e-09
-3.70003e-09
6.38106e-12
1.41213e-10
-1.97984e-12
-1.45614e-10
2.14186e-10
-2.44073e-10
-1.95015e-09
-1.82969e-09
1.99755e-09
-3.26384e-09
3.59773e-09
-4.06792e-09
2.18159e-09
7.90657e-10
-3.42019e-09
4.47945e-10
2.9854e-09
-1.18509e-09
-2.49135e-09
-4.68422e-09
-1.07267e-09
1.05746e-09
-3.50184e-09
-1.92314e-09
3.40886e-09
2.01613e-09
3.52374e-09
-3.52818e-09
3.41289e-11
-2.96938e-11
8.31755e-10
6.75236e-09
-1.99116e-09
-5.59295e-09
-3.73311e-09
1.12424e-10
3.66766e-09
-4.69833e-11
-2.38322e-09
-2.84883e-09
2.90155e-09
2.3305e-09
3.30552e-09
-2.87528e-09
-1.57236e-09
-2.0283e-09
1.63387e-09
-1.08851e-09
1.48294e-09
-2.14605e-10
-2.84427e-09
3.05888e-09
3.34428e-09
-2.23108e-09
1.6083e-09
-5.92408e-09
3.45372e-09
8.62052e-10
5.88666e-12
6.43329e-12
-1.23199e-11
2.7756e-09
-3.77321e-09
-1.97419e-09
-2.06172e-09
-1.18449e-09
2.3807e-09
8.65513e-10
-1.10048e-09
9.87025e-10
-3.98212e-10
5.11667e-10
2.47348e-10
-4.09595e-09
4.00561e-09
-1.5701e-10
8.84958e-10
-5.51042e-10
3.14408e-09
-2.27639e-09
-2.9857e-09
2.54837e-10
-2.84782e-10
-4.08752e-11
-3.89139e-09
3.87144e-09
6.08242e-11
3.38262e-10
-3.7931e-09
-3.02761e-10
3.7576e-09
1.79221e-09
-2.33216e-09
2.06517e-09
-1.52522e-09
2.38283e-09
-3.64492e-09
1.58644e-09
-3.24348e-10
1.60807e-09
8.97591e-10
-3.07323e-10
-2.19834e-09
2.54968e-09
8.31476e-11
-1.80455e-10
-2.38083e-09
2.34893e-09
-6.95699e-10
5.6002e-10
-4.91988e-10
6.27667e-10
6.53299e-10
-1.73362e-09
1.81874e-09
-7.38418e-10
-3.83211e-09
3.89478e-09
1.33968e-10
2.43222e-09
-2.37506e-09
1.91184e-09
-3.28974e-09
-1.3318e-09
2.7097e-09
-4.33069e-09
1.00543e-10
-1.98423e-10
4.42857e-09
1.47834e-11
-8.69694e-11
-6.42999e-10
5.24602e-09
1.18652e-10
-4.72168e-09
3.25617e-10
-3.49838e-10
2.70852e-10
-2.46631e-10
3.58759e-11
-2.01671e-11
-3.17401e-11
4.08883e-11
6.12615e-10
3.45302e-09
-4.91465e-09
9.32538e-10
5.29093e-10
-1.59431e-09
1.9906e-09
1.4974e-09
1.94481e-11
-3.36503e-11
2.62814e-09
-2.35951e-09
-2.91104e-09
2.64241e-09
7.5786e-10
3.41006e-10
-2.04539e-10
2.19515e-09
-3.34885e-10
-3.80883e-09
1.94856e-09
2.42232e-10
-2.68179e-10
3.75727e-10
4.63057e-09
-4.36576e-10
5.6044e-12
-1.28476e-11
-3.07009e-11
3.79441e-11
-4.06264e-09
5.01666e-09
-3.33725e-09
9.96114e-11
-3.77948e-09
3.80947e-09
-2.18722e-09
2.0399e-09
-3.56079e-09
3.70811e-09
1.52682e-10
-3.15994e-09
2.06154e-11
2.98665e-09
-1.52167e-10
3.88053e-09
-3.87856e-09
1.50197e-10
-3.13153e-09
4.06621e-09
2.93092e-11
-9.6399e-10
-1.17813e-09
2.96953e-09
7.61311e-10
-2.5527e-09
4.16632e-09
-4.16552e-09
2.69991e-11
-2.78041e-11
3.93212e-09
-3.07893e-09
-1.29006e-09
2.17203e-09
-1.43871e-10
-1.88793e-09
-1.40231e-10
2.28542e-09
-1.26347e-09
-3.11187e-09
3.09335e-09
4.67783e-11
-2.82537e-11
3.53892e-09
-3.55001e-09
4.41759e-11
-3.30902e-11
-4.67789e-10
-1.30916e-09
6.76468e-10
-1.93449e-09
2.91137e-09
-3.36052e-09
1.84698e-11
3.34386e-09
-1.81444e-12
2.28448e-10
-2.46225e-10
-5.81609e-10
5.5182e-10
-5.92911e-10
5.72748e-10
-7.13792e-10
7.33955e-10
3.49499e-09
-3.49349e-09
2.74399e-11
-2.89409e-11
3.39456e-09
5.07098e-11
-4.92742e-11
-3.39599e-09
3.62482e-09
3.3655e-09
-3.02103e-09
-3.9693e-09
-2.79715e-09
3.35757e-09
-2.21208e-09
3.56963e-09
-3.54299e-09
-3.1988e-11
5.34868e-12
2.26194e-09
5.46054e-09
4.43487e-10
1.52385e-09
1.9765e-09
-1.09197e-09
-3.19909e-09
3.15291e-09
1.0675e-10
-6.05693e-11
-2.87075e-09
4.17605e-10
2.8017e-09
-2.55248e-09
-1.58771e-09
-9.64892e-11
2.71601e-09
-2.61953e-09
2.1148e-10
-2.52734e-10
4.27845e-11
-6.40223e-11
-4.04207e-09
-1.2194e-09
2.23776e-09
-2.31421e-09
2.68994e-09
3.53409e-09
-3.50382e-09
-4.42504e-11
1.39766e-11
5.31819e-10
-5.72635e-09
5.54351e-09
-3.48973e-10
-1.94718e-09
-5.50277e-10
8.76931e-10
-3.47531e-09
9.17568e-10
2.85824e-09
7.40803e-10
-1.06861e-09
-1.70049e-09
-2.39318e-10
-2.20729e-09
2.30484e-09
1.41771e-10
-4.54875e-09
-2.01066e-10
4.63268e-09
1.17131e-10
-5.33365e-09
-4.15389e-10
5.21518e-09
5.33859e-10
3.4916e-09
-3.4731e-09
-3.26356e-11
1.4132e-11
3.1232e-09
-4.14888e-11
-3.11292e-09
3.12076e-11
4.15879e-13
-4.0603e-09
-1.96963e-11
4.07958e-09
4.80216e-11
-4.91505e-11
2.42853e-12
-1.29968e-12
-1.3139e-10
6.42977e-11
4.24655e-09
-3.81565e-09
-3.07525e-10
5.43577e-10
3.80193e-09
4.48832e-09
-5.01383e-09
-3.27641e-09
6.04625e-11
-7.12305e-11
5.12162e-10
1.11148e-09
1.6909e-09
-1.35539e-09
-1.44698e-09
1.86095e-10
-2.11245e-10
3.47531e-09
-3.48433e-09
-5.00944e-12
1.40214e-11
4.71452e-11
1.46645e-10
-3.24371e-09
3.04992e-09
-1.74382e-09
-2.50282e-09
3.08985e-09
1.15679e-09
9.51196e-11
2.76622e-09
1.09441e-10
-2.97078e-09
-3.38625e-09
-8.89731e-10
4.20864e-09
6.73395e-11
-5.50466e-09
5.83866e-09
-9.76999e-10
1.04452e-09
-1.20108e-09
-2.36022e-09
2.51678e-09
7.54995e-11
-4.83556e-11
2.59184e-11
-2.86048e-11
1.31516e-10
-1.2883e-10
3.4654e-09
-3.42728e-09
-6.81499e-11
3.00292e-11
-6.83263e-12
-2.4711e-09
2.47793e-09
6.22198e-11
-5.80256e-11
3.67559e-09
-3.67978e-09
1.40938e-09
2.98013e-09
-4.02926e-09
-3.60248e-10
-4.17944e-11
-2.41306e-09
4.65463e-11
2.40831e-09
-6.78611e-11
1.67355e-11
-2.5416e-11
7.65416e-11
3.37076e-09
-3.33529e-09
-6.17059e-11
2.62394e-11
3.99719e-09
-2.00866e-09
3.89338e-11
1.68179e-10
-1.89398e-10
-3.34229e-09
3.43423e-09
3.62996e-11
-1.28238e-10
-3.69275e-09
4.01397e-09
-7.53051e-10
4.31831e-10
3.98945e-09
4.97424e-09
-5.16176e-09
3.29637e-09
-3.28364e-09
-1.15326e-11
-1.19909e-12
1.55396e-10
-3.36195e-09
3.26555e-09
-3.17115e-09
-8.04041e-11
-6.81426e-11
3.3197e-09
2.34443e-09
7.36901e-11
-6.61095e-09
4.19284e-09
-3.39109e-09
-9.648e-11
3.52974e-09
-4.21686e-11
9.07169e-09
-7.4877e-09
-1.584e-09
8.09785e-10
-4.98312e-09
5.50437e-09
-3.91882e-09
2.47967e-09
-1.95391e-09
-2.47989e-09
2.20212e-09
2.23168e-09
-4.25118e-09
-5.29236e-09
3.40971e-09
-2.85909e-09
2.74423e-09
1.33512e-09
-1.48234e-09
4.71289e-10
-3.2407e-10
-2.17686e-09
2.74119e-09
-5.64335e-10
1.30489e-09
-4.12915e-09
-4.98793e-10
1.79934e-09
-2.04051e-10
-1.30251e-09
3.453e-09
-3.45355e-09
2.82336e-11
-2.76909e-11
7.882e-11
-8.85553e-11
1.73491e-11
-7.61378e-12
1.47297e-10
-1.57224e-10
-3.74997e-09
7.37883e-11
3.77325e-09
4.81224e-09
-4.77885e-09
-5.02302e-11
1.68402e-11
2.42726e-09
-2.45729e-09
-3.10498e-09
2.92223e-09
-1.71379e-10
3.54129e-10
1.24393e-09
-1.16244e-09
-5.37796e-09
5.29648e-09
4.19329e-09
-4.15994e-09
2.58938e-11
-5.92387e-11
-2.37196e-09
2.27839e-09
2.5368e-09
-5.39108e-09
1.22341e-09
4.14317e-09
2.45059e-11
-6.37482e-11
6.66716e-11
-5.91319e-12
2.9898e-12
-3.16227e-10
1.75251e-10
-1.83607e-10
8.64367e-11
-3.71339e-09
3.64776e-09
-2.08043e-11
-4.2633e-09
4.3801e-09
-2.16545e-10
9.97409e-11
-4.39344e-09
2.38298e-10
4.0064e-09
1.4874e-10
-1.37384e-09
-1.31726e-09
9.68762e-10
1.72235e-09
-3.15234e-09
1.23764e-09
-1.21322e-09
1.54543e-10
-2.30214e-10
-4.33499e-09
3.82963e-09
-9.93089e-10
1.49844e-09
1.79098e-09
-1.70676e-09
2.63364e-09
-2.71786e-09
-4.74242e-11
3.43418e-09
-3.41433e-09
3.35837e-09
-2.97205e-11
8.56795e-11
-3.76404e-11
-3.83545e-09
3.81263e-09
6.0458e-11
-3.57297e-09
2.89536e-09
3.3216e-09
-2.64399e-09
3.40307e-11
-1.83543e-11
4.52988e-09
-4.53794e-09
4.43181e-11
-3.6266e-11
3.32061e-09
2.60214e-10
-3.52658e-09
-5.4244e-11
-2.51947e-09
-2.79824e-11
2.54745e-09
-3.04107e-09
2.86904e-09
-2.34743e-09
5.98977e-11
-2.71806e-10
-2.32469e-09
2.00852e-09
1.12263e-09
-8.0646e-10
-1.04009e-10
-3.78863e-09
1.90115e-10
3.70252e-09
2.87788e-09
-4.68562e-09
2.8282e-09
-1.02046e-09
-3.25026e-09
2.3613e-09
-1.06495e-09
1.53763e-09
-1.53198e-09
-1.94257e-09
1.93692e-09
-2.3425e-09
-1.82668e-09
2.21903e-09
-1.07886e-10
2.14605e-10
-3.38894e-09
3.28222e-09
2.42328e-09
2.24559e-09
-1.41299e-09
-9.44238e-11
1.45526e-10
-4.38179e-09
-1.83858e-10
-3.62571e-09
7.64675e-11
-2.14791e-10
-3.54851e-09
4.1691e-10
1.56033e-09
-2.22634e-09
-2.90696e-09
1.93583e-09
-2.89238e-09
2.48634e-09
-1.52979e-09
1.34935e-11
-4.67658e-11
-1.08297e-09
4.476e-10
-1.96151e-09
2.59688e-09
-5.71175e-09
9.48709e-10
-8.37782e-10
3.48523e-09
-1.903e-11
-2.62842e-09
3.45597e-09
-1.32258e-09
5.01643e-10
-2.63503e-09
-2.20044e-11
-9.5622e-11
-5.94616e-12
1.23573e-10
-2.0752e-09
-1.42307e-09
1.39551e-09
3.3268e-09
-3.35047e-09
2.25815e-11
1.0921e-12
4.54168e-09
4.14783e-11
-5.32768e-11
9.9364e-09
-2.19893e-09
-6.90572e-09
1.01041e-09
1.37882e-09
-9.4864e-10
-4.03687e-09
1.77956e-09
-9.96599e-10
3.25391e-09
-6.06909e-09
1.17122e-09
5.76415e-09
-8.6628e-10
2.82286e-09
-1.17998e-09
2.71916e-10
-1.9148e-09
-3.56667e-11
4.16998e-09
-4.22874e-09
4.52381e-09
5.05136e-11
-3.26382e-11
-4.50041e-09
2.32744e-11
-6.08003e-11
3.22152e-09
1.3439e-11
-2.34905e-12
-3.23261e-09
-2.59769e-09
1.39001e-10
-4.84065e-10
2.94275e-09
2.90481e-09
-1.97353e-09
1.492e-09
-3.83836e-09
6.64563e-10
-2.52908e-11
1.19416e-10
-1.30959e-10
2.04293e-11
-8.88708e-12
-3.77173e-09
-2.93025e-10
6.12272e-10
3.45248e-09
-8.06062e-10
9.09646e-10
4.46594e-11
-1.25288e-11
-4.53254e-09
-1.23819e-10
7.73424e-12
-1.76897e-11