/*--------------------------------*- C++ -*----------------------------------*\
  =========                 |
  \\      /  F ield         | OpenFOAM: The Open Source CFD Toolbox
   \\    /   O peration     | Website:  https://openfoam.org
    \\  /    A nd           | Version:  8
     \\/     M anipulation  |
\*---------------------------------------------------------------------------*/
FoamFile
{
    version     2.0;
    format      ascii;
    class       surfaceScalarField;
    location    "4";
    object      phi;
}
// * * * * * * * * * * * * * * * * * * * * * * * * * * * * * * * * * * * * * //

dimensions      [0 3 -1 0 0 0 0];

internalField   nonuniform List<scalar> 
15173
(
6.38109e-09
-5.68644e-09
-1.68247e-10
-5.26408e-10
5.04703e-09
-1.71709e-10
1.1216e-10
-4.98748e-09
-4.4574e-11
5.16686e-09
-5.12373e-09
1.44207e-12
8.51271e-09
-1.64238e-10
3.72554e-10
-8.72103e-09
-5.82218e-09
6.08263e-09
-2.12182e-10
-4.8263e-11
6.38668e-10
-9.19857e-09
8.90977e-09
-3.49867e-10
-4.25028e-09
-8.19679e-10
1.14224e-09
3.92772e-09
5.10933e-09
-5.11395e-09
3.52103e-10
-3.47487e-10
-2.03544e-09
2.15243e-09
5.02278e-11
-1.6722e-10
6.31575e-10
-3.3436e-10
4.66903e-09
-4.96625e-09
5.23627e-09
-5.2708e-09
6.7022e-11
-3.24936e-11
6.61363e-09
-1.12331e-11
-2.21304e-10
-2.53463e-09
2.41469e-09
-1.87786e-09
1.9978e-09
5.26263e-09
-5.21898e-09
2.73775e-10
-3.17421e-10
-4.88686e-09
5.07984e-09
1.15196e-10
-3.08172e-10
3.33791e-09
-3.62498e-09
2.87077e-10
5.214e-09
1.09034e-10
-8.67692e-11
-4.27467e-10
-4.28339e-11
-4.41656e-09
9.35064e-10
-8.35521e-10
-9.95429e-11
-2.88355e-09
-9.19421e-10
1.39285e-09
2.41012e-09
2.07602e-09
-4.46627e-11
-2.10409e-09
7.27408e-11
-3.25908e-09
2.89086e-09
3.13719e-09
-2.76897e-09
-5.27544e-09
4.28087e-11
-3.81632e-11
5.89423e-09
4.95236e-10
-6.19274e-09
-1.96728e-10
7.14549e-09
6.17035e-10
-6.53603e-10
-7.10892e-09
-1.58004e-10
5.13719e-11
-5.78428e-11
1.64475e-10
5.42948e-09
-7.31066e-09
2.22744e-09
-3.46251e-10
-2.02765e-09
3.54318e-09
-2.26373e-09
7.48204e-10
7.91624e-09
-6.0536e-09
5.3123e-10
-2.39387e-09
-2.9439e-10
6.95035e-10
8.11206e-09
-5.90023e-09
-5.02134e-09
7.64849e-09
3.27308e-09
5.89523e-09
5.00222e-10
-1.60759e-10
-6.23469e-09
7.58626e-09
2.59567e-09
-8.62662e-09
-1.55531e-09
8.37755e-10
-1.17447e-09
5.06622e-09
-4.72951e-09
4.91242e-09
1.46531e-10
-4.93375e-09
-1.25195e-10
5.25648e-09
1.30755e-09
-6.47109e-09
-9.29334e-11
4.97529e-09
-5.10923e-09
-1.00125e-10
2.34061e-10
-5.11992e-09
-6.82955e-09
3.20183e-09
8.74764e-09
-1.2594e-09
-8.65953e-09
8.28366e-09
1.63526e-09
-6.23997e-09
1.70869e-09
-3.30542e-10
4.86182e-09
5.15717e-09
-9.83778e-11
2.10477e-11
5.11406e-09
6.45942e-10
-5.03163e-10
-5.25684e-09
-6.65936e-09
6.62447e-09
-8.40476e-12
4.32888e-11
5.01944e-09
1.19404e-11
1.56565e-11
-1.84806e-09
1.72851e-10
-3.60233e-10
-3.5584e-09
1.73266e-10
-2.73455e-10
3.65859e-09
-9.70485e-11
8.42353e-11
2.73231e-09
1.32495e-10
-3.673e-09
8.0819e-10
-5.32402e-09
-7.58631e-11
5.3553e-09
-1.20264e-10
3.03533e-10
-2.75437e-10
9.2168e-11
-1.72737e-09
-2.49738e-09
1.69011e-09
4.96047e-09
1.09253e-10
-5.02899e-11
5.8699e-09
2.86515e-10
-5.55671e-09
-5.99704e-10
6.94684e-10
-5.73364e-09
5.86838e-09
-8.2942e-10
-8.50717e-09
2.08123e-09
6.67815e-09
-2.52209e-10
8.16889e-10
-7.42716e-10
6.40819e-11
-1.38255e-10
-9.24626e-10
8.09481e-10
-2.92534e-09
3.04049e-09
5.4482e-10
-5.31307e-09
7.72993e-10
3.99526e-09
-6.62366e-09
6.77875e-09
-2.54803e-10
9.97155e-11
-1.69572e-09
-7.4847e-10
1.82058e-09
6.2361e-10
6.5644e-09
-6.61529e-09
-3.78178e-11
8.87067e-11
-7.03532e-09
6.18351e-09
3.52613e-09
-2.67432e-09
-1.90638e-09
3.57686e-09
-3.5473e-09
1.87682e-09
3.59495e-09
4.95733e-09
-1.58707e-09
-6.9652e-09
-7.61613e-09
2.7631e-10
2.12364e-10
7.12745e-09
3.03262e-11
6.86563e-09
-6.34332e-11
-6.83253e-09
6.58138e-09
-6.57168e-09
2.06199e-11
-9.83354e-11
-6.08128e-10
8.46944e-11
6.21769e-10
1.96255e-09
-5.92402e-10
-5.62042e-09
7.11106e-11
-4.81187e-11
6.54141e-09
2.70685e-09
-2.64647e-09
-2.30734e-09
2.24695e-09
5.22464e-09
-1.69768e-10
-5.21782e-09
1.62949e-10
-2.88486e-10
1.0963e-09
6.99029e-09
-7.7981e-09
-1.68183e-09
8.89581e-10
-9.03477e-10
2.67982e-09
2.00458e-09
-1.97755e-09
-4.98049e-09
4.92736e-09
5.31337e-11
-5.25339e-12
-1.59166e-11
-6.63819e-09
-5.47053e-11
6.38911e-11
-1.37945e-10
-5.20181e-09
6.08868e-10
4.73089e-09
-2.33095e-09
4.51293e-09
7.17472e-09
-3.3617e-09
-3.42649e-09
4.33174e-09
2.45645e-09
-7.13456e-09
7.41586e-09
-4.08508e-10
1.27215e-10
-1.04665e-09
8.61474e-10
-5.03381e-09
-3.58332e-09
4.43505e-09
3.53093e-09
-4.38266e-09
5.31146e-09
-4.96403e-09
-3.47436e-10
4.82693e-09
-9.59359e-11
-3.50674e-09
-1.22426e-09
2.06557e-09
3.87163e-09
-3.86132e-09
-2.07588e-09
-6.50926e-09
6.5528e-09
-5.48392e-11
1.12946e-11
-5.20804e-09
2.84265e-09
-2.55274e-09
4.91813e-09
1.82632e-09
-3.3657e-09
-5.71857e-10
2.11124e-09
1.72307e-09
1.68706e-11
3.36073e-10
-5.05483e-09
5.06729e-09
1.90675e-11
-3.15327e-11
7.40756e-11
4.94464e-10
-9.23174e-11
-4.76222e-10
-6.26415e-09
-5.35303e-09
5.71696e-09
1.33801e-09
4.38602e-09
-4.10976e-09
-1.61427e-09
-4.7973e-09
2.33908e-09
-4.52342e-09
6.98164e-09
-1.93815e-10
6.40487e-10
-5.01597e-10
5.49253e-11
3.41458e-09
-4.65185e-09
-3.06548e-09
4.30274e-09
-3.20189e-09
3.2932e-09
2.39464e-09
-2.48596e-09
2.42922e-11
-5.00478e-09
5.77399e-09
1.73287e-09
-1.86931e-09
-5.63755e-09
6.16779e-09
-2.96992e-09
-3.95373e-09
7.55863e-10
4.75453e-09
1.60354e-09
-2.08668e-09
-4.27138e-09
7.87e-09
1.05887e-09
-7.20556e-09
-1.72331e-09
3.07238e-09
2.55897e-10
-6.22335e-10
-2.70594e-09
8.24313e-09
-8.53161e-09
-4.27229e-10
7.19241e-11
4.2938e-10
-2.63372e-09
-2.4847e-09
2.47195e-09
5.16811e-09
-4.4313e-09
-4.60438e-09
3.86758e-09
-4.78597e-09
4.69484e-09
1.86173e-10
-9.50377e-11
5.49658e-09
-5.21989e-09
4.69541e-09
-4.9721e-09
-1.95873e-09
1.79668e-09
4.66955e-09
-4.5075e-09
-7.28211e-09
-2.70688e-09
2.95367e-09
5.00223e-09
-1.03897e-10
-1.86839e-12
-4.89647e-09
2.83828e-09
-4.15696e-10
1.29095e-09
-3.71354e-09
6.16922e-09
-4.23571e-10
3.81418e-10
-6.12707e-09
-5.64724e-09
-2.66751e-09
3.1067e-09
-6.66988e-09
4.21304e-11
6.65913e-09
-3.13871e-11
-1.33927e-10
9.58701e-10
2.2476e-09
-4.98928e-09
5.01218e-09
3.10317e-11
-5.39246e-11
-6.73781e-10
-5.19754e-09
4.91388e-11
-6.28302e-09
-5.72337e-10
7.42006e-10
6.11335e-09
2.08393e-10
5.30411e-09
-4.17987e-10
-5.09452e-09
2.79194e-10
5.94627e-09
-6.09392e-09
-1.31537e-10
3.89339e-09
-3.4181e-09
-1.68533e-09
1.21003e-09
-3.13246e-09
-4.52168e-11
2.25305e-09
-5.24174e-09
-3.41192e-10
4.73499e-09
8.47946e-10
-6.25044e-10
6.969e-10
-4.05451e-09
3.98265e-09
-1.88159e-09
9.44431e-10
-4.18178e-09
5.11895e-09
1.02606e-09
-8.93228e-09
8.54489e-09
-5.03925e-09
3.40433e-11
-4.96144e-11
3.21585e-09
-2.50941e-09
1.77871e-09
-2.48515e-09
1.64802e-09
-1.09096e-09
-3.5846e-09
3.02754e-09
-5.92327e-09
-8.04621e-10
6.05411e-09
-4.93406e-09
-1.64116e-10
4.7308e-11
5.05087e-09
4.84293e-09
2.47912e-10
-1.15551e-10
9.41957e-09
8.18838e-10
-9.05431e-09
-1.18409e-09
-2.17268e-09
-3.82114e-09
4.15745e-09
1.83637e-09
1.03305e-10
-5.53642e-11
-6.51493e-09
9.0582e-12
-3.38163e-12
3.07581e-09
2.9217e-09
-2.10413e-09
-6.79755e-10
7.42848e-10
-4.71553e-09
4.65243e-09
-4.69108e-09
3.70738e-09
-4.10007e-10
1.39371e-09
1.08147e-08
-6.2891e-09
-7.27629e-09
2.75072e-09
-6.93934e-11
5.28167e-10
3.56904e-11
7.3258e-09
-2.32043e-09
1.76697e-09
-6.77235e-09
1.16317e-09
5.09362e-09
-1.14273e-09
-4.79348e-09
-2.29069e-10
8.84885e-11
5.74135e-09
-5.39934e-09
2.1662e-09
-2.50822e-09
-4.31175e-09
-7.61403e-10
4.44811e-09
5.75841e-09
-6.83443e-09
-1.49302e-10
1.22532e-09
-3.33286e-09
-3.08471e-09
2.71292e-09
3.70464e-09
4.91189e-09
-2.67857e-09
-3.38762e-09
1.1543e-09
-4.92417e-09
4.94329e-09
2.82817e-11
-4.74058e-11
6.54765e-09
-1.09366e-11
-4.24491e-12
-6.53246e-09
-4.80363e-09
4.80511e-09
-2.14823e-11
1.99946e-11
9.76032e-10
-1.7805e-09
-2.21177e-09
3.01624e-09
-5.61291e-10
2.51193e-09
1.2652e-09
-5.18079e-09
5.18831e-09
-8.8798e-12
1.36017e-12
-5.35496e-09
5.52122e-09
-2.25862e-10
5.96052e-11
-1.09934e-09
3.73408e-09
-5.55579e-10
-2.07916e-09
-4.84638e-09
4.83597e-09
-3.27002e-11
4.31038e-11
2.15128e-09
6.97545e-09
-7.33465e-09
-1.79209e-09
-4.89968e-09
4.88098e-09
-3.76681e-11
5.63626e-11
-5.18724e-09
5.1603e-09
-2.75733e-11
5.45097e-11
5.08556e-09
2.39296e-10
-2.15523e-10
4.03831e-09
-4.08027e-09
-3.54136e-09
7.41452e-10
-1.30223e-09
-9.88772e-09
5.19779e-10
-5.32424e-09
-3.82727e-10
5.18719e-09
-4.95161e-09
4.93896e-09
-3.38424e-11
4.6495e-11
-5.07216e-09
5.06412e-09
1.45885e-10
-1.37854e-10
-5.11544e-09
5.09215e-09
-2.99821e-11
5.32699e-11
-4.98136e-09
4.9751e-09
-2.79789e-11
3.42389e-11
2.85129e-09
-3.9719e-09
2.08544e-09
-9.64836e-10
-5.04341e-09
5.02633e-09
-3.43284e-11
5.14037e-11
-1.18626e-09
2.77332e-09
-2.6864e-09
-2.36061e-10
-5.32733e-09
5.56339e-09
-2.15807e-09
6.9317e-10
-6.31107e-10
2.09601e-09
-1.80902e-11
4.93747e-09
-4.91938e-09
-1.63283e-11
-7.04604e-11
6.70042e-09
-1.825e-10
5.49396e-09
3.12911e-09
2.69469e-09
-2.82044e-09
-3.00336e-09
-1.84147e-09
9.31895e-10
-1.00265e-09
1.91222e-09
-1.81237e-11
4.18766e-12
-4.76488e-09
6.07209e-11
-1.38772e-10
4.84293e-09
3.10789e-09
-2.69265e-09
1.62716e-09
-2.0424e-09
-4.11432e-10
7.68246e-11
-9.26211e-11
-5.50858e-09
4.16078e-09
-6.10926e-10
4.55465e-09
-4.53682e-09
-1.78354e-11
-3.67619e-09
3.74471e-09
1.7578e-09
5.20279e-09
5.63099e-11
-3.44615e-11
-2.34435e-10
-3.49665e-09
3.73109e-09
8.32234e-09
-5.50602e-09
-3.33232e-09
5.16e-10
1.88678e-09
2.16191e-10
-3.28923e-09
-3.55605e-11
1.9257e-10
5.0084e-09
-5.16541e-09
-1.01839e-09
1.09154e-09
9.86979e-10
-1.06013e-09
-3.47454e-11
2.56393e-10
-2.11814e-11
-2.00466e-10
-1.18734e-09
-3.30479e-09
1.60858e-09
-6.508e-09
3.59779e-12
-1.05302e-11
-4.66669e-09
-2.89626e-10
1.62842e-10
4.88146e-09
-8.46189e-11
1.6363e-10
3.48489e-11
-1.0571e-10
6.23425e-11
-2.77947e-11
5.03274e-09
-2.01114e-10
1.89042e-10
-6.18311e-09
6.19519e-09
-1.04002e-10
-5.6906e-09
5.7946e-09
-8.88426e-10
8.71647e-10
-1.00161e-09
7.11311e-09
-5.10796e-10
1.76432e-10
6.18154e-10
-1.14498e-10
-1.89976e-09
1.3961e-09
7.74262e-11
1.70027e-10
-6.59618e-11
-1.81491e-10
-4.9593e-09
2.32637e-11
-5.32516e-11
2.59867e-09
-2.3542e-09
-5.84613e-09
5.60165e-09
1.88284e-10
-9.27962e-11
2.9062e-09
-2.37738e-09
-5.2882e-10
-1.47005e-09
9.24089e-10
7.69144e-09
-6.47928e-09
-5.06903e-11
6.51188e-09
-4.10541e-10
2.26857e-10
-4.48301e-09
-1.30628e-09
1.78843e-09
-5.17323e-09
-6.00695e-09
5.94377e-09
-1.37934e-10
1.69874e-11
1.61475e-11
-3.31348e-11
-6.39303e-09
7.36815e-10
6.3509e-09
-5.0173e-09
1.39601e-09
2.85957e-09
7.61719e-10
5.04164e-09
5.53293e-10
-4.09455e-09
-1.50038e-09
5.0159e-09
4.17267e-09
-5.19611e-09
3.19933e-11
-2.31193e-11
3.35278e-09
5.64757e-09
-5.43098e-09
-3.56938e-09
-6.06893e-09
-5.63033e-09
5.4351e-09
-7.48181e-09
1.68732e-09
-1.54725e-09
7.34174e-09
8.59616e-12
6.59708e-09
5.50612e-12
-1.33026e-11
3.50595e-09
5.22722e-09
-2.54966e-09
3.88158e-09
-8.05138e-11
-4.20081e-09
3.99735e-10
6.96733e-11
-1.28132e-10
-3.52973e-10
-1.99882e-10
2.53114e-11
-5.04351e-11
2.25006e-10
1.37146e-10
-5.36006e-09
5.35822e-09
-1.35306e-10
3.22204e-09
-2.92852e-09
3.23948e-09
-3.533e-09
-6.46416e-09
-6.09995e-11
4.5878e-11
-5.05137e-09
-6.68932e-10
5.25136e-09
4.68943e-10
1.63038e-09
-4.46624e-09
-1.77049e-09
4.60634e-09
-1.10982e-11
8.48588e-12
6.55026e-09
8.08127e-09
-6.82503e-09
-8.50763e-10
-4.05472e-10
6.20896e-09
-6.12778e-09
1.07863e-10
4.62627e-09
-4.75292e-09
-5.65826e-11
1.83228e-10
2.26556e-10
6.42447e-09
-4.42065e-10
-4.53312e-09
-7.96705e-11
8.13496e-11
4.53145e-09
-4.34904e-09
1.96626e-09
3.81474e-09
-1.43196e-09
4.95652e-09
-1.90542e-11
-9.43845e-09
-2.7094e-10
8.78909e-09
9.20303e-10
-5.86756e-09
-4.43282e-09
5.18047e-09
-4.53654e-09
3.35064e-11
4.49715e-09
5.87676e-12
-2.33271e-10
5.11202e-09
-4.99107e-09
1.12322e-10
1.5288e-09
6.9641e-09
-8.41299e-09
-7.99147e-11
1.75502e-10
-1.52017e-10
2.25074e-11
-4.59927e-11
-2.81953e-11
4.58285e-09
6.42424e-09
-6.41384e-09
-5.25442e-11
4.2142e-11
-4.3723e-09
-6.2728e-11
4.43503e-09
6.1067e-09
-4.97565e-10
3.55544e-10
-5.96468e-09
4.14816e-09
-2.43056e-09
-3.89029e-09
3.13421e-11
-7.12612e-11
1.1695e-08
8.36391e-10
-4.66142e-09
4.68285e-09
-3.3721e-09
1.5773e-09
-2.88804e-09
5.89714e-09
1.18709e-09
-1.45093e-09
-5.6333e-09
-3.31838e-09
2.98121e-09
1.39222e-09
-1.05505e-09
-5.32488e-11
-6.37542e-09
-5.58629e-12
6.43426e-09
-6.33489e-09
6.35176e-09
-5.2958e-11
3.60872e-11
6.18329e-09
-2.85612e-11
9.12392e-11
-6.24597e-09
-6.45575e-09
8.07605e-11
6.79773e-09
-4.22741e-10
8.11685e-10
-8.99371e-10
-8.0074e-10
-5.14075e-09
5.24191e-11
-2.7106e-11
-4.82335e-11
2.38532e-11
-4.44584e-09
1.22861e-09
4.84761e-09
-3.17712e-09
-2.72347e-09
3.73096e-09
2.16963e-09
-2.20112e-10
2.45077e-10
-2.49644e-11
2.64805e-09
-2.54262e-09
-2.73915e-09
-1.54073e-09
-5.29858e-09
6.33472e-10
6.20584e-09
-6.27473e-09
6.2899e-09
-3.4952e-11
1.97829e-11
2.90968e-09
-5.06509e-09
4.22098e-09
4.35691e-11
-6.17553e-09
6.15807e-09
-2.61174e-11
-5.32285e-09
1.29368e-10
5.33063e-09
-1.90578e-09
-3.53536e-09
1.46908e-09
3.97206e-09
3.88184e-09
-3.9174e-09
6.32773e-09
-6.32473e-09
-2.92994e-11
2.62941e-11
-6.38823e-09
-6.00209e-11
3.44185e-11
-5.91452e-11
3.20682e-11
1.45389e-09
-4.2314e-09
-2.23979e-09
-1.99496e-09
4.24837e-09
-1.28045e-09
1.28143e-09
1.09056e-09
-1.74006e-09
1.98687e-09
-3.15344e-09
2.90663e-09
2.02483e-11
-2.22489e-10
-5.28847e-09
5.49071e-09
-6.31584e-09
2.03218e-10
-1.81106e-10
6.29373e-09
-4.89615e-09
2.47625e-11
-5.27763e-11
-1.29692e-10
2.13652e-11
-4.36901e-11
-5.22924e-09
5.39612e-09
2.44443e-09
-2.61131e-09
-2.63748e-09
-8.37093e-09
5.50239e-09
5.48816e-09
5.28843e-10
-2.58587e-10
4.17136e-09
-3.28597e-09
-1.46377e-09
5.78384e-10
5.14386e-10
6.00157e-09
-2.8365e-09
-3.67945e-09
-4.41309e-09
-4.96781e-11
3.26076e-11
4.43016e-09
-7.83015e-09
4.62965e-09
-3.88508e-09
7.08558e-09
2.31317e-09
-2.41392e-09
-4.72287e-09
4.82361e-09
6.17312e-09
-2.72231e-11
-6.15959e-09
1.36982e-11
-2.27244e-09
1.95436e-09
2.67323e-10
3.72133e-09
-2.16363e-11
-3.96701e-09
1.06041e-10
4.51033e-09
9.89919e-12
-5.78474e-12
-6.01659e-09
6.00999e-09
1.23833e-11
2.2913e-09
-3.34545e-09
1.63559e-09
-5.81431e-10
1.93004e-10
-3.96866e-09
4.22421e-09
-4.48545e-10
2.04327e-11
-4.22492e-11
-1.07875e-10
4.93192e-09
5.52122e-10
-9.68102e-10
-4.51594e-09
3.03152e-09
-2.64827e-09
-3.16502e-09
2.78177e-09
-4.88879e-09
3.77612e-10
4.1443e-09
3.66873e-10
2.75711e-09
-1.46746e-09
1.09408e-09
-2.38373e-09
-4.49494e-09
5.03762e-09
2.52032e-09
-6.38675e-09
-1.78081e-09
-1.53133e-09
2.27817e-09
2.92459e-09
-3.67143e-09
-2.29296e-09
-7.74111e-10
9.08993e-10
2.47941e-09
-2.82955e-09
-2.32766e-09
2.6778e-09
5.01105e-11
-3.05611e-11
3.85501e-09
-3.64662e-09
-2.20923e-09
-4.75559e-09
2.97671e-09
3.98811e-09
4.42872e-09
-4.40594e-09
-2.27772e-11
6.32946e-10
2.29271e-09
-1.7665e-09
-1.15916e-09
-2.03839e-09
6.1792e-10
2.05342e-09
-5.0693e-09
5.49505e-11
-2.90618e-11
-6.31038e-09
-5.53421e-11
3.08309e-11
2.94034e-09
3.36298e-10
-2.46715e-09
4.05966e-09
7.01566e-10
-3.952e-09
-8.09226e-10
-3.85461e-10
7.56958e-10
-3.71496e-10
-1.43997e-09
-2.76179e-09
2.57462e-09
1.62713e-09
-5.22011e-09
4.62981e-09
5.4637e-10
4.39361e-11
2.09931e-10
1.58211e-09
-2.14549e-11
-1.77059e-09
-7.28293e-11
-3.88092e-09
3.95375e-09
2.85692e-11
-6.50431e-11
6.27197e-09
7.9177e-10
-2.02237e-10
-6.8615e-09
5.59609e-09
-6.60524e-09
4.25821e-09
-3.24906e-09
-1.29235e-09
5.11122e-09
-5.3596e-09
-1.38349e-09
-3.99076e-09
1.69806e-09
5.43746e-09
-4.58285e-10
-5.0042e-09
2.50289e-11
4.25414e-09
7.05922e-11
-9.85689e-13
-4.32375e-09
-1.25082e-09
1.19826e-09
-6.27677e-09
6.32933e-09
-1.40992e-09
-3.52421e-09
1.61575e-09
-3.28375e-09
1.49917e-09
3.08286e-09
-1.29828e-09
-4.01315e-11
-6.01414e-09
6.03986e-09
1.44121e-11
-4.17762e-10
1.46091e-09
-2.25309e-09
1.20994e-09
2.75099e-10
5.15113e-09
-4.72139e-09
-7.04844e-10
-3.63e-09
1.91952e-09
-2.11066e-09
3.33891e-09
5.96678e-09
-3.34773e-09
-5.95796e-09
2.12654e-09
4.62088e-09
-1.99112e-09
-4.75629e-09
-3.98553e-09
6.11547e-09
1.60137e-09
-3.73131e-09
-2.21459e-09
2.33439e-09
2.91173e-09
7.50082e-09
-1.36689e-09
-7.03598e-09
9.02047e-10
-7.03298e-09
7.26429e-09
-1.90152e-09
1.67021e-09
6.14807e-09
-6.12232e-09
-3.1536e-11
-1.90146e-09
1.68356e-09
4.27829e-10
-2.61038e-09
2.49819e-09
-1.61518e-09
1.94931e-10
4.26455e-09
-4.45948e-09
-1.96132e-10
2.16399e-10
-8.72642e-10
8.52375e-10
5.11968e-09
-4.09672e-09
-1.84264e-09
1.43104e-09
4.04241e-09
-5.28045e-09
-5.59135e-09
5.36044e-09
1.11429e-09
-8.8339e-10
-4.4133e-11
2.81272e-11
1.66823e-10
-1.45917e-09
-6.25941e-09
-3.15032e-11
1.61875e-11
2.13497e-09
-9.24009e-09
-3.76681e-10
1.785e-09
-8.00638e-10
-9.84361e-10
-2.17509e-09
6.78384e-09
4.01243e-10
-5.01e-09
2.70369e-09
3.68599e-09
-4.46693e-09
4.50589e-09
-3.8956e-11
-1.52826e-09
-8.3185e-09
7.10372e-09
2.74304e-09
2.44589e-09
-2.6252e-09
3.18261e-09
-3.0033e-09
-4.51192e-09
1.7501e-11
4.49442e-09
5.62407e-10
4.54881e-09
1.7135e-09
5.99745e-10
-2.31325e-09
-8.74241e-11
5.92027e-09
-8.30607e-10
-8.33485e-10
-7.68828e-09
7.22593e-09
1.29584e-09
4.17595e-11
-5.33344e-09
-2.90363e-11
5.32072e-09
2.11565e-09
-1.2477e-09
-8.67952e-10
-4.99864e-09
3.90291e-11
-2.17491e-11
4.66859e-09
-4.63912e-09
1.15177e-11
-4.09857e-11
-2.10845e-10
-5.51342e-09
4.28956e-10
5.29531e-09
8.30411e-09
-1.27837e-09
-5.10288e-09
5.18091e-09
-1.33185e-10
5.51478e-11
-3.15686e-09
-1.57053e-09
3.80797e-09
-3.28567e-09
-2.00139e-10
3.48581e-09
2.27008e-09
-3.1073e-09
4.08931e-09
-3.2521e-09
7.97339e-09
1.98599e-10
2.28233e-09
4.03433e-09
-3.38475e-09
-2.93192e-09
5.14279e-09
-5.2591e-09
-9.45381e-11
4.01395e-10
-1.05121e-09
1.46023e-09
-8.1042e-10
-2.12248e-09
-1.57544e-09
8.63719e-10
2.8342e-09
5.88094e-09
-5.26391e-09
3.21263e-11
-1.28411e-10
4.92172e-10
-2.4222e-09
-7.18509e-10
2.64853e-09
1.78863e-10
2.43925e-09
-1.64208e-09
3.76957e-11
-9.41183e-11
1.91274e-10
-1.34851e-10
-3.28367e-09
3.66647e-09
-3.98498e-09
3.60217e-09
6.00469e-09
-1.67725e-11
-1.19789e-12
-5.98672e-09
-8.71403e-11
1.06642e-10
-1.95018e-11
-2.22559e-09
7.81551e-09
-8.14525e-09
2.55533e-09
-2.30712e-09
2.41236e-09
4.50591e-09
-4.61116e-09
4.88595e-11
5.3145e-09
-5.3216e-09
2.91601e-10
5.33121e-09
-1.34657e-10
-2.53408e-10
-2.07719e-09
1.91283e-09
-1.40982e-11
4.46412e-12
2.06364e-10
-1.9673e-10
-5.01384e-10
-7.55949e-09
-1.04796e-11
-4.45645e-09
-1.69865e-11
6.01616e-09
5.22349e-11
-6.05141e-09
6.23426e-09
-3.45189e-11
1.77808e-11
-6.21752e-09
8.99628e-11
-6.28469e-09
6.31942e-09
-1.24687e-10
-2.04257e-09
6.33682e-10
-6.29501e-10
-3.0456e-09
1.62686e-09
-3.80137e-09
-2.24714e-09
8.26162e-09
-8.64948e-09
2.635e-09
-6.03923e-09
6.25776e-12
6.07654e-09
-1.4992e-09
1.91157e-10
2.52185e-09
-4.17654e-09
7.47516e-11
1.57994e-09
5.99901e-09
-1.88692e-09
-3.74856e-09
-3.63533e-10
-1.15555e-09
-3.60632e-09
1.34377e-09
-5.00757e-11
1.75726e-11
6.77981e-11
-3.52951e-11
4.69588e-11
6.43255e-09
-6.38955e-09
2.79864e-11
-4.84666e-11
5.02293e-11
-2.73783e-11
1.67534e-10
-5.02531e-09
1.13082e-09
3.72696e-09
9.78819e-10
-2.06167e-09
-3.80593e-09
-2.74082e-12
2.62377e-12
-2.09105e-10
2.09222e-10
-1.62836e-09
-5.97726e-09
2.01428e-09
-2.09453e-09
-1.14851e-10
-2.35588e-09
-8.27107e-10
-4.181e-10
2.35675e-09
1.04256e-09
-6.2975e-09
6.27963e-09
7.97474e-10
-7.79605e-10
-3.3605e-09
8.49768e-10
4.51111e-09
-2.00038e-09
-2.97631e-09
-6.61848e-10
4.18549e-09
-5.47326e-10
-1.38444e-10
8.19663e-11
8.73366e-10
1.22139e-10
-8.82726e-10
4.32107e-11
7.17377e-10
-6.15185e-09
6.16671e-09
-5.49868e-11
3.45526e-10
-3.08304e-10
3.17288e-11
-6.89508e-11
-3.86461e-09
-6.6858e-09
1.39804e-09
9.15237e-09
-3.60625e-09
-5.63942e-09
5.94232e-09
3.30335e-09
2.88822e-09
2.16702e-10
-2.61275e-09
4.79669e-09
-3.16655e-09
1.47468e-09
-3.10481e-09
-5.92335e-09
2.19719e-11
-5.88562e-11
5.96024e-09
6.46975e-10
-7.13794e-10
1.88958e-10
-5.01374e-09
1.42061e-09
-1.82616e-10
3.77575e-09
1.22836e-09
-2.90118e-09
-7.5903e-10
2.43185e-09
-4.53858e-09
-6.07544e-09
6.62848e-09
-1.54022e-09
3.84615e-10
3.06654e-09
-1.91093e-09
8.24464e-11
-6.32798e-09
6.23505e-09
2.59908e-09
7.06868e-09
-7.88943e-09
-1.77832e-09
3.46933e-09
-6.16241e-10
8.72437e-11
-6.52157e-10
2.27864e-09
4.26775e-09
2.59819e-09
-1.18901e-09
4.49313e-09
-5.90231e-09
-6.32747e-09
6.27965e-09
9.61609e-11
-4.83485e-11
-5.29538e-09
5.30615e-09
1.11242e-11
-2.18986e-11
-1.66473e-10
1.79875e-10
2.87114e-10
-7.51363e-09
-8.31628e-09
3.08521e-09
1.04103e-09
-2.60308e-09
-1.79845e-09
5.23243e-09
-1.81909e-10
9.49757e-11
-5.14549e-09
3.75858e-09
-4.0254e-09
5.63554e-09
-5.36872e-09
-3.03341e-09
2.3442e-09
-2.10523e-09
2.79445e-09
5.47459e-09
2.35103e-09
-4.41753e-09
-3.4081e-09
-1.97202e-10
8.58151e-10
-8.57081e-10
-3.44943e-09
-3.60776e-09
3.51108e-09
3.54611e-09
5.45616e-10
2.61533e-09
-1.23292e-09
6.11842e-09
5.15783e-09
5.76466e-09
-5.49301e-09
-3.7549e-09
-3.31244e-09
3.61791e-09
1.29781e-08
-4.225e-09
-5.41417e-09
2.59924e-09
-2.96039e-09
-3.50447e-09
3.86561e-09
-3.66943e-09
4.26257e-09
-2.64309e-09
2.04995e-09
-5.61501e-11
1.41359e-10
3.59928e-11
-1.21202e-10
-4.21159e-09
3.63433e-09
-3.51727e-09
4.09453e-09
-3.69564e-09
3.78594e-09
-9.03093e-11
-5.313e-09
5.34442e-09
-9.17577e-12
-2.2252e-11
1.35913e-09
4.50727e-10
-6.37725e-10
-1.17213e-09
9.9745e-11
-6.7965e-10
-1.62811e-10
3.77003e-09
-1.08303e-09
9.0057e-10
-3.58757e-09
-5.63585e-09
-9.54299e-11
5.50672e-09
2.24562e-10
-1.3993e-09
2.23781e-09
5.1605e-09
3.73363e-10
-3.29877e-10
6.85849e-10
-7.29335e-10
3.43607e-10
-3.52243e-11
3.5732e-09
-5.28958e-11
-4.88119e-09
3.79337e-11
4.0539e-10
7.36359e-09
-5.63402e-09
1.59493e-09
4.0044e-09
-3.67915e-09
-1.92018e-09
-7.84235e-12
-1.45774e-09
-3.76366e-09
1.67925e-09
-2.07606e-09
-7.66362e-10
1.16318e-09
-4.08642e-09
3.72741e-09
-3.85259e-09
-4.11268e-09
4.32312e-09
3.94145e-09
-4.1519e-09
-1.76772e-11
-4.46065e-09
4.47832e-09
5.80751e-09
-2.21984e-09
3.0039e-09
-5.10404e-09
-1.00401e-09
3.10415e-09
4.7818e-09
2.12736e-11
-6.05763e-11
-4.7425e-09
-6.92153e-11
4.80499e-09
-4.78052e-09
4.47403e-11
-1.12153e-09
1.54975e-09
5.51257e-09
-5.94079e-09
2.5204e-10
8.85906e-10
-9.21547e-10
4.54306e-10
2.66301e-09
-9.88609e-10
1.34816e-09
-3.02255e-09
-1.46063e-09
6.88875e-09
-6.92177e-09
1.49366e-09
6.16186e-10
-8.77591e-09
-1.49951e-09
-4.35035e-09
1.96031e-09
2.81946e-09
-2.5941e-09
2.42563e-09
-2.65099e-09
-7.84289e-12
1.29765e-11
-1.57171e-10
1.52037e-10
2.04145e-10
-1.14131e-10
1.55193e-09
4.05243e-10
-5.98039e-10
5.29937e-09
-5.31198e-09
-2.48116e-11
3.74276e-11
5.33308e-09
-5.06856e-09
1.85113e-09
5.13608e-09
-7.4919e-11
1.4163e-10
-5.33817e-09
-3.98679e-11
4.46008e-11
-2.17423e-11
2.57331e-11
2.39155e-09
4.84625e-11
-3.89794e-11
-2.40104e-09
4.62024e-09
-2.31699e-09
-2.30326e-09
3.83716e-09
-3.28503e-09
1.98812e-09
-2.04403e-09
7.49082e-10
-6.95389e-09
-1.35145e-09
7.38793e-09
9.17418e-10
-3.812e-11
-5.91562e-09
3.03817e-11
4.46184e-09
-3.31238e-11
-5.11103e-09
-1.16363e-09
1.95024e-09
4.32441e-09
-4.52891e-09
3.36566e-11
3.97335e-10
4.19882e-09
-6.65116e-09
2.74753e-09
3.90362e-09
5.84976e-11
3.25363e-09
-1.8694e-09
-1.44273e-09
6.26915e-09
5.71118e-09
-8.4542e-09
2.14053e-09
4.76056e-09
-1.73298e-09
-4.23072e-09
-8.40171e-10
4.39114e-09
-7.19005e-09
6.06191e-09
1.23809e-11
-3.75346e-11
-1.52203e-09
-3.64945e-09
3.71898e-09
1.45249e-09
3.88816e-09
-5.28569e-09
-3.17012e-11
5.91774e-09
5.67285e-11
-5.94277e-09
1.8486e-09
-3.26864e-09
-1.61337e-09
-4.15433e-09
3.68737e-09
2.43316e-09
-1.9662e-09
-4.77835e-09
4.88139e-09
-1.8178e-09
1.71476e-09
1.36728e-10
-7.79506e-11
-1.16478e-10
5.77004e-11
9.71109e-10
-7.94949e-10
-4.64365e-09
1.43372e-10
-3.62585e-11
-1.20234e-09
3.97501e-10
1.25556e-09
-4.01643e-09
2.82604e-09
4.10007e-09
4.41043e-10
8.56531e-10
-1.68304e-09
-2.12169e-09
2.45682e-09
-3.35136e-10
-6.76535e-10
1.53709e-11
-2.21562e-10
5.84478e-09
4.73611e-11
-5.86961e-09
-2.25303e-11
-3.02876e-09
3.16385e-09
-2.32984e-09
2.19475e-09
5.04912e-09
1.72665e-10
-8.57065e-11
6.63158e-10
2.5573e-09
-1.49739e-09
-2.45328e-11
5.82319e-09
4.61219e-11
-3.04273e-10
-4.7824e-09
7.59434e-11
-1.21456e-10
4.82792e-09
-3.88149e-09
-2.43933e-09
9.38111e-10
5.3827e-09
6.7885e-09
-7.46306e-10
4.58759e-09
1.89271e-10
1.51163e-10
-4.92802e-09
1.14726e-11
6.96857e-09
-6.89385e-09
-8.61988e-11
5.08536e-11
-2.31607e-11
-7.0831e-10
2.49521e-09
-2.26212e-09
4.75222e-10
-6.35122e-09
6.30713e-09
-2.03476e-11
6.44432e-11
3.81441e-09
5.29007e-09
-4.79969e-09
-4.3048e-09
5.37643e-11
-3.25855e-09
3.25039e-09
-4.55999e-11
-3.36939e-09
2.40123e-09
-2.00815e-09
-9.98171e-11
1.51006e-10
5.79748e-10
-5.32259e-09
3.25315e-10
2.61951e-09
-3.48253e-09
1.61998e-09
7.48738e-10
-6.97002e-10
3.45e-10
-3.96736e-10
-5.38295e-09
3.1449e-10
4.85267e-09
-3.68025e-09
5.37123e-11
-6.09289e-09
6.08654e-09
-6.49491e-09
6.4078e-09
1.15678e-10
-2.85691e-11
-1.01902e-10
5.03017e-09
2.14526e-10
7.93849e-09
-8.38462e-09
8.4909e-11
3.61226e-10
-5.31235e-09
-2.8128e-11
2.84933e-11
-4.40454e-11
2.19735e-10
2.21587e-09
-1.78458e-09
-6.90509e-09
4.28248e-09
-4.26372e-09
-1.87639e-11
-3.09156e-09
3.18377e-09
-3.13781e-09
-6.27943e-09
6.25125e-09
-2.03162e-11
4.8498e-11
2.57929e-09
5.42528e-09
-4.40009e-09
-3.60449e-09
-5.03065e-09
3.77896e-11
-9.44542e-11
5.08732e-09
-5.65131e-09
-2.64658e-09
-2.58367e-10
8.55626e-09
5.46573e-09
-8.3546e-10
-4.63027e-09
-3.60945e-11
-4.33621e-09
-5.42812e-09
3.7895e-10
2.35587e-09
-4.07577e-09
-1.17503e-09
2.89494e-09
-8.9405e-09
-1.62293e-09
1.10308e-09
-6.38091e-09
-2.84238e-09
8.12021e-09
2.78027e-09
-5.36144e-10
-2.11654e-09
-1.27584e-10
6.94547e-09
-1.57239e-09
2.1238e-09
-7.49687e-09
2.69469e-10
-6.27329e-09
-9.06627e-09
6.79355e-09
3.89819e-09
-1.62546e-09
-9.8096e-10
2.79937e-10
9.53062e-10
-2.46885e-09
-7.11513e-09
2.30186e-09
3.2592e-09
-3.20791e-09
2.48607e-10
-2.99896e-10
-6.22803e-09
6.2082e-09
-2.22195e-11
4.20452e-11
-6.47355e-09
-3.40623e-09
3.05023e-09
9.41652e-10
5.06333e-09
-2.2976e-09
-3.74224e-10
3.55796e-09
-3.60183e-09
-4.61133e-10
-1.7845e-09
-9.9926e-10
-7.02686e-11
1.24856e-09
-1.79033e-10
5.8803e-09
-2.57542e-11
9.62316e-12
-5.86417e-09
2.25843e-09
-5.24733e-09
8.84655e-09
-5.85764e-09
-6.72726e-09
6.75743e-09
-4.65049e-11
-1.22788e-09
3.19698e-09
-1.91059e-09
5.23332e-09
-3.20529e-10
-1.16296e-09
1.14684e-09
3.36649e-10
-9.32965e-09
7.01218e-09
7.89204e-10
3.89215e-09
-2.56406e-09
-4.61176e-09
5.81448e-10
-4.97811e-10
2.4562e-10
-3.29257e-10
-2.07591e-09
-6.37338e-09
6.66471e-09
-7.31983e-09
6.91181e-09
3.29155e-10
3.1224e-11
-7.27219e-09
6.16565e-09
-6.18572e-09
-1.95408e-11
3.96138e-11
4.87509e-09
-9.98043e-11
1.65739e-10
-4.94103e-09
-8.61286e-11
-3.60951e-09
2.9e-09
1.87056e-10
-4.06001e-10
-2.68105e-09
1.01645e-09
1.41744e-09
3.4638e-10
9.22436e-11
-1.65558e-10
-5.02956e-09
7.28941e-09
-4.75686e-09
-3.78337e-09
4.55335e-09
-4.01522e-09
2.81465e-09
-6.04845e-09
-6.76628e-11
6.07799e-09
-6.51339e-09
6.53126e-09
-5.2389e-11
-2.26324e-10
-8.65256e-10
9.23204e-11
-5.81847e-09
1.68678e-11
-4.37558e-11
5.84536e-09
4.44481e-09
-4.47651e-09
-4.02427e-09
3.37225e-09
3.00789e-09
3.17292e-11
6.56726e-10
-4.14799e-11
8.90788e-09
-9.14673e-09
1.02389e-09
-7.8504e-10
-3.76853e-09
3.69932e-09
-2.82453e-09
2.17714e-09
1.64622e-09
-9.98824e-10
2.82603e-09
-3.32876e-09
1.70128e-09
-2.04194e-09
7.48644e-09
-7.75614e-09
-1.71626e-09
1.98595e-09
-1.07907e-08
-1.74571e-09
7.99785e-09
-2.95995e-09
-7.48887e-10
4.98788e-09
-1.27905e-09
5.54645e-09
-1.13823e-09
-1.88255e-09
-3.75604e-09
3.70429e-09
1.9343e-09
-4.69254e-09
-4.72401e-10
-1.33634e-10
8.54225e-11
-5.71257e-09
6.26062e-09
-5.24085e-11
-6.70864e-09
6.77252e-09
3.48503e-09
-3.57654e-09
3.75798e-09
3.35865e-09
-2.86247e-09
3.19258e-09
-4.34654e-09
2.226e-09
-3.75267e-10
-1.51444e-09
1.02561e-09
-1.65265e-09
1.64349e-09
-2.19681e-09
2.03597e-09
-2.34856e-09
3.35741e-09
-3.28488e-09
1.62968e-09
-1.7022e-09
1.55441e-09
-2.15217e-09
-3.5715e-09
4.16926e-09
-6.64244e-09
1.58757e-10
-1.12194e-11
5.33844e-09
-3.5423e-09
-1.81189e-09
1.57461e-11
5.3612e-09
-1.25216e-10
6.81282e-11
-5.05985e-10
4.7961e-09
-4.29011e-09
3.33029e-09
-4.8249e-09
2.47342e-09
-5.77975e-09
5.80059e-09
2.64029e-11
-4.72479e-11
-9.46211e-10
-4.37098e-09
6.24647e-10
8.12241e-09
2.29233e-09
-2.068e-09
-4.77744e-10
1.00765e-11
1.71007e-10
-9.2187e-12
-1.71864e-10
-2.37153e-10
1.50588e-09
-1.88833e-09
6.19599e-10
-2.1484e-09
1.67331e-09
3.2322e-09
7.2063e-09
-1.74057e-09
-1.44943e-09
1.55027e-09
-1.00844e-10
2.99679e-09
-3.04936e-09
-2.54153e-09
-6.72752e-10
-2.51794e-09
1.5291e-09
1.66159e-09
-2.15588e-11
3.11807e-11
-5.80654e-09
5.79692e-09
-2.10028e-11
-4.31883e-09
4.33983e-09
2.55906e-10
1.34572e-11
2.70294e-09
1.23227e-09
-2.73734e-09
-1.19788e-09
2.06382e-09
-2.07701e-09
-4.57536e-09
2.51761e-09
-4.91909e-10
2.54965e-09
-1.44809e-11
7.63779e-12
5.12367e-10
-3.56592e-11
1.81563e-09
1.76084e-09
-8.28978e-10
-3.87245e-09
2.94059e-09
-6.93293e-09
6.87199e-09
-2.64594e-09
-1.95367e-10
2.92333e-09
-3.52677e-09
6.05219e-09
-5.44875e-09
-3.39079e-09
-4.2435e-10
4.30167e-09
-4.86527e-10
-1.93221e-09
-3.59595e-09
3.71114e-09
-2.28155e-09
2.7616e-09
-2.54172e-09
4.57913e-10
-6.66558e-11
4.10847e-09
-2.48456e-09
2.08157e-09
-3.70547e-09
4.39755e-09
-2.95685e-09
7.9711e-10
5.38387e-09
-2.47236e-09
-5.57901e-09
-3.72611e-09
4.97339e-09
3.0584e-11
-1.27787e-09
-6.18819e-09
2.75664e-11
6.19807e-09
-3.7448e-11
3.44812e-10
-3.08351e-10
1.90618e-10
-2.27079e-10
4.97051e-09
-4.98145e-09
-2.94161e-10
1.1793e-09
-1.20567e-09
-4.33131e-09
4.30975e-09
-2.1031e-09
-4.77332e-09
1.7654e-09
-1.93251e-10
-8.22983e-10
-8.05004e-09
-6.24145e-09
6.50556e-09
5.36326e-12
2.82831e-09
7.35634e-09
6.30023e-10
6.15589e-09
-3.23295e-09
3.00714e-09
-5.93008e-09
-7.31259e-09
6.85687e-09
3.34313e-09
-2.88741e-09
3.2034e-11
6.67283e-10
1.77331e-10
3.83602e-09
-4.01335e-09
2.02668e-11
-3.5339e-11
-2.68361e-11
4.24685e-09
-4.22002e-09
-9.39975e-10
-4.10042e-09
8.09666e-10
-3.52466e-09
-2.69311e-09
4.31139e-09
-2.67002e-09
2.80017e-09
6.06762e-09
-6.19776e-09
2.90023e-09
9.44754e-10
-2.16574e-09
4.99905e-09
-4.47842e-09
4.73586e-09
1.82716e-09
-1.66034e-09
9.34908e-10
-6.19875e-10
-3.13957e-09
-2.2262e-10
5.59655e-09
-8.8592e-09
-8.90422e-10
8.49023e-09
-4.81212e-09
1.06826e-09
-1.30751e-09
1.2886e-09
-2.85733e-09
2.52314e-09