/*--------------------------------*- C++ -*----------------------------------*\
  =========                 |
  \\      /  F ield         | OpenFOAM: The Open Source CFD Toolbox
   \\    /   O peration     | Website:  https://openfoam.org
    \\  /    A nd           | Version:  8
     \\/     M anipulation  |
\*---------------------------------------------------------------------------*/
FoamFile
{
    version     2.0;
    format      ascii;
    class       volVectorField;
    location    "4";
    object      U;
}
// * * * * * * * * * * * * * * * * * * * * * * * * * * * * * * * * * * * * * //

dimensions      [0 1 -1 0 0 0 0];

internalField   nonuniform List<vector> 
5490
(
(0.000289793 0.00192931 1.21114e-21)
(0.000283024 0.00194494 1.93714e-21)
(0.000289681 0.00192122 -1.87068e-23)
(0.000292702 0.00192527 -1.24832e-21)
(0.000310427 0.00199953 -1.35956e-22)
(0.000416132 0.000669185 -4.9581e-21)
(4.87415e-06 1.28117e-05 2.93951e-21)
(0.000242331 0.000223792 5.21821e-22)
(0.000310271 0.00194589 2.35918e-23)
(0.000428198 0.000172737 1.59115e-21)
(0.000297361 0.00194054 -4.24133e-22)
(0.000188124 0.00123401 0)
(0.000300022 0.00193199 -7.41771e-22)
(0.000346092 0.00169252 3.97985e-22)
(0.000303178 0.00195216 7.97492e-22)
(0.000491201 0.000153555 -7.68385e-21)
(-3.82933e-07 1.93738e-05 0)
(0.000110813 0.000661839 0)
(0.000253199 0.00169046 -1.30309e-21)
(0.000311358 0.00193496 -8.46315e-22)
(0.000166613 0.00122836 9.71732e-23)
(5.48422e-06 1.47675e-05 -1.48437e-21)
(0.000811649 0.000410864 0)
(1.45106e-06 1.54715e-05 0)
(0.000291363 0.00140398 5.69559e-22)
(0.000308264 0.00193502 1.21851e-21)
(0.000304875 0.00192689 1.55967e-21)
(0.00029254 0.00193941 0)
(0.000450346 0.000781663 2.9993e-21)
(0.000308259 0.0019324 0)
(0.000301237 0.00196758 -5.06349e-22)
(2.84638e-05 2.18198e-06 0)
(0.000210846 0.00181573 3.05536e-21)
(0.000388885 0.00196867 1.20076e-21)
(0.000297858 0.00191431 -1.0462e-22)
(0.000314563 0.00167873 1.52785e-22)
(0.000620278 0.000791742 2.32174e-21)
(0.000299224 0.00169056 3.17961e-22)
(0.000379389 0.00199337 1.11001e-22)
(0.000269216 0.0017008 5.21115e-22)
(0.00031193 0.00179251 5.60173e-22)
(0.000570434 0.000718649 1.11725e-21)
(0.000287947 0.00193161 -1.44154e-21)
(0.000568975 0.000828431 1.4219e-21)
(0.00110281 -6.04232e-05 3.3281e-21)
(0.000314267 0.0017509 -6.11789e-22)
(0.000308831 0.00193746 3.77791e-22)
(0.000380649 0.00199193 3.06878e-22)
(0.000324802 0.00179245 -8.17525e-23)
(0.000675482 0.00140448 -5.3795e-22)
(0.000428387 0.000274627 0)
(0.000314312 0.00192396 -2.26882e-22)
(0.000303279 0.00189285 2.37878e-22)
(0.000312042 0.00195078 2.02927e-22)
(0.000301409 0.0019354 -1.30299e-21)
(0.000351419 0.00196499 3.96885e-22)
(0.00151469 8.87248e-05 -1.19386e-21)
(0.000949703 -1.55987e-05 -1.31899e-21)
(0.000339231 0.00199524 0)
(0.000354965 0.00199034 8.04416e-22)
(0.000445682 0.000823932 -1.15305e-21)
(0.000247364 0.00201328 1.50401e-22)
(0.000299106 0.00180498 0)
(0.000200976 0.000189748 -1.01613e-21)
(3.36619e-06 2.46185e-05 0)
(0.000415803 0.00038622 0)
(0.000502852 0.000151958 0)
(0.00142258 0.000285253 1.38731e-22)
(0.000328893 0.0017593 0)
(0.00101441 5.54017e-05 1.32839e-22)
(0.000301083 0.0019459 2.55277e-22)
(0.000357438 0.00198625 -3.80344e-22)
(4.80316e-05 0.000365275 5.08336e-22)
(0.000258936 0.000123467 -3.94437e-22)
(0.000371902 0.000278035 1.93388e-21)
(0.000336688 0.00177328 1.50553e-22)
(0.000662828 0.000559546 3.48872e-21)
(0.000317765 0.00186154 0)
(0.000271016 0.00170541 -7.774e-22)
(0.000342693 0.00199544 -7.0665e-23)
(0.000539978 0.000576823 6.42362e-22)
(0.000624847 0.000253261 -2.0062e-21)
(0.000211644 0.000758384 2.34093e-21)
(0.000263584 0.00170481 1.26057e-21)
(0.000306457 0.00199805 -4.16236e-23)
(0.000317227 0.00179097 -4.55848e-23)
(-0.000517118 0.00040407 -4.96626e-22)
(0.000291207 0.000489901 1.4266e-21)
(0.00035396 0.00198518 -1.57246e-23)
(0.000674362 0.000869208 -1.649e-21)
(0.000504296 -0.000201708 -2.07292e-21)
(0.000144828 0.000740684 -2.42465e-21)
(0.000381775 0.00197863 8.3821e-23)
(0.000916589 -3.73793e-05 -1.13198e-22)
(0.000268969 0.00149716 -1.3824e-21)
(0.000488057 9.5446e-05 2.04228e-21)
(0.000364347 0.00198761 4.91284e-22)
(0.000548542 0.000692766 7.48076e-22)
(0.00124694 0.000450918 5.19715e-21)
(0.000309224 0.00175976 6.70747e-22)
(0.000187505 0.00125137 -8.43295e-22)
(0.000295683 0.00168815 -5.87934e-22)
(0.000315577 0.00175804 1.1977e-21)
(0.000490832 7.02105e-05 9.18563e-25)
(0.000403674 0.00196377 0)
(0.000326593 0.00196931 3.17191e-24)
(0.000306608 0.00173873 -4.60511e-22)
(0.000241352 0.000973182 -1.24163e-21)
(0.000223894 0.000106836 6.07146e-22)
(3.09783e-05 2.79353e-06 3.53186e-21)
(0.000501209 -4.82231e-05 4.42943e-21)
(3.02123e-05 0.000309537 2.31066e-22)
(0.000752169 0.000193697 4.73085e-22)
(0.000288368 0.00176907 4.23431e-22)
(0.000360891 0.00198596 4.04768e-24)
(0.000755132 0.00078238 -1.11281e-21)
(0.000316738 0.00185477 0)
(0.000757959 0.000237074 1.03019e-21)
(0.000929392 0.000178399 -2.86041e-22)
(0.000355999 0.00199508 4.30396e-22)
(0.00033211 0.00196718 6.79734e-22)
(0.00111782 0.00179536 4.74113e-22)
(0.000371023 0.000763316 3.81251e-21)
(0.000261945 0.00170768 -1.37784e-21)
(0.000507831 -0.000317216 0)
(0.000327641 0.000336005 -2.5928e-21)
(0.000185673 0.00127298 3.79005e-22)
(0.000279233 0.00185847 1.86396e-22)
(0.000492968 -4.85831e-06 2.08718e-21)
(0.000339481 0.00170041 -3.43243e-22)
(0.00100527 -2.39637e-06 -2.63464e-22)
(0.000606694 0.000843632 2.5774e-21)
(0.00041168 0.00175327 4.15782e-22)
(0.000330336 0.0017765 1.33099e-22)
(0.000385101 0.00198684 -3.39212e-22)
(6.87708e-06 0.000268171 0)
(0.000979467 -2.49402e-05 0)
(3.41497e-05 0.000350371 2.6255e-22)
(0.000472213 0.000257711 -5.04341e-22)
(0.000303123 0.00171074 -4.99371e-22)
(0.000491032 -0.000101727 2.19481e-21)
(2.59252e-07 7.6481e-05 8.97234e-22)
(0.000357282 0.00197783 6.26491e-24)
(0.000377391 0.000960966 -1.44622e-21)
(1.74598e-05 -5.30397e-06 -1.54708e-21)
(0.000817137 -0.000138202 -4.88307e-21)
(8.02816e-05 0.00170341 -1.6611e-23)
(0.000769987 -0.000167565 0)
(0.000314946 0.00182294 9.9269e-23)
(0.00058176 0.000745016 -5.5939e-22)
(2.3377e-05 4.69491e-06 0)
(0.000192981 8.54309e-05 -3.52088e-26)
(0.000183413 0.00123631 4.4277e-22)
(3.2681e-06 0.000131595 0)
(0.000793511 0.000698575 3.16506e-21)
(6.90632e-06 3.52449e-05 -8.50136e-22)
(0.000186773 4.56617e-05 -2.47511e-22)
(0.000835483 0.0002087 -2.86901e-22)
(0.000890009 3.36008e-06 1.1005e-21)
(0.000336746 0.00173579 1.95682e-22)
(0.000305153 0.00168565 5.41627e-22)
(0.000668138 0.00106929 0)
(0.000337159 0.000963173 9.32845e-22)
(0.000277943 0.000408644 -1.84947e-24)
(0.000206191 0.000208143 3.00227e-25)
(0.000383267 0.000502211 0)
(3.78898e-05 -3.29527e-06 -1.3152e-22)
(0.000248826 0.00204004 7.3693e-23)
(0.000985604 0.00040693 -2.29188e-21)
(0.000290975 0.00183587 -1.96639e-23)
(0.00096052 -6.62104e-06 3.04736e-21)
(0.000366496 0.00199362 7.93151e-23)
(0.000288056 0.00167341 6.08788e-22)
(3.07906e-05 4.12211e-06 0)
(0.000362578 0.00198659 4.54338e-22)
(0.000319476 0.00200568 0)
(0.000324077 0.00195608 1.24233e-22)
(1.62262e-05 0.000119038 0)
(0.000336561 0.00196787 -2.2626e-22)
(0.000303105 0.00198772 0)
(0.0010175 6.65613e-05 -1.18376e-21)
(0.000162492 0.000189758 1.66962e-21)
(0.000294237 0.00197362 0)
(0.000299922 0.00168979 5.91136e-24)
(5.76219e-07 2.56605e-05 0)
(0.000254842 0.00169469 1.28835e-22)
(0.000288373 0.0016888 -3.79416e-22)
(0.000308116 0.00199859 1.309e-22)
(0.000145824 1.69064e-05 -1.21655e-22)
(0.000443134 0.000208249 1.39219e-21)
(0.00117488 0.000314922 2.19571e-21)
(0.00022532 0.00122 -4.64225e-22)
(0.000310906 0.00185792 -4.25766e-22)
(7.19904e-05 7.70984e-06 -1.73579e-21)
(0.000288871 0.000307256 0)
(0.000356801 0.00198209 4.91322e-22)
(0.000386088 0.00201041 1.98649e-22)
(1.04814e-05 5.26877e-05 0)
(0.000327527 0.000778386 3.44488e-21)
(0.000314102 0.00192247 1.18415e-22)
(6.509e-05 -0.000228014 0)
(0.000336695 0.00172846 1.39121e-21)
(3.42471e-07 4.26797e-05 9.34905e-22)
(0.000500027 1.80344e-05 -1.9651e-21)
(0.000319177 0.00147352 -1.00253e-21)
(0.000928136 -1.42855e-05 5.37918e-22)
(7.70061e-05 -3.04489e-06 2.33776e-22)
(7.89741e-05 -0.000258172 9.83587e-22)
(0.000289166 0.00168909 0)
(0.00118099 0.000172339 2.92671e-22)
(0.000948817 4.87349e-05 0)
(2.76929e-05 0.000249053 2.77744e-22)
(0.000292281 0.00194812 5.45767e-22)
(0.000322032 0.00195919 8.85186e-22)
(0.000306718 0.00188603 1.97931e-21)
(0.000298448 0.00171747 -1.71227e-22)
(0.000340678 0.00178123 -6.05744e-22)
(0.000292238 0.00194021 4.39213e-22)
(0.00103363 5.12903e-06 -5.96634e-22)
(9.36542e-06 4.27167e-05 -6.13592e-23)
(0.00065762 0.000460759 -4.2177e-21)
(0.000146297 5.69337e-06 1.23713e-22)
(0.000775047 0.00117076 -1.08573e-21)
(0.000311267 0.00194507 -2.82237e-22)
(0.000275798 0.00203006 -7.84671e-22)
(0.00033656 0.00197635 2.06819e-23)
(0.00028984 0.00169477 7.89174e-24)
(0.000301084 0.00177521 4.70129e-22)
(0.000307294 0.00194669 -2.52561e-22)
(2.29695e-05 0.000213093 -2.95047e-23)
(0.000180777 0.00128203 -1.73913e-23)
(0.000675918 0.000807322 0)
(3.13947e-05 1.23307e-06 1.77216e-21)
(0.000364829 0.000256919 1.38606e-21)
(0.000184445 0.00121685 7.6798e-22)
(0.000292682 0.00102471 -4.06921e-22)
(5.74463e-05 -0.000201096 0)
(0.000202597 4.99278e-05 9.89277e-22)
(2.026e-05 0.000181771 0)
(0.000307639 0.00193079 0)
(1.12821e-05 5.82142e-05 -5.98315e-23)
(0.000313686 0.00180332 1.38829e-22)
(0.00018089 0.00204012 -9.94932e-24)
(0.000318096 0.00180943 5.96685e-22)
(1.80065e-05 0.000154209 -2.34144e-22)
(0.000631219 0.000485827 -2.68198e-21)
(0.000568011 0.000799901 1.83064e-25)
(0.000178934 0.0016681 4.1006e-21)
(0.000336986 0.000867133 6.6676e-21)
(0.000157463 0.000194692 1.82581e-21)
(8.22772e-06 4.35627e-05 -8.9345e-22)
(0.000190834 0.00160674 6.18157e-21)
(0.000998353 -2.70911e-05 0)
(0.000703189 0.000811089 0)
(0.000283249 0.00166762 1.21502e-22)
(0.000356611 0.00168867 -6.38905e-22)
(0.000366292 0.00169827 -1.26776e-23)
(0.000328063 0.0017888 0)
(0.000311892 0.0019369 -4.37339e-22)
(0.000303998 0.000360894 0)
(0.00129509 0.00035691 -1.88435e-21)
(0.000286271 0.00193497 -1.29599e-21)
(0.000248799 0.00136429 -1.98315e-21)
(0.00104832 -3.69343e-05 9.92876e-22)
(0.000134614 3.86373e-06 4.59711e-22)
(0.000822953 0.000488393 0)
(0.000403006 0.00198387 3.64936e-22)
(0.00120095 0.000568801 1.46093e-21)
(0.000171786 3.92911e-05 0)
(8.46075e-06 -6.23152e-05 4.77092e-22)
(6.88681e-05 -9.78434e-06 -4.89193e-22)
(0.000376063 0.00198137 6.62327e-22)
(7.45983e-05 1.11998e-05 5.80341e-26)
(0.000435224 -0.000501482 2.1362e-21)
(0.000725223 0.00162816 8.12293e-22)
(0.000112764 8.66773e-06 -1.69275e-21)
(0.000254291 0.000158654 2.12245e-22)
(0.000325828 0.00169598 -6.25367e-23)
(0.000350328 0.00193162 -8.5441e-22)
(0.000396419 0.00202534 -3.77805e-22)
(6.2604e-07 3.39266e-05 9.12462e-22)
(8.64515e-05 1.05621e-05 0)
(2.84116e-05 9.67491e-05 -1.22858e-22)
(0.000537972 0.000970237 2.87091e-21)
(0.000305917 0.00142858 -8.81603e-22)
(0.000102533 0.000340239 5.86898e-23)
(0.000389926 0.000898543 0)
(0.000279092 0.000104796 -7.32116e-22)
(9.73112e-05 0.00107615 1.34738e-22)
(0.000342326 0.00179211 -4.53184e-22)
(0.00025947 0.00173041 -1.13734e-22)
(0.000302882 0.000865757 -4.80882e-21)
(0.000251831 0.000718545 -2.01052e-21)
(0.000196862 0.00139194 1.52522e-21)
(0.000287768 0.00140247 -7.73726e-22)
(0.00118817 7.11735e-05 0)
(0.000761802 -0.000239641 0)
(0.000231844 8.96337e-05 1.66736e-22)
(0.00029472 0.00163845 1.82272e-22)
(0.000106109 0.000862269 -4.1187e-21)
(0.000369093 0.00190788 6.62493e-22)
(3.26152e-05 -0.000201899 -4.79037e-22)
(0.000390609 0.00199446 0)
(0.000177397 0.000802805 2.92672e-21)
(0.000314628 0.0017549 0)
(0.000306911 0.00174203 -5.66623e-23)
(0.000994144 -1.13747e-05 0)
(3.91754e-05 -0.000109997 -5.0283e-22)
(0.000295852 0.00178059 3.55493e-22)
(0.000321046 0.00174743 3.29663e-23)
(0.000283626 0.0014024 -6.17073e-22)
(0.000698251 0.000469508 4.23278e-21)
(0.000623085 0.000730935 4.83197e-22)
(0.000278734 0.00179268 2.94813e-22)
(0.000302138 0.00169005 0)
(0.000382869 0.00200547 -2.08962e-25)
(0.000223383 0.00151439 -1.74417e-24)
(0.00100765 6.17703e-05 1.20015e-21)
(0.000181984 0.00137655 2.35616e-21)
(-3.54203e-07 7.00853e-05 -9.04086e-22)
(3.02869e-05 0.00033558 0)
(0.000311056 0.00145557 6.57514e-24)
(0.000335506 0.00169983 1.47035e-22)
(0.000283682 0.000261951 -2.58175e-21)
(0.000845176 7.78887e-05 0)
(0.000379336 0.00192516 0)
(0.000286309 0.00179766 -5.84778e-23)
(0.000314993 0.00180535 1.49175e-22)
(0.000645025 0.000501623 -5.12807e-24)
(0.000285526 0.0014398 1.63513e-21)
(0.000265341 0.00172801 -5.43827e-22)
(3.46731e-05 -3.09711e-06 -1.55796e-21)
(3.69577e-05 -1.54742e-06 0)
(0.000924912 0.000742418 2.86991e-21)
(0.000293122 0.00144532 -1.44658e-21)
(0.000283319 0.00141059 -7.52301e-22)
(1.22369e-05 7.31734e-05 -1.10241e-21)
(0.000368303 0.00197741 2.75537e-23)
(-2.76297e-07 5.80172e-05 1.87786e-21)
(0.000908426 0.000141804 -4.83653e-22)
(0.000955633 9.34348e-06 1.04951e-21)
(2.76402e-05 -7.82118e-05 -7.51154e-24)
(0.000276012 0.00178639 0)
(0.000168299 0.00123633 -1.39212e-21)
(0.000346226 0.00168411 -5.67822e-25)
(0.000303239 0.0019759 -1.20596e-22)
(0.000384786 0.00196715 7.36564e-23)
(0.000219309 6.10887e-05 0)
(0.000316879 0.00167315 -6.61789e-22)
(0.000326853 0.00169792 0)
(2.46672e-06 0.000120707 0)
(0.000308767 0.00174955 4.19011e-22)
(0.000327004 0.0017397 1.22404e-22)
(0.000367646 0.00194546 2.88461e-22)
(0.000339557 0.00174024 0)
(3.08794e-05 5.78833e-07 -2.09864e-21)
(0.000279095 0.00142571 4.77045e-22)
(0.000343802 0.00175048 -3.64159e-22)
(0.000930166 -4.01572e-05 -2.68114e-21)
(0.000311315 0.00186431 1.11278e-21)
(0.000334471 0.00176811 -3.29087e-22)
(0.000386492 0.00199371 4.15536e-22)
(0.000891236 7.39488e-05 0)
(0.000283626 0.00142083 -1.97242e-22)
(0.000224095 0.00141889 -3.13318e-22)
(0.000311807 0.00200277 8.96797e-24)
(0.000277674 0.00174841 -1.69909e-22)
(0.00024122 0.000223934 -4.9548e-22)
(0.000859 -6.1278e-05 -1.81209e-21)
(0.000323501 0.00206581 7.16574e-22)
(0.000198167 0.00141941 0)
(0.000342879 0.00198043 -5.7164e-22)
(0.000349678 0.00194161 1.70344e-22)
(3.97646e-05 -1.79482e-06 -7.07199e-27)
(0.000650974 0.00125282 -1.47543e-21)
(6.93402e-05 -3.14409e-06 2.38516e-22)
(3.22694e-05 8.17669e-05 3.05227e-22)
(0.00035404 0.00193445 4.77489e-22)
(3.8502e-05 0.000397505 -1.47762e-21)
(0.000395524 0.000756883 -3.39402e-21)
(0.000343691 0.00176737 0)
(0.00023671 0.00121035 -2.63429e-22)
(0.000327342 0.00174703 -3.53287e-21)
(0.00033343 0.00175066 -1.62374e-22)
(0.000155661 0.00162286 -3.39206e-23)
(0.000239786 0.00140661 0)
(0.000322816 0.00181503 0)
(0.0003576 0.00199726 6.01553e-22)
(0.000280177 0.00143387 -6.55818e-22)
(3.33458e-05 -3.8626e-06 8.3332e-22)
(0.000323698 0.000914097 0)
(0.000356878 0.00192277 -2.941e-22)
(0.000316955 0.000202999 2.33249e-21)
(0.000294732 0.00195749 6.6123e-23)
(0.000347992 0.00192836 -6.37826e-22)
(0.0003361 0.00198335 -3.164e-22)
(0.0003556 0.00197309 5.78929e-24)
(0.000235018 0.000138776 7.79842e-22)
(0.000384212 0.00191828 1.22572e-22)
(0.000232292 0.00144191 2.25584e-22)
(0.0010016 5.41774e-05 -1.06492e-21)
(-0.000139182 0.00130062 -1.35212e-21)
(0.000299619 0.00168279 -3.04508e-22)
(0.00025601 0.000657001 0)
(0.00035557 0.0019359 4.46886e-22)
(0.00019928 0.000110084 -2.25688e-22)
(2.75443e-05 0.000152414 -2.06223e-22)
(0.000174849 1.20328e-05 -3.21868e-23)
(2.28903e-05 -7.41264e-06 2.76449e-22)
(0.000383138 0.00199424 -2.51014e-22)
(0.000444706 0.0020802 1.84196e-22)
(3.14772e-05 0.000179958 2.39619e-22)
(0.00032594 0.00184907 -6.52647e-22)
(0.000614531 0.00145684 -8.79518e-22)
(0.000350716 0.00193292 0)
(0.000227903 0.00140077 6.12436e-24)
(0.000250627 0.00142833 2.59366e-24)
(3.58853e-05 0.000211149 2.98735e-22)
(1.13158e-05 6.62228e-05 9.31716e-22)
(0.000373964 0.00194529 5.31297e-22)
(0.00034672 0.00197847 0)
(0.000314722 0.00216557 -3.32876e-22)
(0.000403706 0.00176055 -1.42112e-22)
(0.000312038 0.00174541 3.60968e-22)
(0.000702613 0.000831149 -7.07722e-22)
(2.20275e-05 0.00056376 -9.90778e-23)
(0.000344701 0.00169631 0)
(4.18688e-05 -2.6349e-06 1.52702e-21)
(0.00032212 0.00170579 0)
(4.30633e-05 0.000249063 2.21783e-22)
(0.000351782 0.00193107 -4.46896e-22)
(0.00033961 0.00197785 -4.40718e-22)
(0.000361912 0.00198865 -4.76186e-22)
(0.000257225 0.00190344 3.34053e-23)
(0.000332238 0.000546959 1.9548e-21)
(9.4354e-05 1.25714e-05 3.79902e-24)
(2.7048e-05 -0.000179056 -1.87154e-24)
(0.000784608 0.000818338 -2.60048e-21)
(0.000230425 0.0014156 -8.55184e-23)
(0.000329999 0.00169328 2.06871e-22)
(0.000461171 0.00199959 -7.55755e-22)
(0.000344687 0.00192874 0)
(0.000286928 0.0014185 -1.26425e-22)
(0.00035589 0.000692831 0)
(0.000231099 0.00140935 -7.60541e-22)
(3.42493e-05 -9.82313e-05 4.86832e-22)
(0.000290913 0.00177176 0)
(4.11024e-05 -7.73885e-06 2.62287e-22)
(0.000133603 0.000176158 5.57617e-22)
(0.00105112 0.000303187 -6.72829e-24)
(0.000344895 0.00192684 -1.36072e-21)
(0.00100428 0.000111853 2.91858e-21)
(0.000231428 0.00140007 2.33479e-22)
(0.000239474 0.00138099 -1.04031e-22)
(0.000346464 0.00198138 1.05389e-21)
(0.000355703 0.00197961 -4.84972e-22)
(1.0498e-05 0.000313463 0)
(3.36667e-05 2.51821e-06 -3.0814e-21)
(0.000274431 0.00181792 0)
(0.000351406 0.00193271 7.36676e-22)
(0.000352105 0.00192318 0)
(0.00019164 0.00123507 6.15108e-23)
(0.000303652 0.00177187 0)
(0.000293145 0.00176039 0)
(0.000263946 0.000551089 0)
(0.000303685 0.00172458 5.56269e-22)
(0.000308875 0.0016854 -1.42017e-22)
(0.000424142 0.000554523 -1.15506e-21)
(0.000252148 0.00156109 6.88601e-22)
(0.00103794 0.00144747 1.07722e-21)
(0.000296818 0.00173337 -7.39176e-22)
(0.000233765 0.00138833 1.10503e-21)
(0.00024199 0.00139922 -6.01057e-22)
(0.000310115 0.00174732 2.34289e-22)
(9.45911e-05 0.00184702 -1.77461e-23)
(0.000797463 0.000693184 -1.65256e-21)
(0.000962476 0.000393491 -1.32963e-21)
(0.000400677 0.00196815 0)
(0.000270664 0.00173348 3.66392e-22)
(2.81227e-05 -9.21178e-06 -3.85368e-22)
(0.000218255 0.000205302 6.91471e-22)
(0.000205012 0.00124623 -7.01324e-22)
(0.000347717 0.00191875 -1.58194e-21)
(0.000148009 0.00185007 2.06894e-23)
(0.00023342 0.00139837 -5.65523e-22)
(0.000288754 0.00173511 -1.26776e-24)
(0.000952469 -1.08748e-05 0)
(0.000340578 0.00200641 0)
(0.00058552 0.000850828 -1.31949e-21)
(0.000235376 0.00186877 0)
(0.000305625 0.00174461 0)
(0.000305052 0.00182608 1.51848e-22)
(0.000338377 0.00184671 6.68483e-22)
(0.000208951 -0.000125392 5.38642e-22)
(0.000185971 0.000747364 -1.3698e-21)
(3.19381e-05 -1.34729e-05 0)
(1.80499e-05 -7.04174e-05 9.59038e-22)
(2.7577e-05 5.14186e-06 0)
(0.000292367 0.00174431 7.3187e-23)
(0.000283523 0.00173277 -4.08763e-23)
(0.000267293 0.00170425 -2.65849e-22)
(0.000324306 0.00174411 7.07791e-23)
(0.000178686 7.6945e-05 -2.25207e-22)
(7.63213e-06 0.000248345 1.40366e-22)
(0.000599851 0.000327127 -2.88767e-21)
(0.000213692 0.00142057 1.27225e-21)
(0.000305738 0.00181862 0)
(0.000336809 0.00170034 -6.13364e-22)
(0.000428559 0.0010838 8.16448e-23)
(0.000540355 0.00072647 3.31299e-22)
(0.000151007 0.00056998 1.21842e-21)
(0.00100096 0.000697515 1.08828e-21)
(2.122e-05 -5.78385e-06 -2.68545e-22)
(1.02451e-05 -3.27266e-05 0)
(4.02727e-05 -1.8982e-05 -3.9769e-22)
(2.1989e-05 3.94987e-06 -1.53701e-21)
(0.000169888 0.000349937 5.22494e-22)
(0.00024842 0.00122242 -3.64689e-22)
(0.00029544 0.0017833 9.73908e-22)
(0.0003734 0.000526601 5.41086e-22)
(9.24635e-05 0.000726719 1.18785e-21)
(0.000131204 0.000214822 1.35003e-21)
(0.000952879 0.000763228 -1.70046e-21)
(0.000708042 0.000884867 3.92422e-21)
(0.000217811 7.72255e-05 0)
(0.000246228 0.000230739 -2.03056e-21)
(0.000279554 0.00174115 -1.39894e-24)
(0.000335836 0.00059088 -1.61121e-21)
(0.000188273 -0.000118255 -7.46429e-22)
(0.000337375 0.00195377 2.66919e-23)
(7.7464e-06 3.86524e-05 1.90642e-21)
(0.000327868 0.00174908 -4.04397e-23)
(0.000954251 2.46712e-06 -6.57878e-23)
(0.000936962 -6.06243e-06 -1.06341e-21)
(0.000215454 0.0014346 -1.03707e-21)
(-6.90468e-05 0.00121724 5.0887e-23)
(3.6817e-05 4.21096e-07 0)
(0.000261435 0.00087189 2.07049e-24)
(5.49365e-06 0.000213737 1.16065e-22)
(0.00017804 0.00130088 0)
(0.000643103 0.000241435 2.04167e-21)
(0.000396004 0.000884857 6.61074e-24)
(0.000250102 0.000423889 4.25758e-21)
(0.000471549 0.0012695 -1.78696e-21)
(4.02885e-05 -2.24656e-05 2.59949e-22)
(0.000145034 -9.79454e-05 -2.46695e-21)
(0.000485397 0.000866286 2.54231e-21)
(0.000376321 0.000949879 0)
(0.000628502 0.000346152 0)
(0.000114092 0.000165704 1.03785e-21)
(0.000341612 0.00177535 1.58043e-22)
(0.000322933 0.00162536 -1.8876e-21)
(0.000353495 0.00200151 0)
(0.000401452 0.000420435 3.12862e-21)
(0.000118103 0.000272993 0)
(0.000248287 0.00167628 0)
(0.00107512 0.000243167 -1.19114e-21)
(0.000158795 -0.000107018 1.55101e-21)
(0.000325544 0.00184857 0)
(2.17817e-05 -1.34377e-05 0)
(1.14841e-06 0.000100726 0)
(3.54469e-05 -1.44919e-05 5.75977e-23)
(0.000208389 9.73692e-05 -6.41472e-22)
(0.000864352 8.10445e-05 -1.11031e-21)
(0.000927927 0.00101026 2.43312e-23)
(0.000294003 0.00168098 -3.06369e-23)
(0.000348923 0.000552159 -7.46577e-22)
(0.000278454 0.00170234 -9.89452e-22)
(0.000322031 0.00197118 8.38623e-23)
(0.000990958 7.82883e-05 -4.96145e-22)
(0.000258195 0.00176646 0)
(0.00117844 0.000730791 5.07724e-22)
(1.47979e-05 4.00695e-06 4.15249e-22)
(0.000202566 0.00041896 -1.10907e-21)
(0.000127086 0.000184471 3.28781e-25)
(4.83483e-06 0.000183021 -2.36014e-22)
(0.000881814 0.000372542 2.93216e-21)
(0.000193847 0.00137774 7.93967e-24)
(0.000915463 0.00134354 0)
(0.000309675 0.00182862 -1.91484e-22)
(2.88447e-05 6.83852e-06 0)
(0.00133466 6.09528e-05 0)
(0.000431028 0.000903064 -2.90445e-21)
(0.000246917 0.00122593 1.42388e-22)
(0.000330771 0.00179618 2.21151e-21)
(0.000366433 0.00175683 -1.48421e-22)
(0.000983175 0.000378234 -2.15101e-21)
(3.69144e-05 -2.12038e-05 -1.74574e-22)
(4.42207e-05 -0.000123071 4.89718e-22)
(3.85822e-05 -9.38578e-06 3.45353e-22)
(0.00116249 0.000136316 4.90063e-21)
(0.000661081 0.000279418 0)
(0.000159048 2.11447e-05 1.02335e-21)
(0.000813156 7.19764e-06 9.38062e-22)
(4.03235e-05 -1.50867e-05 -7.69796e-26)
(0.000482212 -0.000107106 -1.7942e-21)
(0.000960974 0.000126232 -7.24022e-22)
(1.40082e-05 9.84921e-05 0)
(0.000520815 6.17262e-05 -2.02899e-21)
(3.08751e-05 -8.76927e-05 0)
(0.000339514 0.0019851 -1.15166e-23)
(0.000296846 0.00172837 5.03997e-22)
(0.000109741 -0.000531068 2.72098e-21)
(4.27954e-06 0.000155683 0)
(0.000199805 0.00119042 -7.63625e-22)
(0.000304696 0.00183886 -1.19814e-22)
(0.000313592 0.00175193 -2.31905e-22)
(0.000932967 0.000234652 -1.11445e-22)
(0.000336052 0.00168745 7.49225e-23)
(0.000164604 0.00119826 -2.68346e-21)
(2.17548e-05 -1.74245e-05 -1.59913e-21)
(0.000116014 -8.55628e-05 1.01045e-21)
(0.00134206 0.00035071 -6.07419e-22)
(0.000344083 0.00167993 2.33163e-22)
(0.000355145 0.00198498 1.05082e-21)
(0.000316185 0.00174539 6.33712e-23)
(0.000966008 0.000117414 1.41719e-21)
(0.000650784 0.000816283 -2.07788e-21)
(2.90606e-05 2.48732e-06 8.79693e-22)
(0.00044492 0.00190315 1.50088e-21)
(0.000984525 -4.65551e-05 6.5844e-22)
(0.000338671 0.00176952 -6.83577e-23)
(0.000281136 0.0017462 6.61507e-23)
(0.000346704 0.00199595 -1.48578e-23)
(0.000167866 0.0017398 -3.7542e-24)
(3.29339e-05 1.28919e-06 1.7683e-21)
(2.46345e-05 -6.96674e-05 7.56228e-24)
(0.000313544 0.00167741 -4.48983e-22)
(0.00101678 0.000226262 0)
(0.00130224 0.000528954 6.41734e-22)
(1.01702e-05 -9.50966e-06 -3.01445e-22)
(0.000311716 0.000795826 -2.93161e-21)
(0.00096048 0.000118475 -2.78764e-21)
(0.000185669 0.00154831 6.66111e-21)
(0.00073462 0.00074942 1.42839e-21)
(0.000332012 0.00197534 -6.18099e-22)
(0.000260332 0.0017209 -7.81334e-24)
(0.000281735 0.00173929 0)
(0.000346623 0.000864536 9.44842e-22)
(0.00100448 1.58856e-05 0)
(0.000986108 6.64981e-06 -4.94393e-22)
(0.000399589 0.000862375 2.33223e-21)
(8.6883e-05 1.72667e-05 0)
(0.00010667 0.000232907 -3.23276e-22)
(0.000426431 0.000704888 -2.22415e-21)
(0.000296205 0.00174092 -2.55174e-23)
(0.000341923 0.00173488 -1.00043e-23)
(0.00102056 -1.50486e-05 0)
(0.000757276 0.000447878 -1.23526e-21)
(0.000354637 0.00197923 6.02858e-22)
(7.75076e-05 0.00181166 -1.84053e-21)
(0.00117862 0.000110757 2.06334e-21)
(0.000304862 0.00175464 -2.48088e-21)
(-1.86161e-07 9.23168e-05 0)
(0.00097605 4.30068e-05 9.72548e-22)
(0.000268189 0.000640012 -5.47693e-22)
(0.000131958 3.56746e-05 -1.97324e-21)
(0.00110501 9.05777e-05 0)
(0.000376033 0.000913408 -2.50789e-21)
(0.000218805 0.000957894 1.54536e-21)
(0.000368589 0.000858355 1.05895e-21)
(0.000510649 0.0021101 0)
(0.000456145 0.00103489 0)
(4.31785e-05 -2.59522e-05 -3.17855e-22)
(0.000197064 0.00136171 -4.64409e-23)
(0.000984222 -2.73896e-05 9.86976e-22)
(0.000273518 0.0017712 4.66178e-22)
(0.000529289 0.00163125 -1.12946e-21)
(0.000267132 0.000825028 9.865e-22)
(0.000605117 0.000348053 3.31121e-21)
(1.62444e-05 -6.25607e-05 -1.9094e-21)
(0.00104419 1.59446e-07 -5.94395e-22)
(6.35945e-05 0.000746987 0)
(0.000215375 0.000425799 -2.15578e-21)
(0.000610171 7.52772e-05 1.792e-21)
(0.000298352 0.000911385 -3.537e-21)
(0.000173212 0.000621291 -7.36057e-22)
(0.00034769 0.00198898 1.72856e-22)
(0.000560351 0.000647253 0)
(0.0010707 0.000656446 -1.61336e-21)
(0.000131485 -9.43587e-05 -1.05975e-21)
(8.56894e-05 0.000925515 -4.00858e-22)
(0.000290734 0.00175593 0)
(0.000326624 0.0019545 0)
(0.000816285 0.00220677 -8.17565e-23)
(0.000983733 -5.17972e-05 0)
(2.3033e-05 -9.76113e-06 0)
(0.000142439 0.000385152 -8.83004e-22)
(0.000173167 2.54406e-05 -1.01309e-21)
(0.000262988 0.00169914 -3.18823e-24)
(0.000328667 0.000839098 1.89558e-21)
(0.000143414 4.0563e-05 9.7633e-22)
(0.000356253 0.00193087 -1.8662e-22)
(0.000413821 0.0020477 -1.88551e-22)
(0.000765531 8.86278e-05 3.43661e-22)
(0.000415937 -0.000103734 -2.2155e-22)
(0.000295624 0.000924084 8.20537e-22)
(3.41785e-05 4.292e-06 -1.7798e-21)
(0.00043906 0.00190106 -3.66913e-22)
(0.000362752 0.000974314 4.73554e-22)
(0.000393072 0.00086428 -1.19506e-21)
(0.00033719 0.0017841 7.74837e-23)
(0.000404877 0.00186146 8.29618e-22)
(0.000504043 0.000907674 -4.3928e-21)
(0.000348944 0.00197504 -2.20995e-21)
(0.000117053 -2.31776e-05 0)
(0.00093495 0.00043269 1.35221e-21)
(0.000369634 0.000916437 2.07687e-21)
(0.000721925 0.000801517 2.13333e-21)
(0.000318123 0.00172769 1.79046e-21)
(0.000500365 0.000731487 5.62342e-22)
(0.00071737 0.00080672 1.40793e-21)
(0.000597243 0.000638638 1.07075e-21)
(0.000979655 -6.07639e-05 -1.12821e-22)
(0.00010195 0.000236374 1.82066e-22)
(9.23256e-05 -7.05066e-05 -1.88223e-21)
(3.40739e-05 3.99554e-06 1.72828e-21)
(0.000266641 0.00175592 7.10698e-22)
(0.000427368 0.00193311 -1.47209e-21)
(0.00102977 0.000838399 3.87811e-21)
(0.000422126 -0.000258506 -3.15975e-22)
(0.000230549 0.00173098 1.00305e-21)
(0.000280634 0.00174092 -6.28925e-22)
(0.000446568 0.000353436 -2.685e-21)
(0.000348599 0.00177019 1.41195e-24)
(5.0464e-05 0.000670696 0)
(3.26265e-05 4.25353e-06 -1.39808e-21)
(0.000357934 0.00167646 1.39474e-21)
(0.00038409 0.00201217 -1.97138e-22)
(0.000542713 0.00218195 0)
(1.10866e-05 -3.76743e-05 3.01511e-23)
(0.000438409 0.000937204 8.15703e-22)
(0.000343164 0.00105362 1.50597e-21)
(0.000719477 0.000824105 0)
(0.00070173 0.000759484 2.10141e-21)
(2.30624e-05 -1.96721e-05 3.5689e-22)
(0.000908014 0.000382456 0)
(0.000663152 0.000795056 -1.96179e-21)
(0.00031919 0.00176352 0)
(3.91311e-05 1.00396e-05 -1.17781e-21)
(0.000549073 0.000877744 -3.01469e-21)
(0.000399323 -0.000857826 0)
(0.000351683 0.00192846 -6.05768e-22)
(3.59688e-05 0.00145125 -1.57265e-21)
(0.000353945 0.0016635 -8.05891e-22)
(5.47616e-05 -0.000297997 1.50842e-21)
(0.000414163 0.000845534 3.72506e-25)
(3.18497e-05 7.08136e-06 0)
(0.000675909 0.000855847 -3.05822e-21)
(0.00102259 -3.7864e-05 1.08969e-21)
(0.000599513 0.000470446 -1.51822e-21)
(0.000301545 0.00170731 6.45041e-23)
(0.000620806 0.000445232 2.73963e-21)
(0.000575749 9.37315e-05 6.71571e-22)
(0.000152681 0.000415962 -2.95713e-21)
(0.000326606 0.00175591 5.9133e-22)
(0.00101419 0.00024868 -2.03298e-21)
(3.88324e-05 7.57531e-06 2.02145e-21)
(0.000690666 0.000866121 0)
(0.000370186 0.000940443 1.18873e-21)
(0.00071447 0.000598914 -1.08627e-21)
(2.63552e-05 -9.67486e-06 0)
(0.000258875 0.00171679 -1.70669e-21)
(7.13622e-05 -7.58836e-06 6.22073e-22)
(0.000292495 0.00169187 3.26014e-25)
(2.63792e-05 1.01055e-05 1.85912e-21)
(0.000752271 -0.000116361 1.54784e-21)
(0.000400725 0.00187991 -2.30915e-21)
(0.000276868 0.00173828 3.76454e-22)
(0.000279359 0.00174404 -2.18216e-22)
(0.000998725 3.01405e-05 -3.95034e-21)
(0.000382836 0.00197043 1.07123e-21)
(0.000282791 0.000739155 -1.4259e-21)
(0.000574982 0.00204738 6.75356e-22)
(0.000407867 0.000639335 2.53345e-21)
(0.000824082 0.000684733 -1.3804e-21)
(0.000548485 0.000340662 -1.34311e-21)
(0.000281411 0.00174045 -1.4418e-22)
(0.000257753 0.000756534 3.71641e-21)
(0.000157786 3.38499e-05 -3.06106e-23)
(0.000303661 0.00175553 5.48495e-22)
(1.91583e-05 0.000564963 5.57039e-23)
(0.0003811 0.0015384 5.27318e-21)
(0.00125415 0.000150885 -3.24069e-21)
(0.000773868 0.00238081 -6.31207e-22)
(0.000173842 0.00188506 8.64614e-22)
(0.00139694 4.80128e-05 0)
(3.87165e-05 5.99662e-06 2.72517e-21)
(9.66596e-06 -2.82365e-05 -7.1565e-22)
(0.000113536 0.00069534 -8.5756e-22)
(0.000232415 0.000617457 1.32754e-21)
(0.000547139 0.000364927 -2.13822e-21)
(0.000295785 0.00174537 1.0264e-23)
(0.000352365 0.00199101 0)
(0.000695775 0.000815909 -2.12405e-24)
(0.000545159 0.000678744 -6.03501e-22)
(0.000396212 0.00199045 6.38444e-22)
(2.82677e-05 0.000638947 1.38623e-21)
(9.51425e-06 -2.42083e-05 4.70616e-22)
(0.00056861 0.000306064 3.28854e-21)
(0.000327197 0.00195323 0)
(0.00067662 0.000658308 1.59407e-21)
(0.000127374 0.000747426 -2.76003e-21)
(0.000366683 0.00233838 1.28122e-21)
(0.000362301 0.000527437 1.0859e-21)
(2.38207e-05 -2.58791e-05 -3.58843e-22)
(5.63695e-05 4.01486e-05 4.85828e-22)
(0.000547029 0.000633838 -2.11156e-21)
(0.000175843 0.00133747 -2.84096e-21)
(0.00076854 7.04976e-05 -2.06062e-22)
(0.000257567 0.000585899 -2.27365e-21)
(0.000367748 -0.000258515 0)
(0.000324757 0.00184744 -8.00796e-22)
(0.000775734 7.64546e-05 3.65998e-23)