/*--------------------------------*- C++ -*----------------------------------*\
  =========                 |
  \\      /  F ield         | OpenFOAM: The Open Source CFD Toolbox
   \\    /   O peration     | Website:  https://openfoam.org
    \\  /    A nd           | Version:  8
     \\/     M anipulation  |
\*---------------------------------------------------------------------------*/
FoamFile
{
    version     2.0;
    format      ascii;
    class       volVectorField;
    location    "4";
    object      U;
}
// * * * * * * * * * * * * * * * * * * * * * * * * * * * * * * * * * * * * * //

dimensions      [0 1 -1 0 0 0 0];

internalField   nonuniform List<vector> 
4280
(
(3.23519e-05 1.54246e-05 -8.59941e-23)
(0.000644837 0.00109283 2.99184e-22)
(1.84884e-05 3.25087e-05 -1.24322e-21)
(0.000309237 0.000400464 -8.54422e-22)
(0.000567729 0.000970689 4.63406e-22)
(0.000567316 0.00104103 0)
(0.000584825 0.000939012 0)
(0.000655827 0.00111347 2.69048e-22)
(0.000396079 0.000701836 -5.63797e-22)
(0.000563129 0.00105226 1.69392e-22)
(3.96676e-05 1.62485e-07 5.52445e-24)
(0.00063614 0.00121145 -4.49748e-22)
(3.65838e-05 8.29757e-05 -1.27355e-21)
(0.000590921 0.000455969 -1.64207e-21)
(0.000410572 0.000716368 -4.60491e-22)
(0.000656928 0.00112149 -2.55908e-22)
(0.000474922 0.000859741 5.5e-22)
(0.000313876 0.00101152 -7.87272e-22)
(0.000185087 0.000763054 2.01365e-22)
(0.000654326 0.00111369 0)
(3.62996e-05 -2.49079e-06 -5.05552e-25)
(0.000657128 0.00120395 0)
(4.54039e-05 -6.95876e-05 7.05627e-22)
(0.000728289 0.00129098 0)
(0.000583333 0.00105138 -7.15602e-22)
(0.00052778 0.000891013 -1.1052e-22)
(0.000660725 0.00120209 0)
(0.000576132 0.00103937 -4.40215e-22)
(0.000590883 0.00102885 -3.26555e-22)
(0.000440808 0.0009389 3.73872e-22)
(0.000576455 0.000968912 -9.57467e-22)
(0.00042006 0.00107485 0)
(0.000515671 0.000943826 -5.83682e-22)
(0.000501612 0.000924286 -1.13582e-21)
(3.4157e-05 0.000317445 1.01194e-21)
(0.000575235 0.00104785 7.65615e-22)
(0.00075924 0.0012688 -1.70586e-23)
(0.000435461 0.000838759 8.07712e-22)
(0.000675945 0.00126522 -1.96429e-22)
(0.000585397 0.00103663 7.02064e-24)
(0.000666584 0.000586584 2.97724e-22)
(0.000634179 0.00123601 -5.77231e-22)
(0.000556562 0.000797269 0)
(0.000587989 0.000913496 0)
(0.000502807 0.00094419 -2.24683e-22)
(0.000522161 0.000960137 0)
(0.000908523 0.00109885 -2.35882e-22)
(0.000632177 0.00113206 -2.68342e-22)
(0.000547817 0.00095117 1.10818e-23)
(0.000881599 0.00141353 5.03005e-22)
(0.000495993 0.000882933 0)
(0.000657409 0.00111943 0)
(0.000576679 0.00102308 -3.2478e-22)
(8.50715e-05 0.000677769 -9.62472e-22)
(0.000174613 0.000609395 -4.06913e-22)
(0.000657494 0.00112003 2.43721e-22)
(9.33288e-05 -0.000439089 -3.16853e-22)
(0.000711933 0.00128897 -5.27151e-22)
(0.0005385 0.000926424 -7.40651e-24)
(0.000633643 0.00113278 2.64938e-22)
(0.000585035 0.00103196 5.96991e-24)
(0.000635822 0.00113241 4.16869e-22)
(0.000677329 0.00116528 1.12056e-21)
(0.00057265 0.00104089 -1.10529e-21)
(0.000570522 0.00102647 9.37551e-22)
(0.000678496 0.0011973 0)
(0.00080133 0.000821264 0)
(0.000174765 0.000582509 -5.80683e-22)
(0.000583853 0.00103326 -2.32934e-22)
(0.000638623 0.00113324 -2.46064e-22)
(0.000543907 0.000937508 -1.48158e-22)
(0.000589358 0.00103717 -3.32157e-22)
(0.000750982 0.0012693 -3.25282e-22)
(0.0007254 0.00127768 5.91225e-22)
(0.000841315 0.000453779 1.58904e-25)
(0.0001907 0.000736082 -1.07228e-21)
(0.000427326 0.00077917 0)
(0.00052871 0.000939909 0)
(0.000656555 0.00111479 7.45586e-24)
(0.000214271 0.00083484 -2.85622e-22)
(0.000529774 0.00103369 6.8557e-23)
(0.000674984 0.00120348 7.97075e-23)
(0.000357613 3.64998e-05 -2.13186e-21)
(0.00055673 0.000973934 -6.30618e-24)
(0.000553141 0.000976806 9.6272e-22)
(0.000911447 0.000829715 -1.11423e-21)
(0.000652513 0.00121706 1.89843e-22)
(0.000526817 0.000901661 1.39799e-22)
(0.000231034 0.000864833 -5.45222e-22)
(0.000263565 0.000903092 0)
(0.000686408 0.00120276 3.46734e-22)
(0.000325102 0.000983588 1.89202e-21)
(0.000447671 0.000906514 2.23558e-23)
(0.000524597 0.000915906 -2.18236e-22)
(0.000503577 0.000918418 0)
(0.000550734 0.000910121 4.24216e-22)
(0.000795371 0.00135902 0)
(0.00058354 0.001034 -2.54567e-22)
(0.000694686 0.00114059 4.45875e-24)
(0.000543976 0.000934454 -9.82124e-22)
(0.000585964 0.00103453 -5.91104e-22)
(0.000642184 0.00122526 8.22025e-24)
(0.000726058 0.00130681 0)
(0.000544468 0.00093382 -3.98783e-22)
(0.000636831 0.00113266 2.40792e-22)
(0.000585017 0.00103487 -6.26486e-24)
(0.000542705 0.000965392 -6.00591e-22)
(0.000626807 0.0011159 -1.05136e-21)
(0.000432551 0.000735175 0)
(0.000382457 0.000691672 0)
(0.000278418 0.00073168 6.56821e-22)
(0.000548908 0.000973773 6.71154e-22)
(0.000554036 0.000976379 -9.69823e-22)
(0.000485949 0.000801649 -6.64725e-22)
(4.37617e-05 -2.3877e-06 -5.57847e-24)
(0.00054512 0.00092603 0)
(9.77284e-05 -0.000201695 -1.35281e-21)
(0.000548075 0.000990053 0)
(0.000552035 0.000721495 7.72175e-22)
(0.000561064 0.000437458 0)
(0.00040706 0.00089586 -3.72033e-22)
(0.000525463 0.000937582 1.76506e-22)
(0.000730049 0.00129186 4.29584e-22)
(0.000545692 0.00093056 3.55065e-22)
(0.00052858 0.000945924 0)
(0.000471331 0.000974244 5.38078e-22)
(0.000367555 0.000692827 0)
(0.000510813 0.000975177 -2.77986e-22)
(2.40536e-05 0.000235505 1.7564e-22)
(0.000805411 0.00137208 -4.85507e-23)
(0.00033102 0.000610805 -4.74499e-22)
(0.000610972 0.00109995 2.92575e-22)
(0.00062034 0.00114186 1.76611e-22)
(0.000589071 0.00101875 -3.85615e-22)
(0.000540791 0.000978823 1.38152e-21)
(0.000127155 0.00115455 0)
(0.00072853 0.00130258 0)
(0.000807216 0.00135533 1.20536e-24)
(0.000333527 0.000599772 -2.61152e-22)
(0.000684813 0.00120496 -6.74254e-24)
(0.000551188 0.000971289 -1.05746e-23)
(0.0004911 0.000885135 0)
(0.000253323 0.00045767 1.92013e-22)
(0.000575186 0.001041 0)
(0.000553537 0.000975647 -5.22369e-22)
(0.000650665 0.00110221 1.67635e-21)
(0.00050475 0.000129998 6.31369e-22)
(0.000585272 0.001099 5.17055e-24)
(0.000422911 0.000610702 0)
(0.000553395 0.000973139 0)
(0.000320278 0.000869084 0)
(0.00164277 0.000147478 0)
(0.000561533 0.00100446 -3.94843e-22)
(0.000490294 0.000575632 0)
(0.000364007 0.00113405 -7.99203e-24)
(0.000683317 0.00120611 -1.16322e-23)
(0.000644644 0.000794372 0)
(0.000571969 0.000997624 3.86855e-22)
(0.000519929 0.00091529 5.5509e-22)
(0.000324594 0.000587332 0)
(0.000652582 0.00109223 0)
(0.000635009 0.00120634 1.09751e-21)
(0.000493898 0.000116654 9.62691e-22)
(0.00042818 0.0010221 -1.22382e-21)
(0.000603916 0.00127297 0)
(0.000664408 0.000945868 1.51005e-23)
(0.000693143 0.00119879 2.2261e-22)
(0.00060614 0.0010298 9.18149e-24)
(0.000657978 0.00111585 2.85525e-22)
(0.000718463 0.00127213 4.46065e-23)
(0.000571639 0.000942484 0)
(0.000542953 0.000990761 1.324e-22)
(0.000554729 0.000975259 5.75968e-24)
(0.000230557 0.00159738 -5.41849e-23)
(0.000995714 0.000419694 -1.05012e-21)
(0.000530635 0.00103916 8.10861e-24)
(0.000906661 0.00039433 0)
(0.000298132 0.000693044 9.72126e-22)
(0.000543763 0.000989414 -9.22849e-23)
(0.000602334 0.00102467 -2.9452e-22)
(0.000596171 0.000694792 -7.90384e-22)
(0.000786439 0.000740459 4.26925e-22)
(0.000150336 0.00073077 -8.02657e-22)
(0.000778516 0.00135549 -5.7339e-22)
(0.00095023 0.00152575 5.82633e-22)
(0.000557932 0.00100091 0)
(0.000533683 0.000971226 1.20502e-23)
(0.000809524 7.55861e-05 -1.10674e-22)
(0.000716831 0.00128797 3.89579e-22)
(0.000500474 0.000917506 -3.93198e-23)
(0.000200993 0.000609275 1.31359e-22)
(0.000443342 0.000951382 0)
(0.000560285 0.000970036 -1.18914e-23)
(0.000477423 0.000789157 -3.34546e-23)
(0.000535392 0.000991409 -6.6733e-23)
(0.000680516 0.00110389 -9.3756e-22)
(0.000654785 0.00109124 0)
(0.000643052 0.00107833 -5.44045e-22)
(0.000763454 0.00127121 0)
(0.000812945 0.00136948 -6.99447e-22)
(0.000483187 0.000698682 -4.47557e-24)
(0.000895968 0.000925629 -8.03842e-22)
(0.000527911 0.000924493 0)
(0.000596198 0.00109933 0)
(0.000619256 0.00108905 -7.46162e-22)
(0.000673231 0.00120047 -2.52969e-22)
(0.000547106 0.000930807 1.09877e-21)
(0.000661518 0.00119794 -3.26064e-22)
(0.000544097 0.000944478 -4.84574e-22)
(0.000688442 0.00119399 4.41889e-22)
(0.000688557 0.00118327 -9.4603e-22)
(0.00028479 0.00060993 -7.70866e-23)
(0.000416064 0.000751862 6.55757e-22)
(0.000427116 0.000575568 1.53574e-21)
(0.000576371 0.000994815 0)
(0.00056665 0.00106911 6.53162e-22)
(0.00101792 0.000162831 -8.62519e-22)
(0.000689205 0.00112941 -1.75825e-22)
(0.000671434 0.0012075 2.66869e-22)
(0.000324502 0.000758293 6.87806e-22)
(0.000559706 0.000907738 6.30918e-23)
(3.10091e-05 -1.43434e-05 -3.25818e-24)
(0.000527231 0.000950908 1.36359e-21)
(0.000854823 0.000863258 3.65933e-22)
(0.000353512 0.000782006 -6.63577e-22)
(0.000550973 0.000732476 0)
(0.00101207 0.000408809 7.98955e-22)
(0.000410233 0.000736845 -4.36154e-22)
(0.000558554 0.000977947 0)
(0.00049848 0.000976336 -7.14614e-22)
(0.000965182 5.08143e-05 3.71931e-22)
(0.000559793 0.000971819 -2.85141e-22)
(0.000876096 3.97832e-05 -1.99809e-22)
(0.000453141 0.000845939 -5.55487e-22)
(0.000557744 0.000965349 -1.01335e-21)
(0.000502928 0.000235694 -6.89471e-22)
(0.00052558 0.000964654 -6.88928e-22)
(0.000688145 0.00115826 -3.97079e-22)
(0.000337703 0.000859622 -1.05211e-21)
(0.000743085 0.00126288 -1.41041e-22)
(0.000638914 0.00113343 -2.12013e-22)
(0.000575609 0.000995998 5.40564e-22)
(0.000695402 0.00120592 -1.66971e-22)
(0.000480713 0.00103383 -1.1022e-21)
(0.00076807 0.00126365 -2.41073e-22)
(0.000608434 0.00119886 0)
(0.000537727 0.000907999 2.20229e-23)
(0.000781055 0.00136705 2.28626e-23)
(0.000563895 0.00100863 2.1591e-22)
(0.000526665 0.000937597 1.76411e-22)
(0.000496346 0.00118474 6.72078e-22)
(0.000542422 0.000945375 0)
(0.000600589 0.00103053 6.85347e-22)
(0.000528065 0.000893548 -2.42327e-22)
(0.000734792 0.00144683 4.66364e-23)
(0.000578164 0.00104537 -1.22525e-23)
(0.000472871 0.000511584 1.18395e-21)
(0.000552865 0.000957083 0)
(0.00061396 0.000460838 7.7928e-22)
(0.00082545 0.00113374 1.97866e-21)
(0.000645941 0.00118363 0)
(0.00037737 0.000241233 -7.47328e-22)
(3.79334e-05 0.000622581 0)
(0.000532883 0.000926246 1.32049e-22)
(0.00111417 0.000353676 -1.63411e-21)
(0.000602929 0.00102731 6.52119e-24)
(0.000515713 0.000893838 5.14653e-22)
(0.000761821 0.00128892 -4.68811e-22)
(0.000517709 0.000951976 0)
(0.000949504 0.000867058 1.18406e-21)
(0.000380588 0.00125757 3.49301e-23)
(0.000351917 0.000613424 3.70237e-22)
(0.000687525 0.00120414 -2.72291e-22)
(0.000560136 0.0009434 9.19896e-24)
(0.000572777 0.000950713 -4.87738e-22)
(0.000687823 0.00120591 -2.87679e-22)
(0.00071273 0.000591828 1.45579e-23)
(0.000638981 0.00113359 -4.63208e-22)
(0.000731364 0.00126525 -4.44559e-22)
(0.00073832 0.000336493 1.66458e-21)
(0.000720409 0.00128208 -1.50826e-21)
(0.000518961 0.000960854 -2.03453e-22)
(0.000536572 0.000968941 -2.76014e-22)
(0.000399826 0.000248872 0)
(0.000419384 0.000689495 9.8183e-22)
(2.17155e-05 -1.24529e-05 2.74021e-24)
(0.00102882 0.00136717 -1.5627e-21)
(0.000787718 0.00137412 0)
(0.000626929 0.0010835 1.71228e-22)
(0.000551236 0.000988903 2.92629e-22)
(0.000556722 0.00106792 -2.63103e-22)
(0.000641924 0.00146856 -4.43437e-23)
(0.00043317 0.000874168 0)
(0.000892281 0.00135032 -7.59072e-22)
(0.000402912 0.000663356 5.4696e-22)
(0.000407819 0.000801807 2.57275e-22)
(0.000408011 0.000931597 -5.394e-23)
(0.000679076 0.00114878 1.17171e-21)
(0.000580025 0.00103169 2.14972e-22)
(0.000410724 0.000788512 2.13109e-22)
(0.000403095 0.000894647 1.1996e-21)
(0.000916118 0.000114953 -1.25933e-21)
(0.000744235 0.00127233 -1.22136e-21)
(0.000464217 0.000290097 5.01937e-22)
(0.000659601 0.00121322 3.27184e-23)
(0.000677444 0.00119655 2.50549e-22)
(0.000993181 6.00319e-05 0)
(0.000939107 0.00010809 3.10316e-23)
(0.000821844 0.00137737 1.63053e-22)
(0.000566623 0.00110495 1.20376e-22)
(0.000558437 0.000968814 -5.80575e-25)
(0.000688817 0.000103402 -2.09125e-21)
(0.000581617 0.00102794 3.19104e-22)
(0.000435991 0.000938283 1.09593e-21)
(0.0005718 0.000929559 6.8394e-22)
(0.000704867 0.00129898 -7.15255e-23)
(1.68655e-05 -2.10886e-05 1.02585e-23)
(0.000796562 0.000903389 5.42095e-22)
(0.000674931 0.00121032 -1.93306e-22)
(0.000560579 0.000993071 -6.88537e-23)
(0.000204799 0.000801886 1.24309e-24)
(0.00106234 0.000154283 0)
(0.000201114 0.000931706 1.55063e-23)
(0.000565646 0.000938553 0)
(0.000508965 0.000900863 2.12998e-22)
(0.00101293 0.000190329 0)
(0.000449837 0.000874743 -1.83042e-22)
(0.000273902 0.000728429 -9.42389e-22)
(0.000602774 0.000929723 5.13543e-22)
(0.000607305 0.00103723 6.76191e-22)
(0.000261685 0.000334812 2.41542e-21)
(0.00064128 0.00120316 -7.28039e-23)
(0.000559469 0.00100468 -6.97121e-22)
(0.000481399 0.000931564 7.8993e-22)
(0.000512687 0.000989614 4.6989e-22)
(0.000570712 0.00111848 0)
(0.00039929 0.000661335 -2.68026e-22)
(0.000638116 0.0010905 5.23585e-22)
(0.000811854 0.00136281 1.04913e-21)
(0.000686565 0.00121301 0)
(0.000106639 -8.79867e-05 1.65583e-21)
(0.000353327 0.000614558 0)
(0.000671171 0.00117507 1.25047e-21)
(0.000550807 0.000920397 4.92889e-22)
(0.000538869 0.00103063 7.99e-23)
(0.000686015 0.00121889 -3.36538e-22)
(0.000285426 0.000875994 4.74258e-22)
(0.000327361 0.00070158 -2.97467e-22)
(0.000558088 0.00103047 0)
(0.000676723 0.00110996 2.14683e-22)
(2.64069e-05 0.000817821 0)
(0.000251273 0.00080067 -4.22397e-22)
(0.00138601 0.00025099 0)
(0.000653934 0.00125705 -2.79657e-22)
(0.000749023 0.0001007 4.40136e-23)
(0.000683 0.00115732 6.24849e-22)
(0.000701079 0.00120964 -1.77105e-22)
(0.000285988 0.000841044 5.37839e-22)
(0.000723465 0.00130856 -1.85245e-22)
(0.000680367 0.00111308 -2.13809e-22)
(4.37224e-05 0.000184216 5.76491e-22)
(0.000539154 0.00105051 6.55175e-24)
(0.000699493 0.00112779 -5.74644e-22)
(0.000557539 0.000962251 -3.70327e-22)
(0.000631677 0.00113542 0)
(0.000567909 0.00107341 0)
(0.000529525 0.000916242 -1.05563e-21)
(0.000512115 0.000962727 0)
(0.000410298 0.000657311 -8.34861e-22)
(0.000557451 0.000996875 -2.28349e-22)
(0.000546096 0.00102954 -4.05031e-23)
(0.000544452 0.000942646 3.59516e-22)
(0.000780515 0.0013513 -7.09017e-23)
(0.000339453 0.000645157 1.00754e-21)
(0.000553116 0.000974422 0)
(0.000476617 0.0010155 -3.64363e-22)
(0.000555783 0.000910697 4.14291e-23)
(0.00013562 0.000162631 0)
(0.000558623 0.00114217 9.31938e-23)
(0.000553829 0.000997936 3.63255e-24)
(0.000733822 3.88307e-05 4.84466e-24)
(0.000326071 0.000900604 5.74862e-24)
(3.41628e-05 2.06922e-08 1.08847e-21)
(0.000313171 0.00093116 4.40978e-22)
(0.000589259 0.00115414 -3.05519e-22)
(0.000799218 0.00138092 -8.53409e-22)
(0.000455891 0.000844185 -7.86762e-22)
(0.00058444 0.000994268 -4.91319e-23)
(0.000477854 0.00095715 0)
(0.000986644 0.000782899 6.68207e-22)
(-0.000147684 0.00106669 -5.12757e-22)
(0.000590552 0.00122515 0)
(0.000309764 0.000876126 -1.09265e-21)
(0.000477358 0.000525232 8.26674e-22)
(0.000549282 0.00100429 0)
(0.000676874 0.00111384 4.69422e-22)
(0.000602334 0.00110229 -7.66273e-23)
(0.000312718 0.00034755 -2.54951e-21)
(0.000412272 0.000420439 -1.74993e-22)
(0.000550656 0.000983611 -4.34999e-22)
(0.000449474 0.000907653 4.34938e-22)
(0.000553228 0.000984818 -2.48329e-22)
(0.000610677 0.00109909 -1.91178e-22)
(0.000562331 0.00103653 0)
(0.000777956 0.00127184 -5.85984e-24)
(0.000321967 0.000933168 0)
(0.000611415 0.001102 4.57044e-24)
(0.000663652 0.00110196 2.08076e-22)
(0.000550522 0.000995226 -3.32534e-22)
(0.000785907 0.00134693 5.67597e-22)
(0.000356764 0.000618991 2.62515e-22)
(4.55162e-05 -4.61056e-07 4.13684e-23)
(0.000493275 0.00112157 -6.3257e-22)
(0.000568656 0.000940136 4.55878e-22)
(0.000769107 0.00127245 4.76096e-24)
(0.000736793 0.001591 0)
(2.0414e-05 -3.17241e-05 -6.97789e-22)
(0.000527978 0.000894214 -9.71957e-22)
(0.000635484 0.00116585 0)
(0.000565861 0.000824561 -5.33423e-22)
(0.000466445 0.000922259 0)
(0.000347501 0.000840588 9.11208e-22)
(0.000650853 0.00113409 4.67962e-22)
(0.000853631 0.00110222 -5.46294e-22)
(0.000600523 0.00102383 0)
(0.000801195 0.00136567 8.10799e-22)
(0.000679439 0.00112185 2.18723e-22)
(0.000505619 0.000951467 3.41962e-22)
(0.000556137 0.000974835 -5.93325e-22)
(0.000520018 0.00100228 -2.72042e-22)
(0.000770063 0.00128947 2.37653e-22)
(0.000243713 0.000943434 -1.77276e-21)
(0.000255139 0.000851062 -4.99231e-22)
(0.000464585 0.000876236 -5.15923e-22)
(0.000727648 0.000113971 -4.06574e-22)
(0.000639965 0.000484184 2.06769e-21)
(0.000908676 0.000218119 -1.78826e-22)
(0.000553732 0.000985433 -7.15e-24)
(0.000379615 0.000549218 -8.97761e-22)
(0.000851222 0.00047875 1.54666e-21)
(0.000699302 0.00120676 -4.97066e-22)
(0.000535688 0.000915981 0)
(0.00054502 0.000970184 7.99613e-22)
(0.000286477 0.000825364 0)
(0.000688709 0.00120146 -3.99627e-22)
(0.000673082 0.00117405 -5.0055e-24)
(0.000650655 0.000633723 -1.1115e-21)
(0.000460436 0.000889789 5.9459e-22)
(0.000652953 0.000717592 -1.01686e-21)
(0.000471247 0.000941016 -3.84723e-22)
(0.00040329 0.000491184 2.50834e-22)
(0.000625644 0.000658085 7.89622e-22)
(0.000827074 0.00133001 2.10548e-23)
(0.000583734 0.000962237 1.78171e-23)
(0.000536563 0.00117165 0)
(0.000381437 0.000925983 7.48981e-22)
(0.000621548 0.00112028 -1.31309e-21)
(0.000388449 0.000968084 -8.52537e-22)
(0.000644349 0.000717296 1.20476e-21)
(0.000214019 0.000470176 5.14844e-22)
(0.000605805 0.00130042 -3.55909e-22)
(0.000421867 0.000225056 0)
(0.000607719 0.000862661 -3.17513e-21)
(2.15029e-05 2.74447e-05 -5.2237e-22)
(0.000501442 0.000821113 -1.85085e-22)
(0.000621925 0.00112565 -1.93638e-21)
(0.000533126 0.00101242 2.61953e-21)
(0.0005015 0.00087517 0)
(0.000427957 0.00088463 -1.41451e-21)
(0.000502603 0.00132104 -6.66197e-23)
(0.000603899 0.00119403 9.15927e-24)
(3.21062e-05 0.000743881 0)
(0.000663974 0.000671434 -2.93202e-21)
(0.000638575 0.00113414 -1.88363e-22)
(0.00074653 0.00154629 -4.94815e-24)
(0.000608563 0.000706318 -8.4425e-22)
(0.000563932 0.00103119 -1.01808e-21)
(0.000488539 0.00101114 -5.80276e-22)
(0.000555059 0.000966757 -5.45112e-24)
(0.000568485 0.00104612 8.40036e-26)
(0.000685061 9.07589e-05 -1.97924e-22)
(0.000266186 0.000740159 -1.34093e-21)
(0.000642837 0.00107517 -5.47681e-22)
(0.000558203 0.000973992 -1.20452e-23)
(0.000574207 0.00102258 -2.52336e-22)
(0.000517126 0.00103887 -8.98586e-23)
(0.000547692 0.000993105 0)
(0.000772984 0.000235758 1.19268e-21)
(0.000571845 0.000993559 -5.04828e-22)
(0.000597825 0.000416742 6.71705e-22)
(0.000613315 0.00110164 1.59473e-21)
(0.000739899 0.000889655 0)
(0.00109217 0.000359165 7.83124e-22)
(0.000524086 0.000999723 9.55504e-26)
(5.20617e-05 0.000100037 -6.68461e-22)
(0.00062921 0.00101393 0)
(0.000372937 0.000698721 6.55315e-22)
(0.000768831 0.00134748 -9.75853e-22)
(0.000592665 0.00102324 0)
(0.000552085 0.000994742 0)
(0.000775912 0.00133375 0)
(0.00091156 0.000363898 -7.21161e-22)
(0.000458031 0.000980862 0)
(0.000503436 0.000709391 -2.08429e-21)
(0.000377557 0.000929758 -2.52308e-21)
(0.00115966 0.00130112 -9.3573e-22)
(0.000667984 0.00110868 -2.07028e-22)
(0.000729972 0.00130142 -6.01808e-25)
(0.000558651 0.000929096 6.59493e-22)
(0.000547512 0.000353664 -4.93759e-22)
(0.000666173 0.00118201 0)
(0.000493899 0.000686111 -6.67133e-22)
(0.000545748 0.000705844 9.0111e-22)
(3.38839e-05 -1.22776e-05 0)
(0.000501152 0.000986952 -2.4939e-22)
(0.000552134 0.000931697 2.18343e-22)
(0.000342192 0.00078051 0)
(0.000811644 0.000196916 5.02661e-22)
(0.000633403 0.00112467 0)
(0.000382524 0.000913131 3.3135e-22)
(0.000801915 0.00134522 1.24186e-21)
(0.000468289 0.000931649 -1.13396e-21)
(0.000553746 0.00109384 -7.55044e-23)
(0.000390321 0.000986901 -1.66097e-21)
(0.000485187 0.000580646 -1.8339e-21)
(0.00061882 0.000770972 -1.03507e-24)
(0.00042741 0.00102641 1.2895e-22)
(0.000675593 0.00109951 9.91429e-23)
(0.000570787 0.000361221 9.95786e-22)
(0.000681648 0.000857389 -2.65603e-21)
(0.000500689 0.000820045 0)
(0.000653934 0.00118025 6.26901e-22)
(0.000536967 0.000971103 -2.4098e-21)
(0.000386873 0.000912879 0)
(0.000873218 0.000328435 1.62925e-21)
(0.000552736 0.00100006 0)
(0.00073228 0.0013418 -1.41681e-22)
(0.000788443 0.00136857 -6.77531e-22)
(0.000774223 0.00133179 5.46805e-22)
(0.000791923 0.00134697 -8.79333e-22)
(0.000630349 0.00120035 -2.17322e-22)
(0.000452867 0.000235513 1.10383e-24)
(0.000503396 0.000441381 -1.34665e-21)
(0.000588629 0.000242383 0)
(0.000622486 0.00113932 1.24151e-21)
(0.000875272 8.85532e-05 -4.51967e-22)
(0.000625471 0.00108372 0)
(0.000599234 0.00115153 0)
(0.000196414 0.000399727 5.24782e-22)
(0.000588858 0.0011786 0)
(0.000618967 0.00112968 -2.81233e-21)
(0.00048278 0.00103642 5.6211e-22)
(0.000778989 0.0013492 8.12238e-22)
(0.000260254 -1.06116e-05 -5.45783e-22)
(0.000542563 0.000816399 -9.09194e-22)
(0.000123339 0.000501892 -7.02343e-22)
(0.00087341 0.00116982 -2.15814e-21)
(0.000576261 0.00103041 -2.26756e-22)
(0.000657328 0.0010473 1.58128e-21)
(0.000627468 0.00110075 -1.27606e-22)
(0.000658402 0.000169404 2.74647e-24)
(0.000830228 0.00131694 6.72114e-22)
(0.00057168 0.00103508 2.42553e-22)
(0.000633491 0.0010958 6.29815e-23)
(7.03265e-05 0.000512605 0)
(0.000573605 0.0010418 0)
(0.000520842 0.000974631 -1.4691e-21)
(0.000594377 0.00107059 5.19883e-23)
(0.000531566 0.000993351 -1.25991e-21)
(0.000555515 0.000974323 -2.92268e-24)
(0.000538137 0.000977844 0)
(0.00060243 0.000791112 -6.55931e-22)
(0.000787253 -7.20475e-05 -1.97841e-21)
(0.000571043 0.000407415 0)
(0.000555096 0.000985979 7.66302e-23)
(0.000578204 0.000992561 -4.77421e-23)
(0.00066855 0.000558002 1.83316e-21)
(0.000543906 0.000983893 7.55448e-25)
(0.000767972 0.00131305 -8.56678e-24)
(0.000472576 0.000994615 -4.73513e-22)
(0.000638236 0.00117187 -1.18179e-22)
(0.000601001 0.00117659 -8.30087e-23)
(0.00069921 0.00116002 0)
(0.000449371 0.0013054 1.46828e-21)
(0.000631621 0.00108207 1.08876e-21)
(0.000545566 0.00110353 -7.73687e-22)
(0.000349006 -4.45768e-05 -3.01957e-25)
(0.000644139 0.00117938 -6.09511e-22)
(0.000433308 0.000875979 1.38067e-21)
(0.000367055 0.000153314 7.75225e-22)
(0.000628296 0.00110508 0)
(0.000568309 0.00100141 1.06777e-21)
(0.000336942 0.000746528 -2.23549e-22)
(0.00118056 -4.18338e-05 6.53883e-22)
(0.000299197 0.000784317 7.26776e-22)
(0.000749942 0.00126819 1.50376e-22)
(0.000626431 0.00110787 -6.3868e-22)
(0.000549381 0.000977454 -8.17755e-22)
(0.000543348 0.000939101 2.15924e-21)
(0.000783722 0.00136257 5.18313e-22)
(0.000607792 0.00022032 -1.52369e-21)
(0.000564281 0.000180212 1.75319e-21)
(0.000619228 0.000118399 -1.81452e-21)
(0.000763755 0.00134242 3.46405e-23)
(0.000417845 0.000897515 -2.7312e-21)
(0.000644419 5.31983e-05 9.52218e-22)
(0.000628385 0.00116414 0)
(0.000783072 0.00136638 -5.28651e-22)
(0.000581525 0.000994747 9.79562e-22)
(0.000326657 0.000812236 -2.4441e-22)
(0.000257945 0.000395902 -1.24064e-22)
(0.000536963 0.000994087 7.16008e-24)
(0.000579362 0.00106947 2.48837e-22)
(0.000586286 0.00102316 -5.42967e-22)
(0.000537987 0.00100825 0)
(0.000543256 0.00092278 -9.41081e-22)
(0.00067049 -6.05183e-06 9.96222e-22)
(0.000632434 0.00116262 -6.29384e-22)
(0.000672984 0.00120218 6.08543e-22)
(0.000946696 0.0012753 -4.03397e-23)
(0.000578444 0.000239491 0)
(0.000419789 0.000140585 -7.10635e-22)
(0.000644107 0.0010826 -8.07056e-24)
(0.000625313 0.00110883 -6.73072e-22)
(0.000551311 0.00103403 3.63374e-23)
(2.01551e-05 1.67026e-05 1.48035e-22)
(0.000622699 0.00109808 1.3568e-22)
(0.000432203 0.000797478 -1.11679e-21)
(0.000818306 5.09204e-05 9.39902e-22)
(0.000661335 0.000134971 9.26696e-22)
(0.000715972 0.00135456 -2.26348e-23)
(0.000573139 0.00121925 0)
(0.000489127 0.00080876 -1.01671e-21)
(0.000411379 0.00070377 0)
(7.27951e-05 -3.74841e-06 7.82314e-22)
(0.000623857 0.0010995 -4.21107e-22)
(0.000677196 8.51151e-05 -1.12227e-21)
(0.000619626 0.00109525 -5.41376e-22)
(0.000512027 0.00103851 5.90506e-22)
(0.000476048 0.000949708 6.49048e-22)
(0.000763734 0.00128366 -5.65229e-22)
(5.35998e-05 0.000140139 2.51446e-21)
(0.000784231 0.0013435 2.19612e-22)
(0.000880296 9.46038e-05 0)
(0.000563406 0.00109587 1.08164e-22)
(0.000449674 0.000700789 -3.22501e-24)
(0.000564837 0.00100584 0)
(0.000592627 0.000436595 -2.67991e-21)
(0.000853125 -7.58513e-06 0)
(0.000632852 0.00109581 1.21084e-22)
(0.000540057 0.000994662 7.63208e-22)
(0.00066394 0.00117421 -1.82298e-21)
(0.000608623 0.00107394 -1.67828e-22)
(0.000822184 0.000153283 -1.08522e-22)
(0.000559027 0.000993152 0)
(4.3511e-05 0.000353274 -1.59218e-22)
(0.000787708 0.0013957 0)
(0.000175191 0.000362679 0)
(3.0746e-05 0.000775034 -3.84735e-22)
(0.000517863 0.00104467 -1.06655e-21)
(0.000644416 0.000185381 -8.33459e-22)
(0.000633733 0.00107323 1.08346e-21)
(0.000420153 0.000921407 1.74119e-22)
(0.000740454 0.00116681 -1.23618e-21)
(0.000568221 0.00126188 0)
(0.000580935 0.00103681 4.46172e-22)
(0.000793965 0.00137581 0)
(0.000800582 0.00137232 -8.72835e-24)
(0.000554441 0.00105129 1.307e-21)
(0.000572762 0.000981469 1.1001e-22)
(0.000553659 0.000663004 2.2425e-21)
(0.000477071 0.0004021 1.4096e-21)
(0.000464176 0.000977983 0)
(0.000583005 0.00103739 -1.39369e-22)
(0.000796781 0.00137795 0)
(0.000566867 0.00100138 0)
(0.000574213 0.00106228 -1.40356e-21)
(0.00102347 0.000176473 7.75081e-22)
(0.000606923 0.00122888 0)
(0.000199158 8.0944e-06 1.03742e-21)
(0.000507377 0.000932721 -8.93335e-23)
(2.55795e-05 0.00012274 1.20689e-21)
(0.000675553 0.000476865 -1.09742e-22)
(0.000688971 0.00116619 5.94569e-22)
(0.000786711 0.00112655 1.15217e-21)
(0.000679529 0.00107066 -5.75107e-22)
(0.000534274 0.00121583 0)
(0.00054157 0.00103268 6.60395e-22)
(2.88833e-05 0.000398263 4.09482e-23)
(0.00056476 0.00100055 -4.95516e-22)
(0.000515239 0.00102284 -3.08932e-22)
(0.000784009 0.00136309 -4.62322e-22)
(0.000781996 0.00135018 -1.4129e-24)
(0.000572117 0.00101597 0)
(0.000650687 0.00120473 5.94327e-22)
(0.000677886 0.00110777 -9.76414e-22)
(0.000589478 0.00103647 2.50129e-22)
(0.000860469 0.000248865 5.61823e-22)
(0.000574353 0.00103531 9.15473e-22)
(0.000592564 0.00103336 0)
(0.000544944 0.00108384 0)
(0.000531943 0.00103717 6.08958e-22)
(0.000537075 0.000934235 -1.26347e-22)
(0.000572251 0.000983724 1.31767e-21)
(0.000622553 0.00110694 0)
(0.000544171 0.000918137 5.21255e-22)
(0.00103572 0.000383088 1.03046e-23)
(0.000618311 0.00111206 3.11379e-22)
(0.000567868 0.00100613 -9.34434e-22)
(0.000591076 0.000676691 6.54099e-22)
(0.000610441 0.00109558 -9.48934e-22)
(0.000696571 0.00120856 5.43862e-25)
(0.000748059 3.66137e-05 -1.65041e-21)
(0.000563624 0.00112647 2.24251e-22)
(0.000300536 0.00100667 0)
(0.000588948 0.00105034 -1.26685e-21)
(0.000420868 0.00094541 7.89668e-25)
(0.000447292 0.00127272 0)
(0.000333042 0.000889793 8.27812e-22)
(0.000608432 0.00108515 -1.19732e-21)
(3.51793e-05 -1.81316e-06 1.67995e-21)
(0.000284388 0.00131895 -1.00736e-21)
(0.000616182 0.00110716 -6.28869e-22)
(0.000666561 0.000423176 5.10878e-22)
(0.000556782 0.00100095 4.52081e-22)
(0.00057952 -0.000421218 -1.14227e-22)
(0.000810522 9.97047e-05 0)
(5.96906e-05 -1.14033e-06 0)
(0.000543849 0.00100128 -1.59633e-21)
(4.07605e-06 2.25941e-05 8.03365e-23)
(0.000613439 0.00109437 1.0435e-21)
(0.000559377 0.000989251 1.22882e-22)
(0.000555229 0.00101201 1.11769e-22)
(0.000616147 0.00107771 1.97533e-22)
(0.000533195 0.00113196 6.83524e-22)
(4.34677e-05 2.3671e-06 -1.81255e-22)
(0.000651704 0.00120759 -1.04144e-21)
(0.000592713 0.00102798 -1.85353e-22)
(0.000291749 5.57889e-05 0)
(0.000551287 0.00101298 5.22047e-22)
(5.10642e-05 -7.73545e-06 0)
(0.000642592 0.00107678 -1.08153e-21)
(5.50213e-06 -6.14012e-05 0)
(4.60023e-05 -6.47483e-06 0)
(0.000677902 0.00119945 3.52073e-22)
(0.000548721 0.00103574 5.41246e-22)
(0.000381092 0.000594032 -2.10121e-22)
(0.000561457 0.000989115 -8.44625e-22)
(0.000593363 0.00103327 -7.58946e-22)
(0.000635237 0.00109085 -5.25003e-22)
(4.05363e-05 0.000222143 -3.13836e-22)
(0.000868694 0.000102448 0)
(0.000794314 0.00135501 0)
(0.000677368 0.0013004 -6.1914e-22)
(0.000585234 0.00103606 6.8175e-22)
(0.000622829 0.00109724 0)
(0.000567307 0.00100403 -1.82604e-21)
(0.000574929 0.000965041 -1.99475e-21)
(0.000601823 0.00114941 0)
(0.000560098 0.000996236 0)
(0.000564303 0.00101676 -2.43396e-22)
(0.000402915 0.000302043 5.34241e-22)
(0.000528414 0.000812191 -2.86902e-25)
(0.000588888 0.00103141 -1.55858e-22)
(0.000664976 0.00120821 2.50056e-22)
(0.000582134 0.00103799 7.38689e-22)
(0.000575503 0.00103486 -7.66265e-22)
(0.000781252 0.00135377 -1.4895e-21)
(0.000555846 0.0010013 4.90209e-23)
(0.000624263 0.000356008 -2.80198e-21)
(0.000601672 0.0011521 -8.33539e-24)
(0.000594144 0.00102927 -2.13297e-22)
(0.000654387 0.00119257 -4.5707e-24)
(4.96436e-05 7.95381e-06 -3.6596e-23)
(1.96637e-05 9.86702e-05 -1.18864e-21)
(0.000557848 0.000996011 8.39631e-22)
(0.000590511 0.00105383 -7.82744e-22)
(0.000824862 0.000803955 0)
(0.000570027 0.000995236 9.08547e-22)
(0.000582921 0.00118456 -3.88885e-23)
(0.00065568 0.00121916 -7.19007e-23)
(0.00057346 0.00112711 -1.60924e-21)
(1.54544e-05 8.16865e-05 -4.68113e-22)
(0.000666106 0.00121826 0)
(0.000622288 0.00110951 0)
(0.000577924 0.00103711 6.06365e-22)
(-4.17815e-06 3.84399e-05 2.2049e-24)
(0.000516872 0.00106579 0)
(0.000792742 0.00135664 6.19264e-22)
(0.000578274 0.000991793 9.77375e-22)
(6.22665e-05 0.000241074 0)
(0.00066809 0.00116352 0)
(4.8486e-05 1.18047e-05 3.56461e-23)
(0.000572332 0.00101818 1.74078e-21)
(0.000369689 0.00100627 8.61128e-22)
(0.000799781 0.00135744 4.01681e-22)
(0.000597315 0.00108927 -3.00944e-22)
(0.000561537 0.000993195 -2.09606e-22)
(0.000595504 0.00102703 0)
(0.000551341 0.00104818 -6.4645e-22)
(0.000630519 0.0010976 0)
(5.38646e-05 -2.21101e-05 -6.75065e-22)
(0.000785014 0.00136146 -1.91376e-21)
(0.000795441 0.00136893 1.04273e-21)
(1.81651e-05 0.000122954 1.92801e-21)
(5.79817e-05 -1.12322e-05 0)
(0.00077663 0.00134999 5.11027e-22)
(0.000645498 0.00119849 2.6651e-25)
(0.00056304 0.00103604 7.81529e-23)
(0.000584593 0.00102414 -3.36323e-22)
(0.00057238 0.00109276 9.11392e-23)
(0.00057656 0.0010139 -1.30231e-21)
(0.000589006 0.00106278 -6.45911e-22)
(0.000496632 0.00130044 -1.54802e-24)
(0.000627689 0.00110137 5.77058e-22)
(0.000558458 0.000985698 -1.25621e-22)
(6.48663e-05 0.000284736 0)
(2.90953e-05 2.03476e-05 2.79668e-22)
(0.00074361 0.00128445 -5.74277e-22)