/*--------------------------------*- C++ -*----------------------------------*\
  =========                 |
  \\      /  F ield         | OpenFOAM: The Open Source CFD Toolbox
   \\    /   O peration     | Website:  https://openfoam.org
    \\  /    A nd           | Version:  8
     \\/     M anipulation  |
\*---------------------------------------------------------------------------*/
FoamFile
{
    version     2.0;
    format      ascii;
    class       volVectorField;
    location    "4";
    object      U;
}
// * * * * * * * * * * * * * * * * * * * * * * * * * * * * * * * * * * * * * //

dimensions      [0 1 -1 0 0 0 0];

internalField   nonuniform List<vector> 
4320
(
(0.000643864 0.00170111 4.10142e-22)
(0.000507826 0.00129768 1.37176e-22)
(0.000488767 0.00130471 0)
(3.48243e-05 3.97623e-07 7.14768e-22)
(0.000656706 -1.6129e-05 0)
(0.000661495 0.00180478 0)
(0.000705668 0.0018872 1.18687e-22)
(0.000675133 0.00190985 7.28923e-24)
(0.000121582 0.00152356 -9.93149e-22)
(0.00057532 0.00166898 -2.61301e-22)
(0.000669124 0.00178768 -2.68855e-22)
(0.000678847 0.00177129 -1.991e-24)
(0.000664242 0.00178906 2.66655e-22)
(0.000602555 0.00170561 1.14101e-21)
(0.000828566 0.000823138 1.66676e-21)
(0.000673848 0.00178441 5.90336e-22)
(0.000404184 0.00121346 -2.63006e-21)
(0.000317673 0.000652585 -3.58712e-21)
(0.000671845 0.00178483 -3.92583e-24)
(0.000674666 0.00178456 0)
(0.000674986 0.00178419 8.01946e-22)
(0.000658789 0.00190255 6.47636e-22)
(0.000420761 0.000514001 3.91192e-21)
(0.000613651 0.00177657 -3.03869e-22)
(0.000645959 0.0016851 8.94993e-22)
(0.000701454 0.0018485 1.93543e-21)
(0.000660462 0.00168895 2.1728e-21)
(0.000669536 0.00173517 -2.09935e-22)
(0.000619703 0.0017689 -6.51836e-22)
(0.000483879 3.66699e-05 1.41435e-21)
(0.00064427 0.00174405 -5.3247e-22)
(0.000659474 0.00190372 0)
(0.000670082 0.0019012 5.87693e-24)
(0.000581513 0.001711 -2.54345e-21)
(0.000466877 0.0013174 -3.11139e-23)
(0.000612451 0.0018273 2.17126e-23)
(0.000674058 0.00178319 -7.53356e-22)
(0.000674302 0.00179071 -1.99752e-22)
(0.00110724 7.78608e-06 1.75583e-22)
(0.000438113 0.0012753 1.13739e-21)
(0.000626168 0.00174599 -2.33741e-22)
(0.000653227 0.00174293 4.89325e-22)
(0.000453116 0.000168042 0)
(0.000637302 0.00160515 2.06438e-21)
(7.74828e-05 0.000727013 7.64086e-22)
(0.000623103 0.0017889 4.81837e-22)
(0.000349642 0.00208407 5.23027e-23)
(0.000632592 0.00171149 -1.27147e-22)
(6.97557e-05 0.000870407 -3.36457e-22)
(0.000674552 0.00178064 0)
(0.000636731 0.00178677 0)
(0.000634481 0.00177664 3.34932e-22)
(0.000741002 -8.00862e-05 6.90277e-22)
(0.000139829 0.000981439 0)
(0.00011607 0.00169679 -1.80503e-21)
(0.000655934 0.00171082 -2.98165e-22)
(0.000569171 0.00168248 2.87997e-22)
(0.00059766 0.00171455 -2.79377e-21)
(0.000225222 0.00154695 -5.08637e-24)
(0.0002592 6.66215e-05 4.91047e-22)
(0.000675905 0.00178354 -3.39589e-22)
(0.000597854 0.00180957 -3.75375e-22)
(0.000597094 0.00179238 2.1936e-22)
(0.000675478 0.00178381 -5.20567e-22)
(0.000892698 -0.000438246 1.35006e-22)
(0.00061495 0.00179534 0)
(0.000435841 0.000155621 4.85699e-21)
(0.000623024 0.00170507 8.16465e-22)
(0.000593531 0.00164581 3.15965e-22)
(0.000626232 0.00187347 -1.04722e-22)
(0.000505172 0.00125946 1.13445e-24)
(0.000665696 0.00191302 1.81952e-21)
(0.000676136 0.0016411 7.70051e-22)
(0.000681844 0.00172658 6.98001e-23)
(0.000671668 0.00177742 0)
(0.000644935 0.00171323 -3.16353e-22)
(0.000495858 0.00134703 -9.57143e-23)
(0.000409677 0.000881288 -1.94956e-21)
(9.91172e-05 0.00023654 1.02723e-23)
(0.0008037 -0.000101941 0)
(0.000658552 0.00177499 -1.42001e-22)
(0.000427655 0.0012765 1.69579e-21)
(0.000469253 0.00130229 -8.76401e-22)
(0.000671029 0.0017891 -7.62163e-22)
(9.12671e-05 0.000213154 -2.62897e-21)
(0.000458941 0.00125307 3.7995e-23)
(9.59063e-05 0.00017323 -2.55393e-21)
(0.000658975 0.00171687 9.12701e-22)
(0.00108274 5.59131e-05 0)
(0.000653302 0.00192753 1.67283e-21)
(0.000864684 -0.000219315 -2.26342e-22)
(0.000721384 0.00189239 0)
(0.00126674 0.000163898 4.23424e-21)
(0.000194893 -4.06438e-07 -2.4369e-21)
(0.000618103 0.00170334 -2.037e-22)
(0.000586688 0.00176039 5.04875e-24)
(0.000454463 0.00128402 7.27896e-24)
(0.00067483 0.00178385 1.80371e-22)
(0.000677412 0.00178738 4.52724e-24)
(0.00102877 0.000859757 -1.27356e-21)
(7.74424e-05 0.000172071 0)
(0.000668297 0.00177511 0)
(0.000641263 0.0019181 4.56799e-22)
(0.000526923 0.00137008 -1.67338e-21)
(0.000375787 0.00169332 -6.17645e-24)
(0.000448819 0.00134299 2.26077e-21)
(0.000449539 0.00128491 9.67153e-22)
(0.000482554 -9.44641e-05 1.20442e-24)
(4.84056e-05 0.00072726 1.06971e-21)
(0.000430541 0.00130501 6.54243e-24)
(0.000988402 -0.000106743 0)
(0.000660254 0.00191646 3.56909e-22)
(0.000641337 0.00176894 -1.92663e-21)
(0.000664826 0.00189691 0)
(0.000654617 0.00166171 -9.35847e-22)
(0.000629979 0.00176263 -9.55777e-23)
(0.000188958 0.000871713 -7.80929e-22)
(0.000637692 0.00105236 2.01873e-21)
(3.5041e-05 7.63435e-05 2.84493e-21)
(0.00046574 0.00168791 -1.47157e-23)
(0.000653492 0.00185762 -1.33713e-21)
(0.000438081 0.00127621 0)
(0.00058323 0.00177594 1.16972e-22)
(0.000597213 0.000840504 0)
(0.000680039 0.00189003 5.02447e-22)
(0.000670091 0.00191182 -1.44978e-21)
(0.000709406 0.0019843 -1.41025e-22)
(0.000670706 0.00177244 5.29396e-22)
(0.000667489 0.00171366 -8.87523e-22)
(0.000664244 0.00171011 6.04903e-22)
(0.000623057 0.00176397 -4.54395e-24)
(0.00065469 0.00191484 2.78146e-21)
(0.000505607 0.00138995 1.28766e-23)
(0.000683636 0.0019273 5.49387e-22)
(9.74119e-05 0.000675352 -7.57059e-22)
(0.000211851 5.13288e-05 -7.71307e-22)
(0.000458645 0.00122207 5.14476e-22)
(0.000193279 2.41097e-05 -4.61606e-22)
(0.000624504 0.00167431 0)
(0.000521592 2.35576e-05 -3.46482e-21)
(0.000456685 0.00117677 -4.89757e-22)
(0.000639061 0.00178187 2.28222e-22)
(0.000217602 0.00170168 2.81787e-23)
(0.000221178 0.00158661 -1.15715e-23)
(0.000107891 0.000615859 0)
(0.000615799 0.00175752 -1.17359e-21)
(0.000631023 0.00171056 0)
(1.28869e-05 -1.01625e-05 5.55191e-22)
(0.000559657 0.00174217 0)
(0.000348177 0.00200335 -2.5617e-23)
(0.000676256 0.00178172 -3.21211e-22)
(0.000463315 0.00190661 1.68594e-22)
(0.000610976 0.000749495 1.65429e-21)
(0.000576078 0.000764301 0)
(0.000641516 0.00176464 0)
(0.00070234 0.00201755 -2.55658e-23)
(0.000910463 0.000415062 -5.88359e-21)
(8.10506e-05 0.000960466 8.36546e-22)
(0.000106085 0.00026054 0)
(0.00060355 0.00180487 -1.98879e-22)
(6.48101e-05 0.00013785 0)
(0.000460107 0.0013066 2.41645e-21)
(0.000600508 0.00168918 9.16305e-23)
(0.000573158 0.00176062 -1.40229e-22)
(0.000696144 0.00192928 1.20527e-21)
(0.000640261 0.00172088 -4.8156e-22)
(0.000674014 0.00185222 1.45039e-21)
(0.000239088 0.000874783 1.80643e-21)
(0.00155049 0.00145838 0)
(0.000548149 0.00171713 3.84595e-21)
(0.000598108 0.00170853 0)
(0.000654242 0.00176312 0)
(0.000345912 0.00139708 -1.40161e-22)
(0.000625982 0.00198973 3.20537e-23)
(0.00052972 -6.46385e-05 -2.52448e-21)
(0.00039333 0.000736119 -9.78397e-22)
(0.000388378 0.000540182 1.74293e-21)
(0.000754614 0.00192884 5.88503e-21)
(0.000634778 0.00187198 1.87695e-21)
(0.000546651 0.00137234 -4.91555e-22)
(0.000757742 0.000418474 0)
(0.00058317 0.00177937 -1.53738e-21)
(0.000863761 0.000324034 1.58912e-21)
(0.00095988 9.76952e-05 -8.28505e-22)
(0.00114638 0.00064228 -5.25954e-21)
(5.8352e-05 0.00108975 1.10108e-22)
(5.29442e-05 0.000107485 -1.50788e-22)
(0.000540429 0.00202488 1.78347e-22)
(0.000509432 0.00165059 3.74707e-22)
(0.000428289 0.00055315 -3.79925e-21)
(0.000614026 0.00174248 -2.23542e-22)
(0.000665758 0.00171812 -3.08509e-22)
(0.00103077 6.29428e-05 2.38118e-21)
(0.000671953 0.00182479 1.17041e-23)
(0.000970204 -5.04703e-05 -1.35947e-21)
(0.000651529 0.00172266 9.38483e-22)
(0.000646084 0.00183599 -8.51434e-22)
(0.000639871 0.00189144 3.90944e-23)
(0.00063547 0.00177382 4.76201e-22)
(0.000674076 0.00177798 -4.652e-22)
(0.000890798 0.000348268 -1.9453e-21)
(0.000609687 0.00170976 4.22961e-22)
(0.00065315 0.00169606 0)
(0.000643414 0.00171249 5.67538e-22)
(0.000887091 0.00181312 -2.3871e-21)
(0.000488373 0.00151468 0)
(0.000630577 0.00186764 0)
(7.06729e-05 0.000154058 -2.00581e-23)
(0.000545695 0.00173542 0)
(0.00100291 1.69711e-05 0)
(0.000643287 0.00184252 2.4767e-22)
(0.000238802 6.81516e-05 1.45763e-21)
(0.000377348 0.000669869 -2.21177e-21)
(5.90704e-05 0.000122818 0)
(6.24135e-06 1.80417e-05 3.6515e-22)
(4.03699e-05 8.50117e-05 5.05734e-21)
(8.41885e-06 5.99732e-06 3.39881e-22)
(4.51954e-05 9.52001e-05 -2.3908e-21)
(0.000968209 6.86966e-05 -2.89646e-21)
(0.000641829 0.000653467 -4.89806e-21)
(0.000580575 -0.000216149 -2.11241e-21)
(0.00059977 0.00173872 -4.65002e-22)
(0.000217093 3.04988e-05 -2.87696e-22)
(0.000697288 0.00175751 -1.73615e-23)
(0.000692415 0.00184104 8.94689e-22)
(5.44548e-05 0.000545957 0)
(0.000535965 0.000858036 0)
(0.000858392 0.000344144 -8.97671e-22)
(0.000750848 0.000430304 2.02474e-21)
(0.000993628 7.46071e-05 2.1871e-24)
(0.000607771 0.00187225 2.28423e-22)
(0.00103381 0.000671441 2.08572e-21)
(0.000457887 0.00130677 -7.92883e-22)
(0.000636938 0.00170276 -1.70216e-22)
(0.000659963 0.00178187 0)
(0.000284511 -0.000118875 -9.11843e-25)
(0.000636274 0.00182675 8.21225e-22)
(0.000658418 0.00171817 0)
(0.000634257 0.00175232 -1.30504e-22)
(0.000637451 0.00176305 0)
(0.00118906 0.000237279 -2.55808e-21)
(0.00111058 0.000769914 -4.02135e-21)
(0.000812861 0.00168105 -2.43935e-21)
(0.000706693 0.00188511 -2.03136e-22)
(0.000656714 0.00188375 2.91481e-22)
(0.000257414 0.00191536 0)
(0.000344942 0.000376241 -2.73352e-22)
(0.000500459 0.000109661 2.09795e-21)
(0.00071482 0.0018749 0)
(0.000446951 0.00124709 -4.12531e-22)
(0.000630973 0.00174873 1.89483e-21)
(0.000517846 0.00154251 -5.32746e-23)
(0.000675189 0.00193779 -2.46366e-23)
(0.00070856 0.00195517 -2.61146e-21)
(0.00071638 0.00194534 0)
(0.000668956 0.00160747 1.21041e-21)
(8.08752e-06 3.34327e-05 9.90721e-24)
(0.000648177 0.00175325 -1.17194e-22)
(0.000436317 0.00126052 0)
(0.000616569 0.00179914 1.2102e-22)
(0.000681828 0.00181906 7.03495e-22)
(0.00118664 0.000567708 3.61753e-21)
(0.000761501 0.00183213 -7.53303e-22)
(0.000711652 0.00194161 9.69152e-22)
(0.000433453 0.000304793 4.32993e-21)
(0.000670561 0.00177539 0)
(0.00089837 -0.000152332 -1.67124e-22)
(0.000424838 0.00128048 -1.66767e-22)
(0.000738062 0.00100473 -2.7642e-21)
(0.000470514 2.67527e-05 -2.00724e-21)
(0.000669488 0.00175489 -6.71881e-22)
(9.82216e-06 5.27659e-05 0)
(0.000610739 0.0017378 0)
(0.00100146 0.00202801 0)
(0.00095954 -0.000126351 0)
(0.000667827 0.00178601 -1.74741e-21)
(0.000313674 -0.000135797 -6.36841e-22)
(0.000391705 0.00120701 -6.44905e-22)
(5.11583e-05 -1.30235e-07 2.81603e-21)
(1.12113e-05 6.8567e-05 -3.65815e-22)
(0.000482964 0.000111248 3.51884e-25)
(0.000584491 0.00178469 4.38513e-22)
(0.000629303 0.001898 -5.48725e-22)
(0.000687327 0.000194451 -4.4278e-21)
(0.000663884 0.00170976 -3.32751e-22)
(0.000711109 0.00189241 5.38466e-22)
(0.000659206 0.00170958 -9.39994e-22)
(0.000166978 -3.229e-05 -2.39828e-21)
(0.000680063 0.00196579 -2.45118e-22)
(0.000687154 0.000869394 -1.13849e-21)
(0.00067864 0.00178567 6.94449e-22)
(0.000694646 0.00193152 -1.1635e-21)
(6.66368e-06 2.27991e-05 0)
(0.000675775 0.00187361 1.44976e-22)
(0.000976559 0.000371614 -4.44248e-21)
(0.000626879 0.00186743 0)
(0.000643174 0.00179892 -3.33524e-21)
(0.00067727 0.00195198 2.34331e-23)
(0.000621089 0.00196847 2.24442e-23)
(0.000618694 0.00183672 1.10289e-21)
(8.48798e-06 3.93026e-05 -3.16711e-22)
(0.000661456 0.00174196 -1.93413e-22)
(0.000677934 0.00189141 -9.81528e-22)
(0.000650409 0.00174735 -3.69309e-22)
(0.000722307 0.0018716 9.53656e-22)
(0.00136566 0.000508368 1.92213e-21)
(0.000696331 0.00190921 -1.33773e-21)
(0.00072071 0.00191111 0)
(0.00070672 0.00194318 -3.21372e-23)
(0.000639166 0.00177733 -2.35877e-22)
(0.000639106 0.00177935 1.94599e-22)
(0.00067724 0.00178955 1.26697e-23)
(0.000409155 0.000991299 -3.83138e-21)
(0.000456092 0.000579742 -1.61945e-21)
(0.000666361 0.001751 7.13083e-22)
(0.000617391 0.00184472 -5.90035e-23)
(0.000336979 0.000123715 5.0874e-21)
(0.000683653 0.00177197 0)
(0.000188846 0.000922531 -1.9882e-22)
(0.000636448 0.00169228 1.86711e-22)
(0.000641112 0.00186242 0)
(9.2616e-06 4.5836e-05 -1.1156e-23)
(0.00026811 -0.000211163 0)
(1.0851e-05 6.0794e-05 2.68095e-22)
(0.00168073 0.00193803 -1.07016e-21)
(1.99709e-05 8.04159e-05 9.19851e-22)
(0.000624856 0.00178974 0)
(2.76307e-05 0.000767216 0)
(0.00131041 0.000165639 -4.4014e-22)
(0.000638944 0.00190028 -1.33052e-22)
(0.000674843 0.00175438 -7.53422e-23)
(0.000640496 0.0019365 9.21548e-22)
(0.000643763 0.00192657 7.56237e-22)
(7.27547e-06 2.7893e-05 3.19708e-22)
(0.00114766 0.000529795 4.89966e-21)
(0.000524253 0.00189389 1.26521e-21)
(0.000842012 0.000902516 -1.53248e-21)
(0.00019969 -6.23416e-05 -2.55149e-21)
(0.000663132 0.00177923 -8.7667e-22)
(4.56834e-05 0.000330288 -1.9633e-21)
(0.000742532 0.00196919 0)
(0.000638049 0.00176877 -7.99304e-22)
(0.000677935 0.00177429 0)
(0.000766275 0.000923826 0)
(0.000345742 0.000895748 1.57258e-21)
(1.59545e-05 8.15343e-05 -1.52192e-22)
(0.000232983 -0.00018043 4.77695e-21)
(0.00106242 0.000315152 1.34135e-21)
(0.00128908 0.000137295 1.09832e-21)
(0.000124876 0.000238607 -8.65358e-24)
(0.000682839 0.0018373 -6.82216e-22)
(0.000705758 0.00200308 -1.06359e-21)
(0.000190644 4.43583e-05 -4.69708e-22)
(0.000505037 0.00136987 1.9494e-21)
(0.000662786 0.00170514 -6.82608e-24)
(0.000420632 0.000741593 1.62008e-21)
(0.000640271 0.00177989 -1.0573e-21)
(0.000543937 0.00177975 3.68634e-24)
(0.000635054 0.00195761 3.42764e-21)
(0.000644912 0.00176764 5.97955e-22)
(0.000274709 0.000835868 0)
(0.000636382 0.00184349 7.29243e-22)
(0.000652854 0.00173679 -2.29344e-22)
(0.000680842 0.000872713 -1.85506e-21)
(0.000394236 0.00183447 -5.46404e-22)
(0.000722073 0.00190222 -2.66074e-22)
(5.88605e-06 1.36788e-05 -6.6233e-22)
(0.000954835 3.37385e-05 0)
(0.000372406 -0.000247096 -7.9402e-22)
(0.000672037 0.00176999 -1.52182e-21)
(0.000679728 0.00176744 -1.43574e-22)
(0.000406201 0.00072632 -1.40049e-21)
(0.000648764 0.00177887 9.42814e-22)
(0.000339252 0.000652534 4.723e-21)
(0.000480759 0.0016234 3.43663e-22)
(0.000175066 -0.000129942 -1.04432e-21)
(0.000428048 0.00152721 5.0692e-23)
(0.000662616 0.00174299 0)
(0.000229181 8.6925e-05 0)
(0.000697251 0.00191056 -8.61376e-22)
(5.62431e-06 9.10387e-06 1.66206e-22)
(0.000924631 0.00127725 -1.37525e-23)
(0.00099398 0.000459939 1.89963e-21)
(0.000596698 0.00180327 1.55561e-21)
(6.54325e-05 0.000602191 1.69694e-22)
(0.000603675 0.00177321 1.76027e-21)
(-5.12429e-06 7.96522e-05 1.61079e-21)
(0.000476364 -0.000148978 0)
(0.000699628 0.00193612 0)
(6.95218e-05 6.63162e-05 -1.70654e-21)
(0.000685233 0.00207784 -3.21067e-22)
(0.000702182 0.000258611 -1.79914e-21)
(2.6817e-05 4.27202e-06 -3.12301e-22)
(0.000115169 1.8901e-06 1.51534e-21)
(0.000707222 0.00190288 4.26498e-21)
(0.000427361 -3.20142e-05 1.8392e-21)
(0.000646353 0.00177472 2.74866e-22)
(0.0012333 0.000732981 1.49306e-21)
(0.000640578 0.00173722 2.09906e-21)
(0.000682373 0.00177493 -1.27515e-23)
(0.000247195 0.00114094 -2.28092e-21)
(0.00041987 0.00091816 2.50861e-21)
(8.16819e-05 0.000898166 0)
(0.000667238 -0.000167751 3.20227e-21)
(6.26345e-05 5.05667e-05 -9.65646e-22)
(0.000222159 0.00134882 -1.89646e-21)
(0.00054882 0.00178569 -6.64863e-22)
(0.000679477 0.00177463 -9.00542e-22)
(0.000609301 0.00178902 8.38066e-22)
(0.000678345 0.00177897 -7.02986e-22)
(0.000531059 0.00163658 -2.85013e-23)
(0.000860215 0.000536844 0)
(0.000608304 0.000847064 3.06247e-21)
(0.00036747 -0.000144693 -1.09084e-21)
(0.000631736 0.00187275 -1.47452e-21)
(0.000104448 5.48314e-06 2.71242e-26)
(0.000665386 0.00170978 6.28447e-22)
(0.000971344 -4.89062e-06 1.09819e-22)
(0.000825447 0.00115709 -1.11168e-23)
(0.00142117 0.000458575 0)
(0.000538218 0.00154453 -1.98269e-23)
(0.000324827 -8.93307e-05 7.36309e-22)
(0.000738975 0.00197535 -8.63543e-22)
(0.000149635 -0.000124534 3.03937e-21)
(0.000555817 0.0014385 0)
(0.0011172 0.000472281 -3.50256e-21)
(0.000599381 0.00158512 -1.27615e-21)
(0.000526152 0.000850927 -6.8133e-22)
(8.14328e-05 6.55131e-05 9.71527e-22)
(0.000967818 3.77539e-05 -5.98449e-22)
(0.000334999 0.000393337 -4.16866e-22)
(0.000646239 0.00177492 0)
(9.97225e-05 1.87983e-05 1.03658e-21)
(0.000299637 0.000454983 -1.43205e-21)
(0.000953846 0.000971768 3.73327e-22)
(9.64057e-05 6.60202e-05 -2.50387e-21)
(0.000731052 0.0019128 -6.03867e-21)
(0.00055526 0.00173727 3.98791e-23)
(0.000644178 0.001779 8.1119e-22)
(0.00102289 2.72089e-05 0)
(0.000643958 0.00178292 0)
(2.73133e-05 -0.000103052 1.26542e-21)
(0.00065121 0.000529327 6.93659e-21)
(4.68911e-05 3.91827e-05 2.42124e-21)
(0.000776534 0.00183867 9.63925e-21)
(1.0968e-05 -3.41919e-05 2.06646e-23)
(0.000635261 0.00168564 -4.0737e-22)
(0.000784066 0.000280728 -5.57443e-21)
(0.000612747 0.00176645 0)
(0.00128034 0.000716984 2.53025e-21)
(0.000619258 0.00185191 3.64031e-22)
(0.00095774 0.000307851 1.77368e-21)
(7.56105e-05 2.71042e-06 1.45323e-21)
(0.000720119 0.00200266 8.43263e-22)
(0.00032461 0.000846733 -1.75401e-21)
(3.91133e-05 6.97691e-05 -2.11972e-21)
(0.000641153 0.00184242 9.05416e-22)
(0.000881579 0.00102178 1.25055e-21)
(0.000959368 1.0801e-05 7.1811e-22)
(4.70907e-05 6.34093e-05 -5.19743e-22)
(0.000125232 -0.000108779 -3.00072e-22)
(0.00062406 0.000469387 -1.95738e-22)
(0.000235628 0.000779183 2.1834e-21)
(0.000630622 0.00186882 4.18722e-22)
(0.000206859 0.00113694 0)
(0.000713176 0.00198195 -2.50189e-21)
(0.000747015 0.0019416 0)
(0.000902338 0.000276163 -3.75687e-21)
(8.41719e-05 0.000826091 -8.99886e-22)
(4.18067e-05 6.80919e-05 2.77286e-21)
(0.000659436 0.00180871 -3.36728e-25)
(0.00091143 0.000280303 6.70203e-24)
(0.000854365 0.000778204 0)
(0.000872829 0.000871603 -7.38764e-22)
(0.000669172 0.00177936 0)
(0.000648585 0.00185848 -2.33174e-22)
(0.000658558 0.00173733 0)
(0.00106007 0.000190405 -5.1531e-21)
(0.000850615 0.00140626 6.11935e-23)
(0.000312036 6.40419e-05 1.57708e-21)
(0.000641596 0.00174201 -8.047e-22)
(4.91535e-05 3.24559e-05 0)
(0.000644229 0.00190084 -2.74858e-24)
(7.88842e-05 0.000136683 2.48938e-21)
(0.000928223 -9.16974e-05 5.89588e-22)
(0.00075562 0.000654688 -2.14162e-21)
(0.000619961 0.00176645 3.4346e-22)
(0.000625092 0.00186854 -1.91594e-22)
(0.000960055 1.59037e-05 2.45252e-22)
(0.000645151 0.00175772 7.81679e-22)
(0.000827308 0.00083927 2.18006e-21)
(3.59215e-05 4.45042e-06 -1.72099e-21)
(0.000725966 0.00201121 -5.31496e-22)
(0.000577017 0.000516799 0)
(-7.67934e-05 0.000571705 3.66367e-21)
(0.00102143 0.000274281 0)
(0.000670613 0.00179013 -9.00758e-22)
(0.00108618 0.000232929 0)
(0.000655427 -0.000202527 2.32322e-22)
(0.000324195 0.000743308 1.15344e-21)
(0.000441061 0.000935487 1.20748e-21)
(0.000770348 0.0013992 -2.17576e-21)
(0.000397131 0.00120734 -1.26137e-21)
(-5.10604e-05 0.000576624 8.39896e-22)
(0.000759065 0.000870919 1.85983e-21)
(0.000679601 0.00185768 -7.16307e-22)
(0.000664218 0.00170758 -3.49419e-22)
(0.000663548 0.0018203 1.04276e-21)
(0.000726961 0.00196589 -4.75914e-21)
(0.000582449 0.000224861 3.78937e-24)
(0.000732724 0.00197106 0)
(0.000446757 0.00057666 0)
(0.000639898 0.00176042 0)
(0.000949256 0.00156853 6.35006e-21)
(0.000509118 0.0012886 4.47863e-24)
(0.000606574 0.00177946 3.11324e-22)
(0.000587741 0.00172129 -6.86296e-23)
(0.000615206 0.001827 -2.15397e-22)
(7.68979e-05 -0.000828402 7.49579e-22)
(0.000495769 0.000479692 -2.45282e-21)
(0.00067927 0.00184918 -1.55496e-21)
(7.87341e-05 -9.04857e-06 -5.15495e-22)
(0.000653489 0.00179919 -1.60145e-21)
(3.57675e-05 -1.84284e-06 0)
(0.000421834 0.000848279 2.76065e-22)
(0.000627445 0.000316212 -4.28356e-21)
(0.00100324 0.000626319 1.54452e-21)
(0.000571161 0.00146011 -1.27009e-21)
(0.000547853 0.00170375 3.41939e-23)
(0.000530988 0.000802536 -2.67854e-21)
(0.000336252 0.000504069 -6.87768e-24)
(0.000792594 0.000715228 2.93436e-21)
(3.54954e-05 4.92415e-05 3.44251e-22)
(0.000617967 0.0017582 0)
(0.000394571 0.000455248 -5.23305e-24)
(0.000644722 0.00186122 -4.5688e-22)
(0.000927843 -7.85116e-06 9.98375e-22)
(0.000640445 0.00174953 3.24614e-22)
(0.000802468 -0.000332199 -3.08327e-21)
(0.000667039 0.00185495 4.77025e-22)
(1.60225e-05 0.000122909 -3.38919e-22)
(0.00067303 0.00197017 -2.91379e-22)
(0.000386445 0.00119231 5.7946e-23)
(2.61587e-05 8.51733e-05 0)
(0.000292432 0.000575604 -9.21696e-22)
(0.00072452 0.00190483 7.73346e-23)
(0.000618461 0.00182482 -6.9169e-22)
(0.000413885 0.000649521 5.25247e-21)
(0.000573657 0.000272265 -3.0762e-21)
(0.000375917 0.000628775 -2.24067e-24)
(0.000328869 0.000618374 -3.7435e-21)
(2.93915e-05 5.22053e-05 6.40459e-22)
(0.000774528 0.000671091 3.39532e-21)
(0.000103179 -9.52392e-05 6.27488e-22)
(0.000650404 0.00170942 1.87252e-22)
(5.24163e-05 0.000973624 -6.16652e-22)
(0.00072005 0.00200519 0)
(0.000673711 0.00177215 -1.5556e-21)
(0.000388808 0.000509558 -3.26777e-21)
(0.000545969 0.000123587 1.34342e-21)
(0.000659482 0.00183134 -2.91384e-21)
(0.00066627 0.00183466 -4.10736e-22)
(6.72609e-05 0.000106758 1.58753e-22)
(0.000338025 0.000537247 -3.31111e-21)
(0.000735991 0.002058 -4.161e-22)
(0.000647291 0.00192685 -9.16937e-22)
(0.000623195 0.00115469 -3.68303e-21)
(0.000794323 0.000187172 2.57417e-21)
(7.68198e-05 -7.30808e-05 -1.97561e-23)
(0.000642383 0.00186618 0)
(0.0010751 0.000443975 0)
(0.000317134 2.18923e-05 2.64706e-21)
(0.00032792 0.000455624 6.21278e-21)
(0.000894773 0.00029458 6.9498e-25)
(0.000293951 0.000425625 1.50583e-21)
(0.000629991 0.00183024 -9.53284e-22)
(1.81385e-05 0.0001501 -1.30609e-21)
(0.000559043 0.000209827 -1.61404e-21)
(0.00108639 -1.06907e-05 0)
(0.0005956 0.000420365 0)
(0.000604476 0.00179629 9.16994e-22)
(0.000102809 0.000437742 2.79036e-24)
(-2.93981e-05 0.000655113 -7.13963e-22)
(0.00064443 0.00181532 2.01176e-21)
(3.60441e-05 2.59757e-05 2.04824e-21)
(0.000733673 0.000646755 -1.10252e-21)
(0.000594362 0.000668085 -2.97289e-22)
(0.000631218 0.00177039 6.73272e-22)
(0.000470181 -2.68147e-05 4.44959e-25)
(0.001139 0.000115599 -2.38637e-21)
(0.000651755 0.00185686 -9.86439e-22)
(0.000647195 0.00184369 -9.12788e-22)
(0.000357726 0.000422194 0)
(0.000457307 0.00129795 1.3219e-22)
(4.2696e-05 1.92077e-05 -1.50432e-22)
(0.000297186 0.000494298 1.44882e-21)
(0.000602121 0.00193285 2.48213e-22)
(0.000710087 0.00193448 -2.44957e-21)
(0.000635787 0.000598324 0)
(0.000617186 0.00184194 0)
(1.44402e-05 0.000130472 0)
(0.000913125 0.000430425 2.7231e-21)
(0.000670056 5.15783e-05 8.61346e-22)
(0.000669103 0.000485124 3.40913e-21)
(-7.26775e-06 0.00049641 0)
(0.000638958 0.000610112 4.37645e-22)
(0.000765689 0.000195262 2.24158e-21)
(0.000626288 0.000310697 7.49558e-21)
(8.69315e-05 7.85877e-05 0)
(0.000980334 -5.65342e-05 -9.59751e-23)
(0.000659071 0.00176279 2.83392e-22)
(0.000297499 0.000549387 1.60432e-21)
(0.000624518 0.00180454 -2.41354e-22)
(0.000674596 0.0017959 -3.17526e-24)
(0.000637912 0.00175717 3.41402e-23)
(0.000328159 0.000319192 4.09774e-22)
(0.000785077 1.84906e-05 0)
(2.09274e-05 3.13894e-05 2.43147e-26)
(0.000945822 -6.71716e-05 1.79039e-21)
(1.59772e-05 1.00433e-05 -4.29771e-22)
(0.000471088 -0.000222379 -1.42609e-21)
(0.00122832 0.000112123 0)
(0.00105647 0.000230547 2.07114e-21)
(0.000579917 0.00168155 -3.2982e-24)
(4.49267e-05 2.79447e-05 0)
(0.000722592 0.00198262 4.27384e-22)
(0.000709844 0.000123935 7.1783e-22)
(0.000967314 2.71717e-05 -3.15392e-22)
(2.16629e-05 0.000186423 0)
(0.00108987 0.000479697 -4.66269e-21)
(0.00066457 0.00170627 -4.49941e-22)
(0.000734847 0.00200203 -3.37435e-21)
(0.000613711 0.00182688 -4.04449e-24)
(0.000659053 0.00172002 0)
(-1.05292e-06 0.000103958 -1.00014e-22)
(0.000676114 0.000726588 -7.5605e-22)
(0.000954975 5.11918e-05 -3.08251e-21)
(0.000820244 0.00021189 -3.49967e-21)
(0.0003813 6.80577e-05 8.00986e-21)
(5.12352e-05 2.33534e-05 -9.87042e-22)
(0.000641387 0.00170281 -1.09115e-20)
(0.00027108 0.000717072 7.63638e-25)
(0.000660828 0.00185439 -3.28293e-23)
(0.000598419 0.00194905 -6.74942e-23)
(0.000648912 0.00173872 0)
(0.00096801 5.00417e-05 0)
(6.64061e-05 -6.36464e-05 0)
(0.000700489 0.00189188 -2.47426e-22)
(0.000627391 0.00178704 -2.07681e-21)
(0.000608743 0.000385264 -4.59853e-21)
(0.000722505 0.00189617 0)
(0.00153413 0.000591032 4.32676e-22)
(1.93494e-05 3.58822e-05 -5.17783e-22)
(0.0013377 0.000671504 -1.0868e-22)
(0.000718297 0.00199047 1.45588e-21)
(7.65338e-05 -1.57997e-05 2.45204e-21)
(0.000612164 0.0017588 -1.536e-21)
(0.000636204 0.00178737 -1.17784e-21)
(0.00100507 4.06604e-05 -9.42469e-23)
(0.000660726 0.00171498 4.26845e-22)
(0.000404743 5.16952e-05 -2.67214e-21)
(0.000637152 0.00176034 0)
(0.000605415 0.00179136 -3.74376e-22)
(3.6567e-05 1.6954e-05 0)
(0.000433314 1.46169e-05 -8.50632e-25)
(0.000711261 0.00199319 1.18537e-23)
(0.000635032 -0.000362212 1.12714e-21)
(0.000443882 0.00126079 8.54761e-24)
(0.00112727 7.42974e-05 1.52439e-22)
(0.000156429 -4.90796e-05 2.6358e-21)
(0.000339934 -8.68113e-06 -1.58421e-21)
(0.00100232 1.46117e-05 1.78313e-21)
(0.000624925 0.000572061 5.46394e-22)
(0.00071187 0.000166775 2.72021e-21)
(0.000648838 0.00177452 -1.05263e-21)
(0.0001377 0.000171347 -1.42908e-21)
(0.000754525 -0.000205456 6.69332e-22)
(2.6393e-05 4.02319e-05 2.107e-21)
(0.000731353 0.00200811 -2.79254e-21)
(0.000310082 0.000357691 0)
(0.00075438 0.000950623 3.08763e-21)
(0.000713483 0.00199185 0)
(0.000670859 0.00186645 0)
(0.000911501 3.33521e-05 0)
(0.000662976 0.000390798 -2.76154e-24)
(0.000316691 -5.37508e-05 4.22394e-26)
(0.00031015 -0.000201539 -1.91895e-21)
(0.000557592 0.000293689 -6.52638e-21)
(0.000306387 -1.56667e-05 1.50457e-21)
(1.95039e-05 0.00016704 1.31282e-21)
(0.000717022 0.00199572 0)
(0.000318061 -0.00024049 6.66304e-21)
(0.000150566 -0.000152017 1.34165e-21)
(0.00067095 0.00185356 -2.17655e-22)
(0.000382178 0.000953465 0)
(6.22629e-05 8.92214e-05 -1.955e-21)
(0.000312903 -0.000104724 2.41791e-21)
(0.000351003 8.67343e-05 -4.60764e-21)
(0.000955422 3.98716e-05 4.16617e-21)
(0.000938714 0.000353718 3.71928e-21)
(0.000635939 0.00186813 -7.46353e-22)
(0.00095598 -0.000105551 0)
(0.000551686 -0.000179853 1.62629e-21)
(0.000580203 -0.000111343 4.25626e-21)
(0.00056745 -6.06005e-05 -5.38337e-21)
(0.000533764 5.62772e-05 2.39185e-21)
(0.000574032 9.55973e-07 -1.31259e-21)
(-1.74795e-05 -0.000433088 9.26754e-22)
(4.02584e-05 2.61013e-05 2.92716e-22)
(0.000783165 0.000855966 -5.05684e-21)
(0.000903521 -6.1575e-05 0)
(0.000628315 0.00175917 -2.05357e-22)
(0.000426723 0.000122895 -1.03097e-21)
(0.000239957 0.00128821 -1.9913e-21)
(0.000678078 0.00183994 -1.13209e-21)
(0.000145376 -6.08627e-05 2.23299e-23)
(0.000742755 0.00201205 -1.01884e-21)
(0.000701352 -5.0709e-07 7.57581e-22)
(0.000351096 0.000285642 3.89588e-22)
(0.000562569 0.000102104 0)
(0.000633168 0.00178092 0)
(0.000708198 0.000380782 4.14433e-21)
(0.00066285 0.00184033 -7.5314e-22)
(0.000221613 -9.50876e-05 -2.29613e-21)
(0.000609494 0.00176114 7.96449e-22)
(0.000944493 3.89867e-06 2.19364e-24)
(4.8043e-06 0.000458161 0)
(0.000638639 0.00177408 2.13757e-22)
(0.000647588 -0.000104743 2.70987e-21)
(0.000286784 0.000387586 -3.08167e-21)
(1.36228e-05 1.44265e-06 1.24649e-21)
(0.000959798 2.88987e-05 -4.79556e-21)
(0.000260554 -8.50228e-05 5.74264e-21)
(0.000982817 -3.26535e-05 -2.5056e-21)
(0.000824727 -0.000159304 1.56013e-21)
(0.000715772 0.00199853 -1.78226e-21)
(0.000976511 2.67404e-05 3.25707e-22)
(0.00010877 -0.000120105 -1.86008e-21)
(0.000637912 0.00177429 6.80155e-24)
(0.000552706 0.00133688 -7.88933e-22)
(0.000955628 2.05489e-06 -1.21868e-21)
(0.000914035 1.36954e-05 4.22663e-21)
(0.00112545 0.000172309 0)
(0.000642631 0.00175317 -6.12862e-22)
(0.000356512 5.47925e-06 1.56701e-21)
(1.96589e-05 2.79957e-05 2.13371e-21)
(0.000525192 0.000909177 -3.87045e-22)
(0.000600586 0.00185941 -1.79821e-21)
(1.00497e-05 1.25497e-06 -1.24212e-21)
(2.87065e-05 0.000277383 -8.76939e-23)
(0.000730669 0.00190338 0)
(0.000677653 0.0017752 9.41136e-23)
(0.000684725 0.000211617 -1.26489e-21)
(0.000991186 -2.79144e-05 -5.80528e-21)
(3.00011e-05 0.000305758 0)
(0.000635316 0.00176486 5.66859e-23)
(0.000638259 0.00176861 -9.2942e-22)
(0.000713664 0.00200264 1.91504e-23)
(0.000701743 0.00197077 0)
(0.000613468 0.000563832 -2.08076e-21)
(0.000171666 -0.000194547 0)
(0.000629659 -4.0987e-05 1.42752e-21)
(0.000740747 0.00199854 4.42228e-21)
(0.000656961 0.00176495 5.31791e-21)
(0.000616637 0.00180527 0)
(0.000643963 0.00178811 -1.86187e-24)
(0.000955433 2.16401e-05 0)
(0.000279709 4.97904e-05 1.64683e-21)
(0.000357081 5.11169e-05 -2.8443e-21)
(0.000427294 -0.00015297 0)
(0.00066116 0.00177543 2.45679e-22)
(-1.39732e-06 -0.000271473 2.34335e-21)
(0.000719153 0.00199296 1.829e-21)
(0.000740039 0.00200817 -1.13744e-21)
(0.000517251 0.00169533 -5.2701e-22)
(0.00102932 5.3141e-05 0)
(0.000924991 1.45949e-05 1.55343e-22)
(0.000217194 -7.01777e-05 -4.01338e-22)
(0.00070553 0.00196155 1.37045e-21)
(1.95226e-05 1.54664e-07 0)
(0.00072451 0.0019878 0)
(0.000635177 0.00185912 1.05106e-21)
(0.000845019 -8.87021e-05 0)
(0.000135289 -3.50557e-05 -8.01841e-23)
(0.000948999 2.16518e-06 -5.85329e-22)
(1.83329e-05 0.000264046 7.64796e-22)
(0.000129134 -0.000144983 9.5111e-22)
(0.000820713 7.28151e-05 1.42392e-21)
(0.00114081 0.00138899 -4.04849e-21)
(2.29309e-05 4.16638e-05 -2.23451e-21)
(0.000721861 0.00195308 3.24705e-21)
(0.000670707 0.00187206 -2.48708e-21)
(0.00100825 1.46991e-05 0)
(0.00085201 4.50967e-05 -1.19921e-23)
(0.000640947 0.00185544 1.71428e-21)
(0.000126127 -5.08465e-05 -1.28671e-21)
(0.000647767 0.00177927 -1.23296e-22)
(0.000737347 0.00195524 8.89239e-22)
(0.000712856 0.00195607 -2.8277e-21)
(2.99808e-05 5.65895e-05 -6.70665e-22)
(7.72151e-05 0.000256179 8.29238e-23)
(5.06882e-05 8.68671e-06 1.40094e-21)
(1.55546e-05 2.62677e-05 5.60652e-22)
(0.00059144 0.00177904 0)
(0.000167642 -5.93057e-05 -1.51601e-25)
(0.000740168 -1.03762e-05 0)
(2.10077e-05 4.33001e-05 2.77102e-22)
(0.000660639 0.00177333 9.31209e-22)
(9.82905e-05 -4.23207e-05 0)
(0.00028784 0.000692845 -1.75973e-21)
(0.000945174 -1.96796e-05 0)
(1.6186e-05 -1.85441e-05 6.41998e-22)
(0.000726507 -0.000189765 0)
(0.00096569 7.44444e-05 0)
(0.000731248 4.75654e-05 7.69849e-22)
(2.90691e-05 -0.000287545 0)