/*--------------------------------*- C++ -*----------------------------------*\
  =========                 |
  \\      /  F ield         | OpenFOAM: The Open Source CFD Toolbox
   \\    /   O peration     | Website:  https://openfoam.org
    \\  /    A nd           | Version:  7
     \\/     M anipulation  |
\*---------------------------------------------------------------------------*/
FoamFile
{
    version     2.0;
    format      ascii;
    class       surfaceScalarField;
    location    "88.5";
    object      phi;
}
// * * * * * * * * * * * * * * * * * * * * * * * * * * * * * * * * * * * * * //

dimensions      [0 3 -1 0 0 0 0];

internalField   nonuniform List<scalar> 
1111
(
6.88728e-09
1.3016e-08
-1.60184e-08
-3.88488e-09
6.85598e-09
-1.18114e-08
1.18427e-08
-1.47509e-08
5.6281e-09
8.93599e-09
1.86852e-10
8.16695e-10
-9.39929e-10
-1.43536e-08
1.44768e-08
-1.43068e-08
1.40781e-08
1.04537e-09
-1.63489e-09
1.49121e-08
2.1513e-09
-3.04887e-09
9.55513e-09
-9.77929e-09
3.27304e-09
-6.71773e-09
-1.26148e-08
1.26003e-08
6.7323e-09
-5.03043e-08
-2.60436e-08
7.63479e-08
-8.12909e-09
7.69408e-09
7.29099e-09
3.35677e-09
3.62802e-10
-3.43835e-09
-2.81222e-10
1.58498e-08
-1.62166e-08
-2.32024e-08
2.35693e-08
-9.66262e-09
-7.89489e-09
8.80125e-09
8.75626e-09
-3.55513e-08
1.76969e-08
-3.23157e-08
5.01701e-08
9.50369e-09
-1.96353e-09
-1.42579e-08
-7.08333e-10
1.64291e-09
-3.12594e-09
2.19136e-09
-3.91523e-09
1.33419e-08
1.96564e-09
-1.13923e-08
8.81693e-09
-2.631e-09
-1.50481e-08
8.86222e-09
3.73316e-08
-3.00048e-08
-7.3268e-09
-1.94524e-08
3.7394e-10
1.72382e-08
1.84031e-09
-1.03409e-09
4.22514e-09
-1.78547e-08
1.46637e-08
-6.12227e-08
-3.96237e-09
6.5185e-08
1.4117e-10
-1.17458e-09
-3.35735e-10
1.36915e-09
-1.71003e-09
-1.36309e-08
-9.83084e-11
-2.50949e-10
1.95609e-10
1.53649e-10
-1.0345e-08
-8.47991e-09
1.3004e-08
5.82088e-09
6.84599e-10
-2.12462e-09
-8.3063e-09
9.74632e-09
8.52172e-09
8.01821e-10
-9.55505e-09
2.31511e-10
-2.877e-09
-7.97863e-09
1.10523e-08
-1.9665e-10
1.14052e-08
-9.53003e-10
-1.63522e-09
-8.40836e-10
8.41103e-10
4.34401e-12
-4.61161e-12
-1.16759e-10
7.13012e-10
2.49065e-10
-8.45317e-10
-4.56806e-10
-3.93314e-11
4.8944e-10
6.69762e-12
-3.57619e-11
-8.16215e-10
1.11678e-10
7.40299e-10
-9.66968e-11
-7.79901e-10
9.44222e-10
-1.84266e-08
-1.97007e-09
-3.75615e-10
4.15585e-11
-1.2275e-10
1.33869e-08
-1.32417e-08
4.0799e-09
-3.63124e-10
5.6031e-10
3.34066e-10
-5.31252e-10
-7.18611e-11
-1.54109e-09
1.27038e-09
3.42575e-10
-2.01258e-09
1.05214e-08
-1.15577e-08
-2.68464e-10
-1.55763e-10
4.86119e-11
-8.7551e-09
1.04319e-08
-9.80588e-09
1.22343e-08
-1.71481e-08
4.62782e-09
2.86006e-10
5.68934e-11
-1.54935e-10
-1.70423e-10
1.73399e-10
7.77561e-10
-1.09856e-10
-5.95328e-08
7.42302e-08
-1.46974e-08
1.03015e-09
-2.45146e-10
-1.15443e-09
3.69429e-10
1.14878e-09
1.03114e-08
-1.37162e-08
2.25605e-09
-1.70482e-09
7.67093e-09
-8.92877e-09
2.96266e-09
-6.69437e-09
5.64141e-09
5.65321e-09
-4.60025e-09
-7.61313e-09
-1.73318e-09
1.75947e-09
7.58685e-09
-1.83069e-10
-9.09167e-08
9.1303e-08
-2.0315e-10
-2.5761e-10
-8.97528e-08
9.01631e-08
-1.52707e-10
8.3079e-08
-1.49345e-09
1.10055e-10
-8.16956e-08
-2.90003e-09
-4.45767e-10
6.53895e-10
8.32944e-10
-4.56688e-10
3.93004e-09
-1.14564e-09
3.4508e-09
-6.23519e-09
-9.55945e-10
8.84198e-10
-1.49421e-08
6.59113e-09
9.75252e-09
1.04736e-09
-1.05262e-08
-2.7373e-10
-6.1242e-09
1.34162e-08
1.06597e-09
-8.35799e-09
1.43673e-08
-4.49525e-09
3.70993e-09
-1.3582e-08
1.54008e-08
1.68215e-09
-1.65416e-09
-1.92069e-10
-2.00632e-08
-7.42678e-09
2.7682e-08
1.43293e-08
-8.7171e-09
-1.93181e-09
7.95478e-09
-1.21472e-08
1.84452e-12
6.79786e-11
-1.22426e-09
-3.62166e-08
-2.33162e-08
8.28973e-09
2.59059e-10
3.68552e-09
-7.01056e-09
1.10881e-08
6.35439e-09
-5.90162e-10
3.15249e-10
4.75829e-10
-2.00915e-10
5.76247e-09
-4.77161e-09
3.65324e-09
-4.64409e-09
-4.50458e-10
-6.24296e-10
2.58539e-10
6.50357e-10
-5.78011e-10
-8.84407e-12
-8.20425e-10
7.1251e-10
-1.80936e-08
2.4281e-09
1.55803e-09
1.41074e-08
2.19728e-10
-6.8822e-10
-1.2167e-10
-4.12273e-09
-1.51061e-08
1.13531e-09
5.61154e-09
1.20528e-08
-5.22656e-09
-1.24378e-08
1.64259e-08
6.94427e-10
-1.58894e-08
-1.23088e-09
-6.71628e-10
4.48641e-10
5.38235e-10
-3.93712e-10
1.96688e-10
1.97025e-10
-7.39846e-09
-3.57297e-09
4.27706e-09
-2.23211e-10
3.44268e-10
-1.21056e-10
1.16119e-09
-1.56289e-08
-8.15237e-10
9.79962e-09
-1.0997e-08
-9.49757e-10
-4.02557e-10
1.29051e-08
4.41495e-09
-4.16171e-09
-1.31584e-08
9.83786e-11
7.14508e-09
-7.91169e-09
6.40802e-09
-1.67503e-09
-8.93459e-09
8.16438e-09
2.44525e-09
-1.88618e-09
6.68152e-10
-1.38881e-08
-1.23168e-10
-1.00043e-10
1.817e-10
7.62221e-10
-8.55705e-09
7.501e-10
1.72901e-08
-1.6143e-09
-1.22778e-08
1.36363e-08
-1.35848e-09
1.22109e-08
1.39552e-08
-1.55091e-08
-1.0657e-08
-5.38068e-10
9.87086e-10
-4.49018e-10
3.96492e-10
-3.26872e-10
-6.96204e-11
3.98733e-10
-1.19619e-10
-2.79114e-10
1.39149e-09
-1.12826e-09
-2.63231e-10
-1.06207e-08
8.31165e-10
9.78949e-09
2.02983e-09
-6.38347e-10
8.96334e-09
-1.53904e-08
7.53467e-09
-9.05779e-09
5.72219e-11
3.69907e-09
-3.99526e-10
-2.39264e-09
2.44986e-09
-6.57852e-09
7.91151e-09
-1.33299e-09
-5.60821e-10
4.24578e-09
2.45078e-10
1.72707e-08
-1.44825e-08
-1.6394e-09
-6.00547e-09
5.38732e-09
-5.27492e-10
-1.93801e-10
5.89393e-09
-5.88835e-09
-5.57136e-12
6.90067e-09
4.515e-09
-6.06484e-12
-1.59961e-08
1.04619e-08
1.77451e-08
5.77032e-09
8.27544e-09
8.20102e-09
-6.84865e-09
1.34514e-09
-1.19658e-08
4.33709e-10
1.23175e-09
-1.29727e-08
2.87447e-09
-4.24614e-10
1.15277e-08
-1.08333e-08
-2.48844e-10
-7.9761e-10
-1.38052e-08
7.60891e-09
7.42451e-10
-6.76427e-12
-8.89946e-09
5.04202e-09
-3.01969e-08
-1.25092e-08
-2.78863e-09
1.4926e-09
1.40862e-08
1.10135e-08
-1.07754e-08
-1.43243e-08
1.54271e-08
-3.1263e-09
-1.23008e-08
1.61975e-09
3.96849e-09
-1.07851e-09
-9.02793e-10
-8.65661e-10
1.16312e-09
6.05332e-10
-2.34692e-10
3.55322e-10
3.55199e-10
6.21392e-08
-6.21648e-08
2.56454e-11
6.20598e-08
-6.23636e-08
3.03858e-10
8.37101e-10
6.47348e-08
-6.55615e-08
8.26655e-10
6.41274e-08
6.07477e-10
-2.24467e-10
-6.65068e-08
9.4532e-10
-6.2053e-08
6.19185e-08
1.34503e-10
1.31553e-09
-6.78223e-08
-6.22128e-08
1.59752e-10
1.25551e-08
-7.30326e-10
1.34305e-09
-3.70029e-09
3.08757e-09
3.2566e-10
-1.18793e-09
9.39037e-10
-5.91726e-10
1.39376e-09
-1.63175e-09
8.29717e-10
1.41023e-09
-1.51602e-09
1.73768e-10
-5.56256e-11
-3.42392e-09
2.784e-09
-2.01501e-09
2.65492e-09
-4.86298e-10
-2.75042e-09
2.50639e-09
-3.58331e-09
-5.78855e-09
5.88067e-10
-6.20783e-10
1.21833e-09
1.11447e-09
-6.49283e-09
7.92992e-09
3.07791e-09
1.97821e-08
-4.35506e-09
-7.10051e-10
2.86454e-10
1.01166e-09
-1.00936e-08
-2.61229e-08
5.32695e-09
-4.2904e-09
-3.16751e-09
2.13096e-09
1.04704e-10
2.32674e-11
3.61468e-10
-2.58323e-09
3.34915e-09
8.9303e-09
7.48296e-10
-2.61499e-10
2.10515e-09
-2.32995e-09
1.88762e-09
1.47352e-08
1.33062e-08
-2.6943e-08
3.26991e-08
6.3408e-09
-2.28296e-08
-1.04543e-08
1.84758e-08
-1.79658e-08
1.05035e-08
-8.83254e-11
-1.85308e-10
-1.24239e-09
-1.71948e-09
-2.93765e-09
3.56401e-09
1.50754e-08
-6.0915e-10
-1.37981e-08
-6.08518e-10
-2.38309e-09
2.41181e-10
1.54684e-08
1.77425e-08
1.37048e-08
7.2402e-10
-1.67962e-09
-1.27492e-08
-1.56143e-09
5.98567e-09
1.2531e-08
-5.13526e-10
-1.06399e-09
-3.61864e-09
2.77804e-09
3.62461e-09
2.48736e-09
1.4451e-08
4.24657e-09
-1.42827e-08
1.79763e-08
-1.76557e-09
2.51475e-09
-3.4108e-09
1.89844e-09
-4.89966e-09
1.29475e-08
-1.19631e-08
-1.40349e-08
3.43073e-10
8.7922e-09
-1.81393e-09
1.51556e-09
1.5167e-09
-8.659e-09
7.06685e-10
-4.55684e-09
-6.01269e-09
1.21992e-08
-1.48455e-08
1.12094e-09
1.67002e-09
-2.20889e-09
1.67635e-08
-1.62246e-08
-1.07234e-09
1.4168e-08
3.0522e-09
-4.4105e-09
-1.40321e-08
7.53539e-09
-1.73523e-08
-8.14888e-09
6.78514e-09
5.86731e-09
1.45694e-08
-9.97176e-09
3.03806e-09
9.37895e-09
9.85747e-09
3.84276e-09
-4.187e-09
2.17148e-08
-1.91593e-08
4.97993e-09
-1.0525e-08
2.17301e-09
5.64816e-09
1.38861e-08
-2.82348e-10
1.27889e-08
-1.35789e-08
-1.90448e-09
1.85928e-09
-8.64548e-10
9.09746e-10
1.10256e-08
-6.3759e-09
7.40313e-09
-1.09219e-08
1.44425e-09
-4.74648e-09
1.1462e-08
-1.19421e-08
-7.56574e-09
9.18927e-09
9.40204e-09
1.28968e-08
6.58229e-10
-1.38374e-08
1.48599e-09
7.91595e-10
-1.11052e-08
-6.72324e-09
1.02627e-08
-1.44325e-09
2.51582e-09
-8.97437e-09
4.79691e-09
-5.25555e-09
1.15564e-08
-3.4856e-09
-1.17644e-08
3.69356e-09
-4.48001e-09
1.12899e-08
1.87413e-09
1.12742e-09
-5.03493e-09
-1.77686e-08
1.04744e-08
1.23291e-08
7.5317e-10
-1.09955e-08
-9.99199e-09
1.59526e-08
1.25684e-08
2.85814e-09
-9.77838e-09
-1.33184e-08
-3.19754e-10
-1.27543e-08
1.6343e-10
-7.65238e-10
1.16541e-08
1.25341e-08
-8.23537e-09
1.66242e-08
-1.60036e-08
3.6259e-09
-4.71363e-10
1.76449e-09
1.28143e-08
-3.9179e-09
-1.26816e-08
-5.07876e-09
1.69765e-09
4.61286e-09
1.22472e-08
-7.25096e-09
9.31121e-10
-1.61383e-09
7.56325e-10
-1.04697e-09
5.87096e-09
2.63473e-08
-1.3824e-10
-9.92742e-09
1.00657e-08
2.85456e-08
-2.23007e-08
2.20851e-08
1.97306e-08
-1.27153e-08
-2.68206e-09
1.50845e-08
1.90634e-10
-1.21437e-08
-4.1996e-10
-6.01913e-09
-1.86949e-09
2.222e-09
1.52162e-09
-3.75493e-10
-1.1083e-08
1.14826e-08
-2.40983e-11
3.10077e-09
-5.21686e-09
-1.10526e-08
1.06051e-08
-9.05252e-10
-1.07819e-08
-1.91712e-10
-1.12397e-08
-2.57638e-09
-1.20304e-08
2.18408e-09
7.90374e-09
5.13925e-09
-3.41403e-10
-1.18006e-08
1.17665e-08
5.81028e-10
-8.80277e-09
5.16813e-09
-1.47408e-09
2.30307e-09
-2.21925e-09
-1.30509e-08
-1.26682e-08
1.21885e-08
-1.02136e-08
-1.57915e-08
1.00089e-08
9.26485e-09
8.41985e-10
2.66572e-09
-1.25931e-08
1.14279e-08
1.67047e-09
3.92534e-09
2.97715e-10
-5.05955e-10
-2.42218e-10
-4.13457e-09
2.556e-09
-8.0452e-10
1.91567e-10
-2.25304e-10
3.37371e-11
-2.67321e-09
1.30261e-08
2.21547e-09
2.54828e-09
-4.92005e-11
-1.43755e-09
-4.67233e-10
-2.35012e-09
-3.29818e-10
1.29774e-08
1.00504e-08
-3.37392e-10
6.83909e-09
-1.23434e-09
-5.26735e-09
-9.79479e-09
-5.1157e-09
1.46254e-10
4.53127e-11
4.87722e-09
1.32085e-09
-1.71936e-08
-3.63824e-10
-7.73998e-10
-2.76954e-09
1.02221e-09
3.01356e-09
6.19406e-08
-8.60216e-11
-6.18546e-08
6.23636e-08
1.88683e-10
-6.25523e-08
-1.41351e-08
-2.04171e-10
1.4494e-08
-1.54698e-10
3.0556e-09
-1.83129e-09
2.54694e-09
1.80016e-09
-4.48866e-09
-3.33348e-10
-5.28696e-10
4.28978e-10
-1.01197e-10
4.42223e-10
-3.00272e-10
1.96467e-08
1.07073e-09
-1.58402e-08
-1.56768e-10
-1.93554e-09
1.2481e-08
2.2688e-09
1.79106e-09
5.34114e-09
-2.10257e-09
-7.72337e-08
-2.41776e-08
-4.91509e-09
1.58334e-08
2.42361e-09
-1.44447e-10
-3.0102e-09
-1.10746e-09
3.59887e-10
-3.16415e-10
-1.01566e-08
-3.5427e-10
1.05109e-08
-1.08391e-08
-6.60102e-09
1.07168e-08
-9.45729e-09
8.75836e-09
1.83473e-10
1.53136e-09
9.6741e-09
-9.58532e-09
-8.87817e-11
6.07369e-10
8.53014e-11
1.0644e-08
6.46889e-10
-8.09021e-10
-1.14964e-10
-1.42439e-08
-4.8251e-10
-1.37868e-08
1.26403e-08
-1.18548e-08
-6.60339e-08
6.49884e-08
1.04553e-09
2.5863e-10
-2.35363e-10
1.19821e-08
-2.34767e-10
9.46251e-12
-2.04824e-09
2.76603e-09
-3.42951e-09
-1.34762e-08
-1.6263e-09
2.57261e-09
-4.72817e-09
-1.40694e-08
1.60397e-09
5.56824e-09
9.65029e-09
-9.01064e-09
-2.59576e-10
2.48092e-11
-9.32434e-09
-1.3312e-08
1.50828e-10
-6.2697e-08
2.3549e-10
6.24615e-08
6.95151e-10
6.34322e-08
-2.24179e-10
-1.57668e-09
-1.44869e-08
1.07476e-10
-6.33998e-08
6.32923e-08
1.85419e-10
-6.29408e-08
6.27554e-08
3.60522e-10
6.18029e-08
1.50616e-10
-6.19536e-08
6.16339e-08
1.69039e-10
-8.78923e-08
8.85017e-08
-1.91607e-12
9.33962e-08
-9.31029e-08
-2.67638e-10
-8.66311e-08
-4.34536e-10
9.3355e-08
-1.83335e-10
-8.49172e-08
-7.68623e-10
9.34858e-08
1.73097e-10
-5.22692e-10
1.96101e-09
9.23619e-08
-6.93158e-08
6.21445e-08
-6.23276e-08
-6.29546e-08
6.14913e-08
1.42645e-10
-3.10117e-09
2.93657e-09
-1.4118e-08
5.11004e-11
9.51534e-11
1.41647e-09
8.75395e-09
-1.13849e-08
3.82957e-08
-3.45231e-08
-1.67454e-08
1.37937e-08
-4.2998e-11
-2.14215e-10
1.60289e-10
6.6696e-10
-1.29698e-10
3.23984e-10
4.48322e-09
1.03586e-09
-3.62064e-09
-1.87108e-10
2.28666e-10
-1.38496e-10
-2.5597e-09
1.3174e-08
2.41184e-09
-1.44361e-08
-2.62425e-09
-3.35128e-09
5.56883e-09
1.04536e-09
-2.65525e-09
1.42873e-08
-1.15757e-09
-2.04733e-09
2.3337e-09
-8.1265e-09
-1.90581e-08
-1.34594e-08
7.96964e-09
5.83281e-09
-2.29499e-10
-5.57383e-10
3.00888e-09
1.44754e-08
2.26462e-09
-1.82788e-09
-3.92802e-10
4.42772e-10
-2.43772e-10
1.59643e-08
-5.72385e-10
-1.57462e-08
-3.46457e-10
-4.81494e-10
3.2244e-10
-2.47528e-10
3.46213e-09
-1.64209e-08
4.70632e-10
-1.53858e-09
-2.12927e-09
-2.32603e-09
1.56233e-08
-9.05974e-08
-1.33911e-10
9.16826e-08
-1.90984e-10
-8.91677e-08
-4.77587e-10
9.31059e-08
-2.75487e-10
-9.29164e-08
-5.53131e-10
-1.6238e-09
1.67483e-08
9.19841e-08
-1.988e-10
2.91401e-11
-2.21159e-10
9.87715e-09
2.52443e-09
-7.54203e-09
-1.21664e-08
-5.67822e-09
8.42696e-09
1.47279e-09
-6.82184e-09
-6.01581e-09
9.02759e-09
-8.16033e-11
1.01451e-08
1.94945e-08
-1.79686e-08
3.08062e-09
-1.26865e-08
3.08555e-09
-6.9977e-08
3.943e-09
-2.0574e-08
-1.30827e-08
-4.92147e-10
-5.94973e-09
-1.52833e-08
9.08929e-09
-1.5158e-08
4.37097e-10
3.69636e-10
-1.87162e-09
-1.65917e-08
1.70309e-08
7.35518e-09
-7.80094e-09
-4.77879e-09
1.52759e-08
-1.68082e-09
6.92208e-10
-9.87616e-10
1.61126e-10
1.19446e-08
3.32096e-09
7.09092e-08
-1.82385e-08
7.52811e-10
-1.49891e-08
-2.36996e-10
-2.76862e-10
-9.09433e-11
6.09534e-08
-6.12289e-08
-6.33707e-08
-6.31396e-08
-6.39294e-11
-2.62434e-10
-9.25901e-08
-6.04543e-08
6.24154e-08
6.50985e-08
-6.02812e-08
6.45758e-08
-6.04646e-08
6.38071e-08
-6.07322e-08
6.33726e-08
9.23129e-08
2.8525e-10
-6.37098e-09
7.51136e-08
-6.54217e-08
4.17012e-11
-4.17012e-11
3.71152e-10
-3.2782e-10
1.54847e-08
-2.92775e-11
2.92775e-11
3.41527e-10
1.53209e-09
1.38967e-08
1.3387e-08
-2.73331e-09
3.72583e-09
6.54828e-09
1.84861e-09
3.73737e-10
-2.55412e-10
-2.97896e-09
1.45807e-08
1.48465e-08
-4.28437e-09
1.18183e-08
1.86792e-10
1.49559e-10
2.7644e-09
-8.41349e-10
-1.55498e-09
-5.83897e-09
-2.05312e-10
-4.01287e-10
1.53059e-08
2.59598e-10
6.91008e-11
1.45805e-08
-2.61684e-08
1.7744e-08
2.64533e-09
1.28126e-09
2.49501e-09
-3.72398e-09
1.92909e-08
-1.80619e-08
-8.14675e-11
2.13143e-10
-1.44017e-09
-7.92099e-08
-7.0756e-08
1.32664e-09
-5.46247e-10
6.46972e-10
2.29798e-08
1.85998e-08
-6.35106e-09
7.68186e-11
-4.29881e-09
-2.51176e-09
2.9949e-08
1.53275e-10
1.48184e-08
7.35812e-08
5.23261e-11
5.17879e-10
-1.58776e-10
-2.1813e-10
-3.66248e-09
2.42484e-08
-1.48675e-08
9.93532e-10
-1.41678e-08
-5.34519e-11
2.03806e-08
-2.86804e-08
9.34817e-10
1.98725e-09
-3.0934e-10
)
;

boundaryField
{
    back
    {
        type            empty;
        value           nonuniform 0();
    }
    ingreso
    {
        type            calculated;
        value           nonuniform List<scalar> 
14
(
-1.54286e-08
-1.54288e-08
-1.54288e-08
-1.54288e-08
-1.54286e-08
-1.54283e-08
-1.54288e-08
-1.54288e-08
-1.54286e-08
-1.54286e-08
-1.54288e-08
-1.5428e-08
-1.5428e-08
-1.54286e-08
)
;
    }
    salida
    {
        type            calculated;
        value           nonuniform List<scalar> 2(1.01411e-07 1.14589e-07);
    }
    front
    {
        type            empty;
        value           nonuniform 0();
    }
    defaultFaces
    {
        type            calculated;
        value           uniform 0;
    }
}


// ************************************************************************* //
