/*--------------------------------*- C++ -*----------------------------------*\
  =========                 |
  \\      /  F ield         | OpenFOAM: The Open Source CFD Toolbox
   \\    /   O peration     | Website:  https://openfoam.org
    \\  /    A nd           | Version:  7
     \\/     M anipulation  |
\*---------------------------------------------------------------------------*/
FoamFile
{
    version     2.0;
    format      ascii;
    class       volVectorField;
    location    "88.5";
    object      U;
}
// * * * * * * * * * * * * * * * * * * * * * * * * * * * * * * * * * * * * * //

dimensions      [0 1 -1 0 0 0 0];

internalField   nonuniform List<vector> 
591
(
(0.000834634 -1.24765e-05 1.21686e-18)
(0.000828517 -1.20832e-05 -6.62652e-19)
(0.000855807 9.56925e-06 5.70759e-20)
(0.00086517 -2.01703e-05 -1.4905e-19)
(0.000851596 -5.87707e-06 2.25491e-19)
(0.000803328 -3.94173e-05 -1.39589e-19)
(0.000565585 -0.00024751 8.06034e-19)
(0.000803913 4.49226e-06 2.10109e-18)
(0.00572815 0.00250838 9.87932e-19)
(0.000809726 -6.26448e-06 2.44871e-18)
(4.68993e-05 0.000163815 1.21802e-18)
(0.000937225 0.00138871 9.40757e-21)
(0.000800798 4.17182e-06 1.32319e-18)
(0.00160107 0.00240169 -7.87408e-19)
(0.000803363 1.64483e-06 -4.45859e-19)
(5.01009e-05 -0.000170736 2.07517e-22)
(0.00013962 0.000673153 7.0484e-19)
(0.000817792 7.6357e-05 -4.96942e-19)
(0.00190601 0.000392815 4.73836e-19)
(0.00136003 0.000254213 -2.47068e-19)
(0.000832421 -8.2585e-06 3.73135e-19)
(0.00340023 0.00655957 -8.14829e-20)
(2.45137e-05 6.60319e-05 2.70891e-19)
(0.000836157 -2.29226e-05 -4.51461e-19)
(7.87658e-06 -1.27986e-05 3.58841e-19)
(0.00078577 3.92891e-05 0)
(9.41635e-05 0.000469586 1.5994e-19)
(0.000563262 2.17943e-06 -1.78798e-19)
(0.00076085 4.66863e-05 1.14924e-18)
(0.000807972 6.52788e-05 5.8525e-19)
(5.19808e-05 -4.95993e-06 -4.93211e-24)
(2.53777e-05 -4.15484e-05 3.52096e-19)
(3.1031e-05 -2.71032e-06 -4.64119e-20)
(4.02592e-05 -1.21896e-05 0)
(4.90887e-05 -1.29291e-05 1.1312e-18)
(0.00117246 0.000137333 1.79874e-19)
(2.62044e-05 -4.56552e-06 4.47044e-20)
(0.000824923 9.54338e-07 3.17789e-23)
(2.44183e-05 4.01409e-05 2.65971e-19)
(-1.19544e-06 -7.45216e-05 -8.53539e-19)
(0.000654266 -0.000197926 9.59032e-19)
(2.05505e-05 -5.51823e-06 4.54722e-20)
(0.000809772 1.19972e-05 -1.58054e-18)
(0.000832232 4.82972e-05 -6.91e-19)
(1.35146e-05 -6.30954e-06 0)
(5.03888e-05 4.86335e-06 8.51682e-20)
(0.00134787 0.00450283 8.92868e-19)
(7.06783e-05 1.22665e-05 8.63435e-20)
(0.00080197 1.62816e-05 0)
(0.0003907 -0.000225152 6.77163e-19)
(0.000387332 0.000268736 5.11817e-21)
(0.000400601 3.80321e-05 -1.00357e-18)
(0.00634767 0.0109407 -7.68617e-19)
(0.00622452 0.0107959 1.52874e-20)
(0.00561426 0.0103786 1.45587e-18)
(0.00080673 4.14574e-05 0)
(6.3031e-05 2.71468e-05 0)
(0.000318915 5.22909e-07 2.15029e-23)
(5.81745e-05 7.90405e-06 -3.46382e-19)
(0.00081298 -7.37802e-06 0)
(0.000653974 2.87035e-05 3.17489e-19)
(0.000842029 2.13661e-05 2.20736e-18)
(0.000808112 3.64896e-05 -5.38534e-19)
(0.000800045 1.24286e-05 -3.15685e-19)
(0.00171303 0.000488654 5.42649e-19)
(0.000806892 2.6787e-05 -1.14944e-18)
(0.000835329 3.08025e-05 -5.24088e-19)
(7.36719e-05 -5.71336e-06 -1.73373e-19)
(0.000689232 0.00226029 0)
(0.000843256 4.6122e-05 0)
(0.000787747 2.24145e-05 -1.39275e-18)
(3.49986e-05 1.41289e-05 0)
(0.000291782 0.000265677 3.26785e-19)
(3.48583e-05 -1.59552e-05 0)
(3.66875e-05 -5.6214e-06 1.59437e-19)
(8.87257e-06 -3.78952e-05 -3.3659e-20)
(0.0007992 7.85111e-05 2.46882e-19)
(4.06514e-05 9.02148e-06 0)
(0.000808478 5.54666e-05 4.47425e-19)
(0.000779175 0.000294363 2.10683e-19)
(0.000962165 6.62064e-05 -3.97812e-20)
(3.975e-05 2.05237e-05 -4.51763e-20)
(4.22324e-06 -1.50731e-05 0)
(0.000439965 0.000212618 1.70151e-19)
(2.7559e-06 1.82538e-05 0)
(0.000802795 4.40833e-05 -6.06887e-19)
(0.000634328 -0.000117694 0)
(5.91851e-05 -3.77489e-06 -1.74441e-19)
(1.65827e-06 -2.08019e-05 0)
(0.000833956 0.000241006 -3.41185e-19)
(2.57564e-06 -8.65399e-06 0)
(0.000429388 0.000320915 -1.33236e-23)
(0.000539946 0.000109068 0)
(0.000813619 4.35034e-05 -3.04916e-24)
(2.34582e-06 1.11177e-05 -4.2162e-20)
(0.00046676 -2.33528e-05 1.76313e-18)
(0.00102034 7.27153e-05 4.15921e-20)
(0.000798342 4.63593e-05 6.41397e-22)
(0.000745007 0.000658912 2.69447e-19)
(6.89709e-06 4.18649e-05 0)
(-4.35167e-06 -2.65488e-05 -3.12124e-19)
(-3.39281e-05 -3.86763e-05 -1.10172e-18)
(4.79672e-06 6.84863e-05 -5.96238e-19)
(0.00060036 -2.65068e-05 0)
(8.9174e-06 9.22452e-05 0)
(0.000818306 3.17883e-05 2.18208e-18)
(0.000796711 3.24454e-05 1.53395e-18)
(0.000442471 -0.00010279 0)
(3.98507e-05 0.00021093 -8.95181e-19)
(7.41329e-07 0.000156225 4.96735e-19)
(5.7596e-05 0.000396053 6.25144e-19)
(0.000309587 7.10433e-05 -9.36977e-19)
(0.000802089 2.00662e-05 1.37388e-19)
(0.000258423 -6.18165e-05 5.31105e-19)
(4.23479e-06 2.68924e-05 0)
(1.93201e-05 0.000274121 -1.09388e-18)
(0.000324351 0.000320161 -1.61674e-19)
(-1.28961e-06 -2.11528e-05 1.46526e-19)
(0.000669877 0.000809079 0)
(0.000372581 0.000383237 5.74306e-20)
(0.00082246 2.52461e-05 1.07044e-18)
(0.000799693 1.70204e-06 -2.72346e-18)
(5.6418e-06 -5.12564e-06 0)
(0.000662193 -3.89923e-05 -1.12287e-19)
(0.000322936 -0.000138957 1.24294e-18)
(0.00262805 0.000810222 -3.36481e-19)
(7.41286e-06 0.000121725 -6.13115e-19)
(7.64604e-06 0.000149857 1.61938e-18)
(0.000672643 2.46931e-05 -3.89756e-20)
(5.69902e-05 -1.56086e-05 -7.49995e-19)
(0.000810353 3.61073e-05 -3.89278e-19)
(0.000722538 2.71057e-05 -4.10419e-20)
(3.27885e-05 0.000320595 -5.97011e-19)
(0.000497908 5.62664e-05 -4.93828e-19)
(4.35001e-05 -4.07489e-06 1.56117e-19)
(0.000839759 3.75804e-05 -1.08985e-18)
(0.00153757 0.000234857 -1.13674e-18)
(4.95376e-06 5.51083e-05 4.96324e-19)
(0.000812227 3.49801e-05 -5.03025e-19)
(0.000921469 0.000550648 -7.84942e-20)
(0.000148943 0.000781901 0)
(0.000595061 6.31713e-05 0)
(0.000277466 4.45635e-05 -1.60924e-18)
(6.00684e-05 5.39994e-05 -1.3738e-18)
(2.80726e-05 1.83622e-05 0)
(0.00424743 0.00740041 -1.01974e-20)
(0.00422561 0.00737217 3.16608e-20)
(0.00442779 0.00757493 -4.97733e-21)
(0.00420598 0.00773375 0)
(0.00419844 0.00759955 5.77251e-19)
(0.00424444 0.00740162 -9.2028e-20)
(0.00420969 0.00804122 4.84479e-19)
(0.00429008 0.00742274 0)
(0.00420801 0.00853416 6.16788e-19)
(0.00432663 0.00745134 2.23946e-19)
(0.000831824 1.75323e-05 -1.37285e-18)
(0.000779485 5.89068e-05 0)
(0.000211344 4.26416e-05 1.27674e-19)
(4.62764e-05 1.33009e-05 8.71653e-20)
(7.39508e-05 3.98333e-05 6.79873e-19)
(0.000100832 3.49496e-05 -3.41595e-19)
(9.34464e-05 -6.23415e-08 0)
(4.3552e-05 3.36052e-06 8.18187e-20)
(0.000207381 0.000124108 0)
(0.000161628 3.20484e-05 -5.24206e-20)
(0.000346767 0.000216815 -5.0916e-21)
(5.24711e-05 3.89288e-05 -4.37559e-19)
(8.55784e-05 2.18266e-05 -8.52286e-20)
(8.6677e-05 5.61424e-05 1.31167e-21)
(0.000260038 0.000361496 -6.66054e-19)
(0.000109396 0.000993071 0)
(3.94351e-05 4.86022e-05 3.42988e-19)
(0.000198933 0.00174412 0)
(0.000208556 0.000247967 7.04529e-19)
(3.27211e-05 -3.17087e-06 1.1147e-19)
(0.000491026 0.00016071 -1.72268e-19)
(0.000771559 2.54896e-05 -1.92373e-18)
(3.81839e-05 -1.63897e-06 4.81008e-24)
(0.000142348 1.62639e-05 2.24544e-19)
(0.00024589 8.31375e-05 -8.99146e-20)
(0.000882362 0.000697515 3.34881e-19)
(0.000727788 0.00163447 -9.23346e-21)
(0.000399049 0.00141995 -9.3869e-21)
(0.00102883 0.00054655 0)
(9.37049e-05 -1.9537e-05 1.11846e-18)
(0.000109255 8.01153e-06 -4.42928e-20)
(0.000468532 -0.000277465 -1.13605e-18)
(0.000822191 4.26318e-05 0)
(0.000177155 -1.13802e-05 3.63233e-19)
(0.000303816 0.00129973 0)
(0.00108771 0.000774861 -7.30064e-20)
(0.000827235 2.96489e-05 -1.86512e-19)
(6.87983e-05 -2.32375e-05 -2.99912e-19)
(0.00083842 0.000315839 -2.08003e-20)
(4.78592e-05 -2.12327e-05 -5.99355e-19)
(0.000227329 0.000168419 8.63716e-20)
(0.000231412 0.000305424 -3.44947e-19)
(0.000894709 0.000251651 0)
(0.000823454 5.59412e-05 0)
(0.000266102 0.000126223 1.76813e-19)
(0.000232802 -1.19306e-05 6.37069e-24)
(0.000184846 0.000199997 0)
(0.000304195 0.00064775 -5.55604e-21)
(0.000357897 -2.30912e-05 0)
(0.000380749 0.000598384 0)
(0.000105211 7.56795e-05 -1.34642e-21)
(0.000810673 3.12092e-05 -9.57131e-19)
(0.000805871 1.83303e-05 7.97774e-19)
(0.00012481 4.98399e-05 -1.49825e-19)
(0.000968861 0.000146547 8.50241e-20)
(0.000840379 3.97785e-05 3.33506e-19)
(0.00082116 3.28137e-05 -2.94035e-19)
(0.00103 0.000419397 0)
(0.000445596 0.00011187 6.24302e-19)
(0.00090909 0.000322821 2.09093e-20)
(0.000588324 0.000151909 0)
(0.000273844 0.000445228 4.0957e-19)
(0.000262705 0.000210781 -8.44018e-20)
(0.00110141 0.000382783 -7.81956e-19)
(0.00063583 0.000102683 -1.79251e-19)
(0.000818776 7.52221e-05 -7.45733e-21)
(0.00084471 2.53096e-05 9.40075e-20)
(5.98526e-05 -8.61719e-05 -1.98091e-18)
(0.00074443 0.000380007 2.19192e-19)
(0.000680944 6.75818e-05 2.30592e-20)
(0.000714051 0.000279211 1.6163e-23)
(0.000737489 0.000461139 -4.09608e-19)
(0.000851456 1.9909e-05 9.06875e-20)
(6.89627e-05 7.38836e-05 0)
(0.00066187 0.000423504 -4.65829e-20)
(0.000182191 8.65802e-05 0)
(0.000374391 0.000501724 -2.64792e-19)
(0.000311546 0.000160326 0)
(0.000682411 0.000205659 3.55149e-19)
(0.00065717 0.000259486 -4.37159e-20)
(7.98186e-05 9.90142e-05 6.19025e-19)
(0.000882772 9.63867e-05 -1.63751e-18)
(5.34581e-05 1.88638e-05 2.57135e-19)
(0.000895324 7.32611e-05 -1.68618e-18)
(0.000847034 9.04443e-05 1.63009e-19)
(0.000813392 3.6084e-05 1.91237e-18)
(0.000821224 3.36822e-05 -1.32818e-19)
(0.000743711 7.09266e-05 0)
(0.000805513 2.0855e-05 8.95421e-19)
(0.000969907 0.000235347 -4.27002e-19)
(0.000784647 9.90344e-05 -4.83628e-19)
(0.000782178 0.000236175 -8.81024e-20)
(0.00020021 -0.000187737 -2.0759e-18)
(0.000759089 8.06141e-05 8.87337e-19)
(0.000642964 0.000592888 0)
(6.71139e-05 -0.000121516 0)
(0.00122821 0.000474481 4.97183e-19)
(0.000571245 -5.83141e-05 -3.27091e-18)
(0.00135282 0.000415538 5.76355e-19)
(0.00125198 0.000718625 -6.38858e-20)
(0.00081607 3.32653e-05 -2.12713e-19)
(0.000841946 6.68608e-05 -1.42722e-18)
(0.000814904 2.77307e-05 1.58715e-18)
(0.000816062 2.2555e-05 9.77868e-20)
(0.000673815 0.000353429 -4.40313e-20)
(9.95566e-05 0.000116036 8.01433e-24)
(0.00076191 -3.20845e-05 2.64967e-19)
(0.000210312 -0.000263092 -7.31378e-19)
(0.000635273 0.000183555 0)
(0.000721178 5.02089e-05 9.90162e-20)
(0.000712792 9.53918e-06 -3.80722e-19)
(0.000394653 0.000165316 3.93283e-20)
(0.000811418 0.000509609 -1.65443e-19)
(0.000145838 6.7539e-05 3.83578e-25)
(0.000817717 0.000413291 0)
(0.000986964 0.000316041 4.15676e-20)
(0.000766383 -6.5816e-05 -6.16049e-19)
(0.000353425 9.70465e-05 4.97718e-19)
(0.000904818 0.000427732 0)
(4.57424e-05 2.81064e-05 1.33681e-19)
(0.000491765 0.000263267 2.13906e-19)
(0.000536918 -0.000166763 -7.09294e-19)
(0.000103919 -0.000172694 -1.05553e-18)
(0.000826489 3.852e-05 -4.86625e-19)
(0.00076482 -7.02126e-05 -1.94434e-19)
(0.000548636 0.000729472 -1.17417e-18)
(0.000853659 4.68452e-05 -6.74474e-20)
(0.000582841 -1.38438e-05 1.28152e-18)
(0.000714942 9.95823e-05 2.27726e-20)
(0.000540793 0.000205287 -1.65651e-19)
(2.58544e-05 -1.95748e-05 -8.75644e-20)
(0.000155022 -5.58757e-05 2.4055e-18)
(1.39144e-05 5.89313e-07 -1.94807e-19)
(0.000839098 0.000118048 3.63661e-19)
(0.000676889 0.000135182 0)
(0.000174991 -0.000104263 -1.04794e-18)
(0.000114042 -2.51399e-05 3.12754e-19)
(9.67886e-05 -3.97878e-05 1.37025e-23)
(0.000807133 0.000105212 -3.19189e-19)
(0.000147197 -2.03851e-05 0)
(0.000593162 0.000239357 0)
(0.000111358 0.000324376 -3.62782e-19)
(0.000866981 0.000101347 2.1073e-18)
(1.13224e-05 8.18484e-07 0)
(0.000886134 5.28642e-05 0)
(3.74936e-05 -2.50974e-05 0)
(0.00081531 4.84817e-05 -4.46697e-21)
(0.000785076 -3.42324e-05 0)
(0.0042605 0.00740701 8.07141e-20)
(0.00436256 0.00748734 1.43664e-19)
(0.000843254 -1.39012e-05 0)
(0.000795352 -3.86322e-05 8.11949e-19)
(0.000151851 0.00011794 1.49178e-19)
(0.000860053 6.70212e-05 8.07808e-19)
(0.000127498 9.51206e-05 2.34345e-20)
(0.00078851 -2.33813e-05 6.24153e-19)
(3.17463e-05 8.33915e-06 0)
(2.39607e-05 -1.19573e-05 -4.48375e-20)
(0.000904532 4.80324e-05 -4.86433e-19)
(2.70367e-05 -2.92781e-05 -6.69646e-19)
(0.000765693 0.000125159 -4.23138e-20)
(0.000168965 0.000155706 -1.88061e-19)
(0.000814325 3.10502e-05 0)
(0.0046825 0.0081536 9.00942e-22)
(0.000189898 0.000790978 3.33407e-19)
(0.000103554 -6.51867e-05 -9.14316e-19)
(5.29461e-05 -3.48126e-05 -1.1685e-18)
(0.000605475 1.31795e-05 1.89794e-20)
(0.00058409 0.000405123 0)
(0.000423486 0.000444983 -2.56281e-19)
(7.08421e-05 -6.31544e-05 1.18345e-18)
(0.000565406 -7.61403e-07 7.68559e-20)
(3.82147e-05 1.23935e-06 4.07e-19)
(0.000717794 -4.52188e-05 1.17133e-18)
(0.000812586 3.27125e-05 -6.03851e-19)
(5.33631e-05 -5.43785e-05 1.70901e-18)
(0.000841685 -3.68018e-05 -6.04744e-24)
(0.000581679 6.44829e-06 -3.75688e-20)
(0.000874349 7.16772e-05 0)
(0.000844698 4.74869e-05 0)
(0.00591665 0.00724302 2.59803e-19)
(1.43262e-05 -2.8145e-06 -1.19564e-19)
(0.000103996 -0.000112034 7.72848e-19)
(0.000733967 0.000115231 -6.96269e-19)
(1.70458e-05 1.86576e-07 2.01491e-19)
(0.000643065 -3.63047e-05 -7.23632e-19)
(0.000751768 3.57925e-05 1.55766e-18)
(0.00071198 0.000158344 -3.55356e-19)
(0.000807489 -1.19713e-05 3.60845e-19)
(6.67589e-05 -3.61328e-05 1.11573e-18)
(0.000801188 6.51455e-06 -3.22611e-19)
(0.000871973 3.81177e-05 0)
(0.000547774 0.000302314 4.20927e-20)
(0.000864611 5.04463e-05 -9.47239e-19)
(1.50426e-05 2.79269e-06 9.11248e-19)
(0.00085912 4.33275e-05 9.65726e-19)
(0.000861513 2.02109e-05 -9.64473e-19)
(0.000761386 -8.3851e-07 -5.69031e-19)
(0.000539645 -8.03423e-05 -5.25518e-19)
(0.00432956 0.00745354 2.47607e-19)
(0.00422253 0.00752867 -2.78883e-19)
(0.00422085 0.00758622 2.66812e-19)
(0.00425617 0.00741093 1.98004e-19)
(0.000845085 -3.49214e-05 1.44237e-19)
(0.0044767 0.00751411 0)
(0.00440398 0.00751797 -3.87002e-19)
(2.39234e-05 -1.30966e-07 -9.98002e-19)
(0.00417038 0.00746888 -6.33751e-20)
(0.00414581 0.00743211 -2.21543e-19)
(0.00602923 0.0106052 0)
(0.00654033 0.0111871 3.71517e-20)
(0.00600916 0.0105749 0)
(0.00655603 0.0112107 1.30923e-19)
(0.00599651 0.0105989 2.69681e-19)
(0.00659273 0.0112276 1.24659e-20)
(0.00593531 0.0106117 -7.76771e-19)
(0.006623 0.0111466 8.15653e-21)
(0.0039035 0.00919793 -1.90816e-19)
(0.0041866 0.00748808 3.87476e-21)
(0.0042375 0.00755154 7.93703e-20)
(0.0041503 0.00743441 4.12094e-20)
(0.000890182 0.000195042 4.46633e-20)
(7.88977e-06 1.10811e-06 0)
(0.000719318 -0.00010866 0)
(0.000658508 5.54969e-05 0)
(0.00244428 0.00111589 4.22991e-21)
(0.000757816 -3.09385e-05 1.72537e-19)
(3.68539e-05 4.74317e-06 4.53954e-20)
(6.94419e-06 -2.34751e-05 1.65263e-18)
(0.000858311 8.2928e-06 0)
(2.5395e-05 1.11993e-05 -1.91684e-19)
(0.000139333 0.000218414 0)
(1.32711e-05 -8.77454e-07 0)
(1.04917e-05 -1.0476e-06 0)
(0.000832571 0.000145971 1.13735e-20)
(0.000811097 -1.828e-05 1.79513e-19)
(3.78567e-05 0.000262263 -1.19485e-23)
(0.000156733 0.000268973 -1.84158e-18)
(0.000608864 0.000326937 -8.56828e-20)
(0.000900214 0.000111453 6.01815e-19)
(0.000620374 -0.000172158 6.74203e-19)
(0.000359501 0.00111311 0)
(0.000479269 0.000575405 2.7148e-18)
(8.88713e-05 0.000140822 -1.80279e-18)
(1.70541e-05 -1.59181e-07 0)
(0.000822367 -6.25418e-05 3.64112e-20)
(1.46513e-05 3.29322e-05 1.64413e-18)
(0.000896225 3.47899e-05 2.71086e-19)
(-2.8894e-05 5.466e-05 3.81157e-18)
(0.000927743 4.10817e-05 -2.68955e-19)
(0.00133833 0.000152277 7.47117e-19)
(3.08973e-05 -9.91044e-06 8.25523e-20)
(3.25662e-05 2.71778e-06 -8.58946e-19)
(5.07983e-05 0.000137235 0)
(0.000916609 8.63278e-05 5.9836e-19)
(0.000497213 0.000367248 2.371e-19)
(0.000629646 1.74734e-05 -3.88999e-20)
(0.000784556 1.53263e-06 2.57351e-19)
(0.000732195 -0.000153531 0)
(0.0063204 0.010896 -1.68154e-19)
(0.00637878 0.0109734 4.05903e-19)
(0.00616007 0.0107304 -6.18478e-19)
(0.00650134 0.0111324 -8.09981e-20)
(3.25431e-05 0.000114545 8.00374e-19)
(0.000927055 6.10622e-05 1.44669e-22)
(0.00641139 0.0110059 -3.86525e-19)
(0.00628142 0.0108458 5.48373e-19)
(0.00608011 0.0106721 -4.16832e-19)
(0.00652186 0.0111648 -6.81566e-20)
(7.92405e-05 0.000495714 -2.01781e-20)
(5.84414e-05 -0.00019659 -7.92586e-19)
(0.000649725 -2.03306e-05 -7.66086e-19)
(0.000728807 0.000219669 0)
(0.00080028 1.9157e-07 0)
(0.000188312 0.000387516 3.36239e-19)
(0.000601481 0.000511378 -5.41769e-19)
(6.85983e-06 -1.19604e-06 1.78357e-19)
(0.00020009 0.000467179 -7.38268e-19)
(0.00101901 0.000978033 -1.12679e-19)
(0.000750312 0.000166038 0)
(0.000792899 0.00018487 1.30994e-19)
(0.00635152 0.00588275 1.13167e-18)
(0.000737383 0.00113052 8.26523e-20)
(3.6499e-05 3.55935e-05 -7.44534e-20)
(0.000808041 1.06454e-05 0)
(0.000872181 2.41679e-05 -3.56834e-20)
(3.10224e-05 2.45733e-06 -1.96685e-19)
(2.69765e-05 3.81877e-06 1.92959e-19)
(0.000834362 1.4532e-05 5.371e-19)
(0.000980454 0.000112676 6.5833e-19)
(0.000544869 4.33417e-05 0)
(0.000222755 -0.000281514 -3.98104e-19)
(0.00091876 0.000143844 3.8951e-19)
(5.60411e-06 -5.17758e-05 2.03014e-19)
(0.00145336 0.000441903 -2.58111e-18)
(0.000571693 -1.13434e-05 0)
(0.000797296 0.000142647 3.75391e-19)
(9.55275e-05 0.000389828 0)
(0.00118848 0.00816118 4.62077e-19)
(0.000495235 0.000498235 -1.22434e-18)
(0.000540492 0.0010159 -1.83724e-19)
(0.000885904 1.54428e-05 -1.46026e-19)
(1.1547e-05 2.32797e-05 0)
(0.000957045 7.78371e-05 6.11517e-19)
(0.00410632 0.00739533 8.14458e-20)
(0.00417121 0.00747339 4.73205e-20)
(0.00450053 0.00751677 4.54093e-19)
(0.00444559 0.00754258 -3.29161e-19)
(0.00647526 0.0111094 8.10754e-20)
(0.00391486 0.0071461 -9.55929e-22)
(0.00550813 0.00779968 -5.6476e-19)
(0.00409791 0.0073717 5.21942e-21)
(0.00518911 0.00785932 5.11696e-19)
(0.00407971 0.00734012 -4.87358e-20)
(0.00495431 0.00771879 0)
(0.00408499 0.00736446 -8.56805e-20)
(0.00474305 0.00758967 4.92541e-19)
(0.00409824 0.00737604 8.75356e-20)
(0.0045757 0.00752932 0)
(0.00428406 0.00742125 1.39773e-19)
(0.00423904 0.00759778 5.80381e-19)
(0.0044681 0.00752807 -5.54437e-19)
(0.00438821 0.00750541 3.71382e-19)
(0.00422764 0.00752462 3.22898e-19)
(0.00643059 0.0110426 -4.97653e-21)
(0.00411777 0.00740142 3.11665e-20)
(0.00645872 0.0110725 0)
(2.17594e-05 4.94574e-06 -1.89822e-19)
(0.00200058 0.00654568 2.28201e-19)
(0.000838223 -5.68559e-05 1.09772e-19)
(0.000854026 4.47481e-06 0)
(1.02609e-06 7.77972e-07 -3.99033e-19)
(-2.51155e-05 -0.000100802 6.90921e-19)
(2.36594e-05 5.38388e-05 2.08861e-18)
(0.000834327 0.00018417 -9.00516e-20)
(0.000801284 8.48134e-06 7.06245e-19)
(5.91285e-07 -3.60887e-07 3.09926e-19)
(1.52843e-05 -3.0398e-05 -1.84525e-18)
(0.000763564 2.68826e-05 1.63119e-19)
(0.00087088 0.000124537 -3.07922e-20)
(0.000800902 -7.66639e-06 1.48103e-19)
(0.000426897 0.000679705 0)
(1.97773e-05 -0.000139051 1.15118e-18)
(0.000870806 3.20711e-06 1.52492e-19)
(1.87061e-05 2.21005e-05 0)
(0.000118363 0.000555998 -6.31157e-19)
(0.000611993 0.000587686 1.31773e-18)
(0.000329604 0.000756199 0)
(0.000801965 -1.53142e-05 0)
(0.000801647 3.0051e-06 1.17629e-18)
(1.5928e-05 4.63904e-05 -3.51429e-18)
(1.49816e-05 6.18127e-06 3.73548e-19)
(0.000116468 0.000140168 0)
(3.84822e-05 -3.94183e-05 0)
(5.99339e-05 0.000108727 2.00961e-19)
(0.000940853 0.000190141 3.50359e-19)
(0.00080055 1.47241e-05 -1.39668e-18)
(2.14929e-05 3.09399e-05 0)
(0.000428056 4.98625e-06 -6.04393e-20)
(0.000800371 3.65165e-05 -1.56318e-19)
(0.000847424 4.30941e-05 1.06468e-18)
(0.000255427 0.000542036 6.32127e-19)
(0.00088189 0.000157282 0)
(1.52657e-05 -2.10713e-05 5.38502e-19)
(1.80002e-06 -3.51438e-06 -3.19901e-19)
(0.000955678 3.35595e-05 0)
(0.00104368 0.00226894 0)
(0.000915655 1.17228e-07 0)
(0.00100544 0.000208328 4.27087e-19)
(0.00081831 -3.65954e-05 -2.84227e-19)
(0.000938498 0.00011066 -6.84631e-19)
(0.000801075 3.50093e-06 0)
(4.08757e-05 6.53708e-05 -1.71533e-19)
(0.000174653 0.000324452 1.08095e-18)
(0.000800408 1.34819e-05 -2.30104e-23)
(0.00110088 0.0002098 -6.68684e-19)
(0.00108913 0.000128147 0)
(2.10178e-06 4.70476e-06 2.5098e-19)
(1.57728e-05 -1.35107e-05 -1.94275e-19)
(0.000559311 4.45881e-05 6.94879e-21)
(-1.0582e-06 -6.77307e-05 0)
(0.00107115 0.000256162 9.49805e-19)
(0.00502865 0.00974824 -2.82964e-19)
(0.00312141 0.00961696 1.27251e-18)
(2.57157e-05 -9.77094e-05 -1.91291e-19)
(4.38332e-05 -7.24312e-05 1.85908e-18)
(0.00119024 0.000254253 1.67317e-19)
(0.00133 0.00107699 2.34051e-19)
(0.000810723 2.09319e-06 -7.35172e-19)
(0.000197401 0.000950075 -2.38204e-19)
(0.000818606 0.000944131 -2.1855e-19)
(0.000800263 -2.22659e-06 0)
(8.23982e-05 0.000615097 0)
(9.47541e-05 0.00027911 -3.706e-23)
(0.00071909 -4.62922e-05 -1.67515e-23)
(0.000825656 6.89543e-05 1.52574e-19)
(0.00263115 0.00206466 -1.23119e-18)
(0.00176025 0.00923768 -1.17206e-19)
(0.000834751 6.53477e-05 4.92196e-19)
(0.00632275 0.00405185 -1.76095e-19)
(0.00672097 0.0115575 -1.36545e-20)
(0.00473412 0.00784389 4.93268e-21)
(0.00080436 1.3719e-05 -2.16967e-18)
(0.000841243 2.94776e-06 6.94851e-24)
(6.58087e-06 -6.1757e-06 -3.47949e-19)
(4.56342e-05 8.58348e-05 -3.49214e-19)
(6.34077e-05 0.000264328 8.75093e-19)
(9.62795e-06 1.46126e-05 4.90313e-19)
(8.96807e-05 0.000225824 3.69702e-19)
(0.000821031 1.77599e-05 0)
(0.00534812 0.00949238 1.94993e-20)
(0.00154261 0.000637644 -2.61204e-20)
(0.000819553 3.87726e-05 3.60106e-19)
(2.28332e-05 -7.63715e-05 0)
(0.00184793 0.000749001 5.45925e-19)
(8.08264e-06 6.48063e-06 -2.70103e-19)
(3.19092e-05 2.63722e-05 9.71638e-20)
(0.00133362 0.00139781 6.36564e-19)
(0.000738209 4.94995e-05 1.83068e-19)
(2.95988e-06 -1.07886e-06 -1.7017e-19)
(0.00206283 0.00156227 -1.05572e-18)
(0.000126606 0.000174514 -8.1862e-19)
(0.00392066 0.00848752 -1.09076e-18)
(4.03896e-06 1.19017e-06 8.81261e-20)
(0.000109947 -6.89109e-05 -1.25779e-18)
(4.0351e-05 -5.52976e-05 4.05563e-20)
(0.00152829 0.000987142 0)
(0.0010419 0.00013944 -4.02213e-22)
(0.000453465 0.000847509 -4.01981e-20)
(0.000803179 2.76988e-05 -2.34033e-19)
(8.69958e-05 0.00018077 7.35941e-19)
(2.41575e-05 -5.67057e-05 4.03922e-19)
(1.70639e-05 1.38873e-05 -9.46924e-20)
(2.96595e-05 8.79505e-05 -3.20232e-19)
(0.000213212 -0.000202155 -5.45389e-19)
(0.00324993 0.00346492 2.91029e-21)
)
;

boundaryField
{
    back
    {
        type            empty;
    }
    ingreso
    {
        type            fixedValue;
        value           uniform (0.0008 0 0);
    }
    salida
    {
        type            zeroGradient;
    }
    front
    {
        type            empty;
    }
    defaultFaces
    {
        type            noSlip;
    }
}


// ************************************************************************* //
