/*--------------------------------*- C++ -*----------------------------------*\
  =========                 |
  \\      /  F ield         | OpenFOAM: The Open Source CFD Toolbox
   \\    /   O peration     | Website:  https://openfoam.org
    \\  /    A nd           | Version:  8
     \\/     M anipulation  |
\*---------------------------------------------------------------------------*/
FoamFile
{
    version     2.0;
    format      ascii;
    class       surfaceScalarField;
    location    "5.2";
    object      phi;
}
// * * * * * * * * * * * * * * * * * * * * * * * * * * * * * * * * * * * * * //

dimensions      [0 3 -1 0 0 0 0];

internalField   nonuniform List<scalar> 
15173
(
6.48062e-09
-5.74194e-09
-2.05163e-10
-5.33525e-10
5.07528e-09
-1.69424e-10
1.10936e-10
-5.01679e-09
-4.27426e-11
5.20329e-09
-5.15815e-09
-2.39786e-12
8.5161e-09
-2.14591e-10
4.46113e-10
-8.74762e-09
-5.91896e-09
6.18938e-09
-2.1859e-10
-5.18316e-11
6.71415e-10
-9.22448e-09
8.95094e-09
-3.97875e-10
-4.26509e-09
-8.03704e-10
1.14091e-09
3.92789e-09
5.19624e-09
-5.20813e-09
3.68659e-10
-3.56768e-10
-2.03678e-09
2.15602e-09
5.31225e-11
-1.72359e-10
6.55411e-10
-3.37858e-10
4.66246e-09
-4.98002e-09
5.25622e-09
-5.28903e-09
6.8112e-11
-3.53087e-11
6.72188e-09
-2.41371e-11
-2.17116e-10
-2.54467e-09
2.42781e-09
-1.87392e-09
1.99078e-09
5.26681e-09
-5.21841e-09
2.83546e-10
-3.31943e-10
-4.88758e-09
5.10068e-09
1.02428e-10
-3.15528e-10
3.08357e-09
-3.36617e-09
2.82592e-10
5.23484e-09
1.11511e-10
-9.01314e-11
-4.25892e-10
-7.14409e-11
-4.39025e-09
9.04301e-10
-8.1027e-10
-9.40305e-11
-2.876e-09
-9.07212e-10
1.38424e-09
2.39897e-09
2.07629e-09
-4.61844e-11
-2.10311e-09
7.30024e-11
-3.26381e-09
2.89707e-09
3.14765e-09
-2.78091e-09
-5.28938e-09
4.42396e-11
-4.38894e-11
5.97155e-09
4.71585e-10
-6.2395e-09
-2.03633e-10
7.15057e-09
6.47882e-10
-6.84877e-10
-7.11358e-09
-1.56737e-10
5.09224e-11
-5.72649e-11
1.6308e-10
5.37622e-09
-7.35521e-09
2.3903e-09
-4.11314e-10
-2.00882e-09
3.5326e-09
-2.25677e-09
7.32998e-10
7.97133e-09
-6.07297e-09
5.25379e-10
-2.42374e-09
-2.82552e-10
7.25286e-10
8.07337e-09
-5.91205e-09
-5.04442e-09
7.67461e-09
3.28186e-09
5.94394e-09
4.99006e-10
-1.28863e-10
-6.31408e-09
7.63728e-09
2.61922e-09
-8.68508e-09
-1.57142e-09
8.43431e-10
-1.19385e-09
5.15407e-09
-4.80364e-09
4.93068e-09
1.50614e-10
-4.95528e-09
-1.26013e-10
5.16357e-09
1.35811e-09
-6.45758e-09
-6.40923e-11
4.98924e-09
-5.12898e-09
-1.00013e-10
2.39749e-10
-5.14187e-09
-6.84883e-09
3.18196e-09
8.80874e-09
-1.25572e-09
-8.67521e-09
8.2912e-09
1.63973e-09
-6.29691e-09
1.7484e-09
-3.18048e-10
4.86656e-09
5.18241e-09
-1.02736e-10
2.1013e-11
5.18923e-09
6.58932e-10
-5.07042e-10
-5.34112e-09
-6.66037e-09
6.62406e-09
-8.11882e-12
4.44235e-11
5.03977e-09
1.29974e-11
2.25096e-11
-1.84696e-09
1.78943e-10
-3.68761e-10
-3.56761e-09
1.7421e-10
-2.8188e-10
3.67528e-09
-1.07288e-10
8.47219e-11
2.72893e-09
1.43133e-10
-3.68404e-09
8.11977e-10
-5.41219e-09
-7.38524e-11
5.4433e-09
-1.19213e-10
3.02499e-10
-2.7448e-10
9.11947e-11
-1.71854e-09
-2.51359e-09
1.68745e-09
4.97621e-09
1.13488e-10
-4.99273e-11
5.97125e-09
2.89525e-10
-5.65044e-09
-6.10332e-10
6.90082e-10
-5.75006e-09
5.90236e-09
-8.42385e-10
-8.58005e-09
2.11643e-09
6.70992e-09
-2.46302e-10
8.13942e-10
-7.40268e-10
6.2237e-11
-1.35911e-10
-9.03932e-10
7.79818e-10
-2.91888e-09
3.04299e-09
5.41939e-10
-5.34008e-09
7.96386e-10
4.00176e-09
-6.6034e-09
6.74544e-09
-2.35528e-10
9.34832e-11
-1.6963e-09
-7.48817e-10
1.82345e-09
6.21661e-10
6.55894e-09
-6.61199e-09
-3.7744e-11
9.07951e-11
-7.06222e-09
6.21737e-09
3.5261e-09
-2.68126e-09
-1.90544e-09
3.61203e-09
-3.5794e-09
1.8728e-09
3.61113e-09
4.96258e-09
-1.58421e-09
-6.98951e-09
-7.60467e-09
2.2995e-10
2.86338e-10
7.08839e-09
2.97151e-11
6.94362e-09
-6.45415e-11
-6.9088e-09
6.5961e-09
-6.58648e-09
2.00973e-11
-1.00047e-10
-6.05255e-10
8.42326e-11
6.2107e-10
1.96914e-09
-5.928e-10
-5.64144e-09
7.32231e-11
-4.88543e-11
6.53457e-09
2.70309e-09
-2.64065e-09
-2.32872e-09
2.26628e-09
5.25632e-09
-1.81082e-10
-5.23691e-09
1.61667e-10
-3.17717e-10
1.14656e-09
7.0511e-09
-7.87994e-09
-1.6831e-09
8.89923e-10
-9.03119e-10
2.68188e-09
2.01853e-09
-1.99732e-09
-4.63616e-09
4.58528e-09
5.0884e-11
-2.20341e-12
-1.65242e-11
-6.64164e-09
-5.3934e-11
6.60082e-11
-1.34712e-10
-5.29277e-09
6.16437e-10
4.81104e-09
-2.29348e-09
4.43255e-09
7.21762e-09
-3.39897e-09
-3.43638e-09
4.35524e-09
2.48011e-09
-7.15979e-09
7.42675e-09
-3.8914e-10
1.22173e-10
-1.03817e-09
8.71733e-10
-5.05197e-09
-3.58811e-09
4.45735e-09
3.52646e-09
-4.39569e-09
5.0386e-09
-4.6894e-09
-3.49201e-10
4.88511e-09
-1.03091e-10
-3.54375e-09
-1.23827e-09
2.0723e-09
3.87678e-09
-3.87241e-09
-2.07667e-09
-6.50258e-09
6.53972e-09
-4.5748e-11
8.6113e-12
-5.21619e-09
2.86688e-09
-2.5774e-09
4.92672e-09
1.83513e-09
-3.38045e-09
-5.70087e-10
2.11541e-09
1.71574e-09
2.95108e-11
3.31043e-10
-5.06082e-09
5.07429e-09
1.90367e-11
-3.25115e-11
7.29426e-11
4.92301e-10
-9.08712e-11
-4.74372e-10
-6.3023e-09
-5.35798e-09
5.74823e-09
1.33999e-09
4.39872e-09
-4.12353e-09
-1.61517e-09
-4.82648e-09
2.34807e-09
-4.56348e-09
7.04189e-09
-1.91923e-10
6.39388e-10
-4.98576e-10
5.11112e-11
3.40275e-09
-4.8267e-09
-3.08732e-09
4.51127e-09
-3.2012e-09
3.3042e-09
2.4007e-09
-2.50371e-09
2.40415e-11
-4.66021e-09
5.97425e-09
1.6482e-09
-1.83584e-09
-5.78661e-09
6.25427e-09
-3.07292e-09
-4.01693e-09
8.35584e-10
4.77037e-09
1.6152e-09
-2.10074e-09
-4.28483e-09
7.88913e-09
9.93118e-10
-7.23614e-09
-1.64611e-09
3.08554e-09
2.5819e-10
-6.40264e-10
-2.70347e-09
8.09232e-09
-8.41004e-09
-4.26425e-10
7.1239e-11
4.28129e-10
-2.62235e-09
-2.51224e-09
2.49394e-09
5.26425e-09
-4.53641e-09
-4.63239e-09
3.90455e-09
-4.79479e-09
4.7005e-09
1.90191e-10
-9.59e-11
5.5532e-09
-5.2782e-09
4.76358e-09
-5.03858e-09
-1.94503e-09
1.77548e-09
4.71175e-09
-4.5422e-09
-7.31324e-09
-2.69353e-09
2.94455e-09
5.08777e-09
-1.02991e-10
2.69138e-12
-4.98747e-09
2.84584e-09
-4.06654e-10
1.29493e-09
-3.73411e-09
6.31735e-09
-3.22025e-10
2.7477e-10
-6.2701e-09
-5.66728e-09
-2.67996e-09
3.13105e-09
-6.75219e-09
4.75856e-11
6.7389e-09
-3.43e-11
-1.32692e-10
9.69815e-10
2.24842e-09
-4.99052e-09
5.01481e-09
3.21982e-11
-5.64924e-11
-7.00397e-10
-5.26716e-09
4.86006e-11
-6.37201e-09
-5.88957e-10
7.67639e-10
6.19333e-09
2.0603e-10
5.34263e-09
-4.22391e-10
-5.12627e-09
2.85928e-10
5.962e-09
-6.1097e-09
-1.38229e-10
3.9036e-09
-3.43644e-09
-1.67692e-09
1.20976e-09
-3.13895e-09
-2.65604e-11
2.26158e-09
-5.31104e-09
-3.45369e-10
4.79335e-09
8.63063e-10
-6.52476e-10
7.29966e-10
-4.08099e-09
4.0035e-09
-1.76363e-09
8.48643e-10
-4.1852e-09
5.10019e-09
1.06271e-09
-8.94675e-09
8.55546e-09
-5.04361e-09
3.48349e-11
-5.20469e-11
3.22947e-09
-2.51008e-09
1.78614e-09
-2.50553e-09
1.65511e-09
-1.09579e-09
-3.59374e-09
3.03442e-09
-6.01628e-09
-8.22255e-10
6.13813e-09
-4.95797e-09
-1.71129e-10
4.80964e-11
5.081e-09
4.85102e-09
2.53592e-10
-1.15371e-10
9.41594e-09
8.34807e-10
-9.04725e-09
-1.2035e-09
-2.17388e-09
-3.8398e-09
4.17928e-09
1.83439e-09
1.07424e-10
-5.39931e-11
-6.5109e-09
7.3856e-12
9.34738e-13
3.09088e-09
2.90423e-09
-2.09151e-09
-6.54233e-10
7.02236e-10
-4.78154e-09
4.73354e-09
-4.70883e-09
3.71147e-09
-3.95597e-10
1.39296e-09
1.09334e-08
-6.40201e-09
-7.29435e-09
2.76297e-09
-6.84184e-11
5.27881e-10
3.28387e-11
7.36091e-09
-2.33151e-09
1.76969e-09
-6.79909e-09
1.19734e-09
5.15446e-09
-1.16257e-09
-4.80545e-09
-2.46579e-10
9.40579e-11
5.80544e-09
-5.44629e-09
2.19127e-09
-2.55042e-09
-4.32516e-09
-7.9318e-10
4.46587e-09
5.79258e-09
-6.89299e-09
-1.43674e-10
1.24408e-09
-3.3216e-09
-3.11175e-09
2.72146e-09
3.71188e-09
4.94327e-09
-2.70482e-09
-3.38557e-09
1.14712e-09
-4.91817e-09
4.94005e-09
3.0292e-11
-5.21811e-11
6.56275e-09
-1.06552e-11
-4.18816e-12
-6.5479e-09
-4.80207e-09
4.80313e-09
-2.12163e-11
2.01535e-11
9.83089e-10
-1.77563e-09
-2.22187e-09
3.01442e-09
-5.44785e-10
2.5128e-09
1.26146e-09
-5.21685e-09
5.22037e-09
-1.18775e-11
8.36143e-12
-5.37843e-09
5.55128e-09
-2.29753e-10
5.69038e-11
-1.10943e-09
3.75214e-09
-5.66431e-10
-2.07628e-09
-4.84683e-09
4.83494e-09
-3.17332e-11
4.36266e-11
2.10386e-09
7.01988e-09
-7.37677e-09
-1.74696e-09
-4.90504e-09
4.88387e-09
-3.70925e-11
5.82639e-11
-5.2122e-09
5.18334e-09
-2.92182e-11
5.80802e-11
5.16484e-09
2.51563e-10
-2.20165e-10
4.0556e-09
-4.10187e-09
-3.54184e-09
9.38942e-10
-1.5432e-09
-1.0119e-08
5.11012e-10
-5.41742e-09
-3.82614e-10
5.28902e-09
-4.95894e-09
4.94565e-09
-3.27777e-11
4.60623e-11
-5.14403e-09
5.1281e-09
1.60172e-10
-1.44239e-10
-5.13478e-09
5.1097e-09
-3.07421e-11
5.58194e-11
-4.99174e-09
4.98387e-09
-2.73836e-11
3.52533e-11
2.84965e-09
-3.99437e-09
2.10588e-09
-9.61155e-10
-5.05711e-09
5.03878e-09
-3.38876e-11
5.221e-11
-1.20133e-09
2.7926e-09
-2.7007e-09
-2.31536e-10
-5.02925e-09
5.26078e-09
-2.16048e-09
6.87661e-10
-6.25713e-10
2.09853e-09
-1.82238e-11
4.59403e-09
-4.5758e-09
-1.73213e-11
-5.74397e-11
6.79664e-09
-1.76846e-10
5.21545e-09
3.18026e-09
2.73692e-09
-2.86724e-09
-3.04994e-09
-1.84559e-09
9.25789e-10
-9.96828e-10
1.91663e-09
-1.24723e-11
-1.0871e-12
-4.76582e-09
5.85576e-11
-1.43593e-10
4.85085e-09
3.11141e-09
-2.68877e-09
1.63707e-09
-2.05971e-09
-4.09959e-10
7.5648e-11
-9.21137e-11
-5.53265e-09
4.19764e-09
-6.10017e-10
4.26708e-09
-4.24812e-09
-1.89632e-11
-3.6846e-09
3.76805e-09
1.75168e-09
5.22928e-09
5.72778e-11
-3.0237e-11
-2.20372e-10
-3.26727e-09
3.48764e-09
8.35886e-09
-5.47457e-09
-3.37804e-09
4.93752e-10
1.8782e-09
2.14235e-10
-3.29377e-09
-3.48264e-11
1.96194e-10
5.04046e-09
-5.20182e-09
-1.01822e-09
1.09119e-09
9.86653e-10
-1.05962e-09
-3.40613e-11
2.55929e-10
-2.212e-11
-1.99747e-10
-1.15747e-09
-3.3271e-09
1.60858e-09
-6.50493e-09
1.02036e-12
-6.98688e-12
-4.66694e-09
-3.14859e-10
1.76352e-10
4.89345e-09
-8.45387e-11
1.673e-10
3.20516e-11
-9.57345e-11
6.3026e-11
-2.83819e-11
5.03965e-09
-2.05876e-10
1.93569e-10
-6.27234e-09
6.28465e-09
-8.99867e-11
-5.38296e-09
5.47294e-09
-8.88166e-10
8.71209e-10
-1.00127e-09
7.06089e-09
-4.76666e-10
1.6122e-10
6.21136e-10
-1.14646e-10
-1.89641e-09
1.38992e-09
7.70927e-11
1.68699e-10
-6.5462e-11
-1.80329e-10
-4.95864e-09
2.48594e-11
-5.67367e-11
2.61453e-09
-2.3797e-09
-5.84276e-09
5.60793e-09
1.92001e-10
-9.33418e-11
2.61498e-09
-2.12562e-09
-4.89358e-10
-1.50642e-09
9.48865e-10
7.70812e-09
-6.49207e-09
-5.15366e-11
6.52539e-09
-4.4272e-10
2.517e-10
-4.47592e-09
-1.30795e-09
1.79533e-09
-5.1962e-09
-6.11262e-09
6.048e-09
-1.41253e-10
1.6056e-11
1.56604e-11
-3.17164e-11
-6.41286e-09
7.26462e-10
6.37648e-09
-5.03342e-09
1.41199e-09
2.85695e-09
7.64483e-10
5.06611e-09
5.41162e-10
-4.10354e-09
-1.50374e-09
5.303e-09
4.07401e-09
-5.22399e-09
3.64552e-11
-2.46613e-11
3.37039e-09
5.69341e-09
-5.48354e-09
-3.58026e-09
-6.10548e-09
-5.62566e-09
5.42884e-09
-7.47745e-09
1.66084e-09
-1.52776e-09
7.34437e-09
1.07159e-11
6.60943e-09
1.30392e-11
-1.6665e-11
3.51592e-09
5.26302e-09
-2.56156e-09
3.89184e-09
-9.16704e-11
-4.20848e-09
4.08311e-10
6.88489e-11
-1.26759e-10
-3.52049e-10
-1.98935e-10
2.45674e-11
-4.96298e-11
2.23997e-10
1.40017e-10
-5.44689e-09
5.4457e-09
-1.38827e-10
3.23932e-09
-2.95247e-09
3.24886e-09
-3.53571e-09
-6.47522e-09
-6.23843e-11
4.55292e-11
-5.13866e-09
-6.88991e-10
5.34089e-09
4.8676e-10
1.62293e-09
-4.51594e-09
-1.78316e-09
4.67617e-09
-1.08986e-11
8.17887e-12
6.56547e-09
8.16933e-09
-6.89771e-09
-7.22169e-10
-5.49453e-10
6.23099e-09
-6.14911e-09
1.11684e-10
4.62808e-09
-4.75638e-09
-5.85001e-11
1.86802e-10
2.32355e-10
6.44936e-09
-4.50724e-10
-4.51928e-09
-7.69697e-11
8.11737e-11
4.51507e-09
-4.38251e-09
1.98837e-09
3.82875e-09
-1.43461e-09
4.61329e-09
-1.92673e-11
-9.43266e-09
-2.33559e-10
8.79344e-09
8.72786e-10
-5.89656e-09
-4.43935e-09
5.19404e-09
-4.53687e-09
3.5053e-11
4.49807e-09
3.74286e-12
-2.36145e-10
5.19248e-09
-5.07271e-09
1.16367e-10
1.53715e-09
6.99279e-09
-8.47542e-09
-5.45164e-11
1.74586e-10
-1.51181e-10
2.18355e-11
-4.52401e-11
-2.93799e-11
4.29646e-09
6.43394e-09
-6.42174e-09
-5.41289e-11
4.19307e-11
-4.06313e-09
-3.65552e-11
4.09968e-09
6.21884e-09
-5.15407e-10
3.59668e-10
-6.0631e-09
4.18295e-09
-2.44228e-09
-3.91455e-09
3.135e-11
-7.2628e-11
1.17548e-08
6.6356e-10
-4.52922e-09
4.69716e-09
-3.36414e-09
1.55977e-09
-2.8928e-09
5.91267e-09
1.20311e-09
-1.4559e-09
-5.65989e-09
-3.32808e-09
2.9861e-09
1.39542e-09
-1.05344e-09
-1.56225e-10
-6.44932e-09
7.70506e-11
6.5285e-09
-6.33999e-09
6.35745e-09
-5.3446e-11
3.59823e-11
6.27653e-09
-2.78076e-11
9.80985e-11
-6.34683e-09
-6.45896e-09
9.07069e-11
6.81148e-09
-4.43227e-10
8.11046e-10
-8.98784e-10
-8.00428e-10
-5.1616e-09
5.53758e-11
-2.85506e-11
-4.74831e-11
2.31337e-11
-4.47163e-09
1.21273e-09
4.88182e-09
-3.18071e-09
-2.7439e-09
3.73305e-09
2.19155e-09
-2.13007e-10
2.3718e-10
-2.41726e-11
2.67336e-09
-2.56987e-09
-2.72584e-09
-1.62739e-09
-5.38443e-09
7.31742e-10
6.28008e-09
-6.27643e-09
6.29353e-09
-3.64404e-11
1.93405e-11
2.92149e-09
-5.07891e-09
4.22972e-09
4.44915e-11
-6.26476e-09
6.24696e-09
-2.66941e-11
-5.41508e-09
1.31085e-10
5.42401e-09
-1.92561e-09
-3.54347e-09
1.49426e-09
3.97482e-09
3.6255e-09
-3.66033e-09
6.41733e-09
-6.41336e-09
-2.31135e-11
1.91409e-11
-6.39481e-09
-6.136e-11
3.44279e-11
-6.15379e-11
3.27467e-11
1.44981e-09
-4.24338e-09
-2.23985e-09
-1.98148e-09
4.23487e-09
-1.27998e-09
1.27985e-09
1.09132e-09
-1.74156e-09
1.98308e-09
-3.16777e-09
2.92625e-09
1.521e-11
-2.26393e-10
-5.40455e-09
5.61574e-09
-6.40779e-09
1.87775e-10
-1.7027e-10
6.39029e-09
-4.88653e-09
2.87506e-11
-6.0384e-11
-1.28924e-10
2.07216e-11
-4.29785e-11
-5.22919e-09
5.39409e-09
2.4506e-09
-2.6155e-09
-2.59107e-09
-8.35935e-09
5.47585e-09
5.50465e-09
5.45115e-10
-2.57184e-10
4.18254e-09
-3.28968e-09
-1.48707e-09
5.94222e-10
4.85343e-10
5.9102e-09
-2.85185e-09
-3.5437e-09
-4.39116e-09
-4.7274e-11
3.28177e-11
4.40561e-09
-7.85772e-09
4.63336e-09
-3.86561e-09
7.08997e-09
2.34324e-09
-2.46346e-09
-4.76166e-09
4.88189e-09
6.18379e-09
-1.98167e-11
-6.17753e-09
1.35532e-11
-2.28539e-09
1.9524e-09
2.64665e-10
3.72656e-09
-9.36884e-12
-3.98185e-09
1.08197e-10
4.51082e-09
9.05794e-12
-6.39994e-12
-6.03398e-09
6.02832e-09
1.20566e-11
2.278e-09
-3.34916e-09
1.64108e-09
-5.69919e-10
1.83288e-10
-3.97569e-09
4.23823e-09
-4.45829e-10
1.9812e-11
-4.15459e-11
-1.0719e-10
4.9667e-09
5.63311e-10
-1.003e-09
-4.52701e-09
3.0461e-09
-2.65401e-09
-3.1748e-09
2.78271e-09
-4.9244e-09
4.17754e-10
4.15065e-09
3.5599e-10
2.75956e-09
-1.46316e-09
1.09523e-09
-2.39163e-09
-4.53717e-09
5.09725e-09
2.52169e-09
-6.40468e-09
-1.78429e-09
-1.51382e-09
2.28009e-09
2.92897e-09
-3.69525e-09
-2.29402e-09
-7.68548e-10
9.02087e-10
2.46911e-09
-2.83008e-09
-2.31847e-09
2.67944e-09
5.43577e-11
-3.26226e-11
3.60004e-09
-3.39401e-09
-2.25692e-09
-4.77898e-09
3.03715e-09
3.99875e-09
4.14005e-09
-4.11713e-09
-2.2921e-11
6.27263e-10
2.29267e-09
-1.7661e-09
-1.15383e-09
-2.03891e-09
6.12898e-10
2.05327e-09
-5.08448e-09
5.65985e-11
-2.92264e-11
-6.31494e-09
-5.56005e-11
3.05541e-11
2.94271e-09
3.01519e-10
-2.46441e-09
4.0781e-09
7.13402e-10
-3.97458e-09
-8.16921e-10
-3.85902e-10
7.46589e-10
-3.60687e-10
-1.4306e-09
-2.76018e-09
2.57138e-09
1.6194e-09
-5.25605e-09
4.64238e-09
5.96327e-10
1.73396e-11
2.04749e-10
1.58223e-09
-1.87727e-11
-1.76821e-09
-7.50641e-11
-3.64439e-09
3.71945e-09
2.85094e-11
-6.5869e-11
6.24189e-09
8.34767e-10
-2.10861e-10
-6.8658e-09
5.60303e-09
-6.6233e-09
4.27462e-09
-3.25435e-09
-1.32634e-09
5.0108e-09
-5.31185e-09
-1.3816e-09
-3.99568e-09
1.69268e-09
5.5734e-09
-5.25505e-10
-5.10717e-09
5.92756e-11
4.2239e-09
7.79485e-11
-4.00561e-12
-4.29784e-09
-1.25611e-09
1.23697e-09
-6.2243e-09
6.24345e-09
-1.40959e-09
-3.53475e-09
1.61626e-09
-3.30205e-09
1.49361e-09
3.09675e-09
-1.28831e-09
-4.04088e-11
-6.03313e-09
6.05893e-09
1.46106e-11
-4.06607e-10
1.45555e-09
-2.2532e-09
1.20425e-09
2.51009e-10
5.22355e-09
-4.81162e-09
-6.62934e-10
-3.64461e-09
1.92176e-09
-2.11695e-09
3.21929e-09
6.26004e-09
-3.36203e-09
-6.11729e-09
2.16792e-09
4.70094e-09
-2.02312e-09
-4.84574e-09
-4.01146e-09
6.1305e-09
1.59818e-09
-3.71721e-09
-2.21166e-09
2.33142e-09
2.92634e-09
7.3657e-09
-1.38822e-09
-7.02463e-09
1.04715e-09
-7.08298e-09
7.27268e-09
-1.94063e-09
1.75093e-09
6.23696e-09
-6.21107e-09
-3.22896e-11
-1.9e-09
1.68153e-09
4.2322e-10
-2.61835e-09
2.50941e-09
-1.60961e-09
1.70464e-10
4.02541e-09
-4.19588e-09
-1.95283e-10
2.15421e-10
-8.71462e-10
8.51324e-10
5.14051e-09
-4.08915e-09
-1.85506e-09
1.43744e-09
4.0464e-09
-5.30055e-09
-5.68989e-09
5.45384e-09
1.14079e-09
-9.04738e-10
-4.81933e-11
2.96043e-11
1.27546e-10
-1.45389e-09
-6.26012e-09
-3.21436e-11
1.58348e-11
2.15323e-09
-9.28363e-09
-3.47046e-10
1.68378e-09
-7.3123e-10
-9.52549e-10
-2.1911e-09
6.82022e-09
3.9315e-10
-5.02227e-09
2.7399e-09
3.74236e-09
-4.11975e-09
4.17797e-09
-5.82192e-11
-1.55786e-09
-8.29043e-09
7.12413e-09
2.72415e-09
2.45496e-09
-2.63488e-09
3.18956e-09
-3.00965e-09
-4.20583e-09
1.38025e-11
4.19203e-09
6.99849e-10
4.31095e-09
1.57468e-09
6.02657e-10
-2.17734e-09
-7.84874e-11
6.0196e-09
-8.53335e-10
-8.252e-10
-7.71542e-09
7.22313e-09
1.31749e-09
4.44199e-11
-5.42185e-09
-2.97814e-11
5.40721e-09
2.10396e-09
-1.2529e-09
-8.51065e-10
-5.00992e-09
4.01869e-11
-2.20129e-11
4.66932e-09
-4.64681e-09
1.22981e-11
-3.48024e-11
-2.13517e-10
-5.61482e-09
4.42823e-10
5.38551e-09
8.34387e-09
-1.28066e-09
-5.13586e-09
5.21735e-09
-1.35763e-10
5.42668e-11
-3.14898e-09
-1.58722e-09
3.82899e-09
-3.11207e-09
-1.17552e-10
3.22962e-09
2.26198e-09
-3.12587e-09
4.12373e-09
-3.25984e-09
7.88241e-09
1.71599e-10
2.30133e-09
4.05186e-09
-3.37916e-09
-2.97402e-09
5.166e-09
-5.28819e-09
-9.13262e-11
3.99819e-10
-1.05309e-09
1.46466e-09
-8.11396e-10
-2.17308e-09
-1.52975e-09
8.28742e-10
2.87408e-09
5.54657e-09
-4.89869e-09
3.32253e-11
-1.29729e-10
4.91166e-10
-2.43668e-09
-7.12775e-10
2.65829e-09
1.68267e-10
2.44063e-09
-1.62581e-09
3.78842e-11
-9.43073e-11
1.90151e-10
-1.33728e-10
-3.28771e-09
3.66993e-09
-4.00035e-09
3.61812e-09
6.02113e-09
-1.71826e-11
-1.07079e-12
-6.00288e-09
-8.40429e-11
1.02937e-10
-1.88939e-11
-2.19124e-09
7.7783e-09
-8.08751e-09
2.50045e-09
-2.28466e-09
2.40101e-09
4.53914e-09
-4.65549e-09
5.13538e-11
5.40849e-09
-5.41542e-09
2.99793e-10
5.34357e-09
-1.38709e-10
-2.49529e-10
-2.07666e-09
1.91958e-09
-1.4368e-11
4.77387e-12
2.05205e-10
-1.95611e-10
-3.80128e-10
-7.6827e-09
1.07332e-12
-4.12082e-09
-1.01175e-11
6.03895e-09
4.80377e-11
-6.07687e-09
6.23611e-09
-3.22325e-11
1.77534e-11
-6.22163e-09
4.9302e-11
-6.43265e-09
6.45599e-09
-7.26451e-11
-2.04085e-09
6.27488e-10
-6.25542e-10
-3.07551e-09
1.62181e-09
-3.80234e-09
-2.23558e-09
8.29901e-09
-8.68004e-09
2.61661e-09
-6.05917e-09
6.8327e-12
6.09683e-09
-1.54111e-09
2.10898e-10
2.51075e-09
-4.16721e-09
6.53109e-11
1.59114e-09
6.11225e-09
-1.94566e-09
-3.7923e-09
-3.74292e-10
-1.16218e-09
-3.61306e-09
1.3388e-09
-4.95459e-11
1.69912e-11
6.72089e-11
-3.46541e-11
2.33591e-11
6.53498e-09
-6.50904e-09
2.70966e-11
-4.85081e-11
5.34348e-11
-2.8214e-11
1.82886e-10
-5.03191e-09
1.12675e-09
3.72228e-09
9.59918e-10
-2.06538e-09
-3.81894e-09
-2.43083e-12
2.69298e-12
-2.08191e-10
2.07929e-10
-1.64853e-09
-6.09592e-09
2.05456e-09
-1.75056e-09
-3.87099e-10
-2.17188e-09
-9.94598e-10
-4.11157e-10
2.35383e-09
1.04343e-09
-6.40291e-09
6.47581e-09
5.69253e-10
-6.4215e-10
-3.31129e-09
8.34427e-10
4.42236e-09
-1.9455e-09
-2.97751e-09
-6.69864e-10
4.18734e-09
-5.39964e-10
-1.36422e-10
7.99898e-11
8.70374e-10
1.21607e-10
-8.81644e-10
4.41253e-11
7.15911e-10
-6.23994e-09
6.25558e-09
-5.60446e-11
3.44385e-10
-3.07151e-10
3.08076e-11
-6.80416e-11
-3.89289e-09
-6.61376e-09
1.48716e-09
9.01949e-09
-3.60835e-09
-5.67418e-09
5.9821e-09
3.30043e-09
2.89398e-09
2.15443e-10
-2.61826e-09
4.5431e-09
-2.93914e-09
1.42784e-09
-3.0318e-09
-5.93649e-09
2.21138e-11
-6.01166e-11
5.9745e-09
6.46903e-10
-7.1072e-10
1.85424e-10
-5.09943e-09
1.45685e-09
-1.89155e-10
3.83174e-09
1.22158e-09
-2.90483e-09
-7.55047e-10
2.4383e-09
-4.55617e-09
-6.10522e-09
6.64992e-09
-1.5381e-09
3.64038e-10
3.07176e-09
-1.89769e-09
1.13048e-10
-6.39547e-09
6.2835e-09
2.60061e-09
7.08929e-09
-7.92283e-09
-1.76706e-09
3.4812e-09
-5.7948e-10
4.09914e-11
-6.59599e-10
2.31383e-09
4.31732e-09
2.60289e-09
-1.19117e-09
4.53545e-09
-5.94717e-09
-6.45411e-09
6.38873e-09
1.11332e-10
-4.59577e-11
-5.37711e-09
5.38583e-09
1.63097e-11
-2.50278e-11
-1.72044e-10
1.92851e-10
2.92892e-10
-7.53095e-09
-8.31561e-09
3.0585e-09
1.02099e-09
-2.55108e-09
-1.7812e-09
5.25364e-09
-1.86097e-10
9.69518e-11
-5.16449e-09
3.78567e-09
-4.06062e-09
5.66786e-09
-5.39292e-09
-3.04156e-09
2.35324e-09
-2.11318e-09
2.8015e-09
5.53147e-09
2.37618e-09
-4.47204e-09
-3.43561e-09
-1.96124e-10
8.56651e-10
-8.55811e-10
-3.46216e-09
-3.6142e-09
3.51639e-09
3.55997e-09
5.80008e-10
2.82654e-09
-1.21626e-09
5.75542e-09
5.4074e-09
5.42582e-09
-5.457e-09
-3.76461e-09
-3.32242e-09
3.62486e-09
1.31238e-08
-4.42181e-09
-5.48267e-09
2.60586e-09
-2.97191e-09
-3.51355e-09
3.8796e-09
-3.68568e-09
4.28192e-09
-2.65199e-09
2.05575e-09
-5.55155e-11
1.40466e-10
3.53526e-11
-1.20303e-10
-4.23163e-09
3.65276e-09
-3.54907e-09
4.12794e-09
-3.45558e-09
3.54744e-09
-9.18511e-11
-5.38941e-09
5.41806e-09
-5.64426e-13
-2.80952e-11
1.35739e-09
4.52817e-10
-6.40859e-10
-1.16935e-09
9.80945e-11
-6.77394e-10
-1.60968e-10
3.78367e-09
-1.08375e-09
8.91707e-10
-3.59163e-09
-5.65376e-09
-9.04191e-11
5.51456e-09
2.29616e-10
-1.45838e-09
2.29828e-09
5.27234e-09
3.73851e-10
-3.28492e-10
6.81756e-10
-7.27115e-10
3.40855e-10
-3.17174e-11
3.5827e-09
-6.33508e-11
-4.86669e-09
4.35076e-11
3.92572e-10
7.37064e-09
-5.60998e-09
1.59097e-09
4.02492e-09
-3.68637e-09
-1.92952e-09
-1.22231e-11
-1.46347e-09
-3.75349e-09
1.68592e-09
-2.08118e-09
-7.60987e-10
1.15624e-09
-4.09611e-09
3.74625e-09
-3.88177e-09
-4.12169e-09
4.35861e-09
3.95271e-09
-4.18963e-09
-1.76427e-11
-4.17154e-09
4.18919e-09
5.8871e-09
-2.3013e-09
2.97826e-09
-5.30303e-09
-9.51939e-10
3.27671e-09
4.75142e-09
1.92301e-11
-3.90675e-11
-4.73158e-09
-6.73764e-11
4.83238e-09
-4.80462e-09
3.96239e-11
-1.05811e-09
1.40584e-09
5.65406e-09
-6.00179e-09
2.50886e-10
8.84864e-10
-9.20329e-10
4.6064e-10
2.64451e-09
-1.00766e-09
1.36971e-09
-3.00656e-09
-1.46949e-09
6.8944e-09
-6.93026e-09
1.50535e-09
3.69219e-10
-8.89301e-09
-1.37325e-09
-4.45446e-09
2.08704e-09
2.80567e-09
-2.58565e-09
2.42636e-09
-2.64638e-09
-7.32272e-12
1.26588e-11
-1.56443e-10
1.51107e-10
2.09007e-10
-1.14366e-10
1.54892e-09
4.08003e-10
-5.99534e-10
5.38306e-09
-5.39688e-09
-2.6506e-11
4.03246e-11
5.17392e-09
-4.98964e-09
1.91968e-09
5.15654e-09
-7.27906e-11
1.45529e-10
-5.42683e-09
-4.16179e-11
4.65946e-11
-2.42738e-11
3.02284e-11
2.39394e-09
5.05804e-11
-4.24774e-11
-2.40204e-09
4.32474e-09
-2.22425e-09
-2.10049e-09
3.60352e-09
-3.04021e-09
1.99165e-09
-2.04442e-09
7.40425e-10
-6.98557e-09
-1.35822e-09
7.42159e-09
9.22198e-10
-3.92706e-11
-5.92785e-09
3.06279e-11
4.17261e-09
-3.25664e-11
-5.12838e-09
-1.19213e-09
2.00424e-09
4.31627e-09
-4.21595e-09
9.87784e-12
4.11012e-10
4.22149e-09
-6.41071e-09
2.77323e-09
3.63748e-09
6.17306e-11
3.2567e-09
-1.85701e-09
-1.46142e-09
6.29508e-09
5.74023e-09
-8.5092e-09
2.20256e-09
4.83558e-09
-1.77389e-09
-4.30124e-09
-8.25086e-10
4.47209e-09
-7.31916e-09
6.16963e-09
1.23618e-11
-3.63779e-11
-1.48278e-09
-3.64104e-09
3.69696e-09
1.42686e-09
3.94305e-09
-5.35917e-09
-3.14814e-11
5.9401e-09
5.6947e-11
-5.96556e-09
1.84913e-09
-3.27288e-09
-1.61781e-09
-4.1807e-09
3.72614e-09
2.4695e-09
-2.01494e-09
-4.81096e-09
4.91751e-09
-1.81667e-09
1.71012e-09
1.3516e-10
-7.6832e-11
-1.15158e-10
5.68301e-11
9.70548e-10
-7.92821e-10
-4.6457e-09
1.47015e-10
-3.81844e-11
-1.19936e-09
3.9891e-10
1.25326e-09
-4.02539e-09
2.83777e-09
4.10912e-09
4.23465e-10
8.54703e-10
-1.66407e-09
-2.05464e-09
2.38692e-09
-3.32279e-10
-6.72464e-10
1.23979e-11
-2.21578e-10
5.86409e-09
4.76843e-11
-5.88989e-09
-2.18836e-11
-3.00879e-09
3.16228e-09
-2.32487e-09
2.17138e-09
5.06542e-09
1.76687e-10
-8.55629e-11
6.58749e-10
2.56244e-09
-1.50545e-09
-2.46525e-11
5.84206e-09
4.66826e-11
-2.67907e-10
-4.74803e-09
1.0827e-10
-1.59799e-10
4.79956e-09
-3.89926e-09
-2.44033e-09
9.29998e-10
5.40959e-09
6.87664e-09
-7.43426e-10
4.58598e-09
2.04479e-10
1.4021e-10
-4.93067e-09
1.40165e-11
7.05262e-09
-6.97388e-09
-9.27534e-11
5.26001e-11
-2.37311e-11
-7.03866e-10
2.50101e-09
-2.27209e-09
4.7494e-10
-6.30412e-09
6.27609e-09
-7.78805e-12
3.58188e-11
3.79907e-09
5.30329e-09
-4.80301e-09
-4.29935e-09
4.85784e-11
-3.26547e-09
3.25625e-09
-3.93515e-11
-3.3834e-09
2.39472e-09
-1.98884e-09
-1.00173e-10
1.54978e-10
5.84692e-10
-5.4237e-09
3.66971e-10
2.49764e-09
-3.3952e-09
1.64416e-09
7.47645e-10
-6.95236e-10
3.43295e-10
-3.95704e-10
-5.46999e-09
3.229e-10
4.91562e-09
-3.71606e-09
5.44946e-11
-6.17451e-09
6.1677e-09
-6.39212e-09
6.34033e-09
4.9694e-11
2.0952e-12
-1.01651e-10
5.04988e-09
2.17763e-10
7.95254e-09
-8.39233e-09
1.01097e-10
3.38694e-10
-5.39731e-09
-3.03758e-11
3.08023e-11
-4.27205e-11
2.16542e-10
2.22011e-09
-1.81385e-09
-6.94305e-09
3.99321e-09
-3.9748e-09
-1.84043e-11
-3.12021e-09
3.2006e-09
-3.1559e-09
-6.25563e-09
6.23357e-09
-1.41453e-11
3.62039e-11
2.53127e-09
5.11879e-09
-4.1084e-09
-3.54165e-09
-5.12844e-09
5.31275e-11
-1.0977e-10
5.18508e-09
-5.59882e-09
-2.7152e-09
-2.70839e-10
8.58485e-09
5.35336e-09
-8.32908e-10
-4.52045e-09
6.23616e-11
-4.12549e-09
-5.50068e-09
3.85838e-10
2.35385e-09
-4.104e-09
-1.16644e-09
2.91659e-09
-8.92052e-09
-1.63067e-09
1.08447e-09
-6.49788e-09
-2.87545e-09
8.28886e-09
2.78223e-09
-5.55192e-10
-2.10911e-09
-1.17931e-10
6.95924e-09
-1.56172e-09
2.10161e-09
-7.49912e-09
2.75642e-10
-6.36172e-09
-9.09547e-09
6.76979e-09
3.90699e-09
-1.5813e-09
-9.80244e-10
2.78842e-10
9.52288e-10
-2.46713e-09
-7.12651e-09
2.28041e-09
3.28009e-09
-3.21494e-09
2.50378e-10
-3.15526e-10
-6.21322e-09
6.19558e-09
-1.90608e-11
3.67011e-11
-6.48954e-09
-3.40255e-09
3.04326e-09
9.4562e-10
5.07181e-09
-2.30596e-09
-3.74373e-10
3.57301e-09
-3.60979e-09
-4.56778e-10
-1.81647e-09
-9.9613e-10
-6.88319e-11
1.24672e-09
-1.81756e-10
5.89231e-09
-2.58388e-11
9.5973e-12
-5.87607e-09
2.26021e-09
-5.26902e-09
8.85101e-09
-5.8422e-09
-6.80709e-09
6.84378e-09
-5.40159e-11
-1.24292e-09
3.20442e-09
-1.89977e-09
5.31716e-09
-3.22929e-10
-1.15881e-09
1.14264e-09
3.39097e-10
-9.35866e-09
7.02313e-09
7.77669e-10
3.91054e-09
-2.56664e-09
-4.63161e-09
5.80451e-10
-4.96249e-10
2.44165e-10
-3.28368e-10
-2.11731e-09
-6.47477e-09
6.77823e-09
-7.48669e-09
6.71372e-09
1.37109e-10
1.61607e-10
-7.01243e-09
6.15526e-09
-6.17455e-09
-1.81161e-11
3.74016e-11
4.96001e-09
-1.0412e-10
1.65268e-10
-5.02116e-09
-8.67346e-11
-3.36885e-09
2.90625e-09
1.83468e-10
-4.01679e-10
-2.68804e-09
1.0278e-09
1.4076e-09
3.46832e-10
9.17452e-11
-1.69822e-10
-5.05778e-09
7.38487e-09
-4.81568e-09
-3.8253e-09
4.58504e-09
-4.03668e-09
2.82202e-09
-6.13702e-09
-6.87373e-11
6.16648e-09
-6.58831e-09
6.60585e-09
-4.97717e-11
-2.28993e-10
-8.61642e-10
9.45046e-11
-5.8256e-09
1.72698e-11
-4.54234e-11
5.85375e-09
4.14471e-09
-4.17619e-09
-4.02027e-09
3.37493e-09
2.99918e-09
3.32852e-11
6.55043e-10
-4.14253e-11
8.91745e-09
-9.14312e-09
1.06008e-09
-8.34415e-10
-3.51596e-09
3.44859e-09
-2.81164e-09
2.13632e-09
1.66915e-09
-9.93834e-10
2.70477e-09
-3.34216e-09
1.70049e-09
-2.044e-09
7.52085e-09
-7.78094e-09
-1.6547e-09
1.91478e-09
-1.08206e-08
-1.7537e-09
8.01809e-09
-2.95071e-09
-7.49229e-10
5.01305e-09
-1.31312e-09
5.64478e-09
-1.21605e-09
-1.88962e-09
-3.77074e-09
3.72105e-09
1.93931e-09
-4.76182e-09
-4.3054e-10
-1.92074e-10
1.52569e-10
-5.76402e-09
6.34319e-09
-5.06613e-11
-6.81472e-09
6.8794e-09
3.48816e-09
-3.58776e-09
3.76953e-09
3.6213e-09
-2.86145e-09
3.20445e-09
-4.36838e-09
2.13635e-09
-3.61839e-10
-1.47299e-09
1.02955e-09
-1.63955e-09
1.6378e-09
-2.19882e-09
2.0413e-09
-2.35256e-09
3.35651e-09
-3.28887e-09
1.63416e-09
-1.7018e-09
1.54891e-09
-2.154e-09
-3.61568e-09
4.22077e-09
-6.49693e-09
6.46659e-11
4.01411e-11
5.35713e-09
-3.54659e-09
-1.82156e-09
1.10184e-11
5.39806e-09
-1.28799e-10
7.33721e-11
-5.02164e-10
4.50387e-09
-4.0017e-09
3.31882e-09
-4.82882e-09
2.46992e-09
-5.7857e-09
5.80662e-09
2.69999e-11
-4.79234e-11
-9.28686e-10
-4.42345e-09
5.90321e-10
8.16724e-09
2.29507e-09
-2.06808e-09
-4.76517e-10
9.97455e-12
1.703e-10
-8.97578e-12
-1.71299e-10
-2.51106e-10
1.49665e-09
-1.87218e-09
6.26633e-10
-2.14995e-09
1.66652e-09
3.24299e-09
7.09505e-09
-1.74169e-09
-1.35191e-09
1.4299e-09
-7.79952e-11
3.02099e-09
-3.07512e-09
-2.53153e-09
-6.72173e-10
-2.53206e-09
1.54395e-09
1.66028e-09
-2.16761e-11
3.4208e-11
-5.82472e-09
5.81218e-09
-2.13351e-11
-4.02897e-09
4.05031e-09
1.22113e-10
9.46761e-11
2.71091e-09
1.22705e-09
-2.73461e-09
-1.20335e-09
2.06433e-09
-2.07714e-09
-4.59337e-09
2.51438e-09
-4.87141e-10
2.56613e-09
-1.82527e-11
1.46734e-11
5.20929e-10
-3.8439e-11
1.81258e-09
1.76273e-09
-8.2459e-10
-3.89262e-09
2.95448e-09
-6.95284e-09
6.89624e-09
-2.63693e-09
-1.99857e-10
2.94736e-09
-3.57716e-09
6.16316e-09
-5.53335e-09
-3.39955e-09
-4.18216e-10
4.33557e-09
-5.17797e-10
-1.98466e-09
-3.36775e-09
3.47018e-09
-2.28851e-09
2.76496e-09
-2.54182e-09
4.54036e-10
-6.1363e-11
4.11507e-09
-2.47768e-09
2.07501e-09
-3.71241e-09
4.50307e-09
-3.01481e-09
8.10019e-10
5.40385e-09
-2.48483e-09
-5.59899e-09
-3.75198e-09
4.98789e-09
5.16122e-11
-1.28753e-09
-6.19582e-09
2.54334e-11
6.2041e-09
-3.37171e-11
3.43629e-10
-3.07236e-10
1.89519e-10
-2.25913e-10
4.62707e-09
-4.63772e-09
-2.97005e-10
1.17613e-09
-1.20205e-09
-4.03138e-09
4.0097e-09
-2.11878e-09
-4.78697e-09
1.77737e-09
-2.28198e-10
-7.89112e-10
-8.07816e-09
-6.35185e-09
6.62354e-09
3.95001e-12
2.81324e-09
7.44576e-09
6.74383e-10
6.14671e-09
-3.21716e-09
3.00078e-09
-5.93034e-09
-7.3414e-09
6.89812e-09
3.36605e-09
-2.92276e-09
2.88329e-11
6.81483e-10
1.82911e-10
3.59344e-09
-3.77636e-09
1.81185e-11
-3.01433e-11
-2.70552e-11
3.95753e-09
-3.93048e-09
-9.03424e-10
-4.15213e-09
7.54311e-10
-3.51541e-09
-2.68298e-09
4.29295e-09
-2.66557e-09
2.79777e-09
6.09001e-09
-6.2222e-09
2.92541e-09
9.32246e-10
-2.17174e-09
4.88761e-09
-4.18373e-09
4.45969e-09
1.76015e-09
-1.6326e-09
9.4792e-10
-6.23367e-10
-3.13619e-09
-2.22058e-10
5.5951e-09
-8.8658e-09
-8.83965e-10
8.49405e-09
-4.89545e-09
1.08587e-09
-1.32907e-09
1.29816e-09
-2.85902e-09
2.52249e-09
-9.6163e-10
-5.95057e-10
1.1393e-09