/*--------------------------------*- C++ -*----------------------------------*\
  =========                 |
  \\      /  F ield         | OpenFOAM: The Open Source CFD Toolbox
   \\    /   O peration     | Website:  https://openfoam.org
    \\  /    A nd           | Version:  8
     \\/     M anipulation  |
\*---------------------------------------------------------------------------*/
FoamFile
{
    version     2.0;
    format      ascii;
    class       surfaceScalarField;
    location    "5.2";
    object      phi;
}
// * * * * * * * * * * * * * * * * * * * * * * * * * * * * * * * * * * * * * //

dimensions      [0 3 -1 0 0 0 0];

internalField   nonuniform List<scalar> 
3021
(
1.9913e-10
-1.9913e-10
-2.19027e-08
-2.13537e-08
3.26056e-08
1.06508e-08
-1.6989e-08
-1.22929e-08
2.34609e-08
5.82105e-09
-3.06576e-08
-2.91902e-09
1.65876e-08
9.57411e-10
-1.31242e-08
1.21668e-08
8.97421e-09
-6.86431e-09
7.27546e-09
-9.38536e-09
-8.48204e-12
-1.61566e-08
1.55547e-08
6.10437e-10
-8.43581e-10
3.72487e-10
-1.90747e-08
1.95457e-08
1.08786e-08
-9.77911e-09
-6.8862e-09
5.78668e-09
-1.45353e-08
-3.38494e-09
1.08916e-08
7.02865e-09
-1.52008e-08
-1.71483e-08
1.04464e-08
6.32926e-09
-6.4518e-09
1.19022e-08
-1.17796e-08
1.75558e-08
2.75097e-09
-1.11987e-08
-9.10802e-09
-5.42496e-09
-1.72065e-08
8.09615e-09
6.63068e-09
-7.5624e-09
-6.4303e-09
7.36202e-09
-7.77317e-09
6.21095e-09
8.24843e-09
-6.68621e-09
-4.12911e-09
-2.2819e-09
6.41102e-09
-3.2073e-09
-9.21812e-10
2.71099e-10
3.42662e-10
-2.28833e-10
-3.84927e-10
4.68455e-11
-3.49292e-10
-5.99473e-11
3.62393e-10
-1.04726e-08
-2.76918e-09
1.62501e-08
-3.00835e-09
-2.34869e-08
1.72184e-08
1.85592e-08
2.60347e-09
-2.44959e-09
-2.17572e-08
6.41618e-09
1.5341e-08
-6.69963e-09
1.56277e-09
8.51093e-09
-3.37407e-09
5.72765e-10
-9.20401e-09
6.96556e-09
1.66569e-09
2.81383e-09
-1.27268e-08
-6.59104e-10
1.05721e-08
1.09002e-08
-2.98799e-09
-2.50578e-09
-5.40645e-09
3.06895e-08
-2.43902e-08
-2.28828e-08
1.65834e-08
3.13603e-08
-2.48011e-08
-2.31326e-08
1.65733e-08
3.26329e-08
-2.57863e-08
-2.40629e-08
1.72164e-08
-4.93642e-09
5.91725e-09
-1.68577e-08
1.58768e-08
-2.22374e-08
-1.52035e-08
5.70045e-09
3.17404e-08
6.5656e-10
-7.38781e-10
7.40377e-10
-6.58156e-10
-5.71204e-09
2.58841e-09
-3.57601e-09
7.46948e-09
3.77109e-09
-4.60989e-09
3.54807e-09
8.95312e-09
5.05458e-09
1.39426e-08
1.15248e-09
-1.45243e-08
-5.7085e-10
9.31381e-09
-5.80862e-09
2.97899e-09
-6.48418e-09
-1.48236e-08
1.18677e-08
7.83763e-09
-4.8817e-09
-7.585e-09
2.81144e-09
1.88184e-10
8.35792e-10
-4.02078e-10
-6.21897e-10
-5.20362e-11
5.51187e-10
9.34308e-11
-5.92582e-10
-4.2679e-08
1.69302e-08
1.34559e-08
-4.76032e-09
-2.7244e-09
7.48472e-09
1.41919e-08
1.44632e-09
-1.28244e-08
9.384e-10
1.33684e-08
-3.64221e-10
-2.28999e-09
6.80393e-09
4.88524e-09
-9.39918e-09
2.52795e-09
-5.3504e-09
-2.88959e-09
8.97412e-10
4.28143e-09
5.69979e-09
-6.17185e-10
3.32209e-10
-1.24e-09
1.52498e-09
-5.81226e-09
-9.94099e-09
5.97414e-09
4.10048e-10
-2.10918e-10
-1.42683e-08
-2.76451e-08
2.05597e-08
1.62317e-08
2.06404e-08
-2.88814e-08
-7.99066e-09
7.75649e-09
6.23143e-09
-6.94034e-09
-7.04758e-09
1.89232e-08
-3.54529e-09
-8.2069e-11
-4.07346e-10
4.03471e-09
-1.0983e-08
3.44561e-09
2.12301e-08
-1.36926e-08
-4.21346e-09
4.89431e-09
-5.93492e-09
5.25407e-09
-5.55571e-09
6.18635e-09
1.8973e-09
1.3714e-08
1.7075e-09
-1.4269e-08
-1.36414e-09
-2.08931e-09
1.42702e-09
2.02643e-09
-1.80219e-08
-1.9923e-08
2.69619e-08
-5.8135e-09
5.5785e-09
-2.08573e-09
2.32073e-09
8.83635e-10
-9.26903e-10
2.39031e-10
-1.95764e-10
-2.79808e-09
1.20812e-09
-9.76496e-10
2.56646e-09
4.16976e-10
9.32955e-10
-4.66296e-10
8.6609e-09
1.76945e-09
-5.51535e-09
-4.915e-09
-9.09329e-10
-2.66824e-10
1.17615e-09
1.74872e-09
-3.92397e-09
-3.38046e-09
6.68965e-10
-9.3292e-10
-5.7799e-09
6.04385e-09
2.67865e-09
3.93254e-09
-4.86247e-09
1.92726e-09
-9.81664e-10
-1.54699e-08
-1.01247e-08
-4.69829e-09
6.5591e-09
8.26384e-09
-1.06599e-08
-1.43696e-08
1.97123e-08
5.31725e-09
-5.75884e-09
5.92194e-09
3.24697e-08
-5.55021e-09
5.64872e-09
3.12618e-08
-5.66813e-09
5.52176e-09
3.08359e-08
6.65852e-09
-3.96617e-09
-6.50639e-09
3.81403e-09
-9.28496e-10
2.61079e-12
-1.01767e-12
3.00153e-10
6.52424e-10
-8.42626e-10
-1.09951e-10
-1.48096e-08
1.83576e-08
1.05108e-08
-1.12981e-08
8.93033e-09
-8.14302e-09
-3.36807e-09
5.73179e-10
-7.3047e-09
-4.45997e-09
1.11915e-08
-4.94667e-09
3.48293e-09
1.35059e-09
-1.90229e-09
5.51696e-10
9.63648e-09
-5.95702e-09
-8.62613e-09
-5.11086e-10
5.22239e-10
6.45408e-10
-1.77209e-08
1.00287e-08
-7.68571e-09
1.53778e-08
7.69651e-09
-5.80818e-09
-1.21936e-09
5.51833e-09
-8.35776e-09
8.86038e-09
-6.02096e-09
9.60708e-09
-8.08563e-09
2.47999e-10
-1.09738e-08
-7.26651e-10
-1.35977e-09
1.30602e-08
-8.0137e-10
2.54058e-09
1.43874e-09
-3.17796e-09
6.49783e-09
-5.33191e-09
9.91488e-09
-1.10808e-08
-9.79514e-09
-1.32611e-09
1.47467e-10
-2.3932e-09
8.63241e-09
3.0746e-09
7.39149e-10
1.23509e-08
-7.10048e-09
-2.06781e-09
9.74147e-09
-1.04686e-08
2.26086e-09
-4.87321e-09
1.3081e-08
3.39345e-09
-4.74291e-09
1.34946e-09
-2.26695e-08
2.26667e-08
7.80091e-11
-7.51483e-11
2.17848e-08
-4.94726e-11
5.77212e-11
-2.1793e-08
-2.1402e-08
2.14055e-08
4.66188e-11
-5.00723e-11
-2.01574e-08
-7.34452e-11
2.02024e-08
2.84966e-11
1.98895e-08
-3.89971e-11
-1.98779e-08
2.74537e-11
-1.78912e-12
2.84581e-11
2.08987e-08
-2.09254e-08
-2.00677e-08
-9.03222e-12
8.28772e-12
2.00684e-08
-1.2263e-11
-2.01688e-08
2.01791e-08
2.00119e-12
-3.36989e-12
1.2911e-11
1.97209e-08
-1.97304e-08
2.10455e-08
-1.88324e-11
-2.10466e-08
1.99557e-11
9.51947e-13
2.03707e-12
2.08931e-08
-2.08961e-08
5.97294e-13
1.15104e-11
2.00768e-08
-2.0089e-08
-2.00671e-08
2.00274e-08
4.00454e-11
-3.01973e-13
-2.08865e-08
2.08566e-08
3.83416e-11
-8.36591e-12
5.1734e-11
-7.563e-11
-1.97909e-08
1.98148e-08
1.84905e-08
-2.04285e-09
1.04362e-09
-1.74913e-08
1.87845e-08
-1.01513e-09
-1.84844e-08
7.15051e-10
-1.97456e-08
1.97318e-08
-1.83082e-12
1.56278e-11
1.59015e-08
-1.42155e-09
1.13795e-09
-1.56179e-08
1.90985e-08
-2.47771e-09
-1.8261e-08
1.64012e-09
-3.6155e-09
-1.07897e-08
-1.12193e-08
6.47862e-09
2.80707e-10
2.08669e-09
4.87341e-09
-1.57322e-09
-5.38687e-09
-1.31011e-08
9.91209e-09
-7.28355e-09
4.35986e-10
9.14606e-10
2.45782e-09
-1.16645e-08
1.06822e-08
-1.47547e-09
2.57202e-09
-9.90935e-09
-7.36586e-11
5.4449e-09
-6.65811e-09
1.28687e-09
-3.07883e-09
1.8164e-09
3.34912e-09
-8.45924e-10
-2.82003e-10
6.16841e-10
-1.20586e-08
-2.41342e-10
-8.67274e-10
1.8012e-10
-1.14872e-09
-5.6212e-09
-9.65096e-09
3.60762e-09
7.15423e-10
4.56479e-09
-5.35388e-09
8.10104e-09
-1.37933e-09
2.25249e-09
-4.16125e-09
-7.89736e-09
7.96627e-09
2.99516e-10
-8.26579e-09
9.77407e-10
-1.0521e-09
4.91674e-10
2.36681e-09
-1.16511e-09
-1.99843e-09
7.96741e-10
1.91167e-09
-3.90742e-10
5.21204e-09
-1.03066e-08
5.99193e-09
3.05814e-09
-3.03037e-09
-2.30967e-09
-9.15054e-09
2.02789e-08
4.68965e-10
-7.33181e-10
-1.81167e-09
2.07588e-09
5.16003e-09
8.92088e-09
-9.28735e-09
5.37963e-09
3.39514e-09
1.20727e-09
1.34451e-08
-3.17955e-10
1.08106e-09
-1.00444e-09
2.01295e-09
4.92944e-09
-1.67926e-08
-1.22927e-09
-8.15898e-09
5.85644e-10
-3.14545e-10
6.32603e-10
5.4781e-09
1.86332e-09
1.6592e-10
3.37572e-10
1.1146e-09
1.08907e-09
-8.69793e-10
-1.33387e-09
-8.72062e-10
7.21983e-10
2.20345e-09
-2.05337e-09
1.16972e-08
1.21759e-08
2.26225e-10
4.06378e-10
-1.36859e-08
1.35303e-08
1.36293e-09
1.73781e-08
-6.82374e-09
3.32824e-10
-4.32715e-10
-7.67383e-10
1.59902e-09
2.59208e-09
-1.18718e-10
5.59681e-09
-2.67207e-09
-5.35227e-10
-7.21145e-10
-2.20311e-09
9.11693e-10
-1.00292e-08
1.9939e-11
9.09752e-09
6.8979e-10
-4.19056e-09
-1.33794e-08
1.2238e-08
1.98035e-09
-5.41908e-09
6.60202e-09
2.30088e-09
-8.01851e-10
-6.6728e-09
7.62662e-09
-5.86532e-09
4.91149e-09
-1.63738e-08
7.72258e-09
-5.55004e-09
1.42012e-08
5.01599e-10
7.31509e-10
-9.7073e-09
1.21585e-08
8.20579e-09
-1.0657e-08
-1.35502e-10
-1.81449e-09
-3.88615e-10
1.10076e-08
-1.65153e-09
2.51482e-09
9.00723e-09
-1.0883e-08
-6.39085e-10
7.88094e-10
-7.2326e-10
1.15286e-10
2.72321e-09
-3.45767e-09
-2.34437e-09
1.24585e-08
-1.24283e-08
7.34355e-09
-7.37373e-09
-6.1315e-09
4.64707e-09
-5.55631e-09
6.74311e-10
8.04695e-10
-1.27697e-09
7.39471e-09
3.01352e-09
-2.93776e-09
1.74063e-09
-1.13091e-08
3.78468e-09
8.43615e-09
-7.39295e-09
1.11118e-08
-7.33439e-09
7.95922e-10
-5.21715e-12
-4.75012e-09
-9.3597e-09
7.45776e-09
6.65206e-09
-5.07363e-09
1.06684e-08
1.00725e-09
-1.08596e-09
2.72884e-10
-1.31082e-09
5.91928e-12
1.31274e-09
-7.83744e-12
-5.53045e-09
-1.07507e-08
8.65197e-09
7.31078e-09
1.14775e-08
7.25977e-10
-1.39979e-08
1.79441e-09
-7.00814e-10
4.00368e-10
-1.65849e-10
7.72958e-09
-2.52356e-11
2.10395e-08
-2.10786e-08
6.42483e-11
-1.99462e-08
1.99638e-08
7.90504e-13
-1.83464e-11
-2.02903e-08
-7.86247e-12
2.03029e-08
-4.78534e-12
-2.11091e-08
6.2227e-12
2.11281e-08
-2.52093e-11
2.11577e-11
2.11137e-08
-2.1088e-08
-4.68205e-11
-1.28714e-08
1.28462e-08
1.35503e-11
-1.2885e-08
-1.9954e-08
1.66504e-11
-8.89965e-12
-2.10422e-08
-2.6627e-11
2.10395e-08
2.93917e-11
-3.45409e-11
-2.0198e-08
2.01696e-08
6.2963e-11
-1.50424e-11
-2.10714e-08
4.42485e-11
-2.03063e-08
1.58744e-11
1.06409e-13
1.2746e-08
-1.27927e-08
4.66606e-11
2.58847e-11
-2.1082e-08
2.10967e-08
-4.0619e-11
1.26959e-08
-1.2674e-08
-2.19178e-11
2.36498e-11
2.10541e-08
-2.10316e-08
-4.61661e-11
1.74677e-11
1.99774e-08
-2.00013e-08
6.49955e-12
1.47537e-11
2.10994e-08
-2.11039e-08
-1.02634e-11
1.9959e-08
-1.99554e-08
2.64706e-12
-6.25781e-12
-1.00852e-11
1.20888e-08
-1.20787e-08
-2.14156e-08
2.1139e-08
-3.72865e-10
6.49523e-10
1.26236e-08
-4.37226e-11
-1.25799e-08
1.22273e-08
-1.22265e-08
-7.53137e-13
-1.2848e-08
1.28329e-08
-1.23385e-08
1.23039e-08
1.28709e-08
-1.2845e-08
-1.26448e-08
-2.30531e-11
1.26678e-08
-1.28817e-08
1.28964e-08
1.27075e-08
3.85121e-11
-1.22703e-08
1.22502e-08
2.01688e-11
1.28252e-08
-1.28015e-08
2.36078e-11
-2.10796e-08
2.1096e-08
-4.00108e-11
-1.69872e-12
-2.02805e-08
2.02834e-08
-1.18122e-12
-6.85482e-10
-2.19634e-08
1.23323e-09
-2.78598e-11
2.02209e-08
-2.02547e-08
6.15939e-11
5.3135e-12
2.10862e-08
-2.11023e-08
1.07964e-11
-1.31382e-09
-2.38075e-08
2.28181e-08
2.30323e-09
7.21843e-12
-2.1158e-08
2.11876e-08
-3.68311e-11
1.91684e-11
2.03018e-08
-2.02949e-08
-2.60455e-11
1.28636e-08
-1.28582e-08
-1.40191e-08
1.33337e-08
1.98949e-08
-3.41713e-11
-1.99019e-08
4.11914e-11
1.80843e-11
2.11069e-08
-2.11012e-08
-2.37512e-11
-1.26702e-08
1.26883e-08
-2.10049e-08
8.57369e-12
2.10068e-08
-1.03822e-11
-2.01076e-08
-2.14905e-10
1.99576e-08
3.64872e-10
-4.10044e-10
2.07261e-08
-2.14333e-08
1.11728e-09
2.11008e-08
-2.1132e-08
3.67387e-12
2.75686e-11
-2.02857e-08
2.0285e-08
-1.28825e-11
1.35243e-11
5.01955e-12
-1.99853e-08
1.9988e-08
-7.69757e-12
2.21271e-08
-1.71925e-10
-2.64438e-08
4.48857e-09
1.98794e-08
-1.08361e-11
-1.98842e-08
1.56085e-11
-2.03169e-08
4.46882e-12
2.6726e-11
1.99275e-08
4.38909e-12
-1.99312e-08
-7.06148e-13
-2.07449e-08
2.06303e-08
-9.17043e-11
2.0633e-10
-2.11012e-08
-1.81405e-10
5.37619e-10
-1.22286e-08
1.22478e-08
1.27884e-08
-1.31985e-08
2.0531e-08
-3.65139e-11
1.35854e-10
1.2091e-11
1.99676e-08
-2.0711e-11
1.2559e-12
-2.02753e-08
2.02976e-08
-2.35272e-11
-1.63849e-08
1.5071e-08
-2.03065e-08
-2.65616e-11
2.02885e-08
4.45868e-11
-1.28259e-08
1.28496e-08
2.11012e-08
-1.50961e-11
1.47058e-11
1.21619e-08
-1.21569e-08
-1.99334e-08
-1.68352e-12
1.99305e-08
4.58357e-12
-2.10331e-08
2.10213e-08
-4.83931e-11
6.01563e-11
-3.87016e-10
2.11305e-08
-2.14552e-08
7.11713e-10
1.77392e-11
1.24021e-08
-1.24198e-08
-2.9311e-12
2.02541e-08
-2.02524e-08
1.19051e-12
-1.32621e-11
-2.10008e-08
9.1617e-12
-1.23745e-08
1.23716e-08
1.27206e-08
-2.46408e-11
-1.22737e-08
3.05238e-11
1.22431e-08
-1.27957e-08
1.27824e-08
-1.68528e-08
5.63336e-10
1.62895e-08
2.83915e-12
-2.11404e-08
2.11201e-08
1.74014e-11
1.39264e-11
2.03277e-08
-2.03475e-08
5.90346e-12
1.23856e-08
-1.24134e-08
-3.40189e-12
-1.99018e-08
1.99181e-08
-1.29007e-11
-1.22658e-08
1.22797e-08
-1.95121e-11
-1.21927e-08
1.22122e-08
1.31615e-11
2.11429e-08
-2.11659e-08
9.8178e-12
-4.51983e-12
1.99968e-08
-1.99748e-08
-1.74593e-11
-1.99031e-08
-2.63504e-11
1.99002e-08
2.92506e-11
-5.17293e-12
2.11869e-08
-2.11855e-08
3.79288e-12
-1.27268e-08
3.30212e-11
1.26937e-08
2.01482e-12
1.24385e-08
-1.24405e-08
1.26849e-08
-1.2682e-08
1.37958e-08
-1.41828e-08
1.00351e-10
1.44253e-08
-1.45256e-08
-2.02659e-08
2.02727e-08
1.27939e-11
-1.96062e-11
-8.19164e-12
1.99738e-08
-1.99789e-08
1.33135e-11
-1.2678e-08
7.7933e-12
1.33249e-12
2.02713e-08
1.24093e-11
-1.21435e-08
-7.03739e-12
1.21505e-08
-1.22301e-08
1.51442e-12
-1.29846e-11
3.79841e-11
1.98544e-08
-1.23588e-08
-9.20916e-10
1.32797e-08
-1.21206e-08
1.21161e-08
5.53989e-12
-1.26835e-08
2.10871e-08
1.21406e-12
1.28834e-11
-1.22361e-08
5.9568e-12
1.22319e-08
-4.55863e-12
1.27781e-08
-2.06789e-11
-1.27575e-08
-1.75577e-08
1.17287e-09
1.23785e-08
-1.23755e-08
-3.04224e-12
-1.27236e-08
1.27368e-08
-1.45983e-12
-1.2142e-08
1.21407e-08
-1.21489e-08
-1.73657e-12
2.10672e-08
-3.27757e-11
-2.11014e-08
6.68868e-11
-1.38833e-09
1.65848e-08
-1.51965e-08
3.63976e-12
-1.21798e-08
1.21762e-08
-1.19535e-08
1.19709e-08
-1.74217e-11
-2.38377e-08
-1.05633e-09
2.31711e-08
1.7229e-09
2.35392e-08
-1.98365e-09
-2.29438e-08
4.7125e-11
3.28267e-10
2.07978e-08
-3.99984e-10
-1.28149e-08
-9.65138e-10
1.378e-08
1.98533e-08
-1.58257e-11
-1.98558e-08
1.83861e-11
1.55909e-11
-1.22544e-08
-1.59992e-11
1.22704e-08
1.48959e-12
1.99473e-08
-1.99705e-08
2.17937e-11
-2.03174e-08
-3.97081e-12
2.03121e-08
9.26118e-12
2.10982e-08
-1.14193e-11
1.26401e-11
2.11314e-08
-4.25395e-12
1.57884e-11
1.11791e-11
1.21295e-08
-1.21059e-08
1.21073e-08
-1.20624e-08
1.11908e-12
1.20612e-08
-1.21035e-08
-1.71281e-11
1.99745e-08
2.59231e-11
-3.62409e-12
2.02807e-08
3.3086e-11
-4.32706e-11
-2.02705e-08
-3.3142e-10
-2.03995e-08
6.2329e-10
-1.20938e-08
1.21283e-08
-3.44559e-11
-5.75306e-12
2.11257e-08
1.14593e-11
1.25822e-08
-1.29136e-08
-2.67987e-10
-1.81391e-08
5.81398e-10
-1.27278e-08
1.27426e-08
-1.48218e-11
-1.27325e-08
4.03667e-12
-1.22351e-08
1.22574e-08
-2.23428e-11
1.99696e-08
1.53545e-11
2.16333e-08
8.56312e-11
-2.16186e-08
-2.04084e-12
1.23619e-11
-9.86669e-12
2.10413e-08
3.57611e-11
-1.22776e-08
2.02215e-08
-2.02532e-08
3.53224e-11
-1.77764e-08
-3.62711e-10
2.03032e-08
2.4077e-11
-2.02967e-08
-3.06039e-11
-1.52958e-11
-1.20471e-08
-1.43263e-11
1.22202e-08
-1.22059e-08
-1.8499e-11
2.02903e-08
1.78353e-11
-2.74918e-11
2.029e-08
-1.40108e-11
1.22418e-08
-1.22302e-08
-1.16699e-11
1.99385e-08
2.05572e-11
-1.99132e-08
-4.5879e-11
-1.28055e-08
9.80546e-12
1.99432e-08
-2.00087e-11
1.51683e-09
2.48256e-08
-2.46969e-09
-2.38728e-08
-1.22275e-08
-9.23325e-10
1.31509e-08
-1.49755e-12
-1.21919e-08
1.21934e-08
1.96116e-11
-3.13766e-11
-2.0322e-08
6.66964e-12
2.03395e-08
-2.42051e-11
1.71827e-12
1.22185e-08
2.47626e-08
-2.52316e-08
1.05048e-09
1.98428e-08
8.93089e-12
1.28025e-08
-2.43515e-11
-1.22647e-08
1.02443e-11
-2.03641e-08
7.53715e-11
-1.22078e-08
1.22107e-08
-1.22228e-08
1.21353e-11
1.21531e-08
-1.21356e-08
-1.21881e-08
9.23485e-12
-2.80191e-11
-2.11651e-08
-1.50158e-12
2.11631e-08
3.44452e-12
-5.35152e-11
8.33615e-11
2.10097e-08
-6.2554e-12
-2.72052e-11
3.31908e-11
-6.11174e-11
-2.10706e-08
-1.28063e-08
8.14492e-13
1.23673e-08
-1.20265e-08
-4.88793e-12
2.03301e-08
-2.34531e-11
1.31167e-08
-1.22254e-08
4.55833e-11
4.57696e-10
1.33381e-08
-2.02912e-08
2.0275e-08
1.81588e-11
-2.40482e-12
-2.11707e-08
8.01838e-12
-1.22385e-08
1.98846e-08
-1.98662e-08
-3.78795e-11
-1.99213e-08
-9.20667e-13
1.91288e-11
1.99572e-08
-2.1363e-11
1.13862e-11
1.26706e-08
1.42779e-11
1.31845e-11
1.21488e-08
5.23913e-12
-1.2086e-08
1.20807e-08
-1.07258e-11
-1.99291e-08
-2.03257e-11
-1.27471e-08
1.27456e-08
1.24175e-08
-1.24163e-08
-2.84675e-12
-1.22618e-08
-1.99955e-08
1.99905e-08
-1.98157e-12
-2.18943e-13
-1.22383e-08
-7.0961e-12
1.35083e-08
-3.91638e-10
1.22724e-08
9.48524e-11
7.00341e-11
1.22429e-08
-1.22224e-08
1.22115e-08
-1.22347e-08
1.9932e-08
3.04421e-11
3.82855e-12
-1.17843e-11
1.26378e-08
1.98532e-11
-4.77275e-11
1.99857e-08
1.54863e-11
1.22928e-11
-1.49195e-11
1.20914e-08
-1.99244e-08
-2.00607e-11
2.31649e-11
2.04355e-08
-1.00081e-11
1.05533e-10
-2.39982e-11
9.53207e-11
-1.22659e-08
1.22751e-08
-1.27495e-08
-2.92757e-12
-1.98798e-08
2.69558e-11
9.23123e-10
-1.41216e-08
7.02044e-13
-1.54941e-10
2.60847e-10
-1.20779e-08
1.2404e-08
-1.23912e-08
1.05191e-09
2.6663e-11
5.72979e-10
-1.33364e-08
1.27634e-08
2.57418e-11
-1.79227e-11
2.07662e-08
8.21977e-10
-2.02625e-08
1.41607e-11
1.2791e-08
-2.34656e-11
1.98271e-08
-1.04607e-11
-1.98778e-08
6.11742e-11
1.22818e-08
1.59897e-09
-2.24835e-11
2.50152e-11
1.2628e-08
1.01143e-11
-9.68584e-12
-2.10299e-08
2.10528e-08
-4.73322e-11
-2.23064e-08
1.7962e-09
-2.39789e-08
7.04586e-10
1.0555e-11
-3.53866e-11
1.99236e-08
1.0339e-12
-2.29311e-11
-7.07734e-10
2.42421e-10
-1.22687e-08
-1.42675e-12
1.22702e-08
-4.24516e-10
7.91287e-10
2.36473e-11
-1.20531e-08
1.20125e-08
4.06669e-11
-2.10114e-08
2.03163e-11
-1.16388e-13
1.86918e-10
-1.79432e-10
2.10339e-08
-1.22344e-08
-2.11414e-08
-4.12335e-11
-1.20285e-08
1.20293e-08
-8.54751e-13
2.02761e-08
1.16668e-12
-9.65452e-12
2.12795e-09
-1.21308e-08
1.21203e-08
1.04987e-11
-1.24438e-08
1.27375e-08
1.2582e-08
-1.24903e-08
1.24538e-08
-1.2155e-08
-1.22944e-08
-2.90215e-09
1.82571e-10
-1.76993e-10
2.02159e-08
3.03596e-11
2.42995e-11
-1.22497e-08
-1.62596e-08
-1.19397e-08
-1.38377e-11
-2.92452e-11
1.60525e-11
2.19545e-11
-1.24541e-08
1.24649e-08
-1.07251e-11
1.29608e-08
-1.22476e-08
-1.19669e-08
1.19678e-08
-8.27836e-13
-1.20143e-11
-3.10136e-11
-1.19955e-08
-1.45321e-11
1.26481e-08
-1.26377e-08
-1.04397e-11
-1.52332e-08
1.11155e-09
-2.02939e-08
8.8254e-12
4.20516e-10
-1.21125e-08
1.20978e-08
1.46953e-11
4.66684e-12
2.10878e-08
4.85103e-12
-2.25549e-10
-1.2002e-08
-8.68747e-12
1.22501e-08
-1.22492e-08
-1.46472e-08
1.21536e-10
2.02992e-08
6.84182e-12
2.41339e-11
-1.26837e-08
1.26651e-08
1.86012e-11
2.02826e-08
4.08815e-11
-1.28058e-08
-2.49258e-11
-1.22334e-08
1.22371e-08
-3.72103e-12
-3.5489e-11
-1.24968e-08
1.25379e-08
-4.11363e-11
-1.26823e-08
-9.49513e-09
9.33627e-09
1.58861e-10
-5.02492e-11
-1.26974e-08
1.98348e-08
-2.33272e-10
-2.42933e-11
-7.68739e-10
-4.26177e-11
-1.20512e-08
1.92122e-11
-1.24498e-08
-4.37159e-12
7.49818e-11
-1.26077e-08
1.26174e-08
-9.72462e-12
1.2258e-08
-1.24785e-08
2.20423e-10
-1.22441e-08
1.06258e-11
-1.49658e-11
-4.33031e-11
-1.99009e-08
2.27026e-11
1.26561e-08
-8.02697e-12
3.35793e-11
3.24693e-11
-3.19115e-11
1.50575e-10
-1.19897e-08
1.19836e-08
6.06426e-12
-1.21484e-08
1.75966e-11
-1.21915e-08
1.22025e-08
-1.10165e-11
1.97625e-09
4.83067e-12
4.17863e-12
-6.03764e-09
-4.19537e-11
6.11055e-12
-2.45726e-11
-1.26788e-11
-1.65107e-11
4.53962e-11
-1.24574e-08
7.59244e-12
1.21711e-08
-1.21985e-08
2.74569e-11
2.29165e-11
2.26526e-11
2.3836e-11
1.9066e-09
-1.2124e-08
1.21207e-08
3.30847e-12
-5.6969e-12
-2.67144e-11
-1.2475e-08
-2.42774e-11
1.24993e-08
2.76249e-11
-1.22219e-08
1.2228e-08
-6.18763e-12
-1.73404e-11
-2.27125e-11
1.22334e-08
3.73376e-12
-1.25962e-08
-1.15169e-11
-3.52566e-11
1.20298e-08
-1.20436e-08
1.37062e-11
-3.69793e-12
2.89103e-11
-7.15149e-09
6.54889e-09
6.02602e-10
3.3056e-11
-1.20089e-08
1.19905e-08
1.84531e-11
-1.25744e-08
1.26107e-08
-3.63124e-11
6.69853e-12
-1.19786e-08
2.45565e-12
1.19761e-08
1.20312e-08
-1.20322e-08
1.04677e-12
1.27086e-08
-1.26549e-08
-5.36341e-11
8.05817e-12
2.09064e-11
-1.20327e-08
1.20429e-08
-1.02039e-11
2.69234e-12
-1.26669e-08
1.26755e-08
-8.65597e-12
-1.23606e-08
-2.1381e-10
-1.25937e-08
-2.5214e-12
1.19114e-08
-1.1923e-08
1.15911e-11
-1.17574e-08
-6.03198e-10
8.19763e-12
-1.18914e-08
1.19013e-08
-9.90451e-12
1.22603e-08
-1.22016e-08
-5.87111e-11
2.46023e-09
-9.61173e-09
-1.24643e-08
6.90562e-12
-1.21822e-08
-9.32396e-12
1.24798e-08
-1.25088e-08
2.90228e-11
-1.21647e-08
1.21707e-08
-6.05505e-12
-1.18865e-08
-4.87226e-12
1.20152e-08
-1.20903e-08
7.50826e-11
8.26981e-12
1.20314e-08
-1.2028e-08
-3.39623e-12
-1.18916e-08
1.189e-08
1.6065e-12
-1.259e-08
1.25845e-08
5.53811e-12
-1.21702e-08
1.21607e-08
9.45268e-12
-1.25857e-08
-7.98286e-12
-1.21877e-08
1.75095e-11
1.29496e-08
-1.28038e-08
-1.45822e-10
1.24966e-08
-1.23565e-08
-1.4011e-10
1.24552e-08
-1.24475e-08
-7.60304e-12
-1.20078e-08
1.20197e-08
-1.18897e-11
1.336e-08
-4.10379e-10
-1.98935e-11
-1.26296e-08
-8.05656e-12
8.11423e-13
1.22113e-08
-8.84107e-12
-3.91244e-12
-1.22031e-11
-1.14519e-11
7.40439e-12
1.18943e-08
-1.18945e-08
2.0809e-13
1.24558e-08
2.39909e-11
1.67707e-10
1.25579e-08
-1.29012e-08
3.43324e-10
1.25565e-08
-1.62138e-12
-1.25549e-08
-1.04446e-11
-1.19681e-08
-2.83911e-12
-1.20407e-08
-1.05107e-11
1.27038e-08
-7.13377e-10
-1.19905e-08
1.99114e-08
4.82941e-11
-1.26087e-08
1.86629e-11
-1.11817e-09
-1.06392e-08
-1.26271e-08
1.84424e-11
2.72315e-12
5.96649e-10
-1.00918e-08
1.20451e-08
-1.20584e-08
1.32452e-11
-1.07373e-11
-1.21043e-12
-1.35667e-08
1.75113e-08
-3.94459e-09
1.25471e-08
9.44413e-12
3.44117e-12
-1.18944e-08
-7.24937e-11
1.29003e-08
-4.03602e-10
1.25198e-08
2.72468e-11
-1.24798e-08
1.55408e-11
1.24958e-08
2.39822e-11
1.16489e-08
-4.686e-10
-1.11803e-08
8.25975e-12
1.60291e-11
-2.45515e-10
1.19526e-08
1.51366e-11
1.4914e-11
-8.62869e-10
1.19031e-08
8.3272e-12
-1.28786e-12
-1.26569e-08
1.78404e-10
4.03291e-12
-9.89699e-11
-9.52434e-11
-9.62744e-11
8.54586e-12
-1.19364e-08
1.33987e-11
1.20448e-08
-1.93936e-12
1.28937e-11
-1.2032e-08
4.03516e-12
1.20264e-08
2.97723e-12
-5.65762e-12
7.42398e-11
1.62555e-11
3.9304e-10
4.90351e-10
-2.30967e-10
2.39838e-10
-6.30273e-10
-1.3743e-09
2.19875e-09
1.03886e-09
-9.16442e-10
3.0579e-09
1.99929e-09
-1.2631e-09
-1.60987e-09
8.73679e-10
-9.7799e-09
-3.31048e-09
1.23637e-08
-1.1418e-09
-2.03318e-09
1.06301e-09
2.11197e-09
-1.11261e-09
-4.38106e-10
-1.19067e-09
8.41096e-09
-2.13938e-08
2.97746e-11
-4.10116e-11
2.14032e-08
2.26648e-08
-2.2646e-08
4.54592e-11
1.43315e-11
-2.01198e-08
2.01017e-08
9.24011e-12
-1.97857e-08
1.97727e-08
-4.28304e-11
2.17844e-08
7.86171e-11
2.13927e-08
-2.13931e-08
2.17706e-08
-2.17708e-08
2.1761e-08
-2.17744e-08
-3.11933e-12
-1.98909e-08
1.98851e-08
8.25546e-12
2.17799e-08
-7.67169e-13
-1.18475e-11
-2.0354e-11
2.14042e-08
2.26432e-08
-2.26357e-08
-1.76799e-11
2.17937e-08
-2.17811e-08
-2.75258e-11
-2.13974e-08
2.43815e-11
2.14023e-08
-4.24799e-12
2.26451e-08
1.06555e-11
3.2341e-11
-2.17858e-11
-2.17789e-08
2.26453e-08
-2.26514e-08
-3.45413e-11
-2.1413e-08
2.14106e-08
3.76783e-13
2.14224e-08
-1.46192e-11
-2.14321e-08
-2.26949e-08
2.26748e-08
2.8152e-11
-2.2683e-08
2.26898e-08
-3.04564e-12
2.18056e-08
-2.06754e-11
-2.18155e-08
-2.14333e-08
-2.1291e-12
2.18002e-08
-2.26426e-11
2.26723e-08
-4.09681e-11
-2.26725e-08
-8.38251e-12
2.26739e-08
-3.85019e-11
2.14235e-08
-1.85987e-11
-2.17324e-11
-8.75636e-13
-6.40386e-11
2.26696e-08
-1.34202e-11
2.17908e-08
-1.4777e-11
2.10394e-08
4.43764e-12
-2.14076e-08
2.93353e-11
-2.17752e-08
3.01804e-11
2.17896e-08
-2.26811e-08
2.26882e-08
1.21424e-11
-2.13839e-08
-5.27168e-13
-2.92715e-12
-2.13879e-08
8.6527e-12
-2.66607e-11
-2.26724e-08
-4.14356e-11
2.10096e-08
-2.09924e-08
2.18004e-08
-1.51338e-12
2.10285e-08
2.03878e-11
-2.17989e-08
2.17878e-08
2.34533e-11
-2.26885e-08
2.26795e-08
2.47755e-11
-2.13801e-08
-3.24508e-12
2.13958e-08
-2.13873e-08
-3.66009e-12
-2.1418e-08
2.14234e-08
1.12163e-12
7.31457e-12
9.53121e-12
2.1379e-08
-2.13669e-08
-1.28237e-11
-4.57556e-12
-3.35242e-12
2.26848e-08
6.18551e-12
-2.17542e-08
5.44311e-11
2.17916e-08
5.50485e-12
2.16814e-08
-2.1615e-08
6.93724e-11
-2.17228e-08
6.39033e-11
2.14251e-08
-2.14368e-08
1.84452e-11
-2.26576e-08
2.26604e-08
-7.24968e-12
6.41884e-11
-2.13827e-08
-1.96933e-11
2.14173e-08
-2.14148e-08
-1.01935e-11
2.18048e-08
1.25806e-11
2.26984e-08
1.30504e-11
-2.13748e-08
-2.07933e-11
-2.15455e-08
1.36828e-10
2.31294e-11
2.27028e-08
2.25926e-11
2.18089e-08
2.14314e-08
6.98352e-12
2.26673e-08
-2.26589e-08
-4.83431e-11
2.14718e-08
5.02326e-09
-2.20065e-08
2.13612e-08
-2.13293e-08
9.27324e-12
-2.15026e-08
4.94792e-10
2.26622e-08
-2.26638e-08
1.23647e-11
-4.02246e-12
3.50515e-11
1.56811e-09
-2.25994e-08
2.30142e-12
2.26573e-08
-1.15082e-11
-1.90585e-08
-3.4607e-10
1.85417e-08
-1.9178e-08
-5.79569e-10
1.9512e-08
-2.06818e-11
-3.23479e-12
-1.28138e-09
1.92723e-10
-2.25313e-08
2.18385e-08
-2.18543e-08
5.666e-11
-8.62143e-10
2.27276e-08
-2.27355e-08
4.09375e-11
-2.18449e-08
2.17989e-08
8.14131e-11
6.85221e-11
2.27305e-08
6.40352e-11
1.994e-08
-1.95962e-09
2.26797e-08
8.65938e-11
-4.50709e-11
2.25453e-08
-2.19541e-08
6.42107e-10
2.17325e-08
-4.16259e-11
2.16635e-08
5.28192e-11
-2.19213e-08
1.35314e-09
-2.3273e-08
2.29703e-08
-8.24249e-09
9.04602e-09
-1.59081e-08
5.75423e-10
5.49125e-10
-1.00656e-10
-3.54221e-09
8.20452e-10
5.88146e-10
1.83869e-09
-1.70485e-09
7.9754e-09
-8.14674e-09
-6.90742e-09
7.07876e-09
2.11189e-11
1.1955e-08
3.92563e-11
2.17861e-08
-1.87475e-11
1.19201e-08
3.86991e-12
1.22353e-08
-1.22392e-08
2.59612e-11
-1.26531e-08
2.47746e-11
-1.22125e-08
-1.97198e-11
1.2519e-08
2.05634e-11
-1.20789e-08
-8.59344e-12
1.20283e-08
1.99962e-11
1.2655e-08
-1.2675e-08
2.7361e-11
1.21952e-08
-1.22226e-08
3.02986e-11
1.25804e-08
8.89829e-12
-2.1839e-08
4.54479e-11
-2.14705e-08
2.14734e-08
-4.26601e-12
1.2074e-08
-1.20697e-08
6.73464e-13
-2.27188e-08
-4.2868e-10
9.76495e-09
-3.38814e-10
-1.23462e-08
1.2685e-08
-1.58882e-09
-7.83877e-09
9.42759e-09
-8.72359e-10
7.42125e-09
1.90947e-09
6.64029e-09
-8.54976e-09
-3.65072e-10
4.26542e-10
-1.50586e-09
1.44439e-09
1.98819e-08
2.42477e-11
-2.01419e-08
2.37117e-11
1.98594e-08
-1.98538e-08
-2.00678e-08
2.00719e-08
-2.00691e-08
5.26883e-12
-2.08814e-08
2.08664e-08
2.10263e-08
-3.64232e-11
-1.97226e-08
1.97285e-08
2.01525e-08
-2.01309e-08
-2.08856e-08
1.909e-11
-2.00643e-08
2.45817e-11
2.1028e-08
-2.09954e-08
2.00418e-08
-5.56105e-12
1.81692e-08
-1.79558e-08
2.0858e-08
-7.75672e-13
-1.97359e-08
-1.39762e-11
1.66203e-08
-2.30764e-09
1.97571e-08
2.01191e-11
1.73325e-08
-1.68517e-08
1.58482e-08
1.13742e-09
-1.50761e-08
1.22055e-09
1.86623e-09
2.35977e-09
3.52225e-09
-2.10612e-09
-3.7759e-09
-5.2242e-10
-2.16447e-09
6.14558e-10
2.07234e-09
-5.63661e-10
-8.73495e-10
7.90908e-10
4.31418e-09
-1.94855e-09
7.54925e-09
-3.49321e-10
-1.21876e-08
1.2537e-08
8.24759e-10
-9.73263e-10
-1.84519e-09
1.74931e-09
-1.01393e-08
1.19375e-08
3.72013e-09
-1.55359e-08
-2.91839e-09
1.0223e-08
8.23127e-09
4.22937e-09
2.94165e-09
-3.77588e-09
-1.68592e-09
-1.32278e-09
-2.61955e-09
2.0991e-09
1.84324e-09
-6.92027e-09
-2.71216e-09
1.07377e-09
6.38462e-10
9.5779e-09
-1.00191e-08
1.18032e-09
1.35326e-09
8.31688e-10
-2.50909e-09
-8.86275e-10
2.07259e-09
4.47622e-09
8.78284e-10
1.35539e-09
5.31607e-10
-1.06224e-09
-1.15425e-08
-1.89045e-09
1.20681e-09
1.22261e-08
8.76746e-09
8.32445e-10
-9.5999e-09
-1.09534e-08
1.18238e-09
1.44729e-08
-6.39406e-10
8.88916e-09
-8.20491e-09
-6.21471e-09
-2.51109e-09
2.82042e-09
2.36932e-09
-5.96939e-09
-8.0918e-09
1.46314e-11
2.43399e-11
8.39395e-09
3.88577e-09
-1.00272e-08
-2.49843e-09
7.18748e-10
-1.97346e-08
1.19062e-08
7.10974e-09
-7.03406e-09
4.62721e-09
-5.36633e-09
3.04496e-09
3.19736e-09
1.61189e-09
-1.34884e-08
-1.49586e-09
-1.78403e-11
4.4464e-09
1.38344e-09
1.26921e-09
7.48981e-10
5.35844e-09
-2.10134e-08
7.93592e-10
-4.28952e-09
-4.708e-10
2.04489e-09
2.73852e-09
-2.42363e-09
-1.34582e-09
4.191e-10
4.23967e-10
9.82394e-09
-6.31026e-10
7.60856e-10
6.19262e-10
6.65878e-10
2.99046e-09
-1.53796e-08
2.56248e-09
1.235e-08
4.67099e-10
6.69744e-09
3.62394e-09
-9.38914e-09
3.20784e-09
1.7012e-09
-4.43784e-09
5.934e-09
2.91444e-09
1.5724e-08
-3.1288e-09
-1.75316e-08
-4.60333e-09
7.25794e-10
5.57873e-09
5.10117e-09
8.50996e-09
-2.61292e-09
-1.09982e-08
6.63454e-09
3.37127e-09
-2.61111e-09
-8.05705e-10
-9.48631e-10
-1.57787e-09
8.99912e-09
-7.00325e-10
1.04653e-08
3.38668e-11
1.25466e-08
-1.03897e-11
1.20387e-08
-1.59003e-11
1.25349e-08
-2.06242e-11
1.19407e-08
1.40046e-11
1.1941e-08
-1.95871e-08
6.05564e-10
1.86428e-08
-1.17043e-09
3.05344e-09
6.11692e-09
-4.2325e-09
4.23464e-09
6.24633e-09
-4.36405e-09
1.05409e-08
-1.44422e-08
2.46376e-09
6.99091e-10
-7.02923e-10
-1.38517e-12
-1.45311e-09
-1.53893e-11
1.1999e-08
2.28285e-09
-3.77904e-09
-2.27077e-08
-2.18224e-08
-2.10346e-08
-2.17682e-08
2.15216e-08
-2.34839e-08
2.27669e-08
-2.14419e-08
-2.14287e-08
2.12356e-08
-6.70082e-09
1.20896e-08
-1.21542e-08
1.22059e-08
2.14549e-08
-2.14694e-08
-1.09468e-08
1.21949e-08
1.26466e-08
-2.2592e-08
2.24175e-08
1.26765e-08
-1.45624e-11
1.20594e-08
1.22286e-08
2.27091e-08
-2.27022e-08
2.18227e-08
-2.181e-08
2.01537e-08
-2.17857e-08
2.17876e-08
-2.13956e-08
2.13835e-08
-2.2646e-08
2.26475e-08
1.22263e-08
2.1826e-08
-2.18189e-08
2.09812e-08
1.20945e-08
-1.98788e-08
1.98318e-08
2.14389e-08
-2.14323e-08
-2.02395e-08
-4.59475e-12
1.2238e-08
2.17742e-08
1.26633e-08
2.26803e-08
-2.2677e-08
-2.61975e-10
-6.92038e-09
-2.64398e-09
1.1007e-08
-8.62501e-09
-7.23826e-09
-1.23319e-08
1.09593e-09
4.10139e-11
8.77894e-09
-3.79677e-11
6.36403e-10
2.08924e-08
-1.54067e-08
8.56796e-09
2.7508e-11
-1.02214e-11
1.38677e-11
-1.55356e-11
-2.00707e-08
4.42696e-13
1.20288e-12
1.98732e-08
2.27791e-11
1.44061e-11
-1.38332e-11
-3.913e-11
-1.97242e-08
-2.20752e-11
1.03567e-11
-2.01581e-08
-3.62238e-11
4.44116e-11
-7.82106e-11
1.85607e-11
-6.03071e-12
-2.67737e-11
-2.39022e-09
1.51924e-09
8.74033e-11
1.40283e-10
8.91614e-12
-1.49063e-12
2.10271e-08
3.46859e-11
-1.01551e-09
-2.5063e-09
1.21726e-11
2.00863e-08
9.07201e-12
2.08899e-08
1.69732e-10
6.05281e-11
-8.37963e-09
-3.15065e-09
-1.20443e-09
-9.47087e-10
-1.22887e-08
-3.65334e-09
-1.40592e-08
5.52074e-09
1.15602e-08
-1.45185e-08
-8.28303e-10
1.20177e-09
-1.32585e-12
5.27878e-12
1.98692e-08
1.6298e-11
-2.00916e-08
-3.77437e-11
4.11043e-11
2.10238e-08
-6.26364e-12
-1.97325e-08
-5.80627e-09
-1.70467e-08
-4.24959e-09
-2.85304e-09
2.41493e-08
5.00568e-10
2.38223e-09
-5.50323e-09
3.79644e-09
1.07696e-08
-1.20457e-08
6.79683e-09
2.47409e-09
-8.97679e-09
-1.90121e-08
1.7471e-08
9.26365e-09
-5.75178e-11
4.14385e-09
2.07248e-10
9.99732e-09
-5.03996e-09
2.01242e-08
-1.33621e-08
4.71539e-09
-4.94295e-10
-1.31721e-08
2.20333e-09
2.06045e-09
8.90835e-09
1.22997e-08
-9.64854e-09
-1.77023e-10
-2.33025e-09
1.10977e-08