/*--------------------------------*- C++ -*----------------------------------*\
  =========                 |
  \\      /  F ield         | OpenFOAM: The Open Source CFD Toolbox
   \\    /   O peration     | Website:  https://openfoam.org
    \\  /    A nd           | Version:  8
     \\/     M anipulation  |
\*---------------------------------------------------------------------------*/
FoamFile
{
    version     2.0;
    format      ascii;
    class       volVectorField;
    location    "5.2";
    object      U;
}
// * * * * * * * * * * * * * * * * * * * * * * * * * * * * * * * * * * * * * //

dimensions      [0 1 -1 0 0 0 0];

internalField   nonuniform List<vector> 
7843
(
(0.000732468 0.00131326 -2.51248e-22)
(0.000546718 0.000987123 1.15239e-21)
(0.000549971 0.00100951 0)
(0.000971665 2.57761e-05 7.05956e-22)
(0.000684864 0.0012062 -3.14335e-22)
(0.00100918 2.49695e-05 -8.38304e-23)
(0.000577501 0.000531919 -2.44782e-21)
(0.00057901 0.00102238 0)
(0.00021695 9.59541e-05 3.36237e-21)
(0.000558553 0.000975323 0)
(0.00057689 0.00102256 9.2016e-22)
(0.000735608 0.00130044 0)
(0.000315306 5.46165e-05 0)
(0.000575338 0.00103509 0)
(0.000579478 0.000986858 1.54218e-21)
(0.00038763 0.000667395 9.39857e-22)
(0.00057469 0.0010205 2.87797e-24)
(0.0005807 0.000985163 0)
(9.72293e-06 9.16721e-05 1.00276e-21)
(0.000253491 0.000384892 0)
(0.00020608 0.000142008 2.89138e-21)
(0.000410391 0.000444597 -4.83481e-22)
(0.000578849 0.00102678 2.46784e-24)
(8.20165e-05 0.000866505 -1.35075e-22)
(0.000750923 0.00122829 -5.86625e-22)
(1.76374e-05 -5.47397e-06 0)
(0.000551235 0.0013706 -4.52881e-23)
(5.65914e-05 0.000383821 2.91284e-21)
(0.000654621 0.00119881 -1.23573e-22)
(0.00101945 1.42785e-05 -8.01838e-22)
(0.000881769 0.000162758 -1.03298e-21)
(0.000549124 0.00102598 3.34571e-22)
(0.000808878 -9.23419e-05 9.63053e-22)
(0.000598878 0.0010326 1.32499e-22)
(0.000542035 0.000972886 8.92161e-22)
(0.000812304 0.00125557 -2.10768e-21)
(0.000579652 0.00097611 -6.65724e-22)
(0.000928204 0.000345716 5.31243e-25)
(0.00100855 5.06705e-05 -1.08575e-22)
(0.000508384 0.000933506 9.68713e-22)
(0.000579062 0.000983615 -1.75774e-23)
(0.000602325 0.00107213 -1.0731e-21)
(0.000735509 0.00125404 0)
(0.000553043 0.000985058 -2.32124e-21)
(0.000223775 7.92708e-05 -1.01818e-21)
(0.000189543 0.000459691 6.70887e-22)
(0.000578292 0.00103295 9.81669e-22)
(0.000206505 0.000585801 1.35161e-21)
(0.000588115 0.00103386 1.21324e-21)
(1.08089e-05 3.31767e-05 2.64917e-23)
(0.000353679 4.4986e-05 -9.62751e-22)
(0.000557183 0.000983489 1.24707e-23)
(0.00057646 0.00103053 0)
(0.000767546 0.000529797 8.63798e-22)
(0.000673141 0.00116417 -2.34376e-22)
(7.48849e-06 8.43241e-05 0)
(0.000366853 0.000450774 2.57483e-21)
(0.000550167 0.000100395 9.86788e-22)
(0.000740796 0.00129473 -3.89648e-24)
(9.73318e-05 0.00017011 -1.31833e-21)
(0.000734159 0.00125697 3.93454e-22)
(0.00103358 0.000449004 9.1349e-23)
(6.98214e-05 0.000553604 -4.5246e-21)
(0.000824597 0.000117776 -1.7659e-21)
(0.000652415 0.00128633 7.84078e-24)
(0.000728748 0.00132351 -6.35294e-22)
(0.00075197 0.00124372 0)
(1.01888e-05 6.72817e-05 0)
(0.00056976 0.000526661 0)
(0.00073485 0.00125726 0)
(0.000360929 -0.000133969 -9.42077e-22)
(0.000569682 0.000991528 9.83573e-22)
(0.000214258 0.00114852 1.86205e-23)
(9.96232e-05 0.000164889 8.61606e-22)
(0.0003423 -9.31553e-05 -8.55595e-22)
(0.000461764 0.000857373 7.95317e-22)
(0.000736851 0.00125246 3.14395e-22)
(0.000733895 0.0012559 -1.33514e-22)
(0.00060291 0.00106604 0)
(0.000897361 8.75608e-05 0)
(0.000467026 -2.27895e-05 -1.34385e-21)
(0.000670223 0.00121865 0)
(0.000572453 0.00103538 -1.14683e-21)
(0.000694822 0.000319765 2.11281e-21)
(0.000483482 0.000828251 -6.3361e-22)
(0.000596861 0.0010361 -6.4577e-22)
(0.000455344 0.000358032 0)
(0.000736543 0.00126795 -8.65614e-23)
(0.000831103 0.000308697 -1.62618e-21)
(0.000217086 0.000458842 9.78268e-22)
(0.000190619 0.000174914 -5.49419e-21)
(0.000595628 0.00100854 -5.47509e-22)
(1.47525e-05 5.0328e-05 7.31245e-26)
(0.000851771 0.000129904 3.07535e-21)
(0.000520088 0.000344746 0)
(0.000760058 0.00132623 9.73185e-22)
(2.39263e-05 6.90508e-05 -2.13924e-21)
(0.000366978 0.000974453 -2.39516e-23)
(0.000411901 3.28473e-05 1.46309e-21)
(0.000471424 0.000882857 -8.04247e-22)
(0.000411566 0.00108052 0)
(0.000523826 0.001194 1.72028e-22)
(0.000370746 0.000400769 0)
(0.000687228 0.00145996 0)
(0.000202246 0.000203805 -1.40047e-21)
(0.000145702 0.00111594 -1.19807e-21)
(8.45548e-06 4.84582e-05 1.94422e-22)
(0.000352653 -0.000179696 -9.56815e-22)
(0.000433064 0.000881367 -7.83875e-22)
(0.0005602 0.000976274 0)
(0.000675853 0.00123173 1.47214e-23)
(0.000584911 0.000576723 -8.72586e-22)
(0.00106235 0.000412969 8.49411e-23)
(0.000606689 0.0010233 -7.2916e-22)
(0.000168436 0.000313312 -2.65772e-21)
(0.000733151 0.00127319 -6.64761e-22)
(0.000828649 0.000273807 1.88441e-24)
(0.000747391 0.00131543 1.07559e-22)
(0.000189245 0.000209118 0)
(0.000596055 0.00100542 1.75538e-21)
(0.000684029 0.00120907 5.83974e-22)
(0.000674188 0.00119904 1.1299e-22)
(0.000547247 0.00100066 -9.57545e-22)
(0.000674696 0.00114251 2.51629e-22)
(0.000495729 2.94758e-05 -1.22966e-21)
(0.000371342 0.000507536 0)
(0.000614917 0.00102006 0)
(0.000187027 0.00087049 -2.19014e-21)
(0.000516142 0.000761813 -9.6395e-23)
(0.00100493 3.41977e-05 0)
(0.000595921 0.00100814 5.52862e-22)
(0.000177686 0.000378418 5.09413e-22)
(0.000354508 0.000181114 1.7667e-21)
(0.000673783 0.00117752 -6.28971e-22)
(0.000516785 0.000984623 -2.53141e-21)
(0.000576707 0.000974111 -9.9509e-22)
(0.000985163 3.64543e-05 5.28803e-23)
(0.000309612 0.000723542 -1.94689e-23)
(0.000579522 0.000979488 -5.86987e-24)
(0.000737197 0.00126232 2.73783e-22)
(0.000476054 7.67632e-05 -1.04788e-21)
(0.000567339 0.000831376 1.26313e-21)
(0.000709583 0.000246889 6.49488e-23)
(0.000956336 -0.000233126 1.31242e-21)
(1.40845e-05 5.26114e-05 1.07608e-25)
(0.000774269 -2.9505e-05 7.66589e-22)
(0.00060744 0.00108396 -1.13996e-21)
(0.000495037 0.000966258 -1.83606e-23)
(0.000695784 0.000853854 1.61823e-21)
(8.78388e-05 0.000855093 1.23485e-21)
(0.000596004 0.00103328 9.59699e-24)
(0.000535681 0.000564832 -1.01099e-21)
(0.000776815 0.0001721 9.80971e-22)
(0.000594649 0.00100381 0)
(0.000752917 0.00124328 8.91782e-22)
(0.000571747 0.00101323 -9.80875e-22)
(4.93114e-05 0.000301066 -1.7244e-21)
(0.000198356 0.000387173 -7.06549e-22)
(0.000564869 0.00101944 2.4199e-21)
(0.000576842 0.000993696 0)
(0.000340996 0.000108843 2.09923e-21)
(0.000572906 0.00101121 -1.98326e-21)
(0.00131824 0.000398786 6.39466e-23)
(0.000572819 0.00101187 -8.57955e-24)
(0.000573655 0.00102293 -1.18642e-21)
(0.000577025 0.00102762 -4.15434e-22)
(0.000703753 0.000300956 -1.2375e-21)
(0.000268058 0.00127498 0)
(0.000600569 0.00103224 -2.51487e-22)
(0.000573069 0.00101561 1.03178e-21)
(0.000576819 0.00104524 0)
(0.000573487 0.00102198 1.15271e-21)
(0.000572695 0.00101745 -4.32555e-24)
(0.000129748 0.000317535 -2.72372e-21)
(0.000573525 0.00101969 -1.10648e-21)
(0.000324514 9.87794e-05 -8.91381e-26)
(0.000479796 0.00087902 0)
(0.000233416 2.52581e-05 1.13975e-22)
(0.000470724 0.000874531 9.31167e-22)
(0.000739123 0.0012977 -3.70295e-22)
(0.000492519 0.000841446 2.77498e-22)
(0.000598465 0.00102953 -5.68191e-23)
(3.92676e-05 0.000235904 -3.19417e-26)
(0.000558218 0.0010162 0)
(0.000555579 0.000983866 9.72506e-22)
(0.000413773 0.000565205 -4.29271e-23)
(8.61373e-06 4.49462e-05 2.47023e-23)
(0.000548643 0.000582907 9.55193e-22)
(0.000471467 0.00078677 0)
(0.000217014 0.000464555 0)
(0.000571761 0.00098411 -4.66125e-22)
(0.00037931 0.000671978 1.09842e-21)
(0.00087335 7.60853e-05 9.12742e-22)
(0.000325751 6.7591e-05 0)
(0.000550796 0.00100014 -1.04984e-21)
(9.9576e-05 0.000111812 3.12604e-22)
(2.31959e-05 -1.22752e-06 0)
(0.000255724 0.00034567 3.01954e-21)
(0.000736336 0.0012612 -9.9124e-23)
(0.000473981 0.000945299 1.28333e-21)
(0.000559633 0.000981407 2.33499e-21)
(0.000739508 0.00127807 1.45774e-22)
(0.000594246 0.00101001 1.06379e-21)
(0.000695646 0.00118418 3.90607e-22)
(0.000488587 0.000935585 9.16691e-23)
(9.4261e-05 0.000103028 -4.28003e-22)
(0.000747666 0.00132609 1.06306e-22)
(1.38009e-05 0.000168334 3.39117e-22)
(1.501e-05 -7.81147e-06 -6.38068e-22)
(0.00059498 0.00100522 -5.93898e-22)
(0.000799959 0.000759014 0)
(0.00055992 0.000979233 -1.18823e-21)
(0.000265546 0.000502047 7.99729e-22)
(0.000732252 0.00125164 3.85432e-22)
(0.000753614 0.0012425 2.45542e-22)
(0.000458894 0.00092628 2.6208e-21)
(0.000721035 0.000224673 -2.21273e-22)
(0.000675814 0.00119715 0)
(2.62154e-06 8.45095e-07 0)
(0.000762564 0.000491996 0)
(0.000477498 0.000349721 4.49876e-22)
(4.59226e-05 0.00050244 3.3621e-22)
(0.000242003 0.00099495 0)
(0.000571755 0.00102268 1.18494e-21)
(0.000691291 0.000705795 2.17316e-22)
(0.00086349 0.000123232 0)
(0.00124834 0.000299546 0)
(0.000750118 0.00124501 0)
(0.000567291 0.0010223 5.62198e-24)
(0.000985706 0.000465789 0)
(0.000191196 0.000610775 0)
(6.865e-06 4.15192e-05 -4.79924e-23)
(4.19549e-06 2.43581e-05 -4.18154e-22)
(0.000610758 0.00105756 1.6718e-22)
(0.000538092 0.000457957 -6.79335e-22)
(0.000753644 0.00124213 -4.81211e-22)
(0.000619193 0.00106877 0)
(0.000381361 0.000842182 -1.97886e-22)
(0.000752905 0.00124339 8.67251e-22)
(0.00044782 0.00121982 0)
(0.000648509 0.00115736 -7.5843e-22)
(0.000571147 0.000968706 3.40129e-22)
(0.000650171 0.0011597 7.22866e-22)
(0.000573281 0.00100196 -7.74325e-22)
(0.000249667 0.000550371 0)
(0.000471172 0.000875658 2.24802e-22)
(0.00103427 8.99561e-05 1.03069e-22)
(0.00090123 0.000315295 -3.17886e-21)
(0.000552105 0.000974461 0)
(0.000592734 0.00102064 -1.72548e-23)
(0.000940122 6.07214e-05 2.80067e-22)
(3.71649e-06 1.88209e-05 -3.4395e-26)
(0.000472109 0.000789922 -1.23814e-21)
(0.000752345 0.00124125 0)
(0.000445465 0.000833488 6.83301e-23)
(0.000768932 0.00131724 -4.80862e-22)
(0.000369553 0.000725663 0)
(0.000753191 0.00124129 2.43504e-22)
(0.000600165 0.00145808 -2.99676e-23)
(0.000614444 9.28584e-05 -1.48963e-21)
(0.0008205 7.16067e-05 -5.96881e-22)
(0.000344571 0.000463538 -2.03906e-21)
(0.000485716 0.00115108 1.27092e-22)
(0.000749825 0.00123972 1.06669e-21)
(0.000755302 0.00130434 -4.01608e-22)
(0.00083168 0.000563929 3.77694e-21)
(8.6996e-05 9.46397e-05 1.0926e-22)
(0.000573702 0.00102256 0)
(3.95138e-06 2.15066e-05 4.16814e-22)
(0.000268379 0.000873103 -2.5529e-24)
(0.000464705 -6.29557e-05 -8.45492e-22)
(5.59984e-07 2.51686e-05 0)
(0.000342002 -0.00022611 9.3532e-22)
(0.000231701 0.00117255 0)
(0.000747441 0.00123967 1.26676e-21)
(0.000437047 0.000349046 -1.05573e-24)
(0.000699548 0.001184 4.59699e-22)
(0.000613986 0.00106914 3.40547e-22)
(0.000509842 0.000539297 1.47913e-24)
(0.000414711 0.000668069 -1.03799e-21)
(0.000744449 0.00131268 1.84926e-22)
(0.000751577 0.00124042 -1.02462e-21)
(0.000596372 0.00100645 5.68653e-22)
(0.000488427 0.000342468 -1.72319e-21)
(0.000869277 9.10975e-05 -8.3988e-26)
(0.000106576 0.000121894 -1.92057e-22)
(0.000479401 0.000477554 8.92495e-22)
(0.000583112 0.00102922 1.01266e-21)
(0.000730614 0.00131217 3.06896e-22)
(0.000593786 0.00100409 2.90449e-24)
(3.53026e-06 1.62291e-05 -4.18502e-22)
(0.000795927 0.000174073 0)
(0.000940928 0.000105381 -3.96072e-21)
(0.000597352 0.00102077 -1.74133e-22)
(0.00031485 0.000534675 2.79999e-21)
(0.000690372 0.00118665 -1.15626e-21)
(0.000571705 0.000998635 0)
(0.00114031 0.000197143 -3.14205e-21)
(0.000552578 0.000828816 -2.90683e-22)
(0.000744797 0.00124246 1.4074e-21)
(0.000377262 0.0007742 -2.69775e-22)
(0.000179299 0.000420154 9.79474e-22)
(0.00056282 0.000967725 0)
(0.000647705 0.00115462 -5.18736e-22)
(0.000158142 0.000295418 0)
(0.000365213 0.000568425 -9.15345e-22)
(3.3721e-06 1.37375e-05 4.05945e-22)
(0.000449137 0.000910154 -1.11015e-21)
(0.000318897 0.000528265 -1.41472e-21)
(0.000197271 0.000564122 1.83331e-24)
(0.000329024 0.000549128 7.75311e-22)
(0.000447061 0.000852975 2.2871e-22)
(0.000835615 0.000255242 -1.24701e-21)
(0.000387417 6.39691e-05 -2.31815e-21)
(0.00024942 1.15507e-05 -9.09295e-22)
(0.000572331 0.000349781 -2.91208e-22)
(0.000573365 0.00102297 2.34435e-21)
(0.000397067 0.000669892 0)
(0.000464455 -0.000346811 0)
(0.00046526 0.000775234 6.14534e-22)
(0.000186811 4.5093e-07 6.06123e-22)
(0.000204604 4.8653e-06 0)
(0.000573489 0.00102073 -1.13282e-21)
(0.000749475 0.0012392 -1.44656e-22)
(0.000368747 0.000331392 -1.22139e-21)
(0.00019382 0.000715757 0)
(-0.000294587 -1.67763e-05 0)
(0.000268457 0.000274436 2.51655e-21)
(0.000182774 0.000594848 -7.7942e-22)
(0.000159722 1.76566e-05 0)
(0.000387062 0.000684337 0)
(0.000750767 0.00123994 1.03829e-21)
(0.000956521 3.38542e-05 -3.13501e-22)
(0.000759611 8.92505e-05 1.90107e-21)
(-0.000163846 0.00117546 0)
(0.000239857 0.000459659 6.70346e-21)
(0.000458513 0.00104969 -6.60615e-23)
(0.00056527 0.000998928 -1.71399e-21)
(0.000682731 0.00118503 -2.81655e-21)
(0.000355624 0.000447974 1.06234e-25)
(0.000223544 0.000483534 -8.18418e-22)
(0.000648192 0.00115424 -9.68212e-22)
(0.000238259 6.48513e-05 3.96886e-22)
(0.0005469 0.000994425 1.1997e-22)
(0.000328263 0.000675348 1.86855e-23)
(0.000501421 0.0012659 -4.64013e-23)
(0.000576939 0.00102557 5.02822e-22)
(0.00100396 0.000204822 9.72769e-22)
(0.00030742 0.00053382 1.08377e-24)
(0.000540281 0.00130954 0)
(0.000973434 4.77755e-05 7.48996e-22)
(0.000700654 0.00118217 5.38744e-22)
(0.000175317 2.61056e-05 1.79974e-22)
(0.00034884 2.34642e-05 -9.26088e-22)
(0.000452611 0.000698624 4.01774e-22)
(8.58971e-05 4.01937e-05 -2.07558e-22)
(0.000571788 0.000561776 8.98305e-22)
(0.000354803 0.000537054 2.61226e-21)
(0.000592489 0.00106328 -5.27694e-24)
(0.000594818 0.00100437 -1.21977e-21)
(-0.000183462 0.000168699 -1.57824e-22)
(0.000746732 0.00123936 -1.28831e-21)
(0.0012129 0.000255637 -6.55406e-22)
(7.90979e-05 0.000141327 -5.8341e-22)
(0.000958553 -1.19764e-05 1.27903e-21)
(0.000595523 0.00103339 5.96084e-22)
(0.000451708 0.000786972 0)
(0.00106055 0.000203566 -1.15582e-21)
(0.000369388 0.000308279 -1.93223e-21)
(0.000437348 0.000796794 -1.56226e-22)
(0.000205445 0.00106276 0)
(0.000593129 9.64283e-05 1.26138e-21)
(0.00060772 0.00101864 4.05625e-22)
(0.000712886 0.000485814 3.77486e-21)
(0.000613201 0.0010596 4.39601e-22)
(-0.000367284 0.000165857 3.18588e-22)
(0.000572682 0.00101875 1.07506e-21)
(0.000548827 0.000983291 -1.03641e-21)
(0.000597448 0.00101436 0)
(0.000900392 2.33571e-05 0)
(0.000556362 0.000996222 -7.29721e-24)
(0.00022153 0.00035925 -8.89314e-22)
(0.000726107 0.000163286 -6.27275e-23)
(0.000426603 0.000511568 -1.67472e-21)
(0.000737239 0.00137551 1.49728e-23)
(0.00060016 0.00102847 0)
(0.000558803 0.000991784 9.23206e-22)
(9.42849e-05 0.000177761 -7.53204e-22)
(0.000373139 0.000740074 -5.99693e-23)
(0.000512373 0.000915837 5.62399e-22)
(0.000552327 0.000984748 9.46516e-24)
(0.000158524 0.00025932 -1.0767e-21)
(-8.2157e-06 0.000285402 1.32481e-21)
(2.10393e-05 -6.67894e-07 0)
(0.000810658 0.000572182 -1.44606e-24)
(0.000646851 0.00115532 7.13515e-24)
(6.57727e-07 1.06046e-05 -4.05316e-22)
(0.00159861 0.000361174 8.4227e-22)
(0.000628065 0.000107123 0)
(0.000613502 0.00106653 2.85786e-22)
(0.000596627 0.00102061 -5.19622e-22)
(0.00021645 4.76174e-05 -2.95023e-22)
(2.55399e-05 1.46335e-06 1.02675e-21)
(0.000242191 0.00108566 -1.26395e-23)
(0.000442726 0.000794409 1.23366e-21)
(0.000686357 0.00114833 2.97445e-22)
(0.000746381 0.00123826 1.18327e-21)
(0.000767692 0.00129915 1.3127e-21)
(0.000217733 -9.09565e-06 -8.42143e-22)
(0.000186176 0.000605292 -5.49181e-22)
(0.00116227 0.000146092 -4.90563e-22)
(0.000648646 0.00115502 -9.22805e-22)
(0.000468267 0.000927767 -2.6294e-21)
(0.000515323 0.000254361 -4.6135e-22)
(0.00049893 0.0010016 0)
(0.000498838 2.34132e-05 1.37607e-21)
(2.8859e-06 6.87278e-06 -3.6501e-22)
(0.000721962 0.00132689 3.29533e-22)
(0.00074895 0.0012392 -9.61176e-22)
(0.000572856 0.00102157 -1.14215e-21)
(0.000911896 0.000283566 0)
(0.00021705 0.000551013 -6.18587e-22)
(2.49036e-05 1.07269e-06 1.42792e-23)
(0.000597444 0.00105652 -2.65199e-22)
(0.000404555 0.0016495 -2.67672e-23)
(0.000305304 0.00134606 0)
(0.000331444 0.00048446 -3.85333e-25)
(0.000394594 0.00120864 -6.12454e-23)
(0.000850582 0.000340108 2.95542e-22)
(0.000511258 0.000568414 3.28452e-25)
(8.89494e-06 9.41013e-05 -5.1016e-23)
(6.33883e-05 4.21078e-05 0)
(0.000699986 0.00118357 1.00735e-21)
(5.76078e-06 3.73431e-05 -1.5905e-24)
(0.00179816 0.000610061 -1.87855e-21)
(9.32505e-05 0.00070267 0)
(0.000151955 0.000265575 -1.85831e-21)
(0.000456953 0.000809825 -3.84544e-21)
(0.000647411 0.00115345 0)
(5.32866e-05 4.36883e-05 1.49705e-21)
(0.000618252 0.00104244 0)
(0.000228532 0.000260537 -1.25409e-21)
(0.000954646 0.000190427 -9.44686e-22)
(0.000318913 -6.28151e-05 -1.51644e-21)
(0.000684409 0.00120624 -9.46925e-22)
(0.00110616 0.000180697 0)
(0.000470683 0.00026966 0)
(9.97086e-05 0.000895088 -8.45467e-22)
(0.000671189 -0.000213015 -3.05074e-21)
(0.000653734 0.00123577 3.20769e-22)
(0.000611842 0.0010685 -8.68335e-24)
(0.000576675 0.00103659 0)
(0.000775448 0.00048155 0)
(0.00116609 0.000132682 1.09232e-21)
(0.000635315 0.000286461 -1.34517e-22)
(0.000579234 0.000982978 2.75322e-22)
(0.000749652 0.00124377 0)
(0.000327741 0.000290521 0)
(0.00041769 0.000998761 -1.67232e-21)
(8.01697e-05 3.57472e-05 -7.52789e-22)
(0.000519787 0.000416622 -1.03189e-21)
(0.000667433 0.00120433 -9.62475e-23)
(0.000456074 0.00134903 -1.2798e-22)
(0.000512602 0.00145976 -1.80727e-23)
(0.000552052 0.00041935 7.37903e-22)
(0.00053038 0.00140924 -6.46467e-24)
(0.000432507 0.000465676 -1.37725e-21)
(0.000341011 0.000504654 2.16288e-21)
(1.52188e-05 -4.15139e-06 0)
(0.000918426 0.000714726 -9.40951e-22)
(0.000382736 0.000673271 -3.0375e-22)
(0.000611008 0.00107964 2.62881e-22)
(0.000146212 -2.25524e-05 0)
(8.13702e-06 8.21506e-05 0)
(0.00011254 0.000450666 1.73053e-21)
(0.000572461 0.0010331 4.03598e-22)
(0.000529297 0.0010254 0)
(6.4566e-05 2.77758e-05 -1.31483e-21)
(0.000165733 0.000628253 -5.10605e-22)
(0.00059502 0.00100394 6.47508e-22)
(0.00128361 0.000231656 -1.06984e-21)
(0.000384884 0.000377836 0)
(0.000847912 0.000163022 -2.23312e-21)
(0.000192569 0.000231788 -1.35494e-21)
(0.000939474 0.000647304 1.36323e-21)
(0.000757115 0.000456829 -1.87686e-22)
(0.000469157 0.000781074 -6.94911e-24)
(0.000423455 0.00103855 1.65887e-21)
(0.000194847 0.000853434 -2.75871e-23)
(0.000587179 0.00100708 -9.03499e-24)
(0.000545857 0.00100006 -1.7655e-23)
(0.000276043 0.00132434 -1.32388e-22)
(9.27809e-05 4.45555e-05 9.73013e-22)
(0.000555903 0.00102916 -3.73747e-22)
(0.00024319 0.000336195 -1.56639e-21)
(0.000944254 3.3223e-05 -6.082e-22)
(0.000238582 0.00118455 -1.56647e-23)
(0.000213671 0.000917847 -2.60777e-24)
(0.000460181 0.000327534 -9.84378e-22)
(1.73371e-05 2.23045e-06 -2.15492e-22)
(0.000574061 0.000971023 -6.58626e-22)
(0.000149389 -1.03397e-05 -7.94057e-22)
(0.000613302 0.00106357 1.13947e-22)
(-0.000340477 0.00118228 -1.13993e-21)
(0.000572453 0.000980771 4.7125e-22)
(0.000613114 0.00105889 3.12844e-22)
(0.000612192 0.00106548 -1.14446e-22)
(0.000228021 0.000118976 -1.47264e-21)
(0.00039548 0.000696328 5.45572e-22)
(0.000345662 0.00062439 0)
(0.000252362 3.2206e-05 5.53638e-22)
(0.000947069 3.59462e-05 0)
(0.00064645 0.00115275 -6.55873e-22)
(0.000467765 0.000779089 5.89043e-22)
(0.000756732 0.00059534 1.09575e-21)
(0.000440254 0.000796556 -1.05228e-21)
(0.000215018 0.000634612 1.36753e-21)
(0.0011845 6.35385e-05 0)
(0.000302491 0.000197309 0)
(0.00107126 0.00048846 -7.55276e-23)
(0.000398984 0.000890614 1.57207e-21)
(0.000478006 0.000790289 -3.61755e-21)
(0.000632268 0.00105216 -3.24352e-22)
(0.000746467 0.00123858 -1.16092e-21)
(0.000771844 0.000486974 9.96304e-22)
(0.000490379 0.000979043 0)
(0.000679475 0.00113808 0)
(0.000326329 0.000272961 -1.02928e-21)
(0.000225362 0.000703994 -8.1672e-22)
(0.000807911 0.000344136 1.93258e-21)
(1.46181e-05 -6.56898e-06 2.54625e-22)
(7.03945e-05 3.32414e-05 7.25684e-22)
(0.000554912 0.000973265 -9.09508e-24)
(0.000133521 -2.35142e-05 4.59058e-22)
(0.000404686 0.000338119 9.35003e-22)
(-0.000140758 0.000163218 0)
(1.61055e-05 0.000288449 1.13125e-22)
(5.91116e-05 4.34879e-05 0)
(0.000677333 0.00113455 0)
(0.000630013 0.000489664 3.76956e-22)
(0.000572477 0.000980151 -4.53835e-22)
(0.000198202 0.000173777 -3.13682e-21)
(0.000677145 0.00113353 1.12154e-21)
(0.000678652 0.00125349 -6.66506e-23)
(0.000624579 0.00100845 6.93369e-22)
(0.00067705 0.000366973 0)
(0.000655009 0.00123673 1.27636e-22)
(0.000562882 0.000972056 0)
(0.000724655 0.00132503 -4.0324e-22)
(0.00057241 0.00101944 2.20943e-21)
(9.90758e-05 0.000262574 1.35693e-24)
(0.000701398 0.00126421 1.26818e-21)
(0.000946139 0.000112714 0)
(3.84e-05 0.000389179 -4.14647e-22)
(0.000503644 0.00056361 5.19731e-22)
(0.000558015 0.000973363 1.17836e-21)
(0.00033503 0.000934614 -6.14514e-21)
(-0.000503379 0.000832345 2.1505e-22)
(3.81646e-05 6.02432e-05 -1.54515e-21)
(0.000606569 0.00105637 -1.80162e-22)
(0.00047034 0.000920462 3.41327e-21)
(0.000669775 0.00120165 -2.86808e-22)
(0.000704496 0.0012693 -1.25809e-21)
(0.000559145 0.000990387 9.06148e-22)
(0.000960586 8.30506e-05 -7.76979e-22)
(0.000612907 0.0010623 1.24035e-22)
(0.000210372 0.000139051 2.40985e-21)
(0.00066049 0.00117315 4.45097e-22)
(0.000458304 0.000763876 1.49475e-21)
(0.000163303 0.000578247 1.0694e-21)
(0.000699961 0.00126225 1.23848e-21)
(0.000578732 0.000969411 -3.7571e-23)
(0.000570412 0.00102617 8.14997e-23)
(0.000961182 8.44834e-05 0)
(4.01977e-05 0.000555443 -3.90585e-22)
(0.000396696 0.000828909 1.302e-21)
(0.000615897 0.00101893 6.30534e-24)
(0.000612075 0.000355346 -4.29075e-21)
(0.00113472 8.65142e-05 0)
(0.000643975 0.00122094 -3.34973e-22)
(0.000176102 -0.000123173 1.19504e-21)
(0.00094491 7.75481e-05 0)
(0.000686276 0.0011973 -4.81916e-22)
(0.00100506 -0.000145565 -2.14496e-21)
(9.97371e-05 4.96251e-05 -3.83587e-22)
(0.00109474 0.000344477 1.73572e-25)
(4.13242e-05 0.000428563 1.33344e-22)
(0.000700068 0.00126069 0)
(0.000968468 0.000332582 7.4459e-22)
(0.000695043 0.00024297 0)
(0.000326113 0.000464553 0)
(0.000429605 0.00034853 0)
(9.28597e-05 -3.85672e-05 -1.8e-21)
(0.000644687 0.00115245 -7.07087e-22)
(0.00128886 0.000546892 -3.43751e-21)
(0.000773359 0.00132191 3.67802e-22)
(0.000302234 0.000162318 -4.3049e-22)
(0.00048736 0.000989056 -1.16438e-21)
(0.000117641 -4.18409e-05 0)
(0.00105083 0.000184742 5.74498e-22)
(0.000828549 0.000539798 2.69566e-22)
(3.318e-05 5.08862e-05 8.59588e-22)
(0.000692638 0.0011734 2.7371e-22)
(0.000217187 0.00113113 0)
(0.000364426 0.00140115 5.25003e-23)
(0.000727972 0.00134581 -1.15017e-21)
(0.00070012 0.00125933 1.20278e-21)
(0.000619844 0.00105171 0)
(0.000378233 0.000667016 9.34817e-22)
(1.98565e-05 0.000315478 5.07121e-22)
(0.00017628 -0.000103661 1.50844e-21)
(0.000556383 0.000994405 -1.1091e-21)
(0.000833958 0.00109563 7.92198e-22)
(0.000635682 0.000711543 -2.67377e-22)
(0.000699481 0.00118242 6.61863e-22)
(0.000733357 0.00131901 -1.1894e-21)
(9.71762e-05 -4.65292e-05 1.78187e-21)
(0.000646824 0.00115063 -3.18514e-24)
(0.00043298 0.000794782 0)
(0.000653936 0.000386919 5.08462e-22)
(5.68703e-05 4.97417e-05 0)
(0.00103576 1.70122e-06 6.96858e-22)
(0.000400383 0.000661886 1.0695e-21)
(0.000226262 0.000423524 9.8502e-23)
(0.000563267 9.93629e-05 -2.00358e-23)
(0.000366701 0.000511897 -3.11115e-21)
(0.00133889 0.000279559 2.23149e-22)
(0.000975475 0.000196887 -8.75474e-23)
(0.000515682 0.000550946 2.70423e-21)
(0.000498973 0.00105879 0)
(0.000376067 0.000620299 -4.10317e-22)
(0.000352043 0.000893198 0)
(0.000341504 0.00115028 9.51807e-22)
(0.000784879 0.00129993 8.22031e-22)
(0.000784395 0.000600153 1.08883e-21)
(0.000464681 0.00124269 -5.75992e-23)
(0.000419785 0.000324066 0)
(0.000201818 0.000198087 0)
(0.000147254 -9.84415e-05 -1.47394e-22)
(0.000178055 0.000364675 5.5577e-22)
(0.000264038 0.000614679 -2.99148e-22)
(0.000166416 0.000614947 0)
(0.000702767 0.00128138 -9.9831e-24)
(0.000554865 0.000981968 0)
(0.000549647 0.00100061 -8.98807e-22)
(0.00045107 0.000812188 4.86758e-22)
(0.000211058 0.00056708 -7.28524e-22)
(0.000644631 0.0011496 -8.18787e-22)
(0.000415738 0.000831144 1.28271e-21)
(0.000934201 8.36211e-05 9.90106e-22)
(0.000193557 4.3523e-05 1.66273e-22)
(2.15769e-05 2.12252e-06 -3.85766e-22)
(0.000124027 -0.000188021 0)
(0.000316105 0.000545394 9.28478e-22)
(7.82139e-05 0.000586428 1.52893e-21)
(0.000471665 0.000110429 2.099e-21)
(0.000435019 0.000301184 0)
(0.00017004 0.000322617 2.50062e-21)
(0.000677937 0.00113207 -1.40381e-22)
(0.000462222 0.000770005 2.05714e-21)
(0.000705681 0.00130421 5.59783e-24)
(0.000333885 0.000201058 0)
(0.000218616 1.44208e-05 2.07948e-22)
(0.00057091 0.000378336 0)
(0.000611805 0.00107302 -1.91128e-22)
(0.000194543 4.64424e-05 0)
(0.000431026 0.000531167 1.75381e-22)
(0.00101902 0.000377411 8.56481e-23)
(0.000577891 0.000985937 -5.43129e-22)
(0.000689959 0.00120247 7.78076e-23)
(0.000370064 0.000567957 -1.07011e-21)
(0.000474973 0.000933334 8.85133e-22)
(0.000377011 0.00068046 -7.46394e-22)
(0.000221639 0.000557191 -1.05463e-21)
(0.000172404 3.89415e-06 0)
(0.000105144 0.00065355 1.41639e-21)
(0.000527937 0.000999156 0)
(0.000854799 0.000278449 1.58202e-21)
(0.000329161 0.000478697 1.25945e-21)
(0.000745784 0.00123929 -1.22621e-21)
(2.26744e-05 3.15255e-05 1.07714e-22)
(0.000471835 0.000878213 -2.19888e-22)
(0.000129788 -3.98858e-05 -8.7866e-23)
(0.000424192 0.000783431 -1.3585e-22)
(0.0007686 0.000575957 0)
(0.000969618 -5.42621e-05 -9.34418e-23)
(0.000691376 0.00119593 -2.47455e-22)
(0.000837326 -0.000359245 9.26354e-24)
(0.000769813 8.40561e-05 1.99566e-21)
(0.00119675 0.000625888 -2.00706e-21)
(0.000551868 0.000989036 0)
(0.000384444 0.000689428 -1.00896e-21)
(0.000745058 0.00124051 -1.40399e-21)
(0.000455825 0.000762699 7.12363e-24)
(0.000493259 0.000682241 1.14355e-21)
(6.00661e-05 0.000567127 4.68597e-21)
(0.000955847 0.000276218 3.26255e-22)
(0.00019131 0.00024426 0)
(0.000634248 0.00106207 -1.18111e-21)
(0.000311396 0.000144799 0)
(0.000205541 0.000475213 5.49756e-22)
(0.0006735 0.00113642 2.54029e-22)
(0.00101091 6.45907e-05 -4.31994e-22)
(0.000426179 0.000924151 2.07884e-21)
(0.000624552 0.00106998 2.23215e-22)
(0.000393702 -7.36708e-05 -7.49687e-22)
(0.000168648 9.46777e-05 4.64455e-22)
(1.58612e-05 0.000232235 -1.30602e-21)
(4.06166e-05 0.00103316 1.29268e-21)
(0.000148854 1.05486e-06 -7.43144e-22)
(0.000460905 0.000766861 -7.21621e-22)
(0.000144437 7.70209e-05 -4.31559e-22)
(0.000621634 0.00110069 -6.08033e-23)
(0.000292321 0.000354083 -5.95997e-22)
(0.000500198 0.00118897 0)
(0.000236941 -5.85785e-05 -1.78223e-21)
(0.000899725 -9.94863e-06 4.52439e-22)
(0.000572375 0.00101681 2.11595e-21)
(0.000170883 5.67146e-05 -2.15593e-21)
(0.000700027 0.0012669 -1.25819e-21)
(0.00107516 8.55404e-06 -8.98199e-22)
(0.000280507 0.000162772 2.15174e-22)
(0.000506774 9.51422e-05 0)
(0.0006174 0.00105092 1.05993e-21)
(0.000496421 0.000873011 3.03885e-22)
(0.000164235 0.000643435 3.80656e-22)
(0.000813016 0.000541992 0)
(0.000729932 0.000588607 2.71351e-21)
(9.92632e-05 -1.20634e-05 -8.15521e-22)
(0.00138211 0.000343147 -2.56889e-22)
(0.000595864 -3.40171e-06 -1.43476e-21)
(0.00119675 0.000247655 5.10924e-22)
(0.000669276 0.00120009 0)
(0.000274978 0.000557842 0)
(0.000641264 0.00112633 9.02401e-23)
(0.00064737 0.00115499 5.56232e-22)
(0.000626406 0.00120905 -2.30262e-22)
(0.000892525 0.00134561 1.11522e-21)
(0.000497508 0.00125699 1.16672e-21)
(0.000638992 0.000337471 6.61367e-22)
(0.00054083 0.00106234 0)
(0.000579624 0.00109963 -2.70613e-23)
(0.000435397 2.63647e-05 5.15389e-22)
(0.000760633 0.000525106 -1.90764e-22)
(0.000180316 6.77663e-05 9.63431e-26)
(0.000237368 -0.000189713 1.57788e-21)
(0.000232726 0.000621337 5.44684e-22)
(0.000175924 0.000425421 9.34127e-22)
(0.000288175 0.000463993 2.26721e-21)
(0.000340211 0.000555141 -1.44048e-21)
(0.000311393 0.000569393 -4.98476e-22)
(0.000185902 0.000648452 -9.03311e-22)
(9.98163e-05 -1.77304e-05 2.0097e-25)
(5.31049e-05 0.000640436 -2.52257e-21)
(0.000419056 0.00118551 0)
(0.000637067 0.0011353 0)
(0.000703168 0.000551496 0)
(0.000569866 0.000465796 1.92752e-21)
(0.000682774 0.00119249 4.27183e-22)
(0.000805524 0.000534947 2.95745e-21)
(0.00104611 0.000336625 0)
(0.000300373 0.000336501 2.99654e-22)
(0.000171007 0.0006152 6.87423e-22)
(0.000571938 0.000978929 8.86887e-22)
(4.49443e-05 3.48028e-05 0)
(0.000905274 2.77849e-05 -1.36774e-21)
(0.000138848 0.000402914 7.70619e-22)
(0.000793572 0.000542413 -3.72895e-22)
(0.000326338 0.000534452 3.42144e-22)
(0.000350039 0.000366523 1.50671e-21)
(0.000599311 0.00110493 0)
(6.31451e-05 2.8601e-05 2.03495e-22)
(0.000144515 -8.11795e-05 -1.83594e-22)
(0.000710807 0.00133325 3.31665e-22)
(0.00064465 0.00111775 -5.55521e-22)
(0.000577741 0.000987041 4.04927e-22)
(0.000633924 0.00112271 4.34831e-22)
(0.000972395 2.16309e-06 -2.65404e-22)
(0.000218463 0.000621374 0)
(0.000387074 7.28324e-05 -1.71062e-21)
(0.000746977 0.0012502 0)
(0.000987334 0.000115491 0)
(0.00065443 0.00117106 -1.66691e-22)
(0.000358331 0.000863527 -1.29949e-21)
(0.000727408 0.00134523 -6.64939e-23)
(6.78379e-07 8.52464e-06 -4.04204e-22)
(0.000319578 0.000476409 -1.59532e-21)
(0.000100337 -1.91812e-06 -2.17864e-21)
(0.000639686 0.00113305 1.64475e-22)
(0.000176382 0.000480481 -5.72257e-22)
(0.000170394 0.000524745 7.89497e-22)
(0.00073188 3.178e-05 1.43224e-21)
(0.000510326 0.00105883 0)
(0.00100857 0.000313274 5.05144e-22)
(0.000711476 0.000997436 9.89247e-23)
(0.000310304 0.000501327 1.09298e-21)
(0.000115973 -4.97336e-05 -2.52284e-23)
(0.000513139 4.63245e-05 1.44962e-24)
(0.000335247 0.000380254 -2.89997e-21)
(0.000316516 0.000453825 1.29821e-21)
(9.81823e-05 7.18531e-06 -9.99953e-22)
(0.000246067 0.000382782 -2.76639e-21)
(0.000757274 0.0012913 -1.65974e-21)
(0.000645295 0.00115196 1.39424e-21)
(0.000341984 0.000527113 -1.04311e-21)
(0.000647545 0.00115471 -5.59497e-22)
(0.000706321 0.000209776 -6.22654e-22)
(0.00027584 -0.000157416 -2.70148e-21)
(0.000326067 0.000520595 -1.98665e-21)
(0.000674611 0.00113288 1.06318e-21)
(0.00122873 0.00018793 -9.81242e-23)
(0.000698973 0.00118374 4.35157e-22)
(0.00017743 0.000136302 -1.02181e-21)
(0.000563287 0.000957513 6.01463e-22)
(0.000635746 0.00112159 -1.37681e-22)
(0.000566891 0.00107475 -1.50087e-23)