# Residuals   
# Time        	p             	Ux            	Uy            
77.5          	N/A	N/A
77.5079       	1.465793e-01	1.235758e-03	1.329715e-03
77.5159       	1.066669e-01	1.978587e-03	4.713224e-03
77.5238       	3.050580e-02	1.295640e-03	2.593254e-03
77.5319       	3.124564e-02	1.286197e-03	4.697423e-03
77.54         	3.084868e-02	1.291222e-03	4.583858e-03
77.548        	3.284028e-02	1.276050e-03	5.304551e-03
77.5561       	3.609987e-02	1.279063e-03	6.097513e-03
77.5642       	3.578077e-02	1.273828e-03	5.912652e-03
77.5722       	3.802110e-02	1.281127e-03	6.962351e-03
77.5803       	3.797599e-02	1.283938e-03	6.261320e-03
77.5884       	3.855862e-02	1.298810e-03	7.068580e-03
77.5964       	3.878725e-02	1.299439e-03	6.354271e-03
77.6045       	3.793304e-02	1.310097e-03	7.074886e-03
77.6126       	3.893810e-02	1.308612e-03	6.336016e-03
77.6207       	3.786169e-02	1.322925e-03	7.048602e-03
77.6289       	3.891315e-02	1.338256e-03	6.280818e-03
77.6372       	3.760125e-02	1.345853e-03	7.014481e-03
77.6454       	3.634562e-02	1.323299e-03	6.126354e-03
77.6536       	3.553706e-02	1.325131e-03	6.528777e-03
77.6619       	3.614233e-02	1.315019e-03	5.873460e-03
77.6701       	3.453134e-02	1.331894e-03	6.452859e-03
77.6784       	3.466696e-02	1.308085e-03	5.643914e-03
77.6866       	3.509194e-02	1.314322e-03	6.207144e-03
77.6949       	3.577299e-02	1.294263e-03	5.442608e-03
77.7034       	3.421135e-02	1.338701e-03	5.991271e-03
77.7118       	3.264523e-02	1.329268e-03	5.437730e-03
77.7203       	3.160568e-02	1.338982e-03	5.766964e-03
77.7288       	2.994707e-02	1.320473e-03	5.135892e-03
77.7373       	2.942647e-02	1.318182e-03	5.366977e-03
77.7457       	2.928961e-02	1.294764e-03	4.833658e-03
77.7542       	2.817758e-02	1.315446e-03	5.217754e-03
77.7627       	2.762134e-02	1.295997e-03	4.638499e-03
77.7712       	2.727421e-02	1.299670e-03	5.023023e-03
77.7796       	2.691792e-02	1.277419e-03	4.513832e-03
77.7881       	2.646257e-02	1.289266e-03	4.896448e-03
77.7966       	2.673732e-02	1.261687e-03	4.440549e-03
77.8051       	2.637067e-02	1.277448e-03	4.826952e-03
77.8135       	2.630094e-02	1.251088e-03	4.375961e-03
77.822        	2.653615e-02	1.264337e-03	4.762371e-03
77.8305       	2.518862e-02	1.247595e-03	4.331265e-03
77.8386       	3.192493e-02	1.220332e-03	4.744873e-03
77.8466       	2.796179e-02	1.217675e-03	4.215179e-03
77.8547       	2.703955e-02	1.226532e-03	5.031200e-03
77.8628       	2.949587e-02	1.214874e-03	4.745151e-03
77.8708       	2.972350e-02	1.245276e-03	5.832850e-03
77.8789       	3.220930e-02	1.221060e-03	5.144770e-03
77.887        	3.117101e-02	1.252161e-03	6.078395e-03
77.8951       	3.175120e-02	1.236927e-03	5.308275e-03
77.9031       	3.033684e-02	1.265163e-03	5.941032e-03
77.9112       	2.958006e-02	1.247988e-03	5.315205e-03
77.9193       	3.001197e-02	1.268326e-03	6.021308e-03
77.9274       	3.027504e-02	1.255232e-03	5.286819e-03
77.9354       	3.061886e-02	1.273373e-03	6.003680e-03
77.9435       	3.025870e-02	1.260079e-03	5.245899e-03
77.9516       	2.981722e-02	1.280568e-03	6.027688e-03
77.9596       	2.894969e-02	1.263865e-03	5.260750e-03
77.9677       	2.948576e-02	1.273553e-03	6.072398e-03
77.9758       	2.942108e-02	1.261606e-03	5.289669e-03
77.9839       	2.923927e-02	1.274083e-03	5.974134e-03
77.9919       	2.951647e-02	1.248185e-03	5.237818e-03
78            	3.033061e-02	1.269844e-03	5.820681e-03
78.0085       	3.610080e-02	1.308773e-03	5.209301e-03
78.0169       	3.518713e-02	1.363582e-03	5.767292e-03
78.0254       	3.269428e-02	1.301343e-03	5.042891e-03
78.0339       	3.080855e-02	1.317120e-03	5.023424e-03
78.0424       	3.017202e-02	1.272464e-03	4.743789e-03
78.0508       	2.938427e-02	1.298566e-03	4.996045e-03
78.0593       	2.765472e-02	1.267939e-03	4.649359e-03
78.0678       	2.795274e-02	1.297215e-03	5.048433e-03
78.0763       	2.812657e-02	1.276619e-03	4.698741e-03
78.0847       	2.695669e-02	1.307650e-03	5.197743e-03
78.0932       	2.711893e-02	1.274092e-03	4.893320e-03
78.1017       	2.876480e-02	1.294114e-03	5.462937e-03
78.1102       	3.065956e-02	1.312941e-03	5.102458e-03
78.1186       	2.950269e-02	1.327818e-03	5.748362e-03
78.1271       	2.640176e-02	1.287909e-03	5.220836e-03
78.1356       	2.680959e-02	1.312232e-03	5.788442e-03
78.1441       	2.741159e-02	1.288976e-03	5.252152e-03
78.1525       	2.761719e-02	1.304319e-03	5.788295e-03
78.1612       	2.831327e-02	1.311477e-03	5.263646e-03
78.1699       	2.873935e-02	1.328895e-03	5.814427e-03
78.1786       	2.724677e-02	1.334706e-03	5.184775e-03
78.1873       	2.532970e-02	1.344267e-03	5.400394e-03
78.196        	2.558731e-02	1.317346e-03	4.991045e-03
78.2047       	2.779452e-02	1.350550e-03	5.376080e-03
78.2133       	2.567035e-02	1.331255e-03	4.879066e-03
78.222        	2.460119e-02	1.337964e-03	5.302122e-03
78.2307       	2.573482e-02	1.334506e-03	4.821055e-03
78.2394       	2.411807e-02	1.338320e-03	5.226242e-03
78.2481       	2.406869e-02	1.313539e-03	4.774580e-03
78.2568       	2.513862e-02	1.315503e-03	5.179176e-03
78.2655       	2.434594e-02	1.306328e-03	4.734982e-03
78.2742       	2.552743e-02	1.322468e-03	5.138135e-03
78.2828       	2.718984e-02	1.327174e-03	4.731754e-03
78.2915       	2.459184e-02	1.345976e-03	5.146713e-03
78.3002       	2.387942e-02	1.317501e-03	4.723061e-03
78.3089       	2.310460e-02	1.322282e-03	5.124652e-03
78.3176       	2.259729e-02	1.305893e-03	4.697682e-03
78.3263       	2.259347e-02	1.316257e-03	5.103833e-03
78.335        	2.346712e-02	1.302804e-03	4.699903e-03
78.3436       	2.456174e-02	1.322431e-03	5.122041e-03
78.3523       	2.680619e-02	1.313441e-03	4.719023e-03
78.361        	2.542960e-02	1.330978e-03	5.125472e-03
78.3697       	2.425312e-02	1.310207e-03	4.702675e-03
78.3784       	2.499363e-02	1.321574e-03	5.106639e-03
78.3871       	2.626235e-02	1.319822e-03	4.693023e-03
78.3958       	2.556379e-02	1.318492e-03	5.106856e-03
78.4044       	2.462333e-02	1.302322e-03	4.694374e-03
78.4131       	2.476564e-02	1.316558e-03	5.106243e-03
78.4218       	2.291399e-02	1.306630e-03	4.694788e-03
78.4305       	2.815121e-02	1.331018e-03	5.115103e-03
78.4392       	2.766880e-02	1.279056e-03	4.716696e-03
78.4479       	2.479507e-02	1.290796e-03	5.119968e-03
78.4566       	2.418359e-02	1.276518e-03	4.701397e-03
78.4653       	2.307646e-02	1.281850e-03	5.108348e-03
78.4739       	2.530353e-02	1.264019e-03	4.707199e-03
78.4826       	2.444194e-02	1.292398e-03	5.121015e-03
78.4913       	2.406795e-02	1.275651e-03	4.696653e-03
78.5          	2.787745e-02	1.287635e-03	5.132263e-03
78.5091       	3.156474e-02	1.349520e-03	4.739570e-03
78.5182       	3.024323e-02	1.404924e-03	5.175341e-03
78.5273       	2.883495e-02	1.310031e-03	4.657045e-03
78.5364       	2.454518e-02	1.314299e-03	4.509887e-03
78.5455       	2.274272e-02	1.299955e-03	4.298522e-03
78.5545       	2.261833e-02	1.309580e-03	4.411843e-03
78.5636       	2.261621e-02	1.305293e-03	4.060657e-03
78.5727       	2.472283e-02	1.315062e-03	4.261190e-03
78.582        	2.550225e-02	1.289936e-03	3.941216e-03
78.5913       	2.236524e-02	1.279685e-03	4.167947e-03
78.6006       	2.068774e-02	1.260384e-03	3.835563e-03
78.6099       	2.090575e-02	1.267803e-03	3.798661e-03
78.6192       	2.181170e-02	1.253239e-03	3.602536e-03
78.6285       	2.039500e-02	1.231939e-03	3.646185e-03
78.6377       	2.429830e-02	1.234648e-03	3.442370e-03
78.647        	2.127402e-02	1.251229e-03	3.564100e-03
78.6563       	2.309443e-02	1.235798e-03	3.357713e-03
78.6656       	2.299969e-02	1.241855e-03	3.531039e-03
78.6749       	2.182690e-02	1.248947e-03	3.314436e-03
78.6842       	2.079645e-02	1.261919e-03	3.487520e-03
78.6935       	2.105038e-02	1.265086e-03	3.281663e-03
78.7028       	2.095501e-02	1.279275e-03	3.442050e-03
78.7121       	2.206592e-02	1.288950e-03	3.263530e-03
78.7213       	2.000380e-02	1.302187e-03	3.415906e-03
78.7306       	2.000059e-02	1.292570e-03	3.226781e-03
78.7399       	1.788320e-02	1.284487e-03	3.381147e-03
78.7492       	1.956581e-02	1.262432e-03	3.217079e-03
78.7585       	2.333490e-02	1.272803e-03	3.389896e-03
78.7678       	2.268757e-02	1.280298e-03	3.229744e-03
78.7771       	2.164323e-02	1.290904e-03	3.365692e-03
78.7864       	2.028138e-02	1.280575e-03	3.188059e-03
78.7957       	1.992864e-02	1.280168e-03	3.319431e-03
78.8049       	2.121196e-02	1.268904e-03	3.144655e-03
78.8142       	2.306137e-02	1.264169e-03	3.297974e-03
78.8235       	2.086875e-02	1.279649e-03	3.147345e-03
78.8328       	1.818309e-02	1.291116e-03	3.282961e-03
78.8421       	1.804871e-02	1.294279e-03	3.119641e-03
78.8514       	1.941642e-02	1.296152e-03	3.262431e-03
78.8607       	1.922131e-02	1.299218e-03	3.117333e-03
78.87         	2.312926e-02	1.297212e-03	3.266942e-03
78.8792       	2.373986e-02	1.306015e-03	3.124330e-03
78.8885       	1.987650e-02	1.309422e-03	3.252726e-03
78.8978       	1.910894e-02	1.307599e-03	3.105458e-03
78.9071       	2.024268e-02	1.302834e-03	3.240401e-03
78.9164       	1.836109e-02	1.304875e-03	3.091832e-03
78.9257       	1.911554e-02	1.305692e-03	3.222592e-03
78.935        	2.046318e-02	1.294994e-03	3.082481e-03
78.9443       	2.075351e-02	1.305267e-03	3.222691e-03
78.9536       	1.893787e-02	1.308259e-03	3.087487e-03
78.9628       	1.914606e-02	1.308253e-03	3.219934e-03
78.9721       	2.067988e-02	1.306932e-03	3.083508e-03
78.9814       	2.070154e-02	1.312024e-03	3.218506e-03
78.9907       	2.230231e-02	1.305271e-03	3.085474e-03
79            	2.203043e-02	1.310755e-03	3.218199e-03
79.0098       	2.629699e-02	1.384860e-03	3.116901e-03
79.0196       	2.347306e-02	1.392630e-03	3.236712e-03
79.0294       	2.059734e-02	1.401749e-03	3.229569e-03
79.0392       	1.897697e-02	1.414024e-03	2.770463e-03
79.049        	2.022432e-02	1.408213e-03	2.776404e-03
79.0588       	1.884363e-02	1.416660e-03	2.643537e-03
79.0686       	2.099864e-02	1.410880e-03	2.583418e-03
79.0784       	2.070554e-02	1.411111e-03	2.658667e-03
79.0882       	1.800373e-02	1.384756e-03	2.478832e-03
79.098        	2.086752e-02	1.412083e-03	2.500607e-03
79.1078       	2.027404e-02	1.413195e-03	2.418439e-03
79.1176       	2.033442e-02	1.430368e-03	2.436566e-03
79.1275       	1.893289e-02	1.423207e-03	2.345769e-03
79.1373       	1.860987e-02	1.426358e-03	2.355557e-03
79.1471       	1.775921e-02	1.409401e-03	2.291264e-03
79.1569       	1.926816e-02	1.419765e-03	2.298540e-03
79.1667       	2.204088e-02	1.422129e-03	2.251178e-03
79.1765       	1.905898e-02	1.423922e-03	2.271580e-03
79.1863       	1.747733e-02	1.409604e-03	2.221806e-03
79.1961       	1.850182e-02	1.403023e-03	2.238520e-03
79.2059       	1.893474e-02	1.409590e-03	2.196779e-03
79.2157       	1.834984e-02	1.407025e-03	2.162055e-03
79.2255       	1.925684e-02	1.408828e-03	2.120460e-03
79.235        	2.000526e-02	1.341417e-03	2.028269e-03
79.2444       	1.819767e-02	1.361044e-03	1.865921e-03
79.2539       	1.833652e-02	1.344594e-03	2.108422e-03
79.2634       	1.730013e-02	1.346930e-03	1.775900e-03
79.2728       	1.872280e-02	1.341485e-03	1.785099e-03
79.2823       	1.918577e-02	1.347897e-03	1.790142e-03
79.2918       	1.719287e-02	1.347526e-03	1.692189e-03
79.3012       	1.682694e-02	1.365955e-03	1.670394e-03
79.3107       	1.862929e-02	1.381753e-03	1.735309e-03
79.3201       	2.092675e-02	1.402856e-03	1.764849e-03
79.3296       	2.091160e-02	1.403648e-03	1.870965e-03
79.3391       	2.082067e-02	1.398540e-03	1.555249e-03
79.3485       	1.883616e-02	1.402778e-03	1.633395e-03
79.358        	1.865572e-02	1.417979e-03	1.769780e-03
79.3675       	2.027992e-02	1.426894e-03	1.709594e-03
79.3769       	2.049139e-02	1.450858e-03	1.821525e-03
79.3864       	1.946485e-02	1.461843e-03	1.696211e-03
79.3959       	1.917676e-02	1.458040e-03	1.523645e-03
79.4053       	1.947901e-02	1.474397e-03	1.384296e-03
79.4148       	1.870459e-02	1.477345e-03	1.601261e-03
79.4243       	1.845853e-02	1.470501e-03	1.612467e-03
79.4337       	2.080928e-02	1.464710e-03	1.978987e-03
79.4432       	2.286131e-02	1.468887e-03	2.100029e-03
79.4527       	2.238530e-02	1.475444e-03	1.927268e-03
79.4621       	2.239924e-02	1.492157e-03	1.917261e-03
79.4716       	2.069909e-02	1.510601e-03	1.686233e-03
79.4811       	2.074289e-02	1.506181e-03	1.792576e-03
79.4905       	2.010681e-02	1.511213e-03	1.509333e-03
79.4953       	1.640322e-01	8.380239e-04	1.564493e-03
79.5          	8.269925e-02	1.294624e-03	1.555467e-03
79.5056       	8.096461e-02	1.039495e-03	3.372512e-03
79.5121       	5.918075e-02	1.197968e-03	4.164916e-03
79.5195       	4.852786e-02	1.328897e-03	6.250347e-03
79.5278       	4.551391e-02	1.495674e-03	7.644241e-03
79.5365       	4.069560e-02	1.582640e-03	9.373992e-03
79.5453       	3.514055e-02	1.611620e-03	7.078913e-03
79.554        	3.212388e-02	1.581140e-03	6.079334e-03
79.5626       	3.124182e-02	1.550685e-03	5.178077e-03
79.5712       	2.801533e-02	1.537327e-03	4.612411e-03
79.5798       	2.545817e-02	1.511560e-03	3.874419e-03
79.5883       	2.299287e-02	1.486900e-03	3.694739e-03
79.5971       	2.606019e-02	1.492688e-03	3.684328e-03
79.6059       	2.725119e-02	1.481098e-03	3.612773e-03
79.6146       	2.820783e-02	1.447567e-03	3.789136e-03
79.6236       	2.748311e-02	1.484498e-03	4.378085e-03
79.6325       	2.486062e-02	1.454681e-03	3.874317e-03
79.6415       	2.442503e-02	1.446603e-03	4.013566e-03
79.6507       	2.984497e-02	1.518585e-03	3.867170e-03
79.6599       	2.816024e-02	1.480141e-03	3.723227e-03
79.6691       	2.435925e-02	1.487662e-03	3.499170e-03
79.6785       	2.682857e-02	1.521145e-03	3.514109e-03
79.688        	2.530982e-02	1.531925e-03	3.406778e-03
79.6974       	2.473806e-02	1.546410e-03	3.445876e-03
79.7069       	2.480228e-02	1.546598e-03	3.578455e-03
79.7164       	2.616033e-02	1.563412e-03	3.385712e-03
79.7258       	2.453853e-02	1.561970e-03	3.057221e-03
79.7353       	2.374149e-02	1.562957e-03	2.994062e-03
79.7447       	2.356453e-02	1.530173e-03	2.732657e-03
79.7542       	2.471575e-02	1.547970e-03	2.669238e-03
79.7636       	2.269549e-02	1.543757e-03	2.646243e-03
79.7731       	2.521806e-02	1.539977e-03	2.800828e-03
79.7825       	2.615030e-02	1.566541e-03	2.546500e-03
79.792        	2.321103e-02	1.543667e-03	2.754580e-03
79.8014       	2.452704e-02	1.541516e-03	2.841967e-03
79.8109       	2.385330e-02	1.550208e-03	2.610702e-03
79.8204       	2.266353e-02	1.523620e-03	2.247785e-03
79.8298       	2.125586e-02	1.514261e-03	2.283491e-03
79.8393       	2.372899e-02	1.505162e-03	2.057326e-03
79.8487       	2.106700e-02	1.491728e-03	2.090558e-03
79.8582       	2.264681e-02	1.474335e-03	2.409846e-03
79.8676       	2.238622e-02	1.484532e-03	2.490942e-03
79.8765       	2.896019e-02	1.377685e-03	1.999405e-03
79.8853       	2.406406e-02	1.388708e-03	2.166668e-03
79.8941       	2.055004e-02	1.351782e-03	1.861358e-03
79.9029       	2.193826e-02	1.344194e-03	2.172818e-03
79.9118       	2.068722e-02	1.343825e-03	1.935185e-03
79.9206       	1.934812e-02	1.330754e-03	2.032884e-03
79.9294       	2.116726e-02	1.330454e-03	2.045566e-03
79.9382       	2.244076e-02	1.333895e-03	2.074074e-03
79.9471       	2.019100e-02	1.336297e-03	2.060039e-03
79.9559       	1.890859e-02	1.340618e-03	2.110248e-03
79.9647       	2.049546e-02	1.328361e-03	2.084550e-03
79.9735       	1.887302e-02	1.335531e-03	2.137704e-03
79.9824       	2.092190e-02	1.349151e-03	2.130649e-03
79.9912       	1.973598e-02	1.346775e-03	2.187734e-03
80            	1.990689e-02	1.342869e-03	2.182574e-03
80.0093       	2.525472e-02	1.399243e-03	2.279074e-03
80.0185       	2.373948e-02	1.391871e-03	2.286149e-03
80.0278       	2.088619e-02	1.380265e-03	2.115118e-03
80.037        	2.217670e-02	1.385524e-03	2.290883e-03
80.0463       	2.006240e-02	1.393438e-03	2.201355e-03
80.0556       	1.899110e-02	1.394603e-03	2.162282e-03
80.0648       	1.825589e-02	1.401460e-03	2.169908e-03
80.0741       	1.855478e-02	1.390390e-03	2.115752e-03
80.0833       	1.981391e-02	1.382822e-03	2.164295e-03
80.0926       	2.509607e-02	1.411668e-03	1.998241e-03
80.1019       	2.482998e-02	1.389586e-03	2.100821e-03
80.1111       	2.000050e-02	1.374040e-03	1.980371e-03
80.1202       	2.117557e-02	1.341855e-03	2.052426e-03
80.1292       	1.943956e-02	1.339922e-03	2.000876e-03
80.1382       	1.787460e-02	1.344089e-03	2.175457e-03
80.1473       	1.764351e-02	1.341392e-03	2.047599e-03
80.1563       	1.847261e-02	1.342832e-03	2.136139e-03
80.1654       	1.946009e-02	1.351875e-03	2.118072e-03
80.1744       	2.241286e-02	1.383770e-03	2.199020e-03
80.1835       	2.178814e-02	1.429193e-03	2.172848e-03
80.1925       	2.255558e-02	1.415193e-03	2.275728e-03
80.2016       	2.326326e-02	1.387148e-03	2.245116e-03
80.2106       	1.941849e-02	1.380902e-03	2.356188e-03
80.2196       	1.928034e-02	1.365830e-03	2.312672e-03
80.2287       	1.963148e-02	1.363327e-03	2.618814e-03
80.2377       	2.229561e-02	1.386530e-03	2.447289e-03
80.2468       	2.170077e-02	1.409753e-03	2.662100e-03
80.2558       	2.109079e-02	1.407513e-03	2.582315e-03
80.2649       	2.010135e-02	1.392492e-03	2.696572e-03
80.2739       	2.091063e-02	1.385020e-03	2.722307e-03
80.2829       	2.208987e-02	1.373411e-03	2.805788e-03
80.292        	2.236165e-02	1.389658e-03	2.826562e-03
80.301        	2.467565e-02	1.394300e-03	2.880872e-03
80.3101       	2.232124e-02	1.395313e-03	2.843636e-03
80.3191       	2.161268e-02	1.397459e-03	2.936916e-03
80.3282       	2.187083e-02	1.403328e-03	2.832970e-03
80.3372       	2.593258e-02	1.407101e-03	2.980754e-03
80.3463       	2.503995e-02	1.428188e-03	2.882000e-03
80.3553       	2.697346e-02	1.426631e-03	3.019148e-03
80.3643       	2.403684e-02	1.415708e-03	2.900669e-03
80.3734       	2.246548e-02	1.401580e-03	3.036495e-03
80.3824       	2.266853e-02	1.399834e-03	2.912965e-03
80.3915       	2.289189e-02	1.396287e-03	3.061613e-03
80.4005       	2.278164e-02	1.386140e-03	2.944970e-03
80.4096       	2.630346e-02	1.365559e-03	3.103403e-03
80.4186       	2.448401e-02	1.367836e-03	2.970083e-03
80.4276       	2.286815e-02	1.346931e-03	3.153724e-03
80.4367       	2.190676e-02	1.330097e-03	3.045713e-03
80.4457       	2.261648e-02	1.314777e-03	3.232019e-03
80.4548       	2.635493e-02	1.359071e-03	3.119723e-03
80.4638       	2.706202e-02	1.320538e-03	3.302657e-03
80.4729       	2.305590e-02	1.326669e-03	3.150941e-03
80.4819       	2.267404e-02	1.337730e-03	3.303883e-03
80.491        	2.245513e-02	1.351224e-03	3.173966e-03
80.5          	2.171152e-02	1.341919e-03	3.347726e-03
80.5094       	2.506564e-02	1.390583e-03	3.233903e-03
80.5189       	2.320148e-02	1.386631e-03	3.399728e-03
80.5283       	2.318740e-02	1.380466e-03	3.230421e-03
80.5377       	2.163476e-02	1.404357e-03	2.977350e-03
80.5472       	2.197648e-02	1.422670e-03	2.933699e-03
80.5566       	2.706430e-02	1.388958e-03	2.771273e-03
80.566        	2.453602e-02	1.374932e-03	2.683744e-03
80.5755       	2.200750e-02	1.363743e-03	2.695534e-03
80.5849       	2.011412e-02	1.361113e-03	2.499575e-03
80.5943       	2.057723e-02	1.364636e-03	2.506629e-03
80.6038       	2.215302e-02	1.364895e-03	2.349188e-03
80.6132       	2.157457e-02	1.337303e-03	2.356730e-03
80.6226       	2.023548e-02	1.328747e-03	2.224828e-03
80.6321       	1.917878e-02	1.330360e-03	2.222150e-03
80.6415       	1.996189e-02	1.333203e-03	2.100378e-03
80.6509       	2.232269e-02	1.346552e-03	2.094874e-03
80.6604       	2.205522e-02	1.333817e-03	2.001508e-03
80.6698       	2.174951e-02	1.338742e-03	2.006793e-03
80.6792       	2.025286e-02	1.332453e-03	1.941609e-03
80.6887       	2.082623e-02	1.340141e-03	1.956082e-03
80.6981       	2.055132e-02	1.346866e-03	1.913262e-03
80.7075       	2.117823e-02	1.337735e-03	1.927832e-03
80.717        	1.928604e-02	1.324254e-03	1.876223e-03
80.7264       	1.919602e-02	1.307826e-03	1.898403e-03
80.7358       	1.897986e-02	1.300864e-03	1.834782e-03
80.7453       	2.047496e-02	1.295840e-03	1.857685e-03
80.7547       	2.085981e-02	1.309306e-03	1.812096e-03
80.7642       	2.006809e-02	1.309142e-03	1.790302e-03
80.7736       	1.939936e-02	1.292831e-03	1.838988e-03
80.783        	2.065667e-02	1.283103e-03	1.674362e-03
80.7925       	1.841231e-02	1.262230e-03	1.583155e-03
80.8019       	2.126805e-02	1.261365e-03	1.637207e-03
80.8113       	2.028972e-02	1.259165e-03	1.573572e-03
80.8208       	2.024763e-02	1.274470e-03	1.634112e-03
80.8302       	1.933204e-02	1.272533e-03	1.629984e-03
80.8396       	2.275612e-02	1.281747e-03	1.734790e-03
80.8491       	2.184634e-02	1.280781e-03	1.781965e-03
80.8585       	2.085445e-02	1.299321e-03	1.705951e-03
80.8679       	1.846931e-02	1.289468e-03	1.744100e-03
80.8774       	1.872089e-02	1.274598e-03	1.709817e-03
80.8868       	1.839963e-02	1.261871e-03	1.678201e-03
80.8962       	1.876708e-02	1.266160e-03	1.740707e-03
80.9057       	2.087592e-02	1.265887e-03	1.937410e-03
80.9151       	2.167908e-02	1.272505e-03	1.622878e-03
80.9245       	1.956368e-02	1.260173e-03	1.563076e-03
80.934        	1.819415e-02	1.269896e-03	1.719522e-03
80.9434       	1.899220e-02	1.265498e-03	1.562763e-03
80.9528       	2.126727e-02	1.250170e-03	1.847184e-03
80.9623       	1.922234e-02	1.270602e-03	1.772931e-03
80.9717       	1.897001e-02	1.273551e-03	1.699870e-03
80.9811       	2.132958e-02	1.314842e-03	1.751476e-03
80.9906       	2.191763e-02	1.308817e-03	1.712209e-03
81            	2.015447e-02	1.297051e-03	1.676891e-03
81.0096       	1.971147e-02	1.299826e-03	1.688804e-03
81.019        	2.050846e-02	1.269111e-03	1.657306e-03
81.0285       	1.810799e-02	1.280043e-03	1.590635e-03
81.0379       	1.769278e-02	1.266672e-03	1.592902e-03
81.0473       	1.705919e-02	1.280415e-03	1.620973e-03
81.0568       	1.706680e-02	1.272154e-03	1.573847e-03
81.0662       	1.721852e-02	1.259952e-03	1.581126e-03
81.0756       	1.987301e-02	1.305263e-03	1.595757e-03
81.0849       	2.150305e-02	1.265007e-03	1.576060e-03
81.0941       	1.945126e-02	1.236919e-03	1.451977e-03
81.1033       	1.907376e-02	1.229191e-03	1.625958e-03
81.1125       	1.722838e-02	1.208442e-03	1.409786e-03
81.1218       	1.924436e-02	1.203007e-03	1.520847e-03
81.131        	2.017027e-02	1.238748e-03	1.469272e-03
81.1402       	2.061820e-02	1.254076e-03	1.527892e-03
81.1494       	2.004505e-02	1.241016e-03	1.508628e-03
81.1584       	2.290366e-02	1.211419e-03	1.554990e-03
81.1674       	2.135461e-02	1.211869e-03	1.566179e-03
81.1764       	2.030246e-02	1.191842e-03	1.713814e-03
81.1854       	2.039832e-02	1.212673e-03	1.581998e-03
81.1944       	1.785094e-02	1.198080e-03	1.673309e-03
81.2034       	1.832832e-02	1.183470e-03	1.672502e-03
81.2124       	1.729068e-02	1.180462e-03	1.730983e-03
81.2213       	1.845781e-02	1.163566e-03	1.763824e-03
81.2303       	2.240639e-02	1.182416e-03	1.831199e-03
81.2393       	2.212200e-02	1.189042e-03	1.840939e-03
81.248        	2.409460e-02	1.174644e-03	2.030532e-03
81.2567       	2.418761e-02	1.160959e-03	1.952841e-03
81.2654       	2.047917e-02	1.132055e-03	2.289414e-03
81.2741       	2.123270e-02	1.133587e-03	2.248632e-03
81.2828       	2.072582e-02	1.151423e-03	2.362311e-03
81.2915       	2.155373e-02	1.160032e-03	2.446730e-03
81.3001       	2.187659e-02	1.161978e-03	2.578442e-03
81.3088       	2.252648e-02	1.175876e-03	2.627750e-03
81.3175       	2.209020e-02	1.182994e-03	2.886283e-03
81.3262       	2.338828e-02	1.168906e-03	2.862722e-03
81.3349       	2.346622e-02	1.183613e-03	3.375381e-03
81.3436       	2.174451e-02	1.191384e-03	3.191115e-03
81.3523       	2.134136e-02	1.179809e-03	3.543360e-03
81.361        	2.233902e-02	1.175143e-03	3.526691e-03
81.3697       	2.137628e-02	1.167241e-03	3.780549e-03
81.3784       	2.366714e-02	1.169980e-03	3.674452e-03
81.387        	2.477050e-02	1.173043e-03	4.001042e-03
81.3957       	2.365475e-02	1.190856e-03	3.795036e-03
81.4044       	2.488440e-02	1.189345e-03	4.140539e-03
81.4131       	2.371169e-02	1.183687e-03	3.909858e-03
81.421        	3.591508e-02	1.096589e-03	4.255971e-03
81.4289       	2.916893e-02	1.125458e-03	3.947001e-03
81.4368       	2.611679e-02	1.098663e-03	5.264787e-03
81.4447       	2.746356e-02	1.106422e-03	5.163238e-03
81.4526       	3.054980e-02	1.133232e-03	6.958651e-03
81.4605       	3.159681e-02	1.131286e-03	6.695481e-03
81.4684       	3.270176e-02	1.163562e-03	9.006970e-03
81.4763       	3.158159e-02	1.168487e-03	7.090200e-03
81.4842       	3.300464e-02	1.187562e-03	8.395571e-03
81.4921       	3.327459e-02	1.192769e-03	6.576929e-03
81.5          	3.395865e-02	1.195369e-03	7.344097e-03
81.5086       	4.378581e-02	1.279350e-03	6.490848e-03
81.5172       	3.504301e-02	1.289601e-03	7.269883e-03
81.5259       	2.952957e-02	1.270521e-03	6.115692e-03
81.5345       	2.947006e-02	1.259513e-03	5.902756e-03
81.5431       	2.855037e-02	1.214084e-03	5.088709e-03
81.5517       	2.598161e-02	1.227962e-03	4.914245e-03
81.5603       	2.613193e-02	1.202622e-03	4.430898e-03
81.569        	2.716739e-02	1.203959e-03	4.496525e-03
81.5776       	2.639786e-02	1.200399e-03	4.041908e-03
81.5862       	2.584292e-02	1.204139e-03	4.236414e-03
81.5948       	2.514341e-02	1.183617e-03	3.877206e-03
81.6034       	2.465198e-02	1.193484e-03	4.172126e-03
81.6121       	2.492737e-02	1.160473e-03	3.892545e-03
81.6207       	2.514837e-02	1.169655e-03	4.115615e-03
81.6293       	2.637349e-02	1.142757e-03	3.956988e-03
81.6379       	2.507287e-02	1.162222e-03	4.195489e-03
81.6466       	2.495022e-02	1.119594e-03	4.036593e-03
81.6552       	2.386610e-02	1.119804e-03	4.354370e-03
81.6638       	2.401846e-02	1.109138e-03	4.181080e-03
81.6724       	2.341742e-02	1.124481e-03	4.574489e-03
81.681        	2.368510e-02	1.107096e-03	4.463171e-03
81.6897       	2.350391e-02	1.119317e-03	4.908452e-03
81.6983       	2.583876e-02	1.120124e-03	4.823986e-03
81.7069       	2.580641e-02	1.132248e-03	5.574936e-03
81.7155       	2.519545e-02	1.118585e-03	5.189544e-03
81.7241       	2.629161e-02	1.126035e-03	5.927278e-03
81.733        	2.754603e-02	1.156277e-03	5.326265e-03
81.7419       	2.641327e-02	1.157717e-03	5.880948e-03
81.7508       	2.627725e-02	1.143088e-03	5.227293e-03
81.7597       	2.651338e-02	1.155231e-03	5.222612e-03
81.7686       	2.610358e-02	1.161674e-03	4.910147e-03
81.7775       	2.354672e-02	1.169907e-03	5.142559e-03
81.7864       	2.248248e-02	1.157447e-03	4.694616e-03
81.7953       	2.320786e-02	1.147218e-03	5.006925e-03
81.8042       	2.415441e-02	1.153129e-03	4.597827e-03
81.8131       	2.303521e-02	1.169144e-03	4.904730e-03
81.822        	2.231735e-02	1.147885e-03	4.512728e-03
81.8309       	2.210883e-02	1.142779e-03	4.831608e-03
81.8398       	2.130261e-02	1.136464e-03	4.470816e-03
81.8487       	2.159611e-02	1.147983e-03	4.800529e-03
81.8576       	2.145817e-02	1.147503e-03	4.445715e-03
81.8665       	2.134298e-02	1.147485e-03	4.774010e-03
81.8754       	2.248705e-02	1.146074e-03	4.430888e-03
81.8843       	2.388038e-02	1.155089e-03	4.779273e-03
81.8932       	2.071629e-02	1.153204e-03	4.425042e-03
81.9021       	2.092758e-02	1.143328e-03	4.763924e-03
81.911        	2.378938e-02	1.140713e-03	4.436173e-03
81.9199       	2.267748e-02	1.149720e-03	4.778962e-03
81.9288       	2.284788e-02	1.146154e-03	4.452547e-03
81.9377       	2.157238e-02	1.155376e-03	4.800197e-03
81.9466       	2.149149e-02	1.151547e-03	4.465189e-03
81.9555       	2.250367e-02	1.167329e-03	4.803233e-03
81.9644       	2.224209e-02	1.161078e-03	4.458460e-03
81.9733       	2.414912e-02	1.170167e-03	4.787891e-03
81.9822       	2.265595e-02	1.164640e-03	4.435126e-03
81.9911       	2.213154e-02	1.166336e-03	4.776459e-03
82            	2.199137e-02	1.162069e-03	4.436041e-03
82.0089       	2.344352e-02	1.173126e-03	4.775249e-03
82.0179       	2.227196e-02	1.162366e-03	4.432131e-03
82.0268       	2.178596e-02	1.166383e-03	4.741170e-03
82.0357       	2.264801e-02	1.155568e-03	4.409084e-03
82.0446       	2.417035e-02	1.166497e-03	4.710706e-03
82.0536       	2.191165e-02	1.171063e-03	4.378202e-03
82.0625       	2.067644e-02	1.155931e-03	4.672530e-03
82.0714       	2.120665e-02	1.144433e-03	4.352871e-03
82.0804       	2.142537e-02	1.143916e-03	4.661133e-03
82.0893       	2.320226e-02	1.136664e-03	4.334388e-03
82.0982       	2.125141e-02	1.139879e-03	4.670457e-03
82.1071       	2.319409e-02	1.125349e-03	4.358486e-03
82.1161       	2.268731e-02	1.133869e-03	4.677826e-03
82.125        	2.242264e-02	1.118144e-03	4.345698e-03
82.1339       	2.180299e-02	1.122461e-03	4.673528e-03
82.1429       	2.330040e-02	1.102355e-03	4.349479e-03
82.1518       	2.349288e-02	1.115938e-03	4.666914e-03
82.1607       	2.253980e-02	1.105744e-03	4.340214e-03
82.1694       	2.321262e-02	1.091243e-03	4.664497e-03
82.1781       	2.246860e-02	1.094840e-03	4.310913e-03
82.1868       	2.162906e-02	1.093641e-03	4.880916e-03
82.1955       	2.310160e-02	1.087039e-03	4.649982e-03
82.2042       	2.327432e-02	1.087606e-03	5.382590e-03
82.2129       	2.217818e-02	1.074266e-03	4.965316e-03
82.2216       	2.424519e-02	1.087663e-03	5.663225e-03
82.2303       	2.424541e-02	1.086911e-03	5.112362e-03
82.239        	2.453676e-02	1.093899e-03	5.609596e-03
82.2477       	2.517419e-02	1.078791e-03	5.096804e-03
82.2564       	2.264605e-02	1.074345e-03	5.477936e-03
82.2651       	2.379537e-02	1.072128e-03	5.033489e-03
82.2738       	2.361257e-02	1.080963e-03	5.430177e-03
82.2825       	2.315899e-02	1.086278e-03	4.986391e-03
82.2912       	2.268082e-02	1.090595e-03	5.417179e-03
82.2999       	2.163705e-02	1.090896e-03	4.975614e-03
82.3086       	2.379025e-02	1.101017e-03	5.416164e-03
82.3173       	2.293673e-02	1.107845e-03	4.969700e-03
82.326        	2.203667e-02	1.112790e-03	5.409552e-03
82.3347       	2.214844e-02	1.105990e-03	4.976684e-03
82.3434       	2.254623e-02	1.107074e-03	5.423168e-03
82.3521       	2.566974e-02	1.100426e-03	5.003405e-03
82.3608       	2.451608e-02	1.100241e-03	5.457746e-03
82.3695       	2.366953e-02	1.103664e-03	5.021823e-03
82.3782       	2.325725e-02	1.108905e-03	5.458113e-03
82.3869       	2.245929e-02	1.105217e-03	5.013330e-03
82.3956       	2.361263e-02	1.105099e-03	5.455759e-03
82.4043       	2.454462e-02	1.101990e-03	5.004817e-03
82.413        	2.395283e-02	1.107957e-03	5.429391e-03
82.4217       	2.432644e-02	1.122015e-03	4.985851e-03
82.4304       	2.441643e-02	1.124201e-03	5.407191e-03