/*--------------------------------*- C++ -*----------------------------------*\
  =========                 |
  \\      /  F ield         | OpenFOAM: The Open Source CFD Toolbox
   \\    /   O peration     | Website:  https://openfoam.org
    \\  /    A nd           | Version:  7
     \\/     M anipulation  |
\*---------------------------------------------------------------------------*/
FoamFile
{
    version     2.0;
    format      ascii;
    class       surfaceScalarField;
    location    "21.5";
    object      phi;
}
// * * * * * * * * * * * * * * * * * * * * * * * * * * * * * * * * * * * * * //

dimensions      [0 3 -1 0 0 0 0];

internalField   nonuniform List<scalar> 
1111
(
6.02965e-09
1.34095e-08
-1.53356e-08
-4.10351e-09
6.17817e-09
-1.14893e-08
1.13408e-08
-1.4478e-08
4.42008e-09
9.80375e-09
2.54136e-10
1.83213e-10
-2.08861e-10
-1.39656e-08
1.39913e-08
-1.38876e-08
1.37e-08
3.70849e-10
-1.33713e-09
1.48433e-08
1.92235e-09
-4.01228e-09
9.49657e-09
-1.12966e-08
5.81227e-09
-6.50994e-09
-1.24849e-08
1.2445e-08
6.54984e-09
-5.11838e-08
-2.54533e-08
7.66371e-08
-8.06612e-09
7.44375e-09
6.80054e-09
3.74846e-09
3.67731e-10
-3.8221e-09
-2.94097e-10
1.57426e-08
-1.58192e-08
-2.2531e-08
2.26076e-08
-9.64521e-09
-8.31104e-09
8.97246e-09
8.9838e-09
-3.47075e-08
1.7158e-08
-3.18247e-08
4.93743e-08
9.5918e-09
-1.86167e-09
-1.42401e-08
-3.5272e-09
3.57953e-09
-3.49903e-09
3.4467e-09
-3.70935e-09
1.30481e-08
1.99699e-09
-1.13358e-08
8.88788e-09
-2.08155e-09
-1.50253e-08
8.21901e-09
3.87232e-08
-3.17628e-08
-6.96037e-09
-1.91065e-08
-2.25638e-10
1.76836e-08
1.64855e-09
-3.33792e-10
3.78413e-09
-1.80246e-08
1.45743e-08
-6.15201e-08
-3.8662e-09
6.53863e-08
2.09547e-10
-1.39859e-09
-4.13331e-10
1.60237e-09
-9.93045e-10
-1.32284e-08
-2.60146e-10
-3.67475e-10
3.57119e-10
2.70501e-10
-9.93976e-09
-8.04995e-09
1.22601e-08
5.72957e-09
8.68813e-10
-2.22059e-09
-8.51662e-09
9.8684e-09
7.66689e-09
1.09793e-09
-8.41509e-09
-3.49727e-10
-2.71472e-09
-7.75972e-09
1.06242e-08
-1.49738e-10
1.12158e-08
-2.12566e-10
-2.1154e-09
-1.11892e-09
1.08329e-09
1.41394e-10
-1.05765e-10
-4.34898e-10
9.87989e-10
6.09723e-10
-1.16281e-09
-7.05715e-10
-4.74571e-11
7.5013e-10
3.04126e-12
4.18435e-11
-1.15864e-09
8.43539e-11
1.03244e-09
-2.18931e-11
-1.05519e-09
5.77366e-10
-1.80478e-08
-1.63614e-09
-6.14196e-10
7.33959e-11
-1.64915e-10
1.32675e-08
-1.32978e-08
3.81449e-09
-4.92243e-10
7.03786e-10
4.79181e-10
-6.90724e-10
-8.65094e-10
-2.67816e-09
2.04748e-09
1.49577e-09
-1.96362e-09
8.45874e-09
-1.05074e-08
-4.74007e-10
-2.36146e-10
9.5957e-11
-8.79813e-09
9.99548e-09
-9.26346e-09
1.16342e-08
-1.66451e-08
5.15977e-09
-1.48893e-10
1.20561e-10
-2.53467e-10
-3.41101e-10
3.23214e-10
9.85271e-10
-2.25191e-10
-5.99053e-08
7.44169e-08
-1.45116e-08
1.22757e-09
-4.34509e-10
-1.43201e-09
6.38949e-10
8.9167e-10
1.02893e-08
-1.36146e-08
2.43356e-09
-2.547e-10
6.52444e-09
-7.85555e-09
1.58581e-09
-6.33487e-09
5.84118e-09
5.39678e-09
-4.9031e-09
-6.80569e-09
-2.47197e-09
2.30282e-09
6.97484e-09
-3.12642e-10
-9.09036e-08
9.13406e-08
-1.24353e-10
-2.68787e-10
-8.97467e-08
9.01429e-08
-1.27402e-10
8.30665e-08
-1.50922e-09
1.1925e-10
-8.16765e-08
-3.33078e-09
6.86528e-11
9.01699e-10
9.79658e-10
-6.5379e-10
4.13261e-09
-1.93437e-09
3.25075e-09
-5.44899e-09
-1.20503e-09
1.09373e-09
-1.50007e-08
6.56786e-09
8.99305e-09
1.0488e-09
-9.6932e-09
-3.48645e-10
-6.19835e-09
1.2574e-08
1.55047e-09
-7.92615e-09
1.41236e-08
-3.81934e-09
3.14398e-09
-1.34483e-08
1.53616e-08
1.65124e-09
-1.58407e-09
-4.71468e-11
-2.00419e-08
-7.7198e-09
2.78089e-08
1.34516e-08
-8.12608e-09
-2.3115e-09
7.49988e-09
-1.13867e-08
-1.75541e-10
3.50519e-10
-1.60698e-09
-3.74354e-08
-2.24699e-08
7.84148e-09
-1.54678e-10
3.94737e-09
-6.7278e-09
1.05539e-08
6.16942e-09
-7.56153e-10
4.41812e-10
6.1297e-10
-2.98629e-10
5.9866e-09
-4.54854e-09
3.50529e-09
-4.94335e-09
-7.37391e-10
-7.62544e-10
3.41299e-10
8.98416e-10
-8.61519e-10
-2.63623e-10
-1.29094e-09
1.11966e-09
-1.71898e-08
2.41471e-09
1.43042e-09
1.33446e-08
3.41627e-10
-8.89313e-10
-2.08467e-10
-3.55874e-09
-1.46318e-08
1.00081e-09
5.65881e-09
1.15641e-08
-5.24656e-09
-1.19764e-08
1.63347e-08
5.61356e-10
-1.58114e-08
-1.08464e-09
-8.43757e-10
6.06495e-10
6.79074e-10
-1.1311e-09
6.20631e-10
5.10471e-10
-6.95386e-09
-3.8877e-09
4.50669e-09
-4.80492e-10
6.82069e-10
-2.01576e-10
1.32618e-09
-1.48247e-08
-6.28006e-10
8.50751e-09
-9.84312e-09
-1.23917e-09
-1.39472e-09
1.24061e-08
4.40436e-09
-4.18007e-09
-1.26304e-08
3.60485e-10
6.88483e-09
-7.55792e-09
6.51426e-09
-2.06047e-09
-8.25825e-09
7.62627e-09
2.69244e-09
-1.79668e-09
6.0048e-10
-1.34356e-08
-3.0108e-10
-1.79411e-10
-6.52008e-10
1.38975e-09
-7.54344e-09
8.20675e-10
1.71198e-08
-1.60575e-09
-1.52544e-08
1.64064e-08
-1.152e-09
1.17488e-08
1.39387e-08
-1.55417e-08
-1.01458e-08
-9.64786e-10
1.59072e-09
-6.25929e-10
1.76589e-09
-2.31323e-09
5.47346e-10
3.17833e-09
-4.73904e-09
1.56071e-09
2.1372e-09
-1.80026e-09
-3.36933e-10
-1.24501e-08
1.82005e-10
1.22681e-08
2.9091e-09
-7.719e-10
8.80493e-09
-1.49358e-08
6.343e-09
-7.2497e-09
1.33727e-10
4.08117e-09
-4.66436e-10
-3.27683e-09
3.41056e-09
-8.04687e-09
9.44236e-09
-1.39549e-09
-1.00245e-09
4.04285e-09
1.09221e-09
1.69062e-08
-1.45131e-08
-1.50149e-09
-5.22422e-09
5.05777e-09
-1.76792e-09
-2.82716e-10
7.17806e-09
-7.13206e-09
-4.59956e-11
7.08322e-09
4.30017e-09
3.71165e-10
-1.55026e-08
1.02033e-08
1.70481e-08
5.66924e-09
8.29882e-09
8.17873e-09
-6.7013e-09
5.58528e-10
-1.30087e-08
1.57796e-09
-2.77737e-10
-1.24606e-08
3.84597e-09
-4.35412e-10
1.44337e-08
-1.38724e-08
-6.19771e-11
-1.19909e-09
-1.34774e-08
6.99618e-09
9.93061e-10
-6.6387e-11
-8.9565e-09
5.41126e-09
-3.181e-08
-1.25387e-08
-2.21737e-09
1.27866e-09
1.3557e-08
1.10178e-08
-1.07009e-08
-1.38739e-08
1.69007e-08
-3.10765e-09
-1.37931e-08
1.83273e-09
3.79143e-09
-1.54313e-09
-1.02375e-09
-1.0968e-09
1.43321e-09
6.87344e-10
-3.31592e-10
4.6839e-10
4.76173e-10
6.2106e-08
-6.20068e-08
-9.91294e-11
6.22691e-08
-6.24244e-08
1.55287e-10
7.4902e-10
6.48014e-08
-6.56357e-08
8.34377e-10
6.41905e-08
6.10867e-10
-3.1846e-10
-6.65816e-08
9.45844e-10
-6.22837e-08
6.20538e-08
2.29955e-10
1.2929e-09
-6.78745e-08
-6.2503e-08
2.19257e-10
1.19601e-08
-1.27321e-09
1.91532e-09
-3.76334e-09
3.12123e-09
4.83142e-10
-1.35221e-09
1.23016e-09
-9.05491e-10
1.55141e-09
-1.84352e-09
1.1976e-09
1.61875e-09
-1.79413e-09
5.25893e-10
-1.21441e-10
-3.29007e-09
3.1733e-09
-2.46106e-09
2.57782e-09
-9.99986e-10
-2.94901e-09
2.67579e-09
-3.982e-09
-5.46963e-09
6.91317e-10
-8.08461e-10
1.54281e-09
1.23876e-09
-6.62379e-09
7.99963e-09
2.92433e-09
2.12193e-08
-4.3186e-09
-8.66748e-10
3.06403e-10
1.25166e-09
-1.01274e-08
-2.7308e-08
5.51289e-09
-4.54488e-09
-3.06869e-09
2.10068e-09
1.42508e-10
9.8583e-13
6.06636e-10
-2.91502e-09
3.58743e-09
8.52372e-09
9.74538e-10
-6.87376e-10
2.27947e-09
-2.59208e-09
2.41668e-09
1.45178e-08
1.2978e-08
-2.64201e-08
3.20353e-08
6.08868e-09
-2.23022e-08
-1.02066e-08
1.77815e-08
-1.74263e-08
1.06626e-08
-3.39597e-10
7.25424e-11
-1.52707e-09
-2.005e-09
-1.82339e-09
3.46442e-09
1.44713e-08
-5.17113e-10
-1.33537e-08
2.48693e-10
-3.00218e-09
-1.95526e-10
1.50477e-08
1.72515e-08
1.3425e-08
7.76554e-10
-1.52718e-09
-1.26744e-08
-2.00856e-09
5.95583e-09
1.21091e-08
-9.20994e-10
-1.33328e-09
-3.49874e-09
2.73249e-09
3.93956e-09
2.39439e-09
1.39655e-08
4.15508e-09
-1.37162e-08
1.70698e-08
-1.59766e-09
2.96079e-09
-3.71205e-09
1.89967e-09
-4.46273e-09
1.26763e-08
-1.19229e-08
-1.36533e-08
5.879e-10
8.60272e-09
-1.96109e-09
1.66496e-09
1.83894e-09
-8.90525e-09
4.85281e-10
-4.1187e-09
-5.91077e-09
1.2014e-08
-1.50085e-08
1.51598e-09
1.64204e-09
-2.09171e-09
1.61505e-08
-1.57008e-08
-9.63381e-10
1.38713e-08
2.50231e-09
-3.72161e-09
-1.37165e-08
7.23939e-09
-1.67343e-08
-7.93142e-09
6.38398e-09
5.82059e-09
1.41007e-08
-9.31935e-09
3.19683e-09
8.81496e-09
9.75057e-09
3.91829e-09
-4.07249e-09
2.12787e-08
-1.86452e-08
4.60584e-09
-9.80332e-09
2.3167e-09
5.15263e-09
1.33476e-08
-8.00444e-11
1.23008e-08
-1.31842e-08
-1.58689e-09
2.70798e-09
-1.92031e-09
7.99226e-10
1.06372e-08
-6.30336e-09
7.23024e-09
-1.01837e-08
1.4292e-09
-4.7553e-09
1.10577e-08
-1.15489e-08
-7.38552e-09
8.81078e-09
9.21199e-09
1.24138e-08
1.00739e-09
-1.35013e-08
1.7889e-09
8.83077e-10
-1.07518e-08
-6.74078e-09
1.01071e-08
-1.86462e-09
2.52479e-09
-8.54454e-09
4.64177e-09
-5.09369e-09
1.11237e-08
-3.49617e-09
-1.12736e-08
3.64602e-09
-4.5464e-09
1.09148e-08
2.20893e-09
1.24493e-09
-4.90359e-09
-1.74486e-08
1.0397e-08
1.19552e-08
9.23087e-10
-1.05827e-08
-9.63097e-09
1.53101e-08
1.19577e-08
2.68876e-09
-9.49385e-09
-1.31633e-08
-2.41225e-10
-1.2336e-08
3.42347e-10
-5.95822e-10
1.08776e-08
1.23848e-08
-8.00623e-09
1.59781e-08
-1.52627e-08
3.43969e-09
-5.03484e-10
1.61128e-09
1.22369e-08
-3.86128e-09
-1.22952e-08
-5.13101e-09
3.78478e-10
4.47479e-09
1.1799e-08
-7.54235e-09
8.11418e-10
-1.05722e-09
1.9359e-09
-2.46556e-09
5.92783e-09
2.60135e-08
-8.9411e-10
-1.34402e-08
1.43343e-08
2.75369e-08
-2.18347e-08
2.18187e-08
1.92426e-08
-1.23982e-08
-2.48404e-09
1.47576e-08
1.0108e-10
-1.18759e-08
-3.58997e-10
-5.99755e-09
-2.02089e-09
2.46799e-09
1.76182e-09
2.75556e-10
-1.05845e-08
1.05425e-08
-2.33574e-10
1.96715e-09
-5.51236e-09
-1.0427e-08
1.01276e-08
-6.0262e-10
-1.01769e-08
-7.23779e-12
-1.02886e-08
-2.97336e-09
-1.16347e-08
2.32715e-09
7.70458e-09
5.0644e-09
3.48831e-10
-1.13463e-08
1.1273e-08
7.21123e-10
-8.33617e-09
5.28495e-09
-6.14351e-10
2.82146e-09
-3.50021e-09
-1.28328e-08
-1.34424e-08
1.28971e-08
-9.78238e-09
-1.57072e-08
9.98694e-09
8.9917e-09
8.25076e-10
2.53426e-09
-1.59745e-08
1.06406e-08
1.66622e-09
4.06622e-09
4.14813e-10
-6.63175e-10
-4.89029e-10
-4.00406e-09
2.76853e-09
-1.76664e-09
4.47971e-10
-5.2255e-10
7.45788e-11
-2.41373e-09
1.23818e-08
1.98961e-09
2.53037e-09
-1.29718e-09
-1.95153e-09
1.90757e-11
-2.65646e-09
-8.22138e-10
1.25451e-08
9.64745e-09
-5.71837e-10
7.1724e-09
-1.17872e-09
-5.42184e-09
-9.74139e-09
-5.01845e-09
3.51854e-10
9.61174e-11
4.38642e-09
1.44873e-09
-1.64178e-08
-6.95634e-10
-9.87904e-10
-2.00182e-09
7.18406e-10
2.50141e-09
6.18373e-08
-2.30165e-11
-6.18143e-08
6.2621e-08
1.33497e-10
-6.27545e-08
-1.41035e-08
1.65456e-10
1.44493e-08
-5.11285e-10
2.49588e-09
-2.14521e-09
2.88531e-09
1.78469e-09
-4.4776e-09
-6.44875e-10
-6.94982e-10
5.63998e-10
-1.67644e-10
6.85133e-10
-5.06466e-10
1.86185e-08
1.11792e-09
-1.535e-08
-3.70819e-10
-1.96772e-09
1.20141e-08
2.19045e-09
1.75108e-09
4.89721e-09
-1.70745e-09
-7.81677e-08
-2.40349e-08
-4.8377e-09
1.55321e-08
2.35375e-09
-9.62926e-10
-3.46018e-09
-1.46199e-09
8.17147e-10
-6.88441e-10
-1.32638e-08
-3.18468e-10
1.35823e-08
-1.05329e-08
-6.6791e-09
1.04712e-08
-9.15192e-09
8.90619e-09
-2.68495e-10
2.01355e-09
1.27445e-08
-1.24336e-08
-3.10961e-10
8.05512e-10
4.75838e-11
9.39174e-09
1.14355e-09
-1.29129e-09
-4.39195e-10
-1.41303e-08
-5.19257e-10
-1.32007e-08
1.188e-08
-1.12634e-08
-6.60237e-08
6.49402e-08
1.08355e-09
5.83826e-10
-5.8284e-10
1.14975e-08
-5.48505e-10
2.59555e-11
-1.80293e-09
2.75428e-09
-3.3713e-09
-1.3491e-08
-1.60784e-09
2.52356e-09
-4.55232e-09
-1.37087e-08
1.84317e-09
5.61565e-09
9.31676e-09
-8.68659e-09
-5.76369e-10
2.78648e-11
-9.36509e-09
-1.23251e-08
1.1808e-10
-6.27833e-08
2.96546e-10
6.24868e-08
6.98311e-10
6.34922e-08
-1.69495e-10
-7.32816e-10
-1.42258e-08
1.41882e-10
-6.33435e-08
6.32016e-08
1.2075e-10
-6.29996e-08
6.28789e-08
6.14093e-10
6.13904e-08
2.32654e-10
-6.16231e-08
6.12902e-08
1.0022e-10
-8.78505e-08
8.84579e-08
3.48465e-12
9.30927e-08
-9.30288e-08
-1.63061e-10
-8.65989e-08
-4.17267e-10
9.27699e-08
4.37614e-12
-8.48994e-08
-7.53639e-10
9.25817e-08
3.43469e-10
-5.39979e-10
2.11011e-09
9.12206e-08
-6.93837e-08
6.19052e-08
-6.22178e-08
-6.30521e-08
6.12588e-08
3.14061e-11
-3.01849e-09
2.66489e-09
-1.33626e-08
1.01712e-10
2.50142e-10
2.57347e-09
1.0164e-08
-1.22456e-08
3.8379e-08
-3.45614e-08
-1.62782e-08
1.40914e-08
-9.79362e-11
-2.13659e-10
3.56656e-10
9.98697e-10
-2.04225e-10
4.36632e-10
4.70181e-09
1.07562e-09
-3.87776e-09
-5.06403e-10
5.79799e-10
-4.10446e-10
-2.409e-09
1.26132e-08
2.17766e-09
-1.44082e-08
-2.19145e-09
-3.85793e-09
5.69653e-09
1.10596e-09
-2.35301e-09
1.39566e-08
-1.2066e-09
-4.96314e-09
8.00093e-09
-7.76431e-09
-1.88565e-08
-1.28144e-08
7.63431e-09
5.76797e-09
-3.25131e-10
-5.16325e-10
3.30945e-09
1.43046e-08
1.62149e-09
-1.08278e-09
-5.00481e-10
5.35144e-10
-3.17379e-10
1.58487e-08
-4.5827e-10
-1.57089e-08
-5.34968e-09
-2.91655e-09
2.90115e-10
-2.52799e-10
4.50599e-09
-1.86323e-08
6.89542e-10
-1.75862e-09
-2.38861e-09
-2.1768e-09
1.51339e-08
-9.0514e-08
-2.68942e-10
9.17563e-08
-2.82122e-10
-8.91647e-08
-4.40079e-10
9.31489e-08
-1.4007e-10
-9.30318e-08
-6.78142e-10
-1.85237e-09
1.59834e-08
9.2107e-08
-7.45495e-11
-8.55456e-12
-4.94061e-11
1.14393e-08
2.04648e-09
-1.02743e-08
-1.17642e-08
-5.51305e-09
8.44632e-09
1.39022e-09
-6.9122e-09
-6.56306e-09
9.1278e-09
-2.89884e-10
1.0144e-08
1.90079e-08
-1.75756e-08
3.00423e-09
-1.23266e-08
3.03566e-09
-7.00756e-08
4.05192e-09
-2.02871e-08
-1.24504e-08
-6.37867e-10
-5.71503e-09
-1.53797e-08
9.21886e-09
-1.51102e-08
6.17562e-10
5.24497e-10
-1.44388e-09
-1.5984e-08
1.65414e-08
1.00201e-08
-9.95146e-09
-5.54697e-09
1.46895e-08
-1.55326e-09
8.2035e-10
-1.57894e-09
6.59165e-10
1.2001e-08
3.43741e-09
7.09795e-08
-1.78481e-08
9.7189e-10
-1.44787e-08
-3.29902e-10
-3.72155e-10
-2.53373e-10
6.10142e-08
-6.11543e-08
-6.3352e-08
-6.30742e-08
-2.39442e-10
-1.04538e-10
-9.26878e-08
-6.11496e-08
6.32597e-08
6.50594e-08
-6.08061e-08
6.45194e-08
-6.08017e-08
6.37658e-08
-6.09648e-08
6.33485e-08
9.24265e-08
4.1639e-10
-6.56147e-09
7.49452e-08
-6.49463e-08
1.43889e-10
-1.43889e-10
2.32925e-09
-3.88397e-10
1.54722e-08
-1.67954e-10
1.67954e-10
5.35186e-10
1.327e-09
1.41018e-08
1.27382e-08
-2.55512e-09
3.57553e-09
6.45464e-09
1.91017e-09
4.90721e-10
-3.52232e-10
-2.86288e-09
1.42932e-08
1.47958e-08
-4.33699e-09
1.14548e-08
2.90383e-10
2.27719e-10
3.03019e-09
-1.06662e-09
-1.82182e-09
-5.88209e-09
-1.53937e-10
-5.1738e-10
1.51709e-08
4.02814e-10
1.92531e-10
1.69838e-08
-2.51421e-08
1.70561e-08
2.5341e-09
1.52568e-09
2.08002e-09
-3.47531e-09
1.8865e-08
-1.74697e-08
-1.57191e-10
1.01589e-09
-1.4659e-09
-7.91271e-08
-7.08496e-08
1.48563e-09
-1.23877e-09
7.46713e-10
2.26914e-08
1.81353e-08
-6.43206e-09
2.12167e-10
-4.52805e-09
-1.85623e-09
3.00837e-08
1.29941e-10
1.4908e-08
7.24464e-08
1.2193e-10
5.86935e-10
-2.39446e-10
-3.12119e-10
-3.91887e-09
2.35237e-08
-1.46891e-08
1.26275e-09
-1.37129e-08
-1.06254e-10
2.01568e-08
-2.79461e-08
9.03512e-10
2.65125e-09
-7.59104e-10
)
;

boundaryField
{
    back
    {
        type            empty;
        value           nonuniform 0();
    }
    ingreso
    {
        type            calculated;
        value           nonuniform List<scalar> 
14
(
-1.54286e-08
-1.54288e-08
-1.54288e-08
-1.54288e-08
-1.54286e-08
-1.54283e-08
-1.54288e-08
-1.54288e-08
-1.54286e-08
-1.54286e-08
-1.54288e-08
-1.5428e-08
-1.5428e-08
-1.54286e-08
)
;
    }
    salida
    {
        type            calculated;
        value           nonuniform List<scalar> 2(1.02203e-07 1.13798e-07);
    }
    front
    {
        type            empty;
        value           nonuniform 0();
    }
    defaultFaces
    {
        type            calculated;
        value           uniform 0;
    }
}


// ************************************************************************* //
