/*--------------------------------*- C++ -*----------------------------------*\
  =========                 |
  \\      /  F ield         | OpenFOAM: The Open Source CFD Toolbox
   \\    /   O peration     | Website:  https://openfoam.org
    \\  /    A nd           | Version:  7
     \\/     M anipulation  |
\*---------------------------------------------------------------------------*/
FoamFile
{
    version     2.0;
    format      ascii;
    class       volScalarField;
    location    "96";
    object      p;
}
// * * * * * * * * * * * * * * * * * * * * * * * * * * * * * * * * * * * * * //

dimensions      [0 2 -2 0 0 0 0];

internalField   nonuniform List<scalar> 
591
(
0.000123839
0.000123856
0.000123859
0.000123807
0.000123811
0.000123881
0.00012387
0.000123845
0.000116964
0.000123865
0.000124052
0.000122801
0.000123851
0.000119691
0.000123845
0.000123888
0.000123843
0.000123893
0.00012192
0.000123226
0.000123827
-3.5241e-06
0.000124047
0.000123829
0.000124004
0.000123852
0.000123966
0.000123962
0.000123865
0.000123873
0.000124023
0.000123998
0.000124018
0.000124017
0.000124019
0.000123339
0.000124014
0.00012383
0.000124042
0.00012396
0.000123909
0.00012401
0.000123859
0.000123884
0.000124007
0.000124028
0.000119195
0.000124032
0.000123863
0.000123979
0.000123983
0.000124012
2.39469e-05
3.05933e-05
4.78414e-05
0.000123857
0.000124037
0.000124029
0.00012403
0.000123838
0.000123925
0.000123856
0.000123853
0.000123903
0.00012253
0.000123855
0.000123859
0.000124027
0.000120695
0.000123871
0.000123863
0.000124034
0.000124009
0.000124012
0.000124018
0.000123994
0.000123832
0.000124031
0.000123834
0.000123774
0.000123608
0.000124035
0.000123995
0.000123979
0.000124043
0.000123846
0.000123931
0.000124025
0.000123989
0.000123738
0.000124
0.000123952
0.000123963
0.000123837
0.000124041
0.000123995
0.000123539
0.000123438
0.000123611
0.000124047
0.000123954
0.000123883
0.000124052
0.000123803
0.000124053
0.000123857
0.000123854
0.000123997
0.000124046
0.000124049
0.000123941
0.000124025
0.00012387
0.000124027
0.000124045
0.000124031
0.000123985
0.000123978
0.000123547
0.000123953
0.000123857
0.000123848
0.000123948
0.000123834
0.00012401
0.000120162
0.000124053
0.000124031
0.000123605
0.000124019
0.000123846
0.000123531
0.000123992
0.000123982
0.000124022
0.000123862
0.000122592
0.00012405
0.000123848
0.000123538
0.000123609
0.000123947
0.000124035
0.000124043
0.000124036
7.61797e-06
3.67973e-06
2.07244e-06
3.81639e-05
3.67037e-05
5.66247e-06
3.83164e-05
1.57422e-05
3.72999e-05
1.78092e-05
0.000123857
0.000123848
0.000124041
0.000124032
0.00012404
0.000124039
0.000124031
0.000124027
0.000124042
0.000124039
0.000124006
0.00012404
0.000124036
0.000124043
0.000123987
0.000123359
0.000124043
0.000122095
0.000124028
0.000124022
0.000123973
0.000123866
0.000124022
0.000124038
0.000124038
0.000123457
0.000122441
0.000123015
0.000123406
0.000124026
0.000124034
0.000123928
0.000123826
0.000124029
0.000122936
0.000123264
0.000123826
0.00012402
0.000123715
0.000124014
0.000124036
0.000124011
0.000123683
0.000123817
0.000124033
0.000124037
0.000124038
0.000123839
0.000124018
0.000123835
0.000124046
0.00012385
0.00012385
0.000124042
0.000123641
0.000123818
0.00012386
0.000123501
0.000123995
0.000123646
0.000123935
0.000123953
0.000124026
0.000123413
0.000123922
0.000123811
0.00012381
0.000123994
0.000123757
0.000123906
0.000123824
0.000123738
0.000123802
0.000124046
0.000123803
0.000124044
0.000123898
0.000124023
0.000123865
0.000123867
0.000124049
0.000123752
0.000124034
0.000123741
0.00012379
0.000123854
0.000123833
0.000123872
0.000123858
0.000123628
0.000123831
0.000123785
0.000123998
0.00012385
0.000123709
0.000123989
0.000123256
0.000123821
0.000123147
0.000123034
0.000123841
0.000123805
0.000123843
0.00012384
0.000123815
0.000124048
0.000123886
0.000123961
0.000123902
0.000123891
0.000123903
0.000124002
0.000123651
0.000124044
0.000123686
0.000123573
0.000123874
0.000124022
0.000123598
0.000124037
0.000123949
0.000123958
0.000123989
0.000123866
0.000123841
0.000123681
0.000123799
0.000123837
0.000123882
0.000123944
0.000124007
0.000124025
0.000124031
0.000123784
0.000123893
0.000124018
0.000124025
0.000124019
0.000123808
0.000124033
0.000123908
0.00012402
0.000123769
0.000124033
0.000123756
0.000124009
0.000123897
0.00012384
1.16425e-05
2.19146e-05
0.000123779
0.000123862
0.000124047
0.00012379
0.000124047
0.000123873
0.000124033
0.000124009
0.000123738
0.000124004
0.00012383
0.000124044
0.000123865
-2.09553e-07
0.000123742
0.000124015
0.00012401
0.000123697
0.00012386
0.000123904
0.000124004
0.000123752
0.000124026
0.000123906
0.000123857
0.000124002
0.000123802
0.000123727
0.000123765
0.000123867
4.74919e-05
0.000124021
0.000124
0.000123856
0.000124028
0.000123934
0.000123878
0.000123862
0.000123845
0.000124013
0.000123872
0.000123777
0.000123911
0.000123782
0.000124026
0.000123789
0.00012385
0.000123884
0.000123968
1.98743e-05
2.73121e-05
3.42996e-05
9.63979e-06
0.000123829
3.30599e-05
2.60184e-05
0.000124024
1.90749e-05
1.70307e-05
3.81887e-05
7.57674e-06
3.99401e-05
5.60538e-06
4.08337e-05
3.68928e-06
4.28156e-05
1.87661e-06
3.64131e-05
2.31964e-05
2.94468e-05
1.49929e-05
0.000123714
0.000124035
0.000123897
0.000123909
0.000120859
0.000123948
0.00012403
0.000124
0.000123794
0.000124035
0.000124041
0.000124015
0.000124012
0.000123773
0.000123846
0.000124025
0.000124031
0.000123866
0.000123727
0.000123814
0.000123374
0.000123826
0.000124051
0.000124019
0.000123857
0.000124042
0.000123698
0.000123885
0.000123658
0.000122815
0.000124013
0.000124025
0.00012405
0.000123714
0.000123911
0.000123656
0.000123872
0.000123863
2.60538e-05
2.18793e-05
3.30392e-05
1.16186e-05
0.000124053
0.000123706
1.98211e-05
2.8261e-05
3.5606e-05
9.58857e-06
0.000123875
0.000123956
0.000123818
0.000123827
0.000123847
0.000123992
0.000123782
0.000124009
0.000123958
0.000123069
0.00012383
0.000123796
5.93818e-05
0.000123195
0.00012404
0.000123841
0.00012373
0.000124029
0.000124032
0.000123821
0.00012362
0.000123852
0.000123899
0.000123705
0.000123985
0.000122865
0.000123777
0.000123803
0.000124001
0.000100859
0.000123847
0.000123455
0.000123766
0.00012404
0.000123668
1.08964e-05
2.11152e-05
3.53715e-05
2.82108e-05
1.36624e-05
5.55133e-08
4.20878e-05
2.69067e-06
4.01622e-05
4.76263e-06
3.94202e-05
6.81529e-06
3.86279e-05
8.85784e-06
3.7294e-05
1.36742e-05
3.17312e-05
3.0595e-05
2.39421e-05
2.52644e-05
1.77663e-05
1.29387e-05
1.57083e-05
0.000124034
0.000102378
0.000123828
0.000123756
0.000124038
0.000123929
0.000124044
0.000123757
0.000123885
0.000124005
0.000124
0.000124005
0.000123756
0.000123852
0.00012377
0.000123963
0.000123787
0.000124038
0.000123915
0.000123745
0.000123752
0.000123862
0.000123856
0.000124045
0.000124036
0.000124048
0.000124004
0.00012405
0.000123672
0.000123851
0.00012404
0.000123796
0.000123928
0.000123858
0.00012391
0.000123739
0.000124004
0.000124003
0.000123314
0.000121338
0.00012304
0.000123586
0.000123851
0.000123681
0.000123863
0.000124045
0.000124015
0.000123857
0.000123472
0.00012345
0.000124039
0.000124006
0.000123875
0.00012397
0.000123513
5.83103e-05
4.01214e-05
0.000123976
0.000123994
0.000123355
0.000122714
0.000123838
0.000123595
0.000123342
0.000123847
0.00012377
0.000124034
0.00012388
0.000123913
0.000118972
5.44668e-05
0.000123881
8.12529e-05
1.86216e-06
-3.80712e-07
0.000123847
0.000123815
0.000124005
0.000124048
0.000124041
0.000124039
0.000124043
0.000123833
-2.30682e-06
0.00012279
0.000123874
0.000123982
0.000121977
0.000124037
0.000124038
0.000122255
0.000123952
0.000124007
0.000121655
0.000124046
7.6327e-05
0.000124036
0.000123739
0.000123998
0.00012234
0.000123559
0.000123634
0.000123883
0.000124048
0.000123991
0.000124037
0.00012405
0.000123838
0.00011614
)
;

boundaryField
{
    back
    {
        type            empty;
    }
    ingreso
    {
        type            zeroGradient;
    }
    salida
    {
        type            fixedValue;
        value           uniform 0;
    }
    front
    {
        type            empty;
    }
    defaultFaces
    {
        type            zeroGradient;
    }
}


// ************************************************************************* //
