/*--------------------------------*- C++ -*----------------------------------*\
  =========                 |
  \\      /  F ield         | OpenFOAM: The Open Source CFD Toolbox
   \\    /   O peration     | Website:  https://openfoam.org
    \\  /    A nd           | Version:  7
     \\/     M anipulation  |
\*---------------------------------------------------------------------------*/
FoamFile
{
    version     2.0;
    format      ascii;
    class       volVectorField;
    location    "96";
    object      U;
}
// * * * * * * * * * * * * * * * * * * * * * * * * * * * * * * * * * * * * * //

dimensions      [0 1 -1 0 0 0 0];

internalField   nonuniform List<vector> 
591
(
(0.00083636 -7.76785e-06 1.21651e-18)
(0.000831595 -7.4162e-06 -6.62131e-19)
(0.000854605 1.56085e-05 5.7031e-20)
(0.000866837 -2.37481e-05 -1.49029e-19)
(0.000854279 -8.95553e-06 2.2546e-19)
(0.000803526 -3.87477e-05 -1.39578e-19)
(0.00056441 -0.000232519 8.06002e-19)
(0.000803804 4.38036e-06 2.10547e-18)
(0.00572481 0.00250983 9.87964e-19)
(0.000813882 -2.68298e-06 2.4469e-18)
(4.62299e-05 0.000161544 1.21794e-18)
(0.000938241 0.00139305 9.40747e-21)
(0.000801167 4.20287e-06 1.32262e-18)
(0.00160288 0.00240365 -7.87389e-19)
(0.000803309 1.47388e-06 -4.46223e-19)
(4.62823e-05 -0.000157893 2.23897e-22)
(0.000140499 0.000670588 7.04818e-19)
(0.000817705 7.8896e-05 -4.96907e-19)
(0.00190004 0.000392246 4.73765e-19)
(0.00135977 0.00025606 -2.47068e-19)
(0.000831745 -8.75394e-06 3.73105e-19)
(0.00340047 0.0065598 -8.14682e-20)
(2.35438e-05 6.44397e-05 2.70875e-19)
(0.000836123 -2.46785e-05 -4.51511e-19)
(6.7472e-06 -1.16704e-05 3.58818e-19)
(0.000790158 4.20509e-05 0)
(9.45199e-05 0.000467749 1.59934e-19)
(0.000570785 -6.1413e-07 -1.78783e-19)
(0.000764104 4.69883e-05 1.14914e-18)
(0.000806802 6.91864e-05 5.84605e-19)
(4.98991e-05 -5.41279e-06 -4.99399e-24)
(2.27069e-05 -3.96629e-05 3.52075e-19)
(2.8979e-05 -2.58985e-06 -4.64091e-20)
(3.83549e-05 -1.22344e-05 0)
(4.69769e-05 -1.28687e-05 1.13113e-18)
(0.00117109 0.00013941 1.79847e-19)
(2.43749e-05 -4.28509e-06 4.47018e-20)
(0.000824359 4.86241e-07 3.13695e-23)
(2.3442e-05 3.88265e-05 2.65955e-19)
(-5.42395e-06 -6.48662e-05 -8.53602e-19)
(0.00065816 -0.000192811 9.58777e-19)
(1.8925e-05 -5.09049e-06 4.54696e-20)
(0.00081277 1.65446e-05 -1.57938e-18)
(0.000832179 4.97481e-05 -6.90947e-19)
(1.22639e-05 -5.74176e-06 0)
(4.86481e-05 4.10949e-06 8.51631e-20)
(0.00134881 0.00450322 8.92834e-19)
(6.86321e-05 1.08301e-05 8.63384e-20)
(0.000802367 1.65295e-05 0)
(0.000393352 -0.000229709 6.77028e-19)
(0.000389388 0.000266881 5.11788e-21)
(0.000403285 3.36977e-05 -1.0035e-18)
(0.00634782 0.0109405 -7.68663e-19)
(0.00622447 0.0107955 1.52795e-20)
(0.00561441 0.0103783 1.45595e-18)
(0.000805908 4.59848e-05 0)
(6.14936e-05 2.56871e-05 0)
(0.000319917 -5.16105e-06 2.48476e-23)
(5.63298e-05 6.91426e-06 -3.46361e-19)
(0.000812443 -7.05259e-06 0)
(0.000660746 2.8466e-05 3.17462e-19)
(0.000844886 2.56671e-05 2.20754e-18)
(0.000810482 3.83763e-05 -5.3784e-19)
(0.000800075 1.17656e-05 -3.15663e-19)
(0.00171343 0.000487474 5.42526e-19)
(0.00080981 3.08105e-05 -1.14738e-18)
(0.00083782 3.47033e-05 -5.2395e-19)
(7.09891e-05 -6.94909e-06 -1.73362e-19)
(0.000690035 0.0022587 0)
(0.000844939 4.84902e-05 0)
(0.000791183 2.56164e-05 -1.39258e-18)
(3.3837e-05 1.34202e-05 0)
(0.000292874 0.00026368 3.26768e-19)
(3.28115e-05 -1.54647e-05 0)
(3.48175e-05 -5.51887e-06 1.59428e-19)
(6.73978e-06 -3.52412e-05 -3.3657e-20)
(0.000802291 7.89377e-05 2.469e-19)
(3.92552e-05 8.40234e-06 0)
(0.000811353 5.54386e-05 4.47415e-19)
(0.000781308 0.000295301 2.10668e-19)
(0.000961124 6.78001e-05 -3.977e-20)
(3.85378e-05 1.95697e-05 -4.51735e-20)
(3.66886e-06 -1.24734e-05 0)
(0.000442361 0.000211114 1.70141e-19)
(2.69725e-06 1.67469e-05 0)
(0.00080563 4.68369e-05 -6.07474e-19)
(0.000643997 -0.00011586 0)
(5.70104e-05 -4.57272e-06 -1.74431e-19)
(1.16841e-06 -1.74204e-05 0)
(0.00083589 0.000241846 -3.41158e-19)
(2.15595e-06 -6.98122e-06 0)
(0.000431863 0.000319781 -1.34744e-23)
(0.000543934 0.000107904 0)
(0.000815711 4.39737e-05 -3.05955e-24)
(2.21131e-06 1.00232e-05 -4.21594e-20)
(0.000471901 -2.73508e-05 1.76299e-18)
(0.00101875 7.33095e-05 4.15884e-20)
(0.00078732 4.7061e-05 6.41506e-22)
(0.000747173 0.000659555 2.6943e-19)
(6.89772e-06 3.94823e-05 0)
(-6.00187e-06 -2.00797e-05 -3.1217e-19)
(-3.69186e-05 -2.28389e-05 -1.10177e-18)
(4.99312e-06 6.53007e-05 -5.96203e-19)
(0.000594679 -2.8464e-05 0)
(9.11705e-06 8.87068e-05 0)
(0.000820363 3.39767e-05 2.18152e-18)
(0.000800008 3.60205e-05 1.53384e-18)
(0.000449306 -0.000110842 0)
(3.91503e-05 0.000208079 -8.9512e-19)
(1.1306e-06 0.000151979 4.96763e-19)
(5.63818e-05 0.00039126 6.25117e-19)
(0.000311135 6.65776e-05 -9.36936e-19)
(0.000801906 1.99726e-05 1.37377e-19)
(0.000257215 -6.96296e-05 5.31066e-19)
(4.20098e-06 2.50028e-05 0)
(1.88214e-05 0.000269785 -1.09389e-18)
(0.000325872 0.00031864 -1.61666e-19)
(-1.68698e-06 -1.50029e-05 1.46529e-19)
(0.000669959 0.000806399 0)
(0.000374309 0.000381292 5.74275e-20)
(0.000825017 2.85249e-05 1.07034e-18)
(0.000799731 1.73106e-06 -2.72437e-18)
(6.37396e-06 7.15289e-06 0)
(0.000659742 -4.09069e-05 -1.12277e-19)
(0.000323832 -0.00014811 1.24284e-18)
(0.00262164 0.000810279 -3.36505e-19)
(7.99109e-06 0.000117933 -6.13107e-19)
(8.46369e-06 0.000145965 1.61943e-18)
(0.000660452 2.54432e-05 -3.89693e-20)
(5.45479e-05 -1.62827e-05 -7.49951e-19)
(0.000811691 3.85902e-05 -3.89975e-19)
(0.000710979 2.7538e-05 -4.10434e-20)
(3.17782e-05 0.000316631 -5.97018e-19)
(0.000502789 5.25173e-05 -4.93795e-19)
(4.16196e-05 -4.32212e-06 1.56107e-19)
(0.00084183 4.07084e-05 -1.08799e-18)
(0.00153238 0.000234808 -1.13654e-18)
(5.15249e-06 5.24946e-05 4.96293e-19)
(0.000813231 3.66995e-05 -5.03375e-19)
(0.000924159 0.000553798 -7.8489e-20)
(0.000149691 0.000779464 0)
(0.000600463 6.24009e-05 0)
(0.000278212 4.07565e-05 -1.60909e-18)
(5.89449e-05 5.23386e-05 -1.37372e-18)
(2.71139e-05 1.75857e-05 0)
(0.00424769 0.00740081 -1.01965e-20)
(0.0042258 0.00737244 3.16588e-20)
(0.00442798 0.00757518 -4.9799e-21)
(0.00420563 0.0077335 0)
(0.0041981 0.00759931 5.7729e-19)
(0.00424466 0.00740192 -9.20228e-20)
(0.00420938 0.00804092 4.84523e-19)
(0.00429041 0.00742327 0)
(0.00420778 0.00853374 6.16842e-19)
(0.00432697 0.00745193 2.23938e-19)
(0.000834885 2.14743e-05 -1.37235e-18)
(0.000783384 6.11933e-05 0)
(0.000210526 3.868e-05 1.27668e-19)
(4.48213e-05 1.24223e-05 8.716e-20)
(7.25743e-05 3.80419e-05 6.79832e-19)
(9.91131e-05 3.26654e-05 -3.41575e-19)
(9.09991e-05 -1.95519e-06 0)
(4.18954e-05 2.85465e-06 8.18138e-20)
(0.000207844 0.000120854 0)
(0.00016015 2.8255e-05 -5.24182e-20)
(0.000348075 0.000214639 -5.09132e-21)
(5.12843e-05 3.75086e-05 -4.37533e-19)
(8.38135e-05 1.98852e-05 -8.52236e-20)
(8.54294e-05 5.40727e-05 1.31159e-21)
(0.000261634 0.000359667 -6.66021e-19)
(0.000110175 0.000991104 0)
(3.85543e-05 4.71676e-05 3.42967e-19)
(0.000199618 0.00174101 0)
(0.000208906 0.00024577 7.04493e-19)
(3.08459e-05 -2.9939e-06 1.11463e-19)
(0.00049397 0.000159406 -1.72257e-19)
(0.0007758 2.74188e-05 -1.9236e-18)
(3.65305e-05 -1.73823e-06 4.77144e-24)
(0.00014025 1.32347e-05 2.24531e-19)
(0.000246537 7.96514e-05 -8.99092e-20)
(0.000883026 0.000695657 3.34864e-19)
(0.000727562 0.00163461 -9.23322e-21)
(0.000397052 0.00141873 -9.38218e-21)
(0.00103064 0.000547559 0)
(9.04434e-05 -2.0959e-05 1.1184e-18)
(0.00010695 5.26333e-06 -4.42871e-20)
(0.000472722 -0.000271237 -1.13605e-18)
(0.000824687 4.34608e-05 0)
(0.000175331 -1.62091e-05 3.63213e-19)
(0.000305541 0.00129737 0)
(0.00108908 0.000774106 -7.30024e-20)
(0.000827087 2.79668e-05 -1.86496e-19)
(6.57729e-05 -2.39397e-05 -2.99894e-19)
(0.000841428 0.000314735 -2.07988e-20)
(4.4841e-05 -2.11487e-05 -5.99317e-19)
(0.000227822 0.000165603 8.6367e-20)
(0.000231998 0.000303856 -3.44929e-19)
(0.000897921 0.00025304 0)
(0.000826342 5.74707e-05 0)
(0.000267117 0.000122402 1.76802e-19)
(0.000232215 -1.7284e-05 6.92681e-24)
(0.000185081 0.000197635 0)
(0.000306713 0.000645471 -5.55577e-21)
(0.000361879 -3.00948e-05 0)
(0.000382478 0.000598175 0)
(0.000104002 7.32717e-05 -1.34634e-21)
(0.000810678 3.1211e-05 -9.57155e-19)
(0.000805356 1.72652e-05 7.97137e-19)
(0.0001234 4.70902e-05 -1.49816e-19)
(0.00097281 0.000145974 8.50146e-20)
(0.000841176 3.83369e-05 3.33563e-19)
(0.000822385 3.47882e-05 -2.93996e-19)
(0.00103298 0.000420956 0)
(0.000448502 0.000108801 6.24258e-19)
(0.000913343 0.000323668 2.09078e-20)
(0.000592327 0.000150587 0)
(0.000275012 0.000443905 4.0955e-19)
(0.000263169 0.000208355 -8.43974e-20)
(0.00110424 0.000384507 -7.81892e-19)
(0.000640212 0.000102469 -1.79237e-19)
(0.000821919 7.64843e-05 -7.45802e-21)
(0.000845699 2.338e-05 9.39998e-20)
(5.33389e-05 -8.55028e-05 -1.98075e-18)
(0.000746112 0.000379595 2.19179e-19)
(0.00068563 6.91125e-05 2.30579e-20)
(0.00071656 0.000279015 1.62256e-23)
(0.00074012 0.000461595 -4.09577e-19)
(0.000853474 1.65839e-05 9.06799e-20)
(6.79627e-05 7.17449e-05 0)
(0.000663486 0.000424758 -4.65801e-20)
(0.000181646 8.32986e-05 0)
(0.000374245 0.00050159 -2.6478e-19)
(0.00031243 0.000157408 0)
(0.000685431 0.000205765 3.55122e-19)
(0.000659904 0.000259482 -4.37129e-20)
(7.92141e-05 9.70699e-05 6.18987e-19)
(0.000885881 9.71438e-05 -1.63863e-18)
(5.19391e-05 1.77576e-05 2.57119e-19)
(0.000898573 7.389e-05 -1.68604e-18)
(0.000849604 9.0923e-05 1.63034e-19)
(0.000814745 3.72849e-05 1.91213e-18)
(0.000822301 3.32352e-05 -1.32806e-19)
(0.000746431 7.04825e-05 0)
(0.000805257 1.96397e-05 8.95359e-19)
(0.000973206 0.000237578 -4.26967e-19)
(0.000788848 0.000100666 -4.83591e-19)
(0.000783471 0.000237593 -8.80957e-20)
(0.000195542 -0.000194918 -2.07511e-18)
(0.000763688 8.15235e-05 8.87268e-19)
(0.000644164 0.000591671 0)
(5.88852e-05 -0.000122511 0)
(0.00122996 0.000476058 4.97155e-19)
(0.000552973 -5.6332e-05 -3.27076e-18)
(0.00135526 0.000417375 5.76289e-19)
(0.00125442 0.000719611 -6.38838e-20)
(0.000817152 3.42557e-05 -2.12691e-19)
(0.000843862 6.67302e-05 -1.42772e-18)
(0.000814524 2.77542e-05 1.58709e-18)
(0.000815116 2.07819e-05 9.7775e-20)
(0.000675541 0.000353455 -4.40284e-20)
(9.88294e-05 0.00011343 8.38686e-24)
(0.000765711 -2.93141e-05 2.64916e-19)
(0.00020789 -0.000260218 -7.3107e-19)
(0.000639999 0.000182553 0)
(0.000725762 5.11411e-05 9.90078e-20)
(0.000719523 9.64879e-06 -3.8069e-19)
(0.000396844 0.000163059 3.9326e-20)
(0.000812976 0.000510371 -1.65434e-19)
(0.000144727 6.45044e-05 3.94355e-25)
(0.000820374 0.00041307 0)
(0.000989774 0.000315669 4.15643e-20)
(0.000769483 -6.16471e-05 -6.15935e-19)
(0.000355573 9.35194e-05 4.97693e-19)
(0.000905382 0.000427953 0)
(4.44832e-05 2.69619e-05 1.33673e-19)
(0.000494893 0.000261537 2.13893e-19)
(0.000546697 -0.000171258 -7.09215e-19)
(9.40812e-05 -0.000175374 -1.05569e-18)
(0.000826993 4.05876e-05 -4.86558e-19)
(0.000760933 -6.37839e-05 -1.94511e-19)
(0.000550542 0.000728907 -1.17411e-18)
(0.000855597 4.62475e-05 -6.74415e-20)
(0.000567029 -1.06061e-05 1.28205e-18)
(0.000718813 9.95164e-05 2.27708e-20)
(0.000544305 0.000203719 -1.6564e-19)
(2.38733e-05 -1.87187e-05 -8.75599e-20)
(0.000150011 -6.05137e-05 2.40531e-18)
(1.24372e-05 5.41737e-07 -1.948e-19)
(0.000843063 0.000119346 3.63633e-19)
(0.000681805 0.00013485 0)
(0.000170167 -0.000111205 -1.0479e-18)
(0.000111091 -2.76899e-05 3.12712e-19)
(9.21533e-05 -4.12095e-05 1.42383e-23)
(0.00081075 0.000105427 -3.19165e-19)
(0.0001447 -2.3544e-05 0)
(0.000596715 0.000238218 0)
(0.000111385 0.000322153 -3.62764e-19)
(0.000869191 0.000101697 2.10778e-18)
(1.01118e-05 7.20931e-07 0)
(0.000888807 5.22353e-05 0)
(3.51778e-05 -2.46913e-05 0)
(0.000815217 4.89259e-05 -4.4666e-21)
(0.000782796 -2.94691e-05 0)
(0.00426082 0.00740751 8.07089e-20)
(0.00436289 0.00748798 1.43358e-19)
(0.000842778 -1.73292e-05 0)
(0.00079838 -3.4499e-05 8.11837e-19)
(0.000151493 0.000115208 1.4917e-19)
(0.000862872 6.67383e-05 8.08005e-19)
(0.000126584 9.25547e-05 2.34331e-20)
(0.000792095 -2.06061e-05 6.24039e-19)
(3.05671e-05 7.8546e-06 0)
(2.23037e-05 -1.13283e-05 -4.4835e-20)
(0.000907276 4.73881e-05 -4.86393e-19)
(2.47145e-05 -2.81075e-05 -6.6961e-19)
(0.000769579 0.000126681 -4.23105e-20)
(0.000169214 0.000152936 -1.88051e-19)
(0.000813882 3.18719e-05 0)
(0.00468253 0.0081536 9.00731e-22)
(0.000193534 0.000791715 3.33382e-19)
(9.78957e-05 -6.75923e-05 -9.14264e-19)
(4.98262e-05 -3.45935e-05 -1.16845e-18)
(0.000592239 1.30636e-05 1.89685e-20)
(0.000585408 0.0004039 0)
(0.000425289 0.000445594 -2.56267e-19)
(6.57353e-05 -6.41222e-05 1.1834e-18)
(0.000553484 -1.32025e-06 7.67974e-20)
(3.67282e-05 9.91569e-07 4.06975e-19)
(0.000724141 -4.22374e-05 1.17122e-18)
(0.000812881 3.25029e-05 -6.038e-19)
(4.88324e-05 -5.3828e-05 1.70897e-18)
(0.000841215 -4.17481e-05 -6.22359e-24)
(0.000568284 6.20262e-06 -3.75229e-20)
(0.00087734 7.21335e-05 0)
(0.000846262 5.10388e-05 0)
(0.00591578 0.00724347 2.59913e-19)
(1.27072e-05 -2.97433e-06 -1.19561e-19)
(9.51631e-05 -0.000115759 7.72824e-19)
(0.000738076 0.000114385 -6.96213e-19)
(1.5311e-05 2.55735e-07 2.01488e-19)
(0.000651809 -3.60812e-05 -7.23567e-19)
(0.000755496 3.54175e-05 1.55753e-18)
(0.000715471 0.000157476 -3.5533e-19)
(0.000807354 -1.16516e-05 3.60791e-19)
(6.29915e-05 -3.68435e-05 1.11566e-18)
(0.000801591 6.48291e-06 -3.22585e-19)
(0.000874474 3.62959e-05 0)
(0.000550729 0.000301636 4.209e-20)
(0.000867433 4.96406e-05 -9.47384e-19)
(1.34683e-05 2.89385e-06 9.11272e-19)
(0.000861363 4.1499e-05 9.659e-19)
(0.00086323 2.46319e-05 -9.64373e-19)
(0.000765503 5.75783e-07 -5.68981e-19)
(0.00054798 -8.3309e-05 -5.25473e-19)
(0.00432993 0.00745418 2.47057e-19)
(0.0042229 0.00752813 -2.53512e-19)
(0.00422052 0.00758592 2.66982e-19)
(0.00425643 0.00741132 1.9799e-19)
(0.000845136 -3.73943e-05 1.44225e-19)
(0.00447696 0.00751474 0)
(0.00440449 0.00751871 -3.86843e-19)
(2.17191e-05 -1.40863e-07 -9.97952e-19)
(0.00417016 0.00746857 -6.3371e-20)
(0.00414565 0.00743185 -2.21535e-19)
(0.00602919 0.0106049 0)
(0.00654026 0.0111869 3.71494e-20)
(0.00600911 0.0105747 0)
(0.00655596 0.0112105 1.30938e-19)
(0.0059965 0.0105987 2.69695e-19)
(0.00659266 0.0112274 1.24677e-20)
(0.00593537 0.0106114 -7.76825e-19)
(0.00662293 0.0111464 8.15854e-21)
(0.00390342 0.00919748 -1.90814e-19)
(0.00418638 0.00748753 3.9001e-21)
(0.00423739 0.00755146 7.93672e-20)
(0.00415015 0.00743416 4.12075e-20)
(0.000894523 0.000196244 4.46597e-20)
(6.98472e-06 9.72591e-07 0)
(0.000725643 -0.000102973 0)
(0.000657449 5.70276e-05 0)
(0.00244537 0.00111799 4.23159e-21)
(0.000758573 -3.05228e-05 1.72523e-19)
(3.54426e-05 4.36174e-06 4.53928e-20)
(5.72043e-06 -2.18198e-05 1.6525e-18)
(0.000861659 5.39998e-06 0)
(2.44263e-05 1.06414e-05 -1.91673e-19)
(0.000139124 0.000216253 0)
(1.14937e-05 -8.17199e-07 0)
(8.94966e-06 -9.25059e-07 0)
(0.00083661 0.000148391 1.13736e-20)
(0.000811068 -1.8165e-05 1.79535e-19)
(3.83462e-05 0.000257799 -1.11809e-23)
(0.000156378 0.0002671 -1.84148e-18)
(0.000611704 0.000326147 -8.56774e-20)
(0.000902509 0.000113346 6.02037e-19)
(0.000602913 -0.00015614 6.74491e-19)
(0.000358357 0.00111511 0)
(0.000481742 0.000575386 2.71467e-18)
(8.83051e-05 0.000138519 -1.80269e-18)
(1.50414e-05 -2.39759e-07 0)
(0.000822651 -6.37311e-05 3.64076e-20)
(1.39374e-05 3.1564e-05 1.64404e-18)
(0.000894598 3.57034e-05 2.71052e-19)
(-3.1571e-05 7.39499e-05 3.81181e-18)
(0.000926382 4.17302e-05 -2.68921e-19)
(0.00133502 0.000154438 7.47163e-19)
(2.90592e-05 -9.56551e-06 8.25476e-20)
(3.07931e-05 2.30459e-06 -8.58882e-19)
(5.07677e-05 0.000134861 0)
(0.000919529 8.88745e-05 5.98244e-19)
(0.000498936 0.000366729 2.37086e-19)
(0.000616459 1.72917e-05 -3.88936e-20)
(0.000787689 4.65483e-06 2.57309e-19)
(0.000729652 -0.000141656 0)
(0.00632097 0.0108954 -1.68084e-19)
(0.00637873 0.0109731 4.05891e-19)
(0.00615997 0.0107301 -6.18519e-19)
(0.00650126 0.0111322 -8.09934e-20)
(3.17727e-05 0.000112432 8.00328e-19)
(0.000929682 6.16394e-05 1.44328e-22)
(0.00641131 0.0110056 -3.86515e-19)
(0.00628193 0.010845 5.4854e-19)
(0.00608007 0.0106718 -4.16869e-19)
(0.00652178 0.0111646 -6.81524e-20)
(7.88406e-05 0.000491217 -2.01775e-20)
(4.88262e-05 -0.000192303 -7.92631e-19)
(0.000640597 -1.98499e-05 -7.66484e-19)
(0.000731147 0.000219489 0)
(0.000800304 1.80116e-07 0)
(0.000189377 0.000385864 3.36222e-19)
(0.000603117 0.000510856 -5.41738e-19)
(5.67306e-06 -9.97745e-07 1.78347e-19)
(0.000200065 0.000466733 -7.38233e-19)
(0.00102245 0.000979727 -1.12676e-19)
(0.000753759 0.000166362 0)
(0.000795486 0.000184939 1.30984e-19)
(0.00634971 0.00588333 1.13192e-18)
(0.000736168 0.00113118 8.26504e-20)
(3.54665e-05 3.4414e-05 -7.44488e-20)
(0.000807814 1.08288e-05 0)
(0.000870771 2.2924e-05 -3.56808e-20)
(2.93513e-05 2.11999e-06 -1.9668e-19)
(2.56006e-05 3.45583e-06 1.92949e-19)
(0.00083475 1.27845e-05 5.37054e-19)
(0.00098477 0.000113856 6.58143e-19)
(0.000536837 4.58361e-05 0)
(0.000221765 -0.000270585 -3.98143e-19)
(0.000920408 0.000143082 3.89475e-19)
(3.02111e-06 -4.71866e-05 2.02946e-19)
(0.00145411 0.000442405 -2.58056e-18)
(0.000562157 -1.30361e-05 0)
(0.000800276 0.000142148 3.75361e-19)
(9.61246e-05 0.000387145 0)
(0.00118871 0.00816143 4.62057e-19)
(0.000497202 0.000497466 -1.22427e-18)
(0.000540523 0.00101764 -1.83716e-19)
(0.00088816 1.40021e-05 -1.46015e-19)
(1.08288e-05 2.22852e-05 0)
(0.000961348 7.82077e-05 6.11444e-19)
(0.00410622 0.00739512 8.14405e-20)
(0.00417099 0.00747303 4.731e-20)
(0.00450077 0.00751746 4.5413e-19)
(0.00444598 0.00754304 -3.29472e-19)
(0.00647517 0.0111091 8.10706e-20)
(0.00391485 0.00714606 -9.54623e-22)
(0.00550782 0.00780031 -5.64803e-19)
(0.00409789 0.00737162 5.21895e-21)
(0.00518903 0.00786004 5.11738e-19)
(0.00407968 0.00734 -4.8734e-20)
(0.00495434 0.00771957 0)
(0.00408493 0.00736429 -8.56757e-20)
(0.00474317 0.00759042 4.92577e-19)
(0.00409817 0.00737588 8.7529e-20)
(0.00457588 0.00753006 0)
(0.00428437 0.00742175 1.39762e-19)
(0.00423873 0.0075975 5.8075e-19)
(0.00446842 0.00752856 -5.55585e-19)
(0.00438867 0.00750622 3.71423e-19)
(0.00422746 0.00752406 2.87683e-19)
(0.0064305 0.0110424 -4.97782e-21)
(0.00411765 0.00740122 3.11646e-20)
(0.00645864 0.0110723 0)
(2.06371e-05 4.53697e-06 -1.89811e-19)
(0.00200138 0.00654665 2.28184e-19)
(0.000838182 -5.96252e-05 1.09674e-19)
(0.000852715 2.22145e-06 0)
(7.90916e-07 5.36963e-07 -3.99007e-19)
(-3.17778e-05 -8.48733e-05 6.90961e-19)
(2.32523e-05 5.23394e-05 2.08849e-18)
(0.000837659 0.000186364 -9.00432e-20)
(0.000801541 8.31809e-06 7.06189e-19)
(2.52192e-07 -2.91432e-08 3.09906e-19)
(1.37031e-05 -2.8544e-05 -1.84514e-18)
(0.000763658 2.66769e-05 1.63107e-19)
(0.000872645 0.000125302 -3.07896e-20)
(0.00080102 -7.20553e-06 1.48091e-19)
(0.000432412 0.00067912 0)
(9.12861e-06 -0.000134328 1.15109e-18)
(0.000874011 6.4811e-07 1.52485e-19)
(1.80824e-05 2.12421e-05 0)
(0.000119582 0.000554058 -6.31134e-19)
(0.000613742 0.000585153 1.31765e-18)
(0.000332421 0.0007574 0)
(0.000802117 -1.46409e-05 0)
(0.000801784 3.0681e-06 1.17673e-18)
(1.51721e-05 4.49427e-05 -3.51409e-18)
(1.41574e-05 5.71448e-06 3.73526e-19)
(0.000116517 0.000137618 0)
(3.52686e-05 -3.85972e-05 0)
(5.90474e-05 0.000106782 2.00949e-19)
(0.000942681 0.000190494 3.50331e-19)
(0.000800967 1.47246e-05 -1.39561e-18)
(2.08239e-05 2.98317e-05 0)
(0.000415916 3.39485e-06 -6.04499e-20)
(0.000799906 3.57714e-05 -1.56307e-19)
(0.00084974 4.66153e-05 1.06502e-18)
(0.000253806 0.000542255 6.32096e-19)
(0.00088401 0.000157739 0)
(1.36468e-05 -1.97832e-05 5.38469e-19)
(1.4657e-06 -2.54662e-06 -3.19883e-19)
(0.000946709 3.44618e-05 0)
(0.00104725 0.00227016 0)
(0.000907292 2.10301e-06 0)
(0.0010072 0.000208791 4.27051e-19)
(0.000818645 -3.71604e-05 -2.84199e-19)
(0.000941877 0.000112401 -6.84574e-19)
(0.000801177 3.61426e-06 0)
(4.02911e-05 6.36292e-05 -1.71523e-19)
(0.000174731 0.000322996 1.0809e-18)
(0.00080083 1.34892e-05 -2.42801e-23)
(0.00110558 0.000209392 -6.68571e-19)
(0.0010885 0.000129031 0)
(1.90575e-06 4.0237e-06 2.50964e-19)
(1.45154e-05 -1.26147e-05 -1.94264e-19)
(0.000553989 4.68888e-05 6.9483e-21)
(-5.89667e-06 -6.17599e-05 0)
(0.00107505 0.000256885 9.497e-19)
(0.00502871 0.00974819 -2.82925e-19)
(0.0031215 0.00961677 1.27249e-18)
(1.84702e-05 -9.35028e-05 -1.91272e-19)
(3.83023e-05 -7.08426e-05 1.85895e-18)
(0.00119089 0.000257377 1.673e-19)
(0.00133123 0.00107605 2.34039e-19)
(0.000810595 2.91261e-06 -7.36255e-19)
(0.000198659 0.000949318 -2.38198e-19)
(0.000819333 0.000946063 -2.18539e-19)
(0.000800333 -2.07026e-06 0)
(8.18158e-05 0.000611187 0)
(9.44551e-05 0.000277293 -3.62461e-23)
(0.000719669 -4.74234e-05 -1.6736e-23)
(0.000826813 6.94804e-05 1.52561e-19)
(0.00263197 0.00206654 -1.23121e-18)
(0.00176057 0.00923794 -1.17199e-19)
(0.000834414 6.97578e-05 4.92182e-19)
(0.00631978 0.00405285 -1.76176e-19)
(0.00672088 0.0115573 -1.36561e-20)
(0.0047341 0.00784382 4.93338e-21)
(0.000805414 1.35935e-05 -2.16573e-18)
(0.000842857 1.01076e-06 7.55042e-24)
(5.59394e-06 -5.52886e-06 -3.47929e-19)
(4.51966e-05 8.38063e-05 -3.49193e-19)
(6.22395e-05 0.00026136 8.7507e-19)
(8.97795e-06 1.3858e-05 4.90283e-19)
(8.97376e-05 0.000223471 3.69682e-19)
(0.000819852 1.55734e-05 0)
(0.00534817 0.00949237 1.9496e-20)
(0.00154634 0.000638408 -2.61168e-20)
(0.000819329 4.00089e-05 3.60077e-19)
(1.72666e-05 -7.32052e-05 0)
(0.00184828 0.000749902 5.45909e-19)
(7.44205e-06 5.97258e-06 -2.70087e-19)
(3.09314e-05 2.53467e-05 9.71578e-20)
(0.00133525 0.00139833 6.36553e-19)
(0.000739146 4.97399e-05 1.83054e-19)
(2.10383e-06 -8.31386e-07 -1.70159e-19)
(0.00206438 0.00156304 -1.05567e-18)
(0.000126718 0.000172155 -8.18579e-19)
(0.0039203 0.00848814 -1.09079e-18)
(3.41177e-06 1.01809e-06 8.81209e-20)
(9.90665e-05 -4.8885e-05 -1.2581e-18)
(3.63877e-05 -5.40223e-05 4.0554e-20)
(0.00153089 0.000988148 0)
(0.00104301 0.000140646 -4.00979e-22)
(0.00045429 0.000846538 -4.01976e-20)
(0.000803367 2.76503e-05 -2.34014e-19)
(8.69314e-05 0.000178494 7.35901e-19)
(2.05304e-05 -5.40796e-05 4.03896e-19)
(1.63928e-05 1.32321e-05 -9.46867e-20)
(2.87601e-05 8.56671e-05 -3.20212e-19)
(0.000214874 -0.000177484 -5.45516e-19)
(0.00325064 0.0034668 2.90515e-21)
)
;

boundaryField
{
    back
    {
        type            empty;
    }
    ingreso
    {
        type            fixedValue;
        value           uniform (0.0008 0 0);
    }
    salida
    {
        type            zeroGradient;
    }
    front
    {
        type            empty;
    }
    defaultFaces
    {
        type            noSlip;
    }
}


// ************************************************************************* //
