/*--------------------------------*- C++ -*----------------------------------*\
  =========                 |
  \\      /  F ield         | OpenFOAM: The Open Source CFD Toolbox
   \\    /   O peration     | Website:  https://openfoam.org
    \\  /    A nd           | Version:  7
     \\/     M anipulation  |
\*---------------------------------------------------------------------------*/
FoamFile
{
    version     2.0;
    format      ascii;
    class       surfaceScalarField;
    location    "117.5";
    object      phi;
}
// * * * * * * * * * * * * * * * * * * * * * * * * * * * * * * * * * * * * * //

dimensions      [0 3 -1 0 0 0 0];

internalField   nonuniform List<scalar> 
1111
(
7.26901e-09
1.27996e-08
-1.60684e-08
-4.00014e-09
7.1847e-09
-1.17484e-08
1.18328e-08
-1.47203e-08
5.98956e-09
8.67644e-09
5.42578e-11
1.06078e-09
-1.23751e-09
-1.44116e-08
1.45883e-08
-1.4379e-08
1.42337e-08
1.20607e-09
-1.59809e-09
1.49162e-08
2.11041e-09
-2.31707e-09
9.14104e-09
-8.90415e-09
2.08017e-09
-6.72418e-09
-1.2609e-08
1.25946e-08
6.73862e-09
-5.01573e-08
-2.61276e-08
7.62849e-08
-8.06993e-09
7.74044e-09
7.51419e-09
3.17221e-09
3.88931e-10
-3.24657e-09
-3.1457e-10
1.58634e-08
-1.6282e-08
-2.3272e-08
2.36906e-08
-9.66708e-09
-7.90156e-09
8.80299e-09
8.76565e-09
-3.56085e-08
1.77448e-08
-3.23956e-08
5.02593e-08
9.48898e-09
-1.95739e-09
-1.42558e-08
-1.13453e-10
1.0983e-09
-2.32131e-09
1.33646e-09
-3.97564e-09
1.32507e-08
1.97293e-09
-1.1248e-08
8.80605e-09
-2.7153e-09
-1.50662e-08
8.97544e-09
3.71262e-08
-2.97892e-08
-7.33698e-09
-1.93898e-08
2.37699e-10
1.72168e-08
1.93527e-09
-1.08844e-09
4.22869e-09
-1.78271e-08
1.46868e-08
-6.12301e-08
-3.96102e-09
6.51911e-08
1.32996e-10
-1.05098e-09
-3.15068e-10
1.23306e-09
-1.83005e-09
-1.36374e-08
-4.33531e-11
-1.84009e-10
1.24293e-10
1.0307e-10
-1.04305e-08
-8.72491e-09
1.33552e-08
5.80018e-09
6.88144e-10
-2.15349e-09
-8.16619e-09
9.63153e-09
8.97471e-09
7.05528e-10
-1.00527e-08
3.72442e-10
-2.85457e-09
-8.17886e-09
1.12573e-08
-2.2387e-10
1.14178e-08
-1.11685e-09
-1.49491e-09
-7.02985e-10
7.20073e-10
-5.28583e-11
3.57701e-11
1.03728e-11
5.67317e-10
9.8e-11
-6.7569e-10
-3.37688e-10
-4.13104e-11
3.68351e-10
1.0648e-11
-7.95685e-11
-6.47609e-10
1.18796e-10
6.08381e-10
-1.28676e-10
-6.53875e-10
1.04685e-09
-1.83399e-08
-2.09675e-09
-2.65895e-10
3.23004e-11
-1.04093e-10
1.33774e-08
-1.32487e-08
4.10004e-09
-3.17167e-10
4.93614e-10
2.84207e-10
-4.60654e-10
1.9633e-10
-8.79919e-10
7.8645e-10
-1.02861e-10
-1.70558e-09
1.07349e-08
-1.13464e-08
-1.78681e-10
-1.2071e-10
3.34974e-11
-8.68978e-09
1.07351e-08
-1.01152e-08
1.23014e-08
-1.71241e-08
4.47051e-09
3.52132e-10
3.52205e-11
-1.1236e-10
-1.01541e-10
1.03136e-10
6.76772e-10
-5.98345e-11
-5.94877e-08
7.42221e-08
-1.47344e-08
9.32894e-10
-1.53511e-10
-1.01897e-09
2.39586e-10
1.12767e-09
1.03094e-08
-1.37138e-08
2.27664e-09
-2.01234e-09
7.98824e-09
-8.8989e-09
2.92301e-09
-6.84355e-09
5.51206e-09
5.77154e-09
-4.44006e-09
-8.03568e-09
-1.31948e-09
1.46608e-09
7.88908e-09
-1.82983e-10
-9.09124e-08
9.12985e-08
-2.03137e-10
-2.57698e-10
-8.97486e-08
9.01589e-08
-1.52541e-10
8.30791e-08
-1.4911e-09
1.09805e-10
-8.16978e-08
-2.65564e-09
-6.468e-10
5.29798e-10
7.63331e-10
-3.60234e-10
3.85361e-09
-6.90428e-10
3.63187e-09
-6.79505e-09
-8.34064e-10
7.8369e-10
-1.49045e-08
6.56636e-09
1.01383e-08
1.08754e-09
-1.0917e-08
-3.08855e-10
-6.00788e-09
1.37206e-08
8.15393e-10
-8.52811e-09
1.44046e-08
-4.64764e-09
3.88818e-09
-1.36451e-08
1.53819e-08
1.67191e-09
-1.62505e-09
-1.63016e-10
-2.00923e-08
-7.45361e-09
2.7709e-08
1.46818e-08
-8.96708e-09
-1.79988e-09
8.12344e-09
-1.23314e-08
8.25521e-11
-5.4378e-11
-1.04714e-09
-3.60733e-08
-2.34143e-08
8.39308e-09
3.42484e-10
3.56586e-09
-6.93821e-09
1.14506e-08
6.22271e-09
-5.11932e-10
2.56931e-10
4.13906e-10
-1.58904e-10
5.6162e-09
-4.86906e-09
3.71862e-09
-4.46575e-09
-3.2252e-10
-5.50756e-10
2.25667e-10
5.29006e-10
-4.51518e-10
6.99057e-11
-5.7103e-10
5.11498e-10
-1.83532e-08
2.36305e-09
1.63118e-09
1.4359e-08
1.64523e-10
-5.90212e-10
-8.62422e-11
-4.31731e-09
-1.52433e-08
1.20734e-09
5.63449e-09
1.21501e-08
-5.24721e-09
-1.25374e-08
1.63467e-08
7.79479e-10
-1.58079e-08
-1.31829e-09
-5.9072e-10
3.72843e-10
4.74808e-10
-1.5705e-10
6.45134e-11
9.25371e-11
-7.58158e-09
-3.4182e-09
4.15624e-09
-1.4847e-10
2.44119e-10
-9.56492e-11
9.8128e-10
-1.57291e-08
-6.79654e-10
1.03245e-08
-1.13504e-08
-8.04368e-10
-8.71428e-11
1.30381e-08
4.51659e-09
-4.23042e-09
-1.33243e-08
2.11623e-11
7.28452e-09
-8.08498e-09
6.31253e-09
-1.50463e-09
-9.25475e-09
8.40538e-09
2.354e-09
-2.0026e-09
7.15311e-10
-1.3956e-08
-7.31613e-11
-7.53079e-11
5.42557e-10
4.92401e-10
-9.07063e-09
8.08322e-10
1.7248e-08
-1.70966e-09
-1.16715e-08
1.30805e-08
-1.40895e-09
1.23343e-08
1.3909e-08
-1.55005e-08
-1.07428e-08
-4.04477e-10
7.8432e-10
-3.79844e-10
-3.6079e-12
2.71528e-10
-2.6792e-10
-4.67859e-10
1.13293e-09
-6.65068e-10
1.16151e-09
-9.17318e-10
-2.44191e-10
-1.04651e-08
1.0656e-09
9.3995e-09
1.75061e-09
-5.89099e-10
8.9867e-09
-1.54342e-08
8.16602e-09
-9.63581e-09
7.43229e-11
3.52062e-09
-4.22737e-10
-2.13954e-09
2.21386e-09
-6.2847e-09
7.62189e-09
-1.33719e-09
-3.28249e-10
4.33933e-09
-1.57475e-10
1.72414e-08
-1.44768e-08
-1.63692e-09
-6.3165e-09
5.50887e-09
1.17207e-10
-1.60356e-10
5.59656e-09
-5.5506e-09
-4.59556e-11
6.77108e-09
4.61666e-09
-9.07501e-11
-1.58369e-08
1.05205e-08
1.76507e-08
5.87141e-09
8.18419e-09
8.14307e-09
-6.84729e-09
1.48329e-09
-1.19484e-08
-5.14921e-11
1.72323e-09
-1.30311e-08
2.63244e-09
-4.18577e-10
1.08632e-08
-1.00837e-08
-3.22714e-10
-6.1033e-10
-1.38435e-08
7.96249e-09
6.25667e-10
1.8486e-11
-8.86869e-09
4.93033e-09
-2.99522e-08
-1.25249e-08
-2.87739e-09
1.55876e-09
1.41531e-08
1.11487e-08
-1.0877e-08
-1.44248e-08
1.53328e-08
-3.21341e-09
-1.21193e-08
1.58908e-09
4.05459e-09
-7.5097e-10
-8.51121e-10
-7.49777e-10
1.02769e-09
5.73212e-10
-1.92314e-10
3.07361e-10
2.98859e-10
6.21485e-08
-6.21747e-08
2.62209e-11
6.20677e-08
-6.23721e-08
3.04371e-10
8.37645e-10
6.47299e-08
-6.55572e-08
8.27321e-10
6.41217e-08
6.08193e-10
-2.23624e-10
-6.65024e-08
9.45186e-10
-6.20643e-08
6.19296e-08
1.34727e-10
1.31415e-09
-6.78166e-08
-6.2224e-08
1.59744e-10
1.28637e-08
-4.33863e-10
1.05701e-09
-3.69517e-09
3.07203e-09
2.50577e-10
-1.11072e-09
7.89395e-10
-4.29814e-10
1.32353e-09
-1.52734e-09
6.33625e-10
1.30094e-09
-1.34773e-09
-7.59115e-12
-2.43775e-11
-3.49059e-09
2.55367e-09
-1.77345e-09
2.71037e-09
-2.17313e-10
-2.64414e-09
2.42759e-09
-3.37764e-09
-5.93147e-09
5.41627e-10
-5.28072e-10
1.0469e-09
1.06603e-09
-6.37649e-09
7.81394e-09
3.17921e-09
1.97126e-08
-4.37983e-09
-6.22814e-10
2.69883e-10
8.94559e-10
-1.00536e-08
-2.60198e-08
5.18552e-09
-4.12641e-09
-3.22393e-09
2.16482e-09
7.73965e-11
2.65662e-11
2.64389e-10
-2.41507e-09
3.23886e-09
9.07189e-09
6.24891e-10
-4.24086e-11
2.00776e-09
-2.18267e-09
1.62101e-09
1.46986e-08
1.33636e-08
-2.69184e-08
3.27282e-08
6.30717e-09
-2.2869e-08
-1.03566e-08
1.85977e-08
-1.80915e-08
1.06425e-08
4.08871e-11
-2.93203e-10
-1.09541e-09
-1.57734e-09
-2.72536e-09
2.96751e-09
1.52408e-08
-6.62484e-10
-1.3863e-08
-1.06272e-09
-2.04124e-09
4.59816e-10
1.54996e-08
1.77967e-08
1.36833e-08
7.91272e-10
-1.76396e-09
-1.27106e-08
-1.32897e-09
5.99215e-09
1.26804e-08
-3.38578e-10
-9.25626e-10
-3.71214e-09
2.84212e-09
3.42369e-09
2.52764e-09
1.46479e-08
4.36775e-09
-1.4499e-08
1.8217e-08
-1.76885e-09
2.2482e-09
-3.2256e-09
1.94131e-09
-4.9746e-09
1.2905e-08
-1.19061e-08
-1.40585e-08
2.88189e-10
8.79573e-09
-1.74067e-09
1.45278e-09
1.33479e-09
-8.6709e-09
6.79258e-10
-4.53321e-09
-5.98947e-09
1.2165e-08
-1.48465e-08
9.00718e-10
1.70013e-09
-2.20378e-09
1.69358e-08
-1.64322e-08
-1.18879e-09
1.42096e-08
3.15832e-09
-4.54311e-09
-1.40494e-08
7.62201e-09
-1.75334e-08
-8.18008e-09
7.0135e-09
5.90142e-09
1.47386e-08
-1.02246e-08
2.97712e-09
9.60152e-09
9.76801e-09
3.91735e-09
-4.26599e-09
2.18842e-08
-1.93676e-08
5.10542e-09
-1.08051e-08
2.16951e-09
5.75152e-09
1.40966e-08
-4.4328e-10
1.28427e-08
-1.35882e-08
-1.94639e-09
1.40351e-09
-3.97605e-10
9.40486e-10
1.11365e-08
-6.35431e-09
7.36793e-09
-1.11979e-08
1.48039e-09
-4.73744e-09
1.15899e-08
-1.20997e-08
-7.60099e-09
9.29984e-09
9.43766e-09
1.30163e-08
4.58575e-10
-1.39181e-08
1.33359e-09
7.6012e-10
-1.12237e-08
-6.71924e-09
1.03419e-08
-1.2063e-09
2.50488e-09
-9.04007e-09
4.74956e-09
-5.39543e-09
1.1743e-08
-3.45044e-09
-1.19738e-08
3.68132e-09
-4.44375e-09
1.14493e-08
1.69779e-09
1.08858e-09
-5.10295e-09
-1.79692e-08
1.06169e-08
1.24552e-08
6.74034e-10
-1.11693e-08
-1.01082e-08
1.61745e-08
1.27486e-08
2.90045e-09
-9.89756e-09
-1.33642e-08
-3.18413e-10
-1.27533e-08
1.82682e-10
-7.72283e-10
1.18469e-08
1.25558e-08
-8.23582e-09
1.68033e-08
-1.61482e-08
3.71265e-09
-5.44524e-10
1.83627e-09
1.30672e-08
-3.94582e-09
-1.2822e-08
-4.8746e-09
2.04281e-09
4.55503e-09
1.25019e-08
-7.23726e-09
1.03656e-09
-1.70578e-09
2.10595e-10
-4.51207e-10
6.01865e-09
2.6508e-08
1.20233e-10
-8.84438e-09
8.72415e-09
2.87267e-08
-2.24703e-08
2.21382e-08
1.98694e-08
-1.27156e-08
-2.75668e-09
1.51975e-08
1.28674e-10
-1.21492e-08
-4.75445e-10
-5.98806e-09
-1.80988e-09
2.11143e-09
1.39624e-09
-6.27205e-10
-1.12422e-08
1.17222e-08
1.47206e-10
2.86682e-09
-4.81841e-09
-1.13232e-08
1.08499e-08
-9.50218e-10
-1.102e-08
-3.31135e-10
-1.15361e-08
-2.33618e-09
-1.21821e-08
2.12201e-09
7.86631e-09
5.17129e-09
-6.77567e-10
-1.18273e-08
1.18777e-08
5.18805e-10
-8.99917e-09
5.07043e-09
-1.6263e-09
1.98771e-09
-1.65069e-09
-1.30693e-08
-1.22791e-08
1.17218e-08
-1.01234e-08
-1.5852e-08
1.01384e-08
9.31953e-09
7.66472e-10
2.79978e-09
-1.16442e-08
1.16639e-08
1.66341e-09
3.8412e-09
2.40839e-10
-4.13583e-10
-1.49775e-10
-4.16725e-09
2.4272e-09
-3.01182e-10
1.18472e-10
-1.40167e-10
2.16947e-11
-2.74543e-09
1.32297e-08
2.26433e-09
2.51017e-09
5.04984e-10
-1.1662e-09
-7.04347e-10
-2.15782e-09
-1.03789e-10
1.31874e-08
1.02474e-08
-2.6386e-10
6.66348e-09
-1.26066e-09
-5.13896e-09
-9.88831e-09
-5.18041e-09
8.81168e-11
3.03558e-11
4.83374e-09
1.38276e-09
-1.73858e-08
-2.26115e-10
-6.63218e-10
-2.77301e-09
1.0309e-09
3.32024e-09
6.19511e-08
-8.57148e-11
-6.18654e-08
6.2375e-08
1.88605e-10
-6.25636e-08
-1.40903e-08
-4.1697e-10
1.44113e-08
9.59886e-11
3.32566e-09
-1.64692e-09
2.35151e-09
1.80029e-09
-4.58839e-09
-1.76087e-10
-4.49853e-10
3.65771e-10
-7.48214e-11
3.29942e-10
-2.09812e-10
1.98438e-08
9.8119e-10
-1.59912e-08
-7.23787e-11
-1.95769e-09
1.27126e-08
2.31233e-09
1.83628e-09
5.34157e-09
-2.14964e-09
-7.72312e-08
-2.41786e-08
-5.1073e-09
1.58335e-08
2.52451e-09
2.44293e-10
-2.70329e-09
-9.10751e-10
1.37665e-10
-1.5254e-10
-9.3639e-09
-3.73941e-10
9.73784e-09
-1.09761e-08
-6.53568e-09
1.07926e-08
-9.57972e-09
8.72384e-09
3.52718e-10
1.29509e-09
8.95809e-09
-8.98253e-09
2.44419e-11
5.12673e-10
8.78399e-11
1.10412e-08
3.49868e-10
-5.81183e-10
2.31501e-11
-1.42622e-08
-4.05806e-10
-1.39058e-08
1.28613e-08
-1.1951e-08
-6.60366e-08
6.49948e-08
1.04179e-09
1.60933e-10
-1.34366e-10
1.22076e-08
-1.44564e-10
4.39857e-12
-2.17195e-09
2.7439e-09
-3.39694e-09
-1.34649e-08
-1.62787e-09
2.5799e-09
-4.60806e-09
-1.4239e-08
1.46134e-09
5.51491e-09
9.80288e-09
-9.17468e-09
-1.64333e-10
1.97687e-11
-9.26347e-09
-1.35608e-08
1.50925e-10
-6.26908e-08
2.35561e-10
6.24553e-08
6.95466e-10
6.34262e-08
-2.23547e-10
-1.72457e-09
-1.4517e-08
1.0743e-10
-6.34106e-08
6.33031e-08
1.85261e-10
-6.2952e-08
6.27667e-08
2.60991e-10
6.17967e-08
1.50542e-10
-6.19473e-08
6.16278e-08
1.68887e-10
-8.78887e-08
8.84977e-08
-9.02248e-13
9.33921e-08
-9.30986e-08
-2.67286e-10
-8.66283e-08
-4.33045e-10
9.33511e-08
-1.82655e-10
-8.49157e-08
-7.67388e-10
9.34817e-08
1.73778e-10
-5.22429e-10
1.96173e-09
9.23576e-08
-6.93077e-08
6.21382e-08
-6.23212e-08
-6.29485e-08
6.14854e-08
1.42424e-10
-3.19689e-09
2.97791e-09
-1.42801e-08
3.51961e-11
5.29212e-11
8.7716e-10
8.67725e-09
-1.13925e-08
3.83514e-08
-3.4585e-08
-1.67975e-08
1.38305e-08
-2.34201e-11
-1.84382e-10
9.29119e-11
4.53228e-10
-1.00498e-10
2.73956e-10
4.34331e-09
1.06847e-09
-3.47048e-09
-9.14147e-11
1.23716e-10
-5.7916e-11
-2.62866e-09
1.33798e-08
2.47864e-09
-1.44162e-08
-2.61806e-09
-3.18202e-09
5.44876e-09
1.05938e-09
-2.59188e-09
1.44267e-08
-1.21785e-09
-1.25257e-09
1.07257e-09
-8.15661e-09
-1.90922e-08
-1.35493e-08
8.09389e-09
5.74356e-09
-1.5461e-10
-5.86987e-10
2.85303e-09
1.45035e-08
2.29482e-09
-1.88208e-09
-3.3296e-10
3.8312e-10
-2.10516e-10
1.58628e-08
-6.17979e-10
-1.56188e-08
7.08084e-10
3.11392e-10
3.45863e-10
-2.90923e-10
3.32716e-09
-1.60626e-08
3.68601e-10
-1.41211e-09
-1.98906e-09
-2.26864e-09
1.58513e-08
-9.05931e-08
-1.34084e-10
9.16781e-08
-1.9095e-10
-8.91635e-08
-4.77716e-10
9.31013e-08
-2.75227e-10
-9.29117e-08
-5.18883e-10
-1.48233e-09
1.69571e-08
9.19795e-08
-1.98622e-10
2.9701e-11
-2.2087e-10
9.59482e-09
2.31443e-09
-6.96786e-09
-1.23642e-08
-5.67474e-09
8.34628e-09
1.54866e-09
-6.71574e-09
-5.96715e-09
9.07183e-09
-2.26946e-11
1.01101e-08
1.94945e-08
-1.79798e-08
3.09229e-09
-1.28711e-08
3.1414e-09
-6.99575e-08
3.92087e-09
-2.05941e-08
-1.30344e-08
-4.21174e-10
-5.91221e-09
-1.5323e-08
9.08605e-09
-1.50434e-08
3.4958e-10
2.96454e-10
-1.97477e-09
-1.68382e-08
1.722e-08
6.9136e-09
-7.5604e-09
-4.17222e-09
1.5374e-08
-1.70024e-09
7.52873e-10
-6.40987e-10
-2.07921e-11
1.19615e-08
3.31159e-09
7.09105e-08
-1.82302e-08
6.07635e-10
-1.51375e-08
-2.00504e-10
-2.28104e-10
-1.71941e-10
6.0948e-08
-6.12232e-08
-6.33809e-08
-6.31506e-08
-6.41766e-11
-2.62225e-10
-9.25853e-08
-6.04509e-08
6.24127e-08
6.51046e-08
-6.02772e-08
6.45822e-08
-6.04598e-08
6.38148e-08
-6.07271e-08
6.33818e-08
9.23082e-08
2.26313e-10
-6.32739e-09
7.51324e-08
-6.54934e-08
1.66014e-11
-1.66014e-11
-2.08522e-10
-2.87485e-10
1.54728e-08
6.57511e-12
-6.57511e-12
2.54738e-10
1.51192e-09
1.39169e-08
1.35017e-08
-2.6987e-09
3.7111e-09
6.76625e-09
1.6547e-09
3.18675e-10
-2.11817e-10
-2.95362e-09
1.4564e-08
1.48403e-08
-4.29414e-09
1.18214e-08
1.43918e-10
1.17592e-10
2.60955e-09
-7.17756e-10
-1.41936e-09
-5.86221e-09
-1.81265e-10
-3.52494e-10
1.53149e-08
1.97876e-10
2.77382e-11
1.41273e-08
-2.62946e-08
1.79202e-08
2.7283e-09
1.15271e-09
2.50081e-09
-3.72382e-09
1.94617e-08
-1.82386e-08
-5.6559e-11
-1.22455e-10
-1.44115e-09
-7.92149e-08
-7.07488e-08
1.15424e-09
-2.20605e-10
5.79909e-10
2.30161e-08
1.86166e-08
-6.47218e-09
7.99715e-11
-4.15955e-09
-2.52434e-09
2.99685e-08
1.61672e-10
1.48185e-08
7.35781e-08
2.9269e-11
4.93464e-10
-1.2368e-10
-1.79731e-10
-3.51381e-09
2.43773e-08
-1.48668e-08
8.11177e-10
-1.4213e-08
-3.63206e-11
2.04121e-08
-2.87809e-08
9.75348e-10
1.78066e-09
-1.14697e-10
)
;

boundaryField
{
    back
    {
        type            empty;
        value           nonuniform 0();
    }
    ingreso
    {
        type            calculated;
        value           nonuniform List<scalar> 
14
(
-1.54286e-08
-1.54288e-08
-1.54288e-08
-1.54288e-08
-1.54286e-08
-1.54283e-08
-1.54288e-08
-1.54288e-08
-1.54286e-08
-1.54286e-08
-1.54288e-08
-1.5428e-08
-1.5428e-08
-1.54286e-08
)
;
    }
    salida
    {
        type            calculated;
        value           nonuniform List<scalar> 2(1.0141e-07 1.14591e-07);
    }
    front
    {
        type            empty;
        value           nonuniform 0();
    }
    defaultFaces
    {
        type            calculated;
        value           uniform 0;
    }
}


// ************************************************************************* //
