/*--------------------------------*- C++ -*----------------------------------*\
  =========                 |
  \\      /  F ield         | OpenFOAM: The Open Source CFD Toolbox
   \\    /   O peration     | Website:  https://openfoam.org
    \\  /    A nd           | Version:  7
     \\/     M anipulation  |
\*---------------------------------------------------------------------------*/
FoamFile
{
    version     2.0;
    format      ascii;
    class       volVectorField;
    location    "117.5";
    object      U;
}
// * * * * * * * * * * * * * * * * * * * * * * * * * * * * * * * * * * * * * //

dimensions      [0 1 -1 0 0 0 0];

internalField   nonuniform List<vector> 
591
(
(0.000840774 5.54233e-06 1.21561e-18)
(0.000838947 5.83021e-06 -6.60256e-19)
(0.000850084 3.15754e-05 5.69071e-20)
(0.000869772 -3.287e-05 -1.49007e-19)
(0.000859453 -1.59543e-05 2.25429e-19)
(0.000803693 -3.71968e-05 -1.39558e-19)
(0.000552728 -0.000192124 8.06561e-19)
(0.000803418 4.03995e-06 2.10739e-18)
(0.00571978 0.00251251 9.87988e-19)
(0.000825225 1.01747e-05 2.43154e-18)
(4.47064e-05 0.00015449 1.21777e-18)
(0.000940085 0.00140103 9.40631e-21)
(0.000801544 4.4837e-06 1.32322e-18)
(0.00160604 0.00240652 -7.87363e-19)
(0.00080321 1.46802e-06 -4.46832e-19)
(3.14157e-05 -0.000116114 2.45112e-22)
(0.000142137 0.000661965 7.04755e-19)
(0.000818407 8.30208e-05 -4.97688e-19)
(0.00189122 0.000393186 4.73758e-19)
(0.00135683 0.000261347 -2.47114e-19)
(0.000829327 -8.89039e-06 3.73046e-19)
(0.0034009 0.00656051 -8.14119e-20)
(2.10258e-05 5.94722e-05 2.70834e-19)
(0.000835003 -2.71276e-05 -4.51552e-19)
(3.72617e-06 -8.45998e-06 3.58753e-19)
(0.000800779 5.08816e-05 0)
(9.56424e-05 0.00046188 1.5992e-19)
(0.000593554 -7.03444e-06 -1.7875e-19)
(0.000774996 5.07475e-05 1.14893e-18)
(0.000804013 7.64591e-05 5.84789e-19)
(4.37072e-05 -6.65316e-06 -5.61593e-24)
(1.47433e-05 -3.41335e-05 3.52016e-19)
(2.30025e-05 -2.29258e-06 -4.64012e-20)
(3.26334e-05 -1.2245e-05 0)
(4.05625e-05 -1.27498e-05 1.13094e-18)
(0.0011669 0.000143829 1.79792e-19)
(1.90338e-05 -3.5359e-06 4.46944e-20)
(0.000823004 1.21951e-06 3.06194e-23)
(2.07703e-05 3.49553e-05 2.65913e-19)
(-2.12368e-05 -3.78224e-05 -8.53761e-19)
(0.000664854 -0.000171588 9.5877e-19)
(1.42132e-05 -3.91298e-06 4.5462e-20)
(0.00082113 2.92608e-05 -1.57284e-18)
(0.000831033 5.2361e-05 -6.9049e-19)
(8.74274e-06 -4.16063e-06 0)
(4.34171e-05 1.95893e-06 8.51495e-20)
(0.00135148 0.00450157 8.92717e-19)
(6.25196e-05 6.62544e-06 8.63251e-20)
(0.000803329 1.79584e-05 0)
(0.000399833 -0.00023564 6.76755e-19)
(0.00039509 0.000261254 5.11731e-21)
(0.000412034 2.06137e-05 -1.00333e-18)
(0.00634766 0.01094 -7.68693e-19)
(0.00622458 0.0107952 1.52877e-20)
(0.00561486 0.0103781 1.45594e-18)
(0.000803991 5.65251e-05 0)
(5.6871e-05 2.13514e-05 0)
(0.000323977 -2.3578e-05 3.56046e-23)
(5.084e-05 4.00204e-06 -3.46307e-19)
(0.000811623 -6.23938e-06 0)
(0.000680772 2.76879e-05 3.17408e-19)
(0.00085194 3.78735e-05 2.20862e-18)
(0.000815757 4.30727e-05 -5.42712e-19)
(0.000799952 1.08615e-05 -3.15625e-19)
(0.00171357 0.000487198 5.42299e-19)
(0.00081712 3.906e-05 -1.1439e-18)
(0.000843647 4.4503e-05 -5.22437e-19)
(6.30735e-05 -1.04596e-05 -1.73334e-19)
(0.000692029 0.00225413 0)
(0.000847621 5.33655e-05 0)
(0.000800468 3.64344e-05 -1.39156e-18)
(3.03948e-05 1.13516e-05 0)
(0.000295851 0.000257337 3.26734e-19)
(2.67582e-05 -1.41097e-05 0)
(2.92947e-05 -5.27902e-06 1.59402e-19)
(9.32966e-07 -2.77192e-05 -3.36502e-20)
(0.000810669 7.98533e-05 2.46796e-19)
(3.51032e-05 6.60021e-06 0)
(0.000818488 5.71312e-05 4.47009e-19)
(0.000786585 0.000298576 2.10639e-19)
(0.000958039 7.23024e-05 -3.97459e-20)
(3.49521e-05 1.67731e-05 -4.51664e-20)
(2.05127e-06 -5.43984e-06 0)
(0.000449297 0.000206564 1.70119e-19)
(2.50204e-06 1.27648e-05 0)
(0.000810723 5.45239e-05 -6.0853e-19)
(0.000670335 -0.000108333 0)
(5.04768e-05 -6.90774e-06 -1.74403e-19)
(-2.17333e-07 -8.76437e-06 0)
(0.000841421 0.000246401 -3.41105e-19)
(1.01303e-06 -2.55721e-06 0)
(0.000439327 0.000315918 -1.37763e-23)
(0.000556493 0.000104029 0)
(0.000820028 4.64745e-05 -3.22201e-24)
(1.83942e-06 7.16511e-06 -4.21528e-20)
(0.000488482 -3.9374e-05 1.76266e-18)
(0.00101393 7.68301e-05 4.15652e-20)
(0.00076101 4.90294e-05 6.41868e-22)
(0.000752837 0.000661621 2.69396e-19)
(6.78156e-06 3.29999e-05 0)
(-8.40937e-06 1.75282e-06 -3.12163e-19)
(-3.5321e-05 2.42414e-05 -1.10069e-18)
(5.46023e-06 5.67164e-05 -5.96115e-19)
(0.000584516 -3.3342e-05 0)
(9.57234e-06 7.91493e-05 0)
(0.000824339 3.94443e-05 2.18036e-18)
(0.000808503 4.58056e-05 1.53364e-18)
(0.00046895 -0.000131946 0)
(3.77809e-05 0.00019963 -8.94979e-19)
(2.22425e-06 0.00014089 4.96835e-19)
(5.37733e-05 0.000379782 6.25063e-19)
(0.000315659 5.31125e-05 -9.36869e-19)
(0.000801826 2.00806e-05 1.37358e-19)
(0.000252961 -9.29271e-05 5.30976e-19)
(4.02883e-06 1.99671e-05 0)
(1.805e-05 0.000258207 -1.09394e-18)
(0.000330134 0.000313901 -1.6165e-19)
(-2.54206e-06 5.61985e-07 1.46534e-19)
(0.0006726 0.000798714 0)
(0.000379548 0.000375302 5.74216e-20)
(0.000831391 3.72331e-05 1.07014e-18)
(0.000799716 1.89616e-06 -2.72553e-18)
(2.61445e-06 3.41446e-05 0)
(0.000657033 -4.50906e-05 -1.12259e-19)
(0.00032625 -0.000171704 1.24253e-18)
(0.00261214 0.000811414 -3.36545e-19)
(9.4332e-06 0.00010769 -6.13088e-19)
(1.02628e-05 0.000136102 1.61957e-18)
(0.000630237 2.70124e-05 -3.89621e-20)
(4.70602e-05 -1.8074e-05 -7.49829e-19)
(0.000815581 4.40219e-05 -3.91663e-19)
(0.00068279 2.87455e-05 -4.10507e-20)
(3.00779e-05 0.000306426 -5.97056e-19)
(0.00051852 4.19684e-05 -4.93724e-19)
(3.60593e-05 -5.03471e-06 1.56081e-19)
(0.000845666 4.76473e-05 -1.08089e-18)
(0.00152302 0.000237655 -1.1364e-18)
(5.58217e-06 4.5309e-05 4.96215e-19)
(0.000815071 3.93796e-05 -5.03282e-19)
(0.000929785 0.000560831 -7.84786e-20)
(0.000151353 0.000773667 0)
(0.00061748 5.96607e-05 0)
(0.000280552 2.80812e-05 -1.60876e-18)
(5.56116e-05 4.72989e-05 -1.37351e-18)
(2.43039e-05 1.5315e-05 0)
(0.00424803 0.00740165 -1.01969e-20)
(0.00422612 0.00737315 3.16745e-20)
(0.00442828 0.00757586 -4.99829e-21)
(0.00420514 0.00773323 0)
(0.00419756 0.00759916 5.77289e-19)
(0.00424498 0.00740266 -9.20551e-20)
(0.00420902 0.00804051 4.84541e-19)
(0.00429069 0.00742417 0)
(0.00420759 0.00853307 6.16853e-19)
(0.0043272 0.00745283 2.23971e-19)
(0.0008434 3.17727e-05 -1.37079e-18)
(0.000793985 6.79579e-05 0)
(0.000208167 2.61576e-05 1.27655e-19)
(4.04781e-05 9.86495e-06 8.71463e-20)
(6.84043e-05 3.26457e-05 6.79731e-19)
(9.37693e-05 2.56966e-05 -3.41524e-19)
(8.33788e-05 -7.2912e-06 0)
(3.70382e-05 1.39563e-06 8.18004e-20)
(0.000209161 0.00011085 0)
(0.000155412 1.6594e-05 -5.24126e-20)
(0.000352032 0.000207881 -5.09077e-21)
(4.7722e-05 3.32525e-05 -4.37466e-19)
(7.8378e-05 1.41488e-05 -8.52104e-20)
(8.16339e-05 4.77279e-05 1.3114e-21)
(0.000265829 0.000354279 -6.65958e-19)
(0.000112087 0.00098813 0)
(3.5967e-05 4.28317e-05 3.42916e-19)
(0.000200313 0.00173609 0)
(0.000210052 0.000238791 7.04418e-19)
(2.52996e-05 -2.53168e-06 1.11445e-19)
(0.000502874 0.000155205 -1.72236e-19)
(0.000787682 3.67825e-05 -1.92236e-18)
(3.15225e-05 -2.08572e-06 5.03717e-24)
(0.00013371 3.86267e-06 2.24501e-19)
(0.00024836 6.87564e-05 -8.9897e-20)
(0.000886339 0.00069401 3.34826e-19)
(0.000722932 0.00163449 -9.23268e-21)
(0.000392068 0.0014169 -9.37871e-21)
(0.00103613 0.000552605 0)
(8.03248e-05 -2.50116e-05 1.11824e-18)
(9.98825e-05 -2.89667e-06 -4.4273e-20)
(0.000480504 -0.000248579 -1.13606e-18)
(0.000829598 4.41865e-05 0)
(0.000169059 -3.08901e-05 3.6317e-19)
(0.000309366 0.00129576 0)
(0.00109082 0.000771903 -7.29939e-20)
(0.000825874 2.40282e-05 -1.86466e-19)
(5.67234e-05 -2.5849e-05 -2.99842e-19)
(0.000847824 0.000313864 -2.07957e-20)
(3.62043e-05 -2.08155e-05 -5.9921e-19)
(0.000229573 0.000156577 8.63575e-20)
(0.000233576 0.000298571 -3.44892e-19)
(0.000905748 0.000256991 0)
(0.0008336 6.08033e-05 0)
(0.000269998 0.000110829 1.76782e-19)
(0.000229785 -3.43479e-05 1.06424e-23)
(0.000186018 0.000190067 0)
(0.000309317 0.000640192 -5.55486e-21)
(0.000373604 -5.15116e-05 0)
(0.000383894 0.000598441 0)
(0.000100415 6.58766e-05 -1.34614e-21)
(0.000809753 2.89928e-05 -9.53915e-19)
(0.000805104 1.64835e-05 7.86617e-19)
(0.000118998 3.86859e-05 -1.49794e-19)
(0.000983466 0.000147097 8.49949e-20)
(0.000842199 3.39993e-05 3.33375e-19)
(0.000824725 3.97677e-05 -2.94021e-19)
(0.00103984 0.000423014 0)
(0.000458006 9.91531e-05 6.24161e-19)
(0.000925164 0.000326564 2.09048e-20)
(0.000603734 0.000147532 0)
(0.000279354 0.000438727 4.09514e-19)
(0.000264809 0.000200691 -8.43881e-20)
(0.00111243 0.00038792 -7.81741e-19)
(0.000653022 0.000102707 -1.79208e-19)
(0.000830265 8.05164e-05 -7.45705e-21)
(0.000847839 1.86069e-05 9.38463e-20)
(3.35757e-05 -8.25784e-05 -1.98054e-18)
(0.000749829 0.000379255 2.19153e-19)
(0.000699445 7.22782e-05 2.30547e-20)
(0.000723714 0.000278338 1.63423e-23)
(0.000746272 0.000463187 -4.09513e-19)
(0.000858768 8.73122e-06 9.06283e-20)
(6.50187e-05 6.53333e-05 0)
(0.000667416 0.000426684 -4.65747e-20)
(0.000179946 7.31007e-05 0)
(0.00037493 0.000499966 -2.64756e-19)
(0.000315677 0.000148162 0)
(0.00069493 0.000204663 3.55069e-19)
(0.000667891 0.00025924 -4.37067e-20)
(7.732e-05 9.08579e-05 6.18897e-19)
(0.000894347 9.79109e-05 -1.63607e-18)
(4.74115e-05 1.44902e-05 2.57079e-19)
(0.000907162 7.29808e-05 -1.68572e-18)
(0.000856456 9.20541e-05 1.63012e-19)
(0.000818237 3.98964e-05 1.93122e-18)
(0.000822603 3.0765e-05 -1.32578e-19)
(0.000755543 7.04526e-05 0)
(0.000804876 1.86379e-05 9.00207e-19)
(0.000980234 0.000243385 -4.26899e-19)
(0.000800055 0.000104279 -4.8352e-19)
(0.000787991 0.000239812 -8.80822e-20)
(0.000183438 -0.000209024 -2.07396e-18)
(0.000776543 8.60852e-05 8.87132e-19)
(0.000647984 0.000589258 0)
(3.55724e-05 -0.00012284 0)
(0.00123452 0.000480871 4.97151e-19)
(0.000507214 -4.80327e-05 -3.27141e-18)
(0.00136042 0.000422551 5.76209e-19)
(0.00125849 0.000723747 -6.38855e-20)
(0.000818388 3.61946e-05 -2.1265e-19)
(0.000847525 6.53391e-05 -1.42696e-18)
(0.000812741 2.6362e-05 1.58425e-18)
(0.000812895 1.80894e-05 9.75955e-20)
(0.000681316 0.000352492 -4.40227e-20)
(9.66965e-05 0.000105662 1.14087e-23)
(0.000775993 -2.09662e-05 2.64794e-19)
(0.000200356 -0.000245668 -7.33751e-19)
(0.000653345 0.000179992 0)
(0.00073873 5.22234e-05 9.89904e-20)
(0.000736989 1.14882e-05 -3.80627e-19)
(0.000403662 0.000155669 3.93208e-20)
(0.00081759 0.000510376 -1.65412e-19)
(0.00014131 5.50714e-05 4.74751e-25)
(0.00082771 0.00041144 0)
(0.000997651 0.00031637 4.15581e-20)
(0.000776472 -4.80165e-05 -6.15668e-19)
(0.000362256 8.22702e-05 4.97648e-19)
(0.000909201 0.000426735 0)
(4.07595e-05 2.35564e-05 1.33652e-19)
(0.000503727 0.000256479 2.13866e-19)
(0.000569908 -0.000177393 -7.08978e-19)
(6.83494e-05 -0.000177212 -1.05608e-18)
(0.000827405 4.53789e-05 -4.86449e-19)
(0.00075042 -4.49107e-05 -1.94688e-19)
(0.00055814 0.00072685 -1.17381e-18)
(0.000859025 4.27173e-05 -6.72872e-20)
(0.000526943 -2.28862e-06 1.28325e-18)
(0.000728763 9.91782e-05 2.2767e-20)
(0.00055418 0.000199514 -1.6562e-19)
(1.80739e-05 -1.61573e-05 -8.75467e-20)
(0.000134389 -7.38734e-05 2.40485e-18)
(8.59647e-06 4.10041e-07 -1.94781e-19)
(0.000853034 0.000121505 3.63579e-19)
(0.000694327 0.000134106 0)
(0.000155553 -0.000130258 -1.04779e-18)
(0.000101821 -3.50806e-05 3.12618e-19)
(7.82818e-05 -4.52744e-05 8.99226e-24)
(0.000820848 0.000107564 -3.19119e-19)
(0.000136198 -3.33193e-05 0)
(0.000607631 0.000234684 0)
(0.000111322 0.000315449 -3.62727e-19)
(0.000875544 0.000102371 2.10697e-18)
(6.97067e-06 4.67607e-07 0)
(0.00089598 4.89561e-05 0)
(2.82856e-05 -2.33433e-05 0)
(0.000815146 4.90643e-05 -4.46604e-21)
(0.000775635 -1.47861e-05 0)
(0.00426113 0.00740843 8.07254e-20)
(0.00436306 0.00748885 1.43658e-19)
(0.000841457 -2.7795e-05 0)
(0.000806193 -2.05251e-05 8.10975e-19)
(0.000150315 0.000106695 1.49152e-19)
(0.000869588 6.53648e-05 8.08315e-19)
(0.000123839 8.45794e-05 2.343e-20)
(0.000803055 -9.7709e-06 6.23119e-19)
(2.70526e-05 6.46753e-06 0)
(1.74225e-05 -9.49817e-06 -4.48277e-20)
(0.000914338 4.4714e-05 -4.86323e-19)
(1.79088e-05 -2.45376e-05 -6.69505e-19)
(0.000780848 0.00013085 -4.23038e-20)
(0.000169956 0.000144285 -1.88029e-19)
(0.000812156 3.32827e-05 0)
(0.00468252 0.0081535 9.00703e-22)
(0.000202024 0.000791281 3.33341e-19)
(8.06777e-05 -7.4093e-05 -9.14114e-19)
(4.04846e-05 -3.37424e-05 -1.16829e-18)
(0.000558726 1.2731e-05 1.89331e-20)
(0.000590047 0.000400533 0)
(0.000430441 0.000446276 -2.5624e-19)
(5.04708e-05 -6.62088e-05 1.18325e-18)
(0.000525705 -3.14926e-06 7.66839e-20)
(3.21847e-05 2.33082e-07 4.06908e-19)
(0.00073989 -3.34258e-05 1.171e-18)
(0.000812308 3.17593e-05 -6.05941e-19)
(3.57308e-05 -5.172e-05 1.70885e-18)
(0.000840322 -5.3297e-05 -6.75209e-24)
(0.000536542 5.38141e-06 -3.74071e-20)
(0.000885171 7.15874e-05 0)
(0.000848475 6.07471e-05 0)
(0.00591415 0.00724403 2.60064e-19)
(8.44023e-06 -3.28648e-06 -1.19552e-19)
(6.97804e-05 -0.000124089 7.72757e-19)
(0.000750281 0.000113902 -6.96102e-19)
(1.07708e-05 3.89338e-07 2.01481e-19)
(0.000675645 -3.36834e-05 -7.23435e-19)
(0.000766393 3.74254e-05 1.55729e-18)
(0.000726112 0.000154679 -3.55278e-19)
(0.000807087 -1.06939e-05 3.6058e-19)
(5.19552e-05 -3.85191e-05 1.11548e-18)
(0.000802319 6.78513e-06 -3.22424e-19)
(0.000882045 3.00199e-05 0)
(0.000559794 0.000298826 4.20843e-20)
(0.000873928 4.55851e-05 -9.47422e-19)
(9.31318e-06 3.04173e-06 9.11306e-19)
(0.000867111 3.54112e-05 9.65353e-19)
(0.000866946 3.73404e-05 -9.63547e-19)
(0.000775906 7.35522e-06 -5.68883e-19)
(0.000573412 -9.01639e-05 -5.25376e-19)
(0.00433011 0.00745501 2.476e-19)
(0.00422169 0.00752802 -2.78915e-19)
(0.00422 0.00758568 2.66806e-19)
(0.00425675 0.00741215 1.98036e-19)
(0.000845189 -4.18024e-05 1.44202e-19)
(0.00447701 0.00751556 0)
(0.00440445 0.00751949 -3.8698e-19)
(1.57282e-05 -1.89949e-07 -9.97805e-19)
(0.00416965 0.00746818 -6.33818e-20)
(0.00414516 0.00743144 -2.21572e-19)
(0.00602933 0.0106047 0)
(0.00654025 0.0111866 3.71634e-20)
(0.00600926 0.0105744 0)
(0.00655595 0.0112102 1.31002e-19)
(0.00599677 0.0105985 2.69685e-19)
(0.00659264 0.0112271 1.24777e-20)
(0.00593571 0.010611 -7.7682e-19)
(0.00662292 0.0111461 8.1712e-21)
(0.00390349 0.00919675 -1.90793e-19)
(0.00418584 0.0074874 3.8755e-21)
(0.00423665 0.00755089 7.93792e-20)
(0.00414966 0.00743374 4.1215e-20)
(0.000904467 0.000199253 4.46524e-20)
(4.66064e-06 6.21847e-07 0)
(0.000740404 -8.58116e-05 0)
(0.000657019 5.9602e-05 0)
(0.00244874 0.00111986 4.23973e-21)
(0.000759413 -2.94685e-05 1.72495e-19)
(3.12249e-05 3.26626e-06 4.53855e-20)
(2.4547e-06 -1.68385e-05 1.65221e-18)
(0.000870884 -2.60551e-06 0)
(2.15602e-05 9.04261e-06 -1.91643e-19)
(0.00013899 0.000209376 0)
(6.7954e-06 -6.65558e-07 0)
(4.85668e-06 -6.02089e-07 0)
(0.000847519 0.000153317 1.13729e-20)
(0.000810937 -1.69131e-05 1.79553e-19)
(3.92778e-05 0.000246005 -5.85662e-24)
(0.000155747 0.000260956 -1.84128e-18)
(0.00062018 0.000324458 -8.56666e-20)
(0.00090989 0.000118899 6.01192e-19)
(0.000553514 -0.000111173 6.756e-19)
(0.000359569 0.00112025 0)
(0.000486098 0.000575163 2.71441e-18)
(8.68251e-05 0.00013133 -1.80244e-18)
(9.7397e-06 -4.51789e-07 0)
(0.000823324 -6.49518e-05 3.64015e-20)
(1.19646e-05 2.75747e-05 1.64379e-18)
(0.000889356 3.69678e-05 2.70988e-19)
(-2.80843e-05 0.000110714 3.8063e-18)
(0.000921159 4.34016e-05 -2.68854e-19)
(0.00132647 0.000161363 7.47396e-19)
(2.36484e-05 -8.58288e-06 8.2534e-20)
(2.55651e-05 1.22703e-06 -8.58732e-19)
(5.04753e-05 0.000127627 0)
(0.000927481 9.35522e-05 5.98192e-19)
(0.000504793 0.000364461 2.3706e-19)
(0.000583598 1.68979e-05 -3.8886e-20)
(0.000797434 1.59856e-05 2.57027e-19)
(0.000722108 -0.000109321 0)
(0.00632039 0.0108953 -1.6817e-19)
(0.00637875 0.0109727 4.05945e-19)
(0.00616015 0.0107297 -6.18532e-19)
(0.00650127 0.0111318 -8.10098e-20)
(2.97683e-05 0.000105724 8.00188e-19)
(0.000935727 6.26815e-05 1.43792e-22)
(0.00641136 0.0110052 -3.86566e-19)
(0.00628145 0.0108451 5.48424e-19)
(0.00608019 0.0106714 -4.1682e-19)
(0.00652178 0.0111643 -6.81683e-20)
(7.76353e-05 0.00047927 -2.0177e-20)
(2.5495e-05 -0.000176254 -7.92774e-19)
(0.000618167 -1.74923e-05 -7.67364e-19)
(0.000738863 0.000219323 0)
(0.00080029 3.31224e-07 0)
(0.000192384 0.000380505 3.3619e-19)
(0.000607435 0.000511777 -5.41677e-19)
(2.59736e-06 -4.80766e-07 1.78315e-19)
(0.000201851 0.000463627 -7.38164e-19)
(0.0010287 0.000981254 -1.1266e-19)
(0.000764283 0.000167927 0)
(0.000803933 0.000184191 1.30964e-19)
(0.00634676 0.00588424 1.13226e-18)
(0.00073348 0.00112957 8.26446e-20)
(3.24445e-05 3.08681e-05 -7.44369e-20)
(0.00080961 1.21803e-05 0)
(0.000866252 1.82382e-05 -3.56769e-20)
(2.44736e-05 1.23746e-06 -1.96667e-19)
(2.1591e-05 2.49011e-06 1.92923e-19)
(0.00083523 9.89537e-06 5.36967e-19)
(0.000997517 0.000115916 6.57738e-19)
(0.000520686 5.33524e-05 0)
(0.000219426 -0.000234282 -4.00111e-19)
(0.000925762 0.000144495 3.89402e-19)
(-3.43211e-06 -3.35819e-05 2.02932e-19)
(0.00145648 0.000448999 -2.57953e-18)
(0.000541813 -1.77868e-05 0)
(0.000809279 0.000141942 3.75303e-19)
(9.77819e-05 0.000379172 0)
(0.00118948 0.00816098 4.62049e-19)
(0.000501978 0.000494925 -1.22414e-18)
(0.000543446 0.00101842 -1.83699e-19)
(0.000894593 9.25626e-06 -1.45999e-19)
(8.91174e-06 1.93404e-05 0)
(0.000970151 7.99691e-05 6.11302e-19)
(0.00410577 0.00739468 8.14607e-20)
(0.00417048 0.00747271 4.73266e-20)
(0.00450075 0.00751828 4.54137e-19)
(0.00444599 0.0075441 -3.29054e-19)
(0.00647519 0.0111088 8.1087e-20)
(0.00391461 0.00714577 -9.43031e-22)
(0.00550705 0.00780092 -5.64814e-19)
(0.00409761 0.00737126 5.21954e-21)
(0.00518866 0.00786086 5.11749e-19)
(0.00407935 0.0073396 -4.87561e-20)
(0.0049541 0.00772041 0)
(0.00408452 0.00736386 -8.57041e-20)
(0.00474303 0.00759129 4.92577e-19)
(0.00409777 0.00737547 8.75524e-20)
(0.0045758 0.00753083 0)
(0.00428465 0.00742262 1.39786e-19)
(0.00423817 0.00759719 5.80375e-19)
(0.00446848 0.0075296 -5.54329e-19)
(0.0043887 0.00750692 3.71405e-19)
(0.00422681 0.00752396 3.22929e-19)
(0.00643053 0.011042 -4.97675e-21)
(0.00411721 0.00740079 3.11716e-20)
(0.00645867 0.0110719 0)
(1.73811e-05 3.4486e-06 -1.89781e-19)
(0.00200368 0.00654811 2.28142e-19)
(0.000838672 -6.41721e-05 1.09494e-19)
(0.000849203 -4.56488e-06 0)
(2.15715e-07 -4.19638e-08 -3.98941e-19)
(-4.43874e-05 -4.35678e-05 6.9104e-19)
(2.18984e-05 4.77878e-05 2.08821e-18)
(0.000847722 0.000192161 -9.00265e-20)
(0.000801847 8.45079e-06 7.06093e-19)
(-6.00077e-07 7.82515e-07 3.09856e-19)
(9.14521e-06 -2.28724e-05 -1.84476e-18)
(0.000763247 2.64227e-05 1.63087e-19)
(0.000879414 0.000127734 -3.07847e-20)
(0.000801178 -6.37539e-06 1.48067e-19)
(0.000443889 0.000677763 0)
(-1.70603e-05 -0.00011816 1.15072e-18)
(0.000882205 -7.35197e-06 1.52467e-19)
(1.62328e-05 1.87293e-05 0)
(0.000121938 0.000549491 -6.31086e-19)
(0.000616832 0.000580924 1.31717e-18)
(0.000341002 0.000758001 0)
(0.000802121 -1.32039e-05 0)
(0.000801887 3.20357e-06 1.17673e-18)
(1.31578e-05 4.0489e-05 -3.51359e-18)
(1.18051e-05 4.45913e-06 3.73468e-19)
(0.000116408 0.000129674 0)
(2.58756e-05 -3.61181e-05 0)
(5.66606e-05 0.000100735 2.0092e-19)
(0.000946993 0.000190349 3.50274e-19)
(0.000802914 1.63191e-05 -1.37742e-18)
(1.88448e-05 2.65676e-05 0)
(0.000388573 5.36747e-07 -6.04688e-20)
(0.000798673 3.47587e-05 -1.5629e-19)
(0.000854751 5.65236e-05 1.06535e-18)
(0.000249064 0.000543119 6.32035e-19)
(0.000888628 0.000159522 0)
(9.20888e-06 -1.59957e-05 5.38403e-19)
(5.40923e-07 -9.2054e-08 -3.19824e-19)
(0.000925295 3.66492e-05 0)
(0.00105077 0.00227304 0)
(0.000887585 5.98281e-06 0)
(0.00101239 0.000210366 4.26978e-19)
(0.000819416 -3.7124e-05 -2.84151e-19)
(0.000949689 0.000119282 -6.84459e-19)
(0.000801316 3.87896e-06 0)
(3.84572e-05 5.8408e-05 -1.71498e-19)
(0.000174764 0.000318139 1.08079e-18)
(0.00080177 1.45748e-05 -2.61733e-23)
(0.00111646 0.000208021 -6.68268e-19)
(0.00108615 0.000130701 0)
(1.37855e-06 2.30944e-06 2.50922e-19)
(1.09039e-05 -9.99748e-06 -1.94233e-19)
(0.000544628 5.24097e-05 6.9476e-21)
(-1.7589e-05 -4.24657e-05 0)
(0.00108351 0.000258522 9.49486e-19)
(0.00502897 0.00974834 -2.82831e-19)
(0.0031218 0.00961631 1.27237e-18)
(-3.20006e-06 -8.00204e-05 -1.9124e-19)
(2.21503e-05 -6.53097e-05 1.85856e-18)
(0.00119597 0.00026255 1.67275e-19)
(0.00133255 0.00107455 2.34014e-19)
(0.000810433 4.52364e-06 -7.37149e-19)
(0.000204887 0.000945825 -2.38186e-19)
(0.000820169 0.000946567 -2.18513e-19)
(0.00080047 -1.79083e-06 0)
(8.12015e-05 0.000601478 0)
(9.38334e-05 0.000271263 -3.33779e-23)
(0.000721977 -4.89426e-05 -1.66856e-23)
(0.000828798 6.91188e-05 1.52544e-19)
(0.00263474 0.00206934 -1.23114e-18)
(0.00176115 0.00923782 -1.17185e-19)
(0.000833044 7.86117e-05 4.91508e-19)
(0.00631513 0.00405475 -1.76277e-19)
(0.00672081 0.0115568 -1.3668e-20)
(0.00473388 0.00784349 4.93833e-21)
(0.000806825 1.41838e-05 -2.19324e-18)
(0.000845824 -2.15683e-06 8.81502e-24)
(2.94774e-06 -3.71587e-06 -3.47865e-19)
(4.37699e-05 7.76472e-05 -3.49142e-19)
(5.97159e-05 0.000252515 8.75098e-19)
(7.24112e-06 1.16717e-05 4.90206e-19)
(9.00062e-05 0.000216234 3.69638e-19)
(0.000818051 1.30502e-05 0)
(0.00534835 0.00949245 1.94852e-20)
(0.00155203 0.00064321 -2.61113e-20)
(0.000818687 4.22446e-05 3.60029e-19)
(1.41551e-06 -6.24896e-05 0)
(0.0018499 0.000749916 5.45848e-19)
(5.71486e-06 4.58854e-06 -2.70044e-19)
(2.80648e-05 2.23347e-05 9.71425e-20)
(0.00133748 0.0013994 6.36495e-19)
(0.000740945 4.97689e-05 1.83032e-19)
(-3.08537e-08 -1.83001e-07 -1.7013e-19)
(0.00206725 0.00156441 -1.0555e-18)
(0.000127164 0.00016466 -8.18493e-19)
(0.0039201 0.00848941 -1.09077e-18)
(1.84765e-06 5.77429e-07 8.81071e-20)
(8.05905e-05 -7.83557e-06 -1.25808e-18)
(2.47961e-05 -4.96181e-05 4.05471e-20)
(0.0015365 0.000990382 0)
(0.00104619 0.000145531 -3.96273e-22)
(0.000460015 0.000843346 -4.01965e-20)
(0.000803872 2.74751e-05 -2.33982e-19)
(8.67457e-05 0.000171383 7.35811e-19)
(1.02524e-05 -4.58166e-05 4.03819e-19)
(1.44254e-05 1.13551e-05 -9.46719e-20)
(2.63646e-05 7.88704e-05 -3.20165e-19)
(0.000213807 -0.000119073 -5.45739e-19)
(0.00325285 0.00347014 2.87983e-21)
)
;

boundaryField
{
    back
    {
        type            empty;
    }
    ingreso
    {
        type            fixedValue;
        value           uniform (0.0008 0 0);
    }
    salida
    {
        type            zeroGradient;
    }
    front
    {
        type            empty;
    }
    defaultFaces
    {
        type            noSlip;
    }
}


// ************************************************************************* //
