/*--------------------------------*- C++ -*----------------------------------*\
  =========                 |
  \\      /  F ield         | OpenFOAM: The Open Source CFD Toolbox
   \\    /   O peration     | Website:  https://openfoam.org
    \\  /    A nd           | Version:  7
     \\/     M anipulation  |
\*---------------------------------------------------------------------------*/
FoamFile
{
    version     2.0;
    format      ascii;
    class       surfaceScalarField;
    location    "49";
    object      phi;
}
// * * * * * * * * * * * * * * * * * * * * * * * * * * * * * * * * * * * * * //

dimensions      [0 3 -1 0 0 0 0];

internalField   nonuniform List<scalar> 
1111
(
6.39772e-09
1.32489e-08
-1.57603e-08
-3.88634e-09
6.49666e-09
-1.1772e-08
1.16731e-08
-1.47141e-08
4.98185e-09
9.391e-09
3.41302e-10
4.12398e-10
-4.8657e-10
-1.41725e-08
1.42466e-08
-1.40738e-08
1.38298e-08
6.56464e-10
-1.61872e-09
1.48725e-08
2.17475e-09
-3.89937e-09
9.75146e-09
-1.07414e-08
4.88933e-09
-6.67955e-09
-1.26147e-08
1.25767e-08
6.71756e-09
-5.05255e-08
-2.58792e-08
7.64047e-08
-8.10148e-09
7.56457e-09
7.03357e-09
3.59089e-09
3.45023e-10
-3.66856e-09
-2.6735e-10
1.56012e-08
-1.58588e-08
-2.29903e-08
2.32478e-08
-9.62509e-09
-7.95273e-09
8.78909e-09
8.78873e-09
-3.51972e-08
1.75665e-08
-3.23339e-08
4.99646e-08
9.53683e-09
-1.93632e-09
-1.42801e-08
-2.02475e-09
2.64526e-09
-3.76855e-09
3.14804e-09
-3.72955e-09
1.32661e-08
1.94352e-09
-1.148e-08
8.85537e-09
-2.3317e-09
-1.50334e-08
8.50969e-09
3.77557e-08
-3.06085e-08
-7.14717e-09
-1.93193e-08
6.87369e-11
1.74697e-08
1.78091e-09
-7.14286e-10
4.02176e-09
-1.79034e-08
1.4596e-08
-6.12169e-08
-3.96327e-09
6.51801e-08
1.65988e-10
-1.31683e-09
-3.71306e-10
1.52214e-09
-1.29365e-09
-1.34945e-08
-1.88368e-10
-3.28099e-10
2.93369e-10
2.23097e-10
-1.00681e-08
-8.15391e-09
1.25094e-08
5.71263e-09
7.40647e-10
-2.15623e-09
-8.47165e-09
9.88724e-09
7.97551e-09
9.64031e-10
-8.85829e-09
-8.1256e-11
-2.8371e-09
-7.81663e-09
1.08673e-08
-2.13558e-10
1.13615e-08
-5.43229e-10
-1.96294e-09
-1.01186e-09
9.88997e-10
8.34647e-11
-6.06013e-11
-3.01453e-10
8.84714e-10
4.62141e-10
-1.0454e-09
-6.11306e-10
-4.22359e-11
6.51284e-10
2.25807e-12
1.80684e-11
-1.02813e-09
9.74457e-11
9.12611e-10
-5.2295e-11
-9.41496e-10
7.72005e-10
-1.83928e-08
-1.69856e-09
-5.2108e-10
5.70515e-11
-1.47277e-10
1.34116e-08
-1.32853e-08
3.89547e-09
-4.3361e-10
6.45214e-10
4.11531e-10
-6.23135e-10
-4.54518e-10
-2.35516e-09
1.80651e-09
1.00317e-09
-2.14353e-09
9.58941e-09
-1.13452e-08
-3.9223e-10
-2.01706e-10
7.28568e-11
-8.80032e-09
1.0123e-08
-9.42415e-09
1.19604e-08
-1.70209e-08
5.00714e-09
5.34038e-11
9.12181e-11
-2.12373e-10
-2.71075e-10
2.65082e-10
9.03397e-10
-1.79481e-10
-5.96789e-08
7.43272e-08
-1.46483e-08
1.15004e-09
-3.61962e-10
-1.32406e-09
5.35984e-10
1.09993e-09
1.03085e-08
-1.37281e-08
2.31966e-09
-9.06856e-10
7.02338e-09
-8.48857e-09
2.37204e-09
-6.48134e-09
5.78293e-09
5.49245e-09
-4.79404e-09
-7.13471e-09
-2.2083e-09
2.11189e-09
7.23111e-09
-1.83213e-10
-9.09207e-08
9.13064e-08
-2.02473e-10
-2.55317e-10
-8.97615e-08
9.01685e-08
-1.51656e-10
8.30886e-08
-1.50182e-09
1.1707e-10
-8.17038e-08
-3.16526e-09
-1.87351e-10
8.07412e-10
9.20263e-10
-5.7764e-10
4.03207e-09
-1.6623e-09
3.2925e-09
-5.66227e-09
-1.10708e-09
1.0102e-09
-1.49805e-08
6.61384e-09
9.30156e-09
9.86254e-10
-9.99703e-09
-2.90777e-10
-6.29259e-09
1.29401e-08
1.43086e-09
-8.07833e-09
1.43029e-08
-4.11816e-09
3.31837e-09
-1.35032e-08
1.5423e-08
1.73961e-09
-1.73382e-09
-5.68517e-10
-1.98978e-08
-7.1517e-09
2.7618e-08
1.38104e-08
-8.30782e-09
-2.18766e-09
7.67438e-09
-1.17793e-08
-1.07221e-10
2.32235e-10
-1.44907e-09
-3.65418e-08
-2.31371e-08
8.03846e-09
6.82565e-11
3.85364e-09
-6.9774e-09
1.077e-08
6.33036e-09
-6.89525e-10
3.91677e-10
5.56438e-10
-2.58591e-10
5.92057e-09
-4.63982e-09
3.56167e-09
-4.84242e-09
-6.21859e-10
-7.11372e-10
3.05107e-10
8.01999e-10
-7.46788e-10
-1.41719e-10
-1.11971e-09
9.59978e-10
-1.76593e-08
2.49933e-09
1.46996e-09
1.369e-08
2.93169e-10
-8.11339e-10
-1.71355e-10
-3.89195e-09
-1.48184e-08
1.05106e-09
5.67132e-09
1.18022e-08
-5.23857e-09
-1.2235e-08
1.64556e-08
5.70565e-10
-1.59228e-08
-1.1033e-09
-7.74667e-10
5.45362e-10
6.20982e-10
-7.99526e-10
4.25556e-10
3.7397e-10
-7.14738e-09
-3.76204e-09
4.42808e-09
-3.5403e-10
5.17429e-10
-1.63399e-10
1.32087e-09
-1.52809e-08
-8.13689e-10
9.05347e-09
-1.03833e-08
-1.13083e-09
-9.41243e-10
1.26201e-08
4.39406e-09
-4.13809e-09
-1.28761e-08
2.3719e-10
6.98557e-09
-7.69324e-09
6.49059e-09
-1.897e-09
-8.54967e-09
7.8573e-09
2.58936e-09
-1.7801e-09
6.02903e-10
-1.36412e-08
-2.13085e-10
-1.40945e-10
-3.40421e-10
1.13698e-09
-7.93127e-09
7.46845e-10
1.73079e-08
-1.59918e-09
-1.36347e-08
1.48877e-08
-1.25307e-09
1.20153e-08
1.40854e-08
-1.56126e-08
-1.04881e-08
-7.63909e-10
1.31109e-09
-5.47182e-10
1.13244e-09
-1.40653e-09
2.74087e-10
1.86104e-09
-2.54428e-09
6.83235e-10
1.77902e-09
-1.47708e-09
-3.01945e-10
-1.13635e-08
4.3848e-10
1.09251e-08
2.49006e-09
-7.11038e-10
8.88951e-09
-1.51953e-08
6.73726e-09
-7.98453e-09
6.76624e-11
3.93316e-09
-4.09932e-10
-2.83508e-09
2.90275e-09
-7.21097e-09
8.54158e-09
-1.33061e-09
-8.22902e-10
4.1255e-09
7.29473e-10
1.72059e-08
-1.45233e-08
-1.58267e-09
-5.54967e-09
5.19848e-09
-1.31111e-09
-2.4648e-10
6.47032e-09
-6.49533e-09
2.50041e-11
7.04124e-09
4.37177e-09
1.91197e-10
-1.58955e-08
1.04387e-08
1.7472e-08
5.69226e-09
8.33455e-09
8.25607e-09
-6.81103e-09
9.28942e-10
-1.22925e-08
1.13331e-09
3.40408e-10
-1.27698e-08
3.34327e-09
-4.40524e-10
1.28878e-08
-1.23172e-08
-1.44697e-10
-1.03843e-09
-1.37427e-08
7.21549e-09
8.94109e-10
-4.2098e-11
-8.92453e-09
5.18368e-09
-3.1177e-08
-1.25373e-08
-2.53655e-09
1.33118e-09
1.38463e-08
1.09512e-08
-1.06405e-08
-1.4157e-08
1.59243e-08
-3.12445e-09
-1.27999e-08
1.71592e-09
3.87085e-09
-1.40125e-09
-9.70716e-10
-1.00732e-09
1.32956e-09
6.48474e-10
-2.92029e-10
4.2006e-10
4.28406e-10
6.21345e-08
-6.21598e-08
2.53226e-11
6.20533e-08
-6.23573e-08
3.04007e-10
8.36393e-10
6.475e-08
-6.55791e-08
8.29095e-10
6.41407e-08
6.09287e-10
-2.22786e-10
-6.65285e-08
9.49409e-10
-6.2041e-08
6.19072e-08
1.33842e-10
1.32248e-09
-6.7851e-08
-6.22018e-08
1.60801e-10
1.21716e-08
-1.06574e-09
1.67911e-09
-3.72526e-09
3.11189e-09
4.21899e-10
-1.28362e-09
1.12032e-09
-7.89907e-10
1.48329e-09
-1.75505e-09
1.06166e-09
1.53755e-09
-1.69974e-09
3.94431e-10
-9.67109e-11
-3.33909e-09
3.04205e-09
-2.29788e-09
2.59492e-09
-8.05907e-10
-2.85906e-09
2.59923e-09
-3.82587e-09
-5.60799e-09
6.48625e-10
-7.35684e-10
1.42122e-09
1.1824e-09
-6.60027e-09
8.01936e-09
2.95267e-09
2.0242e-08
-4.31772e-09
-8.12939e-10
3.02173e-10
1.15939e-09
-1.0112e-08
-2.64298e-08
5.46561e-09
-4.46315e-09
-3.10935e-09
2.10689e-09
1.33617e-10
1.4551e-11
5.03117e-10
-2.7879e-09
3.49783e-09
8.66602e-09
8.93518e-10
-5.26874e-10
2.21502e-09
-2.49406e-09
2.21087e-09
1.47486e-08
1.31831e-08
-2.697e-08
3.24593e-08
6.18779e-09
-2.28675e-08
-1.02903e-08
1.81125e-08
-1.77061e-08
1.05448e-08
-2.45619e-10
-4.44664e-11
-1.40966e-09
-1.88749e-09
-2.64583e-09
3.90873e-09
1.47453e-08
-6.04392e-10
-1.35381e-08
-7.19678e-11
-2.77827e-09
-8.81737e-12
1.53917e-08
1.74694e-08
1.36203e-08
6.93228e-10
-1.54396e-09
-1.27696e-08
-1.83939e-09
6.01241e-09
1.2279e-08
-7.52129e-10
-1.2278e-09
-3.52313e-09
2.73083e-09
3.83435e-09
2.42701e-09
1.41872e-08
4.12646e-09
-1.39196e-08
1.75491e-08
-1.75273e-09
2.81324e-09
-3.6121e-09
1.87978e-09
-4.59122e-09
1.28775e-08
-1.20158e-08
-1.3914e-08
5.72414e-10
8.75038e-09
-1.90197e-09
1.5995e-09
1.72369e-09
-8.7178e-09
5.76932e-10
-4.39642e-09
-6.04512e-09
1.21912e-08
-1.48639e-08
1.37471e-09
1.66173e-09
-2.18314e-09
1.64684e-08
-1.5947e-08
-9.74365e-10
1.39903e-08
2.82667e-09
-4.11757e-09
-1.39044e-08
7.31077e-09
-1.70328e-08
-7.98405e-09
6.53948e-09
5.85009e-09
1.43495e-08
-9.60748e-09
3.14282e-09
9.05402e-09
9.86082e-09
3.8508e-09
-4.11742e-09
2.14505e-08
-1.88287e-08
4.68893e-09
-1.0128e-08
2.23645e-09
5.45546e-09
1.35636e-08
-8.71545e-11
1.25614e-08
-1.34486e-08
-1.73084e-09
2.39427e-09
-1.50468e-09
8.4125e-10
1.08164e-08
-6.37793e-09
7.36381e-09
-1.0532e-08
1.39025e-09
-4.75483e-09
1.12591e-08
-1.17428e-08
-7.47567e-09
9.01467e-09
9.27735e-09
1.26706e-08
9.1378e-10
-1.36715e-08
1.67544e-09
8.36516e-10
-1.09071e-08
-6.71718e-09
1.01486e-08
-1.70973e-09
2.52373e-09
-8.83175e-09
4.77855e-09
-5.13004e-09
1.13124e-08
-3.49024e-09
-1.14921e-08
3.66992e-09
-4.52024e-09
1.10778e-08
2.08289e-09
1.19205e-09
-5.07667e-09
-1.74863e-08
1.03881e-08
1.21748e-08
8.5446e-10
-1.07954e-08
-9.74788e-09
1.54666e-08
1.22917e-08
2.75318e-09
-9.5894e-09
-1.3213e-08
-2.74582e-10
-1.25702e-08
2.38932e-10
-6.75112e-10
1.13035e-08
1.2411e-08
-8.14765e-09
1.62762e-08
-1.56391e-08
3.48936e-09
-4.55382e-10
1.68506e-09
1.24604e-08
-3.86474e-09
-1.25083e-08
-5.11855e-09
9.17671e-10
4.54129e-09
1.19552e-08
-7.38272e-09
7.84798e-10
-1.28341e-09
1.47651e-09
-1.92394e-09
6.0909e-09
2.59044e-08
-4.54791e-10
-1.17863e-08
1.22411e-08
2.82186e-08
-2.20589e-08
2.19468e-08
1.93493e-08
-1.25846e-08
-2.62362e-09
1.48612e-08
1.83473e-10
-1.20909e-08
-2.95916e-10
-6.02597e-09
-1.95285e-09
2.365e-09
1.67074e-09
-1.6271e-11
-1.08263e-08
1.10273e-08
-1.8478e-10
2.75317e-09
-5.49968e-09
-1.06581e-08
1.03107e-08
-7.52855e-10
-1.04543e-08
-4.84365e-11
-1.07015e-08
-2.83054e-09
-1.18513e-08
2.26421e-09
7.79153e-09
5.09348e-09
8.66838e-11
-1.15668e-08
1.14638e-08
6.64138e-10
-8.5255e-09
5.26034e-09
-1.04095e-09
2.63883e-09
-3.00457e-09
-1.29738e-08
-1.31562e-08
1.27881e-08
-1.01357e-08
-1.58145e-08
1.00548e-08
9.07864e-09
8.59117e-10
2.58683e-09
-1.43731e-08
1.09837e-08
1.71e-09
4.02635e-09
3.68251e-10
-6.08578e-10
-3.81533e-10
-4.03822e-09
2.67916e-09
-1.41921e-09
3.22555e-10
-3.76934e-10
5.4379e-11
-2.54482e-09
1.269e-08
2.14655e-09
2.5621e-09
-8.0804e-10
-1.75567e-09
-1.76286e-10
-2.53371e-09
-6.31613e-10
1.27039e-08
9.81675e-09
-4.66718e-10
7.0557e-09
-1.19772e-09
-5.39126e-09
-9.65242e-09
-5.08065e-09
2.51197e-10
7.1357e-11
4.73403e-09
1.33899e-09
-1.68684e-08
-5.59046e-10
-9.04455e-10
-2.50016e-09
9.02267e-10
2.67955e-09
6.19334e-08
-8.88091e-11
-6.18446e-08
6.23524e-08
1.9027e-10
-6.25426e-08
-1.41911e-08
4.18861e-11
1.45516e-08
-4.02343e-10
2.78584e-09
-2.03505e-09
2.76768e-09
1.79111e-09
-4.38066e-09
-4.75897e-10
-6.28761e-10
5.09828e-10
-1.39658e-10
5.88956e-10
-4.2241e-10
1.91709e-08
1.12092e-09
-1.55578e-08
-2.82908e-10
-1.95998e-09
1.21975e-08
2.22282e-09
1.7505e-09
5.19845e-09
-1.89693e-09
-7.72396e-08
-2.41755e-08
-4.78079e-09
1.57321e-08
2.31477e-09
-6.45615e-10
-3.30731e-09
-1.33327e-09
6.47569e-10
-5.42099e-10
-1.1713e-08
-3.11462e-10
1.20245e-08
-1.06644e-08
-6.65526e-09
1.06024e-08
-9.29989e-09
8.80269e-09
-7.47737e-11
1.82343e-09
1.11904e-08
-1.09669e-08
-2.23485e-10
7.25869e-10
7.09385e-11
9.96275e-09
1.01616e-09
-1.09906e-09
-3.08985e-10
-1.42392e-08
-5.22595e-10
-1.34895e-08
1.22423e-08
-1.15539e-08
-6.59873e-08
6.49434e-08
1.04394e-09
4.27154e-10
-4.12603e-10
1.17052e-08
-3.94071e-10
1.71376e-11
-2.0018e-09
2.77523e-09
-3.39484e-09
-1.35219e-08
-1.67063e-09
2.57609e-09
-4.73812e-09
-1.38538e-08
1.72347e-09
5.61253e-09
9.46456e-09
-8.79157e-09
-4.23551e-10
2.94795e-11
-9.34763e-09
-1.2888e-08
1.50544e-10
-6.27107e-08
2.37797e-10
6.24729e-08
6.9594e-10
6.34448e-08
-2.26421e-10
-1.08785e-09
-1.43783e-08
1.05353e-10
-6.33778e-08
6.32725e-08
1.82482e-10
-6.29276e-08
6.27451e-08
5.0672e-10
6.18075e-08
1.53041e-10
-6.19605e-08
6.16385e-08
1.68959e-10
-8.79035e-08
8.85125e-08
2.48251e-13
9.33899e-08
-9.30976e-08
-2.67015e-10
-8.66428e-08
-4.31626e-10
9.33519e-08
-1.84763e-10
-8.49279e-08
-7.65427e-10
9.34838e-08
1.72099e-10
-5.16863e-10
1.9598e-09
9.23604e-08
-6.93528e-08
6.2151e-08
-6.23342e-08
-6.29661e-08
6.14963e-08
1.4225e-10
-2.99252e-09
2.76395e-09
-1.3691e-08
7.82475e-11
1.7295e-10
2.09666e-09
9.25775e-09
-1.15895e-08
3.82645e-08
-3.44481e-08
-1.65862e-08
1.38098e-08
-7.42477e-11
-2.22003e-10
2.67876e-10
8.89794e-10
-1.72216e-10
3.90015e-10
4.63247e-09
1.0335e-09
-3.78619e-09
-3.53291e-10
4.10344e-10
-2.80434e-10
-2.44347e-09
1.28586e-08
2.27483e-09
-1.44496e-08
-2.43971e-09
-3.61877e-09
5.67506e-09
1.0643e-09
-2.58027e-09
1.41745e-08
-1.20605e-09
-3.53953e-09
5.03919e-09
-8.1112e-09
-1.9074e-08
-1.31374e-08
7.71371e-09
5.99609e-09
-3.05729e-10
-5.24893e-10
3.19562e-09
1.43981e-08
1.99178e-09
-1.51736e-09
-4.62843e-10
5.0509e-10
-2.88728e-10
1.59911e-08
-4.76402e-10
-1.58262e-08
-2.67692e-09
-1.8921e-09
2.92751e-10
-2.24478e-10
3.73334e-09
-1.74406e-08
6.07139e-10
-1.67792e-09
-2.29638e-09
-2.39663e-09
1.5283e-08
-9.05995e-08
-1.38719e-10
9.16871e-08
-1.90494e-10
-8.91774e-08
-4.78709e-10
9.31036e-08
-2.72823e-10
-9.29196e-08
-6.14558e-10
-1.7744e-09
1.62979e-08
9.19907e-08
-1.93231e-10
3.10311e-11
-2.20403e-10
1.04851e-08
2.39385e-09
-8.86848e-09
-1.19376e-08
-5.66277e-09
8.46608e-09
1.39095e-09
-6.90435e-09
-6.26774e-09
9.03366e-09
-1.89215e-10
1.01607e-08
1.93261e-08
-1.77155e-08
3.03509e-09
-1.24832e-08
3.00998e-09
-6.99554e-08
3.96805e-09
-2.0341e-08
-1.29396e-08
-5.82413e-10
-5.90526e-09
-1.53556e-08
9.17002e-09
-1.52278e-08
5.50029e-10
4.6475e-10
-1.58094e-09
-1.62247e-08
1.67831e-08
8.52717e-09
-8.71452e-09
-5.3595e-09
1.50582e-08
-1.6991e-09
8.15314e-10
-1.38208e-09
4.5357e-10
1.20541e-08
3.37304e-09
7.09541e-08
-1.80135e-08
8.99746e-10
-1.47341e-08
-2.89482e-10
-3.36761e-10
-1.51304e-10
6.09629e-08
-6.12357e-08
-6.33468e-08
-6.31208e-08
-6.25595e-11
-2.60515e-10
-9.25965e-08
-6.04628e-08
6.24226e-08
6.50605e-08
-6.02907e-08
6.45436e-08
-6.04755e-08
6.37782e-08
-6.07425e-08
6.33466e-08
9.23204e-08
3.63891e-10
-6.44933e-09
7.50905e-08
-6.52682e-08
9.16215e-11
-9.16215e-11
1.47612e-09
-3.69439e-10
1.54978e-08
-1.00127e-10
1.00127e-10
4.55068e-10
1.56536e-09
1.38634e-08
1.31153e-08
-2.77712e-09
3.75615e-09
6.32843e-09
1.94603e-09
4.44888e-10
-3.1431e-10
-2.92339e-09
1.44251e-08
1.48262e-08
-4.27602e-09
1.17521e-08
2.4635e-10
1.95787e-10
2.93696e-09
-9.84412e-10
-1.71888e-09
-5.9241e-09
-1.50674e-10
-4.66976e-10
1.52595e-08
3.41413e-10
1.37063e-10
1.56597e-08
-2.5875e-08
1.7367e-08
2.59079e-09
1.43656e-09
2.33797e-09
-3.63179e-09
1.90686e-08
-1.77747e-08
-1.21464e-10
6.98513e-10
-1.44556e-09
-7.92143e-08
-7.07984e-08
1.44452e-09
-9.68701e-10
7.10896e-10
2.28411e-08
1.84318e-08
-6.46636e-09
1.26138e-10
-4.45311e-09
-2.27398e-09
2.99518e-08
1.55742e-10
1.4817e-08
7.35801e-08
8.90877e-11
5.54196e-10
-2.06214e-10
-2.71492e-10
-3.82954e-09
2.42517e-08
-1.48174e-08
1.17433e-09
-1.39773e-08
-8.13279e-11
2.02139e-08
-2.87063e-08
9.01272e-10
2.36227e-09
-5.825e-10
)
;

boundaryField
{
    back
    {
        type            empty;
        value           nonuniform 0();
    }
    ingreso
    {
        type            calculated;
        value           nonuniform List<scalar> 
14
(
-1.54286e-08
-1.54288e-08
-1.54288e-08
-1.54288e-08
-1.54286e-08
-1.54283e-08
-1.54288e-08
-1.54288e-08
-1.54286e-08
-1.54286e-08
-1.54288e-08
-1.5428e-08
-1.5428e-08
-1.54286e-08
)
;
    }
    salida
    {
        type            calculated;
        value           nonuniform List<scalar> 2(1.01415e-07 1.14585e-07);
    }
    front
    {
        type            empty;
        value           nonuniform 0();
    }
    defaultFaces
    {
        type            calculated;
        value           uniform 0;
    }
}


// ************************************************************************* //
