/*--------------------------------*- C++ -*----------------------------------*\
  =========                 |
  \\      /  F ield         | OpenFOAM: The Open Source CFD Toolbox
   \\    /   O peration     | Website:  https://openfoam.org
    \\  /    A nd           | Version:  7
     \\/     M anipulation  |
\*---------------------------------------------------------------------------*/
FoamFile
{
    version     2.0;
    format      ascii;
    class       volScalarField;
    location    "10.5";
    object      p;
}
// * * * * * * * * * * * * * * * * * * * * * * * * * * * * * * * * * * * * * //

dimensions      [0 2 -2 0 0 0 0];

internalField   nonuniform List<scalar> 
591
(
0.00012489
0.0001249
0.000124947
0.000124881
0.000124883
0.000125072
0.000124941
0.000124921
0.000117725
0.000124916
0.000125062
0.000123755
0.000125053
0.00012059
0.000124921
0.000124934
0.000124801
0.00012495
0.00012284
0.000124267
0.00012489
-6.62661e-08
0.000125059
0.000124879
0.000125012
0.000124891
0.000124935
0.000124975
0.0001249
0.000124975
0.000125031
0.000125009
0.00012503
0.000125027
0.000125032
0.000124391
0.000125026
0.00012491
0.000125048
0.000124961
0.000124926
0.000125023
0.000124915
0.000124943
0.00012502
0.000125035
0.000120131
0.000125039
0.000124898
0.000125029
0.000124965
0.00012501
2.59189e-05
3.08526e-05
4.86182e-05
0.000124973
0.000125042
0.000125022
0.000125036
0.000124864
0.000124947
0.000124895
0.000124907
0.00012509
0.000123464
0.000124906
0.000124913
0.000125035
0.000121573
0.000124963
0.000124906
0.00012504
0.000124992
0.000125022
0.000125027
0.000125001
0.000124868
0.000125037
0.000124874
0.000124795
0.000124666
0.000125041
0.000125008
0.000124963
0.000125049
0.000124885
0.000124973
0.000125032
0.000124998
0.000124764
0.000125013
0.000124932
0.000124962
0.000124887
0.000125048
0.000125007
0.000124599
0.000124482
0.000124606
0.00012505
0.000124969
0.000124903
0.000125053
0.000124885
0.000125051
0.000124916
0.000124912
0.000124996
0.00012505
0.00012505
0.00012494
0.000125019
0.000124903
0.000125029
0.000125049
0.000125037
0.000124965
0.000124986
0.000124516
0.00012493
0.000124911
0.000125102
0.000124942
0.000124879
0.000125031
0.000120982
0.000125054
0.000125016
0.000124667
0.000125028
0.000124893
0.000124586
0.000124997
0.000124985
0.000125031
0.00012493
0.000123581
0.000125055
0.000124906
0.000124523
0.000124591
0.000124957
0.000125031
0.000125047
0.000125042
1.00242e-05
5.93066e-06
4.3998e-06
3.90081e-05
3.68364e-05
7.99913e-06
3.94187e-05
1.81612e-05
3.82091e-05
2.01586e-05
0.000124908
0.000124885
0.000125042
0.000125038
0.000125044
0.000125041
0.000125036
0.000125034
0.000125035
0.000125036
0.00012499
0.000125045
0.00012504
0.000125044
0.000124966
0.000124324
0.000125048
0.000123004
0.000125012
0.00012503
0.000124963
0.000124905
0.000125029
0.000125038
0.000125033
0.000124438
0.000123382
0.000123961
0.000124389
0.000125033
0.000125037
0.000125022
0.000124879
0.000125028
0.000123857
0.000124243
0.000124881
0.000125032
0.000124736
0.000125022
0.000125025
0.000124992
0.000124693
0.000124872
0.000125025
0.000125045
0.000125027
0.000124817
0.000125004
0.000124827
0.000125044
0.000124915
0.000124909
0.000125041
0.000124672
0.000124868
0.00012494
0.000124492
0.000124991
0.000124646
0.000124933
0.000124928
0.000125012
0.000124416
0.000124931
0.000124861
0.000124883
0.000124999
0.00012477
0.000124927
0.00012484
0.000124742
0.000124868
0.000125047
0.000124801
0.000125042
0.000124869
0.000125014
0.000124883
0.000124876
0.000125044
0.00012479
0.00012504
0.000124785
0.000124842
0.000124942
0.000124898
0.000124904
0.000124901
0.000124638
0.000124868
0.000124813
0.000125004
0.000124904
0.000124717
0.000124991
0.000124245
0.000124857
0.000124166
0.000124008
0.000124907
0.000124841
0.000124901
0.000124897
0.000124824
0.000125042
0.000124921
0.000124988
0.000124908
0.000124927
0.000124938
0.00012499
0.00012466
0.00012504
0.0001247
0.000124575
0.000124929
0.00012502
0.000124592
0.000125043
0.000124934
0.000124973
0.000125
0.00012494
0.000124868
0.000124651
0.000124869
0.000124894
0.000124906
0.000124934
0.000125018
0.000125025
0.000125036
0.000124829
0.000124909
0.000125016
0.000125033
0.000125028
0.000124859
0.000125045
0.000124905
0.000125004
0.000124795
0.000125039
0.000124806
0.000125016
0.000124933
0.000124882
1.416e-05
2.40447e-05
0.000124863
0.000124914
0.000125044
0.000124833
0.000125043
0.000124916
0.000125039
0.000125021
0.000124802
0.000125014
0.000124868
0.000125037
0.00012493
1.45541e-07
0.000124696
0.000125017
0.000125015
0.00012477
0.000124853
0.000124874
0.00012501
0.000124834
0.000125034
0.000124929
0.000124932
0.000125008
0.000124885
0.000124803
0.000124826
0.000124928
4.82355e-05
0.000125026
0.000125007
0.000124893
0.000125033
0.000124955
0.000124919
0.000124887
0.000124876
0.00012502
0.000125067
0.000124834
0.000124899
0.000124839
0.000125037
0.000124848
0.000124871
0.000124921
0.000125001
2.21312e-05
2.86817e-05
3.41001e-05
1.21135e-05
0.000124876
3.32588e-05
2.75693e-05
0.000125032
2.14236e-05
1.94145e-05
3.85761e-05
1.00258e-05
4.07442e-05
7.96555e-06
4.18316e-05
5.94246e-06
4.36502e-05
3.96049e-06
3.71983e-05
2.52994e-05
3.01724e-05
1.73882e-05
0.000124732
0.000125041
0.000124939
0.00012495
0.000121724
0.000125125
0.000125036
0.000125008
0.000124861
0.000125041
0.000125029
0.000125027
0.000125024
0.000124807
0.000124851
0.000125012
0.000125016
0.000124864
0.000124762
0.000124713
0.000124325
0.000124811
0.000125053
0.00012503
0.00012488
0.000125055
0.00012477
0.000124868
0.000124718
0.000123781
0.000125024
0.000125033
0.000125049
0.000124758
0.000124892
0.000124727
0.000124915
0.000124858
2.76296e-05
2.41033e-05
3.30293e-05
1.41468e-05
0.000125061
0.000124778
2.21569e-05
2.91725e-05
3.57152e-05
1.21015e-05
0.000124869
0.000124977
0.000124866
0.000124853
0.000125081
0.000124974
0.00012476
0.000125021
0.000124938
0.000124028
0.000124863
0.00012483
6.01297e-05
0.000124165
0.000125045
0.000124903
0.000124804
0.000125034
0.000125036
0.000124898
0.000124667
0.000124926
0.000124955
0.000124736
0.00012499
0.000123862
0.000124862
0.000124845
0.000124978
0.000101557
0.000124815
0.00012443
0.000124832
0.00012505
0.00012473
1.33969e-05
2.33944e-05
3.571e-05
2.92387e-05
1.61374e-05
2.38035e-06
4.28461e-05
5.06721e-06
4.10323e-05
7.15227e-06
4.04839e-05
9.25005e-06
3.9717e-05
1.13449e-05
3.80723e-05
1.61414e-05
3.17845e-05
3.10566e-05
2.58599e-05
2.70637e-05
2.01409e-05
1.53824e-05
1.81172e-05
0.000125039
0.000103206
0.000124876
0.000124835
0.000125044
0.000124944
0.00012505
0.000124785
0.000125076
0.000125018
0.000125011
0.000125178
0.000124778
0.000125034
0.00012475
0.000124978
0.00012486
0.000125044
0.000124878
0.000124728
0.000124722
0.000125048
0.000125118
0.000125055
0.000125042
0.000125045
0.000125013
0.000125047
0.00012469
0.000124898
0.000125046
0.000124831
0.000125118
0.000124903
0.00012489
0.000124766
0.000125015
0.000125016
0.00012435
0.000122304
0.000124048
0.000124607
0.000124872
0.000124732
0.000125079
0.000125047
0.000124997
0.000124953
0.000124497
0.000124509
0.000125046
0.000125018
0.000124944
0.000124977
0.000124527
5.91693e-05
4.08854e-05
0.000124985
0.000125003
0.000124377
0.000123676
0.000124907
0.000124549
0.000124313
0.000125056
0.000124757
0.000125018
0.000124894
0.000124956
0.000119844
5.51579e-05
0.000124953
8.19642e-05
2.66596e-06
1.1093e-06
0.000124897
0.000124892
0.000125017
0.000125048
0.000125034
0.000125047
0.000125033
0.000124892
-8.31068e-07
0.000123779
0.00012493
0.000124994
0.000122858
0.000125045
0.000125044
0.0001232
0.000124993
0.000125019
0.000122615
0.00012504
7.72029e-05
0.000125043
0.000124426
0.000125007
0.000123289
0.000124596
0.000124611
0.000124934
0.000125042
0.000125002
0.000125043
0.000125061
0.000124874
0.000116976
)
;

boundaryField
{
    back
    {
        type            empty;
    }
    ingreso
    {
        type            zeroGradient;
    }
    salida
    {
        type            fixedValue;
        value           uniform 0;
    }
    front
    {
        type            empty;
    }
    defaultFaces
    {
        type            zeroGradient;
    }
}


// ************************************************************************* //
