/*--------------------------------*- C++ -*----------------------------------*\
  =========                 |
  \\      /  F ield         | OpenFOAM: The Open Source CFD Toolbox
   \\    /   O peration     | Website:  https://openfoam.org
    \\  /    A nd           | Version:  7
     \\/     M anipulation  |
\*---------------------------------------------------------------------------*/
FoamFile
{
    version     2.0;
    format      ascii;
    class       surfaceScalarField;
    location    "10.5";
    object      phi;
}
// * * * * * * * * * * * * * * * * * * * * * * * * * * * * * * * * * * * * * //

dimensions      [0 3 -1 0 0 0 0];

internalField   nonuniform List<scalar> 
1111
(
5.87881e-09
1.34836e-08
-1.51263e-08
-4.23611e-09
5.99303e-09
-1.13347e-08
1.12205e-08
-1.42103e-08
4.18246e-09
1.00499e-08
-2.20775e-11
1.18622e-10
-1.40577e-10
-1.38388e-08
1.38607e-08
-1.38293e-08
1.36567e-08
2.91311e-10
-1.02572e-09
1.4815e-08
1.63931e-09
-3.62118e-09
9.06641e-09
-1.14026e-08
5.95734e-09
-6.32293e-09
-1.22923e-08
1.23066e-08
6.30857e-09
-5.10725e-08
-2.52845e-08
7.6357e-08
-8.0521e-09
7.37578e-09
6.66936e-09
3.80014e-09
4.0089e-10
-3.89032e-09
-3.10715e-10
1.54278e-08
-1.58608e-08
-2.21095e-08
2.25425e-08
-9.70675e-09
-8.61049e-09
9.18465e-09
9.1326e-09
-3.40013e-08
1.69404e-08
-3.20477e-08
4.91086e-08
9.68575e-09
-1.80677e-09
-1.42019e-08
-4.29573e-09
3.95525e-09
-3.04658e-09
3.38706e-09
-3.72356e-09
1.29032e-08
2.02762e-09
-1.12072e-08
8.89944e-09
-2.08449e-09
-1.49601e-08
8.14516e-09
3.89613e-08
-3.26136e-08
-6.34771e-09
-1.90057e-08
-4.77442e-10
1.80475e-08
1.43566e-09
-1.21075e-10
3.73347e-09
-1.81449e-08
1.45325e-08
-6.51943e-08
-2.77753e-09
6.79718e-08
2.38015e-10
-1.42914e-09
-4.37956e-10
1.62908e-09
-9.26342e-10
-1.30241e-08
-2.87155e-10
-3.87561e-10
3.79916e-10
2.948e-10
-1.00507e-08
-8.08714e-09
1.22368e-08
5.90104e-09
9.61131e-10
-2.28128e-09
-8.46866e-09
9.7888e-09
7.5703e-09
1.17426e-09
-8.28391e-09
-4.60651e-10
-2.51815e-09
-7.79109e-09
1.04116e-08
-1.02358e-10
1.10096e-08
1.14904e-10
-2.22502e-09
-1.15921e-09
1.12029e-09
1.68807e-10
-1.29893e-10
-4.87815e-10
1.0266e-09
6.71949e-10
-1.21073e-09
-7.39816e-10
-5.24796e-11
7.84875e-10
7.42054e-12
4.68457e-11
-1.21013e-09
8.07314e-11
1.08256e-09
-8.25007e-12
-1.10411e-09
5.66176e-10
-1.78108e-08
-1.76105e-09
-6.50409e-10
8.27029e-11
-1.72109e-10
1.31381e-08
-1.31738e-08
3.76925e-09
-5.19805e-10
7.27581e-10
5.13348e-10
-7.21123e-10
-1.09949e-09
-2.7094e-09
2.11508e-09
1.69381e-09
-1.74438e-09
8.02153e-09
-9.89833e-09
-5.06718e-10
-2.51026e-10
1.07336e-10
-8.83234e-09
9.91988e-09
-9.13965e-09
1.15456e-08
-1.63772e-08
5.1396e-09
-3.07976e-10
1.33399e-10
-2.68728e-10
-3.71389e-10
3.44596e-10
1.01685e-09
-2.41154e-10
-6.04154e-08
7.47368e-08
-1.43214e-08
1.25717e-09
-4.62283e-10
-1.47204e-09
6.77157e-10
6.42582e-10
1.03377e-08
-1.34485e-08
2.46824e-09
-5.43094e-11
6.27528e-09
-7.45684e-09
1.23587e-09
-6.28348e-09
5.8501e-09
5.36626e-09
-4.93288e-09
-6.62877e-09
-2.56715e-09
2.35031e-09
6.84562e-09
5.50691e-10
-8.7696e-08
8.68662e-08
2.79167e-10
8.3654e-10
-8.97872e-08
8.9264e-08
-3.13323e-10
8.32689e-08
-1.63082e-09
1.26445e-10
-8.17646e-08
-3.3377e-09
1.36982e-10
9.37732e-10
1.00378e-09
-6.84339e-10
4.18911e-09
-1.98834e-09
3.24983e-09
-5.45059e-09
-1.24589e-09
1.1282e-09
-1.50772e-08
6.61807e-09
8.84114e-09
1.12512e-09
-9.56217e-09
-4.04098e-10
-5.8568e-09
1.22691e-08
1.51632e-09
-7.92865e-09
1.39547e-08
-3.64973e-09
3.09304e-09
-1.3398e-08
1.52778e-08
1.49876e-09
-1.34777e-09
9.36815e-11
-2.0289e-08
-7.89298e-09
2.80883e-08
1.32365e-08
-8.11418e-09
-2.22093e-09
7.50549e-09
-1.11414e-08
-2.01135e-10
4.05602e-10
-1.67651e-09
-3.75365e-08
-2.28789e-08
7.83412e-09
-2.60782e-10
3.97228e-09
-6.48167e-09
1.03806e-08
6.02101e-09
-7.83526e-10
4.61082e-10
6.36297e-10
-3.13854e-10
5.99278e-09
-4.51917e-09
3.49087e-09
-4.96448e-09
-7.81758e-10
-7.84518e-10
3.56142e-10
9.34618e-10
-9.06364e-10
-3.15162e-10
-1.35604e-09
1.18339e-09
-1.68565e-08
2.23148e-09
1.46113e-09
1.31639e-08
3.60568e-10
-9.18679e-10
-2.25416e-10
-3.22215e-09
-1.45798e-08
9.45434e-10
5.63171e-09
1.14511e-08
-5.23804e-09
-1.18448e-08
1.62297e-08
6.07147e-10
-1.57204e-08
-1.11646e-09
-8.712e-10
6.29626e-10
7.02656e-10
-1.27614e-09
7.04553e-10
5.71587e-10
-6.86889e-09
-3.94251e-09
4.52792e-09
-5.44357e-10
7.64082e-10
-2.19725e-10
1.33227e-09
-1.46051e-08
-4.82186e-10
8.29166e-09
-9.55385e-09
-1.27821e-09
-1.5913e-09
1.23289e-08
4.38929e-09
-4.19258e-09
-1.25256e-08
4.17396e-10
6.8396e-09
-7.50096e-09
6.51146e-09
-2.12324e-09
-8.12827e-09
7.52128e-09
2.73023e-09
-1.76978e-09
5.63508e-10
-1.33735e-08
-3.46276e-10
-1.98081e-10
-7.53525e-10
1.47266e-09
-7.34791e-09
8.72747e-10
1.69515e-08
-1.5945e-09
-1.61645e-08
1.72878e-08
-1.12333e-09
1.15951e-08
1.37221e-08
-1.52689e-08
-1.00483e-08
-1.05964e-09
1.72557e-09
-6.65929e-10
2.0413e-09
-2.71865e-09
6.77351e-10
3.81814e-09
-5.77743e-09
1.95929e-09
2.31787e-09
-1.96359e-09
-3.54282e-10
-1.30877e-08
1.15041e-10
1.29726e-08
3.11907e-09
-8.01203e-10
8.81392e-09
-1.46846e-08
6.27747e-09
-7.0853e-09
1.92373e-10
4.11013e-09
-5.02364e-10
-3.51997e-09
3.71234e-09
-8.56854e-09
1.00202e-08
-1.45164e-09
-1.10885e-09
3.99524e-09
1.30271e-09
1.65619e-08
-1.44775e-08
-1.44187e-09
-5.04428e-09
4.98635e-09
-1.9304e-09
-2.95559e-10
7.6074e-09
-7.46129e-09
-1.4611e-10
7.06759e-09
4.29144e-09
4.49992e-10
-1.542e-08
1.01189e-08
1.68961e-08
5.67563e-09
8.23156e-09
8.20523e-09
-6.57021e-09
4.13017e-10
-1.35007e-08
1.74028e-09
-5.09289e-10
-1.21112e-08
4.12681e-09
-4.14466e-10
1.52918e-08
-1.46846e-08
-1.54656e-11
-1.271e-09
-1.32819e-08
6.91972e-09
1.02964e-09
-7.69699e-11
-8.96913e-09
5.66187e-09
-3.252e-08
-1.2387e-08
-2.14428e-09
1.24941e-09
1.34553e-08
1.0976e-08
-1.07008e-08
-1.37305e-08
1.75497e-08
-3.11779e-09
-1.44319e-08
1.88714e-09
3.73846e-09
-1.59749e-09
-1.04855e-09
-1.13422e-09
1.47083e-09
7.11948e-10
-3.47313e-10
4.88938e-10
4.94672e-10
6.60351e-08
-6.59317e-08
-1.03355e-10
6.60726e-08
-6.62938e-08
2.21176e-10
8.78315e-10
6.33676e-08
-6.47712e-08
1.40357e-09
6.24609e-08
9.06735e-10
-2.58681e-10
-6.61481e-08
1.37699e-09
-6.48358e-08
6.50213e-08
-1.85529e-10
1.6587e-09
-6.78069e-08
-6.45614e-08
-2.74377e-10
1.19502e-08
-1.34668e-09
2.02237e-09
-3.78638e-09
3.11069e-09
5.0622e-10
-1.38236e-09
1.27154e-09
-9.4789e-10
1.58097e-09
-1.87952e-09
1.24644e-09
1.65309e-09
-1.82188e-09
5.74398e-10
-1.30196e-10
-3.2756e-09
3.20783e-09
-2.51095e-09
2.57872e-09
-1.07092e-09
-2.98425e-09
2.70849e-09
-4.03874e-09
-5.4133e-09
7.07283e-10
-8.37728e-10
1.58712e-09
1.26539e-09
-6.61681e-09
7.9678e-09
2.94046e-09
2.18988e-08
-4.34913e-09
-8.80433e-10
3.09495e-10
1.27822e-09
-9.84175e-09
-2.76947e-08
5.51283e-09
-4.56219e-09
-3.04653e-09
2.09589e-09
1.45829e-10
-8.95142e-12
6.47998e-10
-2.96348e-09
3.61587e-09
8.4905e-09
1.00348e-09
-7.49423e-10
2.30078e-09
-2.62229e-09
2.48523e-09
1.43173e-08
1.28601e-08
-2.64762e-08
3.20622e-08
5.79594e-09
-2.19642e-08
-1.03079e-08
1.76528e-08
-1.72826e-08
1.06059e-08
-3.82296e-10
1.3571e-10
-1.5753e-09
-2.05454e-09
-1.41932e-09
3.0289e-09
1.43283e-08
-4.24529e-10
-1.33403e-08
3.97521e-10
-3.0907e-09
-2.91074e-10
1.48607e-08
1.71094e-08
1.33239e-08
7.56324e-10
-1.5156e-09
-1.25646e-08
-2.07427e-09
5.94089e-09
1.20198e-08
-9.89164e-10
-1.38594e-09
-3.49982e-09
2.7376e-09
3.97005e-09
2.38689e-09
1.38251e-08
4.18237e-09
-1.36182e-08
1.67065e-08
-1.43272e-09
2.98065e-09
-3.73314e-09
1.90854e-09
-4.42864e-09
1.25449e-08
-1.18398e-08
-1.34594e-08
4.6342e-10
8.56735e-09
-1.98354e-09
1.6958e-09
1.87485e-09
-8.98122e-09
5.61258e-10
-3.96705e-09
-5.93288e-09
1.1936e-08
-1.49843e-08
1.56368e-09
1.65223e-09
-2.1073e-09
1.60179e-08
-1.55628e-08
-9.59114e-10
1.38585e-08
2.39172e-09
-3.45358e-09
-1.36227e-08
7.21747e-09
-1.657e-08
-7.93001e-09
6.30655e-09
5.80481e-09
1.39612e-08
-9.19314e-09
3.20759e-09
8.71578e-09
9.67079e-09
3.97264e-09
-4.04096e-09
2.11073e-08
-1.85654e-08
4.67563e-09
-9.64906e-09
2.34305e-09
4.85904e-09
1.33086e-08
-8.14391e-11
1.21634e-08
-1.30411e-08
-1.53437e-09
2.82787e-09
-2.07938e-09
7.8587e-10
1.05175e-08
-6.25978e-09
7.19338e-09
-1.00015e-08
1.47758e-09
-4.75268e-09
1.09518e-08
-1.14372e-08
-7.38156e-09
8.66367e-09
9.23539e-09
1.22872e-08
1.0365e-09
-1.34052e-08
1.83116e-09
9.05061e-10
-1.06718e-08
-6.76086e-09
1.00511e-08
-1.92203e-09
2.52176e-09
-8.38212e-09
4.59349e-09
-5.09905e-09
1.10363e-08
-3.50687e-09
-1.11713e-08
3.64193e-09
-4.54936e-09
1.0833e-08
2.25357e-09
1.2734e-09
-4.87253e-09
-1.72351e-08
1.03242e-08
1.17834e-08
9.50086e-10
-1.05274e-08
-9.8033e-09
1.54581e-08
1.17766e-08
2.68091e-09
-9.59843e-09
-1.31506e-08
-2.42807e-10
-1.23412e-08
3.4757e-10
-6.16788e-10
1.06808e-08
1.2516e-08
-8.11119e-09
1.58401e-08
-1.51033e-08
3.44562e-09
-5.81146e-10
1.58346e-09
1.21616e-08
-3.87339e-09
-1.2164e-08
-5.15284e-09
1.78385e-10
4.46516e-09
1.17166e-08
-7.57518e-09
9.69978e-10
-9.81513e-10
2.11023e-09
-2.66309e-09
5.94901e-09
2.57641e-08
-1.2588e-09
-1.43561e-08
1.56149e-08
2.71977e-08
-2.17261e-08
2.1423e-08
1.92017e-08
-1.23669e-08
-2.32577e-09
1.47515e-08
1.30346e-10
-1.17937e-08
-4.17068e-10
-5.97977e-09
-2.04156e-09
2.50507e-09
1.79006e-09
3.76147e-10
-1.04413e-08
1.02561e-08
-1.90936e-10
1.63527e-09
-5.55224e-09
-1.034e-08
1.00407e-08
-6.12925e-10
-1.00054e-08
-1.78929e-11
-1.01572e-08
-3.04927e-09
-1.15137e-08
2.35015e-09
7.69939e-09
5.07482e-09
4.70884e-10
-1.12723e-08
1.11776e-08
7.41984e-10
-8.25938e-09
5.28634e-09
-4.83097e-10
2.87903e-09
-3.68216e-09
-1.26835e-08
-1.34679e-08
1.268e-08
-9.82179e-09
-1.54246e-08
9.82635e-09
9.05542e-09
7.82236e-10
2.37663e-09
-1.67328e-08
1.05264e-08
1.63201e-09
4.07227e-09
4.33688e-10
-6.83697e-10
-5.31749e-10
-4.01655e-09
2.80947e-09
-1.88363e-09
5.11361e-10
-5.96726e-10
8.53648e-11
-2.40883e-09
1.23043e-08
1.88106e-09
2.52945e-09
-1.48179e-09
-2.02273e-09
1.03893e-10
-2.70163e-09
-8.96393e-10
1.24832e-08
9.56363e-09
-6.1679e-10
7.18681e-09
-1.16255e-09
-5.40748e-09
-9.90932e-09
-4.64491e-09
4.03587e-10
1.07774e-10
4.12494e-09
1.42421e-09
-1.60765e-08
-7.50076e-10
-1.02361e-09
-1.77525e-09
6.7582e-10
2.39237e-09
6.55348e-08
-3.48005e-10
-6.51868e-08
6.41892e-08
-3.05442e-10
-6.38837e-08
-1.40127e-08
2.14021e-10
1.43579e-08
-5.59177e-10
2.34056e-09
-2.18344e-09
2.91667e-09
1.78854e-09
-4.75624e-09
-7.24994e-10
-7.20527e-10
5.85456e-10
-1.78783e-10
7.22331e-10
-5.39669e-10
1.82605e-08
1.17835e-09
-1.53139e-08
-4.07177e-10
-1.9673e-09
1.19362e-08
2.19267e-09
1.76224e-09
4.60165e-09
-1.66245e-09
-8.09416e-08
-2.38275e-08
-4.83947e-09
1.53586e-08
2.38406e-09
-1.07778e-09
-3.50748e-09
-1.51064e-09
8.74796e-10
-7.50102e-10
-1.40463e-08
-3.38213e-10
1.43845e-08
-1.04599e-08
-6.69783e-09
1.03969e-08
-9.05685e-09
8.90629e-09
-3.45774e-10
2.09587e-09
1.35145e-08
-1.31866e-08
-3.27846e-10
8.38803e-10
3.44789e-11
9.17019e-09
1.06804e-09
-1.36706e-09
-4.89351e-10
-1.40383e-08
-5.31837e-10
-1.3024e-08
1.16943e-08
-1.10597e-08
-6.59967e-08
6.47978e-08
1.19899e-09
6.62718e-10
-6.71669e-10
1.13813e-08
-6.30071e-10
3.33446e-11
-1.61723e-09
2.7394e-09
-3.46812e-09
-1.34159e-08
-1.5076e-09
2.45893e-09
-4.34464e-09
-1.36425e-08
1.91067e-09
5.60674e-09
9.24323e-09
-8.72481e-09
-6.52596e-10
2.25245e-11
-9.42754e-09
-1.19654e-08
-3.72221e-10
-6.30981e-08
-7.85931e-10
6.3884e-08
5.40379e-10
6.19205e-08
-3.9687e-10
-6.08534e-10
-1.41566e-08
2.23719e-10
-6.41749e-08
6.39512e-08
-1.09057e-10
-6.34955e-08
6.36046e-08
6.58122e-10
6.56804e-08
-1.25112e-10
-6.55553e-08
6.57018e-08
-2.13669e-11
-8.86948e-08
8.93947e-08
2.06842e-10
8.48997e-08
-8.48067e-08
-1.96366e-10
-8.72152e-08
-7.60628e-11
8.46916e-08
-5.06653e-11
-8.53685e-08
-4.69665e-10
8.46839e-08
2.28969e-10
-4.40894e-10
1.73649e-09
8.38257e-08
-6.94377e-08
6.52501e-08
-6.46994e-08
-6.22616e-08
6.56908e-08
1.09521e-11
-3.09569e-09
2.7335e-09
-1.3256e-08
1.11856e-10
2.9173e-10
2.69175e-09
1.06892e-08
-1.27737e-08
3.84631e-08
-3.45935e-08
-1.59808e-08
1.44028e-08
-1.07139e-10
-2.10608e-10
3.94632e-10
1.05061e-09
-2.17441e-10
4.55582e-10
4.71538e-09
1.09597e-09
-3.90281e-09
-5.81544e-10
6.64247e-10
-4.74207e-10
-2.45063e-09
1.25531e-08
2.20186e-09
-1.43777e-08
-2.11447e-09
-3.95127e-09
5.68818e-09
1.12309e-09
-2.331e-09
1.37925e-08
-1.1373e-09
-5.47339e-09
9.68575e-09
-7.70254e-09
-1.86108e-08
-1.26687e-08
7.78797e-09
5.34412e-09
-3.13968e-10
-5.22919e-10
3.34196e-09
1.42338e-08
1.48336e-09
-9.02156e-10
-5.15254e-10
5.44652e-10
-3.24958e-10
1.57027e-08
-4.15461e-10
-1.56255e-08
-6.87945e-09
-3.19371e-09
3.00082e-10
-3.17741e-10
4.81723e-09
-1.92897e-08
7.15125e-10
-1.783e-09
-2.42127e-09
-1.97212e-09
1.50992e-08
-8.86204e-08
8.15379e-10
8.62555e-08
3.0521e-10
-8.99046e-08
3.41093e-10
8.50787e-08
-1.77387e-10
-8.52493e-08
-7.10891e-10
-1.87331e-09
1.58729e-08
8.57582e-08
-1.42361e-10
3.04909e-11
-1.24825e-10
1.20478e-08
1.90836e-09
-1.0919e-08
-1.16686e-08
-5.3438e-09
8.42504e-09
1.42795e-09
-6.91253e-09
-6.63452e-09
9.11045e-09
-3.40808e-10
1.01164e-08
1.86992e-08
-1.74506e-08
3.00698e-09
-1.22252e-08
3.06824e-09
-6.99025e-08
3.90577e-09
-2.01118e-08
-1.23057e-08
-6.58253e-10
-5.75087e-09
-1.52553e-08
9.21242e-09
-1.4979e-08
6.4133e-10
5.47911e-10
-1.41864e-09
-1.58801e-08
1.64159e-08
1.09411e-08
-1.08041e-08
-5.56992e-09
1.44771e-08
-1.47307e-09
7.88489e-10
-1.64789e-09
7.41842e-10
1.17259e-08
3.60064e-09
7.11361e-08
-1.76954e-08
9.48944e-10
-1.43522e-08
-3.45765e-10
-3.89215e-10
-3.24952e-10
6.53865e-08
-6.55638e-08
-6.41444e-08
-6.36379e-08
1.65527e-10
-1.27005e-10
-8.52878e-08
-6.52436e-08
6.69801e-08
6.49242e-08
-6.50146e-08
6.44833e-08
-6.50653e-08
6.40136e-08
-6.52616e-08
6.39376e-08
8.54624e-08
4.38243e-10
-6.45452e-09
7.49613e-08
-6.49062e-08
1.71466e-10
-1.71466e-10
2.63695e-09
-3.92068e-10
1.542e-08
-2.01056e-10
2.01056e-10
5.656e-10
1.01915e-09
1.44097e-08
1.25272e-08
-2.28018e-09
3.3311e-09
6.53353e-09
1.88223e-09
5.07005e-10
-3.63834e-10
-2.87007e-09
1.4239e-08
1.47877e-08
-4.43844e-09
1.12568e-08
3.11595e-10
2.38504e-10
3.05568e-09
-1.10176e-09
-1.85876e-09
-5.6138e-09
-1.85879e-10
-5.39075e-10
1.50994e-08
4.28481e-10
2.16341e-10
1.7854e-08
-2.4818e-08
1.69422e-08
2.52126e-09
1.55221e-09
1.98272e-09
-3.45162e-09
1.88115e-08
-1.73426e-08
-1.74811e-10
1.14454e-09
-1.45173e-09
-7.91139e-08
-7.08894e-08
1.49666e-09
-1.34351e-09
7.62321e-10
2.25369e-08
1.75853e-08
-6.36997e-09
2.55593e-10
-4.53997e-09
-1.63598e-09
3.0119e-08
2.46738e-10
1.39616e-08
6.70866e-08
1.39751e-10
5.98511e-10
-2.57046e-10
-3.30251e-10
-3.94636e-09
2.30347e-08
-1.46539e-08
1.29769e-09
-1.2853e-08
-1.20263e-10
2.02614e-08
-2.77671e-08
9.15116e-10
2.8063e-09
-8.28793e-10
)
;

boundaryField
{
    back
    {
        type            empty;
        value           nonuniform 0();
    }
    ingreso
    {
        type            calculated;
        value           nonuniform List<scalar> 
14
(
-1.54286e-08
-1.54288e-08
-1.54288e-08
-1.54288e-08
-1.54286e-08
-1.54283e-08
-1.54288e-08
-1.54288e-08
-1.54286e-08
-1.54286e-08
-1.54288e-08
-1.5428e-08
-1.5428e-08
-1.54286e-08
)
;
    }
    salida
    {
        type            calculated;
        value           nonuniform List<scalar> 2(1.04769e-07 1.11231e-07);
    }
    front
    {
        type            empty;
        value           nonuniform 0();
    }
    defaultFaces
    {
        type            calculated;
        value           uniform 0;
    }
}


// ************************************************************************* //
