/*--------------------------------*- C++ -*----------------------------------*\
  =========                 |
  \\      /  F ield         | OpenFOAM: The Open Source CFD Toolbox
   \\    /   O peration     | Website:  https://openfoam.org
    \\  /    A nd           | Version:  7
     \\/     M anipulation  |
\*---------------------------------------------------------------------------*/
FoamFile
{
    version     2.0;
    format      ascii;
    class       volVectorField;
    location    "10.5";
    object      U;
}
// * * * * * * * * * * * * * * * * * * * * * * * * * * * * * * * * * * * * * //

dimensions      [0 1 -1 0 0 0 0];

internalField   nonuniform List<vector> 
591
(
(0.000811504 -5.10109e-05 1.2124e-18)
(0.000747677 -4.46945e-05 -6.67055e-19)
(0.000833961 -6.07835e-05 5.72074e-20)
(0.000821221 1.49053e-05 -1.48915e-19)
(0.00081351 2.21357e-05 2.25032e-19)
(0.000675113 -1.56475e-05 -1.39586e-19)
(0.000508196 -0.000385525 8.00003e-19)
(0.00080465 -1.20045e-05 2.09743e-18)
(0.00574825 0.00248984 9.93562e-19)
(0.000777674 -2.73187e-05 2.4008e-18)
(7.00138e-05 0.000180378 1.2243e-18)
(0.000886167 0.0012377 9.47933e-21)
(0.000773356 1.50102e-05 1.29879e-18)
(0.00152152 0.00234064 -7.91438e-19)
(0.000797642 6.3613e-05 -4.42266e-19)
(0.000173672 -0.000257471 3.27041e-22)
(0.0001277 0.000654682 7.10137e-19)
(0.000853989 2.35011e-05 -4.96302e-19)
(0.00200628 0.000414067 4.73354e-19)
(0.00132158 0.000319969 -2.49793e-19)
(0.000807782 3.5005e-05 3.685e-19)
(0.00374006 0.00739631 6.45781e-21)
(4.29033e-05 7.96844e-05 2.72717e-19)
(0.000808598 8.22916e-06 -4.4729e-19)
(2.09296e-05 -2.66517e-05 3.61658e-19)
(0.000789811 2.02422e-05 0)
(8.91128e-05 0.000476181 1.61135e-19)
(0.00050497 3.49912e-05 -1.80263e-19)
(0.000723877 7.15813e-05 1.14577e-18)
(0.00081843 -4.9339e-05 5.93573e-19)
(7.09576e-05 1.12936e-06 1.30375e-24)
(5.21922e-05 -5.70485e-05 3.54949e-19)
(4.9636e-05 -5.12779e-06 -4.67546e-20)
(5.93252e-05 -7.45413e-06 0)
(6.48773e-05 -1.68069e-05 1.13795e-18)
(0.00115337 0.000147891 1.81646e-19)
(4.36193e-05 -8.40165e-06 4.5067e-20)
(0.00080619 8.86466e-06 4.10674e-23)
(4.03537e-05 5.57125e-05 2.67822e-19)
(8.39806e-05 -0.000159638 -8.60759e-19)
(0.000508967 -0.000150791 9.63434e-19)
(3.66501e-05 -1.10172e-05 4.58405e-20)
(0.000794501 -1.05254e-05 -1.54736e-18)
(0.000816114 -7.80933e-06 -6.76143e-19)
(2.71606e-05 -1.31752e-05 0)
(6.64339e-05 1.28361e-05 8.58548e-20)
(0.00132593 0.00455111 8.99105e-19)
(8.91517e-05 2.60804e-05 8.7038e-20)
(0.000785208 6.98503e-05 0)
(0.000356278 -0.00011223 6.83459e-19)
(0.000364685 0.000281735 5.1585e-21)
(0.000381015 8.74693e-05 -1.0117e-18)
(0.00636327 0.0103448 -8.28652e-19)
(0.00647159 0.0106875 1.18145e-20)
(0.00566522 0.0103987 1.48071e-18)
(0.000801258 -6.48209e-05 0)
(7.74734e-05 4.09296e-05 0)
(0.000339666 3.25891e-05 9.13098e-24)
(7.55476e-05 1.75982e-05 -3.49141e-19)
(0.000890837 -1.52112e-05 0)
(0.000594046 2.66578e-05 3.19685e-19)
(0.00077183 2.84259e-05 2.1807e-18)
(0.000745245 -7.54265e-06 -5.41129e-19)
(0.000689795 1.48048e-05 -3.15032e-19)
(0.00170562 0.000538041 5.48582e-19)
(0.000796885 -8.32024e-06 -1.13233e-18)
(0.000779279 1.86074e-05 -5.15233e-19)
(9.87809e-05 6.99008e-06 -1.74707e-19)
(0.000767419 0.00231737 0)
(0.000806227 8.05462e-06 0)
(0.000708607 1.6429e-05 -1.37565e-18)
(4.65919e-05 2.14879e-05 0)
(0.000277163 0.00027747 3.29353e-19)
(5.54929e-05 -2.2997e-05 0)
(5.3803e-05 -8.00613e-06 1.60721e-19)
(4.04574e-05 -6.19346e-05 -3.39249e-20)
(0.000748284 4.07128e-05 2.44121e-19)
(5.36434e-05 1.55416e-05 0)
(0.000769802 7.58111e-05 4.43059e-19)
(0.000735108 0.000302444 2.124e-19)
(0.000952963 6.17806e-05 -4.0128e-20)
(5.18104e-05 3.01963e-05 -4.554e-20)
(6.6301e-06 -5.19777e-05 0)
(0.00041302 0.00022695 1.71498e-19)
(9.18708e-07 4.04855e-05 0)
(0.000721216 -3.25832e-05 -6.02942e-19)
(0.00053553 -9.73904e-05 0)
(7.88347e-05 4.20609e-06 -1.75828e-19)
(4.59608e-06 -6.8455e-05 0)
(0.000796127 0.000238145 -3.43995e-19)
(4.67849e-06 -3.26259e-05 0)
(0.000408519 0.00032265 -1.21628e-23)
(0.000498393 0.000118458 0)
(0.000789195 3.32693e-05 8.86154e-24)
(2.69642e-06 2.78386e-05 -4.25009e-20)
(0.000422771 2.09717e-05 1.77754e-18)
(0.00100508 7.84382e-05 4.1965e-20)
(0.00103583 2.24683e-05 6.46192e-22)
(0.000721542 0.000641058 2.69492e-19)
(1.5781e-06 7.50068e-05 0)
(8.37498e-06 -0.000138045 -3.14673e-19)
(1.95648e-05 -0.000233118 -1.10913e-18)
(-1.72389e-06 0.000115059 -6.00194e-19)
(0.000768652 -2.93312e-06 0)
(-5.31989e-08 0.000144594 0)
(0.00077555 -1.46474e-05 2.16972e-18)
(0.000723168 5.17003e-05 1.50438e-18)
(0.000391206 -2.53951e-05 0)
(6.12534e-05 0.000237126 -9.0007e-19)
(-6.19763e-07 0.000226948 4.99301e-19)
(9.92017e-05 0.000504263 6.29788e-19)
(0.000280946 0.000136664 -9.39969e-19)
(0.00082885 -7.74873e-06 1.35725e-19)
(0.000270799 6.6417e-06 5.35136e-19)
(8.52966e-07 5.37591e-05 0)
(6.1821e-05 0.000330058 -1.09638e-18)
(0.000308983 0.00032969 -1.62942e-19)
(8.75704e-06 -0.000100915 1.47704e-19)
(0.000628012 0.000757833 0)
(0.000350864 0.00038869 5.78815e-20)
(0.000808759 -8.88856e-07 1.03961e-18)
(0.00068335 -6.50999e-05 -2.70997e-18)
(6.7405e-06 -0.000184322 0)
(0.000789515 -1.04059e-05 -1.12141e-19)
(0.000314028 -3.88641e-05 1.25317e-18)
(0.00273186 0.000826834 -3.37228e-19)
(-8.50002e-06 0.000176916 -6.17066e-19)
(-2.55396e-05 0.000222231 1.6299e-18)
(0.000902713 1.8693e-05 -3.9179e-20)
(7.67306e-05 -2.80611e-06 -7.5515e-19)
(0.000770189 4.64783e-05 -3.91607e-19)
(0.000958263 2.7366e-05 -4.13312e-20)
(8.15282e-05 0.00040656 -6.00884e-19)
(0.00046032 8.60787e-05 -4.97787e-19)
(6.18003e-05 -1.41475e-06 1.57361e-19)
(0.000834057 -2.90968e-05 -1.06602e-18)
(0.00167053 0.000230716 -1.13924e-18)
(-2.454e-06 8.81199e-05 4.99684e-19)
(0.000776808 -1.22442e-06 -5.06965e-19)
(0.000867957 0.000533052 -7.9124e-20)
(0.000140183 0.000899927 0)
(0.000541549 7.00462e-05 0)
(0.000261268 6.53551e-05 -1.61658e-18)
(7.08553e-05 6.87398e-05 -1.38482e-18)
(3.76981e-05 2.63476e-05 0)
(0.00425256 0.00799217 -1.08729e-20)
(0.0042667 0.00796259 4.99679e-20)
(0.00447005 0.00812236 -2.86719e-20)
(0.00390244 0.00755027 0)
(0.0039411 0.00745342 5.78865e-19)
(0.00427093 0.00799188 -1.09777e-19)
(0.00398361 0.00791048 4.98475e-19)
(0.00417128 0.00794834 0)
(0.0041033 0.00853673 6.30401e-19)
(0.00415384 0.00793853 2.53454e-19)
(0.000802747 -1.40295e-05 -1.35084e-18)
(0.000724497 7.14429e-05 0)
(0.000219912 7.97632e-05 1.28703e-19)
(6.01148e-05 2.24648e-05 8.78671e-20)
(8.75728e-05 5.54281e-05 6.85333e-19)
(0.000117246 5.32758e-05 -3.44335e-19)
(0.000112655 1.82448e-05 0)
(5.89187e-05 9.05274e-06 8.24608e-20)
(0.000203655 0.00015024 0)
(0.000175816 6.54459e-05 -5.2842e-20)
(0.000330123 0.000232963 -5.13167e-21)
(6.36236e-05 5.2633e-05 -4.41078e-19)
(0.00010186 3.87949e-05 -8.59139e-20)
(9.93069e-05 7.34285e-05 1.32217e-21)
(0.000244654 0.000371045 -6.71278e-19)
(0.000165568 0.0011159 0)
(4.95796e-05 6.06104e-05 3.45743e-19)
(0.00019304 0.00185511 0)
(0.000204971 0.000261976 7.10078e-19)
(4.69851e-05 -7.70654e-06 1.12177e-19)
(0.000456886 0.000172332 -1.73631e-19)
(0.000773559 2.80041e-05 -1.86579e-18)
(5.31538e-05 1.05473e-06 4.31671e-24)
(0.000159063 4.43574e-05 2.262e-19)
(0.000236813 0.000115958 -9.06355e-20)
(0.000856549 0.000686087 3.37516e-19)
(0.000706387 0.00164546 -9.30576e-21)
(0.000428904 0.00133825 -9.51237e-21)
(0.000997347 0.000556183 0)
(0.000117324 -9.72429e-06 1.12717e-18)
(0.000131272 3.15316e-05 -4.46669e-20)
(0.000406076 -0.000206613 -1.14623e-18)
(0.000794944 4.2503e-05 0)
(0.000183694 4.46673e-05 3.65153e-19)
(0.000228944 0.00140749 0)
(0.00101675 0.000724522 -7.35812e-20)
(0.000803757 4.84486e-05 -1.83832e-19)
(9.71915e-05 -1.76496e-05 -3.02257e-19)
(0.00079417 0.000295935 -2.09686e-20)
(8.65846e-05 -2.39915e-05 -6.02416e-19)
(0.000225971 0.000186516 8.70546e-20)
(0.000223816 0.000312947 -3.47665e-19)
(0.000855287 0.0002328 0)
(0.000770888 2.83116e-05 0)
(0.000258818 0.000155832 1.78217e-19)
(0.000235688 2.65813e-05 2.4963e-24)
(0.000184889 0.000216118 0)
(0.000281153 0.000632744 -5.59267e-21)
(0.000323877 2.34978e-05 0)
(0.000318248 0.000581004 0)
(0.000117986 9.63375e-05 -1.3572e-21)
(0.000793579 -2.34743e-05 -9.49339e-19)
(0.000840739 -2.68689e-05 7.77395e-19)
(0.000137215 7.4168e-05 -1.51023e-19)
(0.000928237 0.000149962 8.56109e-20)
(0.000815284 4.96697e-05 3.29731e-19)
(0.000782055 2.55758e-05 -2.9583e-19)
(0.000972767 0.000402934 0)
(0.000418865 0.000128654 6.29327e-19)
(0.000865308 0.000314151 2.10785e-20)
(0.000541636 0.000169679 0)
(0.00027661 0.000433858 4.1277e-19)
(0.000254293 0.000230257 -8.50691e-20)
(0.00108093 0.000385273 -7.88258e-19)
(0.000580802 0.000121902 -1.80707e-19)
(0.000780145 0.000113192 -7.41938e-21)
(0.000806938 3.02452e-05 9.42135e-20)
(0.000118611 -9.6375e-05 -1.99678e-18)
(0.000713944 0.000372025 2.20953e-19)
(0.000623117 7.66649e-05 2.32273e-20)
(0.000677016 0.000270685 1.418e-23)
(0.000698089 0.0004378 -4.12505e-19)
(0.000823781 3.32203e-05 8.93903e-20)
(7.89282e-05 9.32709e-05 0)
(0.000625762 0.000425733 -4.69402e-20)
(0.000184823 0.00011602 0)
(0.000361787 0.000512822 -2.66724e-19)
(0.000308519 0.000184036 0)
(0.000646999 0.000209423 3.58053e-19)
(0.000619392 0.00027563 -4.40707e-20)
(8.30622e-05 0.000110596 6.23455e-19)
(0.000883486 0.000115639 -1.58805e-18)
(6.79361e-05 2.97157e-05 2.59205e-19)
(0.00089688 7.53297e-05 -1.64289e-18)
(0.00075817 1.64577e-05 1.60643e-19)
(0.000779306 -6.36848e-06 1.92344e-18)
(0.000787344 -1.5936e-06 -1.32476e-19)
(0.000675725 7.40718e-05 0)
(0.000866652 2.19824e-05 8.8814e-19)
(0.000913599 0.000244558 -4.3039e-19)
(0.000737353 7.64446e-05 -4.81915e-19)
(0.000749629 0.000233157 -8.88303e-20)
(0.000251755 -8.83692e-05 -2.09536e-18)
(0.000707187 9.56991e-05 8.94619e-19)
(0.000596303 0.000579381 0)
(0.000139671 -8.78352e-05 0)
(0.00115989 0.000457057 4.99383e-19)
(0.000837599 -0.00019372 -3.25352e-18)
(0.00124611 0.000412893 5.76288e-19)
(0.00125938 0.000722681 -6.41972e-20)
(0.000783475 5.87461e-05 -2.12447e-19)
(0.000795323 9.04892e-05 -1.41237e-18)
(0.000772602 7.64157e-05 1.56621e-18)
(0.000762302 -3.32102e-05 9.64459e-20)
(0.000652928 0.000341482 -4.43875e-20)
(0.000112173 0.000151002 3.18191e-23)
(0.000689367 -7.02513e-05 2.67241e-19)
(0.000266077 -0.000164189 -7.42241e-19)
(0.000593077 0.000195108 0)
(0.000661889 2.22281e-05 9.90228e-20)
(0.00064392 6.67503e-06 -3.82915e-19)
(0.000372566 0.000185293 3.95545e-20)
(0.000757687 0.000494975 -1.66783e-19)
(0.000158211 9.43646e-05 1.84736e-25)
(0.000787948 0.000382486 0)
(0.000943319 0.000320505 4.19042e-20)
(0.00070871 -0.000114343 -6.20841e-19)
(0.00033297 0.000112715 5.00351e-19)
(0.000871952 0.000412929 0)
(5.82407e-05 3.92548e-05 1.34757e-19)
(0.000460086 0.000273382 2.156e-19)
(0.000433508 -7.5154e-05 -7.14809e-19)
(0.00019725 -0.000124422 -1.06729e-18)
(0.00075752 -2.58207e-05 -4.78637e-19)
(0.000792189 -0.000109958 -1.93751e-19)
(0.000547379 0.000737248 -1.17274e-18)
(0.000818312 6.53635e-05 -6.67099e-20)
(0.000786958 -9.20637e-05 1.26678e-18)
(0.000650754 0.0001002 2.29594e-20)
(0.000502371 0.000222303 -1.66961e-19)
(4.61568e-05 -2.70346e-05 -8.82677e-20)
(0.000212979 -2.00519e-05 2.41517e-18)
(3.71208e-05 8.798e-07 -1.96307e-19)
(0.000760016 7.49796e-05 3.61227e-19)
(0.000622829 0.000145182 0)
(0.000210281 -4.06851e-05 -1.0557e-18)
(0.000133958 1.38819e-05 3.14715e-19)
(0.000145296 -3.22713e-05 -1.35806e-23)
(0.000775618 0.000117477 -3.19533e-19)
(0.000160182 -3.97809e-06 0)
(0.000559213 0.00024575 0)
(0.000111578 0.000341481 -3.65637e-19)
(0.000817984 0.000142542 2.07823e-18)
(3.03205e-05 1.77753e-06 0)
(0.00080388 -1.19389e-05 0)
(5.78436e-05 -2.70809e-05 0)
(0.000829625 2.15669e-05 -4.4122e-21)
(0.00081792 -6.66557e-05 0)
(0.00420266 0.00797032 7.75563e-20)
(0.00409559 0.00785716 1.41551e-19)
(0.000833333 1.13092e-05 0)
(0.000736563 -6.61323e-05 8.18927e-19)
(0.000154623 0.000140956 1.50366e-19)
(0.000888946 6.70316e-05 7.9412e-19)
(0.000136242 0.000118367 2.36222e-20)
(0.000729654 -6.97418e-05 6.30779e-19)
(4.30962e-05 1.37826e-05 0)
(4.06049e-05 -1.91419e-05 -4.52001e-20)
(0.000854287 7.78494e-05 -4.81136e-19)
(5.18444e-05 -3.75708e-05 -6.74833e-19)
(0.000729488 0.000130592 -4.26652e-20)
(0.00016752 0.000175962 -1.89556e-19)
(0.000792701 1.25748e-05 0)
(0.00466383 0.00843725 1.74574e-21)
(0.000162046 0.000771267 3.36258e-19)
(0.000140548 -4.495e-05 -9.18294e-19)
(7.98227e-05 -3.60032e-05 -1.17654e-18)
(0.000832182 2.13178e-05 1.9081e-20)
(0.000553216 0.000417885 0)
(0.000386238 0.000423976 -2.57781e-19)
(0.00012356 -4.56561e-05 1.19276e-18)
(0.000790398 5.53843e-06 7.76577e-20)
(5.17273e-05 2.09621e-06 4.10162e-19)
(0.000620963 -5.38761e-05 1.18101e-18)
(0.000779219 7.54895e-06 -6.05024e-19)
(9.90147e-05 -5.36162e-05 1.72219e-18)
(0.000823826 8.78413e-06 1.3535e-24)
(0.000807124 1.60037e-05 -3.79606e-20)
(0.000826162 8.02185e-05 0)
(0.000765041 4.59976e-05 0)
(0.00589673 0.00720843 2.63775e-19)
(3.86511e-05 5.06763e-06 -1.20468e-19)
(0.00020009 -6.65433e-05 7.76947e-19)
(0.000699295 0.000117081 -7.01869e-19)
(4.34643e-05 -1.15284e-06 2.02962e-19)
(0.000554855 -1.52577e-05 -7.29566e-19)
(0.000683372 -1.25629e-05 1.53778e-18)
(0.000673167 0.000154806 -3.58144e-19)
(0.000789575 -5.49805e-05 3.59067e-19)
(0.000106665 -2.67043e-05 1.12468e-18)
(0.000688594 1.52927e-05 -3.21981e-19)
(0.000837466 6.89063e-05 0)
(0.00051852 0.000304432 4.24304e-20)
(0.000864187 2.41123e-05 -9.26511e-19)
(3.76142e-05 -4.27368e-06 9.17702e-19)
(0.000784356 3.74716e-06 9.47424e-19)
(0.000791171 -5.89831e-05 -9.58564e-19)
(0.000677492 2.75528e-05 -5.71916e-19)
(0.000473659 -3.70352e-05 -5.29837e-19)
(0.00411444 0.00789291 2.81199e-19)
(0.00420653 0.00764748 -3.58774e-19)
(0.00401608 0.00743866 3.23937e-19)
(0.00423305 0.00799018 3.0618e-19)
(0.000833493 5.28336e-06 1.43933e-19)
(0.00439004 0.00774933 0)
(0.00411038 0.00775578 -5.32436e-19)
(5.73538e-05 -5.83274e-07 -1.00396e-18)
(0.00418005 0.007981 -7.06618e-20)
(0.00415801 0.00798414 -3.10602e-19)
(0.00610321 0.010642 0)
(0.00620909 0.0100894 5.24988e-20)
(0.00603353 0.0106196 0)
(0.00621067 0.0100972 1.79973e-19)
(0.00600862 0.0106368 2.69914e-19)
(0.00620608 0.0100969 2.20811e-20)
(0.00596539 0.0106199 -7.93789e-19)
(0.00623487 0.0100482 2.34289e-20)
(0.00383131 0.0092022 -1.9347e-19)
(0.0042169 0.00787008 3.96095e-21)
(0.00420462 0.00755934 9.57454e-20)
(0.00416364 0.00800378 5.82137e-20)
(0.000844494 0.000175327 4.496e-20)
(2.24028e-05 2.65071e-06 0)
(0.000629897 -0.000151537 0)
(0.00078629 3.09952e-05 0)
(0.00241754 0.00104808 4.37885e-21)
(0.000654669 -1.2347e-05 1.72498e-19)
(5.00016e-05 9.18068e-06 4.57525e-20)
(2.58027e-05 -3.3015e-05 1.66509e-18)
(0.000834476 3.22289e-05 0)
(3.4799e-05 1.74166e-05 -1.93228e-19)
(0.000147633 0.000233575 0)
(4.01658e-05 -1.23502e-06 0)
(3.34011e-05 -2.11618e-06 0)
(0.000794697 0.000137314 1.14423e-20)
(0.000843021 2.10828e-05 1.77077e-19)
(3.64729e-05 0.000346028 1.10378e-22)
(0.000162332 0.000278862 -1.8561e-18)
(0.000585592 0.000344942 -8.63647e-20)
(0.000870813 0.000118807 5.97047e-19)
(0.000732524 -0.000522917 6.67353e-19)
(0.000312846 0.00109569 0)
(0.00046698 0.00052864 2.72271e-18)
(0.000103142 0.000151154 -1.80942e-18)
(4.62331e-05 5.64889e-07 0)
(0.000859029 -6.6344e-06 3.60093e-20)
(2.24852e-05 4.68791e-05 1.65743e-18)
(0.00088589 2.69026e-05 2.72489e-19)
(0.000111273 -0.000321495 3.80985e-18)
(0.000913485 4.49383e-05 -2.71265e-19)
(0.00150677 9.24976e-05 7.53132e-19)
(4.89741e-05 -1.36583e-05 8.3216e-20)
(4.63287e-05 1.05504e-05 -8.64994e-19)
(4.49665e-05 0.00016778 0)
(0.000865057 0.000110265 5.90675e-19)
(0.000474918 0.000373482 2.38958e-19)
(0.000859192 1.65587e-05 -3.90309e-20)
(0.000724094 -1.8446e-05 2.57311e-19)
(0.00065986 -0.000234057 0)
(0.00641693 0.0104525 -1.77644e-19)
(0.00632702 0.0102506 4.48111e-19)
(0.00641487 0.0107342 -6.18144e-19)
(0.00623157 0.0100898 -9.69305e-20)
(4.53712e-05 0.000119543 8.05194e-19)
(0.000873588 5.0218e-05 1.46036e-22)
(0.00629317 0.0101879 -4.29699e-19)
(0.00645947 0.0105871 5.41185e-19)
(0.00627101 0.0107237 -4.47387e-19)
(0.00622457 0.0100876 -8.41569e-20)
(0.000107534 0.000608817 -2.03542e-20)
(0.000197322 -0.000166763 -8.01141e-19)
(0.000850452 -1.57651e-06 -7.61413e-19)
(0.000699357 0.000216228 0)
(0.000701174 -1.48391e-05 0)
(0.000185348 0.00039235 3.3888e-19)
(0.000605712 0.000582098 -5.3497e-19)
(2.51106e-05 -3.28271e-06 1.79803e-19)
(0.000211684 0.000463112 -7.44066e-19)
(0.0009924 0.00095727 -1.13569e-19)
(0.000716314 0.000174225 0)
(0.000761163 0.000164326 1.31449e-19)
(0.00634165 0.00588497 1.14338e-18)
(0.000674624 0.00112006 8.34316e-20)
(4.67721e-05 4.62335e-05 -7.50538e-20)
(0.000832502 4.255e-05 0)
(0.00086326 1.24004e-05 -3.58062e-20)
(4.59497e-05 7.28906e-06 -1.9812e-19)
(3.98287e-05 8.77503e-06 1.94413e-19)
(0.000806215 1.79896e-05 5.3447e-19)
(0.000948083 0.000110358 6.63834e-19)
(0.000761862 7.54917e-05 0)
(0.000251463 -0.000252708 -4.03774e-19)
(0.00086946 0.000135643 3.90607e-19)
(4.57294e-05 -8.99137e-05 2.04642e-19)
(0.00149414 0.000380926 -2.57777e-18)
(0.000776562 2.12289e-06 0)
(0.000768375 0.000127174 3.74897e-19)
(9.06032e-05 0.000408422 0)
(0.00114725 0.00819602 4.64862e-19)
(0.000461548 0.000514764 -1.23106e-18)
(0.000525636 0.000954518 -1.85163e-19)
(0.000854396 2.55113e-05 -1.45803e-19)
(2.14655e-05 3.31106e-05 0)
(0.000901845 7.50018e-05 6.09122e-19)
(0.00415115 0.00798448 8.30873e-20)
(0.00418956 0.0079333 6.55402e-20)
(0.00445274 0.00771494 4.58534e-19)
(0.00419863 0.00775901 -3.73085e-19)
(0.00624403 0.0101099 9.70641e-20)
(0.00403388 0.00784186 1.77882e-20)
(0.00545254 0.00777866 -5.74305e-19)
(0.00421387 0.00800144 5.15543e-21)
(0.00511856 0.0078273 5.22823e-19)
(0.00418409 0.00796703 -6.65974e-20)
(0.00485258 0.00768113 0)
(0.00415966 0.00797279 -1.05478e-19)
(0.00464808 0.00759783 5.06466e-19)
(0.00415395 0.0079846 8.93232e-20)
(0.00451321 0.0076136 0)
(0.00419844 0.00796619 1.62618e-19)
(0.00412557 0.00748743 6.82351e-19)
(0.00430596 0.00775244 -5.53895e-19)
(0.00409496 0.00782214 4.38357e-19)
(0.00422772 0.0077741 3.4315e-19)
(0.00626709 0.0101517 -4.75277e-21)
(0.00415522 0.00798945 3.71035e-20)
(0.00625475 0.0101272 0)
(3.26558e-05 1.04719e-05 -1.9135e-19)
(0.00199625 0.00651329 2.30589e-19)
(0.000836918 2.56003e-06 1.09734e-19)
(0.000846068 2.0187e-05 0)
(4.65725e-06 5.04567e-06 -4.02247e-19)
(0.000115284 -0.000208461 6.96273e-19)
(2.29723e-05 6.96983e-05 2.10087e-18)
(0.00079816 0.000190731 -9.08041e-20)
(0.000681224 6.53179e-06 7.03598e-19)
(5.31851e-06 -5.88446e-06 3.1244e-19)
(2.93378e-05 -4.96387e-05 -1.85944e-18)
(0.000672794 1.01498e-05 1.62796e-19)
(0.000809848 0.000114297 -3.01164e-20)
(0.000677827 -4.04635e-06 1.47813e-19)
(0.00042697 0.000653313 0)
(0.00014549 -0.000150776 1.1607e-18)
(0.000830863 2.25969e-05 1.51982e-19)
(2.57881e-05 3.07084e-05 0)
(0.000100678 0.000558722 -6.35609e-19)
(0.000615292 0.000559714 1.29728e-18)
(0.000335351 0.000724032 0)
(0.000672376 -6.18502e-06 0)
(0.000684233 9.02884e-05 1.16956e-18)
(2.8222e-05 5.24991e-05 -3.53865e-18)
(2.38947e-05 1.20303e-05 3.76555e-19)
(0.000110351 0.000157668 0)
(6.93078e-05 -4.64319e-05 0)
(7.82041e-05 0.000125772 2.02224e-19)
(0.00089013 0.000179687 3.52148e-19)
(0.000770656 -6.19777e-05 -1.38315e-18)
(2.94738e-05 4.22639e-05 0)
(0.000629513 0.000110557 -6.04561e-20)
(0.000693458 1.36468e-05 -1.56071e-19)
(0.00086168 -2.19121e-07 1.04137e-18)
(0.000247974 0.000544964 6.36759e-19)
(0.000816643 0.000131682 0)
(3.7813e-05 -3.58711e-05 5.42822e-19)
(4.8085e-06 -1.86117e-05 -3.22443e-19)
(0.00117465 -1.30828e-05 0)
(0.000910587 0.0021025 0)
(0.00106108 -0.000140251 0)
(0.00096487 0.000191813 4.30526e-19)
(0.000856932 -7.67065e-06 -2.80837e-19)
(0.000881045 0.000127044 -6.7982e-19)
(0.000689046 2.83376e-05 0)
(4.62454e-05 8.07181e-05 -1.72923e-19)
(0.000172535 0.00033143 1.08947e-18)
(0.000773286 3.26141e-05 1.44232e-23)
(0.00106308 0.000175949 -6.74371e-19)
(0.00106419 0.000120449 0)
(3.94654e-06 1.59424e-05 2.53002e-19)
(2.92901e-05 -2.35538e-05 -1.95823e-19)
(0.000738976 4.62005e-05 6.92762e-21)
(6.13758e-05 -0.000121125 0)
(0.00101417 0.000261484 9.57955e-19)
(0.00506335 0.00971885 -2.88153e-19)
(0.00307129 0.00963621 1.29288e-18)
(0.000102369 -0.000124756 -1.92858e-19)
(9.5489e-05 -8.69249e-05 1.87427e-18)
(0.00117681 0.000225199 1.68519e-19)
(0.00125774 0.00103864 2.35852e-19)
(0.000820506 1.85181e-05 -7.28738e-19)
(0.000217624 0.000918254 -2.40695e-19)
(0.000767485 0.0008674 -2.19887e-19)
(0.000702989 -3.42008e-05 0)
(0.000115806 0.000740031 0)
(0.000100165 0.000287616 -5.58429e-23)
(0.000822507 -1.31525e-05 -3.55188e-23)
(0.00082395 -1.60658e-05 1.52302e-19)
(0.00259622 0.00197968 -1.24288e-18)
(0.00172438 0.00926094 -1.18776e-19)
(0.000767539 3.94232e-05 4.88073e-19)
(0.00631754 0.0040333 -1.7874e-19)
(0.00633391 0.0103164 -2.80591e-20)
(0.00466672 0.00827029 1.154e-20)
(0.000773812 9.65203e-05 -2.16278e-18)
(0.000809766 4.14161e-05 -9.77539e-24)
(1.83751e-05 -1.45168e-05 -3.50699e-19)
(5.15307e-05 0.000103302 -3.52023e-19)
(9.05108e-05 0.00028508 8.82807e-19)
(1.8223e-05 2.28081e-05 4.94254e-19)
(9.41121e-05 0.000243128 3.72626e-19)
(0.000808655 5.74013e-05 0)
(0.0052416 0.00912333 2.93069e-21)
(0.00140642 0.000616723 -2.63755e-20)
(0.00082196 1.77538e-05 3.54937e-19)
(7.6948e-05 -0.000100338 0)
(0.00191598 0.000660278 5.5087e-19)
(1.59527e-05 1.30022e-05 -2.72282e-19)
(4.1656e-05 3.66958e-05 9.79464e-20)
(0.00132204 0.00142338 6.42887e-19)
(0.000818909 2.78354e-05 1.80192e-19)
(1.60455e-05 -4.19823e-06 -1.7155e-19)
(0.00203646 0.00149261 -1.06242e-18)
(0.000130957 0.000192281 -8.23651e-19)
(0.00394124 0.00848767 -1.10454e-18)
(1.42061e-05 3.62834e-06 8.88359e-20)
(0.000224466 -0.000451548 -1.24515e-18)
(7.17492e-05 -6.18253e-05 4.08849e-20)
(0.0014715 0.000899791 0)
(0.00099853 0.000144662 -4.59399e-22)
(0.000417383 0.000853339 -4.05224e-20)
(0.000833525 1.93104e-05 -2.30469e-19)
(8.5405e-05 0.000200859 7.39715e-19)
(6.29483e-05 -7.64949e-05 4.07233e-19)
(2.45346e-05 2.07601e-05 -9.54558e-20)
(4.297e-05 0.000109564 -3.22689e-19)
(0.000200649 -0.000352589 -5.44234e-19)
(0.00323073 0.00341591 2.66366e-21)
)
;

boundaryField
{
    back
    {
        type            empty;
    }
    ingreso
    {
        type            fixedValue;
        value           uniform (0.0008 0 0);
    }
    salida
    {
        type            zeroGradient;
    }
    front
    {
        type            empty;
    }
    defaultFaces
    {
        type            noSlip;
    }
}


// ************************************************************************* //
