/*--------------------------------*- C++ -*----------------------------------*\
  =========                 |
  \\      /  F ield         | OpenFOAM: The Open Source CFD Toolbox
   \\    /   O peration     | Website:  https://openfoam.org
    \\  /    A nd           | Version:  7
     \\/     M anipulation  |
\*---------------------------------------------------------------------------*/
FoamFile
{
    version     2.0;
    format      ascii;
    class       volScalarField;
    location    "91";
    object      p;
}
// * * * * * * * * * * * * * * * * * * * * * * * * * * * * * * * * * * * * * //

dimensions      [0 2 -2 0 0 0 0];

internalField   nonuniform List<scalar> 
591
(
0.000123848
0.000123865
0.000123868
0.000123817
0.000123821
0.000123891
0.000123881
0.000123854
0.000116969
0.000123874
0.00012406
0.000122806
0.00012386
0.000119698
0.000123855
0.000123897
0.00012385
0.000123902
0.000121927
0.000123234
0.000123837
-3.5247e-06
0.000124055
0.000123838
0.000124012
0.000123861
0.000123972
0.000123971
0.000123874
0.000123881
0.000124032
0.000124006
0.000124026
0.000124025
0.000124027
0.000123348
0.000124022
0.000123839
0.00012405
0.000123968
0.00012392
0.000124018
0.000123869
0.000123892
0.000124015
0.000124036
0.000119202
0.00012404
0.000123873
0.000123989
0.00012399
0.00012402
2.39465e-05
3.05929e-05
4.78423e-05
0.000123866
0.000124044
0.000124036
0.000124038
0.000123847
0.000123935
0.000123865
0.000123862
0.000123912
0.000122538
0.000123865
0.000123868
0.000124034
0.000120699
0.000123879
0.000123872
0.000124042
0.000124016
0.00012402
0.000124026
0.000124002
0.000123842
0.000124038
0.000123844
0.000123782
0.000123618
0.000124043
0.000124003
0.000123987
0.00012405
0.000123855
0.000123942
0.000124033
0.000123996
0.000123747
0.000124007
0.000123959
0.000123971
0.000123846
0.000124048
0.000124003
0.000123549
0.000123448
0.000123619
0.000124055
0.000123962
0.00012388
0.00012406
0.000123813
0.000124061
0.000123866
0.000123863
0.000124006
0.000124053
0.000124057
0.000123947
0.000124033
0.000123879
0.000124036
0.000124052
0.000124037
0.000123992
0.000123984
0.000123553
0.000123959
0.000123866
0.000123858
0.000123956
0.000123844
0.00012402
0.00012017
0.000124061
0.000124039
0.000123615
0.000124027
0.000123855
0.000123541
0.000123999
0.000123991
0.00012403
0.000123871
0.0001226
0.000124058
0.000123857
0.000123546
0.000123616
0.000123955
0.000124043
0.000124051
0.000124044
7.61749e-06
3.67934e-06
2.072e-06
3.81637e-05
3.67036e-05
5.66202e-06
3.83159e-05
1.57418e-05
3.72989e-05
1.78088e-05
0.000123866
0.000123857
0.000124049
0.00012404
0.000124048
0.000124047
0.000124039
0.000124035
0.000124049
0.000124047
0.000124013
0.000124048
0.000124044
0.000124051
0.000123993
0.000123365
0.00012405
0.000122101
0.000124035
0.00012403
0.000123981
0.000123875
0.00012403
0.000124046
0.000124046
0.000123463
0.000122447
0.000123022
0.000123414
0.000124034
0.000124041
0.000123939
0.000123836
0.000124037
0.000122942
0.000123271
0.000123836
0.000124028
0.000123724
0.000124022
0.000124043
0.000124018
0.000123692
0.000123827
0.00012404
0.000124045
0.000124045
0.000123845
0.000124026
0.000123842
0.000124053
0.000123859
0.000123859
0.00012405
0.000123651
0.000123827
0.000123869
0.000123509
0.000124003
0.000123655
0.000123943
0.00012396
0.000124033
0.000123421
0.000123931
0.00012382
0.00012382
0.000124002
0.000123765
0.000123915
0.000123832
0.000123745
0.000123812
0.000124054
0.00012381
0.000124052
0.000123905
0.000124031
0.000123874
0.000123875
0.000124056
0.000123761
0.000124042
0.000123751
0.0001238
0.000123864
0.000123843
0.000123881
0.000123867
0.000123637
0.00012384
0.000123794
0.000124008
0.000123859
0.000123716
0.000123996
0.000123264
0.000123829
0.000123156
0.000123042
0.00012385
0.000123814
0.000123853
0.000123849
0.000123823
0.000124055
0.000123896
0.000123972
0.00012391
0.0001239
0.000123912
0.000124009
0.000123659
0.000124051
0.000123694
0.000123582
0.000123884
0.000124029
0.000123606
0.000124045
0.000123956
0.000123969
0.000123998
0.000123875
0.00012385
0.000123687
0.000123808
0.000123845
0.000123891
0.000123952
0.000124015
0.000124034
0.000124038
0.000123793
0.000123901
0.000124028
0.000124033
0.000124027
0.000123818
0.000124041
0.000123916
0.000124027
0.000123779
0.000124041
0.000123766
0.000124017
0.000123905
0.000123849
1.16421e-05
2.19142e-05
0.00012379
0.000123872
0.000124054
0.000123799
0.000124054
0.000123882
0.00012404
0.000124017
0.000123748
0.000124011
0.000123839
0.000124051
0.000123874
-2.09598e-07
0.000123747
0.000124022
0.000124018
0.000123707
0.000123867
0.000123911
0.000124011
0.000123763
0.000124034
0.000123916
0.000123866
0.00012401
0.000123812
0.000123738
0.000123775
0.000123876
4.74885e-05
0.000124029
0.000124007
0.000123865
0.000124036
0.000123944
0.000123887
0.00012387
0.000123854
0.00012402
0.000123882
0.000123786
0.000123919
0.000123792
0.000124034
0.000123799
0.000123859
0.000123893
0.000123978
1.98739e-05
2.73116e-05
3.42994e-05
9.63932e-06
0.000123839
3.30594e-05
2.6018e-05
0.000124031
1.90745e-05
1.70303e-05
3.81886e-05
7.57626e-06
3.99403e-05
5.60492e-06
4.08341e-05
3.68885e-06
4.28162e-05
1.87612e-06
3.64124e-05
2.3196e-05
2.94463e-05
1.49925e-05
0.000123722
0.000124043
0.000123907
0.000123917
0.000120867
0.000123958
0.000124037
0.000124008
0.000123804
0.000124043
0.000124048
0.000124023
0.00012402
0.000123782
0.000123855
0.000124032
0.000124038
0.000123873
0.000123737
0.00012382
0.000123381
0.000123832
0.000124058
0.000124026
0.000123866
0.00012405
0.000123709
0.0001239
0.000123668
0.000122824
0.000124021
0.000124033
0.000124057
0.000123723
0.000123918
0.000123667
0.000123881
0.000123872
2.60533e-05
2.18789e-05
3.30389e-05
1.16182e-05
0.000124061
0.000123716
1.98207e-05
2.82605e-05
3.56057e-05
9.58808e-06
0.000123881
0.000123966
0.000123826
0.000123836
0.000123856
0.000123999
0.000123789
0.000124017
0.000123965
0.000123075
0.000123839
0.000123805
5.9377e-05
0.000123201
0.000124048
0.00012385
0.000123741
0.000124037
0.000124039
0.00012383
0.00012363
0.000123861
0.00012391
0.000123714
0.000123993
0.000122873
0.000123788
0.000123812
0.000124008
0.000100862
0.000123854
0.000123461
0.000123776
0.000124048
0.000123678
1.0896e-05
2.11147e-05
3.53711e-05
2.82105e-05
1.3662e-05
5.50684e-08
4.20865e-05
2.69018e-06
4.01619e-05
4.76216e-06
3.94201e-05
6.81482e-06
3.86276e-05
8.85739e-06
3.72936e-05
1.36738e-05
3.17308e-05
3.05946e-05
2.39417e-05
2.52639e-05
1.77658e-05
1.29383e-05
1.57078e-05
0.000124042
0.000102387
0.000123838
0.000123767
0.000124045
0.000123934
0.000124052
0.000123766
0.000123894
0.000124012
0.000124008
0.000124014
0.000123765
0.000123861
0.000123776
0.000123971
0.000123797
0.000124046
0.000123921
0.000123752
0.000123758
0.000123872
0.000123865
0.000124053
0.000124044
0.000124056
0.000124012
0.000124058
0.000123681
0.000123861
0.000124048
0.000123806
0.000123937
0.000123867
0.000123917
0.000123748
0.000124012
0.00012401
0.000123322
0.000121343
0.000123049
0.000123595
0.00012386
0.000123691
0.000123872
0.000124053
0.000124022
0.000123866
0.000123481
0.000123459
0.000124047
0.000124014
0.000123883
0.000123978
0.000123522
5.83124e-05
4.01228e-05
0.000123983
0.000124001
0.000123364
0.00012272
0.000123848
0.000123601
0.000123349
0.000123856
0.000123776
0.000124041
0.00012389
0.000123921
0.000118979
5.44709e-05
0.00012389
8.12508e-05
1.86189e-06
-3.8092e-07
0.000123856
0.000123825
0.000124013
0.000124056
0.000124048
0.000124046
0.000124051
0.000123843
-2.30711e-06
0.000122798
0.000123883
0.00012399
0.000121985
0.000124045
0.000124046
0.00012226
0.00012396
0.000124015
0.000121662
0.000124053
7.63317e-05
0.000124044
0.000123739
0.000124006
0.000122347
0.000123568
0.000123641
0.000123892
0.000124056
0.000123998
0.000124045
0.000124058
0.00012385
0.000116147
)
;

boundaryField
{
    back
    {
        type            empty;
    }
    ingreso
    {
        type            zeroGradient;
    }
    salida
    {
        type            fixedValue;
        value           uniform 0;
    }
    front
    {
        type            empty;
    }
    defaultFaces
    {
        type            zeroGradient;
    }
}


// ************************************************************************* //
