/*--------------------------------*- C++ -*----------------------------------*\
  =========                 |
  \\      /  F ield         | OpenFOAM: The Open Source CFD Toolbox
   \\    /   O peration     | Website:  https://openfoam.org
    \\  /    A nd           | Version:  7
     \\/     M anipulation  |
\*---------------------------------------------------------------------------*/
FoamFile
{
    version     2.0;
    format      ascii;
    class       surfaceScalarField;
    location    "91";
    object      phi;
}
// * * * * * * * * * * * * * * * * * * * * * * * * * * * * * * * * * * * * * //

dimensions      [0 3 -1 0 0 0 0];

internalField   nonuniform List<scalar> 
1111
(
6.92097e-09
1.29974e-08
-1.60257e-08
-3.89267e-09
6.88327e-09
-1.18064e-08
1.18441e-08
-1.47495e-08
5.66118e-09
8.91211e-09
1.76228e-10
8.4118e-10
-9.69214e-10
-1.43604e-08
1.44885e-08
-1.43162e-08
1.40934e-08
1.06399e-09
-1.63136e-09
1.49129e-08
2.14705e-09
-2.98581e-09
9.53022e-09
-9.70894e-09
3.16453e-09
-6.71893e-09
-1.26143e-08
1.25998e-08
6.73341e-09
-5.02833e-08
-2.60558e-08
7.63391e-08
-8.1258e-09
7.69989e-09
7.30919e-09
3.34127e-09
3.64851e-10
-3.4226e-09
-2.83516e-10
1.5858e-08
-1.62285e-08
-2.32157e-08
2.35862e-08
-9.66359e-09
-7.89568e-09
8.80184e-09
8.75743e-09
-3.55597e-08
1.77039e-08
-3.23248e-08
5.01806e-08
9.50182e-09
-1.96346e-09
-1.42573e-08
-6.56118e-10
1.59692e-09
-3.06609e-09
2.12529e-09
-3.92515e-09
1.33383e-08
1.96728e-09
-1.13805e-08
8.81548e-09
-2.64202e-09
-1.50496e-08
8.87609e-09
3.73001e-08
-2.99707e-08
-7.32946e-09
-1.94506e-08
3.64835e-10
1.72364e-08
1.84936e-09
-1.04392e-09
4.22925e-09
-1.78522e-08
1.46669e-08
-6.12234e-08
-3.96221e-09
6.51856e-08
1.40294e-10
-1.16443e-09
-3.33942e-10
1.35808e-09
-1.72654e-09
-1.36336e-08
-9.31397e-11
-2.45441e-10
1.89333e-10
1.49247e-10
-1.03568e-08
-8.50256e-09
1.30363e-08
5.82307e-09
6.83889e-10
-2.12508e-09
-8.29501e-09
9.7362e-09
8.55935e-09
7.92647e-10
-9.59898e-09
2.46987e-10
-2.87735e-09
-7.99345e-09
1.10664e-08
-1.95619e-10
1.14064e-08
-9.72204e-10
-1.61875e-09
-8.29091e-10
8.31073e-10
-7.20249e-13
-1.26218e-12
-1.057e-10
7.0071e-10
2.35831e-10
-8.30841e-10
-4.4656e-10
-3.94224e-11
4.78953e-10
7.03016e-12
-3.95996e-11
-8.01904e-10
1.12348e-10
7.29156e-10
-9.94491e-11
-7.6924e-10
9.55113e-10
-1.84197e-08
-1.98606e-09
-3.66133e-10
4.06842e-11
-1.21111e-10
1.33852e-08
-1.32423e-08
4.08636e-09
-3.59006e-10
5.54691e-10
3.29578e-10
-5.25262e-10
-5.79485e-11
-1.47796e-09
1.23201e-09
3.03907e-10
-1.99302e-09
1.0553e-08
-1.15457e-08
-2.60623e-10
-1.52734e-10
4.7225e-11
-8.74898e-09
1.0457e-08
-9.83379e-09
1.2244e-08
-1.71479e-08
4.60937e-09
2.94547e-10
5.49093e-11
-1.51257e-10
-1.64275e-10
1.67397e-10
7.69085e-10
-1.05407e-10
-5.95328e-08
7.42313e-08
-1.46985e-08
1.02203e-09
-2.3725e-10
-1.14298e-09
3.58195e-10
1.14844e-09
1.03102e-08
-1.37154e-08
2.25675e-09
-1.74058e-09
7.70571e-09
-8.93762e-09
2.97249e-09
-6.70748e-09
5.63094e-09
5.66361e-09
-4.58707e-09
-7.64704e-09
-1.69921e-09
1.73528e-09
7.61096e-09
-1.80711e-10
-9.09171e-08
9.13027e-08
-2.04884e-10
-2.55775e-10
-8.97518e-08
9.01616e-08
-1.53985e-10
8.30787e-08
-1.49329e-09
1.10124e-10
-8.16955e-08
-2.87822e-09
-4.64852e-10
6.43392e-10
8.27127e-10
-4.48488e-10
3.92412e-09
-1.10913e-09
3.46457e-09
-6.27956e-09
-9.45562e-10
8.7571e-10
-1.49384e-08
6.588e-09
9.78416e-09
1.05209e-09
-1.0561e-08
-2.75277e-10
-6.11413e-09
1.34443e-08
1.04401e-09
-8.37422e-09
1.43699e-08
-4.51093e-09
3.72867e-09
-1.35876e-08
1.53987e-08
1.67996e-09
-1.64982e-09
-1.94525e-10
-2.00632e-08
-7.42606e-09
2.76837e-08
1.4363e-08
-8.7421e-09
-1.91901e-09
7.97136e-09
-1.21665e-08
8.65503e-12
5.76271e-11
-1.20926e-09
-3.62011e-08
-2.33316e-08
8.30175e-09
2.68239e-10
3.67399e-09
-7.00598e-09
1.11159e-08
6.34709e-09
-5.83537e-10
3.10239e-10
4.70561e-10
-1.97263e-10
5.75077e-09
-4.77989e-09
3.65893e-09
-4.6298e-09
-4.39421e-10
-6.18104e-10
2.55622e-10
6.40069e-10
-5.67142e-10
-3.0703e-12
-7.98512e-10
6.95883e-10
-1.81178e-08
2.42278e-09
1.56438e-09
1.41307e-08
2.14947e-10
-6.79898e-10
-1.18585e-10
-4.13815e-09
-1.51209e-08
1.14121e-09
5.61054e-09
1.20635e-08
-5.2277e-09
-1.24463e-08
1.64202e-08
7.02621e-10
-1.58833e-08
-1.23947e-09
-6.64783e-10
4.42186e-10
5.32836e-10
-3.71341e-10
1.84108e-10
1.87232e-10
-7.41392e-09
-3.56046e-09
4.2669e-09
-2.16145e-10
3.34868e-10
-1.18723e-10
1.14555e-09
-1.56405e-08
-8.07338e-10
9.84641e-09
-1.10321e-08
-9.37626e-10
-3.7441e-10
1.29189e-08
4.42137e-09
-4.16731e-09
-1.3173e-08
9.09702e-11
7.15647e-09
-7.92653e-09
6.40099e-09
-1.66069e-09
-8.96029e-09
8.18402e-09
2.43696e-09
-1.89673e-09
6.73058e-10
-1.38972e-08
-1.18386e-10
-9.77582e-11
2.13889e-10
7.38562e-10
-8.59949e-09
7.53364e-10
1.72862e-08
-1.61939e-09
-1.22158e-08
1.35796e-08
-1.36374e-09
1.22209e-08
1.39475e-08
-1.55052e-08
-1.06631e-08
-5.25649e-10
9.68563e-10
-4.42914e-10
3.57815e-10
-2.66068e-10
-9.17475e-11
3.24014e-10
1.45115e-11
-3.38526e-10
1.37023e-09
-1.10886e-09
-2.61377e-10
-1.05978e-08
8.54621e-10
9.74321e-09
2.00419e-09
-6.33956e-10
8.96661e-09
-1.53966e-08
7.59033e-09
-9.11702e-09
5.81808e-11
3.68385e-09
-4.00767e-10
-2.36904e-09
2.42722e-09
-6.54912e-09
7.88295e-09
-1.33383e-09
-5.42698e-10
4.25361e-09
2.13208e-10
1.72689e-08
-1.44812e-08
-1.63921e-09
-6.03422e-09
5.39918e-09
-4.74087e-10
-1.9078e-10
5.86523e-09
-5.85696e-09
-8.2633e-12
6.89016e-09
4.52421e-09
-1.65938e-11
-1.59851e-08
1.04628e-08
1.77431e-08
5.77775e-09
8.26888e-09
8.19588e-09
-6.84907e-09
1.36229e-09
-1.19601e-08
3.88444e-10
1.28304e-09
-1.29832e-08
2.85108e-09
-4.23861e-10
1.14625e-08
-1.07599e-08
-2.55455e-10
-7.8162e-10
-1.38086e-08
7.63722e-09
7.32348e-10
-4.4528e-12
-8.89696e-09
5.03224e-09
-3.01652e-08
-1.25108e-08
-2.79935e-09
1.5016e-09
1.40935e-08
1.10248e-08
-1.07871e-08
-1.43313e-08
1.54148e-08
-3.13158e-09
-1.22833e-08
1.61652e-09
3.97535e-09
-1.05347e-09
-8.98479e-10
-8.55955e-10
1.15178e-09
6.02652e-10
-2.31019e-10
3.51206e-10
3.50375e-10
6.21403e-08
-6.2166e-08
2.57843e-11
6.20606e-08
-6.23646e-08
3.03948e-10
8.37183e-10
6.4734e-08
-6.55607e-08
8.26758e-10
6.41264e-08
6.07553e-10
-2.24308e-10
-6.65061e-08
9.45372e-10
-6.20548e-08
6.19202e-08
1.34651e-10
1.31551e-09
-6.78216e-08
-6.22148e-08
1.5995e-10
1.25817e-08
-7.06344e-10
1.32004e-09
-3.69998e-09
3.08629e-09
3.1925e-10
-1.18161e-09
9.26525e-10
-5.78022e-10
1.38801e-09
-1.62349e-09
8.13497e-10
1.40144e-09
-1.50244e-09
1.58631e-10
-5.29566e-11
-3.4296e-09
2.76536e-09
-1.99529e-09
2.65953e-09
-4.64183e-10
-2.74239e-09
2.50023e-09
-3.56668e-09
-5.80028e-09
5.84145e-10
-6.12972e-10
1.20417e-09
1.11037e-09
-6.48387e-09
7.92115e-09
3.08693e-09
1.97679e-08
-4.35301e-09
-7.02799e-10
2.85125e-10
1.00182e-09
-1.00952e-08
-2.61059e-08
5.31594e-09
-4.27745e-09
-3.17181e-09
2.13331e-09
1.02477e-10
2.36346e-11
3.52841e-10
-2.56961e-09
3.33971e-09
8.94549e-09
7.38094e-10
-2.42997e-10
2.09738e-09
-2.31857e-09
1.86578e-09
1.47296e-08
1.33114e-08
-2.69397e-08
3.27025e-08
6.33805e-09
-2.28314e-08
-1.04464e-08
1.8489e-08
-1.79776e-08
1.05134e-08
-7.74236e-11
-1.94636e-10
-1.23038e-09
-1.70785e-09
-2.92985e-09
3.52245e-09
1.50934e-08
-6.12259e-10
-1.38081e-08
-6.45727e-10
-2.35586e-09
2.59199e-10
1.54685e-08
1.775e-08
1.37046e-08
7.29572e-10
-1.68954e-09
-1.27446e-08
-1.54213e-09
5.98301e-09
1.25465e-08
-4.98374e-10
-1.05249e-09
-3.62623e-09
2.78279e-09
3.6088e-09
2.49099e-09
1.44688e-08
4.25716e-09
-1.43046e-08
1.79989e-08
-1.76423e-09
2.49317e-09
-3.39598e-09
1.90133e-09
-4.91268e-09
1.29452e-08
-1.19577e-08
-1.4039e-08
3.34182e-10
8.7921e-09
-1.808e-09
1.51029e-09
1.50187e-09
-8.65952e-09
7.06867e-10
-4.55817e-09
-6.0079e-09
1.21951e-08
-1.48467e-08
1.10288e-09
1.67127e-09
-2.20703e-09
1.67786e-08
-1.62428e-08
-1.0825e-09
1.41748e-08
3.06323e-09
-4.42459e-09
-1.40352e-08
7.54731e-09
-1.73693e-08
-8.15565e-09
6.80289e-09
5.86841e-09
1.45834e-08
-9.99364e-09
3.03207e-09
9.39853e-09
9.85233e-09
3.84658e-09
-4.19281e-09
2.1731e-08
-1.91795e-08
4.99579e-09
-1.0549e-08
2.17191e-09
5.65778e-09
1.39055e-08
-2.9814e-10
1.27964e-08
-1.35808e-08
-1.91163e-09
1.82204e-09
-8.24249e-10
9.1384e-10
1.10373e-08
-6.37401e-09
7.40014e-09
-1.09455e-08
1.4486e-09
-4.74605e-09
1.14729e-08
-1.19545e-08
-7.56985e-09
9.20003e-09
9.40715e-09
1.29083e-08
6.39379e-10
-1.38458e-08
1.47321e-09
7.88938e-10
-1.1116e-08
-6.72414e-09
1.02703e-08
-1.42411e-09
2.51511e-09
-8.97912e-09
4.79249e-09
-5.26633e-09
1.15719e-08
-3.4838e-09
-1.17818e-08
3.69372e-09
-4.47745e-09
1.13033e-08
1.85961e-09
1.12389e-09
-5.03787e-09
-1.77869e-08
1.04864e-08
1.23383e-08
7.46472e-10
-1.10098e-08
-1.00045e-08
1.59764e-08
1.25848e-08
2.86262e-09
-9.78969e-09
-1.33237e-08
-3.21816e-10
-1.27567e-08
1.62322e-10
-7.66449e-10
1.16705e-08
1.25388e-08
-8.23657e-09
1.66422e-08
-1.60191e-08
3.63412e-09
-4.76268e-10
1.77029e-09
1.28367e-08
-3.92145e-09
-1.26922e-08
-5.06757e-09
1.73928e-09
4.61134e-09
1.22678e-08
-7.24765e-09
9.42512e-10
-1.62916e-09
7.0919e-10
-9.91655e-10
5.88028e-09
2.63641e-08
-1.18964e-10
-9.82461e-09
9.94358e-09
2.856e-08
-2.23148e-08
2.20939e-08
1.97388e-08
-1.27175e-08
-2.68685e-09
1.50975e-08
1.8447e-10
-1.21437e-08
-4.28513e-10
-6.01713e-09
-1.86445e-09
2.21276e-09
1.51131e-09
-3.95706e-10
-1.10973e-08
1.15063e-08
-1.32497e-11
3.0912e-09
-5.18628e-09
-1.10775e-08
1.06258e-08
-9.09705e-10
-1.08023e-08
-2.02653e-10
-1.1268e-08
-2.55784e-09
-1.20431e-08
2.17901e-09
7.90356e-09
5.1413e-09
-3.69056e-10
-1.18073e-08
1.17806e-08
5.75687e-10
-8.82011e-09
5.16049e-09
-1.49391e-09
2.27976e-09
-2.16964e-09
-1.30533e-08
-1.26355e-08
1.21475e-08
-1.02056e-08
-1.5795e-08
1.00156e-08
9.27242e-09
8.37142e-10
2.67613e-09
-1.25007e-08
1.14508e-08
1.66836e-09
3.91813e-09
2.92897e-10
-4.98338e-10
-2.33979e-10
-4.14215e-09
2.54692e-09
-7.60632e-10
1.84589e-10
-2.17198e-10
3.26088e-11
-2.68005e-09
1.30444e-08
2.22053e-09
2.5452e-09
-4.90346e-12
-1.41493e-09
-4.87554e-10
-2.33528e-09
-3.1003e-10
1.29957e-08
1.00664e-08
-3.30192e-10
6.82421e-09
-1.23674e-09
-5.25728e-09
-9.80404e-09
-5.1202e-09
1.40686e-10
4.39035e-11
4.87744e-09
1.32351e-09
-1.72107e-08
-3.51684e-10
-7.64793e-10
-2.77328e-09
1.02403e-09
3.03797e-09
6.1942e-08
-8.58919e-11
-6.18561e-08
6.23657e-08
1.88997e-10
-6.25547e-08
-1.413e-08
-2.22034e-10
1.44865e-08
-1.34502e-10
3.07484e-09
-1.81644e-09
2.53111e-09
1.80043e-09
-4.49626e-09
-3.22595e-10
-5.2204e-10
4.2363e-10
-9.88522e-11
4.32629e-10
-2.92466e-10
1.9667e-08
1.06491e-09
-1.58544e-08
-1.49311e-10
-1.93555e-09
1.25004e-08
2.2718e-09
1.79466e-09
5.34305e-09
-2.10935e-09
-7.72338e-08
-2.41777e-08
-4.93253e-09
1.58378e-08
2.43305e-09
-1.1187e-10
-2.98405e-09
-1.09111e-09
3.40674e-10
-3.02044e-10
-1.0078e-08
-3.57356e-10
1.04353e-08
-1.08504e-08
-6.59654e-09
1.07228e-08
-9.46716e-09
8.75692e-09
1.98676e-10
1.51149e-09
9.60052e-09
-9.52118e-09
-7.93414e-11
5.99398e-10
8.57397e-11
1.06816e-08
6.22029e-10
-7.89687e-10
-1.0275e-10
-1.42446e-08
-4.77436e-10
-1.38012e-08
1.26625e-08
-1.18667e-08
-6.60349e-08
6.49899e-08
1.04503e-09
2.49432e-10
-2.25797e-10
1.20006e-08
-2.26201e-10
9.00289e-12
-2.05241e-09
2.76401e-09
-3.42745e-09
-1.34744e-08
-1.62548e-09
2.57304e-09
-4.72035e-09
-1.4084e-08
1.59361e-09
5.56423e-09
9.6627e-09
-9.02505e-09
-2.50609e-10
2.44085e-11
-9.32051e-09
-1.33337e-08
1.50932e-10
-6.26989e-08
2.36253e-10
6.24626e-08
6.95112e-10
6.34313e-08
-2.24028e-10
-1.59618e-09
-1.44908e-08
1.08025e-10
-6.34019e-08
6.32939e-08
1.83472e-10
-6.29431e-08
6.27596e-08
3.51666e-10
6.18022e-08
1.50362e-10
-6.19526e-08
6.16333e-08
1.68882e-10
-8.78916e-08
8.8501e-08
-1.8116e-12
9.33957e-08
-9.31023e-08
-2.67549e-10
-8.66305e-08
-4.34356e-10
9.33546e-08
-1.83228e-10
-8.49167e-08
-7.68364e-10
9.34854e-08
1.73172e-10
-5.2256e-10
1.96107e-09
9.23615e-08
-6.93149e-08
6.2143e-08
-6.23237e-08
-6.29547e-08
6.14908e-08
1.42524e-10
-3.11017e-09
2.94189e-09
-1.41363e-08
4.96111e-11
9.10755e-11
1.37057e-09
8.74213e-09
-1.13841e-08
3.82997e-08
-3.45298e-08
-1.67531e-08
1.37972e-08
-4.12268e-11
-2.12396e-10
1.54189e-10
6.48775e-10
-1.27107e-10
3.19719e-10
4.4721e-09
1.03788e-09
-3.60865e-09
-1.78081e-10
2.18765e-10
-1.30855e-10
-2.5662e-09
1.31919e-08
2.4187e-09
-1.44341e-08
-2.62687e-09
-3.33607e-09
5.55967e-09
1.04574e-09
-2.64869e-09
1.42974e-08
-1.16229e-09
-1.97235e-09
2.20699e-09
-8.12245e-09
-1.9062e-08
-1.34712e-08
7.98405e-09
5.82128e-09
-2.23502e-10
-5.59822e-10
2.99608e-09
1.44785e-08
2.27146e-09
-1.83708e-09
-3.87864e-10
4.37947e-10
-2.40863e-10
1.59575e-08
-5.78279e-10
-1.57366e-08
-2.42043e-10
-3.99562e-10
3.24553e-10
-2.50369e-10
3.45528e-09
-1.63841e-08
4.61814e-10
-1.52839e-09
-2.11771e-09
-2.31758e-09
1.56453e-08
-9.05947e-08
-1.3892e-10
9.16821e-08
-1.90415e-10
-8.91671e-08
-4.76645e-10
9.31053e-08
-2.75397e-10
-9.29158e-08
-5.49929e-10
-1.61242e-09
1.67711e-08
9.19834e-08
-1.96851e-10
2.89767e-11
-2.21117e-10
9.85022e-09
2.51848e-09
-7.48131e-09
-1.21823e-08
-5.67804e-09
8.42179e-09
1.47906e-09
-6.81392e-09
-6.00855e-09
9.0312e-09
-7.59447e-11
1.01433e-08
1.94973e-08
-1.79758e-08
3.08215e-09
-1.27013e-08
3.09129e-09
-6.99748e-08
3.93987e-09
-2.05834e-08
-1.30787e-08
-4.86117e-10
-5.9455e-09
-1.5285e-08
9.08677e-09
-1.51491e-08
4.29591e-10
3.63348e-10
-1.88513e-09
-1.66153e-08
1.70471e-08
7.30508e-09
-7.76993e-09
-4.72992e-09
1.52843e-08
-1.67896e-09
6.92118e-10
-9.58433e-10
1.43327e-10
1.19521e-08
3.32135e-09
7.09099e-08
-1.8243e-08
7.41913e-10
-1.50027e-08
-2.33805e-10
-2.72782e-10
-9.45961e-11
6.09531e-08
-6.12285e-08
-6.33729e-08
-6.31399e-08
-6.40463e-11
-2.62344e-10
-9.25894e-08
-6.04543e-08
6.24154e-08
6.51e-08
-6.02812e-08
6.45775e-08
-6.04644e-08
6.38091e-08
-6.07319e-08
6.33747e-08
9.23122e-08
2.80145e-10
-6.36435e-09
7.51155e-08
-6.54298e-08
3.92046e-11
-3.92046e-11
3.08798e-10
-3.24612e-10
1.54833e-08
-2.572e-11
2.572e-11
3.34177e-10
1.52908e-09
1.38997e-08
1.33965e-08
-2.72941e-09
3.72391e-09
6.57052e-09
1.83563e-09
3.6903e-10
-2.51627e-10
-2.97809e-09
1.45832e-08
1.48462e-08
-4.28568e-09
1.18188e-08
1.83037e-10
1.4672e-10
2.75192e-09
-8.31005e-10
-1.54375e-09
-5.83898e-09
-2.05848e-10
-3.97094e-10
1.53073e-08
2.54388e-10
6.52507e-11
1.45347e-08
-2.61888e-08
1.77619e-08
2.65082e-09
1.27053e-09
2.49719e-09
-3.72373e-09
1.93051e-08
-1.80786e-08
-7.91807e-11
1.81827e-10
-1.44037e-09
-7.92101e-08
-7.07553e-08
1.31529e-09
-5.17819e-10
6.41972e-10
2.29882e-08
1.86029e-08
-6.35572e-09
7.60762e-11
-4.28761e-09
-2.51557e-09
2.99478e-08
1.54685e-10
1.48184e-08
7.35809e-08
5.02242e-11
5.15715e-10
-1.55728e-10
-2.14812e-10
-3.65049e-09
2.42648e-08
-1.48681e-08
9.79295e-10
-1.41755e-08
-5.18715e-11
2.03857e-08
-2.86922e-08
9.37925e-10
1.96494e-09
-2.91782e-10
)
;

boundaryField
{
    back
    {
        type            empty;
        value           nonuniform 0();
    }
    ingreso
    {
        type            calculated;
        value           nonuniform List<scalar> 
14
(
-1.54286e-08
-1.54288e-08
-1.54288e-08
-1.54288e-08
-1.54286e-08
-1.54283e-08
-1.54288e-08
-1.54288e-08
-1.54286e-08
-1.54286e-08
-1.54288e-08
-1.5428e-08
-1.5428e-08
-1.54286e-08
)
;
    }
    salida
    {
        type            calculated;
        value           nonuniform List<scalar> 2(1.01411e-07 1.14589e-07);
    }
    front
    {
        type            empty;
        value           nonuniform 0();
    }
    defaultFaces
    {
        type            calculated;
        value           uniform 0;
    }
}


// ************************************************************************* //
