# Residuals   
# Time        	p             	Ux            	Uy            
28.9          	N/A	N/A
28.9067       	1.937245e-01	9.755028e-04	1.678375e-03
28.9133       	1.625673e-01	1.697553e-03	5.275905e-03
28.92         	4.306290e-02	8.993925e-04	2.880606e-03
28.9267       	3.383730e-02	8.622984e-04	4.984913e-03
28.9333       	3.577010e-02	9.014277e-04	5.740977e-03
28.94         	4.083230e-02	9.329369e-04	6.254609e-03
28.9467       	4.439364e-02	9.786114e-04	7.502304e-03
28.9533       	4.221155e-02	1.039419e-03	6.241554e-03
28.96         	4.157383e-02	1.084128e-03	6.785844e-03
28.9667       	3.917325e-02	1.105065e-03	5.885764e-03
28.9733       	3.946631e-02	1.148784e-03	6.340060e-03
28.98         	4.002443e-02	1.157744e-03	6.066517e-03
28.9867       	4.238022e-02	1.228456e-03	7.132081e-03
28.9933       	4.306209e-02	1.232036e-03	6.543153e-03
29            	4.453560e-02	1.287608e-03	7.412626e-03
29.0063       	5.128093e-02	1.263392e-03	5.687086e-03
29.0125       	4.562188e-02	1.303163e-03	5.382285e-03
29.0188       	4.018435e-02	1.301849e-03	4.422642e-03
29.025        	3.556088e-02	1.370962e-03	4.218222e-03
29.0313       	3.249010e-02	1.367530e-03	3.488084e-03
29.0375       	3.165678e-02	1.420986e-03	3.512403e-03
29.0438       	3.250227e-02	1.396698e-03	3.932631e-03
29.05         	3.636771e-02	1.518592e-03	4.778733e-03
29.0563       	3.552975e-02	1.531860e-03	4.237883e-03
29.0625       	3.578544e-02	1.604450e-03	4.572287e-03
29.0688       	3.690072e-02	1.590868e-03	4.590317e-03
29.075        	3.917554e-02	1.748676e-03	5.343254e-03
29.0813       	4.102317e-02	1.744801e-03	5.272608e-03
29.0875       	4.285710e-02	1.874895e-03	5.800338e-03
29.0938       	4.131494e-02	1.845918e-03	4.572883e-03
29.1          	3.630952e-02	1.971999e-03	4.209424e-03
29.1062       	3.636249e-02	1.923368e-03	3.904618e-03
29.1125       	3.436185e-02	2.072229e-03	3.601400e-03
29.1188       	2.917437e-02	2.051815e-03	2.262249e-03
29.125        	2.610508e-02	2.126727e-03	1.906442e-03
29.1313       	2.793525e-02	2.062539e-03	2.849669e-03
29.1375       	3.148389e-02	2.249562e-03	3.486188e-03
29.1438       	3.030368e-02	2.245287e-03	2.462876e-03
29.15         	2.834336e-02	2.301634e-03	2.454146e-03
29.1562       	3.301727e-02	2.240886e-03	3.969122e-03
29.1625       	3.955276e-02	2.425359e-03	5.373561e-03
29.1687       	4.018240e-02	2.407657e-03	4.013218e-03
29.175        	3.933414e-02	2.593380e-03	4.261171e-03
29.1812       	4.095945e-02	2.547674e-03	4.752874e-03
29.1875       	4.327942e-02	2.689408e-03	5.698858e-03
29.1937       	4.826180e-02	2.588192e-03	6.231865e-03
29.2          	5.207307e-02	2.856979e-03	7.530425e-03
29.2063       	4.933641e-02	2.762372e-03	5.229269e-03
29.2125       	4.281034e-02	2.899174e-03	3.937341e-03
29.2188       	3.531728e-02	2.830013e-03	2.623231e-03
29.225        	2.833553e-02	2.913216e-03	1.119166e-03
29.2313       	2.399175e-02	2.843535e-03	6.801166e-04
29.2375       	2.249152e-02	2.930828e-03	6.504668e-04
29.2438       	2.209616e-02	2.857174e-03	7.905305e-04
29.25         	2.296087e-02	2.959786e-03	9.546172e-04
29.2563       	2.217042e-02	2.954081e-03	6.490585e-04
29.2625       	2.221168e-02	3.033092e-03	8.450331e-04
29.2688       	2.283868e-02	2.999814e-03	9.483163e-04
29.275        	2.299743e-02	3.068572e-03	7.870480e-04
29.2812       	2.437233e-02	3.052026e-03	1.058779e-03
29.2875       	2.607188e-02	3.182710e-03	1.084657e-03
29.2937       	2.785657e-02	3.237648e-03	7.245619e-04
29.3          	3.164078e-02	3.402570e-03	1.017535e-03
29.3062       	3.173793e-02	3.349107e-03	9.902684e-04
29.3125       	3.265070e-02	3.441181e-03	8.499862e-04
29.3188       	3.159830e-02	3.353275e-03	1.164257e-03
29.325        	3.160661e-02	3.468010e-03	1.115752e-03
29.3313       	2.948381e-02	3.434499e-03	9.728787e-04
29.3375       	2.929593e-02	3.545854e-03	1.267866e-03
29.3438       	2.824033e-02	3.527278e-03	1.072369e-03
29.35         	2.753631e-02	3.585898e-03	1.028141e-03
29.3563       	2.823025e-02	3.528187e-03	1.453324e-03
29.3625       	2.867910e-02	3.587388e-03	1.354900e-03
29.3687       	2.881624e-02	3.596696e-03	1.570551e-03
29.375        	3.006610e-02	3.736261e-03	1.903073e-03
29.3813       	2.947727e-02	3.735549e-03	1.424858e-03
29.3875       	2.900296e-02	3.832957e-03	1.506308e-03
29.3937       	3.030091e-02	3.762476e-03	2.046304e-03
29.4          	3.162496e-02	3.847128e-03	2.105797e-03
29.4062       	3.366504e-02	3.817741e-03	2.319134e-03
29.4125       	3.510712e-02	4.032015e-03	2.688225e-03
29.4188       	3.512356e-02	4.015211e-03	2.218743e-03
29.425        	3.430996e-02	4.149232e-03	2.320660e-03
29.4313       	3.694643e-02	4.062077e-03	2.916844e-03
29.4375       	3.906814e-02	4.268884e-03	3.551327e-03
29.4438       	4.183355e-02	4.201592e-03	3.435678e-03
29.45         	4.400037e-02	4.506465e-03	4.084723e-03
29.4563       	4.381639e-02	4.378952e-03	3.568041e-03
29.4625       	4.477530e-02	4.625483e-03	3.961933e-03
29.4688       	4.636867e-02	4.411161e-03	3.782568e-03
29.475        	4.844913e-02	4.777123e-03	4.742772e-03
29.4812       	4.841079e-02	4.462902e-03	3.249747e-03
29.4875       	4.805386e-02	4.546477e-03	3.632017e-03
29.4937       	4.992922e-02	4.261836e-03	3.603935e-03
29.5          	5.195236e-02	4.479465e-03	4.083676e-03
29.5063       	5.425120e-02	4.221851e-03	4.153196e-03
29.5125       	5.584114e-02	4.351398e-03	4.575902e-03
29.5188       	5.724266e-02	4.089608e-03	4.388499e-03
29.525        	5.739749e-02	4.338442e-03	4.678413e-03
29.5313       	5.557719e-02	4.099883e-03	3.906620e-03
29.5375       	5.381010e-02	4.287622e-03	3.922348e-03
29.5438       	5.492720e-02	4.022819e-03	4.062589e-03
29.55         	5.624842e-02	4.321724e-03	4.762655e-03
29.5563       	6.048514e-02	4.022705e-03	5.081287e-03
29.5625       	6.380846e-02	4.246536e-03	6.022429e-03
29.5688       	6.621463e-02	3.936564e-03	5.631221e-03
29.575        	6.683612e-02	4.230173e-03	6.175931e-03
29.5813       	6.679651e-02	3.930195e-03	5.168956e-03
29.5875       	6.460382e-02	4.165337e-03	5.177146e-03
29.5938       	6.542325e-02	3.884316e-03	4.788000e-03
29.6          	6.532923e-02	4.218159e-03	4.873067e-03
29.6062       	6.210634e-02	3.926860e-03	4.368700e-03
29.6125       	5.700409e-02	4.187373e-03	4.616390e-03
29.6188       	5.743346e-02	3.877136e-03	4.628529e-03
29.625        	5.934436e-02	4.167128e-03	5.343081e-03
29.6313       	6.133148e-02	3.850079e-03	5.089100e-03
29.6375       	6.170316e-02	4.113907e-03	5.633064e-03
29.6438       	6.367712e-02	3.819062e-03	5.073251e-03
29.65         	6.405308e-02	4.060753e-03	5.182320e-03
29.6562       	6.345929e-02	3.808476e-03	4.172435e-03
29.6625       	5.841507e-02	4.081205e-03	3.933787e-03
29.6687       	5.615635e-02	3.812675e-03	3.909145e-03
29.675        	5.660961e-02	4.088740e-03	4.309291e-03
29.6812       	6.036809e-02	3.801222e-03	4.639284e-03
29.6875       	6.431464e-02	4.016771e-03	5.361687e-03
29.6937       	6.702497e-02	3.719635e-03	5.116443e-03
29.7          	6.558732e-02	4.047040e-03	5.491131e-03
29.7063       	6.169663e-02	3.758459e-03	4.454953e-03
29.7125       	5.656451e-02	3.979035e-03	4.272341e-03
29.7188       	5.791307e-02	3.700183e-03	4.257392e-03
29.725        	6.111295e-02	4.029624e-03	4.746454e-03
29.7313       	6.360970e-02	3.723258e-03	4.983202e-03
29.7375       	6.710414e-02	4.032497e-03	5.793454e-03
29.7438       	6.754905e-02	3.700371e-03	5.540733e-03
29.75         	6.707458e-02	3.998481e-03	6.115296e-03
29.7563       	6.496691e-02	3.672846e-03	4.913353e-03
29.7625       	6.150722e-02	3.947181e-03	4.414992e-03
29.7688       	5.938504e-02	3.686261e-03	3.743864e-03
29.775        	5.607603e-02	3.923175e-03	3.365244e-03
29.7812       	5.458999e-02	3.651949e-03	3.340741e-03
29.7875       	5.552357e-02	3.925131e-03	3.671499e-03
29.7937       	5.690642e-02	3.668031e-03	3.393761e-03
29.8          	5.669096e-02	3.893510e-03	3.620693e-03
29.8062       	5.899189e-02	3.610634e-03	4.185128e-03
29.8125       	6.222170e-02	3.879916e-03	4.822525e-03
29.8188       	6.547454e-02	3.599862e-03	4.630388e-03
29.825        	6.717444e-02	3.881092e-03	5.240574e-03
29.8313       	6.870857e-02	3.593963e-03	5.030292e-03
29.8375       	6.856526e-02	3.899099e-03	5.466053e-03
29.8438       	6.738370e-02	3.618629e-03	5.147253e-03
29.85         	6.750937e-02	3.850146e-03	5.522554e-03
29.8563       	6.857529e-02	3.553741e-03	5.667061e-03
29.8625       	7.158347e-02	3.895079e-03	6.355369e-03
29.8687       	7.081126e-02	3.582025e-03	5.541332e-03
29.875        	7.005553e-02	3.837029e-03	5.624263e-03
29.8813       	6.666408e-02	3.537295e-03	4.610101e-03
29.8875       	6.237366e-02	3.804253e-03	4.493942e-03
29.8937       	6.145886e-02	3.513159e-03	4.570438e-03
29.9          	6.377223e-02	3.813260e-03	5.211818e-03
29.9062       	6.634704e-02	3.500112e-03	5.203179e-03
29.9125       	6.882738e-02	3.798839e-03	5.885092e-03
29.9188       	6.948059e-02	3.500926e-03	5.410835e-03
29.925        	6.766359e-02	3.793177e-03	5.730824e-03
29.9313       	6.814219e-02	3.501036e-03	4.905927e-03
29.9375       	6.618554e-02	3.761254e-03	4.999300e-03
29.9438       	6.692186e-02	3.472295e-03	5.067424e-03
29.95         	6.878772e-02	3.799587e-03	5.647764e-03
29.9563       	7.057017e-02	3.495111e-03	5.372393e-03
29.9625       	7.036153e-02	3.739429e-03	5.912311e-03
29.9688       	7.045978e-02	3.424069e-03	5.601549e-03
29.975        	7.059387e-02	3.745313e-03	6.155729e-03
29.9812       	7.051190e-02	3.436357e-03	5.558450e-03
29.9875       	7.032268e-02	3.715365e-03	5.897252e-03
29.9937       	6.931388e-02	3.408717e-03	5.348947e-03
30            	6.869514e-02	3.716787e-03	5.783082e-03
30.0063       	7.017916e-02	3.403137e-03	5.658093e-03
30.0125       	7.137153e-02	3.754076e-03	6.466533e-03
30.0188       	7.335726e-02	3.446960e-03	6.262119e-03
30.025        	7.549197e-02	3.760197e-03	7.122658e-03
30.0313       	7.576193e-02	3.429945e-03	6.115521e-03
30.0375       	7.307502e-02	3.721240e-03	6.291716e-03
30.0438       	6.971304e-02	3.424836e-03	5.306884e-03
30.05         	6.554985e-02	3.704627e-03	5.018108e-03
30.0563       	6.189505e-02	3.410919e-03	4.382629e-03
30.0625       	6.039199e-02	3.666502e-03	4.320208e-03
30.0688       	6.015511e-02	3.384080e-03	4.096274e-03
30.075        	6.035450e-02	3.633658e-03	4.533530e-03
30.0813       	6.138833e-02	3.365215e-03	4.375869e-03
30.0875       	6.164300e-02	3.636772e-03	4.881734e-03
30.0938       	6.480475e-02	3.376350e-03	4.711705e-03
30.1          	6.619397e-02	3.637426e-03	5.166339e-03
30.1062       	6.792685e-02	3.348026e-03	5.337810e-03
30.1125       	7.118385e-02	3.644285e-03	5.929775e-03
30.1188       	7.097709e-02	3.364364e-03	4.976980e-03
30.125        	6.761393e-02	3.630839e-03	4.963828e-03
30.1313       	6.581213e-02	3.372778e-03	4.707607e-03
30.1375       	6.459514e-02	3.616322e-03	5.095707e-03
30.1438       	6.732812e-02	3.306783e-03	5.524279e-03
30.15         	6.978156e-02	3.629072e-03	6.217766e-03
30.1562       	6.763088e-02	3.319771e-03	5.158970e-03
30.1625       	6.496455e-02	3.580692e-03	4.919229e-03
30.1687       	6.217882e-02	3.314304e-03	3.902204e-03
30.175        	5.627235e-02	3.534265e-03	3.651981e-03
30.1812       	5.495144e-02	3.265836e-03	3.910452e-03
30.1875       	5.681174e-02	3.510605e-03	4.417984e-03
30.1937       	5.686585e-02	3.271401e-03	3.883108e-03
30.2          	5.587005e-02	3.439000e-03	4.161048e-03
30.2063       	5.924033e-02	3.206528e-03	4.694591e-03
30.2125       	6.409286e-02	3.460593e-03	5.578605e-03
30.2188       	6.626595e-02	3.226273e-03	4.904925e-03
30.225        	6.518229e-02	3.481600e-03	5.318337e-03
30.2313       	6.556405e-02	3.256963e-03	5.238768e-03
30.2375       	6.631569e-02	3.473142e-03	5.781597e-03
30.2438       	6.948876e-02	3.233322e-03	5.894349e-03
30.25         	7.130861e-02	3.504825e-03	6.614687e-03
30.2563       	7.049100e-02	3.247642e-03	5.609323e-03
30.2625       	6.820998e-02	3.469776e-03	5.757506e-03
30.2688       	6.722100e-02	3.221187e-03	5.201518e-03
30.275        	6.652370e-02	3.486742e-03	5.532106e-03
30.2812       	6.770318e-02	3.238292e-03	5.560864e-03
30.2875       	7.116607e-02	3.514207e-03	6.196162e-03
30.2937       	7.164303e-02	3.257532e-03	5.196880e-03
30.3          	6.763310e-02	3.478874e-03	5.230850e-03
30.3062       	6.526544e-02	3.218954e-03	4.666896e-03
30.3125       	6.410730e-02	3.448934e-03	4.928650e-03
30.3188       	6.605441e-02	3.179464e-03	5.096086e-03
30.325        	6.837994e-02	3.456733e-03	5.828143e-03
30.3313       	6.907243e-02	3.208410e-03	5.342635e-03
30.3375       	6.864930e-02	3.412670e-03	5.785903e-03
30.3438       	7.037317e-02	3.183179e-03	5.392932e-03
30.35         	6.821200e-02	3.432874e-03	5.809244e-03
30.3563       	6.932354e-02	3.220832e-03	5.403158e-03
30.3625       	6.882665e-02	3.440463e-03	5.875507e-03
30.3687       	6.915145e-02	3.201203e-03	5.661834e-03
30.375        	7.004662e-02	3.416132e-03	6.380855e-03
30.3813       	7.218557e-02	3.187518e-03	6.233167e-03
30.3875       	7.348220e-02	3.419140e-03	7.112605e-03
30.3937       	7.559742e-02	3.167971e-03	6.424548e-03
30.4          	7.449968e-02	3.394824e-03	7.010919e-03
30.4062       	7.531803e-02	3.147019e-03	6.240961e-03
30.4125       	7.313968e-02	3.391408e-03	6.514933e-03
30.4188       	7.046680e-02	3.153313e-03	5.735191e-03
30.425        	6.668702e-02	3.359949e-03	5.813515e-03
30.4313       	6.811982e-02	3.125488e-03	5.239234e-03
30.4375       	6.543238e-02	3.343041e-03	5.370807e-03
30.4438       	6.370826e-02	3.119043e-03	4.825484e-03
30.45         	6.277474e-02	3.328152e-03	4.942557e-03
30.4563       	6.211137e-02	3.090708e-03	4.460664e-03
30.4625       	5.983578e-02	3.288942e-03	4.671251e-03
30.4688       	5.917355e-02	3.086357e-03	4.306769e-03
30.475        	5.875163e-02	3.306654e-03	4.602847e-03
30.4812       	5.831199e-02	3.104131e-03	4.275429e-03
30.4875       	5.832556e-02	3.307853e-03	4.685852e-03
30.4937       	6.473100e-02	3.111408e-03	4.739191e-03
30.5          	6.676175e-02	3.319727e-03	5.259709e-03
30.5063       	6.730226e-02	3.092187e-03	5.186272e-03
30.5125       	6.699379e-02	3.322951e-03	5.669319e-03
30.5188       	6.301121e-02	3.112965e-03	4.809125e-03
30.525        	6.172737e-02	3.283503e-03	4.865539e-03
30.5313       	6.261542e-02	3.078865e-03	4.829045e-03
30.5375       	6.226520e-02	3.318026e-03	5.410424e-03
30.5438       	6.561200e-02	3.104050e-03	5.471538e-03
30.55         	6.687659e-02	3.296393e-03	6.183822e-03
30.5563       	6.949293e-02	3.075532e-03	5.915331e-03
30.5625       	7.206189e-02	3.344695e-03	6.393726e-03
30.5688       	6.802928e-02	3.121503e-03	5.290712e-03
30.575        	6.549606e-02	3.289840e-03	5.146498e-03
30.5813       	6.355702e-02	3.082256e-03	4.765623e-03
30.5875       	6.178417e-02	3.315022e-03	5.126060e-03
30.5938       	6.344504e-02	3.087552e-03	5.291948e-03
30.6          	6.437745e-02	3.308725e-03	5.965488e-03
30.6062       	6.630825e-02	3.057780e-03	5.581033e-03
30.6125       	6.973010e-02	3.308370e-03	6.045030e-03
30.6188       	6.646116e-02	3.083940e-03	5.308153e-03
30.625        	6.576729e-02	3.298278e-03	5.505284e-03
30.6313       	6.855156e-02	3.073860e-03	5.455159e-03
30.6375       	7.276932e-02	3.363149e-03	6.150712e-03
30.6438       	7.314743e-02	3.104330e-03	6.060153e-03
30.65         	7.437613e-02	3.319126e-03	6.850038e-03
30.6562       	7.732330e-02	3.058902e-03	6.598216e-03
30.6625       	7.877966e-02	3.320077e-03	7.465407e-03
30.6687       	7.833190e-02	3.077348e-03	6.551869e-03
30.675        	7.613146e-02	3.294792e-03	6.922415e-03
30.6812       	7.416745e-02	3.078190e-03	6.103394e-03
30.6875       	7.110621e-02	3.308694e-03	6.136889e-03
30.6937       	6.707455e-02	3.103373e-03	5.305481e-03
30.7          	6.460979e-02	3.294739e-03	5.201111e-03
30.7063       	6.655790e-02	3.100747e-03	4.806082e-03
30.7125       	6.484531e-02	3.288761e-03	5.101269e-03
30.7188       	6.258960e-02	3.076555e-03	4.886574e-03
30.725        	6.227612e-02	3.271881e-03	5.384185e-03
30.7313       	6.270371e-02	3.071556e-03	4.985600e-03
30.7375       	6.222360e-02	3.287920e-03	5.388518e-03
30.7438       	6.386528e-02	3.089756e-03	5.128869e-03
30.75         	6.490686e-02	3.296684e-03	5.617939e-03
30.7563       	6.842459e-02	3.087409e-03	5.567920e-03
30.7625       	6.832943e-02	3.339762e-03	6.201199e-03
30.7688       	7.004850e-02	3.121666e-03	5.646741e-03
30.775        	6.749659e-02	3.304621e-03	6.074060e-03
30.7812       	6.876437e-02	3.099213e-03	5.726802e-03
30.7875       	6.903892e-02	3.350311e-03	6.301534e-03
30.7937       	7.019936e-02	3.114696e-03	5.971929e-03
30.8          	7.144907e-02	3.362561e-03	6.663583e-03
30.8062       	7.431423e-02	3.125291e-03	6.372164e-03
30.8125       	7.429459e-02	3.397329e-03	7.189458e-03
30.8188       	7.559616e-02	3.161122e-03	6.570876e-03
30.825        	7.470866e-02	3.412766e-03	7.160989e-03
30.8313       	7.360857e-02	3.153181e-03	6.426404e-03
30.8375       	7.230463e-02	3.397852e-03	6.759059e-03
30.8438       	7.052692e-02	3.128316e-03	5.943728e-03
30.85         	6.962818e-02	3.361221e-03	6.043414e-03
30.8563       	6.952477e-02	3.099041e-03	5.455424e-03
30.8625       	6.738250e-02	3.337164e-03	5.521474e-03
30.8687       	6.292169e-02	3.103973e-03	4.963322e-03
30.875        	6.160508e-02	3.308010e-03	5.043543e-03
30.8813       	6.144619e-02	3.079805e-03	4.592984e-03
30.8875       	5.921163e-02	3.285203e-03	4.834834e-03
30.8937       	6.045203e-02	3.070093e-03	4.507942e-03
30.9          	5.903521e-02	3.282426e-03	4.828710e-03
30.9067       	6.770890e-02	3.097104e-03	4.631964e-03
30.9133       	6.294109e-02	3.362419e-03	5.068796e-03
30.92         	5.758485e-02	3.040926e-03	4.614196e-03
30.9267       	5.443240e-02	3.098871e-03	4.788048e-03
30.9333       	5.613811e-02	2.795610e-03	5.236158e-03
30.94         	5.896584e-02	2.943618e-03	6.111438e-03
30.9467       	5.935567e-02	2.625661e-03	5.500119e-03
30.9533       	5.964949e-02	2.788275e-03	6.245182e-03
30.96         	6.211213e-02	2.507702e-03	5.832089e-03
30.9667       	6.437527e-02	2.670277e-03	6.688409e-03
30.9733       	6.568137e-02	2.386459e-03	6.348405e-03
30.98         	6.823690e-02	2.535430e-03	7.392714e-03
30.9867       	7.260344e-02	2.276276e-03	7.447901e-03
30.9933       	7.597238e-02	2.426967e-03	8.803164e-03
31            	7.903397e-02	2.179683e-03	8.066201e-03
31.0067       	7.903518e-02	2.353411e-03	9.301081e-03
31.0133       	7.939923e-02	2.114423e-03	8.081441e-03
31.02         	7.747745e-02	2.251091e-03	8.718394e-03
31.0267       	7.576381e-02	2.035575e-03	7.295885e-03
31.0333       	7.250958e-02	2.163090e-03	7.657716e-03
31.04         	6.996698e-02	1.951825e-03	6.687863e-03
31.0467       	6.697493e-02	2.095368e-03	7.289023e-03
31.0533       	6.685644e-02	1.877537e-03	6.757321e-03
31.06         	6.701934e-02	2.048488e-03	7.838700e-03
31.0667       	6.869605e-02	1.856854e-03	7.435880e-03
31.0733       	7.174429e-02	2.001845e-03	8.717753e-03
31.08         	7.471820e-02	1.827118e-03	7.687054e-03
31.0867       	7.436836e-02	1.952422e-03	8.708185e-03
31.0933       	7.550958e-02	1.777577e-03	8.189085e-03
31.1          	7.628339e-02	1.915538e-03	9.270475e-03
31.1067       	7.514358e-02	1.757728e-03	8.046883e-03
31.1133       	7.368970e-02	1.869637e-03	8.789773e-03
31.12         	7.442087e-02	1.691187e-03	7.886642e-03
31.1267       	7.382048e-02	1.857874e-03	8.449774e-03
31.1333       	6.998822e-02	1.685493e-03	7.332023e-03
31.14         	6.621982e-02	1.810577e-03	7.753362e-03
31.1467       	6.542982e-02	1.635650e-03	6.794185e-03
31.1533       	6.377754e-02	1.786211e-03	7.312247e-03
31.16         	6.247898e-02	1.618371e-03	6.414679e-03
31.1667       	6.166893e-02	1.735979e-03	6.731986e-03
31.1733       	6.547543e-02	1.589561e-03	6.292138e-03
31.18         	6.653662e-02	1.731825e-03	7.125253e-03
31.1867       	6.575859e-02	1.554695e-03	6.297009e-03
31.1933       	6.383470e-02	1.704820e-03	6.952324e-03
31.2          	6.075566e-02	1.540476e-03	6.019068e-03
31.2063       	6.586723e-02	1.618432e-03	6.436811e-03
31.2125       	6.481370e-02	1.487620e-03	5.673401e-03
31.2188       	6.380942e-02	1.637868e-03	6.771684e-03
31.225        	6.677674e-02	1.566554e-03	6.440888e-03
31.2313       	6.737709e-02	1.714156e-03	7.485221e-03
31.2375       	7.319301e-02	1.636398e-03	7.080348e-03
31.2438       	7.110378e-02	1.841417e-03	7.757922e-03
31.25         	6.892049e-02	1.738525e-03	6.344206e-03
31.2563       	6.181365e-02	1.855920e-03	5.910807e-03
31.2625       	5.553246e-02	1.775320e-03	4.535011e-03
31.2688       	4.953442e-02	1.908188e-03	3.875316e-03
31.275        	4.728678e-02	1.810155e-03	3.914906e-03
31.2812       	4.874204e-02	1.959493e-03	4.485818e-03
31.2875       	4.970430e-02	1.883651e-03	3.937402e-03
31.2937       	4.963924e-02	2.020626e-03	4.169171e-03
31.3          	5.090893e-02	1.962057e-03	4.408785e-03
31.3062       	5.372944e-02	2.121365e-03	5.038660e-03
31.3125       	5.509909e-02	2.038221e-03	4.713924e-03
31.3188       	5.480716e-02	2.203342e-03	5.220055e-03
31.325        	5.618397e-02	2.132934e-03	5.063212e-03
31.3313       	5.639879e-02	2.290542e-03	5.378720e-03
31.3375       	5.645342e-02	2.199151e-03	5.059352e-03
31.3438       	5.733676e-02	2.363501e-03	5.352530e-03
31.35         	5.551039e-02	2.282894e-03	4.667136e-03
31.3563       	5.614800e-02	2.440078e-03	4.784519e-03
31.3625       	5.472191e-02	2.341237e-03	4.837934e-03
31.3687       	5.709877e-02	2.537033e-03	5.520471e-03
31.375        	5.857993e-02	2.402987e-03	5.369717e-03
31.3813       	5.889788e-02	2.540234e-03	6.041195e-03
31.3875       	6.062660e-02	2.415360e-03	5.652916e-03
31.3937       	6.093279e-02	2.621560e-03	6.185140e-03
31.4          	6.109658e-02	2.501974e-03	5.276328e-03
31.4062       	5.758622e-02	2.671383e-03	5.451882e-03
31.4125       	5.662958e-02	2.545985e-03	5.023676e-03
31.4188       	5.686831e-02	2.761394e-03	5.624507e-03
31.425        	6.058502e-02	2.626939e-03	5.717783e-03
31.4313       	6.074337e-02	2.886412e-03	6.227330e-03
31.4375       	5.319753e-02	2.750344e-03	4.265915e-03
31.4438       	4.734279e-02	2.869542e-03	3.391977e-03
31.45         	4.283711e-02	2.728473e-03	2.980252e-03
31.4563       	3.974913e-02	2.828042e-03	2.920939e-03
31.4625       	3.988311e-02	2.714123e-03	2.770743e-03
31.4688       	4.043067e-02	2.868321e-03	3.303789e-03
31.475        	4.207818e-02	2.757438e-03	3.611978e-03
31.4812       	4.445766e-02	2.876391e-03	4.131638e-03
31.4875       	4.559409e-02	2.757654e-03	4.361951e-03
31.4937       	4.751176e-02	2.933007e-03	4.976130e-03
31.5          	4.811382e-02	2.831642e-03	4.216008e-03
31.5063       	4.949388e-02	2.958106e-03	4.402537e-03
31.5125       	5.031571e-02	2.823999e-03	4.643211e-03
31.5188       	5.256902e-02	3.018953e-03	5.433531e-03
31.525        	5.692736e-02	2.862662e-03	5.558898e-03
31.5313       	6.140239e-02	3.019894e-03	6.555861e-03
31.5375       	6.338712e-02	2.865071e-03	6.255396e-03
31.5438       	6.300041e-02	3.062099e-03	6.973268e-03
31.55         	6.286589e-02	2.919611e-03	6.110205e-03
31.5563       	6.134575e-02	3.059539e-03	6.145361e-03
31.5625       	5.809341e-02	2.912809e-03	4.925665e-03
31.5688       	5.359474e-02	3.061321e-03	4.514682e-03
31.575        	5.073062e-02	2.949471e-03	3.997232e-03
31.5813       	4.965544e-02	3.113400e-03	4.432089e-03
31.5875       	5.435390e-02	2.998493e-03	5.073601e-03
31.5938       	5.939871e-02	3.164294e-03	6.452709e-03
31.6          	6.632571e-02	3.050994e-03	6.356951e-03
31.6062       	7.036761e-02	3.295922e-03	7.449350e-03
31.6125       	6.637075e-02	3.172171e-03	6.045354e-03
31.6188       	6.090034e-02	3.314737e-03	5.858170e-03
31.625        	5.673901e-02	3.139077e-03	5.048876e-03
31.6313       	5.293850e-02	3.370904e-03	4.996225e-03
31.6375       	5.727681e-02	3.239648e-03	5.567791e-03
31.6438       	6.284783e-02	3.373842e-03	6.564631e-03
31.65         	6.550612e-02	3.140126e-03	6.288941e-03
31.6562       	6.755476e-02	3.313966e-03	7.141970e-03
31.6625       	6.589793e-02	3.059501e-03	5.568626e-03
31.6687       	5.581246e-02	3.139731e-03	3.935311e-03
31.675        	4.452995e-02	2.935675e-03	2.128952e-03
31.6812       	4.389775e-02	2.952922e-03	2.275004e-03
31.6875       	4.427148e-02	2.858355e-03	2.952372e-03
31.6937       	4.827180e-02	2.880283e-03	2.623852e-03
31.7          	4.684690e-02	2.830065e-03	2.898115e-03
31.7063       	4.925224e-02	2.850840e-03	3.156073e-03
31.7125       	4.923923e-02	2.896451e-03	3.502069e-03
31.7188       	5.397539e-02	2.890692e-03	3.381974e-03
31.725        	5.390506e-02	2.931263e-03	3.709130e-03
31.7313       	5.449389e-02	2.902771e-03	3.380780e-03
31.7375       	4.319308e-02	2.921019e-03	3.286326e-03
31.7438       	3.835147e-02	2.887133e-03	3.093161e-03
31.75         	3.611703e-02	2.968905e-03	3.501395e-03
31.7563       	3.676636e-02	2.922799e-03	3.534134e-03
31.7625       	3.623377e-02	2.987191e-03	3.900153e-03
31.7688       	3.816625e-02	2.889056e-03	4.151051e-03
31.775        	4.025218e-02	3.034205e-03	4.788781e-03
31.7812       	3.878877e-02	2.946493e-03	3.818647e-03
31.7875       	3.608186e-02	3.008062e-03	3.776565e-03
31.7937       	3.863865e-02	2.877188e-03	4.062700e-03
31.8          	3.872406e-02	3.015378e-03	4.654548e-03
31.8067       	4.791857e-02	2.907726e-03	4.700158e-03
31.8133       	4.385737e-02	2.993206e-03	5.633908e-03
31.82         	4.301692e-02	2.705441e-03	5.040757e-03
31.8267       	4.523581e-02	2.642163e-03	6.041679e-03
31.8333       	4.982572e-02	2.411762e-03	5.417764e-03
31.84         	4.915901e-02	2.373322e-03	6.304104e-03
31.8467       	4.689369e-02	2.152361e-03	5.339968e-03
31.8533       	4.795110e-02	2.083912e-03	6.007163e-03
31.86         	4.876320e-02	1.916273e-03	5.634010e-03
31.8667       	4.965839e-02	1.892779e-03	6.785360e-03
31.8733       	5.094973e-02	1.746766e-03	6.281362e-03
31.88         	5.100329e-02	1.689506e-03	7.167345e-03
31.8867       	5.132855e-02	1.558677e-03	6.244914e-03
31.8933       	5.221139e-02	1.523612e-03	6.693825e-03
31.9          	5.303454e-02	1.437259e-03	6.165337e-03
31.9067       	5.307826e-02	1.379132e-03	6.498034e-03
31.9133       	4.850382e-02	1.291029e-03	5.162743e-03
31.9195       	5.333115e-02	1.194694e-03	5.166516e-03
31.9257       	4.901399e-02	1.143537e-03	4.426665e-03
31.9319       	4.660752e-02	1.111618e-03	4.846214e-03
31.9381       	4.752383e-02	1.078633e-03	4.719865e-03
31.9443       	5.181900e-02	1.084398e-03	5.576438e-03
31.9505       	5.237315e-02	1.060816e-03	5.304900e-03
31.9567       	5.494410e-02	1.023994e-03	6.218952e-03
31.9629       	5.967693e-02	1.068150e-03	6.085459e-03
31.969        	6.499483e-02	1.120369e-03	7.124082e-03
31.9752       	6.990875e-02	1.218139e-03	6.346230e-03
31.9814       	6.707389e-02	1.219124e-03	6.899718e-03
31.9876       	6.917787e-02	1.260987e-03	6.729268e-03
31.9938       	7.195292e-02	1.283362e-03	7.364568e-03
32            	6.886709e-02	1.331669e-03	6.126263e-03
32.0063       	6.286365e-02	1.335764e-03	5.960736e-03
32.0125       	5.712666e-02	1.394318e-03	5.020857e-03
32.0188       	4.948477e-02	1.385711e-03	4.625111e-03
32.025        	4.547382e-02	1.423892e-03	4.195962e-03
32.0313       	4.215444e-02	1.448667e-03	4.230299e-03
32.0375       	4.471956e-02	1.492885e-03	3.891881e-03
32.0438       	4.392291e-02	1.522528e-03	4.152886e-03
32.05         	4.252314e-02	1.540228e-03	3.921480e-03
32.0563       	4.295860e-02	1.577876e-03	4.300542e-03
32.0625       	4.267658e-02	1.594104e-03	4.059713e-03
32.0688       	4.315960e-02	1.627726e-03	4.344942e-03
32.075        	4.328642e-02	1.648227e-03	4.076593e-03
32.0813       	4.521748e-02	1.679039e-03	4.424760e-03
32.0875       	4.811336e-02	1.692887e-03	4.552885e-03
32.0938       	5.007529e-02	1.732828e-03	5.175937e-03
32.1          	5.476667e-02	1.753714e-03	5.085803e-03
32.1063       	5.444093e-02	1.760781e-03	5.865822e-03
32.1125       	5.764359e-02	1.766275e-03	5.692562e-03
32.1188       	6.031753e-02	1.775180e-03	6.610976e-03
32.125        	6.296165e-02	1.736783e-03	6.457426e-03
32.1313       	6.422716e-02	1.769311e-03	7.404205e-03
32.1375       	6.757043e-02	1.717813e-03	6.740324e-03
32.1438       	6.880656e-02	1.812269e-03	7.213175e-03
32.15         	6.636786e-02	1.771942e-03	5.980153e-03
32.1563       	6.022536e-02	1.848000e-03	5.708433e-03
32.1625       	5.457300e-02	1.775873e-03	4.804827e-03
32.1688       	4.927538e-02	1.855119e-03	4.571173e-03
32.175        	4.770871e-02	1.781221e-03	4.471561e-03
32.1813       	4.858863e-02	1.855370e-03	4.978003e-03
32.1875       	4.952132e-02	1.800181e-03	4.622650e-03
32.1938       	5.042352e-02	1.848392e-03	5.014772e-03
32.2          	4.976623e-02	1.824304e-03	4.597199e-03
32.2062       	4.844172e-02	1.908782e-03	4.952931e-03
32.2125       	4.885415e-02	1.872720e-03	4.824917e-03
32.2188       	5.194603e-02	1.966165e-03	5.411672e-03
32.225        	5.274368e-02	1.906413e-03	5.453651e-03
32.2313       	5.530204e-02	1.995459e-03	6.290365e-03
32.2375       	5.823716e-02	1.926544e-03	6.066403e-03
32.2438       	5.981568e-02	2.009186e-03	6.920968e-03
32.25         	6.239565e-02	1.983850e-03	6.502246e-03
32.2563       	6.352817e-02	2.093288e-03	7.365053e-03
32.2625       	6.423474e-02	2.055080e-03	6.659626e-03
32.2688       	6.518672e-02	2.162676e-03	7.269741e-03
32.275        	6.386469e-02	2.101132e-03	6.617789e-03
32.2813       	6.336295e-02	2.232765e-03	7.191478e-03
32.2875       	6.385179e-02	2.156715e-03	6.523903e-03
32.2938       	6.328859e-02	2.277622e-03	6.996895e-03
32.3          	6.225890e-02	2.196826e-03	6.045441e-03
32.3062       	5.798250e-02	2.291215e-03	6.175971e-03
32.3125       	5.646141e-02	2.214046e-03	5.517985e-03
32.3188       	5.478973e-02	2.315400e-03	5.697737e-03
32.325        	5.296344e-02	2.232725e-03	5.069509e-03
32.3313       	5.178701e-02	2.350573e-03	5.251406e-03
32.3375       	5.041648e-02	2.272594e-03	4.693771e-03
32.3438       	4.914756e-02	2.350633e-03	4.911677e-03
32.35         	4.917544e-02	2.294048e-03	4.602971e-03
32.3563       	4.911285e-02	2.391367e-03	5.010648e-03
32.3625       	4.768496e-02	2.328583e-03	4.500459e-03
32.3688       	4.799567e-02	2.427427e-03	4.818197e-03
32.375        	4.723780e-02	2.363249e-03	4.636085e-03
32.3813       	4.886296e-02	2.486007e-03	5.129875e-03
32.3875       	5.148639e-02	2.424409e-03	4.951738e-03