/*--------------------------------*- C++ -*----------------------------------*\
  =========                 |
  \\      /  F ield         | OpenFOAM: The Open Source CFD Toolbox
   \\    /   O peration     | Website:  https://openfoam.org
    \\  /    A nd           | Version:  7
     \\/     M anipulation  |
\*---------------------------------------------------------------------------*/
FoamFile
{
    version     2.0;
    format      ascii;
    class       volVectorField;
    location    "83.5";
    object      U;
}
// * * * * * * * * * * * * * * * * * * * * * * * * * * * * * * * * * * * * * //

dimensions      [0 1 -1 0 0 0 0];

internalField   nonuniform List<vector> 
591
(
(0.000833401 -1.56499e-05 1.21717e-18)
(0.000826264 -1.5058e-05 -6.63079e-19)
(0.000856432 5.49602e-06 5.71033e-20)
(0.000863837 -1.77296e-05 -1.49071e-19)
(0.000849572 -3.69906e-06 2.25522e-19)
(0.00080314 -3.98654e-05 -1.39602e-19)
(0.000565256 -0.000258342 8.06149e-19)
(0.0008039 4.51044e-06 2.09758e-18)
(0.00573044 0.00250708 9.8793e-19)
(0.000806992 -8.33487e-06 2.45035e-18)
(4.74051e-05 0.000165295 1.21813e-18)
(0.000936235 0.00138569 9.40781e-21)
(0.000800488 4.25139e-06 1.32418e-18)
(0.00160011 0.00239984 -7.87462e-19)
(0.000803397 1.79616e-06 -4.45536e-19)
(5.29644e-05 -0.000178485 2.2229e-22)
(0.000138956 0.000674608 7.04887e-19)
(0.000817968 7.42476e-05 -4.97289e-19)
(0.00191104 0.000393334 4.73892e-19)
(0.00135991 0.000253301 -2.47081e-19)
(0.000832784 -7.72285e-06 3.73171e-19)
(0.00340011 0.00655948 -8.15001e-20)
(2.5197e-05 6.7067e-05 2.70914e-19)
(0.000836043 -2.14536e-05 -4.51412e-19)
(8.67559e-06 -1.35726e-05 3.58878e-19)
(0.000782691 3.75707e-05 0)
(9.39293e-05 0.000470789 1.59952e-19)
(0.000558357 4.19581e-06 -1.78816e-19)
(0.000758881 4.67214e-05 1.14935e-18)
(0.000808806 6.2115e-05 5.86283e-19)
(5.33681e-05 -4.6296e-06 -4.80456e-24)
(2.71571e-05 -4.27992e-05 3.5213e-19)
(3.24039e-05 -2.79567e-06 -4.64163e-20)
(4.15392e-05 -1.21344e-05 0)
(5.04848e-05 -1.29771e-05 1.13131e-18)
(0.00117326 0.000135881 1.79897e-19)
(2.74336e-05 -4.7583e-06 4.47086e-20)
(0.000825321 1.59836e-06 3.16421e-23)
(2.50936e-05 4.10206e-05 2.65995e-19)
(2.23719e-06 -8.10278e-05 -8.54248e-19)
(0.000650882 -0.00020048 9.59318e-19)
(2.16497e-05 -5.81093e-06 4.54765e-20)
(0.000807752 9.11064e-06 -1.58069e-18)
(0.00083211 4.70798e-05 -6.91062e-19)
(1.43745e-05 -6.69677e-06 0)
(5.15331e-05 5.37589e-06 8.5176e-20)
(0.00134739 0.00450233 8.92918e-19)
(7.20502e-05 1.32083e-05 8.63513e-20)
(0.000801668 1.62214e-05 0)
(0.000388761 -0.000221308 6.77283e-19)
(0.000385923 0.000269957 5.11857e-21)
(0.000398862 4.08901e-05 -1.00366e-18)
(0.00634778 0.010941 -7.68564e-19)
(0.00622464 0.0107962 1.52877e-20)
(0.00561426 0.0103788 1.45587e-18)
(0.000807304 3.82606e-05 0)
(6.4052e-05 2.81111e-05 0)
(0.000318375 4.15809e-06 1.981e-23)
(5.93729e-05 8.55701e-06 -3.46413e-19)
(0.000813401 -7.6088e-06 0)
(0.000649538 2.88157e-05 3.1752e-19)
(0.000840035 1.84611e-05 2.20735e-18)
(0.000806336 3.50463e-05 -5.38973e-19)
(0.000799983 1.29722e-05 -3.15712e-19)
(0.00171263 0.000489097 5.42735e-19)
(0.000804856 2.38199e-05 -1.15039e-18)
(0.000833573 2.80693e-05 -5.24189e-19)
(7.54499e-05 -4.92483e-06 -1.73389e-19)
(0.000688917 0.00226104 0)
(0.000841867 4.4293e-05 0)
(0.000785398 2.05406e-05 -1.39284e-18)
(3.57708e-05 1.46053e-05 0)
(0.000291017 0.00026696 3.2681e-19)
(3.62355e-05 -1.62899e-05 0)
(3.79332e-05 -5.68822e-06 1.59452e-19)
(1.04467e-05 -3.96263e-05 -3.36624e-20)
(0.000797073 7.81518e-05 2.46887e-19)
(4.15744e-05 9.44118e-06 0)
(0.000806489 5.56214e-05 4.4744e-19)
(0.00077757 0.000293901 2.10701e-19)
(0.000962831 6.52072e-05 -3.97861e-20)
(4.05557e-05 2.11616e-05 -4.51804e-20)
(4.5916e-06 -1.69384e-05 0)
(0.000438338 0.000213631 1.70165e-19)
(2.78996e-06 1.93049e-05 0)
(0.000800467 4.23e-05 -6.06654e-19)
(0.000627766 -0.000118692 0)
(6.06213e-05 -3.27325e-06 -1.74457e-19)
(2.04783e-06 -2.32948e-05 0)
(0.000832568 0.00024078 -3.41216e-19)
(2.86338e-06 -9.84297e-06 0)
(0.000427772 0.000321612 -1.32464e-23)
(0.000537333 0.000109816 0)
(0.00081203 4.34288e-05 -3.00138e-24)
(2.43676e-06 1.18854e-05 -4.21658e-20)
(0.000463459 -2.07143e-05 1.7633e-18)
(0.00102128 7.24578e-05 4.15962e-20)
(0.000806333 4.58933e-05 6.41352e-22)
(0.000743467 0.000658535 2.69469e-19)
(6.87852e-06 4.35086e-05 0)
(-3.33465e-06 -3.13751e-05 -3.12112e-19)
(-3.08315e-05 -4.88859e-05 -1.10152e-18)
(4.64807e-06 7.06954e-05 -5.96291e-19)
(0.000604885 -2.51228e-05 0)
(8.76247e-06 9.46977e-05 0)
(0.000816683 3.02112e-05 2.18246e-18)
(0.000794424 3.01222e-05 1.53409e-18)
(0.000437967 -9.72358e-05 0)
(4.04022e-05 0.000212825 -8.95262e-19)
(4.80832e-07 0.000159219 4.96735e-19)
(5.85191e-05 0.000399506 6.25187e-19)
(0.00030854 7.39955e-05 -9.37044e-19)
(0.000802257 2.01193e-05 1.37401e-19)
(0.000259186 -5.66615e-05 5.31153e-19)
(4.24383e-06 2.8207e-05 0)
(1.97996e-05 0.000277114 -1.09393e-18)
(0.000323318 0.000321154 -1.61686e-19)
(-7.37285e-07 -2.53201e-05 1.46531e-19)
(0.000669981 0.000810668 0)
(0.00037144 0.000384488 5.7435e-20)
(0.0008207 2.29521e-05 1.07053e-18)
(0.000799659 1.68129e-06 -2.72307e-18)
(5.40927e-06 -1.42544e-05 0)
(0.000664438 -3.76021e-05 -1.12298e-19)
(0.000322352 -0.000132593 1.24306e-18)
(0.00263291 0.00081001 -3.3646e-19)
(6.99371e-06 0.000124355 -6.13145e-19)
(7.02063e-06 0.000152638 1.61942e-18)
(0.000681341 2.41332e-05 -3.89816e-20)
(5.862e-05 -1.51339e-05 -7.50065e-19)
(0.000809404 3.42977e-05 -3.87144e-19)
(0.000730863 2.68367e-05 -4.10429e-20)
(3.36316e-05 0.000323386 -5.97029e-19)
(0.000494783 5.878e-05 -4.93871e-19)
(4.47578e-05 -3.88988e-06 1.56132e-19)
(0.000838192 3.53465e-05 -1.09118e-18)
(0.00154213 0.000235423 -1.13692e-18)
(4.80035e-06 5.69029e-05 4.96368e-19)
(0.000811541 3.35358e-05 -4.98628e-19)
(0.000919312 0.000548551 -7.85008e-20)
(0.000148324 0.000783803 0)
(0.000591569 6.36375e-05 0)
(0.000276959 4.69924e-05 -1.60941e-18)
(6.08197e-05 5.50936e-05 -1.37392e-18)
(2.87138e-05 1.88824e-05 0)
(0.00424725 0.00740021 -1.01968e-20)
(0.0042255 0.00737205 3.16546e-20)
(0.00442769 0.00757483 -4.97131e-21)
(0.00420623 0.00773405 0)
(0.00419868 0.00759986 5.77234e-19)
(0.00424432 0.00740149 -9.20137e-20)
(0.00420993 0.00804156 4.84463e-19)
(0.00428983 0.00742242 0)
(0.0042082 0.00853458 6.16774e-19)
(0.00432635 0.00745096 2.23926e-19)
(0.000829772 1.47948e-05 -1.37326e-18)
(0.000776862 5.74076e-05 0)
(0.000211898 4.52187e-05 1.27684e-19)
(4.72373e-05 1.38907e-05 8.71732e-20)
(7.48665e-05 4.10144e-05 6.79933e-19)
(0.000101965 3.64518e-05 -3.41626e-19)
(9.50396e-05 1.22961e-06 0)
(4.46493e-05 3.71151e-06 8.18264e-20)
(0.000207065 0.00012624 0)
(0.000162575 3.45418e-05 -5.24245e-20)
(0.00034589 0.00021824 -5.09199e-21)
(5.32579e-05 3.98685e-05 -4.37598e-19)
(8.6748e-05 2.31144e-05 -8.52363e-20)
(8.75055e-05 5.75004e-05 1.31178e-21)
(0.000258933 0.000362707 -6.66104e-19)
(0.000108833 0.000994832 0)
(4.00252e-05 4.95483e-05 3.43018e-19)
(0.000198567 0.00174624 0)
(0.000208325 0.000249378 7.04584e-19)
(3.39618e-05 -3.30084e-06 1.1148e-19)
(0.000489054 0.000161564 -1.72282e-19)
(0.000768749 2.46303e-05 -1.92389e-18)
(3.92785e-05 -1.55606e-06 4.71109e-24)
(0.000143725 1.82586e-05 2.24563e-19)
(0.000245435 8.54235e-05 -8.99222e-20)
(0.000882013 0.000699107 3.34906e-19)
(0.000727019 0.00163444 -9.23426e-21)
(0.000399696 0.00142075 -9.39028e-21)
(0.00102764 0.00054631 0)
(9.58009e-05 -1.85801e-05 1.11856e-18)
(0.000110771 9.84311e-06 -4.42996e-20)
(0.000465328 -0.00028101 -1.13609e-18)
(0.000820333 4.19065e-05 0)
(0.0001783 -8.16611e-06 3.63262e-19)
(0.000302679 0.00130206 0)
(0.00108625 0.000775144 -7.30119e-20)
(0.000827202 3.07365e-05 -1.86531e-19)
(7.07763e-05 -2.27695e-05 -2.99939e-19)
(0.000836156 0.000316729 -2.08021e-20)
(4.99252e-05 -2.12847e-05 -5.99413e-19)
(0.000227027 0.000170218 8.63784e-20)
(0.000230997 0.000306405 -3.44974e-19)
(0.000892459 0.000250722 0)
(0.000821445 5.48627e-05 0)
(0.000265397 0.000128735 1.76827e-19)
(0.000233127 -8.48607e-06 5.58152e-24)
(0.00018471 0.000201512 0)
(0.000302128 0.000649286 -5.55644e-21)
(0.000355283 -1.85329e-05 0)
(0.000379092 0.00059866 0)
(0.00010602 7.72606e-05 -1.34653e-21)
(0.000810592 3.09378e-05 -9.57229e-19)
(0.000806308 1.89935e-05 7.97843e-19)
(0.00012573 5.16537e-05 -1.49838e-19)
(0.000966212 0.000147192 8.5034e-20)
(0.000839691 4.0648e-05 3.33433e-19)
(0.000820199 3.14297e-05 -2.94074e-19)
(0.00102773 0.000418166 0)
(0.000443724 0.000113834 6.24357e-19)
(0.000906308 0.000322262 2.09112e-20)
(0.000585596 0.000152877 0)
(0.000273181 0.000445938 4.096e-19)
(0.000262405 0.00021235 -8.44085e-20)
(0.00109965 0.000381569 -7.82032e-19)
(0.000632867 0.00010298 -1.79268e-19)
(0.000816576 7.44672e-05 -7.4573e-21)
(0.000843881 2.64854e-05 9.40104e-20)
(6.42026e-05 -8.65307e-05 -1.98113e-18)
(0.000743148 0.00038037 2.1921e-19)
(0.00067781 6.65009e-05 2.3061e-20)
(0.000712317 0.000279315 1.61252e-23)
(0.00073561 0.00046085 -4.09644e-19)
(0.000850063 2.22093e-05 9.06963e-20)
(6.96335e-05 7.53009e-05 0)
(0.000660631 0.000422572 -4.65866e-20)
(0.000182537 8.87276e-05 0)
(0.000374497 0.000501748 -2.64811e-19)
(0.000311029 0.000162201 0)
(0.000680446 0.000205455 3.55181e-19)
(0.000655301 0.000259529 -4.37197e-20)
(8.021e-05 0.000100263 6.19079e-19)
(0.000880734 9.57072e-05 -1.63493e-18)
(5.44604e-05 1.95975e-05 2.57158e-19)
(0.000893089 7.25001e-05 -1.68614e-18)
(0.000845309 9.00795e-05 1.63003e-19)
(0.000812454 3.52168e-05 1.90853e-18)
(0.000820159 3.37763e-05 -1.32831e-19)
(0.000741919 7.12826e-05 0)
(0.000805686 2.18678e-05 8.95498e-19)
(0.000967454 0.000233906 -4.27042e-19)
(0.00078175 9.78123e-05 -4.83672e-19)
(0.000781311 0.00023509 -8.81105e-20)
(0.000203385 -0.000182308 -2.07657e-18)
(0.000755971 8.02537e-05 8.87419e-19)
(0.000642218 0.000593734 0)
(7.27335e-05 -0.000120513 0)
(0.00122678 0.000473613 4.97225e-19)
(0.000584239 -5.93831e-05 -3.27098e-18)
(0.00135084 0.000414874 5.76419e-19)
(0.00124978 0.000718146 -6.38886e-20)
(0.000815126 3.25532e-05 -2.12543e-19)
(0.000840475 6.6907e-05 -1.42683e-18)
(0.000815029 2.74778e-05 1.58751e-18)
(0.000816575 2.38867e-05 9.78085e-20)
(0.000672706 0.000353279 -4.40349e-20)
(0.000100048 0.00011778 7.29683e-24)
(0.000759224 -3.3995e-05 2.65009e-19)
(0.000211865 -0.000263806 -7.31646e-19)
(0.000632125 0.000184249 0)
(0.000718058 4.9277e-05 9.90257e-20)
(0.000708093 9.57578e-06 -3.80758e-19)
(0.000393208 0.000166769 3.93316e-20)
(0.000810299 0.00050887 -1.65456e-19)
(0.000146569 6.95226e-05 3.63315e-25)
(0.000815988 0.0004132 0)
(0.000985063 0.000316475 4.15714e-20)
(0.000764059 -6.84858e-05 -6.1597e-19)
(0.000352015 9.92803e-05 4.97756e-19)
(0.000904563 0.000427372 0)
(4.65799e-05 2.88658e-05 1.33693e-19)
(0.000489653 0.000264411 2.13924e-19)
(0.000529852 -0.000163107 -7.09373e-19)
(0.000110795 -0.000170196 -1.05555e-18)
(0.000826009 3.70204e-05 -4.86691e-19)
(0.000767525 -7.45503e-05 -1.94344e-19)
(0.000547853 0.000729684 -1.17426e-18)
(0.000852142 4.70893e-05 -6.74511e-20)
(0.000594033 -1.61777e-05 1.28112e-18)
(0.000712112 9.9596e-05 2.27748e-20)
(0.000538401 0.00020637 -1.65664e-19)
(2.71945e-05 -2.01344e-05 -8.75723e-20)
(0.000158295 -5.27979e-05 2.40572e-18)
(1.49564e-05 6.2231e-07 -1.94822e-19)
(0.000836269 0.000116971 3.63694e-19)
(0.000673431 0.00013544 0)
(0.000178064 -9.95645e-05 -1.04802e-18)
(0.000115943 -2.33952e-05 3.12802e-19)
(9.98406e-05 -3.88412e-05 1.34103e-23)
(0.000804702 0.000105271 -3.19218e-19)
(0.000148753 -1.83317e-05 0)
(0.000590858 0.000240077 0)
(0.000111334 0.000325812 -3.6281e-19)
(0.000865451 0.000101081 2.10564e-18)
(1.21761e-05 8.87136e-07 0)
(0.000884259 5.31131e-05 0)
(3.90384e-05 -2.53482e-05 0)
(0.000815373 4.7995e-05 -4.46741e-21)
(0.000786477 -3.72802e-05 0)
(0.00426027 0.00740672 8.07059e-20)
(0.00436226 0.00748691 1.43654e-19)
(0.000843526 -1.17001e-05 0)
(0.000793156 -4.12151e-05 8.12049e-19)
(0.000152076 0.000119721 1.4919e-19)
(0.000858092 6.72612e-05 8.07746e-19)
(0.000128103 9.6798e-05 2.34365e-20)
(0.000786117 -2.49938e-05 6.24249e-19)
(3.25293e-05 8.66859e-06 0)
(2.5077e-05 -1.23772e-05 -4.48417e-20)
(0.000902566 4.83988e-05 -4.8648e-19)
(2.86049e-05 -3.00368e-05 -6.69708e-19)
(0.000763119 0.000124153 -4.23178e-20)
(0.000168802 0.000157504 -1.88076e-19)
(0.000814526 3.03461e-05 0)
(0.00468249 0.00815359 9.00715e-22)
(0.000187346 0.000790264 3.33439e-19)
(0.000107185 -6.35113e-05 -9.14399e-19)
(5.50211e-05 -3.49323e-05 -1.16861e-18)
(0.000614856 1.33099e-05 1.89814e-20)
(0.000583244 0.000405956 0)
(0.000422227 0.000444481 -2.56301e-19)
(7.42699e-05 -6.24341e-05 1.18355e-18)
(0.000574098 -4.12314e-07 7.69062e-20)
(3.91981e-05 1.40745e-06 4.07037e-19)
(0.000713287 -4.72035e-05 1.17145e-18)
(0.000812216 3.27516e-05 -6.03911e-19)
(5.64335e-05 -5.46773e-05 1.70913e-18)
(0.00084199 -3.34047e-05 -5.93809e-24)
(0.000591232 6.59059e-06 -3.7593e-20)
(0.000872331 7.11968e-05 0)
(0.000843388 4.51542e-05 0)
(0.00591712 0.00724249 2.59741e-19)
(1.5466e-05 -2.68283e-06 -1.19572e-19)
(0.000109892 -0.000109333 7.72906e-19)
(0.000731262 0.000115947 -6.96335e-19)
(1.82668e-05 1.32795e-07 2.01503e-19)
(0.000637115 -3.62478e-05 -7.23703e-19)
(0.000749288 3.61673e-05 1.55781e-18)
(0.000709705 0.000158814 -3.55388e-19)
(0.000807574 -1.21808e-05 3.60837e-19)
(6.92793e-05 -3.56086e-05 1.11583e-18)
(0.000800864 6.58739e-06 -3.22642e-19)
(0.000870351 3.92167e-05 0)
(0.000545839 0.000302677 4.20962e-20)
(0.000862566 5.07743e-05 -9.47092e-19)
(1.61465e-05 2.70265e-06 9.11273e-19)
(0.000857499 4.43851e-05 9.65665e-19)
(0.000860286 1.71728e-05 -9.64531e-19)
(0.000758376 -1.47509e-06 -5.69087e-19)
(0.000534224 -7.82127e-05 -5.25568e-19)
(0.00432929 0.00745315 2.47589e-19)
(0.0042227 0.00752895 -2.78864e-19)
(0.00422108 0.00758655 2.66779e-19)
(0.004256 0.00741073 1.97981e-19)
(0.000845001 -3.30185e-05 1.44252e-19)
(0.00447641 0.00751353 0)
(0.00440367 0.0075175 -3.86995e-19)
(2.54603e-05 -1.27031e-07 -9.98049e-19)
(0.00417049 0.00746909 -6.337e-20)
(0.00414588 0.00743227 -2.21522e-19)
(0.00602935 0.0106055 0)
(0.0065404 0.0111873 3.71455e-20)
(0.00600928 0.0105752 0)
(0.00655611 0.0112109 1.30888e-19)
(0.00599662 0.0105992 2.6968e-19)
(0.0065928 0.0112277 1.24617e-20)
(0.00593537 0.010612 -7.7676e-19)
(0.00662307 0.0111467 8.15203e-21)
(0.0039036 0.0091984 -1.90825e-19)
(0.00418673 0.00748832 3.87463e-21)
(0.00423769 0.00755184 7.93655e-20)
(0.00415037 0.00743457 4.12055e-20)
(0.00088701 0.000194183 4.46676e-20)
(8.52948e-06 1.20347e-06 0)
(0.00071475 -0.000112407 0)
(0.000659685 5.42778e-05 0)
(0.00244386 0.00111399 4.23071e-21)
(0.000757125 -3.12007e-05 1.72555e-19)
(3.77913e-05 5.00552e-06 4.53995e-20)
(7.84535e-06 -2.45549e-05 1.65282e-18)
(0.000856091 1.01536e-05 0)
(2.60398e-05 1.15772e-05 -1.91702e-19)
(0.000139524 0.000219806 0)
(1.45233e-05 -9.17857e-07 0)
(1.15801e-05 -1.13104e-06 0)
(0.000829804 0.00014417 1.13738e-20)
(0.000811056 -1.81998e-05 1.79492e-19)
(3.75063e-05 0.000265417 -1.31071e-23)
(0.000157004 0.000270155 -1.84172e-18)
(0.000606996 0.00032755 -8.56898e-20)
(0.00089889 0.000110527 6.01478e-19)
(0.000631691 -0.000183983 6.73973e-19)
(0.00036064 0.00111188 0)
(0.000477279 0.000575392 2.715e-18)
(8.92743e-05 0.000142312 -1.80294e-18)
(1.84693e-05 -1.01016e-07 0)
(0.000822173 -6.14316e-05 3.64152e-20)
(1.51354e-05 3.38467e-05 1.64428e-18)
(0.00089721 3.40767e-05 2.71121e-19)
(-2.61435e-05 4.21241e-05 3.81039e-18)
(0.00092849 4.06654e-05 -2.68989e-19)
(0.00134109 0.000151338 7.47135e-19)
(3.21308e-05 -1.01396e-05 8.25601e-20)
(3.37442e-05 3.01325e-06 -8.59007e-19)
(5.07944e-05 0.000138804 0)
(0.00091459 8.44763e-05 5.98448e-19)
(0.000496126 0.000367542 2.37118e-19)
(0.000639027 1.75971e-05 -3.89059e-20)
(0.000782523 -3.12032e-07 2.57367e-19)
(0.000733632 -0.000161613 0)
(0.00632051 0.0108963 -1.68144e-19)
(0.00637889 0.0109736 4.05871e-19)
(0.00616018 0.0107307 -6.18448e-19)
(0.00650143 0.0111326 -8.09896e-20)
(3.30832e-05 0.000115892 8.00442e-19)
(0.000925067 6.0682e-05 1.44988e-22)
(0.0064115 0.0110061 -3.86494e-19)
(0.00628153 0.0108461 5.48341e-19)
(0.00608023 0.0106724 -4.16819e-19)
(0.00652194 0.011165 -6.81487e-20)
(7.95346e-05 0.000498854 -2.01794e-20)
(6.51904e-05 -0.000198805 -7.92631e-19)
(0.000656251 -2.05627e-05 -7.65784e-19)
(0.0007273 0.000219834 0)
(0.000800245 2.35319e-07 0)
(0.000187603 0.000388547 3.36264e-19)
(0.000600351 0.000512142 -5.41812e-19)
(7.70591e-06 -1.33276e-06 1.78374e-19)
(0.000200288 0.000467309 -7.38323e-19)
(0.0010163 0.000976496 -1.12682e-19)
(0.000748068 0.00016592 0)
(0.000791257 0.00018465 1.31006e-19)
(0.0063527 0.00588208 1.13155e-18)
(0.00073823 0.00112973 8.26559e-20)
(3.71882e-05 3.63727e-05 -7.44602e-20)
(0.000808594 1.10073e-05 0)
(0.000873027 2.48649e-05 -3.56867e-20)
(3.21372e-05 2.69602e-06 -1.96698e-19)
(2.78958e-05 4.0731e-06 1.92975e-19)
(0.000834022 1.58393e-05 5.37153e-19)
(0.000977743 0.00011175 6.58338e-19)
(0.000551095 4.18039e-05 0)
(0.000222897 -0.000287814 -3.98097e-19)
(0.000917658 0.000144708 3.89549e-19)
(7.62353e-06 -5.48163e-05 2.03073e-19)
(0.00145272 0.000442272 -2.58151e-18)
(0.000578814 -1.02148e-05 0)
(0.000795359 0.00014306 3.75426e-19)
(9.51533e-05 0.000391583 0)
(0.00118834 0.00816109 4.62113e-19)
(0.000493723 0.000498751 -1.22443e-18)
(0.0005407 0.00101413 -1.83737e-19)
(0.000884376 1.63518e-05 -1.4604e-19)
(1.20433e-05 2.39404e-05 0)
(0.000953857 7.76362e-05 6.11593e-19)
(0.00410635 0.00739544 8.14361e-20)
(0.00417132 0.00747361 4.73161e-20)
(0.00450023 0.00751618 4.54073e-19)
(0.00444527 0.00754208 -3.29125e-19)
(0.00647535 0.0111096 8.1067e-20)
(0.00391485 0.00714611 -9.61015e-22)
(0.00550819 0.00779903 -5.64755e-19)
(0.00409789 0.00737172 5.21912e-21)
(0.00518901 0.00785866 5.11687e-19)
(0.0040797 0.00734016 -4.87264e-20)
(0.00495414 0.00771808 0)
(0.004085 0.00736453 -8.56674e-20)
(0.00474282 0.00758903 4.92527e-19)
(0.00409826 0.00737612 8.75245e-20)
(0.00457543 0.00752867 0)
(0.00428383 0.00742096 1.39761e-19)
(0.00423926 0.00759812 5.80305e-19)
(0.00446778 0.00752754 -5.54353e-19)
(0.0043879 0.00750496 3.71361e-19)
(0.00422781 0.00752491 3.22877e-19)
(0.00643069 0.0110429 -4.97636e-21)
(0.0041178 0.00740154 3.11631e-20)
(0.00645881 0.0110728 0)
(2.25099e-05 5.23177e-06 -1.89839e-19)
(0.00200022 0.00654498 2.28224e-19)
(0.000838324 -5.45628e-05 1.09861e-19)
(0.000854861 5.94042e-06 0)
(1.19566e-06 9.52843e-07 -3.99069e-19)
(-1.95859e-05 -0.000111124 6.91481e-19)
(2.39084e-05 5.48268e-05 2.08878e-18)
(0.000832133 0.000182789 -9.00608e-20)
(0.000801037 8.66139e-06 7.06311e-19)
(8.36274e-07 -6.03866e-07 3.09955e-19)
(1.63622e-05 -3.15934e-05 -1.84544e-18)
(0.000763369 2.70494e-05 1.63134e-19)
(0.000869816 0.000124164 -3.07952e-20)
(0.000800791 -8.01543e-06 1.48118e-19)
(0.000422954 0.000679982 0)
(2.74004e-05 -0.000141729 1.1513e-18)
(0.000868598 4.83396e-06 1.52504e-19)
(1.91199e-05 2.26742e-05 0)
(0.000117427 0.000557383 -6.31197e-19)
(0.000610694 0.000589574 1.31783e-18)
(0.000328092 0.00075498 0)
(0.00080179 -1.57918e-05 0)
(0.000801491 2.95853e-06 1.17585e-18)
(1.64541e-05 4.73254e-05 -3.51459e-18)
(1.55358e-05 6.50602e-06 3.73582e-19)
(0.000116404 0.000141827 0)
(4.06371e-05 -3.9956e-05 0)
(6.05569e-05 0.000109998 2.00978e-19)
(0.000939449 0.000189655 3.50393e-19)
(0.000800312 1.49217e-05 -1.39838e-18)
(2.19385e-05 3.16779e-05 0)
(0.000436985 6.26517e-06 -6.04322e-20)
(0.000800662 3.71165e-05 -1.56331e-19)
(0.000845718 4.08236e-05 1.06439e-18)
(0.00025636 0.000541997 6.32174e-19)
(0.000880121 0.000157011 0)
(1.64061e-05 -2.19338e-05 5.38561e-19)
(2.03158e-06 -4.21276e-06 -3.19931e-19)
(0.000962243 3.29309e-05 0)
(0.00104076 0.00226798 0)
(0.000921896 -1.43323e-06 0)
(0.00100422 0.000207975 4.27129e-19)
(0.000818071 -3.59899e-05 -2.84258e-19)
(0.000936034 0.000109866 -6.84697e-19)
(0.000800973 3.43015e-06 0)
(4.12533e-05 6.65256e-05 -1.71548e-19)
(0.000174571 0.000325363 1.08104e-18)
(0.000800061 1.37412e-05 -2.20969e-23)
(0.0010976 0.000209919 -6.68783e-19)
(0.00108952 0.000127435 0)
(2.23703e-06 5.19002e-06 2.51003e-19)
(1.66362e-05 -1.41124e-05 -1.94293e-19)
(0.000563643 4.30267e-05 6.94939e-21)
(2.27264e-06 -7.17789e-05 0)
(0.00106822 0.000255619 9.49916e-19)
(0.00502867 0.0097484 -2.82999e-19)
(0.00312138 0.00961726 1.27258e-18)
(3.07687e-05 -0.000100381 -1.91315e-19)
(4.75319e-05 -7.34379e-05 1.85927e-18)
(0.00119023 0.000251849 1.67332e-19)
(0.00132905 0.00107781 2.34067e-19)
(0.00081087 1.51339e-06 -7.34252e-19)
(0.000197055 0.000950548 -2.38218e-19)
(0.000817733 0.000942019 -2.18566e-19)
(0.000800204 -2.36056e-06 0)
(8.29516e-05 0.000618011 0)
(9.49798e-05 0.000280243 -3.7934e-23)
(0.000718892 -4.53221e-05 -1.67635e-23)
(0.000824772 6.8254e-05 1.52589e-19)
(0.00263086 0.00206352 -1.23122e-18)
(0.00176004 0.00923764 -1.17215e-19)
(0.000834856 6.20596e-05 4.92223e-19)
(0.00632472 0.00405092 -1.76046e-19)
(0.00672104 0.0115576 -1.36497e-20)
(0.00473412 0.0078439 4.93059e-21)
(0.000803539 1.37363e-05 -2.1807e-18)
(0.000840014 4.485e-06 6.47452e-24)
(7.27474e-06 -6.62366e-06 -3.47981e-19)
(4.59154e-05 8.7169e-05 -3.49244e-19)
(6.43015e-05 0.000266291 8.75157e-19)
(1.00779e-05 1.51186e-05 4.90357e-19)
(8.96582e-05 0.000227362 3.69732e-19)
(0.000821687 1.95076e-05 0)
(0.00534811 0.00949241 1.95025e-20)
(0.00153964 0.000637217 -2.61228e-20)
(0.000819688 3.77854e-05 3.60139e-19)
(2.65605e-05 -7.84123e-05 0)
(0.0018478 0.000747664 5.45953e-19)
(8.52436e-06 6.83074e-06 -2.70128e-19)
(3.2562e-05 2.70572e-05 9.71726e-20)
(0.00133211 0.00139744 6.36588e-19)
(0.000737562 4.92058e-05 1.83084e-19)
(3.57811e-06 -1.25363e-06 -1.70186e-19)
(0.00206204 0.00156153 -1.05578e-18)
(0.00012655 0.000176034 -8.18683e-19)
(0.00392097 0.00848724 -1.0908e-18)
(4.48719e-06 1.31169e-06 8.81341e-20)
(0.000117299 -8.34244e-05 -1.25752e-18)
(4.29967e-05 -5.60815e-05 4.05602e-20)
(0.00152679 0.000986068 0)
(0.00104108 0.00013888 -4.0312e-22)
(0.000453326 0.000848078 -4.02004e-20)
(0.000803056 2.76773e-05 -2.34054e-19)
(8.70378e-05 0.000182252 7.36001e-19)
(2.65795e-05 -5.84053e-05 4.03963e-19)
(1.75111e-05 1.43307e-05 -9.4701e-20)
(3.02823e-05 8.94673e-05 -3.2026e-19)
(0.000211215 -0.000218861 -5.45316e-19)
(0.00324981 0.00346346 2.90568e-21)
)
;

boundaryField
{
    back
    {
        type            empty;
    }
    ingreso
    {
        type            fixedValue;
        value           uniform (0.0008 0 0);
    }
    salida
    {
        type            zeroGradient;
    }
    front
    {
        type            empty;
    }
    defaultFaces
    {
        type            noSlip;
    }
}


// ************************************************************************* //
