/*--------------------------------*- C++ -*----------------------------------*\
  =========                 |
  \\      /  F ield         | OpenFOAM: The Open Source CFD Toolbox
   \\    /   O peration     | Website:  https://openfoam.org
    \\  /    A nd           | Version:  7
     \\/     M anipulation  |
\*---------------------------------------------------------------------------*/
FoamFile
{
    version     2.0;
    format      ascii;
    class       volScalarField;
    location    "50";
    object      p;
}
// * * * * * * * * * * * * * * * * * * * * * * * * * * * * * * * * * * * * * //

dimensions      [0 2 -2 0 0 0 0];

internalField   nonuniform List<scalar> 
591
(
0.000123934
0.000123953
0.00012396
0.000123915
0.000123917
0.000123988
0.000123986
0.000123948
0.00011701
0.000123963
0.000124135
0.00012287
0.000123957
0.000119759
0.000123949
0.000124003
0.000123913
0.00012399
0.000121981
0.000123328
0.000123926
-3.52528e-06
0.000124134
0.00012393
0.000124093
0.00012395
0.000124039
0.000124053
0.000123962
0.000123975
0.000124112
0.000124089
0.000124107
0.000124106
0.000124108
0.000123435
0.000124104
0.000123931
0.000124129
0.000124048
0.000124021
0.0001241
0.000123958
0.000123978
0.000124098
0.000124116
0.000119282
0.00012412
0.000123964
0.00012408
0.000124059
0.000124094
2.39417e-05
3.05892e-05
4.78522e-05
0.000123961
0.000124124
0.000124108
0.000124118
0.000123935
0.000124021
0.000123954
0.000123954
0.000124004
0.000122598
0.000123954
0.000123958
0.000124115
0.000120765
0.000123968
0.000123963
0.000124122
0.000124085
0.000124102
0.000124107
0.000124084
0.00012393
0.000124118
0.000123933
0.000123862
0.000123711
0.000124123
0.000124084
0.000124057
0.00012413
0.000123943
0.000124036
0.000124113
0.000124076
0.000123829
0.000124089
0.000124028
0.000124048
0.000123937
0.000124129
0.000124083
0.00012364
0.000123539
0.000123686
0.000124134
0.000124044
0.000123956
0.000124138
0.000123916
0.000124137
0.000123957
0.000123951
0.000124087
0.000124128
0.000124132
0.000124017
0.000124106
0.00012397
0.000124112
0.000124132
0.000124109
0.00012406
0.000124062
0.000123619
0.000124027
0.000123955
0.000123956
0.00012402
0.000123939
0.000124102
0.000120235
0.000124136
0.000124111
0.00012371
0.000124108
0.000123947
0.000123634
0.00012407
0.000124067
0.000124111
0.000123963
0.000122634
0.000124136
0.00012395
0.000123619
0.000123684
0.000124037
0.000124115
0.000124129
0.000124124
7.61558e-06
3.67766e-06
2.07105e-06
3.81594e-05
3.67009e-05
5.6598e-06
3.83085e-05
1.5742e-05
3.72872e-05
1.78079e-05
0.000123954
0.000123944
0.000124123
0.00012412
0.000124126
0.000124125
0.000124118
0.000124115
0.000124121
0.000124121
0.000124083
0.000124127
0.000124122
0.000124128
0.000124061
0.000123426
0.000124129
0.000122164
0.000124105
0.000124111
0.000124054
0.000123964
0.000124111
0.000124122
0.000124118
0.00012353
0.000122513
0.000123085
0.000123487
0.000124114
0.00012412
0.000124047
0.000123928
0.000124112
0.000122999
0.000123345
0.000123929
0.000124109
0.000123804
0.000124103
0.000124114
0.000124087
0.000123775
0.000123918
0.000124111
0.00012412
0.000124116
0.000123912
0.000124099
0.000123908
0.00012413
0.000123949
0.000123948
0.000124126
0.000123739
0.000123919
0.00012396
0.000123587
0.000124076
0.000123734
0.000124021
0.000124027
0.000124102
0.000123502
0.000124012
0.000123909
0.000123914
0.000124084
0.000123841
0.000124001
0.000123911
0.00012382
0.000123907
0.000124131
0.000123885
0.000124125
0.000123969
0.000124101
0.000123954
0.000123953
0.000124132
0.000123852
0.000124122
0.000123843
0.000123889
0.000123956
0.000123933
0.000123968
0.000123955
0.00012372
0.000123927
0.000123876
0.000124093
0.000123947
0.000123789
0.000124079
0.000123345
0.000123891
0.000123243
0.000123119
0.000123939
0.000123905
0.00012394
0.000123937
0.000123899
0.00012413
0.000123984
0.000124068
0.000123989
0.000123988
0.000124001
0.000124081
0.000123734
0.000124126
0.000123771
0.000123662
0.000123973
0.0001241
0.000123683
0.000124125
0.000124028
0.000124065
0.000124083
0.000123965
0.000123929
0.00012375
0.000123901
0.000123921
0.000123976
0.000124025
0.000124097
0.000124111
0.000124118
0.000123883
0.000123983
0.000124104
0.000124113
0.000124108
0.000123906
0.000124121
0.000123992
0.000124097
0.000123871
0.000124121
0.00012386
0.000124099
0.000123994
0.00012393
1.16417e-05
2.19121e-05
0.000123894
0.000123958
0.000124128
0.00012389
0.000124129
0.000123969
0.00012412
0.000124099
0.000123846
0.000124094
0.000123925
0.000124124
0.000123961
-2.09303e-07
0.00012381
0.000124103
0.000124099
0.000123806
0.00012394
0.000123978
0.000124094
0.000123867
0.000124114
0.000124005
0.000123954
0.000124092
0.000123913
0.00012384
0.000123868
0.000123966
4.74653e-05
0.000124109
0.000124093
0.000123951
0.000124115
0.000124031
0.000123975
0.000123953
0.000123947
0.000124103
0.000123975
0.000123882
0.000123991
0.000123884
0.000124115
0.000123893
0.000123944
0.000123982
0.000124066
1.9872e-05
2.73059e-05
3.42966e-05
9.63787e-06
0.000123932
3.30558e-05
2.60144e-05
0.000124112
1.90732e-05
1.70299e-05
3.81882e-05
7.57108e-06
3.99411e-05
5.59987e-06
4.08359e-05
3.68709e-06
4.28201e-05
1.87603e-06
3.63981e-05
2.31925e-05
2.94416e-05
1.49927e-05
0.000123806
0.000124122
0.000123999
0.000124005
0.000120927
0.000124054
0.000124118
0.000124089
0.000123902
0.000124123
0.000124119
0.000124105
0.000124102
0.000123869
0.000123948
0.000124103
0.000124108
0.000123947
0.000123827
0.000123868
0.000123448
0.000123901
0.000124134
0.000124108
0.00012396
0.00012413
0.000123806
0.000123974
0.000123764
0.000122897
0.000124103
0.000124114
0.000124133
0.000123815
0.000123988
0.000123764
0.000123971
0.000123959
2.60489e-05
2.18745e-05
3.30357e-05
1.16197e-05
0.000124138
0.000123811
1.9818e-05
2.82564e-05
3.56036e-05
9.58593e-06
0.000123949
0.000124057
0.000123907
0.000123917
0.000123953
0.000124067
0.00012386
0.000124099
0.000124032
0.000123141
0.000123922
0.000123889
5.93487e-05
0.000123264
0.000124127
0.000123939
0.000123841
0.000124117
0.000124119
0.000123925
0.000123722
0.000123954
0.000124027
0.000123803
0.000124074
0.000122955
0.000123894
0.000123899
0.000124076
0.000100878
0.000123925
0.000123528
0.000123874
0.000124128
0.000123772
1.08956e-05
2.11121e-05
3.53684e-05
2.82054e-05
1.36653e-05
5.54631e-08
4.20752e-05
2.68955e-06
4.01582e-05
4.75982e-06
3.94186e-05
6.81226e-06
3.86261e-05
8.85563e-06
3.72917e-05
1.36744e-05
3.17266e-05
3.05894e-05
2.39393e-05
2.52597e-05
1.7766e-05
1.29385e-05
1.57106e-05
0.000124122
0.000102454
0.000123932
0.000123869
0.000124125
0.000124018
0.000124131
0.00012385
0.000123987
0.000124095
0.00012409
0.000124104
0.000123855
0.000123958
0.000123841
0.000124058
0.000123898
0.000124126
0.000123987
0.000123819
0.000123823
0.000123969
0.000123962
0.000124133
0.000124124
0.00012413
0.000124094
0.000124134
0.000123767
0.000123954
0.000124128
0.000123898
0.000124028
0.000123956
0.000123983
0.000123834
0.000124093
0.000124092
0.000123405
0.000121412
0.000123134
0.000123679
0.000123954
0.000123782
0.000123968
0.000124131
0.000124091
0.000123959
0.000123568
0.00012355
0.000124127
0.000124096
0.000123976
0.000124063
0.000123605
5.83351e-05
4.01125e-05
0.000124068
0.000124085
0.000123446
0.00012279
0.000123938
0.00012367
0.000123416
0.000123953
0.000123841
0.000124112
0.000123982
0.000124011
0.000119033
5.44722e-05
0.000123979
8.12422e-05
1.86228e-06
-3.80121e-07
0.000123949
0.000123919
0.000124095
0.000124133
0.00012412
0.000124127
0.000124123
0.000123935
-2.30702e-06
0.000122873
0.000123971
0.000124075
0.00012204
0.000124125
0.000124126
0.000122334
0.000124048
0.000124097
0.000121727
0.000124126
7.63753e-05
0.000124124
0.000123696
0.000124089
0.000122417
0.000123657
0.000123706
0.000123982
0.000124129
0.000124082
0.000124125
0.000124136
0.000123961
0.000116215
)
;

boundaryField
{
    back
    {
        type            empty;
    }
    ingreso
    {
        type            zeroGradient;
    }
    salida
    {
        type            fixedValue;
        value           uniform 0;
    }
    front
    {
        type            empty;
    }
    defaultFaces
    {
        type            zeroGradient;
    }
}


// ************************************************************************* //
