/*--------------------------------*- C++ -*----------------------------------*\
  =========                 |
  \\      /  F ield         | OpenFOAM: The Open Source CFD Toolbox
   \\    /   O peration     | Website:  https://openfoam.org
    \\  /    A nd           | Version:  7
     \\/     M anipulation  |
\*---------------------------------------------------------------------------*/
FoamFile
{
    version     2.0;
    format      ascii;
    class       volVectorField;
    location    "50";
    object      U;
}
// * * * * * * * * * * * * * * * * * * * * * * * * * * * * * * * * * * * * * //

dimensions      [0 1 -1 0 0 0 0];

internalField   nonuniform List<vector> 
591
(
(0.000820174 -3.39211e-05 1.21849e-18)
(0.000804905 -2.94745e-05 -6.63318e-19)
(0.000855301 -3.04541e-05 5.69384e-20)
(0.000849318 -1.86423e-06 -1.49208e-19)
(0.000832281 1.1128e-05 2.25242e-19)
(0.000798946 -3.97961e-05 -1.39695e-19)
(0.000548603 -0.000337397 8.06401e-19)
(0.000800664 2.13856e-06 2.06587e-18)
(0.00573848 0.00249258 9.87837e-19)
(0.000791351 -1.58189e-05 2.44524e-18)
(5.26781e-05 0.000174159 1.21861e-18)
(0.000916601 0.00136245 9.41107e-21)
(0.000796386 7.52296e-06 1.31171e-18)
(0.00160133 0.0023775 -7.87986e-19)
(0.000802375 5.75222e-06 -4.38286e-19)
(8.83513e-05 -0.000227946 2.52932e-22)
(0.000133836 0.000675776 7.05294e-19)
(0.000820338 4.71386e-05 -4.90224e-19)
(0.00194301 0.000383145 4.73061e-19)
(0.00135393 0.0002614 -2.47244e-19)
(0.000832932 3.36729e-07 3.7217e-19)
(0.00339992 0.00655883 -8.14992e-20)
(3.07182e-05 7.31599e-05 2.71052e-19)
(0.000832328 -5.4357e-06 -4.50713e-19)
(1.43837e-05 -1.90352e-05 3.59087e-19)
(0.000762745 2.8958e-05 0)
(9.17319e-05 0.000478004 1.60018e-19)
(0.000529136 2.00121e-05 -1.78922e-19)
(0.000749708 5.02443e-05 1.15006e-18)
(0.000816192 3.14724e-05 5.88651e-19)
(6.20975e-05 -2.48181e-06 -3.85572e-24)
(3.8885e-05 -5.00407e-05 3.52333e-19)
(4.11709e-05 -3.52837e-06 -4.64152e-20)
(4.97739e-05 -1.12522e-05 0)
(5.87828e-05 -1.36022e-05 1.13197e-18)
(0.00117155 0.00012855 1.79961e-19)
(3.53584e-05 -6.19214e-06 4.47345e-20)
(0.000826877 1.16434e-05 3.2881e-23)
(3.01942e-05 4.69367e-05 2.66144e-19)
(3.21318e-05 -0.000123421 -8.54979e-19)
(0.000607197 -0.000201474 9.59474e-19)
(2.88655e-05 -7.95156e-06 4.55025e-20)
(0.000794914 -3.64128e-06 -1.57543e-18)
(0.000827096 3.22653e-05 -6.88432e-19)
(2.02095e-05 -9.47763e-06 0)
(5.87752e-05 8.78229e-06 8.52239e-20)
(0.00133768 0.00451074 8.93264e-19)
(8.04778e-05 1.93026e-05 8.63989e-20)
(0.000797217 1.94205e-05 0)
(0.000373949 -0.000181225 6.78084e-19)
(0.000376146 0.000277323 5.12107e-21)
(0.000388965 5.98557e-05 -1.00422e-18)
(0.00634794 0.010942 -7.68522e-19)
(0.00622492 0.0107969 1.52827e-20)
(0.00561407 0.0103806 1.45599e-18)
(0.000811065 1.72108e-05 0)
(7.04654e-05 3.42372e-05 0)
(0.000318851 2.42347e-05 1.09142e-23)
(6.709e-05 1.28069e-05 -3.46606e-19)
(0.000818999 -8.03233e-06 0)
(0.000623143 2.8066e-05 3.17713e-19)
(0.000825303 -3.53333e-07 2.21249e-18)
(0.000788596 1.73248e-05 -5.45001e-19)
(0.000797076 1.79905e-05 -3.15898e-19)
(0.00171856 0.000468206 5.42481e-19)
(0.000791154 5.12947e-06 -1.15486e-18)
(0.000821989 6.88076e-06 -5.24256e-19)
(8.68209e-05 3.9642e-07 -1.73485e-19)
(0.000685386 0.00227324 0)
(0.000826894 2.79556e-05 0)
(0.000768124 1.52776e-05 -1.38887e-18)
(4.07738e-05 1.77578e-05 0)
(0.000285259 0.00027415 3.26966e-19)
(4.51168e-05 -1.8615e-05 0)
(4.58207e-05 -6.31319e-06 1.59541e-19)
(2.29339e-05 -5.01958e-05 -3.36823e-20)
(0.000780209 7.18163e-05 2.47193e-19)
(4.7411e-05 1.22479e-05 0)
(0.000792544 5.70409e-05 4.47454e-19)
(0.000762122 0.000295551 2.10815e-19)
(0.000964991 6.01647e-05 -3.98122e-20)
(4.57871e-05 2.53324e-05 -4.52056e-20)
(6.72028e-06 -3.1189e-05 0)
(0.000427075 0.000220498 1.70252e-19)
(2.75537e-06 2.73579e-05 0)
(0.000775407 3.15253e-05 -6.09045e-19)
(0.000584223 -0.000120038 0)
(6.96109e-05 2.99469e-07 -1.74553e-19)
(4.68163e-06 -4.24072e-05 0)
(0.000819747 0.000245627 -3.41415e-19)
(4.69023e-06 -1.89351e-05 0)
(0.000418305 0.000324514 -1.27878e-23)
(0.00052036 0.000114531 0)
(0.000798645 4.85976e-05 -3.92735e-24)
(2.98752e-06 1.7845e-05 -4.21894e-20)
(0.000444111 -3.58835e-06 1.76433e-18)
(0.00102363 7.27242e-05 4.1622e-20)
(0.000877851 4.27496e-05 6.40969e-22)
(0.000731874 0.00065698 2.69604e-19)
(6.18755e-06 5.56975e-05 0)
(4.5964e-06 -7.10653e-05 -3.12508e-19)
(-5.21723e-06 -0.000133301 -1.09973e-18)
(3.19424e-06 8.75113e-05 -5.96406e-19)
(0.000653469 -1.41868e-05 0)
(7.05654e-06 0.0001133 0)
(0.000799569 1.65484e-05 2.20612e-18)
(0.00077672 2.03314e-05 1.5285e-18)
(0.000412012 -5.90268e-05 0)
(4.63676e-05 0.000224805 -8.95606e-19)
(-1.1051e-06 0.000183472 4.96605e-19)
(6.83807e-05 0.00043077 6.2521e-19)
(0.000300864 9.42944e-05 -9.37452e-19)
(0.000803438 1.79757e-05 1.37413e-19)
(0.000263598 -2.49239e-05 5.31447e-19)
(3.90209e-06 3.82081e-05 0)
(2.67372e-05 0.000299585 -1.09408e-18)
(0.000316549 0.000327001 -1.61762e-19)
(4.65019e-06 -5.6386e-05 1.46639e-19)
(0.000667433 0.000810009 0)
(0.000363862 0.000391068 5.74626e-20)
(0.000809663 6.42552e-06 1.07092e-18)
(0.00079664 -4.30927e-07 -2.68513e-18)
(7.75659e-06 -8.39582e-05 0)
(0.000696565 -2.64379e-05 -1.12372e-19)
(0.00031957 -8.91267e-05 1.24378e-18)
(0.00265516 0.000795387 -3.35975e-19)
(3.21507e-06 0.000144273 -6.13239e-19)
(2.01139e-07 0.000176016 1.61947e-18)
(0.000755639 1.993e-05 -3.89785e-20)
(6.83004e-05 -1.1211e-05 -7.50491e-19)
(0.000799108 2.35023e-05 -3.88786e-19)
(0.000803435 2.62408e-05 -4.10294e-20)
(4.42066e-05 0.000346797 -5.96855e-19)
(0.000476843 7.50393e-05 -4.94133e-19)
(5.28902e-05 -2.69041e-06 1.56221e-19)
(0.000824718 1.77621e-05 -1.08428e-18)
(0.00158638 0.000230758 -1.13648e-18)
(3.17436e-06 6.99003e-05 4.96488e-19)
(0.000805749 1.7148e-05 -4.95373e-19)
(0.000897714 0.000539555 -7.85418e-20)
(0.000137401 0.000807561 0)
(0.000569971 6.62219e-05 0)
(0.000273436 5.98988e-05 -1.61033e-18)
(6.57549e-05 6.18444e-05 -1.37467e-18)
(3.29333e-05 2.23018e-05 0)
(0.00424703 0.00740001 -1.01986e-20)
(0.00422539 0.00737136 3.16424e-20)
(0.00442749 0.00757416 -4.9697e-21)
(0.00420671 0.00773599 0)
(0.00419922 0.00760124 5.77245e-19)
(0.00424427 0.00740086 -9.19703e-20)
(0.00421019 0.00804411 4.84422e-19)
(0.0042895 0.0074214 0)
(0.00420817 0.00853804 6.16747e-19)
(0.00432634 0.00744986 2.23928e-19)
(0.000814847 -8.04671e-07 -1.37213e-18)
(0.000759949 5.04198e-05 0)
(0.00021614 6.08587e-05 1.27738e-19)
(5.33729e-05 1.77776e-05 8.72218e-20)
(8.07274e-05 4.82922e-05 6.80304e-19)
(0.000109159 4.54333e-05 -3.41811e-19)
(0.000104381 9.34507e-06 0)
(5.16152e-05 6.11089e-06 8.18705e-20)
(0.000205127 0.00013916 0)
(0.000168181 4.9714e-05 -5.24468e-20)
(0.0003398 0.000226974 -5.09445e-21)
(5.82408e-05 4.58282e-05 -4.37839e-19)
(9.39834e-05 3.1088e-05 -8.52832e-20)
(9.288e-05 6.57032e-05 1.31249e-21)
(0.000251419 0.000369791 -6.66417e-19)
(0.000109132 0.00102042 0)
(4.39816e-05 5.54259e-05 3.43206e-19)
(0.000206913 0.00176217 0)
(0.000206925 0.000257318 7.04925e-19)
(4.1543e-05 -4.51434e-06 1.11463e-19)
(0.000475517 0.000167094 -1.72369e-19)
(0.000752146 2.67792e-05 -1.92497e-18)
(4.60166e-05 -8.05875e-07 4.25255e-24)
(0.00015235 3.04876e-05 2.24681e-19)
(0.000242041 9.96717e-05 -8.99689e-20)
(0.000880007 0.000710053 3.35067e-19)
(0.000720024 0.00162876 -9.2378e-21)
(0.00038311 0.00142939 -9.39172e-21)
(0.00101994 0.000553477 0)
(0.000107938 -1.28389e-05 1.11921e-18)
(0.000120311 2.11014e-05 -4.43343e-20)
(0.000441242 -0.000282182 -1.13611e-18)
(0.000806372 3.27701e-05 0)
(0.000183957 1.2676e-05 3.63439e-19)
(0.000301138 0.00132484 0)
(0.00105912 0.000765519 -7.30483e-20)
(0.000824044 3.68007e-05 -1.86311e-19)
(8.32413e-05 -1.97191e-05 -3.00115e-19)
(0.000817591 0.000319828 -2.08135e-20)
(6.41745e-05 -2.16604e-05 -5.99768e-19)
(0.000226014 0.000180101 8.64205e-20)
(0.000227922 0.000311379 -3.45141e-19)
(0.000877294 0.000243381 0)
(0.000806259 4.78447e-05 0)
(0.000260874 0.000144192 1.76915e-19)
(0.000234581 1.06769e-05 2.6725e-24)
(0.000184442 0.000210075 0)
(0.000286326 0.000654487 -5.55902e-21)
(0.000339363 7.44629e-06 0)
(0.000357506 0.000601505 0)
(0.00011147 8.689e-05 -1.34726e-21)
(0.000810093 1.90285e-05 -9.41122e-19)
(0.000810179 1.56837e-05 7.84336e-19)
(0.000131345 6.28349e-05 -1.49918e-19)
(0.000948676 0.000153021 8.51043e-20)
(0.000830973 4.57527e-05 3.32979e-19)
(0.000809714 2.17794e-05 -2.93589e-19)
(0.00100656 0.000407865 0)
(0.000432594 0.000124514 6.24697e-19)
(0.000890115 0.000317729 2.09227e-20)
(0.000566316 0.000160472 0)
(0.00027167 0.000445862 4.09788e-19)
(0.000260352 0.000221751 -8.44496e-20)
(0.00109314 0.00037551 -7.82327e-19)
(0.000611682 0.000109114 -1.79371e-19)
(0.000799923 7.42824e-05 -7.45708e-21)
(0.00083308 2.93952e-05 9.37946e-20)
(9.09258e-05 -8.88456e-05 -1.98221e-18)
(0.000732301 0.000382377 2.19321e-19)
(0.000656324 6.19009e-05 2.30705e-20)
(0.000698974 0.000278082 1.58801e-23)
(0.000722184 0.000456626 -4.09765e-19)
(0.000839323 3.67616e-05 9.06774e-20)
(7.4112e-05 8.42817e-05 0)
(0.000648846 0.000416825 -4.65947e-20)
(0.00018452 0.000101859 0)
(0.000372543 0.000502674 -2.64929e-19)
(0.000309308 0.000173232 0)
(0.000667487 0.000202815 3.55381e-19)
(0.000641227 0.00026211 -4.37436e-20)
(8.24643e-05 0.000107133 6.19414e-19)
(0.000873901 9.21609e-05 -1.62337e-18)
(6.0867e-05 2.43261e-05 2.57301e-19)
(0.000876604 5.90158e-05 -1.68193e-18)
(0.000831692 8.32753e-05 1.63121e-19)
(0.000804619 2.76242e-05 1.90095e-18)
(0.000804629 2.75191e-05 -1.30066e-19)
(0.000725868 7.3819e-05 0)
(0.000806296 3.01609e-05 8.95447e-19)
(0.000946263 0.000229334 -4.27292e-19)
(0.00076106 8.68892e-05 -4.83865e-19)
(0.00077299 0.00022768 -8.81614e-20)
(0.000225544 -0.000141626 -2.08029e-18)
(0.000733699 8.3833e-05 8.87096e-19)
(0.000637505 0.000597028 0)
(0.000108668 -0.000109588 0)
(0.001205 0.000470076 4.9731e-19)
(0.000686923 -6.93659e-05 -3.23493e-18)
(0.00132802 0.000429125 5.76079e-19)
(0.00123187 0.000719517 -6.38534e-20)
(0.000801815 3.46579e-05 -2.11022e-19)
(0.00082707 6.87583e-05 -1.42454e-18)
(0.000813445 1.96179e-05 1.55583e-18)
(0.000814277 3.00668e-05 9.67616e-20)
(0.000665766 0.000349024 -4.4058e-20)
(0.000103598 0.000129641 5.16053e-24)
(0.000736755 -5.03592e-05 2.65216e-19)
(0.000228803 -0.000237932 -7.33663e-19)
(0.000612858 0.000188824 0)
(0.000695454 3.56674e-05 9.90858e-20)
(0.000674882 1.03523e-05 -3.80985e-19)
(0.000383858 0.00017528 3.93516e-20)
(0.000797393 0.000501023 -1.65538e-19)
(0.000151488 8.14516e-05 2.65852e-25)
(0.000806699 0.000404604 0)
(0.000970455 0.000321189 4.15951e-20)
(0.000742838 -8.46152e-05 -6.16591e-19)
(0.000343295 0.000111361 4.97985e-19)
(0.000900102 0.000421864 0)
(5.20274e-05 3.37209e-05 1.33767e-19)
(0.000475749 0.00027103 2.14033e-19)
(0.000476093 -0.000128187 -7.09663e-19)
(0.000156034 -0.000147625 -1.05949e-18)
(0.000818785 2.47121e-05 -4.77679e-19)
(0.000789052 -0.000104199 -1.94092e-19)
(0.000556734 0.000725786 -1.17481e-18)
(0.000838001 4.5298e-05 -6.72306e-20)
(0.000681601 -2.80509e-05 1.26175e-18)
(0.000686741 9.9172e-05 2.27884e-20)
(0.000521968 0.000213959 -1.65748e-19)
(3.61175e-05 -2.3457e-05 -8.76201e-20)
(0.000179571 -3.44793e-05 2.40711e-18)
(2.31687e-05 8.74746e-07 -1.94907e-19)
(0.000811868 0.000104241 3.63514e-19)
(0.000648654 0.000138021 0)
(0.000194917 -6.99973e-05 -1.04852e-18)
(0.000126505 -1.12121e-05 3.13038e-19)
(0.000119155 -3.33278e-05 5.98328e-24)
(0.000789096 0.000109826 -3.194e-19)
(0.000156933 -7.17278e-06 0)
(0.00057703 0.000243405 0)
(0.000111153 0.00033465 -3.62985e-19)
(0.000850827 9.93023e-05 2.10324e-18)
(1.88922e-05 1.42071e-06 0)
(0.000868156 5.01141e-05 0)
(4.86277e-05 -2.64544e-05 0)
(0.000813576 3.91877e-05 -4.45466e-21)
(0.00079546 -5.5605e-05 0)
(0.00425965 0.00740603 8.07064e-20)
(0.00436206 0.00748584 1.43351e-19)
(0.000843045 8.56031e-07 0)
(0.000773414 -5.43719e-05 8.11708e-19)
(0.000153376 0.000130374 1.49266e-19)
(0.000845461 7.28289e-05 8.08402e-19)
(0.000132076 0.000106967 2.34489e-20)
(0.000769025 -3.43053e-05 6.25501e-19)
(3.75516e-05 1.08909e-05 0)
(3.24002e-05 -1.5193e-05 -4.4867e-20)
(0.000884664 5.05102e-05 -4.86565e-19)
(3.91564e-05 -3.41616e-05 -6.70062e-19)
(0.000746982 0.000119075 -4.23427e-20)
(0.000167971 0.000167996 -1.8817e-19)
(0.000812247 2.14585e-05 0)
(0.00468243 0.00815396 9.02539e-22)
(0.000170771 0.000785333 3.33694e-19)
(0.000127374 -5.25485e-05 -9.14904e-19)
(6.76873e-05 -3.51785e-05 -1.16922e-18)
(0.000692773 1.59267e-05 1.89943e-20)
(0.000576615 0.000411807 0)
(0.000411269 0.000439313 -2.56425e-19)
(9.66177e-05 -5.64192e-05 1.18413e-18)
(0.000650075 1.43975e-06 7.67212e-20)
(4.5272e-05 2.35284e-06 4.07257e-19)
(0.000677353 -5.79423e-05 1.17219e-18)
(0.000808117 3.06777e-05 -5.96305e-19)
(7.63484e-05 -5.54698e-05 1.70986e-18)
(0.000841016 -1.11433e-05 -5.07974e-24)
(0.000669151 7.99474e-06 -3.76683e-20)
(0.000860128 6.44756e-05 0)
(0.0008282 3.31025e-05 0)
(0.00591805 0.00723671 2.59412e-19)
(2.42751e-05 -1.13732e-06 -1.19618e-19)
(0.00014873 -9.01873e-05 7.73235e-19)
(0.000714867 0.000121269 -6.96755e-19)
(2.78317e-05 -3.85617e-07 2.01563e-19)
(0.000596497 -3.05632e-05 -7.24153e-19)
(0.000732678 3.46335e-05 1.55878e-18)
(0.000695553 0.000158014 -3.55587e-19)
(0.000807056 -1.37246e-05 3.58329e-19)
(8.57165e-05 -3.15649e-05 1.11651e-18)
(0.000796318 8.5947e-06 -3.22851e-19)
(0.000859602 4.5137e-05 0)
(0.000533766 0.000303171 4.21182e-20)
(0.000846416 4.83773e-05 -9.35714e-19)
(2.45698e-05 1.46151e-06 9.11446e-19)
(0.000843252 4.60334e-05 9.56463e-19)
(0.000848982 -4.84647e-06 -9.59607e-19)
(0.000730405 8.64496e-07 -5.69457e-19)
(0.000501801 -6.15014e-05 -5.25882e-19)
(0.00432917 0.00745236 2.47039e-19)
(0.0042241 0.00752944 -2.52667e-19)
(0.00422167 0.00758768 2.66827e-19)
(0.00425565 0.00741039 1.97952e-19)
(0.000846041 -1.57159e-05 1.43933e-19)
(0.00447528 0.00751138 0)
(0.00440319 0.0075166 -3.86555e-19)
(3.69492e-05 -1.85129e-07 -9.98391e-19)
(0.00417077 0.00746952 -6.33634e-20)
(0.00414622 0.00743259 -2.21524e-19)
(0.00602955 0.0106069 0)
(0.00654028 0.0111875 3.71204e-20)
(0.00600956 0.0105766 0)
(0.00655598 0.011211 1.30859e-19)
(0.00599685 0.0106009 2.69716e-19)
(0.00659249 0.0112275 1.24631e-20)
(0.00593549 0.0106137 -7.76795e-19)
(0.00662266 0.0111464 8.15804e-21)
(0.00390293 0.0092027 -1.90934e-19)
(0.00418734 0.00748859 3.89309e-21)
(0.00423856 0.00755301 7.93512e-20)
(0.00415059 0.00743479 4.12055e-20)
(0.000862816 0.000186149 4.46943e-20)
(1.35914e-05 1.94655e-06 0)
(0.000679335 -0.000137852 0)
(0.000685881 4.25643e-05 0)
(0.00244092 0.00111387 4.24951e-21)
(0.000747438 -3.04552e-05 1.7267e-19)
(4.37587e-05 6.7986e-06 4.54248e-20)
(1.48174e-05 -3.0845e-05 1.65399e-18)
(0.000842766 1.9242e-05 0)
(3.02155e-05 1.41354e-05 -1.91809e-19)
(0.000142163 0.000227798 0)
(2.41962e-05 -1.19735e-06 0)
(1.99601e-05 -1.70877e-06 0)
(0.000809442 0.000130326 1.13628e-20)
(0.000808516 -1.22314e-05 1.77513e-19)
(3.44407e-05 0.000290699 -1.98379e-23)
(0.000159517 0.000276293 -1.84263e-18)
(0.000596048 0.000333405 -8.57336e-20)
(0.000893919 0.000119303 5.99227e-19)
(0.000692279 -0.000295894 6.7359e-19)
(0.000354695 0.00110953 0)
(0.00046004 0.000571303 2.71619e-18)
(9.29074e-05 0.000150854 -1.80362e-18)
(2.9368e-05 3.07226e-07 0)
(0.000817515 -4.65797e-05 3.6362e-20)
(1.84641e-05 3.98026e-05 1.64519e-18)
(0.000900174 2.83051e-05 2.71376e-19)
(1.31705e-05 -7.28704e-05 3.7924e-18)
(0.000929148 3.9312e-05 -2.69182e-19)
(0.00137917 0.000149277 7.47793e-19)
(4.01565e-05 -1.16501e-05 8.26072e-20)
(4.10795e-05 5.43063e-06 -8.59374e-19)
(4.9914e-05 0.000148957 0)
(0.000899055 7.63725e-05 5.98307e-19)
(0.000489638 0.00036907 2.37234e-19)
(0.00071668 1.78713e-05 -3.89181e-20)
(0.000766815 -9.65144e-06 2.56904e-19)
(0.000731156 -0.000207673 0)
(0.00632128 0.0108966 -1.68055e-19)
(0.00637895 0.0109741 4.05816e-19)
(0.00616015 0.0107319 -6.18442e-19)
(0.00650114 0.0111323 -8.10053e-20)
(3.73674e-05 0.000122819 8.00868e-19)
(0.000906062 5.83989e-05 1.50047e-22)
(0.00641139 0.0110066 -3.86455e-19)
(0.00628203 0.0108468 5.48449e-19)
(0.00608062 0.0106735 -4.16816e-19)
(0.00652167 0.0111649 -6.81492e-20)
(8.3408e-05 0.000526797 -2.01911e-20)
(0.000121372 -0.000201703 -7.93107e-19)
(0.000715199 -1.74967e-05 -7.60181e-19)
(0.00071738 0.000221045 0)
(0.000797616 1.39748e-06 0)
(0.000184265 0.00039312 3.36424e-19)
(0.000595129 0.000529313 -5.41829e-19)
(1.43258e-05 -2.30609e-06 1.78477e-19)
(0.000204985 0.000465491 -7.38669e-19)
(0.00100023 0.000970363 -1.12759e-19)
(0.000734146 0.000167959 0)
(0.000781086 0.000178017 1.31081e-19)
(0.00635705 0.00587359 1.13131e-18)
(0.000737509 0.00113033 8.27009e-20)
(4.16848e-05 4.12399e-05 -7.45021e-20)
(0.00081492 2.71013e-05 0)
(0.000875713 2.5708e-05 -3.57085e-20)
(3.92562e-05 4.53166e-06 -1.96768e-19)
(3.38272e-05 5.98373e-06 1.93065e-19)
(0.000828255 2.32548e-05 5.36874e-19)
(0.00096436 0.000105199 6.58815e-19)
(0.000613761 3.62169e-05 0)
(0.000219892 -0.000313765 -3.96571e-19)
(0.000906315 0.000150657 3.89795e-19)
(2.43826e-05 -7.26202e-05 2.0321e-19)
(0.0014371 0.000416837 -2.58106e-18)
(0.000645116 -3.10773e-06 0)
(0.000783796 0.00014469 3.75649e-19)
(9.25885e-05 0.000402556 0)
(0.00118406 0.00816799 4.62153e-19)
(0.000478514 0.000503293 -1.22491e-18)
(0.000544177 0.000989198 -1.83823e-19)
(0.000872529 2.15316e-05 -1.4595e-19)
(1.57109e-05 2.8117e-05 0)
(0.000928823 7.56988e-05 6.12016e-19)
(0.00410761 0.00739599 8.14312e-20)
(0.00417202 0.00747409 4.7311e-20)
(0.00449866 0.00751385 4.54086e-19)
(0.00444442 0.00754079 -3.28575e-19)
(0.00647488 0.0111091 8.10834e-20)
(0.0039154 0.00714702 -9.54947e-22)
(0.00550705 0.00779428 -5.64776e-19)
(0.00409857 0.00737271 5.21565e-21)
(0.00518709 0.00785459 5.11686e-19)
(0.00408057 0.00734129 -4.86915e-20)
(0.00495214 0.00771406 0)
(0.0040863 0.00736559 -8.56192e-20)
(0.00474083 0.00758572 4.92555e-19)
(0.00409924 0.00737668 8.75092e-20)
(0.0045737 0.0075256 0)
(0.00428348 0.00741992 1.3977e-19)
(0.00423981 0.00759918 5.8038e-19)
(0.00446681 0.00752603 -5.54446e-19)
(0.00438739 0.00750432 3.71387e-19)
(0.00422876 0.00752534 2.86564e-19)
(0.00643037 0.0110428 -4.97404e-21)
(0.00411863 0.00740185 3.11624e-20)
(0.00645846 0.0110725 0)
(2.7375e-05 7.40315e-06 -1.89945e-19)
(0.00199498 0.00654172 2.28463e-19)
(0.00084337 -2.94491e-05 1.09761e-19)
(0.00085796 1.4756e-05 0)
(2.59719e-06 2.44548e-06 -3.99292e-19)
(2.90589e-05 -0.000173406 6.91891e-19)
(2.48273e-05 6.10354e-05 2.08989e-18)
(0.000817538 0.00017955 -9.01198e-20)
(0.000795719 1.1237e-05 7.06768e-19)
(2.79657e-06 -2.63989e-06 3.10133e-19)
(2.34451e-05 -3.91574e-05 -1.84648e-18)
(0.000756909 2.78187e-05 1.63238e-19)
(0.00085934 0.000126838 -3.07815e-20)
(0.000796904 -9.82339e-06 1.46792e-19)
(0.000402203 0.000672875 0)
(8.26269e-05 -0.000152341 1.15134e-18)
(0.000853035 1.39194e-05 1.52434e-19)
(2.18127e-05 2.64132e-05 0)
(0.000109192 0.000565983 -6.31444e-19)
(0.000604349 0.000601292 1.31842e-18)
(0.000331127 0.000738547 0)
(0.000797295 -1.80274e-05 0)
(0.000796105 6.90124e-06 1.17508e-18)
(2.04753e-05 5.24947e-05 -3.51647e-18)
(1.92083e-05 8.94086e-06 3.7379e-19)
(0.000115198 0.00015147 0)
(5.4349e-05 -4.3062e-05 0)
(6.55985e-05 0.000117737 2.01086e-19)
(0.000924002 0.000179682 3.50601e-19)
(0.000799059 1.47242e-05 -1.38901e-18)
(2.482e-05 3.64711e-05 0)
(0.000513188 2.47803e-05 -6.03299e-20)
(0.000800122 4.03291e-05 -1.56422e-19)
(0.000831293 2.69896e-05 1.04518e-18)
(0.000257749 0.000544611 6.32471e-19)
(0.000858222 0.000153577 0)
(2.48401e-05 -2.7751e-05 5.38923e-19)
(3.67178e-06 -9.80024e-06 -3.20114e-19)
(0.0010249 2.638e-05 0)
(0.00103331 0.00224639 0)
(0.000984443 -1.83129e-05 0)
(0.000992604 0.000201724 4.27389e-19)
(0.000813418 -2.66399e-05 -2.83781e-19)
(0.000915553 0.000114119 -6.8511e-19)
(0.00079698 3.60542e-06 0)
(4.3379e-05 7.38496e-05 -1.71641e-19)
(0.000173609 0.000329943 1.08156e-18)
(0.000795551 2.44877e-05 -5.37816e-25)
(0.00107663 0.000203029 -6.69314e-19)
(0.00108909 0.000120734 0)
(3.19041e-06 9.13614e-06 2.51143e-19)
(2.24183e-05 -1.82312e-05 -1.94402e-19)
(0.000613645 3.4149e-05 6.89007e-21)
(2.81948e-05 -9.64305e-05 0)
(0.00104318 0.00024999 9.50321e-19)
(0.00502853 0.00974942 -2.8314e-19)
(0.00311982 0.00962232 1.27234e-18)
(6.43154e-05 -0.000115037 -1.91378e-19)
(7.06827e-05 -7.95415e-05 1.86043e-18)
(0.00119237 0.000233669 1.67185e-19)
(0.0013346 0.00107737 2.3418e-19)
(0.000816897 1.00452e-06 -7.31969e-19)
(0.000209167 0.000951169 -2.38717e-19)
(0.000800526 0.000908706 -2.18668e-19)
(0.000798308 -4.71491e-06 0)
(9.08473e-05 0.000649675 0)
(9.69051e-05 0.000285889 -4.36942e-23)
(0.000727541 -3.34026e-05 -1.68839e-23)
(0.000816001 5.09292e-05 1.50744e-19)
(0.00262571 0.00206609 -1.23197e-18)
(0.00175786 0.0092437 -1.1717e-19)
(0.000830657 3.71119e-05 4.90341e-19)
(0.00633187 0.00403965 -1.75875e-19)
(0.00672069 0.0115575 -1.36574e-20)
(0.00473443 0.00784464 4.93515e-21)
(0.000799858 1.74181e-05 -2.18434e-18)
(0.000829093 2.15168e-05 2.9562e-25)
(1.23169e-05 -9.8469e-06 -3.4818e-19)
(4.75697e-05 9.5347e-05 -3.49434e-19)
(7.29352e-05 0.000278252 8.7581e-19)
(1.33689e-05 1.84983e-05 4.90631e-19)
(8.99725e-05 0.000236708 3.69919e-19)
(0.000821752 3.15219e-05 0)
(0.00534773 0.00949205 1.95025e-20)
(0.00154012 0.000616687 -2.61066e-20)
(0.000820338 2.81046e-05 3.55527e-19)
(5.00604e-05 -8.98504e-05 0)
(0.0018454 0.000742506 5.46283e-19)
(1.16985e-05 9.391e-06 -2.70279e-19)
(3.68331e-05 3.15346e-05 9.72269e-20)
(0.00131495 0.0013835 6.366e-19)
(0.000738461 4.1972e-05 1.83201e-19)
(8.53479e-06 -2.53776e-06 -1.70284e-19)
(0.00206508 0.001548 -1.05653e-18)
(0.000126913 0.000184744 -8.19082e-19)
(0.00392088 0.00848671 -1.09135e-18)
(8.13338e-06 2.26698e-06 8.81831e-20)
(0.000169735 -0.00020385 -1.25205e-18)
(5.90808e-05 -5.98233e-05 4.05842e-20)
(0.00153252 0.000968383 0)
(0.00103096 0.000140672 -4.16472e-22)
(0.000453273 0.000852407 -4.02363e-20)
(0.0008016 2.41899e-05 -2.33876e-19)
(8.71712e-05 0.000191068 7.36373e-19)
(4.28202e-05 -6.77955e-05 4.04216e-19)
(2.04375e-05 1.73311e-05 -9.47539e-20)
(3.50024e-05 9.92172e-05 -3.20431e-19)
(0.000200302 -0.000317889 -5.41224e-19)
(0.00325016 0.00344845 2.77337e-21)
)
;

boundaryField
{
    back
    {
        type            empty;
    }
    ingreso
    {
        type            fixedValue;
        value           uniform (0.0008 0 0);
    }
    salida
    {
        type            zeroGradient;
    }
    front
    {
        type            empty;
    }
    defaultFaces
    {
        type            noSlip;
    }
}


// ************************************************************************* //
