/*--------------------------------*- C++ -*----------------------------------*\
  =========                 |
  \\      /  F ield         | OpenFOAM: The Open Source CFD Toolbox
   \\    /   O peration     | Website:  https://openfoam.org
    \\  /    A nd           | Version:  7
     \\/     M anipulation  |
\*---------------------------------------------------------------------------*/
FoamFile
{
    version     2.0;
    format      ascii;
    class       volScalarField;
    location    "0.5";
    object      p;
}
// * * * * * * * * * * * * * * * * * * * * * * * * * * * * * * * * * * * * * //

dimensions      [0 2 -2 0 0 0 0];

internalField   nonuniform List<scalar> 
591
(
0.00556942
0.00555771
0.00560215
0.0056209
0.00561937
0.00572243
0.00547428
0.00569088
0.00487452
0.00554368
0.00538286
0.0051354
0.00570759
0.00496671
0.00569825
0.00545434
0.00528739
0.00567469
0.00509937
0.0052532
0.00565033
0.000203385
0.00540063
0.00565433
0.00542634
0.00553278
0.00532689
0.00544474
0.00550211
0.00565146
0.00541758
0.00542881
0.00542011
0.00542048
0.0054203
0.00529272
0.00542188
0.0056422
0.00540588
0.00544278
0.00547289
0.00542342
0.00555777
0.00567034
0.00542466
0.00541495
0.00487023
0.00541293
0.00569751
0.00544573
0.00537175
0.00541846
0.00229341
0.00282376
0.00405969
0.00562687
0.00540982
0.00541804
0.00541416
0.00567519
0.00545933
0.00559652
0.00559732
0.00572566
0.00515497
0.00557442
0.00560965
0.00541639
0.00499368
0.00564663
0.0055372
0.00541135
0.00536989
0.00542299
0.00542024
0.00543015
0.00551714
0.00541326
0.00554941
0.00537198
0.00541127
0.00541041
0.0054288
0.00538655
0.00540654
0.00555618
0.0054687
0.00541712
0.00543127
0.0053887
0.00542712
0.00536157
0.00542031
0.0055824
0.00540789
0.00543422
0.00537352
0.00533337
0.00527172
0.00540224
0.00544018
0.00545563
0.00539442
0.00562305
0.00538905
0.00561117
0.00555372
0.0054409
0.00537367
0.00537263
0.0053117
0.00540737
0.0056953
0.00542407
0.00540471
0.00534506
0.00535882
0.00543515
0.00524308
0.00534647
0.00559084
0.00571758
0.00544685
0.0056565
0.00543403
0.00500985
0.00538216
0.00536309
0.00541326
0.00542015
0.00558694
0.00537434
0.00533008
0.00542701
0.00541786
0.00562726
0.00516662
0.00539899
0.00561739
0.00527889
0.00523149
0.00543917
0.00541063
0.00540463
0.00540978
0.00089431
0.000541231
0.000366623
0.00349738
0.00332065
0.000717409
0.00367342
0.00160133
0.00384999
0.00177836
0.00557661
0.00551162
0.00540677
0.00541252
0.00540759
0.00540886
0.00541515
0.00541546
0.00539446
0.00540968
0.00538158
0.00540718
0.00541116
0.00540476
0.00534886
0.00519257
0.00540511
0.00508115
0.00537173
0.00541832
0.00540263
0.00552025
0.00541799
0.00541178
0.00540238
0.00524442
0.00510035
0.00515475
0.00525985
0.00541898
0.00541355
0.00545902
0.00558133
0.00541666
0.00514409
0.00521829
0.00561211
0.00542018
0.00535895
0.00542274
0.00538773
0.00536111
0.00537728
0.00554786
0.00539681
0.0054154
0.0053808
0.00529065
0.00542685
0.00529911
0.00540153
0.00564233
0.00566255
0.00540624
0.00540362
0.00558361
0.00563601
0.00529893
0.00541044
0.00534498
0.0054152
0.00533486
0.00537954
0.00529242
0.00543556
0.00551429
0.00558645
0.00543362
0.00534502
0.00545706
0.0053814
0.0053196
0.0055869
0.00540142
0.00533374
0.00539961
0.00531788
0.00539017
0.00541029
0.00538731
0.00539739
0.00548069
0.00541143
0.00549358
0.00550329
0.00562642
0.00561115
0.00548099
0.00567581
0.0053701
0.00548649
0.00539924
0.00543749
0.00548477
0.00529651
0.00543616
0.00524563
0.00552476
0.00524527
0.00519507
0.00561242
0.00555231
0.00564087
0.00563947
0.00535704
0.00539386
0.00550566
0.00544724
0.00541242
0.00547935
0.0054809
0.00539527
0.00530023
0.00540331
0.00532935
0.00533548
0.00551012
0.00540392
0.00531229
0.00540907
0.00537834
0.00545606
0.00543854
0.0056451
0.00551638
0.00526531
0.0055607
0.00555374
0.00545759
0.00539617
0.00542493
0.00542308
0.00541278
0.00547363
0.0054345
0.00542873
0.0054184
0.0054225
0.00548262
0.00541779
0.00539143
0.00535443
0.00550091
0.00541142
0.00552022
0.00542457
0.00569762
0.00554246
0.00124699
0.00213167
0.00558834
0.0055335
0.00539388
0.00552663
0.00539805
0.00552597
0.00541202
0.00542398
0.00551621
0.00542653
0.00545875
0.00538824
0.00566568
4.17054e-05
0.00526283
0.00542668
0.00542529
0.00548613
0.00534307
0.00533237
0.00542849
0.0055556
0.00541584
0.00548424
0.00565481
0.00542863
0.00562232
0.00552119
0.00551682
0.0056362
0.00425112
0.0054183
0.00543218
0.00545906
0.00541436
0.00546374
0.00550171
0.00543409
0.0056956
0.00542393
0.00572469
0.00555262
0.00537126
0.00553773
0.00541594
0.00555836
0.00559531
0.00550449
0.00545076
0.00195564
0.00261512
0.00314477
0.00107132
0.00565545
0.00301561
0.00248596
0.00541709
0.0019059
0.00172829
0.00335257
0.000877287
0.00352948
0.000701098
0.0037061
0.000526707
0.00388246
0.000358423
0.00402633
0.00226028
0.00279043
0.00155125
0.00540829
0.00541033
0.00548826
0.00567337
0.00501813
0.00572229
0.00541376
0.00542745
0.00558625
0.00541056
0.00537653
0.00542162
0.00542311
0.00544561
0.00569059
0.00535547
0.00536707
0.00536492
0.00545906
0.00549302
0.00519858
0.00530034
0.00538902
0.00541993
0.00568991
0.005406
0.00548377
0.00546421
0.00544788
0.00521154
0.00542227
0.00541577
0.00538934
0.00546962
0.00535179
0.00545042
0.00552608
0.005492
0.00246999
0.00211614
0.00300002
0.00123105
0.00539222
0.00547972
0.00193852
0.00264698
0.00317639
0.00105439
0.00528973
0.00544568
0.00557741
0.0054064
0.00572185
0.00534322
0.00531354
0.0054243
0.00532826
0.00517615
0.00543196
0.00542645
0.00443377
0.00517859
0.0054072
0.00565886
0.00551939
0.00541408
0.00541248
0.0056148
0.00540733
0.00562067
0.00545799
0.00543366
0.00543359
0.00520112
0.00558942
0.00545408
0.00534195
0.00466716
0.00532097
0.00521522
0.00555274
0.00540742
0.0054428
0.00119914
0.00208438
0.00319079
0.00266146
0.00140771
0.000324462
0.00407327
0.000493148
0.0038964
0.000667799
0.00372006
0.000843984
0.00354362
0.00102133
0.00336684
0.00142408
0.00296703
0.00283862
0.0023089
0.0024372
0.00176112
0.00137482
0.001584
0.0054111
0.00465967
0.00565627
0.00555415
0.00540919
0.00544858
0.00540363
0.00541755
0.00572509
0.00542558
0.00542783
0.00572641
0.00546281
0.0057229
0.00528053
0.00544218
0.00558685
0.0054085
0.00530872
0.00529091
0.00526903
0.00572252
0.00571917
0.0054043
0.00541
0.00538999
0.00542711
0.00539477
0.00540306
0.00568167
0.00540731
0.00559641
0.00572609
0.0056165
0.00531076
0.00543721
0.00542619
0.00542609
0.00528945
0.00502991
0.00524521
0.00536889
0.00568979
0.00543676
0.00572328
0.00540232
0.00535609
0.00569478
0.00533276
0.0053341
0.00540876
0.0054253
0.0056472
0.00543775
0.00533219
0.00423911
0.00420563
0.00543836
0.00543197
0.00529188
0.00514306
0.00566694
0.00523369
0.00521026
0.00572312
0.00526344
0.00536516
0.00568973
0.00569849
0.00491628
0.00439495
0.00566115
0.00462759
0.000211326
0.000169503
0.00568009
0.00561757
0.00542555
0.00539882
0.00536507
0.00540851
0.00537454
0.00563666
7.12809e-05
0.00517078
0.0056703
0.00543487
0.00509751
0.00540922
0.00540869
0.00508901
0.00569957
0.00542514
0.00504708
0.00538427
0.00443485
0.00540958
0.00547734
0.00542973
0.00511476
0.00537107
0.0052448
0.00569773
0.00538256
0.00543167
0.0054094
0.00539654
0.00546884
0.00485343
)
;

boundaryField
{
    back
    {
        type            empty;
    }
    ingreso
    {
        type            zeroGradient;
    }
    salida
    {
        type            fixedValue;
        value           uniform 0;
    }
    front
    {
        type            empty;
    }
    defaultFaces
    {
        type            zeroGradient;
    }
}


// ************************************************************************* //
