/*--------------------------------*- C++ -*----------------------------------*\
  =========                 |
  \\      /  F ield         | OpenFOAM: The Open Source CFD Toolbox
   \\    /   O peration     | Website:  https://openfoam.org
    \\  /    A nd           | Version:  7
     \\/     M anipulation  |
\*---------------------------------------------------------------------------*/
FoamFile
{
    version     2.0;
    format      ascii;
    class       surfaceScalarField;
    location    "0.5";
    object      phi;
}
// * * * * * * * * * * * * * * * * * * * * * * * * * * * * * * * * * * * * * //

dimensions      [0 3 -1 0 0 0 0];

internalField   nonuniform List<scalar> 
1111
(
5.77666e-09
1.32131e-08
-1.50942e-08
-3.89556e-09
5.80338e-09
-1.13352e-08
1.13084e-08
-1.42855e-08
4.42879e-09
9.58789e-09
2.68855e-10
2.66986e-10
-2.05829e-10
-1.3908e-08
1.38468e-08
-1.39242e-08
1.35205e-08
6.70715e-10
-3.97483e-10
1.49727e-08
8.53389e-10
-2.7928e-09
7.9338e-09
-1.04255e-08
5.28452e-09
-6.64136e-09
-1.18157e-08
1.20395e-08
6.41757e-09
-4.80964e-08
-2.63159e-08
7.44123e-08
-7.7065e-09
7.14222e-09
6.36772e-09
3.80912e-09
4.2706e-10
-3.95684e-09
-2.79349e-10
1.5017e-08
-1.59874e-08
-2.21441e-08
2.31144e-08
-8.68933e-09
-8.12195e-09
8.48743e-09
8.32385e-09
-3.36269e-08
1.63305e-08
-3.38017e-08
5.10981e-08
9.18846e-09
-2.07766e-09
-1.37522e-08
-4.83081e-09
4.24435e-09
-2.66458e-09
3.25103e-09
-3.68334e-09
1.28977e-08
1.93527e-09
-1.11497e-08
8.69063e-09
-1.69906e-09
-1.49227e-08
7.93112e-09
3.81526e-08
-3.25163e-08
-5.63635e-09
-1.9012e-08
7.67983e-10
1.68828e-08
1.36119e-09
-6.18619e-10
3.94275e-09
-1.75545e-08
1.42304e-08
-7.33796e-08
-4.50889e-09
7.78885e-08
2.82076e-10
-1.55186e-09
-4.63746e-10
1.73353e-09
-9.79312e-10
-1.35635e-08
-3.02144e-10
-4.67895e-10
4.24555e-10
3.45484e-10
-9.76174e-09
-7.79461e-09
1.21067e-08
5.44961e-09
9.82841e-10
-2.33807e-09
-8.31143e-09
9.66665e-09
7.52325e-09
1.31465e-09
-8.21996e-09
-6.17944e-10
-2.73553e-09
-7.32419e-09
1.01977e-08
-1.37942e-10
1.08757e-08
1.75105e-10
-2.36015e-09
-1.20891e-09
1.16845e-09
1.77295e-10
-1.36835e-10
-5.10206e-10
1.05801e-09
7.15685e-10
-1.26348e-09
-7.87512e-10
-4.93154e-11
8.15588e-10
2.12401e-11
1.12395e-10
-1.32202e-09
9.18133e-11
1.11782e-09
2.50159e-11
-1.12149e-09
1.17737e-09
-1.80461e-08
-2.14342e-09
-6.90846e-10
8.71556e-11
-1.83796e-10
1.2921e-08
-1.28267e-08
3.84843e-09
-5.08222e-10
7.23417e-10
4.91146e-10
-7.06341e-10
-1.35261e-09
-2.72195e-09
2.21769e-09
1.85686e-09
-1.29229e-09
8.1674e-09
-9.66789e-09
-5.41469e-10
-2.66111e-10
1.16736e-10
-8.41475e-09
9.39168e-09
-8.6834e-09
1.14588e-08
-1.65488e-08
5.44296e-09
-3.5305e-10
1.46987e-10
-2.81935e-10
-4.06544e-10
3.56147e-10
1.05453e-09
-2.42183e-10
-6.0379e-08
6.34513e-08
-3.07223e-09
1.2812e-09
-4.95569e-10
-1.48152e-09
6.95892e-10
1.02977e-09
1.018e-08
-1.36339e-08
2.4241e-09
1.10953e-10
5.95311e-09
-6.85924e-09
7.95177e-10
-6.28337e-09
5.83614e-09
5.36595e-09
-4.91872e-09
-6.56463e-09
-2.76743e-09
2.34606e-09
6.986e-09
7.11897e-11
-7.18322e-08
7.17381e-08
2.29463e-11
7.65152e-11
-7.1758e-08
7.15535e-08
1.27908e-10
7.12982e-08
5.39104e-10
-4.51026e-10
-7.13863e-08
-3.81634e-09
4.06653e-10
9.54264e-10
1.03631e-09
-7.09335e-10
4.13263e-09
-1.89689e-09
3.06906e-09
-5.3048e-09
-1.30826e-09
1.16888e-09
-1.50592e-08
6.69308e-09
8.68365e-09
1.23128e-09
-9.27073e-09
-6.44206e-10
-6.06731e-09
1.19801e-08
1.56674e-09
-7.47951e-09
1.38445e-08
-3.8786e-09
3.1968e-09
-1.31627e-08
1.53133e-08
9.8969e-10
-8.74189e-10
-1.0017e-09
-1.9164e-08
-7.2135e-09
2.73792e-08
1.3224e-08
-7.79414e-09
-2.21281e-09
7.17894e-09
-1.10334e-08
-2.45129e-10
4.35516e-10
-1.67184e-09
-3.80465e-08
-2.23331e-08
7.52022e-09
-1.74706e-10
4.11331e-09
-6.7595e-09
1.00541e-08
6.09712e-09
-8.15532e-10
4.74667e-10
6.66216e-10
-3.25351e-10
5.95522e-09
-4.52419e-09
3.49948e-09
-4.93051e-09
-8.17284e-10
-8.58372e-10
3.53657e-10
9.70809e-10
-9.28258e-10
-3.45157e-10
-1.43518e-09
1.27013e-09
-1.70059e-08
2.41676e-09
1.40638e-09
1.31827e-08
3.7007e-10
-9.55614e-10
-2.29967e-10
-3.68782e-09
-1.42438e-08
9.25737e-10
5.5746e-09
1.13291e-08
-5.21666e-09
-1.16871e-08
1.61611e-08
5.78875e-10
-1.56672e-08
-1.07283e-09
-9.04067e-10
6.46837e-10
7.31921e-10
-1.37641e-09
7.51131e-10
6.25274e-10
-6.83715e-09
-3.98364e-09
4.53739e-09
-5.89968e-10
8.28896e-10
-2.38928e-10
1.33007e-09
-1.47797e-08
-1.96311e-10
8.10687e-09
-9.20279e-09
-1.37605e-09
-1.7216e-09
1.22974e-08
4.35652e-09
-4.13239e-09
-1.25215e-08
4.48973e-10
6.82044e-09
-7.4741e-09
6.48976e-09
-2.19153e-09
-8.05069e-09
7.47116e-09
2.77106e-09
-1.52408e-09
4.50053e-10
-1.31698e-08
-3.76282e-10
-2.1371e-10
-9.49974e-10
1.58164e-09
-7.19625e-09
8.40898e-10
1.6996e-08
-1.67575e-09
-1.69808e-08
1.80849e-08
-1.10414e-09
1.17785e-08
1.35442e-08
-1.51205e-08
-1.02022e-08
-1.14691e-09
1.8872e-09
-7.40287e-10
2.21463e-09
-2.99105e-09
7.76422e-10
4.34366e-09
-6.7109e-09
2.36724e-09
2.5665e-09
-2.16932e-09
-3.97175e-10
-1.40334e-08
1.11388e-10
1.3922e-08
3.49887e-09
-9.32397e-10
8.65346e-09
-1.47448e-08
6.30518e-09
-7.14424e-09
3.19156e-10
4.09617e-09
-6.06199e-10
-3.92585e-09
4.24496e-09
-9.33916e-09
1.07351e-08
-1.39597e-09
-1.12404e-09
4.08226e-09
1.17441e-09
1.6899e-08
-1.44667e-08
-1.40259e-09
-4.8667e-09
5.07058e-09
-2.10074e-09
-3.18031e-10
8.35638e-09
-8.12532e-09
-2.31061e-10
7.0118e-09
4.30928e-09
4.93094e-10
-1.54349e-08
1.01607e-08
1.70527e-08
5.69913e-09
8.13312e-09
8.0384e-09
-5.07628e-09
3.16649e-10
-1.435e-08
1.76723e-09
-6.80874e-10
-9.94427e-09
4.63621e-09
-3.91232e-10
1.61398e-08
-1.55609e-08
-3.88681e-11
-1.31214e-09
-1.31069e-08
6.91306e-09
1.05987e-09
-7.88335e-11
-8.7805e-09
5.26737e-09
-3.35182e-08
-1.20413e-08
-2.26221e-09
1.19656e-09
1.35603e-08
1.07168e-08
-1.05227e-08
-1.37544e-08
1.81158e-08
-3.08905e-09
-1.50268e-08
1.94754e-09
3.73427e-09
-1.78927e-09
-1.081e-09
-1.14609e-09
1.46518e-09
7.61906e-10
-3.6118e-10
5.19507e-10
5.07895e-10
7.12228e-08
-7.10818e-08
-1.41019e-10
7.19972e-08
-7.16262e-08
-3.71037e-10
-1.38229e-09
7.48817e-08
-7.50775e-08
1.95799e-10
7.48086e-08
7.30361e-11
-4.03604e-10
-7.48751e-08
-2.02235e-10
-7.05534e-08
7.05856e-08
-3.21985e-11
-8.01582e-11
-7.4795e-08
-7.05022e-08
-5.10387e-11
1.17879e-08
-1.42454e-09
2.01521e-09
-3.64327e-09
3.05259e-09
5.20482e-10
-1.4104e-09
1.28363e-09
-9.68056e-10
1.60447e-09
-1.90388e-09
1.26746e-09
1.68254e-09
-1.84845e-09
6.01443e-10
-1.37948e-10
-3.29465e-09
3.19349e-09
-2.501e-09
2.60217e-09
-1.07922e-09
-3.09931e-09
2.75398e-09
-4.01349e-09
-5.42948e-09
7.55037e-10
-8.64844e-10
1.5929e-09
1.29524e-09
-6.56739e-09
7.90449e-09
2.97217e-09
2.24209e-08
-4.30515e-09
-9.27594e-10
4.3165e-10
1.25097e-09
-1.00334e-08
-2.8013e-08
5.46987e-09
-4.53563e-09
-3.02981e-09
2.09556e-09
2.14763e-10
-2.47252e-11
6.25577e-10
-3.00735e-09
3.64125e-09
8.17962e-09
1.10673e-09
-7.91408e-10
2.30775e-09
-2.5956e-09
2.45475e-09
1.41867e-08
1.29178e-08
-2.63447e-08
3.1328e-08
5.59239e-09
-2.16892e-08
-1.02478e-08
1.77953e-08
-1.72609e-08
1.01824e-08
-5.10368e-10
1.88051e-10
-1.52611e-09
-2.09381e-09
-1.31588e-09
2.39056e-09
1.4233e-08
-6.44548e-10
-1.31384e-08
3.61812e-10
-3.1115e-09
-3.49628e-10
1.49001e-08
1.70818e-08
1.30343e-08
7.88774e-10
-1.60257e-09
-1.22205e-08
-2.22103e-09
5.90715e-09
1.19649e-08
-9.91057e-10
-1.44254e-09
-3.54254e-09
2.75555e-09
3.9805e-09
2.40181e-09
1.37204e-08
4.16335e-09
-1.35272e-08
1.70235e-08
-1.86468e-09
2.99435e-09
-3.70284e-09
1.92265e-09
-4.58715e-09
1.24336e-08
-1.15297e-08
-1.35349e-08
2.75839e-10
8.67194e-09
-1.99322e-09
1.69294e-09
1.89317e-09
-8.38265e-09
5.2365e-10
-4.18227e-09
-5.75422e-09
1.16492e-08
-1.42777e-08
1.58204e-09
1.62865e-09
-2.12465e-09
1.58634e-08
-1.53674e-08
-9.91914e-10
1.33818e-08
2.47284e-09
-3.68683e-09
-1.35308e-08
6.90533e-09
-1.63832e-08
-7.78317e-09
6.25184e-09
5.69221e-09
1.39354e-08
-9.11773e-09
3.21757e-09
8.67118e-09
9.60329e-09
4.00027e-09
-3.97995e-09
2.05496e-08
-1.82588e-08
4.61456e-09
-9.52616e-09
2.35592e-09
5.4034e-09
1.30264e-08
-1.61991e-10
1.21434e-08
-1.29734e-08
-1.59621e-09
3.04587e-09
-2.1812e-09
7.31541e-10
1.04363e-08
-6.23603e-09
7.12888e-09
-9.80461e-09
1.50971e-09
-4.75989e-09
1.08138e-08
-1.12705e-08
-7.55099e-09
8.75393e-09
9.23336e-09
1.22361e-08
8.4801e-10
-1.32461e-08
1.79957e-09
9.60835e-10
-1.05496e-08
-6.74076e-09
9.73937e-09
-1.97378e-09
2.52537e-09
-8.36968e-09
4.4381e-09
-4.99907e-09
1.09272e-08
-3.53758e-09
-1.10599e-08
3.67032e-09
-4.55851e-09
1.07258e-08
2.18029e-09
1.31221e-09
-4.61528e-09
-1.64843e-08
9.75219e-09
1.13474e-08
9.80052e-10
-1.03111e-08
-9.44006e-09
1.51359e-08
1.22936e-08
2.40365e-09
-9.29389e-09
-1.29521e-08
-1.05662e-10
-1.22439e-08
1.99487e-10
-6.77438e-10
1.06757e-08
1.22189e-08
-7.79314e-09
1.56868e-08
-1.49518e-08
3.42839e-09
-4.93997e-10
1.65722e-09
1.20195e-08
-3.86581e-09
-1.19536e-08
-5.07561e-09
-7.75979e-11
4.47242e-09
1.14933e-08
-7.13968e-09
7.73121e-10
-9.25423e-10
2.1999e-09
-2.8707e-09
5.01274e-09
2.57191e-08
-1.67471e-09
-1.6151e-08
1.78257e-08
2.67246e-08
-2.09442e-08
2.15426e-08
1.90765e-08
-1.20789e-08
-2.64215e-09
1.41592e-08
9.39284e-11
-1.17876e-08
-3.62378e-10
-5.97181e-09
-2.02297e-09
2.47191e-09
1.73136e-09
3.19248e-10
-1.00053e-08
9.98792e-09
-3.0189e-10
1.41891e-09
-5.69938e-09
-1.02844e-08
9.96435e-09
-7.97133e-10
-9.68494e-09
-1.60972e-10
-9.90692e-09
-3.1613e-09
-1.14916e-08
2.36219e-09
7.60216e-09
4.99589e-09
8.75074e-10
-1.11296e-08
1.05739e-08
7.62027e-10
-8.2271e-09
5.29034e-09
-2.9272e-10
2.82892e-09
-3.83193e-09
-1.26421e-08
-1.31608e-08
1.23612e-08
-9.96182e-09
-1.49703e-08
9.49697e-09
8.72687e-09
7.74357e-10
2.01896e-09
-1.817e-08
1.0513e-08
1.67233e-09
4.08532e-09
4.58408e-10
-7.39269e-10
-5.36403e-10
-3.91574e-09
2.74776e-09
-1.94355e-09
5.78307e-10
-6.72454e-10
9.4147e-11
-2.44129e-09
1.23745e-08
2.36025e-09
2.58449e-09
-1.54403e-09
-2.10317e-09
1.97394e-10
-2.67365e-09
-9.55622e-10
1.22422e-08
9.49123e-09
-3.69163e-10
7.01319e-09
-1.19281e-09
-5.45122e-09
-9.0845e-09
-4.99636e-09
4.59617e-10
1.18638e-10
4.48653e-09
1.33811e-09
-1.61358e-08
-7.86322e-10
-1.06308e-09
-1.73369e-09
4.98149e-10
2.07133e-09
7.08136e-08
-1.72456e-10
-7.06412e-08
7.04301e-08
-2.92654e-11
-7.04008e-08
-1.40282e-08
2.08755e-10
1.43412e-08
-5.21738e-10
2.25015e-09
-2.23235e-09
2.89729e-09
1.86042e-09
-4.21934e-09
-6.12842e-10
-7.42968e-10
6.11821e-10
-1.94182e-10
7.58395e-10
-5.66132e-10
1.8535e-08
9.92846e-10
-1.50413e-08
-4.67579e-10
-1.93301e-09
1.17506e-08
2.20185e-09
1.79657e-09
4.91554e-09
-1.54739e-09
-7.30761e-08
-4.41202e-10
-4.73747e-09
1.52786e-08
2.35658e-09
-1.1324e-09
-3.48478e-09
-1.59026e-09
9.70864e-10
-8.23134e-10
-1.49414e-08
-3.15837e-10
1.52573e-08
-1.03509e-08
-6.68891e-09
1.0299e-08
-8.98557e-09
8.74899e-09
-2.92251e-10
2.20574e-09
1.44075e-08
-1.41309e-08
-2.76627e-10
8.61224e-10
1.07557e-10
9.06074e-09
7.66176e-10
-1.37939e-09
-5.03052e-10
-1.41226e-08
-5.33782e-10
-1.30984e-08
1.1311e-08
-1.1014e-08
-7.25686e-08
7.03503e-08
2.21833e-09
7.35444e-10
-7.60168e-10
1.12327e-08
-7.20741e-10
4.82641e-11
-1.64325e-09
2.75725e-09
-2.96165e-09
-1.41752e-08
-9.71411e-10
1.93344e-09
-4.41956e-09
-1.343e-08
1.71368e-09
5.59683e-09
9.18465e-09
-8.59086e-09
-7.20784e-10
8.53023e-15
-9.09878e-09
-1.18521e-08
-7.20985e-11
-7.41835e-08
1.82768e-10
7.40007e-08
4.0491e-10
7.44042e-08
-2.68203e-10
-5.7257e-10
-1.43147e-08
-1.09817e-10
-7.0017e-08
7.01269e-08
-5.41955e-11
-7.03236e-08
7.03777e-08
6.40245e-10
7.33759e-08
2.69583e-10
-7.36455e-08
7.33566e-08
1.92663e-11
-7.13195e-08
7.12557e-08
1.36767e-10
7.20074e-08
-7.19499e-08
-1.98793e-10
-7.12199e-08
9.59852e-11
7.17983e-08
-1.94619e-10
-7.1373e-08
-4.9282e-11
7.18594e-08
-4.32133e-10
-1.55365e-10
-1.23412e-09
7.17112e-08
-7.4256e-08
7.38527e-08
-7.37813e-08
-7.41076e-08
7.33968e-08
-4.02364e-11
-3.07184e-09
2.79595e-09
-1.32513e-08
1.2549e-10
3.34144e-10
2.1372e-09
1.16273e-08
-1.33263e-08
4.00889e-08
-3.41718e-08
-1.58613e-08
1.50312e-08
-1.11741e-10
-2.38684e-10
3.96097e-10
9.38446e-10
-2.33439e-10
4.8406e-10
4.68503e-09
1.12366e-09
-3.88607e-09
-6.51753e-10
7.38906e-10
-5.35023e-10
-2.45843e-09
1.25194e-08
2.31348e-09
-1.45602e-08
-1.96496e-09
-3.85839e-09
5.65703e-09
1.1235e-09
-2.47866e-09
1.34054e-08
-1.17465e-09
-4.83038e-09
1.22308e-08
-7.56974e-09
-1.84248e-08
-1.31331e-08
7.72646e-09
5.68256e-09
-2.69234e-10
-5.41431e-10
3.28255e-09
1.43783e-08
1.27573e-09
-6.81301e-10
-5.95748e-10
6.46082e-10
-3.68364e-10
1.56876e-08
-5.43553e-10
-1.54597e-08
-8.50877e-09
-3.03289e-09
3.03475e-10
-2.83048e-10
3.98779e-09
-2.06233e-08
7.47788e-10
-1.77586e-09
-2.45024e-09
-2.2305e-09
1.48877e-08
-7.16672e-08
-2.19025e-10
7.19159e-08
-2.06831e-10
-7.15709e-08
-2.96699e-10
7.19302e-08
-2.24746e-10
-7.18784e-08
-6.77928e-10
-2.0303e-09
1.57609e-08
7.21138e-08
6.88489e-11
9.02449e-11
-2.87705e-10
1.26703e-08
1.83153e-09
-1.24778e-08
-1.14659e-08
-3.40016e-09
8.30864e-09
1.52947e-09
-6.86594e-09
-5.91486e-09
8.51451e-09
-3.88008e-10
9.97078e-09
1.86571e-08
-1.75631e-08
3.04187e-09
-1.19856e-08
3.07391e-09
-7.71877e-08
4.61902e-09
-1.99849e-08
-1.24073e-08
-6.73787e-10
-5.90586e-09
-1.46161e-08
8.73436e-09
-1.50006e-08
6.84283e-10
5.84218e-10
-1.65493e-09
-1.57181e-08
1.62739e-08
1.2209e-08
-1.18023e-08
-5.97346e-09
1.42805e-08
-1.59505e-09
7.19924e-10
-1.75034e-09
8.08181e-10
1.15481e-08
-1.74278e-09
6.51942e-08
-1.73942e-08
9.35983e-10
-1.42636e-08
-3.84773e-10
-4.49933e-10
-2.40127e-10
7.32485e-08
-7.34728e-08
-6.9927e-08
-7.02546e-08
5.5591e-11
7.57453e-11
-7.20096e-08
-7.21356e-08
7.09015e-08
6.98989e-08
-7.25678e-08
6.97435e-08
-7.27625e-08
6.96942e-08
-7.29609e-08
6.97902e-08
7.20822e-08
4.69495e-10
2.77611e-09
7.36108e-08
-7.81296e-08
1.89791e-10
-1.89791e-10
2.89642e-09
-3.96866e-10
1.5447e-08
-2.2048e-10
2.2048e-10
5.63809e-10
6.01655e-10
1.48271e-08
1.25329e-08
-1.27826e-09
2.14669e-09
6.43664e-09
1.85728e-09
5.08652e-10
-3.73854e-10
-2.87915e-09
1.41327e-08
1.50038e-08
-3.7274e-09
1.10341e-08
3.40909e-10
2.54168e-10
3.05026e-09
-1.17057e-09
-1.81597e-09
-5.66498e-09
-1.25276e-10
-5.66036e-10
1.51554e-08
4.23449e-10
2.28513e-10
1.92623e-08
-2.46322e-08
1.67637e-08
2.5281e-09
1.5491e-09
2.15407e-09
-3.50074e-09
1.8473e-08
-1.71264e-08
-1.86329e-10
1.24385e-09
1.18896e-09
-7.03567e-08
-7.30673e-08
1.53292e-09
-1.4185e-09
7.70663e-10
2.27421e-08
1.74574e-08
-6.23549e-09
1.53507e-10
-4.48127e-09
-1.50092e-09
3.01037e-08
-7.8726e-09
2.1747e-09
6.50274e-08
1.67484e-10
6.93962e-10
-2.99126e-10
-3.64447e-10
-3.96391e-09
2.34109e-08
-1.45426e-08
1.35824e-09
-1.2429e-08
-1.44478e-10
2.1224e-08
-2.84393e-08
9.60737e-10
3.72194e-09
-9.02965e-10
)
;

boundaryField
{
    back
    {
        type            empty;
        value           nonuniform 0();
    }
    ingreso
    {
        type            calculated;
        value           nonuniform List<scalar> 
14
(
-1.54286e-08
-1.54288e-08
-1.54288e-08
-1.54288e-08
-1.54286e-08
-1.54283e-08
-1.54288e-08
-1.54288e-08
-1.54286e-08
-1.54286e-08
-1.54288e-08
-1.5428e-08
-1.5428e-08
-1.54286e-08
)
;
    }
    salida
    {
        type            calculated;
        value           nonuniform List<scalar> 2(7.35174e-08 1.42474e-07);
    }
    front
    {
        type            empty;
        value           nonuniform 0();
    }
    defaultFaces
    {
        type            calculated;
        value           uniform 0;
    }
}


// ************************************************************************* //
