/*--------------------------------*- C++ -*----------------------------------*\
  =========                 |
  \\      /  F ield         | OpenFOAM: The Open Source CFD Toolbox
   \\    /   O peration     | Website:  https://openfoam.org
    \\  /    A nd           | Version:  7
     \\/     M anipulation  |
\*---------------------------------------------------------------------------*/
FoamFile
{
    version     2.0;
    format      ascii;
    class       volScalarField;
    location    "34";
    object      p;
}
// * * * * * * * * * * * * * * * * * * * * * * * * * * * * * * * * * * * * * //

dimensions      [0 2 -2 0 0 0 0];

internalField   nonuniform List<scalar> 
591
(
0.000124028
0.000124045
0.000124057
0.000124017
0.000124018
0.000124099
0.000124084
0.00012405
0.000117055
0.000124057
0.00012422
0.000122948
0.000124069
0.000119818
0.000124051
0.0001241
0.000123991
0.000124087
0.000122071
0.000123434
0.000124021
-3.50294e-06
0.000124219
0.000124024
0.000124179
0.000124043
0.000124119
0.00012414
0.000124055
0.000124079
0.000124198
0.000124175
0.000124193
0.000124192
0.000124194
0.000123532
0.00012419
0.000124031
0.000124214
0.000124132
0.000124115
0.000124187
0.000124053
0.000124071
0.000124184
0.000124202
0.000119325
0.000124205
0.000124064
0.000124173
0.000124141
0.000124179
2.39517e-05
3.06189e-05
4.7896e-05
0.000124066
0.000124209
0.000124191
0.000124203
0.00012403
0.00012411
0.000124049
0.000124052
0.000124111
0.000122671
0.00012405
0.000124055
0.0001242
0.000120819
0.000124069
0.000124056
0.000124207
0.000124166
0.000124187
0.000124193
0.000124169
0.000124022
0.000124204
0.000124027
0.000123949
0.000123807
0.000124208
0.000124171
0.00012414
0.000124216
0.000124037
0.000124129
0.000124198
0.000124162
0.000123918
0.000124176
0.000124109
0.000124133
0.000124033
0.000124214
0.00012417
0.000123737
0.000123634
0.000123765
0.000124219
0.00012413
0.000124038
0.000124222
0.000124019
0.000124221
0.000124055
0.000124045
0.000124173
0.000124212
0.000124217
0.000124101
0.000124189
0.00012407
0.000124197
0.000124217
0.000124193
0.000124141
0.000124149
0.000123697
0.000124108
0.000124051
0.000124073
0.0001241
0.000124039
0.000124191
0.000120325
0.00012422
0.000124194
0.000123808
0.000124194
0.000124041
0.000123731
0.000124155
0.000124152
0.000124197
0.000124063
0.000122706
0.000124222
0.000124047
0.0001237
0.000123764
0.000124124
0.000124199
0.000124214
0.000124209
7.64555e-06
3.71239e-06
2.09821e-06
3.81972e-05
3.67407e-05
5.69687e-06
3.83414e-05
1.57711e-05
3.73157e-05
1.78385e-05
0.00012405
0.000124037
0.000124207
0.000124205
0.000124211
0.000124209
0.000124203
0.0001242
0.000124204
0.000124205
0.000124165
0.000124212
0.000124207
0.000124213
0.000124142
0.000123503
0.000124215
0.000122232
0.000124186
0.000124196
0.000124138
0.000124057
0.000124196
0.000124206
0.000124201
0.00012361
0.00012258
0.00012316
0.000123571
0.0001242
0.000124204
0.000124145
0.000124025
0.000124197
0.000123072
0.000123426
0.000124027
0.000124195
0.000123892
0.000124189
0.000124196
0.000124168
0.000123863
0.000124012
0.000124194
0.000124205
0.000124199
0.000123991
0.000124181
0.000123987
0.000124213
0.000124049
0.000124044
0.00012421
0.000123831
0.000124015
0.00012406
0.000123674
0.00012416
0.00012382
0.000124106
0.000124106
0.000124185
0.000123592
0.000124099
0.000124002
0.000124012
0.00012417
0.000123927
0.00012409
0.000123997
0.000123903
0.000124005
0.000124216
0.000123969
0.000124209
0.000124047
0.000124184
0.000124041
0.000124039
0.000124216
0.000123943
0.000124207
0.000123937
0.000123984
0.000124056
0.000124033
0.000124059
0.000124051
0.000123809
0.000124019
0.000123965
0.000124174
0.00012404
0.000123871
0.000124164
0.00012343
0.000123976
0.000123338
0.000123201
0.000124038
0.000124002
0.000124035
0.00012403
0.000123984
0.000124214
0.000124076
0.000124156
0.000124075
0.00012408
0.000124092
0.000124163
0.000123818
0.000124209
0.000123857
0.000123751
0.000124066
0.000124184
0.000123768
0.00012421
0.00012411
0.000124155
0.000124167
0.000124064
0.000124021
0.000123827
0.000123999
0.000124013
0.000124066
0.000124109
0.000124183
0.000124194
0.000124204
0.000123976
0.000124071
0.000124187
0.000124197
0.000124193
0.000123998
0.000124204
0.000124076
0.000124179
0.000123964
0.000124206
0.000123956
0.000124184
0.000124094
0.000124022
1.16601e-05
2.19382e-05
0.000123997
0.00012405
0.000124212
0.000123986
0.000124212
0.000124063
0.000124206
0.000124185
0.000123945
0.00012418
0.000124016
0.000124207
0.000124057
-2.09729e-07
0.000123888
0.000124187
0.000124184
0.000123905
0.000124024
0.000124057
0.00012418
0.000123969
0.0001242
0.000124095
0.000124052
0.000124177
0.000124015
0.00012394
0.000123963
0.000124067
4.74568e-05
0.000124195
0.000124177
0.000124042
0.000124201
0.00012412
0.000124067
0.000124042
0.000124046
0.000124188
0.000124084
0.000123979
0.000124074
0.000123982
0.000124201
0.000123989
0.000124033
0.000124075
0.000124156
1.99023e-05
2.73175e-05
3.43328e-05
9.65719e-06
0.000124026
3.30919e-05
2.6033e-05
0.000124198
1.91045e-05
1.70677e-05
3.82284e-05
7.59402e-06
3.99836e-05
5.63982e-06
4.08816e-05
3.72294e-06
4.28649e-05
1.89781e-06
3.64288e-05
2.32149e-05
2.94611e-05
1.50291e-05
0.000123896
0.000124208
0.000124094
0.000124103
0.000121021
0.000124164
0.000124203
0.000124174
0.000124002
0.000124208
0.000124202
0.000124191
0.000124188
0.00012396
0.000124048
0.000124186
0.00012419
0.000124031
0.000123919
0.000123929
0.000123518
0.00012398
0.000124218
0.000124194
0.000124059
0.000124216
0.000123904
0.000124059
0.000123861
0.000122979
0.000124189
0.000124199
0.000124216
0.00012391
0.000124069
0.000123863
0.000124065
0.000124047
2.60642e-05
2.18932e-05
3.30682e-05
1.16258e-05
0.000124223
0.000123909
1.98502e-05
2.82806e-05
3.56403e-05
9.58787e-06
0.000124032
0.000124143
0.000124004
0.000124006
0.000124067
0.000124148
0.00012394
0.000124185
0.000124112
0.000123216
0.000124011
0.000123979
5.93275e-05
0.000123341
0.000124213
0.000124036
0.000123941
0.000124202
0.000124205
0.000124024
0.000123817
0.000124055
0.000124124
0.000123895
0.00012416
0.000123026
0.000123997
0.00012399
0.000124156
0.0001009
0.000124004
0.000123605
0.000123974
0.000124214
0.00012387
1.09101e-05
2.11368e-05
3.54082e-05
2.82223e-05
1.3692e-05
6.20544e-08
4.20902e-05
2.70263e-06
4.01875e-05
4.78157e-06
3.94529e-05
6.83065e-06
3.86629e-05
8.86993e-06
3.73311e-05
1.36984e-05
3.17547e-05
3.06149e-05
2.39592e-05
2.52777e-05
1.78103e-05
1.29631e-05
1.57524e-05
0.000124207
0.000102558
0.000124029
0.00012397
0.000124211
0.000124106
0.000124216
0.00012394
0.000124096
0.000124181
0.000124176
0.000124207
0.000123945
0.000124069
0.000123919
0.000124145
0.000123998
0.000124211
0.000124066
0.000123897
0.0001239
0.000124081
0.000124076
0.000124218
0.000124209
0.000124214
0.00012418
0.000124218
0.000123858
0.000124054
0.000124213
0.000123998
0.000124135
0.000124052
0.000124063
0.000123923
0.000124179
0.000124179
0.000123498
0.000121466
0.00012323
0.000123771
0.000124053
0.000123877
0.000124079
0.000124216
0.000124172
0.000124062
0.000123661
0.000123646
0.000124213
0.000124182
0.000124079
0.000124148
0.000123696
5.8385e-05
4.0163e-05
0.000124154
0.000124171
0.000123542
0.000122868
0.000124036
0.000123746
0.000123491
0.000124063
0.000123925
0.000124194
0.000124078
0.00012411
0.000119125
5.45404e-05
0.000124076
8.12641e-05
1.86682e-06
-3.80589e-07
0.000124047
0.000124018
0.000124181
0.000124217
0.000124204
0.000124212
0.000124206
0.000124034
-2.30146e-06
0.000122955
0.000124064
0.000124161
0.000122135
0.000124211
0.000124211
0.000122392
0.000124146
0.000124183
0.000121785
0.000124209
7.64481e-05
0.000124209
0.00012372
0.000124174
0.000122496
0.000123751
0.000123784
0.000124081
0.000124212
0.000124168
0.00012421
0.000124221
0.00012406
0.000116298
)
;

boundaryField
{
    back
    {
        type            empty;
    }
    ingreso
    {
        type            zeroGradient;
    }
    salida
    {
        type            fixedValue;
        value           uniform 0;
    }
    front
    {
        type            empty;
    }
    defaultFaces
    {
        type            zeroGradient;
    }
}


// ************************************************************************* //
