/*--------------------------------*- C++ -*----------------------------------*\
  =========                 |
  \\      /  F ield         | OpenFOAM: The Open Source CFD Toolbox
   \\    /   O peration     | Website:  https://openfoam.org
    \\  /    A nd           | Version:  7
     \\/     M anipulation  |
\*---------------------------------------------------------------------------*/
FoamFile
{
    version     2.0;
    format      ascii;
    class       volVectorField;
    location    "34";
    object      U;
}
// * * * * * * * * * * * * * * * * * * * * * * * * * * * * * * * * * * * * * //

dimensions      [0 1 -1 0 0 0 0];

internalField   nonuniform List<vector> 
591
(
(0.00081 -4.23468e-05 1.22137e-18)
(0.00078932 -3.4515e-05 -6.62973e-19)
(0.000851891 -5.49522e-05 5.72305e-20)
(0.000839475 4.81058e-06 -1.48356e-19)
(0.000823496 1.68754e-05 2.24206e-19)
(0.000784668 -3.54173e-05 -1.38461e-19)
(0.000540676 -0.000371874 8.03191e-19)
(0.00079604 -2.86268e-06 2.07469e-18)
(0.00576202 0.00248893 9.88196e-19)
(0.000784492 -1.8489e-05 2.42249e-18)
(5.73102e-05 0.000177582 1.21902e-18)
(0.000897295 0.00132384 9.41001e-21)
(0.000791331 1.02195e-05 1.28963e-18)
(0.00157581 0.00236818 -7.87993e-19)
(0.00079897 1.41314e-05 -4.38403e-19)
(0.000115831 -0.000247601 2.55665e-22)
(0.000132153 0.000670329 7.0582e-19)
(0.000828553 2.76987e-05 -4.90249e-19)
(0.00196951 0.000374809 4.73487e-19)
(0.00134726 0.000273886 -2.47373e-19)
(0.000830609 7.20925e-06 3.72143e-19)
(0.00340285 0.00656833 -8.09161e-20)
(3.44618e-05 7.56215e-05 2.71226e-19)
(0.000825098 3.73617e-06 -4.5169e-19)
(1.70757e-05 -2.18414e-05 3.59268e-19)
(0.000756814 2.60392e-05 0)
(9.02351e-05 0.000480127 1.60114e-19)
(0.000517915 2.79975e-05 -1.79051e-19)
(0.000745791 5.28635e-05 1.14383e-18)
(0.000820956 1.73665e-05 5.81731e-19)
(6.59501e-05 -1.33026e-06 -3.25432e-24)
(4.42107e-05 -5.29815e-05 3.52579e-19)
(4.49888e-05 -4.01671e-06 -4.6445e-20)
(5.35687e-05 -1.03832e-05 0)
(6.19942e-05 -1.43463e-05 1.13239e-18)
(0.00116586 0.000128203 1.80121e-19)
(3.88601e-05 -6.97642e-06 4.47655e-20)
(0.000823555 1.63585e-05 3.95163e-23)
(3.3281e-05 5.00182e-05 2.66327e-19)
(5.11681e-05 -0.000141302 -8.55802e-19)
(0.00056929 -0.000192393 9.5884e-19)
(3.21015e-05 -9.09611e-06 4.5534e-20)
(0.000791733 -6.26226e-06 -1.56317e-18)
(0.000822237 2.23948e-05 -6.80849e-19)
(2.29561e-05 -1.09405e-05 0)
(6.19882e-05 1.03868e-05 8.52825e-20)
(0.00132561 0.0045172 8.93839e-19)
(8.41484e-05 2.20179e-05 8.64579e-20)
(0.000792488 2.44151e-05 0)
(0.000367285 -0.000154828 6.78611e-19)
(0.000371505 0.000279986 5.12445e-21)
(0.000385319 6.97065e-05 -1.00493e-18)
(0.00634776 0.0109403 -7.69002e-19)
(0.00622515 0.0107963 1.53092e-20)
(0.00561206 0.0103778 1.45718e-18)
(0.000808574 -3.16522e-06 0)
(7.33556e-05 3.69451e-05 0)
(0.000322529 3.11283e-05 8.30869e-24)
(7.05299e-05 1.47087e-05 -3.46844e-19)
(0.000826776 -5.81649e-06 0)
(0.000612428 2.68435e-05 3.17947e-19)
(0.00081594 -1.72893e-06 2.19724e-18)
(0.000777686 5.87183e-06 -5.42651e-19)
(0.000788664 1.94282e-05 -3.12699e-19)
(0.00171679 0.000490125 5.43934e-19)
(0.000785493 2.61403e-08 -1.14265e-18)
(0.00081586 -1.69581e-06 -5.20976e-19)
(9.19554e-05 2.8234e-06 -1.73604e-19)
(0.000675217 0.00229565 0)
(0.000817642 1.8491e-05 0)
(0.000755248 1.70072e-05 -1.37754e-18)
(4.31028e-05 1.92403e-05 0)
(0.0002822 0.000276501 3.2718e-19)
(4.9216e-05 -1.99382e-05 0)
(4.92996e-05 -6.78841e-06 1.59651e-19)
(2.9698e-05 -5.4649e-05 -3.37059e-20)
(0.000769276 6.49576e-05 2.47397e-19)
(4.99946e-05 1.35712e-05 0)
(0.000785013 5.69911e-05 4.45262e-19)
(0.000752216 0.00029881 2.10962e-19)
(0.000962817 5.95237e-05 -3.98433e-20)
(4.82211e-05 2.72625e-05 -4.52366e-20)
(7.29525e-06 -3.90608e-05 0)
(0.00042154 0.000223697 1.70366e-19)
(2.41694e-06 3.21011e-05 0)
(0.000761548 2.33818e-05 -6.08336e-19)
(0.00056368 -0.000115951 0)
(7.35083e-05 1.92739e-06 -1.74672e-19)
(5.55442e-06 -5.24646e-05 0)
(0.000811234 0.000247968 -3.41662e-19)
(5.16237e-06 -2.41205e-05 0)
(0.000414625 0.000324568 -1.25335e-23)
(0.000512035 0.000116612 0)
(0.000793218 4.94193e-05 -1.62721e-24)
(3.08067e-06 2.13836e-05 -4.22185e-20)
(0.000436073 4.51944e-06 1.7656e-18)
(0.00102035 7.38618e-05 4.16541e-20)
(0.000928181 3.96465e-05 6.41201e-22)
(0.000725761 0.000654592 2.69784e-19)
(5.27549e-06 6.26228e-05 0)
(7.70229e-06 -9.5864e-05 -3.12726e-19)
(9.69758e-06 -0.000179103 -1.1011e-18)
(2.07608e-06 9.73622e-05 -5.96613e-19)
(0.000690427 -8.40156e-06 0)
(5.50614e-06 0.000124171 0)
(0.000792322 9.38563e-06 2.22635e-18)
(0.000765684 2.18819e-05 1.51521e-18)
(0.000402456 -4.1692e-05 0)
(5.10964e-05 0.000230222 -8.95823e-19)
(-1.55662e-06 0.000198842 4.96651e-19)
(7.6901e-05 0.00045429 6.25681e-19)
(0.00029604 0.000105887 -9.38053e-19)
(0.000804722 1.47928e-05 1.36365e-19)
(0.000265858 -1.18936e-05 5.31816e-19)
(3.35667e-06 4.39622e-05 0)
(3.42207e-05 0.000311897 -1.09454e-18)
(0.000313618 0.000329064 -1.61868e-19)
(7.31843e-06 -7.33854e-05 1.4676e-19)
(0.000658014 0.000797275 0)
(0.000359673 0.00039235 5.75001e-20)
(0.000804007 1.21821e-06 1.07216e-18)
(0.000785493 -8.3201e-06 -2.68777e-18)
(9.1675e-06 -0.000123243 0)
(0.000726214 -1.99064e-05 -1.12461e-19)
(0.000318882 -6.91014e-05 1.24468e-18)
(0.00268927 0.000794218 -3.36101e-19)
(2.35128e-07 0.000155825 -6.13458e-19)
(-6.18908e-06 0.000191472 1.62008e-18)
(0.000804642 1.85914e-05 -3.89513e-20)
(7.21928e-05 -8.73913e-06 -7.51009e-19)
(0.000786477 2.61563e-05 -3.89874e-19)
(0.000853095 2.7459e-05 -4.10265e-20)
(5.43e-05 0.000363821 -5.97127e-19)
(0.000469797 8.14873e-05 -4.94472e-19)
(5.6611e-05 -2.20163e-06 1.56329e-19)
(0.000818252 2.82352e-06 -1.07719e-18)
(0.00160968 0.000213766 -1.13742e-18)
(1.8107e-06 7.68508e-05 4.96677e-19)
(0.000799841 5.14241e-06 -4.98497e-19)
(0.000885448 0.000539463 -7.85947e-20)
(0.000131588 0.000832925 0)
(0.000559565 6.75974e-05 0)
(0.000271031 6.34969e-05 -1.61147e-18)
(6.80486e-05 6.47195e-05 -1.37561e-18)
(3.48994e-05 2.39067e-05 0)
(0.00425014 0.00741067 -1.01508e-20)
(0.00423023 0.00738317 3.19256e-20)
(0.00443319 0.0075848 -5.19326e-21)
(0.00420788 0.00773674 0)
(0.00420074 0.0076011 5.7787e-19)
(0.00424856 0.00741278 -9.25094e-20)
(0.00421095 0.00804478 4.84839e-19)
(0.0042861 0.00742048 0)
(0.00420777 0.00854042 6.17299e-19)
(0.00432442 0.0074444 2.1211e-19)
(0.000806597 -3.28095e-06 -1.37123e-18)
(0.000752357 5.03939e-05 0)
(0.000218278 6.80818e-05 1.27824e-19)
(5.61471e-05 1.95961e-05 8.72817e-20)
(8.34644e-05 5.13566e-05 6.80769e-19)
(0.00011249 4.89643e-05 -3.42043e-19)
(0.000108038 1.29535e-05 0)
(5.47003e-05 7.28745e-06 8.19235e-20)
(0.000204519 0.00014439 0)
(0.000171134 5.61421e-05 -5.24819e-20)
(0.000336493 0.0002305 -5.0978e-21)
(6.04855e-05 4.85076e-05 -4.3814e-19)
(9.72005e-05 3.44394e-05 -8.53414e-20)
(9.54479e-05 6.90763e-05 1.31338e-21)
(0.000248288 0.000371767 -6.66849e-19)
(0.000127839 0.00105146 0)
(4.60138e-05 5.78646e-05 3.4344e-19)
(0.000198851 0.00179335 0)
(0.000206365 0.00026006 7.05389e-19)
(4.4511e-05 -5.46051e-06 1.11469e-19)
(0.000468613 0.000169717 -1.72485e-19)
(0.000746673 2.89893e-05 -1.91037e-18)
(4.89028e-05 -2.58706e-07 4.11837e-24)
(0.000155798 3.57018e-05 2.24831e-19)
(0.000240078 0.000106179 -9.00302e-20)
(0.000874942 0.000708485 3.35278e-19)
(0.000745322 0.00161872 -9.22193e-21)
(0.000381651 0.00140975 -9.43308e-21)
(0.00101389 0.00055862 0)
(0.00011257 -1.08563e-05 1.12e-18)
(0.000124677 2.58483e-05 -4.43638e-20)
(0.000426832 -0.00026296 -1.1369e-18)
(0.000801794 3.00907e-05 0)
(0.000185074 2.3041e-05 3.63679e-19)
(0.000296536 0.00133864 0)
(0.0010393 0.000754105 -7.30955e-20)
(0.000819749 4.02715e-05 -1.85454e-19)
(8.87621e-05 -1.85324e-05 -3.00328e-19)
(0.000808489 0.000314875 -2.08282e-20)
(7.17138e-05 -2.20367e-05 -6.00189e-19)
(0.000226216 0.000183448 8.64778e-20)
(0.000226424 0.000312759 -3.45368e-19)
(0.000870603 0.000239097 0)
(0.000795824 4.63022e-05 0)
(0.000259296 0.000150394 1.77034e-19)
(0.000234958 1.81683e-05 1.96723e-24)
(0.00018476 0.000213215 0)
(0.000282324 0.000649878 -5.56179e-21)
(0.000332481 1.66742e-05 0)
(0.000343726 0.000599735 0)
(0.000114208 9.09452e-05 -1.34818e-21)
(0.000809713 5.49409e-06 -9.38428e-19)
(0.000813391 2.36741e-06 7.80455e-19)
(0.000133812 6.75828e-05 -1.50019e-19)
(0.000940007 0.000152659 8.51782e-20)
(0.000824188 4.8195e-05 3.32997e-19)
(0.000798974 1.69187e-05 -2.95337e-19)
(0.000994569 0.000403746 0)
(0.000427649 0.000127673 6.25129e-19)
(0.000882523 0.000315839 2.09374e-20)
(0.000556652 0.000164159 0)
(0.000272802 0.000442448 4.1005e-19)
(0.000258885 0.000225696 -8.45055e-20)
(0.00109215 0.000377687 -7.8281e-19)
(0.00060024 0.000114113 -1.79499e-19)
(0.000791532 7.74111e-05 -7.45337e-21)
(0.000823936 2.70143e-05 9.35347e-20)
(0.000102451 -9.0881e-05 -1.98355e-18)
(0.000726464 0.000380713 2.19468e-19)
(0.000644986 6.43893e-05 2.30833e-20)
(0.000691301 0.000275499 1.56132e-23)
(0.000714768 0.000451286 -4.09953e-19)
(0.000832373 3.95669e-05 8.97187e-20)
(7.6252e-05 8.82528e-05 0)
(0.000641445 0.00041647 -4.66158e-20)
(0.00018514 0.000107621 0)
(0.000368623 0.000504972 -2.65093e-19)
(0.000309383 0.000177846 0)
(0.000660435 0.000202755 3.55634e-19)
(0.00063335 0.00026563 -4.3774e-20)
(8.32369e-05 0.000109451 6.19836e-19)
(0.000870815 0.000105368 -1.63529e-18)
(6.37612e-05 2.64586e-05 2.57477e-19)
(0.000869409 5.12514e-05 -1.65783e-18)
(0.000818578 7.32999e-05 1.61827e-19)
(0.000796352 1.78895e-05 1.93175e-18)
(0.000793184 1.57057e-05 -1.31506e-19)
(0.000711402 7.44078e-05 0)
(0.000809109 3.30873e-05 8.80112e-19)
(0.000933861 0.000232689 -4.27605e-19)
(0.000751465 8.06675e-05 -4.83739e-19)
(0.000765792 0.000226774 -8.82252e-20)
(0.000236198 -0.00012119 -2.08158e-18)
(0.00072104 8.95854e-05 8.87684e-19)
(0.000632347 0.000595417 0)
(0.000122981 -0.000102523 0)
(0.00118927 0.000467957 4.97704e-19)
(0.000747533 -9.11474e-05 -3.23497e-18)
(0.00130609 0.00042679 5.76234e-19)
(0.00125124 0.000713702 -6.39957e-20)
(0.000791042 4.63331e-05 -2.13019e-19)
(0.000820003 7.20731e-05 -1.42165e-18)
(0.000808825 1.85884e-05 1.57238e-18)
(0.000805465 2.43406e-05 9.68527e-20)
(0.000662289 0.00034536 -4.40883e-20)
(0.000105892 0.000136244 8.49445e-24)
(0.000721623 -6.01387e-05 2.65399e-19)
(0.000242705 -0.000210035 -7.36846e-19)
(0.000605178 0.000190682 0)
(0.000682632 2.68309e-05 9.91561e-20)
(0.000660269 9.54276e-06 -3.81262e-19)
(0.000379311 0.000178752 3.93716e-20)
(0.000784943 0.000498296 -1.65647e-19)
(0.000154229 8.65342e-05 2.56424e-25)
(0.000802222 0.000396144 0)
(0.0009615 0.000322014 4.16254e-20)
(0.000730802 -9.48823e-05 -6.17e-19)
(0.000339446 0.000114906 4.98241e-19)
(0.000892567 0.000419226 0)
(5.45684e-05 3.59103e-05 1.33859e-19)
(0.000469513 0.000272937 2.14177e-19)
(0.000452639 -0.000104407 -7.0998e-19)
(0.000174476 -0.000136957 -1.0602e-18)
(0.000809382 1.45669e-05 -4.76309e-19)
(0.00079911 -0.000112615 -1.93577e-19)
(0.000564452 0.000721657 -1.17559e-18)
(0.000831198 4.65887e-05 -6.69392e-20)
(0.000728132 -3.50409e-05 1.26097e-18)
(0.000671316 9.86819e-05 2.2805e-20)
(0.000514183 0.000217471 -1.65859e-19)
(4.02776e-05 -2.48448e-05 -8.76798e-20)
(0.000190232 -2.73913e-05 2.40876e-18)
(2.81094e-05 9.60184e-07 -1.95026e-19)
(0.000793016 9.4832e-05 3.61709e-19)
(0.00063767 0.000139723 0)
(0.000201478 -5.72592e-05 -1.04921e-18)
(0.000130309 -4.02203e-06 3.13222e-19)
(0.000128527 -3.17101e-05 -2.92319e-25)
(0.0007823 0.000113906 -3.18886e-19)
(0.000159518 -4.43286e-06 0)
(0.000570822 0.000243962 0)
(0.000111236 0.000338438 -3.63223e-19)
(0.000846052 0.000100086 2.10123e-18)
(2.28933e-05 1.65758e-06 0)
(0.00085296 4.24698e-05 0)
(5.26413e-05 -2.67042e-05 0)
(0.000810935 3.03095e-05 -4.43546e-21)
(0.00080376 -6.35646e-05 0)
(0.00425724 0.00741028 8.08086e-20)
(0.00436101 0.00748323 1.4403e-19)
(0.000840542 5.49584e-06 0)
(0.000759649 -5.76004e-05 8.13662e-19)
(0.000153987 0.000134803 1.49366e-19)
(0.000843603 7.56372e-05 7.9552e-19)
(0.000134037 0.000111411 2.34648e-20)
(0.000757413 -4.46727e-05 6.26892e-19)
(3.98276e-05 1.1968e-05 0)
(3.57788e-05 -1.6621e-05 -4.4898e-20)
(0.000873307 5.28655e-05 -4.85856e-19)
(4.42523e-05 -3.56278e-05 -6.70452e-19)
(0.000740087 0.000119405 -4.23539e-20)
(0.000167863 0.00017199 -1.88296e-19)
(0.000809115 1.52363e-05 0)
(0.00468296 0.0081526 8.94306e-22)
(0.000166119 0.000783214 3.3407e-19)
(0.000134519 -4.85675e-05 -9.15525e-19)
(7.29165e-05 -3.52095e-05 -1.17e-18)
(0.000741595 1.80586e-05 1.89954e-20)
(0.000571561 0.00041403 0)
(0.000403386 0.000435689 -2.56592e-19)
(0.000107161 -5.27768e-05 1.1849e-18)
(0.000699563 2.93892e-06 7.67216e-20)
(4.78772e-05 2.57148e-06 4.07513e-19)
(0.000656454 -5.98088e-05 1.17307e-18)
(0.000805859 2.80777e-05 -5.98175e-19)
(8.547e-05 -5.51118e-05 1.71092e-18)
(0.000837052 -2.17382e-06 -3.61265e-24)
(0.000717441 9.95646e-06 -3.76981e-20)
(0.000854788 5.86169e-05 0)
(0.000811632 3.39162e-05 0)
(0.00592636 0.00724011 2.58964e-19)
(2.9443e-05 3.42044e-07 -1.19689e-19)
(0.000167772 -8.07622e-05 7.73709e-19)
(0.000709015 0.000121339 -6.97271e-19)
(3.35624e-05 -7.06367e-07 2.0167e-19)
(0.000577798 -2.47856e-05 -7.24685e-19)
(0.000723954 2.577e-05 1.55603e-18)
(0.000688486 0.000155323 -3.55839e-19)
(0.000804439 -1.88971e-05 3.5466e-19)
(9.34062e-05 -2.95467e-05 1.11728e-18)
(0.000785243 9.05877e-06 -3.19814e-19)
(0.000852805 4.88606e-05 0)
(0.000528225 0.000302762 4.21468e-20)
(0.000840141 4.44172e-05 -9.3546e-19)
(2.9403e-05 1.36433e-07 9.11901e-19)
(0.000831341 4.08792e-05 9.41061e-19)
(0.00084026 -1.4702e-05 -9.61149e-19)
(0.000711433 6.6017e-06 -5.69799e-19)
(0.000488766 -5.30601e-05 -5.26263e-19)
(0.00432807 0.00744934 2.34843e-19)
(0.00422802 0.00753225 -2.34577e-19)
(0.00422304 0.00758896 2.67657e-19)
(0.00425786 0.00741933 1.98223e-19)
(0.000843999 -6.45389e-06 1.43418e-19)
(0.00447513 0.00750815 0)
(0.00440218 0.0075155 -3.86339e-19)
(4.35371e-05 -2.71201e-07 -9.97937e-19)
(0.0041716 0.00747353 -6.3452e-20)
(0.00414661 0.00743451 -2.22032e-19)
(0.00602826 0.0106043 0)
(0.00653725 0.0111854 3.73053e-20)
(0.00600805 0.0105741 0)
(0.00655424 0.0112068 1.30301e-19)
(0.00599501 0.0105978 2.70008e-19)
(0.00659367 0.0112232 1.24929e-20)
(0.00593365 0.0106112 -7.7755e-19)
(0.00662605 0.0111426 8.24687e-21)
(0.00390192 0.00920462 -1.91113e-19)
(0.00418918 0.00749286 3.82884e-21)
(0.00424126 0.00755619 7.94055e-20)
(0.00415252 0.00743724 4.12985e-20)
(0.000852476 0.000180194 4.47271e-20)
(1.66395e-05 2.31806e-06 0)
(0.000660254 -0.000149155 0)
(0.000716529 3.5649e-05 0)
(0.00243945 0.00111214 4.19405e-21)
(0.000737879 -2.69163e-05 1.71243e-19)
(4.64211e-05 7.65962e-06 4.54565e-20)
(1.88448e-05 -3.2836e-05 1.65429e-18)
(0.000838196 2.21952e-05 0)
(3.21134e-05 1.53889e-05 -1.91941e-19)
(0.000144371 0.000230822 0)
(2.99012e-05 -1.29684e-06 0)
(2.47831e-05 -1.9516e-06 0)
(0.000799106 0.000124797 1.135e-20)
(0.00081187 -4.01676e-06 1.77773e-19)
(3.35044e-05 0.00030708 -1.26511e-23)
(0.000161014 0.000278078 -1.84384e-18)
(0.000592195 0.000337179 -8.57912e-20)
(0.000889028 0.00012845 6.02593e-19)
(0.000705922 -0.000371305 6.71214e-19)
(0.000333225 0.00111433 0)
(0.000454899 0.000562033 2.71758e-18)
(9.57063e-05 0.000153665 -1.80356e-18)
(3.57205e-05 4.52536e-07 0)
(0.000820489 -3.27614e-05 3.61068e-20)
(2.01666e-05 4.25491e-05 1.64631e-18)
(0.000897444 2.62378e-05 2.71595e-19)
(4.5147e-05 -0.000147907 3.79117e-18)
(0.000925595 4.03584e-05 -2.69394e-19)
(0.00139617 0.000133649 7.48103e-19)
(4.3845e-05 -1.23704e-05 8.26644e-20)
(4.39832e-05 7.03054e-06 -8.59567e-19)
(4.86663e-05 0.000154355 0)
(0.000891291 8.20607e-05 5.97614e-19)
(0.000485908 0.000370299 2.37387e-19)
(0.000765454 1.73725e-05 -3.88899e-20)
(0.000754906 -1.43144e-05 2.56708e-19)
(0.000717204 -0.000224886 0)
(0.00632213 0.0108982 -1.68187e-19)
(0.00637838 0.0109748 4.06254e-19)
(0.00615882 0.0107284 -6.19029e-19)
(0.00649932 0.0111329 -8.10981e-20)
(4.00854e-05 0.000124139 8.01414e-19)
(0.000893611 5.71549e-05 1.54306e-22)
(0.00641036 0.0110033 -3.87017e-19)
(0.00628189 0.0108434 5.48883e-19)
(0.00607993 0.0106726 -4.15754e-19)
(0.00651925 0.011166 -6.81991e-20)
(8.8704e-05 0.000550378 -2.0209e-20)
(0.000152763 -0.000192236 -7.93313e-19)
(0.000755088 -9.83888e-06 -7.60055e-19)
(0.000711723 0.00022036 0)
(0.000788321 2.10879e-06 0)
(0.000184227 0.000393569 3.36643e-19)
(0.000596546 0.000546965 -5.42017e-19)
(1.81819e-05 -2.75601e-06 1.78601e-19)
(0.000208523 0.000464137 -7.39147e-19)
(0.00100309 0.000974858 -1.12828e-19)
(0.000727683 0.000170741 0)
(0.00077525 0.00017181 1.31176e-19)
(0.00637122 0.00587551 1.12999e-18)
(0.000721637 0.00114137 8.28371e-20)
(4.37617e-05 4.33277e-05 -7.45535e-20)
(0.000815624 4.02426e-05 0)
(0.00087363 2.26499e-05 -3.57364e-20)
(4.23223e-05 5.57004e-06 -1.96875e-19)
(3.64162e-05 7.00913e-06 1.93179e-19)
(0.000822066 2.16318e-05 5.36511e-19)
(0.000959744 0.000104171 6.59317e-19)
(0.000659233 3.94095e-05 0)
(0.000220999 -0.000309183 -3.98496e-19)
(0.000895573 0.000145936 3.90095e-19)
(3.31672e-05 -7.97765e-05 2.03351e-19)
(0.00144405 0.00037632 -2.5874e-18)
(0.000689134 -1.15245e-06 0)
(0.000778769 0.000142241 3.75923e-19)
(9.12053e-05 0.000406944 0)
(0.00118096 0.00816803 4.62251e-19)
(0.000468427 0.000507072 -1.22528e-18)
(0.000541496 0.000974969 -1.83936e-19)
(0.00086561 2.43052e-05 -1.45844e-19)
(1.77932e-05 2.9935e-05 0)
(0.000916937 7.38014e-05 6.1249e-19)
(0.00410507 0.0073972 8.1529e-20)
(0.00417281 0.00747797 4.7409e-20)
(0.00449827 0.00751237 4.54602e-19)
(0.00444343 0.00754018 -3.26604e-19)
(0.00647203 0.0111084 8.11883e-20)
(0.00390875 0.00713986 -9.35854e-22)
(0.00551203 0.0077946 -5.65162e-19)
(0.00409044 0.00736436 5.23438e-21)
(0.00518983 0.00785474 5.1206e-19)
(0.00407035 0.00733267 -4.90187e-20)
(0.00495393 0.00771268 0)
(0.00407482 0.00736175 -8.58958e-20)
(0.0047416 0.00758547 4.93024e-19)
(0.00409363 0.00737816 8.76387e-20)
(0.00457392 0.00752312 0)
(0.00427961 0.00741912 1.40022e-19)
(0.00424072 0.00760056 5.82128e-19)
(0.00446669 0.00752439 -5.51918e-19)
(0.00438682 0.00750194 3.71643e-19)
(0.00423227 0.00752893 2.62222e-19)
(0.00642798 0.0110403 -4.92824e-21)
(0.00411749 0.00740417 3.1213e-20)
(0.00645638 0.011069 0)
(2.9555e-05 8.57746e-06 -1.90075e-19)
(0.00198344 0.00653351 2.28635e-19)
(0.000844148 -1.44129e-05 1.09583e-19)
(0.000856319 1.79103e-05 0)
(3.3873e-06 3.38813e-06 -3.99566e-19)
(6.08737e-05 -0.000194519 6.92552e-19)
(2.46062e-05 6.40023e-05 2.09131e-18)
(0.000810449 0.000184169 -9.01875e-20)
(0.000784225 1.13933e-05 6.9943e-19)
(3.80541e-06 -3.84554e-06 3.10349e-19)
(2.62812e-05 -4.27399e-05 -1.84755e-18)
(0.000749159 2.63043e-05 1.63376e-19)
(0.000851366 0.000128297 -3.07561e-20)
(0.000781791 -8.13115e-06 1.46917e-19)
(0.000403368 0.000661062 0)
(0.000110397 -0.000152918 1.15246e-18)
(0.00084465 1.72612e-05 1.52429e-19)
(2.31257e-05 2.81433e-05 0)
(0.000105067 0.000566868 -6.31834e-19)
(0.000605652 0.000601974 1.31924e-18)
(0.000338577 0.000729653 0)
(0.000781304 -1.61075e-05 0)
(0.000784877 1.97777e-05 1.16941e-18)
(2.29351e-05 5.39045e-05 -3.51886e-18)
(2.09856e-05 1.02165e-05 3.74047e-19)
(0.00011403 0.000155022 0)
(6.05014e-05 -4.43425e-05 0)
(6.90239e-05 0.000121193 2.01223e-19)
(0.000911874 0.000173916 3.50859e-19)
(0.000796392 4.93716e-06 -1.38226e-18)
(2.622e-05 3.87117e-05 0)
(0.000559463 4.66164e-05 -6.0275e-20)
(0.00079174 3.59109e-05 -1.54792e-19)
(0.000826219 1.80446e-05 1.04085e-18)
(0.000255556 0.00054658 6.32877e-19)
(0.000842652 0.000148822 0)
(2.94514e-05 -3.06701e-05 5.39292e-19)
(4.31851e-06 -1.30525e-05 -3.20332e-19)
(0.00107126 1.71667e-05 0)
(0.00101885 0.002223 0)
(0.00102393 -4.10505e-05 0)
(0.00098347 0.000195333 4.27707e-19)
(0.000816582 -1.96454e-05 -2.81968e-19)
(0.000903005 0.000120187 -6.85624e-19)
(0.000786638 6.32545e-06 0)
(4.42312e-05 7.70361e-05 -1.71759e-19)
(0.000173135 0.000331151 1.08227e-18)
(0.000789065 3.28166e-05 1.33726e-23)
(0.00106777 0.000192817 -6.69113e-19)
(0.00108379 0.000117707 0)
(3.5793e-06 1.15483e-05 2.51316e-19)
(2.51046e-05 -2.03102e-05 -1.94536e-19)
(0.000653396 3.09659e-05 6.89119e-21)
(4.15899e-05 -0.000106998 0)
(0.00103043 0.000248009 9.51109e-19)
(0.0050274 0.00974529 -2.83797e-19)
(0.00311719 0.00962314 1.27427e-18)
(7.97441e-05 -0.000120022 -1.9157e-19)
(8.09285e-05 -8.24679e-05 1.86175e-18)
(0.00118919 0.000224467 1.67039e-19)
(0.00132943 0.00106489 2.34328e-19)
(0.00082362 5.73654e-06 -7.36336e-19)
(0.000215953 0.000942345 -2.39143e-19)
(0.000787253 0.000889391 -2.18803e-19)
(0.000789102 -7.1281e-06 0)
(9.799e-05 0.000677127 0)
(9.80793e-05 0.000287344 -4.71913e-23)
(0.000743709 -2.46352e-05 -1.82486e-23)
(0.000808276 3.1989e-05 1.50923e-19)
(0.00261699 0.00204603 -1.23227e-18)
(0.00175439 0.00924124 -1.17367e-19)
(0.000824739 2.89401e-05 4.83326e-19)
(0.00635411 0.00403794 -1.75566e-19)
(0.00672486 0.0115517 -1.37284e-20)
(0.004731 0.00783935 4.94725e-21)
(0.000799394 3.05491e-05 -2.17623e-18)
(0.000822686 3.24422e-05 -4.21722e-24)
(1.47631e-05 -1.15288e-05 -3.48414e-19)
(4.84874e-05 9.87924e-05 -3.49673e-19)
(7.90519e-05 0.000282725 8.76661e-19)
(1.51432e-05 2.00881e-05 4.9097e-19)
(9.07246e-05 0.000240421 3.70165e-19)
(0.000819869 3.58367e-05 0)
(0.00535286 0.00949305 1.93941e-20)
(0.00153398 0.000610333 -2.62016e-20)
(0.000821417 2.33883e-05 3.55885e-19)
(6.04632e-05 -9.43651e-05 0)
(0.00184245 0.00075543 5.4643e-19)
(1.33238e-05 1.07464e-05 -2.70465e-19)
(3.88117e-05 3.36093e-05 9.72938e-20)
(0.00131628 0.00137404 6.37057e-19)
(0.00074999 3.426e-05 1.8335e-19)
(1.13289e-05 -3.18002e-06 -1.70402e-19)
(0.00204568 0.00154482 -1.05728e-18)
(0.000127934 0.000188072 -8.19625e-19)
(0.00392291 0.00847733 -1.09148e-18)
(1.0306e-05 2.81132e-06 8.82438e-20)
(0.000197625 -0.000286349 -1.24842e-18)
(6.53301e-05 -6.08367e-05 4.06125e-20)
(0.00151048 0.000965145 0)
(0.00102043 0.000142777 -4.21449e-22)
(0.000446499 0.000855234 -4.02612e-20)
(0.000802161 2.0647e-05 -2.31631e-19)
(8.7015e-05 0.000194678 7.36509e-19)
(5.04932e-05 -7.13979e-05 4.04505e-19)
(2.18781e-05 1.87532e-05 -9.48191e-20)
(3.78595e-05 0.000103592 -3.20649e-19)
(0.000197013 -0.000349224 -5.40523e-19)
(0.00323612 0.00343449 2.9576e-21)
)
;

boundaryField
{
    back
    {
        type            empty;
    }
    ingreso
    {
        type            fixedValue;
        value           uniform (0.0008 0 0);
    }
    salida
    {
        type            zeroGradient;
    }
    front
    {
        type            empty;
    }
    defaultFaces
    {
        type            noSlip;
    }
}


// ************************************************************************* //
