/*--------------------------------*- C++ -*----------------------------------*\
  =========                 |
  \\      /  F ield         | OpenFOAM: The Open Source CFD Toolbox
   \\    /   O peration     | Website:  https://openfoam.org
    \\  /    A nd           | Version:  7
     \\/     M anipulation  |
\*---------------------------------------------------------------------------*/
FoamFile
{
    version     2.0;
    format      ascii;
    class       surfaceScalarField;
    location    "114";
    object      phi;
}
// * * * * * * * * * * * * * * * * * * * * * * * * * * * * * * * * * * * * * //

dimensions      [0 3 -1 0 0 0 0];

internalField   nonuniform List<scalar> 
1111
(
7.22479e-09
1.28251e-08
-1.60666e-08
-3.98325e-09
7.14597e-09
-1.17566e-08
1.18354e-08
-1.4725e-08
5.94931e-09
8.70497e-09
7.06988e-11
1.03711e-09
-1.20847e-09
-1.44063e-08
1.45776e-08
-1.43742e-08
1.42181e-08
1.1932e-09
-1.6016e-09
1.49162e-08
2.114e-09
-2.40782e-09
9.20457e-09
-9.01567e-09
2.21892e-09
-6.72435e-09
-1.26095e-08
1.2595e-08
6.73888e-09
-5.01641e-08
-2.61226e-08
7.62867e-08
-8.07794e-09
7.73721e-09
7.48669e-09
3.19501e-09
3.85559e-10
-3.2708e-09
-3.09774e-10
1.58682e-08
-1.62789e-08
-2.3274e-08
2.36847e-08
-9.66714e-09
-7.9015e-09
8.80294e-09
8.76569e-09
-3.56037e-08
1.77421e-08
-3.23918e-08
5.02534e-08
9.48989e-09
-1.95858e-09
-1.42557e-08
-1.68426e-10
1.16191e-09
-2.43127e-09
1.43778e-09
-3.97474e-09
1.32659e-08
1.97371e-09
-1.12649e-08
8.80684e-09
-2.7094e-09
-1.50641e-08
8.96662e-09
3.71374e-08
-2.98036e-08
-7.33379e-09
-1.94002e-08
2.5177e-10
1.72222e-08
1.9263e-09
-1.08751e-09
4.23158e-09
-1.78299e-08
1.46858e-08
-6.12293e-08
-3.96109e-09
6.51904e-08
1.33758e-10
-1.06657e-09
-3.17548e-10
1.25036e-09
-1.82324e-09
-1.36385e-08
-4.94757e-11
-1.92358e-10
1.32734e-10
1.091e-10
-1.04251e-08
-8.69889e-09
1.33169e-08
5.80709e-09
6.86282e-10
-2.14723e-09
-8.18401e-09
9.64495e-09
8.9181e-09
7.15602e-10
-9.99433e-09
3.60622e-10
-2.86099e-09
-8.15187e-09
1.12281e-08
-2.15291e-10
1.14165e-08
-1.10332e-09
-1.50638e-09
-7.20087e-10
7.3506e-10
-4.58418e-11
3.08689e-11
-4.86605e-12
5.85391e-10
1.15889e-10
-6.96414e-10
-3.52174e-10
-4.0963e-11
3.82978e-10
1.01592e-11
-7.41404e-11
-6.68403e-10
1.17989e-10
6.24555e-10
-1.24726e-10
-6.695e-10
1.03752e-09
-1.83496e-08
-2.08812e-09
-2.79194e-10
3.33028e-11
-1.06282e-10
1.33777e-08
-1.32482e-08
4.10202e-09
-3.22544e-10
5.01872e-10
2.90017e-10
-4.69345e-10
1.53822e-10
-9.52754e-10
8.46659e-10
-4.77268e-11
-1.75251e-09
1.07241e-08
-1.13794e-08
-1.89487e-10
-1.24887e-10
3.51802e-11
-8.69582e-09
1.06987e-08
-1.00809e-08
1.22979e-08
-1.71283e-08
4.48334e-09
3.47125e-10
3.75656e-11
-1.1743e-10
-1.09622e-10
1.1169e-10
6.89223e-10
-6.58523e-11
-5.94944e-08
7.42252e-08
-1.47309e-08
9.44934e-10
-1.64739e-10
-1.03527e-09
2.55076e-10
1.13192e-09
1.03077e-08
-1.37132e-08
2.27359e-09
-1.98812e-09
7.9623e-09
-8.91636e-09
2.94218e-09
-6.82568e-09
5.52846e-09
5.75751e-09
-4.46029e-09
-7.98054e-09
-1.37128e-09
1.50319e-09
7.84863e-09
-1.80686e-10
-9.09134e-08
9.12989e-08
-2.04792e-10
-2.5591e-10
-8.97484e-08
9.0158e-08
-1.53737e-10
8.30789e-08
-1.49142e-09
1.0998e-10
-8.16974e-08
-2.68281e-09
-6.25633e-10
5.45015e-10
7.71989e-10
-3.72069e-10
3.86496e-09
-7.48271e-10
3.60755e-09
-6.72424e-09
-8.49129e-10
7.9608e-10
-1.49081e-08
6.56813e-09
1.009e-08
1.08415e-09
-1.08721e-08
-3.02077e-10
-6.02191e-09
1.36868e-08
8.4511e-10
-8.51005e-09
1.43998e-08
-4.63197e-09
3.86963e-09
-1.36375e-08
1.53834e-08
1.67161e-09
-1.62625e-09
-1.74641e-10
-2.00859e-08
-7.4446e-09
2.77051e-08
1.46449e-08
-8.94089e-09
-1.81381e-09
8.10593e-09
-1.2314e-08
7.26173e-11
-3.91282e-11
-1.06876e-09
-3.60813e-08
-2.3413e-08
8.3846e-09
3.34618e-10
3.57865e-09
-6.9476e-09
1.14037e-08
6.24269e-09
-5.21572e-10
2.64031e-10
4.21509e-10
-1.63968e-10
5.63497e-09
-4.85699e-09
3.71067e-09
-4.48865e-09
-3.38069e-10
-5.59879e-10
2.29545e-10
5.43986e-10
-4.6696e-10
6.13892e-11
-6.02696e-10
5.36441e-10
-1.83249e-08
2.37136e-09
1.62293e-09
1.43306e-08
1.71219e-10
-6.02275e-10
-9.05154e-11
-4.29239e-09
-1.52307e-08
1.19817e-09
5.62842e-09
1.21402e-08
-5.2445e-09
-1.25241e-08
1.63576e-08
7.70868e-10
-1.58189e-08
-1.30956e-09
-6.00684e-10
3.82133e-10
4.82582e-10
-1.83842e-10
7.93788e-11
1.04464e-10
-7.55856e-09
-3.43834e-09
4.17122e-09
-1.56736e-10
2.55286e-10
-9.85492e-11
1.00161e-09
-1.57191e-08
-7.0147e-10
1.02641e-08
-1.13151e-08
-8.22352e-10
-1.22452e-10
1.30241e-08
4.50261e-09
-4.22289e-09
-1.33039e-08
2.99041e-11
7.26695e-09
-8.06403e-09
6.32554e-09
-1.52558e-09
-9.21317e-09
8.37414e-09
2.3646e-09
-1.99e-09
7.11036e-10
-1.39517e-08
-7.86246e-11
-7.81115e-11
5.0173e-10
5.24017e-10
-9.00629e-09
7.99396e-10
1.72529e-08
-1.69464e-09
-1.17337e-08
1.31371e-08
-1.40333e-09
1.23179e-08
1.39097e-08
-1.54973e-08
-1.07303e-08
-4.19534e-10
8.07557e-10
-3.88023e-10
4.07495e-11
2.10901e-10
-2.51651e-10
-3.64724e-10
9.98853e-10
-6.34129e-10
1.18759e-09
-9.41315e-10
-2.46272e-10
-1.0474e-08
1.04352e-09
9.4305e-09
1.78243e-09
-5.94843e-10
8.98555e-09
-1.54313e-08
8.0924e-09
-9.57879e-09
7.16602e-11
3.54234e-09
-4.1899e-10
-2.16799e-09
2.23965e-09
-6.31527e-09
7.65241e-09
-1.33714e-09
-3.59292e-10
4.32619e-09
-1.01932e-10
1.72453e-08
-1.44767e-08
-1.63669e-09
-6.28283e-09
5.49538e-09
3.9178e-11
-1.64248e-10
5.62898e-09
-5.58853e-09
-4.04549e-11
6.78744e-09
4.60504e-09
-8.17026e-11
-1.58557e-08
1.05075e-08
1.76661e-08
5.85773e-09
8.19665e-09
8.15059e-09
-6.84783e-09
1.4727e-09
-1.19467e-08
3.11859e-12
1.67636e-09
-1.30267e-08
2.65864e-09
-4.18987e-10
1.09343e-08
-1.01635e-08
-3.1373e-10
-6.33349e-10
-1.38395e-08
7.91654e-09
6.39944e-10
1.54809e-11
-8.87225e-09
4.94283e-09
-2.99782e-08
-1.25237e-08
-2.87133e-09
1.55557e-09
1.41447e-08
1.11347e-08
-1.08698e-08
-1.44097e-08
1.53418e-08
-3.20129e-09
-1.21405e-08
1.59242e-09
4.04302e-09
-7.94766e-10
-8.57617e-10
-7.64174e-10
1.04456e-09
5.7723e-10
-1.9743e-10
3.13213e-10
3.05727e-10
6.21477e-08
-6.2174e-08
2.6242e-11
6.2067e-08
-6.23713e-08
3.04369e-10
8.37629e-10
6.47301e-08
-6.55574e-08
8.27365e-10
6.41219e-08
6.08216e-10
-2.23618e-10
-6.65027e-08
9.45292e-10
-6.20638e-08
6.1929e-08
1.34792e-10
1.31441e-09
-6.78171e-08
-6.22236e-08
1.59889e-10
1.28273e-08
-4.72014e-10
1.09406e-09
-3.69581e-09
3.07377e-09
2.5976e-10
-1.12065e-09
8.08047e-10
-4.49709e-10
1.33257e-09
-1.54134e-09
6.58485e-10
1.31528e-09
-1.37021e-09
1.58057e-11
-2.81833e-11
-3.4821e-09
2.58301e-09
-1.8042e-09
2.7033e-09
-2.51678e-10
-2.65821e-09
2.43787e-09
-3.40406e-09
-5.91322e-09
5.47352e-10
-5.39536e-10
1.06855e-09
1.07206e-09
-6.39183e-09
7.82919e-09
3.16769e-09
1.97144e-08
-4.37257e-09
-6.33711e-10
2.71996e-10
9.09067e-10
-1.00607e-08
-2.60207e-08
5.20403e-09
-4.14764e-09
-3.21628e-09
2.15988e-09
8.09067e-11
2.6268e-11
2.75804e-10
-2.4368e-09
3.25237e-09
9.05888e-09
6.40375e-10
-6.95997e-11
2.02024e-09
-2.20232e-09
1.65498e-09
1.46991e-08
1.33553e-08
-2.69189e-08
3.27264e-08
6.3063e-09
-2.28623e-08
-1.03628e-08
1.85845e-08
-1.80766e-08
1.06268e-08
2.35583e-11
-2.7997e-10
-1.1138e-09
-1.59514e-09
-2.76374e-09
3.05195e-09
1.52266e-08
-6.54919e-10
-1.38607e-08
-1.00481e-09
-2.0853e-09
4.31897e-10
1.54923e-08
1.77913e-08
1.36867e-08
7.8376e-10
-1.7583e-09
-1.27122e-08
-1.35893e-09
5.98638e-09
1.26662e-08
-3.59862e-10
-9.42987e-10
-3.69989e-09
2.83326e-09
3.44963e-09
2.52287e-09
1.46259e-08
4.35402e-09
-1.44773e-08
1.81902e-08
-1.76539e-09
2.28128e-09
-3.2494e-09
1.93503e-09
-4.9732e-09
1.29105e-08
-1.1912e-08
-1.40585e-08
2.90808e-10
8.79453e-09
-1.74999e-09
1.46054e-09
1.358e-09
-8.66933e-09
6.84633e-10
-4.53903e-09
-5.98718e-09
1.21656e-08
-1.48478e-08
9.28729e-10
1.69458e-09
-2.20153e-09
1.69153e-08
-1.64083e-08
-1.17687e-09
1.42087e-08
3.14861e-09
-4.53049e-09
-1.40494e-08
7.61789e-09
-1.75132e-08
-8.18132e-09
6.98294e-09
5.89428e-09
1.4718e-08
-1.01937e-08
2.98353e-09
9.57479e-09
9.78173e-09
3.90519e-09
-4.2553e-09
2.18665e-08
-1.93457e-08
5.09705e-09
-1.07707e-08
2.1694e-09
5.74041e-09
1.40727e-08
-4.28247e-10
1.28392e-08
-1.35878e-08
-1.94614e-09
1.46206e-09
-4.55491e-10
9.39568e-10
1.11258e-08
-6.35674e-09
7.37111e-09
-1.11643e-08
1.47774e-09
-4.73931e-09
1.15736e-08
-1.20788e-08
-7.59849e-09
9.28852e-09
9.43578e-09
1.30033e-08
4.7905e-10
-1.39106e-08
1.3526e-09
7.64021e-10
-1.12094e-08
-6.72182e-09
1.03328e-08
-1.23677e-09
2.50633e-09
-9.02979e-09
4.75297e-09
-5.37808e-09
1.17194e-08
-3.45613e-09
-1.19476e-08
3.68435e-09
-4.44913e-09
1.14292e-08
1.72009e-09
1.09306e-09
-5.09165e-09
-1.79468e-08
1.06006e-08
1.24378e-08
6.83771e-10
-1.11476e-08
-1.00977e-08
1.61536e-08
1.27285e-08
2.89645e-09
-9.88456e-09
-1.33602e-08
-3.21503e-10
-1.27554e-08
1.76589e-10
-7.70589e-10
1.18221e-08
1.25568e-08
-8.23629e-09
1.6785e-08
-1.61341e-08
3.70307e-09
-5.34406e-10
1.82742e-09
1.30376e-08
-3.94429e-09
-1.28027e-08
-4.90768e-09
2.01511e-09
4.56892e-09
1.24695e-08
-7.23698e-09
1.02817e-09
-1.70392e-09
2.74648e-10
-5.16861e-10
6.00369e-09
2.64897e-08
8.58872e-11
-8.96247e-09
8.87658e-09
2.87061e-08
-2.24506e-08
2.21343e-08
1.98477e-08
-1.27176e-08
-2.74575e-09
1.5189e-08
1.32625e-10
-1.21487e-08
-4.74036e-10
-5.99257e-09
-1.8172e-09
2.12519e-09
1.4121e-09
-5.9432e-10
-1.1224e-08
1.16966e-08
1.21663e-10
2.9053e-09
-4.8708e-09
-1.12928e-08
1.08202e-08
-9.4368e-10
-1.09912e-08
-3.118e-10
-1.15039e-08
-2.36862e-09
-1.21643e-08
2.12983e-09
7.87303e-09
5.16609e-09
-6.35826e-10
-1.18291e-08
1.18706e-08
5.26367e-10
-8.97588e-09
5.08307e-09
-1.61841e-09
2.02809e-09
-1.7169e-09
-1.30681e-08
-1.23268e-08
1.17768e-08
-1.01317e-08
-1.58435e-08
1.01195e-08
9.31624e-09
7.77223e-10
2.78266e-09
-1.17451e-08
1.16378e-08
1.66206e-09
3.85129e-09
2.47829e-10
-4.25194e-10
-1.60703e-10
-4.16748e-09
2.44503e-09
-3.62852e-10
1.26495e-10
-1.49541e-10
2.30466e-11
-2.73757e-09
1.3206e-08
2.26006e-09
2.51444e-09
4.40627e-10
-1.20049e-09
-6.74612e-10
-2.18392e-09
-1.30375e-10
1.31625e-08
1.02223e-08
-2.71784e-10
6.68493e-09
-1.25757e-09
-5.15557e-09
-9.87926e-09
-5.17108e-09
9.4473e-11
3.20221e-11
4.84361e-09
1.37186e-09
-1.7363e-08
-2.42594e-10
-6.77147e-10
-2.77543e-09
1.03054e-09
3.28096e-09
6.19504e-08
-8.56775e-11
-6.18647e-08
6.23746e-08
1.88868e-10
-6.25635e-08
-1.4094e-08
-3.91187e-10
1.442e-08
6.52746e-11
3.28726e-09
-1.67064e-09
2.37647e-09
1.8005e-09
-4.5748e-09
-1.99498e-10
-4.59605e-10
3.73567e-10
-7.79298e-11
3.43696e-10
-2.20754e-10
1.98233e-08
9.94498e-10
-1.59741e-08
-8.23958e-11
-1.95247e-09
1.2684e-08
2.30602e-09
1.83037e-09
5.34239e-09
-2.14656e-09
-7.72313e-08
-2.41785e-08
-5.08801e-09
1.58395e-08
2.5144e-09
1.9659e-10
-2.74336e-09
-9.35095e-10
1.64439e-10
-1.72331e-10
-9.44658e-09
-3.73556e-10
9.82013e-09
-1.09587e-08
-6.54508e-09
1.0782e-08
-9.56377e-09
8.73064e-09
3.33785e-10
1.32487e-09
9.0302e-09
-9.03932e-09
9.11546e-12
5.24419e-10
8.77729e-11
1.09979e-08
3.86959e-10
-6.09455e-10
8.14531e-12
-1.4259e-08
-4.16375e-10
-1.38969e-08
1.28394e-08
-1.19436e-08
-6.60358e-08
6.4994e-08
1.04184e-09
1.71863e-10
-1.45595e-10
1.21791e-08
-1.54527e-10
4.98617e-12
-2.14761e-09
2.74588e-09
-3.40127e-09
-1.34654e-08
-1.62671e-09
2.57884e-09
-4.62503e-09
-1.42189e-08
1.48089e-09
5.5221e-09
9.78332e-09
-9.15549e-09
-1.74945e-10
2.04182e-11
-9.27219e-09
-1.35299e-08
1.50971e-10
-6.26937e-08
2.36384e-10
6.24573e-08
6.95428e-10
6.34264e-08
-2.23533e-10
-1.71472e-09
-1.45148e-08
1.07933e-10
-6.34099e-08
6.33019e-08
1.83287e-10
-6.29516e-08
6.27683e-08
2.72722e-10
6.17968e-08
1.50355e-10
-6.19471e-08
6.1628e-08
1.68794e-10
-8.78886e-08
8.84977e-08
-9.14948e-13
9.33921e-08
-9.30986e-08
-2.67259e-10
-8.66282e-08
-4.3306e-10
9.33511e-08
-1.8266e-10
-8.49156e-08
-7.67332e-10
9.34818e-08
1.73753e-10
-5.22305e-10
1.96169e-09
9.23577e-08
-6.93086e-08
6.21376e-08
-6.23183e-08
-6.29496e-08
6.14856e-08
1.42377e-10
-3.18708e-09
2.97417e-09
-1.42644e-08
3.6978e-11
5.74952e-11
9.4245e-10
8.68166e-09
-1.13911e-08
3.8346e-08
-3.45793e-08
-1.67934e-08
1.3827e-08
-2.57012e-11
-1.88704e-10
1.0081e-10
4.78275e-10
-1.03943e-10
2.8008e-10
4.36136e-09
1.06351e-09
-3.48983e-09
-1.02131e-10
1.35434e-10
-6.69502e-11
-2.62098e-09
1.33549e-08
2.47211e-09
-1.4418e-08
-2.62174e-09
-3.20168e-09
5.46468e-09
1.05656e-09
-2.59568e-09
1.44081e-08
-1.21182e-09
-1.33985e-09
1.20077e-09
-8.14388e-09
-1.9091e-08
-1.3542e-08
8.08389e-09
5.74887e-09
-1.64281e-10
-5.83217e-10
2.87269e-09
1.4501e-08
2.29539e-09
-1.88023e-09
-3.40503e-10
3.90711e-10
-2.14455e-10
1.58775e-08
-6.1591e-10
-1.56351e-08
6.10243e-10
2.20185e-10
3.43345e-10
-2.84802e-10
3.34483e-09
-1.61009e-08
3.80914e-10
-1.42834e-09
-2.00674e-09
-2.26926e-09
1.58272e-08
-9.0591e-08
-1.39081e-10
9.16782e-08
-1.90441e-10
-8.91636e-08
-4.76801e-10
9.31012e-08
-2.75193e-10
-9.29117e-08
-5.22726e-10
-1.50046e-09
1.69381e-08
9.19795e-08
-1.96635e-10
2.95169e-11
-2.20882e-10
9.62612e-09
2.35031e-09
-7.02341e-09
-1.23387e-08
-5.67518e-09
8.35814e-09
1.53953e-09
-6.72998e-09
-5.97068e-09
9.06646e-09
-2.93842e-11
1.01161e-08
1.94964e-08
-1.7984e-08
3.09119e-09
-1.28476e-08
3.13605e-09
-6.99574e-08
3.92161e-09
-2.05995e-08
-1.30374e-08
-4.29887e-10
-5.91494e-09
-1.5318e-08
9.08418e-09
-1.5057e-08
3.60199e-10
3.05317e-10
-1.9684e-09
-1.68127e-08
1.71977e-08
6.95271e-09
-7.57834e-09
-4.25012e-09
1.53614e-08
-1.69377e-09
7.40486e-10
-6.82821e-10
-1.57682e-12
1.1965e-08
3.3136e-09
7.09116e-08
-1.82359e-08
6.27935e-10
-1.51212e-08
-2.04914e-10
-2.34138e-10
-1.59377e-10
6.09482e-08
-6.12234e-08
-6.33804e-08
-6.31482e-08
-6.42032e-11
-2.62187e-10
-9.25853e-08
-6.04511e-08
6.24128e-08
6.5104e-08
-6.02774e-08
6.45817e-08
-6.046e-08
6.38143e-08
-6.07273e-08
6.33813e-08
9.23082e-08
2.33396e-10
-6.32923e-09
7.51309e-08
-6.54881e-08
1.92297e-11
-1.92297e-11
-1.49098e-10
-2.92705e-10
1.54737e-08
2.26994e-12
-2.26994e-12
2.65342e-10
1.51271e-09
1.39161e-08
1.34861e-08
-2.70141e-09
3.71204e-09
6.74668e-09
1.68435e-09
3.25377e-10
-2.17078e-10
-2.95705e-09
1.45691e-08
1.48411e-08
-4.29361e-09
1.18209e-08
1.49013e-10
1.21362e-10
2.62938e-09
-7.33587e-10
-1.43641e-09
-5.85822e-09
-1.86605e-10
-3.58422e-10
1.53145e-08
2.05449e-10
3.21744e-11
1.41746e-08
-2.62904e-08
1.79019e-08
2.71648e-09
1.16875e-09
2.50009e-09
-3.7223e-09
1.94417e-08
-1.82195e-08
-5.93946e-11
-8.78128e-11
-1.4413e-09
-7.92143e-08
-7.07499e-08
1.18113e-09
-2.58638e-10
5.88752e-10
2.30161e-08
1.86147e-08
-6.45278e-09
7.83229e-11
-4.17734e-09
-2.52503e-09
2.99655e-08
1.61773e-10
1.48185e-08
7.35781e-08
3.16538e-11
4.96365e-10
-1.27885e-10
-1.84365e-10
-3.53282e-09
2.43681e-08
-1.48676e-08
8.3468e-10
-1.4208e-08
-3.8266e-11
2.04104e-08
-2.87747e-08
9.69909e-10
1.81101e-09
-1.3669e-10
)
;

boundaryField
{
    back
    {
        type            empty;
        value           nonuniform 0();
    }
    ingreso
    {
        type            calculated;
        value           nonuniform List<scalar> 
14
(
-1.54286e-08
-1.54288e-08
-1.54288e-08
-1.54288e-08
-1.54286e-08
-1.54283e-08
-1.54288e-08
-1.54288e-08
-1.54286e-08
-1.54286e-08
-1.54288e-08
-1.5428e-08
-1.5428e-08
-1.54286e-08
)
;
    }
    salida
    {
        type            calculated;
        value           nonuniform List<scalar> 2(1.0141e-07 1.1459e-07);
    }
    front
    {
        type            empty;
        value           nonuniform 0();
    }
    defaultFaces
    {
        type            calculated;
        value           uniform 0;
    }
}


// ************************************************************************* //
