/*--------------------------------*- C++ -*----------------------------------*\
  =========                 |
  \\      /  F ield         | OpenFOAM: The Open Source CFD Toolbox
   \\    /   O peration     | Website:  https://openfoam.org
    \\  /    A nd           | Version:  7
     \\/     M anipulation  |
\*---------------------------------------------------------------------------*/
FoamFile
{
    version     2.0;
    format      ascii;
    class       volVectorField;
    location    "82";
    object      U;
}
// * * * * * * * * * * * * * * * * * * * * * * * * * * * * * * * * * * * * * //

dimensions      [0 1 -1 0 0 0 0];

internalField   nonuniform List<vector> 
591
(
(0.000833013 -1.65973e-05 1.21724e-18)
(0.000825548 -1.59131e-05 -6.632e-19)
(0.000856588 4.27063e-06 5.71088e-20)
(0.000863402 -1.69921e-05 -1.49073e-19)
(0.00084893 -3.03093e-06 2.25525e-19)
(0.000803074 -3.99956e-05 -1.39602e-19)
(0.000565008 -0.000261699 8.06168e-19)
(0.000803875 4.50385e-06 2.09648e-18)
(0.00573107 0.00250663 9.87903e-19)
(0.000806187 -8.9004e-06 2.45085e-18)
(4.75668e-05 0.00016573 1.21812e-18)
(0.000935866 0.00138479 9.40761e-21)
(0.000800384 4.29958e-06 1.32454e-18)
(0.00159991 0.00239918 -7.87461e-19)
(0.000803405 1.84945e-06 -4.45417e-19)
(5.39528e-05 -0.000180813 2.2441e-22)
(0.000138746 0.000674993 7.04882e-19)
(0.000818033 7.35364e-05 -4.97415e-19)
(0.00191267 0.000393477 4.73891e-19)
(0.00135982 0.000253106 -2.47079e-19)
(0.000832879 -7.52343e-06 3.73171e-19)
(0.00340007 0.00655945 -8.15124e-20)
(2.54071e-05 6.73712e-05 2.70914e-19)
(0.000835988 -2.09639e-05 -4.51377e-19)
(8.91839e-06 -1.38058e-05 3.58879e-19)
(0.000781751 3.70718e-05 0)
(9.38561e-05 0.000471143 1.59951e-19)
(0.00055691 4.82298e-06 -1.78816e-19)
(0.000758326 4.67679e-05 1.14935e-18)
(0.000809067 6.10768e-05 5.86633e-19)
(5.37798e-05 -4.53435e-06 -4.77246e-24)
(2.76863e-05 -4.31694e-05 3.5213e-19)
(3.28125e-05 -2.82241e-06 -4.64163e-20)
(4.19193e-05 -1.21157e-05 0)
(5.08952e-05 -1.29938e-05 1.13131e-18)
(0.00117348 0.000135445 1.79899e-19)
(2.77998e-05 -4.81704e-06 4.47086e-20)
(0.000825448 1.84571e-06 3.15301e-23)
(2.52992e-05 4.12835e-05 2.65995e-19)
(3.28184e-06 -8.29767e-05 -8.54413e-19)
(0.000649737 -0.000201108 9.59386e-19)
(2.1978e-05 -5.89957e-06 4.54765e-20)
(0.000807143 8.28056e-06 -1.58069e-18)
(0.000832044 4.66727e-05 -6.91062e-19)
(1.4633e-05 -6.81342e-06 0)
(5.18735e-05 5.52885e-06 8.51761e-20)
(0.00134727 0.00450217 8.92911e-19)
(7.24529e-05 1.34908e-05 8.63513e-20)
(0.00080157 1.6222e-05 0)
(0.000388161 -0.000220039 6.77301e-19)
(0.000385496 0.000270319 5.11855e-21)
(0.000398352 4.17426e-05 -1.00366e-18)
(0.00634804 0.0109411 -7.68534e-19)
(0.0062247 0.0107962 1.52783e-20)
(0.00561426 0.0103789 1.45582e-18)
(0.000807471 3.72878e-05 0)
(6.43539e-05 2.83983e-05 0)
(0.00031824 5.21945e-06 1.92784e-23)
(5.97325e-05 8.75298e-06 -3.46414e-19)
(0.000813538 -7.67576e-06 0)
(0.000648227 2.88408e-05 3.1752e-19)
(0.000839423 1.75836e-05 2.2073e-18)
(0.000805766 3.45787e-05 -5.391e-19)
(0.000799957 1.3152e-05 -3.15711e-19)
(0.0017125 0.000489097 5.4274e-19)
(0.000804234 2.28961e-05 -1.15067e-18)
(0.000833035 2.72305e-05 -5.24194e-19)
(7.59788e-05 -4.68397e-06 -1.73389e-19)
(0.000688866 0.00226121 0)
(0.000841404 4.37051e-05 0)
(0.000784686 2.00278e-05 -1.39281e-18)
(3.60008e-05 1.47478e-05 0)
(0.000290783 0.000267336 3.26808e-19)
(3.66452e-05 -1.63912e-05 0)
(3.83028e-05 -5.70906e-06 1.59452e-19)
(1.09285e-05 -4.01375e-05 -3.36624e-20)
(0.000796424 7.80281e-05 2.46883e-19)
(4.18485e-05 9.56678e-06 0)
(0.000805885 5.56862e-05 4.4743e-19)
(0.000777056 0.000293792 2.10701e-19)
(0.000963023 6.49135e-05 -3.97862e-20)
(4.07959e-05 2.13521e-05 -4.51804e-20)
(4.69953e-06 -1.75072e-05 0)
(0.000437847 0.000213935 1.70165e-19)
(2.79926e-06 1.96265e-05 0)
(0.000799698 4.17751e-05 -6.06628e-19)
(0.000625793 -0.000118953 0)
(6.10472e-05 -3.11634e-06 -1.74457e-19)
(2.16506e-06 -2.40584e-05 0)
(0.000832132 0.00024077 -3.41216e-19)
(2.94998e-06 -1.02055e-05 0)
(0.000427296 0.000321809 -1.32251e-23)
(0.000536558 0.000110036 0)
(0.000811518 4.34648e-05 -3.01125e-24)
(2.46417e-06 1.21211e-05 -4.21658e-20)
(0.000462492 -1.99275e-05 1.7633e-18)
(0.00102155 7.2399e-05 4.15963e-20)
(0.00080884 4.57547e-05 6.41321e-22)
(0.00074299 0.00065843 2.69468e-19)
(6.86985e-06 4.40087e-05 0)
(-3.05084e-06 -3.28651e-05 -3.12099e-19)
(-2.99739e-05 -5.21403e-05 -1.10142e-18)
(4.60067e-06 7.13697e-05 -5.9629e-19)
(0.000606366 -2.46942e-05 0)
(8.71245e-06 9.54462e-05 0)
(0.00081615 2.97191e-05 2.18223e-18)
(0.000793727 2.94463e-05 1.53408e-18)
(0.000436636 -9.55505e-05 0)
(4.05816e-05 0.000213388 -8.95261e-19)
(4.03012e-07 0.000160141 4.9672e-19)
(5.88149e-05 0.000400583 6.25182e-19)
(0.000308225 7.48774e-05 -9.37038e-19)
(0.000802313 2.01316e-05 1.37392e-19)
(0.000259412 -5.51277e-05 5.31153e-19)
(4.24423e-06 2.86088e-05 0)
(1.99633e-05 0.000278027 -1.09391e-18)
(0.000323007 0.000321446 -1.61685e-19)
(-5.56331e-07 -2.6571e-05 1.46528e-19)
(0.000670027 0.000811096 0)
(0.0003711 0.000384854 5.74347e-20)
(0.000820168 2.22469e-05 1.07038e-18)
(0.000799647 1.67461e-06 -2.7229e-18)
(5.37886e-06 -1.7001e-05 0)
(0.00066522 -3.71693e-05 -1.12298e-19)
(0.000322182 -0.000130659 1.24306e-18)
(0.00263438 0.000809883 -3.36442e-19)
(6.86287e-06 0.000125157 -6.13137e-19)
(6.81946e-06 0.000153501 1.61939e-18)
(0.000684049 2.39573e-05 -3.89823e-20)
(5.90971e-05 -1.49847e-05 -7.50066e-19)
(0.000809097 3.37415e-05 -3.86926e-19)
(0.000733466 2.67608e-05 -4.10421e-20)
(3.39135e-05 0.000324251 -5.97018e-19)
(0.000493869 5.95332e-05 -4.9387e-19)
(4.51318e-05 -3.83537e-06 1.56132e-19)
(0.000837694 3.4661e-05 -1.09157e-18)
(0.00154369 0.000235666 -1.13694e-18)
(4.75115e-06 5.74476e-05 4.96367e-19)
(0.00081134 3.30464e-05 -4.98286e-19)
(0.000918601 0.000547937 -7.85006e-20)
(0.00014811 0.000784423 0)
(0.00059054 6.377e-05 0)
(0.000276809 4.76978e-05 -1.60941e-18)
(6.10437e-05 5.54174e-05 -1.37392e-18)
(2.89053e-05 1.90378e-05 0)
(0.0042472 0.00740014 -1.01955e-20)
(0.00422546 0.00737201 3.16465e-20)
(0.00442766 0.00757479 -4.96557e-21)
(0.0042063 0.00773414 0)
(0.00419874 0.00759995 5.77216e-19)
(0.00424428 0.00740144 -9.19941e-20)
(0.00421 0.00804167 4.84445e-19)
(0.00428975 0.00742232 0)
(0.00420826 0.00853471 6.16748e-19)
(0.00432627 0.00745085 2.23897e-19)
(0.000829152 1.39629e-05 -1.37334e-18)
(0.000776075 5.69711e-05 0)
(0.000212067 4.59769e-05 1.27683e-19)
(4.75233e-05 1.4067e-05 8.71732e-20)
(7.5138e-05 4.13638e-05 6.79933e-19)
(0.0001023 3.68941e-05 -3.41625e-19)
(9.55069e-05 1.61033e-06 0)
(4.49752e-05 3.81662e-06 8.18264e-20)
(0.00020697 0.00012687 0)
(0.000162853 3.52776e-05 -5.24243e-20)
(0.000345626 0.000218661 -5.09197e-21)
(5.34912e-05 4.01476e-05 -4.37598e-19)
(8.7093e-05 2.34954e-05 -8.52362e-20)
(8.77519e-05 5.79006e-05 1.31178e-21)
(0.000258597 0.000363065 -6.661e-19)
(0.000108654 0.000995437 0)
(4.02014e-05 4.98288e-05 3.43018e-19)
(0.000198515 0.00174685 0)
(0.000208257 0.00024979 7.04581e-19)
(3.43292e-05 -3.34187e-06 1.1148e-19)
(0.000488462 0.000161817 -1.72281e-19)
(0.000767915 2.44424e-05 -1.92389e-18)
(3.9602e-05 -1.53028e-06 4.68637e-24)
(0.000144134 1.88463e-05 2.24563e-19)
(0.000245297 8.60996e-05 -8.9922e-20)
(0.00088192 0.00069963 3.34904e-19)
(0.000726625 0.00163444 -9.23431e-21)
(0.000399727 0.00142099 -9.39096e-21)
(0.00102728 0.000546313 0)
(9.64147e-05 -1.82973e-05 1.11856e-18)
(0.00011122 1.03841e-05 -4.43005e-20)
(0.000464331 -0.000281961 -1.13607e-18)
(0.00081975 4.16636e-05 0)
(0.000178632 -7.21055e-06 3.63261e-19)
(0.000302352 0.00130286 0)
(0.00108571 0.000775173 -7.30115e-20)
(0.000827174 3.1051e-05 -1.86531e-19)
(7.13655e-05 -2.26283e-05 -2.9994e-19)
(0.000835439 0.000317009 -2.08021e-20)
(5.0545e-05 -2.12993e-05 -5.99414e-19)
(0.000226943 0.000170743 8.6378e-20)
(0.000230869 0.000306686 -3.44972e-19)
(0.000891773 0.000250442 0)
(0.000820832 5.45332e-05 0)
(0.000265184 0.000129479 1.76827e-19)
(0.000233219 -7.48054e-06 5.33128e-24)
(0.000184674 0.000201954 0)
(0.000301458 0.000649736 -5.55641e-21)
(0.00035451 -1.71912e-05 0)
(0.000378511 0.000598762 0)
(0.000106261 7.7727e-05 -1.34653e-21)
(0.000810556 3.08065e-05 -9.56015e-19)
(0.000806453 1.91697e-05 7.97841e-19)
(0.000126001 5.21897e-05 -1.49837e-19)
(0.000965419 0.000147423 8.50345e-20)
(0.000839456 4.08968e-05 3.33392e-19)
(0.000819887 3.10067e-05 -2.94075e-19)
(0.001027 0.000417771 0)
(0.000443175 0.000114407 6.24357e-19)
(0.000905488 0.000322092 2.09112e-20)
(0.00058477 0.000153179 0)
(0.000273002 0.000446118 4.09597e-19)
(0.000262317 0.000212812 -8.44081e-20)
(0.00109914 0.000381202 -7.82033e-19)
(0.000631972 0.000103097 -1.79268e-19)
(0.000815901 7.42601e-05 -7.45712e-21)
(0.000843602 2.68136e-05 9.40061e-20)
(6.54922e-05 -8.66268e-05 -1.98113e-18)
(0.00074274 0.000380489 2.19209e-19)
(0.000676871 6.61751e-05 2.30608e-20)
(0.000711787 0.000279339 1.61153e-23)
(0.00073503 0.00046076 -4.09642e-19)
(0.000849638 2.29077e-05 9.0696e-20)
(6.98342e-05 7.57216e-05 0)
(0.000660231 0.000422283 -4.65864e-20)
(0.00018264 8.93612e-05 0)
(0.000374524 0.000501748 -2.6481e-19)
(0.000310887 0.000162751 0)
(0.000679863 0.000205375 3.5518e-19)
(0.000654732 0.000259552 -4.37197e-20)
(8.03249e-05 0.000100626 6.19079e-19)
(0.000880144 9.54782e-05 -1.63385e-18)
(5.47589e-05 1.98165e-05 2.57158e-19)
(0.00089241 7.22116e-05 -1.68606e-18)
(0.000844791 8.99586e-05 1.62998e-19)
(0.000812174 3.49577e-05 1.90854e-18)
(0.000819783 3.37701e-05 -1.32831e-19)
(0.000741377 7.13972e-05 0)
(0.000805736 2.22002e-05 8.95497e-19)
(0.00096668 0.000233492 -4.27042e-19)
(0.000780869 9.74245e-05 -4.83672e-19)
(0.000781046 0.000234748 -8.81105e-20)
(0.000204341 -0.000180607 -2.07672e-18)
(0.000755029 8.01882e-05 8.87419e-19)
(0.000642004 0.000593984 0)
(7.4423e-05 -0.000120174 0)
(0.00122629 0.000473385 4.97223e-19)
(0.000588266 -5.96401e-05 -3.27054e-18)
(0.00135019 0.000414808 5.7642e-19)
(0.00124901 0.000718032 -6.38873e-20)
(0.00081481 3.23262e-05 -2.12484e-19)
(0.000840003 6.69222e-05 -1.42663e-18)
(0.00081504 2.73635e-05 1.58753e-18)
(0.000816701 2.42959e-05 9.78086e-20)
(0.000672379 0.000353211 -4.40348e-20)
(0.000100195 0.000118301 7.04925e-24)
(0.000758396 -3.45811e-05 2.65014e-19)
(0.000212345 -0.000263837 -7.31712e-19)
(0.000631187 0.000184461 0)
(0.000717114 4.89443e-05 9.90259e-20)
(0.000706657 9.60175e-06 -3.80758e-19)
(0.000392778 0.000167195 3.93315e-20)
(0.000809943 0.000508614 -1.65456e-19)
(0.000146787 7.01064e-05 3.56863e-25)
(0.000815481 0.000413126 0)
(0.000984486 0.000316633 4.15714e-20)
(0.000763319 -6.92639e-05 -6.1599e-19)
(0.000351598 9.99299e-05 4.97753e-19)
(0.000904494 0.000427232 0)
(4.68295e-05 2.90918e-05 1.33693e-19)
(0.000489018 0.00026475 2.13923e-19)
(0.000527661 -0.000161919 -7.09377e-19)
(0.000112902 -0.000169374 -1.05566e-18)
(0.000825839 3.65546e-05 -4.86698e-19)
(0.000768358 -7.58563e-05 -1.94332e-19)
(0.000547712 0.00072971 -1.17425e-18)
(0.000851653 4.71354e-05 -6.74474e-20)
(0.000597494 -1.69027e-05 1.28084e-18)
(0.000711221 9.95964e-05 2.27748e-20)
(0.000537677 0.0002067 -1.65664e-19)
(2.75946e-05 -2.02994e-05 -8.75723e-20)
(0.000159268 -5.18964e-05 2.40573e-18)
(1.52766e-05 6.32384e-07 -1.94821e-19)
(0.00083539 0.000116613 3.63694e-19)
(0.00067237 0.000135524 0)
(0.000178953 -9.81701e-05 -1.04802e-18)
(0.000116496 -2.28736e-05 3.12809e-19)
(0.000100743 -3.85603e-05 1.32507e-23)
(0.000803973 0.000105324 -3.19217e-19)
(0.000149204 -1.77353e-05 0)
(0.00059018 0.000240284 0)
(0.000111326 0.000326236 -3.62808e-19)
(0.000864972 0.000101 2.10486e-18)
(1.24386e-05 9.08245e-07 0)
(0.00088368 5.31596e-05 0)
(3.94956e-05 -2.54203e-05 0)
(0.00081539 4.78152e-05 -4.46742e-21)
(0.000786875 -3.8166e-05 0)
(0.0042602 0.00740663 8.06926e-20)
(0.00436216 0.00748678 1.43344e-19)
(0.000843598 -1.10541e-05 0)
(0.000792469 -4.19578e-05 8.12057e-19)
(0.000152142 0.000120245 1.4919e-19)
(0.000857498 6.73503e-05 8.07711e-19)
(0.000128283 9.72921e-05 2.34365e-20)
(0.000785399 -2.54409e-05 6.2426e-19)
(3.27622e-05 8.76751e-06 0)
(2.54094e-05 -1.25026e-05 -4.48417e-20)
(0.00090195 4.85009e-05 -4.86481e-19)
(2.90734e-05 -3.0259e-05 -6.69709e-19)
(0.000762353 0.000123855 -4.23178e-20)
(0.000168754 0.000158032 -1.88076e-19)
(0.000814568 3.01093e-05 0)
(0.00468248 0.00815357 9.00375e-22)
(0.000186565 0.00079002 3.3344e-19)
(0.000108239 -6.30047e-05 -9.14399e-19)
(5.56361e-05 -3.49633e-05 -1.16861e-18)
(0.00061777 1.3361e-05 1.89815e-20)
(0.000582992 0.000406208 0)
(0.000421839 0.000444315 -2.563e-19)
(7.52931e-05 -6.22071e-05 1.18355e-18)
(0.000576832 -3.10411e-07 7.6921e-20)
(3.9489e-05 1.45688e-06 4.07037e-19)
(0.000711896 -4.77923e-05 1.17145e-18)
(0.000812078 3.27445e-05 -6.03454e-19)
(5.73531e-05 -5.47563e-05 1.70912e-18)
(0.000842074 -3.23857e-05 -5.91043e-24)
(0.00059419 6.6293e-06 -3.76001e-20)
(0.000871728 7.10275e-05 0)
(0.00084295 4.44693e-05 0)
(0.00591722 0.00724227 2.5971e-19)
(1.58149e-05 -2.63991e-06 -1.19571e-19)
(0.000111647 -0.000108516 7.72902e-19)
(0.000730459 0.000116182 -6.96335e-19)
(1.86415e-05 1.15414e-07 2.01501e-19)
(0.000635319 -3.61941e-05 -7.23704e-19)
(0.000748547 3.62887e-05 1.55781e-18)
(0.000709032 0.000158933 -3.55388e-19)
(0.000807597 -1.22442e-05 3.60817e-19)
(7.00314e-05 -3.54452e-05 1.11583e-18)
(0.000800757 6.61955e-06 -3.22642e-19)
(0.000869872 3.95303e-05 0)
(0.000545266 0.000302771 4.20961e-20)
(0.000861929 5.08389e-05 -9.47008e-19)
(1.64841e-05 2.67226e-06 9.11255e-19)
(0.000856992 4.46734e-05 9.65623e-19)
(0.000859903 1.62378e-05 -9.64519e-19)
(0.000757428 -1.61541e-06 -5.69088e-19)
(0.000532628 -7.75517e-05 -5.25569e-19)
(0.00432924 0.00745308 2.4703e-19)
(0.00422338 0.00752881 -2.5346e-19)
(0.00422113 0.00758666 2.66897e-19)
(0.00425595 0.00741067 1.97946e-19)
(0.000844965 -3.24102e-05 1.44252e-19)
(0.00447629 0.00751325 0)
(0.00440374 0.00751742 -3.86832e-19)
(2.59281e-05 -1.26497e-07 -9.98035e-19)
(0.0041705 0.00746912 -6.33597e-20)
(0.00414589 0.00743229 -2.21491e-19)
(0.00602939 0.0106056 0)
(0.00654042 0.0111873 3.7137e-20)
(0.00600933 0.0105753 0)
(0.00655612 0.0112109 1.30858e-19)
(0.00599667 0.0105993 2.69672e-19)
(0.00659281 0.0112278 1.24579e-20)
(0.0059354 0.0106121 -7.76731e-19)
(0.00662308 0.0111467 8.14782e-21)
(0.00390363 0.00919855 -1.90823e-19)
(0.00418676 0.00748813 3.89964e-21)
(0.00423792 0.00755218 7.93529e-20)
(0.00415038 0.0074346 4.11993e-20)
(0.000886019 0.000193915 4.46676e-20)
(8.72636e-06 1.2328e-06 0)
(0.000713335 -0.000113521 0)
(0.000660129 5.38837e-05 0)
(0.0024438 0.00111338 4.23091e-21)
(0.000756885 -3.12738e-05 1.72555e-19)
(3.80699e-05 5.08437e-06 4.53996e-20)
(8.12012e-06 -2.48727e-05 1.65284e-18)
(0.00085543 1.06961e-05 0)
(2.62319e-05 1.16907e-05 -1.91702e-19)
(0.00013959 0.000220213 0)
(1.49063e-05 -9.30152e-07 0)
(1.19131e-05 -1.15631e-06 0)
(0.000828963 0.000143605 1.13736e-20)
(0.000811029 -1.81455e-05 1.79478e-19)
(3.73942e-05 0.000266387 -1.36339e-23)
(0.000157091 0.000270496 -1.84171e-18)
(0.000606442 0.000327747 -8.56895e-20)
(0.000898535 0.000110324 6.01342e-19)
(0.000635019 -0.000187703 6.73875e-19)
(0.000361013 0.00111153 0)
(0.00047663 0.000575379 2.71498e-18)
(8.93996e-05 0.000142749 -1.80293e-18)
(1.89023e-05 -8.32266e-08 0)
(0.000822115 -6.10418e-05 3.64093e-20)
(1.52813e-05 3.41199e-05 1.64428e-18)
(0.000897488 3.38498e-05 2.71124e-19)
(-2.52423e-05 3.80775e-05 3.80992e-18)
(0.00092869 4.05477e-05 -2.68992e-19)
(0.00134205 0.000151158 7.47124e-19)
(3.24978e-05 -1.02083e-05 8.25601e-20)
(3.40943e-05 3.10414e-06 -8.59002e-19)
(5.07886e-05 0.00013927 0)
(0.000913972 8.39128e-05 5.98451e-19)
(0.00049581 0.000367622 2.37117e-19)
(0.000641941 1.7634e-05 -3.89066e-20)
(0.000781919 -8.27417e-07 2.57359e-19)
(0.000734019 -0.000164034 0)
(0.00632119 0.010896 -1.68055e-19)
(0.00637895 0.0109737 4.05819e-19)
(0.00616017 0.0107308 -6.18424e-19)
(0.00650145 0.0111326 -8.09762e-20)
(3.32493e-05 0.000116283 8.00441e-19)
(0.000924432 6.05689e-05 1.45136e-22)
(0.00641152 0.0110062 -3.86447e-19)
(0.00628214 0.0108457 5.48452e-19)
(0.00608028 0.0106725 -4.1682e-19)
(0.00652195 0.0111651 -6.81367e-20)
(7.96289e-05 0.000499822 -2.01793e-20)
(6.72876e-05 -0.000199411 -7.92696e-19)
(0.000658276 -2.06163e-05 -7.65659e-19)
(0.000726856 0.00021989 0)
(0.00080023 2.56031e-07 0)
(0.000187395 0.000388842 3.36263e-19)
(0.00060001 0.000512443 -5.4181e-19)
(7.96554e-06 -1.37422e-06 1.78374e-19)
(0.000200375 0.00046732 -7.38318e-19)
(0.00101543 0.000975976 -1.1268e-19)
(0.000747405 0.000165903 0)
(0.000790778 0.000184552 1.31006e-19)
(0.00635301 0.00588182 1.13148e-18)
(0.000738484 0.00112945 8.26546e-20)
(3.73939e-05 3.66038e-05 -7.44602e-20)
(0.000808816 1.12418e-05 0)
(0.000873265 2.50518e-05 -3.56867e-20)
(3.24694e-05 2.76912e-06 -1.96697e-19)
(2.81701e-05 4.15081e-06 1.92974e-19)
(0.000833906 1.62442e-05 5.37154e-19)
(0.000976948 0.000111453 6.58288e-19)
(0.000553106 4.1367e-05 0)
(0.000222899 -0.000289563 -3.98084e-19)
(0.000917321 0.000145015 3.8955e-19)
(8.24316e-06 -5.57213e-05 2.03086e-19)
(0.00145249 0.000442452 -2.58153e-18)
(0.000581074 -9.87634e-06 0)
(0.000794788 0.000143192 3.75426e-19)
(9.50413e-05 0.000392103 0)
(0.00118829 0.00816109 4.62112e-19)
(0.000493233 0.000498907 -1.22442e-18)
(0.000540794 0.00101349 -1.83736e-19)
(0.000883912 1.66169e-05 -1.4604e-19)
(1.21944e-05 2.41371e-05 0)
(0.000952859 7.75802e-05 6.11599e-19)
(0.00410635 0.00739545 8.14213e-20)
(0.00417134 0.00747359 4.73004e-20)
(0.00450011 0.00751597 4.5406e-19)
(0.00444525 0.00754169 -3.29448e-19)
(0.00647537 0.0111096 8.10535e-20)
(0.00391484 0.00714608 -9.65916e-22)
(0.00550817 0.00779878 -5.64734e-19)
(0.00409788 0.0073717 5.21851e-21)
(0.00518894 0.00785843 5.11667e-19)
(0.00407969 0.00734014 -4.87146e-20)
(0.00495405 0.00771783 0)
(0.00408499 0.00736453 -8.56495e-20)
(0.00474272 0.00758881 4.9251e-19)
(0.00409825 0.00737612 8.75075e-20)
(0.00457532 0.00752844 0)
(0.00428376 0.00742086 1.39739e-19)
(0.00423934 0.00759826 5.80557e-19)
(0.00446769 0.00752716 -5.55479e-19)
(0.00438793 0.00750497 3.71374e-19)
(0.00422794 0.00752474 2.87629e-19)
(0.00643072 0.0110429 -4.97708e-21)
(0.0041178 0.00740155 3.11577e-20)
(0.00645883 0.0110728 0)
(2.2734e-05 5.31929e-06 -1.89839e-19)
(0.00200014 0.00654476 2.28225e-19)
(0.000838367 -5.37969e-05 1.09871e-19)
(0.000855102 6.37406e-06 0)
(1.24846e-06 1.00743e-06 -3.99069e-19)
(-1.79113e-05 -0.000114177 6.91614e-19)
(2.39786e-05 5.51191e-05 2.08878e-18)
(0.000831479 0.000182398 -9.00611e-20)
(0.000800948 8.72856e-06 7.06312e-19)
(9.12142e-07 -6.79484e-07 3.09955e-19)
(1.66849e-05 -3.19464e-05 -1.84544e-18)
(0.000763284 2.71034e-05 1.63134e-19)
(0.000869506 0.000124083 -3.07952e-20)
(0.00080075 -8.12443e-06 1.48118e-19)
(0.00042175 0.000680032 0)
(2.97158e-05 -0.00014248 1.15131e-18)
(0.000867927 5.30905e-06 1.52503e-19)
(1.92429e-05 2.28454e-05 0)
(0.000117127 0.000557808 -6.31192e-19)
(0.000610292 0.000590161 1.31782e-18)
(0.000327717 0.000754541 0)
(0.000801723 -1.59367e-05 0)
(0.00080143 2.94716e-06 1.17566e-18)
(1.66149e-05 4.75992e-05 -3.51459e-18)
(1.57018e-05 6.6052e-06 3.73582e-19)
(0.00011638 0.000142314 0)
(4.12781e-05 -4.01147e-05 0)
(6.07483e-05 0.000110373 2.00978e-19)
(0.000938995 0.000189463 3.50393e-19)
(0.000800248 1.50069e-05 -1.39884e-18)
(2.20713e-05 3.18979e-05 0)
(0.000439793 6.6852e-06 -6.0428e-20)
(0.000800743 3.73109e-05 -1.5633e-19)
(0.000845178 4.01622e-05 1.06426e-18)
(0.000256611 0.000542003 6.32171e-19)
(0.000879524 0.000156932 0)
(1.67526e-05 -2.21918e-05 5.38565e-19)
(2.10182e-06 -4.42799e-06 -3.19931e-19)
(0.000964319 3.2738e-05 0)
(0.00103986 0.00226764 0)
(0.000923892 -1.93487e-06 0)
(0.00100385 0.000207858 4.2713e-19)
(0.000817998 -3.57685e-05 -2.8426e-19)
(0.000935264 0.000109693 -6.84697e-19)
(0.000800935 3.41257e-06 0)
(4.13634e-05 6.68687e-05 -1.71548e-19)
(0.000174542 0.000325625 1.08103e-18)
(0.000799943 1.38768e-05 -2.17599e-23)
(0.0010966 0.00020992 -6.68794e-19)
(0.00108963 0.000127201 0)
(2.27822e-06 5.34018e-06 2.51003e-19)
(1.6895e-05 -1.42925e-05 -1.94293e-19)
(0.000565076 4.25605e-05 6.94939e-21)
(3.26647e-06 -7.29746e-05 0)
(0.00106729 0.000255445 9.49922e-19)
(0.00502868 0.00974846 -2.82998e-19)
(0.00312136 0.00961737 1.27254e-18)
(3.22846e-05 -0.000101154 -1.91316e-19)
(4.86347e-05 -7.37303e-05 1.85928e-18)
(0.0011903 0.000251089 1.67332e-19)
(0.00132877 0.00107808 2.34066e-19)
(0.000810927 1.34242e-06 -7.33949e-19)
(0.000197045 0.000950692 -2.38217e-19)
(0.000817396 0.000941237 -2.18565e-19)
(0.000800184 -2.40586e-06 0)
(8.31457e-05 0.000618944 0)
(9.50509e-05 0.000280568 -3.82148e-23)
(0.000718872 -4.49952e-05 -1.67685e-23)
(0.000824491 6.79779e-05 1.5259e-19)
(0.00263081 0.00206324 -1.2312e-18)
(0.00175997 0.00923767 -1.17212e-19)
(0.000834861 6.1022e-05 4.92218e-19)
(0.00632525 0.00405058 -1.76025e-19)
(0.00672105 0.0115577 -1.3645e-20)
(0.00473411 0.00784388 4.92852e-21)
(0.000803298 1.37155e-05 -2.18417e-18)
(0.000839624 4.98337e-06 6.31631e-24)
(7.48587e-06 -6.75926e-06 -3.47982e-19)
(4.59972e-05 8.75634e-05 -3.49244e-19)
(6.4587e-05 0.000266872 8.75153e-19)
(1.02149e-05 1.52702e-05 4.90357e-19)
(8.96538e-05 0.000227816 3.69731e-19)
(0.000821828 2.00519e-05 0)
(0.0053481 0.0094924 1.95045e-20)
(0.00153871 0.000637061 -2.61225e-20)
(0.000819724 3.74636e-05 3.60139e-19)
(2.76721e-05 -7.90051e-05 0)
(0.00184778 0.000747132 5.45948e-19)
(8.65858e-06 6.93711e-06 -2.70128e-19)
(3.27569e-05 2.72617e-05 9.71726e-20)
(0.00133159 0.00139731 6.36578e-19)
(0.000737372 4.90922e-05 1.83084e-19)
(3.76903e-06 -1.30715e-06 -1.70186e-19)
(0.00206188 0.00156126 -1.05577e-18)
(0.000126537 0.000176479 -8.1868e-19)
(0.00392105 0.00848719 -1.09079e-18)
(4.626e-06 1.34909e-06 8.81341e-20)
(0.000119508 -8.78884e-05 -1.25741e-18)
(4.37809e-05 -5.63063e-05 4.05603e-20)
(0.00152643 0.000985654 0)
(0.00104083 0.000138763 -4.03437e-22)
(0.000453342 0.000848235 -4.02001e-20)
(0.00080302 2.76601e-05 -2.34055e-19)
(8.70498e-05 0.000182687 7.35999e-19)
(2.72995e-05 -5.89055e-05 4.03965e-19)
(1.76444e-05 1.4464e-05 -9.4701e-20)
(3.04722e-05 8.9919e-05 -3.20259e-19)
(0.000210569 -0.000223822 -5.45279e-19)
(0.00324984 0.00346298 2.90159e-21)
)
;

boundaryField
{
    back
    {
        type            empty;
    }
    ingreso
    {
        type            fixedValue;
        value           uniform (0.0008 0 0);
    }
    salida
    {
        type            zeroGradient;
    }
    front
    {
        type            empty;
    }
    defaultFaces
    {
        type            noSlip;
    }
}


// ************************************************************************* //
