/*--------------------------------*- C++ -*----------------------------------*\
  =========                 |
  \\      /  F ield         | OpenFOAM: The Open Source CFD Toolbox
   \\    /   O peration     | Website:  https://openfoam.org
    \\  /    A nd           | Version:  7
     \\/     M anipulation  |
\*---------------------------------------------------------------------------*/
FoamFile
{
    version     2.0;
    format      ascii;
    class       surfaceScalarField;
    location    "30";
    object      phi;
}
// * * * * * * * * * * * * * * * * * * * * * * * * * * * * * * * * * * * * * //

dimensions      [0 3 -1 0 0 0 0];

internalField   nonuniform List<scalar> 
1111
(
6.14452e-09
1.33507e-08
-1.5475e-08
-4.02024e-09
6.30369e-09
-1.16138e-08
1.14546e-08
-1.45995e-08
4.59092e-09
9.66395e-09
3.44578e-10
2.49334e-10
-3.01466e-10
-1.40358e-08
1.4088e-08
-1.39286e-08
1.3734e-08
4.43852e-10
-1.47808e-09
1.48599e-08
2.04673e-09
-4.06842e-09
9.65347e-09
-1.11316e-08
5.54658e-09
-6.59219e-09
-1.25504e-08
1.25126e-08
6.62995e-09
-5.10117e-08
-2.56302e-08
7.66418e-08
-8.07105e-09
7.48638e-09
6.88836e-09
3.70088e-09
3.54831e-10
-3.77299e-09
-2.8272e-10
1.57581e-08
-1.57995e-08
-2.27938e-08
2.28352e-08
-9.62259e-09
-8.14955e-09
8.87317e-09
8.89896e-09
-3.49766e-08
1.7341e-08
-3.19072e-08
4.95428e-08
9.56311e-09
-1.89294e-09
-1.42624e-08
-2.99223e-09
3.28925e-09
-3.709e-09
3.41198e-09
-3.70181e-09
1.31365e-08
1.97343e-09
-1.14081e-08
8.88762e-09
-2.14752e-09
-1.50368e-08
8.2967e-09
3.83228e-08
-3.11257e-08
-7.19711e-09
-1.9173e-08
-1.03552e-10
1.7567e-08
1.70954e-09
-4.71976e-10
3.86233e-09
-1.79711e-08
1.45808e-08
-6.11791e-08
-3.94828e-09
6.51274e-08
1.92724e-10
-1.37443e-09
-3.97843e-10
1.57955e-09
-1.06568e-09
-1.33349e-08
-2.38175e-10
-3.55013e-10
3.38263e-10
2.54925e-10
-9.95783e-09
-8.05871e-09
1.2323e-08
5.69358e-09
8.16148e-10
-2.19527e-09
-8.51823e-09
9.89735e-09
7.75586e-09
1.05057e-09
-8.54236e-09
-2.64068e-10
-2.79161e-09
-7.76245e-09
1.07269e-08
-1.72876e-10
1.13004e-08
-3.41912e-10
-2.07086e-09
-1.08637e-09
1.05444e-09
1.22213e-10
-9.02785e-11
-3.92438e-10
9.56258e-10
5.6266e-10
-1.12648e-09
-6.77902e-10
-4.54364e-11
7.21453e-10
1.88525e-12
3.56717e-11
-1.11861e-09
8.83589e-11
9.94579e-10
-3.17623e-11
-1.01894e-09
6.41409e-10
-1.81912e-08
-1.62316e-09
-5.85974e-10
6.75117e-11
-1.59439e-10
1.33446e-08
-1.33156e-08
3.83332e-09
-4.73115e-10
6.85409e-10
4.56318e-10
-6.68612e-10
-7.14212e-10
-2.60592e-09
1.98186e-09
1.33828e-09
-2.06317e-09
8.83999e-09
-1.08452e-08
-4.49019e-10
-2.25051e-10
8.80961e-11
-8.79064e-09
1.00309e-08
-9.31126e-09
1.17352e-08
-1.67944e-08
5.14214e-09
-8.2917e-11
1.10939e-10
-2.40702e-10
-3.19255e-10
3.05724e-10
9.60139e-10
-2.11423e-10
-5.98875e-08
7.43522e-08
-1.44647e-08
1.20382e-09
-4.12612e-10
-1.39917e-09
6.07968e-10
1.00844e-09
1.02796e-08
-1.36679e-08
2.37991e-09
-4.46911e-10
6.68724e-09
-8.08123e-09
1.8409e-09
-6.37997e-09
5.82814e-09
5.42536e-09
-4.87353e-09
-6.91915e-09
-2.39567e-09
2.25271e-09
7.06212e-09
-1.98794e-10
-9.08885e-08
9.12919e-08
-2.04584e-10
-2.37434e-10
-8.97483e-08
9.01408e-08
-1.55073e-10
8.30626e-08
-1.49896e-09
1.04899e-10
-8.16685e-08
-3.27192e-09
-2.71513e-11
8.73172e-10
9.61097e-10
-6.30453e-10
4.0979e-09
-1.86473e-09
3.25745e-09
-5.49062e-09
-1.17455e-09
1.06766e-09
-1.49884e-08
6.58042e-09
9.09729e-09
1.01226e-09
-9.78454e-09
-3.24998e-10
-6.27895e-09
1.27156e-08
1.52048e-09
-7.95711e-09
1.42014e-08
-3.91481e-09
3.18234e-09
-1.34689e-08
1.5398e-08
1.70924e-09
-1.67843e-09
-3.51313e-10
-1.98928e-08
-7.41616e-09
2.76603e-08
1.35801e-08
-8.16934e-09
-2.29581e-09
7.54775e-09
-1.15309e-08
-1.54727e-10
3.12781e-10
-1.55723e-09
-3.71702e-08
-2.27172e-08
7.89702e-09
-6.59596e-11
3.9041e-09
-6.83932e-09
1.06333e-08
6.2369e-09
-7.35271e-10
4.26492e-10
5.95075e-10
-2.86296e-10
5.97262e-09
-4.57674e-09
3.52162e-09
-4.9175e-09
-7.01841e-10
-7.46628e-10
3.29859e-10
8.68962e-10
-8.26039e-10
-2.23464e-10
-1.23833e-09
1.06936e-09
-1.7366e-08
2.48561e-09
1.42072e-09
1.34597e-08
3.26722e-10
-8.65664e-10
-1.96329e-10
-3.70689e-09
-1.46807e-08
1.02163e-09
5.67093e-09
1.16448e-08
-5.24688e-09
-1.20688e-08
1.63912e-08
5.47586e-10
-1.5861e-08
-1.07776e-09
-8.22289e-10
5.88051e-10
6.6073e-10
-1.02485e-09
5.57807e-10
4.67042e-10
-7.01749e-09
-3.84855e-09
4.48606e-09
-4.37045e-10
6.25976e-10
-1.88931e-10
1.31792e-09
-1.49826e-08
-7.08514e-10
8.6779e-09
-1.00326e-08
-1.20706e-09
-1.24831e-09
1.24714e-08
4.40178e-09
-4.16425e-09
-1.27089e-08
3.19633e-10
6.91862e-09
-7.60119e-09
6.51071e-09
-2.00826e-09
-8.35466e-09
7.70217e-09
2.66076e-09
-1.7892e-09
5.91352e-10
-1.34829e-08
-2.7053e-10
-1.66515e-10
-5.65845e-10
1.31195e-09
-7.66526e-09
7.90283e-10
1.72083e-08
-1.60745e-09
-1.46658e-08
1.58521e-08
-1.18635e-09
1.18572e-08
1.40302e-08
-1.56081e-08
-1.02793e-08
-8.97694e-10
1.49722e-09
-5.99523e-10
1.55955e-09
-2.01303e-09
4.53487e-10
2.72724e-09
-3.99299e-09
1.26574e-09
2.01539e-09
-1.68994e-09
-3.25448e-10
-1.20568e-08
2.61706e-10
1.17951e-08
2.7667e-09
-7.51313e-10
8.83108e-09
-1.50417e-08
6.4418e-09
-7.45455e-09
1.048e-10
4.03926e-09
-4.43184e-10
-3.12153e-09
3.22633e-09
-7.73182e-09
9.09748e-09
-1.36566e-09
-9.41812e-10
4.07208e-09
9.6763e-10
1.70545e-08
-1.45218e-08
-1.52422e-09
-5.33794e-09
5.10507e-09
-1.63186e-09
-2.71718e-10
6.91568e-09
-6.90435e-09
-1.13259e-11
7.07955e-09
4.31843e-09
3.11234e-10
-1.56369e-08
1.03028e-08
1.71913e-08
5.67533e-09
8.32284e-09
8.2095e-09
-6.74417e-09
6.69556e-10
-1.27263e-08
1.4445e-09
-9.52051e-11
-1.26889e-08
3.6677e-09
-4.41373e-10
1.38755e-08
-1.33279e-08
-9.11187e-11
-1.14771e-09
-1.35895e-08
7.05954e-09
9.62813e-10
-5.85114e-11
-8.95438e-09
5.3205e-09
-3.1477e-08
-1.2566e-08
-2.31271e-09
1.2892e-09
1.36537e-08
1.09991e-08
-1.06698e-08
-1.39831e-08
1.65194e-08
-3.11209e-09
-1.34073e-08
1.7932e-09
3.82071e-09
-1.50507e-09
-1.00616e-09
-1.069e-09
1.40177e-09
6.73386e-10
-3.19261e-10
4.52772e-10
4.61564e-10
6.22611e-08
-6.23127e-08
5.1538e-11
6.20743e-08
-6.24285e-08
3.54234e-10
8.95183e-10
6.4775e-08
-6.55995e-08
8.2444e-10
6.41711e-08
6.03906e-10
-1.67336e-10
-6.65413e-08
9.41826e-10
-6.20462e-08
6.19476e-08
9.85964e-11
1.32411e-09
-6.78654e-08
-6.21769e-08
1.30748e-10
1.2017e-08
-1.21076e-09
1.83825e-09
-3.74866e-09
3.12117e-09
4.64572e-10
-1.33011e-09
1.19713e-09
-8.7139e-10
1.52933e-09
-1.81522e-09
1.15728e-09
1.59354e-09
-1.76804e-09
4.87284e-10
-1.14275e-10
-3.30424e-09
3.13798e-09
-2.41447e-09
2.58073e-09
-9.39987e-10
-2.92239e-09
2.65163e-09
-3.93489e-09
-5.51539e-09
6.78156e-10
-7.86058e-10
1.50655e-09
1.2199e-09
-6.62329e-09
8.01584e-09
2.92588e-09
2.07985e-08
-4.27912e-09
-8.52262e-10
3.05598e-10
1.22482e-09
-1.0253e-08
-2.69172e-08
5.50481e-09
-4.52441e-09
-3.08317e-09
2.10277e-09
1.40656e-10
6.58751e-12
5.7421e-10
-2.87735e-09
3.56204e-09
8.5644e-09
9.51107e-10
-6.39509e-10
2.26047e-09
-2.56095e-09
2.35472e-09
1.46237e-08
1.30602e-08
-2.66205e-08
3.21255e-08
6.11869e-09
-2.25856e-08
-1.01536e-08
1.78782e-08
-1.75269e-08
1.06478e-08
-3.07729e-10
2.87716e-11
-1.48908e-09
-1.96744e-09
-2.13401e-09
3.70626e-09
1.45686e-08
-5.70357e-10
-1.34069e-08
1.48655e-10
-2.93547e-09
-1.35583e-10
1.51741e-08
1.73278e-08
1.35001e-08
7.49745e-10
-1.53097e-09
-1.27189e-08
-1.95607e-09
5.97204e-09
1.21703e-08
-8.67645e-10
-1.299e-09
-3.50275e-09
2.72993e-09
3.9108e-09
2.40314e-09
1.40494e-08
4.13028e-09
-1.37779e-08
1.72579e-08
-1.66761e-09
2.92405e-09
-3.68596e-09
1.89148e-09
-4.481e-09
1.27511e-08
-1.19719e-08
-1.37621e-08
6.1923e-10
8.66188e-09
-1.94302e-09
1.64356e-09
1.80601e-09
-8.82425e-09
4.80298e-10
-4.22205e-09
-5.96898e-09
1.20853e-08
-1.49405e-08
1.47474e-09
1.64267e-09
-2.11146e-09
1.62537e-08
-1.57849e-08
-9.69349e-10
1.38991e-08
2.60659e-09
-3.86908e-09
-1.37792e-08
7.24478e-09
-1.68412e-08
-7.93045e-09
6.4349e-09
5.82416e-09
1.41973e-08
-9.41357e-09
3.18322e-09
8.8911e-09
9.79783e-09
3.89334e-09
-4.08987e-09
2.13476e-08
-1.86924e-08
4.58954e-09
-9.91233e-09
2.29196e-09
5.26266e-09
1.34159e-08
-8.02104e-11
1.23946e-08
-1.32838e-08
-1.63518e-09
2.61501e-09
-1.79227e-09
8.12444e-10
1.07073e-08
-6.33378e-09
7.2713e-09
-1.03066e-08
1.40647e-09
-4.75578e-09
1.11291e-08
-1.16202e-08
-7.41064e-09
8.89416e-09
9.22374e-09
1.24987e-08
9.75611e-10
-1.35545e-08
1.75523e-09
8.66438e-10
-1.08043e-08
-6.72857e-09
1.01222e-08
-1.81871e-09
2.52541e-09
-8.65629e-09
4.69202e-09
-5.10071e-09
1.11866e-08
-3.49088e-09
-1.13477e-08
3.65197e-09
-4.5394e-09
1.09702e-08
2.17094e-09
1.22785e-09
-4.9843e-09
-1.74625e-08
1.04072e-08
1.20396e-08
9.01779e-10
-1.06569e-08
-9.62173e-09
1.52943e-08
1.20779e-08
2.69226e-09
-9.5075e-09
-1.31751e-08
-2.62171e-10
-1.2395e-08
3.13104e-10
-6.13334e-10
1.10272e-08
1.23574e-08
-8.04681e-09
1.60732e-08
-1.5383e-08
3.44011e-09
-4.90097e-10
1.64526e-09
1.23045e-08
-3.85619e-09
-1.23769e-08
-5.1236e-09
5.38618e-10
4.48978e-09
1.184e-08
-7.49471e-09
7.80809e-10
-1.12263e-09
1.79836e-09
-2.31091e-09
6.00224e-09
2.59932e-08
-7.2427e-10
-1.286e-08
1.35843e-08
2.77732e-08
-2.18746e-08
2.19807e-08
1.91866e-08
-1.24559e-08
-2.55101e-09
1.47825e-08
1.09711e-10
-1.19641e-08
-3.21225e-10
-6.00899e-09
-1.99992e-09
2.43625e-09
1.73461e-09
1.83893e-10
-1.06678e-08
1.07197e-08
-2.35742e-10
2.23609e-09
-5.5188e-09
-1.04953e-08
1.01876e-08
-6.37934e-10
-1.0282e-08
-1.00194e-11
-1.04125e-08
-2.92903e-09
-1.17254e-08
2.30765e-09
7.71625e-09
5.05609e-09
2.79769e-10
-1.14169e-08
1.1321e-08
7.03772e-10
-8.39602e-09
5.28089e-09
-7.48573e-10
2.77066e-09
-3.35467e-09
-1.28894e-08
-1.3375e-08
1.29305e-08
-9.8973e-09
-1.57871e-08
1.00475e-08
9.00209e-09
8.41532e-10
2.58139e-09
-1.54414e-08
1.0743e-08
1.69068e-09
4.05711e-09
4.00315e-10
-6.47233e-10
-4.54923e-10
-4.00973e-09
2.74087e-09
-1.6666e-09
4.04915e-10
-4.72685e-10
6.77703e-11
-2.47289e-09
1.24693e-08
2.08148e-09
2.53962e-09
-1.15181e-09
-1.89433e-09
-4.43389e-11
-2.61793e-09
-7.65485e-10
1.25883e-08
9.70535e-09
-5.41441e-10
7.14687e-09
-1.18479e-09
-5.42063e-09
-9.67453e-09
-5.09571e-09
3.17099e-10
8.78153e-11
4.5283e-09
1.4138e-09
-1.6599e-08
-6.52706e-10
-9.61566e-10
-2.17185e-09
7.75465e-10
2.55708e-09
6.20815e-08
-1.34617e-10
-6.19469e-08
6.23315e-08
1.84123e-10
-6.25157e-08
-1.41504e-08
1.29282e-10
1.45003e-08
-4.79216e-10
2.5948e-09
-2.11374e-09
2.85326e-09
1.78589e-09
-4.39952e-09
-5.86632e-10
-6.74535e-10
5.47214e-10
-1.58975e-10
6.55618e-10
-4.80353e-10
1.8811e-08
1.11885e-09
-1.54016e-08
-3.43679e-10
-1.96078e-09
1.20743e-08
2.19101e-09
1.74804e-09
5.03971e-09
-1.76446e-09
-7.72911e-08
-2.41796e-08
-4.82291e-09
1.5623e-08
2.33639e-09
-8.67321e-10
-3.41721e-09
-1.42295e-09
7.66451e-10
-6.42503e-10
-1.2732e-08
-3.08564e-10
1.30405e-08
-1.05791e-08
-6.67122e-09
1.05217e-08
-9.20789e-09
8.87444e-09
-2.0742e-10
1.95511e-09
1.22114e-08
-1.19244e-08
-2.8701e-10
7.80266e-10
5.65658e-11
9.57587e-09
1.13377e-09
-1.23131e-09
-3.99053e-10
-1.41901e-08
-5.20596e-10
-1.33036e-08
1.20002e-08
-1.1368e-08
-6.60324e-08
6.49671e-08
1.06535e-09
5.30327e-10
-5.23739e-10
1.15699e-08
-4.94797e-10
2.21113e-11
-1.89043e-09
2.76182e-09
-3.36538e-09
-1.3516e-08
-1.65249e-09
2.55948e-09
-4.63919e-09
-1.37509e-08
1.79108e-09
5.61786e-09
9.36839e-09
-8.70106e-09
-5.23894e-10
2.90976e-11
-9.36355e-09
-1.25386e-08
1.54579e-10
-6.27668e-08
2.2738e-10
6.25394e-08
6.93307e-10
6.34778e-08
-2.31142e-10
-8.1749e-10
-1.4284e-08
1.20286e-10
-6.33678e-08
6.32475e-08
1.82394e-10
-6.29026e-08
6.27202e-08
5.80643e-10
6.18206e-08
1.61871e-10
-6.19825e-08
6.16368e-08
1.83827e-10
-8.78747e-08
8.84856e-08
-7.06188e-12
9.33832e-08
-9.3073e-08
-2.5869e-10
-8.66185e-08
-4.31753e-10
9.33755e-08
-1.59542e-10
-8.49047e-08
-7.71972e-10
9.35142e-08
2.15585e-10
-5.17955e-10
1.99979e-09
9.24096e-08
-6.93643e-08
6.21925e-08
-6.23913e-08
-6.30042e-08
6.14677e-08
1.69077e-10
-2.98946e-09
2.66846e-09
-1.34569e-08
9.40169e-11
2.23082e-10
2.42225e-09
9.8222e-09
-1.19697e-08
3.8217e-08
-3.44562e-08
-1.64496e-08
1.39505e-08
-9.05981e-11
-2.15926e-10
3.27957e-10
9.58776e-10
-1.94097e-10
4.22049e-10
4.68515e-09
1.05875e-09
-3.85242e-09
-4.54341e-10
5.21853e-10
-3.66244e-10
-2.39351e-09
1.26778e-08
2.185e-09
-1.4431e-08
-2.26919e-09
-3.77809e-09
5.69675e-09
1.09117e-09
-2.40272e-09
1.40506e-08
-1.24069e-09
-4.50749e-09
6.96017e-09
-7.87587e-09
-1.89888e-08
-1.29234e-08
7.63665e-09
5.90595e-09
-3.24451e-10
-5.1608e-10
3.27678e-09
1.43381e-08
1.74597e-09
-1.22414e-09
-4.89451e-10
5.26631e-10
-3.08898e-10
1.59131e-08
-4.53112e-10
-1.57686e-08
-4.38697e-09
-2.59825e-09
2.87353e-10
-2.35205e-10
4.29302e-09
-1.82031e-08
6.66306e-10
-1.73439e-09
-2.36305e-09
-2.28127e-09
1.51729e-08
-9.0558e-08
-1.48135e-10
9.16861e-08
-2.10013e-10
-8.91544e-08
-4.73614e-10
9.30558e-08
-3.05675e-10
-9.28847e-08
-6.5581e-10
-1.82989e-09
1.60766e-08
9.20025e-08
-1.89817e-10
2.45406e-11
-2.484e-10
1.10709e-08
2.17066e-09
-9.79771e-09
-1.18244e-08
-5.57821e-09
8.45829e-09
1.38269e-09
-6.91509e-09
-6.47278e-09
9.1003e-09
-2.55305e-10
1.01564e-08
1.91584e-08
-1.76301e-08
3.01167e-09
-1.23858e-08
3.0206e-09
-7.00841e-08
4.05172e-09
-2.03259e-08
-1.26214e-08
-6.21606e-10
-5.77742e-09
-1.53935e-08
9.20679e-09
-1.51703e-08
5.97819e-10
5.06615e-10
-1.4701e-09
-1.60625e-08
1.66274e-08
9.45314e-09
-9.48029e-09
-5.52154e-09
1.4826e-08
-1.60846e-09
8.33106e-10
-1.52078e-09
5.93682e-10
1.21735e-08
3.41666e-09
7.09355e-08
-1.7899e-08
9.57021e-10
-1.45675e-08
-3.17039e-10
-3.61344e-10
-2.21065e-10
6.08627e-08
-6.11684e-08
-6.33432e-08
-6.30924e-08
-6.56407e-13
-2.9929e-10
-9.25848e-08
-6.04117e-08
6.24114e-08
6.5072e-08
-6.01961e-08
6.4554e-08
-6.03556e-08
6.37821e-08
-6.06143e-08
6.33503e-08
9.23171e-08
4.00333e-10
-6.55771e-09
7.49803e-08
-6.50059e-08
1.25415e-10
-1.25415e-10
2.07181e-09
-3.83424e-10
1.54855e-08
-1.44923e-10
1.44923e-10
5.09757e-10
1.45527e-09
1.39735e-08
1.28804e-08
-2.66806e-09
3.66566e-09
6.40122e-09
1.93156e-09
4.76824e-10
-3.4109e-10
-2.87643e-09
1.43294e-08
1.48072e-08
-4.31956e-09
1.15988e-08
2.76189e-10
2.1816e-10
3.00442e-09
-1.04141e-09
-1.79101e-09
-5.9319e-09
-1.35459e-10
-5.00687e-10
1.52048e-08
3.82791e-10
1.7471e-10
1.64935e-08
-2.55683e-08
1.7144e-08
2.54983e-09
1.50036e-09
2.16926e-09
-3.50766e-09
1.89082e-08
-1.75698e-08
-1.45116e-10
9.14561e-10
-1.44484e-09
-7.91583e-08
-7.08092e-08
1.47757e-09
-1.15475e-09
7.35877e-10
2.28358e-08
1.83033e-08
-6.4779e-09
1.802e-10
-4.50967e-09
-2.00381e-09
2.99278e-08
1.26354e-10
1.48796e-08
7.35816e-08
1.10381e-10
5.7579e-10
-2.2874e-10
-2.99119e-10
-3.8941e-09
2.39439e-08
-1.47368e-08
1.23738e-09
-1.3993e-08
-9.76672e-11
2.01027e-08
-2.82542e-08
9.00036e-10
2.5732e-09
-7.04584e-10
)
;

boundaryField
{
    back
    {
        type            empty;
        value           nonuniform 0();
    }
    ingreso
    {
        type            calculated;
        value           nonuniform List<scalar> 
14
(
-1.54286e-08
-1.54288e-08
-1.54288e-08
-1.54288e-08
-1.54286e-08
-1.54283e-08
-1.54288e-08
-1.54288e-08
-1.54286e-08
-1.54286e-08
-1.54288e-08
-1.5428e-08
-1.5428e-08
-1.54286e-08
)
;
    }
    salida
    {
        type            calculated;
        value           nonuniform List<scalar> 2(1.01471e-07 1.14529e-07);
    }
    front
    {
        type            empty;
        value           nonuniform 0();
    }
    defaultFaces
    {
        type            calculated;
        value           uniform 0;
    }
}


// ************************************************************************* //
