/*--------------------------------*- C++ -*----------------------------------*\
  =========                 |
  \\      /  F ield         | OpenFOAM: The Open Source CFD Toolbox
   \\    /   O peration     | Website:  https://openfoam.org
    \\  /    A nd           | Version:  7
     \\/     M anipulation  |
\*---------------------------------------------------------------------------*/
FoamFile
{
    version     2.0;
    format      ascii;
    class       volScalarField;
    location    "29";
    object      p;
}
// * * * * * * * * * * * * * * * * * * * * * * * * * * * * * * * * * * * * * //

dimensions      [0 2 -2 0 0 0 0];

internalField   nonuniform List<scalar> 
591
(
0.000124027
0.000124043
0.000124057
0.00012402
0.000124021
0.000124107
0.000124083
0.000124053
0.000117025
0.000124056
0.000124215
0.000122936
0.00012408
0.000119813
0.000124054
0.000124098
0.000123982
0.000124088
0.000122065
0.000123437
0.000124022
-3.56796e-06
0.000124215
0.000124024
0.000124173
0.000124042
0.000124111
0.000124136
0.000124053
0.000124085
0.000124192
0.00012417
0.000124188
0.000124187
0.000124189
0.000123533
0.000124185
0.000124035
0.000124209
0.000124125
0.000124112
0.000124182
0.000124053
0.000124072
0.000124179
0.000124196
0.00011932
0.0001242
0.000124066
0.00012417
0.000124134
0.000124173
2.39126e-05
3.05864e-05
4.78747e-05
0.000124071
0.000124203
0.000124185
0.000124198
0.000124028
0.000124107
0.000124048
0.000124053
0.000124119
0.00012267
0.00012405
0.000124055
0.000124195
0.0001208
0.000124073
0.000124054
0.000124201
0.00012416
0.000124182
0.000124188
0.000124163
0.000124021
0.000124198
0.000124026
0.000123945
0.000123808
0.000124203
0.000124166
0.000124133
0.000124211
0.000124034
0.000124127
0.000124193
0.000124157
0.000123915
0.000124171
0.000124103
0.000124128
0.000124034
0.000124209
0.000124166
0.000123739
0.000123635
0.000123758
0.000124213
0.000124125
0.000124036
0.000124217
0.000124023
0.000124216
0.000124056
0.000124043
0.000124167
0.000124207
0.000124211
0.000124095
0.000124184
0.000124072
0.000124191
0.000124212
0.000124188
0.000124134
0.000124144
0.000123689
0.0001241
0.000124052
0.000124086
0.000124093
0.000124039
0.000124185
0.000120317
0.000124215
0.000124188
0.000123809
0.000124188
0.000124041
0.000123733
0.000124149
0.000124147
0.000124191
0.000124065
0.000122705
0.000124216
0.000124049
0.000123694
0.000123755
0.00012412
0.000124193
0.000124209
0.000124204
7.61112e-06
3.6457e-06
2.01909e-06
3.81747e-05
3.672e-05
5.64512e-06
3.83138e-05
1.57472e-05
3.72868e-05
1.78152e-05
0.00012405
0.000124035
0.000124201
0.0001242
0.000124205
0.000124203
0.000124197
0.000124195
0.000124198
0.000124199
0.000124158
0.000124207
0.000124202
0.000124207
0.000124134
0.000123494
0.000124209
0.000122216
0.00012418
0.000124191
0.000124132
0.000124056
0.000124191
0.0001242
0.000124195
0.000123602
0.000122563
0.000123148
0.000123565
0.000124194
0.000124198
0.000124145
0.000124026
0.000124191
0.000123058
0.000123419
0.000124028
0.00012419
0.000123889
0.000124184
0.00012419
0.000124161
0.00012386
0.000124012
0.000124188
0.0001242
0.000124192
0.000123983
0.000124175
0.00012398
0.000124208
0.000124052
0.000124045
0.000124204
0.00012383
0.000124016
0.000124063
0.000123669
0.000124155
0.000123816
0.0001241
0.000124098
0.000124178
0.00012359
0.000124095
0.000124001
0.000124014
0.000124164
0.000123923
0.000124087
0.000123993
0.000123897
0.000124007
0.00012421
0.000123963
0.000124203
0.000124039
0.000124178
0.000124037
0.000124034
0.00012421
0.000123942
0.000124201
0.000123937
0.000123984
0.000124059
0.000124035
0.000124056
0.000124052
0.000123807
0.000124017
0.000123962
0.000124169
0.000124039
0.000123864
0.000124158
0.000123424
0.000123975
0.00012334
0.000123192
0.00012404
0.000124003
0.000124035
0.000124031
0.000123979
0.000124208
0.000124074
0.000124151
0.00012407
0.000124079
0.00012409
0.000124157
0.000123813
0.000124203
0.000123853
0.000123748
0.000124065
0.000124179
0.000123763
0.000124205
0.000124104
0.00012415
0.000124162
0.000124067
0.000124019
0.000123819
0.000124001
0.000124014
0.000124063
0.000124103
0.000124178
0.000124188
0.000124198
0.000123974
0.000124067
0.000124182
0.000124192
0.000124188
0.000123996
0.000124199
0.000124071
0.000124172
0.000123962
0.000124201
0.000123956
0.000124179
0.000124096
0.000124021
1.16449e-05
2.19174e-05
0.000124001
0.000124049
0.000124206
0.000123987
0.000124207
0.000124061
0.0001242
0.00012418
0.000123947
0.000124174
0.000124014
0.000124201
0.000124059
-2.10388e-07
0.000123879
0.000124182
0.000124179
0.000123907
0.000124018
0.000124049
0.000124174
0.000123972
0.000124195
0.000124092
0.000124054
0.000124172
0.000124019
0.000123942
0.000123964
0.000124071
4.74204e-05
0.000124189
0.000124172
0.00012404
0.000124195
0.000124117
0.000124066
0.000124039
0.000124047
0.000124183
0.000124093
0.00012398
0.000124068
0.000123984
0.000124196
0.00012399
0.00012403
0.000124073
0.000124153
1.98837e-05
2.72917e-05
3.43115e-05
9.63699e-06
0.000124026
3.30656e-05
2.59801e-05
0.000124193
1.90949e-05
1.70521e-05
3.82047e-05
7.55106e-06
3.99587e-05
5.56609e-06
4.08599e-05
3.62958e-06
4.28451e-05
1.8147e-06
3.64035e-05
2.31905e-05
2.94281e-05
1.49894e-05
0.000123894
0.000124202
0.000124093
0.000124104
0.00012102
0.000124173
0.000124198
0.000124169
0.000124004
0.000124203
0.000124196
0.000124186
0.000124183
0.000123957
0.000124048
0.00012418
0.000124184
0.000124025
0.000123919
0.000123915
0.000123507
0.000123971
0.000124213
0.000124189
0.000124058
0.000124211
0.000123906
0.000124054
0.000123862
0.000122978
0.000124184
0.000124194
0.00012421
0.00012391
0.000124062
0.000123865
0.000124064
0.000124041
2.60154e-05
2.18712e-05
3.30445e-05
1.15833e-05
0.000124218
0.000123911
1.98527e-05
2.82359e-05
3.56169e-05
9.56117e-06
0.000124026
0.000124139
0.000124007
0.000124002
0.000124078
0.000124141
0.000123932
0.00012418
0.000124104
0.000123206
0.000124009
0.000123977
5.92814e-05
0.000123333
0.000124207
0.000124038
0.000123943
0.000124196
0.000124199
0.000124027
0.000123817
0.000124058
0.000124122
0.000123894
0.000124154
0.000123024
0.000124
0.000123988
0.000124149
0.000100881
0.000123996
0.000123597
0.000123975
0.000124209
0.000123871
1.08503e-05
2.11173e-05
3.53923e-05
2.81573e-05
1.36435e-05
1.27803e-08
4.2059e-05
2.64653e-06
4.01589e-05
4.71957e-06
3.94257e-05
6.7766e-06
3.86387e-05
8.81486e-06
3.73115e-05
1.36875e-05
3.17267e-05
3.05641e-05
2.39302e-05
2.52642e-05
1.78145e-05
1.29076e-05
1.57302e-05
0.000124202
0.000102535
0.000124029
0.000123973
0.000124206
0.000124102
0.000124211
0.000123937
0.000124105
0.000124176
0.000124171
0.000124219
0.000123942
0.000124076
0.00012391
0.000124141
0.000124001
0.000124206
0.000124057
0.000123889
0.000123891
0.000124089
0.000124089
0.000124213
0.000124204
0.000124208
0.000124175
0.000124212
0.000123856
0.000124055
0.000124207
0.000124
0.000124145
0.000124051
0.000124056
0.00012392
0.000124174
0.000124174
0.000123499
0.000121453
0.000123233
0.00012377
0.000124053
0.000123877
0.000124089
0.00012421
0.000124165
0.000124067
0.00012366
0.000123648
0.000124207
0.000124177
0.000124081
0.000124142
0.000123694
5.83596e-05
4.01384e-05
0.000124148
0.000124165
0.000123543
0.000122858
0.000124037
0.000123735
0.000123482
0.000124071
0.000123917
0.000124188
0.000124075
0.000124111
0.000119121
5.45198e-05
0.000124079
8.12219e-05
1.79984e-06
-3.97746e-07
0.000124049
0.000124022
0.000124176
0.000124212
0.000124198
0.000124207
0.000124199
0.000124036
-2.34132e-06
0.000122952
0.000124065
0.000124156
0.000122132
0.000124206
0.000124206
0.000122375
0.000124147
0.000124178
0.000121778
0.000124203
7.64215e-05
0.000124204
0.000123693
0.000124169
0.000122487
0.000123751
0.000123776
0.000124084
0.000124207
0.000124163
0.000124205
0.000124216
0.000124059
0.000116289
)
;

boundaryField
{
    back
    {
        type            empty;
    }
    ingreso
    {
        type            zeroGradient;
    }
    salida
    {
        type            fixedValue;
        value           uniform 0;
    }
    front
    {
        type            empty;
    }
    defaultFaces
    {
        type            zeroGradient;
    }
}


// ************************************************************************* //
