/*--------------------------------*- C++ -*----------------------------------*\
  =========                 |
  \\      /  F ield         | OpenFOAM: The Open Source CFD Toolbox
   \\    /   O peration     | Website:  https://openfoam.org
    \\  /    A nd           | Version:  7
     \\/     M anipulation  |
\*---------------------------------------------------------------------------*/
FoamFile
{
    version     2.0;
    format      ascii;
    class       volVectorField;
    location    "29";
    object      U;
}
// * * * * * * * * * * * * * * * * * * * * * * * * * * * * * * * * * * * * * //

dimensions      [0 1 -1 0 0 0 0];

internalField   nonuniform List<vector> 
591
(
(0.000807647 -4.52491e-05 1.22609e-18)
(0.000783112 -3.59912e-05 -6.62885e-19)
(0.000850004 -6.09919e-05 5.73551e-20)
(0.000835925 7.45172e-06 -1.47872e-19)
(0.000820618 1.79954e-05 2.23969e-19)
(0.000774555 -3.28314e-05 -1.38476e-19)
(0.000538295 -0.000381147 8.00805e-19)
(0.000795414 -5.06292e-06 2.08113e-18)
(0.0057704 0.00248889 9.87948e-19)
(0.000781937 -2.03415e-05 2.41412e-18)
(5.92594e-05 0.000178491 1.21876e-18)
(0.000891991 0.00130477 9.40961e-21)
(0.000788705 1.12915e-05 1.28958e-18)
(0.00156275 0.00236285 -7.87875e-19)
(0.000797615 1.91544e-05 -4.38431e-19)
(0.000126162 -0.000252754 2.54625e-22)
(0.00013162 0.000667786 7.05767e-19)
(0.000831574 2.3084e-05 -4.92842e-19)
(0.00198535 0.000375834 4.73758e-19)
(0.00134406 0.000280663 -2.47286e-19)
(0.00082945 1.07793e-05 3.69168e-19)
(0.00336758 0.00656135 -8.28141e-20)
(3.58839e-05 7.63692e-05 2.71183e-19)
(0.000822136 6.31194e-06 -4.51686e-19)
(1.79193e-05 -2.27636e-05 3.59244e-19)
(0.000756385 2.50262e-05 0)
(8.97961e-05 0.00048028 1.60101e-19)
(0.000514776 3.02963e-05 -1.79046e-19)
(0.000744457 5.4503e-05 1.13899e-18)
(0.000821958 1.159e-05 5.84652e-19)
(6.71132e-05 -9.09185e-07 -2.89331e-24)
(4.58838e-05 -5.38685e-05 3.52564e-19)
(4.61044e-05 -4.20191e-06 -4.64424e-20)
(5.47569e-05 -9.99883e-06 0)
(6.2873e-05 -1.46986e-05 1.13197e-18)
(0.00116382 0.000129008 1.80141e-19)
(3.99123e-05 -7.23798e-06 4.47637e-20)
(0.000821515 1.67999e-05 3.74408e-23)
(3.44134e-05 5.10728e-05 2.66316e-19)
(5.77881e-05 -0.00014623 -8.55766e-19)
(0.000556044 -0.000186921 9.58345e-19)
(3.30816e-05 -9.46912e-06 4.55322e-20)
(0.000791724 -6.82612e-06 -1.55953e-18)
(0.000820385 1.88498e-05 -6.80861e-19)
(2.38154e-05 -1.14014e-05 0)
(6.29674e-05 1.08902e-05 8.52789e-20)
(0.0013249 0.00451555 8.93679e-19)
(8.52585e-05 2.28587e-05 8.64542e-20)
(0.000790837 2.85775e-05 0)
(0.000365679 -0.000146052 6.78631e-19)
(0.000370024 0.000280603 5.12418e-21)
(0.000384278 7.30527e-05 -1.0049e-18)
(0.00634452 0.0109415 -7.67877e-19)
(0.0062251 0.0107935 1.53764e-20)
(0.00561168 0.0103765 1.45643e-18)
(0.000807007 -1.41723e-05 0)
(7.42478e-05 3.77779e-05 0)
(0.000324263 3.28936e-05 8.94341e-24)
(7.15921e-05 1.52974e-05 -3.46829e-19)
(0.00083136 -5.14264e-06 0)
(0.000609049 2.65097e-05 3.17941e-19)
(0.000811803 5.93533e-08 2.18181e-18)
(0.000773361 2.66766e-06 -5.42689e-19)
(0.00078068 1.87766e-05 -3.12732e-19)
(0.0017139 0.000506927 5.43962e-19)
(0.000784724 -1.5532e-06 -1.14109e-18)
(0.000812942 -2.8463e-06 -5.13805e-19)
(9.35028e-05 3.60791e-06 -1.73596e-19)
(0.000675908 0.00230073 0)
(0.000814913 1.46351e-05 0)
(0.000749464 1.79628e-05 -1.37621e-18)
(4.38367e-05 1.97056e-05 0)
(0.000281166 0.000276998 3.27162e-19)
(5.04994e-05 -2.04334e-05 0)
(5.0342e-05 -6.98582e-06 1.59644e-19)
(3.18383e-05 -5.60633e-05 -3.37036e-20)
(0.000765613 6.22714e-05 2.47393e-19)
(5.07852e-05 1.39842e-05 0)
(0.000781875 5.79433e-05 4.4391e-19)
(0.000748825 0.000299955 2.10956e-19)
(0.000961517 5.96274e-05 -3.98437e-20)
(4.89847e-05 2.78655e-05 -4.52347e-20)
(7.35757e-06 -4.16317e-05 0)
(0.000419744 0.000224589 1.70358e-19)
(2.2506e-06 3.37372e-05 0)
(0.000756317 1.8733e-05 -5.99001e-19)
(0.000557317 -0.000113799 0)
(7.46763e-05 2.41994e-06 -1.74664e-19)
(5.61722e-06 -5.57067e-05 0)
(0.000808313 0.000247852 -3.41655e-19)
(5.22042e-06 -2.58488e-05 0)
(0.000413447 0.000324358 -1.2364e-23)
(0.000509292 0.000117207 0)
(0.000792234 4.84044e-05 -1.11647e-25)
(3.08013e-06 2.26236e-05 -4.22167e-20)
(0.00043357 7.26448e-06 1.76554e-18)
(0.0010184 7.44175e-05 4.16548e-20)
(0.000947062 3.78214e-05 6.41181e-22)
(0.00072345 0.000652845 2.69772e-19)
(4.84133e-06 6.50029e-05 0)
(8.30998e-06 -0.000104551 -3.12714e-19)
(1.48623e-05 -0.000192433 -1.10163e-18)
(1.59851e-06 0.000100766 -5.96511e-19)
(0.000704227 -6.6889e-06 0)
(4.81835e-06 0.000127975 0)
(0.000790381 7.28152e-06 2.20749e-18)
(0.000761345 2.38031e-05 1.51245e-18)
(0.000399754 -3.69686e-05 0)
(5.29332e-05 0.000231868 -8.95591e-19)
(-1.5545e-06 0.000204318 4.96517e-19)
(8.03444e-05 0.000463199 6.25762e-19)
(0.000294156 0.000110139 -9.37684e-19)
(0.000806197 1.31814e-05 1.36359e-19)
(0.000266572 -7.87292e-06 5.31794e-19)
(3.08429e-06 4.59105e-05 0)
(3.76967e-05 0.000315785 -1.09438e-18)
(0.000312672 0.0003295 -1.61858e-19)
(7.92893e-06 -7.89989e-05 1.46753e-19)
(0.000653273 0.000791181 0)
(0.00035809 0.000392268 5.7497e-20)
(0.000801997 2.47055e-07 1.07217e-18)
(0.000777419 -1.37586e-05 -2.68808e-18)
(9.26469e-06 -0.000136062 0)
(0.000737826 -1.77053e-05 -1.11447e-19)
(0.000318549 -6.26843e-05 1.24463e-18)
(0.00270586 0.000798199 -3.36017e-19)
(-1.00133e-06 0.000159834 -6.13349e-19)
(-8.95769e-06 0.000197119 1.61984e-18)
(0.000822539 1.8403e-05 -3.89348e-20)
(7.33081e-05 -7.8022e-06 -7.50978e-19)
(0.000782096 2.86299e-05 -3.8778e-19)
(0.000871717 2.79814e-05 -4.1022e-20)
(5.85593e-05 0.000370626 -5.97131e-19)
(0.000467714 8.30924e-05 -4.94451e-19)
(5.77602e-05 -2.06111e-06 1.56322e-19)
(0.000816772 -2.79995e-06 -1.05909e-18)
(0.00162273 0.000209582 -1.1379e-18)
(1.24388e-06 7.91374e-05 4.96598e-19)
(0.000796785 1.86485e-06 -4.99296e-19)
(0.000881443 0.00053958 -7.85911e-20)
(0.000131253 0.00084413 0)
(0.00055604 6.81151e-05 0)
(0.000269983 6.42072e-05 -1.61137e-18)
(6.8735e-05 6.55878e-05 -1.37555e-18)
(3.55058e-05 2.44124e-05 0)
(0.0042577 0.00742143 -1.02293e-20)
(0.00422356 0.00737251 3.17443e-20)
(0.00442143 0.00757182 -4.49699e-21)
(0.00420822 0.0077376 0)
(0.00420109 0.0076012 5.77541e-19)
(0.00424808 0.00740891 -9.29989e-20)
(0.00421247 0.00804518 4.84489e-19)
(0.004285 0.00743375 0)
(0.00420756 0.00854168 6.16909e-19)
(0.00431597 0.0074507 2.2428e-19)
(0.000803936 -3.6587e-06 -1.37101e-18)
(0.000749142 5.18508e-05 0)
(0.000218866 7.03941e-05 1.27818e-19)
(5.70047e-05 2.01711e-05 8.72779e-20)
(8.43262e-05 5.22638e-05 6.80739e-19)
(0.00011353 4.99609e-05 -3.42027e-19)
(0.000109075 1.40656e-05 0)
(5.56392e-05 7.66196e-06 8.19188e-20)
(0.000204355 0.000145863 0)
(0.000172041 5.81332e-05 -5.24795e-20)
(0.000335293 0.000231408 -5.09753e-21)
(6.11728e-05 4.93456e-05 -4.38121e-19)
(9.81898e-05 3.54239e-05 -8.53377e-20)
(9.62678e-05 7.0062e-05 1.31332e-21)
(0.000247367 0.000372007 -6.66811e-19)
(0.000136856 0.00106316 0)
(4.66926e-05 5.85571e-05 3.43425e-19)
(0.000188453 0.00180911 0)
(0.000206158 0.000260704 7.05351e-19)
(4.53e-05 -5.86352e-06 1.11445e-19)
(0.000466307 0.000170474 -1.72476e-19)
(0.000746325 2.88068e-05 -1.88905e-18)
(4.97824e-05 -4.28775e-08 4.10163e-24)
(0.000156856 3.73571e-05 2.2482e-19)
(0.00023937 0.000108253 -9.00262e-20)
(0.000872023 0.000706318 3.35257e-19)
(0.000756249 0.00161856 -9.2195e-21)
(0.000387206 0.00139307 -9.43991e-21)
(0.00101109 0.000559571 0)
(0.000113842 -1.0445e-05 1.11995e-18)
(0.000126079 2.7183e-05 -4.43626e-20)
(0.000421826 -0.000253653 -1.13699e-18)
(0.000800323 3.10619e-05 0)
(0.000185234 2.67334e-05 3.63644e-19)
(0.000290997 0.00134795 0)
(0.00103403 0.00074947 -7.30911e-20)
(0.000817615 4.19453e-05 -1.84602e-19)
(9.04825e-05 -1.82178e-05 -3.00315e-19)
(0.000805627 0.000312221 -2.08276e-20)
(7.43041e-05 -2.22064e-05 -6.00074e-19)
(0.000226289 0.000184297 8.64734e-20)
(0.000225916 0.00031299 -3.4535e-19)
(0.00086832 0.000238006 0)
(0.000791843 4.54746e-05 0)
(0.000258904 0.000152075 1.77026e-19)
(0.00023502 2.02548e-05 1.64308e-24)
(0.000184872 0.000214036 0)
(0.000281963 0.000647104 -5.56054e-21)
(0.000330421 1.89509e-05 0)
(0.000339511 0.000597964 0)
(0.00011507 9.21497e-05 -1.34812e-21)
(0.000808736 -1.19889e-07 -9.38441e-19)
(0.000814606 -4.16388e-06 7.82114e-19)
(0.000134587 6.90139e-05 -1.50012e-19)
(0.000937339 0.000151939 8.51807e-20)
(0.000821816 4.89828e-05 3.32636e-19)
(0.000794783 1.5863e-05 -2.93467e-19)
(0.00099042 0.000403167 0)
(0.000426021 0.000128295 6.25105e-19)
(0.000879608 0.000315683 2.09368e-20)
(0.000553541 0.00016527 0)
(0.000273325 0.000440887 4.10025e-19)
(0.000258211 0.000226827 -8.45012e-20)
(0.00109103 0.000379371 -7.8307e-19)
(0.000596371 0.000115757 -1.79494e-19)
(0.000788603 7.9779e-05 -7.41958e-21)
(0.000820676 2.63497e-05 9.35049e-20)
(0.000105971 -9.17321e-05 -1.98346e-18)
(0.000724317 0.000379601 2.19458e-19)
(0.000641047 6.60954e-05 2.30806e-20)
(0.000688619 0.000274461 1.54502e-23)
(0.000711753 0.000449046 -4.09915e-19)
(0.000829919 3.95471e-05 8.86533e-20)
(7.69006e-05 8.94308e-05 0)
(0.000638669 0.000417129 -4.66128e-20)
(0.000185236 0.000109395 0)
(0.00036699 0.000505978 -2.65074e-19)
(0.000309378 0.000179224 0)
(0.00065793 0.000203268 3.55624e-19)
(0.000630666 0.000267139 -4.37725e-20)
(8.33974e-05 0.000110023 6.19794e-19)
(0.000869558 0.000111835 -1.63584e-18)
(6.46561e-05 2.71222e-05 2.57466e-19)
(0.000868458 5.03163e-05 -1.65774e-18)
(0.000811782 6.84325e-05 1.61425e-19)
(0.000793119 1.40413e-05 1.93082e-18)
(0.000790277 1.089e-05 -1.31511e-19)
(0.000704853 7.46491e-05 0)
(0.000812652 3.3592e-05 8.76621e-19)
(0.000929831 0.000234722 -4.27597e-19)
(0.000748606 7.84595e-05 -4.83314e-19)
(0.000762934 0.000227273 -8.82195e-20)
(0.000239513 -0.000114428 -2.08146e-18)
(0.000717167 9.13841e-05 8.88225e-19)
(0.000629566 0.000594137 0)
(0.000126913 -0.000100056 0)
(0.00118484 0.000467201 4.97599e-19)
(0.000767362 -0.000103372 -3.23401e-18)
(0.00129791 0.000422733 5.76259e-19)
(0.00125908 0.000712143 -6.39778e-20)
(0.00078844 4.98503e-05 -2.10846e-19)
(0.000817411 7.36992e-05 -1.41726e-18)
(0.000804782 2.30517e-05 1.57231e-18)
(0.000800348 1.85235e-05 9.68457e-20)
(0.000660909 0.000344198 -4.40866e-20)
(0.000106792 0.000138639 1.01498e-23)
(0.000716097 -6.27605e-05 2.6538e-19)
(0.000247136 -0.000201214 -7.37235e-19)
(0.000602816 0.000191271 0)
(0.000678202 2.43372e-05 9.91459e-20)
(0.000656209 9.04928e-06 -3.81253e-19)
(0.000377832 0.000179863 3.93608e-20)
(0.00077978 0.000497908 -1.65639e-19)
(0.000155104 8.81144e-05 2.42825e-25)
(0.00080011 0.000393465 0)
(0.000958264 0.000321999 4.16247e-20)
(0.000726935 -9.87346e-05 -6.16979e-19)
(0.000338134 0.000115463 4.98119e-19)
(0.000889015 0.000418657 0)
(5.536e-05 3.65922e-05 1.33854e-19)
(0.000467544 0.000273265 2.14166e-19)
(0.000446577 -9.62678e-05 -7.09921e-19)
(0.000179803 -0.000134008 -1.06015e-18)
(0.0008042 9.82968e-06 -4.75275e-19)
(0.000801349 -0.000113355 -1.93319e-19)
(0.000565559 0.000720129 -1.17522e-18)
(0.000829041 4.82878e-05 -6.62414e-20)
(0.000742606 -4.00804e-05 1.2604e-18)
(0.000666542 9.85403e-05 2.28045e-20)
(0.000511714 0.000218509 -1.65851e-19)
(4.15578e-05 -2.52762e-05 -8.76758e-20)
(0.000193907 -2.53294e-05 2.40847e-18)
(2.98335e-05 9.68405e-07 -1.95013e-19)
(0.000786155 9.02865e-05 3.61302e-19)
(0.000634468 0.000140378 0)
(0.000203557 -5.34773e-05 -1.04915e-18)
(0.000131324 -1.47131e-06 3.13083e-19)
(0.000131627 -3.14403e-05 -8.51113e-25)
(0.000780382 0.00011544 -3.18822e-19)
(0.000160154 -3.87498e-06 0)
(0.000568704 0.000244072 0)
(0.000111324 0.000339359 -3.63204e-19)
(0.000844088 0.000103403 2.09958e-18)
(2.42909e-05 1.70923e-06 0)
(0.000846273 3.77913e-05 0)
(5.3821e-05 -2.67676e-05 0)
(0.000811624 2.79649e-05 -4.43577e-21)
(0.000806964 -6.54253e-05 0)
(0.00426295 0.00743158 6.54379e-20)
(0.00435892 0.00748315 1.44291e-19)
(0.000839155 6.65279e-06 0)
(0.000754738 -5.86136e-05 8.13667e-19)
(0.00015417 0.000136126 1.49359e-19)
(0.000845181 7.55551e-05 7.93219e-19)
(0.000134629 0.000112805 2.34638e-20)
(0.000753073 -4.89573e-05 6.27323e-19)
(4.05312e-05 1.23136e-05 0)
(3.68162e-05 -1.70976e-05 -4.48961e-20)
(0.000869654 5.45441e-05 -4.85596e-19)
(4.58808e-05 -3.60437e-05 -6.70393e-19)
(0.000737814 0.000120553 -4.23246e-20)
(0.000167838 0.000173069 -1.88287e-19)
(0.000807505 1.32488e-05 0)
(0.00467896 0.00815978 9.28938e-22)
(0.000164847 0.000781621 3.34056e-19)
(0.000136378 -4.76143e-05 -9.15432e-19)
(7.44631e-05 -3.52607e-05 -1.16995e-18)
(0.000758808 1.88308e-05 1.8988e-20)
(0.000569228 0.000414563 0)
(0.000400394 0.000434254 -2.56577e-19)
(0.000110508 -5.14656e-05 1.18484e-18)
(0.000717098 3.44288e-06 7.68318e-20)
(4.86736e-05 2.56895e-06 4.07487e-19)
(0.000649355 -5.96188e-05 1.17305e-18)
(0.000803962 2.60974e-05 -5.98239e-19)
(8.83431e-05 -5.4884e-05 1.71081e-18)
(0.000834956 6.70136e-07 -2.80233e-24)
(0.0007344 1.08537e-05 -3.7699e-20)
(0.000853023 5.7064e-05 0)
(0.000804853 3.57635e-05 0)
(0.00592915 0.00723914 2.58645e-19)
(3.12299e-05 9.85526e-07 -1.19679e-19)
(0.000173957 -7.78163e-05 7.73663e-19)
(0.000707447 0.000120722 -6.97261e-19)
(3.55489e-05 -8.15814e-07 2.01651e-19)
(0.000572249 -2.26402e-05 -7.24667e-19)
(0.000719658 2.12146e-05 1.54868e-18)
(0.000685896 0.00015451 -3.55829e-19)
(0.00080258 -2.25338e-05 3.54469e-19)
(9.58883e-05 -2.89342e-05 1.11723e-18)
(0.000777475 9.11392e-06 -3.1943e-19)
(0.00084992 5.09938e-05 0)
(0.000526367 0.000302713 4.2145e-20)
(0.000839392 4.22841e-05 -9.2672e-19)
(3.1051e-05 -4.63767e-07 9.11802e-19)
(0.0008259 3.76873e-05 9.41175e-19)
(0.000835228 -1.85458e-05 -9.64645e-19)
(0.000704744 9.33886e-06 -5.69389e-19)
(0.000485099 -5.03328e-05 -5.26251e-19)
(0.00432977 0.00744846 2.48962e-19)
(0.00423151 0.00753496 -2.34311e-19)
(0.00422327 0.00759021 2.69767e-19)
(0.00426245 0.00743079 1.66415e-19)
(0.000842828 -4.3334e-06 1.42908e-19)
(0.00447397 0.0075041 0)
(0.00440089 0.00751539 -3.84256e-19)
(4.58818e-05 -3.20346e-07 -9.97525e-19)
(0.00416836 0.00747139 -6.3406e-20)
(0.00413775 0.00742988 -2.21936e-19)
(0.00602769 0.0106029 0)
(0.00655023 0.0111821 3.69071e-20)
(0.00600796 0.0105724 0)
(0.00656885 0.0112098 1.31962e-19)
(0.00599517 0.0105962 2.69874e-19)
(0.00661306 0.0112281 1.23154e-20)
(0.00593262 0.0106095 -7.77107e-19)
(0.00664541 0.0111468 7.71566e-21)
(0.00390207 0.00920482 -1.91051e-19)
(0.0041877 0.007495 3.75259e-21)
(0.004244 0.00756006 7.93168e-20)
(0.00414041 0.0074321 4.12338e-20)
(0.000849829 0.000178185 4.47006e-20)
(1.771e-05 2.41418e-06 0)
(0.000654146 -0.000151777 0)
(0.000729506 3.34421e-05 0)
(0.00244356 0.00110247 4.18668e-21)
(0.000731616 -2.48781e-05 1.71247e-19)
(4.72318e-05 7.9346e-06 4.54551e-20)
(2.01819e-05 -3.32516e-05 1.65418e-18)
(0.000837572 2.36196e-05 0)
(3.2693e-05 1.57941e-05 -1.91933e-19)
(0.000145136 0.000231621 0)
(3.18858e-05 -1.30929e-06 0)
(2.64403e-05 -2.00913e-06 0)
(0.000796509 0.000124701 1.13159e-20)
(0.000814225 -2.09657e-07 1.7777e-19)
(3.37047e-05 0.000313229 -6.73989e-24)
(0.000161446 0.000278421 -1.84375e-18)
(0.000591058 0.000338473 -8.57872e-20)
(0.000886522 0.00012888 6.03188e-19)
(0.000708565 -0.000398025 6.69293e-19)
(0.000326178 0.0011142 0)
(0.000454716 0.000557302 2.71726e-18)
(9.68287e-05 0.000154085 -1.80262e-18)
(3.78902e-05 4.85118e-07 0)
(0.000824134 -2.73196e-05 3.61087e-20)
(2.07167e-05 4.34117e-05 1.64624e-18)
(0.000895785 2.59529e-05 2.71597e-19)
(5.69768e-05 -0.000176586 3.78993e-18)
(0.000923875 4.10181e-05 -2.69397e-19)
(0.00140381 0.000125438 7.47825e-19)
(4.49777e-05 -1.26062e-05 8.2661e-20)
(4.47496e-05 7.65439e-06 -8.59301e-19)
(4.80885e-05 0.000156326 0)
(0.000888522 8.64721e-05 5.9818e-19)
(0.000484298 0.000370813 2.37373e-19)
(0.000782873 1.71767e-05 -3.88642e-20)
(0.000750276 -1.58697e-05 2.55979e-19)
(0.000709706 -0.000229677 0)
(0.00632145 0.0108975 -1.68069e-19)
(0.00637774 0.0109739 4.05928e-19)
(0.00615877 0.0107265 -6.18518e-19)
(0.00650225 0.0111297 -8.08122e-20)
(4.10893e-05 0.00012409 8.01379e-19)
(0.00088936 5.66102e-05 1.56021e-22)
(0.00640517 0.0109998 -3.86852e-19)
(0.00628102 0.010845 5.47936e-19)
(0.00608011 0.0106702 -4.15298e-19)
(0.00652587 0.0111634 -6.8135e-20)
(9.12743e-05 0.000560044 -2.02105e-20)
(0.000162464 -0.000187529 -7.93168e-19)
(0.000769276 -6.89831e-06 -7.59533e-19)
(0.000709606 0.000219791 0)
(0.000781797 1.684e-06 0)
(0.000184361 0.000393421 3.36623e-19)
(0.000597788 0.000553538 -5.41973e-19)
(1.95086e-05 -2.88075e-06 1.78593e-19)
(0.000209564 0.000463756 -7.39103e-19)
(0.00100374 0.000974659 -1.12819e-19)
(0.000725515 0.000171728 0)
(0.000772949 0.000169745 1.31167e-19)
(0.00637451 0.00587584 1.12894e-18)
(0.000712556 0.00114351 8.28734e-20)
(4.44039e-05 4.39515e-05 -7.45504e-20)
(0.000815193 4.45187e-05 0)
(0.000872233 2.10999e-05 -3.5737e-20)
(4.32077e-05 5.90881e-06 -1.96854e-19)
(3.71805e-05 7.34351e-06 1.93162e-19)
(0.000819335 2.03442e-05 5.36534e-19)
(0.000958042 0.000104544 6.59244e-19)
(0.00067685 4.26513e-05 0)
(0.000223446 -0.000301952 -3.98789e-19)
(0.000891227 0.000143594 3.90095e-19)
(3.58311e-05 -8.19205e-05 2.03342e-19)
(0.00144897 0.000369838 -2.58685e-18)
(0.000705085 -7.14278e-07 0)
(0.000777072 0.000140512 3.75921e-19)
(9.08486e-05 0.000407925 0)
(0.00118068 0.00816774 4.62191e-19)
(0.000465177 0.000508334 -1.2252e-18)
(0.00053909 0.000971274 -1.83924e-19)
(0.000863337 2.52218e-05 -1.45666e-19)
(1.85206e-05 3.05153e-05 0)
(0.000913381 7.32557e-05 6.12421e-19)
(0.00408842 0.00738382 8.10922e-20)
(0.00416947 0.00748046 4.7384e-20)
(0.00449587 0.00750914 4.54412e-19)
(0.00444241 0.00754103 -3.22536e-19)
(0.0064739 0.0111119 8.08962e-20)
(0.00390522 0.00714649 -1.22984e-21)
(0.00551297 0.00779267 -5.64844e-19)
(0.00408869 0.00736816 5.2188e-21)
(0.00518979 0.00785317 5.11696e-19)
(0.00406885 0.00732837 -4.83072e-20)
(0.00495303 0.00771101 0)
(0.00407078 0.00734491 -8.52626e-20)
(0.00473891 0.00758361 4.92716e-19)
(0.00408129 0.00736485 8.7113e-20)
(0.00457218 0.00752118 0)
(0.00427806 0.0074371 1.71674e-19)
(0.00424146 0.00760227 5.86645e-19)
(0.00446635 0.00752397 -5.47246e-19)
(0.00438641 0.00750047 3.71135e-19)
(0.00423642 0.00753315 2.61875e-19)
(0.00642608 0.0110391 -4.87919e-21)
(0.0041025 0.00739416 3.10744e-20)
(0.00645195 0.0110682 0)
(3.02135e-05 8.95624e-06 -1.90067e-19)
(0.00198149 0.00652724 2.28561e-19)
(0.000843722 -1.03513e-05 1.09113e-19)
(0.00085525 1.87757e-05 0)
(3.64214e-06 3.71802e-06 -3.9955e-19)
(7.21215e-05 -0.00019925 6.92706e-19)
(2.44287e-05 6.50024e-05 2.09076e-18)
(0.000808218 0.000186362 -9.01858e-20)
(0.000775546 1.05785e-05 6.98615e-19)
(4.11779e-06 -4.2525e-06 3.10336e-19)
(2.70483e-05 -4.39934e-05 -1.84738e-18)
(0.00074424 2.42544e-05 1.61593e-19)
(0.000848506 0.000127363 -3.07572e-20)
(0.000772517 -7.16715e-06 1.46816e-19)
(0.000405483 0.000656432 0)
(0.000118626 -0.000152768 1.15275e-18)
(0.000841624 1.81781e-05 1.52386e-19)
(2.35666e-05 2.86852e-05 0)
(0.00010391 0.000566196 -6.31786e-19)
(0.000606258 0.000601056 1.31865e-18)
(0.000340527 0.000727525 0)
(0.000770887 -1.48451e-05 0)
(0.000777631 2.73899e-05 1.1695e-18)
(2.38354e-05 5.40893e-05 -3.51826e-18)
(2.1557e-05 1.061e-05 3.74031e-19)
(0.000113553 0.000155954 0)
(6.24133e-05 -4.47403e-05 0)
(7.03381e-05 0.00012226 2.01186e-19)
(0.000907501 0.000173128 3.50854e-19)
(0.000795698 -1.8705e-06 -1.38493e-18)
(2.67146e-05 3.94234e-05 0)
(0.000575212 5.6283e-05 -6.02319e-20)
(0.000784022 3.30268e-05 -1.54812e-19)
(0.000826087 1.45742e-05 1.03229e-18)
(0.000254546 0.000546816 6.32837e-19)
(0.000837266 0.000146971 0)
(3.10192e-05 -3.16708e-05 5.39269e-19)
(4.47857e-06 -1.41558e-05 -3.20305e-19)
(0.00108934 1.26785e-05 0)
(0.001 0.00221469 0)
(0.00103541 -5.30686e-05 0)
(0.000980144 0.000193438 4.27704e-19)
(0.000820132 -1.72066e-05 -2.81983e-19)
(0.00089855 0.000122038 -6.85606e-19)
(0.000779245 6.93112e-06 0)
(4.45074e-05 7.79646e-05 -1.71752e-19)
(0.000172991 0.000331314 1.08222e-18)
(0.000784507 3.57721e-05 1.70799e-23)
(0.00106542 0.000188728 -6.69117e-19)
(0.00108098 0.000117104 0)
(3.68444e-06 1.23986e-05 2.51305e-19)
(2.59291e-05 -2.09827e-05 -1.94528e-19)
(0.000668322 3.08204e-05 6.88961e-21)
(4.57475e-05 -0.000110148 0)
(0.00102687 0.000249059 9.51531e-19)
(0.00502682 0.00974374 -2.83723e-19)
(0.00311691 0.00962395 1.27366e-18)
(8.45013e-05 -0.00012131 -1.91564e-19)
(8.40761e-05 -8.33831e-05 1.86168e-18)
(0.00118837 0.000222269 1.67068e-19)
(0.0013197 0.00106025 2.34308e-19)
(0.000825059 7.94672e-06 -7.35337e-19)
(0.000216706 0.000938276 -2.39124e-19)
(0.000783065 0.000884293 -2.18788e-19)
(0.000782589 -9.00898e-06 0)
(0.000100826 0.000688039 0)
(9.84923e-05 0.000287584 -4.85524e-23)
(0.000752018 -2.16294e-05 -1.94318e-23)
(0.000808039 2.37753e-05 1.51427e-19)
(0.00261732 0.00203363 -1.23154e-18)
(0.00175402 0.00924169 -1.17317e-19)
(0.000820059 2.7972e-05 4.84698e-19)
(0.00636153 0.00403807 -1.75311e-19)
(0.0067502 0.0115597 -1.31046e-20)
(0.00473326 0.0078542 4.69037e-21)
(0.000798937 3.80141e-05 -2.17627e-18)
(0.000820374 3.53223e-05 -6.1685e-24)
(1.5526e-05 -1.20679e-05 -3.48384e-19)
(4.88662e-05 9.98027e-05 -3.49658e-19)
(8.13142e-05 0.00028385 8.76725e-19)
(1.57521e-05 2.05945e-05 4.90949e-19)
(9.11043e-05 0.000241372 3.70146e-19)
(0.000818971 3.73173e-05 0)
(0.00535162 0.00948818 1.97436e-20)
(0.00151917 0.000614431 -2.62015e-20)
(0.000821815 2.22389e-05 3.55898e-19)
(6.37554e-05 -9.56723e-05 0)
(0.00184667 0.000752713 5.46197e-19)
(1.3857e-05 1.11801e-05 -2.70454e-19)
(3.94243e-05 3.42531e-05 9.72897e-20)
(0.0013185 0.0013754 6.37074e-19)
(0.00075639 3.22454e-05 1.81093e-19)
(1.22565e-05 -3.38009e-06 -1.70396e-19)
(0.00203497 0.00154497 -1.05688e-18)
(0.000128406 0.000188981 -8.19584e-19)
(0.00392315 0.00847557 -1.09113e-18)
(1.10491e-05 2.98207e-06 8.82401e-20)
(0.000205486 -0.000316488 -1.24681e-18)
(6.70362e-05 -6.1079e-05 4.06108e-20)
(0.0014971 0.000962411 0)
(0.00101638 0.000143268 -4.24336e-22)
(0.000442358 0.000855888 -4.02577e-20)
(0.000804059 2.01787e-05 -2.31644e-19)
(8.68546e-05 0.00019584 7.36218e-19)
(5.29807e-05 -7.24621e-05 4.0449e-19)
(2.23539e-05 1.9193e-05 -9.4815e-20)
(3.88643e-05 0.000104901 -3.2062e-19)
(0.000195453 -0.0003558 -5.40094e-19)
(0.00323371 0.0034297 2.96201e-21)
)
;

boundaryField
{
    back
    {
        type            empty;
    }
    ingreso
    {
        type            fixedValue;
        value           uniform (0.0008 0 0);
    }
    salida
    {
        type            zeroGradient;
    }
    front
    {
        type            empty;
    }
    defaultFaces
    {
        type            noSlip;
    }
}


// ************************************************************************* //
