/*--------------------------------*- C++ -*----------------------------------*\
  =========                 |
  \\      /  F ield         | OpenFOAM: The Open Source CFD Toolbox
   \\    /   O peration     | Website:  https://openfoam.org
    \\  /    A nd           | Version:  7
     \\/     M anipulation  |
\*---------------------------------------------------------------------------*/
FoamFile
{
    version     2.0;
    format      ascii;
    class       surfaceScalarField;
    location    "6";
    object      phi;
}
// * * * * * * * * * * * * * * * * * * * * * * * * * * * * * * * * * * * * * //

dimensions      [0 3 -1 0 0 0 0];

internalField   nonuniform List<scalar> 
1111
(
5.84199e-09
1.34846e-08
-1.50007e-08
-4.32596e-09
5.94686e-09
-1.13217e-08
1.12168e-08
-1.40659e-08
4.08506e-09
1.01593e-08
-1.78474e-10
9.54609e-11
-1.33502e-10
-1.37802e-08
1.38182e-08
-1.38184e-08
1.36278e-08
2.86072e-10
-8.15983e-10
1.48238e-08
1.42079e-09
-3.2761e-09
8.78195e-09
-1.13177e-08
5.81184e-09
-6.27637e-09
-1.21321e-08
1.22427e-08
6.16586e-09
-5.05873e-08
-2.49948e-08
7.5582e-08
-7.99518e-09
7.33069e-09
6.61135e-09
3.81082e-09
4.20679e-10
-3.90814e-09
-3.23365e-10
1.53071e-08
-1.58924e-08
-2.20098e-08
2.2595e-08
-9.68503e-09
-8.74618e-09
9.27553e-09
9.15569e-09
-3.41126e-08
1.66444e-08
-3.20695e-08
4.95377e-08
9.7009e-09
-1.806e-09
-1.41713e-08
-4.61091e-09
4.11002e-09
-2.87577e-09
3.37666e-09
-3.72229e-09
1.28352e-08
2.03616e-09
-1.11491e-08
8.92311e-09
-2.1517e-09
-1.48904e-08
8.119e-09
3.90487e-08
-3.28308e-08
-6.2179e-09
-1.88965e-08
-5.08275e-10
1.81811e-08
1.22367e-09
-9.0085e-11
3.73483e-09
-1.81281e-08
1.44833e-08
-6.74086e-08
-2.17047e-09
6.9579e-08
2.49555e-10
-1.44556e-09
-4.48749e-10
1.64476e-09
-9.61841e-10
-1.29466e-08
-2.96819e-10
-4.00385e-10
3.89052e-10
3.08152e-10
-1.01592e-08
-8.10827e-09
1.22578e-08
6.00969e-09
1.01296e-09
-2.32757e-09
-8.42167e-09
9.73628e-09
7.53308e-09
1.21241e-09
-8.24703e-09
-4.98457e-10
-2.42756e-09
-7.801e-09
1.02712e-08
-4.26681e-11
1.08872e-08
3.43764e-10
-2.3079e-09
-1.17357e-09
1.13509e-09
1.79944e-10
-1.4146e-10
-5.05876e-10
1.04042e-09
6.96158e-10
-1.2307e-09
-7.53928e-10
-5.50071e-11
7.97946e-10
1.09897e-11
4.93055e-11
-1.23221e-09
7.97602e-11
1.10314e-09
-1.95872e-12
-1.12231e-09
6.34333e-10
-1.76929e-08
-1.83787e-09
-6.6562e-10
8.77032e-11
-1.76012e-10
1.30811e-08
-1.30678e-08
3.72156e-09
-5.31263e-10
7.35679e-10
5.2715e-10
-7.31566e-10
-1.18815e-09
-2.71301e-09
2.13989e-09
1.76127e-09
-1.61544e-09
7.93346e-09
-9.59412e-09
-5.20631e-10
-2.57641e-10
1.12652e-10
-8.81579e-09
9.84577e-09
-9.02516e-09
1.15233e-08
-1.62601e-08
5.15644e-09
-4.1961e-10
1.38959e-10
-2.74114e-10
-3.85475e-10
3.52205e-10
1.02889e-09
-2.46006e-10
-6.03616e-08
7.4459e-08
-1.40974e-08
1.26725e-09
-4.73803e-10
-1.48358e-09
6.90127e-10
5.32098e-10
1.03676e-08
-1.33355e-08
2.43581e-09
-2.01031e-12
6.15547e-09
-7.23141e-09
1.07795e-09
-6.27142e-09
5.85129e-09
5.36114e-09
-4.94102e-09
-6.55647e-09
-2.62016e-09
2.36814e-09
6.8085e-09
-1.66351e-10
-8.04094e-08
8.0462e-08
1.13693e-10
1.7923e-10
-8.16429e-08
8.09009e-08
5.62713e-10
8.44727e-08
-2.48086e-09
8.99875e-10
-8.28917e-08
-3.31506e-09
1.36403e-10
9.5032e-10
1.01322e-09
-6.96287e-10
4.21211e-09
-1.99279e-09
3.24037e-09
-5.45969e-09
-1.26367e-09
1.14208e-09
-1.50983e-08
6.67115e-09
8.76673e-09
1.16745e-09
-9.4829e-09
-4.51279e-10
-5.5666e-09
1.20662e-08
1.44144e-09
-7.94101e-09
1.38326e-08
-3.54248e-09
3.08519e-09
-1.33753e-08
1.52222e-08
1.38026e-09
-1.17361e-09
1.67755e-10
-2.03307e-08
-7.85519e-09
2.80182e-08
1.31424e-08
-8.12556e-09
-2.11899e-09
7.5377e-09
-1.09853e-08
-2.10123e-10
4.29047e-10
-1.7025e-09
-3.75444e-08
-2.28172e-08
7.82846e-09
-2.47847e-10
3.94266e-09
-6.37557e-09
1.02601e-08
5.96122e-09
-7.94488e-10
4.67947e-10
6.45667e-10
-3.19126e-10
5.99087e-09
-4.51517e-09
3.49025e-09
-4.96595e-09
-7.98149e-10
-7.96349e-10
3.62287e-10
9.47297e-10
-9.22546e-10
-3.33385e-10
-1.38236e-09
1.20986e-09
-1.66854e-08
2.12372e-09
1.44866e-09
1.3113e-08
3.67219e-10
-9.3049e-10
-2.31216e-10
-3.03304e-09
-1.4545e-08
8.92635e-10
5.61786e-09
1.14068e-08
-5.23304e-09
-1.17916e-08
1.61864e-08
6.27989e-10
-1.56816e-08
-1.13275e-09
-8.81794e-10
6.38005e-10
7.11737e-10
-1.33423e-09
7.37299e-10
5.96928e-10
-6.83803e-09
-3.96981e-09
4.53642e-09
-5.73584e-10
8.01135e-10
-2.27551e-10
1.34146e-09
-1.45337e-08
-4.13069e-10
8.20037e-09
-9.40274e-09
-1.29385e-09
-1.66761e-09
1.23095e-08
4.37664e-09
-4.18525e-09
-1.25009e-08
4.40484e-10
6.82673e-09
-7.48144e-09
6.506e-09
-2.1515e-09
-8.07197e-09
7.47816e-09
2.74531e-09
-1.75053e-09
5.36552e-10
-1.3331e-08
-3.66632e-10
-2.06952e-10
-8.17857e-10
1.50704e-09
-7.24566e-09
8.9862e-10
1.68801e-08
-1.59234e-09
-1.65859e-08
1.77219e-08
-1.13604e-09
1.15601e-08
1.36174e-08
-1.5085e-08
-1.00925e-08
-1.10009e-09
1.78984e-09
-6.89754e-10
2.14685e-09
-2.87297e-09
7.26119e-10
4.06112e-09
-6.14321e-09
2.08209e-09
2.40126e-09
-2.03939e-09
-3.61874e-10
-1.34134e-08
1.00489e-10
1.33129e-08
3.22197e-09
-8.20711e-10
8.86855e-09
-1.453e-08
6.27862e-09
-7.09849e-09
2.29583e-10
4.09601e-09
-5.14768e-10
-3.64265e-09
3.87223e-09
-8.83442e-09
1.03161e-08
-1.48172e-09
-1.16281e-09
3.97816e-09
1.39676e-09
1.6383e-08
-1.44487e-08
-1.4022e-09
-4.95432e-09
4.95478e-09
-1.99325e-09
-2.9895e-10
7.82146e-09
-7.5971e-09
-2.24365e-10
7.05351e-09
4.2985e-09
4.79243e-10
-1.54336e-08
1.01041e-08
1.68895e-08
5.69014e-09
8.19011e-09
8.2807e-09
-6.38837e-09
3.67211e-10
-1.37806e-08
1.80123e-09
-6.00085e-10
-1.15385e-08
4.27006e-09
-3.97829e-10
1.56873e-08
-1.50593e-08
6.56529e-12
-1.30238e-09
-1.31991e-08
6.88862e-09
1.04201e-09
-8.03313e-11
-8.9769e-09
5.82005e-09
-3.26631e-08
-1.22389e-08
-2.14695e-09
1.18676e-09
1.34486e-08
1.09167e-08
-1.06646e-08
-1.37006e-08
1.78618e-08
-3.11328e-09
-1.47486e-08
1.90716e-09
3.71233e-09
-1.63476e-09
-1.059e-09
-1.14741e-09
1.48028e-09
7.26127e-10
-3.52697e-10
4.97291e-10
5.01073e-10
6.80699e-08
-6.79725e-08
-9.74102e-11
6.81473e-08
-6.83281e-08
1.80883e-10
7.38706e-10
6.48802e-08
-6.41483e-08
-7.31885e-10
6.63011e-08
-1.42087e-09
-2.58239e-10
-6.40923e-08
-5.59664e-11
-6.74534e-08
6.75366e-08
-8.31436e-11
1.24154e-09
-6.53339e-08
-6.7417e-08
-3.64562e-11
1.1954e-08
-1.37235e-09
2.06146e-09
-3.78649e-09
3.09739e-09
5.14315e-10
-1.3941e-09
1.28542e-09
-9.62886e-10
1.59189e-09
-1.8921e-09
1.2631e-09
1.66685e-09
-1.83024e-09
5.92436e-10
-1.34482e-10
-3.27249e-09
3.21493e-09
-2.52388e-09
2.58144e-09
-1.09124e-09
-3.00466e-09
2.72355e-09
-4.05452e-09
-5.40167e-09
7.14553e-10
-8.48737e-10
1.6018e-09
1.27551e-09
-6.61357e-09
7.95399e-09
2.95808e-09
2.21735e-08
-4.31169e-09
-8.84269e-10
3.19307e-10
1.27952e-09
-9.76025e-09
-2.77842e-08
5.50879e-09
-4.56431e-09
-3.03645e-09
2.09198e-09
1.51423e-10
-1.64063e-11
6.62928e-10
-2.98774e-09
3.62786e-09
8.46882e-09
1.01839e-09
-7.74352e-10
2.30599e-09
-2.62288e-09
2.5013e-09
1.423e-08
1.2836e-08
-2.65617e-08
3.21086e-08
5.61066e-09
-2.18602e-08
-1.03121e-08
1.76274e-08
-1.72454e-08
1.05347e-08
-4.05396e-10
1.60603e-10
-1.58545e-09
-2.07402e-09
-1.29122e-09
2.84176e-09
1.42843e-08
-4.01933e-10
-1.33458e-08
4.66474e-10
-3.12862e-09
-3.42513e-10
1.48207e-08
1.70367e-08
1.32692e-08
7.16362e-10
-1.51527e-09
-1.24703e-08
-2.10133e-09
5.9366e-09
1.19908e-08
-1.01246e-09
-1.41223e-09
-3.5046e-09
2.74026e-09
3.97926e-09
2.38546e-09
1.37624e-08
4.18045e-09
-1.35662e-08
1.65215e-08
-1.34458e-09
2.97485e-09
-3.73343e-09
1.90938e-09
-4.404e-09
1.24667e-08
-1.1785e-08
-1.33873e-08
3.603e-10
8.62299e-09
-1.99027e-09
1.70561e-09
1.88646e-09
-8.972e-09
6.24471e-10
-3.89134e-09
-6.02767e-09
1.19153e-08
-1.48596e-08
1.57882e-09
1.64753e-09
-2.10089e-09
1.59518e-08
-1.54984e-08
-9.67466e-10
1.38347e-08
2.37457e-09
-3.36076e-09
-1.35438e-08
7.16182e-09
-1.64982e-08
-7.90904e-09
6.26902e-09
5.77943e-09
1.39195e-08
-9.14139e-09
3.20819e-09
8.6785e-09
9.63497e-09
4.00916e-09
-4.02314e-09
2.09796e-08
-1.85041e-08
4.68631e-09
-9.58234e-09
2.34811e-09
4.65355e-09
1.33167e-08
-9.04965e-11
1.21069e-08
-1.29839e-08
-1.5354e-09
2.88418e-09
-2.13189e-09
7.83109e-10
1.04678e-08
-6.24784e-09
7.18684e-09
-9.9144e-09
1.49951e-09
-4.7526e-09
1.09048e-08
-1.13852e-08
-7.41392e-09
8.61207e-09
9.26968e-09
1.22295e-08
1.03132e-09
-1.33513e-08
1.84378e-09
9.12012e-10
-1.0632e-08
-6.76935e-09
9.98746e-09
-1.94577e-09
2.51927e-09
-8.33574e-09
4.58342e-09
-5.1028e-09
1.09994e-08
-3.51092e-09
-1.11313e-08
3.64286e-09
-4.54856e-09
1.07953e-08
2.25978e-09
1.28961e-09
-4.98804e-09
-1.69544e-08
1.02501e-08
1.16923e-08
9.60108e-10
-1.05675e-08
-9.92292e-09
1.55024e-08
1.17065e-08
2.67376e-09
-9.72668e-09
-1.31477e-08
-2.3672e-10
-1.23928e-08
3.4537e-10
-6.87555e-10
1.06134e-08
1.25446e-08
-8.20465e-09
1.57747e-08
-1.50296e-08
3.4354e-09
-6.41497e-10
1.60056e-09
1.21539e-08
-3.87533e-09
-1.21016e-08
-5.16605e-09
9.70669e-11
4.4689e-09
1.16578e-08
-7.55708e-09
1.0842e-09
-9.57889e-10
2.17274e-09
-2.75025e-09
5.89272e-09
2.56215e-08
-1.48753e-09
-1.48487e-08
1.63362e-08
2.6985e-08
-2.16005e-08
2.12698e-08
1.91725e-08
-1.2381e-08
-2.22344e-09
1.47136e-08
1.58759e-10
-1.18074e-08
-4.26562e-10
-5.97508e-09
-2.04252e-09
2.50985e-09
1.79245e-09
3.98466e-10
-1.03519e-08
1.01114e-08
-1.57925e-10
1.52746e-09
-5.61557e-09
-1.03056e-08
1.00028e-08
-6.75881e-10
-9.92607e-09
-1.64531e-11
-1.01423e-08
-3.10246e-09
-1.14875e-08
2.3566e-09
7.6901e-09
5.05591e-09
5.80765e-10
-1.12513e-08
1.1069e-08
7.49376e-10
-8.23248e-09
5.28746e-09
-4.56249e-10
2.89561e-09
-3.75643e-09
-1.25855e-08
-1.34244e-08
1.25176e-08
-9.98616e-09
-1.51782e-08
9.73075e-09
9.11674e-09
7.66764e-10
2.22311e-09
-1.70718e-08
1.04916e-08
1.62136e-09
4.07389e-09
4.42213e-10
-6.94565e-10
-5.45797e-10
-4.02515e-09
2.82154e-09
-1.92501e-09
5.40617e-10
-6.31502e-10
9.0885e-11
-2.48377e-09
1.23059e-08
1.88432e-09
2.53411e-09
-1.54951e-09
-2.05727e-09
1.43854e-10
-2.71176e-09
-9.30953e-10
1.24334e-08
9.52815e-09
-6.38975e-10
7.1807e-09
-1.14693e-09
-5.3948e-09
-9.95217e-09
-4.32845e-09
4.27651e-10
1.12966e-10
4.00201e-09
1.34352e-09
-1.5913e-08
-7.69718e-10
-1.03909e-09
-1.70433e-09
6.66386e-10
2.28334e-09
6.77744e-08
-1.5139e-10
-6.7623e-08
6.7312e-08
-8.60566e-11
-6.72259e-08
-1.39723e-08
2.26517e-10
1.43159e-08
-5.70123e-10
2.24884e-09
-2.20055e-09
2.92263e-09
1.79719e-09
-4.9653e-09
-7.72393e-10
-7.2999e-10
5.93985e-10
-1.8312e-10
7.36271e-10
-5.51698e-10
1.80723e-08
1.24315e-09
-1.53135e-08
-4.23859e-10
-1.94904e-09
1.19086e-08
2.19435e-09
1.77065e-09
4.49451e-09
-1.65538e-09
-8.25022e-08
-2.34328e-08
-4.83177e-09
1.52708e-08
2.39624e-09
-1.11794e-09
-3.51884e-09
-1.52973e-09
8.94527e-10
-7.77023e-10
-1.44127e-08
-3.40005e-10
1.47527e-08
-1.04226e-08
-6.70303e-09
1.03563e-08
-9.01625e-09
8.87061e-09
-3.71517e-10
2.13776e-09
1.38664e-08
-1.35394e-08
-3.27008e-10
8.51705e-10
3.21995e-11
9.11138e-09
9.83538e-10
-1.39341e-09
-5.07845e-10
-1.40053e-08
-5.46337e-10
-1.29079e-08
1.15951e-08
-1.09675e-08
-6.54539e-08
6.52936e-08
1.60299e-10
6.97061e-10
-7.13469e-10
1.13302e-08
-6.69775e-10
3.82747e-11
-1.49992e-09
2.73297e-09
-3.51373e-09
-1.33906e-08
-1.41274e-09
2.39288e-09
-4.23983e-09
-1.36066e-08
1.93334e-09
5.60234e-09
9.21327e-09
-8.75641e-09
-6.85009e-10
1.5234e-11
-9.47418e-09
-1.18002e-08
-1.04972e-10
-6.87937e-08
1.58482e-10
6.86352e-08
-1.39027e-09
6.76913e-08
-1.98111e-10
-5.82174e-10
-1.41598e-08
-2.67651e-10
-6.54751e-08
6.57427e-08
-3.41186e-10
-6.6771e-08
6.71122e-08
6.74978e-10
6.82311e-08
1.31538e-11
-6.82442e-08
6.81904e-08
4.06693e-11
-8.57169e-08
8.42616e-08
3.44299e-11
8.01131e-08
-8.01978e-08
-1.26695e-11
-8.62709e-08
-1.77906e-10
7.97425e-08
1.12341e-10
-8.59478e-08
-3.79076e-10
7.97288e-08
1.9466e-10
-2.3359e-10
1.72216e-09
7.87453e-08
-6.78147e-08
6.8312e-08
-6.84784e-08
-6.86144e-08
6.80605e-08
1.29939e-10
-3.10972e-09
2.75959e-09
-1.3216e-08
1.16452e-10
3.112e-10
2.64982e-09
1.09368e-08
-1.30885e-08
3.88691e-08
-3.44026e-08
-1.60051e-08
1.46126e-08
-1.09501e-10
-2.11017e-10
4.07564e-10
1.05252e-09
-2.22884e-10
4.64174e-10
4.71651e-09
1.0995e-09
-3.90664e-09
-6.14777e-10
7.0248e-10
-5.02125e-10
-2.46185e-09
1.25223e-08
2.24542e-09
-1.43772e-08
-2.08317e-09
-3.96601e-09
5.68328e-09
1.1252e-09
-2.30217e-09
1.36715e-08
-1.11924e-09
-5.57334e-09
1.05919e-08
-7.66904e-09
-1.85029e-08
-1.26114e-08
7.9236e-09
5.04808e-09
-3.12553e-10
-5.25809e-10
3.34821e-09
1.42202e-08
1.43552e-09
-8.31998e-10
-5.26316e-10
5.53183e-10
-3.25817e-10
1.56154e-08
-3.49217e-10
-1.56061e-08
-7.55606e-09
-3.19807e-09
3.06534e-10
-3.72822e-10
5.09797e-09
-1.95799e-08
7.2241e-10
-1.78872e-09
-2.43196e-09
-1.90241e-09
1.51026e-08
-8.05938e-08
-1.56786e-10
8.04438e-08
-6.78216e-11
-8.28336e-08
9.231e-10
8.05404e-08
-9.10771e-11
-8.06007e-08
-7.23322e-10
-1.88611e-09
1.58207e-08
8.0352e-08
4.65619e-10
3.77723e-11
1.44479e-10
1.23523e-08
1.88104e-09
-1.12384e-08
-1.16177e-08
-5.13132e-09
8.41457e-09
1.46532e-09
-6.92181e-09
-6.61549e-09
9.04587e-09
-3.63164e-10
1.00962e-08
1.85638e-08
-1.74195e-08
3.02391e-09
-1.21659e-08
3.08828e-09
-6.93285e-08
3.87458e-09
-2.00159e-08
-1.2306e-08
-6.66156e-10
-5.84602e-09
-1.51367e-08
9.17525e-09
-1.49093e-08
6.51184e-10
5.58951e-10
-1.41812e-09
-1.58395e-08
1.63543e-08
1.14169e-08
-1.12805e-08
-5.64957e-09
1.43709e-08
-1.48674e-09
7.8737e-10
-1.67592e-09
7.72813e-10
1.17522e-08
3.56473e-09
7.08942e-08
-1.75808e-08
9.20467e-10
-1.43006e-08
-3.52497e-10
-4.0137e-10
-3.91605e-10
6.76852e-08
-6.77763e-08
-6.54373e-08
-6.63054e-08
8.64341e-11
-2.84205e-10
-8.0403e-08
-6.8124e-08
6.98461e-08
6.61934e-08
-6.79293e-08
6.59598e-08
-6.7817e-08
6.55808e-08
-6.78297e-08
6.54029e-08
8.03562e-08
4.49035e-10
-6.25356e-09
7.57773e-08
-6.5959e-08
1.83446e-10
-1.83446e-10
2.74574e-09
-3.90579e-10
1.53963e-08
-2.1437e-10
2.1437e-10
5.7499e-10
7.95979e-10
1.46328e-08
1.24574e-08
-2.04188e-09
3.09336e-09
6.56043e-09
1.87653e-09
5.10726e-10
-3.65929e-10
-2.89457e-09
1.41954e-08
1.48075e-08
-4.4854e-09
1.1168e-08
3.23333e-10
2.42157e-10
3.06383e-09
-1.11996e-09
-1.86567e-09
-5.39919e-09
-1.84877e-10
-5.46656e-10
1.50504e-08
4.36758e-10
2.26114e-10
1.83563e-08
-2.48212e-08
1.68829e-08
2.50423e-09
1.55689e-09
1.94887e-09
-3.43477e-09
1.87521e-08
-1.72662e-08
-1.83181e-10
1.19009e-09
-2.55695e-09
-8.01744e-08
-7.03717e-08
1.50591e-09
-1.38033e-09
7.70024e-10
2.25708e-08
1.72627e-08
-6.34538e-09
2.67827e-10
-4.53742e-09
-1.54437e-09
3.05187e-08
5.22523e-10
1.2656e-08
6.39188e-08
1.48794e-10
6.0323e-10
-2.67912e-10
-3.40407e-10
-3.95268e-09
2.30695e-08
-1.46605e-08
1.31567e-09
-1.26023e-08
-1.27758e-10
2.03447e-08
-2.77299e-08
9.27834e-10
3.0358e-09
-8.57779e-10
)
;

boundaryField
{
    back
    {
        type            empty;
        value           nonuniform 0();
    }
    ingreso
    {
        type            calculated;
        value           nonuniform List<scalar> 
14
(
-1.54286e-08
-1.54288e-08
-1.54288e-08
-1.54288e-08
-1.54286e-08
-1.54283e-08
-1.54288e-08
-1.54288e-08
-1.54286e-08
-1.54286e-08
-1.54288e-08
-1.5428e-08
-1.5428e-08
-1.54286e-08
)
;
    }
    salida
    {
        type            calculated;
        value           nonuniform List<scalar> 2(1.05935e-07 1.10065e-07);
    }
    front
    {
        type            empty;
        value           nonuniform 0();
    }
    defaultFaces
    {
        type            calculated;
        value           uniform 0;
    }
}


// ************************************************************************* //
