/*--------------------------------*- C++ -*----------------------------------*\
  =========                 |
  \\      /  F ield         | OpenFOAM: The Open Source CFD Toolbox
   \\    /   O peration     | Website:  https://openfoam.org
    \\  /    A nd           | Version:  7
     \\/     M anipulation  |
\*---------------------------------------------------------------------------*/
FoamFile
{
    version     2.0;
    format      ascii;
    class       volVectorField;
    location    "6";
    object      U;
}
// * * * * * * * * * * * * * * * * * * * * * * * * * * * * * * * * * * * * * //

dimensions      [0 1 -1 0 0 0 0];

internalField   nonuniform List<vector> 
591
(
(0.000816961 -4.63807e-05 1.23106e-18)
(0.000736169 -4.84189e-05 -6.76537e-19)
(0.00083249 -5.00246e-05 5.79759e-20)
(0.000819059 1.56138e-05 -1.5114e-19)
(0.000814791 2.33185e-05 2.28573e-19)
(0.000611844 -9.36699e-06 -1.41869e-19)
(0.000497458 -0.000365305 8.12771e-19)
(0.000808621 -1.40314e-05 2.13012e-18)
(0.00564973 0.00247062 1.00962e-18)
(0.000782613 -2.64372e-05 2.43778e-18)
(7.41596e-05 0.000180279 1.24054e-18)
(0.000884493 0.00123249 9.62472e-21)
(0.000762724 1.58217e-05 1.31963e-18)
(0.00151485 0.00240883 -8.03971e-19)
(0.000799773 8.09657e-05 -4.501e-19)
(0.000187884 -0.000255148 3.62507e-22)
(0.000127583 0.0006508 7.2045e-19)
(0.000870844 3.45437e-05 -5.03755e-19)
(0.00200412 0.00045246 4.79775e-19)
(0.00130999 0.00031926 -2.54513e-19)
(0.000791247 4.45452e-05 3.74102e-19)
(0.00406859 0.00770923 5.16691e-20)
(4.50321e-05 8.12017e-05 2.7679e-19)
(0.000806949 2.25236e-07 -4.53929e-19)
(2.13048e-05 -2.78058e-05 3.67093e-19)
(0.00082273 2.15333e-05 0)
(9.04372e-05 0.000473064 1.6352e-19)
(0.000503121 3.50308e-05 -1.82973e-19)
(0.000707484 7.87065e-05 1.15864e-18)
(0.000818534 -8.13979e-05 5.97687e-19)
(7.15305e-05 1.77776e-06 3.39954e-24)
(5.36025e-05 -5.77748e-05 3.60297e-19)
(5.0131e-05 -5.50537e-06 -4.74594e-20)
(6.05426e-05 -6.21069e-06 0)
(6.49602e-05 -1.77584e-05 1.15507e-18)
(0.00114599 0.000160303 1.84665e-19)
(4.44921e-05 -8.75419e-06 4.57469e-20)
(0.000801688 2.94886e-06 3.92457e-23)
(4.27022e-05 5.7145e-05 2.71757e-19)
(8.87612e-05 -0.000161691 -8.73652e-19)
(0.000501363 -0.000142779 9.78576e-19)
(3.75309e-05 -1.14419e-05 4.65317e-20)
(0.000789219 -1.12931e-05 -1.58045e-18)
(0.000819926 -2.18048e-05 -6.86614e-19)
(2.80387e-05 -1.36321e-05 0)
(6.71936e-05 1.33605e-05 8.71489e-20)
(0.00121357 0.0045562 9.1512e-19)
(8.98469e-05 2.68915e-05 8.83503e-20)
(0.000787008 9.15681e-05 0)
(0.000352082 -0.000104111 6.93857e-19)
(0.000363803 0.000281625 5.23609e-21)
(0.000381564 9.11969e-05 -1.02687e-18)
(0.00598696 0.00949439 -5.64528e-19)
(0.00606936 0.0095732 1.28959e-20)
(0.00578312 0.0105581 1.54247e-18)
(0.000799884 -8.0001e-05 0)
(7.81369e-05 4.16577e-05 0)
(0.000348151 2.90844e-05 2.73622e-24)
(7.64929e-05 1.82551e-05 -3.54319e-19)
(0.000927441 -2.63325e-05 0)
(0.000588429 2.73179e-05 3.23952e-19)
(0.00074822 4.82144e-05 2.21426e-18)
(0.000729798 -9.1779e-06 -5.49469e-19)
(0.000624809 1.35296e-05 -3.2019e-19)
(0.00169423 0.000530804 5.5727e-19)
(0.000811419 -1.13653e-05 -1.14963e-18)
(0.000752142 4.25574e-05 -5.23223e-19)
(9.96019e-05 8.10683e-06 -1.77324e-19)
(0.00080769 0.00236173 0)
(0.000798493 2.07441e-05 0)
(0.000692468 1.28651e-05 -1.40075e-18)
(4.72412e-05 2.19146e-05 0)
(0.000276312 0.000277117 3.34309e-19)
(5.68354e-05 -2.40535e-05 0)
(5.43749e-05 -8.4634e-06 1.63132e-19)
(4.23934e-05 -6.37769e-05 -3.44356e-20)
(0.000745186 2.79607e-05 2.47872e-19)
(5.43038e-05 1.58968e-05 0)
(0.000767452 8.83909e-05 4.49832e-19)
(0.000731734 0.000301675 2.15631e-19)
(0.000950427 6.29525e-05 -4.07399e-20)
(5.24549e-05 3.07855e-05 -4.62265e-20)
(5.84979e-06 -5.46231e-05 0)
(0.000411761 0.000227198 1.74074e-19)
(4.7903e-08 4.21848e-05 0)
(0.000708505 -6.30072e-05 -6.12073e-19)
(0.000531581 -8.88681e-05 0)
(7.98123e-05 4.74414e-06 -1.78433e-19)
(3.6487e-06 -7.15931e-05 0)
(0.000793411 0.000230403 -3.49211e-19)
(3.9965e-06 -3.42543e-05 0)
(0.00040742 0.000321965 -1.21184e-23)
(0.000495528 0.000118022 0)
(0.000785908 2.81283e-05 1.65678e-23)
(2.27767e-06 2.92158e-05 -4.31418e-20)
(0.000419857 2.53814e-05 1.80422e-18)
(0.00100086 8.04136e-05 4.26018e-20)
(0.001063 1.31889e-05 6.56546e-22)
(0.00073127 0.000639555 2.73548e-19)
(-1.68524e-07 7.77898e-05 0)
(7.10541e-06 -0.000145503 -3.19429e-19)
(1.14349e-05 -0.000245055 -1.12576e-18)
(-3.84166e-06 0.000118839 -6.0914e-19)
(0.000789907 -2.85481e-06 0)
(-2.84655e-06 0.000149454 0)
(0.000767221 -3.15736e-05 2.20331e-18)
(0.000699568 6.96853e-05 1.52739e-18)
(0.000390028 -2.60672e-05 0)
(6.34853e-05 0.000237465 -9.12845e-19)
(-6.01071e-07 0.000232306 5.06646e-19)
(0.000107883 0.000516514 6.39366e-19)
(0.000274753 0.000148051 -9.5308e-19)
(0.000840375 -2.28394e-05 1.37795e-19)
(0.000273009 1.03682e-05 5.43091e-19)
(-6.8746e-07 5.57083e-05 0)
(7.38787e-05 0.000334245 -1.11265e-18)
(0.000308237 0.000329284 -1.65394e-19)
(8.07587e-06 -0.000105959 1.49945e-19)
(0.000616613 0.000743471 0)
(0.000349011 0.000386729 5.87524e-20)
(0.000825591 -1.10344e-06 1.05507e-18)
(0.000619165 -8.89659e-05 -2.75448e-18)
(4.25253e-06 -0.000194929 0)
(0.000804508 -9.87458e-06 -1.13772e-19)
(0.000311723 -3.31112e-05 1.27212e-18)
(0.00277982 0.00083061 -3.4359e-19)
(-1.25773e-05 0.000182033 -6.26241e-19)
(-3.30025e-05 0.000229493 1.65411e-18)
(0.00092588 1.85399e-05 -3.97713e-20)
(7.72992e-05 -8.62934e-07 -7.66507e-19)
(0.000769083 5.32849e-05 -3.97522e-19)
(0.000984065 2.45054e-05 -4.19479e-20)
(9.09206e-05 0.000418812 -6.0981e-19)
(0.000458524 8.6135e-05 -5.05277e-19)
(6.26092e-05 -1.15333e-06 1.59715e-19)
(0.000857222 -3.71745e-05 -1.08227e-18)
(0.00163794 0.000249996 -1.15247e-18)
(-4.45081e-06 9.04572e-05 5.07137e-19)
(0.000770366 1.40583e-06 -5.10551e-19)
(0.000866893 0.000526838 -8.03226e-20)
(0.000146232 0.000916792 0)
(0.000537746 6.99641e-05 0)
(0.000256487 6.4405e-05 -1.6382e-18)
(7.1174e-05 6.92781e-05 -1.40569e-18)
(3.82518e-05 2.67963e-05 0)
(0.00437463 0.00825103 -1.09336e-20)
(0.00438208 0.00821138 5.65508e-20)
(0.0045603 0.00838264 -3.9774e-20)
(0.00401607 0.00765531 0)
(0.00419117 0.00782933 5.79621e-19)
(0.00438454 0.00824706 -1.17974e-19)
(0.00383511 0.00764354 5.11584e-19)
(0.00432511 0.00826611 0)
(0.00372795 0.00807241 6.71517e-19)
(0.0043118 0.00827716 2.72903e-19)
(0.000812094 -2.4992e-05 -1.36974e-18)
(0.000709893 8.10894e-05 0)
(0.000219138 8.24548e-05 1.30648e-19)
(6.08047e-05 2.3078e-05 8.91918e-20)
(8.82688e-05 5.60098e-05 6.95659e-19)
(0.000117931 5.38688e-05 -3.49457e-19)
(0.000113382 1.91177e-05 0)
(5.9593e-05 9.34497e-06 8.36927e-20)
(0.000203372 0.000150771 0)
(0.000177059 6.72926e-05 -5.36279e-20)
(0.000329052 0.000232337 -5.20885e-21)
(6.42057e-05 5.33896e-05 -4.47728e-19)
(0.000102624 3.94152e-05 -8.72093e-20)
(9.987e-05 7.40137e-05 1.34207e-21)
(0.000244486 0.000370429 -6.81382e-19)
(0.000168739 0.00113069 0)
(5.04869e-05 6.08264e-05 3.50951e-19)
(0.000233136 0.00185809 0)
(0.000204473 0.000261933 7.20761e-19)
(4.67755e-05 -8.13456e-06 1.13862e-19)
(0.000454619 0.000172232 -1.76239e-19)
(0.000796035 2.95179e-05 -1.8941e-18)
(5.40939e-05 1.40803e-06 5.47836e-24)
(0.000158522 4.64339e-05 2.29539e-19)
(0.000236358 0.000117358 -9.20029e-20)
(0.000851724 0.000677147 3.4266e-19)
(0.00066802 0.00164681 -9.44646e-21)
(0.000430228 0.00133134 -9.65569e-21)
(0.000994952 0.000551289 0)
(0.00011738 -9.70123e-06 1.14356e-18)
(0.000132136 3.22714e-05 -4.53366e-20)
(0.000404007 -0.000193881 -1.16447e-18)
(0.000792824 4.41423e-05 0)
(0.000182051 5.14564e-05 3.70364e-19)
(0.000212237 0.0014213 0)
(0.00101331 0.000717214 -7.47036e-20)
(0.000799291 4.65832e-05 -1.86617e-19)
(9.90784e-05 -1.77534e-05 -3.06792e-19)
(0.000791343 0.000287923 -2.12847e-20)
(9.0944e-05 -2.50139e-05 -6.11431e-19)
(0.000225596 0.000186729 8.82871e-20)
(0.000223292 0.00031275 -3.52896e-19)
(0.00085083 0.000228545 0)
(0.000766662 1.59819e-05 0)
(0.000259462 0.000155501 1.80737e-19)
(0.000235896 2.77191e-05 2.26708e-24)
(0.000184632 0.000216193 0)
(0.000278605 0.000628522 -5.67394e-21)
(0.000322737 2.2208e-05 0)
(0.000304243 0.000574341 0)
(0.000118212 9.72594e-05 -1.37763e-21)
(0.000778349 -3.21184e-05 -9.56323e-19)
(0.000870954 -2.19031e-05 7.88843e-19)
(0.000137594 7.53381e-05 -1.533e-19)
(0.000923771 0.000150264 8.71396e-20)
(0.000812506 4.99739e-05 3.34659e-19)
(0.000780858 3.35767e-05 -3.00385e-19)
(0.00096909 0.00040162 0)
(0.000416634 0.000128113 6.38791e-19)
(0.000861685 0.000310668 2.13963e-20)
(0.000538786 0.000171294 0)
(0.000278202 0.000432627 4.1899e-19)
(0.000252875 0.000230727 -8.63498e-20)
(0.00107643 0.000383828 -8.00162e-19)
(0.000576861 0.00012366 -1.83425e-19)
(0.000782305 0.000131938 -7.47278e-21)
(0.000803085 3.29402e-05 9.54156e-20)
(0.000121373 -9.87736e-05 -2.0259e-18)
(0.000711269 0.000368771 2.24318e-19)
(0.000617634 8.00084e-05 2.35702e-20)
(0.000673809 0.000270339 1.29259e-23)
(0.000694114 0.000433689 -4.18551e-19)
(0.000820612 2.80486e-05 9.18131e-20)
(7.93125e-05 9.35986e-05 0)
(0.000621683 0.000431156 -4.766e-20)
(0.000184319 0.000117656 0)
(0.000361852 0.000516417 -2.69287e-19)
(0.000307599 0.000185101 0)
(0.000643903 0.000213048 3.63484e-19)
(0.000616135 0.0002795 -4.47391e-20)
(8.26471e-05 0.000109979 6.32063e-19)
(0.000909416 0.000102735 -1.60505e-18)
(6.86709e-05 3.03843e-05 2.63113e-19)
(0.000930706 9.00884e-05 -1.65943e-18)
(0.000729747 -2.00005e-05 1.63067e-19)
(0.000775221 -1.38717e-05 1.93294e-18)
(0.000791624 4.42655e-06 -1.34474e-19)
(0.000669436 7.47215e-05 0)
(0.000895921 1.49333e-05 9.05811e-19)
(0.000908808 0.000247045 -4.36636e-19)
(0.000736045 8.24959e-05 -4.89576e-19)
(0.000746028 0.000234211 -9.01828e-20)
(0.000254921 -8.14769e-05 -2.12687e-18)
(0.000706329 9.56336e-05 9.08338e-19)
(0.000568566 0.000570685 0)
(0.000142404 -8.35535e-05 0)
(0.0011512 0.000444608 5.05693e-19)
(0.000853533 -0.000235092 -3.29954e-18)
(0.00122682 0.000412785 5.83629e-19)
(0.00125417 0.000735333 -6.46356e-20)
(0.000784786 5.26714e-05 -2.15745e-19)
(0.000784744 9.92564e-05 -1.4336e-18)
(0.00075295 0.000106405 1.58993e-18)
(0.000740149 -6.10391e-05 9.79132e-20)
(0.000649942 0.00034212 -4.5062e-20)
(0.000114632 0.000156028 5.95804e-23)
(0.000680414 -7.23484e-05 2.71331e-19)
(0.000272513 -0.000154135 -7.5344e-19)
(0.000590213 0.000197698 0)
(0.000657053 2.89614e-05 1.00426e-19)
(0.000640348 4.45252e-06 -3.84776e-19)
(0.000371708 0.000186519 4.01395e-20)
(0.000753329 0.000492014 -1.69317e-19)
(0.000158853 9.61752e-05 1.16332e-25)
(0.0007846 0.000377296 0)
(0.00093905 0.000319276 4.25315e-20)
(0.000701071 -0.000116976 -6.2944e-19)
(0.000332052 0.000109514 5.07751e-19)
(0.0008686 0.000407396 0)
(5.88805e-05 3.99273e-05 1.36788e-19)
(0.000458518 0.000273268 2.18842e-19)
(0.000434469 -7.70963e-05 -7.25688e-19)
(0.000200843 -0.000122045 -1.08321e-18)
(0.000737438 -4.1736e-05 -4.88093e-19)
(0.000777603 -0.000110711 -1.97226e-19)
(0.000531666 0.000755561 -1.1855e-18)
(0.000812532 7.65516e-05 -6.75088e-20)
(0.00079139 -0.000124526 1.28575e-18)
(0.000647547 0.000102622 2.33056e-20)
(0.00050031 0.000223498 -1.69471e-19)
(4.71022e-05 -2.76521e-05 -8.95915e-20)
(0.000221071 -2.01019e-05 2.44129e-18)
(3.91367e-05 7.18326e-07 -1.9926e-19)
(0.000758902 8.05693e-05 3.66708e-19)
(0.00061993 0.000148279 0)
(0.000211905 -3.80003e-05 -1.06859e-18)
(0.000133976 2.0147e-05 3.19384e-19)
(0.000150295 -3.29826e-05 -2.15144e-23)
(0.000773631 0.000113561 -3.19444e-19)
(0.000158745 -5.49473e-06 0)
(0.000556386 0.000247571 0)
(0.000111503 0.000341432 -3.71098e-19)
(0.000795665 0.000166538 2.10974e-18)
(3.20466e-05 1.69375e-06 0)
(0.00078709 -4.30675e-05 0)
(5.87038e-05 -2.73081e-05 0)
(0.000840098 2.37774e-05 -4.48222e-21)
(0.0008174 -6.72112e-05 0)
(0.00436271 0.00825447 8.31764e-20)
(0.00427825 0.00827316 1.37549e-19)
(0.00083191 1.24126e-05 0)
(0.000733608 -6.97067e-05 8.30386e-19)
(0.000154513 0.000142187 1.52632e-19)
(0.000923096 5.70672e-05 8.05886e-19)
(0.000136126 0.000120053 2.39781e-20)
(0.000716456 -8.0325e-05 6.37598e-19)
(4.36735e-05 1.42579e-05 0)
(4.14573e-05 -1.98343e-05 -4.58818e-20)
(0.000852008 9.4565e-05 -4.87997e-19)
(5.29092e-05 -3.81015e-05 -6.84988e-19)
(0.000728311 0.000133421 -4.33158e-20)
(0.000167307 0.000176125 -1.92413e-19)
(0.000789168 1.98902e-05 0)
(0.00454259 0.00853645 1.26773e-21)
(0.000163824 0.000767253 3.41288e-19)
(0.000140591 -4.50035e-05 -9.31871e-19)
(8.1122e-05 -3.66051e-05 -1.19411e-18)
(0.000853078 2.13991e-05 1.93561e-20)
(0.000547195 0.000419746 0)
(0.000382636 0.000418792 -2.61162e-19)
(0.000127361 -4.40528e-05 1.21021e-18)
(0.00081123 6.14901e-06 7.88285e-20)
(5.25832e-05 1.76392e-06 4.16042e-19)
(0.000614065 -5.12086e-05 1.19878e-18)
(0.000764414 -2.44542e-06 -6.09923e-19)
(0.000101312 -5.31783e-05 1.74796e-18)
(0.000822661 9.69656e-06 4.75274e-24)
(0.000828201 1.73966e-05 -3.85289e-20)
(0.00080157 0.000102628 0)
(0.00075127 4.67513e-05 0)
(0.00568277 0.00731134 2.8038e-19)
(4.06677e-05 7.01946e-06 -1.22293e-19)
(0.00020856 -6.37233e-05 7.88471e-19)
(0.000695562 0.000117175 -7.12769e-19)
(4.51866e-05 -1.25256e-06 2.06008e-19)
(0.00055247 -1.43315e-05 -7.40537e-19)
(0.000664938 -3.17842e-05 1.55951e-18)
(0.000669382 0.000157311 -3.63693e-19)
(0.000785199 -7.25077e-05 3.66021e-19)
(0.000110633 -2.6065e-05 1.14156e-18)
(0.000625116 2.06726e-05 -3.27284e-19)
(0.000835782 7.88877e-05 0)
(0.000516382 0.000306181 4.30725e-20)
(0.000892182 1.77807e-05 -9.40427e-19)
(3.92326e-05 -6.11816e-06 9.31472e-19)
(0.000762471 -1.60946e-05 9.61755e-19)
(0.000765814 -8.71227e-05 -9.73273e-19)
(0.000674294 3.59169e-05 -5.76531e-19)
(0.000471162 -3.14685e-05 -5.3778e-19)
(0.00428835 0.008275 3.03654e-19)
(0.00421462 0.00837705 -3.15686e-19)
(0.00431087 0.00808741 3.54386e-19)
(0.00436469 0.00824376 2.66009e-19)
(0.000829076 7.77444e-06 1.46053e-19)
(0.00411411 0.00811094 0)
(0.00422782 0.00824479 -5.84968e-19)
(6.17573e-05 -6.92372e-07 -1.01903e-18)
(0.00424358 0.00832057 -7.1501e-20)
(0.00424041 0.0083102 -3.34659e-19)
(0.00629788 0.0100462 0)
(0.0059207 0.00952337 5.6626e-20)
(0.00630354 0.0101888 0)
(0.00591114 0.00950145 2.21498e-19)
(0.00625063 0.0103405 2.92807e-19)
(0.00587697 0.00948722 2.91792e-20)
(0.00616307 0.0105408 -8.44928e-19)
(0.0058979 0.00945845 3.15298e-20)
(0.00350058 0.00890631 -1.97725e-19)
(0.00419555 0.00833353 5.49703e-21)
(0.00425684 0.00835532 1.11217e-19)
(0.004245 0.00832076 6.27567e-20)
(0.000841384 0.00017161 4.57099e-20)
(2.37644e-05 2.66433e-06 0)
(0.000621318 -0.00014515 0)
(0.00079843 3.62048e-05 0)
(0.00239884 0.00106116 4.19989e-21)
(0.000600239 -8.48215e-06 1.75243e-19)
(5.0511e-05 9.67303e-06 4.64349e-20)
(2.72151e-05 -3.2118e-05 1.69005e-18)
(0.000831231 3.34518e-05 0)
(3.53433e-05 1.78398e-05 -1.96142e-19)
(0.000147967 0.000233503 0)
(4.23752e-05 -1.07911e-06 0)
(3.52725e-05 -2.0505e-06 0)
(0.000793953 0.000137786 1.16049e-20)
(0.000855819 3.05834e-05 1.79556e-19)
(3.8364e-05 0.000360137 2.72589e-22)
(0.000162246 0.000278816 -1.88402e-18)
(0.000583208 0.000347994 -8.76679e-20)
(0.000857966 0.000117834 5.98508e-19)
(0.000734604 -0.000564584 6.76659e-19)
(0.000312364 0.00108899 0)
(0.000477199 0.000512281 2.71179e-18)
(0.000106061 0.000148553 -1.83225e-18)
(4.79275e-05 6.70912e-07 0)
(0.000872975 -1.75088e-06 3.6542e-20)
(2.25625e-05 4.77289e-05 1.6825e-18)
(0.000883219 2.83614e-05 2.7571e-19)
(0.000127833 -0.000374946 3.86701e-18)
(0.00090963 4.60306e-05 -2.75413e-19)
(0.00157594 0.000100206 7.65292e-19)
(4.97407e-05 -1.41118e-05 8.44651e-20)
(4.60795e-05 1.12235e-05 -8.78017e-19)
(4.41717e-05 0.000172783 0)
(0.000846535 0.00011869 5.98037e-19)
(0.000471722 0.00037432 2.42555e-19)
(0.000881441 1.65635e-05 -3.96088e-20)
(0.000713565 -1.74087e-05 2.61419e-19)
(0.000642432 -0.000227201 0)
(0.00599352 0.00949715 -1.49761e-19)
(0.00599145 0.00949347 3.03867e-19)
(0.0061866 0.00966906 -6.89127e-19)
(0.0059516 0.00952874 -6.60338e-20)
(4.63362e-05 0.000116389 8.1706e-19)
(0.000870115 4.17495e-05 9.34069e-23)
(0.00599102 0.00949961 -2.99277e-19)
(0.0060119 0.00951434 6.28617e-19)
(0.00627329 0.00983688 -4.85514e-19)
(0.00595003 0.00952249 -6.99931e-20)
(0.000115551 0.000624183 -2.06613e-20)
(0.000205493 -0.000163252 -8.13211e-19)
(0.000891646 -1.8893e-06 -7.71431e-19)
(0.000696059 0.000215321 0)
(0.000639283 -2.76265e-05 0)
(0.00018551 0.000392412 3.43982e-19)
(0.000607974 0.000592783 -5.43207e-19)
(2.66137e-05 -3.35197e-06 1.82514e-19)
(0.000210939 0.000463281 -7.55272e-19)
(0.000986584 0.000950194 -1.15332e-19)
(0.000713654 0.000174588 0)
(0.000757169 0.000164788 1.33289e-19)
(0.00626332 0.00581166 1.19647e-18)
(0.000663649 0.00110923 8.46879e-20)
(4.73175e-05 4.68343e-05 -7.61852e-20)
(0.000860732 2.65074e-05 0)
(0.000860658 9.58368e-06 -3.60818e-20)
(4.63247e-05 7.64597e-06 -2.01102e-19)
(4.04805e-05 9.15418e-06 1.97341e-19)
(0.00080228 2.18504e-05 5.42584e-19)
(0.000943447 0.000113314 6.73876e-19)
(0.000784863 9.1102e-05 0)
(0.000266815 -0.000240372 -4.10033e-19)
(0.000862834 0.000135981 3.9465e-19)
(4.74883e-05 -9.17946e-05 2.07726e-19)
(0.00153009 0.000377981 -2.59303e-18)
(0.000798182 2.9218e-06 0)
(0.000764227 0.000121574 3.78148e-19)
(9.17363e-05 0.000406861 0)
(0.000970706 0.00815857 4.72709e-19)
(0.000467163 0.00051978 -1.23567e-18)
(0.00052034 0.000948539 -1.87964e-19)
(0.000851206 2.42136e-05 -1.47897e-19)
(2.19879e-05 3.41798e-05 0)
(0.00090066 7.8942e-05 6.18353e-19)
(0.00426981 0.00825624 1.09341e-19)
(0.00420935 0.00832018 5.84976e-20)
(0.00417002 0.00808962 4.90366e-19)
(0.00420303 0.00821933 -3.93624e-19)
(0.00594685 0.00952566 8.10472e-20)
(0.00428615 0.00825366 2.62741e-20)
(0.00524254 0.0079834 -6.01095e-19)
(0.00436874 0.00834922 5.87929e-21)
(0.00488735 0.00802038 5.63025e-19)
(0.0043663 0.00832324 -9.19399e-20)
(0.00459099 0.00796561 0)
(0.00435041 0.00829254 -9.58515e-20)
(0.00438049 0.00796812 5.37694e-19)
(0.00433533 0.00827463 9.21795e-20)
(0.00425461 0.00802227 0)
(0.00435735 0.00827528 2.17888e-19)
(0.00432854 0.00827434 7.93452e-19)
(0.00415184 0.00816026 -6.05437e-19)
(0.00426747 0.00826741 4.28188e-19)
(0.00421546 0.00836315 3.00227e-19)
(0.00597842 0.00950043 -3.82005e-21)
(0.00423356 0.00828935 4.35994e-20)
(0.00595775 0.00950839 0)
(3.33549e-05 1.08218e-05 -1.94235e-19)
(0.00215537 0.00649725 2.34882e-19)
(0.000832545 4.93449e-06 1.11364e-19)
(0.000842601 2.05478e-05 0)
(4.8485e-06 5.37563e-06 -4.08311e-19)
(0.000124073 -0.000209734 7.06684e-19)
(2.2601e-05 7.17031e-05 2.13224e-18)
(0.000794984 0.00018684 -9.21786e-20)
(0.000616806 5.33523e-06 7.14996e-19)
(5.51715e-06 -6.26111e-06 3.17156e-19)
(2.96774e-05 -5.14638e-05 -1.88712e-18)
(0.000615627 5.26579e-06 1.65422e-19)
(0.00078266 0.000104844 -3.05755e-20)
(0.000614878 -5.16756e-06 1.49914e-19)
(0.000436105 0.000670203 0)
(0.000150402 -0.000149842 1.17817e-18)
(0.000829401 2.41893e-05 1.54338e-19)
(2.68159e-05 3.11426e-05 0)
(0.000101283 0.000555411 -6.45102e-19)
(0.000623101 0.000525967 1.31704e-18)
(0.000327716 0.000723079 0)
(0.000610009 -1.73713e-06 0)
(0.000619088 0.000119775 1.18951e-18)
(2.96934e-05 5.08911e-05 -3.59102e-18)
(2.46268e-05 1.23575e-05 3.82233e-19)
(0.000108744 0.000157325 0)
(7.06034e-05 -4.70949e-05 0)
(8.24582e-05 0.000126998 2.04899e-19)
(0.000884843 0.000183467 3.58002e-19)
(0.000747456 -8.87352e-05 -1.4038e-18)
(3.09364e-05 4.29239e-05 0)
(0.000640709 0.000135461 -6.13801e-20)
(0.000628098 6.94835e-06 -1.58648e-19)
(0.000893318 -7.046e-06 1.05891e-18)
(0.000243715 0.000543443 6.46079e-19)
(0.000816738 0.000129374 0)
(3.97392e-05 -3.69518e-05 5.50816e-19)
(4.66663e-06 -1.96595e-05 -3.27307e-19)
(0.00119178 -2.34979e-05 0)
(0.000881143 0.00205069 0)
(0.00106455 -0.00017741 0)
(0.000959767 0.000193739 4.36812e-19)
(0.000871962 -3.2438e-06 -2.84939e-19)
(0.00087986 0.000129687 -6.91654e-19)
(0.000622113 4.55574e-05 0)
(4.74955e-05 8.08667e-05 -1.75548e-19)
(0.000172532 0.000331671 1.10586e-18)
(0.000773326 1.59106e-05 -7.46887e-23)
(0.00106088 0.000176688 -6.84535e-19)
(0.00105842 0.000124447 0)
(3.8522e-06 1.68644e-05 2.56815e-19)
(3.02501e-05 -2.41645e-05 -1.98764e-19)
(0.000764041 6.00279e-05 7.05643e-21)
(6.40322e-05 -0.000123504 0)
(0.00101002 0.000265775 9.72302e-19)
(0.0051264 0.00993536 -2.96208e-19)
(0.00285915 0.00953665 1.33535e-18)
(0.000106001 -0.000125673 -1.95757e-19)
(9.76601e-05 -8.81707e-05 1.90241e-18)
(0.00116615 0.000231477 1.71187e-19)
(0.0012459 0.00102885 2.39489e-19)
(0.000812274 2.11192e-05 -7.39779e-19)
(0.000219094 0.000911848 -2.44291e-19)
(0.000767019 0.000866834 -2.22494e-19)
(0.000640488 -4.98476e-05 0)
(0.000123139 0.000756021 0)
(0.000101065 0.000287273 -7.08799e-23)
(0.000850525 -1.19483e-05 -6.19255e-23)
(0.00083245 -2.79143e-05 1.54447e-19)
(0.0025621 0.00187976 -1.2671e-18)
(0.00160979 0.00921709 -1.22675e-19)
(0.00073254 4.58884e-05 4.8966e-19)
(0.00619394 0.00403956 -1.88056e-19)
(0.00596369 0.00966251 -3.80422e-20)
(0.00457951 0.00850442 1.2498e-20)
(0.000750403 0.000125371 -2.19613e-18)
(0.000809053 3.86798e-05 -3.43249e-24)
(1.88654e-05 -1.53551e-05 -3.5597e-19)
(5.35511e-05 0.000103826 -3.57338e-19)
(9.22787e-05 0.00028307 8.95967e-19)
(1.87036e-05 2.36288e-05 5.01711e-19)
(9.63164e-05 0.000242568 3.78231e-19)
(0.000796402 7.35017e-05 0)
(0.00519199 0.0089759 -5.60009e-21)
(0.00136897 0.000593203 -2.61704e-20)
(0.000816713 1.43863e-05 3.62025e-19)
(8.00506e-05 -0.000101702 0)
(0.00192131 0.000636877 5.58863e-19)
(1.63851e-05 1.36078e-05 -2.76391e-19)
(4.22081e-05 3.72949e-05 9.94229e-20)
(0.00131756 0.00143415 6.53279e-19)
(0.000848819 2.87959e-05 1.82572e-19)
(1.69206e-05 -4.43454e-06 -1.74136e-19)
(0.00201492 0.00143376 -1.08723e-18)
(0.000131986 0.000193296 -8.35338e-19)
(0.00404651 0.00859636 -1.14008e-18)
(1.50043e-05 3.82317e-06 9.01754e-20)
(0.000217128 -0.000484292 -1.26164e-18)
(7.19192e-05 -6.22224e-05 4.14974e-20)
(0.00150701 0.000865226 0)
(0.000992913 0.000146471 -5.00494e-22)
(0.00040971 0.000849316 -4.11285e-20)
(0.000848198 1.93635e-05 -2.34005e-19)
(8.55953e-05 0.000201751 7.50825e-19)
(6.53203e-05 -7.76376e-05 4.1337e-19)
(2.53469e-05 2.10955e-05 -9.68962e-20)
(4.39324e-05 0.000110532 -3.27536e-19)
(0.00021769 -0.000332904 -5.52344e-19)
(0.0032979 0.00345324 2.92075e-21)
)
;

boundaryField
{
    back
    {
        type            empty;
    }
    ingreso
    {
        type            fixedValue;
        value           uniform (0.0008 0 0);
    }
    salida
    {
        type            zeroGradient;
    }
    front
    {
        type            empty;
    }
    defaultFaces
    {
        type            noSlip;
    }
}


// ************************************************************************* //
