/*--------------------------------*- C++ -*----------------------------------*\
  =========                 |
  \\      /  F ield         | OpenFOAM: The Open Source CFD Toolbox
   \\    /   O peration     | Website:  https://openfoam.org
    \\  /    A nd           | Version:  7
     \\/     M anipulation  |
\*---------------------------------------------------------------------------*/
FoamFile
{
    version     2.0;
    format      ascii;
    class       volScalarField;
    location    "39.5";
    object      p;
}
// * * * * * * * * * * * * * * * * * * * * * * * * * * * * * * * * * * * * * //

dimensions      [0 2 -2 0 0 0 0];

internalField   nonuniform List<scalar> 
591
(
0.000123967
0.000123985
0.000123995
0.000123952
0.000123953
0.00012403
0.000124023
0.000123985
0.000117017
0.000123996
0.000124163
0.000122895
0.000123999
0.000119769
0.000123986
0.000124039
0.000123937
0.000124024
0.000122011
0.000123368
0.000123959
-3.50848e-06
0.000124162
0.000123962
0.000124121
0.000123982
0.000124064
0.000124082
0.000123994
0.000124013
0.00012414
0.000124117
0.000124136
0.000124134
0.000124137
0.000123469
0.000124132
0.000123966
0.000124157
0.000124076
0.000124055
0.000124129
0.000123991
0.000124011
0.000124126
0.000124144
0.000119283
0.000124147
0.000124
0.000124112
0.000124085
0.000124121
2.39394e-05
3.05924e-05
4.78602e-05
0.000124
0.000124151
0.000124134
0.000124145
0.000123968
0.000124051
0.000123987
0.000123989
0.000124043
0.000122612
0.000123988
0.000123993
0.000124143
0.000120777
0.000124004
0.000123995
0.000124149
0.00012411
0.00012413
0.000124135
0.000124112
0.000123961
0.000124146
0.000123966
0.00012389
0.000123745
0.000124151
0.000124113
0.000124083
0.000124158
0.000123976
0.000124068
0.000124141
0.000124105
0.000123858
0.000124118
0.000124053
0.000124076
0.000123971
0.000124157
0.000124111
0.000123674
0.000123572
0.00012371
0.000124161
0.000124073
0.000123982
0.000124165
0.000123954
0.000124164
0.000123992
0.000123984
0.000124115
0.000124155
0.000124159
0.000124044
0.000124132
0.000124005
0.00012414
0.00012416
0.000124136
0.000124085
0.000124091
0.000123642
0.000124052
0.000123989
0.000124001
0.000124045
0.000123975
0.000124131
0.000120266
0.000124163
0.000124137
0.000123745
0.000124136
0.00012398
0.000123668
0.000124098
0.000124095
0.000124139
0.000123999
0.000122647
0.000124164
0.000123985
0.000123644
0.00012371
0.000124066
0.000124142
0.000124157
0.000124152
7.61386e-06
3.68104e-06
2.08231e-06
3.81648e-05
3.6708e-05
5.67727e-06
3.83098e-05
1.57513e-05
3.72853e-05
1.78164e-05
0.000123988
0.000123976
0.00012415
0.000124148
0.000124154
0.000124152
0.000124145
0.000124143
0.000124147
0.000124148
0.000124108
0.000124155
0.00012415
0.000124155
0.000124086
0.000123448
0.000124157
0.000122184
0.00012413
0.000124139
0.000124081
0.000123996
0.000124139
0.000124149
0.000124144
0.000123554
0.000122533
0.000123107
0.000123514
0.000124142
0.000124147
0.000124083
0.000123962
0.000124139
0.00012302
0.000123371
0.000123964
0.000124137
0.000123833
0.000124131
0.00012414
0.000124112
0.000123804
0.000123951
0.000124137
0.000124148
0.000124142
0.000123936
0.000124125
0.000123932
0.000124156
0.000123985
0.000123982
0.000124153
0.00012377
0.000123952
0.000123996
0.000123616
0.000124102
0.000123762
0.000124048
0.000124051
0.000124128
0.000123532
0.000124041
0.000123941
0.000123949
0.000124113
0.000123869
0.000124031
0.000123939
0.000123846
0.000123942
0.000124158
0.000123912
0.000124152
0.000123992
0.000124127
0.000123983
0.000123981
0.000124159
0.000123883
0.000124149
0.000123875
0.000123922
0.000123992
0.000123969
0.000123999
0.000123989
0.00012375
0.000123958
0.000123906
0.00012412
0.000123979
0.000123815
0.000124107
0.000123374
0.000123917
0.000123275
0.000123146
0.000123975
0.000123939
0.000123973
0.000123969
0.000123926
0.000124157
0.000124016
0.000124098
0.000124017
0.000124019
0.000124032
0.000124107
0.000123761
0.000124152
0.000123799
0.000123692
0.000124005
0.000124127
0.00012371
0.000124152
0.000124054
0.000124096
0.00012411
0.000124001
0.000123961
0.000123772
0.000123935
0.000123951
0.000124006
0.000124052
0.000124125
0.000124138
0.000124146
0.000123915
0.000124012
0.000124131
0.00012414
0.000124136
0.000123937
0.000124147
0.000124019
0.000124123
0.000123903
0.000124148
0.000123894
0.000124127
0.00012403
0.000123962
1.16472e-05
2.19163e-05
0.000123932
0.000123989
0.000124155
0.000123923
0.000124156
0.000124002
0.000124148
0.000124128
0.000123882
0.000124122
0.000123956
0.00012415
0.000123994
-2.11664e-07
0.000123833
0.00012413
0.000124127
0.000123842
0.000123967
0.000124002
0.000124122
0.000123905
0.000124142
0.000124036
0.000123988
0.00012412
0.000123951
0.000123876
0.000123902
0.000124002
4.74415e-05
0.000124137
0.00012412
0.000123982
0.000124143
0.000124061
0.000124007
0.000123983
0.000123983
0.000124131
0.000124016
0.000123916
0.000124017
0.000123919
0.000124143
0.000123927
0.000123974
0.000124014
0.000124096
1.98798e-05
2.73364e-05
3.43021e-05
9.63935e-06
0.000123964
3.30597e-05
2.59991e-05
0.00012414
1.9082e-05
1.70416e-05
3.81961e-05
7.56892e-06
3.99502e-05
5.61112e-06
4.08456e-05
3.70344e-06
4.28287e-05
1.88902e-06
3.63986e-05
2.32001e-05
2.94517e-05
1.50034e-05
0.000123836
0.00012415
0.000124033
0.00012404
0.000120959
0.000124093
0.000124145
0.000124117
0.000123938
0.000124151
0.000124145
0.000124133
0.00012413
0.0001239
0.000123984
0.000124129
0.000124134
0.000123974
0.000123858
0.000123881
0.000123466
0.000123925
0.000124161
0.000124137
0.000123996
0.000124158
0.000123841
0.000124002
0.000123798
0.000122919
0.000124131
0.000124142
0.000124159
0.000123848
0.000124013
0.0001238
0.000124004
0.000123989
2.60403e-05
2.18761e-05
3.30414e-05
1.16258e-05
0.000124165
0.000123846
1.98257e-05
2.82561e-05
3.56095e-05
9.58391e-06
0.000123976
0.000124086
0.000123941
0.000123947
0.000123997
0.000124092
0.000123885
0.000124128
0.000124057
0.000123162
0.000123952
0.000123919
5.93202e-05
0.000123286
0.000124155
0.000123973
0.000123877
0.000124144
0.000124147
0.00012396
0.000123754
0.00012399
0.000124063
0.000123835
0.000124103
0.000122969
0.000123932
0.00012393
0.000124101
0.000100864
0.000123949
0.000123551
0.00012391
0.000124156
0.000123807
1.09015e-05
2.11195e-05
3.53753e-05
2.81868e-05
1.36788e-05
5.88549e-08
4.20654e-05
2.696e-06
4.01587e-05
4.76789e-06
3.9423e-05
6.81642e-06
3.86313e-05
8.85973e-06
3.72981e-05
1.36816e-05
3.17316e-05
3.0584e-05
2.39396e-05
2.5281e-05
1.77793e-05
1.29478e-05
1.57273e-05
0.00012415
0.000102498
0.000123966
0.000123906
0.000124153
0.000124048
0.000124159
0.00012388
0.000124027
0.000124124
0.000124118
0.000124142
0.000123885
0.000124001
0.000123864
0.000124088
0.000123934
0.000124154
0.000124011
0.000123843
0.000123846
0.000124013
0.000124004
0.000124161
0.000124151
0.000124157
0.000124122
0.000124161
0.000123798
0.00012399
0.000124155
0.000123934
0.000124068
0.000123989
0.000124008
0.000123864
0.000124122
0.000124121
0.000123436
0.000121422
0.000123166
0.00012371
0.00012399
0.000123815
0.000124009
0.000124159
0.000124116
0.000123996
0.000123599
0.000123583
0.000124155
0.000124124
0.000124014
0.000124091
0.000123635
5.83478e-05
4.01236e-05
0.000124097
0.000124113
0.000123479
0.000122815
0.000123973
0.000123693
0.000123437
0.000123994
0.000123869
0.000124138
0.000124017
0.000124047
0.000119062
5.44901e-05
0.000124013
8.12404e-05
1.8671e-06
-3.82019e-07
0.000123984
0.000123954
0.000124123
0.00012416
0.000124147
0.000124155
0.000124149
0.00012397
-2.30182e-06
0.000122896
0.000124002
0.000124104
0.000122073
0.000124153
0.000124153
0.000122348
0.000124084
0.000124125
0.000121735
0.000124153
7.64016e-05
0.000124152
0.000123685
0.000124117
0.000122442
0.000123689
0.00012373
0.000124017
0.000124156
0.000124111
0.000124153
0.000124164
0.000123998
0.000116244
)
;

boundaryField
{
    back
    {
        type            empty;
    }
    ingreso
    {
        type            zeroGradient;
    }
    salida
    {
        type            fixedValue;
        value           uniform 0;
    }
    front
    {
        type            empty;
    }
    defaultFaces
    {
        type            zeroGradient;
    }
}


// ************************************************************************* //
