/*--------------------------------*- C++ -*----------------------------------*\
  =========                 |
  \\      /  F ield         | OpenFOAM: The Open Source CFD Toolbox
   \\    /   O peration     | Website:  https://openfoam.org
    \\  /    A nd           | Version:  7
     \\/     M anipulation  |
\*---------------------------------------------------------------------------*/
FoamFile
{
    version     2.0;
    format      ascii;
    class       surfaceScalarField;
    location    "101";
    object      phi;
}
// * * * * * * * * * * * * * * * * * * * * * * * * * * * * * * * * * * * * * //

dimensions      [0 3 -1 0 0 0 0];

internalField   nonuniform List<scalar> 
1111
(
7.05514e-09
1.29222e-08
-1.60497e-08
-3.92757e-09
6.99607e-09
-1.17851e-08
1.18442e-08
-1.47408e-08
5.7902e-09
8.81902e-09
1.31536e-10
9.3372e-10
-1.08122e-09
-1.43836e-08
1.45311e-08
-1.43475e-08
1.41514e-08
1.12978e-09
-1.61739e-09
1.4915e-08
2.13096e-09
-2.73556e-09
9.4111e-09
-9.41968e-09
2.74414e-09
-6.72278e-09
-1.2612e-08
1.25974e-08
6.73741e-09
-5.0213e-08
-2.60945e-08
7.63075e-08
-8.10815e-09
7.72008e-09
7.38413e-09
3.27882e-09
3.73425e-10
-3.35858e-09
-2.93666e-10
1.58737e-08
-1.62603e-08
-2.32562e-08
2.36429e-08
-9.66614e-09
-7.89891e-09
8.80283e-09
8.76222e-09
-3.55836e-08
1.77262e-08
-3.23615e-08
5.02189e-08
9.49534e-09
-1.96221e-09
-1.42559e-08
-4.13698e-10
1.40461e-09
-2.80679e-09
1.81588e-09
-3.95632e-09
1.33148e-08
1.97214e-09
-1.13306e-08
8.8108e-09
-2.67828e-09
-1.50558e-08
8.92329e-09
3.7203e-08
-2.98721e-08
-7.33097e-09
-1.94346e-08
3.16187e-10
1.72327e-08
1.8857e-09
-1.07223e-09
4.2366e-09
-1.7842e-08
1.46777e-08
-6.12261e-08
-3.96161e-09
6.51877e-08
1.37116e-10
-1.12317e-09
-3.26835e-10
1.31289e-09
-1.78041e-09
-1.36393e-08
-7.36993e-11
-2.2293e-10
1.64743e-10
1.31886e-10
-1.03946e-08
-8.59163e-09
1.31626e-08
5.82363e-09
6.82805e-10
-2.13055e-09
-8.24837e-09
9.69611e-09
8.71217e-09
7.57205e-10
-9.77268e-09
3.0331e-10
-2.87519e-09
-8.05761e-09
1.11296e-08
-1.96833e-10
1.14112e-08
-1.03878e-09
-1.56157e-09
-7.82713e-10
7.90152e-10
-1.99816e-11
1.25419e-11
-6.22607e-11
6.51693e-10
1.84199e-10
-7.73632e-10
-4.05895e-10
-3.99254e-11
4.37457e-10
8.36433e-12
-5.43668e-11
-7.4493e-10
1.14843e-10
6.84454e-10
-1.10365e-10
-7.26716e-10
9.95595e-10
-1.83894e-08
-2.04078e-09
-3.28612e-10
3.7343e-11
-1.14628e-10
1.33803e-08
-1.32451e-08
4.10139e-09
-3.42956e-10
5.32168e-10
3.12126e-10
-5.01338e-10
-3.26803e-12
-1.23108e-09
1.07569e-09
1.58657e-10
-1.90235e-09
1.06502e-08
-1.14834e-08
-2.29809e-10
-1.40672e-10
4.18684e-11
-8.72424e-09
1.05608e-08
-9.94467e-09
1.22746e-08
-1.71422e-08
4.5453e-09
3.22332e-10
4.72165e-11
-1.36633e-10
-1.40393e-10
1.43378e-10
7.35009e-10
-8.82356e-11
-5.95215e-08
7.42323e-08
-1.47108e-08
9.89291e-10
-2.06013e-10
-1.09686e-09
3.13582e-10
1.14411e-09
1.03065e-08
-1.37131e-08
2.26253e-09
-1.86477e-09
7.83066e-09
-8.9489e-09
2.98302e-09
-6.75898e-09
5.58782e-09
5.7046e-09
-4.53344e-09
-7.78657e-09
-1.55882e-09
1.63641e-09
7.70898e-09
-1.80612e-10
-9.09145e-08
9.13001e-08
-2.0493e-10
-2.55831e-10
-8.97493e-08
9.01591e-08
-1.5391e-10
8.30781e-08
-1.49254e-09
1.10301e-10
-8.16959e-08
-2.79085e-09
-5.38757e-10
6.01365e-10
8.03701e-10
-4.15776e-10
3.89981e-09
-9.58418e-10
3.52242e-09
-6.46381e-09
-9.04368e-10
8.41732e-10
-1.49241e-08
6.57737e-09
9.91379e-09
1.06841e-09
-1.06986e-08
-2.836e-10
-6.07421e-09
1.35534e-08
9.57327e-10
-8.43654e-09
1.43819e-08
-4.56785e-09
3.79547e-09
-1.36095e-08
1.53909e-08
1.6738e-09
-1.63592e-09
-1.98897e-10
-2.00673e-08
-7.4252e-09
2.76914e-08
1.44928e-08
-8.83513e-09
-1.87061e-09
8.03399e-09
-1.22376e-08
3.57848e-11
1.6665e-11
-1.14931e-09
-3.61396e-08
-2.33819e-08
8.34385e-09
3.00782e-10
3.62992e-09
-6.98318e-09
1.12347e-08
6.30928e-09
-5.57047e-10
2.90362e-10
4.49549e-10
-1.82864e-10
5.70239e-09
-4.81283e-09
3.68125e-09
-4.57081e-09
-3.95799e-10
-5.93313e-10
2.44182e-10
5.9897e-10
-5.24055e-10
2.43339e-11
-7.14279e-10
6.27684e-10
-1.82117e-08
2.40132e-09
1.59004e-09
1.42204e-08
1.96088e-10
-6.46667e-10
-1.06468e-10
-4.20261e-09
-1.51744e-08
1.16531e-09
5.6127e-09
1.21004e-08
-5.23411e-09
-1.2479e-08
1.63947e-08
7.34479e-10
-1.58569e-08
-1.27222e-09
-6.37383e-10
4.16453e-10
5.11291e-10
-2.87777e-10
1.37022e-10
1.50755e-10
-7.4755e-09
-3.50945e-09
4.22597e-09
-1.89274e-10
2.9901e-10
-1.09736e-10
1.08203e-09
-1.56793e-08
-7.69048e-10
1.00309e-08
-1.11642e-08
-8.88566e-10
-2.63444e-10
1.29686e-08
4.45283e-09
-4.19159e-09
-1.32298e-08
6.3321e-11
7.20311e-09
-7.98593e-09
6.37063e-09
-1.60256e-09
-9.06588e-09
8.26371e-09
2.40473e-09
-1.93854e-09
6.91371e-10
-1.39272e-08
-1.00299e-10
-8.89761e-11
3.41386e-10
6.44254e-10
-8.77221e-09
7.69622e-10
1.7271e-08
-1.64598e-09
-1.19881e-08
1.33706e-08
-1.38255e-09
1.22609e-08
1.39234e-08
-1.54952e-08
-1.06891e-08
-4.78074e-10
8.96981e-10
-4.18908e-10
2.16833e-10
-3.88213e-11
-1.78011e-10
4.20904e-11
4.51065e-10
-4.93155e-10
1.28855e-09
-1.0341e-09
-2.54456e-10
-1.05272e-08
9.43689e-10
9.5835e-09
1.90527e-09
-6.16713e-10
8.97747e-09
-1.54159e-08
7.81209e-09
-9.33547e-09
6.30307e-11
3.62291e-09
-4.07127e-10
-2.27869e-09
2.34172e-09
-6.44009e-09
7.77629e-09
-1.3362e-09
-4.67998e-10
4.28372e-09
8.40885e-11
1.72596e-08
-1.44779e-08
-1.63764e-09
-6.14782e-09
5.44271e-09
-2.53303e-10
-1.79064e-10
5.75728e-09
-5.73624e-09
-2.10437e-11
6.84689e-09
4.5601e-09
-4.66122e-11
-1.59315e-08
1.04734e-08
1.7719e-08
5.80997e-09
8.24003e-09
8.17633e-09
-6.84936e-09
1.42007e-09
-1.19473e-08
2.10544e-10
1.47229e-09
-1.301e-08
2.76297e-09
-4.21247e-10
1.12185e-08
-1.0484e-08
-2.80817e-10
-7.18114e-10
-1.38223e-08
7.75385e-09
6.92557e-10
4.43818e-12
-8.88641e-09
4.99266e-09
-3.00709e-08
-1.25173e-08
-2.83652e-09
1.53145e-09
1.4117e-08
1.10737e-08
-1.08297e-08
-1.43611e-08
1.53775e-08
-3.15852e-09
-1.2219e-08
1.60511e-09
4.00283e-09
-9.48403e-10
-8.81126e-10
-8.16962e-10
1.10625e-09
5.91838e-10
-2.16502e-10
3.34866e-10
3.31185e-10
6.2144e-08
-6.21702e-08
2.61572e-11
6.20636e-08
-6.23678e-08
3.04227e-10
8.37449e-10
6.47312e-08
-6.55584e-08
8.27198e-10
6.41232e-08
6.07946e-10
-2.23815e-10
-6.65039e-08
9.45529e-10
-6.20601e-08
6.19252e-08
1.34853e-10
1.3152e-09
-6.78191e-08
-6.22201e-08
1.60039e-10
1.26888e-08
-6.08606e-10
1.22598e-09
-3.69804e-09
3.08066e-09
2.93713e-10
-1.15602e-09
8.76261e-10
-5.23255e-10
1.36471e-09
-1.58962e-09
7.48162e-10
1.3657e-09
-1.44728e-09
9.82481e-11
-4.23467e-11
-3.45178e-09
2.68888e-09
-1.91504e-09
2.67793e-09
-3.75029e-10
-2.70794e-09
2.47437e-09
-3.49848e-09
-5.84778e-09
5.68418e-10
-5.81679e-10
1.14699e-09
1.09398e-09
-6.44612e-09
7.88353e-09
3.12268e-09
1.97317e-08
-4.35419e-09
-6.73529e-10
2.79627e-10
9.6232e-10
-1.00871e-08
-2.60525e-08
5.26982e-09
-4.22362e-09
-3.1897e-09
2.1435e-09
9.34575e-11
2.49078e-11
3.1909e-10
-2.51377e-09
3.30198e-09
9.00068e-09
6.96865e-10
-1.69285e-10
2.06523e-09
-2.27097e-09
1.77703e-09
1.47107e-08
1.33298e-08
-2.69275e-08
3.2714e-08
6.32079e-09
-2.28415e-08
-1.04068e-08
1.85341e-08
-1.80217e-08
1.05613e-08
-3.426e-11
-2.31141e-10
-1.18188e-09
-1.66066e-09
-2.87669e-09
3.33889e-09
1.51591e-08
-6.28439e-10
-1.38393e-08
-7.96268e-10
-2.24321e-09
3.31533e-10
1.54731e-08
1.77717e-08
1.36991e-08
7.53508e-10
-1.72561e-09
-1.2727e-08
-1.46439e-09
5.9775e-09
1.26038e-08
-4.38709e-10
-1.00612e-09
-3.65692e-09
2.80297e-09
3.54283e-09
2.50494e-09
1.45389e-08
4.30004e-09
-1.43861e-08
1.80851e-08
-1.76072e-09
2.40382e-09
-3.33485e-09
1.91421e-09
-4.95161e-09
1.2932e-08
-1.19367e-08
-1.40516e-08
3.07943e-10
8.79208e-09
-1.78363e-09
1.48903e-09
1.44158e-09
-8.66311e-09
7.02579e-10
-4.55674e-09
-5.99144e-09
1.21782e-08
-1.48499e-08
1.02976e-09
1.67857e-09
-2.20107e-09
1.68382e-08
-1.63158e-08
-1.12541e-09
1.41961e-08
3.104e-09
-4.47563e-09
-1.40443e-08
7.5874e-09
-1.74341e-08
-8.17494e-09
6.8765e-09
5.87572e-09
1.46407e-08
-1.00802e-08
3.0095e-09
9.47542e-09
9.82657e-09
3.86694e-09
-4.21767e-09
2.17932e-08
-1.92561e-08
5.05026e-09
-1.06446e-08
2.16952e-09
5.69499e-09
1.39802e-08
-3.60164e-10
1.282e-08
-1.35853e-08
-1.93365e-09
1.67331e-09
-6.68028e-10
9.28374e-10
1.10799e-08
-6.36632e-09
7.38682e-09
-1.104e-08
1.46379e-09
-4.744e-09
1.15157e-08
-1.20058e-08
-7.5846e-09
9.24106e-09
9.42347e-09
1.29513e-08
5.65471e-10
-1.38769e-08
1.42197e-09
7.78266e-10
-1.11571e-08
-6.72599e-09
1.02985e-08
-1.34592e-09
2.51154e-09
-8.99839e-09
4.77333e-09
-5.31234e-09
1.16344e-08
-3.4741e-09
-1.18523e-08
3.69203e-09
-4.46645e-09
1.13568e-08
1.80084e-09
1.11016e-09
-5.05598e-09
-1.78583e-08
1.05363e-08
1.23779e-08
7.19669e-10
-1.10684e-08
-1.00501e-08
1.60625e-08
1.26494e-08
2.87868e-09
-9.83307e-09
-1.3342e-08
-3.25571e-10
-1.27602e-08
1.62985e-10
-7.68376e-10
1.1735e-08
1.25532e-08
-8.23817e-09
1.6709e-08
-1.60746e-08
3.6656e-09
-4.99118e-10
1.79445e-09
1.2925e-08
-3.93387e-09
-1.27367e-08
-5.0084e-09
1.87851e-09
4.60218e-09
1.23526e-08
-7.23932e-09
9.85175e-10
-1.6736e-09
5.17275e-10
-7.7733e-10
5.93282e-09
2.64217e-08
-3.56281e-11
-9.43239e-09
9.46802e-09
2.86226e-08
-2.23736e-08
2.21179e-08
1.97769e-08
-1.27214e-08
-2.70861e-09
1.5144e-08
1.59447e-10
-1.2145e-08
-4.55797e-10
-6.00773e-09
-1.84415e-09
2.17549e-09
1.4695e-09
-4.78529e-10
-1.11539e-08
1.15943e-08
3.80963e-11
3.02488e-09
-5.05027e-09
-1.11741e-08
1.07095e-08
-9.24283e-10
-1.08841e-08
-2.46947e-10
-1.13759e-08
-2.48073e-09
-1.20953e-08
2.1582e-09
7.89533e-09
5.15061e-09
-4.82188e-10
-1.18251e-08
1.18287e-08
5.54442e-10
-8.8883e-09
5.12834e-09
-1.56196e-09
2.1733e-09
-1.9684e-09
-1.30613e-08
-1.25029e-08
1.19851e-08
-1.01715e-08
-1.58132e-08
1.00532e-08
9.2971e-09
8.14317e-10
2.72017e-09
-1.21526e-08
1.15363e-08
1.66247e-09
3.8891e-09
2.73588e-10
-4.67404e-10
-2.01984e-10
-4.15748e-09
2.50641e-09
-5.92144e-10
1.58228e-10
-1.86548e-10
2.83204e-11
-2.70611e-09
1.31157e-08
2.23977e-09
2.53181e-09
1.91399e-10
-1.32482e-09
-5.66977e-10
-2.27574e-09
-2.3096e-10
1.30685e-08
1.01321e-08
-3.03406e-10
6.76441e-09
-1.24588e-09
-5.21513e-09
-9.8393e-09
-5.1403e-09
1.19674e-10
3.85527e-11
4.87014e-09
1.33932e-09
-1.72778e-08
-3.04331e-10
-7.27692e-10
-2.77967e-09
1.02841e-09
3.1394e-09
6.19466e-08
-8.56268e-11
-6.18609e-08
6.23712e-08
1.89035e-10
-6.25602e-08
-1.41117e-08
-2.95085e-10
1.4456e-08
-4.9217e-11
3.15847e-09
-1.75564e-09
2.46634e-09
1.80083e-09
-4.52837e-09
-2.7535e-10
-4.95406e-10
4.02239e-10
-8.96967e-11
3.94502e-10
-2.61587e-10
1.97405e-08
1.03812e-09
-1.59085e-08
-1.20044e-10
-1.93904e-09
1.2579e-08
2.28507e-09
1.80942e-09
5.34554e-09
-2.13021e-09
-7.72327e-08
-2.41781e-08
-5.00371e-09
1.58479e-08
2.47053e-09
1.40904e-11
-2.88197e-09
-1.02502e-09
2.64784e-10
-2.45886e-10
-9.78347e-09
-3.67454e-10
1.01509e-08
-1.08962e-08
-6.57655e-09
1.07468e-08
-9.50745e-09
8.74908e-09
2.56833e-10
1.43057e-09
9.32957e-09
-9.28841e-09
-4.11611e-11
5.67491e-10
8.7028e-11
1.08253e-08
5.22063e-10
-7.12718e-10
-5.54698e-11
-1.42492e-08
-4.539e-10
-1.38511e-08
1.27461e-08
-1.1907e-08
-6.60354e-08
6.49923e-08
1.0431e-09
2.14507e-10
-1.896e-10
1.20761e-08
-1.93782e-10
7.23369e-12
-2.08023e-09
2.75553e-09
-3.41717e-09
-1.34691e-08
-1.62424e-09
2.57515e-09
-4.68324e-09
-1.41428e-08
1.54819e-09
5.54708e-09
9.71337e-09
-9.08234e-09
-2.16519e-10
2.27366e-11
-9.30221e-09
-1.34181e-08
1.51054e-10
-6.26954e-08
2.36278e-10
6.24591e-08
6.95268e-10
6.3428e-08
-2.23606e-10
-1.66044e-09
-1.45035e-08
1.07967e-10
-6.34073e-08
6.32993e-08
1.83467e-10
-6.29486e-08
6.27651e-08
3.17077e-10
6.1799e-08
1.50267e-10
-6.19492e-08
6.16302e-08
1.68732e-10
-8.78894e-08
8.84986e-08
-1.26996e-12
9.33934e-08
-9.31e-08
-2.67299e-10
-8.66286e-08
-4.33566e-10
9.33525e-08
-1.82853e-10
-8.49155e-08
-7.67541e-10
9.34832e-08
1.73496e-10
-5.22196e-10
1.96137e-09
9.23593e-08
-6.93116e-08
6.21396e-08
-6.23202e-08
-6.29512e-08
6.14879e-08
1.42316e-10
-3.14557e-09
2.95862e-09
-1.41992e-08
4.39346e-11
7.57397e-11
1.18663e-09
8.70711e-09
-1.13854e-08
3.83202e-08
-3.45542e-08
-1.6776e-08
1.38112e-08
-3.43852e-11
-2.03033e-10
1.30857e-10
5.74092e-10
-1.16974e-10
3.02711e-10
4.42605e-09
1.04735e-09
-3.55919e-09
-1.43895e-10
1.81237e-10
-1.02027e-10
-2.591e-09
1.32627e-08
2.44406e-09
-1.44264e-08
-2.63008e-09
-3.27668e-09
5.52089e-09
1.04866e-09
-2.62178e-09
1.43423e-08
-1.18422e-09
-1.68833e-09
1.73667e-09
-8.11805e-09
-1.90777e-08
-1.35087e-08
8.03492e-09
5.78175e-09
-1.98886e-10
-5.69641e-10
2.94402e-09
1.44896e-08
2.28933e-09
-1.86391e-09
-3.67872e-10
4.18159e-10
-2.29351e-10
1.59263e-08
-5.99059e-10
-1.56947e-08
1.56129e-10
-1.18763e-10
3.33061e-10
-2.63676e-10
3.41373e-09
-1.62519e-08
4.26841e-10
-1.4866e-09
-2.07087e-09
-2.28848e-09
1.57292e-08
-9.05921e-08
-1.38924e-10
9.16794e-08
-1.90348e-10
-8.91646e-08
-4.76735e-10
9.31027e-08
-2.75179e-10
-9.29131e-08
-5.37673e-10
-1.56564e-09
1.6853e-08
9.19808e-08
-1.96798e-10
2.92247e-11
-2.20911e-10
9.74843e-09
2.46109e-09
-7.26111e-09
-1.22477e-08
-5.67695e-09
8.39763e-09
1.505e-09
-6.77995e-09
-5.98712e-09
9.0463e-09
-5.48114e-11
1.0134e-08
1.95012e-08
-1.79898e-08
3.08686e-09
-1.27626e-08
3.11273e-09
-6.99644e-08
3.92896e-09
-2.06041e-08
-1.3059e-08
-4.62044e-10
-5.92962e-09
-1.52968e-08
9.08143e-09
-1.51105e-08
3.9969e-10
3.38313e-10
-1.93054e-09
-1.67064e-08
1.71127e-08
7.12958e-09
-7.66833e-09
-4.51818e-09
1.5317e-08
-1.67837e-09
7.03659e-10
-8.39921e-10
7.90288e-11
1.1969e-08
3.32002e-09
7.09123e-08
-1.82487e-08
6.95657e-10
-1.5056e-08
-2.21285e-10
-2.56323e-10
-1.17078e-10
6.09506e-08
-6.12257e-08
-6.3378e-08
-6.31454e-08
-6.42723e-11
-2.62166e-10
-9.25867e-08
-6.0453e-08
6.24144e-08
6.51026e-08
-6.02795e-08
6.45804e-08
-6.04623e-08
6.38129e-08
-6.07296e-08
6.33793e-08
9.23095e-08
2.59891e-10
-6.34316e-09
7.51232e-08
-6.546e-08
2.99411e-11
-2.99411e-11
9.16508e-11
-3.11377e-10
1.54784e-08
-1.26936e-11
1.26936e-11
3.04607e-10
1.51938e-09
1.39094e-08
1.34335e-08
-2.71522e-09
3.71749e-09
6.65548e-09
1.77541e-09
3.50257e-10
-2.36676e-10
-2.97067e-09
1.45837e-08
1.48443e-08
-4.29001e-09
1.18199e-08
1.68209e-10
1.35616e-10
2.70069e-09
-7.8938e-10
-1.49838e-09
-5.84425e-09
-2.02821e-10
-3.80432e-10
1.53115e-08
2.33479e-10
5.06268e-11
1.43662e-08
-2.62515e-08
1.78275e-08
2.67633e-09
1.22732e-09
2.50098e-09
-3.72205e-09
1.93641e-08
-1.81431e-08
-7.03577e-11
5.77551e-11
-1.44115e-09
-7.92116e-08
-7.07528e-08
1.26604e-09
-4.05002e-10
6.20658e-10
2.30094e-08
1.86097e-08
-6.38824e-09
7.50155e-11
-4.24149e-09
-2.52402e-09
2.99519e-08
1.59476e-10
1.48184e-08
7.35793e-08
4.21183e-11
5.07203e-10
-1.43649e-10
-2.0165e-10
-3.60127e-09
2.43207e-08
-1.48691e-08
9.18796e-10
-1.41937e-08
-4.57984e-11
2.04008e-08
-2.87367e-08
9.50923e-10
1.8928e-09
-2.24192e-10
)
;

boundaryField
{
    back
    {
        type            empty;
        value           nonuniform 0();
    }
    ingreso
    {
        type            calculated;
        value           nonuniform List<scalar> 
14
(
-1.54286e-08
-1.54288e-08
-1.54288e-08
-1.54288e-08
-1.54286e-08
-1.54283e-08
-1.54288e-08
-1.54288e-08
-1.54286e-08
-1.54286e-08
-1.54288e-08
-1.5428e-08
-1.5428e-08
-1.54286e-08
)
;
    }
    salida
    {
        type            calculated;
        value           nonuniform List<scalar> 2(1.01411e-07 1.14589e-07);
    }
    front
    {
        type            empty;
        value           nonuniform 0();
    }
    defaultFaces
    {
        type            calculated;
        value           uniform 0;
    }
}


// ************************************************************************* //
