/*--------------------------------*- C++ -*----------------------------------*\
  =========                 |
  \\      /  F ield         | OpenFOAM: The Open Source CFD Toolbox
   \\    /   O peration     | Website:  https://openfoam.org
    \\  /    A nd           | Version:  8
     \\/     M anipulation  |
\*---------------------------------------------------------------------------*/
FoamFile
{
    version     2.0;
    format      ascii;
    class       volScalarField;
    location    "8.6";
    object      p;
}
// * * * * * * * * * * * * * * * * * * * * * * * * * * * * * * * * * * * * * //

dimensions      [0 2 -2 0 0 0 0];

internalField   nonuniform List<scalar> 
7843
(
1.68554e-06
5.35771e-06
5.73764e-06
7.18768e-06
1.25558e-06
7.29732e-06
6.92379e-06
9.63562e-07
7.16736e-06
1.59864e-06
4.05771e-06
1.62796e-06
7.16422e-06
4.27621e-06
3.20381e-06
3.85372e-06
3.98209e-06
3.27057e-06
7.19245e-06
7.05481e-06
7.15817e-06
6.99843e-06
4.13162e-06
6.44859e-06
3.14223e-06
7.15357e-06
2.01335e-07
7.0619e-06
6.50818e-07
7.16465e-06
7.05878e-06
2.15803e-06
7.09605e-06
1.09934e-06
3.84667e-06
3.5372e-06
2.98502e-06
6.9113e-06
7.16144e-06
5.92845e-06
3.13401e-06
4.54443e-06
1.25515e-06
5.27524e-06
7.16729e-06
6.98116e-06
4.20424e-06
6.83581e-06
5.73959e-06
7.1778e-06
7.16478e-06
5.19424e-06
2.40863e-06
6.86887e-06
1.43651e-06
7.18657e-06
6.9378e-06
7.13801e-06
4.86028e-07
7.16474e-06
1.10688e-06
6.78498e-06
6.8855e-06
7.094e-06
2.89379e-07
3.70707e-06
3.70391e-06
7.18388e-06
6.93278e-06
1.03102e-06
7.14832e-06
2.2447e-06
6.03324e-06
7.16681e-06
7.1555e-06
3.48768e-06
1.32677e-06
1.18116e-06
1.89736e-06
7.27421e-06
7.16328e-06
4.73514e-07
4.35112e-06
7.02852e-06
1.58861e-06
1.73008e-06
7.048e-06
6.49945e-07
6.99674e-06
6.97795e-06
7.15693e-06
4.78479e-06
7.18094e-06
7.06681e-06
7.05092e-06
1.97978e-06
7.18319e-06
1.95432e-07
7.15596e-06
3.57537e-06
2.49887e-07
2.40388e-07
7.02525e-06
3.19047e-07
7.14653e-06
6.27188e-06
7.18111e-06
7.13605e-06
6.31291e-06
4.95716e-06
6.3227e-07
6.85699e-06
6.78644e-06
1.92501e-06
7.09635e-06
5.86157e-06
7.00624e-06
9.56944e-07
7.14142e-06
5.0117e-06
1.32724e-06
1.02368e-06
4.43579e-06
1.10967e-06
7.15636e-06
6.87399e-06
4.62575e-06
6.55776e-06
6.36417e-06
7.27158e-06
4.86093e-06
7.04718e-06
7.13857e-06
1.3423e-06
5.94424e-06
2.90814e-06
7.11661e-06
6.77419e-06
3.06058e-06
7.27426e-07
7.15256e-06
6.47566e-06
7.0671e-06
7.01768e-06
7.18194e-06
7.11737e-06
4.45718e-06
6.04239e-06
6.59168e-06
6.61176e-06
1.73585e-06
6.90618e-06
7.07957e-06
5.23017e-06
3.92187e-06
3.96168e-06
7.12957e-06
7.03848e-06
5.5434e-06
2.49144e-06
7.15816e-06
4.11616e-06
6.55972e-06
4.27029e-06
5.28409e-06
8.85712e-07
7.04111e-06
1.03694e-07
2.33863e-06
4.42521e-06
7.26948e-07
5.04462e-06
4.58004e-06
7.0864e-06
4.81199e-06
7.15915e-06
5.60332e-07
7.1669e-06
4.08749e-06
1.5544e-06
1.52577e-06
1.31624e-06
7.15744e-06
5.63808e-06
4.06057e-06
6.89743e-06
7.18036e-06
6.83617e-06
1.97096e-06
6.96802e-06
2.16893e-06
2.32171e-06
7.09398e-06
7.16795e-06
4.71299e-06
7.17289e-06
7.15826e-06
7.06426e-06
8.03026e-07
6.12851e-06
5.11469e-06
5.69853e-07
4.70829e-06
1.77176e-06
3.86301e-07
7.1741e-06
3.92449e-07
7.17585e-06
7.15223e-06
5.0857e-06
6.65407e-06
5.03579e-06
6.26592e-06
3.07799e-06
4.14178e-06
6.19988e-06
7.06881e-06
1.78672e-06
7.1711e-06
6.88558e-06
7.05504e-06
6.95933e-06
1.3636e-07
5.36727e-06
6.7449e-06
7.07634e-06
6.64948e-06
3.63428e-06
5.45339e-06
6.79e-06
6.8115e-06
7.17993e-06
7.17682e-06
1.48477e-06
6.97644e-06
4.21538e-06
1.61671e-06
6.62372e-06
3.84867e-06
2.26242e-07
1.75836e-06
2.75578e-06
1.68322e-06
2.99385e-06
6.87117e-06
4.0137e-06
7.10088e-06
6.93475e-06
4.72499e-06
3.98782e-06
7.25985e-06
7.17542e-06
1.89317e-06
4.3627e-06
5.48175e-06
1.83056e-06
6.75103e-06
4.28873e-06
2.22602e-07
7.13529e-06
7.10794e-06
6.9833e-06
2.46282e-07
4.5838e-06
1.61693e-06
6.80768e-06
7.17489e-06
5.12298e-06
7.1761e-06
6.63676e-06
7.15748e-06
7.17845e-06
7.12047e-06
6.59416e-06
4.80587e-06
7.05714e-06
2.07568e-06
1.46763e-06
6.89778e-06
4.77224e-06
7.43784e-07
4.43628e-06
4.93646e-06
7.05989e-06
7.09891e-06
7.17145e-06
6.96137e-06
4.73193e-06
6.02798e-07
5.29856e-06
7.17478e-06
7.06712e-06
7.10022e-06
1.65601e-06
6.88462e-06
2.37919e-06
2.75595e-06
6.81041e-06
6.58641e-06
5.33033e-06
6.69384e-06
7.01354e-06
2.68477e-06
2.37257e-06
7.11014e-06
6.89952e-06
7.17417e-06
6.11744e-06
6.91794e-06
6.85761e-06
6.89912e-06
6.59088e-06
7.01839e-06
7.16128e-06
7.166e-06
7.04549e-06
5.20272e-06
4.38437e-06
7.0917e-06
2.74296e-06
7.16431e-06
7.166e-06
4.88929e-06
4.65748e-06
6.94838e-06
6.71738e-06
7.22642e-06
7.10794e-06
6.78333e-06
7.1663e-06
2.55894e-06
4.50997e-06
7.0985e-06
7.13504e-06
6.53321e-06
6.9805e-06
2.79398e-07
2.52627e-06
5.94955e-06
6.99077e-06
6.94778e-06
2.21856e-06
7.1662e-06
3.10457e-07
6.81078e-06
2.65199e-07
2.45731e-06
6.95041e-06
6.90885e-06
1.56319e-07
7.18611e-06
2.38311e-06
7.16715e-06
7.1651e-06
2.05721e-06
7.17114e-06
6.90762e-06
6.90875e-06
2.04324e-06
5.15871e-06
7.4751e-06
4.88045e-06
6.72442e-06
7.70492e-06
7.16646e-06
2.33377e-06
5.52062e-06
6.92379e-06
7.08401e-06
5.35851e-06
5.21265e-06
7.11851e-06
1.85225e-06
6.91248e-06
1.25464e-06
7.27944e-06
4.65723e-06
4.20653e-06
4.21368e-06
7.28564e-06
4.86071e-06
7.05611e-06
7.20498e-06
6.94082e-06
2.96169e-07
2.32827e-06
4.20864e-06
7.16256e-06
1.92952e-07
3.02442e-06
4.13479e-06
7.12559e-06
7.11994e-06
7.15699e-06
6.82538e-06
2.60295e-06
7.1743e-06
6.51085e-06
7.10411e-06
1.2375e-06
1.57596e-06
7.16825e-06
7.16092e-06
5.40836e-08
5.49801e-06
5.47999e-06
5.02947e-06
5.58439e-06
7.16404e-06
6.79592e-06
6.84379e-06
2.06475e-06
6.02742e-06
7.09852e-06
5.89871e-06
7.16296e-06
7.17257e-06
5.53364e-06
4.73152e-06
4.96684e-06
6.98695e-06
6.87466e-06
7.1629e-06
2.11832e-06
1.65105e-07
1.42908e-07
6.97518e-06
1.72331e-07
7.1216e-06
6.88086e-06
7.18609e-06
7.17311e-06
2.22916e-06
7.17994e-06
5.97371e-06
6.7035e-06
7.12558e-06
5.44138e-06
2.83412e-06
7.17355e-06
1.83173e-06
7.1201e-06
6.97966e-06
7.16083e-06
5.65954e-06
6.88056e-06
6.88055e-06
6.34146e-06
7.09414e-06
5.65228e-06
8.69166e-07
8.06877e-07
6.89806e-06
6.84599e-06
6.92235e-06
2.64838e-06
2.19903e-06
7.09608e-06
6.0326e-06
7.17084e-06
7.00505e-06
5.61864e-07
1.48967e-07
1.4133e-07
7.00257e-06
2.0334e-07
6.97227e-06
6.93165e-06
7.15322e-06
6.65009e-06
2.70506e-06
7.11145e-07
7.15967e-06
7.18408e-06
7.00936e-06
1.97944e-06
5.79119e-06
7.17068e-06
6.79982e-06
5.36333e-06
6.66579e-06
7.04222e-06
7.06616e-06
7.13355e-06
6.68787e-06
6.91733e-06
2.51316e-06
5.97234e-06
7.50373e-08
4.87967e-07
4.56094e-06
5.89293e-06
7.17131e-06
2.06631e-06
7.08912e-06
7.23129e-06
6.0136e-08
7.59377e-08
7.07432e-06
7.16752e-06
2.83093e-06
7.16269e-06
1.0238e-06
6.39478e-06
2.09489e-06
1.33119e-06
9.46811e-07
7.16329e-06
2.24765e-06
6.05331e-06
7.16731e-06
7.16396e-06
2.91153e-06
2.66679e-06
6.79896e-06
5.42505e-06
6.74825e-06
7.05652e-06
7.13753e-06
6.71575e-06
6.28556e-06
6.56471e-06
2.1244e-06
4.95497e-06
6.92321e-06
5.96967e-06
5.27243e-06
7.10539e-06
6.64965e-06
6.97676e-06
7.15202e-06
7.17048e-06
4.80173e-06
7.15966e-06
7.05817e-06
6.97632e-06
7.09983e-06
7.1709e-06
5.04637e-06
7.02095e-06
2.01883e-06
7.15349e-06
4.96968e-06
3.7758e-07
5.49005e-06
6.99265e-06
5.55403e-07
2.11201e-06
3.54871e-06
4.73468e-06
7.13507e-06
5.4145e-06
7.08072e-06
7.05675e-06
6.89794e-06
4.87878e-06
6.15864e-06
6.73765e-06
7.17845e-06
1.56131e-06
6.16522e-06
5.05614e-06
5.4768e-06
4.13117e-06
7.1288e-06
1.10081e-06
7.15858e-06
1.52327e-06
3.28263e-06
6.82052e-06
5.29735e-06
2.23606e-06
6.4709e-07
7.13692e-06
6.80592e-06
5.59291e-06
4.69737e-06
7.01828e-06
6.87749e-06
5.04371e-07
7.13484e-06
7.09648e-06
1.10726e-06
6.99379e-06
7.17166e-06
6.79745e-06
7.02515e-06
5.15951e-06
6.90617e-06
7.06436e-06
6.98334e-06
7.06104e-06
7.1532e-06
3.14242e-06
6.49494e-06
1.51769e-06
7.14558e-06
5.90578e-06
7.15391e-06
6.938e-06
6.83761e-06
7.17756e-06
1.54366e-06
7.13917e-08
1.05485e-07
5.19899e-06
5.01526e-06
3.74365e-06
2.7795e-06
7.10407e-06
7.13855e-06
4.93495e-06
6.11706e-06
6.76907e-06
2.92284e-06
5.04279e-06
7.15024e-06
3.37408e-06
5.21277e-06
7.00495e-06
7.17488e-06
7.17975e-06
4.62022e-06
6.84813e-06
7.00575e-06
6.94211e-06
6.46556e-06
6.99102e-06
6.90642e-06
5.807e-06
6.84864e-06
6.68238e-06
6.36746e-06
3.61199e-06
6.8213e-06
2.11225e-07
7.07144e-06
7.14435e-06
7.13501e-06
7.05829e-06
6.86165e-06
6.75331e-06
5.46278e-06
4.36407e-06
4.36237e-06
7.02327e-07
6.86916e-06
3.52894e-06
6.7619e-06
7.09203e-06
7.16762e-06
7.16547e-06
7.10364e-06
6.89386e-06
6.77134e-06
7.03707e-06
7.08161e-06
7.08762e-06
4.81631e-06
3.05179e-06
5.37999e-06
7.1336e-06
7.16544e-06
7.01274e-06
7.90707e-07
7.16957e-06
6.91599e-06
6.83159e-06
2.57131e-06
1.49746e-06
6.81691e-06
6.05368e-06
3.23401e-06
6.87517e-06
7.16672e-06
6.78492e-06
5.74865e-06
6.99533e-06
6.95715e-06
5.17891e-06
7.17528e-06
3.86616e-06
7.15404e-06
4.75491e-06
6.82265e-06
7.05437e-06
1.09912e-06
6.88937e-06
7.11271e-06
6.5162e-06
4.27875e-06
2.42151e-06
5.25432e-06
3.43746e-06
6.67599e-06
6.88674e-06
6.93281e-06
7.12679e-06
3.31588e-06
6.99574e-06
6.82393e-06
1.02965e-06
7.15069e-06
6.16961e-06
1.68325e-06
7.16189e-06
7.17073e-06
7.16023e-06
6.81614e-06
7.16413e-06
3.20609e-06
7.17068e-06
5.39508e-07
7.05841e-06
3.10534e-07
7.15437e-06
7.20353e-06
4.50285e-06
7.16894e-06
5.45672e-06
6.99202e-06
7.1493e-06
7.13135e-06
3.6178e-06
1.2929e-06
6.7547e-06
6.86492e-06
6.83947e-06
7.16018e-06
6.43883e-06
7.03698e-06
6.7545e-06
4.82681e-06
6.8907e-06
7.79154e-07
2.52646e-06
4.42021e-07
5.43476e-06
6.07973e-06
7.03157e-06
5.68542e-06
4.22165e-07
7.16588e-06
6.87798e-06
7.16917e-06
7.11764e-06
6.80427e-06
7.02473e-06
6.98465e-06
6.90096e-06
6.88705e-06
6.77448e-06
7.15912e-06
6.7324e-06
2.23685e-07
6.08236e-06
6.92626e-06
6.86143e-06
1.64262e-06
6.86815e-06
6.83762e-06
7.0729e-06
6.81739e-06
1.94197e-06
7.17321e-06
7.12596e-06
7.04281e-06
6.85387e-06
6.91076e-06
7.04346e-06
4.90027e-07
7.16995e-06
7.14296e-06
3.3666e-06
9.37052e-07
2.40744e-06
9.14705e-07
7.26425e-06
6.79639e-06
7.15851e-06
5.49667e-06
7.01535e-06
7.25887e-07
6.29406e-06
4.89405e-07
7.17377e-06
6.97627e-06
7.16154e-06
6.9864e-07
6.96728e-06
6.91178e-06
7.12699e-06
6.37618e-06
6.87425e-06
6.44915e-06
6.92997e-06
7.15068e-06
7.14446e-06
7.03539e-06
6.99552e-06
7.16305e-06
7.06043e-06
5.7058e-06
3.06555e-06
6.92358e-06
2.4493e-06
7.08349e-06
7.13622e-06
6.88995e-06
4.66215e-06
6.68442e-06
1.9223e-06
7.16317e-06
6.48232e-06
1.14893e-06
4.50072e-07
6.93035e-06
6.82889e-06
2.09685e-06
7.01722e-06
6.82387e-06
7.2386e-06
7.00061e-06
6.93616e-06
4.49595e-06
7.00656e-06
6.57884e-06
7.00934e-06
6.91732e-06
7.15774e-06
6.9125e-06
6.68475e-06
6.91712e-06
3.60573e-06
2.29523e-06
6.91216e-06
7.17684e-06
7.08198e-06
2.8987e-07
7.1056e-06
2.3062e-06
7.09099e-06
7.16446e-06
8.86324e-07
7.16286e-06
7.13674e-06
6.85203e-06
7.161e-06
1.17305e-06
5.70536e-06
7.12746e-06
7.04639e-06
6.91731e-06
6.9332e-06
7.12138e-06
1.25171e-06
6.53937e-06
6.60135e-06
7.14515e-06
6.2787e-06
7.12302e-06
7.02676e-06
6.85235e-06
5.59489e-06
6.97225e-06
7.09666e-06
7.03573e-06
3.84106e-07
7.18138e-06
6.32157e-06
7.07234e-06
6.74279e-06
7.0807e-06
7.16905e-06
6.91656e-06
6.09743e-06
7.05059e-06
6.75877e-06
7.17919e-06
7.1563e-06
7.04598e-06
6.9571e-06
6.41203e-06
7.174e-06
6.60365e-06
7.135e-06
4.90848e-06
1.14558e-06
6.438e-06
4.63818e-06
6.88526e-06
6.51617e-06
7.14861e-06
7.1699e-06
6.96159e-06
6.92513e-06
6.94961e-06
5.35961e-06
5.68062e-06
7.01972e-06
7.15067e-06
6.83841e-06
5.97405e-06
7.14365e-06
6.85537e-06
6.85614e-06
6.8463e-06
7.14315e-06
6.94179e-06
1.86198e-06
7.16112e-06
6.01129e-06
1.46587e-06
7.15444e-06
1.40924e-06
7.08276e-06
6.98768e-06
6.90691e-06
7.11039e-06
6.92196e-06
4.58466e-06
7.05708e-06
5.19796e-06
7.05934e-06
7.12914e-06
7.0902e-06
1.33052e-06
7.0531e-06
3.98114e-06
7.08227e-06
7.06463e-06
5.44553e-06
6.98532e-06
3.45769e-06
6.25569e-06
6.95291e-06
7.02023e-06
7.06935e-06
6.29942e-07
7.20461e-07
7.00452e-06
6.94043e-06
7.06272e-06
6.93353e-06
3.6827e-06
6.8683e-06
1.137e-07
4.29767e-07
7.02506e-06
7.169e-06
6.98025e-06
6.12282e-06
7.07871e-06
7.15312e-06
1.80506e-06
6.97348e-06
7.13817e-06
7.17282e-06
9.58119e-07
7.02753e-06
6.88943e-06
1.07036e-06
7.13219e-06
7.10489e-06
6.91636e-06
6.19524e-06
7.03909e-06
3.99291e-07
7.07131e-06
7.17487e-06
7.11404e-06
7.15569e-06
2.04301e-06
1.91117e-06
6.80104e-06
6.98743e-06
7.16482e-06
7.0859e-06
7.17372e-06
6.92425e-06
6.05079e-06
7.08481e-06
7.09668e-06
7.01225e-06
7.03406e-06
6.19833e-06
7.14419e-06
6.73334e-06
7.01751e-06
1.41652e-06
7.15269e-06
7.08396e-06
7.03526e-06
7.13251e-06
7.10065e-06
7.12644e-06
7.02208e-06
4.28636e-06
2.03695e-06
7.1618e-06
7.16461e-06
5.9873e-06
5.83588e-06
7.13154e-06
7.14552e-06
7.09084e-06
6.8996e-06
7.06868e-06
6.92978e-06
7.11789e-06
7.0223e-06
7.04136e-06
6.37659e-06
5.68191e-06
6.87563e-06
7.04909e-06
7.13991e-06
5.49219e-06
7.05734e-06
7.12851e-06
6.87582e-06
7.04044e-06
7.10665e-06
7.12008e-06
7.1203e-06
7.14541e-06
5.90064e-06
6.93957e-06
7.15119e-06
7.16841e-06
7.09926e-06
1.7213e-06
7.08095e-06
7.07283e-06
7.06443e-06
7.05632e-06
7.17841e-06
7.08884e-06
5.82807e-06
7.09705e-06
6.04123e-06
6.89273e-06
6.94704e-06
5.75734e-06
4.07655e-07
7.11961e-06
7.08502e-06
6.84602e-06
7.1243e-06
7.14416e-06
7.15387e-06
5.73161e-06
7.10764e-06
7.1121e-06
6.82615e-06
5.54354e-06
2.26881e-06
7.13332e-06
6.93679e-07
7.10921e-06
7.17426e-06
7.16268e-06
7.1545e-06
5.96088e-06
7.15559e-06
7.12945e-06
7.14677e-06
5.7662e-06
7.1409e-06
6.48309e-06
7.17035e-06
5.51031e-06
6.60522e-06
6.97535e-06
6.73259e-06
5.51626e-06
7.00788e-06
5.41218e-06
7.15648e-06
7.05849e-06
7.07423e-06
7.18068e-06
5.96584e-06
7.15801e-06
7.16484e-06
4.8931e-06
7.00906e-06
7.15214e-06
7.17216e-06
7.15645e-06
7.13874e-06
6.84545e-06
7.10153e-06
7.08282e-06
6.84087e-06
5.41581e-06
7.13733e-06
7.1462e-06
5.4672e-06
7.13032e-06
7.07663e-06
5.86283e-06
4.34781e-06
7.05847e-06
2.50064e-06
7.14639e-06
7.1759e-06
7.16803e-06
7.02771e-06
7.10783e-06
7.17566e-06
7.09626e-06
7.16604e-06
5.35007e-06
5.52717e-06
2.98846e-06
7.11622e-06
6.49775e-06
5.2086e-06
7.14768e-06
7.06857e-06
7.02497e-06
7.16423e-06
7.13069e-06
6.17573e-06
7.16575e-06
7.14862e-06
7.08834e-06
7.16475e-06
5.39877e-07
6.91993e-06
7.16515e-06
1.64322e-06
4.43042e-06
5.88934e-06
3.05085e-07
7.09496e-06
7.02969e-06
7.15075e-06
5.66456e-06
7.16547e-06
7.17004e-06
1.41122e-06
3.45134e-06
6.17527e-06
7.16384e-06
7.1337e-06
7.13727e-06
5.73591e-06
6.91456e-06
7.12491e-06
6.965e-06
7.1697e-06
5.47637e-06
7.12416e-06
5.76079e-06
4.50721e-06
6.98366e-06
6.92042e-06
1.03038e-06
7.11333e-06
5.05897e-06
7.16835e-06
5.84701e-06
7.09649e-06
7.16063e-06
1.96932e-06
7.1553e-06
5.38446e-06
7.15065e-06
7.14816e-06
6.98194e-06
7.17067e-06
3.46674e-06
7.17004e-06
7.15393e-06
7.16421e-06
4.81675e-07
6.9216e-06
7.13581e-06
7.12732e-06
6.89278e-06
7.07733e-06
5.12239e-06
5.64515e-07
7.17211e-06
7.03895e-06
7.13697e-06
7.14698e-06
7.13317e-06
7.12469e-06
6.98048e-06
5.90562e-06
7.08685e-06
6.13313e-06
7.15914e-06
3.43262e-06
7.11389e-06
7.05595e-06
5.28079e-06
6.85253e-06
7.08369e-06
6.90702e-06
7.0287e-06
7.15236e-06
7.17041e-06
7.15244e-06
5.34876e-06
7.17952e-06
7.16466e-06
7.16145e-06
2.88686e-06
6.94942e-06
5.73171e-06
7.1035e-06
3.75988e-06
7.17701e-06
7.15472e-06
6.79406e-06
5.81996e-06
5.48998e-06
7.13809e-06
5.52458e-06
5.36233e-06
7.09708e-06
7.14235e-06
5.36847e-06
5.75705e-06
7.16522e-06
7.12159e-06
5.62501e-06
4.82971e-06
7.16838e-06
1.95948e-06
7.1255e-06
6.91129e-06
7.15154e-06
6.90186e-06
7.06191e-06
7.16711e-06
6.86101e-06
7.1691e-06
4.96388e-07
7.15604e-06
6.90614e-06
7.16765e-06
5.75417e-06
5.57857e-06
5.64846e-06
5.67355e-06
7.10598e-06
7.15289e-06
7.09135e-06
7.15901e-06
6.9033e-06
7.16639e-06
4.94231e-06
7.16948e-06
7.1772e-06
7.00578e-06
7.17539e-06
7.08586e-06
5.46451e-06
5.73581e-06
7.16933e-06
7.1563e-06
7.1183e-06
1.72755e-06
7.11802e-06
5.8951e-06
7.17318e-06
7.13172e-06
7.15126e-06
7.17535e-06
7.1762e-06
5.85841e-06
7.17297e-06
5.64253e-06
7.14385e-06
7.17249e-06
7.15972e-06
6.07216e-06
7.16856e-06
1.56523e-06
7.16489e-06
5.58782e-06
6.13896e-06
7.15636e-06
7.16867e-06
6.892e-06
5.47178e-06
7.08995e-06
5.88143e-06
7.16852e-06
7.16854e-06
7.16183e-06
7.14749e-06
7.15325e-06
5.88369e-06
5.71582e-06
3.42654e-07
7.13626e-06
4.61895e-07
7.1114e-06
7.06618e-06
7.14599e-06
7.17797e-06
6.67897e-06
6.81215e-06
7.12272e-06
7.16467e-06
7.11779e-06
6.66943e-06
5.7824e-06
5.99469e-06
5.29795e-06
7.15569e-06
7.14508e-06
7.17375e-06
7.13127e-06
7.14613e-06
7.16742e-06
5.65829e-06
7.13385e-06
7.1755e-06
7.17026e-06
7.1686e-06
7.08051e-06
7.0855e-06
7.0373e-06
7.14333e-06
6.35793e-06
5.73963e-06
7.02226e-06
5.65207e-06
7.14096e-06
7.08424e-06
7.14649e-06
7.16552e-06
3.62935e-06
7.10932e-06
5.30037e-06
6.86829e-06
5.56747e-06
7.17546e-06
7.17667e-06
5.48227e-06
6.67204e-06
6.93302e-06
5.75073e-06
7.04624e-06
7.16788e-06
7.18377e-06
5.42402e-06
5.65883e-06
7.13868e-06
7.11838e-06
5.84755e-06
7.14785e-06
7.13277e-06
7.28371e-06
6.27138e-06
7.14414e-06
7.14898e-06
7.1748e-06
7.11121e-06
7.15467e-06
6.97071e-06
7.15722e-06
7.17412e-06
7.13749e-06
7.15467e-06
7.11236e-06
7.14724e-06
2.14173e-06
7.17648e-06
5.63909e-06
7.16111e-06
5.72145e-06
7.15205e-06
7.1728e-06
7.19152e-06
7.16465e-06
7.12642e-06
7.17568e-06
7.14747e-06
7.20981e-06
7.14696e-06
7.14819e-06
7.18741e-06
7.17093e-06
7.13921e-06
6.85894e-06
5.50064e-06
7.16804e-06
7.17501e-06
7.16957e-06
7.12179e-06
6.46882e-07
5.31145e-06
7.17387e-06
7.12782e-06
7.17057e-06
7.17083e-06
7.17324e-06
7.17331e-06
5.57245e-06
5.48896e-06
7.18138e-06
6.5585e-06
4.44323e-06
7.17593e-06
5.22333e-06
7.13306e-06
7.14922e-06
5.56171e-06
7.14248e-06
7.18168e-06
7.1433e-06
7.17113e-06
7.14958e-06
7.17666e-06
7.17053e-06
7.17451e-06
7.1809e-06
6.89719e-06
7.09689e-06
5.63143e-06
5.67046e-06
7.16598e-06
7.16977e-06
7.14903e-06
5.17786e-06
5.57048e-06
7.113e-06
7.17364e-06
7.17035e-06
5.24735e-06
7.13924e-06
7.15024e-06
7.16906e-06
5.69542e-06
6.67285e-06
7.18243e-06
7.17944e-06
5.03088e-07
7.16742e-06
7.18105e-06
7.17171e-06
7.16975e-06
7.17112e-06
5.24226e-06
7.17238e-06
5.57375e-06
7.17777e-06
7.16527e-06
7.12992e-06
7.16241e-06
7.09037e-06
7.17711e-06
7.18746e-06
7.16994e-06
6.95226e-06
7.16697e-06
7.18033e-06
7.14932e-06
5.65217e-06
5.7983e-06
7.17488e-06
7.19372e-06
7.14651e-06
7.16779e-06
7.17295e-06
7.17086e-06
7.17651e-06
7.17325e-06
6.96884e-06
7.17487e-06
7.01889e-06
6.63072e-06
7.17581e-06
6.93387e-06
7.1524e-06
7.15192e-06
5.14826e-06
7.13982e-06
5.55581e-06
7.16472e-06
7.14878e-06
7.17714e-06
5.06533e-06
7.15889e-06
7.17349e-06
7.17643e-06
7.15008e-06
7.15656e-06
7.16216e-06
7.17437e-06
7.14932e-06
7.14962e-06
7.03008e-06
5.14293e-06
7.17853e-06
7.17261e-06
7.17056e-06
5.41262e-06
1.63703e-06
7.176e-06
7.15642e-06
7.16425e-06
7.17794e-06
7.16132e-06
7.11565e-06
7.23028e-06
7.15284e-06
7.10528e-06
7.14062e-06
7.16898e-06
7.17615e-06
7.14803e-06
7.11673e-06
5.76772e-06
7.14902e-06
7.15681e-06
5.49137e-06
7.15837e-06
7.17457e-06
7.17126e-06
5.85887e-06
2.19124e-06
5.66463e-06
7.16753e-06
5.60133e-06
7.1679e-06
5.68569e-06
7.14955e-06
5.09478e-06
5.85264e-06
7.13362e-06
5.40737e-06
7.15124e-06
7.1212e-06
7.11172e-06
5.82259e-07
4.98814e-06
7.15535e-06
4.1838e-07
7.14778e-06
7.17764e-06
5.65673e-06
7.14667e-06
5.60396e-06
7.16547e-06
7.13754e-06
7.16254e-06
7.16554e-06
7.1432e-06
7.14773e-06
7.15813e-06
7.17276e-06
7.16688e-06
5.88406e-06
5.47304e-06
7.16598e-06
7.17928e-06
5.47776e-06
7.14188e-06
7.17241e-06
7.17519e-06
6.6511e-06
7.17632e-06
5.33215e-06
7.16362e-06
7.18266e-06
7.16426e-06
1.89772e-06
5.64535e-06
7.14815e-06
5.07284e-06
7.14779e-06
3.35844e-06
7.14511e-06
7.0668e-06
7.17125e-06
7.16425e-06
7.15451e-06
5.42435e-06
7.15096e-06
7.15039e-06
7.1597e-06
7.17567e-06
7.1755e-06
7.15057e-06
7.14915e-06
5.51543e-06
5.10649e-06
7.17089e-06
7.16348e-06
7.1218e-06
5.33753e-06
7.14465e-06
7.28218e-06
7.12846e-06
7.15601e-06
7.15631e-06
7.14664e-06
7.03219e-06
5.41285e-06
5.59395e-06
7.14825e-06
6.92416e-06
7.14174e-06
7.14187e-06
7.17422e-06
7.15845e-06
7.159e-06
7.16703e-06
7.15914e-06
5.16881e-06
7.16568e-06
7.13695e-06
5.40983e-06
7.13662e-06
7.17687e-06
7.1496e-06
7.16527e-06
7.16342e-06
5.40216e-06
7.16601e-06
7.13967e-06
5.03342e-06
7.16132e-06
7.1571e-06
5.52015e-06
7.13848e-06
5.48209e-06
7.16283e-06
7.17496e-06
7.15426e-06
5.50404e-06
7.17424e-06
7.16742e-06
7.14721e-06
7.11685e-06
5.22066e-06
5.45352e-06
7.15578e-06
7.14155e-06
7.17749e-06
7.16067e-06
7.15956e-06
7.18312e-06
7.19057e-06
7.14751e-06
7.13368e-06
5.49183e-06
7.15003e-06
7.14876e-06
7.17922e-06
7.11367e-06
7.1509e-06
5.39959e-06
5.38448e-06
7.10367e-06
5.58458e-06
7.13881e-06
7.16672e-06
7.14452e-06
7.11784e-06
7.15092e-06
5.33533e-06
7.17744e-06
5.58551e-06
7.17193e-06
4.96569e-06
7.15005e-06
6.91681e-06
7.14786e-06
7.15123e-06
7.14854e-06
7.14794e-06
7.17093e-06
7.15159e-06
7.13994e-06
7.15534e-06
5.39683e-06
7.25921e-06
7.177e-06
7.13696e-06
7.18308e-06
7.1505e-06
7.15368e-06
7.13079e-06
7.15972e-06
7.15728e-06
7.18208e-06
7.14678e-06
5.24943e-06
5.26306e-06
5.20793e-06
2.32917e-06
7.15509e-06
7.15403e-06
7.13734e-06
5.44045e-06
7.14087e-06
7.11913e-06
4.99704e-06
5.56907e-06
5.48935e-06
5.32659e-06
7.16797e-06
5.49256e-06
7.14825e-06
1.88248e-06
7.14929e-06
7.14893e-06
7.12122e-06
7.15703e-06
1.10296e-06
7.15076e-06
7.12804e-06
7.12376e-06
7.15184e-06
7.15522e-06
7.15378e-06
5.35682e-06
7.1237e-06
7.1424e-06
4.2559e-07
7.15395e-06
7.14784e-06
7.17036e-06
7.16975e-06
7.16779e-06
7.12878e-06
7.16042e-06
7.1683e-06
7.11962e-06
7.16561e-06
7.14486e-06
7.17146e-06
7.15795e-06
7.1122e-06
5.39594e-06
7.13262e-06
7.15197e-06
7.15957e-06
7.15883e-06
7.15737e-06
7.15757e-06
7.14332e-06
7.16592e-06
5.31621e-06
7.13124e-06
7.05486e-06
7.14891e-06
5.23645e-06
7.17747e-06
7.12734e-06
5.25833e-06
5.25002e-06
7.15384e-06
5.19002e-06
7.14508e-06
5.50649e-06
6.68695e-06
4.92091e-06
5.31796e-06
7.14038e-06
1.26242e-06
7.14682e-06
7.17785e-06
5.28283e-06
7.1561e-06
5.15799e-06
7.12328e-06
7.17757e-06
7.16452e-06
7.12654e-06
5.32591e-06
5.41914e-06
7.17732e-06
7.14374e-06
5.23319e-06
5.18912e-06
5.3459e-06
5.32603e-06
7.15675e-06
5.34571e-06
7.15274e-06
5.31362e-06
7.15151e-06
7.15524e-06
5.09701e-06
5.33081e-06
5.3625e-06
5.31592e-06
7.15414e-06
7.15637e-06
7.15984e-06
5.0198e-06
7.15434e-06
7.13113e-06
1.89969e-06
7.07106e-06
7.13964e-06
4.9115e-06
4.84521e-06
7.15675e-06
5.13432e-06
5.24033e-06
6.71384e-06
7.14731e-06
7.16151e-06
7.18526e-06
5.26166e-06
5.34032e-06
5.24123e-06
5.28945e-06
7.14572e-06
7.14232e-06
7.31269e-06
5.17381e-06
5.18145e-06
7.14057e-06
7.16125e-06
7.16273e-06
7.16405e-06
7.16005e-06
5.11533e-06
7.14518e-06
5.40545e-06
7.15957e-06
5.32007e-06
5.28536e-06
7.16557e-06
6.85471e-06
7.16622e-06
7.35505e-06
7.1481e-06
7.16577e-06
7.15596e-06
7.15794e-06
5.27145e-06
5.42226e-06
7.15328e-06
7.16573e-06
5.25977e-06
5.37391e-06
7.16402e-06
5.13175e-06
5.10461e-06
7.16324e-06
5.1634e-06
5.13243e-06
5.04453e-06
7.14199e-06
7.15112e-06
7.14977e-06
5.11264e-06
5.48606e-06
7.14339e-06
5.17347e-06
5.09688e-06
5.0416e-06
7.17374e-06
7.13939e-06
5.20844e-06
7.14653e-06
4.77289e-06
7.14157e-06
7.13673e-06
7.16042e-06
5.08007e-06
5.02769e-06
5.12013e-06
7.1713e-06
5.08668e-06
5.19603e-06
5.1901e-06
4.79336e-06
5.17438e-06
4.78673e-06
4.69085e-06
5.13158e-06
5.11753e-06
4.71656e-06
5.24741e-06
5.09387e-06
5.26772e-06
7.13492e-06
4.96786e-06
5.01837e-06
5.01958e-06
5.01008e-06
4.63057e-06
7.14664e-06
4.93597e-06
5.3114e-06
5.0547e-06
4.95075e-06
7.16639e-06
5.09149e-06
5.09353e-06
7.12011e-06
4.89775e-06
7.12912e-06
7.15997e-06
4.69701e-06
4.62305e-06
5.01362e-06
5.0248e-06
4.94545e-06
5.03534e-06
4.89409e-06
7.16355e-06
4.54016e-06
4.87385e-06
4.93354e-06
7.15485e-06
4.9712e-06
4.44599e-06
5.24448e-06
4.97774e-06
4.82007e-06
5.04358e-06
4.46803e-06
4.77088e-06
4.8493e-06
4.7719e-06
4.85656e-06
4.69433e-06
4.79685e-06
4.43161e-06
4.40716e-06
4.64846e-06
7.16434e-06
4.90067e-06
4.74583e-06
4.86624e-06
4.82423e-06
4.72559e-06
4.38418e-06
4.35372e-06
4.95768e-06
4.88994e-06
4.36881e-06
4.78818e-06
4.8662e-06
4.77912e-06
4.71096e-06
4.82355e-06
4.847e-06
7.1721e-06
4.71973e-06
5.02334e-06
4.51874e-06
4.71227e-06
4.67493e-06
4.73078e-06
4.80325e-06
4.74938e-06
4.30312e-06
4.80379e-06
4.49407e-06
4.86773e-06
4.64266e-06
4.89895e-06
4.7848e-06
4.78741e-06
4.66665e-06
4.67245e-06
4.55795e-06
4.40348e-06
4.29139e-06
4.70971e-06
4.70091e-06
4.73533e-06
4.74634e-06
4.88052e-06
4.85837e-06
4.6325e-06
4.81261e-06
4.67359e-06
4.86439e-06
4.65798e-06
4.22749e-06
4.73905e-06
4.63728e-06
7.17175e-06
4.61596e-06
4.56552e-06
4.62121e-06
4.58491e-06
4.6349e-06
4.66908e-06
4.31797e-06
4.67242e-06
4.32646e-06
4.2182e-06
4.1454e-06
7.12245e-06
7.16488e-06
4.15091e-06
4.62936e-06
4.63517e-06
4.56334e-06
4.48839e-06
4.53983e-06
4.48981e-06
4.38008e-06
4.7353e-06
4.59601e-06
4.48092e-06
4.62593e-06
4.51129e-06
4.57129e-06
4.59181e-06
4.55779e-06
5.01726e-06
4.20122e-06
4.41131e-06
4.58053e-06
4.13042e-06
4.07499e-06
4.45722e-06
4.45124e-06
4.43733e-06
4.70339e-06
4.62749e-06
4.65786e-06
4.41612e-06
4.26262e-06
4.07088e-06
4.33424e-06
4.51447e-06
4.50329e-06
3.99997e-06
4.37479e-06
4.2372e-06
4.36337e-06
4.43717e-06
4.30583e-06
4.30522e-06
4.37484e-06
4.40167e-06
4.30086e-06
4.32436e-06
4.54841e-06
4.37901e-06
4.3399e-06
4.25716e-06
3.93331e-06
4.45768e-06
4.29507e-06
4.45252e-06
4.24924e-06
4.42581e-06
4.34852e-06
4.26886e-06
4.34242e-06
4.24705e-06
4.28943e-06
4.34157e-06
4.37873e-06
4.23918e-06
6.91834e-07
3.92604e-06
4.39391e-06
4.35991e-06
4.23176e-06
4.00766e-06
4.27396e-06
3.79153e-06
4.45778e-06
3.86225e-06
7.5795e-07
4.18006e-06
4.22931e-06
3.85567e-06
4.31653e-06
4.21643e-06
4.17185e-06
4.21527e-06
4.45387e-06
4.28265e-06
4.27122e-06
3.29353e-06
4.23149e-06
4.1475e-06
4.1853e-06
3.79437e-06
4.20537e-06
4.24915e-06
4.29981e-06
4.10292e-06
4.13864e-06
4.17196e-06
3.31799e-06
4.09486e-06
3.92201e-06
3.40397e-06
3.51432e-06
4.22476e-06
4.14099e-06
4.19532e-06
4.02578e-06
4.19366e-06
3.90956e-06
4.11629e-06
4.12806e-06
4.16176e-06
3.90748e-06
4.06138e-06
4.32645e-06
3.13681e-06
3.56045e-06
3.73802e-06
3.98439e-06
4.06659e-06
4.15506e-06
3.95377e-06
4.01054e-06
4.01743e-06
3.94041e-06
4.04874e-06
4.07002e-06
3.9358e-06
3.94869e-06
4.41731e-06
3.60211e-06
3.93856e-06
3.99182e-06
3.85808e-06
3.16924e-06
4.05065e-06
4.03897e-06
4.09438e-06
3.63645e-06
4.00976e-06
3.9921e-06
3.59888e-06
4.03088e-06
3.70762e-06
3.97262e-06
3.97319e-06
3.67167e-06
3.77628e-06
4.00634e-06
3.98636e-06
4.06454e-06
3.87159e-06
3.75018e-06
3.91746e-06
3.54417e-06
3.86346e-06
4.04942e-06
3.85841e-06
3.75576e-06
3.90183e-06
4.13986e-06
3.67421e-06
3.93212e-06
4.01564e-06
3.78534e-06
3.96142e-06
3.88408e-06
3.52789e-06
3.91334e-06
3.7945e-06
3.77475e-06
3.89584e-06
3.92961e-06
3.97536e-06
3.48668e-06
3.9071e-06
3.90098e-06
3.83599e-06
3.84248e-06
3.93375e-06
3.45149e-06
3.87651e-06
3.56636e-06
3.89281e-06
3.28973e-06
3.45004e-06
3.21522e-06
3.69177e-06
3.8521e-06
3.70891e-06
3.7174e-06
3.78599e-06
3.62286e-06
3.82642e-06
3.53634e-06
3.72409e-06
3.81857e-06
3.90693e-06
3.8068e-06
3.78331e-06
3.83135e-06
3.76701e-06
3.7413e-06
3.82852e-06
3.86164e-06
3.31788e-06
3.13827e-06
3.70794e-06
3.29613e-06
3.6448e-06
3.64035e-06
3.5543e-06
3.7463e-06
3.94006e-06
3.69136e-06
3.39383e-06
3.72928e-06
3.65195e-06
3.3722e-06
3.80572e-06
3.23719e-06
3.66399e-06
3.69734e-06
3.86277e-06
3.2356e-06
3.63004e-06
3.72199e-06
3.4079e-06
3.67105e-06
3.219e-06
3.56329e-06
3.61586e-06
3.7993e-06
3.55437e-06
3.22094e-06
3.63307e-06
3.81691e-06
3.4905e-06
3.48709e-06
4.01701e-06
3.68411e-06
3.10357e-06
3.1638e-06
3.56457e-06
3.58658e-06
3.48627e-06
3.57473e-06
3.36094e-06
3.63038e-06
3.12549e-06
3.63171e-06
3.63916e-06
3.6208e-06
3.60285e-06
3.69462e-06
3.64206e-06
3.3768e-06
3.14302e-06
3.50914e-06
3.54095e-06
3.54358e-06
3.53781e-06
3.56054e-06
3.50352e-06
3.46777e-06
3.04839e-06
3.40917e-06
3.48439e-06
3.49727e-06
3.39983e-06
3.42e-06
3.05865e-06
3.31033e-06
3.40921e-06
3.56758e-06
3.43182e-06
3.46529e-06
3.42707e-06
3.32106e-06
3.43012e-06
3.4771e-06
3.58939e-06
3.39676e-06
2.97508e-06
3.48436e-06
3.38775e-06
3.33201e-06
3.32318e-06
2.96116e-06
3.37272e-06
3.35455e-06
3.34281e-06
2.96019e-06
3.25468e-06
3.38845e-06
3.09916e-06
3.01323e-06
2.93438e-06
3.43429e-06
3.10863e-06
3.27724e-06
3.02237e-06
3.3228e-06
3.41012e-06
3.30412e-06
3.32942e-06
3.02398e-06
3.17691e-06
2.89997e-06
3.24614e-06
3.28371e-06
3.1157e-06
3.09032e-06
3.47602e-06
2.7503e-06
3.24478e-06
3.24819e-06
3.14716e-06
3.24343e-06
3.26316e-06
3.26532e-06
3.188e-06
2.82477e-06
3.09486e-06
3.28919e-06
3.19983e-06
3.39866e-06
3.16859e-06
3.17339e-06
2.88923e-06
3.17785e-06
3.10536e-06
2.7502e-06
2.82482e-06
3.41309e-06
3.55304e-06
3.12236e-06
3.23144e-06
3.17041e-06
3.49043e-06
2.67568e-06
3.07677e-06
3.13384e-06
3.19788e-06
3.18245e-06
3.2329e-06
3.21421e-06
3.16756e-06
2.68255e-06
3.09052e-06
3.02832e-06
2.74289e-06
3.02965e-06
3.13184e-06
3.11219e-06
2.67711e-06
3.07984e-06
3.04477e-06
2.93615e-06
3.07857e-06
3.03357e-06
3.18361e-06
3.04757e-06
3.02602e-06
2.79834e-06
3.01654e-06
3.00143e-06
2.60491e-06
3.08212e-06
3.15389e-06
2.95102e-06
3.08091e-06
3.18296e-06
3.04384e-06
2.57579e-06
3.11074e-06
2.99984e-06
2.66821e-06
3.01017e-06
3.01334e-06
2.94524e-06
2.95652e-06
2.96715e-06
2.9911e-06
2.95678e-06
3.01086e-06
2.64753e-06
2.59212e-06
2.8896e-06
2.50638e-06
3.08442e-06
2.73462e-06
2.65751e-06
2.65252e-06
2.87375e-06
2.58615e-06
2.87835e-06
2.90686e-06
2.89359e-06
2.95729e-06
2.51334e-06
2.81205e-06
2.87974e-06
2.663e-06
2.98498e-06
3.02883e-06
2.87305e-06
2.60025e-06
2.86759e-06
2.79673e-06
2.82647e-06
2.84777e-06
2.85903e-06
2.78924e-06
2.82667e-06
2.6503e-06
2.42991e-06
2.93151e-06
2.55041e-06
2.80241e-06
2.49662e-06
2.67671e-06
2.71975e-06
2.75623e-06
2.68746e-06
2.75748e-06
2.78354e-06
2.70437e-06
2.42462e-06
2.87037e-06
2.74738e-06
2.72485e-06
2.43632e-06
2.7279e-06
2.09854e-06
2.77093e-06
2.5031e-06
2.6272e-06
2.60931e-06
2.34376e-06
2.85666e-06
2.79452e-06
2.64279e-06
2.49298e-06
2.7055e-06
2.69392e-06
2.77953e-06
2.71337e-06
2.6554e-06
2.17773e-06
2.66852e-06
2.7023e-06
2.53681e-06
2.26158e-06
2.25717e-06
2.56573e-06
2.69051e-06
2.55027e-06
2.56422e-06
2.62521e-06
2.68984e-06
2.55912e-06
2.62786e-06