/*--------------------------------*- C++ -*----------------------------------*\
  =========                 |
  \\      /  F ield         | OpenFOAM: The Open Source CFD Toolbox
   \\    /   O peration     | Website:  https://openfoam.org
    \\  /    A nd           | Version:  8
     \\/     M anipulation  |
\*---------------------------------------------------------------------------*/
FoamFile
{
    version     2.0;
    format      ascii;
    class       surfaceScalarField;
    location    "8.6";
    object      phi;
}
// * * * * * * * * * * * * * * * * * * * * * * * * * * * * * * * * * * * * * //

dimensions      [0 3 -1 0 0 0 0];

internalField   nonuniform List<scalar> 
9048
(
7.02829e-09
-6.53069e-09
-3.29129e-09
2.79369e-09
-1.54027e-09
-1.37989e-09
1.73299e-09
1.18716e-09
8.67002e-09
-2.56685e-09
-6.56093e-09
4.57751e-10
-2.29998e-09
5.20585e-09
1.18851e-09
-4.09437e-09
-4.64629e-09
-3.37236e-09
1.84102e-09
6.17763e-09
3.11971e-09
-2.23464e-09
6.30196e-09
-7.18703e-09
-2.5441e-09
1.95018e-09
1.96346e-09
-1.36955e-09
3.20066e-10
-2.75269e-10
-5.86759e-11
1.38789e-11
5.37862e-09
-3.89675e-09
3.32532e-09
-4.80718e-09
7.56529e-09
-3.58233e-09
-7.07631e-09
3.09336e-09
1.44052e-09
-5.61535e-09
4.10559e-09
6.92414e-11
5.74194e-09
-4.97343e-09
-2.55931e-09
1.7908e-09
-5.80712e-09
2.0958e-09
5.54918e-09
-1.83787e-09
4.84203e-09
4.3304e-09
-2.6434e-09
-6.52903e-09
6.70191e-09
-6.17653e-09
-2.84186e-09
2.31648e-09
-7.04563e-09
5.38572e-09
2.14786e-09
-4.87956e-10
-8.59677e-09
6.5963e-09
2.5806e-09
-5.80123e-10
8.57768e-09
-6.68938e-09
-3.08996e-09
1.20166e-09
7.61623e-09
-6.77873e-09
-3.25183e-09
2.41434e-09
6.29271e-09
-5.60952e-09
-2.71835e-09
2.03516e-09
-6.26144e-09
5.79107e-09
2.35756e-09
-1.88718e-09
-5.58293e-09
5.2409e-09
2.19492e-09
-1.85289e-09
5.6932e-09
-5.14782e-09
-2.3142e-09
1.76882e-09
6.43535e-09
-6.03738e-09
-3.08784e-09
2.68987e-09
-5.98721e-09
5.69688e-09
2.4672e-09
-2.17687e-09
-7.2715e-09
7.23765e-09
3.21471e-09
-3.18087e-09
5.53384e-09
-5.33976e-09
-2.59781e-09
2.40373e-09
5.61473e-09
-5.42415e-09
-2.69462e-09
2.50404e-09
5.73888e-09
-5.54303e-09
-2.75578e-09
2.55993e-09
6.98962e-09
-5.52875e-09
-2.46212e-09
1.00126e-09
7.79595e-09
-6.13211e-09
-2.89955e-09
1.23572e-09
5.93604e-09
-5.60578e-09
-2.76117e-09
2.43091e-09
-5.6859e-09
5.37666e-09
2.39344e-09
-2.0842e-09
6.61774e-09
-6.11716e-09
-3.00148e-09
2.50089e-09
7.43062e-09
-7.11472e-09
-3.67999e-09
3.36409e-09
7.44357e-09
-5.87486e-09
-2.67351e-09
1.1048e-09
7.15578e-09
-5.65094e-09
-2.57022e-09
1.06538e-09
7.28126e-09
-5.74956e-09
-2.61406e-09
1.08235e-09
-6.4739e-09
6.26047e-09
2.06499e-09
-1.85156e-09
-5.42023e-09
2.3961e-09
5.22287e-09
-2.19874e-09
-4.15488e-09
3.67339e-09
-3.49234e-09
3.97383e-09
7.98795e-09
-8.1994e-09
2.87549e-09
-2.66404e-09
3.02542e-09
-3.48141e-09
5.50677e-09
-5.05078e-09
2.8246e-09
-3.28845e-09
5.06938e-09
-4.60553e-09
2.77085e-09
-3.23745e-09
4.98994e-09
-4.52334e-09
-3.91415e-09
-4.37587e-09
4.13514e-09
3.27657e-09
-3.87075e-09
5.81303e-09
-5.21885e-09
2.80867e-09
-3.27596e-09
4.96107e-09
-4.49378e-09
3.08854e-09
-3.5407e-09
5.50932e-09
-5.05716e-09
-3.35622e-09
2.80698e-09
5.55584e-09
-5.0066e-09
-1.6466e-09
1.55021e-09
-5.54718e-09
5.64356e-09
1.54579e-09
-1.82983e-09
-5.32871e-09
5.61275e-09
-8.41792e-09
3.10608e-09
-2.03675e-09
7.34859e-09
3.45407e-09
-3.39326e-09
-4.6187e-09
4.55789e-09
-2.80738e-09
3.277e-09
2.62005e-09
-3.08967e-09
3.74874e-09
4.14901e-09
-3.75998e-09
-4.13777e-09
5.16612e-09
-6.58136e-09
2.68677e-10
1.14656e-09
-3.39956e-10
3.25456e-10
-8.05733e-14
1.45802e-11
-3.98182e-09
-4.58953e-09
4.01069e-09
4.56066e-09
4.00309e-09
-5.24586e-09
-5.90594e-09
7.14871e-09
5.02581e-09
3.49879e-09
-4.75774e-09
-3.76686e-09
4.14921e-09
3.93293e-09
-4.28944e-09
-3.79271e-09
3.16894e-09
-4.03062e-09
-4.73575e-09
5.59743e-09
4.85269e-09
4.66824e-09
-5.04944e-09
-4.47149e-09
-2.32616e-09
2.36196e-09
3.62898e-09
-3.66477e-09
-4.69918e-09
-4.80081e-09
3.74874e-09
5.75125e-09
5.69372e-09
2.46776e-09
-2.45118e-09
-5.7103e-09
4.94428e-09
4.9545e-09
-4.35625e-09
-5.54253e-09
3.53404e-09
-4.70498e-09
-5.20472e-09
6.37566e-09
-2.3343e-09
2.87139e-09
4.30495e-09
-2.21443e-09
2.28673e-09
2.50306e-09
-2.57537e-09
1.14574e-09
1.78229e-09
-1.61243e-09
-1.31559e-09
-1.01159e-09
6.17483e-09
2.80117e-09
-7.96441e-09
-4.19823e-09
-4.06149e-09
3.24245e-09
5.01727e-09
4.29424e-09
3.94106e-09
-4.38072e-09
-3.85457e-09
5.23901e-09
4.87257e-09
-5.37311e-09
-4.73848e-09
2.55491e-09
-1.14732e-09
7.42974e-10
-2.15056e-09
-4.99914e-09
4.29499e-09
4.37753e-09
4.63771e-09
-4.42687e-09
2.25386e-09
-2.4647e-09
4.16792e-09
-4.02168e-09
2.03834e-09
-2.18458e-09
3.74964e-09
6.01392e-09
-4.28375e-09
-5.4798e-09
2.15042e-09
6.00808e-09
-2.75159e-09
-5.40691e-09
6.72353e-09
-4.74295e-09
5.54881e-09
-7.52939e-09
-5.73736e-09
-3.8947e-09
4.73192e-09
4.90014e-09
4.18976e-09
-4.64984e-09
-4.9899e-09
-3.85286e-09
4.87256e-09
3.9702e-09
7.62788e-09
-4.88938e-09
-4.23457e-09
1.49607e-09
-5.21752e-09
3.68113e-09
-4.62701e-09
6.1634e-09
-4.82099e-09
-3.22385e-09
3.90724e-09
4.1376e-09
-5.00586e-09
-3.35516e-09
4.06773e-09
4.29328e-09
-4.90121e-09
-3.28144e-09
3.97681e-09
4.20583e-09
-4.7265e-09
-3.15747e-09
3.82755e-09
4.05642e-09
-1.38384e-11
-6.05101e-12
-4.59355e-09
-1.54367e-10
-2.94977e-10
5.0429e-09
3.44339e-09
-3.50951e-09
1.70593e-09
-1.63981e-09
4.02721e-09
1.92647e-09
-8.03524e-10
-5.15015e-09
-2.86154e-10
-7.29272e-09
6.61239e-09
9.66476e-10
-4.60208e-09
4.42844e-09
4.40064e-09
-4.227e-09
-1.24541e-09
6.26926e-09
1.4227e-10
-4.63691e-09
4.9659e-09
4.22468e-09
-4.55367e-09
-5.49832e-09
3.87284e-09
-4.76799e-09
6.39348e-09
-4.53288e-09
3.27127e-09
-4.18836e-09
5.44997e-09
3.74254e-09
8.5121e-09
-5.57097e-10
-1.16975e-08
-7.15432e-09
4.94838e-09
-4.98719e-09
7.19313e-09
7.11389e-10
3.42015e-09
-1.57663e-09
-3.52678e-10
2.27715e-11
3.30064e-10
-1.57911e-13
-4.25073e-09
-4.38934e-09
3.97227e-09
4.6678e-09
-4.75489e-09
-1.52949e-09
1.8962e-09
4.38818e-09
-4.04876e-09
6.10913e-09
2.88391e-09
-2.79145e-09
4.05714e-09
-4.65895e-09
5.17671e-09
5.53307e-09
-5.33116e-09
3.869e-10
-3.44469e-10
-7.19423e-12
-3.5237e-11
-2.80401e-09
2.37642e-09
8.45561e-10
-4.17971e-10
5.52988e-09
5.54283e-09
-4.47539e-09
-6.59733e-09
2.74104e-09
-3.22031e-09
-1.17827e-09
1.65754e-09
2.72478e-09
-2.47856e-09
4.65069e-09
-4.89691e-09
-2.98076e-09
3.17972e-09
3.97207e-09
-4.17103e-09
6.47171e-12
-3.65931e-10
6.78133e-12
-4.22964e-09
2.23426e-11
4.50794e-09
-3.00651e-10
5.98945e-09
-4.26439e-09
4.60234e-09
-6.32739e-09
-5.21114e-09
5.24295e-09
2.191e-09
-2.22281e-09
5.68166e-09
-4.42037e-09
5.09661e-09
-6.35791e-09
-4.50566e-09
1.30207e-09
-4.00147e-10
3.60374e-09
-5.10644e-09
4.8703e-09
-5.21154e-09
5.44769e-09
-6.0914e-09
4.36716e-09
-5.30762e-09
7.03186e-09
6.4799e-09
-5.94844e-09
6.61549e-09
-7.14696e-09
-5.43329e-09
5.03406e-09
-5.44181e-09
5.84104e-09
-6.69345e-09
4.78362e-09
-5.17035e-09
7.08017e-09
5.63842e-09
-4.61295e-09
5.85454e-09
-6.88e-09
5.2289e-09
-4.90837e-09
4.99797e-09
-5.3185e-09
-5.58444e-09
4.94727e-09
-5.41435e-09
6.05152e-09
5.28473e-09
-4.78751e-09
5.09483e-09
-5.59205e-09
5.96458e-09
-4.7902e-09
6.05189e-09
-7.22627e-09
5.03565e-09
-4.27099e-09
5.54459e-09
-6.30925e-09
4.92682e-09
-4.56449e-09
4.53805e-09
-4.90038e-09
1.57571e-09
-3.84211e-09
3.78417e-09
-1.51778e-09
6.17474e-09
-4.16639e-09
3.54924e-09
-5.55759e-09
5.54778e-09
5.5553e-09
-5.08095e-09
-6.02213e-09
-7.08907e-10
1.26334e-09
-3.29626e-09
2.74182e-09
5.63836e-09
5.51358e-09
-4.92487e-09
-6.22707e-09
-5.04167e-09
-5.11527e-09
4.10137e-09
6.05558e-09
-4.91258e-09
-5.01635e-09
4.09756e-09
5.83137e-09
-4.64629e-09
-3.46744e-09
4.61202e-09
3.50171e-09
4.33332e-09
3.63887e-09
-4.51081e-09
-3.46138e-09
5.22944e-09
4.93081e-09
-4.88908e-09
-5.27117e-09
5.10532e-09
4.83627e-09
-4.75932e-09
-5.18227e-09
5.41475e-09
5.32517e-09
-4.88958e-09
-5.85033e-09
5.64024e-09
5.52676e-09
-5.11601e-09
-6.051e-09
5.51825e-09
5.4065e-09
-5.01226e-09
-5.91249e-09
4.28154e-09
-4.67695e-09
-2.39805e-09
2.79345e-09
-6.09638e-09
4.64188e-09
-3.67569e-09
5.13019e-09
7.55038e-09
-5.73091e-10
-2.24939e-11
-6.9548e-09
-3.03603e-09
3.26965e-09
4.08405e-09
-4.31767e-09
5.76782e-09
-4.99358e-09
-9.6639e-10
1.92154e-10
3.85426e-09
1.22481e-09
-3.60665e-09
-1.47242e-09
6.5911e-09
-4.70225e-09
5.10223e-09
-6.99107e-09
-4.28398e-09
2.09378e-09
-8.64915e-10
3.05511e-09
5.69378e-09
-7.7108e-09
7.81776e-09
-5.80074e-09
-1.44857e-09
-2.29423e-09
2.45971e-09
1.28309e-09
2.61484e-09
-4.97631e-09
-2.27657e-09
4.63804e-09
-5.02607e-09
4.55026e-09
-4.63871e-09
5.11452e-09
3.43789e-11
3.29628e-11
-6.73417e-11
-2.63511e-09
-3.49365e-10
2.4273e-10
2.74175e-09
-1.75463e-09
3.02098e-09
-7.15284e-09
5.8865e-09
3.01678e-10
9.16945e-11
-7.50915e-09
-4.9718e-09
8.81154e-09
3.66941e-09
-8.55746e-10
1.58555e-09
1.0491e-09
-1.7789e-09
1.26755e-09
1.25924e-09
-1.38105e-09
-8.50293e-11
9.10551e-11
-2.64353e-10
2.58327e-10
-3.8079e-09
3.31839e-09
4.70559e-09
-4.21608e-09
-3.07687e-09
-9.07401e-10
3.25553e-09
7.28735e-10
-1.95145e-09
3.37174e-09
-7.95454e-09
6.53426e-09
5.50154e-10
4.53332e-09
-4.78495e-09
-2.98521e-10
2.98359e-09
-3.34562e-09
4.15136e-09
-3.78933e-09
4.80237e-09
-1.1466e-09
-3.55394e-09
-1.01831e-10
5.36139e-09
6.57139e-10
-1.95502e-09
-4.06351e-09
2.55276e-09
-1.55085e-09
2.63214e-09
-3.63405e-09
4.98374e-09
-5.31368e-09
5.27984e-09
-4.9499e-09
-3.73675e-10
-4.70756e-11
3.94366e-10
2.63843e-11
5.57226e-09
-5.48551e-09
-4.7909e-09
4.70415e-09
-6.27259e-09
-3.9731e-09
5.03455e-09
-2.31624e-09
-5.66003e-09
5.00177e-09
2.97449e-09
-1.83578e-09
2.86121e-09
-6.11348e-09
5.08805e-09
4.13257e-09
-4.26627e-09
-3.94223e-09
4.07593e-09
1.91119e-09
-9.7046e-10
-1.84391e-09
9.03187e-10
2.14443e-09
4.02082e-09
-2.13804e-09
3.68525e-09
-5.0933e-10
-4.26474e-09
1.08881e-09
-1.43473e-09
-2.53848e-09
1.23994e-09
2.73327e-09
-1.82634e-09
5.20623e-09
-5.02649e-09
-5.67056e-10
1.05036e-09
-3.02741e-09
2.89706e-09
-5.15182e-09
4.86961e-09
3.12458e-09
-3.41167e-09
-5.80929e-09
4.74706e-09
5.11205e-09
-4.12358e-09
-5.73552e-09
7.10716e-10
4.86361e-09
-5.38535e-09
-1.88978e-10
2.61908e-10
4.2793e-11
-1.96234e-10
-1.08467e-10
-2.65912e-09
-4.16385e-09
2.91624e-09
3.90673e-09
4.98518e-09
-3.40184e-09
-4.37479e-09
-2.90786e-09
1.28875e-09
-4.99942e-09
6.61853e-09
-3.31405e-09
3.26401e-09
2.48938e-09
-2.43935e-09
4.34476e-09
-3.17445e-09
-7.69193e-09
6.52161e-09
8.1738e-10
-5.37735e-10
9.879e-10
-4.18901e-09
5.54181e-09
-5.99842e-09
4.64561e-09
-1.21872e-10
3.92242e-11
-2.61821e-10
-4.46476e-09
4.81939e-09
-6.04465e-09
5.69002e-09
-3.5531e-09
4.32544e-09
-5.78587e-09
5.01353e-09
-3.54281e-09
3.34142e-09
-4.83362e-09
5.03501e-09
3.68932e-09
-4.0711e-09
5.32675e-09
-4.94497e-09
-8.87186e-09
2.90943e-10
6.41652e-09
2.16439e-09
-3.19956e-09
-1.27575e-09
1.09475e-09
3.38057e-09
-6.29983e-10
8.00414e-10
-6.31364e-09
6.14321e-09
-2.59332e-09
-1.2281e-10
8.10119e-11
4.52225e-09
-2.48391e-09
-2.03834e-09
-1.8854e-09
9.06601e-09
-8.1922e-09
5.01745e-09
-2.76358e-09
-2.25386e-09
-1.58202e-09
-5.08973e-09
1.91686e-09
-3.34067e-09
1.49205e-09
-2.09336e-09
3.94198e-09
-8.36478e-10
2.96797e-09
-2.8404e-09
3.97991e-09
-2.27398e-09
-1.70593e-09
3.55804e-10
1.66697e-10
4.27987e-09
-2.51543e-09
-1.52888e-09
2.60958e-09
-4.59232e-09
5.75417e-09
-7.11037e-09
5.94851e-09
-2.6658e-09
2.7638e-09
3.76353e-09
-3.86153e-09
-2.39953e-10
3.04735e-10
1.34511e-10
-1.99293e-10
6.47896e-09
-7.12082e-09
1.16023e-09
-5.1837e-10
4.3614e-09
-4.30243e-09
3.13843e-09
-3.32847e-09
4.54489e-09
-4.35485e-09
-5.84379e-10
2.07576e-09
4.19807e-10
-2.7782e-09
-5.79264e-09
5.39707e-09
3.17376e-09
-5.11637e-09
5.05506e-09
5.23797e-09
-5.17665e-09
-3.87614e-09
-5.74942e-09
4.36917e-09
5.25639e-09
1.41568e-10
-1.77221e-10
3.62498e-10
-3.26845e-10
5.62972e-09
-4.65749e-09
5.85997e-09
-6.8322e-09
-4.77758e-09
-3.31864e-09
4.58067e-09
3.51555e-09
-5.33503e-09
4.88469e-09
-5.97164e-09
6.42197e-09
-4.39266e-09
4.73088e-09
-5.24093e-09
4.9027e-09
-1.09749e-09
-3.11924e-09
3.24839e-09
9.68337e-10
4.28284e-09
4.87195e-09
-3.86383e-09
-5.29095e-09
3.41523e-09
-3.80969e-09
5.17399e-09
-4.77953e-09
-2.54339e-10
-3.00724e-10
3.75102e-09
-3.19596e-09
-2.8496e-09
4.35959e-09
2.6654e-09
-4.1754e-09
-4.18299e-09
-4.23169e-10
4.4556e-09
1.50565e-10
2.23386e-09
-2.70625e-09
1.23018e-10
2.87333e-09
-4.1263e-09
-2.40961e-09
3.66258e-09
-9.89618e-09
4.8519e-09
-5.12598e-09
1.01702e-08
-4.36666e-09
-5.89504e-09
4.87396e-09
5.38775e-09
6.37108e-09
6.63856e-09
-7.60873e-09
-5.40091e-09
3.49399e-09
5.37963e-09
-3.44524e-09
-5.42838e-09
-3.11402e-09
-1.18303e-09
3.81931e-09
4.39066e-09
-3.51515e-09
-4.69482e-09
-3.37814e-09
-5.25824e-09
3.51538e-09
5.12101e-09
3.60171e-09
4.93662e-09
-4.01727e-09
-4.52106e-09
4.50885e-09
5.49393e-09
-5.22624e-09
-4.77655e-09
3.98731e-09
5.57515e-09
-4.2998e-09
-5.26266e-09
-4.00187e-09
-5.95593e-09
4.50788e-09
5.44992e-09
-3.22251e-09
-4.12522e-09
3.84048e-09
3.50724e-09
3.66468e-09
5.35112e-09
-3.69148e-09
-5.32432e-09
-3.2928e-09
-4.21563e-09
3.92292e-09
3.58551e-09
-3.05965e-09
-4.35767e-09
2.5437e-09
4.87361e-09
-4.37747e-09
-6.25894e-09
4.91442e-09
5.72199e-09
4.8396e-09
-4.19235e-09
-5.98446e-09
5.33721e-09
-2.45628e-09
-1.42733e-09
2.62581e-09
1.2578e-09
-2.07566e-10
2.07205e-09
-2.19585e-09
3.31362e-10
3.93972e-09
-3.13467e-09
7.19768e-09
-8.00273e-09
-4.95781e-09
-3.99854e-09
5.14004e-09
3.8163e-09
3.41487e-09
-3.5301e-09
5.62168e-09
-5.50645e-09
3.48955e-09
-3.26101e-09
5.55534e-09
-5.78388e-09
-3.29506e-09
3.83871e-09
-6.04938e-09
5.50574e-09
-4.54406e-09
4.07469e-09
-5.13683e-09
5.6062e-09
1.35917e-09
-2.65663e-09
2.5608e-09
-6.60442e-09
6.33354e-09
-7.13626e-09
7.40713e-09
-4.50415e-09
-1.98827e-09
4.66608e-09
6.89081e-11
1.32135e-10
-1.33958e-10
-6.70848e-11
6.04235e-09
-5.71462e-09
6.93175e-09
-7.25947e-09
-5.2421e-09
3.76176e-09
-4.92436e-09
6.4047e-09
7.44908e-09
4.89201e-09
-5.97002e-09
3.53967e-09
-4.18956e-09
5.64345e-09
-4.99356e-09
-1.03426e-08
6.55163e-09
1.24849e-09
-5.83177e-09
-1.96835e-09
-4.78398e-09
5.94777e-09
3.75518e-09
-4.91898e-09
5.50355e-09
-6.50068e-09
5.50598e-09
4.91922e-09
-5.67255e-09
4.74064e-09
-4.26757e-09
5.25022e-09
-4.27544e-09
-4.1802e-09
5.13746e-09
-4.17977e-09
4.80066e-09
-5.67922e-09
4.54324e-09
-4.31142e-09
5.41256e-09
-4.16079e-09
-5.34924e-09
6.53258e-09
-5.18521e-09
-5.6418e-09
6.9023e-09
-5.63796e-09
4.51863e-09
-5.28982e-09
4.37291e-09
-5.6767e-09
7.0702e-09
4.46043e-09
-5.85394e-09
-5.18869e-09
6.23892e-09
-4.92637e-09
4.76867e-09
-5.24534e-09
4.7595e-09
-4.76958e-09
5.7889e-09
-4.39746e-09
4.26754e-09
-4.68896e-09
4.24073e-09
-3.18853e-10
-2.20113e-09
-7.33298e-11
-5.70306e-09
6.88597e-09
-5.54957e-09
-7.64753e-09
-9.35894e-10
7.42826e-09
1.15517e-09
-4.85441e-09
-5.79403e-09
4.17e-09
6.47845e-09
4.0321e-09
4.24605e-09
-5.29457e-09
6.96355e-10
-7.44692e-10
4.22996e-10
-3.74659e-10
5.18003e-09
2.32749e-09
-2.55707e-09
-4.95045e-09
4.45204e-09
-7.79079e-09
8.06337e-09
-4.72462e-09
4.94332e-09
-5.55769e-09
4.10836e-09
2.40235e-09
-3.11674e-09
-3.5324e-09
4.24678e-09
-2.72662e-09
6.05403e-09
-5.46103e-09
2.13362e-09
-5.41358e-09
1.78074e-09
-3.80694e-09
3.39962e-09
-7.10183e-09
-5.94366e-09
-5.27191e-09
4.72825e-09
6.48732e-09
-4.84688e-09
4.49038e-09
4.7039e-09
-4.3474e-09
2.20798e-09
4.38692e-09
-2.23349e-09
-1.22454e-09
-7.37546e-10
-7.33446e-09
9.29655e-09
4.14812e-09
6.27975e-09
-4.89798e-09
3.32927e-09
-3.05425e-09
4.29588e-09
-4.5709e-09
6.87897e-09
4.60376e-10
-6.61466e-09
-7.24678e-10
-7.36569e-09
7.19957e-09
2.5084e-10
-8.4716e-11
-5.10308e-09
-5.49778e-09
5.48448e-09
-7.8977e-09
-9.86293e-10
7.41779e-09
1.4662e-09
-2.52316e-09
2.18543e-09
-6.32731e-10
2.07995e-09
5.98894e-09
6.01136e-10
-6.18329e-09
-4.18756e-09
5.83048e-09
4.54037e-09
5.7604e-09
4.75456e-09
-4.5755e-09
-5.93946e-09
-2.29187e-09
2.09101e-09
3.82853e-09
-3.62766e-09
-5.37557e-09
5.39348e-09
4.11466e-09
3.80604e-09
6.01973e-09
-4.14411e-09
2.13002e-09
7.09485e-09
-1.05715e-09
-8.16773e-09
6.87252e-12
1.16739e-09
6.44068e-09
-4.97651e-09
3.71255e-09
-5.36578e-09
6.94606e-10
6.57775e-09
-1.90657e-09
5.37828e-09
5.98403e-09
-6.37857e-09
-5.363e-09
-6.66062e-09
4.99256e-09
7.03106e-09
3.62108e-09
3.46943e-09
-3.38616e-09
-3.70435e-09
4.92915e-09
5.91264e-09
-4.50135e-09
-6.34044e-09
-6.5912e-09
7.26933e-09
7.17164e-09
-7.84976e-09
-7.09907e-09
2.18169e-09
4.26232e-09
6.5506e-10
-2.91323e-09
7.59576e-10
-9.23209e-10
-6.11569e-09
7.78967e-09
5.0398e-09
-6.71378e-09
4.44569e-09
6.79692e-09
-5.67035e-09
-3.36786e-09
-5.31163e-09
3.57305e-09
-3.95804e-09
-6.45094e-09
4.31758e-09
4.47439e-09
6.8477e-09
-5.35751e-09
4.39329e-09
7.00653e-09
-4.91992e-09
-3.78099e-09
-5.52388e-09
3.87159e-09
3.84876e-09
5.80017e-09
-4.61329e-09
2.62417e-09
3.31124e-09
-3.16644e-09
-2.76897e-09
-4.96671e-09
-7.05136e-09
5.32462e-09
-4.03588e-09
-5.60608e-09
4.05752e-09
3.56248e-09
5.31527e-09
-3.64885e-09
4.42031e-09
6.3211e-09
-5.103e-09
3.48302e-09
5.50673e-09
-3.70502e-09
-5.34789e-09
-6.86485e-10
1.19366e-09
4.84071e-09
1.20806e-09
5.04855e-09
7.20464e-09
-1.12913e-09
-5.92127e-09
-1.54239e-10
5.94993e-09
-2.03451e-10
-5.94556e-09
1.99074e-10
6.87352e-09
-1.34982e-10
-6.92732e-09
1.88776e-10
7.5804e-09
-2.13742e-10
-8.38199e-09
1.01533e-09
-6.49148e-09
4.25054e-09
1.58607e-09
6.54876e-10
5.43996e-09
-5.99877e-09
2.32919e-10
3.2589e-10
-7.0174e-09
7.14581e-09
-1.21567e-10
-6.83926e-12
-7.37513e-09
7.38555e-09
-2.21081e-11
1.16843e-11
-7.09796e-09
6.81645e-09
-1.95021e-10
4.76539e-10
-8.09944e-09
7.01971e-09
2.11195e-09
-1.03222e-09
-8.41122e-09
8.59408e-09
-2.84711e-10
1.01849e-10
-6.49239e-09
6.64357e-09
-2.45e-10
9.3816e-11
-5.52501e-09
6.63892e-09
-2.70162e-11
-1.0869e-09
-6.25472e-09
5.14493e-09
1.53366e-09
-4.23865e-10
-6.29328e-09
5.1343e-09
-5.17022e-10
1.676e-09
-5.64548e-09
6.78654e-09
-3.19368e-11
-1.10913e-09
-8.1993e-09
7.93605e-09
-9.33373e-11
3.56584e-10
-5.47879e-09
6.42008e-09
9.89669e-12
-9.5119e-10
-6.53557e-09
6.57951e-09
-8.82357e-11
4.42946e-11
-6.65939e-09
6.75376e-09
-8.39597e-11
-1.04081e-11
-6.54869e-09
6.53755e-09
-1.33646e-10
1.44783e-10
-7.98862e-09
8.16387e-09
-1.11615e-10
-6.3634e-11
7.22884e-09
-8.76589e-09
5.84454e-11
1.4786e-09
8.80614e-09
-8.50582e-09
2.00727e-10
-5.01043e-10
-4.22998e-09
-1.72924e-09
4.49623e-09
1.46299e-09
6.15754e-09
-6.61403e-09
-1.73499e-10
5.81701e-09
1.41279e-09
-5.67959e-09
-4.55496e-09
1.03604e-09
6.34105e-09
-6.72485e-09
-4.92988e-09
-6.13416e-09
5.70879e-09
3.96504e-09
2.00221e-09
4.79476e-09
-4.21873e-09
-2.57824e-09
-1.62291e-09
-2.28194e-09
-4.64563e-09
4.69892e-09
-4.64561e-09
4.87394e-09
-5.27984e-09
5.78418e-09
-2.24994e-09
6.08597e-09
1.34399e-09
-3.7814e-09
5.99787e-09
-5.17784e-09
2.96137e-09
1.58126e-10
-2.44263e-11
-1.337e-10
3.87222e-09
5.6915e-09
-4.01594e-09
4.18428e-09
6.2658e-09
-4.81173e-09
-3.95059e-09
-5.36763e-09
4.27655e-09
-6.15956e-09
7.89515e-09
-6.70739e-09
2.37539e-10
-4.2803e-10
7.74087e-09
-7.07966e-09
7.1981e-09
-3.89984e-09
4.73731e-09
-4.82501e-09
-1.49433e-09
-5.16646e-09
-3.87854e-09
4.13242e-09
-3.21171e-09
-5.03254e-09
3.59796e-09
3.02213e-09
4.97683e-09
-3.66565e-09
3.73035e-09
5.60528e-09
-4.10619e-09
3.65723e-09
5.47823e-09
-4.03013e-09
-2.07055e-09
5.44803e-09
-5.31325e-09
-5.41776e-09
4.37118e-09
6.35983e-09
1.53186e-09
-2.3898e-09
-1.65748e-09
-1.73709e-10
-1.04294e-10
5.73432e-11
2.20661e-10
-3.4807e-09
3.71891e-09
5.93653e-09
5.24369e-09
4.89255e-09
-5.99928e-09
-4.13697e-09
6.42676e-09
-7.2755e-09
-2.78897e-09
3.63772e-09
1.4548e-09
-6.53384e-09
5.73383e-10
-3.87428e-10
3.65248e-11
-3.09464e-09
-3.68545e-09
2.97218e-09
-4.76642e-09
-1.08017e-09
5.20186e-09
6.44728e-10
7.46037e-09
-5.96406e-10
-3.84999e-10
5.85716e-09
-4.83311e-09
6.16688e-09
-7.19093e-09
5.43634e-09
-4.07878e-09
4.81406e-09
-6.17162e-09
3.78301e-09
5.90886e-09
-4.05164e-09
3.64364e-09
5.67675e-09
-3.90564e-09
3.70002e-09
5.77831e-09
-3.96008e-09
-2.13124e-09
2.97886e-09
-4.16166e-09
-4.61061e-09
-4.24441e-09
5.20457e-09
3.65044e-09
4.85548e-09
5.82491e-09
-4.00647e-09
-6.67391e-09
2.50258e-09
-6.42431e-09
-2.24808e-09
6.16981e-09
-1.03827e-09
4.24609e-09
-4.95622e-09
3.54768e-09
-4.17458e-09
5.58312e-09
-2.85218e-10
4.39537e-09
1.35805e-09
-4.28649e-09
-3.00504e-09
-1.0216e-09
4.36462e-09
1.73464e-09
-1.63467e-09
-4.46459e-09
-6.35042e-09
-4.15799e-09
5.76669e-09
4.74172e-09
-5.13749e-09
4.62326e-09
-4.82659e-09
5.34082e-09
7.47914e-09
2.32163e-09
-3.6184e-09
-6.18236e-09
-7.71492e-09
7.06802e-09
-2.11494e-09
2.76183e-09
-5.58295e-09
6.77681e-09
-4.67457e-09
4.40014e-10
-2.36574e-09
6.44518e-09
2.98533e-09
-6.60614e-09
-2.82437e-09
-7.26562e-09
3.73283e-09
-3.38681e-09
6.9196e-09
-5.3791e-09
-2.84712e-10
3.15926e-10
5.26102e-09
1.94175e-09
-3.62662e-09
-3.57615e-09
-5.52146e-09
6.7626e-09
-4.20003e-09
2.9589e-09
-5.7054e-09
4.9873e-09
5.35998e-09
3.1882e-09
-7.57516e-09
6.51698e-09
-2.46717e-09
1.5597e-09
-1.79691e-09
2.70439e-09
-5.81316e-09
1.14567e-09
5.11445e-09
-4.4696e-10
-1.83428e-09
8.32215e-09
-8.37327e-09
-3.73133e-09
-3.63266e-09
4.70487e-09
-3.03327e-09
4.82406e-09
-6.51729e-09
-3.1435e-09
5.01191e-09
-6.76962e-09
-3.20963e-09
5.12634e-09
-6.92256e-09
-3.09268e-09
4.92431e-09
-6.65262e-09
-2.43395e-09
-4.92226e-09
3.05063e-09
-3.67327e-09
5.54491e-09
-4.78673e-09
6.54112e-09
4.69079e-09
-5.70559e-09
-7.14594e-09
8.55983e-09
4.29169e-09
-1.08924e-10
-6.05702e-10
-4.78248e-12
7.19408e-10
-4.43347e-09
6.09129e-09
-8.24902e-09
5.86684e-09
1.13717e-09
-6.35534e-09
-6.48668e-10
-6.87954e-09
-1.52032e-09
7.30645e-09
1.09341e-09
-7.22908e-09
-1.18916e-09
7.02598e-12
-6.03609e-09
-1.10463e-09
6.4833e-10
-5.92078e-09
-1.40276e-09
1.03026e-09
-4.49244e-09
-9.16228e-10
-1.16334e-10
-4.58838e-09
-9.40558e-10
-1.16537e-10
6.21065e-09
1.46077e-09
-1.1198e-09
5.99822e-09
1.05056e-09
1.8006e-10
4.45367e-09
5.31613e-09
-5.40088e-09
-4.36893e-09
5.52754e-09
-5.65359e-09
2.46952e-09
-2.34347e-09
-3.18039e-09
-1.43603e-09
5.25509e-10
5.31739e-09
-5.48617e-09
-3.56731e-10
-4.84588e-09
-6.75656e-09
6.11693e-09
-3.30707e-09
5.80418e-09
-7.48701e-09
-2.85484e-10
1.15002e-10
-2.98363e-10
5.7176e-09
5.30701e-10
-5.88571e-11
-8.50254e-11
-4.77994e-10
6.62051e-09
1.43789e-09
6.00015e-10
-6.25251e-09
-8.38985e-10
3.71281e-10
-5.90705e-09
-4.63002e-10
-3.52167e-10
6.49491e-09
1.00306e-09
-1.12486e-10
4.00071e-10
-3.62065e-10
6.43373e-09
7.44785e-10
1.00352e-09
-7.29434e-09
-1.80862e-09
-2.00485e-10
5.95272e-10
2.23724e-11
8.09765e-11
-9.85123e-11
1.93396e-10
2.56671e-11
1.01484e-10
6.80386e-10
-5.89449e-09
-1.04062e-09
-1.24434e-10
-2.20048e-10
-5.92953e-11
6.72311e-12
-2.12051e-10
6.00339e-09
6.28739e-10
-2.84532e-10
6.525e-09
5.13288e-10
-2.81042e-10
6.3756e-09
4.84953e-10
-3.15485e-10
6.27453e-09
5.78511e-10
-3.44469e-10
7.70871e-09
7.99634e-10
-5.3297e-11
9.35505e-11
6.26832e-10
-8.08101e-09
-1.05164e-09
9.48816e-10
-1.20542e-09
-1.28367e-09
6.0017e-09
-3.22605e-10
1.41051e-09
-7.08961e-09
-4.24238e-09
1.67753e-09
-1.00445e-09
3.5693e-09
-2.72924e-09
7.06724e-09
1.65987e-09
-4.04533e-09
5.06137e-09
-5.26677e-09
8.06808e-10
-3.69004e-09
-6.11727e-11
2.9444e-09
-6.50794e-09
-1.69234e-09
4.85355e-10
4.02268e-09
-4.08836e-09
-3.27994e-09
-3.45482e-09
-7.03064e-09
6.9687e-09
3.51676e-09
3.08331e-10
5.51909e-09
-5.16194e-09
-6.65484e-10
-3.74478e-09
-6.00456e-09
2.14885e-09
3.84761e-09
-3.1303e-09
-2.86616e-09
-3.90006e-09
-4.86321e-09
2.41286e-09
-3.67081e-09
5.96655e-09
-8.03311e-09
-1.26913e-09
1.82837e-09
3.65095e-09
-4.21019e-09
-5.38204e-09
-5.07921e-09
5.67035e-09
-2.41064e-09
-7.53454e-09
5.64993e-09
4.29526e-09
8.48531e-10
3.73081e-09
-4.57934e-09
1.14959e-09
3.72788e-09
-4.87747e-09
1.40524e-09
4.91635e-09
-6.32159e-09
-3.62343e-09
3.2621e-09
-4.14736e-09
4.50868e-09
-4.21979e-09
4.61149e-09
-5.81447e-09
5.42277e-09
2.85507e-09
-3.09316e-09
5.38302e-09
4.13476e-09
-3.86707e-09
4.8462e-09
-5.1139e-09
-3.84203e-09
5.10525e-09
-5.51662e-11
-3.49758e-09
4.54971e-09
2.97997e-09
-2.39385e-09
3.15137e-09
-1.07637e-09
4.70826e-09
-2.10352e-10
-4.23148e-11
-5.66254e-09
5.64829e-09
7.28358e-09
3.60088e-09
5.35023e-09
-4.49744e-09
1.41692e-10
-2.75221e-10
3.77538e-10
-2.44009e-10
4.70071e-10
-6.79581e-09
-7.9508e-10
4.90871e-09
3.14501e-09
-5.15667e-09
-5.84604e-09
-4.6959e-09
5.5811e-09
4.96084e-09
3.81405e-09
-3.90184e-09
7.1075e-09
-6.64888e-09
-2.01228e-09
7.6346e-10
7.32697e-09
-7.48627e-09
-4.13792e-10
-5.29682e-09
3.21903e-09
6.76769e-09
-4.68989e-09
-6.91522e-09
-4.55433e-09
4.86512e-09
6.60048e-09
4.1522e-09
-4.71033e-09
-6.9351e-09
5.21756e-09
5.26677e-09
-4.90547e-09
-3.57004e-09
3.93145e-09
-5.77173e-09
-3.94392e-09
4.47355e-09
4.86205e-10
-2.51675e-09
-3.63299e-10
-6.13514e-09
3.96813e-09
-3.31345e-09
5.48046e-09
6.38239e-09
6.58441e-10
-6.57076e-09
-4.48952e-09
2.21641e-10
-2.31348e-09
6.56023e-09
-5.1503e-09
-5.54594e-09
3.62343e-09
-5.76436e-09
4.5641e-09
5.74809e-09
3.82571e-09
-3.80117e-09
5.96841e-09
-5.99295e-09
-7.08025e-10
-7.69315e-09
8.4264e-09
-2.52211e-11
2.65318e-10
6.09122e-09
8.43031e-10
3.79916e-10
5.89241e-09
6.06638e-10
-6.71022e-09
4.43093e-09
-4.43275e-09
6.71204e-09
3.73792e-09
2.36195e-09
-1.39161e-09
-4.70825e-09
3.966e-09
5.45347e-09
-3.51268e-09
-5.90679e-09
-5.7573e-09
1.31911e-09
-2.08853e-09
6.52672e-09
-8.68876e-09
5.93441e-09
1.42209e-09
1.33226e-09
9.12542e-10
3.66708e-09
-6.11635e-09
1.53673e-09
3.03676e-10
1.31068e-09
-1.27604e-09
-3.3832e-10
-6.35649e-09
-6.54206e-10
-4.41264e-10
7.45196e-09
-5.362e-09
-3.56494e-09
3.96913e-09
-4.23404e-09
4.72491e-09
-6.15054e-09
5.65967e-09
-4.65805e-09
-4.60401e-09
4.40765e-09
4.20123e-09
-4.00638e-09
3.28503e-09
-3.47989e-09
5.05958e-09
-4.45847e-09
5.59793e-09
-6.19904e-09
3.39875e-10
-1.89766e-10
-4.91652e-09
4.38621e-10
-4.20087e-10
-5.13031e-10
4.94498e-10
-3.30104e-09
3.99603e-09
-3.67575e-09
3.61954e-09
-4.0241e-09
6.9523e-09
-6.54774e-09
5.09832e-09
3.93976e-09
-5.18097e-09
-3.85711e-09
-9.13263e-11
3.74315e-10
5.68002e-09
1.61848e-09
-1.88423e-09
-5.41427e-09
5.48247e-09
-6.26653e-09
5.65799e-09
-1.03711e-09
-2.7126e-09
5.04504e-09
-7.717e-09
1.12673e-08
-8.59533e-09
4.1112e-09
-4.15032e-09
-1.08603e-09
1.12515e-09
3.39172e-09
5.39849e-09
-4.53967e-09
1.84556e-10
1.30095e-10
-7.47204e-09
7.15739e-09
5.19366e-09
-7.27747e-09
5.27201e-09
4.2407e-10
7.95133e-09
-2.20057e-09
-3.99007e-09
4.43255e-09
-5.62032e-09
2.41833e-09
-2.42748e-09
-3.72218e-09
5.01415e-09
1.28775e-09
-5.38936e-09
7.35704e-09
3.47685e-10
-7.72722e-09
1.21386e-10
-2.26187e-10
-6.63962e-09
6.71244e-09
7.75712e-10
-6.43081e-09
6.31811e-09
1.26229e-09
-8.42533e-09
8.57433e-09
1.25624e-09
7.32585e-09
-6.21556e-09
5.93602e-09
1.07994e-09
4.79747e-11
-4.81058e-09
6.97991e-09
-8.66041e-09
-1.11024e-10
1.79153e-09
-4.18312e-09
3.87126e-09
5.23867e-09
4.3416e-09
-3.9502e-09
-5.12599e-09
4.73459e-09
5.03325e-09
7.44699e-09
-5.3086e-09
-4.01705e-10
-5.00345e-10
3.96231e-10
5.05819e-10
-4.44335e-09
-1.07955e-09
6.09524e-10
4.91337e-09
-2.37535e-10
-2.06992e-11
3.1828e-10
-6.00462e-11
3.38987e-09
-4.43255e-09
4.00405e-09
-1.40851e-09
6.74995e-09
3.38577e-10
3.12811e-09
5.99435e-10
-6.5136e-09
5.65241e-09
6.85942e-09
-3.72966e-09
4.2886e-09
5.65172e-09
5.00795e-09
-4.28018e-09
-5.31615e-09
4.9001e-09
-4.19083e-09
-5.20171e-09
-4.40411e-09
3.27548e-09
-4.90746e-09
3.48175e-09
-5.53597e-09
-4.82531e-09
-2.44805e-09
4.41623e-09
3.89866e-09
2.64875e-09
-5.21575e-09
-4.66208e-09
3.52911e-09
-4.08003e-09
-5.36986e-09
3.77257e-09
-2.51334e-09
-4.29526e-09
6.85454e-09
-5.90222e-09
-3.98986e-09
4.4133e-09
1.7254e-09
-2.57925e-09
8.64317e-10
7.70848e-10
5.67615e-11
-9.93972e-10
1.66362e-10
-9.2337e-10
-5.83888e-09
-8.85285e-10
7.45848e-09
1.36106e-10
4.95979e-09
4.14938e-09
-4.77321e-09
-4.33596e-09
-5.19203e-09
3.28774e-09
-2.64589e-09
4.55019e-09
-9.16832e-09
6.42933e-09
6.35854e-09
-2.67756e-10
7.16669e-09
6.54036e-09
7.97474e-10
-1.97645e-09
-1.10437e-10
-5.24198e-10
5.25712e-10
-5.01306e-09
4.17376e-09
5.49068e-09
-4.65138e-09
-1.52793e-09
2.25888e-09
-1.78802e-09
1.05707e-09
1.66586e-09
-1.48425e-09
-5.27133e-09
-2.82865e-09
-1.09961e-09
4.03838e-09
-4.19509e-09
-3.14433e-09
1.54726e-09
4.42943e-09
-1.06477e-09
-4.91191e-09
-7.17057e-09
4.80132e-09
-4.237e-09
2.89387e-09
6.28645e-09
-5.60999e-09
-5.30937e-09
5.21377e-09
1.12392e-10
-4.61367e-10
-1.38072e-10
4.87048e-10
-5.54087e-09
3.59496e-09
-5.51291e-09
5.45964e-09
1.71912e-09
7.65672e-10
6.87736e-09
3.63884e-09
-3.58762e-09
4.2281e-09
-4.27932e-09
-6.56347e-09
3.98265e-09
4.95706e-09
-4.36687e-09
4.35209e-09
-4.94229e-09
-5.55514e-09
4.76482e-09
-4.90601e-09
5.69633e-09
2.28685e-09
-1.94709e-09
6.55342e-09
-6.89318e-09
4.69846e-09
-3.03157e-09
-5.07855e-09
6.73608e-09
-6.83468e-09
-5.57811e-09
-4.55423e-09
4.84224e-09
4.23062e-09
5.78496e-09
-5.8193e-09
-4.74964e-09
-5.89479e-09
5.79618e-09
5.60217e-09
4.39916e-09
-4.3608e-09
-4.21856e-09
4.49697e-09
-4.45161e-09
-4.31293e-09
-5.28214e-09
5.81591e-09
4.38545e-09
-4.88174e-09
5.56555e-09
4.11685e-09
5.6225e-09
-6.27488e-09
-4.69686e-09
4.14035e-09
-4.36127e-09
-4.09051e-09
5.75389e-09
-5.83603e-09
-5.55966e-09
4.03142e-09
-3.37763e-09
-7.27178e-09
-1.1721e-09
7.05998e-09
1.38389e-09
1.10132e-09
-3.71854e-09
7.46341e-09
-4.95316e-09
4.08085e-09
-5.14708e-09
5.28302e-09
-4.68623e-09
4.55028e-09
4.4775e-11
-7.85152e-09
7.93684e-09
-4.1727e-09
4.21931e-09
1.05471e-09
-1.38566e-09
1.50573e-09
-1.96398e-09
-8.05418e-10
-9.89184e-10
6.90946e-10
1.10366e-09
6.75071e-09
-4.47096e-09
3.70969e-09
-5.15996e-09
-4.37763e-09
4.88549e-09
4.6521e-09
3.48358e-10
-4.68384e-11
3.1391e-09
-5.05349e-09
6.94021e-09
-6.21655e-09
-4.18546e-09
-5.16146e-09
-4.46658e-10
7.08897e-09
-1.48085e-09
-4.88942e-09
4.07954e-09
6.75689e-09
-5.947e-09
3.715e-09
3.41588e-09
-3.36905e-09
-3.76183e-09
5.74938e-09
-4.41692e-09
-6.35854e-09
2.2589e-09
-3.6964e-09
-1.51546e-09
2.95296e-09
1.10632e-09
-9.81413e-10
1.1641e-09
-1.289e-09
4.52113e-09
-4.97609e-09
-3.56687e-09
4.02182e-09
4.49363e-09
-5.26947e-09
7.49937e-09
-5.29053e-09
-5.64e-09
6.29363e-09
7.56198e-09
-5.919e-09
3.45534e-09
2.1743e-09
-1.65075e-09
5.93703e-10
-1.11725e-09
-8.97116e-10
-4.30458e-10
5.43877e-09
-2.43078e-09
2.87802e-09
-5.59907e-09
-5.09659e-09
-3.34914e-09
4.32717e-09
4.11856e-09
-3.98528e-09
-5.91721e-09
-2.62446e-09
2.6386e-09
2.53862e-09
7.77058e-10
-3.80126e-09