/*--------------------------------*- C++ -*----------------------------------*\
  =========                 |
  \\      /  F ield         | OpenFOAM: The Open Source CFD Toolbox
   \\    /   O peration     | Website:  https://openfoam.org
    \\  /    A nd           | Version:  8
     \\/     M anipulation  |
\*---------------------------------------------------------------------------*/
FoamFile
{
    version     2.0;
    format      ascii;
    class       surfaceScalarField;
    location    "8.6";
    object      phi;
}
// * * * * * * * * * * * * * * * * * * * * * * * * * * * * * * * * * * * * * //

dimensions      [0 3 -1 0 0 0 0];

internalField   nonuniform List<scalar> 
11624
(
-7.93097e-09
8.11193e-09
1.70144e-10
-3.511e-10
-7.33663e-09
-2.77451e-10
-3.16895e-10
-2.10429e-09
1.40205e-10
1.85107e-09
1.13011e-10
8.76337e-09
-7.66385e-09
1.84748e-09
-2.947e-09
-6.0774e-09
5.73124e-09
1.41754e-11
3.31979e-10
-6.17641e-09
4.34655e-09
1.50327e-09
3.26587e-10
-1.46613e-09
-2.85376e-10
-2.96766e-09
4.71917e-09
-8.56356e-10
2.30097e-09
3.18849e-09
-4.6331e-09
3.03503e-09
-2.36764e-09
-3.33827e-09
2.67088e-09
-3.40613e-09
-1.59766e-09
2.65743e-09
2.34635e-09
5.03969e-09
-4.63127e-09
-2.24045e-10
-1.84379e-10
2.02612e-09
4.81333e-09
-2.00516e-09
-4.83429e-09
-2.83214e-09
-4.29913e-09
2.26434e-09
4.86693e-09
-4.03768e-09
5.19379e-09
-1.22163e-09
6.55234e-11
-1.56769e-09
4.44594e-09
-3.9618e-09
1.08355e-09
-3.98651e-09
2.85839e-09
-2.74719e-09
3.87531e-09
4.19532e-09
-4.16513e-09
-9.43824e-11
6.41943e-11
-3.74131e-09
4.84834e-09
-1.20741e-09
1.00385e-10
-2.75314e-09
3.89313e-09
-4.5696e-09
3.42961e-09
-3.23124e-09
-1.58613e-09
1.94862e-09
2.86875e-09
3.34768e-09
-3.80453e-09
2.24338e-10
2.32514e-10
-3.6383e-09
4.45424e-09
-3.49088e-10
-4.66858e-10
5.4094e-09
-5.42248e-09
4.61278e-11
-3.30519e-11
6.20857e-09
-2.06181e-09
8.71071e-10
-5.01783e-09
5.10653e-09
-4.80868e-09
-3.09153e-10
1.13066e-11
-4.89304e-09
1.4672e-09
4.30112e-09
-8.75283e-10
2.49097e-09
-4.03544e-09
-3.40257e-09
4.94704e-09
2.59122e-09
-2.42045e-09
-3.1389e-09
2.96813e-09
-2.77123e-09
3.3562e-09
-4.29602e-09
3.71105e-09
-5.94251e-09
4.61986e-09
-3.97169e-09
5.29434e-09
5.39606e-09
-3.53275e-10
6.37373e-11
5.30285e-09
-1.89211e-10
2.95763e-10
-5.52769e-09
5.13911e-09
5.35213e-10
-1.46634e-10
-5.43094e-09
4.65432e-09
1.0535e-09
-2.76879e-10
5.63673e-09
-2.41081e-10
4.19089e-13
-4.56143e-10
-3.18483e-11
-5.13071e-09
6.10464e-10
-2.88438e-10
-8.79683e-10
5.0003e-09
-5.55784e-09
1.43723e-09
-3.59398e-09
3.25281e-09
-7.21032e-10
1.81346e-10
-3.96029e-09
1.75409e-09
-1.22885e-09
3.43505e-09
2.63237e-09
-4.20787e-09
-2.40459e-09
3.98009e-09
2.81077e-10
8.23049e-11
7.74855e-09
6.15331e-11
-4.84195e-09
-6.42067e-10
5.48053e-09
-2.93105e-10
-6.23216e-09
1.04474e-09
2.11793e-09
-1.84363e-09
-2.8839e-09
2.60959e-09
-9.2567e-09
-3.53233e-10
2.2733e-09
3.22921e-09
9.21805e-10
-1.76555e-09
-2.38547e-09
8.75808e-09
-7.39397e-09
4.79927e-09
-6.16337e-09
4.19269e-09
-3.97064e-09
3.10106e-09
-3.3231e-09
-1.82819e-09
-6.16938e-10
3.4084e-10
3.86262e-09
-4.23803e-09
-4.93551e-09
5.31092e-09
1.0975e-09
-1.06253e-09
3.57809e-09
-3.61305e-09
-3.622e-09
-1.10247e-09
4.76997e-09
-4.54999e-11
3.29869e-09
5.16589e-09
-5.51402e-09
-2.95056e-09
6.71373e-10
-4.50608e-10
2.31823e-10
-4.52588e-10
2.0343e-09
-9.17744e-10
5.11069e-09
-6.22725e-09
-2.06603e-09
2.60217e-09
8.22723e-09
-5.41905e-09
1.69695e-09
-9.88131e-11
3.82091e-09
3.42659e-09
-3.74045e-09
8.43007e-10
-5.29147e-10
-2.82266e-09
3.66945e-09
1.47877e-09
-2.32557e-09
4.62848e-09
-3.96513e-09
-2.89409e-09
2.23074e-09
-6.00974e-10
1.55336e-09
-5.18896e-09
4.23657e-09
-7.04819e-09
5.97895e-09
-3.15344e-09
4.22268e-09
1.64963e-09
-7.4972e-10
-3.87276e-09
2.97285e-09
-2.19925e-10
2.36253e-10
-2.3148e-10
2.15152e-10
-1.61438e-09
4.37309e-09
-3.61506e-09
2.42071e-09
-3.8368e-09
3.35995e-09
-1.94386e-09
-4.84457e-09
-6.89586e-11
4.03384e-09
2.16354e-10
2.23878e-10
-2.22693e-10
-2.17539e-10
2.39849e-09
7.35988e-09
-1.06808e-08
9.22421e-10
2.72652e-09
-2.8009e-09
-3.56867e-09
3.64306e-09
1.7296e-09
4.85079e-09
-1.3148e-09
-5.26558e-09
4.11444e-09
-3.61491e-09
-3.56972e-09
3.07018e-09
-1.0171e-09
5.72744e-11
1.47501e-09
-5.15178e-10
-4.74324e-09
-2.64164e-09
2.9993e-09
4.38558e-09
-2.67516e-09
-3.51521e-09
3.48025e-09
2.71012e-09
-4.91828e-09
4.63376e-09
-6.09067e-10
8.93581e-10
-5.11134e-09
-7.87489e-09
5.32239e-09
-2.87602e-09
2.73347e-09
3.73104e-09
-3.58849e-09
-1.56583e-09
3.24568e-09
-4.1806e-09
2.50075e-09
-3.86014e-09
9.78632e-10
-5.8112e-09
-3.00134e-09
7.00234e-10
-4.73977e-09
-2.94655e-09
6.83052e-10
-4.67285e-09
-2.87194e-09
6.61417e-10
-4.57073e-09
-3.4246e-09
8.31761e-10
-5.28535e-09
4.88034e-09
-4.99051e-09
2.16611e-10
-1.06441e-10
-4.11551e-09
1.08087e-09
-6.35522e-09
-3.00337e-09
7.10015e-10
-4.94224e-09
-3.16295e-09
7.56267e-10
-5.07975e-09
-3.56878e-09
8.8696e-10
-5.60082e-09
-2.7566e-09
6.32381e-10
-4.54472e-09
-2.2661e-10
2.5687e-10
1.91499e-10
-2.21759e-10
5.17483e-09
5.76648e-09
-8.32099e-09
-2.62032e-09
-4.13198e-09
2.76545e-09
3.78724e-09
-5.71955e-09
-5.18044e-09
4.32994e-09
6.57005e-09
-2.29161e-10
2.39117e-10
-2.33042e-10
2.23086e-10
1.02797e-09
-1.13935e-09
4.9608e-09
-4.84942e-09
4.62679e-09
6.51882e-09
-6.94536e-09
-4.20025e-09
6.33854e-09
7.68387e-09
-9.72601e-09
-4.2964e-09
-1.09962e-09
4.75022e-10
-4.24809e-09
4.87269e-09
2.25719e-09
3.12989e-09
-2.44652e-09
-2.94056e-09
-4.3651e-09
-4.27875e-11
4.12793e-09
2.79957e-10
-3.71632e-09
2.40402e-09
-3.18801e-09
4.50031e-09
-3.55927e-09
-3.06046e-09
2.9034e-09
-1.98138e-09
1.63556e-09
2.55673e-09
-2.2109e-09
-2.37308e-09
3.08386e-09
-2.62488e-09
1.9141e-09
1.20781e-10
3.72614e-09
3.48398e-10
2.38015e-09
3.28604e-09
-4.88536e-09
-7.80834e-10
-3.45395e-10
1.48552e-09
-1.58701e-09
4.46878e-10
3.91817e-09
5.78067e-10
-3.73233e-09
-7.63905e-10
-4.04458e-11
-4.44835e-09
-6.41905e-10
3.24542e-09
-3.8841e-09
2.97747e-09
-2.33879e-09
-2.73114e-09
4.01575e-10
4.74006e-09
-2.41049e-09
2.14235e-09
8.54588e-09
-1.2619e-09
-9.42633e-09
3.17652e-09
7.93255e-09
-8.96672e-09
5.41401e-09
6.40198e-10
-1.17386e-09
-2.59662e-10
5.45042e-10
8.2605e-09
-3.41782e-09
-3.11365e-09
2.49603e-09
-1.07306e-09
6.75137e-10
1.122e-09
-7.24074e-10
5.74663e-10
-1.22902e-10
5.49886e-09
-5.95062e-09
-4.97911e-10
7.42529e-10
-2.16207e-09
1.91745e-09
1.48984e-09
-3.8532e-09
3.7305e-09
-1.36714e-09
1.43397e-09
-1.21667e-09
2.81772e-09
2.78325e-09
-3.63543e-09
3.83483e-09
-2.98266e-09
4.63516e-09
8.9824e-09
-2.78466e-09
-1.08329e-08
-2.07076e-09
-2.42942e-09
2.97381e-09
1.52636e-09
1.22319e-09
4.233e-09
-2.86021e-09
-2.59598e-09
9.98308e-11
-1.82578e-10
-1.87784e-09
1.96059e-09
3.04509e-09
3.61625e-09
-4.02896e-09
3.19751e-10
-9.12888e-10
5.4282e-09
-4.83506e-09
3.39921e-10
3.00923e-09
3.51868e-10
-3.70102e-09
3.00842e-09
-2.73845e-09
-2.64304e-09
-6.18664e-09
-5.67789e-09
6.14498e-09
8.71734e-11
1.49936e-10
-4.99792e-11
-1.8713e-10
7.58934e-09
-1.44157e-09
-6.38798e-10
-5.50898e-09
-5.22491e-09
-1.13158e-09
7.06545e-10
5.64994e-09
4.34379e-09
-4.79009e-09
-3.99005e-09
4.43635e-09
2.25289e-09
-4.06028e-09
-3.11089e-09
3.88418e-09
-4.13391e-09
-1.3161e-09
4.16846e-09
3.32632e-09
-4.24936e-09
4.39381e-09
-3.5672e-09
-6.17113e-09
5.34452e-09
1.75772e-09
-3.91335e-09
3.64547e-09
-5.14187e-09
-3.06097e-09
2.26033e-09
-2.20832e-09
7.92438e-10
1.49002e-09
-7.41337e-11
-3.62915e-09
-2.58823e-09
4.29794e-09
1.91944e-09
2.39098e-09
-3.28792e-09
3.50593e-09
-2.60899e-09
2.45878e-10
-2.48598e-10
2.19184e-10
-2.16464e-10
-4.14042e-09
4.09327e-09
-3.77413e-09
3.82128e-09
7.71748e-09
1.49587e-09
-2.82078e-09
-6.39257e-09
-3.27922e-09
2.28212e-09
-3.39478e-09
4.39188e-09
3.17673e-09
-7.65819e-09
9.10826e-09
1.19456e-10
-5.25715e-10
-2.48303e-09
2.88929e-09
-3.64118e-10
4.38695e-09
-4.27716e-09
2.54333e-10
5.43555e-09
-4.40275e-09
-7.00469e-10
-3.32329e-10
-1.6286e-09
-4.05264e-09
2.22628e-09
3.45495e-09
-6.03259e-09
-6.95063e-10
6.72765e-09
-1.62707e-09
2.57627e-10
1.48173e-09
-1.12283e-10
-9.09779e-10
-4.489e-09
7.58304e-10
4.64047e-09
-3.65254e-09
-3.98948e-09
4.43212e-09
3.2099e-09
-4.24644e-09
-4.49403e-09
2.78489e-09
5.95558e-09
5.01258e-09
-5.28262e-09
7.55284e-09
-7.28281e-09
9.71773e-10
-4.83417e-09
4.89037e-09
4.68007e-09
-4.53279e-09
4.85302e-09
-2.34957e-10
-2.21595e-10
2.30766e-10
2.25786e-10
-4.39213e-09
4.3092e-09
8.10187e-11
1.91655e-12
5.75664e-09
-5.29881e-09
4.65266e-10
-9.23094e-10
5.81106e-09
-5.2894e-09
5.08382e-10
-1.03004e-09
5.63578e-09
-5.1884e-09
4.56654e-10
-9.04037e-10
3.03888e-09
-3.83456e-09
1.63189e-10
6.32489e-10
-4.97221e-09
4.97281e-09
-7.82249e-11
7.76287e-11
2.95652e-09
-3.18009e-09
3.12702e-09
-2.90345e-09
-4.09917e-10
4.14494e-09
6.56475e-10
-4.3915e-09
2.25996e-10
-2.58969e-10
2.29629e-10
-1.96655e-10
-1.24373e-08
1.39453e-08
-6.7953e-09
5.28728e-09
5.0195e-09
-5.52843e-09
-1.5563e-12
5.10487e-10
-2.78882e-09
-3.08315e-09
2.3427e-09
3.52927e-09
2.37864e-09
-1.44002e-09
2.59943e-09
-3.53805e-09
-7.83889e-09
-8.29874e-09
8.37874e-09
7.7589e-09
2.9161e-09
-3.2388e-09
7.65815e-09
-9.22786e-09
-6.43745e-09
8.00716e-09
-2.45696e-09
2.35452e-09
-3.12507e-09
3.22751e-09
-1.13911e-10
1.61196e-10
-6.49849e-09
5.13459e-09
-1.80273e-10
1.54417e-09
3.97804e-09
-2.12145e-09
1.91739e-09
-3.77397e-09
-3.39053e-09
4.51064e-09
2.81103e-09
-3.93114e-09
-3.15712e-09
1.15209e-10
3.43026e-10
2.69888e-09
4.99986e-09
-8.64896e-10
-5.04474e-09
4.56849e-09
-4.15514e-09
-3.38916e-09
2.97581e-09
-4.56332e-09
5.20979e-09
2.12126e-11
-6.67684e-10
-4.6416e-09
5.32247e-09
2.54277e-11
-7.06297e-10
-3.35676e-09
4.17138e-09
8.37508e-10
-1.65213e-09
-3.44761e-09
3.8615e-09
-2.85346e-09
2.43957e-09
7.2824e-10
7.29049e-09
-8.01873e-09
-2.16017e-10
-3.75323e-09
-1.95879e-10
-6.03428e-10
2.83421e-09
9.79706e-10
-3.21049e-09
2.86375e-10
-3.04978e-10
2.36749e-09
-6.33786e-10
6.84428e-10
-2.41813e-09
4.98194e-09
-6.35745e-11
5.44405e-11
4.81676e-09
-4.77477e-09
2.2341e-11
-6.4332e-11
4.5412e-09
-4.4093e-09
5.68943e-12
-1.37591e-10
3.48853e-09
-3.40238e-09
-3.01227e-09
2.92612e-09
2.01074e-10
-1.61463e-10
-2.01802e-10
1.62192e-10
4.03105e-09
1.63624e-09
-3.15082e-11
4.16702e-09
1.67376e-09
-2.97223e-11
4.11679e-09
1.67271e-09
-3.2862e-11
-4.73757e-09
5.95635e-09
-1.29942e-09
8.06324e-11
5.46846e-09
-5.34145e-09
-2.94205e-10
1.67192e-10
-1.2322e-09
1.32075e-09
7.19256e-10
-8.07807e-10
-2.28899e-09
-4.65433e-09
3.64411e-09
3.29921e-09
-5.41539e-09
4.65472e-09
1.00167e-09
-2.40994e-10
6.85253e-09
6.61137e-11
-1.45018e-09
3.5181e-09
2.8901e-09
-2.41685e-09
-3.99134e-09
-4.40721e-09
2.24732e-10
4.24141e-09
-5.89264e-11
4.98324e-09
-4.98431e-09
-2.62938e-12
3.69833e-12
-4.40182e-09
4.4129e-09
-4.51227e-11
3.40415e-11
-4.45977e-09
4.47085e-09
-4.5741e-11
3.46676e-11
-4.31026e-09
4.32134e-09
-4.42806e-11
3.32092e-11
1.60354e-09
-1.66396e-10
4.11252e-09
3.37973e-09
-5.42561e-09
-2.06664e-09
5.03127e-09
-4.61952e-09
-2.81931e-10
-1.29817e-10
-4.43787e-09
4.05491e-09
2.63585e-09
-6.05387e-09
5.65319e-09
-1.47909e-10
5.48581e-10
-4.66926e-09
-1.10829e-09
2.49123e-10
-1.57179e-09
-7.82656e-10
1.12225e-09
5.45615e-09
-5.84685e-10
-3.30267e-10
5.29402e-09
-5.29836e-09
5.06114e-12
-7.18735e-13
-4.96117e-09
4.97977e-09
-5.59851e-11
3.73912e-11
-4.43284e-09
4.39687e-09
-1.37353e-10
1.73331e-10
-4.49108e-09
4.45495e-09
-1.38871e-10
1.75e-10
-4.34039e-09
4.30508e-09
-1.35085e-10
1.70394e-10
3.91363e-09
-3.98564e-09
-5.82414e-10
6.5442e-10
6.15881e-09
1.58752e-10
-1.5008e-09
2.84782e-09
-3.47843e-09
3.02158e-09
-3.16267e-09
2.46062e-09
2.98418e-09
5.97002e-09
-5.11335e-09
-5.2243e-11
-8.04422e-10
4.91027e-09
3.73038e-10
-1.36967e-09
7.21269e-09
-7.04855e-09
-7.73183e-10
6.09047e-10
4.2631e-09
-4.35137e-09
-6.30368e-11
1.51308e-10
-9.83742e-12
-7.30124e-11
3.56678e-09
-3.68577e-09
-1.8241e-10
3.01396e-10
3.61201e-09
-3.73265e-09
-1.83729e-10
3.04366e-10
3.49302e-09
-3.60922e-09
-1.79246e-10
2.95443e-10
5.63281e-10
3.31469e-10
-5.88526e-09
-4.47732e-09
5.13524e-09
-7.42132e-10
8.42172e-11
-4.53251e-09
5.201e-09
-7.55062e-10
8.65716e-11
-4.38455e-09
5.02839e-09
-7.25953e-10
8.2107e-11
-5.17819e-09
5.51288e-11
-1.37544e-09
5.42289e-09
-1.45006e-09
-5.11218e-09
-3.60227e-09
-3.00639e-09
3.87148e-09
2.73718e-09
4.0146e-10
-1.59142e-10
-4.71474e-10
2.29156e-10
2.63737e-09
-4.45236e-09
5.30351e-09
1.24483e-09
-6.32488e-11
3.94917e-09
-5.10346e-11
2.18652e-10
3.99632e-09
-4.87238e-11
2.19422e-10
3.8674e-09
-4.97134e-11
2.13366e-10
5.04456e-09
-1.19125e-10
5.6512e-11
-3.01685e-10
1.68057e-10
1.1137e-09
4.51251e-11
-4.26709e-09
-1.80795e-10
-8.41515e-10
4.96189e-09
-4.95846e-09
6.17065e-12
-9.60226e-12
-4.37455e-09
1.56276e-10
-9.70123e-10
-4.46743e-09
1.58435e-10
-9.89809e-10
6.44291e-09
-5.48172e-09
6.32312e-11
-1.02443e-09
-4.96716e-09
4.96965e-09
6.3904e-12
-8.87992e-12
-6.63556e-10
1.46406e-10
-6.88619e-10
1.52435e-10
-6.77864e-10
1.49711e-10
-4.41541e-09
4.43083e-09
-1.62198e-11
8.02767e-13
-4.47341e-09
4.48909e-09
-1.66452e-11
9.71636e-13
-4.32383e-09
4.33886e-09
-1.56703e-11
6.37487e-13
-5.47225e-09
5.41239e-09
-1.36409e-10
1.96275e-10
-3.99725e-09
4.42516e-09
-4.91099e-10
6.31804e-11
6.2864e-09
3.45988e-09
-6.22818e-09
2.81502e-09
3.41694e-09
-3.54175e-09
-2.69021e-09
-4.74813e-09
4.77637e-09
-2.71811e-11
-1.05432e-12
-4.89796e-10
2.35937e-09
-4.05415e-09
4.39529e-09
-1.46271e-11
-3.26515e-10
5.36322e-09
-4.78938e-09
-2.85166e-11
-5.45327e-10
-4.24968e-09
4.28432e-09
-5.00082e-11
1.53605e-11
5.00744e-09
7.67991e-10
-1.22237e-10
4.08054e-09
-4.10973e-09
-8.72502e-11
1.16442e-10
5.69097e-09
-4.81878e-09
5.81433e-11
-9.30332e-10
3.23693e-09
-3.99604e-09
3.5716e-09
-2.81249e-09
-4.3316e-09
5.06629e-09
2.0689e-10
-9.41579e-10
6.42946e-09
1.77531e-09
-4.43152e-09
-3.77325e-09
-4.62688e-09
4.64692e-09
3.97325e-12
-2.40145e-11
-5.18455e-09
4.98779e-09
-5.43485e-11
2.51112e-10
-8.12584e-10
4.17815e-09
5.15188e-10
-3.88076e-09
-1.182e-09
6.31252e-09
-1.69718e-10
3.66468e-09
-2.68131e-09
3.51839e-09
-4.50176e-09
2.94112e-09
-4.31758e-09
3.51274e-09
-2.13628e-09
-4.64812e-09
-2.05e-10
-6.43514e-10
4.71324e-10
4.09036e-09
5.16403e-09
-4.35988e-09
-4.36492e-11
-7.60497e-10
-5.44834e-09
5.29765e-09
-9.89691e-11
2.4966e-10
-2.49761e-10
2.04156e-10
4.56055e-11
3.39863e-09
-3.5731e-09
9.32578e-12
1.65152e-10
4.50758e-09
-4.26975e-09
1.90685e-10
-4.28508e-10
-3.65663e-09
-3.12052e-09
2.63673e-09
5.77642e-09
-5.76441e-09
-1.11567e-10
9.95551e-11
-4.54125e-09
-3.77898e-11
1.57185e-11
-1.47305e-10
8.95747e-11
1.41785e-10
-8.40542e-11
6.84473e-09
-5.43783e-09
1.87279e-10
-1.59417e-09
4.78096e-09
6.7071e-11
-5.84932e-10
-5.0523e-09
5.54884e-09
3.13203e-11
-5.27857e-10
4.62502e-09
-9.59682e-10
-1.72314e-10
4.78422e-09
-9.90905e-10
-1.81302e-10
4.72299e-09
-9.78879e-10
-1.77332e-10
5.1613e-09
-5.37008e-09
4.51822e-10
-2.43048e-10
-4.75002e-10
1.11089e-10
-1.76885e-10
5.40798e-10
-4.58892e-09
-8.53681e-11
3.26924e-11
6.37938e-10
-1.9224e-09
-6.40048e-10
1.92451e-09
-3.66656e-09
4.34643e-09
2.52601e-10
-9.3247e-10
2.81035e-09
-1.33157e-09
-1.47877e-09
-3.9358e-10
4.25735e-09
7.50148e-10
-4.61392e-09
5.83652e-09
-5.83121e-09
-2.2628e-11
1.73114e-11
-6.10821e-09
5.93928e-09
-8.2411e-11
2.51343e-10
-3.88598e-09
4.00134e-09
4.62702e-10
-4.80776e-09
-4.45179e-10
2.00631e-10
4.64647e-09
1.52107e-10
-4.22391e-09
-2.44188e-09
2.41272e-09
3.11302e-09
-5.92164e-09
-1.31246e-09
1.85543e-10
2.37618e-10
-1.39341e-10
-5.89155e-09
7.03296e-09
1.8533e-10
-1.32674e-09
3.2473e-09
-3.63838e-09
1.1314e-10
-8.76898e-10
-3.22188e-09
4.69039e-10
4.67621e-09
3.90489e-11
-8.64832e-11
4.25049e-09
-4.26216e-09
1.87051e-11
-7.03199e-12
6.07546e-09
-2.31154e-10
-5.2963e-09
-5.48003e-10
5.2632e-09
-2.19178e-10
-4.60164e-09
-4.42381e-10
5.37873e-09
-2.21807e-10
-4.70088e-09
-4.56039e-10
5.45467e-09
-2.22513e-10
-4.7653e-09
-4.66851e-10
6.67986e-09
-2.3635e-10
-5.80733e-09
-6.36182e-10
6.00171e-09
-1.2361e-09
2.65663e-10
4.6129e-09
-4.56806e-09
-8.16335e-11
3.67989e-11
4.23518e-09
-8.2564e-11
1.16985e-09
4.14442e-09
-8.17654e-11
1.14713e-09
-2.26468e-10
2.04237e-10
-4.3699e-09
-7.33986e-09
1.05831e-09
2.02636e-10
6.07891e-09
4.97799e-09
-1.40196e-12
6.65537e-12
-4.27418e-09
4.27533e-09
6.74447e-12
-7.89036e-12
2.89987e-09
-3.28053e-09
3.74399e-09
-3.36332e-09
5.21346e-09
-5.17649e-09
-8.59262e-11
4.89567e-11
-4.6281e-09
-9.07366e-12
1.02978e-11
-4.23151e-10
4.35709e-09
-5.07357e-10
4.79046e-09
-4.77103e-09
-2.01917e-11
7.57108e-13
-2.52543e-10
7.23292e-11
-1.75706e-10
4.60338e-10
-1.80708e-10
4.73849e-10
-1.7872e-10
4.68868e-10
-7.24326e-10
-6.18093e-11
4.93056e-09
-7.40633e-10
-6.37182e-11
5.03953e-09
-5.1944e-09
5.16538e-09
-1.74464e-10
2.0348e-10
5.03341e-09
5.84435e-11
-8.44091e-11
1.00329e-10
-3.09155e-10
-4.06833e-09
4.14358e-10
9.36135e-10
-4.84008e-09
3.54024e-11
7.50527e-10
1.03111e-09
-2.47893e-10
1.14876e-09
2.70414e-10
1.18834e-09
2.80009e-10
1.17369e-09
2.75774e-10
2.59628e-09
-2.54492e-09
-3.54562e-09
3.17367e-09
-3.00224e-09
3.37419e-09
-6.87469e-09
-8.10379e-10
6.40278e-09
1.28229e-09
-5.37308e-09
5.42794e-09
-5.94893e-11
4.6326e-12
-1.34134e-11
8.86907e-12
-2.40483e-10
-4.53454e-09
-7.69584e-11
7.17699e-11
-7.89907e-11
7.4166e-11
-7.81529e-11
7.32018e-11
5.7095e-09
-5.71136e-09
-9.04676e-11
9.23234e-11
3.98269e-09
-3.68396e-09
-3.15308e-09
2.85435e-09
-4.38561e-09
-4.79195e-10
-2.65944e-11
4.8914e-09
-1.0979e-09
2.3975e-10
4.20814e-09
-3.48423e-09
-4.99143e-09
5.50473e-09
-8.17787e-10
3.04487e-10
4.53323e-09
-8.30188e-10
-3.04415e-10
4.68746e-09
3.17489e-11
-7.22887e-11
3.18835e-09
-3.65645e-09
-3.07752e-09
-1.00745e-10
1.29824e-10
-9.50496e-11
6.59703e-11
-4.43644e-09
4.49927e-09
-8.52089e-11
2.23797e-11
-4.49486e-09
4.55853e-09
-8.63803e-11
2.27092e-11
-4.34428e-09
4.40578e-09
-8.33985e-11
2.18954e-11
-3.79369e-09
4.1646e-09
3.00443e-09
-3.37534e-09
-3.31882e-09
-2.08925e-09
4.38487e-09
-1.9975e-11
7.99134e-10
-3.82009e-10
5.83635e-10
-2.16114e-10
3.90965e-09
8.98345e-10
-4.59188e-09
1.767e-09
-3.56223e-11
1.18865e-09
6.94403e-10
4.13397e-09
-1.67909e-10
1.39717e-09
3.99661e-09
-2.24556e-11
1.09214e-09
-3.04213e-11
1.10259e-10
2.64791e-10
-3.44629e-10
-5.88299e-09
-7.35122e-10
-7.63814e-12
6.62575e-09
-1.66397e-10
6.44772e-11
-5.27683e-09
5.29732e-09
-7.09856e-12
-1.33857e-11
4.48006e-09
-9.66311e-11
1.30754e-09
-5.19591e-10
8.56789e-11
-4.78089e-10
3.94788e-09
-4.75001e-09
1.28022e-09
-3.94456e-09
4.01606e-09
-7.15008e-10
-2.46205e-10
4.34836e-09
4.26547e-09
-5.27632e-09
4.39964e-09
-3.38879e-09
5.49372e-09
-1.08536e-09
-3.2782e-10
1.25433e-09
-6.53692e-11
7.07079e-10
3.39425e-12
3.8608e-09
-5.05483e-09
1.82585e-09
-6.31823e-10
-2.50388e-09
-6.30403e-09
6.20928e-09
2.59863e-09
-4.95015e-09
4.94432e-09
-2.10396e-12
7.93225e-12
-5.36485e-09
1.93143e-09
5.45954e-09
1.58405e-10
-7.57913e-11
8.0825e-11
-1.63438e-10
-6.09697e-09
-3.02099e-09
6.61408e-09
-4.43779e-09
3.83178e-09
7.96046e-10
-1.90036e-10
-4.28865e-09
3.70397e-09
7.68411e-10
-1.83732e-10
-4.37989e-09
3.7825e-09
7.85062e-10
-1.87671e-10
-3.8258e-09
-3.36982e-10
-4.6849e-10
-2.53627e-09
-2.32331e-09
-2.14086e-09
-5.17759e-09
2.88058e-09
5.44866e-09
-1.43774e-09
1.15039e-09
-3.26976e-09
-3.48604e-09
4.00265e-09
1.19573e-10
1.7306e-10
-1.34229e-10
-4.28066e-09
-2.49917e-12
8.97887e-12
-2.38576e-10
-1.44932e-11
-7.9207e-09
6.00094e-09
-4.26688e-09
-4.23661e-09
4.74418e-09
-4.97451e-10
-1.01148e-11
-4.74907e-09
5.33993e-09
-5.74283e-10
-1.65743e-11
-4.42464e-09
4.16358e-09
4.60484e-09
2.78253e-09
-2.216e-09
1.6985e-10
-5.67583e-11
1.72967e-10
2.28049e-10
-1.99943e-10
-5.40533e-09
6.20847e-09
-8.02803e-10
-3.36911e-13
4.92435e-09
-5.60192e-09
-1.05132e-10
2.41855e-10
3.22384e-09
-4.1362e-09
3.80753e-09
-2.89516e-09
-4.93866e-09
5.65949e-09
-7.19745e-10
-1.07753e-12
-6.581e-09
6.76137e-09
-8.10107e-09
-3.4333e-12
7.09734e-12
5.04341e-09
-9.32789e-11
1.49278e-09
-2.14331e-10
-5.37421e-11
1.80944e-11
-2.05879e-11
1.93723e-11
-2.19391e-11
1.88299e-11
-2.13414e-11
-4.73863e-09
-1.0979e-09
4.05593e-10
5.18314e-10
1.11419e-11
9.31026e-10
-6.2747e-12
-5.88063e-11
-2.70864e-10
1.16397e-11
1.05489e-13
3.5078e-09
3.13505e-09
-2.44122e-09
-4.20163e-09
-5.70435e-09
6.43663e-09
-7.49317e-10
1.70431e-11
3.93819e-09
2.17894e-09
-2.13909e-09
4.39405e-09
1.354e-11
-1.22981e-11
5.54625e-10
3.23433e-10
-1.02268e-10
5.58027e-11
4.24251e-09
3.40113e-09
-3.43551e-09
-9.60249e-13
1.17868e-11
-2.13733e-09
1.76307e-09
3.22208e-09
2.5501e-09
5.36316e-10
-3.08642e-09
-4.32821e-09
3.67883e-09
8.60059e-10
-2.1067e-10
1.45305e-11
-1.9946e-11
1.49879e-11
-2.07571e-11
1.48351e-11
-2.04462e-11
1.83343e-10
-2.52673e-10
-4.70151e-09
4.05825e-09
8.43089e-10
-1.99825e-10
-5.16215e-09
1.011e-09
-1.37496e-10
-5.34231e-09
1.04645e-09
-1.41931e-10
-5.27203e-09
1.03245e-09
-1.4031e-10
4.64241e-09
-7.56779e-11
4.61603e-11
3.69192e-09
-7.69434e-10
-4.95133e-09
2.02885e-09
-5.16018e-09
4.45264e-09
9.26371e-10
-2.1883e-10
1.29726e-10
4.39476e-10
-1.88346e-10
-1.7306e-10
1.99943e-10
4.81169e-09
-6.72215e-11
4.59909e-11
1.12877e-09
-3.76654e-09
-9.84221e-10
-6.05408e-13
1.17993e-11
-6.45325e-11
9.74285e-12
4.70718e-09
-5.00605e-09
4.06185e-10
-1.07312e-10
-8.59474e-09
4.32136e-09
7.4499e-09
5.25253e-09
-1.1489e-10
7.58165e-11
-4.64533e-09
-9.1697e-11
6.77627e-11
-4.95688e-09
-2.27921e-10
-9.20258e-11
5.55585e-10
-2.5626e-10
6.5908e-11
-1.72567e-10
6.28435e-11
-2.05742e-10
4.2218e-09
1.70933e-11
1.15878e-11
3.47569e-12
1.86371e-12
7.85255e-11
-2.05498e-10
2.6553e-10
-2.63247e-10
3.32937e-09
3.2175e-09
-2.88219e-09
9.14604e-11
-2.44259e-10
1.25759e-11
4.66934e-10
-4.14037e-10
-6.54726e-11
3.90091e-11
-5.38192e-11
1.19847e-09
-1.86753e-10
5.67867e-09
-1.01931e-11
4.10236e-11
4.18065e-09
-4.33654e-09
4.24915e-09
1.1068e-09
-1.48824e-10
5.25365e-09
3.79277e-10
1.95642e-09
4.67576e-10
-1.03532e-11
9.04752e-11
-1.01583e-10
9.53634e-12
-1.05785e-11
2.56552e-09
1.40067e-09
-2.08102e-09
-1.88516e-09
-7.22138e-09
8.52717e-09
7.37755e-09
-8.68333e-09
4.24967e-10
-3.90054e-10
-2.23374e-11
-1.68836e-12
1.48566e-11
-5.68965e-09
5.37548e-09
6.65438e-10
-3.51275e-10
7.20162e-11
-9.76946e-11
1.20878e-09
-1.60494e-10
2.27216e-10
2.6908e-10
-2.6553e-10
-4.78699e-09
5.47719e-09
-1.26566e-09
5.75458e-10
-6.32635e-09
-9.52155e-10
1.57372e-09
5.70479e-09
1.64795e-10
-3.71422e-10
-4.81828e-09
2.78571e-09
5.116e-09
-3.08343e-09
3.66719e-09
-1.1984e-10
1.19683e-09
-2.48157e-09
2.75451e-09
-6.57697e-09
2.29079e-09
4.55699e-09
-2.93037e-09
-3.91741e-09
-1.65548e-11
2.4995e-11
3.92342e-09
-4.21488e-09
-3.24513e-09
3.53659e-09
4.31011e-09
-3.98199e-10
5.11694e-09
-1.15942e-10
1.43562e-09
-5.51443e-09
3.45709e-09
3.29436e-09
-1.23703e-09
4.00494e-09
-3.17041e-11
-3.06037e-10
3.80366e-09
-3.49057e-09
2.83209e-09
-3.14518e-09
-3.93317e-09
7.69221e-10
-1.62304e-09
2.61235e-09
-2.70513e-09
1.7212e-09
-2.58114e-10
-1.72428e-09
2.61194e-10
3.99416e-09
3.10162e-09
-2.91286e-09
-4.18292e-09
-7.20664e-09
2.57803e-09
-2.41957e-09
-4.17776e-09
-2.95928e-09
4.06376e-09
3.07329e-09
4.89809e-09
-3.45557e-09
2.06528e-09
4.43782e-09
4.31533e-09
-2.67201e-09
-2.41414e-09
2.003e-09
5.69698e-09
-2.03083e-12
-5.78007e-10
-4.03067e-09
5.57395e-10
-5.537e-09
1.08304e-10
5.36262e-09
6.60806e-11
-3.64256e-09
2.92306e-09
-2.46059e-09
2.36129e-10
-3.33003e-10
3.2266e-10
2.01501e-09
-2.8902e-09
-1.87382e-10
-4.58041e-09
3.60575e-10
2.91161e-10
-4.05171e-09
-5.76759e-09
4.89502e-09
-2.18024e-09
3.05281e-09
2.23467e-09
-2.13434e-09
-2.78773e-09
-5.97884e-09
7.04574e-09
1.72083e-09
2.31563e-09
6.96062e-12
-3.56949e-11
4.53701e-10
-2.45809e-09
-6.17686e-09
5.87471e-09
2.76024e-09
9.34804e-10
3.55413e-09
-3.46884e-09
-1.02009e-09
-5.85549e-09
-2.72304e-09
-1.19993e-09
-7.25866e-09
5.95032e-09
2.50827e-09
-1.94381e-09
1.33349e-09
1.12902e-09
-3.82412e-09
5.10899e-09
-2.41389e-09
1.4918e-09
-1.50326e-09
-3.21978e-09
1.45306e-10
-5.51078e-09
9.42616e-10
4.42285e-09
-2.96741e-09
3.6956e-09
-4.38073e-09
-4.57393e-09
1.75087e-09
3.95208e-09
3.71888e-09
3.83379e-09
-4.49768e-09
-3.05498e-09
6.03888e-10
-3.40141e-09
2.32549e-10
-7.19676e-10
-3.51072e-09
3.45155e-09
-3.87123e-09
3.9304e-09
2.28497e-09
-3.03051e-09
-1.68388e-09
-3.82753e-09
-2.91473e-09
4.45327e-09
-2.90673e-10
6.06721e-09
6.91477e-10
-6.46801e-09
2.54492e-09
-2.61235e-09
-3.70524e-09
-3.32378e-09
3.58087e-09
-5.80021e-09
5.54312e-09
5.89335e-09
-4.1818e-09
-5.70104e-09
-3.45192e-09
3.25965e-09
4.63009e-09
-4.13754e-09
1.03655e-10
4.19169e-09
-1.57799e-10
3.24585e-09
7.95126e-10
-3.61733e-09
-4.23653e-10
6.26222e-09
-2.84067e-09
-3.15501e-09
3.5469e-09
-1.95991e-09
-5.82754e-09
9.12756e-10
3.81581e-10
4.93494e-09
-1.15434e-09
5.15378e-09
-4.21339e-09
2.12081e-09
-3.0612e-09
-5.78374e-10
2.91164e-10
-9.69856e-09
2.83047e-09
-1.82295e-09
8.69104e-09
-3.15582e-09
3.50308e-09
9.26542e-11
-1.50596e-09
-5.93426e-09
7.34756e-09
8.25393e-11
-5.42091e-09
-1.36681e-09
6.70519e-09
6.73872e-11
-1.17795e-09
-4.72375e-09
5.83431e-09
7.05983e-11
-1.22192e-09
-4.8888e-09
6.04012e-09
6.91499e-11
-1.20399e-09
-4.82425e-09
5.95909e-09
4.27803e-09
-4.14113e-09
8.05759e-11
-2.17475e-10
4.42637e-09
-4.28414e-09
8.34992e-11
-2.25727e-10
4.36887e-09
-4.22891e-09
8.24322e-11
-2.22397e-10
2.4614e-09
-2.48137e-09
3.76116e-09
-3.74119e-09
-3.40807e-09
-4.33256e-09
4.58562e-09
3.37081e-10
-3.95318e-09
-5.04634e-11
-3.49735e-09
6.64179e-10
-9.39591e-10
3.77276e-09
5.03715e-10
3.96895e-09
-2.50861e-09
2.60385e-09
-3.07184e-10
4.52946e-09
-4.43839e-09
3.88534e-09
-4.10507e-09
4.38819e-09
-5.32876e-10
-2.96407e-09
2.84697e-09
6.49981e-10
-3.79922e-09
4.0636e-09
-6.5796e-10
1.9777e-09
-5.58287e-09
7.94966e-09
-4.34449e-09
4.84132e-10
-6.14404e-09
4.96445e-11
4.2684e-09
5.92221e-10
7.99031e-09
-7.1698e-09
-3.28891e-09
-3.03202e-09
-6.11878e-09
2.73857e-09
8.23067e-09
-1.94607e-10
-8.477e-09
4.40941e-10
-9.04643e-10
-4.05447e-09
1.15989e-09
8.90819e-11
-1.65104e-10
-8.08299e-11
1.56852e-10
3.27548e-10
5.22924e-09
1.09455e-09
-6.65133e-09
-2.13404e-09
7.84316e-11
2.43648e-09
-3.80872e-10
-1.83226e-09
2.78797e-09
3.51582e-09
-2.97747e-09
-3.77999e-09
-6.83064e-10
8.95489e-11
4.3735e-09
-2.34916e-10
-3.29949e-10
3.35705e-10
-1.3204e-09
-3.93299e-09
1.40019e-09
7.04416e-09
-2.52021e-09
-6.49731e-09
1.97335e-09
5.25455e-09
4.10216e-10
-6.66932e-09
1.00455e-09
2.47893e-09
7.4071e-10
-3.21964e-09
-3.63739e-09
7.17423e-09
2.88176e-09
-6.4186e-09
-2.26634e-10
1.57861e-10
4.4268e-09
3.04435e-09
-3.30472e-09
-4.16642e-09
4.19034e-09
-6.15025e-09
-2.33674e-09
5.21191e-10
2.80711e-09
-9.91564e-10
4.44117e-09
-4.13233e-09
1.28777e-10
-4.37619e-10
-3.17376e-09
3.7101e-09
5.24006e-09
-5.77641e-09
-2.96744e-09
3.62748e-09
4.96476e-09
-5.6248e-09
-3.49119e-09
4.02334e-09
5.79234e-09
-6.32449e-09
-2.84927e-09
3.3819e-09
4.67617e-09
-5.20879e-09
7.13761e-10
-4.41551e-09
4.60514e-09
-9.03391e-10
-3.78867e-09
4.46124e-09
6.42107e-09
-7.09365e-09
3.9363e-09
4.55409e-09
-4.06135e-09
-4.42904e-09
-3.03594e-09
7.06853e-09
3.01157e-09
-2.92612e-09
2.88219e-09
-3.1115e-10
3.30342e-10
1.93872e-10
-5.07796e-09
5.1776e-09
-2.93515e-10
1.67333e-09
-3.57789e-09
-1.96237e-09
3.86693e-09
6.53123e-09
-2.55219e-09
-6.49925e-09
4.68266e-09
-4.53394e-09
8.73773e-11
-2.36103e-10
2.92031e-10
6.9163e-10
-2.2633e-09
-3.34174e-09
3.01616e-09
2.58888e-09
4.33733e-09
-6.7033e-09
-4.42094e-09
6.78691e-09
-1.11037e-10
5.84932e-10
-1.09008e-11
-4.49139e-11
3.35233e-10
-2.79418e-10
-4.20002e-09
4.22535e-09
1.68722e-11
-4.22077e-11
-4.12463e-09
4.71647e-09
-4.47594e-09
5.22393e-09
2.62605e-09
-5.46764e-09
-2.38234e-09
3.61419e-09
5.54604e-09
-3.78847e-09
-3.85582e-09
4.48846e-09
-5.33589e-09
-5.49824e-10
1.27753e-09
4.60819e-09
-6.55481e-09
-6.32254e-10
1.43328e-09
5.75379e-09
-5.79986e-09
-6.5269e-10
1.43195e-09
5.02059e-09
-5.95211e-09
-5.93382e-10
1.36038e-09
5.18511e-09
-7.45125e-09
-7.7149e-10
1.65029e-09
6.57245e-09
1.01777e-09
-5.43482e-10
-6.16394e-09
-3.66954e-09
3.53529e-09
-4.70837e-09
4.84261e-09
-3.77274e-09
-1.29002e-09
-2.21564e-09
4.30438e-09
4.64609e-09
-6.73484e-09
4.00475e-09
-4.32394e-09
-2.95056e-09
5.84472e-10
4.0851e-10
-8.2818e-10
-1.64802e-10
2.25246e-09
5.82747e-09
-4.82381e-09
-5.12829e-09
-6.01803e-09
5.94708e-09
-1.79176e-11
8.88717e-11
6.09623e-09
-4.39162e-09
2.72751e-09
-4.29096e-09
-4.39534e-11
4.37385e-09
-3.89352e-11
3.78245e-09
-4.56684e-10
-3.21262e-09
-3.21884e-09
3.38121e-09
6.2334e-09
1.53951e-09
-3.18545e-09
-4.58746e-09
6.51729e-09
1.39904e-09
-2.85399e-09
-5.06234e-09
2.70466e-09
-6.06894e-09
2.73993e-09
-1.82835e-09
-3.31555e-09
2.40397e-09
-3.43169e-09
-4.20861e-09
4.42145e-09
3.33649e-10
-6.14063e-09
4.14358e-09
1.6634e-09
1.44344e-09
2.99708e-10
4.01997e-09
3.06741e-10
-3.18535e-09
7.99325e-09
-4.8559e-09
-6.15834e-09
-2.54322e-09
-1.71211e-10
2.83389e-09
-6.1348e-10
1.27569e-09
6.01766e-09
-5.79593e-10
1.22044e-09
5.43462e-09
-5.37725e-10
1.14977e-09
4.84263e-09
-5.244e-10
1.12714e-09
4.66045e-09
-5.33448e-10
1.14278e-09
4.7694e-09
-8.99991e-10
-9.47602e-10
-5.60624e-09
7.45383e-09
-2.84493e-09
2.69761e-09
1.98137e-10
-5.08168e-11
-3.68724e-09
7.35707e-10
3.2153e-09
-2.63764e-10
-4.10269e-09
4.26716e-09
6.22659e-09
-6.39106e-09
-3.25438e-09
3.50207e-09
4.88435e-09
-5.13204e-09
-3.32389e-09
3.56841e-09
4.99246e-09
-5.23698e-09
-3.36984e-09
3.60859e-09
5.06588e-09
-5.30462e-09
-3.74216e-09
3.95003e-09
5.65195e-09
-5.85982e-09
3.85159e-09
3.00115e-09
-1.02527e-09
3.38618e-09
-4.42159e-09
4.83907e-09
5.74857e-09
-6.29216e-10
4.25962e-10
-5.54532e-09
4.61408e-09
1.42178e-10
-4.27213e-09
-3.83534e-09
-9.67641e-10
4.04062e-09
-6.05438e-09
-4.40613e-09
6.4199e-09
7.94739e-10
-4.78916e-09
6.12494e-11
1.591e-09
-6.22244e-10
-5.47976e-09
4.511e-09
-1.14199e-10
-2.42094e-09
2.53513e-09
-3.24567e-09
-1.81296e-09
6.31197e-09
-5.69894e-09
-2.19753e-09
-3.09585e-09
3.79042e-09
1.50296e-09
3.48724e-09
-3.42504e-09
3.11147e-09
-5.50161e-09
8.99149e-10
4.81069e-09
-2.08236e-10
-3.04563e-09
1.14085e-09
-6.05798e-09
5.24468e-09
2.28429e-10
-1.03151e-08
-6.52701e-09
9.62073e-09
3.25272e-09
-2.84936e-09
3.60139e-09
1.12025e-09
3.30084e-09
3.51976e-09
-2.4684e-09
3.62375e-09
-4.67512e-09
3.03251e-09
1.12825e-08
-1.11957e-09
-1.31954e-08
-5.65214e-09
3.94017e-09
5.01066e-09
-1.4167e-09
1.519e-09
3.41536e-09
-3.51765e-09
1.74498e-09
-2.92672e-09
5.8016e-09
7.30534e-10
9.54835e-10
-9.56017e-10
-7.29353e-10
-5.50764e-09
-7.4665e-09
5.24651e-09