/*--------------------------------*- C++ -*----------------------------------*\
  =========                 |
  \\      /  F ield         | OpenFOAM: The Open Source CFD Toolbox
   \\    /   O peration     | Website:  https://openfoam.org
    \\  /    A nd           | Version:  8
     \\/     M anipulation  |
\*---------------------------------------------------------------------------*/
FoamFile
{
    version     2.0;
    format      ascii;
    class       volVectorField;
    location    "8.6";
    object      U;
}
// * * * * * * * * * * * * * * * * * * * * * * * * * * * * * * * * * * * * * //

dimensions      [0 1 -1 0 0 0 0];

internalField   nonuniform List<vector> 
5119
(
(0.000903063 0.00142099 9.28987e-23)
(0.000205688 6.53008e-05 4.20386e-21)
(0.000835168 1.63274e-05 -2.44726e-21)
(0.000604233 0.000804121 -1.05394e-24)
(0.000773323 0.00126107 1.85892e-22)
(0.000868297 6.79737e-05 1.25746e-21)
(0.000270162 0.000203471 -1.28394e-21)
(3.24282e-05 -4.19402e-06 -6.2452e-23)
(0.000214125 0.00108936 -1.07362e-21)
(0.000959438 0.00147878 7.5384e-23)
(0.000638997 0.000802652 1.4544e-24)
(0.000735833 0.00113096 -3.15107e-22)
(0.000727282 0.00117808 -2.15948e-22)
(0.000711232 0.000491274 9.77167e-22)
(0.000826193 0.00131223 -7.19647e-23)
(0.000667323 0.00115638 0)
(0.000808563 0.00141299 2.78228e-22)
(0.000824163 0.00129417 -9.72875e-23)
(0.000922659 0.00145568 2.76384e-22)
(0.000762889 0.00120635 6.16976e-23)
(0.000736728 0.00122431 2.74474e-22)
(0.000674825 0.00107789 7.30882e-22)
(0.000682391 0.0010963 -1.51854e-22)
(0.000823225 0.0012617 1.08246e-22)
(0.000724342 0.00115849 0)
(0.000943661 0.0014763 6.31892e-22)
(0.000717241 0.00110713 0)
(0.000735861 0.00113033 8.30509e-23)
(0.000752137 0.00115528 3.17835e-22)
(0.000676035 0.00105949 8.58583e-23)
(0.000765211 0.00117876 -2.8521e-22)
(0.000754191 0.00116062 -8.26097e-24)
(0.000691983 0.0010983 5.38238e-22)
(0.000812109 0.00127603 0)
(0.000968325 0.00147631 -9.20695e-23)
(0.000718576 0.00112433 2.73465e-22)
(0.000691988 0.00108143 2.67593e-22)
(0.000703652 0.00110017 3.60938e-23)
(0.000685202 0.00114921 -7.83781e-25)
(0.000684766 0.00107172 8.8606e-22)
(0.000599085 0.000161413 -1.57857e-25)
(0.00088834 0.00148786 -3.8953e-22)
(0.000744832 0.00128602 2.12744e-22)
(0.000678541 0.00116916 0)
(0.000670617 0.00114341 -2.28195e-22)
(0.000614428 0.00014885 -1.94687e-21)
(0.00078957 0.00134464 -7.13026e-22)
(0.000686107 0.00116674 0)
(0.000760323 0.0012819 7.76704e-24)
(0.000742523 0.00128055 -1.97996e-22)
(0.000601321 0.00040307 -1.51995e-21)
(9.45771e-05 0.000627761 -1.01698e-21)
(0.000942447 3.8347e-05 -5.16964e-22)
(0.000644818 7.2858e-05 2.1018e-21)
(1.44526e-05 0.000423182 -3.01147e-21)
(0.000695829 0.0011408 8.27498e-22)
(0.000692342 0.000757661 1.38253e-24)
(3.58589e-05 -1.62482e-06 8.78398e-22)
(0.000732344 0.00123436 0)
(0.000871362 0.00146129 0)
(0.000641078 0.00118122 -1.41608e-21)
(0.000676247 0.0011418 2.18363e-21)
(0.000708197 0.00116661 0)
(0.000799878 0.00134592 1.16602e-21)
(0.000487551 0.000110398 1.14281e-21)
(0.000787353 0.00134447 8.16282e-22)
(0.000757758 0.000367759 2.35129e-24)
(0.000890466 0.000578327 1.00506e-21)
(0.000783343 0.00131656 0)
(0.000695504 0.000508118 -2.97108e-22)
(0.000198932 0.000356049 -1.39805e-24)
(0.000174958 -2.42556e-05 -4.54848e-21)
(0.000898119 0.000317252 1.36018e-21)
(0.000679463 0.0011639 3.90808e-22)
(0.000723737 0.00114882 -1.34439e-21)
(0.000899227 0.00140129 0)
(0.00031827 9.51147e-05 9.36868e-22)
(0.000609789 0.000204427 5.74696e-22)
(0.000553831 0.00105885 0)
(0.000505444 0.000946724 -7.42578e-22)
(2.46399e-05 0.000691799 0)
(0.000955522 0.00052218 0)
(0.000943728 0.00151359 0)
(0.00068153 0.00136946 1.56138e-23)
(0.000623561 9.86573e-05 0)
(0.000679485 0.00122842 1.31e-22)
(0.000774108 -4.11524e-05 2.20474e-21)
(0.000722401 0.00123886 1.86417e-21)
(0.000563558 0.00114932 3.41359e-23)
(0.000586999 0.00119379 0)
(0.000573764 0.00116866 0)
(0.000551709 0.00112695 0)
(3.47428e-05 -1.19874e-06 -1.41982e-21)
(0.000423679 0.000772103 -1.39311e-21)
(0.000442265 0.000788313 0)
(0.000461689 0.000677938 2.34785e-21)
(0.000877602 6.55788e-07 0)
(0.000701486 0.00121249 1.54242e-21)
(0.000682846 0.000778721 1.40233e-21)
(0.000697382 0.00120647 -1.30885e-22)
(0.000758049 0.00139485 6.12686e-22)
(0.000648657 0.00116388 0)
(0.00149877 0.000954887 -2.27989e-21)
(0.000770761 0.00163184 -4.06661e-22)
(0.000316172 0.000116592 2.03173e-21)
(3.67886e-05 5.27174e-06 1.04593e-21)
(0.000690609 0.00128333 -1.91193e-21)
(0.000575912 0.000310983 4.38164e-22)
(0.000845518 0.000587299 1.26957e-22)
(0.000665622 3.16541e-05 0)
(0.00041085 0.00128402 -2.47757e-21)
(3.63017e-05 2.03618e-06 -1.94636e-26)
(0.000242003 -3.46605e-05 8.12261e-22)
(0.000788626 0.00128755 -1.99771e-22)
(0.000299601 0.000163531 4.147e-21)
(0.000473264 0.0006366 -2.22102e-22)
(0.000512007 0.000791268 -1.7645e-21)
(3.87496e-05 4.17987e-06 -1.96277e-21)
(0.000502222 0.000565679 -3.84716e-21)
(0.000797635 0.00131429 9.89064e-23)
(0.000783176 0.000359702 0)
(0.000828788 0.00137409 -6.42617e-22)
(0.000172944 0.000857918 -4.39589e-22)
(0.000702179 0.00123625 1.22629e-21)
(0.000850802 0.00146731 -1.61165e-21)
(0.000922874 0.00157429 4.19047e-22)
(0.000725656 0.00130197 -3.16735e-24)
(0.000867563 0.00154642 -2.33856e-22)
(0.000814765 0.00133883 4.32621e-22)
(0.00069303 0.0011901 -3.19001e-22)
(0.000709672 0.00124334 -1.29962e-21)
(0.000695076 0.00117457 -2.11028e-22)
(0.000854436 0.0014007 -4.26242e-22)
(0.000762603 0.00127041 -4.0669e-22)
(0.000804305 1.64069e-05 -1.45253e-21)
(0.000576673 0.000333656 2.35796e-25)
(0.000646624 0.00131374 0)
(0.000745099 0.00124963 0)
(0.000233892 0.000323782 1.23483e-21)
(0.000808959 0.00133704 0)
(0.000676746 0.0011744 -9.97649e-22)
(0.000661893 0.00114565 3.33924e-22)
(0.000641588 0.00112868 2.5709e-22)
(0.00067859 0.00109989 1.11126e-22)
(0.000734375 0.00123348 3.54293e-22)
(0.000721938 0.00120435 1.39993e-22)
(0.000718788 0.00119963 -9.09586e-23)
(0.000744685 0.00124978 0)
(0.00072856 0.0012227 -9.23681e-23)
(0.000860307 0.000908375 -3.31241e-22)
(0.000637147 0.00127084 0)
(0.000889835 0.000190245 0)
(0.000645435 0.00117714 0)
(0.000445404 0.000759049 2.27447e-21)
(0.00033407 0.000622255 2.09356e-21)
(0.000876525 0.00145353 3.24612e-23)
(0.000396693 0.000635122 2.81874e-21)
(0.000966269 9.32438e-05 0)
(0.000279491 0.000267968 1.00351e-21)
(0.000180959 0.000708899 2.07292e-22)
(0.000721864 0.00146429 -9.65402e-22)
(5.30906e-06 1.63778e-06 0)
(0.00014614 0.000269529 -2.19619e-21)
(0.000777219 0.00138144 -9.26469e-22)
(3.72591e-05 4.13606e-06 4.88145e-22)
(0.000991132 0.000245169 2.29707e-21)
(3.30499e-05 0.000187614 -6.0206e-21)
(0.000149667 -1.72604e-05 -1.44222e-21)
(4.06202e-05 -7.64817e-07 1.72821e-21)
(0.00012836 0.000569904 0)
(0.000266346 0.00035639 1.62017e-22)
(0.000860287 0.00153566 4.26533e-22)
(0.000476363 0.000553288 2.19713e-21)
(0.000478694 0.000465435 -2.19774e-22)
(0.000399497 0.000604167 2.26328e-21)
(0.000534066 0.000473376 -2.13237e-21)
(0.000150331 0.000317032 -1.6538e-24)
(0.000646715 0.00116284 1.0868e-22)
(3.57988e-05 8.63149e-06 -1.64629e-21)
(0.000788916 0.0014298 2.27535e-22)
(0.000792486 0.000335796 -2.98237e-21)
(0.000735558 0.000377809 0)
(0.000722227 0.00121047 0)
(0.00056253 0.000967137 -1.35602e-21)
(0.000255724 7.2477e-05 -2.67079e-21)
(0.000465408 0.000702616 -3.7253e-22)
(0.000462102 0.000107679 1.09517e-21)
(0.000319454 0.000303541 -1.05237e-21)
(0.000579713 0.000375504 -1.65984e-21)
(0.000262609 0.000180055 -1.07478e-21)
(0.000152887 0.000707174 0)
(0.000562401 0.00124383 -4.35074e-22)
(0.000762644 0.00128307 9.75253e-22)
(0.000532196 0.000555999 1.95375e-21)
(2.45543e-05 -4.68311e-06 0)
(0.000336592 0.000756144 0)
(0.000694403 1.51273e-05 -1.37423e-21)
(0.000707114 0.000393949 5.06213e-21)
(0.000428699 0.000886075 1.03644e-21)
(0.000940489 0.000185716 1.87711e-22)
(0.000136529 -1.32092e-05 -3.82527e-21)
(0.000579175 0.00102198 0)
(4.07945e-05 1.30319e-06 -1.75627e-22)
(0.00074836 0.00132358 -2.64001e-22)
(0.00066342 0.00121964 0)
(0.000690361 0.00124204 2.42079e-22)
(0.000654933 0.00112564 1.12485e-21)
(0.000524724 0.00120607 -3.18482e-21)
(0.000311616 0.000407284 7.76317e-22)
(0.000792637 0.000562305 -4.26792e-21)
(0.000161436 0.000254405 2.19213e-21)
(0.00043056 0.00061557 4.47732e-23)
(0.000920931 0.000316074 -1.61921e-24)
(0.000478612 0.000679066 -1.38902e-21)
(0.000603101 0.000300134 4.06549e-22)
(0.000329828 0.000412059 -9.97202e-22)
(0.000249072 0.00031889 5.24619e-26)
(0.000384426 0.000541466 -1.17822e-21)
(0.000366478 0.00061959 -1.99646e-24)
(0.000344025 0.000297309 7.29611e-22)
(0.000711044 0.00151151 9.69171e-22)
(0.000431628 0.000647201 0)
(3.14125e-05 7.38332e-06 0)
(0.000680033 0.00126101 -7.36348e-22)
(0.00045427 0.000636649 -1.11008e-22)
(0.000559005 0.000803518 0)
(0.000247345 9.62118e-05 -2.97602e-25)
(0.000677798 0.000189788 0)
(0.000803567 0.00141085 0)
(0.000676737 0.00122009 2.00574e-22)
(3.0365e-05 1.80264e-05 -3.88311e-21)
(0.000795539 0.00135095 -4.93009e-22)
(0.000630894 0.00113838 7.12444e-22)
(0.000782488 0.00140606 1.55032e-21)
(0.000700237 0.00118195 0)
(0.000281399 0.000378547 8.76381e-23)
(0.000727602 0.00121749 1.56522e-21)
(0.000635881 0.00110674 0)
(5.68096e-05 0.000401027 3.31035e-22)
(0.000443409 0.00105125 -2.11674e-22)
(0.000448564 0.000571753 -2.44887e-21)
(0.000126226 0.000258702 3.62788e-25)
(0.000446577 0.000725109 4.32291e-23)
(0.00130607 0.00138244 0)
(0.000770082 0.00140236 -1.07975e-21)
(0.000868221 0.00159799 -2.34169e-22)
(0.000757623 0.00132252 -3.61824e-22)
(0.00031014 0.000374208 1.44009e-21)
(0.000649152 0.00109578 3.42676e-22)
(0.00060792 0.0011117 1.45265e-22)
(0.000689706 0.00117198 0)
(0.000888054 0.00151184 0)
(0.000693006 0.00119434 0)
(0.000692325 0.00126677 2.79089e-22)
(0.000634445 0.00112648 -3.87501e-22)
(0.000667051 0.00114441 -1.01379e-21)
(0.000648344 0.00115099 0)
(0.000604309 0.00111451 -1.90961e-22)
(0.000829885 0.00147312 4.03369e-22)
(0.000815667 0.000473892 -7.50506e-22)
(0.000299236 0.000285684 0)
(6.21675e-05 -0.00017394 -6.98216e-22)
(0.00119952 0.000946711 0)
(0.000709458 0.00125264 4.14121e-22)
(0.000662865 0.00116759 4.01606e-22)
(0.000685191 0.00119296 2.1697e-22)
(0.000740158 0.00128088 -5.39828e-22)
(0.00067817 0.00119807 0)
(0.000197896 0.000328139 1.66245e-22)
(0.000884698 0.00161595 -5.20232e-22)
(0.000565039 0.000358179 4.55165e-22)
(1.40309e-05 -7.35754e-06 0)
(0.000885463 0.00151068 3.86712e-22)
(0.000769673 0.00137472 1.84406e-21)
(0.000738929 0.0012217 6.62064e-23)
(0.000916205 1.05424e-05 2.92327e-21)
(0.00157569 0.00111349 1.86713e-21)
(0.000687063 0.00112293 0)
(0.000607466 0.00100798 3.91539e-23)
(0.000751645 0.00121282 1.04259e-21)
(0.000622497 0.000970434 1.09697e-21)
(0.000544367 0.00092943 -3.84448e-22)
(0.000532821 0.000910338 -5.07297e-22)
(0.000582302 0.000950661 3.71806e-22)
(0.000525459 0.00089997 0)
(0.000612562 0.00104721 -6.2754e-22)
(0.00069858 0.00117586 2.71299e-22)
(0.000588453 0.000962177 0)
(0.000709126 0.00118875 1.66047e-22)
(0.000587831 0.00100456 3.94604e-23)
(0.000647719 0.000978192 -1.05149e-21)
(0.000532882 0.000928575 -3.23336e-22)
(0.000579445 0.000874691 4.60071e-22)
(0.000163268 0.000236848 4.85315e-21)
(0.000689719 0.00117455 1.15733e-22)
(0.000780504 0.0013224 -1.19759e-21)
(0.000717363 0.00121428 0)
(0.00048923 0.000485032 2.03571e-22)
(2.06596e-05 0.000108061 1.29701e-21)
(0.00066226 0.00115683 0)
(0.0014101 0.000272143 0)
(0.000650495 0.0010201 4.62923e-22)
(0.000294705 0.000607466 0)
(0.00090673 0.000134052 2.51863e-21)
(0.000455903 0.000541756 0)
(0.000982004 0.000238798 0)
(0.000945301 5.90005e-05 0)
(0.00057444 0.00103395 1.01855e-22)
(0.000454694 0.000659127 2.61343e-22)
(0.000780597 0.00124339 -1.71713e-24)
(0.00062565 0.00102409 -1.34695e-22)
(0.000655316 0.00113274 0)
(0.000680164 0.00114286 6.89978e-22)
(0.000723942 0.00117098 -2.86565e-22)
(0.00072469 0.00123456 0)
(0.000790947 0.00129552 3.67802e-22)
(0.00026457 7.05711e-05 5.56095e-21)
(0.000854135 -0.000106095 1.77606e-21)
(0.000805301 0.00144457 -3.39273e-22)
(0.000832607 0.00140489 -6.78642e-22)
(0.000679297 0.000812267 1.42043e-22)
(0.000644804 0.00115276 3.23984e-24)
(0.000620397 0.00105931 -6.20621e-22)
(0.000908577 0.00014342 0)
(0.000433648 0.000766716 -1.18352e-21)
(0.000631532 0.001262 -3.13669e-22)
(0.000759467 0.000698423 -2.56545e-21)
(0.000777345 0.00139575 -5.02629e-22)
(0.000788706 0.00132922 -2.72594e-24)
(3.39539e-05 0.000580899 -2.33436e-21)
(0.000735482 0.00118224 7.19085e-22)
(0.00095376 0.00160903 -8.73718e-22)
(0.000585142 0.00125186 1.46575e-22)
(0.000269045 0.000337723 9.84567e-22)
(0.000869383 5.43687e-05 0)
(0.000720072 0.00113292 1.42787e-22)
(0.000526134 0.000943461 -3.3896e-22)
(0.00063565 0.0011537 1.22756e-21)
(0.000679627 0.00111327 -1.7271e-22)
(0.000706914 0.00120958 -1.62573e-22)
(0.000561981 0.00101232 1.08944e-21)
(0.000595318 0.000994939 2.67131e-22)
(0.00066698 0.000806283 3.87647e-23)
(0.000714304 0.001288 -3.33619e-22)
(0.000561066 0.0010038 -9.45219e-22)
(0.000533079 0.000911747 -1.12885e-22)
(0.000644883 0.00105464 -4.2737e-22)
(0.000529938 0.000915301 0)
(0.000312069 0.000565687 1.30515e-21)
(0.000310652 0.000633161 0)
(0.000697977 0.00119414 -3.9763e-22)
(0.00067119 0.00108879 -1.07737e-21)
(0.000735858 0.00121557 3.43515e-22)
(0.000833459 0.0013458 -8.98906e-22)
(0.000728687 0.00116318 -6.37455e-22)
(0.000675356 0.00111221 -2.05727e-21)
(0.000729696 0.00121856 0)
(0.000712899 0.00121938 0)
(0.000726894 0.00118181 -2.57079e-22)
(0.000883547 0.00137324 1.14847e-21)
(0.000849669 0.00142851 3.92929e-22)
(0.000657929 0.00111926 -1.68367e-23)
(0.000664274 0.00112719 0)
(0.000678729 0.00107341 6.24952e-22)
(0.000669261 0.0010835 -2.00368e-22)
(0.000679145 0.00115239 -2.80817e-23)
(0.000848909 0.00140919 0)
(0.00066584 0.00108805 2.97519e-22)
(0.000671993 0.00113164 -7.76655e-22)
(0.000686345 0.0011574 4.55931e-22)
(0.000671892 0.00111813 0)
(0.000834722 0.00140363 -2.65801e-22)
(0.00087797 0.00147291 1.11958e-21)
(0.00087846 0.00148703 1.06074e-21)
(0.000525862 0.000692714 -1.25618e-24)
(0.000817979 0.000601486 2.13135e-21)
(0.000621678 0.000425716 1.53135e-21)
(0.000521774 0.000537076 -1.19805e-21)
(0.000788249 0.00142355 2.35006e-22)
(0.000775026 4.29068e-05 1.25793e-21)
(0.00018731 0.000685364 0)
(0.000297726 0.000260338 -1.31568e-21)
(0.000631655 0.00104136 -3.23966e-22)
(0.000662544 0.00118101 2.00539e-22)
(0.000696961 0.00118786 0)
(0.000698858 0.00137401 1.05601e-21)
(1.88722e-05 -1.43233e-06 -3.38353e-26)
(0.000569915 0.000967023 2.31391e-22)
(0.000627602 0.00104541 1.94562e-22)
(0.000545387 0.000950663 6.92593e-22)
(0.00100305 0.000213216 -2.61719e-21)
(0.000874404 0.000192148 -1.78197e-21)
(0.00068401 0.00143773 -8.01236e-22)
(0.00058488 0.000280049 -3.97189e-22)
(0.000529509 0.000926666 0)
(0.000511311 0.000912985 3.36843e-22)
(0.000520326 0.000864643 5.89323e-23)
(0.000557161 0.000955014 -2.39774e-22)
(0.00054764 0.000933813 -1.19639e-22)
(0.00075893 0.000390661 -1.99414e-21)
(0.000700658 0.00124641 3.33094e-22)
(0.000351565 0.000281096 3.91259e-22)
(1.9239e-05 -6.6794e-06 -2.84106e-25)
(0.000622317 0.0013068 4.96815e-22)
(0.000804659 0.00136767 -1.32934e-21)
(0.00109545 0.000568341 -3.04352e-26)
(0.000136574 0.000822684 0)
(3.78394e-05 8.38277e-06 9.1077e-22)
(0.000114016 0.000549903 0)
(0.000555984 0.000901774 -8.60118e-22)
(0.000676855 0.00126135 0)
(0.000837141 0.00140927 0)
(0.000745359 0.00129409 5.78252e-22)
(0.000572807 0.000975394 0)
(0.000552189 0.000937529 -5.20173e-23)
(0.000560212 0.000954139 1.05988e-22)
(0.000283425 0.000840514 -1.98951e-21)
(0.000674581 0.00119203 -1.03546e-21)
(0.000807088 0.00130373 0)
(0.00076042 0.000286366 2.94389e-21)
(0.000568902 0.000286802 3.38954e-21)
(0.000644292 0.00115557 0)
(0.000463676 0.000570214 2.37585e-21)
(0.000581675 0.000350473 1.09231e-21)
(0.000289468 0.000355239 -3.39061e-22)
(0.000519445 0.000644723 2.83348e-22)
(0.000870158 0.000290403 2.29314e-21)
(0.000651458 0.00120071 4.26028e-22)
(0.000699782 0.00129731 0)
(0.000866761 7.83931e-05 9.76794e-22)
(0.00054273 0.0010632 2.93149e-22)
(0.0007299 0.00115928 2.07937e-22)
(0.000856959 0.00135286 -1.96529e-23)
(0.00096915 0.000190561 -3.00405e-21)
(0.000310649 0.000543789 0)
(0.000676538 0.000415271 0)
(0.000584781 0.00120115 -8.39495e-22)
(0.000639353 0.00127518 -1.54917e-21)
(0.000890768 0.00013775 2.53732e-21)
(0.00037062 0.000320089 1.57117e-21)
(9.83232e-05 0.000753319 1.70545e-22)
(0.000916529 0.000330763 0)
(0.000345463 0.000763228 6.32971e-22)
(0.000613961 0.00114742 0)
(0.000639196 0.00119008 5.35581e-23)
(0.000654202 0.0012161 0)
(0.00062769 0.00117015 0)
(0.000323999 0.000279576 3.91864e-25)
(0.000811867 0.00102259 2.14897e-22)
(0.000810771 0.00139285 1.72163e-22)
(0.00134779 0.000767536 -1.12659e-21)
(3.5429e-05 5.62232e-05 0)
(0.000929725 0.00152941 -7.43244e-22)
(0.000650727 0.0011387 0)
(0.000821742 0.00143722 0)
(0.000837786 0.0014239 -4.66515e-22)
(0.000647168 0.00113208 -1.3616e-23)
(0.00065331 0.00111167 2.08457e-22)
(0.0006518 0.00112811 1.5773e-22)
(0.000666386 0.00115263 -6.31581e-22)
(0.000662379 0.00112317 -1.04451e-21)
(0.000836386 0.0014749 -3.84251e-22)
(0.00068454 0.00122846 -7.36154e-24)
(0.000726376 0.00115941 0)
(0.000327951 0.000393584 -3.6217e-22)
(0.000511579 -0.000143356 1.74937e-21)
(0.000819474 0.0014038 -9.76481e-22)
(0.00072429 0.00127844 -1.22902e-22)
(0.000710541 0.00121921 -3.02962e-22)
(0.000630467 0.00107574 3.58522e-22)
(0.000723229 0.00122122 6.49748e-22)
(0.000773321 0.00130158 3.28565e-22)
(0.000688793 0.00116728 9.03619e-22)
(0.000667593 0.001103 8.89775e-22)
(0.000698474 0.00120397 0)
(0.000718698 0.00120573 -7.46643e-22)
(0.000685181 0.00116076 0)
(0.00083037 0.00136302 -5.064e-22)
(0.000848468 0.00143029 3.53654e-22)
(0.000666366 0.00114145 1.51454e-22)
(0.00065832 0.00113538 -3.43327e-22)
(0.000680908 0.00116735 -8.07487e-22)
(0.000638109 0.00106926 5.35597e-22)
(0.000659347 0.00107679 -8.24288e-22)
(0.000831469 0.00140478 -9.06001e-22)
(0.000634832 0.00108381 -1.64918e-23)
(0.000661561 0.00115359 -7.02294e-22)
(0.000647172 0.00112759 -2.73317e-22)
(0.000645977 0.0011088 -4.01238e-22)
(0.000799065 0.00140308 0)
(0.000877259 0.00150645 0)
(0.000857241 0.00145647 0)
(0.000201644 4.13602e-05 -2.27843e-25)
(0.0011123 0.000630846 9.08412e-24)
(0.000469771 5.17095e-05 -5.74073e-22)
(0.000766647 0.00138672 -3.94782e-22)
(0.000517932 0.00112346 -1.25689e-23)
(0.000337867 0.000145182 3.50654e-21)
(0.000906461 8.78647e-05 0)
(0.000473501 0.000446932 8.0137e-25)
(0.00118993 0.000363921 2.17617e-21)
(0.000644296 0.00017598 1.27549e-21)
(0.000657293 0.00129795 2.03526e-21)
(8.35356e-05 0.000768345 -2.22325e-21)
(0.000880569 0.000278015 -2.69042e-21)
(0.000760636 0.00139784 0)
(1.12858e-05 0.000542238 0)
(0.00068651 0.00121941 9.11497e-22)
(0.000289728 0.00121836 -1.20578e-21)
(0.000408848 0.000724829 -1.34078e-22)
(0.000396105 0.000731152 -1.26629e-22)
(0.000503642 0.000953201 -4.0076e-23)
(0.000476843 0.00076425 -3.62619e-22)
(0.000709426 0.00126715 0)
(0.000643064 0.00114983 2.61563e-22)
(0.000778788 0.00130789 3.56268e-22)
(0.000326642 0.000658383 1.91085e-21)
(0.000460751 0.000491371 0)
(0.000185734 0.000242472 2.03299e-21)
(0.000431488 0.000582569 4.25444e-21)
(0.000941012 0.00158507 3.86909e-22)
(0.000589264 0.000924752 2.96896e-22)
(2.53237e-05 2.26263e-05 7.73744e-22)
(0.00056807 0.00126817 1.3156e-21)
(0.000144882 0.000723929 1.46385e-21)
(0.000854453 0.00155287 -3.13941e-22)
(0.0008431 0.00147028 1.95819e-22)
(0.000778209 0.00129663 7.48662e-24)
(0.000859903 0.000162963 5.9604e-22)
(0.000596826 0.00105277 1.47326e-21)
(0.000658442 0.00127377 -1.04717e-21)
(0.000638836 0.00113729 -9.73888e-23)
(0.000604902 0.00113082 0)
(0.00051084 0.000927495 0)
(0.000589451 0.00107217 2.23189e-22)
(0.000184742 0.000227934 -4.75259e-21)
(0.000861 -1.74922e-06 -3.0004e-21)
(0.000510491 0.00127565 3.10123e-22)
(0.00070255 0.00073955 -1.34175e-21)
(0.000610927 0.00105239 -1.55205e-22)
(0.00049413 0.000944576 -1.24774e-21)
(0.000603022 0.00106036 -3.95265e-22)
(0.000908803 0.00135345 4.14391e-22)
(0.00084233 0.00149847 3.34467e-22)
(0.000883282 0.00149339 0)
(0.000704887 0.00118212 1.15347e-21)
(0.000673172 0.00114987 -1.60197e-21)
(0.001152 0.000386726 1.67652e-21)
(0.000681041 0.000793705 -1.21284e-21)
(0.000746183 0.00134943 9.6679e-23)
(0.000865036 0.000541523 4.69217e-24)
(0.000708724 0.00128225 0)
(0.000620992 0.000227995 0)
(5.87502e-05 -0.000132621 -1.24232e-22)
(0.000886713 4.81253e-05 0)
(0.000550445 0.00101109 -1.33078e-21)
(0.000728792 0.00132005 -3.16417e-23)
(0.00054365 0.00104456 0)
(0.00048087 0.00071813 5.35855e-22)
(0.000720895 0.00115192 0)
(0.000442742 0.000817425 0)
(7.8094e-05 4.25993e-05 0)
(0.000514859 0.000773327 1.33858e-21)
(0.000755358 0.00145144 4.72577e-24)
(0.000887216 -4.31233e-06 -2.98188e-21)
(3.50186e-05 8.24733e-06 -1.86014e-21)
(0.000772586 0.000482494 2.30793e-21)
(0.000749073 0.00140228 -5.70514e-23)
(0.000273804 0.000313314 -1.32299e-21)
(0.00146836 0.000192635 -1.69128e-21)
(5.44828e-05 0.000860825 -6.98349e-22)
(0.000719675 0.00125575 0)
(0.000879128 0.00021423 0)
(0.000879662 0.000109996 -2.44672e-21)
(0.000901052 0.000339742 -1.48199e-21)
(0.000625165 0.00117521 -4.00124e-22)
(0.00034232 0.000747636 -7.57657e-22)
(0.000635146 0.000255659 0)
(0.000877366 0.000191035 0)
(1.87446e-05 -1.09648e-05 -2.00983e-21)
(0.000520964 0.00122476 -6.0508e-23)
(0.000478995 0.00119747 3.38157e-23)
(0.000675438 0.00155083 0)
(0.00118192 0.00111122 1.43543e-21)
(0.000759669 0.000553368 -4.23152e-24)
(0.00048549 0.000540544 -1.03997e-21)
(0.000977299 6.23343e-05 -6.86384e-25)
(0.000814484 -1.38745e-05 -1.43922e-21)
(0.000643328 0.00110437 -4.92632e-24)
(0.00073215 0.00124998 2.36581e-22)
(5.57261e-05 4.59377e-05 2.64654e-26)
(0.000526473 8.22583e-05 -8.56626e-22)
(2.46492e-06 2.88932e-05 -2.18589e-22)
(0.00057081 0.00104828 -2.43318e-22)
(0.000750294 0.000514049 1.82382e-21)
(0.000250696 0.000340996 -1.29059e-21)
(0.000908814 0.00157348 1.92699e-21)
(0.000706179 0.00119045 -3.56561e-22)
(0.000698749 0.00121137 -3.36601e-22)
(0.000684347 0.00118621 -4.79416e-22)
(0.000676498 0.00116403 -5.96059e-22)
(0.000894744 0.0014862 1.13883e-22)
(0.000704732 0.00120902 0)
(0.000847102 0.001436 -5.12792e-22)
(0.000677707 0.0011406 1.30938e-22)
(0.000440619 0.000846318 0)
(0.000859704 7.65721e-05 3.2968e-21)
(0.000159666 0.000894233 -1.3853e-21)
(0.000170349 0.000210673 3.30363e-21)
(3.12898e-05 -9.70238e-05 2.08151e-21)
(0.00073765 0.00134731 -6.86644e-22)
(0.000853419 0.000206424 0)
(0.000977211 0.000553979 -2.94673e-22)
(0.000593549 0.00101873 1.2961e-21)
(0.000624767 0.00141636 3.58432e-22)
(0.000837905 0.000162633 4.81069e-25)
(0.000521369 0.000485022 1.31418e-21)
(2.98943e-05 5.08998e-05 0)
(0.000581149 0.00108518 0)
(0.00025907 0.000250259 -2.72318e-21)
(0.000623921 0.000285861 4.13557e-25)
(0.000293957 0.00033261 3.34713e-22)
(0.000515471 0.000748848 -3.83164e-22)
(0.000472082 0.00015923 1.06521e-21)
(0.000648903 0.00120727 0)
(0.00075043 0.00137237 -2.82871e-22)
(0.00142017 0.000757258 0)
(2.2294e-05 5.73811e-05 -6.9458e-21)
(0.00059745 0.000330115 -3.0154e-21)
(0.000646536 0.000311215 3.93299e-22)
(0.000836128 0.000214268 -1.24854e-21)
(4.54917e-05 0.000491888 2.8911e-21)
(0.00041446 0.00103111 2.9268e-22)
(0.000742522 0.00123703 7.29481e-24)
(0.000707275 0.00124334 -2.35704e-22)
(0.00101023 0.000380896 5.33834e-21)
(0.000510077 0.00123286 -9.81888e-22)
(0.000859478 0.00156227 -1.22865e-22)
(0.000692036 0.0012239 0)
(0.000731986 0.0013388 0)
(0.000882686 0.00157283 5.34083e-22)
(0.000633782 0.00119034 -2.86981e-22)
(0.000648201 0.0012156 -2.88406e-22)
(0.000687957 0.00125413 0)
(0.000643179 0.00119204 1.31064e-22)
(0.000716806 0.001362 0)
(0.000618219 0.00116905 0)
(0.000836005 0.00154993 -6.10025e-22)
(0.000457948 0.000469561 -8.09852e-22)
(0.000725859 0.00134951 1.26435e-21)
(0.000338778 0.000647961 -1.29819e-21)
(0.00071173 0.00124363 4.39794e-23)
(0.000828827 2.70044e-05 1.27432e-21)
(0.000879205 0.0002394 1.13348e-21)
(0.000358384 0.00064896 2.183e-21)
(0.00025087 4.33186e-05 0)
(6.97067e-06 0.00013707 -4.49186e-21)
(0.000646979 0.00113568 -1.60281e-23)
(0.000854463 0.00028059 -1.39335e-21)
(3.4058e-05 5.65476e-06 -2.08574e-21)
(0.000657399 0.00122007 1.24483e-21)
(0.000684506 0.00126902 1.66526e-22)
(0.000702221 0.00117135 0)
(0.000646886 0.00142349 -1.8424e-21)
(0.000534224 -7.96657e-05 -4.81576e-21)
(0.000583541 0.0012822 3.33647e-22)
(0.000238258 0.000764428 0)
(1.33026e-05 0.000170691 3.51937e-25)
(0.000817348 0.000730998 -1.62641e-22)
(0.000733242 0.00130514 0)
(0.00070758 0.00123462 1.31712e-22)
(0.000752365 -5.16684e-06 0)
(3.91756e-06 0.00019811 1.71153e-21)
(-2.89645e-06 0.00103454 -1.4446e-21)
(0.000146608 0.000686369 1.55667e-21)
(0.00061012 -8.06181e-05 1.98931e-21)
(0.00071731 0.00128471 -9.23722e-22)
(0.000159749 0.000326469 0)
(0.000557118 0.000157761 -6.64867e-22)
(0.000915571 0.00062468 -1.25484e-21)
(0.000690575 0.00121149 0)
(0.000647171 0.00110176 2.32964e-22)
(0.00054724 0.000988463 -6.15234e-22)
(0.000589843 0.00102858 0)
(0.000531381 0.000934425 -9.84343e-24)
(0.000504872 0.000193627 6.19124e-22)
(0.000320337 0.000686021 4.1383e-23)
(0.000307216 0.000674591 9.52303e-24)
(0.000419719 0.000908715 3.67282e-23)
(0.00056659 0.00132724 9.65147e-22)
(0.00089019 0.000214901 0)
(0.000901888 0.000110533 1.38121e-21)
(0.000491649 0.00102741 -6.71073e-22)
(0.000211206 0.000292825 -2.25312e-21)
(0.00050521 0.000919692 0)
(0.000319432 0.000729486 9.37758e-24)
(0.000361639 0.000827568 9.95482e-24)
(0.000715466 5.89193e-05 1.67801e-25)
(0.000594053 0.00102476 -1.60504e-22)
(0.000698737 0.00132463 3.14474e-22)
(0.000752335 0.00131394 -9.92816e-22)
(0.000629449 0.00118556 0)
(0.00066964 0.00117613 4.30167e-22)
(0.000611609 0.000943964 0)
(0.000546366 0.000669687 -4.04346e-25)
(0.000525596 0.000922287 0)
(2.35983e-05 0.000177922 -3.61841e-25)
(0.00062863 0.000189226 3.18527e-22)
(0.000432963 0.000549993 -1.1123e-21)
(9.71303e-05 4.87952e-05 0)
(0.000872524 0.000318058 0)
(0.0004416 5.21093e-05 -5.90227e-24)
(0.000638702 0.000764288 1.56116e-21)
(0.00106501 0.000473947 5.88963e-22)
(0.000700872 0.00119396 -1.94558e-22)
(0.000433549 0.000471652 6.83285e-22)
(0.000594026 0.00135689 -2.31281e-21)
(0.000668431 0.00147925 -2.25463e-22)
(0.000539388 0.000994342 1.65701e-21)
(0.000552663 0.000170694 0)
(0.000830961 0.000429418 -4.60868e-22)
(0.000710459 0.00115276 3.85656e-24)
(0.000296201 0.000308479 0)
(0.000559817 0.00101312 -5.05615e-22)
(0.000487973 0.000578073 -4.76245e-21)
(0.000164039 0.000193633 1.75225e-21)
(0.000836628 0.00148955 1.04452e-22)
(0.000803828 0.000664663 -1.79168e-21)
(0.000546938 0.00118053 5.46573e-22)
(0.000988551 8.22553e-05 -1.59585e-21)
(0.000676 0.000533244 1.07018e-21)
(0.000804668 0.00138519 -7.28929e-23)
(0.000513383 0.000574192 -7.32958e-25)
(0.00116117 0.000345011 -4.76952e-22)
(0.000411943 0.000328279 1.26477e-21)
(0.000274389 0.000609318 8.74994e-24)
(0.000279925 0.000621766 8.86869e-24)
(0.000287076 0.000638213 8.99274e-24)
(0.000338207 0.000756699 -8.01947e-23)
(0.000267851 0.000595107 3.52358e-23)
(0.000185664 0.000181744 0)
(0.000767883 0.000521038 0)
(0.000556469 0.000839622 -1.79709e-21)
(0.000861814 1.5661e-05 0)
(0.000172826 2.54241e-05 1.79961e-21)
(2.23809e-05 6.11983e-05 3.25296e-21)
(0.000507441 0.000406564 -1.30141e-21)
(0.000416553 0.000654267 2.14675e-21)
(0.00118466 0.000643456 3.21134e-21)
(0.000524584 0.000924493 4.32642e-22)
(0.000553846 0.000953685 -8.60284e-22)
(0.000534416 0.000934343 2.18905e-22)
(0.000567171 0.00100218 -9.9013e-22)
(0.000721278 0.0012505 0)
(0.000689281 0.00122691 2.435e-22)
(7.05538e-05 5.00746e-05 1.85259e-21)
(0.000876738 0.000276131 1.49796e-21)
(0.000428812 0.000768735 -8.92662e-22)
(0.000441587 0.000797539 -6.5965e-22)
(0.000590482 0.000968745 -3.01965e-22)
(0.000485138 0.000790149 3.40915e-22)
(0.000468577 0.000712468 3.78376e-22)
(0.000404212 0.000708978 8.6043e-22)
(0.000559235 0.00077766 2.46109e-23)
(0.000486157 0.000676243 0)
(0.000514997 0.00086805 -6.34098e-22)
(0.000426481 0.000783148 5.52826e-22)
(0.000568805 0.000852693 -4.19969e-22)
(0.000541084 0.000908976 -6.21687e-22)
(0.000418004 0.000721551 -1.86883e-22)
(0.000408361 0.000707866 3.8255e-22)
(0.000502173 0.000891527 0)
(0.000437086 0.000678952 -8.71696e-22)
(0.000410006 0.000707614 2.14185e-22)
(0.000418861 0.000722424 4.09082e-22)
(0.000717744 0.00099123 -1.66634e-22)
(0.000414819 0.000743364 -1.57234e-22)
(0.000418065 0.00075553 0)
(0.000408975 0.000739869 3.35921e-22)
(0.000436648 0.000706693 0)
(0.000389804 0.000703103 2.19282e-23)
(0.000501419 0.000905715 -8.29571e-24)
(0.000516866 0.000880764 1.06301e-23)
(0.000601477 0.000998615 0)
(0.000496069 0.000721082 3.19884e-21)
(0.000528299 0.000932832 5.75393e-22)
(0.000560989 0.000926239 -1.77128e-21)
(0.000402467 0.000719144 -7.60028e-22)
(0.000505644 0.000744251 0)
(0.000444182 0.000785137 -6.96308e-22)
(0.000491751 0.000872686 3.58348e-22)
(0.000470797 0.000780915 0)
(0.000870043 0.000157221 -1.11821e-21)
(0.000750263 0.00135437 2.10775e-22)
(2.5029e-05 8.64567e-06 1.06406e-21)
(0.000811304 0.00149691 -1.52508e-22)
(0.00090803 3.33092e-05 -1.26881e-21)
(4.15564e-05 5.21439e-07 2.25195e-21)
(4.03476e-05 -2.39723e-06 0)
(0.00012106 0.000286014 1.19038e-21)
(0.000677281 0.00116619 -3.80977e-22)
(0.000695149 0.00120692 0)
(0.000766816 0.00130365 -1.84103e-21)
(1.41652e-05 5.03585e-05 -2.03875e-21)
(0.000206614 0.00053016 0)
(7.1586e-06 -8.04374e-06 -1.8097e-21)
(0.00074131 0.000151391 1.56092e-21)
(0.000866538 2.8687e-05 -5.72357e-22)
(0.000733631 0.00123028 1.50061e-21)
(0.000416241 0.00112705 -5.87593e-22)
(0.000280671 0.000406286 -9.94188e-23)
(0.000412289 0.00080739 1.63323e-21)
(0.000208042 0.000568241 -1.62606e-21)
(0.00108642 0.000469836 7.11981e-23)
(0.000163077 0.000827931 1.65078e-21)
(0.000824511 0.000344921 7.53171e-22)
(6.91685e-05 4.10756e-05 3.31959e-21)
(0.00101011 -2.03522e-05 3.48349e-21)
(0.000765537 0.00128794 -1.35525e-23)
(0.000612261 0.000262543 -2.03732e-21)
(0.0010224 0.000257459 1.26903e-24)
(5.31352e-05 0.000332409 -1.31263e-21)
(0.00062646 0.00123873 -5.56752e-24)
(0.000606094 0.00124035 0)