/*--------------------------------*- C++ -*----------------------------------*\
  =========                 |
  \\      /  F ield         | OpenFOAM: The Open Source CFD Toolbox
   \\    /   O peration     | Website:  https://openfoam.org
    \\  /    A nd           | Version:  8
     \\/     M anipulation  |
\*---------------------------------------------------------------------------*/
FoamFile
{
    version     2.0;
    format      ascii;
    class       volVectorField;
    location    "8.6";
    object      U;
}
// * * * * * * * * * * * * * * * * * * * * * * * * * * * * * * * * * * * * * //

dimensions      [0 1 -1 0 0 0 0];

internalField   nonuniform List<vector> 
3080
(
(0.000106026 6.36134e-05 -1.04113e-20)
(0.00108257 0.00175107 -2.43469e-21)
(0.00102267 -4.51537e-06 4.71491e-22)
(9.49368e-05 8.31387e-05 0)
(0.00145419 0.00017841 -4.68055e-21)
(0.000704587 -0.000388629 0)
(8.57704e-05 0.000576017 2.10013e-21)
(0.00236852 0.00423111 0)
(0.00103762 -9.92654e-06 -3.60644e-21)
(0.000986058 3.2041e-06 5.04649e-21)
(1.58536e-05 6.81882e-05 0)
(0.000948919 1.14148e-05 0)
(0.000943512 0.00236648 6.82459e-21)
(0.00155271 0.000193101 -6.39225e-23)
(2.78583e-05 0.000166338 -1.99539e-21)
(0.00153869 0.00108157 0)
(0.000986973 -6.9397e-07 7.60485e-21)
(1.5914e-05 -7.4446e-05 2.09817e-21)
(1.23854e-05 4.98761e-05 0)
(0.00107819 4.24357e-05 -3.84249e-21)
(0.00220206 0.00411012 1.03472e-20)
(0.000951986 -0.000468237 1.13881e-21)
(0.00117821 -2.27876e-05 -6.88283e-21)
(0.00262171 0.00426482 -3.40949e-21)
(0.00132261 0.000115029 -1.8101e-20)
(0.000232963 0.0017022 -2.19092e-23)
(6.69343e-05 -0.000307165 -4.32082e-21)
(0.00167257 0.000686825 2.38678e-21)
(9.25755e-06 2.73272e-05 -2.52182e-22)
(0.00139819 0.000985264 1.1627e-20)
(0.00126299 0.00282277 1.65346e-20)
(0.00217404 0.0045643 -6.35423e-21)
(0.000423032 0.0021473 -8.7534e-21)
(0.00189064 0.00405348 2.9997e-21)
(0.00155462 0.00439946 4.42288e-21)
(0.000917825 -2.79299e-05 1.53208e-21)
(0.000222542 -0.000651974 -1.3782e-21)
(0.000575217 0.00415846 0)
(0.000617766 -0.000126416 1.8311e-21)
(0.000655224 0.00153052 8.82787e-21)
(0.000231396 6.77889e-05 0)
(0.00058988 -6.31156e-05 -3.73057e-21)
(0.000927293 4.82561e-07 6.35303e-21)
(0.000454419 -6.21017e-05 0)
(0.00182486 0.000292538 0)
(3.79414e-05 0.000224415 -5.41114e-22)
(0.000967328 0.000100549 -6.11597e-21)
(7.09732e-06 2.36545e-06 -1.99972e-21)
(4.12633e-05 -6.64753e-06 4.73577e-21)
(0.000284052 0.00201283 5.17769e-21)
(0.000520918 -6.01e-05 -3.90641e-22)
(0.000779403 0.00356146 -1.71584e-22)
(0.000199058 0.00108544 5.65436e-21)
(0.000734205 -0.000314813 9.95282e-22)
(0.00169114 0.000258357 6.29682e-23)
(0.000841976 -4.39215e-06 0)
(0.000839872 4.49974e-06 -1.03709e-21)
(0.00116852 0.0020819 -5.77012e-22)
(0.00172432 0.00334735 4.20745e-21)
(0.00102891 1.0648e-05 -6.32298e-21)
(0.00118662 0.00217206 4.66701e-22)
(0.00116904 0.00214408 0)
(0.00117639 0.00208933 -4.29434e-22)
(0.000879413 -2.21782e-05 0)
(0.00238772 0.00404049 -1.18769e-21)
(0.00234039 0.00395625 -1.15796e-21)
(2.44496e-05 -0.000143874 1.33776e-21)
(0.000684577 -0.000146868 3.88885e-21)
(0.0022395 0.00386996 -1.63215e-22)
(0.00117696 0.00208976 7.91618e-22)
(3.67113e-05 -0.000189337 9.83794e-25)
(0.00225981 0.0038852 -4.69549e-22)
(0.00192436 0.0038165 4.03931e-21)
(0.00117547 0.0020874 1.24611e-21)
(0.000357983 -9.38647e-05 -7.50512e-21)
(0.0020341 0.00395259 0)
(0.000325425 -8.07734e-05 -2.10341e-22)
(0.00226845 0.00388678 -3.07596e-22)
(0.000527621 0.000151573 -1.49039e-20)
(0.000347973 6.77467e-05 -9.56694e-21)
(0.00204686 0.0004125 0)
(6.43604e-05 -0.000187229 -1.08899e-21)
(0.00117268 0.00208436 -1.5123e-21)
(0.00144061 0.00290438 2.90314e-21)
(0.00105759 0.000195845 1.84815e-21)
(0.00227121 0.00388532 4.72936e-22)
(0.000969773 0.000171353 3.89308e-21)
(0.00239159 0.00403248 -6.95662e-22)
(0.00234438 0.00394843 -3.89e-22)
(0.000965401 0.000130898 4.96413e-24)
(0.00227146 0.00388263 0)
(0.00116965 0.00207999 3.4836e-22)
(0.00225037 0.00387566 -1.00491e-22)
(0.00118619 0.00216641 1.2608e-21)
(0.00116883 0.00213874 -1.41588e-21)
(0.00103217 -8.54484e-06 9.7539e-22)
(0.00227047 0.00387926 6.49746e-22)
(0.00238955 0.00402938 2.00717e-21)
(0.00234244 0.00394536 2.19045e-21)
(0.000557283 0.000182804 1.83108e-21)
(0.000598548 0.000231328 0)
(0.00238009 0.00403696 -3.32426e-22)
(0.00233206 0.00395268 -4.74389e-22)
(0.00207894 0.00390514 4.14179e-21)
(0.000912608 0.000269496 1.2027e-21)
(0.00133653 0.000832404 2.4567e-23)
(1.17064e-05 -4.56388e-05 -5.93638e-22)
(0.00226953 0.00387569 -1.52201e-21)
(0.00118353 0.00216202 1.49826e-21)
(0.00116616 0.00213447 1.43042e-21)
(0.00238845 0.00402701 0)
(0.00234137 0.00394271 0)
(0.000500901 -0.000156482 0)
(0.00239064 0.00403717 -1.7463e-22)
(0.00234346 0.00395303 7.22821e-22)
(0.00191595 0.00379666 1.9948e-21)
(0.00101043 0.000211036 -6.86271e-21)
(0.00238037 0.00404434 6.01634e-23)
(0.00233209 0.00395967 6.75528e-23)
(0.0011816 0.00215824 -1.673e-21)
(0.00116416 0.00213078 -1.82515e-21)
(0.00100842 1.02014e-05 -1.96962e-21)
(0.00107792 4.33856e-05 -1.3721e-24)
(0.0023917 0.00403583 6.13646e-22)
(0.00234452 0.00395173 8.84344e-22)
(4.15702e-05 0.000422622 -5.66506e-22)
(0.000251261 -1.54484e-05 5.94224e-21)
(0.00238558 0.00402448 -2.10332e-21)
(0.0023386 0.00393766 -2.29168e-21)
(0.00170107 0.000392937 -4.03398e-21)
(0.00239102 0.00403468 -9.03931e-22)
(0.00234373 0.00395064 -1.25598e-21)
(0.000579702 0.000267389 6.38465e-21)
(0.00239061 0.00403356 0)
(0.00234332 0.00394953 0)
(1.70108e-05 0.000108975 2.09414e-20)
(0.00101377 -0.000140497 9.05787e-21)
(0.000102327 1.80291e-05 2.63389e-21)
(0.00238258 0.00403793 5.78292e-22)
(0.00233609 0.00393686 3.13816e-21)
(0.00226194 0.00386786 -1.15119e-21)
(0.00116391 0.00206404 5.47837e-22)
(0.000464529 8.61429e-05 -1.01596e-20)
(0.00239075 0.00403239 -1.1713e-21)
(0.00234347 0.00394841 -1.28149e-21)
(0.000951807 0.00169936 -2.50939e-21)
(0.000346784 -1.60141e-06 -1.13301e-21)
(0.00117807 0.00214911 2.54792e-22)
(0.00115961 0.00212241 0)
(0.00118998 0.00217857 5.03662e-22)
(0.00117215 0.00215043 5.57413e-22)
(0.000217888 -1.32372e-05 6.75719e-21)
(0.000996534 5.8028e-05 2.81849e-21)
(0.000578173 0.00033643 0)
(0.000312598 -1.01478e-05 -1.05588e-21)
(0.00238128 0.00405034 -2.54624e-21)
(0.00233401 0.00393916 -2.0674e-21)
(0.00180234 0.00360212 0)
(0.00117001 0.00208625 4.64942e-22)
(0.000618634 0.000307775 -6.44505e-21)
(0.00225939 0.00386869 -1.29455e-21)
(0.00122006 0.0021611 -3.42828e-22)
(0.0011556 0.00213916 9.80714e-24)
(0.00163546 0.000275591 1.77464e-21)
(0.00115192 0.00206105 2.45877e-22)
(0.00116312 0.00205821 -6.19881e-22)
(8.83891e-05 3.84012e-05 0)
(0.000935762 -0.000123582 -5.34413e-21)
(0.00117576 0.00209288 1.64234e-21)
(0.00117886 0.00214406 -2.80913e-22)
(0.00115778 0.00211829 0)
(0.000964759 0.000123162 3.68178e-21)
(0.00227944 0.00370769 -1.71836e-21)
(0.00225382 0.00388537 2.78159e-21)
(0.00172472 0.00355381 1.86037e-21)
(0.00117622 0.00209226 0)
(0.00116226 0.00209779 3.8953e-22)
(0.00125652 0.00208151 2.27319e-21)
(0.000191052 -6.66733e-06 2.05011e-25)
(0.00228648 0.00418876 1.23708e-23)
(0.00221717 0.00409771 1.24347e-23)
(0.00215601 0.00400731 0)
(0.00226623 0.00387056 8.31894e-22)
(0.00116543 0.00205539 -3.34461e-21)
(0.00135938 0.00222062 7.67271e-21)
(0.000989335 6.77866e-05 3.0627e-21)
(0.0022506 0.00390784 -1.4461e-21)
(0.00117381 0.0020886 -2.75553e-22)
(0.00118281 0.00215326 3.07496e-22)
(0.00115748 0.0021181 -2.65883e-21)
(8.17878e-05 -0.000166609 1.00229e-20)
(0.00226499 0.00386789 3.66249e-21)
(0.000730391 0.000530882 -3.34631e-21)
(0.0021367 0.00412036 -9.07708e-22)
(2.72444e-05 -4.2697e-05 1.20997e-21)
(0.00238676 0.00402248 -1.6702e-23)
(0.00233966 0.00393809 -2.6194e-21)
(5.42599e-05 0.000461618 3.61402e-22)
(0.00122699 0.00215067 -2.83368e-21)
(0.00115395 0.00214332 -3.05636e-21)
(0.00118115 0.00216807 -2.90172e-22)
(0.00116244 0.00213924 -3.25124e-22)
(0.00117125 0.00208516 0)
(0.00118308 0.00176977 0)
(0.00226423 0.00386643 -9.49492e-22)
(0.00237812 0.00404551 -7.12691e-22)
(0.00233729 0.00391141 0)
(0.00117151 0.00207939 3.62055e-21)
(0.00228831 0.00375677 -1.60704e-21)
(9.21802e-06 -1.13149e-05 2.48475e-21)
(0.00118553 0.00216688 1.62472e-22)
(0.00116811 0.00213923 1.45626e-21)
(0.00110204 2.34617e-05 9.20047e-21)
(0.000176357 1.56793e-06 -2.96438e-20)
(0.000786611 0.00159534 4.66695e-21)
(0.000898739 6.13692e-06 -1.29126e-20)
(0.00226256 0.00386486 -2.07038e-21)
(0.00117535 0.0020227 -4.08902e-22)
(0.00122392 0.00199739 7.70776e-22)
(0.00116872 0.0020803 1.896e-21)
(0.00119117 0.00217714 7.55742e-22)
(0.0011735 0.00214921 1.66831e-22)
(0.00238258 0.00378242 0)
(0.00118296 0.00216312 0)
(0.00116548 0.00213556 2.05017e-22)
(0.000638141 0.000594038 -5.81628e-21)
(0.00124461 4.55846e-05 2.42998e-21)
(0.000454509 0.000552872 -9.22577e-21)
(0.00119125 0.00217593 6.38535e-22)
(0.00117366 0.00214801 -1.05419e-22)
(0.00226971 0.0040823 -3.66068e-21)
(0.000609713 0.000517738 3.44802e-21)
(0.00114416 0.00165643 -4.26239e-22)
(0.00118304 0.0021045 3.9139e-21)
(0.0010344 0.000177829 3.57413e-21)
(0.00225956 0.00393817 0)
(0.00237102 0.00405628 -3.4552e-21)
(0.00119028 0.00217362 8.91824e-22)
(0.00117279 0.00214573 9.78534e-22)
(0.00010997 0.000106945 -1.06695e-20)
(0.00118101 0.00215959 0)
(0.00116339 0.00213211 0)
(0.000986393 0.000149155 2.67999e-21)
(0.00262035 0.00432572 3.34755e-21)
(0.00234393 0.00420191 -6.04195e-23)
(0.00244355 0.00442402 0)
(0.00238126 0.00432974 -3.19379e-23)
(0.00231839 0.00399998 -3.38943e-21)
(0.000965157 1.5764e-05 0)
(0.00118958 0.00217152 0)
(0.00117216 0.00214368 1.09229e-21)
(0.00104502 0.00279787 0)
(0.00233907 0.00405661 -3.02897e-21)
(0.00120562 0.00220345 1.08375e-23)
(0.00118277 0.00217171 2.1036e-22)
(0.00151045 0.0017732 -1.90652e-22)
(0.00233459 0.00405812 -5.72825e-21)
(0.00118803 0.00216982 1.02161e-21)
(0.00117064 0.00214205 2.35682e-21)
(0.00236197 0.00409378 3.60288e-21)
(3.78703e-05 3.66687e-06 8.54271e-21)
(0.00237223 0.00404609 3.33235e-21)
(0.0023293 0.00394016 0)
(0.00222832 0.00395659 3.0465e-21)
(0.002313 0.00404768 9.94432e-24)
(0.00222916 0.00395159 -3.19679e-21)
(0.0023185 0.00404726 2.91414e-21)
(2.86366e-05 -3.72339e-05 -6.86026e-23)
(0.0022248 0.00395945 4.69219e-23)
(0.00229521 0.00404815 2.6845e-21)
(0.000890189 -1.81657e-05 1.41893e-20)
(0.00117811 0.00214822 2.10377e-21)
(0.0011589 0.00212184 2.56921e-21)
(0.0011616 0.00206227 5.77912e-22)
(0.00253201 0.00437532 3.07992e-21)
(0.000576672 0.000589213 5.46864e-21)
(0.00222556 0.0039598 -2.64458e-23)
(0.00228783 0.00405212 0)
(0.000124476 0.000110282 -5.49503e-21)
(0.00222645 0.00395844 0)
(0.00228221 0.00404783 0)
(0.00236482 0.00403683 3.49031e-21)
(0.00222576 0.00395523 -2.54251e-21)
(0.00227813 0.00403959 -6.89427e-21)
(0.00210063 0.0040886 4.89183e-22)
(0.00221961 0.00395333 -8.98079e-21)
(0.00229697 0.00404119 0)
(0.00219484 0.00377391 6.19902e-21)
(0.00116816 0.00207708 0)
(0.00222771 0.00395326 0)
(0.00227604 0.00403473 0)
(0.00217971 0.00380304 4.73005e-24)
(0.00118033 0.00214698 2.79598e-22)
(0.00115774 0.00211957 -2.50873e-21)
(0.00116149 0.00205716 -1.7699e-23)
(0.00222613 0.00395157 -2.18134e-21)
(0.00227405 0.00403249 -6.85875e-23)
(0.00297738 0.00339783 1.32888e-20)
(0.00220219 0.0043099 -4.57335e-23)
(0.00227809 0.00438247 -6.34236e-23)
(0.00222399 0.00429502 -9.54979e-24)
(0.00217881 0.0038243 3.9908e-23)
(0.00219242 0.0038515 2.81538e-21)
(0.00222453 0.00394999 0)
(0.00227237 0.00403098 0)
(0.00116741 0.00207445 -1.80514e-21)
(0.00222352 0.00394836 -1.84853e-21)
(0.00227132 0.00402949 -1.73005e-21)
(0.00221903 0.00395568 0)
(0.00228529 0.00404693 -3.53953e-23)
(0.00220393 0.00385586 5.10331e-21)
(0.000913809 1.0915e-05 4.36465e-21)
(0.00222209 0.00394543 -1.73468e-21)
(0.0022699 0.00402642 0)
(0.00225781 0.00367934 1.69677e-21)
(0.00220507 0.0038522 -3.04503e-23)
(0.00226302 0.00424965 -1.31301e-20)
(0.00218469 0.0038412 -2.80224e-21)
(0.00222191 0.00393909 -1.51273e-21)
(0.00226954 0.00401983 -6.84e-23)
(0.00219897 0.00385652 -5.40745e-21)
(0.00118809 0.00215933 -2.47166e-21)
(0.00115788 0.00212067 -2.68876e-21)
(5.2641e-05 0.000385958 5.20165e-22)
(0.00116311 0.00205826 2.68694e-21)
(0.00116621 0.00207108 2.4202e-21)
(0.00220335 0.00384877 -2.124e-21)
(0.00222193 0.00394 1.25789e-21)
(0.00226958 0.00402089 1.14892e-21)
(0.00222411 0.00395615 2.34378e-21)
(0.00227364 0.00403997 4.42003e-21)
(0.00222019 0.00395543 -5.46104e-21)
(0.00228059 0.00404668 -2.49378e-21)
(0.00221925 0.00393912 0)
(0.00226698 0.00402009 1.00944e-21)
(0.00220128 0.00384591 -3.20974e-23)
(0.0022179 0.00393556 9.55457e-22)
(0.00226562 0.00401642 8.69934e-22)
(0.00220038 0.00384379 0)
(0.00116478 0.00206843 8.41115e-24)
(0.00220531 0.0038547 -5.01083e-21)
(0.00117946 0.00215398 0)
(0.00116163 0.00212673 2.06307e-21)
(0.00221857 0.00393513 0)
(0.00226627 0.00401573 -6.54078e-22)
(0.00103561 4.69268e-05 -2.71843e-24)
(0.00219886 0.00384028 1.57797e-21)
(0.0011734 0.0020948 2.23522e-21)
(0.00221283 0.00393929 1.11148e-21)
(0.00226039 0.00401967 1.00114e-21)
(0.00141565 0.00317308 -7.11438e-21)
(0.00222308 0.00395587 5.09507e-21)
(0.00227678 0.00404127 -2.48645e-23)
(0.00220247 0.00385736 5.35417e-21)
(9.94205e-05 3.39594e-05 -5.84324e-21)
(0.00219679 0.00383679 1.41006e-21)
(0.000400752 -9.41608e-05 0)
(0.00223029 0.00403475 -6.61912e-22)
(0.00218347 0.00395432 -7.45259e-22)
(0.00172979 0.00147646 1.24024e-20)
(0.000928654 3.70161e-05 0)
(0.00220491 0.0038515 2.23509e-21)
(0.00219538 0.00383402 2.18796e-24)
(0.00219389 0.00383193 8.99725e-22)
(0.00118983 0.00206779 3.18936e-21)
(0.00219202 0.00383277 1.38462e-21)
(0.000105747 0.000739262 4.68503e-21)
(0.00218783 0.00384261 0)
(0.00222177 0.00395101 -2.40995e-21)
(0.00227049 0.00403289 0)
(0.000924218 2.44376e-05 0)
(0.00220534 0.00385446 4.87789e-21)
(0.00104706 0.00190371 3.52094e-21)
(0.00227879 0.00487317 6.77212e-21)
(0.00220309 0.00384752 6.02794e-21)
(0.000633471 0.00044718 -1.4666e-20)
(0.00213751 0.00447966 -1.17985e-21)
(0.00222111 0.00394866 2.15632e-21)
(0.00226924 0.00402945 3.99756e-21)
(0.000992447 4.93405e-05 -8.6427e-21)
(0.00106559 0.00141691 -1.55926e-20)
(3.11936e-05 -8.82646e-06 -4.3003e-26)
(1.21613e-05 9.52827e-05 5.04742e-21)
(0.00221961 0.00394018 1.51395e-21)
(0.0022673 0.00402093 2.83956e-21)
(0.00220482 0.00385134 -2.25134e-21)
(0.00223038 0.00386688 1.00935e-22)
(0.00220061 0.00384299 7.38947e-23)
(0.00221971 0.00394739 0)
(0.00226757 0.00402804 -1.92094e-21)
(4.2338e-05 -1.02653e-05 3.6684e-21)
(0.00120458 0.00216517 -2.90252e-23)
(0.00115689 0.00212501 2.84288e-21)
(0.00202494 0.00427569 -2.82739e-21)
(0.0022182 0.00393703 7.48287e-23)
(0.00226578 0.00401759 6.91244e-23)
(6.94884e-05 0.000539555 -2.50595e-21)
(0.00220357 0.00384839 -2.02553e-21)
(0.00266276 0.00443493 0)
(0.00169347 0.0031755 2.15111e-21)
(0.00041991 0.000353513 4.08262e-24)
(0.00219883 0.00383903 1.46907e-21)
(0.00257023 0.00435074 -3.14987e-21)
(1.80968e-05 -4.61467e-05 -5.9442e-22)
(0.00221825 0.00394593 -8.60355e-24)
(0.00226608 0.00402667 3.45995e-21)
(0.00129542 0.0010027 -6.27725e-21)
(0.00219711 0.00383603 0)
(0.00220196 0.00384681 0)
(0.00221807 0.00394426 1.72456e-21)
(0.00226591 0.00402507 0)
(0.000971635 0.000131067 9.83647e-22)
(0.00215738 0.00403458 0)
(0.0022148 0.00393212 -3.80402e-23)
(0.00226248 0.00401263 1.45914e-21)
(0.00112533 0.00115801 -1.34699e-20)
(0.00219576 0.00383407 9.8476e-22)
(0.00220074 0.00384365 -1.6621e-21)
(0.00221791 0.00394197 0)
(0.00226576 0.00402269 3.3391e-23)
(3.36947e-05 -3.34537e-05 -3.47745e-21)
(0.00097184 0.00025962 5.21593e-22)
(0.00219338 0.00383366 -7.44527e-22)
(0.00224896 0.00379986 -1.32937e-23)
(0.00218872 0.00370254 2.54542e-24)
(0.00213067 0.00357184 1.851e-23)
(8.08994e-05 -9.30602e-05 2.38808e-20)
(0.00236172 0.0039957 0)
(0.00241606 0.00408217 0)
(2.94488e-05 0.000138649 -8.6686e-26)
(0.00219896 0.00384011 0)
(0.00221675 0.00393877 -1.34486e-21)
(0.00226451 0.00401937 -2.52738e-21)
(0.00220245 0.00394555 1.30462e-21)
(0.00224966 0.00402598 1.16718e-21)
(0.000167141 8.74128e-05 -8.53697e-21)
(0.00144182 0.000156479 1.26595e-20)
(0.00103893 -0.000188043 -6.54723e-21)
(0.000969683 0.000179195 1.12015e-20)
(0.00104945 0.000681489 -9.42194e-21)
(0.00233252 0.00395035 1.58545e-23)
(0.00238133 0.0040348 1.44668e-23)
(0.000944193 3.47853e-05 -2.02191e-21)
(0.00218997 0.00383907 5.33153e-22)
(0.00239339 0.00404387 1.43463e-22)
(0.00234598 0.00395954 -1.76175e-22)
(0.00257119 0.00456209 -9.23939e-24)
(0.00250777 0.00446499 2.12315e-22)
(0.00241497 0.00435258 2.35097e-23)
(9.24131e-05 -0.000107064 -1.52547e-20)
(0.00239438 0.00404302 3.6934e-22)
(0.00234705 0.00395873 1.94257e-22)
(0.00239411 0.0040415 0)
(0.00234674 0.00395723 -9.65666e-22)
(0.00239347 0.0040403 0)
(0.00234602 0.00395609 2.66957e-22)
(0.00239311 0.00403888 1.14895e-21)
(0.00234568 0.00395472 1.22076e-21)
(0.00219726 0.00383703 2.57529e-21)
(0.00055083 -8.06285e-05 0)
(0.00221558 0.00393687 -2.37595e-21)
(0.00226333 0.0040175 -2.16903e-21)
(0.00236498 0.00442588 -2.06114e-22)
(0.00231147 0.0043366 -5.58143e-23)
(0.00238158 0.00439183 5.81706e-23)
(0.00248774 0.0045972 7.54148e-23)
(0.00242425 0.004501 1.48187e-22)
(0.0035008 0.000933186 8.93748e-21)
(0.00238897 0.00402769 -2.3775e-21)
(0.00234184 0.00394318 0)
(0.00134649 0.00157705 0)
(0.000795022 1.4631e-05 0)
(0.000161236 5.12738e-06 -4.61743e-21)
(0.00221443 0.003936 0)
(0.00226212 0.00401676 0)
(4.40038e-05 -3.04976e-05 0)
(-0.000100325 0.00189705 8.53629e-21)
(-0.000181122 0.00168531 -8.78078e-21)
(2.97193e-05 0.000184254 -1.93392e-22)
(0.00237889 0.00405327 -3.29254e-21)
(0.00233326 0.00394276 5.01606e-21)
(0.00219616 0.00383462 1.05005e-21)
(0.000842382 1.5411e-05 7.7976e-21)
(0.000952039 4.00982e-05 0)
(0.000773196 -5.63757e-06 -4.8084e-21)
(0.00256814 0.00457526 2.44255e-22)
(0.00250762 0.0044758 0)
(0.0022685 0.00387664 -2.52004e-21)
(0.00226692 0.00387617 -1.78988e-21)
(0.00104139 2.99677e-05 -1.5488e-23)
(0.00221355 0.0039343 2.55049e-21)
(0.0022614 0.00401484 1.56248e-21)
(0.00226663 0.0038755 0)
(0.00210699 0.00455692 1.75501e-21)
(0.00226494 0.00387388 3.60026e-23)
(0.000268707 0.000113534 0)
(0.00105413 0.00246029 7.84833e-21)
(9.04521e-05 -7.05291e-05 -2.80785e-26)
(7.39886e-05 8.92608e-06 4.63488e-25)
(0.000246024 0.000138494 8.11356e-21)
(0.00121437 0.00149654 1.88362e-20)
(0.000848215 4.32307e-05 -2.15159e-24)
(0.000972788 0.000115895 -6.73982e-21)
(0.00219378 0.00383324 7.84884e-22)
(0.00243678 0.00436522 1.15086e-22)
(0.000340284 0.000248217 0)
(0.000912058 0.000636185 -8.97582e-21)
(0.00225455 0.000212698 1.24011e-20)
(3.32347e-05 -2.765e-05 -4.0676e-21)
(0.00257664 0.00430532 0)
(0.000995408 0.000116355 -1.79903e-21)
(0.00221042 0.00393406 -1.9341e-21)
(0.00225827 0.00401425 -1.15917e-21)
(0.000968701 4.23699e-05 0)
(0.000883261 0.00403726 -6.15288e-21)
(0.000447613 0.000477908 -1.91787e-20)
(0.0021754 0.00386407 3.01546e-22)
(0.000920402 -4.44408e-05 -6.79786e-21)
(0.00011678 -0.000127686 1.07572e-20)
(0.000106976 -0.000132325 -7.19368e-21)
(0.00194415 0.00444934 -3.7893e-21)
(0.000937584 1.2239e-05 0)
(0.00238503 0.00403853 4.75337e-22)
(0.00233761 0.00395429 0)
(0.00219132 0.00383669 0)
(0.00122734 0.000778661 -1.93716e-20)
(0.000870337 6.02879e-05 -4.64277e-25)
(0.00220578 0.00394125 -1.49177e-21)
(0.00225344 0.00402176 -1.34e-21)
(0.000120957 -0.000104125 2.04546e-20)
(0.00098784 4.77878e-05 9.98069e-22)
(0.000887242 6.32923e-05 0)
(0.0022654 0.00388416 9.34081e-22)
(0.000657758 0.000480945 -1.44266e-20)
(0.00225396 0.00388002 6.01934e-22)
(0.00138706 0.000219946 0)
(0.00094394 4.54495e-05 0)
(0.0022693 0.00388331 -4.05209e-22)
(0.0023908 0.00403097 3.40119e-22)
(0.00234358 0.003947 1.422e-21)
(0.00134723 0.000278147 -3.63509e-21)
(0.000226339 0.000137752 7.73583e-21)
(0.00234183 0.00394413 -1.64073e-21)
(0.00238892 0.00402806 -1.50265e-21)
(0.00227022 0.00388117 0)
(0.00234054 0.00394161 1.89605e-21)
(0.00238761 0.00402574 1.7383e-21)
(0.000380968 0.000343637 0)
(0.0023382 0.00393623 -2.26338e-21)
(0.00238531 0.00402201 0)
(0.0023357 0.00393555 -6.27895e-22)
(0.00238188 0.00402889 -5.79909e-22)
(0.00233357 0.00393696 5.36685e-21)
(0.00238153 0.00404758 -6.09164e-22)
(0.00226932 0.00387793 0)
(0.000911464 7.56894e-05 -5.07421e-21)
(0.00216003 0.00404653 3.89663e-21)
(5.20252e-05 -2.50824e-05 1.45565e-20)
(0.000976389 0.000690446 4.45611e-21)
(0.0022684 0.00387438 -7.26293e-22)
(1.07904e-05 3.46856e-05 0)
(0.000295123 0.000234599 -1.24114e-20)
(0.00245249 0.00437855 0)
(0.00230041 0.00367 3.38675e-21)
(0.00254964 0.00457906 -3.55957e-22)
(0.00248965 0.00447931 2.73655e-22)
(0.000974967 0.000355003 9.89234e-21)
(0.00093029 3.64684e-05 -2.58995e-21)
(0.000728574 0.00193047 -1.25096e-20)
(1.85413e-05 -3.04654e-05 5.86383e-22)
(0.00226123 0.00386585 2.28411e-21)
(0.00225922 0.00386697 0)
(0.00225469 0.00387311 0)
(0.000163027 0.000134104 0)
(0.00227454 0.00382735 1.62177e-21)
(0.00224889 0.00390639 2.91625e-21)
(0.000803555 0.00131035 1.50033e-20)
(0.00232225 0.00483465 8.97083e-21)
(0.00112157 0.000651751 0)
(4.56017e-05 -3.17613e-05 -7.84654e-21)
(0.000943693 1.67289e-05 -5.16293e-25)
(0.000469529 0.00130441 8.26325e-21)
(0.000992863 0.000107697 -5.47274e-22)
(2.25153e-05 -0.000104319 -4.95524e-22)
(0.00030248 0.000133627 0)
(0.000966022 5.12148e-05 1.10518e-20)
(0.000230572 0.000373397 5.53995e-25)
(6.48706e-05 0.00218976 0)
(0.000931557 7.97952e-05 0)
(0.0021965 0.00438769 -3.92283e-21)
(2.49372e-05 -2.7636e-05 2.99889e-21)
(0.000455661 0.000149356 1.45335e-20)
(0.000957742 -0.00069003 1.10189e-21)
(0.000713465 0.00115759 1.60418e-20)
(0.00118977 0.000921389 -7.93456e-21)
(2.24028e-05 -2.38775e-05 -1.2535e-20)
(0.00171312 0.00122535 1.37886e-20)
(0.00118901 0.000155244 -2.77971e-21)
(0.000962411 2.00644e-05 -9.34701e-22)
(0.00117346 8.73491e-05 9.61913e-21)
(0.000960503 4.19572e-05 -1.38146e-22)
(1.80144e-05 -3.81177e-05 0)
(0.000960928 -4.2889e-05 -1.60653e-20)
(0.00142613 0.00224673 3.61849e-21)
(0.000929433 7.27511e-05 1.18207e-20)
(3.62832e-05 -7.09207e-05 0)
(2.02519e-05 0.00174489 -3.26629e-21)
(0.000241378 -0.000278936 0)
(0.000168142 0.000167375 9.00133e-21)
(0.00255266 0.00448885 6.37647e-21)
(0.000950435 2.16695e-05 -1.25612e-21)
(0.000489004 -0.000374203 0)
(0.000510851 0.000128224 8.8867e-21)
(0.000301505 0.000274191 2.51388e-24)
(0.00114871 6.73622e-05 0)
(0.00247281 0.00438563 3.04443e-23)
(1.80786e-05 -2.2531e-07 0)
(0.00218158 0.00385148 0)
(0.000267815 0.000302073 0)
(0.000195932 0.00155011 0)
(0.00190941 0.00450596 5.54722e-21)
(0.00269434 0.00444337 6.52547e-21)
(0.000912335 0.000783216 7.93614e-21)
(4.91781e-05 -7.27284e-05 4.77123e-21)
(0.000971928 2.98119e-05 0)
(0.000154423 0.000188261 0)
(0.000506319 0.0002198 -2.11683e-21)
(2.53098e-05 -1.31331e-06 0)
(4.00088e-05 -2.0825e-05 4.7756e-21)
(0.000295318 0.000109139 6.95641e-25)
(0.000174215 0.000148803 0)
(0.000430347 0.000192798 1.11297e-20)
(0.00115683 0.000151791 -3.60939e-21)
(7.42861e-05 -8.99567e-06 -5.94438e-21)
(0.000997354 7.66619e-05 1.36156e-22)
(0.000114076 -0.000165046 2.33229e-24)
(0.00117717 0.000150007 2.28365e-21)
(0.00136591 0.00214432 1.03193e-20)
(0.00096334 4.15233e-05 1.34908e-22)
(3.96576e-05 -7.93722e-05 0)
(0.00125608 0.00314813 0)
(0.000957198 2.00981e-05 -5.94382e-22)
(3.76869e-05 -9.61016e-05 2.65173e-21)
(0.00117152 0.00160638 2.9849e-21)
(0.00128295 0.000439933 2.63897e-21)
(0.000174838 0.00285559 0)
(0.000773329 6.19797e-05 -2.28823e-21)
(1.18321e-05 -1.55815e-06 0)
(-2.551e-05 0.000739305 6.63152e-21)
(0.000122406 -1.60972e-05 9.25151e-21)
(0.000969863 1.03387e-05 -4.02959e-24)
(0.000247326 -0.000437275 -5.90601e-21)
(0.000558811 0.000998811 -1.48737e-20)
(0.000110803 -2.13213e-05 0)
(0.00115947 0.000708412 -2.72881e-23)
(0.000910645 5.12805e-07 0)
(0.000801303 3.09165e-05 6.85343e-21)
(0.000142973 0.000120606 -5.20925e-21)
(0.000945341 1.6089e-05 2.31076e-21)
(0.000138064 -0.000154464 3.14043e-24)
(0.00250311 0.00449457 3.41485e-22)
(0.00256266 0.00459494 0)
(0.000541622 0.000260843 9.74428e-21)
(0.00106878 0.000905915 -1.85058e-24)
(0.000955274 1.89285e-05 1.15607e-21)
(0.00131011 0.00062731 5.36115e-21)
(7.68868e-05 2.46486e-05 1.24154e-20)
(0.000216979 0.000168044 5.59286e-21)
(0.000853841 8.86914e-05 2.62975e-20)
(0.00101679 -2.89493e-06 -2.7753e-20)
(0.0027514 0.00448345 1.01307e-20)
(0.000131884 -9.0595e-06 2.05217e-20)
(0.000953799 4.00783e-05 0)
(0.000277799 0.000141005 -8.57154e-21)
(0.000202083 0.000130351 8.09372e-21)
(0.000167238 -0.000363678 2.37845e-21)
(0.000155387 0.000121513 1.57679e-20)
(0.000395658 0.00012632 9.72614e-21)
(0.000136244 -0.000127153 2.62995e-24)
(0.000385357 0.000161197 3.94614e-25)
(3.63479e-05 -5.86333e-05 0)
(0.00096621 4.59786e-05 0)
(0.000948893 2.92866e-05 1.97443e-21)
(0.000236006 0.000189869 1.14841e-20)
(0.000392572 0.000150892 0)
(0.000384263 -4.51268e-05 6.30766e-21)
(0.000194783 0.00010664 0)
(0.000952181 2.94866e-05 -2.0911e-21)
(0.000326797 -0.000343135 4.83548e-21)
(0.000171859 -0.000189974 1.37955e-20)
(7.43151e-05 -5.66555e-05 1.52424e-21)
(0.000467693 0.000191978 -1.49308e-24)
(0.000519729 0.000225293 0)
(0.000368358 0.000395688 0)
(0.000957385 2.65098e-05 0)
(0.00019434 0.000179282 -3.27677e-21)
(0.000982108 4.63743e-05 -8.50884e-21)
(0.000128572 -0.000176655 -7.04423e-21)
(0.000285615 0.00154787 5.24107e-21)
(0.000132521 0.00013962 0)
(0.000815256 0.000754373 0)
(0.000416504 -7.16136e-06 0)
(0.000958848 -7.40739e-05 1.7626e-20)
(0.00091164 0.000695497 -1.20849e-20)
(9.11312e-05 0.0010351 5.08507e-21)
(4.78706e-05 -7.4294e-05 0)
(0.00186931 0.00454189 5.18117e-22)
(0.000956451 -1.90047e-05 2.21714e-21)
(0.000861611 0.000825648 1.63074e-20)
(0.000931492 -3.01683e-05 -4.39971e-25)
(0.000270341 0.000265522 -8.14906e-21)
(0.001027 1.60986e-05 0)
(8.26746e-05 6.51939e-05 4.37113e-21)
(0.000186681 -0.000222041 -4.96894e-21)
(0.000315735 0.000168593 9.06548e-21)
(5.02125e-05 -9.36674e-05 -9.86118e-21)
(9.51655e-05 1.40328e-05 -3.75182e-21)
(0.000992317 4.75142e-05 5.04469e-21)
(0.000197583 1.60569e-05 4.16077e-21)
(0.000916699 0.00100022 0)
(0.00111442 0.000175198 1.58229e-20)
(0.00024753 1.07378e-05 0)
(7.89573e-05 -1.6162e-05 -5.68589e-21)
(0.000231878 -0.000232867 -8.75811e-21)
(0.000428036 0.000948673 -5.91458e-21)
(0.000947883 3.36023e-05 9.18069e-21)
(0.000568323 0.000300731 -7.4882e-21)
(8.0681e-05 2.61738e-05 -1.05045e-20)
(0.00142032 0.000646159 -1.28412e-20)
(0.000317543 0.000678296 -2.16172e-20)
(0.000962033 -2.79589e-05 0)
(5.17101e-05 -0.000108105 0)
(0.000968773 2.157e-05 -1.29566e-22)
(0.000316478 -0.000271215 -8.77286e-21)
(0.00101768 3.66754e-05 4.54744e-21)
(0.000952332 1.94823e-05 -8.1161e-21)
(2.34246e-06 1.27411e-05 -1.01135e-21)
(2.97304e-05 -2.07688e-05 -5.50228e-21)
(0.000257468 -0.000335591 -6.06079e-21)
(0.000119195 -3.08401e-05 0)
(0.00100637 2.86319e-05 0)
(0.000683763 0.000147108 -2.64893e-22)
(2.86798e-05 1.86144e-05 7.33319e-21)
(0.00112668 0.000470814 -1.65759e-21)
(0.00249643 0.00437279 3.14652e-22)
(0.000112301 -5.97835e-05 -2.89755e-25)
(0.00112618 0.000409034 6.60306e-21)
(0.000229759 0.000566523 3.64252e-25)
(8.78837e-05 -5.08894e-05 -4.1913e-21)
(0.00100657 2.86651e-05 0)
(2.1724e-05 -1.18598e-06 -8.18478e-21)
(6.95231e-05 -4.91828e-05 0)
(0.00100222 -2.78873e-05 0)
(0.00094934 9.43146e-06 -2.68034e-22)
(0.000724633 0.00028265 -1.42094e-20)
(0.000496813 0.000282686 -5.52149e-21)
(0.00111263 0.00130558 9.62509e-21)
(2.37702e-06 1.87762e-05 0)
(0.00024715 0.0002615 8.51299e-21)
(4.22772e-05 2.70058e-06 -4.78325e-21)
(0.000509266 0.000563312 7.61742e-21)
(0.000311584 0.00031176 8.61852e-21)
(0.000965895 2.77889e-05 -2.67076e-22)
(3.32112e-05 1.31945e-05 0)
(0.000224546 1.0329e-05 0)
(4.59275e-06 0.000129212 1.02414e-21)
(-5.16082e-06 0.000608754 -8.20201e-21)
(0.000125513 0.000296674 -9.65052e-25)
(0.00101884 8.36823e-06 -4.88465e-22)
(0.000647369 -0.000268046 -5.9138e-21)
(0.000176266 1.99352e-05 4.31507e-21)
(0.000976365 0.000921051 -9.35397e-21)
(0.0024842 0.00438998 6.62353e-23)
(0.00051745 -0.000257593 -1.44456e-20)
(0.000962057 2.7129e-05 -8.97397e-22)
(0.0009236 0.000846778 -2.53242e-20)
(3.35796e-06 0.000828544 0)
(0.000131062 -9.11012e-05 0)
(0.00125636 0.00058872 0)
(0.00094747 7.89781e-06 0)
(2.68994e-06 0.000554009 0)
(0.000839942 9.19273e-05 -4.08313e-21)
(-4.69435e-06 0.000293876 -6.48472e-21)
(0.000967243 5.43324e-05 -1.27067e-21)
(0.000176453 0.000194895 0)
(8.51408e-06 0.000467878 -4.28622e-21)
(-2.40412e-05 0.000738707 -7.62684e-21)
(0.00238227 0.00477682 1.70248e-23)
(0.0011646 7.31975e-05 -1.57563e-20)
(0.000739909 0.000649759 -4.1247e-21)
(0.000987208 2.27722e-05 0)
(0.000133731 -0.000106919 -9.90607e-21)
(6.78753e-05 4.17909e-05 4.28184e-21)
(0.000134355 0.000161039 7.26227e-21)
(1.12966e-05 0.000268379 3.20337e-21)
(0.00092707 3.54727e-06 0)
(0.000929555 3.40406e-05 0)
(-5.21574e-06 0.000216565 0)
(0.000855126 0.000636036 6.6988e-21)
(3.73346e-06 0.000163577 1.9684e-21)
(0.000470143 0.000877768 -1.55403e-20)
(0.000219555 0.000110646 8.73306e-21)
(6.78433e-07 0.000199156 -3.86004e-21)
(0.000929022 -2.92433e-05 0)
(8.13507e-05 -0.000159328 0)
(0.00102056 8.0198e-06 2.25503e-21)
(7.40062e-05 2.45395e-05 -1.66187e-20)
(4.45223e-05 3.56565e-06 7.04992e-21)
(0.000346331 -4.65651e-05 -8.99346e-22)
(-7.2991e-08 0.000104411 -2.60065e-21)
(0.000977659 -6.87082e-05 9.22384e-21)
(0.000956231 3.8241e-06 -1.06642e-21)
(0.000144431 -0.00031258 3.55489e-21)
(3.80875e-05 3.19347e-05 -3.89735e-22)
(0.000242476 0.000113394 1.7714e-25)
(0.000767941 4.51598e-05 0)
(0.000461398 -1.93973e-05 -9.83969e-25)
(0.000289962 0.000172506 -8.21017e-21)
(0.000168183 -0.000158828 0)
(0.00244606 0.0043353 3.66565e-21)
(7.34725e-05 5.11238e-05 4.94433e-21)
(0.000771501 0.000306535 8.63974e-21)
(0.000340783 -0.000584373 1.07385e-20)
(0.000479394 0.00016468 -9.52838e-21)
(0.000380163 8.6713e-05 -8.84303e-21)
(0.000245721 0.000231868 -1.52873e-20)
(0.000150186 0.00015784 -5.60976e-21)
(0.000904307 0.000402247 0)
(1.32787e-06 3.7399e-05 -4.09677e-21)
(0.00101239 -2.95047e-06 2.23991e-21)
(0.00101864 1.97465e-05 0)
(0.000929549 1.39898e-05 1.59749e-21)
(0.000654868 0.000120733 5.01605e-21)
(0.000945359 4.20309e-05 0)