/*--------------------------------*- C++ -*----------------------------------*\
  =========                 |
  \\      /  F ield         | OpenFOAM: The Open Source CFD Toolbox
   \\    /   O peration     | Website:  https://openfoam.org
    \\  /    A nd           | Version:  8
     \\/     M anipulation  |
\*---------------------------------------------------------------------------*/
FoamFile
{
    version     2.0;
    format      ascii;
    class       volVectorField;
    location    "8.6";
    object      U;
}
// * * * * * * * * * * * * * * * * * * * * * * * * * * * * * * * * * * * * * //

dimensions      [0 1 -1 0 0 0 0];

internalField   nonuniform List<vector> 
7843
(
(0.000744878 0.00134089 -2.00786e-22)
(0.000552773 0.000982679 9.62715e-22)
(0.000559539 0.00100638 0)
(0.000990443 9.37113e-07 5.90966e-22)
(0.000715344 0.00124989 -2.53523e-22)
(0.000998494 3.45572e-05 -7.04866e-23)
(0.000573521 0.000542073 -2.07507e-21)
(0.000610494 0.00106172 0)
(0.000217629 9.55976e-05 2.86044e-21)
(0.000544417 0.000969848 0)
(0.000575 0.00101812 7.62079e-22)
(0.000752689 0.00134117 0)
(0.000319738 5.32341e-05 0)
(0.000568724 0.00102426 0)
(0.00057594 0.000977732 1.2847e-21)
(0.000321 0.000560786 7.75946e-22)
(0.000572859 0.00101574 2.34549e-24)
(0.000578927 0.000960156 0)
(7.22807e-06 8.49875e-05 8.53601e-22)
(0.000252861 0.000378022 0)
(0.000205613 0.000142519 2.46052e-21)
(0.000413086 0.000446746 -4.10607e-22)
(0.00057583 0.00102103 2.24815e-24)
(8.55604e-05 0.00087445 -1.14204e-22)
(0.000745567 0.00121675 -4.71924e-22)
(1.71814e-05 -5.37897e-06 0)
(0.0006041 0.00136697 -3.2433e-23)
(6.00906e-05 0.00037515 2.48112e-21)
(0.000657637 0.00120129 -9.69306e-23)
(0.00100959 4.91036e-06 -6.71104e-22)
(0.0008896 0.000155936 -8.69623e-22)
(0.00056629 0.00104053 2.78234e-22)
(0.000821678 -9.69412e-05 8.1205e-22)
(0.000616734 0.00107103 1.07178e-22)
(0.000547374 0.000968717 7.42749e-22)
(0.000784805 0.00124431 -1.70414e-21)
(0.000574357 0.000972348 -5.5342e-22)
(0.000935776 0.00034693 9.8078e-25)
(0.000986933 4.66554e-05 -9.10409e-23)
(0.000509927 0.000943372 8.14705e-22)
(0.000575456 0.000981725 -1.46932e-23)
(0.000624912 0.00110365 -8.92067e-22)
(0.000724876 0.00123879 0)
(0.000555768 0.000981704 -1.93884e-21)
(0.000224448 7.73522e-05 -8.66233e-22)
(0.000189586 0.000464013 5.70835e-22)
(0.000573398 0.00102302 8.15567e-22)
(0.000209933 0.000589058 1.14966e-21)
(0.000606812 0.00108095 1.01667e-21)
(1.05168e-05 3.28371e-05 2.25461e-23)
(0.000355208 4.19868e-05 -8.18315e-22)
(0.000557619 0.00097761 1.05738e-23)
(0.000604482 0.00107017 0)
(0.000775956 0.000534812 7.28067e-22)
(0.000679137 0.00117749 -1.90366e-22)
(7.10563e-06 8.36075e-05 0)
(0.000369999 0.000444514 2.18938e-21)
(0.00056799 8.7861e-05 8.36357e-22)
(0.000721707 0.00127097 -3.15544e-24)
(9.93291e-05 0.000171347 -1.12228e-21)
(0.000722125 0.0012393 3.0873e-22)
(0.00104288 0.000451444 7.63486e-23)
(7.13455e-05 0.000558891 -3.85284e-21)
(0.000826693 0.000119569 -1.48926e-21)
(0.000664479 0.00127088 6.62071e-24)
(0.000760922 0.00135405 -5.13097e-22)
(0.000731099 0.0012344 0)
(1.00668e-05 6.6616e-05 0)
(0.000573132 0.000529702 0)
(0.000721527 0.00123865 0)
(0.000360637 -0.000140514 -8.0018e-22)
(0.00056997 0.000989451 8.13693e-22)
(0.000218222 0.00118516 1.63425e-23)
(9.95272e-05 0.000164062 7.33412e-22)
(0.000345581 -9.95059e-05 -7.26712e-22)
(0.000399206 0.000717172 6.40702e-22)
(0.000726108 0.00123783 2.4847e-22)
(0.000722701 0.00123928 -1.04777e-22)
(0.000629341 0.00110991 0)
(0.000939047 5.61823e-05 0)
(0.000473476 -2.56551e-05 -1.14046e-21)
(0.000667907 0.00122073 0)
(0.000564447 0.00102942 -9.53144e-22)
(0.000703672 0.000322874 1.78467e-21)
(0.000417979 0.000725973 -5.16779e-22)
(0.00061593 0.00106278 -5.30593e-22)
(0.000460133 0.000356828 0)
(0.000720856 0.0012485 -6.48039e-23)
(0.000837724 0.000303258 -1.36914e-21)
(0.00021756 0.000464126 8.3241e-22)
(0.000192482 0.000170067 -4.67603e-21)
(0.00058582 0.00100004 -4.5602e-22)
(1.41771e-05 4.96887e-05 9.19531e-26)
(0.000868516 0.000132905 2.58742e-21)
(0.000525097 0.000344084 0)
(0.000782283 0.00136192 7.82788e-22)
(2.20005e-05 6.87629e-05 -1.82089e-21)
(0.000434985 0.00103156 -1.89576e-23)
(0.00041695 3.1794e-05 1.24287e-21)
(0.000405729 0.000741504 -6.4884e-22)
(0.000470818 0.00112794 0)
(0.000587465 0.00124188 1.34524e-22)
(0.000381253 0.000404709 0)
(0.000725137 0.00145515 0)
(0.00020019 0.000204737 -1.19215e-21)
(0.0001378 0.00107705 -1.0041e-21)
(8.46567e-06 4.81274e-05 1.65486e-22)
(0.000352479 -0.000187744 -8.12476e-22)
(0.000472444 0.00089534 -6.61578e-22)
(0.000556213 0.000962669 0)
(0.000700271 0.00126904 1.17899e-23)
(0.000597367 0.00057478 -7.3974e-22)
(0.00107296 0.000404215 7.0999e-23)
(0.000626416 0.00106909 -6.02225e-22)
(0.000170498 0.000314565 -2.26227e-21)
(0.000702259 0.00135631 -5.43559e-22)
(0.000835502 0.000273775 1.94538e-24)
(0.000770807 0.00134786 8.30396e-23)
(0.000191316 0.000212289 0)
(0.000584724 0.000994097 1.46257e-21)
(0.000715015 0.00124837 4.73062e-22)
(0.000704018 0.0012344 8.90516e-23)
(0.000553864 0.000995653 -7.98979e-22)
(0.000669475 0.00113544 2.00959e-22)
(0.000496867 3.68968e-05 -1.04364e-21)
(0.000381781 0.000501673 0)
(0.000625943 0.00105993 0)
(0.000179328 0.000887041 -1.85469e-21)
(0.000549984 0.000709512 -9.02791e-23)
(0.000990413 4.10557e-05 0)
(0.000586032 0.000998593 4.60225e-22)
(0.000179861 0.000380141 4.33868e-22)
(0.00035677 0.00018086 1.50186e-21)
(0.000703961 0.00121568 -5.08357e-22)
(0.000520207 0.000981817 -2.1273e-21)
(0.000570409 0.000966849 -8.26959e-22)
(0.00099436 3.76101e-05 4.44706e-23)
(0.000310727 0.00073066 -1.65279e-23)
(0.000575382 0.000978522 -5.07297e-24)
(0.000721529 0.00124402 2.06169e-22)
(0.000478741 6.65333e-05 -8.89948e-22)
(0.000596323 0.000847018 1.0622e-21)
(0.000714806 0.000240536 5.49593e-23)
(0.000969608 -0.000234385 1.09792e-21)
(1.39519e-05 5.24706e-05 9.64461e-26)
(0.000786164 -3.21449e-05 6.46608e-22)
(0.000625181 0.00111387 -9.47803e-22)
(0.00049306 0.000961638 -1.64215e-23)
(0.000715948 0.000865393 1.3623e-21)
(8.03231e-05 0.00085987 1.04694e-21)
(0.000600924 0.0010438 7.92501e-24)
(0.000544734 0.000567548 -8.56452e-22)
(0.000784729 0.000178526 8.28144e-22)
(0.000581972 0.000987714 0)
(0.000732411 0.00123366 7.21032e-22)
(0.000565608 0.00099336 -8.12027e-22)
(4.41072e-05 0.000299141 -1.46839e-21)
(0.000195078 0.000391628 -6.01391e-22)
(0.000573858 0.00101506 2.02148e-21)
(0.000574902 0.000993795 0)
(0.000346001 0.000113116 1.78467e-21)
(0.000566987 0.000993122 -1.64722e-21)
(0.00133185 0.000378352 5.31164e-23)
(0.000568678 0.000995815 -7.01767e-24)
(0.000577544 0.00101519 -9.90237e-22)
(0.000606643 0.00106439 -3.31496e-22)
(0.000710998 0.00029859 -1.04504e-21)
(0.000345955 0.00134355 0)
(0.000622632 0.00107889 -2.08615e-22)
(0.000570054 0.00100015 8.5714e-22)
(0.000604117 0.0010759 0)
(0.000575322 0.00101107 9.5973e-22)
(0.000570894 0.0010029 -3.48528e-24)
(0.000130087 0.000324018 -2.31897e-21)
(0.000573053 0.00100655 -9.2023e-22)
(0.000330754 9.74832e-05 -5.7326e-26)
(0.000421275 0.000764834 0)
(0.000233877 2.31051e-05 9.69442e-23)
(0.000404019 0.000733562 7.53775e-22)
(0.000761365 0.00134159 -2.95504e-22)
(0.000430777 0.000741859 2.25858e-22)
(0.000622382 0.00107499 -4.6519e-23)
(3.704e-05 0.00023956 6.62102e-26)
(0.000568424 0.0010123 0)
(0.000552628 0.000969649 8.11914e-22)
(0.000418049 0.000566737 -3.64679e-23)
(8.39863e-06 4.45832e-05 2.1025e-23)
(0.000561826 0.000585203 8.09997e-22)
(0.000398032 0.000673466 0)
(0.000222624 0.000469476 0)
(0.000570865 0.00098729 -3.85074e-22)
(0.000325539 0.000571208 9.09851e-22)
(0.000893674 9.2081e-05 7.67026e-22)
(0.000326943 7.39042e-05 0)
(0.000558327 0.000993435 -8.75768e-22)
(9.94546e-05 0.000111628 2.66086e-22)
(2.30284e-05 -1.2769e-06 0)
(0.000258451 0.000350553 2.56989e-21)
(0.00072132 0.00124306 -7.55765e-23)
(0.000466133 0.000938772 1.07975e-21)
(0.000558386 0.000972654 1.94907e-21)
(0.000721536 0.0012554 1.06267e-22)
(0.000583956 0.00100143 8.85566e-22)
(0.00071359 0.00122636 3.17926e-22)
(0.000428664 0.00081096 6.87965e-23)
(9.4003e-05 0.000102864 -3.64314e-22)
(0.000726463 0.00129128 7.28932e-23)
(1.37126e-05 0.000166635 2.88751e-22)
(1.47666e-05 -7.6569e-06 -5.4283e-22)
(0.000583415 0.000992602 -4.9485e-22)
(0.000802825 0.000750887 0)
(0.00055733 0.000967606 -9.9174e-22)
(0.00019334 0.000400574 6.72753e-22)
(0.000732845 0.00124195 3.10769e-22)
(0.000732876 0.00123179 1.98856e-22)
(0.000447907 0.000916433 2.20719e-21)
(0.000727107 0.000224259 -1.86968e-22)
(0.00070841 0.00124337 0)
(2.26166e-06 7.5022e-07 0)
(0.000765956 0.00050375 0)
(0.000481454 0.00034944 3.81983e-22)
(4.20307e-05 0.000503143 2.8612e-22)
(0.000320806 0.00106671 0)
(0.000576698 0.00101607 9.88134e-22)
(0.000703607 0.000710637 1.83433e-22)
(0.000876644 0.000123072 0)
(0.001244 0.000303594 0)
(0.000728517 0.00123584 0)
(0.00057505 0.00101637 5.0089e-24)
(0.000999767 0.000471892 0)
(0.000198939 0.000615273 0)
(6.95014e-06 4.11312e-05 -4.08475e-23)
(3.86067e-06 2.39547e-05 -3.5587e-22)
(0.000632733 0.00109527 1.37408e-22)
(0.000543831 0.000460098 -5.75875e-22)
(0.00073259 0.00123077 -3.89672e-22)
(0.000645402 0.00111356 0)
(0.000382792 0.000864878 -1.67419e-22)
(0.000732227 0.00123396 7.01278e-22)
(0.000508003 0.00123396 0)
(0.000648639 0.00115133 -6.18495e-22)
(0.000561232 0.000956511 2.82614e-22)
(0.000649597 0.00115735 5.89422e-22)
(0.000562123 0.000975076 -6.41137e-22)
(0.000253942 0.000555404 0)
(0.000404567 0.00073481 1.81856e-22)
(0.00100415 7.51036e-05 8.61304e-23)
(0.000915053 0.000317982 -2.6704e-21)
(0.000545683 0.000955159 0)
(0.000612637 0.00105803 -1.44944e-23)
(0.000960037 5.36116e-05 2.35084e-22)
(3.41952e-06 1.84744e-05 -3.18956e-26)
(0.000399288 0.000677098 -1.01115e-21)
(0.000730554 0.00122813 0)
(0.000373868 0.000698829 5.50039e-23)
(0.000797113 0.00136781 -3.82892e-22)
(0.000371992 0.000736967 0)
(0.000731599 0.00122905 1.97216e-22)
(0.000662676 0.0014562 -1.95288e-23)
(0.000615876 8.7195e-05 -1.26209e-21)
(0.00082348 7.83396e-05 -5.03167e-22)
(0.000347619 0.000464623 -1.73273e-21)
(0.000527696 0.0011787 9.01213e-23)
(0.000727475 0.0012247 8.65246e-22)
(0.000781612 0.00135531 -3.20751e-22)
(0.000838991 0.000557247 3.18117e-21)
(8.70216e-05 9.44876e-05 9.29976e-23)
(0.000576129 0.00101234 0)
(3.63367e-06 2.11317e-05 3.54725e-22)
(0.000267638 0.000884546 -2.16417e-24)
(0.000466887 -6.82794e-05 -7.18097e-22)
(5.80281e-07 2.30064e-05 0)
(0.000340701 -0.000234885 7.94341e-22)
(0.000193488 0.00121097 0)
(0.000724164 0.00122239 1.02825e-21)
(0.000438368 0.000352136 -9.82216e-25)
(0.000716352 0.00122629 3.75836e-22)
(0.000642124 0.00111403 2.80724e-22)
(0.000522191 0.000540871 1.33113e-24)
(0.00034873 0.000574566 -8.65632e-22)
(0.000771512 0.00135635 1.40046e-22)
(0.000729528 0.00122656 -8.30619e-22)
(0.000585424 0.000995968 4.73485e-22)
(0.000494193 0.000338258 -1.46262e-21)
(0.000878341 9.93855e-05 3.25281e-25)
(0.000106557 0.00012183 -1.63481e-22)
(0.00048649 0.000483974 7.56987e-22)
(0.000616113 0.00107648 8.45047e-22)
(0.000759916 0.00135612 2.29062e-22)
(0.000581403 0.000985261 2.1116e-24)
(3.25292e-06 1.59144e-05 -3.56158e-22)
(0.000807761 0.000173723 0)
(0.000926773 0.000112312 -3.32378e-21)
(0.00059697 0.00102192 -1.44182e-22)
(0.000318688 0.000541121 2.38032e-21)
(0.000656535 0.00114047 -9.2468e-22)
(0.000556352 0.000967581 0)
(0.00115567 0.000193191 -2.62142e-21)
(0.000571201 0.000848196 -2.4535e-22)
(0.000724144 0.00122875 1.14088e-21)
(0.00037828 0.000789849 -2.28525e-22)
(0.000178154 0.000424891 8.33678e-22)
(0.000554038 0.000954441 0)
(0.000648943 0.00114323 -4.25467e-22)
(0.000154961 0.000295716 0)
(0.000367696 0.00057032 -7.77818e-22)
(3.10475e-06 1.34506e-05 3.45467e-22)
(0.00044724 0.000905837 -9.34699e-22)
(0.000324483 0.000528612 -1.20285e-21)
(0.000205855 0.000568946 1.48369e-24)
(0.000329362 0.000551608 6.58924e-22)
(0.000462454 0.000870705 1.93518e-22)
(0.000841892 0.000257812 -1.05061e-21)
(0.000394151 6.59686e-05 -1.96977e-21)
(0.000249655 9.3106e-06 -7.73362e-22)
(0.000572393 0.000346412 -2.46999e-22)
(0.000576633 0.00101372 1.95817e-21)
(0.00033321 0.000573778 0)
(0.00046341 -0.000367054 0)
(0.000391004 0.000660881 5.05066e-22)
(0.000185499 -1.55624e-06 5.1562e-22)
(0.000204327 3.78089e-06 0)
(0.000573594 0.00100805 -9.4358e-22)
(0.000726566 0.00122364 -1.17485e-22)
(0.000372055 0.000319127 -1.03878e-21)
(0.000194579 0.000726464 0)
(-0.000272556 -5.41001e-06 0)
(0.000261312 0.000278003 2.14134e-21)
(0.000194155 0.000606652 -6.62764e-22)
(0.00015906 1.7068e-05 0)
(0.000335912 0.000588348 0)
(0.000728487 0.00122562 8.41852e-22)
(0.000982285 4.63916e-05 -2.62e-22)
(0.00076058 8.11579e-05 1.60538e-21)
(-0.000201672 0.0011588 0)
(0.000240455 0.000459127 5.70359e-21)
(0.000516274 0.00109855 -5.244e-23)
(0.00055091 0.000963685 -1.42066e-21)
(0.000676903 0.00111962 -2.3235e-21)
(0.000358521 0.00044981 1.68876e-25)
(0.000223771 0.000490124 -6.96185e-22)
(0.000649381 0.00114388 -7.94363e-22)
(0.00023606 6.00441e-05 3.37753e-22)
(0.000563882 0.00101722 9.50941e-23)
(0.000330149 0.000681304 1.58629e-23)
(0.000578458 0.00133229 -3.39141e-23)
(0.000607351 0.00107039 4.16786e-22)
(0.00101076 0.000208766 8.15657e-22)
(0.000312483 0.000536049 9.23795e-25)
(0.000587828 0.00127247 0)
(0.000966742 3.77543e-05 6.30328e-22)
(0.000716969 0.00122478 4.4156e-22)
(0.000174389 2.37375e-05 1.53129e-22)
(0.000350421 2.0511e-05 -7.87351e-22)
(0.000376129 0.000616107 3.36488e-22)
(8.55525e-05 3.98349e-05 -1.76635e-22)
(0.000580093 0.000563617 7.61134e-22)
(0.000353865 0.000544273 2.22075e-21)
(0.000629769 0.00110607 -4.2463e-24)
(0.000582491 0.000990107 -1.01686e-21)
(-0.000190547 0.00017557 -1.34449e-22)
(0.000723497 0.00122163 -1.04591e-21)
(0.00122354 0.000262518 -5.45547e-22)
(5.02436e-05 0.000141142 -4.95011e-22)
(0.000966356 -4.73937e-06 1.07377e-21)
(0.000617507 0.00107598 4.94316e-22)
(0.00038697 0.000642095 0)
(0.00106691 0.000195714 -9.68524e-22)
(0.000372581 0.000309084 -1.64221e-21)
(0.000376234 0.000671416 -1.28434e-22)
(0.000146028 0.00101266 0)
(0.000530473 6.74164e-05 1.06978e-21)
(0.000628523 0.00106749 3.35411e-22)
(0.000732529 0.000483461 3.18489e-21)
(0.000635201 0.0010981 3.59614e-22)
(-0.000345895 0.000166052 2.69279e-22)
(0.000571434 0.00100409 8.94654e-22)
(0.000548537 0.00096726 -8.63435e-22)
(0.000619892 0.00105714 0)
(0.000939535 2.09581e-05 0)
(0.000562254 0.000989558 -5.52267e-24)
(0.00022457 0.00036177 -7.57129e-22)
(0.000657946 0.000112239 -5.75923e-23)
(0.000434477 0.000512597 -1.42173e-21)
(0.000719337 0.00134661 9.11137e-24)
(0.000601434 0.00103217 0)
(0.000561158 0.000988587 7.69931e-22)
(9.57432e-05 0.00018266 -6.4123e-22)
(0.000377291 0.000737218 -4.37368e-23)
(0.000448304 0.000774057 4.53942e-22)
(0.00054975 0.000967158 7.51068e-24)
(0.00016067 0.000263319 -9.16406e-22)
(-3.51673e-06 0.000287898 1.12803e-21)
(2.11547e-05 -1.12204e-06 0)
(0.000818623 0.000573495 -1.71763e-24)
(0.000648099 0.00114315 6.14572e-24)
(6.1426e-07 9.61137e-06 -3.44943e-22)
(0.00157093 0.000347458 6.97082e-22)
(0.000655812 0.000109322 0)
(0.00064149 0.00111231 2.33855e-22)
(0.000594798 0.00101464 -4.29473e-22)
(0.0002172 4.74795e-05 -2.50995e-22)
(2.48528e-05 1.32698e-06 8.73617e-22)
(0.000316873 0.00114946 -1.09659e-23)
(0.00037115 0.000655498 1.00579e-21)
(0.000678337 0.00113982 2.44579e-22)
(0.000722875 0.00122141 9.63507e-22)
(0.000765539 0.00137847 1.06829e-21)
(0.000217113 -1.05601e-05 -7.16351e-22)
(0.000187787 0.000610604 -4.67207e-22)
(0.00116478 0.000128791 -4.0889e-22)
(0.000650128 0.00114528 -7.55311e-22)
(0.000475606 0.000943553 -2.21407e-21)
(0.000513459 0.000257378 -3.91998e-22)
(0.000508377 0.00104627 0)
(0.000503094 2.70657e-05 1.16791e-21)
(2.66493e-06 6.6685e-06 -3.10625e-22)
(0.000740977 0.00138465 2.68075e-22)
(0.000725423 0.00122298 -7.79956e-22)
(0.000573962 0.00100958 -9.51377e-22)
(0.000914837 0.000276193 0)
(0.000215847 0.000560457 -5.2598e-22)
(2.44116e-05 8.51206e-07 1.21497e-23)
(0.00063422 0.00110847 -2.20575e-22)
(0.000517828 0.00162537 -2.08426e-23)
(0.000391043 0.00135695 0)
(0.000336062 0.00048114 -2.05357e-25)
(0.000466258 0.00122289 -4.30995e-23)
(0.000825081 0.000311047 2.49509e-22)
(0.000513752 0.000569907 2.75012e-25)
(8.52504e-06 9.30012e-05 -4.34254e-23)
(6.24652e-05 4.25159e-05 0)
(0.000716657 0.00122554 8.24966e-22)
(5.29257e-06 3.68266e-05 -1.35368e-24)
(0.00177128 0.000581495 -1.53706e-21)
(9.17133e-05 0.000708602 0)
(0.000151511 0.000266269 -1.58194e-21)
(0.000415703 0.00071302 -3.20876e-21)
(0.000647189 0.0011403 0)
(5.37412e-05 4.33539e-05 1.27416e-21)
(0.000636896 0.00108604 0)
(0.000228456 0.000263457 -1.06735e-21)
(0.000974137 0.000196073 -7.92989e-22)
(0.000315884 -6.08255e-05 -1.28965e-21)
(0.000652955 0.00121929 -7.78276e-22)
(0.00111577 0.000180308 0)
(0.000479882 0.000259451 0)
(0.00011076 0.000931221 -7.14077e-22)
(0.000684302 -0.000218427 -2.57938e-21)
(0.000683956 0.00129078 2.64466e-22)
(0.000633333 0.0011043 -7.47169e-24)
(0.000604998 0.00106987 0)
(0.000774536 0.00049296 0)
(0.00116688 0.000133608 9.11074e-22)
(0.00060937 0.000269144 -1.13479e-22)
(0.000576289 0.000981535 2.28379e-22)
(0.000750126 0.0012466 0)
(0.000330747 0.000291459 0)
(0.00043114 0.00102335 -1.40732e-21)
(7.97235e-05 3.55634e-05 -6.40627e-22)
(0.000525061 0.000416044 -8.75267e-22)
(0.000669667 0.00121187 -7.38669e-23)
(0.000514904 0.0013038 -7.85243e-23)
(0.000556385 0.0014215 -1.20403e-23)
(0.000554613 0.000421423 6.25732e-22)
(0.000615697 0.00143006 -4.41133e-24)
(0.000439532 0.000470925 -1.16942e-21)
(0.000346641 0.000514262 1.83817e-21)
(1.49008e-05 -3.95846e-06 0)
(0.000935204 0.000721927 -7.87493e-22)
(0.00032962 0.000573978 -2.5279e-22)
(0.000632161 0.00111298 2.08011e-22)
(0.000145479 -2.35256e-05 0)
(7.86494e-06 8.06599e-05 0)
(0.000115863 0.000449321 1.47268e-21)
(0.000575155 0.00102542 3.37221e-22)
(0.000546077 0.00107945 0)
(6.48175e-05 2.80232e-05 -1.11895e-21)
(0.000170556 0.000631935 -4.34053e-22)
(0.000582486 0.000980662 5.39332e-22)
(0.0012761 0.000238923 -8.89786e-22)
(0.000387523 0.000381077 0)
(0.000843506 0.000168619 -1.88334e-21)
(0.000193788 0.000234224 -1.15321e-21)
(0.000952791 0.000650007 1.14136e-21)
(0.000772246 0.00046249 -1.58186e-22)
(0.000395416 0.000667045 -5.75063e-24)
(0.000429695 0.00108266 1.39631e-21)
(0.000268382 0.000939191 -2.4602e-23)
(0.000567694 0.00098577 -6.90545e-24)
(0.000547606 0.00098466 -1.45252e-23)
(0.000239138 0.00135542 -1.10182e-22)
(9.24158e-05 4.41721e-05 8.28037e-22)
(0.000570006 0.00102902 -3.12899e-22)
(0.00023737 0.000332462 -1.33256e-21)
(0.000956119 3.9346e-05 -5.10195e-22)
(0.0003462 0.00125871 -1.15252e-23)
(0.000265348 0.000993412 -2.50903e-24)
(0.000459429 0.000323309 -8.36396e-22)
(1.7022e-05 1.98173e-06 -1.83374e-22)
(0.000565703 0.000960782 -5.46931e-22)
(0.000148949 -1.16058e-05 -6.75457e-22)
(0.000634549 0.00110075 9.22761e-23)
(-0.000369959 0.00114598 -9.60637e-22)
(0.000570959 0.000980446 3.89647e-22)
(0.000634938 0.00109752 2.56857e-22)
(0.000633884 0.00110215 -9.26882e-23)
(0.000227998 0.000119242 -1.25298e-21)
(0.000335319 0.000584623 4.64516e-22)
(0.000285023 0.000543337 0)
(0.000252518 3.11618e-05 4.7089e-22)
(0.000956579 3.28141e-05 0)
(0.000645821 0.00113906 -5.39252e-22)
(0.000393826 0.000665226 4.8397e-22)
(0.000778128 0.000598476 9.23698e-22)
(0.000379861 0.000668419 -8.6724e-22)
(0.000220957 0.000633189 1.16227e-21)
(0.00110442 2.91634e-07 0)
(0.000311555 0.000194791 0)
(0.0010804 0.000484473 -6.31242e-23)
(0.000417777 0.000930884 1.33021e-21)
(0.000510244 0.000799526 -3.05846e-21)
(0.000643994 0.00110465 -2.69145e-22)
(0.000723127 0.00122115 -9.43812e-22)
(0.000768477 0.000473153 8.3926e-22)
(0.000500138 0.00101553 0)
(0.000666455 0.00113158 0)
(0.000328741 0.000273507 -8.75224e-22)
(0.000233883 0.00071135 -6.93459e-22)
(0.000817586 0.000348319 1.6276e-21)
(1.39533e-05 -6.30317e-06 2.16627e-22)
(7.01815e-05 3.28027e-05 6.17561e-22)
(0.000549034 0.000954923 -7.05626e-24)
(0.000132648 -2.40973e-05 3.90493e-22)
(0.000411458 0.00034127 7.94106e-22)
(-0.00013467 0.000153052 0)
(1.52958e-05 0.000265453 9.63476e-23)
(5.98693e-05 4.19928e-05 0)
(0.000663513 0.0011274 0)
(0.000627625 0.000484949 3.18077e-22)
(0.00057039 0.000976547 -3.7465e-22)
(0.00019731 0.000173902 -2.67009e-21)
(0.000662864 0.001126 9.26424e-22)
(0.000671137 0.00124261 -4.8219e-23)
(0.000606495 0.000960704 5.74878e-22)
(0.000703934 0.000368241 0)
(0.000686971 0.00126914 9.78242e-23)
(0.000554155 0.000960881 0)
(0.000758117 0.00135823 -3.24839e-22)
(0.000571698 0.00100519 1.83966e-21)
(9.98718e-05 0.00026484 1.31915e-24)
(0.00067818 0.00122114 1.03602e-21)
(0.000948805 0.000117442 0)
(3.75737e-05 0.000389805 -3.5322e-22)
(0.000510392 0.000561002 4.40513e-22)
(0.000552962 0.000957506 9.82354e-22)
(0.000363062 0.000970301 -5.18387e-21)
(-0.000495678 0.000790323 1.81083e-22)
(3.75747e-05 5.9995e-05 -1.31515e-21)
(0.000632005 0.0010935 -1.49084e-22)
(0.000469227 0.000955181 2.87971e-21)
(0.000698714 0.00123532 -2.3715e-22)
(0.000649899 0.00121283 -1.02765e-21)
(0.000561101 0.000982984 7.55184e-22)
(0.00097351 7.35315e-05 -6.51013e-22)
(0.000634498 0.0010997 1.00583e-22)
(0.00021274 0.000137976 2.05087e-21)
(0.000671916 0.00118432 3.61467e-22)
(0.000383322 0.0006483 1.23079e-21)
(0.000173748 0.000587477 9.0973e-22)
(0.000688178 0.00122625 1.0106e-21)
(0.000494562 0.000874561 -3.04369e-23)
(0.000601952 0.00107257 6.4464e-23)
(0.000956267 6.65166e-05 0)
(3.2476e-05 0.00052231 -3.31692e-22)
(0.000315294 0.000727254 1.05194e-21)
(0.000627388 0.00106036 5.11335e-24)
(0.000628336 0.000359691 -3.6312e-21)
(0.00113202 9.80881e-05 0)
(0.000677839 0.00127177 -2.57478e-22)
(0.00017476 -0.000125213 1.01567e-21)
(0.000939251 9.29452e-05 0)
(0.000709585 0.00123222 -3.84137e-22)
(0.00100854 -0.000133052 -1.79789e-21)
(9.94475e-05 4.92165e-05 -3.26434e-22)
(0.00110124 0.000343831 1.33236e-25)
(4.0702e-05 0.000433788 1.13527e-22)
(0.00069191 0.00122754 0)
(0.000974237 0.00033051 6.24103e-22)
(0.000700934 0.000243512 0)
(0.000325776 0.000469142 0)
(0.00043792 0.000343645 0)
(9.25039e-05 -3.83227e-05 -1.5311e-21)
(0.000644679 0.00113753 -5.83489e-22)
(0.00128996 0.000534392 -2.8585e-21)
(0.000789733 0.00136486 2.93516e-22)
(0.000306817 0.00017088 -3.66113e-22)
(0.000510582 0.00102312 -9.81317e-22)
(0.000116483 -4.21004e-05 0)
(0.00106087 0.000184723 4.80862e-22)
(0.000834497 0.000543005 2.26748e-22)
(3.2747e-05 5.05466e-05 7.31605e-22)
(0.000715554 0.00122428 2.22834e-22)
(0.000296375 0.00119305 0)
(0.000451236 0.00145501 3.81339e-23)
(0.000599425 0.00123886 -9.02244e-22)
(0.000693042 0.00122684 9.79576e-22)
(0.000634883 0.00109323 0)
(0.000324647 0.000566556 7.78107e-22)
(1.85436e-05 0.00031875 4.31932e-22)
(0.000173674 -0.000106693 1.28248e-21)
(0.000561064 0.000985502 -9.26014e-22)
(0.000866507 0.00111694 6.58749e-22)
(0.000642933 0.000718906 -2.25923e-22)
(0.000715725 0.00122484 5.44914e-22)
(0.000762137 0.00134954 -9.65903e-22)
(9.59142e-05 -4.69181e-05 1.51563e-21)
(0.000644562 0.00113459 -2.50138e-24)
(0.000372017 0.000671531 0)
(0.000654323 0.000384348 4.31195e-22)
(5.63418e-05 4.9574e-05 0)
(0.00101613 -1.17794e-05 5.8586e-22)
(0.000335272 0.000565918 8.91637e-22)
(0.000229952 0.000418143 8.37414e-23)
(0.00051448 9.64971e-05 -1.7002e-23)
(0.000371215 0.000513205 -2.64241e-21)
(0.00135226 0.000256851 1.84366e-22)
(0.000979669 0.000189809 -7.34924e-23)
(0.000513811 0.000558213 2.29287e-21)
(0.000498833 0.00111687 0)
(0.000380217 0.000625815 -3.48326e-22)
(0.00033197 0.000922562 0)
(0.000322489 0.00117738 7.968e-22)
(0.000799357 0.00135014 6.62931e-22)
(0.000790385 0.000602798 9.15802e-22)
(0.000547569 0.00130536 -4.43449e-23)
(0.000422487 0.000322976 0)
(0.0001907 0.00017606 0)
(0.000146896 -0.000100378 -1.25318e-22)
(0.000177144 0.000365626 4.73304e-22)
(0.000267516 0.000616455 -2.54218e-22)
(0.000170702 0.000634941 0)
(0.000620885 0.00121346 -1.25572e-23)
(0.000549032 0.000968649 0)
(0.000557253 0.00099925 -7.50653e-22)
(0.000380253 0.000694103 3.81877e-22)
(0.000204803 0.00056655 -6.19759e-22)
(0.0006421 0.0011324 -6.74819e-22)
(0.000411351 0.00085453 1.08436e-21)
(0.00093941 9.59543e-05 8.30585e-22)
(0.000194405 4.17245e-05 1.4146e-22)
(2.11044e-05 1.85552e-06 -3.28269e-22)
(0.000119051 -0.000186619 0)
(0.000319394 0.000552773 7.89255e-22)
(6.32341e-05 0.000566203 1.2979e-21)
(0.000417867 8.70959e-05 1.77793e-21)
(0.00044247 0.000298674 0)
(0.000168848 0.000327622 2.12854e-21)
(0.000662553 0.00112378 -1.16048e-22)
(0.000387732 0.000654602 1.69267e-21)
(0.000595903 0.00122061 2.57787e-24)
(0.000335694 0.000199289 0)
(0.000218345 1.29561e-05 1.76893e-22)
(0.000576266 0.000388465 0)
(0.000632985 0.00110783 -1.52053e-22)
(0.000194117 4.7435e-05 0)
(0.000433749 0.000539374 1.48893e-22)
(0.00102888 0.000375251 7.17244e-23)
(0.000576403 0.000985287 -4.50819e-22)
(0.000718469 0.00124643 6.30037e-23)
(0.000379761 0.000570755 -9.09075e-22)
(0.000485609 0.000977523 7.4415e-22)
(0.000332491 0.000578139 -6.21583e-22)
(0.000223482 0.000561729 -8.96966e-22)
(0.000172872 3.88238e-06 0)
(9.5841e-05 0.000652952 1.204e-21)
(0.000555787 0.00104888 0)
(0.00086116 0.000282135 1.33217e-21)
(0.000327386 0.00048864 1.07053e-21)
(0.000722171 0.00122317 -9.95489e-22)
(2.23514e-05 3.12501e-05 9.16706e-23)
(0.000405421 0.000737488 -1.77789e-22)
(0.000128746 -4.09006e-05 -7.47393e-23)
(0.000363251 0.000659186 -1.12184e-22)
(0.000775558 0.000570263 0)
(0.000980008 -5.05049e-05 -7.83946e-23)
(0.0007179 0.00124723 -1.99029e-22)
(0.00087177 -0.000359582 9.7376e-24)
(0.000761711 0.000102381 1.68532e-21)
(0.00120277 0.000633406 -1.66874e-21)
(0.000551641 0.000981011 0)
(0.000332304 0.000595453 -8.35954e-22)
(0.000722456 0.00122472 -1.13925e-21)
(0.000381527 0.000646242 5.87602e-24)
(0.000520033 0.000679183 9.67934e-22)
(5.61039e-05 0.000560111 3.98687e-21)
(0.000964373 0.000274793 2.73515e-22)
(0.000194077 0.000246877 0)
(0.000604586 0.000955903 -9.46835e-22)
(0.000285159 0.000137462 0)
(0.000208203 0.000474145 4.67623e-22)
(0.000663633 0.00112692 2.01963e-22)
(0.000988555 5.82352e-05 -3.63074e-22)
(0.000438773 0.000963883 1.75327e-21)
(0.000645949 0.00111489 1.85086e-22)
(0.000393448 -7.7194e-05 -6.36841e-22)
(0.000165647 9.04393e-05 3.95258e-22)
(3.61521e-06 0.000213229 -1.11236e-21)
(4.36524e-06 0.00105346 1.09151e-21)
(0.000148319 4.6371e-07 -6.32208e-22)
(0.000385928 0.000651795 -5.94111e-22)
(0.000145341 7.66477e-05 -3.67286e-22)
(0.000614556 0.00108823 -4.62086e-23)
(0.000297559 0.000358866 -5.0697e-22)
(0.000546964 0.00120962 0)
(0.000245573 -6.18356e-05 -1.5159e-21)
(0.000862449 -1.62643e-05 3.7949e-22)
(0.000570044 0.00100153 1.75906e-21)
(0.000174349 5.44326e-05 -1.83461e-21)
(0.000666513 0.00121642 -1.02784e-21)
(0.00107788 4.03524e-06 -7.50137e-22)
(0.000284939 0.000161456 1.83017e-22)
(0.000521985 9.57684e-05 0)
(0.000637191 0.00109807 8.76527e-22)
(0.000420167 0.000737933 2.40051e-22)
(0.000180719 0.000649798 3.23796e-22)
(0.000820208 0.000533433 0)
(0.000734786 0.000588444 2.29045e-21)
(9.82361e-05 -1.25654e-05 -6.93867e-22)
(0.00139493 0.000316987 -2.12241e-22)
(0.000539969 1.58362e-05 -1.2089e-21)
(0.0012068 0.000238377 4.25162e-22)
(0.000698029 0.00123427 0)
(0.000281522 0.000559388 0)
(0.000662416 0.00116161 7.13559e-23)
(0.000648515 0.00114325 4.56984e-22)
(0.000666885 0.00124054 -1.79969e-22)
(0.000839667 0.00141084 8.99181e-22)
(0.000427446 0.00128932 9.68641e-22)
(0.000646509 0.00033721 5.59659e-22)
(0.000558864 0.00111878 0)
(0.000612947 0.00115166 -2.08676e-23)
(0.000403674 3.35492e-05 4.3776e-22)
(0.000759956 0.000523462 -1.60808e-22)
(0.000179485 6.68392e-05 1.91884e-26)
(0.000235336 -0.000196548 1.34089e-21)
(0.000243129 0.000627981 4.63085e-22)
(0.000171712 0.00042238 7.95175e-22)
(0.000296428 0.000465714 1.92745e-21)
(0.000339668 0.000552886 -1.22505e-21)
(0.00031251 0.000573102 -4.23565e-22)
(0.000182515 0.000645745 -7.68059e-22)
(0.000100814 -1.80295e-05 3.51647e-25)
(4.4886e-05 0.000614233 -2.14059e-21)
(0.000479907 0.00121736 0)
(0.000624365 0.0011902 0)
(0.000700504 0.000547759 0)
(0.00057413 0.000452163 1.63363e-21)
(0.000710818 0.0012404 3.47969e-22)
(0.000803391 0.000540114 2.49481e-21)
(0.00105192 0.000336298 0)
(0.000303633 0.000337405 2.54809e-22)
(0.000165224 0.000612089 5.84696e-22)
(0.000568741 0.000973028 7.3114e-22)
(4.48445e-05 3.45687e-05 0)
(0.000911011 3.31208e-05 -1.14993e-21)
(0.000133346 0.000401021 6.56143e-22)
(0.000803631 0.000546336 -3.139e-22)
(0.000334261 0.000538643 2.90859e-22)
(0.000353904 0.0003749 1.28158e-21)
(0.00062898 0.0011547 0)
(6.26346e-05 2.77834e-05 1.73159e-22)
(0.000142439 -8.28611e-05 -1.56115e-22)
(0.000731955 0.00136896 2.71899e-22)
(0.000664372 0.00115486 -4.44924e-22)
(0.000576797 0.000996986 3.35629e-22)
(0.000664963 0.00116948 3.48329e-22)
(0.000975028 -5.03728e-07 -2.22919e-22)
(0.000220475 0.000631301 0)
(0.000389556 6.31766e-05 -1.45372e-21)
(0.00072222 0.00125133 0)
(0.000995558 0.000115774 0)
(0.00064506 0.00115716 -1.29467e-22)
(0.000377401 0.000901043 -1.09954e-21)
(0.000759056 0.00138706 -4.87094e-23)
(6.28042e-07 7.70001e-06 -3.43991e-22)
(0.000310704 0.000478353 -1.3561e-21)
(0.000100282 -2.89344e-06 -1.85351e-21)
(0.000660998 0.00116717 1.29398e-22)
(0.000176453 0.000483789 -4.8712e-22)
(0.000186233 0.000532408 6.71313e-22)
(0.000740083 3.74414e-05 1.21074e-21)
(0.000499807 0.001103 0)
(0.00101545 0.000311655 4.23051e-22)
(0.000713016 0.00103162 8.25632e-23)
(0.00031536 0.00051137 9.29584e-22)
(0.000114918 -5.04424e-05 -2.14567e-23)
(0.00053047 3.89583e-05 1.00204e-24)
(0.00034031 0.000387828 -2.46584e-21)
(0.000319583 0.000453245 1.10345e-21)
(9.95616e-05 6.04999e-06 -8.50918e-22)
(0.000246674 0.000368877 -2.3545e-21)
(0.000738886 0.00137874 -1.35333e-21)
(0.000644883 0.0011377 1.14876e-21)
(0.000342791 0.000527366 -8.86736e-22)
(0.000648734 0.0011431 -4.59066e-22)
(0.000704795 0.000214609 -5.26457e-22)
(0.000271246 -0.00016246 -2.29567e-21)
(0.000336112 0.000515744 -1.68875e-21)
(0.00066042 0.00112294 8.78724e-22)
(0.00123078 0.000174129 -8.03178e-23)
(0.000715697 0.00122635 3.55486e-22)
(0.000177948 0.000135182 -8.69681e-22)
(0.00056809 0.000994031 5.03384e-22)
(0.000666744 0.0011673 -1.11663e-22)
(0.000596972 0.00111545 -1.15589e-23)