/*--------------------------------*- C++ -*----------------------------------*\
  =========                 |
  \\      /  F ield         | OpenFOAM: The Open Source CFD Toolbox
   \\    /   O peration     | Website:  https://openfoam.org
    \\  /    A nd           | Version:  7
     \\/     M anipulation  |
\*---------------------------------------------------------------------------*/
FoamFile
{
    version     2.0;
    format      ascii;
    class       surfaceScalarField;
    location    "22.5";
    object      phi;
}
// * * * * * * * * * * * * * * * * * * * * * * * * * * * * * * * * * * * * * //

dimensions      [0 3 -1 0 0 0 0];

internalField   nonuniform List<scalar> 
1111
(
6.04396e-09
1.34021e-08
-1.53519e-08
-4.09417e-09
6.19424e-09
-1.15045e-08
1.13542e-08
-1.44954e-08
4.43973e-09
9.78632e-09
2.69404e-10
1.90067e-10
-2.19003e-10
-1.39743e-08
1.40032e-08
-1.38926e-08
1.37037e-08
3.78877e-10
-1.3571e-09
1.48459e-08
1.93976e-09
-4.02684e-09
9.5225e-09
-1.12789e-08
5.78323e-09
-6.52222e-09
-1.24948e-08
1.24543e-08
6.56273e-09
-5.11776e-08
-2.54693e-08
7.66469e-08
-8.06655e-09
7.44938e-09
6.81141e-09
3.74299e-09
3.65779e-10
-3.81609e-09
-2.92682e-10
1.57575e-08
-1.58165e-08
-2.25689e-08
2.26278e-08
-9.64151e-09
-8.28906e-09
8.95813e-09
8.97243e-09
-3.47552e-08
1.71797e-08
-3.18142e-08
4.93897e-08
9.58657e-09
-1.8658e-09
-1.4243e-08
-3.46118e-09
3.54549e-09
-3.53017e-09
3.44586e-09
-3.7081e-09
1.30597e-08
1.99416e-09
-1.13457e-08
8.8883e-09
-2.08745e-09
-1.50278e-08
8.22699e-09
3.86842e-08
-3.16763e-08
-7.00782e-09
-1.9114e-08
-2.06765e-10
1.76631e-08
1.65776e-09
-3.51895e-10
3.79259e-09
-1.80161e-08
1.45754e-08
-6.13066e-08
-3.92637e-09
6.52329e-08
2.07339e-10
-1.39579e-09
-4.11344e-10
1.59979e-09
-1.00079e-09
-1.32437e-08
-2.5758e-10
-3.65886e-10
3.54908e-10
2.68559e-10
-9.93861e-09
-8.04975e-09
1.22662e-08
5.72211e-09
8.61923e-10
-2.21705e-09
-8.51807e-09
9.87319e-09
7.677e-09
1.09167e-09
-8.42913e-09
-3.39541e-10
-2.72737e-09
-7.75839e-09
1.06383e-08
-1.52523e-10
1.12289e-08
-2.31603e-10
-2.10904e-09
-1.11512e-09
1.07988e-09
1.39062e-10
-1.03827e-10
-4.2989e-10
9.84265e-10
6.04075e-10
-1.15845e-09
-7.0248e-10
-4.71284e-11
7.46874e-10
2.73461e-12
4.12001e-11
-1.15388e-09
8.47432e-11
1.02793e-09
-2.30936e-11
-1.05082e-09
5.83843e-10
-1.80664e-08
-1.63145e-09
-6.10876e-10
7.26717e-11
-1.64276e-10
1.3278e-08
-1.33029e-08
3.81752e-09
-4.89912e-10
7.01593e-10
4.76332e-10
-6.88014e-10
-8.44927e-10
-2.67188e-09
2.04023e-09
1.47658e-09
-1.97819e-09
8.50357e-09
-1.05522e-08
-4.71052e-10
-2.34823e-10
9.50002e-11
-8.7963e-09
1.00002e-08
-9.27043e-09
1.16447e-08
-1.6664e-08
5.15977e-09
-1.40533e-10
1.19411e-10
-2.51983e-10
-3.38481e-10
3.21176e-10
9.82303e-10
-2.23598e-10
-5.98954e-08
7.44002e-08
-1.45048e-08
1.22475e-09
-4.31941e-10
-1.42813e-09
6.35317e-10
9.09205e-10
1.02873e-08
-1.36234e-08
2.42694e-09
-2.76399e-10
6.54467e-09
-7.88519e-09
1.61692e-09
-6.3401e-09
5.83987e-09
5.40007e-09
-4.89983e-09
-6.82008e-09
-2.46317e-09
2.29751e-09
6.98574e-09
-2.87218e-10
-9.08949e-08
9.13198e-08
-1.37718e-10
-2.46661e-10
-8.9744e-08
9.01369e-08
-1.46215e-10
8.30632e-08
-1.51102e-09
1.20563e-10
-8.16727e-08
-3.32467e-09
5.81708e-11
8.98322e-10
9.77441e-10
-6.51013e-10
4.12837e-09
-1.92753e-09
3.25114e-09
-5.45198e-09
-1.20137e-09
1.09061e-09
-1.49975e-08
6.5679e-09
9.00603e-09
1.04356e-09
-9.7041e-09
-3.45487e-10
-6.21328e-09
1.25934e-08
1.54809e-09
-7.92819e-09
1.41344e-08
-3.83136e-09
3.14831e-09
-1.34513e-08
1.53674e-08
1.65945e-09
-1.59808e-09
-8.31111e-11
-2.00193e-08
-7.68541e-09
2.77878e-08
1.34679e-08
-8.12984e-09
-2.31192e-09
7.50421e-09
-1.14056e-08
-1.73112e-10
3.45942e-10
-1.60095e-09
-3.74119e-08
-2.24835e-08
7.8468e-09
-1.43344e-10
3.94129e-09
-6.74321e-09
1.05645e-08
6.17885e-09
-7.53657e-10
4.40007e-10
6.10831e-10
-2.97181e-10
5.98531e-09
-4.55177e-09
3.50709e-09
-4.94063e-09
-7.33212e-10
-7.60635e-10
3.39971e-10
8.94961e-10
-8.57346e-10
-2.58909e-10
-1.28474e-09
1.11376e-09
-1.72135e-08
2.42661e-09
1.4271e-09
1.33598e-08
3.39865e-10
-8.86537e-10
-2.06985e-10
-3.58077e-09
-1.4637e-08
1.00425e-09
5.6607e-09
1.1574e-08
-5.24686e-09
-1.19879e-08
1.63425e-08
5.58655e-10
-1.58182e-08
-1.08299e-09
-8.41207e-10
6.04328e-10
6.76886e-10
-1.11827e-09
6.13101e-10
5.05167e-10
-6.96156e-09
-3.88296e-09
4.50442e-09
-4.75133e-10
6.75155e-10
-2.00023e-10
1.32506e-09
-1.48444e-08
-6.38892e-10
8.52736e-09
-9.86665e-09
-1.23542e-09
-1.37718e-09
1.24137e-08
4.40444e-09
-4.1781e-09
-1.26401e-08
3.55522e-10
6.88901e-09
-7.56313e-09
6.514e-09
-2.05442e-09
-8.26983e-09
7.6355e-09
2.68875e-09
-1.79646e-09
5.99576e-10
-1.34401e-08
-2.97304e-10
-1.77828e-10
-6.42364e-10
1.38082e-09
-7.55854e-09
8.16769e-10
1.71321e-08
-1.60634e-09
-1.51803e-08
1.63363e-08
-1.15596e-09
1.17631e-08
1.39526e-08
-1.55538e-08
-1.01619e-08
-9.56586e-10
1.57928e-09
-6.22696e-10
1.74116e-09
-2.27666e-09
5.35507e-10
3.12159e-09
-4.64654e-09
1.52496e-09
2.12215e-09
-1.78662e-09
-3.35526e-10
-1.24001e-08
1.90503e-10
1.22096e-08
2.89159e-09
-7.69445e-10
8.80716e-09
-1.49504e-08
6.35296e-09
-7.27172e-09
1.29779e-10
4.07666e-09
-4.6345e-10
-3.25737e-09
3.38715e-09
-8.00632e-09
9.39771e-09
-1.39139e-09
-9.94476e-10
4.04675e-09
1.07609e-09
1.69288e-08
-1.45143e-08
-1.50529e-09
-5.23865e-09
5.0635e-09
-1.75237e-09
-2.8143e-10
7.1444e-09
-7.10406e-09
-4.03371e-11
7.08339e-09
4.30199e-09
3.6398e-10
-1.55168e-08
1.02151e-08
1.70647e-08
5.66972e-09
8.30267e-09
8.18152e-09
-6.70748e-09
5.71712e-10
-1.29718e-08
1.56219e-09
-2.56169e-10
-1.24934e-08
3.82365e-09
-4.36497e-10
1.43636e-08
-1.38049e-08
-6.56615e-11
-1.19285e-09
-1.34926e-08
7.00341e-09
9.89519e-10
-6.54117e-11
-8.95665e-09
5.39788e-09
-3.17595e-08
-1.25441e-08
-2.22778e-09
1.27932e-09
1.35681e-08
1.10168e-08
-1.06974e-08
-1.38875e-08
1.68511e-08
-3.10763e-09
-1.37435e-08
1.82787e-09
3.79533e-09
-1.53867e-09
-1.02159e-09
-1.09344e-09
1.4295e-09
6.85539e-10
-3.30127e-10
4.66512e-10
4.74447e-10
6.20064e-08
-6.2003e-08
-3.3872e-12
6.20809e-08
-6.22852e-08
2.04364e-10
7.74268e-10
6.48052e-08
-6.56363e-08
8.31105e-10
6.41965e-08
6.08689e-10
-2.78823e-10
-6.65756e-08
9.39267e-10
-6.23137e-08
6.21321e-08
1.81613e-10
1.2999e-09
-6.78755e-08
-6.24741e-08
1.60435e-10
1.19655e-08
-1.26602e-09
1.90591e-09
-3.76137e-09
3.12148e-09
4.80963e-10
-1.34951e-09
1.22625e-09
-9.01465e-10
1.54874e-09
-1.84008e-09
1.19281e-09
1.61566e-09
-1.79111e-09
5.21395e-10
-1.20615e-10
-3.29169e-09
3.16942e-09
-2.4558e-09
2.57806e-09
-9.92947e-10
-2.94606e-09
2.67298e-09
-3.97649e-09
-5.47512e-09
6.89785e-10
-8.05787e-10
1.53853e-09
1.23645e-09
-6.62402e-09
8.00198e-09
2.92403e-09
2.11641e-08
-4.31295e-09
-8.65164e-10
3.06332e-10
1.24862e-09
-1.01508e-08
-2.7261e-08
5.51226e-09
-4.54272e-09
-3.07053e-09
2.10099e-09
1.4225e-10
1.84736e-12
6.02777e-10
-2.91061e-09
3.58455e-09
8.52827e-09
9.71799e-10
-6.81431e-10
2.27738e-09
-2.58889e-09
2.40955e-09
1.45325e-08
1.29882e-08
-2.64361e-08
3.20428e-08
6.09697e-09
-2.23369e-08
-1.01962e-08
1.7793e-08
-1.74389e-08
1.06627e-08
-3.35729e-10
6.71059e-11
-1.52249e-09
-2.00012e-09
-1.86113e-09
3.49844e-09
1.44836e-08
-5.24989e-10
-1.33591e-08
2.36541e-10
-2.99442e-09
-1.88175e-10
1.50637e-08
1.72618e-08
1.34341e-08
7.73528e-10
-1.52733e-09
-1.26803e-08
-2.00234e-09
5.95755e-09
1.21169e-08
-9.14661e-10
-1.32901e-09
-3.49909e-09
2.73215e-09
3.93636e-09
2.39534e-09
1.39765e-08
4.15184e-09
-1.37239e-08
1.7095e-08
-1.60714e-09
2.95722e-09
-3.70927e-09
1.89871e-09
-4.46452e-09
1.26858e-08
-1.19294e-08
-1.36681e-08
5.9371e-10
8.60983e-09
-1.95899e-09
1.66233e-09
1.8352e-09
-8.89522e-09
4.82726e-10
-4.13164e-09
-5.91697e-09
1.20226e-08
-1.50008e-08
1.5112e-09
1.64143e-09
-2.09268e-09
1.61626e-08
-1.57114e-08
-9.64415e-10
1.38736e-08
2.51443e-09
-3.74082e-09
-1.3724e-08
7.23954e-09
-1.67476e-08
-7.93076e-09
6.39031e-09
5.821e-09
1.4113e-08
-9.33066e-09
3.19537e-09
8.82403e-09
9.75678e-09
3.91492e-09
-4.0748e-09
2.12885e-08
-1.86507e-08
4.60175e-09
-9.81665e-09
2.31386e-09
5.1674e-09
1.33547e-08
-8.0291e-11
1.23126e-08
-1.31968e-08
-1.59281e-09
2.6971e-09
-1.90509e-09
8.00803e-10
1.06465e-08
-6.30724e-09
7.2348e-09
-1.01988e-08
1.42577e-09
-4.75539e-09
1.10666e-08
-1.1558e-08
-7.388e-09
8.82161e-09
9.21287e-09
1.24245e-08
1.00347e-09
-1.35082e-08
1.78491e-09
8.81035e-10
-1.07583e-08
-6.73903e-09
1.01093e-08
-1.85926e-09
2.52495e-09
-8.55881e-09
4.64753e-09
-5.09407e-09
1.11314e-08
-3.49532e-09
-1.12826e-08
3.64657e-09
-4.54568e-09
1.09217e-08
2.20445e-09
1.24279e-09
-4.91327e-09
-1.74535e-08
1.03993e-08
1.19674e-08
9.20558e-10
-1.05911e-08
-9.62548e-09
1.53033e-08
1.19726e-08
2.68878e-09
-9.49399e-09
-1.31646e-08
-2.43792e-10
-1.23417e-08
3.39666e-10
-5.97199e-10
1.08958e-08
1.23781e-08
-8.00773e-09
1.59896e-08
-1.52768e-08
3.43903e-09
-5.0137e-10
1.61638e-09
1.22448e-08
-3.86025e-09
-1.23057e-08
-5.12972e-09
3.97173e-10
4.47638e-09
1.18038e-08
-7.53688e-09
8.04677e-10
-1.06478e-09
1.91977e-09
-2.44781e-09
5.93196e-09
2.60192e-08
-8.70895e-10
-1.33665e-08
1.42374e-08
2.75646e-08
-2.18394e-08
2.18457e-08
1.92372e-08
-1.24046e-08
-2.49324e-09
1.47597e-08
1.0071e-10
-1.18862e-08
-3.54853e-10
-5.99899e-09
-2.01852e-09
2.46428e-09
1.75869e-09
2.65051e-10
-1.0595e-08
1.05652e-08
-2.35216e-10
2.00028e-09
-5.51308e-09
-1.0435e-08
1.0135e-08
-6.05685e-10
-1.01904e-08
-6.96312e-12
-1.03028e-08
-2.96777e-09
-1.16464e-08
2.32492e-09
7.70524e-09
5.06292e-09
3.40785e-10
-1.13545e-08
1.12788e-08
7.191e-10
-8.3433e-09
5.28458e-09
-6.29285e-10
2.81592e-09
-3.48352e-09
-1.28408e-08
-1.34363e-08
1.29061e-08
-9.79315e-09
-1.57203e-08
9.99668e-09
8.99169e-09
8.27714e-10
2.54252e-09
-1.5909e-08
1.06523e-08
1.66933e-09
4.06529e-09
4.13108e-10
-6.61322e-10
-4.84997e-10
-4.00418e-09
2.76469e-09
-1.75493e-09
4.42657e-10
-5.16387e-10
7.37297e-11
-2.42133e-09
1.23913e-08
2.0026e-09
2.53116e-09
-1.28017e-09
-1.94539e-09
1.23759e-11
-2.65223e-09
-8.15647e-10
1.25498e-08
9.65461e-09
-5.67978e-10
7.16975e-09
-1.17959e-09
-5.42217e-09
-9.72966e-09
-5.03504e-09
3.4754e-10
9.51172e-11
4.40545e-09
1.44616e-09
-1.64427e-08
-6.90547e-10
-9.84748e-10
-2.02251e-09
7.25964e-10
2.50835e-09
6.19062e-08
1.73743e-11
-6.19236e-08
6.25567e-08
1.23292e-10
-6.268e-08
-1.41102e-08
1.61069e-10
1.44562e-08
-5.07082e-10
2.50802e-09
-2.14159e-09
2.88177e-09
1.78477e-09
-4.46398e-09
-6.37593e-10
-6.9257e-10
5.62011e-10
-1.6662e-10
6.81651e-10
-5.03367e-10
1.86431e-08
1.11743e-09
-1.53551e-08
-3.67603e-10
-1.9663e-09
1.20215e-08
2.18956e-09
1.75057e-09
4.91823e-09
-1.71347e-09
-7.79713e-08
-2.40552e-08
-4.83649e-09
1.55446e-08
2.35161e-09
-9.51631e-10
-3.45552e-09
-1.45744e-09
8.11366e-10
-6.82941e-10
-1.31985e-08
-3.16847e-10
1.35153e-08
-1.05388e-08
-6.67777e-09
1.04775e-08
-9.15935e-09
8.90322e-09
-2.61149e-10
2.00662e-09
1.26792e-08
-1.23706e-08
-3.0853e-10
8.02478e-10
4.87063e-11
9.41351e-09
1.14469e-09
-1.28415e-09
-4.34437e-10
-1.41387e-08
-5.19283e-10
-1.32144e-08
1.18943e-08
-1.12777e-08
-6.60306e-08
6.49412e-08
1.0894e-09
5.77264e-10
-5.75417e-10
1.15068e-08
-5.41827e-10
2.54402e-11
-1.81462e-09
2.75533e-09
-3.36783e-09
-1.34954e-08
-1.61411e-09
2.52861e-09
-4.56553e-09
-1.37138e-08
1.83664e-09
5.61606e-09
9.32313e-09
-8.68665e-09
-5.69899e-10
2.80727e-11
-9.36404e-09
-1.23527e-08
8.2591e-11
-6.27992e-08
2.77881e-10
6.25213e-08
6.99076e-10
6.34974e-08
-9.68374e-11
-7.42303e-10
-1.42328e-08
1.37511e-10
-6.3348e-08
6.32105e-08
1.34949e-10
-6.29527e-08
6.28177e-08
6.10143e-10
6.14644e-08
2.59168e-10
-6.17236e-08
6.13011e-08
1.63287e-10
-8.78492e-08
8.84566e-08
1.304e-12
9.33469e-08
-9.31791e-08
-1.71195e-10
-8.65949e-08
-4.23187e-10
9.30954e-08
-2.73206e-11
-8.48951e-08
-7.60604e-10
9.29818e-08
3.17964e-10
-5.32017e-10
2.09472e-09
9.16614e-08
-6.93865e-08
6.20005e-08
-6.22877e-08
-6.30459e-08
6.1217e-08
8.41367e-11
-3.01315e-09
2.66251e-09
-1.33732e-08
1.00789e-10
2.46752e-10
2.55683e-09
1.01209e-08
-1.22084e-08
3.8358e-08
-3.45457e-08
-1.63057e-08
1.40715e-08
-9.70756e-11
-2.13928e-10
3.53209e-10
9.93435e-10
-2.03021e-10
4.34906e-10
4.70009e-09
1.07355e-09
-3.87493e-09
-5.0001e-10
5.72682e-10
-4.0501e-10
-2.40499e-09
1.26194e-08
2.17691e-09
-1.44107e-08
-2.20077e-09
-3.84839e-09
5.69685e-09
1.10422e-09
-2.35687e-09
1.39684e-08
-1.21217e-09
-4.91076e-09
7.86929e-09
-7.77459e-09
-1.88752e-08
-1.28277e-08
7.63127e-09
5.79015e-09
-3.25371e-10
-5.16121e-10
3.30577e-09
1.43093e-08
1.63631e-09
-1.09968e-09
-4.99204e-10
5.34222e-10
-3.16447e-10
1.58577e-08
-4.57612e-10
-1.5717e-08
-5.22725e-09
-2.88047e-09
2.89614e-10
-2.50034e-10
4.4815e-09
-1.85779e-08
6.86922e-10
-1.75585e-09
-2.38561e-09
-2.19128e-09
1.51377e-08
-9.05263e-08
-2.33611e-10
9.17201e-08
-2.76948e-10
-8.91549e-08
-4.51575e-10
9.3202e-08
-1.68652e-10
-9.3016e-08
-6.75366e-10
-1.84993e-09
1.59942e-08
9.20618e-08
-1.116e-10
7.70008e-13
-7.39046e-11
1.13919e-08
2.06225e-09
-1.02169e-08
-1.17717e-08
-5.52215e-09
8.44796e-09
1.38866e-09
-6.91259e-09
-6.55301e-09
9.12547e-09
-2.85599e-10
1.01458e-08
1.90294e-08
-1.7584e-08
3.00516e-09
-1.23343e-08
3.03379e-09
-7.00832e-08
4.05266e-09
-2.02962e-08
-1.24689e-08
-6.35975e-10
-5.71922e-09
-1.53846e-08
9.21766e-09
-1.51188e-08
6.15287e-10
5.22397e-10
-1.44608e-09
-1.59935e-08
1.65519e-08
9.9475e-09
-9.88932e-09
-5.54481e-09
1.47069e-08
-1.56152e-09
8.22974e-10
-1.57213e-09
6.51364e-10
1.20268e-08
3.43374e-09
7.09665e-08
-1.78557e-08
9.71157e-10
-1.44896e-08
-3.28382e-10
-3.70843e-10
-2.49302e-10
6.08922e-08
-6.10608e-08
-6.33472e-08
-6.30643e-08
-2.08537e-10
-1.56155e-10
-9.26513e-08
-6.09377e-08
6.30325e-08
6.50617e-08
-6.06198e-08
6.45297e-08
-6.06471e-08
6.37691e-08
-6.08183e-08
6.33459e-08
9.23855e-08
4.14493e-10
-6.56365e-09
7.49507e-08
-6.49533e-08
1.41593e-10
-1.41593e-10
2.29894e-09
-3.87859e-10
1.54741e-08
-1.65116e-10
1.65116e-10
5.32231e-10
1.34555e-09
1.40832e-08
1.27578e-08
-2.57108e-09
3.58901e-09
6.44795e-09
1.91338e-09
4.891e-10
-3.50969e-10
-2.86393e-09
1.42973e-08
1.47973e-08
-4.33318e-09
1.14729e-08
2.88661e-10
2.26622e-10
3.02734e-09
-1.06361e-09
-1.81818e-09
-5.89213e-09
-1.5055e-10
-5.15359e-10
1.51755e-08
4.00443e-10
1.90406e-10
1.69201e-08
-2.51959e-08
1.70661e-08
2.5355e-09
1.52281e-09
2.09034e-09
-3.47838e-09
1.88691e-08
-1.74811e-08
-1.55709e-10
1.00361e-09
-1.44949e-09
-7.91338e-08
-7.0836e-08
1.48486e-09
-1.22876e-09
7.45417e-10
2.27122e-08
1.81628e-08
-6.43831e-09
2.08221e-10
-4.52617e-09
-1.87488e-09
3.00684e-08
1.30488e-10
1.49388e-08
7.27962e-08
1.20483e-10
5.85663e-10
-2.38112e-10
-3.10559e-10
-3.91607e-09
2.35786e-08
-1.46948e-08
1.25972e-09
-1.37657e-08
-1.05159e-10
2.01442e-08
-2.79757e-08
9.02978e-10
2.64205e-09
-7.52632e-10
)
;

boundaryField
{
    back
    {
        type            empty;
        value           nonuniform 0();
    }
    ingreso
    {
        type            calculated;
        value           nonuniform List<scalar> 
14
(
-1.54286e-08
-1.54288e-08
-1.54288e-08
-1.54288e-08
-1.54286e-08
-1.54283e-08
-1.54288e-08
-1.54288e-08
-1.54286e-08
-1.54286e-08
-1.54288e-08
-1.5428e-08
-1.5428e-08
-1.54286e-08
)
;
    }
    salida
    {
        type            calculated;
        value           nonuniform List<scalar> 2(1.02026e-07 1.13974e-07);
    }
    front
    {
        type            empty;
        value           nonuniform 0();
    }
    defaultFaces
    {
        type            calculated;
        value           uniform 0;
    }
}


// ************************************************************************* //
