/*--------------------------------*- C++ -*----------------------------------*\
  =========                 |
  \\      /  F ield         | OpenFOAM: The Open Source CFD Toolbox
   \\    /   O peration     | Website:  https://openfoam.org
    \\  /    A nd           | Version:  7
     \\/     M anipulation  |
\*---------------------------------------------------------------------------*/
FoamFile
{
    version     2.0;
    format      ascii;
    class       volVectorField;
    location    "22.5";
    object      U;
}
// * * * * * * * * * * * * * * * * * * * * * * * * * * * * * * * * * * * * * //

dimensions      [0 1 -1 0 0 0 0];

internalField   nonuniform List<vector> 
591
(
(0.000806964 -4.83223e-05 1.22639e-18)
(0.000773178 -3.83962e-05 -6.58332e-19)
(0.00084526 -6.51822e-05 5.75613e-20)
(0.000830878 1.1202e-05 -1.47724e-19)
(0.000817162 1.90925e-05 2.23232e-19)
(0.000754461 -2.82028e-05 -1.38394e-19)
(0.000532586 -0.00039067 7.95959e-19)
(0.00079627 -8.01527e-06 2.07991e-18)
(0.00577196 0.00248866 9.86602e-19)
(0.000778495 -2.29784e-05 2.38091e-18)
(6.22969e-05 0.000179502 1.21735e-18)
(0.000887513 0.00127757 9.40327e-21)
(0.000784339 1.28032e-05 1.28851e-18)
(0.00155217 0.0023495 -7.87e-19)
(0.000796003 2.89737e-05 -4.38107e-19)
(0.000140759 -0.000258022 2.52894e-22)
(0.000130592 0.000663785 7.052e-19)
(0.000836373 1.91286e-05 -4.92496e-19)
(0.00200676 0.000381925 4.73602e-19)
(0.00133892 0.000293377 -2.47021e-19)
(0.000826504 1.67633e-05 3.68912e-19)
(0.00331446 0.00671801 -7.36929e-20)
(3.79917e-05 7.7376e-05 2.70817e-19)
(0.00081786 9.15323e-06 -4.46435e-19)
(1.90303e-05 -2.40216e-05 3.58926e-19)
(0.0007589 2.37105e-05 0)
(8.92451e-05 0.000479831 1.59953e-19)
(0.000510953 3.28658e-05 -1.78896e-19)
(0.000741826 5.84842e-05 1.13374e-18)
(0.000821555 -6.11996e-07 5.89161e-19)
(6.85875e-05 -2.90094e-07 -2.28069e-24)
(4.81047e-05 -5.50169e-05 3.52258e-19)
(4.74849e-05 -4.47552e-06 -4.64013e-20)
(5.63276e-05 -9.36242e-06 0)
(6.38466e-05 -1.52532e-05 1.13015e-18)
(0.00116104 0.000131803 1.80031e-19)
(4.12508e-05 -7.60519e-06 4.47249e-20)
(0.000817628 1.64279e-05 4.51146e-23)
(3.60926e-05 5.25517e-05 2.6604e-19)
(6.67201e-05 -0.000151832 -8.54522e-19)
(0.000538596 -0.000176964 9.56858e-19)
(3.43427e-05 -9.98094e-06 4.54927e-20)
(0.000792509 -7.82247e-06 -1.55633e-18)
(0.000818202 1.32531e-05 -6.81867e-19)
(2.49512e-05 -1.20109e-05 0)
(6.42232e-05 1.15564e-05 8.52048e-20)
(0.00132834 0.0045144 8.92503e-19)
(8.66782e-05 2.39663e-05 8.63791e-20)
(0.000788144 3.71049e-05 0)
(0.000363273 -0.000134301 6.78125e-19)
(0.000368075 0.000281236 5.11969e-21)
(0.000382932 7.77145e-05 -1.00405e-18)
(0.00634252 0.0109394 -7.63319e-19)
(0.00622762 0.0107908 1.55467e-20)
(0.00560677 0.0103697 1.45214e-18)
(0.000805474 -3.05767e-05 0)
(7.54034e-05 3.88705e-05 0)
(0.00032746 3.42486e-05 9.51045e-24)
(7.29782e-05 1.60761e-05 -3.46528e-19)
(0.000842016 -5.79486e-06 0)
(0.000604355 2.63027e-05 3.17677e-19)
(0.000803256 3.82582e-06 2.14866e-18)
(0.000766456 -1.40578e-06 -5.42312e-19)
(0.000764096 1.76983e-05 -3.12553e-19)
(0.00171158 0.000529671 5.43872e-19)
(0.000785025 -3.43913e-06 -1.13705e-18)
(0.000807038 -2.05139e-06 -5.13509e-19)
(9.54556e-05 4.68068e-06 -1.73431e-19)
(0.000687705 0.00230283 0)
(0.000811602 8.89027e-06 0)
(0.000739908 1.91702e-05 -1.36103e-18)
(4.48029e-05 2.03197e-05 0)
(0.000279765 0.000277442 3.26874e-19)
(5.2206e-05 -2.11688e-05 0)
(5.16578e-05 -7.26953e-06 1.59505e-19)
(3.47279e-05 -5.80053e-05 -3.367e-20)
(0.000760331 5.81713e-05 2.45141e-19)
(5.18075e-05 1.45275e-05 0)
(0.000777257 6.05962e-05 4.40945e-19)
(0.00074418 0.000301333 2.10778e-19)
(0.00095925 5.99698e-05 -3.98123e-20)
(4.9984e-05 2.86611e-05 -4.51955e-20)
(7.3309e-06 -4.50987e-05 0)
(0.000417349 0.000225642 1.70209e-19)
(1.95858e-06 3.59872e-05 0)
(0.000746697 8.54186e-06 -5.98151e-19)
(0.00054906 -0.000109969 0)
(7.61729e-05 3.05259e-06 -1.74511e-19)
(5.51088e-06 -6.00317e-05 0)
(0.00080424 0.000246582 -3.41372e-19)
(5.21821e-06 -2.81684e-05 0)
(0.00041181 0.000323937 -1.20895e-23)
(0.000505585 0.000117937 0)
(0.000791519 4.54648e-05 6.74096e-25)
(3.04562e-06 2.43409e-05 -4.21799e-20)
(0.000430128 1.12923e-05 1.76406e-18)
(0.00101494 7.53654e-05 4.16233e-20)
(0.000974493 3.43956e-05 6.40715e-22)
(0.000719974 0.000649252 2.69456e-19)
(4.08453e-06 6.82811e-05 0)
(8.77555e-06 -0.000116228 -3.12323e-19)
(2.02024e-05 -0.000207698 -1.10168e-18)
(8.14208e-07 0.000105467 -5.95886e-19)
(0.000724208 -4.94124e-06 0)
(3.66426e-06 0.000133292 0)
(0.000787056 2.80109e-06 2.18511e-18)
(0.000753789 2.83602e-05 1.49655e-18)
(0.00039642 -3.15421e-05 0)
(5.55921e-05 0.000233942 -8.94473e-19)
(-1.39864e-06 0.000211924 4.9592e-19)
(8.55352e-05 0.00047596 6.25301e-19)
(0.000291019 0.000116991 -9.35534e-19)
(0.00080985 9.75932e-06 1.34747e-19)
(0.000267682 -2.77162e-06 5.31275e-19)
(2.60593e-06 4.85588e-05 0)
(4.35971e-05 0.000320841 -1.08869e-18)
(0.000311388 0.000329865 -1.61716e-19)
(8.4962e-06 -8.65423e-05 1.46597e-19)
(0.000645856 0.000781776 0)
(0.000355774 0.000391685 5.74464e-20)
(0.000799852 -7.03476e-07 1.06949e-18)
(0.000760121 -2.49119e-05 -2.68655e-18)
(9.13245e-06 -0.000153163 0)
(0.000754157 -1.46343e-05 -1.11341e-19)
(0.000317689 -5.43754e-05 1.24359e-18)
(0.00272197 0.000805763 -3.35471e-19)
(-2.94445e-06 0.000165381 -6.12694e-19)
(-1.33772e-05 0.000205139 1.61818e-18)
(0.000848053 1.83243e-05 -3.88865e-20)
(7.46842e-05 -6.37486e-06 -7.49987e-19)
(0.000777388 3.35548e-05 -3.87937e-19)
(0.000898718 2.85144e-05 -4.09897e-20)
(6.50879e-05 0.000381077 -5.96593e-19)
(0.000465039 8.47796e-05 -4.94027e-19)
(5.92403e-05 -1.86441e-06 1.56186e-19)
(0.000816485 -1.11301e-05 -1.05678e-18)
(0.0016452 0.000208104 -1.13751e-18)
(3.26268e-07 8.21969e-05 4.96085e-19)
(0.00079116 -1.18813e-06 -5.00587e-19)
(0.000876245 0.000539225 -7.85227e-20)
(0.000132287 0.000860977 0)
(0.000551164 6.88716e-05 0)
(0.000268127 6.49138e-05 -1.60869e-18)
(6.95808e-05 6.67145e-05 -1.37435e-18)
(3.62874e-05 2.50812e-05 0)
(0.00417423 0.00741223 -1.00287e-20)
(0.00413332 0.00742 3.20131e-20)
(0.00432926 0.00762682 -6.50044e-21)
(0.00420822 0.00773726 0)
(0.0042018 0.00760086 5.7532e-19)
(0.00415704 0.00743265 -8.59974e-20)
(0.0042151 0.00804671 4.82999e-19)
(0.00430009 0.00745248 0)
(0.00420959 0.0085399 6.14909e-19)
(0.00433527 0.00749341 1.80288e-19)
(0.000800818 -4.11881e-06 -1.35756e-18)
(0.000743706 5.5619e-05 0)
(0.000219536 7.34928e-05 1.2771e-19)
(5.8117e-05 2.09401e-05 8.72022e-20)
(8.54607e-05 5.34185e-05 6.80149e-19)
(0.000114879 5.12008e-05 -3.4173e-19)
(0.000110386 1.55188e-05 0)
(5.68429e-05 8.1573e-06 8.18471e-20)
(0.00020414 0.000147636 0)
(0.000173253 6.06923e-05 -5.2435e-20)
(0.000333583 0.000232377 -5.09307e-21)
(6.20544e-05 5.04614e-05 -4.37741e-19)
(9.94826e-05 3.66675e-05 -8.52636e-20)
(9.73479e-05 7.13063e-05 1.31218e-21)
(0.000246225 0.000372008 -6.66223e-19)
(0.000148902 0.00107959 0)
(4.76242e-05 5.93951e-05 3.43128e-19)
(0.000175068 0.00183201 0)
(0.000205834 0.000261367 7.04732e-19)
(4.61793e-05 -6.47571e-06 1.11338e-19)
(0.000463137 0.000171384 -1.72326e-19)
(0.000748564 2.79973e-05 -1.85158e-18)
(5.09395e-05 2.93071e-07 4.21158e-24)
(0.000158021 3.9599e-05 2.24625e-19)
(0.000238415 0.000111011 -8.99486e-20)
(0.000867395 0.00070193 3.34956e-19)
(0.00075853 0.00162265 -9.21978e-21)
(0.000402704 0.0013701 -9.44061e-21)
(0.0010068 0.000560013 0)
(0.000115327 -1.00868e-05 1.11898e-18)
(0.000127955 2.88408e-05 -4.43228e-20)
(0.000415192 -0.000239131 -1.13636e-18)
(0.000798196 3.42125e-05 0)
(0.000185216 3.18831e-05 3.6313e-19)
(0.000276214 0.00136462 0)
(0.00102778 0.000742325 -7.30252e-20)
(0.000814026 4.47118e-05 -1.83347e-19)
(9.27489e-05 -1.78818e-05 -3.00035e-19)
(0.000801758 0.000307923 -2.081e-20)
(7.80033e-05 -2.25425e-05 -5.9905e-19)
(0.000226316 0.000185261 8.6398e-20)
(0.000225209 0.000313137 -3.45047e-19)
(0.000864814 0.000236787 0)
(0.000785989 4.29333e-05 0)
(0.000258538 0.000153971 1.76872e-19)
(0.00023517 2.27495e-05 1.35409e-24)
(0.000184984 0.000214971 0)
(0.000281989 0.000642683 -5.55428e-21)
(0.000327937 2.15596e-05 0)
(0.000334308 0.000594446 0)
(0.000116182 9.36731e-05 -1.34694e-21)
(0.000807028 -8.25954e-06 -9.36998e-19)
(0.000816787 -1.4449e-05 7.75275e-19)
(0.000135568 7.08514e-05 -1.49882e-19)
(0.000933893 0.000150833 8.50829e-20)
(0.000818851 4.96566e-05 3.29682e-19)
(0.000789216 1.6618e-05 -2.92372e-19)
(0.000984572 0.000402973 0)
(0.000423764 0.00012883 6.2457e-19)
(0.000875182 0.000315717 2.09191e-20)
(0.000549398 0.00016673 0)
(0.000274135 0.000438555 4.09662e-19)
(0.000257117 0.0002282 -8.44274e-20)
(0.00108864 0.000381714 -7.82366e-19)
(0.00059108 0.000117913 -1.79342e-19)
(0.000784249 8.58762e-05 -7.37649e-21)
(0.000816148 2.62038e-05 9.29233e-20)
(0.000110536 -9.29591e-05 -1.98172e-18)
(0.000721111 0.000377633 2.19269e-19)
(0.00063544 6.90596e-05 2.30583e-20)
(0.000684839 0.000273046 1.51848e-23)
(0.00070719 0.000445674 -4.09542e-19)
(0.000827654 3.90936e-05 8.85907e-20)
(7.76987e-05 9.09181e-05 0)
(0.000634602 0.000418822 -4.65735e-20)
(0.000185261 0.0001117 0)
(0.000364766 0.000507559 -2.64823e-19)
(0.000309305 0.000180969 0)
(0.000654379 0.000204522 3.55326e-19)
(0.000626954 0.00026948 -4.37354e-20)
(8.34833e-05 0.000110571 6.19098e-19)
(0.000868912 0.000118439 -1.61605e-18)
(6.58192e-05 2.80017e-05 2.57243e-19)
(0.000870353 5.29527e-05 -1.64843e-18)
(0.000799572 5.88908e-05 1.61e-19)
(0.000788497 7.95716e-06 1.93004e-18)
(0.000787101 4.14896e-06 -1.31411e-19)
(0.000694728 7.47316e-05 0)
(0.00082277 3.27724e-05 8.73773e-19)
(0.000924488 0.000237988 -4.27238e-19)
(0.000744896 7.53291e-05 -4.81384e-19)
(0.000758689 0.000228774 -8.81076e-20)
(0.00024378 -0.000105556 -2.07961e-18)
(0.000712529 9.35508e-05 8.87522e-19)
(0.000624728 0.000591795 0)
(0.000131651 -9.64026e-05 0)
(0.00117846 0.000465964 4.96927e-19)
(0.000792706 -0.000125634 -3.22995e-18)
(0.00128435 0.000417555 5.74783e-19)
(0.00126534 0.000712587 -6.38839e-20)
(0.00078548 5.44706e-05 -2.1069e-19)
(0.000812798 7.68832e-05 -1.40787e-18)
(0.000797733 3.39208e-05 1.57115e-18)
(0.000791748 6.90703e-06 9.67728e-20)
(0.000658707 0.000342838 -4.40491e-20)
(0.000108211 0.000142154 1.32122e-23)
(0.000708038 -6.57282e-05 2.65152e-19)
(0.000253145 -0.000189066 -7.36605e-19)
(0.000599622 0.000192174 0)
(0.000672279 2.17588e-05 9.90532e-20)
(0.000651406 8.32565e-06 -3.80936e-19)
(0.000375896 0.000181517 3.931e-20)
(0.000772188 0.000497502 -1.65496e-19)
(0.000156234 9.0197e-05 2.33005e-25)
(0.000796533 0.000390054 0)
(0.00095359 0.000321802 4.15896e-20)
(0.000721504 -0.000104084 -6.16462e-19)
(0.000336313 0.000115585 4.97338e-19)
(0.000883515 0.000417821 0)
(5.63871e-05 3.74954e-05 1.33738e-19)
(0.000464924 0.000273507 2.1398e-19)
(0.000439937 -8.62424e-05 -7.09309e-19)
(0.000186355 -0.000130367 -1.05923e-18)
(0.000794017 1.94984e-06 -4.73777e-19)
(0.000802544 -0.000112923 -1.92813e-19)
(0.000564656 0.000719718 -1.1716e-18)
(0.000825824 5.18681e-05 -6.6236e-20)
(0.000760794 -5.08221e-05 1.2586e-18)
(0.000660638 9.85122e-05 2.27855e-20)
(0.000508436 0.000219841 -1.65707e-19)
(4.32169e-05 -2.58514e-05 -8.75992e-20)
(0.000199191 -2.28084e-05 2.40521e-18)
(3.2222e-05 9.69473e-07 -1.94836e-19)
(0.000776649 8.23027e-05 3.60401e-19)
(0.000630366 0.000141468 0)
(0.000206062 -4.8761e-05 -1.04811e-18)
(0.0001325 2.64961e-06 3.12643e-19)
(0.000135836 -3.13534e-05 -1.09532e-24)
(0.000778359 0.00011735 -3.185e-19)
(0.000160805 -3.39119e-06 0)
(0.000565693 0.000244299 0)
(0.000111445 0.000340357 -3.62884e-19)
(0.000840401 0.000111089 2.09652e-18)
(2.62425e-05 1.76243e-06 0)
(0.000835182 2.81605e-05 0)
(5.53177e-05 -2.68463e-05 0)
(0.000814115 2.44368e-05 -4.42703e-21)
(0.000811125 -6.70686e-05 0)
(0.00424371 0.0074222 7.9053e-20)
(0.00435132 0.00751364 1.42664e-19)
(0.00083716 8.2623e-06 0)
(0.000748037 -6.03092e-05 8.13032e-19)
(0.000154381 0.000137816 1.49229e-19)
(0.000850771 7.49254e-05 7.89316e-19)
(0.000135343 0.000114648 2.34435e-20)
(0.000746873 -5.48673e-05 6.27336e-19)
(4.14469e-05 1.27807e-05 0)
(3.81654e-05 -1.775e-05 -4.48572e-20)
(0.000864964 5.81866e-05 -4.83227e-19)
(4.80381e-05 -3.65713e-05 -6.69764e-19)
(0.000734661 0.000123381 -4.22533e-20)
(0.000167777 0.000174325 -1.88124e-19)
(0.000804865 1.0794e-05 0)
(0.00466571 0.00820737 9.75019e-22)
(0.000163271 0.000778875 3.33751e-19)
(0.000138466 -4.65213e-05 -9.14485e-19)
(7.64219e-05 -3.53656e-05 -1.16891e-18)
(0.000782716 1.98975e-05 1.89601e-20)
(0.000565135 0.000415332 0)
(0.000396047 0.000431926 -2.56245e-19)
(0.000114945 -4.95636e-05 1.18379e-18)
(0.000741294 4.10627e-06 7.69346e-20)
(4.9722e-05 2.49719e-06 4.07129e-19)
(0.000639695 -5.8516e-05 1.17207e-18)
(0.000799552 2.2191e-05 -5.98298e-19)
(9.2154e-05 -5.44917e-05 1.70927e-18)
(0.000831108 4.35567e-06 -1.84247e-24)
(0.000757984 1.2302e-05 -3.76697e-20)
(0.000849259 5.78197e-05 0)
(0.000793808 3.90211e-05 0)
(0.00592809 0.00723187 2.57855e-19)
(3.36936e-05 2.01253e-06 -1.1957e-19)
(0.000182211 -7.38623e-05 7.72912e-19)
(0.000705344 0.000119559 -6.96695e-19)
(3.82695e-05 -9.55525e-07 2.0146e-19)
(0.000565402 -1.96635e-05 -7.24058e-19)
(0.000711286 1.32076e-05 1.53999e-18)
(0.000682025 0.000153767 -3.55531e-19)
(0.000798829 -2.94868e-05 3.54419e-19)
(9.92818e-05 -2.81494e-05 1.11626e-18)
(0.000761171 9.65741e-06 -3.19233e-19)
(0.00084571 5.49842e-05 0)
(0.000523783 0.00030285 4.21089e-20)
(0.000840907 3.78911e-05 -9.17664e-19)
(3.32939e-05 -1.44057e-06 9.10925e-19)
(0.000816454 3.07996e-05 9.40565e-19)
(0.000824993 -2.705e-05 -9.63334e-19)
(0.000695249 1.41438e-05 -5.67475e-19)
(0.000480709 -4.64988e-05 -5.25813e-19)
(0.00432891 0.0074908 2.00135e-19)
(0.00422243 0.00754097 -2.76418e-19)
(0.00422193 0.00759221 2.72357e-19)
(0.00421278 0.00741185 2.08731e-19)
(0.000840921 -1.86159e-06 1.43227e-19)
(0.00447635 0.00749884 0)
(0.0043922 0.00753312 -3.85392e-19)
(4.92823e-05 -4.10411e-07 -9.96552e-19)
(0.00411206 0.00743525 -6.28248e-20)
(0.00409981 0.00739784 -2.69098e-19)
(0.00602337 0.0105995 0)
(0.00660067 0.0111738 3.62188e-20)
(0.00600265 0.0105688 0)
(0.00662057 0.0111706 1.37921e-19)
(0.00599062 0.0105913 2.69095e-19)
(0.00663404 0.0111599 1.41312e-20)
(0.00593261 0.0106059 -7.74741e-19)
(0.0066598 0.0110382 9.24476e-21)
(0.00390232 0.00921346 -1.9078e-19)
(0.00414708 0.0074813 4.22985e-21)
(0.00423889 0.00756496 7.88565e-20)
(0.00411132 0.00739327 4.97936e-20)
(0.000847235 0.000176378 4.45008e-20)
(1.92136e-05 2.51793e-06 0)
(0.000646192 -0.000154009 0)
(0.000748344 3.11036e-05 0)
(0.00245242 0.00108067 4.22619e-21)
(0.000717462 -2.1295e-05 1.71119e-19)
(4.82664e-05 8.31309e-06 4.54163e-20)
(2.2017e-05 -3.35687e-05 1.65269e-18)
(0.000837152 2.62038e-05 0)
(3.34382e-05 1.63383e-05 -1.91766e-19)
(0.000146122 0.000232537 0)
(3.46327e-05 -1.31854e-06 0)
(2.87346e-05 -2.07566e-06 0)
(0.00079449 0.000127534 1.12898e-20)
(0.000819367 5.70546e-06 1.75984e-19)
(3.42844e-05 0.000322349 1.19766e-23)
(0.000161919 0.000278709 -1.84213e-18)
(0.000589476 0.000340313 -8.5713e-20)
(0.000882777 0.00012703 6.0284e-19)
(0.000714321 -0.000435958 6.65303e-19)
(0.000318641 0.00111049 0)
(0.000456017 0.000549738 2.71468e-18)
(9.85403e-05 0.000154068 -1.79963e-18)
(4.08331e-05 5.0586e-07 0)
(0.000831592 -1.99757e-05 3.60826e-20)
(2.14238e-05 4.45664e-05 1.64482e-18)
(0.000892948 2.5924e-05 2.7138e-19)
(7.3941e-05 -0.000219167 3.78229e-18)
(0.000921138 4.21291e-05 -2.69182e-19)
(0.00142165 0.000111995 7.46869e-19)
(4.64415e-05 -1.29237e-05 8.25892e-20)
(4.5587e-05 8.57136e-06 -8.58506e-19)
(4.71319e-05 0.00015931 0)
(0.000883443 9.3359e-05 5.988e-19)
(0.00048168 0.000371611 2.37163e-19)
(0.000807364 1.6903e-05 -3.87945e-20)
(0.000743244 -1.78792e-05 2.54917e-19)
(0.000696547 -0.00023477 0)
(0.00632473 0.010904 -1.66492e-19)
(0.00637821 0.0109649 4.03766e-19)
(0.00615955 0.0107266 -6.15216e-19)
(0.00655408 0.0111323 -7.9319e-20)
(4.25155e-05 0.000123534 8.00402e-19)
(0.0008834 5.60129e-05 1.59331e-22)
(0.00640918 0.0109982 -3.84475e-19)
(0.00627844 0.0108548 5.43724e-19)
(0.00607662 0.0106654 -4.16694e-19)
(0.00658624 0.0111624 -6.65055e-20)
(9.54802e-05 0.000574672 -2.01987e-20)
(0.000175111 -0.000180022 -7.92328e-19)
(0.000790773 -3.77362e-06 -7.58964e-19)
(0.000706481 0.000218773 0)
(0.000767733 -4.03625e-07 0)
(0.000184632 0.000393053 3.36327e-19)
(0.000600019 0.000562788 -5.41513e-19)
(2.13495e-05 -3.03391e-06 1.78439e-19)
(0.000210724 0.000463334 -7.38451e-19)
(0.0010023 0.000971752 -1.12713e-19)
(0.000722507 0.000172927 0)
(0.000769452 0.000167068 1.31001e-19)
(0.00637275 0.00587814 1.12626e-18)
(0.000699035 0.00114121 8.27992e-20)
(4.52395e-05 4.47502e-05 -7.44859e-20)
(0.000814535 4.89527e-05 0)
(0.000869687 1.85517e-05 -3.57091e-20)
(4.42926e-05 6.36405e-06 -1.96664e-19)
(3.81452e-05 7.8045e-06 1.92978e-19)
(0.000815131 1.8346e-05 5.33107e-19)
(0.000955485 0.000105789 6.58608e-19)
(0.000703137 5.01855e-05 0)
(0.000229196 -0.000288371 -3.98562e-19)
(0.00088479 0.000140437 3.88956e-19)
(3.92653e-05 -8.47753e-05 2.03122e-19)
(0.00145718 0.000368786 -2.57802e-18)
(0.000727659 1.30045e-07 0)
(0.000774585 0.000137295 3.75615e-19)
(9.05045e-05 0.000408778 0)
(0.001183 0.00817078 4.61653e-19)
(0.000461417 0.00050984 -1.22371e-18)
(0.000534945 0.000966596 -1.83759e-19)
(0.000860439 2.62487e-05 -1.45255e-19)
(1.95275e-05 3.13068e-05 0)
(0.000908692 7.27242e-05 6.11305e-19)
(0.00408595 0.00738054 6.69915e-20)
(0.00412373 0.0074606 5.02971e-20)
(0.0044962 0.00750098 4.52832e-19)
(0.00443749 0.00755781 -3.1821e-19)
(0.00652184 0.0111088 7.9369e-20)
(0.00389744 0.00722558 2.3361e-22)
(0.00551034 0.00779035 -5.63224e-19)
(0.00408649 0.00743408 4.95658e-21)
(0.00518968 0.00784828 5.09977e-19)
(0.00406736 0.00738155 -4.02182e-20)
(0.0049504 0.00770616 0)
(0.00406818 0.00738057 -6.78701e-20)
(0.00473763 0.00757766 4.91127e-19)
(0.00408448 0.00738167 6.95745e-20)
(0.00456528 0.00751172 0)
(0.00429562 0.00743921 1.37226e-19)
(0.00425074 0.00760827 5.91858e-19)
(0.00446732 0.00753033 -5.3344e-19)
(0.00437868 0.00752281 3.69068e-19)
(0.00421267 0.00754073 3.19993e-19)
(0.00644591 0.0110398 -5.62272e-21)
(0.00409641 0.00738418 3.04168e-20)
(0.00648562 0.0110785 0)
(3.10571e-05 9.4686e-06 -1.89902e-19)
(0.00197878 0.00652623 2.28171e-19)
(0.000842986 -5.80962e-06 1.09e-19)
(0.000853149 1.96648e-05 0)
(3.9902e-06 4.1683e-06 -3.99203e-19)
(8.68838e-05 -0.000203705 6.91637e-19)
(2.40746e-05 6.64041e-05 2.08688e-18)
(0.000805184 0.000189231 -9.01122e-20)
(0.000757693 9.3426e-06 6.98181e-19)
(4.54167e-06 -4.80786e-06 3.10067e-19)
(2.79574e-05 -4.57851e-05 -1.84564e-18)
(0.00073253 2.05195e-05 1.61476e-19)
(0.00084162 0.000125249 -3.02691e-20)
(0.000754107 -5.77407e-06 1.4666e-19)
(0.000409495 0.000650487 0)
(0.000128823 -0.000152333 1.1519e-18)
(0.000837457 1.93824e-05 1.51687e-19)
(2.41951e-05 2.9397e-05 0)
(0.00010249 0.000564483 -6.31201e-19)
(0.000607418 0.000596625 1.31312e-18)
(0.000341755 0.000725595 0)
(0.00075074 -1.26627e-05 0)
(0.000761023 4.11496e-05 1.15795e-18)
(2.5142e-05 5.40314e-05 -3.51387e-18)
(2.23197e-05 1.11152e-05 3.73706e-19)
(0.000112801 0.000157016 0)
(6.49253e-05 -4.52661e-05 0)
(7.23592e-05 0.000123544 2.0094e-19)
(0.000901534 0.000173372 3.49896e-19)
(0.000793745 -1.56209e-05 -1.37355e-18)
(2.74456e-05 4.03783e-05 0)
(0.00059613 7.14116e-05 -6.01142e-20)
(0.000767524 2.79227e-05 -1.54724e-19)
(0.000829872 1.17086e-05 1.02729e-18)
(0.000252936 0.000546655 6.32239e-19)
(0.000829593 0.000143142 0)
(3.32016e-05 -3.30632e-05 5.38798e-19)
(4.66361e-06 -1.56627e-05 -3.20009e-19)
(0.0011164 5.44718e-06 0)
(0.00096589 0.00219774 0)
(0.00104842 -7.44996e-05 0)
(0.000975464 0.00019168 4.2735e-19)
(0.000827752 -1.40351e-05 -2.81625e-19)
(0.000892741 0.000124281 -6.84727e-19)
(0.000763449 9.31883e-06 0)
(4.49173e-05 7.90972e-05 -1.71605e-19)
(0.000172804 0.000331386 1.08127e-18)
(0.000777931 4.07287e-05 1.79948e-23)
(0.00106346 0.000183276 -6.68902e-19)
(0.00107629 0.000116929 0)
(3.81526e-06 1.35736e-05 2.51088e-19)
(2.70337e-05 -2.18757e-05 -1.94358e-19)
(0.000689703 3.2533e-05 6.88172e-21)
(5.11935e-05 -0.00011418 0)
(0.00102257 0.000252194 9.50752e-19)
(0.00502837 0.00974346 -2.8284e-19)
(0.00311499 0.00962538 1.26984e-18)
(9.09113e-05 -0.000122626 -1.914e-19)
(8.82235e-05 -8.45372e-05 1.86007e-18)
(0.00118719 0.00022099 1.67074e-19)
(0.00130076 0.00105382 2.34086e-19)
(0.00082593 1.1071e-05 -7.26675e-19)
(0.000216976 0.000932339 -2.38906e-19)
(0.000777559 0.000878108 -2.18591e-19)
(0.000768791 -1.34691e-05 0)
(0.000104913 0.000703963 0)
(9.90445e-05 0.000287749 -4.9728e-23)
(0.000768579 -1.8287e-05 -2.16945e-23)
(0.00080987 1.15004e-05 1.51096e-19)
(0.00261945 0.00201831 -1.22923e-18)
(0.00175541 0.00924608 -1.16962e-19)
(0.000810137 2.89295e-05 4.84331e-19)
(0.00636178 0.00403781 -1.74764e-19)
(0.00676998 0.0114173 -1.34571e-20)
(0.00471587 0.00792551 4.8853e-21)
(0.000797062 5.13573e-05 -2.15055e-18)
(0.00081651 3.8364e-05 -1.05648e-23)
(1.65441e-05 -1.28193e-05 -3.48058e-19)
(4.9474e-05 0.000101083 -3.49356e-19)
(8.44559e-05 0.00028499 8.76088e-19)
(1.65925e-05 2.12862e-05 4.9052e-19)
(9.17567e-05 0.000242387 3.69822e-19)
(0.000817519 4.08599e-05 0)
(0.00533406 0.00943562 1.80741e-20)
(0.0014897 0.000621566 -2.61786e-20)
(0.000822351 2.08303e-05 3.55636e-19)
(6.83024e-05 -9.72807e-05 0)
(0.0018606 0.000733593 5.44944e-19)
(1.45809e-05 1.17628e-05 -2.70219e-19)
(4.02165e-05 3.50949e-05 9.72054e-20)
(0.00131877 0.00138467 6.36909e-19)
(0.00076934 2.99218e-05 1.80941e-19)
(1.35335e-05 -3.64766e-06 -1.70248e-19)
(0.00202633 0.00154378 -1.0552e-18)
(0.000129115 0.000190066 -8.18715e-19)
(0.0039226 0.0084719 -1.08901e-18)
(1.20832e-05 3.20052e-06 8.81636e-20)
(0.000214581 -0.000359639 -1.24034e-18)
(6.90919e-05 -6.13294e-05 4.05754e-20)
(0.00147821 0.000954299 0)
(0.00101057 0.000143699 -4.30282e-22)
(0.000435133 0.000856353 -4.02207e-20)
(0.000809184 1.95395e-05 -2.31433e-19)
(8.65009e-05 0.00019746 7.35143e-19)
(5.63973e-05 -7.38388e-05 4.04141e-19)
(2.30149e-05 1.97619e-05 -9.47329e-20)
(4.02505e-05 0.000106574 -3.20316e-19)
(0.000192981 -0.000361847 -5.37163e-19)
(0.00323477 0.0034217 2.7999e-21)
)
;

boundaryField
{
    back
    {
        type            empty;
    }
    ingreso
    {
        type            fixedValue;
        value           uniform (0.0008 0 0);
    }
    salida
    {
        type            zeroGradient;
    }
    front
    {
        type            empty;
    }
    defaultFaces
    {
        type            noSlip;
    }
}


// ************************************************************************* //
