/*--------------------------------*- C++ -*----------------------------------*\
  =========                 |
  \\      /  F ield         | OpenFOAM: The Open Source CFD Toolbox
   \\    /   O peration     | Website:  https://openfoam.org
    \\  /    A nd           | Version:  7
     \\/     M anipulation  |
\*---------------------------------------------------------------------------*/
FoamFile
{
    version     2.0;
    format      ascii;
    class       volScalarField;
    location    "52";
    object      p;
}
// * * * * * * * * * * * * * * * * * * * * * * * * * * * * * * * * * * * * * //

dimensions      [0 2 -2 0 0 0 0];

internalField   nonuniform List<scalar> 
591
(
0.000123921
0.000123939
0.000123946
0.000123901
0.000123903
0.000123974
0.000123972
0.000123934
0.000117002
0.00012395
0.000124122
0.000122858
0.000123943
0.00011975
0.000123935
0.000123988
0.000123901
0.000123977
0.000121969
0.000123314
0.000123913
-3.52589e-06
0.000124121
0.000123916
0.00012408
0.000123936
0.000124027
0.00012404
0.000123949
0.000123961
0.000124099
0.000124075
0.000124094
0.000124093
0.000124095
0.000123422
0.00012409
0.000123918
0.000124116
0.000124035
0.000124008
0.000124087
0.000123945
0.000123965
0.000124084
0.000124103
0.000119273
0.000124107
0.00012395
0.000124067
0.000124047
0.000124082
2.39383e-05
3.05844e-05
4.78444e-05
0.000123947
0.000124111
0.000124096
0.000124105
0.000123922
0.000124008
0.00012394
0.00012394
0.00012399
0.000122588
0.00012394
0.000123944
0.000124102
0.000120753
0.000123954
0.000123949
0.000124108
0.000124073
0.000124088
0.000124094
0.00012407
0.000123917
0.000124105
0.000123919
0.000123849
0.000123698
0.00012411
0.000124071
0.000124045
0.000124117
0.00012393
0.000124023
0.0001241
0.000124063
0.000123816
0.000124076
0.000124016
0.000124036
0.000123924
0.000124116
0.00012407
0.000123627
0.000123526
0.000123674
0.00012412
0.00012403
0.000123944
0.000124125
0.000123902
0.000124124
0.000123943
0.000123938
0.000124075
0.000124115
0.000124119
0.000124005
0.000124093
0.000123957
0.0001241
0.000124119
0.000124096
0.000124048
0.000124049
0.000123607
0.000124015
0.000123942
0.000123941
0.000124008
0.000123925
0.000124089
0.000120223
0.000124123
0.000124098
0.000123696
0.000124095
0.000123933
0.00012362
0.000124058
0.000124055
0.000124098
0.000123949
0.000122626
0.000124123
0.000123936
0.000123607
0.000123672
0.000124024
0.000124103
0.000124116
0.000124111
7.61441e-06
3.67692e-06
2.07034e-06
3.81535e-05
3.6695e-05
5.65895e-06
3.83026e-05
1.5739e-05
3.72812e-05
1.78046e-05
0.000123941
0.000123931
0.00012411
0.000124107
0.000124113
0.000124111
0.000124105
0.000124102
0.000124109
0.000124109
0.000124071
0.000124114
0.000124109
0.000124115
0.000124049
0.000123415
0.000124116
0.000122151
0.000124092
0.000124097
0.000124042
0.00012395
0.000124097
0.000124109
0.000124105
0.000123518
0.000122501
0.000123073
0.000123474
0.000124101
0.000124106
0.000124034
0.000123915
0.000124101
0.000122988
0.000123333
0.000123916
0.000124096
0.000123791
0.00012409
0.000124101
0.000124074
0.000123762
0.000123905
0.000124099
0.000124108
0.000124104
0.0001239
0.000124087
0.000123895
0.000124117
0.000123936
0.000123934
0.000124113
0.000123726
0.000123906
0.000123947
0.000123575
0.000124063
0.000123721
0.000124008
0.000124015
0.00012409
0.00012349
0.000123999
0.000123896
0.0001239
0.000124071
0.000123829
0.000123988
0.000123898
0.000123807
0.000123894
0.000124118
0.000123872
0.000124113
0.000123957
0.000124089
0.000123941
0.00012394
0.00012412
0.000123839
0.000124108
0.00012383
0.000123876
0.000123942
0.000123919
0.000123955
0.000123941
0.000123707
0.000123914
0.000123863
0.00012408
0.000123934
0.000123777
0.000124066
0.000123333
0.00012388
0.00012323
0.000123107
0.000123926
0.000123892
0.000123927
0.000123924
0.000123886
0.000124118
0.000123971
0.000124055
0.000123976
0.000123974
0.000123988
0.000124068
0.000123721
0.000124113
0.000123758
0.00012365
0.00012396
0.000124088
0.00012367
0.000124112
0.000124015
0.000124052
0.00012407
0.000123951
0.000123916
0.000123738
0.000123887
0.000123909
0.000123963
0.000124013
0.000124084
0.000124098
0.000124105
0.000123869
0.000123971
0.000124092
0.000124099
0.000124095
0.000123892
0.000124106
0.000123979
0.000124085
0.000123858
0.000124107
0.000123847
0.000124085
0.000123981
0.000123917
1.16398e-05
2.19086e-05
0.00012388
0.000123945
0.000124115
0.000123876
0.000124116
0.000123956
0.000124107
0.000124086
0.000123832
0.00012408
0.000123912
0.000124111
0.000123948
-2.09399e-07
0.000123798
0.00012409
0.000124086
0.000123793
0.000123928
0.000123966
0.000124081
0.000123853
0.000124101
0.000123991
0.000123941
0.000124079
0.000123899
0.000123826
0.000123855
0.000123952
4.74607e-05
0.000124096
0.00012408
0.000123938
0.000124102
0.000124018
0.000123962
0.000123941
0.000123934
0.000124089
0.000123961
0.000123869
0.000123979
0.000123871
0.000124102
0.000123879
0.000123931
0.000123969
0.000124053
1.98687e-05
2.73025e-05
3.42908e-05
9.63639e-06
0.000123919
3.30504e-05
2.60103e-05
0.000124099
1.90698e-05
1.70268e-05
3.8182e-05
7.57063e-06
3.99343e-05
5.59958e-06
4.08289e-05
3.68631e-06
4.28128e-05
1.87508e-06
3.63917e-05
2.3189e-05
2.94372e-05
1.49898e-05
0.000123793
0.000124109
0.000123986
0.000123991
0.000120915
0.00012404
0.000124104
0.000124075
0.000123888
0.00012411
0.000124107
0.000124091
0.000124089
0.000123856
0.000123935
0.00012409
0.000124096
0.000123935
0.000123813
0.000123857
0.000123436
0.000123889
0.000124121
0.000124095
0.000123947
0.000124117
0.000123793
0.000123961
0.000123751
0.000122886
0.00012409
0.0001241
0.00012412
0.000123802
0.000123976
0.000123751
0.000123957
0.000123946
2.6045e-05
2.18714e-05
3.30305e-05
1.16174e-05
0.000124125
0.000123798
1.98148e-05
2.8252e-05
3.55979e-05
9.58472e-06
0.000123937
0.000124044
0.000123894
0.000123904
0.000123939
0.000124055
0.000123848
0.000124086
0.00012402
0.000123129
0.000123909
0.000123876
5.93436e-05
0.000123253
0.000124114
0.000123926
0.000123827
0.000124103
0.000124106
0.000123912
0.000123708
0.000123938
0.000124012
0.000123789
0.000124061
0.000122944
0.00012388
0.000123886
0.000124063
0.000100873
0.000123913
0.000123516
0.000123861
0.000124115
0.000123759
1.08934e-05
2.11086e-05
3.53628e-05
2.82007e-05
1.36622e-05
5.46487e-08
4.20697e-05
2.68866e-06
4.01519e-05
4.75907e-06
3.9412e-05
6.81138e-06
3.86197e-05
8.85419e-06
3.72856e-05
1.36719e-05
3.17216e-05
3.05844e-05
2.39355e-05
2.52558e-05
1.77625e-05
1.2936e-05
1.5707e-05
0.000124109
0.00010244
0.000123918
0.000123855
0.000124112
0.000124005
0.000124118
0.000123837
0.000123973
0.000124081
0.000124077
0.000124091
0.000123842
0.000123944
0.00012383
0.000124045
0.000123884
0.000124113
0.000123975
0.000123807
0.000123811
0.000123955
0.000123948
0.000124119
0.00012411
0.000124117
0.000124081
0.000124121
0.000123754
0.00012394
0.000124114
0.000123885
0.000124015
0.000123942
0.000123971
0.000123821
0.00012408
0.000124079
0.000123393
0.000121402
0.000123122
0.000123667
0.000123941
0.000123769
0.000123954
0.000124118
0.000124078
0.000123945
0.000123555
0.000123537
0.000124114
0.000124083
0.000123962
0.000124049
0.000123592
5.83261e-05
4.01053e-05
0.000124055
0.000124072
0.000123434
0.000122778
0.000123925
0.000123658
0.000123404
0.000123939
0.000123829
0.0001241
0.000123969
0.000123997
0.000119022
5.44646e-05
0.000123966
8.12339e-05
1.86173e-06
-3.80635e-07
0.000123935
0.000123906
0.000124082
0.00012412
0.000124108
0.000124114
0.00012411
0.000123921
-2.30727e-06
0.000122861
0.000123957
0.000124062
0.000122028
0.000124112
0.000124113
0.000122323
0.000124035
0.000124083
0.000121718
0.000124114
7.63642e-05
0.000124111
0.00012369
0.000124075
0.000122405
0.000123644
0.000123694
0.000123968
0.000124116
0.000124069
0.000124112
0.000124123
0.000123947
0.000116203
)
;

boundaryField
{
    back
    {
        type            empty;
    }
    ingreso
    {
        type            zeroGradient;
    }
    salida
    {
        type            fixedValue;
        value           uniform 0;
    }
    front
    {
        type            empty;
    }
    defaultFaces
    {
        type            zeroGradient;
    }
}


// ************************************************************************* //
