/*--------------------------------*- C++ -*----------------------------------*\
  =========                 |
  \\      /  F ield         | OpenFOAM: The Open Source CFD Toolbox
   \\    /   O peration     | Website:  https://openfoam.org
    \\  /    A nd           | Version:  7
     \\/     M anipulation  |
\*---------------------------------------------------------------------------*/
FoamFile
{
    version     2.0;
    format      ascii;
    class       surfaceScalarField;
    location    "52";
    object      phi;
}
// * * * * * * * * * * * * * * * * * * * * * * * * * * * * * * * * * * * * * //

dimensions      [0 3 -1 0 0 0 0];

internalField   nonuniform List<scalar> 
1111
(
6.43312e-09
1.32342e-08
-1.5795e-08
-3.87229e-09
6.5212e-09
-1.17868e-08
1.16987e-08
-1.47218e-08
5.04299e-09
9.34879e-09
3.30057e-10
4.42263e-10
-5.18193e-10
-1.41917e-08
1.42676e-08
-1.40971e-08
1.38473e-08
6.92046e-10
-1.62989e-09
1.48786e-08
2.17981e-09
-3.85285e-09
9.75019e-09
-1.06755e-08
4.77814e-09
-6.68618e-09
-1.26169e-08
1.25813e-08
6.72174e-09
-5.04985e-08
-2.58935e-08
7.63921e-08
-8.10748e-09
7.57592e-09
7.05277e-09
3.57348e-09
3.44956e-10
-3.65193e-09
-2.66503e-10
1.56076e-08
-1.58835e-08
-2.30078e-08
2.32837e-08
-9.62888e-09
-7.93768e-09
8.78642e-09
8.78014e-09
-3.52383e-08
1.75824e-08
-3.23441e-08
5e-08
9.53432e-09
-1.94174e-09
-1.42788e-08
-1.89668e-09
2.54923e-09
-3.74055e-09
3.08801e-09
-3.74031e-09
1.32798e-08
1.9432e-09
-1.14827e-08
8.85059e-09
-2.36222e-09
-1.50335e-08
8.54516e-09
3.77291e-08
-3.05866e-08
-7.1425e-09
-1.93431e-08
1.18643e-10
1.74427e-08
1.78183e-09
-7.46522e-10
4.04459e-09
-1.78986e-08
1.46005e-08
-6.12174e-08
-3.96277e-09
6.51801e-08
1.62728e-10
-1.30707e-09
-3.67834e-10
1.51218e-09
-1.33357e-09
-1.35101e-08
-1.80931e-10
-3.23084e-10
2.85987e-10
2.18029e-10
-1.0091e-08
-8.17397e-09
1.25429e-08
5.72207e-09
7.32714e-10
-2.15167e-09
-8.4609e-09
9.87985e-09
8.01293e-09
9.50523e-10
-8.91058e-09
-5.28778e-11
-2.84078e-09
-7.82577e-09
1.08828e-08
-2.1628e-10
1.13663e-08
-5.75241e-10
-1.94052e-09
-9.99734e-10
9.78369e-10
7.75508e-11
-5.61861e-11
-2.87172e-10
8.7301e-10
4.46119e-10
-1.03196e-09
-6.00221e-10
-4.16835e-11
6.3943e-10
2.47469e-12
1.47747e-11
-1.01316e-09
9.87267e-11
8.99661e-10
-5.5588e-11
-9.29372e-10
7.86367e-10
-1.84118e-08
-1.71776e-09
-5.10456e-10
5.56803e-11
-1.45446e-10
1.34132e-08
-1.32786e-08
3.90995e-09
-4.27754e-10
6.38859e-10
4.05033e-10
-6.16138e-10
-4.18222e-10
-2.30628e-09
1.77402e-09
9.50482e-10
-2.14535e-09
9.69002e-09
-1.13975e-08
-3.83006e-10
-1.98206e-10
7.07565e-11
-8.80067e-09
1.01393e-08
-9.44612e-09
1.19878e-08
-1.70429e-08
4.9778e-09
7.72146e-11
8.83153e-11
-2.0795e-10
-2.63371e-10
2.5838e-10
8.94244e-10
-1.74255e-10
-5.96398e-08
7.43122e-08
-1.46724e-08
1.14137e-09
-3.53539e-10
-1.31189e-09
5.24061e-10
1.10663e-09
1.03125e-08
-1.37302e-08
2.31108e-09
-9.79845e-10
7.07522e-09
-8.54494e-09
2.44957e-09
-6.49748e-09
5.7739e-09
5.50377e-09
-4.78019e-09
-7.16818e-09
-2.17611e-09
2.08718e-09
7.25711e-09
-1.82538e-10
-9.09231e-08
9.13085e-08
-2.02815e-10
-2.56425e-10
-8.97632e-08
9.01704e-08
-1.50737e-10
8.30909e-08
-1.50035e-09
1.16217e-10
-8.17068e-08
-3.15054e-09
-2.04944e-10
7.96517e-10
9.13811e-10
-5.68954e-10
4.02301e-09
-1.62721e-09
3.30055e-09
-5.69635e-09
-1.09617e-09
1.00101e-09
-1.49796e-08
6.61531e-09
9.33341e-09
9.87187e-10
-1.00338e-08
-2.86752e-10
-6.28195e-09
1.29758e-08
1.40586e-09
-8.09967e-09
1.43123e-08
-4.15496e-09
3.34999e-09
-1.35073e-08
1.54241e-08
1.73574e-09
-1.73109e-09
-5.27482e-10
-1.99236e-08
-7.17599e-09
2.76271e-08
1.38464e-08
-8.33483e-09
-2.16487e-09
7.69534e-09
-1.18124e-08
-9.94012e-11
2.19736e-10
-1.43223e-09
-3.64846e-08
-2.31552e-08
8.05949e-09
8.44313e-11
3.84393e-09
-6.98998e-09
1.07885e-08
6.34082e-09
-6.82225e-10
3.86028e-10
5.50379e-10
-2.54182e-10
5.91035e-09
-4.64979e-09
3.56842e-09
-4.82897e-09
-6.09005e-10
-7.05564e-10
3.01407e-10
7.91126e-10
-7.34083e-10
-1.2986e-10
-1.0994e-09
9.42088e-10
-1.7698e-08
2.49551e-09
1.47704e-09
1.37255e-08
2.8772e-10
-8.02465e-10
-1.67481e-10
-3.91249e-09
-1.48415e-08
1.05595e-09
5.66786e-09
1.18253e-08
-5.23661e-09
-1.22566e-08
1.64596e-08
5.78068e-10
-1.59271e-08
-1.11056e-09
-7.67068e-10
5.38339e-10
6.14757e-10
-7.6548e-10
4.06016e-10
3.59463e-10
-7.1671e-09
-3.74786e-09
4.41748e-09
-3.42452e-10
5.0203e-10
-1.59578e-10
1.31753e-09
-1.5321e-08
-8.23599e-10
9.11139e-09
-1.04331e-08
-1.11802e-09
-8.9534e-10
1.26441e-08
4.39271e-09
-4.13543e-09
-1.29014e-08
2.25085e-10
6.99623e-09
-7.70819e-09
6.48586e-09
-1.88005e-09
-8.57885e-09
7.88101e-09
2.57789e-09
-1.78299e-09
6.07978e-10
-1.36665e-08
-2.05091e-10
-1.37362e-10
-3.01375e-10
1.10905e-09
-7.97585e-09
7.4337e-10
1.73149e-08
-1.59863e-09
-1.35006e-08
1.47628e-08
-1.26215e-09
1.20337e-08
1.40816e-08
-1.56051e-08
-1.05101e-08
-7.44449e-10
1.28393e-09
-5.39481e-10
1.06877e-09
-1.31525e-09
2.46485e-10
1.73347e-09
-2.33423e-09
6.00751e-10
1.74524e-09
-1.44666e-09
-2.98582e-10
-1.12769e-08
4.68179e-10
1.08087e-08
2.45042e-09
-7.05185e-10
8.89662e-09
-1.52165e-08
6.78997e-09
-8.07119e-09
6.44541e-11
3.91579e-09
-4.06761e-10
-2.79538e-09
2.85983e-09
-7.14637e-09
8.47488e-09
-1.32851e-09
-8.03729e-10
4.13403e-09
6.92712e-10
1.72211e-08
-1.45203e-08
-1.59412e-09
-5.58265e-09
5.21317e-09
-1.25772e-09
-2.4242e-10
6.41366e-09
-6.44006e-09
2.63989e-11
7.03257e-09
4.38155e-09
1.73427e-10
-1.59237e-08
1.04484e-08
1.7509e-08
5.69565e-09
8.33315e-09
8.25713e-09
-6.81697e-09
9.67844e-10
-1.22447e-08
1.0825e-09
4.10066e-10
-1.27694e-08
3.29933e-09
-4.39499e-10
1.27573e-08
-1.21792e-08
-1.52649e-10
-1.02096e-09
-1.3754e-08
7.24193e-09
8.83011e-10
-3.95364e-11
-8.92292e-09
5.16999e-09
-3.11141e-08
-1.25292e-08
-2.56468e-09
1.33983e-09
1.38714e-08
1.09482e-08
-1.06431e-08
-1.41765e-08
1.58596e-08
-3.12401e-09
-1.27356e-08
1.70509e-09
3.87787e-09
-1.38104e-09
-9.65415e-10
-9.97235e-10
1.3177e-09
6.44954e-10
-2.87691e-10
4.15047e-10
4.23023e-10
6.21353e-08
-6.21606e-08
2.53007e-11
6.20543e-08
-6.23584e-08
3.04154e-10
8.36916e-10
6.47506e-08
-6.55796e-08
8.29037e-10
6.41409e-08
6.09669e-10
-2.2317e-10
-6.65284e-08
9.48826e-10
-6.20429e-08
6.19091e-08
1.33775e-10
1.32122e-09
-6.78496e-08
-6.22027e-08
1.59805e-10
1.21976e-08
-1.04277e-09
1.65444e-09
-3.72144e-09
3.10977e-09
4.14895e-10
-1.27644e-09
1.10754e-09
-7.76085e-10
1.47635e-09
-1.7458e-09
1.04553e-09
1.52847e-09
-1.68753e-09
3.78801e-10
-9.37105e-11
-3.34493e-09
3.02493e-09
-2.27818e-09
2.59818e-09
-7.83663e-10
-2.85083e-09
2.59172e-09
-3.80819e-09
-5.6218e-09
6.44015e-10
-7.27441e-10
1.407e-09
1.1769e-09
-6.59439e-09
8.0163e-09
2.95964e-09
2.01951e-08
-4.33552e-09
-8.05966e-10
3.01386e-10
1.1486e-09
-1.00885e-08
-2.63961e-08
5.45735e-09
-4.45193e-09
-3.1133e-09
2.10789e-09
1.31987e-10
1.54923e-11
4.9195e-10
-2.77289e-09
3.4868e-09
8.68477e-09
8.83576e-10
-5.08049e-10
2.20767e-09
-2.48329e-09
2.18738e-09
1.47574e-08
1.31956e-08
-2.69812e-08
3.25002e-08
6.20093e-09
-2.28676e-08
-1.03146e-08
1.81485e-08
-1.77302e-08
1.05298e-08
-2.34966e-10
-5.51206e-11
-1.39745e-09
-1.87505e-09
-2.70149e-09
3.90674e-09
1.4772e-08
-6.02796e-10
-1.35613e-08
-1.10682e-10
-2.75078e-09
1.06305e-11
1.541e-08
1.7496e-08
1.36331e-08
6.89855e-10
-1.55056e-09
-1.27724e-08
-1.81985e-09
6.01591e-09
1.2296e-08
-7.33911e-10
-1.21642e-09
-3.52808e-09
2.73225e-09
3.82076e-09
2.43137e-09
1.42063e-08
4.13106e-09
-1.39447e-08
1.75878e-08
-1.75983e-09
2.79332e-09
-3.59886e-09
1.87918e-09
-4.61497e-09
1.28909e-08
-1.20162e-08
-1.39289e-08
5.55169e-10
8.7588e-09
-1.89553e-09
1.59284e-09
1.70969e-09
-8.70722e-09
5.95693e-10
-4.41764e-09
-6.0499e-09
1.22005e-08
-1.48578e-08
1.35767e-09
1.66372e-09
-2.19222e-09
1.6498e-08
-1.59695e-08
-9.76648e-10
1.4007e-08
2.85205e-09
-4.14634e-09
-1.39222e-08
7.32781e-09
-1.70603e-08
-7.99774e-09
6.55622e-09
5.85391e-09
1.43683e-08
-9.63673e-09
3.13521e-09
9.07941e-09
9.86593e-09
3.84602e-09
-4.12151e-09
2.14686e-08
-1.88531e-08
4.71235e-09
-1.01601e-08
2.22847e-09
5.4772e-09
1.35876e-08
-9.46988e-11
1.25861e-08
-1.34681e-08
-1.74533e-09
2.35713e-09
-1.45764e-09
8.45835e-10
1.08317e-08
-6.38146e-09
7.37512e-09
-1.05641e-08
1.39115e-09
-4.75431e-09
1.12771e-08
-1.17594e-08
-7.48483e-09
9.02846e-09
9.28804e-09
1.26919e-08
9.00559e-10
-1.36872e-08
1.66203e-09
8.32572e-10
-1.09229e-08
-6.71624e-09
1.01543e-08
-1.69166e-09
2.52325e-09
-8.8508e-09
4.78779e-09
-5.13639e-09
1.13313e-08
-3.49074e-09
-1.15133e-08
3.67271e-09
-4.51705e-09
1.10941e-08
2.0683e-09
1.18656e-09
-5.07395e-09
-1.75026e-08
1.03859e-08
1.21906e-08
8.46947e-10
-1.08112e-08
-9.77091e-09
1.55082e-08
1.23157e-08
2.76611e-09
-9.60462e-09
-1.32199e-08
-2.75821e-10
-1.25956e-08
2.29556e-10
-6.86445e-10
1.13397e-08
1.24211e-08
-8.15851e-09
1.63068e-08
-1.56755e-08
3.49979e-09
-4.52153e-10
1.69133e-09
1.24863e-08
-3.86763e-09
-1.25244e-08
-5.1188e-09
9.78839e-10
4.55003e-09
1.1975e-08
-7.36653e-09
7.89883e-10
-1.30992e-09
1.42387e-09
-1.85928e-09
6.06581e-09
2.59326e-08
-4.20687e-10
-1.16299e-08
1.20506e-08
2.82701e-08
-2.20857e-08
2.19422e-08
1.94004e-08
-1.26025e-08
-2.6294e-09
1.48766e-08
1.93698e-10
-1.21009e-08
-3.01022e-10
-6.02726e-09
-1.94589e-09
2.35399e-09
1.66021e-09
-5.10503e-11
-1.08472e-08
1.10701e-08
-1.71802e-10
2.8206e-09
-5.48983e-09
-1.0686e-08
1.03305e-08
-7.70476e-10
-1.048e-08
-5.68512e-11
-1.07475e-08
-2.81344e-09
-1.18652e-08
2.25772e-09
7.80597e-09
5.10044e-09
5.04576e-11
-1.15907e-08
1.14892e-08
6.57844e-10
-8.54612e-09
5.2554e-09
-1.08266e-09
2.61652e-09
-2.9476e-09
-1.29848e-08
-1.31207e-08
1.27505e-08
-1.01611e-08
-1.581e-08
1.00475e-08
9.09498e-09
8.61743e-10
2.58715e-09
-1.4217e-08
1.10218e-08
1.7091e-09
4.02009e-09
3.63151e-10
-6.01856e-10
-3.703e-10
-4.04395e-09
2.66977e-09
-1.3766e-09
3.10916e-10
-3.63457e-10
5.25407e-11
-2.55628e-09
1.27213e-08
2.15066e-09
2.56421e-09
-7.51645e-10
-1.73305e-09
-1.97113e-10
-2.5209e-09
-6.09597e-10
1.27227e-08
9.83353e-09
-4.5525e-10
7.03963e-09
-1.20014e-09
-5.38424e-09
-9.65942e-09
-5.0771e-09
2.4187e-10
6.9046e-11
4.75558e-09
1.33312e-09
-1.68999e-08
-5.44176e-10
-8.95299e-10
-2.53933e-09
9.20614e-10
2.70059e-09
6.19347e-08
-8.81859e-11
-6.18465e-08
6.23532e-08
1.88696e-10
-6.25419e-08
-1.4192e-08
2.70204e-11
1.45533e-08
-3.88363e-10
2.80853e-09
-2.02152e-09
2.75278e-09
1.792e-09
-4.38749e-09
-4.62761e-10
-6.21406e-10
5.0385e-10
-1.36627e-10
5.78123e-10
-4.13178e-10
1.92197e-08
1.1196e-09
-1.55837e-08
-2.73023e-10
-1.95838e-09
1.22173e-08
2.22735e-09
1.75209e-09
5.21649e-09
-1.91759e-09
-7.72391e-08
-2.41765e-08
-4.77892e-09
1.57412e-08
2.31754e-09
-6.08765e-10
-3.28874e-09
-1.31833e-09
6.27563e-10
-5.25653e-10
-1.15708e-08
-3.13707e-10
1.18845e-08
-1.06774e-08
-6.65164e-09
1.06128e-08
-9.31257e-09
8.79492e-09
-5.35153e-11
1.80188e-09
1.10492e-08
-1.08357e-08
-2.13452e-10
7.17229e-10
7.26366e-11
1.00209e-08
9.92277e-10
-1.07761e-09
-2.94235e-10
-1.4242e-08
-5.21647e-10
-1.35149e-08
1.22758e-08
-1.15824e-08
-6.59863e-08
6.4943e-08
1.04334e-09
4.12459e-10
-3.96967e-10
1.17258e-08
-3.79952e-10
1.64953e-11
-2.01155e-09
2.77667e-09
-3.40142e-09
-1.35199e-08
-1.66584e-09
2.57432e-09
-4.74624e-09
-1.38699e-08
1.71627e-09
5.61058e-09
9.47836e-09
-8.8074e-09
-4.09256e-10
2.93033e-11
-9.34614e-09
-1.29308e-08
1.50481e-10
-6.27096e-08
2.38087e-10
6.24716e-08
6.9621e-10
6.34447e-08
-2.25842e-10
-1.13374e-09
-1.43915e-08
1.05467e-10
-6.3376e-08
6.32705e-08
1.81558e-10
-6.29262e-08
6.27447e-08
4.95153e-10
6.1806e-08
1.5201e-10
-6.1958e-08
6.16363e-08
1.69654e-10
-8.79052e-08
8.85142e-08
7.37298e-13
9.33927e-08
-9.31004e-08
-2.66998e-10
-8.66445e-08
-4.31692e-10
9.33535e-08
-1.83972e-10
-8.49298e-08
-7.65845e-10
9.34848e-08
1.72853e-10
-5.17723e-10
1.96057e-09
9.23612e-08
-6.935e-08
6.21495e-08
-6.2332e-08
-6.29661e-08
6.14937e-08
1.42601e-10
-2.99753e-09
2.78214e-09
-1.37293e-08
7.59107e-11
1.65959e-10
2.04837e-09
9.19064e-09
-1.15529e-08
3.82789e-08
-3.44528e-08
-1.65956e-08
1.37987e-08
-7.16575e-11
-2.22517e-10
2.58896e-10
8.7796e-10
-1.68837e-10
3.84995e-10
4.62272e-09
1.03133e-09
-3.77487e-09
-3.38813e-10
3.94493e-10
-2.68057e-10
-2.45274e-09
1.28863e-08
2.28776e-09
-1.44482e-08
-2.46325e-09
-3.59598e-09
5.66947e-09
1.06113e-09
-2.60532e-09
1.41845e-08
-1.19324e-09
-3.40134e-09
4.77641e-09
-8.13298e-09
-1.90701e-08
-1.3169e-08
7.73055e-09
5.99361e-09
-3.0132e-10
-5.26885e-10
3.18219e-09
1.44079e-08
2.0247e-09
-1.55394e-09
-4.58241e-10
5.01276e-10
-2.85455e-10
1.59966e-08
-4.828e-10
-1.58276e-08
-2.44767e-09
-1.78324e-09
2.94677e-10
-2.25157e-10
3.65956e-09
-1.7331e-08
5.97092e-10
-1.66855e-09
-2.2847e-09
-2.40191e-09
1.53047e-08
-9.0602e-08
-1.3958e-10
9.16887e-08
-1.91489e-10
-8.91791e-08
-4.78626e-10
9.31062e-08
-2.73606e-10
-9.29208e-08
-6.0893e-10
-1.7648e-09
1.6335e-08
9.19911e-08
-1.93536e-10
3.1277e-11
-2.20083e-10
1.04181e-08
2.42222e-09
-8.74051e-09
-1.19543e-08
-5.66742e-09
8.46546e-09
1.39488e-09
-6.90071e-09
-6.23871e-09
9.02652e-09
-1.79742e-10
1.01598e-08
1.93448e-08
-1.77323e-08
3.03965e-09
-1.24973e-08
3.01256e-09
-6.99497e-08
3.96341e-09
-2.03502e-08
-1.29722e-08
-5.75876e-10
-5.91804e-09
-1.53463e-08
9.1635e-09
-1.52296e-08
5.4193e-10
4.57843e-10
-1.60539e-09
-1.62505e-08
1.68037e-08
8.41045e-09
-8.6154e-09
-5.32364e-09
1.50856e-08
-1.70655e-09
8.05417e-10
-1.3572e-09
4.3123e-10
1.20061e-08
3.361e-09
7.09512e-08
-1.80348e-08
8.89749e-10
-1.47572e-08
-2.85269e-10
-3.3255e-10
-1.4071e-10
6.09588e-08
-6.12325e-08
-6.33447e-08
-6.31198e-08
-6.25583e-11
-2.6123e-10
-9.2597e-08
-6.04606e-08
6.24212e-08
6.50592e-08
-6.02878e-08
6.45415e-08
-6.04718e-08
6.37756e-08
-6.07388e-08
6.33439e-08
9.23206e-08
3.58052e-10
-6.44237e-09
7.50988e-08
-6.52954e-08
8.69988e-11
-8.69988e-11
1.38248e-09
-3.66827e-10
1.54987e-08
-9.36881e-11
9.36881e-11
4.46547e-10
1.56941e-09
1.38594e-08
1.31481e-08
-2.77832e-09
3.75873e-09
6.3282e-09
1.94542e-09
4.3969e-10
-3.09913e-10
-2.93138e-09
1.44402e-08
1.483e-08
-4.27215e-09
1.17633e-08
2.41763e-10
1.922e-10
2.92533e-09
-9.74833e-10
-1.70708e-09
-5.91583e-09
-1.55561e-10
-4.61903e-10
1.52663e-08
3.35143e-10
1.31397e-10
1.55492e-08
-2.58933e-08
1.7402e-08
2.59577e-09
1.42571e-09
2.35903e-09
-3.64928e-09
1.90911e-08
-1.78008e-08
-1.18092e-10
6.63302e-10
-1.44516e-09
-7.92182e-08
-7.07951e-08
1.43827e-09
-9.38466e-10
7.06694e-10
2.28401e-08
1.8447e-08
-6.45288e-09
1.19694e-10
-4.4428e-09
-2.30652e-09
2.99678e-08
1.56023e-10
1.48179e-08
7.35805e-08
8.60536e-11
5.51211e-10
-2.0263e-10
-2.67282e-10
-3.81823e-09
2.42304e-08
-1.48252e-08
1.1631e-09
-1.39682e-08
-7.89598e-11
2.02305e-08
-2.87092e-08
9.02547e-10
2.32874e-09
-5.62374e-10
)
;

boundaryField
{
    back
    {
        type            empty;
        value           nonuniform 0();
    }
    ingreso
    {
        type            calculated;
        value           nonuniform List<scalar> 
14
(
-1.54286e-08
-1.54288e-08
-1.54288e-08
-1.54288e-08
-1.54286e-08
-1.54283e-08
-1.54288e-08
-1.54288e-08
-1.54286e-08
-1.54286e-08
-1.54288e-08
-1.5428e-08
-1.5428e-08
-1.54286e-08
)
;
    }
    salida
    {
        type            calculated;
        value           nonuniform List<scalar> 2(1.01416e-07 1.14584e-07);
    }
    front
    {
        type            empty;
        value           nonuniform 0();
    }
    defaultFaces
    {
        type            calculated;
        value           uniform 0;
    }
}


// ************************************************************************* //
