/*--------------------------------*- C++ -*----------------------------------*\
  =========                 |
  \\      /  F ield         | OpenFOAM: The Open Source CFD Toolbox
   \\    /   O peration     | Website:  https://openfoam.org
    \\  /    A nd           | Version:  7
     \\/     M anipulation  |
\*---------------------------------------------------------------------------*/
FoamFile
{
    version     2.0;
    format      ascii;
    class       volVectorField;
    location    "52";
    object      U;
}
// * * * * * * * * * * * * * * * * * * * * * * * * * * * * * * * * * * * * * //

dimensions      [0 1 -1 0 0 0 0];

internalField   nonuniform List<vector> 
591
(
(0.000821318 -3.29968e-05 1.21841e-18)
(0.000806525 -2.88217e-05 -6.63404e-19)
(0.000855583 -2.75663e-05 5.69229e-20)
(0.000850474 -2.73792e-06 -1.49189e-19)
(0.000833382 1.02604e-05 2.25264e-19)
(0.000799503 -4.0098e-05 -1.39679e-19)
(0.000549758 -0.000332769 8.06401e-19)
(0.000801068 2.51839e-06 2.06553e-18)
(0.00573729 0.0024934 9.87773e-19)
(0.000792153 -1.55899e-05 2.44749e-18)
(5.2228e-05 0.000173684 1.21852e-18)
(0.00091856 0.00136517 9.41112e-21)
(0.000796774 7.1457e-06 1.31325e-18)
(0.00160188 0.00237889 -7.87919e-19)
(0.000802583 5.19813e-06 -4.38337e-19)
(8.54699e-05 -0.000225278 2.51536e-22)
(0.000134127 0.000676177 7.05213e-19)
(0.000819921 4.95606e-05 -4.90108e-19)
(0.00194152 0.000384628 4.73103e-19)
(0.00135445 0.000260335 -2.47211e-19)
(0.000833049 -3.28162e-07 3.7208e-19)
(0.00339997 0.00655879 -8.15154e-20)
(3.03197e-05 7.2834e-05 2.71025e-19)
(0.000832839 -6.57519e-06 -4.50327e-19)
(1.40375e-05 -1.86939e-05 3.59049e-19)
(0.000763725 2.93282e-05 0)
(9.19063e-05 0.000477631 1.60003e-19)
(0.000530677 1.90028e-05 -1.78904e-19)
(0.000750143 4.99657e-05 1.14994e-18)
(0.000815647 3.33378e-05 5.90343e-19)
(6.16009e-05 -2.61475e-06 -3.91739e-24)
(3.82014e-05 -4.96565e-05 3.52295e-19)
(4.06719e-05 -3.47544e-06 -4.64105e-20)
(4.92932e-05 -1.13359e-05 0)
(5.83409e-05 -1.35401e-05 1.13185e-18)
(0.00117219 0.000128803 1.79947e-19)
(3.49047e-05 -6.09787e-06 4.47296e-20)
(0.000826973 1.08949e-05 3.2248e-23)
(2.98479e-05 4.65695e-05 2.66115e-19)
(2.99956e-05 -0.000121027 -8.54894e-19)
(0.000611157 -0.000202057 9.59569e-19)
(2.84479e-05 -7.81228e-06 4.54976e-20)
(0.000795523 -3.20685e-06 -1.57653e-18)
(0.000827538 3.35463e-05 -6.88426e-19)
(1.9863e-05 -9.29846e-06 0)
(5.83617e-05 8.57971e-06 8.52148e-20)
(0.0013391 0.00450937 8.93172e-19)
(8.00015e-05 1.89543e-05 8.63897e-20)
(0.000797682 1.8985e-05 0)
(0.0003749 -0.0001843 6.77993e-19)
(0.000376729 0.000276932 5.12056e-21)
(0.000389469 5.86862e-05 -1.00412e-18)
(0.00634808 0.010942 -7.68409e-19)
(0.00622496 0.0107971 1.52802e-20)
(0.00561428 0.0103806 1.45576e-18)
(0.000811031 1.86468e-05 0)
(7.00959e-05 3.3888e-05 0)
(0.000318578 2.32424e-05 1.14906e-23)
(6.66484e-05 1.25627e-05 -3.46569e-19)
(0.000818431 -8.0662e-06 0)
(0.00062455 2.81899e-05 3.17679e-19)
(0.000826265 4.43671e-07 2.21147e-18)
(0.00078993 1.88332e-05 -5.44681e-19)
(0.000797512 1.76836e-05 -3.15864e-19)
(0.00171759 0.000469075 5.42362e-19)
(0.000791903 5.95432e-06 -1.15486e-18)
(0.000822605 8.22487e-06 -5.24214e-19)
(8.61634e-05 9.07537e-08 -1.73467e-19)
(0.000686277 0.00227118 0)
(0.000827977 2.8975e-05 0)
(0.000769319 1.52197e-05 -1.38926e-18)
(4.04802e-05 1.75707e-05 0)
(0.000285628 0.000273792 3.26934e-19)
(4.4599e-05 -1.84664e-05 0)
(4.53707e-05 -6.26456e-06 1.59524e-19)
(2.21072e-05 -4.9613e-05 -3.36786e-20)
(0.000781427 7.24851e-05 2.47137e-19)
(4.70781e-05 1.20804e-05 0)
(0.000793412 5.70519e-05 4.47477e-19)
(0.000763262 0.000295225 2.10794e-19)
(0.000965075 6.03468e-05 -3.98078e-20)
(4.54799e-05 2.50875e-05 -4.52007e-20)
(6.61169e-06 -3.02499e-05 0)
(0.000427759 0.00022008 1.70235e-19)
(2.7806e-06 2.68126e-05 0)
(0.000777217 3.22006e-05 -6.0879e-19)
(0.000586793 -0.000120297 0)
(6.91023e-05 9.00453e-08 -1.74535e-19)
(4.53551e-06 -4.11861e-05 0)
(0.00082071 0.000245187 -3.41379e-19)
(4.601e-06 -1.83256e-05 0)
(0.000418791 0.000324432 -1.28004e-23)
(0.000521375 0.000114256 0)
(0.000799407 4.82318e-05 -3.90563e-24)
(2.96447e-06 1.7441e-05 -4.21849e-20)
(0.00044516 -4.59689e-06 1.76415e-18)
(0.00102379 7.26423e-05 4.16177e-20)
(0.000872474 4.29779e-05 6.40948e-22)
(0.00073257 0.00065708 2.69577e-19)
(6.26607e-06 5.48938e-05 0)
(4.14618e-06 -6.82755e-05 -3.12474e-19)
(-6.97256e-06 -0.000127683 -1.09978e-18)
(3.30772e-06 8.63741e-05 -5.96365e-19)
(0.000649536 -1.49066e-05 0)
(7.20436e-06 0.00011205 0)
(0.000800725 1.75015e-05 2.20323e-18)
(0.000777997 2.04751e-05 1.52857e-18)
(0.000413316 -6.13304e-05 0)
(4.58767e-05 0.000224114 -8.95547e-19)
(-1.02473e-06 0.000181755 4.96584e-19)
(6.75397e-05 0.000428327 6.25159e-19)
(0.000301386 9.29767e-05 -9.37363e-19)
(0.000803442 1.83591e-05 1.37389e-19)
(0.000263342 -2.66462e-05 5.31394e-19)
(3.9466e-06 3.75372e-05 0)
(2.60646e-05 0.000298105 -1.094e-18)
(0.000316929 0.000326692 -1.61746e-19)
(4.29928e-06 -5.43554e-05 1.46623e-19)
(0.000668068 0.000810883 0)
(0.000364333 0.000390787 5.7457e-20)
(0.000810275 7.31736e-06 1.07059e-18)
(0.000797197 2.01028e-08 -2.68481e-18)
(7.5417e-06 -7.93325e-05 0)
(0.000693616 -2.71809e-05 -1.1236e-19)
(0.000319649 -9.16731e-05 1.24365e-18)
(0.00265347 0.000796544 -3.35972e-19)
(3.51312e-06 0.000142938 -6.13195e-19)
(8.02672e-07 0.00017432 1.61936e-18)
(0.000750255 2.01599e-05 -3.89809e-20)
(6.77769e-05 -1.14843e-05 -7.50411e-19)
(0.000800143 2.37525e-05 -3.8862e-19)
(0.000798098 2.61772e-05 -4.10306e-20)
(4.32452e-05 0.000345047 -5.96823e-19)
(0.000477778 7.41378e-05 -4.94083e-19)
(5.24158e-05 -2.75795e-06 1.56205e-19)
(0.00082562 1.91821e-05 -1.08555e-18)
(0.00158398 0.000232498 -1.13649e-18)
(3.31338e-06 6.9066e-05 4.96452e-19)
(0.000806278 1.85324e-05 -4.94915e-19)
(0.000899195 0.00053974 -7.85339e-20)
(0.000138413 0.000805316 0)
(0.000571231 6.60613e-05 0)
(0.000273675 5.92998e-05 -1.61017e-18)
(6.54613e-05 6.14678e-05 -1.37452e-18)
(3.26837e-05 2.20995e-05 0)
(0.00424709 0.00740005 -1.0197e-20)
(0.00422543 0.00737144 3.16359e-20)
(0.00442756 0.00757421 -4.96285e-21)
(0.00420668 0.007736 0)
(0.00419914 0.00760135 5.77151e-19)
(0.0042443 0.00740095 -9.1959e-20)
(0.00421021 0.00804407 4.84348e-19)
(0.00428954 0.00742155 0)
(0.00420825 0.00853788 6.16645e-19)
(0.00432628 0.00745004 2.23885e-19)
(0.000815832 -2.57701e-07 -1.37233e-18)
(0.000760874 5.06466e-05 0)
(0.000215856 5.99677e-05 1.27726e-19)
(5.30187e-05 1.75481e-05 8.72125e-20)
(8.03823e-05 4.78874e-05 6.80233e-19)
(0.000108735 4.49497e-05 -3.41775e-19)
(0.000103881 8.88444e-06 0)
(5.12174e-05 5.9643e-06 8.18621e-20)
(0.00020522 0.000138455 0)
(0.000167862 4.88756e-05 -5.24418e-20)
(0.000340184 0.000226489 -5.09395e-21)
(5.79531e-05 4.54858e-05 -4.37793e-19)
(9.35692e-05 3.06447e-05 -8.52741e-20)
(9.25597e-05 6.52527e-05 1.31235e-21)
(0.000251842 0.000369446 -6.66351e-19)
(0.000108221 0.00101779 0)
(4.37369e-05 5.50988e-05 3.4317e-19)
(0.000206202 0.00176023 0)
(0.000206998 0.000256916 7.04856e-19)
(4.1133e-05 -4.41747e-06 1.11452e-19)
(0.000476352 0.000166759 -1.72352e-19)
(0.000752981 2.64162e-05 -1.92477e-18)
(4.56411e-05 -8.6372e-07 4.28014e-24)
(0.000151877 2.97991e-05 2.24657e-19)
(0.000242263 9.88528e-05 -8.996e-20)
(0.000880259 0.000709757 3.35035e-19)
(0.000719076 0.00162983 -9.23799e-21)
(0.000384117 0.00142903 -9.39119e-21)
(0.00102044 0.000552784 0)
(0.000107299 -1.31255e-05 1.11908e-18)
(0.000119752 2.04655e-05 -4.43287e-20)
(0.000442846 -0.000283559 -1.13603e-18)
(0.000807111 3.34534e-05 0)
(0.000183735 1.14363e-05 3.63406e-19)
(0.000301127 0.00132357 0)
(0.00106158 0.000766687 -7.30411e-20)
(0.000824404 3.63985e-05 -1.86339e-19)
(8.25342e-05 -1.98826e-05 -3.00082e-19)
(0.000818751 0.000320062 -2.08114e-20)
(6.32815e-05 -2.16259e-05 -5.99703e-19)
(0.000226015 0.000179615 8.6412e-20)
(0.00022811 0.000311151 -3.45106e-19)
(0.000878141 0.000243916 0)
(0.000807328 4.80985e-05 0)
(0.000261108 0.000143344 1.76898e-19)
(0.000234515 9.71003e-06 1.49417e-24)
(0.000184421 0.000209634 0)
(0.00028709 0.000654633 -5.55848e-21)
(0.000340245 6.12957e-06 0)
(0.000359186 0.000601433 0)
(0.000111133 8.6355e-05 -1.34712e-21)
(0.000810001 2.03145e-05 -9.39991e-19)
(0.000809969 1.66063e-05 7.86601e-19)
(0.00013103 6.22083e-05 -1.49902e-19)
(0.000949744 0.000152835 8.50938e-20)
(0.000831713 4.5464e-05 3.32968e-19)
(0.000810702 2.23582e-05 -2.93347e-19)
(0.00100801 0.000408517 0)
(0.00043321 0.000124012 6.24633e-19)
(0.000890989 0.000318037 2.09205e-20)
(0.000567508 0.000159997 0)
(0.000271608 0.000446121 4.09748e-19)
(0.000260495 0.000221229 -8.44413e-20)
(0.00109323 0.000375621 -7.82277e-19)
(0.000613041 0.00010855 -1.79353e-19)
(0.000800971 7.40171e-05 -7.45532e-21)
(0.000834052 2.95449e-05 9.38329e-20)
(8.94402e-05 -8.86466e-05 -1.982e-18)
(0.000732992 0.000382405 2.19299e-19)
(0.00065767 6.18768e-05 2.30684e-20)
(0.000699863 0.000278304 1.58948e-23)
(0.000722992 0.000457101 -4.09734e-19)
(0.000840067 3.61127e-05 9.06678e-20)
(7.38416e-05 8.3765e-05 0)
(0.00064967 0.000417052 -4.65917e-20)
(0.000184421 0.00010112 0)
(0.000372881 0.000502484 -2.64904e-19)
(0.000309325 0.000172629 0)
(0.000668299 0.000202943 3.55345e-19)
(0.000642155 0.000261793 -4.37391e-20)
(8.23489e-05 0.000106794 6.1935e-19)
(0.000874018 9.17224e-05 -1.62111e-18)
(6.04972e-05 2.40533e-05 2.57274e-19)
(0.000877735 6.02137e-05 -1.68226e-18)
(0.000832756 8.40915e-05 1.63146e-19)
(0.000805297 2.83978e-05 1.89969e-18)
(0.000806124 2.85427e-05 -1.30033e-19)
(0.000727233 7.37229e-05 0)
(0.000806257 2.9735e-05 8.9595e-19)
(0.000947736 0.000229223 -4.27248e-19)
(0.000762316 8.76458e-05 -4.83824e-19)
(0.000773702 0.000227996 -8.81522e-20)
(0.000224171 -0.000144153 -2.08009e-18)
(0.000735162 8.32947e-05 8.87172e-19)
(0.000637888 0.000597026 0)
(0.000106707 -0.000110401 0)
(0.00120697 0.000470269 4.97261e-19)
(0.000679931 -6.77957e-05 -3.23485e-18)
(0.00133003 0.000428191 5.76097e-19)
(0.00123179 0.000719431 -6.38436e-20)
(0.00080312 3.36756e-05 -2.10927e-19)
(0.000827959 6.84913e-05 -1.42435e-18)
(0.000813553 2.03278e-05 1.55949e-18)
(0.000814632 3.00133e-05 9.67366e-20)
(0.000666166 0.000349429 -4.40536e-20)
(0.000103354 0.000128886 5.33912e-24)
(0.000738401 -4.91684e-05 2.65186e-19)
(0.000227269 -0.00024117 -7.33195e-19)
(0.000613879 0.000188576 0)
(0.000696937 3.67785e-05 9.90753e-20)
(0.000676845 1.03652e-05 -3.80944e-19)
(0.00038441 0.000174818 3.93477e-20)
(0.000798572 0.000501496 -1.65522e-19)
(0.000151172 8.0793e-05 2.83834e-25)
(0.000807157 0.00040554 0)
(0.000971469 0.000320971 4.15908e-20)
(0.000744294 -8.36264e-05 -6.1653e-19)
(0.000343783 0.000110791 4.97937e-19)
(0.0009007 0.000422262 0)
(5.17064e-05 3.34409e-05 1.33753e-19)
(0.000476544 0.000270712 2.14012e-19)
(0.000479336 -0.000130808 -7.09615e-19)
(0.000153619 -0.00014899 -1.05938e-18)
(0.000819517 2.56554e-05 -4.78154e-19)
(0.000787681 -0.000102641 -1.94146e-19)
(0.000555642 0.000726216 -1.1747e-18)
(0.000838968 4.54207e-05 -6.72728e-20)
(0.000675963 -2.76249e-05 1.26183e-18)
(0.000688575 9.92283e-05 2.2786e-20)
(0.000522947 0.000213503 -1.65732e-19)
(3.55893e-05 -2.32764e-05 -8.76109e-20)
(0.000178273 -3.54664e-05 2.40686e-18)
(2.26045e-05 8.59316e-07 -1.94887e-19)
(0.000813734 0.000105294 3.63643e-19)
(0.000650113 0.000137832 0)
(0.000194041 -7.16642e-05 -1.04841e-18)
(0.000125968 -1.20225e-05 3.13004e-19)
(0.00011802 -3.3584e-05 7.18664e-24)
(0.000789957 0.000109409 -3.19367e-19)
(0.000156556 -7.69865e-06 0)
(0.000577793 0.000243292 0)
(0.000111156 0.000334143 -3.62949e-19)
(0.000851718 9.95146e-05 2.10032e-18)
(1.8433e-05 1.3866e-06 0)
(0.0008694 5.05779e-05 0)
(4.80955e-05 -2.64142e-05 0)
(0.00081396 4.00507e-05 -4.45445e-21)
(0.000794722 -5.45067e-05 0)
(0.0042598 0.00740612 8.06927e-20)
(0.0043619 0.0074859 1.43293e-19)
(0.000843228 2.13467e-07 0)
(0.000774914 -5.38673e-05 8.11409e-19)
(0.000153301 0.000129791 1.49251e-19)
(0.00084616 7.22652e-05 8.08141e-19)
(0.000131835 0.000106398 2.34465e-20)
(0.000770179 -3.34872e-05 6.25343e-19)
(3.72609e-05 1.07571e-05 0)
(3.19698e-05 -1.50201e-05 -4.48622e-20)
(0.000886027 5.03525e-05 -4.86695e-19)
(3.85224e-05 -3.39585e-05 -6.69997e-19)
(0.000747873 0.000119223 -4.23382e-20)
(0.000167999 0.000167443 -1.88152e-19)
(0.000812555 2.21891e-05 0)
(0.00468255 0.00815393 9.02161e-22)
(0.000171557 0.000785487 3.33652e-19)
(0.00012635 -5.31419e-05 -9.14807e-19)
(6.69976e-05 -3.51794e-05 -1.1691e-18)
(0.000687273 1.56949e-05 1.89922e-20)
(0.000577124 0.000411454 0)
(0.000412104 0.000439692 -2.564e-19)
(9.52995e-05 -5.68257e-05 1.18401e-18)
(0.000644614 1.30998e-06 7.68361e-20)
(4.49329e-05 2.30954e-06 4.07215e-19)
(0.00067982 -5.75266e-05 1.17207e-18)
(0.000808333 3.08806e-05 -5.96226e-19)
(7.51941e-05 -5.54707e-05 1.70969e-18)
(0.000841343 -1.23831e-05 -5.16795e-24)
(0.000663681 7.82097e-06 -3.76641e-20)
(0.000860748 6.50862e-05 0)
(0.000829493 3.35104e-05 0)
(0.00591751 0.00723668 2.5941e-19)
(2.36792e-05 -1.27701e-06 -1.19607e-19)
(0.000146381 -9.13709e-05 7.73161e-19)
(0.000715709 0.00012107 -6.96681e-19)
(2.71765e-05 -3.47982e-07 2.01545e-19)
(0.000598918 -3.11653e-05 -7.24076e-19)
(0.000733693 3.52549e-05 1.55861e-18)
(0.000696377 0.000158282 -3.55551e-19)
(0.000807217 -1.35704e-05 3.59041e-19)
(8.47497e-05 -3.18127e-05 1.11639e-18)
(0.00079682 8.38426e-06 -3.22815e-19)
(0.000860319 4.47903e-05 0)
(0.000534448 0.000303215 4.2114e-20)
(0.000847368 4.87269e-05 -9.40611e-19)
(2.40065e-05 1.58175e-06 9.11369e-19)
(0.000844381 4.63159e-05 9.61404e-19)
(0.000849833 -3.50975e-06 -9.59723e-19)
(0.000732526 4.06104e-07 -5.69395e-19)
(0.000503553 -6.25625e-05 -5.25827e-19)
(0.00432909 0.00745239 2.4694e-19)
(0.00422388 0.00752946 -2.53555e-19)
(0.0042216 0.00758774 2.66711e-19)
(0.00425573 0.00741043 1.97923e-19)
(0.000845936 -1.69436e-05 1.43909e-19)
(0.00447511 0.0075113 0)
(0.00440307 0.00751656 -3.86563e-19)
(3.61891e-05 -1.77459e-07 -9.98296e-19)
(0.00417074 0.00746936 -6.33526e-20)
(0.00414613 0.00743241 -2.21483e-19)
(0.00602969 0.010607 0)
(0.00654031 0.0111875 3.71172e-20)
(0.00600971 0.0105767 0)
(0.006556 0.011211 1.30838e-19)
(0.00599706 0.0106009 2.6967e-19)
(0.00659254 0.0112276 1.24586e-20)
(0.00593569 0.0106137 -7.76665e-19)
(0.00662272 0.0111465 8.1518e-21)
(0.00390307 0.00920249 -1.90905e-19)
(0.00418721 0.00748848 3.89407e-21)
(0.00423841 0.00755297 7.93393e-20)
(0.00415051 0.00743463 4.11979e-20)
(0.000864253 0.0001868 4.46896e-20)
(1.32432e-05 1.89782e-06 0)
(0.000681625 -0.000136321 0)
(0.000683061 4.33751e-05 0)
(0.00244166 0.0011128 4.2512e-21)
(0.000748314 -3.07163e-05 1.72651e-19)
(4.34161e-05 6.69002e-06 4.54199e-20)
(1.43501e-05 -3.05331e-05 1.6538e-18)
(0.000843462 1.88772e-05 0)
(2.99724e-05 1.39805e-05 -1.91788e-19)
(0.000141929 0.000227378 0)
(2.35411e-05 -1.18052e-06 0)
(1.93987e-05 -1.67413e-06 0)
(0.000810781 0.000131131 1.13631e-20)
(0.000808402 -1.28616e-05 1.7742e-19)
(3.46308e-05 0.000288908 -1.96366e-23)
(0.000159336 0.000276008 -1.84244e-18)
(0.00059659 0.00033297 -8.57251e-20)
(0.000894247 0.000117872 5.99137e-19)
(0.000689718 -0.000287398 6.73503e-19)
(0.000356681 0.00110913 0)
(0.000461012 0.00057196 2.71593e-18)
(9.26214e-05 0.000150419 -1.80346e-18)
(2.86331e-05 2.85636e-07 0)
(0.000817894 -4.79331e-05 3.63475e-20)
(1.82576e-05 3.94552e-05 1.64501e-18)
(0.000900271 2.86482e-05 2.71341e-19)
(9.84856e-06 -6.45128e-05 3.79404e-18)
(0.000929391 3.92879e-05 -2.69152e-19)
(0.00137646 0.000150292 7.47683e-19)
(3.96868e-05 -1.15608e-05 8.25983e-20)
(4.06793e-05 5.2565e-06 -8.59289e-19)
(5.00213e-05 0.000148333 0)
(0.000900054 7.63551e-05 5.9829e-19)
(0.000490027 0.000368954 2.3721e-19)
(0.000711217 1.79093e-05 -3.89167e-20)
(0.000768013 -9.12165e-06 2.56921e-19)
(0.000732166 -0.000205421 0)
(0.00632125 0.0108968 -1.68028e-19)
(0.00637893 0.0109743 4.05754e-19)
(0.00616036 0.010732 -6.18345e-19)
(0.00650117 0.0111324 -8.09881e-20)
(3.70682e-05 0.000122532 8.00785e-19)
(0.000907478 5.85277e-05 1.49567e-22)
(0.00641148 0.0110067 -3.86394e-19)
(0.00628219 0.0108468 5.48361e-19)
(0.00608071 0.0106735 -4.16793e-19)
(0.00652173 0.011165 -6.81374e-20)
(8.29906e-05 0.000524515 -2.01888e-20)
(0.00011745 -0.000202379 -7.93063e-19)
(0.000710637 -1.81163e-05 -7.60179e-19)
(0.000718011 0.000221033 0)
(0.000798105 1.29337e-06 0)
(0.000184351 0.000392973 3.36391e-19)
(0.000595193 0.000527537 -5.41803e-19)
(1.38779e-05 -2.24662e-06 1.78457e-19)
(0.000204573 0.000465663 -7.38597e-19)
(0.00100043 0.000969811 -1.12748e-19)
(0.000734939 0.000167688 0)
(0.000781717 0.000178686 1.31067e-19)
(0.00635629 0.00587387 1.13128e-18)
(0.000738403 0.00112934 8.26879e-20)
(4.14207e-05 4.0966e-05 -7.44941e-20)
(0.000814652 2.55956e-05 0)
(0.000875769 2.58991e-05 -3.57047e-20)
(3.88521e-05 4.40864e-06 -1.9675e-19)
(3.34876e-05 5.85916e-06 1.93046e-19)
(0.000828837 2.31087e-05 5.36946e-19)
(0.000964927 0.000105494 6.58746e-19)
(0.000608931 3.62675e-05 0)
(0.000220065 -0.000312907 -3.96313e-19)
(0.000907359 0.000150747 3.89753e-19)
(2.32887e-05 -7.16613e-05 2.03188e-19)
(0.00143798 0.000421668 -2.58051e-18)
(0.000640185 -3.44694e-06 0)
(0.000784424 0.000144778 3.75609e-19)
(9.27571e-05 0.00040194 0)
(0.00118453 0.00816743 4.62135e-19)
(0.000479649 0.000502916 -1.22485e-18)
(0.000544087 0.000991094 -1.83805e-19)
(0.000873338 2.12348e-05 -1.45967e-19)
(1.54707e-05 2.78833e-05 0)
(0.000930369 7.59e-05 6.1195e-19)
(0.00410728 0.00739569 8.14158e-20)
(0.00417184 0.00747392 4.73005e-20)
(0.00449851 0.00751378 4.54014e-19)
(0.00444428 0.00754071 -3.28623e-19)
(0.00647497 0.0111093 8.10661e-20)
(0.00391539 0.00714682 -9.60888e-22)
(0.00550678 0.00779426 -5.64694e-19)
(0.00409852 0.00737248 5.21576e-21)
(0.00518689 0.00785451 5.11605e-19)
(0.00408045 0.00734097 -4.86864e-20)
(0.00495199 0.00771408 0)
(0.00408604 0.00736521 -8.56117e-20)
(0.00474066 0.00758564 4.92473e-19)
(0.00409912 0.00737644 8.74947e-20)
(0.00457352 0.00752556 0)
(0.00428354 0.00742009 1.39744e-19)
(0.00423974 0.00759924 5.8013e-19)
(0.00446666 0.00752597 -5.54413e-19)
(0.00438731 0.00750425 3.71331e-19)
(0.00422857 0.00752529 2.87781e-19)
(0.00643045 0.011043 -4.97322e-21)
(0.00411842 0.00740165 3.11566e-20)
(0.00645853 0.0110727 0)
(2.7094e-05 7.26053e-06 -1.89925e-19)
(0.00199605 0.00654207 2.28427e-19)
(0.000842978 -3.13033e-05 1.09719e-19)
(0.000857974 1.42973e-05 0)
(2.50148e-06 2.33869e-06 -3.99249e-19)
(2.55508e-05 -0.000170255 6.91839e-19)
(2.48189e-05 6.06708e-05 2.08967e-18)
(0.000818421 0.000179313 -9.01099e-20)
(0.000796374 1.10532e-05 7.06689e-19)
(2.6683e-06 -2.49842e-06 3.10099e-19)
(2.30519e-05 -3.87175e-05 -1.8463e-18)
(0.00075763 2.78831e-05 1.6322e-19)
(0.000860295 0.000126453 -3.07853e-20)
(0.000797837 -9.88443e-06 1.46799e-19)
(0.000402695 0.000673939 0)
(7.9107e-05 -0.000152092 1.15126e-18)
(0.000854019 1.34792e-05 1.52447e-19)
(2.16513e-05 2.6194e-05 0)
(0.000109736 0.000565631 -6.31385e-19)
(0.000604395 0.000600865 1.3183e-18)
(0.000330322 0.000739739 0)
(0.000797886 -1.79895e-05 0)
(0.000796867 6.06621e-06 1.17495e-18)
(2.02021e-05 5.22528e-05 -3.5161e-18)
(1.89888e-05 8.78307e-06 3.73751e-19)
(0.000115313 0.000150968 0)
(5.3563e-05 -4.28956e-05 0)
(6.52327e-05 0.000117297 2.01065e-19)
(0.000925295 0.000180536 3.50564e-19)
(0.000799233 1.52178e-05 -1.38973e-18)
(2.46511e-05 3.61893e-05 0)
(0.000507918 2.2895e-05 -6.03329e-20)
(0.000800408 4.04281e-05 -1.56405e-19)
(0.000832209 2.78101e-05 1.05208e-18)
(0.000257916 0.000544326 6.32409e-19)
(0.000859989 0.000153984 0)
(2.42946e-05 -2.73991e-05 5.38866e-19)
(3.57646e-06 -9.41929e-06 -3.2008e-19)
(0.00102003 2.70835e-05 0)
(0.00103306 0.00224885 0)
(0.000979649 -1.66563e-05 0)
(0.000993572 0.000202397 4.27343e-19)
(0.000813825 -2.74864e-05 -2.83711e-19)
(0.000916969 0.00011345 -6.85037e-19)
(0.000797612 3.48992e-06 0)
(4.32667e-05 7.34314e-05 -1.71623e-19)
(0.000173674 0.000329738 1.08145e-18)
(0.000795915 2.35623e-05 -2.63386e-24)
(0.00107769 0.00020394 -6.69247e-19)
(0.00108945 0.000121176 0)
(3.1354e-06 8.86169e-06 2.51116e-19)
(2.20773e-05 -1.79771e-05 -1.94381e-19)
(0.00060942 3.4588e-05 6.95288e-21)
(2.65362e-05 -9.5051e-05 0)
(0.00104483 0.00025043 9.50254e-19)
(0.00502865 0.00974958 -2.83072e-19)
(0.00312003 0.00962212 1.27214e-18)
(6.23261e-05 -0.000114327 -1.91359e-19)
(6.9363e-05 -7.91715e-05 1.86023e-18)
(0.00119258 0.000234824 1.67193e-19)
(0.00133363 0.00107839 2.34157e-19)
(0.000816187 7.29824e-07 -7.31781e-19)
(0.000207941 0.000951632 -2.38656e-19)
(0.000802067 0.000911301 -2.18647e-19)
(0.000798687 -4.4704e-06 0)
(9.01529e-05 0.000646938 0)
(9.67708e-05 0.000285643 -4.31483e-23)
(0.000726219 -3.43748e-05 -1.68777e-23)
(0.000816865 5.2712e-05 1.50724e-19)
(0.00262671 0.00206643 -1.23184e-18)
(0.00175809 0.00924336 -1.17154e-19)
(0.000831271 3.84812e-05 4.92338e-19)
(0.00633069 0.00404024 -1.75868e-19)
(0.00672076 0.0115576 -1.36508e-20)
(0.00473451 0.00784456 4.93215e-21)
(0.000799989 1.66662e-05 -2.18562e-18)
(0.000829881 2.01126e-05 8.91274e-25)
(1.20048e-05 -9.6424e-06 -3.48143e-19)
(4.7471e-05 9.48918e-05 -3.49397e-19)
(7.22725e-05 0.000277615 8.75696e-19)
(1.31582e-05 1.82968e-05 4.90579e-19)
(8.99166e-05 0.000236195 3.69882e-19)
(0.000821917 3.09274e-05 0)
(0.00534778 0.00949203 1.95052e-20)
(0.00153811 0.000619033 -2.61023e-20)
(0.000820253 2.8729e-05 3.55405e-19)
(4.87139e-05 -8.9245e-05 0)
(0.00184612 0.000740989 5.46241e-19)
(1.14995e-05 9.2259e-06 -2.7025e-19)
(3.65818e-05 3.12712e-05 9.72166e-20)
(0.00131612 0.00138522 6.36581e-19)
(0.0007378 4.27439e-05 1.83181e-19)
(8.20015e-06 -2.45808e-06 -1.70266e-19)
(0.00206551 0.00154874 -1.05642e-18)
(0.000126835 0.000184287 -8.19e-19)
(0.00392096 0.00848715 -1.09123e-18)
(7.88099e-06 2.20196e-06 8.81738e-20)
(0.0001663 -0.000194973 -1.25259e-18)
(5.82167e-05 -5.96644e-05 4.05798e-20)
(0.00153264 0.000969186 0)
(0.00103201 0.00014041 -4.1512e-22)
(0.000453669 0.000852015 -4.02324e-20)
(0.000801756 2.46566e-05 -2.33804e-19)
(8.71735e-05 0.000190592 7.36298e-19)
(4.18515e-05 -6.73114e-05 4.04172e-19)
(2.02614e-05 1.71509e-05 -9.47438e-20)
(3.46798e-05 9.86528e-05 -3.20398e-19)
(0.000200747 -0.000313171 -5.41274e-19)
(0.00325097 0.00344989 2.772e-21)
)
;

boundaryField
{
    back
    {
        type            empty;
    }
    ingreso
    {
        type            fixedValue;
        value           uniform (0.0008 0 0);
    }
    salida
    {
        type            zeroGradient;
    }
    front
    {
        type            empty;
    }
    defaultFaces
    {
        type            noSlip;
    }
}


// ************************************************************************* //
