/*--------------------------------*- C++ -*----------------------------------*\
  =========                 |
  \\      /  F ield         | OpenFOAM: The Open Source CFD Toolbox
   \\    /   O peration     | Website:  https://openfoam.org
    \\  /    A nd           | Version:  7
     \\/     M anipulation  |
\*---------------------------------------------------------------------------*/
FoamFile
{
    version     2.0;
    format      ascii;
    class       volScalarField;
    location    "26";
    object      p;
}
// * * * * * * * * * * * * * * * * * * * * * * * * * * * * * * * * * * * * * //

dimensions      [0 2 -2 0 0 0 0];

internalField   nonuniform List<scalar> 
591
(
0.000124001
0.000124016
0.000124032
0.000123995
0.000123996
0.000124088
0.000124056
0.000124029
0.000116974
0.000124029
0.000124185
0.0001229
0.000124063
0.000119784
0.000124031
0.000124069
0.000123949
0.000124063
0.00012203
0.000123411
0.000123996
-3.5622e-06
0.000124185
0.000123998
0.000124143
0.000124015
0.00012408
0.000124106
0.000124026
0.000124062
0.000124162
0.000124139
0.000124158
0.000124157
0.00012416
0.000123506
0.000124155
0.000124012
0.000124179
0.000124094
0.000124082
0.000124152
0.000124026
0.000124048
0.000124149
0.000124166
0.000119297
0.00012417
0.00012404
0.000124142
0.000124103
0.000124144
2.3849e-05
3.0528e-05
4.78361e-05
0.00012405
0.000124173
0.000124155
0.000124168
0.000124001
0.000124079
0.000124022
0.000124028
0.0001241
0.00012264
0.000124024
0.000124029
0.000124165
0.000120762
0.00012405
0.000124027
0.000124171
0.000124129
0.000124152
0.000124158
0.000124133
0.000123994
0.000124168
0.000124
0.000123916
0.000123782
0.000124173
0.000124136
0.000124103
0.000124181
0.000124007
0.000124098
0.000124163
0.000124127
0.000123887
0.000124141
0.000124072
0.000124098
0.000124008
0.000124179
0.000124137
0.000123713
0.000123608
0.000123727
0.000124183
0.000124095
0.00012401
0.000124187
0.000124
0.000124185
0.00012403
0.000124017
0.000124136
0.000124177
0.000124181
0.000124064
0.000124153
0.000124046
0.000124161
0.000124182
0.000124159
0.000124103
0.000124114
0.000123657
0.000124069
0.000124027
0.000124071
0.000124063
0.000124013
0.000124156
0.00012028
0.000124185
0.000124157
0.000123783
0.000124159
0.000124015
0.000123707
0.000124119
0.000124117
0.000124161
0.000124041
0.000122677
0.000124186
0.000124024
0.000123663
0.000123723
0.000124091
0.000124163
0.000124179
0.000124174
7.49969e-06
3.60688e-06
1.96839e-06
3.81377e-05
3.66803e-05
5.5639e-06
3.82759e-05
1.5708e-05
3.72431e-05
1.7776e-05
0.000124024
0.000124008
0.000124171
0.00012417
0.000124175
0.000124173
0.000124167
0.000124165
0.000124168
0.000124168
0.000124128
0.000124177
0.000124172
0.000124177
0.000124103
0.000123462
0.000124179
0.000122178
0.000124149
0.000124161
0.000124102
0.000124029
0.000124161
0.00012417
0.000124165
0.000123571
0.000122524
0.000123113
0.000123534
0.000124164
0.000124168
0.000124119
0.000124
0.000124161
0.000123021
0.000123387
0.000124003
0.000124161
0.00012386
0.000124154
0.000124159
0.00012413
0.000123831
0.000123986
0.000124158
0.00012417
0.000124162
0.000123952
0.000124144
0.000123949
0.000124177
0.000124027
0.000124019
0.000124174
0.000123803
0.00012399
0.00012404
0.00012364
0.000124125
0.000123787
0.000124071
0.000124067
0.000124148
0.000123561
0.000124066
0.000123974
0.00012399
0.000124134
0.000123893
0.000124059
0.000123964
0.000123867
0.000123982
0.00012418
0.000123933
0.000124173
0.000124007
0.000124147
0.000124009
0.000124005
0.00012418
0.000123913
0.000124171
0.00012391
0.000123957
0.000124036
0.000124009
0.000124028
0.000124027
0.000123778
0.00012399
0.000123934
0.000124139
0.000124012
0.000123834
0.000124128
0.000123394
0.00012395
0.000123314
0.000123159
0.000124015
0.000123978
0.000124009
0.000124005
0.000123949
0.000124178
0.000124047
0.000124121
0.000124041
0.000124051
0.000124063
0.000124127
0.000123783
0.000124173
0.000123824
0.000123719
0.000124038
0.000124149
0.000123733
0.000124175
0.000124073
0.00012412
0.000124132
0.000124043
0.000123992
0.000123787
0.000123977
0.000123988
0.000124035
0.000124073
0.000124148
0.000124158
0.000124168
0.000123948
0.000124039
0.000124151
0.000124162
0.000124158
0.000123969
0.000124169
0.000124041
0.000124141
0.000123935
0.00012417
0.00012393
0.000124149
0.000124071
0.000123994
1.1569e-05
2.18733e-05
0.000123977
0.000124022
0.000124176
0.000123961
0.000124176
0.000124034
0.00012417
0.00012415
0.000123922
0.000124144
0.000123986
0.00012417
0.000124034
-2.10543e-07
0.000123846
0.000124151
0.000124149
0.000123882
0.000123988
0.000124017
0.000124144
0.000123947
0.000124165
0.000124064
0.000124029
0.000124142
0.000123995
0.000123917
0.000123939
0.000124048
4.73751e-05
0.000124159
0.000124142
0.000124012
0.000124165
0.000124088
0.000124039
0.00012401
0.000124022
0.000124153
0.000124074
0.000123955
0.000124037
0.000123959
0.000124166
0.000123965
0.000124002
0.000124045
0.000124125
1.98377e-05
2.72238e-05
3.42674e-05
9.51939e-06
0.000124
3.30119e-05
2.59176e-05
0.000124163
1.90482e-05
1.69869e-05
3.81639e-05
7.44087e-06
3.99191e-05
5.46258e-06
4.08212e-05
3.53525e-06
4.28087e-05
1.74365e-06
3.63595e-05
2.31361e-05
2.9363e-05
1.49025e-05
0.000123866
0.000124172
0.000124065
0.000124078
0.000120988
0.000124153
0.000124168
0.000124139
0.000123979
0.000124173
0.000124165
0.000124156
0.000124153
0.000123929
0.000124022
0.000124149
0.000124153
0.000123995
0.00012389
0.000123878
0.000123474
0.000123939
0.000124183
0.000124159
0.000124032
0.000124182
0.00012388
0.000124025
0.000123836
0.00012295
0.000124154
0.000124164
0.00012418
0.000123882
0.000124031
0.00012384
0.000124037
0.000124011
2.59391e-05
2.1836e-05
3.29932e-05
1.14996e-05
0.000124188
0.000123886
1.98222e-05
2.81734e-05
3.55731e-05
9.46545e-06
0.000123995
0.000124109
0.000123981
0.000123974
0.000124061
0.00012411
0.000123901
0.00012415
0.000124073
0.000123173
0.000123981
0.000123949
5.92332e-05
0.000123301
0.000124177
0.000124014
0.000123917
0.000124166
0.000124169
0.000124003
0.00012379
0.000124032
0.000124094
0.000123866
0.000124123
0.000122995
0.000123976
0.000123961
0.000124118
0.000100838
0.000123964
0.000123565
0.00012395
0.000124179
0.000123845
1.07485e-05
2.10741e-05
3.53562e-05
2.80771e-05
1.35677e-05
-1.90443e-08
4.20152e-05
2.58538e-06
4.0116e-05
4.628e-06
3.93824e-05
6.68777e-06
3.85979e-05
8.71484e-06
3.72772e-05
1.36347e-05
3.16699e-05
3.04894e-05
2.38814e-05
2.52039e-05
1.77676e-05
1.28152e-05
1.56678e-05
0.000124172
0.00010248
0.000124003
0.000123948
0.000124176
0.000124072
0.000124181
0.000123909
0.000124086
0.000124146
0.00012414
0.000124199
0.000123913
0.000124056
0.000123879
0.000124111
0.000123976
0.000124176
0.000124025
0.000123857
0.00012386
0.000124069
0.000124077
0.000124183
0.000124174
0.000124177
0.000124144
0.000124182
0.000123827
0.000124028
0.000124177
0.000123973
0.000124126
0.000124026
0.000124024
0.000123893
0.000124144
0.000124144
0.000123472
0.000121421
0.000123207
0.000123742
0.000124027
0.00012385
0.000124071
0.00012418
0.000124134
0.000124045
0.000123632
0.000123621
0.000124178
0.000124147
0.000124056
0.00012411
0.000123666
5.83141e-05
4.00966e-05
0.000124118
0.000124135
0.000123516
0.000122824
0.000124012
0.000123702
0.000123449
0.000124053
0.000123886
0.000124157
0.000124049
0.000124087
0.000119085
5.44741e-05
0.000124056
8.11701e-05
1.72004e-06
-3.95249e-07
0.000124024
0.000123997
0.000124146
0.000124181
0.000124167
0.000124177
0.000124169
0.000124012
-2.35815e-06
0.00012292
0.00012404
0.000124125
0.000122098
0.000124176
0.000124176
0.000122338
0.000124123
0.000124148
0.000121749
0.000124173
7.63681e-05
0.000124174
0.00012365
0.000124139
0.000122452
0.000123724
0.000123744
0.000124059
0.000124176
0.000124133
0.000124175
0.000124186
0.000124031
0.00011625
)
;

boundaryField
{
    back
    {
        type            empty;
    }
    ingreso
    {
        type            zeroGradient;
    }
    salida
    {
        type            fixedValue;
        value           uniform 0;
    }
    front
    {
        type            empty;
    }
    defaultFaces
    {
        type            zeroGradient;
    }
}


// ************************************************************************* //
