/*--------------------------------*- C++ -*----------------------------------*\
  =========                 |
  \\      /  F ield         | OpenFOAM: The Open Source CFD Toolbox
   \\    /   O peration     | Website:  https://openfoam.org
    \\  /    A nd           | Version:  7
     \\/     M anipulation  |
\*---------------------------------------------------------------------------*/
FoamFile
{
    version     2.0;
    format      ascii;
    class       volVectorField;
    location    "26";
    object      U;
}
// * * * * * * * * * * * * * * * * * * * * * * * * * * * * * * * * * * * * * //

dimensions      [0 1 -1 0 0 0 0];

internalField   nonuniform List<vector> 
591
(
(0.000807091 -4.66756e-05 1.22707e-18)
(0.000778854 -3.68746e-05 -6.60786e-19)
(0.000848255 -6.35524e-05 5.7461e-20)
(0.000833642 9.18843e-06 -1.47919e-19)
(0.000818968 1.8526e-05 2.23798e-19)
(0.000766442 -3.08578e-05 -1.38458e-19)
(0.000536286 -0.000386055 7.98805e-19)
(0.000795583 -6.41402e-06 2.08088e-18)
(0.00577287 0.0024888 9.87519e-19)
(0.00078029 -2.17124e-05 2.39916e-18)
(6.05837e-05 0.000178986 1.21832e-18)
(0.00088958 0.00129231 9.40801e-21)
(0.000786787 1.19681e-05 1.28929e-18)
(0.0015566 0.00235768 -7.87638e-19)
(0.000796801 2.31293e-05 -4.38331e-19)
(0.000132737 -0.000255443 2.53416e-22)
(0.0001312 0.000666043 7.05601e-19)
(0.000833577 2.09069e-05 -4.92761e-19)
(0.00199566 0.000377915 4.73807e-19)
(0.00134185 0.000285983 -2.47184e-19)
(0.000828423 1.33518e-05 3.69108e-19)
(0.00332559 0.00659334 -8.29379e-20)
(3.68147e-05 7.68241e-05 2.71058e-19)
(0.000820216 7.70797e-06 -4.51395e-19)
(1.84298e-05 -2.3335e-05 3.59154e-19)
(0.000756976 2.45124e-05 0)
(8.9533e-05 0.000480182 1.60058e-19)
(0.000512973 3.15617e-05 -1.79005e-19)
(0.000743471 5.59953e-05 1.13592e-18)
(0.000822121 6.95623e-06 5.87182e-19)
(6.77991e-05 -6.33754e-07 -2.62144e-24)
(4.6904e-05 -5.43983e-05 3.52479e-19)
(4.67524e-05 -4.32277e-06 -4.64308e-20)
(5.54765e-05 -9.72788e-06 0)
(6.33504e-05 -1.49374e-05 1.13131e-18)
(0.00116256 0.000129981 1.80116e-19)
(4.0533e-05 -7.40288e-06 4.47529e-20)
(0.000819972 1.68204e-05 4.10432e-23)
(3.51509e-05 5.17384e-05 2.66241e-19)
(6.18677e-05 -0.000148939 -8.55558e-19)
(0.000547994 -0.00018275 9.57811e-19)
(3.36643e-05 -9.7009e-06 4.55212e-20)
(0.00079195 -7.2082e-06 -1.55823e-18)
(0.000819336 1.64236e-05 -6.80732e-19)
(2.43351e-05 -1.16806e-05 0)
(6.3548e-05 1.1196e-05 8.52583e-20)
(0.00132578 0.00451443 8.93325e-19)
(8.59135e-05 2.33672e-05 8.64333e-20)
(0.000789723 3.19757e-05 0)
(0.000364638 -0.00014068 6.785e-19)
(0.000369127 0.00028092 5.12291e-21)
(0.000383658 7.51585e-05 -1.00466e-18)
(0.0063438 0.0109446 -7.65955e-19)
(0.00622571 0.0107932 1.54124e-20)
(0.00561158 0.0103746 1.45508e-18)
(0.000806107 -2.15412e-05 0)
(7.47791e-05 3.82788e-05 0)
(0.000325564 3.36938e-05 9.16504e-24)
(7.22285e-05 1.56546e-05 -3.46745e-19)
(0.000835446 -5.27597e-06 0)
(0.000606938 2.63779e-05 3.17869e-19)
(0.000808281 1.40406e-06 2.17653e-18)
(0.000770387 7.38581e-07 -5.426e-19)
(0.000774115 1.83135e-05 -3.12694e-19)
(0.00171268 0.000517895 5.43877e-19)
(0.000784599 -2.46333e-06 -1.13991e-18)
(0.000810569 -2.93839e-06 -5.13744e-19)
(9.44091e-05 4.09553e-06 -1.73551e-19)
(0.000679467 0.00230243 0)
(0.00081334 1.20258e-05 0)
(0.000745421 1.85865e-05 -1.37528e-18)
(4.42797e-05 1.9987e-05 0)
(0.000280526 0.000277233 3.2708e-19)
(5.12798e-05 -2.07576e-05 0)
(5.09554e-05 -7.11183e-06 1.59605e-19)
(3.31483e-05 -5.69449e-05 -3.36935e-20)
(0.000763318 6.05097e-05 2.47175e-19)
(5.12565e-05 1.42338e-05 0)
(0.000779746 5.89475e-05 4.43561e-19)
(0.000746715 0.000300625 2.10906e-19)
(0.000960559 5.97539e-05 -3.98354e-20)
(4.94437e-05 2.82298e-05 -4.52238e-20)
(7.36259e-06 -4.3209e-05 0)
(0.000418647 0.000225093 1.70316e-19)
(2.1289e-06 3.4757e-05 0)
(0.00075216 1.46878e-05 -5.9845e-19)
(0.000553484 -0.000112197 0)
(7.53678e-05 2.71483e-06 -1.74621e-19)
(5.59239e-06 -5.76828e-05 0)
(0.000806483 0.000247459 -3.41577e-19)
(5.23324e-06 -2.69085e-05 0)
(0.000412709 0.000324185 -1.22516e-23)
(0.000507601 0.000117555 0)
(0.000791857 4.73265e-05 2.17284e-25)
(3.07056e-06 2.34004e-05 -4.22065e-20)
(0.000432017 9.04715e-06 1.76514e-18)
(0.00101695 7.48191e-05 4.16465e-20)
(0.000959288 3.64141e-05 6.41053e-22)
(0.000721918 0.000651412 2.69707e-19)
(4.52602e-06 6.64868e-05 0)
(8.5752e-06 -0.000109915 -3.12637e-19)
(1.76313e-05 -0.000199855 -1.1027e-18)
(1.26411e-06 0.000102893 -5.96318e-19)
(0.000713185 -5.77425e-06 0)
(4.33052e-06 0.000130371 0)
(0.000788927 5.51234e-06 2.18627e-18)
(0.000758206 2.54822e-05 1.49942e-18)
(0.000398188 -3.4345e-05 0)
(5.41247e-05 0.000232836 -8.95232e-19)
(-1.50529e-06 0.000207765 4.96322e-19)
(8.26203e-05 0.000468901 6.25696e-19)
(0.000292847 0.000113073 -9.36954e-19)
(0.000807521 1.18645e-05 1.34854e-19)
(0.000267056 -5.50927e-06 5.3164e-19)
(2.8847e-06 4.71151e-05 0)
(4.01007e-05 0.000318093 -1.08952e-18)
(0.000312086 0.0003297 -1.61818e-19)
(8.21959e-06 -8.24485e-05 1.46717e-19)
(0.00065001 0.000787062 0)
(0.000357056 0.000392071 5.74826e-20)
(0.000800918 -2.39393e-07 1.07196e-18)
(0.000770623 -1.82464e-05 -2.68777e-18)
(9.24506e-06 -0.000143868 0)
(0.000745068 -1.62693e-05 -1.11416e-19)
(0.000318222 -5.88613e-05 1.24434e-18)
(0.00271473 0.000801481 -3.35846e-19)
(-1.84311e-06 0.000162345 -6.13145e-19)
(-1.08648e-05 0.000200728 1.61933e-18)
(0.000833982 1.83441e-05 -3.89177e-20)
(7.39557e-05 -7.17903e-06 -7.50699e-19)
(0.000779905 3.07011e-05 -3.87743e-19)
(0.000883763 2.82661e-05 -4.10125e-20)
(6.1431e-05 0.000375233 -5.97021e-19)
(0.000466477 8.3936e-05 -4.94332e-19)
(5.84453e-05 -1.97311e-06 1.56284e-19)
(0.000816378 -6.44099e-06 -1.05754e-18)
(0.00163246 0.00020816 -1.13795e-18)
(8.51222e-07 8.05359e-05 4.96441e-19)
(0.000794446 2.22974e-07 -4.99897e-19)
(0.000879031 0.000539529 -7.85718e-20)
(0.000131501 0.000851572 0)
(0.000553832 6.84575e-05 0)
(0.000269238 6.45511e-05 -1.61046e-18)
(6.91319e-05 6.61053e-05 -1.37521e-18)
(3.58668e-05 2.47186e-05 0)
(0.00424897 0.00740449 -1.01398e-20)
(0.00419195 0.00736718 3.24068e-20)
(0.00438439 0.00757113 -4.1228e-21)
(0.00420856 0.00773818 0)
(0.00420251 0.00760154 5.76905e-19)
(0.00422502 0.0073995 -9.50057e-20)
(0.004213 0.00804562 4.8401e-19)
(0.00428942 0.00745347 0)
(0.00420771 0.00854313 6.16271e-19)
(0.00431355 0.00747327 2.23738e-19)
(0.000802396 -3.81319e-06 -1.37049e-18)
(0.000746854 5.32684e-05 0)
(0.000219195 7.18076e-05 1.27788e-19)
(5.7517e-05 2.0522e-05 8.72568e-20)
(8.48443e-05 5.27975e-05 6.80575e-19)
(0.000114145 5.05338e-05 -3.41944e-19)
(0.000109679 1.47373e-05 0)
(5.61965e-05 7.88974e-06 8.18986e-20)
(0.000204261 0.000146702 0)
(0.000172601 5.93174e-05 -5.2467e-20)
(0.000334526 0.00023189 -5.09627e-21)
(6.15799e-05 4.98542e-05 -4.38015e-19)
(9.87791e-05 3.6001e-05 -8.53171e-20)
(9.67622e-05 7.06371e-05 1.313e-21)
(0.000246827 0.000372051 -6.66644e-19)
(0.000142485 0.00107056 0)
(4.71133e-05 5.89524e-05 3.43342e-19)
(0.000181575 0.00181952 0)
(0.000206019 0.000261034 7.05176e-19)
(4.57294e-05 -6.13336e-06 1.11411e-19)
(0.00046487 0.00017091 -1.72434e-19)
(0.000746818 2.84648e-05 -1.88094e-18)
(5.03121e-05 1.04043e-07 4.14251e-24)
(0.000157461 3.83547e-05 2.24765e-19)
(0.00023893 0.000109518 -9.00044e-20)
(0.000869989 0.000704545 3.3517e-19)
(0.000759843 0.00161987 -9.22153e-21)
(0.0003933 0.00138219 -9.44331e-21)
(0.00100921 0.000559906 0)
(0.000114548 -1.02182e-05 1.11968e-18)
(0.000126899 2.7946e-05 -4.43522e-20)
(0.00041875 -0.00024729 -1.13685e-18)
(0.00079937 3.22365e-05 0)
(0.000185269 2.90563e-05 3.63519e-19)
(0.000285334 0.00135498 0)
(0.00103109 0.000746367 -7.30721e-20)
(0.00081608 4.31723e-05 -1.84565e-19)
(9.15207e-05 -1.80466e-05 -3.00241e-19)
(0.000803868 0.000310372 -2.08227e-20)
(7.59541e-05 -2.23348e-05 -5.99743e-19)
(0.000226317 0.000184762 8.64521e-20)
(0.000225597 0.000313077 -3.45264e-19)
(0.000866811 0.000237442 0)
(0.000789248 4.46073e-05 0)
(0.000258708 0.000153002 1.76982e-19)
(0.000235079 2.14441e-05 1.88007e-24)
(0.000184933 0.000214486 0)
(0.000281926 0.000645169 -5.55853e-21)
(0.000329248 2.02121e-05 0)
(0.000337094 0.000596547 0)
(0.000115586 9.28543e-05 -1.34779e-21)
(0.000808053 -3.79417e-06 -9.37604e-19)
(0.000815359 -8.70752e-06 7.8111e-19)
(0.00013505 6.98562e-05 -1.49975e-19)
(0.000935752 0.000151447 8.51645e-20)
(0.0008204 4.93714e-05 3.32207e-19)
(0.000792221 1.58983e-05 -2.9126e-19)
(0.000987782 0.000403008 0)
(0.000425004 0.000128585 6.24955e-19)
(0.000877659 0.000315692 2.09319e-20)
(0.000551642 0.000165941 0)
(0.000273673 0.000439849 4.09921e-19)
(0.00025774 0.000227475 -8.44803e-20)
(0.00109003 0.000380411 -7.82874e-19)
(0.000593964 0.000116752 -1.79452e-19)
(0.000786573 8.20652e-05 -7.40119e-21)
(0.000818622 2.61098e-05 9.32028e-20)
(0.00010808 -9.22796e-05 -1.98297e-18)
(0.0007229 0.000378776 2.19405e-19)
(0.000638531 6.73591e-05 2.30739e-20)
(0.000686919 0.000273815 1.53393e-23)
(0.000709733 0.000447564 -4.09806e-19)
(0.000828844 3.94956e-05 8.86382e-20)
(7.72763e-05 9.01209e-05 0)
(0.000636859 0.000417782 -4.66016e-20)
(0.000185267 0.000110456 0)
(0.000365956 0.00050666 -2.65003e-19)
(0.000309359 0.000180037 0)
(0.000656334 0.000203755 3.55542e-19)
(0.000628985 0.000268162 -4.37622e-20)
(8.34599e-05 0.000110308 6.19573e-19)
(0.000868752 0.000115466 -1.62525e-18)
(6.51907e-05 2.75245e-05 2.57404e-19)
(0.000868719 5.0792e-05 -1.65475e-18)
(0.000806791 6.46026e-05 1.61198e-19)
(0.000791046 1.14292e-05 1.92983e-18)
(0.000788699 7.82964e-06 -1.31486e-19)
(0.000700381 7.47372e-05 0)
(0.000816339 3.35202e-05 8.74806e-19)
(0.000927385 0.000236164 -4.27499e-19)
(0.000746901 7.70298e-05 -4.82951e-19)
(0.000761055 0.000227833 -8.8178e-20)
(0.000241478 -0.000110363 -2.08094e-18)
(0.000714954 9.24104e-05 8.88035e-19)
(0.00062753 0.00059316 0)
(0.000129146 -9.84463e-05 0)
(0.00118207 0.000466687 4.97388e-19)
(0.000779161 -0.000112633 -3.23267e-18)
(0.00129228 0.000420217 5.7565e-19)
(0.00126268 0.000712007 -6.39473e-20)
(0.000786969 5.20057e-05 -2.10808e-19)
(0.000815525 7.49791e-05 -1.41342e-18)
(0.000801846 2.7248e-05 1.57202e-18)
(0.000796693 1.38042e-05 9.68275e-20)
(0.000659957 0.000343544 -4.40762e-20)
(0.000107404 0.000140189 1.11157e-23)
(0.000712523 -6.41939e-05 2.65314e-19)
(0.000249871 -0.000195742 -7.37059e-19)
(0.000601364 0.000191661 0)
(0.000675484 2.30243e-05 9.91185e-20)
(0.000653924 8.73279e-06 -3.81167e-19)
(0.000376939 0.000180591 3.93443e-20)
(0.000776392 0.000497735 -1.65598e-19)
(0.000155633 8.90657e-05 2.35989e-25)
(0.000798584 0.000391891 0)
(0.00095617 0.000321938 4.16151e-20)
(0.000724514 -0.000101153 -6.16837e-19)
(0.0003373 0.000115613 4.97878e-19)
(0.000886592 0.000418312 0)
(5.58328e-05 3.70049e-05 1.33821e-19)
(0.000466344 0.000273403 2.14114e-19)
(0.000443317 -9.14843e-05 -7.09744e-19)
(0.000182883 -0.0001323 -1.05989e-18)
(0.000800045 6.51837e-06 -4.74748e-19)
(0.000802217 -0.000113343 -1.93132e-19)
(0.000565565 0.000719535 -1.17395e-18)
(0.00082754 4.97538e-05 -6.62343e-20)
(0.00075114 -4.43531e-05 1.25977e-18)
(0.000663765 9.84911e-05 2.27993e-20)
(0.000510211 0.000219126 -1.6581e-19)
(4.23244e-05 -2.55389e-05 -8.76543e-20)
(0.000196223 -2.4123e-05 2.40764e-18)
(3.09132e-05 9.70464e-07 -1.94962e-19)
(0.000781857 8.68757e-05 3.60829e-19)
(0.00063257 0.000140838 0)
(0.000204729 -5.12671e-05 -1.04884e-18)
(0.000131883 2.3615e-07 3.1293e-19)
(0.00013357 -3.1354e-05 -1.78677e-24)
(0.000779365 0.000116352 -3.1872e-19)
(0.000160485 -3.68625e-06 0)
(0.000567355 0.000244159 0)
(0.000111387 0.00033983 -3.63113e-19)
(0.000842622 0.000106436 2.09833e-18)
(2.51708e-05 1.73553e-06 0)
(0.000841547 3.40028e-05 0)
(5.4518e-05 -2.68033e-05 0)
(0.000812474 2.63876e-05 -4.43508e-21)
(0.000808905 -6.63189e-05 0)
(0.00427169 0.00743489 6.53092e-20)
(0.00435705 0.00748885 1.42386e-19)
(0.000838194 7.33081e-06 0)
(0.000751697 -5.93325e-05 8.135e-19)
(0.000154275 0.000136907 1.49322e-19)
(0.000847102 7.53677e-05 7.91569e-19)
(0.000134971 0.000113646 2.34581e-20)
(0.000750321 -5.16064e-05 6.27533e-19)
(4.09528e-05 1.25255e-05 0)
(3.74381e-05 -1.73933e-05 -4.48853e-20)
(0.000867482 5.59687e-05 -4.85267e-19)
(4.68724e-05 -3.62883e-05 -6.7021e-19)
(0.000736385 0.000121653 -4.22965e-20)
(0.000167818 0.000173669 -1.88241e-19)
(0.000806453 1.20637e-05 0)
(0.00467332 0.0081717 9.44183e-22)
(0.000164101 0.000780452 3.33967e-19)
(0.000137387 -4.71128e-05 -9.15164e-19)
(7.53771e-05 -3.53e-05 -1.16966e-18)
(0.000769621 1.93172e-05 1.89786e-20)
(0.000567516 0.000414892 0)
(0.000398474 0.000433289 -2.56493e-19)
(0.000112543 -5.06196e-05 1.18454e-18)
(0.00072807 3.74899e-06 7.68814e-20)
(4.91532e-05 2.54634e-06 4.07386e-19)
(0.000644958 -5.92464e-05 1.17278e-18)
(0.000802302 2.45238e-05 -5.98156e-19)
(9.00927e-05 -5.47162e-05 1.71037e-18)
(0.000833404 2.45447e-06 -2.32807e-24)
(0.000745058 1.14797e-05 -3.76914e-20)
(0.00085164 5.67333e-05 0)
(0.000800095 3.71313e-05 0)
(0.00592998 0.00723734 2.5836e-19)
(3.23456e-05 1.42811e-06 -1.19648e-19)
(0.000177726 -7.60217e-05 7.73466e-19)
(0.000706506 0.000120229 -6.97108e-19)
(3.67854e-05 -8.82154e-07 2.01595e-19)
(0.000569025 -2.12799e-05 -7.245e-19)
(0.000716156 1.78371e-05 1.54383e-18)
(0.00068419 0.000154108 -3.55747e-19)
(0.000801031 -2.53618e-05 3.54434e-19)
(9.74321e-05 -2.85648e-05 1.11696e-18)
(0.000771074 9.26901e-06 -3.19386e-19)
(0.000848047 5.26555e-05 0)
(0.0005252 0.00030274 4.21349e-20)
(0.000839732 4.05584e-05 -9.24602e-19)
(3.20724e-05 -8.82786e-07 9.11543e-19)
(0.000821941 3.49666e-05 9.41047e-19)
(0.000830934 -2.20047e-05 -9.6386e-19)
(0.000700507 1.13642e-05 -5.68598e-19)
(0.000483015 -4.86164e-05 -5.26131e-19)
(0.00432177 0.0074586 2.45712e-19)
(0.00423185 0.00753718 -2.33706e-19)
(0.00422359 0.00759163 2.7032e-19)
(0.00425951 0.00742449 1.64972e-19)
(0.000842069 -3.20034e-06 1.4295e-19)
(0.00447531 0.00750131 0)
(0.00439947 0.00751814 -3.83439e-19)
(4.73928e-05 -3.59074e-07 -9.97235e-19)
(0.00415134 0.00746108 -6.32642e-20)
(0.00411792 0.00742199 -2.72186e-19)
(0.00602574 0.0106016 0)
(0.00657002 0.0111897 3.62927e-20)
(0.00600651 0.0105708 0)
(0.00659087 0.0112163 1.31315e-19)
(0.00599491 0.0105941 2.69632e-19)
(0.00663495 0.0112292 1.22435e-20)
(0.00593273 0.0106071 -7.76358e-19)
(0.00666572 0.0111379 7.39528e-21)
(0.00390166 0.00920696 -1.90946e-19)
(0.00417897 0.00749302 3.70487e-21)
(0.0042458 0.00756286 7.9153e-20)
(0.00411941 0.00741694 5.04399e-20)
(0.000848487 0.000177175 4.46093e-20)
(1.83864e-05 2.46489e-06 0)
(0.000650489 -0.000152995 0)
(0.000737944 3.22692e-05 0)
(0.00244752 0.0010935 4.19649e-21)
(0.000726048 -2.3336e-05 1.71214e-19)
(4.77117e-05 8.10551e-06 4.54446e-20)
(2.10105e-05 -3.34356e-05 1.65376e-18)
(0.000837344 2.46906e-05 0)
(3.30372e-05 1.60421e-05 -1.91886e-19)
(0.000145599 0.000232061 0)
(3.31296e-05 -1.31495e-06 0)
(2.74782e-05 -2.04113e-06 0)
(0.000795345 0.000125546 1.13003e-20)
(0.000816247 2.37925e-06 1.77706e-19)
(3.39925e-05 0.000317213 3.80035e-24)
(0.000161682 0.000278573 -1.84329e-18)
(0.000590349 0.000339295 -8.57663e-20)
(0.000884838 0.000128305 6.0321e-19)
(0.000710654 -0.00041502 6.67627e-19)
(0.000322361 0.00111302 0)
(0.000455066 0.000554014 2.71648e-18)
(9.75789e-05 0.000154169 -1.80157e-18)
(3.92325e-05 4.96227e-07 0)
(0.000827119 -2.39895e-05 3.61023e-20)
(2.1046e-05 4.39365e-05 1.64584e-18)
(0.000894576 2.58907e-05 2.7154e-19)
(6.45554e-05 -0.000195376 3.78708e-18)
(0.000922688 4.14926e-05 -2.6934e-19)
(0.00141062 0.000119584 7.47482e-19)
(4.56552e-05 -1.27502e-05 8.2641e-20)
(4.51604e-05 8.06239e-06 -8.5907e-19)
(4.76773e-05 0.000157625 0)
(0.000886458 8.95826e-05 5.98703e-19)
(0.000483171 0.00037116 2.37313e-19)
(0.000793901 1.70526e-05 -3.88387e-20)
(0.000747194 -1.67849e-05 2.55502e-19)
(0.000704166 -0.000232254 0)
(0.00632057 0.0108997 -1.67643e-19)
(0.00637656 0.0109704 4.05221e-19)
(0.00615635 0.0107261 -6.17476e-19)
(0.00651295 0.0111303 -8.03265e-20)
(4.17327e-05 0.000123917 8.01186e-19)
(0.00088668 5.62973e-05 1.57944e-22)
(0.00640372 0.0110001 -3.86154e-19)
(0.00627944 0.0108452 5.46639e-19)
(0.00607963 0.0106671 -4.15407e-19)
(0.00654654 0.0111668 -6.74562e-20)
(9.30774e-05 0.000566483 -2.02077e-20)
(0.000168293 -0.000184271 -7.92907e-19)
(0.000778627 -5.23661e-06 -7.59452e-19)
(0.00070822 0.000219362 0)
(0.000776301 9.91415e-07 0)
(0.000184464 0.000393269 3.36539e-19)
(0.000598728 0.000557716 -5.41839e-19)
(2.03405e-05 -2.95231e-06 1.7855e-19)
(0.00021013 0.000463548 -7.38917e-19)
(0.00100346 0.000973744 -1.12787e-19)
(0.000724157 0.000172305 0)
(0.00077141 0.000168507 1.31106e-19)
(0.00637465 0.00587675 1.12786e-18)
(0.00070638 0.00114337 8.28519e-20)
(4.47879e-05 4.43204e-05 -7.45325e-20)
(0.000814853 4.67891e-05 0)
(0.00087116 2.0005e-05 -3.57298e-20)
(4.3718e-05 6.11565e-06 -1.96798e-19)
(3.76292e-05 7.55155e-06 1.93108e-19)
(0.000817478 1.94928e-05 5.34857e-19)
(0.000956919 0.000105003 6.59039e-19)
(0.000688446 4.56572e-05 0)
(0.000225688 -0.000296324 -3.98744e-19)
(0.000888363 0.000142215 3.89815e-19)
(3.74099e-05 -8.32256e-05 2.03292e-19)
(0.00145216 0.000368311 -2.58252e-18)
(0.000715214 -3.75098e-07 0)
(0.000775971 0.000139172 3.75838e-19)
(9.06449e-05 0.000408378 0)
(0.00118137 0.00816829 4.62028e-19)
(0.000463309 0.000509025 -1.22483e-18)
(0.000537288 0.000969168 -1.83876e-19)
(0.000861993 2.5743e-05 -1.45512e-19)
(1.89765e-05 3.08732e-05 0)
(0.000911226 7.29765e-05 6.12228e-19)
(0.00408229 0.00737117 8.03187e-20)
(0.00416095 0.00747829 4.72348e-20)
(0.0044942 0.00750517 4.53962e-19)
(0.00444192 0.00754396 -3.19988e-19)
(0.00648355 0.0111099 8.03852e-20)
(0.00389867 0.0071645 -1.40632e-21)
(0.00551143 0.00779143 -5.64319e-19)
(0.00408406 0.00738371 5.14919e-21)
(0.00518864 0.00785202 5.11148e-19)
(0.00406582 0.00733984 -4.73113e-20)
(0.0049506 0.00770975 0)
(0.00407016 0.00734672 -8.40011e-20)
(0.00473827 0.00758236 4.92195e-19)
(0.00408257 0.00735983 8.61436e-20)
(0.00457102 0.00751784 0)
(0.00428982 0.00745325 1.39264e-19)
(0.00424352 0.00760414 5.87618e-19)
(0.00446751 0.00752443 -5.42624e-19)
(0.00438456 0.00750278 3.70285e-19)
(0.00423662 0.0075376 2.61167e-19)
(0.00642595 0.0110353 -5.0457e-21)
(0.0040931 0.00738227 3.08303e-20)
(0.0064544 0.0110687 0)
(3.06033e-05 9.18903e-06 -1.90021e-19)
(0.00198029 0.00652572 2.28444e-19)
(0.000843448 -8.17512e-06 1.08984e-19)
(0.00085442 1.92489e-05 0)
(3.79964e-06 3.92333e-06 -3.99453e-19)
(7.8943e-05 -0.00020154 6.92616e-19)
(2.42875e-05 6.56309e-05 2.08933e-18)
(0.000806857 0.000187725 -9.0166e-20)
(0.00076845 1.00299e-05 6.98517e-19)
(4.31039e-06 -4.50513e-06 3.10261e-19)
(2.7481e-05 -4.4798e-05 -1.84687e-18)
(0.000739769 2.26726e-05 1.61563e-19)
(0.000846325 0.000126421 -3.05041e-20)
(0.00076513 -6.53244e-06 1.46756e-19)
(0.000407114 0.000653597 0)
(0.000123393 -0.000152619 1.15261e-18)
(0.000839721 1.87202e-05 1.52327e-19)
(2.38461e-05 2.90122e-05 0)
(0.000103237 0.000565529 -6.31617e-19)
(0.000606691 0.000599713 1.31666e-18)
(0.00034133 0.000726509 0)
(0.000762708 -1.39144e-05 0)
(0.000771219 3.30031e-05 1.15818e-18)
(2.4415e-05 5.41101e-05 -3.51673e-18)
(2.19049e-05 1.08437e-05 3.7394e-19)
(0.000113232 0.000156468 0)
(6.35707e-05 -4.49802e-05 0)
(7.12187e-05 0.000122867 2.01106e-19)
(0.000904752 0.000173009 3.50616e-19)
(0.000795139 -7.39967e-06 -1.38316e-18)
(2.70361e-05 3.98575e-05 0)
(0.000584903 6.29192e-05 -6.01885e-20)
(0.00077754 3.0874e-05 -1.54794e-19)
(0.000827181 1.31557e-05 1.02713e-18)
(0.000253851 0.000546811 6.32669e-19)
(0.000833789 0.00014553 0)
(3.20034e-05 -3.23011e-05 5.39137e-19)
(4.56817e-06 -1.48406e-05 -3.20219e-19)
(0.00110131 9.55266e-06 0)
(0.000985068 0.00220831 0)
(0.00104177 -6.20007e-05 0)
(0.00097803 0.000192503 4.27608e-19)
(0.000823143 -1.57667e-05 -2.81895e-19)
(0.000895832 0.000123098 -6.85439e-19)
(0.000773061 7.68777e-06 0)
(4.46858e-05 7.84977e-05 -1.71711e-19)
(0.000172908 0.000331358 1.08195e-18)
(0.000781444 3.80936e-05 1.52424e-23)
(0.00106432 0.000186201 -6.69066e-19)
(0.00107897 0.000116921 0)
(3.74603e-06 1.29312e-05 2.51245e-19)
(2.6431e-05 -2.13926e-05 -1.9448e-19)
(0.000677844 3.129e-05 6.88711e-21)
(4.82425e-05 -0.000112014 0)
(0.00102488 0.000250323 9.51332e-19)
(0.00502817 0.00974318 -2.83482e-19)
(0.00311642 0.00962305 1.27224e-18)
(8.74234e-05 -0.000121971 -1.91519e-19)
(8.5981e-05 -8.39203e-05 1.86124e-18)
(0.00118792 0.000221426 1.67082e-19)
(0.00131175 0.00105734 2.34242e-19)
(0.000825573 9.33134e-06 -7.2643e-19)
(0.000216903 0.000935645 -2.39061e-19)
(0.000780543 0.00088141 -2.18731e-19)
(0.000777184 -1.07102e-05 0)
(0.000102639 0.000695125 0)
(9.87487e-05 0.000287681 -4.9165e-23)
(0.000758868 -2.00642e-05 -2.03124e-23)
(0.000808561 1.83401e-05 1.51399e-19)
(0.00261851 0.00202604 -1.23068e-18)
(0.00175516 0.00924361 -1.17189e-19)
(0.000816149 2.80685e-05 4.84605e-19)
(0.0063633 0.00403792 -1.75099e-19)
(0.00677472 0.0115439 -1.24948e-20)
(0.00472934 0.00787395 4.44535e-21)
(0.000798353 4.3607e-05 -2.17585e-18)
(0.000818593 3.67813e-05 -8.87573e-24)
(1.59921e-05 -1.24045e-05 -3.48289e-19)
(4.91276e-05 0.000100395 -3.49573e-19)
(8.27467e-05 0.000284437 8.76574e-19)
(1.61328e-05 2.09073e-05 4.90831e-19)
(9.13808e-05 0.000241875 3.70054e-19)
(0.000818354 3.86574e-05 0)
(0.00534609 0.00947736 1.9766e-20)
(0.00150704 0.000617694 -2.61952e-20)
(0.000822066 2.15699e-05 3.55833e-19)
(6.5813e-05 -9.64254e-05 0)
(0.00185161 0.000746598 5.45667e-19)
(1.41866e-05 1.1445e-05 -2.70388e-19)
(3.97898e-05 3.46396e-05 9.72663e-20)
(0.00131895 0.00137836 6.37056e-19)
(0.000761578 3.11289e-05 1.81052e-19)
(1.28347e-05 -3.50146e-06 -1.70354e-19)
(0.00202971 0.00154501 -1.05634e-18)
(0.000128722 0.000189492 -8.19381e-19)
(0.0039219 0.00847481 -1.09066e-18)
(1.15153e-05 3.08301e-06 8.82188e-20)
(0.000209766 -0.000335848 -1.24546e-18)
(6.80105e-05 -6.12034e-05 4.06009e-20)
(0.00148838 0.000959587 0)
(0.00101376 0.000143496 -4.2675e-22)
(0.000439274 0.000856186 -4.02469e-20)
(0.00080596 1.99093e-05 -2.31603e-19)
(8.67167e-05 0.000196568 7.35852e-19)
(5.45325e-05 -7.30951e-05 4.04393e-19)
(2.26508e-05 1.94559e-05 -9.47922e-20)
(3.94938e-05 0.000105674 -3.20531e-19)
(0.000194348 -0.000358929 -5.39726e-19)
(0.00323384 0.00342609 2.9128e-21)
)
;

boundaryField
{
    back
    {
        type            empty;
    }
    ingreso
    {
        type            fixedValue;
        value           uniform (0.0008 0 0);
    }
    salida
    {
        type            zeroGradient;
    }
    front
    {
        type            empty;
    }
    defaultFaces
    {
        type            noSlip;
    }
}


// ************************************************************************* //
