/*--------------------------------*- C++ -*----------------------------------*\
  =========                 |
  \\      /  F ield         | OpenFOAM: The Open Source CFD Toolbox
   \\    /   O peration     | Website:  https://openfoam.org
    \\  /    A nd           | Version:  7
     \\/     M anipulation  |
\*---------------------------------------------------------------------------*/
FoamFile
{
    version     2.0;
    format      ascii;
    class       volVectorField;
    location    "105";
    object      U;
}
// * * * * * * * * * * * * * * * * * * * * * * * * * * * * * * * * * * * * * //

dimensions      [0 1 -1 0 0 0 0];

internalField   nonuniform List<vector> 
591
(
(0.000838281 -2.14305e-06 1.21614e-18)
(0.000834909 -1.70032e-06 -6.61394e-19)
(0.000852807 2.26486e-05 5.69733e-20)
(0.000868343 -2.77992e-05 -1.49007e-19)
(0.000856905 -1.22468e-05 2.25427e-19)
(0.000803655 -3.80079e-05 -1.39567e-19)
(0.000561101 -0.000215783 8.06147e-19)
(0.000803605 4.22225e-06 2.10782e-18)
(0.00572178 0.00251107 9.87967e-19)
(0.00081886 2.27302e-06 2.44338e-18)
(4.55283e-05 0.000158675 1.21784e-18)
(0.000939108 0.00139733 9.40693e-21)
(0.000801446 4.33778e-06 1.3227e-18)
(0.00160478 0.00240514 -7.8737e-19)
(0.000803256 1.39645e-06 -4.4657e-19)
(4.00275e-05 -0.000140789 2.42926e-22)
(0.000141357 0.000667074 7.04763e-19)
(0.000817828 8.10939e-05 -4.96965e-19)
(0.00189526 0.000392233 4.73712e-19)
(0.00135886 0.000258473 -2.4708e-19)
(0.000830782 -8.97662e-06 3.73073e-19)
(0.0034007 0.00656011 -8.14417e-20)
(2.24443e-05 6.24213e-05 2.7085e-19)
(0.000835796 -2.61219e-05 -4.5153e-19)
(5.44708e-06 -1.03172e-05 3.58778e-19)
(0.000795059 4.57354e-05 0)
(9.49523e-05 0.000465393 1.59924e-19)
(0.00058014 -3.63676e-06 -1.78765e-19)
(0.000768463 4.80434e-05 1.14903e-18)
(0.000805555 7.28511e-05 5.84139e-19)
(4.73379e-05 -5.92702e-06 -5.41879e-24)
(1.93975e-05 -3.73788e-05 3.52038e-19)
(2.6486e-05 -2.45865e-06 -4.64042e-20)
(3.59891e-05 -1.22565e-05 0)
(4.43547e-05 -1.28051e-05 1.13101e-18)
(0.00116934 0.000141576 1.79818e-19)
(2.21494e-05 -3.96237e-06 4.46972e-20)
(0.000823738 5.35746e-07 3.10215e-23)
(2.22995e-05 3.7218e-05 2.65929e-19)
(-1.08439e-05 -5.35298e-05 -8.5296e-19)
(0.00066171 -0.000185025 9.58665e-19)
(1.69567e-05 -4.58788e-06 4.54648e-20)
(0.000816283 2.22669e-05 -1.57635e-18)
(0.000831833 5.10536e-05 -6.90684e-19)
(1.07745e-05 -5.06725e-06 0)
(4.64835e-05 3.20854e-06 8.51546e-20)
(0.0013501 0.00450289 8.92777e-19)
(6.60743e-05 9.06218e-06 8.63302e-20)
(0.000802783 1.70374e-05 0)
(0.000396284 -0.000233505 6.76884e-19)
(0.000391815 0.000264567 5.11753e-21)
(0.000406679 2.82951e-05 -1.0034e-18)
(0.00634781 0.0109402 -7.68682e-19)
(0.00622449 0.0107952 1.52791e-20)
(0.00561462 0.0103781 1.45594e-18)
(0.000805014 5.08597e-05 0)
(5.95844e-05 2.38836e-05 0)
(0.000321484 -1.24785e-05 2.91559e-23)
(5.40529e-05 5.70236e-06 -3.46327e-19)
(0.00081197 -6.69721e-06 0)
(0.000669105 2.809e-05 3.17433e-19)
(0.000848076 3.08327e-05 2.20786e-18)
(0.000812963 4.03592e-05 -5.38323e-19)
(0.000800049 1.12231e-05 -3.15641e-19)
(0.00171362 0.000486551 5.42393e-19)
(0.000813089 3.47887e-05 -1.14429e-18)
(0.000840509 3.90828e-05 -5.23799e-19)
(6.76818e-05 -8.48148e-06 -1.73345e-19)
(0.000691136 0.00225651 0)
(0.000846397 5.08267e-05 0)
(0.000795168 2.9981e-05 -1.39217e-18)
(3.241e-05 1.25565e-05 0)
(0.000294149 0.000261114 3.26746e-19)
(3.02992e-05 -1.48881e-05 0)
(3.25305e-05 -5.41531e-06 1.59412e-19)
(4.2697e-06 -3.20902e-05 -3.36532e-20)
(0.000805873 7.94048e-05 2.46939e-19)
(3.75374e-05 7.64954e-06 0)
(0.000814593 5.57824e-05 4.47376e-19)
(0.000783601 0.000296646 2.10651e-19)
(0.000959864 6.97744e-05 -3.9758e-20)
(3.70494e-05 1.84038e-05 -4.51691e-20)
(2.99212e-06 -9.47442e-06 0)
(0.000445243 0.000209264 1.70128e-19)
(2.62093e-06 1.50172e-05 0)
(0.000808134 5.01482e-05 -6.07907e-19)
(0.000655398 -0.000113184 0)
(5.43144e-05 -5.52346e-06 -1.74413e-19)
(6.08702e-07 -1.37022e-05 0)
(0.000838146 0.00024348 -3.41128e-19)
(1.67096e-06 -5.06085e-06 0)
(0.00043494 0.00031825 -1.35702e-23)
(0.000548968 0.000106368 0)
(0.000817817 4.49004e-05 -3.13004e-24)
(2.05354e-06 8.77544e-06 -4.21553e-20)
(0.000478491 -3.23421e-05 1.76281e-18)
(0.00101674 7.44575e-05 4.15742e-20)
(0.000775457 4.79005e-05 6.41646e-22)
(0.000749615 0.00066039 2.6941e-19)
(6.86822e-06 3.67015e-05 0)
(-7.96875e-06 -1.20136e-05 -3.12193e-19)
(-3.73886e-05 -1.85006e-06 -1.10144e-18)
(5.20534e-06 6.16057e-05 -5.96148e-19)
(0.000589444 -3.06328e-05 0)
(9.32477e-06 8.45959e-05 0)
(0.000822327 3.64247e-05 2.18091e-18)
(0.000803757 4.03163e-05 1.53372e-18)
(0.000457609 -0.000120129 0)
(3.84723e-05 0.000204575 -8.95037e-19)
(1.59556e-06 0.000147148 4.96785e-19)
(5.51466e-05 0.000386054 6.2508e-19)
(0.000313005 6.09275e-05 -9.36881e-19)
(0.000801787 1.99272e-05 1.37366e-19)
(0.000255599 -7.93209e-05 5.31014e-19)
(4.14161e-06 2.28236e-05 0)
(1.84002e-05 0.000264776 -1.09389e-18)
(0.000327684 0.000316707 -1.61655e-19)
(-1.8976e-06 -7.68183e-06 1.46506e-19)
(0.000670619 0.000803026 0)
(0.000376457 0.000378831 5.74237e-20)
(0.000827879 3.22639e-05 1.07023e-18)
(0.000799742 1.78727e-06 -2.72531e-18)
(6.27283e-06 1.94362e-05 0)
(0.000657987 -4.2898e-05 -1.12267e-19)
(0.000324962 -0.000158563 1.2427e-18)
(0.00261619 0.000810482 -3.36513e-19)
(8.63268e-06 0.000113528 -6.13085e-19)
(9.30453e-06 0.000141612 1.61945e-18)
(0.000647033 2.61989e-05 -3.8965e-20)
(5.14918e-05 -1.70408e-05 -7.49874e-19)
(0.000813328 4.11469e-05 -3.91295e-19)
(0.000698388 2.80621e-05 -4.10458e-20)
(3.08803e-05 0.000312168 -5.97022e-19)
(0.000509053 4.80156e-05 -4.93755e-19)
(3.93148e-05 -4.6184e-06 1.56091e-19)
(0.000843825 4.40344e-05 -1.08582e-18)
(0.00152797 0.00023575 -1.13639e-18)
(5.35733e-06 4.94259e-05 4.96246e-19)
(0.000814204 3.82217e-05 -5.03323e-19)
(0.000926764 0.00055724 -7.84829e-20)
(0.000150441 0.00077694 0)
(0.000607327 6.13166e-05 0)
(0.000279122 3.5837e-05 -1.6089e-18)
(5.75697e-05 5.02671e-05 -1.37359e-18)
(2.59442e-05 1.66384e-05 0)
(0.00424791 0.00740123 -1.01963e-20)
(0.00422598 0.00737276 3.16644e-20)
(0.00442815 0.00757549 -4.98788e-21)
(0.00420532 0.00773334 0)
(0.00419777 0.0075992 5.7729e-19)
(0.00424485 0.00740227 -9.2034e-20)
(0.00420913 0.0080407 4.84532e-19)
(0.00429061 0.00742377 0)
(0.00420763 0.00853339 6.16847e-19)
(0.00432716 0.00745244 2.23946e-19)
(0.000838533 2.59489e-05 -1.37182e-18)
(0.00078799 6.39833e-05 0)
(0.000209531 3.3656e-05 1.27659e-19)
(4.30234e-05 1.13537e-05 8.71515e-20)
(7.08736e-05 3.58114e-05 6.79769e-19)
(9.69677e-05 2.9815e-05 -3.41543e-19)
(8.7929e-05 -4.29186e-06 0)
(3.98842e-05 2.24318e-06 8.18055e-20)
(0.000208376 0.000116772 0)
(0.000158245 2.3516e-05 -5.24143e-20)
(0.000349703 0.000211892 -5.09097e-21)
(4.98158e-05 3.57488e-05 -4.37491e-19)
(8.163e-05 1.74774e-05 -8.52154e-20)
(8.38848e-05 5.14793e-05 1.31147e-21)
(0.00026347 0.000357415 -6.65978e-19)
(0.000111051 0.000989528 0)
(3.74798e-05 4.53826e-05 3.42935e-19)
(0.000200032 0.00173799 0)
(0.000209357 0.000242945 7.04443e-19)
(2.85433e-05 -2.78774e-06 1.11452e-19)
(0.000497588 0.000157731 -1.72245e-19)
(0.000780862 3.07332e-05 -1.92346e-18)
(3.44704e-05 -1.88902e-06 4.94624e-24)
(0.000137608 9.45232e-06 2.24512e-19)
(0.000247269 7.5258e-05 -8.99015e-20)
(0.000884137 0.000694337 3.34841e-19)
(0.00072594 0.0016347 -9.23332e-21)
(0.000394296 0.0014174 -9.37972e-21)
(0.00103287 0.000549479 0)
(8.63095e-05 -2.27278e-05 1.1183e-18)
(0.000104081 1.91846e-06 -4.42796e-20)
(0.000476807 -0.000262645 -1.13606e-18)
(0.000827182 4.40473e-05 0)
(0.000172874 -2.2196e-05 3.63184e-19)
(0.000307421 0.00129607 0)
(0.00108997 0.000773056 -7.29974e-20)
(0.000826658 2.6071e-05 -1.8648e-19)
(6.20447e-05 -2.48254e-05 -2.99865e-19)
(0.000844473 0.000313919 -2.0797e-20)
(4.1224e-05 -2.10318e-05 -5.99252e-19)
(0.000228477 0.000161959 8.63608e-20)
(0.000232676 0.000301765 -3.44904e-19)
(0.000901472 0.000254703 0)
(0.000829588 5.90975e-05 0)
(0.000268235 0.000117616 1.76788e-19)
(0.000231334 -2.41235e-05 8.69902e-24)
(0.000185419 0.000194587 0)
(0.000308646 0.00064295 -5.55518e-21)
(0.000366792 -3.8911e-05 0)
(0.000383578 0.000598163 0)
(0.000102521 7.02561e-05 -1.34621e-21)
(0.000810472 3.06731e-05 -9.55728e-19)
(0.000804947 1.62568e-05 7.93189e-19)
(0.000121618 4.36652e-05 -1.49802e-19)
(0.000977445 0.000145964 8.50045e-20)
(0.000841811 3.64844e-05 3.33511e-19)
(0.000823562 3.70069e-05 -2.93963e-19)
(0.00103607 0.000422258 0)
(0.000452241 0.000104881 6.24204e-19)
(0.000918454 0.000324753 2.09061e-20)
(0.0005971 0.000149173 0)
(0.000276681 0.000441928 4.09525e-19)
(0.000263804 0.000205244 -8.43913e-20)
(0.00110775 0.000386258 -7.81815e-19)
(0.000645518 0.000102459 -1.79221e-19)
(0.000825518 7.81472e-05 -7.45753e-21)
(0.000846661 2.11011e-05 9.39215e-20)
(4.52855e-05 -8.45462e-05 -1.98056e-18)
(0.000747831 0.000379308 2.19163e-19)
(0.000691366 7.06787e-05 2.3056e-20)
(0.000719537 0.000278734 1.62769e-23)
(0.000742967 0.000462203 -4.09539e-19)
(0.0008558 1.29221e-05 9.0672e-20)
(6.67448e-05 6.91011e-05 0)
(0.000665193 0.000425897 -4.65768e-20)
(0.000180945 7.91678e-05 0)
(0.000374269 0.000501151 -2.64763e-19)
(0.000313724 0.000153628 0)
(0.000689262 0.000205542 3.55093e-19)
(0.000663194 0.00025946 -4.37093e-20)
(7.84477e-05 9.45695e-05 6.18932e-19)
(0.000889554 9.76824e-05 -1.63815e-18)
(5.00628e-05 1.63978e-05 2.57094e-19)
(0.000902307 7.39548e-05 -1.68587e-18)
(0.000852607 9.14401e-05 1.63023e-19)
(0.000816232 3.85894e-05 1.91209e-18)
(0.000822881 3.23625e-05 -1.32794e-19)
(0.000749988 7.02057e-05 0)
(0.000805002 1.87758e-05 8.98871e-19)
(0.000976583 0.00024018 -4.26929e-19)
(0.000793698 0.000102361 -4.83551e-19)
(0.000785174 0.000238868 -8.80881e-20)
(0.000190284 -0.000202129 -2.07435e-18)
(0.000769151 8.31407e-05 8.87192e-19)
(0.000645732 0.000590407 0)
(4.90092e-05 -0.000123168 0)
(0.00123184 0.000478161 4.97136e-19)
(0.000532695 -5.33235e-05 -3.26989e-18)
(0.00135761 0.000419911 5.76227e-19)
(0.0012564 0.000721155 -6.3882e-20)
(0.000817975 3.52844e-05 -2.12668e-19)
(0.000845724 6.63721e-05 -1.42773e-18)
(0.000813883 2.73651e-05 1.58593e-18)
(0.000813977 1.91576e-05 9.77684e-20)
(0.000677798 0.000353199 -4.4025e-20)
(9.79413e-05 0.000110225 1.00374e-23)
(0.000770116 -2.60298e-05 2.64857e-19)
(0.000205071 -0.000254993 -7.30795e-19)
(0.000645669 0.000181411 0)
(0.000731256 5.1751e-05 9.89984e-20)
(0.000727241 1.007e-05 -3.80656e-19)
(0.000399592 0.00016017 3.9323e-20)
(0.000814846 0.000510718 -1.65421e-19)
(0.000143334 6.06824e-05 4.38505e-25)
(0.000823574 0.000412439 0)
(0.00099313 0.000315651 4.15607e-20)
(0.000772762 -5.61438e-05 -6.15804e-19)
(0.000358302 8.88255e-05 4.9766e-19)
(0.000906557 0.000427713 0)
(4.29376e-05 2.55496e-05 1.3366e-19)
(0.000498624 0.000259419 2.13877e-19)
(0.000557292 -0.000175098 -7.09126e-19)
(8.27479e-05 -0.000177113 -1.05583e-18)
(0.000827317 4.28055e-05 -4.86499e-19)
(0.000756544 -5.58238e-05 -1.94602e-19)
(0.00055356 0.000728053 -1.17404e-18)
(0.000857397 4.50667e-05 -6.73631e-20)
(0.000549285 -6.91182e-06 1.2826e-18)
(0.000723115 9.9382e-05 2.27687e-20)
(0.000548471 0.000201895 -1.65628e-19)
(2.14567e-05 -1.76647e-05 -8.75513e-20)
(0.000143696 -6.6044e-05 2.40505e-18)
(1.07565e-05 4.86063e-07 -1.94786e-19)
(0.000847477 0.000120488 3.63602e-19)
(0.000687333 0.000134507 0)
(0.000164226 -0.000119356 -1.04782e-18)
(0.000107351 -3.07352e-05 3.12663e-19)
(8.64425e-05 -4.29919e-05 1.23944e-23)
(0.000815048 0.000106098 -3.19139e-19)
(0.000141372 -2.74934e-05 0)
(0.000601177 0.000236759 0)
(0.000111383 0.000319387 -3.62739e-19)
(0.000871869 0.000102038 2.10769e-18)
(8.73608e-06 6.10196e-07 0)
(0.000891876 5.11087e-05 0)
(3.2327e-05 -2.41583e-05 0)
(0.00081514 4.91401e-05 -4.46626e-21)
(0.000779844 -2.34021e-05 0)
(0.00426103 0.007408 8.07134e-20)
(0.00436304 0.00748849 1.43353e-19)
(0.000842188 -2.15475e-05 0)
(0.000801787 -2.89519e-05 8.11435e-19)
(0.000151016 0.000111756 1.49158e-19)
(0.000865987 6.63552e-05 8.08255e-19)
(0.000125451 8.9319e-05 2.34311e-20)
(0.000796593 -1.66388e-05 6.23906e-19)
(2.91134e-05 7.27053e-06 0)
(2.02768e-05 -1.05659e-05 -4.48304e-20)
(0.000910346 4.64349e-05 -4.86352e-19)
(2.18783e-05 -2.66586e-05 -6.69542e-19)
(0.000774301 0.000128484 -4.23068e-20)
(0.000169509 0.000149423 -1.88037e-19)
(0.000813225 3.25783e-05 0)
(0.00468253 0.00815354 9.00688e-22)
(0.000197488 0.000791963 3.33355e-19)
(9.08681e-05 -7.04676e-05 -9.14171e-19)
(4.59746e-05 -3.42823e-05 -1.16834e-18)
(0.000577411 1.29319e-05 1.89507e-20)
(0.000587176 0.000402452 0)
(0.000427427 0.000446059 -2.5625e-19)
(5.94344e-05 -6.51953e-05 1.1833e-18)
(0.000540759 -2.04835e-06 7.6736e-20)
(3.4862e-05 6.77114e-07 4.06933e-19)
(0.000731149 -3.86305e-05 1.17111e-18)
(0.000812873 3.21623e-05 -6.06202e-19)
(4.33265e-05 -5.30352e-05 1.70886e-18)
(0.000840761 -4.71608e-05 -6.40988e-24)
(0.000553865 5.88817e-06 -3.74627e-20)
(0.000880793 7.22405e-05 0)
(0.000847554 5.52631e-05 0)
(0.00591482 0.00724369 2.59998e-19)
(1.08508e-05 -3.12998e-06 -1.19553e-19)
(8.44772e-05 -0.000119619 7.72771e-19)
(0.000743135 0.000113814 -6.96152e-19)
(1.33302e-05 3.23007e-07 2.01479e-19)
(0.000662067 -3.54158e-05 -7.23497e-19)
(0.000760048 3.56539e-05 1.55739e-18)
(0.000719837 0.000156288 -3.55301e-19)
(0.00080721 -1.12457e-05 3.60705e-19)
(5.83938e-05 -3.76526e-05 1.11555e-18)
(0.000801966 6.56163e-06 -3.22557e-19)
(0.000877598 3.38328e-05 0)
(0.000554422 0.000300595 4.20867e-20)
(0.000870447 4.82359e-05 -9.47484e-19)
(1.166e-05 2.98109e-06 9.11263e-19)
(0.00086386 3.90428e-05 9.65911e-19)
(0.000865015 2.99555e-05 -9.64125e-19)
(0.000770037 2.86235e-06 -5.68928e-19)
(0.000558394 -8.65674e-05 -5.25421e-19)
(0.00433011 0.00745468 2.4705e-19)
(0.00422257 0.0075279 -2.53752e-19)
(0.0042202 0.00758574 2.66967e-19)
(0.00425663 0.00741174 1.98004e-19)
(0.000845148 -3.9711e-05 1.44212e-19)
(0.00447702 0.0075152 0)
(0.00440462 0.00751922 -3.86829e-19)
(1.91426e-05 -1.56382e-07 -9.9785e-19)
(0.00416988 0.00746829 -6.33731e-20)
(0.0041454 0.00743157 -2.21545e-19)
(0.00602923 0.0106047 0)
(0.00654021 0.0111867 3.71543e-20)
(0.00600915 0.0105745 0)
(0.00655591 0.0112103 1.30968e-19)
(0.0059966 0.0105985 2.69689e-19)
(0.00659261 0.0112272 1.24722e-20)
(0.00593552 0.0106111 -7.76822e-19)
(0.00662288 0.0111462 8.16418e-21)
(0.00390342 0.00919712 -1.90803e-19)
(0.00418608 0.00748726 3.90014e-21)
(0.00423707 0.00755123 7.9369e-20)
(0.0041499 0.00743389 4.12095e-20)
(0.000899103 0.000197573 4.46557e-20)
(5.96192e-06 8.18882e-07 0)
(0.00073252 -9.58974e-05 0)
(0.000656949 5.8411e-05 0)
(0.00244693 0.00111926 4.23539e-21)
(0.000759122 -3.00372e-05 1.72507e-19)
(3.36993e-05 3.90035e-06 4.53883e-20)
(4.31736e-06 -1.97639e-05 1.65231e-18)
(0.000865643 1.90358e-06 0)
(2.32373e-05 9.9692e-06 -1.91654e-19)
(0.000138985 0.000213477 0)
(9.45534e-06 -7.4977e-07 0)
(7.17922e-06 -7.84278e-07 0)
(0.000841311 0.000150811 1.13731e-20)
(0.00081099 -1.77488e-05 1.79543e-19)
(3.88166e-05 0.00025268 -8.13424e-24)
(0.000156041 0.000264643 -1.84135e-18)
(0.000615204 0.000325352 -8.5671e-20)
(0.000905544 0.000115889 6.01799e-19)
(0.000582069 -0.000136349 6.74764e-19)
(0.000358129 0.00111753 0)
(0.00048399 0.000575326 2.7145e-18)
(8.76594e-05 0.000135601 -1.80253e-18)
(1.27379e-05 -3.31859e-07 0)
(0.000822971 -6.45524e-05 3.64041e-20)
(1.30962e-05 2.98999e-05 1.64388e-18)
(0.000892484 3.64902e-05 2.71017e-19)
(-3.16018e-05 9.18348e-05 3.80989e-18)
(0.000924429 4.24937e-05 -2.68886e-19)
(0.00133155 0.000157516 7.47243e-19)
(2.6812e-05 -9.15461e-06 8.2539e-20)
(2.86175e-05 1.83342e-06 -8.58779e-19)
(5.06765e-05 0.000131897 0)
(0.000922919 9.13706e-05 5.98178e-19)
(0.000501221 0.000365918 2.3707e-19)
(0.000601898 1.71035e-05 -3.88893e-20)
(0.00079158 8.95783e-06 2.57196e-19)
(0.000726627 -0.000127669 0)
(0.00632095 0.0108951 -1.68087e-19)
(0.00637871 0.0109729 4.05903e-19)
(0.00616 0.0107298 -6.18526e-19)
(0.00650122 0.0111319 -8.0998e-20)
(3.09004e-05 0.000109725 8.00259e-19)
(0.000932417 6.22453e-05 1.443e-22)
(0.00641129 0.0110054 -3.86528e-19)
(0.00628193 0.0108448 5.48548e-19)
(0.0060801 0.0106716 -4.16855e-19)
(0.00652174 0.0111644 -6.81572e-20)
(7.83667e-05 0.000486048 -2.01767e-20)
(3.81321e-05 -0.000186123 -7.9267e-19)
(0.000630515 -1.89994e-05 -7.66885e-19)
(0.000734189 0.000219363 0)
(0.000800305 2.32359e-07 0)
(0.000190668 0.000383697 3.362e-19)
(0.000604973 0.000510962 -5.417e-19)
(4.32813e-06 -7.69656e-07 1.78327e-19)
(0.000200492 0.000465738 -7.38186e-19)
(0.0010256 0.000980839 -1.12669e-19)
(0.00075807 0.000166928 0)
(0.00079885 0.000184724 1.30973e-19)
(0.00634796 0.00588369 1.13212e-18)
(0.000734857 0.00113106 8.26464e-20)
(3.42075e-05 3.29501e-05 -7.44414e-20)
(0.000808279 1.14377e-05 0)
(0.000868911 2.11425e-05 -3.56782e-20)
(2.7314e-05 1.73441e-06 -1.96669e-19)
(2.39252e-05 3.03718e-06 1.92932e-19)
(0.000835067 1.11836e-05 5.37006e-19)
(0.00099017 0.000114927 6.57942e-19)
(0.000528958 4.89872e-05 0)
(0.000220156 -0.000256386 -3.98199e-19)
(0.000922518 0.000143084 3.89436e-19)
(2.71152e-07 -4.14807e-05 2.02923e-19)
(0.00145501 0.000444648 -2.57996e-18)
(0.000552439 -1.50724e-05 0)
(0.00080399 0.000141822 3.75329e-19)
(9.68306e-05 0.000383832 0)
(0.00118905 0.00816148 4.62041e-19)
(0.000499266 0.000496465 -1.22419e-18)
(0.000541201 0.00101853 -1.83705e-19)
(0.000890879 1.21599e-05 -1.46005e-19)
(9.99937e-06 2.10634e-05 0)
(0.000965689 7.88213e-05 6.11367e-19)
(0.00410601 0.00739485 8.14466e-20)
(0.00417071 0.00747276 4.7312e-20)
(0.00450078 0.00751794 4.54136e-19)
(0.00444608 0.00754354 -3.29423e-19)
(0.00647513 0.0111089 8.10751e-20)
(0.00391476 0.00714591 -9.49401e-22)
(0.00550735 0.00780063 -5.64808e-19)
(0.00409778 0.00737143 5.21904e-21)
(0.00518879 0.00786048 5.11743e-19)
(0.00407954 0.00733978 -4.87423e-20)
(0.00495419 0.00772005 0)
(0.00408475 0.00736404 -8.56855e-20)
(0.00474308 0.00759091 4.92578e-19)
(0.00409799 0.00737564 8.75361e-20)
(0.00457584 0.00753051 0)
(0.00428457 0.00742222 1.39767e-19)
(0.00423841 0.0075973 5.8072e-19)
(0.0044685 0.00752907 -5.55527e-19)
(0.00438881 0.00750673 3.71427e-19)
(0.00422714 0.00752381 2.88007e-19)
(0.00643047 0.0110421 -4.97773e-21)
(0.00411744 0.00740095 3.11666e-20)
(0.00645861 0.011072 0)
(1.92742e-05 4.06573e-06 -1.89792e-19)
(0.00200246 0.00654748 2.28161e-19)
(0.000838307 -6.20429e-05 1.0959e-19)
(0.000851128 -5.44647e-07 0)
(5.33224e-07 2.75158e-07 -3.98966e-19)
(-3.80142e-05 -6.64471e-05 6.90994e-19)
(2.27146e-05 5.04684e-05 2.08831e-18)
(0.000841785 0.000188971 -9.00343e-20)
(0.000801726 8.28704e-06 7.06134e-19)
(-1.25957e-07 3.33962e-07 3.09874e-19)
(1.17846e-05 -2.62036e-05 -1.84492e-18)
(0.00076356 2.65139e-05 1.63095e-19)
(0.000875177 0.000126362 -3.07869e-20)
(0.000801109 -6.76085e-06 1.48077e-19)
(0.000438088 0.000678396 0)
(-2.56908e-06 -0.000127944 1.15094e-18)
(0.000877654 -2.53983e-06 1.52478e-19)
(1.73144e-05 2.01945e-05 0)
(0.000120754 0.000551947 -6.311e-19)
(0.000615444 0.000582693 1.31756e-18)
(0.000336185 0.000758014 0)
(0.000802175 -1.39325e-05 0)
(0.000801859 3.1387e-06 1.17687e-18)
(1.43019e-05 4.31213e-05 -3.51377e-18)
(1.3166e-05 5.17337e-06 3.7349e-19)
(0.000116508 0.00013439 0)
(3.13585e-05 -3.75774e-05 0)
(5.80211e-05 0.000104323 2.00931e-19)
(0.000944588 0.000190527 3.50299e-19)
(0.000801668 1.52316e-05 -1.3873e-18)
(2.00023e-05 2.8474e-05 0)
(0.000403185 1.93187e-06 -6.04594e-20)
(0.000799349 3.51568e-05 -1.56297e-19)
(0.00085212 5.08907e-05 1.06521e-18)
(0.000251722 0.000542624 6.32055e-19)
(0.000886061 0.000158408 0)
(1.17464e-05 -1.82038e-05 5.38417e-19)
(1.0738e-06 -1.46442e-06 -3.19849e-19)
(0.000937072 3.54588e-05 0)
(0.00104981 0.00227151 0)
(0.000898431 4.00423e-06 0)
(0.00100934 0.000209352 4.27011e-19)
(0.000819007 -3.73785e-05 -2.84172e-19)
(0.00094547 0.000115099 -6.8451e-19)
(0.000801253 3.74779e-06 0)
(3.95481e-05 6.14754e-05 -1.71508e-19)
(0.000174773 0.000321067 1.08082e-18)
(0.000801236 1.38692e-05 -2.5477e-23)
(0.00111067 0.00020875 -6.68432e-19)
(0.00108761 0.000129805 0)
(1.67892e-06 3.26369e-06 2.50938e-19)
(1.29993e-05 -1.15228e-05 -1.94245e-19)
(0.00054915 4.94494e-05 6.94787e-21)
(-1.16145e-05 -5.41907e-05 0)
(0.00107904 0.000257616 9.49584e-19)
(0.00502881 0.00974824 -2.82868e-19)
(0.00312163 0.00961663 1.2724e-18)
(9.6382e-06 -8.82995e-05 -1.91252e-19)
(3.14464e-05 -6.87507e-05 1.85872e-18)
(0.0011926 0.000260205 1.67283e-19)
(0.00133213 0.00107527 2.34024e-19)
(0.000810517 3.74542e-06 -7.36833e-19)
(0.000200976 0.00094812 -2.38187e-19)
(0.000819693 0.00094691 -2.18524e-19)
(0.000800399 -1.92263e-06 0)
(8.14235e-05 0.000606941 0)
(9.41494e-05 0.000274891 -3.47089e-23)
(0.000720608 -4.8327e-05 -1.67271e-23)
(0.000827895 6.95486e-05 1.5255e-19)
(0.00263324 0.00206827 -1.23118e-18)
(0.00176088 0.00923812 -1.17187e-19)
(0.000833844 7.41528e-05 4.91953e-19)
(0.00631701 0.00405369 -1.76237e-19)
(0.0067208 0.011557 -1.36613e-20)
(0.004734 0.00784366 4.9356e-21)
(0.000806296 1.36133e-05 -2.16743e-18)
(0.000844409 -7.18669e-07 8.16382e-24)
(4.45369e-06 -4.75827e-06 -3.47893e-19)
(4.46279e-05 8.12778e-05 -3.49161e-19)
(6.1046e-05 0.000257693 8.7505e-19)
(8.22716e-06 1.29424e-05 4.90235e-19)
(8.9829e-05 0.000220513 3.69654e-19)
(0.000818687 1.39046e-05 0)
(0.00534824 0.00949237 1.94908e-20)
(0.00154946 0.000639978 -2.61125e-20)
(0.000819051 4.11518e-05 3.6005e-19)
(1.04436e-05 -6.90901e-05 0)
(0.00184892 0.00074996 5.45876e-19)
(6.69791e-06 5.37853e-06 -2.7006e-19)
(2.97376e-05 2.40923e-05 9.71483e-20)
(0.00133649 0.00139889 6.36522e-19)
(0.000740087 4.98211e-05 1.83041e-19)
(1.15202e-06 -5.47358e-07 -1.7014e-19)
(0.00206605 0.00156365 -1.05559e-18)
(0.00012688 0.000169131 -8.1852e-19)
(0.00392007 0.00848884 -1.09078e-18)
(2.71543e-06 8.24046e-07 8.81123e-20)
(9.09131e-05 -3.03536e-05 -1.25815e-18)
(3.15623e-05 -5.22968e-05 4.05496e-20)
(0.00153374 0.000988978 0)
(0.00104428 0.000142512 -3.99361e-22)
(0.00045622 0.000845207 -4.01966e-20)
(0.000803586 2.75582e-05 -2.33996e-19)
(8.68484e-05 0.000175608 7.35843e-19)
(1.62263e-05 -5.06536e-05 4.03849e-19)
(1.55725e-05 1.24437e-05 -9.46775e-20)
(2.77242e-05 8.28568e-05 -3.20183e-19)
(0.000216277 -0.000152253 -5.45699e-19)
(0.00325175 0.00346852 2.89156e-21)
)
;

boundaryField
{
    back
    {
        type            empty;
    }
    ingreso
    {
        type            fixedValue;
        value           uniform (0.0008 0 0);
    }
    salida
    {
        type            zeroGradient;
    }
    front
    {
        type            empty;
    }
    defaultFaces
    {
        type            noSlip;
    }
}


// ************************************************************************* //
