/*--------------------------------*- C++ -*----------------------------------*\
  =========                 |
  \\      /  F ield         | OpenFOAM: The Open Source CFD Toolbox
   \\    /   O peration     | Website:  https://openfoam.org
    \\  /    A nd           | Version:  7
     \\/     M anipulation  |
\*---------------------------------------------------------------------------*/
FoamFile
{
    version     2.0;
    format      ascii;
    class       volScalarField;
    location    "86";
    object      p;
}
// * * * * * * * * * * * * * * * * * * * * * * * * * * * * * * * * * * * * * //

dimensions      [0 2 -2 0 0 0 0];

internalField   nonuniform List<scalar> 
591
(
0.00012386
0.000123877
0.00012388
0.000123831
0.000123834
0.000123904
0.000123895
0.000123867
0.000116977
0.000123887
0.000124071
0.000122814
0.000123873
0.000119708
0.000123868
0.000123911
0.000123859
0.000123914
0.000121938
0.000123246
0.000123849
-3.52514e-06
0.000124066
0.000123851
0.000124023
0.000123873
0.000123982
0.000123983
0.000123887
0.000123894
0.000124043
0.000124017
0.000124037
0.000124036
0.000124038
0.00012336
0.000124033
0.000123852
0.000124061
0.000123978
0.000123934
0.00012403
0.000123881
0.000123904
0.000124027
0.000124047
0.000119212
0.000124052
0.000123885
0.000124002
0.000124
0.000124031
2.39469e-05
3.05936e-05
4.78452e-05
0.000123879
0.000124056
0.000124047
0.000124049
0.000123859
0.000123947
0.000123877
0.000123875
0.000123924
0.000122549
0.000123877
0.00012388
0.000124046
0.000120707
0.000123892
0.000123885
0.000124053
0.000124026
0.000124031
0.000124037
0.000124013
0.000123854
0.00012405
0.000123856
0.000123794
0.000123631
0.000124055
0.000124014
0.000123997
0.000124062
0.000123867
0.000123955
0.000124044
0.000124006
0.000123759
0.000124019
0.000123969
0.000123983
0.000123859
0.00012406
0.000124015
0.000123562
0.000123461
0.000123629
0.000124066
0.000123973
0.000123891
0.000124071
0.000123827
0.000124072
0.000123878
0.000123876
0.000124019
0.000124064
0.000124068
0.000123957
0.000124044
0.000123892
0.000124047
0.000124064
0.000124048
0.000124002
0.000123994
0.000123563
0.00012397
0.000123878
0.000123871
0.000123962
0.000123857
0.000124032
0.000120181
0.000124072
0.000124049
0.000123629
0.000124038
0.000123868
0.000123554
0.000124009
0.000124002
0.000124042
0.000123884
0.00012261
0.000124069
0.00012387
0.000123557
0.000123625
0.000123968
0.000124053
0.000124062
0.000124056
7.61753e-06
3.6793e-06
2.07181e-06
3.81651e-05
3.67049e-05
5.662e-06
3.8317e-05
1.57421e-05
3.72997e-05
1.78091e-05
0.000123878
0.000123869
0.00012406
0.000124051
0.000124059
0.000124058
0.00012405
0.000124046
0.00012406
0.000124058
0.000124024
0.000124059
0.000124055
0.000124062
0.000124003
0.000123375
0.000124062
0.000122109
0.000124045
0.000124041
0.000123992
0.000123888
0.000124041
0.000124057
0.000124056
0.000123473
0.000122456
0.000123032
0.000123424
0.000124045
0.000124053
0.000123955
0.000123849
0.000124048
0.000122952
0.000123281
0.000123849
0.000124039
0.000123736
0.000124033
0.000124054
0.000124028
0.000123704
0.00012384
0.000124051
0.000124056
0.000124056
0.000123855
0.000124038
0.000123852
0.000124064
0.000123872
0.000123871
0.000124061
0.000123664
0.00012384
0.000123881
0.000123521
0.000124014
0.000123667
0.000123955
0.00012397
0.000124043
0.000123434
0.000123943
0.000123833
0.000123833
0.000124014
0.000123776
0.000123928
0.000123844
0.000123756
0.000123825
0.000124065
0.000123821
0.000124063
0.000123914
0.000124041
0.000123886
0.000123887
0.000124067
0.000123774
0.000124053
0.000123764
0.000123812
0.000123876
0.000123855
0.000123893
0.000123879
0.000123649
0.000123852
0.000123806
0.00012402
0.000123872
0.000123727
0.000124008
0.000123276
0.000123839
0.000123168
0.000123053
0.000123862
0.000123827
0.000123865
0.000123861
0.000123834
0.000124066
0.000123908
0.000123987
0.000123922
0.000123912
0.000123925
0.00012402
0.00012367
0.000124062
0.000123706
0.000123594
0.000123897
0.00012404
0.000123617
0.000124057
0.000123967
0.000123983
0.000124011
0.000123887
0.000123861
0.000123697
0.000123821
0.000123856
0.000123903
0.000123963
0.000124026
0.000124045
0.00012405
0.000123806
0.000123913
0.000124038
0.000124044
0.000124039
0.00012383
0.000124052
0.000123927
0.000124037
0.000123792
0.000124052
0.000123779
0.000124028
0.000123918
0.000123861
1.16423e-05
2.19146e-05
0.000123804
0.000123884
0.000124065
0.000123812
0.000124065
0.000123895
0.000124052
0.000124029
0.000123762
0.000124023
0.000123852
0.000124062
0.000123886
-2.09629e-07
0.000123757
0.000124034
0.000124029
0.000123721
0.000123878
0.000123921
0.000124023
0.000123778
0.000124045
0.000123929
0.000123879
0.000124021
0.000123826
0.000123752
0.000123788
0.000123888
4.7487e-05
0.00012404
0.00012402
0.000123877
0.000124047
0.000123957
0.0001239
0.000123883
0.000123867
0.000124032
0.000123894
0.0001238
0.00012393
0.000123805
0.000124045
0.000123812
0.000123871
0.000123906
0.000123991
1.98743e-05
2.73123e-05
3.43004e-05
9.63945e-06
0.000123852
3.30602e-05
2.60186e-05
0.000124043
1.90748e-05
1.70306e-05
3.81899e-05
7.57628e-06
3.99419e-05
5.60487e-06
4.08361e-05
3.68874e-06
4.28185e-05
1.87587e-06
3.64134e-05
2.31965e-05
2.9447e-05
1.49928e-05
0.000123735
0.000124054
0.00012392
0.000123929
0.000120879
0.000123971
0.000124049
0.000124019
0.000123818
0.000124054
0.000124058
0.000124034
0.000124031
0.000123794
0.000123868
0.000124042
0.000124048
0.000123884
0.00012375
0.00012383
0.00012339
0.000123842
0.000124069
0.000124038
0.000123879
0.000124062
0.000123722
0.00012391
0.000123682
0.000122837
0.000124033
0.000124044
0.000124068
0.000123737
0.000123928
0.00012368
0.000123893
0.000123885
2.60538e-05
2.18792e-05
3.30397e-05
1.16183e-05
0.000124072
0.000123729
1.9821e-05
2.82611e-05
3.56067e-05
9.58816e-06
0.000123891
0.000123979
0.000123838
0.000123848
0.000123869
0.000124009
0.0001238
0.000124028
0.000123975
0.000123085
0.000123851
0.000123817
5.93738e-05
0.00012321
0.000124059
0.000123863
0.000123755
0.000124048
0.000124051
0.000123843
0.000123643
0.000123874
0.000123927
0.000123727
0.000124004
0.000122885
0.000123802
0.000123825
0.000124018
0.00010087
0.000123865
0.000123471
0.00012379
0.00012406
0.000123691
1.08961e-05
2.11151e-05
3.53719e-05
2.82111e-05
1.36622e-05
5.48292e-08
4.20871e-05
2.69001e-06
4.01635e-05
4.76211e-06
3.94217e-05
6.81485e-06
3.86289e-05
8.85749e-06
3.72946e-05
1.36741e-05
3.17316e-05
3.05952e-05
2.39422e-05
2.52645e-05
1.77661e-05
1.29385e-05
1.57081e-05
0.000124053
0.000102397
0.000123851
0.000123781
0.000124057
0.000123946
0.000124063
0.000123779
0.000123907
0.000124024
0.000124019
0.000124026
0.000123778
0.000123874
0.000123786
0.000123983
0.000123811
0.000124058
0.000123931
0.000123762
0.000123768
0.000123885
0.000123878
0.000124064
0.000124055
0.000124067
0.000124023
0.000124069
0.000123694
0.000123873
0.000124059
0.000123819
0.000123949
0.000123879
0.000123926
0.000123761
0.000124023
0.000124022
0.000123335
0.000121353
0.000123061
0.000123608
0.000123873
0.000123704
0.000123885
0.000124065
0.000124032
0.000123879
0.000123494
0.000123472
0.000124058
0.000124025
0.000123895
0.00012399
0.000123534
5.83166e-05
4.01259e-05
0.000123995
0.000124013
0.000123376
0.000122729
0.00012386
0.000123611
0.000123358
0.000123869
0.000123785
0.000124051
0.000123902
0.000123933
0.000118989
5.44773e-05
0.000123902
8.125e-05
1.86173e-06
-3.81043e-07
0.000123869
0.000123838
0.000124024
0.000124067
0.000124058
0.000124058
0.000124061
0.000123855
-2.30735e-06
0.000122809
0.000123895
0.000124001
0.000121996
0.000124057
0.000124057
0.000122269
0.000123972
0.000124026
0.000121672
0.000124064
7.63387e-05
0.000124055
0.000123741
0.000124017
0.000122357
0.000123581
0.00012365
0.000123904
0.000124067
0.00012401
0.000124056
0.000124069
0.000123867
0.000116158
)
;

boundaryField
{
    back
    {
        type            empty;
    }
    ingreso
    {
        type            zeroGradient;
    }
    salida
    {
        type            fixedValue;
        value           uniform 0;
    }
    front
    {
        type            empty;
    }
    defaultFaces
    {
        type            zeroGradient;
    }
}


// ************************************************************************* //
