/*--------------------------------*- C++ -*----------------------------------*\
  =========                 |
  \\      /  F ield         | OpenFOAM: The Open Source CFD Toolbox
   \\    /   O peration     | Website:  https://openfoam.org
    \\  /    A nd           | Version:  7
     \\/     M anipulation  |
\*---------------------------------------------------------------------------*/
FoamFile
{
    version     2.0;
    format      ascii;
    class       surfaceScalarField;
    location    "86";
    object      phi;
}
// * * * * * * * * * * * * * * * * * * * * * * * * * * * * * * * * * * * * * //

dimensions      [0 3 -1 0 0 0 0];

internalField   nonuniform List<scalar> 
1111
(
6.85368e-09
1.30344e-08
-1.60106e-08
-3.87748e-09
6.82921e-09
-1.18159e-08
1.18404e-08
-1.47519e-08
5.59464e-09
8.96011e-09
1.972e-10
7.91784e-10
-9.10365e-10
-1.43462e-08
1.44648e-08
-1.42968e-08
1.40627e-08
1.02594e-09
-1.63834e-09
1.49113e-08
2.15557e-09
-3.11168e-09
9.57862e-09
-9.8488e-09
3.38187e-09
-6.71651e-09
-1.26154e-08
1.26005e-08
6.73146e-09
-5.03261e-08
-2.60307e-08
7.63568e-08
-8.13184e-09
7.68791e-09
7.27313e-09
3.37222e-09
3.60838e-10
-3.45397e-09
-2.79085e-10
1.58394e-08
-1.62028e-08
-2.31882e-08
2.35516e-08
-9.66144e-09
-7.89425e-09
8.8004e-09
8.75529e-09
-3.55418e-08
1.76893e-08
-3.23075e-08
5.01599e-08
9.5056e-09
-1.9635e-09
-1.42586e-08
-7.64623e-10
1.69101e-09
-3.18333e-09
2.25695e-09
-3.90459e-09
1.33445e-08
1.96392e-09
-1.14038e-08
8.81848e-09
-2.61916e-09
-1.50468e-08
8.8475e-09
3.73657e-08
-3.00432e-08
-7.32248e-09
-1.94534e-08
3.80902e-10
1.72409e-08
1.83154e-09
-1.02302e-09
4.21994e-09
-1.78571e-08
1.46602e-08
-6.12222e-08
-3.96251e-09
6.51847e-08
1.42091e-10
-1.1846e-09
-3.37558e-10
1.38007e-09
-1.69226e-09
-1.36276e-08
-1.03593e-10
-2.56383e-10
2.01914e-10
1.58062e-10
-1.03323e-08
-8.45716e-09
1.29715e-08
5.81794e-09
6.85729e-10
-2.12451e-09
-8.31778e-09
9.75656e-09
8.48436e-09
8.11169e-10
-9.51098e-09
2.15454e-10
-2.87628e-09
-7.9644e-09
1.10388e-08
-1.98079e-10
1.14038e-08
-9.32676e-10
-1.65262e-09
-8.52512e-10
8.51001e-10
9.64472e-12
-8.1334e-12
-1.2793e-10
7.25181e-10
2.6237e-10
-8.59621e-10
-4.67031e-10
-3.92409e-11
4.99915e-10
6.35755e-12
-3.18945e-11
-8.305e-10
1.1095e-10
7.51444e-10
-9.3891e-11
-7.90514e-10
9.33149e-10
-1.84332e-08
-1.95335e-09
-3.85096e-10
4.2437e-11
-1.24372e-10
1.33888e-08
-1.32412e-08
4.0723e-09
-3.67269e-10
5.65883e-10
3.38587e-10
-5.372e-10
-8.90632e-11
-1.60224e-09
1.30887e-09
3.82431e-10
-2.0307e-09
1.04867e-08
-1.15677e-08
-2.76335e-10
-1.58768e-10
5.00069e-11
-8.76109e-09
1.04073e-08
-9.77801e-09
1.22238e-08
-1.71478e-08
4.64722e-09
2.76782e-10
5.88899e-11
-1.58597e-10
-1.76627e-10
1.79424e-10
7.85907e-10
-1.14329e-10
-5.95319e-08
7.42293e-08
-1.46975e-08
1.0383e-09
-2.52645e-10
-1.16622e-09
3.80563e-10
1.14875e-09
1.03127e-08
-1.37172e-08
2.25578e-09
-1.66718e-09
7.63473e-09
-8.91764e-09
2.95009e-09
-6.68118e-09
5.65177e-09
5.64277e-09
-4.61336e-09
-7.57961e-09
-1.76682e-09
1.78349e-09
7.56293e-09
-1.80894e-10
-9.09188e-08
9.13044e-08
-2.04703e-10
-2.55872e-10
-8.97537e-08
9.01634e-08
-1.53804e-10
8.30797e-08
-1.4936e-09
1.09987e-10
-8.16961e-08
-2.92155e-09
-4.26622e-10
6.64272e-10
8.38749e-10
-4.64716e-10
3.93601e-09
-1.18194e-09
3.43742e-09
-6.19149e-09
-9.65733e-10
8.92514e-10
-1.49459e-08
6.59434e-09
9.72123e-09
1.0425e-09
-1.04912e-08
-2.72507e-10
-6.13433e-09
1.33877e-08
1.08812e-09
-8.34153e-09
1.43647e-08
-4.47889e-09
3.69039e-09
-1.35762e-08
1.5403e-08
1.68462e-09
-1.65885e-09
-1.90155e-10
-2.00634e-08
-7.42687e-09
2.76804e-08
1.42952e-08
-8.69155e-09
-1.9449e-09
7.93789e-09
-1.21273e-08
-6.2127e-12
7.87047e-11
-1.23871e-09
-3.62315e-08
-2.33004e-08
8.27713e-09
2.49463e-10
3.69717e-09
-7.0146e-09
1.10611e-08
6.36071e-09
-5.96714e-10
3.20227e-10
4.81052e-10
-2.04564e-10
5.77402e-09
-4.76332e-09
3.64751e-09
-4.65821e-09
-4.61503e-10
-6.30433e-10
2.61437e-10
6.60579e-10
-5.88868e-10
-1.51783e-11
-8.41632e-10
7.28881e-10
-1.8069e-08
2.4334e-09
1.55176e-09
1.40838e-08
2.2449e-10
-6.96435e-10
-1.24768e-10
-4.10769e-09
-1.50908e-08
1.12954e-09
5.61318e-09
1.20415e-08
-5.22568e-09
-1.2429e-08
1.64313e-08
6.86184e-10
-1.58953e-08
-1.22219e-09
-6.78395e-10
4.55032e-10
5.43591e-10
-4.16664e-10
2.09559e-10
2.07105e-10
-7.38297e-09
-3.58541e-09
4.2872e-09
-2.30392e-10
3.53809e-10
-1.23416e-10
1.17655e-09
-1.56166e-08
-8.22333e-10
9.75269e-09
-1.09611e-08
-9.62299e-10
-4.31841e-10
1.28907e-08
4.40923e-09
-4.15645e-09
-1.31435e-08
1.05967e-10
7.13382e-09
-7.89691e-09
6.41485e-09
-1.68935e-09
-8.90916e-09
8.14483e-09
2.45368e-09
-1.87587e-09
6.63281e-10
-1.38783e-08
-1.28038e-10
-1.02353e-10
1.49393e-10
7.8594e-10
-8.51494e-09
7.47162e-10
1.7294e-08
-1.60987e-09
-1.23421e-08
1.36951e-08
-1.353e-09
1.22008e-08
1.39637e-08
-1.55136e-08
-1.06508e-08
-5.50666e-10
1.0058e-09
-4.55139e-10
4.35235e-10
-3.88194e-10
-4.70411e-11
4.77256e-10
-2.56572e-10
-2.20685e-10
1.41306e-09
-1.1479e-09
-2.65158e-10
-1.06458e-08
8.0739e-10
9.83844e-09
2.05584e-09
-6.42777e-10
8.95986e-09
-1.53837e-08
7.47909e-09
-8.99688e-09
5.64202e-11
3.71431e-09
-3.98509e-10
-2.41668e-09
2.4731e-09
-6.60878e-09
7.94091e-09
-1.33213e-09
-5.78744e-10
4.23794e-09
2.76812e-10
1.72721e-08
-1.44839e-08
-1.63944e-09
-5.97638e-09
5.37553e-09
-5.81087e-10
-1.96855e-10
5.92305e-09
-5.92078e-09
-2.27054e-12
6.91107e-09
4.50572e-09
3.39412e-12
-1.60059e-08
1.04617e-08
1.7745e-08
5.76315e-09
8.28174e-09
8.2062e-09
-6.84806e-09
1.32683e-09
-1.19727e-08
4.79222e-10
1.17913e-09
-1.29604e-08
2.89855e-09
-4.25453e-10
1.1595e-08
-1.09088e-08
-2.42578e-10
-8.13613e-10
-1.3802e-08
7.58095e-09
7.52437e-10
-9.12487e-12
-8.90185e-09
5.05166e-09
-3.02333e-08
-1.25077e-08
-2.77733e-09
1.48298e-09
1.4078e-08
1.10029e-08
-1.07637e-08
-1.43173e-08
1.54408e-08
-3.12173e-09
-1.23191e-08
1.62324e-09
3.96175e-09
-1.10307e-09
-9.07125e-10
-8.75255e-10
1.17436e-09
6.0802e-10
-2.38355e-10
3.59417e-10
3.59991e-10
6.21383e-08
-6.21638e-08
2.54998e-11
6.20592e-08
-6.2363e-08
3.03773e-10
8.37029e-10
6.47362e-08
-6.55628e-08
8.2655e-10
6.41288e-08
6.07459e-10
-2.24634e-10
-6.6508e-08
9.45224e-10
-6.20516e-08
6.19171e-08
1.34433e-10
1.31553e-09
-6.78236e-08
-6.22113e-08
1.59764e-10
1.25286e-08
-7.54008e-10
1.36583e-09
-3.70074e-09
3.08892e-09
3.32004e-10
-1.19427e-09
9.5142e-10
-6.05323e-10
1.39951e-09
-1.63995e-09
8.45764e-10
1.41903e-09
-1.5292e-09
1.88881e-10
-5.83243e-11
-3.41827e-09
2.80242e-09
-2.03454e-09
2.65039e-09
-5.08181e-10
-2.75835e-09
2.51252e-09
-3.59978e-09
-5.7769e-09
5.91984e-10
-6.28488e-10
1.23232e-09
1.1186e-09
-6.50156e-09
7.93843e-09
3.06885e-09
1.97987e-08
-4.35792e-09
-7.17206e-10
2.87763e-10
1.02143e-09
-1.00905e-08
-2.6141e-08
5.33772e-09
-4.30314e-09
-3.16331e-09
2.12872e-09
1.06921e-10
2.28767e-11
3.70117e-10
-2.59677e-09
3.35864e-09
8.91469e-09
7.58377e-10
-2.79833e-10
2.11286e-09
-2.34121e-09
1.90931e-09
1.47409e-08
1.33008e-08
-2.69467e-08
3.26956e-08
6.34223e-09
-2.28282e-08
-1.04607e-08
1.84616e-08
-1.79535e-08
1.04949e-08
-9.91169e-11
-1.76041e-10
-1.25405e-09
-1.7309e-09
-2.94305e-09
3.60403e-09
1.50568e-08
-6.0641e-10
-1.37871e-08
-5.71721e-10
-2.41006e-09
2.23435e-10
1.54686e-08
1.77339e-08
1.37045e-08
7.18742e-10
-1.66955e-09
-1.27537e-08
-1.58041e-09
5.98875e-09
1.25151e-08
-5.28708e-10
-1.07542e-09
-3.61119e-09
2.77347e-09
3.64014e-09
2.48367e-09
1.44333e-08
4.23615e-09
-1.42603e-08
1.79533e-08
-1.76693e-09
2.53606e-09
-3.42541e-09
1.89574e-09
-4.88535e-09
1.29492e-08
-1.19685e-08
-1.40306e-08
3.52968e-10
8.79229e-09
-1.81985e-09
1.52084e-09
1.53133e-09
-8.65878e-09
7.05859e-10
-4.55477e-09
-6.01762e-09
1.22033e-08
-1.48444e-08
1.13878e-09
1.66899e-09
-2.21077e-09
1.67483e-08
-1.62065e-08
-1.06254e-09
1.41606e-08
3.04084e-09
-4.3959e-09
-1.40286e-08
7.52289e-09
-1.7335e-08
-8.14144e-09
6.76766e-09
5.86647e-09
1.45556e-08
-9.94978e-09
3.04422e-09
9.35924e-09
9.86211e-09
3.83947e-09
-4.18137e-09
2.16985e-08
-1.91389e-08
4.96335e-09
-1.05009e-08
2.1744e-09
5.63845e-09
1.38666e-08
-2.66597e-10
1.27807e-08
-1.35766e-08
-1.89634e-09
1.89614e-09
-9.05258e-10
9.0546e-10
1.10134e-08
-6.37778e-09
7.40586e-09
-1.08982e-08
1.43979e-09
-4.74694e-09
1.1451e-08
-1.19298e-08
-7.56152e-09
9.17839e-09
9.39655e-09
1.28851e-08
6.77111e-10
-1.38288e-08
1.49869e-09
7.94271e-10
-1.10942e-08
-6.72228e-09
1.0255e-08
-1.46216e-09
2.51653e-09
-8.96951e-09
4.80101e-09
-5.2451e-09
1.1541e-08
-3.48718e-09
-1.1747e-08
3.69321e-09
-4.48255e-09
1.12766e-08
1.8885e-09
1.13104e-09
-5.03274e-09
-1.77503e-08
1.04628e-08
1.23202e-08
7.59803e-10
-1.09815e-08
-9.9791e-09
1.59278e-08
1.25519e-08
2.85349e-09
-9.76692e-09
-1.33127e-08
-3.17248e-10
-1.27511e-08
1.65056e-10
-7.63641e-10
1.16373e-08
1.25289e-08
-8.23378e-09
1.66058e-08
-1.59873e-08
3.61757e-09
-4.66843e-10
1.75883e-09
1.27918e-08
-3.91427e-09
-1.26712e-08
-5.08829e-09
1.65464e-09
4.61278e-09
1.22269e-08
-7.25482e-09
9.19566e-10
-1.59748e-09
8.03793e-10
-1.10266e-09
5.86416e-09
2.63292e-08
-1.5697e-10
-1.00322e-08
1.01891e-08
2.8532e-08
-2.22869e-08
2.20752e-08
1.97225e-08
-1.27125e-08
-2.67746e-09
1.50711e-08
1.96595e-10
-1.21436e-08
-4.10938e-10
-6.02101e-09
-1.87455e-09
2.23122e-09
1.53183e-09
-3.55276e-10
-1.10684e-08
1.14585e-08
-3.48119e-11
3.10761e-09
-5.24581e-09
-1.10275e-08
1.05845e-08
-9.00394e-10
-1.07615e-08
-1.81006e-10
-1.12106e-08
-2.59465e-09
-1.20179e-08
2.18915e-09
7.9031e-09
5.13733e-09
-3.13994e-10
-1.1793e-08
1.17517e-08
5.86348e-10
-8.78533e-09
5.17562e-09
-1.45321e-09
2.32676e-09
-2.26959e-09
-1.30483e-08
-1.27004e-08
1.22295e-08
-1.02209e-08
-1.57887e-08
1.00037e-08
9.25673e-09
8.46474e-10
2.65558e-09
-1.26878e-08
1.14043e-08
1.67281e-09
3.93255e-09
3.02479e-10
-5.13441e-10
-2.5054e-10
-4.1276e-09
2.56501e-09
-8.4747e-10
1.98662e-10
-2.33544e-10
3.48817e-11
-2.66626e-09
1.30077e-08
2.21042e-09
2.55123e-09
-9.59127e-11
-1.4597e-09
-4.47238e-10
-2.36424e-09
-3.49511e-10
1.29591e-08
1.00345e-08
-3.44505e-10
6.8536e-09
-1.23193e-09
-5.27716e-09
-9.78541e-09
-5.11137e-09
1.5192e-10
4.67434e-11
4.87615e-09
1.31868e-09
-1.71763e-08
-3.76035e-10
-7.83105e-10
-2.76475e-09
1.02001e-09
2.98955e-09
6.19395e-08
-8.61571e-11
-6.18533e-08
6.23621e-08
1.88833e-10
-6.25509e-08
-1.41403e-08
-1.8649e-10
1.45012e-08
-1.7443e-10
3.03696e-09
-1.84593e-09
2.56258e-09
1.79988e-09
-4.48119e-09
-3.43554e-10
-5.35288e-10
4.34277e-10
-1.03552e-10
4.51801e-10
-3.08089e-10
1.96256e-08
1.07623e-09
-1.58257e-08
-1.64293e-10
-1.93587e-09
1.24618e-08
2.26593e-09
1.78757e-09
5.33863e-09
-2.09511e-09
-7.72338e-08
-2.41775e-08
-4.89814e-09
1.58283e-08
2.41425e-09
-1.77069e-10
-3.03464e-09
-1.12359e-09
3.78983e-10
-3.30814e-10
-1.02373e-08
-3.51121e-10
1.05885e-08
-1.08278e-08
-6.60533e-09
1.07108e-08
-9.4475e-09
8.75973e-09
1.68137e-10
1.55093e-09
9.75008e-09
-9.65195e-09
-9.81302e-11
6.15258e-10
8.47943e-11
1.06058e-08
6.71685e-10
-8.28252e-10
-1.27198e-10
-1.42433e-08
-4.87265e-10
-1.37718e-08
1.26177e-08
-1.18421e-08
-6.60328e-08
6.49868e-08
1.04598e-09
2.67977e-10
-2.45099e-10
1.19638e-08
-2.43472e-10
9.92894e-12
-2.04487e-09
2.768e-09
-3.43128e-09
-1.34781e-08
-1.62737e-09
2.57225e-09
-4.73534e-09
-1.40549e-08
1.61396e-09
5.57217e-09
9.63798e-09
-8.99624e-09
-2.68678e-10
2.52073e-11
-9.32784e-09
-1.32903e-08
1.50743e-10
-6.27011e-08
2.36388e-10
6.24647e-08
6.9515e-10
6.34336e-08
-2.24362e-10
-1.55574e-09
-1.44827e-08
1.07959e-10
-6.33974e-08
6.32894e-08
1.83318e-10
-6.29389e-08
6.27556e-08
3.69417e-10
6.18037e-08
1.50533e-10
-6.19542e-08
6.16346e-08
1.69063e-10
-8.78934e-08
8.85029e-08
-2.01769e-12
9.33968e-08
-9.31036e-08
-2.67715e-10
-8.66322e-08
-4.34687e-10
9.33556e-08
-1.83439e-10
-8.49181e-08
-7.68887e-10
9.34864e-08
1.73026e-10
-5.22806e-10
1.96096e-09
9.23624e-08
-6.93171e-08
6.21448e-08
-6.23257e-08
-6.2957e-08
6.14919e-08
1.42738e-10
-3.09224e-09
2.93069e-09
-1.40987e-08
5.2611e-11
9.93094e-11
1.46234e-09
8.76723e-09
-1.13864e-08
3.82928e-08
-3.45164e-08
-1.67368e-08
1.37902e-08
-4.47955e-11
-2.15767e-10
1.6649e-10
6.84858e-10
-1.32296e-10
3.2822e-10
4.49416e-09
1.03405e-09
-3.63246e-09
-1.96302e-10
2.3874e-10
-1.46295e-10
-2.5531e-09
1.3156e-08
2.40481e-09
-1.44381e-08
-2.62078e-09
-3.36673e-09
5.57771e-09
1.04517e-09
-2.66141e-09
1.42776e-08
-1.15339e-09
-2.12411e-09
2.46445e-09
-8.13151e-09
-1.90546e-08
-1.34466e-08
7.95463e-09
5.84492e-09
-2.35367e-10
-5.54991e-10
3.02158e-09
1.44722e-08
2.25669e-09
-1.81756e-09
-3.97683e-10
4.47504e-10
-2.46675e-10
1.59707e-08
-5.66333e-10
-1.57555e-08
-4.56014e-10
-5.6518e-10
3.20313e-10
-2.4488e-10
3.46737e-09
-1.64598e-08
4.7942e-10
-1.54861e-09
-2.14073e-09
-2.3347e-09
1.56011e-08
-9.05964e-08
-1.39018e-10
9.16838e-08
-1.90568e-10
-8.9169e-08
-4.76677e-10
9.31067e-08
-2.75568e-10
-9.29173e-08
-5.56403e-10
-1.63499e-09
1.67246e-08
9.1985e-08
-1.96706e-10
2.902e-11
-2.21255e-10
9.90484e-09
2.52902e-09
-7.60513e-09
-1.21508e-08
-5.67835e-09
8.43186e-09
1.46645e-09
-6.82945e-09
-6.02398e-09
9.02417e-09
-8.74043e-11
1.01468e-08
1.94909e-08
-1.79598e-08
3.07896e-09
-1.2672e-08
3.07973e-09
-6.99789e-08
3.94613e-09
-2.05629e-08
-1.3086e-08
-4.98125e-10
-5.95362e-09
-1.52823e-08
9.09232e-09
-1.51665e-08
4.44554e-10
3.75886e-10
-1.85732e-09
-1.65679e-08
1.70147e-08
7.40793e-09
-7.83455e-09
-4.82512e-09
1.52673e-08
-1.6833e-09
6.93601e-10
-1.01719e-09
1.78955e-10
1.1936e-08
3.32035e-09
7.0909e-08
-1.82327e-08
7.6345e-10
-1.49752e-08
-2.40196e-10
-2.80901e-10
-8.82025e-11
6.09538e-08
-6.12294e-08
-6.33684e-08
-6.31356e-08
-6.37967e-11
-2.62492e-10
-9.2591e-08
-6.04544e-08
6.24154e-08
6.50968e-08
-6.02814e-08
6.4574e-08
-6.04648e-08
6.38051e-08
-6.07326e-08
6.33704e-08
9.23139e-08
2.90335e-10
-6.37794e-09
7.51122e-08
-6.54139e-08
4.42617e-11
-4.42617e-11
4.34021e-10
-3.30955e-10
1.54861e-08
-3.29473e-11
3.29473e-11
3.48821e-10
1.53532e-09
1.38935e-08
1.33772e-08
-2.73731e-09
3.72787e-09
6.52601e-09
1.86039e-09
3.78414e-10
-2.59192e-10
-2.97937e-09
1.45771e-08
1.48468e-08
-4.283e-09
1.18176e-08
1.90539e-10
1.52407e-10
2.77672e-09
-8.51549e-10
-1.56609e-09
-5.83955e-09
-2.04467e-10
-4.05459e-10
1.53045e-08
2.64772e-10
7.30202e-11
1.46283e-08
-2.61466e-08
1.77256e-08
2.64023e-09
1.29189e-09
2.49216e-09
-3.72403e-09
1.92769e-08
-1.80451e-08
-8.37747e-11
2.44641e-10
-1.43997e-09
-7.92102e-08
-7.07571e-08
1.33756e-09
-5.74642e-10
6.51851e-10
2.297e-08
1.85961e-08
-6.34802e-09
7.78749e-11
-4.30986e-09
-2.50709e-09
2.99514e-08
1.51873e-10
1.48184e-08
7.35816e-08
5.44567e-11
5.20071e-10
-1.61815e-10
-2.21438e-10
-3.67432e-09
2.42316e-08
-1.48666e-08
1.00756e-09
-1.41585e-08
-5.50494e-11
2.03751e-08
-2.86692e-08
9.31826e-10
2.00843e-09
-3.26895e-10
)
;

boundaryField
{
    back
    {
        type            empty;
        value           nonuniform 0();
    }
    ingreso
    {
        type            calculated;
        value           nonuniform List<scalar> 
14
(
-1.54286e-08
-1.54288e-08
-1.54288e-08
-1.54288e-08
-1.54286e-08
-1.54283e-08
-1.54288e-08
-1.54288e-08
-1.54286e-08
-1.54286e-08
-1.54288e-08
-1.5428e-08
-1.5428e-08
-1.54286e-08
)
;
    }
    salida
    {
        type            calculated;
        value           nonuniform List<scalar> 2(1.01411e-07 1.14589e-07);
    }
    front
    {
        type            empty;
        value           nonuniform 0();
    }
    defaultFaces
    {
        type            calculated;
        value           uniform 0;
    }
}


// ************************************************************************* //
