/*--------------------------------*- C++ -*----------------------------------*\
  =========                 |
  \\      /  F ield         | OpenFOAM: The Open Source CFD Toolbox
   \\    /   O peration     | Website:  https://openfoam.org
    \\  /    A nd           | Version:  7
     \\/     M anipulation  |
\*---------------------------------------------------------------------------*/
FoamFile
{
    version     2.0;
    format      ascii;
    class       surfaceScalarField;
    location    "91.5";
    object      phi;
}
// * * * * * * * * * * * * * * * * * * * * * * * * * * * * * * * * * * * * * //

dimensions      [0 3 -1 0 0 0 0];

internalField   nonuniform List<scalar> 
1111
(
6.92768e-09
1.29937e-08
-1.60271e-08
-3.89425e-09
6.88876e-09
-1.18054e-08
1.18444e-08
-1.47492e-08
5.66774e-09
8.90737e-09
1.74078e-10
8.46029e-10
-9.75032e-10
-1.43617e-08
1.44908e-08
-1.4318e-08
1.40964e-08
1.06762e-09
-1.63066e-09
1.4913e-08
2.14621e-09
-2.97331e-09
9.52491e-09
-9.69479e-09
3.14319e-09
-6.71917e-09
-1.26142e-08
1.25997e-08
6.73365e-09
-5.02792e-08
-2.60581e-08
7.63373e-08
-8.1251e-09
7.70101e-09
7.31285e-09
3.33816e-09
3.65268e-10
-3.41944e-09
-2.83988e-10
1.58594e-08
-1.62307e-08
-2.32182e-08
2.35895e-08
-9.66378e-09
-7.89583e-09
8.80194e-09
8.75767e-09
-3.55611e-08
1.77053e-08
-3.23267e-08
5.01825e-08
9.50146e-09
-1.96344e-09
-1.42572e-08
-6.44405e-10
1.58761e-09
-3.05379e-09
2.11058e-09
-3.92704e-09
1.33375e-08
1.96758e-09
-1.1378e-08
8.81521e-09
-2.64412e-09
-1.50499e-08
8.87877e-09
3.72941e-08
-2.99643e-08
-7.32982e-09
-1.94501e-08
3.62797e-10
1.72361e-08
1.85118e-09
-1.04576e-09
4.22995e-09
-1.78517e-08
1.46675e-08
-6.12234e-08
-3.96218e-09
6.51856e-08
1.40124e-10
-1.16239e-09
-3.33587e-10
1.35585e-09
-1.72971e-09
-1.3634e-08
-9.21204e-11
-2.44349e-10
1.8809e-10
1.48379e-10
-1.03591e-08
-8.50705e-09
1.30427e-08
5.82342e-09
6.8376e-10
-2.12521e-09
-8.29272e-09
9.73417e-09
8.56685e-09
7.90828e-10
-9.60769e-09
2.50017e-10
-2.87739e-09
-7.99645e-09
1.10693e-08
-1.95443e-10
1.14067e-08
-9.75908e-10
-1.61557e-09
-8.26737e-10
8.2908e-10
-1.65937e-12
-6.83381e-13
-1.03558e-10
6.98271e-10
2.3325e-10
-8.27963e-10
-4.44527e-10
-3.94392e-11
4.7687e-10
7.09554e-12
-4.03736e-11
-7.99072e-10
1.12475e-10
7.26971e-10
-9.9998e-11
-7.67113e-10
9.57261e-10
-1.84182e-08
-1.98915e-09
-3.64253e-10
4.05118e-11
-1.20785e-10
1.33849e-08
-1.32424e-08
4.08752e-09
-3.5819e-10
5.53565e-10
3.28687e-10
-5.24063e-10
-5.57717e-11
-1.46521e-09
1.22439e-09
2.96597e-10
-1.989e-09
1.05588e-08
-1.15431e-08
-2.59071e-10
-1.52134e-10
4.6952e-11
-8.74777e-09
1.0462e-08
-9.83935e-09
1.22458e-08
-1.71478e-08
4.60581e-09
2.96163e-10
5.45186e-11
-1.50529e-10
-1.6306e-10
1.66189e-10
7.67394e-10
-1.04503e-10
-5.95325e-08
7.42314e-08
-1.46989e-08
1.02041e-09
-2.35675e-10
-1.14069e-09
3.55955e-10
1.14834e-09
1.03099e-08
-1.37152e-08
2.25692e-09
-1.74748e-09
7.71231e-09
-8.93894e-09
2.97411e-09
-6.71007e-09
5.62883e-09
5.66567e-09
-4.58443e-09
-7.65379e-09
-1.69243e-09
1.73046e-09
7.61576e-09
-1.82985e-10
-9.09157e-08
9.1302e-08
-2.03235e-10
-2.57574e-10
-8.97518e-08
9.01621e-08
-1.52775e-10
8.30785e-08
-1.49326e-09
1.10143e-10
-8.16954e-08
-2.87386e-09
-4.68646e-10
6.41289e-10
8.25966e-10
-4.46847e-10
3.92295e-09
-1.1019e-09
3.46735e-09
-6.2884e-09
-9.43506e-10
8.7402e-10
-1.49377e-08
6.5874e-09
9.79049e-09
1.05299e-09
-1.05679e-08
-2.756e-10
-6.11214e-09
1.34499e-08
1.03966e-09
-8.37743e-09
1.43704e-08
-4.51397e-09
3.7323e-09
-1.35887e-08
1.53982e-08
1.67955e-09
-1.64898e-09
-1.95021e-10
-2.00632e-08
-7.42587e-09
2.7684e-08
1.43697e-08
-8.747e-09
-1.9165e-09
7.97463e-09
-1.21703e-08
9.98706e-12
5.55628e-11
-1.20624e-09
-3.6198e-08
-2.33346e-08
8.30408e-09
2.70014e-10
3.67171e-09
-7.00502e-09
1.11215e-08
6.34554e-09
-5.82212e-10
3.09235e-10
4.69509e-10
-1.96533e-10
5.74841e-09
-4.78154e-09
3.66005e-09
-4.62693e-09
-4.3724e-10
-6.16876e-10
2.55045e-10
6.38024e-10
-5.64988e-10
-1.98986e-12
-7.94182e-10
6.92614e-10
-1.81226e-08
2.42174e-09
1.56563e-09
1.41353e-08
2.13987e-10
-6.78228e-10
-1.1797e-10
-4.14125e-09
-1.51238e-08
1.14238e-09
5.6104e-09
1.20655e-08
-5.22795e-09
-1.2448e-08
1.6419e-08
7.04249e-10
-1.58821e-08
-1.24117e-09
-6.63417e-10
4.40893e-10
5.31759e-10
-3.66939e-10
1.81639e-10
1.853e-10
-7.41698e-09
-3.55797e-09
4.26488e-09
-2.14747e-10
3.33008e-10
-1.18261e-10
1.14242e-09
-1.56427e-08
-8.05699e-10
9.85567e-09
-1.1039e-08
-9.35178e-10
-3.68928e-10
1.29216e-08
4.42272e-09
-4.16845e-09
-1.31759e-08
8.9519e-11
7.15875e-09
-7.92948e-09
6.39956e-09
-1.65782e-09
-8.96542e-09
8.18792e-09
2.43532e-09
-1.89882e-09
6.7401e-10
-1.3899e-08
-1.17442e-10
-9.73058e-11
2.20286e-10
7.33853e-10
-8.60793e-09
7.54053e-10
1.72854e-08
-1.62048e-09
-1.22037e-08
1.35684e-08
-1.36476e-09
1.22228e-08
1.3946e-08
-1.55044e-08
-1.06644e-08
-5.23189e-10
9.64888e-10
-4.41698e-10
3.50446e-10
-2.5435e-10
-9.60958e-11
3.10121e-10
3.82909e-11
-3.48412e-10
1.36603e-09
-1.10501e-09
-2.61014e-10
-1.05935e-08
8.59269e-10
9.73426e-09
1.99911e-09
-6.33083e-10
8.96725e-09
-1.53977e-08
7.60135e-09
-9.12854e-09
5.83855e-11
3.68081e-09
-4.01033e-10
-2.36438e-09
2.42276e-09
-6.54334e-09
7.87732e-09
-1.33399e-09
-5.3908e-10
4.25516e-09
2.06871e-10
1.72685e-08
-1.4481e-08
-1.63915e-09
-6.03975e-09
5.40161e-09
-4.63758e-10
-1.90181e-10
5.85958e-09
-5.85074e-09
-8.84022e-12
6.88805e-09
4.52603e-09
-1.84823e-11
-1.59827e-08
1.0463e-08
1.77425e-08
5.77926e-09
8.26754e-09
8.19487e-09
-6.84914e-09
1.36558e-09
-1.19591e-08
3.79484e-10
1.29307e-09
-1.29851e-08
2.84647e-09
-4.23714e-10
1.14496e-08
-1.07454e-08
-2.56741e-10
-7.78434e-10
-1.38093e-08
7.64288e-09
7.30302e-10
-4.01489e-12
-8.89646e-09
5.03028e-09
-3.01593e-08
-1.25112e-08
-2.8014e-09
1.50331e-09
1.40949e-08
1.10271e-08
-1.07893e-08
-1.43327e-08
1.54125e-08
-3.13271e-09
-1.22798e-08
1.6159e-09
3.97673e-09
-1.04846e-09
-8.97619e-10
-8.54009e-10
1.14951e-09
6.02119e-10
-2.30285e-10
3.50386e-10
3.49409e-10
6.21403e-08
-6.21661e-08
2.58038e-11
6.20606e-08
-6.23646e-08
3.03967e-10
8.37201e-10
6.47336e-08
-6.55604e-08
8.26794e-10
6.4126e-08
6.0756e-10
-2.24276e-10
-6.65058e-08
9.45411e-10
-6.20549e-08
6.19203e-08
1.34621e-10
1.3155e-09
-6.78213e-08
-6.22148e-08
1.59847e-10
1.2587e-08
-7.0153e-10
1.31544e-09
-3.69996e-09
3.08605e-09
3.17964e-10
-1.18035e-09
9.24015e-10
-5.75273e-10
1.38687e-09
-1.62183e-09
8.10235e-10
1.39966e-09
-1.49969e-09
1.55587e-10
-5.24286e-11
-3.43074e-09
2.76163e-09
-1.99135e-09
2.66046e-09
-4.59735e-10
-2.74081e-09
2.49901e-09
-3.56336e-09
-5.80261e-09
5.83363e-10
-6.11407e-10
1.20133e-09
1.10955e-09
-6.48206e-09
7.91936e-09
3.08873e-09
1.97652e-08
-4.3527e-09
-7.01343e-10
2.84859e-10
9.99847e-10
-1.00953e-08
-2.61026e-08
5.31372e-09
-4.27484e-09
-3.17267e-09
2.13379e-09
1.0204e-10
2.37034e-11
3.51127e-10
-2.56689e-09
3.33783e-09
8.94847e-09
7.36049e-10
-2.39265e-10
2.09583e-09
-2.3163e-09
1.86143e-09
1.47285e-08
1.33124e-08
-2.6939e-08
3.27031e-08
6.33736e-09
-2.28318e-08
-1.04446e-08
1.84915e-08
-1.79799e-08
1.05155e-08
-7.52649e-11
-1.96512e-10
-1.22791e-09
-1.70551e-09
-2.92803e-09
3.514e-09
1.50969e-08
-6.12942e-10
-1.381e-08
-6.5319e-10
-2.35046e-09
2.62842e-10
1.54686e-08
1.77514e-08
1.37045e-08
7.30724e-10
-1.69151e-09
-1.27437e-08
-1.53824e-09
5.98251e-09
1.25495e-08
-4.95376e-10
-1.05017e-09
-3.62775e-09
2.78376e-09
3.60562e-09
2.49171e-09
1.44723e-08
4.25928e-09
-1.43088e-08
1.80033e-08
-1.76399e-09
2.48884e-09
-3.39301e-09
1.90193e-09
-4.91512e-09
1.29447e-08
-1.19566e-08
-1.40397e-08
3.32527e-10
8.79207e-09
-1.80681e-09
1.50924e-09
1.4989e-09
-8.65965e-09
7.06822e-10
-4.55833e-09
-6.00695e-09
1.21942e-08
-1.48469e-08
1.09926e-09
1.67154e-09
-2.20666e-09
1.67816e-08
-1.62465e-08
-1.08459e-09
1.41761e-08
3.06538e-09
-4.42733e-09
-1.40358e-08
7.5496e-09
-1.73726e-08
-8.1569e-09
6.80644e-09
5.86865e-09
1.45861e-08
-9.99796e-09
3.03089e-09
9.40239e-09
9.85123e-09
3.8474e-09
-4.19398e-09
2.17341e-08
-1.91834e-08
4.99886e-09
-1.05538e-08
2.17171e-09
5.65966e-09
1.39093e-08
-3.01308e-10
1.27978e-08
-1.35811e-08
-1.91272e-09
1.8146e-09
-8.16424e-10
9.14542e-10
1.10396e-08
-6.37362e-09
7.39951e-09
-1.09502e-08
1.44943e-09
-4.74596e-09
1.1475e-08
-1.1957e-08
-7.57064e-09
9.20214e-09
9.40811e-09
1.29105e-08
6.35607e-10
-1.38474e-08
1.47065e-09
7.8841e-10
-1.11181e-08
-6.72429e-09
1.02718e-08
-1.42026e-09
2.51497e-09
-8.98005e-09
4.79156e-09
-5.2685e-09
1.1575e-08
-3.4834e-09
-1.17853e-08
3.69371e-09
-4.47693e-09
1.13059e-08
1.8567e-09
1.12319e-09
-5.03854e-09
-1.77905e-08
1.04888e-08
1.23402e-08
7.45137e-10
-1.10126e-08
-1.0007e-08
1.59811e-08
1.25881e-08
2.86348e-09
-9.79193e-09
-1.33248e-08
-3.22158e-10
-1.27571e-08
1.62144e-10
-7.66625e-10
1.16738e-08
1.25398e-08
-8.23676e-09
1.66457e-08
-1.60221e-08
3.63575e-09
-4.77275e-10
1.77145e-09
1.28411e-08
-3.92213e-09
-1.26943e-08
-5.06491e-09
1.7476e-09
4.61039e-09
1.22719e-08
-7.24705e-09
9.44758e-10
-1.63201e-09
7.00209e-10
-9.80911e-10
5.88239e-09
2.63673e-08
-1.15123e-10
-9.80437e-09
9.91949e-09
2.85629e-08
-2.23177e-08
2.20954e-08
1.97404e-08
-1.27178e-08
-2.68785e-09
1.51e-08
1.832e-10
-1.21437e-08
-4.30158e-10
-6.01671e-09
-1.86345e-09
2.21091e-09
1.50924e-09
-3.99688e-10
-1.11001e-08
1.15109e-08
-1.11191e-11
3.08891e-09
-5.17972e-09
-1.10824e-08
1.06299e-08
-9.10523e-10
-1.08063e-08
-2.04835e-10
-1.12736e-08
-2.55413e-09
-1.20456e-08
2.178e-09
7.90341e-09
5.14171e-09
-3.74537e-10
-1.18085e-08
1.17833e-08
5.74623e-10
-8.82354e-09
5.15894e-09
-1.49775e-09
2.27538e-09
-2.15979e-09
-1.30538e-08
-1.2629e-08
1.21394e-08
-1.0204e-08
-1.57957e-08
1.0017e-08
9.27385e-09
8.36123e-10
2.67821e-09
-1.24826e-08
1.14553e-08
1.66795e-09
3.91668e-09
2.91942e-10
-4.96824e-10
-2.32358e-10
-4.14409e-09
2.54516e-09
-7.51523e-10
1.83214e-10
-2.156e-10
3.23861e-11
-2.68139e-09
1.3048e-08
2.22153e-09
2.54455e-09
2.53605e-12
-1.41032e-09
-4.91701e-10
-2.33211e-09
-3.06124e-10
1.29993e-08
1.00696e-08
-3.28782e-10
6.82124e-09
-1.23722e-09
-5.25524e-09
-9.80586e-09
-5.12112e-09
1.39589e-10
4.36251e-11
4.87737e-09
1.32411e-09
-1.72141e-08
-3.49298e-10
-7.62954e-10
-2.7739e-09
1.02435e-09
3.04285e-09
6.19421e-08
-8.58728e-11
-6.18563e-08
6.23657e-08
1.88769e-10
-6.25545e-08
-1.4129e-08
-2.25631e-10
1.4485e-08
-1.30402e-10
3.07872e-09
-1.81345e-09
2.52794e-09
1.80048e-09
-4.49781e-09
-3.204e-10
-5.20709e-10
4.22561e-10
-9.83854e-11
4.30729e-10
-2.90921e-10
1.96709e-08
1.0637e-09
-1.58572e-08
-1.4785e-10
-1.93557e-09
1.25043e-08
2.2724e-09
1.79539e-09
5.34334e-09
-2.11061e-09
-7.72336e-08
-2.41777e-08
-4.93605e-09
1.58386e-08
2.43493e-09
-1.05508e-10
-2.97812e-09
-1.08783e-09
3.36889e-10
-2.99227e-10
-1.00624e-08
-3.5796e-10
1.04204e-08
-1.08526e-08
-6.59561e-09
1.07239e-08
-9.46912e-09
8.75661e-09
2.01613e-10
1.50748e-09
9.58607e-09
-9.50863e-09
-7.74396e-11
5.97802e-10
8.58188e-11
1.0689e-08
6.17104e-10
-7.8585e-10
-1.0037e-10
-1.42448e-08
-4.7638e-10
-1.3804e-08
1.26669e-08
-1.1869e-08
-6.60349e-08
6.499e-08
1.04493e-09
2.47621e-10
-2.23917e-10
1.20043e-08
-2.24512e-10
8.91227e-12
-2.0533e-09
2.76359e-09
-3.42701e-09
-1.34741e-08
-1.62533e-09
2.57312e-09
-4.7187e-09
-1.40869e-08
1.59148e-09
5.56341e-09
9.66518e-09
-9.02792e-09
-2.48841e-10
2.43284e-11
-9.31971e-09
-1.3338e-08
1.50923e-10
-6.26957e-08
2.35419e-10
6.24603e-08
6.95152e-10
6.34309e-08
-2.23993e-10
-1.59992e-09
-1.44915e-08
1.07504e-10
-6.34023e-08
6.32948e-08
1.8548e-10
-6.29432e-08
6.27577e-08
3.49908e-10
6.1802e-08
1.50536e-10
-6.19525e-08
6.16331e-08
1.68942e-10
-8.78913e-08
8.85007e-08
-1.77597e-12
9.33954e-08
-9.31021e-08
-2.67543e-10
-8.66302e-08
-4.34317e-10
9.33544e-08
-1.83205e-10
-8.49165e-08
-7.68303e-10
9.34851e-08
1.73188e-10
-5.22538e-10
1.96108e-09
9.23613e-08
-6.93146e-08
6.21434e-08
-6.23264e-08
-6.29533e-08
6.14905e-08
1.42526e-10
-3.11196e-09
2.94288e-09
-1.41398e-08
4.93166e-11
9.02724e-11
1.36148e-09
8.73994e-09
-1.13841e-08
3.83005e-08
-3.45311e-08
-1.67545e-08
1.37979e-08
-4.08761e-11
-2.12035e-10
1.52987e-10
6.45099e-10
-1.26591e-10
3.18867e-10
4.46986e-09
1.0383e-09
-3.60624e-09
-1.7631e-10
2.16822e-10
-1.29357e-10
-2.56748e-09
1.31954e-08
2.42003e-09
-1.44337e-08
-2.6273e-09
-3.33304e-09
5.55781e-09
1.04584e-09
-2.64735e-09
1.42995e-08
-1.16329e-09
-1.95773e-09
2.18243e-09
-8.12175e-09
-1.90627e-08
-1.34734e-08
7.98685e-09
5.81904e-09
-2.22291e-10
-5.60313e-10
2.99351e-09
1.44791e-08
2.27271e-09
-1.83879e-09
-3.86873e-10
4.36975e-10
-2.40283e-10
1.59561e-08
-5.7943e-10
-1.57346e-08
-2.21962e-10
-3.84151e-10
3.24971e-10
-2.50956e-10
3.45371e-09
-1.63769e-08
4.60055e-10
-1.52634e-09
-2.1154e-09
-2.31593e-09
1.56496e-08
-9.05964e-08
-1.33877e-10
9.16817e-08
-1.90914e-10
-8.91667e-08
-4.77579e-10
9.3105e-08
-2.75388e-10
-9.29155e-08
-5.49298e-10
-1.61012e-09
1.67755e-08
9.19831e-08
-1.98865e-10
2.91454e-11
-2.21087e-10
9.8449e-09
2.51672e-09
-7.46946e-09
-1.21854e-08
-5.67801e-09
8.4207e-09
1.48033e-09
-6.8123e-09
-6.0072e-09
9.03192e-09
-7.48383e-11
1.01429e-08
1.94977e-08
-1.7977e-08
3.08243e-09
-1.27043e-08
3.09241e-09
-6.99742e-08
3.93925e-09
-2.0585e-08
-1.30778e-08
-4.84909e-10
-5.94465e-09
-1.52854e-08
9.08632e-09
-1.51473e-08
4.28092e-10
3.62092e-10
-1.88775e-09
-1.662e-08
1.70504e-08
7.29538e-09
-7.76403e-09
-4.7195e-09
1.52859e-08
-1.67865e-09
6.92246e-10
-9.52598e-10
1.39934e-10
1.19534e-08
3.3214e-09
7.091e-08
-1.82438e-08
7.39695e-10
-1.50055e-08
-2.3317e-10
-2.71964e-10
-9.54254e-11
6.09528e-08
-6.12282e-08
-6.33732e-08
-6.3142e-08
-6.40621e-11
-2.62348e-10
-9.25891e-08
-6.04542e-08
6.24153e-08
6.51001e-08
-6.0281e-08
6.45776e-08
-6.04642e-08
6.38093e-08
-6.07317e-08
6.3375e-08
9.23119e-08
2.79126e-10
-6.36308e-09
7.51158e-08
-6.54313e-08
3.87143e-11
-3.87143e-11
2.96956e-10
-3.23963e-10
1.5483e-08
-2.50265e-11
2.50265e-11
3.32729e-10
1.5285e-09
1.39003e-08
1.33984e-08
-2.72865e-09
3.72355e-09
6.57494e-09
1.83277e-09
3.68087e-10
-2.50872e-10
-2.97785e-09
1.45836e-08
1.48461e-08
-4.28592e-09
1.18189e-08
1.82288e-10
1.46155e-10
2.74941e-09
-8.2893e-10
-1.5415e-09
-5.83904e-09
-2.05917e-10
-3.96258e-10
1.53075e-08
2.53359e-10
6.44926e-11
1.45257e-08
-2.61926e-08
1.77654e-08
2.65196e-09
1.26838e-09
2.49755e-09
-3.72366e-09
1.9308e-08
-1.80819e-08
-7.87274e-11
1.75697e-10
-1.44043e-09
-7.921e-08
-7.0755e-08
1.31294e-09
-5.12241e-10
6.40933e-10
2.29897e-08
1.86034e-08
-6.35682e-09
7.59492e-11
-4.28535e-09
-2.51624e-09
2.99476e-08
1.54981e-10
1.48184e-08
7.35807e-08
4.98116e-11
5.15287e-10
-1.55119e-10
-2.1415e-10
-3.64808e-09
2.42679e-08
-1.48682e-08
9.76397e-10
-1.41768e-08
-5.15582e-11
2.03866e-08
-2.86945e-08
9.38556e-10
1.96047e-09
-2.88368e-10
)
;

boundaryField
{
    back
    {
        type            empty;
        value           nonuniform 0();
    }
    ingreso
    {
        type            calculated;
        value           nonuniform List<scalar> 
14
(
-1.54286e-08
-1.54288e-08
-1.54288e-08
-1.54288e-08
-1.54286e-08
-1.54283e-08
-1.54288e-08
-1.54288e-08
-1.54286e-08
-1.54286e-08
-1.54288e-08
-1.5428e-08
-1.5428e-08
-1.54286e-08
)
;
    }
    salida
    {
        type            calculated;
        value           nonuniform List<scalar> 2(1.01411e-07 1.14589e-07);
    }
    front
    {
        type            empty;
        value           nonuniform 0();
    }
    defaultFaces
    {
        type            calculated;
        value           uniform 0;
    }
}


// ************************************************************************* //
