/*--------------------------------*- C++ -*----------------------------------*\
  =========                 |
  \\      /  F ield         | OpenFOAM: The Open Source CFD Toolbox
   \\    /   O peration     | Website:  https://openfoam.org
    \\  /    A nd           | Version:  7
     \\/     M anipulation  |
\*---------------------------------------------------------------------------*/
FoamFile
{
    version     2.0;
    format      ascii;
    class       volVectorField;
    location    "91.5";
    object      U;
}
// * * * * * * * * * * * * * * * * * * * * * * * * * * * * * * * * * * * * * //

dimensions      [0 1 -1 0 0 0 0];

internalField   nonuniform List<vector> 
591
(
(0.000835337 -1.05777e-05 1.21659e-18)
(0.000829785 -1.02315e-05 -6.62367e-19)
(0.000855358 1.20013e-05 5.70528e-20)
(0.000865885 -2.16162e-05 -1.49027e-19)
(0.000852723 -7.13891e-06 2.25457e-19)
(0.000803418 -3.91461e-05 -1.39571e-19)
(0.000565395 -0.00024133 8.0592e-19)
(0.000803882 4.4576e-06 2.10288e-18)
(0.00572676 0.00250902 9.87857e-19)
(0.000811388 -4.89107e-06 2.44769e-18)
(4.662e-05 0.000162909 1.21787e-18)
(0.000937684 0.0013905 9.40667e-21)
(0.000800959 4.17077e-06 1.32272e-18)
(0.00160177 0.00240258 -7.87323e-19)
(0.000803341 1.56795e-06 -4.45967e-19)
(4.87987e-05 -0.000166091 2.08584e-22)
(0.000139992 0.000672172 7.04763e-19)
(0.00081773 7.74567e-05 -4.96879e-19)
(0.00190339 0.000392538 4.73762e-19)
(0.00135999 0.000254904 -2.47043e-19)
(0.000832169 -8.49575e-06 3.73086e-19)
(0.00340032 0.00655964 -8.14927e-20)
(2.41166e-05 6.53945e-05 2.70858e-19)
(0.000836173 -2.36872e-05 -4.51443e-19)
(7.41034e-06 -1.23391e-05 3.58797e-19)
(0.000787566 4.03582e-05 0)
(9.43098e-05 0.000468856 1.59922e-19)
(0.000566255 1.02655e-06 -1.78775e-19)
(0.000762114 4.67559e-05 1.14908e-18)
(0.00080749 6.69534e-05 5.84898e-19)
(5.11399e-05 -5.14528e-06 -4.79354e-24)
(2.43041e-05 -4.07828e-05 3.52053e-19)
(3.0203e-05 -2.6606e-06 -4.64062e-20)
(3.94886e-05 -1.22153e-05 0)
(4.8235e-05 -1.29031e-05 1.13106e-18)
(0.00117193 0.000138185 1.79846e-19)
(2.54648e-05 -4.45142e-06 4.4699e-20)
(0.000824695 7.01605e-07 3.15973e-23)
(2.40199e-05 3.96092e-05 2.65939e-19)
(-3.02136e-06 -7.05845e-05 -8.5345e-19)
(0.000655998 -0.000196061 9.58813e-19)
(1.98918e-05 -5.34446e-06 4.54667e-20)
(0.000810978 1.37924e-05 -1.58033e-18)
(0.000832241 4.893e-05 -6.90909e-19)
(1.30045e-05 -6.07902e-06 0)
(4.96915e-05 4.55559e-06 8.51578e-20)
(0.00134822 0.00450306 8.92771e-19)
(6.98545e-05 1.16835e-05 8.63331e-20)
(0.000802136 1.63611e-05 0)
(0.000391799 -0.000227167 6.77037e-19)
(0.000388166 0.000267994 5.11756e-21)
(0.000401668 3.63061e-05 -1.00344e-18)
(0.00634763 0.0109406 -7.68434e-19)
(0.00622448 0.0107957 1.52854e-20)
(0.00561431 0.0103784 1.45558e-18)
(0.000806389 4.33183e-05 0)
(6.24128e-05 2.65562e-05 0)
(0.0003193 -1.71355e-06 2.16906e-23)
(5.74286e-05 7.50327e-06 -3.4634e-19)
(0.000812751 -7.2423e-06 0)
(0.000656675 2.86179e-05 3.17447e-19)
(0.000843192 2.30964e-05 2.20721e-18)
(0.000809099 3.72815e-05 -5.38225e-19)
(0.000800064 1.21425e-05 -3.15645e-19)
(0.00171322 0.000488199 5.42548e-19)
(0.000808081 2.8469e-05 -1.14877e-18)
(0.000836349 3.23951e-05 -5.23981e-19)
(7.25885e-05 -6.2196e-06 -1.73352e-19)
(0.000689518 0.00225971 0)
(0.000843984 4.71235e-05 0)
(0.000789137 2.36472e-05 -1.39257e-18)
(3.45297e-05 1.38411e-05 0)
(0.000292229 0.000264884 3.26747e-19)
(3.40293e-05 -1.57556e-05 0)
(3.59339e-05 -5.58085e-06 1.59418e-19)
(7.97438e-06 -3.68189e-05 -3.3655e-20)
(0.000800453 7.86944e-05 2.46863e-19)
(4.00882e-05 8.76896e-06 0)
(0.000809648 5.54253e-05 4.47378e-19)
(0.000780066 0.000294708 2.10657e-19)
(0.000961753 6.68307e-05 -3.97727e-20)
(3.9261e-05 2.0137e-05 -4.51708e-20)
(3.99929e-06 -1.39925e-05 0)
(0.000440933 0.000212012 1.70131e-19)
(2.73368e-06 1.76375e-05 0)
(0.000804022 4.51785e-05 -6.07136e-19)
(0.000638236 -0.000117007 0)
(5.83084e-05 -4.09528e-06 -1.7442e-19)
(1.43635e-06 -1.93988e-05 0)
(0.000834749 0.000241274 -3.41141e-19)
(2.40484e-06 -7.96247e-06 0)
(0.000430374 0.000320471 -1.33937e-23)
(0.000541533 0.000108608 0)
(0.000814495 4.36534e-05 -3.04362e-24)
(2.29166e-06 1.06692e-05 -4.21568e-20)
(0.000468793 -2.49479e-05 1.7629e-18)
(0.00101973 7.29218e-05 4.15865e-20)
(0.000793803 4.66402e-05 6.41378e-22)
(0.000745894 0.000659158 2.69414e-19)
(6.90148e-06 4.08946e-05 0)
(-5.00254e-06 -2.38428e-05 -3.12113e-19)
(-3.59821e-05 -3.29869e-05 -1.10175e-18)
(4.88e-06 6.71881e-05 -5.96166e-19)
(0.000597935 -2.73062e-05 0)
(9.00271e-06 9.08044e-05 0)
(0.000819179 3.26893e-05 2.18164e-18)
(0.000798051 3.38723e-05 1.53375e-18)
(0.000445202 -0.000106062 0)
(3.95549e-05 0.000209786 -8.9507e-19)
(8.98525e-07 0.000154488 4.96699e-19)
(5.70868e-05 0.000394076 6.25073e-19)
(0.000310215 6.92636e-05 -9.36871e-19)
(0.000802005 2.00299e-05 1.3737e-19)
(0.000257971 -6.49035e-05 5.3104e-19)
(4.22451e-06 2.61205e-05 0)
(1.91006e-05 0.000272359 -1.09378e-18)
(0.000324966 0.000319554 -1.61655e-19)
(-1.4878e-06 -1.8667e-05 1.46513e-19)
(0.000669869 0.000808036 0)
(0.000373271 0.000382465 5.74238e-20)
(0.000823498 2.65837e-05 1.0703e-18)
(0.000799711 1.71429e-06 -2.72357e-18)
(6.02169e-06 3.8037e-07 0)
(0.00066109 -3.97841e-05 -1.12272e-19)
(0.000323282 -0.000142686 1.24278e-18)
(0.00262531 0.000810258 -3.36461e-19)
(7.65296e-06 0.000120182 -6.13053e-19)
(7.99051e-06 0.000148259 1.61924e-18)
(0.000667651 2.50067e-05 -3.8969e-20)
(5.60085e-05 -1.58903e-05 -7.49904e-19)
(0.000810885 3.71447e-05 -3.89669e-19)
(0.00071779 2.72759e-05 -4.10385e-20)
(3.23503e-05 0.000318969 -5.96957e-19)
(0.000499837 5.47608e-05 -4.93767e-19)
(4.27389e-05 -4.1848e-06 1.56098e-19)
(0.000840629 3.88702e-05 -1.08899e-18)
(0.00153528 0.000234725 -1.13654e-18)
(5.03881e-06 5.40461e-05 4.96263e-19)
(0.00081265 3.57245e-05 -5.03356e-19)
(0.000922619 0.000551918 -7.84846e-20)
(0.000149262 0.000780871 0)
(0.000597202 6.28729e-05 0)
(0.000277775 4.30573e-05 -1.60903e-18)
(5.96167e-05 5.33301e-05 -1.37363e-18)
(2.76852e-05 1.80477e-05 0)
(0.00424754 0.00740056 -1.01949e-20)
(0.00422568 0.00737227 3.16478e-20)
(0.00442786 0.00757502 -4.97045e-21)
(0.00420583 0.00773363 0)
(0.0041983 0.00759943 5.77131e-19)
(0.00424453 0.00740173 -9.19968e-20)
(0.00420956 0.00804108 4.84379e-19)
(0.00429022 0.00742295 0)
(0.0042079 0.00853397 6.1666e-19)
(0.00432678 0.00745157 2.23888e-19)
(0.00083305 1.91384e-05 -1.37251e-18)
(0.000781052 5.98264e-05 0)
(0.000211024 4.10603e-05 1.2766e-19)
(4.56905e-05 1.29439e-05 8.71546e-20)
(7.33979e-05 3.91104e-05 6.79791e-19)
(0.000100145 3.40288e-05 -3.41554e-19)
(9.24649e-05 -8.34351e-07 0)
(4.28819e-05 3.1517e-06 8.18086e-20)
(0.000207573 0.000122807 0)
(0.000161051 3.05242e-05 -5.24146e-20)
(0.000347294 0.000215946 -5.091e-21)
(5.19941e-05 3.83553e-05 -4.37506e-19)
(8.48703e-05 2.10407e-05 -8.52183e-20)
(8.61774e-05 5.53096e-05 1.31151e-21)
(0.000260686 0.000360762 -6.65977e-19)
(0.000109714 0.000992194 0)
(3.908e-05 4.80244e-05 3.42946e-19)
(0.000199218 0.00174285 0)
(0.000208698 0.000247094 7.04447e-19)
(3.19674e-05 -3.09586e-06 1.11456e-19)
(0.000492208 0.00016019 -1.72247e-19)
(0.00077326 2.61727e-05 -1.92348e-18)
(3.75175e-05 -1.68165e-06 4.79948e-24)
(0.000141515 1.5041e-05 2.24517e-19)
(0.000246161 8.17447e-05 -8.99039e-20)
(0.000882606 0.000696689 3.34842e-19)
(0.000727874 0.00163452 -9.23243e-21)
(0.000398355 0.00141947 -9.38411e-21)
(0.00102955 0.000546869 0)
(9.23966e-05 -2.01179e-05 1.11833e-18)
(0.00010833 6.89796e-06 -4.4286e-20)
(0.000470326 -0.000275111 -1.13594e-18)
(0.000823235 4.30033e-05 0)
(0.000176446 -1.33297e-05 3.63191e-19)
(0.000304511 0.00129862 0)
(0.00108836 0.00077459 -7.29978e-20)
(0.000827205 2.89776e-05 -1.86487e-19)
(6.75772e-05 -2.35252e-05 -2.99875e-19)
(0.000839682 0.000315357 -2.07977e-20)
(4.66281e-05 -2.11987e-05 -5.99281e-19)
(0.000227525 0.000167303 8.63614e-20)
(0.000231654 0.000304806 -3.44906e-19)
(0.000896023 0.000252207 0)
(0.00082463 5.65695e-05 0)
(0.000266521 0.000124698 1.76792e-19)
(0.000232601 -1.40611e-05 6.47722e-24)
(0.000184939 0.000199059 0)
(0.000305294 0.000646825 -5.5554e-21)
(0.000359484 -2.58729e-05 0)
(0.000381546 0.000598269 0)
(0.000104727 7.47119e-05 -1.34625e-21)
(0.000810693 3.12634e-05 -9.57029e-19)
(0.000805649 1.79038e-05 7.97673e-19)
(0.000124251 4.87322e-05 -1.49807e-19)
(0.000970449 0.000146258 8.50118e-20)
(0.00084073 3.9221e-05 3.33503e-19)
(0.00082168 3.3621e-05 -2.93989e-19)
(0.00103125 0.000420066 0)
(0.000446748 0.000110657 6.24224e-19)
(0.000910787 0.000323156 2.09067e-20)
(0.000589941 0.000151361 0)
(0.000274289 0.000444731 4.09523e-19)
(0.000262891 0.000209816 -8.4392e-20)
(0.00110252 0.000383492 -7.81854e-19)
(0.000637594 0.000102567 -1.79228e-19)
(0.000820058 7.57135e-05 -7.45685e-21)
(0.00084514 2.45572e-05 9.39951e-20)
(5.72267e-05 -8.59092e-05 -1.98064e-18)
(0.000745138 0.000379821 2.19166e-19)
(0.000682824 6.82131e-05 2.30565e-20)
(0.000715068 0.000279136 1.61849e-23)
(0.000738573 0.000461314 -4.09557e-19)
(0.000852274 1.85572e-05 9.06755e-20)
(6.8561e-05 7.30218e-05 0)
(0.00066255 0.00042403 -4.65773e-20)
(0.000181981 8.52672e-05 0)
(0.000374326 0.000501685 -2.64762e-19)
(0.000311888 0.00015917 0)
(0.00068361 0.000205731 3.55104e-19)
(0.000658274 0.000259478 -4.37105e-20)
(7.95801e-05 9.82383e-05 6.18951e-19)
(0.000884021 9.67279e-05 -1.63822e-18)
(5.28458e-05 1.84156e-05 2.57103e-19)
(0.000896643 7.35811e-05 -1.68597e-18)
(0.000848066 9.06431e-05 1.63002e-19)
(0.000813944 3.65828e-05 1.91208e-18)
(0.000821727 3.35447e-05 -1.328e-19)
(0.000744791 7.07347e-05 0)
(0.000805409 2.03238e-05 8.95307e-19)
(0.000971283 0.000236236 -4.26946e-19)
(0.000786351 9.97156e-05 -4.83565e-19)
(0.000782694 0.000236776 -8.80911e-20)
(0.000198262 -0.000190785 -2.07538e-18)
(0.000760942 8.09283e-05 8.87222e-19)
(0.000643435 0.000592387 0)
(6.38091e-05 -0.000121997 0)
(0.00122895 0.000475077 4.97123e-19)
(0.000563756 -5.75543e-05 -3.27053e-18)
(0.00135387 0.000416189 5.76273e-19)
(0.00125307 0.000718983 -6.3879e-20)
(0.00081655 3.3673e-05 -2.12683e-19)
(0.000842754 6.68229e-05 -1.4273e-18)
(0.000814776 2.77891e-05 1.58691e-18)
(0.0008157 2.18069e-05 9.77699e-20)
(0.000674497 0.000353465 -4.40259e-20)
(9.9265e-05 0.000114984 8.21183e-24)
(0.000763466 -3.09592e-05 2.64921e-19)
(0.000209359 -0.000262225 -7.31176e-19)
(0.000637169 0.000183147 0)
(0.000723028 5.06454e-05 9.90031e-20)
(0.000715536 9.56032e-06 -3.80671e-19)
(0.00039553 0.000164422 3.93236e-20)
(0.000812054 0.000509964 -1.65424e-19)
(0.000145399 6.63226e-05 3.87532e-25)
(0.000818776 0.000413246 0)
(0.000988094 0.000315851 4.15623e-20)
(0.000767681 -6.41616e-05 -6.15943e-19)
(0.000354284 9.56591e-05 4.97661e-19)
(0.000905012 0.000427866 0)
(4.52347e-05 2.76435e-05 1.33665e-19)
(0.000493025 0.000262574 2.1388e-19)
(0.000540962 -0.000168719 -7.09191e-19)
(9.99633e-05 -0.000174047 -1.05548e-18)
(0.000826719 3.9376e-05 -4.86549e-19)
(0.000763241 -6.76226e-05 -1.94445e-19)
(0.000549309 0.000729272 -1.17404e-18)
(0.000854482 4.66393e-05 -6.74384e-20)
(0.000576372 -1.25066e-05 1.28162e-18)
(0.000716542 9.95631e-05 2.27696e-20)
(0.000542212 0.00020465 -1.6563e-19)
(2.50513e-05 -1.92318e-05 -8.7554e-20)
(0.00015305 -5.78138e-05 2.40521e-18)
(1.33069e-05 5.6992e-07 -1.94785e-19)
(0.000840724 0.000118611 3.63614e-19)
(0.000678899 0.000135042 0)
(0.000173025 -0.000107147 -1.04783e-18)
(0.000112852 -2.61993e-05 3.12706e-19)
(9.49048e-05 -4.03528e-05 1.11199e-23)
(0.000808588 0.000105258 -3.19148e-19)
(0.000146233 -2.16718e-05 0)
(0.000594572 0.000238908 0)
(0.000111374 0.000323485 -3.6274e-19)
(0.000867869 0.000101498 2.10762e-18)
(1.08247e-05 7.78474e-07 0)
(0.000887222 5.26485e-05 0)
(3.65579e-05 -2.49376e-05 0)
(0.000815271 4.86978e-05 -4.46637e-21)
(0.000784184 -3.23436e-05 0)
(0.00426063 0.00740721 8.06912e-20)
(0.00436271 0.00748761 1.43626e-19)
(0.000843072 -1.52559e-05 0)
(0.0007966 -3.70089e-05 8.11823e-19)
(0.000151714 0.000116848 1.49161e-19)
(0.000861204 6.69044e-05 8.07799e-19)
(0.000127136 9.40923e-05 2.34317e-20)
(0.000789944 -2.23178e-05 6.24045e-19)
(3.12704e-05 8.14168e-06 0)
(2.32898e-05 -1.17037e-05 -4.48321e-20)
(0.000905658 4.77903e-05 -4.86369e-19)
(2.60967e-05 -2.88094e-05 -6.69566e-19)
(0.000767248 0.000125769 -4.23083e-20)
(0.000169068 0.000154601 -1.88039e-19)
(0.000814165 3.14128e-05 0)
(0.00468252 0.0081536 9.0037e-22)
(0.000191385 0.000791323 3.33365e-19)
(0.000101245 -6.6158e-05 -9.14203e-19)
(5.16852e-05 -3.47297e-05 -1.16837e-18)
(0.000600077 1.31276e-05 1.89767e-20)
(0.00058461 0.000404628 0)
(0.000424218 0.000445246 -2.56251e-19)
(6.87752e-05 -6.35521e-05 1.18331e-18)
(0.000560486 -9.79738e-07 7.68238e-20)
(3.76142e-05 1.13853e-06 4.0695e-19)
(0.000720401 -4.40209e-05 1.17117e-18)
(0.00081274 3.26494e-05 -6.0377e-19)
(5.15216e-05 -5.41695e-05 1.70883e-18)
(0.000841495 -3.88126e-05 -6.11565e-24)
(0.000576177 6.35266e-06 -3.75532e-20)
(0.000875556 7.19002e-05 0)
(0.000845378 4.89076e-05 0)
(0.00591632 0.00724325 2.59785e-19)
(1.36608e-05 -2.88474e-06 -1.19551e-19)
(0.000100401 -0.000113672 7.72754e-19)
(0.000735607 0.000114857 -6.96178e-19)
(1.63329e-05 2.15995e-07 2.0147e-19)
(0.000646598 -3.62562e-05 -7.23534e-19)
(0.000753261 3.56066e-05 1.55745e-18)
(0.000713369 0.000158017 -3.55311e-19)
(0.000807435 -1.18441e-05 3.60787e-19)
(6.52302e-05 -3.64287e-05 1.11559e-18)
(0.000801361 6.4929e-06 -3.22568e-19)
(0.000872965 3.74157e-05 0)
(0.00054895 0.00030206 4.20875e-20)
(0.000865777 5.01682e-05 -9.47222e-19)
(1.43962e-05 2.83911e-06 9.1117e-19)
(0.000860043 4.26277e-05 9.65697e-19)
(0.000862216 2.19947e-05 -9.64347e-19)
(0.000763089 -3.30644e-07 -5.68954e-19)
(0.00054296 -8.15655e-05 -5.25449e-19)
(0.00432971 0.00745378 2.47539e-19)
(0.00422242 0.00752853 -2.7882e-19)
(0.00422072 0.00758607 2.66766e-19)
(0.00425628 0.00741108 1.97944e-19)
(0.000845114 -3.59668e-05 1.44218e-19)
(0.00447684 0.00751442 0)
(0.00440414 0.00751825 -3.86899e-19)
(2.30185e-05 -1.3433e-07 -9.97894e-19)
(0.0041703 0.00746875 -6.3359e-20)
(0.00414576 0.00743201 -2.21485e-19)
(0.0060292 0.0106051 0)
(0.0065403 0.011187 3.71386e-20)
(0.00600913 0.0105748 0)
(0.006556 0.0112106 1.30883e-19)
(0.00599649 0.0105988 2.69626e-19)
(0.0065927 0.0112275 1.24612e-20)
(0.00593532 0.0106115 -7.76611e-19)
(0.00662297 0.0111465 8.15163e-21)
(0.00390346 0.00919773 -1.90783e-19)
(0.00418651 0.00748795 3.87445e-21)
(0.00423739 0.00755139 7.93531e-20)
(0.00415025 0.00743431 4.11984e-20)
(0.000891982 0.000195535 4.46575e-20)
(7.51747e-06 1.05253e-06 0)
(0.000721936 -0.000106385 0)
(0.000657994 5.61529e-05 0)
(0.00244466 0.00111685 4.23003e-21)
(0.000758156 -3.07733e-05 1.72514e-19)
(3.62839e-05 4.58681e-06 4.53899e-20)
(6.42752e-06 -2.28144e-05 1.65241e-18)
(0.000859651 7.14599e-06 0)
(2.50041e-05 1.09725e-05 -1.91661e-19)
(0.000139241 0.000217554 0)
(1.25406e-05 -8.53292e-07 0)
(9.85746e-06 -9.98015e-07 0)
(0.000834206 0.000146982 1.13726e-20)
(0.000811095 -1.82634e-05 1.79507e-19)
(3.80648e-05 0.00026044 -1.17924e-23)
(0.000156586 0.000268232 -1.84136e-18)
(0.000609998 0.000326602 -8.56723e-20)
(0.000901097 0.000112157 6.019e-19)
(0.00061345 -0.000165498 6.7426e-19)
(0.000358947 0.00111389 0)
(0.000480333 0.000575399 2.71449e-18)
(8.86412e-05 0.000139904 -1.80257e-18)
(1.62279e-05 -1.9257e-07 0)
(0.000822483 -6.30804e-05 3.64061e-20)
(1.43627e-05 3.238e-05 1.64393e-18)
(0.000895595 3.51807e-05 2.71045e-19)
(-3.04075e-05 6.16787e-05 3.81182e-18)
(0.000927233 4.13397e-05 -2.68915e-19)
(0.00133692 0.000153056 7.4706e-19)
(3.01543e-05 -9.77169e-06 8.25423e-20)
(3.18523e-05 2.54707e-06 -8.58842e-19)
(5.07921e-05 0.00013628 0)
(0.000917792 8.7389e-05 5.98247e-19)
(0.00049789 0.000367051 2.37072e-19)
(0.000624249 1.73989e-05 -3.88934e-20)
(0.0007858 2.73623e-06 2.57314e-19)
(0.00073124 -0.000148713 0)
(0.00632035 0.0108959 -1.68116e-19)
(0.00637873 0.0109732 4.05803e-19)
(0.00616003 0.0107302 -6.18346e-19)
(0.0065013 0.0111323 -8.09757e-20)
(3.223e-05 0.000113706 8.00278e-19)
(0.000928154 6.1295e-05 1.44372e-22)
(0.00641135 0.0110058 -3.86428e-19)
(0.00628139 0.0108457 5.4825e-19)
(0.00608008 0.0106719 -4.16741e-19)
(0.00652182 0.0111647 -6.81365e-20)
(7.90761e-05 0.000493884 -2.01759e-20)
(5.45603e-05 -0.000195121 -7.92522e-19)
(0.000645975 -2.01548e-05 -7.66181e-19)
(0.000729732 0.000219587 0)
(0.000800293 1.80742e-07 0)
(0.000188737 0.000386865 3.362e-19)
(0.000602148 0.000511085 -5.41705e-19)
(6.36962e-06 -1.11531e-06 1.78335e-19)
(0.000200042 0.000467035 -7.38183e-19)
(0.00102048 0.0009788 -1.12667e-19)
(0.000751682 0.000166148 0)
(0.000793917 0.000184931 1.30977e-19)
(0.00635079 0.00588303 1.13161e-18)
(0.000736888 0.00113087 8.26439e-20)
(3.60828e-05 3.51178e-05 -7.44443e-20)
(0.000807858 1.06604e-05 0)
(0.000871638 2.36988e-05 -3.56788e-20)
(3.03478e-05 2.31821e-06 -1.96664e-19)
(2.64209e-05 3.66962e-06 1.92936e-19)
(0.000834533 1.3796e-05 5.37029e-19)
(0.000982152 0.000113182 6.5819e-19)
(0.000541474 4.4317e-05 0)
(0.00022252 -0.000277361 -3.98077e-19)
(0.000919417 0.000143457 3.89458e-19)
(4.51149e-06 -4.99312e-05 2.02965e-19)
(0.00145367 0.000441937 -2.58064e-18)
(0.000567718 -1.20206e-05 0)
(0.00079848 0.000142427 3.75342e-19)
(9.57698e-05 0.000388754 0)
(0.00118857 0.00816128 4.6202e-19)
(0.000496062 0.000497927 -1.22419e-18)
(0.000540453 0.00101672 -1.83703e-19)
(0.000886811 1.4878e-05 -1.46007e-19)
(1.12544e-05 2.28789e-05 0)
(0.000958841 7.79727e-05 6.11427e-19)
(0.00410629 0.00739525 8.14215e-20)
(0.00417113 0.00747327 4.7308e-20)
(0.00450066 0.00751708 4.54001e-19)
(0.00444574 0.00754287 -3.2907e-19)
(0.00647522 0.0111093 8.10529e-20)
(0.00391486 0.00714609 -9.62108e-22)
(0.00550803 0.00779998 -5.64653e-19)
(0.00409791 0.00737167 5.21828e-21)
(0.0051891 0.00785965 5.1159e-19)
(0.00407971 0.00734008 -4.87179e-20)
(0.00495435 0.00771915 0)
(0.00408498 0.00736439 -8.56522e-20)
(0.00474313 0.00759001 4.92441e-19)
(0.00409822 0.00737598 8.75085e-20)
(0.00457581 0.00752966 0)
(0.00428419 0.00742145 1.39733e-19)
(0.0042389 0.00759763 5.80275e-19)
(0.00446825 0.00752837 -5.54305e-19)
(0.00438836 0.00750569 3.7129e-19)
(0.00422753 0.00752448 3.22823e-19)
(0.00643054 0.0110425 -4.97593e-21)
(0.00411773 0.00740134 3.11575e-20)
(0.00645868 0.0110724 0)
(2.13063e-05 4.778e-06 -1.89799e-19)
(0.00200087 0.00654609 2.28166e-19)
(0.000838191 -5.80542e-05 1.09718e-19)
(0.000853509 3.58072e-06 0)
(9.28862e-07 6.78035e-07 -3.98983e-19)
(-2.84009e-05 -9.44931e-05 6.90851e-19)
(2.35007e-05 5.3235e-05 2.08836e-18)
(0.000835655 0.000185038 -9.00393e-20)
(0.000801401 8.40266e-06 7.06152e-19)
(4.50683e-07 -2.22575e-07 3.09888e-19)
(1.46424e-05 -2.96638e-05 -1.84503e-18)
(0.000763626 2.67936e-05 1.63098e-19)
(0.000871557 0.000124821 -3.07881e-20)
(0.000800955 -7.47169e-06 1.48084e-19)
(0.000429175 0.000679482 0)
(1.53118e-05 -0.000137299 1.15102e-18)
(0.000872106 2.19984e-06 1.52474e-19)
(1.84547e-05 2.17535e-05 0)
(0.00011888 0.000555197 -6.31088e-19)
(0.000612728 0.000586623 1.31757e-18)
(0.00033067 0.000756762 0)
(0.00080204 -1.50368e-05 0)
(0.000801713 3.03356e-06 1.1764e-18)
(1.56198e-05 4.58132e-05 -3.51386e-18)
(1.46482e-05 5.99029e-06 3.73503e-19)
(0.000116497 0.000139149 0)
(3.71813e-05 -3.90868e-05 0)
(5.95722e-05 0.000107948 2.00937e-19)
(0.000941622 0.00019033 3.50314e-19)
(0.000800707 1.46794e-05 -1.39649e-18)
(2.12229e-05 3.04924e-05 0)
(0.000423018 4.30395e-06 -6.0438e-20)
(0.000800187 3.61955e-05 -1.56298e-19)
(0.000848383 4.44937e-05 1.06474e-18)
(0.000254805 0.000542102 6.32054e-19)
(0.000882806 0.000157455 0)
(1.45989e-05 -2.05523e-05 5.38435e-19)
(1.66356e-06 -3.1126e-06 -3.19862e-19)
(0.000951977 3.39263e-05 0)
(0.00104525 0.00226944 0)
(0.000912183 9.58573e-07 0)
(0.00100615 0.000208518 4.27031e-19)
(0.000818447 -3.68674e-05 -2.84187e-19)
(0.000939897 0.000111286 -6.84541e-19)
(0.000801122 3.54787e-06 0)
(4.0643e-05 6.46687e-05 -1.71513e-19)
(0.000174692 0.000323876 1.08083e-18)
(0.000800589 1.34401e-05 -2.34362e-23)
(0.0011028 0.000209662 -6.68575e-19)
(0.00108888 0.000128525 0)
(2.02208e-06 4.42415e-06 2.50949e-19)
(1.52597e-05 -1.3149e-05 -1.94252e-19)
(0.000557021 4.55199e-05 6.9479e-21)
(-3.03358e-06 -6.53336e-05 0)
(0.00107278 0.000256464 9.4967e-19)
(0.00502867 0.0097482 -2.82885e-19)
(0.00312144 0.00961686 1.27222e-18)
(2.27576e-05 -9.60423e-05 -1.91263e-19)
(4.16034e-05 -7.17995e-05 1.85884e-18)
(0.00119041 0.000255581 1.67294e-19)
(0.00133053 0.00107657 2.34024e-19)
(0.000810661 2.43285e-06 -7.35594e-19)
(0.000197811 0.000949784 -2.38179e-19)
(0.000818969 0.000945065 -2.18525e-19)
(0.000800293 -2.15825e-06 0)
(8.21319e-05 0.000613473 0)
(9.46319e-05 0.000278392 -3.6651e-23)
(0.000719289 -4.67894e-05 -1.67432e-23)
(0.000826144 6.92323e-05 1.52553e-19)
(0.00263143 0.00206543 -1.23108e-18)
(0.00176038 0.00923777 -1.17178e-19)
(0.000834635 6.71897e-05 4.92142e-19)
(0.00632153 0.0040523 -1.7609e-19)
(0.00672093 0.0115574 -1.36487e-20)
(0.00473411 0.00784386 4.93015e-21)
(0.000804827 1.36626e-05 -2.16563e-18)
(0.000841923 2.11955e-06 7.20798e-24)
(6.17511e-06 -5.91148e-06 -3.47907e-19)
(4.54609e-05 8.50199e-05 -3.49171e-19)
(6.29201e-05 0.000263141 8.74998e-19)
(9.36276e-06 1.43077e-05 4.90253e-19)
(8.97026e-05 0.000224883 3.69659e-19)
(0.000820564 1.6806e-05 0)
(0.00534814 0.00949237 1.95004e-20)
(0.00154422 0.000637906 -2.61166e-20)
(0.000819465 3.93028e-05 3.60058e-19)
(2.05903e-05 -7.51155e-05 0)
(0.00184805 0.0007495 5.45867e-19)
(7.82164e-06 6.27348e-06 -2.7007e-19)
(3.15146e-05 2.59572e-05 9.71519e-20)
(0.00133435 0.00139802 6.365e-19)
(0.000738593 4.96209e-05 1.83044e-19)
(2.60461e-06 -9.77184e-07 -1.70149e-19)
(0.00206343 0.00156262 -1.0556e-18)
(0.00012665 0.000173575 -8.18525e-19)
(0.0039205 0.00848776 -1.09062e-18)
(3.78017e-06 1.11945e-06 8.81154e-20)
(0.000105429 -6.0341e-05 -1.25781e-18)
(3.87454e-05 -5.47977e-05 4.05514e-20)
(0.00152932 0.00098761 0)
(0.00104236 0.000139875 -4.01495e-22)
(0.000453705 0.000847136 -4.0194e-20)
(0.000803254 2.769e-05 -2.34002e-19)
(8.6972e-05 0.000179861 7.35855e-19)
(2.26765e-05 -5.56609e-05 4.03872e-19)
(1.6793e-05 1.36214e-05 -9.46809e-20)
(2.92944e-05 8.70318e-05 -3.20193e-19)
(0.000214252 -0.000191908 -5.45381e-19)
(0.00325015 0.00346572 2.90897e-21)
)
;

boundaryField
{
    back
    {
        type            empty;
    }
    ingreso
    {
        type            fixedValue;
        value           uniform (0.0008 0 0);
    }
    salida
    {
        type            zeroGradient;
    }
    front
    {
        type            empty;
    }
    defaultFaces
    {
        type            noSlip;
    }
}


// ************************************************************************* //
