/*--------------------------------*- C++ -*----------------------------------*\
  =========                 |
  \\      /  F ield         | OpenFOAM: The Open Source CFD Toolbox
   \\    /   O peration     | Website:  https://openfoam.org
    \\  /    A nd           | Version:  8
     \\/     M anipulation  |
\*---------------------------------------------------------------------------*/
FoamFile
{
    version     2.0;
    format      ascii;
    class       volScalarField;
    location    "3.6";
    object      p;
}
// * * * * * * * * * * * * * * * * * * * * * * * * * * * * * * * * * * * * * //

dimensions      [0 2 -2 0 0 0 0];

internalField   nonuniform List<scalar> 
17372
(
5.02556e-06
1.00169e-05
3.00965e-06
7.04557e-06
1.00633e-05
1.00213e-05
2.06722e-06
9.71691e-06
1.6632e-06
9.65401e-06
4.73582e-06
1.00413e-05
9.88457e-06
1.02016e-05
1.8671e-06
6.65418e-06
1.00434e-05
1.00307e-05
1.02601e-05
9.60558e-06
1.80564e-06
7.50082e-07
5.23389e-06
9.62021e-06
1.00569e-05
1.74211e-06
5.60095e-06
3.05773e-06
1.06182e-05
5.45287e-06
1.80923e-06
1.00646e-05
5.30613e-06
1.67984e-06
9.4101e-06
6.76403e-06
1.61481e-06
1.00351e-05
1.91247e-06
8.96535e-06
5.74846e-06
1.06782e-06
3.00108e-06
9.76527e-06
7.82981e-06
5.16229e-06
1.00463e-05
5.94821e-06
1.55477e-06
6.52641e-06
1.00209e-05
1.9289e-06
3.31013e-06
2.93483e-06
1.00385e-05
1.00533e-05
1.48557e-06
4.20343e-07
1.95472e-06
9.74771e-06
6.58617e-06
9.79088e-06
5.3791e-06
7.21648e-06
3.12645e-06
9.73247e-06
1.9564e-06
3.18712e-07
1.86566e-07
1.00277e-05
9.91331e-06
4.62266e-06
2.31376e-06
6.70081e-06
9.0881e-06
7.82723e-06
2.47806e-06
7.82786e-06
8.22162e-06
8.44606e-06
1.00387e-05
2.16223e-06
2.10782e-06
1.00635e-05
1.00325e-05
7.74267e-06
6.59401e-06
7.15498e-06
1.42659e-06
9.86043e-06
7.49412e-07
1.11281e-06
9.82616e-06
1.00737e-05
9.77008e-06
5.89547e-06
1.02023e-05
1.00499e-05
1.0042e-05
9.68172e-06
9.99322e-06
5.42643e-06
1.00314e-05
9.73038e-06
2.10119e-06
1.30081e-06
6.11117e-06
9.44426e-06
1.00561e-05
5.57493e-06
4.04223e-07
9.9695e-06
5.72305e-06
6.38456e-06
1.59033e-06
7.7209e-07
5.87057e-06
1.23834e-06
8.24243e-07
6.01793e-06
1.73559e-06
6.16516e-06
1.88192e-06
1.40065e-06
1.0023e-05
2.02783e-06
3.51739e-06
9.80471e-06
1.00543e-05
6.31149e-06
2.17457e-06
3.66653e-06
5.52683e-06
6.45592e-06
3.36756e-06
9.80336e-06
4.92488e-06
3.21724e-06
8.70156e-06
1.00528e-05
9.75823e-06
3.06653e-06
2.84191e-06
2.32138e-06
9.81789e-06
2.69206e-06
2.54291e-06
1.02205e-05
9.81247e-06
6.97732e-06
9.24298e-07
6.92265e-06
4.32542e-07
2.03918e-06
9.95676e-06
2.2418e-06
8.05319e-06
1.00613e-05
9.767e-06
5.27905e-06
2.2479e-06
1.00534e-05
2.68064e-06
1.00685e-05
6.04293e-06
9.82672e-06
6.18719e-06
1.00256e-05
8.45215e-07
6.39205e-06
1.89524e-07
1.07285e-06
7.32916e-06
9.9572e-06
3.8157e-06
2.70952e-06
2.55597e-06
9.59067e-06
9.77769e-06
1.00501e-05
9.49885e-06
5.01127e-06
9.87521e-06
7.8743e-07
3.09417e-06
2.79105e-06
8.26344e-07
1.00629e-05
2.16475e-07
1.0068e-05
5.44967e-07
8.08555e-06
1.52486e-06
9.85566e-06
6.23808e-06
1.00674e-05
5.79803e-06
1.23187e-06
1.00051e-05
9.35598e-06
1.00679e-05
9.75493e-06
1.00772e-05
3.33549e-06
3.89179e-07
1.00631e-05
5.07779e-06
9.90558e-06
7.67374e-06
2.46784e-06
5.65988e-06
5.67465e-06
5.29973e-06
5.51672e-06
1.00544e-05
1.16797e-06
5.23143e-06
9.06079e-06
1.00164e-05
5.63672e-07
3.15722e-06
9.72285e-06
1.00662e-05
1.01163e-05
2.39496e-06
1.00741e-05
6.53053e-06
9.41323e-06
9.77293e-06
5.13243e-06
1.00377e-05
5.14768e-06
9.85492e-06
8.30685e-06
8.26361e-06
1.03296e-05
9.76488e-06
1.12482e-06
2.00873e-07
3.40964e-06
3.45963e-06
6.8347e-06
1.00628e-05
1.00192e-05
9.75919e-06
6.19014e-06
1.02026e-05
3.23793e-06
4.89005e-07
1.00607e-05
1.00559e-05
3.50701e-06
1.84283e-07
1.05555e-06
1.00607e-05
5.29289e-06
4.04128e-06
1.00465e-05
2.63322e-06
1.00686e-05
7.27849e-07
9.90519e-07
1.0073e-05
1.0071e-05
1.00541e-05
1.00498e-05
6.59756e-06
9.98944e-06
9.6136e-07
1.0071e-05
8.80708e-06
6.26378e-06
9.77622e-06
9.90123e-06
1.00816e-05
6.96079e-06
6.09138e-06
1.01463e-05
1.00919e-05
9.75248e-06
1.00858e-05
1.00674e-05
8.17847e-06
1.00722e-05
5.82194e-06
8.73342e-06
6.21875e-06
2.16031e-06
1.39945e-06
9.84818e-06
4.87812e-06
9.70763e-06
4.98527e-06
4.93574e-06
9.79496e-06
2.40228e-06
7.62805e-06
1.00866e-05
8.32006e-06
8.31191e-07
6.11742e-07
1.00729e-05
1.50741e-06
1.0069e-05
1.0055e-05
9.74214e-06
9.1289e-06
4.95203e-06
1.64863e-06
9.99257e-06
8.37661e-06
1.01811e-05
5.37301e-06
1.0073e-05
9.71931e-06
9.60304e-06
6.4107e-06
9.9393e-06
1.00709e-05
1.18043e-06
8.63614e-06
9.91307e-06
2.61718e-06
1.01455e-05
9.30407e-06
9.7568e-06
9.79175e-06
1.00736e-05
9.96151e-06
7.82627e-06
2.99069e-06
9.55e-06
1.00546e-05
2.12423e-06
4.2686e-06
1.73244e-06
1.00735e-05
2.45402e-06
2.64015e-06
9.98455e-06
2.86524e-06
9.94111e-06
9.52746e-06
5.2321e-06
8.12872e-07
2.84601e-06
1.00675e-05
7.72847e-07
1.10845e-06
8.57013e-06
1.00733e-05
9.63501e-06
1.00656e-05
1.14055e-06
2.49119e-06
1.00619e-05
9.59358e-06
6.6866e-06
1.00731e-05
1.88805e-06
9.98099e-06
1.00723e-05
2.7164e-06
2.34206e-06
2.0423e-06
1.00718e-05
1.00525e-05
9.746e-06
2.19171e-06
1.01756e-05
9.2239e-06
1.00478e-05
1.00541e-05
1.00899e-05
9.41228e-06
1.00709e-05
8.69526e-07
8.66522e-06
1.00767e-05
1.00549e-05
1.00674e-05
4.83603e-06
9.62984e-06
5.9441e-06
1.00624e-05
9.83791e-06
6.43913e-06
4.26196e-06
9.77686e-06
9.79466e-06
9.77826e-06
1.00629e-05
5.96903e-06
8.945e-06
1.0064e-05
4.77454e-07
9.853e-06
1.00433e-05
1.00552e-05
1.00436e-05
4.41863e-06
9.97751e-06
9.86533e-06
6.62844e-06
2.54652e-06
2.47618e-06
9.93332e-06
2.46263e-07
1.00382e-05
8.37829e-06
1.00638e-05
9.3628e-06
2.77215e-07
3.02114e-06
2.76652e-06
1.00541e-05
6.48384e-06
1.0066e-05
8.69805e-06
7.81125e-06
9.88307e-06
1.02875e-05
2.75455e-06
1.01151e-05
2.56619e-06
8.61778e-06
9.86116e-06
1.17296e-06
9.527e-06
9.56165e-06
9.79722e-06
8.61206e-06
3.91034e-06
6.80962e-06
1.57512e-06
8.90337e-06
9.77543e-06
4.15593e-06
1.03268e-05
1.00498e-05
9.76806e-06
1.00682e-05
9.49025e-06
9.99012e-06
1.00542e-05
9.73091e-06
1.00636e-05
2.1573e-07
3.92945e-06
9.79351e-06
1.00477e-05
1.00694e-05
2.13308e-06
2.25194e-06
1.25552e-06
1.00579e-05
1.00719e-05
9.72614e-06
9.59233e-06
9.64639e-06
9.78029e-06
6.704e-06
9.89958e-06
4.57077e-06
2.71263e-07
4.34918e-06
1.00987e-05
7.65971e-06
9.99931e-06
6.04912e-06
1.99456e-06
8.5075e-06
1.00433e-05
1.004e-05
9.72651e-06
9.9716e-06
6.67468e-07
1.00624e-05
2.12323e-06
1.00726e-05
6.53722e-06
8.32646e-06
9.65451e-06
1.59745e-06
9.88958e-06
9.84348e-06
1.35779e-06
1.00641e-05
1.00676e-05
8.33027e-07
6.91925e-06
7.69801e-08
1.0594e-06
2.91637e-06
6.11214e-07
1.00677e-05
5.79676e-06
1.00637e-05
1.00085e-05
9.80809e-06
6.11661e-06
9.7995e-07
1.00635e-05
1.00413e-05
1.0073e-05
1.05101e-06
1.00703e-05
1.01006e-05
9.81237e-07
9.95319e-06
2.46924e-06
6.20707e-06
4.60537e-06
9.75964e-06
6.94133e-06
8.30654e-07
9.8763e-06
6.47207e-06
8.12791e-06
6.29855e-06
9.96513e-06
9.89917e-06
2.87456e-06
1.00729e-05
9.97603e-06
1.00615e-05
4.71875e-06
6.81496e-06
1.00571e-05
9.76076e-06
6.44346e-06
2.78732e-07
1.00672e-05
8.12718e-06
6.51653e-06
3.42697e-06
6.17356e-06
1.00737e-05
5.44484e-06
9.95131e-06
1.05398e-06
6.58921e-06
1.02334e-05
9.65759e-06
9.71168e-06
1.00054e-05
9.91e-06
1.01342e-05
1.00674e-05
6.73553e-06
7.91089e-06
9.23106e-06
1.00656e-05
7.44234e-07
6.70054e-06
1.02192e-05
1.00623e-05
1.00014e-05
1.00734e-05
6.88329e-06
6.57028e-06
2.96689e-06
5.0908e-06
4.08393e-06
6.13636e-07
9.79693e-06
2.32675e-06
1.00519e-05
7.03253e-06
9.14443e-07
1.40275e-06
8.24462e-06
9.82277e-06
1.00714e-05
7.17933e-06
8.26732e-06
1.00732e-05
5.79058e-06
2.41716e-06
1.02084e-05
7.40127e-06
2.16337e-06
4.4824e-06
9.50542e-06
7.98879e-06
9.14322e-06
9.62775e-06
2.16771e-06
9.70296e-06
7.94241e-06
9.13936e-06
1.00428e-05
1.02493e-05
9.46578e-06
9.94046e-06
4.86621e-06
1.00399e-05
1.00722e-05
1.12828e-06
8.9675e-07
6.77931e-06
4.4454e-06
9.9471e-06
7.07966e-06
9.42316e-06
1.04447e-05
1.00418e-05
1.00536e-05
7.16195e-06
1.29291e-06
8.18044e-07
1.00132e-05
9.44226e-06
1.00718e-05
1.01121e-05
9.99292e-06
6.22893e-06
2.10139e-06
6.38735e-06
9.92063e-07
5.64908e-06
8.21457e-06
3.08401e-06
6.66352e-06
6.31415e-06
5.81469e-06
9.88032e-06
1.56844e-06
1.01144e-05
9.71554e-06
1.00405e-05
9.73173e-06
4.16219e-07
1.00824e-05
1.13803e-06
4.41845e-06
9.84767e-06
1.0626e-06
9.59502e-06
3.14159e-06
9.81144e-06
9.90135e-06
9.99483e-06
1.26446e-06
1.00592e-05
9.74621e-06
2.72847e-06
8.14283e-06
2.17677e-07
1.00022e-05
9.04928e-06
1.04065e-05
9.70058e-06
1.15624e-06
8.07152e-06
8.28601e-06
7.60973e-06
9.73219e-06
1.00861e-05
8.19802e-06
1.0037e-05
9.33804e-06
9.96257e-06
8.35843e-06
1.00753e-05
9.5886e-06
5.01383e-06
2.24385e-07
3.96381e-06
3.23168e-06
5.52701e-06
1.98838e-06
9.9171e-06
8.92163e-06
9.99314e-06
7.89782e-06
1.00353e-05
1.36752e-06
9.72902e-06
6.36733e-06
8.39869e-07
1.86325e-06
1.00385e-05
8.23364e-06
2.94845e-06
1.01466e-05
1.00638e-05
6.13001e-06
2.09424e-07
5.77335e-06
8.03462e-06
6.33735e-06
7.99965e-06
1.00562e-05
9.89877e-06
2.44983e-07
9.81373e-06
1.0014e-05
9.75876e-07
1.00411e-05
2.41656e-06
8.6628e-08
1.00325e-05
1.02062e-05
8.23948e-08
4.88718e-06
1.00522e-05
9.4038e-06
1.80552e-06
4.29007e-06
6.51774e-06
4.33906e-06
7.92771e-06
1.00561e-05
5.58877e-06
7.22581e-06
4.16995e-07
8.71537e-06
1.27541e-06
1.0029e-05
2.659e-06
6.1116e-06
1.01081e-05
9.38193e-06
5.27862e-06
1.55008e-06
1.00687e-05
1.00519e-05
9.21544e-06
9.26069e-06
9.79646e-06
6.94589e-06
6.66505e-06
2.96645e-06
1.0025e-05
9.91903e-06
8.96701e-07
6.62969e-06
1.00693e-05
5.16094e-06
7.97312e-06
9.76795e-06
9.96759e-06
1.00218e-05
8.21835e-06
1.00665e-05
1.00585e-05
1.01357e-05
1.00018e-05
3.26546e-06
3.29236e-06
1.00671e-05
7.51592e-06
9.86275e-06
9.60648e-06
1.0018e-05
7.2249e-06
7.91986e-06
1.00683e-05
9.91225e-06
6.37116e-06
6.80833e-06
9.89163e-06
8.01556e-06
9.89685e-06
9.90049e-07
4.19452e-06
5.95158e-07
2.29237e-06
7.95427e-06
9.67368e-06
1.00112e-05
6.13447e-06
9.75294e-06
2.57132e-06
9.86999e-06
5.50081e-06
9.95725e-06
9.27288e-07
1.91041e-06
1.00688e-05
6.28196e-06
7.60289e-06
6.2369e-06
9.87716e-06
8.28909e-06
1.00536e-05
2.1761e-06
9.99556e-06
1.1507e-06
6.30914e-06
3.66486e-06
9.83787e-06
2.58125e-06
9.97761e-06
9.8422e-06
7.06721e-07
9.88924e-06
2.55484e-06
9.89365e-06
9.99674e-06
9.50649e-06
1.15546e-06
9.98813e-06
9.77635e-06
9.85063e-06
9.13161e-06
9.68539e-06
9.00349e-06
4.82251e-06
2.43232e-06
4.13867e-06
9.75111e-06
9.78188e-06
1.00422e-05
7.27759e-07
7.01813e-06
4.14206e-06
7.54919e-06
9.80647e-06
9.76165e-06
1.00632e-05
4.59414e-06
1.95059e-06
9.81276e-06
9.94847e-06
9.55045e-07
7.37456e-06
3.00851e-06
7.27537e-07
9.48516e-06
9.92307e-06
1.01013e-05
9.31562e-06
8.32522e-06
4.58768e-06
9.73798e-06
9.85921e-06
9.52398e-06
1.00405e-05
9.85261e-06
1.36971e-06
2.31056e-06
7.16083e-06
6.42393e-06
1.00344e-05
1.42268e-06
2.40465e-06
2.94082e-06
8.81734e-06
4.6816e-06
1.00608e-05
9.7607e-06
9.67096e-06
1.01062e-05
1.00516e-05
3.73335e-06
2.47479e-07
1.00547e-05
9.4869e-06
8.42627e-06
5.30504e-07
9.79353e-06
8.54377e-06
1.56579e-06
1.00583e-05
3.01208e-06
9.83905e-06
9.99542e-06
9.73924e-06
7.30727e-06
9.92814e-06
6.59257e-06
3.44242e-06
1.65261e-06
8.35179e-06
7.71043e-06
7.57249e-07
1.02107e-05
1.69741e-06
9.23667e-06
5.85404e-06
1.00392e-05
6.88651e-06
7.63748e-06
1.00599e-05
1.0063e-05
2.22989e-06
6.47913e-06
1.00523e-05
1.00566e-05
8.7114e-06
9.77579e-06
9.82651e-06
1.00314e-05
1.51234e-06
1.00532e-05
1.06703e-06
9.45116e-06
5.72927e-06
9.75667e-06
1.00407e-05
5.01953e-06
9.7293e-06
7.89428e-06
1.24229e-06
7.01015e-06
6.44668e-06
4.7757e-08
9.63906e-06
7.49073e-06
7.45429e-06
2.708e-08
1.85523e-07
9.54511e-06
3.16676e-06
6.21795e-06
9.74452e-06
6.55665e-06
1.02755e-05
6.096e-06
1.00518e-05
8.08462e-06
1.00709e-05
7.74844e-06
1.00679e-05
5.71726e-06
7.15285e-06
8.39367e-06
9.82161e-06
6.90895e-06
7.5253e-06
9.53691e-06
9.28574e-06
9.92786e-06
1.00666e-05
9.76284e-06
6.5165e-06
1.96708e-06
1.00088e-05
4.44679e-06
1.00378e-05
4.22497e-06
7.32201e-06
7.30035e-06
9.61569e-06
3.36851e-06
1.00537e-05
7.34303e-06
7.52469e-06
1.00681e-05
9.69482e-06
1.00564e-05
9.54366e-06
7.44957e-06
1.00558e-05
1.0068e-05
5.35306e-06
1.00454e-05
7.71714e-06
2.43392e-06
8.39987e-08
1.13716e-07
3.74405e-07
9.58245e-06
3.44813e-08
5.56077e-08
6.0862e-06
1.01334e-05
3.52012e-06
7.60158e-06
1.00278e-05
1.00635e-05
1.00666e-05
6.47894e-06
1.00441e-05
9.24437e-06
1.00714e-05
1.00691e-05
7.19484e-06
9.95037e-06
9.99223e-06
3.92087e-06
1.0038e-05
1.00378e-05
9.95851e-06
1.66872e-06
6.44201e-08
6.85175e-07
8.97731e-06
3.33638e-06
2.65456e-06
4.46785e-06
2.94761e-06
9.80133e-06
2.02241e-07
1.00362e-05
7.36773e-06
8.10368e-06
6.7616e-06
1.01108e-05
3.36035e-06
1.0014e-05
1.01211e-05
7.04621e-06
2.50743e-06
1.00065e-05
1.00524e-05
1.00424e-05
9.99063e-06
8.44439e-06
8.19413e-06
9.91107e-06
1.02054e-06
9.78931e-06
5.99304e-06
3.99741e-06
9.92914e-06
7.60088e-06
4.19092e-06
7.56437e-06
6.8743e-06
9.90072e-06
6.06743e-06
7.74889e-06
9.81377e-06
9.79983e-06
4.68557e-06
1.57e-06
2.22258e-07
9.72733e-06
5.66676e-06
9.65495e-07
1.00676e-05
9.53623e-06
9.92911e-06
9.2721e-06
5.78755e-07
6.89714e-06
9.72721e-06
9.97538e-06
9.9391e-06
9.98198e-06
2.48201e-06
1.0062e-05
3.59147e-06
9.84071e-06
1.00385e-05
9.10849e-06
9.93082e-06
4.337e-06
1.00614e-05
9.80803e-06
8.36465e-07
2.35987e-06
2.86528e-06
2.26735e-06
1.0132e-05
1.00399e-05
9.66076e-06
2.02523e-06
9.77458e-06
1.00603e-05
9.96713e-06
1.00822e-05
9.40682e-07
6.74722e-06
7.78299e-06
6.61271e-06
1.00795e-05
7.75459e-06
1.80989e-06
1.7997e-06
4.48836e-06
9.68721e-06
2.40014e-06
1.01318e-05
9.82174e-06
2.87298e-06
1.01189e-05
8.18721e-06
1.00036e-05
9.40157e-06
8.88147e-06
1.0045e-05
1.01316e-05
1.00552e-05
9.88955e-06
4.462e-06
1.00657e-05
7.89718e-06
7.59978e-06
9.52923e-07
1.00335e-05
8.46333e-06
1.84467e-06
5.25397e-07
4.18192e-07
9.73772e-06
1.00454e-05
9.71225e-06
1.05506e-05
1.51405e-06
6.6953e-07
6.7402e-06
5.83093e-07
6.32857e-06
1.64405e-06
9.69742e-06
9.3632e-06
9.36714e-06
1.00159e-05
7.29944e-07
4.97972e-07
6.44492e-06
6.46284e-06
8.7557e-06
1.00488e-05
9.59733e-06
7.61793e-06
9.71264e-06
1.32348e-06
1.43141e-06
9.78501e-06
1.00635e-05
7.05641e-06
9.84969e-06
6.86774e-07
9.94802e-06
7.91167e-06
1.01076e-05
1.00453e-05
9.99656e-06
1.00381e-05
9.81626e-07
1.38989e-07
1.00423e-05
9.64867e-06
8.33522e-07
9.92893e-06
2.80439e-06
9.91328e-06
5.43967e-07
9.60983e-06
1.00424e-05
7.67737e-06
1.00611e-05
1.00707e-05
9.76202e-06
1.95735e-06
2.23652e-06
7.37072e-07
9.09855e-06
5.78323e-06
1.00026e-05
8.89739e-06
9.7311e-06
8.82222e-06
1.02945e-05
2.10822e-06
1.00556e-05
1.00189e-05
5.17385e-07
1.00553e-05
1.00708e-05
7.0288e-06
6.31257e-06
1.00682e-05
8.80167e-07
8.0458e-06
1.38791e-06
9.26195e-06
9.66576e-06
6.66245e-06
9.69619e-06
1.00724e-05
7.41709e-06
1.00085e-05
5.20952e-06
2.13823e-06
1.00557e-05
6.58802e-06
7.29478e-06
1.75645e-07
1.4769e-07
8.61139e-06
9.89056e-06
5.20633e-06
3.47154e-06
1.00076e-05
9.99417e-06
1.00726e-05
1.00137e-05
4.98796e-07
9.93335e-06
1.01081e-05
5.39973e-06
1.00303e-05
1.02483e-05
9.44705e-06
6.16184e-06
9.59206e-06
9.84721e-07
7.84063e-06
1.0058e-05
1.00734e-05
5.93522e-06
1.0131e-05
4.56139e-07
2.3843e-06
2.28571e-06
8.34236e-06
8.32698e-06
1.03564e-05
5.76285e-06
9.77066e-06
3.74053e-06
1.00652e-05
9.83312e-06
6.01077e-06
1.00024e-05
1.00722e-05
1.0074e-05
1.71732e-06
5.24976e-06
1.0066e-05
9.39622e-06
8.73628e-06
6.266e-06
9.25227e-06
8.84195e-06
6.54059e-07
1.00483e-05
1.00183e-05
1.25496e-06
7.67398e-07
2.10737e-06
5.74837e-07
5.85973e-06
1.99083e-06
1.00743e-05
9.99861e-06
6.77362e-06
1.00649e-05
9.70834e-06
1.02167e-05
8.15878e-06
9.85682e-06
8.84389e-07
9.95828e-06
5.38568e-07
1.00676e-05
1.00442e-05
1.54159e-06
6.48415e-07
9.47052e-06
7.5193e-06
1.01568e-05
1.00745e-05
1.00537e-05
1.56897e-07
9.73551e-08
1.79138e-06
8.22649e-06
1.01186e-05
1.02145e-05
9.42417e-06
1.00804e-05
1.0067e-05
5.92172e-06
8.12105e-07
9.98573e-06
7.60486e-06
1.00742e-05
6.75903e-07
3.46796e-06
9.87213e-06
8.53252e-06
9.46473e-06
9.94585e-06
8.48999e-06
9.78129e-06
9.91338e-06
2.21221e-06
9.74683e-06
9.85449e-06
9.78136e-06
1.40262e-06
1.00738e-05
9.68839e-06
9.95842e-06
1.00649e-05
8.18518e-06
6.12028e-07
8.06849e-06
8.19106e-06
1.01635e-05
8.43526e-06
9.95732e-06
9.94507e-06
1.00574e-05
1.0067e-05
4.89456e-07
1.01984e-06
1.00732e-05
5.17205e-07
6.81208e-07
9.84702e-06
9.60693e-06
9.24671e-06
8.2538e-06
1.011e-05
9.53747e-06
2.89645e-06
1.00551e-05
1.00265e-05
1.00377e-05
7.54431e-06
1.00757e-05
1.00733e-05
1.0064e-05
1.04795e-05
9.70547e-06
6.60102e-08
9.50648e-06
1.9919e-06
8.6484e-06
1.00525e-05
1.64669e-06
1.01499e-05
9.61693e-06
1.07863e-06
1.00775e-05
9.82159e-06
2.31544e-06
1.00663e-05
3.97804e-08
2.34206e-06
8.8104e-06
9.8154e-06
1.01475e-05
1.00766e-05
8.19268e-06
9.64975e-06
1.09043e-06
7.17881e-06
5.70905e-06
1.00366e-05
1.00661e-05
9.6876e-06
9.74296e-06
9.93903e-06
7.51751e-06
7.37866e-06
1.00678e-05
6.17795e-06
1.00624e-05
7.20245e-07
9.17163e-06
9.83092e-06
8.47894e-06
1.56307e-06
7.2564e-07
5.19653e-06
8.5787e-06
9.56283e-06
7.2691e-06
9.44226e-07
9.73365e-06
1.23692e-06
6.99512e-07
1.64941e-06
1.00371e-05
9.63106e-06
1.00701e-05
1.00572e-05
1.00471e-05
8.75759e-06
2.65816e-06
1.00408e-05
7.76622e-06
8.10551e-07
9.62099e-06
7.74221e-06
5.44402e-06
1.00527e-05
8.73332e-06
8.6584e-06
1.02164e-05
9.86902e-06
9.99086e-06
9.99336e-06
1.00674e-05
8.39605e-06
9.87262e-06
9.93373e-06
7.83278e-06
1.00235e-05
8.54336e-06
1.0076e-05
9.95459e-06
7.24534e-06
9.11987e-06
9.74976e-06
9.26653e-06
1.00688e-05
1.00743e-05
1.87415e-06
5.2338e-06
6.48512e-07
1.48742e-06
1.38382e-06
8.31484e-06
9.99343e-06
1.00665e-05
9.71497e-06
9.7535e-06
9.8565e-06
9.60537e-06
9.37271e-06
1.00433e-05
1.64358e-06
9.74271e-06
8.42419e-06
7.99113e-06
1.78737e-06
1.00539e-05
9.37285e-06
9.1498e-06
1.00644e-05
1.01424e-05
1.00382e-05
3.09035e-06
8.7281e-06
9.91262e-06
1.00627e-05
1.00658e-05
1.00652e-05
9.7542e-06
1.12774e-07
9.6006e-06
6.7737e-06
2.42068e-06
3.88981e-06
1.00678e-05
7.971e-06
1.00337e-05
1.00663e-05
9.6484e-06
9.86556e-06
1.88272e-06
9.42954e-06
8.48148e-06
3.45659e-07
8.17527e-06
1.00424e-05
1.48309e-06
9.70564e-06
9.57177e-06
2.19503e-07
5.56781e-06
2.03257e-06
1.53099e-06
9.31956e-06
9.75778e-06
1.83034e-06
2.09298e-06
7.99164e-06
9.75596e-06
9.49009e-06
1.00714e-05
9.49403e-06
1.00382e-05
6.80941e-06
2.18356e-06
5.78413e-07
1.93809e-06
9.83288e-06
9.2338e-06
9.4264e-06
9.96081e-06
8.83555e-06
1.00762e-05
5.05951e-06
9.56916e-06
9.73838e-06
1.01078e-05
9.90653e-06
1.00188e-05
1.00467e-05
7.97683e-07
1.01178e-05
9.49265e-06
8.82867e-06
1.86458e-06
1.00708e-05
9.77521e-06
9.87543e-06
9.87117e-06
5.2326e-07
9.18696e-06
5.30534e-06
1.01351e-05
5.48351e-06
3.77376e-06
6.65116e-07
8.78398e-06
1.67826e-06
3.95125e-06
2.49865e-06
1.00492e-05
1.00478e-05
4.4543e-07
9.88012e-06
9.82011e-06
1.00008e-05
1.00395e-05
8.70896e-07
1.97755e-06
9.87428e-06
9.0082e-06
7.23175e-07
1.002e-05
1.01782e-05
9.3379e-07
9.63594e-06
9.53935e-06
8.88466e-06
9.70908e-06
1.00683e-05
9.26397e-06
6.0478e-06
9.73868e-06
9.76329e-06
7.23533e-07
9.97866e-06
9.08851e-06
9.46353e-06
8.21101e-06
3.11782e-06
9.88559e-06
1.01482e-05
2.72282e-06
4.57821e-06
1.00585e-05
9.5854e-06
7.16032e-06
9.5582e-06
9.74206e-06
1.0065e-05
9.84948e-06
1.00684e-05
1.0034e-05
1.00386e-05
9.97773e-06
1.82553e-06
8.87073e-06
7.66727e-06
8.76002e-06
9.58063e-06
1.02842e-05
1.00385e-05
1.00702e-05
2.64975e-06
8.26178e-06
8.38219e-06
1.00661e-05
9.23325e-06
1.00763e-05
6.93756e-06
8.9981e-07
8.41617e-06
1.00393e-05
1.00179e-05
7.68788e-07
1.00603e-05
1.00201e-05
1.91814e-06
7.47972e-07
8.22917e-06
1.00419e-05
7.89413e-06
4.21996e-07
9.40894e-06
7.32843e-06
9.03123e-06
8.4987e-06
1.02751e-05
1.00351e-05
1.01994e-05
1.00667e-05
9.74063e-06
1.00397e-05
7.48963e-06
9.55591e-06
3.99201e-06
1.00652e-05
1.02148e-05
1.00216e-05
1.00559e-05
7.32682e-06
9.69536e-06
9.65217e-06
9.98532e-06
9.72838e-06
9.84611e-06
9.65115e-06
2.06542e-06
9.26543e-06
1.00624e-05
9.55794e-06
1.01311e-05
9.78902e-06
9.74168e-06
1.00592e-05
8.91898e-06
8.72045e-06
9.87967e-06
5.37613e-06
1.00761e-05
6.16523e-06
9.93518e-06
1.0063e-05
9.81578e-06
9.83819e-06
1.00356e-05
8.12915e-06
9.01232e-06
1.97761e-06
5.84665e-07
7.70748e-07
1.00036e-05
9.66506e-06
9.63618e-06
9.76786e-06
9.92292e-06
9.6893e-06
9.59661e-06
9.62014e-06
9.70201e-06
9.883e-06
3.8508e-06
8.36229e-06
6.31517e-07
9.92867e-06
1.02899e-05
9.49995e-06
6.39574e-07
9.71591e-06
9.70489e-06
9.86826e-06
9.40734e-06
9.70068e-06
9.52811e-06
8.90903e-06
9.68163e-06
1.00654e-05
9.89727e-06
9.7196e-06
6.48656e-06
8.9383e-06
9.70671e-06
1.00614e-05
9.77617e-06
1.00539e-05
1.00647e-05
1.00698e-05
8.34839e-06
9.35171e-06
1.00289e-05
9.20281e-06
1.00278e-05
1.00408e-05
8.39534e-06
8.1771e-07
9.62538e-06
9.76149e-06
9.61885e-06
2.80116e-06
9.76533e-06
1.00569e-05
6.7823e-06
9.53557e-06
8.45565e-06
9.92483e-06
9.69473e-06
8.54503e-06
9.82656e-06
9.77497e-06
9.73179e-06
1.00299e-05
9.49642e-06
9.04902e-06
7.11728e-06
9.76571e-06
8.8454e-06
8.50347e-07
9.71854e-06
1.00314e-05
7.12067e-06
9.70227e-06
7.41925e-07
1.00083e-05
1.00631e-05
9.97059e-06
9.78752e-06
2.11791e-06
9.8006e-06
1.00386e-05
9.87034e-06
8.82932e-06
1.00324e-05
9.6705e-06
8.38513e-06
6.65114e-06
9.82345e-06
1.00261e-05
9.84197e-06
9.60981e-06
5.78436e-06
2.5749e-06
1.00333e-05
1.92302e-06
1.00092e-05
9.7239e-06
9.33625e-06
1.00647e-05
7.96776e-07
1.00053e-05
1.03475e-06
1.00576e-05
1.00757e-05
9.78957e-06
1.00573e-05
6.14974e-06
1.00631e-05
1.06295e-06
9.69467e-06
8.08026e-06
2.35602e-06
9.82212e-06
4.96986e-07
9.77346e-06
1.00412e-05
9.58844e-06
9.79968e-06
8.22592e-06
1.00263e-05
9.6854e-06
2.21269e-06
9.15992e-06
7.97121e-06
8.2595e-06
7.11644e-07
9.6449e-06
8.76372e-06
9.96059e-06
9.80583e-06
9.67875e-06
1.00304e-05
1.00853e-05
8.78523e-06
2.94705e-06
9.41412e-06
1.83807e-06
8.15791e-06
7.63738e-06
9.83307e-06
9.52121e-06
8.68202e-06
8.51569e-06
1.00708e-05
1.0035e-05
9.69104e-06
1.01327e-05
9.68087e-06
1.00163e-05
8.49548e-06
9.56929e-06
1.00137e-05
9.72112e-06
8.98068e-06
5.44508e-06
9.99656e-06
9.81269e-06
9.78287e-06
1.00487e-05
9.74733e-06
9.92065e-06
7.171e-07
8.63518e-06
8.36934e-06
2.38134e-06
9.75263e-06
9.82531e-06
9.94497e-06
9.93972e-06
6.02719e-06
9.74831e-06
8.80791e-06
9.9364e-06
9.78389e-06
1.0056e-05
7.24504e-07
1.00343e-05
9.78512e-06
8.12737e-06
9.81112e-06
9.66139e-06
9.17592e-06
1.00681e-05
1.00161e-05
9.31448e-06
9.77898e-06
9.71433e-06
1.00414e-05
1.55309e-06
9.78046e-06
8.01512e-06
9.80769e-06
1.00637e-05
2.51131e-06
9.84864e-06
1.00431e-05
9.76367e-06
1.00816e-05
1.00548e-05
7.47542e-06
7.01388e-06
1.18178e-06
2.17485e-06
9.7423e-06
9.78939e-06
8.81733e-06
9.81751e-06
9.98918e-06
9.78509e-06
9.71377e-06
1.01015e-05
9.48625e-06
1.00646e-05
1.00761e-05
9.70009e-06
9.51783e-06
8.49588e-06
9.73706e-06
1.00643e-05
1.00609e-05
3.97746e-06
8.57877e-06
9.94116e-06
2.1392e-06
9.73425e-06
9.61998e-06
7.74475e-06
1.0065e-05
3.26684e-06
9.6958e-06
8.69751e-06
8.66211e-06
7.53959e-06
1.00513e-05
9.93304e-06
9.7928e-06
6.92229e-07
3.1522e-06
2.08513e-06
9.76225e-06
9.608e-06
1.00118e-05
1.02393e-06
3.79143e-06
1.01932e-05
9.80619e-06
9.83203e-06
9.81391e-06
9.79694e-06
9.80784e-06
9.75189e-06
2.12741e-06
1.00623e-05
9.1643e-06
9.93898e-06
9.8087e-06
1.00039e-05
1.00586e-05
1.60458e-06
9.81111e-06
1.00254e-05
1.00488e-05
1.00516e-05
8.35751e-06
9.67883e-06
9.85762e-06
8.30083e-07
1.00653e-05
9.89751e-06
9.11818e-07
8.34521e-06
9.611e-06
9.8422e-06
9.82013e-06
9.77378e-06
9.56938e-06
9.75878e-06
9.85844e-06
9.84233e-06
9.82142e-06
8.98264e-06
9.37815e-06
9.89403e-06
1.00652e-05
8.55368e-06
9.6456e-06
1.00837e-05
9.86125e-06
9.74713e-06
1.00405e-05
5.78635e-06
9.72582e-06
1.00128e-05
9.77752e-06
9.72694e-06
8.18129e-07
9.80544e-06
9.80671e-06
8.11813e-06
8.42107e-06
1.00614e-05
7.88028e-06
8.6707e-06
1.0041e-05
4.27033e-06
9.60104e-06
9.98629e-06
9.7993e-06
9.69814e-06
9.84218e-06
9.96466e-06
9.2162e-06
1.00552e-05
1.00361e-05
1.00421e-05
1.00389e-05
8.53927e-06
9.7748e-06
1.00763e-05
1.32894e-06
1.0024e-05
1.00472e-05
1.00927e-05
9.78757e-06
9.13164e-06
1.00657e-05
8.70555e-06
9.9152e-06
4.51975e-06
1.04759e-05
9.30172e-06
9.0489e-06
1.00427e-05
8.44437e-06
8.27668e-06
9.83117e-06
8.44901e-06
9.79827e-06
1.03639e-05
8.87253e-07
1.00622e-05
9.87299e-06
8.27267e-06
9.80811e-06
9.76936e-06
9.96205e-06
9.25492e-06
9.64087e-06
9.81212e-06
8.40803e-06
9.40777e-06
9.80815e-06
9.8078e-06
1.01984e-05
9.79608e-06
9.60843e-06
9.90115e-06
9.90629e-06
1.02022e-05
9.16521e-06
9.79365e-06
9.76375e-06
1.01443e-05
9.5231e-06
8.4637e-06
8.53819e-06
9.91358e-06
9.82835e-06
1.03063e-05
9.2841e-06
7.84631e-06
9.88238e-06
1.49479e-06
9.94104e-06
9.609e-06
7.94851e-06
9.68322e-06
9.67022e-06
1.006e-05
8.46586e-06
9.81441e-06
9.82182e-06
8.62172e-07
9.90835e-06
9.86607e-06
9.73726e-06
8.69698e-07
9.86822e-06
1.0093e-05
9.68913e-06
9.80362e-06
9.88955e-06
1.00658e-05
1.00644e-05
9.94764e-06
9.87339e-06
8.49198e-06
1.00558e-05
9.96632e-06
1.00651e-05
9.93164e-06
9.83313e-06
9.88908e-06
1.00228e-05
8.83093e-06
9.76815e-06
9.82509e-06
7.93053e-06
9.8801e-06
9.74767e-06
9.91638e-06
9.98834e-06
8.31597e-06
7.23381e-07
9.55851e-06
9.86644e-06
8.74145e-06
9.68144e-06
9.41648e-06
8.18646e-07
9.51164e-06
1.03896e-05
8.09653e-06
9.92444e-06
9.68908e-06
9.73674e-06
9.67513e-06
9.86981e-06
6.58286e-06
9.83291e-06
9.94294e-06
1.00245e-05
1.01999e-05
9.81828e-06
1.00557e-05
8.4072e-06
9.70771e-06
9.58346e-06
9.92416e-06
9.94076e-06
8.70126e-06
9.59377e-06
9.77892e-06
9.89046e-06
9.79672e-06
1.006e-05
9.87947e-06
9.11069e-06
7.35061e-07
9.92709e-06
1.0043e-05
9.9145e-06
9.89023e-06
9.85804e-06
1.00626e-05
9.92903e-06
9.85783e-06
8.56964e-06
1.00353e-05
9.63639e-06
9.69681e-06
9.70367e-06
9.71604e-06
1.00607e-05
9.93517e-06
1.00371e-05
9.87512e-06
1.29201e-06
1.00362e-05
9.73663e-06
1.00404e-05
9.77572e-06
9.66954e-06
9.88414e-06
1.00059e-05
9.40118e-06
9.21429e-06
1.03301e-05
9.85315e-06
6.69645e-06
8.4969e-06
1.02029e-05
2.35942e-06
1.00116e-05
1.00763e-05
1.0063e-05
9.76702e-06
1.00411e-05
9.62609e-06
8.60417e-06
9.51536e-06
9.75213e-06
9.89404e-06
1.00308e-05
9.69319e-06
1.00568e-05
1.01599e-05
9.33958e-06
5.01958e-06
1.00002e-05
9.84889e-06
9.66874e-06
1.00594e-05
9.86491e-06
9.73646e-06
1.00425e-05
9.51566e-06
1.00043e-05
9.95418e-06
9.85388e-06
9.78742e-06
1.0045e-05
1.00663e-05
1.00675e-05
9.6751e-06
9.78027e-06
1.00603e-05
1.0075e-05
1.00605e-05
9.74767e-06
9.77374e-06
8.0224e-06
9.64636e-07
1.47624e-06
1.00541e-05
8.59452e-06
9.99145e-06
9.96673e-06
9.82452e-06
3.21983e-06
9.71006e-06
9.89061e-06
9.95251e-06
1.01361e-05
1.0046e-05
9.9575e-06
9.95393e-06
1.00762e-05
1.00409e-05
9.73407e-06
7.47925e-06
1.03207e-05
9.72284e-06
9.89528e-06
1.0062e-05
8.71624e-06
9.96247e-06
9.82567e-06
1.00302e-05
1.00422e-05
8.68298e-06
9.89923e-06
9.97051e-06
9.71306e-06
1.00026e-05
7.73954e-06
9.94013e-06
8.44773e-06
9.91029e-06
9.94082e-06
1.00628e-05
1.00453e-05
9.8327e-06
9.49783e-06
9.88362e-06
7.86884e-06
1.00407e-05
2.77681e-07
2.01191e-06
9.82583e-06
1.00809e-05
1.0252e-05
9.91835e-06
1.0168e-05
8.52849e-07
1.0099e-05
9.87138e-06
2.68034e-06
3.63991e-06
4.16137e-06
4.38563e-06
5.05301e-06
6.01353e-06
6.23476e-06
6.75806e-06
6.98419e-06
9.72493e-06
9.68013e-06
9.66639e-06
1.00219e-05
1.00222e-05
1.00537e-05
9.90391e-06
1.00153e-05
1.00162e-05
1.00428e-05
1.00414e-05
1.00556e-05
8.94843e-06
9.64311e-06
7.59071e-06
9.92894e-06
9.93039e-06
1.00672e-05
1.00537e-05
7.66504e-06
1.00501e-05
6.64204e-06
9.90681e-06
1.00463e-05
7.81388e-06
7.88834e-06
1.0681e-06
1.00651e-05
9.95131e-06
1.00307e-05
1.00935e-05
9.97544e-06
9.9184e-06
9.7677e-06
1.00571e-05
9.04686e-07
9.96222e-06
1.00525e-05
1.00483e-05
1.00536e-05
7.8646e-06
9.41919e-06
1.00348e-05
9.73825e-06
9.90661e-06
9.72587e-06
9.7903e-06
9.68477e-06
2.34801e-07
8.90421e-06
9.87164e-06
9.89966e-06
8.9812e-06
9.92996e-06
1.00802e-05
9.66532e-06
8.05753e-06
1.01361e-05
9.96575e-06
9.90602e-06
7.54902e-06
9.72011e-06
9.70777e-06
1.00125e-05
1.00458e-05
9.0583e-06
1.00068e-05
9.88961e-06
1.00803e-05
1.00748e-05
8.24962e-06
9.77947e-06
9.84853e-06
9.83806e-06
1.02286e-05
9.75947e-06
9.93788e-06
1.02633e-05
1.00768e-05
9.94126e-06
1.00154e-05
9.9742e-06
1.00648e-05
1.00676e-05
1.00597e-05
9.80135e-06
9.95786e-06
6.69971e-06
9.56712e-06
9.90361e-06
7.71415e-06
1.00414e-05
8.20506e-06
1.00761e-05
9.76289e-06
1.00578e-05
7.56086e-06
9.49592e-06
1.00848e-05
1.00586e-05
1.014e-05
7.7968e-06
9.77022e-06
1.00352e-05
8.59099e-06
9.81253e-06
2.49967e-06
1.00231e-05
9.83428e-06
9.6901e-06
1.00651e-05
1.00502e-05
1.00616e-05
1.01071e-05
9.31261e-06
9.93503e-06
9.85467e-06
9.20442e-06
5.82381e-07
1.00588e-05
1.00473e-05
1.0023e-05
3.48753e-07
9.79155e-06
9.81734e-06
3.7246e-06
1.00383e-05
1.00601e-05
1.0022e-05
8.36292e-06
8.88449e-06
1.00057e-05
9.81335e-06
9.51695e-06
9.7536e-06
1.00153e-05
1.00468e-05
1.00405e-05
9.93713e-06
9.65981e-06
1.02138e-05
9.79606e-06
2.0645e-06
9.96778e-06
1.00374e-05
9.81842e-06
1.00545e-05
1.00426e-05
1.00179e-05
1.00752e-05
1.00878e-05
9.69211e-06
1.00526e-05
8.67532e-06
1.00076e-05
1.01395e-05
9.77385e-06
1.00169e-05
1.0076e-05
8.65764e-06
9.90228e-06
9.93457e-06
9.7376e-06
1.00583e-05
1.00659e-05
9.66363e-06
1.00657e-05
1.00551e-05
1.01293e-05
1.01023e-05
9.74509e-06
1.01992e-05
9.89438e-06
1.00532e-05
9.70653e-06
9.79984e-06
1.00435e-05
9.98687e-06
9.96402e-06
9.86021e-06
1.00994e-05
8.68949e-06
1.01256e-05
1.00654e-05
8.74565e-06
9.86984e-06
1.03025e-05
9.93126e-06
1.01512e-05
1.01221e-05
9.84595e-06
9.80096e-06
9.71458e-06
1.00533e-05
9.88452e-06
1.00604e-05
1.01367e-05
1.00107e-05
1.03147e-05
9.27203e-06
7.36803e-06
9.93525e-06
1.01188e-06
9.67887e-06
8.93421e-06
9.79182e-06
1.01826e-05
1.01659e-05
9.79075e-06
1.62359e-06
9.95183e-06
9.73098e-06
9.95239e-06
1.00369e-05
4.91138e-06
9.62123e-06
1.33754e-06
9.94352e-06
1.00611e-05
1.00645e-05
8.47723e-06
1.00138e-05
1.04326e-05
1.02827e-06
7.77358e-06
9.83644e-06
1.02209e-05
1.02258e-05
8.95564e-06
1.00454e-05
7.96303e-06
8.00919e-06
8.84732e-06
1.0044e-05
9.97021e-06
1.00619e-05
1.03119e-05
1.00705e-05
1.01552e-05
1.00616e-05
7.72976e-06
1.00133e-05
1.04953e-05
1.00118e-05
9.88502e-06
1.22837e-06
9.99113e-06
1.00104e-05
1.0042e-05
8.751e-06
7.29311e-06