/*--------------------------------*- C++ -*----------------------------------*\
  =========                 |
  \\      /  F ield         | OpenFOAM: The Open Source CFD Toolbox
   \\    /   O peration     | Website:  https://openfoam.org
    \\  /    A nd           | Version:  8
     \\/     M anipulation  |
\*---------------------------------------------------------------------------*/
FoamFile
{
    version     2.0;
    format      ascii;
    class       volScalarField;
    location    "3.6";
    object      p;
}
// * * * * * * * * * * * * * * * * * * * * * * * * * * * * * * * * * * * * * //

dimensions      [0 2 -2 0 0 0 0];

internalField   nonuniform List<scalar> 
5119
(
4.38891e-06
1.18106e-05
1.18275e-05
1.13329e-05
5.27667e-06
1.19572e-05
1.17905e-05
1.18079e-05
1.07827e-05
2.07181e-06
1.13423e-05
2.06833e-06
5.54031e-06
1.16266e-05
3.81235e-06
6.91593e-06
8.02807e-06
1.25924e-06
2.90186e-06
2.99045e-06
6.92489e-06
6.09864e-06
3.98817e-06
1.85754e-06
7.30827e-06
6.83753e-06
4.01953e-06
4.0685e-06
4.1037e-06
1.16413e-06
1.55206e-06
2.82651e-06
6.65546e-06
3.73936e-06
4.64041e-06
1.22258e-06
1.1989e-06
1.21329e-06
5.00087e-06
8.81638e-06
1.18066e-05
5.25802e-06
8.13643e-06
8.16539e-06
8.53831e-06
1.18236e-05
9.10493e-06
8.65669e-06
8.63979e-06
7.64345e-06
1.17014e-05
1.13225e-05
1.21905e-05
1.18416e-05
1.1621e-05
8.94079e-06
1.13934e-05
1.18105e-05
6.16379e-06
9.37072e-06
8.27496e-06
8.02816e-06
9.0306e-06
8.59503e-06
1.18114e-05
9.55522e-06
1.1736e-05
1.15161e-05
9.13691e-06
1.16186e-05
1.16824e-05
1.18169e-05
1.17615e-05
9.11137e-06
7.64053e-06
8.84552e-06
1.1808e-05
1.18153e-05
9.60745e-06
9.37892e-06
1.09778e-05
1.15466e-05
1.11546e-06
6.10404e-07
1.18287e-05
8.84374e-07
1.18615e-05
8.34151e-06
6.06775e-07
6.15097e-07
6.1268e-07
5.90111e-07
1.18091e-05
1.1227e-05
9.26856e-06
1.13781e-05
1.213e-05
9.22466e-06
1.13807e-05
1.06326e-06
6.96818e-06
6.79578e-06
1.07507e-05
9.58251e-06
1.18102e-05
1.18179e-05
9.78541e-06
1.17547e-05
1.15306e-05
1.18488e-05
1.04662e-05
1.18182e-05
1.18169e-05
2.06742e-06
1.18054e-05
1.14319e-05
1.12932e-05
1.18161e-05
1.15401e-05
8.97984e-07
1.17517e-05
4.44982e-06
1.07309e-05
6.32674e-06
7.41536e-06
3.44624e-06
6.37552e-06
6.23823e-06
2.28866e-06
4.56737e-06
6.75175e-06
1.78295e-06
1.78897e-06
3.4718e-06
1.18926e-05
1.17408e-05
1.0477e-05
3.37981e-06
1.17194e-05
4.17136e-06
6.15329e-06
8.32404e-06
5.61299e-06
4.42076e-06
4.55008e-06
4.51649e-06
1.82571e-06
1.86337e-06
1.84562e-06
1.12874e-05
9.94102e-06
1.19096e-05
9.61527e-06
1.12667e-05
1.13834e-05
8.98705e-07
1.14076e-05
1.21093e-05
1.17538e-05
1.11391e-05
1.00373e-05
1.18268e-05
1.17568e-05
9.40868e-06
1.18126e-05
1.18311e-05
1.18142e-05
1.18119e-05
1.18133e-05
1.14056e-05
1.16868e-05
9.64647e-06
1.15295e-05
1.16376e-05
1.14675e-05
1.16259e-05
1.17157e-05
3.16512e-06
1.18199e-05
4.79952e-06
1.17584e-05
1.17293e-05
9.29001e-06
9.22386e-06
1.1812e-05
1.13538e-05
1.18234e-05
1.17329e-05
1.17143e-05
1.17937e-05
1.112e-05
1.01671e-05
9.33897e-06
1.15535e-05
1.18049e-05
1.11512e-05
1.18618e-05
1.172e-05
1.07098e-05
1.2002e-05
1.18136e-05
1.00493e-05
1.18123e-05
2.04618e-06
3.64662e-06
4.40572e-06
6.05402e-06
9.91588e-06
1.16629e-05
1.15523e-05
1.17675e-05
8.87865e-06
1.17616e-05
9.07567e-06
1.17675e-05
1.16444e-05
1.17161e-05
8.80305e-06
1.14411e-05
1.17357e-05
9.79587e-06
1.14097e-05
1.18212e-05
9.65889e-06
1.14223e-05
1.13112e-05
1.18058e-05
1.1851e-05
5.74088e-06
2.3109e-06
1.18249e-05
2.81928e-06
6.89245e-06
6.05276e-06
5.33636e-06
1.16718e-05
7.69739e-06
8.25982e-06
1.16469e-05
1.04443e-05
1.15275e-05
1.17626e-05
1.13165e-05
1.03348e-05
3.61294e-06
2.47374e-06
5.9493e-06
1.16755e-05
6.80273e-06
3.35359e-06
6.25022e-06
7.60432e-06
7.98597e-06
3.05685e-06
3.41755e-06
7.30627e-06
3.44396e-06
3.41129e-06
3.93208e-06
1.16523e-05
1.17433e-05
1.17281e-05
1.10696e-05
7.77594e-06
5.16393e-06
5.1993e-06
5.38076e-06
6.314e-06
1.17149e-05
8.9849e-06
1.1727e-05
1.18009e-05
1.64261e-06
6.50019e-06
2.10303e-06
1.2102e-05
1.04675e-05
7.84791e-06
1.11348e-06
7.57855e-06
7.99497e-06
3.43519e-06
3.4091e-06
7.29511e-06
3.37307e-06
2.94489e-06
3.89216e-06
6.23244e-06
1.26957e-06
2.22213e-06
7.6327e-06
3.30811e-06
6.74058e-06
1.17791e-05
3.61969e-06
6.95285e-06
8.62029e-06
1.16188e-05
1.18267e-05
9.58602e-06
1.12584e-05
6.01395e-06
1.13854e-05
1.19854e-05
1.15491e-05
1.18586e-05
1.21177e-05
1.47804e-06
1.13982e-05
9.67756e-06
1.67006e-06
6.19633e-06
5.29097e-06
5.36298e-06
5.90958e-06
5.29914e-06
1.18132e-05
1.19248e-05
6.49995e-06
6.43082e-06
1.13314e-05
9.14155e-06
3.73739e-06
1.19342e-05
1.12384e-05
1.02438e-05
1.14452e-05
3.05716e-06
5.01216e-06
1.14344e-05
5.60674e-06
5.21369e-06
1.02111e-05
1.17058e-05
1.19499e-05
4.45097e-06
6.77188e-06
7.96658e-06
1.34963e-06
2.78021e-06
6.80535e-06
3.00973e-06
1.13422e-05
6.74388e-06
7.17661e-06
4.06117e-06
1.85174e-06
1.28662e-06
1.14362e-05
1.13431e-05
4.80439e-06
5.03046e-06
5.02311e-06
4.83456e-06
5.9808e-06
5.8685e-06
4.57368e-06
4.31864e-06
3.85299e-06
7.06548e-06
3.03077e-06
2.80716e-06
2.84088e-06
7.39001e-06
2.72446e-06
2.86481e-06
2.57053e-06
2.28416e-06
2.3691e-06
2.38965e-06
2.32692e-06
2.12909e-06
8.13023e-06
8.57889e-06
1.14084e-05
1.15384e-05
1.16978e-05
1.15624e-05
3.37123e-06
1.20416e-05
1.11837e-05
1.17573e-05
9.4891e-06
2.86894e-06
9.39004e-06
9.99805e-06
1.18012e-05
2.81562e-06
3.72375e-06
6.50988e-06
1.18345e-05
1.19324e-05
1.01079e-05
1.17721e-05
8.68229e-06
5.98101e-06
4.0195e-06
4.14689e-06
4.11817e-06
1.17211e-05
8.09038e-06
1.17475e-05
1.18023e-05
1.02021e-05
4.74833e-06
1.14323e-05
1.08475e-05
1.18184e-05
1.1459e-05
1.11473e-05
9.38214e-06
2.33402e-06
4.10004e-06
1.34928e-06
1.3297e-06
1.34406e-06
1.08125e-05
5.77829e-06
6.61188e-06
1.1795e-05
1.17734e-05
7.79728e-06
1.15081e-05
1.17354e-05
1.1691e-05
1.14569e-05
1.1798e-05
5.6481e-06
6.78425e-07
1.1988e-05
1.00754e-05
5.63264e-06
8.05051e-06
1.18536e-05
1.14752e-05
1.16997e-05
1.05651e-05
9.75569e-06
1.19519e-05
1.17201e-05
1.09605e-05
1.17333e-05
1.11733e-05
7.56354e-07
7.875e-07
7.9291e-07
7.78622e-07
1.17462e-05
1.11839e-05
7.9477e-06
1.10441e-05
1.18276e-05
5.28207e-06
6.58649e-06
3.61865e-06
3.22481e-06
2.99825e-06
2.9217e-06
3.02051e-06
3.04491e-06
7.69451e-06
7.96564e-06
2.50779e-06
7.53776e-06
1.16647e-05
1.1844e-05
4.97124e-06
1.10012e-06
4.55622e-06
4.83842e-06
4.79961e-06
4.62361e-06
6.19704e-06
6.09147e-06
4.34604e-06
4.08511e-06
3.62754e-06
7.2883e-06
2.79731e-06
2.6149e-06
2.56745e-06
2.63802e-06
7.61727e-06
2.50597e-06
2.34931e-06
2.05401e-06
2.15791e-06
2.13876e-06
2.11209e-06
1.90308e-06
8.35358e-06
8.84109e-06
1.18093e-05
1.13892e-05
1.18094e-05
9.84628e-06
9.84358e-06
1.18085e-05
1.20053e-05
1.16579e-05
1.15294e-05
1.18438e-05
1.05083e-05
1.08865e-05
1.181e-05
8.06144e-07
1.14646e-05
4.86219e-06
1.0227e-05
3.39009e-07
3.66755e-07
4.10008e-07
1.12879e-05
2.53099e-06
7.22282e-06
6.48165e-06
1.13478e-05
1.16076e-05
1.17756e-05
1.15018e-05
4.94029e-06
2.15446e-06
1.18264e-05
9.97282e-06
1.10923e-05
5.78713e-06
6.88756e-06
5.50483e-06
1.19044e-05
1.00667e-05
9.53045e-06
9.31008e-07
1.04949e-05
6.6818e-06
6.99869e-06
1.17824e-05
1.19068e-05
9.75237e-06
1.14166e-05
2.33543e-06
7.21532e-06
6.50874e-06
9.52984e-06
6.27137e-06
5.40952e-06
5.14572e-06
5.08234e-06
1.15587e-05
1.13554e-05
7.43664e-06
1.15769e-05
9.54496e-06
1.18215e-05
1.17676e-05
1.1999e-05
8.16931e-06
2.58103e-06
8.78564e-06
1.13253e-05
5.34903e-06
1.11735e-05
1.18195e-05
1.13197e-05
1.06783e-05
1.19793e-05
1.18189e-05
1.1653e-05
2.82523e-06
1.17229e-05
1.06772e-05
1.08415e-05
5.81783e-06
1.18865e-05
1.19585e-05
1.17635e-05
1.01496e-05
1.11889e-05
1.17999e-05
1.18515e-05
1.17999e-05
2.2627e-07
2.11136e-07
2.30182e-07
1.07983e-05
1.15811e-05
1.15465e-05
1.20247e-05
1.18826e-05
4.77326e-06
4.48659e-06
1.1824e-05
1.18293e-05
1.18338e-05
9.92067e-06
1.16201e-05
1.17043e-05
7.75614e-06
7.49151e-06
3.18671e-06
3.16203e-06
3.16552e-06
3.75923e-06
6.39647e-06
3.40062e-06
3.10122e-06
9.66196e-06
1.19672e-05
1.07583e-05
1.17833e-05
1.17706e-05
7.07756e-06
1.18703e-05
1.15142e-05
8.71847e-06
1.09704e-05
1.18929e-05
1.1624e-05
1.18333e-05
1.03513e-05
1.17661e-05
1.17745e-05
1.17117e-05
1.1335e-05
1.18153e-05
6.8769e-06
5.62315e-06
1.10056e-05
1.18343e-05
1.17466e-05
1.17729e-05
1.18714e-05
1.1541e-05
1.00851e-05
5.34803e-06
1.53336e-06
1.16911e-05
1.03019e-05
1.71214e-06
5.93344e-06
1.50842e-06
7.2632e-06
3.69852e-06
3.72708e-06
7.61845e-06
6.97554e-06
3.36204e-06
3.66041e-06
4.2094e-06
1.1626e-05
8.6552e-06
1.13773e-05
5.65169e-07
1.19321e-05
1.18542e-05
1.13669e-05
1.18155e-05
1.18412e-05
6.05745e-07
1.18121e-05
1.18185e-05
8.0952e-06
1.68656e-06
8.55678e-06
1.06722e-05
1.18768e-05
1.01343e-05
1.10657e-05
1.18183e-05
1.14269e-05
7.88342e-07
1.17835e-06
1.18744e-05
1.17691e-05
1.05193e-05
1.11563e-05
1.1849e-05
1.05937e-05
1.16984e-05
1.18165e-05
1.1485e-05
5.61621e-06
1.83198e-06
3.45275e-06
4.21618e-06
6.06684e-06
1.17926e-05
2.20944e-07
2.17337e-07
2.68506e-07
1.07216e-05
1.19063e-05
1.19823e-05
6.95595e-06
1.17336e-05
8.26386e-06
2.52693e-07
2.81016e-07
1.18606e-05
9.37467e-07
2.61918e-06
7.30003e-06
3.62463e-06
6.43424e-06
7.43048e-06
1.1436e-05
6.21675e-06
1.1818e-05
1.18274e-05
1.15439e-05
1.18205e-05
1.17681e-05
1.18161e-05
1.13699e-05
1.15129e-05
8.49151e-06
1.16172e-05
1.02884e-05
1.03195e-05
9.56465e-06
1.17968e-05
1.17031e-05
9.57929e-06
1.17277e-05
8.47741e-06
1.15215e-05
1.17916e-05
2.03214e-06
1.14866e-05
1.09289e-05
1.20532e-05
1.15993e-05
1.04479e-05
1.15272e-05
1.15817e-05
1.17186e-05
2.20514e-07
2.25289e-07
2.30937e-07
2.69782e-07
2.13586e-07
1.17931e-05
1.16066e-05
9.60155e-06
1.19419e-05
1.18117e-05
1.18319e-05
1.16855e-05
1.13967e-05
1.12805e-05
5.05763e-06
5.07412e-06
5.09346e-06
5.49247e-06
5.26527e-06
5.44281e-06
1.18227e-05
1.18193e-05
4.47241e-06
4.7321e-06
5.164e-06
5.49335e-06
5.67841e-06
5.70422e-06
6.10504e-06
5.90516e-06
4.40889e-06
4.01085e-06
6.727e-06
3.25381e-06
2.99689e-06
2.92151e-06
2.73188e-06
7.11806e-06
2.99422e-06
3.02007e-06
2.93796e-06
2.49542e-06
2.53849e-06
2.51591e-06
7.51145e-06
2.40643e-06
2.28406e-06
7.94571e-06
1.99469e-06
8.24286e-06
8.45255e-06
8.6894e-06
5.21527e-06
5.04679e-06
5.20005e-06
5.0106e-06
5.39362e-06
1.18937e-05
9.99283e-06
1.18222e-05
3.95762e-06
1.26171e-05
1.18135e-05
1.18137e-05
1.17458e-05
5.45978e-06
5.51249e-06
5.13371e-06
1.18352e-05
1.14792e-05
1.17993e-05
1.18613e-05
1.19712e-05
8.77918e-06
1.09238e-05
1.16542e-05
1.05549e-05
1.14304e-05
1.1519e-05
1.08832e-05
1.17437e-05
1.18221e-05
1.20816e-05
5.16317e-06
1.17891e-05
1.17829e-05
1.17235e-05
4.20183e-07
3.90608e-07
3.9488e-07
1.18218e-05
1.13205e-05
1.19109e-05
1.18336e-05
1.03838e-05
1.18026e-05
6.68292e-06
1.18162e-05
1.17404e-05
1.17752e-05
1.10555e-05
1.12089e-05
1.09286e-05
1.18124e-05
1.20254e-05
1.18135e-05
8.5066e-06
1.15129e-05
4.91881e-06
4.90549e-06
9.64035e-06
1.05213e-05
1.18035e-05
1.17286e-05
1.18943e-05
1.20007e-05
1.0088e-05
1.18627e-05
1.20344e-05
1.11584e-05
1.18087e-05
1.16387e-05
4.87308e-06
4.73596e-06
6.06874e-06
4.70242e-06
6.02987e-06
5.76116e-06
5.84453e-06
6.43591e-06
3.97652e-06
3.89604e-06
3.6823e-06
7.08704e-06
2.87385e-06
2.07277e-06
2.17221e-06
2.14479e-06
2.19533e-06
2.4095e-06
7.94825e-06
7.77314e-06
1.14758e-05
8.30715e-06
6.36685e-06
7.60508e-06
1.18124e-05
1.18116e-05
1.04106e-05
1.13876e-05
1.14352e-05
1.17217e-05
1.09973e-05
9.62549e-06
1.1184e-05
5.29257e-06
1.03864e-05
1.18387e-05
9.17172e-06
1.13235e-05
1.1737e-05
9.78263e-06
1.13822e-05
6.89683e-06
8.30233e-06
1.08272e-05
1.14441e-05
1.12049e-05
1.06639e-05
1.04934e-05
1.09963e-05
1.11678e-05
1.18314e-05
1.11424e-05
1.17118e-05
1.11507e-05
1.17086e-05
1.11785e-05
1.13113e-05
8.2456e-06
5.80042e-06
1.167e-05
1.08079e-05
1.15612e-05
1.18252e-05
7.99974e-06
1.02374e-05
8.48454e-06
1.19449e-05
1.12211e-05
9.52589e-06
1.11101e-05
1.13957e-05
1.1815e-05
1.16177e-05
1.01082e-05
1.18307e-05
9.92809e-06
5.61864e-06
6.0406e-06
6.06249e-06
3.86227e-06
4.20608e-06
3.52635e-06
6.50128e-06
3.46525e-06
3.40173e-06
7.13713e-06
3.58524e-06
3.55376e-06
7.35093e-06
7.68133e-06
7.36155e-06
2.64507e-06
1.18177e-05
1.15929e-05
1.12785e-05
1.12267e-05
1.15616e-05
1.11222e-05
1.16462e-05
1.0251e-05
5.14523e-06
1.18052e-05
5.44452e-06
5.45037e-06
9.83593e-06
5.24303e-06
1.18206e-05
1.18093e-05
7.28911e-06
1.13198e-05
1.17842e-05
7.77962e-06
7.85117e-06
7.56121e-06
8.30962e-06
1.1695e-05
1.17983e-05
8.39945e-06
7.71887e-06
8.22122e-06
1.15803e-05
1.1186e-05
1.22761e-05
1.1825e-05
1.13658e-05
1.14491e-05
1.18464e-05
7.42834e-06
8.60593e-06
1.18362e-05
1.18136e-05
1.17693e-05
1.179e-05
9.6462e-06
1.19414e-05
7.33392e-06
9.34766e-06
1.1731e-05
2.44991e-06
1.16827e-05
1.10174e-05
1.17208e-05
8.80188e-06
1.18022e-05
1.1201e-05
6.16136e-06
6.04032e-06
4.37314e-06
4.22553e-06
3.66274e-06
7.25625e-06
2.99001e-06
2.73821e-06
2.74141e-06
7.56454e-06
2.76527e-06
2.64237e-06
2.48864e-06
2.0624e-06
2.18624e-06
2.16844e-06
2.15014e-06
1.90448e-06
8.22475e-06
8.78839e-06
4.87827e-06
4.70877e-06
4.94979e-06
4.6494e-06
1.18705e-05
1.1751e-05
9.92804e-06
1.1831e-05
1.15019e-05
1.15389e-05
1.20533e-05
1.17973e-05
1.16615e-05
7.46626e-07
1.1768e-05
6.61547e-06
3.6679e-06
3.45993e-06
3.19312e-06
3.13747e-06
3.19465e-06
3.2221e-06
7.6178e-06
7.84885e-06
1.18143e-05
2.95304e-06
7.80566e-06
5.42684e-06
1.17162e-05
1.12966e-05
1.1432e-05
1.15552e-05
1.16619e-05
1.16729e-05
1.19303e-05
1.18912e-05
1.18129e-05
1.10927e-05
1.17492e-05
2.28974e-06
1.16949e-05
1.18257e-05
4.6554e-06
4.68567e-06
5.80222e-06
5.65567e-06
5.22517e-06
1.18145e-05
1.18109e-05
1.13647e-05
1.18611e-05
5.25337e-06
1.10711e-05
1.1831e-05
1.17497e-05
1.14065e-05
1.32273e-06
1.30738e-06
1.33263e-06
4.59838e-06
1.14118e-05
1.18004e-05
1.18749e-05
9.69517e-06
1.02319e-05
1.10031e-05
1.18178e-05
1.18167e-05
1.15681e-05
1.18894e-05
1.17106e-05
1.12467e-05
1.18241e-05
5.68835e-06
1.17831e-05
1.18022e-05
1.17078e-05
1.17808e-05
1.12137e-05
7.48307e-06
1.07103e-05
1.18157e-05
1.18538e-05
5.04418e-06
1.18418e-05
5.51864e-06
1.09552e-05
1.17501e-05
1.11643e-05
9.63749e-06
1.15759e-05
5.15881e-06
5.60318e-06
5.17467e-06
1.1516e-05
1.17169e-05
1.17094e-05
1.12974e-05
1.13615e-05
1.16258e-05
1.13794e-05
5.45377e-06
5.43637e-06
5.32477e-06
9.33421e-06
1.19682e-05
1.1726e-05
1.1562e-05
1.1092e-05
1.18298e-05
1.12132e-05
1.15185e-05
1.11724e-05
1.18097e-05
1.17354e-05
1.16808e-05
1.18279e-05
1.15931e-05
1.16267e-05
1.09687e-05
1.17098e-05
1.16695e-05
5.44989e-06
5.43523e-06
8.77735e-06
1.14849e-05
1.1894e-05
1.137e-05
1.18299e-05
1.15635e-05
1.10354e-05
1.19e-05
4.77293e-06
1.19235e-05
9.10426e-06
1.2016e-05
1.18211e-05
1.14575e-05
1.18105e-05
1.14493e-05
1.19497e-05
1.14494e-05
1.1782e-05
1.17606e-05
1.15669e-05
1.17929e-05
5.33004e-06
5.23187e-06
5.36751e-06
1.1336e-05
1.19493e-05
1.17286e-05
1.18836e-05
1.17134e-05
1.18329e-05
1.11308e-05
1.16657e-05
1.12342e-05
1.64397e-06
3.73719e-06
2.82711e-06
6.61222e-06
1.18158e-05
1.18213e-05
1.17028e-05
1.19369e-05
1.13809e-05
1.18161e-05
1.18151e-05
1.18175e-05
1.16414e-05
8.54071e-06
1.18146e-05
1.17383e-05
1.18381e-05
1.6155e-06
1.59642e-06
1.6289e-06
8.49484e-06
1.18158e-05
1.18105e-05
1.17597e-05
1.18033e-05
1.17997e-05
1.11776e-05
1.17637e-05
1.17419e-05
1.10858e-05
1.16527e-05
5.25409e-06
1.14575e-05
1.1785e-05
1.18166e-05
5.02766e-06
1.17482e-05
1.13665e-05
1.18966e-05
1.14588e-05
1.07537e-05
1.18279e-05
1.16516e-05
1.18444e-05
1.1846e-05
1.19033e-05
1.17662e-05
1.06759e-05
1.18478e-05
1.18034e-05
1.17502e-05
1.16857e-05
1.17772e-05
1.13198e-05
1.17852e-05
1.12793e-05
1.1801e-05
5.15519e-06
4.0596e-06
6.05344e-06
2.10135e-06
3.01907e-06
2.88045e-06
6.82498e-06
1.36019e-06
6.84003e-06
7.99444e-06
1.18486e-05
1.17738e-05
1.18814e-05
1.18228e-05
1.07257e-05
1.10428e-05
1.1672e-05
1.17966e-05
1.1812e-05
1.13598e-05
1.18289e-05
1.05885e-05
1.1627e-05
1.17241e-05
3.58882e-06
3.61837e-06
6.09244e-06
7.41782e-06
5.68819e-06
4.1281e-06
3.56802e-06
7.10678e-06
2.33001e-06
7.76099e-06
3.23157e-06
1.36063e-06
1.55407e-06
1.16333e-05
1.17767e-05
1.18064e-05
1.17874e-05
1.16938e-05
1.1604e-05
1.13984e-05
1.058e-05
1.10109e-05
9.31082e-06
1.1558e-05
1.1824e-05
1.21719e-05
1.18249e-05
1.11501e-05
1.16669e-05
1.18631e-05
1.17258e-05
1.06251e-05
4.55634e-07
1.18236e-05
7.49056e-06
1.17721e-05
1.10646e-05
9.24247e-06
1.18086e-05
1.18119e-05
1.1828e-05
8.4997e-06
1.13559e-05
1.17377e-05
1.19134e-05
1.03505e-05
1.15835e-05
1.11139e-05
1.1829e-05
1.16476e-05
1.1553e-05
1.10215e-05
1.11712e-05
1.12894e-05
1.18243e-05
1.13976e-05
1.16334e-05
1.18537e-05
1.17269e-05
1.10592e-05
1.18797e-05
1.1853e-05
1.17972e-05
1.17839e-05
1.15754e-05
6.73805e-07
6.65671e-07
6.48423e-07
6.80256e-07
7.05832e-07
9.69188e-06
1.17034e-05
1.09489e-05
1.16142e-05
3.30268e-07
3.20144e-07
1.13577e-05
8.26133e-06
1.18166e-05
1.16186e-05
1.17289e-05
1.13736e-05
1.00378e-05
4.31293e-06
1.18298e-05
1.15736e-05
1.17861e-05
1.18202e-05
1.16596e-05
1.1482e-05
6.2203e-06
1.17929e-05
1.14965e-05
1.11386e-05
1.1289e-05
1.17121e-05
1.10636e-05
1.11529e-05
1.26977e-06
6.17101e-06
1.16497e-05
4.04102e-06
4.08954e-06
4.12129e-06
6.78009e-06
1.84845e-06
7.26507e-06
1.182e-05
1.15246e-05
1.18964e-05
1.10689e-05
1.17355e-05
1.15403e-05
2.4776e-06
3.50407e-06
6.6178e-06
7.49989e-06
5.13398e-06
1.11289e-05
1.19258e-05
1.06407e-05
5.55699e-06
5.61924e-06
5.12665e-06
4.90061e-06
1.18309e-05
1.11919e-05
1.18236e-05
1.10636e-05
3.75463e-06
1.18132e-05
1.21164e-05
1.14573e-05
1.11353e-05
1.18282e-05
1.11202e-05
3.61061e-07
1.14235e-05
1.17589e-05
1.18149e-05
1.17936e-05
1.17512e-05
1.17591e-05
5.17077e-06
1.10637e-05
1.18205e-05
1.35279e-06
1.16969e-05
1.15874e-05
3.06285e-07
2.74929e-07
2.90016e-07
2.86734e-07
2.82844e-07
1.18198e-05
1.18104e-05
1.17957e-05
7.16664e-06
1.17015e-05
1.13115e-05
1.1213e-05
1.13428e-05
1.17061e-05
1.17614e-05
1.17837e-05
1.18325e-05
1.18067e-05
1.19205e-05
1.18217e-05
1.17958e-05
1.12635e-05
1.17682e-05
1.1407e-05
1.18425e-05
1.04625e-05
8.92559e-06
1.18933e-05
1.1302e-05
8.91385e-06
1.17943e-05
7.68273e-06
5.35798e-06
1.18269e-05
1.18152e-05
1.15822e-05
3.85502e-06
8.88538e-06
1.18185e-05
1.135e-05
1.10442e-05
1.1697e-05
1.16611e-05
1.17474e-05
1.18166e-05
1.13793e-05
1.18169e-05
1.17658e-05
1.17597e-05
1.18196e-05
1.19398e-05
1.18296e-05
5.05967e-06
1.16395e-05
1.11894e-05
1.18163e-05
1.14603e-05
1.17106e-05
1.13676e-05
1.1792e-05
1.08086e-05
1.12448e-05
5.12428e-06
1.17794e-05
1.10608e-05
1.20237e-05
1.18184e-05
1.13206e-05
1.16946e-05
1.18415e-05
1.1762e-05
1.06146e-05
1.17741e-05
1.17344e-05
1.14279e-05
5.57643e-06
1.18166e-05
1.17919e-05
1.18172e-05
1.17755e-05
1.18094e-05
1.18198e-05
1.1805e-05
1.16908e-05
4.02501e-06
6.32293e-06
3.13214e-06
1.93472e-06
7.60017e-06
1.15724e-05
1.00731e-05
9.83688e-06
1.11179e-05
1.12084e-05
1.1816e-05
1.17969e-05
1.09064e-05
1.17773e-05
4.91711e-06
4.95689e-06
1.16912e-05
2.31274e-07
2.43071e-07
1.1806e-05
5.56225e-06
1.17341e-05
1.14178e-05
1.18122e-05
1.17327e-05
1.18009e-05
8.25005e-06
1.1812e-05
1.17614e-05
1.17715e-05
6.40419e-06
1.25247e-05
1.18105e-05
1.1478e-05
1.15591e-05
1.17495e-05
1.16613e-05
9.20734e-06
1.13199e-05
1.13821e-05
1.18168e-05
9.01214e-06
9.33758e-06
1.10859e-05
1.17518e-05
1.18111e-05
1.17302e-05
1.12956e-05
1.15796e-05
1.11687e-05
1.18109e-05
1.13578e-05
1.1023e-05
9.38533e-06
4.23696e-07
1.14858e-05
1.18164e-05
9.50653e-06
1.18133e-05
1.14415e-05
1.16714e-05
1.10003e-05
1.13184e-05
1.17442e-05
1.18141e-05
1.17387e-05
9.08755e-06
1.106e-05
1.03677e-05
1.1808e-05
1.09921e-05
5.35035e-06
1.13683e-05
1.05989e-05
1.1145e-05
1.1812e-05
1.18238e-05
1.20115e-06
1.06638e-06
1.0766e-06
6.74007e-06
1.17446e-05
6.98448e-06
1.18686e-05
4.76966e-06
1.20035e-05
1.12947e-05
1.16475e-05
1.17612e-05
1.17509e-05
1.11671e-05
9.36504e-06
1.13407e-05
1.13268e-05
6.27372e-06
1.16289e-05
1.18243e-05
1.18065e-05
1.23044e-05
1.17106e-05
1.18156e-05
7.134e-06
1.21035e-05
1.16719e-05
1.1925e-05
1.18398e-05
1.16677e-05
5.5902e-06
8.22919e-06
1.1244e-05
1.1613e-05
1.10717e-05
1.17269e-05
1.03579e-05
1.15963e-05
1.16366e-05
1.1823e-05
1.20148e-05
1.13903e-05
1.06791e-05
1.18231e-05
1.181e-05
1.14401e-05
1.18107e-05
8.36673e-06
1.1796e-05
1.18422e-05
1.1042e-05
1.16783e-05
1.11229e-05
1.10669e-05
1.13452e-05
1.1792e-05
1.16043e-05
1.1495e-05
1.18124e-05
1.18231e-05
8.92204e-06
1.18153e-05
9.45839e-06
1.18182e-05
1.15738e-05
1.14832e-05
1.19379e-05
1.13972e-05
1.18254e-05
1.17114e-05
1.16811e-05
1.18187e-05
1.14279e-05
1.12251e-05
1.14436e-05
1.18335e-05
1.12044e-05
1.18175e-05
1.11121e-05
9.01779e-06
1.18147e-05
8.93829e-06
1.20661e-05
1.18206e-05
1.18117e-05
1.17816e-05
1.15213e-05
1.18024e-05
1.19695e-05
1.14675e-05
1.18152e-05
1.95548e-06
1.93722e-06
1.91508e-06
8.32212e-06
1.18125e-05
1.18035e-05
1.15278e-05
1.0938e-05
1.17822e-05
1.12289e-05
1.19467e-05
1.19182e-05
1.25022e-05
1.2572e-05
1.21303e-05
1.1827e-05
1.13751e-05
8.66332e-06
1.19432e-05
1.14447e-05
1.14489e-05
9.59233e-06
1.19337e-05
1.18232e-05
1.18878e-05
1.18219e-05
1.17455e-05
1.16407e-05
1.1812e-05
1.18127e-05
1.17981e-05
1.18468e-05
6.35547e-06
8.52364e-06
1.18128e-05
8.46788e-06
8.01337e-06
1.10489e-05
8.63254e-06
1.18242e-05
1.1223e-05
1.1583e-05
1.18087e-05
1.18918e-05
1.18373e-05
1.15733e-05
7.98257e-06
1.1805e-05
1.1672e-05
7.41978e-06
1.18782e-05
1.16757e-05
1.17456e-05
1.17751e-05
1.18087e-05
1.15266e-05
1.14049e-05
1.2011e-05
1.15699e-05
1.15252e-05
4.38969e-06
1.13985e-05
1.1813e-05
1.18166e-05
1.17969e-05
1.13268e-05
1.17051e-05
8.42383e-07
1.20685e-05
2.17768e-06
1.1787e-05
1.18591e-05
1.1788e-05
1.1823e-05
1.18169e-05
1.17355e-05
1.18004e-05
1.11116e-05
1.18514e-05
3.88931e-06
1.50387e-06
3.61461e-06
1.80282e-06
2.699e-06
6.73147e-06
6.45582e-06
2.99149e-06
1.18382e-05
1.18314e-05
1.18357e-05
1.18056e-05
1.18094e-05
7.14734e-06
1.10083e-05
1.17984e-05
1.14384e-05
1.13848e-05
1.13741e-05
7.27535e-06
1.18147e-05
1.16131e-05
1.18315e-05
1.17008e-05
1.17864e-05
1.19437e-05
1.1291e-05
1.17562e-05
1.15266e-05
1.1816e-05
1.17289e-05
1.07386e-05
1.17959e-05
1.18417e-05
1.1821e-05
1.16678e-05
1.19304e-05
1.18621e-05
1.17983e-05
1.18066e-05
1.1536e-05
1.18432e-05
1.16585e-05
4.52818e-06
1.17936e-05
1.19242e-05
1.17996e-05
1.16742e-05
7.80373e-06
1.14249e-05
3.10427e-06
1.16766e-05
1.15043e-05
1.1778e-05
1.1828e-05
1.20831e-06
1.11379e-05
1.18256e-05
1.19254e-05
1.18241e-05
1.09562e-05
1.14827e-05
1.17818e-05
1.17734e-05
1.12194e-05
1.18323e-05
1.1429e-05
1.18168e-05
1.07575e-05
1.17938e-05
1.1574e-05
1.15557e-05
1.1815e-05
1.12892e-05
1.15295e-05
1.12469e-05
1.14549e-05
1.18101e-05
1.15478e-05
1.15969e-05
5.66371e-06
1.1881e-05
1.17048e-05
1.17986e-05
1.16917e-05
1.1818e-05
1.14209e-05
1.06399e-05
4.13192e-06
1.18113e-05
1.18263e-05
9.61743e-06
9.36882e-06
1.19722e-05
1.18083e-05
1.18017e-05
1.18244e-05
1.21374e-05
1.14437e-06
1.19314e-06
1.1793e-06
1.20212e-06
1.49103e-06
1.46175e-06
1.47919e-06
3.9007e-06
1.70784e-06
7.38665e-06
3.94935e-06
3.98081e-06
6.79519e-06
5.4092e-06
4.46526e-06
1.83103e-06
1.1824e-05
1.20217e-05
1.12617e-05
1.11e-05
1.18197e-05
1.09986e-05
3.61452e-06
2.58665e-06
1.59073e-06
6.34099e-06
2.42775e-06
7.1685e-06
1.1733e-05
6.98507e-06
3.54706e-06
1.84796e-06
1.13393e-05
8.89338e-06
5.47862e-06
1.14654e-05
1.1819e-05
1.18173e-05
8.10163e-06
1.16793e-05
1.04218e-06
1.08541e-06
1.0729e-06
1.09357e-06
1.17596e-05
1.18183e-05
1.13557e-05
1.18309e-05
1.15779e-05
1.17945e-05
1.15789e-05
5.13989e-06
8.62733e-06
5.82034e-06
3.78556e-06
3.81477e-06
3.75971e-06
4.29089e-06
7.08193e-06
3.49974e-06
6.81912e-06
7.47254e-06
2.60196e-06
1.61777e-06
1.39587e-06
1.17872e-05
1.16152e-05
1.11085e-05
1.18091e-05
1.17528e-05
9.42142e-06
1.12317e-05
1.17662e-05
3.77855e-06
6.25716e-06
7.10072e-06
2.7747e-06
2.64935e-06
1.11508e-06
1.17948e-05
1.13962e-05
1.15514e-05
1.18363e-05
1.19155e-05
1.18045e-05
1.18162e-05
1.12318e-05
7.5689e-06
1.17931e-05
7.69822e-06
1.1814e-05
1.15566e-05
1.17957e-05
1.1834e-05
1.15487e-05
1.1831e-05
1.183e-05
1.17508e-05
1.14867e-05
1.18164e-05
1.12437e-05
1.17878e-05
1.19562e-05
1.18163e-05
1.17802e-05
1.18062e-05
1.18224e-05
1.18211e-05
1.15275e-05
8.05483e-06
1.12384e-05
1.17976e-05
1.11934e-05
1.12536e-05
1.18191e-05
1.15209e-05
1.1664e-05
8.10042e-06
1.02944e-05
1.19249e-05
1.18495e-05
1.16321e-05
1.1815e-05
1.16608e-05
1.18069e-05
1.18149e-05
1.18131e-05
1.15649e-05
1.16114e-05
1.11906e-05
7.99009e-07
8.24423e-07
8.38375e-07
8.33657e-07
1.13406e-05
1.17796e-05
1.16462e-05
1.89265e-06
1.17897e-05
8.80496e-06
1.19165e-05
1.18305e-05
1.15017e-05
1.18177e-05
1.1816e-05
1.15421e-05
1.18041e-05
3.22388e-06
1.15667e-05
1.18116e-05
1.18171e-05
1.11217e-05
1.14441e-05
1.18233e-05
1.16587e-05
1.12595e-05
1.18035e-05
1.18222e-05
1.15406e-05
1.17822e-05
1.18287e-05
1.18099e-05
1.14461e-05
1.17937e-05
1.18241e-05
1.18049e-05
1.11927e-05
1.17229e-05
1.15956e-05
1.13475e-05
1.72749e-06
1.70597e-06
1.74117e-06
8.3828e-06
1.18132e-05
1.18148e-05
1.18075e-05
1.18076e-05
1.20009e-05
1.18001e-05
1.10946e-05
1.16879e-05
1.17983e-05
1.18265e-05
1.18845e-05
1.18038e-05
1.18119e-05
8.85295e-06
1.18215e-05
1.12594e-05
1.18307e-05
1.13472e-05
1.09027e-05
1.18252e-05
1.17788e-05
1.14984e-05
1.18295e-05
1.18181e-05
1.18158e-05
1.14768e-05
1.18209e-05
9.35226e-06
1.17814e-05
1.18173e-05
1.18911e-05
1.18182e-05
1.18226e-05
1.17641e-05
1.18095e-05
1.14784e-05
1.18354e-05
1.18084e-05
1.18075e-05
1.1655e-05
1.17865e-05
1.18145e-05
1.19438e-05
1.14806e-05
1.1061e-05
1.15954e-05
1.15698e-05
1.18053e-05
1.18664e-05
1.17969e-05
1.17883e-05
1.17484e-05
2.30315e-07
1.84936e-07
2.3462e-07
2.38648e-07
2.3881e-07
1.18144e-05
1.18193e-05
1.18055e-05
1.19362e-05
1.17982e-05
1.18007e-05
1.18224e-05
1.15805e-05
1.17208e-05
1.18099e-05
1.18198e-05
1.18083e-05
1.20849e-05
1.17897e-05
1.1477e-05
1.18317e-05
1.18515e-05
1.19063e-05
8.29264e-06
1.18046e-05
1.18927e-05
1.1808e-05
9.02117e-06
1.17812e-05
1.18276e-05
1.03031e-05
1.14312e-05
1.07771e-05
1.15071e-05
1.08813e-05
1.14829e-05
1.19384e-05
1.1815e-05
1.16069e-05
1.18063e-05
1.16229e-05
1.01833e-05
1.17743e-05
1.18433e-05
1.18166e-05
1.11804e-05
1.1957e-05
1.18022e-05
1.18238e-05
1.12472e-05
1.15064e-05
1.17854e-05
1.1302e-05
1.18247e-05
1.16329e-05
1.20329e-05
1.17373e-05
8.9628e-06
1.18116e-05
1.15921e-05
1.13925e-05
1.11832e-05
1.17916e-05
1.09128e-05
1.18008e-05
1.21063e-05
1.15334e-05
1.18025e-05
1.18231e-05
7.5268e-06
1.18164e-05
1.17684e-05
1.18322e-05
1.182e-05
1.17838e-05
9.36696e-06
1.19193e-05
1.18167e-05
1.1806e-05
1.18109e-05
1.18285e-05
9.07035e-06
1.18e-05
1.18067e-05
1.18142e-05
8.46546e-06
1.18075e-05
1.18171e-05
1.18169e-05
1.18175e-05
1.20181e-05
1.1724e-05
1.18164e-05
1.18015e-05
1.1834e-05
9.00303e-06
1.20685e-05
1.17848e-05
1.18172e-05
1.15326e-05
1.14837e-05
1.18078e-05
1.20908e-05
1.10213e-05
1.14835e-05
7.93574e-06
8.88855e-06
1.18108e-05
1.18095e-05
6.37993e-07
1.17976e-05
8.41776e-06
1.18135e-05
1.1821e-05
7.91572e-06
7.44358e-06
6.77066e-06
6.95869e-06
7.83643e-06
6.7409e-06
5.69193e-06
4.44598e-06
7.76252e-06
2.92669e-06
2.44028e-06
2.81072e-06
3.53646e-06
3.56436e-06
8.04053e-06
4.09427e-06
2.95004e-06
6.51923e-06
7.37003e-06
3.90999e-06
5.66065e-06
4.71887e-06
4.69837e-06
8.86266e-06
7.59965e-06
2.72056e-06
7.33466e-06
4.41719e-06
6.26028e-06
2.47131e-06
6.22068e-06
5.56317e-06
1.84197e-06
4.3511e-06
6.10766e-06
6.25026e-06
2.39067e-06
8.06769e-06
2.30811e-06
6.24516e-06
2.5117e-06
2.47437e-06
6.55078e-06
6.92666e-06
2.49564e-06
3.41414e-06
3.4425e-06
7.50818e-06
5.81028e-06
7.46907e-06
6.29148e-06
7.78813e-06
3.53847e-06
5.71497e-06
3.1543e-06
1.90201e-06
5.90263e-06
5.09617e-06
6.70859e-06
3.42008e-06
3.11094e-06
8.31398e-06
5.65572e-06
3.81633e-06
4.29332e-06
3.59952e-06
7.54697e-06
1.71848e-06
3.08455e-06
2.27793e-06
4.54979e-06
5.86119e-06
4.86623e-06
7.91126e-06
4.61207e-06
8.65001e-06
1.11836e-06
4.65277e-06
8.43886e-06
4.88201e-06
2.58292e-06
2.5109e-06
2.53269e-06
8.1433e-06
7.62149e-06
3.51982e-06
7.77835e-06
2.78272e-06
8.39094e-06
3.70979e-06
3.81167e-06
3.24308e-06
2.30608e-06
2.8377e-06
2.39138e-06
3.84926e-06
2.80317e-06
6.14689e-06
2.5455e-06
1.49414e-06
3.34149e-06
6.96207e-06
8.1799e-06
3.235e-06
1.22569e-06
3.22876e-06
7.0716e-06
6.13892e-06
6.55121e-06
4.02761e-06
4.93554e-06
6.41651e-06
1.64102e-06
3.58311e-06
4.19099e-06
4.49489e-06
6.25195e-06
2.84777e-06
4.02744e-06
2.05029e-06
2.31121e-06
6.49082e-06
4.26843e-06
2.01592e-06
1.31632e-06
7.00547e-06
6.36596e-06
6.32625e-06
1.53283e-06
4.63488e-06
1.76619e-06
6.69486e-06
3.65705e-06
7.46963e-06
1.49117e-06
6.65016e-06
2.85655e-06
6.83233e-06
5.95062e-06
7.08057e-06
5.99382e-06
6.35255e-06
6.20968e-06
2.45727e-06
4.84398e-06
3.38065e-06
8.41497e-06
2.25421e-06
6.41156e-06
2.58413e-06
6.25498e-06
4.73856e-06
2.90371e-06
5.82126e-06
2.55809e-06
4.93133e-06
4.51271e-06
4.49435e-06
5.80493e-06
4.18891e-06
3.46119e-06
1.85441e-06
3.15474e-06
5.85314e-06
7.22181e-06
4.62657e-06
4.34515e-06
6.36662e-06
1.64648e-06
6.10972e-06
2.87964e-06
8.57956e-06
6.69537e-06
9.9374e-06
1.14504e-05
1.3596e-06
7.06372e-06
3.39189e-06
6.0685e-06
6.64654e-06
1.20641e-05
7.91226e-06
6.47349e-06
2.1808e-06
3.61766e-06
4.91721e-06
9.21856e-06
9.75941e-06
7.46537e-06
3.42002e-06
3.24906e-06
4.89458e-06
1.96574e-06
3.21454e-06
3.22801e-06
3.57768e-06
3.0859e-06
7.1558e-06
7.2485e-06
9.28056e-06
8.09978e-06
1.52428e-06
7.89235e-06
2.2099e-06
7.45259e-06
5.49838e-06
6.96854e-06
6.4393e-06
7.01295e-06
2.186e-06
2.9432e-06
2.87584e-06
3.889e-06
7.80194e-06
3.18716e-06
2.14496e-06
9.29012e-06
6.10957e-06
4.33342e-06
2.23005e-06
2.23535e-06
4.41538e-06
4.41437e-06
3.18185e-06
2.59483e-06
7.65057e-06
5.98765e-06
8.76172e-06
1.99916e-06
4.38056e-06
2.32592e-06
4.17936e-06
2.47102e-06
8.78289e-06
4.20777e-06
3.70449e-06
6.37331e-06
4.4949e-06
6.58243e-06
2.72313e-06
1.33032e-06
1.4004e-06
4.7401e-06
7.60077e-06
5.95864e-06
6.48694e-06
2.73064e-06
6.50476e-06
6.07822e-06
4.45753e-06
3.73847e-06
6.26184e-06
5.9359e-06
4.33887e-06
1.65278e-06
3.35359e-06
6.05924e-06
3.15397e-06
4.58512e-06
2.07095e-06
3.31899e-06
7.13959e-06
5.61845e-06
6.95867e-06
3.0652e-06
1.31505e-06
2.71913e-06
4.65531e-06
9.08193e-06
2.28069e-06
3.05352e-06
5.8271e-06
3.41247e-06
6.68264e-06
3.64724e-06
5.76085e-06
2.89509e-06
8.19326e-06
1.55096e-06
2.71233e-06
3.87472e-06
6.63149e-06
4.47529e-06
2.95625e-06
2.92038e-06
3.32687e-06
8.37738e-06