/*--------------------------------*- C++ -*----------------------------------*\
  =========                 |
  \\      /  F ield         | OpenFOAM: The Open Source CFD Toolbox
   \\    /   O peration     | Website:  https://openfoam.org
    \\  /    A nd           | Version:  8
     \\/     M anipulation  |
\*---------------------------------------------------------------------------*/
FoamFile
{
    version     2.0;
    format      ascii;
    class       volScalarField;
    location    "3.6";
    object      p;
}
// * * * * * * * * * * * * * * * * * * * * * * * * * * * * * * * * * * * * * //

dimensions      [0 2 -2 0 0 0 0];

internalField   nonuniform List<scalar> 
5490
(
6.44325e-06
6.9126e-06
5.47155e-06
6.55983e-06
1.04313e-06
1.14041e-05
1.18529e-05
1.18125e-05
4.56726e-06
1.17884e-05
5.08107e-06
4.85062e-06
3.94991e-06
4.51781e-06
4.43119e-06
1.18104e-05
1.18559e-05
1.1495e-05
6.4174e-06
4.70207e-06
3.4414e-06
1.18531e-05
1.15704e-05
1.18528e-05
3.34195e-06
3.5779e-06
4.0678e-06
6.3248e-06
1.11764e-05
2.28638e-06
6.08058e-06
1.18424e-05
9.30269e-06
7.99392e-06
2.76422e-06
6.01654e-06
1.11024e-05
6.3975e-06
1.4998e-06
3.14014e-06
6.1937e-06
1.11264e-05
5.34199e-06
1.11707e-05
1.18376e-05
7.98302e-06
2.1563e-06
1.62719e-06
6.42138e-06
1.0179e-05
1.17742e-05
2.4139e-06
2.8777e-06
1.26536e-06
3.83011e-06
8.01933e-06
1.07674e-05
1.21405e-05
4.53364e-06
2.38815e-06
1.11536e-05
5.41165e-07
7.54618e-06
1.18242e-05
1.18542e-05
1.16779e-05
1.17863e-05
1.10949e-05
1.93803e-06
1.18458e-05
1.5309e-06
3.25757e-06
1.17918e-05
1.18297e-05
1.17555e-05
2.8152e-06
1.1452e-05
5.04383e-07
6.75722e-06
5.42e-06
1.11434e-05
1.03222e-05
1.13138e-05
6.53449e-06
1.0157e-06
7.36589e-06
1.14658e-05
1.14186e-05
3.02194e-06
1.10856e-05
1.1821e-05
1.13391e-05
1.32788e-06
1.1884e-05
6.2086e-06
1.18167e-05
4.77542e-06
1.13116e-05
1.11829e-05
3.76467e-06
4.6492e-06
2.90555e-06
8.15641e-06
1.18319e-05
8.16436e-06
7.77011e-06
2.87925e-06
1.09218e-05
1.18344e-05
1.18444e-05
1.18388e-05
1.18171e-05
1.17192e-05
8.05886e-06
5.65052e-06
1.11434e-05
6.77928e-06
1.1684e-05
1.16389e-05
2.49873e-06
8.24922e-06
9.34149e-06
1.12489e-05
6.64918e-06
1.18234e-05
1.17448e-05
4.41264e-06
7.47133e-07
1.18435e-05
4.27588e-06
1.17643e-05
1.11007e-05
3.58604e-06
5.28952e-06
1.76137e-06
1.18368e-05
1.20953e-05
1.17887e-05
1.17674e-05
7.87056e-06
1.18333e-05
1.18646e-05
3.37904e-06
1.10168e-05
1.18284e-05
1.18287e-05
1.35501e-08
1.1833e-05
2.57263e-06
1.12633e-05
1.18452e-05
1.18416e-05
4.76685e-06
1.1866e-05
1.09675e-05
1.18567e-05
1.18466e-05
1.17287e-05
1.18318e-05
4.3465e-06
5.61047e-06
1.07347e-05
1.09732e-05
1.16997e-05
1.1821e-05
1.15974e-05
1.18382e-05
4.50785e-07
1.13975e-05
2.54063e-07
1.20976e-05
8.39853e-07
3.58661e-06
1.18421e-05
4.89817e-06
2.09067e-06
2.71251e-06
1.18652e-05
3.48537e-06
4.33353e-06
1.1811e-05
1.18345e-05
6.84538e-06
6.27255e-06
1.18577e-05
1.80101e-06
2.51995e-06
1.18451e-06
1.18429e-05
1.18e-05
1.21246e-05
1.66044e-06
6.67622e-06
1.1842e-05
1.17655e-05
5.77127e-06
8.03048e-06
1.18578e-05
1.12985e-05
2.534e-06
1.17316e-05
7.77814e-06
1.18603e-05
1.1838e-05
9.96104e-06
1.23235e-05
1.18381e-05
1.17125e-05
5.22841e-06
1.13357e-05
1.19204e-05
1.18449e-05
6.20709e-06
5.94889e-06
5.59692e-06
7.97836e-06
5.53495e-06
5.21586e-06
1.2086e-05
1.18563e-05
1.15484e-05
1.18408e-05
1.05503e-05
3.7099e-06
3.55012e-06
9.33441e-07
2.77994e-06
2.77403e-06
1.40025e-06
1.18536e-05
1.23134e-06
1.10957e-05
1.18426e-05
1.17821e-05
7.72026e-06
1.08747e-05
1.17452e-05
1.18437e-05
1.18598e-05
4.19082e-06
1.18585e-05
5.74612e-06
2.92586e-07
2.40084e-06
1.18633e-05
1.15553e-05
1.12159e-05
8.94527e-06
1.10406e-05
1.18344e-05
1.186e-05
9.59958e-06
1.18265e-05
1.10912e-05
2.25968e-06
7.82404e-06
9.09431e-06
2.91952e-06
4.82159e-06
1.17286e-05
1.11132e-05
6.67269e-06
6.80512e-06
1.20762e-05
1.18405e-05
1.14329e-05
8.23501e-06
1.10605e-05
1.18455e-05
1.18083e-05
1.18353e-05
5.57455e-06
1.1845e-05
1.16825e-05
9.56414e-06
1.18407e-05
1.18226e-05
1.44452e-06
6.29102e-06
8.23263e-06
1.18582e-05
1.18424e-05
1.18605e-05
1.09499e-05
4.98432e-06
1.17959e-05
1.09334e-05
1.18404e-05
1.07358e-05
4.61294e-06
9.59273e-07
1.10985e-05
1.13687e-05
8.32982e-06
4.34519e-06
1.15002e-05
1.1817e-05
1.18404e-05
1.01559e-06
1.12063e-05
7.07819e-06
1.17394e-05
6.5236e-06
1.12742e-05
3.9368e-06
1.36959e-06
1.2085e-05
1.17921e-05
7.15994e-06
1.62993e-06
3.48555e-06
1.15421e-05
1.12735e-05
7.57085e-06
4.75804e-06
7.96648e-06
1.7403e-07
1.1836e-05
1.01647e-05
1.18642e-05
1.18144e-05
2.70747e-06
4.15061e-06
1.17839e-05
1.1789e-05
1.53882e-06
7.91677e-07
3.99418e-06
1.15083e-05
6.19824e-06
7.6704e-06
1.18382e-05
1.18424e-05
1.09325e-05
5.91509e-06
2.06514e-06
1.18643e-05
4.62998e-06
1.18626e-05
1.17197e-05
1.19288e-05
1.18045e-05
6.97668e-06
7.69644e-06
4.8795e-06
1.3781e-06
1.45004e-06
1.18471e-05
7.00839e-06
1.17839e-06
1.18663e-05
7.23942e-06
2.63997e-06
2.7759e-06
4.46986e-06
1.18381e-05
5.2072e-06
8.35566e-06
1.18965e-05
6.5273e-06
7.13152e-06
4.03595e-06
1.18557e-05
1.17881e-06
1.6703e-06
6.98282e-07
1.09508e-06
1.18096e-05
1.18595e-05
8.01156e-06
1.45334e-06
2.66875e-06
2.64058e-06
1.18381e-05
1.04742e-05
1.18385e-05
1.18668e-05
3.65151e-06
1.17925e-05
1.12855e-05
1.45525e-06
2.74208e-06
7.51169e-06
7.94625e-06
9.38471e-06
4.12513e-06
4.83577e-06
3.23646e-06
3.72467e-06
1.18405e-05
1.10341e-05
4.28552e-06
1.18167e-05
7.44573e-07
3.52199e-06
3.50884e-06
3.51902e-06
1.18355e-05
1.81247e-06
2.67878e-06
1.18583e-05
1.05198e-05
1.03987e-06
1.14253e-05
4.03381e-06
1.1845e-05
1.18603e-05
1.18416e-05
1.18297e-05
2.3771e-06
8.43285e-06
1.18567e-05
6.53733e-06
1.01513e-05
5.16243e-06
3.52091e-06
2.86767e-06
1.18504e-05
1.18636e-05
7.52119e-06
2.54486e-06
7.89893e-06
8.87217e-06
4.58914e-06
1.1036e-05
1.1559e-05
4.39729e-06
1.1837e-05
1.31206e-06
1.18442e-05
5.03398e-06
5.02944e-06
5.02498e-06
5.15667e-07
1.15721e-05
1.18427e-05
1.17538e-05
1.09984e-05
3.76688e-06
1.57168e-06
8.47434e-06
6.0368e-06
1.42096e-06
1.13921e-05
6.64801e-06
1.17967e-05
7.93595e-06
1.18321e-05
1.18442e-05
1.14236e-05
5.91037e-06
1.17479e-05
5.03257e-06
4.36551e-06
5.9036e-06
5.90317e-06
1.18254e-05
1.18407e-05
6.79556e-06
6.54553e-06
6.80466e-06
1.36384e-06
7.81168e-06
8.69847e-06
1.15667e-05
8.01181e-06
5.74226e-06
1.15257e-05
7.40861e-06
1.00081e-05
8.10802e-06
5.9063e-06
5.26389e-06
4.69442e-06
1.08708e-07
1.12379e-05
1.14431e-05
8.35261e-06
8.37807e-06
1.18311e-05
1.18275e-05
7.9739e-06
7.31779e-06
1.07818e-07
6.1513e-06
1.37024e-06
1.19499e-05
8.04075e-06
6.70497e-06
3.21843e-07
4.17308e-06
7.53432e-07
6.93923e-06
1.18071e-05
1.11004e-05
1.18312e-05
1.18053e-05
1.18447e-05
1.61829e-06
1.13735e-06
1.54226e-06
1.52262e-06
1.1846e-05
1.18403e-05
1.1692e-05
6.90949e-06
3.005e-06
7.3016e-06
1.08136e-05
1.13024e-05
1.15698e-05
1.117e-05
1.18325e-05
1.18195e-05
1.18318e-05
1.18454e-05
1.1099e-05
1.34753e-06
7.04647e-06
1.15569e-05
1.14002e-05
1.18337e-05
1.10832e-05
1.10816e-05
1.18465e-05
1.18065e-05
1.81432e-06
1.15519e-05
1.181e-05
7.35433e-07
1.18592e-05
1.75837e-06
1.20953e-05
1.20754e-05
7.65406e-06
9.91646e-06
1.18378e-05
1.10849e-05
1.18509e-05
4.08068e-06
1.17328e-05
1.1094e-05
1.16924e-05
1.02857e-05
1.18277e-05
1.18095e-05
1.09093e-05
1.09366e-05
1.16535e-05
1.18443e-05
6.19375e-06
9.40266e-06
7.12848e-07
1.16534e-05
1.18087e-05
1.91862e-06
1.15044e-05
1.18101e-05
6.45434e-07
1.18299e-05
1.18664e-05
1.18299e-05
1.18455e-05
1.17912e-05
1.08606e-05
9.12527e-06
1.15518e-05
8.88084e-06
1.91823e-06
1.17752e-05
6.19382e-07
1.09217e-05
1.18478e-05
1.1724e-05
1.18412e-05
1.18589e-05
1.15246e-05
8.51477e-06
1.03352e-05
2.34849e-06
1.18441e-05
1.12062e-05
1.11071e-05
1.46183e-06
8.34759e-06
1.11666e-06
1.05217e-05
1.18316e-05
1.17867e-05
1.18348e-05
1.14771e-05
1.16987e-05
1.18441e-05
1.1446e-05
1.1832e-05
1.18177e-05
1.17424e-05
1.18649e-05
1.18257e-05
1.18008e-05
1.27654e-06
2.95378e-06
1.13561e-05
1.18637e-05
6.29273e-06
1.51612e-06
4.80558e-06
1.15807e-05
1.69703e-06
7.93127e-06
1.18273e-05
1.18137e-05
1.10195e-05
5.0026e-06
5.83815e-06
1.50097e-06
1.17431e-05
1.11158e-05
1.18395e-05
9.04499e-06
1.20527e-05
1.57699e-06
1.45547e-06
2.45362e-06
2.12058e-07
1.18391e-05
1.18077e-05
5.87654e-06
1.15821e-05
1.08259e-05
1.1828e-05
1.1005e-05
1.17427e-05
9.98162e-06
1.11889e-05
2.26102e-06
8.78535e-06
1.68892e-06
1.10113e-05
1.19744e-05
1.19838e-05
1.11624e-05
1.18445e-05
1.18285e-05
1.1277e-05
1.2317e-06
8.52389e-06
1.19499e-05
1.15249e-05
3.33793e-06
9.70917e-06
1.13874e-05
8.14099e-06
1.18653e-05
1.17987e-05
1.14518e-05
1.18463e-05
1.15004e-05
1.1007e-05
1.09607e-05
1.1097e-05
8.56375e-06
1.08861e-05
1.18296e-05
2.14201e-06
1.20706e-05
7.08004e-06
9.57686e-06
1.11454e-05
1.16732e-05
1.18084e-05
1.20295e-05
1.1321e-05
1.16927e-05
1.14277e-05
1.09787e-05
1.15189e-05
4.8707e-06
1.13735e-05
1.11584e-05
1.18096e-05
1.09272e-05
7.74157e-06
8.4477e-06
8.09035e-06
1.20365e-05
1.1832e-05
1.176e-05
1.18437e-05
1.67377e-06
1.10076e-05
1.18464e-05
4.16032e-06
8.3311e-06
1.1794e-05
1.18238e-05
1.10599e-05
1.184e-05
8.90861e-06
1.09252e-05
1.11324e-05
3.70734e-06
8.93146e-06
1.10712e-05
5.74267e-06
1.18394e-05
1.14633e-05
1.10667e-05
1.111e-05
8.61139e-06
1.1307e-05
1.11087e-05
1.13949e-05
1.19395e-05
1.18367e-05
1.18162e-05
1.18417e-05
8.88551e-06
8.78366e-06
1.10292e-05
1.18016e-05
8.4036e-06
4.52236e-06
1.16908e-05
1.93401e-06
1.14174e-05
1.18432e-05
7.95387e-06
8.13172e-06
8.01133e-06
1.18177e-05
1.08784e-05
1.08208e-05
1.10986e-05
1.12434e-05
1.18259e-05
1.14886e-05
1.11053e-05
7.84298e-06
1.1844e-05
1.11251e-05
9.859e-06
6.67468e-06
1.02321e-05
4.66046e-06
1.16794e-05
1.1202e-05
1.18441e-05
1.10998e-05
1.20527e-05
1.1562e-05
9.1443e-07
1.15849e-05
1.18161e-05
1.17205e-05
8.51733e-06
1.15363e-05
1.18425e-05
1.10871e-05
1.10369e-05
1.14034e-05
1.18327e-05
8.56961e-06
1.18369e-05
3.88658e-06
1.18462e-05
1.18368e-05
8.69247e-06
4.39241e-06
4.87536e-06
1.1905e-05
8.47015e-06
1.13104e-05
8.83959e-06
1.14377e-05
1.12466e-05
1.16943e-05
1.57961e-06
1.13308e-05
1.18459e-05
4.51019e-06
1.15538e-05
9.97955e-06
1.11801e-05
7.64035e-06
8.71736e-06
1.10385e-05
1.18441e-05
1.18212e-05
1.13571e-05
1.1517e-05
1.16749e-05
8.70734e-06
7.83081e-06
1.11216e-05
1.13553e-05
6.75704e-06
1.14768e-05
1.18229e-05
1.17087e-05
5.99623e-07
1.13117e-05
1.13471e-05
7.61678e-06
1.15837e-05
1.18263e-05
1.18514e-05
1.14151e-05
7.88941e-06
1.17972e-05
1.15379e-05
1.1788e-05
8.69086e-06
1.18079e-05
9.16779e-06
1.143e-05
1.13887e-05
1.18391e-05
3.10447e-06
8.45928e-06
7.32548e-07
4.93253e-06
1.15402e-05
7.80428e-06
1.18208e-05
1.10087e-05
4.73207e-06
2.06997e-06
1.20819e-05
1.15814e-05
1.1852e-05
1.16291e-05
4.26933e-06
8.9168e-06
9.7583e-06
1.18505e-05
1.1846e-05
1.14972e-05
1.19966e-05
1.18237e-05
3.4032e-06
1.14305e-05
2.89925e-06
9.36065e-06
1.11717e-05
8.80195e-06
1.10905e-05
1.18413e-05
1.15055e-05
1.08656e-05
2.67196e-06
2.62808e-06
1.13502e-05
1.1492e-05
1.17682e-05
1.18351e-05
1.17199e-05
1.18286e-05
1.16777e-05
8.37067e-06
1.19209e-05
1.18417e-05
2.01963e-06
3.78175e-06
1.12612e-05
1.14554e-05
1.04202e-06
1.18521e-05
1.17286e-05
7.74635e-06
1.1807e-05
9.61043e-06
1.13672e-05
9.75744e-06
1.16926e-05
1.18243e-05
4.00845e-06
9.21316e-06
1.13917e-05
4.40838e-06
1.16492e-05
1.02117e-05
8.56881e-06
8.88103e-06
1.17279e-05
1.17151e-05
1.10354e-05
1.16635e-05
1.15755e-05
8.04516e-06
1.18458e-05
1.18344e-05
1.1345e-05
1.11327e-06
5.29266e-06
7.69095e-06
7.76473e-07
1.16046e-05
1.18211e-05
9.21725e-06
8.92075e-06
1.14542e-05
1.07884e-05
1.17117e-05
1.17926e-05
1.13636e-05
1.15894e-05
9.52747e-06
1.41663e-06
1.18259e-05
8.21482e-06
1.18307e-05
8.2315e-06
8.30243e-06
1.17529e-05
1.15631e-05
1.15444e-05
1.1862e-05
1.15242e-05
1.18361e-05
1.17348e-05
1.17349e-05
1.11408e-05
8.75572e-07
1.18224e-05
1.20088e-05
1.18406e-05
1.04222e-05
1.19326e-05
7.82592e-06
7.66338e-06
1.17872e-05
1.14971e-05
1.16163e-05
1.15288e-05
1.17653e-05
9.79552e-06
1.18137e-05
1.19185e-05
1.18275e-05
1.1855e-05
1.17429e-05
1.18251e-05
1.13404e-05
1.18127e-05
1.20018e-05
1.17875e-05
9.2023e-06
8.4283e-06
1.16934e-05
1.20773e-05
1.18501e-05
1.17369e-05
1.18249e-05
1.18249e-05
1.16984e-05
1.20448e-05
1.18611e-05
9.08101e-06
1.1843e-05
8.78117e-06
1.1806e-05
1.18618e-05
1.16876e-05
1.17501e-05
1.12068e-05
1.19235e-05
8.62963e-06
1.15888e-05
1.14039e-05
1.17274e-05
1.10612e-05
1.1989e-05
1.1964e-05
1.18011e-05
8.67133e-06
8.94691e-06
1.13964e-05
1.123e-05
1.18505e-05
1.15988e-05
9.54919e-06
8.15472e-06
1.17389e-05
1.17894e-05
1.79042e-06
1.02799e-05
1.1699e-05
1.18198e-05
9.326e-06
1.16124e-05
8.29449e-06
1.18226e-05
1.18199e-05
1.18184e-05
8.50702e-06
1.18844e-05
1.18339e-05
1.18385e-05
1.16395e-05
8.55744e-06
1.17132e-05
1.18153e-05
7.28785e-07
8.92939e-06
2.74311e-06
1.1854e-05
1.18571e-05
1.18239e-05
1.18317e-05
1.1767e-05
1.18307e-05
1.11537e-05
1.14044e-05
1.18124e-05
1.16564e-05
8.30491e-06
1.15423e-05
1.16585e-05
1.18243e-05
1.1788e-06
1.18073e-05
1.18169e-05
1.18036e-05
1.19972e-05
1.17002e-05
1.18273e-05
1.17478e-05
1.95078e-06
1.18239e-05
1.22214e-05
1.18303e-05
1.18435e-05
1.18416e-05
1.18205e-05
3.90322e-06
1.17764e-05
1.13306e-05
8.7894e-06
1.20858e-05
1.18136e-05
1.1849e-05
1.17194e-05
1.16087e-05
1.18181e-05
1.18438e-05
1.18267e-05
1.18532e-05
1.16866e-05
9.09612e-06
1.18367e-05
1.18202e-05
1.18231e-05
1.15612e-05
1.18054e-05
1.18081e-05
1.18334e-05
1.18399e-05
1.18837e-05
1.18163e-05
1.11271e-05
9.14346e-06
1.18294e-05
1.19793e-05
1.17664e-05
8.49646e-06
1.17991e-05
1.18247e-05
1.18344e-05
1.18461e-05
1.18343e-05
1.16742e-05
1.18252e-05
1.17279e-05
1.17811e-05
6.63907e-06
1.21742e-05
1.17966e-05
8.02676e-06
1.17759e-05
1.11709e-05
1.18332e-05
1.17829e-05
1.18253e-05
9.99577e-06
1.18439e-05
1.18436e-05
1.18254e-05
6.81778e-06
1.1831e-05
1.18447e-05
8.52373e-06
1.18126e-05
1.18288e-05
1.18229e-05
1.17996e-05
1.18131e-05
1.18436e-05
1.17172e-05
1.18267e-05
1.16496e-05
4.79111e-06
7.97181e-06
1.18373e-05
1.18358e-05
1.18245e-05
1.1832e-05
4.14825e-06
1.16567e-05
1.18711e-05
1.1599e-05
1.18399e-05
8.07581e-06
1.18386e-05
1.18321e-05
1.17445e-05
1.18503e-05
1.11368e-05
1.18459e-05
1.16212e-05
7.38452e-06
3.27414e-06
1.18303e-05
1.17866e-05
1.18182e-05
1.18195e-05
1.18538e-05
6.41197e-06
1.17377e-05
1.18204e-05
8.07935e-06
1.17746e-05
1.18192e-05
1.1892e-05
1.17949e-05
1.18298e-05
1.17934e-05
2.4975e-06
1.18393e-05
1.20489e-05
9.20659e-06
1.10183e-05
8.33015e-06
7.62245e-06
1.18504e-05
1.18274e-05
1.18278e-05
1.18523e-05
1.1815e-05
8.92728e-06
7.17216e-06
1.19426e-05
1.18274e-05
1.18377e-05
8.16388e-06
1.18258e-05
1.18172e-05
1.17842e-05
1.18268e-05
1.18445e-05
1.18472e-05
1.18343e-05
1.18456e-05
1.22026e-05
8.65074e-06
1.20013e-05
1.18274e-05
8.67306e-06
1.1826e-05
1.19699e-05
1.18529e-05
1.2002e-05
1.18387e-05
6.14694e-06
1.17928e-05
1.18505e-05
1.18287e-05
1.19327e-05
1.19691e-05
8.03352e-06
1.18273e-05
1.18651e-05
1.19447e-05
1.21912e-05
1.18321e-05
1.18465e-05
1.18424e-05
1.18437e-05
1.18289e-05
1.18465e-05
1.18462e-05
8.35008e-06
9.20777e-06
1.18484e-05
8.87772e-06
1.17738e-05
1.18209e-05
1.18291e-05
1.18492e-05
8.96161e-06
5.12778e-06
1.18348e-05
1.19586e-05
1.18238e-05
1.17958e-05
1.18569e-05
1.18449e-05
1.18135e-05
8.06801e-06
1.17891e-05
1.18281e-05
1.17443e-05
8.5636e-06
1.1845e-05
8.52722e-06
1.18883e-05
1.19664e-05
1.18265e-05
1.18245e-05
1.18505e-05
1.18167e-05
1.18384e-05
1.18239e-05
1.17993e-05
1.18219e-05
1.18304e-05
1.1791e-05
1.18283e-05
9.11067e-06
1.18333e-05
1.18447e-05
1.18163e-05
1.18129e-05
1.18253e-05
1.18301e-05
1.18225e-05
1.18467e-05
2.50797e-06
1.18226e-05
1.18275e-05
1.18071e-05
1.18177e-05
1.18531e-05
1.17797e-05
1.19558e-05
8.17521e-06
1.1839e-05
1.18132e-05
1.18489e-05
8.67002e-06
1.18305e-05
1.1812e-05
-2.22916e-08
1.1841e-05
1.19337e-05
1.18037e-05
1.18021e-05
1.18509e-05
3.39347e-06
6.27284e-06
1.2019e-05
1.17679e-05
1.20344e-05
7.85042e-06
1.17862e-05
4.39789e-06
1.1813e-05
1.17534e-05
1.18306e-05
1.18536e-05
7.92599e-06
1.19577e-05
8.44219e-06
1.17847e-05
8.57908e-06
1.19728e-05
1.18268e-05
1.18255e-05
1.19262e-05
1.18473e-05
1.18335e-05
1.15287e-05
1.17931e-05
1.18217e-05
1.18363e-05
1.11368e-05
1.18485e-05
1.2191e-05
1.18437e-05
1.18466e-05
1.18138e-05
8.12387e-06
1.18281e-05
1.18476e-05
1.18292e-05
1.11858e-05
1.17934e-05
1.1956e-05
8.31491e-06
8.40496e-06
4.90698e-06
1.18359e-05
1.18553e-05
8.29026e-06
1.18016e-05
1.1835e-05
1.17517e-05
1.18346e-05
1.18465e-05
1.18338e-05
1.19985e-05
1.199e-05
1.18469e-05
1.18051e-05
1.18272e-05
1.18355e-05
1.18252e-05
1.18985e-05
1.18019e-05
1.18209e-05
1.1847e-05
8.63004e-06
1.14896e-05
1.19498e-05
1.18827e-05
1.18084e-05
7.09537e-06
5.78503e-06
1.18522e-05
1.18333e-05
1.17923e-05
1.17997e-05
1.18168e-05
8.28448e-06
1.18269e-05
1.18143e-05
8.40331e-06
1.17714e-05
1.1823e-05
1.18511e-05
1.18102e-05
1.18551e-05
1.19028e-05
4.15695e-06
4.17821e-06
1.22255e-05
1.18051e-05
1.18476e-05
1.18376e-05
8.48371e-06
1.1831e-05
1.18194e-05
1.19076e-05
1.1855e-05
1.2143e-05
1.18426e-05
1.18479e-05
3.90753e-06
8.33217e-06
1.31421e-06
1.18456e-05
1.18302e-05
2.52967e-06
1.18159e-05
8.52539e-06
1.1847e-05
7.05245e-06
1.19587e-05
1.18451e-05
1.15739e-05
1.1829e-05
8.66002e-06
8.43225e-06
7.83989e-06
1.18119e-05
1.18512e-05
1.1857e-05
1.1838e-05
1.18262e-05
1.19646e-05
8.64764e-06
1.18483e-05
1.18265e-05
1.18269e-05
1.17986e-05
1.18267e-05
4.27753e-06
1.18216e-05
1.18461e-05
1.18323e-05
1.18393e-05
1.18414e-05
7.87468e-06
1.21764e-05
1.21287e-05
1.18002e-05
1.18561e-05
1.1855e-05
1.18466e-05
1.1842e-05
7.20254e-06
1.17809e-05
1.18227e-05
1.19794e-05
1.18482e-05
1.18347e-05
1.18254e-05
1.14638e-05
1.1836e-05
6.89877e-06
7.49376e-06
1.18452e-05
1.18506e-05
1.1744e-05
1.18212e-05
1.1826e-05
1.18284e-05
1.17942e-05
3.06699e-06
1.18403e-05
1.18437e-05
7.56088e-06
1.18295e-05
7.43611e-06
1.18284e-05
1.13014e-05
1.18256e-05
1.1841e-05
1.18481e-05
8.18252e-06
1.1844e-05
1.18059e-05
1.18273e-05
1.20297e-05
1.18551e-05
1.18304e-05
1.18594e-05
1.18415e-05
7.62781e-06
1.18495e-05
1.18377e-05
1.18372e-05
1.18371e-05
1.18287e-05
1.18249e-05
4.64437e-06
7.44116e-06
1.18215e-05
7.89211e-06
1.18454e-05
1.18418e-05
1.18429e-05
1.18388e-05
1.18393e-05
1.18266e-05
1.19925e-05
1.19227e-05
1.18417e-05
1.18447e-05
1.1966e-05
1.17812e-05
9.32895e-06
1.18553e-05
1.17962e-05
1.1921e-05
1.19471e-05
1.18415e-05
1.18396e-05
1.18514e-05
1.17616e-05
7.68549e-06
1.18481e-05
1.18438e-05
7.80301e-06
1.18428e-05
7.6569e-06
1.1857e-05
1.18442e-05
1.18271e-05
1.18374e-05
1.18146e-05
1.18519e-05
6.02814e-06
1.19948e-05
1.1857e-05
1.18025e-05
1.18244e-05
1.17832e-05
1.18407e-05
1.17531e-05
1.18448e-05
1.18251e-05
1.1848e-05
7.29346e-06
1.1844e-05
1.19142e-05
1.18229e-05
1.18513e-05
7.73402e-06
1.18516e-05
1.18213e-05
1.1927e-05
1.18856e-05
1.17026e-05
7.79618e-06
1.18471e-05
1.18533e-05
1.17245e-05
1.18402e-05
1.1841e-05
1.18461e-05
8.08068e-06
1.18406e-05
1.18242e-05
7.45662e-06
1.18101e-05
1.18453e-05
1.18332e-05
1.18363e-05
1.18093e-05
1.1897e-05
1.19476e-05
7.56473e-06
7.68171e-06
1.16766e-05
1.25666e-06
1.21242e-05
1.18406e-05
1.18256e-05
1.18651e-05
7.78585e-06
1.1898e-05
1.18262e-05
1.18404e-05
1.18264e-05
1.18367e-05
7.8942e-06
8.0993e-06
7.59663e-06
7.40086e-06
7.34637e-06
1.4408e-06
3.38189e-06
1.18452e-05
1.18457e-05
7.31981e-06
7.23664e-06
7.42439e-06
1.18401e-05
1.17932e-05
1.18537e-05
1.18245e-05
1.18389e-05
1.1844e-05
1.18473e-05
1.18513e-05
1.18371e-05
1.18435e-05
1.18386e-05
1.1844e-05
4.89791e-06
1.18398e-05
1.18475e-05
1.18426e-05
1.1845e-05
1.18431e-05
1.18409e-05
7.7775e-06
1.10914e-05
1.18457e-05
1.21182e-05
1.21303e-05
1.18617e-05
7.1084e-06
1.18875e-05
1.18448e-05
5.77701e-06
1.18186e-05
1.18488e-05
7.65954e-06
7.54012e-06
7.80637e-06
7.90837e-06
7.17384e-06
1.18786e-05
1.18325e-05
1.18527e-05
1.1938e-05
1.18445e-05
1.18411e-05
1.18436e-05
7.23917e-06
7.10895e-06
1.19298e-05
1.18546e-05
1.18391e-05
1.18474e-05
1.18518e-05
7.99354e-06
7.38162e-06
7.28848e-06
1.18443e-05
1.18408e-05
1.2103e-05
1.18456e-05
1.20197e-05
1.18234e-05
8.4493e-06
1.18312e-05
1.18525e-05
6.67268e-06
7.21174e-06
7.45503e-06
1.1839e-05
1.11764e-05
1.18376e-05
1.59835e-06
6.97874e-06
8.00697e-06
1.18581e-05
1.18068e-05
7.3309e-06
1.1829e-05
7.52623e-06
1.18265e-05
1.17781e-05
1.18452e-05
7.04565e-06
1.18936e-05
1.17584e-05
1.18504e-05
1.1855e-05
1.18513e-05
6.69108e-06
1.18456e-05
7.55328e-06
1.1849e-05
1.18205e-05
1.19479e-05
7.65807e-06
1.18444e-05
7.10547e-06
1.18312e-05
1.19166e-05
7.46384e-06
1.18347e-05
6.96862e-06
1.18596e-05
6.91589e-06
7.69764e-06
1.18219e-05
1.18481e-05
7.38446e-06
7.5929e-06
7.66896e-06
7.64292e-06
1.18467e-05
1.1793e-05
1.18421e-05
6.84094e-06
1.18263e-05
1.56523e-06
1.18522e-05
7.55724e-06
1.18188e-05
7.3465e-06
7.0415e-06
2.43995e-06
6.97419e-06
6.91831e-06
1.18321e-05
7.6035e-06
7.51201e-06
2.88462e-06
7.08371e-06
7.25448e-06
6.99475e-06
7.60506e-06
1.18337e-05
7.61421e-06
1.18514e-05
7.47743e-06
7.64733e-06
7.47866e-06
5.45489e-06
1.18572e-05
5.57502e-06
6.83285e-06
7.35164e-06
6.27657e-06
7.50933e-06
1.18482e-05
6.1501e-06
6.79396e-06
5.98604e-06
1.18001e-05
7.37123e-06
7.09322e-06
7.41615e-06
7.12847e-06
7.22723e-06
4.16675e-06
4.23904e-06
6.39681e-06
7.67753e-06
7.0406e-06
6.13522e-06
6.95892e-06
7.20894e-06
7.75107e-06
6.66553e-06
6.39734e-06
6.12326e-06
5.86101e-06
7.23355e-06
6.99915e-06
7.23048e-06
1.18573e-05
7.16757e-06
7.28118e-06
6.82961e-06
7.12648e-06
7.31076e-06
6.45549e-06
6.61952e-06
7.38314e-06
7.48121e-06
7.14732e-06
6.88547e-06
6.53032e-06
6.86948e-06
6.18467e-06
6.2588e-06
1.18395e-05
6.9645e-06
3.26264e-06
6.74664e-06
6.69778e-06
6.5638e-06
6.05796e-06
5.7523e-06
1.18428e-05
6.41722e-06
4.76806e-06
6.36133e-06
6.73979e-06
6.65887e-06
6.93364e-06
5.65508e-06
6.49235e-06
6.93064e-06
6.61656e-06
7.00882e-06
7.04789e-06
6.99392e-06
7.75535e-06
6.31781e-06
7.02042e-06
6.71321e-06
6.26696e-06
6.75327e-06
6.41821e-06
6.23487e-06
6.97967e-06
6.76144e-06
6.52885e-06
6.54814e-06
6.62689e-06
6.26723e-06
6.60037e-06
6.59201e-06
6.03646e-06
6.87287e-06
6.11304e-06
6.29689e-06
7.51688e-06
5.93343e-06
6.36507e-06
6.14547e-06
6.80501e-06
6.48137e-06
6.53351e-06
6.31692e-06
1.1837e-05
6.52519e-06
6.42197e-06
6.28539e-06
6.27359e-06
6.14718e-06
6.28954e-06
5.99809e-06
6.71273e-06
6.70149e-06
6.40651e-06
6.04626e-06
6.39543e-06
1.18607e-05
6.29024e-06
7.5332e-06
6.29771e-06
6.17111e-06
5.88665e-06
5.77512e-06
6.39765e-06
6.27638e-06
5.82055e-06
6.24963e-06
6.17769e-06
6.48981e-06
6.18633e-06
6.23417e-06
6.13618e-06
6.03814e-06
5.93666e-06
6.27332e-06
6.16139e-06
6.42236e-06
5.70662e-06
6.21276e-06
6.1952e-06
6.25193e-06
5.54741e-06
5.65071e-06
6.03516e-06
5.58895e-06
5.78657e-06
6.16027e-06
5.9341e-06
6.16345e-06
6.15793e-06
6.02862e-06
6.28537e-06
7.16758e-06
5.56844e-06
6.08112e-06
6.0809e-06
5.6842e-06
5.98181e-06
5.44034e-06
6.08308e-06
5.90394e-06
5.6584e-06
6.37281e-06
5.46743e-06
5.48518e-06
5.87627e-06
5.87005e-06
3.9475e-06
5.61335e-06
5.84417e-06
5.34465e-06
5.60314e-06
5.53515e-06
5.95179e-06
5.6861e-06
5.77466e-06
5.79618e-06
6.03082e-06
5.98194e-06
5.07212e-06
5.2263e-06
5.64046e-06
5.71932e-06
5.79341e-06
6.1654e-06
5.31402e-06
5.17821e-06
5.57129e-06
4.709e-06
5.61708e-06
5.67715e-06
5.47976e-06
5.42634e-06
4.45598e-06
4.82188e-06
4.90818e-06
5.34893e-06
5.56649e-06
5.11523e-06
5.16325e-06
5.48319e-06
5.24573e-06
5.57834e-06
5.20983e-06
5.58568e-06
5.40234e-06
4.96041e-06
5.45806e-06
5.01513e-06
4.84013e-06
4.76395e-06
5.3508e-06
5.34019e-06
5.14431e-06
5.4496e-06
5.33795e-06
5.32422e-06
5.01168e-06
5.40594e-06
4.86973e-06
4.9529e-06
5.43303e-06
4.86459e-06
5.0498e-06
5.30418e-06
4.99621e-06
5.46792e-06
4.58868e-06
5.08921e-06
5.68958e-06
5.25326e-06
5.2988e-06
5.1994e-06
4.76148e-06
5.24606e-06
4.63003e-06
4.83454e-06
4.96576e-06
5.13334e-06
5.38057e-06
5.09025e-06
4.85821e-06
4.75103e-06
5.18221e-06
5.02428e-06
5.15875e-06
7.05901e-06
4.63515e-06
5.01379e-06
1.53152e-06
1.5844e-06
4.99884e-06
4.90599e-06
4.68896e-06
4.65996e-06
5.03944e-06
4.92157e-06
3.85114e-06
4.75049e-06
4.96207e-06
5.10656e-06
4.5102e-06
4.93128e-06
5.50592e-06
4.51024e-06
4.8393e-06
5.22584e-06
4.88144e-06
4.39948e-06
4.78358e-06
4.5701e-06
5.07243e-06
4.87803e-06
4.31023e-06
4.96755e-06
4.7443e-06
4.01174e-06
4.91923e-06
4.21875e-06
4.68026e-06
4.74706e-06
4.53842e-06
4.74121e-06
3.92506e-06
6.69161e-06
4.66729e-06
4.19172e-06
4.53305e-06
4.39351e-06
4.66483e-06
3.92499e-06
4.06425e-06
4.38132e-06
4.06121e-06
4.14571e-06
4.57098e-06
4.45001e-06
4.47869e-06
4.12252e-06
4.47792e-06
4.31807e-06
4.03785e-06
4.68612e-06
4.42731e-06
4.5139e-06
4.39253e-06
3.95343e-06
4.31842e-06
4.39587e-06
4.36114e-06
4.23246e-06
4.54925e-06
4.14039e-06
3.814e-06
4.46607e-06
4.1017e-06
4.22909e-06
4.32978e-06
2.80787e-06
3.88429e-06
4.11735e-06
4.28093e-06
4.15737e-06
4.33048e-06
4.7833e-06
3.27035e-06
4.03005e-06
3.66794e-06
3.78517e-06
4.21826e-06
4.26736e-06
4.11157e-06
4.02748e-06
4.02477e-06
4.05218e-06
3.70381e-06
3.91631e-06
3.71602e-06
3.19322e-06
2.77272e-06
3.39392e-06
2.90037e-06
5.10093e-06
3.52722e-06
3.9798e-06
3.08238e-06
3.93095e-06
3.879e-06
3.78849e-06
3.26349e-06
2.97224e-06
3.79441e-06
3.9981e-06
3.79692e-06
3.61394e-06
3.23501e-06
3.91316e-06
2.51809e-06
3.53778e-06
2.63583e-06
3.82316e-06
3.48483e-06
3.05123e-06
3.81563e-06
3.90504e-06
3.65767e-06
3.80585e-06
3.75711e-06
3.4642e-06
3.33347e-06
3.92769e-06
3.49265e-06
2.39395e-06
2.84146e-06
3.57645e-06
3.78138e-06
3.68794e-06
3.6818e-06
3.60652e-06
3.33465e-06
3.01446e-06
3.39167e-06
2.91453e-06
3.20901e-06
3.13438e-06
3.3245e-06
3.51987e-06
3.13927e-06
3.3311e-06
3.37937e-06
3.41528e-06
4.62689e-06
3.69428e-06
3.59337e-06
3.09424e-06
3.64098e-06
4.02862e-06
3.51323e-06
3.64499e-06
3.54216e-06
3.24119e-06
3.15714e-06
3.01364e-06
3.41908e-06
3.20897e-06
3.13596e-06
3.47793e-06
3.76957e-06
3.31559e-06
3.10836e-06
2.69812e-06
3.25896e-06
3.62377e-06
3.42446e-06
2.80279e-06
3.22929e-06
3.12921e-06
3.3002e-06
3.54037e-06
3.12799e-06
2.98914e-06
2.91724e-06
2.74603e-06
3.2151e-06
2.38188e-06
2.48279e-06
3.11001e-06
2.90865e-06
2.88149e-06
3.41727e-06
2.60697e-06
2.67004e-06
3.18627e-06
3.22119e-06
2.98779e-06
2.84737e-06
2.64579e-06
2.80906e-06
3.02467e-06
2.56739e-06
2.6661e-06
2.69997e-06
3.08563e-06
2.91509e-06
3.02488e-06
2.24919e-06
2.65449e-06
2.78392e-06
2.5567e-06
2.44878e-06
4.19421e-06
2.91837e-06
2.75083e-06
2.73704e-06
2.9678e-06
3.02444e-06
2.41335e-06
3.00759e-06
2.77564e-06
2.82258e-06
2.32206e-06
2.35469e-06
2.51649e-06
2.66477e-06
2.82802e-06
2.77674e-06
2.51775e-06
2.87968e-06
2.2886e-06
2.92884e-06
2.19301e-06
2.76373e-06
1.87641e-06
2.4565e-06
2.41747e-06
2.08991e-06
2.2008e-06
2.56558e-06
2.09251e-06
2.05841e-06
3.57708e-06
2.39031e-06
2.56402e-06
2.21852e-06
2.22405e-06
1.93109e-06
1.99094e-06
2.00693e-06
2.22591e-06
2.0171e-06
2.33873e-06
2.07349e-06
2.07446e-06
2.01082e-06
2.12346e-06
2.29336e-06
1.80361e-06
1.78455e-06
1.98315e-06
1.77526e-06
2.23359e-06
1.83562e-06
1.92463e-06
2.34039e-06
2.17192e-06
1.74599e-06
1.67671e-06
2.14565e-06
1.80464e-06
1.88676e-06
2.10177e-06
1.73226e-06
1.55135e-06
1.89485e-06
1.65143e-06
1.77038e-06
1.68591e-06
1.87218e-06
1.42659e-06
1.68631e-06
1.49703e-06
1.71175e-06
2.04032e-06
1.49291e-06
1.96973e-06
1.9164e-06
1.38409e-06
2.05992e-06
1.542e-06
4.58447e-06
1.75847e-06
2.45074e-06
1.68521e-06
1.61021e-06
1.62252e-06
5.46011e-06
4.24545e-06
3.96025e-06
2.76373e-06
1.84595e-06
2.31641e-06
1.22326e-06
1.51002e-06
1.4362e-06
2.52636e-06
1.26978e-06
1.78357e-06
6.65187e-06
2.89971e-06
3.54124e-06
2.59747e-06
1.8204e-06
3.97885e-06
4.38724e-06
4.07778e-06
2.89411e-06
2.21547e-06
5.91261e-06
2.14451e-06
5.31643e-06
1.56777e-06
1.39381e-06
1.63773e-06
6.08148e-06
1.67309e-06
7.77625e-06
3.38616e-06
3.43317e-06
3.66591e-06
3.6465e-06
5.97822e-06
3.83937e-06
2.76401e-06
2.77328e-06
3.709e-06
3.87016e-06
3.86098e-06
1.33005e-06
5.1492e-06
5.10017e-06
2.55487e-06
6.35666e-06
3.92399e-06
6.97741e-07
3.05858e-06
1.50951e-06
4.31939e-06
7.8696e-06
8.0947e-06
2.45382e-06
1.89916e-06
1.72228e-06
5.49234e-06
1.92895e-06
5.47264e-06
1.67198e-06
6.07291e-06
6.26696e-06
2.33275e-06
8.21431e-06
1.47877e-06
1.57632e-06
4.22253e-06
6.44053e-06
4.90591e-06
5.25253e-06
5.59118e-06
6.52481e-06
2.94147e-06
8.73132e-06
1.56314e-06
4.46081e-06
1.72789e-06
7.66436e-06
7.85532e-06
1.54326e-06
8.18787e-07
7.9424e-06
6.32491e-06
6.40739e-06
6.6279e-06
7.81185e-06
9.3676e-07
1.04175e-06
5.37587e-06
6.02935e-06
7.9645e-06
6.45058e-06
1.65516e-06
4.53147e-06
8.15045e-06
5.88051e-06
1.60003e-06
5.77831e-06
8.42142e-06
6.7776e-06
8.70835e-06
3.6176e-06
2.29981e-06
2.18894e-06
1.58006e-06
7.5694e-06
7.46155e-06
6.50513e-06
1.30042e-06
1.40984e-06
2.08663e-06
7.81061e-06
1.37834e-06
1.65914e-06
1.63616e-06
2.21138e-06
2.72348e-06
1.61297e-06
1.49911e-06
2.76526e-06
1.62328e-06
1.78843e-06
2.24113e-06
1.96088e-06
2.61261e-06
1.78373e-06
2.22678e-06
2.63395e-06
1.9688e-06
2.31426e-06
2.1438e-06
2.85337e-06
2.60464e-06
2.17186e-06
2.18549e-06
2.13674e-06
2.31745e-06
3.21843e-06
2.27268e-06
3.46151e-06
2.11269e-06
2.25441e-06
2.33777e-06
2.09718e-06
3.47884e-06
2.26416e-06
3.06341e-06
2.44186e-06
2.45631e-06
3.37034e-06
2.50049e-06
3.65161e-06
4.12088e-06
3.21088e-06
2.56316e-06
4.01146e-06
3.66948e-06
3.7266e-06
3.74603e-06
3.48714e-06
3.37871e-06
3.5819e-06
2.6457e-06
3.61234e-06
3.34706e-06
3.5424e-06
2.59053e-06
3.59373e-06
4.54864e-06
3.71512e-06
3.83733e-06
3.8991e-06
3.521e-06
4.60344e-06
3.61339e-06
3.78626e-06
3.93123e-06
4.27058e-06
3.81946e-06
3.64232e-06
4.3765e-06
4.99923e-06
4.27486e-06
4.59175e-06
4.52748e-06
5.32146e-06
4.39214e-06
4.66326e-06
3.64828e-06
5.28641e-06
4.48311e-06
4.7907e-06
4.93651e-06
4.44318e-06
4.84524e-06
5.12749e-06
5.61156e-06
4.9656e-06
5.08605e-06
5.19897e-06
6.02269e-06
5.26712e-06
5.09787e-06
5.53808e-06
5.97205e-06
5.58556e-06
5.15616e-06
5.09655e-06
5.03486e-06
5.88441e-06
5.69342e-06
5.17445e-06
5.10045e-06
5.21159e-06
5.68044e-06
5.29902e-06
5.7715e-06
5.2226e-06
5.90356e-06
5.33776e-06
6.1046e-06
5.87575e-06
5.76966e-06
6.62594e-06
6.00275e-06
6.0676e-06
6.14743e-06
6.47335e-06
6.07699e-06
5.35464e-06
6.87032e-06
5.97871e-06
1.18588e-05
6.34615e-06
7.18461e-06
6.39506e-06
7.017e-06
7.09508e-06
1.18254e-05
6.6123e-06
7.21028e-06
7.34576e-06
1.46237e-06
6.63829e-06
6.87692e-06
1.18465e-05
7.41923e-06
7.29097e-06
7.66332e-06
1.18014e-05
6.83848e-06