/*--------------------------------*- C++ -*----------------------------------*\
  =========                 |
  \\      /  F ield         | OpenFOAM: The Open Source CFD Toolbox
   \\    /   O peration     | Website:  https://openfoam.org
    \\  /    A nd           | Version:  8
     \\/     M anipulation  |
\*---------------------------------------------------------------------------*/
FoamFile
{
    version     2.0;
    format      ascii;
    class       surfaceScalarField;
    location    "3.6";
    object      phi;
}
// * * * * * * * * * * * * * * * * * * * * * * * * * * * * * * * * * * * * * //

dimensions      [0 3 -1 0 0 0 0];

internalField   nonuniform List<scalar> 
33977
(
3.31466e-09
-1.49868e-10
-3.55718e-09
3.92392e-10
-8.12812e-10
-1.6444e-09
1.69499e-09
7.62223e-10
4.21974e-09
-2.84528e-10
1.93855e-10
-4.12907e-09
4.00783e-09
-3.98939e-09
-3.45758e-10
3.27309e-10
3.30438e-11
-2.42313e-10
-5.19144e-10
7.28413e-10
-1.92401e-09
1.55307e-09
-4.41869e-10
-3.02128e-09
3.88587e-09
-2.10237e-09
1.23779e-09
-1.78015e-09
-2.0867e-09
1.33083e-09
2.53602e-09
4.18697e-09
-4.29229e-09
1.90963e-10
-8.56496e-11
-9.56185e-10
2.00679e-09
-3.10166e-09
2.05105e-09
3.15601e-09
3.46486e-10
-3.60233e-09
9.98343e-11
-1.32502e-09
1.37088e-09
-7.04872e-10
6.59007e-10
-5.91334e-09
-4.53604e-09
4.9756e-09
5.47378e-09
-3.38364e-09
-3.93609e-09
4.45873e-09
2.86101e-09
2.26125e-09
-2.62574e-09
-2.15605e-09
2.52053e-09
-1.69152e-09
1.91348e-09
-2.21963e-10
7.4151e-10
-8.14758e-10
-1.25177e-09
-2.63818e-09
9.53109e-11
1.70227e-09
8.40599e-10
5.41469e-09
-1.09911e-09
-5.77992e-09
1.46434e-09
2.69789e-09
-1.49772e-09
-2.63534e-09
1.43516e-09
2.36876e-09
2.37818e-09
-2.48569e-09
-1.1043e-09
4.84529e-09
-4.0866e-09
3.45604e-10
-3.63071e-09
3.64764e-09
6.70992e-12
-2.36404e-11
2.54777e-09
-1.35802e-09
1.08547e-09
-2.27522e-09
-2.07054e-09
9.36381e-10
-9.04251e-10
2.03841e-09
2.34102e-09
-2.30527e-09
2.33302e-09
3.60046e-09
-3.60291e-09
-2.59241e-11
2.83735e-11
4.06454e-09
-3.6786e-09
1.54686e-10
-5.40629e-10
-1.84308e-10
-1.32034e-09
6.80478e-09
-5.30013e-09
3.61847e-09
-3.61532e-09
-2.93974e-11
2.62505e-11
4.28988e-09
-4.29321e-09
-1.34075e-13
3.459e-12
8.93312e-10
-8.3198e-10
-3.69259e-11
-2.44061e-11
-3.6347e-09
-2.39204e-11
2.79084e-11
2.41461e-09
2.27632e-09
-2.3499e-09
-3.12003e-09
1.75247e-09
-1.4043e-09
2.77186e-09
1.47851e-09
2.29999e-09
-3.05815e-09
-7.20351e-10
2.25183e-09
2.42805e-09
-2.26528e-09
1.01045e-09
-9.89739e-10
1.50506e-09
-1.52577e-09
-3.35697e-09
-3.34042e-11
-7.97488e-11
3.47012e-09
-2.44386e-09
-2.4787e-09
2.57811e-09
2.34444e-09
3.59002e-09
-3.59238e-09
-4.3095e-11
4.5461e-11
4.14656e-09
1.6786e-10
-2.4006e-10
-4.07436e-09
-6.39102e-10
2.10645e-11
4.68258e-09
2.34025e-09
-2.67343e-09
2.37521e-09
-2.04203e-09
1.24625e-10
-6.78021e-11
3.34159e-09
-3.39842e-09
3.66923e-09
-3.34099e-12
-1.82418e-11
-1.22017e-09
-2.85765e-10
2.8302e-10
1.22292e-09
-1.85316e-09
2.77589e-09
-9.22734e-10
2.38885e-09
2.30125e-09
-2.43828e-09
-3.35184e-09
3.35597e-09
-1.37089e-11
9.58193e-12
-1.73517e-09
7.86743e-10
1.13644e-09
-1.88017e-10
-2.78198e-09
-2.29865e-09
2.45489e-09
3.42752e-09
2.58129e-11
-2.77915e-11
-3.42554e-09
4.31359e-09
-1.00707e-10
6.86278e-12
-2.28936e-09
4.63119e-10
-8.11935e-10
-4.16783e-10
3.23111e-10
1.3336e-09
-1.23993e-09
2.36072e-09
-2.3462e-09
2.37434e-09
-3.94909e-11
7.41045e-10
-4.52726e-09
3.8257e-09
4.273e-09
-4.26247e-09
-2.45283e-11
1.40039e-11
2.33318e-09
-1.7882e-09
-1.43168e-09
8.86711e-10
-3.23554e-09
4.79745e-11
-9.56188e-11
3.28318e-09
-1.83987e-09
1.89378e-09
1.7896e-09
-1.84352e-09
2.33863e-11
-3.96205e-11
3.34809e-09
-3.4684e-09
-1.00942e-09
1.12973e-09
-4.4922e-10
3.02558e-11
-3.25963e-09
2.60843e-09
1.47499e-09
-1.75024e-09
6.80495e-11
-3.41231e-09
-2.7833e-11
3.3721e-09
1.57906e-10
-1.79864e-09
3.82823e-09
-2.18749e-09
1.83959e-09
-2.75308e-09
7.00226e-09
-6.08876e-09
-1.0665e-09
1.1272e-09
-1.61423e-09
1.55353e-09
2.18896e-09
-1.82802e-10
2.12432e-09
-4.13048e-09
2.14365e-09
-2.3449e-09
2.01251e-10
-3.98115e-09
1.10044e-09
-1.11403e-09
3.99474e-09
1.538e-11
-3.42194e-09
4.72953e-11
3.35927e-09
2.67926e-09
-2.8542e-09
-2.26892e-09
2.95918e-10
3.69848e-09
-3.86977e-09
3.67982e-09
-7.24265e-11
1.42245e-11
-3.62162e-09
-4.06436e-09
3.91398e-09
4.46294e-10
-5.08202e-09
-1.81336e-09
4.46861e-09
2.42677e-09
3.21726e-09
-1.81231e-09
1.59978e-09
-3.00473e-09
1.40744e-09
-4.1084e-11
3.38016e-11
-1.40015e-09
-3.13982e-09
3.20164e-09
-7.04928e-11
8.67823e-12
3.3553e-09
2.92611e-11
7.69958e-11
-3.46156e-09
-6.11234e-10
5.50291e-10
-4.77148e-10
5.38091e-10
-6.49577e-12
1.37537e-09
3.85584e-11
-3.96893e-09
-2.85043e-10
2.67039e-10
3.98693e-09
-3.3771e-09
-1.98056e-11
4.50696e-11
1.51661e-09
-1.18105e-09
3.01253e-09
2.44911e-09
2.45055e-09
-2.53894e-09
-2.39572e-09
2.45342e-09
-1.31069e-10
7.33727e-11
8.78994e-10
-3.99227e-09
4.91588e-09
-1.8026e-09
2.34886e-09
-2.56793e-09
2.71539e-09
-2.49631e-09
2.08586e-10
3.44564e-09
-7.00194e-10
-2.95403e-09
3.24209e-09
5.07698e-10
-2.49797e-09
-1.25182e-09
-3.74017e-09
-1.83937e-12
1.07331e-09
2.6687e-09
3.58181e-09
-3.57223e-09
-4.64767e-11
3.68902e-11
3.64318e-09
-4.08285e-09
4.3967e-10
2.97302e-10
-1.1984e-09
-3.19073e-10
7.28412e-10
-7.66768e-10
-2.25101e-09
-2.54623e-09
-1.59251e-09
6.93005e-10
3.44574e-09
5.34681e-11
5.16348e-09
-4.64346e-09
-5.73488e-10
-3.13652e-09
3.12622e-09
-2.86249e-11
3.89263e-11
-1.59814e-09
1.54209e-09
-1.62823e-09
-4.44924e-10
8.35592e-10
1.23757e-09
4.23941e-09
-4.22879e-09
-2.99019e-11
1.92806e-11
2.28202e-09
-2.4824e-09
-2.3679e-09
2.56827e-09
-2.95677e-10
4.56371e-09
-4.39917e-09
1.31134e-10
1.14922e-09
-5.9421e-09
5.22704e-09
-4.34165e-10
-5.22458e-10
1.02836e-09
-1.33484e-09
8.28937e-10
-3.17153e-09
3.1569e-09
-2.20763e-11
3.6704e-11
8.16978e-09
-7.20879e-09
1.19105e-09
-2.15204e-09
-1.99805e-09
1.96435e-09
7.62696e-10
-7.28997e-10
-3.20603e-09
3.18679e-09
-1.88531e-11
3.80877e-11
3.34304e-09
-3.35954e-09
2.38393e-11
-7.3415e-12
-2.12975e-10
5.07181e-10
3.89277e-09
3.30243e-09
1.01573e-11
-3.34675e-09
3.41615e-11
-3.2458e-09
3.2213e-09
-1.90631e-11
4.35614e-11
-2.47775e-09
2.14816e-09
2.61162e-09
-4.53866e-10
7.01025e-11
-4.58548e-09
4.96924e-09
-3.28703e-09
3.26114e-09
-1.78556e-11
4.37414e-11
-3.30024e-11
3.05947e-11
-3.32478e-09
3.29777e-09
-1.73138e-11
4.43212e-11
8.69516e-12
-2.89046e-11
-1.6604e-09
-2.43903e-09
1.91397e-10
3.90803e-09
1.22845e-09
-1.60382e-09
1.50257e-09
1.39469e-11
-3.70051e-11
3.86792e-09
-3.85581e-09
-4.38329e-11
3.17304e-11
-2.59964e-09
-2.00609e-09
1.45145e-09
3.15427e-09
-2.10276e-10
4.94812e-10
-4.38228e-10
1.53691e-10
3.33006e-09
-1.87665e-11
3.17473e-11
-4.20196e-09
1.72709e-11
-4.40983e-11
3.82586e-09
-3.82486e-09
-1.96791e-11
1.86813e-11
1.81209e-11
-3.29812e-11
6.71813e-12
-1.02883e-11
3.91124e-09
-3.89355e-09
-4.00561e-11
2.23682e-11
-2.26277e-09
2.85747e-09
1.69518e-10
-7.64224e-10
-3.72534e-09
3.15691e-09
4.05507e-10
1.62928e-10
3.94892e-09
-3.93239e-09
-3.55602e-11
1.90367e-11
1.67794e-09
-4.71935e-10
-4.26345e-09
3.05745e-09
8.27072e-10
-8.31933e-10
-1.02706e-09
1.03192e-09
-3.33646e-09
2.3441e-09
-1.69091e-09
2.68327e-09
4.0064e-09
-3.98194e-09
-5.60058e-11
3.15388e-11
4.12571e-09
-4.14279e-09
-1.35375e-11
3.06177e-11
4.18991e-09
-4.16505e-09
-4.71138e-11
2.22596e-11
5.84402e-10
-1.48325e-09
-2.71559e-09
3.61444e-09
4.10324e-09
-4.11767e-09
9.43014e-13
1.34919e-11
4.1279e-09
-4.11335e-09
-3.14786e-11
1.69231e-11
-1.33519e-09
-6.19509e-09
5.668e-09
1.86228e-09
-3.85259e-09
-4.97367e-11
3.13419e-09
7.68144e-10
5.52534e-11
4.0341e-09
-8.15163e-11
2.86865e-09
-2.86705e-09
-1.59854e-12
7.58564e-10
3.43678e-09
-4.15752e-09
-3.78178e-11
5.37427e-09
-1.55714e-10
-1.23575e-10
-5.09498e-09
-3.9597e-09
-7.698e-11
-1.57771e-11
4.05246e-09
2.88782e-10
-2.71665e-10
-1.96838e-09
1.95126e-09
3.39483e-09
-1.14638e-11
3.33712e-11
-3.41674e-09
-6.22791e-09
-1.77451e-09
5.88463e-09
2.1178e-09
-7.16557e-11
-5.4861e-10
7.43842e-11
5.45881e-10
-1.40167e-09
-2.72483e-09
1.22706e-09
2.89945e-09
-3.09985e-09
3.10255e-09
-1.90561e-11
1.63515e-11
-3.64522e-11
2.43956e-11
9.97658e-10
7.47426e-10
-9.18013e-10
3.51127e-09
-9.44283e-10
-2.81093e-09
2.43939e-10
-1.5444e-09
2.40816e-09
1.90287e-09
-2.76662e-09
3.55929e-09
-3.53952e-09
-4.17546e-11
2.199e-11
3.15149e-09
-2.54022e-10
7.76633e-10
-3.6741e-09
-3.89857e-10
4.29553e-09
-3.98214e-09
7.64632e-11
-2.96618e-09
2.88754e-09
2.01592e-09
-1.93727e-09
2.77869e-11
2.84086e-09
1.33925e-09
2.44025e-09
-3.48877e-09
-2.90735e-10
3.37598e-09
-3.63665e-09
-1.15445e-09
1.41511e-09
3.29104e-09
9.78363e-11
-3.13089e-09
-2.57992e-10
-3.70144e-11
-4.35798e-09
3.81676e-09
5.7823e-10
-1.86122e-09
1.90789e-09
9.35424e-10
-9.82087e-10
3.80163e-09
-3.79138e-09
-3.0183e-11
1.99269e-11
-4.97914e-11
-3.50483e-09
1.54249e-10
3.40037e-09
-3.62981e-09
3.62336e-09
-1.00399e-10
1.0685e-10
9.31829e-10
-3.46727e-09
2.8217e-09
-2.8626e-10
-2.1173e-09
2.01148e-09
-1.73404e-09
-1.00285e-09
9.365e-10
-8.30511e-10
8.96862e-10
-3.21064e-09
2.02639e-10
9.43171e-10
2.06483e-09
-3.83896e-09
-4.22989e-12
1.17841e-10
5.97605e-11
-1.58354e-10
-2.29713e-09
-2.28481e-09
2.12784e-09
1.56971e-10
3.41038e-09
-3.41461e-09
-1.24018e-11
1.66311e-11
-4.23749e-09
4.22004e-09
8.81919e-11
-7.07408e-11
-4.3061e-10
4.3031e-09
-4.32636e-09
-9.96938e-10
2.48587e-10
-4.16566e-10
1.16492e-09
1.74832e-09
-4.61356e-09
7.12395e-09
-4.25871e-09
-9.11194e-11
2.72667e-10
-1.98629e-10
1.70807e-11
3.38967e-10
-3.84886e-09
-1.21232e-10
3.63113e-09
2.8869e-09
-2.24201e-09
-6.44886e-10
-1.38247e-10
-6.77995e-11
3.42901e-09
-3.22296e-09
-1.84457e-09
-7.37485e-10
1.61347e-09
9.68582e-10
2.71375e-11
-2.18608e-11
2.42986e-10
7.86395e-10
-2.89671e-10
-7.3971e-10
3.18126e-09
-7.86908e-10
-2.35866e-09
-3.56949e-11
-1.96412e-10
1.11453e-09
-4.94554e-09
4.02742e-09
1.43954e-09
-6.72748e-10
7.26792e-10
-1.49359e-09
-3.84402e-09
4.3659e-09
-4.04613e-09
3.52425e-09
-8.01677e-10
8.25811e-10
2.18852e-10
1.56525e-09
2.34385e-09
-2.41713e-09
-1.49197e-09
2.65315e-09
-1.24109e-09
1.11145e-09
-2.52352e-09
-1.78082e-09
-2.4971e-09
9.04724e-10
3.37319e-09
-3.41422e-10
5.99909e-11
3.26914e-09
-2.98771e-09
6.21701e-10
5.22447e-11
-3.69419e-11
-6.37004e-10
-4.05748e-09
3.34029e-10
-1.15504e-10
4.4685e-09
-1.92254e-09
-3.67077e-09
1.1248e-09
4.05886e-09
-4.02873e-09
4.75691e-12
-3.48865e-11
4.14664e-09
-3.45757e-11
1.58375e-11
3.5616e-09
-3.52658e-09
-5.64128e-11
2.13946e-11
3.28689e-11
-4.5761e-11
-3.6761e-09
3.85232e-09
-3.26712e-10
1.50489e-10
3.61742e-09
-3.58807e-09
-5.48093e-11
2.54625e-11
-8.40201e-10
4.61398e-10
8.95585e-10
-5.16782e-10
-1.50442e-09
7.93468e-10
3.47059e-09
-2.75964e-09
-8.91441e-10
1.20386e-09
-3.24035e-09
2.92793e-09
-1.90503e-09
2.6395e-09
1.94479e-09
-1.63223e-10
4.62045e-09
-4.55236e-09
9.51274e-11
4.88388e-09
-2.98548e-09
-1.21505e-09
-6.83356e-10
-1.38078e-10
3.84068e-09
-6.64997e-11
-3.6361e-09
-2.23686e-09
3.01177e-09
1.83352e-09
8.85657e-10
-8.39138e-10
3.28655e-10
-3.75173e-10
2.30052e-09
-5.06027e-09
-1.5296e-09
4.28934e-09
2.17401e-11
-4.0152e-11
2.02346e-09
-1.415e-09
2.0447e-09
3.2359e-09
1.29429e-09
-2.43001e-09
-2.10018e-09
-3.31462e-09
3.08171e-09
8.61926e-10
-6.29011e-10
-1.26046e-09
-1.00536e-09
2.13887e-09
1.26952e-10
-3.08269e-09
3.08772e-09
-1.50479e-11
1.00194e-11
-1.36289e-09
1.40509e-09
-1.03194e-09
-4.84639e-09
8.30487e-10
-4.15783e-11
2.75456e-09
-2.69424e-09
-8.69306e-10
8.08986e-10
9.7811e-10
-4.20114e-09
-7.65023e-10
3.98806e-09
3.99211e-09
-4.04917e-09
1.03517e-09
-4.52079e-09
-1.51864e-09
6.54075e-09
-5.01318e-10
1.5837e-09
-1.42349e-09
-2.57053e-09
2.41031e-09
2.38411e-09
-2.4215e-10
-2.14196e-09
5.80016e-10
-4.22207e-09
5.39038e-09
-1.3381e-09
3.23529e-09
-2.45667e-09
5.59478e-10
3.83294e-09
3.31674e-10
-4.38412e-09
2.19505e-10
-3.07552e-11
-4.01058e-09
4.00578e-09
3.55515e-11
5.67845e-10
-5.65105e-11
-5.82991e-10
-2.69348e-09
1.14119e-09
-6.12648e-10
2.16494e-09
4.88979e-09
1.44835e-09
-3.32814e-09
-3.01001e-09
-3.50979e-09
3.52528e-09
2.17585e-11
-3.72486e-11
4.73516e-09
-4.43182e-09
-3.68698e-09
-1.8538e-12
3.42066e-09
8.70633e-12
9.17656e-11
3.14405e-09
6.95747e-11
-3.30539e-09
4.39935e-10
-4.38605e-10
1.04505e-10
-1.05834e-10
2.64205e-10
-5.27025e-10
-2.1479e-10
4.7761e-10
2.61549e-09
1.95239e-09
-4.41229e-09
-1.55579e-10
6.94671e-09
-5.28227e-09
1.75147e-10
2.9414e-09
1.21942e-09
-1.81197e-09
5.01892e-10
-9.60392e-11
-5.11307e-10
1.05455e-10
-1.60616e-09
-2.54838e-09
-4.35904e-11
4.19814e-09
3.73641e-09
-3.75122e-09
3.88281e-13
1.44306e-11
-1.1824e-09
1.13836e-09
-2.7587e-10
3.19915e-10
1.43143e-10
-2.61678e-10
-3.1567e-09
1.26153e-09
3.4004e-09
-1.50522e-09
4.35772e-09
7.67833e-10
-4.24656e-09
4.17517e-09
-5.19752e-11
2.3364e-11
-7.79674e-10
-3.51359e-09
2.74886e-09
1.92213e-09
-1.31652e-09
1.41784e-09
5.10365e-11
3.15721e-10
-5.32424e-10
1.65667e-10
-1.12842e-09
9.15639e-10
-9.16886e-10
1.12967e-09
-4.69638e-09
4.69798e-09
-4.15767e-10
4.14169e-10
4.35299e-10
-2.23407e-09
-3.79479e-10
2.17825e-09
1.3188e-10
-1.23783e-10
-3.70963e-09
3.70153e-09
-6.50872e-10
1.51636e-10
-1.80152e-10
6.79388e-10
3.22971e-09
6.50856e-11
-2.79559e-10
-3.01524e-09
-3.49715e-09
-3.66565e-11
2.4018e-11
-1.51392e-09
2.8311e-09
-2.71885e-09
-6.01687e-09
-2.27185e-09
1.952e-09
6.33671e-09
2.27947e-09
-2.05138e-09
-2.40855e-09
2.18046e-09
9.84333e-11
1.1344e-10
-3.41434e-09
3.20247e-09
3.41877e-11
-2.34406e-11
-5.83065e-09
5.89351e-09
-1.26197e-10
6.33387e-11
-3.62594e-09
2.24176e-09
1.19116e-09
1.9302e-10
-2.3173e-09
2.18605e-09
1.71494e-09
-2.24508e-09
2.35631e-09
2.16823e-09
2.0379e-10
5.13094e-10
-5.96741e-10
-1.20143e-10
1.38266e-09
-4.60869e-09
4.2536e-09
-1.02758e-09
6.20775e-10
-5.98227e-10
2.55376e-10
-2.77923e-10
4.21227e-11
-5.26913e-11
3.36536e-09
-6.128e-09
5.96624e-09
-3.20361e-09
-1.53641e-09
-2.2889e-09
8.1085e-10
3.01446e-09
5.77827e-11
-3.05134e-09
-4.87325e-11
3.04229e-09
-1.34261e-09
-2.19862e-09
6.26836e-10
2.9144e-09
2.62336e-09
-1.88637e-09
1.1908e-09
-1.92779e-09
-1.84398e-09
-1.90316e-10
2.0343e-09
3.03856e-10
-3.37714e-09
4.97769e-09
-1.90441e-09
-3.06456e-09
3.04691e-09
-2.45657e-11
4.22103e-11
9.17303e-10
-7.40189e-10
-2.66435e-09
2.48724e-09
1.82544e-10
-2.54801e-09
2.80036e-09
-4.34896e-10
-3.60109e-09
3.5569e-09
-4.47557e-11
8.89515e-11
-1.14744e-09
-2.4072e-09
3.56748e-09
-1.28359e-11
5.3071e-09
-4.39635e-09
-1.3888e-09
4.78055e-10
-3.22785e-09
-4.09551e-09
2.24135e-09
4.20905e-09
-3.47576e-11
-4.17884e-09
4.5455e-12
4.45854e-09
-3.90989e-10
-4.49303e-09
4.25469e-10
5.68298e-10
-5.40879e-10
2.53166e-10
-2.80585e-10
-3.61107e-09
4.54991e-09
-1.0005e-09
6.1653e-11
1.09062e-10
-7.55827e-10
-1.54912e-10
-1.7605e-10
-3.25079e-10
1.61552e-10
3.39578e-10
2.05694e-09
3.03584e-09
-2.75253e-09
-5.12139e-10
6.21555e-10
-4.51262e-09
4.4032e-09
3.77687e-09
5.72144e-10
-5.59196e-11
-4.2931e-09
-2.1181e-10
-1.54731e-09
1.75912e-09
-7.81453e-10
1.91521e-09
8.85396e-10
-2.01915e-09
2.03193e-09
-1.21457e-09
2.3999e-09
-4.5853e-09
-3.91821e-09
3.53745e-09
4.96605e-09
-3.63777e-09
-1.16676e-10
7.83452e-11
5.14947e-10
-4.95126e-10
2.30325e-10
-2.50146e-10
-2.3649e-09
2.59837e-10
-1.67005e-10
2.27207e-09
-1.71197e-09
-3.38204e-09
1.40102e-09
3.69299e-09
-3.48106e-09
3.48997e-09
2.37144e-11
-3.26226e-11
-3.38911e-10
8.41439e-10
-2.0119e-09
1.50937e-09
1.16152e-09
-1.18311e-09
-2.06336e-09
2.08495e-09
2.28271e-09
-2.48284e-09
-2.3678e-09
-1.32563e-09
5.58981e-09
-4.26418e-09
-3.62624e-09
2.66417e-09
3.87936e-09
-2.91729e-09
1.10468e-11
-2.11598e-11
1.66481e-10
-5.93187e-09
-2.0461e-10
5.97e-09
-1.25375e-09
-4.21343e-09
4.95504e-09
-7.5017e-10
-3.50657e-10
1.10083e-09
1.27563e-10
-3.16468e-09
-7.03053e-10
4.77538e-10
-4.33321e-10
2.19117e-10
-2.63335e-10
2.46244e-10
-7.13489e-10
-2.19545e-09
2.66269e-09
-3.40795e-09
-6.4075e-12
2.04607e-10
3.20975e-09
4.07107e-09
-9.38114e-11
2.9146e-11
1.33256e-09
-5.34565e-09
5.1623e-09
1.08384e-09
-6.75709e-10
-1.15083e-09
7.42704e-10
4.43395e-11
-1.79936e-10
3.6123e-09
-3.47671e-09
3.88965e-09
-4.70294e-09
8.38377e-10
-2.50915e-11
-3.7063e-09
6.99656e-11
3.70169e-09
-6.53545e-11
3.921e-10
-3.66947e-10
2.02323e-10
-2.27477e-10
3.92065e-09
-4.16853e-09
-9.54997e-10
1.20287e-09
-4.14475e-09
4.10861e-09
1.01875e-10
-6.57395e-11
1.39072e-09
8.3103e-10
-2.22175e-09
-1.07782e-11
8.68717e-11
-2.45481e-09
2.15665e-09
-4.07933e-10
7.06084e-10
-1.20072e-09
1.212e-09
2.95071e-09
-2.96199e-09
1.72068e-10
-1.16613e-09
2.00184e-10
3.76275e-09
-3.74352e-09
-2.19414e-10
-3.90252e-09
3.22658e-10
3.69827e-09
-1.18407e-10
5.86722e-10
-3.15881e-10
-3.15912e-10
4.50708e-11
4.05949e-09
-1.63389e-09
-3.5299e-09
9.84469e-11
-8.68565e-11
3.68137e-09
-3.69296e-09
1.07864e-10
-2.4701e-10
3.18111e-09
-3.04197e-09
3.41792e-10
-3.24938e-10
1.83291e-10
-2.00145e-10
-2.99844e-09
3.73624e-09
-1.52922e-09
7.91417e-10
2.69436e-10
-3.80717e-10
4.61523e-09
4.47359e-10
-2.48188e-09
-2.58071e-09
-4.06352e-09
4.01228e-09
9.04545e-11
-3.92167e-11
-5.30109e-11
4.30649e-11
4.49881e-10
9.78152e-10
2.65157e-09
-4.11987e-11
-3.9684e-09
3.95254e-09
5.70636e-11
3.03715e-10
-2.90795e-10
1.64664e-10
-1.77584e-10
-3.89545e-09
3.78663e-09
1.99718e-10
-9.08953e-11
1.96671e-09
2.5703e-10
-1.71308e-09
-5.1066e-10
2.80982e-10
-3.00636e-10
1.48928e-10
-1.29274e-10
-5.11835e-11
1.26476e-10
-3.983e-09
3.94701e-09
7.23003e-11
-3.63041e-11
-4.02078e-09
4.08544e-09
-2.26041e-11
-4.20593e-11
2.25326e-10
-2.04198e-10
1.51036e-10
-1.72165e-10
-2.67493e-10
2.85604e-10
1.84828e-10
-2.02939e-10
-1.65082e-09
1.19503e-09
-2.88067e-09
-3.9269e-09
3.95639e-09
-7.98353e-12
-2.15013e-11
-5.74974e-09
7.05427e-11
-1.51452e-10
1.79265e-09
-1.74869e-09
-3.16667e-09
3.1227e-09
1.03168e-09
-1.01401e-09
-1.14609e-09
-8.45427e-10
9.07494e-10
1.02177e-09
-4.47108e-09
-2.09654e-09
1.86798e-09
4.69963e-09
2.43591e-09
-2.71427e-09
3.36789e-09
-3.08953e-09
1.81482e-10
1.1757e-10
-1.31078e-10
-1.67974e-10
1.78051e-11
-3.50113e-09
-1.90882e-11
3.50241e-09
1.17181e-09
-3.98625e-09
2.87561e-09
-6.1169e-11
-4.98075e-09
4.81496e-09
1.65794e-10
3.95808e-10
1.76722e-10
-1.54426e-10
-4.18105e-10
2.94221e-10
-3.46964e-10
-2.99845e-09
2.99227e-09
-2.20408e-11
2.8222e-11
-1.99136e-09
2.16167e-09
1.46096e-09
-1.63126e-09
3.67785e-11
-2.14332e-11
-2.09112e-12
-1.91882e-12
9.89561e-11
-9.49461e-11
-3.34324e-09
5.4961e-10
-3.62004e-10
3.15563e-09
-2.22446e-09
-3.75553e-09
3.26205e-09
2.71794e-09
3.45855e-09
4.37855e-11
-3.55975e-09
5.74166e-11
-2.70037e-09
-1.19583e-09
2.47271e-09
-3.44848e-09
3.20105e-09
1.98468e-09
-1.73724e-09
-6.8935e-10
-2.52581e-09
1.31654e-10
3.0835e-09
6.91109e-10
4.06552e-11
-6.64706e-10
-6.70581e-11
3.56374e-11
-4.8578e-11
-6.01836e-09
4.6336e-09
4.75012e-09
6.49495e-10
-5.70621e-10
5.71905e-10
-6.50778e-10
5.13592e-09
-5.02762e-09
-4.53568e-10
3.45273e-10
2.35682e-10
2.31868e-09
-2.77541e-09
2.2105e-10
1.36235e-11
-1.45644e-11
-1.9143e-11
2.0084e-11
3.54175e-10
-1.84243e-10
-3.45982e-10
-2.44665e-09
3.37823e-09
7.97458e-10
-1.72904e-09
3.68833e-09
-3.61583e-09
1.46994e-10
-2.19493e-10
-3.94502e-09
-3.72406e-09
2.69139e-09
4.9777e-09
2.33867e-09
-4.90081e-10
4.88183e-10
-2.33677e-09
-3.55247e-09
3.49283e-09
2.17261e-10
-1.57619e-10
8.96185e-10
-4.07093e-09
4.08428e-09
-9.09539e-10
9.16534e-11
-6.93909e-11
-3.01885e-09
3.07099e-09
-3.67838e-09
-3.2362e-09
-1.57101e-09
1.26579e-09
3.54142e-09
1.48339e-09
-6.60683e-10
5.48173e-10
-1.61458e-09
-4.04218e-09
1.45562e-09
5.81963e-11
-5.2345e-11
5.61994e-10
1.77952e-09
-2.4289e-09
-9.11401e-10
1.56078e-09
1.81283e-09
-3.7586e-09
-2.6678e-09
3.05686e-11
3.38709e-09
-7.28367e-12
7.58027e-12
4.611e-13
3.91307e-10
-3.40452e-10
-2.6113e-10
-3.4819e-09
-3.74592e-11
3.8296e-11
1.3646e-10
-4.98529e-10
7.55247e-10
-3.93179e-10
3.9195e-09
-9.77364e-10
1.85105e-10
-3.12724e-09
-4.145e-09
7.65738e-10
-5.89667e-10
3.00343e-09
-2.24206e-09
-1.30996e-09
5.48593e-10
3.35135e-09
-6.89635e-09
-2.00293e-09
5.54793e-09
-4.27672e-11
3.4552e-09
1.48037e-10
-3.56047e-09
5.98468e-09
7.53124e-11
9.13089e-11
-4.62133e-11
-4.13663e-09
-1.44572e-09
4.46797e-09
1.11438e-09
-8.60725e-10
2.64785e-09
5.88586e-10
-2.37571e-09
-4.05514e-09
-1.65839e-10
4.09729e-10
3.81125e-09
-3.72756e-09
3.92242e-09
3.80272e-09
-3.99758e-09
1.95042e-09
-2.29633e-10
-2.5926e-09
8.71815e-10
-2.59896e-09
1.53616e-09
-1.73494e-09
2.79774e-09
4.11926e-09
2.20226e-09
-5.14971e-09
-1.26067e-09
-2.42761e-09
3.18183e-09
5.06438e-10
7.94556e-10
-3.95179e-09
3.0042e-09
1.53033e-10
-5.03377e-09
1.03504e-10
7.8533e-10
4.14493e-09
-3.47744e-09
3.92182e-09
7.23542e-10
-1.16793e-09
1.56997e-09
-1.41848e-09
-2.28698e-09
2.13549e-09
3.28922e-09
-3.58578e-09
4.10868e-10
-1.14314e-10
1.92889e-09
-2.20705e-09
4.22575e-09
-3.94759e-09
-1.65308e-09
7.23472e-10
-3.13937e-10
1.24354e-09
-1.86862e-09
2.09543e-09
2.5409e-10
-3.33877e-10
2.96248e-10
-2.1646e-10
-1.0485e-10
1.00791e-09
-2.74111e-09
1.83806e-09
3.10049e-10
-2.17257e-09
2.29782e-09
-1.6376e-10
2.93698e-10
-2.80533e-10
1.50594e-10
-2.0992e-09
-1.40767e-09
2.05508e-09
1.45179e-09
1.95665e-10
7.57455e-10
-1.35443e-10
-8.17677e-10
3.28104e-09
-4.73506e-09
2.23054e-09
-7.76514e-10
-8.69025e-10
1.44355e-09
-3.41773e-09
2.8432e-09
2.05026e-09
-3.1525e-09
-4.1168e-10
-2.35589e-12
3.86743e-12
-9.60112e-11
9.44997e-11
1.64726e-09
-8.14861e-10
1.08973e-09
-1.58484e-09
-2.4658e-09
1.02936e-09
-3.53092e-09
3.48012e-09
-3.20364e-11
8.28343e-11
7.59219e-11
-6.82516e-11
3.66647e-09
-3.67414e-09
6.33903e-12
1.41302e-10
-1.70523e-12
-1.45936e-10
2.14475e-10
-2.44572e-10
-1.94752e-09
-1.82863e-09
1.996e-09
-3.2588e-09
3.58864e-09
-4.0574e-09
2.18138e-09
7.89161e-10
-3.41861e-09
4.48071e-10
2.98053e-09
-1.18121e-09
-2.48868e-09
-4.6959e-09
-1.06861e-09
1.06814e-09
-3.49789e-09
-1.92352e-09
3.40617e-09
2.01524e-09
3.57143e-09
-3.57659e-09
3.53132e-11
-3.01499e-11
8.65939e-10
6.64453e-09
-1.98913e-09
-5.52133e-09
-3.75629e-09
1.12464e-10
3.69254e-09
-4.87184e-11
-2.38914e-09
-2.84873e-09
2.90529e-09
2.33258e-09
3.29025e-09
-2.8563e-09
-1.58139e-09
-2.02398e-09
1.63477e-09
-1.0884e-09
1.47761e-09
-2.18427e-10
-2.95991e-09
3.17834e-09
3.31876e-09
-2.21487e-09
1.59996e-09
-5.88872e-09
3.43445e-09
8.54307e-10
6.15657e-12
6.55751e-12
-1.27141e-11
2.77036e-09
-3.76099e-09
-1.97555e-09
-2.05843e-09
-1.18343e-09
2.37841e-09
8.63445e-10
-1.10113e-09
9.87274e-10
-4.01056e-10
5.14913e-10
2.50281e-10
-4.07702e-09
3.98556e-09
-1.58819e-10
8.84641e-10
-5.52516e-10
3.1215e-09
-2.26228e-09
-2.96159e-09
2.55231e-10
-2.8516e-10
-4.14717e-11
-3.91458e-09
3.89561e-09
6.04356e-11
3.45565e-10
-3.85146e-09
-3.12279e-10
3.81817e-09
1.79333e-09
-2.33151e-09
2.06278e-09
-1.5246e-09
2.40733e-09
-3.66388e-09
1.593e-09
-3.36442e-10
1.60894e-09
8.92993e-10
-3.06062e-10
-2.19587e-09
2.55096e-09
8.32287e-11
-1.80772e-10
-2.36383e-09
2.33054e-09
-6.96727e-10
5.61488e-10
-4.92932e-10
6.2817e-10
6.50907e-10
-1.73275e-09
1.8177e-09
-7.35862e-10
-3.80542e-09
3.86743e-09
1.38176e-10
2.53617e-09
-2.48092e-09
1.91836e-09
-3.24399e-09
-1.33663e-09
2.66225e-09
-4.30282e-09
1.02681e-10
-2.00891e-10
4.40104e-09
1.51265e-11
-8.68506e-11
-6.23412e-10
5.20591e-09
1.147e-10
-4.6972e-09
3.25888e-10
-3.49652e-10
2.71075e-10
-2.4731e-10
3.58295e-11
-2.0558e-11
-3.12924e-11
4.03429e-11
6.1265e-10
3.44973e-09
-4.89812e-09
9.25508e-10
5.22882e-10
-1.5936e-09
1.99238e-09
1.49501e-09
1.94811e-11
-3.37285e-11
2.61225e-09
-2.34613e-09
-2.88875e-09
2.62263e-09
7.59028e-10
3.40368e-10
-2.06084e-10
2.18806e-09
-3.4106e-10
-3.79365e-09
1.94665e-09
2.42657e-10
-2.68589e-10
3.84941e-10
4.66645e-09
-4.36161e-10
5.78203e-12
-1.30355e-11
-3.07382e-11
3.79917e-11
-4.06009e-09
5.00846e-09
-3.33751e-09
1.02075e-10
-3.75332e-09
3.78313e-09
-2.19014e-09
2.03887e-09
-3.55356e-09
3.70482e-09
1.53259e-10
-3.18226e-09
2.25378e-11
3.00646e-09
-1.52433e-10
3.87192e-09
-3.86839e-09
1.48904e-10
-3.15824e-09
4.09159e-09
2.93436e-11
-9.62688e-10
-1.1768e-09
2.96234e-09
7.61663e-10
-2.54721e-09
4.19983e-09
-4.19813e-09
2.6177e-11
-2.78713e-11
3.91117e-09
-3.0621e-09
-1.27969e-09
2.20296e-09
-1.54631e-10
-1.89623e-09
-1.52104e-10
2.27034e-09
-1.2589e-09
-3.15663e-09
3.13829e-09
4.85871e-11
-3.02419e-11
3.5734e-09
-3.58389e-09
4.41816e-11
-3.36894e-11
-4.71545e-10
-1.31057e-09
6.80988e-10
-1.93413e-09
2.90475e-09
-3.38425e-09
1.84212e-11
3.36756e-09
-1.73814e-12
2.2896e-10
-2.46549e-10
-5.81549e-10
5.50212e-10
-5.9355e-10
5.73179e-10
-7.12622e-10
7.32993e-10
3.54349e-09
-3.5427e-09
2.84416e-11
-2.92305e-11
3.42124e-09
4.77439e-11
-4.84808e-11
-3.4205e-09
3.6169e-09
3.35143e-09
-3.0075e-09
-3.96083e-09
-2.79227e-09
3.35335e-09
-2.2119e-09
3.60368e-09
-3.57708e-09
-3.2071e-11
5.47684e-12
2.20407e-09
5.49965e-09
4.66056e-10
1.52727e-09
1.97686e-09
-1.09597e-09
-3.23847e-09
3.19472e-09
1.0681e-10
-6.30635e-11
-2.88537e-09
4.2413e-10
2.78942e-09
-2.53577e-09
-1.59175e-09
-1.01631e-10
2.82878e-09
-2.72715e-09
2.11822e-10
-2.53043e-10
4.3359e-11
-6.37078e-11
-4.03444e-09
-1.22031e-09
2.23591e-09
-2.4231e-09
2.80804e-09
3.56866e-09
-3.5387e-09
-4.43191e-11
1.43612e-11
5.3454e-10
-5.7282e-09
5.53957e-09
-3.45906e-10
-1.95015e-09
-5.49185e-10
8.71106e-10
-3.47183e-09
9.1666e-10
2.85902e-09
7.43994e-10
-1.06739e-09
-1.70058e-09
-2.40248e-10
-2.20613e-09
2.30372e-09
1.42657e-10
-4.54456e-09
-2.00724e-10
4.62738e-09
1.17907e-10
-5.32974e-09
-4.1112e-10
5.21143e-09
5.29434e-10
3.52689e-09
-3.50855e-09
-3.28965e-11
1.45614e-11
3.16683e-09
-4.14605e-11
-3.15748e-09
3.21092e-11
5.64117e-13
-4.0537e-09
-1.97585e-11
4.07289e-09
4.83363e-11
-4.96853e-11
2.60524e-12
-1.25624e-12
-1.34704e-10
6.5936e-11
4.27782e-09
-3.7884e-09
-3.03921e-10
5.39851e-10
3.80927e-09
4.48703e-09
-5.00968e-09
-3.28662e-09
6.04341e-11
-7.1185e-11
5.12643e-10
1.10911e-09
1.68842e-09
-1.35311e-09
-1.44442e-09
1.86438e-10
-2.11593e-10
3.51087e-09
-3.52008e-09
-5.20431e-12
1.44113e-11
4.63486e-11
1.45847e-10
-3.26458e-09
3.07239e-09
-1.74699e-09
-2.49238e-09
3.07727e-09
1.1621e-09
8.99785e-11
2.80054e-09
1.029e-10
-2.99342e-09
-3.4055e-09
-8.85693e-10
4.22313e-09
6.80684e-11
-5.45522e-09
5.78831e-09
-9.56497e-10
1.03861e-09
-1.19513e-09
-2.36255e-09
2.51907e-09
7.56121e-11
-4.96311e-11
2.59819e-11
-2.86599e-11
1.31707e-10
-1.29029e-10
3.50168e-09
-3.46485e-09
-6.76237e-11
3.07876e-11
-6.58548e-12
-2.57533e-09
2.58192e-09
6.26544e-11
-5.84406e-11
3.64987e-09
-3.65408e-09
1.40328e-09
2.97099e-09
-4.01051e-09
-3.63758e-10
-3.99265e-11
-2.41073e-09
4.66399e-11
2.40402e-09
-6.80879e-11
1.69335e-11
-2.56305e-11
7.67848e-11
3.40875e-09
-3.37384e-09
-6.19605e-11
2.70527e-11
4.03189e-09
-2.04427e-09
4.43195e-11
1.68514e-10
-1.89737e-10
-3.38639e-09
3.47316e-09
4.00784e-11
-1.26847e-10
-3.71431e-09
4.02636e-09
-7.49584e-10
4.37539e-10
3.99078e-09
4.9759e-09
-5.15741e-09
3.33561e-09
-3.32281e-09
-1.1517e-11
-1.278e-12
1.52926e-10
-3.34944e-09
3.2543e-09
-3.19068e-09
-8.01776e-11
-6.97284e-11
3.34059e-09
2.33947e-09
7.85506e-11
-6.60925e-09
4.19123e-09
-3.40826e-09
-9.94528e-11
3.54831e-09
-4.05963e-11
9.27347e-09
-7.62018e-09
-1.65329e-09
8.17572e-10
-4.97644e-09
5.49143e-09
-3.89879e-09
2.46687e-09
-1.95107e-09
-2.47539e-09
2.1979e-09
2.22856e-09
-4.25304e-09
-5.33759e-09
3.36271e-09
-2.83724e-09
2.72486e-09
1.33505e-09
-1.48124e-09
4.71623e-10
-3.25434e-10
-2.21764e-09
2.79629e-09
-5.78642e-10
1.29938e-09
-4.11565e-09
-4.98349e-10
1.79851e-09
-2.05075e-10
-1.30465e-09
3.50224e-09
-3.50359e-09
2.93084e-11
-2.7955e-11
7.92733e-11
-8.90313e-11
1.75833e-11
-7.82525e-12
1.477e-10
-1.57513e-10
-3.72399e-09
7.52551e-11
3.74718e-09
4.78797e-09
-4.75487e-09
-4.49012e-11
1.18054e-11
2.52943e-09
-2.56018e-09
-3.13297e-09
2.95584e-09
-1.76719e-10
3.53847e-10
1.24618e-09
-1.16424e-09
-5.37227e-09
5.29032e-09
4.22629e-09
-4.19313e-09
2.64223e-11
-5.95797e-11
-2.36583e-09
2.2728e-09
2.52895e-09
-5.39425e-09
1.2004e-09
4.16843e-09
2.5419e-11
-6.41519e-11
6.71372e-11
-6.09571e-12
3.11036e-12
-3.1672e-10
1.75451e-10
-1.8381e-10
8.365e-11
-3.72596e-09
3.66162e-09
-1.93089e-11
-4.23523e-09
4.35191e-09
-2.1424e-10
9.75633e-11
-4.36904e-09
2.41327e-10
3.98372e-09
1.43988e-10
-1.3752e-09
-1.31748e-09
9.69335e-10
1.72335e-09
-3.14293e-09
1.23142e-09
-1.20852e-09
1.5492e-10
-2.3023e-10
-4.33204e-09
3.82915e-09
-9.93971e-10
1.49686e-09
1.78799e-09
-1.70177e-09
2.62851e-09
-2.71473e-09
-4.88503e-11
3.46981e-09
-3.45239e-09
3.39687e-09
-3.04736e-11
8.599e-11
-3.82489e-11
-3.86023e-09
3.8382e-09
6.02826e-11
-3.54749e-09
2.87522e-09
3.3014e-09
-2.62913e-09
3.40058e-11
-1.87444e-11
4.50824e-09
-4.51722e-09
5.09807e-11
-4.20011e-11
3.34989e-09
2.5991e-10
-3.55299e-09
-5.68135e-11
-2.61286e-09
-3.78232e-11
2.65068e-09
-3.09444e-09
2.92649e-09
-2.44492e-09
6.38466e-11
-2.68979e-10
-2.31849e-09
2.0084e-09
1.12212e-09
-8.12031e-10
-1.04327e-10
-3.77345e-09
1.89408e-10
3.68837e-09
2.86518e-09
-4.6792e-09
2.83153e-09
-1.0175e-09
-3.24217e-09
2.35935e-09
-1.06825e-09
1.53183e-09
-1.52621e-09
-1.94214e-09
1.93653e-09
-2.33563e-09
-1.82539e-09
2.21349e-09
-1.11675e-10
2.21711e-10
-3.3953e-09
3.28526e-09
2.42253e-09
2.23976e-09
-1.4202e-09
-9.63387e-11
1.47019e-10
-4.3535e-09
-1.85312e-10
-3.64951e-09
7.85329e-11
-2.14567e-10
-3.54429e-09
4.15617e-10
1.5522e-09
-2.21242e-09
-2.88727e-09
1.93499e-09
-2.88388e-09
2.47626e-09
-1.52737e-09
1.37033e-11
-4.67199e-11
-1.07752e-09
4.4608e-10
-1.96166e-09
2.5931e-09
-5.72089e-09
9.502e-10
-8.41645e-10
3.47385e-09
-1.06565e-11
-2.62155e-09
3.44448e-09
-1.31754e-09
5.00911e-10
-2.62786e-09
-2.1733e-11
-9.57873e-11
-6.15388e-12
1.23674e-10
-2.07211e-09
-1.42092e-09
1.39384e-09
3.35064e-09
-3.37436e-09
2.25435e-11
1.17654e-12
4.51961e-09
4.68117e-11
-5.81847e-11
9.84615e-09
-2.12468e-09
-6.85553e-09
1.00863e-09
1.37972e-09
-9.48798e-10
-4.01948e-09
1.73286e-09
-9.70811e-10
3.25743e-09
-6.06849e-09
1.15359e-09
5.75897e-09
-8.44073e-10
2.82239e-09
-1.17983e-09
2.73654e-10
-1.91621e-09
-3.81001e-11
4.14331e-09
-4.20155e-09
4.50124e-09
5.437e-11
-3.59943e-11
-4.48027e-09
3.19945e-11
-6.89473e-11
3.24191e-09
1.49875e-11
-3.79558e-12
-3.2531e-09
-2.59499e-09
1.3534e-10
-4.79003e-10
2.93866e-09
2.90643e-09
-1.98098e-09
1.49708e-09
-3.87878e-09
6.66135e-10
-2.58266e-11
1.19963e-10
-1.31534e-10
2.06976e-11
-9.1269e-12
-3.75509e-09
-3.01439e-10
6.16979e-10
3.43955e-09
-8.0568e-10
9.08802e-10
5.65835e-11
-2.33062e-11
-4.51354e-09
-1.23993e-10
7.96294e-12
-1.79466e-11
1.33976e-10
-1.08691e-09