/*--------------------------------*- C++ -*----------------------------------*\
  =========                 |
  \\      /  F ield         | OpenFOAM: The Open Source CFD Toolbox
   \\    /   O peration     | Website:  https://openfoam.org
    \\  /    A nd           | Version:  8
     \\/     M anipulation  |
\*---------------------------------------------------------------------------*/
FoamFile
{
    version     2.0;
    format      ascii;
    class       volVectorField;
    location    "3.6";
    object      U;
}
// * * * * * * * * * * * * * * * * * * * * * * * * * * * * * * * * * * * * * //

dimensions      [0 1 -1 0 0 0 0];

internalField   nonuniform List<vector> 
5101
(
(0.000668288 0.00101138 0)
(0.000853886 0.0013143 0)
(0.000740525 0.00116406 -9.26756e-24)
(0.000855053 0.00142578 -2.6164e-24)
(0.000723534 0.00111298 -1.57215e-21)
(0.000676253 0.00121288 8.42414e-22)
(0.000729156 0.00116117 1.10946e-22)
(0.000474112 -3.00038e-05 -6.19624e-24)
(0.000703266 0.00119701 2.59824e-24)
(0.000651136 0.00105903 0)
(0.000600237 0.0010922 -1.0066e-21)
(0.000675644 0.00121362 1.02667e-21)
(0.000683376 0.00120437 -1.58661e-23)
(0.000608475 0.00123353 -4.55809e-22)
(0.000768363 0.00149092 1.06089e-21)
(0.000884884 0.00145959 1.38801e-21)
(0.00084619 0.00151669 0)
(0.000924689 0.00140854 0)
(0.000862395 0.0014336 3.32834e-21)
(0.000334777 0.000776933 0)
(0.000769203 0.00123133 0)
(0.000676144 0.00121893 4.51604e-22)
(0.000863181 0.00130785 1.15843e-23)
(0.000687194 0.00120883 7.1162e-22)
(0.000731454 0.00131598 7.90776e-22)
(0.000630048 0.00124887 1.91434e-21)
(0.000811344 0.00146173 1.57886e-21)
(0.000771927 0.0013605 0)
(0.000606852 0.00109756 -1.66534e-21)
(0.000588121 0.00109912 3.26864e-21)
(0.000865328 0.00144632 1.51976e-21)
(0.000636705 0.00100193 -1.0013e-23)
(0.000701493 0.00116862 -6.20517e-22)
(0.000505686 0.000791128 -2.16718e-21)
(0.000803982 0.00121243 -1.66888e-21)
(0.000478148 0.00080942 1.91312e-21)
(0.000693116 0.00132655 1.22072e-21)
(0.000755819 0.00123185 0)
(0.000610028 0.00107125 1.56316e-21)
(0.00103657 0.000405904 8.06823e-22)
(0.00088642 4.7002e-05 2.14541e-22)
(0.000707356 0.0012121 -2.24654e-22)
(0.000871819 0.00144909 0)
(0.000857673 0.00146857 1.23883e-21)
(0.000625463 0.00108154 -1.057e-21)
(0.00083815 0.00128046 8.99896e-22)
(0.00063863 0.00109037 9.98041e-24)
(0.000631157 0.00102592 5.20517e-22)
(0.000649928 0.00113299 1.38522e-23)
(0.000781124 0.00137293 -9.1126e-22)
(0.000877307 0.00146126 0)
(0.00064821 0.00131125 -1.90868e-21)
(0.000764914 0.00121602 0)
(0.000711452 0.0011907 1.41607e-22)
(0.000716311 0.000149031 -2.25738e-24)
(0.000602381 0.00109094 0)
(0.000513446 0.000921277 2.6769e-22)
(0.000198138 0.000617525 3.60128e-22)
(7.79282e-05 0.000344424 3.39787e-22)
(0.000568978 0.00101949 4.12255e-22)
(0.000721888 0.00117628 -3.23756e-22)
(0.000906932 0.001386 0)
(2.81224e-05 8.02674e-06 0)
(0.000801097 0.001463 0)
(0.000782031 0.00135118 -1.66469e-21)
(0.000542031 0.00109236 -2.37268e-21)
(0.000708289 0.00115036 4.44727e-22)
(0.000800794 0.00149939 0)
(0.000698334 0.0012599 1.20951e-21)
(0.000961969 5.97149e-05 1.33868e-21)
(0.000676381 0.00121372 -8.47541e-22)
(0.000290867 0.000778866 2.3194e-21)
(5.34357e-05 0.000207924 -1.80922e-21)
(0.000756917 0.00134403 -2.44177e-21)
(0.000594447 0.00104788 6.13938e-22)
(0.000831286 0.000796838 1.36645e-21)
(0.000661088 0.00101091 4.88999e-22)
(0.000396087 0.000766029 0)
(0.000244775 0.000529267 -8.1539e-22)
(0.00067687 0.00121153 -3.84059e-22)
(4.09278e-05 0.000200923 2.19876e-21)
(0.000598868 0.0010885 3.53446e-22)
(0.000588187 0.0010422 0)
(0.000629691 0.00112008 -2.68276e-21)
(0.000619796 0.000205385 4.26495e-21)
(0.000735918 0.00129318 4.63038e-22)
(0.000641922 0.00109912 -4.89204e-22)
(0.00086305 0.0014226 5.91511e-22)
(0.0005955 0.0011361 2.90385e-21)
(0.000865522 0.00148966 6.48938e-22)
(0.000526389 0.000773606 -7.20996e-22)
(0.000684126 0.00119492 0)
(0.000729567 0.0013111 -2.34438e-21)
(0.00079206 0.00137831 -4.80095e-22)
(0.000742768 0.00129086 -2.24319e-21)
(0.000516999 0.000975555 0)
(0.000459525 0.000742827 -3.79205e-21)
(0.000633576 0.00110303 -1.03227e-21)
(6.53527e-05 0.000278124 0)
(0.000769118 0.00139215 -8.52542e-22)
(0.000790455 0.00137844 1.85398e-21)
(0.00101025 0.000258184 -2.74673e-21)
(0.000702153 0.00122306 -4.66826e-22)
(0.000708778 0.00117524 0)
(0.000602492 0.00105805 1.28471e-21)
(0.000280272 0.000708766 -2.48034e-21)
(0.000659974 0.00114717 7.71307e-22)
(0.000735744 0.00112674 -1.20327e-21)
(0.000576275 0.000485077 0)
(0.000423535 0.000778805 -2.9763e-23)
(0.000590145 0.00102901 0)
(0.000591836 0.00102925 0)
(0.000799662 0.00139265 0)
(0.000620113 0.00118007 0)
(0.000659919 0.00110703 3.83564e-22)
(0.000530158 0.000805245 1.58609e-21)
(0.00051783 0.000750064 5.96851e-22)
(0.000648785 0.00108511 2.44908e-22)
(0.000517597 0.000895925 2.51395e-21)
(0.000589097 0.00102657 3.34966e-22)
(0.00070291 0.00122146 2.66136e-22)
(0.000375547 0.000654858 6.40883e-22)
(0.000117021 0.000718215 1.43348e-21)
(0.000644167 0.00102706 1.26907e-21)
(0.000572205 0.00101986 5.62366e-22)
(3.04536e-05 6.54026e-06 1.9544e-22)
(0.000612637 0.00105848 -6.65362e-22)
(0.00068735 0.00118188 4.60001e-22)
(7.99919e-05 0.000187921 -1.57238e-21)
(0.000695992 0.00102272 0)
(0.000741842 0.0012869 2.71087e-21)
(0.000645306 0.00110507 0)
(0.000623035 0.00117876 3.64518e-21)
(0.000343769 0.000141739 -2.86896e-21)
(0.000668572 0.00116411 2.41898e-21)
(0.000849676 0.00152752 0)
(0.00108998 0.000135608 3.22796e-21)
(0.000570843 0.00109068 5.8917e-21)
(0.000586602 0.00103248 1.10982e-22)
(0.000443462 0.000571258 0)
(0.000440036 0.000908625 5.38205e-21)
(0.000440293 0.000969841 1.85479e-21)
(0.00100782 0.000370944 0)
(0.00054587 0.000914607 -1.21752e-21)
(0.00043921 0.000769221 -3.64851e-23)
(0.000641467 0.00122198 -7.19004e-22)
(0.000276361 0.000477363 0)
(0.00068973 0.00119652 1.96311e-23)
(0.000487998 0.00101876 -3.31536e-21)
(0.000273434 0.000663638 -2.7056e-21)
(0.00063311 0.00115802 4.14898e-21)
(0.000806567 1.54042e-05 -3.05846e-21)
(0.00074489 0.00117841 0)
(0.000652757 0.00112355 -3.77426e-22)
(0.000538691 0.00105466 0)
(0.000853837 0.00140188 -3.8446e-21)
(0.000564786 0.00101867 7.13987e-22)
(0.000831486 0.000822509 -1.77282e-21)
(0.00064736 0.00112516 0)
(0.000648404 0.00112571 7.69686e-22)
(0.000626107 0.00112654 5.54379e-23)
(0.00033223 0.000726347 0)
(0.000643011 0.00109828 -5.70522e-22)
(0.000640514 0.00119852 -1.65644e-21)
(0.00056731 0.00109016 -1.41672e-21)
(0.0008088 0.00140331 0)
(0.000519812 0.000894515 -6.10355e-22)
(0.000570752 0.00108216 0)
(0.000865621 0.00142881 4.67166e-22)
(0.000636272 0.00072753 5.00148e-21)
(0.000603292 0.00102565 7.37083e-24)
(0.000607942 0.0010418 -7.66922e-22)
(0.000618855 0.00102147 0)
(0.000637863 0.00118365 1.74915e-21)
(0.000616963 0.00110221 5.05196e-22)
(0.000738988 0.00122195 1.04135e-21)
(0.000702772 0.00122036 5.45695e-22)
(0.000800399 7.03797e-05 -1.09589e-21)
(0.000503642 0.000878515 -8.31529e-22)
(0.000791648 0.00124599 0)
(0.000593191 0.001115 2.9217e-21)
(0.000609833 0.00102403 5.90868e-23)
(0.000621744 0.00100136 2.01178e-21)
(0.00062372 0.000819747 4.32735e-21)
(0.000388701 0.000719306 -6.01777e-21)
(0.000644077 0.0011118 -1.66209e-21)
(0.000741966 0.000328527 3.1075e-21)
(0.000637791 0.00107204 9.41044e-22)
(0.000664582 0.00115687 -2.45074e-21)
(0.000668756 0.00115889 1.50384e-21)
(0.000610355 0.00114136 1.49719e-21)
(0.000696682 0.00121007 0)
(0.000618908 0.000772781 3.70584e-24)
(0.00086505 0.000888109 -5.17585e-21)
(0.000721129 0.00122635 5.37169e-22)
(0.00085797 0.00149388 -2.20339e-22)
(0.000322223 -0.000331283 8.25014e-22)
(0.000528096 0.001201 9.7476e-22)
(0.000592335 0.00102657 1.67716e-22)
(0.000669222 0.00123125 -5.77941e-23)
(0.000518989 0.000896376 -1.40919e-21)
(0.000525959 0.00104516 -1.5024e-21)
(0.000820604 0.00153881 -3.31278e-21)
(0.000795433 0.000811001 -1.74775e-21)
(0.000621626 0.000352191 4.66535e-21)
(0.000695359 0.00120763 9.41423e-22)
(0.000954866 0.00103741 1.52841e-21)
(0.000620853 0.00112477 4.87048e-22)
(0.000966576 0.000145811 -6.65319e-21)
(0.000702504 0.00122032 -4.37649e-22)
(0.00076424 0.00140182 9.16343e-22)
(0.000622083 0.00113518 2.24013e-22)
(0.00086438 0.00149287 0)
(0.000817481 0.000610578 -3.20532e-21)
(0.000704842 0.00122809 0)
(0.000583744 0.00102103 2.50627e-22)
(0.000565717 0.00105916 3.62932e-21)
(0.000542873 0.000775471 0)
(0.000721373 0.0012599 -2.60778e-22)
(0.00056931 0.000955339 9.37273e-23)
(0.000697457 0.00123574 -2.17106e-22)
(0.000622051 0.00102161 -6.39497e-22)
(0.000622352 0.00102475 -4.72576e-22)
(0.000621474 0.0010998 1.53399e-21)
(0.000459658 0.00126029 -1.29673e-21)
(0.00097243 4.0317e-05 5.41806e-22)
(0.000624855 0.00108384 1.27572e-21)
(0.000557346 0.00104529 -5.50403e-21)
(0.000701317 0.00121957 -6.39868e-22)
(3.32073e-05 2.55303e-06 1.5548e-21)
(0.000110044 0.000756435 1.37524e-21)
(0.000704059 0.00125492 -4.06492e-22)
(0.000676606 0.00119168 8.36483e-22)
(0.000692375 0.00120026 9.44345e-22)
(0.000476572 0.000985029 7.97436e-22)
(0.000641473 0.000277428 -2.20363e-22)
(3.36498e-05 3.79334e-06 -2.31785e-23)
(0.000557041 0.000938417 -6.76318e-22)
(0.000649472 0.00112873 0)
(0.000665373 0.00113293 0)
(0.000699819 0.0012192 0)
(3.75522e-05 2.2564e-06 -3.18592e-21)
(7.06897e-05 0.000119127 3.96498e-25)
(0.000852117 0.00152198 0)
(0.000597841 0.0010399 -1.64733e-21)
(0.000583928 0.00101421 4.11325e-22)
(0.000605058 0.00106831 -4.87958e-23)
(0.00060094 0.000928202 -1.29885e-21)
(0.000688672 0.00119497 -3.60296e-21)
(0.000789167 0.0013765 0)
(0.000583899 0.00101294 3.53891e-21)
(0.000759259 0.00134403 -5.40602e-23)
(0.000719945 0.00126013 5.48023e-23)
(0.000596632 0.0010384 -1.19851e-21)
(0.000573248 0.00102222 -1.97612e-21)
(0.000610137 0.00107202 -1.78774e-21)
(0.000603831 0.00105375 -1.78294e-21)
(0.000631587 0.0011106 0)
(0.000718386 0.00128371 -7.27192e-22)
(0.000993836 0.000328944 -7.96701e-25)
(0.000500335 0.000873554 0)
(0.000705331 0.00124598 1.06052e-21)
(0.000604987 0.00105699 -3.27467e-22)
(0.000622342 0.00107807 -5.60079e-24)
(0.000616986 0.00105805 9.27432e-25)
(0.000371682 0.00064497 -1.93311e-21)
(0.000664829 0.00116011 3.50636e-22)
(0.000681222 0.00122477 -9.96831e-22)
(0.000765186 0.00134352 0)
(6.70269e-05 0.000658944 0)
(0.000629799 0.00112525 -3.11749e-21)
(0.000651018 0.00116384 -7.55983e-22)
(0.00107528 0.000829786 3.60057e-21)
(0.000853565 0.0014709 0)
(0.000262198 0.000402475 -3.36082e-21)
(0.000852971 0.00108762 -2.31812e-21)
(0.000534638 -0.000490367 -1.72654e-21)
(0.000520154 0.000784179 0)
(0.000697204 0.00121727 -9.03832e-22)
(0.000695903 0.00121338 -1.94869e-22)
(0.000591685 0.00097956 -1.03759e-21)
(0.000717646 0.00106926 0)
(0.000618642 0.00108469 0)
(0.000785795 0.00151437 -2.27162e-21)
(0.000558002 0.000966181 -5.03343e-21)
(0.000676863 0.00126108 1.37217e-21)
(0.000582319 0.00109258 -5.24341e-21)
(0.000515109 0.000888656 6.50674e-22)
(0.000805015 0.0014076 7.02063e-22)
(0.000450352 0.00106765 -2.73369e-21)
(0.000596844 0.00104762 -2.2557e-21)
(0.000534493 0.00110434 -3.18422e-22)
(0.000598464 0.00104724 2.25389e-21)
(0.000669517 0.000631344 4.86897e-21)
(0.00051279 0.000893436 1.37158e-22)
(3.65982e-05 3.19767e-06 -4.57847e-23)
(0.000668863 0.00110509 -2.74913e-23)
(0.000825149 0.00143444 -5.61878e-22)
(0.000719006 0.00120616 1.04561e-21)
(0.000626339 0.00108675 3.81691e-21)
(0.000996851 0.000378955 -5.88491e-22)
(0.000119647 0.000772704 9.08128e-22)
(0.000739609 0.00128826 -2.82379e-21)
(0.000656237 0.00119793 -2.02262e-24)
(0.000520668 0.000967762 8.84863e-23)
(0.000595919 0.0011299 9.42061e-22)
(0.000616935 0.00101545 -1.02574e-21)
(0.000262228 0.000729669 1.65597e-21)
(0.00065118 0.00109814 2.12686e-23)
(0.000682791 0.0011836 -2.68989e-21)
(0.000647548 0.00107897 -8.61e-22)
(0.00069317 0.00125253 -5.17784e-23)
(0.000877083 0.00154422 0)
(0.000826079 0.00143835 7.44662e-22)
(0.000516537 0.000889972 3.2121e-22)
(3.69254e-05 1.80657e-06 0)
(0.000621471 0.00100249 -1.06589e-23)
(0.000254754 0.000874264 -2.33668e-22)
(0.000514858 0.000892032 2.92948e-21)
(0.000921463 0.000556363 2.65088e-21)
(0.000686408 0.00121541 -2.82444e-21)
(0.000631772 0.00126969 -1.14656e-21)
(0.000547966 0.000767893 8.98068e-22)
(0.000704721 0.00123185 -1.18228e-21)
(0.000868866 0.00142963 4.05766e-22)
(0.00081701 0.00142797 0)
(0.00053515 0.000497863 0)
(0.000691595 0.00120405 2.86637e-21)
(0.000395927 0.00102376 -2.65109e-21)
(0.000700419 0.00120725 3.904e-22)
(0.000883486 0.00156639 -1.07166e-22)
(0.000729305 0.00125972 0)
(0.000966798 0.000401476 -1.6915e-21)
(0.000378211 0.000849311 2.75308e-23)
(0.000877972 0.00145306 3.65529e-22)
(0.000317092 0.000113833 -2.80796e-21)
(0.00066316 0.00115234 0)
(0.000703882 0.00117792 0)
(0.000582621 0.00104976 6.64024e-21)
(0.000669044 0.00116921 -3.39926e-21)
(0.000642958 0.00118643 6.1515e-22)
(0.000728208 0.00125837 0)
(0.000728858 0.00121875 3.40177e-22)
(0.000706402 0.0012672 1.08874e-23)
(0.000722148 0.00125763 -5.65856e-22)
(0.000624389 0.00104831 2.19526e-21)
(0.000540829 0.000882886 -8.38146e-22)
(0.000607745 0.00101817 7.09405e-22)
(0.000806602 0.00142077 1.43585e-21)
(0.00053862 0.000448338 -1.00349e-21)
(0.000647453 0.000540875 -1.41777e-21)
(0.000492398 0.000918133 -9.57333e-22)
(0.000617993 0.00106343 0)
(0.000917595 0.00152739 -1.80739e-22)
(0.000556676 0.00103052 -2.91537e-22)
(0.000615232 0.00083668 -1.66407e-22)
(0.000556651 0.000829261 0)
(0.000690279 0.00125381 3.43726e-23)
(0.000710568 0.000870712 0)
(0.000843116 0.00152704 -8.83147e-23)
(3.65094e-05 0.000169261 3.73091e-21)
(0.000863782 0.00147462 5.67285e-22)
(0.000890349 0.000177996 1.98193e-21)
(0.000727779 0.0011738 0)
(0.000488198 0.000881255 -6.38619e-22)
(0.000817712 0.00144583 -8.6273e-22)
(0.000585138 0.00109569 -1.53924e-21)
(0.000561849 0.001101 3.20792e-22)
(0.000280523 0.00068547 -1.9628e-21)
(0.000583835 0.00100549 -7.93766e-22)
(0.00073869 0.000946888 -1.24044e-21)
(0.000446537 0.000905986 2.80382e-21)
(0.000604825 0.00107327 1.47319e-21)
(0.00079267 0.00138498 -1.07571e-21)
(0.000559707 0.00104947 1.3115e-21)
(0.000562718 0.00105275 -3.70567e-21)
(0.000463875 0.000907256 1.54269e-21)
(0.000814098 0.00147207 4.29174e-22)
(0.000575896 0.00102697 7.66114e-22)
(0.00076506 0.00135511 2.67241e-21)
(0.000612279 0.00111202 1.39923e-23)
(0.000585233 0.00107732 3.29353e-21)
(0.000580523 0.00104847 -1.666e-21)
(0.00059719 0.00104996 0)
(0.000727131 0.00127403 -4.7035e-22)
(0.000805371 0.00145347 -1.34415e-23)
(0.000571436 0.00102255 0)
(0.000769979 0.0013429 0)
(0.000620607 0.00110445 3.14083e-21)
(0.000725399 0.00126495 -4.40655e-22)
(0.000586777 0.00107036 -2.76944e-21)
(0.000594632 0.00104767 -2.25002e-21)
(0.000795379 0.00144658 -3.15797e-22)
(0.00077133 0.00133788 -1.15262e-21)
(0.000723604 0.00126014 -7.60957e-22)
(0.000768876 0.00133625 1.04429e-21)
(0.000762783 0.00133775 9.41115e-22)
(0.000820842 0.00142185 2.32785e-21)
(0.000615359 0.000303861 -2.51427e-21)
(0.000617674 0.00106194 1.5411e-21)
(0.000653469 0.0011817 -3.84727e-21)
(0.000370425 0.000678061 9.16481e-22)
(0.000696301 0.00119148 -6.03265e-22)
(0.000623895 0.00108595 1.20822e-21)
(0.000674499 0.00120669 -1.19448e-21)
(0.000874303 0.00151236 0)
(0.000806641 0.00143082 0)
(0.000707117 0.000772786 2.54172e-21)
(0.000614509 0.00105431 2.44712e-21)
(0.000516068 0.000189837 -5.82983e-21)
(0.00038466 0.000713421 0)
(0.000686807 0.00120133 5.86156e-22)
(0.000977643 0.000321612 -4.09634e-24)
(0.000460871 0.000748999 -2.24355e-21)
(0.000849265 0.00148373 2.1387e-22)
(0.000860794 0.00151007 -1.98445e-22)
(0.000582829 0.00111107 2.93192e-23)
(0.000603435 0.00103927 -7.91576e-22)
(2.17336e-05 -2.86536e-05 0)
(0.000466897 0.000911983 2.82884e-22)
(0.000458156 0.000897208 -3.20056e-22)
(0.00052175 0.000899977 -2.89646e-21)
(0.000517119 0.000931131 3.10394e-22)
(0.000660575 0.00124524 3.20753e-24)
(0.000651857 0.00114919 -1.40903e-21)
(0.000725484 0.00125874 -1.77632e-22)
(5.53195e-05 -3.38057e-05 6.95051e-25)
(0.000623392 0.00101706 0)
(0.000674724 0.00118893 0)
(0.000574279 0.00106208 -2.33365e-21)
(0.0008568 0.00147792 5.03042e-22)
(0.000551755 0.0010589 3.06625e-23)
(0.000589905 0.00114471 0)
(0.00124619 0.00128187 -1.34105e-21)
(7.5445e-05 0.000456743 8.10903e-24)
(0.00059004 0.00100869 8.33502e-22)
(0.00124828 0.000492516 0)
(0.000554426 0.000916768 0)
(0.00054676 0.00090113 -1.14022e-21)
(0.000605284 0.00103131 -1.43308e-22)
(0.000659727 0.00110254 -3.66019e-22)
(0.000650985 0.00108289 0)
(0.000806331 0.00154932 7.13829e-23)
(0.000764548 0.00137455 -2.08282e-21)
(0.000719437 0.00128579 -7.45339e-22)
(0.000578924 0.00103601 -1.57892e-21)
(0.00039953 0.0007079 0)
(0.000886684 0.00155378 1.04428e-22)
(0.000733398 0.00127904 -2.21102e-21)
(0.000624494 0.00110747 0)
(0.000574825 0.00106115 -1.31559e-21)
(0.000588863 0.00107796 -1.01188e-21)
(0.000601899 0.00105539 -2.02189e-21)
(0.000631783 0.00111988 0)
(0.00062645 0.00115349 -1.22663e-21)
(0.000537248 0.00103156 -2.54477e-22)
(8.91707e-05 0.000518494 -9.62614e-24)
(0.000500434 0.00121392 7.15285e-22)
(0.00158495 0.000479241 1.15991e-21)
(0.000721848 0.00125632 6.13406e-22)
(0.000683732 0.00120315 -1.12322e-21)
(0.000726702 0.00116675 1.27413e-21)
(0.00039036 0.000887533 -2.85259e-21)
(0.000734502 0.00145679 3.10177e-23)
(0.000566828 0.000483338 0)
(0.00048323 0.000902219 -1.03462e-21)
(0.000790417 0.00137633 0)
(0.000727644 0.00126619 6.557e-22)
(0.000634113 0.00109345 -3.81348e-22)
(0.000879627 0.00155384 -1.0271e-22)
(0.000607977 0.00108818 -5.27226e-23)
(0.00059817 0.00106927 -2.29504e-21)
(0.000398372 0.000589657 -1.18763e-21)
(0.000600565 0.00111528 2.61781e-21)
(0.000679114 0.0011394 0)
(0.000136438 0.000366376 -1.17086e-21)
(0.000710456 9.75685e-05 3.54254e-24)
(0.000611804 0.000509556 -5.50978e-21)
(0.00069557 0.00120586 1.0489e-21)
(0.000731695 0.00116958 0)
(0.00071935 0.00126397 2.321e-22)
(0.000721393 0.00125578 6.56377e-22)
(0.000992617 0.000164659 -1.89522e-21)
(0.000457978 0.000556482 -2.72073e-21)
(0.00045837 0.000760524 -2.9031e-21)
(0.000838568 0.0015253 9.79048e-22)
(0.00060259 0.00105513 -1.95054e-22)
(0.000702489 0.00126347 -1.88428e-21)
(0.000623797 0.00102075 -2.13528e-21)
(0.000802014 0.0013246 1.06e-21)
(0.000729075 0.00116654 -5.70685e-22)
(0.000159474 0.000730997 0)
(0.000710975 0.00121938 -1.78203e-23)
(0.000583673 0.00125335 -4.63929e-23)
(0.000439802 0.000853539 -1.06051e-21)
(0.000823025 0.00142527 -1.95578e-21)
(0.000370723 0.000694208 2.00607e-22)
(0.000596218 0.00104625 3.53944e-22)
(0.000171927 0.000849256 0)
(0.000638583 0.00105899 -4.57839e-22)
(3.79833e-05 0.000232632 0)
(0.00063226 0.00107653 -1.09627e-21)
(0.000677307 0.00112588 -1.04736e-21)
(0.000691302 0.001199 -8.14458e-22)
(0.000805887 0.00141542 1.34783e-22)
(0.000741892 0.00121843 6.49512e-22)
(0.00107295 0.000165703 -1.84066e-23)
(0.000681136 0.00118093 0)
(0.00062183 0.00098959 -6.44027e-22)
(0.000738262 0.00122546 0)
(0.000411119 0.000737107 2.68296e-21)
(0.000625414 0.00107628 2.55441e-21)
(0.000695358 0.00127171 -3.95437e-22)
(0.000687119 0.0011919 2.30209e-21)
(0.000561389 0.00102036 3.55643e-22)
(0.00057351 0.00101303 1.24655e-21)
(0.00058253 0.00101758 1.03028e-21)
(0.000713845 0.00126833 -5.55165e-23)
(0.000589528 0.00102428 -5.91928e-22)
(0.000647504 0.00115239 9.2712e-22)
(0.000635812 0.00110519 0)
(0.000491821 0.00114855 3.96825e-24)
(0.000684228 0.0012068 1.97068e-21)
(0.000892985 0.00153426 -5.23541e-22)
(0.000709355 0.00121365 0)
(0.00044972 0.00071635 1.32651e-21)
(0.000443249 0.000703153 0)
(0.00058307 0.00105512 -8.27556e-22)
(0.000574323 0.00026972 1.50559e-21)
(0.000163545 0.000726324 2.02527e-21)
(0.000537166 0.00108102 6.19437e-22)
(0.000662301 0.00110707 1.34776e-22)
(0.000719642 0.00125536 0)
(0.0006071 0.00115603 2.78106e-22)
(0.00058803 0.00104984 1.46364e-21)
(0.000636721 0.00118417 -1.79968e-21)
(0.000634768 0.00113771 -2.48251e-21)
(0.00030981 0.00061911 4.94655e-22)
(0.000807743 0.0013832 -1.18648e-21)
(0.00064941 0.000320326 0)
(0.000658724 0.00114859 1.92581e-22)
(0.000604913 0.00108273 7.48446e-22)
(0.000627968 0.00108855 2.70155e-21)
(0.000446608 0.000764414 -1.20655e-21)
(0.000440861 0.000758435 -7.44503e-22)
(0.000443719 0.000752823 0)
(0.000452942 0.000745504 5.49605e-22)
(0.000450003 0.000740221 -6.43401e-22)
(0.000410113 0.000667075 0)
(0.000426482 0.000731902 9.1586e-22)
(0.000428575 0.000715578 1.14692e-21)
(0.000442886 0.000711576 2.82313e-21)
(0.000433535 0.000692293 3.9491e-21)
(0.000498026 0.000784091 -9.90627e-22)
(0.000475286 0.000770089 -4.45321e-23)
(0.000494831 0.000868013 2.32007e-21)
(0.000614559 0.00107004 8.77889e-22)
(0.000719762 0.00124019 -8.49353e-22)
(0.000628126 0.0010848 -1.06193e-21)
(0.000722825 0.00130866 1.266e-21)
(0.000346198 0.000647009 0)
(0.000318584 0.000868443 1.9371e-21)
(0.000575492 0.000337388 -2.1377e-21)
(0.000691152 0.00127578 1.09717e-21)
(0.000363923 0.00119156 -1.39729e-21)
(0.000805756 0.0014192 -2.44869e-22)
(0.000714767 0.00128042 -3.19233e-22)
(0.000322265 0.000528879 4.57646e-21)
(0.000738416 0.0012456 8.92833e-22)
(0.000611279 0.00103164 -6.53741e-22)
(0.000827871 0.00144089 -3.86496e-22)
(0.000546992 0.000969475 1.68306e-23)
(0.000762739 0.00131919 1.3032e-21)
(0.000727692 0.00116565 1.21909e-21)
(0.000324068 0.00109174 -9.12971e-22)
(0.000443774 0.00083267 -3.45786e-22)
(0.000724938 0.00125807 -1.72121e-22)
(0.00058787 0.00104889 0)
(0.000590986 0.000873485 -2.2182e-21)
(0.000558273 0.00113935 -9.75203e-22)
(0.000523051 0.00043374 0)
(0.00067913 0.0011824 4.98324e-22)
(0.000856183 0.00154376 6.69944e-22)
(0.000889557 0.0015784 -7.82759e-22)
(0.000603735 0.00107678 0)
(0.00038437 0.000971515 9.93377e-22)
(0.000801581 9.88437e-05 2.14619e-21)
(0.000682668 0.00106655 -1.09345e-21)
(0.000797557 0.00140747 -5.26336e-22)
(0.00054668 0.000903026 0)
(0.000508141 0.00086008 -5.54345e-23)
(0.000448377 0.000756071 3.26883e-21)
(0.000421461 0.000719151 -5.47035e-21)
(0.000439268 0.000726521 1.80839e-21)
(0.000430713 0.000707397 -1.22722e-23)
(0.00053555 0.000904986 3.55316e-22)
(0.000447546 0.0007553 3.61909e-21)
(0.000479391 0.000777624 -4.0188e-23)
(0.000431585 0.000687814 6.06297e-22)
(0.000299548 0.00073617 1.2687e-24)
(0.000572859 0.0010303 6.12528e-22)
(0.000507583 0.00076759 -1.0667e-21)
(0.000868317 0.0014059 4.81283e-21)
(0.000352443 0.000702385 3.41013e-24)
(0.000717833 0.0012548 9.28475e-22)
(0.000806053 0.00134432 1.09018e-21)
(0.000459972 0.000726128 3.67403e-21)
(0.000483649 0.000907155 -1.36105e-21)
(0.000558698 0.000912335 0)
(0.000666219 0.00115249 3.47503e-22)
(0.000660349 0.00112136 2.73535e-22)
(0.000452377 0.000715796 -3.82412e-21)
(0.000447475 0.000821694 3.55663e-22)
(9.6201e-05 -9.62318e-05 -3.97717e-22)
(7.71594e-05 0.000114001 1.61429e-21)
(0.000716748 0.0014533 -1.26159e-21)
(0.000648154 0.000484869 0)
(1.57624e-05 6.43554e-05 0)
(0.000436864 0.000848907 5.53412e-22)
(0.000644226 0.00114162 -2.13231e-21)
(0.000614929 0.00109011 0)
(2.66414e-05 1.38509e-05 0)
(0.000728042 0.00116709 9.84504e-24)
(0.000676398 0.000787731 2.44972e-22)
(0.000636374 0.00106401 0)
(0.000454645 0.000721284 1.16143e-21)
(0.00045523 0.000988769 -1.94383e-21)
(0.000380271 0.000703117 0)
(4.72975e-05 0.00110403 -1.72411e-21)
(0.000636899 0.00107612 1.23681e-21)
(0.000797534 0.00139164 5.97799e-22)
(0.00076752 0.00133618 -1.6944e-21)
(0.00073755 0.0013074 1.66465e-21)
(0.00089594 0.00152334 3.77378e-22)
(0.000801347 0.00139491 9.27375e-22)
(-0.000287987 0.000467126 0)
(0.000469883 0.000782117 -2.50152e-21)
(0.000443768 0.00075876 -1.59279e-21)
(0.000410705 0.000696272 1.27962e-21)
(0.000515968 0.000852837 -6.27324e-22)
(0.000409194 0.000700541 0)
(0.000413027 0.000694327 0)
(0.000423336 0.000684093 -7.5256e-22)
(0.000523445 0.000851434 -6.72451e-22)
(0.000669235 0.00101749 0)
(0.000369154 0.000698863 1.68488e-21)
(0.000863972 0.00142038 -1.71374e-21)
(0.00059515 0.00103694 -1.5999e-21)
(0.000722766 0.00119285 9.37822e-22)
(0.000749009 0.00124516 -4.95701e-22)
(0.000328757 0.000751283 0)
(0.000790217 4.82232e-05 -2.49892e-21)
(0.000817126 0.00144069 2.28765e-21)
(0.000718569 0.00125032 -2.03676e-22)
(3.50423e-05 5.2531e-07 -1.40554e-21)
(0.000743225 0.00108005 -3.10373e-21)
(0.000605731 0.0010504 -3.9504e-23)
(0.000629202 0.00121871 3.073e-22)
(0.000784809 0.00139655 0)
(9.90368e-05 -0.000158125 0)
(0.000200617 0.000584324 -8.5694e-22)
(0.000715653 0.00125355 1.9781e-22)
(0.000650809 0.00115473 4.28649e-21)
(0.000630427 0.00111388 -8.39218e-22)
(0.000468267 0.000922573 -1.24593e-21)
(0.000589848 0.00102318 -6.33564e-22)
(0.00071491 0.00126326 1.10873e-21)
(0.000465489 0.000882255 -9.33866e-22)
(0.000480675 0.000907811 -1.45567e-21)
(0.000695539 0.00119217 1.16282e-21)
(0.00055483 0.00113752 3.46436e-21)
(0.000638343 0.00114796 -1.97549e-21)
(0.000798294 0.00131 -1.12092e-21)
(0.000621181 0.00107011 -8.06963e-22)
(0.00071455 0.00125499 0)
(0.000703038 0.00127398 -3.97669e-23)
(0.00058394 0.00102143 5.79085e-22)
(0.000577089 0.00101368 0)
(0.00055995 0.00101704 -1.1361e-21)
(0.000607551 0.00114315 0)
(0.000572112 0.00103873 3.06612e-21)
(0.000617761 0.00109904 -1.46225e-21)
(0.000599426 0.00107358 0)
(0.000167741 0.000541692 -6.28916e-21)
(0.00124392 0.000899843 -1.58326e-21)
(0.000514686 0.000922845 -6.1765e-22)
(0.00040344 0.000413156 0)
(2.73754e-05 5.16329e-05 0)
(0.000588514 0.00104606 -3.07938e-21)
(0.000636058 0.00117432 -1.69885e-21)
(0.000605255 0.00108449 -8.7418e-22)
(0.000790938 0.00133548 -5.00103e-22)
(0.000607947 0.0010877 -7.32088e-22)
(0.000890234 0.00155455 -3.72393e-22)
(0.000537219 0.00102294 -1.60087e-21)
(0.000800084 0.00139572 -8.55499e-22)
(0.000638261 0.00113209 2.42517e-22)
(0.000614246 0.000947965 0)
(0.000744445 0.00134464 -3.15298e-22)
(0.000555632 0.0010379 -4.44709e-22)
(0.00080871 0.00145139 -8.88303e-22)
(0.000617645 0.00108491 -1.69728e-22)
(0.000585495 0.00104791 -4.52418e-22)
(0.000555226 0.000687778 5.83354e-23)
(0.000676844 0.00118709 -2.4274e-21)
(0.000562824 0.00103272 0)
(0.000706716 0.0012319 -1.05705e-23)
(0.000486688 0.00115854 -2.33109e-23)
(0.000777111 0.00148072 1.70305e-21)
(0.000632875 0.00115492 -4.49144e-22)
(0.000536618 0.000938926 -9.20758e-22)
(3.44812e-05 7.65435e-06 1.35323e-21)
(0.00066327 0.0011398 -5.02294e-22)
(0.000863836 0.00151322 -2.37427e-22)
(0.00052614 0.000912915 -1.29794e-21)
(0.000404074 0.00108866 -2.42303e-21)
(0.00063508 0.00102316 -6.8704e-22)
(0.000687806 0.0012068 1.18561e-21)
(0.000729106 0.00126476 -1.26054e-22)
(0.000679795 0.0011756 6.90096e-22)
(0.000608117 0.00106632 2.09315e-22)
(0.000635921 0.00115147 2.78134e-21)
(0.000635041 0.001107 -1.86176e-21)
(0.000568171 0.00103013 -6.17593e-22)
(0.000779057 0.00143565 -2.37668e-21)
(0.000230584 0.000741739 1.61762e-21)
(0.000751284 0.00133853 -4.58751e-22)
(0.000721592 0.0012689 0)
(0.000633557 0.00111001 1.11564e-21)
(0.000590553 0.00104172 1.23372e-21)
(0.000765967 0.00133789 4.14039e-22)
(0.000602869 0.00105039 2.84333e-21)
(0.000603261 0.00106835 -2.79842e-21)
(0.000807428 0.0014215 9.53216e-22)
(0.000908225 0.00152515 -5.16954e-22)
(0.000605039 0.00101953 -3.20142e-21)
(0.000619776 0.00104907 2.56417e-21)
(0.000447331 0.000856684 0)
(0.000755739 0.0013253 -1.95879e-21)
(0.00072024 0.00125869 3.30231e-23)
(0.00108881 -2.81187e-06 1.1966e-21)
(0.00100284 0.000690801 1.56691e-21)
(0.000814304 0.00139153 2.14445e-22)
(0.000730178 0.00116897 -5.71456e-22)
(0.000593065 0.0010058 -9.4702e-22)
(0.000620642 0.00113845 4.25132e-22)
(0.000574281 0.00101487 0)
(0.000641203 0.00135037 -3.35428e-21)
(0.000758123 0.00134298 9.22615e-22)
(0.000890016 0.00153262 -9.14686e-24)
(0.000526844 0.000902551 1.42053e-21)
(0.000265689 9.8111e-05 0)
(0.000844515 0.00141655 2.15358e-21)
(0.000523173 0.000846237 2.65941e-22)
(0.000902754 0.00151729 -7.50826e-22)
(0.000761015 0.00134371 1.25589e-21)
(0.000733689 0.00117572 0)
(0.000722107 0.00120025 0)
(0.000415777 0.000847419 -2.01206e-21)
(0.000611423 0.00105984 -3.44229e-22)
(0.0007261 0.00117042 0)
(0.000670574 0.00112921 -1.86661e-21)
(0.000540738 0.000627985 1.87156e-21)
(0.000881508 0.00153114 1.13496e-21)
(0.000672868 0.00110071 3.29904e-21)
(0.000248684 0.0011481 -2.47231e-21)
(0.000755997 0.00132962 1.39502e-21)
(0.000707863 0.00114242 -6.68198e-22)
(0.000664976 0.000883894 3.63431e-22)
(0.000653384 0.00110903 1.62954e-21)
(0.000527796 0.000978405 -2.2786e-21)
(0.000579318 0.000954132 1.10726e-21)
(0.000787271 0.00144279 9.85431e-22)
(0.000758454 0.00129275 1.08935e-21)
(0.000616413 0.00110883 -1.52417e-22)
(0.000562827 0.000950827 1.58656e-22)
(0.000693388 0.00121565 0)
(0.000568027 0.000988527 1.78121e-22)
(0.000254086 0.00048809 -3.69744e-24)
(0.000622786 0.000995557 -1.44926e-21)
(0.000723677 0.000841128 -1.127e-21)
(0.000711462 0.00120112 -1.71796e-22)
(0.00050577 0.000485208 -4.56339e-22)
(0.000622903 0.00101402 -7.45437e-22)
(0.000634602 0.00108701 -3.14119e-22)
(0.000596617 0.00121438 1.77735e-21)
(0.00074403 0.00127162 1.55054e-21)
(0.00106598 7.48529e-05 0)
(0.00064753 0.000341357 -5.8944e-21)
(0.000551668 0.00111804 -4.33595e-21)
(0.000452622 0.00127968 -2.13062e-21)
(0.000766778 0.00128203 7.07985e-24)
(0.000457974 0.000767284 -2.39652e-22)
(0.000620565 0.00115817 9.44479e-22)
(0.000591263 0.00107584 2.02959e-23)
(0.000436798 0.000846819 1.68151e-21)
(0.000433226 0.000842096 2.37863e-21)
(0.000369358 0.000672363 1.08321e-21)
(0.000448855 0.000694681 3.67489e-22)
(0.000833194 0.00143682 -5.15325e-22)
(0.000598914 0.00107284 1.45591e-21)
(0.000794033 0.00141689 0)
(0.000624146 0.00106531 0)
(0.000100188 0.000153796 -1.08392e-21)
(0.000244636 0.000538516 1.82244e-21)
(0.000741439 0.00133775 -3.83331e-22)
(0.000726452 0.00126914 -1.82465e-21)
(0.000633227 0.0011111 0)
(0.000590346 0.00104979 1.25731e-21)
(0.00076974 0.00133965 9.96572e-22)
(0.000606924 0.00105458 -9.54318e-22)
(0.000602375 0.00107307 0)
(0.000638501 0.00111466 0)
(0.000628439 0.00115798 -9.23566e-22)
(0.00055544 0.00103039 5.26437e-22)
(0.000751933 0.00132328 -2.91202e-22)
(1.43195e-05 1.58575e-05 -9.70363e-22)
(0.000760423 -0.000217185 9.03238e-22)
(0.00078126 0.00148557 -2.02853e-21)
(0.000726799 0.00116681 1.27084e-21)
(3.52231e-05 -5.39278e-06 1.33056e-21)
(0.000592736 0.000552587 1.66554e-21)