/*--------------------------------*- C++ -*----------------------------------*\
  =========                 |
  \\      /  F ield         | OpenFOAM: The Open Source CFD Toolbox
   \\    /   O peration     | Website:  https://openfoam.org
    \\  /    A nd           | Version:  7
     \\/     M anipulation  |
\*---------------------------------------------------------------------------*/
FoamFile
{
    version     2.0;
    format      ascii;
    class       surfaceScalarField;
    location    "62";
    object      phi;
}
// * * * * * * * * * * * * * * * * * * * * * * * * * * * * * * * * * * * * * //

dimensions      [0 3 -1 0 0 0 0];

internalField   nonuniform List<scalar> 
1111
(
6.54987e-09
1.31837e-08
-1.58897e-08
-3.84382e-09
6.6033e-09
-1.18185e-08
1.17651e-08
-1.47367e-08
5.23027e-09
9.21516e-09
2.91292e-10
5.44509e-10
-6.28651e-10
-1.42487e-08
1.43328e-08
-1.41689e-08
1.39087e-08
8.04709e-10
-1.65056e-09
1.48941e-08
2.18506e-09
-3.67058e-09
9.73031e-09
-1.04529e-08
4.39313e-09
-6.70024e-09
-1.26185e-08
1.25906e-08
6.72815e-09
-5.0462e-08
-2.59222e-08
7.63842e-08
-8.12547e-09
7.61316e-09
7.11562e-09
3.51545e-09
3.4686e-10
-3.59574e-09
-2.66568e-10
1.56575e-08
-1.59804e-08
-2.3057e-08
2.33799e-08
-9.64179e-09
-7.90698e-09
8.78586e-09
8.7629e-09
-3.53575e-08
1.76153e-08
-3.233e-08
5.00722e-08
9.52505e-09
-1.95435e-09
-1.42709e-08
-1.50121e-09
2.25349e-09
-3.61932e-09
2.86704e-09
-3.78459e-09
1.33166e-08
1.94657e-09
-1.14786e-08
8.83838e-09
-2.45701e-09
-1.50355e-08
8.65412e-09
3.76666e-08
-3.04868e-08
-7.17974e-09
-1.94036e-08
2.65286e-10
1.7354e-08
1.78432e-09
-8.48501e-10
4.11377e-09
-1.78845e-08
1.46192e-08
-6.12207e-08
-3.96268e-09
6.51834e-08
1.54015e-10
-1.27338e-09
-3.57437e-10
1.4768e-09
-1.4575e-09
-1.35599e-08
-1.5711e-10
-3.05029e-10
2.61388e-10
2.00751e-10
-1.01705e-08
-8.24769e-09
1.26617e-08
5.75647e-09
7.11801e-10
-2.13888e-09
-8.42215e-09
9.84922e-09
8.14252e-09
9.0687e-10
-9.08694e-09
3.75504e-11
-2.85421e-09
-7.85802e-09
1.09294e-08
-2.17177e-10
1.1383e-08
-6.91114e-10
-1.85356e-09
-9.58727e-10
9.42339e-10
5.79514e-11
-4.15632e-11
-2.39701e-10
8.3282e-10
3.92027e-10
-9.85146e-10
-5.62346e-10
-4.00765e-11
5.99066e-10
3.35739e-12
3.41692e-12
-9.62151e-10
1.02631e-10
8.56103e-10
-6.65472e-11
-8.88764e-10
8.28974e-10
-1.84502e-08
-1.78236e-09
-4.74421e-10
5.14459e-11
-1.39371e-10
1.3411e-08
-1.3259e-08
3.96179e-09
-4.08924e-10
6.17656e-10
3.84241e-10
-5.92973e-10
-3.05067e-10
-2.1261e-09
1.65406e-09
7.77106e-10
-2.13553e-09
9.98931e-09
-1.15244e-08
-3.51893e-10
-1.86703e-10
6.41735e-11
-8.79793e-09
1.02025e-08
-9.53008e-09
1.2074e-08
-1.70977e-08
4.8736e-09
1.50118e-10
7.90394e-11
-1.93314e-10
-2.37618e-10
2.35697e-10
8.63303e-10
-1.5666e-10
-5.95508e-08
7.42655e-08
-1.47147e-08
1.11204e-09
-3.24791e-10
-1.27058e-09
4.83337e-10
1.12723e-09
1.03194e-08
-1.37307e-08
2.28407e-09
-1.213e-09
7.24741e-09
-8.7026e-09
2.66819e-09
-6.55174e-09
5.74162e-09
5.54313e-09
-4.73301e-09
-7.28255e-09
-2.06418e-09
2.00228e-09
7.34445e-09
-1.82316e-10
-9.09264e-08
9.13116e-08
-2.02895e-10
-2.57184e-10
-8.97646e-08
9.01725e-08
-1.5073e-10
8.30922e-08
-1.49681e-09
1.13365e-10
-8.17088e-08
-3.09562e-09
-2.58056e-10
7.59229e-10
8.92162e-10
-5.39353e-10
3.99511e-09
-1.50576e-09
3.33199e-09
-5.82134e-09
-1.05904e-09
9.69944e-10
-1.49747e-08
6.61523e-09
9.44124e-09
9.97188e-10
-1.01618e-08
-2.76594e-10
-6.23932e-09
1.30973e-08
1.31387e-09
-8.17189e-09
1.43344e-08
-4.27238e-09
3.46261e-09
-1.35247e-08
1.54229e-08
1.72018e-09
-1.71432e-09
-3.53062e-10
-2.00046e-08
-7.29342e-09
2.76511e-08
1.39697e-08
-8.43318e-09
-2.09053e-09
7.76688e-09
-1.19157e-08
-7.30799e-11
1.78496e-10
-1.376e-09
-3.63595e-08
-2.31913e-08
8.13126e-09
1.3764e-10
3.80508e-09
-7.01763e-09
1.08534e-08
6.36678e-09
-6.57635e-10
3.66973e-10
5.3016e-10
-2.39498e-10
5.87406e-09
-4.68328e-09
3.59153e-09
-4.78232e-09
-5.66005e-10
-6.85513e-10
2.89367e-10
7.54187e-10
-6.91633e-10
-9.22716e-11
-1.02826e-09
8.80828e-10
-1.78168e-08
2.48064e-09
1.49724e-09
1.3839e-08
2.69351e-10
-7.72308e-10
-1.54678e-10
-3.97215e-09
-1.49196e-08
1.0749e-09
5.65139e-09
1.18992e-08
-5.23014e-09
-1.23205e-08
1.64629e-08
6.06736e-10
-1.59314e-08
-1.13822e-09
-7.41507e-10
5.14487e-10
5.93992e-10
-6.55935e-10
3.43809e-10
3.12126e-10
-7.23192e-09
-3.70066e-09
4.38085e-09
-3.0618e-10
4.5393e-10
-1.4775e-10
1.29565e-09
-1.54383e-08
-8.43313e-10
9.30156e-09
-1.05938e-08
-1.07417e-09
-7.48207e-10
1.27236e-08
4.38912e-09
-4.13117e-09
-1.29816e-08
1.86699e-10
7.03345e-09
-7.76028e-09
6.46846e-09
-1.82424e-09
-8.67491e-09
7.95923e-09
2.53992e-09
-1.80159e-09
6.27038e-10
-1.3745e-08
-1.8001e-10
-1.26171e-10
-1.6957e-10
1.01543e-09
-8.12842e-09
7.37006e-10
1.73226e-08
-1.59665e-09
-1.30966e-08
1.43874e-08
-1.29081e-09
1.20897e-08
1.40555e-08
-1.55762e-08
-1.0569e-08
-6.82503e-10
1.19679e-09
-5.1429e-10
8.64725e-10
-1.02113e-09
1.56401e-10
1.32619e-09
-1.66588e-09
3.39692e-10
1.63853e-09
-1.35081e-09
-2.87728e-10
-1.10283e-08
5.6957e-10
1.04587e-08
2.32478e-09
-6.86243e-10
8.91759e-09
-1.52805e-08
6.97485e-09
-8.35743e-09
5.75286e-11
3.85745e-09
-3.99534e-10
-2.67164e-09
2.72917e-09
-6.95625e-09
8.28201e-09
-1.32577e-09
-7.3978e-10
4.16354e-09
5.71354e-10
1.72568e-08
-1.45074e-08
-1.62215e-09
-5.69598e-09
5.26129e-09
-1.07107e-09
-2.28573e-10
6.24444e-09
-6.26936e-09
2.49187e-11
7.00089e-09
4.4163e-09
1.16518e-10
-1.59935e-08
1.04652e-08
1.7618e-08
5.70966e-09
8.32468e-09
8.25129e-09
-6.83149e-09
1.0917e-09
-1.212e-08
9.10666e-10
6.40766e-10
-1.27955e-08
3.1646e-09
-4.35432e-10
1.23596e-08
-1.17528e-08
-1.7881e-10
-9.61904e-10
-1.37773e-08
7.33371e-09
8.45469e-10
-3.09299e-11
-8.91827e-09
5.13386e-09
-3.08399e-08
-1.25086e-08
-2.64239e-09
1.37374e-09
1.39482e-08
1.09474e-08
-1.06641e-08
-1.42316e-08
1.56807e-08
-3.11593e-09
-1.25648e-08
1.6732e-09
3.90156e-09
-1.30935e-09
-9.48037e-10
-9.62802e-10
1.27714e-09
6.33694e-10
-2.73196e-10
3.98522e-10
4.04834e-10
6.21367e-08
-6.21615e-08
2.47493e-11
6.20577e-08
-6.23614e-08
3.03759e-10
8.36967e-10
6.47501e-08
-6.5578e-08
8.27817e-10
6.41412e-08
6.08965e-10
-2.24704e-10
-6.65247e-08
9.4675e-10
-6.20438e-08
6.19104e-08
1.33311e-10
1.31764e-09
-6.78423e-08
-6.22023e-08
1.58563e-10
1.22882e-08
-9.63683e-10
1.5721e-09
-3.71159e-09
3.10317e-09
3.91146e-10
-1.25253e-09
1.06373e-09
-7.28451e-10
1.45351e-09
-1.71492e-09
9.8986e-10
1.49765e-09
-1.64461e-09
3.25458e-10
-8.34993e-11
-3.36556e-09
2.96478e-09
-2.21036e-09
2.61113e-09
-7.05528e-10
-2.82663e-09
2.56848e-09
-3.74891e-09
-5.66738e-09
6.2873e-10
-6.9937e-10
1.35816e-09
1.15908e-09
-6.57192e-09
8.0012e-09
2.98703e-09
2.00566e-08
-4.3759e-09
-7.81565e-10
2.98247e-10
1.11205e-09
-1.0047e-08
-2.63126e-08
5.42705e-09
-4.41236e-09
-3.12694e-09
2.11225e-09
1.2572e-10
1.81863e-11
4.55159e-10
-2.72211e-09
3.44943e-09
8.75185e-09
8.48977e-10
-4.44171e-10
2.18154e-09
-2.44289e-09
2.10811e-09
1.47727e-08
1.3231e-08
-2.69892e-08
3.25998e-08
6.25599e-09
-2.28501e-08
-1.03951e-08
1.8261e-08
-1.78066e-08
1.0493e-08
-1.97717e-10
-9.0032e-11
-1.35686e-09
-1.83363e-09
-2.84258e-09
3.8703e-09
1.4861e-08
-5.96715e-10
-1.36372e-08
-2.40348e-10
-2.65357e-09
6.7285e-11
1.54491e-08
1.75847e-08
1.36666e-08
6.9013e-10
-1.58012e-09
-1.27766e-08
-1.75253e-09
6.01823e-09
1.23568e-08
-6.73196e-10
-1.17747e-09
-3.54804e-09
2.73989e-09
3.77293e-09
2.44666e-09
1.42701e-08
4.15288e-09
-1.40339e-08
1.77082e-08
-1.7723e-09
2.72361e-09
-3.55233e-09
1.87986e-09
-4.69955e-09
1.29251e-08
-1.20101e-08
-1.39691e-08
4.90545e-10
8.77901e-09
-1.87385e-09
1.57117e-09
1.66084e-09
-8.67934e-09
6.50934e-10
-4.48025e-09
-6.05263e-09
1.22186e-08
-1.48453e-08
1.29755e-09
1.66673e-09
-2.2124e-09
1.65858e-08
-1.60401e-08
-9.91605e-10
1.40615e-08
2.91989e-09
-4.23018e-09
-1.39702e-08
7.38729e-09
-1.71489e-08
-8.04496e-09
6.61388e-09
5.86197e-09
1.44264e-08
-9.7321e-09
3.10845e-09
9.16356e-09
9.87623e-09
3.83462e-09
-4.13633e-09
2.1536e-08
-1.89368e-08
4.78813e-09
-1.02642e-08
2.20525e-09
5.5352e-09
1.36702e-08
-1.31673e-10
1.26602e-08
-1.35202e-08
-1.79401e-09
2.22985e-09
-1.29738e-09
8.61536e-10
1.08846e-08
-6.38736e-09
7.40202e-09
-1.06666e-08
1.39965e-09
-4.75213e-09
1.1334e-08
-1.1812e-08
-7.51229e-09
9.07234e-09
9.32452e-09
1.27564e-08
8.46609e-10
-1.37346e-08
1.6158e-09
8.20429e-10
-1.09759e-08
-6.71503e-09
1.01787e-08
-1.62894e-09
2.52175e-09
-8.90142e-09
4.80854e-09
-5.16164e-09
1.13937e-08
-3.49215e-09
-1.15827e-08
3.68115e-09
-4.50658e-09
1.11482e-08
2.01806e-09
1.16891e-09
-5.05365e-09
-1.75701e-08
1.0389e-08
1.22347e-08
8.21737e-10
-1.08594e-08
-9.8398e-09
1.56455e-08
1.23892e-08
2.79958e-09
-9.65354e-09
-1.32472e-08
-2.80128e-10
-1.2667e-08
2.03593e-10
-7.20532e-10
1.14463e-08
1.24568e-08
-8.18998e-09
1.64044e-08
-1.57867e-08
3.53514e-09
-4.47673e-10
1.71123e-09
1.25754e-08
-3.87928e-09
-1.25724e-08
-5.12267e-09
1.18654e-09
4.57689e-09
1.20441e-08
-7.32039e-09
8.16561e-10
-1.40137e-09
1.24644e-09
-1.63908e-09
5.96848e-09
2.60605e-08
-3.24162e-10
-1.11264e-08
1.14505e-08
2.83935e-08
-2.21598e-08
2.19584e-08
1.95512e-08
-1.26514e-08
-2.64311e-09
1.49323e-08
2.18066e-10
-1.21239e-08
-3.25068e-10
-6.02932e-09
-1.92386e-09
2.31777e-09
1.62415e-09
-1.51972e-10
-1.09163e-08
1.11991e-08
-1.30815e-10
2.99477e-09
-5.44924e-09
-1.07832e-08
1.03995e-08
-8.2255e-10
-1.05646e-08
-8.8325e-11
-1.08961e-08
-2.75417e-09
-1.19086e-08
2.23709e-09
7.85016e-09
5.11746e-09
-6.17519e-11
-1.16657e-08
1.15755e-08
6.36854e-10
-8.61584e-09
5.23641e-09
-1.2107e-09
2.53926e-09
-2.75408e-09
-1.30108e-08
-1.29992e-08
1.26133e-08
-1.02204e-08
-1.5794e-08
1.00209e-08
9.15064e-09
8.66464e-10
2.59366e-09
-1.372e-08
1.1145e-08
1.70097e-09
3.99715e-09
3.45946e-10
-5.78304e-10
-3.33648e-10
-4.06674e-09
2.64275e-09
-1.22958e-09
2.7438e-10
-3.21206e-10
4.68263e-11
-2.59276e-09
1.28161e-08
2.16582e-09
2.56704e-09
-5.60927e-10
-1.65653e-09
-2.6714e-10
-2.47874e-09
-5.34653e-10
1.27887e-08
9.89011e-09
-4.19031e-10
6.98568e-09
-1.20893e-09
-5.35772e-09
-9.69182e-09
-5.07868e-09
2.12568e-10
6.18118e-11
4.81368e-09
1.3204e-09
-1.69934e-08
-4.94472e-10
-8.64237e-10
-2.6434e-09
9.68629e-10
2.77816e-09
6.19357e-08
-8.76467e-11
-6.1848e-08
6.23519e-08
1.87478e-10
-6.25394e-08
-1.41862e-08
-2.75335e-11
1.45504e-08
-3.36632e-10
2.87752e-09
-1.97406e-09
2.70086e-09
1.79496e-09
-4.41304e-09
-4.25599e-10
-5.96614e-10
4.83748e-10
-1.26633e-10
5.41637e-10
-3.82394e-10
1.93664e-08
1.11252e-09
-1.56652e-08
-2.39956e-10
-1.95071e-09
1.22857e-08
2.24047e-09
1.75966e-09
5.27063e-09
-1.98404e-09
-7.72343e-08
-2.41777e-08
-4.78741e-09
1.57679e-08
2.33616e-09
-4.83543e-10
-3.22477e-09
-1.26676e-09
5.58571e-10
-4.69287e-10
-1.11285e-08
-3.22784e-10
1.14513e-08
-1.07213e-08
-6.63899e-09
1.06452e-08
-9.35357e-09
8.77683e-09
1.7697e-11
1.72861e-09
1.06125e-08
-1.04312e-08
-1.81342e-10
6.88071e-10
7.74075e-11
1.02068e-08
9.03897e-10
-1.00478e-09
-2.44277e-10
-1.42453e-08
-5.15942e-10
-1.35981e-08
1.23836e-08
-1.16742e-08
-6.59965e-08
6.49521e-08
1.04438e-09
3.66033e-10
-3.47847e-10
1.17943e-08
-3.35673e-10
1.44662e-11
-2.02993e-09
2.77866e-09
-3.42303e-09
-1.3506e-08
-1.65073e-09
2.5721e-09
-4.76233e-09
-1.39229e-08
1.69174e-09
5.60242e-09
9.5241e-09
-8.86048e-09
-3.64101e-10
2.84278e-11
-9.3456e-09
-1.30568e-08
1.49605e-10
-6.27097e-08
2.37983e-10
6.24717e-08
6.96495e-10
6.34447e-08
-2.25794e-10
-1.27977e-09
-1.44264e-08
1.06474e-10
-6.33751e-08
6.32686e-08
1.81268e-10
-6.29236e-08
6.27423e-08
4.57091e-10
6.18054e-08
1.51844e-10
-6.19573e-08
6.16353e-08
1.70091e-10
-8.7906e-08
8.85154e-08
-4.76981e-13
9.33986e-08
-9.31064e-08
-2.6751e-10
-8.66452e-08
-4.32953e-10
9.33574e-08
-1.83441e-10
-8.49305e-08
-7.67997e-10
9.34879e-08
1.7324e-10
-5.20575e-10
1.96121e-09
9.23636e-08
-6.93391e-08
6.21491e-08
-6.23314e-08
-6.29669e-08
6.14916e-08
1.43728e-10
-3.01874e-09
2.83905e-09
-1.38542e-08
6.84593e-11
1.44109e-10
1.88564e-09
9.00658e-09
-1.14636e-08
3.82997e-08
-3.44651e-08
-1.663e-08
1.3778e-08
-6.32217e-11
-2.22874e-10
2.2997e-10
8.32483e-10
-1.57753e-10
3.68305e-10
4.58834e-09
1.02738e-09
-3.73586e-09
-2.93044e-10
3.4449e-10
-2.28871e-10
-2.48419e-09
1.29734e-08
2.32684e-09
-1.44506e-08
-2.5324e-09
-3.52379e-09
5.64779e-09
1.0528e-09
-2.66242e-09
1.42108e-08
-1.15936e-09
-2.97454e-09
3.97222e-09
-8.17097e-09
-1.9055e-08
-1.32682e-08
7.7935e-09
5.96528e-09
-2.84735e-10
-5.34224e-10
3.13672e-09
1.44334e-08
2.11869e-09
-1.65801e-09
-4.41817e-10
4.87528e-10
-2.74284e-10
1.60041e-08
-5.06068e-10
-1.58208e-08
-1.75338e-09
-1.41371e-09
3.01559e-10
-2.28858e-10
3.51478e-09
-1.70007e-08
5.62927e-10
-1.63607e-09
-2.2444e-09
-2.40202e-09
1.53851e-08
-9.06048e-08
-1.4033e-10
9.16909e-08
-1.91821e-10
-8.91803e-08
-4.77798e-10
9.3111e-08
-2.75498e-10
-9.29231e-08
-5.91554e-10
-1.73076e-09
1.64583e-08
9.19924e-08
-1.9434e-10
3.1591e-11
-2.21175e-10
1.02286e-08
2.49417e-09
-8.3487e-09
-1.20101e-08
-5.67411e-09
8.46101e-09
1.41155e-09
-6.88553e-09
-6.15383e-09
9.01212e-09
-1.49831e-10
1.01568e-08
1.9403e-08
-1.77987e-08
3.05419e-09
-1.2545e-08
3.02684e-09
-6.99556e-08
3.95912e-09
-2.04018e-08
-1.30503e-08
-5.53636e-10
-5.94683e-09
-1.53169e-08
9.13991e-09
-1.52243e-08
5.14171e-10
4.34364e-10
-1.6893e-09
-1.6339e-08
1.68675e-08
8.05741e-09
-8.31547e-09
-5.19827e-09
1.516e-08
-1.71382e-09
7.64606e-10
-1.26782e-09
3.56081e-10
1.19037e-08
3.33175e-09
7.09337e-08
-1.81076e-08
8.55214e-10
-1.48287e-08
-2.71566e-10
-3.18002e-10
-1.09588e-10
6.09534e-08
-6.12289e-08
-6.33435e-08
-6.31179e-08
-6.23995e-11
-2.62713e-10
-9.2598e-08
-6.04545e-08
6.24157e-08
6.50655e-08
-6.02812e-08
6.45449e-08
-6.04647e-08
6.3777e-08
-6.07322e-08
6.3344e-08
9.2321e-08
3.38423e-10
-6.42858e-09
7.51107e-08
-6.53503e-08
7.26901e-11
-7.26901e-11
1.08063e-09
-3.57478e-10
1.54983e-08
-7.35506e-11
7.35506e-11
4.17997e-10
1.56853e-09
1.38603e-08
1.32412e-08
-2.77347e-09
3.75156e-09
6.35212e-09
1.93572e-09
4.22068e-10
-2.95112e-10
-2.95515e-09
1.44898e-08
1.48402e-08
-4.26937e-09
1.17912e-08
2.26574e-10
1.80309e-10
2.88488e-09
-9.41497e-10
-1.66705e-09
-5.88529e-09
-1.74117e-10
-4.45189e-10
1.52822e-08
3.1432e-10
1.13148e-10
1.52164e-08
-2.5949e-08
1.75116e-08
2.60937e-09
1.3883e-09
2.41848e-09
-3.69223e-09
1.9154e-08
-1.78803e-08
-1.0732e-10
5.42639e-10
-1.44265e-09
-7.92217e-08
-7.07818e-08
1.41545e-09
-8.35213e-10
6.91966e-10
2.2856e-08
1.85053e-08
-6.40303e-09
1.01773e-10
-4.40669e-09
-2.39667e-09
2.99928e-08
1.51952e-10
1.48186e-08
7.35823e-08
7.62809e-11
5.41686e-10
-1.90672e-10
-2.53501e-10
-3.77884e-09
2.41615e-08
-1.48447e-08
1.12287e-09
-1.39938e-08
-7.14181e-11
2.02869e-08
-2.8673e-08
9.08685e-10
2.21884e-09
-4.93808e-10
)
;

boundaryField
{
    back
    {
        type            empty;
        value           nonuniform 0();
    }
    ingreso
    {
        type            calculated;
        value           nonuniform List<scalar> 
14
(
-1.54286e-08
-1.54288e-08
-1.54288e-08
-1.54288e-08
-1.54286e-08
-1.54283e-08
-1.54288e-08
-1.54288e-08
-1.54286e-08
-1.54286e-08
-1.54288e-08
-1.5428e-08
-1.5428e-08
-1.54286e-08
)
;
    }
    salida
    {
        type            calculated;
        value           nonuniform List<scalar> 2(1.01412e-07 1.14588e-07);
    }
    front
    {
        type            empty;
        value           nonuniform 0();
    }
    defaultFaces
    {
        type            calculated;
        value           uniform 0;
    }
}


// ************************************************************************* //
