/*--------------------------------*- C++ -*----------------------------------*\
  =========                 |
  \\      /  F ield         | OpenFOAM: The Open Source CFD Toolbox
   \\    /   O peration     | Website:  https://openfoam.org
    \\  /    A nd           | Version:  7
     \\/     M anipulation  |
\*---------------------------------------------------------------------------*/
FoamFile
{
    version     2.0;
    format      ascii;
    class       volVectorField;
    location    "62";
    object      U;
}
// * * * * * * * * * * * * * * * * * * * * * * * * * * * * * * * * * * * * * //

dimensions      [0 1 -1 0 0 0 0];

internalField   nonuniform List<vector> 
591
(
(0.00082628 -2.81656e-05 1.21824e-18)
(0.000813842 -2.52716e-05 -6.63952e-19)
(0.000856871 -1.49498e-05 5.6897e-20)
(0.000855742 -7.29744e-06 -1.49154e-19)
(0.000838982 5.94905e-06 2.25577e-19)
(0.000801466 -4.08553e-05 -1.39655e-19)
(0.000556205 -0.000309201 8.0655e-19)
(0.000802487 3.79702e-06 2.07629e-18)
(0.00573494 0.00249806 9.87818e-19)
(0.000796456 -1.42455e-05 2.45521e-18)
(5.02965e-05 0.000171186 1.21851e-18)
(0.000926322 0.00137423 9.40969e-21)
(0.000798321 5.67033e-06 1.32379e-18)
(0.00160174 0.00238626 -7.8778e-19)
(0.000803132 3.28184e-06 -4.4223e-19)
(7.26213e-05 -0.000211335 2.44219e-22)
(0.000135686 0.000677271 7.05101e-19)
(0.00081894 5.99333e-05 -4.89486e-19)
(0.00193429 0.000390875 4.7356e-19)
(0.0013569 0.000255629 -2.47162e-19)
(0.000833369 -3.21852e-06 3.7223e-19)
(0.00340015 0.00655921 -8.15265e-20)
(2.84906e-05 7.11372e-05 2.70997e-19)
(0.000834413 -1.21532e-05 -4.50787e-19)
(1.23018e-05 -1.70181e-05 3.59003e-19)
(0.000769208 3.1402e-05 0)
(9.26999e-05 0.000475618 1.59991e-19)
(0.0005388 1.40516e-05 -1.7888e-19)
(0.000752403 4.85979e-05 1.14977e-18)
(0.000813172 4.36879e-05 5.92257e-19)
(5.90839e-05 -3.27328e-06 -4.00206e-24)
(3.47233e-05 -4.76574e-05 3.5225e-19)
(3.81252e-05 -3.22402e-06 -4.64322e-20)
(4.68672e-05 -1.17079e-05 0)
(5.60221e-05 -1.33075e-05 1.1317e-18)
(0.00117424 0.000130401 1.7995e-19)
(3.25933e-05 -5.64228e-06 4.47238e-20)
(0.000826921 7.20782e-06 3.04488e-23)
(2.82132e-05 4.47759e-05 2.66083e-19)
(2.00009e-05 -0.000108733 -8.54925e-19)
(0.000627738 -0.00020391 9.60491e-19)
(2.63263e-05 -7.13711e-06 4.54919e-20)
(0.000799034 -4.29633e-07 -1.58047e-18)
(0.000829538 3.91449e-05 -6.90315e-19)
(1.81235e-05 -8.42786e-06 0)
(5.62624e-05 7.56207e-06 8.52044e-20)
(0.00134413 0.00450395 8.93089e-19)
(7.75719e-05 1.71796e-05 8.63795e-20)
(0.00079958 1.72817e-05 0)
(0.000379613 -0.000198377 6.77782e-19)
(0.000379665 0.000274866 5.12004e-21)
(0.000392172 5.29553e-05 -1.004e-18)
(0.00634838 0.010942 -7.68435e-19)
(0.00622524 0.0107973 1.52788e-20)
(0.00561467 0.0103804 1.45579e-18)
(0.00081003 2.46286e-05 0)
(6.82284e-05 3.21096e-05 0)
(0.000317733 1.78992e-05 1.33651e-23)
(6.44048e-05 1.13207e-05 -3.46528e-19)
(0.000816164 -8.15545e-06 0)
(0.000631883 2.86664e-05 3.17635e-19)
(0.000830857 5.57775e-06 2.20949e-18)
(0.000796196 2.57768e-05 -5.43367e-19)
(0.000798935 1.60992e-05 -3.15817e-19)
(0.00171306 0.000478241 5.42447e-19)
(0.000795761 1.0705e-05 -1.15531e-18)
(0.000825855 1.49873e-05 -5.24272e-19)
(8.28352e-05 -1.46813e-06 -1.73446e-19)
(0.000688679 0.00226453 0)
(0.000833202 3.42073e-05 0)
(0.000774803 1.56289e-05 -1.39137e-18)
(3.90051e-05 1.66321e-05 0)
(0.000287433 0.000271855 3.26901e-19)
(4.20003e-05 -1.77571e-05 0)
(4.30824e-05 -6.03653e-06 1.59504e-19)
(1.81114e-05 -4.65873e-05 -3.36742e-20)
(0.000786997 7.51812e-05 2.47003e-19)
(4.53839e-05 1.12401e-05 0)
(0.000797644 5.67894e-05 4.47443e-19)
(0.000768593 0.000293981 2.10769e-19)
(0.000964966 6.15129e-05 -3.98017e-20)
(4.39366e-05 2.38544e-05 -4.51953e-20)
(6.02498e-06 -2.57291e-05 0)
(0.000431164 0.000218004 1.70216e-19)
(2.84971e-06 2.42283e-05 0)
(0.000786055 3.52707e-05 -6.07556e-19)
(0.000599683 -0.000120771 0)
(6.65081e-05 -9.69126e-07 -1.74514e-19)
(3.77882e-06 -3.52107e-05 0)
(0.000825154 0.000243006 -3.41335e-19)
(4.09049e-06 -1.542e-05 0)
(0.000421377 0.00032384 -1.2928e-23)
(0.000526419 0.000112866 0)
(0.000803485 4.62404e-05 -3.4558e-24)
(2.81981e-06 1.55234e-05 -4.21798e-20)
(0.000450585 -9.68707e-06 1.76391e-18)
(0.00102388 7.23154e-05 4.1612e-20)
(0.000847999 4.39489e-05 6.41117e-22)
(0.000736089 0.000657439 2.69548e-19)
(6.57476e-06 5.10436e-05 0)
(1.83776e-06 -5.51598e-05 -3.11994e-19)
(-1.53468e-05 -0.00010057 -1.10042e-18)
(3.81556e-06 8.09791e-05 -5.96389e-19)
(0.000632023 -1.84048e-05 0)
(7.83657e-06 0.000106108 0)
(0.000806582 2.20802e-05 2.19222e-18)
(0.000783876 2.20955e-05 1.53095e-18)
(0.00042031 -7.2836e-05 0)
(4.37057e-05 0.000220644 -8.95564e-19)
(-5.87758e-07 0.00017376 4.96664e-19)
(6.39066e-05 0.000417433 6.25177e-19)
(0.000303832 8.66851e-05 -9.37282e-19)
(0.000803219 1.96646e-05 1.37367e-19)
(0.000262112 -3.56115e-05 5.3133e-19)
(4.11613e-06 3.43408e-05 0)
(2.33239e-05 0.000290974 -1.09401e-18)
(0.000318888 0.000325062 -1.61731e-19)
(2.59437e-06 -4.45927e-05 1.46516e-19)
(0.00066994 0.000813301 0)
(0.000366618 0.000389135 5.74512e-20)
(0.000813374 1.22047e-05 1.07045e-18)
(0.000798866 1.23781e-06 -2.71038e-18)
(6.54407e-06 -5.70899e-05 0)
(0.00068108 -3.07704e-05 -1.12342e-19)
(0.000320263 -0.000104573 1.24349e-18)
(0.00264866 0.000802981 -3.36145e-19)
(4.82759e-06 0.000136581 -6.13209e-19)
(3.34533e-06 0.000166503 1.61944e-18)
(0.000725303 2.14044e-05 -3.89975e-20)
(6.50605e-05 -1.27507e-05 -7.50318e-19)
(0.000804083 2.63016e-05 -3.88273e-19)
(0.000773617 2.61107e-05 -4.10465e-20)
(3.91941e-05 0.000337154 -5.96911e-19)
(0.000482676 6.94711e-05 -4.94027e-19)
(5.00136e-05 -3.11442e-06 1.56185e-19)
(0.000830196 2.51923e-05 -1.09329e-18)
(0.00157065 0.000237666 -1.13699e-18)
(3.91413e-06 6.50173e-05 4.96462e-19)
(0.000808392 2.45832e-05 -4.95609e-19)
(0.000906454 0.0005414 -7.85251e-20)
(0.000142999 0.000795979 0)
(0.000577506 6.52891e-05 0)
(0.000274781 5.59552e-05 -1.60999e-18)
(6.39927e-05 5.95344e-05 -1.37436e-18)
(3.14311e-05 2.10846e-05 0)
(0.00424712 0.00740011 -1.01958e-20)
(0.00422553 0.00737188 3.16374e-20)
(0.00442773 0.00757465 -4.95931e-21)
(0.00420672 0.00773568 0)
(0.00419908 0.00760144 5.77158e-19)
(0.00424433 0.00740134 -9.1972e-20)
(0.00421039 0.00804354 4.84383e-19)
(0.00428936 0.00742185 0)
(0.0042086 0.00853688 6.16678e-19)
(0.00432576 0.00745025 2.23871e-19)
(0.000820557 3.46338e-06 -1.3736e-18)
(0.00076577 5.21192e-05 0)
(0.000214487 5.54871e-05 1.27716e-19)
(5.12276e-05 1.63945e-05 8.7202e-20)
(7.86552e-05 4.58054e-05 6.80153e-19)
(0.000106617 4.24276e-05 -3.41735e-19)
(0.000101274 6.53076e-06 0)
(4.91917e-05 5.23491e-06 8.18537e-20)
(0.000205746 0.000134799 0)
(0.0001663 4.45522e-05 -5.24379e-20)
(0.000342051 0.00022399 -5.09344e-21)
(5.64989e-05 4.37505e-05 -4.37741e-19)
(9.14757e-05 2.83605e-05 -8.5264e-20)
(9.09646e-05 6.29271e-05 1.3122e-21)
(0.00025404 0.000367528 -6.66286e-19)
(0.000106551 0.00100764 0)
(4.25389e-05 5.3413e-05 3.43129e-19)
(0.000202395 0.00175396 0)
(0.000207389 0.000254764 7.04784e-19)
(3.8993e-05 -3.99056e-06 1.11518e-19)
(0.000480466 0.000165106 -1.72334e-19)
(0.000757509 2.48032e-05 -1.92452e-18)
(4.37118e-05 -1.12508e-06 4.43017e-24)
(0.000149376 2.6279e-05 2.24633e-19)
(0.000243334 9.4717e-05 -8.99499e-20)
(0.000880951 0.000707154 3.34999e-19)
(0.000718422 0.00163331 -9.23741e-21)
(0.000390965 0.00142573 -9.39422e-21)
(0.00102268 0.000549611 0)
(0.000103938 -1.4707e-05 1.11893e-18)
(0.000116966 1.72268e-05 -4.43236e-20)
(0.00045032 -0.000287381 -1.13615e-18)
(0.000811299 3.70057e-05 0)
(0.000182371 5.23726e-06 3.63368e-19)
(0.000300451 0.00131653 0)
(0.00107248 0.000771602 -7.3033e-20)
(0.000825841 3.46125e-05 -1.86539e-19)
(7.89232e-05 -2.07442e-05 -3.00043e-19)
(0.000824593 0.00032013 -2.08089e-20)
(5.89202e-05 -2.14857e-05 -5.99625e-19)
(0.000226142 0.000176986 8.64031e-20)
(0.000229053 0.000309885 -3.45072e-19)
(0.00088253 0.000246389 0)
(0.000812199 4.98857e-05 0)
(0.000262378 0.000138941 1.76879e-19)
(0.000234164 4.60224e-06 2.58941e-24)
(0.000184393 0.000207297 0)
(0.000291551 0.000654252 -5.55794e-21)
(0.000344745 -8.84567e-07 0)
(0.000367061 0.000600651 0)
(0.00010948 8.36082e-05 -1.34696e-21)
(0.000809785 2.55575e-05 -9.39796e-19)
(0.000808674 1.92017e-05 7.96259e-19)
(0.000129417 5.89975e-05 -1.49885e-19)
(0.000955005 0.000151324 8.50752e-20)
(0.000834973 4.39634e-05 3.33001e-19)
(0.000814668 2.52699e-05 -2.95106e-19)
(0.00101507 0.000411802 0)
(0.000436353 0.000121232 6.2456e-19)
(0.000895446 0.000319554 2.0918e-20)
(0.000573404 0.000157623 0)
(0.000271589 0.000446917 4.09709e-19)
(0.000261147 0.000218557 -8.44326e-20)
(0.00109426 0.000376884 -7.82272e-19)
(0.000619628 0.000106066 -1.79329e-19)
(0.000806206 7.30767e-05 -7.45075e-21)
(0.000838218 2.95761e-05 9.39586e-20)
(8.18461e-05 -8.78226e-05 -1.98177e-18)
(0.000736435 0.000382107 2.19275e-19)
(0.000664229 6.25162e-05 2.30669e-20)
(0.000704133 0.000279078 1.59685e-23)
(0.000726999 0.000458934 -4.09735e-19)
(0.000843543 3.22132e-05 9.06555e-20)
(7.24975e-05 8.11458e-05 0)
(0.000653608 0.000418536 -4.65953e-20)
(0.000183884 9.73588e-05 0)
(0.00037407 0.000501884 -2.6488e-19)
(0.000309571 0.000169527 0)
(0.000672228 0.000203763 3.553e-19)
(0.000646628 0.000260568 -4.37339e-20)
(8.17322e-05 0.00010496 6.19278e-19)
(0.000874686 9.19372e-05 -1.6194e-18)
(5.86269e-05 2.267e-05 2.57243e-19)
(0.000882993 6.55228e-05 -1.68436e-18)
(0.000837395 8.71479e-05 1.63065e-19)
(0.000808087 3.12128e-05 1.89486e-18)
(0.000812236 3.17241e-05 -1.32837e-19)
(0.000733057 7.30518e-05 0)
(0.000806154 2.73731e-05 8.95809e-19)
(0.000954745 0.000229539 -4.27193e-19)
(0.000768635 9.12834e-05 -4.83797e-19)
(0.000776761 0.000229982 -8.81408e-20)
(0.000217416 -0.000156638 -2.07991e-18)
(0.000742078 8.13139e-05 8.87647e-19)
(0.000639416 0.000596569 0)
(9.6424e-05 -0.000114236 0)
(0.00121567 0.000471286 4.97282e-19)
(0.000646955 -6.27241e-05 -3.24998e-18)
(0.00133848 0.000421756 5.76371e-19)
(0.0012359 0.000718306 -6.38591e-20)
(0.000808636 3.07922e-05 -2.10855e-19)
(0.000832421 6.75722e-05 -1.42472e-18)
(0.000814215 2.38967e-05 1.57198e-18)
(0.000816187 2.90034e-05 9.78447e-20)
(0.000668186 0.000351194 -4.40486e-20)
(0.000102223 0.000125251 5.34595e-24)
(0.000745969 -4.35169e-05 2.65143e-19)
(0.000220768 -0.000254115 -7.33028e-19)
(0.000619253 0.000187268 0)
(0.000704032 4.19236e-05 9.90616e-20)
(0.00068683 1.02238e-05 -3.80893e-19)
(0.000387169 0.000172434 3.93434e-20)
(0.000803527 0.00050405 -1.65504e-19)
(0.00014967 7.74098e-05 3.00206e-25)
(0.000809546 0.000409466 0)
(0.000976234 0.000319561 4.15857e-20)
(0.000751366 -7.89007e-05 -6.16407e-19)
(0.000346287 0.000107627 4.9789e-19)
(0.000902864 0.000424242 0)
(5.00963e-05 3.20226e-05 1.33737e-19)
(0.000480606 0.000268941 2.13989e-19)
(0.000495991 -0.000142799 -7.0964e-19)
(0.000140793 -0.000156206 -1.05788e-18)
(0.000822297 2.97298e-05 -4.86968e-19)
(0.000780786 -9.38793e-05 -1.94301e-19)
(0.000550846 0.000728127 -1.17457e-18)
(0.000843729 4.63754e-05 -6.74223e-20)
(0.000648531 -2.52838e-05 1.2693e-18)
(0.000697172 9.94397e-05 2.27829e-20)
(0.00052787 0.000211212 -1.65714e-19)
(3.29354e-05 -2.23451e-05 -8.76006e-20)
(0.000171917 -4.06627e-05 2.40656e-18)
(1.99401e-05 7.79285e-07 -1.94872e-19)
(0.000821991 0.000109981 3.63821e-19)
(0.000657569 0.000136941 0)
(0.000189478 -8.02324e-05 -1.04831e-18)
(0.000123108 -1.57904e-05 3.12971e-19)
(0.000112328 -3.50426e-05 1.13644e-23)
(0.000794436 0.000107537 -3.19326e-19)
(0.000154462 -1.06517e-05 0)
(0.000581695 0.000242557 0)
(0.000111204 0.000331571 -3.62912e-19)
(0.000856763 0.000100147 2.09486e-18)
(1.62584e-05 1.21635e-06 0)
(0.000874895 5.22783e-05 0)
(4.53469e-05 -2.6179e-05 0)
(0.000815209 4.3574e-05 -4.46408e-21)
(0.00079171 -4.89765e-05 0)
(0.00425989 0.0074063 8.06855e-20)
(0.00436135 0.00748591 1.43285e-19)
(0.000843841 -3.1887e-06 0)
(0.000781711 -5.06642e-05 8.10361e-19)
(0.000152932 0.000126784 1.49235e-19)
(0.000849733 6.98263e-05 8.07756e-19)
(0.000130647 0.000103495 2.34438e-20)
(0.000775529 -3.04282e-05 6.24865e-19)
(3.57901e-05 1.00902e-05 0)
(2.98044e-05 -1.41679e-05 -4.48566e-20)
(0.000892242 4.96824e-05 -4.86668e-19)
(3.53569e-05 -3.28722e-05 -6.69931e-19)
(0.000752497 0.000120356 -4.23326e-20)
(0.000168189 0.000164537 -1.88132e-19)
(0.000813904 2.55266e-05 0)
(0.00468261 0.00815364 9.00627e-22)
(0.000176113 0.000786549 3.33582e-19)
(0.000120854 -5.63148e-05 -9.14701e-19)
(6.34446e-05 -3.51745e-05 -1.16897e-18)
(0.000661539 1.46549e-05 1.89892e-20)
(0.000579406 0.000409636 0)
(0.000415875 0.000441457 -2.56374e-19)
(8.8708e-05 -5.87198e-05 1.18389e-18)
(0.000619286 8.77748e-07 7.70403e-20)
(4.31903e-05 2.06134e-06 4.07173e-19)
(0.000691486 -5.48561e-05 1.17189e-18)
(0.000809625 3.18899e-05 -5.96073e-19)
(6.93659e-05 -5.53263e-05 1.70955e-18)
(0.000842342 -1.88784e-05 -5.43585e-24)
(0.000638033 7.17397e-06 -3.76582e-20)
(0.000864118 6.76631e-05 0)
(0.000835052 3.6549e-05 0)
(0.00591684 0.007238 2.59538e-19)
(2.08466e-05 -1.86359e-06 -1.19599e-19)
(0.000134739 -9.72557e-05 7.73101e-19)
(0.000720261 0.000119657 -6.96585e-19)
(2.40802e-05 -1.70376e-07 2.01537e-19)
(0.00061111 -3.36707e-05 -7.23971e-19)
(0.000738703 3.69487e-05 1.55839e-18)
(0.000700478 0.000159206 -3.55507e-19)
(0.000807598 -1.3072e-05 3.60428e-19)
(7.98652e-05 -3.30287e-05 1.11623e-18)
(0.000798677 7.52874e-06 -3.22762e-19)
(0.00086366 4.31742e-05 0)
(0.000537916 0.000303336 4.21093e-20)
(0.000852514 5.01599e-05 -9.45921e-19)
(2.1315e-05 2.07422e-06 9.11351e-19)
(0.000849158 4.678e-05 9.65681e-19)
(0.000853815 3.16549e-06 -9.60294e-19)
(0.000742237 -1.29268e-06 -5.69305e-19)
(0.000512656 -6.78166e-05 -5.25755e-19)
(0.00432863 0.0074524 2.46924e-19)
(0.00422354 0.0075296 -2.54273e-19)
(0.0042215 0.0075879 2.66653e-19)
(0.00425582 0.00741056 1.97922e-19)
(0.000845297 -2.27061e-05 1.43949e-19)
(0.00447484 0.00751126 0)
(0.00440267 0.00751638 -3.86723e-19)
(3.25471e-05 -1.46904e-07 -9.98227e-19)
(0.00417052 0.00746934 -6.33519e-20)
(0.00414585 0.00743231 -2.21467e-19)
(0.00603007 0.0106069 0)
(0.00654045 0.0111876 3.71261e-20)
(0.00601003 0.0105767 0)
(0.00655614 0.0112112 1.30845e-19)
(0.00599743 0.0106008 2.69665e-19)
(0.00659278 0.0112279 1.24555e-20)
(0.00593604 0.0106135 -7.76679e-19)
(0.006623 0.0111468 8.14522e-21)
(0.00390363 0.00920129 -1.90875e-19)
(0.00418688 0.00748854 3.89825e-21)
(0.00423815 0.00755306 7.93415e-20)
(0.00415029 0.00743456 4.11949e-20)
(0.000871651 0.000189669 4.46836e-20)
(1.15991e-05 1.65999e-06 0)
(0.000692831 -0.000128532 0)
(0.000671825 4.74158e-05 0)
(0.00244408 0.0011088 4.24899e-21)
(0.000752074 -3.15028e-05 1.72622e-19)
(4.16763e-05 6.14772e-06 4.54144e-20)
(1.21231e-05 -2.88207e-05 1.65358e-18)
(0.000847123 1.67464e-05 0)
(2.87441e-05 1.3211e-05 -1.91765e-19)
(0.000140915 0.000225171 0)
(2.04333e-05 -1.0953e-06 0)
(1.67175e-05 -1.499e-06 0)
(0.000817264 0.000135355 1.13693e-20)
(0.000809662 -1.55801e-05 1.79283e-19)
(3.5637e-05 0.000280609 -1.89189e-23)
(0.000158484 0.000274429 -1.84225e-18)
(0.000599541 0.00033096 -8.57157e-20)
(0.000895511 0.000112373 5.99902e-19)
(0.00067434 -0.000248026 6.73021e-19)
(0.000362806 0.00110859 0)
(0.000466336 0.00057416 2.7157e-18)
(9.13536e-05 0.000148093 -1.80336e-18)
(2.51369e-05 1.66907e-07 0)
(0.000819764 -5.36459e-05 3.63171e-20)
(1.7245e-05 3.77022e-05 1.64482e-18)
(0.000900118 3.04438e-05 2.71273e-19)
(-5.06311e-06 -2.53598e-05 3.80176e-18)
(0.000929997 3.9419e-05 -2.69112e-19)
(0.00136247 0.000152114 7.47444e-19)
(3.73224e-05 -1.11105e-05 8.25879e-20)
(3.85905e-05 4.45374e-06 -8.59218e-19)
(5.0438e-05 0.000145298 0)
(0.000904986 7.75686e-05 5.98553e-19)
(0.000491905 0.000368479 2.37186e-19)
(0.000685629 1.79705e-05 -3.89211e-20)
(0.000773328 -6.55464e-06 2.57106e-19)
(0.000735717 -0.000193615 0)
(0.00632155 0.010897 -1.68033e-19)
(0.00637926 0.0109745 4.05765e-19)
(0.00616078 0.0107319 -6.18353e-19)
(0.00650148 0.0111329 -8.09712e-20)
(3.56707e-05 0.000120819 8.00693e-19)
(0.000914063 5.91543e-05 1.47252e-22)
(0.00641177 0.0110069 -3.86397e-19)
(0.00628255 0.0108467 5.48375e-19)
(0.00608091 0.0106737 -4.16768e-19)
(0.00652196 0.0111653 -6.81313e-20)
(8.13999e-05 0.000514666 -2.01856e-20)
(9.87541e-05 -0.000203892 -7.94116e-19)
(0.00068945 -2.00864e-05 -7.61987e-19)
(0.00072104 0.000220765 0)
(0.000799527 8.81428e-07 0)
(0.000185037 0.000391984 3.36357e-19)
(0.00059614 0.000520243 -5.41888e-19)
(1.17467e-05 -1.94841e-06 1.78435e-19)
(0.000202719 0.000466485 -7.38524e-19)
(0.00100373 0.000969154 -1.12706e-19)
(0.000738958 0.000166614 0)
(0.000784743 0.000181522 1.31051e-19)
(0.00635475 0.00587631 1.13141e-18)
(0.000740513 0.00112677 8.26678e-20)
(4.00921e-05 3.95636e-05 -7.4485e-20)
(0.000812632 1.88757e-05 0)
(0.000875534 2.63219e-05 -3.56996e-20)
(3.67846e-05 3.82051e-06 -1.9674e-19)
(3.17541e-05 5.25539e-06 1.9303e-19)
(0.000831247 2.14654e-05 5.37359e-19)
(0.00096801 0.000107242 6.58655e-19)
(0.000586814 3.70526e-05 0)
(0.000221591 -0.000307288 -3.98083e-19)
(0.000911701 0.000149752 3.89696e-19)
(1.79531e-05 -6.66423e-05 2.03162e-19)
(0.00144457 0.000438233 -2.58064e-18)
(0.000617309 -5.49678e-06 0)
(0.00078767 0.000144722 3.75559e-19)
(9.35735e-05 0.000398767 0)
(0.00118657 0.00816429 4.62195e-19)
(0.000484917 0.000501315 -1.22478e-18)
(0.000543023 0.00100024 -1.83787e-19)
(0.000877225 1.98088e-05 -1.46079e-19)
(1.43158e-05 2.66813e-05 0)
(0.000938166 7.66837e-05 6.11862e-19)
(0.00410644 0.00739527 8.14111e-20)
(0.00417144 0.00747389 4.72952e-20)
(0.00449841 0.00751393 4.54013e-19)
(0.00444396 0.00754047 -3.28926e-19)
(0.00647541 0.01111 8.10489e-20)
(0.00391506 0.00714607 -9.68887e-22)
(0.00550667 0.00779507 -5.64718e-19)
(0.0040981 0.00737167 5.21755e-21)
(0.00518711 0.00785519 5.11635e-19)
(0.0040799 0.00734008 -4.86985e-20)
(0.00495213 0.00771459 0)
(0.0040852 0.00736437 -8.56291e-20)
(0.00474085 0.00758615 4.92471e-19)
(0.00409839 0.00737596 8.74938e-20)
(0.00457347 0.00752574 0)
(0.00428343 0.00742042 1.3973e-19)
(0.00423969 0.00759944 5.80016e-19)
(0.00446633 0.00752578 -5.5468e-19)
(0.00438696 0.00750402 3.71342e-19)
(0.00422816 0.00752547 2.88754e-19)
(0.00643088 0.0110435 -4.97508e-21)
(0.00411783 0.0074014 3.11543e-20)
(0.00645892 0.0110733 0)
(2.56682e-05 6.5709e-06 -1.89902e-19)
(0.00199907 0.00654304 2.28353e-19)
(0.000840907 -4.00667e-05 1.09633e-19)
(0.000857555 1.18223e-05 0)
(2.04273e-06 1.84006e-06 -3.99201e-19)
(9.2744e-06 -0.000153167 6.91955e-19)
(2.46751e-05 5.88538e-05 2.08944e-18)
(0.000822809 0.000179076 -9.00961e-20)
(0.000798732 1.01416e-05 7.06575e-19)
(2.039e-06 -1.82774e-06 3.1006e-19)
(2.09965e-05 -3.64946e-05 -1.8461e-18)
(0.000760512 2.7854e-05 1.63193e-19)
(0.000864477 0.000124829 -3.08067e-20)
(0.000799646 -9.56939e-06 1.48176e-19)
(0.000407048 0.000677892 0)
(6.17888e-05 -0.000150119 1.15149e-18)
(0.000858743 1.10563e-05 1.5255e-19)
(2.08502e-05 2.509e-05 0)
(0.000112421 0.00056339 -6.31337e-19)
(0.000605475 0.000597946 1.31818e-18)
(0.000327277 0.000745599 0)
(0.000799992 -1.7629e-05 0)
(0.000799542 3.58256e-06 1.17196e-18)
(1.89126e-05 5.08945e-05 -3.5157e-18)
(1.78954e-05 8.01482e-06 3.73705e-19)
(0.000115802 0.000148311 0)
(4.95693e-05 -4.20395e-05 0)
(6.35584e-05 0.000115075 2.01042e-19)
(0.000930999 0.000184525 3.50518e-19)
(0.000799741 1.61859e-05 -1.3942e-18)
(2.38046e-05 3.47742e-05 0)
(0.000482801 1.54522e-05 -6.03763e-20)
(0.00080119 4.0005e-05 -1.56382e-19)
(0.000836857 3.17522e-05 1.06218e-18)
(0.000258306 0.000543082 6.32347e-19)
(0.000868014 0.000155468 0)
(2.16566e-05 -2.56518e-05 5.38801e-19)
(3.08009e-06 -7.60727e-06 -3.20039e-19)
(0.00099804 2.96625e-05 0)
(0.00103235 0.00225853 0)
(0.000957532 -1.03594e-05 0)
(0.000997798 0.000205115 4.27286e-19)
(0.000815739 -3.10778e-05 -2.83698e-19)
(0.000923673 0.000110747 -6.84945e-19)
(0.00079965 3.31059e-06 0)
(4.26837e-05 7.13015e-05 -1.71603e-19)
(0.000174002 0.00032858 1.08134e-18)
(0.000797533 1.91783e-05 -1.27444e-23)
(0.00108346 0.000207428 -6.6916e-19)
(0.00109036 0.000123372 0)
(2.84945e-06 7.56807e-06 2.51086e-19)
(2.03664e-05 -1.67236e-05 -1.94357e-19)
(0.000591068 3.68537e-05 6.95182e-21)
(1.84208e-05 -8.79747e-05 0)
(0.00105293 0.000252459 9.50241e-19)
(0.0050289 0.00974974 -2.83035e-19)
(0.00312085 0.00962047 1.27233e-18)
(5.23172e-05 -0.000110447 -1.91368e-19)
(6.26088e-05 -7.7302e-05 1.85997e-18)
(0.00119249 0.000240339 1.6729e-19)
(0.00132906 0.00108085 2.34132e-19)
(0.000813355 1.56011e-07 -7.32074e-19)
(0.000202037 0.000952472 -2.38435e-19)
(0.000808972 0.000923789 -2.18625e-19)
(0.000799622 -3.40707e-06 0)
(8.71322e-05 0.000635161 0)
(9.61403e-05 0.000284236 -4.13721e-23)
(0.000721565 -3.87848e-05 -1.68261e-23)
(0.000820169 6.01287e-05 1.50687e-19)
(0.00262994 0.00206477 -1.23158e-18)
(0.00175902 0.00924096 -1.17183e-19)
(0.000833386 4.58179e-05 4.92309e-19)
(0.00632833 0.00404386 -1.75919e-19)
(0.00672097 0.0115578 -1.36428e-20)
(0.00473434 0.00784395 4.92792e-21)
(0.000800999 1.43854e-05 -2.18856e-18)
(0.00083356 1.36612e-05 3.26852e-24)
(1.04517e-05 -8.64736e-06 -3.48099e-19)
(4.69955e-05 9.25549e-05 -3.49356e-19)
(6.92664e-05 0.000274253 8.75495e-19)
(1.21314e-05 1.72868e-05 4.9052e-19)
(8.97325e-05 0.000233536 3.69842e-19)
(0.00082244 2.75721e-05 0)
(0.00534805 0.00949235 1.95069e-20)
(0.00153163 0.000629174 -2.61093e-20)
(0.000820007 3.19742e-05 3.59811e-19)
(4.18117e-05 -8.60747e-05 0)
(0.00184789 0.000738474 5.46155e-19)
(1.05198e-05 8.42412e-06 -2.70217e-19)
(3.53182e-05 2.99465e-05 9.72048e-20)
(0.00132219 0.00139241 6.36655e-19)
(0.000736147 4.59591e-05 1.8315e-19)
(6.5954e-06 -2.06365e-06 -1.70244e-19)
(0.00206472 0.00155386 -1.05619e-18)
(0.000126581 0.00018189 -8.18917e-19)
(0.00392141 0.00848789 -1.09113e-18)
(6.68678e-06 1.89289e-06 8.81631e-20)
(0.000150102 -0.000154591 -1.25511e-18)
(5.36479e-05 -5.87612e-05 4.05744e-20)
(0.00152911 0.000975277 0)
(0.00103633 0.000139264 -4.09189e-22)
(0.000454563 0.00085031 -4.02198e-20)
(0.000802457 2.64623e-05 -2.33882e-19)
(8.71641e-05 0.000188112 7.3622e-19)
(3.69601e-05 -6.47496e-05 4.04115e-19)
(1.93889e-05 1.62499e-05 -9.47323e-20)
(3.31617e-05 9.57965e-05 -3.20361e-19)
(0.000202501 -0.000286633 -5.44933e-19)
(0.00325216 0.00345536 2.80307e-21)
)
;

boundaryField
{
    back
    {
        type            empty;
    }
    ingreso
    {
        type            fixedValue;
        value           uniform (0.0008 0 0);
    }
    salida
    {
        type            zeroGradient;
    }
    front
    {
        type            empty;
    }
    defaultFaces
    {
        type            noSlip;
    }
}


// ************************************************************************* //
