/*--------------------------------*- C++ -*----------------------------------*\
  =========                 |
  \\      /  F ield         | OpenFOAM: The Open Source CFD Toolbox
   \\    /   O peration     | Website:  https://openfoam.org
    \\  /    A nd           | Version:  8
     \\/     M anipulation  |
\*---------------------------------------------------------------------------*/
FoamFile
{
    version     2.0;
    format      ascii;
    class       volVectorField;
    location    "9.4";
    object      U;
}
// * * * * * * * * * * * * * * * * * * * * * * * * * * * * * * * * * * * * * //

dimensions      [0 1 -1 0 0 0 0];

internalField   nonuniform List<vector> 
5119
(
(0.000903127 0.00142438 9.15833e-23)
(0.000205818 6.46375e-05 4.15477e-21)
(0.000833793 1.75024e-05 -2.41698e-21)
(0.000606294 0.000804399 -1.11827e-24)
(0.000770912 0.00126217 1.83252e-22)
(0.000866253 6.61736e-05 1.24135e-21)
(0.000270304 0.000203509 -1.26892e-21)
(3.22176e-05 -4.13374e-06 -6.17187e-23)
(0.000211723 0.00109209 -1.06077e-21)
(0.000957713 0.00147626 7.45016e-23)
(0.000641899 0.000802227 1.52052e-24)
(0.00073916 0.00113314 -3.11734e-22)
(0.000730679 0.00118426 -2.13212e-22)
(0.000712834 0.000491995 9.65101e-22)
(0.000829402 0.00131372 -7.11139e-23)
(0.000670177 0.00116499 0)
(0.00080923 0.00141615 2.74277e-22)
(0.000828075 0.00129702 -9.56087e-23)
(0.00092195 0.00144884 2.72709e-22)
(0.000766616 0.00120912 6.08705e-23)
(0.00073919 0.00122984 2.71056e-22)
(0.00067878 0.00108215 7.21374e-22)
(0.000686809 0.00110246 -1.49744e-22)
(0.000827863 0.00126512 1.06931e-22)
(0.00072697 0.00116314 0)
(0.000943134 0.00147362 6.21678e-22)
(0.000724093 0.00111337 0)
(0.000742315 0.00113656 8.19844e-23)
(0.000758224 0.00116117 3.13678e-22)
(0.000681229 0.00106643 8.45431e-23)
(0.000770482 0.0011844 -2.80393e-22)
(0.000759749 0.00116597 -8.24466e-24)
(0.000695097 0.00110479 5.32086e-22)
(0.00081608 0.00127932 0)
(0.000969745 0.00147413 -9.08268e-23)
(0.000724444 0.00113141 2.69507e-22)
(0.000697889 0.00108878 2.63723e-22)
(0.000709643 0.00110759 3.57507e-23)
(0.000693759 0.00116011 -9.23836e-25)
(0.000688915 0.00107629 8.75053e-22)
(0.000601309 0.00016241 2.70722e-25)
(0.00089343 0.00149218 -3.83933e-22)
(0.00075025 0.00129459 2.09756e-22)
(0.000685087 0.0011792 0)
(0.000678006 0.00115398 -2.25449e-22)
(0.000616722 0.000148306 -1.92322e-21)
(0.000795018 0.00135183 -7.03222e-22)
(0.000693114 0.00117718 0)
(0.00076698 0.00129014 7.76889e-24)
(0.000748309 0.00128826 -1.95405e-22)
(0.000602782 0.000402996 -1.50155e-21)
(9.37669e-05 0.000626975 -1.00573e-21)
(0.000944825 3.92533e-05 -5.09881e-22)
(0.00064734 7.25067e-05 2.07619e-21)
(1.41836e-05 0.000420823 -2.97657e-21)
(0.00070585 0.00115416 8.17972e-22)
(0.00069415 0.000757566 1.36986e-24)
(3.56751e-05 -1.63582e-06 8.68086e-22)
(0.000735609 0.00123711 0)
(0.000874701 0.00146746 0)
(0.000650035 0.00119442 -1.39997e-21)
(0.000682346 0.00115333 2.15698e-21)
(0.000716463 0.00117589 0)
(0.000803982 0.00135368 1.15027e-21)
(0.000489816 0.00011171 1.12923e-21)
(0.000790653 0.00134915 8.0504e-22)
(0.00075973 0.000368458 2.39752e-24)
(0.000892413 0.000578939 9.92207e-22)
(0.000788917 0.00132541 0)
(0.000696096 0.000507768 -2.93459e-22)
(0.000199131 0.000356372 -1.37985e-24)
(0.00017463 -2.45576e-05 -4.4951e-21)
(0.000899284 0.000316432 1.34256e-21)
(0.000685796 0.00117131 3.85684e-22)
(0.000729952 0.00115942 -1.32664e-21)
(0.000903941 0.00140738 0)
(0.000318882 9.43138e-05 9.25884e-22)
(0.000610998 0.000203304 5.67738e-22)
(0.000542411 0.00104985 0)
(0.000497819 0.000937901 -7.32142e-22)
(2.50475e-05 0.000688027 0)
(0.000957404 0.000520343 0)
(0.000945466 0.00150977 0)
(0.000686624 0.00137573 1.52709e-23)
(0.000626643 9.8904e-05 0)
(0.000683663 0.00123579 1.28118e-22)
(0.000776846 -4.03626e-05 2.1775e-21)
(0.000726021 0.00124851 1.83914e-21)
(0.000569675 0.0011592 3.33852e-23)
(0.000593193 0.00120342 0)
(0.000580009 0.00117859 0)
(0.00055747 0.00113629 0)
(3.45334e-05 -1.21437e-06 -1.40315e-21)
(0.000425618 0.000772902 -1.37713e-21)
(0.000435008 0.000777471 0)
(0.000464363 0.000678995 2.32032e-21)
(0.000876899 4.8579e-06 0)
(0.000708868 0.00122169 1.52314e-21)
(0.000684622 0.000778062 1.38504e-21)
(0.000702536 0.00121455 -1.29233e-22)
(0.000760686 0.00140166 6.03775e-22)
(0.000652336 0.00117402 0)
(0.00149987 0.000949495 -2.24502e-21)
(0.000762771 0.00164403 -3.99164e-22)
(0.000316941 0.00011631 2.00796e-21)
(3.66843e-05 5.28063e-06 1.03367e-21)
(0.000690902 0.00128762 -1.88491e-21)
(0.000577654 0.000311134 4.32882e-22)
(0.000848623 0.000586883 1.25349e-22)
(0.000668621 3.26385e-05 0)
(0.00041084 0.0012928 -2.4474e-21)
(3.63107e-05 2.00846e-06 -1.85731e-26)
(0.00024252 -3.55673e-05 8.02695e-22)
(0.000794647 0.00129442 -1.97656e-22)
(0.000299529 0.000163211 4.09844e-21)
(0.000476385 0.000637599 -2.19496e-22)
(0.000514587 0.000791623 -1.74354e-21)
(3.86036e-05 4.10855e-06 -1.93977e-21)
(0.000504153 0.00056541 -3.80166e-21)
(0.000802312 0.00131836 9.75764e-23)
(0.000785121 0.00035984 0)
(0.000833451 0.00138118 -6.34515e-22)
(0.000176139 0.000862361 -4.34738e-22)
(0.000708578 0.0012472 1.20946e-21)
(0.000854285 0.0014738 -1.58776e-21)
(0.000923514 0.0015759 4.12853e-22)
(0.000731419 0.00131117 -2.8024e-24)
(0.000866393 0.00154385 -2.30496e-22)
(0.000818979 0.00134456 4.27831e-22)
(0.000700445 0.00120363 -3.15257e-22)
(0.000714999 0.0012524 -1.28266e-21)
(0.00070337 0.00118643 -2.07687e-22)
(0.000858407 0.00140443 -4.21046e-22)
(0.000767891 0.00127586 -4.017e-22)
(0.000807893 1.67073e-05 -1.43483e-21)
(0.000577641 0.000334017 1.83941e-25)
(0.000647482 0.00132124 0)
(0.000753792 0.00126153 0)
(0.000233941 0.000323983 1.2205e-21)
(0.00081487 0.00134285 0)
(0.000682575 0.00118345 -9.8567e-22)
(0.000667595 0.0011537 3.29564e-22)
(0.000645295 0.00113508 2.53447e-22)
(0.000683087 0.00110447 1.09563e-22)
(0.000740544 0.00124346 3.49716e-22)
(0.000728195 0.00121483 1.37801e-22)
(0.000727909 0.00121275 -8.94798e-23)
(0.000753232 0.00126288 0)
(0.000737264 0.00123606 -9.08968e-23)
(0.000862603 0.000908176 -3.26964e-22)
(0.000639979 0.00128386 0)
(0.000890082 0.00019085 0)
(0.00064572 0.00118677 0)
(0.000448726 0.000759448 2.24817e-21)
(0.000334782 0.000623793 2.06955e-21)
(0.000879836 0.00145502 3.20879e-23)
(0.000397111 0.000636244 2.78671e-21)
(0.000970468 9.44756e-05 0)
(0.000280072 0.00026826 9.91798e-22)
(0.000182526 0.000710496 2.04979e-22)
(0.000716142 0.00147144 -9.50966e-22)
(5.14311e-06 1.59033e-06 0)
(0.000146631 0.000270088 -2.17069e-21)
(0.000783057 0.00139108 -9.131e-22)
(3.71436e-05 4.12033e-06 4.82426e-22)
(0.000991365 0.000244943 2.26573e-21)
(3.25479e-05 0.000187248 -5.95028e-21)
(0.00014956 -1.75601e-05 -1.42529e-21)
(4.04526e-05 -7.49171e-07 1.70792e-21)
(0.000128714 0.00057112 0)
(0.000267074 0.000357127 1.60133e-22)
(0.00086182 0.00154479 4.19744e-22)
(0.000477803 0.000554755 2.1712e-21)
(0.000480123 0.000465975 -2.17168e-22)
(0.000400896 0.000604396 2.23699e-21)
(0.000535153 0.000473377 -2.10696e-21)
(0.000150856 0.000317701 -1.62461e-24)
(0.000644518 0.00116003 1.07409e-22)
(3.56785e-05 8.67776e-06 -1.627e-21)
(0.000788855 0.00143131 2.24475e-22)
(0.000793661 0.000335516 -2.94494e-21)
(0.000737208 0.000378019 0)
(0.00073088 0.00122062 0)
(0.000562869 0.000964955 -1.33923e-21)
(0.000255515 7.20472e-05 -2.6396e-21)
(0.000467966 0.000702804 -3.68183e-22)
(0.000462906 0.000107417 1.0822e-21)
(0.000320327 0.0003038 -1.04008e-21)
(0.000581433 0.0003758 -1.63979e-21)
(0.000263169 0.000179885 -1.0622e-21)
(0.000154639 0.000709413 0)
(0.000562585 0.00125429 -4.29722e-22)
(0.000771799 0.00129348 9.63272e-22)
(0.000534244 0.00055726 1.9306e-21)
(2.43809e-05 -4.62841e-06 0)
(0.000338833 0.000758658 0)
(0.000696165 1.54446e-05 -1.35733e-21)
(0.000708818 0.000394259 4.99968e-21)
(0.00043232 0.000888373 1.02482e-21)
(0.000942406 0.000182289 1.85156e-22)
(0.000136426 -1.32533e-05 -3.78041e-21)
(0.000575947 0.000997869 0)
(4.05234e-05 1.20186e-06 -1.73568e-22)
(0.000751068 0.00132773 -2.60595e-22)
(0.000666729 0.00122813 0)
(0.000692698 0.00124911 2.3926e-22)
(0.000659799 0.00113558 1.11227e-21)
(0.000527691 0.00121785 -3.14642e-21)
(0.000312264 0.000407222 7.67286e-22)
(0.000793796 0.000563312 -4.21446e-21)
(0.000161362 0.000254837 2.16659e-21)
(0.000423594 0.000603131 4.41217e-23)
(0.000921476 0.000317466 -1.64715e-24)
(0.000469549 0.000661996 -1.3669e-21)
(0.000604398 0.000299883 4.01642e-22)
(0.000330356 0.000412949 -9.85604e-22)
(0.000249756 0.000319318 3.81761e-26)
(0.000379078 0.000530134 -1.16306e-21)
(0.000369971 0.00062015 -2.01554e-24)
(0.000344939 0.000298048 7.21093e-22)
(0.000709384 0.00150387 9.52223e-22)
(0.000434508 0.000647688 0)
(3.12614e-05 7.30912e-06 0)
(0.000689851 0.00127774 -7.2724e-22)
(0.000456761 0.000637621 -1.09705e-22)
(0.000561396 0.0008039 0)
(0.00024775 9.56548e-05 -2.80902e-25)
(0.000679753 0.000189813 0)
(0.000804345 0.00141186 0)
(0.000679455 0.00122782 1.98025e-22)
(3.0149e-05 1.79913e-05 -3.83761e-21)
(0.000799866 0.00135719 -4.88327e-22)
(0.000634032 0.00114551 7.02867e-22)
(0.000785815 0.00141101 1.52776e-21)
(0.000697419 0.00117503 0)
(0.000282381 0.000379077 8.66405e-23)
(0.000731068 0.00122266 1.54537e-21)
(0.000641127 0.00111579 0)
(5.74295e-05 0.000401368 3.27243e-22)
(0.000448471 0.00105646 -2.09348e-22)
(0.00045005 0.000571535 -2.42005e-21)
(0.00012673 0.000259273 3.08836e-25)
(0.000448814 0.000725287 4.27293e-23)
(0.00130435 0.00137063 0)
(0.000772525 0.0014031 -1.06295e-21)
(0.000869352 0.00159957 -2.30765e-22)
(0.000759762 0.00132638 -3.56988e-22)
(0.000310946 0.000374674 1.42337e-21)
(0.000652825 0.00110368 3.38211e-22)
(0.000612208 0.00112063 1.43079e-22)
(0.000695802 0.00118152 0)
(0.000891928 0.00151671 0)
(0.000698331 0.00120235 0)
(0.000694081 0.00127315 2.75969e-22)
(0.000639282 0.00113527 -3.82105e-22)
(0.000676595 0.00115489 -1.00272e-21)
(0.000653028 0.00115949 0)
(0.000608949 0.00112421 -1.88519e-22)
(0.000830936 0.00147353 3.97259e-22)
(0.000816968 0.000472731 -7.40936e-22)
(0.00029989 0.000285939 0)
(5.99519e-05 -0.00017331 -6.89918e-22)
(0.00120753 0.000944209 0)
(0.000711664 0.00125706 4.08689e-22)
(0.000670186 0.0011774 3.9637e-22)
(0.000693052 0.00120417 2.14056e-22)
(0.00074082 0.00128756 -5.3332e-22)
(0.000683791 0.00120849 0)
(0.000198853 0.000328502 1.64321e-22)
(0.000883897 0.00162222 -5.10426e-22)
(0.000566416 0.000358597 4.49698e-22)
(1.39421e-05 -7.1784e-06 0)
(0.000890603 0.00151836 3.80908e-22)
(0.00077133 0.00138109 1.81653e-21)
(0.000734094 0.00121492 6.52231e-23)
(0.000916174 8.68219e-06 2.88539e-21)
(0.00156497 0.00109302 1.83733e-21)
(0.000690489 0.00113233 0)
(0.000606806 0.00100635 3.86557e-23)
(0.000749635 0.00119873 1.0265e-21)
(0.000624314 0.00096942 1.08417e-21)
(0.00054521 0.000927142 -3.79285e-22)
(0.000533819 0.000908462 -5.00577e-22)
(0.000586838 0.000949882 3.67829e-22)
(0.000526618 0.000898423 0)
(0.000611402 0.00104675 -6.20422e-22)
(0.000694828 0.00116492 2.67082e-22)
(0.000589857 0.000957308 0)
(0.000705573 0.00118171 1.63881e-22)
(0.000586553 0.00100486 3.88708e-23)
(0.00064778 0.000972803 -1.0384e-21)
(0.00053389 0.000928634 -3.18627e-22)
(0.000580338 0.000871736 4.53951e-22)
(0.00016371 0.000236947 4.79671e-21)
(0.000689905 0.00117027 1.14019e-22)
(0.000788946 0.00133357 -1.18087e-21)
(0.000721287 0.00122238 0)
(0.000490511 0.000484815 2.01169e-22)
(2.05444e-05 0.000108067 1.28185e-21)
(0.000664494 0.00116612 0)
(0.00141071 0.00027073 0)
(0.000648758 0.00101322 4.57373e-22)
(0.000296644 0.000609986 0)
(0.000908899 0.000134565 2.48626e-21)
(0.000456915 0.000542138 0)
(0.00098131 0.000239124 0)
(0.000948988 5.32354e-05 0)
(0.000573483 0.00103456 1.00526e-22)
(0.000456279 0.000659846 2.58293e-22)
(0.00078655 0.00125418 -2.21576e-24)
(0.000625164 0.00102482 -1.3272e-22)
(0.000659983 0.00114138 0)
(0.000687456 0.00115471 6.81253e-22)
(0.0007307 0.00118379 -2.82896e-22)
(0.00072193 0.00122878 0)
(0.000796156 0.0013043 3.63329e-22)
(0.000265633 7.03312e-05 5.49591e-21)
(0.000855278 -0.000100808 1.75422e-21)
(0.000806745 0.00144398 -3.34574e-22)
(0.00083328 0.00140562 -6.69531e-22)
(0.000681334 0.00081173 1.40312e-22)
(0.00065019 0.00116332 3.22989e-24)
(0.000615025 0.00105804 -6.1168e-22)
(0.000909231 0.000144244 0)
(0.000436573 0.000767839 -1.16971e-21)
(0.000637061 0.00127376 -3.0961e-22)
(0.000760748 0.000699657 -2.53367e-21)
(0.000780098 0.00140196 -4.97015e-22)
(0.000794873 0.00134041 -2.72368e-24)
(3.22915e-05 0.000582417 -2.30782e-21)
(0.000744131 0.00119365 7.09587e-22)
(0.000956923 0.00161355 -8.60195e-22)
(0.000588707 0.00125998 1.44583e-22)
(0.000269777 0.000338193 9.73128e-22)
(0.000871062 5.51883e-05 0)
(0.000715358 0.00112757 1.40632e-22)
(0.000523562 0.000942061 -3.34218e-22)
(0.000629594 0.00114786 1.21002e-21)
(0.000677906 0.00111155 -1.6983e-22)
(0.00069655 0.0012034 -1.60171e-22)
(0.000558443 0.00100996 1.07537e-21)
(0.000592506 0.000994924 2.63745e-22)
(0.000669994 0.000805249 3.82924e-23)
(0.000707109 0.00128049 -3.28124e-22)
(0.000559201 0.00100516 -9.33874e-22)
(0.000529927 0.0009162 -1.11275e-22)
(0.000642557 0.00105502 -4.22077e-22)
(0.000528165 0.000917908 0)
(0.000312639 0.000567159 1.2903e-21)
(0.000312492 0.000634092 0)
(0.000705108 0.00120194 -3.92662e-22)
(0.000676779 0.0010976 -1.06381e-21)
(0.000741995 0.00122593 3.38751e-22)
(0.000837358 0.00135485 -8.86174e-22)
(0.000733453 0.00117135 -6.28775e-22)
(0.000678413 0.00112099 -2.02899e-21)
(0.000734672 0.00122881 0)
(0.000718428 0.00122972 0)
(0.000732246 0.00119368 -2.53711e-22)
(0.000886424 0.00137788 1.13224e-21)
(0.00085357 0.00143294 3.86353e-22)
(0.000663555 0.00112985 -1.67656e-23)
(0.000670046 0.00113692 0)
(0.000684043 0.00108369 6.16657e-22)
(0.000675645 0.00109244 -1.97026e-22)
(0.000684693 0.00116182 -2.78803e-23)
(0.000852179 0.00141771 0)
(0.000670481 0.0010991 2.92744e-22)
(0.000677397 0.00114337 -7.65186e-22)
(0.000691484 0.00116891 4.49295e-22)
(0.000677381 0.00113094 0)
(0.000837046 0.00141071 -2.6096e-22)
(0.000879424 0.00147661 1.09996e-21)
(0.000877784 0.00149113 1.04211e-21)
(0.000527407 0.000692516 -1.23569e-24)
(0.000820315 0.000599465 2.10465e-21)
(0.000623401 0.000425097 1.51273e-21)
(0.000522619 0.000537123 -1.18388e-21)
(0.000793543 0.00143152 2.31951e-22)
(0.000764914 4.20101e-05 1.24153e-21)
(0.000189169 0.000687072 0)
(0.00029853 0.000260585 -1.30032e-21)
(0.000618644 0.00100604 -3.18217e-22)
(0.000660077 0.00117911 1.98286e-22)
(0.000702442 0.00119746 0)
(0.000693351 0.00138254 1.04112e-21)
(1.83964e-05 -1.49876e-06 -3.40586e-26)
(0.000566906 0.000970265 2.28796e-22)
(0.000624805 0.00104528 1.91723e-22)
(0.000544893 0.000953743 6.84364e-22)
(0.00100123 0.000212426 -2.58119e-21)
(0.000875047 0.000192777 -1.75886e-21)
(0.000679813 0.00144675 -7.90069e-22)
(0.000586358 0.000279806 -3.92439e-22)
(0.000528942 0.000928181 0)
(0.000510093 0.000914172 3.3225e-22)
(0.000518242 0.000864304 5.80557e-23)
(0.000554579 0.000957252 -2.36681e-22)
(0.000545522 0.000936554 -1.1806e-22)
(0.00076032 0.000390671 -1.96932e-21)
(0.000705893 0.0012535 3.29004e-22)
(0.000351667 0.000281245 3.86696e-22)
(1.91784e-05 -6.61041e-06 -2.78598e-25)
(0.000622503 0.001314 4.89987e-22)
(0.000810031 0.00137832 -1.31417e-21)
(0.00109801 0.000567318 -1.03538e-25)
(0.000139027 0.000827925 0)
(3.77397e-05 8.26696e-06 9.00093e-22)
(0.000115126 0.000551754 0)
(0.000559946 0.000901122 -8.50081e-22)
(0.000688443 0.00128089 0)
(0.00084002 0.0014137 0)
(0.000750866 0.00130453 5.70859e-22)
(0.000571193 0.000978907 0)
(0.000551074 0.000941169 -5.04571e-23)
(0.000558872 0.00095794 1.04259e-22)
(0.000286258 0.000843627 -1.96738e-21)
(0.000677171 0.00120029 -1.02171e-21)
(0.000813676 0.00131556 0)
(0.000761756 0.000286066 2.90711e-21)
(0.00056984 0.000287133 3.34882e-21)
(0.000649679 0.00116527 0)
(0.000465507 0.000571473 2.34788e-21)
(0.000583141 0.000350632 1.07911e-21)
(0.000290294 0.000355833 -3.35118e-22)
(0.000521811 0.000644849 2.80014e-22)
(0.0008713 0.000290939 2.26378e-21)
(0.000656188 0.00121057 4.20724e-22)
(0.000707368 0.00130038 0)
(0.000870235 7.97603e-05 9.64193e-22)
(0.000536907 0.00105821 2.88623e-22)
(0.000735084 0.00117082 2.05003e-22)
(0.000863567 0.001355 -1.93803e-23)
(0.000967688 0.000189314 -2.963e-21)
(0.000312401 0.000546643 0)
(0.000678794 0.000414638 0)
(0.000592512 0.00120383 -8.28429e-22)
(0.000640349 0.00128677 -1.52753e-21)
(0.000892732 0.000138484 2.50484e-21)
(0.000370689 0.000320521 1.55285e-21)
(0.000104269 0.000757848 1.68654e-22)
(0.000919623 0.000330467 0)
(0.000347183 0.000764264 6.26286e-22)
(0.000622642 0.00115951 0)
(0.000648511 0.00120273 5.26489e-23)
(0.000663478 0.00122841 0)
(0.000636839 0.00118278 0)
(0.000324816 0.000279888 3.84037e-25)
(0.000816989 0.00102319 2.12198e-22)
(0.000814039 0.0014015 1.6994e-22)
(0.00134952 0.000766339 -1.10957e-21)
(3.52843e-05 5.6196e-05 0)
(0.000932423 0.00153306 -7.31183e-22)
(0.000652506 0.00114804 0)
(0.000821295 0.00143612 0)
(0.000840411 0.00142671 -4.58863e-22)
(0.000653311 0.00114186 -1.34294e-23)
(0.000660383 0.0011212 2.0513e-22)
(0.000656578 0.00113576 1.55509e-22)
(0.000670985 0.0011599 -6.22284e-22)
(0.00066595 0.00113341 -1.03304e-21)
(0.000835127 0.0014771 -3.77609e-22)
(0.000690101 0.00123643 -7.31336e-24)
(0.000733734 0.00116553 0)
(0.000328824 0.000394219 -3.57955e-22)
(0.000514642 -0.000143636 1.72825e-21)
(0.000823506 0.00140688 -9.63152e-22)
(0.000733421 0.00128793 -1.20203e-22)
(0.000716358 0.00122786 -2.98989e-22)
(0.00063459 0.0010865 3.54093e-22)
(0.000728428 0.00123165 6.41094e-22)
(0.000776515 0.00131219 3.24054e-22)
(0.00069178 0.00117581 8.92095e-22)
(0.000670908 0.00111215 8.78087e-22)
(0.000701993 0.00121668 0)
(0.000723575 0.0012193 -7.36902e-22)
(0.00069059 0.00117466 0)
(0.000832698 0.00136857 -4.99229e-22)
(0.000851737 0.00143605 3.47483e-22)
(0.000672178 0.00115403 1.49174e-22)
(0.000664294 0.0011476 -3.38864e-22)
(0.000686533 0.00117972 -7.95688e-22)
(0.00064152 0.00108063 5.28583e-22)
(0.000664127 0.00108643 -8.1008e-22)
(0.000834272 0.00141228 -8.90573e-22)
(0.000638982 0.00109621 -1.63548e-23)
(0.000665438 0.00116578 -6.92534e-22)
(0.000651295 0.00113999 -2.69342e-22)
(0.000650767 0.00112233 -3.95698e-22)
(0.000800819 0.00141266 0)
(0.000878075 0.00151198 0)
(0.000855321 0.00145797 0)
(0.000202099 4.08972e-05 -2.9391e-25)
(0.00111449 0.000630721 9.23699e-24)
(0.000471541 5.20262e-05 -5.67318e-22)
(0.00076369 0.00139656 -3.89277e-22)
(0.000515674 0.00112329 -1.24917e-23)
(0.000338208 0.000145302 3.46551e-21)
(0.000907945 8.94844e-05 0)
(0.000475122 0.000447149 7.91857e-25)
(0.00119061 0.000362556 2.14599e-21)
(0.000646012 0.000174237 1.25992e-21)
(0.000656716 0.00129906 2.00909e-21)
(8.67845e-05 0.000771892 -2.1994e-21)
(0.000882779 0.000278987 -2.65559e-21)
(0.000768589 0.00140682 0)
(1.0697e-05 0.000540544 0)
(0.000682379 0.00121365 8.98016e-22)
(0.000288737 0.00122309 -1.18989e-21)
(0.000402872 0.000719595 -1.3245e-22)
(0.000391246 0.000727369 -1.25143e-22)
(0.000492812 0.000941369 -3.9298e-23)
(0.000479381 0.000764684 -3.5835e-22)
(0.000712974 0.00127293 0)
(0.000649881 0.00116243 2.58364e-22)
(0.000782442 0.00131441 3.51589e-22)
(0.000329064 0.000659658 1.88888e-21)
(0.000462543 0.000491874 0)
(0.000185814 0.000242889 2.00932e-21)
(0.000433732 0.000583601 4.20455e-21)
(0.000943165 0.00158841 3.81055e-22)
(0.000589827 0.000924997 2.9363e-22)
(2.516e-05 2.25123e-05 7.64675e-22)
(0.000572631 0.00128262 1.29896e-21)
(0.000146153 0.000726025 1.44765e-21)
(0.00085107 0.00155225 -3.08555e-22)
(0.000846475 0.00147672 1.93248e-22)
(0.000782814 0.0013037 7.44593e-24)
(0.000861265 0.000164334 5.88438e-22)
(0.000589963 0.00103459 1.45239e-21)
(0.000648305 0.00126792 -1.0281e-21)
(0.000631745 0.00113376 -9.59667e-23)
(0.000604215 0.00113285 0)
(0.000508723 0.000926165 0)
(0.000584267 0.00106643 2.20239e-22)
(0.000185082 0.000227651 -4.69722e-21)
(0.000861824 -2.7957e-06 -2.96257e-21)
(0.000502831 0.00128708 3.05449e-22)
(0.00070486 0.000739378 -1.32524e-21)
(0.000608996 0.00105128 -1.53571e-22)
(0.000495056 0.000944656 -1.23247e-21)
(0.000598903 0.00105166 -3.89454e-22)
(0.000906554 0.00132961 4.07024e-22)
(0.00084344 0.00149842 3.29232e-22)
(0.000885231 0.00149494 0)
(0.000711604 0.00119367 1.13844e-21)
(0.000679639 0.00116257 -1.58147e-21)
(0.00115249 0.000385892 1.65347e-21)
(0.000684218 0.0007939 -1.19793e-21)
(0.000748766 0.00135561 9.55979e-23)
(0.000866016 0.000541861 4.63151e-24)
(0.000716111 0.00129836 0)
(0.000621781 0.00022905 0)
(5.73561e-05 -0.000132487 -1.22765e-22)
(0.000889208 4.91518e-05 0)
(0.000549104 0.00100749 -1.31474e-21)
(0.000729152 0.00132425 -3.13052e-23)
(0.000540636 0.00104481 0)
(0.000483631 0.00071929 5.29559e-22)
(0.000729517 0.00116362 0)
(0.000444785 0.000816995 0)
(7.77686e-05 4.25401e-05 0)
(0.000517354 0.000773237 1.32278e-21)
(0.000756813 0.00145347 4.84535e-24)
(0.000886521 -4.45488e-06 -2.94444e-21)
(3.49204e-05 8.1035e-06 -1.83835e-21)
(0.000773378 0.000482352 2.27923e-21)
(0.00075095 0.00140733 -5.6387e-23)
(0.000274436 0.000313748 -1.30762e-21)
(0.00145079 0.0001921 -1.66506e-21)
(5.49805e-05 0.000863571 -6.90834e-22)
(0.00072488 0.00126583 0)
(0.000879836 0.000215823 0)
(0.000881841 0.000111469 -2.41527e-21)
(0.00090188 0.000338891 -1.46292e-21)
(0.000621307 0.00117921 -3.94569e-22)
(0.00034416 0.000749249 -7.49014e-22)
(0.000636721 0.000256108 0)
(0.000880544 0.0001908 0)
(1.85419e-05 -1.08935e-05 -1.98624e-21)
(0.000535946 0.00123475 -5.97087e-23)
(0.000494198 0.00121126 3.38404e-23)
(0.00069169 0.0015571 0)
(0.00118661 0.00111371 1.41445e-21)
(0.000761205 0.000552807 -4.28098e-24)
(0.000486233 0.000541366 -1.0277e-21)
(0.0009768 5.88977e-05 -5.05789e-25)
(0.000817441 -1.29697e-05 -1.42127e-21)
(0.000649881 0.00111491 -4.83666e-24)
(0.000722463 0.00124568 2.32858e-22)
(5.57949e-05 4.58158e-05 2.22156e-26)
(0.000528678 8.21301e-05 -8.46404e-22)
(2.42275e-06 2.88903e-05 -2.16025e-22)
(0.000563468 0.00104474 -2.39864e-22)
(0.000751858 0.000513612 1.80115e-21)
(0.000251011 0.000341613 -1.2756e-21)
(0.000913501 0.00158054 1.89301e-21)
(0.000715089 0.00120294 -3.52451e-22)
(0.000705662 0.00122066 -3.31763e-22)
(0.000691374 0.00119584 -4.72662e-22)
(0.00068389 0.00117502 -5.88559e-22)
(0.000897855 0.00148528 1.12272e-22)
(0.000710168 0.00122032 0)
(0.000850152 0.00143882 -5.05094e-22)
(0.000684323 0.00115031 1.28954e-22)
(0.00043562 0.000846162 0)
(0.000862475 7.66263e-05 3.25466e-21)
(0.000160402 0.00089571 -1.36984e-21)
(0.000170205 0.00021105 3.26516e-21)
(3.07964e-05 -9.68938e-05 2.05694e-21)
(0.000742816 0.00135809 -6.77323e-22)
(0.000855949 0.000206406 0)
(0.00098013 0.000553073 -2.90804e-22)
(0.000591733 0.00101537 1.27842e-21)
(0.000624941 0.00142507 3.53368e-22)
(0.000840109 0.000163808 5.30903e-25)
(0.000522668 0.000486344 1.29848e-21)
(2.98031e-05 5.0916e-05 0)
(0.000575052 0.00107176 0)
(0.000259515 0.000250821 -2.69141e-21)
(0.000625844 0.000285752 4.3048e-25)
(0.00029465 0.000333084 3.3082e-22)
(0.000516915 0.000749453 -3.78629e-22)
(0.000473997 0.000159303 1.05253e-21)
(0.000646523 0.00119985 0)
(0.000753411 0.001374 -2.78825e-22)
(0.00142197 0.000758859 0)
(2.19898e-05 5.75047e-05 -6.86445e-21)
(0.000598573 0.000329804 -2.97897e-21)
(0.000648044 0.000311202 3.88515e-22)
(0.000837648 0.000214916 -1.23262e-21)
(4.61585e-05 0.00049239 2.85821e-21)
(0.000407121 0.00103412 2.89079e-22)
(0.000748083 0.00124634 7.1816e-24)
(0.000712561 0.0012534 -2.32459e-22)
(0.00101179 0.000381561 5.26726e-21)
(0.000512104 0.00124133 -9.69909e-22)
(0.000860215 0.00156141 -1.21196e-22)
(0.000699478 0.00123295 0)
(0.000736573 0.00134514 0)
(0.000885809 0.00157673 5.24958e-22)
(0.000639388 0.00119996 -2.83088e-22)
(0.000653676 0.00122482 -2.84421e-22)
(0.000693084 0.00126256 0)
(0.00064948 0.00120242 1.29607e-22)
(0.000720402 0.00136979 0)
(0.000623865 0.00117864 0)
(0.000837166 0.00154964 -6.00745e-22)
(0.000459355 0.00047024 -8.00297e-22)
(0.000730046 0.00136164 1.247e-21)
(0.000341284 0.00064779 -1.28342e-21)
(0.000707627 0.00123539 4.31017e-23)
(0.000832482 2.65418e-05 1.25829e-21)
(0.000881475 0.0002404 1.11894e-21)
(0.000359664 0.000650801 2.15839e-21)
(0.000251429 4.27346e-05 0)
(7.31015e-06 0.000135232 -4.43957e-21)
(0.000645182 0.00113094 -1.66052e-23)
(0.000855795 0.000280582 -1.37555e-21)
(3.3992e-05 5.59948e-06 -2.0613e-21)
(0.000663469 0.001234 1.23057e-21)
(0.000689777 0.00127931 1.64235e-22)
(0.000713228 0.00118093 0)
(0.000654519 0.00142958 -1.81779e-21)
(0.000534322 -7.98886e-05 -4.75821e-21)
(0.000583966 0.00128605 3.28498e-22)
(0.000241084 0.000765689 0)
(1.33162e-05 0.000168567 3.97209e-25)
(0.000819574 0.000730887 -1.60584e-22)
(0.00072682 0.00129466 0)
(0.000712202 0.00124348 1.29805e-22)
(0.000744872 -8.17718e-06 0)
(3.76616e-06 0.00019621 1.69157e-21)
(-3.22841e-06 0.00103703 -1.42854e-21)
(0.000148771 0.000689227 1.5395e-21)
(0.000611106 -8.03814e-05 1.9657e-21)
(0.000726044 0.00128007 -9.10984e-22)
(0.000160203 0.000327671 0)
(0.000557606 0.000157124 -6.56943e-22)
(0.000917007 0.000624685 -1.2387e-21)
(0.00068584 0.00120506 0)
(0.000644806 0.00109942 2.30099e-22)
(0.000542864 0.000988333 -6.06339e-22)
(0.000585506 0.00102867 0)
(0.000530616 0.000935965 -9.99655e-24)
(0.000505595 0.000193637 6.11774e-22)
(0.000317009 0.0006848 4.06904e-23)
(0.000305269 0.000675372 9.3361e-24)
(0.000414208 0.000904966 3.53604e-23)
(0.000568691 0.00133499 9.52181e-22)
(0.00089026 0.000216983 0)
(0.000904305 0.000111627 1.36339e-21)
(0.000487475 0.00103019 -6.6323e-22)
(0.000211726 0.000293395 -2.22695e-21)
(0.000503853 0.000920446 0)
(0.000317836 0.000733579 9.17313e-24)
(0.000359446 0.000830548 9.69632e-24)
(0.000716369 5.85549e-05 1.21388e-25)
(0.000593744 0.00102357 -1.58558e-22)
(0.000703739 0.0013348 3.10248e-22)
(0.000760508 0.00132286 -9.79656e-22)
(0.000635758 0.00119715 0)
(0.000677336 0.00118712 4.24367e-22)
(0.000614193 0.000943931 0)
(0.000548156 0.000669984 -4.57236e-25)
(0.000524676 0.000920947 0)
(2.33536e-05 0.000177832 -3.47106e-25)
(0.000629945 0.000190122 3.14652e-22)
(0.000433677 0.000551169 -1.09923e-21)
(9.70476e-05 4.86976e-05 0)
(0.000872861 0.000319386 0)
(0.00044239 5.13138e-05 -5.83255e-24)
(0.00064115 0.000764539 1.54231e-21)
(0.00106648 0.000473046 5.81161e-22)
(0.000706197 0.00120219 -1.92281e-22)
(0.000435209 0.000472581 6.75223e-22)
(0.000589615 0.00136743 -2.28352e-21)
(0.000665494 0.00148947 -2.22395e-22)
(0.000534344 0.000986247 1.63541e-21)
(0.000554925 0.00017065 0)
(0.00083121 0.000430194 -4.55077e-22)
(0.000710948 0.00116315 3.50665e-24)
(0.00029693 0.000308873 0)
(0.00055962 0.00101292 -4.99374e-22)
(0.000490084 0.00057886 -4.70624e-21)
(0.000164169 0.000193802 1.73183e-21)
(0.000833533 0.00148759 1.03084e-22)
(0.000805633 0.00066438 -1.76915e-21)
(0.000552831 0.00118402 5.39659e-22)
(0.000987106 7.95313e-05 -1.57463e-21)
(0.000677788 0.000533147 1.05708e-21)
(0.000805306 0.00137319 -7.19015e-23)
(0.000515669 0.000574617 -6.38715e-25)
(0.00116097 0.000343734 -4.70349e-22)
(0.000412959 0.000328403 1.24995e-21)
(0.000273855 0.000612852 8.6491e-24)
(0.000279409 0.000625383 8.76429e-24)
(0.000286466 0.000641709 8.88019e-24)
(0.000336615 0.000758595 -7.9395e-23)
(0.000267156 0.000598246 3.49558e-23)
(0.000186296 0.000181782 0)
(0.000770292 0.000521026 0)
(0.000554846 0.000832062 -1.77388e-21)
(0.000865273 1.56716e-05 0)
(0.000172841 2.49119e-05 1.77852e-21)
(2.24409e-05 6.11809e-05 3.21486e-21)
(0.00050852 0.000407591 -1.28597e-21)
(0.000418329 0.000655394 2.12203e-21)
(0.00118783 0.000642206 3.16715e-21)
(0.000523735 0.000920484 4.27194e-22)
(0.000553201 0.000951826 -8.49141e-22)
(0.000533408 0.000930349 2.16117e-22)
(0.000562645 0.000998934 -9.77886e-22)
(0.00071359 0.00123793 0)
(0.000694509 0.00123797 2.40237e-22)
(7.03997e-05 4.99351e-05 1.83091e-21)
(0.000877638 0.000275591 1.4786e-21)
(0.000426659 0.000757345 -8.80958e-22)
(0.000435319 0.000784377 -6.50542e-22)
(0.000586875 0.000959364 -2.97964e-22)
(0.000479634 0.000784408 3.35923e-22)
(0.000466862 0.000701155 3.73233e-22)
(0.000398394 0.000697139 8.48592e-22)
(0.000553716 0.000764815 2.45614e-23)
(0.000484805 0.000667631 0)
(0.000507315 0.000858349 -6.26767e-22)
(0.00042134 0.000771898 5.45719e-22)
(0.000566629 0.00083655 -4.14083e-22)
(0.000538659 0.000894451 -6.11235e-22)
(0.000416695 0.000713132 -1.84306e-22)
(0.000407095 0.000698918 3.7642e-22)
(0.000494677 0.000873558 0)
(0.000438035 0.000670471 -8.59677e-22)
(0.000407234 0.000698409 2.111e-22)
(0.000415907 0.000712659 4.03192e-22)
(0.000719049 0.0009865 -1.64826e-22)
(0.000411375 0.000734241 -1.54838e-22)
(0.000414041 0.000745097 0)
(0.000405175 0.000730042 3.30918e-22)
(0.00043092 0.000700051 0)
(0.000386129 0.000693083 2.15904e-23)
(0.000492152 0.000887343 -8.02605e-24)
(0.000508103 0.000857601 1.02237e-23)
(0.000591353 0.000983701 0)
(0.000493019 0.000711904 3.15918e-21)
(0.000515727 0.000911197 5.64923e-22)
(0.000548207 0.000907285 -1.73661e-21)
(0.000401662 0.000710454 -7.50232e-22)
(0.000503639 0.000738056 0)
(0.000438802 0.000773113 -6.86786e-22)
(0.000486122 0.000856825 3.53057e-22)
(0.000466185 0.000776259 0)
(0.000872035 0.000159006 -1.10397e-21)
(0.000746428 0.00136213 2.07868e-22)
(2.48593e-05 8.61842e-06 1.05159e-21)
(0.000815365 0.00150221 -1.50413e-22)
(0.000904776 3.67374e-05 -1.25069e-21)
(4.13018e-05 4.47425e-07 2.22552e-21)
(4.02536e-05 -2.34646e-06 0)
(0.000121032 0.000286159 1.17659e-21)
(0.000685606 0.00117521 -3.75902e-22)
(0.000704201 0.00121718 0)
(0.000771782 0.00131255 -1.81901e-21)
(1.39441e-05 5.00846e-05 -2.01487e-21)
(0.000206691 0.000532803 0)
(7.06875e-06 -7.93358e-06 -1.78845e-21)
(0.000742753 0.000151993 1.54128e-21)
(0.000869303 2.93271e-05 -5.65035e-22)
(0.000738301 0.00123992 1.48279e-21)
(0.000418633 0.00113388 -5.80499e-22)
(0.000281379 0.000406774 -9.82656e-23)
(0.000411601 0.000805261 1.61439e-21)
(0.000207885 0.000569034 -1.60764e-21)
(0.00108809 0.00046918 7.02339e-23)
(0.000165195 0.000828969 1.63236e-21)
(0.000824959 0.000346023 7.43659e-22)
(6.87705e-05 4.10259e-05 3.28074e-21)
(0.00101107 -2.6918e-05 3.4327e-21)
(0.00077398 0.00129972 -1.33716e-23)
(0.000613793 0.00026266 -2.01271e-21)
(0.00102289 0.000257697 1.18903e-24)
(5.36065e-05 0.000333431 -1.29741e-21)
(0.000631651 0.00124936 -4.60594e-24)