/*--------------------------------*- C++ -*----------------------------------*\
  =========                 |
  \\      /  F ield         | OpenFOAM: The Open Source CFD Toolbox
   \\    /   O peration     | Website:  https://openfoam.org
    \\  /    A nd           | Version:  8
     \\/     M anipulation  |
\*---------------------------------------------------------------------------*/
FoamFile
{
    version     2.0;
    format      ascii;
    class       volVectorField;
    location    "9.4";
    object      U;
}
// * * * * * * * * * * * * * * * * * * * * * * * * * * * * * * * * * * * * * //

dimensions      [0 1 -1 0 0 0 0];

internalField   nonuniform List<vector> 
3080
(
(0.000105167 6.35766e-05 -1.02628e-20)
(0.00108436 0.00175393 -2.39889e-21)
(0.00102233 -3.87563e-06 4.64619e-22)
(9.44948e-05 8.32119e-05 0)
(0.0014569 0.000178422 -4.61339e-21)
(0.000713854 -0.000393287 0)
(8.36919e-05 0.000576535 2.07005e-21)
(0.00235702 0.00427769 0)
(0.00103583 -1.0695e-05 -3.55403e-21)
(0.000988151 1.88572e-06 4.97272e-21)
(1.53681e-05 6.79901e-05 0)
(0.000952608 1.07273e-05 0)
(0.000943526 0.00236836 6.71699e-21)
(0.00155269 0.000190738 -6.29924e-23)
(2.73828e-05 0.000166023 -1.96689e-21)
(0.00154225 0.00108285 0)
(0.000985479 1.98148e-06 7.4954e-21)
(1.55461e-05 -7.3764e-05 2.0682e-21)
(1.212e-05 4.9536e-05 0)
(0.00107767 4.06367e-05 -3.78562e-21)
(0.00222844 0.0041198 1.0102e-20)
(0.000955367 -0.000465267 1.12267e-21)
(0.00117588 -2.16684e-05 -6.78243e-21)
(0.00263068 0.00432449 -3.32186e-21)
(0.00132212 0.00011228 -1.78368e-20)
(0.000229203 0.00170246 -2.20574e-23)
(6.26013e-05 -0.000305338 -4.25901e-21)
(0.00167278 0.000683037 2.35183e-21)
(9.09264e-06 2.71506e-05 -2.48581e-22)
(0.00140253 0.00098361 1.14571e-20)
(0.0012656 0.00283028 1.62602e-20)
(0.00220097 0.00454007 -6.21165e-21)
(0.000428543 0.00215321 -8.62267e-21)
(0.00188637 0.00404642 2.92892e-21)
(0.00155618 0.00440741 4.32853e-21)
(0.000910652 -3.12124e-05 1.50969e-21)
(0.000224514 -0.000642162 -1.35803e-21)
(0.000583244 0.00415274 0)
(0.000618812 -0.000127563 1.80479e-21)
(0.000657114 0.0015313 8.69848e-21)
(0.000231091 6.74755e-05 0)
(0.000590905 -6.38926e-05 -3.67702e-21)
(0.000933585 1.60798e-06 6.25988e-21)
(0.000455808 -6.35482e-05 0)
(0.00182359 0.000292423 0)
(3.71354e-05 0.00022396 -5.33384e-22)
(0.00096897 0.000100562 -6.02733e-21)
(6.84549e-06 2.2913e-06 -1.97116e-21)
(4.09724e-05 -6.58724e-06 4.66813e-21)
(0.00028048 0.0020155 5.10068e-21)
(0.000521371 -6.03979e-05 -3.85049e-22)
(0.000777984 0.00356422 -1.716e-22)
(0.000199125 0.00108709 5.57362e-21)
(0.000736977 -0.000315411 9.80958e-22)
(0.00169038 0.000257835 6.20461e-23)
(0.000829365 -6.1404e-06 0)
(0.00082614 3.73903e-06 -1.02194e-21)
(0.00114307 0.00203429 -5.50952e-22)
(0.0017292 0.00335962 4.13578e-21)
(0.00102872 9.38471e-06 -6.23066e-21)
(0.00115975 0.00211481 4.46507e-22)
(0.00114565 0.00209338 0)
(0.00115127 0.00204218 -4.12865e-22)
(0.000870798 -1.91369e-05 0)
(0.00238087 0.00403982 -1.14087e-21)
(0.00233879 0.00396416 -1.114e-21)
(2.38016e-05 -0.000142849 1.31864e-21)
(0.000685599 -0.000146438 3.83308e-21)
(0.00224198 0.0038771 -1.55289e-22)
(0.00115204 0.00204291 7.64146e-22)
(3.5486e-05 -0.00018796 9.57566e-25)
(0.00226156 0.00389255 -4.50031e-22)
(0.00194528 0.00380624 3.95629e-21)
(0.0011507 0.00204062 1.20541e-21)
(0.000358203 -9.45364e-05 -7.39778e-21)
(0.00204905 0.00393817 0)
(0.000325261 -8.21599e-05 -2.07335e-22)
(0.00227029 0.00389424 -2.96028e-22)
(0.000528956 0.000150866 -1.46941e-20)
(0.000347799 6.7454e-05 -9.43038e-21)
(0.00204371 0.000408779 0)
(6.30497e-05 -0.000186457 -1.07341e-21)
(0.00114814 0.00203758 -1.46572e-21)
(0.00144633 0.00290867 2.85383e-21)
(0.00105902 0.000196905 1.82136e-21)
(0.00227317 0.00389263 4.57274e-22)
(0.000971051 0.00016964 3.83673e-21)
(0.00238469 0.00403131 -6.74835e-22)
(0.00234274 0.00395584 -3.77603e-22)
(0.000968011 0.000131694 4.78498e-24)
(0.00227326 0.00388973 0)
(0.00114531 0.00203324 3.38492e-22)
(0.00225938 0.00388636 -9.41461e-23)
(0.00115989 0.00211003 1.22341e-21)
(0.00114597 0.00208889 -1.37452e-21)
(0.00103075 -8.34409e-06 9.61171e-22)
(0.00227202 0.00388621 6.29743e-22)
(0.00238253 0.00402803 1.94879e-21)
(0.00234069 0.00395254 2.12767e-21)
(0.000557686 0.00018331 1.80483e-21)
(0.00059878 0.00023095 0)
(0.0023737 0.00403629 -3.16665e-22)
(0.00233091 0.00396054 -4.53323e-22)
(0.00209702 0.0039096 4.04765e-21)
(0.000915192 0.000269411 1.18538e-21)
(0.00133689 0.000833705 2.45606e-23)
(1.14189e-05 -4.53159e-05 -5.85159e-22)
(0.00227085 0.00388266 -1.4765e-21)
(0.00115732 0.00210574 1.4542e-21)
(0.00114337 0.00208468 1.38902e-21)
(0.00238136 0.00402556 0)
(0.00233954 0.00394975 0)
(0.000502426 -0.000157597 0)
(0.00238391 0.00403641 -1.68345e-22)
(0.00234196 0.00396083 6.97173e-22)
(0.00190265 0.00373586 1.93529e-21)
(0.00101179 0.000210771 -6.76341e-21)
(0.00237357 0.00404449 5.68823e-23)
(0.0023306 0.0039683 6.41318e-23)
(0.00115541 0.00210202 -1.62485e-21)
(0.00114138 0.00208102 -1.77336e-21)
(0.00100653 8.15391e-06 -1.94076e-21)
(0.00107673 4.07826e-05 -1.147e-24)
(0.0023852 0.00403502 5.92621e-22)
(0.00234324 0.00395948 8.54761e-22)
(4.12736e-05 0.00042193 -5.58406e-22)
(0.000250668 -1.60866e-05 5.85736e-21)
(0.00237801 0.004024 -2.04953e-21)
(0.00233649 0.00394429 -2.22853e-21)
(0.00170267 0.000394715 -3.97481e-21)
(0.00238455 0.00403378 -8.73794e-22)
(0.00234252 0.0039583 -1.21529e-21)
(0.000581604 0.000267872 6.29323e-21)
(0.0023839 0.00403251 0)
(0.00234188 0.00395706 0)
(1.66795e-05 0.000108398 2.06424e-20)
(0.00101399 -0.000138647 8.92677e-21)
(0.000102224 1.8227e-05 2.59631e-21)
(0.00237545 0.00403791 5.61629e-22)
(0.00233382 0.00394342 3.0526e-21)
(0.00226297 0.0038736 -1.11879e-21)
(0.00113931 0.00201738 5.32365e-22)
(0.00046496 8.57597e-05 -1.00144e-20)
(0.00238397 0.00403122 -1.13478e-21)
(0.00234195 0.00395582 -1.24236e-21)
(0.000951325 0.00169854 -2.4722e-21)
(0.000345971 -2.84537e-06 -1.11682e-21)
(0.00115224 0.00209284 2.47706e-22)
(0.00113684 0.00207268 0)
(0.00116329 0.00212157 4.83509e-22)
(0.00114895 0.00209997 5.36039e-22)
(0.000217473 -1.35655e-05 6.66066e-21)
(0.000997637 5.7374e-05 2.7776e-21)
(0.000579305 0.00033749 0)
(0.00031253 -1.07255e-05 -1.0408e-21)
(0.00237266 0.00404579 -2.47316e-21)
(0.00233098 0.00394716 -2.01475e-21)
(0.00181224 0.00359768 0)
(0.00114503 0.00203905 4.45673e-22)
(0.000618744 0.000307817 -6.35296e-21)
(0.00226003 0.00387462 -1.26457e-21)
(0.00119126 0.00210354 -3.33847e-22)
(0.00113241 0.00209568 9.74698e-24)
(0.00163723 0.00027544 1.7487e-21)
(0.00112717 0.00201348 2.32095e-22)
(0.00113862 0.00201129 -6.02534e-22)
(8.8286e-05 3.83039e-05 0)
(0.000937557 -0.00012257 -5.26677e-21)
(0.00115095 0.00204597 1.58202e-21)
(0.0011531 0.00208899 -2.73247e-22)
(0.00113516 0.00206852 0)
(0.000965627 0.000122777 3.62842e-21)
(0.00227233 0.00371261 -1.67559e-21)
(0.00225383 0.00390049 2.70565e-21)
(0.00172398 0.00356569 1.82505e-21)
(0.00115151 0.00204557 0)
(0.0011443 0.00202921 3.79789e-22)
(0.00123006 0.00200942 2.2091e-21)
(0.000191036 -7.16397e-06 2.3085e-25)
(0.00231207 0.0042032 1.06924e-23)
(0.00224873 0.00412015 1.09224e-23)
(0.00219024 0.00403048 0)
(0.00226767 0.00387706 8.07373e-22)
(0.0011408 0.00200993 -3.25142e-21)
(0.00134068 0.00218354 7.49817e-21)
(0.000991176 6.77066e-05 3.01818e-21)
(0.00225759 0.00390951 -1.41761e-21)
(0.00114916 0.00204195 -2.66765e-22)
(0.00115841 0.00209968 2.99252e-22)
(0.00113508 0.00206845 -2.58704e-21)
(8.15349e-05 -0.000166318 9.87959e-21)
(0.00226635 0.00387412 3.55618e-21)
(0.000730073 0.000530225 -3.29832e-21)
(0.00212813 0.00414892 -8.87754e-22)
(2.70215e-05 -4.25514e-05 1.19268e-21)
(0.00237963 0.00402068 -1.63103e-23)
(0.00233768 0.00394471 -2.54594e-21)
(5.30249e-05 0.000461231 3.56229e-22)
(0.00119899 0.0020899 -2.75916e-21)
(0.00113166 0.00209681 -2.9803e-21)
(0.00115445 0.0021108 -2.75668e-22)
(0.00113924 0.00208856 -3.09875e-22)
(0.00114668 0.00203853 0)
(0.00114769 0.00169637 0)
(0.00226522 0.00387242 -9.219e-22)
(0.00237736 0.00403878 -6.93905e-22)
(0.00234066 0.00390232 0)
(0.00114805 0.00204473 3.52656e-21)
(0.00229022 0.00374567 -1.56626e-21)
(9.08704e-06 -1.11964e-05 2.44925e-21)
(0.0011592 0.00211059 1.57674e-22)
(0.00114523 0.00208944 1.41391e-21)
(0.00110353 2.45278e-05 9.06606e-21)
(0.00017597 1.35047e-06 -2.92204e-20)
(0.000786345 0.00159941 4.59773e-21)
(0.000899839 5.91062e-06 -1.27279e-20)
(0.00226354 0.00387062 -2.01137e-21)
(0.00115462 0.00194246 -3.97588e-22)
(0.00119602 0.00192271 7.48033e-22)
(0.00114421 0.00203371 1.84313e-21)
(0.00116448 0.0021204 7.2759e-22)
(0.00115029 0.00209899 1.60842e-22)
(0.00237359 0.0037787 0)
(0.00115679 0.00210688 0)
(0.00114273 0.00208582 1.99082e-22)
(0.000638748 0.000595252 -5.73288e-21)
(0.00124585 4.65745e-05 2.39447e-21)
(0.000455183 0.000553158 -9.09372e-21)
(0.00116461 0.00211943 6.16184e-22)
(0.0011505 0.00209804 -1.01892e-22)
(0.00225588 0.00407448 -3.57339e-21)
(0.000611525 0.000518647 3.39868e-21)
(0.00109389 0.00161165 -4.14955e-22)
(0.00116258 0.00205498 3.81495e-21)
(0.00103563 0.000176059 3.52234e-21)
(0.00222194 0.00398676 0)
(0.00238226 0.00406954 -3.37881e-21)
(0.00116373 0.00211719 8.62325e-22)
(0.0011497 0.00209583 9.46986e-22)
(0.000109645 0.000106569 -1.05171e-20)
(0.00115485 0.00210344 0)
(0.00114061 0.00208239 0)
(0.000989176 0.000147018 2.64139e-21)
(0.00264929 0.00436927 3.25499e-21)
(0.0023695 0.00423787 -5.45978e-23)
(0.00246677 0.00444872 0)
(0.00240817 0.00436317 -3.02845e-23)
(0.0023445 0.00401512 -3.29855e-21)
(0.000966809 1.49203e-05 0)
(0.00116317 0.00211515 0)
(0.00114918 0.00209383 1.05807e-21)
(0.00104629 0.00279734 0)
(0.00233586 0.00405322 -2.96935e-21)
(0.00118141 0.00214678 9.82769e-24)
(0.00116228 0.00212181 1.97808e-22)
(0.00151488 0.00178028 -1.87744e-22)
(0.0023376 0.00405522 -5.61007e-21)
(0.00116172 0.00211351 9.87032e-22)
(0.00114776 0.00209221 2.27833e-21)
(0.00235578 0.00409987 3.51556e-21)
(3.76676e-05 3.68072e-06 8.42073e-21)
(0.00236495 0.00404088 3.24427e-21)
(0.00232513 0.00394745 0)
(0.00223477 0.00395645 2.96392e-21)
(0.00231758 0.00404186 9.83903e-24)
(0.00224014 0.00395259 -3.10957e-21)
(0.00232218 0.00404297 2.82152e-21)
(2.82655e-05 -3.69667e-05 -6.76225e-23)
(0.0022288 0.00395769 4.5391e-23)
(0.00229551 0.00403602 2.61217e-21)
(0.000891741 -1.77384e-05 1.39865e-20)
(0.00115246 0.00209209 2.04557e-21)
(0.00113619 0.00207215 2.49861e-21)
(0.00113717 0.00201572 5.61697e-22)
(0.00257869 0.00441362 2.99839e-21)
(0.000577326 0.000589215 5.39033e-21)
(0.00222999 0.0039582 -2.57898e-23)
(0.0022869 0.0040401 0)
(0.000124264 0.000109752 -5.41664e-21)
(0.00223102 0.00395743 0)
(0.00228374 0.00403923 0)
(0.00238571 0.00404984 3.41325e-21)
(0.00223061 0.00395392 -2.47328e-21)
(0.00227975 0.00403078 -6.70577e-21)
(0.00210233 0.00409278 4.77726e-22)
(0.00222363 0.00395139 -8.73824e-21)
(0.00229833 0.00403126 0)
(0.00220785 0.00376024 6.02808e-21)
(0.00114368 0.00203056 0)
(0.00223266 0.00395236 0)
(0.00227667 0.00402548 0)
(0.00218283 0.00379052 6.79092e-24)
(0.00115466 0.00209297 2.71967e-22)
(0.00113529 0.00206975 -2.44036e-21)
(0.00113706 0.00201023 -1.72009e-23)
(0.00223106 0.00395026 -2.12064e-21)
(0.00227433 0.00402249 -6.69904e-23)
(0.00297299 0.00340118 1.30201e-20)
(0.00222585 0.00434287 -4.1437e-23)
(0.00229337 0.00440141 -6.35276e-23)
(0.00224353 0.00432261 -1.07596e-23)
(0.00217641 0.00381364 3.9684e-23)
(0.00218949 0.00384643 2.73664e-21)
(0.00222945 0.00394844 0)
(0.00227247 0.00402053 0)
(0.00114278 0.00202776 -1.75268e-21)
(0.00222817 0.00394684 -1.79566e-21)
(0.00227113 0.00401903 -1.68004e-21)
(0.00222297 0.0039531 0)
(0.00228425 0.00403325 -3.45774e-23)
(0.00220618 0.00385741 4.96165e-21)
(0.000915563 1.03548e-05 4.30132e-21)
(0.00222653 0.00394373 -1.68458e-21)
(0.00226947 0.00401582 0)
(0.00223995 0.00369417 1.65299e-21)
(0.00220809 0.00385349 -2.97672e-23)
(0.00227914 0.00425959 -1.28172e-20)
(0.00218081 0.00383275 -2.72482e-21)
(0.00222615 0.00393689 -1.46792e-21)
(0.00226894 0.00400878 -6.67408e-23)
(0.00219846 0.00385522 -5.25791e-21)
(0.00116439 0.00210527 -2.4039e-21)
(0.00113569 0.00207176 -2.61621e-21)
(5.14278e-05 0.000385233 5.12733e-22)
(0.00113835 0.00201628 2.6126e-21)
(0.00114149 0.00202447 2.35056e-21)
(0.00220604 0.00384976 -2.06516e-21)
(0.00222614 0.00393768 1.21913e-21)
(0.00226895 0.00400965 1.11275e-21)
(0.00222916 0.003955 2.27942e-21)
(0.00227522 0.00403122 4.29845e-21)
(0.00222475 0.00395361 -5.31367e-21)
(0.0022806 0.00403601 -2.42686e-21)
(0.00222337 0.00393683 0)
(0.00226626 0.00400884 9.76482e-22)
(0.00220392 0.00384655 -3.13513e-23)
(0.00222149 0.00393361 9.23799e-22)
(0.00226428 0.00400557 8.40274e-22)
(0.00220289 0.00384417 0)
(0.00114024 0.0020218 8.19396e-24)
(0.00220819 0.00385616 -4.87138e-21)
(0.00115338 0.00209777 0)
(0.00113884 0.00207702 2.00561e-21)
(0.00222256 0.00393314 0)
(0.00226537 0.00400495 -6.295e-22)
(0.0010375 4.65593e-05 -2.66303e-24)
(0.00220114 0.00384052 1.53092e-21)
(0.00115029 0.00206148 2.1789e-21)
(0.00221684 0.00393625 1.06678e-21)
(0.00225958 0.00400769 9.58967e-22)
(0.0014168 0.00318533 -6.98963e-21)
(0.00222781 0.00395456 4.95647e-21)
(0.00227843 0.00403261 -2.43304e-23)
(0.00220355 0.00385835 5.20611e-21)
(9.89964e-05 3.33157e-05 -5.75982e-21)
(0.00219897 0.0038369 1.36699e-21)
(0.00040147 -9.54798e-05 0)
(0.00222887 0.00402439 -6.27503e-22)
(0.00218686 0.00395292 -7.08939e-22)
(0.00172585 0.00147857 1.22153e-20)
(0.000929582 3.63106e-05 0)
(0.00220786 0.00385271 2.17185e-21)
(0.00219741 0.00383404 2.11923e-24)
(0.00219575 0.00383181 8.69135e-22)
(0.00117035 0.00200238 3.10453e-21)
(0.00219377 0.00383272 1.33357e-21)
(0.000105791 0.000740121 4.61809e-21)
(0.00218994 0.00384305 0)
(0.0022263 0.00394914 -2.34378e-21)
(0.00227106 0.00402292 0)
(0.000925655 2.46265e-05 0)
(0.00220846 0.00385593 4.74156e-21)
(0.00104538 0.00189755 3.46817e-21)
(0.00229717 0.00485702 6.62048e-21)
(0.00220576 0.00384828 5.8553e-21)
(0.000634194 0.000447722 -1.44572e-20)
(0.00215233 0.00449673 -1.15493e-21)
(0.00222564 0.00394679 2.0963e-21)
(0.00226924 0.00401902 3.88521e-21)
(0.000993747 4.93377e-05 -8.51725e-21)
(0.00106923 0.00142276 -1.53624e-20)
(3.09512e-05 -8.71703e-06 -3.29435e-26)
(1.22765e-05 9.47271e-05 4.97535e-21)
(0.00222382 0.00393785 1.4691e-21)
(0.00226664 0.0040097 2.75436e-21)
(0.00220766 0.00385245 -2.18765e-21)
(0.00223179 0.00387255 9.45634e-23)
(0.00220299 0.00384329 7.20851e-23)
(0.00222434 0.00394509 0)
(0.00226743 0.00401685 -1.86657e-21)
(4.21112e-05 -1.02169e-05 3.61599e-21)
(0.00117915 0.00210967 -2.83286e-23)
(0.00113417 0.00207896 2.76729e-21)
(0.00204246 0.00428188 -2.76671e-21)
(0.00222209 0.00393406 7.30633e-23)
(0.00226484 0.00400571 6.74951e-23)
(6.76719e-05 0.000539314 -2.47007e-21)
(0.00220621 0.00384933 -1.96901e-21)
(0.00270453 0.0044929 0)
(0.00172174 0.00314213 2.0979e-21)
(0.00042014 0.000353809 4.03979e-24)
(0.00220109 0.00383917 1.42441e-21)
(0.00262176 0.00438992 -3.06574e-21)
(1.79398e-05 -4.5884e-05 -5.85928e-22)
(0.00222278 0.00394355 -8.40164e-24)
(0.00226577 0.00401531 3.36003e-21)
(0.00129662 0.00100738 -6.18527e-21)
(0.00219923 0.00383606 0)
(0.00220453 0.0038473 0)
(0.00222238 0.00394213 1.67476e-21)
(0.00226535 0.00401403 0)
(0.000971786 0.000131408 9.69474e-22)
(0.00216846 0.00405498 0)
(0.00221855 0.00392962 -3.71085e-23)
(0.00226133 0.00400125 1.40639e-21)
(0.00112511 0.00115753 -1.32724e-20)
(0.00219773 0.00383399 9.52025e-22)
(0.00220317 0.00384401 -1.6136e-21)
(0.00222225 0.00393983 0)
(0.00226523 0.00401167 3.25811e-23)
(3.35682e-05 -3.32723e-05 -3.42777e-21)
(0.000973173 0.000258596 5.14083e-22)
(0.0021952 0.00383348 -7.17708e-22)
(0.00226351 0.00381626 -2.6194e-23)
(0.00220657 0.00372809 -1.12678e-23)
(0.00215164 0.00359521 2.79305e-25)
(8.00984e-05 -9.27521e-05 2.35396e-20)
(0.00237074 0.00400925 0)
(0.00241969 0.00408746 0)
(2.92394e-05 0.000138385 -8.43645e-26)
(0.00220122 0.00384036 0)
(0.00222091 0.00393618 -1.30416e-21)
(0.00226382 0.00400791 -2.44991e-21)
(0.00220639 0.00394314 1.24614e-21)
(0.00224882 0.00401457 1.11166e-21)
(0.000166994 8.71093e-05 -8.41508e-21)
(0.00144435 0.000159148 1.24779e-20)
(0.00102374 -0.000178537 -6.45189e-21)
(0.00097246 0.000179863 1.10404e-20)
(0.00105112 0.000681829 -9.28578e-21)
(0.00233254 0.00395875 1.54141e-23)
(0.00237628 0.00403475 1.40675e-23)
(0.000945031 3.51012e-05 -1.99288e-21)
(0.00219152 0.00383903 5.11228e-22)
(0.00238672 0.0040434 1.37926e-22)
(0.00234456 0.00396763 -1.69859e-22)
(0.00260467 0.0045993 -8.13595e-24)
(0.00254554 0.00450967 2.05212e-22)
(0.00245284 0.00440006 2.29984e-23)
(9.22454e-05 -0.000107009 -1.50368e-20)
(0.00238786 0.00404253 3.5624e-22)
(0.00234577 0.0039668 1.87487e-22)
(0.00238774 0.00404089 0)
(0.00234561 0.0039652 -9.34053e-22)
(0.00238695 0.00403953 0)
(0.0023448 0.0039639 2.58409e-22)
(0.00238648 0.00403797 1.11294e-21)
(0.00234432 0.00396239 1.18304e-21)
(0.00219942 0.00383715 2.49498e-21)
(0.000551773 -8.22063e-05 0)
(0.00221933 0.00393396 -2.30179e-21)
(0.00226222 0.00400563 -2.09978e-21)
(0.0023747 0.00444931 -2.02212e-22)
(0.00232604 0.00436803 -5.84036e-23)
(0.00241345 0.00443986 5.38175e-23)
(0.00251687 0.00463306 7.19841e-23)
(0.00245775 0.0045448 1.4108e-22)
(0.00348739 0.000933057 8.79757e-21)
(0.00238193 0.00402615 -2.31017e-21)
(0.00233999 0.00395012 0)
(0.0013467 0.00157792 0)
(0.000796332 1.48662e-05 0)
(0.000160855 4.95613e-06 -4.55146e-21)
(0.00221791 0.00393354 0)
(0.00226077 0.00400533 0)
(4.3555e-05 -3.03667e-05 0)
(-9.55234e-05 0.00188494 8.40665e-21)
(-0.0001652 0.00168016 -8.64735e-21)
(2.92565e-05 0.000183966 -1.9063e-22)
(0.00237008 0.00404792 -3.19862e-21)
(0.00232946 0.0039512 4.8824e-21)
(0.00219814 0.00383466 1.01565e-21)
(0.000843437 1.50845e-05 7.6851e-21)
(0.000953746 4.17009e-05 0)
(0.000774014 -6.04184e-06 -4.73919e-21)
(0.00259691 0.00461637 2.34027e-22)
(0.0025411 0.00452486 0)
(0.00226991 0.00388361 -2.44563e-21)
(0.00226862 0.00388292 -1.73756e-21)
(0.00102187 2.80607e-05 -1.56439e-23)
(0.00221744 0.00393209 2.46332e-21)
(0.00226037 0.00400378 1.50761e-21)
(0.00226821 0.00388221 0)
(0.00212733 0.00457087 1.71728e-21)
(0.00226631 0.00388023 3.5131e-23)
(0.000268557 0.000113154 0)
(0.00105215 0.00245953 7.72419e-21)
(8.97361e-05 -7.05637e-05 -3.21513e-26)
(7.39386e-05 8.82956e-06 4.65763e-25)
(0.000246023 0.000138301 7.99771e-21)
(0.0012154 0.00149506 1.85582e-20)
(0.000849086 4.34997e-05 -2.22218e-24)
(0.000975164 0.000117128 -6.643e-21)
(0.00219562 0.0038331 7.56959e-22)
(0.00246967 0.00441543 1.08336e-22)
(0.000340034 0.000248567 0)
(0.000913404 0.000636584 -8.84658e-21)
(0.00224323 0.000218909 1.22119e-20)
(3.29983e-05 -2.74195e-05 -4.00949e-21)
(0.00256349 0.00434922 0)
(0.000996454 0.000116914 -1.77334e-21)
(0.00221438 0.00393124 -1.86131e-21)
(0.00225738 0.00400265 -1.11367e-21)
(0.000968362 4.2973e-05 0)
(0.0008898 0.0040392 -6.04927e-21)
(0.00044714 0.00047963 -1.89045e-20)
(0.00217769 0.00386527 2.84862e-22)
(0.000922815 -4.45647e-05 -6.69978e-21)
(0.000115685 -0.000126909 1.06036e-20)
(0.000106044 -0.000132481 -7.09082e-21)
(0.00195843 0.00445221 -3.70911e-21)
(0.000940434 1.41524e-05 0)
(0.00237812 0.00403773 4.55809e-22)
(0.00233594 0.00396207 0)
(0.00219323 0.00383662 0)
(0.00122733 0.000781183 -1.90906e-20)
(0.000871629 6.03609e-05 -5.42238e-25)
(0.00220981 0.00393897 -1.42892e-21)
(0.00225265 0.00401044 -1.28054e-21)
(0.00011985 -0.000104283 2.01625e-20)
(0.000988134 4.8338e-05 9.83618e-22)
(0.000888593 6.393e-05 0)
(0.00226709 0.0038914 8.98937e-22)
(0.000658706 0.000481911 -1.42199e-20)
(0.00225564 0.00388702 5.75181e-22)
(0.0013901 0.000222098 0)
(0.000945264 4.39819e-05 0)
(0.00227111 0.00389043 -3.91169e-22)
(0.00238389 0.00402975 3.29878e-22)
(0.00234195 0.00395435 1.37962e-21)
(0.0013474 0.000280408 -3.58216e-21)
(0.000226123 0.000137441 7.62536e-21)
(0.00234002 0.0039512 -1.59313e-21)
(0.00238185 0.00402658 -1.45836e-21)
(0.00227197 0.00388815 0)
(0.00233866 0.00394856 1.84239e-21)
(0.00238047 0.0040242 1.68842e-21)
(0.000381413 0.000343721 0)
(0.00233604 0.00394277 -2.2009e-21)
(0.0023778 0.00402085 0)
(0.00233348 0.00394195 -6.10773e-22)
(0.00237441 0.00403011 -5.63197e-22)
(0.00233064 0.00394433 5.22933e-21)
(0.00237322 0.00404386 -5.94854e-22)
(0.00227078 0.00388475 0)
(0.000912481 7.56676e-05 -5.0009e-21)
(0.00215816 0.00403372 3.80672e-21)
(5.16114e-05 -2.50079e-05 1.43486e-20)
(0.000978359 0.000691377 4.39183e-21)
(0.0022697 0.00388121 -7.04323e-22)
(1.0569e-05 3.45019e-05 0)
(0.000295698 0.000234561 -1.22341e-20)
(0.00248578 0.00442867 0)
(0.00231638 0.00367938 3.2982e-21)
(0.00257945 0.00461968 -3.37958e-22)
(0.00252377 0.00452794 2.60097e-22)
(0.000975823 0.000356945 9.74957e-21)
(0.000932295 3.71742e-05 -2.55282e-21)
(0.000734338 0.00193085 -1.23215e-20)
(1.82882e-05 -3.02829e-05 5.78006e-22)
(0.00226209 0.00387144 2.21971e-21)
(0.00225997 0.00387218 0)
(0.00225443 0.00388474 0)
(0.000162509 0.000134283 0)
(0.00228513 0.00380438 1.57912e-21)
(0.00225064 0.00391707 2.85551e-21)
(0.000803476 0.00131307 1.47848e-20)
(0.00235424 0.00483745 8.74754e-21)
(0.00112379 0.000652513 0)
(4.57492e-05 -3.17105e-05 -7.7345e-21)
(0.000944647 1.73181e-05 -4.9296e-25)
(0.000470947 0.0013049 8.14302e-21)
(0.000993091 0.000107739 -5.39431e-22)
(2.18065e-05 -0.000103761 -4.88444e-22)
(0.000302581 0.000133473 0)
(0.000967225 5.21569e-05 1.08924e-20)
(0.000230137 0.000373777 5.45627e-25)
(5.36788e-05 0.0021745 0)
(0.000932577 7.86855e-05 0)
(0.00221668 0.00439063 -3.84224e-21)
(2.47451e-05 -2.75241e-05 2.95605e-21)
(0.000455251 0.000149311 1.43263e-20)
(0.000948863 -0.000673817 1.08569e-21)
(0.000713725 0.00115922 1.58095e-20)
(0.00118988 0.000921694 -7.81908e-21)
(2.22551e-05 -2.36205e-05 -1.2356e-20)
(0.00171198 0.00122674 1.35834e-20)
(0.001191 0.000154934 -2.73932e-21)
(0.000963496 2.14966e-05 -9.21102e-22)
(0.00117462 8.5284e-05 9.47915e-21)
(0.000961571 4.25069e-05 -1.36136e-22)
(1.7845e-05 -3.78964e-05 0)
(0.000962078 -4.30008e-05 -1.58328e-20)
(0.00139965 0.00221572 3.53245e-21)
(0.000929153 7.28278e-05 1.16515e-20)
(3.58501e-05 -7.06004e-05 0)
(2.54152e-05 0.00173191 -3.21775e-21)
(0.000239379 -0.000280013 0)
(0.000168006 0.000167167 8.8728e-21)
(0.00255329 0.00454737 6.1856e-21)
(0.000951307 2.22136e-05 -1.23787e-21)
(0.000489619 -0.000379913 0)
(0.000511314 0.000127529 8.75959e-21)
(0.000301329 0.000274027 2.48989e-24)
(0.00115133 6.68493e-05 0)
(0.002505 0.0044379 2.97807e-23)
(1.75203e-05 -3.08049e-07 0)
(0.00218304 0.00385149 0)
(0.000267818 0.000301928 0)
(0.000194862 0.0015469 0)
(0.00192488 0.00451254 5.42883e-21)
(0.00273829 0.00450557 6.34963e-21)
(0.000914052 0.000783857 7.82151e-21)
(4.85671e-05 -7.20576e-05 4.70306e-21)
(0.000973195 2.98753e-05 0)
(0.000154268 0.000187633 0)
(0.000507123 0.000217323 -2.08706e-21)
(2.45616e-05 -1.06765e-06 0)
(3.96457e-05 -2.08232e-05 4.70739e-21)
(0.000295296 0.000108798 7.01454e-25)
(0.000174204 0.000148369 0)
(0.000431205 0.000191392 1.09708e-20)
(0.00115877 0.000150525 -3.55709e-21)
(7.41069e-05 -9.22525e-06 -5.85956e-21)
(0.000997665 7.76387e-05 1.34191e-22)
(0.000112502 -0.000165095 2.29275e-24)
(0.00118078 0.000146712 2.25063e-21)
(0.00135151 0.0021208 1.00566e-20)
(0.000964301 4.1424e-05 1.32946e-22)
(3.90486e-05 -7.91606e-05 0)
(0.00125986 0.00314706 0)
(0.000957394 2.08987e-05 -5.85739e-22)
(3.71551e-05 -9.56705e-05 2.61383e-21)
(0.00116917 0.00161434 2.94057e-21)
(0.00128465 0.000440288 2.60068e-21)
(0.0001819 0.00284255 0)
(0.000775424 6.31611e-05 -2.25536e-21)
(1.14138e-05 -1.58138e-06 0)
(-2.20978e-05 0.000733021 6.53604e-21)
(0.000121959 -1.62517e-05 9.11937e-21)
(0.000970908 1.18391e-05 -3.97097e-24)
(0.000243949 -0.000440356 -5.82124e-21)
(0.000556217 0.000999966 -1.46592e-20)
(0.00011037 -2.14432e-05 0)
(0.00116039 0.00071056 -2.70388e-23)
(0.000913315 -9.35565e-08 0)
(0.00079289 2.55455e-05 6.75412e-21)
(0.000142525 0.00012036 -5.13486e-21)
(0.000946571 1.68618e-05 2.27739e-21)
(0.000136605 -0.000154092 3.12813e-24)
(0.00253723 0.00454435 3.2531e-22)
(0.00259265 0.00463676 0)
(0.00054176 0.000259537 9.60476e-21)
(0.00106977 0.000908762 -1.91615e-24)
(0.000956428 1.9134e-05 1.13933e-21)
(0.00131234 0.000626581 5.28319e-21)
(7.66764e-05 2.43739e-05 1.22382e-20)
(0.000217188 0.000167725 5.51299e-21)
(0.000854815 8.84986e-05 2.59178e-20)
(0.00101773 -2.04381e-06 -2.73536e-20)
(0.0027784 0.00454691 9.85846e-21)
(0.000131531 -9.34262e-06 2.02286e-20)
(0.000955042 3.9789e-05 0)
(0.000277608 0.000140596 -8.44915e-21)
(0.000201814 0.000130093 7.97815e-21)
(0.000164112 -0.000366396 2.34432e-21)
(0.000155289 0.000121094 1.55428e-20)
(0.000395749 0.000125633 9.58717e-21)
(0.000135274 -0.000127168 2.60985e-24)
(0.000384952 0.000160836 3.83012e-25)
(3.57708e-05 -5.84687e-05 0)
(0.000966481 4.62534e-05 0)
(0.000949763 3.04082e-05 1.94604e-21)
(0.00023559 0.000189862 1.13201e-20)
(0.000394131 0.000151519 0)
(0.000384536 -4.49166e-05 6.21775e-21)
(0.000194572 0.000106368 0)
(0.000953383 3.0064e-05 -2.06062e-21)
(0.000324748 -0.000346586 4.76624e-21)
(0.000170577 -0.000190152 1.35981e-20)
(7.38253e-05 -5.64078e-05 1.50247e-21)
(0.000468432 0.000192498 -1.37269e-24)
(0.000518243 0.000225842 0)
(0.000368487 0.000395352 0)
(0.000958411 2.72291e-05 0)
(0.00019403 0.000178763 -3.23002e-21)
(0.000983034 4.65494e-05 -8.38598e-21)
(0.000127622 -0.000176925 -6.94346e-21)
(0.000284388 0.00155052 5.16446e-21)
(0.000132883 0.000139517 0)
(0.000814729 0.000757302 0)
(0.000417365 -8.68448e-06 0)
(0.000960285 -7.38302e-05 1.73705e-20)
(0.00091204 0.000696658 -1.19107e-20)
(8.98306e-05 0.00103281 5.01137e-21)
(4.75355e-05 -7.40387e-05 0)
(0.00186543 0.00455358 5.07779e-22)
(0.000959854 -2.00142e-05 2.18463e-21)
(0.000862295 0.000827471 1.60721e-20)
(0.000932185 -2.84868e-05 -5.04375e-25)
(0.000270415 0.000265554 -8.0327e-21)
(0.0010275 1.41581e-05 0)
(8.3071e-05 6.55344e-05 4.30874e-21)
(0.000183739 -0.000223096 -4.89785e-21)
(0.000315722 0.000168233 8.93598e-21)
(4.96585e-05 -9.31968e-05 -9.72029e-21)
(9.47835e-05 1.38107e-05 -3.69825e-21)
(0.0009936 4.72702e-05 4.97127e-21)
(0.000197146 1.56593e-05 4.10136e-21)
(0.000916043 0.00100141 0)
(0.00111507 0.000176188 1.55932e-20)
(0.000247253 1.01279e-05 0)
(7.8737e-05 -1.6346e-05 -5.60466e-21)
(0.000230554 -0.00023382 -8.6328e-21)
(0.000429648 0.000950776 -5.82888e-21)
(0.00094887 3.19592e-05 9.04731e-21)
(0.000568116 0.000300903 -7.38092e-21)
(8.06624e-05 2.55636e-05 -1.03545e-20)
(0.00142194 0.000646114 -1.26541e-20)
(0.000316016 0.000679139 -2.13081e-20)
(0.000965295 -2.88359e-05 0)
(5.13081e-05 -0.00010774 0)
(0.000969372 2.28002e-05 -1.2768e-22)
(0.000314179 -0.000273623 -8.64725e-21)
(0.00101713 3.64643e-05 4.48147e-21)
(0.000951661 2.05222e-05 -7.9983e-21)
(2.27364e-06 1.23834e-05 -9.96907e-22)
(2.97364e-05 -2.06593e-05 -5.4237e-21)
(0.000252275 -0.000339503 -5.97402e-21)
(0.000118708 -3.09441e-05 0)
(0.00100774 2.84307e-05 0)
(0.00068462 0.000147388 -2.61096e-22)
(2.84736e-05 1.85048e-05 7.22849e-21)
(0.00112973 0.000470846 -1.6337e-21)
(0.00252297 0.00442463 2.98835e-22)
(0.000111356 -5.99542e-05 -2.78407e-25)
(0.00112789 0.000411162 6.50779e-21)
(0.000229157 0.000566878 3.86106e-25)
(8.75077e-05 -5.09266e-05 -4.13142e-21)
(0.00100743 2.83296e-05 0)
(2.12222e-05 -1.29963e-06 -8.06787e-21)
(6.91947e-05 -4.91951e-05 0)
(0.0010009 -3.02416e-05 0)
(0.000953013 9.2459e-06 -2.6412e-22)
(0.000726265 0.00028238 -1.40053e-20)
(0.000499021 0.000283256 -5.44276e-21)
(0.00111247 0.00130594 9.48355e-21)
(2.31647e-06 1.82969e-05 0)
(0.000246995 0.000261443 8.3914e-21)
(4.13444e-05 2.53638e-06 -4.71493e-21)
(0.000509472 0.00056383 7.50827e-21)
(0.000311322 0.000311615 8.49542e-21)
(0.000966212 2.81166e-05 -2.63191e-22)
(3.32646e-05 1.3127e-05 0)
(0.000224177 9.99938e-06 0)
(4.51891e-06 0.00012668 1.00951e-21)
(-3.98524e-06 0.000599569 -8.08433e-21)
(0.000125577 0.000296556 -9.8083e-25)
(0.00101843 7.86445e-06 -4.81325e-22)
(0.000649521 -0.000269172 -5.8288e-21)
(0.000176001 1.96963e-05 4.25345e-21)
(0.000976834 0.000921953 -9.21763e-21)
(0.00251624 0.00444233 6.4321e-23)
(0.00051965 -0.000260311 -1.42384e-20)
(0.000961144 2.78754e-05 -8.84342e-22)
(0.000924867 0.000849143 -2.49581e-20)
(-5.33053e-07 0.000819076 0)
(0.000130282 -9.09884e-05 0)
(0.00125635 0.000588793 0)
(0.000951406 8.99807e-06 0)
(3.19468e-06 0.000545216 0)
(0.000839185 9.16145e-05 -4.02462e-21)
(-4.06538e-06 0.000290043 -6.39203e-21)
(0.00096815 5.35279e-05 -1.25215e-21)
(0.000176242 0.000194856 0)
(9.22444e-06 0.000460206 -4.22486e-21)
(-2.10427e-05 0.000730457 -7.51704e-21)
(0.00240552 0.00480668 2.11275e-23)
(0.00116661 6.94753e-05 -1.55266e-20)
(0.000742021 0.000652162 -4.06549e-21)
(0.000987246 2.30858e-05 0)
(0.000132949 -0.000106971 -9.76448e-21)
(6.76965e-05 4.15163e-05 4.22071e-21)
(0.000134228 0.000161225 7.15874e-21)
(1.11694e-05 0.000264813 3.15759e-21)
(0.000928282 4.79444e-06 0)
(0.000935436 3.17741e-05 0)
(-4.70409e-06 0.000212772 0)
(0.000856352 0.00063587 6.60236e-21)
(3.75907e-06 0.000160528 1.94029e-21)
(0.000471979 0.000878542 -1.53166e-20)
(0.000219356 0.00011036 8.60837e-21)
(8.83982e-07 0.000195536 -3.80491e-21)
(0.000935348 -2.46365e-05 0)
(7.98687e-05 -0.00015846 0)
(0.0010222 7.56154e-06 2.22345e-21)
(7.38744e-05 2.45731e-05 -1.63814e-20)
(4.37032e-05 3.32032e-06 6.94923e-21)
(0.000346731 -4.79459e-05 -8.86493e-22)
(2.01722e-07 0.000102648 -2.56353e-21)
(0.000979445 -6.85099e-05 9.09017e-21)
(0.000958128 4.0167e-06 -1.05097e-21)
(0.000140941 -0.000312049 3.50402e-21)
(3.78824e-05 3.16143e-05 -3.84172e-22)
(0.000242382 0.000113094 1.81208e-25)
(0.000769626 4.3861e-05 0)
(0.000461202 -2.0449e-05 -9.93512e-25)
(0.000289766 0.000172195 -8.09291e-21)
(0.000166941 -0.000159115 0)
(0.0024442 0.00438689 3.55512e-21)
(7.31948e-05 5.09013e-05 4.87375e-21)
(0.000772747 0.000307633 8.51553e-21)
(0.0003378 -0.000584746 1.05826e-20)
(0.000480131 0.000163864 -9.39219e-21)
(0.000380401 8.62583e-05 -8.71665e-21)
(0.00024562 0.000231681 -1.50689e-20)
(0.000149967 0.000157262 -5.52971e-21)
(0.000904755 0.000403609 0)
(1.33229e-06 3.65657e-05 -4.03827e-21)
(0.00101359 -2.60303e-06 2.20707e-21)
(0.00101921 1.99035e-05 0)
(0.00093218 1.30724e-05 1.57447e-21)
(0.000655894 0.00011945 4.94393e-21)
(0.000949557 3.59646e-05 0)