/*--------------------------------*- C++ -*----------------------------------*\
  =========                 |
  \\      /  F ield         | OpenFOAM: The Open Source CFD Toolbox
   \\    /   O peration     | Website:  https://openfoam.org
    \\  /    A nd           | Version:  7
     \\/     M anipulation  |
\*---------------------------------------------------------------------------*/
FoamFile
{
    version     2.0;
    format      ascii;
    class       volScalarField;
    location    "9.5";
    object      p;
}
// * * * * * * * * * * * * * * * * * * * * * * * * * * * * * * * * * * * * * //

dimensions      [0 2 -2 0 0 0 0];

internalField   nonuniform List<scalar> 
591
(
0.000125185
0.000125195
0.000125243
0.000125172
0.000125174
0.000125385
0.000125238
0.000125216
0.000118031
0.00012521
0.000125357
0.000124049
0.000125364
0.000120877
0.000125214
0.000125227
0.000125091
0.000125244
0.000123129
0.000124554
0.000125185
2.49326e-07
0.000125353
0.000125169
0.000125306
0.000125185
0.000125227
0.000125268
0.000125193
0.000125272
0.000125325
0.000125303
0.000125323
0.00012532
0.000125326
0.000124685
0.00012532
0.000125205
0.000125341
0.000125254
0.000125214
0.000125317
0.000125209
0.000125241
0.000125314
0.000125329
0.00012042
0.000125332
0.000125187
0.000125323
0.000125257
0.000125302
2.65132e-05
3.14969e-05
4.87873e-05
0.00012527
0.000125336
0.000125315
0.00012533
0.000125154
0.00012524
0.000125186
0.000125198
0.000125405
0.00012375
0.000125199
0.000125207
0.000125329
0.000121846
0.00012526
0.000125199
0.000125333
0.000125285
0.000125316
0.00012532
0.000125294
0.000125161
0.00012533
0.000125165
0.000125089
0.000124959
0.000125335
0.000125302
0.000125255
0.000125342
0.000125178
0.000125266
0.000125325
0.000125293
0.000125058
0.000125307
0.000125224
0.000125254
0.00012518
0.000125341
0.000125299
0.000124893
0.000124773
0.0001249
0.000125343
0.000125264
0.000125201
0.000125346
0.000125175
0.000125343
0.00012521
0.000125208
0.000125289
0.000125344
0.000125344
0.000125235
0.000125311
0.000125192
0.000125323
0.000125343
0.000125332
0.000125258
0.000125281
0.00012481
0.000125222
0.000125204
0.00012542
0.000125239
0.000125167
0.000125325
0.000121239
0.000125347
0.000125307
0.00012496
0.000125322
0.000125185
0.000124879
0.000125293
0.000125278
0.000125324
0.000125223
0.000123888
0.000125348
0.0001252
0.000124815
0.000124885
0.000125249
0.000125325
0.00012534
0.000125336
1.0196e-05
6.07414e-06
4.56479e-06
3.90142e-05
3.68344e-05
8.14023e-06
3.96505e-05
1.8432e-05
3.84825e-05
2.04837e-05
0.000125201
0.000125181
0.000125335
0.000125332
0.000125337
0.000125334
0.000125329
0.000125327
0.000125328
0.000125329
0.000125283
0.000125339
0.000125333
0.000125338
0.000125258
0.000124617
0.000125341
0.000123288
0.000125305
0.000125324
0.000125255
0.000125198
0.000125322
0.000125331
0.000125326
0.000124732
0.000123671
0.00012425
0.00012468
0.000125327
0.00012533
0.000125318
0.000125172
0.000125321
0.000124146
0.000124536
0.000125174
0.000125327
0.00012503
0.000125316
0.000125318
0.000125285
0.000124983
0.000125166
0.000125318
0.00012534
0.000125319
0.00012511
0.000125296
0.000125122
0.000125337
0.000125209
0.000125203
0.000125334
0.000124963
0.000125159
0.000125236
0.000124782
0.000125284
0.000124936
0.000125225
0.00012522
0.000125305
0.000124705
0.000125223
0.000125159
0.000125177
0.000125291
0.000125065
0.00012522
0.000125135
0.000125037
0.00012516
0.00012534
0.000125094
0.000125335
0.000125162
0.000125307
0.000125178
0.00012517
0.000125337
0.000125082
0.000125333
0.000125077
0.000125138
0.000125241
0.000125192
0.000125197
0.000125194
0.000124927
0.000125162
0.000125108
0.000125297
0.000125199
0.00012501
0.000125283
0.000124534
0.000125159
0.000124451
0.000124301
0.000125202
0.000125129
0.000125198
0.000125193
0.000125118
0.000125334
0.000125214
0.00012528
0.000125201
0.00012522
0.000125231
0.000125282
0.000124954
0.000125333
0.000124994
0.000124865
0.000125225
0.000125313
0.000124883
0.000125336
0.000125226
0.000125263
0.000125293
0.000125234
0.000125161
0.000124943
0.000125164
0.000125195
0.0001252
0.000125226
0.000125311
0.000125318
0.00012533
0.000125124
0.000125202
0.000125309
0.000125326
0.000125321
0.000125155
0.000125339
0.000125197
0.000125296
0.000125083
0.000125332
0.000125097
0.00012531
0.000125223
0.000125177
1.4378e-05
2.45028e-05
0.000125155
0.00012521
0.000125337
0.000125125
0.000125336
0.00012521
0.000125332
0.000125314
0.000125093
0.000125307
0.000125163
0.000125331
0.000125228
1.80723e-07
0.000124987
0.00012531
0.000125308
0.000125063
0.000125146
0.000125166
0.000125303
0.000125126
0.000125328
0.000125221
0.000125233
0.000125301
0.000125176
0.000125095
0.000125121
0.000125215
4.84613e-05
0.000125319
0.0001253
0.000125187
0.000125327
0.000125248
0.000125213
0.000125182
0.000125162
0.000125314
0.000125382
0.000125125
0.000125191
0.000125131
0.000125331
0.00012514
0.000125163
0.000125214
0.000125293
2.2518e-05
2.94298e-05
3.43876e-05
1.23044e-05
0.000125165
3.35655e-05
2.81868e-05
0.000125325
2.1801e-05
1.97271e-05
3.86183e-05
1.01881e-05
4.07406e-05
8.12029e-06
4.20611e-05
6.0932e-06
4.38943e-05
4.1034e-06
3.74405e-05
2.57944e-05
3.0914e-05
1.76735e-05
0.000125023
0.000125334
0.000125232
0.00012524
0.000121993
0.000125436
0.00012533
0.000125301
0.000125153
0.000125335
0.000125322
0.00012532
0.000125318
0.000125101
0.000125132
0.000125304
0.000125309
0.000125158
0.000125053
0.000125006
0.000124615
0.000125107
0.000125346
0.000125323
0.000125166
0.000125349
0.000125064
0.000125157
0.000125011
0.000124066
0.000125318
0.000125327
0.000125343
0.000125051
0.000125184
0.00012502
0.000125208
0.000125146
2.83082e-05
2.45724e-05
3.33917e-05
1.43881e-05
0.000125355
0.000125071
2.25264e-05
2.99442e-05
3.59224e-05
1.23121e-05
0.000125164
0.00012527
0.000125162
0.000125148
0.000125398
0.000125267
0.000125052
0.000125315
0.00012523
0.000124321
0.000125158
0.000125125
6.03786e-05
0.000124457
0.000125339
0.000125197
0.000125097
0.000125327
0.00012533
0.000125192
0.000124959
0.00012522
0.000125246
0.000125027
0.000125284
0.000124153
0.000125154
0.000125141
0.000125271
0.000101831
0.000125107
0.000124723
0.000125124
0.000125344
0.000125023
1.36194e-05
2.38413e-05
3.58824e-05
2.98605e-05
1.63905e-05
2.59852e-06
4.31182e-05
5.23075e-06
4.14004e-05
7.31093e-06
4.08518e-05
9.42032e-06
3.99986e-05
1.15363e-05
3.82309e-05
1.63776e-05
3.24062e-05
3.15778e-05
2.6387e-05
2.7682e-05
2.04485e-05
1.56421e-05
1.83957e-05
0.000125333
0.000103538
0.000125165
0.000125128
0.000125338
0.000125237
0.000125344
0.000125078
0.000125392
0.000125312
0.000125305
0.000125491
0.00012507
0.000125345
0.000125043
0.000125271
0.000125152
0.000125338
0.000125168
0.00012502
0.000125014
0.00012536
0.000125437
0.000125349
0.000125335
0.000125338
0.000125306
0.00012534
0.00012498
0.000125187
0.000125339
0.000125123
0.000125433
0.000125194
0.000125183
0.000125058
0.000125309
0.00012531
0.000124641
0.00012259
0.000124329
0.000124898
0.000125157
0.000125025
0.000125395
0.00012534
0.00012529
0.00012525
0.000124787
0.000124804
0.000125339
0.000125312
0.000125238
0.00012527
0.000124817
5.93856e-05
4.11067e-05
0.000125278
0.000125296
0.000124665
0.00012397
0.000125202
0.000124839
0.000124607
0.000125372
0.000125052
0.000125311
0.00012518
0.000125245
0.000120152
5.5408e-05
0.00012525
8.22266e-05
2.74631e-06
1.26837e-06
0.000125188
0.000125186
0.00012531
0.000125341
0.000125327
0.000125341
0.000125325
0.000125185
-6.77443e-07
0.000124073
0.000125225
0.000125287
0.000123137
0.000125339
0.000125337
0.000123496
0.000125284
0.000125313
0.000122911
0.000125333
7.74899e-05
0.000125337
0.000124712
0.0001253
0.000123581
0.000124888
0.000124904
0.000125227
0.000125335
0.000125296
0.000125337
0.000125356
0.000125159
0.000117277
)
;

boundaryField
{
    back
    {
        type            empty;
    }
    ingreso
    {
        type            zeroGradient;
    }
    salida
    {
        type            fixedValue;
        value           uniform 0;
    }
    front
    {
        type            empty;
    }
    defaultFaces
    {
        type            zeroGradient;
    }
}


// ************************************************************************* //
