/*--------------------------------*- C++ -*----------------------------------*\
  =========                 |
  \\      /  F ield         | OpenFOAM: The Open Source CFD Toolbox
   \\    /   O peration     | Website:  https://openfoam.org
    \\  /    A nd           | Version:  7
     \\/     M anipulation  |
\*---------------------------------------------------------------------------*/
FoamFile
{
    version     2.0;
    format      ascii;
    class       volScalarField;
    location    "13.5";
    object      p;
}
// * * * * * * * * * * * * * * * * * * * * * * * * * * * * * * * * * * * * * //

dimensions      [0 2 -2 0 0 0 0];

internalField   nonuniform List<scalar> 
591
(
0.000124065
0.000124077
0.000124111
0.000124063
0.000124064
0.000124213
0.000124118
0.0001241
0.000116906
0.000124092
0.000124238
0.000122936
0.000124196
0.000119797
0.000124102
0.000124118
0.000123987
0.000124129
0.00012203
0.000123461
0.000124064
-8.86671e-07
0.000124237
0.000124062
0.000124192
0.00012407
0.00012412
0.000124156
0.00012408
0.000124148
0.000124211
0.000124189
0.000124208
0.000124206
0.00012421
0.00012357
0.000124205
0.000124085
0.000124228
0.000124141
0.000124118
0.000124202
0.00012409
0.000124119
0.000124199
0.000124215
0.00011934
0.000124218
0.000124088
0.000124205
0.000124148
0.000124192
2.43205e-05
3.02364e-05
4.78845e-05
0.00012414
0.000124222
0.000124202
0.000124216
0.000124052
0.000124129
0.000124078
0.000124089
0.000124227
0.00012266
0.000124084
0.00012409
0.000124214
0.000120789
0.000124133
0.000124086
0.00012422
0.000124174
0.000124202
0.000124207
0.000124181
0.000124048
0.000124217
0.000124055
0.000123972
0.000123845
0.000124221
0.000124186
0.000124147
0.000124229
0.000124065
0.000124154
0.000124212
0.000124177
0.000123943
0.000124191
0.000124115
0.000124145
0.000124068
0.000124228
0.000124189
0.000123778
0.000123665
0.000123782
0.000124231
0.000124145
0.000124073
0.000124234
0.000124067
0.000124232
0.000124094
0.000124084
0.00012418
0.000124228
0.000124231
0.000124117
0.0001242
0.000124096
0.00012421
0.00012423
0.000124213
0.000124148
0.000124164
0.000123696
0.000124112
0.00012409
0.000124229
0.000124116
0.000124067
0.000124209
0.000120234
0.000124234
0.0001242
0.000123847
0.000124208
0.000124073
0.000123768
0.000124173
0.000124167
0.00012421
0.000124108
0.00012274
0.000124235
0.000124088
0.000123705
0.00012377
0.000124139
0.000124211
0.000124227
0.000124222
9.42767e-06
5.48181e-06
3.92727e-06
3.87346e-05
3.69904e-05
7.51142e-06
3.87326e-05
1.70869e-05
3.74233e-05
1.89209e-05
0.000124086
0.000124062
0.000124221
0.000124218
0.000124224
0.000124221
0.000124216
0.000124214
0.000124216
0.000124216
0.000124173
0.000124225
0.00012422
0.000124225
0.000124148
0.000123506
0.000124228
0.000122203
0.000124194
0.00012421
0.000124147
0.000124084
0.000124209
0.000124218
0.000124214
0.000123616
0.000122568
0.000123149
0.000123574
0.000124213
0.000124217
0.000124194
0.000124061
0.000124209
0.000123044
0.000123425
0.000124062
0.000124211
0.000123915
0.000124202
0.000124207
0.000124174
0.000123879
0.000124049
0.000124206
0.000124223
0.000124208
0.000123999
0.000124187
0.000124004
0.000124225
0.000124094
0.000124088
0.000124221
0.000123856
0.000124051
0.000124115
0.00012368
0.000124173
0.000123832
0.000124117
0.00012411
0.000124194
0.000123605
0.000124114
0.000124035
0.000124059
0.00012418
0.000123948
0.000124109
0.000124018
0.00012392
0.000124048
0.000124228
0.000123981
0.000124222
0.00012405
0.000124195
0.000124062
0.000124056
0.000124226
0.000123973
0.00012422
0.000123969
0.000124018
0.000124115
0.000124074
0.000124085
0.000124084
0.000123825
0.000124046
0.000123991
0.000124186
0.000124079
0.000123893
0.000124173
0.000123433
0.000124023
0.000123362
0.00012319
0.000124083
0.00012403
0.000124075
0.000124071
0.000124002
0.000124224
0.000124103
0.000124169
0.00012409
0.000124108
0.000124118
0.000124173
0.000123837
0.000124221
0.000123879
0.000123763
0.000124104
0.000124199
0.000123777
0.000124223
0.000124117
0.00012416
0.00012418
0.000124115
0.00012405
0.000123832
0.000124046
0.000124062
0.000124088
0.000124118
0.000124197
0.000124205
0.000124216
0.000124006
0.00012409
0.000124198
0.000124212
0.000124207
0.000124033
0.000124222
0.000124087
0.000124186
0.000123985
0.000124219
0.000123989
0.000124197
0.000124122
0.000124059
1.33326e-05
2.25395e-05
0.000124044
0.000124088
0.000124224
0.000124017
0.000124224
0.000124095
0.000124219
0.0001242
0.000123985
0.000124193
0.000124045
0.000124218
0.000124105
4.02543e-08
0.000123883
0.000124198
0.000124196
0.000123948
0.000124035
0.000124057
0.000124191
0.000124014
0.000124214
0.000124113
0.000124102
0.000124189
0.000124066
0.000123982
0.000124004
0.000124111
4.74537e-05
0.000124207
0.000124189
0.000124071
0.000124214
0.000124137
0.000124097
0.000124066
0.000124071
0.0001242
0.000124204
0.000124017
0.000124082
0.000124022
0.000124216
0.000124029
0.000124051
0.000124101
0.000124181
2.07281e-05
2.71255e-05
3.42096e-05
1.14005e-05
0.000124062
3.29177e-05
2.63153e-05
0.000124211
2.0074e-05
1.82676e-05
3.84131e-05
9.4435e-06
4.06251e-05
7.47177e-06
4.14776e-05
5.4923e-06
4.28901e-05
3.54178e-06
3.64629e-05
2.37311e-05
2.90054e-05
1.64025e-05
0.000123918
0.000124221
0.00012412
0.000124135
0.000120956
0.00012427
0.000124216
0.000124187
0.000124043
0.000124221
0.000124211
0.000124206
0.000124203
0.000123986
0.000124053
0.000124194
0.000124198
0.000124045
0.000123945
0.000123899
0.000123511
0.000123987
0.000124233
0.000124209
0.000124075
0.000124233
0.000123948
0.000124061
0.000123898
0.00012298
0.000124203
0.000124213
0.000124228
0.000123937
0.000124075
0.000123906
0.000124095
0.000124049
2.61344e-05
2.24824e-05
3.2873e-05
1.33373e-05
0.000124239
0.000123955
2.06846e-05
2.80184e-05
3.57034e-05
1.14153e-05
0.000124047
0.000124158
0.000124045
0.000124031
0.00012421
0.000124156
0.000123943
0.0001242
0.000124119
0.000123211
0.00012404
0.000124008
5.92979e-05
0.000123347
0.000124225
0.000124083
0.000123983
0.000124214
0.000124217
0.000124074
0.000123848
0.000124106
0.00012414
0.00012392
0.00012417
0.000123045
0.000124043
0.000124022
0.000124161
0.000100792
0.000124001
0.000123611
0.000124013
0.000124229
0.00012391
1.26361e-05
2.18895e-05
3.54648e-05
2.82479e-05
1.52037e-05
1.85197e-06
4.21067e-05
4.58609e-06
4.02823e-05
6.63291e-06
3.97812e-05
8.66004e-06
3.91625e-05
1.06865e-05
3.77148e-05
1.52149e-05
3.13613e-05
3.0445e-05
2.44453e-05
2.55046e-05
1.88991e-05
1.45292e-05
1.70638e-05
0.00012422
0.000102344
0.000124062
0.000124015
0.000124225
0.000124124
0.00012423
0.000123965
0.000124214
0.000124196
0.00012419
0.000124321
0.00012396
0.000124178
0.000123929
0.000124159
0.000124041
0.000124224
0.000124064
0.000123907
0.000123904
0.000124191
0.000124243
0.000124234
0.000124222
0.000124226
0.000124193
0.000124229
0.000123876
0.000124086
0.000124226
0.000124028
0.000124255
0.000124084
0.000124071
0.000123948
0.000124194
0.000124194
0.000123533
0.000121493
0.000123251
0.000123793
0.000124068
0.000123911
0.000124211
0.000124228
0.000124179
0.000124127
0.000123683
0.000123686
0.000124226
0.000124197
0.000124123
0.000124157
0.000123714
5.83514e-05
4.00772e-05
0.000124166
0.000124183
0.000123566
0.000122857
0.000124084
0.000123736
0.000123493
0.000124189
0.000123936
0.000124201
0.00012409
0.000124144
0.000119029
5.43416e-05
0.000124128
8.11556e-05
2.47616e-06
7.35583e-07
0.000124082
0.00012407
0.000124196
0.000124229
0.000124214
0.000124227
0.000124214
0.000124073
-1.22167e-06
0.000122957
0.000124108
0.000124174
0.000122072
0.000124225
0.000124224
0.000122377
0.000124178
0.000124198
0.000121796
0.000124221
7.63309e-05
0.000124223
0.000123628
0.000124187
0.000122476
0.000123779
0.000123792
0.000124118
0.000124223
0.000124182
0.000124223
0.000124239
0.000124072
0.000116178
)
;

boundaryField
{
    back
    {
        type            empty;
    }
    ingreso
    {
        type            zeroGradient;
    }
    salida
    {
        type            fixedValue;
        value           uniform 0;
    }
    front
    {
        type            empty;
    }
    defaultFaces
    {
        type            zeroGradient;
    }
}


// ************************************************************************* //
