/*--------------------------------*- C++ -*----------------------------------*\
  =========                 |
  \\      /  F ield         | OpenFOAM: The Open Source CFD Toolbox
   \\    /   O peration     | Website:  https://openfoam.org
    \\  /    A nd           | Version:  7
     \\/     M anipulation  |
\*---------------------------------------------------------------------------*/
FoamFile
{
    version     2.0;
    format      ascii;
    class       volVectorField;
    location    "13.5";
    object      U;
}
// * * * * * * * * * * * * * * * * * * * * * * * * * * * * * * * * * * * * * //

dimensions      [0 1 -1 0 0 0 0];

internalField   nonuniform List<vector> 
591
(
(0.000809652 -5.12438e-05 1.2064e-18)
(0.000754586 -4.28406e-05 -6.6137e-19)
(0.000835595 -6.35646e-05 5.70057e-20)
(0.000823429 1.42294e-05 -1.47933e-19)
(0.000813634 2.11642e-05 2.22799e-19)
(0.00070335 -1.93034e-05 -1.3862e-19)
(0.000514875 -0.000391291 7.9474e-19)
(0.000801665 -1.12225e-05 2.08317e-18)
(0.00575907 0.00249051 9.86702e-19)
(0.000776751 -2.64652e-05 2.37836e-18)
(6.77556e-05 0.000180332 1.21776e-18)
(0.000885834 0.00124513 9.41504e-21)
(0.000776822 1.46264e-05 1.29003e-18)
(0.0015379 0.00233196 -7.86296e-19)
(0.000796287 5.25074e-05 -4.39015e-19)
(0.0001644 -0.000259221 2.89319e-22)
(0.000128414 0.000657085 7.05641e-19)
(0.000847047 1.99345e-05 -4.93058e-19)
(0.00201295 0.000401399 4.72302e-19)
(0.0013276 0.000315077 -2.47742e-19)
(0.000815042 2.92565e-05 3.69363e-19)
(0.00360088 0.00721806 -1.47022e-20)
(4.15485e-05 7.89941e-05 2.70952e-19)
(0.000810902 9.90968e-06 -4.4432e-19)
(2.05182e-05 -2.59337e-05 3.59286e-19)
(0.000776695 2.06689e-05 0)
(8.89044e-05 0.000477549 1.60094e-19)
(0.000506303 3.48659e-05 -1.79082e-19)
(0.000730904 6.77039e-05 1.13823e-18)
(0.00081875 -3.31708e-05 5.89804e-19)
(7.04515e-05 7.33109e-07 -9.97609e-26)
(5.11903e-05 -5.65651e-05 3.5262e-19)
(4.91855e-05 -4.93371e-06 -4.64479e-20)
(5.85658e-05 -8.0618e-06 0)
(6.47286e-05 -1.63314e-05 1.13061e-18)
(0.00115622 0.000141988 1.80354e-19)
(4.30461e-05 -8.18119e-06 4.4771e-20)
(0.000809309 1.19609e-05 4.79111e-23)
(3.90835e-05 5.48563e-05 2.66186e-19)
(7.98622e-05 -0.000158048 -8.55154e-19)
(0.000515531 -0.000157863 9.57147e-19)
(3.60773e-05 -1.07454e-05 4.55395e-20)
(0.000794696 -9.81103e-06 -1.54548e-18)
(0.000815461 -8.92581e-07 -6.71651e-19)
(2.65953e-05 -1.28797e-05 0)
(6.59082e-05 1.25092e-05 8.52917e-20)
(0.00133765 0.0045379 8.92855e-19)
(8.85813e-05 2.55488e-05 8.64672e-20)
(0.000784816 5.87458e-05 0)
(0.000358463 -0.000117667 6.78935e-19)
(0.000365444 0.000281721 5.12476e-21)
(0.000381283 8.49348e-05 -1.00508e-18)
(0.00649589 0.0108255 -7.7975e-19)
(0.00633848 0.0108645 1.55244e-20)
(0.00562042 0.0103731 1.45725e-18)
(0.000803413 -5.61662e-05 0)
(7.69814e-05 4.04203e-05 0)
(0.000335447 3.37627e-05 9.70602e-24)
(7.49152e-05 1.72037e-05 -3.46881e-19)
(0.000873422 -1.09794e-05 0)
(0.000596956 2.64951e-05 3.18006e-19)
(0.000782815 1.92941e-05 2.16607e-18)
(0.000752653 -6.17189e-06 -5.40265e-19)
(0.000717368 1.55831e-05 -3.12964e-19)
(0.00170732 0.000541533 5.44876e-19)
(0.000791413 -6.70658e-06 -1.13214e-18)
(0.000790325 9.21376e-06 -5.12414e-19)
(9.80345e-05 6.3593e-06 -1.73574e-19)
(0.000740066 0.00230614 0)
(0.000808473 5.4579e-06 0)
(0.000718353 1.80068e-05 -1.36542e-18)
(4.61533e-05 2.1196e-05 0)
(0.000277784 0.000277584 3.27198e-19)
(5.46586e-05 -2.24532e-05 0)
(5.33305e-05 -7.77225e-06 1.59667e-19)
(3.90233e-05 -6.08777e-05 -3.37026e-20)
(0.000751159 4.69802e-05 2.42488e-19)
(5.32001e-05 1.52918e-05 0)
(0.000771674 6.9977e-05 4.40093e-19)
(0.000737382 0.000302448 2.11001e-19)
(0.000954744 6.1141e-05 -3.98595e-20)
(5.13668e-05 2.98062e-05 -4.52414e-20)
(6.93881e-06 -5.0213e-05 0)
(0.00041403 0.00022674 1.70378e-19)
(1.28407e-06 3.93327e-05 0)
(0.000728707 -1.82477e-05 -5.98937e-19)
(0.000538518 -0.00010158 0)
(7.82005e-05 3.90908e-06 -1.74689e-19)
(4.96694e-06 -6.6321e-05 0)
(0.000798117 0.000241366 -3.41734e-19)
(4.92324e-06 -3.15024e-05 0)
(0.000409325 0.000323065 -1.20159e-23)
(0.000500231 0.000118531 0)
(0.000790261 3.68481e-05 5.93141e-24)
(2.84673e-06 2.69283e-05 -4.22223e-20)
(0.000424744 1.82226e-05 1.7659e-18)
(0.00100796 7.74507e-05 4.16823e-20)
(0.00101904 2.65309e-05 6.41741e-22)
(0.00071872 0.000642897 2.68363e-19)
(2.40716e-06 7.32375e-05 0)
(8.6862e-06 -0.000132674 -3.12609e-19)
(2.1625e-05 -0.000226373 -1.10196e-18)
(-8.45065e-07 0.000112567 -5.96321e-19)
(0.000756273 -3.27645e-06 0)
(1.18733e-06 0.000141559 0)
(0.000779739 -7.89027e-06 2.16339e-18)
(0.000734137 4.31875e-05 1.49429e-18)
(0.000392279 -2.61612e-05 0)
(5.97611e-05 0.0002365 -8.94571e-19)
(-8.44888e-07 0.000223171 4.96139e-19)
(9.49857e-05 0.000496585 6.25805e-19)
(0.000284141 0.00013057 -9.34494e-19)
(0.000822018 -1.20916e-06 1.34834e-19)
(0.000269797 4.25748e-06 5.31687e-19)
(1.48277e-06 5.24376e-05 0)
(5.59705e-05 0.000327722 -1.08936e-18)
(0.000309549 0.000329858 -1.61876e-19)
(8.85062e-06 -9.73388e-05 1.46731e-19)
(0.000633336 0.000765103 0)
(0.000352113 0.000389734 5.75029e-20)
(0.000803011 -9.15473e-07 1.03287e-18)
(0.00071149 -5.19205e-05 -2.69111e-18)
(7.65988e-06 -0.000176681 0)
(0.000780045 -1.11928e-05 -1.11425e-19)
(0.000315266 -4.27528e-05 1.24493e-18)
(0.00272367 0.000819725 -3.3502e-19)
(-6.69493e-06 0.000173827 -6.13103e-19)
(-2.17729e-05 0.000217654 1.6194e-18)
(0.000888061 1.85816e-05 -3.89192e-20)
(7.63082e-05 -3.83936e-06 -7.50207e-19)
(0.000771645 4.27768e-05 -3.89056e-19)
(0.000942069 2.81593e-05 -4.10517e-20)
(7.66382e-05 0.000399264 -5.97024e-19)
(0.000461457 8.60137e-05 -4.94528e-19)
(6.1201e-05 -1.54121e-06 1.56339e-19)
(0.000825584 -2.42739e-05 -1.05893e-18)
(0.00167235 0.000221877 -1.13602e-18)
(-1.54289e-06 8.66098e-05 4.96457e-19)
(0.000780755 -1.98484e-06 -5.03479e-19)
(0.000869632 0.000535729 -7.86031e-20)
(0.000137333 0.000889207 0)
(0.000543972 6.98587e-05 0)
(0.000263609 6.54923e-05 -1.60743e-18)
(7.05916e-05 6.82689e-05 -1.37575e-18)
(3.73499e-05 2.60336e-05 0)
(0.00418142 0.00783523 -9.85149e-21)
(0.00420188 0.00782604 4.64493e-20)
(0.00441198 0.00799823 -2.34708e-20)
(0.00411153 0.0076684 0)
(0.00404897 0.00755726 5.81243e-19)
(0.00420112 0.00784543 -9.97633e-20)
(0.004191 0.00802402 4.89785e-19)
(0.00408989 0.00770928 0)
(0.00416285 0.00853682 6.18349e-19)
(0.00409564 0.007684 2.37798e-19)
(0.000800204 -9.64009e-06 -1.3419e-18)
(0.000731191 6.62863e-05 0)
(0.000220017 7.81038e-05 1.27851e-19)
(5.9635e-05 2.20705e-05 8.7291e-20)
(8.70584e-05 5.49635e-05 6.80841e-19)
(0.000116699 5.28092e-05 -3.42077e-19)
(0.000112118 1.75815e-05 0)
(5.8435e-05 8.8386e-06 8.19259e-20)
(0.000203796 0.000149715 0)
(0.000175091 6.42521e-05 -5.24924e-20)
(0.000330975 0.000233052 -5.0981e-21)
(6.32429e-05 5.20888e-05 -4.38186e-19)
(0.000101287 3.83078e-05 -8.53505e-20)
(9.88449e-05 7.29462e-05 1.31351e-21)
(0.000244925 0.00037139 -6.66884e-19)
(0.000162567 0.00110601 0)
(4.90513e-05 6.03753e-05 3.43477e-19)
(0.000178373 0.00185307 0)
(0.000205229 0.000261913 7.05432e-19)
(4.69321e-05 -7.39423e-06 1.11444e-19)
(0.00045846 0.000172249 -1.72496e-19)
(0.000763514 2.77888e-05 -1.85354e-18)
(5.25919e-05 8.46319e-07 4.25564e-24)
(0.000159016 4.30789e-05 2.24759e-19)
(0.000237175 0.00011481 -9.00409e-20)
(0.000859599 0.00069125 3.35289e-19)
(0.000726717 0.0016398 -9.24408e-21)
(0.000424609 0.00134392 -9.44986e-21)
(0.000999685 0.000558024 0)
(0.000116991 -9.81578e-06 1.12011e-18)
(0.000130546 3.09417e-05 -4.43718e-20)
(0.000407631 -0.000215089 -1.13832e-18)
(0.000796115 4.10302e-05 0)
(0.000184373 4.0897e-05 3.62949e-19)
(0.000241915 0.00139629 0)
(0.0010195 0.000729397 -7.30962e-20)
(0.000806652 4.80408e-05 -1.82616e-19)
(9.60451e-05 -1.76266e-05 -3.00294e-19)
(0.000796072 0.000299712 -2.08312e-20)
(8.41338e-05 -2.35136e-05 -5.98863e-19)
(0.000226117 0.00018629 8.64846e-20)
(0.000224161 0.000313049 -3.4539e-19)
(0.000858064 0.000234354 0)
(0.000774873 3.37515e-05 0)
(0.00025859 0.000155662 1.7705e-19)
(0.000235529 2.57213e-05 2.13682e-24)
(0.000184971 0.000215934 0)
(0.000281773 0.000635355 -5.55722e-21)
(0.000324814 2.35661e-05 0)
(0.000323815 0.000585281 0)
(0.000117615 9.57025e-05 -1.34831e-21)
(0.000799413 -1.94926e-05 -9.42452e-19)
(0.000830239 -2.61748e-05 7.72603e-19)
(0.000136843 7.33675e-05 -1.50034e-19)
(0.000929759 0.000149965 8.4988e-20)
(0.000816088 4.97541e-05 3.27574e-19)
(0.000783428 2.20547e-05 -2.93834e-19)
(0.000975699 0.000403139 0)
(0.000420208 0.000128875 6.25206e-19)
(0.000867885 0.000315101 2.09404e-20)
(0.000543562 0.000168874 0)
(0.000275789 0.000434967 4.10066e-19)
(0.000255108 0.000229833 -8.4512e-20)
(0.00108337 0.000384865 -7.83102e-19)
(0.000583388 0.0001209 -1.79524e-19)
(0.000780258 0.000103968 -7.36957e-21)
(0.00080931 2.88109e-05 9.36415e-20)
(0.000116703 -9.52745e-05 -1.98371e-18)
(0.0007158 0.000373706 2.19496e-19)
(0.000626495 7.45176e-05 2.30765e-20)
(0.000679053 0.000271169 1.45523e-23)
(0.000700259 0.000440002 -4.09879e-19)
(0.000824749 3.55576e-05 8.87822e-20)
(7.86591e-05 9.27953e-05 0)
(0.00062817 0.000423261 -4.66277e-20)
(0.000185015 0.000114938 0)
(0.000362272 0.000511031 -2.65017e-19)
(0.000308854 0.000183298 0)
(0.000648926 0.000207761 3.55699e-19)
(0.000621377 0.000273738 -4.37809e-20)
(8.32595e-05 0.000110755 6.19467e-19)
(0.000874978 0.000119343 -1.5774e-18)
(6.74232e-05 2.9278e-05 2.57505e-19)
(0.000884633 6.85493e-05 -1.63519e-18)
(0.000771998 3.22402e-05 1.59578e-19)
(0.000781392 -2.47002e-06 1.91833e-18)
(0.000785703 -2.90711e-06 -1.31367e-19)
(0.000680271 7.41543e-05 0)
(0.000851769 2.59316e-05 8.80469e-19)
(0.000916506 0.000242955 -4.27666e-19)
(0.000739071 7.44428e-05 -4.78598e-19)
(0.000751944 0.000232125 -8.82449e-20)
(0.000249731 -9.27854e-05 -2.08165e-18)
(0.000708008 9.55422e-05 8.88599e-19)
(0.000608029 0.000583929 0)
(0.00013778 -9.02462e-05 0)
(0.00116547 0.000461307 4.96622e-19)
(0.000826561 -0.00017229 -3.23397e-18)
(0.00125738 0.000413399 5.73478e-19)
(0.00126284 0.000718228 -6.38382e-20)
(0.000783296 5.93849e-05 -2.09071e-19)
(0.000801005 8.5911e-05 -1.40309e-18)
(0.0007813 6.20794e-05 1.55593e-18)
(0.000772482 -1.96418e-05 9.58111e-20)
(0.000654646 0.000341553 -4.40952e-20)
(0.000110964 0.000148367 2.41016e-23)
(0.000694623 -6.9153e-05 2.65468e-19)
(0.000262421 -0.000170653 -7.3737e-19)
(0.000594815 0.000194082 0)
(0.000664481 2.10092e-05 9.91464e-20)
(0.000645603 7.13781e-06 -3.81329e-19)
(0.000373304 0.000184299 3.93129e-20)
(0.000761057 0.000496075 -1.65678e-19)
(0.000157735 9.32656e-05 2.05412e-25)
(0.000790188 0.000384815 0)
(0.000946087 0.000321017 4.16308e-20)
(0.000712477 -0.000111998 -6.17116e-19)
(0.000333784 0.000114031 4.97277e-19)
(0.000874778 0.00041501 0)
(5.77925e-05 3.88069e-05 1.33874e-19)
(0.000461249 0.000273489 2.14191e-19)
(0.000434093 -7.63657e-05 -7.10091e-19)
(0.00019467 -0.000125824 -1.06029e-18)
(0.000769301 -1.66775e-05 -4.74044e-19)
(0.000797484 -0.000110617 -1.92585e-19)
(0.000554707 0.000728972 -1.1664e-18)
(0.000820723 6.05853e-05 -6.63494e-20)
(0.000781977 -7.77321e-05 1.2588e-18)
(0.000653078 9.94094e-05 2.2809e-20)
(0.000503846 0.000221671 -1.6587e-19)
(4.54568e-05 -2.67067e-05 -8.76885e-20)
(0.000208763 -2.03702e-05 2.40159e-18)
(3.58382e-05 9.26615e-07 -1.95023e-19)
(0.000762965 7.37853e-05 3.58428e-19)
(0.000624703 0.000143899 0)
(0.000209256 -4.26065e-05 -1.0489e-18)
(0.000133743 1.05062e-05 3.12727e-19)
(0.000142556 -3.19524e-05 -8.27144e-24)
(0.000776361 0.000118267 -3.18856e-19)
(0.000160715 -3.44679e-06 0)
(0.000560952 0.000245136 0)
(0.000111569 0.000341332 -3.63245e-19)
(0.000827777 0.000131314 2.06454e-18)
(2.92379e-05 1.79357e-06 0)
(0.000813376 2.28912e-06 0)
(5.72519e-05 -2.69956e-05 0)
(0.000823591 2.16841e-05 -4.38209e-21)
(0.000816542 -6.69591e-05 0)
(0.0041273 0.0077766 8.65666e-20)
(0.00414677 0.00760743 1.50054e-19)
(0.00083439 1.05762e-05 0)
(0.000739126 -6.42471e-05 8.13969e-19)
(0.000154596 0.000140167 1.4938e-19)
(0.000874075 7.06837e-05 7.89017e-19)
(0.000136107 0.000117376 2.34673e-20)
(0.000735389 -6.50759e-05 6.27513e-19)
(4.26984e-05 1.35065e-05 0)
(4.00148e-05 -1.87534e-05 -4.49033e-20)
(0.000856746 7.04026e-05 -4.78372e-19)
(5.09648e-05 -3.73017e-05 -6.7041e-19)
(0.000730506 0.000128949 -4.23839e-20)
(0.00016761 0.000175681 -1.88314e-19)
(0.000796076 1.07051e-05 0)
(0.00465922 0.0083672 1.45011e-21)
(0.000161928 0.000773533 3.34063e-19)
(0.000140334 -4.51711e-05 -9.14283e-19)
(7.90059e-05 -3.57308e-05 -1.16958e-18)
(0.000819079 2.11105e-05 1.89614e-20)
(0.00055671 0.000417108 0)
(0.000388774 0.000426606 -2.56211e-19)
(0.00012132 -4.66524e-05 1.18495e-18)
(0.000777447 5.13218e-06 7.7146e-20)
(5.12169e-05 2.24401e-06 4.07501e-19)
(0.000625662 -5.53046e-05 1.17328e-18)
(0.000786372 1.24162e-05 -6.00772e-19)
(9.73863e-05 -5.3851e-05 1.71093e-18)
(0.000825289 7.98691e-06 1.31736e-25)
(0.00079406 1.49774e-05 -3.77115e-20)
(0.000835608 7.08286e-05 0)
(0.000773417 4.46354e-05 0)
(0.00591991 0.00722416 2.59055e-19)
(3.73729e-05 4.10255e-06 -1.19682e-19)
(0.000195107 -6.83478e-05 7.72329e-19)
(0.000701229 0.000117659 -6.97381e-19)
(4.21947e-05 -1.10802e-06 2.0164e-19)
(0.000557102 -1.60083e-05 -7.24795e-19)
(0.000692623 -4.09368e-06 1.54182e-18)
(0.000675555 0.000154026 -3.55862e-19)
(0.000791915 -4.64672e-05 3.55998e-19)
(0.00010457 -2.70783e-05 1.11735e-18)
(0.000715489 1.29205e-05 -3.19747e-19)
(0.000839306 6.40674e-05 0)
(0.000519892 0.000303777 4.21518e-20)
(0.000853679 2.80371e-05 -9.20438e-19)
(3.6534e-05 -3.37346e-06 9.11726e-19)
(0.000795187 1.30002e-05 9.41238e-19)
(0.000802878 -4.73086e-05 -9.52124e-19)
(0.000681551 2.36866e-05 -5.6831e-19)
(0.000475341 -3.99195e-05 -5.26368e-19)
(0.00409715 0.00762429 2.63047e-19)
(0.00412901 0.00743376 -2.76723e-19)
(0.00404135 0.00754253 3.00416e-19)
(0.00415513 0.00781501 2.88213e-19)
(0.000835918 3.22642e-06 1.42987e-19)
(0.00447282 0.0076437 0)
(0.00432505 0.00759874 -5.09718e-19)
(5.50152e-05 -5.30624e-07 -9.97418e-19)
(0.00418185 0.00768275 -6.60753e-20)
(0.00416014 0.0077206 -2.91726e-19)
(0.00604031 0.0106147 0)
(0.00635829 0.0104102 4.90432e-20)
(0.00601151 0.0105596 0)
(0.00635605 0.0103967 1.89439e-19)
(0.0060064 0.0105499 2.04869e-19)
(0.00635294 0.0103901 2.23355e-20)
(0.00594501 0.0105881 -7.80389e-19)
(0.00638403 0.0103301 2.03419e-20)
(0.00388246 0.0091946 -1.91048e-19)
(0.0041637 0.00751125 3.04081e-21)
(0.00411277 0.00746672 9.67085e-20)
(0.00415718 0.00777018 5.48085e-20)
(0.000845362 0.00017589 4.4524e-20)
(2.155e-05 2.62685e-06 0)
(0.000634394 -0.000153521 0)
(0.000777482 2.976e-05 0)
(0.00243802 0.00104993 4.36581e-21)
(0.000677815 -1.48048e-05 1.71336e-19)
(4.96105e-05 8.92644e-06 4.54566e-20)
(2.48242e-05 -3.33427e-05 1.65426e-18)
(0.000835764 3.08028e-05 0)
(3.44597e-05 1.71395e-05 -1.91961e-19)
(0.000147319 0.000233441 0)
(3.8731e-05 -1.28004e-06 0)
(3.21855e-05 -2.12506e-06 0)
(0.000794762 0.000135703 1.13587e-20)
(0.000834779 1.63948e-05 1.75992e-19)
(3.5668e-05 0.000338809 6.5489e-23)
(0.000162302 0.000278861 -1.84396e-18)
(0.000586788 0.000343508 -8.57989e-20)
(0.000875346 0.000120962 5.92062e-19)
(0.00072864 -0.00049838 6.63527e-19)
(0.000313473 0.00109991 0)
(0.000462511 0.000535741 2.71068e-18)
(0.000101696 0.000152382 -1.799e-18)
(4.49441e-05 5.43496e-07 0)
(0.000849938 -9.83568e-06 3.57745e-20)
(2.22819e-05 4.62876e-05 1.64653e-18)
(0.00088776 2.63579e-05 2.71196e-19)
(0.000101232 -0.000291708 3.77905e-18)
(0.000915799 4.42013e-05 -2.69479e-19)
(0.00147571 9.46403e-05 7.47835e-19)
(4.83843e-05 -1.34357e-05 8.26728e-20)
(4.6295e-05 1.00434e-05 -8.59333e-19)
(4.55103e-05 0.000165126 0)
(0.000871943 0.000104578 5.94431e-19)
(0.000476845 0.000373001 2.37395e-19)
(0.000845319 1.65888e-05 -3.87865e-20)
(0.000729936 -1.89612e-05 2.55376e-19)
(0.000670506 -0.000236307 0)
(0.00648266 0.0108648 -1.68372e-19)
(0.00649732 0.0107725 4.1837e-19)
(0.00621157 0.0107851 -6.13193e-19)
(0.00638828 0.0104592 -9.13173e-20)
(4.46543e-05 0.000121055 8.00217e-19)
(0.000876404 5.33444e-05 1.52974e-22)
(0.00647854 0.0106969 -4.0116e-19)
(0.00643628 0.0108849 5.44809e-19)
(0.0061034 0.0106878 -4.47715e-19)
(0.00638079 0.0104324 -7.92263e-20)
(0.000103716 0.000599357 -2.02208e-20)
(0.000191974 -0.000169248 -7.95891e-19)
(0.00083127 -2.37326e-06 -7.56592e-19)
(0.000701313 0.000216904 0)
(0.000726443 -9.11683e-06 0)
(0.000185173 0.000392459 3.36661e-19)
(0.00060435 0.000576649 -5.36222e-19)
(2.41304e-05 -3.22809e-06 1.78622e-19)
(0.0002117 0.000463062 -7.3919e-19)
(0.000995693 0.000961924 -1.12819e-19)
(0.000717905 0.000174018 0)
(0.000763493 0.000164285 1.30807e-19)
(0.00636132 0.00586949 1.12994e-18)
(0.000680691 0.00112699 8.28828e-20)
(4.63978e-05 4.58581e-05 -7.45618e-20)
(0.00082357 4.75789e-05 0)
(0.000865152 1.41141e-05 -3.56852e-20)
(4.56053e-05 7.05046e-06 -1.96824e-19)
(3.94197e-05 8.51866e-06 1.9314e-19)
(0.000808579 1.67596e-05 5.30779e-19)
(0.000950519 0.000108984 6.59478e-19)
(0.000746007 6.71235e-05 0)
(0.000244226 -0.00026149 -4.00239e-19)
(0.000873747 0.000136159 3.87447e-19)
(4.4196e-05 -8.86741e-05 2.03301e-19)
(0.00147987 0.000378769 -2.56808e-18)
(0.000763365 1.60105e-06 0)
(0.000770236 0.000130428 3.74907e-19)
(9.03985e-05 0.000408864 0)
(0.00117521 0.00819116 4.61631e-19)
(0.000460055 0.000512877 -1.22364e-18)
(0.000528159 0.000958167 -1.83943e-19)
(0.000856182 2.61939e-05 -1.44933e-19)
(2.09976e-05 3.25777e-05 0)
(0.000902789 7.34702e-05 6.07111e-19)
(0.00411478 0.00779491 9.40235e-20)
(0.00417007 0.00759811 6.17418e-20)
(0.00448712 0.00756424 4.55073e-19)
(0.00442164 0.00766062 -3.59008e-19)
(0.00640841 0.0105119 9.14204e-20)
(0.0039346 0.00765803 1.33681e-20)
(0.00549299 0.00778125 -5.65207e-19)
(0.00414483 0.00784704 5.20099e-21)
(0.00517182 0.0078302 5.13266e-19)
(0.00412206 0.00780525 -5.65215e-20)
(0.00489497 0.0076801 0)
(0.00411371 0.00780482 -8.81817e-20)
(0.00466257 0.00753612 4.99397e-19)
(0.00411352 0.00780258 8.45641e-20)
(0.00451151 0.00751897 0)
(0.00411777 0.00775886 1.81178e-19)
(0.00406403 0.00752013 6.48117e-19)
(0.00446843 0.00766624 -5.65949e-19)
(0.00422444 0.00758202 4.65162e-19)
(0.00414606 0.00747104 2.21599e-19)
(0.00645073 0.0106233 -4.16841e-21)
(0.0041312 0.00778511 4.3686e-20)
(0.00642726 0.0105573 0)
(3.22408e-05 1.02208e-05 -1.90095e-19)
(0.00197389 0.00650583 2.28376e-19)
(0.000839203 4.74553e-07 1.09013e-19)
(0.000848189 2.015e-05 0)
(4.4974e-06 4.82148e-06 -3.9961e-19)
(0.000108452 -0.000207388 6.91757e-19)
(2.32715e-05 6.87089e-05 2.08732e-18)
(0.000800147 0.000191307 -9.02075e-20)
(0.000709274 7.2351e-06 6.99021e-19)
(5.13989e-06 -5.61543e-06 3.10387e-19)
(2.9031e-05 -4.85866e-05 -1.84738e-18)
(0.000696135 1.32308e-05 1.61691e-19)
(0.000821206 0.000118656 -3.02224e-20)
(0.000705314 -4.16384e-06 1.46838e-19)
(0.000421313 0.000648688 0)
(0.000141777 -0.000151206 1.15308e-18)
(0.000832272 2.16954e-05 1.50924e-19)
(2.52933e-05 3.03891e-05 0)
(0.000100928 0.000560466 -6.31638e-19)
(0.000611688 0.000574989 1.29105e-18)
(0.000338509 0.000724317 0)
(0.000700179 -8.31297e-06 0)
(0.000712617 7.41254e-05 1.16095e-18)
(2.73458e-05 5.31464e-05 -3.51656e-18)
(2.34662e-05 1.18069e-05 3.74086e-19)
(0.000111157 0.000157733 0)
(6.82981e-05 -4.60922e-05 0)
(7.62883e-05 0.000125194 2.0098e-19)
(0.000893121 0.000177467 3.49689e-19)
(0.000780073 -4.76514e-05 -1.37335e-18)
(2.88111e-05 4.17884e-05 0)
(0.00062217 9.82417e-05 -6.0082e-20)
(0.000721007 1.78886e-05 -1.54984e-19)
(0.000848783 3.90766e-06 1.03451e-18)
(0.000249705 0.000545584 6.32693e-19)
(0.000818996 0.000134131 0)
(3.6579e-05 -3.51406e-05 5.39307e-19)
(4.81503e-06 -1.78692e-05 -3.20326e-19)
(0.00115997 -7.72906e-06 0)
(0.000922526 0.00213645 0)
(0.00105966 -0.000119916 0)
(0.000967891 0.000191292 4.27795e-19)
(0.000847175 -9.31924e-06 -2.79068e-19)
(0.00088412 0.000126452 -6.8373e-19)
(0.000717109 2.06076e-05 0)
(4.57668e-05 8.04198e-05 -1.71785e-19)
(0.000172576 0.000331384 1.08234e-18)
(0.000772904 3.90071e-05 3.16279e-23)
(0.00106332 0.000177123 -6.69957e-19)
(0.00106767 0.000118865 0)
(3.94331e-06 1.53277e-05 2.51343e-19)
(2.86984e-05 -2.31311e-05 -1.94546e-19)
(0.000724792 4.0155e-05 6.88493e-21)
(5.89802e-05 -0.000119511 0)
(0.00101645 0.000258817 9.51701e-19)
(0.00503003 0.00972913 -2.83127e-19)
(0.00311194 0.00963606 1.27017e-18)
(9.9702e-05 -0.0001242 -1.91594e-19)
(9.38227e-05 -8.62517e-05 1.86198e-18)
(0.00118113 0.000223092 1.67388e-19)
(0.00126823 0.00104337 2.34297e-19)
(0.000823377 1.65327e-05 -7.27542e-19)
(0.000217245 0.000922192 -2.39127e-19)
(0.000769648 0.000869723 -2.18792e-19)
(0.000728106 -2.66637e-05 0)
(0.000112355 0.000730082 0)
(9.98333e-05 0.000287715 -5.27314e-23)
(0.000805411 -1.42918e-05 -2.93212e-23)
(0.000818591 -8.82565e-06 1.51292e-19)
(0.00260599 0.00200014 -1.23121e-18)
(0.00175047 0.00925937 -1.16786e-19)
(0.00078269 3.58383e-05 4.84868e-19)
(0.00634758 0.00403552 -1.75564e-19)
(0.00648639 0.0106333 -2.45472e-20)
(0.0046465 0.00816916 9.85252e-21)
(0.00078324 8.18119e-05 -2.14837e-18)
(0.000811257 4.12506e-05 -1.2331e-23)
(1.79508e-05 -1.40414e-05 -3.48398e-19)
(5.07748e-05 0.000102802 -3.49713e-19)
(8.90371e-05 0.000285485 8.77048e-19)
(1.78231e-05 2.23744e-05 4.91013e-19)
(9.32557e-05 0.000243154 3.70188e-19)
(0.000812691 5.09521e-05 0)
(0.00528176 0.00922061 6.98632e-21)
(0.0014302 0.00062271 -2.62022e-20)
(0.000822596 1.88158e-05 3.51833e-19)
(7.48097e-05 -9.95485e-05 0)
(0.00190202 0.000678411 5.46353e-19)
(1.56176e-05 1.26581e-05 -2.70496e-19)
(4.12996e-05 3.62912e-05 9.73043e-20)
(0.00132057 0.0014134 6.3833e-19)
(0.000801716 2.7797e-05 1.79062e-19)
(1.54173e-05 -4.05411e-06 -1.70423e-19)
(0.00203494 0.0015172 -1.05467e-18)
(0.000130407 0.000191678 -8.18651e-19)
(0.00391591 0.00849646 -1.09172e-18)
(1.36582e-05 3.51346e-06 8.82534e-20)
(0.000224476 -0.000427782 -1.23829e-18)
(7.13197e-05 -6.16677e-05 4.06168e-20)
(0.00146494 0.000920139 0)
(0.00100172 0.000144236 -4.47481e-22)
(0.000422187 0.000854941 -4.02581e-20)
(0.000824918 1.9166e-05 -2.28967e-19)
(8.56731e-05 0.000199988 7.35056e-19)
(6.13076e-05 -7.58164e-05 4.04559e-19)
(2.40942e-05 2.0524e-05 -9.48296e-20)
(4.22818e-05 0.000108859 -3.20593e-19)
(0.000194708 -0.000360033 -5.3927e-19)
(0.00323073 0.00341658 2.58394e-21)
)
;

boundaryField
{
    back
    {
        type            empty;
    }
    ingreso
    {
        type            fixedValue;
        value           uniform (0.0008 0 0);
    }
    salida
    {
        type            zeroGradient;
    }
    front
    {
        type            empty;
    }
    defaultFaces
    {
        type            noSlip;
    }
}


// ************************************************************************* //
