/*--------------------------------*- C++ -*----------------------------------*\
  =========                 |
  \\      /  F ield         | OpenFOAM: The Open Source CFD Toolbox
   \\    /   O peration     | Website:  https://openfoam.org
    \\  /    A nd           | Version:  7
     \\/     M anipulation  |
\*---------------------------------------------------------------------------*/
FoamFile
{
    version     2.0;
    format      ascii;
    class       volScalarField;
    location    "7.5";
    object      p;
}
// * * * * * * * * * * * * * * * * * * * * * * * * * * * * * * * * * * * * * //

dimensions      [0 2 -2 0 0 0 0];

internalField   nonuniform List<scalar> 
591
(
0.000126077
0.000126086
0.000126139
0.000126049
0.000126055
0.000126326
0.000126134
0.000126105
0.000118942
0.000126101
0.000126248
0.000124941
0.000126294
0.000121771
0.000126097
0.000126112
0.000125971
0.000126132
0.000124003
0.00012543
0.000126076
9.4925e-07
0.000126242
0.000126043
0.000126192
0.000126073
0.000126109
0.000126153
0.00012608
0.000126165
0.000126211
0.000126189
0.00012621
0.000126207
0.000126213
0.000125579
0.000126207
0.000126096
0.000126228
0.000126139
0.00012609
0.000126204
0.000126099
0.000126132
0.0001262
0.000126215
0.000121325
0.000126219
0.000126064
0.000126214
0.000126142
0.000126185
2.74846e-05
3.32841e-05
4.94598e-05
0.000126166
0.000126222
0.000126202
0.000126216
0.000126033
0.000126125
0.000126068
0.000126082
0.000126354
0.000124622
0.000126087
0.000126099
0.000126216
0.000122677
0.000126155
0.000126083
0.000126219
0.00012617
0.000126202
0.000126206
0.00012618
0.000126048
0.000126216
0.000126047
0.000125981
0.000125848
0.000126221
0.00012619
0.000126139
0.000126228
0.000126063
0.000126148
0.000126212
0.000126181
0.000125947
0.000126195
0.000126109
0.000126137
0.000126064
0.000126227
0.00012618
0.000125785
0.000125656
0.00012579
0.000126229
0.000126155
0.000126096
0.000126232
0.000126051
0.000126228
0.000126102
0.000126102
0.000126171
0.000126234
0.00012623
0.000126129
0.000126197
0.000126063
0.00012621
0.000126228
0.000126226
0.000126143
0.00012617
0.000125701
0.000126107
0.000126092
0.000126372
0.000126132
0.000126036
0.000126213
0.000122052
0.000126233
0.00012619
0.000125847
0.000126208
0.000126069
0.000125765
0.000126187
0.000126162
0.000126211
0.000126108
0.000124808
0.000126234
0.000126084
0.0001257
0.000125774
0.000126133
0.000126211
0.000126226
0.000126222
1.05535e-05
6.41013e-06
4.94108e-06
3.98368e-05
3.78116e-05
8.44521e-06
4.05167e-05
1.89798e-05
3.95697e-05
2.1098e-05
0.000126089
0.000126075
0.000126223
0.000126218
0.000126223
0.00012622
0.000126216
0.000126213
0.000126214
0.000126215
0.000126167
0.000126225
0.00012622
0.000126223
0.000126143
0.000125502
0.000126228
0.000124156
0.00012619
0.00012621
0.000126138
0.000126086
0.000126208
0.000126218
0.000126213
0.000125622
0.000124543
0.000125128
0.000125563
0.000126214
0.000126217
0.000126212
0.000126056
0.000126207
0.000125023
0.000125424
0.000126059
0.000126216
0.000125919
0.000126202
0.000126204
0.00012617
0.000125863
0.000126055
0.000126204
0.00012623
0.000126205
0.000125994
0.000126179
0.000126015
0.000126222
0.000126095
0.000126091
0.00012622
0.000125846
0.00012604
0.000126127
0.00012566
0.000126168
0.000125816
0.000126108
0.000126105
0.00012619
0.000125582
0.000126107
0.000126056
0.000126066
0.000126175
0.000125957
0.000126104
0.000126026
0.00012593
0.000126044
0.000126226
0.000125984
0.000126222
0.00012605
0.000126193
0.000126067
0.000126059
0.00012622
0.000125966
0.00012622
0.000125959
0.000126029
0.000126135
0.000126079
0.000126085
0.000126079
0.000125806
0.000126053
0.000126
0.000126182
0.000126093
0.000125897
0.000126166
0.000125411
0.000126073
0.000125318
0.000125189
0.00012609
0.000126001
0.000126096
0.000126089
0.000126009
0.000126219
0.0001261
0.000126165
0.000126086
0.000126107
0.000126117
0.000126165
0.000125843
0.000126219
0.000125883
0.000125743
0.000126119
0.000126201
0.000125765
0.000126223
0.00012611
0.000126143
0.000126179
0.000126123
0.000126046
0.00012583
0.000126053
0.000126105
0.000126086
0.000126109
0.000126198
0.000126204
0.000126216
0.000126017
0.000126088
0.000126194
0.000126214
0.000126209
0.000126051
0.000126228
0.000126082
0.000126181
0.000125952
0.000126219
0.000125978
0.000126195
0.0001261
0.000126068
1.48113e-05
2.53453e-05
0.000126035
0.000126106
0.000126224
0.000126005
0.000126221
0.000126099
0.000126218
0.000126201
0.00012597
0.000126193
0.000126056
0.000126217
0.000126119
2.45897e-07
0.000125866
0.000126195
0.000126192
0.000125949
0.000126032
0.00012605
0.000126188
0.000126008
0.000126214
0.000126103
0.000126131
0.000126185
0.000126054
0.000125978
0.00012601
0.000126091
4.93402e-05
0.000126204
0.000126185
0.000126078
0.000126213
0.000126133
0.000126103
0.000126072
0.000126027
0.0001262
0.00012633
0.000126002
0.000126075
0.000126012
0.000126219
0.000126022
0.000126048
0.000126101
0.000126176
2.32355e-05
3.07424e-05
3.58629e-05
1.27178e-05
0.000126036
3.48882e-05
2.93845e-05
0.000126212
2.24224e-05
2.03037e-05
3.94669e-05
1.05561e-05
4.16778e-05
8.50159e-06
4.32106e-05
6.46318e-06
4.48317e-05
4.44809e-06
3.83533e-05
2.66233e-05
3.2648e-05
1.82122e-05
0.000125903
0.000126221
0.000126118
0.000126117
0.000122832
0.000126374
0.000126216
0.000126188
0.000126032
0.000126221
0.000126207
0.000126207
0.000126204
0.000125991
0.000125987
0.000126189
0.000126193
0.000126045
0.000125937
0.000125898
0.000125494
0.000126009
0.000126233
0.00012621
0.000126033
0.000126237
0.00012595
0.000126037
0.000125898
0.000124943
0.000126204
0.000126213
0.000126231
0.000125939
0.000126069
0.000125907
0.000126095
0.000126022
2.957e-05
2.54127e-05
3.50229e-05
1.48436e-05
0.000126244
0.000125958
2.32272e-05
3.15575e-05
3.70457e-05
1.27426e-05
0.000126056
0.000126156
0.000126054
0.000126039
0.000126352
0.000126153
0.000125939
0.000126202
0.000126116
0.000125213
0.000126051
0.000126018
6.1211e-05
0.000125344
0.000126225
0.000126083
0.000125982
0.000126213
0.000126216
0.00012608
0.000125846
0.000126108
0.000126126
0.00012591
0.00012617
0.000125039
0.000126033
0.000126035
0.000126155
0.000102634
0.000125989
0.000125609
0.000126005
0.000126232
0.000125911
1.40263e-05
2.45501e-05
3.69135e-05
3.13095e-05
1.68903e-05
3.11121e-06
4.42271e-05
5.59972e-06
4.27076e-05
7.67564e-06
4.20921e-05
9.78301e-06
4.09617e-05
1.19176e-05
3.90838e-05
1.68826e-05
3.42262e-05
3.30702e-05
2.73924e-05
2.86969e-05
2.10434e-05
1.61053e-05
1.89658e-05
0.000126219
0.000104433
0.000126037
0.00012601
0.000126224
0.000126123
0.000126231
0.000125967
0.00012634
0.000126199
0.000126192
0.000126434
0.000125956
0.000126283
0.00012593
0.000126156
0.000126031
0.000126224
0.000126049
0.000125906
0.000125898
0.0001263
0.00012639
0.000126237
0.000126222
0.000126224
0.000126191
0.000126226
0.00012586
0.000126061
0.000126226
0.000126003
0.000126381
0.000126076
0.000126069
0.000125943
0.000126195
0.000126197
0.000125526
0.000123458
0.000125188
0.00012578
0.000126022
0.000125912
0.000126347
0.000126226
0.000126175
0.000126144
0.000125668
0.000125698
0.000126226
0.000126198
0.000126122
0.000126156
0.000125696
6.00399e-05
4.18332e-05
0.000126163
0.000126181
0.00012554
0.000124871
0.000126093
0.000125718
0.000125499
0.000126325
0.000125943
0.000126196
0.000126045
0.000126121
0.000121108
5.61339e-05
0.000126141
8.30094e-05
2.94616e-06
1.62485e-06
0.000126068
0.000126074
0.000126197
0.000126227
0.000126215
0.000126228
0.00012621
0.00012607
-3.3239e-07
0.000124969
0.000126112
0.000126172
0.000123983
0.000126225
0.000126223
0.000124401
0.000126164
0.000126199
0.000123826
0.000126219
7.83173e-05
0.000126224
0.000125586
0.000126185
0.000124471
0.000125773
0.000125789
0.000126113
0.000126221
0.000126181
0.000126223
0.000126246
0.000126026
0.000118244
)
;

boundaryField
{
    back
    {
        type            empty;
    }
    ingreso
    {
        type            zeroGradient;
    }
    salida
    {
        type            fixedValue;
        value           uniform 0;
    }
    front
    {
        type            empty;
    }
    defaultFaces
    {
        type            zeroGradient;
    }
}


// ************************************************************************* //
