/*--------------------------------*- C++ -*----------------------------------*\
  =========                 |
  \\      /  F ield         | OpenFOAM: The Open Source CFD Toolbox
   \\    /   O peration     | Website:  https://openfoam.org
    \\  /    A nd           | Version:  7
     \\/     M anipulation  |
\*---------------------------------------------------------------------------*/
FoamFile
{
    version     2.0;
    format      ascii;
    class       volVectorField;
    location    "7.5";
    object      U;
}
// * * * * * * * * * * * * * * * * * * * * * * * * * * * * * * * * * * * * * //

dimensions      [0 1 -1 0 0 0 0];

internalField   nonuniform List<vector> 
591
(
(0.000814508 -4.86185e-05 1.22415e-18)
(0.000740301 -4.69771e-05 -6.73143e-19)
(0.000832769 -5.4497e-05 5.77591e-20)
(0.000819515 1.5461e-05 -1.50313e-19)
(0.000814154 2.31093e-05 2.27325e-19)
(0.000636787 -1.16062e-05 -1.40995e-19)
(0.000501251 -0.000374072 8.07845e-19)
(0.000807691 -1.30922e-05 2.11786e-18)
(0.00570247 0.00248186 1.00382e-18)
(0.000780332 -2.70853e-05 2.4342e-18)
(7.26937e-05 0.000180343 1.23393e-18)
(0.000885924 0.00123315 9.57133e-21)
(0.000767667 1.54611e-05 1.31166e-18)
(0.0015056 0.002373 -7.99224e-19)
(0.000799331 7.55482e-05 -4.47073e-19)
(0.000183069 -0.000256025 3.59173e-22)
(0.000127371 0.000652149 7.16619e-19)
(0.000864054 2.98468e-05 -5.00964e-19)
(0.00200316 0.000436645 4.76531e-19)
(0.00131418 0.000320791 -2.52744e-19)
(0.000797681 4.13189e-05 3.72001e-19)
(0.00392358 0.00761014 3.33885e-20)
(4.43243e-05 8.05939e-05 2.75265e-19)
(0.000807039 3.98698e-06 -4.51478e-19)
(2.12293e-05 -2.74147e-05 3.65068e-19)
(0.000809474 2.06868e-05 0)
(8.9764e-05 0.000474299 1.62625e-19)
(0.000503748 3.4984e-05 -1.8196e-19)
(0.000713881 7.6044e-05 1.15209e-18)
(0.000818449 -6.95916e-05 5.99042e-19)
(7.13631e-05 1.55724e-06 2.87e-24)
(5.31515e-05 -5.75275e-05 3.58298e-19)
(4.99922e-05 -5.36421e-06 -4.71958e-20)
(6.0117e-05 -6.68094e-06 0)
(6.49471e-05 -1.73792e-05 1.14867e-18)
(0.00114896 0.000155574 1.83522e-19)
(4.41924e-05 -8.6362e-06 4.54926e-20)
(0.000803127 5.1076e-06 3.97392e-23)
(4.18515e-05 5.66445e-05 2.7026e-19)
(8.74441e-05 -0.000161051 -8.68836e-19)
(0.000503541 -0.000144696 9.72803e-19)
(3.72299e-05 -1.12984e-05 4.62733e-20)
(0.000792017 -1.11159e-05 -1.57179e-18)
(0.000818104 -1.6513e-05 -6.82697e-19)
(2.77395e-05 -1.34765e-05 0)
(6.69383e-05 1.31772e-05 8.66648e-20)
(0.00127534 0.00455991 9.08678e-19)
(8.96472e-05 2.66139e-05 8.78594e-20)
(0.000786575 8.3474e-05 0)
(0.000353648 -0.000106789 6.89963e-19)
(0.000364054 0.000281677 5.20708e-21)
(0.000381178 8.99765e-05 -1.0212e-18)
(0.00610063 0.00974249 -8.79939e-19)
(0.00627675 0.00998663 1.10364e-20)
(0.00567865 0.0105292 1.50962e-18)
(0.000799993 -7.4455e-05 0)
(7.7929e-05 4.14211e-05 0)
(0.000344981 3.05521e-05 6.01242e-24)
(7.61712e-05 1.80204e-05 -3.52384e-19)
(0.000913659 -2.18037e-05 0)
(0.000590496 2.70381e-05 3.22319e-19)
(0.000757268 4.05184e-05 2.20169e-18)
(0.000735536 -8.63928e-06 -5.46344e-19)
(0.000650863 1.39671e-05 -3.18178e-19)
(0.00170049 0.000533412 5.53975e-19)
(0.000805511 -1.02491e-05 -1.14314e-18)
(0.00076299 3.28462e-05 -5.20221e-19)
(9.93937e-05 7.69017e-06 -1.76343e-19)
(0.000794621 0.00234084 0)
(0.000801996 1.48584e-05 0)
(0.000697909 1.42381e-05 -1.39102e-18)
(4.70224e-05 2.17743e-05 0)
(0.000276582 0.000277261 3.32456e-19)
(5.6362e-05 -2.36544e-05 0)
(5.42054e-05 -8.29601e-06 1.62231e-19)
(4.18019e-05 -6.31107e-05 -3.42447e-20)
(0.000745861 3.27429e-05 2.46466e-19)
(5.40788e-05 1.57829e-05 0)
(0.000768107 8.3594e-05 4.47301e-19)
(0.000732862 0.000302065 2.1442e-19)
(0.000951177 6.25332e-05 -4.0512e-20)
(5.22401e-05 3.05888e-05 -4.59697e-20)
(6.16583e-06 -5.37481e-05 0)
(0.000412133 0.000227106 1.73111e-19)
(4.03272e-07 4.16315e-05 0)
(0.000712917 -5.13376e-05 -6.08662e-19)
(0.000532887 -9.20735e-05 0)
(7.94573e-05 4.53663e-06 -1.7746e-19)
(4.03858e-06 -7.05635e-05 0)
(0.000794301 0.000233529 -3.47256e-19)
(4.28424e-06 -3.37276e-05 0)
(0.000407772 0.000322193 -1.22261e-23)
(0.000496497 0.000118202 0)
(0.000787281 2.98887e-05 1.31664e-23)
(2.45628e-06 2.87613e-05 -4.2902e-20)
(0.00042079 2.38837e-05 1.79425e-18)
(0.00100215 7.96671e-05 4.23629e-20)
(0.00105363 1.69246e-05 6.52618e-22)
(0.000727323 0.000639894 2.72004e-19)
(5.08504e-07 7.68444e-05 0)
(7.69126e-06 -0.000143123 -3.17649e-19)
(1.48644e-05 -0.000240912 -1.11952e-18)
(-2.97391e-06 0.000117581 -6.05792e-19)
(0.000782343 -2.79464e-06 0)
(-1.73035e-06 0.000147789 0)
(0.000770385 -2.47266e-05 2.19073e-18)
(0.000708655 6.2836e-05 1.5188e-18)
(0.000390391 -2.55173e-05 0)
(6.27488e-05 0.000237461 -9.08065e-19)
(-5.12739e-07 0.000230589 5.03893e-19)
(0.000104517 0.000512332 6.35772e-19)
(0.000277053 0.000143898 -9.48133e-19)
(0.000836776 -1.6918e-05 1.37018e-19)
(0.000272133 9.09548e-06 5.40114e-19)
(-5.49463e-08 5.50707e-05 0)
(6.92429e-05 0.000332666 -1.10656e-18)
(0.000308468 0.000329443 -1.64477e-19)
(8.41068e-06 -0.000104342 1.49106e-19)
(0.000620952 0.000748779 0)
(0.000349625 0.000387433 5.84267e-20)
(0.000818626 -9.67875e-07 1.04928e-18)
(0.00064449 -8.05925e-05 -2.73741e-18)
(5.30629e-06 -0.0001915 0)
(0.000799409 -9.9298e-06 -1.13166e-19)
(0.000312568 -3.49933e-05 1.26504e-18)
(0.00275858 0.000831842 -3.41081e-19)
(-1.09525e-05 0.000180236 -6.22803e-19)
(-3.01773e-05 0.000227017 1.64506e-18)
(0.000917997 1.86747e-05 -3.95513e-20)
(7.71029e-05 -1.61117e-06 -7.62262e-19)
(0.000769253 5.08604e-05 -3.95311e-19)
(0.00097527 2.57806e-05 -4.17197e-20)
(8.73883e-05 0.000414549 -6.06445e-19)
(0.000459149 8.60833e-05 -5.02476e-19)
(6.23545e-05 -1.25592e-06 1.58835e-19)
(0.000847633 -3.43619e-05 -1.07619e-18)
(0.00165281 0.000241936 -1.14596e-18)
(-3.65987e-06 8.96626e-05 5.04348e-19)
(0.00077262 9.87479e-08 -5.08623e-19)
(0.00086697 0.000529259 -7.98738e-20)
(0.000143901 0.000911171 0)
(0.000539058 7.00511e-05 0)
(0.000258288 6.48668e-05 -1.63011e-18)
(7.10762e-05 6.91329e-05 -1.39788e-18)
(3.80567e-05 2.66508e-05 0)
(0.00433162 0.00815857 -1.34432e-20)
(0.00433289 0.00811902 5.36537e-20)
(0.00452483 0.00827842 -3.49999e-20)
(0.00393246 0.0074834 0)
(0.00404247 0.00753853 5.18788e-19)
(0.00434181 0.00815274 -1.33727e-19)
(0.0037937 0.00761453 5.12345e-19)
(0.00426585 0.0081587 0)
(0.00382396 0.00825187 6.50244e-19)
(0.00425962 0.0081719 2.65231e-19)
(0.000807951 -2.06082e-05 -1.36289e-18)
(0.000715537 7.75414e-05 0)
(0.000219514 8.15256e-05 1.29922e-19)
(6.05752e-05 2.28695e-05 8.86963e-20)
(8.80533e-05 5.58367e-05 6.91797e-19)
(0.000117732 5.36873e-05 -3.47584e-19)
(0.00011316 1.88492e-05 0)
(5.93718e-05 9.25409e-06 8.32317e-20)
(0.000203478 0.00015064 0)
(0.000176625 6.66687e-05 -5.33422e-20)
(0.000329361 0.000232628 -5.17998e-21)
(6.40052e-05 5.31517e-05 -4.4524e-19)
(0.000102391 3.92258e-05 -8.67248e-20)
(9.97091e-05 7.38449e-05 1.33463e-21)
(0.000244503 0.000370647 -6.77605e-19)
(0.000167823 0.00112597 0)
(5.01632e-05 6.07747e-05 3.49005e-19)
(0.000217801 0.00185771 0)
(0.000204658 0.00026197 7.16767e-19)
(4.68895e-05 -8.00219e-06 1.13232e-19)
(0.00045535 0.000172288 -1.75263e-19)
(0.000787404 2.87609e-05 -1.88345e-18)
(5.37534e-05 1.28278e-06 4.84793e-24)
(0.000158814 4.572e-05 2.28288e-19)
(0.000236494 0.000116958 -9.14914e-20)
(0.000853319 0.000680212 3.40731e-19)
(0.000682195 0.00164759 -9.39407e-21)
(0.000430683 0.00133368 -9.60228e-21)
(0.000995483 0.000553335 0)
(0.000117437 -9.67294e-06 1.13742e-18)
(0.000131889 3.20481e-05 -4.50914e-20)
(0.000404796 -0.000198141 -1.15762e-18)
(0.000793551 4.37161e-05 0)
(0.000182699 4.90005e-05 3.68397e-19)
(0.000217238 0.00141729 0)
(0.00101421 0.000719667 -7.4282e-20)
(0.000800769 4.76606e-05 -1.85575e-19)
(9.84105e-05 -1.77448e-05 -3.05093e-19)
(0.000792302 0.000291048 -2.11665e-20)
(8.93853e-05 -2.46128e-05 -6.08056e-19)
(0.000225764 0.000186661 8.78564e-20)
(0.000223467 0.000312821 -3.5094e-19)
(0.000852359 0.00023035 0)
(0.000767622 2.08316e-05 0)
(0.00025918 0.000155721 1.79858e-19)
(0.000235844 2.73659e-05 2.73433e-24)
(0.000184737 0.000216203 0)
(0.000279797 0.000629998 -5.64377e-21)
(0.000323053 2.28622e-05 0)
(0.000310266 0.000576289 0)
(0.000118204 9.69567e-05 -1.36999e-21)
(0.000784574 -2.85132e-05 -9.51961e-19)
(0.000858157 -2.45993e-05 7.84576e-19)
(0.000137507 7.49518e-05 -1.52448e-19)
(0.000925623 0.000150008 8.66352e-20)
(0.000813834 4.97561e-05 3.32819e-19)
(0.000781053 3.04755e-05 -2.98686e-19)
(0.000970168 0.00040226 0)
(0.000417408 0.000128318 6.35252e-19)
(0.00086283 0.000312237 2.12774e-20)
(0.00053973 0.000170654 0)
(0.000277612 0.000432938 4.16665e-19)
(0.000253379 0.000230596 -8.58709e-20)
(0.0010781 0.000384694 -7.95703e-19)
(0.000578192 0.000122988 -1.82408e-19)
(0.000781213 0.000124836 -7.43009e-21)
(0.000804417 3.19713e-05 9.49733e-20)
(0.000120447 -9.78178e-05 -2.01508e-18)
(0.000712128 0.00036999 2.23056e-19)
(0.00061957 7.88718e-05 2.34424e-20)
(0.000674915 0.000270366 1.35084e-23)
(0.000695642 0.000435204 -4.16284e-19)
(0.000822049 3.00833e-05 9.13001e-20)
(7.91813e-05 9.35638e-05 0)
(0.000623137 0.000429011 -4.73896e-20)
(0.000184526 0.000117109 0)
(0.000361587 0.000515068 -2.68561e-19)
(0.000307988 0.00018475 0)
(0.000644986 0.000211615 3.61448e-19)
(0.000617285 0.000278002 -4.44886e-20)
(8.27963e-05 0.000110256 6.29018e-19)
(0.000898331 0.000108064 -1.59604e-18)
(6.84292e-05 3.01584e-05 2.61651e-19)
(0.000916559 8.45735e-05 -1.65037e-18)
(0.000740399 -5.42067e-06 1.62164e-19)
(0.000776829 -1.11804e-05 1.92209e-18)
(0.000790023 1.76441e-06 -1.33726e-19)
(0.000671388 7.4342e-05 0)
(0.000885207 1.73335e-05 8.99235e-19)
(0.000910477 0.000246172 -4.34304e-19)
(0.000736238 7.99466e-05 -4.86696e-19)
(0.000747265 0.000233956 -8.96753e-20)
(0.000253863 -8.38402e-05 -2.11508e-18)
(0.00070661 9.56532e-05 9.03231e-19)
(0.000579163 0.000573675 0)
(0.000141493 -8.51087e-05 0)
(0.00115409 0.000449828 5.03376e-19)
(0.000848356 -0.00021971 -3.28224e-18)
(0.0012335 0.000412492 5.80784e-19)
(0.00125576 0.000729486 -6.47094e-20)
(0.000784341 5.53836e-05 -2.14505e-19)
(0.000788584 9.6057e-05 -1.42566e-18)
(0.000760692 9.49599e-05 1.58101e-18)
(0.000748773 -5.04679e-05 9.73612e-20)
(0.000651009 0.000341755 -4.48093e-20)
(0.000113714 0.000154156 4.69661e-23)
(0.000683577 -7.15601e-05 2.69797e-19)
(0.000270212 -0.000157554 -7.49251e-19)
(0.00059122 0.000196609 0)
(0.000658586 2.61227e-05 9.98581e-20)
(0.000641883 5.49529e-06 -3.83189e-19)
(0.000371962 0.000186207 3.99174e-20)
(0.00075469 0.000493268 -1.68367e-19)
(0.000158657 9.55411e-05 1.48533e-25)
(0.00078573 0.000379368 0)
(0.000940487 0.000319755 4.22973e-20)
(0.000704042 -0.000116292 -6.26275e-19)
(0.000332279 0.000110761 5.04945e-19)
(0.000869536 0.000409683 0)
(5.86711e-05 3.97034e-05 1.36029e-19)
(0.000459012 0.00027328 2.1763e-19)
(0.000433926 -7.58086e-05 -7.21607e-19)
(0.000199688 -0.000122936 -1.07727e-18)
(0.000744384 -3.61674e-05 -4.8468e-19)
(0.000783545 -0.000110016 -1.95807e-19)
(0.000537638 0.000748545 -1.18394e-18)
(0.000814933 7.20983e-05 -6.72157e-20)
(0.000790313 -0.000111648 1.27857e-18)
(0.000648619 0.000101559 2.31761e-20)
(0.00050097 0.000223034 -1.68532e-19)
(4.68053e-05 -2.74202e-05 -8.90984e-20)
(0.000218053 -2.00615e-05 2.42998e-18)
(3.84494e-05 7.91411e-07 -1.98155e-19)
(0.000758685 7.81411e-05 3.64658e-19)
(0.000620931 0.000146997 0)
(0.000211361 -3.88395e-05 -1.06335e-18)
(0.000134018 1.78701e-05 3.17623e-19)
(0.000148479 -3.2695e-05 -1.82413e-23)
(0.000774494 0.000115414 -3.17562e-19)
(0.000159309 -4.86784e-06 0)
(0.000557371 0.000246775 0)
(0.000111537 0.00034149 -3.69081e-19)
(0.000804344 0.000157305 2.09794e-18)
(3.14554e-05 1.73304e-06 0)
(0.000792969 -3.09397e-05 0)
(5.84188e-05 -2.72108e-05 0)
(0.000836842 2.25471e-05 -4.45572e-21)
(0.000818175 -6.66367e-05 0)
(0.00430653 0.00816218 1.01192e-19)
(0.00420939 0.00814558 1.6126e-19)
(0.000832308 1.20404e-05 0)
(0.00073442 -6.83698e-05 8.26163e-19)
(0.000154576 0.000141765 1.51784e-19)
(0.000909783 6.12026e-05 8.01473e-19)
(0.000136222 0.00011945 2.3845e-20)
(0.000721741 -7.60397e-05 6.35111e-19)
(4.34816e-05 1.40883e-05 0)
(4.11753e-05 -1.95839e-05 -4.56268e-20)
(0.00085248 8.8087e-05 -4.85385e-19)
(5.26049e-05 -3.78952e-05 -6.81193e-19)
(0.000728683 0.000132397 -4.30714e-20)
(0.000167393 0.000176113 -1.91344e-19)
(0.000789911 1.66482e-05 0)
(0.00461853 0.00852171 1.90415e-21)
(0.00016289 0.000768691 3.39413e-19)
(0.000140572 -4.49194e-05 -9.2675e-19)
(8.0657e-05 -3.63913e-05 -1.18754e-18)
(0.000845881 2.13878e-05 1.92535e-20)
(0.000549358 0.000418976 0)
(0.000383757 0.000420811 -2.59958e-19)
(0.000125988 -4.46207e-05 1.20371e-18)
(0.000804029 5.95387e-06 7.83911e-20)
(5.22728e-05 1.89414e-06 4.13999e-19)
(0.000616348 -5.21979e-05 1.19212e-18)
(0.000770025 1.46799e-06 -6.06e-19)
(0.000100556 -5.33497e-05 1.73837e-18)
(0.00082282 9.44204e-06 3.35622e-24)
(0.000820903 1.69755e-05 -3.83169e-20)
(0.000811616 9.3697e-05 0)
(0.000755866 4.68117e-05 0)
(0.00579896 0.00719223 2.7191e-19)
(3.99707e-05 6.27398e-06 -1.2161e-19)
(0.000205587 -6.47007e-05 7.84104e-19)
(0.000696958 0.000116904 -7.08669e-19)
(4.46481e-05 -1.20813e-06 2.04868e-19)
(0.000553121 -1.46787e-05 -7.36431e-19)
(0.00067211 -2.4563e-05 1.55061e-18)
(0.000670674 0.000156228 -3.61607e-19)
(0.000787046 -6.57551e-05 3.63409e-19)
(0.000109135 -2.62975e-05 1.13524e-18)
(0.000650585 1.86253e-05 -3.25253e-19)
(0.000836125 7.51468e-05 0)
(0.000517114 0.000305447 4.28321e-20)
(0.000880687 1.9896e-05 -9.35226e-19)
(3.86875e-05 -5.40902e-06 9.26317e-19)
(0.000770678 -8.38081e-06 9.564e-19)
(0.000775482 -7.59165e-05 -9.67777e-19)
(0.000674846 3.25922e-05 -5.73764e-19)
(0.000471992 -3.35051e-05 -5.34813e-19)
(0.00423039 0.00815687 2.95205e-19)
(0.0042404 0.00816137 -3.85401e-19)
(0.00419639 0.00771723 3.39326e-19)
(0.00432295 0.00815771 3.21742e-19)
(0.00083063 7.0295e-06 1.45271e-19)
(0.00415651 0.00795424 0)
(0.00414108 0.00808267 -5.67414e-19)
(6.01134e-05 -6.49975e-07 -1.01339e-18)
(0.00420106 0.0082141 -5.91366e-20)
(0.00420313 0.00819281 -3.24747e-19)
(0.00633436 0.0104206 0)
(0.00603628 0.00974145 3.8943e-20)
(0.00624785 0.0104775 0)
(0.00603415 0.00973894 1.53619e-19)
(0.00614714 0.0105909 2.83873e-19)
(0.00600786 0.00972299 2.58467e-20)
(0.00601936 0.0106812 -8.18157e-19)
(0.00602885 0.00967717 2.91293e-20)
(0.00365938 0.00909879 -1.95492e-19)
(0.00419503 0.00821853 4.40058e-21)
(0.00429294 0.00805814 1.06876e-19)
(0.00421863 0.00820927 6.09249e-20)
(0.000842666 0.000173255 4.54558e-20)
(2.32991e-05 2.66349e-06 0)
(0.000624588 -0.00014787 0)
(0.000794625 3.38022e-05 0)
(0.00240039 0.00105662 4.29685e-21)
(0.000622099 -9.80352e-06 1.74195e-19)
(5.03509e-05 9.48715e-06 4.61795e-20)
(2.67636e-05 -3.24873e-05 1.68071e-18)
(0.000832457 3.32509e-05 0)
(3.51512e-05 1.76971e-05 -1.95052e-19)
(0.00014788 0.000233571 0)
(4.16308e-05 -1.14935e-06 0)
(3.46432e-05 -2.08203e-06 0)
(0.000794312 0.00013804 1.15442e-20)
(0.000852058 2.697e-05 1.78639e-19)
(3.76032e-05 0.000354827 1.96315e-22)
(0.000162293 0.000278839 -1.87358e-18)
(0.000584123 0.000346793 -8.71801e-20)
(0.00086334 0.000117806 6.03259e-19)
(0.00073475 -0.000549954 6.73112e-19)
(0.000312512 0.00109131 0)
(0.000473054 0.000518832 2.70008e-18)
(0.000104915 0.000149547 -1.82246e-18)
(4.74071e-05 6.16374e-07 0)
(0.000868861 -3.39391e-06 3.63439e-20)
(2.25879e-05 4.74586e-05 1.67311e-18)
(0.000884038 2.77448e-05 2.74481e-19)
(0.000122235 -0.000355681 3.84739e-18)
(0.000910896 4.56957e-05 -2.73854e-19)
(0.00154944 9.57583e-05 7.60745e-19)
(4.95051e-05 -1.39381e-05 8.39981e-20)
(4.62091e-05 1.10217e-05 -8.73145e-19)
(4.43716e-05 0.000170914 0)
(0.000853933 0.000115671 5.95977e-19)
(0.000472834 0.00037401 2.41209e-19)
(0.000873769 1.65609e-05 -3.93911e-20)
(0.000717251 -1.76631e-05 2.59971e-19)
(0.00064841 -0.000229823 0)
(0.00614124 0.00978552 -1.89585e-19)
(0.00609086 0.00972112 3.61211e-19)
(0.00637123 0.0101498 -6.58697e-19)
(0.00604835 0.00972434 -8.80949e-20)
(4.60503e-05 0.000117587 8.12544e-19)
(0.000870957 4.52201e-05 1.21681e-22)
(0.00608839 0.00972239 -3.45236e-19)
(0.00619661 0.00985126 6.0714e-19)
(0.00638719 0.0103207 -4.64997e-19)
(0.00604913 0.00973468 -6.81667e-20)
(0.000112422 0.000618919 -2.05464e-20)
(0.000202775 -0.000164452 -8.08697e-19)
(0.000875656 -1.32541e-06 -7.68442e-19)
(0.000697233 0.000215577 0)
(0.000664437 -2.27476e-05 0)
(0.000185471 0.000392356 3.42075e-19)
(0.000607288 0.000588865 -5.40116e-19)
(2.61099e-05 -3.33047e-06 1.81501e-19)
(0.000211312 0.00046322 -7.51086e-19)
(0.000988636 0.000952251 -1.14663e-19)
(0.00071461 0.000174426 0)
(0.000758584 0.000164619 1.32567e-19)
(0.00632351 0.00583992 1.17608e-18)
(0.000667797 0.00111271 8.42204e-20)
(4.7138e-05 4.66248e-05 -7.5762e-20)
(0.000848598 3.34953e-05 0)
(0.000861434 1.05097e-05 -3.59678e-20)
(4.62193e-05 7.52913e-06 -1.99987e-19)
(4.02497e-05 9.0324e-06 1.96246e-19)
(0.000803683 2.02383e-05 5.39547e-19)
(0.000945137 0.000112174 6.70112e-19)
(0.00077731 8.54494e-05 0)
(0.000260911 -0.000244433 -4.07683e-19)
(0.000865081 0.000135595 3.94824e-19)
(4.70205e-05 -9.11524e-05 2.06573e-19)
(0.00151525 0.000380556 -2.59246e-18)
(0.000790651 2.65973e-06 0)
(0.000765787 0.000123618 3.76081e-19)
(9.1166e-05 0.000407545 0)
(0.00105569 0.00818814 4.69787e-19)
(0.000464714 0.000517584 -1.22915e-18)
(0.000522459 0.000950538 -1.86919e-19)
(0.000852355 2.46219e-05 -1.47112e-19)
(2.18605e-05 3.37711e-05 0)
(0.000901016 7.73618e-05 6.14891e-19)
(0.00421188 0.00816933 9.1455e-20)
(0.00419166 0.00821296 4.54095e-20)
(0.00426351 0.00794036 4.73996e-19)
(0.00411807 0.00803567 -3.21891e-19)
(0.00605382 0.0097228 1.00582e-19)
(0.0042058 0.00809865 2.37142e-20)
(0.00534803 0.00784894 -5.86855e-19)
(0.00432601 0.00821021 5.23282e-21)
(0.00501298 0.00790747 5.44181e-19)
(0.00430474 0.00817016 -8.16834e-20)
(0.00472462 0.00783022 0)
(0.004271 0.00815819 -1.16177e-19)
(0.00449778 0.00781707 5.22334e-19)
(0.00424259 0.00816002 9.75729e-20)
(0.00435166 0.00786364 0)
(0.00428946 0.00816798 2.11654e-19)
(0.00430004 0.00790976 7.57472e-19)
(0.00411939 0.00801203 -4.95016e-19)
(0.00419163 0.00812767 5.00323e-19)
(0.00422827 0.00822112 3.6661e-19)
(0.0060834 0.00972385 -4.60035e-21)
(0.00420839 0.00818653 3.86741e-20)
(0.00607626 0.0097202 0)
(3.31048e-05 1.07113e-05 -1.93155e-19)
(0.00208162 0.00649249 2.33278e-19)
(0.000834121 4.25315e-06 1.1076e-19)
(0.000843729 2.03495e-05 0)
(4.79522e-06 5.2687e-06 -4.06042e-19)
(0.000121359 -0.000209428 7.02795e-19)
(2.27085e-05 7.09331e-05 2.12049e-18)
(0.000796066 0.00018871 -9.1663e-20)
(0.00064236 5.76948e-06 7.10554e-19)
(5.4647e-06 -6.1423e-06 3.15393e-19)
(2.95904e-05 -5.08089e-05 -1.87675e-18)
(0.000638876 6.92025e-06 1.64416e-19)
(0.000793526 0.00010842 -3.0404e-20)
(0.000639904 -4.51878e-06 1.49036e-19)
(0.000433138 0.00066295 0)
(0.000148867 -0.000150236 1.17164e-18)
(0.000829759 2.36224e-05 1.53477e-19)
(2.64204e-05 3.10077e-05 0)
(0.000100845 0.000556653 -6.4156e-19)
(0.000620059 0.000539022 1.30965e-18)
(0.000330741 0.000723528 0)
(0.000634611 -3.45926e-06 0)
(0.00064485 0.000109368 1.18194e-18)
(2.91838e-05 5.15407e-05 -3.5712e-18)
(2.43668e-05 1.22484e-05 3.80108e-19)
(0.000109356 0.000157466 0)
(7.02068e-05 -4.68471e-05 0)
(8.07801e-05 0.000126497 2.03952e-19)
(0.000886766 0.000182114 3.55719e-19)
(0.000756824 -7.90048e-05 -1.39606e-18)
(3.03611e-05 4.27193e-05 0)
(0.00063671 0.00012625 -6.10257e-20)
(0.000654352 9.18642e-06 -1.57662e-19)
(0.000880792 -4.87614e-06 1.05121e-18)
(0.000245465 0.00054406 6.4261e-19)
(0.000816207 0.000130216 0)
(3.90933e-05 -3.66001e-05 5.47834e-19)
(4.74001e-06 -1.93279e-05 -3.25488e-19)
(0.00118716 -1.94828e-05 0)
(0.000895143 0.00206695 0)
(0.00106263 -0.000163896 0)
(0.000961609 0.000192852 4.3446e-19)
(0.000867496 -5.16125e-06 -2.83403e-19)
(0.000879917 0.000128804 -6.87799e-19)
(0.000648994 3.90035e-05 0)
(4.69734e-05 8.08719e-05 -1.74564e-19)
(0.000172519 0.000331559 1.09973e-18)
(0.000773793 2.24946e-05 -3.23597e-23)
(0.00106202 0.000175874 -6.80729e-19)
(0.00106036 0.000122824 0)
(3.9039e-06 1.65624e-05 2.55388e-19)
(2.99157e-05 -2.3968e-05 -1.97664e-19)
(0.000754965 5.44534e-05 6.98985e-21)
(6.33437e-05 -0.000122703 0)
(0.00101157 0.000264283 9.66946e-19)
(0.00510017 0.00982684 -2.92617e-19)
(0.00298164 0.00962246 1.31647e-18)
(0.000104844 -0.00012535 -1.94675e-19)
(9.69828e-05 -8.77136e-05 1.89193e-18)
(0.00117044 0.000228654 1.70174e-19)
(0.00124891 0.00103257 2.38114e-19)
(0.000815702 2.0185e-05 -7.35637e-19)
(0.000218416 0.000914058 -2.42951e-19)
(0.00076673 0.000866418 -2.21508e-19)
(0.000666078 -4.4003e-05 0)
(0.000120267 0.000750596 0)
(0.00010066 0.000287423 -6.32974e-23)
(0.000841436 -1.22653e-05 -4.87154e-23)
(0.000829966 -2.38647e-05 1.5358e-19)
(0.00257955 0.001927 -1.26061e-18)
(0.00165195 0.00924587 -1.20944e-19)
(0.000746535 4.36418e-05 4.86925e-19)
(0.00624161 0.00402533 -1.84179e-19)
(0.0061164 0.0098992 -3.30952e-20)
(0.00465125 0.0084218 1.37854e-20)
(0.000759876 0.000114632 -2.18358e-18)
(0.000808989 4.03667e-05 -5.99418e-24)
(1.87324e-05 -1.50532e-05 -3.54005e-19)
(5.27016e-05 0.000103695 -3.55349e-19)
(9.17894e-05 0.000284024 8.9106e-19)
(1.85749e-05 2.33223e-05 4.9892e-19)
(9.53891e-05 0.000242848 3.76135e-19)
(0.000801693 6.70917e-05 0)
(0.00519492 0.00900942 -2.21994e-21)
(0.00138202 0.000604844 -2.6546e-20)
(0.000819285 1.58319e-05 3.59394e-19)
(7.90332e-05 -0.000101207 0)
(0.00192185 0.000644971 5.56028e-19)
(1.62583e-05 1.33893e-05 -2.74854e-19)
(4.20182e-05 3.70985e-05 9.88706e-20)
(0.00132088 0.00143096 6.4941e-19)
(0.0008388 2.84161e-05 1.81593e-19)
(1.66445e-05 -4.35097e-06 -1.73169e-19)
(0.00202722 0.00145582 -1.07634e-18)
(0.000131609 0.000192944 -8.30949e-19)
(0.00400901 0.00850883 -1.12234e-18)
(1.47466e-05 3.7537e-06 8.96743e-20)
(0.000220852 -0.000474122 -1.25544e-18)
(7.1936e-05 -6.20599e-05 4.12696e-20)
(0.00149027 0.0008756 0)
(0.00099497 0.000145586 -4.82319e-22)
(0.00041239 0.000850904 -4.09024e-20)
(0.000843577 1.94268e-05 -2.3267e-19)
(8.53976e-05 0.00020155 7.46671e-19)
(6.455e-05 -7.7227e-05 4.11077e-19)
(2.50495e-05 2.09843e-05 -9.63572e-20)
(4.36377e-05 0.000110221 -3.25719e-19)
(0.000210893 -0.000340623 -5.49267e-19)
(0.00326004 0.00343648 2.7891e-21)
)
;

boundaryField
{
    back
    {
        type            empty;
    }
    ingreso
    {
        type            fixedValue;
        value           uniform (0.0008 0 0);
    }
    salida
    {
        type            zeroGradient;
    }
    front
    {
        type            empty;
    }
    defaultFaces
    {
        type            noSlip;
    }
}


// ************************************************************************* //
