/*--------------------------------*- C++ -*----------------------------------*\
  =========                 |
  \\      /  F ield         | OpenFOAM: The Open Source CFD Toolbox
   \\    /   O peration     | Website:  https://openfoam.org
    \\  /    A nd           | Version:  7
     \\/     M anipulation  |
\*---------------------------------------------------------------------------*/
FoamFile
{
    version     2.0;
    format      ascii;
    class       volScalarField;
    location    "92.5";
    object      p;
}
// * * * * * * * * * * * * * * * * * * * * * * * * * * * * * * * * * * * * * //

dimensions      [0 2 -2 0 0 0 0];

internalField   nonuniform List<scalar> 
591
(
0.000123853
0.00012387
0.000123873
0.000123823
0.000123826
0.000123896
0.000123886
0.00012386
0.000116976
0.000123879
0.000124067
0.000122813
0.000123866
0.000119703
0.00012386
0.000123903
0.000123856
0.000123907
0.000121933
0.00012324
0.000123842
-3.52363e-06
0.000124063
0.000123843
0.00012402
0.000123866
0.000123979
0.000123977
0.00012388
0.000123887
0.00012404
0.000124014
0.000124034
0.000124033
0.000124035
0.000123354
0.00012403
0.000123844
0.000124057
0.000123978
0.000123925
0.000124027
0.000123874
0.000123898
0.000124024
0.000124044
0.000119208
0.000124048
0.000123878
0.000123995
0.000123997
0.000124026
2.39517e-05
3.05974e-05
4.7849e-05
0.000123871
0.000124052
0.000124043
0.000124046
0.000123852
0.00012394
0.00012387
0.000123867
0.000123918
0.000122544
0.00012387
0.000123873
0.000124043
0.000120706
0.000123885
0.000123878
0.000124049
0.000124023
0.000124028
0.000124034
0.000124011
0.000123847
0.000124046
0.000123849
0.000123788
0.000123623
0.000124051
0.000124012
0.000123993
0.000124058
0.00012386
0.000123947
0.000124041
0.000124005
0.000123752
0.000124016
0.000123965
0.000123977
0.000123852
0.000124056
0.000124009
0.000123554
0.000123453
0.000123625
0.000124062
0.000123972
0.000123896
0.000124068
0.000123818
0.000124068
0.000123871
0.000123868
0.000124012
0.000124061
0.000124064
0.000123954
0.000124039
0.000123885
0.000124042
0.00012406
0.000124044
0.000123999
0.000123994
0.00012356
0.000123966
0.000123871
0.000123863
0.000123968
0.000123849
0.000124026
0.000120175
0.000124068
0.000124046
0.000123621
0.000124035
0.000123861
0.000123546
0.000124006
0.000123997
0.000124038
0.000123876
0.000122606
0.000124065
0.000123863
0.000123552
0.000123622
0.000123961
0.000124049
0.000124059
0.000124052
7.62124e-06
3.68179e-06
2.07372e-06
3.81701e-05
3.67097e-05
5.66515e-06
3.83225e-05
1.57475e-05
3.7306e-05
1.78148e-05
0.000123871
0.000123862
0.000124056
0.000124048
0.000124055
0.000124055
0.000124047
0.000124043
0.000124056
0.000124054
0.00012402
0.000124056
0.000124051
0.000124058
0.000124
0.000123372
0.000124058
0.000122107
0.000124042
0.000124038
0.000123987
0.00012388
0.000124038
0.000124053
0.000124053
0.00012347
0.000122453
0.000123028
0.00012342
0.000124042
0.000124049
0.000123945
0.000123841
0.000124044
0.000122949
0.000123277
0.000123841
0.000124036
0.00012373
0.00012403
0.00012405
0.000124025
0.000123697
0.000123832
0.000124047
0.000124052
0.000124052
0.000123852
0.000124033
0.000123849
0.000124061
0.000123864
0.000123864
0.000124057
0.000123656
0.000123833
0.000123874
0.000123515
0.000124009
0.000123661
0.00012395
0.000123967
0.00012404
0.000123427
0.000123937
0.000123826
0.000123825
0.000124011
0.000123771
0.000123921
0.000123838
0.000123752
0.000123817
0.000124061
0.000123817
0.000124059
0.000123912
0.000124038
0.00012388
0.000123882
0.000124064
0.000123767
0.00012405
0.000123756
0.000123805
0.000123869
0.000123848
0.000123886
0.000123872
0.000123643
0.000123845
0.0001238
0.000124014
0.000123864
0.000123723
0.000124005
0.00012327
0.000123835
0.000123161
0.000123048
0.000123855
0.000123819
0.000123858
0.000123854
0.000123829
0.000124063
0.000123901
0.000123978
0.000123916
0.000123905
0.000123918
0.000124016
0.000123665
0.000124059
0.0001237
0.000123588
0.000123889
0.000124036
0.000123612
0.000124053
0.000123963
0.000123974
0.000124005
0.00012388
0.000123855
0.000123694
0.000123814
0.000123851
0.000123897
0.000123958
0.000124023
0.000124041
0.000124046
0.000123798
0.000123907
0.000124033
0.000124041
0.000124035
0.000123823
0.000124048
0.000123922
0.000124034
0.000123784
0.000124049
0.000123772
0.000124026
0.000123911
0.000123855
1.16469e-05
2.19199e-05
0.000123795
0.000123877
0.000124061
0.000123804
0.000124061
0.000123887
0.000124048
0.000124026
0.000123754
0.00012402
0.000123845
0.000124059
0.000123879
-2.09411e-07
0.000123754
0.00012403
0.000124026
0.000123713
0.000123874
0.000123917
0.00012402
0.000123768
0.000124042
0.000123921
0.000123872
0.000124018
0.000123817
0.000123743
0.00012378
0.000123881
4.74968e-05
0.000124037
0.000124016
0.000123871
0.000124044
0.000123949
0.000123892
0.000123876
0.00012386
0.000124029
0.000123887
0.000123792
0.000123925
0.000123797
0.000124042
0.000123804
0.000123864
0.000123898
0.000123983
1.98803e-05
2.73427e-05
3.4305e-05
9.64366e-06
0.000123844
3.30636e-05
2.60097e-05
0.000124039
1.90811e-05
1.70363e-05
3.81947e-05
7.57995e-06
3.99465e-05
5.608e-06
4.08406e-05
3.69126e-06
4.28228e-05
1.87783e-06
3.64196e-05
2.32061e-05
2.94593e-05
1.49982e-05
0.000123728
0.00012405
0.000123912
0.000123923
0.000120873
0.000123963
0.000124045
0.000124016
0.000123809
0.000124051
0.000124055
0.000124031
0.000124028
0.000123787
0.00012386
0.000124039
0.000124045
0.00012388
0.000123742
0.000123826
0.000123387
0.000123839
0.000124066
0.000124035
0.000123872
0.000124058
0.000123714
0.000123901
0.000123673
0.000122829
0.00012403
0.000124041
0.000124065
0.000123729
0.000123924
0.000123672
0.000123886
0.000123878
2.60514e-05
2.1885e-05
3.30451e-05
1.1623e-05
0.000124068
0.000123721
1.98269e-05
2.82635e-05
3.56117e-05
9.59234e-06
0.000123888
0.000123973
0.000123832
0.000123842
0.000123862
0.000124006
0.000123796
0.000124025
0.000123972
0.000123082
0.000123844
0.000123811
5.93859e-05
0.000123207
0.000124056
0.000123856
0.000123746
0.000124045
0.000124047
0.000123835
0.000123636
0.000123867
0.000123915
0.000123719
0.000124002
0.000122879
0.000123793
0.000123818
0.000124015
0.000100869
0.000123861
0.000123468
0.000123781
0.000124056
0.000123683
1.09007e-05
2.11223e-05
3.5377e-05
2.82001e-05
1.36673e-05
5.66212e-08
4.20939e-05
2.69249e-06
4.01688e-05
4.76517e-06
3.94268e-05
6.81845e-06
3.86341e-05
8.86165e-06
3.72999e-05
1.36791e-05
3.17373e-05
3.05934e-05
2.39452e-05
2.52859e-05
1.77717e-05
1.29435e-05
1.57135e-05
0.00012405
0.000102392
0.000123843
0.000123772
0.000124053
0.000123944
0.00012406
0.000123772
0.0001239
0.000124021
0.000124017
0.000124019
0.000123771
0.000123867
0.000123783
0.000123979
0.000123803
0.000124054
0.000123928
0.000123758
0.000123765
0.000123877
0.00012387
0.000124061
0.000124052
0.000124063
0.00012402
0.000124065
0.000123687
0.000123866
0.000124056
0.000123811
0.000123942
0.000123872
0.000123924
0.000123754
0.00012402
0.000124019
0.000123328
0.00012135
0.000123054
0.000123601
0.000123865
0.000123696
0.000123878
0.000124061
0.000124029
0.000123872
0.000123487
0.000123465
0.000124055
0.000124022
0.000123889
0.000123988
0.000123527
5.83189e-05
4.01296e-05
0.000123993
0.00012401
0.000123369
0.000122726
0.000123853
0.000123608
0.000123355
0.000123862
0.000123782
0.000124048
0.000123895
0.000123927
0.000118985
5.4477e-05
0.000123896
8.12592e-05
1.86286e-06
-3.80138e-07
0.000123862
0.00012383
0.000124022
0.000124063
0.000124055
0.000124054
0.000124058
0.000123848
-2.30672e-06
0.000122804
0.000123889
0.000123999
0.000121991
0.000124053
0.000124054
0.000122267
0.000123966
0.000124023
0.000121668
0.000124061
7.63376e-05
0.000124052
0.000123746
0.000124015
0.000122353
0.000123574
0.000123647
0.000123897
0.000124063
0.000124007
0.000124053
0.000124065
0.000123853
0.000116153
)
;

boundaryField
{
    back
    {
        type            empty;
    }
    ingreso
    {
        type            zeroGradient;
    }
    salida
    {
        type            fixedValue;
        value           uniform 0;
    }
    front
    {
        type            empty;
    }
    defaultFaces
    {
        type            zeroGradient;
    }
}


// ************************************************************************* //
