/*--------------------------------*- C++ -*----------------------------------*\
  =========                 |
  \\      /  F ield         | OpenFOAM: The Open Source CFD Toolbox
   \\    /   O peration     | Website:  https://openfoam.org
    \\  /    A nd           | Version:  7
     \\/     M anipulation  |
\*---------------------------------------------------------------------------*/
FoamFile
{
    version     2.0;
    format      ascii;
    class       volVectorField;
    location    "92.5";
    object      U;
}
// * * * * * * * * * * * * * * * * * * * * * * * * * * * * * * * * * * * * * //

dimensions      [0 1 -1 0 0 0 0];

internalField   nonuniform List<vector> 
591
(
(0.000835568 -9.95088e-06 1.21676e-18)
(0.000830196 -9.61048e-06 -6.62416e-19)
(0.000855199 1.28069e-05 5.7057e-20)
(0.000866108 -2.20944e-05 -1.49051e-19)
(0.000853082 -7.55115e-06 2.25493e-19)
(0.000803445 -3.90565e-05 -1.39594e-19)
(0.000565236 -0.00023935 8.06058e-19)
(0.000803867 4.44223e-06 2.10386e-18)
(0.00572631 0.00250921 9.8803e-19)
(0.000811941 -4.41549e-06 2.44789e-18)
(4.65306e-05 0.000162608 1.21809e-18)
(0.000937818 0.00139108 9.40832e-21)
(0.000801008 4.17486e-06 1.32288e-18)
(0.00160202 0.00240284 -7.8746e-19)
(0.000803333 1.54427e-06 -4.46096e-19)
(4.82827e-05 -0.000164328 2.24759e-22)
(0.00014011 0.000671833 7.04888e-19)
(0.000817718 7.7798e-05 -4.96963e-19)
(0.00190258 0.000392459 4.73835e-19)
(0.00135996 0.000255151 -2.47087e-19)
(0.000832079 -8.56297e-06 3.73149e-19)
(0.00340036 0.00655968 -8.14541e-20)
(2.39876e-05 6.51845e-05 2.70908e-19)
(0.000836169 -2.39236e-05 -4.5153e-19)
(7.25947e-06 -1.21904e-05 3.58867e-19)
(0.00078815 4.07237e-05 0)
(9.43569e-05 0.000468613 1.59951e-19)
(0.000567253 6.53336e-07 -1.78805e-19)
(0.000762545 4.6792e-05 1.14928e-18)
(0.000807334 6.74765e-05 5.84917e-19)
(5.08649e-05 -5.20934e-06 -4.66816e-24)
(2.39564e-05 -4.05329e-05 3.52122e-19)
(2.99321e-05 -2.64442e-06 -4.64152e-20)
(3.92399e-05 -1.22225e-05 0)
(4.79543e-05 -1.28962e-05 1.13128e-18)
(0.00117175 0.000138464 1.79874e-19)
(2.52235e-05 -4.41435e-06 4.47076e-20)
(0.000824619 6.37367e-07 3.15509e-23)
(2.38905e-05 3.94356e-05 2.65988e-19)
(-3.5277e-06 -6.92919e-05 -8.53646e-19)
(0.000656514 -0.000195391 9.58952e-19)
(1.96772e-05 -5.28814e-06 4.54756e-20)
(0.000811379 1.43951e-05 -1.58059e-18)
(0.000832234 4.91246e-05 -6.91026e-19)
(1.28391e-05 -6.00426e-06 0)
(4.94636e-05 4.45456e-06 8.5174e-20)
(0.00134834 0.00450311 8.92922e-19)
(6.95846e-05 1.14947e-05 8.63493e-20)
(0.000802189 1.63932e-05 0)
(0.000392146 -0.000227774 6.77144e-19)
(0.000388439 0.000267748 5.11846e-21)
(0.000402023 3.5731e-05 -1.00362e-18)
(0.00634762 0.0109405 -7.68815e-19)
(0.00622447 0.0107957 1.529e-20)
(0.00561433 0.0103784 1.45618e-18)
(0.00080628 4.39242e-05 0)
(6.22098e-05 2.63639e-05 0)
(0.000319429 -2.46745e-06 2.35552e-23)
(5.71862e-05 7.37292e-06 -3.46405e-19)
(0.000812678 -7.1989e-06 0)
(0.000657574 2.85863e-05 3.175e-19)
(0.000843574 2.36688e-05 2.20763e-18)
(0.000809415 3.75331e-05 -5.38231e-19)
(0.000800068 1.20531e-05 -3.15698e-19)
(0.00171327 0.000488037 5.42628e-19)
(0.00080847 2.901e-05 -1.14878e-18)
(0.000836682 3.29157e-05 -5.24057e-19)
(7.22341e-05 -6.38051e-06 -1.73385e-19)
(0.000689626 0.0022595 0)
(0.00084421 4.74405e-05 0)
(0.000789595 2.40718e-05 -1.3928e-18)
(3.4376e-05 1.37473e-05 0)
(0.000292374 0.00026462 3.26804e-19)
(3.37605e-05 -1.56916e-05 0)
(3.5688e-05 -5.56718e-06 1.59448e-19)
(7.68517e-06 -3.64702e-05 -3.36617e-20)
(0.000800864 7.87505e-05 2.4691e-19)
(3.99032e-05 8.68675e-06 0)
(0.000810031 5.54197e-05 4.47457e-19)
(0.00078035 0.000294833 2.10692e-19)
(0.000961614 6.70432e-05 -3.97783e-20)
(3.91008e-05 2.00108e-05 -4.51793e-20)
(3.92464e-06 -1.36438e-05 0)
(0.00044125 0.000211814 1.7016e-19)
(2.72574e-06 1.74374e-05 0)
(0.000804403 4.55458e-05 -6.07348e-19)
(0.000639522 -0.000116766 0)
(5.80218e-05 -4.19867e-06 -1.74453e-19)
(1.36048e-06 -1.89533e-05 0)
(0.000835005 0.000241384 -3.41198e-19)
(2.34845e-06 -7.73958e-06 0)
(0.000430702 0.000320322 -1.34518e-23)
(0.000542062 0.000108454 0)
(0.000814775 4.37149e-05 -3.04678e-24)
(2.27369e-06 1.05237e-05 -4.21647e-20)
(0.000469473 -2.54785e-05 1.7632e-18)
(0.00101951 7.29998e-05 4.15935e-20)
(0.000792328 4.67339e-05 6.41506e-22)
(0.000746183 0.000659244 2.6946e-19)
(6.90146e-06 4.05784e-05 0)
(-5.23076e-06 -2.30296e-05 -3.12185e-19)
(-3.63234e-05 -3.07839e-05 -1.10194e-18)
(4.90578e-06 6.67652e-05 -5.96276e-19)
(0.000597173 -2.75677e-05 0)
(9.02898e-06 9.03345e-05 0)
(0.000819455 3.29809e-05 2.18195e-18)
(0.000798491 3.43482e-05 1.53401e-18)
(0.000446108 -0.000107134 0)
(3.94609e-05 0.000209408 -8.9523e-19)
(9.50123e-07 0.000153924 4.96796e-19)
(5.69245e-05 0.000393437 6.25184e-19)
(0.00031042 6.86719e-05 -9.37037e-19)
(0.00080198 2.00168e-05 1.37393e-19)
(0.000257807 -6.59413e-05 5.31131e-19)
(4.21978e-06 2.58696e-05 0)
(1.9034e-05 0.000271782 -1.09399e-18)
(0.000325167 0.000319353 -1.61683e-19)
(-1.54586e-06 -1.78627e-05 1.46545e-19)
(0.000669877 0.000807679 0)
(0.0003735 0.000382208 5.74338e-20)
(0.00082384 2.70211e-05 1.07047e-18)
(0.000799716 1.71782e-06 -2.72418e-18)
(6.1585e-06 2.01114e-06 0)
(0.00066076 -4.00405e-05 -1.12291e-19)
(0.000323398 -0.000143903 1.24299e-18)
(0.00262445 0.000810264 -3.36524e-19)
(7.72946e-06 0.000119678 -6.13168e-19)
(8.09927e-06 0.000147741 1.61955e-18)
(0.000666021 2.51071e-05 -3.89751e-20)
(5.5686e-05 -1.59778e-05 -7.50049e-19)
(0.000811063 3.74768e-05 -3.89801e-19)
(0.000716244 2.73336e-05 -4.1046e-20)
(3.22151e-05 0.000318442 -5.97067e-19)
(0.000500483 5.4262e-05 -4.93853e-19)
(4.24904e-05 -4.22086e-06 1.56128e-19)
(0.000840907 3.92886e-05 -1.08894e-18)
(0.00153459 0.000234715 -1.13672e-18)
(5.06494e-06 5.36993e-05 4.96354e-19)
(0.000812784 3.5955e-05 -5.03439e-19)
(0.000922978 0.000552341 -7.84979e-20)
(0.000149361 0.000780546 0)
(0.000597918 6.27712e-05 0)
(0.000277872 4.25546e-05 -1.60931e-18)
(5.94679e-05 5.31112e-05 -1.37389e-18)
(2.75583e-05 1.79449e-05 0)
(0.00424758 0.00740062 -1.01996e-20)
(0.00422571 0.00737231 3.16768e-20)
(0.00442789 0.00757506 -4.98959e-21)
(0.00420578 0.0077336 0)
(0.00419826 0.0075994 5.77384e-19)
(0.00424456 0.00740177 -9.20657e-20)
(0.00420952 0.00804104 4.846e-19)
(0.00429027 0.00742303 0)
(0.00420787 0.00853392 6.16944e-19)
(0.00432683 0.00745166 2.24007e-19)
(0.000833458 1.96644e-05 -1.37269e-18)
(0.000781571 6.01302e-05 0)
(0.000210914 4.0537e-05 1.27683e-19)
(4.54988e-05 1.28274e-05 8.71711e-20)
(7.32159e-05 3.88745e-05 6.79917e-19)
(9.99168e-05 3.37282e-05 -3.41618e-19)
(9.21414e-05 -1.08226e-06 0)
(4.26606e-05 3.08385e-06 8.18243e-20)
(0.000207634 0.000122376 0)
(0.000160854 3.00236e-05 -5.24242e-20)
(0.000347467 0.000215659 -5.09189e-21)
(5.18373e-05 3.8168e-05 -4.37587e-19)
(8.4637e-05 2.07853e-05 -8.52343e-20)
(8.6012e-05 5.5037e-05 1.31175e-21)
(0.000260899 0.00036052 -6.66095e-19)
(0.000109818 0.000991931 0)
(3.89635e-05 4.78351e-05 3.4301e-19)
(0.000199312 0.00174243 0)
(0.000208743 0.000246804 7.04572e-19)
(3.17196e-05 -3.0716e-06 1.11478e-19)
(0.000492598 0.000160018 -1.72277e-19)
(0.000773826 2.64255e-05 -1.92381e-18)
(3.72998e-05 -1.69228e-06 4.65089e-24)
(0.000141236 1.46423e-05 2.24558e-19)
(0.000246245 8.1284e-05 -8.99198e-20)
(0.000882692 0.000696438 3.34899e-19)
(0.000727847 0.00163454 -9.23402e-21)
(0.000398087 0.00141931 -9.38514e-21)
(0.00102979 0.000547002 0)
(9.19647e-05 -2.03025e-05 1.11854e-18)
(0.000108025 6.53603e-06 -4.4294e-20)
(0.000470875 -0.000274283 -1.13615e-18)
(0.000823569 4.31149e-05 0)
(0.000176204 -1.39664e-05 3.63255e-19)
(0.000304741 0.0012983 0)
(0.00108854 0.000774489 -7.30102e-20)
(0.000827186 2.87522e-05 -1.86519e-19)
(6.71775e-05 -2.36159e-05 -2.99932e-19)
(0.000840083 0.000315208 -2.08012e-20)
(4.62301e-05 -2.11877e-05 -5.99397e-19)
(0.000227589 0.000166931 8.63768e-20)
(0.000231731 0.0003046 -3.44968e-19)
(0.000896451 0.000252392 0)
(0.000825016 5.67741e-05 0)
(0.000266655 0.000124192 1.76823e-19)
(0.00023252 -1.4768e-05 6.11522e-24)
(0.000184969 0.000198747 0)
(0.000305633 0.000646521 -5.55637e-21)
(0.000360011 -2.68024e-05 0)
(0.000381778 0.000598242 0)
(0.000104566 7.43943e-05 -1.3465e-21)
(0.000810694 3.12642e-05 -9.57203e-19)
(0.00080558 1.77606e-05 7.97763e-19)
(0.000124064 4.83697e-05 -1.49834e-19)
(0.000970975 0.000146179 8.50258e-20)
(0.000840836 3.90287e-05 3.33571e-19)
(0.000821844 3.38844e-05 -2.94036e-19)
(0.00103165 0.000420276 0)
(0.000447132 0.000110251 6.24332e-19)
(0.000911353 0.000323269 2.09102e-20)
(0.000590472 0.000151185 0)
(0.000274443 0.000444557 4.09594e-19)
(0.000262952 0.000209496 -8.4407e-20)
(0.0011029 0.000383724 -7.81985e-19)
(0.000638175 0.000102538 -1.79258e-19)
(0.000820477 7.58812e-05 -7.45827e-21)
(0.000845272 2.42997e-05 9.40109e-20)
(5.63685e-05 -8.58161e-05 -1.98102e-18)
(0.000745362 0.000379766 2.19203e-19)
(0.000683445 6.84182e-05 2.30606e-20)
(0.000715401 0.000279111 1.62134e-23)
(0.000738923 0.000461376 -4.09626e-19)
(0.000852543 1.81124e-05 9.06907e-20)
(6.84283e-05 7.27394e-05 0)
(0.000662765 0.000424199 -4.65853e-20)
(0.000181908 8.48337e-05 0)
(0.000374305 0.00050167 -2.64808e-19)
(0.000312004 0.000158784 0)
(0.00068401 0.000205747 3.55164e-19)
(0.000658637 0.000259479 -4.37179e-20)
(7.94996e-05 9.79823e-05 6.19063e-19)
(0.000884436 9.68294e-05 -1.63868e-18)
(5.26455e-05 1.82697e-05 2.57152e-19)
(0.000897075 7.36668e-05 -1.68625e-18)
(0.000848408 9.07069e-05 1.63035e-19)
(0.000814124 3.6743e-05 1.91239e-18)
(0.000821872 3.34857e-05 -1.32822e-19)
(0.00074515 7.06736e-05 0)
(0.000805375 2.01595e-05 8.95459e-19)
(0.000971724 0.000236535 -4.27018e-19)
(0.000786911 9.99335e-05 -4.83647e-19)
(0.000782864 0.000236967 -8.8106e-20)
(0.00019764 -0.000191735 -2.07566e-18)
(0.000761554 8.10472e-05 8.87372e-19)
(0.000643594 0.000592224 0)
(6.27201e-05 -0.000122117 0)
(0.00122918 0.000475288 4.97207e-19)
(0.000561318 -5.72956e-05 -3.2711e-18)
(0.0013542 0.000416435 5.76366e-19)
(0.0012534 0.000719113 -6.389e-20)
(0.000816696 3.38056e-05 -2.12718e-19)
(0.00084301 6.6806e-05 -1.42763e-18)
(0.000814725 2.77929e-05 1.58719e-18)
(0.000815573 2.15684e-05 9.77858e-20)
(0.000674725 0.00035347 -4.40334e-20)
(9.91684e-05 0.00011464 7.54582e-24)
(0.000763971 -3.05889e-05 2.64961e-19)
(0.000209025 -0.000261828 -7.31271e-19)
(0.000637797 0.000183013 0)
(0.000723636 5.07703e-05 9.90199e-20)
(0.000716431 9.57391e-06 -3.80736e-19)
(0.000395819 0.000164123 3.93305e-20)
(0.00081226 0.000510068 -1.65452e-19)
(0.000145251 6.59223e-05 3.73638e-25)
(0.00081913 0.000413217 0)
(0.000988468 0.000315801 4.15692e-20)
(0.000768094 -6.36121e-05 -6.16038e-19)
(0.000354567 9.51929e-05 4.97749e-19)
(0.000905084 0.000427898 0)
(4.50683e-05 2.74925e-05 1.3369e-19)
(0.000493441 0.000262345 2.13917e-19)
(0.000542263 -0.000169323 -7.09309e-19)
(9.86476e-05 -0.000174387 -1.05572e-18)
(0.000826787 3.96521e-05 -4.86627e-19)
(0.000762722 -6.67708e-05 -1.9449e-19)
(0.000549561 0.000729198 -1.17424e-18)
(0.000854741 4.65603e-05 -6.74497e-20)
(0.000574261 -1.20761e-05 1.28192e-18)
(0.000717057 9.95541e-05 2.27735e-20)
(0.000542679 0.000204442 -1.65659e-19)
(2.47905e-05 -1.91199e-05 -8.75712e-20)
(0.000152381 -5.8423e-05 2.40562e-18)
(1.31107e-05 5.63575e-07 -1.94823e-19)
(0.000841252 0.000118785 3.63675e-19)
(0.000679554 0.000134998 0)
(0.000172384 -0.00010806 -1.04802e-18)
(0.000112463 -2.65323e-05 3.1276e-19)
(9.42912e-05 -4.05372e-05 1.17673e-23)
(0.000809069 0.000105285 -3.19202e-19)
(0.0001459 -2.20857e-05 0)
(0.000595044 0.000238757 0)
(0.000111377 0.000323191 -3.62804e-19)
(0.000868161 0.000101545 2.10808e-18)
(1.06639e-05 7.65481e-07 0)
(0.000887578 5.25659e-05 0)
(3.62533e-05 -2.48848e-05 0)
(0.000815259 4.87576e-05 -4.46712e-21)
(0.000783881 -3.17118e-05 0)
(0.00426068 0.00740728 8.07386e-20)
(0.00436276 0.0074877 1.43697e-19)
(0.000843008 -1.57128e-05 0)
(0.000797004 -3.64617e-05 8.11954e-19)
(0.000151666 0.000116487 1.49187e-19)
(0.00086158 6.68673e-05 8.07971e-19)
(0.000127014 9.37538e-05 2.34359e-20)
(0.000790418 -2.195e-05 6.24142e-19)
(3.11144e-05 8.07753e-06 0)
(2.30714e-05 -1.16213e-05 -4.48408e-20)
(0.000906023 4.77051e-05 -4.86451e-19)
(2.5792e-05 -2.8656e-05 -6.69698e-19)
(0.000767764 0.000125971 -4.23155e-20)
(0.0001691 0.000154235 -1.88073e-19)
(0.000814106 3.15229e-05 0)
(0.00468252 0.00815361 9.0155e-22)
(0.000191871 0.000791425 3.33421e-19)
(0.000100498 -6.64706e-05 -9.14379e-19)
(5.12751e-05 -3.46995e-05 -1.1686e-18)
(0.000598311 1.31136e-05 1.89787e-20)
(0.000584783 0.000404466 0)
(0.000424458 0.000445329 -2.56296e-19)
(6.81047e-05 -6.36767e-05 1.18355e-18)
(0.000558892 -1.05427e-06 7.68298e-20)
(3.74174e-05 1.10606e-06 4.07027e-19)
(0.000721249 -4.36247e-05 1.17137e-18)
(0.00081278 3.26211e-05 -6.03872e-19)
(5.09253e-05 -5.40956e-05 1.70917e-18)
(0.000841432 -3.94747e-05 -6.13934e-24)
(0.000574382 6.31921e-06 -3.75539e-20)
(0.000875955 7.19625e-05 0)
(0.000845589 4.93812e-05 0)
(0.0059162 0.00724331 2.59918e-19)
(1.34467e-05 -2.90537e-06 -1.19575e-19)
(9.92336e-05 -0.000114159 7.72911e-19)
(0.000736153 0.000114742 -6.96295e-19)
(1.61025e-05 2.25209e-07 2.0151e-19)
(0.000647762 -3.62283e-05 -7.23656e-19)
(0.000753756 3.55508e-05 1.55771e-18)
(0.000713831 0.000157901 -3.55372e-19)
(0.000807416 -1.18017e-05 3.60845e-19)
(6.4735e-05 -3.65205e-05 1.1158e-18)
(0.000801414 6.48808e-06 -3.22623e-19)
(0.000873297 3.71737e-05 0)
(0.000549342 0.000301971 4.20947e-20)
(0.000866154 5.0062e-05 -9.47412e-19)
(1.41874e-05 2.85231e-06 9.11355e-19)
(0.000860343 4.23845e-05 9.65894e-19)
(0.000862447 2.25826e-05 -9.64507e-19)
(0.000763637 -1.42259e-07 -5.69049e-19)
(0.000544065 -8.19617e-05 -5.25538e-19)
(0.00432975 0.00745386 2.47666e-19)
(0.00422238 0.00752848 -2.78956e-19)
(0.00422068 0.00758603 2.66885e-19)
(0.00425632 0.00741114 1.9807e-19)
(0.000845121 -3.6299e-05 1.44242e-19)
(0.00447688 0.00751452 0)
(0.00440418 0.00751834 -3.87086e-19)
(2.2727e-05 -1.35521e-07 -9.98083e-19)
(0.00417027 0.00746872 -6.33922e-20)
(0.00414573 0.00743198 -2.21606e-19)
(0.00602919 0.0106051 0)
(0.00654029 0.011187 3.71679e-20)
(0.00600912 0.0105748 0)
(0.00655599 0.0112106 1.30989e-19)
(0.00599649 0.0105988 2.6974e-19)
(0.00659269 0.0112275 1.24741e-20)
(0.00593533 0.0106115 -7.76953e-19)
(0.00662296 0.0111465 8.16551e-21)
(0.00390345 0.00919766 -1.90841e-19)
(0.00418648 0.00748791 3.87501e-21)
(0.00423734 0.00755135 7.93905e-20)
(0.00415023 0.00743428 4.12214e-20)
(0.000892561 0.000195695 4.4665e-20)
(7.39719e-06 1.03449e-06 0)
(0.00072278 -0.000105631 0)
(0.000657851 5.63585e-05 0)
(0.00244481 0.00111714 4.2309e-21)
(0.000758258 -3.07178e-05 1.72543e-19)
(3.6097e-05 4.53638e-06 4.53986e-20)
(6.26134e-06 -2.25965e-05 1.65273e-18)
(0.000860097 6.75974e-06 0)
(2.48759e-05 1.08986e-05 -1.91697e-19)
(0.000139212 0.000217269 0)
(1.23057e-05 -8.45206e-07 0)
(9.65357e-06 -9.81761e-07 0)
(0.000834743 0.000147306 1.13746e-20)
(0.000811091 -1.8249e-05 1.79542e-19)
(3.81302e-05 0.000259847 -1.29375e-23)
(0.000156538 0.000267985 -1.84169e-18)
(0.000610375 0.000326497 -8.56871e-20)
(0.000901402 0.000112409 6.0204e-19)
(0.000611121 -0.000163381 6.74418e-19)
(0.000358789 0.00111416 0)
(0.000480664 0.000575397 2.71496e-18)
(8.85655e-05 0.000139599 -1.8029e-18)
(1.59615e-05 -2.03086e-07 0)
(0.00082252 -6.32407e-05 3.64122e-20)
(1.42677e-05 3.21988e-05 1.64424e-18)
(0.000895377 3.5304e-05 2.71089e-19)
(-3.07428e-05 6.43865e-05 3.8124e-18)
(0.000927051 4.14261e-05 -2.68958e-19)
(0.00133648 0.000153344 7.47198e-19)
(2.99123e-05 -9.72645e-06 8.25584e-20)
(3.16173e-05 2.4927e-06 -8.59002e-19)
(5.0788e-05 0.000135967 0)
(0.000918181 8.77309e-05 5.98339e-19)
(0.000498117 0.000366984 2.37113e-19)
(0.000622486 1.73743e-05 -3.88994e-20)
(0.000786218 3.15087e-06 2.57356e-19)
(0.000730899 -0.000147133 0)
(0.00632034 0.0108958 -1.68198e-19)
(0.00637872 0.0109732 4.0601e-19)
(0.00616002 0.0107302 -6.18627e-19)
(0.00650129 0.0111323 -8.10228e-20)
(3.2127e-05 0.000113427 8.00425e-19)
(0.000928505 6.13727e-05 1.44401e-22)
(0.00641134 0.0110057 -3.86628e-19)
(0.00628138 0.0108456 5.48509e-19)
(0.00608007 0.0106719 -4.16921e-19)
(0.00652181 0.0111647 -6.8179e-20)
(7.9023e-05 0.000493285 -2.01795e-20)
(5.32652e-05 -0.000194524 -7.92682e-19)
(0.000644757 -2.00925e-05 -7.66371e-19)
(0.000730041 0.000219563 0)
(0.000800297 1.78838e-07 0)
(0.000188879 0.000386647 3.36259e-19)
(0.000602366 0.000511014 -5.41798e-19)
(6.21252e-06 -1.08906e-06 1.7837e-19)
(0.000200036 0.000466979 -7.38313e-19)
(0.00102094 0.000979029 -1.12687e-19)
(0.000752139 0.000166191 0)
(0.00079426 0.000184941 1.30999e-19)
(0.00635054 0.00588311 1.13195e-18)
(0.000736724 0.00113096 8.26583e-20)
(3.59461e-05 3.49621e-05 -7.44582e-20)
(0.000807826 1.0686e-05 0)
(0.00087145 2.35343e-05 -3.56849e-20)
(3.01263e-05 2.27347e-06 -1.96702e-19)
(2.62385e-05 3.62145e-06 1.92973e-19)
(0.000834585 1.35606e-05 5.37119e-19)
(0.000982726 0.00011334 6.58282e-19)
(0.000540399 4.46495e-05 0)
(0.00022236 -0.000275886 -3.98156e-19)
(0.000919635 0.000143352 3.89523e-19)
(4.16718e-06 -4.93229e-05 2.02998e-19)
(0.00145377 0.000441997 -2.58102e-18)
(0.00056644 -1.22464e-05 0)
(0.000798876 0.00014236 3.75406e-19)
(9.5849e-05 0.000388399 0)
(0.0011886 0.00816132 4.62105e-19)
(0.000496324 0.000497826 -1.2244e-18)
(0.000540454 0.00101695 -1.83735e-19)
(0.000887111 1.46861e-05 -1.46032e-19)
(1.11589e-05 2.27473e-05 0)
(0.000959417 7.80213e-05 6.11526e-19)
(0.00410628 0.00739522 8.14731e-20)
(0.0041711 0.00747323 4.73343e-20)
(0.00450069 0.00751718 4.542e-19)
(0.00444578 0.00754296 -3.29229e-19)
(0.00647521 0.0111092 8.11001e-20)
(0.00391487 0.00714609 -9.45631e-22)
(0.00550799 0.00780007 -5.64888e-19)
(0.0040979 0.00737167 5.22053e-21)
(0.00518909 0.00785975 5.11822e-19)
(0.0040797 0.00734007 -4.87591e-20)
(0.00495435 0.00771925 0)
(0.00408497 0.00736438 -8.57146e-20)
(0.00474314 0.00759011 4.92656e-19)
(0.00409821 0.00737597 8.75663e-20)
(0.00457583 0.00752976 0)
(0.00428424 0.00742152 1.39813e-19)
(0.00423885 0.00759758 5.80544e-19)
(0.00446829 0.00752847 -5.54568e-19)
(0.00438841 0.00750578 3.71474e-19)
(0.0042275 0.00752444 3.22981e-19)
(0.00643053 0.0110425 -4.97725e-21)
(0.00411771 0.00740132 3.11765e-20)
(0.00645867 0.0110724 0)
(2.11575e-05 4.72373e-06 -1.89835e-19)
(0.00200097 0.00654622 2.28215e-19)
(0.000838185 -5.84261e-05 1.09725e-19)
(0.000853334 3.28014e-06 0)
(8.97534e-07 6.45942e-07 -3.99058e-19)
(-2.9249e-05 -9.2322e-05 6.91007e-19)
(2.34467e-05 5.30373e-05 2.08875e-18)
(0.000836097 0.000185331 -9.00544e-20)
(0.000801435 8.38014e-06 7.06271e-19)
(4.05521e-07 -1.78452e-07 3.09948e-19)
(1.4434e-05 -2.9426e-05 -1.84539e-18)
(0.000763639 2.67658e-05 1.63125e-19)
(0.00087179 0.000124923 -3.07933e-20)
(0.000800971 -7.40999e-06 1.48108e-19)
(0.000429914 0.000679405 0)
(1.39024e-05 -0.00013665 1.15125e-18)
(0.000872533 1.85887e-06 1.525e-19)
(1.83722e-05 2.16399e-05 0)
(0.000119043 0.000554939 -6.31199e-19)
(0.000612962 0.000586284 1.3178e-18)
(0.000331044 0.000756926 0)
(0.000802061 -1.49467e-05 0)
(0.000801732 3.04174e-06 1.17667e-18)
(1.55193e-05 4.56215e-05 -3.51452e-18)
(1.45389e-05 5.92832e-06 3.73573e-19)
(0.000116503 0.000138812 0)
(3.6759e-05 -3.89782e-05 0)
(5.94544e-05 0.000107691 2.00973e-19)
(0.000941865 0.000190378 3.50373e-19)
(0.000800761 1.46771e-05 -1.39665e-18)
(2.11345e-05 3.03459e-05 0)
(0.000421394 4.09046e-06 -6.04502e-20)
(0.000800125 3.60949e-05 -1.56324e-19)
(0.000848693 4.49629e-05 1.06497e-18)
(0.000254589 0.000542132 6.32165e-19)
(0.000883088 0.000157516 0)
(1.43851e-05 -2.03845e-05 5.3854e-19)
(1.61895e-06 -2.98387e-06 -3.19925e-19)
(0.000950777 3.40471e-05 0)
(0.00104573 0.0022696 0)
(0.000911064 1.22511e-06 0)
(0.00100638 0.00020858 4.27103e-19)
(0.000818492 -3.69443e-05 -2.84235e-19)
(0.000940348 0.000111516 -6.84656e-19)
(0.000801135 3.56283e-06 0)
(4.05657e-05 6.44388e-05 -1.71544e-19)
(0.000174702 0.000323684 1.08102e-18)
(0.000800645 1.34402e-05 -2.36394e-23)
(0.00110343 0.000209607 -6.68679e-19)
(0.0010888 0.000128644 0)
(1.99597e-06 4.33357e-06 2.50996e-19)
(1.50935e-05 -1.30315e-05 -1.9429e-19)
(0.000556308 4.58278e-05 6.94908e-21)
(-3.67077e-06 -6.45516e-05 0)
(0.0010733 0.000256561 9.49825e-19)
(0.00502868 0.0097482 -2.82996e-19)
(0.00312145 0.00961683 1.27275e-18)
(2.18148e-05 -9.54749e-05 -1.91299e-19)
(4.08753e-05 -7.15878e-05 1.85921e-18)
(0.00119049 0.000256001 1.67321e-19)
(0.0013307 0.00107645 2.34064e-19)
(0.000810644 2.54264e-06 -7.35873e-19)
(0.000197977 0.000949686 -2.38221e-19)
(0.000819066 0.000945327 -2.18562e-19)
(0.000800303 -2.13756e-06 0)
(8.20534e-05 0.000612952 0)
(9.45915e-05 0.000278153 -3.69976e-23)
(0.000719366 -4.69416e-05 -1.67416e-23)
(0.0008263 6.93036e-05 1.52579e-19)
(0.00263154 0.00206568 -1.2313e-18)
(0.00176042 0.00923781 -1.17224e-19)
(0.000834591 6.77804e-05 4.92228e-19)
(0.00632113 0.00405243 -1.76173e-19)
(0.00672092 0.0115574 -1.36642e-20)
(0.00473411 0.00784387 4.93693e-21)
(0.000804969 1.36437e-05 -2.16598e-18)
(0.000842139 1.85899e-06 7.28254e-24)
(6.04388e-06 -5.82624e-06 -3.47975e-19)
(4.54031e-05 8.47521e-05 -3.49235e-19)
(6.27637e-05 0.000262747 8.75157e-19)
(9.27636e-06 1.42078e-05 4.90345e-19)
(8.97098e-05 0.000224572 3.69725e-19)
(0.000820404 1.65099e-05 0)
(0.00534815 0.00949238 1.94943e-20)
(0.00154472 0.000638004 -2.61207e-20)
(0.000819435 3.94683e-05 3.60119e-19)
(1.98592e-05 -7.46963e-05 0)
(0.0018481 0.000749622 5.45961e-19)
(7.73649e-06 6.20606e-06 -2.70121e-19)
(3.13852e-05 2.58216e-05 9.71701e-20)
(0.00133457 0.00139809 6.36611e-19)
(0.000738719 4.96534e-05 1.83075e-19)
(2.4909e-06 -9.44423e-07 -1.70182e-19)
(0.00206364 0.00156272 -1.05578e-18)
(0.000126664 0.000173263 -8.18673e-19)
(0.00392045 0.00848784 -1.09091e-18)
(3.69672e-06 1.09657e-06 8.8132e-20)
(0.000103962 -5.76608e-05 -1.25805e-18)
(3.82239e-05 -5.46281e-05 4.05594e-20)
(0.00152967 0.000987744 0)
(0.00104251 0.000140035 -4.01567e-22)
(0.000453811 0.000847008 -4.02012e-20)
(0.000803279 2.76832e-05 -2.34041e-19)
(8.69631e-05 0.00017956 7.35987e-19)
(2.21996e-05 -5.53134e-05 4.03952e-19)
(1.67041e-05 1.35346e-05 -9.46987e-20)
(2.91745e-05 8.67298e-05 -3.20251e-19)
(0.000214463 -0.000188603 -5.45493e-19)
(0.00325025 0.00346597 2.9098e-21)
)
;

boundaryField
{
    back
    {
        type            empty;
    }
    ingreso
    {
        type            fixedValue;
        value           uniform (0.0008 0 0);
    }
    salida
    {
        type            zeroGradient;
    }
    front
    {
        type            empty;
    }
    defaultFaces
    {
        type            noSlip;
    }
}


// ************************************************************************* //
