/*--------------------------------*- C++ -*----------------------------------*\
  =========                 |
  \\      /  F ield         | OpenFOAM: The Open Source CFD Toolbox
   \\    /   O peration     | Website:  https://openfoam.org
    \\  /    A nd           | Version:  7
     \\/     M anipulation  |
\*---------------------------------------------------------------------------*/
FoamFile
{
    version     2.0;
    format      ascii;
    class       volScalarField;
    location    "90";
    object      p;
}
// * * * * * * * * * * * * * * * * * * * * * * * * * * * * * * * * * * * * * //

dimensions      [0 2 -2 0 0 0 0];

internalField   nonuniform List<scalar> 
591
(
0.000123849
0.000123866
0.000123869
0.000123819
0.000123822
0.000123892
0.000123883
0.000123855
0.000116969
0.000123876
0.000124059
0.000122806
0.000123862
0.000119698
0.000123856
0.000123899
0.000123849
0.000123903
0.000121928
0.000123235
0.000123838
-3.52483e-06
0.000124054
0.000123839
0.00012401
0.000123862
0.000123972
0.000123972
0.000123875
0.000123883
0.00012403
0.000124004
0.000124024
0.000124023
0.000124025
0.000123349
0.00012402
0.00012384
0.000124049
0.000123964
0.000123922
0.000124017
0.00012387
0.000123893
0.000124014
0.000124035
0.000119202
0.000124039
0.000123874
0.00012399
0.00012399
0.00012402
2.39459e-05
3.05921e-05
4.78416e-05
0.000123867
0.000124044
0.000124036
0.000124037
0.000123848
0.000123936
0.000123866
0.000123863
0.000123913
0.000122539
0.000123866
0.000123869
0.000124034
0.000120699
0.000123881
0.000123874
0.000124041
0.000124016
0.000124018
0.000124024
0.000124
0.000123843
0.000124037
0.000123845
0.000123783
0.000123619
0.000124042
0.000124001
0.000123987
0.00012405
0.000123856
0.000123943
0.000124032
0.000123993
0.000123747
0.000124006
0.000123959
0.000123972
0.000123848
0.000124048
0.000124004
0.00012355
0.000123449
0.000123619
0.000124054
0.000123959
0.000123871
0.000124059
0.000123815
0.000124061
0.000123867
0.000123864
0.000124007
0.000124053
0.000124056
0.000123947
0.000124033
0.000123881
0.000124036
0.000124052
0.000124037
0.000123992
0.000123981
0.000123553
0.000123959
0.000123867
0.000123859
0.000123949
0.000123845
0.00012402
0.000120171
0.00012406
0.000124038
0.000123616
0.000124026
0.000123857
0.000123542
0.000123999
0.000123991
0.000124029
0.000123872
0.0001226
0.000124057
0.000123859
0.000123546
0.000123616
0.000123956
0.000124042
0.00012405
0.000124043
7.61735e-06
3.67925e-06
2.0719e-06
3.81629e-05
3.67028e-05
5.66191e-06
3.83149e-05
1.57414e-05
3.72979e-05
1.78084e-05
0.000123867
0.000123858
0.000124049
0.000124039
0.000124047
0.000124046
0.000124038
0.000124033
0.000124049
0.000124046
0.000124013
0.000124047
0.000124043
0.00012405
0.000123993
0.000123365
0.00012405
0.0001221
0.000124035
0.000124028
0.000123981
0.000123876
0.000124029
0.000124045
0.000124045
0.000123464
0.000122447
0.000123022
0.000123414
0.000124033
0.000124041
0.000123941
0.000123837
0.000124037
0.000122942
0.000123271
0.000123837
0.000124027
0.000123725
0.00012402
0.000124043
0.000124018
0.000123692
0.000123828
0.00012404
0.000124045
0.000124045
0.000123845
0.000124027
0.000123842
0.000124053
0.00012386
0.00012386
0.000124049
0.000123652
0.000123828
0.00012387
0.00012351
0.000124003
0.000123656
0.000123944
0.00012396
0.000124032
0.000123422
0.000123932
0.000123822
0.000123821
0.000124001
0.000123765
0.000123916
0.000123833
0.000123746
0.000123813
0.000124053
0.000123811
0.000124051
0.000123905
0.000124031
0.000123874
0.000123876
0.000124056
0.000123762
0.000124041
0.000123752
0.000123801
0.000123865
0.000123844
0.000123882
0.000123868
0.000123638
0.000123841
0.000123795
0.000124008
0.00012386
0.000123717
0.000123995
0.000123265
0.00012383
0.000123157
0.000123043
0.000123851
0.000123815
0.000123854
0.00012385
0.000123824
0.000124055
0.000123897
0.000123973
0.000123911
0.000123901
0.000123913
0.00012401
0.000123659
0.000124051
0.000123695
0.000123583
0.000123885
0.000124029
0.000123607
0.000124044
0.000123957
0.00012397
0.000123997
0.000123876
0.000123851
0.000123687
0.000123809
0.000123847
0.000123892
0.000123952
0.000124013
0.000124033
0.000124037
0.000123794
0.000123902
0.000124027
0.000124032
0.000124026
0.000123819
0.00012404
0.000123916
0.000124027
0.00012378
0.00012404
0.000123767
0.000124015
0.000123907
0.000123851
1.16419e-05
2.19136e-05
0.000123791
0.000123873
0.000124054
0.0001238
0.000124054
0.000123883
0.000124039
0.000124016
0.00012375
0.00012401
0.00012384
0.000124051
0.000123875
-2.09611e-07
0.000123747
0.000124021
0.000124016
0.000123709
0.000123868
0.000123911
0.00012401
0.000123765
0.000124033
0.000123917
0.000123867
0.000124008
0.000123813
0.000123739
0.000123776
0.000123877
4.74869e-05
0.000124027
0.000124007
0.000123866
0.000124034
0.000123945
0.000123888
0.000123871
0.000123856
0.000124019
0.000123883
0.000123788
0.000123919
0.000123793
0.000124033
0.0001238
0.00012386
0.000123894
0.000123979
1.98735e-05
2.7311e-05
3.42986e-05
9.63916e-06
0.00012384
3.30586e-05
2.60174e-05
0.00012403
1.9074e-05
1.70299e-05
3.81878e-05
7.57613e-06
3.99395e-05
5.60481e-06
4.08334e-05
3.68875e-06
4.28154e-05
1.87601e-06
3.64114e-05
2.31954e-05
2.94456e-05
1.49922e-05
0.000123723
0.000124042
0.000123908
0.000123919
0.000120868
0.000123959
0.000124036
0.000124006
0.000123806
0.000124042
0.000124047
0.000124021
0.000124018
0.000123783
0.000123856
0.000124031
0.000124038
0.000123874
0.000123738
0.000123822
0.000123381
0.000123832
0.000124058
0.000124025
0.000123868
0.000124049
0.00012371
0.000123905
0.000123669
0.000122825
0.00012402
0.000124032
0.000124057
0.000123725
0.000123918
0.000123668
0.000123882
0.000123874
2.60527e-05
2.18783e-05
3.30381e-05
1.1618e-05
0.00012406
0.000123717
1.98202e-05
2.82598e-05
3.56049e-05
9.58791e-06
0.000123881
0.000123966
0.000123828
0.000123837
0.000123858
0.000123999
0.000123789
0.000124015
0.000123965
0.000123075
0.000123839
0.000123806
5.9375e-05
0.000123201
0.000124047
0.000123851
0.000123742
0.000124035
0.000124038
0.000123831
0.000123631
0.000123863
0.000123913
0.000123715
0.00012399
0.000122874
0.000123789
0.000123813
0.000124008
0.000100862
0.000123854
0.000123461
0.000123777
0.000124047
0.000123679
1.08958e-05
2.11142e-05
3.53702e-05
2.82098e-05
1.36617e-05
5.49754e-08
4.20854e-05
2.69008e-06
4.01611e-05
4.76206e-06
3.94193e-05
6.8147e-06
3.86268e-05
8.85724e-06
3.72928e-05
1.36735e-05
3.17301e-05
3.05938e-05
2.39411e-05
2.52633e-05
1.77654e-05
1.2938e-05
1.57075e-05
0.000124041
0.000102387
0.000123839
0.000123768
0.000124044
0.000123931
0.000124051
0.000123767
0.000123896
0.000124011
0.000124006
0.000124015
0.000123766
0.000123862
0.000123777
0.000123969
0.000123799
0.000124045
0.000123921
0.000123752
0.000123758
0.000123873
0.000123866
0.000124052
0.000124043
0.000124055
0.00012401
0.000124057
0.000123682
0.000123862
0.000124047
0.000123808
0.000123938
0.000123868
0.000123917
0.000123749
0.00012401
0.000124009
0.000123323
0.000121343
0.00012305
0.000123596
0.000123861
0.000123692
0.000123874
0.000124052
0.000124021
0.000123868
0.000123482
0.00012346
0.000124046
0.000124012
0.000123884
0.000123976
0.000123523
5.83119e-05
4.01222e-05
0.000123981
0.000124
0.000123364
0.00012272
0.000123849
0.000123601
0.000123349
0.000123858
0.000123775
0.000124041
0.000123891
0.000123923
0.000118979
5.44708e-05
0.000123891
8.12493e-05
1.86182e-06
-3.80971e-07
0.000123858
0.000123826
0.000124011
0.000124055
0.000124048
0.000124046
0.00012405
0.000123844
-2.30717e-06
0.000122798
0.000123885
0.000123988
0.000121986
0.000124044
0.000124045
0.00012226
0.000123962
0.000124013
0.000121662
0.000124053
7.63317e-05
0.000124043
0.000123741
0.000124004
0.000122347
0.000123569
0.000123641
0.000123893
0.000124055
0.000123996
0.000124044
0.000124057
0.000123854
0.000116148
)
;

boundaryField
{
    back
    {
        type            empty;
    }
    ingreso
    {
        type            zeroGradient;
    }
    salida
    {
        type            fixedValue;
        value           uniform 0;
    }
    front
    {
        type            empty;
    }
    defaultFaces
    {
        type            zeroGradient;
    }
}


// ************************************************************************* //
