/*--------------------------------*- C++ -*----------------------------------*\
  =========                 |
  \\      /  F ield         | OpenFOAM: The Open Source CFD Toolbox
   \\    /   O peration     | Website:  https://openfoam.org
    \\  /    A nd           | Version:  7
     \\/     M anipulation  |
\*---------------------------------------------------------------------------*/
FoamFile
{
    version     2.0;
    format      ascii;
    class       volScalarField;
    location    "33";
    object      p;
}
// * * * * * * * * * * * * * * * * * * * * * * * * * * * * * * * * * * * * * //

dimensions      [0 2 -2 0 0 0 0];

internalField   nonuniform List<scalar> 
591
(
0.000124029
0.000124046
0.000124058
0.000124018
0.000124019
0.000124101
0.000124085
0.000124051
0.000117051
0.000124058
0.00012422
0.000122947
0.000124072
0.000119818
0.000124052
0.000124101
0.00012399
0.000124087
0.000122071
0.000123435
0.000124022
-3.50904e-06
0.00012422
0.000124025
0.000124179
0.000124044
0.000124119
0.00012414
0.000124055
0.000124081
0.000124198
0.000124175
0.000124193
0.000124192
0.000124194
0.000123533
0.00012419
0.000124032
0.000124214
0.000124132
0.000124116
0.000124187
0.000124054
0.000124072
0.000124184
0.000124202
0.000119324
0.000124205
0.000124065
0.000124173
0.000124141
0.000124179
2.39482e-05
3.06162e-05
4.78937e-05
0.000124067
0.000124209
0.000124191
0.000124203
0.000124031
0.000124111
0.00012405
0.000124053
0.000124113
0.000122672
0.000124051
0.000124056
0.0001242
0.000120816
0.00012407
0.000124056
0.000124207
0.000124166
0.000124188
0.000124193
0.000124169
0.000124023
0.000124204
0.000124027
0.000123949
0.000123809
0.000124208
0.000124171
0.000124139
0.000124216
0.000124038
0.000124129
0.000124199
0.000124163
0.000123918
0.000124176
0.000124109
0.000124133
0.000124034
0.000124214
0.00012417
0.000123738
0.000123635
0.000123765
0.000124219
0.00012413
0.000124039
0.000124222
0.00012402
0.000124221
0.000124056
0.000124045
0.000124172
0.000124212
0.000124217
0.000124101
0.000124189
0.000124071
0.000124197
0.000124217
0.000124193
0.000124141
0.000124149
0.000123696
0.000124107
0.000124052
0.000124076
0.0001241
0.00012404
0.00012419
0.000120325
0.00012422
0.000124194
0.000123809
0.000124194
0.000124042
0.000123733
0.000124155
0.000124152
0.000124197
0.000124064
0.000122707
0.000124222
0.000124048
0.0001237
0.000123763
0.000124125
0.000124199
0.000124214
0.000124209
7.65035e-06
3.70751e-06
2.09241e-06
3.81949e-05
3.67392e-05
5.69783e-06
3.83384e-05
1.57711e-05
3.73127e-05
1.78412e-05
0.00012405
0.000124038
0.000124207
0.000124205
0.000124211
0.000124209
0.000124203
0.0001242
0.000124204
0.000124204
0.000124164
0.000124212
0.000124207
0.000124213
0.000124141
0.000123502
0.000124215
0.00012223
0.000124186
0.000124196
0.000124138
0.000124058
0.000124196
0.000124206
0.000124201
0.000123609
0.000122578
0.000123159
0.000123571
0.0001242
0.000124204
0.000124145
0.000124026
0.000124197
0.00012307
0.000123426
0.000124028
0.000124195
0.000123892
0.000124189
0.000124196
0.000124167
0.000123864
0.000124013
0.000124194
0.000124205
0.000124198
0.000123991
0.000124181
0.000123987
0.000124213
0.00012405
0.000124045
0.00012421
0.000123832
0.000124016
0.000124062
0.000123674
0.00012416
0.00012382
0.000124106
0.000124105
0.000124184
0.000123593
0.000124099
0.000124003
0.000124013
0.00012417
0.000123927
0.00012409
0.000123997
0.000123903
0.000124006
0.000124216
0.000123969
0.000124209
0.000124046
0.000124184
0.000124041
0.000124039
0.000124216
0.000123944
0.000124207
0.000123938
0.000123985
0.000124057
0.000124034
0.000124059
0.000124052
0.00012381
0.000124019
0.000123965
0.000124175
0.000124041
0.00012387
0.000124164
0.00012343
0.000123977
0.000123339
0.0001232
0.000124039
0.000124003
0.000124035
0.000124031
0.000123984
0.000124214
0.000124077
0.000124156
0.000124075
0.000124081
0.000124093
0.000124163
0.000123818
0.000124209
0.000123858
0.000123751
0.000124067
0.000124184
0.000123768
0.00012421
0.00012411
0.000124155
0.000124167
0.000124065
0.000124022
0.000123826
0.000124
0.000124014
0.000124066
0.000124109
0.000124183
0.000124194
0.000124204
0.000123976
0.000124071
0.000124187
0.000124197
0.000124193
0.000123998
0.000124204
0.000124076
0.000124179
0.000123964
0.000124206
0.000123957
0.000124184
0.000124095
0.000124023
1.16603e-05
2.19379e-05
0.000123998
0.000124051
0.000124212
0.000123987
0.000124212
0.000124063
0.000124206
0.000124185
0.000123946
0.00012418
0.000124016
0.000124207
0.000124058
-2.08969e-07
0.000123887
0.000124187
0.000124184
0.000123907
0.000124024
0.000124056
0.00012418
0.00012397
0.0001242
0.000124096
0.000124053
0.000124178
0.000124017
0.000123941
0.000123964
0.000124069
4.74509e-05
0.000124195
0.000124177
0.000124043
0.000124201
0.000124121
0.000124068
0.000124042
0.000124047
0.000124188
0.000124086
0.00012398
0.000124074
0.000123983
0.000124201
0.00012399
0.000124034
0.000124075
0.000124156
1.99055e-05
2.73242e-05
3.43313e-05
9.66053e-06
0.000124027
3.30895e-05
2.60231e-05
0.000124198
1.91066e-05
1.70706e-05
3.82259e-05
7.5962e-06
3.99812e-05
5.63727e-06
4.08796e-05
3.71555e-06
4.28631e-05
1.8914e-06
3.64257e-05
2.32161e-05
2.94606e-05
1.50304e-05
0.000123897
0.000124208
0.000124095
0.000124104
0.000121023
0.000124166
0.000124203
0.000124175
0.000124003
0.000124208
0.000124202
0.000124191
0.000124188
0.00012396
0.000124049
0.000124186
0.00012419
0.000124031
0.00012392
0.000123928
0.000123517
0.000123979
0.000124218
0.000124194
0.00012406
0.000124216
0.000123905
0.000124059
0.000123862
0.00012298
0.000124189
0.000124199
0.000124216
0.000123911
0.000124068
0.000123865
0.000124066
0.000124047
2.60562e-05
2.18926e-05
3.30661e-05
1.16191e-05
0.000124223
0.00012391
1.98532e-05
2.8275e-05
3.5638e-05
9.5869e-06
0.000124032
0.000124144
0.000124006
0.000124006
0.00012407
0.000124148
0.00012394
0.000124186
0.000124111
0.000123215
0.000124012
0.000123979
5.93194e-05
0.00012334
0.000124213
0.000124037
0.000123942
0.000124202
0.000124205
0.000124025
0.000123818
0.000124056
0.000124125
0.000123896
0.00012416
0.000123027
0.000123998
0.000123991
0.000124156
0.000100898
0.000124003
0.000123605
0.000123975
0.000124214
0.000123871
1.09054e-05
2.11372e-05
3.54068e-05
2.82106e-05
1.36875e-05
5.9192e-08
4.20858e-05
2.69949e-06
4.0184e-05
4.77857e-06
3.94498e-05
6.82819e-06
3.86605e-05
8.86647e-06
3.73294e-05
1.36976e-05
3.17523e-05
3.06079e-05
2.39556e-05
2.52833e-05
1.78145e-05
1.29598e-05
1.57529e-05
0.000124207
0.000102557
0.00012403
0.000123972
0.000124211
0.000124106
0.000124216
0.00012394
0.000124099
0.000124181
0.000124176
0.000124213
0.000123945
0.000124071
0.000123918
0.000124146
0.000123999
0.000124211
0.000124065
0.000123897
0.000123899
0.000124083
0.000124079
0.000124218
0.000124209
0.000124213
0.00012418
0.000124218
0.000123859
0.000124055
0.000124213
0.000123999
0.000124138
0.000124052
0.000124063
0.000123924
0.000124179
0.000124179
0.000123499
0.000121465
0.000123231
0.000123771
0.000124054
0.000123878
0.000124081
0.000124216
0.000124172
0.000124064
0.000123662
0.000123648
0.000124213
0.000124182
0.00012408
0.000124148
0.000123696
5.83823e-05
4.01605e-05
0.000124154
0.000124171
0.000123544
0.000122867
0.000124037
0.000123745
0.00012349
0.000124065
0.000123924
0.000124194
0.000124079
0.00012411
0.000119126
5.45395e-05
0.000124077
8.12578e-05
1.86208e-06
-3.80866e-07
0.000124048
0.00012402
0.000124181
0.000124217
0.000124204
0.000124213
0.000124206
0.000124035
-2.30489e-06
0.000122955
0.000124065
0.000124161
0.000122136
0.000124211
0.000124211
0.00012239
0.000124146
0.000124183
0.000121784
0.000124209
7.64461e-05
0.000124209
0.000123716
0.000124174
0.000122495
0.000123752
0.000123784
0.000124082
0.000124212
0.000124168
0.00012421
0.000124221
0.000124061
0.000116298
)
;

boundaryField
{
    back
    {
        type            empty;
    }
    ingreso
    {
        type            zeroGradient;
    }
    salida
    {
        type            fixedValue;
        value           uniform 0;
    }
    front
    {
        type            empty;
    }
    defaultFaces
    {
        type            zeroGradient;
    }
}


// ************************************************************************* //
