/*--------------------------------*- C++ -*----------------------------------*\
  =========                 |
  \\      /  F ield         | OpenFOAM: The Open Source CFD Toolbox
   \\    /   O peration     | Website:  https://openfoam.org
    \\  /    A nd           | Version:  7
     \\/     M anipulation  |
\*---------------------------------------------------------------------------*/
FoamFile
{
    version     2.0;
    format      ascii;
    class       volVectorField;
    location    "62.5";
    object      U;
}
// * * * * * * * * * * * * * * * * * * * * * * * * * * * * * * * * * * * * * //

dimensions      [0 1 -1 0 0 0 0];

internalField   nonuniform List<vector> 
591
(
(0.000826496 -2.79052e-05 1.21824e-18)
(0.000814181 -2.5078e-05 -6.63973e-19)
(0.000856918 -1.4385e-05 5.68956e-20)
(0.00085598 -7.53252e-06 -1.49153e-19)
(0.000839258 5.73195e-06 2.25585e-19)
(0.000801535 -4.0865e-05 -1.39654e-19)
(0.000556525 -0.000308001 8.06556e-19)
(0.000802539 3.83626e-06 2.07652e-18)
(0.00573491 0.00249831 9.87821e-19)
(0.000796685 -1.41589e-05 2.45521e-18)
(5.02123e-05 0.000171057 1.21851e-18)
(0.000926667 0.00137452 9.40955e-21)
(0.000798388 5.61977e-06 1.32421e-18)
(0.00160166 0.00238664 -7.87773e-19)
(0.000803151 3.21827e-06 -4.4241e-19)
(7.20213e-05 -0.000210621 2.43826e-22)
(0.000135765 0.000677287 7.05098e-19)
(0.000818923 6.0374e-05 -4.89451e-19)
(0.00193387 0.000391104 4.73582e-19)
(0.00135701 0.000255442 -2.47161e-19)
(0.000833377 -3.34802e-06 3.72263e-19)
(0.00340016 0.00655924 -8.15106e-20)
(2.84054e-05 7.10495e-05 2.70998e-19)
(0.000834474 -1.24196e-05 -4.50817e-19)
(1.22155e-05 -1.69355e-05 3.59003e-19)
(0.000769504 3.15188e-05 0)
(9.2736e-05 0.000475513 1.59991e-19)
(0.000539223 1.38031e-05 -1.78879e-19)
(0.000752524 4.85333e-05 1.14977e-18)
(0.000813047 4.42007e-05 5.92178e-19)
(5.89565e-05 -3.30635e-06 -3.99843e-24)
(3.45486e-05 -4.75527e-05 3.5225e-19)
(3.79955e-05 -3.21217e-06 -4.64322e-20)
(4.67442e-05 -1.17252e-05 0)
(5.59008e-05 -1.32993e-05 1.1317e-18)
(0.00117429 0.000130499 1.7995e-19)
(3.24759e-05 -5.6201e-06 4.47238e-20)
(0.000826902 7.03545e-06 3.04965e-23)
(2.81353e-05 4.46878e-05 2.66083e-19)
(1.95312e-05 -0.000108108 -8.54934e-19)
(0.000628447 -0.000203952 9.6048e-19)
(2.6219e-05 -7.10427e-06 4.54919e-20)
(0.000799226 -2.65296e-07 -1.58054e-18)
(0.000829634 3.93866e-05 -6.90435e-19)
(1.80362e-05 -8.38546e-06 0)
(5.61559e-05 7.51088e-06 8.52044e-20)
(0.0013443 0.00450376 8.93086e-19)
(7.74484e-05 1.70894e-05 8.63795e-20)
(0.000799655 1.72217e-05 0)
(0.000379842 -0.000199021 6.77775e-19)
(0.000379813 0.00027476 5.12003e-21)
(0.000392315 5.2672e-05 -1.004e-18)
(0.00634817 0.0109419 -7.6848e-19)
(0.00622523 0.0107973 1.52862e-20)
(0.00561467 0.0103804 1.45579e-18)
(0.000809961 2.49271e-05 0)
(6.81342e-05 3.20194e-05 0)
(0.000317712 1.76157e-05 1.33765e-23)
(6.42909e-05 1.12576e-05 -3.46528e-19)
(0.000816072 -8.15627e-06 0)
(0.000632263 2.86841e-05 3.17634e-19)
(0.000831079 5.86661e-06 2.20939e-18)
(0.000796486 2.60824e-05 -5.43216e-19)
(0.000798983 1.60191e-05 -3.15816e-19)
(0.00171291 0.000478753 5.42465e-19)
(0.000795963 1.09733e-05 -1.15517e-18)
(0.000826027 1.53202e-05 -5.24278e-19)
(8.26672e-05 -1.54761e-06 -1.73446e-19)
(0.000688727 0.00226433 0)
(0.000833447 3.44679e-05 0)
(0.000775062 1.56813e-05 -1.39147e-18)
(3.89308e-05 1.6585e-05 0)
(0.000287522 0.000271753 3.26901e-19)
(4.18699e-05 -1.77222e-05 0)
(4.2966e-05 -6.02526e-06 1.59505e-19)
(1.79192e-05 -4.64318e-05 -3.36742e-20)
(0.000787256 7.52898e-05 2.46999e-19)
(4.52977e-05 1.1198e-05 0)
(0.000797853 5.67659e-05 4.47445e-19)
(0.000768843 0.000293938 2.10768e-19)
(0.000964941 6.15818e-05 -3.98016e-20)
(4.3859e-05 2.37924e-05 -4.51953e-20)
(5.99443e-06 -2.55107e-05 0)
(0.000431335 0.000217902 1.70216e-19)
(2.85095e-06 2.41049e-05 0)
(0.000786473 3.54225e-05 -6.07516e-19)
(0.000600331 -0.000120766 0)
(6.6376e-05 -1.02277e-06 -1.74514e-19)
(3.74034e-06 -3.49182e-05 0)
(0.00082536 0.000242907 -3.41334e-19)
(4.06313e-06 -1.52807e-05 0)
(0.000421514 0.000323803 -1.29392e-23)
(0.000526672 0.000112798 0)
(0.000803697 4.61472e-05 -3.42794e-24)
(2.8116e-06 1.54318e-05 -4.21798e-20)
(0.00045086 -9.94495e-06 1.76391e-18)
(0.00102385 7.23037e-05 4.16118e-20)
(0.000846874 4.39943e-05 6.41126e-22)
(0.000736268 0.000657457 2.69547e-19)
(6.58699e-06 5.08579e-05 0)
(1.72336e-06 -5.45436e-05 -3.12e-19)
(-1.57486e-05 -9.92637e-05 -1.10046e-18)
(3.83876e-06 8.07217e-05 -5.96393e-19)
(0.000631238 -1.85733e-05 0)
(7.86412e-06 0.000105824 0)
(0.000806865 2.22993e-05 2.19158e-18)
(0.000784149 2.22184e-05 1.53118e-18)
(0.00042068 -7.34103e-05 0)
(4.36091e-05 0.000220469 -8.95562e-19)
(-5.64576e-07 0.000173385 4.9667e-19)
(6.37474e-05 0.00041694 6.25181e-19)
(0.000303949 8.63812e-05 -9.37282e-19)
(0.000803198 1.97049e-05 1.37366e-19)
(0.000262051 -3.60745e-05 5.3133e-19)
(4.12267e-06 3.41877e-05 0)
(2.32106e-05 0.00029063 -1.09402e-18)
(0.000318989 0.000324978 -1.6173e-19)
(2.51133e-06 -4.41217e-05 1.46517e-19)
(0.000669987 0.00081335 0)
(0.000366731 0.000389044 5.74511e-20)
(0.000813534 1.24603e-05 1.07045e-18)
(0.000798917 1.26899e-06 -2.71108e-18)
(6.49756e-06 -5.6016e-05 0)
(0.000680544 -3.09438e-05 -1.12341e-19)
(0.000320301 -0.000105223 1.24349e-18)
(0.00264846 0.000803284 -3.36156e-19)
(4.88671e-06 0.000136277 -6.13212e-19)
(3.45492e-06 0.000166139 1.61945e-18)
(0.00072414 2.14693e-05 -3.89977e-20)
(6.49196e-05 -1.28106e-05 -7.50318e-19)
(0.000804243 2.64676e-05 -3.88249e-19)
(0.000772478 2.61162e-05 -4.10467e-20)
(3.90211e-05 0.000336791 -5.96917e-19)
(0.000482936 6.923e-05 -4.94026e-19)
(4.98915e-05 -3.13294e-06 1.56185e-19)
(0.000830409 2.54542e-05 -1.09355e-18)
(0.00156993 0.000237767 -1.13701e-18)
(3.94024e-06 6.48204e-05 4.96465e-19)
(0.000808483 2.4848e-05 -4.95606e-19)
(0.000906807 0.000541514 -7.85248e-20)
(0.000143193 0.000795587 0)
(0.000577821 6.52556e-05 0)
(0.000274834 5.57745e-05 -1.60999e-18)
(6.39194e-05 5.94357e-05 -1.37436e-18)
(3.13683e-05 2.10337e-05 0)
(0.00424712 0.00740011 -1.01974e-20)
(0.00422554 0.0073719 3.16506e-20)
(0.00442774 0.00757467 -4.96782e-21)
(0.00420672 0.00773565 0)
(0.00419908 0.00760142 5.77166e-19)
(0.00424433 0.00740136 -9.20027e-20)
(0.0042104 0.0080435 4.84386e-19)
(0.00428935 0.00742185 0)
(0.00420861 0.00853683 6.1668e-19)
(0.00432574 0.00745025 2.23909e-19)
(0.000820785 3.68804e-06 -1.37365e-18)
(0.000766022 5.22109e-05 0)
(0.000214422 5.52603e-05 1.27716e-19)
(5.1137e-05 1.63365e-05 8.7202e-20)
(7.85688e-05 4.5699e-05 6.80153e-19)
(0.000106511 4.22973e-05 -3.41735e-19)
(0.000101139 6.41085e-06 0)
(4.90885e-05 5.19857e-06 8.18539e-20)
(0.000205775 0.000134611 0)
(0.00016622 4.43314e-05 -5.24379e-20)
(0.000342144 0.000223863 -5.09343e-21)
(5.64255e-05 4.36628e-05 -4.37741e-19)
(9.137e-05 2.82436e-05 -8.52641e-20)
(9.08852e-05 6.28079e-05 1.3122e-21)
(0.000254154 0.000367426 -6.66285e-19)
(0.00010656 0.00100722 0)
(4.24799e-05 5.33269e-05 3.43129e-19)
(0.000202218 0.00175375 0)
(0.00020741 0.000254651 7.04783e-19)
(3.8882e-05 -3.97117e-06 1.11518e-19)
(0.000480671 0.000165025 -1.72333e-19)
(0.000757749 2.47394e-05 -1.92452e-18)
(4.36128e-05 -1.13682e-06 4.43144e-24)
(0.000149249 2.61007e-05 2.24633e-19)
(0.000243386 9.45084e-05 -8.99499e-20)
(0.000880975 0.000706986 3.34998e-19)
(0.000718535 0.00163341 -9.23735e-21)
(0.000391345 0.00142556 -9.39441e-21)
(0.00102279 0.000549469 0)
(0.000103763 -1.47917e-05 1.11893e-18)
(0.000116826 1.70622e-05 -4.43236e-20)
(0.000450685 -0.000287447 -1.13617e-18)
(0.000811517 3.71712e-05 0)
(0.000182294 4.92948e-06 3.63368e-19)
(0.000300426 0.00131616 0)
(0.00107296 0.000771797 -7.30327e-20)
(0.000825897 3.45311e-05 -1.86543e-19)
(7.87398e-05 -2.07896e-05 -3.00043e-19)
(0.000824884 0.000320093 -2.08089e-20)
(5.87038e-05 -2.14788e-05 -5.99625e-19)
(0.000226154 0.000176846 8.64031e-20)
(0.000229101 0.000309817 -3.45071e-19)
(0.000882757 0.000246504 0)
(0.000812428 5.00001e-05 0)
(0.000262445 0.000138715 1.76879e-19)
(0.000234145 4.33058e-06 2.58079e-24)
(0.000184395 0.000207175 0)
(0.000291796 0.000654192 -5.55792e-21)
(0.000344974 -1.25377e-06 0)
(0.000367425 0.000600602 0)
(0.000109398 8.34681e-05 -1.34696e-21)
(0.000809788 2.57705e-05 -9.39792e-19)
(0.000808614 1.92764e-05 7.9639e-19)
(0.000129335 5.88341e-05 -1.49885e-19)
(0.000955266 0.00015123 8.50748e-20)
(0.000835116 4.38867e-05 3.33003e-19)
(0.000814836 2.54132e-05 -2.95044e-19)
(0.00101541 0.000411963 0)
(0.000436515 0.000121081 6.24559e-19)
(0.000895677 0.000319626 2.0918e-20)
(0.000573697 0.000157506 0)
(0.000271601 0.000446936 4.09709e-19)
(0.000261178 0.000218421 -8.44326e-20)
(0.00109434 0.00037697 -7.82271e-19)
(0.000619949 0.00010596 -1.79329e-19)
(0.000806465 7.30527e-05 -7.45083e-21)
(0.000838398 2.95515e-05 9.39582e-20)
(8.14524e-05 -8.77892e-05 -1.98177e-18)
(0.000736606 0.000382078 2.19275e-19)
(0.00066455 6.25778e-05 2.30669e-20)
(0.00070434 0.000279104 1.59806e-23)
(0.000727201 0.000459005 -4.09736e-19)
(0.000843709 3.19948e-05 9.06554e-20)
(7.24308e-05 8.10138e-05 0)
(0.000653798 0.000418622 -4.65956e-20)
(0.000183856 9.71677e-05 0)
(0.000374109 0.000501868 -2.6488e-19)
(0.000309591 0.000169369 0)
(0.000672421 0.00020381 3.55299e-19)
(0.000646845 0.000260522 -4.37338e-20)
(8.16999e-05 0.000104863 6.19278e-19)
(0.00087475 9.20094e-05 -1.61957e-18)
(5.85324e-05 2.26e-05 2.57243e-19)
(0.000883243 6.57545e-05 -1.68445e-18)
(0.000837603 8.72618e-05 1.63063e-19)
(0.00080821 3.13202e-05 1.89472e-18)
(0.000812474 3.18283e-05 -1.32842e-19)
(0.000733309 7.30126e-05 0)
(0.000806148 2.72448e-05 8.95808e-19)
(0.00095508 0.00022959 -4.27191e-19)
(0.00076895 9.14582e-05 -4.83798e-19)
(0.000776894 0.000230096 -8.81406e-20)
(0.000217082 -0.000157246 -2.07991e-18)
(0.000742414 8.12412e-05 8.87648e-19)
(0.000639483 0.000596529 0)
(9.589e-05 -0.000114416 0)
(0.00121605 0.000471335 4.97285e-19)
(0.000645373 -6.26031e-05 -3.251e-18)
(0.00133885 0.000421428 5.76382e-19)
(0.00123622 0.000718254 -6.38607e-20)
(0.000808868 3.07248e-05 -2.10877e-19)
(0.000832638 6.75407e-05 -1.42477e-18)
(0.00081424 2.40486e-05 1.57213e-18)
(0.000816271 2.89169e-05 9.78446e-20)
(0.000668289 0.00035127 -4.40485e-20)
(0.00010217 0.000125075 5.21358e-24)
(0.000746319 -4.32609e-05 2.65143e-19)
(0.000220492 -0.000254622 -7.33024e-19)
(0.000619535 0.000187201 0)
(0.000704375 4.21573e-05 9.90614e-20)
(0.000687333 1.02101e-05 -3.80892e-19)
(0.000387308 0.000172311 3.93434e-20)
(0.000803739 0.00050418 -1.65504e-19)
(0.000149597 7.72369e-05 2.98182e-25)
(0.000809674 0.000409627 0)
(0.00097646 0.000319482 4.15855e-20)
(0.000751708 -7.86669e-05 -6.16403e-19)
(0.000346415 0.000107456 4.97891e-19)
(0.000902941 0.000424337 0)
(5.00155e-05 3.19509e-05 1.33737e-19)
(0.000480814 0.000268846 2.13988e-19)
(0.000496829 -0.00014335 -7.09644e-19)
(0.000140118 -0.000156574 -1.05783e-18)
(0.000822419 2.99119e-05 -4.86965e-19)
(0.000780445 -9.34092e-05 -1.94303e-19)
(0.000550652 0.000728209 -1.17457e-18)
(0.000843958 4.64238e-05 -6.74233e-20)
(0.000647169 -2.51209e-05 1.26992e-18)
(0.000697575 9.94483e-05 2.27828e-20)
(0.000528118 0.000211098 -1.65714e-19)
(3.28025e-05 -2.22967e-05 -8.76006e-20)
(0.000171603 -4.09286e-05 2.40656e-18)
(1.98132e-05 7.75308e-07 -1.94872e-19)
(0.000822369 0.000110191 3.6382e-19)
(0.000657946 0.0001369 0)
(0.00018924 -8.0668e-05 -1.04831e-18)
(0.000122958 -1.59728e-05 3.12971e-19)
(0.000112044 -3.51234e-05 1.12676e-23)
(0.000794667 0.000107454 -3.19326e-19)
(0.000154348 -1.08093e-05 0)
(0.000581895 0.000242514 0)
(0.000111208 0.000331441 -3.62912e-19)
(0.000857014 0.000100166 2.09487e-18)
(1.61546e-05 1.20803e-06 0)
(0.000875147 5.23389e-05 0)
(4.52055e-05 -2.61647e-05 0)
(0.00081524 4.37194e-05 -4.4647e-21)
(0.000791579 -4.87128e-05 0)
(0.00425989 0.00740631 8.07041e-20)
(0.00436134 0.0074859 1.436e-19)
(0.000843858 -3.3652e-06 0)
(0.000782029 -5.04776e-05 8.10319e-19)
(0.000152914 0.00012663 1.49235e-19)
(0.000849919 6.97274e-05 8.07754e-19)
(0.000130588 0.000103347 2.34438e-20)
(0.000775784 -3.03083e-05 6.24818e-19)
(3.57157e-05 1.00569e-05 0)
(2.96956e-05 -1.41256e-05 -4.48567e-20)
(0.000892527 4.9653e-05 -4.86666e-19)
(3.51991e-05 -3.28139e-05 -6.69931e-19)
(0.000752735 0.000120428 -4.23325e-20)
(0.000168201 0.000164386 -1.88132e-19)
(0.000813958 2.56761e-05 0)
(0.0046826 0.00815364 9.01118e-22)
(0.000176362 0.000786621 3.3358e-19)
(0.000120566 -5.64772e-05 -9.14701e-19)
(6.32564e-05 -3.5171e-05 -1.16897e-18)
(0.000660326 1.46091e-05 1.89892e-20)
(0.000579509 0.000409549 0)
(0.000416048 0.000441541 -2.56374e-19)
(8.83727e-05 -5.88175e-05 1.1839e-18)
(0.000618092 8.55201e-07 7.70401e-20)
(4.3101e-05 2.04776e-06 4.07174e-19)
(0.000692042 -5.47045e-05 1.17189e-18)
(0.000809694 3.19347e-05 -5.96069e-19)
(6.90682e-05 -5.53212e-05 1.70956e-18)
(0.000842366 -1.92119e-05 -5.45641e-24)
(0.000636821 7.1512e-06 -3.76581e-20)
(0.000864295 6.77744e-05 0)
(0.000835301 3.67173e-05 0)
(0.00591686 0.00723811 2.59542e-19)
(2.07109e-05 -1.88876e-06 -1.196e-19)
(0.000134161 -9.7546e-05 7.73103e-19)
(0.000720502 0.000119574 -6.96583e-19)
(2.39325e-05 -1.62027e-07 2.01538e-19)
(0.000611717 -3.37756e-05 -7.2397e-19)
(0.000738951 3.69825e-05 1.55838e-18)
(0.000700685 0.000159234 -3.55506e-19)
(0.00080761 -1.30497e-05 3.60445e-19)
(7.96209e-05 -3.30931e-05 1.11623e-18)
(0.000798749 7.49499e-06 -3.22762e-19)
(0.000863819 4.30922e-05 0)
(0.000538094 0.000303337 4.21092e-20)
(0.000852767 5.02118e-05 -9.45957e-19)
(2.11854e-05 2.09479e-06 9.11356e-19)
(0.000849381 4.67747e-05 9.65678e-19)
(0.000853997 3.49915e-06 -9.60302e-19)
(0.000742683 -1.35064e-06 -5.69304e-19)
(0.000513124 -6.80815e-05 -5.25755e-19)
(0.00432858 0.00745235 2.47493e-19)
(0.00422291 0.00752982 -2.78817e-19)
(0.00422151 0.00758788 2.66527e-19)
(0.00425582 0.00741057 1.97974e-19)
(0.000845268 -2.29802e-05 1.43954e-19)
(0.00447486 0.00751135 0)
(0.00440249 0.0075163 -3.86896e-19)
(3.23711e-05 -1.4572e-07 -9.9823e-19)
(0.00417052 0.00746937 -6.33639e-20)
(0.00414585 0.00743234 -2.21508e-19)
(0.00603007 0.0106069 0)
(0.00654046 0.0111876 3.71397e-20)
(0.00601003 0.0105766 0)
(0.00655616 0.0112112 1.30876e-19)
(0.00599743 0.0106007 2.69666e-19)
(0.00659279 0.0112279 1.24602e-20)
(0.00593604 0.0106135 -7.76682e-19)
(0.00662302 0.0111468 8.15123e-21)
(0.00390365 0.00920123 -1.90874e-19)
(0.00418686 0.00748878 3.87418e-21)
(0.00423798 0.00755281 7.93533e-20)
(0.00415029 0.00743458 4.1203e-20)
(0.000872026 0.000189796 4.46834e-20)
(1.15208e-05 1.64847e-06 0)
(0.000693374 -0.000128141 0)
(0.000671375 4.76127e-05 0)
(0.00244413 0.00110872 4.24867e-21)
(0.000752236 -3.15219e-05 1.72622e-19)
(4.1588e-05 6.1207e-06 4.54144e-20)
(1.20167e-05 -2.87294e-05 1.65358e-18)
(0.000847316 1.66253e-05 0)
(2.8682e-05 1.31727e-05 -1.91765e-19)
(0.000140871 0.000225057 0)
(2.02845e-05 -1.09102e-06 0)
(1.65887e-05 -1.49023e-06 0)
(0.000817577 0.00013557 1.13696e-20)
(0.000809724 -1.56914e-05 1.79288e-19)
(3.56875e-05 0.000280221 -1.9215e-23)
(0.000158445 0.000274345 -1.84225e-18)
(0.0005997 0.000330868 -8.57155e-20)
(0.000895567 0.000112188 5.9996e-19)
(0.00067349 -0.000246213 6.73005e-19)
(0.000362941 0.00110861 0)
(0.000466612 0.000574232 2.71569e-18)
(9.12967e-05 0.000147971 -1.80336e-18)
(2.49692e-05 1.60713e-07 0)
(0.000819851 -5.38894e-05 3.6317e-20)
(1.71953e-05 3.7614e-05 1.64482e-18)
(0.000900086 3.05348e-05 2.71271e-19)
(-5.72963e-06 -2.35282e-05 3.8021e-18)
(0.000930003 3.94358e-05 -2.69111e-19)
(0.0013618 0.000152098 7.47434e-19)
(3.72034e-05 -1.10876e-05 8.2588e-20)
(3.84825e-05 4.41621e-06 -8.5922e-19)
(5.04541e-05 0.000145149 0)
(0.000905228 7.76746e-05 5.98571e-19)
(0.000491999 0.00036846 2.37186e-19)
(0.000684421 1.79685e-05 -3.89212e-20)
(0.000773569 -6.42636e-06 2.57117e-19)
(0.000735819 -0.000192975 0)
(0.00632093 0.0108973 -1.68121e-19)
(0.00637924 0.0109745 4.05827e-19)
(0.00616083 0.0107319 -6.18373e-19)
(0.0065015 0.011133 -8.09896e-20)
(3.56048e-05 0.000120723 8.00693e-19)
(0.000914369 5.91871e-05 1.47352e-22)
(0.00641178 0.0110069 -3.86456e-19)
(0.006282 0.0108472 5.48272e-19)
(0.0060809 0.0106737 -4.16761e-19)
(0.00652198 0.0111654 -6.81483e-20)
(8.13376e-05 0.00051423 -2.01855e-20)
(9.79005e-05 -0.000203878 -7.94082e-19)
(0.000688519 -2.01425e-05 -7.62204e-19)
(0.000721188 0.000220746 0)
(0.000799569 8.61541e-07 0)
(0.000185082 0.000391924 3.36357e-19)
(0.000596211 0.000519946 -5.41894e-19)
(1.16447e-05 -1.93356e-06 1.78435e-19)
(0.000202637 0.000466524 -7.38522e-19)
(0.00100397 0.000969244 -1.12704e-19)
(0.000739163 0.000166574 0)
(0.000784892 0.000181641 1.3105e-19)
(0.00635473 0.00587646 1.13141e-18)
(0.000740535 0.00112675 8.26674e-20)
(4.00253e-05 3.94922e-05 -7.4485e-20)
(0.000812522 1.85932e-05 0)
(0.000875504 2.63223e-05 -3.56995e-20)
(3.66792e-05 3.79224e-06 -1.9674e-19)
(3.1666e-05 5.22608e-06 1.9303e-19)
(0.000831345 2.13537e-05 5.37358e-19)
(0.00096818 0.000107339 6.58652e-19)
(0.000585802 3.71182e-05 0)
(0.000221656 -0.000306961 -3.98085e-19)
(0.000911884 0.000149655 3.89695e-19)
(1.76946e-05 -6.63833e-05 2.03162e-19)
(0.0014449 0.000438719 -2.58071e-18)
(0.000616253 -5.59994e-06 0)
(0.000787838 0.000144702 3.75558e-19)
(9.36132e-05 0.000398606 0)
(0.00118665 0.00816414 4.62196e-19)
(0.000485165 0.000501244 -1.22478e-18)
(0.000542958 0.00100067 -1.83786e-19)
(0.00087741 1.97365e-05 -1.4608e-19)
(1.426e-05 2.66197e-05 0)
(0.000938556 7.6715e-05 6.1186e-19)
(0.00410642 0.00739528 8.14326e-20)
(0.00417143 0.00747397 4.7312e-20)
(0.00449844 0.00751397 4.54019e-19)
(0.00444388 0.00754069 -3.28616e-19)
(0.00647543 0.01111 8.10673e-20)
(0.00391504 0.00714607 -9.61809e-22)
(0.0055067 0.00779514 -5.64718e-19)
(0.00409808 0.00737167 5.21862e-21)
(0.00518716 0.00785525 5.11637e-19)
(0.00407988 0.00734007 -4.87174e-20)
(0.00495217 0.00771465 0)
(0.00408518 0.00736437 -8.5657e-20)
(0.00474089 0.00758619 4.92475e-19)
(0.00409837 0.00737597 8.75194e-20)
(0.00457351 0.00752578 0)
(0.00428342 0.00742043 1.39761e-19)
(0.00423966 0.00759938 5.79748e-19)
(0.00446632 0.00752599 -5.53577e-19)
(0.00438684 0.00750386 3.71339e-19)
(0.00422807 0.0075257 3.22836e-19)
(0.0064309 0.0110435 -4.97419e-21)
(0.00411781 0.00740142 3.11619e-20)
(0.00645894 0.0110733 0)
(2.5596e-05 6.53752e-06 -1.89902e-19)
(0.00199915 0.00654307 2.28349e-19)
(0.000840809 -4.04773e-05 1.09633e-19)
(0.000857519 1.16941e-05 0)
(2.02079e-06 1.81664e-06 -3.99201e-19)
(8.51296e-06 -0.000152262 6.91967e-19)
(2.46638e-05 5.87631e-05 2.08944e-18)
(0.000823027 0.000179104 -9.00959e-20)
(0.000798819 1.00976e-05 7.06574e-19)
(2.00843e-06 -1.79589e-06 3.1006e-19)
(2.08912e-05 -3.63824e-05 -1.8461e-18)
(0.000760627 2.78402e-05 1.63193e-19)
(0.000864652 0.000124767 -3.08066e-20)
(0.000799696 -9.53983e-06 1.48175e-19)
(0.00040734 0.000678032 0)
(6.09447e-05 -0.000149987 1.15151e-18)
(0.000858976 1.09254e-05 1.5255e-19)
(2.08102e-05 2.50345e-05 0)
(0.000112552 0.000563263 -6.31336e-19)
(0.000605563 0.000597773 1.31818e-18)
(0.000327177 0.00074588 0)
(0.000800067 -1.7599e-05 0)
(0.000799631 3.52481e-06 1.17186e-18)
(1.8851e-05 5.0821e-05 -3.5157e-18)
(1.78407e-05 7.97745e-06 3.73706e-19)
(0.000115823 0.000148173 0)
(4.93667e-05 -4.19934e-05 0)
(6.34807e-05 0.000114963 2.01042e-19)
(0.000931252 0.000184704 3.50516e-19)
(0.000799754 1.61874e-05 -1.39442e-18)
(2.37619e-05 3.47032e-05 0)
(0.000481607 1.51483e-05 -6.03786e-20)
(0.000801209 3.99534e-05 -1.56382e-19)
(0.000837086 3.19644e-05 1.06239e-18)
(0.000258305 0.000543031 6.32346e-19)
(0.00086838 0.000155523 0)
(2.15284e-05 -2.55647e-05 5.38801e-19)
(3.05499e-06 -7.52076e-06 -3.20039e-19)
(0.00099704 2.97623e-05 0)
(0.00103237 0.00225891 0)
(0.000956517 -1.01002e-05 0)
(0.000997985 0.000205223 4.27284e-19)
(0.000815826 -3.12339e-05 -2.83707e-19)
(0.000923994 0.000110645 -6.84942e-19)
(0.000799713 3.31125e-06 0)
(4.26536e-05 7.11937e-05 -1.71603e-19)
(0.000174018 0.000328518 1.08134e-18)
(0.000797609 1.89649e-05 -1.30948e-23)
(0.00108377 0.00020756 -6.69157e-19)
(0.00109038 0.00012348 0)
(2.8349e-06 7.50674e-06 2.51086e-19)
(2.02805e-05 -1.66616e-05 -1.94358e-19)
(0.000590249 3.69779e-05 6.95181e-21)
(1.80254e-05 -8.76151e-05 0)
(0.00105332 0.00025255 9.5024e-19)
(0.0050289 0.00974972 -2.83034e-19)
(0.00312088 0.00962038 1.27234e-18)
(5.18166e-05 -0.000110239 -1.91371e-19)
(6.22706e-05 -7.72159e-05 1.85997e-18)
(0.00119245 0.000240611 1.67294e-19)
(0.0013289 0.00108086 2.34131e-19)
(0.000813244 1.51449e-07 -7.32125e-19)
(0.000201792 0.000952462 -2.38426e-19)
(0.000809275 0.000924371 -2.18625e-19)
(0.000799649 -3.36763e-06 0)
(8.69992e-05 0.000634649 0)
(9.61107e-05 0.000284159 -4.13655e-23)
(0.000721406 -3.89834e-05 -1.6827e-23)
(0.000820299 6.04377e-05 1.50687e-19)
(0.00263003 0.00206462 -1.23156e-18)
(0.00175905 0.00924083 -1.17185e-19)
(0.000833456 4.61968e-05 4.9231e-19)
(0.0063283 0.00404406 -1.7592e-19)
(0.00672099 0.0115578 -1.36495e-20)
(0.00473433 0.00784395 4.9308e-21)
(0.000801054 1.43153e-05 -2.18892e-18)
(0.00083373 1.33742e-05 3.39217e-24)
(1.03749e-05 -8.59858e-06 -3.48099e-19)
(4.6972e-05 9.24358e-05 -3.49356e-19)
(6.91291e-05 0.000274079 8.7549e-19)
(1.20812e-05 1.72363e-05 4.9052e-19)
(8.97269e-05 0.0002334 3.69841e-19)
(0.000822448 2.73917e-05 0)
(0.00534806 0.00949237 1.95044e-20)
(0.00153153 0.000629573 -2.611e-20)
(0.000819998 3.2135e-05 3.59839e-19)
(4.14633e-05 -8.5912e-05 0)
(0.00184792 0.000738563 5.46149e-19)
(1.04716e-05 8.38511e-06 -2.70217e-19)
(3.52547e-05 2.988e-05 9.72048e-20)
(0.00132247 0.00139267 6.36654e-19)
(0.000736123 4.60909e-05 1.8315e-19)
(6.51845e-06 -2.0441e-06 -1.70244e-19)
(0.0020646 0.00155414 -1.05618e-18)
(0.000126574 0.000181765 -8.18916e-19)
(0.00392143 0.00848789 -1.09112e-18)
(6.63003e-06 1.87814e-06 8.81632e-20)
(0.000149304 -0.000152718 -1.25521e-18)
(5.34154e-05 -5.87081e-05 4.05744e-20)
(0.00152888 0.000975621 0)
(0.00103651 0.000139219 -4.0917e-22)
(0.000454555 0.000850244 -4.02191e-20)
(0.000802483 2.65265e-05 -2.33897e-19)
(8.71629e-05 0.000187985 7.3622e-19)
(3.67174e-05 -6.46155e-05 4.04114e-19)
(1.93455e-05 1.62049e-05 -9.47323e-20)
(3.30898e-05 9.56527e-05 -3.20361e-19)
(0.000202646 -0.000285188 -5.44947e-19)
(0.00325213 0.00345558 2.80562e-21)
)
;

boundaryField
{
    back
    {
        type            empty;
    }
    ingreso
    {
        type            fixedValue;
        value           uniform (0.0008 0 0);
    }
    salida
    {
        type            zeroGradient;
    }
    front
    {
        type            empty;
    }
    defaultFaces
    {
        type            noSlip;
    }
}


// ************************************************************************* //
