/*--------------------------------*- C++ -*----------------------------------*\
  =========                 |
  \\      /  F ield         | OpenFOAM: The Open Source CFD Toolbox
   \\    /   O peration     | Website:  https://openfoam.org
    \\  /    A nd           | Version:  8
     \\/     M anipulation  |
\*---------------------------------------------------------------------------*/
FoamFile
{
    version     2.0;
    format      ascii;
    class       volScalarField;
    location    "6";
    object      p;
}
// * * * * * * * * * * * * * * * * * * * * * * * * * * * * * * * * * * * * * //

dimensions      [0 2 -2 0 0 0 0];

internalField   nonuniform List<scalar> 
3080
(
4.3264e-05
4.08295e-05
4.30884e-05
4.32691e-05
4.21006e-05
4.30898e-05
4.31244e-05
2.51533e-05
4.30439e-05
4.31888e-05
4.32811e-05
4.32158e-05
3.9837e-05
4.18761e-05
4.32861e-05
4.13017e-05
4.3157e-05
4.31912e-05
4.32749e-05
4.27697e-05
2.95025e-05
4.28373e-05
4.25645e-05
2.64818e-05
4.2251e-05
4.15329e-05
4.30607e-05
4.14655e-05
4.32698e-05
4.16726e-05
3.72744e-05
2.71832e-05
4.15335e-05
2.83342e-05
3.30694e-05
4.33311e-05
4.29045e-05
3.38353e-05
4.31578e-05
4.16784e-05
4.32455e-05
4.31789e-05
4.32859e-05
4.31928e-05
4.138e-05
4.32832e-05
4.30097e-05
4.32631e-05
4.32256e-05
4.09377e-05
4.31883e-05
3.55876e-05
4.26364e-05
4.31099e-05
4.16306e-05
4.31139e-05
4.30808e-05
3.25682e-06
3.36339e-05
4.31144e-05
3.55869e-06
3.91178e-06
4.86962e-06
4.31587e-05
4.47229e-06
4.90163e-06
4.31547e-05
4.3142e-05
2.58617e-06
6.52541e-06
4.31284e-05
4.17733e-06
3.10902e-05
8.19645e-06
4.32179e-05
3.01922e-05
4.32124e-05
5.82878e-06
4.31621e-05
4.32233e-05
4.09581e-05
4.3146e-05
9.87062e-06
3.69444e-05
4.28041e-05
7.49548e-06
4.2937e-05
1.12102e-05
1.21917e-05
4.29588e-05
9.16842e-06
1.15469e-05
1.5824e-06
1.02675e-05
1.11725e-05
4.30645e-05
1.08431e-05
1.27721e-05
1.38805e-05
4.31549e-05
4.312e-05
2.95887e-06
3.25831e-06
3.03423e-05
4.28938e-05
4.19332e-05
4.32036e-05
1.25194e-05
1.18279e-05
1.28604e-05
1.43344e-05
1.55701e-05
4.31811e-05
5.49906e-06
6.01372e-06
2.63122e-05
4.28512e-05
2.01238e-06
2.2238e-06
1.33903e-05
1.45498e-05
4.31444e-05
4.28646e-05
6.53345e-06
7.13328e-06
4.32314e-05
4.32264e-05
1.69305e-05
1.83782e-05
4.14402e-05
7.57142e-06
8.25604e-06
4.30975e-05
8.61368e-06
9.38346e-06
4.32834e-05
4.3027e-05
4.32506e-05
1.84924e-05
2.00689e-05
1.86621e-05
1.769e-05
4.32014e-05
9.65245e-06
1.05069e-05
4.12046e-05
4.32191e-05
1.5991e-05
1.73626e-05
4.06398e-06
4.45944e-06
4.32375e-05
4.30523e-05
4.30673e-05
4.32275e-05
2.00698e-05
2.17622e-05
3.208e-05
3.7853e-06
4.30807e-05
2.03347e-05
2.17707e-05
2.35787e-05
4.1705e-05
2.22045e-06
1.93611e-05
4.32559e-05
4.30626e-05
5.42192e-06
1.75489e-05
1.90492e-05
4.29927e-05
2.61363e-05
2.2017e-05
3.32896e-05
7.08359e-06
2.53537e-05
2.33324e-05
4.32333e-05
3.8567e-07
3.9622e-07
3.45012e-07
1.36365e-05
2.10329e-05
3.01501e-05
4.30307e-05
2.37111e-05
8.75619e-06
1.91072e-05
2.07385e-05
4.31558e-05
1.47546e-05
4.28808e-05
2.74161e-05
4.32085e-05
1.5372e-05
1.66923e-05
4.32069e-05
2.23134e-05
2.41641e-05
2.57749e-06
2.84632e-06
1.04319e-05
2.68304e-05
1.58705e-05
2.27592e-05
2.46208e-05
2.27131e-05
2.55289e-05
4.32152e-05
1.07903e-05
1.17379e-05
4.27209e-05
4.32378e-05
4.14564e-05
4.30976e-05
1.69862e-05
2.59408e-05
2.37567e-05
1.21069e-05
5.08216e-06
5.56288e-06
2.62826e-05
1.23519e-05
1.34268e-05
4.28708e-05
4.25201e-05
4.30029e-05
6.11252e-06
6.67834e-06
2.85381e-05
4.29271e-05
2.69918e-05
2.44697e-05
4.28708e-05
2.72488e-05
2.71533e-05
7.14865e-06
7.79932e-06
4.32671e-05
1.39141e-05
1.51161e-05
4.29447e-05
2.55662e-05
6.88815e-07
6.73664e-07
7.55764e-07
2.598e-05
4.31864e-05
8.18745e-06
8.92293e-06
3.93597e-05
2.3567e-05
1.67137e-06
1.85879e-06
4.03056e-05
2.30091e-05
9.22846e-06
1.00488e-05
2.78001e-05
4.32564e-05
2.11525e-05
2.28944e-05
2.37516e-05
2.19563e-05
2.43143e-05
2.24679e-05
4.32116e-05
2.26272e-05
2.08981e-05
4.31053e-05
1.65118e-05
1.79263e-05
1.82475e-05
2.38313e-05
4.29204e-05
2.15079e-05
1.98361e-05
4.32646e-05
2.03831e-05
1.87919e-05
2.65498e-05
1.92585e-05
1.77464e-05
2.80702e-05
2.31881e-05
2.1432e-05
2.3722e-05
1.32231e-05
1.75724e-05
1.61853e-05
2.31981e-05
1.80686e-05
1.96135e-05
1.99172e-05
1.64426e-05
1.51399e-05
3.06059e-05
4.99508e-07
4.17204e-07
4.78708e-07
2.26546e-05
2.15438e-05
1.53198e-05
1.41019e-05
1.43398e-05
1.41946e-05
1.30619e-05
2.20691e-05
2.03688e-05
1.98713e-05
4.31064e-05
1.30659e-05
1.20183e-05
2.66678e-05
1.81966e-05
2.88271e-05
2.21022e-05
1.13677e-05
1.04476e-05
2.09847e-05
1.96339e-05
2.13051e-05
4.32357e-05
2.15909e-05
1.54573e-05
1.65163e-05
9.68117e-06
8.88753e-06
1.87032e-05
1.72308e-05
2.09467e-05
1.93168e-05
8.56352e-06
7.85456e-06
1.4837e-05
7.43608e-06
6.81231e-06
1.37224e-05
1.6571e-05
1.93124e-05
1.49533e-05
1.62401e-05
5.7372e-06
5.24077e-06
4.30047e-05
1.20433e-05
2.32782e-05
4.60512e-06
4.19275e-06
3.54927e-05
1.98238e-05
1.82723e-05
2.04294e-05
4.32517e-05
1.03672e-05
4.32004e-05
2.62872e-06
2.91268e-06
4.04088e-05
4.30955e-05
1.76358e-05
8.69155e-06
7.01346e-06
2.51053e-05
5.32931e-06
4.29734e-05
3.62488e-06
1.81374e-05
1.67078e-05
4.30952e-05
1.87559e-05
4.06668e-05
2.79291e-05
1.53964e-05
4.29614e-05
2.9911e-05
1.7007e-05
1.56622e-05
4.30679e-05
4.15092e-05
4.32225e-05
4.32819e-05
1.19311e-05
1.09687e-05
1.70789e-05
2.06892e-06
1.26045e-05
1.58831e-05
1.46228e-05
4.32243e-05
2.06987e-05
2.2432e-05
2.77528e-05
1.02404e-05
9.40491e-06
4.31569e-05
1.5954e-05
2.48516e-05
2.73369e-05
4.31397e-05
1.0928e-05
2.44002e-05
4.32066e-05
1.47582e-05
1.3583e-05
4.18088e-05
9.25127e-06
1.42809e-05
1.36323e-05
1.25421e-05
4.29731e-05
2.77371e-05
6.30328e-06
5.76495e-06
4.18379e-05
7.5748e-06
1.31624e-05
1.25044e-05
1.14995e-05
4.32143e-05
4.28838e-05
5.8942e-06
4.32669e-07
5.03261e-07
4.11495e-07
4.31955e-05
1.72959e-06
1.56256e-06
4.32817e-05
1.14846e-05
1.08103e-05
9.93268e-06
3.46899e-06
3.1427e-06
4.32562e-05
4.21097e-05
4.29489e-05
4.28906e-05
4.24252e-05
2.72474e-06
2.46896e-06
4.30933e-05
4.19814e-06
4.98656e-06
5.45863e-06
1.24427e-06
1.37442e-06
1.29503e-06
4.31935e-05
6.01808e-06
6.57518e-06
7.05406e-06
7.69632e-06
8.0945e-06
8.8216e-06
9.13527e-06
9.94744e-06
9.80815e-06
4.31676e-05
9.12457e-06
8.37305e-06
1.59014e-06
1.73882e-06
9.11887e-07
8.85136e-07
9.77353e-07
3.75311e-05
1.48539e-05
1.61321e-05
4.0937e-05
4.31115e-05
4.32419e-05
8.00606e-06
7.3397e-06
4.32154e-05
4.07483e-05
3.97011e-05
4.3286e-05
2.06097e-05
2.23278e-05
8.1326e-06
4.31058e-05
4.31029e-05
4.31247e-05
1.74044e-06
1.91094e-06
1.30787e-05
1.41975e-05
4.25779e-05
6.87856e-06
6.29796e-06
1.53148e-05
2.88877e-05
1.64296e-05
4.32394e-05
3.99914e-05
4.32082e-05
4.32464e-05
4.32441e-05
4.12727e-05
4.30924e-05
4.29759e-05
6.45363e-06
1.65948e-06
4.32089e-05
4.26195e-05
3.9748e-05
4.32173e-05
2.69366e-05
4.29719e-05
5.17302e-06
4.71836e-06
4.31104e-05
3.72876e-05
4.30763e-05
2.48353e-06
4.30997e-05
4.31898e-05
4.31769e-05
2.84484e-05
4.31157e-05
3.9591e-06
4.34557e-06
4.7644e-06
4.21252e-05
4.30827e-05
4.0379e-06
3.6684e-06
4.31953e-05
4.30568e-05
4.30715e-05
5.26792e-06
4.29302e-05
3.6277e-06
4.22329e-05
4.31192e-05
6.93138e-06
1.0688e-05
1.16271e-05
4.22828e-05
4.32499e-05
1.33143e-05
1.22482e-05
8.60385e-06
1.50042e-05
1.38111e-05
4.31589e-05
1.78123e-05
1.64071e-05
1.95018e-05
1.79709e-05
2.11944e-05
1.95376e-05
1.02786e-05
4.30602e-05
2.93461e-05
4.32217e-05
4.2491e-05
1.19537e-05
4.3272e-05
4.32146e-05
2.08978e-06
2.54103e-05
2.15663e-06
2.37675e-06
4.27793e-05
4.31065e-05
4.09179e-05
4.3212e-05
1.80965e-05
1.97689e-05
2.145e-05
4.3264e-05
2.49056e-05
2.31355e-05
4.19147e-05
2.68063e-05
4.23607e-05
4.32201e-05
4.31129e-05
4.21664e-05
4.29883e-05
4.31769e-05
4.32306e-05
4.30923e-05
4.31983e-05
3.89682e-05
4.30495e-05
3.07771e-05
4.32138e-05
4.32062e-05
4.23648e-05
4.2209e-05
4.20371e-05
4.32155e-05
4.08372e-05
4.26233e-05
4.32e-05
4.27234e-05
4.31024e-05
4.32088e-05
4.30929e-05
2.83998e-05
4.30625e-05
4.31975e-05
4.1079e-05
4.3135e-05
4.32583e-05
2.43102e-05
4.31332e-05
4.31527e-05
4.31838e-05
4.32038e-05
4.27713e-05
2.56707e-06
4.32209e-05
3.0521e-06
4.32099e-05
4.17955e-05
2.97841e-05
2.54035e-05
4.24827e-05
4.32077e-05
4.31207e-05
4.3259e-05
4.31575e-05
4.32293e-05
4.32174e-05
4.32355e-05
4.32582e-05
4.31888e-05
4.26913e-05
4.32329e-05
4.29722e-05
4.31665e-05
4.27147e-05
2.69763e-05
4.31151e-05
4.31952e-05
3.81646e-05
4.31272e-05
4.31866e-05
4.10172e-05
4.22768e-05
3.77432e-05
4.31019e-05
4.32193e-05
4.27634e-05
4.32346e-05
4.31751e-05
4.30899e-05
4.25571e-05
4.32315e-05
4.22673e-05
4.31096e-05
4.29143e-05
4.32653e-05
4.31232e-05
4.31738e-05
2.87016e-06
2.60286e-06
4.31285e-05
4.21614e-05
4.31333e-05
4.20894e-05
4.32487e-05
4.32442e-05
4.30789e-05
4.31774e-05
2.649e-05
4.32369e-05
4.31087e-05
4.32368e-05
4.3256e-05
4.30484e-05
4.32615e-05
4.32109e-05
4.31883e-05
4.32133e-05
4.32038e-05
4.3089e-05
4.31038e-05
4.32446e-05
4.32063e-05
4.32178e-05
4.32541e-05
4.31165e-05
4.31143e-05
4.31675e-05
4.32152e-05
4.31832e-05
4.31488e-05
4.31339e-05
4.31254e-05
4.3252e-05
4.30701e-05
4.31579e-05
4.1748e-05
4.32639e-05
4.25726e-05
4.32028e-05
4.30746e-05
4.25632e-05
4.26165e-05
4.31992e-05
2.98036e-05
4.32921e-05
4.24579e-05
4.31054e-05
4.32164e-05
4.30959e-05
4.32654e-05
4.3145e-05
4.32281e-05
4.31941e-05
4.32484e-05
4.30835e-05
4.32387e-05
4.22594e-05
4.27421e-05
4.32362e-05
4.32326e-05
4.3155e-05
4.26411e-05
4.31271e-05
4.31002e-05
4.32503e-05
4.19427e-05
4.29725e-05
4.33358e-05
4.31832e-05
4.31877e-05
4.31431e-05
4.30944e-05
4.31125e-05
4.32688e-05
4.32198e-05
4.30877e-05
4.32286e-05
4.30939e-05
4.31189e-05
4.32625e-05
4.24682e-05
2.6164e-06
4.3215e-05
4.2567e-05
4.30984e-05
4.32138e-05
4.3105e-05
4.32213e-05
4.32157e-05
4.32621e-05
4.32238e-05
4.30156e-05
4.31278e-05
4.16955e-05
4.32702e-05
4.3225e-05
4.32355e-05
4.29633e-05
4.31975e-05
4.31277e-05
4.32598e-05
4.32379e-05
4.32906e-05
4.30175e-05
4.32481e-05
4.31076e-05
4.3126e-05
4.32427e-05
4.22569e-05
3.08074e-06
4.31386e-05
4.31978e-05
4.23739e-05
4.28327e-05
4.32054e-05
4.22457e-05
4.32577e-05
4.30649e-05
4.30813e-05
4.3263e-05
4.30966e-05
4.32595e-05
4.3146e-05
4.28788e-05
2.64538e-05
4.27512e-05
4.27216e-05
4.31461e-05
4.31975e-05
4.32587e-05
4.32672e-05
4.32603e-05
4.31196e-05
4.32799e-05
4.32771e-05
4.26829e-05
4.32887e-05
4.2729e-05
4.32495e-05
4.32845e-05
4.32737e-05
4.31768e-05
4.30995e-05
4.32541e-05
4.32381e-05
4.32057e-05
4.32884e-05
4.30579e-05
4.31435e-05
4.30919e-05
4.32624e-05
4.32459e-05
4.31066e-05
4.32055e-05
4.3233e-05
4.31786e-05
2.50097e-05
4.32622e-05
4.29839e-05
4.29473e-05
4.31935e-05
4.32146e-05
4.32368e-05
4.32594e-05
4.27866e-05
4.32748e-05
4.31227e-05
4.30803e-05
4.31246e-05
4.31332e-05
4.32677e-05
4.31553e-05
4.32375e-05
4.30618e-05
4.32781e-05
4.31784e-05
4.31715e-05
4.32568e-05
4.29385e-05
4.31135e-05
4.32485e-05
4.31925e-05
4.32899e-05
4.32687e-05
4.31331e-05
4.30852e-05
4.32181e-05
4.30933e-05
4.32029e-05
4.32863e-05
4.3086e-05
4.30777e-05
4.3174e-05
4.31092e-05
4.30171e-05
4.30392e-05
4.31349e-05
4.32897e-05
4.32428e-05
4.31984e-05
4.26014e-05
4.30271e-05
4.31187e-05
3.38132e-06
3.06962e-06
4.31996e-05
4.32594e-05
4.30612e-05
4.27325e-05
4.26535e-05
3.61202e-06
4.31634e-05
4.31512e-05
4.3266e-05
4.31356e-05
4.30726e-05
4.31644e-05
4.299e-05
4.25796e-05
4.32338e-05
4.25415e-05
4.26063e-05
4.27067e-05
4.32638e-05
4.32655e-05
4.25804e-05
4.30629e-05
4.30406e-05
4.29877e-05
4.32777e-05
4.26696e-05
4.24122e-05
4.32539e-05
4.32305e-05
4.30864e-05
3.7628e-05
4.32499e-05
4.28612e-05
4.31584e-05
4.26042e-05
4.32405e-05
4.25008e-05
4.27867e-05
4.32675e-05
4.24856e-05
4.27378e-05
4.30769e-05
4.32171e-05
4.32108e-05
4.18541e-05
4.24633e-05
4.26586e-05
4.27037e-05
4.32689e-05
4.30489e-05
4.31335e-05
4.28085e-05
4.27099e-05
4.30651e-05
4.30041e-05
4.3001e-05
4.30019e-05
4.25869e-05
4.27856e-05
4.23926e-05
4.15329e-06
4.32385e-05
4.30985e-05
4.32027e-05
3.91156e-06
3.5569e-06
4.28081e-05
3.45763e-06
3.13397e-06
4.29976e-05
4.19184e-05
4.32406e-05
4.32432e-05
4.30297e-05
4.32378e-05
4.2862e-05
4.30238e-05
4.31379e-05
4.32197e-05
4.28425e-05
4.32603e-05
4.30205e-05
4.30503e-05
4.2878e-05
4.29156e-05
4.05776e-06
4.455e-06
2.50118e-05
4.29121e-05
4.26713e-05
4.31472e-05
4.28342e-05
4.29488e-05
4.29556e-05
4.32566e-05
4.31235e-05
4.17223e-05
4.27568e-05
4.19934e-05
4.28891e-05
4.34397e-05
4.27863e-05
4.31801e-05
4.30168e-05
4.28676e-06
4.30356e-05
4.19051e-05
4.28318e-05
4.27197e-05
4.29193e-05
4.28041e-05
4.70081e-06
4.30933e-05
4.32521e-05
4.22777e-05
4.29022e-05
5.00702e-06
4.5675e-06
4.23913e-05
4.28883e-05
2.45282e-06
2.21064e-06
2.47567e-05
4.32426e-05
4.25813e-05
4.29037e-05
5.25496e-06
4.23405e-05
4.32404e-05
4.25403e-05
4.30526e-05
4.30105e-05
5.08218e-06
5.56401e-06
4.31108e-05
5.81229e-06
4.28055e-05
4.28246e-05
4.23894e-05
4.28116e-05
5.96956e-06
6.36919e-06
4.30976e-05
6.12554e-06
5.60126e-06
4.32123e-05
6.92736e-06
6.12214e-06
6.68906e-06
5.7658e-06
6.30346e-06
4.20472e-05
7.48634e-06
4.32264e-05
6.64201e-06
7.25158e-06
7.64417e-06
8.04402e-06
2.4977e-05
7.16315e-06
7.81533e-06
8.60161e-06
2.7578e-05
8.37625e-06
7.68164e-06
9.16039e-06
8.93627e-06
8.19968e-06
9.31796e-06
9.71915e-06
9.49465e-06
8.7157e-06
1.02772e-05
1.08362e-05
9.23419e-06
1.00555e-05
1.09946e-05
9.75385e-06
1.06174e-05
1.1395e-05
9.40971e-06
1.02442e-05
1.19531e-05
1.11812e-05
1.02752e-05
1.25122e-05
1.07985e-05
1.1747e-05
1.30717e-05
1.26699e-05
1.23128e-05
1.13217e-05
1.19266e-05
1.09649e-05
1.36298e-05
1.18439e-05
1.28774e-05
1.3442e-05
1.2366e-05
1.41875e-05
1.40034e-05
1.2885e-05
1.47428e-05
1.45656e-05
1.34047e-05
1.53032e-05
1.39248e-05
1.5128e-05
1.3781e-05
7.64193e-06
2.63635e-05
2.73191e-05
2.51685e-05
2.28391e-05
2.4688e-05
3.37552e-06
3.06492e-06
1.28735e-05
1.39905e-05
7.24042e-06
6.63234e-06
1.54657e-05
2.5238e-05
2.3378e-05
1.0991e-05
2.2738e-05
1.44457e-05
2.61146e-05
1.56915e-05
4.32579e-06
2.70125e-05
1.941e-05
1.77334e-05
1.28875e-06
1.13861e-06
2.39256e-05
2.73565e-06
1.26653e-05
1.23012e-05
1.13113e-05
2.30015e-05
2.12338e-05
2.44993e-05
1.58604e-05
2.01763e-05
1.85861e-05
3.1918e-05
2.18686e-05
2.01635e-05
7.67032e-06
9.31449e-06
1.06134e-05
9.75097e-06
8.36308e-06
1.56809e-05
1.44367e-05
2.57943e-05
5.01264e-06
4.57488e-06
2.43239e-05
5.97509e-06
2.71033e-05
2.92418e-05
6.1228e-06
5.59985e-06
2.89091e-05
2.3316e-06
2.10233e-06
2.76399e-05
9.48685e-06
8.70905e-06
3.10347e-05
2.4146e-05
2.0185e-05
2.10863e-05
2.18784e-05
2.13161e-05
1.96537e-05
2.44276e-05
1.85405e-05
1.70816e-05
2.24405e-05
2.2001e-05
1.48984e-05
2.35774e-05
2.3007e-05
2.74204e-05
2.14421e-05
2.07183e-05
1.9773e-05
1.49657e-05
1.71294e-05
2.73006e-05
2.17724e-05
1.60135e-05
1.80886e-05
2.12448e-05
2.36914e-05
1.92149e-05
1.86563e-05
2.42511e-05
2.22942e-05
1.54865e-05
1.73805e-05
1.68169e-05
2.08864e-05
1.7945e-05
1.8508e-05
1.62536e-05
1.75698e-05
2.21508e-05
1.91287e-05
1.65296e-05
2.03296e-05
2.31208e-05
1.75411e-05
2.6926e-05
2.64538e-05
1.60078e-05
2.50976e-05
2.25615e-05
2.38652e-05
1.90703e-05
1.8805e-05
1.68029e-05
1.5474e-05
1.96314e-05
2.47111e-05
1.80985e-05
2.0475e-05
2.63568e-05
2.07532e-05
1.84895e-05
1.70329e-05
1.705e-05
2.68565e-05
1.64206e-05
1.86075e-05
2.5828e-05
1.69804e-05
2.47559e-05
2.28421e-05
2.74127e-05
2.52737e-05
2.4304e-05
2.01909e-05
2.703e-05
2.53661e-05
2.68721e-05
2.59491e-05
2.48201e-05
2.27974e-05
4.27688e-05
2.35223e-05
2.38261e-05
2.33054e-05
2.42116e-05
4.29523e-05
4.30731e-05
4.29369e-05
2.5733e-05
4.30961e-05
4.3238e-05
4.28907e-05
2.2454e-05
4.29174e-05
4.28643e-05
4.32045e-05
4.30502e-05
4.31065e-05
2.67342e-05
4.26046e-05
2.37922e-05
4.28588e-05
4.29829e-05
4.28817e-05
4.25258e-05
4.26967e-05
4.14306e-05
2.29939e-05
2.62785e-05
4.29115e-05
4.27183e-05
2.60267e-05
4.2961e-05
4.28372e-05
2.32699e-05
4.30126e-05
4.2759e-05
4.32394e-05
4.3236e-05
4.32432e-05
4.30334e-05
4.28226e-05
4.30836e-05
4.30702e-05
4.1096e-05
4.28291e-05
4.2793e-05
4.30908e-05
4.18972e-05
2.06331e-05
1.90152e-05
4.30205e-05
4.30937e-05
4.33302e-05
4.32107e-05
2.54103e-05
4.27259e-05
4.31662e-05
4.27301e-05
4.26382e-05
4.32554e-05
4.20729e-05
4.30583e-05
4.26522e-05
4.29748e-05
4.29655e-05
4.26813e-05
4.29943e-05
4.23829e-05
4.3217e-05
4.30114e-05
4.31817e-05
4.29378e-05
4.27803e-05
4.26419e-05
4.29484e-05
4.30495e-05
4.29394e-05
4.31096e-05
4.31858e-05
4.30765e-05
4.3115e-05
4.3147e-05
4.30736e-05
4.23816e-05
4.29411e-05
4.31035e-05
4.30132e-05
2.35787e-05
2.17835e-05
4.31414e-05
4.30016e-05
4.26253e-05
4.29582e-05
4.29785e-05
4.30799e-05
4.3105e-05
4.31636e-05
4.29542e-05
4.31405e-05
2.32746e-05
4.29304e-05
4.32122e-05
4.28893e-05
4.31305e-05
4.22828e-05
4.3244e-05
4.23056e-05
4.29541e-05
4.30845e-05
4.27547e-05
4.287e-05
4.32274e-05
4.26605e-05
4.26442e-05
4.30836e-05
4.32208e-05
4.29552e-05
4.31904e-05
4.32221e-05
4.32581e-05
2.81712e-05
4.31994e-05
4.32716e-05
4.32603e-05
4.31598e-05
4.30569e-05
4.30376e-05
4.30973e-05
4.30698e-05
4.32649e-05
4.32213e-05
4.31639e-05
4.29985e-05
4.30617e-05
4.32774e-05
4.32507e-05
4.32401e-05
4.32217e-05
4.29699e-05
4.32545e-05
4.32189e-05
4.3246e-05
4.29327e-05
4.26222e-05
4.30757e-05
4.31018e-05
1.89407e-05
1.74514e-05
4.32115e-05
4.32571e-05
4.3075e-05
4.30353e-05
4.28767e-05
4.30947e-05
2.31769e-05
2.13982e-05
4.314e-05
4.20068e-05
4.29855e-05
2.76982e-05
4.3221e-05
4.29962e-05
2.41449e-05
2.232e-05
1.23746e-06
4.31125e-05
4.29844e-05
4.30043e-05
4.32652e-05
4.32539e-05
4.30992e-05
4.31031e-05
4.32443e-05
4.31112e-05
4.32114e-05
4.29977e-05
4.32011e-05
4.3259e-05
4.25075e-05
4.30953e-05
4.31332e-05
4.30804e-05
4.30355e-05
4.32538e-05
4.30827e-05
4.30748e-05
4.31578e-05
4.32188e-05
4.31106e-05
4.32364e-05
4.32531e-05
4.32505e-05
4.27106e-05
4.32483e-05
4.26533e-05
4.32605e-05
4.32188e-05
4.2389e-05
4.21593e-05
4.32204e-05
4.32641e-05
4.30958e-05
4.3113e-05
4.32252e-05
4.29648e-05
4.32561e-05
4.25738e-05
4.31832e-05
4.31049e-05
4.29772e-05
4.26804e-05
4.3221e-05
4.31067e-05
4.32613e-05
4.31086e-05
2.24682e-05
2.07359e-05
4.29942e-05
4.31189e-05
4.31844e-05
1.72542e-05
1.58915e-05
4.24141e-05
2.21957e-05
4.30129e-05
4.3204e-05
4.32591e-05
4.30518e-05
4.31455e-05
4.32516e-05
4.31917e-05
4.29606e-05
4.31816e-05
4.29781e-05
4.32352e-05
4.31671e-05
4.3164e-05
2.27252e-05
4.31292e-05
4.32065e-05
4.30456e-05
4.3265e-05
4.24508e-05
4.3158e-05
4.31365e-05
4.32766e-05
4.30516e-05
4.20531e-05
4.30438e-05
4.17835e-05
4.29199e-05
4.30539e-05
4.31234e-05
4.31405e-05
4.31852e-05
4.32115e-05
4.31471e-05
4.32047e-05
4.28246e-05
4.31257e-05
4.28753e-05
4.32048e-05
4.32498e-05
4.3267e-05
4.30377e-05
4.32589e-05
4.32531e-05
4.31296e-05
4.30766e-05
4.328e-05
4.31668e-05
4.31137e-05
4.3261e-05
4.30313e-05
4.29816e-05
2.43032e-05
4.32406e-05
4.32288e-05
4.31853e-05
4.32558e-05
4.32258e-05
4.29443e-05
4.30293e-05
4.29845e-05
4.32442e-05
4.31807e-05
4.32259e-05
4.27323e-05
4.32466e-05
4.28888e-05
4.32065e-05
4.31056e-05
4.32407e-05
4.32263e-05
4.32249e-05
4.30817e-05
4.308e-05
4.30872e-05
4.32444e-05
4.30949e-05
4.30947e-05
4.28223e-05
4.25495e-05
4.32327e-05
4.32066e-05
4.31017e-05
4.31802e-05
4.29504e-05
4.21747e-05
2.20506e-05
2.03449e-05
4.31682e-05
4.31562e-05
2.16145e-05
4.31732e-05
4.28987e-05
4.32707e-05
4.30625e-05
4.32626e-05
4.3159e-05
4.32135e-05
4.3115e-05
2.37428e-05
2.19234e-05
4.32731e-05
4.32453e-05
4.3174e-05
4.31196e-05
4.325e-05
4.32345e-05
4.31469e-05
4.31618e-05
4.3143e-05
4.31693e-05
4.30931e-05
2.21707e-05
4.31256e-05
4.31769e-05
4.3159e-05
4.32428e-05
4.30515e-05
4.32656e-05
4.22818e-05
4.32427e-05
4.31679e-05
3.0834e-05
4.32616e-05
4.30756e-05
4.32662e-05
4.31624e-05
4.30909e-05
4.26563e-05
4.32696e-05
4.32566e-05
4.30474e-05
4.32775e-05
4.24597e-05
4.32408e-05
4.31652e-05
4.30894e-05
4.31639e-05
4.30763e-05
4.32481e-05
4.3235e-05
4.31928e-05
4.28903e-05
4.30993e-05
4.3232e-05
4.32678e-05
4.31372e-05
4.24102e-05
4.30215e-05
4.32811e-05
4.31276e-05
4.27727e-05
4.31273e-05
4.32574e-05
4.32713e-05
4.3254e-05
4.3274e-05
4.32266e-05
4.30287e-05
4.31385e-05
4.32501e-05
4.31559e-05
4.32686e-05
4.32761e-05
4.32389e-05
4.30702e-05
4.31398e-05
4.32481e-05
4.32649e-05
4.32756e-05
4.32753e-05
4.31023e-05
4.30693e-05
4.31259e-05
4.29853e-05
4.32602e-05
4.32261e-05
4.32391e-05
4.32428e-05
4.31884e-05
4.30024e-05
4.31144e-05
4.32374e-05
4.29437e-05
4.32007e-05
2.13517e-05
1.96889e-05
4.32372e-05
4.32258e-05
4.31323e-05
2.2579e-05
4.30317e-05
4.32175e-05
1.44436e-05
1.32929e-05
4.32316e-05
4.30991e-05
4.32459e-05
4.31712e-05
4.31585e-05
4.32265e-05
4.30315e-05
4.31404e-05
4.31282e-05
4.30955e-05
4.30232e-05
4.31435e-05
4.32033e-05
4.31448e-05
4.29967e-05
4.30201e-05
4.32671e-05
4.25312e-05
4.31498e-05
4.28231e-05
4.27676e-05
4.23456e-05
4.30522e-05
4.27934e-05
4.32247e-05
4.30649e-05
4.28133e-05
4.24023e-05
4.31525e-05
4.3121e-05
4.32613e-05
4.32273e-05
4.3169e-05
4.25635e-05
4.3068e-05
4.31622e-05
4.32713e-05
4.32351e-05
4.31017e-05
4.32284e-05
4.31384e-05
4.3201e-05
4.32255e-05
4.29465e-05
4.29418e-05
4.32246e-05
4.22859e-05
4.31174e-05
4.31794e-05
4.27892e-05
4.2181e-05
4.29295e-05
4.72573e-06
4.26011e-05
4.32784e-05
4.32289e-05
2.09236e-05
1.929e-05
4.32678e-05
2.05261e-05
4.31924e-05
4.23054e-05
4.31896e-05
4.31671e-05
4.3267e-05
4.31461e-05
4.31289e-05
2.30255e-05
2.12595e-05
4.31305e-05
4.31123e-05
1.27539e-05
1.173e-05
4.32047e-05
4.32437e-05
4.31321e-05
4.21182e-05
4.32501e-05
4.31799e-05
4.24256e-05
4.32058e-05
4.32754e-05
2.1643e-05
4.23805e-05
4.31554e-05
4.31939e-05
4.32487e-05
2.08954e-05
4.32007e-05
6.38235e-06
4.32694e-05
4.25751e-05
4.29875e-05
4.32399e-05
4.3135e-05
4.295e-05
4.30309e-05
4.32332e-05
4.32233e-05
4.32139e-05
4.32076e-05
4.28072e-05
4.31918e-05
4.32109e-05
4.32463e-05
4.31937e-05
4.30665e-05
4.3248e-05
4.32129e-05
8.05257e-06
4.31522e-05
4.30463e-05
4.32598e-05
4.31018e-05
4.32679e-05
2.02252e-05
1.86435e-05
1.99355e-05
4.3221e-05
4.31948e-05
4.31459e-05
3.10781e-06
4.30603e-05
4.326e-05
4.32552e-05
4.31706e-05
1.10693e-05
1.01726e-05
4.32676e-05
4.32431e-05
9.72598e-06
4.32052e-05
4.30864e-05
4.32479e-05
-7.90223e-08
-1.12082e-07
-8.93123e-08
4.3118e-05
4.32612e-05
4.32267e-05
4.24866e-05
4.31526e-05
4.30631e-05
4.32209e-05
4.2619e-05
2.81745e-05
4.30533e-05
4.29774e-05
1.9219e-05
4.30142e-05
4.207e-05
4.30967e-05
4.32405e-05
4.32191e-05
4.32442e-05
4.27281e-05
4.31175e-05
1.38567e-06
1.26729e-06
1.14008e-05
4.31592e-05
4.31205e-05
2.8851e-05
4.31541e-05
4.31183e-05
4.32079e-05
4.32427e-05
4.32005e-05
1.97961e-05
1.82443e-05
4.3179e-05
4.3225e-05
4.31571e-05
4.32119e-05
4.31778e-05
4.31536e-05
4.31839e-05
2.26126e-05
2.08726e-05
4.302e-05
4.32011e-05
4.32019e-05
4.32666e-05
4.31678e-05
4.32706e-05
4.32417e-05
4.32165e-05
4.31318e-05
4.26473e-05
4.326e-05
4.3236e-05
4.29954e-05
4.31087e-05
4.30955e-05
4.31716e-05
4.30759e-05
1.75459e-05
4.32714e-05
3.45826e-06
3.80155e-06
4.31563e-05
1.88517e-05
1.91033e-05
1.76024e-05
4.30106e-05
4.32107e-05
4.28e-05
4.31439e-05
4.32208e-05
4.31698e-05
4.30382e-05
4.31911e-05
4.31847e-05
4.32794e-05
4.28585e-05
4.32619e-05
4.30612e-05
4.32159e-05
2.10544e-05
4.31266e-05
4.24894e-05
4.32216e-05
4.28626e-05
4.3262e-05
4.31071e-05
4.29302e-05
4.31807e-05
4.32333e-05
1.95661e-06
1.75385e-06
4.25509e-05
1.82616e-05
4.27336e-05
4.31874e-05
4.32755e-05
4.30475e-05
4.31647e-05
4.31187e-05
4.32291e-05
4.32697e-05
2.19167e-05
2.02172e-05
2.04941e-05
4.30603e-05
4.32675e-05
4.31915e-05
4.32729e-05
4.245e-05
4.32289e-05
4.31958e-05
4.32704e-05
4.31544e-05
4.31426e-05
4.30991e-05
4.24376e-05
1.81093e-05
1.66828e-05
4.32658e-05
4.32232e-05
4.32242e-05
4.31714e-05
4.31598e-05
4.31059e-05
4.3188e-05
4.32801e-05
4.3231e-05
4.32233e-05
4.30276e-05
4.32274e-05
4.31279e-05
1.71747e-05
4.32035e-05
1.74094e-05
1.60344e-05
4.30944e-05
4.23814e-05
4.30994e-05
4.32151e-05
4.32847e-05
4.32699e-05
4.31584e-05
2.14872e-05
1.98167e-05
1.99672e-05
4.32178e-05
4.32116e-05
1.65834e-05
1.69826e-05
1.56397e-05
4.27028e-05
4.31138e-05
4.30866e-05
4.30938e-05
4.30931e-05
4.31899e-05
4.32222e-05
4.31428e-05
4.32149e-05
4.20091e-05
1.60588e-05
4.30357e-05
4.32709e-05
4.32239e-05
1.62843e-05
1.49938e-05
4.32585e-05
4.32259e-05
4.32248e-05
2.07914e-05
1.91688e-05
4.19258e-05
4.30993e-05
4.1849e-05
4.31028e-05
4.20424e-05
4.21247e-05
4.26538e-05
4.32763e-05
1.58593e-05
1.46017e-05
2.72855e-05
1.93771e-05
4.20939e-05
4.32616e-05
1.49099e-05
1.51601e-05
1.39546e-05
2.16955e-05
2.34681e-05
2.32791e-05
2.51956e-05
1.88191e-05
2.03597e-05
1.87666e-05
4.32662e-05
4.26749e-05
4.31177e-05
2.67324e-05
4.31062e-05
4.32386e-05
1.43838e-05
1.47336e-05
1.35613e-05
4.32723e-05
4.32028e-05
4.31964e-05
3.97367e-05
3.21938e-05
4.32784e-05
4.30902e-05
4.32719e-05
1.92644e-06
1.37881e-05
4.31137e-05
1.40367e-05
1.29164e-05
4.31964e-05
4.21734e-05
4.32229e-05
1.82921e-05
1.9665e-05
1.81224e-05
1.32674e-05
4.08806e-05
1.36079e-05
1.25196e-05
4.29207e-05
4.30957e-05
4.31736e-05
4.31129e-05
4.23369e-05
4.31044e-05
4.32674e-05
4.32062e-05
4.32291e-05
1.29112e-05
1.18755e-05
4.29876e-05
4.31417e-05
3.29304e-05
4.32763e-05
1.92311e-05
1.77204e-05
4.28634e-05
4.03601e-05
1.21125e-05
1.24831e-05
1.14798e-05
4.30673e-05
4.3251e-05
4.32815e-05
4.32477e-05
4.32778e-05
4.30539e-05
4.19809e-05
4.296e-05
4.31347e-05
1.77019e-05
4.31664e-05
4.32725e-05
1.15915e-05
4.32778e-05
4.32129e-05
1.73924e-06
4.31361e-05
4.31547e-05
4.31024e-05
4.31831e-05
4.31563e-05
4.3151e-05
2.70353e-05
1.71416e-05
4.32586e-05
4.32104e-05
1.86651e-05
1.71956e-05
4.18906e-05
4.32355e-05
4.31811e-05
4.32538e-05
1.12172e-05
1.03086e-05
4.31848e-05
4.30925e-05
4.32566e-05
4.32327e-05
4.31228e-05
4.31681e-05
4.315e-05
4.31161e-05
4.32689e-05
1.04383e-05
4.27655e-05
3.00468e-05
1.08004e-05
9.92401e-06
2.72185e-05
4.31519e-05
3.52944e-05
4.3113e-05
4.23041e-05
4.23e-05
1.66153e-05
9.91462e-06
1.79863e-05
1.657e-05
4.06161e-05
4.32761e-05
4.2798e-05
4.32319e-05
4.30983e-05
4.32249e-05
9.52719e-06
8.74584e-06
4.30975e-05
4.26994e-05
4.3178e-05
4.3272e-05
4.31362e-05
8.76198e-06
4.30883e-05
1.60234e-05
9.1113e-06
8.36203e-06
1.75475e-05
1.61622e-05
4.31015e-05
4.3263e-05
4.32582e-05
4.31589e-05
8.23952e-06
4.32108e-05
8.40698e-06
7.71044e-06
4.31488e-05
4.3101e-05
4.32539e-05
4.31725e-05
4.31363e-05
7.98572e-06
7.32167e-06
1.68476e-05
1.55145e-05
4.32197e-05
4.31163e-05
4.30875e-05
4.32761e-05
7.08751e-06
4.32052e-05
7.28084e-06
6.66944e-06
4.31777e-05
1.54993e-05
4.32328e-05
4.32245e-05
4.32275e-05
4.314e-05
4.31647e-05
4.32727e-05
6.55871e-06
6.85925e-06
6.27995e-06
4.3234e-05
1.49389e-05
4.3028e-05
4.32408e-05
1.64201e-05
1.51197e-05
4.3167e-05
4.31285e-05
4.31037e-05
5.41184e-06
4.2913e-05
5.57362e-06
5.08867e-06
1.43479e-05
1.57278e-05
1.44798e-05
2.22314e-05
2.40412e-05
4.31338e-05
5.1642e-06
4.71204e-06
4.28702e-05
4.86793e-06
4.25381e-05
4.323e-05
2.38099e-05
2.57526e-05
4.31649e-05
2.88475e-05
4.13077e-05
4.22795e-05
4.43039e-06
4.02964e-06
2.70562e-05
3.84919e-05
4.32216e-05
4.30877e-05
4.31337e-05
4.31314e-05
1.38241e-05
2.3786e-06
2.14177e-06
4.31772e-05
1.52963e-05
1.40806e-05
4.02366e-06
3.65775e-06
4.32301e-05
4.30797e-05
4.31225e-05
4.30964e-05
4.32254e-05
3.72319e-06
1.32279e-05
4.31446e-05
4.31783e-05
1.46022e-05
1.34392e-05
4.32789e-05
4.3144e-05
4.32122e-05
4.31963e-05
2.58945e-06
2.31443e-06
4.30198e-05
4.31849e-05
4.31896e-05
4.31539e-05
4.31512e-05
4.3213e-05
4.30627e-05
1.41713e-05
1.30407e-05
4.27421e-05
4.32331e-05
4.31381e-05
4.14756e-05
4.25593e-05
1.27077e-05
4.32374e-05
4.32808e-05
1.21461e-05
2.70717e-05
3.11405e-06
2.59876e-05
1.34757e-05
1.23975e-05
4.3194e-05
1.15488e-06
4.32576e-05
4.03032e-05
4.3016e-05
4.13022e-05
4.32836e-05
1.15522e-05
4.31267e-05
1.30447e-05
1.19988e-05
4.31351e-05
2.55334e-05
4.31483e-05
1.23471e-05
1.13535e-05
4.22058e-05
3.81706e-05
4.31512e-05
1.10331e-05
4.31734e-05
1.04709e-05
9.27419e-07
7.25918e-07
4.30025e-05
4.30896e-05
1.17902e-05
1.08398e-05
4.31897e-05
4.31519e-05
4.31736e-05
4.31215e-05
4.31418e-05
4.32694e-05
9.87632e-06
4.31717e-05
1.13632e-05
1.0444e-05
4.17147e-05
4.32709e-05
4.32335e-05
4.32362e-05
4.32181e-05
4.32092e-05
4.32152e-05
1.06538e-05
9.78713e-06
4.32081e-05
9.35602e-06
4.31673e-05
4.32422e-05
1.62618e-06
8.79509e-06
4.28149e-05
1.01031e-05
9.28002e-06
4.276e-05
4.22073e-05
4.29587e-05
4.32411e-05
4.32349e-05
4.32124e-05
4.31534e-05
8.2025e-06
4.30143e-05
4.25055e-05
9.67721e-06
8.88545e-06
4.03814e-05
4.64081e-05
4.29025e-05
4.33106e-05
4.27729e-05
4.3147e-05
8.96992e-06
8.23053e-06
4.31735e-05
4.27674e-05
7.67974e-06
4.31206e-05
4.28554e-05
4.28716e-05
7.11631e-06
8.54702e-06
7.84073e-06
2.66098e-05
4.30095e-05
4.29959e-05
4.32315e-05
4.28586e-05
4.32198e-05
2.54203e-05
3.41995e-05
4.32312e-05
4.31263e-05
6.52733e-06
7.8479e-06
7.19386e-06
4.32282e-05
4.31271e-05
4.32619e-05
4.32757e-05
4.31845e-05
4.30873e-05
4.31487e-05
7.41999e-06
6.79829e-06
4.12906e-05
3.8348e-05
5.99872e-06
4.21056e-05
4.30303e-05
4.29155e-05
4.32333e-05
3.4072e-05
5.43041e-06
4.31817e-05
6.71599e-06
6.14654e-06
4.29148e-05
4.3238e-05
4.84885e-06
6.15879e-06
5.63273e-06
4.30885e-05
3.3182e-05
4.06765e-05
4.31238e-05
4.31595e-05
4.32539e-05
5.73523e-06
5.2402e-06
2.45737e-05
4.31731e-05
4.2911e-05
4.32217e-05
4.30953e-05
4.29378e-06
4.28649e-05
5.00684e-06
4.56336e-06
4.32429e-05
4.31239e-05
3.70876e-06
4.2951e-05
4.31919e-05
2.89387e-05
4.59537e-06
4.18597e-06
4.31784e-05
4.32135e-05
4.29088e-05
3.1633e-06
4.28577e-05
1.10388e-06
1.07388e-06
1.19495e-06
4.27931e-05
3.84953e-06
3.49141e-06
2.38572e-05
4.31236e-05
4.30386e-05
4.31987e-05
4.28391e-05
4.31612e-05
4.31719e-05
4.30829e-05
3.25576e-06
2.94111e-06
4.30658e-05
4.17075e-05
4.30574e-05
3.50049e-05
2.90298e-06
2.62184e-06
4.30392e-05
4.31284e-05
2.72349e-05
4.30993e-05
4.30781e-05
4.30806e-05
4.29101e-05
3.09711e-05
4.29603e-05
3.81642e-05
4.31094e-05
2.55184e-05
4.32308e-05
4.31155e-05
4.29797e-05
4.32804e-05
4.12421e-05
3.9853e-05
4.07748e-05
3.78924e-05
4.28587e-05
4.32358e-05
2.5088e-06
4.30658e-05
4.31048e-05
1.98509e-06
1.75308e-06
2.70595e-05
1.18783e-06
4.31585e-05
3.97704e-05
4.32485e-05
4.2822e-05
4.32658e-05
4.30143e-05
4.11662e-05
2.58728e-05
4.32751e-05
4.30174e-05
4.2653e-05
4.24554e-05
4.31127e-05
4.3223e-05
4.32589e-05
2.90667e-05
1.79552e-06
2.80966e-05
4.15744e-05
4.30284e-05
1.41497e-06
6.72055e-07
8.23393e-07
4.32065e-05
4.32517e-05
4.30133e-05
4.32585e-05
4.28481e-05
2.69825e-05
1.47064e-06
1.54092e-06
1.41048e-06
4.30484e-05