/*--------------------------------*- C++ -*----------------------------------*\
  =========                 |
  \\      /  F ield         | OpenFOAM: The Open Source CFD Toolbox
   \\    /   O peration     | Website:  https://openfoam.org
    \\  /    A nd           | Version:  8
     \\/     M anipulation  |
\*---------------------------------------------------------------------------*/
FoamFile
{
    version     2.0;
    format      ascii;
    class       volScalarField;
    location    "6";
    object      p;
}
// * * * * * * * * * * * * * * * * * * * * * * * * * * * * * * * * * * * * * //

dimensions      [0 2 -2 0 0 0 0];

internalField   nonuniform List<scalar> 
7843
(
1.98459e-06
6.11217e-06
6.53282e-06
8.19265e-06
1.46537e-06
8.26448e-06
7.8146e-06
1.13577e-06
8.06261e-06
1.84506e-06
4.6554e-06
1.92019e-06
8.06312e-06
4.89741e-06
3.66688e-06
4.43201e-06
4.57043e-06
3.73682e-06
8.0869e-06
7.93468e-06
8.05016e-06
7.88379e-06
4.73679e-06
7.28722e-06
3.69045e-06
8.04692e-06
2.56562e-07
7.93426e-06
7.81657e-07
8.14765e-06
8.00721e-06
2.46188e-06
8.03913e-06
1.28664e-06
4.39874e-06
4.11256e-06
3.41755e-06
7.85616e-06
8.12802e-06
6.7255e-06
3.58792e-06
5.20456e-06
1.4951e-06
6.01918e-06
8.06244e-06
7.85355e-06
4.81625e-06
7.6943e-06
6.53637e-06
8.07199e-06
8.06488e-06
5.92865e-06
2.76519e-06
7.78262e-06
1.67448e-06
8.0811e-06
7.8065e-06
8.05351e-06
6.23747e-07
8.05619e-06
1.3262e-06
7.72813e-06
7.74602e-06
8.03889e-06
3.74126e-07
4.33594e-06
4.33114e-06
8.07813e-06
7.82651e-06
1.23907e-06
8.05078e-06
2.57909e-06
6.85697e-06
8.05879e-06
8.05736e-06
4.08532e-06
1.57702e-06
1.41084e-06
2.17022e-06
8.30259e-06
8.0738e-06
5.78841e-07
4.97463e-06
7.95043e-06
1.8423e-06
1.99404e-06
7.93987e-06
8.08204e-07
7.93102e-06
7.85074e-06
8.0503e-06
5.4722e-06
8.07536e-06
8.01325e-06
7.94993e-06
2.32438e-06
8.0772e-06
2.35636e-07
8.05759e-06
4.18341e-06
3.00141e-07
2.86759e-07
7.91212e-06
4.38841e-07
8.03669e-06
7.10632e-06
8.07517e-06
8.0363e-06
7.1516e-06
5.66305e-06
7.58867e-07
7.73609e-06
7.73355e-06
2.2177e-06
7.98015e-06
6.79585e-06
7.93853e-06
1.15809e-06
8.0313e-06
5.72864e-06
1.54896e-06
1.21086e-06
5.06941e-06
1.30535e-06
8.06289e-06
7.74033e-06
5.28912e-06
7.40286e-06
7.18989e-06
8.24671e-06
5.55831e-06
7.92488e-06
8.03387e-06
1.57054e-06
6.75176e-06
3.33025e-06
8.11414e-06
7.63431e-06
3.50408e-06
8.95557e-07
8.05696e-06
7.32585e-06
7.98613e-06
7.9711e-06
8.07609e-06
8.05752e-06
5.10925e-06
6.8568e-06
7.47501e-06
7.45714e-06
1.99151e-06
7.79426e-06
8.01134e-06
5.97626e-06
4.5824e-06
4.54813e-06
8.01538e-06
7.91625e-06
6.32367e-06
2.85935e-06
8.05836e-06
4.72202e-06
7.51391e-06
4.89519e-06
6.03658e-06
1.0485e-06
7.96197e-06
1.31846e-07
2.68831e-06
5.06949e-06
8.68418e-07
5.76786e-06
5.24398e-06
7.96801e-06
5.50574e-06
8.05808e-06
6.72797e-07
8.06306e-06
4.77191e-06
1.83992e-06
1.77027e-06
1.52563e-06
8.04859e-06
6.42647e-06
4.6411e-06
7.77228e-06
8.0743e-06
7.71381e-06
2.28504e-06
7.83942e-06
2.49286e-06
2.66603e-06
8.05652e-06
8.06735e-06
5.382e-06
8.06559e-06
8.05159e-06
7.94586e-06
9.8064e-07
6.95145e-06
5.83955e-06
7.17995e-07
5.38641e-06
2.05744e-06
4.80326e-07
8.06706e-06
5.21046e-07
8.06743e-06
8.04549e-06
5.81228e-06
7.54453e-06
5.75128e-06
7.11237e-06
3.60503e-06
4.83554e-06
7.03385e-06
7.99141e-06
2.0736e-06
8.06496e-06
7.79981e-06
7.95104e-06
7.82798e-06
1.5407e-07
6.1294e-06
7.63709e-06
8.02141e-06
7.60745e-06
4.25074e-06
6.22484e-06
7.72787e-06
7.66833e-06
8.07408e-06
8.07103e-06
1.71073e-06
7.8721e-06
4.92034e-06
1.85573e-06
7.48423e-06
4.49823e-06
2.83093e-07
2.04165e-06
3.158e-06
1.95529e-06
3.43534e-06
7.73466e-06
4.68712e-06
8.07002e-06
7.87745e-06
5.40207e-06
4.56222e-06
8.23892e-06
8.06954e-06
2.1958e-06
5.09024e-06
6.42306e-06
2.15974e-06
7.61399e-06
5.00497e-06
3.17478e-07
8.05267e-06
8.05037e-06
7.86282e-06
3.14355e-07
5.34527e-06
1.91173e-06
7.71239e-06
8.06802e-06
5.85605e-06
8.07026e-06
7.49119e-06
8.06503e-06
8.07253e-06
8.01865e-06
7.48456e-06
5.60193e-06
7.95059e-06
2.40569e-06
1.68871e-06
7.77561e-06
5.45212e-06
9.08995e-07
5.17522e-06
5.64366e-06
7.95641e-06
8.06045e-06
8.06393e-06
7.85052e-06
5.40224e-06
7.458e-07
6.05467e-06
8.06887e-06
8.00591e-06
8.06898e-06
1.9e-06
7.74943e-06
2.82269e-06
3.16262e-06
7.77394e-06
7.44788e-06
6.22637e-06
7.55577e-06
7.88984e-06
3.07665e-06
2.7441e-06
7.99477e-06
7.77223e-06
8.06823e-06
6.94058e-06
7.7887e-06
7.71704e-06
7.76925e-06
7.44705e-06
7.95518e-06
8.0645e-06
8.06242e-06
7.94677e-06
5.94548e-06
5.00465e-06
8.00554e-06
3.16769e-06
8.05939e-06
8.06186e-06
5.59283e-06
5.43037e-06
7.8176e-06
7.56735e-06
8.11022e-06
7.99592e-06
7.63632e-06
8.06031e-06
2.93193e-06
5.2602e-06
8.08366e-06
8.0761e-06
7.41783e-06
7.85421e-06
3.29516e-07
2.89835e-06
6.87174e-06
7.87112e-06
7.81922e-06
2.56814e-06
8.06077e-06
3.57101e-07
7.67445e-06
3.28679e-07
2.82189e-06
7.90321e-06
7.77744e-06
2.27913e-07
8.15465e-06
2.75705e-06
8.06194e-06
8.06539e-06
2.33794e-06
8.06499e-06
7.80086e-06
7.78236e-06
2.3347e-06
5.89491e-06
8.39531e-06
5.68826e-06
7.68819e-06
8.6539e-06
8.14309e-06
2.67864e-06
6.38171e-06
7.88512e-06
7.97448e-06
6.17057e-06
6.11006e-06
8.0357e-06
2.13449e-06
7.83433e-06
1.4526e-06
8.18932e-06
5.33104e-06
4.80591e-06
4.81231e-06
8.29851e-06
5.54998e-06
7.93557e-06
8.146e-06
7.82099e-06
4.09868e-07
2.67375e-06
4.80919e-06
8.05373e-06
2.29595e-07
3.53921e-06
4.72325e-06
8.01386e-06
8.00687e-06
8.05045e-06
7.74507e-06
3.00718e-06
8.06821e-06
7.45734e-06
8.02461e-06
1.43081e-06
1.80995e-06
8.06356e-06
8.05438e-06
5.81819e-08
6.39249e-06
6.32241e-06
5.86217e-06
6.5114e-06
8.05979e-06
7.64805e-06
7.81445e-06
2.39213e-06
6.83883e-06
7.99955e-06
6.69912e-06
8.07465e-06
8.06651e-06
6.44199e-06
5.51589e-06
5.68019e-06
7.92944e-06
7.73805e-06
8.05652e-06
2.42313e-06
2.12001e-07
1.6445e-07
7.85331e-06
2.30519e-07
8.05885e-06
7.76404e-06
8.08023e-06
8.06684e-06
2.58102e-06
8.07428e-06
6.92793e-06
7.54987e-06
8.01208e-06
6.2221e-06
3.27215e-06
8.0675e-06
2.09538e-06
8.00964e-06
7.9361e-06
8.05832e-06
6.56979e-06
7.84619e-06
7.74957e-06
7.16561e-06
8.0145e-06
6.5198e-06
1.01973e-06
9.58855e-07
7.81734e-06
7.81435e-06
7.84134e-06
3.03574e-06
2.60813e-06
7.98623e-06
6.84117e-06
8.0647e-06
7.89975e-06
6.82481e-07
2.03462e-07
1.85453e-07
7.89838e-06
2.75423e-07
7.85911e-06
7.80687e-06
8.04639e-06
7.57729e-06
3.09619e-06
8.43128e-07
8.05432e-06
8.07762e-06
7.88244e-06
2.25778e-06
6.58448e-06
8.06434e-06
7.65346e-06
6.12986e-06
7.62498e-06
7.93152e-06
8.0029e-06
8.02295e-06
7.61752e-06
7.83801e-06
2.90511e-06
6.77807e-06
7.76008e-08
5.9991e-07
5.21226e-06
6.72782e-06
8.06516e-06
2.35402e-06
7.97317e-06
8.22779e-06
7.59419e-08
7.73348e-08
7.96895e-06
8.06125e-06
3.24286e-06
8.05773e-06
1.19312e-06
7.26167e-06
2.40906e-06
1.53879e-06
1.10675e-06
8.058e-06
2.52909e-06
6.85633e-06
8.06376e-06
8.13618e-06
3.3608e-06
3.08047e-06
7.70728e-06
6.25116e-06
7.59726e-06
8.00428e-06
8.03165e-06
7.66023e-06
7.10873e-06
7.42007e-06
2.42969e-06
5.77505e-06
7.84198e-06
6.7785e-06
6.07121e-06
7.99633e-06
7.49224e-06
7.90907e-06
8.04526e-06
8.06411e-06
5.4883e-06
8.05439e-06
7.94982e-06
7.83787e-06
7.97917e-06
8.0649e-06
5.80989e-06
7.93585e-06
2.32329e-06
8.04542e-06
5.72175e-06
4.70338e-07
6.30431e-06
7.90849e-06
6.72245e-07
2.4336e-06
4.15725e-06
5.41849e-06
8.02405e-06
6.2904e-06
8.04344e-06
7.93144e-06
7.77922e-06
5.57491e-06
6.97605e-06
7.62287e-06
8.07208e-06
1.79558e-06
6.98212e-06
5.81804e-06
6.36734e-06
4.72221e-06
8.10946e-06
1.27958e-06
8.05065e-06
1.77311e-06
3.78614e-06
7.6752e-06
6.15528e-06
2.60457e-06
7.69181e-07
8.11663e-06
7.66612e-06
6.55405e-06
5.36924e-06
7.92651e-06
7.83952e-06
6.11373e-07
8.03011e-06
8.06396e-06
1.30624e-06
7.95981e-06
8.06549e-06
7.74785e-06
7.89848e-06
6.00031e-06
7.85282e-06
7.98098e-06
7.86273e-06
7.95149e-06
8.04721e-06
3.62534e-06
7.43365e-06
1.79089e-06
8.04053e-06
6.70063e-06
8.04845e-06
7.90877e-06
7.75899e-06
8.07139e-06
1.79607e-06
8.86361e-08
1.34238e-07
6.16187e-06
5.8375e-06
4.29669e-06
3.18033e-06
7.98747e-06
8.034e-06
5.63448e-06
7.01699e-06
7.65969e-06
3.37518e-06
5.87519e-06
8.04446e-06
3.89092e-06
6.00023e-06
7.90998e-06
8.06915e-06
8.14883e-06
5.28189e-06
7.70745e-06
7.9283e-06
7.81958e-06
7.42639e-06
7.94291e-06
7.79014e-06
6.60881e-06
7.71723e-06
7.56827e-06
7.24323e-06
4.22361e-06
7.73892e-06
2.61469e-07
7.96347e-06
8.03727e-06
8.03025e-06
7.9368e-06
7.72505e-06
7.60372e-06
6.36302e-06
4.98014e-06
4.98358e-06
8.36899e-07
7.73169e-06
4.06825e-06
7.64699e-06
8.05876e-06
8.06264e-06
8.05896e-06
7.99756e-06
7.76383e-06
7.62766e-06
7.93178e-06
7.9753e-06
7.97103e-06
5.54561e-06
3.52184e-06
6.2956e-06
8.0282e-06
8.06065e-06
7.91386e-06
9.31959e-07
8.06497e-06
7.79527e-06
7.7762e-06
2.94868e-06
1.74773e-06
7.67684e-06
6.86841e-06
3.70057e-06
7.73619e-06
8.06206e-06
7.64126e-06
6.5348e-06
7.93211e-06
7.8332e-06
6.03927e-06
8.06929e-06
4.51777e-06
8.04863e-06
5.47424e-06
7.72712e-06
8.02578e-06
1.29005e-06
7.79629e-06
8.04536e-06
7.46355e-06
4.88992e-06
2.78095e-06
6.13105e-06
3.96343e-06
7.53738e-06
7.7441e-06
7.881e-06
8.0145e-06
3.87253e-06
7.88079e-06
7.67657e-06
1.21337e-06
8.11456e-06
6.99351e-06
1.93079e-06
8.06501e-06
8.06493e-06
8.04629e-06
7.73723e-06
8.0586e-06
3.69844e-06
8.06401e-06
6.53078e-07
7.94359e-06
3.83212e-07
8.04993e-06
8.20435e-06
5.15696e-06
8.06414e-06
6.34088e-06
7.98016e-06
8.04464e-06
8.03968e-06
4.15037e-06
1.53965e-06
7.60524e-06
7.78562e-06
7.74041e-06
8.05413e-06
7.40655e-06
7.96443e-06
7.72298e-06
5.55484e-06
7.75776e-06
9.24673e-07
2.91988e-06
5.31725e-07
6.39703e-06
6.98398e-06
7.94293e-06
6.48102e-06
5.10175e-07
8.07512e-06
7.79245e-06
8.06319e-06
8.01292e-06
7.66276e-06
7.89997e-06
7.86343e-06
7.77215e-06
7.75622e-06
7.62786e-06
8.05306e-06
7.58979e-06
2.80939e-07
6.96303e-06
7.83991e-06
7.74876e-06
1.90827e-06
7.78711e-06
7.78672e-06
7.95939e-06
7.67262e-06
2.23688e-06
8.06707e-06
8.08689e-06
7.91932e-06
7.7742e-06
7.78495e-06
7.92916e-06
5.89269e-07
8.0642e-06
8.03741e-06
3.95632e-06
1.10282e-06
2.76544e-06
1.07359e-06
8.2666e-06
7.64869e-06
8.06106e-06
6.43795e-06
7.98431e-06
8.70873e-07
7.11751e-06
6.19799e-07
8.06766e-06
7.85337e-06
8.05622e-06
8.33881e-07
7.83946e-06
7.77875e-06
8.05916e-06
7.25931e-06
7.82317e-06
7.36109e-06
7.80188e-06
8.04519e-06
8.0596e-06
7.92025e-06
7.87522e-06
8.05663e-06
7.94016e-06
6.64285e-06
3.5372e-06
7.79614e-06
2.83175e-06
8.00567e-06
8.03398e-06
7.75763e-06
5.36894e-06
7.66278e-06
2.23006e-06
8.05631e-06
7.36669e-06
1.33993e-06
5.48258e-07
7.80088e-06
7.7718e-06
2.41117e-06
7.89894e-06
7.68136e-06
8.20012e-06
7.87499e-06
7.82866e-06
5.13206e-06
7.89053e-06
7.4662e-06
7.89225e-06
7.7801e-06
8.05768e-06
7.79641e-06
7.52934e-06
7.80144e-06
4.15637e-06
2.65577e-06
7.7982e-06
8.07103e-06
7.98136e-06
3.6686e-07
8.00427e-06
2.66904e-06
7.96924e-06
8.05877e-06
1.07354e-06
8.056e-06
8.04018e-06
7.74946e-06
8.06175e-06
1.36982e-06
6.50826e-06
8.09281e-06
7.93487e-06
7.8048e-06
7.79595e-06
8.00475e-06
1.45894e-06
7.38261e-06
7.49332e-06
8.06306e-06
7.11704e-06
8.06281e-06
7.89987e-06
7.70899e-06
6.38503e-06
7.84941e-06
8.02495e-06
7.92175e-06
4.78873e-07
8.07566e-06
7.28738e-06
7.9528e-06
7.60967e-06
7.97217e-06
8.06286e-06
7.79692e-06
7.05539e-06
7.93369e-06
7.63652e-06
8.07308e-06
8.05048e-06
8.00475e-06
7.90482e-06
7.25063e-06
8.06791e-06
7.45166e-06
8.05557e-06
5.65039e-06
1.37252e-06
7.27631e-06
5.29647e-06
7.7478e-06
7.36014e-06
8.05002e-06
8.06359e-06
7.83879e-06
7.80895e-06
7.81992e-06
6.22666e-06
6.4671e-06
7.91783e-06
8.06435e-06
7.6958e-06
6.84043e-06
8.06546e-06
7.76675e-06
7.77992e-06
7.75457e-06
8.0369e-06
7.81615e-06
2.15969e-06
8.05882e-06
6.83137e-06
1.73581e-06
8.17667e-06
1.63754e-06
7.97721e-06
7.86118e-06
7.85617e-06
8.00759e-06
7.78904e-06
5.28009e-06
7.93659e-06
5.98474e-06
8.01854e-06
8.04102e-06
7.97025e-06
1.5483e-06
7.9335e-06
4.5492e-06
7.97906e-06
7.94161e-06
6.21931e-06
7.8588e-06
4.04295e-06
7.12571e-06
7.82143e-06
7.91438e-06
8.02953e-06
7.52821e-07
8.53068e-07
7.88338e-06
7.80618e-06
7.94698e-06
7.85514e-06
4.24465e-06
7.73277e-06
1.50816e-07
5.1617e-07
7.899e-06
8.06063e-06
7.93814e-06
6.99133e-06
7.96432e-06
8.06715e-06
2.08641e-06
7.9418e-06
8.10681e-06
8.06688e-06
1.15627e-06
7.91213e-06
7.84791e-06
1.25062e-06
8.02578e-06
7.99029e-06
7.80187e-06
7.02501e-06
7.99588e-06
4.76758e-07
7.95381e-06
8.06763e-06
8.00478e-06
8.05369e-06
2.35344e-06
2.21645e-06
7.65574e-06
7.94393e-06
8.05894e-06
7.96709e-06
8.06768e-06
7.81265e-06
6.92544e-06
8.01093e-06
7.98664e-06
7.89912e-06
7.992e-06
7.08391e-06
8.0371e-06
7.6742e-06
7.90177e-06
1.64466e-06
8.04604e-06
7.97152e-06
7.9361e-06
8.02545e-06
7.98372e-06
8.04266e-06
7.9314e-06
4.89685e-06
2.35018e-06
8.06289e-06
8.05849e-06
6.85376e-06
6.75017e-06
8.05745e-06
8.04008e-06
7.98357e-06
7.76739e-06
7.95438e-06
7.80728e-06
8.00364e-06
7.93927e-06
7.9974e-06
7.2705e-06
6.65519e-06
7.81828e-06
7.92514e-06
8.06543e-06
6.2662e-06
7.93402e-06
8.01825e-06
7.74156e-06
7.91523e-06
7.99686e-06
8.0189e-06
8.0501e-06
8.03854e-06
6.76071e-06
7.81383e-06
8.05588e-06
8.06213e-06
7.99362e-06
1.99175e-06
7.97221e-06
7.96415e-06
7.95479e-06
7.94672e-06
8.07237e-06
8.01888e-06
6.74808e-06
7.97808e-06
6.87016e-06
7.75836e-06
7.82559e-06
6.63566e-06
5.36632e-07
8.01216e-06
7.96595e-06
7.75482e-06
8.08432e-06
8.03404e-06
8.15671e-06
6.69835e-06
8.06111e-06
7.99582e-06
7.72474e-06
6.39597e-06
2.61401e-06
8.10026e-06
8.28362e-07
8.06269e-06
8.06782e-06
8.06403e-06
8.04909e-06
6.77147e-06
8.05611e-06
8.05945e-06
8.03997e-06
6.67222e-06
8.035e-06
7.36122e-06
8.06393e-06
6.33765e-06
7.47907e-06
7.92273e-06
7.59633e-06
6.29945e-06
7.93845e-06
6.20454e-06
8.16805e-06
8.02781e-06
8.03372e-06
8.0743e-06
6.8402e-06
8.17666e-06
8.05872e-06
5.63383e-06
7.9015e-06
8.17343e-06
8.06607e-06
8.05305e-06
8.03294e-06
7.74444e-06
8.00213e-06
7.96289e-06
7.70274e-06
6.24133e-06
8.03201e-06
8.03883e-06
6.27561e-06
8.05501e-06
7.96861e-06
6.72552e-06
4.98237e-06
8.01282e-06
2.87771e-06
8.0363e-06
8.06859e-06
8.06195e-06
7.98229e-06
8.07291e-06
8.06843e-06
7.99479e-06
8.06396e-06
6.23316e-06
6.31805e-06
3.44895e-06
8.00396e-06
7.34751e-06
5.96235e-06
8.04053e-06
7.94827e-06
7.95245e-06
8.06192e-06
8.02322e-06
7.08131e-06
8.06507e-06
8.03934e-06
8.05377e-06
8.06156e-06
6.47391e-07
7.7905e-06
8.06266e-06
1.90313e-06
5.10342e-06
6.70718e-06
3.75838e-07
7.98556e-06
7.94259e-06
8.04388e-06
6.60507e-06
8.0632e-06
8.06382e-06
1.6468e-06
3.97942e-06
7.00111e-06
8.06303e-06
8.02502e-06
8.02601e-06
6.64988e-06
7.7999e-06
8.04104e-06
7.93188e-06
8.0636e-06
6.32207e-06
8.01491e-06
6.61971e-06
5.1914e-06
7.87316e-06
7.79642e-06
1.23929e-06
7.99981e-06
5.79075e-06
8.0649e-06
6.65081e-06
8.0141e-06
8.05441e-06
2.24603e-06
8.05033e-06
6.14623e-06
8.04005e-06
8.04148e-06
7.872e-06
8.06612e-06
4.06433e-06
8.06181e-06
8.04374e-06
8.05616e-06
5.88611e-07
7.80411e-06
8.02891e-06
8.022e-06
7.76036e-06
7.95705e-06
5.89739e-06
7.05275e-07
8.0661e-06
7.937e-06
8.0552e-06
8.04992e-06
8.03663e-06
8.01192e-06
7.87211e-06
6.78796e-06
7.976e-06
6.96079e-06
8.05264e-06
3.95862e-06
8.00151e-06
7.93512e-06
6.04618e-06
7.71143e-06
8.05755e-06
7.7881e-06
7.91518e-06
8.06741e-06
8.06425e-06
8.04842e-06
6.12769e-06
8.07332e-06
8.05797e-06
8.05631e-06
3.31713e-06
7.82709e-06
6.55248e-06
8.06943e-06
4.33313e-06
8.07096e-06
8.0529e-06
7.64678e-06
6.67314e-06
6.28661e-06
8.03099e-06
6.42382e-06
6.11477e-06
7.98346e-06
8.03165e-06
6.12261e-06
6.56454e-06
8.05929e-06
8.01249e-06
6.45986e-06
5.52932e-06
8.06453e-06
2.26207e-06
8.05768e-06
7.78564e-06
8.04492e-06
7.78418e-06
8.02443e-06
8.06502e-06
7.71957e-06
8.06442e-06
5.92438e-07
8.05317e-06
7.77729e-06
8.05977e-06
6.61023e-06
6.48883e-06
6.55779e-06
6.53662e-06
8.08169e-06
8.178e-06
7.9911e-06
8.06194e-06
7.77771e-06
8.06041e-06
5.75465e-06
8.06317e-06
8.07048e-06
7.89002e-06
8.06934e-06
7.97601e-06
6.35362e-06
6.58167e-06
8.06312e-06
8.05235e-06
8.00315e-06
1.99827e-06
8.07622e-06
6.72393e-06
8.06743e-06
8.01999e-06
8.05222e-06
8.06971e-06
8.17645e-06
6.72556e-06
8.0653e-06
6.46497e-06
8.04205e-06
8.0653e-06
8.05555e-06
6.88993e-06
8.06239e-06
1.81452e-06
8.05894e-06
6.46682e-06
7.02439e-06
8.05264e-06
8.06245e-06
7.76871e-06
6.24366e-06
8.07189e-06
6.73507e-06
8.06254e-06
8.06311e-06
8.05195e-06
8.04049e-06
8.04675e-06
6.69583e-06
6.67941e-06
4.33097e-07
8.10786e-06
5.59602e-07
7.99377e-06
7.96933e-06
8.03986e-06
8.0722e-06
7.53033e-06
7.72e-06
8.00966e-06
8.06095e-06
8.01054e-06
7.53835e-06
6.59747e-06
6.87864e-06
6.04316e-06
8.05577e-06
8.03902e-06
8.06647e-06
8.02183e-06
8.03903e-06
8.17184e-06
6.53607e-06
8.0273e-06
8.06847e-06
8.06395e-06
8.06325e-06
7.9624e-06
7.98133e-06
7.9351e-06
8.03581e-06
7.19947e-06
6.58367e-06
7.99161e-06
6.44936e-06
8.05286e-06
8.05147e-06
8.03977e-06
8.05953e-06
4.24797e-06
8.00638e-06
6.05076e-06
7.78262e-06
6.46851e-06
8.06913e-06
8.06978e-06
6.39451e-06
7.51923e-06
7.81936e-06
6.575e-06
7.925e-06
8.06222e-06
8.0775e-06
6.19173e-06
6.50553e-06
8.16173e-06
8.01293e-06
6.72782e-06
8.04087e-06
8.03615e-06
8.2661e-06
7.10668e-06
8.0379e-06
8.04477e-06
8.06825e-06
8.02088e-06
8.04464e-06
7.84431e-06
8.05192e-06
8.0677e-06
8.05041e-06
8.04847e-06
8.08265e-06
8.04158e-06
2.48025e-06
8.06985e-06
6.49811e-06
8.0559e-06
6.57068e-06
8.04271e-06
8.06669e-06
8.19432e-06
8.06936e-06
8.09289e-06
8.06912e-06
8.04237e-06
8.21792e-06
8.04075e-06
8.04417e-06
8.08161e-06
8.06425e-06
8.0328e-06
7.7411e-06
6.33766e-06
8.05809e-06
8.06797e-06
8.0635e-06
8.01631e-06
7.78437e-07
6.06585e-06
8.0678e-06
8.0899e-06
8.06428e-06
8.06472e-06
8.06713e-06
8.06706e-06
6.4083e-06
6.3811e-06
8.07528e-06
7.4353e-06
5.08936e-06
8.06967e-06
5.95927e-06
8.02514e-06
8.03579e-06
6.34918e-06
8.16071e-06
8.0756e-06
8.03734e-06
8.06501e-06
8.04262e-06
8.06853e-06
8.06442e-06
8.06824e-06
8.0749e-06
7.76969e-06
7.99421e-06
6.43865e-06
6.51994e-06
8.06043e-06
8.06352e-06
8.04211e-06
5.9095e-06
6.35798e-06
8.00649e-06
8.06756e-06
8.06407e-06
5.98853e-06
8.03382e-06
8.15059e-06
8.06299e-06
6.512e-06
7.56238e-06
8.07712e-06
8.0735e-06
6.01882e-07
8.06146e-06
8.07522e-06
8.06566e-06
8.06611e-06
8.06491e-06
5.98708e-06
8.06667e-06
6.42611e-06
8.17202e-06
8.05536e-06
8.14166e-06
8.0566e-06
8.01612e-06
8.07123e-06
8.08226e-06
8.06355e-06
7.91727e-06
8.05837e-06
8.0745e-06
8.04231e-06
6.48972e-06
6.62405e-06
8.06881e-06
8.08844e-06
8.04089e-06
8.0615e-06
8.06675e-06
8.06487e-06
8.07003e-06
8.06708e-06
7.83739e-06
8.06777e-06
7.919e-06
7.47831e-06
8.06982e-06
7.79736e-06
8.04679e-06
8.04496e-06
5.87428e-06
8.03375e-06
6.40133e-06
8.06033e-06
8.04192e-06
8.07101e-06
5.7867e-06
8.0532e-06
8.06614e-06
8.07045e-06
8.04319e-06
8.05045e-06
8.0558e-06
8.06824e-06
8.043e-06
8.04265e-06
7.92017e-06
5.87415e-06
8.07244e-06
8.06651e-06
8.06452e-06
6.29493e-06
1.87854e-06
8.0691e-06
8.05075e-06
8.13926e-06
8.07206e-06
8.05511e-06
8.00881e-06
8.24048e-06
8.0477e-06
8.06972e-06
8.03416e-06
8.06271e-06
8.07015e-06
8.0553e-06
8.01106e-06
6.57318e-06
8.04236e-06
8.05049e-06
6.31587e-06
8.0525e-06
8.06657e-06
8.07337e-06
6.71165e-06
2.52574e-06
6.4619e-06
8.06296e-06
6.56052e-06
8.06192e-06
6.49204e-06
8.04259e-06
5.8211e-06
6.68499e-06
8.02963e-06
6.29118e-06
8.04436e-06
8.0139e-06
8.00643e-06
7.01766e-07
5.69976e-06
8.04892e-06
4.99509e-07
8.04152e-06
8.0717e-06
6.47093e-06
8.04071e-06
6.40971e-06
8.05957e-06
8.14224e-06
8.05694e-06
8.05945e-06
8.03599e-06
8.0426e-06
8.05182e-06
8.06645e-06
8.06082e-06
6.70739e-06
6.25448e-06
8.06007e-06
8.07338e-06
6.25492e-06
8.03454e-06
8.06577e-06
8.0688e-06
7.49887e-06
8.06956e-06
6.20063e-06
8.05742e-06
8.07713e-06
8.05826e-06
2.17024e-06
6.47576e-06
8.0413e-06
5.78936e-06
8.04075e-06
3.84454e-06
8.03854e-06
8.03574e-06
8.06512e-06
8.05804e-06
8.04788e-06
6.24137e-06
8.04458e-06
8.04355e-06
8.05353e-06
8.06921e-06
8.06946e-06
8.04486e-06
8.0432e-06
6.40878e-06
5.82827e-06
8.06512e-06
8.0572e-06
8.01634e-06
6.2091e-06
8.03779e-06
8.26937e-06
8.13513e-06
8.0497e-06
8.04981e-06
8.03958e-06
8.00888e-06
6.22585e-06
6.39108e-06
8.04118e-06
7.81136e-06
8.03452e-06
8.03627e-06
8.06834e-06
8.05233e-06
8.05181e-06
8.06105e-06
8.05286e-06
5.905e-06
8.05969e-06
8.02993e-06
6.21822e-06
8.0308e-06
8.0709e-06
8.04267e-06
8.0589e-06
8.05724e-06
6.22116e-06
8.06004e-06
8.03247e-06
5.745e-06
8.05525e-06
8.05181e-06
6.31474e-06
8.03236e-06
6.25935e-06
8.05679e-06
8.0686e-06
8.04757e-06
6.33219e-06
8.06805e-06
8.06125e-06
8.04148e-06
8.00944e-06
5.96208e-06
6.23419e-06
8.04932e-06
8.03598e-06
8.07091e-06
8.05127e-06
8.04794e-06
8.07727e-06
8.08564e-06
8.04104e-06
8.02822e-06
6.29343e-06
8.04364e-06
8.04249e-06
8.07105e-06
8.00755e-06
8.04492e-06
6.27884e-06
6.15341e-06
7.99635e-06
6.36489e-06
8.03274e-06
8.06073e-06
8.03881e-06
8.01815e-06
8.04505e-06
6.1368e-06
8.0714e-06
6.42461e-06
8.06424e-06
5.66873e-06
8.04345e-06
7.80065e-06
8.04149e-06
8.04599e-06
8.0419e-06
8.04093e-06
8.06447e-06
8.04526e-06
8.03416e-06
8.04886e-06
6.16362e-06
8.28192e-06
8.0705e-06
8.02918e-06
8.07678e-06
8.04372e-06
8.04924e-06
8.02321e-06
8.05363e-06
8.05091e-06
8.07624e-06
8.04074e-06
6.11153e-06
6.12438e-06
5.99264e-06
2.67542e-06
8.04908e-06
8.04747e-06
8.03118e-06
6.22389e-06
8.03329e-06
8.01293e-06
5.70308e-06
6.37245e-06
6.30788e-06
6.20012e-06
8.06013e-06
6.38574e-06
8.04213e-06
2.17443e-06
8.04324e-06
8.04248e-06
8.01416e-06
8.05059e-06
1.32245e-06
8.04437e-06
8.02174e-06
8.01731e-06
8.04553e-06
8.04876e-06
8.04705e-06
6.16623e-06
8.01609e-06
8.03569e-06
5.09969e-07
8.04719e-06
8.04143e-06
8.06412e-06
8.06398e-06
8.06169e-06
8.0216e-06
8.05444e-06
8.06186e-06
8.0128e-06
8.05956e-06
8.0376e-06
8.06511e-06
8.05154e-06
8.00492e-06
6.16576e-06
8.02622e-06
8.04554e-06
8.05338e-06
8.05247e-06
8.05116e-06
8.05111e-06
8.03697e-06
8.06315e-06
6.07331e-06
8.02356e-06
8.02648e-06
8.04188e-06
5.98366e-06
8.07105e-06
8.01988e-06
6.0484e-06
6.04454e-06
8.04767e-06
6.03872e-06
8.03842e-06
6.29383e-06
7.57651e-06
5.61685e-06
6.07459e-06
8.03439e-06
1.46008e-06
8.03952e-06
8.07111e-06
6.07973e-06
8.04977e-06
5.89529e-06
8.01703e-06
8.07108e-06
8.05853e-06
8.02121e-06
6.13248e-06
6.20734e-06
8.07047e-06
8.04134e-06
6.09782e-06
6.0399e-06
6.12148e-06
6.09582e-06
8.05019e-06
6.15157e-06
8.04649e-06
6.07169e-06
8.0448e-06
8.04874e-06
5.86827e-06
6.12873e-06
6.13497e-06
6.06886e-06
8.04808e-06
8.04995e-06
8.0534e-06
5.73587e-06
8.04785e-06
8.02481e-06
2.17152e-06
7.96841e-06
8.03291e-06
5.61335e-06
5.53138e-06
8.0507e-06
5.87705e-06
5.98687e-06
7.56592e-06
8.04044e-06
8.0552e-06
8.07958e-06
6.12032e-06
6.10742e-06
5.98883e-06
6.05374e-06
8.03862e-06
8.03603e-06
8.32879e-06
6.02432e-06
5.96024e-06
8.03338e-06
8.05513e-06
8.05666e-06
8.05799e-06
8.05397e-06
5.95544e-06
8.03928e-06
6.18648e-06
8.05327e-06
6.07914e-06
6.04697e-06
8.05965e-06
7.77035e-06
8.06001e-06
8.36405e-06
8.04101e-06
8.05952e-06
8.04964e-06
8.05175e-06
6.03524e-06
6.19958e-06
8.047e-06
8.05908e-06
6.0164e-06
6.13565e-06
8.05759e-06
5.86449e-06
5.87219e-06
8.05706e-06
5.90005e-06
5.90562e-06
5.87266e-06
8.03562e-06
8.04443e-06
8.04318e-06
5.88495e-06
6.27833e-06
8.03601e-06
5.95633e-06
5.8625e-06
5.87095e-06
8.06749e-06
8.03327e-06
5.95921e-06
8.03963e-06
5.45469e-06
8.03549e-06
8.12786e-06
8.05453e-06
5.80756e-06
5.78413e-06
5.86137e-06
8.06499e-06
5.8135e-06
5.94841e-06
5.97363e-06
5.4797e-06
5.95087e-06
5.46573e-06
5.36331e-06
5.87164e-06
5.95602e-06
5.39246e-06
6.00609e-06
5.82151e-06
6.06241e-06
8.02902e-06
5.78618e-06
5.7361e-06
5.77426e-06
5.72706e-06
5.29488e-06
8.04012e-06
5.65091e-06
6.1903e-06
5.78409e-06
5.69597e-06
8.06465e-06
5.82819e-06
5.82231e-06
8.014e-06
5.70467e-06
8.02279e-06
8.05344e-06
5.36195e-06
5.27813e-06
5.73941e-06
5.85226e-06
5.65979e-06
5.79649e-06
5.70145e-06
8.05738e-06
5.19062e-06
5.6079e-06
5.6407e-06
8.0482e-06
5.7888e-06
5.07743e-06
5.99324e-06
5.69644e-06
5.61649e-06
5.77383e-06
5.10632e-06
5.44688e-06
5.5474e-06
5.46022e-06
5.55401e-06
5.37289e-06
5.51972e-06
5.06569e-06
5.03771e-06
5.35345e-06
8.058e-06
5.60877e-06
5.53082e-06
5.60345e-06
5.62046e-06
5.44174e-06
5.00565e-06
4.97457e-06
5.70762e-06
5.59848e-06
4.99024e-06
5.47624e-06
5.56429e-06
5.46663e-06
5.49164e-06
5.52101e-06
5.53903e-06
8.0657e-06
5.43147e-06
5.7483e-06
5.20194e-06
5.42684e-06
5.44963e-06
5.51364e-06
5.53071e-06
5.53487e-06
4.91427e-06
5.59762e-06
5.13602e-06
5.57138e-06
5.34314e-06
5.60225e-06
5.57704e-06
5.50872e-06
5.34034e-06
5.44637e-06
5.24991e-06
5.07308e-06
4.90093e-06
5.41989e-06
5.37825e-06
5.42234e-06
5.43313e-06
5.61935e-06
5.56251e-06
5.33158e-06
5.51038e-06
5.37939e-06
5.56381e-06
5.4299e-06
4.82756e-06
5.45707e-06
5.40649e-06
8.06607e-06
5.28455e-06
5.25482e-06
5.28831e-06
5.34578e-06
5.33822e-06
5.34527e-06
4.93643e-06
5.44683e-06
4.98471e-06
4.82371e-06
4.74223e-06
8.01562e-06
8.05846e-06
4.74056e-06
5.2975e-06
5.30687e-06
5.32174e-06
5.16659e-06
5.19646e-06
5.23675e-06
5.11047e-06
5.40756e-06
5.29051e-06
5.16177e-06
5.29776e-06
5.26094e-06
5.265e-06
5.25735e-06
5.21878e-06
5.73624e-06
4.79914e-06
5.0783e-06
5.24605e-06
4.71863e-06
4.65539e-06
5.10293e-06
5.19126e-06
5.17599e-06
5.386e-06
5.29706e-06
5.33411e-06
5.1519e-06
4.91139e-06
4.6569e-06
4.99006e-06
5.16939e-06
5.15809e-06
4.5707e-06
5.00933e-06
4.84532e-06
5.0911e-06
5.08142e-06
5.02524e-06
5.02399e-06
5.01322e-06
5.06728e-06
4.93024e-06
4.97872e-06
5.20953e-06
5.10893e-06
4.99991e-06
4.90185e-06
4.50048e-06
5.1065e-06
4.91931e-06
5.19354e-06
4.86762e-06
5.0699e-06
4.98187e-06
4.98211e-06
5.06697e-06
4.89023e-06
5.00592e-06
4.96794e-06
5.01736e-06
4.85741e-06
8.2483e-07
4.48735e-06
5.03356e-06
4.99351e-06
4.94014e-06
4.58505e-06
4.89375e-06
4.33939e-06
5.10634e-06
4.41922e-06
8.86212e-07
4.81358e-06
4.93567e-06
4.40816e-06
4.94542e-06
4.83099e-06
4.80757e-06
4.92061e-06
5.19551e-06
4.90559e-06
4.89384e-06
3.76782e-06
4.9392e-06
4.75793e-06
4.82273e-06
4.34013e-06
4.81766e-06
4.8961e-06
4.92921e-06
4.72523e-06
4.74379e-06
4.77965e-06
3.79287e-06
4.71934e-06
4.48789e-06
3.89062e-06
4.01913e-06
4.84488e-06
4.83508e-06
4.8974e-06
4.63688e-06
4.80556e-06
4.46903e-06
4.71748e-06
4.72969e-06
4.76929e-06
4.48384e-06
4.65723e-06
4.95555e-06
3.58974e-06
4.07033e-06
4.27748e-06
4.57059e-06
4.74938e-06
4.85031e-06
4.55746e-06
4.68499e-06
4.63062e-06
4.54231e-06
4.72869e-06
4.67075e-06
4.59868e-06
4.54865e-06
5.08865e-06
4.12139e-06
4.53703e-06
4.58256e-06
4.50886e-06
3.62621e-06
4.64159e-06
4.62944e-06
4.69143e-06
4.1595e-06
4.68465e-06
4.66372e-06
4.11662e-06
4.64583e-06
4.24237e-06
4.55826e-06
4.55342e-06
4.19923e-06
4.3216e-06
4.67928e-06
4.57675e-06
4.66513e-06
4.46044e-06
4.29314e-06
4.57792e-06
4.05077e-06
4.45414e-06
4.64413e-06
4.51093e-06
4.39041e-06
4.55939e-06
4.74962e-06
4.20563e-06
4.59396e-06
4.62524e-06
4.3396e-06
4.54116e-06
4.4531e-06
4.03459e-06
4.49374e-06
4.37211e-06
4.32864e-06
4.46535e-06
4.50496e-06
4.64424e-06
3.98628e-06
4.48708e-06
4.48123e-06
4.40584e-06
4.4919e-06
4.59737e-06
3.94628e-06
4.46885e-06
4.07648e-06
4.46852e-06
3.76302e-06
3.9443e-06
3.67837e-06
4.24524e-06
4.41672e-06
4.277e-06
4.28384e-06
4.36539e-06
4.14366e-06
4.39526e-06
4.06204e-06
4.27532e-06
4.37741e-06
4.48558e-06
4.36512e-06
4.42309e-06
4.39771e-06
4.40557e-06
4.28944e-06
4.4747e-06
4.51292e-06
3.79382e-06
3.5903e-06
4.25147e-06
3.76918e-06
4.20339e-06
4.19567e-06
4.08264e-06
4.30413e-06
4.51568e-06
4.31918e-06
3.88011e-06
4.2769e-06
4.18885e-06
3.85599e-06
4.37067e-06
3.70343e-06
4.20145e-06
4.2406e-06
4.42769e-06
3.70038e-06
4.18381e-06
4.2918e-06
3.91757e-06
4.21816e-06
3.68412e-06
4.10742e-06
4.23286e-06
4.38041e-06
4.0999e-06
3.68289e-06
4.17214e-06
4.38635e-06
4.01081e-06
4.08029e-06
4.60332e-06
4.30706e-06
3.55745e-06
3.62082e-06
4.16973e-06
4.11336e-06
4.01921e-06
4.10093e-06
3.84205e-06
4.1632e-06
3.58445e-06
4.18856e-06
4.18e-06
4.16305e-06
4.13951e-06
4.25954e-06
4.18252e-06
3.86625e-06
3.59834e-06
4.0252e-06
4.14701e-06
4.07154e-06
4.13713e-06
4.16836e-06
4.00391e-06
4.06217e-06
3.48937e-06
3.93087e-06
4.07985e-06
4.01276e-06
3.92268e-06
3.9248e-06
3.50025e-06
3.79996e-06
3.99238e-06
4.11484e-06
3.93717e-06
3.97636e-06
3.93928e-06
3.81113e-06
3.9426e-06
4.01126e-06
4.12254e-06
3.97821e-06
3.40701e-06
4.00363e-06
3.88813e-06
3.84257e-06
3.83488e-06
3.38623e-06
3.8744e-06
3.84926e-06
3.83693e-06
3.39424e-06
3.7541e-06
3.89572e-06
3.57606e-06
3.47962e-06
3.37001e-06
3.94692e-06
3.55816e-06
3.76123e-06
3.48805e-06
3.89224e-06
3.99214e-06
3.79247e-06
3.82582e-06
3.4599e-06
3.66505e-06
3.32282e-06
3.74658e-06
3.84978e-06
3.64803e-06
3.56584e-06
3.98744e-06
3.15007e-06
3.72323e-06
3.80581e-06
3.68736e-06
3.72272e-06
3.74252e-06
3.74875e-06
3.66072e-06
3.23748e-06
3.55127e-06
3.84504e-06
3.67314e-06
3.89938e-06
3.65779e-06
3.63614e-06
3.30546e-06
3.72443e-06
3.58525e-06
3.15291e-06
3.23404e-06
3.93771e-06
4.0751e-06
3.58501e-06
3.72872e-06
3.6418e-06
4.02647e-06
3.06804e-06
3.55145e-06
3.67221e-06
3.66984e-06
3.67328e-06
3.71189e-06
3.76684e-06
3.65421e-06
3.07544e-06
3.56822e-06
3.49678e-06
3.14054e-06
3.55556e-06
3.67161e-06
3.64811e-06
3.06709e-06
3.53648e-06
3.4967e-06
3.39127e-06
3.53608e-06
3.48487e-06
3.72967e-06
3.57248e-06
3.47009e-06
3.20521e-06
3.537e-06
3.44827e-06
2.9855e-06
3.61439e-06
3.64002e-06
3.4081e-06
3.60976e-06
3.65057e-06
3.48852e-06
2.95125e-06
3.57275e-06
3.46339e-06
3.05615e-06
3.4557e-06
3.47755e-06
3.39969e-06
3.46872e-06
3.40842e-06
3.43549e-06
3.39741e-06
3.45808e-06
3.04529e-06
2.97058e-06
3.32016e-06
2.87615e-06
3.53485e-06
3.14384e-06
3.05607e-06
3.0374e-06
3.31958e-06
2.96617e-06
3.29947e-06
3.33903e-06
3.39544e-06
3.46517e-06
2.88186e-06
3.23195e-06
3.30966e-06
3.0532e-06
3.49933e-06
3.4695e-06
3.37195e-06
2.98257e-06
3.31083e-06
3.23127e-06
3.24618e-06
3.27328e-06
3.30101e-06
3.27742e-06
3.31959e-06
3.11348e-06
2.78779e-06
3.44097e-06
2.94769e-06
3.22167e-06
2.86229e-06
3.06709e-06
3.14302e-06
3.15813e-06
3.15934e-06
3.24074e-06
3.27023e-06
3.12391e-06
2.78371e-06
3.37115e-06
3.15472e-06
3.13333e-06
2.79733e-06
3.12227e-06
2.41346e-06
3.18574e-06
2.88048e-06
3.03557e-06
2.99435e-06
2.6904e-06
3.28265e-06
3.28164e-06
3.0546e-06
2.86935e-06
3.12678e-06
3.09811e-06
3.19496e-06
3.13424e-06
3.12445e-06
2.50374e-06
3.06359e-06
3.10707e-06
2.93297e-06
2.59896e-06
2.59273e-06
2.96624e-06
3.10911e-06
2.94858e-06
2.93659e-06
3.0193e-06
3.08774e-06
2.95785e-06
3.03759e-06
3.17906e-06
2.97183e-06
2.93146e-06
3.19785e-06