/*--------------------------------*- C++ -*----------------------------------*\
  =========                 |
  \\      /  F ield         | OpenFOAM: The Open Source CFD Toolbox
   \\    /   O peration     | Website:  https://openfoam.org
    \\  /    A nd           | Version:  8
     \\/     M anipulation  |
\*---------------------------------------------------------------------------*/
FoamFile
{
    version     2.0;
    format      ascii;
    class       volScalarField;
    location    "6";
    object      p;
}
// * * * * * * * * * * * * * * * * * * * * * * * * * * * * * * * * * * * * * //

dimensions      [0 2 -2 0 0 0 0];

internalField   nonuniform List<scalar> 
5119
(
4.00132e-06
1.0795e-05
1.07503e-05
1.03455e-05
4.72672e-06
1.0833e-05
1.07708e-05
1.07869e-05
9.8838e-06
1.85744e-06
1.03519e-05
1.91544e-06
5.03944e-06
1.05878e-05
3.49672e-06
6.26236e-06
7.24141e-06
1.06228e-06
2.62194e-06
2.71684e-06
6.27628e-06
5.51684e-06
3.62211e-06
1.69224e-06
6.68189e-06
6.01726e-06
3.69351e-06
3.72936e-06
3.75728e-06
1.00855e-06
1.33417e-06
2.60396e-06
6.08555e-06
3.44629e-06
4.16979e-06
1.06203e-06
1.04182e-06
1.05597e-06
4.51697e-06
8.01788e-06
1.07718e-05
4.73623e-06
7.38631e-06
7.41306e-06
7.79694e-06
1.07834e-05
8.23359e-06
7.85553e-06
7.83526e-06
6.94621e-06
1.06664e-05
1.03657e-05
1.1015e-05
1.07976e-05
1.06194e-05
8.19313e-06
1.0392e-05
1.07898e-05
5.6217e-06
8.44047e-06
7.60865e-06
7.343e-06
8.24276e-06
7.78936e-06
1.0782e-05
8.63337e-06
1.0671e-05
1.04711e-05
8.28156e-06
1.05853e-05
1.06843e-05
1.07939e-05
1.0668e-05
8.27913e-06
6.95505e-06
8.0153e-06
1.07901e-05
1.07698e-05
8.61639e-06
8.48368e-06
1.00511e-05
1.04812e-05
9.8619e-07
4.65178e-07
1.07878e-05
7.47541e-07
1.07838e-05
7.54619e-06
4.89728e-07
4.94304e-07
4.94659e-07
4.74837e-07
1.07882e-05
1.02947e-05
8.44604e-06
1.04033e-05
1.09714e-05
8.47683e-06
1.03782e-05
9.61726e-07
6.23214e-06
6.19105e-06
9.6473e-06
8.47939e-06
1.0789e-05
1.07978e-05
8.84657e-06
1.07197e-05
1.0483e-05
1.07918e-05
9.58346e-06
1.0797e-05
1.07946e-05
1.83707e-06
1.07844e-05
1.04482e-05
1.03273e-05
1.07964e-05
1.05346e-05
8.04537e-07
1.06777e-05
4.01584e-06
9.82953e-06
5.70298e-06
6.66674e-06
3.03578e-06
5.7402e-06
5.46255e-06
2.06461e-06
4.14825e-06
6.14041e-06
1.58877e-06
1.57413e-06
3.14391e-06
1.07957e-05
1.07065e-05
9.51797e-06
3.08411e-06
1.0711e-05
3.81379e-06
5.58884e-06
7.53852e-06
5.06953e-06
4.00158e-06
4.14128e-06
4.11678e-06
1.62966e-06
1.66163e-06
1.64845e-06
1.02645e-05
9.0378e-06
1.07967e-05
8.70502e-06
1.03162e-05
1.04156e-05
7.93521e-07
1.04248e-05
1.09565e-05
1.07395e-05
1.02082e-05
9.00504e-06
1.0806e-05
1.07448e-05
8.50318e-06
1.07937e-05
1.06814e-05
1.07945e-05
1.0791e-05
1.07924e-05
1.04411e-05
1.06812e-05
8.6508e-06
1.05303e-05
1.06201e-05
1.04755e-05
1.06133e-05
1.07107e-05
2.86386e-06
1.07995e-05
4.34419e-06
1.06906e-05
1.06699e-05
8.45982e-06
8.38396e-06
1.0793e-05
1.03825e-05
1.07933e-05
1.07187e-05
1.06804e-05
1.07761e-05
1.01914e-05
9.27676e-06
8.50486e-06
1.05451e-05
1.07839e-05
1.02258e-05
1.07949e-05
1.06633e-05
9.8226e-06
1.0821e-05
1.07922e-05
8.86178e-06
1.07929e-05
1.81866e-06
3.28606e-06
4.03188e-06
5.55032e-06
9.02635e-06
1.06556e-05
1.05199e-05
1.07546e-05
8.03054e-06
1.06564e-05
8.1546e-06
1.07254e-05
1.06394e-05
1.07086e-05
8.02198e-06
1.04522e-05
1.07208e-05
8.68507e-06
1.04344e-05
1.0801e-05
8.82665e-06
1.04436e-05
1.03322e-05
1.07894e-05
1.0783e-05
5.21431e-06
2.08092e-06
1.08046e-05
2.5722e-06
6.24585e-06
5.40072e-06
4.83471e-06
1.0667e-05
6.99168e-06
7.54008e-06
1.06562e-05
9.58016e-06
1.05243e-05
1.07524e-05
1.03543e-05
9.19782e-06
3.26707e-06
2.17756e-06
5.3834e-06
1.06703e-05
6.18461e-06
3.02057e-06
5.72617e-06
6.75818e-06
7.33691e-06
2.80979e-06
3.11144e-06
6.71687e-06
3.13124e-06
3.09809e-06
3.50762e-06
1.05914e-05
1.07297e-05
1.07047e-05
9.97045e-06
7.03051e-06
4.716e-06
4.74642e-06
4.91816e-06
5.71974e-06
1.0708e-05
7.88729e-06
1.0693e-05
1.07803e-05
1.45281e-06
5.80965e-06
1.82766e-06
1.09481e-05
9.25474e-06
7.1669e-06
9.52704e-07
6.74985e-06
7.34837e-06
3.08646e-06
3.06889e-06
6.71003e-06
3.04205e-06
2.65067e-06
3.40266e-06
5.72374e-06
1.05922e-06
1.94644e-06
6.9484e-06
2.94984e-06
6.1417e-06
1.07628e-05
3.23062e-06
6.27833e-06
7.89434e-06
1.05992e-05
1.08094e-05
8.71465e-06
1.01647e-05
5.445e-06
1.04114e-05
1.08552e-05
1.05447e-05
1.07009e-05
1.09386e-05
1.34707e-06
1.04229e-05
8.79721e-06
1.45166e-06
5.67492e-06
4.826e-06
4.88404e-06
5.34676e-06
4.84541e-06
1.07925e-05
1.08197e-05
5.85774e-06
5.8274e-06
1.0339e-05
8.34972e-06
3.33564e-06
1.08297e-05
1.02959e-05
9.384e-06
1.04238e-05
2.76503e-06
4.56895e-06
1.04689e-05
5.10606e-06
4.60694e-06
9.25699e-06
1.0698e-05
1.08423e-05
3.99598e-06
6.14935e-06
7.19975e-06
1.15236e-06
2.42552e-06
6.17773e-06
2.6926e-06
1.03519e-05
5.96992e-06
6.5662e-06
3.67865e-06
1.65158e-06
1.09952e-06
1.04578e-05
1.03842e-05
4.39552e-06
4.57841e-06
4.54793e-06
4.36674e-06
5.4314e-06
5.33979e-06
4.1327e-06
3.95065e-06
3.52822e-06
6.40184e-06
2.72352e-06
2.54578e-06
2.57168e-06
6.7249e-06
2.44659e-06
2.59212e-06
2.30657e-06
2.02797e-06
2.13415e-06
2.14936e-06
2.09366e-06
1.90536e-06
7.20773e-06
7.59979e-06
1.04235e-05
1.04974e-05
1.06571e-05
1.05525e-05
3.03711e-06
1.08874e-05
1.02516e-05
1.07419e-05
8.41276e-06
2.5805e-06
8.52028e-06
9.03086e-06
1.07812e-05
2.54442e-06
3.39237e-06
5.96223e-06
1.06793e-05
1.08056e-05
9.13972e-06
1.07346e-05
7.91886e-06
5.43487e-06
3.60922e-06
3.75553e-06
3.73419e-06
1.06575e-05
7.38194e-06
1.07316e-05
1.07817e-05
9.23476e-06
4.34343e-06
1.0355e-05
9.94243e-06
1.0798e-05
1.04884e-05
1.02189e-05
8.57896e-06
2.0864e-06
3.70891e-06
1.15925e-06
1.14364e-06
1.15841e-06
9.92591e-06
5.24011e-06
6.02844e-06
1.07276e-05
1.07341e-05
7.06183e-06
1.05111e-05
1.06981e-05
1.06842e-05
1.0464e-05
1.06975e-05
5.11576e-06
5.20076e-07
1.08624e-05
9.1253e-06
5.11958e-06
7.21938e-06
1.06981e-05
1.04937e-05
1.06524e-05
9.58609e-06
8.83088e-06
1.08397e-05
1.07073e-05
1.00436e-05
1.06279e-05
1.02441e-05
6.60817e-07
6.90697e-07
6.94374e-07
6.8193e-07
1.07308e-05
1.01946e-05
7.23269e-06
9.94353e-06
1.08091e-05
4.69196e-06
6.03983e-06
3.2128e-06
2.90517e-06
2.71102e-06
2.621e-06
2.73942e-06
2.7583e-06
7.06412e-06
7.0521e-06
2.2653e-06
6.83055e-06
1.06573e-05
1.0809e-05
4.52333e-06
9.47668e-07
4.16156e-06
4.40401e-06
4.33704e-06
4.20608e-06
5.63925e-06
5.55661e-06
3.93487e-06
3.73862e-06
3.32329e-06
6.62565e-06
2.51428e-06
2.35596e-06
2.31815e-06
2.37311e-06
6.95414e-06
2.23333e-06
2.11072e-06
1.82944e-06
1.93828e-06
1.923e-06
1.89616e-06
1.69971e-06
7.38959e-06
7.84304e-06
1.07914e-05
1.03069e-05
1.07882e-05
8.88729e-06
8.87335e-06
1.07861e-05
1.08708e-05
1.0637e-05
1.04083e-05
1.07816e-05
9.56892e-06
9.99745e-06
1.06998e-05
6.91145e-07
1.0491e-05
4.39702e-06
9.33097e-06
2.66805e-07
3.02618e-07
3.20246e-07
1.03275e-05
2.30063e-06
6.59767e-06
5.87231e-06
1.03797e-05
1.05934e-05
1.07609e-05
1.05045e-05
4.38658e-06
1.95691e-06
1.08062e-05
9.1254e-06
1.01679e-05
5.07608e-06
6.2719e-06
5.02591e-06
1.07995e-05
9.03306e-06
8.45624e-06
7.55572e-07
9.55539e-06
6.10763e-06
6.35847e-06
1.0766e-05
1.08014e-05
8.85592e-06
1.04087e-05
2.08524e-06
6.58061e-06
5.90525e-06
8.39446e-06
5.5665e-06
4.8124e-06
4.68546e-06
4.63515e-06
1.04485e-05
1.03679e-05
6.75445e-06
1.0516e-05
8.7596e-06
1.0769e-05
1.07424e-05
1.08757e-05
7.44106e-06
2.32875e-06
8.07085e-06
1.03655e-05
4.84805e-06
1.02521e-05
1.08009e-05
1.03464e-05
9.66121e-06
1.0868e-05
1.07988e-05
1.05953e-05
2.54487e-06
1.07127e-05
9.59823e-06
9.94443e-06
5.30155e-06
1.07721e-05
1.08464e-05
1.06617e-05
9.18693e-06
1.02572e-05
1.07486e-05
1.07641e-05
1.07793e-05
1.9678e-07
1.90058e-07
1.98632e-07
9.72296e-06
1.05415e-05
1.05473e-05
1.08825e-05
1.07825e-05
4.32074e-06
3.94316e-06
1.08046e-05
1.07964e-05
1.08126e-05
8.95624e-06
1.05752e-05
1.06962e-05
6.86589e-06
6.86892e-06
2.88176e-06
2.8626e-06
2.86043e-06
3.34498e-06
5.84615e-06
3.06732e-06
2.77458e-06
8.77958e-06
1.08556e-05
9.87057e-06
1.07696e-05
1.07514e-05
6.38898e-06
1.0775e-05
1.04414e-05
7.90434e-06
9.8802e-06
1.0797e-05
1.06035e-05
1.08125e-05
9.35867e-06
1.07492e-05
1.0729e-05
1.07014e-05
1.03616e-05
1.07823e-05
6.25242e-06
5.04561e-06
9.88959e-06
1.08144e-05
1.07087e-05
1.07218e-05
1.07702e-05
1.05634e-05
9.20323e-06
4.83179e-06
1.39905e-06
1.05618e-05
9.40516e-06
1.48307e-06
5.40619e-06
1.33694e-06
6.4225e-06
3.33775e-06
3.35848e-06
6.96583e-06
6.38834e-06
3.05818e-06
3.30734e-06
3.70779e-06
1.06121e-05
7.84946e-06
1.0405e-05
4.85411e-07
1.08229e-05
1.07458e-05
1.03953e-05
1.07934e-05
1.08193e-05
5.1556e-07
1.07194e-05
1.0798e-05
7.41672e-06
1.52769e-06
7.82284e-06
9.6762e-06
1.08389e-05
9.11644e-06
1.01528e-05
1.08012e-05
1.03922e-05
6.65721e-07
1.03707e-06
1.07619e-05
1.07553e-05
9.63397e-06
1.02249e-05
1.0804e-05
9.59474e-06
1.06929e-05
1.07838e-05
1.04296e-05
5.08193e-06
1.58482e-06
3.05233e-06
3.80591e-06
5.56246e-06
1.07651e-05
2.22488e-07
2.13368e-07
2.62171e-07
9.69622e-06
1.07822e-05
1.08608e-05
6.34852e-06
1.07267e-05
7.53904e-06
2.41532e-07
2.67911e-07
1.07941e-05
8.35654e-07
2.34044e-06
6.62183e-06
3.25847e-06
5.84836e-06
6.80369e-06
1.04469e-05
5.70069e-06
1.08005e-05
1.07715e-05
1.05365e-05
1.08009e-05
1.06753e-05
1.07918e-05
1.03759e-05
1.04379e-05
7.80591e-06
1.06055e-05
9.35183e-06
9.33313e-06
8.75759e-06
1.07665e-05
1.06177e-05
8.72077e-06
1.07158e-05
7.78833e-06
1.05197e-05
1.07764e-05
1.78624e-06
1.0443e-05
9.9604e-06
1.08711e-05
1.05686e-05
9.38789e-06
1.05248e-05
1.04621e-05
1.07034e-05
2.08263e-07
2.1297e-07
2.18094e-07
2.513e-07
2.01263e-07
1.07774e-05
1.05587e-05
8.73914e-06
1.08299e-05
1.07938e-05
1.08116e-05
1.06611e-05
1.04212e-05
1.01884e-05
4.60549e-06
4.59158e-06
4.63502e-06
5.02316e-06
4.69041e-06
4.96856e-06
1.08035e-05
1.07195e-05
4.08839e-06
4.26854e-06
4.69416e-06
5.02046e-06
5.13806e-06
5.19042e-06
5.49087e-06
5.35906e-06
3.95389e-06
3.65727e-06
6.0719e-06
2.9146e-06
2.70504e-06
2.60639e-06
2.43591e-06
6.45501e-06
2.71255e-06
2.72817e-06
2.66759e-06
2.23654e-06
2.27551e-06
2.25917e-06
6.81263e-06
2.13608e-06
2.02778e-06
7.03423e-06
1.75856e-06
7.56231e-06
7.50202e-06
7.63892e-06
4.73461e-06
4.64099e-06
4.69743e-06
4.50992e-06
4.91211e-06
1.08008e-05
9.05273e-06
1.08025e-05
3.54916e-06
1.1316e-05
1.07936e-05
1.07925e-05
1.07395e-05
4.96847e-06
5.01975e-06
4.69394e-06
1.08141e-05
1.04979e-05
1.07784e-05
1.07873e-05
1.08488e-05
8.05911e-06
1.00061e-05
1.06508e-05
9.66518e-06
1.04556e-05
1.04285e-05
9.9856e-06
1.06698e-05
1.08026e-05
1.08619e-05
4.7035e-06
1.07395e-05
1.06431e-05
1.07209e-05
3.69262e-07
3.60161e-07
3.48513e-07
1.08013e-05
1.03705e-05
1.07229e-05
1.08128e-05
9.4056e-06
1.07819e-05
6.06643e-06
1.07302e-05
1.07235e-05
1.07623e-05
9.90892e-06
1.02484e-05
1.00223e-05
1.07947e-05
1.08597e-05
1.06673e-05
7.74196e-06
1.05325e-05
4.45922e-06
4.45274e-06
8.76374e-06
9.63735e-06
1.07743e-05
1.07259e-05
1.07944e-05
1.08693e-05
9.20023e-06
1.07903e-05
1.08939e-05
1.00866e-05
1.07875e-05
1.04895e-05
4.43137e-06
4.35615e-06
5.47489e-06
4.2268e-06
5.45497e-06
5.25726e-06
5.18176e-06
5.87289e-06
3.6284e-06
3.4538e-06
3.34512e-06
6.40446e-06
2.63119e-06
1.83725e-06
1.94623e-06
1.91292e-06
1.96417e-06
2.16239e-06
7.23876e-06
7.09565e-06
1.03812e-05
7.50983e-06
5.65816e-06
6.85935e-06
1.07933e-05
1.07919e-05
9.39026e-06
1.04004e-05
1.04612e-05
1.07003e-05
1.00874e-05
8.56402e-06
1.02555e-05
4.7714e-06
9.48281e-06
1.07216e-05
8.33279e-06
1.0334e-05
1.06823e-05
8.93551e-06
1.04127e-05
6.27559e-06
7.53543e-06
9.92063e-06
1.04278e-05
1.01835e-05
9.73315e-06
9.48852e-06
1.00742e-05
1.0239e-05
1.08102e-05
1.00635e-05
1.0673e-05
1.02207e-05
1.06971e-05
1.02532e-05
1.01951e-05
7.53734e-06
5.267e-06
1.06644e-05
9.91009e-06
1.04364e-05
1.07284e-05
7.25866e-06
9.37092e-06
7.64099e-06
1.08134e-05
1.02432e-05
8.67258e-06
1.02045e-05
1.03007e-05
1.08021e-05
1.04938e-05
9.20583e-06
1.08096e-05
8.98609e-06
5.01784e-06
5.44979e-06
5.52177e-06
3.50082e-06
3.73872e-06
3.21502e-06
5.89944e-06
3.13885e-06
3.12738e-06
6.55684e-06
3.25641e-06
3.23367e-06
6.66034e-06
7.02333e-06
6.48287e-06
2.38688e-06
1.07988e-05
1.04974e-05
1.02972e-05
1.00804e-05
1.05021e-05
1.01697e-05
1.06303e-05
9.37179e-06
4.69474e-06
1.0788e-05
4.98311e-06
4.97211e-06
8.73479e-06
4.75686e-06
1.0801e-05
1.07887e-05
6.61439e-06
1.03305e-05
1.07352e-05
7.049e-06
7.11971e-06
6.93464e-06
7.58385e-06
1.06675e-05
1.07817e-05
7.61854e-06
7.03211e-06
7.41054e-06
1.05606e-05
1.0254e-05
1.10417e-05
1.07939e-05
1.0403e-05
1.03044e-05
1.08245e-05
6.74111e-06
7.78051e-06
1.06849e-05
1.07934e-05
1.07409e-05
1.07732e-05
8.73538e-06
1.08324e-05
6.63363e-06
8.59291e-06
1.07004e-05
2.16602e-06
1.06785e-05
1.01115e-05
1.07067e-05
7.94944e-06
1.07369e-05
1.02677e-05
5.63399e-06
5.5348e-06
3.92992e-06
3.85498e-06
3.32885e-06
6.63098e-06
2.67053e-06
2.45514e-06
2.46224e-06
6.93515e-06
2.47853e-06
2.34413e-06
2.21151e-06
1.80607e-06
1.93733e-06
1.92495e-06
1.90365e-06
1.66724e-06
7.28782e-06
7.82965e-06
4.41972e-06
4.28744e-06
4.46269e-06
4.19157e-06
1.079e-05
1.07407e-05
9.07989e-06
1.07741e-05
1.05016e-05
1.05409e-05
1.08175e-05
1.07765e-05
1.06294e-05
6.58852e-07
1.07517e-05
6.09386e-06
3.21021e-06
3.10301e-06
2.8686e-06
2.78986e-06
2.87002e-06
2.88924e-06
7.01607e-06
6.97988e-06
1.07934e-05
2.66674e-06
7.16368e-06
4.93996e-06
1.06946e-05
1.0338e-05
1.04431e-05
1.05732e-05
1.05549e-05
1.06468e-05
1.08248e-05
1.07345e-05
1.06658e-05
1.01103e-05
1.07154e-05
2.03076e-06
1.06398e-05
1.08055e-05
4.23325e-06
4.25675e-06
5.17895e-06
5.1812e-06
4.76072e-06
1.0699e-05
1.07904e-05
1.04389e-05
1.07405e-05
4.72342e-06
1.01563e-05
1.08104e-05
1.06853e-05
1.04087e-05
1.16365e-06
1.14863e-06
1.17044e-06
4.07641e-06
1.04264e-05
1.07056e-05
1.07954e-05
8.87549e-06
9.3834e-06
1.00802e-05
1.07836e-05
1.0795e-05
1.04853e-05
1.07954e-05
1.06846e-05
1.02821e-05
1.08044e-05
5.18117e-06
1.07617e-05
1.07875e-05
1.05881e-05
1.07599e-05
1.02765e-05
6.84956e-06
9.74022e-06
1.07969e-05
1.06946e-05
4.49384e-06
1.07196e-05
5.02316e-06
1.00513e-05
1.07319e-05
1.00749e-05
8.81252e-06
1.05409e-05
4.72155e-06
4.9726e-06
4.72432e-06
1.05167e-05
1.07048e-05
1.0702e-05
1.02234e-05
1.03047e-05
1.06202e-05
1.04033e-05
4.93326e-06
4.93832e-06
4.86124e-06
8.5103e-06
1.08258e-05
1.07129e-05
1.05426e-05
1.01774e-05
1.08091e-05
1.02754e-05
1.04837e-05
1.02367e-05
1.07901e-05
1.07194e-05
1.06561e-05
1.08074e-05
1.05853e-05
1.05337e-05
1.00602e-05
1.06524e-05
1.06727e-05
4.94391e-06
4.96154e-06
8.00536e-06
1.05e-05
1.08033e-05
1.02895e-05
1.08094e-05
1.05097e-05
1.00371e-05
1.07352e-05
4.32907e-06
1.07643e-05
8.38923e-06
1.08887e-05
1.08006e-05
1.04007e-05
1.07383e-05
1.04366e-05
1.0841e-05
1.04622e-05
1.0763e-05
1.07343e-05
1.05765e-05
1.07779e-05
4.85708e-06
4.78452e-06
4.89013e-06
1.03041e-05
1.07462e-05
1.07215e-05
1.07914e-05
1.07121e-05
1.08134e-05
1.02048e-05
1.05445e-05
1.016e-05
1.43839e-06
3.41387e-06
2.57439e-06
6.06019e-06
1.07942e-05
1.08017e-05
1.06735e-05
1.08283e-05
1.04185e-05
1.07993e-05
1.07944e-05
1.07963e-05
1.0638e-05
7.84987e-06
1.07946e-05
1.07264e-05
1.06927e-05
1.43671e-06
1.41895e-06
1.44639e-06
7.72219e-06
1.07877e-05
1.07881e-05
1.07506e-05
1.07853e-05
1.07834e-05
1.02462e-05
1.07012e-05
1.07287e-05
1.01606e-05
1.06187e-05
4.79111e-06
1.04622e-05
1.07698e-05
1.07983e-05
4.57109e-06
1.07361e-05
1.03307e-05
1.07384e-05
1.04666e-05
9.58713e-06
1.07781e-05
1.05291e-05
1.08026e-05
1.0697e-05
1.0812e-05
1.07243e-05
9.76736e-06
1.07453e-05
1.07828e-05
1.07429e-05
1.06574e-05
1.07445e-05
1.03539e-05
1.07619e-05
1.03137e-05
1.07804e-05
4.68281e-06
3.66119e-06
5.50864e-06
1.92641e-06
2.72314e-06
2.56928e-06
6.1697e-06
1.17462e-06
6.20902e-06
7.2258e-06
1.0697e-05
1.07242e-05
1.07998e-05
1.0802e-05
9.82003e-06
1.01277e-05
1.06408e-05
1.07624e-05
1.07926e-05
1.03727e-05
1.07536e-05
9.60467e-06
1.05117e-05
1.06867e-05
3.24114e-06
3.26252e-06
5.55596e-06
6.575e-06
5.11707e-06
3.63834e-06
3.22979e-06
6.51387e-06
2.12193e-06
7.10106e-06
2.95093e-06
1.21235e-06
1.35268e-06
1.05603e-05
1.07411e-05
1.07853e-05
1.07724e-05
1.06713e-05
1.05676e-05
1.04327e-05
9.66232e-06
1.01154e-05
8.52204e-06
1.05263e-05
1.08033e-05
1.09893e-05
1.08047e-05
1.00397e-05
1.05905e-05
1.07833e-05
1.07104e-05
9.64466e-06
3.74195e-07
1.07934e-05
6.81116e-06
1.07584e-05
1.0152e-05
8.39797e-06
1.0789e-05
1.07924e-05
1.08073e-05
7.78604e-06
1.04039e-05
1.06806e-05
1.081e-05
9.3474e-06
1.0552e-05
1.01866e-05
1.08085e-05
1.06429e-05
1.05561e-05
1.00487e-05
1.02543e-05
1.02156e-05
1.08041e-05
1.03247e-05
1.06105e-05
1.06891e-05
1.07084e-05
1.0146e-05
1.07932e-05
1.07436e-05
1.07724e-05
1.07548e-05
1.05699e-05
5.73354e-07
5.66198e-07
5.5056e-07
5.77137e-07
5.82598e-07
8.81382e-06
1.06892e-05
1.00487e-05
1.06166e-05
2.91695e-07
2.77124e-07
1.03304e-05
7.59209e-06
1.07969e-05
1.06242e-05
1.07113e-05
1.03905e-05
9.12682e-06
3.88413e-06
1.08108e-05
1.05647e-05
1.07513e-05
1.08003e-05
1.06469e-05
1.04896e-05
5.68888e-06
1.07731e-05
1.03734e-05
1.02028e-05
1.02992e-05
1.06941e-05
1.01456e-05
1.02292e-05
1.11275e-06
5.60324e-06
1.06446e-05
3.66839e-06
3.70925e-06
3.73346e-06
6.0261e-06
1.65805e-06
6.65539e-06
1.08008e-05
1.04574e-05
1.08071e-05
1.01686e-05
1.06793e-05
1.05253e-05
2.21988e-06
3.154e-06
6.0113e-06
6.79726e-06
4.64143e-06
1.02055e-05
1.0823e-05
9.75835e-06
5.06155e-06
5.10464e-06
4.66674e-06
4.48689e-06
1.08105e-05
1.02414e-05
1.07499e-05
1.01421e-05
3.34589e-06
1.07884e-05
1.09574e-05
1.04087e-05
1.02159e-05
1.0741e-05
1.01926e-05
2.62953e-07
1.03624e-05
1.07154e-05
1.07986e-05
1.07726e-05
1.06072e-05
1.07097e-05
4.69293e-06
1.01526e-05
1.07512e-05
1.21581e-06
1.0684e-05
1.06009e-05
2.62285e-07
2.42044e-07
2.5553e-07
2.53208e-07
2.49588e-07
1.08001e-05
1.07906e-05
1.07749e-05
6.5129e-06
1.05885e-05
1.02037e-05
1.01341e-05
1.03861e-05
1.0679e-05
1.07473e-05
1.07648e-05
1.08118e-05
1.0786e-05
1.08143e-05
1.08022e-05
1.07754e-05
1.02882e-05
1.07412e-05
1.0429e-05
1.07478e-05
9.50525e-06
8.1332e-06
1.08032e-05
1.03267e-05
8.11704e-06
1.07735e-05
6.9416e-06
4.8814e-06
1.08061e-05
1.07947e-05
1.05682e-05
3.4898e-06
8.14951e-06
1.07989e-05
1.03701e-05
1.00288e-05
1.06884e-05
1.06091e-05
1.07235e-05
1.07969e-05
1.0393e-05
1.07992e-05
1.07471e-05
1.07435e-05
1.07982e-05
1.08202e-05
1.08117e-05
4.56341e-06
1.06385e-05
1.02631e-05
1.07974e-05
1.03911e-05
1.0705e-05
1.03996e-05
1.07718e-05
9.90077e-06
1.03005e-05
4.61914e-06
1.06867e-05
1.01497e-05
1.08866e-05
1.07976e-05
1.03596e-05
1.06036e-05
1.08063e-05
1.06235e-05
9.62603e-06
1.06496e-05
1.07318e-05
1.03543e-05
5.06079e-06
1.07979e-05
1.06755e-05
1.07977e-05
1.075e-05
1.07884e-05
1.0802e-05
1.07823e-05
1.06757e-05
3.6761e-06
5.77436e-06
2.86556e-06
1.70257e-06
6.97772e-06
1.05366e-05
9.15877e-06
8.90978e-06
1.01943e-05
1.02742e-05
1.07913e-05
1.07764e-05
9.89398e-06
1.06343e-05
4.48725e-06
4.52023e-06
1.06123e-05
2.12186e-07
2.21672e-07
1.07843e-05
4.9138e-06
1.06542e-05
1.04305e-05
1.07932e-05
1.07086e-05
1.07792e-05
7.56097e-06
1.07913e-05
1.07392e-05
1.07456e-05
5.77191e-06
1.12075e-05
1.0792e-05
1.04771e-05
1.05505e-05
1.07364e-05
1.06395e-05
8.2803e-06
1.03603e-05
1.0415e-05
1.07961e-05
8.15772e-06
8.53982e-06
1.01266e-05
1.0744e-05
1.07947e-05
1.065e-05
1.03169e-05
1.05932e-05
1.02353e-05
1.07917e-05
1.02806e-05
1.0049e-05
8.53908e-06
3.13916e-07
1.04865e-05
1.0796e-05
8.42456e-06
1.07928e-05
1.045e-05
1.06379e-05
1.0091e-05
1.03527e-05
1.05985e-05
1.07932e-05
1.05918e-05
8.21238e-06
1.00371e-05
9.4572e-06
1.07868e-05
1.00914e-05
4.91867e-06
1.03899e-05
9.72148e-06
1.02287e-05
1.07911e-05
1.08035e-05
1.00615e-06
9.64154e-07
9.68104e-07
6.15658e-06
1.07237e-05
6.32377e-06
1.07694e-05
4.23545e-06
1.0871e-05
1.03121e-05
1.06161e-05
1.05991e-05
1.07276e-05
1.01861e-05
8.53525e-06
1.03844e-05
1.03237e-05
5.67075e-06
1.06405e-05
1.08031e-05
1.07851e-05
1.11017e-05
1.07043e-05
1.07957e-05
6.46615e-06
1.09526e-05
1.06287e-05
1.07894e-05
1.08164e-05
1.05895e-05
5.1057e-06
7.4273e-06
1.0152e-05
1.05987e-05
1.01472e-05
1.06606e-05
9.43719e-06
1.05847e-05
1.06007e-05
1.08031e-05
1.08276e-05
1.03777e-05
9.74592e-06
1.08046e-05
1.07921e-05
1.04253e-05
1.07938e-05
7.63524e-06
1.07744e-05
1.06803e-05
1.01146e-05
1.06754e-05
1.02e-05
1.01503e-05
1.03827e-05
1.07814e-05
1.05992e-05
1.05217e-05
1.07915e-05
1.08028e-05
8.06304e-06
1.0798e-05
8.54555e-06
1.07979e-05
1.05793e-05
1.04851e-05
1.08335e-05
1.04126e-05
1.08055e-05
1.07076e-05
1.06704e-05
1.07979e-05
1.04379e-05
1.02845e-05
1.05434e-05
1.08114e-05
1.02714e-05
1.07951e-05
1.01866e-05
8.18994e-06
1.07995e-05
8.07621e-06
1.09014e-05
1.08014e-05
1.0792e-05
1.07689e-05
1.04948e-05
1.07817e-05
1.08456e-05
1.05115e-05
1.07539e-05
1.74176e-06
1.72858e-06
1.70499e-06
7.58725e-06
1.07916e-05
1.07627e-05
1.03398e-05
1.0005e-05
1.07599e-05
1.02928e-05
1.08203e-05
1.08009e-05
1.1202e-05
1.13007e-05
1.09513e-05
1.08077e-05
1.03566e-05
7.94482e-06
1.0767e-05
1.03637e-05
1.04099e-05
8.51544e-06
1.07727e-05
1.08035e-05
1.07313e-05
1.06975e-05
1.07029e-05
1.0579e-05
1.06631e-05
1.07924e-05
1.07752e-05
1.07075e-05
5.78584e-06
7.7386e-06
1.07926e-05
7.68403e-06
7.26363e-06
1.01359e-05
7.9164e-06
1.08045e-05
1.02875e-05
1.05809e-05
1.07893e-05
1.07883e-05
1.06669e-05
1.05868e-05
7.24175e-06
1.07829e-05
1.05374e-05
6.72931e-06
1.07552e-05
1.06491e-05
1.0715e-05
1.07457e-05
1.0788e-05
1.05244e-05
1.04075e-05
1.08845e-05
1.05633e-05
1.05395e-05
3.97327e-06
1.04279e-05
1.07525e-05
1.07995e-05
1.07791e-05
1.035e-05
1.06941e-05
7.02577e-07
1.09198e-05
1.91353e-06
1.07745e-05
1.06947e-05
1.07673e-05
1.08029e-05
1.07966e-05
1.06123e-05
1.07208e-05
1.01914e-05
1.07775e-05
3.55875e-06
1.31139e-06
3.30347e-06
1.5929e-06
2.44464e-06
6.17051e-06
5.9046e-06
2.72929e-06
1.07738e-05
1.07502e-05
1.07766e-05
1.07839e-05
1.07923e-05
6.44052e-06
1.01084e-05
1.07762e-05
1.03941e-05
1.04037e-05
1.04063e-05
6.65041e-06
1.07974e-05
1.04568e-05
1.08105e-05
1.06805e-05
1.07744e-05
1.08138e-05
1.0342e-05
1.07515e-05
1.05495e-05
1.07971e-05
1.06272e-05
9.69835e-06
1.07759e-05
1.08189e-05
1.08031e-05
1.0655e-05
1.07756e-05
1.0732e-05
1.07779e-05
1.07855e-05
1.05064e-05
1.07612e-05
1.05999e-05
4.07057e-06
1.07744e-05
1.07686e-05
1.07789e-05
1.06656e-05
7.06448e-06
1.04519e-05
2.80011e-06
1.06617e-05
1.0521e-05
1.07626e-05
1.08104e-05
1.0286e-06
1.02071e-05
1.08053e-05
1.07617e-05
1.08035e-05
9.98984e-06
1.05051e-05
1.07554e-05
1.0747e-05
1.02863e-05
1.07619e-05
1.0428e-05
1.07982e-05
9.8424e-06
1.07828e-05
1.05476e-05
1.05488e-05
1.07617e-05
1.0228e-05
1.05266e-05
1.03035e-05
1.04767e-05
1.07945e-05
1.055e-05
1.04754e-05
5.08517e-06
1.07985e-05
1.06221e-05
1.07775e-05
1.06985e-05
1.07964e-05
1.04234e-05
9.71477e-06
3.75664e-06
1.07887e-05
1.08019e-05
8.80659e-06
8.55807e-06
1.07656e-05
1.07844e-05
1.0781e-05
1.08045e-05
1.09729e-05
1.00544e-06
1.05138e-06
1.03817e-06
1.05746e-06
1.32073e-06
1.29607e-06
1.31235e-06
3.54513e-06
1.51359e-06
6.76718e-06
3.58557e-06
3.60905e-06
6.00073e-06
4.91674e-06
3.94062e-06
1.60045e-06
1.06894e-05
1.08186e-05
1.03063e-05
1.01447e-05
1.08e-05
9.98929e-06
3.25748e-06
2.31473e-06
1.44059e-06
5.75764e-06
2.14324e-06
6.5035e-06
1.06472e-05
6.34373e-06
3.19807e-06
1.66866e-06
1.03109e-05
8.10728e-06
4.98509e-06
1.04689e-05
1.07814e-05
1.07982e-05
7.32939e-06
1.06233e-05
9.0865e-07
9.49862e-07
9.37743e-07
9.55231e-07
1.07477e-05
1.08004e-05
1.03668e-05
1.08124e-05
1.05882e-05
1.07732e-05
1.05863e-05
4.66942e-06
7.85296e-06
5.30722e-06
3.41435e-06
3.43504e-06
3.39441e-06
3.75834e-06
6.26256e-06
3.19385e-06
6.23097e-06
6.82783e-06
2.37007e-06
1.44713e-06
1.21108e-06
1.07664e-05
1.05889e-05
1.01904e-05
1.07934e-05
1.07228e-05
8.51086e-06
1.02666e-05
1.06187e-05
3.40983e-06
5.68396e-06
6.42985e-06
2.48631e-06
2.33336e-06
9.54673e-07
1.07766e-05
1.04021e-05
1.05693e-05
1.08176e-05
1.07949e-05
1.07833e-05
1.07968e-05
1.02925e-05
6.91367e-06
1.07722e-05
7.06403e-06
1.07392e-05
1.0529e-05
1.0775e-05
1.08128e-05
1.05671e-05
1.08098e-05
1.08092e-05
1.07266e-05
1.04809e-05
1.07987e-05
1.0266e-05
1.06668e-05
1.08434e-05
1.07941e-05
1.07515e-05
1.07905e-05
1.08031e-05
1.08012e-05
1.0538e-05
7.29605e-06
1.02997e-05
1.07783e-05
1.02548e-05
1.03132e-05
1.07999e-05
1.0506e-05
1.0664e-05
7.42441e-06
9.38798e-06
1.06938e-05
1.07201e-05
1.05707e-05
1.07947e-05
1.05695e-05
1.07864e-05
1.07944e-05
1.07926e-05
1.0533e-05
1.06224e-05
1.00342e-05
6.83654e-07
7.06753e-07
7.17306e-07
7.15265e-07
1.03776e-05
1.07653e-05
1.06385e-05
1.64588e-06
1.07703e-05
8.02534e-06
1.07757e-05
1.08096e-05
1.05176e-05
1.08011e-05
1.07997e-05
1.05586e-05
1.07836e-05
2.91606e-06
1.05654e-05
1.07911e-05
1.08018e-05
1.01975e-05
1.04414e-05
1.08031e-05
1.06593e-05
1.0267e-05
1.07871e-05
1.08024e-05
1.05118e-05
1.07593e-05
1.08084e-05
1.0788e-05
1.02721e-05
1.07718e-05
1.07994e-05
1.07849e-05
1.02613e-05
1.06815e-05
1.05938e-05
1.03846e-05
1.53368e-06
1.51206e-06
1.54363e-06
7.62779e-06
1.07964e-05
1.0796e-05
1.07866e-05
1.0786e-05
1.08672e-05
1.07788e-05
1.00689e-05
1.06029e-05
1.07793e-05
1.08081e-05
1.0796e-05
1.07839e-05
1.07908e-05
7.98394e-06
1.08017e-05
1.02975e-05
1.08107e-05
1.0338e-05
9.85577e-06
1.07981e-05
1.06382e-05
1.0485e-05
1.08091e-05
1.07244e-05
1.07953e-05
1.0401e-05
1.08007e-05
8.51374e-06
1.07606e-05
1.07997e-05
1.07936e-05
1.07987e-05
1.08024e-05
1.07395e-05
1.07879e-05
1.04844e-05
1.08132e-05
1.07886e-05
1.07932e-05
1.065e-05
1.0767e-05
1.07945e-05
1.07954e-05
1.04682e-05
1.01123e-05
1.05355e-05
1.05617e-05
1.07853e-05
1.07761e-05
1.07716e-05
1.07639e-05
1.07391e-05
1.82781e-07
1.26781e-07
1.84774e-07
1.89943e-07
1.89937e-07
1.07977e-05
1.08007e-05
1.07834e-05
1.08276e-05
1.07813e-05
1.07853e-05
1.08032e-05
1.05242e-05
1.06944e-05
1.07906e-05
1.08028e-05
1.07895e-05
1.08534e-05
1.07686e-05
1.04877e-05
1.07044e-05
1.07882e-05
1.08152e-05
7.54631e-06
1.07863e-05
1.07494e-05
1.07922e-05
8.12876e-06
1.07592e-05
1.08086e-05
9.37237e-06
1.04356e-05
9.87109e-06
1.05053e-05
9.86962e-06
1.04593e-05
1.08328e-05
1.07953e-05
1.06044e-05
1.07852e-05
1.06249e-05
9.02934e-06
1.07123e-05
1.071e-05
1.0796e-05
1.02213e-05
1.08129e-05
1.07801e-05
1.0806e-05
1.0188e-05
1.04858e-05
1.07609e-05
1.03451e-05
1.08072e-05
1.06378e-05
1.09016e-05
1.06916e-05
8.14258e-06
1.07963e-05
1.06084e-05
1.03555e-05
1.02521e-05
1.07731e-05
1.00044e-05
1.07841e-05
1.09344e-05
1.05372e-05
1.07828e-05
1.08047e-05
6.79861e-06
1.07963e-05
1.06406e-05
1.08111e-05
1.08046e-05
1.0647e-05
8.35246e-06
1.08226e-05
1.07966e-05
1.07826e-05
1.07945e-05
1.07636e-05
8.25659e-06
1.07805e-05
1.07878e-05
1.0794e-05
7.67646e-06
1.07854e-05
1.07973e-05
1.07967e-05
1.07978e-05
1.08645e-05
1.06396e-05
1.07958e-05
1.07802e-05
1.08126e-05
8.29519e-06
1.09275e-05
1.07649e-05
1.07975e-05
1.05455e-05
1.0465e-05
1.07866e-05
1.09156e-05
1.00511e-05
1.04866e-05
7.18178e-06
8.05035e-06
1.07901e-05
1.07882e-05
5.33733e-07
1.07763e-05
7.63801e-06
1.07991e-05
1.08048e-05
7.18292e-06
6.72918e-06
6.19763e-06
6.31143e-06
7.10161e-06
6.13686e-06
5.17296e-06
4.05994e-06
7.07318e-06
2.66713e-06
2.18594e-06
2.50979e-06
3.23204e-06
3.25403e-06
7.3819e-06
3.67532e-06
2.67686e-06
5.89227e-06
6.7663e-06
3.55638e-06
5.12082e-06
4.26489e-06
4.28307e-06
7.81785e-06
6.73354e-06
2.4309e-06
6.69324e-06
3.99479e-06
5.54979e-06
2.21234e-06
5.66446e-06
5.00165e-06
1.64256e-06
4.00181e-06
5.58876e-06
5.6809e-06
2.16669e-06
7.32947e-06
2.05562e-06
5.68723e-06
2.21983e-06
2.23263e-06
5.95313e-06
6.29116e-06
2.24879e-06
3.086e-06
3.10741e-06
6.65224e-06
5.21424e-06
6.80055e-06
5.7192e-06
7.08873e-06
3.18258e-06
5.21422e-06
2.82593e-06
1.6831e-06
5.36027e-06
4.67053e-06
6.13443e-06
3.11547e-06
2.81615e-06
7.56838e-06
5.1442e-06
3.45194e-06
3.92762e-06
3.19958e-06
6.852e-06
1.5148e-06
2.79513e-06
2.01927e-06
4.15525e-06
5.18974e-06
4.44549e-06
7.00396e-06
4.20854e-06
7.94629e-06
9.47496e-07
4.24173e-06
7.47337e-06
4.45513e-06
2.28333e-06
2.24141e-06
2.25671e-06
7.47549e-06
6.97405e-06
3.21747e-06
7.07235e-06
2.49589e-06
7.70402e-06
3.32919e-06
3.42831e-06
2.87691e-06
2.08501e-06
2.53709e-06
2.09047e-06
3.38413e-06
2.5435e-06
5.58455e-06
2.241e-06
1.27182e-06
3.05638e-06
6.37158e-06
7.20916e-06
2.91479e-06
1.05998e-06
2.8539e-06
6.46517e-06
5.54426e-06
5.94404e-06
3.67684e-06
4.49961e-06
5.81614e-06
1.44698e-06
3.23455e-06
3.77633e-06
4.04766e-06
5.71112e-06
2.57136e-06
3.61172e-06
1.80813e-06
2.05574e-06
5.92658e-06
3.931e-06
1.80344e-06
1.15419e-06
6.35792e-06
5.80852e-06
5.78795e-06
1.35457e-06
4.23439e-06
1.53973e-06
6.06635e-06
3.35352e-06
6.85548e-06
1.33298e-06
6.00721e-06
2.53857e-06
6.2457e-06
5.4225e-06
6.43537e-06
5.31445e-06
5.80623e-06
5.67893e-06
2.23492e-06
4.39332e-06
3.03325e-06
7.41084e-06
2.0286e-06
5.84389e-06
2.28871e-06
5.65915e-06
4.31855e-06
2.61561e-06
5.36704e-06
2.32919e-06
4.48981e-06
4.03917e-06
4.05482e-06
5.25154e-06
3.81704e-06
3.14543e-06
1.62619e-06
2.82088e-06
5.33836e-06
6.61906e-06
4.19826e-06
3.89371e-06
5.7567e-06
1.45559e-06
5.41093e-06
2.59751e-06
7.82062e-06
6.01316e-06
9.01232e-06
1.04869e-05
1.18417e-06
6.36525e-06
3.05816e-06
5.46178e-06
6.01994e-06
1.08126e-05
7.16234e-06
5.8624e-06
1.94046e-06
3.25101e-06
4.43554e-06
8.20036e-06
8.76391e-06
6.79261e-06
3.07921e-06
2.9398e-06
4.45474e-06
1.75641e-06
2.89852e-06
2.93212e-06
3.23703e-06
2.81278e-06
6.51282e-06
6.54807e-06
8.23946e-06
7.15325e-06
1.33878e-06
7.22904e-06
1.99024e-06
6.76286e-06
4.82058e-06
6.31655e-06
5.83746e-06
6.36434e-06
1.95986e-06
2.64298e-06
2.5737e-06
3.48495e-06
6.88436e-06
2.87779e-06
1.93514e-06
8.40114e-06
5.532e-06
3.943e-06
2.0056e-06
1.99299e-06
4.00935e-06
3.98417e-06
2.86984e-06
2.33082e-06
6.90237e-06
5.39587e-06
7.77744e-06
1.76653e-06
3.98336e-06
2.10225e-06
3.78618e-06
2.20547e-06
7.8342e-06
3.84077e-06
3.28622e-06
5.61896e-06
4.13927e-06
5.9881e-06
2.46357e-06
1.16813e-06
1.25389e-06
4.30304e-06
6.74602e-06
5.26927e-06
5.92334e-06
2.45752e-06
5.94811e-06
5.4765e-06
4.04471e-06
3.41315e-06
5.65642e-06
5.38453e-06
3.92076e-06
1.43792e-06
3.05735e-06
5.49435e-06
2.85179e-06
4.18541e-06
1.84653e-06
3.01996e-06
6.45564e-06
5.11871e-06
6.35057e-06
2.73605e-06
1.12079e-06
2.47587e-06
4.24777e-06
8.06588e-06
2.02433e-06
2.66546e-06
5.33513e-06
3.08414e-06
6.01398e-06
3.29831e-06
5.21837e-06
2.62316e-06
7.26357e-06
1.3757e-06
2.44965e-06
3.44408e-06
6.01614e-06
4.08844e-06
2.65676e-06
2.64324e-06
3.01748e-06
7.44159e-06