/*--------------------------------*- C++ -*----------------------------------*\
  =========                 |
  \\      /  F ield         | OpenFOAM: The Open Source CFD Toolbox
   \\    /   O peration     | Website:  https://openfoam.org
    \\  /    A nd           | Version:  8
     \\/     M anipulation  |
\*---------------------------------------------------------------------------*/
FoamFile
{
    version     2.0;
    format      ascii;
    class       surfaceScalarField;
    location    "6";
    object      phi;
}
// * * * * * * * * * * * * * * * * * * * * * * * * * * * * * * * * * * * * * //

dimensions      [0 3 -1 0 0 0 0];

internalField   nonuniform List<scalar> 
11624
(
-7.84989e-09
8.07222e-09
1.17166e-10
-3.39502e-10
-7.25785e-09
-2.28569e-10
-3.63468e-10
-2.11374e-09
1.48076e-10
1.8592e-09
1.06462e-10
8.69978e-09
-7.61937e-09
1.8719e-09
-2.95231e-09
-6.11908e-09
5.77263e-09
1.4129e-11
3.32314e-10
-6.04516e-09
4.28075e-09
1.41599e-09
3.48418e-10
-1.4276e-09
-2.91188e-10
-2.96071e-09
4.6795e-09
-9.00306e-10
2.35225e-09
3.14532e-09
-4.59727e-09
3.01003e-09
-2.34323e-09
-3.32564e-09
2.65884e-09
-3.34404e-09
-1.60394e-09
2.62119e-09
2.32679e-09
5.05701e-09
-4.64445e-09
-1.45423e-10
-2.67142e-10
1.99088e-09
4.76315e-09
-2.00072e-09
-4.75332e-09
-2.7991e-09
-4.27875e-09
2.2771e-09
4.80075e-09
-4.00457e-09
5.15635e-09
-1.17864e-09
2.68582e-11
-1.57063e-09
4.40552e-09
-3.92826e-09
1.09338e-09
-3.9658e-09
2.8159e-09
-2.7115e-09
3.8614e-09
4.16273e-09
-4.14699e-09
-4.74853e-11
3.17508e-11
-3.69595e-09
4.79119e-09
-1.1659e-09
7.06685e-11
-2.75071e-09
3.85697e-09
-4.51856e-09
3.4123e-09
-3.21557e-09
-1.57637e-09
1.93671e-09
2.85524e-09
3.33628e-09
-3.78251e-09
2.4927e-10
1.96968e-10
-3.61676e-09
4.43482e-09
-3.63434e-10
-4.54627e-10
5.34748e-09
-5.38884e-09
6.90852e-11
-2.77316e-11
6.26011e-09
-2.0651e-09
9.63189e-10
-5.15819e-09
5.03245e-09
-4.72866e-09
-2.99022e-10
-4.76755e-12
-4.84173e-09
1.43066e-09
4.27902e-09
-8.67944e-10
2.46571e-09
-3.99488e-09
-3.38754e-09
4.91671e-09
2.55656e-09
-2.38389e-09
-3.1334e-09
2.96073e-09
-2.74001e-09
3.35938e-09
-4.26519e-09
3.64582e-09
-5.86885e-09
4.56071e-09
-3.95117e-09
5.25931e-09
5.31658e-09
-3.49801e-10
6.5672e-11
5.23826e-09
-1.84604e-10
2.93831e-10
-5.5112e-09
5.08977e-09
5.34989e-10
-1.13565e-10
-5.45803e-09
4.62845e-09
1.03308e-09
-2.03496e-10
5.54074e-09
-2.45594e-10
2.14355e-11
-4.34007e-10
-2.01745e-11
-5.05287e-09
6.01024e-10
-2.76814e-10
-8.00712e-10
4.90943e-09
-5.4807e-09
1.37198e-09
-3.60005e-09
3.26666e-09
-7.24541e-10
2.20117e-10
-3.92869e-09
1.74587e-09
-1.22324e-09
3.40606e-09
2.60881e-09
-4.16423e-09
-2.40617e-09
3.9616e-09
2.00228e-10
7.49666e-11
7.79703e-09
8.01164e-11
-4.8418e-09
-6.27159e-10
5.43562e-09
-3.23393e-10
-6.17984e-09
1.06761e-09
2.0828e-09
-1.81818e-09
-2.87635e-09
2.61173e-09
-9.20042e-09
-2.53325e-10
2.1959e-09
3.20473e-09
9.09918e-10
-1.73375e-09
-2.38089e-09
8.63388e-09
-7.1757e-09
4.87222e-09
-6.3304e-09
4.2148e-09
-3.88988e-09
3.03856e-09
-3.36349e-09
-1.84429e-09
-5.88192e-10
3.18742e-10
3.85002e-09
-4.21451e-09
-4.96031e-09
5.32481e-09
1.08209e-09
-1.04935e-09
3.56288e-09
-3.59562e-09
-3.59721e-09
-1.08755e-09
4.71273e-09
-2.79695e-11
3.24364e-09
5.10449e-09
-5.44243e-09
-2.90571e-09
6.69925e-10
-4.52523e-10
2.40899e-10
-4.58301e-10
1.98054e-09
-8.76804e-10
5.08645e-09
-6.19019e-09
-2.08809e-09
2.58403e-09
8.20383e-09
-5.35965e-09
1.65115e-09
-1.23873e-10
3.83237e-09
3.39711e-09
-3.71452e-09
8.31087e-10
-5.13681e-10
-2.89846e-09
3.74686e-09
1.62747e-09
-2.47588e-09
4.61521e-09
-3.96849e-09
-2.85652e-09
2.2098e-09
-6.09212e-10
1.53329e-09
-5.12566e-09
4.20158e-09
-7.05249e-09
5.96996e-09
-3.14578e-09
4.22831e-09
1.61837e-09
-7.46731e-10
-3.8125e-09
2.94085e-09
-2.21814e-10
2.39492e-10
-2.36258e-10
2.18581e-10
-1.63273e-09
4.33758e-09
-3.60515e-09
2.397e-09
-3.82365e-09
3.36464e-09
-1.93799e-09
-4.72993e-09
-2.73707e-11
3.95659e-09
2.18122e-10
2.28353e-10
-2.251e-10
-2.21374e-10
2.65363e-09
7.31988e-09
-1.06765e-08
7.03025e-10
2.75009e-09
-2.81161e-09
-3.46703e-09
3.52855e-09
1.70114e-09
4.84581e-09
-1.33308e-09
-5.21387e-09
3.9796e-09
-3.54299e-09
-3.54252e-09
3.10591e-09
-1.02262e-09
6.43785e-11
1.48166e-09
-5.23417e-10
-4.69421e-09
-2.63887e-09
3.01839e-09
4.31469e-09
-2.69305e-09
-3.43123e-09
3.38085e-09
2.74343e-09
-4.88187e-09
4.60582e-09
-6.12115e-10
8.8816e-10
-5.08776e-09
-7.83634e-09
5.30472e-09
-2.88507e-09
2.74869e-09
3.6157e-09
-3.47932e-09
-1.52003e-09
3.22712e-09
-4.1605e-09
2.45341e-09
-3.51429e-09
8.33025e-10
-5.76617e-09
-2.67483e-09
5.90853e-10
-4.61149e-09
-2.6196e-09
5.75496e-10
-4.53613e-09
-2.55252e-09
5.57963e-10
-4.43523e-09
-3.07715e-09
7.02416e-10
-5.18263e-09
4.98437e-09
-5.13602e-09
3.16031e-10
-1.64381e-10
-3.76726e-09
9.19151e-10
-6.34186e-09
-2.67821e-09
5.95949e-10
-4.80256e-09
-2.82187e-09
6.32892e-10
-4.96187e-09
-3.20492e-09
7.42712e-10
-5.51562e-09
-2.4405e-09
5.29164e-10
-4.40082e-09
-2.27266e-10
2.59915e-10
1.94312e-10
-2.26961e-10
5.16849e-09
5.72978e-09
-8.30259e-09
-2.59569e-09
-4.10795e-09
2.72642e-09
3.77853e-09
-5.69966e-09
-5.16544e-09
4.31403e-09
6.55108e-09
-2.31444e-10
2.41756e-10
-2.37405e-10
2.27094e-10
1.0061e-09
-1.08937e-09
4.74542e-09
-4.66215e-09
4.64731e-09
6.50991e-09
-6.92835e-09
-4.22888e-09
6.30958e-09
7.71238e-09
-9.71956e-09
-4.30241e-09
-1.07457e-09
4.45598e-10
-4.21268e-09
4.84165e-09
2.2707e-09
3.02951e-09
-2.42683e-09
-2.87339e-09
-4.3476e-09
-1.60906e-11
4.09277e-09
2.7092e-10
-3.69685e-09
2.35988e-09
-3.12453e-09
4.46151e-09
-3.52127e-09
-3.04091e-09
2.86533e-09
-2.17108e-09
1.72302e-09
2.94077e-09
-2.49271e-09
-2.36087e-09
3.06297e-09
-2.61229e-09
1.91018e-09
9.0456e-11
3.69466e-09
3.77613e-10
2.35583e-09
3.25244e-09
-4.81307e-09
-7.95204e-10
-3.64135e-10
1.48308e-09
-1.58504e-09
4.66099e-10
3.89111e-09
5.5386e-10
-3.70463e-09
-7.40343e-10
-5.98633e-11
-4.38492e-09
-6.08081e-10
3.23689e-09
-3.85954e-09
3.15722e-09
-2.53457e-09
-2.7291e-09
4.21895e-10
4.7268e-09
-2.4196e-09
2.21576e-09
8.55381e-09
-1.33698e-09
-9.43259e-09
3.25465e-09
7.90691e-09
-8.9458e-09
5.53335e-09
7.13342e-10
-1.26231e-09
-2.4865e-10
5.50632e-10
8.25183e-09
-3.39764e-09
-3.10079e-09
2.50355e-09
-1.08919e-09
6.83623e-10
1.20045e-09
-7.94889e-10
5.78239e-10
-1.32032e-10
5.20977e-09
-5.65597e-09
-4.71472e-10
7.18319e-10
-2.17951e-09
1.93267e-09
1.45755e-09
-3.83884e-09
3.72154e-09
-1.34026e-09
1.43338e-09
-1.22051e-09
2.79716e-09
2.79284e-09
-3.52261e-09
3.71654e-09
-2.98677e-09
4.57137e-09
9.01269e-09
-2.77429e-09
-1.08098e-08
-2.05615e-09
-2.43255e-09
2.97847e-09
1.51023e-09
1.19152e-09
4.21269e-09
-2.85099e-09
-2.55322e-09
1.09808e-10
-1.9121e-10
-1.87908e-09
1.96048e-09
3.02496e-09
3.57605e-09
-3.9922e-09
3.66256e-10
-9.1417e-10
5.325e-09
-4.77708e-09
3.05657e-10
3.0009e-09
3.62045e-10
-3.6686e-09
2.98411e-09
-2.70971e-09
-2.63527e-09
-6.16618e-09
-5.67167e-09
6.13818e-09
8.94801e-11
1.51889e-10
-5.1304e-11
-1.90065e-10
7.57754e-09
-1.4716e-09
-6.173e-10
-5.48864e-09
-5.25097e-09
-1.10851e-09
7.09e-10
5.65048e-09
4.22254e-09
-4.70651e-09
-3.89343e-09
4.37741e-09
2.22056e-09
-4.03932e-09
-3.0631e-09
3.85126e-09
-4.08536e-09
-1.28593e-09
4.03187e-09
3.29742e-09
-4.09239e-09
4.42799e-09
-3.54997e-09
-6.14166e-09
5.26364e-09
1.72761e-09
-3.89945e-09
3.62938e-09
-5.04999e-09
-3.06353e-09
2.24467e-09
-2.20055e-09
7.89047e-10
1.48685e-09
-7.53391e-11
-3.66221e-09
-2.54445e-09
4.30793e-09
1.89873e-09
2.38274e-09
-3.26541e-09
3.48612e-09
-2.60345e-09
2.46654e-10
-2.49972e-10
2.2361e-10
-2.20292e-10
-4.10473e-09
4.05392e-09
-3.76786e-09
3.81867e-09
7.71315e-09
1.47849e-09
-2.83001e-09
-6.36163e-09
-3.24538e-09
2.27957e-09
-3.3851e-09
4.35091e-09
3.19272e-09
-7.61947e-09
9.07407e-09
1.37439e-10
-5.51063e-10
-2.46279e-09
2.87641e-09
-3.32475e-10
4.34447e-09
-4.25157e-09
2.39572e-10
5.37656e-09
-4.33606e-09
-7.1591e-10
-3.24591e-10
-1.60894e-09
-4.0204e-09
2.18569e-09
3.44365e-09
-6.2142e-09
-6.77607e-10
6.8918e-09
-1.62683e-09
2.66205e-10
1.48209e-09
-1.21465e-10
-8.50166e-10
-4.27764e-09
7.12874e-10
4.41493e-09
-3.71355e-09
-4.15356e-09
4.42889e-09
3.43823e-09
-4.23682e-09
-4.45364e-09
2.78215e-09
5.90831e-09
5.18818e-09
-5.65558e-09
7.56521e-09
-7.09781e-09
1.02639e-09
-4.80037e-09
4.78008e-09
4.67262e-09
-4.36586e-09
4.60267e-09
-2.37683e-10
-2.25626e-10
2.35207e-10
2.28101e-10
-4.45059e-09
4.32856e-09
1.16862e-10
5.17155e-12
5.61601e-09
-5.21644e-09
4.89415e-10
-8.88988e-10
5.68301e-09
-5.223e-09
5.39621e-10
-9.99634e-10
5.49734e-09
-5.10645e-09
4.80084e-10
-8.70981e-10
3.02975e-09
-3.74713e-09
-1.01941e-10
8.19317e-10
-4.94393e-09
4.94602e-09
-8.30116e-11
8.09184e-11
2.94356e-09
-3.14141e-09
3.09023e-09
-2.89237e-09
-4.23876e-10
4.10222e-09
6.82722e-10
-4.36107e-09
2.27679e-10
-2.61978e-10
2.34757e-10
-2.00458e-10
-1.30258e-08
1.44654e-08
-6.91523e-09
5.4756e-09
5.00425e-09
-5.54765e-09
-3.33655e-12
5.46733e-10
-2.78171e-09
-3.04833e-09
2.29606e-09
3.53398e-09
2.45761e-09
-1.58977e-09
2.72378e-09
-3.59162e-09
-7.91956e-09
-8.32963e-09
8.44934e-09
7.79986e-09
2.90336e-09
-3.20519e-09
7.79307e-09
-9.11903e-09
-6.49307e-09
7.81903e-09
-2.4394e-09
2.30581e-09
-3.06288e-09
3.19647e-09
-1.22338e-10
1.82662e-10
-6.37874e-09
5.08719e-09
-1.87807e-10
1.47936e-09
3.94007e-09
-2.13979e-09
1.92996e-09
-3.73024e-09
-3.23041e-09
4.38754e-09
2.66552e-09
-3.82265e-09
-3.12206e-09
6.17829e-11
3.88438e-10
2.67184e-09
4.75357e-09
-8.21856e-10
-4.78188e-09
4.55736e-09
-4.15383e-09
-3.35205e-09
2.94852e-09
-4.44663e-09
5.06915e-09
2.47578e-11
-6.47276e-10
-4.52408e-09
5.17762e-09
3.08095e-11
-6.8435e-10
-3.31723e-09
4.12898e-09
8.05808e-10
-1.61756e-09
-3.3548e-09
3.73401e-09
-2.84284e-09
2.46364e-09
5.09294e-10
7.45942e-09
-7.96871e-09
-1.87092e-10
-3.74434e-09
-2.15567e-10
-5.10761e-10
2.82241e-09
9.09423e-10
-3.22108e-09
2.87547e-10
-3.07109e-10
2.37633e-09
-5.71258e-10
6.53325e-10
-2.45839e-09
4.95446e-09
-5.93121e-11
5.08742e-11
4.81558e-09
-4.78458e-09
1.75338e-11
-4.85321e-11
4.47944e-09
-4.35708e-09
1.36795e-11
-1.36033e-10
3.55975e-09
-3.44624e-09
-3.2904e-09
3.1769e-09
2.06502e-10
-1.64719e-10
-2.05651e-10
1.63867e-10
3.97869e-09
1.54159e-09
-2.29472e-11
4.12251e-09
1.57889e-09
-1.83915e-11
4.06366e-09
1.57612e-09
-2.37681e-11
-4.74479e-09
5.93919e-09
-1.28474e-09
9.03442e-11
5.41921e-09
-5.3149e-09
-2.8149e-10
1.77184e-10
-1.23873e-09
1.32428e-09
7.37588e-10
-8.23143e-10
-2.26037e-09
-4.63237e-09
3.63534e-09
3.25741e-09
-5.37936e-09
4.66318e-09
9.74133e-10
-2.57951e-10
6.74821e-09
6.49738e-11
-1.39397e-09
3.60087e-09
3.14306e-09
-2.63642e-09
-4.1075e-09
-4.40252e-09
2.5692e-10
4.20589e-09
-6.02909e-11
4.95357e-09
-4.95309e-09
-2.33911e-12
1.86506e-12
-4.3442e-09
4.35734e-09
-4.20567e-11
2.89101e-11
-4.41014e-09
4.42342e-09
-4.30547e-11
2.97702e-11
-4.25317e-09
4.26613e-09
-4.09505e-11
2.79905e-11
1.54155e-09
-1.72703e-10
4.0307e-09
3.34729e-09
-5.34111e-09
-2.03688e-09
5.08461e-09
-4.64322e-09
-2.77726e-10
-1.63667e-10
-4.41577e-09
4.01579e-09
2.62054e-09
-6.09371e-09
5.72465e-09
-1.61835e-10
5.30893e-10
-4.67064e-09
-1.13111e-09
2.54107e-10
-1.56937e-09
-8.07676e-10
1.13832e-09
5.36381e-09
-5.93232e-10
-2.91136e-10
5.27094e-09
-5.27799e-09
1.11193e-11
-4.07347e-12
-4.9441e-09
4.95223e-09
-4.89451e-11
4.08114e-11
-4.38882e-09
4.33859e-09
-1.44601e-10
1.94831e-10
-4.45608e-09
4.40491e-09
-1.46454e-10
1.97621e-10
-4.29611e-09
4.24717e-09
-1.42147e-10
1.91083e-10
3.87056e-09
-3.97793e-09
-5.93825e-10
7.01192e-10
6.12415e-09
1.68103e-10
-1.47668e-09
2.82292e-09
-3.45234e-09
3.01215e-09
-3.12276e-09
2.42346e-09
2.97887e-09
5.96066e-09
-5.10631e-09
-6.25254e-11
-7.91818e-10
4.8118e-09
3.72263e-10
-1.3135e-09
7.24118e-09
-7.13963e-09
-7.65111e-10
6.63563e-10
4.27434e-09
-4.35001e-09
-6.88338e-11
1.44507e-10
-1.52579e-11
-6.63512e-11
3.55443e-09
-3.64589e-09
-2.11659e-10
3.03114e-10
3.60683e-09
-3.69992e-09
-2.14214e-10
3.07311e-10
3.48035e-09
-3.56963e-09
-2.07584e-10
2.96861e-10
5.73207e-10
4.20905e-10
-6.13014e-09
-4.4229e-09
5.04636e-09
-7.0347e-10
8.00086e-11
-4.48759e-09
5.1222e-09
-7.16754e-10
8.21478e-11
-4.33025e-09
4.94033e-09
-6.8813e-10
7.80563e-11
-5.11731e-09
5.51423e-11
-1.31657e-09
5.18701e-09
-1.39682e-09
-4.87956e-09
-3.4862e-09
-2.98073e-09
3.7314e-09
2.73553e-09
4.14253e-10
-1.56386e-10
-5.15051e-10
2.57184e-10
2.68756e-09
-4.36668e-09
5.23886e-09
1.217e-09
-6.23855e-11
3.91773e-09
-6.0968e-11
2.069e-10
3.97277e-09
-5.80895e-11
2.07833e-10
3.83611e-09
-5.95514e-11
2.02135e-10
5.00999e-09
-1.07922e-10
5.2393e-11
-2.81794e-10
1.74476e-10
1.07781e-09
6.96544e-11
-4.22002e-09
-1.53483e-10
-8.49499e-10
4.93807e-09
-4.93362e-09
6.15168e-12
-1.06029e-11
-4.3174e-09
1.7378e-10
-9.62827e-10
-4.40957e-09
1.75756e-10
-9.82621e-10
6.42285e-09
-5.48584e-09
5.33896e-11
-9.90402e-10
-4.94075e-09
4.94457e-09
5.60331e-12
-9.42085e-12
-6.39653e-10
1.4551e-10
-6.66696e-10
1.51874e-10
-6.53916e-10
1.4875e-10
-4.35806e-09
4.37136e-09
-1.29066e-11
-3.9082e-13
-4.42426e-09
4.4378e-09
-1.32169e-11
-3.19059e-13
-4.26678e-09
4.27974e-09
-1.25391e-11
-4.24738e-13
-5.51408e-09
5.43159e-09
-1.4936e-10
2.31852e-10
-3.98465e-09
4.40331e-09
-4.87418e-10
6.8757e-11
6.1692e-09
3.53489e-09
-6.10322e-09
2.77679e-09
3.39313e-09
-3.50981e-09
-2.66011e-09
-4.71412e-09
4.74106e-09
-2.45909e-11
-2.34971e-12
-4.49547e-10
2.3544e-09
-3.97809e-09
4.30312e-09
-1.19799e-11
-3.13057e-10
5.276e-09
-4.72108e-09
-3.16197e-11
-5.23304e-10
-4.1968e-09
4.22772e-09
-4.18048e-11
1.08839e-11
5.10722e-09
7.55738e-10
-1.38307e-10
4.12283e-09
-4.13149e-09
-1.12076e-10
1.2074e-10
5.60362e-09
-4.77336e-09
5.74079e-11
-8.87668e-10
3.18077e-09
-4.01777e-09
3.62143e-09
-2.78443e-09
-4.27513e-09
4.95593e-09
2.19766e-10
-9.00571e-10
6.3764e-09
1.79133e-09
-4.40459e-09
-3.76314e-09
-4.57704e-09
4.59471e-09
3.79023e-12
-2.14686e-11
-5.18213e-09
4.99757e-09
-5.81904e-11
2.42754e-10
-8.03491e-10
4.14519e-09
5.16882e-10
-3.85858e-09
-1.13616e-09
6.02648e-09
-1.44898e-10
3.74178e-09
-2.7372e-09
3.46036e-09
-4.46493e-09
2.89726e-09
-4.29205e-09
3.48799e-09
-2.0932e-09
-4.42193e-09
-1.8818e-10
-6.22612e-10
4.54292e-10
4.05943e-09
5.10073e-09
-4.31431e-09
-5.01514e-11
-7.36263e-10
-5.42852e-09
5.28583e-09
-1.05369e-10
2.48052e-10
-2.66967e-10
2.18425e-10
4.85415e-11
3.38512e-09
-3.53448e-09
-1.55672e-12
1.50915e-10
4.4557e-09
-4.21601e-09
1.84723e-10
-4.24411e-10
-3.66236e-09
-3.08281e-09
2.64044e-09
5.90356e-09
-5.9687e-09
8.02087e-13
6.43402e-11
-4.4218e-09
-5.10894e-11
2.62545e-11
-1.50061e-10
9.08951e-11
1.44786e-10
-8.562e-11
6.79418e-09
-5.43255e-09
2.05513e-10
-1.56715e-09
4.78111e-09
7.52371e-11
-5.82008e-10
-4.98661e-09
5.46795e-09
3.03508e-11
-5.11694e-10
4.61351e-09
-9.70369e-10
-1.62788e-10
4.78389e-09
-1.00523e-09
-1.71834e-10
4.71238e-09
-9.90289e-10
-1.67661e-10
5.26042e-09
-5.41956e-09
4.52641e-10
-2.93499e-10
-4.77688e-10
1.05733e-10
-1.77755e-10
5.49709e-10
-4.47335e-09
-9.58948e-11
4.51635e-11
6.33884e-10
-1.91961e-09
-6.27872e-10
1.9136e-09
-3.61537e-09
4.22477e-09
2.60917e-10
-8.70315e-10
3.09121e-09
-1.46374e-09
-1.62747e-09
-4.06321e-10
4.22727e-09
7.68172e-10
-4.58912e-09
5.90016e-09
-5.91643e-09
-6.42199e-12
2.26987e-11
-6.14937e-09
5.98993e-09
-9.6116e-11
2.55559e-10
-3.87213e-09
3.98279e-09
4.43198e-10
-4.76868e-09
-4.36069e-10
2.18135e-10
4.60701e-09
1.58651e-10
-4.18743e-09
-2.42444e-09
2.39798e-09
3.08944e-09
-5.99197e-09
-1.34784e-09
2.00178e-10
2.37258e-10
-1.38647e-10
-5.96855e-09
7.06836e-09
1.93948e-10
-1.29376e-09
3.25313e-09
-3.6373e-09
5.34884e-11
-8.0924e-10
-3.22218e-09
4.81955e-10
4.57539e-09
3.97701e-11
-8.37336e-11
4.19173e-09
-4.20197e-09
1.76347e-11
-7.39254e-12
5.90745e-09
-2.69025e-10
-5.18392e-09
-4.54505e-10
5.07942e-09
-2.49871e-10
-4.46675e-09
-3.62806e-10
5.19139e-09
-2.53275e-10
-4.56391e-09
-3.7421e-10
5.27454e-09
-2.54913e-10
-4.63544e-09
-3.84186e-10
6.55382e-09
-2.81242e-10
-5.73948e-09
-5.33104e-10
6.09132e-09
-1.28286e-09
2.7615e-10
4.5666e-09
-4.53119e-09
-7.47742e-11
3.93628e-11
4.14884e-09
-7.65966e-11
1.10538e-09
4.06134e-09
-7.68662e-11
1.08468e-09
-1.9056e-10
1.9953e-10
-4.45956e-09
-7.24204e-09
1.02837e-09
1.66898e-10
6.04677e-09
4.95043e-09
-2.25436e-12
5.38908e-12
-4.21175e-09
4.21406e-09
5.12913e-12
-7.4364e-12
2.88249e-09
-3.2393e-09
3.72674e-09
-3.36992e-09
5.20725e-09
-5.16779e-09
-8.538e-11
4.59214e-11
-4.58173e-09
-3.87288e-12
8.56791e-12
-4.10631e-10
4.30818e-09
-5.0044e-10
4.74983e-09
-4.73187e-09
-1.94158e-11
1.4567e-12
-2.43526e-10
8.05374e-11
-1.81393e-10
4.98789e-10
-1.86806e-10
5.14615e-10
-1.84577e-10
5.08136e-10
-7.02523e-10
-6.7481e-11
4.83135e-09
-7.18389e-10
-6.90215e-11
4.93625e-09
-5.21399e-09
5.16083e-09
-1.81449e-10
2.34611e-10
5.13414e-09
5.50093e-11
-8.1925e-11
9.47843e-11
-2.97582e-10
-4.04877e-09
4.16254e-10
9.01184e-10
-4.74559e-09
3.92745e-11
7.28229e-10
1.00012e-09
-2.62952e-10
1.10926e-09
2.61442e-10
1.15055e-09
2.71727e-10
1.13355e-09
2.66923e-10
2.78641e-09
-2.72937e-09
-3.50868e-09
3.16664e-09
-2.99732e-09
3.33936e-09
-6.70069e-09
-8.00181e-10
6.26651e-09
1.23436e-09
-5.40694e-09
5.46031e-09
-5.56238e-11
2.2559e-12
-1.12275e-11
1.03664e-11
-2.46789e-10
-4.52469e-09
-8.12574e-11
7.52625e-11
-8.35466e-11
7.83232e-11
-8.25486e-11
7.69449e-11
5.78979e-09
-5.80077e-09
-8.26094e-11
9.35902e-11
3.85191e-09
-3.56502e-09
-3.1457e-09
2.85881e-09
-4.28017e-09
-4.65951e-10
-2.45015e-11
4.77062e-09
-1.09488e-09
2.60475e-10
4.1524e-09
-3.40321e-09
-5.11161e-09
5.60325e-09
-8.47508e-10
3.55864e-10
4.52493e-09
-8.40706e-10
-2.99103e-10
4.63169e-09
3.24493e-11
-6.94283e-11
3.18326e-09
-3.6163e-09
-3.07564e-09
-1.02057e-10
1.34056e-10
-1.00969e-10
6.89709e-11
-4.37386e-09
4.43206e-09
-8.07218e-11
2.25288e-11
-4.44036e-09
4.4994e-09
-8.19722e-11
2.29366e-11
-4.28217e-09
4.33915e-09
-7.90159e-11
2.20323e-11
-3.72607e-09
4.12755e-09
2.95967e-09
-3.36115e-09
-3.30107e-09
-2.05773e-09
4.35939e-09
-1.5652e-11
7.56991e-10
-3.68264e-10
6.18067e-10
-2.11415e-10
3.90042e-09
8.68799e-10
-4.55781e-09
1.71514e-09
-2.72653e-11
1.12677e-09
7.02549e-10
4.10767e-09
-1.78863e-10
1.3472e-09
3.94228e-09
-2.23474e-11
1.036e-09
-3.45165e-11
1.09783e-10
2.7334e-10
-3.48606e-10
-5.92342e-09
-7.20102e-10
-4.49503e-12
6.64802e-09
-1.58321e-10
6.89372e-11
-5.25655e-09
5.27781e-09
-5.0518e-12
-1.62102e-11
4.44319e-09
-9.85808e-11
1.25901e-09
-5.06403e-10
9.24312e-11
-4.86106e-10
3.91118e-09
-4.70945e-09
1.28437e-09
-3.91825e-09
3.99075e-09
-6.95121e-10
-2.096e-10
4.29573e-09
4.22836e-09
-5.24589e-09
4.39452e-09
-3.37699e-09
5.55981e-09
-1.12127e-09
-3.15713e-10
1.22579e-09
-7.21477e-11
6.94396e-10
1.23806e-12
3.83395e-09
-5.02766e-09
1.85119e-09
-6.57473e-10
-2.48383e-09
-6.22447e-09
6.11749e-09
2.5908e-09
-4.92681e-09
4.9207e-09
-1.81472e-12
7.92381e-12
-5.31458e-09
1.89491e-09
5.41055e-09
1.63345e-10
-7.78828e-11
8.16009e-11
-1.67063e-10
-6.05209e-09
-2.98449e-09
6.55276e-09
-4.38682e-09
3.81844e-09
7.6912e-10
-2.0074e-10
-4.23054e-09
3.68344e-09
7.40698e-10
-1.93597e-10
-4.32116e-09
3.76202e-09
7.56945e-10
-1.97801e-10
-3.80091e-09
-2.7889e-10
-5.6465e-10
-2.51505e-09
-2.32281e-09
-2.11669e-09
-5.1405e-09
2.84142e-09
5.61764e-09
-1.50914e-09
1.15191e-09
-3.26016e-09
-3.46233e-09
3.97178e-09
1.22395e-10
1.86837e-10
-1.45887e-10
-4.21968e-09
-6.89736e-13
8.6213e-12
-2.34088e-10
-2.04298e-11
-7.84091e-09
5.94346e-09
-4.26873e-09
-4.16821e-09
4.65815e-09
-4.77989e-10
-1.19513e-11
-4.68532e-09
5.25558e-09
-5.50289e-10
-1.99809e-11
-4.357e-09
4.17348e-09
4.40606e-09
2.76684e-09
-2.20718e-09
1.64063e-10
-6.03597e-11
1.76641e-10
2.45372e-10
-2.1551e-10
-5.37853e-09
6.15287e-09
-7.71075e-10
-3.25735e-12
4.82307e-09
-5.49887e-09
-1.1356e-10
2.36579e-10
3.24012e-09
-4.42174e-09
4.02208e-09
-2.84047e-09
-4.88172e-09
5.57551e-09
-6.89521e-10
-4.26803e-12
-6.54603e-09
6.77429e-09
-8.06917e-09
-3.71782e-13
8.40705e-12
5.06926e-09
-1.01241e-10
1.45484e-09
-2.1316e-10
-5.77675e-11
1.47608e-11
-1.54098e-11
1.55495e-11
-1.6388e-11
1.5213e-11
-1.5933e-11
-4.78931e-09
-1.0823e-09
4.13584e-10
5.68721e-10
8.51629e-12
9.30017e-10
-1.10296e-11
-6.66785e-11
-2.71004e-10
1.13904e-11
-1.30114e-13
3.47533e-09
3.13953e-09
-2.4088e-09
-4.20606e-09
-5.7631e-09
6.48084e-09
-7.32586e-10
1.48436e-11
3.8971e-09
2.1972e-09
-2.15423e-09
4.29337e-09
2.80359e-11
-1.8282e-11
5.44163e-10
3.21914e-10
-9.1296e-11
6.80312e-11
4.08864e-09
3.43431e-09
-3.37055e-09
-8.16007e-13
1.05018e-11
-2.13671e-09
1.76337e-09
3.19626e-09
2.72325e-09
4.65252e-10
-3.1885e-09
-4.29845e-09
3.68643e-09
8.36426e-10
-2.24404e-10
1.57461e-11
-1.81702e-11
1.62944e-11
-1.88627e-11
1.60817e-11
-1.85828e-11
1.99551e-10
-2.53802e-10
-4.66483e-09
4.05939e-09
8.17391e-10
-2.11945e-10
-5.05498e-09
9.67667e-10
-1.43233e-10
-5.24258e-09
1.00391e-09
-1.48145e-10
-5.16347e-09
9.88479e-10
-1.46168e-10
4.5898e-09
-7.09365e-11
4.7731e-11
3.66204e-09
-7.34878e-10
-4.9187e-09
1.99154e-09
-5.14862e-09
4.47782e-09
9.03959e-10
-2.33154e-10
1.25929e-10
4.44438e-10
-1.93392e-10
-1.86837e-10
2.1551e-10
4.76785e-09
-6.52548e-11
4.72366e-11
1.13102e-09
-3.7443e-09
-9.83934e-10
-5.13868e-13
1.14641e-11
-1.25043e-11
-3.65143e-13
4.6282e-09
-4.94802e-09
3.69543e-10
-4.9719e-11
-8.53403e-09
4.39427e-09
7.39441e-09
5.24303e-09
-1.06105e-10
7.03293e-11
-4.62179e-09
-1.02682e-10
5.38323e-11
-4.92906e-09
-2.33102e-10
-9.43856e-11
6.03619e-10
-2.57799e-10
6.95067e-11
-1.65018e-10
6.95472e-11
-1.97427e-10
4.16249e-09
1.69272e-11
1.23184e-11
6.80169e-12
2.39174e-12
8.21205e-11
-1.95991e-10
2.86015e-10
-2.83287e-10
3.37626e-09
3.49277e-09
-3.12725e-09
9.46389e-11
-2.30144e-10
1.17446e-11
4.71626e-10
-4.19846e-10
-6.35246e-11
4.21996e-11
-4.79233e-11
1.15503e-09
-1.97894e-10
5.75483e-09
-1.8721e-12
3.68311e-11
4.14717e-09
-4.33768e-09
4.24443e-09
1.06763e-09
-1.56951e-10
5.26064e-09
4.24844e-10
1.89205e-09
5.24855e-10
-1.88205e-11
9.89814e-11
-1.05946e-10
7.47583e-12
-7.65533e-12
2.67617e-09
1.59068e-09
-2.21408e-09
-2.05277e-09
-7.31804e-09
8.50325e-09
7.5191e-09
-8.70431e-09
4.26902e-10
-3.92929e-10
-2.22279e-11
-1.27847e-12
1.33648e-11
-5.73005e-09
5.4726e-09
4.70451e-10
-2.13005e-10
7.33757e-11
-8.1646e-11
1.1739e-09
-1.69656e-10
2.31395e-10
2.89827e-10
-2.86015e-10
-5.2237e-09
5.81595e-09
-1.11087e-09
5.18624e-10
-6.30081e-09
-9.77337e-10
1.59218e-09
5.68597e-09
1.85074e-10
-3.82592e-10
-4.65486e-09
2.73705e-09
4.90525e-09
-2.98744e-09
3.63443e-09
-1.23918e-10
1.14764e-09
-2.43333e-09
2.72355e-09
-6.51469e-09
2.21351e-09
4.64013e-09
-2.90188e-09
-3.95177e-09
-2.43485e-11
3.75523e-11
3.93472e-09
-4.21948e-09
-3.20904e-09
3.4938e-09
4.25742e-09
-3.51739e-10
5.19445e-09
-1.23365e-10
1.40976e-09
-5.31459e-09
3.32196e-09
3.19976e-09
-1.20712e-09
3.96987e-09
-3.57348e-11
-2.99701e-10
3.64554e-09
-3.37883e-09
2.77415e-09
-3.04087e-09
-4.39738e-09
7.82635e-10
-1.60896e-09
2.79229e-09
-2.88451e-09
1.72297e-09
-2.56834e-10
-1.72551e-09
2.59368e-10
3.85478e-09
3.08607e-09
-2.79574e-09
-4.14511e-09
-7.20211e-09
2.57301e-09
-2.42339e-09
-4.1442e-09
-2.96854e-09
4.02956e-09
3.08318e-09
4.84998e-09
-3.45228e-09
2.07763e-09
4.35231e-09
4.12387e-09
-2.65508e-09
-2.38844e-09
1.99519e-09
5.78068e-09
-4.16936e-12
-5.82061e-10
-4.01309e-09
5.39672e-10
-5.26238e-09
1.07212e-10
5.09419e-09
6.0982e-11
-3.59812e-09
2.91209e-09
-2.45539e-09
2.38621e-10
-3.34514e-10
3.23995e-10
2.01087e-09
-2.8783e-09
-1.51737e-10
-4.61332e-09
3.62534e-10
3.17816e-10
-3.95064e-09
-5.73089e-09
4.86485e-09
-2.19749e-09
3.06353e-09
2.47564e-09
-2.38085e-09
-2.75773e-09
-5.94218e-09
7.01513e-09
1.68478e-09
2.31294e-09
2.16572e-12
-3.60527e-11
4.60789e-10
-2.42973e-09
-6.16842e-09
5.8339e-09
2.76425e-09
9.09489e-10
3.55037e-09
-3.46249e-09
-9.97369e-10
-5.8151e-09
-2.67032e-09
-1.15673e-09
-7.23773e-09
5.9397e-09
2.45476e-09
-1.88989e-09
1.34375e-09
1.13046e-09
-3.7973e-09
5.06551e-09
-2.39868e-09
1.47582e-09
-1.47708e-09
-3.21432e-09
1.18512e-10
-5.48177e-09
9.55432e-10
4.40782e-09
-3.15535e-09
4.00564e-09
-4.56384e-09
-4.54801e-09
1.74458e-09
3.93389e-09
3.81082e-09
4.12806e-09
-4.90303e-09
-3.03585e-09
5.953e-10
-3.39044e-09
2.32755e-10
-7.10335e-10
-3.33793e-09
3.35978e-09
-3.79889e-09
3.77704e-09
2.25863e-09
-3.00926e-09
-1.68192e-09
-3.81117e-09
-2.88039e-09
4.43119e-09
-2.47207e-10
5.97852e-09
7.18936e-10
-6.45025e-09
2.72937e-09
-2.79229e-09
-3.68746e-09
-3.33454e-09
3.57804e-09
-5.7693e-09
5.5258e-09
5.83281e-09
-4.24816e-09
-5.73822e-09
-3.41199e-09
3.28577e-09
4.47853e-09
-4.11526e-09
9.49206e-11
4.16384e-09
-1.43506e-10
3.26638e-09
7.04756e-10
-3.60419e-09
-3.66947e-10
6.19617e-09
-2.83641e-09
-3.00716e-09
3.37575e-09
-1.98807e-09
-5.62061e-09
9.07986e-10
3.81165e-10
4.89337e-09
-1.10822e-09
5.10391e-09
-4.18361e-09
2.11894e-09
-3.03923e-09
-3.73e-10
2.20241e-10
-9.6464e-09
2.66781e-09
-1.63587e-09
8.61446e-09
-3.01916e-09
3.34846e-09
8.19595e-11
-1.42857e-09
-5.89512e-09
7.24173e-09
7.15926e-11
-5.33326e-09
-1.28415e-09
6.54582e-09
5.72197e-11
-1.09863e-09
-4.60732e-09
5.64873e-09
6.02446e-11
-1.14186e-09
-4.7788e-09
5.86041e-09
5.87815e-11
-1.12306e-09
-4.70636e-09
5.77063e-09
4.23042e-09
-4.11047e-09
8.70986e-11
-2.07041e-10
4.38734e-09
-4.26226e-09
9.04671e-11
-2.15545e-10
4.3213e-09
-4.19855e-09
8.90889e-11
-2.11838e-10
2.42656e-09
-2.4437e-09
3.73731e-09
-3.72017e-09
-3.27084e-09
-4.11178e-09
4.37546e-09
3.49446e-10
-3.94679e-09
-1.80307e-11
-3.48343e-09
6.9301e-10
-9.56871e-10
3.74729e-09
4.85332e-10
3.95175e-09
-2.62874e-09
2.73408e-09
-2.92431e-10
4.49178e-09
-4.41076e-09
3.76453e-09
-3.94786e-09
4.21519e-09
-5.5797e-10
-2.92472e-09
2.82435e-09
6.58338e-10
-3.79034e-09
4.03826e-09
-6.5424e-10
2.13526e-09
-5.62777e-09
7.85954e-09
-4.36703e-09
4.93674e-10
-5.88809e-09
4.17887e-11
4.16768e-09
6.02335e-10
7.95058e-09
-7.17257e-09
-3.11274e-09
-2.95384e-09
-6.07773e-09
2.72635e-09
8.22686e-09
-1.73052e-10
-8.45314e-09
3.99332e-10
-9.16105e-10
-4.04278e-09
1.16854e-09
9.06928e-11
-1.67793e-10
-8.30589e-11
1.60159e-10
2.91625e-10
5.1998e-09
1.09752e-09
-6.58895e-09
-2.04814e-09
2.34119e-11
2.3646e-09
-3.39872e-10
-1.84289e-09
2.77837e-09
3.67627e-09
-3.15722e-09
-3.75109e-09
-6.43969e-10
5.56823e-11
4.33938e-09
-2.37417e-10
-3.31241e-10
3.37214e-10
-1.29781e-09
-3.91181e-09
1.37079e-09
7.03622e-09
-2.55046e-09
-6.49272e-09
2.00695e-09
5.2354e-09
3.91872e-10
-6.62325e-09
9.95978e-10
2.69357e-09
6.81324e-10
-3.3749e-09
-3.51673e-09
6.92329e-09
2.81684e-09
-6.2234e-09
-2.30944e-10
1.59947e-10
4.26755e-09
3.03777e-09
-3.28993e-09
-4.01538e-09
4.38925e-09
-6.37732e-09
-2.33326e-09
5.26157e-10
2.8008e-09
-9.93695e-10
4.41934e-09
-4.13385e-09
1.363e-10
-4.21791e-10
-3.05934e-09
3.68527e-09
4.93765e-09
-5.56358e-09
-2.85363e-09
3.59612e-09
4.6758e-09
-5.41828e-09
-3.38391e-09
4.01637e-09
5.4906e-09
-6.12306e-09
-2.72899e-09
3.34039e-09
4.37635e-09
-4.98775e-09
6.39135e-10
-4.4068e-09
4.61739e-09
-8.49725e-10
-3.71448e-09
4.50222e-09
6.17909e-09
-6.96683e-09
3.95582e-09
4.64599e-09
-4.09324e-09
-4.50857e-09
-3.04476e-09
7.03846e-09
3.04251e-09
-3.1769e-09
3.12725e-09
-3.12327e-10
3.32268e-10
1.52104e-10
-5.18646e-09
5.23528e-09
-2.00928e-10
1.64165e-09
-3.56539e-09
-1.94329e-09
3.86703e-09
6.49298e-09
-2.56215e-09
-6.48129e-09
4.66198e-09
-4.53023e-09
9.4969e-11
-2.26724e-10
3.48599e-10
6.60543e-10
-2.26562e-09
-3.30541e-09
3.00841e-09
2.56262e-09
4.2102e-09
-6.49669e-09
-4.29396e-09
6.58044e-09
-1.17129e-10
5.90922e-10
-9.69689e-12
-4.35098e-11
3.39696e-10
-2.86489e-10
-4.14733e-09
4.1705e-09
1.7938e-11
-4.11108e-11
-3.95795e-09
4.56839e-09
-4.46998e-09
5.26016e-09
2.58718e-09
-5.47078e-09
-2.37656e-09
3.58358e-09
5.6324e-09
-3.61373e-09
-3.69002e-09
4.28459e-09
-5.13709e-09
-6.05236e-10
1.3452e-09
4.39712e-09
-6.3963e-09
-7.12179e-10
1.53882e-09
5.56965e-09
-5.58905e-09
-7.15682e-10
1.49752e-09
4.80721e-09
-5.76973e-09
-6.61051e-10
1.44643e-09
4.98435e-09
-7.33571e-09
-8.7846e-10
1.77344e-09
6.44074e-09
8.69307e-10
-4.3599e-10
-6.16337e-09
-3.49199e-09
3.38787e-09
-4.50207e-09
4.60619e-09
-3.73638e-09
-1.27986e-09
-2.16604e-09
4.35882e-09
4.52311e-09
-6.71589e-09
3.95705e-09
-4.27763e-09
-2.93958e-09
5.91193e-10
4.135e-10
-8.33029e-10
-1.71664e-10
2.50301e-09
5.55003e-09
-4.59276e-09
-4.91522e-09
-6.08221e-09
6.00396e-09
-1.80688e-11
9.63204e-11
5.98939e-09
-4.42982e-09
2.86932e-09
-4.27953e-09
-1.78393e-11
4.34925e-09
-5.18805e-11
3.70482e-09
-4.92863e-10
-3.15847e-09
-3.07711e-09
3.22578e-09
6.15399e-09
1.54378e-09
-3.16918e-09
-4.52858e-09
6.48642e-09
1.36553e-09
-2.81137e-09
-5.04058e-09
2.65361e-09
-6.00779e-09
2.7284e-09
-1.81329e-09
-3.29662e-09
2.38151e-09
-3.28047e-09
-4.01396e-09
4.21732e-09
2.75432e-10
-6.08352e-09
4.1739e-09
1.63418e-09
1.44707e-09
3.02211e-10
3.99343e-09
2.93392e-10
-3.04325e-09
7.90988e-09
-4.80493e-09
-6.08944e-09
-2.5334e-09
-1.75406e-10
2.84624e-09
-6.94237e-10
1.36973e-09
5.87833e-09
-6.44724e-10
1.2994e-09
5.25277e-09
-5.90196e-10
1.21473e-09
4.65001e-09
-5.72935e-10
1.18737e-09
4.46499e-09
-5.83637e-10
1.20488e-09
4.57015e-09
-8.72849e-10
-9.31979e-10
-5.59005e-09
7.39488e-09
-2.8326e-09
2.69535e-09
2.04943e-10
-6.76986e-11
-3.66913e-09
7.24994e-10
3.20089e-09
-2.56747e-10
-4.00292e-09
4.2729e-09
5.96967e-09
-6.23965e-09
-3.11921e-09
3.44952e-09
4.59017e-09
-4.92047e-09
-3.18689e-09
3.51573e-09
4.69363e-09
-5.02247e-09
-3.23751e-09
3.56166e-09
4.77284e-09
-5.09699e-09
-3.61806e-09
3.92159e-09
5.36252e-09
-5.66605e-09
3.66677e-09
2.88368e-09
-1.00041e-09
3.26862e-09
-4.25496e-09
4.63189e-09
5.72406e-09
-6.05854e-10
3.98328e-10
-5.51653e-09
4.57871e-09
1.63935e-10
-4.24897e-09
-3.82208e-09
-9.4178e-10
4.04342e-09
-6.02658e-09
-4.40066e-09
6.38382e-09
1.01816e-09
-5.34112e-09
-7.44195e-11
1.54736e-09
-6.08909e-10
-5.44141e-09
4.50296e-09
-1.38042e-10
-2.56502e-09
2.70306e-09
-3.11539e-09
-1.76764e-09
6.2858e-09
-5.67489e-09
-2.12321e-09
-3.0803e-09
3.7581e-09
1.4454e-09
3.47899e-09
-3.39129e-09
3.07894e-09
-5.43522e-09
8.72256e-10
4.75116e-09
-1.88195e-10
-2.91121e-09
1.10149e-09
-6.01895e-09
5.20909e-09
2.326e-10
-1.07173e-08
-6.6182e-09
1.00175e-08
3.22684e-09
-2.83644e-09
3.56665e-09
1.10672e-09
3.28725e-09
3.49497e-09
-2.47254e-09
3.62033e-09
-4.64276e-09
3.06196e-09
1.14206e-08
-1.14195e-09
-1.33407e-08
-5.60466e-09
3.87285e-09
4.97545e-09
-1.43417e-09
1.52836e-09
3.36422e-09
-3.4584e-09
1.73359e-09
-2.9235e-09
5.75062e-09
7.47635e-10
9.59687e-10
-9.56327e-10
-7.50996e-10
-5.40507e-09
-7.65667e-09
5.37231e-09