/*--------------------------------*- C++ -*----------------------------------*\
  =========                 |
  \\      /  F ield         | OpenFOAM: The Open Source CFD Toolbox
   \\    /   O peration     | Website:  https://openfoam.org
    \\  /    A nd           | Version:  8
     \\/     M anipulation  |
\*---------------------------------------------------------------------------*/
FoamFile
{
    version     2.0;
    format      ascii;
    class       surfaceScalarField;
    location    "6";
    object      phi;
}
// * * * * * * * * * * * * * * * * * * * * * * * * * * * * * * * * * * * * * //

dimensions      [0 3 -1 0 0 0 0];

internalField   nonuniform List<scalar> 
33977
(
3.44128e-09
-1.5068e-10
-3.69958e-09
4.08975e-10
-8.12097e-10
-1.64937e-09
1.71042e-09
7.51048e-10
4.00366e-09
-2.83201e-10
1.71026e-10
-3.89149e-09
3.8386e-09
-3.79502e-09
-3.28027e-10
2.84449e-10
2.52834e-11
-2.35155e-10
-5.11548e-10
7.21419e-10
-1.91918e-09
1.54563e-09
-4.38545e-10
-3.1373e-09
4.04428e-09
-2.18681e-09
1.27984e-09
-1.79348e-09
-2.09082e-09
1.33867e-09
2.54563e-09
3.95405e-09
-4.06652e-09
1.8984e-10
-7.73665e-11
-9.81477e-10
2.0503e-09
-3.12943e-09
2.0606e-09
2.89161e-09
3.59198e-10
-3.37825e-09
1.27442e-10
-1.32695e-09
1.37413e-09
-7.05363e-10
6.58188e-10
-5.91985e-09
-4.51032e-09
4.94299e-09
5.48718e-09
-3.3949e-09
-3.9589e-09
4.4687e-09
2.8851e-09
2.34392e-09
-2.73328e-09
-2.23865e-09
2.628e-09
-1.34439e-09
1.52718e-09
-1.82791e-10
7.41564e-10
-8.16388e-10
-1.25213e-09
-2.67681e-09
1.02019e-10
1.70632e-09
8.68476e-10
5.40995e-09
-1.00845e-09
-5.76831e-09
1.36682e-09
2.71712e-09
-1.49743e-09
-2.65742e-09
1.43773e-09
2.46601e-09
2.46478e-09
-2.58687e-09
-1.18326e-09
5.05475e-09
-4.25604e-09
3.84555e-10
-3.76728e-09
3.78315e-09
7.53834e-12
-2.34092e-11
2.57963e-09
-1.35937e-09
1.08834e-09
-2.3086e-09
-2.0789e-09
9.52305e-10
-9.19068e-10
2.04567e-09
2.42837e-09
-2.3988e-09
2.43644e-09
3.73728e-09
-3.74005e-09
-2.66567e-11
2.94258e-11
3.87404e-09
-3.45636e-09
1.07138e-10
-5.24821e-10
-2.86027e-10
-1.22933e-09
6.8849e-09
-5.36954e-09
3.75545e-09
-3.75244e-09
-3.02257e-11
2.72142e-11
4.06656e-09
-4.06936e-09
4.30858e-13
2.37049e-12
8.97907e-10
-8.27188e-10
-4.22841e-11
-2.8435e-11
-3.772e-09
-2.44688e-11
2.91892e-11
2.51086e-09
2.36017e-09
-2.44266e-09
-3.16566e-09
1.79749e-09
-1.42172e-09
2.78989e-09
1.44521e-09
2.198e-09
-3.00131e-09
-6.41893e-10
2.34089e-09
2.53238e-09
-2.36241e-09
1.01097e-09
-9.88948e-10
1.51248e-09
-1.5345e-09
-3.17248e-09
-2.92925e-11
-8.15129e-11
3.28328e-09
-2.43032e-09
-2.34753e-09
2.5352e-09
2.24265e-09
3.72671e-09
-3.72914e-09
-4.4434e-11
4.68622e-11
3.96536e-09
1.45329e-10
-2.35945e-10
-3.87475e-09
-6.28503e-10
6.80472e-12
4.49574e-09
2.33909e-09
-2.68195e-09
2.41189e-09
-2.06902e-09
1.27027e-10
-6.3642e-11
3.20425e-09
-3.26764e-09
3.80296e-09
-1.52987e-12
-1.82816e-11
-1.22458e-09
-2.84374e-10
2.80946e-10
1.22801e-09
-1.49461e-09
2.31394e-09
-8.19327e-10
2.47704e-09
2.39115e-09
-2.5273e-09
-3.19709e-09
3.20019e-09
-9.79985e-12
6.69924e-12
-1.74302e-09
7.92344e-10
1.13268e-09
-1.81998e-10
-2.89384e-09
-2.38269e-09
2.54325e-09
3.26783e-09
2.83925e-11
-2.82781e-11
-3.26794e-09
4.09776e-09
-1.02526e-10
8.42441e-12
-2.30225e-09
4.74138e-10
-8.48698e-10
-4.02115e-10
3.16383e-10
1.33386e-09
-1.24813e-09
2.45209e-09
-2.44293e-09
2.46788e-09
-3.52712e-11
7.61822e-10
-4.27489e-09
3.54833e-09
4.04857e-09
-4.03688e-09
-2.40565e-11
1.23616e-11
2.36227e-09
-1.81112e-09
-1.43401e-09
8.82857e-10
-3.09487e-09
3.9573e-11
-8.63567e-11
3.14165e-09
-1.83894e-09
1.89277e-09
1.7907e-09
-1.84453e-09
2.39705e-11
-4.05215e-11
3.27879e-09
-3.45999e-09
-9.67976e-10
1.14918e-09
-4.0864e-10
-5.03269e-12
-3.04268e-09
2.64659e-09
1.47713e-09
-1.76144e-09
6.44998e-11
-3.2646e-09
-2.71364e-11
3.22724e-09
1.66758e-10
-1.83469e-09
3.74225e-09
-2.07432e-09
2.17143e-09
-3.18623e-09
7.32762e-09
-6.31283e-09
-1.06763e-09
1.12957e-09
-1.62404e-09
1.5621e-09
2.18845e-09
-1.75816e-10
2.15768e-09
-4.17031e-09
1.68292e-09
-1.86599e-09
1.83076e-10
-4.11014e-09
1.14316e-09
-1.15583e-09
4.12281e-09
9.45076e-12
-3.28557e-09
5.82409e-11
3.21787e-09
2.73329e-09
-2.86911e-09
-2.29451e-09
3.10978e-10
3.76919e-09
-3.95314e-09
3.45959e-09
-6.44962e-11
7.14264e-12
-3.40223e-09
-4.22277e-09
4.06154e-09
4.72209e-10
-5.29263e-09
-1.88165e-09
4.69054e-09
2.48373e-09
3.19425e-09
-1.80055e-09
1.47701e-09
-2.87071e-09
1.39727e-09
-3.7369e-11
2.81787e-11
-1.38808e-09
-2.98568e-09
3.04125e-09
-6.43892e-11
8.81549e-12
3.17264e-09
1.87353e-11
8.75054e-11
-3.27888e-09
-6.13348e-10
5.45748e-10
-4.75582e-10
5.43182e-10
-8.89255e-12
1.36378e-09
4.23827e-11
-4.13062e-09
-3.01931e-10
2.82831e-10
4.14972e-09
-3.20985e-09
-2.36402e-11
3.64021e-11
1.50618e-09
-1.06641e-09
2.83902e-09
2.54697e-09
2.54132e-09
-2.6362e-09
-2.378e-09
2.43803e-09
-1.28211e-10
6.81857e-11
8.81317e-10
-4.08783e-09
4.99583e-09
-1.78932e-09
2.43224e-09
-2.67315e-09
2.83061e-09
-2.5897e-09
2.00094e-10
3.48182e-09
-7.03563e-10
-2.97835e-09
3.3071e-09
5.05511e-10
-2.50999e-09
-1.30262e-09
-3.76105e-09
-1.4853e-11
1.09026e-09
2.68565e-09
3.71806e-09
-3.70806e-09
-4.77561e-11
3.77515e-11
3.07009e-09
-3.64825e-09
5.78164e-10
2.92554e-10
-1.19933e-09
-3.17807e-10
7.3318e-10
-7.80868e-10
-2.25456e-09
-2.56011e-09
-1.60861e-09
6.89703e-10
3.47902e-09
9.34879e-11
5.18413e-09
-4.68911e-09
-5.88507e-10
-2.95473e-09
2.94134e-09
-2.44981e-11
3.78916e-11
-1.60659e-09
1.54993e-09
-1.59338e-09
-4.4657e-10
8.19741e-10
1.22021e-09
4.01235e-09
-4.00005e-09
-2.94377e-11
1.71403e-11
2.37837e-09
-2.5751e-09
-2.4654e-09
2.66213e-09
-3.06046e-10
4.3573e-09
-4.1644e-09
1.13149e-10
1.08914e-09
-6.01789e-09
5.30196e-09
-3.73214e-10
-5.21075e-10
1.02735e-09
-1.33539e-09
8.29108e-10
-2.99417e-09
2.9772e-09
-1.8657e-11
3.56237e-11
8.11781e-09
-7.26844e-09
1.43484e-09
-2.28421e-09
-2.00568e-09
1.97604e-09
7.5849e-10
-7.28851e-10
-3.03266e-09
3.01141e-09
-1.59326e-11
3.71779e-11
3.1847e-09
-3.20174e-09
2.08554e-11
-3.81787e-12
-1.83586e-10
4.9135e-10
3.64628e-09
3.18771e-09
1.12072e-11
-3.22569e-09
2.67758e-11
-3.07646e-09
3.05007e-09
-1.6299e-11
4.26885e-11
-2.56907e-09
2.23973e-09
2.7077e-09
-5.05925e-10
9.12976e-11
-4.75557e-09
5.1702e-09
-3.12158e-09
3.09396e-09
-1.52694e-11
4.28975e-11
-3.07278e-11
3.07619e-11
-3.16325e-09
3.13473e-09
-1.45518e-11
4.30675e-11
6.88681e-12
-2.76743e-11
-1.60394e-09
-2.28112e-09
1.61814e-10
3.72325e-09
1.23178e-09
-1.6122e-09
1.50999e-09
1.17658e-11
-3.6295e-11
3.60474e-09
-3.58933e-09
-4.23635e-11
2.6951e-11
-2.63975e-09
-2.00286e-09
1.46272e-09
3.1799e-09
-2.06388e-10
4.92352e-10
-4.38828e-10
1.52865e-10
3.17047e-09
-1.5041e-11
2.92753e-11
-3.97188e-09
1.47539e-11
-4.29208e-11
3.55885e-09
-3.55587e-09
-1.86537e-11
1.56753e-11
1.85773e-11
-3.37337e-11
4.42577e-12
-5.97283e-12
3.65311e-09
-3.63249e-09
-3.96762e-11
1.90531e-11
-2.27133e-09
2.85807e-09
1.93098e-10
-7.79834e-10
-3.54704e-09
3.02184e-09
3.95555e-10
1.29641e-10
3.69565e-09
-3.67648e-09
-3.54847e-11
1.63153e-11
1.64269e-09
-4.28941e-10
-4.44822e-09
3.23447e-09
8.27286e-10
-8.33201e-10
-1.02661e-09
1.03252e-09
-3.35346e-09
2.3482e-09
-1.70685e-09
2.71212e-09
3.75721e-09
-3.7299e-09
-5.4355e-11
2.70418e-11
3.88378e-09
-3.89621e-09
-1.41138e-11
2.65416e-11
3.95726e-09
-3.93017e-09
-4.63406e-11
1.92452e-11
5.70531e-10
-1.49043e-09
-2.72724e-09
3.64714e-09
3.86231e-09
-3.87617e-09
2.75368e-12
1.10996e-11
3.88739e-09
-3.8721e-09
-3.02763e-11
1.49787e-11
-1.23274e-09
-6.18312e-09
5.6388e-09
1.77705e-09
-3.87048e-09
-7.71592e-11
3.12115e-09
8.26487e-10
5.5317e-11
3.86694e-09
-8.3658e-11
2.30503e-09
-2.29999e-09
-5.04062e-12
7.39836e-10
3.32445e-09
-4.04858e-09
-1.56979e-11
5.5931e-09
-2.89041e-10
-6.84492e-12
-5.29721e-09
-4.09582e-09
-8.07164e-11
-1.67501e-11
4.19329e-09
3.08598e-10
-2.86679e-10
-1.97606e-09
1.95414e-09
3.22938e-09
-1.32342e-11
4.54403e-11
-3.26159e-09
-5.7532e-09
-1.73055e-09
5.11928e-09
2.36446e-09
-7.22125e-11
-5.47147e-10
7.52923e-11
5.44067e-10
-1.42846e-09
-2.74728e-09
1.24349e-09
2.93225e-09
-2.91368e-09
2.91365e-09
-1.63528e-11
1.6375e-11
-3.57457e-11
2.11281e-11
9.98276e-10
7.44351e-10
-9.15342e-10
3.34153e-09
-8.55245e-10
-2.73145e-09
2.45168e-10
-1.56303e-09
2.41509e-09
1.92124e-09
-2.7733e-09
3.69465e-09
-3.67456e-09
-4.26247e-11
2.25336e-11
3.16431e-09
-2.56354e-10
7.94125e-10
-3.70208e-09
-3.97414e-10
4.02252e-09
-3.68055e-09
5.54467e-11
-2.98979e-09
2.90728e-09
2.01633e-09
-1.93381e-09
2.55161e-11
2.27951e-09
1.30481e-09
2.33261e-09
-3.39109e-09
-2.46339e-10
3.65864e-09
-3.90077e-09
-1.14779e-09
1.38992e-09
3.13271e-09
7.8597e-11
-2.96877e-09
-2.42545e-10
-1.60299e-11
-4.29229e-09
3.73224e-09
5.76083e-10
-1.87126e-09
1.91873e-09
9.39561e-10
-9.87032e-10
3.53307e-09
-3.52105e-09
-2.84011e-11
1.6386e-11
-4.70428e-11
-3.3889e-09
1.60494e-10
3.27545e-09
-3.43048e-09
3.41293e-09
-9.42576e-11
1.11802e-10
9.38858e-10
-3.50262e-09
2.84541e-09
-2.81651e-10
-2.11243e-09
2.00862e-09
-1.73514e-09
-1.00613e-09
9.3382e-10
-8.36024e-10
9.08333e-10
-3.23047e-09
2.12847e-10
9.42906e-10
2.07472e-09
-3.66889e-09
4.2239e-12
1.17631e-10
5.51302e-11
-1.50511e-10
-2.28262e-09
-1.85916e-09
1.71198e-09
1.47184e-10
3.25257e-09
-3.25765e-09
-9.83811e-12
1.49195e-11
-4.02072e-09
3.99609e-09
8.43519e-11
-5.97214e-11
-4.72046e-10
4.47209e-09
-4.50597e-09
-9.97809e-10
2.44077e-10
-4.15243e-10
1.16897e-09
2.06299e-09
-5.0371e-09
7.35208e-09
-4.37796e-09
-9.36754e-11
2.72698e-10
-1.96384e-10
1.73614e-11
2.98193e-10
-3.74928e-09
-1.00265e-10
3.55136e-09
2.36775e-09
-1.79552e-09
-5.7223e-10
-1.26762e-10
-6.48434e-11
3.23728e-09
-3.04567e-09
-1.8447e-09
-7.30072e-10
1.61091e-09
9.63858e-10
2.61785e-11
-1.89597e-11
2.39952e-10
7.85524e-10
-2.87584e-10
-7.37892e-10
2.90068e-09
-7.42803e-10
-2.0894e-09
-6.84798e-11
-2.06395e-10
1.15809e-09
-5.02354e-09
4.07184e-09
1.44541e-09
-6.74911e-10
7.33577e-10
-1.50407e-09
-3.94086e-09
4.41816e-09
-4.09043e-09
3.61313e-09
-8.02161e-10
8.2592e-10
2.16192e-10
1.56309e-09
2.33874e-09
-2.42742e-09
-1.47442e-09
2.6948e-09
-1.23808e-09
1.08333e-09
-2.54005e-09
-1.74955e-09
-2.35055e-09
8.1689e-10
3.28321e-09
-3.6995e-10
6.55681e-11
3.22924e-09
-2.92486e-09
6.21593e-10
5.1654e-11
-3.73863e-11
-6.35861e-10
-3.89948e-09
3.3581e-10
-1.05219e-10
4.51993e-09
-1.94821e-09
-3.68805e-09
1.11633e-09
4.21729e-09
-4.18483e-09
-2.00988e-12
-3.04551e-11
3.90895e-09
-3.44303e-11
1.28697e-11
3.3367e-09
-3.29448e-09
-6.10619e-11
1.88449e-11
3.3663e-11
-4.69985e-11
-3.47341e-09
3.66563e-09
-3.25664e-10
1.33451e-10
3.40223e-09
-3.36877e-09
-5.69849e-11
2.35199e-11
-8.49145e-10
4.60703e-10
9.00382e-10
-5.1194e-10
-1.52005e-09
7.86208e-10
3.38381e-09
-2.64997e-09
-9.03408e-10
1.19868e-09
-3.1567e-09
2.86143e-09
-1.9731e-09
2.71531e-09
1.99108e-09
-1.48822e-10
4.64408e-09
-4.58962e-09
9.43628e-11
4.94181e-09
-3.02672e-09
-1.16641e-09
-7.48683e-10
-1.28301e-10
3.71223e-09
-6.36065e-11
-3.52033e-09
-2.24992e-09
3.05604e-09
1.84047e-09
8.85553e-10
-8.38701e-10
3.25933e-10
-3.72785e-10
2.30038e-09
-5.07314e-09
-1.53316e-09
4.30593e-09
1.92364e-11
-4.04502e-11
2.04008e-09
-1.40977e-09
2.06448e-09
3.28513e-09
1.28096e-09
-2.40177e-09
-2.16432e-09
-3.36182e-09
3.11995e-09
8.90739e-10
-6.48876e-10
-1.258e-09
-1.02244e-09
2.08253e-09
1.97912e-10
-2.8935e-09
2.89657e-09
-1.25573e-11
9.49145e-12
-1.37034e-09
1.41117e-09
-1.02978e-09
-4.6799e-09
8.21444e-10
-4.1028e-11
2.76791e-09
-2.71556e-09
-8.60791e-10
8.08444e-10
1.01407e-09
-4.33933e-09
-8.01334e-10
4.1266e-09
4.126e-09
-4.18324e-09
1.07131e-09
-4.51496e-09
-1.4892e-09
6.5958e-09
-5.91639e-10
1.5893e-09
-1.43075e-09
-2.58738e-09
2.42883e-09
1.91135e-09
-2.08942e-10
-1.70241e-09
8.17374e-10
-4.42283e-09
5.66844e-09
-1.32598e-09
3.16176e-09
-2.3528e-09
5.17014e-10
3.90751e-09
3.49398e-10
-4.46082e-09
2.03908e-10
-2.63931e-11
-3.84805e-09
3.8457e-09
2.87399e-11
5.65773e-10
-5.76884e-11
-5.80297e-10
-2.71377e-09
1.18092e-09
-6.46143e-10
2.17899e-09
4.95563e-09
1.38538e-09
-3.30231e-09
-3.0387e-09
-3.64528e-09
3.66049e-09
2.1406e-11
-3.6615e-11
4.75282e-09
-4.44528e-09
-3.70244e-09
-6.19552e-12
3.26224e-09
1.17804e-11
6.01632e-11
3.02516e-09
6.52758e-11
-3.1506e-09
4.37567e-10
-4.35997e-10
1.04494e-10
-1.06064e-10
2.64518e-10
-5.24536e-10
-2.14858e-10
4.74876e-10
2.46801e-09
1.91018e-09
-4.23698e-09
-1.4121e-10
7.34357e-09
-5.5601e-09
3.87957e-10
3.06038e-09
1.24895e-09
-1.87709e-09
4.98922e-10
-9.5734e-11
-5.08719e-10
1.05531e-10
-1.57022e-09
-2.3919e-09
-2.18214e-11
3.98395e-09
3.46318e-09
-3.4792e-09
4.51591e-12
1.15074e-11
-1.18629e-09
1.14766e-09
-2.76663e-10
3.15285e-10
1.49176e-10
-2.38125e-10
-3.19323e-09
1.25388e-09
3.45267e-09
-1.51333e-09
4.5284e-09
7.66145e-10
-4.41323e-09
3.99525e-09
-4.97242e-11
1.9834e-11
-8.08886e-10
-3.5455e-09
2.79136e-09
1.93261e-09
-1.3066e-09
1.41407e-09
5.53035e-11
3.1064e-10
-5.28821e-10
1.62877e-10
-1.12654e-09
9.14745e-10
-9.19569e-10
1.13136e-09
-4.67944e-09
4.70869e-09
-4.33916e-10
4.04666e-10
4.4598e-10
-2.24384e-09
-3.87621e-10
2.18548e-09
1.20274e-10
-1.12795e-10
-3.85245e-09
3.84497e-09
-6.48507e-10
1.44485e-10
-1.77539e-10
6.8156e-10
3.01889e-09
5.32857e-11
-2.85115e-10
-2.78707e-09
-3.63339e-09
-3.51514e-11
2.32611e-11
-1.56101e-09
2.86416e-09
-2.73161e-09
-5.94088e-09
-2.24484e-09
1.87605e-09
6.30967e-09
2.2903e-09
-2.01287e-09
-2.44625e-09
2.16883e-09
1.01205e-10
1.11557e-10
-3.28936e-09
3.0766e-09
3.35837e-11
-2.04353e-11
-5.77783e-09
5.83499e-09
-1.10324e-10
5.31605e-11
-3.64551e-09
2.23241e-09
1.22406e-09
1.8905e-10
-2.33019e-09
2.20322e-09
1.71627e-09
-2.24698e-09
2.37555e-09
2.16173e-09
2.06158e-10
5.09146e-10
-5.95292e-10
-1.20012e-10
1.46212e-09
-4.52914e-09
4.08196e-09
-1.01495e-09
6.19416e-10
-5.97217e-10
2.53385e-10
-2.75584e-10
4.29366e-11
-5.40174e-11
3.5537e-09
-6.19315e-09
6.06918e-09
-3.42972e-09
-1.51688e-09
-2.1574e-09
8.02128e-10
2.87216e-09
6.71404e-11
-2.88768e-09
-4.87755e-11
2.86932e-09
-1.30128e-09
-2.05326e-09
5.49337e-10
2.80521e-09
2.65939e-09
-1.91562e-09
1.18803e-09
-1.9318e-09
-1.47056e-09
-1.62285e-10
1.63285e-09
2.91463e-10
-3.34808e-09
4.99607e-09
-1.93946e-09
-2.87405e-09
2.85756e-09
-2.01564e-11
3.66419e-11
8.3011e-10
-6.95816e-10
-2.22083e-09
2.08653e-09
1.89822e-10
-2.56532e-09
2.80947e-09
-4.3397e-10
-3.38317e-09
3.33462e-09
-4.03801e-11
8.89246e-11
-1.10231e-09
-2.2318e-09
3.36453e-09
-3.0425e-11
5.36489e-09
-4.43714e-09
-1.40428e-09
4.76526e-10
-3.37786e-09
-4.26857e-09
2.3538e-09
4.01586e-09
-2.78845e-11
-3.99281e-09
4.83656e-12
4.65291e-09
-3.559e-10
-4.66468e-09
3.67667e-10
5.67253e-10
-5.39699e-10
2.5079e-10
-2.78345e-10
-3.33825e-09
4.25686e-09
-9.71126e-10
5.2515e-11
1.06017e-10
-7.54655e-10
-1.53523e-10
-1.75093e-10
-3.22297e-10
1.60457e-10
3.36932e-10
2.05043e-09
3.04326e-09
-2.7546e-09
-6.08144e-10
7.36036e-10
-4.56379e-09
4.4359e-09
3.60779e-09
5.51131e-10
-5.30354e-11
-4.10589e-09
-2.09351e-10
-1.21078e-09
1.42013e-09
-7.88906e-10
1.92869e-09
8.87316e-10
-2.0271e-09
1.98129e-09
-1.23074e-09
2.4437e-09
-4.62387e-09
-3.89258e-09
3.53694e-09
4.97951e-09
-3.42782e-09
-1.16036e-10
7.04376e-11
5.13744e-10
-4.94145e-10
2.28007e-10
-2.47606e-10
-2.37478e-09
2.56554e-10
-1.58722e-10
2.27694e-09
-1.74636e-09
-3.43081e-09
1.44329e-09
3.73387e-09
-3.62003e-09
3.62754e-09
2.03913e-11
-2.79074e-11
-3.31416e-10
8.42517e-10
-2.02452e-09
1.51342e-09
1.16028e-09
-1.17957e-09
-2.0916e-09
2.11089e-09
2.34479e-09
-2.56432e-09
-2.45361e-09
-1.25096e-09
5.08757e-09
-3.83661e-09
-3.63983e-09
2.69156e-09
3.88901e-09
-2.94074e-09
9.57935e-12
-1.93639e-11
1.52396e-10
-5.96135e-09
-1.79863e-10
5.98881e-09
-1.38883e-09
-4.25589e-09
5.03657e-09
-7.12485e-10
-3.14288e-10
1.02677e-09
1.10946e-10
-3.14503e-09
-7.26968e-10
4.75553e-10
-4.32336e-10
2.17282e-10
-2.60499e-10
2.44781e-10
-7.30063e-10
-2.20455e-09
2.68983e-09
-3.23934e-09
1.52289e-13
2.01566e-10
3.03762e-09
3.82389e-09
-9.00494e-11
2.33654e-11
1.32769e-09
-5.4191e-09
5.18055e-09
1.08501e-09
-6.66273e-10
-1.15822e-09
7.39483e-10
3.01023e-11
-1.71184e-10
3.40189e-09
-3.2608e-09
3.63694e-09
-4.43266e-09
8.16341e-10
-2.06211e-11
-3.42976e-09
6.99817e-11
3.41536e-09
-5.55768e-11
3.91077e-10
-3.65797e-10
2.00188e-10
-2.25468e-10
4.04711e-09
-4.30532e-09
-9.85579e-10
1.24379e-09
-3.91577e-09
3.87361e-09
1.00547e-10
-5.83876e-11
1.19422e-09
7.93132e-10
-1.98736e-09
-5.73575e-12
8.27769e-11
-2.47871e-09
2.15259e-09
-3.79882e-10
7.06003e-10
-1.20408e-09
1.20999e-09
2.99795e-09
-3.00387e-09
1.51565e-10
-1.16584e-09
1.81517e-10
3.90899e-09
-3.88824e-09
-2.02269e-10
-3.81123e-09
3.27367e-10
3.59147e-09
-1.07605e-10
5.84917e-10
-3.17604e-10
-3.10677e-10
4.3364e-11
4.19843e-09
-1.7297e-09
-3.652e-09
9.16427e-11
-8.02434e-11
3.82314e-09
-3.83454e-09
9.36941e-11
-2.44895e-10
3.05693e-09
-2.90573e-09
3.40659e-10
-3.23745e-10
1.81253e-10
-1.98168e-10
-3.03311e-09
3.80399e-09
-1.54564e-09
7.74759e-10
2.66146e-10
-3.78402e-10
4.33638e-09
3.79893e-10
-2.25976e-09
-2.45651e-09
-3.82198e-09
3.76581e-09
9.00176e-11
-3.38521e-11
-5.30089e-11
4.30779e-11
4.47498e-10
9.78234e-10
2.67774e-09
-3.82586e-11
-3.80994e-09
3.79059e-09
5.76065e-11
3.02508e-10
-2.89118e-10
1.62544e-10
-1.75934e-10
-3.62954e-09
3.51422e-09
1.91749e-10
-7.64347e-11
1.98107e-09
2.51492e-10
-1.72053e-09
-5.1203e-10
2.78912e-10
-3.01086e-10
1.47267e-10
-1.25093e-10
-4.2889e-11
1.23214e-10
-3.73159e-09
3.69201e-09
7.02327e-11
-3.06585e-11
-3.76067e-09
3.81924e-09
-2.38198e-11
-3.47504e-11
2.24114e-10
-2.03009e-10
1.49345e-10
-1.70451e-10
-2.65562e-10
2.83639e-10
1.83596e-10
-2.01674e-10
-1.65484e-09
1.19617e-09
-2.89479e-09
-3.66966e-09
3.69724e-09
-1.05592e-11
-1.70289e-11
-5.69529e-09
5.23613e-11
-1.34894e-10
1.84934e-09
-1.78577e-09
-3.30708e-09
3.2435e-09
1.03336e-09
-1.01363e-09
-1.14626e-09
-8.45759e-10
9.06979e-10
1.02379e-09
-4.48557e-09
-2.11652e-09
1.87735e-09
4.72475e-09
2.47452e-09
-2.77693e-09
3.44381e-09
-3.14141e-09
1.80395e-10
1.15969e-10
-1.30598e-10
-1.65765e-10
2.21124e-11
-3.34047e-09
-1.53307e-11
3.33368e-09
1.25979e-09
-4.10926e-09
2.95008e-09
-1.00618e-10
-4.34807e-09
4.17332e-09
1.7475e-10
3.93145e-10
1.76404e-10
-1.53654e-10
-4.15894e-10
2.91638e-10
-3.44815e-10
-2.81092e-09
2.80137e-09
-1.92698e-11
2.88222e-11
-1.99651e-09
2.17643e-09
1.46127e-09
-1.6412e-09
3.63635e-11
-1.88711e-11
-1.81495e-12
-2.02692e-12
9.66589e-11
-9.28171e-11
-3.35953e-09
5.49086e-10
-3.6585e-10
3.17629e-09
-2.2303e-09
-3.66824e-09
3.26849e-09
2.63005e-09
3.31958e-09
3.75987e-11
-3.41706e-09
5.98838e-11
-2.72187e-09
-1.20577e-09
2.4969e-09
-3.45673e-09
3.21265e-09
1.99828e-09
-1.7542e-09
-6.98099e-10
-2.54559e-09
1.16491e-10
3.1272e-09
6.87655e-10
4.23716e-11
-6.62705e-10
-6.73213e-11
3.6142e-11
-4.95453e-11
-6.20052e-09
4.81481e-09
4.93941e-09
6.5145e-10
-5.67963e-10
5.66971e-10
-6.50457e-10
5.32814e-09
-5.20563e-09
-3.52342e-10
2.2984e-10
3.92603e-10
2.23946e-09
-2.76644e-09
1.34372e-10
1.26439e-11
-1.33523e-11
-1.8753e-11
1.94614e-11
3.51072e-10
-1.83905e-10
-3.42261e-10
-2.45065e-09
3.43585e-09
7.65665e-10
-1.75087e-09
3.42726e-09
-3.3334e-09
1.23008e-10
-2.16863e-10
-3.96921e-09
-3.83105e-09
2.70025e-09
5.10001e-09
2.34906e-09
-4.68552e-10
4.78161e-10
-2.35867e-09
-3.69657e-09
3.63522e-09
2.2857e-10
-1.67216e-10
9.20518e-10
-4.20726e-09
4.22059e-09
-9.33846e-10
9.2688e-11
-6.29231e-11
-3.04225e-09
3.09992e-09
-3.6975e-09
-3.36196e-09
-1.52751e-09
1.22958e-09
3.6599e-09
1.48095e-09
-6.60173e-10
5.53349e-10
-1.67884e-09
-4.15945e-09
1.49895e-09
5.89123e-11
-5.32475e-11
5.60108e-10
1.84634e-09
-2.48178e-09
-8.64747e-10
1.50019e-09
1.60596e-09
-3.93289e-09
-2.71016e-09
2.97387e-11
3.22875e-09
-5.9209e-12
6.92073e-12
6.95901e-13
3.8296e-10
-3.34034e-10
-2.55314e-10
-3.62304e-09
-3.35853e-11
3.65979e-11
1.35062e-10
-4.90197e-10
7.51747e-10
-3.96612e-10
3.5367e-09
-1.05078e-09
2.07354e-10
-2.69327e-09
-4.31363e-09
8.0752e-10
-6.2451e-10
2.99304e-09
-2.20177e-09
-1.23667e-09
4.45399e-10
3.40717e-09
-6.96558e-09
-1.94705e-09
5.50546e-09
-4.62018e-11
3.28391e-09
1.60836e-10
-3.39854e-09
5.93203e-09
5.53585e-11
9.14859e-11
-3.98597e-11
-4.30513e-09
-1.50191e-09
4.64672e-09
1.16031e-09
-8.64739e-10
2.67729e-09
5.84229e-10
-2.39678e-09
-4.19127e-09
-1.78731e-10
4.36591e-10
3.93341e-09
-3.76018e-09
3.96058e-09
3.85645e-09
-4.05686e-09
1.95236e-09
-2.25521e-10
-2.60005e-09
8.73205e-10
-2.59037e-09
1.52805e-09
-1.74264e-09
2.80496e-09
4.2319e-09
2.3385e-09
-5.3106e-09
-1.24619e-09
-2.33034e-09
3.11094e-09
4.6559e-10
7.46917e-10
-3.74385e-09
2.8519e-09
1.45025e-10
-5.22484e-09
1.0558e-10
8.40619e-10
4.27864e-09
-3.22625e-09
3.68048e-09
5.21571e-10
-9.75797e-10
1.58088e-09
-1.42998e-09
-2.29601e-09
2.14511e-09
3.11821e-09
-3.41692e-09
3.9458e-10
-9.58695e-11
1.84596e-09
-2.19354e-09
4.2416e-09
-3.89403e-09
-1.65322e-09
7.19695e-10
-3.07343e-10
1.24086e-09
-1.85537e-09
2.09114e-09
2.52482e-10
-3.27327e-10
2.94061e-10
-2.19216e-10
-9.00477e-11
1.01694e-09
-2.78047e-09
1.85358e-09
3.15646e-10
-2.18023e-09
2.31056e-09
-1.62603e-10
2.90875e-10
-2.77902e-10
1.4963e-10
-2.11848e-09
-1.4243e-09
2.07284e-09
1.46993e-09
2.05608e-10
7.52391e-10
-1.41163e-10
-8.16836e-10
3.38549e-09
-5.04477e-09
2.3723e-09
-7.13025e-10
-8.75088e-10
1.42785e-09
-3.30935e-09
2.75658e-09
2.04451e-09
-3.17667e-09
-4.2886e-10
-2.75911e-12
4.28769e-12
-9.37462e-11
9.22177e-11
1.65427e-09
-8.10711e-10
1.08905e-09
-1.63683e-09
-2.56342e-09
1.06295e-09
-3.30305e-09
3.25002e-09
-2.71831e-11
8.02216e-11
7.20459e-11
-6.44663e-11
3.80705e-09
-3.81463e-09
6.68671e-12
1.40495e-10
-3.04843e-12
-1.44133e-10
2.12746e-10
-2.41838e-10
-1.96388e-09
-1.83505e-09
2.00544e-09
-3.28219e-09
3.63707e-09
-4.11507e-09
2.1828e-09
7.99531e-10
-3.42958e-09
4.47246e-10
3.00681e-09
-1.20069e-09
-2.50422e-09
-4.60562e-09
-1.07956e-09
1.00574e-09
-3.52158e-09
-1.92222e-09
3.42283e-09
2.02098e-09
3.287e-09
-3.28813e-09
2.87465e-11
-2.76246e-11
6.5802e-10
7.24876e-09
-1.99651e-09
-5.91027e-09
-3.59134e-09
1.12601e-10
3.52035e-09
-4.16116e-11
-2.36395e-09
-2.84815e-09
2.89004e-09
2.32206e-09
3.34261e-09
-2.92506e-09
-1.51986e-09
-2.04509e-09
1.63276e-09
-1.09105e-09
1.50338e-09
-1.97653e-10
-2.3943e-09
2.59196e-09
3.45454e-09
-2.30411e-09
1.64157e-09
-6.08146e-09
3.54415e-09
8.9574e-10
4.71934e-12
5.83779e-12
-1.05571e-11
2.79926e-09
-3.81667e-09
-1.97239e-09
-2.07448e-09
-1.19082e-09
2.3919e-09
8.73397e-10
-1.09627e-09
9.84983e-10
-3.84621e-10
4.95905e-10
2.33731e-10
-4.14836e-09
4.06719e-09
-1.52554e-10
8.8622e-10
-5.4555e-10
3.24737e-09
-2.34365e-09
-3.09053e-09
2.52944e-10
-2.82908e-10
-3.76557e-11
-3.74952e-09
3.72532e-09
6.18607e-11
2.90702e-10
-3.51259e-09
-2.41317e-10
3.4632e-09
1.79139e-09
-2.33396e-09
2.07559e-09
-1.53301e-09
2.26197e-09
-3.5318e-09
1.54597e-09
-2.76147e-10
1.6071e-09
9.14465e-10
-3.12687e-10
-2.20888e-09
2.53468e-09
8.21867e-11
-1.78845e-10
-2.45735e-09
2.42921e-09
-6.90879e-10
5.53807e-10
-4.88096e-10
6.25168e-10
6.64128e-10
-1.73674e-09
1.82293e-09
-7.50325e-10
-3.94983e-09
4.01491e-09
1.16433e-10
2.03708e-09
-1.98176e-09
1.86651e-09
-3.49172e-09
-1.29972e-09
2.92494e-09
-4.45453e-09
9.14221e-11
-1.87942e-10
4.55105e-09
1.26117e-11
-8.49289e-11
-7.22465e-10
5.40412e-09
1.32384e-10
-4.81404e-09
3.24431e-10
-3.50238e-10
2.69679e-10
-2.43873e-10
3.53792e-11
-1.7962e-11
-3.40602e-11
4.33667e-11
6.12287e-10
3.47436e-09
-4.98009e-09
9.56176e-10
5.49554e-10
-1.59784e-09
1.98466e-09
1.50596e-09
1.92116e-11
-3.32873e-11
2.69978e-09
-2.42145e-09
-3.01094e-09
2.73261e-09
7.53126e-10
3.43296e-10
-1.98514e-10
2.22041e-09
-3.05486e-10
-3.88053e-09
1.96561e-09
2.40201e-10
-2.66156e-10
3.30234e-10
4.43204e-09
-4.25898e-10
4.85165e-12
-1.19892e-11
-3.02716e-11
3.74091e-11
-4.07862e-09
5.05187e-09
-3.3372e-09
8.96546e-11
-3.89531e-09
3.92593e-09
-2.17984e-09
2.04498e-09
-3.58696e-09
3.72182e-09
1.47146e-10
-3.02866e-09
1.56167e-11
2.8659e-09
-1.48872e-10
3.89063e-09
-3.89592e-09
1.54157e-10
-2.98554e-09
3.91637e-09
2.80438e-11
-9.58874e-10
-1.18254e-09
2.99854e-09
7.59171e-10
-2.57518e-09
3.98268e-09
-3.98249e-09
2.74843e-11
-2.76758e-11
4.02903e-09
-3.16029e-09
-1.34079e-09
2.07596e-09
-1.09733e-10
-1.86636e-09
-9.98678e-11
2.34195e-09
-1.28712e-09
-2.88884e-09
2.8716e-09
3.49321e-11
-1.76986e-11
3.3554e-09
-3.36898e-09
4.27963e-11
-2.92138e-11
-4.49288e-10
-1.30243e-09
6.55453e-10
-1.93817e-09
2.93652e-09
-3.22477e-09
1.84682e-11
3.20814e-09
-1.83467e-12
2.25924e-10
-2.44517e-10
-5.81498e-10
5.56892e-10
-5.89846e-10
5.71247e-10
-7.18653e-10
7.37252e-10
3.25479e-09
-3.25069e-09
2.31885e-11
-2.7286e-11
3.24488e-09
6.15158e-11
-4.85137e-11
-3.25788e-09
3.66202e-09
3.41937e-09
-3.07847e-09
-4.00292e-09
-2.81946e-09
3.37926e-09
-2.21465e-09
3.38792e-09
-3.36122e-09
-3.14976e-11
4.80237e-12
2.48762e-09
5.27799e-09
3.52204e-10
1.51808e-09
1.97879e-09
-1.08179e-09
-3.00415e-09
2.94988e-09
1.05474e-10
-5.11973e-11
-2.7765e-09
3.89213e-10
2.8382e-09
-2.60714e-09
-1.55703e-09
-7.51704e-11
2.28115e-09
-2.20598e-09
2.09757e-10
-2.51016e-10
3.88899e-11
-6.4473e-11
-4.07547e-09
-1.21406e-09
2.24728e-09
-1.9149e-09
2.24513e-09
3.35049e-09
-3.31923e-09
-4.33843e-11
1.21225e-11
5.32029e-10
-5.71093e-09
5.55354e-09
-3.74642e-10
-1.93708e-09
-5.56111e-10
8.9981e-10
-3.48975e-09
9.23227e-10
2.85799e-09
7.28161e-10
-1.07324e-09
-1.70002e-09
-2.3488e-10
-2.21191e-09
2.30908e-09
1.37708e-10
-4.56695e-09
-2.02296e-10
4.65555e-09
1.13696e-10
-5.35457e-09
-4.33181e-10
5.23356e-09
5.542e-10
3.3056e-09
-3.28671e-09
-3.09129e-11
1.20186e-11
2.90787e-09
-4.15753e-11
-2.89396e-09
2.76751e-11
3.07912e-12
-4.07111e-09
-2.19537e-11
4.08999e-09
4.64192e-11
-4.65981e-11
1.64384e-12
-1.46494e-12
-1.19313e-10
5.77703e-11
4.0774e-09
-3.93522e-09
-3.23401e-10
5.62051e-10
3.777e-09
4.50245e-09
-5.03264e-09
-3.24681e-09
6.05873e-11
-7.15302e-11
5.09865e-10
1.12145e-09
1.70147e-09
-1.36511e-09
-1.45782e-09
1.84411e-10
-2.09549e-10
3.28831e-09
-3.29585e-09
-4.51263e-12
1.20448e-11
4.85867e-11
1.45712e-10
-3.11828e-09
2.92398e-09
-1.71559e-09
-2.52991e-09
3.12022e-09
1.12528e-09
1.16343e-10
2.61064e-09
1.21176e-10
-2.84816e-09
-3.27174e-09
-9.00502e-10
4.10861e-09
6.36315e-11
-5.71806e-09
6.06289e-09
-1.06729e-09
1.06479e-09
-1.22248e-09
-2.34706e-09
2.50476e-09
7.36615e-11
-4.20921e-11
2.56099e-11
-2.83427e-11
1.30571e-10
-1.27838e-10
3.27449e-09
-3.23312e-09
-6.75947e-11
2.62266e-11
-7.05987e-12
-2.07651e-09
2.08357e-09
6.06305e-11
-5.64876e-11
3.78943e-09
-3.79357e-09
1.43384e-09
3.00995e-09
-4.09058e-09
-3.53208e-10
-4.92977e-11
-2.42325e-09
4.72384e-11
2.42531e-09
-6.67989e-11
1.57911e-11
-2.44e-11
7.54078e-11
3.17525e-09
-3.138e-09
-5.99306e-11
2.26836e-11
3.82601e-09
-1.86288e-09
1.81612e-11
1.66506e-10
-1.87743e-10
-3.12438e-09
3.23082e-09
2.26521e-11
-1.29092e-10
-3.56569e-09
3.92778e-09
-7.63223e-10
4.01138e-10
3.98406e-09
4.97492e-09
-5.18199e-09
3.09696e-09
-3.08436e-09
-1.14779e-11
-1.1241e-12
1.66478e-10
-3.38983e-09
3.29049e-09
-3.06137e-09
-7.49145e-11
-6.11356e-11
3.19742e-09
2.37239e-09
4.32979e-11
-6.61501e-09
4.19932e-09
-3.28963e-09
-8.27344e-11
3.41845e-09
-4.60804e-11
8.28895e-09
-6.90967e-09
-1.37929e-09
7.86165e-10
-5.01693e-09
5.55845e-09
-4.00371e-09
2.53336e-09
-1.9683e-09
-2.49868e-09
2.22056e-09
2.24643e-09
-4.27262e-09
-5.06993e-09
3.58935e-09
-2.95541e-09
2.83165e-09
1.33515e-09
-1.48569e-09
4.70035e-10
-3.19495e-10
-2.01607e-09
2.52028e-09
-5.04207e-10
1.32255e-09
-4.18499e-09
-4.99382e-10
1.80102e-09
-1.9924e-10
-1.29318e-09
3.21054e-09
-3.20826e-09
2.38725e-11
-2.61512e-11
7.64076e-11
-8.5983e-11
1.62547e-11
-6.67918e-12
1.45575e-10
-1.55781e-10
-3.86519e-09
6.80104e-11
3.88882e-09
4.91575e-09
-4.88305e-09
-7.23239e-11
3.9624e-11
2.04002e-09
-2.06641e-09
-2.95699e-09
2.7558e-09
-1.48337e-10
3.4952e-10
1.2306e-09
-1.1519e-09
-5.40119e-09
5.32249e-09
4.00691e-09
-3.97242e-09
2.30665e-11
-5.75522e-11
-2.40157e-09
2.30401e-09
2.57208e-09
-5.37386e-09
1.32875e-09
4.03279e-09
1.23144e-11
-6.16692e-11
6.43254e-11
-5.07256e-12
2.41644e-12
-3.13852e-10
1.74314e-10
-1.82758e-10
9.75525e-11
-3.62464e-09
3.55257e-09
-2.54819e-11
-4.38127e-09
4.50527e-09
-2.27739e-10
1.03738e-10
-4.50105e-09
2.28455e-10
4.10314e-09
1.69451e-10
-1.37159e-09
-1.31612e-09
9.67796e-10
1.71991e-09
-3.19331e-09
1.26309e-09
-1.23544e-09
1.52857e-10
-2.29828e-10
-4.35281e-09
3.83586e-09
-9.93235e-10
1.51018e-09
1.80198e-09
-1.72427e-09
2.65315e-09
-2.73086e-09
-3.94057e-11
3.24593e-09
-3.21789e-09
3.16088e-09
-2.5496e-11
8.25145e-11
-3.41553e-11
-3.6865e-09
3.66025e-09
6.04103e-11
-3.68107e-09
2.98606e-09
3.408e-09
-2.71298e-09
3.34304e-11
-1.61863e-11
4.62573e-09
-4.62893e-09
1.19247e-11
-8.72723e-12
3.16311e-09
2.56785e-10
-3.37405e-09
-4.58482e-11
-2.16061e-09
1.00742e-11
2.15054e-09
-2.79843e-09
2.62472e-09
-1.9869e-09
4.65763e-11
-2.70276e-10
-2.34992e-09
2.01224e-09
1.12477e-09
-7.87083e-10
-1.01561e-10
-3.83462e-09
1.93076e-10
3.7431e-09
2.92487e-09
-4.71681e-09
2.82385e-09
-1.03191e-09
-3.28643e-09
2.37162e-09
-1.05349e-09
1.55815e-09
-1.55106e-09
-1.94561e-09
1.93853e-09
-2.36942e-09
-1.83524e-09
2.24079e-09
-9.255e-11
1.86889e-10
-3.32669e-09
3.23235e-09
2.43365e-09
2.26574e-09
-1.39228e-09
-8.57879e-11
1.39076e-10
-4.50782e-09
-1.76688e-10
-3.48136e-09
6.67073e-11
-2.17931e-10
-3.56656e-09
4.24962e-10
1.59626e-09
-2.28943e-09
-2.9879e-09
1.94262e-09
-2.92369e-09
2.52059e-09
-1.53952e-09
1.20484e-11
-4.62924e-11
-1.10217e-09
4.53851e-10
-1.96405e-09
2.61237e-09
-5.65142e-09
9.41142e-10
-8.2101e-10
3.54031e-09
-5.42819e-11
-2.66502e-09
3.49088e-09
-1.33672e-09
4.9833e-10
-2.65248e-09
-2.29588e-11
-9.47771e-11
-5.22602e-12
1.22962e-10
-2.08898e-09
-1.43356e-09
1.40406e-09
3.1904e-09
-3.21385e-09
2.25226e-11
9.21796e-13
4.63992e-09
1.59688e-11
-3.01559e-11
1.03172e-08
-2.53409e-09
-7.12506e-09
1.01827e-09
1.37501e-09
-9.47872e-10
-4.10356e-09
1.97863e-09
-1.10204e-09
3.22697e-09
-6.07335e-09
1.26145e-09
5.78426e-09
-9.72352e-10
2.8298e-09
-1.18746e-09
2.72184e-10
-1.91453e-09
-2.59429e-11
4.28861e-09
-4.34845e-09
4.62436e-09
3.16359e-11
-1.6077e-11
-4.58716e-09
-2.17995e-11
-1.99687e-11
3.09858e-09
8.1563e-12
3.70706e-12
-3.11044e-09
-2.6088e-09
1.53894e-10
-5.03144e-10
2.95805e-09
2.90504e-09
-1.94542e-09
1.47402e-09
-3.63113e-09
6.48041e-10
-2.1066e-11
1.16374e-10
-1.27727e-10
1.91737e-11
-7.8206e-12
-3.84516e-09
-2.53961e-10
5.88192e-10
3.51092e-09
-8.07228e-10
9.12005e-10
-2.01733e-11
4.44403e-11
-4.61143e-09
-1.22247e-10