/*--------------------------------*- C++ -*----------------------------------*\
  =========                 |
  \\      /  F ield         | OpenFOAM: The Open Source CFD Toolbox
   \\    /   O peration     | Website:  https://openfoam.org
    \\  /    A nd           | Version:  8
     \\/     M anipulation  |
\*---------------------------------------------------------------------------*/
FoamFile
{
    version     2.0;
    format      ascii;
    class       surfaceScalarField;
    location    "6";
    object      phi;
}
// * * * * * * * * * * * * * * * * * * * * * * * * * * * * * * * * * * * * * //

dimensions      [0 3 -1 0 0 0 0];

internalField   nonuniform List<scalar> 
9107
(
4.51092e-09
-1.1518e-09
1.19206e-09
-4.55118e-09
-4.80158e-09
4.95212e-09
-2.12958e-09
1.97904e-09
-1.93435e-09
4.76053e-09
-4.33503e-09
1.50886e-09
5.3888e-09
-1.24249e-09
-5.56761e-09
1.42129e-09
-1.94384e-09
-4.35464e-09
5.40587e-09
8.92615e-10
-5.68724e-09
5.51811e-09
7.99846e-11
8.9151e-11
5.88486e-09
-4.58831e-09
4.08168e-10
-1.70471e-09
-3.3e-09
1.94914e-09
8.48206e-09
-7.1312e-09
5.63552e-09
-5.85812e-09
1.05756e-10
1.16837e-10
4.13037e-09
-4.59776e-09
1.38833e-11
4.53505e-10
5.62135e-09
-5.41852e-09
-1.49317e-10
-5.35123e-11
-5.70766e-09
5.55297e-09
8.89557e-11
6.57362e-11
-5.28836e-09
4.10015e-09
1.3011e-09
-1.12886e-10
5.85633e-09
-5.74425e-09
-7.50634e-10
6.38562e-10
-7.59329e-09
6.79571e-10
1.61482e-09
5.29889e-09
3.549e-09
3.22951e-09
-3.62916e-09
-3.14935e-09
6.78019e-09
-8.6181e-09
-5.51073e-10
2.38898e-09
-6.63013e-09
7.49298e-09
-1.01022e-09
1.47368e-10
6.3255e-09
-5.98998e-09
1.48981e-10
-4.84503e-10
2.15781e-09
-1.83558e-09
-2.56719e-09
2.24496e-09
-4.75541e-09
-8.29561e-10
2.88479e-10
5.29649e-09
5.51824e-09
-5.68094e-09
5.68004e-11
1.05896e-10
-5.20445e-09
-2.32521e-09
1.72253e-09
5.80713e-09
5.32592e-09
-1.00207e-09
-4.58251e-09
2.58667e-10
9.84338e-10
-5.4716e-09
-4.01314e-10
4.88858e-09
4.35054e-09
-1.96781e-09
-4.06573e-09
1.683e-09
-6.32018e-09
-2.08768e-09
8.14574e-10
3.65153e-09
-3.48644e-09
2.918e-09
-3.08309e-09
-2.58896e-09
-3.18466e-09
3.27731e-09
2.49631e-09
1.53485e-09
4.52947e-09
-4.42969e-10
-4.92566e-09
5.77701e-09
-1.00527e-09
1.5392e-10
-1.84748e-09
-4.02283e-09
5.00988e-09
8.60431e-10
-4.85699e-09
3.33972e-09
-6.96736e-11
1.58695e-09
4.32861e-09
-4.8503e-09
4.02317e-10
1.19366e-10
5.487e-09
-1.54784e-09
2.14401e-09
-6.08318e-09
1.59245e-09
3.03624e-09
-4.62869e-09
6.03347e-09
-6.86179e-11
-5.42953e-09
-5.35318e-10
-6.64137e-09
5.87812e-09
5.58823e-10
2.04428e-10
5.05923e-09
-9.10432e-10
-4.38598e-09
2.3718e-10
-1.46481e-08
-2.66469e-09
7.30579e-09
1.0007e-08
-1.41502e-08
4.32687e-10
-1.09694e-10
1.38272e-08
-2.43586e-09
2.85591e-09
3.07589e-09
-3.49594e-09
6.71862e-09
-1.36712e-10
-2.56407e-10
3.45744e-09
-3.91348e-09
-3.15154e-09
3.60758e-09
2.59456e-09
-3.26719e-09
3.43829e-09
-2.76565e-09
1.1468e-09
-5.58341e-09
-7.67831e-10
-3.38542e-09
3.6499e-09
-2.93292e-09
2.66843e-09
-4.90531e-09
4.58488e-09
4.88336e-11
2.71599e-10
-1.31368e-09
5.87815e-10
-5.07853e-09
5.80439e-09
3.73064e-09
-3.61418e-09
-3.15375e-09
3.03729e-09
-5.16826e-09
-6.41092e-10
-1.27377e-09
7.08313e-09
-6.38026e-10
3.01195e-11
1.46847e-10
9.75869e-10
2.49068e-10
9.80892e-11
3.41946e-09
-3.23632e-09
-1.01205e-08
9.9373e-09
-3.12889e-10
-4.63948e-11
-1.94491e-09
2.87711e-09
1.3187e-09
-2.2509e-09
-7.98492e-09
5.836e-09
-7.60591e-10
2.90952e-09
7.38527e-09
-2.12348e-09
1.61943e-10
-5.42373e-09
-2.09986e-09
-2.18011e-09
1.86255e-09
2.41742e-09
1.27025e-10
-1.00281e-10
-7.12154e-10
1.1106e-09
-5.10851e-10
1.44618e-10
-4.10506e-11
4.07284e-10
-3.54336e-09
-3.31969e-09
3.22754e-09
3.63551e-09
-3.36482e-09
2.89395e-09
-2.99737e-09
3.46825e-09
-5.0014e-09
5.29784e-09
-4.79476e-10
1.83038e-10
5.28629e-10
7.39384e-10
5.94004e-09
-5.18504e-10
1.35865e-09
4.64058e-09
3.0372e-10
5.42693e-10
-1.19135e-08
-7.13798e-10
-1.52296e-09
-9.36416e-11
-7.53621e-11
3.94089e-09
-3.68413e-09
-2.1666e-10
-4.00965e-11
2.44283e-09
2.25138e-09
-1.74937e-09
-2.94484e-09
-2.77439e-09
-3.34326e-09
3.01554e-09
3.10212e-09
-2.62513e-09
3.54531e-09
-3.21697e-09
2.29679e-09
6.83626e-09
2.97598e-09
-5.33757e-09
-4.47467e-09
5.50498e-10
-4.85796e-09
-5.97852e-10
-4.91373e-09
3.9691e-09
-4.19568e-10
1.36419e-09
-5.14126e-09
-5.25372e-09
5.17816e-09
5.21682e-09
-7.7989e-11
-1.11561e-10
2.40306e-09
-1.80438e-09
1.84415e-09
4.59856e-09
-7.43707e-10
2.95571e-10
-4.15043e-09
-3.33167e-09
-1.92821e-09
7.06122e-10
4.55376e-09
1.96571e-09
-4.63153e-09
-9.08689e-10
3.57451e-09
-1.99719e-09
2.57499e-09
-9.68083e-09
9.10303e-09
3.17165e-09
-3.34753e-09
4.13955e-09
-3.96368e-09
-3.69129e-09
3.8014e-09
2.82608e-09
-2.93619e-09
9.3957e-11
5.76213e-09
-4.67291e-10
-4.68226e-09
-2.05787e-10
-1.13353e-10
-5.15255e-09
4.34526e-09
-3.26997e-09
4.07726e-09
-3.53247e-09
-1.25455e-09
1.14628e-09
3.64073e-09
-3.4278e-10
-1.71916e-09
6.56065e-09
-4.49871e-09
-3.14394e-09
-3.95106e-09
3.92218e-09
3.17282e-09
3.15454e-09
-3.23577e-09
-3.62385e-09
3.70508e-09
-3.51534e-09
3.23461e-09
-4.15689e-09
4.43762e-09
-3.18472e-09
2.75387e-09
3.57154e-09
-3.1407e-09
6.98088e-10
-4.10359e-09
-1.26964e-10
-3.63422e-09
3.68739e-09
2.87741e-09
-2.93058e-09
-2.31488e-09
-4.97961e-09
5.27639e-09
2.01809e-09
3.81582e-09
3.72939e-09
-3.59204e-09
-3.95316e-09
-3.14518e-09
-3.71412e-09
3.73755e-09
3.12175e-09
1.32653e-08
2.96145e-09
-1.71377e-08
9.10957e-10
3.02549e-09
-3.10756e-09
-3.86072e-09
3.9428e-09
5.10588e-09
2.45069e-11
-2.63245e-10
-4.86714e-09
2.54151e-09
-2.83501e-09
-3.39577e-09
3.68928e-09
1.98993e-09
-4.71312e-09
-1.64639e-09
4.36959e-09
3.42867e-09
-3.24424e-09
3.09631e-09
-3.28075e-09
5.51485e-09
-6.46826e-10
2.37855e-10
3.64575e-09
-4.88169e-09
-4.89311e-09
6.12905e-09
2.07516e-09
-1.48835e-09
1.15055e-09
-1.73736e-09
3.08493e-09
-2.97704e-09
2.9176e-09
-3.04604e-09
-3.03856e-09
2.97704e-09
3.57063e-09
-3.3903e-09
-4.07042e-09
3.89008e-09
-4.81013e-09
4.16338e-09
8.41387e-11
5.6261e-10
3.10514e-09
-2.45676e-09
-3.38457e-09
2.7362e-09
-2.45457e-09
-3.37217e-09
2.54434e-09
3.2824e-09
-1.66592e-09
3.53997e-09
3.06065e-09
-2.41325e-09
-3.32357e-09
2.67616e-09
2.79973e-09
-2.77946e-09
2.67111e-09
-2.69138e-09
-2.40223e-09
-2.46817e-09
2.08923e-09
2.78117e-09
3.9834e-09
-3.90632e-09
-3.12312e-09
7.17706e-10
2.34295e-09
-3.06066e-09
9.57238e-10
6.58011e-09
-4.7886e-09
-2.74876e-09
4.90104e-09
-1.25582e-09
1.95815e-09
-5.60337e-09
2.36033e-09
-2.54559e-09
2.80963e-09
-2.62438e-09
-5.22696e-10
9.32229e-11
-8.13778e-11
2.79416e-09
-2.85961e-09
-3.65543e-09
3.72089e-09
-3.24744e-09
3.12832e-09
4.14586e-09
-4.02674e-09
2.80986e-09
-2.63078e-09
2.0723e-09
-5.62267e-09
1.35912e-09
-4.30048e-10
4.6936e-09
3.39151e-09
4.45777e-09
-4.34585e-09
-3.50343e-09
-4.98582e-09
-1.0963e-09
4.76844e-09
4.81942e-10
2.22776e-10
2.75842e-09
6.12896e-09
-7.39017e-09
-1.49721e-09
3.57688e-09
-3.33401e-09
3.30197e-09
-3.54484e-09
4.85993e-09
-5.41689e-09
-3.67337e-09
4.23033e-09
-1.11719e-08
7.27437e-09
-1.19431e-08
1.58405e-08
-4.54674e-09
4.8482e-09
2.86353e-10
2.96394e-09
-3.07572e-09
2.95034e-09
-2.83857e-09
5.76048e-09
1.30212e-09
-2.93228e-10
-6.76937e-09
6.65856e-10
2.92952e-09
-3.77442e-09
1.79046e-10
3.69649e-09
-9.2806e-10
-3.0926e-09
3.24174e-10
-1.92418e-09
2.34877e-09
-1.50727e-08
2.75682e-09
-2.97562e-09
2.88539e-09
-2.6666e-09
2.35928e-09
-2.44439e-09
1.05172e-09
-9.66613e-10
5.53399e-09
-5.36762e-09
5.87132e-10
-7.53509e-10
4.64386e-09
4.49074e-09
-3.54141e-09
-5.59319e-09
-4.61286e-09
1.24069e-09
5.33787e-09
4.03896e-09
-6.26639e-10
2.84165e-10
2.42505e-09
6.31708e-09
-2.17557e-09
-6.56656e-09
3.96977e-09
-4.6275e-09
1.13044e-09
-4.72706e-10
4.63027e-09
9.52633e-09
-4.06755e-09
-1.00891e-08
6.3047e-09
-5.52404e-09
6.22022e-11
-8.42857e-10
-2.80858e-09
3.7506e-09
3.32695e-09
-4.26898e-09
-7.20919e-10
4.44496e-09
-3.88122e-09
1.57173e-10
5.61827e-09
-1.01396e-10
-5.76381e-09
2.46939e-10
1.36015e-09
-4.20277e-09
-5.23436e-10
3.36606e-09
2.09753e-09
-7.68857e-10
5.50759e-09
-3.17867e-09
2.98191e-09
-2.94843e-09
3.16685e-09
2.94843e-09
-2.96074e-09
6.64331e-10
4.87787e-09
-5.92261e-10
-4.94994e-09
-1.99042e-09
9.413e-10
-1.99268e-09
3.0418e-09
-2.73421e-09
3.61962e-09
3.31578e-09
-4.20119e-09
-4.21157e-09
4.6788e-09
1.58737e-10
-6.25962e-10
4.21789e-09
3.74639e-10
3.08508e-10
3.68461e-09
-3.87142e-09
5.05432e-09
-4.86752e-09
2.7458e-09
-2.78992e-09
2.71934e-09
-2.67521e-09
5.35429e-10
-5.71249e-10
-1.05144e-10
5.72701e-09
-7.42801e-09
1.80614e-09
5.52581e-09
-2.61935e-09
-5.02886e-09
2.1224e-09
3.39506e-09
-3.3267e-09
2.87415e-09
-2.94251e-09
-2.73557e-09
2.71107e-09
-3.37861e-09
3.40312e-09
4.80447e-09
-4.74945e-09
-2.16011e-10
1.60992e-10
2.81912e-11
-7.63849e-11
3.68876e-09
-3.65533e-09
2.88877e-09
-2.9222e-09
-2.36084e-09
3.58249e-09
2.58285e-09
-3.8045e-09
3.96923e-09
-3.92388e-09
3.07437e-09
-3.11971e-09
6.84054e-09
8.11734e-09
-1.05912e-08
-4.36669e-09
2.66465e-09
2.46813e-09
-2.59127e-09
1.28065e-09
-4.98093e-09
4.72634e-09
-1.02607e-09
-3.20058e-10
-4.57853e-09
4.75819e-09
1.40398e-10
-1.85049e-09
3.12597e-09
1.9085e-09
-3.18399e-09
4.72133e-09
-4.83349e-09
-1.0768e-10
2.19842e-10
2.52747e-09
1.68282e-09
3.85201e-09
-8.0623e-09
-5.58139e-09
-3.01246e-10
4.96127e-09
9.21368e-10
-3.70206e-09
4.01748e-09
2.36672e-09
-2.68215e-09
3.2662e-09
-1.05007e-08
-2.6329e-09
9.86744e-09
-3.50503e-09
3.76514e-09
3.84832e-09
-4.10843e-09
1.66258e-09
-4.70166e-09
3.54655e-09
3.28075e-09
-3.25666e-09
-2.9358e-09
2.34925e-09
4.40236e-09
2.30497e-09
-5.25524e-09
4.97681e-09
-5.72493e-09
7.20077e-12
7.40921e-10
4.60343e-10
4.57387e-10
4.33847e-09
-5.2562e-09
-2.95835e-09
3.38824e-09
3.63922e-09
-4.0691e-09
5.34341e-09
-4.9466e-09
3.80608e-09
-4.2029e-09
-8.34315e-09
-2.74417e-09
6.58893e-09
4.49838e-09
-3.98578e-09
-3.11301e-10
-3.85172e-10
-2.99674e-09
3.15527e-09
2.75907e-09
-2.9176e-09
-5.73696e-09
-2.19742e-10
2.12451e-10
2.8502e-09
2.69138e-09
-2.74742e-09
4.45926e-09
1.78726e-10
-5.99023e-10
4.45805e-09
4.90143e-10
-5.63529e-09
6.87097e-10
6.30418e-09
1.34531e-09
-4.6735e-09
-1.7298e-09
8.3455e-09
2.7229e-09
-9.3386e-09
-3.79986e-09
3.85448e-09
-3.41263e-09
3.35801e-09
-4.82007e-09
-6.65528e-09
6.57422e-09
4.90113e-09
-3.04085e-09
-2.6002e-09
2.30938e-09
-1.31207e-08
-7.44476e-09
1.36405e-08
6.92494e-09
3.96888e-09
-3.94655e-09
3.10537e-09
-3.1277e-09
-2.32848e-09
4.13501e-09
-6.06858e-09
4.26204e-09
1.30349e-10
4.68333e-10
-4.97403e-09
4.37535e-09
-5.46944e-09
5.05124e-09
-3.76818e-09
4.18638e-09
-2.09157e-09
-9.7482e-09
6.37228e-09
5.46749e-09
-3.92751e-09
4.0157e-09
2.89873e-09
-3.02653e-09
2.83857e-09
-2.71077e-09
-5.06035e-09
5.07411e-09
1.38266e-10
-1.52022e-10
-4.18885e-09
1.21421e-09
2.97464e-09
3.57297e-09
-3.45029e-09
-2.67533e-09
2.97189e-09
3.83609e-09
3.0647e-09
-3.93684e-09
4.79206e-10
4.19046e-09
-4.63854e-09
-3.11226e-11
-1.43992e-09
-3.43942e-09
3.75073e-09
1.12861e-09
3.1743e-09
-2.34925e-09
-3.15352e-09
-4.84335e-09
-3.23515e-09
4.49616e-09
3.58234e-09
-1.19405e-08
3.3872e-10
-3.1173e-10
4.97016e-09
-4.56791e-09
-1.84452e-10
-2.17805e-10
4.80627e-09
1.19141e-10
-4.6615e-10
3.95526e-09
-3.94873e-09
3.10837e-09
-3.11491e-09
-5.65174e-10
-5.1161e-11
9.36388e-11
-4.02541e-09
5.07379e-09
3.35181e-10
-1.38356e-09
-5.39708e-09
4.40299e-10
4.98599e-09
-2.9203e-11
3.52521e-09
-2.6553e-09
3.64206e-09
-4.51197e-09
1.88887e-09
5.26719e-09
-9.35771e-10
-6.22029e-09
3.23575e-09
3.84914e-09
-3.84181e-09
-3.24309e-09
8.01998e-09
1.8733e-09
-7.62645e-09
-2.26683e-09
5.58664e-11
-5.76352e-10
5.20486e-10
-2.63043e-09
2.95687e-09
-3.1002e-09
-3.09631e-09
2.96074e-09
4.89642e-09
-9.05102e-11
-5.12597e-09
3.95568e-09
-3.95999e-09
-3.11804e-09
3.12235e-09
-6.31932e-10
1.22624e-10
1.97622e-09
-3.08155e-10
-1.66063e-09
-7.44083e-12
-5.414e-09
4.91485e-09
-3.9486e-09
4.44775e-09
2.68009e-09
3.47348e-09
-3.32153e-09
-2.83204e-09
3.22641e-09
-3.17124e-09
3.17497e-09
-3.23014e-09
3.36589e-09
3.22169e-09
-3.83075e-09
-3.31078e-09
-3.46846e-09
3.55887e-09
3.22037e-09
3.80637e-09
-3.78749e-09
3.76221e-09
-3.78109e-09
-3.49586e-09
3.82434e-09
-3.2144e-09
-3.17497e-09
3.14192e-09
-5.72139e-09
1.54505e-11
1.44695e-11
5.69147e-09
-5.44582e-09
1.90686e-11
-1.73742e-12
5.42849e-09
4.53968e-09
-2.15077e-11
-4.57466e-12
-4.5136e-09
-4.43423e-09
6.66803e-12
-1.33343e-11
4.44089e-09
4.7289e-09
5.51834e-12
-7.83749e-11
-4.65604e-09
4.65837e-09
7.47201e-12
-7.13536e-11
-4.59449e-09
4.82043e-09
-1.30221e-11
-1.43097e-11
-4.7931e-09
-5.48736e-09
3.28123e-13
5.70541e-11
5.42998e-09
-1.43761e-08
1.14967e-08
9.55236e-10
-2.60608e-09
2.44908e-09
-2.46813e-09
3.32749e-09
4.21934e-09
-5.1865e-09
-3.5431e-09
2.75518e-09
3.58765e-09
-2.93197e-09
-3.87479e-09
3.38683e-09
3.41993e-09
-2.84385e-09
-3.76657e-09
3.20867e-09
3.40174e-09
4.14267e-09
-3.87696e-09
4.03412e-09
-4.29984e-09
3.87091e-09
-3.97996e-09
3.49681e-09
-3.38776e-09
-5.63713e-09
-1.21769e-10
7.7966e-11
-5.7864e-09
1.33024e-11
1.82064e-11
5.75489e-09
1.95521e-09
-9.63462e-09
8.94168e-09
-1.26227e-09
4.95991e-09
5.58373e-11
-1.33704e-10
-4.88204e-09
5.08291e-09
3.76533e-11
-1.07965e-10
-5.0126e-09
2.8888e-09
-3.74485e-09
-6.49459e-09
7.35064e-09
-2.09035e-09
-4.83567e-10
-6.04419e-09
1.62429e-09
-9.55161e-09
8.38003e-11
7.84351e-09
3.76644e-09
-4.42489e-09
-5.26042e-09
5.91888e-09
-9.83865e-09
3.72327e-09
-2.22777e-09
1.95024e-09
4.28844e-09
-6.07874e-09
-1.59931e-10
3.93682e-09
-3.93733e-09
-3.10871e-09
3.10922e-09
-3.89922e-09
3.95557e-09
3.10451e-09
-3.16087e-09
-2.40632e-10
4.37101e-09
5.90952e-10
3.55202e-09
-4.3876e-09
3.8172e-09
-2.98163e-09
-3.02892e-09
-3.54658e-09
3.03239e-09
-1.19436e-09
4.84142e-10
4.41936e-09
8.18817e-10
-4.53877e-09
-6.99406e-10
-4.46225e-10
1.66388e-10
4.92042e-09
5.24416e-09
5.50704e-11
-4.51028e-10
-2.66845e-09
-2.73762e-09
2.6705e-09
-3.87008e-09
3.82542e-09
5.02901e-09
-4.98435e-09
-3.56563e-09
-2.15608e-09
2.4717e-09
3.25002e-09
3.17877e-09
-2.80963e-09
6.97789e-09
-6.88485e-10
-1.87005e-09
3.6284e-09
-3.37112e-09
2.72757e-09
-2.98485e-09
-5.10096e-09
1.73794e-09
6.15225e-09
-2.78924e-09
-2.67111e-09
2.59127e-09
-6.01807e-10
2.54545e-11
-2.32919e-09
3.98341e-09
2.87432e-09
-4.52855e-09
-4.89375e-09
-3.6116e-09
5.00948e-09
-3.3364e-09
3.19422e-09
5.0572e-09
-4.91502e-09
3.21056e-09
-3.18285e-09
-6.77193e-09
-1.3259e-08
5.65486e-09
-7.41375e-09
3.92107e-09
6.91091e-09
-3.41823e-09
-4.19425e-09
-3.54157e-09
4.28547e-09
3.45035e-09
1.1845e-09
-9.42619e-10
4.44125e-09
-4.68313e-09
-4.1664e-09
-1.88204e-09
6.04845e-09
4.11286e-09
-1.07092e-11
-4.80848e-09
7.0633e-10
-1.08639e-10
7.96194e-11
2.86248e-09
1.94494e-09
-1.95533e-09
-2.85208e-09
-2.96873e-09
-3.44561e-09
4.08516e-09
3.86565e-09
3.54484e-09
-3.72588e-09
-1.01653e-09
-4.88451e-10
6.47515e-09
-3.56266e-09
3.83449e-09
4.53501e-09
-4.80683e-09
4.49567e-09
-4.87728e-09
5.72502e-09
3.61688e-09
-4.97484e-09
-3.61687e-09
4.97482e-09
2.70635e-09
2.67521e-09
-2.6705e-09
-5.89883e-10
-1.19235e-11
-5.89913e-11
2.05113e-10
3.98182e-09
-4.12794e-09
-4.71792e-09
3.64572e-09
2.80241e-09
-1.7302e-09
2.74288e-09
2.73762e-09
-2.80042e-09
9.13314e-09
2.60393e-09
-1.75321e-09
-9.98386e-09
4.49928e-09
-4.55561e-09
-1.27739e-10
1.84064e-10
-9.03116e-10
1.97476e-09
5.90625e-09
3.65112e-09
-3.79403e-09
-3.05652e-09
3.19943e-09
-3.38017e-09
-3.09764e-09
3.93222e-09
7.14237e-09
-6.1689e-09
-1.03877e-09
6.52972e-11
-4.1288e-09
4.83384e-09
-4.72212e-09
4.01708e-09
-4.98416e-09
3.56734e-09
5.06257e-09
-3.87825e-09
-3.82091e-09
3.82907e-09
1.74718e-09
-2.07706e-09
4.04275e-09
-3.85877e-09
-3.28463e-09
3.10065e-09
5.06029e-09
-5.61436e-09
3.47416e-09
-3.51521e-09
-4.57149e-09
4.61255e-09
1.14886e-08
-2.65663e-09
-2.42088e-09
2.91102e-09
3.80413e-09
-3.68189e-09
4.78481e-09
-4.90705e-09
2.65452e-09
-5.63036e-09
5.73426e-09
-3.34499e-09
-3.30197e-09
3.25666e-09
-3.12955e-09
-3.85503e-09
-5.19267e-09
7.88177e-10
-7.03951e-10
5.10844e-09
-4.33152e-09
5.14618e-09
-3.49681e-09
2.68215e-09
7.26011e-10
5.66509e-09
-1.8846e-09
-4.5065e-09
3.48621e-09
-3.48766e-09
-4.56775e-09
4.5692e-09
2.48167e-09
-3.85589e-09
4.76928e-09
3.79968e-09
-3.52625e-09
3.53706e-09
-2.53426e-09
3.50152e-09
-3.94288e-09
2.27387e-09
3.97741e-09
-2.88539e-09
-3.9336e-09
-1.0924e-09
2.76551e-10
-4.88862e-09
5.17533e-09
-5.44019e-09
-3.51606e-09
4.07456e-09
-8.59919e-09
5.97558e-09
2.68892e-10
2.35472e-09
3.25865e-09
-1.30016e-10
-3.12863e-09
3.36032e-09
-2.86906e-09
2.98222e-09
4.05033e-09
-4.81521e-09
-5.07367e-09
5.83856e-09
-3.88078e-09
-1.28191e-11
5.0024e-09
-1.10881e-09
3.99449e-09
3.09403e-09
-2.06336e-09
-5.02516e-09
-4.08259e-09
9.5854e-10
3.12405e-09
3.80062e-09
3.57532e-09
-3.57181e-09
2.98789e-09
8.62858e-10
-3.85075e-09
-5.19294e-09
4.76981e-09
3.89599e-09
-3.47286e-09
2.12114e-09
-1.67886e-09
-2.19165e-09
-1.19036e-11
6.4881e-09
-6.38224e-09
-5.92613e-09
7.37875e-09
1.15899e-08
-1.30426e-08
5.18151e-09
-1.90284e-12
9.68832e-11
-5.27649e-09
-2.561e-09
-2.63986e-09
2.6666e-09
-8.0076e-09
7.40223e-09
7.65499e-10
-1.60125e-10
-3.76669e-09
3.68567e-09
2.91209e-09
-2.83107e-09
7.83641e-10
-5.19359e-10
-4.20002e-09
3.93573e-09
-2.0667e-09
2.33386e-09
-5.33732e-09
5.07017e-09
3.1407e-09
-3.14192e-09
3.00171e-09
-3.16427e-09
5.39203e-09
-5.22947e-09
-1.91912e-09
5.01587e-09
7.71957e-11
-3.17394e-09
-6.48176e-10
4.6913e-09
-4.76404e-09
3.84877e-09
4.95352e-09
1.08405e-10
-2.55656e-10
4.04554e-11
-1.47288e-10
8.97224e-10
4.28611e-09
-3.76718e-09
-1.41616e-09
1.18942e-10
-6.20638e-09
6.32635e-09
-2.38905e-10
-1.08953e-11
-4.49308e-09
4.45684e-09
4.714e-11
-3.99301e-11
-5.81186e-09
5.77069e-09
8.10959e-11
2.54706e-11
4.80084e-09
-4.73506e-09
-9.12439e-11
2.87574e-11
4.60791e-09
-4.49435e-09
-1.42319e-10
-3.78783e-09
4.46339e-11
4.34885e-09
-6.05658e-10
-3.23249e-12
4.59299e-09
-4.56932e-09
-2.0432e-11
1.5228e-12
-5.52449e-09
5.48869e-09
3.42768e-11
1.35527e-11
-6.09732e-09
6.15456e-09
-7.07896e-11
2.72918e-12
-4.4497e-09
4.42496e-09
2.20171e-11
1.46563e-12
-5.77248e-09
5.75037e-09
2.06508e-11
-4.00063e-09
4.82947e-11
4.59254e-09
-6.4021e-10
3.53275e-12
-5.48442e-09
5.45551e-09
2.53811e-11
-3.80434e-09
3.70761e-11
4.33208e-09
-5.64812e-10
-2.27476e-12
4.57221e-09
-4.54345e-09
-2.6483e-11
-6.03211e-09
1.52946e-12
6.08087e-09
-5.02887e-11
1.28904e-11
-5.76352e-09
5.74568e-09
4.94817e-12
1.01529e-11
-5.4624e-09
5.44145e-09
1.07895e-11
1.50457e-11
-5.75628e-09
5.738e-09
3.233e-12
1.36311e-11
-5.74602e-09
5.71949e-09
1.29027e-11
7.30268e-09
-6.81633e-09
-6.34089e-10
1.4774e-10
-2.44542e-09
-7.80795e-09
8.52356e-09
3.72613e-09
-3.18814e-09
-3.4971e-09
2.95911e-09
-1.69348e-09
5.36768e-09
2.95569e-10
2.31523e-09
-2.37422e-09
5.63789e-09
-5.35045e-09
-7.57645e-10
4.70205e-10
-4.10648e-09
-3.39906e-11
-4.27438e-10
3.45699e-09
-3.83033e-09
4.07956e-09
-3.70621e-09
2.86562e-09
-3.92831e-09
-4.33621e-09
5.39891e-09
-4.99548e-09
5.23967e-09
6.23241e-09
-7.06926e-09
-1.94575e-09
2.7826e-09
2.8877e-09
-3.65244e-09
3.51054e-09
2.44905e-09
-7.60283e-09
4.91071e-09
2.43075e-10
2.45268e-09
-2.56036e-09
-8.03236e-10
1.60031e-09
4.84081e-09
-5.80218e-09
1.57726e-08
3.73126e-09
-1.37017e-08
-2.21205e-09
-2.62577e-10
2.47463e-09
3.32926e-09
-4.03544e-09
5.20185e-09
3.92353e-09
-5.60451e-09
4.5466e-09
2.13139e-10
-5.73775e-10
3.43475e-09
3.50856e-10
-3.12316e-10
-5.61323e-10
5.22782e-10
-3.24085e-09
3.11539e-09
-2.80652e-09
-3.19572e-09
3.12919e-09
-2.77732e-09
-2.71934e-09
2.74742e-09
-3.0975e-09
2.77088e-09
-2.50171e-09
2.82833e-09
-4.73064e-09
-2.71388e-09
7.44452e-09
3.51598e-09
3.09237e-09
-3.49047e-09
3.43385e-09
-4.45442e-09
4.51104e-09
2.11494e-10
1.1015e-09
-1.3398e-09
2.68044e-11
-6.54188e-12
4.31479e-09
-4.24611e-09
-6.21351e-11
-3.47481e-09
4.39958e-09
3.24206e-09
-4.16684e-09
1.72217e-10
-2.9078e-10
-5.75573e-09
-4.16532e-09
3.0748e-09
6.84624e-09
4.89216e-09
6.79815e-11
-5.15175e-10
-4.32821e-09
1.49627e-09
4.53608e-09
-1.70415e-09
-2.02607e-09
-1.31966e-08
1.04026e-08
6.00517e-09
-5.45436e-09
-4.96637e-09
4.41556e-09
2.99498e-09
-2.87415e-09
1.03233e-09
-1.23313e-09
1.46348e-08
-1.4434e-08
2.673e-09
2.80652e-09
-3.09559e-09
-2.38393e-09
2.62257e-09
2.77732e-09
-3.05146e-09
-2.34843e-09
-4.00949e-09
2.3489e-10
4.43894e-09
4.23228e-09
-4.80013e-09
4.14739e-09
-4.72054e-09
-5.97696e-09
-9.52247e-10
5.01707e-09
1.91213e-09
-6.04078e-09
-1.53643e-10
5.88356e-09
3.10861e-10
-5.60753e-09
-5.57767e-11
5.52398e-09
1.39336e-10
-4.61057e-09
-5.83393e-11
4.52902e-09
1.39886e-10
2.669e-09
-2.88501e-09
5.53888e-09
-5.42519e-09
1.72595e-11
-5.53781e-09
5.52713e-09
-6.57622e-12
-6.31924e-12
4.83259e-09
-4.79891e-09
-2.73609e-11
2.3038e-11
4.56756e-09
-4.49476e-09
-9.58411e-11
-1.17579e-12
4.64843e-09
-4.6128e-09
-3.44545e-11
-3.81088e-12
4.62507e-09
-4.59731e-09
-2.39502e-11
-1.2095e-12
4.86768e-09
-4.83088e-09
-3.55896e-11
-4.05379e-09
1.21828e-10
4.72785e-09
-7.95895e-10
-8.63324e-11
-4.29809e-09
3.78486e-09
5.99562e-10
-5.24905e-09
6.95162e-09
-7.53711e-09
5.83455e-09
3.56041e-09
-3.65517e-09
-4.58698e-09
4.68174e-09
-1.37107e-09
1.65716e-08
-1.41682e-08
-3.47021e-09
3.34284e-09
-4.31915e-09
-2.78382e-09
3.76014e-09
-5.14987e-09
5.15635e-09
3.22008e-12
-9.69582e-12
-2.44526e-09
-3.05581e-10
2.75084e-09
-5.29911e-09
4.90809e-09
1.02057e-09
-6.2955e-10
3.89009e-09
-5.07383e-09
-3.70938e-09
-7.55613e-12
3.07437e-09
-3.06682e-09
3.69011e-09
-3.70193e-09
3.50573e-09
-4.66559e-09
4.73283e-09
-3.41959e-09
3.29576e-09
5.57644e-09
3.75559e-11
-4.85839e-09
4.92944e-09
-1.0861e-10
3.82703e-11
-4.78271e-09
4.84942e-09
-1.0498e-10
-7.87438e-10
8.16375e-09
-1.61584e-09
5.15413e-09
3.26515e-11
-4.28591e-10
1.23643e-09
4.90205e-09
-1.42396e-09
-4.71453e-09
3.07677e-09
-3.36456e-09
-5.71033e-09
5.99812e-09
8.19727e-09
-1.05201e-08
5.74232e-09
5.78879e-09
2.61974e-09
-1.06672e-09
-7.34182e-09
4.01399e-09
-4.06713e-09
3.39598e-09
2.50762e-11
-5.23105e-09
5.2818e-09
-7.58205e-11
3.52102e-09
3.49491e-09
-1.3272e-08
1.53236e-08
-7.97777e-09
2.43586e-09
-6.27319e-09
5.90892e-09
-2.07159e-09
-3.40067e-09
4.41229e-09
-5.25296e-09
4.10334e-09
-3.26268e-09
3.91677e-09
3.0265e-09
-3.0901e-09
-3.85317e-09
-2.59119e-10
-5.55494e-09
4.16977e-10
2.12777e-10
-1.34168e-10
4.1322e-09
-4.21081e-09
5.37976e-09
-5.34172e-09
-4.56031e-11
-5.1855e-09
5.22379e-09
1.54522e-11
-5.37496e-11
4.76873e-10
-7.68885e-09
3.18657e-09
4.40371e-09
-3.96036e-09
-3.68747e-09
3.24412e-09
-4.95738e-09
4.95556e-09
-4.43242e-09
4.43424e-09
-3.28016e-09
3.30523e-09
7.37507e-09
-6.55108e-09
-1.44413e-09
6.2014e-10
2.41517e-09
-2.42171e-09
2.95695e-09
-2.89839e-09
3.95302e-09
-5.46445e-09
-3.20649e-09
-1.53891e-09
4.66107e-11
1.49281e-09
-2.93319e-09
3.84344e-09
2.95556e-09
-3.23474e-09
-3.37326e-09
4.3146e-09
5.24268e-10
3.8734e-09
3.78109e-09
-3.82907e-09
-5.0138e-09
-3.45051e-09
4.33551e-09
-4.23331e-09
3.57181e-09
-3.02039e-09
1.48246e-08
-4.16456e-09
-1.64622e-08
4.026e-09
-4.04817e-09
-2.37515e-10
4.10123e-09
-4.61385e-09
4.61594e-09
-3.32879e-09
-5.5417e-09
-3.5807e-10
9.86047e-10
-5.06919e-09
1.34851e-09
5.08082e-09
-5.37992e-09
-8.02629e-12
9.7252e-11
5.2907e-09
-3.83509e-09
-3.76221e-09
3.72588e-09
-4.41898e-09
1.61063e-11
-4.68603e-11
4.44974e-09
-4.44187e-09
1.5289e-11
6.96633e-12
4.41961e-09
-4.48005e-09
5.75244e-12
1.68847e-11
4.45741e-09
-5.46243e-09
2.23383e-11
-1.73255e-11
5.45742e-09
-4.50345e-09
1.5132e-11
-3.65061e-12
4.49197e-09
4.97275e-09
-1.60757e-11
1.27467e-11
-4.96942e-09
4.82381e-09
-1.59613e-11
-1.2561e-11
-4.79529e-09
-5.07576e-09
2.5029e-10
-8.61488e-10
5.68696e-09
-4.20493e-09
-2.95521e-09
3.74751e-09
-5.63647e-09
-4.63975e-09
5.70489e-09
4.57133e-09
5.79959e-09
-1.69975e-09
8.5134e-10
-4.95118e-09
-2.94133e-09
3.04973e-09
-2.82219e-09
2.20425e-09
-3.86399e-09
7.88735e-09
-2.31279e-09
-7.7985e-11
1.80078e-10
3.80307e-09
-3.90516e-09
2.9443e-09
-2.82475e-09
4.07766e-09
-4.70858e-09
3.18721e-09
-2.55629e-09
-3.48071e-09
-5.21676e-09
9.21428e-11
5.88933e-09
-7.64715e-10
2.33861e-11
4.81633e-09
-5.37766e-09
5.37952e-10
-4.82878e-12
-5.24241e-09
5.86137e-09
-6.14128e-10
-1.86591e-11
-5.11758e-09
5.69635e-09
-5.60116e-10
5.06609e-09
-7.41687e-09
-2.49795e-09
4.84873e-09
-3.41673e-10
6.46822e-09
-7.60917e-09
1.48262e-09
-9.61299e-09
3.67835e-09
-3.42017e-09
-4.49435e-09
3.39729e-09
4.51723e-09
3.96586e-09
-4.4378e-09
6.84716e-10
3.18285e-09
-3.29576e-09
-2.91874e-09
-1.0254e-11
2.929e-09
-2.8882e-09
1.66624e-12
2.88654e-09
-2.88348e-09
8.42414e-12
2.87506e-09
-2.88626e-09
8.03049e-12
2.87823e-09
-2.84104e-09
2.50566e-12
2.83853e-09
3.26349e-10
2.13441e-09
-2.46076e-09
3.65678e-10
2.93363e-09
-3.29931e-09
8.00881e-10
2.36133e-09
-3.16221e-09
7.41937e-11
2.98554e-09
-3.05973e-09
2.71777e-09
6.08731e-11
-2.77864e-09
-1.41814e-11
-3.22415e-09
3.23833e-09
-2.97411e-09
-4.94568e-11
3.02356e-09
9.0285e-10
2.81684e-09
-3.71969e-09
-2.99492e-09
3.69462e-09
-3.56876e-09
2.12844e-09
5.64319e-09
-4.0455e-09
-4.25707e-09
3.55708e-10
1.42733e-11
5.85739e-09
-6.58086e-09
7.09197e-10
5.00076e-09
-4.76207e-09
-2.89035e-09
8.46408e-09
2.94983e-09
-5.11117e-09
6.00949e-10
4.66944e-09
-1.59221e-10
-4.6414e-09
2.99348e-10
-7.33706e-10
-3.27482e-10
-6.86991e-09
1.62402e-09
5.57337e-09
-3.55736e-09
3.65947e-09
-4.24166e-09
4.13955e-09
4.5115e-10
-6.33902e-09
-7.09466e-10
6.59733e-09
-3.97689e-09
-3.89315e-09
4.6819e-09
-1.15379e-09
1.08992e-09
-4.50515e-09
4.56903e-09
-5.52579e-09
5.50178e-09
9.43171e-10
-2.22007e-09
5.64387e-09
-4.36698e-09
1.56368e-10
5.6264e-09
-7.32698e-10
-5.05007e-09
5.18086e-09
-5.15425e-09
1.09793e-11
-3.75927e-11
4.68488e-09
1.21181e-10
-3.98724e-09
-3.01606e-09
-8.85546e-11
3.10462e-09
3.48934e-09
-3.45209e-09
4.55175e-09
-4.589e-09
2.89837e-09
3.11668e-09
-2.95034e-09
-3.0667e-09
3.75042e-09
-3.54281e-09
3.33653e-09
4.00992e-09
-5.10398e-09
-3.87283e-09
-3.36554e-09
7.48152e-09
-1.98527e-09
-5.71535e-09
2.19094e-10
4.97955e-09
-5.98415e-09
-2.35216e-09
3.49524e-09
4.20778e-09
1.61743e-10
-3.4723e-09
9.35541e-09
-8.53633e-09
6.02145e-09
3.01594e-09
4.29337e-09
-3.1743e-09
-4.23349e-09
-3.8241e-09
4.17934e-09
3.08162e-11
3.39858e-09
-3.4294e-09
-6.04337e-12
3.28023e-09
-3.27419e-09
1.23654e-11
-2.93238e-09
2.92002e-09
9.00633e-12
-2.78697e-09
2.77797e-09
1.15197e-11
-2.84687e-09
2.83535e-09
2.26368e-11
-2.78447e-09
2.76183e-09
-1.23576e-11
3.42693e-09
-3.41458e-09
1.7645e-11
-2.93243e-09
2.91478e-09
-1.07634e-11
-3.03591e-09
3.04668e-09
-9.922e-12
2.75712e-09
-2.7472e-09
1.06772e-10
-4.86773e-09
-1.5509e-10
4.91605e-09
4.42185e-09
2.15562e-09
-2.99498e-09
-3.67582e-09
3.90555e-09
-3.15654e-09
2.92681e-09
5.96031e-10
9.65775e-11
-3.83427e-09
-3.58388e-09
3.83862e-09
3.57953e-09
3.46617e-09
-9.22264e-11
5.38046e-09
-5.55116e-09
2.62928e-10
-3.09019e-09
3.22845e-09
3.08275e-09
-3.17497e-09
6.83223e-10
3.65552e-09
-4.33874e-09
-4.17321e-09
4.1449e-09
3.77892e-09
-4.10619e-09
3.51753e-09
4.20828e-09
-1.31066e-10
-2.885e-09
-1.27382e-09
-2.66184e-09
2.01872e-09
1.91695e-09
-6.00463e-10
-1.90373e-10
2.76706e-09
-3.93615e-09
2.94583e-09
-3.65788e-09
4.6482e-09
-5.81529e-09
7.37165e-09
-4.82361e-09
3.26725e-09
-1.03061e-10
1.33966e-09
-1.36285e-09
1.26252e-10
-5.5617e-11
-3.22454e-09
-3.23281e-09
3.28735e-09
4.2416e-09
-4.50161e-09
-5.88801e-10
3.73193e-10
3.60227e-10
4.06315e-11
-4.52676e-11
4.33444e-09
-2.08487e-09
3.98284e-09
-1.81853e-09
1.54912e-09
-3.19548e-09
3.46489e-09
3.65929e-09
1.08524e-09
-4.5842e-10
-3.63468e-09
-4.14491e-10
3.92929e-09
1.19879e-10
3.94646e-09
-4.49593e-09
4.74783e-09
-5.20844e-09
4.69695e-09
-4.39607e-09
4.77419e-09
3.47938e-09
-3.71129e-09
-4.54228e-09
3.22801e-09
-4.92312e-09
4.80513e-09
-1.38378e-09
-1.32133e-09
4.53457e-10
2.25165e-09
1.21258e-12
-3.03768e-09
3.03647e-09
-2.03845e-11
-2.90486e-09
2.92525e-09
-1.36446e-11
2.70768e-09
-2.69404e-09
-1.48903e-11
3.28205e-09
-3.26716e-09
1.35187e-12
2.70683e-09
-2.70818e-09
-4.01766e-12
2.70151e-09
-2.69749e-09
-3.10028e-12
2.71508e-09
-2.71198e-09
2.12251e-11
3.26288e-09
-3.28411e-09
-3.13436e-09
2.87145e-09
-3.58587e-09
3.84878e-09
2.41135e-09
-2.54552e-09
-7.63567e-09
5.44218e-09
5.42759e-10
1.65073e-09
-3.46472e-09
-3.36371e-09
3.35362e-09
-7.20647e-11
5.04618e-09
1.33058e-09
3.02296e-09
-4.72215e-09
-2.24806e-09
3.94725e-09
-2.51864e-09
2.50793e-09
8.38137e-09
4.36624e-09
-5.34166e-09
5.46502e-09
-3.34693e-09
-2.93329e-11
-5.6055e-10
-4.67573e-09
-7.55e-10
4.50729e-09
-9.07519e-10
1.43451e-09
-5.03429e-09
-6.16852e-10
-4.99667e-09
3.77905e-10
5.23562e-09
4.89357e-09
-5.14539e-09
-3.72815e-09
2.08025e-09
-2.70623e-09
-1.57443e-09
2.20041e-09
-2.69489e-09
3.64495e-09
-8.93497e-09
-1.91944e-11
4.99316e-09
-5.00905e-11
4.85352e-09
-3.2187e-09
-3.25517e-09
2.44498e-09
4.02889e-09
-3.295e-11
-4.48415e-09
-2.85139e-11
-5.44881e-09
-3.59356e-09
3.5215e-09
3.10439e-09
1.54253e-10
-4.36811e-09
4.9796e-09
-3.33809e-09
4.2513e-09
3.46542e-09
-4.37863e-09
-3.29509e-09
-4.255e-09
4.31729e-09
4.99803e-09
5.42559e-11
2.94511e-09
3.89273e-09
-3.85561e-09
2.88418e-09
-2.58336e-09
-3.85818e-09
1.0162e-10
-5.46032e-09
1.8614e-11
-4.49731e-09
1.37244e-11
-4.45961e-09
7.06667e-13
-4.42279e-09
-4.50105e-09
-1.12353e-11
4.00932e-09
5.02966e-10
-1.84936e-10
3.85156e-09
1.22553e-09
-1.93879e-10
4.06049e-09
1.28751e-09
-1.93104e-10
3.98816e-09
1.4491e-09
-1.12026e-09
7.99235e-09
-7.83399e-09
9.61893e-10
-3.97678e-09
8.47104e-09
-1.11495e-08
2.31641e-09
-2.2125e-09
2.50171e-09
-2.60562e-09
6.572e-09
-5.20826e-09
-5.2535e-09
3.88975e-09
-8.05162e-10
-7.59564e-10
1.19535e-09
3.6938e-10
5.00457e-09
7.41133e-10
-5.67151e-09
-5.42401e-09
-5.02093e-10
5.91192e-09
1.24266e-10
4.8635e-09
-1.02191e-09
6.29598e-09
-1.42797e-09
-3.81767e-09
-2.64348e-09
3.43223e-09
3.78513e-09
-5.73053e-09
-3.30756e-09
2.70874e-10
4.38088e-09
-8.34493e-10
-3.81726e-09
-4.59143e-09
3.41377e-09
-5.30861e-09
3.85907e-09
-1.96423e-09
3.92472e-09
2.69437e-09
-3.09387e-09
2.10581e-10
-4.98009e-09
6.26072e-09
-1.49121e-09
-4.3485e-09
-3.17722e-12
4.28188e-09
6.98015e-11
-5.43658e-09
-3.90104e-09
5.10413e-09
-2.27796e-10
-5.45623e-09
1.42695e-09
-4.30882e-09
4.92943e-11
4.47953e-09
-2.20008e-10
4.68475e-09
-6.68697e-09
4.36278e-09
-2.36056e-09
-4.78803e-09
5.02169e-09
-3.21529e-09
2.98163e-09
4.42197e-09
-3.12285e-09
-4.32803e-09
3.02892e-09
3.79468e-09
-3.97167e-09
-5.13664e-09
-2.41977e-09
5.29058e-09
2.26582e-09
-5.8205e-09
-6.81061e-10
-1.13411e-09
-4.57131e-09
8.09957e-11
4.82489e-09
-3.34571e-10
4.23041e-09