/*--------------------------------*- C++ -*----------------------------------*\
  =========                 |
  \\      /  F ield         | OpenFOAM: The Open Source CFD Toolbox
   \\    /   O peration     | Website:  https://openfoam.org
    \\  /    A nd           | Version:  8
     \\/     M anipulation  |
\*---------------------------------------------------------------------------*/
FoamFile
{
    version     2.0;
    format      ascii;
    class       surfaceScalarField;
    location    "6";
    object      phi;
}
// * * * * * * * * * * * * * * * * * * * * * * * * * * * * * * * * * * * * * //

dimensions      [0 3 -1 0 0 0 0];

internalField   nonuniform List<scalar> 
9048
(
7.00225e-09
-6.43456e-09
-3.31379e-09
2.74611e-09
-1.55007e-09
-1.36431e-09
1.73059e-09
1.18379e-09
8.65296e-09
-2.49478e-09
-6.59848e-09
4.40294e-10
-2.29892e-09
5.16683e-09
1.20491e-09
-4.07281e-09
-4.67245e-09
-3.34092e-09
1.91234e-09
6.10103e-09
3.09451e-09
-2.17859e-09
6.32548e-09
-7.2414e-09
-2.53991e-09
1.9316e-09
1.96272e-09
-1.3544e-09
3.26702e-10
-2.81587e-10
-6.05755e-11
1.54604e-11
5.21804e-09
-3.83056e-09
3.39877e-09
-4.78625e-09
7.63477e-09
-3.62518e-09
-7.06441e-09
3.05482e-09
1.45277e-09
-5.57341e-09
4.08743e-09
3.32139e-11
5.72999e-09
-4.90837e-09
-2.54252e-09
1.72091e-09
-5.73108e-09
2.11091e-09
5.39915e-09
-1.77898e-09
4.81966e-09
4.30352e-09
-2.66269e-09
-6.46049e-09
6.71666e-09
-6.10197e-09
-2.85845e-09
2.24375e-09
-6.8446e-09
5.19372e-09
2.14601e-09
-4.95136e-10
-8.49762e-09
6.46014e-09
2.61581e-09
-5.78332e-10
8.38399e-09
-6.57596e-09
-2.99063e-09
1.1826e-09
7.74715e-09
-6.84117e-09
-3.30607e-09
2.4001e-09
6.26198e-09
-5.52773e-09
-2.70795e-09
1.9737e-09
-6.18138e-09
5.6451e-09
2.38157e-09
-1.84529e-09
-5.49332e-09
5.08169e-09
2.18935e-09
-1.77772e-09
5.61338e-09
-5.01339e-09
-2.30715e-09
1.70717e-09
6.39871e-09
-5.93429e-09
-3.06225e-09
2.59783e-09
-5.9004e-09
5.53863e-09
2.47183e-09
-2.11006e-09
-7.33643e-09
7.18273e-09
3.27043e-09
-3.11673e-09
5.45012e-09
-5.19064e-09
-2.55259e-09
2.29311e-09
5.53567e-09
-5.27819e-09
-2.65713e-09
2.39966e-09
5.6657e-09
-5.40143e-09
-2.72343e-09
2.45916e-09
6.73743e-09
-5.34858e-09
-2.35766e-09
9.6881e-10
7.55493e-09
-5.97855e-09
-2.7835e-09
1.20712e-09
5.86953e-09
-5.46709e-09
-2.73054e-09
2.32811e-09
-5.56781e-09
5.20275e-09
2.38326e-09
-2.0182e-09
6.57622e-09
-6.01638e-09
-2.9863e-09
2.42646e-09
7.51287e-09
-7.08918e-09
-3.7125e-09
3.2888e-09
7.17924e-09
-5.68667e-09
-2.55924e-09
1.06667e-09
6.8895e-09
-5.46049e-09
-2.45588e-09
1.02687e-09
7.01203e-09
-5.5569e-09
-2.49847e-09
1.04334e-09
-6.21623e-09
6.01432e-09
1.97901e-09
-1.7771e-09
-5.3542e-09
2.37587e-09
5.07158e-09
-2.09325e-09
-4.10772e-09
3.65405e-09
-3.47016e-09
3.92383e-09
7.84057e-09
-8.05281e-09
2.80574e-09
-2.5935e-09
3.00126e-09
-3.37199e-09
5.30169e-09
-4.93096e-09
2.77299e-09
-3.16056e-09
4.85812e-09
-4.47055e-09
2.71454e-09
-3.10324e-09
4.77368e-09
-4.38498e-09
-3.87445e-09
-4.32947e-09
4.09621e-09
3.24459e-09
-3.75263e-09
5.6407e-09
-5.13266e-09
2.76241e-09
-3.14021e-09
4.74173e-09
-4.36394e-09
3.05888e-09
-3.42105e-09
5.31439e-09
-4.95222e-09
-3.24871e-09
2.78536e-09
5.36044e-09
-4.89709e-09
-1.6549e-09
1.56957e-09
-5.51259e-09
5.59793e-09
1.50932e-09
-1.78536e-09
-5.32635e-09
5.60239e-09
-8.24396e-09
3.05033e-09
-2.10154e-09
7.29517e-09
3.40926e-09
-3.35033e-09
-4.58119e-09
4.52227e-09
-2.83268e-09
3.28704e-09
2.8221e-09
-3.27646e-09
3.64152e-09
3.90974e-09
-3.59228e-09
-3.95898e-09
5.15277e-09
-6.54668e-09
2.78035e-10
1.11587e-09
-3.45853e-10
3.30669e-10
9.3087e-13
1.42535e-11
-3.98698e-09
-4.47263e-09
3.99665e-09
4.46296e-09
3.99042e-09
-5.18431e-09
-5.75714e-09
6.95103e-09
4.76488e-09
3.39172e-09
-4.57789e-09
-3.57872e-09
3.94548e-09
3.84947e-09
-4.12243e-09
-3.67252e-09
3.11305e-09
-3.95156e-09
-4.51791e-09
5.35642e-09
4.68138e-09
4.63224e-09
-4.91714e-09
-4.39648e-09
-2.31003e-09
2.34601e-09
3.60681e-09
-3.64278e-09
-4.7076e-09
-4.67857e-09
3.76876e-09
5.61741e-09
5.64869e-09
2.4507e-09
-2.43284e-09
-5.66655e-09
4.88324e-09
4.94633e-09
-4.318e-09
-5.51156e-09
3.51551e-09
-4.61307e-09
-5.0312e-09
6.12875e-09
-2.34489e-09
2.87105e-09
4.29351e-09
-2.20393e-09
2.27797e-09
2.48422e-09
-2.55826e-09
1.14189e-09
1.79929e-09
-1.59923e-09
-1.34195e-09
-1.00738e-09
6.16194e-09
2.78204e-09
-7.9366e-09
-4.17986e-09
-3.88902e-09
3.22171e-09
4.84717e-09
4.11507e-09
3.85088e-09
-4.2255e-09
-3.74044e-09
5.11155e-09
4.82111e-09
-5.25408e-09
-4.67858e-09
2.554e-09
-1.15696e-09
7.3448e-10
-2.13152e-09
-4.96359e-09
4.25423e-09
4.36341e-09
4.68232e-09
-4.6211e-09
2.52654e-09
-2.58775e-09
4.19099e-09
-4.13897e-09
2.25303e-09
-2.30506e-09
3.76229e-09
6.21847e-09
-4.29509e-09
-5.68567e-09
2.09873e-09
6.00437e-09
-2.70075e-09
-5.40235e-09
6.83322e-09
-4.73113e-09
5.46199e-09
-7.56408e-09
-5.6152e-09
-3.88051e-09
4.57944e-09
4.91627e-09
4.14495e-09
-4.61015e-09
-4.84817e-09
-3.8378e-09
4.73429e-09
3.95168e-09
7.52261e-09
-4.86664e-09
-4.14096e-09
1.48498e-09
-5.07817e-09
3.537e-09
-4.47095e-09
6.01212e-09
-4.64516e-09
-3.17322e-09
3.73079e-09
4.08759e-09
-4.83451e-09
-3.30698e-09
3.89123e-09
4.25026e-09
-4.72521e-09
-3.22996e-09
3.79851e-09
4.15666e-09
-4.55731e-09
-3.11244e-09
3.65817e-09
4.01158e-09
-1.21094e-11
-7.04116e-12
-4.56185e-09
-1.9586e-10
-2.72691e-10
5.0304e-09
3.49856e-09
-3.60754e-09
1.90187e-09
-1.79289e-09
4.00896e-09
1.88997e-09
-7.8381e-10
-5.11511e-09
-2.94681e-10
-7.24541e-09
6.68963e-09
8.50464e-10
-4.5574e-09
4.2783e-09
4.32398e-09
-4.04488e-09
-1.2611e-09
6.23424e-09
1.79626e-10
-4.49785e-09
4.8894e-09
4.08866e-09
-4.48021e-09
-5.42614e-09
3.77195e-09
-4.64164e-09
6.29583e-09
-4.39639e-09
3.12463e-09
-4.04266e-09
5.31442e-09
3.99854e-09
8.47274e-09
-7.04053e-10
-1.17672e-08
-6.85661e-09
4.76374e-09
-5.1045e-09
7.19738e-09
6.96861e-10
3.40579e-09
-1.54864e-09
-3.56474e-10
2.36637e-11
3.33259e-10
-4.48289e-13
-4.20973e-09
-4.3303e-09
3.87689e-09
4.66313e-09
-4.72354e-09
-1.52952e-09
1.90151e-09
4.35155e-09
-4.05634e-09
6.03377e-09
2.90581e-09
-2.75118e-09
4.023e-09
-4.62215e-09
4.97617e-09
5.43908e-09
-5.19722e-09
3.89164e-10
-3.48324e-10
-5.24209e-12
-3.5598e-11
-2.80779e-09
2.37358e-09
8.1774e-10
-3.83528e-10
5.45252e-09
5.36738e-09
-4.38446e-09
-6.43544e-09
2.73737e-09
-3.21915e-09
-1.16293e-09
1.64471e-09
2.65683e-09
-2.41818e-09
4.63047e-09
-4.86911e-09
-2.98981e-09
3.18065e-09
3.93213e-09
-4.12297e-09
5.62708e-12
-3.70651e-10
8.54984e-12
-4.2147e-09
6.96975e-12
4.4693e-09
-2.61569e-10
5.98897e-09
-4.18168e-09
4.44479e-09
-6.25208e-09
-5.1847e-09
5.21904e-09
2.16787e-09
-2.20221e-09
5.60299e-09
-4.31007e-09
4.9613e-09
-6.25422e-09
-4.41907e-09
1.23742e-09
-3.80619e-10
3.56227e-09
-5.00341e-09
4.72205e-09
-4.99512e-09
5.27647e-09
-6.05744e-09
4.28212e-09
-5.16088e-09
6.9362e-09
6.45749e-09
-5.85925e-09
6.56071e-09
-7.15895e-09
-5.3476e-09
4.91214e-09
-5.24395e-09
5.67942e-09
-6.73186e-09
4.75867e-09
-5.11307e-09
7.08626e-09
5.55531e-09
-4.52484e-09
5.70968e-09
-6.74015e-09
5.0292e-09
-4.68008e-09
4.7898e-09
-5.13891e-09
-5.4654e-09
4.81335e-09
-5.23331e-09
5.88536e-09
5.12742e-09
-4.60327e-09
4.87237e-09
-5.39652e-09
5.92846e-09
-4.72865e-09
5.91514e-09
-7.11496e-09
4.97072e-09
-4.19734e-09
5.40641e-09
-6.17979e-09
4.85543e-09
-4.49523e-09
4.47211e-09
-4.83232e-09
1.57407e-09
-3.82469e-09
3.76359e-09
-1.51297e-09
6.00636e-09
-4.12035e-09
3.53455e-09
-5.42057e-09
5.376e-09
5.34068e-09
-4.9017e-09
-5.81498e-09
-7.03473e-10
1.24886e-09
-3.27889e-09
2.7335e-09
5.56473e-09
5.35901e-09
-4.80206e-09
-6.12167e-09
-4.91586e-09
-4.91925e-09
3.97704e-09
5.85806e-09
-4.80661e-09
-4.82451e-09
3.97841e-09
5.65271e-09
-4.56837e-09
-3.35925e-09
4.51657e-09
3.41105e-09
4.28744e-09
3.51469e-09
-4.43033e-09
-3.3718e-09
5.10855e-09
4.75032e-09
-4.71942e-09
-5.13945e-09
4.97889e-09
4.64822e-09
-4.58213e-09
-5.04498e-09
5.23767e-09
5.07563e-09
-4.68622e-09
-5.62707e-09
5.46243e-09
5.28095e-09
-4.90561e-09
-5.83777e-09
5.33715e-09
5.1579e-09
-4.79921e-09
-5.69584e-09
4.2414e-09
-4.6697e-09
-2.35668e-09
2.78497e-09
-5.84076e-09
4.51149e-09
-3.63734e-09
4.96662e-09
7.522e-09
-5.40863e-10
-1.33212e-11
-6.96782e-09
-2.97004e-09
3.15387e-09
4.05059e-09
-4.23442e-09
5.70196e-09
-4.95613e-09
-9.87307e-10
2.41479e-10
3.81598e-09
1.23902e-09
-3.5907e-09
-1.46429e-09
6.64596e-09
-4.64611e-09
4.97302e-09
-6.97287e-09
-4.24856e-09
2.07846e-09
-8.78066e-10
3.04816e-09
5.75397e-09
-7.67409e-09
7.56704e-09
-5.64692e-09
-1.43419e-09
-2.28392e-09
2.44947e-09
1.26863e-09
2.56414e-09
-4.92616e-09
-2.23017e-09
4.59219e-09
-4.85958e-09
4.38399e-09
-4.70294e-09
5.17852e-09
3.67161e-11
3.69735e-11
-7.36896e-11
-2.6175e-09
-3.48545e-10
2.40807e-10
2.72524e-09
-1.69355e-09
2.95935e-09
-6.94678e-09
5.68098e-09
3.03812e-10
9.09788e-11
-7.50293e-09
-4.97216e-09
8.79476e-09
3.68032e-09
-8.62941e-10
1.59401e-09
1.05454e-09
-1.78561e-09
1.26392e-09
1.27162e-09
-1.39365e-09
-8.67337e-11
9.27438e-11
-2.6507e-10
2.5906e-10
-3.77896e-09
3.31175e-09
4.62179e-09
-4.15457e-09
-3.05827e-09
-8.94137e-10
3.23271e-09
7.19701e-10
-1.93333e-09
3.35209e-09
-7.76759e-09
6.34883e-09
5.39196e-10
4.48746e-09
-4.74222e-09
-2.84431e-10
2.98421e-09
-3.33656e-09
4.11137e-09
-3.75902e-09
4.75691e-09
-1.09535e-09
-3.55488e-09
-1.06678e-10
5.32673e-09
6.7165e-10
-1.95593e-09
-4.04245e-09
2.52429e-09
-1.54213e-09
2.61429e-09
-3.59645e-09
4.96085e-09
-5.26279e-09
5.46501e-09
-5.16306e-09
-3.779e-10
-4.83471e-11
3.99596e-10
2.6651e-11
5.5647e-09
-5.42111e-09
-4.83616e-09
4.69258e-09
-6.24744e-09
-3.94185e-09
5.00459e-09
-2.28855e-09
-5.62908e-09
4.97359e-09
2.94404e-09
-1.72803e-09
2.7414e-09
-5.90184e-09
4.88847e-09
4.06701e-09
-4.17963e-09
-4.10532e-09
4.21795e-09
1.9183e-09
-9.57217e-10
-1.85365e-09
8.92565e-10
2.10031e-09
4.02088e-09
-2.11223e-09
3.67189e-09
-5.3107e-10
-4.23668e-09
1.09586e-09
-1.41652e-09
-2.52976e-09
1.22473e-09
2.72155e-09
-1.82535e-09
5.16274e-09
-4.99229e-09
-5.60323e-10
1.03632e-09
-3.0159e-09
2.84363e-09
-5.09447e-09
4.81498e-09
3.16031e-09
-3.36513e-09
-5.63594e-09
4.63753e-09
4.89633e-09
-4.01392e-09
-5.51994e-09
6.93379e-10
4.81094e-09
-5.33774e-09
-1.66576e-10
2.67628e-10
4.51413e-11
-2.01943e-10
-1.10827e-10
-2.61578e-09
-4.12786e-09
2.87014e-09
3.8735e-09
4.9301e-09
-3.34744e-09
-4.33385e-09
-2.87811e-09
1.27544e-09
-4.9839e-09
6.58657e-09
-3.269e-09
3.26247e-09
2.39333e-09
-2.3868e-09
4.32876e-09
-3.21368e-09
-7.62797e-09
6.5129e-09
8.25679e-10
-5.47525e-10
9.85767e-10
-4.62011e-09
5.74975e-09
-6.43482e-09
5.30518e-09
-1.22313e-10
4.01914e-11
-2.66202e-10
-4.44136e-09
4.7571e-09
-5.94366e-09
5.62792e-09
-3.54258e-09
4.21782e-09
-5.59728e-09
4.92204e-09
-3.5347e-09
3.25478e-09
-4.70475e-09
4.98467e-09
3.60947e-09
-3.94202e-09
5.12422e-09
-4.79168e-09
-8.5413e-09
3.47708e-10
6.16074e-09
2.03285e-09
-3.19119e-09
-1.25842e-09
1.08217e-09
3.36744e-09
-5.98874e-10
7.83386e-10
-6.28285e-09
6.09834e-09
-2.58602e-09
-1.19229e-10
8.77457e-11
4.79031e-09
-2.53728e-09
-2.25303e-09
-1.86172e-09
9.02958e-09
-8.17523e-09
5.37664e-09
-2.8501e-09
-2.52654e-09
-1.59137e-09
-5.05072e-09
1.91855e-09
-3.31996e-09
1.47456e-09
-2.07423e-09
3.91963e-09
-8.25624e-10
2.9475e-09
-2.82535e-09
4.19027e-09
-2.2884e-09
-1.90187e-09
3.65897e-10
1.43447e-10
4.24756e-09
-2.49798e-09
-1.50688e-09
2.58834e-09
-4.85863e-09
5.95227e-09
-7.11387e-09
6.02024e-09
-2.6035e-09
2.71083e-09
3.75048e-09
-3.85781e-09
-2.44194e-10
3.08717e-10
1.36501e-10
-2.01024e-10
6.10545e-09
-6.74911e-09
1.13566e-09
-4.92002e-10
4.33643e-09
-4.28311e-09
3.14513e-09
-3.32562e-09
4.49185e-09
-4.31136e-09
-5.70261e-10
2.07506e-09
4.13509e-10
-2.75008e-09
-5.74249e-09
5.34565e-09
3.14691e-09
-5.14933e-09
5.08248e-09
5.18832e-09
-5.12147e-09
-3.84248e-09
-5.58852e-09
4.28486e-09
5.14615e-09
1.43856e-10
-1.77825e-10
3.64848e-10
-3.30879e-10
5.56137e-09
-4.57844e-09
5.71247e-09
-6.6954e-09
-4.68818e-09
-3.22033e-09
4.49116e-09
3.41734e-09
-5.32316e-09
4.81216e-09
-5.80688e-09
6.31788e-09
-4.38294e-09
4.93197e-09
-5.46181e-09
4.91278e-09
-1.07937e-09
-3.10079e-09
3.23043e-09
9.4973e-10
4.23259e-09
4.74231e-09
-3.80554e-09
-5.16936e-09
3.34293e-09
-3.695e-09
4.99929e-09
-4.64723e-09
-2.49044e-10
-2.73593e-10
3.73095e-09
-3.20831e-09
-2.80544e-09
4.32405e-09
2.56038e-09
-4.07899e-09
-4.16528e-09
-3.97675e-10
4.42256e-09
1.40387e-10
2.22567e-09
-2.68253e-09
1.0832e-10
2.8214e-09
-4.11076e-09
-2.37013e-09
3.65949e-09
-1.00636e-08
5.08642e-09
-5.12497e-09
1.01021e-08
-4.3577e-09
-5.84447e-09
4.87885e-09
5.32331e-09
6.36882e-09
6.58209e-09
-7.51597e-09
-5.43495e-09
3.47415e-09
5.27575e-09
-3.40437e-09
-5.34552e-09
-3.10106e-09
-1.16949e-09
3.75512e-09
4.22253e-09
-3.42201e-09
-4.55564e-09
-3.31627e-09
-5.07358e-09
3.42706e-09
4.9628e-09
3.52357e-09
4.756e-09
-3.91429e-09
-4.36528e-09
4.49006e-09
5.37368e-09
-5.17375e-09
-4.68999e-09
3.90523e-09
5.39863e-09
-4.17692e-09
-5.12695e-09
-3.97949e-09
-5.81703e-09
4.44247e-09
5.35405e-09
-3.16881e-09
-3.97914e-09
3.78329e-09
3.36466e-09
3.52796e-09
5.14683e-09
-3.53444e-09
-5.14035e-09
-3.24252e-09
-4.07246e-09
3.87095e-09
3.44403e-09
-3.00638e-09
-4.19116e-09
2.45819e-09
4.73935e-09
-4.4122e-09
-6.20332e-09
4.9589e-09
5.65662e-09
4.82556e-09
-4.20452e-09
-5.93671e-09
5.31567e-09
-2.4472e-09
-1.41183e-09
2.61461e-09
1.24442e-09
-2.0665e-10
2.11362e-09
-2.25061e-09
3.43632e-10
3.93126e-09
-3.16103e-09
7.09888e-09
-7.86912e-09
-4.92526e-09
-3.90156e-09
5.07476e-09
3.75206e-09
3.38121e-09
-3.47339e-09
5.3801e-09
-5.28792e-09
3.44979e-09
-3.2101e-09
5.30432e-09
-5.54401e-09
-3.26823e-09
3.84921e-09
-5.92592e-09
5.34494e-09
-4.45068e-09
3.95143e-09
-4.92307e-09
5.42232e-09
1.3549e-09
-2.64699e-09
2.54095e-09
-6.55619e-09
6.24738e-09
-7.04868e-09
7.35749e-09
-4.46636e-09
-1.98708e-09
4.62809e-09
7.01722e-11
1.38167e-10
-1.39777e-10
-6.8562e-11
5.96515e-09
-5.5967e-09
6.76946e-09
-7.13791e-09
-5.19694e-09
3.66979e-09
-4.79841e-09
6.32556e-09
7.69607e-09
4.94181e-09
-6.26906e-09
3.58969e-09
-4.15769e-09
5.61971e-09
-5.05172e-09
-1.06852e-08
6.32595e-09
1.29598e-09
-5.70997e-09
-1.91197e-09
-4.7398e-09
6.04438e-09
3.75148e-09
-5.05607e-09
5.56543e-09
-6.91974e-09
5.84437e-09
4.84615e-09
-5.78317e-09
4.84226e-09
-4.21184e-09
5.34964e-09
-4.38032e-09
-4.11897e-09
5.22718e-09
-4.27701e-09
4.70131e-09
-5.77732e-09
4.60397e-09
-4.24061e-09
5.48831e-09
-4.25408e-09
-5.26552e-09
6.59818e-09
-5.31216e-09
-5.70807e-09
7.20038e-09
-5.90451e-09
4.48339e-09
-5.48074e-09
4.52093e-09
-5.71405e-09
7.28739e-09
4.52338e-09
-6.09671e-09
-5.08263e-09
6.29295e-09
-5.05281e-09
4.73211e-09
-5.42851e-09
4.92899e-09
-4.65934e-09
5.83066e-09
-4.48758e-09
4.20376e-09
-4.81885e-09
4.37021e-09
-3.16759e-10
-2.19052e-09
-7.87369e-11
-5.69133e-09
7.05333e-09
-5.7197e-09
-7.37394e-09
-8.98416e-10
7.15644e-09
1.11591e-09
-4.7451e-09
-5.61525e-09
4.06072e-09
6.29963e-09
3.9946e-09
4.23027e-09
-5.24067e-09
6.96018e-10
-7.43447e-10
4.25883e-10
-3.78454e-10
5.00464e-09
2.30277e-09
-2.50003e-09
-4.80739e-09
4.43077e-09
-7.80795e-09
8.07387e-09
-4.69668e-09
4.97423e-09
-5.79536e-09
4.29528e-09
2.40006e-09
-3.12872e-09
-3.46213e-09
4.19078e-09
-2.71617e-09
6.01398e-09
-5.38777e-09
2.08996e-09
-5.37796e-09
1.75188e-09
-3.82163e-09
3.42494e-09
-7.10623e-09
-5.92056e-09
-5.34126e-09
4.57196e-09
6.68986e-09
-4.7497e-09
4.42054e-09
4.82534e-09
-4.49617e-09
2.16631e-09
4.36943e-09
-2.19931e-09
-1.16093e-09
-6.32397e-10
-7.12576e-09
8.91909e-09
4.0555e-09
6.40067e-09
-5.00365e-09
3.26382e-09
-2.97771e-09
4.14777e-09
-4.43389e-09
6.58098e-09
4.55912e-10
-6.3549e-09
-6.81993e-10
-7.06285e-09
6.90135e-09
2.18344e-10
-5.68381e-11
-5.07304e-09
-5.76844e-09
5.69216e-09
-7.67275e-09
-9.66898e-10
7.22121e-09
1.41844e-09
-2.50626e-09
2.17633e-09
-6.27286e-10
2.00816e-09
6.11226e-09
5.32535e-10
-6.21814e-09
-4.1218e-09
5.82035e-09
4.51959e-09
5.65531e-09
4.78263e-09
-4.55364e-09
-5.8843e-09
-2.26413e-09
2.06247e-09
3.8325e-09
-3.63084e-09
-5.17074e-09
5.17806e-09
4.05969e-09
3.81459e-09
6.2179e-09
-4.4295e-09
2.13369e-09
7.05965e-09
-1.05345e-09
-8.13989e-09
-4.82677e-11
1.18838e-09
6.11044e-09
-4.7956e-09
3.66134e-09
-5.32567e-09
6.72039e-10
6.55196e-09
-1.89834e-09
5.32129e-09
5.86898e-09
-6.22942e-09
-5.17168e-09
-6.44522e-09
4.84316e-09
6.77375e-09
3.55009e-09
3.50228e-09
-3.39236e-09
-3.66e-09
4.7665e-09
5.65185e-09
-4.35576e-09
-6.06258e-09
-6.46172e-09
7.14601e-09
7.08579e-09
-7.77008e-09
-6.88812e-09
2.12238e-09
4.1519e-09
6.13845e-10
-2.89902e-09
7.52345e-10
-9.11598e-10
-6.0788e-09
7.72172e-09
4.99577e-09
-6.63869e-09
4.47876e-09
6.98777e-09
-5.90184e-09
-3.29917e-09
-5.48422e-09
3.77998e-09
-3.95625e-09
-6.75467e-09
4.65348e-09
4.41055e-09
7.02418e-09
-5.50626e-09
4.48774e-09
7.26294e-09
-5.29318e-09
-3.73057e-09
-5.70678e-09
4.08976e-09
3.81908e-09
5.89963e-09
-4.74799e-09
2.63123e-09
3.29284e-09
-3.11939e-09
-2.80468e-09
-4.96582e-09
-7.42667e-09
5.66063e-09
-3.96222e-09
-5.74265e-09
4.23947e-09
3.50165e-09
5.37593e-09
-3.84838e-09
4.36293e-09
6.42302e-09
-5.23065e-09
3.4182e-09
5.60208e-09
-3.89286e-09
-5.27769e-09
-6.68695e-10
1.10701e-09
4.83937e-09
1.22818e-09
4.98786e-09
6.9902e-09
-1.07628e-09
-5.74313e-09
-1.70792e-10
5.7369e-09
-1.64468e-10
-5.75578e-09
1.83354e-10
6.63054e-09
-1.22293e-10
-6.67952e-09
1.71271e-10
7.35596e-09
-1.88802e-10
-8.14184e-09
9.74682e-10
-6.28504e-09
4.12155e-09
1.53241e-09
6.31074e-10
5.23466e-09
-5.80004e-09
2.36505e-10
3.28873e-10
-6.76921e-09
6.88861e-09
-1.15809e-10
-3.58636e-12
-7.12688e-09
7.08951e-09
9.72079e-12
2.7652e-11
-6.80022e-09
6.53693e-09
-1.88903e-10
4.52194e-10
-7.92339e-09
6.88822e-09
2.06156e-09
-1.02639e-09
-8.27831e-09
8.4242e-09
-2.15724e-10
6.98338e-11
-6.2545e-09
6.37348e-09
-2.15503e-10
9.65273e-11
-5.35505e-09
6.37035e-09
1.49392e-12
-1.0168e-09
-6.00358e-09
4.9496e-09
1.4657e-09
-4.11722e-10
-6.07431e-09
4.94913e-09
-4.73084e-10
1.59827e-09
-5.48108e-09
6.5217e-09
-1.94711e-12
-1.03867e-09
-8.00084e-09
7.74591e-09
-8.40428e-11
3.38963e-10
-5.28054e-09
6.1692e-09
1.47489e-11
-9.03403e-10
-6.26845e-09
6.31595e-09
-7.99422e-11
3.2444e-11
-6.39595e-09
6.4931e-09
-7.62735e-11
-2.08694e-11
-6.26296e-09
6.25632e-09
-1.26679e-10
1.33317e-10
-7.79378e-09
7.96455e-09
-1.11862e-10
-5.89125e-11
7.15005e-09
-8.64321e-09
1.18917e-11
1.48127e-09
8.6429e-09
-8.37831e-09
2.24761e-10
-4.89352e-10
-4.22418e-09
-1.69699e-09
4.48633e-09
1.43484e-09
6.12805e-09
-6.60717e-09
-1.19761e-10
5.77937e-09
1.43034e-09
-5.64014e-09
-4.53615e-09
1.01483e-09
6.18499e-09
-6.53474e-09
-4.91305e-09
-6.52002e-09
6.08333e-09
4.02638e-09
1.96853e-09
4.74986e-09
-4.18506e-09
-2.53333e-09
-1.60553e-09
-2.27586e-09
-5.08731e-09
5.53386e-09
-5.30518e-09
4.86182e-09
-5.46501e-09
5.92448e-09
-2.14945e-09
5.86939e-09
1.2847e-09
-3.82745e-09
5.84718e-09
-5.06877e-09
3.04904e-09
1.72695e-10
-2.33975e-11
-1.49298e-10
3.82187e-09
5.7831e-09
-4.22897e-09
4.1442e-09
6.37887e-09
-4.95834e-09
-3.85983e-09
-5.46918e-09
4.41315e-09
-6.193e-09
7.93848e-09
-6.71764e-09
2.41973e-10
-4.09558e-10
7.68959e-09
-6.84304e-09
7.00616e-09
-3.99057e-09
4.70472e-09
-4.79448e-09
-1.50161e-09
-5.29932e-09
-3.78771e-09
4.28042e-09
-3.14837e-09
-5.15697e-09
3.73697e-09
2.98144e-09
5.0823e-09
-3.77629e-09
3.67246e-09
5.68594e-09
-4.24984e-09
3.59018e-09
5.54823e-09
-4.15951e-09
-2.05195e-09
5.41209e-09
-5.21903e-09
-5.23093e-09
4.26433e-09
6.18563e-09
1.52359e-09
-2.39213e-09
-1.62944e-09
-1.77897e-10
-1.05623e-10
5.81804e-11
2.2534e-10
-3.50389e-09
3.70157e-09
5.80868e-09
5.11989e-09
4.71792e-09
-5.85215e-09
-3.98566e-09
6.38266e-09
-7.24284e-09
-2.80287e-09
3.66305e-09
1.43545e-09
-6.39187e-09
5.37346e-10
-3.91087e-10
3.68508e-11
-3.05987e-09
-3.65717e-09
2.93807e-09
-4.75802e-09
-1.02575e-09
5.17838e-09
6.05393e-10
7.04477e-09
-5.79425e-10
-3.59894e-10
5.81492e-09
-4.76961e-09
6.0461e-09
-7.09141e-09
5.30523e-09
-3.94254e-09
4.65816e-09
-6.02084e-09
3.70366e-09
6.00026e-09
-4.24149e-09
3.56008e-09
5.75854e-09
-4.08095e-09
3.61643e-09
5.86036e-09
-4.13963e-09
-2.06361e-09
2.90924e-09
-4.11462e-09
-4.52912e-09
-4.1177e-09
5.10651e-09
3.54031e-09
4.79016e-09
5.59067e-09
-3.97453e-09
-6.4063e-09
2.47982e-09
-6.3857e-09
-2.21804e-09
6.12393e-09
-1.05015e-09
4.22536e-09
-4.83332e-09
3.46347e-09
-4.03567e-09
5.40552e-09
-2.68709e-10
4.35849e-09
1.35749e-09
-4.24978e-09
-2.98879e-09
-1.00614e-09
4.35489e-09
1.6887e-09
-1.59672e-09
-4.44687e-09
-6.30575e-09
-4.14776e-09
5.72861e-09
4.7249e-09
-5.01366e-09
4.46524e-09
-4.65108e-09
5.19951e-09
7.24098e-09
2.38601e-09
-3.53707e-09
-6.08991e-09
-7.65905e-09
6.98635e-09
-2.06414e-09
2.73684e-09
-5.5559e-09
6.93608e-09
-4.88407e-09
4.36173e-10
-2.26437e-09
6.33533e-09
2.98384e-09
-6.59942e-09
-2.71975e-09
-7.30154e-09
3.75506e-09
-3.40712e-09
6.9536e-09
-5.29359e-09
-2.71004e-10
2.86904e-10
5.20759e-09
1.95503e-09
-3.59064e-09
-3.57198e-09
-5.42165e-09
6.59426e-09
-4.09058e-09
2.91798e-09
-5.52495e-09
4.79805e-09
5.23838e-09
3.18907e-09
-7.50609e-09
6.45071e-09
-2.4613e-09
1.55584e-09
-1.78626e-09
2.69172e-09
-5.72244e-09
1.03776e-09
5.05689e-09
-3.7221e-10
-1.80433e-09
8.29025e-09
-8.34765e-09
-3.70526e-09
-3.58462e-09
4.6741e-09
-2.9714e-09
4.61838e-09
-6.20429e-09
-3.07948e-09
4.7939e-09
-6.43962e-09
-3.15002e-09
4.9105e-09
-6.59498e-09
-3.02773e-09
4.70873e-09
-6.32616e-09
-2.418e-09
-4.90122e-09
2.971e-09
-3.58817e-09
5.5184e-09
-4.66609e-09
6.3898e-09
4.61162e-09
-5.63369e-09
-7.17954e-09
8.57317e-09
4.24005e-09
-1.05411e-10
-6.12406e-10
-5.08813e-12
7.22905e-10
-4.47356e-09
6.09892e-09
-8.08708e-09
5.6479e-09
1.16922e-09
-6.16437e-09
-6.52745e-10
-6.87359e-09
-1.55568e-09
7.35179e-09
1.07749e-09
-7.14155e-09
-1.13046e-09
-6.3033e-12
-5.82418e-09
-1.0492e-09
6.18872e-10
-5.72152e-09
-1.32564e-09
9.72845e-10
-4.3618e-09
-8.81473e-10
-1.11781e-10
-4.46232e-09
-9.06305e-10
-1.12448e-10
5.95342e-09
1.45195e-09
-1.07941e-09
5.89175e-09
1.0817e-09
1.76601e-10
4.37973e-09
5.17238e-09
-5.24694e-09
-4.30516e-09
5.36434e-09
-5.57499e-09
2.43693e-09
-2.22628e-09
-3.16202e-09
-1.41636e-09
5.05728e-10
5.2159e-09
-5.38259e-09
-3.39037e-10
-4.85977e-09
-6.61419e-09
6.05286e-09
-3.27545e-09
5.61615e-09
-7.18887e-09
-2.38734e-10
1.02052e-10
-3.16366e-10
5.54759e-09
5.05675e-10
-5.29104e-11
-8.57616e-11
-5.22361e-10
6.49978e-09
1.37854e-09
6.26143e-10
-6.06252e-09
-8.48659e-10
3.98029e-10
-5.71154e-09
-4.86528e-10
-4.02001e-10
6.3274e-09
9.63209e-10
-1.19197e-10
4.08484e-10
-4.01851e-10
6.22931e-09
7.09474e-10
1.05204e-09
-7.20403e-09
-1.7714e-09
-1.72788e-10
5.96156e-10
2.98815e-11
7.20201e-11
-9.33127e-11
2.03836e-10
3.36576e-11
9.2087e-11
6.99542e-10
-5.69268e-09
-1.01044e-09
-1.18785e-10
-2.1263e-10
-6.06128e-11
1.27481e-11
-2.41789e-10
5.81796e-09
5.93026e-10
-3.23086e-10
6.30836e-09
5.07823e-10
-3.18075e-10
6.15523e-09
4.78793e-10
-3.48749e-10
6.05368e-09
5.51388e-10
-4.03399e-10
7.57831e-09
7.89638e-10
-6.25914e-11
6.22733e-11
6.91129e-10
-8.00288e-09
-1.06656e-09
9.54766e-10
-1.19382e-09
-1.31101e-09
5.97843e-09
-3.10988e-10
1.39124e-09
-7.05868e-09
-4.20634e-09
1.68726e-09
-1.02099e-09
3.54006e-09
-2.73722e-09
6.86595e-09
1.71845e-09
-4.05952e-09
5.18649e-09
-5.3367e-09
8.13471e-10
-3.67184e-09
-7.15979e-11
2.92997e-09
-6.48328e-09
-1.63819e-09
4.62422e-10
3.99114e-09
-4.04372e-09
-3.28398e-09
-3.48899e-09
-6.99473e-09
6.93143e-09
3.55229e-09
3.19923e-10
5.50614e-09
-5.13916e-09
-6.86897e-10
-3.66544e-09
-6.0108e-09
2.13963e-09
3.73334e-09
-3.09929e-09
-2.77368e-09
-3.88255e-09
-4.84431e-09
2.42111e-09
-3.65003e-09
5.78389e-09
-7.74905e-09
-1.26906e-09
1.82647e-09
3.6664e-09
-4.2238e-09
-5.37301e-09
-5.36499e-09
5.90184e-09
-2.37319e-09
-7.47049e-09
5.4906e-09
4.35308e-09
9.01334e-10
3.84238e-09
-4.74371e-09
1.17832e-09
3.80687e-09
-4.98519e-09
1.48777e-09
5.12843e-09
-6.6162e-09
-3.57512e-09
3.25743e-09
-4.13598e-09
4.45367e-09
-4.18273e-09
4.53491e-09
-5.68751e-09
5.33533e-09
2.76428e-09
-2.98226e-09
5.16758e-09
4.10427e-09
-3.78112e-09
4.7175e-09
-5.04064e-09
-3.79712e-09
5.04094e-09
-1.56404e-11
-3.47976e-09
4.50356e-09
2.9708e-09
-2.39377e-09
3.13363e-09
-1.05661e-09
4.65407e-09
-1.84307e-10
-4.71959e-11
-5.68986e-09
5.63749e-09
7.19838e-09
3.55563e-09
5.44102e-09
-4.61692e-09
1.46332e-10
-2.80559e-10
3.79806e-10
-2.45579e-10
5.80558e-10
-6.5165e-09
-8.13163e-10
4.85761e-09
3.08861e-09
-5.10259e-09
-5.89576e-09
-4.65856e-09
5.61528e-09
4.93903e-09
3.75797e-09
-3.83781e-09
6.96806e-09
-6.47648e-09
-1.97174e-09
7.75484e-10
7.2742e-09
-7.42278e-09
-3.92279e-10
-5.51017e-09
3.30103e-09
7.2875e-09
-5.07836e-09
-7.14612e-09
-4.65564e-09
5.24557e-09
6.78036e-09
4.21385e-09
-5.02906e-09
-6.9456e-09
5.14346e-09
5.3367e-09
-5.06654e-09
-3.50147e-09
4.11732e-09
-6.00962e-09
-3.9443e-09
4.75698e-09
4.85244e-10
-2.511e-09
-3.68017e-10
-6.06003e-09
3.95084e-09
-3.33133e-09
5.44052e-09
6.16528e-09
8.46729e-10
-6.43146e-09
-4.48235e-09
1.84733e-10
-2.24906e-09
6.63547e-09
-5.25683e-09
-5.67359e-09
3.74969e-09
-6.04189e-09
4.823e-09
5.74886e-09
3.87592e-09
-3.77149e-09
5.88276e-09
-5.98718e-09
-7.22135e-10
-7.63196e-09
8.41251e-09
-5.84169e-11
2.24774e-10
5.87116e-09
8.05413e-10
3.58784e-10
5.658e-09
5.64201e-10
-6.68015e-09
4.46189e-09
-4.4384e-09
6.65667e-09
3.72821e-09
2.32067e-09
-1.4112e-09
-4.63767e-09
3.95111e-09
5.29268e-09
-3.45556e-09
-5.78823e-09
-5.72747e-09
1.31086e-09
-2.08253e-09
6.49914e-09
-8.28038e-09
5.64962e-09
1.38884e-09
1.24192e-09
8.87729e-10
3.66139e-09
-6.0718e-09
1.52268e-09
3.42228e-10
1.33083e-09
-1.29461e-09
-3.78444e-10
-6.30477e-09
-6.39654e-10
-4.3249e-10
7.37691e-09
-5.58673e-09
-3.49782e-09
4.15928e-09
-4.23603e-09
4.68931e-09
-6.04919e-09
5.59591e-09
-4.58666e-09
-4.75439e-09
4.59595e-09
4.18396e-09
-3.94666e-09
3.22713e-09
-3.46443e-09
4.93787e-09
-4.28882e-09
5.32731e-09
-5.97636e-09
3.0707e-10
-1.54793e-10
-4.9103e-09
4.43665e-10
-4.20515e-10
-5.18504e-10
4.95353e-10
-3.299e-09
3.94672e-09
-3.63752e-09
3.60859e-09
-4.0233e-09
6.87186e-09
-6.45715e-09
5.15794e-09
3.90319e-09
-5.18304e-09
-3.8781e-09
-9.23799e-11
3.77291e-10
5.66678e-09
1.59432e-09
-1.87394e-09
-5.38717e-09
5.4268e-09
-6.14584e-09
5.58086e-09
-1.02509e-09
-2.69955e-09
5.17811e-09
-7.88314e-09
1.18726e-08
-9.16753e-09
4.08254e-09
-4.09642e-09
-1.08866e-09
1.10253e-09
3.32296e-09
5.20074e-09
-4.40215e-09
2.03147e-10
1.06565e-10
-7.43227e-09
7.12256e-09
5.14807e-09
-7.1901e-09
5.23111e-09
4.26688e-10
7.92103e-09
-2.18578e-09
-4.04646e-09
4.57707e-09
-5.59938e-09
2.37819e-09
-2.3935e-09
-3.68995e-09
4.96246e-09
1.28033e-09
-5.35506e-09
7.27352e-09
3.57885e-10
-7.64473e-09
1.23416e-10
-2.31142e-10
-6.29411e-09
6.20343e-09
9.92011e-10
-6.03313e-09
5.78639e-09
1.42507e-09
-8.08681e-09
7.98334e-09
1.59124e-09
7.27904e-09
-6.183e-09
5.90597e-09
1.06042e-09
3.93194e-11
-4.77457e-09
6.98266e-09
-8.62025e-09
6.50068e-11
1.57258e-09
-4.12678e-09
3.83095e-09
5.15126e-09
4.20378e-09
-3.87027e-09
-4.92172e-09
4.58822e-09
5.09202e-09
7.69724e-09
-5.70348e-09
-4.06068e-10
-5.02526e-10
3.97725e-10
5.10869e-10
-4.39764e-09
-1.09547e-09
6.33661e-10
4.85945e-09
-2.42055e-10
-1.54889e-11
3.20968e-10
-6.34248e-11
3.62547e-09
-4.57707e-09
4.00064e-09
-1.37006e-09
6.71709e-09
3.19761e-10
3.10911e-09
5.90744e-10
-6.35736e-09
5.54641e-09
6.7027e-09
-3.55807e-09
4.12992e-09
5.38157e-09
4.82664e-09
-4.17574e-09
-5.11322e-09
4.71488e-09
-4.08211e-09
-4.99457e-09
-4.23156e-09
3.14725e-09
-4.73988e-09
3.42167e-09
-5.50325e-09
-4.79202e-09
-2.37686e-09
4.26536e-09
3.75941e-09
2.61378e-09
-5.16464e-09
-4.59069e-09
3.40678e-09
-3.95082e-09
-5.17748e-09
3.98083e-09
-2.59779e-09
-4.35308e-09
6.76943e-09
-5.86188e-09
-3.96734e-09
4.39157e-09
1.7154e-09
-2.57352e-09
8.6824e-10
7.76889e-10
7.06397e-11
-9.86969e-10
1.39441e-10
-8.75862e-10
-5.68323e-09
-8.14846e-10
7.40838e-09
1.07116e-10
4.89795e-09
4.18283e-09
-4.78392e-09
-4.29687e-09
-5.20885e-09
3.44335e-09
-2.74036e-09
4.50585e-09
-8.9337e-09
6.26982e-09
6.27247e-09
-2.39682e-10
7.10432e-09
6.48448e-09
7.82862e-10
-1.94061e-09
-1.11051e-10
-5.29732e-10
5.35372e-10
-5.13513e-09
4.28931e-09
5.8749e-09
-5.02908e-09
-1.51485e-09
2.24801e-09
-1.78114e-09
1.04798e-09
1.67258e-09
-1.49505e-09
-5.22824e-09
-2.81425e-09
-1.08614e-09
3.99192e-09
-4.17819e-09
-3.11272e-09
1.54909e-09
4.39968e-09
-1.09073e-09
-4.85804e-09
-7.49925e-09
5.03908e-09
-4.14536e-09
2.93974e-09
6.17985e-09
-5.58996e-09
-5.31137e-09
5.26764e-09
1.06118e-10
-4.66561e-10
-1.37712e-10
4.98155e-10
-5.49917e-09
3.57599e-09
-5.4743e-09
5.41895e-09
1.72793e-09
7.50812e-10
6.86072e-09
3.65992e-09
-3.58712e-09
4.17431e-09
-4.24712e-09
-6.56685e-09
4.20221e-09
4.82183e-09
-4.23833e-09
4.18799e-09
-4.77148e-09
-5.36942e-09
4.67668e-09
-4.81255e-09
5.50529e-09
2.27096e-09
-1.95473e-09
6.53042e-09
-6.84665e-09
4.59206e-09
-3.03838e-09
-4.91881e-09
6.70978e-09
-6.81489e-09
-5.60895e-09
-4.37404e-09
4.68299e-09
4.17444e-09
5.65507e-09
-5.69146e-09
-4.70341e-09
-5.78172e-09
5.69884e-09
5.64831e-09
4.23366e-09
-4.20288e-09
-4.14975e-09
4.33399e-09
-4.29795e-09
-4.24788e-09
-5.11689e-09
5.63407e-09
4.32896e-09
-4.69759e-09
5.34914e-09
4.04976e-09
5.49725e-09
-6.10613e-09
-4.65663e-09
3.98546e-09
-4.2067e-09
-4.01938e-09
5.68506e-09
-5.80001e-09
-5.59311e-09
3.98762e-09
-3.35601e-09
-7.03601e-09
-1.13063e-09
6.78174e-09
1.38489e-09
1.12056e-09
-3.67866e-09
7.41169e-09
-5.16502e-09
4.39929e-09
-5.07897e-09
5.19696e-09
-4.63162e-09
4.51363e-09
5.81978e-11
-7.81817e-09
7.86654e-09
-4.11992e-09
4.16751e-09
1.07297e-09
-1.36903e-09
1.48248e-09
-1.96711e-09
-8.26992e-10
-1.05286e-09
7.0735e-10
1.1725e-09
6.64736e-09
-4.61645e-09
3.95805e-09
-5.12304e-09
-4.35768e-09
4.86156e-09
4.61916e-09
3.50373e-10
-4.70095e-11
3.01813e-09
-4.89922e-09
6.64597e-09
-5.98681e-09
-4.13231e-09
-4.9451e-09
-4.5256e-10
6.80056e-09
-1.4029e-09
-4.78583e-09
4.00698e-09
6.59547e-09
-5.81663e-09
3.70014e-09
3.37486e-09
-3.33406e-09
-3.74094e-09
5.82843e-09
-4.41554e-09
-6.27247e-09
2.27439e-09
-3.63486e-09
-1.53538e-09
2.89584e-09
1.1863e-09
-1.05741e-09
1.17045e-09
-1.29935e-09
4.5144e-09
-4.92618e-09
-3.5866e-09
3.99838e-09
4.78467e-09
-5.52408e-09
7.57263e-09
-5.1612e-09
-5.45537e-09
6.11871e-09
7.94389e-09
-6.35212e-09
3.56618e-09
2.28574e-09
-1.67271e-09
6.05018e-10
-1.21805e-09
-8.92326e-10
-4.40702e-10
5.41557e-09
-2.37472e-09
2.81141e-09
-5.53116e-09
-5.03676e-09
-3.32332e-09
4.28011e-09
4.07998e-09
-3.98703e-09
-5.93393e-09
-2.61617e-09
2.60876e-09
2.5317e-09
7.89543e-10