/*--------------------------------*- C++ -*----------------------------------*\
  =========                 |
  \\      /  F ield         | OpenFOAM: The Open Source CFD Toolbox
   \\    /   O peration     | Website:  https://openfoam.org
    \\  /    A nd           | Version:  8
     \\/     M anipulation  |
\*---------------------------------------------------------------------------*/
FoamFile
{
    version     2.0;
    format      ascii;
    class       surfaceScalarField;
    location    "6";
    object      phi;
}
// * * * * * * * * * * * * * * * * * * * * * * * * * * * * * * * * * * * * * //

dimensions      [0 3 -1 0 0 0 0];

internalField   nonuniform List<scalar> 
15173
(
6.53327e-09
-5.77334e-09
-2.21529e-10
-5.38392e-10
5.0845e-09
-1.679e-10
1.09243e-10
-5.02584e-09
-4.12514e-11
5.21824e-09
-5.1721e-09
-4.87958e-12
8.51838e-09
-2.48077e-10
4.9213e-10
-8.76243e-09
-5.97715e-09
6.25519e-09
-2.24973e-10
-5.30703e-11
6.90775e-10
-9.23977e-09
8.97706e-09
-4.28065e-10
-4.27371e-09
-7.95572e-10
1.14043e-09
3.92885e-09
5.24852e-09
-5.26409e-09
3.78345e-10
-3.62774e-10
-2.03758e-09
2.15814e-09
5.51825e-11
-1.75744e-10
6.69035e-10
-3.39509e-10
4.65185e-09
-4.98138e-09
5.2598e-09
-5.29157e-09
6.8514e-11
-3.67509e-11
6.78408e-09
-3.49066e-11
-2.15904e-10
-2.55151e-09
2.43597e-09
-1.87124e-09
1.98679e-09
5.26165e-09
-5.21304e-09
2.88481e-10
-3.37094e-10
-4.87777e-09
5.10346e-09
9.35101e-11
-3.19196e-10
2.93815e-09
-3.21698e-09
2.7883e-10
5.23856e-09
1.12545e-10
-9.13045e-11
-4.21162e-10
-8.79964e-11
-4.36862e-09
8.84696e-10
-7.94269e-10
-9.04265e-11
-2.87297e-09
-9.00522e-10
1.38002e-09
2.39347e-09
2.07616e-09
-4.70672e-11
-2.10264e-09
7.3546e-11
-3.26686e-09
2.90074e-09
3.15394e-09
-2.78782e-09
-5.28908e-09
4.47997e-11
-4.72832e-11
6.00927e-09
4.61552e-10
-6.26419e-09
-2.06635e-10
7.14352e-09
6.59485e-10
-7.01347e-10
-7.10166e-09
-1.55917e-10
5.06306e-11
-5.68875e-11
1.62174e-10
5.34127e-09
-7.37842e-09
2.48218e-09
-4.45028e-10
-1.99854e-09
3.52702e-09
-2.25295e-09
7.24466e-10
7.99322e-09
-6.074e-09
5.22117e-10
-2.44133e-09
-2.78181e-10
7.46283e-10
8.05028e-09
-5.92183e-09
-5.05679e-09
7.69161e-09
3.28701e-09
5.96879e-09
4.97265e-10
-1.14217e-10
-6.35184e-09
7.66824e-09
2.63298e-09
-8.72055e-09
-1.58067e-09
8.47265e-10
-1.20371e-09
5.20579e-09
-4.84934e-09
4.93328e-09
1.50821e-10
-4.95958e-09
-1.24517e-10
5.10534e-09
1.37971e-09
-6.44062e-09
-4.44403e-11
4.98941e-09
-5.13273e-09
-9.92959e-11
2.42617e-10
-5.15491e-09
-6.86134e-09
3.17031e-09
8.84593e-09
-1.25641e-09
-8.68339e-09
8.29536e-09
1.64444e-09
-6.32342e-09
1.76656e-09
-3.09978e-10
4.86684e-09
5.18882e-09
-1.04981e-10
1.96201e-11
5.23212e-09
6.66404e-10
-5.08329e-10
-5.39019e-09
-6.6504e-09
6.61319e-09
-7.99107e-12
4.51974e-11
5.04496e-09
1.33094e-11
2.62325e-11
-1.84631e-09
1.82481e-10
-3.73755e-10
-3.5739e-09
1.75118e-10
-2.85866e-10
3.68464e-09
-1.12896e-10
8.54614e-11
2.72973e-09
1.48183e-10
-3.69264e-09
8.14726e-10
-5.46705e-09
-7.23187e-11
5.49812e-09
-1.1855e-10
3.01815e-10
-2.73828e-10
9.05635e-11
-1.71322e-09
-2.52356e-09
1.68528e-09
4.97808e-09
1.16435e-10
-4.95594e-11
6.03371e-09
2.91249e-10
-5.70811e-09
-6.16848e-10
6.86015e-10
-5.76103e-09
5.92057e-09
-8.45548e-10
-8.61635e-09
2.13626e-09
6.72277e-09
-2.42688e-10
8.11859e-10
-7.38432e-10
6.11332e-11
-1.3456e-10
-8.91677e-10
7.64388e-10
-2.91748e-09
3.04477e-09
5.38883e-10
-5.35603e-09
8.10709e-10
4.00644e-09
-6.58156e-09
6.71674e-09
-2.26235e-10
9.10566e-11
-1.69658e-09
-7.48808e-10
1.82484e-09
6.20544e-10
6.54494e-09
-6.5994e-09
-3.73159e-11
9.17779e-11
-7.07881e-09
6.23729e-09
3.52568e-09
-2.68416e-09
-1.9061e-09
3.63261e-09
-3.59773e-09
1.87122e-09
3.62168e-09
4.96753e-09
-1.58239e-09
-7.00682e-09
-7.59201e-09
2.04287e-10
3.28781e-10
7.05894e-09
2.9414e-11
6.99e-09
-6.51551e-11
-6.95426e-09
6.59413e-09
-6.58435e-09
1.96361e-11
-1.00964e-10
-6.03424e-10
8.38925e-11
6.20496e-10
1.97499e-09
-5.9628e-10
-5.65241e-09
7.40768e-11
-4.88593e-11
6.51973e-09
2.70112e-09
-2.63707e-09
-2.34236e-09
2.27832e-09
5.26662e-09
-1.86857e-10
-5.23868e-09
1.58914e-10
-3.27039e-10
1.17126e-09
7.09356e-09
-7.93779e-09
-1.68352e-09
8.90003e-10
-9.03058e-10
2.6823e-09
2.02831e-09
-2.0095e-09
-4.43326e-09
4.38397e-09
4.92944e-11
4.70784e-14
-1.7002e-11
-6.63344e-09
-5.32041e-11
6.69923e-11
-1.33659e-10
-5.35001e-09
6.21484e-10
4.86219e-09
-2.2724e-09
4.3866e-09
7.24249e-09
-3.41964e-09
-3.44323e-09
4.36755e-09
2.49532e-09
-7.17005e-09
7.4275e-09
-3.77538e-10
1.20084e-10
-1.03209e-09
8.76279e-10
-5.05723e-09
-3.59132e-09
4.46999e-09
3.5267e-09
-4.40537e-09
4.87339e-09
-4.52385e-09
-3.49536e-10
4.92001e-09
-1.07766e-10
-3.56948e-09
-1.24276e-09
2.0774e-09
3.88003e-09
-3.87932e-09
-2.07811e-09
-6.488e-09
6.52166e-09
-4.12692e-11
7.61157e-12
-5.2218e-09
2.88211e-09
-2.59234e-09
4.93203e-09
1.84021e-09
-3.38938e-09
-5.69498e-10
2.11867e-09
1.71169e-09
3.68949e-11
3.2758e-10
-5.05611e-09
5.07031e-09
1.89618e-11
-3.31611e-11
7.22669e-11
4.9095e-10
-9.00051e-11
-4.73212e-10
-6.32792e-09
-5.36007e-09
5.76616e-09
1.3411e-09
4.40681e-09
-4.13214e-09
-1.61578e-09
-4.85042e-09
2.35971e-09
-4.58986e-09
7.08057e-09
-1.90657e-10
6.38571e-10
-4.96581e-10
4.86669e-11
3.39363e-09
-4.93477e-09
-3.09848e-09
4.63962e-09
-3.20154e-09
3.3098e-09
2.40516e-09
-2.51341e-09
2.40426e-11
-4.45731e-09
6.09996e-09
1.59412e-09
-1.81544e-09
-5.87864e-09
6.30392e-09
-3.13825e-09
-4.05274e-09
8.87072e-10
4.78025e-09
1.622e-09
-2.10942e-09
-4.29283e-09
7.90173e-09
9.59942e-10
-7.25669e-09
-1.60498e-09
3.09272e-09
2.60047e-10
-6.50428e-10
-2.70234e-09
8.00045e-09
-8.32749e-09
-4.25865e-10
7.07787e-11
4.27353e-10
-2.61604e-09
-2.52887e-09
2.50785e-09
5.32943e-09
-4.60004e-09
-4.64593e-09
3.91654e-09
-4.79135e-09
4.69482e-09
1.92269e-10
-9.57451e-11
5.59154e-09
-5.31895e-09
4.80744e-09
-5.08004e-09
-1.93591e-09
1.75976e-09
4.7371e-09
-4.56096e-09
-7.33123e-09
-2.68433e-09
2.93675e-09
5.14225e-09
-1.01123e-10
4.38735e-12
-5.04552e-09
2.85017e-09
-4.02036e-10
1.29723e-09
-3.74536e-09
6.40736e-09
-2.55216e-10
2.03882e-10
-6.35603e-09
-5.67896e-09
-2.68612e-09
3.14328e-09
-6.80102e-09
5.05352e-11
6.78636e-09
-3.58829e-11
-1.32163e-10
9.75674e-10
2.24921e-09
-4.9825e-09
5.00782e-09
3.27776e-11
-5.8102e-11
-7.15284e-10
-5.31166e-09
4.97986e-11
-6.42532e-09
-5.96926e-10
7.80876e-10
6.24138e-09
2.03621e-10
5.35729e-09
-4.25436e-10
-5.13548e-09
2.89279e-10
5.96092e-09
-6.10887e-09
-1.41326e-10
3.9092e-09
-3.44566e-09
-1.67235e-09
1.2088e-09
-3.14376e-09
-1.6038e-11
2.26812e-09
-5.35342e-09
-3.47822e-10
4.82906e-09
8.72187e-10
-6.67924e-10
7.48029e-10
-4.09696e-09
4.01686e-09
-1.6938e-09
7.93652e-10
-4.1808e-09
5.08095e-09
1.08341e-09
-8.95487e-09
8.56224e-09
-5.03774e-09
3.51039e-11
-5.34692e-11
3.23811e-09
-2.51142e-09
1.79043e-09
-2.51712e-09
1.66022e-09
-1.09976e-09
-3.59886e-09
3.0384e-09
-6.07324e-09
-8.32058e-10
6.19002e-09
-4.96462e-09
-1.76103e-10
4.8407e-11
5.09232e-09
4.84752e-09
2.565e-10
-1.14606e-10
9.41499e-09
8.46451e-10
-9.0428e-09
-1.21863e-09
-2.17558e-09
-3.84995e-09
4.1915e-09
1.83403e-09
1.08867e-10
-5.27788e-11
-6.49708e-09
6.62766e-12
2.44828e-12
3.10013e-09
2.89359e-09
-2.08451e-09
-6.33829e-10
6.67228e-10
-4.81303e-09
4.77963e-09
-4.7193e-09
3.71507e-09
-3.89205e-10
1.39343e-09
1.10004e-08
-6.46613e-09
-7.30573e-09
2.77142e-09
-6.7686e-11
5.27561e-10
3.10747e-11
7.38292e-09
-2.33723e-09
1.77162e-09
-6.81731e-09
1.2165e-09
5.18686e-09
-1.17124e-09
-4.80453e-09
-2.5746e-10
9.73677e-11
5.84084e-09
-5.47182e-09
2.20764e-09
-2.57665e-09
-4.33261e-09
-8.10301e-10
4.47498e-09
5.80662e-09
-6.91918e-09
-1.4056e-10
1.25312e-09
-3.3171e-09
-3.12649e-09
2.72737e-09
3.71622e-09
4.9611e-09
-2.71909e-09
-3.38528e-09
1.14327e-09
-4.90504e-09
4.92891e-09
3.14667e-11
-5.53362e-11
6.56055e-09
-1.05382e-11
-4.14179e-12
-6.54587e-09
-4.79178e-09
4.79243e-09
-2.09545e-11
2.03003e-11
9.85886e-10
-1.77261e-09
-2.2269e-09
3.01362e-09
-5.35961e-10
2.51444e-09
1.25963e-09
-5.23101e-09
5.23232e-09
-1.40712e-11
1.27672e-11
-5.38587e-09
5.56247e-09
-2.32119e-10
5.55134e-11
-1.11507e-09
3.76322e-09
-5.72441e-10
-2.07571e-09
-4.83796e-09
4.82503e-09
-3.10897e-11
4.40185e-11
2.06987e-09
7.04914e-09
-7.39798e-09
-1.72103e-09
-4.89915e-09
4.87662e-09
-3.65256e-11
5.90574e-11
-5.21934e-09
5.18898e-09
-3.01008e-11
6.04599e-11
5.21267e-09
2.58395e-10
-2.22543e-10
4.06641e-09
-4.1159e-09
-3.54184e-09
1.06708e-09
-1.69091e-09
-1.02576e-08
5.08208e-10
-5.47676e-09
-3.82815e-10
5.35136e-09
-4.95433e-09
4.94038e-09
-3.20274e-11
4.59781e-11
-5.18755e-09
5.16712e-09
1.6758e-10
-1.47157e-10
-5.13787e-09
5.11161e-09
-3.10519e-11
5.73083e-11
-4.98893e-09
4.98012e-09
-2.68895e-11
3.57008e-11
2.84942e-09
-4.00763e-09
2.11796e-09
-9.59748e-10
-5.05656e-09
5.03731e-09
-3.34525e-11
5.27057e-11
-1.20983e-09
2.80374e-09
-2.70898e-09
-2.26287e-10
-4.85302e-09
5.07931e-09
-2.16193e-09
6.84261e-10
-6.22188e-10
2.09985e-09
-1.81394e-11
4.39244e-09
-4.3743e-09
-2.03765e-11
-5.10914e-11
6.85554e-09
-1.73763e-10
5.04715e-09
3.21321e-09
2.76515e-09
-2.89792e-09
-3.08045e-09
-1.84762e-09
9.22062e-10
-9.93539e-10
1.9191e-09
-8.80373e-12
-3.97431e-12
-4.75821e-09
5.75101e-11
-1.46101e-10
4.8468e-09
3.11346e-09
-2.68618e-09
1.64293e-09
-2.07021e-09
-4.08992e-10
7.48534e-11
-9.17269e-11
-5.54543e-09
4.21788e-09
-6.08353e-10
4.09667e-09
-4.07717e-09
-1.94924e-11
-3.69013e-09
3.78158e-09
1.74875e-09
5.23815e-09
5.61555e-11
-2.76898e-11
-2.12521e-10
-3.13364e-09
3.34616e-09
8.38151e-09
-5.45882e-09
-3.40408e-09
4.81396e-10
1.87341e-09
2.13289e-10
-3.29653e-09
-3.4411e-11
1.9834e-10
5.05074e-09
-5.21467e-09
-1.01798e-09
1.09085e-09
9.86408e-10
-1.05929e-09
-3.36148e-11
2.55541e-10
-2.26397e-11
-1.99286e-10
-1.1428e-09
-3.33913e-09
1.60895e-09
-6.49122e-09
-1.77462e-13
-5.67865e-12
-4.65841e-09
-3.30263e-10
1.84144e-10
4.89233e-09
-8.40341e-11
1.69784e-10
3.10453e-11
-9.09503e-11
6.31702e-11
-2.83989e-11
5.03554e-09
-2.08648e-10
1.96063e-10
-6.3262e-09
6.33879e-09
-8.42234e-11
-5.19939e-09
5.28362e-09
-8.87896e-10
8.70846e-10
-1.00093e-09
7.02124e-09
-4.59353e-10
1.54859e-10
6.23085e-10
-1.1498e-10
-1.89392e-09
1.38582e-09
7.68447e-11
1.67863e-10
-6.51622e-11
-1.79546e-10
-4.94928e-09
2.54758e-11
-5.86922e-11
2.62625e-09
-2.39429e-09
-5.84153e-09
5.60958e-09
1.94022e-10
-9.30364e-11
2.45226e-09
-1.9949e-09
-4.57362e-10
-1.52621e-09
9.56509e-10
7.71322e-09
-6.48834e-09
-5.19596e-11
6.52216e-09
-4.6107e-10
2.6505e-10
-4.46239e-09
-1.30876e-09
1.7996e-09
-5.21014e-09
-6.17795e-09
6.11253e-09
-1.43227e-10
1.54614e-11
1.53509e-11
-3.08122e-11
-6.4249e-09
7.20961e-10
6.38995e-09
-5.04315e-09
1.42103e-09
2.85686e-09
7.65256e-10
5.07972e-09
5.34335e-10
-4.10834e-09
-1.50572e-09
5.49125e-09
4.00234e-09
-5.23325e-09
3.95847e-11
-2.56735e-11
3.3824e-09
5.71696e-09
-5.5151e-09
-3.58426e-09
-6.12774e-09
-5.62609e-09
5.42591e-09
-7.47802e-09
1.64966e-09
-1.51761e-09
7.34598e-09
1.15831e-11
6.60659e-09
1.78738e-11
-1.88081e-11
3.52227e-09
5.28363e-09
-2.56861e-09
3.89835e-09
-9.73367e-11
-4.21467e-09
4.13656e-10
6.83036e-11
-1.25907e-10
-3.51388e-10
-1.98266e-10
2.40906e-11
-4.91024e-11
2.23278e-10
1.42047e-10
-5.49941e-09
5.49823e-09
-1.40868e-10
3.2497e-09
-2.96527e-09
3.25305e-09
-3.53749e-09
-6.47033e-09
-6.30794e-11
4.50701e-11
-5.19264e-09
-7.00765e-10
5.39718e-09
4.96223e-10
1.6205e-09
-4.54527e-09
-1.79244e-09
4.7172e-09
-1.07663e-11
7.90105e-12
6.56342e-09
8.20325e-09
-6.93677e-09
-6.41453e-10
-6.25029e-10
6.23621e-09
-6.15317e-09
1.13028e-10
4.62053e-09
-4.74993e-09
-5.91574e-11
1.88561e-10
2.34616e-10
6.45728e-09
-4.55692e-10
-4.50078e-09
-7.53337e-11
8.13962e-11
4.49472e-09
-4.40231e-09
2.00134e-09
3.83793e-09
-1.43696e-09
4.41164e-09
-1.92043e-11
-9.42683e-09
-2.05302e-10
8.79029e-09
8.41845e-10
-5.9144e-09
-4.44418e-09
5.20367e-09
-4.52748e-09
3.59949e-11
4.48895e-09
2.53528e-12
-2.3822e-10
5.24149e-09
-5.12194e-09
1.18673e-10
1.53993e-09
7.01488e-09
-8.51476e-09
-4.00514e-11
1.73948e-10
-1.50605e-10
2.14055e-11
-4.47489e-11
-2.98637e-11
4.12653e-09
6.42816e-09
-6.41484e-09
-5.48948e-11
4.15708e-11
-3.89434e-09
-1.1838e-11
3.90618e-09
6.28513e-09
-5.24524e-10
3.59221e-10
-6.11982e-09
4.20405e-09
-2.4502e-09
-3.92943e-09
3.11364e-11
-7.33071e-11
1.17724e-08
5.83634e-10
-4.45428e-09
4.70625e-09
-3.36113e-09
1.55195e-09
-2.89707e-09
5.92412e-09
1.21075e-09
-1.46026e-09
-5.67461e-09
-3.33374e-09
2.98889e-09
1.39705e-09
-1.05221e-09
-2.16536e-10
-6.49624e-09
1.28591e-10
6.58418e-09
-6.33125e-09
6.34921e-09
-5.36393e-11
3.56789e-11
6.33498e-09
-2.65802e-11
1.01807e-10
-6.4102e-09
-6.46089e-09
1.00202e-10
6.81418e-09
-4.53492e-10
8.10589e-10
-8.98332e-10
-8.00152e-10
-5.16579e-09
5.7277e-11
-2.93576e-11
-4.69908e-11
2.2673e-11
-4.48645e-09
1.20461e-09
4.90234e-09
-3.1829e-09
-2.75649e-09
3.73436e-09
2.20503e-09
-2.0845e-10
2.32113e-10
-2.36638e-11
2.68931e-09
-2.58645e-09
-2.7189e-09
-1.67823e-09
-5.4312e-09
7.86621e-10
6.32282e-09
-6.2652e-09
6.28342e-09
-3.72628e-11
1.90478e-11
2.92878e-09
-5.08668e-09
4.2353e-09
4.47948e-11
-6.31826e-09
6.30048e-09
-2.70111e-11
-5.47322e-09
1.32366e-10
5.4829e-09
-1.93603e-09
-3.54712e-09
1.50825e-09
3.97489e-09
3.47571e-09
-3.51012e-09
6.47336e-09
-6.46903e-09
-1.97533e-11
1.54206e-11
-6.3871e-09
-6.19381e-11
3.42041e-11
-6.28529e-11
3.29311e-11
1.44719e-09
-4.25084e-09
-2.2395e-09
-1.97544e-09
4.22921e-09
-1.27957e-09
1.2788e-09
1.09163e-09
-1.74262e-09
1.98191e-09
-3.17591e-09
2.93662e-09
1.21657e-11
-2.28747e-10
-5.47501e-09
5.69159e-09
-6.46491e-09
1.79926e-10
-1.64713e-10
6.4497e-09
-4.87077e-09
3.08562e-11
-6.51337e-11
-1.28397e-10
2.03047e-11
-4.25123e-11
-5.22992e-09
5.39522e-09
2.45386e-09
-2.61917e-09
-2.56614e-09
-8.35499e-09
5.46231e-09
5.50847e-09
5.53547e-10
-2.55402e-10
4.19128e-09
-3.29169e-09
-1.50019e-09
6.006e-10
4.65357e-10
5.8531e-09
-2.85352e-09
-3.46494e-09
-4.36755e-09
-4.58826e-11
3.32238e-11
4.38021e-09
-7.87445e-09
4.63013e-09
-3.85626e-09
7.10058e-09
2.36238e-09
-2.49488e-09
-4.78346e-09
4.91597e-09
6.17839e-09
-1.52131e-11
-6.17706e-09
1.38829e-11
-2.29363e-09
1.95242e-09
2.62061e-10
3.73024e-09
-1.62656e-12
-3.99067e-09
1.09513e-10
4.5023e-09
8.71556e-12
-6.78765e-12
-6.0348e-09
6.02972e-09
1.18686e-11
2.2709e-09
-3.35147e-09
1.64469e-09
-5.64118e-10
1.79257e-10
-3.98113e-09
4.24638e-09
-4.44502e-10
1.94079e-11
-4.1086e-11
-1.06719e-10
4.98069e-09
5.67304e-10
-1.02221e-09
-4.52579e-09
3.05501e-09
-2.65736e-09
-3.181e-09
2.78335e-09
-4.94411e-09
4.38693e-10
4.15594e-09
3.49477e-10
2.76174e-09
-1.46247e-09
1.09586e-09
-2.39513e-09
-4.56102e-09
5.13096e-09
2.52176e-09
-6.41586e-09
-1.78486e-09
-1.50369e-09
2.2806e-09
2.93258e-09
-3.70949e-09
-2.29451e-09
-7.65026e-10
8.97608e-10
2.46492e-09
-2.83106e-09
-2.31481e-09
2.68095e-09
5.67616e-11
-3.35653e-11
3.45168e-09
-3.24806e-09
-2.287e-09
-4.79107e-09
3.07532e-09
4.00275e-09
3.96986e-09
-3.94688e-09
-2.29808e-11
6.23623e-10
2.29259e-09
-1.76581e-09
-1.15041e-09
-2.03895e-09
6.09629e-10
2.05295e-09
-5.08497e-09
5.77158e-11
-2.93029e-11
-6.30565e-09
-5.57492e-11
3.01514e-11
2.94301e-09
2.83214e-10
-2.46184e-09
4.08929e-09
7.19311e-10
-3.98859e-09
-8.20011e-10
-3.8681e-10
7.42229e-10
-3.55418e-10
-1.42539e-09
-2.75961e-09
2.57044e-09
1.61455e-09
-5.27724e-09
4.65181e-09
6.23635e-10
1.79702e-12
2.01479e-10
1.58205e-09
-1.69387e-11
-1.76659e-09
-7.60821e-11
-3.5049e-09
3.58098e-09
2.82781e-11
-6.61678e-11
6.22689e-09
8.55326e-10
-2.14723e-10
-6.86749e-09
5.60802e-09
-6.63369e-09
4.28281e-09
-3.25714e-09
-1.35154e-09
4.9607e-09
-5.2874e-09
-1.38016e-09
-3.99949e-09
1.68953e-09
5.65424e-09
-5.68005e-10
-5.16754e-09
8.13049e-11
4.19572e-09
8.14233e-11
-5.23314e-12
-4.27191e-09
-1.24848e-09
1.24102e-09
-6.17533e-09
6.18279e-09
-1.40925e-09
-3.54101e-09
1.61651e-09
-3.31233e-09
1.49149e-09
3.10416e-09
-1.28331e-09
-4.06498e-11
-6.03493e-09
6.06088e-09
1.46961e-11
-4.00544e-10
1.45253e-09
-2.25303e-09
1.20104e-09
2.35507e-10
5.26343e-09
-4.8608e-09
-6.38138e-10
-3.65283e-09
1.92378e-09
-2.12089e-09
3.13971e-09
6.43532e-09
-3.36398e-09
-6.21105e-09
2.19421e-09
4.74725e-09
-2.04178e-09
-4.89968e-09
-4.02774e-09
6.13803e-09
1.59856e-09
-3.70886e-09
-2.2103e-09
2.32975e-09
2.93557e-09
7.28103e-09
-1.39325e-09
-7.01447e-09
1.12669e-09
-7.11149e-09
7.28013e-09
-1.96341e-09
1.79476e-09
6.29025e-09
-6.26435e-09
-3.26844e-11
-1.89912e-09
1.68024e-09
4.20353e-10
-2.62341e-09
2.51605e-09
-1.60587e-09
1.56995e-10
3.88182e-09
-4.03882e-09
-1.94774e-10
2.14792e-10
-8.70644e-10
8.50627e-10
5.15137e-09
-4.08609e-09
-1.86086e-09
1.4416e-09
4.05063e-09
-5.31297e-09
-5.75358e-09
5.51218e-09
1.15769e-09
-9.16291e-10
-5.0594e-11
3.02249e-11
1.03184e-10
-1.45472e-09
-6.24866e-09
-3.21665e-11
1.56262e-11
2.16613e-09
-9.30583e-09
-3.3832e-10
1.62747e-09
-6.91777e-10
-9.35697e-10
-2.19804e-09
6.84247e-09
3.84281e-10
-5.02871e-09
2.76258e-09
3.77933e-09
-3.91598e-09
3.98322e-09
-6.72349e-11
-1.57237e-09
-8.27254e-09
7.13387e-09
2.71104e-09
2.46066e-09
-2.64113e-09
3.19378e-09
-3.01331e-09
-4.02492e-09
1.1108e-11
4.01381e-09
7.7672e-10
4.18398e-09
1.50301e-09
6.03325e-10
-2.10633e-09
-7.45596e-11
6.08167e-09
-8.64852e-10
-8.2352e-10
-7.7315e-09
7.22536e-09
1.32967e-09
4.58257e-11
-5.47498e-09
-3.02297e-11
5.45938e-09
2.10272e-09
-1.25885e-09
-8.4387e-10
-5.00769e-09
4.08868e-11
-2.21327e-11
4.66253e-09
-4.64343e-09
1.26122e-11
-3.17085e-11
-2.15373e-10
-5.67576e-09
4.50113e-10
5.44102e-09
8.36711e-09
-1.28282e-09
-5.14638e-09
5.23013e-09
-1.37283e-10
5.35313e-11
-3.1452e-09
-1.59635e-09
3.84103e-09
-3.01899e-09
-7.32365e-11
3.09222e-09
2.25832e-09
-3.13574e-09
4.14259e-09
-3.26517e-09
7.81845e-09
1.62728e-10
2.3131e-09
4.05311e-09
-3.36964e-09
-2.99657e-09
5.17238e-09
-5.2988e-09
-8.89584e-11
3.98922e-10
-1.05422e-09
1.46717e-09
-8.11871e-10
-2.20219e-09
-1.49739e-09
8.09846e-10
2.88973e-09
5.34739e-09
-4.68791e-09
3.39337e-11
-1.29617e-10
4.90724e-10
-2.44516e-09
-7.10136e-10
2.66457e-09
1.61089e-10
2.43998e-09
-1.61518e-09
3.79541e-11
-9.43752e-11
1.89422e-10
-1.33001e-10
-3.29055e-09
3.67242e-09
-4.00966e-09
3.62779e-09
6.02155e-09
-1.73561e-11
-1.0242e-12
-6.00316e-09
-8.20689e-11
1.00568e-10
-1.84991e-11
-2.16404e-09
7.75319e-09
-8.04548e-09
2.45633e-09
-2.27592e-09
2.39857e-09
4.56018e-09
-4.68283e-09
5.27888e-11
5.46765e-09
-5.47462e-09
3.04957e-10
5.34351e-09
-1.39995e-10
-2.47394e-10
-2.0764e-09
1.92325e-09
-1.44596e-11
4.90787e-12
2.04386e-10
-1.94835e-10
-3.01164e-10
-7.76218e-09
1.18037e-11
-3.92778e-09
-5.3422e-12
6.0411e-09
4.40996e-11
-6.07986e-09
6.22532e-09
-3.07743e-11
1.74988e-11
-6.21205e-09
2.00815e-11
-6.52518e-09
6.54193e-09
-3.68311e-11
-2.03994e-09
6.23806e-10
-6.22817e-10
-3.09311e-09
1.62003e-09
-3.80416e-09
-2.2299e-09
8.3225e-09
-8.69943e-09
2.60683e-09
-6.06174e-09
6.98111e-12
6.09955e-09
-1.56436e-09
2.21631e-10
2.50591e-09
-4.16441e-09
6.36378e-11
1.59486e-09
6.17812e-09
-1.98001e-09
-3.82083e-09
-3.7728e-10
-1.16705e-09
-3.61819e-09
1.33958e-09
-4.91843e-11
1.66254e-11
6.68095e-11
-3.42506e-11
5.73345e-12
6.59837e-09
-6.58402e-09
2.64221e-11
-4.86572e-11
5.50507e-11
-2.84154e-11
1.90589e-10
-5.03556e-09
1.12452e-09
3.72045e-09
9.50991e-10
-2.06815e-09
-3.82695e-09
-2.24676e-12
2.71982e-12
-2.07523e-10
2.0705e-10
-1.66156e-09
-6.17181e-09
2.07979e-09
-1.5172e-09
-5.77676e-10
-2.0528e-09
-1.1187e-09
-4.07694e-10
2.35302e-09
1.04356e-09
-6.4522e-09
6.59047e-09
4.23724e-10
-5.61989e-10
-3.28281e-09
8.25714e-10
4.3737e-09
-1.9166e-09
-2.98012e-09
-6.75902e-10
4.1894e-09
-5.3338e-10
-1.35192e-10
7.87984e-11
8.68253e-10
1.21296e-10
-8.80767e-10
4.46206e-11
7.14851e-10
-6.2929e-09
6.30888e-09
-5.6628e-11
3.43541e-10
-3.06316e-10
3.02087e-11
-6.74333e-11
-3.89739e-09
-6.57983e-09
1.5278e-09
8.94943e-09
-3.60955e-09
-5.69485e-09
6.00542e-09
3.29898e-09
2.89724e-09
2.1463e-10
-2.62115e-09
4.39009e-09
-2.81104e-09
1.4034e-09
-2.98246e-09
-5.93472e-09
2.19526e-11
-6.07301e-11
5.9735e-09
6.46717e-10
-7.08873e-10
1.83451e-10
-5.1494e-09
1.47474e-09
-1.92863e-10
3.86752e-09
1.21754e-09
-2.90779e-09
-7.52821e-10
2.44307e-09
-4.56696e-09
-6.12592e-09
6.66514e-09
-1.53797e-09
3.53443e-10
3.07452e-09
-1.89e-09
1.39179e-10
-6.42636e-09
6.29898e-09
2.60216e-09
7.10272e-09
-7.94523e-09
-1.75964e-09
3.48434e-09
-5.59938e-10
1.86098e-11
-6.59836e-10
2.32338e-09
4.34573e-09
2.60729e-09
-1.19405e-09
4.56172e-09
-5.97496e-09
-6.53217e-09
6.45628e-09
1.22446e-10
-4.65611e-11
-5.42653e-09
5.43415e-09
1.89382e-11
-2.65585e-11
-1.74686e-10
1.99809e-10
2.94045e-10
-7.54247e-09
-8.31409e-09
3.04179e-09
1.00684e-09
-2.5197e-09
-1.76994e-09
5.25945e-09
-1.88326e-10
9.75094e-11
-5.16863e-09
3.79881e-09
-4.08218e-09
5.67741e-09
-5.39404e-09
-3.04606e-09
2.35868e-09
-2.11821e-09
2.80558e-09
5.56977e-09
2.39477e-09
-4.5068e-09
-3.45774e-09
-1.95552e-10
8.5563e-10
-8.54853e-10
-3.46995e-09
-3.61867e-09
3.51971e-09
3.5689e-09
5.96884e-10
2.94579e-09
-1.20463e-09
5.53987e-09
5.5418e-09
5.22774e-09
-5.42827e-09
-3.77022e-09
-3.32839e-09
3.62867e-09
1.32025e-08
-4.53786e-09
-5.52496e-09
2.611e-09
-2.97936e-09
-3.51869e-09
3.88704e-09
-3.69591e-09
4.29363e-09
-2.65697e-09
2.05925e-09
-5.51008e-11
1.39893e-10
3.49337e-11
-1.19726e-10
-4.24195e-09
3.66585e-09
-3.57053e-09
4.14663e-09
-3.31533e-09
3.40739e-09
-9.20618e-11
-5.43601e-09
5.46257e-09
4.39766e-12
-3.09614e-11
1.35608e-09
4.54137e-10
-6.42644e-10
-1.16758e-09
9.69011e-11
-6.75601e-10
-1.59732e-10
3.79292e-09
-1.08393e-09
8.86363e-10
-3.59536e-09
-5.66133e-09
-8.54931e-11
5.51336e-09
2.33468e-10
-1.49736e-09
2.33553e-09
5.33995e-09
3.74054e-10
-3.27515e-10
6.79142e-10
-7.25681e-10
3.38314e-10
-2.89615e-11
3.589e-09
-7.04581e-11
-4.84715e-09
4.68463e-11
3.92124e-10
7.36936e-09
-5.59535e-09
1.59057e-09
4.03628e-09
-3.69105e-09
-1.9358e-09
-1.15827e-11
-1.46926e-09
-3.74908e-09
1.69011e-09
-2.08407e-09
-7.58377e-10
1.15233e-09
-4.10063e-09
3.75834e-09
-3.89967e-09
-4.1276e-09
4.3778e-09
3.95856e-09
-4.20876e-09
-1.75074e-11
-4.00087e-09
4.01837e-09
5.93632e-09
-2.34656e-09
2.95436e-09
-5.42687e-09
-9.18193e-10
3.39071e-09
4.72674e-09
1.89773e-11
-2.86548e-11
-4.71706e-09
-6.57642e-11
4.83879e-09
-4.81014e-09
3.71151e-11
-1.02114e-09
1.32289e-09
5.732e-09
-6.03375e-09
2.50141e-10
8.8414e-10
-9.19489e-10
4.64453e-10
2.63571e-09
-1.0183e-09
1.37997e-09
-2.99738e-09
-1.47849e-09
6.89736e-09
-6.93776e-09
1.51889e-09
1.93451e-10
-8.95929e-09
-1.28374e-09
-4.51513e-09
2.16961e-09
2.79941e-09
-2.58101e-09
2.42812e-09
-2.64652e-09
-7.00098e-12
1.24764e-11
-1.55935e-10
1.50459e-10
2.11395e-10
-1.1381e-10
1.54693e-09
4.09779e-10
-6.00625e-10
5.43351e-09
-5.44794e-09
-2.74002e-11
4.18243e-11
5.09188e-09
-4.94863e-09
1.95947e-09
5.16169e-09
-7.11735e-11
1.47632e-10
-5.47999e-09
-4.24843e-11
4.74987e-11
-2.54531e-11
3.2431e-11
2.39531e-09
5.17446e-11
-4.43113e-11
-2.40274e-09
4.15303e-09
-2.16488e-09
-1.98815e-09
3.46665e-09
-2.89934e-09
1.99393e-09
-2.04461e-09
7.34942e-10
-7.00415e-09
-1.36185e-09
7.44169e-09
9.24305e-10
-3.98153e-11
-5.9255e-09
3.05984e-11
4.00189e-09
-3.2033e-11
-5.13923e-09
-1.2071e-09
2.02942e-09
4.31691e-09
-4.03026e-09
-3.49034e-12
4.21278e-10
4.23402e-09
-6.28167e-09
2.77865e-09
3.50301e-09
6.39538e-11
3.25798e-09
-1.84945e-09
-1.47249e-09
6.31029e-09
5.75785e-09
-8.54246e-09
2.23904e-09
4.88623e-09
-1.79584e-09
-4.34255e-09
-8.13045e-10
4.52177e-09
-7.3985e-09
6.23421e-09
1.22855e-11
-3.56249e-11
-1.46388e-09
-3.63739e-09
3.68772e-09
1.41355e-09
3.97755e-09
-5.40361e-09
-3.10386e-11
5.94266e-09
5.66133e-11
-5.96824e-09
1.84998e-09
-3.2753e-09
-1.62073e-09
-4.19785e-09
3.74514e-09
2.49362e-09
-2.04091e-09
-4.82797e-09
4.93605e-09
-1.81779e-09
1.70971e-09
1.34173e-10
-7.61471e-11
-1.14313e-10
5.62868e-11
9.7004e-10
-7.91538e-10
-4.63756e-09
1.4901e-10
-3.89242e-11
-1.19735e-09
3.99809e-10
1.25167e-09
-4.03156e-09
2.84486e-09
4.11548e-09
4.15159e-10
8.52566e-10
-1.65454e-09
-2.01215e-09
2.34207e-09
-3.29914e-10
-6.69795e-10
1.06325e-11
-2.21604e-10
5.86504e-09
4.78686e-11
-5.89143e-09
-2.14816e-11
-2.99939e-09
3.16073e-09
-2.31991e-09
2.15857e-09
5.06763e-09
1.79057e-10
-8.49964e-11
6.56762e-10
2.5651e-09
-1.51018e-09
-2.4525e-11
5.84262e-09
4.69469e-11
-2.48726e-10
-4.71114e-09
1.26187e-10
-1.83372e-10
4.76833e-09
-3.90926e-09
-2.44332e-09
9.26299e-10
5.42628e-09
6.93058e-09
-7.42148e-10
4.57684e-09
2.10799e-10
1.33055e-10
-4.92069e-09
1.48991e-11
7.10243e-09
-7.02159e-09
-9.57428e-11
5.33515e-11
-2.37299e-11
-7.01978e-10
2.50484e-09
-2.2774e-09
4.74529e-10
-6.25927e-09
6.24301e-09
-7.78729e-13
1.70321e-11
3.78948e-09
5.31153e-09
-4.80455e-09
-4.29646e-09
4.59675e-11
-3.27036e-09
3.2597e-09
-3.53072e-11
-3.39175e-09
2.3921e-09
-1.98046e-09
-9.97501e-11
1.57011e-10
5.875e-10
-5.48685e-09
3.92554e-10
2.4358e-09
-3.35078e-09
1.65721e-09
7.46888e-10
-6.94029e-10
3.42119e-10
-3.94978e-10
-5.52365e-09
3.29197e-10
4.95198e-09
-3.73515e-09
5.48979e-11
-6.22341e-09
6.21639e-09
-6.30714e-09
6.28002e-09
4.10828e-12
2.30161e-11
-1.00949e-10
5.05311e-09
2.20224e-10
7.96094e-09
-8.39589e-09
1.13734e-10
3.21218e-10
-5.44862e-09
-3.13558e-11
3.20429e-11
-4.14851e-11
2.1439e-10
2.2224e-09
-1.83045e-09
-6.95966e-09
3.82368e-09
-3.8053e-09
-1.83818e-11
-3.13641e-09
3.21139e-09
-3.1681e-09
-6.2285e-09
6.21024e-09
-1.07735e-11
2.90325e-11
2.49706e-09
4.94635e-09
-3.93858e-09
-3.50482e-09
-5.18917e-09
6.13567e-11
-1.18464e-10
5.24627e-09
-5.56472e-09
-2.7449e-09
-2.80782e-10
8.5904e-09
5.28191e-09
-8.29597e-10
-4.45232e-09
1.30359e-10
-4.0247e-09
-5.5458e-09
3.90714e-10
2.3545e-09
-4.11858e-09
-1.16471e-09
2.9288e-09
-8.9106e-09
-1.63339e-09
1.07429e-09
-6.56866e-09
-2.89702e-09
8.3914e-09
2.78296e-09
-5.66927e-10
-2.10475e-09
-1.1129e-10
6.96768e-09
-1.55338e-09
2.08923e-09
-7.50353e-09
2.78298e-10
-6.41434e-09
-9.11724e-09
6.75654e-09
3.91541e-09
-1.5547e-09
-9.79673e-10
2.78094e-10
9.5172e-10
-2.46578e-09
-7.13344e-09
2.26799e-09
3.2918e-09
-3.21929e-09
2.51388e-10
-3.23898e-10
-6.19203e-09
6.17575e-09
-1.7411e-11
3.36964e-11
-6.49896e-09
-3.40047e-09
3.0381e-09
9.4776e-10
5.07777e-09
-2.31046e-09
-3.74277e-10
3.58112e-09
-3.61454e-09
-4.53917e-10
-1.83335e-09
-9.9403e-10
-6.77056e-11
1.2453e-09
-1.83567e-10
5.88984e-09
-2.60428e-11
9.47736e-12
-5.87327e-09
2.26554e-09
-5.28332e-09
8.85132e-09
-5.83355e-09
-6.8578e-09
6.89779e-09
-6.03617e-11
-1.25091e-09
3.20846e-09
-1.89359e-09
5.36683e-09
-3.24445e-10
-1.15609e-09
1.1399e-09
3.40628e-10
-9.37319e-09
7.03208e-09
7.68734e-10
3.9205e-09
-2.56594e-09
-4.64511e-09
5.79702e-10
-4.9524e-10
2.43253e-10
-3.27714e-10
-2.1425e-09
-6.53576e-09
6.84781e-09
-7.58638e-09
6.5544e-09
2.85317e-11
2.36427e-10
-6.81936e-09
6.13679e-09
-6.15559e-09
-1.73149e-11
3.61127e-11
5.00888e-09
-1.06597e-10
1.65269e-10
-5.06755e-09
-8.65393e-11
-3.22879e-09
2.90896e-09
1.81232e-10
-3.98917e-10
-2.69128e-09
1.03531e-09
1.40156e-09
3.46094e-10
9.10519e-11
-1.72172e-10
-5.06526e-09
7.44558e-09
-4.8491e-09
-3.84496e-09
4.60378e-09
-4.04845e-09
2.82708e-09
-6.18979e-09
-6.931e-11
6.21928e-09
-6.63267e-09
6.6499e-09
-4.80013e-11
-2.30673e-10
-8.59282e-10
9.59244e-11
-5.82001e-09
1.71969e-11
-4.61059e-11
5.84892e-09
3.96851e-09
-3.99955e-09
-4.02007e-09
3.37799e-09
2.99658e-09
3.4238e-11
6.53849e-10
-4.13694e-11
8.92389e-09
-9.14224e-09
1.08686e-09
-8.68511e-10
-3.36849e-09
3.30272e-09
-2.80585e-09
2.11425e-09
1.68197e-09
-9.90366e-10
2.63431e-09
-3.35038e-09
1.69929e-09
-2.04482e-09
7.54427e-09
-7.79605e-09
-1.62104e-09
1.87282e-09
-1.08383e-08
-1.75873e-09
8.0301e-09
-2.94669e-09
-7.49937e-10
5.02456e-09
-1.32793e-09
5.70461e-09
-1.26565e-09
-1.89455e-09
-3.77944e-09
3.73059e-09
1.9434e-09
-4.80006e-09
-4.07625e-10
-2.23521e-10
1.9124e-10
-5.7963e-09
6.39168e-09
-4.96254e-11
-6.87997e-09
6.9445e-09
3.49091e-09
-3.59519e-09
3.7767e-09
3.77995e-09
-2.86204e-09
3.21185e-09
-4.38137e-09
2.08772e-09
-3.53211e-10
-1.4513e-09
1.03168e-09
-1.63099e-09
1.63461e-09
-2.20106e-09
2.04438e-09
-2.35474e-09
3.35692e-09
-3.29101e-09
1.63676e-09
-1.70267e-09
1.54681e-09
-2.1559e-09
-3.64189e-09
4.25098e-09
-6.37824e-09
-9.47357e-13
7.20466e-11
5.35767e-09
-3.54224e-09
-1.8253e-09
9.86931e-12
5.41278e-09
-1.30439e-10
7.49558e-11
-4.98261e-10
4.33091e-09
-3.83264e-09
3.3141e-09
-4.83279e-09
2.46968e-09
-5.7793e-09
5.80033e-09
2.71956e-11
-4.82279e-11
-9.20189e-10
-4.4524e-09
5.7253e-10
8.19102e-09
2.29656e-09
-2.06834e-09
-4.75615e-10
9.8742e-12
1.69776e-10
-8.81017e-12
-1.7084e-10
-2.59418e-10
1.49048e-09
-1.86217e-09
6.31105e-10
-2.1508e-09
1.66297e-09
3.24957e-09
7.02291e-09
-1.741e-09
-1.30237e-09
1.36914e-09
-6.67661e-11
3.0345e-09
-3.08893e-09
-2.52659e-09
-6.71813e-10
-2.54084e-09
1.55271e-09
1.65994e-09
-2.15829e-11
3.55619e-11
-5.82487e-09
5.81089e-09
-2.1301e-11
-3.85882e-09
3.88012e-09
3.00488e-11
1.4611e-10
2.71517e-09
1.22513e-09
-2.73384e-09
-1.20647e-09
2.06472e-09
-2.07728e-09
-4.60474e-09
2.51473e-09
-4.84417e-10
2.57443e-09
-1.99742e-11
1.81217e-11
5.26002e-10
-4.03136e-11
1.81087e-09
1.76426e-09
-8.23436e-10
-3.904e-09
2.96318e-09
-6.96469e-09
6.91098e-09
-2.63062e-09
-2.02502e-10
2.96447e-09
-3.60946e-09
6.23132e-09
-5.58634e-09
-3.40581e-09
-4.13364e-10
4.35292e-09
-5.33743e-10
-2.016e-09
-3.23662e-09
3.33013e-09
-2.29273e-09
2.76705e-09
-2.54247e-09
4.51519e-10
-5.80408e-11
4.12021e-09
-2.47456e-09
2.07209e-09
-3.71775e-09
4.56828e-09
-3.05052e-09
8.17774e-10
5.41654e-09
-2.49097e-09
-5.6117e-09
-3.76641e-09
4.99824e-09
6.18391e-11
-1.29367e-09
-6.18827e-09
2.41829e-11
6.19552e-09
-3.14264e-11
3.42907e-10
-3.06524e-10
1.88795e-10
-2.25178e-10
4.42514e-09
-4.43567e-09
-2.98871e-10
1.174e-09
-1.19958e-09
-3.85609e-09
3.83451e-09
-2.12953e-09
-4.79496e-09
1.78526e-09
-2.50687e-10
-7.70383e-10
-8.09617e-09
-6.42064e-09
6.69618e-09
2.75091e-12
2.79676e-09
7.50241e-09
7.01259e-10
6.14287e-09
-3.21074e-09
3.00111e-09
-5.93323e-09
-7.35822e-09
6.92119e-09
3.37628e-09
-2.93926e-09
2.5986e-11
6.88254e-10
1.84256e-10
3.45224e-09
-3.6365e-09
1.72245e-11
-2.71132e-11
-2.69827e-11
3.7881e-09
-3.76112e-09
-8.81686e-10
-4.18121e-09
7.20343e-10
-3.51135e-09
-2.67784e-09
4.2831e-09
-2.66329e-09
2.79623e-09
6.10403e-09
-6.23698e-09
2.94059e-09
9.24564e-10
-2.17504e-09
4.81537e-09
-4.01132e-09
4.3013e-09
1.72034e-09
-1.61715e-09
9.55533e-10
-6.25601e-10
-3.13579e-09
-2.21121e-10
5.58511e-09
-8.86916e-09
-8.84001e-10
8.49675e-09
-4.94624e-09
1.09536e-09
-1.34175e-09
1.30425e-09
-2.85956e-09
2.52202e-09