/*--------------------------------*- C++ -*----------------------------------*\
  =========                 |
  \\      /  F ield         | OpenFOAM: The Open Source CFD Toolbox
   \\    /   O peration     | Website:  https://openfoam.org
    \\  /    A nd           | Version:  8
     \\/     M anipulation  |
\*---------------------------------------------------------------------------*/
FoamFile
{
    version     2.0;
    format      ascii;
    class       surfaceScalarField;
    location    "6";
    object      phi;
}
// * * * * * * * * * * * * * * * * * * * * * * * * * * * * * * * * * * * * * //

dimensions      [0 3 -1 0 0 0 0];

internalField   nonuniform List<scalar> 
5897
(
4.51152e-10
-1.64397e-10
8.32064e-10
-1.11882e-09
-1.12395e-08
1.2551e-08
-1.23e-08
1.09885e-08
9.5334e-09
-9.43764e-09
1.13416e-10
-2.09183e-10
1.63317e-10
-1.28507e-09
1.17266e-09
-5.09057e-11
1.23863e-08
-1.06137e-08
-4.92301e-11
-1.72334e-09
-7.71538e-09
-2.64383e-09
6.41614e-09
3.94307e-09
-4.83196e-09
4.10646e-10
-6.41873e-10
5.06319e-09
1.32333e-08
6.98144e-09
2.18374e-10
-2.04331e-08
-8.74844e-09
1.89755e-09
-7.00186e-10
7.55108e-09
2.81279e-09
9.34472e-09
-9.88582e-09
-2.27169e-09
-1.39437e-11
6.65164e-10
-7.42995e-10
9.1775e-11
-1.43236e-09
8.99192e-09
1.79713e-09
1.76383e-08
8.51871e-10
-1.51162e-08
-3.37401e-09
1.36403e-08
7.7181e-10
-2.02578e-09
1.60311e-09
1.79911e-10
-3.55243e-10
-1.42777e-09
-1.93613e-08
1.51224e-08
1.17245e-08
-7.48564e-09
4.3066e-09
5.09233e-09
-5.73285e-09
-3.66607e-09
-1.15216e-10
5.43686e-10
1.27069e-10
-5.55539e-10
6.71824e-11
-3.88457e-10
-9.98346e-11
4.21109e-10
9.96158e-09
-2.64451e-09
-1.00508e-08
2.7337e-09
-1.64937e-08
1.97934e-08
-5.79638e-09
2.4967e-09
4.93374e-09
-9.33337e-09
-3.31574e-09
1.10109e-08
-4.48237e-09
-8.06201e-09
1.53347e-09
1.96814e-10
1.79576e-10
-1.80457e-08
1.76694e-08
6.91701e-09
-2.80026e-09
-9.91279e-09
5.79604e-09
-9.43924e-09
-7.0824e-09
5.64265e-09
1.0879e-08
-5.91405e-10
2.4618e-09
1.14724e-09
-3.01764e-09
-1.45765e-08
1.96943e-08
-9.80302e-09
4.68526e-09
2.73604e-10
-1.19984e-10
-2.1518e-10
6.15599e-11
-1.56734e-08
3.21785e-09
-6.90572e-09
-9.09659e-09
1.74998e-08
2.86232e-09
-1.12655e-08
-9.05578e-09
1.17808e-08
-1.44025e-08
1.16775e-08
-1.16192e-08
6.15171e-10
1.24081e-09
9.76319e-09
1.27717e-08
8.93014e-09
-4.71699e-10
-2.12302e-08
-9.25006e-09
-1.3612e-08
6.1148e-09
1.67473e-08
-8.69573e-09
3.81083e-10
8.31464e-09
4.07945e-09
-5.48392e-09
-3.24284e-09
4.64731e-09
1.73383e-08
-1.59108e-08
-7.32528e-09
5.89779e-09
5.82309e-09
-6.07544e-09
8.43049e-10
-5.90699e-10
9.32443e-09
-1.23759e-08
-8.90522e-09
1.19566e-08
-1.14545e-09
9.65961e-10
2.06897e-09
-1.88948e-09
3.98528e-10
-5.63656e-09
-1.98551e-10
5.43658e-09
2.7333e-09
-3.77054e-09
1.03939e-08
-2.30294e-09
3.60822e-09
-3.85593e-09
2.55064e-09
-1.4943e-08
1.63889e-08
-2.88213e-09
1.43619e-09
1.64382e-10
-1.85496e-09
-3.27322e-10
2.0179e-09
8.30615e-09
1.15204e-09
-1.7284e-09
-7.72979e-09
4.77574e-11
4.699e-11
-9.47474e-11
-1.53722e-10
7.47658e-11
3.78372e-10
-2.99416e-10
-1.25732e-09
3.30492e-09
-1.88075e-08
1.67599e-08
-6.31035e-09
4.4901e-09
-4.82695e-10
-6.78421e-09
-2.18895e-08
5.41148e-09
2.32622e-08
1.7806e-09
-3.95553e-09
9.63498e-09
-7.46005e-09
6.75877e-09
-7.50294e-09
-1.89966e-09
-2.54671e-09
1.24399e-09
1.49956e-10
8.1472e-09
-8.29715e-09
5.99954e-10
7.33806e-09
-7.93801e-09
-9.82728e-09
2.31963e-11
9.80408e-09
4.2361e-10
-1.43651e-08
-2.15424e-11
1.39631e-08
8.33596e-09
-5.94141e-09
4.1825e-10
-1.04048e-08
9.26117e-12
1.03955e-08
-1.01622e-08
9.5974e-12
1.01526e-08
-9.83914e-09
5.72136e-12
9.83342e-09
1.11845e-08
-6.94753e-09
-4.23698e-09
-3.93222e-11
-1.70943e-08
1.71438e-08
-1.01613e-11
-3.87339e-11
-1.66089e-08
1.6657e-08
-9.37329e-12
-1.4524e-10
3.00394e-10
-1.28422e-09
1.12907e-09
6.15476e-10
6.05579e-09
-1.27602e-10
-6.54367e-09
-3.72521e-11
1.63789e-08
9.14652e-12
-1.63508e-08
-9.81706e-09
-6.30533e-13
9.81769e-09
4.84104e-10
-1.68418e-09
1.46007e-09
-2.5999e-10
-4.70274e-11
1.63898e-08
2.37635e-12
-1.63452e-08
1.59696e-08
-1.51679e-08
-1.37759e-09
5.75863e-10
-9.78493e-09
-2.54318e-12
9.78748e-09
1.5806e-09
-2.97518e-09
3.50561e-09
-2.11102e-09
2.67734e-10
1.64879e-08
-7.86027e-10
-1.52908e-09
4.58081e-10
2.6516e-09
-2.98656e-11
1.63726e-08
-1.42547e-11
-1.63284e-08
2.09404e-09
5.14861e-09
-4.25705e-09
-2.9856e-09
2.56269e-09
-2.33409e-09
1.92403e-09
-2.15263e-09
1.67359e-08
3.02258e-09
-3.36957e-09
6.13521e-10
-1.62338e-09
1.49396e-09
-9.75187e-09
-3.57212e-12
9.75544e-09
1.95032e-10
-1.63609e-08
1.62077e-08
-4.18039e-11
-3.48681e-09
-8.68417e-09
3.23135e-09
8.93964e-09
-2.08808e-11
1.63443e-08
-2.37806e-11
-1.62997e-08
-7.78279e-09
5.41288e-09
-4.23529e-09
6.6052e-09
-1.74372e-11
1.70115e-08
-2.86389e-11
-1.69654e-08
-1.70011e-11
1.65285e-08
-2.77538e-11
-1.64837e-08
-2.6695e-09
-1.00034e-08
4.89009e-09
-1.75494e-11
1.63168e-08
-2.396e-11
-1.62753e-08
-9.71539e-09
-4.39186e-12
9.71979e-09
-1.64224e-08
-8.66439e-10
5.54458e-10
1.67343e-08
-1.02782e-08
-3.52719e-12
1.02818e-08
-1.00401e-08
-3.28776e-12
1.00433e-08
1.38492e-09
-1.72983e-11
1.62773e-08
-2.74748e-11
-1.62325e-08
-2.02829e-11
1.69686e-08
-2.19836e-11
-1.69264e-08
-1.97623e-11
1.64869e-08
-2.14365e-11
-1.64457e-08
2.94949e-09
3.67979e-09
-4.53523e-09
5.13648e-09
4.1083e-09
-6.29529e-09
-9.95674e-12
1.72216e-08
-6.68412e-11
-1.71448e-08
-1.19678e-11
1.67319e-08
-6.20189e-11
-1.66579e-08
-3.61239e-09
1.68856e-09
-1.45699e-08
1.9339e-09
7.85328e-09
-2.65097e-09
-7.13621e-09
-1.2873e-08
3.71293e-09
-6.51336e-09
1.2022e-10
3.60324e-10
-4.21475e-10
-5.90683e-11
-9.90282e-12
-1.61912e-08
1.62351e-08
-3.39696e-11
-1.02398e-08
-1.0151e-12
1.02409e-08
-1.00028e-08
-9.52645e-13
1.00037e-08
-1.67935e-11
-1.68928e-08
1.6941e-08
-3.13744e-11
-1.65266e-11
-1.64124e-08
1.64596e-08
-3.06905e-11
8.8725e-11
-5.58143e-09
-3.045e-10
5.79721e-09
-2.82128e-11
1.71259e-08
-1.70744e-08
-2.33593e-11
-2.75256e-11
1.66396e-08
-1.65896e-08
-2.25713e-11
7.51207e-09
1.18623e-08
-1.9477e-08
1.02686e-10
-8.6669e-09
-5.92461e-09
1.11047e-08
3.11619e-10
1.79414e-08
-1.73833e-08
-8.6974e-10
2.93681e-10
1.74281e-08
-1.68888e-08
-8.33016e-10
-1.02093e-08
2.04014e-13
1.02091e-08
-9.97314e-09
2.63376e-13
9.97288e-09
9.20108e-09
7.59305e-10
-6.15666e-10
6.12489e-09
-7.73054e-09
7.34787e-09
-5.74223e-09
-2.16739e-11
1.7099e-08
-1.70493e-08
-2.80246e-11
-2.10297e-11
1.66138e-08
-1.65655e-08
-2.73266e-11
3.68474e-09
-3.45563e-09
-5.00922e-10
2.71819e-10
4.96179e-10
2.20698e-09
-2.1543e-09
-5.48857e-10
-8.81574e-12
1.6879e-08
-2.2422e-11
-1.68477e-08
-9.50576e-12
1.63957e-08
-2.32391e-11
-1.6363e-08
-1.42139e-08
-4.50189e-09
1.58336e-08
-2.52541e-11
1.70745e-08
-1.70271e-08
-2.21528e-11
-2.44955e-11
1.65901e-08
-1.65439e-08
-2.17234e-11
4.43097e-09
3.86751e-09
-3.162e-09
-1.9858e-11
1.7052e-08
-1.70214e-08
-1.08168e-11
-1.93739e-11
1.65681e-08
-1.65382e-08
-1.05566e-11
-6.312e-10
-4.79689e-10
3.24692e-10
7.86196e-10
-5.25377e-09
4.11755e-09
5.11654e-09
-3.98031e-09
1.00379e-09
-3.99335e-10
-5.85215e-10
-1.92378e-11
-1.48913e-11
1.68638e-08
6.21047e-12
-1.68552e-08
-1.68034e-11
1.6367e-08
-5.90903e-12
-1.63443e-08
-8.79081e-12
1.61147e-08
-2.1286e-11
-1.60846e-08
-9.56968e-09
-7.05877e-12
9.57673e-09
3.47457e-09
2.40624e-09
-3.27146e-09
-2.60935e-09
-2.16059e-11
1.70471e-08
-1.47259e-11
-1.70108e-08
-2.09819e-11
1.65631e-08
-1.43348e-11
-1.65278e-08
-1.02218e-08
-1.29191e-08
1.19014e-08
2.71399e-10
-3.033e-09
-1.60292e-11
2.77763e-09
-1.01259e-08
-1.13933e-11
1.01373e-08
-9.8935e-09
-1.04631e-11
9.90396e-09
-1.04441e-08
-1.0201e-08
8.59922e-10
1.92687e-09
-2.29061e-09
9.12584e-09
-8.57159e-09
-1.24641e-09
6.92165e-10
-4.4988e-09
-4.13127e-09
4.92661e-09
3.70346e-09
2.56983e-09
4.84247e-10
-2.78268e-09
-3.81577e-11
-1.69468e-08
1.69376e-08
4.73245e-11
-1.79772e-11
-1.63317e-08
1.63588e-08
-9.1587e-12
6.88397e-10
-1.37541e-09
-1.44809e-08
-9.8743e-09
-2.02071e-09
1.95288e-09
-8.00917e-12
1.60951e-08
-1.34476e-11
-1.60737e-08
-1.01469e-08
1.01458e-08
1.08174e-12
-9.87977e-09
9.86298e-09
1.67947e-11
-1.32336e-08
-3.527e-09
-9.80439e-09
9.76714e-09
-9.53076e-09
-1.21832e-11
9.54294e-09
-9.85704e-10
8.09964e-10
4.64405e-10
-2.88666e-10
-4.07202e-09
-6.26317e-09
3.48293e-09
6.85226e-09
-9.869e-09
-1.00935e-08
-1.94444e-12
1.00954e-08
-9.86865e-09
1.02038e-12
9.86763e-09
8.57229e-09
1.54604e-09
-1.81219e-09
1.60626e-08
-1.58538e-08
1.61283e-10
-3.70124e-10
-1.11952e-11
1.60899e-08
8.78551e-12
-1.60875e-08
-2.05155e-08
1.16891e-08
-9.83794e-09
-9.78248e-09
9.85586e-09
-7.33797e-11
-9.58383e-09
1.00223e-08
-4.38447e-10
7.29639e-10
1.73152e-09
-1.60124e-09
-1.77529e-08
4.9568e-09
-1.32838e-08
-1.72155e-08
4.6838e-09
-1.27931e-08
-1.65736e-08
4.51666e-09
-1.26333e-08
-6.53088e-12
1.62025e-08
-1.61632e-08
-3.27687e-11
-9.50757e-09
-2.21123e-12
9.50978e-09
1.04067e-08
-1.0139e-08
1.04593e-08
1.09966e-09
-2.43317e-09
-3.24935e-11
1.61793e-08
6.10546e-11
-1.62078e-08
-9.80248e-09
-1.00963e-08
1.36614e-11
1.00826e-08
-9.86418e-09
6.45553e-12
9.85772e-09
-3.04618e-11
1.81575e-09
-1.17177e-09
-1.05312e-11
1.61795e-08
-1.61479e-08
-2.11067e-11
-3.71937e-09
6.1742e-09
3.03795e-09
-5.49278e-09
1.60516e-08
-1.66333e-08
4.88489e-10
9.31853e-11
3.7124e-10
-1.70245e-10
-4.19321e-10
2.18327e-10
-9.84927e-12
1.69178e-08
-3.04583e-11
-1.68775e-08
-9.64399e-12
1.64362e-08
-3.02319e-11
-1.63963e-08
3.92712e-09
-5.65921e-10
3.23533e-10
-1.65896e-11
-1.01303e-08
1.96482e-11
-9.89942e-09
-1.04396e-08
1.04297e-08
-1.0194e-08
1.0182e-08
-9.76917e-09
-8.6554e-09
9.21674e-09
-5.61336e-10
-3.45852e-12
1.61596e-08
-1.61308e-08
-2.53164e-11
-1.95853e-11
-1.69561e-08
1.6959e-08
-2.80441e-11
-1.63332e-08
1.63809e-08
-9.52745e-09
1.10255e-11
9.51642e-09
1.58701e-11
1.6199e-08
-1.5223e-10
-2.77491e-11
6.778e-11
1.07326e-10
-1.47357e-10
-1.02957e-08
-1.00571e-08
-2.32433e-09
3.98632e-09
8.29959e-09
6.24746e-10
1.47448e-09
-1.36958e-09
1.21627e-08
-1.30601e-08
2.77556e-09
-2.43418e-09
-7.61832e-09
7.27694e-09
-6.02425e-12
1.61417e-08
-2.35924e-11
-1.61121e-08
-1.75871e-10
-9.60661e-09
-9.29251e-09
-2.91314e-10
-9.7253e-09
1.03917e-08
-1.04199e-08
1.01503e-08
-1.01779e-08
-3.42006e-10
-1.59684e-08
1.61345e-08
-1.02601e-08
-1.00225e-08
-4.26691e-09
-8.71446e-09
8.02698e-09
4.95439e-09
-1.92434e-09
4.98946e-09
7.94578e-09
2.46595e-09
5.77415e-09
-5.80944e-09
-2.43066e-09
-1.03901e-08
1.03684e-08
-1.01489e-08
1.01278e-08
1.67353e-08
-1.67281e-08
-2.29536e-10
2.22348e-10
-3.66184e-09
7.6248e-09
-6.52831e-09
2.56535e-09
-6.99024e-10
-7.95638e-09
-9.60928e-09
3.20759e-11
9.57721e-09
4.1567e-09
-4.71998e-09
-8.10362e-09
-4.9137e-10
1.5844e-08
-1.65849e-08
1.6443e-08
-2.12699e-10
3.54539e-10
1.03395e-08
-1.03648e-08
1.00995e-08
-1.0124e-08
-1.68667e-10
1.49513e-10
1.2181e-09
-1.19894e-09
-1.02261e-08
-9.98967e-09
2.45769e-10
-7.52297e-09
6.68424e-09
5.92959e-10
-1.00061e-10
1.73438e-08
1.2691e-10
-1.73706e-08
1.51131e-08
-1.1828e-08
-2.04794e-08
1.71942e-08
1.61898e-08
-1.17244e-08
-2.28886e-08
1.84231e-08
1.56423e-08
-1.13461e-08
-2.22229e-08
1.79267e-08
-1.63176e-08
-1.01695e-10
2.20164e-10
1.61991e-08
5.36315e-09
-7.30412e-09
-1.55531e-09
3.49628e-09
1.03219e-08
-1.03417e-08
1.00823e-08
-1.01017e-08
-1.51756e-08
1.56012e-08
-2.30604e-10
1.67299e-08
9.87562e-11
-1.01991e-10
-1.67266e-08
1.08642e-08
-1.05526e-08
1.05905e-08
-1.02968e-08
-9.42698e-09
1.15314e-08
-1.2917e-08
1.08126e-08
1.67402e-08
3.58989e-11
-4.62639e-11
-1.03251e-08
1.03035e-08
-1.00854e-08
1.00644e-08
3.98762e-10
-2.48364e-10
1.65675e-10
-9.88957e-11
-3.24492e-10
2.57713e-10
-3.06504e-11
1.69922e-08
1.33081e-11
-1.69749e-08
-1.58648e-11
1.6356e-08
9.43109e-13
-1.63411e-08
-1.61151e-08
1.61553e-08
8.88534e-13
-4.10907e-11
-1.67462e-08
1.67606e-08
-1.89541e-11
4.48971e-12
-7.89024e-12
2.41625e-11
-1.61313e-08
-1.26065e-11
6.67007e-12
2.538e-10
3.09718e-10
-1.92279e-10
-1.6155e-08
1.61673e-08
-5.94402e-12
-6.2724e-12
-1.67248e-08
1.6702e-08
-1.8168e-11
4.09601e-11
-6.87507e-09
7.13406e-09
2.51657e-09
-1.01348e-08
-9.903e-09
-9.57847e-09
8.24553e-11
-1.73687e-08
-7.94283e-11
1.73657e-08
-2.32389e-09
8.06967e-09
-1.00127e-08
-1.61494e-08
1.61583e-08
-1.51343e-11
6.26993e-12
-1.66544e-08
1.66474e-08
-1.85155e-11
2.55305e-11
1.42056e-09
-1.2242e-09
-3.65033e-10
-1.614e-08
1.61498e-08
-1.20574e-11
2.23639e-12
-1.66185e-08
1.66201e-08
-1.53643e-11
1.37852e-11
2.9717e-10
-1.71718e-10
1.61365e-08
-1.61357e-08
-1.69432e-11
1.61156e-11
1.66022e-08
-1.66027e-08
-1.86603e-11
1.9079e-11
2.05848e-08
-7.95549e-09
1.42433e-10
-2.246e-11
2.26786e-11
4.08767e-11
-5.0433e-12
1.56888e-08
3.2313e-11
-1.56387e-08
-9.68659e-09
9.68006e-09
-1.60937e-08
1.61039e-08
-2.95562e-11
1.93735e-11
-1.65579e-08
1.65685e-08
-3.04746e-11
1.99081e-11
1.57689e-08
3.80874e-11
-1.18174e-10
-1.01083e-08
-9.88546e-09
-9.53877e-09
-1.60764e-08
1.60858e-08
-2.28473e-11
1.34029e-11
-1.65404e-08
1.65504e-08
-2.33916e-11
1.34337e-11
2.31828e-08
-1.75224e-10
-2.12825e-09
-2.08793e-08
-1.12832e-08
2.16592e-08
-1.70113e-08
6.63522e-09
-1.32988e-08
2.22517e-08
-1.60013e-08
7.04845e-09
-1.29555e-08
2.15517e-08
-1.55729e-08
6.97669e-09
1.58063e-08
3.26493e-11
-7.00767e-11
-1.58144e-08
1.58237e-08
-1.03565e-11
1.05161e-12
-1.60516e-08
1.60647e-08
-2.37018e-11
1.0572e-11
-1.65158e-08
1.65293e-08
-2.41255e-11
1.05748e-11
9.65013e-09
-9.66066e-09
-1.60325e-08
1.60464e-08
-2.39956e-11
1.00439e-11
-1.64963e-08
1.65105e-08
-2.43126e-11
1.01692e-11
6.26848e-12
1.15937e-11
4.17105e-11
5.86376e-12
1.58057e-08
-1.58013e-08
7.5616e-12
-1.20425e-11
-2.10501e-09
-7.65523e-09
7.32605e-09
-1.60164e-08
1.60263e-08
-3.29174e-11
2.29795e-11
-1.64796e-08
1.64894e-08
-3.34641e-11
2.36736e-11
3.46913e-10
-1.60039e-08
1.57785e-08
-1.57765e-08
1.41343e-11
-1.61387e-11
-4.563e-09
3.8764e-09
2.048e-08
2.02616e-11
-2.83358e-11
-1.59559e-08
1.59976e-08
-4.12386e-11
-5.13213e-13
-1.64166e-08
1.64596e-08
-4.22322e-11
-7.46341e-13
1.58159e-08
5.24277e-13
7.25385e-12
-1.01345e-08
-9.88216e-09
-3.368e-09
-2.34373e-10
1.46744e-10
-9.51876e-09
9.62633e-09
-9.62979e-09
-1.57419e-08
1.57535e-08
1.45859e-11
-2.61521e-11
-1.59421e-08
1.59835e-08
-2.645e-11
-1.50135e-11
-1.64033e-08
1.64461e-08
-2.71377e-11
-1.56801e-11
1.61239e-08
-9.08721e-12
2.16578e-11
1.65887e-08
-9.80205e-12
2.33835e-11
1.06275e-11
7.65444e-12
1.67381e-11
1.21354e-11
-1.59389e-08
1.59603e-08
-2.42955e-11
2.90053e-12
-1.64008e-08
1.64226e-08
-2.45333e-11
2.73352e-12
-1.57047e-08
1.57245e-08
-1.67644e-12
-1.80779e-11
-1.59138e-08
1.5938e-08
-3.5341e-11
1.11869e-11
-1.63746e-08
1.63986e-08
-3.60836e-11
1.20782e-11
-1.56952e-08
1.57072e-08
1.55464e-11
-2.75641e-11
-9.60276e-09
9.59673e-09
1.57961e-08
-6.67288e-12
1.63248e-11
1.01731e-08
-1.01829e-08
9.93823e-09
-9.94788e-09
-1.58687e-08
1.59145e-08
-3.11408e-11
-1.47371e-11
-1.63268e-08
1.63741e-08
-3.23456e-11
-1.49492e-11
-1.64633e-09
1.536e-09
8.30949e-09
-8.19916e-09
-1.5647e-08
1.56679e-08
1.00002e-11
-3.09174e-11
-9.55994e-09
-1.58671e-08
1.58965e-08
-2.29456e-11
-6.48688e-12
-1.63259e-08
1.63559e-08
-2.31682e-11
-6.83969e-12
-2.39573e-09
1.1616e-09
-1.3131e-08
9.74188e-12
4.39793e-12
1.57361e-11
1.71846e-12
-4.61733e-12
1.92842e-11
-5.77312e-10
5.95396e-10
-1.56063e-08
1.56312e-08
7.81089e-13
-2.57455e-11
-3.63951e-09
-2.20424e-09
2.86858e-09
-1.62112e-08
1.60297e-08
1.44244e-10
3.7285e-11
-1.57567e-08
1.55811e-08
1.43346e-10
3.21825e-11
-1.47597e-08
-7.102e-09
7.39715e-09
1.44646e-08
1.68232e-09
-7.9176e-09
-6.23655e-10
6.85894e-09
1.57691e-08
-1.15948e-11
2.10008e-11
-1.55709e-08
1.56089e-08
-1.23272e-11
-2.56899e-11
-1.5547e-08
1.55821e-08
-5.27345e-12
-2.98376e-11
-9.59341e-09
-1.55162e-08
1.55638e-08
-2.14362e-11
-2.61575e-11
-1.51195e-09
-5.83608e-09
1.3579e-09
5.99013e-09
-1.55028e-08
1.5561e-08
-5.152e-11
-6.6553e-12
3.55289e-11
-5.339e-12
3.73696e-11
-6.65323e-12
-7.60159e-09
7.1789e-09
-5.89202e-12
2.55092e-11
8.71537e-09
-1.0651e-08
1.44867e-08
-1.79945e-08
-6.33534e-09
1.52741e-08
-1.57247e-08
3.03142e-11
-1.03835e-11
5.72593e-09
2.7085e-09
-5.94476e-09
-2.48966e-09
1.22866e-08
7.24953e-09
-5.17134e-09
-1.43648e-08
2.98582e-11
-2.33848e-12
3.08677e-11
-2.75654e-12
-1.04134e-09
-8.09546e-09
5.65206e-10
5.13601e-09
-1.39758e-08
1.63921e-08
-7.55236e-09
1.48209e-10
-1.73481e-10
-1.82478e-10
2.0775e-10
1.9148e-10
-9.05929e-10
8.32485e-11
-1.59837e-08
3.95746e-11
-1.17548e-11
-1.64454e-08
4.08728e-11
-1.21366e-11
-7.35409e-12
3.45108e-11
-1.45766e-10
1.02276e-10
-1.56686e-08
3.58151e-11
-1.42946e-11
2.83667e-11
5.90098e-12
2.90725e-11
5.52222e-12
4.44115e-10
-3.18115e-10
-2.79721e-10
-1.01599e-08
1.01292e-08
-9.86921e-09
9.85335e-09
1.02853e-09
-1.73062e-08
-3.55648e-10
-1.59545e-08
1.38886e-11
-1.50471e-12
-1.64156e-08
1.40116e-11
-1.68861e-12
4.10827e-10
-4.4043e-09
-8.38489e-10
-3.82628e-12
3.26272e-11
-1.76309e-08
5.98217e-11
1.7618e-08
-4.69092e-11
6.93992e-10
4.86701e-09
-1.47715e-08
9.21046e-09
1.2019e-09
-1.59472e-09
-5.05804e-09
5.45087e-09
-1.56289e-08
3.51543e-11
-1.2476e-11
-1.73588e-08
-5.17546e-11
4.1787e-11
3.75956e-10
-4.25982e-10
2.56126e-11
6.61897e-12
2.60765e-11
6.89022e-12
-1.47993e-08
-6.63117e-10
1.86802e-08
-1.55941e-08
3.34863e-11
-1.03156e-11
3.35335e-12
2.59851e-11
2.98463e-11
2.18671e-13
3.08514e-11
-9.39426e-15
7.78353e-09
-1.88074e-09
4.36925e-10
2.58689e-09
1.7561e-08
-1.58827e-08
2.26784e-11
-8.6181e-12
-1.63414e-08
2.34727e-11
-8.86964e-12
1.31569e-08
-1.39489e-08
-3.75755e-09
4.54954e-09
-1.55695e-08
3.55671e-11
-1.29837e-11
1.15883e-12
3.74622e-11
4.94574e-11
-6.86175e-12
5.11287e-11
-7.06572e-12
3.28619e-10
3.41715e-10
-4.16533e-10
7.43428e-09
-1.10211e-09
-1.11726e-09
-5.2149e-09
-1.55401e-08
2.91029e-11
-5.1876e-12
-5.54768e-09
3.98454e-09
-5.39378e-09
3.82059e-09
-5.14232e-09
3.68191e-09
3.16496e-10
-2.00005e-10
1.05329e-09
-1.16978e-09
-1.46217e-09
5.36204e-10
1.83541e-08
-1.52535e-09
5.69389e-10
1.88974e-08
-4.43512e-10
-1.0698e-09
2.76734e-10
1.23658e-09
3.03496e-12
3.59814e-11
2.68068e-11
1.63599e-11
2.75764e-11
1.64472e-11
-1.58207e-08
2.65767e-11
3.74737e-11
-1.62775e-08
2.85871e-11
3.7729e-11
1.78741e-09
-1.76409e-09
-7.42892e-10
7.19573e-10
-1.19454e-08
8.24867e-09
1.03113e-08
-9.37597e-09
-9.35308e-10
-8.18466e-09
7.67293e-09
-1.42719e-09
6.99551e-10
1.13445e-08
-1.06168e-08
-2.71757e-10
1.14845e-10
-2.84656e-10
1.22948e-10
-4.0113e-11
-8.36727e-09
4.14651e-10
7.99273e-09
-1.55278e-08
2.077e-11
4.22261e-12
-2.07775e-11
5.23845e-11
-1.98347e-11
5.0603e-11
1.3656e-08
-2.197e-08
3.8732e-09
4.44081e-09
1.32738e-08
-2.13424e-08
3.78609e-09
4.28245e-09
1.16742e-08
-1.61879e-08
1.35705e-10
4.378e-09
-8.85379e-10
2.60464e-10
1.12985e-09
-5.04935e-10
-2.68334e-11
5.1487e-11
-2.57592e-11
5.00287e-11
-2.5365e-11
5.05579e-11
-2.47015e-11
4.93521e-11
-1.79694e-11
4.29057e-11
-1.75459e-11
4.17405e-11
-1.25472e-11
3.8273e-11
-1.22818e-11
3.72145e-11
7.68863e-12
2.94355e-11
2.62083e-11
1.84609e-11
2.67732e-11
1.85392e-11
1.64855e-08
-1.11837e-08
7.10973e-09
-1.24116e-08
1.60054e-08
-1.08714e-08
6.932e-09
-1.2066e-08
-1.1437e-08
-1.13672e-08
-1.10278e-08
-3.31398e-09
-2.2616e-08
2.73963e-08
-1.46635e-09
5.3024e-11
-2.80371e-11
5.14353e-11
-2.7641e-11
-1.81195e-08
6.59499e-09
1.4972e-08
-3.4475e-09
2.70868e-09
8.61684e-09
-6.80601e-09
-4.51951e-09
1.43519e-09
-1.19315e-09
3.82711e-10
3.86891e-11
7.7592e-12
3.99063e-11
8.04598e-12
3.84501e-10
5.45335e-10
-6.01216e-10
1.59333e-08
-1.71906e-08
1.51104e-08
8.22939e-10
1.52433e-10
1.74504e-09
-2.94363e-10
5.22769e-12
4.0166e-11
2.881e-11
-4.45076e-12
1.12091e-11
2.81917e-11
-3.83089e-09
3.79942e-09
-7.19869e-09
7.23016e-09
-8.05912e-09
-1.45478e-10
-1.54942e-09
9.75402e-09
-5.90745e-09
2.58142e-09
6.03471e-09
-1.86511e-08
-4.84432e-09
-1.81151e-08
-4.68945e-09
-3.39412e-11
4.52348e-11
-2.0155e-11
3.64668e-11
-4.90218e-09
7.34638e-09
-6.92657e-09
4.14906e-11
1.37659e-11
4.32534e-11
1.39985e-11
-2.26505e-11
3.43302e-11
-1.81326e-08
1.80743e-08
1.08681e-09
3.30533e-11
-2.20981e-11
-1.60904e-09
2.53739e-09
1.39258e-09
-2.32092e-09
4.32642e-11
2.41945e-09
7.98226e-10
7.38623e-10
-1.16454e-09
-3.72311e-10
5.35413e-10
-5.26024e-10
-4.37203e-10
4.27813e-10
1.19705e-09
-1.46541e-09
-2.47617e-09
2.74453e-09
-1.05859e-08
-2.39765e-09
-4.26226e-09
-7.13571e-09
4.61396e-09
6.78401e-09
-8.21156e-09
1.29736e-11
2.89514e-11
-1.71688e-08
1.14538e-10
1.0146e-09
-4.77927e-09
-6.13267e-10
4.37794e-09
1.03353e-08
-2.6054e-09
-9.52147e-09
1.79158e-09
-4.89879e-09
6.70187e-09
1.74086e-08
-1.92117e-08
-2.93885e-10
3.80423e-10
2.55177e-10
3.84608e-10
1.74624e-08
-1.76674e-08
-7.12634e-10
8.6474e-10
-7.67507e-09
2.56921e-11
2.17858e-11
2.66202e-11
2.15124e-11
-7.86613e-09
-1.64383e-10
-2.86102e-11
-1.63806e-08
1.76342e-08
-3.02633e-09
1.77267e-09
3.28863e-10
-4.85016e-09
3.78885e-09
7.32439e-10
-1.55238e-08
-9.52583e-11
1.54958e-08
1.23215e-10
-7.69579e-09
-5.33856e-09
5.65367e-09
7.38068e-09
-1.76724e-09
1.04912e-09
-1.6725e-10
-1.68303e-09
-2.25534e-10
1.41321e-10
2.0844e-09
-1.78995e-08
-1.49105e-09
2.24854e-09
-7.22678e-09
-3.78292e-10
5.35653e-09
-1.27678e-11
1.71658e-08
-1.17351e-11
1.66783e-08
2.06625e-11
1.53458e-11
-1.11933e-08
-4.69314e-09
3.01341e-09
-4.27934e-09
7.06591e-09
-7.04883e-09
3.08498e-11
4.49159e-11
3.27571e-11
4.56781e-11
5.43122e-11
1.25527e-09
-8.31165e-09
-1.3193e-09
8.38454e-09
-4.24728e-09
7.09758e-09
-7.12964e-09
-8.64268e-12
1.63869e-08
-1.65529e-09
2.6642e-11
1.63864e-08
-3.52893e-09
5.26941e-09
1.16713e-08
-1.34118e-08
9.58234e-09
6.27798e-10
-7.9616e-09
-1.87933e-11
1.63625e-08
-3.01816e-11
1.70381e-08
-2.93037e-11
1.65545e-08
-1.12596e-08
-3.29528e-09
1.10259e-08
2.74303e-09
8.70738e-10
-2.41672e-09
-2.44173e-11
1.65104e-08
-2.50335e-11
1.69927e-08
-2.15509e-11
1.63358e-08
-1.96963e-11
1.64796e-08
-2.00518e-11
1.69613e-08
5.23103e-09
-4.78347e-09
7.54339e-10
-2.91369e-11
1.64144e-08
-2.94258e-11
1.6897e-08
-1.08247e-11
1.63788e-08
-6.95743e-12
1.68688e-08
-3.3463e-12
1.63686e-08
4.50534e-11
1.69063e-08
-2.44073e-11
1.62981e-08
-4.09908e-09
6.65617e-09
-6.80437e-09
-2.87651e-11
-2.11424e-10
-5.22232e-10
-2.92021e-10
4.86232e-10
3.28021e-10
-1.64588e-09
1.08098e-08
-1.05911e-08
-2.70536e-11
1.62577e-08
3.34649e-10
-1.22888e-10
6.1844e-11
3.81855e-09
1.23237e-09
-4.03632e-09
-1.7411e-08
9.63737e-11
-1.51979e-08
-2.98748e-10
1.53966e-08
-1.84625e-08
-1.05827e-09
-1.79294e-08
-1.01869e-09
1.16572e-10
-8.86401e-09
9.17959e-09
-4.32156e-10
1.50059e-09
8.04164e-09
-1.00869e-08
1.21034e-08
9.48226e-09
-1.14988e-08
1.99399e-10
-3.07152e-10
-1.24989e-10
2.32742e-10
-1.68811e-11
1.61245e-08
-2.10875e-11
1.6104e-08
-7.74311e-12
1.60954e-08
7.25945e-11
-1.66267e-09
2.91708e-10
1.29837e-09
-5.80638e-12
1.62368e-08
6.11923e-11
1.61291e-08
1.29364e-08
-1.28064e-08
-7.82503e-09
7.69501e-09
8.70275e-09
9.34057e-09
-6.26256e-09
1.0447e-08
-1.0645e-08
8.97611e-10
-3.2671e-10
1.88979e-10
-7.9624e-09
-2.32068e-09
2.10102e-09
8.18206e-09
8.01976e-09
-1.02028e-08
9.97516e-09
-7.7921e-09
-7.77215e-09
5.64165e-12
9.62033e-10
5.02709e-11
-1.01795e-09
-2.55794e-09
1.68314e-09
2.74629e-09
-1.8715e-09
-6.94719e-09
1.77895e-09
2.22872e-11
5.14595e-09
3.279e-09
-3.04689e-09
-3.28948e-09
3.05737e-09
-2.15764e-08
1.86761e-08
2.90034e-09
6.30238e-09
3.80688e-09
-3.08091e-09
-7.02835e-09
-1.80754e-09
-1.73981e-08
1.78281e-08
2.15232e-10
3.09383e-09
1.80131e-09
-1.6308e-09
-3.26434e-09
8.42596e-09
6.81905e-09
-1.04966e-08
-9.39034e-09
7.57154e-09
1.23154e-08
2.13333e-09
-1.32197e-08
2.48846e-10
1.22653e-10
-1.56267e-10
8.29598e-09
-8.91262e-09
1.57391e-08
-7.11704e-09
6.65664e-09
5.80009e-09
-5.33969e-09
2.55989e-10
-7.78779e-09
-4.37512e-10
7.96931e-09
-9.47174e-09
1.74995e-09
-2.24113e-09
9.96292e-09
-4.65686e-10
7.67475e-09
-7.83981e-09
6.30742e-10
-1.23475e-10
5.78732e-09
-7.3278e-09
-6.15531e-09
-1.0378e-08
1.01484e-08
5.04941e-09
-4.40109e-09
-4.7474e-09
2.85785e-10
-6.43159e-10
5.46253e-10
-1.88879e-10
-1.82675e-08
1.07691e-09
3.24256e-09
-3.85677e-10
-4.15611e-09
1.29922e-09
1.96879e-09
-2.00706e-09
8.44311e-10
-8.06044e-10
-1.24313e-08
1.66569e-08
-9.63591e-09
5.41034e-09
1.80733e-10
4.21284e-10
7.061e-09
-7.66302e-09
-1.66929e-09
5.49886e-09
2.11394e-09
-5.94351e-09
4.01484e-09
2.79871e-09
-3.16829e-09
-3.64526e-09
8.07975e-10
3.88708e-09
-8.76502e-10
-3.35307e-09
-8.61307e-09
2.49439e-09
5.07302e-11
-1.74526e-08
-1.14434e-10
1.68936e-10
-5.45019e-11
6.11551e-11
-2.39387e-11
-3.32841e-09
-3.57991e-10
4.22181e-10
3.26422e-09
2.53554e-09
-1.35898e-08
1.61506e-09
-1.78557e-08
1.67285e-10
-1.76783e-08
-1.19894e-10
-5.34703e-10
-1.13134e-08
1.13997e-08
4.48399e-10
-7.69099e-10
4.40864e-10
6.1402e-10
7.99032e-09
-4.35459e-10
6.27668e-10
-8.18253e-09
1.3021e-09
-1.14371e-09
1.8104e-09
7.64804e-10
3.81925e-09
-7.05723e-09
2.47317e-09
-2.33425e-10
2.65484e-10
-3.2059e-11
-9.81143e-11
1.48037e-10
3.30501e-10
-2.37979e-09
-1.78719e-09
-2.03378e-09
9.93102e-11
-1.46712e-09
-5.98109e-10
5.15906e-09
-4.23485e-09
8.59344e-09
-1.14756e-08
-4.14127e-10
6.08421e-10
-3.71812e-10
1.77517e-10
-8.33028e-09
8.0316e-09
7.69628e-10
-4.70942e-10
-5.72277e-10
-1.14122e-09
-9.44225e-09
-1.2043e-09
1.23965e-08
9.68736e-09
-9.90006e-09
-3.4149e-10
-7.40254e-10
2.1041e-10
-1.13314e-10
-4.10428e-10
-3.68909e-10
-7.69431e-09
6.48258e-10
9.57131e-11
2.52638e-11
-8.61231e-10
-1.29153e-08
7.21026e-09
4.85558e-09
-4.23022e-09
9.7363e-09
-1.03617e-08
-2.48038e-08
1.80196e-08
-1.06501e-09
2.50156e-09
5.86589e-09
-7.30244e-09
-6.41522e-11
-5.02817e-11
-7.59497e-09
9.82504e-09
-2.23007e-09
-6.21336e-10
7.30001e-10
9.58404e-10
-1.06707e-09
-7.84401e-09
7.8867e-09
-1.58844e-10
1.16157e-10
2.18605e-09
2.74962e-09
-2.22347e-09
-2.71219e-09
-6.69335e-10
1.09676e-08
-7.00705e-10
-9.59753e-09
-1.05294e-09
9.30479e-10
-4.98878e-10
1.23066e-09
-1.97695e-09
5.04422e-09
-4.74646e-09
8.14713e-09
-8.44489e-09
-2.98496e-09
1.05604e-08
-7.5754e-09
-4.24356e-10
1.5204e-09
3.75514e-10
-1.47156e-09
-7.85718e-09
-1.31525e-09
1.21004e-09
1.79175e-09
-1.95224e-09
-6.50441e-11
-1.79369e-08
-2.64273e-10
-1.84709e-08
-2.76306e-10
3.96568e-09
4.18577e-09
-4.04314e-09
1.35727e-09
-1.23777e-08
1.31538e-08
-7.83704e-09
4.01137e-10
8.74537e-09
-7.0649e-09
-8.22e-09
6.53954e-09
-6.13673e-11
7.80104e-10
-5.03193e-10
-2.15544e-10
3.47022e-09
-1.24217e-09
5.14983e-10
3.82843e-09
-3.96252e-09
6.58669e-09
-6.45259e-09
6.08263e-09
-7.28842e-09
-8.68002e-09
3.84261e-10
-1.78229e-08
1.77358e-08
9.05839e-10
-9.89498e-10
8.1366e-10
-3.26013e-10
-7.91784e-09
8.07947e-09
2.75511e-09
-2.19371e-09
5.99976e-10
2.46447e-09
4.37878e-10
3.43492e-09
-1.68675e-09
-4.51311e-10
-1.63571e-09
2.8329e-09
-2.94551e-09
2.34719e-09
-2.23458e-09
1.57429e-09
5.02018e-11
-3.16709e-09
4.25765e-09
-3.03544e-09
1.94488e-09
4.91015e-10
2.60866e-10
-2.05628e-10
4.30926e-10
7.21521e-09
-8.11356e-09
3.7409e-10
2.88164e-09
1.94213e-09
-1.35356e-09
-3.39876e-10
2.50161e-10
3.16725e-09
-3.07754e-09
-9.80884e-10
7.76302e-10
-1.98913e-09
-7.87613e-09
-5.63439e-10
4.31449e-09
9.68613e-10
-1.0458e-09
-4.2373e-09
4.85628e-10
-2.99778e-09
2.32408e-09
1.88068e-10
4.74357e-10
-3.87843e-10
6.22229e-10
-7.08743e-10
-4.49851e-09
4.6652e-09
4.62125e-10
5.46695e-09
-2.10982e-09
7.43685e-11
6.42412e-09
-1.26745e-09
3.35273e-10
-7.8676e-09
-3.438e-10
1.89023e-09
2.03284e-09
-3.07877e-09
-8.26585e-09
-1.08714e-09
-2.03889e-09
-1.24948e-08
7.94796e-09
1.35481e-09
4.573e-10
1.07528e-08
-1.26876e-08
1.40012e-09
-1.2393e-09
3.2411e-09
-2.34168e-09
-6.87531e-09
7.17746e-09
5.48516e-09
-2.62402e-09
2.72235e-10
-6.09426e-09
-4.546e-09
1.0368e-08
-8.25998e-10
2.67309e-10
-2.17068e-09
2.16338e-09
-1.78922e-08
-9.46641e-10
8.96183e-09
1.34131e-09
-1.44863e-09
1.05047e-08
1.6967e-09
-7.66387e-09
7.36954e-09
8.47486e-10
-3.36792e-09
-8.54996e-09
-5.54176e-11
4.12786e-10
8.1926e-09
7.12299e-10
4.68239e-10
-7.29386e-10
-1.85007e-10
-2.09961e-09
-7.13156e-10
1.82226e-09
-1.76741e-09
2.69143e-09
-8.52811e-10
1.22526e-10
8.54294e-10
-6.98905e-10
-5.54725e-10
-7.60447e-09
-1.5092e-09
1.01822e-09
-3.8154e-10
4.0493e-10
1.70813e-09
-1.01268e-08
7.42931e-10
7.92307e-09
1.46084e-09
9.03614e-09
-4.1477e-09
-9.12329e-09
2.79345e-10
-4.62717e-11
1.9739e-09
-7.02382e-10
-1.41491e-10
4.29746e-10
2.89653e-09
1.61021e-10
-8.82722e-09
-3.73371e-09
1.18916e-08
5.36746e-09
3.70192e-09
1.66648e-10
5.79289e-10
-8.07304e-10
-9.48565e-09
8.40299e-09
9.82802e-09
-6.27693e-09
-2.27146e-09
2.16496e-09
6.38343e-09
9.27438e-09
-8.64431e-10
-7.11782e-10
7.80432e-12
-1.48833e-10
-7.72155e-09
1.33525e-10
3.78919e-09
1.39618e-10
-4.45024e-09
-5.02795e-09
4.64644e-09
4.83175e-09
8.40331e-09
1.4854e-10
-5.41344e-11
-9.4406e-11
-1.09322e-10
2.66384e-10
-6.17725e-10
-1.14697e-09
7.11761e-10
-6.96951e-09
-2.6854e-09
7.6069e-09
2.04801e-09
-2.596e-09
4.69652e-09
8.31744e-10
-2.93226e-09
2.37169e-10
-2.66862e-10
2.65236e-10
-2.35543e-10
-1.27834e-08
1.05116e-08
1.79804e-10
2.092e-09
-1.71309e-08
1.70863e-08
8.79998e-10
-4.97164e-10
4.42071e-10
-8.24906e-10
3.08261e-09
-8.80339e-09
-7.06264e-09
1.21941e-09
4.66649e-09
-4.95659e-09
-9.29314e-10
7.6613e-10
-6.763e-10
-6.2315e-10
5.33319e-10
-6.77137e-09
-4.64837e-09
2.61677e-10
-9.27413e-11
-3.75372e-10
2.5412e-10
5.95609e-10
-4.68562e-10
6.65092e-10
9.07785e-09
-9.40565e-10
8.86393e-09
7.70782e-09
1.19341e-09
-8.08403e-09
-8.17193e-10
-1.45191e-09
3.66314e-09
1.97454e-09
-6.06289e-09
5.24405e-09
-5.6363e-11
2.04903e-10
-2.91744e-09
7.12765e-10
3.05216e-09
3.98632e-10
2.36399e-11
-4.22271e-10
7.09055e-09
-6.94848e-09
3.99907e-09
-4.69979e-10
7.92406e-09
-4.31273e-10
-7.92824e-09
1.79495e-10
-1.01256e-10
-2.65106e-10
1.86867e-10
1.82468e-09
1.29162e-09
-1.14212e-09
-1.49497e-10
-5.27796e-09
5.83199e-09
-5.54034e-10
-7.79495e-10
1.09986e-10
3.49743e-09
-2.82792e-09
-8.65998e-11
-1.3553e-09
5.99711e-09
2.11697e-09
2.89239e-10
1.59017e-09
-1.12004e-08
9.81366e-10
1.15763e-08
-1.74554e-08
-3.53213e-11
3.81815e-11
-1.25873e-09
5.27499e-09
-5.68555e-09
-4.13714e-10
-1.7436e-10
-7.13348e-09
-1.24936e-09
-7.33325e-09
7.60549e-09
-1.4741e-09
1.37766e-09
2.4975e-10
-1.53314e-10
-8.29845e-09
-3.04589e-09
4.27944e-09
-8.07218e-10
5.85383e-10
9.57853e-09
-4.89886e-09
-3.79101e-10
4.12722e-09
4.49473e-09
-4.79353e-09
-3.15155e-09
2.45292e-10
2.90626e-09
1.07381e-09
-7.59007e-09
1.62056e-09
1.57177e-09
-4.07738e-09
4.48821e-09
-6.59826e-09
-9.9671e-10
1.34699e-08
-8.32022e-09
-1.27636e-08
7.61389e-09
-1.16717e-08