/*--------------------------------*- C++ -*----------------------------------*\
  =========                 |
  \\      /  F ield         | OpenFOAM: The Open Source CFD Toolbox
   \\    /   O peration     | Website:  https://openfoam.org
    \\  /    A nd           | Version:  8
     \\/     M anipulation  |
\*---------------------------------------------------------------------------*/
FoamFile
{
    version     2.0;
    format      ascii;
    class       surfaceScalarField;
    location    "6";
    object      phi;
}
// * * * * * * * * * * * * * * * * * * * * * * * * * * * * * * * * * * * * * //

dimensions      [0 3 -1 0 0 0 0];

internalField   nonuniform List<scalar> 
3021
(
1.96896e-10
-1.96896e-10
-2.1831e-08
-2.14633e-08
3.26641e-08
1.06301e-08
-1.69211e-08
-1.21709e-08
2.3378e-08
5.71394e-09
-3.00606e-08
-3.07733e-09
1.62169e-08
9.63281e-10
-1.30591e-08
1.20958e-08
8.98633e-09
-6.86492e-09
7.28716e-09
-9.40857e-09
-3.77152e-11
-1.62062e-08
1.55601e-08
6.83831e-10
-8.12733e-10
3.71746e-10
-1.90957e-08
1.95367e-08
1.08898e-08
-9.81164e-09
-6.91629e-09
5.83811e-09
-1.45288e-08
-3.3675e-09
1.08707e-08
7.02554e-09
-1.51227e-08
-1.72236e-08
1.05153e-08
6.30727e-09
-6.51439e-09
1.19728e-08
-1.17657e-08
1.757e-08
2.58922e-09
-1.11351e-08
-9.02411e-09
-5.46845e-09
-1.72017e-08
8.14144e-09
6.67186e-09
-7.56989e-09
-6.46333e-09
7.36136e-09
-7.76995e-09
6.35427e-09
8.22972e-09
-6.81404e-09
-4.11591e-09
-2.28914e-09
6.40505e-09
-3.19558e-09
-9.20329e-10
2.70617e-10
3.42229e-10
-2.28881e-10
-3.83964e-10
4.63015e-11
-3.47905e-10
-6.00854e-11
3.61689e-10
-1.04798e-08
-2.75305e-09
1.6298e-08
-3.06516e-09
-2.35183e-08
1.72371e-08
1.85552e-08
2.47475e-09
-2.31684e-09
-2.14873e-08
6.40599e-09
1.50814e-08
-6.70753e-09
1.56852e-09
8.54075e-09
-3.40174e-09
5.87868e-10
-9.23289e-09
6.98261e-09
1.66241e-09
2.88508e-09
-1.27467e-08
-6.72001e-10
1.05336e-08
1.11142e-08
-2.99212e-09
-2.65361e-09
-5.46846e-09
3.11213e-08
-2.46926e-08
-2.32343e-08
1.68056e-08
3.17187e-08
-2.50377e-08
-2.34323e-08
1.67513e-08
3.2943e-08
-2.59832e-08
-2.43306e-08
1.73709e-08
-4.91873e-09
5.88829e-09
-1.68699e-08
1.59003e-08
-2.22952e-08
-1.52046e-08
5.60909e-09
3.18907e-08
6.54993e-10
-7.41792e-10
7.42733e-10
-6.55934e-10
-5.71647e-09
2.60601e-09
-3.59706e-09
7.47558e-09
3.79797e-09
-4.60169e-09
3.67466e-09
8.84149e-09
5.05386e-09
1.39663e-08
1.16608e-09
-1.45522e-08
-5.80178e-10
9.32708e-09
-5.79524e-09
2.95707e-09
-6.48891e-09
-1.48242e-08
1.18856e-08
7.82777e-09
-4.88915e-09
-7.50465e-09
2.69975e-09
1.87089e-10
8.35525e-10
-4.0177e-10
-6.20844e-10
-5.16553e-11
5.50455e-10
9.35296e-11
-5.92329e-10
-4.3011e-08
1.71593e-08
1.36808e-08
-5.08943e-09
-2.45602e-09
7.54545e-09
1.42746e-08
1.46647e-09
-1.2856e-08
9.45694e-10
1.33919e-08
-3.71308e-10
-2.28434e-09
6.82296e-09
4.89097e-09
-9.42959e-09
2.53292e-09
-5.35036e-09
-2.89903e-09
9.31985e-10
4.25605e-09
5.70178e-09
-6.16746e-10
3.31112e-10
-1.24123e-09
1.52686e-09
-5.73944e-09
-9.95165e-09
5.87946e-09
4.06667e-10
-2.0977e-10
-1.45812e-08
-2.72555e-08
2.03734e-08
1.62766e-08
2.05944e-08
-2.88127e-08
-8.05826e-09
7.74197e-09
6.2656e-09
-6.96617e-09
-7.0414e-09
1.88892e-08
-3.53963e-09
-7.51512e-11
-4.10267e-10
4.02505e-09
-1.09817e-08
3.45685e-09
2.11471e-08
-1.36223e-08
-4.24235e-09
4.88894e-09
-5.90484e-09
5.25825e-09
-5.5531e-09
6.18958e-09
1.89644e-09
1.37376e-08
1.72758e-09
-1.42991e-08
-1.36651e-09
-2.08854e-09
1.42809e-09
2.02696e-09
-1.78926e-08
-1.98402e-08
2.67511e-08
-5.82669e-09
5.58161e-09
-2.07787e-09
2.32295e-09
8.82698e-10
-9.26219e-10
2.3866e-10
-1.95139e-10
-2.8027e-09
1.21215e-09
-9.80356e-10
2.57091e-09
4.15904e-10
9.32041e-10
-4.65248e-10
8.66414e-09
1.79853e-09
-5.51344e-09
-4.94923e-09
-9.03607e-10
-2.65823e-10
1.16943e-09
1.75797e-09
-3.94552e-09
-3.36555e-09
6.77873e-10
-9.41062e-10
-5.78748e-09
6.05067e-09
2.69457e-09
3.94776e-09
-4.88437e-09
1.94213e-09
-9.97745e-10
-1.54966e-08
-1.01047e-08
-4.7109e-09
6.52341e-09
8.29219e-09
-1.05826e-08
-1.434e-08
1.94685e-08
5.45417e-09
-5.60922e-09
5.90933e-09
3.26429e-08
-5.42262e-09
5.6489e-09
3.14924e-08
-5.55857e-09
5.5378e-09
3.11421e-08
6.68581e-09
-3.9668e-09
-6.53533e-09
3.81632e-09
-9.26653e-10
3.07759e-12
-2.64345e-12
2.99583e-10
6.51612e-10
-8.41355e-10
-1.09841e-10
-1.47373e-08
1.8412e-08
1.05542e-08
-1.13539e-08
8.90482e-09
-8.10513e-09
-3.46701e-09
6.17086e-10
-7.31264e-09
-4.65523e-09
1.13508e-08
-4.97385e-09
3.53329e-09
1.33966e-09
-1.87821e-09
5.38552e-10
9.64901e-09
-5.98414e-09
-8.63872e-09
-5.06865e-10
5.20319e-10
6.41539e-10
-1.77226e-08
9.98233e-09
-7.65556e-09
1.53958e-08
7.72151e-09
-5.81869e-09
-1.22494e-09
5.52742e-09
-8.31509e-09
8.80183e-09
-6.01415e-09
9.62438e-09
-8.09432e-09
2.68473e-10
-1.09945e-08
-7.31036e-10
-1.34175e-09
1.30673e-08
-7.63902e-10
2.55268e-09
1.41532e-09
-3.2041e-09
6.50792e-09
-5.32523e-09
9.91971e-09
-1.11024e-08
-9.82885e-09
-1.32124e-09
1.55588e-10
-2.3936e-09
8.65266e-09
3.06802e-09
7.71785e-10
1.23859e-08
-7.12263e-09
-2.07049e-09
9.81021e-09
-1.04912e-08
2.30735e-09
-4.91671e-09
1.31005e-08
3.32173e-09
-4.64567e-09
1.32395e-09
-2.30544e-08
2.30522e-08
7.90173e-11
-7.67679e-11
2.21965e-08
-5.14406e-11
5.58649e-11
-2.22009e-08
-2.18649e-08
2.1866e-08
4.77786e-11
-4.88943e-11
-2.03265e-08
-7.78669e-11
2.03753e-08
2.906e-11
2.01135e-08
-3.95041e-11
-2.01007e-08
2.6744e-11
-5.3367e-12
2.66069e-11
2.10529e-08
-2.10742e-08
-2.0257e-08
-1.05777e-11
1.5097e-11
2.02525e-08
-2.10549e-11
-2.03286e-08
2.03463e-08
3.38215e-12
-6.73524e-12
2.29449e-11
1.9957e-08
-1.99732e-08
2.11845e-08
-2.19049e-11
-2.1183e-08
2.04319e-11
5.76051e-13
1.54246e-12
2.1049e-08
-2.10511e-08
7.34303e-13
1.05628e-11
2.02669e-08
-2.02782e-08
-2.0256e-08
2.02173e-08
3.66637e-11
2.04537e-12
-2.10422e-08
2.10119e-08
3.49628e-11
-4.66252e-12
5.86105e-11
-8.50163e-11
-2.00399e-08
2.00663e-08
1.82008e-08
-2.30084e-09
1.29437e-09
-1.71943e-08
1.87769e-08
-9.73753e-10
-1.85163e-08
7.13184e-10
-1.99869e-08
1.99781e-08
-9.86219e-12
1.87232e-11
1.58559e-08
-7.91924e-10
7.00658e-10
-1.57646e-08
1.85563e-08
-2.44981e-09
-1.77319e-08
1.62545e-09
-3.59842e-09
-1.08369e-08
-1.12994e-08
6.38501e-09
2.59174e-10
2.09114e-09
4.88496e-09
-1.58014e-09
-5.39595e-09
-1.31104e-08
9.87404e-09
-7.24342e-09
4.3504e-10
9.04617e-10
2.45289e-09
-1.16997e-08
1.07003e-08
-1.45343e-09
2.55544e-09
-9.93141e-09
-5.9753e-11
5.46761e-09
-6.68138e-09
1.27352e-09
-3.07058e-09
1.82922e-09
3.3325e-09
-8.45314e-10
-2.77889e-10
6.16338e-10
-1.21481e-08
-2.42731e-10
-8.64896e-10
1.80975e-10
-1.15207e-09
-5.6382e-09
-9.6683e-09
3.60676e-09
7.37425e-10
4.55337e-09
-5.35054e-09
8.11682e-09
-1.36153e-09
2.23104e-09
-4.41305e-09
-7.73506e-09
7.94284e-09
3.14625e-10
-8.25747e-09
9.76726e-10
-1.0507e-09
4.89875e-10
2.36723e-09
-1.16343e-09
-1.99591e-09
7.92114e-10
1.90168e-09
-3.79583e-10
5.25765e-09
-1.03136e-08
5.98789e-09
3.05944e-09
-3.03665e-09
-2.31194e-09
-9.12111e-09
2.03298e-08
4.67616e-10
-7.32121e-10
-1.81468e-09
2.07918e-09
4.98177e-09
8.94093e-09
-9.29793e-09
5.38502e-09
3.41057e-09
1.21211e-09
1.34712e-08
-3.19049e-10
1.07937e-09
-1.00305e-09
2.02212e-09
4.93142e-09
-1.66929e-08
-1.19976e-09
-8.13127e-09
5.82786e-10
-3.12169e-10
6.26728e-10
5.46399e-09
1.86205e-09
1.64888e-10
3.40286e-10
1.11445e-09
1.08685e-09
-8.69526e-10
-1.33177e-09
-8.80592e-10
7.26013e-10
2.19157e-09
-2.03699e-09
1.16516e-08
1.20432e-08
2.2411e-10
4.02619e-10
-1.37131e-08
1.35595e-08
1.36578e-09
1.73928e-08
-6.81073e-09
3.32223e-10
-4.3297e-10
-7.64149e-10
1.60849e-09
2.55782e-09
-1.20572e-10
5.58456e-09
-2.65983e-09
-5.3575e-10
-7.16518e-10
-2.19222e-09
9.08704e-10
-1.00848e-08
5.41664e-11
9.12189e-09
6.79615e-10
-4.16454e-09
-1.34152e-08
1.22545e-08
1.97924e-09
-5.42792e-09
6.60486e-09
2.30585e-09
-7.93901e-10
-6.70034e-09
7.70968e-09
-5.6504e-09
4.64106e-09
-1.64548e-08
7.71058e-09
-5.4819e-09
1.42261e-08
5.01448e-10
7.30176e-10
-9.78545e-09
1.22223e-08
8.22478e-09
-1.06617e-08
-1.33732e-10
-1.8049e-09
-3.87312e-10
1.10296e-08
-1.65052e-09
2.51846e-09
9.02921e-09
-1.09283e-08
-6.19325e-10
7.87144e-10
-7.2203e-10
1.15861e-10
2.74206e-09
-3.52186e-09
-2.29079e-09
1.24679e-08
-1.24457e-08
7.37094e-09
-7.39313e-09
-6.13218e-09
4.65641e-09
-5.5762e-09
6.73694e-10
8.0448e-10
-1.2595e-09
7.40664e-09
3.01974e-09
-2.94095e-09
1.75043e-09
-1.1319e-08
3.76737e-09
8.46037e-09
-7.42057e-09
1.11834e-08
-7.36124e-09
7.94624e-10
-4.40206e-12
-4.75699e-09
-9.38345e-09
7.48204e-09
6.6584e-09
-5.08218e-09
1.07004e-08
9.86607e-10
-1.08288e-09
2.70839e-10
-1.31008e-09
6.14988e-12
1.31417e-09
-1.02406e-11
-5.55306e-09
-1.07595e-08
8.68159e-09
7.33558e-09
1.14636e-08
7.66737e-10
-1.39716e-08
1.74124e-09
-7.00146e-10
3.99701e-10
-1.64803e-10
7.74516e-09
-2.46179e-11
2.11969e-08
-2.12366e-08
6.43675e-11
-2.01672e-08
2.01846e-08
1.62401e-12
-1.90317e-11
-2.04631e-08
-7.29173e-12
2.04772e-08
-6.81635e-12
-2.12554e-08
6.9407e-12
2.12719e-08
-2.34134e-11
2.01431e-11
2.12603e-08
-2.12321e-08
-4.84194e-11
-1.24189e-08
1.23942e-08
1.2023e-11
-1.24309e-08
-2.01793e-08
1.49227e-11
-2.84637e-12
-2.11997e-08
-2.50513e-11
2.11964e-08
2.83395e-11
-3.47241e-11
-2.03852e-08
2.03541e-08
6.58691e-11
-1.38007e-11
-2.12281e-08
4.21705e-11
-2.04815e-08
1.58384e-11
2.51424e-12
1.22959e-08
-1.23415e-08
4.55277e-11
2.4507e-11
-2.12332e-08
2.12495e-08
-4.07668e-11
1.2261e-08
-1.22404e-08
-2.05442e-11
2.09827e-11
2.12069e-08
-2.11853e-08
-4.26218e-11
1.63144e-11
2.02142e-08
-2.0236e-08
5.47798e-12
1.50731e-11
2.12569e-08
-2.12592e-08
-1.27714e-11
2.01982e-08
-2.01875e-08
2.43819e-12
-1.30728e-11
-1.22112e-11
1.17448e-08
-1.17326e-08
-2.19291e-08
2.14664e-08
-5.50779e-10
1.01345e-09
1.2191e-08
-4.32355e-11
-1.21478e-08
1.18394e-08
-1.18372e-08
-2.13329e-12
-1.23917e-08
1.23779e-08
-1.19343e-08
1.18996e-08
1.24151e-08
-1.23906e-08
-1.22112e-08
-2.23126e-11
1.22335e-08
-1.24256e-08
1.24407e-08
1.22578e-08
3.81135e-11
-1.18647e-08
1.1843e-08
2.16989e-11
1.23735e-08
-1.23526e-08
3.44642e-11
-2.12236e-08
2.12465e-08
-5.74095e-11
-3.8588e-12
-2.04676e-08
2.0474e-08
-2.52738e-12
-9.34515e-10
-2.26738e-08
1.67918e-09
-2.566e-11
2.04114e-08
-2.04473e-08
6.15681e-11
7.90802e-12
2.12425e-08
-2.1258e-08
7.58716e-12
-1.38853e-09
-2.44444e-08
2.35687e-08
2.26425e-09
9.52445e-12
-2.12953e-08
2.13309e-08
-4.51502e-11
1.71465e-11
2.04846e-08
-2.04772e-08
-2.45259e-11
1.24061e-08
-1.23982e-08
-1.40945e-08
1.316e-08
2.01392e-08
-6.86773e-11
-2.01835e-08
1.12925e-10
1.58405e-11
2.12546e-08
-2.1249e-08
-2.14684e-11
-1.22331e-08
1.22489e-08
-2.11581e-08
9.07785e-12
2.1161e-08
-1.2004e-11
-2.05377e-08
-2.73634e-10
2.03084e-08
5.03011e-10
-5.87959e-10
2.12899e-08
-2.21267e-08
1.42473e-09
2.12511e-08
-2.12819e-08
2.74708e-12
2.8095e-11
-2.04706e-08
2.04705e-08
-1.44617e-11
1.44816e-11
5.635e-12
-2.02227e-08
2.02237e-08
-6.635e-12
2.23762e-08
-1.94389e-10
-2.68379e-08
4.65602e-09
2.01155e-08
-1.27888e-11
-2.01183e-08
1.5582e-11
-2.05008e-08
3.14839e-12
2.70993e-11
2.01679e-08
9.15512e-12
-2.01641e-08
-1.29046e-11
-2.09171e-08
2.08358e-08
-5.98185e-11
1.4105e-10
-2.12821e-08
-1.51456e-10
5.16538e-10
-1.18378e-08
1.18549e-08
1.25594e-08
-1.31474e-08
2.07728e-08
-2.15301e-11
8.45079e-11
1.2251e-11
2.02098e-08
-2.38656e-11
-5.75733e-13
-2.04669e-08
2.04871e-08
-1.96629e-11
-1.67752e-08
1.53867e-08
-2.05334e-08
-3.69862e-11
2.04991e-08
7.12494e-11
-1.23491e-08
1.23836e-08
2.1252e-08
-1.65513e-11
1.56432e-11
1.18158e-08
-1.18101e-08
-2.01742e-08
-1.52273e-12
2.01706e-08
5.13265e-12
-2.12432e-08
2.11776e-08
-9.20521e-11
1.57721e-10
-3.90789e-10
2.14903e-08
-2.17107e-08
6.11209e-10
3.1417e-11
1.20206e-08
-1.2052e-08
-4.47483e-12
2.04479e-08
-2.04471e-08
3.67576e-12
-1.14062e-11
-2.11548e-08
8.15685e-12
-1.19732e-08
1.19687e-08
1.22861e-08
-2.51666e-11
-1.18837e-08
2.91906e-11
1.18545e-08
-1.2345e-08
1.23336e-08
-1.67475e-08
4.13364e-10
1.63342e-08
-2.39073e-12
-2.12879e-08
2.12684e-08
2.18624e-11
1.19193e-11
2.05107e-08
-2.05286e-08
5.97042e-12
1.19814e-08
-1.20071e-08
-3.46843e-12
-2.0133e-08
2.01481e-08
-1.15944e-11
-1.18788e-08
1.18908e-08
-1.76327e-11
-1.18334e-08
1.1851e-08
1.20366e-11
2.12954e-08
-2.13168e-08
9.45276e-12
-5.46418e-12
2.02352e-08
-2.02159e-08
-1.38192e-11
-2.01412e-08
-2.73647e-11
2.01384e-08
3.02257e-11
-6.64446e-12
2.13424e-08
-2.13379e-08
2.19678e-12
-1.22906e-08
3.14723e-11
1.22591e-08
2.30142e-12
1.20296e-08
-1.20319e-08
1.22377e-08
-1.224e-08
1.37055e-08
-1.40963e-08
7.50213e-11
1.4321e-08
-1.4396e-08
-2.04608e-08
2.04669e-08
1.15164e-11
-1.76222e-11
-8.43543e-12
2.02092e-08
-2.02142e-08
1.34068e-11
-1.22403e-08
7.23777e-12
1.00651e-12
2.04564e-08
1.31248e-11
-1.17981e-08
-7.51252e-12
1.18056e-08
-1.18385e-08
7.43766e-13
-1.27346e-11
3.68161e-11
2.00914e-08
-1.19411e-08
-9.18762e-10
1.28598e-08
-1.17778e-08
1.17724e-08
5.60214e-12
-1.22459e-08
2.12377e-08
5.69094e-13
1.37272e-11
-1.18442e-08
5.63528e-12
1.1845e-08
-5.63997e-12
1.22748e-08
-1.83801e-11
-1.22564e-08
-1.77938e-08
1.01856e-09
1.19806e-08
-1.19836e-08
2.96366e-12
-1.22887e-08
1.23007e-08
-1.04102e-12
-1.17971e-08
1.17936e-08
-1.1802e-08
-1.51115e-11
2.12112e-08
-3.68359e-11
-2.12489e-08
7.45559e-11
-1.28651e-09
1.6357e-08
-1.50705e-08
9.5573e-12
-1.17739e-08
1.17643e-08
-1.16064e-08
1.1626e-08
-1.95874e-11
-2.4165e-08
-9.57351e-10
2.3745e-08
1.37741e-09
2.34832e-08
-1.87101e-09
-2.28987e-08
4.71339e-11
2.03076e-10
2.12087e-08
-1.21854e-10
-1.23497e-08
-9.58182e-10
1.33079e-08
2.00939e-08
-1.43254e-11
-2.00962e-08
1.66166e-11
1.44612e-11
-1.18933e-08
-1.6473e-11
1.19098e-08
-3.38447e-13
2.01803e-08
-2.02053e-08
2.53698e-11
-2.05018e-08
-3.34389e-12
2.04957e-08
9.42715e-12
2.12558e-08
-9.77815e-12
1.07978e-11
2.12841e-08
-5.23195e-12
1.6461e-11
1.0918e-11
1.17826e-08
-1.17581e-08
1.17578e-08
-1.17174e-08
1.35018e-12
1.1716e-08
-1.17595e-08
-1.83593e-11
2.0212e-08
2.47126e-11
-1.53932e-12
2.04591e-08
2.85877e-11
-3.79851e-11
-2.04497e-08
-3.84679e-10
-2.0862e-08
7.08949e-10
-1.17096e-08
1.17441e-08
-3.45698e-11
-4.90397e-12
2.12768e-08
1.21946e-11
1.23675e-08
-1.27521e-08
-3.9054e-10
-1.8132e-08
3.38289e-10
-1.22957e-08
1.23117e-08
-1.60673e-11
-1.22955e-08
7.45101e-12
-1.186e-08
1.18861e-08
-2.61249e-11
2.02053e-08
1.48137e-11
2.1778e-08
5.52314e-12
-2.17085e-08
-3.74709e-12
1.26825e-11
-1.5501e-11
2.11769e-08
4.9805e-11
-1.1887e-08
2.03919e-08
-2.04308e-08
4.84564e-11
-1.75111e-08
-6.20954e-10
2.04926e-08
2.37378e-11
-2.04874e-08
-2.89518e-11
-1.56316e-11
-1.17017e-08
-1.47884e-11
1.18297e-08
-1.18149e-08
-1.73638e-11
2.04696e-08
1.64204e-11
-2.69155e-11
2.04683e-08
-1.35046e-11
1.18537e-08
-1.18412e-08
-1.25226e-11
2.01685e-08
1.96864e-11
-2.01423e-08
-4.59142e-11
-1.23531e-08
8.08015e-12
2.01725e-08
-1.96362e-11
1.60736e-09
2.44729e-08
-2.51251e-09
-2.35678e-08
-1.18533e-08
-9.2864e-10
1.27819e-08
-3.34213e-12
-1.18321e-08
1.18354e-08
1.85202e-11
-3.13711e-11
-2.05067e-08
8.37392e-12
2.05214e-08
-2.30271e-11
9.74827e-13
1.18287e-08
2.51085e-08
-2.51232e-08
3.52927e-10
2.00824e-08
8.08042e-12
1.23108e-08
-3.59805e-11
-1.19013e-08
7.96873e-12
-2.06126e-08
1.10587e-10
-1.18464e-08
1.18484e-08
-1.18614e-08
1.30422e-11
1.18068e-08
-1.17905e-08
-1.17985e-08
9.94301e-12
-2.40104e-11
-2.13196e-08
-8.66877e-13
2.13153e-08
5.11285e-12
-5.27944e-11
8.5587e-11
2.11641e-08
-8.85018e-12
-2.43823e-11
3.12213e-11
-6.25762e-11
-2.12127e-08
-1.23528e-08
-2.36892e-13
1.20938e-08
-1.1682e-08
-8.35236e-12
2.05135e-08
-2.05343e-11
1.27625e-08
-1.18241e-08
5.0267e-11
4.86326e-10
1.32192e-08
-2.04814e-08
2.0467e-08
1.66717e-11
-3.67596e-12
-2.13266e-08
1.07018e-11
-1.18634e-08
2.01197e-08
-2.01028e-08
-3.4546e-11
-2.01603e-08
-9.81414e-13
2.00538e-11
2.0189e-08
-2.37097e-11
1.49639e-11
1.22212e-08
1.64703e-11
1.31374e-11
1.18026e-08
8.24304e-12
-1.1734e-08
1.17258e-08
-1.04702e-11
-2.01704e-08
-2.02898e-11
-1.2312e-08
1.23111e-08
1.20096e-08
-1.20102e-08
-6.00205e-12
-1.18953e-08
-2.02315e-08
2.02249e-08
-8.8655e-13
1.2901e-11
-1.18763e-08
1.90605e-11
1.30735e-08
-3.10959e-10
1.1945e-08
1.48803e-10
7.33531e-11
1.18466e-08
-1.18596e-08
1.18468e-08
-1.18432e-08
2.01631e-08
3.41597e-11
3.35506e-12
-1.18636e-11
1.21844e-08
1.70745e-11
-4.33894e-11
2.02202e-08
1.66874e-11
1.14644e-11
-1.15141e-11
1.17472e-08
-2.01642e-08
-1.95968e-11
2.35331e-11
2.06919e-08
-1.26058e-11
9.35948e-11
-3.70828e-11
1.16367e-10
-1.18774e-08
1.18874e-08
-1.23156e-08
-1.95857e-12
-2.01192e-08
2.49934e-11
1.0889e-09
-1.42363e-08
2.05661e-12
-2.60724e-10
4.83907e-10
-1.17309e-08
1.19987e-08
-1.19872e-08
1.29217e-09
2.6413e-11
5.44575e-10
-1.28791e-08
1.23345e-08
2.40731e-11
-2.0149e-11
2.11978e-08
7.78756e-10
-2.04623e-08
2.26549e-11
1.23427e-08
-3.83395e-11
2.00477e-08
-1.60017e-11
-2.01039e-08
7.22045e-11
1.18957e-08
1.63867e-09
-2.05938e-11
2.24843e-11
1.21689e-08
8.59322e-12
-7.13855e-12
-2.11642e-08
2.11909e-08
-6.26556e-11
-2.30034e-08
1.96566e-09
-2.40332e-08
2.81536e-10
9.90443e-12
-3.41783e-11
2.01657e-08
-3.86771e-12
-2.22326e-11
-9.40563e-10
2.24676e-10
-1.19082e-08
-1.09618e-12
1.19093e-08
-4.67026e-10
8.02867e-10
2.45522e-11
-1.16952e-08
1.16501e-08
4.50369e-11
-2.11671e-08
2.04067e-11
6.24776e-13
1.80835e-10
-1.72537e-10
2.11686e-08
-1.18445e-08
-2.12821e-08
-3.84068e-11
-1.16666e-08
1.1666e-08
6.42281e-13
2.04601e-08
1.91384e-12
-5.42006e-12
1.6827e-09
-1.17668e-08
1.17518e-08
1.49599e-11
-1.20891e-08
1.23051e-08
1.2183e-08
-1.21232e-08
1.21017e-08
-1.17699e-08
-1.23681e-08
-2.70237e-09
1.76769e-10
-1.70578e-10
2.03857e-08
2.88796e-11
2.64014e-11
-1.18505e-08
-1.59037e-08
-1.15916e-08
-1.48524e-11
-5.03178e-12
1.6899e-11
2.2392e-11
-1.20231e-08
1.20344e-08
-1.12542e-11
1.26092e-08
-1.18576e-08
-1.16208e-08
1.16469e-08
-2.61553e-11
-1.05491e-11
-3.03299e-11
-1.16517e-08
-1.22296e-11
1.21936e-08
-1.21833e-08
-1.0273e-11
-1.53768e-08
1.14056e-09
-2.04751e-08
1.85312e-12
2.92011e-10
-1.17518e-08
1.17376e-08
1.42334e-11
5.26367e-12
2.12377e-08
5.57575e-12
-2.19141e-10
-1.16341e-08
-1.46532e-11
1.18897e-08
-1.18888e-08
-1.45188e-08
1.22806e-10
2.04813e-08
3.94384e-12
2.82212e-11
-1.22323e-08
1.22111e-08
2.12097e-11
2.04639e-08
4.38539e-11
-1.23485e-08
-2.59726e-11
-1.18221e-08
1.18244e-08
-2.27027e-12
-4.21483e-11
-1.20659e-08
1.21061e-08
-4.01384e-11
-1.22453e-08
-9.5332e-09
9.12375e-09
4.09444e-10
-7.10214e-11
-1.22619e-08
2.00557e-08
-2.27132e-10
-2.44657e-11
-1.2712e-09
-4.35382e-11
-1.1666e-08
2.08773e-11
-1.20162e-08
-6.96254e-12
8.3373e-11
-1.2153e-08
1.21628e-08
-9.71431e-12
1.20147e-08
-1.228e-08
2.65236e-10
-1.18349e-08
1.28153e-11
-2.61166e-11
-4.31864e-11
-2.01294e-08
2.45786e-11
1.22016e-08
-7.97998e-12
3.48297e-11
3.22036e-11
-3.15553e-11
2.73712e-10
-1.15991e-08
1.15939e-08
5.18664e-12
-1.17863e-08
1.94873e-11
-1.17832e-08
1.1794e-08
-1.07952e-11
1.88211e-09
3.3367e-12
5.223e-12
-5.94016e-09
-4.17363e-11
8.13145e-12
-2.56782e-11
-2.30663e-11
-1.6456e-11
4.21479e-11
-1.20203e-08
4.1511e-12
1.18083e-08
-1.18341e-08
2.58015e-11
3.97934e-11
2.19582e-11
2.55345e-11
2.18712e-09
-1.17545e-08
1.1755e-08
-4.4109e-13
-4.06033e-12
-2.57487e-11
-1.20395e-08
-2.43536e-11
1.20638e-08
3.0633e-11
-1.18136e-08
1.18198e-08
-6.24353e-12
-1.63394e-11
-1.83166e-11
1.18238e-08
5.67346e-13
-1.21414e-08
-1.16718e-11
-3.07414e-11
1.16428e-08
-1.16526e-08
9.78103e-12
-2.69293e-12
2.90417e-11
-7.25538e-09
6.30217e-09
9.53211e-10
3.59363e-11
-1.1623e-08
1.1602e-08
2.10635e-11
-1.21446e-08
1.22429e-08
-9.82387e-11
6.64592e-12
-1.1635e-08
2.06065e-12
1.1633e-08
1.16699e-08
-1.16701e-08
2.39483e-13
1.22716e-08
-1.22126e-08
-5.90484e-11
9.65581e-12
1.97576e-11
-1.16701e-08
1.16806e-08
-1.05279e-11
3.28754e-12
-1.22124e-08
1.2221e-08
-8.64868e-12
-1.17525e-08
-3.92114e-10
-1.21392e-08
-2.13772e-12
1.15721e-08
-1.1587e-08
1.49262e-11
-1.08496e-08
-9.02961e-10
3.14408e-12
-1.1546e-08
1.15571e-08
-1.11154e-11
1.18695e-08
-1.18053e-08
-6.42336e-11
2.54973e-09
-9.80511e-09
-1.20255e-08
5.21975e-12
-1.17746e-08
-8.62425e-12
1.20622e-08
-1.21035e-08
4.13175e-11
-1.17597e-08
1.17647e-08
-4.98245e-12
-1.15412e-08
-4.72383e-12
1.16529e-08
-1.17826e-08
1.29648e-10
1.76906e-14
1.16675e-08
-1.16625e-08
-5.03169e-12
-1.15462e-08
1.15445e-08
1.68539e-12
-1.21407e-08
1.2134e-08
6.6863e-12
-1.17645e-08
1.17558e-08
8.68606e-12
-1.2133e-08
-6.21657e-12
-1.17804e-08
1.58905e-11
1.25366e-08
-1.23741e-08
-1.62492e-10
1.21283e-08
-1.19727e-08
-1.55639e-10
1.20223e-08
-1.20186e-08
-3.69632e-12
-1.16161e-08
1.16213e-08
-5.21215e-12
1.29683e-08
-4.31704e-10
-1.7218e-11
-1.2175e-08
-8.37847e-12
2.90699e-12
1.18028e-08
-8.78072e-12
-3.91417e-12
-1.21953e-11
-9.86552e-12
3.68383e-11
1.15494e-08
-1.15502e-08
7.89008e-13
1.20313e-08
3.08395e-11
2.32196e-10
1.23837e-08
-1.27233e-08
3.3958e-10
1.21253e-08
-2.91807e-12
-1.21224e-08
-1.14327e-11
-1.16236e-08
-2.96635e-12
-1.16496e-08
-1.07761e-11
1.2171e-08
-9.98549e-10
-1.11724e-08
2.01404e-08
5.33017e-11
-1.21584e-08
1.77098e-11
-1.3539e-09
-9.49567e-09
-1.21739e-08
1.55012e-11
3.19258e-12
6.34524e-10
-1.01677e-08
1.1681e-08
-1.16929e-08
1.18688e-11
-1.07725e-11
9.58188e-13
-1.31554e-08
1.71285e-08
-3.97303e-09
1.21167e-08
8.64476e-12
3.30971e-12
-1.14726e-08
-1.48139e-10
1.2553e-08
-4.24709e-10
1.20899e-08
2.67732e-11
-1.2043e-08
1.74378e-11
1.20634e-08
2.65496e-11
1.11051e-08
-5.70183e-10
-1.05349e-08
1.27786e-11
2.0392e-11
-3.67547e-10
1.1632e-08
1.49061e-11
1.51678e-11
-9.84483e-10
1.15609e-08
1.12033e-11
-2.55604e-12
-1.24703e-08
1.9034e-10
4.05562e-12
-8.66443e-11
-1.02463e-10
-1.03134e-10
1.07029e-11
-1.16071e-08
2.00922e-11
1.16828e-08
-2.14663e-12
1.08461e-11
-1.1666e-08
3.5057e-12
1.16611e-08
4.86224e-12
-4.89114e-12
8.15142e-11
2.48832e-11
3.92393e-10
4.88862e-10
-2.29643e-10
2.394e-10
-6.29207e-10
-1.37186e-09
2.19706e-09
1.03685e-09
-9.28843e-10
3.06799e-09
2.00125e-09
-1.26217e-09
-1.61113e-09
8.72051e-10
-9.79782e-09
-3.33023e-09
1.2397e-08
-1.14369e-09
-2.03503e-09
1.06394e-09
2.11477e-09
-1.13598e-09
-4.41771e-10
-1.18735e-09
8.44408e-09
-2.18603e-08
3.22158e-11
-4.16508e-11
2.18645e-08
2.30487e-08
-2.303e-08
4.56759e-11
9.67436e-12
-2.03057e-08
2.02938e-08
4.42736e-12
-2.00237e-08
2.00166e-08
-4.4958e-11
2.22034e-08
7.98055e-11
2.18573e-08
-2.18583e-08
2.21899e-08
-2.21925e-08
2.21823e-08
-2.21956e-08
-3.19549e-12
-2.01155e-08
2.01096e-08
7.96278e-12
2.21986e-08
3.16269e-13
-1.34514e-11
-1.04246e-11
2.18649e-08
2.30351e-08
-2.30325e-08
-1.53117e-11
2.22101e-08
-2.21924e-08
-2.92327e-11
-2.18595e-08
2.4875e-11
2.18649e-08
-5.14295e-12
2.30317e-08
1.41926e-11
3.29319e-11
-2.08372e-11
-2.21891e-08
2.30448e-08
-2.30479e-08
-3.76556e-11
-2.18719e-08
2.18696e-08
1.42756e-12
2.1878e-08
-1.62465e-11
-2.18862e-08
-2.30818e-08
2.30645e-08
2.79254e-11
-2.30597e-08
2.30716e-08
-9.65375e-12
2.22176e-08
-2.22685e-11
-2.22243e-08
-2.18924e-08
-1.16051e-13
2.22139e-08
-2.03621e-11
2.30542e-08
-3.1493e-11
-2.30611e-08
-7.90208e-12
2.30515e-08
-4.24771e-11
2.18816e-08
-1.73766e-11
-3.12737e-11
-4.96846e-12
-6.66967e-11
2.30563e-08
-1.23929e-11
2.22049e-08
-1.39795e-11
2.11797e-08
1.90544e-12
-2.18699e-08
3.04576e-11
-2.21761e-08
4.8786e-11
2.21986e-08
-2.30701e-08
2.30757e-08
1.5179e-11
-2.18457e-08
-7.16509e-13
-4.03575e-13
-2.18489e-08
8.52752e-12
-3.04172e-11
-2.30609e-08
-3.92099e-11
2.11461e-08
-2.11312e-08
2.2215e-08
-4.83657e-13
2.11688e-08
1.95649e-11
-2.22131e-08
2.22015e-08
2.43039e-11
-2.30741e-08
2.30639e-08
2.66681e-11
-2.18403e-08
-3.52606e-12
2.18554e-08
-2.18462e-08
-5.8408e-12
-2.1878e-08
2.18842e-08
-7.2415e-13
7.85565e-12
1.11048e-11
2.18382e-08
-2.18307e-08
-2.04295e-11
-5.20015e-12
-4.35517e-12
2.30667e-08
9.39327e-12
-2.21488e-08
8.33087e-11
2.22025e-08
8.44852e-12
2.20587e-08
-2.19703e-08
-3.90184e-12
-2.211e-08
7.75517e-11
2.18818e-08
-2.18945e-08
1.93595e-11
-2.30511e-08
2.3054e-08
-1.18734e-11
4.22557e-11
-2.1848e-08
-2.48553e-11
2.18765e-08
-2.18751e-08
-8.04679e-12
2.22143e-08
1.22709e-11
2.30801e-08
1.30358e-11
-2.18345e-08
-2.5003e-11
-2.18881e-08
5.88908e-11
2.25382e-11
2.30856e-08
2.24646e-11
2.22189e-08
2.1889e-08
6.16502e-12
2.30517e-08
-2.30474e-08
-6.16874e-11
2.17823e-08
5.13289e-09
-2.22592e-08
2.18043e-08
-2.1753e-08
6.16366e-11
-2.18304e-08
4.58845e-10
2.3052e-08
-2.30457e-08
1.26603e-12
-1.28343e-12
2.98166e-11
1.59056e-09
-2.29348e-08
6.97769e-11
2.30227e-08
-2.01147e-11
-1.88803e-08
-6.20782e-10
1.85166e-08
-1.91457e-08
-7.30553e-10
1.95088e-08
-1.11605e-11
-2.73258e-12
-1.67812e-09
3.79315e-10
-2.28302e-08
2.22437e-08
-2.22623e-08
6.24528e-11
-9.39066e-10
2.31074e-08
-2.31189e-08
4.73739e-11
-2.22521e-08
2.22069e-08
9.35975e-11
7.50618e-11
2.31108e-08
7.11452e-11
1.95021e-08
-2.29972e-09
2.3061e-08
9.96727e-11
-3.41383e-11
2.29226e-08
-2.22163e-08
3.1668e-10
2.21916e-08
-3.03124e-11
2.20666e-08
-1.61723e-10
-2.2049e-08
4.3772e-10
-2.33787e-08
2.32939e-08
-8.2743e-09
9.0431e-09
-1.5988e-08
5.73951e-10
5.48618e-10
-1.00661e-10
-3.54824e-09
8.20201e-10
5.90299e-10
1.84378e-09
-1.70807e-09
8.0785e-09
-8.22915e-09
-6.99315e-09
7.1438e-09
2.00954e-11
1.16129e-08
4.04673e-11
2.22003e-08
-1.91207e-11
1.15762e-08
4.44529e-12
1.18293e-08
-1.18337e-08
2.04232e-11
-1.21943e-08
2.38255e-11
-1.18042e-08
-2.03701e-11
1.20842e-08
2.03958e-11
-1.17133e-08
-1.03446e-11
1.16316e-08
1.86865e-11
1.22018e-08
-1.22205e-08
2.55925e-11
1.17895e-08
-1.18151e-08
3.1825e-11
1.22111e-08
1.51453e-11
-2.22493e-08
5.10636e-11
-2.19246e-08
2.19268e-08
-5.04932e-12
1.17135e-08
-1.17084e-08
7.5499e-12
-2.31045e-08
-1.54975e-10
9.27873e-09
-3.64276e-10
-1.20203e-08
1.23846e-08
-1.33901e-09
-6.98809e-09
8.32711e-09
-3.5483e-10
6.657e-09
1.97699e-09
6.7517e-09
-8.72868e-09
-3.63813e-10
4.24151e-10
-1.50072e-09
1.44039e-09
2.01069e-08
2.27958e-11
-2.03117e-08
2.56327e-11
2.00829e-08
-2.00772e-08
-2.02486e-08
2.02502e-08
-2.02657e-08
1.31136e-11
-2.10431e-08
2.1032e-08
2.11622e-08
-3.64591e-11
-1.99551e-08
1.99592e-08
2.03053e-08
-2.02668e-08
-2.10413e-08
1.77468e-11
-2.02538e-08
2.33791e-11
2.11737e-08
-2.10721e-08
2.02343e-08
-1.77257e-12
1.82464e-08
-1.80847e-08
2.10168e-08
2.62461e-12
-1.99735e-08
-1.84636e-11
1.63982e-08
-1.88134e-09
2.00054e-08
2.37693e-11
1.69883e-08
-1.69054e-08
1.59393e-08
1.14151e-09
-1.51038e-08
1.22119e-09
1.86579e-09
2.3649e-09
3.52739e-09
-2.10967e-09
-3.78262e-09
-5.20067e-10
-2.15593e-09
6.0964e-10
2.06636e-09
-5.63393e-10
-8.7263e-10
7.9428e-10
4.33067e-09
-1.96278e-09
7.55182e-09
-2.91127e-10
-1.21229e-08
1.2414e-08
8.24666e-10
-9.72388e-10
-1.84961e-09
1.7537e-09
-1.01389e-08
1.19357e-08
3.73061e-09
-1.55665e-08
-2.93168e-09
1.02414e-08
8.25682e-09
4.23723e-09
2.94589e-09
-3.77256e-09
-1.68772e-09
-1.32484e-09
-2.61404e-09
2.09539e-09
1.84349e-09
-6.92176e-09
-2.72048e-09
1.07349e-09
6.37577e-10
9.62551e-09
-1.00638e-08
1.2101e-09
1.35064e-09
8.54299e-10
-2.51885e-09
-8.82627e-10
2.07664e-09
4.4864e-09
8.7766e-10
1.35585e-09
5.30739e-10
-1.06192e-09
-1.15926e-08
-1.90226e-09
1.22959e-09
1.22653e-08
8.78e-09
1.06073e-09
-9.84073e-09
-1.10045e-08
1.20916e-09
1.44681e-08
-5.98461e-10
8.86715e-09
-8.19074e-09
-6.22947e-09
-2.50317e-09
2.82018e-09
2.37756e-09
-5.98881e-09
-8.10094e-09
8.51847e-12
2.71119e-11
8.41453e-09
3.89245e-09
-1.00759e-08
-2.47968e-09
7.32072e-10
-1.97619e-08
1.18933e-08
7.13653e-09
-7.04952e-09
4.6107e-09
-5.33112e-09
3.04204e-09
3.21731e-09
1.61115e-09
-1.34304e-08
-1.48968e-09
-2.12829e-11
4.45602e-09
1.38818e-09
1.25228e-09
7.46191e-10
5.33217e-09
-2.10549e-08
8.08236e-10
-4.35657e-09
-7.32865e-10
2.04607e-09
2.74027e-09
-2.42144e-09
-1.34115e-09
4.17582e-10
4.22865e-10
9.84708e-09
-6.00067e-10
7.59486e-10
6.18946e-10
6.64757e-10
3.00136e-09
-1.54009e-08
2.53988e-09
1.23672e-08
4.93801e-10
6.71396e-09
3.62422e-09
-9.40006e-09
3.19566e-09
1.7109e-09
-4.44286e-09
5.94926e-09
2.89967e-09
1.57483e-08
-3.12547e-09
-1.75416e-08
-4.60861e-09
7.28397e-10
5.59111e-09
5.10219e-09
8.52862e-09
-2.59504e-09
-1.10358e-08
6.65814e-09
3.37809e-09
-2.62959e-09
-8.12172e-10
-9.38574e-10
-1.21322e-09
7.87022e-09
-5.42987e-10
9.82171e-09
5.0704e-11
1.21604e-08
-1.46179e-11
1.16462e-08
-1.77706e-11
1.2102e-08
-2.06773e-11
1.15969e-08
1.58109e-11
1.15971e-08
-1.98348e-08
5.86115e-10
1.88844e-08
-1.17933e-09
3.07415e-09
6.12707e-09
-4.22592e-09
4.24271e-09
6.25959e-09
-4.37523e-09
1.05146e-08
-1.4474e-08
2.4884e-09
6.98492e-10
-7.01633e-10
-1.26099e-12
-1.45182e-09
-1.74289e-11
1.16113e-08
2.28982e-09
-3.78678e-09
-2.3094e-08
-2.22331e-08
-2.11754e-08
-2.23062e-08
2.1971e-08
-2.37854e-08
2.3275e-08
-2.19003e-08
-2.199e-08
2.1795e-08
-6.28743e-09
1.17322e-08
-1.18055e-08
1.18641e-08
2.19115e-08
-2.19243e-08
-9.87804e-09
1.17915e-08
1.21971e-08
-2.30197e-08
2.28342e-08
1.22216e-08
-1.47528e-11
1.16975e-08
1.18205e-08
2.3093e-08
-2.30859e-08
2.22321e-08
-2.22196e-08
2.03375e-08
-2.22004e-08
2.2202e-08
-2.18586e-08
2.18441e-08
-2.30363e-08
2.30348e-08
1.18187e-08
2.22319e-08
-2.22193e-08
2.11329e-08
1.17309e-08
-2.01073e-08
2.00683e-08
2.18906e-08
-2.18807e-08
-2.04196e-08
-7.04157e-12
1.18308e-08
2.2184e-08
1.22057e-08
2.30705e-08
-2.30673e-08
-2.77385e-10
-6.92916e-09
-2.6473e-09
1.10347e-08
-8.66481e-09
-7.22934e-09
-1.23361e-08
1.09216e-09
1.07553e-10
8.72322e-09
-3.77417e-11
6.35573e-10
2.0975e-08
-1.5453e-08
8.73866e-09
2.12941e-11
-1.1436e-11
1.95223e-11
-1.76179e-11
-2.02727e-08
4.15407e-12
2.87089e-12
2.00978e-08
2.48803e-11
1.8361e-11
-1.44544e-11
-3.84409e-11
-1.99586e-08
-2.5869e-11
1.09197e-11
-2.03288e-08
-3.8646e-11
4.95615e-11
-8.40574e-11
1.85705e-11
-5.46608e-12
-3.79338e-11
-2.347e-09
1.55093e-09
7.52626e-11
1.56181e-10
8.77741e-12
-1.08231e-12
2.11874e-08
3.7017e-11
-8.1284e-10
-1.95686e-09
1.55583e-11
2.02811e-08
1.27953e-11
2.10514e-08
6.38914e-10
-4.64263e-10
-8.39739e-09
-3.13346e-09
-1.20768e-09
-9.45644e-10
-1.23317e-08
-3.63563e-09
-1.40106e-08
5.54122e-09
1.15597e-08
-1.4561e-08
-8.23655e-10
1.2086e-09
-5.48266e-12
6.51125e-12
2.00968e-08
9.73566e-12
-2.02895e-08
-5.68557e-11
5.72151e-11
2.11871e-08
-7.29867e-12
-1.9966e-08
-5.65477e-09
-1.71109e-08
-4.33401e-09
-2.79593e-09
2.42408e-08
5.03221e-10
2.45239e-09
-5.34428e-09
3.60314e-09
1.07864e-08
-1.20692e-08
6.82396e-09
2.51502e-09
-9.02196e-09
-1.89777e-08
1.748e-08
9.20827e-09
-6.28827e-11
4.14726e-09
2.05722e-10
1.00358e-08
-4.98883e-09
2.00919e-08
-1.33375e-08
4.70919e-09
-4.93309e-10
-1.32432e-08
2.24061e-09
2.09455e-09
8.908e-09
1.23491e-08
-9.66381e-09
-1.70322e-10
-2.31382e-09
1.10938e-08
6.44632e-09