/*--------------------------------*- C++ -*----------------------------------*\
  =========                 |
  \\      /  F ield         | OpenFOAM: The Open Source CFD Toolbox
   \\    /   O peration     | Website:  https://openfoam.org
    \\  /    A nd           | Version:  8
     \\/     M anipulation  |
\*---------------------------------------------------------------------------*/
FoamFile
{
    version     2.0;
    format      ascii;
    class       surfaceScalarField;
    location    "6";
    object      phi;
}
// * * * * * * * * * * * * * * * * * * * * * * * * * * * * * * * * * * * * * //

dimensions      [0 3 -1 0 0 0 0];

internalField   nonuniform List<scalar> 
8330
(
-7.49244e-09
3.52376e-10
8.75633e-11
7.0525e-09
6.93578e-09
-5.4247e-09
-1.51108e-09
-4.62567e-09
5.15329e-09
-5.27616e-10
-3.29341e-10
-5.43984e-12
5.14093e-10
-1.79313e-10
-3.62698e-09
4.22244e-09
7.31439e-09
-7.90985e-09
5.85187e-09
4.83918e-09
-6.37145e-09
-4.31961e-09
-9.8954e-09
1.02183e-09
-2.50636e-10
9.1242e-09
-9.73497e-10
-8.06088e-09
8.78012e-09
2.54259e-10
-1.33679e-08
-7.30133e-10
-9.1516e-10
1.50132e-08
-7.46228e-09
8.08158e-10
-1.26813e-10
6.78094e-09
8.67502e-09
-8.57642e-09
-4.56891e-11
-5.29056e-11
9.05799e-09
1.74295e-09
-6.97661e-09
-3.82433e-09
-1.9121e-10
8.15831e-09
7.07912e-10
7.22534e-09
-8.92447e-10
3.15351e-10
-6.64825e-09
4.73918e-10
3.43458e-10
-1.01708e-08
9.35342e-09
-7.85138e-09
7.92558e-09
-1.11695e-10
3.74943e-11
-3.93766e-10
4.80752e-09
-4.41376e-09
-3.27764e-09
4.12057e-09
-3.66696e-09
2.82402e-09
-8.28818e-09
-3.67173e-10
7.89327e-11
8.01524e-09
-7.96354e-09
-1.21286e-10
6.95851e-11
8.12822e-09
-8.07292e-09
-1.64715e-10
1.09415e-10
3.82075e-10
-8.60389e-09
-1.34227e-10
8.35604e-09
7.59407e-09
2.41724e-10
-1.76848e-10
-7.65895e-09
-8.16347e-09
8.25607e-09
2.10753e-11
-1.13675e-10
7.63618e-09
-4.84155e-10
1.31986e-10
-7.28401e-09
-8.68123e-09
5.86359e-10
-2.67076e-10
8.36195e-09
-8.04731e-09
-3.54815e-10
-9.12243e-11
8.49335e-09
5.06468e-10
-8.38366e-09
8.59003e-09
-7.12838e-10
-8.14035e-09
-1.44463e-10
1.21338e-10
-2.36419e-09
5.03296e-09
-5.51055e-09
2.84178e-09
8.0383e-09
-7.54786e-09
3.19976e-11
-5.22439e-10
8.57633e-09
4.93509e-10
1.24873e-10
-9.19471e-09
8.11765e-11
-8.47399e-09
-8.59676e-12
8.40142e-09
7.23502e-09
-1.47959e-09
7.15664e-10
-6.47109e-09
5.53383e-09
-7.18934e-09
1.65551e-09
9.09124e-09
-1.07769e-08
2.25531e-09
-5.6964e-10
1.01981e-10
-2.61941e-10
4.44391e-10
7.93478e-09
2.30779e-09
-1.0687e-08
-5.72049e-11
1.2897e-08
4.10152e-10
-1.325e-08
-5.53126e-09
5.69541e-09
-1.64152e-10
-7.34312e-09
2.25226e-09
-2.08063e-09
7.17149e-09
2.03807e-10
-6.18972e-10
8.45347e-09
4.14495e-09
5.03888e-09
-4.38134e-09
-4.80249e-09
7.21631e-09
-6.25485e-09
-7.62477e-10
-1.98993e-10
-8.29676e-09
-5.51376e-10
-4.45109e-10
9.29325e-09
1.0709e-09
-3.89921e-10
8.33914e-09
-9.02012e-09
-1.06318e-08
-1.37538e-08
-8.64154e-09
1.55919e-09
-1.56056e-10
7.2384e-09
1.1307e-08
1.70633e-10
-4.29493e-10
-1.10482e-08
7.75745e-09
-7.69783e-09
-1.19245e-10
5.96314e-11
-8.61477e-09
-4.83858e-10
1.07114e-08
-1.61274e-09
2.33145e-09
-2.46307e-09
-7.73431e-09
7.86594e-09
9.1983e-09
-9.68946e-09
5.2907e-09
-4.79954e-09
-1.19109e-08
-1.59515e-09
1.3506e-08
-1.60178e-08
9.5186e-09
6.49916e-09
-9.68821e-09
2.04257e-09
-2.97875e-10
7.94351e-09
-3.92311e-11
-7.40641e-09
-1.6646e-11
1.524e-09
-2.05088e-09
7.7619e-09
9.08226e-09
-1.08995e-08
-2.39876e-09
4.21602e-09
-3.69099e-10
-3.94271e-09
4.53848e-09
-2.26667e-10
8.19359e-11
-1.39612e-10
-7.87052e-09
1.89352e-10
-3.93614e-10
8.07478e-09
-7.52256e-09
7.72741e-09
1.29019e-10
-3.33866e-10
-7.80659e-09
-8.46289e-11
3.98396e-11
-3.56657e-09
1.55329e-08
-1.34157e-08
1.44938e-09
-4.66933e-10
1.08236e-10
-4.45973e-09
7.07071e-09
1.53397e-09
-5.17807e-10
1.45393e-10
7.56451e-09
-7.1921e-09
5.65075e-09
-3.64805e-09
-8.7157e-09
6.713e-09
-8.92391e-09
-5.61037e-09
2.97899e-09
1.15553e-08
1.62039e-09
5.69879e-09
-7.31918e-09
7.36797e-10
-9.09603e-09
1.47598e-10
8.21164e-09
-7.37116e-09
-1.27855e-09
-2.48645e-10
8.89836e-09
-7.69205e-09
1.77367e-09
-6.35953e-10
6.55433e-09
7.64039e-09
-7.56522e-09
-1.46544e-10
7.13722e-11
7.93724e-09
1.47099e-09
-7.78784e-09
-1.06126e-09
7.03227e-09
-5.97101e-09
3.54517e-09
5.93904e-09
-6.75042e-09
-2.73379e-09
-3.32938e-09
3.68697e-09
-1.51963e-09
1.16204e-09
3.25587e-09
-9.93155e-09
-2.46622e-09
9.1419e-09
8.06995e-09
-7.8159e-09
-1.18716e-10
-1.35339e-10
5.58533e-09
-5.47252e-09
-1.12806e-10
-5.39543e-09
-2.09184e-10
5.60462e-09
8.55534e-09
-8.69497e-09
2.53547e-10
-1.13916e-10
-3.02614e-09
1.10946e-09
-1.4127e-09
3.38663e-10
5.19517e-09
1.21413e-09
-2.5816e-09
-1.50218e-09
2.86965e-09
-7.36681e-09
7.41951e-09
1.77576e-10
-2.30282e-10
-8.41126e-09
1.33039e-08
-1.04135e-08
5.52094e-09
8.48066e-09
4.87448e-10
-3.91773e-10
-2.10091e-09
-1.31822e-08
1.17166e-08
-9.25443e-09
9.35536e-10
-2.87337e-10
8.60623e-09
-7.1485e-09
8.40458e-10
-7.26208e-09
1.35701e-08
2.8349e-09
1.06377e-09
-1.11299e-09
-2.78568e-09
-7.3561e-09
7.46896e-09
-7.38584e-11
-3.90012e-11
-6.35128e-10
-6.94406e-09
5.66335e-11
-5.11157e-09
-2.8386e-10
7.30751e-11
-1.11035e-10
8.84366e-09
2.30971e-10
-2.3351e-10
-8.84112e-09
8.47441e-09
-8.29632e-09
2.9583e-10
-2.44974e-09
2.73366e-09
9.30203e-10
-7.40951e-09
7.51187e-09
-1.24739e-10
2.23774e-11
6.91487e-11
-8.41614e-11
8.68293e-09
-8.66792e-09
5.48361e-09
-5.62356e-09
1.39954e-10
-7.23747e-09
1.18527e-08
7.54661e-09
-1.21618e-08
1.07886e-10
4.86628e-09
-4.97417e-09
1.54187e-10
-5.37071e-09
5.21653e-09
-4.38438e-09
-5.4151e-09
5.59775e-09
4.20173e-09
-1.21782e-08
1.08488e-08
1.32939e-09
5.18486e-10
-5.46368e-09
4.94519e-09
-4.75959e-10
9.00381e-09
-1.40508e-08
5.52299e-09
8.65764e-10
-3.01243e-10
-9.17843e-09
8.61391e-09
-8.17844e-09
8.31463e-09
-3.50831e-10
2.1464e-10
-4.96948e-10
9.18951e-09
-1.8401e-10
-8.50855e-09
-1.43154e-10
-1.1689e-11
1.39487e-09
-8.30375e-09
-1.46012e-09
8.369e-09
9.16401e-10
-1.11348e-08
8.55905e-10
9.36246e-09
-1.90664e-11
6.84331e-09
1.45865e-09
-8.28289e-09
-1.86304e-10
2.01996e-10
-1.39831e-09
1.38262e-09
-8.48653e-09
8.39171e-09
-7.14265e-09
-1.42644e-09
-7.77593e-09
8.27207e-09
9.30293e-10
6.13306e-09
-5.6266e-09
9.32702e-09
6.4704e-10
-8.5792e-09
-7.64322e-09
4.72868e-09
1.03974e-08
-7.48283e-09
8.81786e-09
-8.95141e-09
2.31944e-10
-9.83978e-11
-9.05776e-09
1.20258e-09
8.53432e-09
-6.79145e-10
-1.82105e-09
9.73829e-09
8.72736e-10
-8.78997e-09
-7.35291e-09
-4.64817e-11
-1.01145e-11
-7.98151e-09
-7.151e-10
3.12942e-10
-7.68743e-09
-2.25937e-09
2.58587e-10
7.49981e-11
5.04183e-10
-8.75762e-09
4.83899e-10
8.24636e-09
7.07117e-11
-8.80097e-09
-9.22422e-11
-5.67286e-09
5.7651e-09
-9.46444e-09
9.79181e-10
-4.4658e-10
8.93184e-09
-7.50869e-09
3.85451e-10
-1.17352e-09
3.74812e-10
-3.21206e-09
-8.82148e-11
2.92546e-09
7.03334e-09
-1.79851e-09
-5.23483e-09
-4.73685e-10
2.7452e-09
5.63387e-10
6.76378e-09
-8.78903e-09
2.62199e-09
-5.96741e-10
7.03266e-09
-3.1054e-09
-6.29145e-09
-4.7622e-09
3.89931e-10
4.37227e-09
2.1938e-10
7.63563e-09
-7.81148e-09
-4.35322e-11
5.63617e-09
-1.86987e-08
-9.73125e-09
9.67489e-10
4.56649e-10
-1.07201e-09
-6.89333e-09
-5.97196e-10
5.88095e-10
-7.53876e-09
-8.67122e-09
5.55257e-09
3.26866e-09
-1.5e-10
-9.79309e-11
8.83398e-11
2.00203e-10
-1.90612e-10
2.20786e-09
4.57437e-09
-1.84519e-11
-1.45595e-08
-5.47762e-09
5.48228e-11
-1.03968e-10
-7.87156e-09
5.44365e-09
1.3873e-08
-1.14451e-08
5.71766e-09
-1.02684e-08
5.00837e-09
-4.5765e-10
-7.81843e-09
5.89287e-09
-8.78185e-10
-8.28833e-09
1.7878e-09
7.37871e-09
1.09024e-09
-2.55994e-09
9.11958e-09
-7.64988e-09
-1.07854e-08
1.29827e-08
2.4035e-09
-4.60081e-09
-1.3863e-09
8.91409e-10
1.18019e-08
1.15191e-09
-1.57248e-09
4.10754e-09
-2.3302e-10
8.99097e-11
2.21513e-09
-1.9937e-09
-9.87365e-10
7.65936e-10
-2.78927e-10
-5.65794e-09
5.93687e-09
-1.09778e-09
3.4414e-10
8.17024e-09
-7.41661e-09
1.30163e-08
-1.11143e-10
-3.57812e-09
-4.08008e-09
-6.14096e-09
5.33828e-10
9.68721e-09
1.87117e-09
8.04648e-09
-2.55122e-09
-7.36643e-09
-3.81676e-09
1.15678e-08
6.80215e-10
-8.43129e-09
-9.27324e-09
6.521e-09
3.66864e-09
1.07521e-08
-4.02324e-09
8.57548e-09
-1.53043e-08
-3.20881e-09
2.25156e-09
-6.82632e-09
7.78357e-09
4.8914e-11
-1.6126e-09
6.06081e-10
-1.4979e-09
9.24465e-09
-8.35283e-09
5.72043e-09
3.60587e-11
-5.75649e-09
-8.82912e-09
-4.12686e-09
1.02368e-08
2.71913e-09
-4.49084e-09
-6.03706e-09
6.14353e-09
-8.33182e-09
9.4286e-09
2.13879e-09
-3.23557e-09
-9.22699e-10
-7.94257e-09
8.20862e-10
8.04441e-09
3.62473e-09
-8.26419e-09
5.01021e-09
-3.70754e-10
-9.01309e-09
-1.2924e-09
8.87905e-09
-8.24896e-12
5.72925e-09
-5.721e-09
3.92889e-09
-9.2313e-09
-3.94968e-09
9.25209e-09
-9.53174e-09
2.47665e-10
8.47782e-10
8.4363e-09
8.786e-09
-4.68595e-09
-5.21359e-09
1.11354e-09
-1.85952e-09
5.42355e-09
-1.19753e-08
4.89865e-09
-5.21316e-09
-1.09411e-08
1.12556e-08
-7.17841e-09
6.14676e-09
-2.24599e-09
1.79582e-09
-1.54097e-09
-8.4464e-10
5.89791e-10
5.24071e-09
-1.01952e-08
-1.23431e-08
1.72976e-08
6.9475e-09
-1.71088e-09
-7.4649e-09
2.22829e-09
8.3719e-09
-1.70052e-09
-5.39379e-11
-7.50087e-09
7.89347e-09
-7.77062e-09
-8.37391e-10
4.63014e-10
8.145e-09
-9.08669e-09
-9.60504e-09
1.28134e-08
5.87837e-09
-2.11209e-09
-8.14138e-09
8.26392e-09
1.98955e-09
-1.41975e-10
-1.12747e-08
-7.06002e-10
1.21226e-08
8.28689e-09
-8.52697e-09
-7.46446e-11
3.14718e-10
3.72556e-10
-2.05407e-10
-8.63388e-09
8.46673e-09
-8.58712e-09
1.33212e-09
6.55084e-09
7.0417e-10
8.00149e-09
-8.35333e-09
9.23946e-10
-5.72102e-10
7.98776e-11
-1.37322e-10
-3.93162e-09
1.93221e-09
1.59462e-10
-1.6711e-10
-7.34845e-09
-6.08701e-10
1.97566e-10
-1.29606e-09
-1.53644e-10
-7.22152e-09
-2.6901e-09
1.2239e-08
-1.37521e-08
4.20316e-09
-6.50237e-09
-5.01596e-09
5.26348e-09
1.12994e-08
-4.65112e-09
-8.34036e-09
1.69212e-09
8.45729e-10
-1.08034e-09
6.55046e-10
6.77018e-10
-1.08638e-08
1.51866e-08
-1.27602e-08
1.13257e-09
-3.55898e-09
-9.85498e-09
-1.22843e-10
7.99225e-09
1.98557e-09
3.57991e-09
-3.5742e-09
1.62116e-09
-7.83028e-09
-2.1227e-09
7.27878e-10
-9.25761e-10
2.4292e-10
-1.872e-10
-1.10426e-10
5.47055e-11
1.35514e-09
-1.16074e-09
-3.807e-10
-4.50455e-11
-1.18032e-10
8.11975e-11
8.18796e-11
-6.65591e-10
4.79758e-10
-5.4729e-09
-9.33482e-09
5.23596e-09
9.57176e-09
-9.8076e-11
-8.71433e-09
-1.45597e-09
4.35025e-09
-4.47049e-09
5.63312e-09
-5.51289e-09
8.07007e-09
-7.64514e-09
1.68685e-10
-5.93618e-10
-3.83929e-10
-3.30182e-09
-1.23213e-08
-3.05831e-09
4.01453e-09
1.13651e-08
-8.62326e-09
3.14579e-10
7.1149e-09
-8.05707e-09
4.61429e-10
4.80738e-10
4.78342e-09
-8.52307e-09
8.46833e-09
-1.86615e-09
-1.20119e-09
7.18792e-09
3.94945e-09
-8.37322e-09
8.35265e-09
-9.75674e-09
4.58953e-09
1.09887e-08
-5.82144e-09
-9.565e-09
2.98892e-09
-2.437e-09
1.16695e-08
-1.3166e-08
6.39513e-09
-2.75366e-11
5.5776e-09
-5.55006e-09
2.53117e-11
-3.11428e-09
8.52539e-09
-2.35201e-10
2.44446e-11
-3.18213e-09
2.64842e-09
2.98785e-09
-2.45415e-09
-2.93748e-10
-8.77867e-09
1.03786e-08
-1.30616e-09
-4.2962e-10
1.80581e-10
-7.11777e-09
6.81139e-09
-2.20055e-09
2.88343e-10
-4.89918e-09
5.60293e-09
-4.8222e-09
5.34071e-09
-6.12144e-09
-1.38459e-08
1.54382e-08
-8.74087e-09
-5.81965e-09
6.08955e-09
1.13996e-08
-1.83173e-09
-1.31796e-08
-9.03631e-09
1.06408e-09
-2.74054e-10
8.24628e-09
8.77783e-09
-5.48732e-10
-1.07074e-10
-8.12202e-09
-4.55421e-09
-1.22227e-08
4.45528e-09
-5.05933e-09
3.30655e-09
-2.7025e-09
-4.69138e-09
4.13892e-09
-3.18726e-09
3.73972e-09
-3.42504e-10
-8.06693e-09
8.34889e-09
6.05447e-11
-5.13109e-10
-5.01815e-09
8.80609e-09
-3.16446e-09
-3.80041e-10
-5.26159e-09
7.68101e-09
-5.17485e-09
-3.50966e-09
1.0035e-09
9.48256e-09
1.63684e-09
-2.63874e-09
1.18403e-08
3.21246e-09
-6.82378e-09
-8.22898e-09
9.76469e-10
9.14937e-09
1.71447e-09
-4.8107e-09
-4.15762e-10
-1.18324e-09
6.4097e-09
4.43099e-10
-3.72886e-10
-1.3909e-10
6.88781e-11
3.10069e-10
8.391e-09
-8.0708e-09
-6.30272e-10
8.34385e-11
4.92664e-09
-5.01008e-09
-4.5641e-09
-5.42107e-09
6.41817e-09
-2.49208e-09
4.29837e-09
-8.22446e-09
-1.73792e-09
-1.10094e-08
7.53419e-09
-4.19417e-09
8.99367e-09
8.51257e-10
-9.72941e-09
-1.53458e-09
1.79955e-09
-7.30129e-09
3.21296e-09
3.94212e-09
1.46216e-10
8.40058e-11
-1.37354e-10
1.14775e-08
-1.2432e-08
-1.14641e-09
5.52621e-09
-5.21614e-09
-1.10493e-08
3.82971e-10
1.10098e-08
-1.00999e-09
1.43612e-09
4.60683e-09
7.08063e-09
-6.94307e-09
-2.24902e-10
8.73443e-11
-6.1008e-10
6.99147e-10
-1.82611e-10
9.35446e-11
-2.02582e-10
8.87873e-09
-8.47317e-09
-3.51297e-09
2.87907e-09
9.10707e-09
-8.4483e-10
-1.29038e-08
5.66407e-10
8.02417e-09
-8.12203e-09
1.18773e-10
-2.09074e-11
-3.63735e-09
3.44806e-09
-2.99284e-09
4.16511e-10
-5.00756e-09
4.59105e-09
-4.93234e-10
5.7628e-10
-4.13556e-10
3.3051e-10
-8.43747e-10
9.90931e-10
-2.70742e-10
1.23557e-10
1.3313e-09
2.61223e-09
-2.33202e-09
-8.6608e-09
8.38058e-09
6.11154e-09
3.71739e-09
9.08883e-11
-9.91982e-09
-8.75958e-09
-5.8178e-09
7.34672e-09
7.23066e-09
-7.45521e-09
3.49178e-10
-6.64585e-10
3.6012e-09
6.25783e-09
1.52321e-10
-1.00114e-08
-3.01479e-10
1.60741e-10
-7.84077e-09
-1.46291e-09
1.32888e-09
-2.18778e-09
2.32181e-09
-9.27345e-09
5.15653e-09
-1.44864e-09
5.56556e-09
4.9732e-09
4.66738e-09
-2.23245e-09
-7.40813e-09
7.83438e-09
2.39516e-10
-9.95777e-10
-7.07812e-09
-3.84611e-09
-7.72816e-09
4.15106e-10
1.11592e-08
3.05e-10
-1.19605e-10
5.75253e-11
-6.14301e-09
-2.84805e-09
4.93241e-09
4.05865e-09
-1.8513e-09
-9.6003e-09
6.47554e-09
4.97605e-09
2.50192e-09
2.1031e-10
8.55257e-09
-8.46612e-09
-1.39775e-10
5.33268e-11
7.71154e-09
-1.62337e-09
-5.65987e-09
-4.28301e-10
2.02139e-09
-1.06842e-08
-1.55121e-09
1.0214e-08
-7.7877e-09
-6.82547e-10
8.54525e-09
5.19283e-10
-1.48157e-10
7.19733e-11
6.5809e-09
-1.14394e-10
-6.52212e-09
5.56144e-11
8.65393e-09
2.43151e-10
-7.92231e-11
-7.60889e-09
-7.13007e-10
7.92144e-09
4.00462e-10
1.81634e-10
-1.46223e-10
8.11876e-09
-8.15417e-09
2.27814e-09
8.46634e-09
-1.24824e-08
-7.77756e-09
4.06635e-09
-1.96393e-09
5.67514e-09
8.77474e-09
3.61225e-11
8.84899e-11
-8.89936e-09
-9.60768e-09
-1.65997e-09
2.2099e-09
7.34268e-09
6.07884e-11
8.19857e-09
-8.07938e-09
-1.79981e-10
7.87915e-09
-1.70745e-10
1.25974e-10
-5.44684e-09
6.29689e-09
-5.53157e-09
4.68153e-09
-2.26882e-09
9.56428e-09
1.07644e-09
6.90365e-09
-6.77859e-09
-2.03336e-10
7.82807e-11
2.79619e-09
8.25629e-09
-7.66563e-09
-3.38686e-09
-4.44767e-09
-1.43369e-09
1.53135e-09
4.35002e-09
-7.84155e-09
7.78682e-09
1.04644e-10
-4.99122e-11
-1.05229e-08
-1.51421e-09
1.06508e-08
3.73036e-11
8.73178e-09
-8.68692e-09
-1.57098e-09
1.52613e-09
7.79549e-11
-1.68752e-10
4.02756e-09
-4.85297e-09
-1.48319e-09
2.30861e-09
1.00191e-10
-2.44791e-10
-1.39565e-08
1.62354e-08
1.828e-10
-1.22424e-09
1.24343e-09
-7.38925e-09
1.58947e-09
8.41202e-09
-7.51044e-09
-6.60732e-09
1.93956e-09
-1.37955e-08
7.86167e-10
-1.52099e-09
1.45304e-08
8.99086e-09
-3.00046e-09
-1.05545e-08
-7.19616e-09
1.32293e-10
-4.76728e-10
7.5406e-09
6.12262e-10
-8.01033e-10
8.32531e-09
-8.13654e-09
-1.73463e-09
-7.88426e-09
8.25117e-10
8.79378e-09
6.06276e-11
-1.28514e-10
-6.13697e-09
4.85479e-09
-9.65888e-09
-1.4569e-08
-2.74809e-09
7.75212e-09
-5.41987e-09
2.37443e-09
-5.70007e-09
8.74551e-09
-2.39685e-09
-2.02601e-09
2.95996e-09
7.9022e-09
-3.52644e-09
9.13072e-11
8.14045e-10
2.62109e-09
9.79198e-09
-2.0521e-09
7.78264e-10
-8.51815e-09
-9.07748e-09
8.70041e-09
6.24739e-10
7.57913e-09
-7.6817e-09
1.55623e-10
-5.30479e-11
5.28034e-09
-5.71616e-09
6.7398e-09
-6.30399e-09
-6.66605e-09
4.65542e-09
-3.58734e-09
5.59797e-09
1.10854e-09
6.51911e-11
-1.55044e-09
3.54237e-09
2.03562e-09
-1.14937e-08
8.08525e-09
1.55712e-09
-2.20254e-09
-1.07525e-08
3.91219e-09
-1.89035e-09
-3.54147e-09
-2.72259e-09
-9.10118e-09
1.12432e-08
5.80577e-10
-1.25416e-09
-8.81e-09
1.68231e-09
8.38185e-09
-9.30655e-11
2.75005e-09
-1.05426e-08
1.7402e-09
-2.28866e-09
1.10911e-08
-8.08204e-10
4.56349e-10
-7.33557e-09
-3.15916e-09
1.10897e-08
1.49804e-09
1.86412e-09
7.86531e-09
-8.65852e-09
9.75264e-09
4.51173e-09
-1.36093e-08
-8.33005e-09
2.06179e-09
9.48071e-09
-5.63268e-09
4.87317e-09
-5.69621e-09
6.45571e-09
6.77211e-09
-6.43296e-09
-9.61239e-09
-3.29142e-09
9.30061e-09
6.33975e-09
-2.58785e-10
-6.12146e-09
4.04918e-11
7.34294e-09
-6.86656e-09
1.67962e-09
-2.15599e-09
-1.0654e-09
-1.14822e-08
8.68156e-09
2.78163e-10
-7.86948e-09
-1.33621e-10
4.84255e-11
-1.02005e-10
3.19255e-09
1.33194e-08
-1.65119e-08
-3.43919e-09
-4.50321e-09
1.93412e-09
6.00828e-09
-7.48355e-09
8.06132e-11
-2.12134e-11
7.42415e-09
-2.95592e-11
4.34405e-11
-7.36679e-09
-1.00958e-08
-3.54107e-09
1.04777e-08
8.1482e-09
-7.33757e-09
-1.78356e-09
9.72927e-10
-8.13458e-09
1.28009e-09
8.47565e-09
-9.91778e-09
4.70177e-11
9.5521e-09
3.18663e-10
3.0011e-09
-1.69648e-09
1.78526e-09
-3.08988e-09
1.68329e-09
-1.12102e-08
-7.7357e-10
1.03005e-08
6.7344e-09
-2.04815e-10
5.13084e-11
-9.0213e-10
1.41742e-09
3.06462e-09
-1.00048e-08
2.72367e-09
7.38906e-09
4.51865e-11
-8.9792e-11
-8.90153e-11
1.39077e-09
1.21388e-08
-2.25171e-09
-1.12778e-08
-7.49764e-09
9.63952e-09
8.15842e-09
-1.03003e-08
-4.27937e-09
-4.35558e-09
1.24569e-09
2.32995e-10
7.33855e-09
8.2684e-09
-5.46611e-11
1.01273e-09
-9.58073e-10
-5.28985e-09
4.51181e-09
-4.63707e-09
2.22689e-10
9.04193e-09
-4.89872e-10
-6.11508e-10
5.82898e-10
-1.03264e-09
1.06125e-09
-1.39571e-09
9.41306e-10
-9.85171e-09
1.03061e-08
-4.99308e-09
7.59353e-09
3.90148e-09
-6.50193e-09
-2.72525e-11
-3.57977e-10
4.71118e-11
3.38117e-10
8.97699e-11
-1.69056e-09
1.97198e-09
-3.71192e-10
-2.06466e-09
9.25987e-09
-5.74455e-09
-1.45066e-09
-3.76573e-09
4.29373e-09
5.03671e-09
-5.56472e-09
4.35634e-09
-6.50194e-09
-3.23894e-09
5.38454e-09
4.20265e-09
9.80008e-09
-6.65979e-09
-9.79467e-09
1.39421e-09
9.50819e-12
2.80954e-11
-4.6932e-09
4.88158e-09
-3.86063e-09
3.67225e-09
-7.34548e-09
-4.76741e-09
-1.10194e-08
-1.0006e-08
8.73491e-09
7.48698e-09
-6.21587e-09
-1.14403e-09
1.0739e-09
-5.41372e-10
-1.0661e-08
-1.9049e-09
-8.02019e-10
-8.42845e-09
7.71723e-09
1.29499e-10
-5.9907e-11
2.05932e-09
8.63997e-09
-1.60805e-09
8.75676e-09
3.17066e-10
-1.12449e-08
1.06451e-08
-2.45853e-09
-5.73664e-09
7.03942e-09
-8.47553e-09
7.17275e-09
3.15439e-09
-6.20427e-09
-3.39821e-09
6.44809e-09
-3.67668e-09
-4.42464e-09
4.46398e-09
-5.61808e-09
8.31073e-10
-1.46141e-09
1.29556e-09
2.55623e-10
-7.65046e-09
7.61683e-10
7.30529e-09
1.58146e-10
-1.47164e-08
9.11459e-09
5.44365e-09
-1.20739e-08
1.03603e-08
3.10439e-09
4.26613e-09
-1.41226e-08
1.21347e-08
-2.42572e-09
4.53608e-10
9.65313e-09
3.88659e-09
1.75262e-09
-2.19115e-09
-9.14146e-09
8.67756e-09
5.69112e-09
-5.22722e-09
1.73942e-09
-1.81471e-09
3.07638e-09
-2.22856e-09
4.4512e-09
-1.25122e-08
-4.63416e-09
-1.19304e-08
-1.14623e-09
4.90942e-09
8.01754e-09
-8.14355e-09
1.2167e-09
-8.27584e-10
1.93781e-10
8.95165e-10
-1.19931e-08
-4.50168e-09
1.55997e-08
6.13059e-09
-5.56308e-09
3.1093e-09
-3.6768e-09
-8.03644e-09
1.32537e-09
-1.03636e-09
7.74742e-09
-4.44157e-10
1.00393e-09
3.6342e-10
-9.23198e-10
-8.1343e-10
-6.9946e-09
7.55475e-09
2.53283e-10
7.02196e-09
-7.79692e-09
-4.64491e-09
4.4796e-10
-6.18367e-10
-1.44193e-09
1.61233e-09
-1.23255e-08
8.36128e-09
-5.1772e-09
5.51725e-09
1.36899e-09
6.13004e-09
-1.45165e-09
-7.94868e-09
1.36389e-09
1.30255e-08
3.47092e-09
6.54746e-09
4.84545e-09
-6.71975e-09
-4.67317e-09
1.02217e-09
-3.89047e-10
5.76576e-10
-1.2097e-09
-5.33179e-10
-5.09948e-09
-2.12667e-09
7.75933e-09
-7.27395e-10
6.75633e-10
3.32645e-10
-2.80883e-10
3.92802e-09
-7.95298e-11
1.52321e-10
3.08825e-10
-3.81616e-10
4.92371e-10
-7.75078e-09
-6.30379e-11
7.32144e-09
1.80174e-10
7.61333e-09
-8.85661e-09
1.06311e-09
-1.58183e-10
2.43103e-09
5.99556e-09
-8.50089e-09
1.39368e-08
1.05508e-08
-1.08846e-08
-2.4143e-09
-4.03996e-09
4.67158e-09
-1.02319e-08
-7.93689e-10
9.28567e-10
-5.79034e-10
-3.15131e-09
-8.2318e-09
2.42566e-09
8.95745e-09
6.45249e-09
-6.2718e-09
6.59142e-09
-1.25145e-09
1.1688e-10
-2.61736e-11
7.34951e-09
-9.91823e-09
-5.21898e-09
-2.67755e-09
6.15371e-10
-1.23921e-08
1.26719e-08
4.12e-10
-8.51616e-10
-8.11831e-10
1.44845e-09
-1.68511e-09
1.97608e-09
7.20684e-09
-4.85612e-09
-2.8839e-09
-6.79355e-09
4.12781e-09
-3.76722e-09
-1.01121e-08
9.49552e-09
-6.75821e-10
6.23604e-09
-6.45688e-09
-1.35047e-09
1.57131e-09
-9.97018e-09
-2.12481e-09
3.10963e-09
8.98536e-09
8.29615e-09
-6.19341e-09
-4.1674e-09
7.75312e-09
6.75832e-09
-7.89597e-09
-6.61547e-09
-8.00129e-10
8.36673e-10
3.75456e-10
8.66433e-09
-8.78763e-09
-3.75633e-10
4.98931e-10
9.1851e-09
-6.11794e-09
1.11179e-08
-6.35948e-09
-1.11036e-08
6.34523e-09
9.7289e-09
-6.40794e-09
8.38583e-09
-1.95507e-09
-8.16322e-09
2.63304e-10
6.51064e-09
-2.1896e-10
4.80666e-11
1.29267e-08
-6.53678e-09
5.25125e-09
-1.16412e-08
-4.29138e-10
6.37505e-10
-3.34789e-09
5.33987e-10
-1.24429e-09
4.05819e-09
8.48059e-09
1.07117e-09
-9.6173e-10
-2.11855e-10
-8.28305e-10
3.12766e-10
-3.12767e-09
9.09158e-10
-2.12389e-09
2.31111e-09
-1.17459e-09
2.91352e-09
1.13747e-08
2.52458e-09
-8.73872e-09
-5.16057e-09
-1.98059e-09
1.54726e-10
1.05263e-08
-1.9983e-09
1.45965e-09
-1.23617e-08
1.15174e-08
7.92692e-09
1.8464e-09
-7.76636e-09
-2.00696e-09
-1.42019e-09
5.44902e-09
-7.34636e-11
-4.46191e-10
1.90314e-10
4.31349e-09
-3.90455e-09
8.26862e-09
7.94903e-09
-1.94812e-09
1.20593e-09
-1.31348e-09
1.21423e-09
-2.59054e-09
2.68979e-09
-3.33316e-09
-1.22005e-08
-8.15983e-09
3.49433e-11
2.84869e-12
-6.93606e-09
-1.35919e-08
1.71948e-08
-1.1047e-08
7.24883e-09
-6.20786e-09
-9.7784e-09
4.49023e-09
6.64369e-09
-1.35552e-09
9.5267e-09
-8.10928e-09
3.23799e-09
9.57502e-11
9.60733e-09
-1.20002e-08
2.29711e-09
4.83182e-09
-4.74449e-09
-8.73308e-11
-6.91951e-09
-5.90935e-10
-7.9459e-09
2.7483e-09
5.13085e-09
-5.23087e-09
-4.60349e-09
4.70351e-09
2.50591e-10
-5.04972e-10
-7.20083e-09
3.20518e-10
2.10157e-10
8.13366e-09
6.95643e-09
-7.70816e-09
-7.02583e-09
4.66989e-09
-4.83511e-09
7.03813e-09
-6.8729e-09
2.39822e-09
1.03115e-08
-3.34046e-09
-9.36927e-09
8.6472e-09
-8.96211e-09
-1.95391e-09
8.47522e-09
-8.40684e-09
1.11922e-09
-1.1876e-09
-1.3658e-08
4.9241e-11
5.49549e-09
-5.47442e-09
2.60547e-09
6.88607e-09
-9.40577e-09
-8.57603e-11
8.62781e-09
4.68884e-09
-7.7994e-09
-5.93606e-10
-9.00693e-09
1.16599e-08
1.22925e-09
6.80766e-09
-8.03691e-09
-1.27767e-09
-6.87095e-09
3.10992e-09
5.0387e-09
-9.02237e-10
-9.02249e-09
1.05111e-08
-1.15801e-09
1.57221e-09
2.25566e-10
-6.39774e-10
-2.76727e-10
8.55037e-09
6.73411e-11
-1.06256e-10
5.04885e-10
-4.65971e-10
8.86336e-09
-7.27694e-09
3.323e-09
7.01158e-09
-1.34246e-09
1.10984e-09
-6.77896e-09
-1.3547e-09
-6.95651e-09
-1.13665e-08
1.5445e-09
1.18614e-08
-6.45074e-09
-1.05855e-08
-9.09509e-09
4.6744e-09
-4.10238e-09
-2.71974e-10
7.81454e-09
-7.84814e-09
3.05579e-10
6.63608e-09
-5.6269e-09
1.03655e-08
4.25775e-10
-5.86673e-10
6.87006e-10
-5.26108e-10
6.29752e-09
7.97282e-09
2.61713e-10
3.14575e-10
-8.54911e-09
9.076e-10
8.8395e-09
-2.51583e-10
-1.63828e-08
-3.19074e-09
1.1417e-08
8.15657e-09
4.82085e-10
-1.27959e-09
-5.51982e-09
1.00057e-08
-1.09973e-09
8.51707e-09
8.5474e-10
1.57028e-09
-1.38351e-09
2.41393e-10
-4.28161e-10
-8.14549e-09
-1.42203e-09
6.41621e-09
-9.23841e-09
-3.22404e-09
7.76925e-09
1.06537e-09
-1.14871e-11
-7.58649e-09
-9.79663e-10
7.45211e-09
1.11404e-09
9.61142e-09
-1.29508e-09
3.65216e-10
2.12067e-09
9.46659e-09
-1.22631e-08
9.05449e-10
5.72368e-09
2.93515e-09
4.1097e-09
-3.57819e-09
4.13837e-09
1.18995e-09
-8.11479e-09
-7.96628e-09
1.02166e-09
-6.5182e-10
7.09447e-10
3.68148e-10
-1.60601e-09
-6.44881e-09
1.05794e-08
-1.37195e-09
1.23639e-09
1.58401e-09
-8.84674e-09
9.54375e-09
-2.66572e-09
1.28725e-08
8.79083e-09
3.99826e-09
-8.4756e-09
1.19406e-10
7.5085e-09
-4.8781e-11
4.57344e-09
6.14269e-09
-7.38633e-09
-3.3298e-09
-8.59383e-09
9.12616e-10
-3.09911e-10
7.99112e-09
4.65364e-09
8.42452e-09
-1.09367e-08
-2.1415e-09
-1.64646e-09
1.94255e-09
-1.14073e-09
6.95513e-10
7.93989e-09
-3.31218e-09
-8.82417e-09
-6.66045e-10
9.46449e-10
-7.79517e-09
7.51477e-09
1.09788e-08
-7.10568e-09
-7.75391e-09
6.77094e-09
8.08865e-09
9.7083e-10
-1.03084e-09
-1.08574e-09
1.14576e-09
7.06315e-09
2.99153e-10
-1.09363e-09
-2.55341e-09
-8.39986e-09
-4.98213e-09
6.52687e-09
-2.18602e-09
-6.2954e-09
1.48681e-09
-8.69335e-09
-1.77057e-09
1.99019e-09
1.88777e-10
-4.08401e-10
5.96173e-09
-6.44701e-09
-4.34982e-09
9.21988e-10
1.09062e-09
-1.56978e-08
1.36852e-08
5.7343e-09
-6.01201e-09
8.76275e-09
-8.48504e-09
8.71027e-09
2.10134e-09
-3.19574e-09
-3.72178e-09
2.87194e-09
4.04559e-09
-6.94514e-09
2.56305e-11
-5.16497e-10
-2.47837e-11
3.0604e-10
2.3524e-10
-4.51714e-09
-4.71953e-09
7.63067e-09
-4.96345e-09
-8.64373e-09
6.70164e-09
6.90553e-09
2.05483e-09
8.05312e-09
-8.30861e-09
-1.79934e-09
-3.67853e-09
7.85523e-09
-1.06934e-08
1.36094e-08
-1.07713e-08
8.24266e-09
-9.74146e-10
-2.82393e-09
3.43013e-09
-8.38725e-09
7.78106e-09
5.36869e-09
-5.41438e-09
-2.00544e-10
6.36371e-10
-6.3555e-10
1.99723e-10
7.83626e-09
2.40725e-11
-5.25052e-09
8.63101e-09
7.51149e-09
-8.28581e-09
-3.30576e-09
4.66738e-09
-2.03436e-09
7.68262e-09
-1.03156e-08
8.83937e-09
1.5772e-10
-3.58007e-10
-2.45974e-09
5.77643e-09
6.32283e-09
-8.04668e-09
2.66612e-09
-1.78463e-09
7.16519e-09
-4.22131e-09
-5.36756e-09
-8.63844e-10
6.2314e-09
-6.92463e-09
-2.39474e-09
4.35593e-09
-6.74888e-09
-9.7334e-09
7.72269e-09
-5.6728e-10
4.82081e-10
7.09678e-09
1.26682e-09
-4.96933e-10
4.46809e-10
1.59883e-08
-9.95298e-09
-5.87717e-09
5.17334e-09
4.04312e-09
-4.59704e-10
9.45284e-10
6.38619e-09
-9.72748e-09
6.69568e-09
-3.35439e-09
1.04754e-10
-8.59623e-11
-8.17862e-09
9.1617e-10
-7.44701e-10
-5.23702e-09
3.72294e-09
5.27234e-09
-3.75826e-09
4.00855e-09
-4.36067e-09
-9.31538e-09
9.6675e-09
2.9413e-10
-3.46121e-10
2.76757e-10
-2.24765e-10
1.08792e-08
1.23959e-08
-1.39769e-08
-9.29819e-09
1.97272e-10
7.42454e-11
-1.70358e-10
-1.01159e-10
-5.55441e-09
4.61482e-09
-1.74129e-08
1.52103e-08
5.62416e-09
-4.58742e-09
-4.9928e-10
-5.37463e-10
-2.13041e-10
-6.60619e-10
6.61805e-10
4.17798e-09
-1.08257e-09
7.26661e-09
-1.0362e-08
-2.62599e-09
1.06624e-08
-7.92784e-09
-1.08591e-10
2.08709e-09
-9.67333e-09
-8.79659e-09
-2.21405e-09
2.47274e-09
2.22872e-10
-4.81567e-10
-8.30113e-09
6.80067e-09
7.77935e-09
-9.17661e-10
4.49454e-10
-7.31114e-09
5.66834e-09
4.47546e-09
-6.40547e-09
-3.73833e-09
-6.91233e-10
9.78012e-10
6.86444e-11
-9.73903e-10
-4.78252e-10
8.75641e-09
-5.07498e-09
2.95465e-09
-6.5408e-09
8.6244e-09
5.86358e-09
-7.94718e-09
-5.38857e-09
-8.46598e-09
-3.57821e-09
3.20931e-09
3.23039e-09
-2.8615e-09
-5.26258e-10
-1.53287e-10
-1.48761e-10
-1.06695e-08
-2.33398e-09
-8.68722e-09
-1.70653e-09
6.15345e-10
7.58329e-09
-2.63205e-09
-5.93614e-10
-4.32911e-09
1.58678e-08
-1.09451e-08
-8.23893e-09
8.72509e-09
-3.60338e-09
1.08666e-08
8.22254e-10
-8.87793e-10
1.03637e-09
2.07655e-09
8.43478e-09
-2.66045e-10
-1.02453e-08
9.63953e-09
-1.19851e-09
9.797e-09
-2.58341e-09
-7.78087e-09
-4.14722e-10
1.30749e-10
1.36077e-08
4.58603e-09
-1.39276e-08
4.60636e-10
-3.97113e-10
2.30607e-10
7.49964e-09
-1.00288e-08
8.82716e-09
7.18784e-09
-5.98624e-09
-6.13183e-10
5.00255e-10
-1.04508e-09
7.9994e-09
-1.13231e-09
6.24246e-10
-7.49133e-09
5.00267e-09
-1.65187e-09
5.1298e-09
-1.17914e-10
5.4756e-09
-1.53107e-08
-1.22649e-09
8.49273e-09
-3.25692e-09
2.92369e-09
-3.24498e-09
-3.17675e-09
-8.19805e-09
2.1172e-09
9.2576e-09
-3.52431e-09
2.5071e-09
-6.19253e-10
6.90577e-10
-2.71868e-10
3.8786e-09
-7.41401e-09
7.60833e-09
7.85156e-09
-8.04588e-09
-1.03642e-08
1.11671e-08
6.44597e-09
5.03099e-09
-4.99605e-09
1.45086e-08
-1.30586e-08
-1.44999e-09
-1.96908e-09
1.1477e-09
2.15026e-09
-1.01536e-09
1.76968e-09
-4.0598e-09
3.30548e-09
4.15532e-09
-1.08553e-08
8.15963e-09
-6.7744e-09
-4.94592e-09
-7.41346e-09
2.00214e-10
8.0324e-09
-7.12394e-10
-7.52022e-09
2.79017e-09
-2.42993e-09
-2.16824e-09
1.808e-09
-4.21371e-09
1.04104e-08
-7.98269e-10
4.29371e-10
-2.82922e-10
-8.85625e-09
5.99198e-09
3.77155e-09
-9.07287e-10
3.47184e-09
-5.51096e-09
-3.52397e-09
2.10989e-09
-8.4918e-09
9.89682e-09
4.27825e-09
-5.38424e-09
4.76928e-09
7.07775e-09
-4.26374e-09
-8.4537e-09
8.51321e-09
8.66557e-09
7.54001e-09
-3.75502e-09
3.74501e-09
1.20627e-10
2.09476e-11
-2.57027e-09
4.63374e-09
-5.74015e-09
-2.13477e-09
1.12604e-10
6.13187e-09
3.61032e-09
-8.80665e-10
2.0363e-10
-4.27487e-10
-7.54595e-09
-2.77959e-10
-7.14529e-09
-2.91754e-09
2.4199e-09
-1.19885e-09
9.42009e-10
7.37172e-09
-6.59967e-10
2.81495e-09
1.1667e-09
-9.12567e-10
-6.34833e-10
2.0324e-09
2.36864e-09
-3.57948e-09
1.83826e-09
4.95053e-09
9.82849e-09
-1.0123e-08
-8.15921e-09
9.92506e-09
-8.07538e-09
-6.77477e-11
5.51108e-09
-1.17903e-08
1.21694e-08
-3.79061e-10
5.56172e-09
-1.2973e-09
6.25187e-09
-5.73116e-09
5.04101e-09
6.39593e-09
-4.6349e-09
-6.33704e-09
6.65583e-09
-3.42419e-09
3.82645e-09
-3.76756e-09
5.49513e-09
-5.13151e-09
-3.63628e-10
-1.37838e-10
5.61168e-10
-7.02396e-09
-1.65948e-10
-1.16244e-08
-6.6452e-09
5.31693e-09
-1.412e-09
2.74028e-09
2.52839e-09
4.1005e-09
-3.39849e-09
6.09765e-09
-8.04573e-09
-8.71293e-09
-1.7456e-10
1.04021e-09
-1.83088e-09
-1.17841e-09
7.42196e-09
-1.0866e-08
7.06881e-09
-2.92105e-09
-8.75262e-09
3.78349e-09
-4.9744e-09
-3.98895e-09
5.17985e-09
3.54748e-09
-5.96383e-09
6.09193e-09
-3.67558e-09
7.98489e-09
-1.56038e-09
3.21503e-09
2.59748e-09
5.8e-09
-8.21731e-09
-8.64305e-09
9.924e-09
-1.55767e-09
-6.16441e-11
1.00148e-09
-3.60465e-09
2.66481e-09
7.59398e-09
-4.02785e-10
-8.52652e-09
4.07922e-09
8.60262e-09
-4.505e-09
-8.6256e-10
1.27136e-09
-7.79116e-09
7.84518e-09
7.14414e-09
-5.38831e-09
-5.82509e-09
2.63899e-09
1.42494e-10
-1.88258e-10
4.57643e-11
9.73981e-09
-6.86873e-09
6.95741e-09
6.33872e-10
2.93799e-09
-1.53946e-09
1.57124e-08
2.64355e-09
-1.20672e-08
-6.28879e-09
1.05197e-08
8.58443e-09
6.73854e-09
-6.4958e-09
9.73915e-10
-1.26981e-09
-1.24643e-08
-1.9808e-09
1.62458e-09
-1.32889e-09
-8.55268e-09
5.1524e-10
-1.45964e-10
8.1834e-09
-5.60373e-09
5.11987e-09
6.17711e-09
-3.40703e-09
-1.36254e-08
1.02061e-08
-7.65565e-09
8.32873e-09
-2.90431e-09
-7.54649e-09
-7.24908e-10
5.09465e-09
2.81297e-09
-3.63282e-09
2.58953e-09
-3.41268e-10
-2.68399e-10
2.63546e-10
4.81455e-09
-3.80368e-09
7.00666e-09
1.06861e-09
-9.03196e-09
3.72321e-10
7.59103e-09
9.74485e-11
3.49532e-09
2.65064e-10
-3.26711e-09
-4.93277e-10
3.58307e-11
-9.30976e-09
1.95005e-11
-7.82336e-11