/*--------------------------------*- C++ -*----------------------------------*\
  =========                 |
  \\      /  F ield         | OpenFOAM: The Open Source CFD Toolbox
   \\    /   O peration     | Website:  https://openfoam.org
    \\  /    A nd           | Version:  8
     \\/     M anipulation  |
\*---------------------------------------------------------------------------*/
FoamFile
{
    version     2.0;
    format      ascii;
    class       volVectorField;
    location    "6";
    object      U;
}
// * * * * * * * * * * * * * * * * * * * * * * * * * * * * * * * * * * * * * //

dimensions      [0 1 -1 0 0 0 0];

internalField   nonuniform List<vector> 
4280
(
(3.22246e-05 1.52699e-05 -7.47059e-23)
(0.000651034 0.00110989 2.49174e-22)
(1.81617e-05 3.15667e-05 -1.08e-21)
(0.000308991 0.000401205 -7.40908e-22)
(0.000548899 0.000960865 3.92627e-22)
(0.000565545 0.00102241 0)
(0.000563279 0.000932218 0)
(0.00063378 0.00108849 2.19324e-22)
(0.000339128 0.000600099 -4.74175e-22)
(0.000569169 0.00107114 1.39629e-22)
(3.9222e-05 3.18933e-08 4.79842e-24)
(0.000660388 0.00123788 -3.59757e-22)
(3.62201e-05 8.26207e-05 -1.1072e-21)
(0.000588296 0.000458028 -1.41907e-21)
(0.00035687 0.000633327 -3.9149e-22)
(0.000640097 0.00109896 -2.10329e-22)
(0.000467844 0.000850149 4.71197e-22)
(0.000322737 0.00103435 -6.72643e-22)
(0.000189136 0.000763518 1.73898e-22)
(0.000633514 0.0010902 0)
(3.52921e-05 -2.57237e-06 -3.80749e-25)
(0.000678416 0.00123795 0)
(4.20651e-05 -6.85636e-05 6.12345e-22)
(0.000719122 0.00126261 0)
(0.000587872 0.00104321 -6.02577e-22)
(0.000515978 0.000881366 -9.15691e-23)
(0.000684033 0.00123541 0)
(0.000579833 0.00101919 -3.71384e-22)
(0.000602055 0.00104939 -2.76024e-22)
(0.000456293 0.000959187 3.19223e-22)
(0.000558013 0.000960611 -8.13626e-22)
(0.000461361 0.00110541 0)
(0.000516027 0.000926191 -4.93761e-22)
(0.000496863 0.000906536 -9.56837e-22)
(3.49502e-05 0.000320302 8.79002e-22)
(0.00057363 0.0010282 6.39483e-22)
(0.00073844 0.00125408 -1.41884e-23)
(0.000446263 0.00084293 6.91387e-22)
(0.000693079 0.00129172 -1.54687e-22)
(0.00058029 0.00101548 6.03411e-24)
(0.000673595 0.000592647 2.56351e-22)
(0.000626845 0.00128202 -4.85443e-22)
(0.000572922 0.000800107 0)
(0.000573409 0.000911154 0)
(0.000520805 0.000962963 -1.87494e-22)
(0.00051125 0.000934685 0)
(0.000918447 0.00114508 -1.97423e-22)
(0.000626895 0.00110976 -2.21311e-22)
(0.000547781 0.000950343 9.83685e-24)
(0.00088102 0.00146839 4.02442e-22)
(0.000408714 0.000733562 0)
(0.00064004 0.00109584 0)
(0.000566672 0.000993746 -2.71426e-22)
(8.92897e-05 0.000687539 -8.30478e-22)
(0.000160174 0.000623082 -3.53689e-22)
(0.000639221 0.00109837 1.99944e-22)
(9.34532e-05 -0.000415284 -2.72563e-22)
(0.000700776 0.00124899 -4.31768e-22)
(0.000528116 0.000911312 -6.40031e-24)
(0.000626853 0.00110996 2.18825e-22)
(0.000578443 0.00100899 5.32665e-24)
(0.000623226 0.00109673 3.38119e-22)
(0.000681341 0.00120802 9.46182e-22)
(0.000570727 0.0010245 -9.35507e-22)
(0.000575707 0.00100429 7.90099e-22)
(0.000699847 0.00123426 0)
(0.000808434 0.00082037 0)
(0.000171498 0.000598113 -5.02111e-22)
(0.000576932 0.00101701 -1.93912e-22)
(0.00062904 0.00110473 -2.02812e-22)
(0.000530783 0.000917963 -1.23437e-22)
(0.000609195 0.0010679 -2.80982e-22)
(0.000734172 0.0012546 -2.59633e-22)
(0.000704753 0.00123633 4.8472e-22)
(0.000833992 0.000444519 2.62109e-25)
(0.000195034 0.00073695 -9.26271e-22)
(0.000382192 0.000678348 0)
(0.000525912 0.00093883 0)
(0.00063639 0.00109157 6.28169e-24)
(0.000213759 0.000837959 -2.46487e-22)
(0.000555333 0.00106622 5.68473e-23)
(0.00069414 0.00123513 6.46012e-23)
(0.000360618 3.69177e-05 -1.85105e-21)
(0.000552426 0.000962278 -5.47089e-24)
(0.00055278 0.000964429 8.16323e-22)
(0.000906829 0.00084736 -9.50701e-22)
(0.000672058 0.00125032 1.51901e-22)
(0.000513886 0.000891798 1.16189e-22)
(0.000223902 0.000878627 -4.69945e-22)
(0.000311939 0.000958058 0)
(0.000704674 0.00123668 2.82534e-22)
(0.000320656 0.000995001 1.62573e-21)
(0.000462442 0.000913 1.91277e-23)
(0.000513713 0.000901019 -1.82076e-22)
(0.000513121 0.000914042 0)
(0.000538754 0.000901868 3.54894e-22)
(0.000782695 0.00137344 0)
(0.00057782 0.00101472 -2.12383e-22)
(0.000682523 0.00114179 4.67215e-24)
(0.000528687 0.000913138 -8.23502e-22)
(0.000578308 0.00100863 -4.98876e-22)
(0.000655838 0.00127164 7.566e-24)
(0.00072027 0.00127524 0)
(0.000533084 0.000922377 -3.35871e-22)
(0.000628103 0.00110741 1.98292e-22)
(0.000574847 0.00100627 -5.20447e-24)
(0.000539963 0.000938071 -5.04978e-22)
(0.000635135 0.00112918 -8.83654e-22)
(0.000372984 0.000656704 0)
(0.000382726 0.0006973 0)
(0.000284626 0.000741527 5.66965e-22)
(0.000537465 0.0009335 5.69141e-22)
(0.000552111 0.000961199 -8.22549e-22)
(0.000492834 0.00080439 -5.72766e-22)
(4.33914e-05 -2.41615e-06 -4.84534e-24)
(0.000532993 0.000915378 0)
(8.93998e-05 -0.000203112 -1.1738e-21)
(0.000537862 0.000962134 0)
(0.00055023 0.000724604 6.6532e-22)
(0.000561938 0.000433713 0)
(0.000414288 0.000908404 -3.19015e-22)
(0.000516648 0.000917344 1.47706e-22)
(0.000716853 0.00126229 3.47252e-22)
(0.000537082 0.000916488 2.97165e-22)
(0.000521715 0.000936137 0)
(0.000472024 0.000989745 4.62195e-22)
(0.000387102 0.00069745 0)
(0.000511264 0.000953958 -2.30669e-22)
(2.35132e-05 0.000234569 1.52712e-22)
(0.000795271 0.0013969 -3.9857e-23)
(0.000289419 0.000522099 -4.00456e-22)
(0.000637485 0.00112895 2.43897e-22)
(0.000607425 0.00110326 1.41136e-22)
(0.000603842 0.00103256 -3.25582e-22)
(0.000529446 0.000951797 1.17808e-21)
(0.00016663 0.00118418 0)
(0.000724309 0.00126631 0)
(0.000812993 0.00136437 4.53521e-25)
(0.000289957 0.000513896 -2.18834e-22)
(0.000705886 0.0012372 -5.69869e-24)
(0.000541227 0.000941113 -8.4619e-24)
(0.000495298 0.000886299 0)
(0.000250797 0.000458064 1.66819e-22)
(0.000565787 0.00100707 0)
(0.000548886 0.000955991 -4.43926e-22)
(0.000638232 0.00108514 1.40786e-21)
(0.000501921 0.00013815 5.47092e-22)
(0.000613293 0.00113092 4.0685e-24)
(0.000425165 0.000612941 0)
(0.000545884 0.00094843 0)
(0.000329458 0.000877308 0)
(0.00161489 0.000131676 0)
(0.000578527 0.00102192 -3.32361e-22)
(0.000497367 0.000580461 0)
(0.000364439 0.00117169 -8.80753e-24)
(0.000704394 0.00123828 -9.9532e-24)
(0.000653427 0.000796754 0)
(0.000567651 0.00096709 3.24282e-22)
(0.000524575 0.000897316 4.68037e-22)
(0.000281382 0.000501575 0)
(0.000630492 0.0010526 0)
(0.000627305 0.00125358 9.21375e-22)
(0.000498067 0.00011479 8.34327e-22)
(0.000423878 0.00104281 -1.04922e-21)
(0.000595683 0.0013106 0)
(0.000685282 0.000943171 1.49522e-23)
(0.000710217 0.00123564 1.82682e-22)
(0.000600129 0.00101477 8.1216e-24)
(0.000639424 0.0010924 2.35245e-22)
(0.000723852 0.00126543 3.59242e-23)
(0.000552651 0.000924519 0)
(0.000565937 0.00102414 1.11006e-22)
(0.000551228 0.000957924 5.17676e-24)
(0.000304003 0.0016143 -4.24917e-23)
(0.000996471 0.000417855 -8.9801e-22)
(0.000550279 0.0010696 6.61444e-24)
(0.000910568 0.000395887 0)
(0.000238969 0.000609285 8.13108e-22)
(0.000566823 0.00102108 -7.7173e-23)
(0.00061561 0.00105464 -2.48992e-22)
(0.000599694 0.000695365 -6.80723e-22)
(0.000789978 0.000741412 3.65796e-22)
(0.000153647 0.000736087 -6.93525e-22)
(0.000777618 0.00140517 -4.73199e-22)
(0.000957296 0.00152164 4.50989e-22)
(0.00054871 0.000972686 0)
(0.000520902 0.000943815 1.0707e-23)
(0.000814065 7.50705e-05 -9.531e-23)
(0.000701213 0.001254 3.17075e-22)
(0.000506675 0.000929054 -3.3826e-23)
(0.0002075 0.000616307 1.13691e-22)
(0.000458337 0.000983869 0)
(0.000553139 0.000954125 -1.02409e-23)
(0.00045118 0.000725029 -2.78871e-23)
(0.000560431 0.00102236 -5.56852e-23)
(0.000627517 0.00110936 -7.84187e-22)
(0.000619476 0.00105521 0)
(0.000650118 0.00110313 -4.59848e-22)
(0.00074188 0.00125429 0)
(0.000798505 0.00140126 -5.74623e-22)
(0.000484927 0.000706769 -4.32439e-24)
(0.000923101 0.000904911 -6.79827e-22)
(0.00051236 0.000904601 0)
(0.000622548 0.00113149 0)
(0.000642385 0.00112087 -6.25739e-22)
(0.000684635 0.00123112 -2.13669e-22)
(0.00053659 0.000923114 9.26055e-22)
(0.000686451 0.0012303 -2.64291e-22)
(0.000536815 0.000938546 -4.06257e-22)
(0.00069013 0.00119898 3.70625e-22)
(0.000700403 0.00120967 -7.94558e-22)
(0.00027986 0.000611854 -6.671e-23)
(0.000362369 0.000645769 5.48083e-22)
(0.000428064 0.000570061 1.32986e-21)
(0.000593675 0.00102599 0)
(0.000583266 0.00109338 5.57398e-22)
(0.000992531 0.000170492 -7.41345e-22)
(0.000676197 0.00112343 -1.47173e-22)
(0.000691636 0.00124083 2.15369e-22)
(0.000314098 0.000772517 5.93549e-22)
(0.00054197 0.000903748 5.35809e-23)
(3.10447e-05 -1.38207e-05 -2.8287e-24)
(0.000522719 0.00092183 1.16569e-21)
(0.000853144 0.000859287 3.11509e-22)
(0.000291391 0.0006938 -5.51374e-22)
(0.000557867 0.000735779 0)
(0.00102358 0.000409846 6.78373e-22)
(0.000356949 0.000630402 -3.63508e-22)
(0.00057079 0.00100345 0)
(0.000520313 0.00101274 -6.07144e-22)
(0.000959362 6.44109e-05 3.21941e-22)
(0.000553669 0.000958115 -2.40664e-22)
(0.00088302 4.19422e-05 -1.71647e-22)
(0.000444882 0.000832593 -4.76065e-22)
(0.000548387 0.000944446 -8.56658e-22)
(0.00050375 0.000225884 -5.97222e-22)
(0.000513423 0.000938122 -5.87928e-22)
(0.000673582 0.00114736 -3.33157e-22)
(0.000353359 0.000864083 -9.05677e-22)
(0.00072596 0.00124474 -1.12158e-22)
(0.000627704 0.00110007 -1.72249e-22)
(0.000563801 0.000967393 4.5643e-22)
(0.000711321 0.00123879 -1.40587e-22)
(0.000471295 0.0010401 -9.43853e-22)
(0.000743076 0.00123892 -1.94457e-22)
(0.000596182 0.00117313 0)
(0.000460879 0.00079363 1.76792e-23)
(0.000796433 0.00139085 1.84408e-23)
(0.000580371 0.0010234 1.82398e-22)
(0.000518642 0.000921514 1.47202e-22)
(0.000439615 0.0012064 5.7944e-22)
(0.000525688 0.000911279 0)
(0.000575495 0.000997869 5.75599e-22)
(0.000514376 0.000884902 -2.01322e-22)
(0.000760955 0.00146247 3.58221e-23)
(0.000574251 0.00102438 -1.05221e-23)
(0.00047466 0.000518362 1.02417e-21)
(0.000540132 0.000930043 0)
(0.000621337 0.000460774 6.72654e-22)
(0.000847424 0.00104182 1.65301e-21)
(0.000653393 0.00121609 0)
(0.000380964 0.000243755 -6.48592e-22)
(4.63431e-05 0.000615981 0)
(0.000521379 0.000909604 1.10138e-22)
(0.00111922 0.000367502 -1.39388e-21)
(0.000594698 0.00100901 5.56989e-24)
(0.000503745 0.000874072 4.34187e-22)
(0.000748647 0.00127538 -3.8419e-22)
(0.000519091 0.000934517 0)
(0.00094596 0.00085873 1.00972e-21)
(0.000436408 0.00132191 3.0372e-23)
(0.000307303 0.000531194 3.10427e-22)
(0.000708172 0.00123863 -2.2462e-22)
(0.000556368 0.000945407 8.1593e-24)
(0.000553801 0.000933955 -4.1248e-22)
(0.000708357 0.00124208 -2.36896e-22)
(0.000714082 0.00058872 1.25182e-23)
(0.000628552 0.00110239 -3.80053e-22)
(0.000700213 0.00123851 -3.62282e-22)
(0.000761253 0.000349656 1.42921e-21)
(0.000719524 0.00124962 -1.23642e-21)
(0.000538243 0.00098038 -1.72688e-22)
(0.000526919 0.000946254 -2.31837e-22)
(0.000399569 0.000245052 0)
(0.00036971 0.00060169 8.27489e-22)
(2.14121e-05 -1.21692e-05 2.379e-24)
(0.00102433 0.00141504 -1.28192e-21)
(0.00080458 0.00139756 0)
(0.000635873 0.00109314 1.44022e-22)
(0.0005695 0.0010232 2.44623e-22)
(0.000578919 0.0011013 -2.15886e-22)
(0.000686527 0.00149174 -3.40513e-23)
(0.000441942 0.000873605 0)
(0.000888106 0.0013889 -6.23328e-22)
(0.000344072 0.000576317 4.63445e-22)
(0.000426562 0.00082057 2.20891e-22)
(0.000448182 0.000973008 -4.53183e-23)
(0.000678967 0.00117973 9.91249e-22)
(0.00056884 0.00100034 1.77368e-22)
(0.000370282 0.000683206 1.78668e-22)
(0.00042026 0.000929649 1.02456e-21)
(0.00092786 0.000115499 -1.07678e-21)
(0.000729176 0.00126042 -9.9907e-22)
(0.000468464 0.000292089 4.3528e-22)
(0.000677357 0.00124564 2.63993e-23)
(0.00069687 0.00123263 2.03437e-22)
(0.000984004 6.12835e-05 0)
(0.000945196 9.57744e-05 2.68194e-23)
(0.000787386 0.00140523 1.33242e-22)
(0.000580374 0.00111379 9.85269e-23)
(0.000550539 0.000950233 -5.94704e-25)
(0.000695165 0.000102892 -1.8086e-21)
(0.000573472 0.00100088 2.66851e-22)
(0.000445576 0.000972101 9.40455e-22)
(0.000585984 0.000889559 5.8516e-22)
(0.000728294 0.00131799 -5.74072e-23)
(1.62835e-05 -2.1134e-05 8.90656e-24)
(0.000805873 0.000897123 4.62577e-22)
(0.00069781 0.00124216 -1.56985e-22)
(0.000577966 0.00102564 -5.76148e-23)
(0.00021777 0.000811618 1.22811e-24)
(0.00104144 0.000155165 0)
(0.000219018 0.00097382 1.47609e-23)
(0.000545464 0.000913638 0)
(0.00050022 0.000887572 1.77611e-22)
(0.00100934 0.00019134 0)
(0.000453386 0.000845754 -1.5292e-22)
(0.000268779 0.000751501 -8.13825e-22)
(0.000537997 0.000843927 4.14764e-22)
(0.000607601 0.00102234 5.69642e-22)
(0.000264249 0.000339804 2.09753e-21)
(0.000664473 0.00123591 -5.84952e-23)
(0.000548703 0.000975287 -5.91233e-22)
(0.00048934 0.00093889 6.78045e-22)
(0.000535833 0.00101878 3.9921e-22)
(0.000595055 0.00114472 0)
(0.00033872 0.000570689 -2.23596e-22)
(0.000653293 0.00112679 4.44053e-22)
(0.000802805 0.00140417 8.61499e-22)
(0.00070824 0.0012453 0)
(0.000103704 -8.76281e-05 1.43604e-21)
(0.00030334 0.00052899 0)
(0.000661152 0.00111799 1.04481e-21)
(0.000538275 0.000899315 4.14779e-22)
(0.000565944 0.0010642 6.63419e-23)
(0.000709052 0.00124502 -2.78854e-22)
(0.000302256 0.000887061 4.06771e-22)
(0.000328882 0.000705585 -2.57031e-22)
(0.000580993 0.00106569 0)
(0.000654274 0.00108556 1.79294e-22)
(3.20197e-05 0.000806 0)
(0.00025144 0.000806378 -3.64437e-22)
(0.00136057 0.000231312 0)
(0.000672093 0.00128565 -2.18577e-22)
(0.000755233 0.000105293 3.79583e-23)
(0.000673633 0.00118014 5.27847e-22)
(0.000718083 0.00124435 -1.48886e-22)
(0.000288921 0.000854868 4.64107e-22)
(0.000719054 0.0012783 -1.49245e-22)
(0.000659029 0.00109078 -1.78564e-22)
(4.45566e-05 0.000184957 5.01501e-22)
(0.000534228 0.00106124 6.49154e-24)
(0.000701869 0.00115737 -4.87545e-22)
(0.000546658 0.000939701 -3.13221e-22)
(0.000621132 0.00110649 0)
(0.000559118 0.00103991 0)
(0.000524081 0.000890392 -8.90531e-22)
(0.000519003 0.00099582 0)
(0.000350862 0.000572165 -7.05086e-22)
(0.000578332 0.00103006 -1.92911e-22)
(0.000567228 0.00105585 -3.36267e-23)
(0.000489109 0.000835094 2.96199e-22)
(0.000802175 0.0013882 -5.73417e-23)
(0.000343833 0.000643099 8.72219e-22)
(0.000546936 0.000951594 0)
(0.000486204 0.00105073 -3.09308e-22)
(0.000546132 0.00089646 3.5192e-23)
(0.000135438 0.000161274 0)
(0.000599309 0.00116806 7.53851e-23)
(0.000544134 0.000969716 3.40482e-24)
(0.000731797 3.85419e-05 3.16081e-24)
(0.000331932 0.000917109 5.76657e-24)
(3.41013e-05 1.10176e-07 9.45455e-22)
(0.000304766 0.000941908 3.80053e-22)
(0.000612803 0.00118258 -2.474e-22)
(0.000757132 0.00139342 -6.82342e-22)
(0.000466721 0.000853679 -6.77265e-22)
(0.000575084 0.000981896 -3.97941e-23)
(0.000482164 0.000983594 0)
(0.000979901 0.000763034 5.73841e-22)
(-0.000160508 0.00105367 -4.3684e-22)
(0.000625123 0.00125614 0)
(0.000302896 0.000890815 -9.42864e-22)
(0.000486796 0.000515144 7.15153e-22)
(0.000574779 0.00103605 0)
(0.000657059 0.00109159 3.93692e-22)
(0.000629199 0.00113224 -6.35612e-23)
(0.000313618 0.000351876 -2.21395e-21)
(0.000430836 0.000429966 -1.51417e-22)
(0.000571316 0.00100301 -3.66941e-22)
(0.000396682 0.000888236 3.59154e-22)
(0.000573834 0.00100581 -2.08296e-22)
(0.00063161 0.00113318 -1.56893e-22)
(0.000586571 0.00106843 0)
(0.000759348 0.00124152 -4.38994e-24)
(0.000331512 0.000954052 0)
(0.000638123 0.00112982 4.40164e-24)
(0.000637702 0.00107068 1.73119e-22)
(0.000573577 0.00102641 -2.79054e-22)
(0.000784668 0.00139931 4.67053e-22)
(0.000307247 0.000533326 2.21107e-22)
(4.49706e-05 -5.22124e-07 3.59275e-23)
(0.000442097 0.00115216 -5.26919e-22)
(0.000549616 0.000918673 3.85606e-22)
(0.000747512 0.00125354 4.34334e-24)
(0.000738688 0.00155844 0)
(1.99393e-05 -3.09383e-05 -6.05918e-22)
(0.000491128 0.000848462 -8.20087e-22)
(0.000640494 0.00119685 0)
(0.00057999 0.000825982 -4.585e-22)
(0.000501333 0.000957911 0)
(0.00035322 0.000839521 7.85988e-22)
(0.000642047 0.00111379 3.92008e-22)
(0.000843792 0.00113001 -4.61507e-22)
(0.00059012 0.00100266 0)
(0.000805393 0.00140231 6.67671e-22)
(0.0006614 0.00109965 1.82913e-22)
(0.000522392 0.000980386 2.90343e-22)
(0.000552163 0.000944179 -4.97264e-22)
(0.000546853 0.00103884 -2.30311e-22)
(0.000753725 0.00127081 1.93823e-22)
(0.000234539 0.000873379 -1.48317e-21)
(0.000259021 0.000856444 -4.30039e-22)
(0.000469196 0.000871215 -4.40265e-22)
(0.000730214 0.000111006 -3.49853e-22)
(0.000642995 0.000489481 1.78264e-21)
(0.000907949 0.000209523 -1.53664e-22)
(0.000577392 0.00100964 -6.02031e-24)
(0.000382649 0.000551697 -7.77725e-22)
(0.000855386 0.000479177 1.32678e-21)
(0.000717656 0.00124135 -4.17758e-22)
(0.000527297 0.00090294 0)
(0.000541516 0.00097816 6.8553e-22)
(0.000319915 0.000848434 0)
(0.000702722 0.00121306 -3.30736e-22)
(0.000674505 0.00120866 -4.07107e-24)
(0.000648151 0.000639011 -9.57471e-22)
(0.000470081 0.000905854 5.10551e-22)
(0.000655513 0.000719905 -8.73617e-22)
(0.000478074 0.000956584 -3.29393e-22)
(0.000411448 0.00049923 2.17264e-22)
(0.00062892 0.000660922 6.80443e-22)
(0.000815876 0.00138388 1.84264e-23)
(0.000593448 0.000981108 1.74284e-23)
(0.000526279 0.00115654 0)
(0.000379337 0.000942757 6.42279e-22)
(0.000600915 0.00108304 -1.11128e-21)
(0.000398989 0.000993538 -7.30811e-22)
(0.000643269 0.000732603 1.0361e-21)
(0.000212342 0.000471055 4.4672e-22)
(0.000573809 0.00132855 -2.939e-22)
(0.000389098 0.000192112 0)
(0.000630396 0.000814767 -2.71556e-21)
(2.10484e-05 2.73647e-05 -4.53908e-22)
(0.000422722 0.000700907 -1.48706e-22)
(0.00059448 0.00108852 -1.63328e-21)
(0.000547882 0.00103549 2.24111e-21)
(0.000427253 0.000811366 0)
(0.000444988 0.000907015 -1.21388e-21)
(0.000552196 0.00134252 -5.05821e-23)
(0.000637861 0.00122754 7.39957e-24)
(2.65033e-05 0.000743215 0)
(0.000666229 0.000679967 -2.52056e-21)
(0.00064314 0.00115453 -1.51268e-22)
(0.000756711 0.00153101 -5.46556e-24)
(0.000608435 0.000708387 -7.26158e-22)
(0.000551957 0.00100301 -8.51525e-22)
(0.00051206 0.00104015 -4.95095e-22)
(0.000544868 0.000947696 -4.72392e-24)
(0.000559492 0.00101071 -3.84787e-25)
(0.00062473 6.03061e-05 -1.68154e-22)
(0.000273314 0.000739656 -1.15766e-21)
(0.000649211 0.0011009 -4.62919e-22)
(0.0005441 0.000956091 -1.10261e-23)
(0.00056691 0.000991972 -2.09218e-22)
(0.000546843 0.00106412 -7.45628e-23)
(0.000572751 0.00102675 0)
(0.000778998 0.000237277 1.02918e-21)
(0.000577603 0.00100264 -4.32604e-22)
(0.000613912 0.000425533 5.80127e-22)
(0.000639196 0.00113031 1.34939e-21)
(0.000750696 0.000894982 0)
(0.00109087 0.000365116 6.67318e-22)
(0.000550983 0.00102825 3.69842e-25)
(5.23926e-05 9.98644e-05 -5.81084e-22)
(0.000628833 0.00103249 0)
(0.000275462 0.000573784 5.47204e-22)
(0.000763139 0.00139028 -8.05203e-22)
(0.000605098 0.00104817 0)
(0.0005711 0.00103209 0)
(0.000745773 0.0013482 0)
(0.000896154 0.000367548 -6.1926e-22)
(0.00046028 0.00100711 0)
(0.000505969 0.000711847 -1.79559e-21)
(0.000385736 0.000952342 -2.16826e-21)
(0.00124066 0.00133197 -7.60601e-22)
(0.000645605 0.00108104 -1.72438e-22)
(0.000721204 0.00127459 -7.87445e-25)
(0.000535029 0.000898043 5.57044e-22)
(0.000552578 0.000352265 -4.26308e-22)
(0.00068795 0.00120872 0)
(0.000502423 0.000687894 -5.74831e-22)
(0.000547852 0.000704632 7.76443e-22)
(3.34075e-05 -1.20116e-05 0)
(0.000537874 0.00102666 -2.11208e-22)
(0.000543375 0.000922773 1.82882e-22)
(0.000353864 0.000788943 0)
(0.000811826 0.00019849 4.32814e-22)
(0.0006522 0.00117225 0)
(0.000401601 0.000929933 2.84946e-22)
(0.000794229 0.00139299 1.01998e-21)
(0.000481519 0.000947976 -9.71218e-22)
(0.000582878 0.00112507 -6.23692e-23)
(0.000394312 0.000999501 -1.4278e-21)
(0.000487348 0.000578009 -1.58718e-21)
(0.00061674 0.000762631 -5.0663e-25)
(0.000433776 0.00105553 1.1038e-22)
(0.000650347 0.00106123 8.21473e-23)
(0.000566789 0.000365617 8.61491e-22)
(0.000681699 0.000874552 -2.27572e-21)
(0.000420375 0.000698722 0)
(0.000663994 0.00120481 5.28626e-22)
(0.000559243 0.000984534 -2.06609e-21)
(0.000415004 0.000932931 0)
(0.000877708 0.000341036 1.3983e-21)
(0.000576876 0.00103169 0)
(0.000754929 0.00137736 -1.11952e-22)
(0.000804986 0.00139952 -5.56816e-22)
(0.000760997 0.00138954 4.51504e-22)
(0.000792841 0.0013942 -7.21645e-22)
(0.000659244 0.00123412 -1.75549e-22)
(0.000457074 0.000237023 5.79157e-25)
(0.000500587 0.000435271 -1.16496e-21)
(0.000589864 0.000245464 0)
(0.000589022 0.00110299 1.0464e-21)
(0.000885684 8.5751e-05 -3.88525e-22)
(0.000641586 0.00111802 0)
(0.000626498 0.00117733 0)
(0.000204646 0.000403784 4.55073e-22)
(0.000605663 0.0012302 0)
(0.000614861 0.00115705 -2.38837e-21)
(0.000488202 0.00106742 4.80278e-22)
(0.000792532 0.00138805 6.6656e-22)
(0.000262625 -1.3876e-05 -4.74221e-22)
(0.00054505 0.000822182 -7.83124e-22)
(0.000112536 0.000517468 -6.0773e-22)
(0.0008692 0.00121484 -1.80245e-21)
(0.000567301 0.000998347 -1.87589e-22)
(0.000664867 0.00106543 1.34611e-21)
(0.000647642 0.00113485 -1.0767e-22)
(0.000665881 0.000169733 3.71024e-24)
(0.000815839 0.00137677 5.5678e-22)
(0.000595353 0.00106629 2.02262e-22)
(0.00065046 0.00113178 5.31956e-23)
(6.67616e-05 0.000510505 0)
(0.000594246 0.00107362 0)
(0.000534371 0.00100702 -1.25558e-21)
(0.00061434 0.00110519 4.26236e-23)
(0.000549791 0.00101358 -1.07769e-21)
(0.000575485 0.000995284 -2.61211e-24)
(0.00055308 0.00101607 0)
(0.000610775 0.000794354 -5.63601e-22)
(0.00079182 -5.88379e-05 -1.7074e-21)
(0.000577566 0.00040726 0)
(0.000569669 0.00101762 6.38466e-23)
(0.000572513 0.000993642 -3.91876e-23)
(0.000680356 0.00055375 1.57896e-21)
(0.000561561 0.00101682 6.921e-25)
(0.000762958 0.00135299 -7.84057e-24)
(0.000489111 0.00102192 -4.04578e-22)
(0.000658458 0.00120527 -9.6624e-23)
(0.000622362 0.00119604 -6.65974e-23)
(0.000692905 0.0011884 0)
(0.000430998 0.00132049 1.23962e-21)
(0.000633543 0.00110516 9.24306e-22)
(0.000550655 0.00113979 -6.57923e-22)
(0.000349975 -4.64236e-05 -2.12313e-26)
(0.000622299 0.00116597 -5.09602e-22)
(0.000432179 0.000888422 1.1891e-21)
(0.00037088 0.000154358 6.75134e-22)
(0.000647762 0.00113842 0)
(0.00058684 0.00102784 8.98988e-22)
(0.000340634 0.000750861 -1.93039e-22)
(0.00116282 -2.53036e-05 5.52888e-22)
(0.000302125 0.000784692 6.27901e-22)
(0.000733953 0.00125329 1.19805e-22)
(0.000647154 0.00113996 -5.39696e-22)
(0.000561795 0.00100312 -6.93078e-22)
(0.00057225 0.000938431 1.85071e-21)
(0.000802441 0.00139704 4.25046e-22)
(0.000598271 0.0002221 -1.31832e-21)
(0.000570218 0.000180535 1.51667e-21)
(0.000624071 0.00011754 -1.56919e-21)
(0.000776284 0.00135633 2.79873e-23)
(0.000415944 0.000911827 -2.3521e-21)
(0.000649092 5.35792e-05 8.23243e-22)
(0.000623657 0.00119693 0)
(0.000801413 0.00139872 -4.32704e-22)
(0.00059608 0.00102546 8.26603e-22)
(0.000325211 0.000815055 -2.11015e-22)
(0.000258608 0.000391306 -1.0767e-22)
(0.000551135 0.00102336 6.44555e-24)
(0.00059936 0.00110311 2.04966e-22)
(0.000602481 0.00105127 -4.5853e-22)
(0.000559378 0.00104175 0)
(0.000530298 0.000907346 -7.91944e-22)
(0.000678283 -5.26214e-06 8.60037e-22)
(0.000600574 0.00112317 -5.22777e-22)
(0.000690782 0.00121747 5.03213e-22)
(0.000930368 0.0013431 -4.03169e-23)
(0.000585386 0.000240964 0)
(0.000424909 0.000141481 -6.14539e-22)
(0.000647752 0.00110532 -6.37603e-24)
(0.000647312 0.00114071 -5.68654e-22)
(0.000571868 0.00106122 3.01679e-23)
(2.02404e-05 1.64071e-05 1.28579e-22)
(0.000643019 0.00113154 1.14734e-22)
(0.000449447 0.000787165 -9.65092e-22)
(0.000820424 5.05558e-05 8.08905e-22)
(0.000662006 0.000135038 8.02585e-22)
(0.000742411 0.00138545 -1.78316e-23)
(0.000601115 0.00122988 0)
(0.000405703 0.000685674 -8.33641e-22)
(0.000330566 0.000593445 0)
(7.20576e-05 -3.90611e-06 6.79412e-22)
(0.00064465 0.00113317 -3.55698e-22)
(0.000734198 7.68695e-05 -9.61123e-22)
(0.000640981 0.00112892 -4.57145e-22)
(0.000523886 0.00107277 5.03806e-22)
(0.000497685 0.000967926 5.55848e-22)
(0.000744725 0.00125556 -4.61759e-22)
(5.53163e-05 0.000139922 2.18514e-21)
(0.000789783 0.00138865 1.80041e-22)
(0.000905295 8.18904e-05 0)
(0.000557716 0.00105904 8.82886e-23)
(0.000456171 0.000695881 -4.06598e-24)
(0.000584374 0.00102554 0)
(0.000583671 0.000447955 -2.31908e-21)
(0.000871429 6.723e-08 0)
(0.000650476 0.00113199 1.02118e-22)
(0.000565057 0.00102891 6.44776e-22)
(0.000673811 0.00119872 -1.54138e-21)
(0.000625945 0.00111006 -1.3801e-22)
(0.000825217 0.000154189 -9.35387e-23)
(0.000582809 0.00102278 0)
(4.30205e-05 0.000349389 -1.38394e-22)
(0.000799469 0.00140707 0)
(0.000176337 0.000358567 0)
(3.99617e-05 0.00076283 -3.32527e-22)
(0.000532806 0.00108305 -9.02753e-22)
(0.000642749 0.000184773 -7.20779e-22)
(0.000643193 0.00110319 9.17196e-22)
(0.000448773 0.000949696 1.4583e-22)
(0.000745137 0.00119702 -1.04207e-21)
(0.000535389 0.00128752 0)
(0.000604763 0.00106746 3.78935e-22)
(0.000793906 0.00139236 0)
(0.000804453 0.00140552 -7.42648e-24)
(0.000567014 0.00107611 1.11529e-21)
(0.000593503 0.00101631 9.29373e-23)
(0.000559048 0.000666217 1.93222e-21)
(0.000472728 0.000412081 1.22066e-21)
(0.000498575 0.00101422 0)
(0.000606281 0.0010676 -1.18256e-22)
(0.000798357 0.0013944 0)
(0.000582702 0.00101929 0)
(0.000579047 0.00109799 -1.19605e-21)
(0.000995283 0.000165417 6.66024e-22)
(0.000560936 0.00122738 0)
(0.000201762 6.90503e-06 9.0067e-22)
(0.000526035 0.000979684 -7.45792e-23)
(2.51061e-05 0.000122755 1.04892e-21)
(0.000678847 0.000481662 -9.4723e-23)
(0.000701229 0.00119142 5.0212e-22)
(0.00081602 0.00113751 9.71719e-22)
(0.000690226 0.00109329 -4.9043e-22)
(0.000521032 0.00125809 0)
(0.000554154 0.00105686 5.64224e-22)
(2.7574e-05 0.000394333 3.55735e-23)
(0.0005809 0.00103259 -4.18364e-22)
(0.000535988 0.00105309 -2.62953e-22)
(0.000802741 0.00139983 -3.79466e-22)
(0.000792435 0.00138934 -1.17572e-24)
(0.000574654 0.00103501 0)
(0.000650136 0.00123434 5.01485e-22)
(0.000653736 0.00108402 -8.19108e-22)
(0.000608539 0.0010657 2.12199e-22)
(0.000881591 0.000211506 4.82991e-22)
(0.0005984 0.00106635 7.77334e-22)
(0.000610355 0.00106245 0)
(0.000554891 0.00111464 0)
(0.00054841 0.0010732 5.17923e-22)
(0.000526224 0.000916052 -1.05268e-22)
(0.000576009 0.00100409 1.1271e-21)
(0.00064443 0.00113857 0)
(0.000529956 0.000905908 4.39867e-22)
(0.00103373 0.000379512 8.76736e-24)
(0.000639979 0.00115057 2.63204e-22)
(0.000590582 0.00103479 -7.88137e-22)
(0.00060366 0.000675 5.61473e-22)
(0.000633765 0.00112736 -8.03064e-22)
(0.000712636 0.00124203 4.68021e-25)
(0.000756557 4.41842e-05 -1.42552e-21)
(0.000579105 0.00116939 1.90387e-22)
(0.000262274 0.000956533 0)
(0.000612461 0.00107884 -1.07429e-21)
(0.00043298 0.000962212 6.63192e-25)
(0.000422616 0.00130254 0)
(0.000338093 0.000898144 7.12949e-22)
(0.000628772 0.00112222 -1.01649e-21)
(3.51437e-05 -2.08017e-06 1.45869e-21)
(0.000250424 0.0013377 -8.47061e-22)
(0.000641125 0.00114209 -5.32168e-22)
(0.000659702 0.000430717 4.39962e-22)
(0.000575889 0.00102906 3.81504e-22)
(0.000581325 -0.000430182 -9.88802e-23)
(0.000843811 8.79322e-05 0)
(5.93142e-05 -1.43669e-06 0)
(0.000567819 0.00103 -1.34725e-21)
(4.08817e-06 2.22343e-05 6.97807e-23)
(0.000635303 0.00112644 8.83805e-22)
(0.00057361 0.00101815 1.03048e-22)
(0.000574983 0.00104566 9.29191e-23)
(0.000632615 0.00111396 1.6283e-22)
(0.000544294 0.00117979 5.8086e-22)
(4.31625e-05 2.35689e-06 -1.57424e-22)
(0.000661767 0.00124502 -8.794e-22)
(0.000612132 0.00106342 -1.57081e-22)
(0.000291943 5.47309e-05 0)
(0.000579846 0.00104457 4.40501e-22)
(5.07886e-05 -7.92493e-06 0)
(0.000648906 0.00110146 -9.1547e-22)
(5.90657e-06 -5.98591e-05 0)
(4.57253e-05 -6.35622e-06 0)
(0.00069803 0.00123426 2.9722e-22)
(0.00056669 0.00107128 4.59846e-22)
(0.000382922 0.000597724 -1.81878e-22)
(0.000575841 0.00102309 -7.15265e-22)
(0.00060974 0.00106333 -6.44495e-22)
(0.000647811 0.00112484 -4.43929e-22)
(3.91693e-05 0.000219085 -2.7269e-22)
(0.000894443 9.28674e-05 0)
(0.000804168 0.00139587 0)
(0.000653326 0.00131969 -5.11166e-22)
(0.000607307 0.00106632 5.78733e-22)
(0.00064209 0.0011316 0)
(0.000589794 0.00102862 -1.53951e-21)
(0.000592898 0.00101049 -1.68342e-21)
(0.000623618 0.0011976 0)
(0.000584203 0.00102136 0)
(0.000584402 0.00105053 -2.0248e-22)
(0.00040442 0.000301603 4.6247e-22)
(0.000530786 0.000818162 -4.25494e-25)
(0.000606837 0.00106647 -1.32714e-22)
(0.000677769 0.00124513 2.10845e-22)
(0.000605856 0.00106808 6.27041e-22)
(0.000593484 0.0010691 -6.513e-22)
(0.000794337 0.00139054 -1.2227e-21)
(0.00058164 0.00103011 4.13916e-23)
(0.000628726 0.000360617 -2.4227e-21)
(0.000625496 0.00117814 -6.94384e-24)
(0.000612111 0.00106474 -1.81212e-22)
(0.000666382 0.00121411 -3.41781e-24)
(4.91638e-05 7.895e-06 -3.17886e-23)
(1.84046e-05 9.72059e-05 -1.03321e-21)
(0.000577141 0.00102697 7.08491e-22)
(0.000611721 0.00108827 -6.63207e-22)
(0.000834416 0.000799452 0)
(0.000586047 0.00102638 7.67792e-22)
(0.000618274 0.00122128 -3.24418e-23)
(0.000673152 0.00124681 -5.82067e-23)
(0.000537952 0.00114134 -1.35423e-21)
(1.56548e-05 8.07185e-05 -4.06956e-22)
(0.000678893 0.00125721 0)
(0.000646714 0.00114439 0)
(0.000602068 0.0010675 5.14863e-22)
(-3.60559e-06 3.86392e-05 1.35151e-24)
(0.000524493 0.00109603 0)
(0.000799638 0.00139084 5.08473e-22)
(0.000593134 0.00102438 8.26072e-22)
(5.98086e-05 0.000238843 0)
(0.000668875 0.00119637 0)
(4.81036e-05 1.17792e-05 3.09634e-23)
(0.000595123 0.00104382 1.46816e-21)
(0.000375553 0.00103657 7.38155e-22)
(0.000812571 0.00139228 3.28641e-22)
(0.000617597 0.00112299 -2.56107e-22)
(0.000578082 0.00102288 -1.74847e-22)
(0.000613274 0.0010631 0)
(0.00057284 0.00108413 -5.49306e-22)
(0.000651687 0.00113224 0)
(5.33156e-05 -2.20957e-05 -5.86121e-22)
(0.000792168 0.00139219 -1.56403e-21)
(0.00080899 0.00139904 8.53915e-22)
(1.76474e-05 0.000121178 1.67579e-21)
(5.75286e-05 -1.09836e-05 0)
(0.00079751 0.00138312 4.18764e-22)
(0.000657859 0.00122988 -1.80397e-25)
(0.000581416 0.00107038 6.65112e-23)
(0.000598132 0.00104634 -2.84292e-22)
(0.000600189 0.00112524 7.52337e-23)
(0.000591679 0.00104686 -1.10815e-21)
(0.000610046 0.00109974 -5.46895e-22)
(0.000504739 0.00123853 3.69492e-24)
(0.00064736 0.00113541 4.87375e-22)
(0.000582489 0.00102096 -1.06134e-22)
(6.26531e-05 0.000282291 0)
(2.86466e-05 2.01216e-05 2.43029e-22)
(0.000732745 0.00126795 -4.66191e-22)
(0.000904246 9.81364e-05 2.58631e-22)
(0.000588355 0.0010394 0)
(0.000623234 0.00113339 -5.78776e-22)