/*--------------------------------*- C++ -*----------------------------------*\
  =========                 |
  \\      /  F ield         | OpenFOAM: The Open Source CFD Toolbox
   \\    /   O peration     | Website:  https://openfoam.org
    \\  /    A nd           | Version:  8
     \\/     M anipulation  |
\*---------------------------------------------------------------------------*/
FoamFile
{
    version     2.0;
    format      ascii;
    class       volVectorField;
    location    "6";
    object      U;
}
// * * * * * * * * * * * * * * * * * * * * * * * * * * * * * * * * * * * * * //

dimensions      [0 1 -1 0 0 0 0];

internalField   nonuniform List<vector> 
4320
(
(0.00063297 0.00169312 3.49755e-22)
(0.000471217 0.00121248 1.16218e-22)
(0.000454879 0.00114191 0)
(3.44305e-05 6.27425e-07 6.35633e-22)
(0.000659529 -1.82377e-05 0)
(0.000662092 0.00180683 0)
(0.00070511 0.00189453 9.57783e-23)
(0.000682446 0.00189343 5.90408e-24)
(0.000138237 0.0015499 -8.74245e-22)
(0.000584599 0.00166869 -2.17739e-22)
(0.000664964 0.00178861 -2.28901e-22)
(0.000663647 0.00177237 -1.31175e-24)
(0.000657883 0.00178475 2.25525e-22)
(0.000597189 0.00167077 9.80572e-22)
(0.000835511 0.00081027 1.47703e-21)
(0.000664588 0.00177686 5.06295e-22)
(0.000359696 0.00106503 -2.27431e-21)
(0.000275716 0.00066099 -3.18317e-21)
(0.000665899 0.00178595 -3.6697e-24)
(0.000665738 0.00177956 0)
(0.000667224 0.00178101 6.87001e-22)
(0.000663671 0.00189054 5.52189e-22)
(0.000422568 0.000518624 3.47377e-21)
(0.000623064 0.00176904 -2.59365e-22)
(0.000621639 0.00168441 7.71976e-22)
(0.000705877 0.00189377 1.67537e-21)
(0.000650924 0.00170977 1.87608e-21)
(0.000668918 0.00173151 -1.81338e-22)
(0.000627044 0.00176386 -5.58073e-22)
(0.000484606 3.3172e-05 1.25538e-21)
(0.000627581 0.00173607 -4.58503e-22)
(0.000668252 0.00188958 0)
(0.000668852 0.00189199 5.31712e-24)
(0.000575303 0.00168096 -2.19648e-21)
(0.00042552 0.00119958 -2.58181e-23)
(0.000638137 0.00188535 1.89417e-23)
(0.000667391 0.00178133 -6.43261e-22)
(0.00067116 0.00178872 -1.55718e-22)
(0.0011036 6.51259e-06 1.55299e-22)
(0.000405396 0.0011449 9.76497e-22)
(0.000629056 0.00174475 -2.00699e-22)
(0.00064799 0.00174102 4.21345e-22)
(0.000456973 0.000165853 0)
(0.000610819 0.00154671 1.78839e-21)
(7.93338e-05 0.000732179 6.78654e-22)
(0.000646676 0.00182877 4.16723e-22)
(0.000395704 0.0019709 3.21921e-23)
(0.000624385 0.00171161 -1.09022e-22)
(7.16339e-05 0.000875975 -2.98582e-22)
(0.000663207 0.00176962 0)
(0.000646699 0.00177163 0)
(0.000655138 0.00182303 2.87149e-22)
(0.000746339 -8.21889e-05 6.12128e-22)
(0.000128034 0.000972012 0)
(0.000116633 0.00165405 -1.58333e-21)
(0.000647272 0.00172017 -2.5683e-22)
(0.000578179 0.0016742 2.40519e-22)
(0.000596069 0.00171114 -2.4101e-21)
(0.000285883 0.00164288 -9.19182e-24)
(0.000259737 6.73388e-05 4.36694e-22)
(0.000666866 0.00177919 -2.9081e-22)
(0.000606793 0.00179265 -3.14455e-22)
(0.000609503 0.00176738 1.85066e-22)
(0.000664627 0.00177446 -4.45564e-22)
(0.000903915 -0.000433998 1.1976e-22)
(0.000621469 0.00178556 0)
(0.000435442 0.000155646 4.31692e-21)
(0.000614937 0.00169146 6.94309e-22)
(0.000533833 0.00155861 2.73284e-22)
(0.000619157 0.00187638 -8.8816e-23)
(0.000478494 0.00115089 -1.94148e-25)
(0.000680436 0.00189973 1.55567e-21)
(0.000644957 0.00161698 6.66166e-22)
(0.00064475 0.00164988 6.04237e-23)
(0.00065976 0.00176417 0)
(0.00065466 0.00169438 -2.72578e-22)
(0.000460206 0.00119807 -7.33606e-23)
(0.000405467 0.00088597 -1.72826e-21)
(9.92416e-05 0.000236615 9.13612e-24)
(0.000808544 -0.000102654 0)
(0.000646662 0.00177099 -1.19679e-22)
(0.000398398 0.0011425 1.46041e-21)
(0.000414396 0.00116401 -7.58169e-22)
(0.000662497 0.00178703 -6.57106e-22)
(9.13432e-05 0.000213013 -2.33838e-21)
(0.00041741 0.00112127 3.15286e-23)
(9.56775e-05 0.000172984 -2.27154e-21)
(0.000644899 0.00169285 7.79989e-22)
(0.00106084 4.74573e-05 0)
(0.000642533 0.00190566 1.42829e-21)
(0.000881477 -0.00020932 -2.0089e-22)
(0.000709234 0.00189237 0)
(0.00127121 0.000187649 3.73655e-21)
(0.000194199 -9.02236e-07 -2.16666e-21)
(0.000609336 0.00169654 -1.73728e-22)
(0.000606785 0.00174003 3.86885e-24)
(0.00040129 0.00114174 6.31022e-24)
(0.000665404 0.00177737 1.5476e-22)
(0.000670109 0.00178749 4.16218e-24)
(0.00100575 0.000825715 -1.12334e-21)
(7.73692e-05 0.000171862 0)
(0.000656092 0.00175844 0)
(0.00064972 0.00190415 3.74981e-22)
(0.000456125 0.00121667 -1.42054e-21)
(0.000434526 0.00176768 -4.41353e-24)
(0.000387583 0.00115209 1.93858e-21)
(0.000404307 0.00114232 8.39243e-22)
(0.000484411 -9.78549e-05 5.67845e-25)
(3.94076e-05 0.000723849 9.49633e-22)
(0.000389178 0.00115529 5.86873e-24)
(0.000987361 -8.68492e-05 0)
(0.000672885 0.00190349 3.01175e-22)
(0.000614218 0.00176034 -1.67185e-21)
(0.000688051 0.00188971 0)
(0.000620069 0.00162109 -8.09615e-22)
(0.000643277 0.00181072 -7.95246e-23)
(0.000198407 0.000877573 -6.92285e-22)
(0.000643828 0.00107563 1.78725e-21)
(3.42152e-05 7.64027e-05 2.53042e-21)
(0.000503982 0.00173941 -1.07107e-23)
(0.000678068 0.0019173 -1.15571e-21)
(0.000410758 0.00114021 0)
(0.000616214 0.00182161 9.71541e-23)
(0.000592399 0.000841152 0)
(0.000682492 0.00188635 4.26156e-22)
(0.000670905 0.00190361 -1.23241e-21)
(0.000726705 0.00202833 -1.17263e-22)
(0.000656464 0.00175355 4.53712e-22)
(0.000658525 0.00171441 -7.67238e-22)
(0.000656209 0.00172122 5.21586e-22)
(0.000595013 0.00175353 -3.37575e-24)
(0.000656817 0.00189478 2.37073e-21)
(0.000448709 0.00121894 1.07212e-23)
(0.000678636 0.00191362 4.66845e-22)
(9.97021e-05 0.000676866 -6.72386e-22)
(0.000211577 5.05153e-05 -6.85858e-22)
(0.0003749 0.00111107 4.40069e-22)
(0.000193033 2.33878e-05 -4.10442e-22)
(0.000625257 0.00165682 0)
(0.000523003 2.30572e-05 -3.07722e-21)
(0.000395516 0.00103502 -4.14013e-22)
(0.00065165 0.00181432 1.92582e-22)
(0.000303113 0.00176862 1.9254e-23)
(0.000270777 0.00165727 -1.0416e-23)
(0.000109393 0.000615016 0)
(0.000578697 0.00174708 -1.01142e-21)
(0.000617329 0.00169731 0)
(1.26656e-05 -9.91755e-06 4.93642e-22)
(0.000569698 0.00172924 0)
(0.000390788 0.00204087 -1.66982e-23)
(0.000664745 0.00177141 -2.75421e-22)
(0.0005072 0.00195263 1.30263e-22)
(0.000620372 0.000744294 1.46457e-21)
(0.000591446 0.000780453 0)
(0.00065477 0.00181484 0)
(0.000724087 0.00203597 -2.1196e-23)
(0.000914595 0.000414115 -5.2033e-21)
(8.45548e-05 0.000964299 7.41016e-22)
(0.00010609 0.000260439 0)
(0.000610558 0.0017858 -1.66758e-22)
(6.45592e-05 0.000137634 0)
(0.000407251 0.00116604 2.08562e-21)
(0.000602133 0.00169341 7.2973e-23)
(0.000607172 0.00181438 -1.16303e-22)
(0.000704286 0.00190869 1.03084e-21)
(0.000632774 0.0017299 -4.03637e-22)
(0.000690986 0.00189299 1.25091e-21)
(0.000242049 0.000878923 1.60095e-21)
(0.00162103 0.00144082 0)
(0.000554413 0.00172192 3.33283e-21)
(0.000603983 0.00170734 0)
(0.000662444 0.0018082 0)
(0.000358662 0.00121524 -1.09879e-22)
(0.00066422 0.00202699 2.48817e-23)
(0.000531983 -6.70675e-05 -2.24159e-21)
(0.000395228 0.000737445 -8.68605e-22)
(0.000390783 0.000541467 1.54727e-21)
(0.00071692 0.00195029 5.00965e-21)
(0.0006526 0.00193773 1.62385e-21)
(0.000475949 0.00121649 -4.06969e-22)
(0.000769981 0.000414495 0)
(0.000589685 0.00182888 -1.33323e-21)
(0.00087444 0.000320533 1.40786e-21)
(0.00097989 7.48903e-05 -7.29574e-22)
(0.00115309 0.000639477 -4.63544e-21)
(3.96575e-05 0.00113016 1.06538e-22)
(5.26656e-05 0.000107005 -1.34117e-22)
(0.000579925 0.00206994 1.32374e-22)
(0.00053271 0.00163103 3.23273e-22)
(0.000430793 0.000555757 -3.37217e-21)
(0.000617563 0.0017255 -1.85463e-22)
(0.000656652 0.00171465 -2.66324e-22)
(0.00102895 6.12885e-05 2.10671e-21)
(0.000687281 0.00187583 1.08955e-23)
(0.000979593 -4.3823e-05 -1.20367e-21)
(0.000650019 0.00172795 8.10933e-22)
(0.000666742 0.00187691 -7.38167e-22)
(0.000653581 0.00192462 3.17943e-23)
(0.000654029 0.00182013 4.03283e-22)
(0.00066222 0.00176579 -3.98719e-22)
(0.00089328 0.000348664 -1.72135e-21)
(0.000605394 0.00169674 3.61922e-22)
(0.000637619 0.00169788 0)
(0.000636494 0.00171978 4.87609e-22)
(0.000903597 0.00188626 -2.05958e-21)
(0.000459755 0.00142908 0)
(0.000661344 0.0019113 0)
(7.06087e-05 0.000153869 -1.78401e-23)
(0.00055678 0.00178169 0)
(0.00100267 1.6272e-05 0)
(0.00066969 0.00189117 2.1132e-22)
(0.000238888 6.69244e-05 1.29609e-21)
(0.000381921 0.000672935 -1.96337e-21)
(5.89747e-05 0.000122649 0)
(6.07978e-06 1.78683e-05 3.2475e-22)
(4.04418e-05 8.50858e-05 4.49821e-21)
(8.32015e-06 5.84709e-06 3.02274e-22)
(4.5145e-05 9.49756e-05 -2.12656e-21)
(0.000970254 6.90705e-05 -2.56387e-21)
(0.000634727 0.000681006 -4.3386e-21)
(0.000578658 -0.000215276 -1.8737e-21)
(0.000607889 0.00172583 -3.95199e-22)
(0.000216542 2.98753e-05 -2.55813e-22)
(0.000713829 0.00182363 -1.68951e-23)
(0.000693828 0.00188879 7.73604e-22)
(5.60221e-05 0.00054869 0)
(0.000542815 0.000862983 0)
(0.000847182 0.000343097 -7.92573e-22)
(0.000752564 0.000432066 1.79514e-21)
(0.000996961 4.69353e-05 5.0345e-25)
(0.000616357 0.0019462 1.98016e-22)
(0.00103676 0.000672723 1.83914e-21)
(0.000413008 0.00116178 -6.84176e-22)
(0.000626418 0.00169957 -1.46206e-22)
(0.000639427 0.00177448 0)
(0.000283138 -0.000121377 -1.17986e-24)
(0.000652446 0.00187128 7.13492e-22)
(0.000645336 0.00168906 0)
(0.000635772 0.00178509 -1.09719e-22)
(0.000656596 0.0018149 0)
(0.00118442 0.00024132 -2.25628e-21)
(0.00112032 0.000766769 -3.54114e-21)
(0.000821931 0.00174747 -2.13079e-21)
(0.000698113 0.00188093 -1.71312e-22)
(0.000682058 0.00187184 2.41784e-22)
(0.000329249 0.00195595 0)
(0.000353931 0.000385591 -2.42865e-22)
(0.000496476 0.000104596 1.86388e-21)
(0.00069893 0.00186228 0)
(0.000407848 0.00111182 -3.53623e-22)
(0.000649903 0.00178613 1.62922e-21)
(0.000515129 0.00154563 -4.20525e-23)
(0.000675814 0.00192973 -2.00223e-23)
(0.000727791 0.00199891 -2.23732e-21)
(0.0007346 0.00199689 0)
(0.00064905 0.00154336 1.04223e-21)
(7.90346e-06 3.32075e-05 8.81402e-24)
(0.000632195 0.00174572 -9.63545e-23)
(0.000389059 0.00111256 0)
(0.000603755 0.00177395 9.66886e-23)
(0.000689848 0.00187943 5.95705e-22)
(0.00119219 0.000555781 3.18866e-21)
(0.000742518 0.00179991 -6.48942e-22)
(0.000708626 0.00193917 8.27859e-22)
(0.000434593 0.000304071 3.84625e-21)
(0.000658396 0.00176065 0)
(0.000904282 -0.000152426 -1.48083e-22)
(0.00039025 0.00114978 -1.35663e-22)
(0.000762431 0.00101048 -2.44366e-21)
(0.000471627 3.4478e-05 -1.78363e-21)
(0.000652295 0.0017298 -5.76615e-22)
(9.54033e-06 5.23376e-05 0)
(0.000619913 0.00174005 0)
(0.00111547 0.0018694 0)
(0.000966839 -0.000120679 0)
(0.000660073 0.00177926 -1.51028e-21)
(0.000312259 -0.000138552 -5.65981e-22)
(0.00037527 0.00107182 -5.53614e-22)
(5.07769e-05 -2.86325e-07 2.50408e-21)
(1.10734e-05 6.82168e-05 -3.25364e-22)
(0.000486797 0.000100768 5.60051e-25)
(0.000600136 0.00184767 3.80726e-22)
(0.000634539 0.00186554 -4.70145e-22)
(0.000694757 0.000199306 -3.92465e-21)
(0.000654389 0.00170351 -2.86186e-22)
(0.000653063 0.00183934 4.61301e-22)
(0.000648172 0.00170861 -8.11785e-22)
(0.000167898 -3.53153e-05 -2.13219e-21)
(0.000707663 0.00202035 -2.09747e-22)
(0.000707506 0.000884689 -1.00965e-21)
(0.000661948 0.00175794 5.98923e-22)
(0.000692226 0.00190901 -9.92159e-22)
(6.50155e-06 2.26195e-05 0)
(0.000692939 0.00189879 1.21129e-22)
(0.000981801 0.000362157 -3.92746e-21)
(0.000651859 0.00191159 0)
(0.000641674 0.00179731 -2.88742e-21)
(0.000690556 0.00199974 1.82758e-23)
(0.000554213 0.0019809 1.92783e-23)
(0.0006265 0.00188008 9.5478e-22)
(8.28601e-06 3.90453e-05 -2.81678e-22)
(0.000640048 0.00170507 -1.65651e-22)
(0.000678929 0.00188307 -8.33586e-22)
(0.000657177 0.00179098 -3.07642e-22)
(0.000711499 0.00185545 8.08386e-22)
(0.00135568 0.000493348 1.68927e-21)
(0.000687902 0.00188388 -1.14386e-21)
(0.000709265 0.00192488 0)
(0.000706302 0.00194474 -2.63808e-23)
(0.000654819 0.0018227 -1.99269e-22)
(0.000653232 0.00181441 1.66606e-22)
(0.000662274 0.0017754 1.09176e-23)
(0.000418245 0.000986343 -3.39599e-21)
(0.000453922 0.000585507 -1.43825e-21)
(0.00064786 0.00172059 6.12022e-22)
(0.000645978 0.00189082 -4.90918e-23)
(0.000337096 0.000124175 4.52275e-21)
(0.00066843 0.00176336 0)
(0.00018811 0.000930593 -1.76102e-22)
(0.0006223 0.0016886 1.58331e-22)
(0.000671136 0.00191676 0)
(9.02816e-06 4.55707e-05 -9.92227e-24)
(0.000264682 -0.000214155 0)
(1.05001e-05 6.05646e-05 2.38444e-22)
(0.00174873 0.00183338 -9.19005e-22)
(1.99956e-05 8.02122e-05 8.18381e-22)
(0.000636787 0.00184916 0)
(3.41047e-05 0.000753873 0)
(0.00131064 0.000165802 -3.87965e-22)
(0.000661804 0.00194306 -9.94938e-23)
(0.000657844 0.00174108 -6.45771e-23)
(0.000640201 0.00190794 7.77521e-22)
(0.000642088 0.00191083 6.42297e-22)
(7.06235e-06 2.76859e-05 2.84341e-22)
(0.00115093 0.000530544 4.32078e-21)
(0.000527984 0.00196977 1.09851e-21)
(0.00084971 0.000924014 -1.35545e-21)
(0.000198782 -6.02738e-05 -2.26824e-21)
(0.000655283 0.00177185 -7.57212e-22)
(4.78595e-05 0.000331331 -1.74592e-21)
(0.000746277 0.00201743 0)
(0.000642459 0.00181781 -6.92565e-22)
(0.000664493 0.00176123 0)
(0.000773534 0.000923365 0)
(0.000353541 0.000921475 1.39486e-21)
(1.54054e-05 8.08823e-05 -1.35348e-22)
(0.000228284 -0.00018209 4.24527e-21)
(0.0010611 0.000316073 1.18545e-21)
(0.00130062 0.000129569 9.66671e-22)
(0.000124837 0.000238667 -7.60426e-24)
(0.000694801 0.00189164 -5.89949e-22)
(0.000692552 0.00201133 -9.09546e-22)
(0.0001906 4.37596e-05 -4.17705e-22)
(0.000522848 0.00138018 1.71596e-21)
(0.000649706 0.001696 -6.10051e-24)
(0.00041808 0.000752373 1.43812e-21)
(0.000659785 0.0018191 -9.1134e-22)
(0.000540673 0.00184188 3.44576e-24)
(0.000636939 0.00194191 2.93866e-21)
(0.000662641 0.00181401 5.14024e-22)
(0.00027437 0.000835911 0)
(0.00066675 0.00190002 6.30921e-22)
(0.000615837 0.00169751 -1.96738e-22)
(0.000680075 0.000887405 -1.64648e-21)
(0.000382524 0.00190759 -4.72007e-22)
(0.00069964 0.00188998 -2.16591e-22)
(5.739e-06 1.35574e-05 -5.89047e-22)
(0.000944918 3.12912e-05 0)
(0.000373826 -0.00025826 -7.05612e-22)
(0.00065875 0.00175526 -1.30928e-21)
(0.000661513 0.00174733 -1.2387e-22)
(0.000417521 0.000736241 -1.24252e-21)
(0.0006597 0.00182333 8.16184e-22)
(0.000338629 0.000656205 4.19194e-21)
(0.000490284 0.00167058 3.01792e-22)
(0.000173362 -0.000131105 -9.28703e-22)
(0.000501809 0.00163153 4.06528e-23)
(0.000642289 0.00170805 0)
(0.00022937 8.63356e-05 0)
(0.000682559 0.00189062 -7.38277e-22)
(5.47724e-06 8.99172e-06 1.47815e-22)
(0.000952281 0.00128327 -1.30768e-23)
(0.000985487 0.00046084 1.68113e-21)
(0.000594132 0.00186469 1.3492e-21)
(6.37352e-05 0.000603676 1.5073e-22)
(0.000600925 0.00183788 1.52643e-21)
(-3.74568e-06 7.77092e-05 1.43289e-21)
(0.00047622 -0.000154106 0)
(0.000699027 0.00192847 0)
(6.92468e-05 6.58681e-05 -1.51775e-21)
(0.000699218 0.00209968 -2.47026e-22)
(0.000705708 0.000256614 -1.59506e-21)
(2.66047e-05 4.11427e-06 -2.77729e-22)
(0.000114986 2.06851e-06 1.34758e-21)
(0.000678294 0.00188189 3.65292e-21)
(0.000426658 -3.34734e-05 1.63406e-21)
(0.000636956 0.00177429 2.36478e-22)
(0.00120287 0.00069719 1.30025e-21)
(0.00064032 0.00180233 1.81878e-21)
(0.000665697 0.00177057 -1.09878e-23)
(0.000259958 0.00113973 -2.01847e-21)
(0.000423796 0.000927169 2.22372e-21)
(7.61273e-05 0.000881515 0)
(0.000667277 -0.000170716 2.84032e-21)
(6.23896e-05 5.08758e-05 -8.58824e-22)
(0.000251001 0.00136132 -1.6705e-21)
(0.000553372 0.00185342 -5.76822e-22)
(0.000666948 0.00176247 -7.76888e-22)
(0.000634133 0.00184319 6.85195e-22)
(0.000668217 0.0017904 -6.06125e-22)
(0.000513028 0.00169588 -3.13948e-23)
(0.000867572 0.000542835 0)
(0.000617195 0.000852729 2.71527e-21)
(0.000366498 -0.000148694 -9.69463e-22)
(0.000648783 0.00193398 -1.27048e-21)
(0.000104093 4.96187e-06 2.50998e-26)
(0.000651425 0.00169258 5.39315e-22)
(0.000967018 5.70913e-06 9.71948e-23)
(0.000831856 0.00116393 -1.34669e-23)
(0.0014402 0.000456072 0)
(0.000547345 0.0015827 -1.57397e-23)
(0.000324764 -9.21926e-05 6.54405e-22)
(0.000721554 0.0020719 -7.44146e-22)
(0.000147046 -0.000124196 2.7019e-21)
(0.000498396 0.00133905 0)
(0.00113269 0.000465419 -3.08922e-21)
(0.000596903 0.00163685 -1.1229e-21)
(0.000519783 0.000856056 -6.03958e-22)
(8.1079e-05 6.58577e-05 8.64104e-22)
(0.000970084 2.81065e-05 -5.29209e-22)
(0.000334808 0.000393537 -3.7038e-22)
(0.000660825 0.00182319 0)
(9.87694e-05 1.746e-05 9.21784e-22)
(0.000300014 0.000457268 -1.27216e-21)
(0.00094168 0.000976216 3.28564e-22)
(9.69678e-05 6.62513e-05 -2.22729e-21)
(0.000701276 0.0019893 -5.20576e-21)
(0.000588095 0.00179506 3.37172e-23)
(0.000662388 0.00182497 7.00971e-22)
(0.00103417 2.73953e-05 0)
(0.000660213 0.00182595 0)
(2.73292e-05 -0.000102278 1.12439e-21)
(0.000658473 0.000526884 6.15387e-21)
(4.66029e-05 3.90088e-05 2.15333e-21)
(0.000762342 0.00192517 8.29774e-21)
(1.03671e-05 -3.38794e-05 1.83724e-23)
(0.00062074 0.0016821 -3.51875e-22)
(0.000787238 0.000292232 -4.93909e-21)
(0.000625365 0.00182572 0)
(0.00128608 0.000716063 2.22713e-21)
(0.000615796 0.00190976 3.16728e-22)
(0.000955527 0.000301533 1.56846e-21)
(7.66415e-05 2.73777e-06 1.29215e-21)
(0.000683546 0.00207491 7.22405e-22)
(0.00032447 0.000852614 -1.5539e-21)
(3.92799e-05 6.95727e-05 -1.88531e-21)
(0.000645119 0.00189693 7.86669e-22)
(0.000894243 0.00101141 1.10467e-21)
(0.000961607 1.04831e-05 6.35171e-22)
(4.64495e-05 6.31179e-05 -4.62272e-22)
(0.000123327 -0.00010905 -2.66753e-22)
(0.000629702 0.000474933 -1.73696e-22)
(0.00023928 0.000789236 1.93735e-21)
(0.000648175 0.00193219 3.63924e-22)
(0.000229807 0.00114105 0)
(0.000729412 0.0020195 -2.13628e-21)
(0.000757629 0.00199565 0)
(0.000905659 0.000276994 -3.32669e-21)
(7.64414e-05 0.000809694 -7.9897e-22)
(4.10036e-05 6.79072e-05 2.46633e-21)
(0.000655666 0.00187222 1.58778e-26)
(0.000912661 0.000284984 6.63796e-24)
(0.000865276 0.000780605 0)
(0.000879915 0.000870611 -6.52017e-22)
(0.000656717 0.00177579 0)
(0.000675485 0.001898 -2.00781e-22)
(0.000632941 0.00170043 0)
(0.0010628 0.000185352 -4.55519e-21)
(0.000871144 0.00143562 6.32409e-23)
(0.000312939 6.22831e-05 1.40228e-21)
(0.000650739 0.00173994 -6.96237e-22)
(4.89288e-05 3.19835e-05 0)
(0.000642738 0.0018756 -1.96681e-24)
(7.84914e-05 0.000136273 2.21418e-21)
(0.000946899 -7.02098e-05 5.21431e-22)
(0.000768939 0.00066042 -1.89659e-21)
(0.000638703 0.00181774 2.97269e-22)
(0.000637789 0.00193144 -1.66093e-22)
(0.000962578 1.62923e-05 2.17024e-22)
(0.000659669 0.00180639 6.77219e-22)
(0.000830621 0.000862338 1.92716e-21)
(3.53161e-05 4.03556e-06 -1.53051e-21)
(0.000705786 0.00210081 -4.54393e-22)
(0.000581625 0.000517558 0)
(-8.05954e-05 0.000603362 3.26303e-21)
(0.00102354 0.000270513 0)
(0.000664212 0.0017828 -7.78705e-22)
(0.00108736 0.000241959 0)
(0.000657464 -0.000203458 2.05849e-22)
(0.000320364 0.000749693 1.02345e-21)
(0.000413542 0.000945909 1.06894e-21)
(0.00080662 0.00141936 -1.9004e-21)
(0.000349417 0.00105795 -1.08883e-21)
(-4.10876e-05 0.000570049 7.45636e-22)
(0.000772855 0.000862454 1.64625e-21)
(0.000690482 0.00189512 -6.17791e-22)
(0.000649086 0.0016948 -3.00527e-22)
(0.000670571 0.00187586 9.07932e-22)
(0.000731452 0.001991 -4.08062e-21)
(0.000584146 0.0002245 4.16794e-24)
(0.000745386 0.00201921 0)
(0.000459512 0.000586066 0)
(0.000653112 0.00181376 0)
(0.000986507 0.00160393 5.54915e-21)
(0.0004399 0.0011509 3.65556e-24)
(0.000621419 0.00181848 2.67136e-22)
(0.000616742 0.00177081 -5.73096e-23)
(0.000634991 0.00188436 -1.75329e-22)
(9.60726e-05 -0.000761089 6.62406e-22)
(0.000502092 0.00049467 -2.17617e-21)
(0.000699569 0.00190423 -1.34008e-21)
(7.84716e-05 -9.06935e-06 -4.58383e-22)
(0.000640302 0.00179705 -1.38128e-21)
(3.55214e-05 -1.91237e-06 0)
(0.000431587 0.000852821 2.44747e-22)
(0.000630907 0.00031375 -3.80191e-21)
(0.00102617 0.00061138 1.36439e-21)
(0.000605899 0.00149108 -1.11777e-21)
(0.000583677 0.00174231 2.66752e-23)
(0.000536937 0.000808955 -2.37462e-21)
(0.000336434 0.000505128 -6.11271e-24)
(0.000793739 0.000715664 2.59568e-21)
(3.52862e-05 4.88929e-05 3.06184e-22)
(0.000628106 0.00181717 0)
(0.00039513 0.000461157 -4.67861e-24)
(0.00066059 0.00192374 -3.96151e-22)
(0.000935057 -2.53168e-06 8.83372e-22)
(0.000647618 0.00178961 2.70774e-22)
(0.000820635 -0.000343512 -2.73426e-21)
(0.000689669 0.00190873 4.12001e-22)
(1.58998e-05 0.000122145 -3.01529e-22)
(0.000626713 0.002039 -2.48319e-22)
(0.00038369 0.00120481 5.12214e-23)
(2.51321e-05 8.59597e-05 0)
(0.000295074 0.00057973 -8.18907e-22)
(0.00071242 0.00190986 6.28351e-23)
(0.000632218 0.00189456 -6.0044e-22)
(0.000423547 0.000645701 4.66451e-21)
(0.000571884 0.000267333 -2.73105e-21)
(0.000377807 0.000632598 -1.76082e-24)
(0.000332842 0.000620629 -3.32334e-21)
(2.91767e-05 5.20054e-05 5.69641e-22)
(0.000778245 0.000676716 3.00548e-21)
(0.00010131 -9.51734e-05 5.57815e-22)
(0.000655519 0.00176538 1.55625e-22)
(5.8978e-05 0.000992618 -5.4631e-22)
(0.000713762 0.00208862 0)
(0.000661084 0.00175926 -1.33717e-21)
(0.000391473 0.000508236 -2.90229e-21)
(0.000551633 0.000126651 1.1923e-21)
(0.000683619 0.00188191 -2.51679e-21)
(0.000687628 0.00188701 -3.46505e-22)
(6.7194e-05 0.000106781 1.41202e-22)
(0.000338058 0.000539329 -2.9418e-21)
(0.000710695 0.00214361 -3.55626e-22)
(0.000641529 0.00189039 -7.88664e-22)
(0.000619262 0.00115761 -3.25455e-21)
(0.00080357 0.000192094 2.28131e-21)
(7.54976e-05 -7.28096e-05 -1.75641e-23)
(0.000669124 0.00192573 0)
(0.00107174 0.000433682 0)
(0.000315706 2.23763e-05 2.35328e-21)
(0.000331736 0.000457247 5.51896e-21)
(0.000887444 0.00029497 2.41706e-25)
(0.000296767 0.000426497 1.33786e-21)
(0.000638957 0.00187288 -8.27177e-22)
(1.81997e-05 0.000149893 -1.16192e-21)
(0.000560703 0.000209438 -1.43286e-21)
(0.00109238 -2.02757e-05 0)
(0.000602015 0.000422651 0)
(0.000628377 0.00184563 7.94909e-22)
(0.00010329 0.000438664 2.57203e-24)
(-2.63713e-05 0.000639371 -6.33838e-22)
(0.000640294 0.00187937 1.74474e-21)
(3.57534e-05 2.58009e-05 1.82159e-21)
(0.000726362 0.000645205 -9.76598e-22)
(0.000595925 0.000671412 -2.63518e-22)
(0.000654068 0.00182209 5.83581e-22)
(0.000472033 -3.02934e-05 -2.91508e-25)
(0.00112692 0.000110834 -2.11424e-21)
(0.000668246 0.00191473 -8.54891e-22)
(0.000674179 0.00189708 -7.90135e-22)
(0.000357379 0.000421224 0)
(0.000407209 0.00115457 1.12282e-22)
(4.24774e-05 1.91235e-05 -1.33782e-22)
(0.000297408 0.000495361 1.28732e-21)
(0.000636078 0.001962 1.94316e-22)
(0.000734817 0.00197649 -2.09672e-21)
(0.000642087 0.000590356 0)
(0.00063986 0.00189444 0)
(1.4283e-05 0.000130119 0)
(0.000925169 0.000452844 2.40816e-21)
(0.000673955 4.91457e-05 7.64172e-22)
(0.000663851 0.000476933 3.02462e-21)
(-4.91821e-06 0.000484711 0)
(0.000637113 0.000615478 3.87785e-22)
(0.000766003 0.00019576 1.98544e-21)
(0.000627442 0.000320915 6.65492e-21)
(8.59503e-05 7.83078e-05 0)
(0.000980502 -3.65496e-05 -8.49425e-23)
(0.000639438 0.00173859 2.43843e-22)
(0.000298579 0.000550152 1.42515e-21)
(0.000644096 0.00184792 -2.08889e-22)
(0.000668752 0.00178762 -2.60311e-24)
(0.000649148 0.00180935 2.84058e-23)
(0.000329375 0.000319368 3.64221e-22)
(0.000788502 1.77509e-05 0)
(2.09792e-05 3.17069e-05 -2.2405e-27)
(0.000944783 -5.37585e-05 1.5772e-21)
(1.57877e-05 9.68858e-06 -3.82211e-22)
(0.000472489 -0.000230599 -1.26598e-21)
(0.00121235 0.000103746 0)
(0.00107145 0.000226911 1.82818e-21)
(0.000551166 0.00164036 -1.96689e-24)
(4.4637e-05 2.80151e-05 0)
(0.000735216 0.00203084 3.64116e-22)
(0.000715971 0.000123707 6.36534e-22)
(0.000963624 1.68574e-05 -2.79004e-22)
(2.1628e-05 0.000186047 0)
(0.00108828 0.00048501 -4.11585e-21)
(0.000655268 0.00170247 -3.85565e-22)
(0.00074156 0.00204921 -2.89259e-21)
(0.000628871 0.00187308 -2.83715e-24)
(0.000653514 0.00169557 0)
(-2.38935e-08 0.000104331 -8.87969e-23)
(0.00069296 0.000737233 -6.69407e-22)
(0.000957533 4.91907e-05 -2.72871e-21)
(0.000817006 0.000196901 -3.10138e-21)
(0.000385008 6.84188e-05 7.11976e-21)
(5.10632e-05 2.39855e-05 -8.77799e-22)
(0.000656583 0.00174086 -9.50037e-21)
(0.000275859 0.000722795 6.53553e-25)
(0.000673978 0.00190895 -2.84261e-23)
(0.00063273 0.00200602 -5.14791e-23)
(0.000653693 0.00178588 0)
(0.00097464 3.52499e-05 0)
(6.53017e-05 -6.34169e-05 0)
(0.000686242 0.00189142 -2.07273e-22)
(0.000649565 0.00183495 -1.79792e-21)
(0.000617595 0.000382617 -4.08124e-21)
(0.0007155 0.00191058 0)
(0.00152098 0.00055902 3.76104e-22)
(1.91725e-05 3.56936e-05 -4.6052e-22)
(0.00134052 0.000663593 -9.54591e-23)
(0.00072623 0.00205636 1.24942e-21)
(7.59989e-05 -1.58963e-05 2.18026e-21)
(0.000643734 0.00179307 -1.324e-21)
(0.00065052 0.0017968 -1.01716e-21)
(0.000998119 2.42409e-05 -8.33484e-23)
(0.000655691 0.00171632 3.65841e-22)
(0.000404007 4.74896e-05 -2.37438e-21)
(0.000653784 0.0018134 0)
(0.000634257 0.00183907 -3.24328e-22)
(3.6384e-05 1.67521e-05 0)
(0.000434777 1.20841e-05 2.54429e-25)
(0.000703492 0.00204342 1.03297e-23)
(0.000637323 -0.00037159 1.00223e-21)
(0.000395763 0.00111151 7.38867e-24)
(0.0010971 6.48314e-05 1.34395e-22)
(0.000155247 -4.84902e-05 2.34337e-21)
(0.000339611 -9.93238e-06 -1.40817e-21)
(0.000993231 1.15712e-05 1.57638e-21)
(0.000633635 0.000583805 4.83845e-22)
(0.000716494 0.000163448 2.4123e-21)
(0.000645616 0.0017662 -9.11043e-22)
(0.000137588 0.000171176 -1.271e-21)
(0.000757494 -0.000211448 5.93286e-22)
(2.59126e-05 4.02742e-05 1.87391e-21)
(0.000744871 0.00204603 -2.3886e-21)
(0.000310671 0.000357621 0)
(0.00075702 0.000946707 2.73236e-21)
(0.000711358 0.00207151 0)
(0.000681493 0.00191035 0)
(0.000923304 3.47002e-05 0)
(0.000660385 0.000392841 -2.32356e-24)
(0.000316774 -5.51433e-05 5.17362e-26)
(0.000310076 -0.000206687 -1.70528e-21)
(0.000558727 0.000292676 -5.79397e-21)
(0.000305947 -1.71603e-05 1.33741e-21)
(1.9466e-05 0.000166527 1.16791e-21)
(0.000713533 0.00206054 0)
(0.000312888 -0.00024829 5.92038e-21)
(0.000148972 -0.000153088 1.1924e-21)
(0.000690168 0.00190438 -1.88086e-22)
(0.000388123 0.000958316 0)
(6.13567e-05 8.88723e-05 -1.7389e-21)
(0.000310825 -0.000104989 2.149e-21)
(0.000352401 8.58727e-05 -4.09552e-21)
(0.000956695 3.61552e-05 3.68664e-21)
(0.000941957 0.000346908 3.29078e-21)
(0.000654337 0.00191034 -6.467e-22)
(0.000937533 -9.25552e-05 0)
(0.000565343 -0.000178625 1.44293e-21)
(0.000580788 -0.000115605 3.77893e-21)
(0.000569871 -6.40251e-05 -4.77931e-21)
(0.000538257 5.42981e-05 2.12444e-21)
(0.000576023 -1.48186e-06 -1.16545e-21)
(-2.30803e-05 -0.000414933 8.24474e-22)
(3.99913e-05 2.58484e-05 2.60326e-22)
(0.000779411 0.000871176 -4.47656e-21)
(0.000900639 -4.79296e-05 0)
(0.000642582 0.00179592 -1.7636e-22)
(0.000423872 0.000118039 -9.16559e-22)
(0.000250352 0.00128677 -1.75984e-21)
(0.000691873 0.0018901 -9.78745e-22)
(0.000144455 -6.15794e-05 1.98561e-23)
(0.000729868 0.00208327 -8.71487e-22)
(0.000706095 -1.84646e-06 6.7212e-22)
(0.000352206 0.000285821 3.46212e-22)
(0.000569559 0.00010045 0)
(0.000655905 0.00183434 0)
(0.000713554 0.000370973 3.67467e-21)
(0.000681218 0.00188045 -6.50328e-22)
(0.000220976 -9.38793e-05 -2.04056e-21)
(0.000639116 0.00179599 6.86756e-22)
(0.000958971 1.34126e-06 2.78672e-24)
(6.69972e-06 0.000446596 0)
(0.000657391 0.00182699 1.84579e-22)
(0.00065122 -0.00010819 2.4045e-21)
(0.000287865 0.000388127 -2.73814e-21)
(1.32147e-05 1.44283e-06 1.10855e-21)
(0.000962551 2.91837e-05 -4.24457e-21)
(0.000261843 -8.63673e-05 5.10548e-21)
(0.000982809 -2.88156e-05 -2.21681e-21)
(0.00083292 -0.000160241 1.38316e-21)
(0.000732808 0.00205691 -1.52912e-21)
(0.000978754 1.98656e-05 2.87817e-22)
(0.00010771 -0.000119594 -1.65362e-21)
(0.00064861 0.0018166 6.10524e-24)
(0.000499658 0.00119567 -6.63288e-22)
(0.000965938 5.73663e-06 -1.07741e-21)
(0.000929487 4.17336e-06 3.73723e-21)
(0.00110908 0.00014901 0)
(0.000660889 0.00180783 -5.30223e-22)
(0.000355947 4.17531e-06 1.39285e-21)
(1.95425e-05 2.77413e-05 1.89761e-21)
(0.000528702 0.000910041 -3.42801e-22)
(0.000467061 0.00173274 -1.51447e-21)
(9.69871e-06 1.25395e-06 -1.10466e-21)
(2.86469e-05 0.000277287 -7.80005e-23)
(0.000722612 0.00190338 0)
(0.000664543 0.00176139 8.06438e-23)
(0.000687076 0.000204224 -1.12201e-21)
(0.000984522 -2.12626e-05 -5.13403e-21)
(3.00312e-05 0.000305728 0)
(0.000652404 0.00182063 4.90411e-23)
(0.000655252 0.00182622 -8.03073e-22)
(0.000729648 0.00205275 1.60209e-23)
(0.000729924 0.00203355 0)
(0.000605219 0.000564448 -1.84488e-21)
(0.00016765 -0.000195599 0)
(0.000633767 -4.41888e-05 1.26771e-21)
(0.000751038 0.00204048 3.78696e-21)
(0.000665737 0.00182313 4.5976e-21)
(0.000634627 0.00183577 0)
(0.000666862 0.0018328 -1.64788e-24)
(0.000961919 1.23396e-05 0)
(0.000279709 4.84271e-05 1.46451e-21)
(0.000358942 4.88765e-05 -2.52848e-21)
(0.000427896 -0.000156938 0)
(0.000645765 0.00177214 2.07007e-22)
(-1.44754e-06 -0.000262064 2.08109e-21)
(0.000727428 0.00204701 1.57137e-21)
(0.000739291 0.00208111 -9.75575e-22)
(0.000521615 0.00171129 -4.50789e-22)
(0.00100548 5.10744e-05 0)
(0.000907114 1.96841e-05 1.37291e-22)
(0.00021578 -7.40887e-05 -3.56763e-22)
(0.000703094 0.00200832 1.17514e-21)
(1.90798e-05 2.57106e-07 0)
(0.000734355 0.00204349 0)
(0.000651915 0.00189983 9.10923e-22)
(0.000839428 -8.09368e-05 0)
(0.000134758 -3.55532e-05 -7.12874e-23)
(0.000955584 2.27233e-06 -5.17852e-22)
(1.73196e-05 0.000257202 6.80215e-22)
(0.000127749 -0.000144933 8.45573e-22)
(0.00082279 7.4009e-05 1.26164e-21)
(0.00118681 0.00139489 -3.5395e-21)
(2.29711e-05 4.11418e-05 -1.9873e-21)
(0.000722019 0.00195801 2.77778e-21)
(0.000681306 0.00190882 -2.15104e-21)
(0.0010079 6.87306e-06 0)
(0.000852597 2.62319e-05 -1.06067e-23)
(0.000669164 0.00190535 1.48311e-21)
(0.000125005 -5.12122e-05 -1.14397e-21)
(0.000667185 0.0018278 -1.06496e-22)
(0.000762107 0.00202278 7.60383e-22)
(0.000717659 0.0019959 -2.42416e-21)
(2.9858e-05 5.6312e-05 -5.96506e-22)
(7.68793e-05 0.000256447 7.37525e-23)
(5.06596e-05 8.77101e-06 1.24581e-21)
(1.53608e-05 2.61231e-05 4.98624e-22)
(0.000629282 0.00182314 0)
(0.000164204 -6.16288e-05 -9.60578e-26)
(0.000743387 -1.23719e-05 0)
(2.10571e-05 4.30477e-05 2.46456e-22)
(0.00065292 0.0017622 8.04609e-22)
(9.74151e-05 -4.22948e-05 0)
(0.000291208 0.000691368 -1.56273e-21)
(0.000950627 -1.81404e-05 0)
(1.58859e-05 -1.83111e-05 5.70835e-22)
(0.000728109 -0.000192728 0)
(0.000950331 5.92175e-05 0)
(0.000733557 4.27491e-05 6.82691e-22)
(3.07959e-05 -0.000270432 0)