/*--------------------------------*- C++ -*----------------------------------*\
  =========                 |
  \\      /  F ield         | OpenFOAM: The Open Source CFD Toolbox
   \\    /   O peration     | Website:  https://openfoam.org
    \\  /    A nd           | Version:  8
     \\/     M anipulation  |
\*---------------------------------------------------------------------------*/
FoamFile
{
    version     2.0;
    format      ascii;
    class       volVectorField;
    location    "6";
    object      U;
}
// * * * * * * * * * * * * * * * * * * * * * * * * * * * * * * * * * * * * * //

dimensions      [0 1 -1 0 0 0 0];

internalField   nonuniform List<vector> 
6388
(
(0.000942672 2.16313e-05 1.20698e-21)
(0.000928614 9.99249e-06 0)
(0.000155099 -1.98278e-05 0)
(0.000868404 0.000323422 -4.84901e-22)
(0.000748783 0.00133548 3.35184e-21)
(0.000649636 0.0011193 -2.36747e-23)
(0.000445533 0.000471937 2.31234e-21)
(0.000618376 0.000783158 2.27567e-21)
(0.000348662 0.000263201 -9.91765e-22)
(0.000122313 0.000653593 0)
(0.00060362 0.00114973 0)
(8.92696e-05 0.000670567 0)
(0.000588771 0.000598523 1.86998e-25)
(0.000665986 0.00121262 2.51734e-21)
(0.000487985 0.000565739 3.38128e-21)
(0.000607711 0.000699243 0)
(0.000549411 0.000887609 2.59218e-21)
(0.000624331 0.00112396 -3.04823e-23)
(0.000282603 0.000572093 0)
(0.000142661 0.000453027 2.52244e-24)
(0.000509632 0.000695264 -1.20614e-21)
(0.000662575 0.000808807 0)
(0.000656867 0.00120657 -1.03403e-21)
(0.000784303 0.00132961 1.00844e-21)
(0.000687714 0.00115167 -2.50262e-21)
(0.000213632 0.000593916 -2.07873e-22)
(0.000649083 0.00059401 0)
(0.000470701 0.000746294 6.09689e-22)
(0.000348327 0.000684006 1.01128e-21)
(0.000718286 0.000252494 -2.41503e-21)
(0.000649425 0.0011741 0)
(0.000663367 0.00120657 9.90968e-22)
(0.000667836 0.00108834 -2.65924e-21)
(0.000607202 0.00123412 1.42203e-21)
(0.000648389 0.00117956 1.82325e-21)
(0.000592071 0.00112393 0)
(0.000692464 0.0011362 6.15475e-22)
(0.000181973 0.000868738 8.30588e-22)
(0.000624892 0.000609946 6.0543e-22)
(0.000593409 0.00117423 1.39539e-21)
(0.000178932 0.000514594 2.87306e-21)
(0.000180469 0.000531691 -1.3107e-21)
(0.00093876 -3.33329e-05 -1.19391e-21)
(0.000646107 0.00120715 4.92498e-24)
(0.000594906 0.000203485 -2.86295e-21)
(0.000306155 0.0007434 -5.90709e-22)
(0.000967831 2.24851e-05 -1.20258e-21)
(0.000296065 0.000418134 5.39054e-22)
(0.000980496 0.000233551 1.61581e-25)
(0.000884449 0.000725872 -1.33067e-21)
(0.00016547 -5.70936e-05 6.88161e-22)
(0.000860363 3.52276e-06 4.79398e-21)
(0.000332188 0.000441702 -3.5372e-21)
(0.000208941 0.000503153 1.31928e-21)
(0.000143312 0.000711701 1.38659e-21)
(2.83791e-05 6.71429e-05 0)
(0.000759589 0.000841334 2.03298e-21)
(0.000847195 0.000350686 0)
(5.77883e-05 0.000441458 -1.59103e-21)
(0.000344021 0.000469999 -2.00551e-21)
(0.000533753 0.000890907 9.7549e-22)
(0.000696196 0.000334222 0)
(0.000391672 0.000655071 1.28278e-24)
(0.000987816 0.000293415 4.17504e-22)
(0.000433285 0.00107576 2.09751e-21)
(3.78994e-05 2.19653e-06 1.45117e-21)
(0.000554737 0.000827436 1.39828e-21)
(0.000590222 0.00068959 1.10458e-21)
(0.000149794 0.000785632 1.71362e-22)
(3.75248e-05 -2.69551e-06 0)
(0.00140287 0.00105806 -1.47676e-21)
(0.000655553 0.00114715 -1.18503e-21)
(0.000707493 0.00107141 4.78914e-22)
(0.000546225 0.00139269 2.00961e-21)
(1.01068e-05 0.000113912 -1.99454e-22)
(0.000521968 0.000452278 5.58434e-25)
(0.000641182 0.00116429 7.96729e-24)
(0.000585739 0.000321699 -1.59343e-21)
(0.000902616 0.000315123 1.00982e-21)
(0.00066269 0.00114416 -7.82119e-22)
(0.000271037 0.000689472 3.14527e-22)
(0.000475821 0.00134943 -1.67806e-23)
(0.000344896 0.00106904 0)
(0.000336435 0.00105059 -1.61962e-23)
(0.000326684 0.00102655 0)
(0.000405988 0.0012069 -1.69722e-23)
(0.000723156 0.00135242 -1.55091e-21)
(0.000532319 0.00146959 1.77905e-23)
(0.000356034 0.00110011 -9.75961e-25)
(0.000375055 0.00114246 -1.27944e-23)
(0.000435448 0.00127494 -1.3425e-23)
(0.000316825 0.00100821 -1.22135e-23)
(3.71794e-05 2.07299e-06 -4.33531e-21)
(0.000941443 0.000153208 1.49277e-21)
(0.000553103 0.000672855 0)
(0.000905241 0.000187783 0)
(3.87149e-05 7.72049e-07 -2.94474e-21)
(0.000714828 0.00129437 7.30587e-22)
(0.00096369 0.000259852 -2.44264e-21)
(0.00115756 0.000527543 -1.57584e-21)
(0.000303002 0.00060065 -1.77604e-21)
(0.000416939 0.00127727 -8.33178e-24)
(0.00062791 0.000824088 0)
(0.00015826 0.00067589 2.82017e-21)
(0.000154114 0.000677039 -2.06977e-21)
(0.000536136 0.000923422 2.6968e-21)
(0.000311252 0.000317727 -2.49244e-21)
(0.000479055 0.000913843 0)
(0.000393937 0.000663972 1.70036e-21)
(0.00020278 1.10329e-05 -2.81254e-21)
(0.000374774 0.000510928 -1.53272e-21)
(0.000665725 0.00112105 -1.31207e-21)
(0.000525254 0.00100033 0)
(3.34001e-05 0.000454104 3.01281e-22)
(0.000994693 9.21617e-05 6.26721e-22)
(0.000992017 0.000122757 -2.1376e-21)
(0.000813962 0.00127014 0)
(0.000956354 0.000105139 -5.17329e-22)
(0.000657521 0.000586797 1.53596e-22)
(8.26561e-06 0.000152664 0)
(0.00070392 0.0012204 0)
(0.00019292 -0.000137403 0)
(0.00045276 0.000661449 -1.91964e-22)
(0.000323533 0.000264613 -3.9385e-22)
(0.000666817 0.00114783 -4.07266e-22)
(0.000959586 0.000226516 1.57001e-21)
(0.000409624 0.000287173 -2.95909e-21)
(0.000515324 0.000588266 -2.29053e-21)
(3.52909e-05 0.000208066 -4.53695e-22)
(0.000161005 0.000569238 -1.70906e-21)
(0.000596111 0.00112733 1.00067e-21)
(0.000433225 0.000769815 1.60606e-21)
(0.000290962 0.000303994 -1.29651e-21)
(0.000921511 0.000171064 0)
(2.14479e-05 7.77333e-06 2.66618e-21)
(0.000839006 0.00130549 -9.00113e-22)
(0.000831313 0.00132702 1.34331e-21)
(0.000538815 0.00141159 1.28334e-21)
(0.000615196 0.000293545 -1.7846e-21)
(0.000286281 0.000684689 0)
(0.000666117 0.00123448 3.46969e-22)
(0.000871999 3.5933e-05 -1.18258e-23)
(0.000437649 0.000662723 3.58507e-23)
(0.00070427 0.00022564 2.12055e-21)
(0.000127724 0.000165495 1.14318e-21)
(0.000846382 0.000916241 0)
(0.000278606 0.000360599 1.36924e-21)
(3.53364e-05 -2.94244e-06 2.69829e-21)
(0.000800302 0.000720767 2.54709e-23)
(0.000868532 -1.44408e-05 0)
(0.00041479 0.00077173 -3.08904e-21)
(0.000956073 0.000254216 2.00071e-21)
(0.000285598 0.000708845 -1.64393e-21)
(0.000655604 0.00107434 6.29122e-22)
(0.000151136 0.000700636 2.61841e-22)
(0.000545225 0.000548403 0)
(-2.25132e-05 0.000706806 -1.26685e-22)
(0.000172198 -2.99842e-07 1.02686e-21)
(0.000673456 0.00119516 -7.95142e-22)
(0.000824533 0.00125191 2.32558e-21)
(0.000623666 0.000161008 -2.06725e-21)
(0.000979109 0.00014038 -1.89245e-21)
(0.000667265 0.0011559 -2.34372e-21)
(0.000329033 0.00087313 1.97844e-21)
(3.88009e-05 -1.26593e-06 -1.53489e-21)
(0.000586149 0.00111116 0)
(0.000600382 0.00110684 -1.28853e-21)
(0.000612066 0.00111994 1.08547e-23)
(0.000587095 0.00108357 -3.83343e-21)
(0.000157024 -0.000300584 1.90553e-21)
(0.000657387 0.00122588 2.04092e-21)
(0.000416175 0.000760108 -1.17031e-21)
(0.000622531 0.000835514 5.14801e-21)
(3.40114e-05 -3.63774e-06 0)
(0.0014385 0.000122294 1.06315e-21)
(0.000670196 0.00122079 4.53961e-21)
(0.000412948 0.000294203 -5.88824e-22)
(0.000132511 -0.000420758 9.31761e-22)
(0.000988881 5.32265e-05 -2.91392e-21)
(0.000423852 0.000770659 0)
(0.00130143 0.000808377 4.02545e-22)
(0.000264581 0.000805072 0)
(0.000658738 0.00122654 -1.02765e-21)
(0.000692426 0.00123903 7.11461e-22)
(0.000682258 0.000867078 -1.47929e-21)
(0.000668504 0.00134871 -2.94568e-21)
(0.000300634 -0.000111526 3.49339e-21)
(0.000686253 0.00119324 2.48058e-21)
(0.000821597 0.000987484 -1.54524e-22)
(0.000594705 0.00107749 -1.00756e-23)
(0.000606642 0.00110019 -5.23463e-21)
(0.000418068 0.000847754 -2.35424e-24)
(0.000650765 0.00113279 8.54818e-22)
(0.000896344 1.76537e-05 0)
(0.000580287 0.00084208 -2.90945e-21)
(0.000291911 -0.000164406 2.14052e-21)
(4.12333e-05 -1.86412e-06 0)
(0.000237443 -0.000153005 1.24871e-21)
(0.000660188 0.0012251 -3.03616e-21)
(0.000717075 0.00126502 1.07368e-21)
(0.000612345 0.00103438 1.71346e-21)
(0.000613063 0.00109937 9.12595e-22)
(2.7718e-05 -5.03721e-06 5.37044e-21)
(0.000585647 0.0010722 1.65455e-21)
(0.000608446 0.00110954 -6.24748e-24)
(0.000598488 0.001095 0)
(0.000722211 0.00129391 -9.42128e-22)
(0.000708882 0.00129268 -1.09919e-21)
(0.000120005 -5.84115e-05 -7.20012e-26)
(0.000600811 0.000528926 1.06263e-21)
(0.00071861 0.00126725 0)
(0.000724044 0.00131479 8.49441e-22)
(0.000631836 0.00107341 0)
(0.000584853 0.00107256 1.39814e-21)
(0.000675042 0.00121892 -1.48927e-21)
(0.000584813 0.00107977 0)
(0.0005937 0.00109608 7.30738e-22)
(0.000572663 0.00105711 7.23461e-22)
(0.000730173 0.00130685 -8.41286e-22)
(0.000559579 0.00105873 -2.08139e-21)
(0.000767805 0.00135242 -9.35942e-22)
(0.000578983 0.000280374 0)
(0.000802977 0.00145234 -8.92114e-22)
(0.000736251 0.00117271 -2.0467e-21)
(0.000134645 -6.5977e-05 -1.59527e-21)
(0.000637445 0.00100799 -3.67908e-23)
(0.000713211 0.0012894 1.16343e-21)
(0.000677992 0.00122205 7.84495e-22)
(0.000582487 0.00108449 0)
(0.000591824 0.00110075 -7.46044e-22)
(0.000569915 0.00106184 -7.3875e-22)
(0.000429426 0.000932377 -1.16838e-21)
(0.000720933 0.00130005 1.66672e-21)
(0.000287064 0.000369734 -7.61261e-22)
(0.000423069 0.000763595 2.38113e-21)
(0.000763994 0.00134611 -1.60737e-21)
(0.00047292 0.00103574 5.57846e-21)
(0.00082895 0.00148973 1.32388e-21)
(0.000680098 0.00118718 -1.06952e-21)
(0.000714234 0.00125417 -2.36195e-21)
(0.00061324 0.00107037 0)
(0.000621954 0.00108629 0)
(0.000600666 0.0010479 0)
(0.000683122 0.00135585 1.33035e-21)
(0.000607905 0.00109366 1.58659e-23)
(0.000616994 0.00110995 1.56372e-23)
(0.000595091 0.00107077 1.5554e-23)
(0.000686067 0.00124696 1.48093e-21)
(0.000718805 0.0013021 4.37583e-22)
(0.000644079 0.00115153 0)
(6.56363e-06 -6.00255e-05 0)
(0.000792575 0.00138452 -3.59245e-22)
(0.000724502 0.00128793 0)
(0.000588612 0.0010653 6.41855e-24)
(0.000597107 0.00108011 -1.08494e-21)
(0.000576301 0.00104314 -1.04947e-21)
(0.000666559 0.00122522 -9.81468e-22)
(0.000670035 0.0012257 -2.87653e-24)
(0.000816115 0.00147878 7.25698e-22)
(0.000684649 0.0010465 -1.76941e-21)
(0.000674859 0.00121803 1.92361e-23)
(0.000660036 0.00102429 2.55768e-21)
(0.000673622 0.00104651 8.84864e-22)
(0.000742562 0.00137328 1.05877e-21)
(0.000675057 0.00121876 -6.8371e-22)
(0.000577285 0.00105034 1.00209e-21)
(0.000598027 0.00108823 -1.97e-21)
(0.00058963 0.00107271 1.02209e-21)
(0.000592963 0.0010778 -2.05394e-21)
(0.000602085 0.00109407 -6.77087e-22)
(0.000580566 0.00105519 -6.70264e-22)
(0.000733325 0.0013548 -6.53525e-22)
(0.000622429 0.00110865 -7.88516e-22)
(0.000845383 0.00141746 -4.04237e-22)
(0.000344798 0.000742306 -9.3919e-22)
(0.000650898 0.00116256 7.06135e-22)
(0.000216918 -0.000116414 0)
(0.000573329 0.00105187 0)
(0.000626125 0.00114052 6.47691e-22)
(0.000575428 0.00104093 -5.30224e-24)
(0.000790805 0.00142255 1.71411e-23)
(0.000717633 0.00126557 0)
(0.000656439 0.00118399 -6.88403e-22)
(0.000872978 0.000707162 2.17222e-21)
(0.000564267 0.00106486 1.31543e-21)
(0.000909657 0.000464231 1.43055e-21)
(0.000621454 0.00112571 8.33019e-22)
(0.000723607 0.0012727 9.96278e-24)
(0.000392584 0.000640231 2.64036e-21)
(0.000710929 0.00128581 -2.85195e-22)
(0.00079382 0.00138206 -7.8264e-22)
(0.000392341 0.000743547 -4.2584e-22)
(0.000676541 0.00118859 -1.50642e-21)
(0.000359539 0.000532498 1.46151e-21)
(0.000652258 0.00116246 8.74942e-22)
(0.000726281 0.00128358 1.68157e-21)
(2.83656e-05 -5.83339e-07 0)
(0.000569284 0.00103243 1.14068e-21)
(0.000614463 0.00104504 1.06242e-21)
(0.000832307 0.000730667 -3.36643e-23)
(0.000771657 0.0014506 -1.15911e-21)
(0.000592525 0.00106499 -2.34924e-21)
(7.09978e-06 1.2436e-05 -4.59493e-21)
(0.0007664 0.00136698 7.04096e-22)
(0.000676593 0.00120552 9.50166e-22)
(0.000650661 0.0011896 1.51901e-21)
(0.000652407 0.000995922 -8.68448e-22)
(0.000675362 0.00103267 -8.77285e-22)
(0.000665847 0.00101734 -8.85799e-22)
(0.000827766 0.0014612 -4.51789e-22)
(2.27574e-05 5.31928e-05 -1.74811e-21)
(0.000602179 0.00108596 -1.23421e-21)
(0.000154141 0.000201558 3.4666e-22)
(0.000531572 0.00104755 -1.45799e-21)
(0.000374494 0.000672431 3.39684e-21)
(0.00050408 0.000159776 -5.13312e-21)
(0.000799631 0.00145403 1.1198e-21)
(0.000825547 0.00145011 0)
(0.000342979 0.000514995 -4.79549e-22)
(0.000646811 0.00116685 -1.70084e-21)
(0.000670738 0.00109893 2.15552e-21)
(0.000282126 0.000326943 6.94721e-22)
(0.000897502 0.00142222 -7.73164e-22)
(0.000612644 0.00103862 9.41498e-22)
(0.000820991 0.0014793 2.68707e-21)
(0.000374189 0.000696429 1.25286e-24)
(0.000505022 0.00082738 -1.3219e-21)
(0.000636962 0.00108825 -2.26346e-21)
(0.000710752 0.00129131 -5.33897e-24)
(0.000574429 0.00103852 0)
(0.000618996 0.00119454 -3.59798e-23)
(0.000526706 0.00103106 1.4819e-22)
(0.000539026 0.00105329 1.51336e-22)
(0.00054834 0.00106962 1.5008e-22)
(0.000692725 0.00132092 1.51073e-22)
(0.000827335 0.00129015 -6.53111e-22)
(0.000621604 0.00112507 5.35117e-24)
(0.000608908 0.00108434 0)
(0.000596281 0.00106121 -2.17042e-21)
(0.000556477 0.00106736 0)
(2.03059e-05 0.000694107 8.99429e-22)
(0.000673741 0.00121918 7.23861e-22)
(0.000576386 0.00103879 -6.30671e-22)
(0.000544061 0.000381771 -8.62337e-22)
(0.000694812 0.00128697 6.5372e-22)
(0.000620523 0.00112527 8.61625e-22)
(0.000327106 0.000479001 -1.8057e-21)
(0.000645126 0.00116571 -6.6237e-22)
(0.000678144 0.00121841 -1.68682e-21)
(0.00058225 0.0010544 3.32272e-21)
(0.000605197 0.00109283 3.35504e-21)
(0.000595332 0.0010768 1.34062e-21)
(0.000592007 0.00106412 -1.11892e-21)
(0.000604935 0.00108717 0)
(0.000697201 0.00129045 -2.02513e-21)
(0.000794916 0.00141698 1.04121e-21)
(0.000653919 0.00106452 -7.01296e-22)
(0.000754856 0.00135651 8.78055e-24)
(0.00054401 0.00104996 2.42411e-21)
(0.000681187 0.00119798 9.9552e-22)
(0.000585075 0.0010752 0)
(0.000606499 0.00111472 0)
(0.000597673 0.00109824 0)
(0.000511845 0.000892948 -1.13284e-21)
(0.000440848 0.000784604 -2.68491e-21)
(0.000775413 0.00124054 -4.62242e-22)
(0.000753151 0.00134143 5.50525e-22)
(0.000674772 0.00121941 7.6112e-22)
(0.00063305 0.000813424 -4.72919e-21)
(0.000567872 0.00105863 5.62188e-24)
(0.000589214 0.00109744 5.70218e-24)
(0.000580169 0.00108121 0)
(0.000792666 0.00145688 5.9747e-22)
(0.000667823 0.00115588 3.89064e-22)
(0.000584896 0.0010592 -1.08988e-21)
(0.00080218 0.00144691 -1.84812e-21)
(0.000635523 0.00140174 9.7651e-22)
(0.000787703 0.00143834 0)
(0.000620994 0.000987113 0)
(0.000619778 0.00112702 0)
(0.000468154 0.000783297 9.4596e-22)
(6.95963e-06 -1.72195e-05 -1.11344e-21)
(0.000594254 0.00107979 -6.14357e-22)
(0.000603412 0.00109608 0)
(0.00058181 0.00105714 0)
(0.000505946 0.000839535 0)
(0.000520564 0.000808139 -1.12829e-21)
(0.000650379 0.00115817 8.44981e-22)
(0.000560133 0.00104451 -1.38397e-21)
(0.000439055 0.000319334 1.4262e-21)
(0.000758688 0.00134915 1.4963e-21)
(0.000575822 0.00104494 -1.61588e-21)
(0.000631595 0.00111982 0)
(0.000569012 0.0010488 -6.82635e-22)
(8.58648e-06 -3.11712e-05 -9.04429e-22)
(0.000812544 0.00147665 0)
(0.000621592 0.00112748 -1.54309e-21)
(0.000716182 0.00128185 3.70202e-21)
(0.000659479 0.00117031 -6.82252e-22)
(0.000646494 0.00116064 -8.93185e-22)
(0.000332616 0.000690044 1.23472e-21)
(0.000378261 0.00053085 -1.97763e-21)
(0.000636424 0.00084912 -2.72113e-21)
(0.000799615 0.000291729 0)
(0.000780064 0.00121236 0)
(0.000652059 0.00116244 -8.55671e-22)
(0.000731874 0.00130119 -1.50908e-21)
(0.000566552 0.000584812 4.85677e-21)
(0.00076873 -1.56505e-05 2.79961e-24)
(0.000674953 0.00121695 5.88057e-22)
(7.27948e-05 0.000690649 1.22863e-21)
(1.89737e-05 -7.16749e-06 -5.4928e-21)
(0.000804299 -3.81922e-05 -1.22838e-21)
(0.000610057 0.00106624 6.07561e-22)
(0.000588537 0.00102834 6.01519e-22)
(0.000601035 0.00105038 6.13518e-22)
(0.000499111 0.00121168 0)
(0.000426586 0.000275559 4.38223e-22)
(0.000582655 0.000246334 -1.45659e-21)
(0.00088551 0.00136234 -3.65173e-22)
(0.000276412 0.000559076 3.18889e-21)
(2.1962e-05 -2.87046e-06 2.08999e-21)
(0.000576018 0.00103958 -6.85912e-22)
(0.000566004 0.00103566 8.021e-22)
(0.000903708 0.000176113 0)
(0.000577651 0.00105115 -9.59043e-22)
(0.000628086 0.00113649 -4.86229e-22)
(0.000683232 0.00154059 7.65408e-22)
(0.000263735 0.00030746 6.36001e-22)
(0.000719551 0.00127354 0)
(3.08213e-05 -2.71708e-06 2.90321e-26)
(0.00071967 0.00130227 4.39724e-22)
(0.000667088 0.001385 -6.57488e-22)
(0.000623355 0.00109364 7.18132e-24)
(0.000564496 0.000941193 1.3803e-22)
(0.000652341 0.00117997 -9.67534e-22)
(0.000934755 0.000169775 0)
(0.000575173 0.00104123 -2.39237e-23)
(0.000750404 0.0013493 5.06454e-22)
(0.000647412 0.00115531 1.61192e-21)
(0.000576878 0.00105488 7.42728e-24)
(0.00059818 0.00109376 7.49036e-24)
(0.000589157 0.00107749 6.99516e-22)
(0.000603689 0.00117987 -1.18547e-21)
(0.000757101 0.00134462 1.16166e-21)
(0.00082553 0.00147426 -2.64295e-21)
(0.000746981 0.00133203 -6.41633e-22)
(0.000673618 0.00121767 -1.17483e-21)
(0.000732499 0.000702362 4.86395e-22)
(0.000811973 0.00147408 5.01684e-22)
(0.000654043 0.000854669 -1.41934e-21)
(0.000584674 0.00105222 1.22501e-21)
(0.000703071 0.00127724 2.96875e-23)
(0.000801987 0.00145273 -2.29012e-21)
(0.000664156 0.00134035 -8.92531e-22)
(0.000673705 0.00121873 6.85753e-22)
(0.000270904 0.000394489 -1.86537e-21)
(0.000459317 0.000597458 2.33164e-21)
(0.000622339 0.00108458 -6.82706e-22)
(0.000580679 0.00105527 0)
(0.000602256 0.00109413 0)
(0.000593102 0.00107788 0)
(0.000724211 0.00135085 0)
(0.000648413 0.00113326 0)
(0.000594853 0.00106192 1.41091e-21)
(0.00061684 0.00110134 1.42539e-21)
(0.00060752 0.00108479 1.43913e-21)
(0.000619612 0.00112504 6.45071e-22)
(0.000532965 0.000345121 3.49158e-21)
(0.000714808 0.0012509 -2.7542e-23)
(0.000811331 0.00146032 0)
(2.64816e-05 -3.16794e-06 -2.0435e-21)
(0.000642328 0.00116683 6.15186e-22)
(0.000221318 0.000499169 3.2339e-21)
(0.000673641 0.00121802 -1.27893e-21)
(0.000792302 0.0014517 1.1387e-21)
(0.000564436 0.000997499 -1.214e-21)
(0.000973595 0.000115445 1.62783e-21)
(0.000699896 0.00128753 1.85711e-21)
(0.000675925 0.00124899 0)
(0.000712335 0.00127609 -3.99098e-21)
(0.000713394 0.00128007 6.07432e-22)
(0.00062239 0.00112432 5.86932e-22)
(0.000622349 0.0011214 -6.9563e-22)
(0.000572221 0.00103837 0)
(0.000647208 0.00116495 -2.06668e-21)
(0.000645728 0.00116668 -6.04461e-22)
(4.01301e-05 -6.8899e-07 0)
(0.000623389 0.00108298 -1.65616e-21)
(0.000709596 0.00128672 5.69946e-22)
(3.82957e-05 4.01343e-05 2.48114e-21)
(0.00057282 0.00103587 0)
(0.000634139 0.00112247 4.87033e-22)
(0.0007954 0.00145322 -6.06923e-22)
(0.000774037 0.00072457 -4.07606e-22)
(0.000657072 0.00117034 -9.46994e-22)
(0.000774801 0.00135383 -8.09534e-22)
(0.000804471 0.00141385 -6.36274e-22)
(0.000691816 0.00128703 0)
(0.000717845 0.00128852 -2.06013e-23)
(0.000558557 0.000878953 -1.36337e-21)
(0.00115274 7.85507e-05 -2.11667e-21)
(2.88538e-05 3.72554e-05 2.33567e-21)
(0.000574137 0.00103816 1.06499e-23)
(0.000876575 0.00113334 7.45307e-21)
(0.000798247 0.00144612 6.03793e-22)
(0.000724789 0.00129233 -5.01047e-22)
(4.10708e-05 -1.6826e-07 3.48856e-21)
(0.000668835 0.00143599 0)
(0.000769021 0.000519092 3.53021e-21)
(0.000788018 0.00145222 0)
(0.000483436 0.00118953 2.78673e-22)
(0.000580967 0.0010277 1.07279e-21)
(0.000790331 2.27801e-05 -1.16199e-21)
(0.000681448 0.000965115 -4.60568e-22)
(0.000585519 0.00104931 1.19755e-21)
(0.000831563 0.000660365 -8.12471e-22)
(0.000617099 0.000857625 -1.37832e-21)
(0.000812425 0.00144364 5.1061e-22)
(0.000834759 0.00148125 0)
(0.000575172 0.0010183 1.15455e-21)
(0.00071947 0.00124722 -8.76482e-24)
(0.000612584 0.00137995 -2.63221e-21)
(0.000520339 0.000894773 -9.85495e-22)
(0.000126287 0.000136927 -2.12543e-21)
(0.00068111 0.001135 8.06489e-22)
(0.000977889 0.000270541 5.03513e-22)
(0.00058574 0.000747409 9.28512e-22)
(0.00070134 0.000703173 -1.68507e-21)
(0.000711357 0.00136644 8.11326e-22)
(0.000436367 0.000280604 -3.68598e-25)
(0.000810608 0.00144314 -1.12039e-21)
(0.000592787 0.000810677 1.42356e-21)
(0.000715278 0.0012071 9.1855e-22)
(0.000421827 0.000756897 -1.13351e-21)
(4.22165e-05 -3.98367e-07 1.26399e-21)
(0.000299796 0.000346985 1.57422e-21)
(0.000541701 0.00104976 0)
(0.000337989 -0.000159272 -3.10349e-21)
(0.000757724 0.000795945 -3.38065e-21)
(0.000344708 0.000608088 0)
(0.000695657 -7.50082e-06 2.56883e-24)
(0.000276022 -0.000122484 -5.11005e-21)
(2.91253e-05 4.29633e-05 -2.23306e-21)
(0.00083812 0.000238554 -1.80415e-21)
(0.000398825 0.000497518 1.1527e-21)
(0.000793762 -9.12125e-06 -2.26183e-21)
(0.000952545 0.000805531 1.54258e-21)
(0.000290873 0.000836812 9.34875e-22)
(0.000443754 0.000187344 -3.09944e-22)
(0.000160595 0.000420016 0)
(0.00067337 0.000679639 -2.31819e-24)
(0.000583393 0.000904199 2.34774e-23)
(0.000479584 0.000191619 1.02403e-21)
(0.000611605 0.00105723 -2.60585e-22)
(0.00039137 0.000494332 -1.14396e-21)
(0.000121992 0.000146416 1.7177e-21)
(0.00060072 0.00123318 -1.58117e-21)
(0.0003962 0.000244308 0)
(0.000627415 0.000537885 0)
(1.72225e-05 0.000656918 4.01716e-22)
(0.000514637 0.000890173 -1.6504e-21)
(0.000364017 0.000490034 -9.73999e-22)
(0.000957088 0.000314672 1.98686e-21)
(0.00102784 0.00132455 6.54082e-22)
(0.000705168 0.00129342 -8.19865e-22)
(0.000323124 0.000230028 -1.69196e-21)
(0.000528551 0.000798781 0)
(0.000718131 -4.28228e-05 4.01389e-21)
(0.000699832 0.00121752 -1.73752e-21)
(0.00074261 0.00128547 6.7515e-23)
(0.000375456 0.000303453 0)
(0.000389994 0.000521053 1.09172e-21)
(0.000648089 0.000302608 1.92887e-25)
(0.000733362 0.00145016 2.22548e-21)
(0.000967179 0.000137248 1.93861e-21)
(0.000705211 0.00121882 0)
(0.000793846 0.00135819 2.55052e-23)
(0.000717271 0.00122746 -3.88377e-24)
(0.000618716 0.00105906 2.52861e-23)
(0.000641967 0.00109879 -5.55653e-23)
(0.000632157 0.00108191 2.58141e-23)
(0.000584162 0.00105045 -4.69328e-22)
(0.000606016 0.00108907 -4.74019e-22)
(0.000596744 0.00107292 -8.87425e-24)
(0.000365889 0.000772274 8.51475e-22)
(0.000687122 0.00124389 2.10989e-21)
(0.00049076 0.000982713 -1.36882e-23)
(0.000352771 0.000665852 1.65389e-21)
(0.000346131 0.000536585 5.06511e-22)
(0.000489146 0.0009158 0)
(0.000458623 0.000342147 1.53315e-21)
(0.000733649 0.00128219 -1.44178e-21)
(0.000388809 -5.31748e-05 1.88795e-25)
(0.000495766 0.000133763 0)
(0.000972229 5.1699e-05 2.41429e-21)
(0.000717586 0.00122746 0)
(0.000541431 0.00105709 -2.3611e-21)
(0.000910895 0.000178464 0)
(0.000631533 0.0012282 -9.98978e-22)
(0.000756365 2.04426e-05 -1.11328e-21)
(0.00105106 0.000686299 2.05195e-21)
(0.000531067 0.00013485 6.83615e-24)
(1.62223e-05 7.03914e-06 -2.14479e-21)
(0.000755029 0.000423816 1.93309e-21)
(0.000394159 0.000230765 0)
(0.000178068 -2.42724e-05 -2.82467e-21)
(0.000538317 0.000870116 2.9501e-22)
(0.000238385 0.000749201 0)
(4.24418e-05 9.76197e-07 -1.22222e-21)
(0.000453273 0.000637386 8.57824e-23)
(0.000960562 0.000544913 1.18883e-21)
(0.000715072 0.000215831 2.24159e-21)
(0.000518942 0.000660035 3.28889e-21)
(0.000825952 0.00150538 1.12418e-21)
(2.34644e-05 -6.47366e-06 2.25419e-21)
(0.000671401 0.0011832 1.02656e-21)
(0.000509865 0.000850004 0)
(4.47437e-05 0.000276897 -9.96303e-22)
(0.000621364 0.00111782 -1.00938e-21)
(0.000626415 0.00132288 -6.95097e-23)
(0.000600078 0.00128156 1.81048e-23)
(0.00069918 0.00145376 -6.94692e-23)
(0.000552899 0.00118832 -4.7849e-23)
(0.000767606 0.000938513 -5.59818e-21)
(0.000800729 0.00164096 0)
(0.00126077 0.000773063 6.34639e-22)
(0.000932631 0.000573263 1.04931e-21)
(0.000595167 0.00103711 0)
(4.12613e-05 2.04322e-06 -3.65249e-21)
(0.000659718 0.00127769 0)
(0.000494838 0.000668517 6.01901e-22)
(0.000920324 0.000522216 5.61997e-22)
(0.000644888 0.00115734 5.27802e-24)
(0.000784909 0.00133646 -3.20296e-21)
(0.000469689 0.000313502 0)
(0.000856243 0.00149944 -1.85621e-21)
(4.12509e-05 4.02074e-05 0)
(3.31391e-05 4.30655e-06 1.56613e-21)
(0.000578327 0.00103751 0)
(0.000749919 0.00122699 -1.06243e-21)
(0.0010832 0.000874715 -1.25307e-21)
(0.00113751 0.000914464 1.11558e-21)
(0.000709776 0.00123908 -2.41388e-21)
(0.000451011 0.00100894 -4.90951e-23)
(0.000583043 0.00125944 -5.32192e-23)
(0.00049319 0.00109674 6.61325e-23)
(0.000516686 0.00113498 -5.14328e-23)
(0.000678544 0.00144206 -6.75e-23)
(0.00101862 0.000988936 2.41215e-21)
(0.000716986 0.00122423 0)
(0.00019548 0.000490725 0)
(0.000257804 0.00117387 1.40891e-21)
(0.000257149 0.000529285 -3.60256e-21)
(4.247e-05 -7.15434e-05 0)
(0.000363654 0.000561222 0)
(0.00075187 0.0012874 -9.11481e-22)
(0.000826077 0.00146725 4.14104e-22)
(0.000781346 0.00140234 -1.25591e-21)
(0.000648916 0.00112211 -7.48458e-22)
(0.000394081 0.000886396 -5.23333e-24)
(0.00069893 0.00121497 8.60771e-24)
(0.000609554 0.000223911 -3.83865e-21)
(0.000859911 1.70286e-05 0)
(0.000749777 4.10789e-05 3.22946e-21)
(0.000117452 0.000335142 -1.03521e-21)
(0.000711543 0.00123084 3.83083e-22)
(0.000717999 5.57306e-05 0)
(0.000190525 1.39922e-05 1.29707e-21)
(0.000296192 0.000453869 -1.5324e-24)
(0.000704682 0.00121385 -4.12671e-22)
(0.000845953 -2.22833e-05 0)
(0.000438592 0.00040725 -3.34254e-21)
(0.000614168 0.00132747 0)
(0.000543388 0.00119485 0)
(0.00047684 0.00106524 0)
(0.00045653 0.00102522 0)
(0.000467894 0.00104806 0)
(0.000736894 0.000331184 7.65419e-22)
(8.73259e-05 0.000211743 -2.40086e-21)
(0.000299854 0.000264949 2.7624e-21)
(0.000731737 0.00152062 -6.5704e-23)
(0.000560738 0.00120154 -1.08341e-22)
(0.000573666 0.00122631 -1.10473e-22)
(0.000583661 0.00124431 -1.08985e-22)
(0.000657038 0.00138213 -1.11204e-22)
(0.000745893 0.00126776 3.29226e-21)
(0.000740919 0.00129277 0)
(0.000792776 0.000764837 1.79322e-21)
(0.000613447 0.00112625 1.0698e-21)
(0.000344774 0.000450492 1.71218e-21)
(0.000896812 0.000290224 1.30135e-21)
(0.000652838 0.00127376 1.12126e-21)
(0.000434114 0.00049823 -6.74982e-22)
(0.000379081 0.000621729 1.25228e-21)
(0.000696953 0.00122126 0)
(0.000985686 0.00083992 -2.08886e-21)
(0.000462846 0.000917712 -6.72815e-22)
(0.000425456 0.000818418 5.06446e-22)
(9.42121e-05 0.000528786 -9.79047e-22)
(0.000705352 0.00122485 7.61582e-22)
(0.000738127 0.000428697 -2.05113e-21)
(3.89629e-05 -1.30772e-07 1.4911e-21)
(0.00111684 2.08126e-05 0)
(0.000241504 0.000544043 2.5025e-24)
(0.000330923 0.000472567 1.02938e-21)
(0.000757019 0.000750638 -2.92052e-22)
(0.00163364 0.000432394 7.36392e-22)
(0.000140694 0.000739946 8.41402e-22)
(0.000467634 -6.38041e-05 0)
(0.000715162 0.000256906 0)
(7.23852e-05 -0.000111616 -4.19083e-22)
(0.00100156 0.000181504 2.17567e-21)
(3.93725e-05 4.01833e-06 1.06868e-25)
(0.000481722 0.000373025 -3.29989e-25)
(0.000843969 0.00148366 -7.2685e-22)
(0.000592365 0.0010696 3.48023e-21)
(0.000659489 0.00118835 0)
(0.000378034 0.000620287 0)
(0.000477359 0.000761341 -2.44368e-21)
(0.000546773 -0.000176709 2.52127e-21)
(0.000653447 0.00115225 -8.09934e-22)
(0.000726516 0.000722175 -5.7161e-22)
(0.000387027 0.000627517 1.22235e-21)
(0.00121187 6.53471e-05 -3.70556e-21)
(0.000783003 0.000783114 -2.36645e-24)
(3.84489e-05 -3.77722e-06 -1.48574e-21)
(0.000413011 0.000713029 2.60543e-21)
(0.000598399 0.00108684 2.43641e-21)
(0.000893226 0.000193094 9.17973e-22)
(0.000876205 0.000289065 -1.19821e-21)
(0.000557836 0.000260058 3.12547e-21)
(0.000809242 0.00135864 3.46584e-22)
(0.000377236 0.000630778 0)
(0.000830328 0.000699359 -9.46829e-22)
(0.000711957 0.0012881 -3.48257e-21)
(0.000579205 0.00102729 -1.45217e-23)
(2.88802e-06 1.80566e-05 -1.58123e-21)
(0.000168219 0.000236307 -1.32215e-21)
(0.000502134 0.000714608 -6.67023e-21)
(1.06373e-05 8.04422e-06 0)
(0.000675598 0.00121678 5.42162e-22)
(0.000360804 0.000465678 1.8693e-21)
(0.000652686 0.00114551 2.41659e-21)
(0.000614715 0.00113258 -9.31905e-22)
(0.000981752 0.000769094 -5.07268e-21)
(0.000213337 -2.32725e-05 -1.59029e-26)
(0.000937943 0.000844427 7.56434e-24)
(0.000548028 0.000461722 -2.36178e-22)
(0.000698943 0.00125269 1.66832e-22)
(0.000822678 0.00146193 2.07576e-23)
(-8.39258e-05 0.00109598 -1.35574e-21)
(0.000853836 0.00151595 -1.04385e-21)
(0.000659078 0.00110939 -1.13662e-21)
(0.000530254 0.000921744 2.54046e-21)
(0.000691976 0.00122321 -3.90917e-22)
(0.00044382 0.000736059 0)
(0.000376406 0.000272655 -1.36233e-21)
(0.00150509 0.00127736 -9.00893e-22)
(0.000344265 0.000589824 0)
(0.000950811 0.000294901 0)
(0.00081162 0.000506621 4.69402e-21)
(1.44953e-05 -2.62725e-05 4.50698e-21)
(0.000696532 0.00121041 0)
(0.000693309 0.000588075 4.78038e-22)
(0.000654896 0.00108383 8.83961e-22)
(0.000664794 0.00110043 4.43034e-22)
(0.000641252 0.00106113 0)
(0.000785275 0.00145839 -8.44793e-23)
(0.000492683 0.000102713 -1.45468e-21)
(0.000152184 1.48151e-05 3.11396e-22)
(0.000709539 0.000581838 -1.86975e-21)
(1.69134e-05 -3.55078e-06 -4.53739e-21)
(0.000618978 0.00110827 -1.33212e-21)
(0.00053476 0.00102926 2.41743e-23)
(0.000673233 0.00127174 -7.51097e-23)
(0.000586221 0.00112373 3.63047e-23)
(0.000604171 0.00115143 -7.4368e-23)
(0.000895346 0.0014147 4.12267e-21)
(0.00122248 0.0013203 7.52119e-24)
(0.000711869 0.000665321 -1.61458e-24)
(0.000378201 0.000699626 -6.42937e-21)
(0.000525359 0.000402617 -1.00597e-24)
(0.000149187 0.000137986 4.46909e-21)
(0.00050047 0.000534201 -8.65543e-21)
(0.000115631 0.000525416 6.22191e-22)
(8.38032e-05 0.000195878 3.68538e-21)
(0.000427983 0.000821123 -1.19435e-24)
(0.000271029 3.43335e-05 -9.85287e-22)
(0.000612675 0.000265023 5.79472e-21)
(0.000498421 5.89381e-05 -6.80441e-25)
(0.000448807 0.00100612 7.71816e-22)
(6.55164e-05 0.00038236 -2.28363e-21)
(0.000586349 4.09567e-05 -6.8399e-24)
(0.00122486 0.000228421 -1.53208e-21)
(4.25434e-05 -1.60393e-06 -8.5656e-22)
(0.000886421 0.000211359 2.87239e-21)
(0.000718671 0.00103221 -1.3369e-21)
(0.000852043 0.00148197 5.29706e-22)
(0.000230835 0.000612384 -8.0911e-22)
(0.000587565 0.000433691 5.15151e-22)
(0.000653131 0.00126492 1.26643e-21)
(0.00061618 0.00113155 1.83535e-21)
(0.000702805 -0.000371403 0)
(0.000438642 0.00130361 -6.3662e-22)
(0.00105263 0.000909705 0)
(-0.000141522 0.00108275 1.1613e-21)
(0.00089094 0.000534621 1.01979e-21)
(0.000349133 0.000737288 0)
(0.0006898 0.00119662 0)
(0.000385272 0.000657896 0)
(0.000573906 0.00107271 4.78754e-21)
(0.00020556 0.000722258 -1.50725e-21)
(3.59889e-05 -3.70016e-06 -2.44778e-21)
(2.23202e-05 -9.90253e-06 2.15462e-21)
(0.000526357 0.000905367 2.95234e-21)