/*--------------------------------*- C++ -*----------------------------------*\
  =========                 |
  \\      /  F ield         | OpenFOAM: The Open Source CFD Toolbox
   \\    /   O peration     | Website:  https://openfoam.org
    \\  /    A nd           | Version:  8
     \\/     M anipulation  |
\*---------------------------------------------------------------------------*/
FoamFile
{
    version     2.0;
    format      ascii;
    class       volVectorField;
    location    "6";
    object      U;
}
// * * * * * * * * * * * * * * * * * * * * * * * * * * * * * * * * * * * * * //

dimensions      [0 1 -1 0 0 0 0];

internalField   nonuniform List<vector> 
5101
(
(0.000669178 0.00102815 0)
(0.000862803 0.0013056 0)
(0.00076369 0.00117299 -1.00566e-23)
(0.000865965 0.00140482 -6.21597e-25)
(0.000732079 0.00112972 -1.35276e-21)
(0.000700765 0.0012442 7.08528e-22)
(0.000732936 0.00120072 9.12121e-23)
(0.000483738 -3.5156e-05 -4.57042e-24)
(0.000721138 0.001227 1.04958e-24)
(0.000657704 0.00107804 0)
(0.000625041 0.00113558 -8.67882e-22)
(0.000700227 0.00124444 8.55005e-22)
(0.000695815 0.00122041 -1.3068e-23)
(0.000639219 0.00125594 -3.75906e-22)
(0.000793972 0.00148914 8.69732e-22)
(0.000860085 0.00146431 1.14482e-21)
(0.000851616 0.00152225 0)
(0.000907997 0.00140353 0)
(0.000853236 0.0014352 2.7427e-21)
(0.0003468 0.000780734 0)
(0.00076637 0.00124879 0)
(0.000700639 0.00125089 3.80514e-22)
(0.000879714 0.00132215 6.74041e-24)
(0.00069622 0.00122679 6.03369e-22)
(0.000795173 0.00138891 6.7641e-22)
(0.000621454 0.00125929 1.63257e-21)
(0.000853349 0.00147581 1.30278e-21)
(0.00078037 0.00137393 0)
(0.000624353 0.00111831 -1.43564e-21)
(0.000614576 0.001139 2.81763e-21)
(0.00086488 0.00142425 1.25719e-21)
(0.000653001 0.00102303 -1.00861e-23)
(0.000686446 0.0011997 -5.24115e-22)
(0.000516448 0.000789063 -1.88424e-21)
(0.000800842 0.00122522 -1.42425e-21)
(0.000437602 0.000730358 1.64434e-21)
(0.000696974 0.00133613 1.04173e-21)
(0.000759507 0.00129004 0)
(0.000626482 0.00110026 1.34968e-21)
(0.0010298 0.000400783 6.94968e-22)
(0.000901488 4.90017e-05 1.85535e-22)
(0.000711861 0.00122288 -1.84304e-22)
(0.000866238 0.00146292 0)
(0.000855105 0.00146781 1.02611e-21)
(0.000651562 0.00111016 -9.11057e-22)
(0.0008289 0.0012753 7.63972e-22)
(0.000665266 0.00113034 8.59864e-24)
(0.000637824 0.00104829 4.41661e-22)
(0.000687865 0.00121434 1.34658e-23)
(0.000788555 0.00138506 -7.75609e-22)
(0.000782058 0.00141692 0)
(0.000675575 0.0013303 -1.62888e-21)
(0.000764172 0.00124925 0)
(0.000733442 0.00122237 1.14782e-22)
(0.000721193 0.000147307 -8.82437e-25)
(0.000623668 0.00112006 0)
(0.000459212 0.000844488 2.28743e-22)
(0.00020296 0.000621207 3.13747e-22)
(7.87072e-05 0.000347905 2.9612e-22)
(0.000572548 0.00102644 3.51622e-22)
(0.000736208 0.00121419 -2.65331e-22)
(0.000889979 0.00139168 0)
(2.79361e-05 7.98195e-06 0)
(0.000795583 0.00145409 0)
(0.000789049 0.00135726 -1.41707e-21)
(0.0005695 0.00108204 -2.04647e-21)
(0.000707935 0.00119058 3.62723e-22)
(0.00082423 0.00150365 0)
(0.000720303 0.00125912 1.03267e-21)
(0.000967966 5.99967e-05 1.1572e-21)
(0.000700889 0.00124326 -7.13494e-22)
(0.000300909 0.00078441 2.02445e-21)
(5.44566e-05 0.00020559 -1.5741e-21)
(0.00075672 0.00134387 -2.07728e-21)
(0.000611452 0.00108088 5.24254e-22)
(0.000836091 0.000805496 1.18109e-21)
(0.000666037 0.00104241 4.14999e-22)
(0.000407557 0.000767959 0)
(0.000251497 0.000531264 -7.09086e-22)
(0.000701491 0.00123966 -3.21014e-22)
(4.06315e-05 0.000203847 1.91446e-21)
(0.000592407 0.00110057 2.99783e-22)
(0.000593861 0.00106981 0)
(0.000636563 0.00115175 -2.30381e-21)
(0.000629885 0.000202239 3.696e-21)
(0.000753029 0.00131336 3.96494e-22)
(0.000666023 0.00113938 -4.21382e-22)
(0.000854257 0.00140353 4.7707e-22)
(0.000599204 0.00114516 2.49952e-21)
(0.000873213 0.00150253 5.37344e-22)
(0.000546161 0.000767332 -6.28453e-22)
(0.000701008 0.00118934 0)
(0.000739367 0.0013286 -2.00769e-21)
(0.000796066 0.00138685 -4.08118e-22)
(0.000763134 0.00132153 -1.91811e-21)
(0.000488052 0.000929995 0)
(0.000474757 0.000745604 -3.30373e-21)
(0.000662543 0.00114479 -8.91223e-22)
(6.68073e-05 0.000277592 0)
(0.000734566 0.0014078 -7.24724e-22)
(0.000799466 0.00139129 1.57798e-21)
(0.00100931 0.000206229 -2.35492e-21)
(0.000718464 0.00124958 -3.86253e-22)
(0.000702052 0.00117662 0)
(0.000622892 0.00109427 1.09705e-21)
(0.000283894 0.000719643 -2.16366e-21)
(0.000613064 0.00106899 6.5584e-22)
(0.000728443 0.00114745 -1.03024e-21)
(0.000571563 0.000487962 0)
(0.000374161 0.00071628 -2.52613e-23)
(0.000554499 0.000964386 0)
(0.000556861 0.000966941 0)
(0.000809152 0.00141094 0)
(0.000646634 0.00118834 0)
(0.000679022 0.00114135 3.29021e-22)
(0.000548363 0.000810885 1.37988e-21)
(0.000519266 0.00074855 5.18914e-22)
(0.000668495 0.00112018 2.08149e-22)
(0.00049511 0.000856583 2.15107e-21)
(0.000603247 0.00104534 2.85341e-22)
(0.00071921 0.00124926 2.21496e-22)
(0.000322592 0.000590151 5.45908e-22)
(0.000124891 0.000723453 1.24847e-21)
(0.000650388 0.00105553 1.09763e-21)
(0.000530265 0.000947686 4.77725e-22)
(3.02451e-05 6.50906e-06 1.69988e-22)
(0.000639897 0.00109567 -5.69457e-22)
(0.00071203 0.00121354 3.95391e-22)
(8.06351e-05 0.00019433 -1.36912e-21)
(0.000700651 0.00106014 0)
(0.000758278 0.00132188 2.32067e-21)
(0.00067765 0.00119019 0)
(0.000658475 0.00119497 3.12801e-21)
(0.000351079 0.000138734 -2.4927e-21)
(0.000623744 0.00109263 2.05559e-21)
(0.000848899 0.00155018 0)
(0.00110581 0.00014358 2.76861e-21)
(0.000602095 0.00111436 5.07346e-21)
(0.000549491 0.000968734 8.95685e-23)
(0.000441755 0.000571953 0)
(0.000464131 0.000886581 4.68161e-21)
(0.000454365 0.000984591 1.60719e-21)
(0.00100854 0.000357334 0)
(0.000517926 0.000875724 -1.05237e-21)
(0.000387818 0.000694071 -3.65496e-23)
(0.000670836 0.00123544 -6.11146e-22)
(0.00028152 0.000479681 0)
(0.000725211 0.00126623 1.82861e-23)
(0.000513567 0.00104429 -2.87128e-21)
(0.000289118 0.000658699 -2.35655e-21)
(0.000654532 0.00117027 3.55768e-21)
(0.000815863 2.45642e-05 -2.63861e-21)
(0.000755904 0.00123093 0)
(0.000675172 0.0011707 -3.23359e-22)
(0.000570849 0.00108025 0)
(0.000842856 0.00138756 -3.1713e-21)
(0.000579736 0.00103584 6.05992e-22)
(0.00083854 0.000822597 -1.53176e-21)
(0.000598679 0.00104049 0)
(0.000598856 0.00104042 6.54749e-22)
(0.000679881 0.00119368 4.56446e-23)
(0.000343767 0.000734263 0)
(0.000664936 0.00114927 -4.87048e-22)
(0.000654964 0.00120181 -1.42093e-21)
(0.0005939 0.0011084 -1.2236e-21)
(0.000827946 0.0014306 0)
(0.000497165 0.000850683 -5.23688e-22)
(0.000603644 0.00109594 0)
(0.000864217 0.00144933 3.80714e-22)
(0.000641985 0.000732515 4.33995e-21)
(0.000568127 0.000968753 6.74801e-24)
(0.000627251 0.00107421 -6.5845e-22)
(0.000635558 0.00104962 0)
(0.000644603 0.00118119 1.50332e-21)
(0.000641064 0.00114772 4.34654e-22)
(0.00075454 0.00123638 8.86558e-22)
(0.000719137 0.00124931 4.54546e-22)
(0.000807667 7.32627e-05 -9.48461e-22)
(0.000476193 0.000835712 -7.10408e-22)
(0.000815499 0.00127231 0)
(0.000620267 0.00113636 2.52204e-21)
(0.000630706 0.00104725 5.03202e-23)
(0.000638104 0.00104072 1.72428e-21)
(0.000566252 0.000885217 3.71281e-21)
(0.000395578 0.000721582 -5.2424e-21)
(0.000599627 0.00101401 -1.4124e-21)
(0.000738436 0.000342295 2.69043e-21)
(0.00067307 0.00112052 8.07497e-22)
(0.000690542 0.00120149 -2.10526e-21)
(0.00062409 0.00108272 1.27827e-21)
(0.000538985 0.00105826 1.27739e-21)
(0.00074918 0.00127963 0)
(0.000629535 0.00077581 3.69839e-24)
(0.000860237 0.000868763 -4.47354e-21)
(0.000746979 0.00125824 4.57685e-22)
(0.000867729 0.00151816 -1.8273e-22)
(0.000321536 -0.000336951 7.13259e-22)
(0.000500571 0.00121152 8.32892e-22)
(0.00055535 0.000959193 1.38112e-22)
(0.000696026 0.00125695 -5.06576e-23)
(0.000496075 0.000856823 -1.20633e-21)
(0.000559359 0.00108206 -1.29997e-21)
(0.000761763 0.00144564 -2.73097e-21)
(0.00080438 0.000809658 -1.51164e-21)
(0.000625373 0.000342996 4.04372e-21)
(0.000729758 0.00127048 8.08599e-22)
(0.000979336 0.00108774 1.29003e-21)
(0.000643701 0.0011804 4.14334e-22)
(0.000963334 0.000136861 -5.74501e-21)
(0.000718627 0.00124937 -3.65591e-22)
(0.000766195 0.00143165 7.81582e-22)
(0.000663165 0.00121041 1.84209e-22)
(0.000876783 0.00151857 0)
(0.000823013 0.000602062 -2.77526e-21)
(0.000719921 0.00125311 0)
(0.000545491 0.000955474 2.0357e-22)
(0.000601019 0.00109598 3.13575e-21)
(0.000495332 0.000730735 0)
(0.000760953 0.0013268 -2.16398e-22)
(0.000543617 0.000912548 8.02399e-23)
(0.000713324 0.00126343 -1.74453e-22)
(0.000646907 0.00105658 -5.42997e-22)
(0.000604741 0.00100785 -4.10755e-22)
(0.000562117 0.0010079 1.31532e-21)
(0.000449217 0.00132689 -1.1083e-21)
(0.00098864 4.12506e-05 4.68179e-22)
(0.000676067 0.00114923 1.08053e-21)
(0.000596841 0.00109045 -4.7583e-21)
(0.000716985 0.00124906 -5.3649e-22)
(3.29855e-05 2.55545e-06 1.35216e-21)
(0.000127341 0.000757832 1.19886e-21)
(0.000676375 0.00126629 -3.48409e-22)
(0.000697179 0.00124359 7.2184e-22)
(0.000737265 0.00128428 8.1006e-22)
(0.000504729 0.00102013 6.91784e-22)
(0.000645924 0.000276481 -1.91221e-22)
(3.2917e-05 3.65563e-06 -2.01578e-23)
(0.000532343 0.000896491 -5.79874e-22)
(0.000599421 0.00104555 0)
(0.000701026 0.00122399 0)
(0.000715049 0.00124815 0)
(3.73261e-05 2.34647e-06 -2.77063e-21)
(7.14661e-05 0.000119351 2.15101e-25)
(0.000864319 0.00155046 0)
(0.000615131 0.00107912 -1.41668e-21)
(0.000557079 0.000965767 3.53916e-22)
(0.000623799 0.00111398 -4.21002e-23)
(0.000615942 0.000948222 -1.12628e-21)
(0.000652109 0.00112969 -3.06109e-21)
(0.000794342 0.00138696 0)
(0.000556187 0.00096754 3.0442e-21)
(0.000773656 0.00135739 -4.65752e-23)
(0.000738704 0.00128274 4.75099e-23)
(0.000619319 0.00106995 -1.03101e-21)
(0.000595684 0.00105399 -1.69197e-21)
(0.00063445 0.00110342 -1.53347e-21)
(0.000627389 0.00108561 -1.52704e-21)
(0.000652316 0.00114201 0)
(0.000736945 0.00130375 -6.2127e-22)
(0.000988681 0.000341904 -5.53734e-25)
(0.000472133 0.00082801 0)
(0.000728885 0.00127143 9.04001e-22)
(0.00062567 0.00109799 -2.80146e-22)
(0.000647966 0.00111801 -4.79803e-24)
(0.000638509 0.00109517 -1.91785e-24)
(0.000383491 0.000650985 -1.68392e-21)
(0.000628227 0.00109618 2.97923e-22)
(0.000700748 0.00125043 -8.4522e-22)
(0.000779196 0.00136054 0)
(6.20034e-05 0.000669059 0)
(0.000652509 0.00115729 -2.66695e-21)
(0.000676415 0.00119076 -6.47056e-22)
(0.00107487 0.000829213 3.09423e-21)
(0.000849298 0.00147483 0)
(0.000272476 0.000406403 -2.92645e-21)
(0.000865425 0.00110627 -1.99198e-21)
(0.000519718 -0.000487131 -1.49629e-21)
(0.000532147 0.000784549 0)
(0.000713478 0.00124606 -7.61203e-22)
(0.000716041 0.00124232 -1.6461e-22)
(0.000599959 0.00102434 -8.91744e-22)
(0.000671095 0.000997496 0)
(0.0006538 0.00115416 0)
(0.00068378 0.00146324 -1.88106e-21)
(0.000574419 0.000992397 -4.36264e-21)
(0.000699453 0.00126168 1.17263e-21)
(0.000613142 0.00112861 -4.51821e-21)
(0.00048876 0.000844007 5.59034e-22)
(0.000821554 0.00144342 5.9565e-22)
(0.000461552 0.00112125 -2.37181e-21)
(0.000570976 0.000985482 -1.92438e-21)
(0.000512412 0.00115961 -2.75573e-22)
(0.000619923 0.00109033 1.93864e-21)
(0.000680449 0.000628022 4.2212e-21)
(0.000488371 0.000855253 1.17291e-22)
(3.58545e-05 3.13531e-06 -3.98149e-23)
(0.000710861 0.00117512 -2.4108e-23)
(0.000857987 0.00149326 -4.77517e-22)
(0.000709201 0.00124141 9.03284e-22)
(0.000588085 0.00101926 3.26943e-21)
(0.000996565 0.000342533 -5.07433e-22)
(0.000116711 0.000783767 7.91497e-22)
(0.000755083 0.00132364 -2.41902e-21)
(0.00072414 0.00125849 -1.65631e-24)
(0.000451358 0.000909212 4.44383e-23)
(0.000565365 0.00115206 8.09096e-22)
(0.000632917 0.00104996 -8.79687e-22)
(0.000276154 0.00072786 1.44346e-21)
(0.000697771 0.00117976 1.80975e-23)
(0.00064316 0.00111646 -2.28599e-21)
(0.000698725 0.00114494 -7.28815e-22)
(0.00074592 0.00133215 -4.10621e-23)
(0.000909988 0.00159856 0)
(0.000858041 0.00149635 6.32446e-22)
(0.000491499 0.000844606 2.75854e-22)
(3.617e-05 1.6864e-06 0)
(0.000626848 0.00103148 -9.5754e-24)
(0.000265349 0.000897494 -2.03495e-22)
(0.000488557 0.000850896 2.51789e-21)
(0.000913611 0.000565912 2.29458e-21)
(0.00068677 0.00123331 -2.41344e-21)
(0.000611351 0.00133185 -9.82726e-22)
(0.00056219 0.000772323 7.80191e-22)
(0.000719136 0.0012534 -1.00262e-21)
(0.00086559 0.00145161 3.29073e-22)
(0.000847503 0.00148859 0)
(0.000538866 0.000496807 0)
(0.000651931 0.00114384 2.43087e-21)
(0.000421967 0.00107605 -2.3076e-21)
(0.000725586 0.00124168 3.2989e-22)
(0.000910187 0.00162733 -8.89624e-23)
(0.000773405 0.00134069 0)
(0.000962355 0.00039219 -1.45535e-21)
(0.000206204 0.000665572 2.26852e-23)
(0.000882808 0.00147685 2.98776e-22)
(0.000318899 0.000114901 -2.44122e-21)
(0.000616854 0.00107565 0)
(0.000731805 0.00121502 0)
(0.000609642 0.00109536 5.73082e-21)
(0.000636371 0.00109742 -2.89272e-21)
(0.0006868 0.001276 5.32334e-22)
(0.000771648 0.00133963 0)
(0.000742837 0.00124578 2.88391e-22)
(0.000747395 0.00133244 8.22765e-24)
(0.000761353 0.00132486 -4.71564e-22)
(0.000650429 0.00109418 1.89183e-21)
(0.000522135 0.000849849 -7.21527e-22)
(0.000625176 0.00103891 6.10336e-22)
(0.000836886 0.00148183 1.22427e-21)
(0.000560853 0.000460994 -8.70743e-22)
(0.000650195 0.000545886 -1.23037e-21)
(0.000434526 0.000793947 -8.13565e-22)
(0.000653125 0.00113228 0)
(0.000955607 0.00160606 -1.47582e-22)
(0.000578421 0.00106451 -2.35614e-22)
(0.00063383 0.000843957 -1.44457e-22)
(0.000488055 0.000771041 0)
(0.000619336 0.00117296 2.81687e-23)
(0.000704888 0.000764733 0)
(0.000877285 0.00158673 -6.15229e-23)
(3.63074e-05 0.000171376 3.24852e-21)
(0.000897672 0.00154058 4.64934e-22)
(0.000898044 0.000168916 1.71078e-21)
(0.000728222 0.00120849 0)
(0.000447604 0.000838914 -5.50902e-22)
(0.000863485 0.00151229 -7.32124e-22)
(0.000599475 0.00114007 -1.33149e-21)
(0.000572281 0.00110798 2.66867e-22)
(0.000285707 0.000695039 -1.71029e-21)
(0.000558382 0.000955757 -6.82614e-22)
(0.000761116 0.000948244 -1.07389e-21)
(0.000454994 0.000905331 2.43674e-21)
(0.000634863 0.00117179 1.2733e-21)
(0.000798726 0.00140046 -9.13915e-22)
(0.000604938 0.00109048 1.13235e-21)
(0.000602099 0.00109028 -3.19693e-21)
(0.000504554 0.000917151 1.33966e-21)
(0.000824061 0.00147962 3.2821e-22)
(0.000598839 0.00106346 6.57368e-22)
(0.0007735 0.00137681 2.25979e-21)
(0.000639839 0.00114301 1.24164e-23)
(0.000613705 0.00110565 2.8368e-21)
(0.000603822 0.00106979 -1.43607e-21)
(0.000617529 0.00108317 0)
(0.000742323 0.00130388 -3.98393e-22)
(0.000818877 0.00145818 -1.2853e-23)
(0.000595882 0.00105618 0)
(0.000778279 0.00136142 0)
(0.00063882 0.00112534 2.70815e-21)
(0.000738755 0.0012925 -3.72236e-22)
(0.000609111 0.00108502 -2.38311e-21)
(0.000615313 0.00107857 -1.93164e-21)
(0.000809567 0.00145239 -2.52006e-22)
(0.000780701 0.00135523 -9.7219e-22)
(0.00073877 0.00128522 -6.41138e-22)
(0.000779503 0.0013537 8.79266e-22)
(0.000775927 0.00135438 7.9067e-22)
(0.000860817 0.00149407 1.97894e-21)
(0.00061991 0.00030777 -2.18113e-21)
(0.00059861 0.00101002 1.3178e-21)
(0.000675061 0.00120639 -3.30004e-21)
(0.000330565 0.000594381 7.7704e-22)
(0.000750701 0.00127223 -5.17709e-22)
(0.000674786 0.0011509 1.02472e-21)
(0.000707647 0.00125803 -1.0279e-21)
(0.000916322 0.00157872 0)
(0.000844763 0.00149163 0)
(0.000713917 0.00077998 2.2054e-21)
(0.00063936 0.00109114 2.09905e-21)
(0.000515031 0.000199854 -5.06097e-21)
(0.000352781 0.000634426 0)
(0.000745326 0.00127197 5.02104e-22)
(0.000987168 0.000303672 -4.27597e-24)
(0.000420761 0.000676399 -1.92587e-21)
(0.000862615 0.00149166 1.77463e-22)
(0.000907161 0.00157651 -1.63406e-22)
(0.000610641 0.00113077 2.6313e-23)
(0.000621344 0.00107433 -6.79933e-22)
(2.14477e-05 -2.86689e-05 0)
(0.000451273 0.000877775 2.4216e-22)
(0.00044389 0.000865244 -2.73191e-22)
(0.000500387 0.000860998 -2.48234e-21)
(0.000491635 0.000886752 2.62921e-22)
(0.000555497 0.00112025 -6.16925e-23)
(0.000671976 0.0011751 -1.21118e-21)
(0.000772659 0.00133819 -1.49704e-22)
(5.50261e-05 -3.38415e-05 5.54053e-25)
(0.000630411 0.00104783 0)
(0.000706067 0.00122911 0)
(0.000602988 0.00110089 -2.01389e-21)
(0.000872439 0.00150144 4.14942e-22)
(0.000596124 0.00110091 2.65218e-23)
(0.000651067 0.00121302 0)
(0.00127459 0.00125483 -1.15069e-21)
(7.54165e-05 0.000465941 6.85879e-24)
(0.000555346 0.000944596 7.10136e-22)
(0.00126012 0.00051545 0)
(0.000549913 0.000868677 0)
(0.000543529 0.000855219 -9.78177e-22)
(0.000614053 0.00105999 -1.17654e-22)
(0.00069204 0.00114754 -3.13599e-22)
(0.000684035 0.00112708 0)
(0.000806868 0.0015092 5.73821e-23)
(0.000779242 0.00139745 -1.76373e-21)
(0.000735832 0.00130573 -6.36738e-22)
(0.000602299 0.00107177 -1.35652e-21)
(0.000384652 0.000641493 0)
(0.000914901 0.00161538 8.67085e-23)
(0.000748908 0.00130497 -1.8805e-21)
(0.000645004 0.00114103 0)
(0.000606029 0.00109146 -1.13465e-21)
(0.000615319 0.00110881 -8.69877e-22)
(0.000621136 0.00108923 -1.73474e-21)
(0.000651186 0.00115105 0)
(0.000643073 0.00117283 -1.05325e-21)
(0.000567391 0.0010569 -2.10416e-22)
(9.09782e-05 0.000524272 -9.00413e-24)
(0.000504928 0.00130398 6.22198e-22)
(0.00157025 0.000482216 9.89363e-22)
(0.000760758 0.00132391 5.1272e-22)
(0.000724778 0.00127834 -9.65048e-22)
(0.000726821 0.00120292 1.09204e-21)
(0.000302693 0.000717067 -2.4106e-21)
(0.000737067 0.00143152 2.75136e-23)
(0.000569419 0.000474173 0)
(0.000423668 0.000772734 -8.81025e-22)
(0.000798852 0.00138832 0)
(0.000773472 0.00134827 5.40813e-22)
(0.000598675 0.00103208 -3.26583e-22)
(0.000910637 0.00161414 -8.52708e-23)
(0.000633254 0.00112003 -4.50991e-23)
(0.000623735 0.00110164 -1.96234e-21)
(0.000405894 0.000593588 -1.03279e-21)
(0.000632184 0.00115385 2.25995e-21)
(0.000701742 0.00115829 0)
(0.000137807 0.000367218 -1.01974e-21)
(0.000713216 9.9777e-05 2.65511e-24)
(0.000602505 0.00051742 -4.78881e-21)
(0.000731259 0.00127298 9.01401e-22)
(0.00073561 0.00120765 0)
(0.000760936 0.00133054 1.9218e-22)
(0.000759887 0.00132358 5.50149e-22)
(0.000975306 0.000176299 -1.63162e-21)
(0.000465836 0.000559524 -2.36723e-21)
(0.000427152 0.000719857 -2.50757e-21)
(0.000814806 0.00154399 8.14711e-22)
(0.000633844 0.00109932 -1.6819e-22)
(0.000684693 0.00125326 -1.61883e-21)
(0.000630945 0.00104601 -1.81726e-21)
(0.00079735 0.0013444 9.00525e-22)
(0.000731142 0.00120371 -4.88522e-22)
(0.000150519 0.00072943 0)
(0.000736444 0.00126568 -1.57852e-23)
(0.000649157 0.00130831 -3.08434e-23)
(0.000401949 0.000752328 -9.0702e-22)
(0.000863753 0.00148637 -1.65999e-21)
(0.000333949 0.000609475 1.70366e-22)
(0.000612527 0.00107826 3.02329e-22)
(0.000168345 0.000858496 0)
(0.000653885 0.00109627 -3.89652e-22)
(3.75814e-05 0.000232256 0)
(0.000673803 0.00114172 -9.40255e-22)
(0.000669924 0.00115146 -9.00139e-22)
(0.000653685 0.00113332 -6.91558e-22)
(0.000840976 0.00147951 1.14592e-22)
(0.000683159 0.00113622 5.29714e-22)
(0.00107769 0.000175445 -1.01633e-23)
(0.000701551 0.00121916 0)
(0.000621991 0.00100361 -5.44989e-22)
(0.000757823 0.00127009 0)
(0.000419471 0.000743656 2.33668e-21)
(0.000670433 0.00115247 2.16326e-21)
(0.000721125 0.00129223 -3.26358e-22)
(0.000647476 0.0011273 1.95575e-21)
(0.000589376 0.00105191 3.00221e-22)
(0.000598763 0.00104703 1.05751e-21)
(0.000603593 0.00105418 8.78179e-22)
(0.00073585 0.00128874 -4.75732e-23)
(0.000609868 0.00105785 -5.06268e-22)
(0.000668791 0.00118194 7.96083e-22)
(0.000658071 0.0011363 0)
(0.000528482 0.00124258 -8.19909e-26)
(0.000719825 0.00127362 1.69164e-21)
(0.000932473 0.00158435 -4.32528e-22)
(0.000734824 0.00129544 0)
(0.000404661 0.000655376 1.1457e-21)
(0.000399932 0.000643123 0)
(0.00060672 0.00109671 -7.1203e-22)
(0.000580565 0.000271322 1.30606e-21)
(0.000175293 0.000722931 1.7637e-21)
(0.000498737 0.00099501 5.27056e-22)
(0.000611648 0.00101634 1.1473e-22)
(0.000757663 0.00132344 0)
(0.000644628 0.00119321 2.25997e-22)
(0.000617193 0.00108658 1.26021e-21)
(0.000672703 0.00121858 -1.5435e-21)
(0.000663539 0.0011789 -2.12685e-21)
(0.000321985 0.000624719 4.30626e-22)
(0.000819157 0.00141091 -1.00424e-21)
(0.000652393 0.000309176 0)
(0.000706704 0.00122641 1.62146e-22)
(0.000652964 0.00115196 6.36722e-22)
(0.000592966 0.00102314 2.31355e-21)
(0.000397252 0.000679898 -1.0059e-21)
(0.000391773 0.000673376 -6.25105e-22)
(0.000392851 0.000668536 0)
(0.000397267 0.000663629 4.67387e-22)
(0.000395514 0.000658554 -5.49179e-22)
(0.000354964 0.000579928 0)
(0.000391223 0.000666009 7.87178e-22)
(0.000384624 0.000639199 9.88364e-22)
(0.000395994 0.000652026 2.42973e-21)
(0.00038516 0.000626538 3.39468e-21)
(0.000437458 0.000708086 -8.47444e-22)
(0.000415432 0.000686611 -3.85663e-23)
(0.000432498 0.00077985 1.98861e-21)
(0.00065676 0.00114466 7.54504e-22)
(0.000741387 0.00126905 -7.21025e-22)
(0.000673331 0.0011526 -9.00839e-22)
(0.00075026 0.00133918 1.08081e-21)
(0.000297143 0.000567843 0)
(0.000332413 0.0008972 1.68665e-21)
(0.000581494 0.000337394 -1.85459e-21)
(0.000714023 0.00127884 9.36426e-22)
(0.00036379 0.00123512 -1.20234e-21)
(0.000860139 0.00148632 -2.08233e-22)
(0.000743962 0.00135407 -2.72054e-22)
(0.000315753 0.00055515 3.98178e-21)
(0.000755092 0.00129006 7.60003e-22)
(0.000629172 0.00105724 -5.59536e-22)
(0.000865303 0.00150011 -3.29522e-22)
(0.00058878 0.00103647 1.57585e-23)
(0.000756366 0.00129843 1.10951e-21)
(0.000728946 0.00120209 1.04421e-21)
(0.000335774 0.001103 -7.96957e-22)
(0.000402544 0.000725315 -2.9631e-22)
(0.000769908 0.00133924 -1.44797e-22)
(0.000550665 0.000987957 0)
(0.000603989 0.000869638 -1.92651e-21)
(0.000581591 0.00122854 -8.43267e-22)
(0.000532959 0.000438634 0)
(0.000703286 0.00122182 4.28532e-22)
(0.000872198 0.00159826 5.45682e-22)
(0.000897095 0.00164466 -6.52096e-22)
(0.000636345 0.0011375 0)
(0.000388033 0.000992158 8.62781e-22)
(0.000805769 0.000100909 1.85615e-21)
(0.000635665 0.00101451 -9.31823e-22)
(0.000800392 0.00145155 -4.46876e-22)
(0.000468752 0.000787808 0)
(0.000447358 0.000755232 -4.74327e-23)
(0.000398604 0.000673279 2.81138e-21)
(0.000376401 0.000644845 -4.68799e-21)
(0.000388983 0.000651334 1.55324e-21)
(0.000381614 0.000633936 -1.09921e-23)
(0.000465018 0.000789153 2.94271e-22)
(0.000397841 0.000674556 3.10895e-21)
(0.000419167 0.000692765 -3.44556e-23)
(0.000382526 0.000619969 5.0858e-22)
(0.000295111 0.000747063 1.55267e-24)
(0.00054082 0.000974413 5.18609e-22)
(0.000516198 0.000766763 -9.29036e-22)
(0.000863204 0.00138444 3.97248e-21)
(0.00035639 0.000700801 2.31795e-24)
(0.000756376 0.0013227 7.81709e-22)
(0.000791597 0.00134535 9.28899e-22)
(0.000411032 0.000669426 3.17544e-21)
(0.000441513 0.000779235 -1.15718e-21)
(0.000497141 0.000827533 0)
(0.000709776 0.0012298 2.9758e-22)
(0.000704975 0.0011955 2.33363e-22)
(0.000402884 0.000654878 -3.30135e-21)
(0.000402212 0.000712736 3.04778e-22)
(9.4155e-05 -9.43598e-05 -3.45401e-22)
(7.67011e-05 0.000116074 1.40487e-21)
(0.000681704 0.00149748 -1.07252e-21)
(0.00065162 0.000488313 0)
(1.5643e-05 6.46954e-05 0)
(0.000398553 0.000746695 4.73423e-22)
(0.000693693 0.00121556 -1.84011e-21)
(0.000652897 0.00116207 0)
(2.6494e-05 1.36472e-05 0)
(0.000730325 0.00120431 8.59732e-24)
(0.000682553 0.000785883 2.1241e-22)
(0.000658206 0.00111097 0)
(0.000402898 0.000666814 1.00306e-21)
(0.000491697 0.00101972 -1.68674e-21)
(0.000352565 0.000625192 0)
(-5.2088e-06 0.00110436 -1.49963e-21)
(0.000686499 0.0011473 1.05835e-21)
(0.00083062 0.0014335 5.07671e-22)
(0.000807608 0.00140685 -1.44895e-21)
(0.000760661 0.00134581 1.42544e-21)
(0.000924443 0.00157066 3.12759e-22)
(0.000815084 0.00142485 7.87728e-22)
(-0.000284244 0.000460045 0)
(0.00041477 0.000696557 -2.14602e-21)
(0.000392024 0.000676506 -1.36616e-21)
(0.000367091 0.000621997 1.0944e-21)
(0.000446527 0.000752236 -5.23463e-22)
(0.000365782 0.000627259 0)
(0.000366147 0.000622403 0)
(0.000374156 0.00061521 -6.35445e-22)
(0.000451554 0.000750204 -5.53388e-22)
(0.000676589 0.0010332 0)
(0.000343209 0.000618183 1.43318e-21)
(0.000846367 0.00143774 -1.40269e-21)
(0.000569928 0.000987209 -1.37552e-21)
(0.000741666 0.00123346 7.99287e-22)
(0.000794741 0.00131894 -4.20041e-22)
(0.000264338 0.000649717 0)
(0.000798509 5.32239e-05 -2.16406e-21)
(0.000852284 0.00150126 1.94999e-21)
(0.000762718 0.00131592 -1.71945e-22)
(3.42177e-05 5.49961e-07 -1.22205e-21)
(0.000734283 0.00110093 -2.65344e-21)
(0.000631609 0.00108585 -3.09155e-23)
(0.000659203 0.00124021 2.45911e-22)
(0.000812801 0.00143401 0)
(8.82558e-05 -0.000164595 0)
(0.000204192 0.000593322 -7.46356e-22)
(0.000756759 0.00132096 1.66771e-22)
(0.000671433 0.00118432 3.67526e-21)
(0.000652165 0.00114193 -7.19049e-22)
(0.000437248 0.000898528 -1.06493e-21)
(0.000608676 0.00105446 -5.43616e-22)
(0.000736552 0.00128431 9.23935e-22)
(0.00042619 0.000787959 -7.97789e-22)
(0.000406936 0.00077156 -1.23457e-21)
(0.000740615 0.00127279 9.99346e-22)
(0.000571995 0.00120746 2.99666e-21)
(0.000692645 0.00123406 -1.69994e-21)
(0.000789842 0.00132233 -9.53044e-22)
(0.000665687 0.001147 -6.93606e-22)
(0.000748704 0.00132522 0)
(0.000725894 0.0012939 -3.28775e-23)
(0.000605076 0.00105749 4.94015e-22)
(0.000600585 0.00104854 0)
(0.000587156 0.00104984 -9.61736e-22)
(0.000629565 0.00115463 0)
(0.000603203 0.00107263 2.64732e-21)
(0.000637625 0.00112626 -1.26307e-21)
(0.00061938 0.00110138 0)
(0.000172403 0.000548005 -5.47844e-21)
(0.00127763 0.000919133 -1.34802e-21)
(0.000462032 0.000880824 -5.19556e-22)
(0.000410548 0.000419373 0)
(2.73901e-05 5.17814e-05 0)
(0.000621507 0.00108896 -2.65148e-21)
(0.000671305 0.001212 -1.45592e-21)
(0.000657098 0.0011575 -7.41766e-22)
(0.000791444 0.00135398 -4.2641e-22)
(0.000647502 0.00116241 -6.24384e-22)
(0.00086658 0.0016124 -3.09988e-22)
(0.000562286 0.00104248 -1.35893e-21)
(0.000813952 0.0014183 -7.27237e-22)
(0.00066633 0.00116965 2.05258e-22)
(0.000595452 0.000905872 0)
(0.000761753 0.00135594 -2.53669e-22)
(0.000586473 0.00106502 -3.75356e-22)
(0.00081537 0.00153457 -7.55317e-22)
(0.000668275 0.00115967 -1.43662e-22)
(0.000613741 0.00107717 -3.81053e-22)
(0.000565139 0.000693934 5.07052e-23)
(0.000635194 0.00111825 -2.06344e-21)
(0.000536617 0.00097854 0)
(0.000722131 0.00125938 -8.8551e-24)
(0.00057216 0.00119981 -1.89738e-23)
(0.000779876 0.00147329 1.39623e-21)
(0.000662774 0.00117659 -3.79483e-22)
(0.00049927 0.000927029 -7.94001e-22)
(3.42718e-05 7.87402e-06 1.17697e-21)
(0.000703854 0.00120926 -4.32869e-22)
(0.000901165 0.00153607 -1.95942e-22)
(0.000498826 0.000862539 -1.11889e-21)
(0.000404404 0.0011215 -2.10238e-21)
(0.000634649 0.00104961 -5.9102e-22)
(0.000732132 0.00127952 1.0164e-21)
(0.000778338 0.00134634 -1.02758e-22)
(0.000646933 0.00104153 5.64471e-22)
(0.000642222 0.00113593 1.79402e-22)
(0.000661389 0.00118396 2.38804e-21)
(0.000659501 0.00114205 -1.59941e-21)
(0.000598326 0.00106511 -5.20507e-22)
(0.000827417 0.00151297 -2.0194e-21)
(0.000236941 0.000757903 1.40933e-21)
(0.00076832 0.0013554 -3.76164e-22)
(0.000734459 0.00129265 0)
(0.00065336 0.00114259 9.5909e-22)
(0.000617259 0.0010768 1.0623e-21)
(0.000775692 0.00135513 3.45839e-22)
(0.000626904 0.00108566 2.44106e-21)
(0.000629557 0.00110252 -2.40737e-21)
(0.000850091 0.00149265 8.10834e-22)
(0.000924861 0.00158325 -4.20866e-22)
(0.000623435 0.00105388 -2.7596e-21)
(0.000664371 0.00113072 2.2187e-21)
(0.000407873 0.000756711 0)
(0.000795621 0.00139833 -1.67958e-21)
(0.000722466 0.00129962 2.85325e-23)
(0.0010561 2.58771e-05 1.02389e-21)
(0.00100925 0.000692175 1.35055e-21)
(0.000858498 0.00147277 1.83282e-22)
(0.000733714 0.00120714 -4.8919e-22)
(0.000616167 0.00105341 -8.17678e-22)
(0.000648264 0.00116733 3.49654e-22)
(0.000598236 0.00105401 0)
(0.000628438 0.00140733 -2.86579e-21)
(0.000798011 0.00140115 7.88203e-22)
(0.00092658 0.00159237 -7.32981e-24)
(0.000504854 0.000859004 1.22612e-21)
(0.000266561 9.6849e-05 0)
(0.00082769 0.00140702 1.77061e-21)
(0.000452485 0.000751342 2.15097e-22)
(0.000920205 0.00156793 -6.19212e-22)
(0.000807031 0.00142213 1.07282e-21)
(0.000741135 0.0012153 0)
(0.00074267 0.00121986 0)
(0.00043998 0.000851505 -1.75132e-21)
(0.000636616 0.00110269 -2.94448e-22)
(0.000726651 0.0012062 0)
(0.000717567 0.00120702 -1.60847e-21)
(0.000545737 0.000634844 1.62723e-21)
(0.000928295 0.00160274 9.36156e-22)
(0.000725162 0.00117302 2.83796e-21)
(0.000205792 0.00117161 -2.14486e-21)
(0.000796811 0.00139045 1.19333e-21)
(0.000715554 0.00115827 -5.73232e-22)
(0.000675939 0.000877944 3.15774e-22)
(0.000704294 0.00117111 1.40503e-21)
(0.000477422 0.00093411 -1.96899e-21)
(0.000569083 0.000913541 9.48885e-22)
(0.000768926 0.00151002 8.35959e-22)
(0.00079685 0.00137494 9.2966e-22)
(0.00061167 0.00105077 -1.30569e-22)
(0.000537451 0.000920488 1.35504e-22)
(0.000648697 0.0011757 0)
(0.000528566 0.000917611 1.46121e-22)
(0.000257975 0.000491773 -1.96933e-24)
(0.000628549 0.00102463 -1.22787e-21)
(0.000727494 0.000843108 -9.75737e-22)
(0.000750828 0.00129176 -1.3864e-22)
(0.000507678 0.000488945 -3.96315e-22)
(0.000629397 0.00104393 -6.32572e-22)
(0.000680496 0.0011513 -2.6874e-22)
(0.000553751 0.00112351 1.47496e-21)
(0.000780779 0.00134492 1.31929e-21)
(0.00104793 9.37798e-05 0)
(0.000661514 0.000341921 -5.10532e-21)
(0.000563246 0.00113379 -3.74414e-21)
(0.000433985 0.00131748 -1.84283e-21)
(0.000791837 0.00130342 6.18344e-24)
(0.00040547 0.000687862 -1.98284e-22)
(0.00065727 0.00118038 8.12506e-22)
(0.000547503 0.00104615 1.85914e-23)
(0.0003978 0.000743991 1.43906e-21)
(0.000394061 0.000738515 2.03826e-21)
(0.000330123 0.000588655 9.17741e-22)
(0.000440615 0.000641257 3.14197e-22)
(0.000880348 0.00150159 -4.36139e-22)
(0.00063897 0.00114518 1.25114e-21)
(0.000810069 0.00147879 0)
(0.000661576 0.00113267 0)
(9.97845e-05 0.000154223 -9.43627e-22)
(0.000242213 0.000549504 1.58856e-21)
(0.000764707 0.00135538 -3.10898e-22)
(0.000738138 0.00129318 -1.55082e-21)
(0.000652629 0.00114354 0)
(0.000614785 0.00108482 1.08307e-21)
(0.00078013 0.00135633 8.29303e-22)
(0.00062696 0.00108966 -8.1839e-22)
(0.000626387 0.00110698 0)
(0.000659191 0.00114896 0)
(0.000658056 0.00118753 -7.93286e-22)
(0.000587648 0.0010683 4.38214e-22)
(0.000795206 0.00140105 -2.50593e-22)
(1.42143e-05 1.56479e-05 -8.44086e-22)
(0.000772166 -0.000189184 7.78467e-22)
(0.000796932 0.00147447 -1.66321e-21)
(0.000727796 0.00120365 1.08869e-21)
(3.50244e-05 -5.5095e-06 1.15675e-21)