/*--------------------------------*- C++ -*----------------------------------*\
  =========                 |
  \\      /  F ield         | OpenFOAM: The Open Source CFD Toolbox
   \\    /   O peration     | Website:  https://openfoam.org
    \\  /    A nd           | Version:  8
     \\/     M anipulation  |
\*---------------------------------------------------------------------------*/
FoamFile
{
    version     2.0;
    format      ascii;
    class       volScalarField;
    location    "1";
    object      p;
}
// * * * * * * * * * * * * * * * * * * * * * * * * * * * * * * * * * * * * * //

dimensions      [0 2 -2 0 0 0 0];

internalField   nonuniform List<scalar> 
6388
(
1.67239e-05
1.67268e-05
1.58548e-05
1.61553e-05
1.29921e-05
1.0462e-05
1.55949e-05
1.50741e-05
1.57572e-05
1.50032e-05
1.32279e-05
1.50157e-05
1.5545e-05
1.04841e-05
1.54685e-05
1.54322e-05
1.51926e-05
1.14623e-05
1.52916e-05
1.5489e-05
1.53301e-05
1.5354e-05
1.15698e-05
1.18937e-05
1.15572e-05
1.52813e-05
1.56283e-05
1.51718e-05
1.51269e-05
1.60478e-05
1.13092e-05
1.13182e-05
1.27413e-05
1.42165e-05
1.10552e-05
1.29266e-05
1.18073e-05
1.45094e-05
1.56287e-05
1.06807e-05
1.54179e-05
1.53364e-05
1.6519e-05
1.17686e-05
1.59275e-05
1.4923e-05
1.6707e-05
1.56481e-05
1.58324e-05
1.55526e-05
1.5843e-05
1.62082e-05
1.56123e-05
1.54323e-05
1.48557e-05
1.58549e-05
1.5332e-05
1.59961e-05
1.55428e-05
1.55748e-05
1.1533e-05
1.59864e-05
1.52914e-05
1.61248e-05
1.49944e-05
1.58513e-05
1.50511e-05
1.5485e-05
1.45445e-05
1.58494e-05
1.49514e-05
1.11754e-05
1.04215e-05
1.44021e-05
1.58147e-05
1.5733e-05
1.09097e-05
1.59832e-05
1.60727e-05
1.14256e-05
1.50546e-05
1.73091e-07
1.45373e-07
1.46318e-07
1.41786e-07
1.64553e-07
1.38203e-05
1.75651e-07
1.40411e-07
1.44591e-07
1.62175e-07
1.32058e-07
1.58563e-05
1.64298e-05
1.53891e-05
1.63124e-05
1.58519e-05
1.0892e-05
1.62212e-05
1.57922e-05
1.5294e-05
1.46941e-05
1.51605e-05
1.50044e-05
1.50617e-05
1.40667e-05
1.56977e-05
1.51293e-05
1.51939e-05
1.5848e-05
1.55383e-05
1.20305e-05
1.23758e-05
1.54906e-05
1.62199e-05
1.60779e-05
1.34527e-05
1.67434e-05
1.5576e-05
1.58325e-05
9.87078e-06
1.58635e-05
1.52919e-05
1.58434e-05
1.16711e-05
1.64071e-05
1.57949e-05
1.54968e-05
1.58247e-05
1.53324e-05
1.21195e-05
1.50941e-05
1.57255e-05
1.63542e-05
1.58536e-05
1.19093e-05
1.14091e-05
1.48224e-05
1.59644e-05
1.50337e-05
1.23011e-05
1.61869e-05
1.52637e-05
1.60702e-05
1.58294e-05
1.53708e-05
1.5657e-05
1.58511e-05
1.55284e-05
1.61628e-05
1.50169e-05
1.61469e-05
1.50006e-05
1.19035e-05
1.49053e-05
1.5624e-05
1.43546e-05
1.58508e-05
1.17291e-05
1.44711e-05
1.5974e-05
1.65189e-05
1.0839e-05
1.43504e-05
1.58513e-05
1.40277e-05
1.03849e-05
1.00292e-05
1.00397e-05
1.58703e-05
1.07247e-05
1.50691e-05
1.53246e-05
1.58518e-05
1.54234e-05
1.13871e-05
1.58021e-05
1.56036e-05
1.60659e-05
1.50526e-05
1.52843e-05
1.46376e-05
1.10029e-05
9.51445e-06
1.52764e-05
1.40564e-05
1.58646e-05
1.17053e-05
1.53082e-05
1.19233e-05
1.23318e-05
1.48574e-05
1.2591e-05
1.63958e-05
1.52418e-05
1.58368e-05
1.58535e-05
1.58382e-05
1.04909e-05
1.01978e-05
9.69307e-06
1.07689e-05
1.58496e-05
9.7269e-06
9.71393e-06
1.00627e-05
1.06943e-05
1.19956e-05
1.58307e-05
1.56817e-05
1.12234e-05
1.17134e-05
1.04603e-05
1.39599e-05
7.75429e-06
7.41455e-06
7.15138e-06
7.16434e-06
1.14804e-05
1.55276e-05
7.64655e-06
1.5962e-05
9.93971e-06
1.15728e-05
1.58665e-05
9.36301e-06
1.24784e-05
8.25611e-06
7.91079e-06
7.62962e-06
7.64392e-06
1.42912e-05
9.86492e-06
1.56285e-05
1.50548e-05
8.12172e-06
1.38636e-05
1.05899e-05
9.03733e-06
1.10111e-05
8.80262e-06
8.4987e-06
8.50855e-06
1.39783e-05
9.25882e-06
8.93811e-06
8.94916e-06
9.74861e-06
1.08927e-05
1.2889e-05
1.58209e-05
1.06414e-05
1.04509e-05
9.77677e-06
9.43696e-06
9.45023e-06
1.02541e-05
1.00262e-05
1.02237e-05
1.02534e-05
6.51485e-06
1.02693e-05
1.06223e-05
6.28614e-06
7.00784e-06
9.21057e-06
9.19898e-06
9.52868e-06
6.94848e-06
6.70353e-06
6.71426e-06
6.76813e-06
7.23738e-06
1.0226e-05
1.49769e-05
7.12248e-06
1.58517e-05
1.27285e-05
7.91736e-06
7.32844e-06
9.71653e-06
8.40212e-06
7.80065e-06
1.55952e-05
8.0002e-06
1.59026e-05
8.64416e-06
8.83439e-06
1.52496e-05
1.06057e-05
1.03933e-05
1.50749e-05
1.19321e-05
1.5488e-05
8.52631e-06
9.32113e-06
1.58504e-05
8.88668e-06
1.01403e-05
1.55641e-05
1.29377e-05
1.2166e-05
1.58688e-05
8.52505e-06
8.78157e-06
8.95438e-06
8.17599e-06
8.16302e-06
8.45969e-06
8.08004e-06
1.58725e-05
1.25842e-05
1.57511e-05
1.32291e-05
1.07981e-05
1.59109e-05
1.25285e-05
8.51039e-06
1.54959e-05
9.2334e-06
9.84428e-06
1.56843e-05
1.08323e-05
9.91023e-06
8.9865e-06
1.51883e-05
1.44198e-05
1.1682e-05
1.22308e-05
6.20236e-06
9.19173e-07
8.03099e-07
8.29615e-07
8.1834e-07
9.4121e-07
7.29443e-06
6.75826e-06
1.21343e-05
1.17313e-05
1.4299e-05
1.48399e-05
7.50487e-06
6.65164e-06
1.56997e-05
6.93839e-06
8.87346e-06
1.5513e-05
6.65957e-06
8.5122e-06
8.01594e-06
8.00442e-06
8.29328e-06
1.1465e-05
1.1859e-05
7.45271e-06
9.51056e-06
1.21348e-05
7.88894e-06
1.30002e-05
9.25777e-06
8.7445e-06
8.73395e-06
9.04659e-06
1.10258e-05
1.50782e-05
1.33351e-05
5.61408e-06
8.00694e-06
1.52024e-05
7.38972e-06
7.37567e-06
7.64793e-06
6.66245e-06
1.19096e-05
1.20021e-05
9.28677e-06
1.42209e-05
7.17448e-06
8.51367e-06
8.41744e-06
1.50985e-05
1.58419e-05
6.48234e-06
6.25583e-06
6.26416e-06
1.49908e-05
1.51353e-05
8.32e-06
8.4099e-06
1.5829e-05
8.34231e-06
9.17786e-06
7.71635e-06
7.82312e-06
1.5838e-05
1.21056e-05
8.18909e-06
1.29708e-05
7.62635e-06
8.08191e-06
1.513e-05
1.54975e-05
1.53394e-05
1.61162e-05
8.04687e-06
8.73389e-06
9.58839e-06
1.55839e-05
1.60773e-05
6.02054e-06
1.48713e-05
1.58407e-05
1.60702e-05
5.3098e-06
5.31413e-06
5.49882e-06
1.34895e-05
1.58348e-05
1.59252e-05
7.7138e-06
1.53287e-05
1.58465e-05
6.87878e-06
7.56752e-06
1.63523e-05
5.52988e-06
6.03022e-06
1.44713e-05
1.57045e-05
9.06261e-06
1.58495e-05
6.17366e-06
1.4817e-05
7.4883e-06
1.24117e-05
5.93559e-06
1.62952e-05
7.10406e-06
6.11596e-06
7.37017e-06
6.94038e-06
6.92865e-06
7.18264e-06
1.44218e-05
7.15697e-06
8.74452e-06
5.86156e-06
6.26923e-06
1.55386e-05
5.9862e-06
1.53069e-05
1.24791e-05
8.62247e-06
1.23205e-05
1.40361e-05
7.25703e-06
1.57036e-05
1.45024e-05
5.57278e-06
6.49136e-06
6.48194e-06
6.71764e-06
6.5215e-06
5.4724e-06
5.54263e-06
5.53687e-06
5.73533e-06
6.527e-06
1.58008e-05
5.67599e-06
8.27462e-06
1.58471e-05
6.4306e-06
1.54711e-05
6.76374e-06
1.27326e-05
1.51679e-05
1.61295e-05
6.69828e-06
1.19002e-05
1.32294e-05
7.85646e-06
6.29166e-06
6.99315e-06
5.98432e-06
6.89282e-06
6.19745e-06
1.58526e-05
1.01952e-05
6.45152e-06
1.58581e-05
5.76791e-06
5.80627e-06
6.44107e-06
1.55086e-05
5.69849e-06
1.17502e-05
7.51521e-06
7.1788e-06
1.27213e-05
9.89413e-06
1.62378e-05
1.58539e-05
6.42719e-06
1.47881e-05
6.2236e-06
5.9174e-06
1.58522e-05
1.33748e-05
1.58488e-05
6.89635e-06
1.34976e-05
5.34928e-06
1.60732e-05
1.47366e-05
1.22413e-05
1.55933e-05
1.5125e-05
5.76008e-06
1.27515e-05
5.1261e-06
1.18876e-05
1.35324e-05
1.15438e-05
1.58326e-05
1.31959e-05
1.621e-05
1.53404e-05
1.54912e-05
1.38824e-05
1.5817e-05
5.51905e-06
1.52813e-05
9.57598e-06
1.50958e-05
1.58523e-05
1.56686e-05
1.42613e-05
1.59428e-05
1.5396e-05
1.19517e-05
1.60705e-05
1.58519e-05
1.5865e-05
1.61016e-05
1.55992e-05
1.62393e-05
1.55101e-05
1.60621e-05
1.5887e-05
1.56e-05
1.55835e-05
1.44511e-05
1.5903e-05
1.26797e-05
1.55427e-05
1.57858e-05
1.36904e-05
1.58313e-05
1.56911e-05
1.49678e-05
1.12927e-05
1.55518e-05
1.61615e-05
1.48256e-05
1.37372e-05
1.57643e-05
1.4779e-05
1.60464e-05
1.30438e-05
1.35761e-05
1.57631e-05
1.55069e-05
1.5964e-05
1.31506e-05
1.6072e-05
1.17829e-05
1.33665e-06
1.36355e-06
1.2241e-06
1.23486e-06
1.26509e-06
4.63261e-06
4.62924e-06
4.79364e-06
1.49973e-05
1.32024e-05
1.34947e-05
1.5202e-05
1.54888e-05
1.29896e-05
1.57688e-05
1.21796e-05
1.59959e-05
1.59165e-05
1.66838e-05
9.85729e-06
1.36249e-05
1.62985e-05
1.33358e-05
1.61768e-05
1.55989e-05
1.59975e-05
1.58636e-05
1.58996e-05
1.47435e-05
1.58505e-05
1.198e-05
1.47667e-05
1.58525e-05
1.53087e-05
1.58435e-05
1.60612e-05
1.41218e-05
1.22964e-05
1.58448e-05
1.21706e-05
1.38292e-05
1.56574e-05
4.89502e-06
5.60199e-07
5.48044e-07
6.17328e-07
5.29699e-07
1.51178e-05
6.26849e-07
1.51309e-05
1.58408e-05
1.05047e-05
1.58525e-05
1.41371e-05
1.53345e-05
1.58276e-05
4.78716e-06
1.17326e-05
1.57971e-05
9.19092e-06
1.58548e-05
1.58535e-05
4.41456e-06
1.26865e-05
1.53853e-05
1.52554e-05
1.18541e-05
4.76e-07
5.8843e-07
5.06174e-07
5.20875e-07
6.36037e-07
1.5141e-05
1.24953e-05
1.549e-05
1.35238e-05
1.54118e-05
1.58735e-05
1.4377e-05
1.27632e-05
4.66738e-06
1.45229e-05
1.35424e-05
1.44237e-05
1.13057e-05
1.59755e-05
1.60885e-05
1.62511e-05
1.57102e-05
1.14338e-05
1.61457e-05
1.58748e-05
1.55371e-05
1.155e-05
1.60323e-05
1.46543e-05
6.07386e-07
5.82384e-07
5.13446e-07
5.02058e-07
5.19055e-07
1.59535e-05
1.57771e-05
1.57762e-05
6.31643e-07
5.59592e-07
5.78418e-07
5.67143e-07
6.32178e-07
1.25719e-05
1.17695e-05
1.54972e-05
9.85857e-06
1.55773e-05
1.61368e-05
1.36413e-05
1.55388e-05
1.27636e-05
1.2729e-05
1.54867e-05
1.49033e-05
1.50344e-05
1.53928e-05
1.20204e-05
1.59592e-05
1.58511e-05
1.62899e-05
1.53449e-05
1.55992e-05
1.54725e-05
1.53415e-05
1.48091e-05
1.59357e-05
1.60386e-05
1.5832e-05
1.62066e-05
1.58488e-05
1.57716e-05
1.10109e-05
1.24037e-05
1.15433e-05
1.3415e-05
1.51993e-05
1.5952e-05
1.20065e-05
1.5508e-05
1.31829e-05
1.59766e-05
1.54391e-05
1.58565e-05
1.39834e-05
1.28208e-05
1.63365e-05
1.60965e-05
1.59334e-05
8.11456e-06
1.52659e-05
1.558e-05
1.3496e-05
4.89965e-06
1.58617e-05
1.57457e-05
1.42403e-05
1.5861e-05
5.77392e-06
1.55879e-05
1.46158e-05
9.5758e-06
1.54501e-05
1.58802e-05
1.5422e-05
1.57194e-05
1.09753e-05
5.23799e-06
1.41968e-05
1.28812e-05
1.13252e-05
1.20362e-05
1.10576e-05
1.37795e-05
1.57513e-05
1.4495e-05
1.44268e-05
1.61484e-05
1.58532e-05
1.58354e-05
1.24019e-05
1.56731e-05
1.02926e-05
9.95217e-06
9.94949e-06
9.11118e-07
1.58762e-05
1.58546e-05
1.57789e-05
1.58453e-05
1.46232e-05
7.48909e-07
8.90507e-07
7.80324e-07
8.01336e-07
1.46365e-05
1.48899e-05
1.56356e-05
1.41616e-05
1.57765e-05
1.5814e-05
1.55665e-05
1.53948e-05
1.57948e-05
1.33825e-05
1.58654e-05
1.59913e-05
1.59491e-05
1.4404e-05
1.56257e-05
1.60383e-05
1.61218e-05
1.58499e-05
1.6356e-05
1.47947e-05
1.0784e-05
1.52187e-05
1.57478e-05
1.43547e-05
9.3399e-06
1.60023e-05
1.47111e-05
1.54139e-05
1.39261e-05
1.58451e-05
1.50206e-05
1.21504e-05
1.32195e-05
1.29538e-05
1.48289e-05
1.58513e-05
1.58441e-05
1.17903e-05
1.03878e-05
1.4202e-05
1.62938e-05
1.58438e-05
1.54617e-05
1.60095e-05
1.55176e-05
1.32901e-05
1.68427e-05
1.25771e-05
1.53213e-05
1.17422e-05
1.00822e-05
1.09299e-05
1.58371e-05
1.55902e-05
1.63181e-05
1.54003e-05
1.59156e-05
1.63482e-05
1.57824e-05
1.06706e-05
1.5797e-05
1.52222e-05
1.58542e-05
1.49335e-05
1.12201e-05
1.59843e-05
4.66093e-06
1.58141e-05
1.49635e-05
1.53897e-05
1.4972e-05
6.35786e-06
1.11156e-05
1.60348e-05
1.63927e-05
1.5934e-05
1.61087e-05
4.94543e-06
1.5858e-05
1.55651e-05
1.47925e-05
1.32146e-05
1.52779e-05
1.10448e-05
1.17904e-05
1.13972e-05
1.54965e-05
1.1143e-05
1.11149e-05
2.57766e-06
6.80782e-06
6.56887e-06
6.57852e-06
1.63355e-05
1.60058e-05
1.58538e-05
1.15076e-05
1.57444e-05
1.45347e-05
1.58415e-05
1.29937e-05
1.58627e-05
1.55296e-05
1.5939e-05
4.55125e-06
4.39521e-06
4.39834e-06
1.24474e-05
1.58619e-05
1.51771e-05
1.30456e-05
1.58544e-05
1.00582e-05
1.16137e-05
1.55091e-05
1.16703e-06
1.05655e-06
9.94606e-07
1.50729e-05
2.66818e-06
1.63206e-05
1.53422e-05
7.40297e-06
1.00613e-06
1.49655e-05
1.53942e-05
1.09841e-05
1.13617e-05
1.54134e-05
1.58005e-05
1.02519e-05
1.07977e-05
1.11685e-05
1.23659e-06
1.37756e-05
1.56891e-05
1.17032e-05
1.15088e-05
1.48159e-05
5.88209e-06
1.38265e-05
8.58181e-06
6.32667e-06
1.57288e-05
1.57416e-05
1.32551e-06
1.57602e-05
1.09442e-05
1.05805e-05
1.34364e-05
8.83222e-06
1.43052e-05
9.58655e-06
1.58574e-05
2.20127e-06
1.57217e-05
1.06708e-05
1.58441e-05
9.10369e-06
1.48035e-05
2.26223e-06
2.1869e-06
2.19205e-06
2.28168e-06
1.46609e-05
4.30127e-06
1.30864e-05
3.02231e-06
2.08949e-06
1.03192e-05
2.84022e-06
1.35501e-05
1.53869e-05
1.27306e-05
4.55108e-06
9.73209e-06
1.39437e-05
1.58048e-05
1.53215e-05
1.13966e-05
1.59677e-05
1.63868e-05
4.55256e-06
4.39613e-06
4.3996e-06
1.54066e-05
1.62761e-05
5.28968e-06
5.10963e-06
5.11209e-06
9.85114e-06
9.59286e-06
9.26239e-06
9.27256e-06
3.05914e-06
1.5258e-05
1.89596e-06
1.0894e-05
1.58488e-05
4.24586e-06
2.01199e-06
1.5937e-05
1.58408e-05
3.39447e-06
1.62778e-05
1.58615e-05
1.43208e-05
1.56311e-05
2.49879e-06
2.41547e-06
2.41977e-06
4.17026e-06
2.33296e-06
2.66189e-06
2.57707e-06
2.57325e-06
1.49824e-05
1.4893e-05
3.42082e-06
3.60522e-06
3.48447e-06
3.48468e-06
4.63796e-06
2.11084e-06
1.5929e-05
3.13312e-06
3.02841e-06
3.0304e-06
1.61603e-05
1.54359e-05
1.47868e-06
1.52446e-05
1.56485e-05
2.91026e-06
1.58671e-05
1.58511e-05
1.74008e-06
1.69e-06
1.6826e-06
1.78145e-06
1.15799e-05
1.55696e-05
1.4818e-05
1.57337e-06
1.09759e-05
1.05304e-05
3.03426e-06
1.54562e-05
1.86002e-06
4.38143e-06
4.41608e-06
1.61136e-05
1.44939e-05
2.1531e-06
4.07885e-06
3.94201e-06
3.94044e-06
5.53519e-06
1.07653e-05
4.37291e-06
1.58236e-05
4.54763e-06
3.63982e-06
2.5098e-06
2.38475e-06
2.19166e-06
1.94636e-06
2.97266e-06
2.87332e-06
2.87585e-06
1.54519e-05
2.91533e-06
2.81792e-06
2.82102e-06
7.643e-06
3.80699e-06
2.55866e-06
5.36359e-06
3.36978e-06
3.25702e-06
3.25822e-06
2.40221e-06
3.93656e-06
3.64659e-06
4.8766e-06
4.87387e-06
5.0459e-06
3.11352e-06
4.01852e-06
1.59059e-05
3.80046e-06
1.3683e-05
1.59648e-05
4.70952e-06
4.2547e-06
4.10593e-06
5.27347e-06
1.57909e-05
5.47546e-06
4.47472e-06
2.40167e-06
2.89849e-06
2.80178e-06
2.8048e-06
3.44553e-06
3.33095e-06
3.33014e-06
1.33382e-05
4.16558e-06
4.16786e-06
4.31272e-06
3.44314e-06
3.73052e-06
1.66412e-06
1.51329e-05
3.23292e-06
1.5853e-05
5.12341e-06
1.60315e-05
3.84316e-06
3.71433e-06
3.71379e-06
6.57848e-06
1.58314e-05
1.48118e-05
1.54774e-05
1.2564e-05
1.84781e-06
1.59404e-05
2.73753e-06
2.64958e-06
2.64616e-06
5.20549e-06
1.5845e-05
3.21106e-06
3.10534e-06
3.10365e-06
5.16928e-06
4.17691e-06
1.76774e-06
3.91919e-06
3.787e-06
3.78772e-06
1.71766e-06
1.88587e-06
2.17746e-06
1.59263e-05
1.50931e-05
4.42405e-06
1.59468e-05
3.92584e-06
4.4835e-06
3.47222e-06
1.58627e-05
4.31753e-06
4.17256e-06
4.16991e-06
2.59186e-06
2.33529e-06
4.10078e-06
3.27074e-06
1.36213e-05
4.05523e-06
5.15583e-06
2.00084e-06
2.62195e-06
3.684e-06
3.56053e-06
3.56055e-06
2.78602e-06
2.36062e-06
3.69027e-06
1.57414e-05
1.54057e-05
1.54076e-05
1.80851e-06
4.02955e-06
1.54088e-05
3.75347e-06
1.50042e-05
4.09775e-06
1.48001e-05
5.03491e-06
2.89533e-06
2.43607e-06
3.79461e-06
1.58278e-05
7.15675e-07
8.15843e-07
7.45201e-07
3.91174e-06
2.82267e-06
4.92347e-06
7.72974e-07
1.64119e-06
1.5856e-05
3.90338e-06
3.9285e-06
3.88931e-06
2.56752e-06
2.57135e-06
2.65606e-06
4.55479e-06
3.83651e-06
2.61402e-06
4.93188e-06
4.94024e-06
4.13444e-06
2.66092e-06
1.3987e-05
1.104e-05
5.03712e-06
2.87837e-06
2.64918e-06
1.98444e-06
6.60292e-06
1.57934e-05
3.93737e-06
4.1581e-06
4.01854e-06
4.01732e-06
2.82299e-06
2.39848e-06
3.87562e-06
1.43122e-05
4.3194e-06
4.25789e-06
3.74005e-06
1.55201e-05
4.32983e-06
1.14646e-06
2.42709e-06
2.35123e-06
2.34648e-06
2.44336e-06
9.66784e-06
1.27832e-06
4.54246e-06
1.57252e-05
5.46445e-06
1.58361e-05
7.23184e-06
1.62264e-05
3.44287e-06
3.50037e-06
5.40184e-06
5.00958e-06
1.4091e-05
4.39427e-06
4.24416e-06
4.24669e-06
6.43545e-06
3.6835e-06
1.10584e-05
1.14379e-05
6.03866e-06
6.03164e-06
6.24876e-06
3.68095e-06
1.51676e-05
4.00831e-06
4.1768e-06
3.0598e-06
1.3527e-06
1.47402e-06
1.38594e-05
4.17726e-06
1.30239e-06
4.55003e-06
4.04848e-06
5.36809e-06
1.05687e-06
1.02514e-06
1.00591e-06
1.15302e-06
4.75737e-06
1.06169e-06
1.04371e-06
1.03094e-06
1.14839e-06
1.14477e-06
4.78454e-06
1.51604e-05
3.70618e-06
3.70544e-06
3.83485e-06
5.57222e-06
1.55722e-05
1.54472e-05
3.51346e-06
7.04539e-06
6.79753e-06
6.80807e-06
3.70211e-06
1.50975e-05
1.60895e-05
5.77658e-06
5.97787e-06
5.77048e-06
1.77476e-06
1.67249e-06
1.68032e-06
1.72925e-06
7.34674e-06
1.4969e-05
1.41597e-05
1.52453e-05
3.96121e-06
6.29391e-06
4.51088e-06
1.0099e-05
4.67442e-06
3.05425e-06
3.55453e-06
1.61315e-05
1.94164e-06
1.36549e-05
1.50558e-05
1.50223e-05
3.25455e-06
6.12236e-06
1.52239e-05
5.23806e-06
3.68436e-06
3.5612e-06
5.39338e-06
1.58207e-05
1.23335e-05
1.19125e-05
1.68555e-06
5.17727e-06
3.57458e-06
4.15419e-06
1.24287e-05
6.04007e-06
9.84121e-06
9.50413e-06
9.51283e-06
4.1322e-06
4.31892e-06
6.0681e-06
1.47751e-05
1.46635e-05
1.23932e-06
1.4944e-05
1.59075e-06
1.75141e-06
1.4285e-06
1.31042e-06
2.12947e-06
5.71059e-06
2.65883e-06
1.55053e-06
1.03674e-05
3.44233e-06
1.46786e-06
4.79198e-06
4.62664e-06
4.6309e-06
4.80403e-06
5.19982e-06
1.49613e-05
5.00687e-06
1.59709e-05
2.11819e-06
1.49737e-05
4.38787e-06
1.58323e-05
1.17293e-05
4.15117e-06
6.43164e-06
1.57786e-05
7.961e-06
5.80384e-06
4.89932e-06
2.93473e-06
5.97692e-06
1.17576e-05
4.68296e-06
1.80117e-06
1.98428e-06
4.12344e-06
5.78428e-06
1.63041e-05
5.53085e-06
5.4703e-06
3.47315e-06
1.94352e-06
6.15436e-06
1.39302e-05
6.54798e-06
2.67534e-06
1.57434e-05
6.98128e-06
6.39213e-06
2.39543e-06
5.25426e-06
6.72435e-06
1.81956e-06
3.20437e-06
6.36065e-06
1.48945e-05
1.58066e-05
1.6744e-06
1.58541e-05
1.58418e-05
8.62586e-06
1.89416e-06
1.90039e-06
1.95855e-06
1.98969e-06
1.53665e-06
1.48554e-06
1.49245e-06
1.57814e-06
6.52662e-06
3.85563e-06
1.59014e-05
4.40537e-06
6.81921e-06
4.03078e-06
4.02842e-06
4.17087e-06
6.22656e-06
1.08476e-06
6.44605e-06
6.88965e-06
1.54618e-05
6.925e-06
1.60677e-05
1.45704e-05
1.48536e-05
2.2113e-06
2.11378e-06
2.11959e-06
2.18621e-06
1.58577e-05
4.60824e-06
1.50827e-05
1.54388e-05
5.28878e-06
1.388e-06
1.35483e-06
1.24737e-06
1.28894e-06
1.25741e-06
7.48815e-06
4.77846e-06
2.85478e-06
3.25853e-06
6.27138e-06
1.92123e-06
1.53129e-05
2.1315e-06
1.12229e-05
1.08495e-05
3.57047e-06
1.2584e-05
2.95528e-06
3.11851e-06
1.58435e-05
3.9117e-06
1.24022e-05
3.06679e-06
3.57816e-06
3.57789e-06
3.70228e-06
3.66924e-06
7.51006e-06
1.58493e-05
1.37945e-05
3.88003e-06
8.13203e-06
6.20516e-06
1.58382e-05
1.57097e-05
4.34902e-06
5.73406e-06
5.93503e-06
1.58293e-06
1.47292e-06
1.48261e-06
1.52201e-06
1.08134e-05
1.11847e-05
1.32022e-06
1.36826e-06
1.50579e-06
1.24835e-05
1.26094e-06
6.83115e-06
1.63272e-06
9.05881e-06
2.65296e-06
6.2718e-06
6.04156e-06
3.13049e-06
6.6619e-06
5.02561e-06
6.73151e-06
1.59782e-05
6.9758e-06
1.58582e-05
1.15826e-05
3.00024e-06
6.74942e-06
1.08705e-05
1.51131e-05
6.75354e-06
3.20725e-06
1.74205e-06
2.73945e-06
3.87847e-06
2.45545e-06
1.98371e-06
9.40581e-06
1.25619e-05
2.68247e-06
1.58614e-05
1.37622e-05
6.80627e-06
3.41786e-06
2.22153e-06
7.2346e-06
1.54539e-05
1.63808e-06
6.50282e-06
7.11986e-06
1.39035e-06
1.58319e-05
8.05435e-06
6.59989e-06
1.56564e-05
1.14159e-05
7.29757e-06
1.58454e-05
6.49405e-06
1.44728e-05
2.49981e-06
6.68239e-06
9.53784e-06
1.52813e-06
1.48645e-06
1.47803e-06
1.57937e-06
1.58621e-05
4.16673e-06
4.51513e-06
1.05468e-06
1.01961e-06
1.02677e-06
1.13719e-06
1.10588e-06
1.55409e-05
1.53369e-05
7.27611e-06
7.06091e-06
7.06467e-06
2.02647e-06
8.56485e-06
1.58593e-05
6.76809e-06
6.96307e-06
5.04836e-06
4.87429e-06
4.87864e-06
2.32498e-06
4.794e-06
3.65347e-06
7.72795e-06
1.072e-05
3.42536e-06
3.4616e-06
1.55786e-05
1.52149e-05
7.21079e-06
7.00866e-06
1.5555e-05
7.0162e-06
2.2576e-06
8.98878e-06
9.17582e-06
1.58894e-05
3.78176e-06
6.66356e-06
1.5337e-05
3.53143e-06
2.19166e-06
2.47995e-06
2.05113e-06
1.95446e-06
1.96061e-06
2.02178e-06
3.87163e-06
3.69997e-06
7.49533e-06
1.12999e-05
2.53604e-06
2.44512e-06
2.44069e-06
2.52471e-06
8.71942e-06
3.88644e-06
4.25068e-06
4.24709e-06
4.39863e-06
1.49871e-05
7.80273e-06
1.57904e-05
1.4919e-06
4.34262e-06
8.54723e-06
3.79387e-06
7.5399e-06
1.61683e-05
9.03502e-06
1.57816e-06
1.70838e-06
1.51233e-05
1.51752e-05
4.12358e-06
5.05208e-06
1.59782e-05
7.54415e-06
1.64382e-05
7.19607e-06
7.78297e-06
2.8571e-06
1.21672e-05
1.2046e-05
1.35093e-05
7.20415e-06
6.95027e-06
6.96148e-06
4.16887e-06
3.89718e-06
4.38286e-06
5.34777e-06
5.16153e-06
5.16776e-06
8.3682e-06
1.54132e-05
8.39579e-06
3.02195e-06
2.41719e-07
2.29492e-07
2.02934e-07
2.54199e-07
2.37827e-07
2.06822e-07
2.18723e-07
2.04806e-07
2.12291e-07
2.00642e-07
7.44706e-06
7.18432e-06
7.19629e-06
1.56692e-05
1.97335e-06
1.50983e-05
4.56681e-06
3.22806e-06
1.54356e-05
3.1461e-06
1.47397e-05
1.19742e-05
5.10803e-06
4.93617e-06
4.9309e-06
1.14586e-05
1.51659e-05
2.47537e-06
1.61165e-05
1.58563e-05
8.31318e-06
4.95455e-06
1.60003e-06
1.55855e-05
9.53442e-06
5.75138e-06
4.64437e-06
8.31989e-06
7.58582e-06
1.49191e-05
1.49411e-05
1.5744e-05
1.58518e-05
7.77868e-06
1.55686e-05
1.5368e-05
1.57625e-05
3.28439e-06
3.33973e-06
8.05751e-06
3.19271e-06
1.6163e-05
4.63474e-06
4.47557e-06
4.47902e-06
5.84216e-06
5.63889e-06
5.64551e-06
1.51152e-05
1.62729e-05
1.82855e-06
6.47783e-06
3.70602e-06
4.49932e-06
4.31248e-06
3.6187e-06
4.02566e-06
8.7798e-06
6.30137e-06
1.5859e-05
5.38912e-06
4.93467e-06
1.45209e-05
4.81129e-06
1.57689e-05
3.97087e-06
1.11086e-05
2.70164e-06
1.58473e-05
8.81715e-06
3.24866e-06
3.24976e-06
3.36125e-06
1.08628e-05
5.15808e-06
6.20889e-06
8.99792e-06
4.18111e-06
4.17818e-06
4.32644e-06
3.31532e-06
8.18963e-06
4.6541e-06
6.08935e-06
5.8773e-06
5.88438e-06
1.27891e-05
1.04249e-05
4.36455e-06
1.54545e-05
5.30432e-06
1.17263e-06
8.82455e-06
7.25957e-06
1.00345e-05
5.79377e-06
5.59346e-06
5.59911e-06
4.02905e-06
6.19599e-06
4.42771e-06
3.57858e-06
8.57301e-06
4.39024e-06
1.54396e-05
1.44828e-05
1.53007e-05
5.41986e-06
8.89472e-06
6.02695e-06
1.44273e-05
2.77626e-06
1.59698e-05
2.51865e-06
1.19634e-05
4.07275e-06
1.07792e-05
1.10635e-05
1.06959e-05
1.47465e-05
1.58426e-05
1.30568e-05
5.31753e-06
3.72804e-06
3.72878e-06
3.85817e-06
9.2837e-06
1.57448e-05
1.50603e-05
5.61562e-06
5.02963e-06
4.71611e-06
3.44064e-06
5.28497e-06
1.56629e-05
1.08278e-06
1.24395e-06
1.13222e-06
1.06207e-06
8.35245e-06
2.83324e-06
4.31806e-06
9.31428e-06
4.17089e-06
7.68762e-06
7.41593e-06
7.42885e-06
5.18445e-06
1.55464e-05
4.62474e-06
4.87522e-06
9.26287e-06
9.07599e-06
3.95491e-06
3.95309e-06
4.09226e-06
3.94921e-06
1.63675e-05
1.98346e-06
4.34398e-06
5.22683e-06
1.52949e-05
5.06061e-06
1.05515e-05
1.57029e-05
1.52161e-05
3.90017e-06
1.53677e-05
1.03548e-05
9.78629e-06
2.24902e-06
2.0485e-06
2.77525e-06
1.14585e-05
1.58518e-05
5.55333e-06
5.3667e-06
5.36151e-06
6.2581e-06
6.04745e-06
6.04032e-06
4.72494e-06
1.54952e-05
5.28254e-06
5.20152e-06
7.34572e-06
4.26319e-06
3.3772e-06
4.18773e-06
2.59285e-06
2.58893e-06
2.67824e-06
4.31814e-06
1.59887e-05
5.08545e-06
8.94728e-06
1.5427e-05
4.67344e-06
1.06268e-05
5.5084e-06
3.82372e-06
3.85874e-06
3.81884e-06
2.3433e-06
9.78929e-06
7.75649e-06
9.04074e-06
1.13234e-05
1.3591e-05
5.85014e-06
9.06554e-06
1.56045e-05
9.54702e-06
1.06108e-05
7.59343e-06
5.98789e-06
1.03012e-05
8.09013e-06
1.58435e-05
4.93285e-06
1.49716e-05
4.70076e-06
1.37401e-05
5.00046e-06
2.68276e-06
1.59784e-05
1.08723e-05
1.58787e-05
1.21453e-05
4.70037e-06
4.18755e-06
7.07605e-06
7.77978e-06
7.50543e-06
7.51817e-06
1.30467e-05
9.28398e-06
1.49707e-05
1.6552e-05
3.4961e-06
8.0029e-06
4.99402e-06
6.8513e-06
1.61095e-06
4.78804e-06
6.88887e-06
1.48213e-05
1.00455e-05
1.40451e-05
1.58247e-05
1.85901e-06
4.08665e-06
1.5409e-05
2.86906e-06
1.51566e-05
6.49026e-06
6.26335e-06
6.2717e-06
6.63497e-06
5.26301e-06
8.87764e-06
5.29352e-06
1.54618e-05
5.60457e-06
1.35962e-05
2.379e-06
8.83764e-06
1.14137e-05
1.32221e-05
8.54625e-06
8.24626e-06
8.25972e-06
5.52437e-06
8.33905e-06
8.03185e-06
7.74869e-06
7.76198e-06
1.14123e-05
5.84653e-06
7.20407e-06
8.76981e-06
3.49936e-06
3.49947e-06
3.62069e-06
1.537e-05
1.57635e-05
8.77887e-06
1.55273e-05
1.15553e-05
1.11709e-05
8.50382e-06
3.11018e-06
8.48282e-06
8.18571e-06
8.19839e-06
8.19768e-06
7.90888e-06
7.92223e-06
9.51883e-06
3.58893e-06
5.75865e-06
1.56269e-05
1.38719e-05
1.5794e-05
1.60655e-05
1.11014e-05
1.03051e-05
2.81199e-06
2.64443e-06
1.05905e-05
1.58211e-05
7.77304e-06
7.28817e-06
7.03137e-06
7.04277e-06
1.32439e-05
1.16139e-05
1.45352e-05
7.83296e-06
2.47811e-06
1.23378e-05
6.50493e-06
4.29346e-06
1.46492e-05
3.0223e-06
3.0204e-06
3.12493e-06
1.60437e-05
3.93425e-06
3.93253e-06
4.07093e-06
5.34028e-06
3.61941e-06
2.17295e-06
4.43025e-06
1.57187e-05
6.9687e-06
5.0292e-06
3.43991e-06
2.81704e-06
1.0888e-05
1.16799e-06
1.08615e-06
1.06047e-06
1.05194e-06
1.14081e-06
1.49681e-05
2.12918e-06
7.32569e-06
9.57161e-06
1.52902e-05
5.87014e-06
9.26071e-06
8.94016e-06
8.95121e-06
1.18793e-05
1.48752e-05
1.49448e-05
9.31642e-06
1.27671e-05
8.33502e-06
9.01398e-06
8.7008e-06
8.71268e-06
1.26792e-05
6.13052e-06
9.09823e-06
1.19907e-05
9.15427e-06
8.80939e-06
8.50121e-06
8.51436e-06
8.52755e-07
7.87817e-06
4.93637e-06
1.58467e-05
3.18958e-06
5.7998e-06
3.46676e-06
3.1375e-06
1.58404e-05
9.8094e-06
6.0319e-06
7.6482e-06
2.66641e-06
4.48456e-06
4.4802e-06
4.64062e-06
3.56543e-06
1.19133e-05
1.58467e-05
2.73694e-06
8.13799e-06
1.20595e-05
3.23222e-06
7.60107e-06
3.7994e-06
7.87568e-06
8.41557e-06
1.3459e-05
5.14448e-06
9.76771e-06
3.47576e-06
3.47579e-06
3.59634e-06
1.56093e-05
1.59491e-05
2.40618e-06
1.61306e-05
1.58612e-05
7.89342e-06
5.85623e-06
1.58432e-05
7.43717e-06
3.30511e-06
1.58349e-05
1.38614e-05
1.5537e-05
7.35894e-06
3.57324e-06
2.58002e-06
1.58521e-05
1.63958e-05
4.08541e-06
1.22647e-05
1.58127e-05
2.0125e-06
2.45326e-06
2.35873e-06
2.36343e-06
2.43994e-06
1.34556e-05
4.42702e-06
1.56944e-05
1.50815e-05
9.44687e-06
1.39616e-05
3.12701e-06
4.57487e-06
3.30474e-06
8.64368e-06
9.17663e-06
2.9325e-06
2.23194e-06
2.08555e-06
8.02174e-06
1.32488e-05
6.10969e-06
1.13292e-05
1.34017e-05
8.65817e-06
8.90355e-06
8.60493e-06
4.62081e-06
3.15755e-06
1.57483e-05
3.36433e-06
2.00076e-06
1.90428e-06
1.91071e-06
1.96956e-06
1.20514e-05
4.62781e-06
2.95872e-06
1.25392e-05
2.99069e-06
8.78334e-06
1.51593e-05
4.65008e-06
1.15159e-05
6.56824e-06
6.34706e-06
6.33841e-06
9.59943e-06
1.2122e-05
1.54228e-05
8.06896e-06
8.83776e-06
9.32751e-06
9.00426e-06
9.01579e-06
3.62103e-06
3.89345e-06
9.97299e-06
1.53263e-05
8.29222e-06
1.0272e-05
1.06431e-05
1.02888e-05
7.86207e-06
1.50101e-05
8.32663e-06
1.34886e-05
1.56647e-05
1.61962e-05
3.27265e-06
3.27378e-06
3.38601e-06
1.42607e-05
2.66866e-06
2.66511e-06
2.75715e-06
2.75949e-06
9.41741e-06
1.13452e-05
9.93427e-06
1.61399e-05
1.39881e-05
1.99147e-06
1.89876e-06
1.9563e-06
1.89187e-06
1.45908e-06
1.35535e-06
1.32122e-06
1.31124e-06
1.42012e-06
3.37829e-06
1.31076e-05
1.02471e-05
1.57849e-05
1.3654e-05
1.37933e-05
1.00418e-05
1.59724e-05
3.31286e-06
1.58257e-05
9.80041e-06
9.46739e-06
9.47339e-06
1.57279e-05
9.41831e-06
9.66203e-06
1.23621e-05
6.52193e-06
1.61451e-05
1.62154e-05
3.04606e-06
3.04804e-06
3.15147e-06
1.45992e-05
1.54622e-05
7.14588e-06
9.15192e-06
9.67488e-06
4.1928e-06
1.57092e-05
1.58762e-05
3.12304e-06
1.77134e-06
1.58606e-05
8.31411e-06
1.05217e-05
1.09022e-05
8.48908e-06
4.50419e-06
2.43319e-06
2.33855e-06
2.34326e-06
2.419e-06
1.58518e-05
1.21605e-05
2.88254e-06
1.07816e-05
1.01729e-05
2.23118e-06
2.91342e-06
1.60254e-05
2.79571e-06
2.79302e-06
2.88951e-06
1.58187e-05
1.31179e-05
4.1566e-06
3.80308e-06
3.8018e-06
3.93517e-06
2.92903e-06
9.1217e-06
6.96464e-06
6.71977e-06
6.72999e-06
1.3508e-05
1.046e-05
1.35232e-05
1.13243e-05
1.53822e-05
4.76028e-06
1.21284e-05
1.01419e-05
1.25596e-05
9.9101e-06
3.19686e-06
2.4256e-06
7.60888e-06
1.01797e-05
1.59715e-05
1.57408e-05
1.57823e-05
1.56034e-05
3.23547e-06
1.43697e-05
1.19135e-05
1.58947e-05
1.61093e-05
2.13124e-06
2.13692e-06
2.20447e-06
2.22753e-06
1.58193e-05
1.11933e-05
1.33007e-05
9.55494e-06
1.37878e-06
3.63233e-06
3.0575e-06
1.18864e-05
1.54907e-05
2.74534e-06
1.04317e-05
1.33989e-05
1.2476e-05
1.57993e-05
5.55237e-06
1.51621e-05
1.57861e-05
1.27204e-05
1.5818e-05
2.48264e-06
2.56532e-06
1.58553e-05
3.66282e-06
1.14289e-05
1.10489e-05
3.44069e-06
3.3489e-06
3.34957e-06
3.46498e-06
1.53352e-05
1.53671e-05
2.89004e-06
1.5874e-05
5.30635e-06
5.12804e-06
5.12325e-06
4.2688e-06
2.70291e-06
3.93409e-06
1.58343e-05
1.07387e-05
1.48525e-05
2.75479e-06
1.37667e-05
2.43437e-06
1.58855e-05
1.1219e-05
2.71025e-06
1.14227e-05
1.10426e-05
1.1292e-05
3.21679e-06
1.49775e-05
1.52309e-05
3.53039e-06
1.11844e-05
2.21101e-06
1.11297e-05
1.54607e-05
1.28006e-05
1.60658e-05
1.58801e-05
1.43437e-05
1.51221e-05
7.50603e-06
1.58508e-05
1.59502e-05
6.02143e-06
5.81273e-06
5.81881e-06
3.55188e-06
1.08714e-05
1.62157e-05
1.58552e-05
9.90935e-06
1.53967e-05
1.42083e-05
1.58523e-05
1.5273e-05
1.54934e-05
1.33132e-05
1.23002e-05
1.07536e-05
1.4972e-05
1.4247e-05
1.02816e-05
1.06133e-05
1.0261e-05
1.56823e-05
1.15537e-05
3.16935e-06
1.59103e-05
2.34684e-06
1.24697e-05
1.04496e-05
1.16705e-05
1.61738e-05
7.93267e-06
7.65234e-06
7.66587e-06
1.05534e-05
1.78258e-06
1.21046e-05
1.1696e-05
3.45943e-06
1.11879e-05
1.15741e-05
1.59372e-05
1.54099e-05
1.60231e-05
1.5506e-05
1.58301e-05
1.56457e-06
1.56939e-05
8.24879e-06
1.61081e-05
1.05665e-05
1.09297e-05
1.53584e-05
1.13457e-05
1.48944e-05
1.58543e-05
1.34837e-05
1.59171e-05
1.54523e-05
1.57711e-05
2.25923e-06
1.12487e-05
1.36297e-05
1.63745e-05
1.57035e-05
9.18781e-06
9.05603e-06
1.26772e-05
1.62525e-05
1.05718e-05
8.75206e-06
8.44655e-06
8.45913e-06
1.54789e-05
2.19145e-06
2.119e-06
2.12453e-06
2.21713e-06
1.59969e-05
9.35168e-06
1.58506e-05
1.59849e-05
9.50711e-06
1.54128e-05
2.22071e-06
1.55235e-05
2.01149e-06
3.31203e-06
1.89001e-06
1.536e-05
1.05285e-05
1.08349e-05
1.0475e-05
1.55185e-05
1.36873e-05
1.46805e-05
1.6214e-05
1.58459e-05
1.47247e-05
1.60315e-05
1.45396e-05
1.07725e-05
3.34586e-06
1.47855e-05
1.5956e-05
1.57299e-05
1.20796e-05
1.16785e-05
1.51824e-05
1.57568e-05
1.46921e-05
1.5839e-05
5.03954e-06
1.59637e-05
1.48082e-05
5.28284e-06
1.47849e-05
1.57879e-05
1.14291e-05
1.2226e-05
1.09282e-05
1.05649e-05
1.05672e-05
1.60102e-05
1.26434e-05
1.56532e-05
1.28194e-05
1.55276e-06
1.61923e-05
2.2102e-06
2.21552e-06
2.28612e-06
2.30583e-06
3.03121e-06
1.15574e-05
1.4643e-05
3.07448e-06
1.58521e-05
1.12812e-05
1.51435e-05
1.58094e-05
1.08896e-05
1.56685e-06
1.47152e-06
1.47911e-06
1.52127e-06
1.16543e-05
1.12654e-05
1.38489e-05
1.1992e-05
1.28699e-05
1.74534e-06
1.58467e-05
1.58544e-05
1.5836e-05
1.5856e-05
7.11613e-06
1.55985e-05
2.42215e-06