/*--------------------------------*- C++ -*----------------------------------*\
  =========                 |
  \\      /  F ield         | OpenFOAM: The Open Source CFD Toolbox
   \\    /   O peration     | Website:  https://openfoam.org
    \\  /    A nd           | Version:  8
     \\/     M anipulation  |
\*---------------------------------------------------------------------------*/
FoamFile
{
    version     2.0;
    format      ascii;
    class       volScalarField;
    location    "1";
    object      p;
}
// * * * * * * * * * * * * * * * * * * * * * * * * * * * * * * * * * * * * * //

dimensions      [0 2 -2 0 0 0 0];

internalField   nonuniform List<scalar> 
4320
(
5.08885e-06
1.34854e-06
4.83052e-06
1.82431e-05
1.83385e-05
3.56535e-06
2.07784e-06
1.01467e-05
1.60386e-05
1.8203e-06
4.35757e-06
1.11943e-05
4.16512e-06
7.84054e-06
1.72818e-05
5.72118e-06
1.2105e-05
1.84625e-05
4.55947e-06
5.32929e-06
4.94449e-06
8.65405e-06
1.79708e-05
4.69438e-06
1.22004e-05
1.26835e-05
1.18398e-05
1.30779e-05
4.84744e-06
1.83824e-05
1.44777e-05
1.08768e-05
7.26135e-06
1.05264e-05
2.51524e-06
1.72193e-06
4.7517e-06
1.37863e-06
1.82268e-05
6.08585e-06
6.88473e-06
1.43004e-05
1.81025e-05
1.32871e-05
1.77409e-05
1.35821e-05
2.61379e-07
7.97237e-06
1.75359e-05
6.341e-06
4.39111e-06
4.6746e-06
1.83565e-05
1.73941e-05
1.62128e-05
1.04682e-05
2.01217e-06
1.02223e-05
-1.50311e-07
1.82267e-05
5.1373e-06
2.81902e-06
3.17422e-06
5.92494e-06
1.84405e-05
4.53895e-06
1.81612e-05
3.64672e-06
8.58154e-06
1.0353e-06
9.83242e-06
1.16502e-05
1.28748e-05
1.47042e-05
6.75252e-06
9.38149e-06
1.69404e-06
1.76053e-05
1.82489e-05
1.83298e-05
3.8272e-06
8.94028e-06
1.30758e-05
1.18342e-05
1.82569e-05
2.41125e-06
1.82635e-05
6.30365e-06
1.84073e-05
1.0704e-05
1.79338e-05
3.61251e-06
1.79968e-05
1.82576e-05
5.42604e-06
3.4483e-06
1.324e-05
5.52728e-06
1.21704e-05
1.71255e-05
1.82668e-05
7.15599e-06
3.45664e-06
7.73669e-06
5.16977e-07
1.32364e-05
1.40225e-05
1.83145e-05
1.79749e-05
1.16276e-05
1.8694e-05
5.1978e-06
1.43217e-05
5.59903e-06
1.31857e-05
2.19675e-06
1.75818e-05
1.70644e-05
1.82937e-05
8.52246e-07
1.43126e-05
1.27689e-05
2.017e-06
1.74336e-05
6.95284e-06
6.47178e-06
3.95528e-06
7.3606e-06
1.32337e-05
1.07162e-05
1.45401e-05
9.42496e-06
5.24466e-06
7.8353e-06
1.79575e-05
1.82418e-05
4.33414e-06
1.82588e-05
7.50041e-06
1.83245e-05
3.41384e-06
3.26403e-06
3.16143e-07
-1.67176e-07
1.78778e-05
1.46455e-05
8.34521e-06
1.82204e-05
7.31681e-06
5.39318e-07
6.13319e-06
6.70916e-07
1.76951e-05
1.73803e-05
3.29287e-06
2.47264e-06
1.80691e-05
1.74891e-05
1.82381e-05
2.99891e-06
1.82714e-05
1.27531e-05
1.2053e-06
1.81755e-06
1.32782e-05
2.5988e-06
1.2262e-05
1.76601e-05
1.48261e-05
1.53585e-05
7.56737e-06
3.46481e-06
2.1735e-06
1.29514e-06
1.82945e-05
1.77808e-05
1.80109e-05
1.45892e-05
1.44095e-05
3.68761e-06
1.81762e-05
1.49424e-05
1.81928e-05
1.86308e-05
1.74189e-05
1.70453e-05
1.82798e-05
8.80759e-07
5.1161e-06
1.8018e-05
2.14356e-06
9.29567e-06
1.83303e-05
2.46734e-06
1.85227e-05
1.3945e-05
1.27838e-05
1.91633e-06
3.325e-06
6.54916e-06
1.81253e-05
5.62419e-06
1.20341e-05
8.51279e-06
1.52304e-05
1.3391e-05
2.20514e-06
1.82694e-05
1.51982e-05
1.84765e-05
7.70798e-06
1.82643e-05
1.79095e-05
1.82757e-05
1.8265e-05
1.82808e-05
1.82548e-05
1.8269e-05
1.83604e-05
1.77765e-05
1.83157e-05
3.5374e-06
1.82433e-05
1.54521e-05
1.28591e-05
1.81175e-05
1.74937e-05
1.67952e-05
1.8052e-05
1.91714e-05
1.46622e-05
1.77155e-05
1.19315e-05
8.14026e-06
1.41222e-05
1.8253e-05
1.40001e-05
6.48313e-06
2.78283e-06
8.37537e-06
1.79928e-05
1.75862e-05
1.58185e-05
5.06334e-06
4.17231e-06
1.95194e-07
1.81275e-05
1.82415e-05
7.56523e-06
6.25498e-06
1.27174e-05
1.26947e-06
1.05111e-05
1.16926e-05
1.16255e-05
4.23575e-06
1.82714e-05
1.86772e-06
1.27827e-05
1.35233e-06
3.83685e-06
1.76548e-05
8.41474e-06
7.92148e-06
1.82097e-05
6.95515e-06
1.84019e-05
1.96213e-06
1.69989e-05
1.81531e-05
8.79011e-06
1.82816e-05
3.30913e-06
1.32752e-05
1.81071e-05
1.30537e-05
1.82365e-05
9.43631e-06
1.82447e-05
1.82886e-05
1.82649e-05
1.46852e-05
1.21258e-05
1.84076e-05
9.47266e-06
1.32857e-05
1.342e-05
1.82892e-05
1.14608e-05
1.73088e-05
1.17384e-05
9.16916e-06
1.82671e-05
2.36062e-06
1.80636e-05
2.08334e-06
1.28716e-05
1.79124e-06
1.50323e-05
1.45345e-05
1.82736e-05
9.77497e-06
6.78344e-06
2.51355e-06
7.83019e-06
1.78346e-05
9.42771e-06
1.68979e-06
6.55729e-06
3.17954e-06
5.10226e-06
1.161e-05
1.72819e-05
1.78494e-05
9.19044e-06
1.97773e-06
1.81943e-05
1.1259e-05
1.75408e-05
5.248e-06
1.39721e-05
1.8278e-05
1.8126e-05
1.82873e-05
1.42821e-05
1.83063e-05
1.4552e-05
1.78005e-05
1.77978e-05
1.65422e-06
8.37997e-06
6.15334e-06
9.15127e-06
1.82691e-05
1.77991e-05
1.47524e-05
1.72233e-05
1.82654e-05
1.28558e-05
1.82297e-05
1.23753e-05
1.48737e-05
1.06421e-05
1.73894e-05
1.72448e-05
1.83122e-05
1.81428e-05
1.80967e-05
1.80886e-05
1.82458e-05
1.36987e-05
1.1474e-05
1.82518e-05
1.65983e-05
1.09504e-05
1.76123e-05
1.38916e-05
1.51214e-05
1.18902e-05
8.77238e-06
1.75336e-05
1.37141e-05
1.03933e-05
1.69645e-05
1.50131e-05
2.57562e-06
1.82631e-05
1.86334e-05
1.80711e-05
1.00556e-05
7.56596e-06
1.77193e-05
1.24225e-05
1.7922e-05
1.57914e-05
1.81533e-05
6.8945e-07
9.57985e-06
1.82327e-05
1.30082e-05
1.82617e-05
1.67336e-05
1.80359e-05
1.47956e-05
1.80025e-05
1.48732e-05
1.82535e-05
1.82648e-05
1.57021e-06
1.8279e-05
1.49394e-06
1.83544e-05
1.82459e-05
1.82377e-05
1.37319e-05
1.83004e-05
5.83302e-06
1.65749e-05
1.51499e-05
1.1452e-05
1.72395e-05
1.7665e-05
1.75772e-05
1.83579e-05
1.82938e-05
1.69526e-05
1.51154e-05
1.10525e-05
1.4648e-06
1.1644e-05
1.58248e-05
1.78901e-05
1.73124e-05
1.82285e-05
1.45358e-05
1.82395e-05
9.01234e-06
1.86064e-05
1.72753e-05
1.69144e-05
8.99307e-07
1.82515e-05
1.44356e-05
1.82082e-05
4.61354e-06
1.80254e-05
1.61641e-05
1.76139e-05
1.82716e-05
1.86172e-05
1.81006e-05
1.17765e-05
1.82392e-05
1.81037e-05
1.73032e-05
1.82275e-05
1.4821e-05
1.72114e-06
1.1987e-05
1.84009e-05
7.99563e-06
1.82514e-05
1.80305e-05
1.82705e-05
1.49828e-05
1.81969e-05
1.18614e-05
1.80537e-05
1.46983e-05
1.73988e-05
1.51322e-05
1.81312e-05
1.82618e-05
1.37761e-05
1.7836e-05
1.82828e-05
1.4631e-05
1.71675e-05
1.86662e-05
1.82597e-05
1.82191e-05
1.80139e-05
1.74421e-05
1.45495e-05
1.70262e-05
9.99787e-06
1.3917e-05
1.82181e-05
1.76283e-05
1.82737e-05
1.43267e-05
1.81742e-05
1.74917e-05
1.7379e-05
1.39596e-05
7.97691e-06
1.01795e-05
1.82793e-05
1.64334e-05
1.82647e-05
1.28324e-05
1.82622e-05
1.20199e-05
1.82663e-05
1.82454e-05
1.78004e-05
1.46306e-05
1.48293e-05
1.85608e-05
1.39088e-05
1.76175e-05
1.8233e-05
1.41535e-05
1.79496e-05
1.91968e-05
1.82393e-05
1.32394e-05
1.80733e-05
1.81236e-05
1.76572e-05
1.75251e-05
1.61286e-05
1.18655e-05
1.76564e-05
1.72873e-05
1.13345e-05
9.66224e-06
1.41265e-05
9.63548e-06
1.82512e-05
1.09992e-05
1.78553e-05
2.54942e-06
1.61063e-05
4.50373e-06
4.42932e-06
1.48029e-06
1.52556e-06
1.54658e-05
1.7976e-05
1.26026e-05
1.82401e-05
1.2722e-05
1.82235e-05
1.73609e-05
1.81884e-05
1.77206e-05
1.61946e-05
1.26408e-06
1.76614e-05
1.79988e-05
1.7798e-05
1.82624e-05
1.46706e-05
1.81714e-05
1.42771e-05
1.86961e-05
2.68733e-06
1.83864e-05
1.411e-05
1.82225e-05
1.35711e-05
1.6964e-05
1.82852e-05
1.79363e-05
2.39628e-06
1.46777e-05
1.78421e-05
1.8261e-05
1.79151e-05
1.79376e-05
1.82636e-05
1.78173e-05
1.82272e-05
1.90433e-06
1.70194e-05
1.4107e-05
1.04432e-05
1.80467e-05
1.83544e-05
1.33832e-05
3.60466e-06
1.82831e-05
1.79993e-05
1.40561e-05
1.0955e-05
1.67747e-05
1.83375e-05
1.82264e-05
1.41691e-05
1.79442e-05
1.82833e-05
1.81183e-05
1.81839e-05
1.81472e-05
1.41769e-05
1.82624e-05
1.82626e-05
1.82393e-05
1.81416e-05
1.44212e-05
1.81673e-05
1.80972e-05
1.46258e-05
1.8258e-05
1.79606e-05
1.77799e-05
1.41469e-05
1.82817e-05
1.83552e-05
1.40827e-05
1.34788e-05
1.80757e-05
4.21221e-06
1.82559e-05
1.80761e-05
1.3182e-06
1.35229e-05
1.7993e-05
1.43895e-05
1.82683e-05
1.80578e-05
1.83239e-05
1.80704e-05
1.80721e-05
1.80054e-05
1.84127e-05
1.81371e-05
1.8279e-05
1.84387e-05
1.14907e-05
1.80368e-05
1.40816e-05
1.34195e-05
2.36976e-06
1.81753e-05
1.83401e-05
1.82673e-05
1.85347e-05
1.82573e-05
1.82396e-05
1.84107e-05
1.80941e-05
1.1002e-05
1.82589e-05
9.64929e-06
1.83339e-05
1.85328e-05
1.82542e-05
1.78822e-05
6.69956e-06
1.28377e-05
1.43427e-05
9.18265e-06
1.82741e-05
1.77842e-05
1.83682e-05
1.83057e-05
1.81152e-05
1.82615e-05
1.56587e-05
1.76757e-05
1.38884e-05
1.30497e-06
2.13203e-06
1.86637e-05
1.82276e-05
4.7955e-06
1.38972e-05
1.79937e-05
2.23927e-06
1.80499e-05
1.826e-05
1.74521e-05
1.34983e-05
1.82413e-05
1.08826e-05
1.26401e-05
1.86738e-05
6.49838e-06
1.82922e-05
1.30423e-05
1.4203e-05
1.82519e-05
1.83587e-05
1.34854e-05
1.8272e-05
1.31341e-05
1.86471e-05
1.81995e-05
1.8263e-05
1.86624e-05
1.8061e-05
1.79191e-05
1.34299e-05
1.82419e-05
1.81215e-05
1.8285e-05
1.25042e-05
1.81329e-05
1.71142e-05
1.37885e-05
1.37588e-05
1.85093e-05
1.81404e-05
1.82359e-05
1.82809e-05
1.81943e-05
1.82461e-05
1.82589e-05
1.36448e-05
1.80837e-05
1.8232e-05
1.39193e-05
1.74161e-05
1.82694e-05
1.82559e-05
1.82584e-05
1.8513e-05
1.81215e-05
1.40416e-05
1.86576e-05
1.82917e-05
1.82017e-05
1.82886e-05
1.8202e-05
1.82876e-05
1.74229e-05
1.82589e-05
1.72088e-05
1.92488e-05
6.79321e-06
1.8206e-05
1.6557e-05
1.35479e-05
1.82111e-05
1.41314e-05
1.83407e-05
1.81926e-05
1.81312e-05
1.3767e-05
1.80776e-05
1.27513e-05
1.83618e-05
1.07207e-05
1.86771e-05
1.80941e-05
1.17516e-05
1.83606e-05
1.81642e-05
1.82576e-05
1.84965e-05
1.82253e-05
1.85187e-05
1.83956e-05
1.33658e-05
1.84741e-05
1.82108e-05
3.612e-06
4.43936e-06
1.88236e-05
1.92103e-05
1.81133e-05
1.29854e-05
1.82871e-05
1.82748e-05
1.7544e-05
1.32081e-05
1.82569e-05
1.82235e-05
3.74909e-06
1.0844e-05
1.83098e-05
1.85988e-05
1.82153e-05
1.34233e-05
1.35777e-05
1.31767e-05
1.33094e-05
1.81098e-05
1.80771e-05
1.83403e-05
1.2645e-05
1.38969e-05
1.99266e-06
1.33534e-05
1.87442e-05
1.82664e-05
1.82534e-05
1.82614e-05
3.62002e-06
1.80768e-05
1.32348e-05
1.38135e-05
4.84433e-06
1.83687e-05
1.87185e-05
1.82286e-05
1.32954e-05
1.82503e-05
1.29851e-05
1.41774e-05
1.84134e-05
1.82512e-05
1.86661e-05
1.82683e-05
1.81796e-05
1.83647e-05
1.65392e-05
1.82516e-05
1.28667e-05
1.34531e-05
1.87803e-05
1.90987e-05
1.36244e-05
1.82339e-05
1.31405e-05
1.36967e-05
1.28586e-05
1.82658e-05
1.82424e-05
1.82581e-05
1.82606e-05
2.20061e-06
1.81801e-05
1.83685e-05
1.82693e-05
1.26794e-05
1.8227e-05
1.78858e-05
1.86575e-05
1.82115e-05
1.82675e-05
1.85818e-05
1.84039e-05
1.81313e-05
1.82601e-05
1.84704e-06
1.82317e-05
1.82442e-05
1.33104e-05
1.82286e-05
1.82526e-05
1.34299e-05
1.30482e-05
1.3595e-05
1.19296e-05
1.82545e-05
1.8086e-05
1.81986e-05
1.82625e-05
1.30607e-05
1.83116e-05
1.82178e-05
1.35325e-05
1.2937e-05
1.82387e-05
1.82613e-05
1.0646e-05
1.34841e-05
1.32387e-05
1.82493e-05
1.28565e-05
1.82577e-05
1.82565e-05
1.82955e-05
1.34092e-05
1.82586e-05
1.81901e-05
1.82399e-05
1.31992e-05
1.826e-05
3.71433e-06
1.82514e-05
1.81469e-05
1.82761e-05
1.82509e-05
1.82689e-05
1.82609e-05
1.81684e-05
1.82467e-05
1.83128e-05
1.82419e-05
1.82684e-05
1.84004e-05
1.82544e-05
1.82217e-05
1.82581e-05
1.8604e-05
1.23155e-05
1.82063e-05
1.85209e-05
1.82482e-05
1.32971e-05
1.27246e-05
1.82525e-05
1.82228e-05
1.82497e-05
1.8238e-05
1.86009e-05
1.82893e-05
1.82404e-05
1.32836e-05
1.82551e-05
1.82317e-05
1.82531e-05
1.83671e-05
1.31025e-05
1.82519e-05
1.82556e-05
1.35076e-05
1.70826e-05
1.818e-05
1.24748e-05
1.84122e-05
1.82256e-05
1.26641e-05
1.33834e-05
1.8224e-05
1.86384e-05
1.82448e-05
1.82477e-05
1.36963e-05
1.83551e-05
1.82176e-05
1.82137e-05
1.8226e-05
1.29981e-05
1.82264e-05
1.82219e-05
1.30643e-05
1.82699e-05
1.82499e-05
1.24227e-05
1.81943e-05
1.82242e-05
1.35049e-05
1.82406e-05
1.32703e-05
1.81162e-05
1.27521e-05
1.8261e-05
1.8091e-05
1.82724e-05
1.82864e-05
1.216e-05
1.82281e-05
1.86866e-05
1.8226e-05
1.82657e-05
1.29281e-05
1.31284e-05
1.82344e-05
1.30437e-05
1.82567e-05
1.25335e-05
1.23887e-05
1.28479e-05
1.82766e-05
1.82575e-05
1.8183e-05
1.82355e-05
1.82347e-05
1.82298e-05
1.28628e-05
1.25985e-05
1.82201e-05
1.29798e-05
1.30308e-05
1.26879e-05
1.2283e-05
1.82246e-05
1.81634e-05
1.33576e-05
1.84885e-05
1.82273e-05
1.82361e-05
1.82493e-05
1.2832e-05
1.82369e-05
1.82174e-05
1.32398e-05
1.82647e-05
1.1259e-05
1.8258e-05
1.82515e-05
4.18526e-06
1.82068e-05
1.82141e-05
1.82277e-05
1.82684e-05
1.82309e-05
1.22106e-05
1.25623e-05
1.82118e-05
1.30836e-05
1.8262e-05
1.82587e-05
1.8352e-05
1.8219e-05
1.78591e-05
1.18001e-05
1.82235e-05
1.8176e-05
1.29576e-05
1.24796e-05
1.26089e-05
1.74395e-05
1.82133e-05
1.8275e-05
1.25309e-05
1.22545e-05
1.82652e-05
1.23999e-05
1.20798e-05
1.19241e-05
1.82391e-05
1.82418e-05
1.8726e-05
1.27586e-05
1.13814e-05
8.59472e-06
1.82727e-05
1.81905e-05
1.83532e-05
1.22173e-05
1.8224e-05
1.22716e-05
1.82438e-05
5.64046e-06
5.86121e-06
1.82359e-05
1.21015e-05
1.21662e-05
1.82463e-05
1.22568e-05
1.19454e-05
1.20066e-05
1.15369e-05
1.82361e-05
1.19897e-05
1.93197e-05
1.20892e-05
1.23837e-05
1.81955e-05
1.82529e-05
1.19485e-05
1.1801e-05
1.20959e-05
1.22541e-05
1.1765e-05
1.38796e-05
1.20405e-05
1.22074e-05
1.16398e-05
1.19757e-05
1.81993e-05
1.17925e-05
1.19924e-05
1.20473e-05
1.20604e-05
1.1312e-05
1.21155e-05
1.1844e-05
1.86499e-05
1.82308e-05
1.91522e-05
1.31147e-05
1.1649e-05
1.14e-05
1.21887e-05
1.36249e-05
1.13558e-05
1.18465e-05
1.15492e-05
1.17299e-05
1.16562e-05
1.19222e-05
1.18611e-05
1.19861e-05
1.19348e-05
1.04033e-05
1.22105e-05
1.16538e-05
1.18092e-05
1.12218e-05
4.69929e-06
1.14651e-05
1.79049e-05
1.06009e-05
1.11907e-05
1.86379e-05
1.0979e-05
1.14615e-05
1.92212e-05
1.13365e-05
1.17065e-05
1.26766e-05
1.08954e-05
1.15752e-05
1.14968e-05
1.10898e-05
1.14018e-05
1.15114e-05
1.12484e-05
1.17594e-05
1.12219e-05
1.06421e-05
1.02484e-05
1.03275e-05
1.82399e-05
1.07791e-05
1.01048e-05
1.10499e-05
1.13916e-05
1.17949e-05
1.08663e-05
1.11275e-05
1.08531e-05
8.36691e-06
1.01773e-05
1.04032e-05
1.16297e-05
1.06805e-05
1.18049e-05
9.22184e-06
1.08942e-05
1.03615e-05
1.08879e-05
1.21214e-05
1.045e-05
5.46997e-06
1.06504e-05
9.90954e-06
1.0642e-05
1.05161e-05
1.09762e-05
1.10654e-05
1.005e-05
1.02359e-05
9.48745e-06
1.05309e-05
9.40358e-06
1.07344e-05
9.75616e-06
1.06517e-05
1.02515e-05
9.13147e-06
1.02528e-05
1.08967e-05
1.02916e-05
9.77704e-06
1.071e-05
1.02972e-05
1.05196e-05
1.0436e-05
1.09269e-05
1.03764e-05
1.0511e-05
9.94129e-06
1.05116e-05
1.12478e-05
1.04942e-05
1.02166e-05
1.12534e-05
1.00987e-05
9.83627e-06
1.07963e-05
1.03847e-05
1.03053e-05
1.06305e-05
1.00851e-05
9.89719e-06
1.138e-05
9.89055e-06
1.07909e-05
9.85047e-06
1.013e-05
1.15717e-05
1.01259e-05
1.01742e-05
1.00993e-05
1.07181e-05
1.01959e-05
1.03219e-05
9.71434e-06
9.70443e-06
9.49827e-06
1.02501e-05
1.0448e-05
1.00215e-05
1.01993e-05
1.06232e-05
9.48036e-06
9.43818e-06
1.04823e-05
9.74373e-06
9.5202e-06
9.05565e-06
9.65565e-06
9.41593e-06
1.0305e-05
9.05053e-06
1.00501e-05
9.90661e-06
1.06493e-05
9.78315e-06
9.97765e-06
1.02365e-05
9.24257e-06
9.33515e-06
9.60393e-06
9.63086e-06
9.45224e-06
9.30305e-06
9.2977e-06
1.09323e-05
9.27005e-06
9.15854e-06
9.46558e-06
9.29173e-06
9.84902e-06
8.94314e-06
8.50268e-06
9.05871e-06
9.71458e-06
8.92138e-06
8.98971e-06
9.01224e-06
9.51355e-06
9.91399e-06
9.31775e-06
9.49304e-06
8.31927e-06
9.32887e-06
9.14913e-06
8.81411e-06
8.87112e-06
9.65266e-06
9.13235e-06
2.5654e-06
2.64842e-06
9.21541e-06
8.52716e-06
8.91357e-06
9.34985e-06
8.72838e-06
9.64649e-06
9.0033e-06
8.76966e-06
8.01849e-06
8.83542e-06
9.15149e-06
8.66848e-06
8.61485e-06
9.50883e-06
9.24619e-06
9.24348e-06
8.59765e-06
9.1184e-06
7.35036e-06
8.85338e-06
7.83564e-06
8.96911e-06
8.4061e-06
8.4294e-06
9.3445e-06
8.15856e-06
1.01212e-05
7.4855e-06
8.73461e-06
8.40311e-06
8.78978e-06
8.4386e-06
8.84598e-06
8.67977e-06
8.54939e-06
7.66023e-06
7.70837e-06
8.196e-06
8.41316e-06
8.71006e-06
7.55785e-06
8.05219e-06
8.0482e-06
8.44616e-06
7.91045e-06
8.18131e-06
8.22619e-06
8.34792e-06
8.16448e-06
8.41418e-06
8.27245e-06
8.04035e-06
8.2058e-06
8.30396e-06
8.11547e-06
9.48046e-06
9.0205e-06
8.60552e-06
7.89642e-06
7.92294e-06
8.72144e-06
7.86805e-06
8.09346e-06
7.88931e-06
8.14417e-06
7.2097e-06
7.86762e-06
8.32246e-06
7.92433e-06
7.79404e-06
7.42817e-06
7.85801e-06
7.39649e-06
7.62301e-06
8.341e-06
7.25649e-06
8.057e-06
7.73585e-06
7.22643e-06
7.59111e-06
7.76986e-06
7.97452e-06
7.75359e-06
7.37279e-06
7.73791e-06
7.70056e-06
7.85866e-06
7.54469e-06
7.97535e-06
7.76312e-06
7.57924e-06
7.3269e-06
7.5634e-06
7.24614e-06
8.74541e-06
6.56143e-06
7.82807e-06
6.19103e-06
5.89738e-06
8.01106e-06
8.14658e-06
7.62445e-06
5.0604e-06
7.46424e-06
6.1729e-06
6.43188e-06
6.92131e-06
6.79231e-06
7.11453e-06
4.39869e-06
6.81777e-06
7.62553e-06
7.12395e-06
5.51174e-06
6.37858e-06
6.74589e-06
7.38139e-06
7.27593e-06
4.86187e-06
8.29979e-06
4.67292e-06
7.60639e-06
7.31855e-06
7.26538e-06
4.26388e-06
8.6708e-06
6.38403e-06
5.78316e-06
7.08345e-06
7.18819e-06
7.61652e-06
7.15168e-06
5.23873e-06
4.95596e-06
6.4783e-06
6.09732e-06
6.85635e-06
6.92724e-06
5.35121e-06
6.71744e-06
7.38202e-06
7.17687e-06
5.70547e-06
7.10391e-06
6.90022e-06
4.78627e-06
6.99175e-06
7.35746e-06
7.6844e-06
7.36954e-06
7.16343e-06
6.48174e-06
7.42086e-06
6.8341e-06
7.21278e-06
6.58385e-06
6.98023e-06
5.47626e-06
7.12093e-06
7.14031e-06
6.34128e-06
6.47431e-06
6.75806e-06
5.83116e-06
7.08117e-06
6.77612e-06
6.66752e-06
6.91268e-06
7.09092e-06
6.46704e-06
6.8391e-06
6.99725e-06
6.67008e-06
7.06841e-06
6.68584e-06
6.86441e-06
6.59428e-06
6.80462e-06
6.68819e-06
6.42776e-06
6.69971e-06
6.56484e-06
7.08414e-06
7.52395e-06
6.07172e-06
6.70691e-06
6.57609e-06
7.02955e-06
6.30116e-06
6.77426e-06
6.71046e-06
6.03512e-06
7.01742e-06
7.32435e-06
7.19688e-06
6.3081e-06
6.54631e-06
6.65381e-06
5.72756e-06
6.22246e-06
6.28916e-06
5.42872e-06
6.34334e-06
6.03635e-06
6.5441e-06
6.18851e-06
5.99982e-06
6.45658e-06
6.15121e-06
6.4921e-06
6.31981e-06
6.42738e-06
5.27427e-06
6.43728e-06
4.49899e-06
6.02047e-06
7.77263e-06
6.30307e-06
6.0063e-06
6.81874e-06
5.08551e-06
6.16251e-06
5.83541e-06
5.79751e-06
6.2632e-06
6.04694e-06
5.86219e-06
5.76929e-06
6.01818e-06
5.79072e-06
5.90518e-06
6.01183e-06
5.71793e-06
6.19965e-06
6.6627e-06
5.61851e-06
5.63506e-06
4.69641e-06
4.72651e-06
5.8459e-06
5.99369e-06
8.49781e-06
5.6691e-06
5.41535e-06
5.53105e-06
4.85762e-06
5.90872e-06
5.8772e-06
5.13346e-06
5.28098e-06
5.65192e-06
5.69266e-06
6.1415e-06
5.17778e-06
6.30558e-06
5.63352e-06
5.38161e-06
7.56606e-06
5.22649e-06
5.33545e-06
4.16161e-06
4.95155e-06
5.26901e-06
5.62558e-06
5.17009e-06
5.4371e-06
5.40357e-06
5.02083e-06
5.25053e-06
5.2019e-06
4.29612e-06
5.12237e-06
5.02392e-06
5.25074e-06
4.96618e-06
4.89249e-06
5.71123e-06
5.04999e-06
4.9847e-06
5.18351e-06
4.36665e-06
4.45665e-06
4.95365e-06
4.395e-06
4.76994e-06
4.76827e-06
4.64028e-06
4.89186e-06
5.29466e-06
4.82117e-06
4.97057e-06
4.97438e-06
5.03643e-06
4.77341e-06
5.40071e-06
4.58844e-06
4.97254e-06
4.87959e-06
4.84195e-06
5.10999e-06
4.67319e-06
4.75347e-06
4.87052e-06
4.63885e-06
4.53467e-06
4.64404e-06
4.48385e-06
4.60142e-06
4.51016e-06
4.41355e-06
4.17217e-06
3.67301e-06
4.51113e-06
4.55434e-06
5.02572e-06
4.31612e-06
4.28373e-06
4.38371e-06
4.73342e-06
4.3461e-06
4.59263e-06
4.15556e-06
4.61554e-06
4.36639e-06
4.37621e-06
4.15578e-06
3.70968e-06
4.47186e-06
4.31344e-06
4.41101e-06
3.7793e-06
4.21218e-06
4.09386e-06
3.93328e-06
4.32344e-06
3.93738e-06
4.26151e-06
4.3704e-06
5.0618e-06
3.30953e-06
4.12474e-06
4.01464e-06
4.2642e-06
3.71488e-06
3.62589e-06
3.17053e-06
3.77927e-06
3.89802e-06
4.26035e-06
3.74733e-06
5.6722e-06
3.92309e-06
4.04288e-06
4.00506e-06
3.53663e-06
3.75963e-06
4.05092e-06
3.52032e-06
3.7818e-06
3.21606e-06
3.91277e-06
3.80817e-06
3.30485e-06
3.46158e-06
2.61239e-06
3.38623e-06
3.50387e-06
3.11541e-06
3.5356e-06
3.62554e-06
3.91676e-06
3.4295e-06
3.20204e-06
3.47653e-06
3.63543e-06
3.55195e-06
3.53832e-06
4.17732e-06
3.29518e-06
3.04826e-06
4.17086e-06
3.42201e-06
3.11303e-06
3.45064e-06
3.41504e-06
3.25736e-06
2.78077e-06
3.36322e-06
3.31866e-06
3.18185e-06
1.96195e-06
3.07324e-06
2.14524e-06
2.9422e-06
3.2099e-06
2.48213e-06
3.00878e-06
3.61518e-06
3.38524e-06
3.32246e-06
3.09124e-06
3.23727e-06
3.7263e-06
3.03531e-06
3.10926e-06
1.29251e-05
8.33195e-06
2.90687e-06
2.71898e-06
7.08096e-06
3.1985e-06
2.7558e-06
2.80467e-06
8.51655e-06
1.16864e-05
2.8791e-06
1.41707e-05
1.15093e-05
2.13579e-06
2.69468e-06
1.34405e-05
2.80181e-06
2.33427e-06
2.44203e-06
2.81058e-06
2.31175e-06
1.17874e-05
2.60626e-06
2.66278e-06
2.76808e-06
8.80981e-06
2.47029e-06
1.01786e-05
4.02936e-06
9.43922e-06
1.14335e-05
1.72695e-06
1.43123e-05
3.72344e-06
2.4771e-06
1.34977e-05
1.09452e-05
1.9491e-06
9.62323e-06
5.93572e-06
2.27508e-06
1.77026e-06
2.72312e-06
3.04404e-06
2.51969e-06
1.48167e-05
1.22202e-05
3.57427e-06
1.13176e-05
9.58136e-06
1.33238e-06
1.8932e-06
1.31964e-05
2.64231e-06
9.37686e-06
2.99825e-06
9.18664e-06
1.75116e-06
2.7758e-06
7.40834e-06
9.0094e-06
2.68109e-06
7.23819e-06
2.25631e-06
3.72292e-06
9.76414e-06
1.72997e-06
1.96299e-06
2.93503e-06
1.20486e-06
7.31932e-06
2.97579e-06
1.19571e-05
1.49196e-05
1.56652e-06
1.35361e-06
8.79986e-06
1.34682e-05
3.18563e-06
2.55112e-06
2.13561e-06
1.25975e-05
1.44703e-05
1.01016e-05
1.33449e-05
1.26307e-05
1.16193e-05
3.56294e-06
2.10681e-06
3.54521e-06
1.93572e-06
1.3626e-05
1.29596e-05
1.291e-05
1.07498e-05
1.17841e-05
4.38715e-06
1.17906e-05
2.07796e-06
5.35609e-06
7.07373e-06
1.21032e-05
2.1952e-06
2.07333e-06
3.18658e-06
2.55928e-06
6.92514e-06
1.92396e-06
2.63849e-06
2.10708e-06
9.89272e-06
3.98285e-06
2.26111e-06
3.84597e-06
2.63123e-06
2.88565e-06
2.3791e-06
3.69888e-06
2.96171e-06
2.95427e-06
2.74532e-06
2.44905e-06
2.7577e-06
2.30472e-06
9.68301e-06
9.47069e-06
2.91452e-06
2.75134e-06
2.78943e-06
4.92243e-06
4.17081e-06
2.91362e-06
3.21156e-06
3.35891e-06
3.4094e-06
3.89219e-06
6.1762e-06
4.47007e-06
4.94372e-06
3.83515e-06
3.91064e-06
3.89839e-06
4.08167e-06
3.69384e-06
4.60276e-06
4.43146e-06
4.37392e-06
3.93725e-06
4.34784e-06
4.57833e-06
4.2e-06
5.45862e-06
4.17702e-06
4.72827e-06
5.77292e-06
4.77033e-06
6.02452e-06
5.89352e-06
4.8089e-06
4.71257e-06
5.44357e-06
5.6477e-06
5.12461e-06
5.75077e-06
4.54474e-06
5.76951e-06
5.49212e-06
5.79494e-06
5.62507e-06
6.90641e-06
7.90551e-06
6.59005e-06
6.52869e-06
7.02991e-06
7.50311e-06
7.86616e-06
8.64321e-06
6.97547e-06
7.55804e-06
6.89134e-06
7.70626e-06
7.46439e-06
7.06674e-06
7.80428e-06
8.00682e-06
8.21762e-06
8.19563e-06
7.71857e-06
7.72212e-06
8.44016e-06
8.68668e-06
7.51313e-06
8.67037e-06
7.61082e-06
7.28642e-06
8.91714e-06
8.62329e-06
7.51281e-06
8.32359e-06
8.33613e-06
8.38434e-06
7.7513e-06
7.99616e-06
7.97008e-06
7.77147e-06
9.09542e-06
8.64525e-06
9.64266e-06
8.89516e-06
7.17348e-06
7.22147e-06
8.77692e-06
9.42859e-06
8.76112e-06
9.70636e-06
8.86061e-06
8.57755e-06
9.71702e-06
9.91953e-06
9.84673e-06
9.57595e-06
8.93743e-06
9.50001e-06
9.84717e-06
9.26199e-06
1.0377e-05
9.425e-06
8.95455e-06
9.63673e-06
9.52995e-06
9.72206e-06
1.10647e-05
9.41933e-06
1.10273e-05
1.02674e-05
1.15502e-05
1.17126e-05
9.14781e-06
1.05767e-05
1.06351e-05
1.03538e-05
9.11575e-06
9.59845e-06
9.83338e-06
1.05203e-05
1.93974e-05
1.16146e-05
1.06209e-05
1.82042e-05
9.38868e-06
8.9144e-06
1.95389e-05
1.0925e-05
1.13659e-05
1.00502e-05
1.82688e-05
1.07373e-05
1.9322e-05
1.09205e-05
8.80937e-06
1.81317e-05
1.07191e-05
1.09631e-05
1.00281e-05
1.92709e-05
9.63287e-06
3.00227e-06
1.07941e-05
1.04665e-05
1.04311e-05
1.04873e-05
2.79984e-06
3.06205e-06
1.04487e-05
1.09382e-05
1.10509e-05
1.23673e-05
1.17e-05
1.09307e-05
3.20767e-06
1.2525e-05
1.82582e-05
1.16001e-05
1.1884e-05
1.1979e-05
1.20088e-05
1.82081e-05
1.79622e-05
3.06714e-06
1.12022e-05
1.86175e-05
1.10441e-05
1.32508e-05
1.11562e-05
1.30318e-05
1.87053e-05
1.81816e-05
1.74936e-05
1.82451e-05
2.50107e-06
2.90905e-06
1.88283e-05
1.29684e-05
1.82493e-05
1.22803e-05
1.26553e-05
1.20386e-05
2.76188e-06
2.24575e-06
1.81784e-05
1.82378e-05
1.29629e-05
1.82623e-05
1.82306e-05
2.286e-06
1.19394e-05
1.30857e-05
1.82466e-05
1.82471e-05
1.82e-05
1.41126e-05
1.85653e-05
1.31576e-05
1.824e-05
1.7919e-05
1.82451e-05
1.21743e-05
1.87141e-05
2.32734e-06
1.8667e-05
1.89277e-05
1.82543e-05
1.82595e-05
1.27948e-05
1.82305e-05
1.82236e-05
1.82941e-05
1.87351e-05
1.86273e-05
1.2972e-05
1.82203e-05
1.82572e-05
1.8592e-05
1.85707e-05
1.82105e-05
1.82637e-05
1.26048e-05
1.33612e-05
1.86047e-05
1.82719e-05
1.38361e-05
1.82352e-05
1.2912e-05
1.44391e-05
1.82154e-05
1.82719e-05
1.86113e-05
1.86146e-05
1.82273e-05
1.823e-05
1.32021e-05
3.20678e-06
1.25647e-05
1.80977e-05
1.86178e-05
1.8224e-05
1.82231e-05
1.8227e-05
1.83376e-05
1.63181e-06
1.82643e-05
8.58781e-06
1.83813e-05
1.85568e-05
1.31919e-05
1.8228e-05
1.86809e-05
1.24276e-05
1.85767e-05
1.82803e-05
1.82731e-05
1.77727e-05
1.82329e-05
1.82265e-05
1.74191e-05
1.86648e-05
1.82268e-05
1.82567e-05
1.82397e-05
1.83467e-05
1.8232e-05
1.83624e-05
1.82054e-05
1.82362e-05
1.82284e-05
2.31655e-06
1.82416e-05
1.87153e-05
1.82589e-05
1.82256e-05
1.81649e-05
1.86489e-05
1.82254e-05
1.82723e-05
1.85627e-05
1.83759e-05
1.81425e-05
1.82266e-05
2.32936e-06
1.86183e-05
1.82709e-05
1.82554e-05
2.52176e-06
2.38195e-06
1.82302e-05
1.82217e-05
1.31124e-05
1.86375e-05
1.85369e-05
1.82842e-05
1.81928e-05
1.82144e-05
1.82503e-05
1.35769e-05
1.82678e-05
1.87294e-05
1.4682e-05
1.86155e-05
1.81744e-05
1.82671e-05
1.8641e-05
1.84046e-05
1.8283e-05
1.81547e-05
1.82321e-05
1.82226e-05
1.82444e-05
1.82319e-05
1.8219e-05
1.81427e-05
3.6633e-06
1.82309e-05
1.82751e-05
1.82338e-05
1.41077e-05
1.8237e-05
1.82291e-05
1.82321e-05
1.84531e-05
1.82328e-05
1.82565e-05
1.85725e-05
1.82054e-05
1.83392e-05
1.83368e-05
1.8483e-05
1.82799e-05
1.82357e-05
1.82305e-05
1.82516e-05
1.82417e-05
1.82654e-05
1.37221e-05
1.82739e-05
1.82429e-05
1.82408e-05
1.82293e-05
1.85273e-05
1.82391e-05
1.38156e-05
1.82453e-05
1.82922e-05
1.82331e-05
1.823e-05
1.82569e-05
1.82409e-05
1.82531e-05
1.82484e-05
1.83992e-05
1.82785e-05
1.81921e-05
1.8522e-05
1.82573e-05
1.82376e-05
1.82455e-05
1.82575e-05
1.82353e-05
1.82412e-05
1.82345e-05
1.82562e-05
1.36069e-05
1.88211e-05
1.81231e-05
1.45485e-05
1.8225e-05
1.82701e-05
1.79736e-05
1.82566e-05
1.28737e-05
1.82374e-05
1.82446e-05
1.82462e-05
1.82507e-05
1.85867e-05
1.82636e-05
1.82395e-05
1.82589e-05
1.82783e-05
4.07651e-06
1.82731e-05
1.82424e-05
1.82406e-05
1.82607e-05
1.82323e-05
1.82358e-05
1.82298e-05
1.85406e-05
1.82501e-05
1.82596e-05
1.82883e-05
1.82492e-05
1.82549e-05
1.82537e-05
5.97012e-06
1.85101e-05
1.82568e-05
1.82579e-05
1.82491e-05
1.82369e-05
1.82164e-05
1.82377e-05
1.82532e-05
1.83018e-05
1.82435e-05
1.82459e-05
1.82609e-05
1.82481e-05
1.82997e-05
1.86566e-05
1.39257e-05
1.82663e-05
1.8216e-05
1.82464e-05
1.83945e-05
8.86013e-06
1.82946e-05
1.82344e-05
1.85523e-05
1.82514e-05
1.82514e-05
1.8236e-05
1.83514e-05
1.8298e-05
1.84295e-05
1.82324e-05
1.82523e-05
1.09788e-05
1.82517e-05
4.37434e-06
1.83072e-05
1.82187e-05
1.82422e-05
1.82161e-05
1.82351e-05
1.82394e-05
1.82356e-05
1.85804e-05
1.43713e-05
1.82372e-05
1.31059e-05
1.78292e-05
1.82465e-05
5.16778e-06
1.81946e-05
1.80596e-05
1.8103e-05
6.41337e-06
1.82462e-05
1.82488e-05
1.8226e-05
1.51091e-05
1.82417e-05
1.20756e-05
1.86321e-05
1.82595e-05
9.37779e-06
1.82448e-05
1.86303e-05
1.83887e-05
1.82888e-05
1.83203e-05
1.84859e-05
1.8314e-05
1.86163e-05
1.82501e-05
1.73926e-05
2.07761e-06
1.835e-05
1.82462e-05
1.82434e-05
1.81356e-05
1.82489e-05
1.8259e-05
1.8243e-05
1.87561e-05
1.77269e-05
1.85155e-05
1.82598e-05
1.82349e-05
1.04435e-06
1.82295e-05
1.8235e-05
1.82465e-05
1.86486e-05
1.8642e-05
1.82831e-05
1.82554e-05
1.81822e-05
1.82926e-05
1.81113e-05
1.82579e-05
1.12595e-05
1.87337e-05
1.82552e-05
1.87722e-05
1.95562e-06
1.8722e-05
1.82485e-05
1.82577e-05
5.47126e-06
1.82384e-05
1.86315e-05
1.82415e-05
1.82609e-05
1.76958e-05
1.83286e-05
1.7305e-05
1.83051e-05
1.82781e-05
1.82317e-05
1.26424e-05
1.81368e-05
1.82989e-05
1.8256e-05
1.8242e-05
1.84539e-05
1.8238e-05
1.82368e-05
2.31412e-06
1.86191e-05
1.6941e-05
1.81956e-05
1.82602e-05
1.27349e-05
1.839e-05
1.82621e-05
1.82455e-05
3.86412e-06
1.83392e-05
1.8307e-05
1.83798e-05
9.11244e-06
1.82303e-05
1.82576e-05
1.30707e-05
1.82481e-05
1.84397e-05
9.51048e-06
1.86327e-05
1.47475e-05
1.82653e-05
1.8269e-05
1.82973e-05
1.85194e-05
1.83389e-05
9.11754e-06
1.86169e-05
1.82349e-05
1.82498e-05
1.6589e-06
1.82739e-05
1.82523e-05
1.86096e-05
1.80993e-05
9.15059e-06
1.38229e-05
1.36014e-05
1.82686e-05
1.82215e-05
1.82385e-05
1.70747e-05
1.83067e-05
1.80052e-05
1.85235e-05
1.81824e-05
1.82077e-05
1.83663e-05
8.40836e-07
1.8495e-05
1.91512e-06
1.82549e-05
1.81707e-05
1.79862e-05
1.82626e-05
1.81956e-05
1.83066e-05
1.83434e-05
1.80719e-05
1.82433e-05
1.36865e-05
1.8359e-05
1.85567e-05
1.82845e-05
1.84318e-05
4.5464e-06
2.68045e-07
1.82294e-05
1.84607e-05
1.84154e-05
1.82436e-05
1.83058e-05
1.82287e-05
1.84843e-05
1.74661e-05
1.81939e-05
6.62523e-06
1.82637e-05
1.84523e-05
1.82456e-05
1.81368e-05
1.82741e-05
1.48449e-05
1.85071e-05
1.82208e-05
1.83233e-05
1.82283e-05
1.82209e-05
1.84161e-05
1.93555e-05
1.79471e-05
1.82519e-05
1.83808e-05
1.19683e-05
1.82638e-05
1.82129e-05
1.83679e-05
1.81918e-05
1.81966e-05
1.82363e-05
4.73765e-06
1.84554e-05
1.57969e-06
1.81553e-05
1.84062e-05
1.83406e-05
1.84541e-05
1.83088e-05
2.15687e-06
1.85076e-05
1.82468e-05
1.83528e-05
1.81475e-05
1.16581e-05
1.82452e-05
1.35665e-05
1.15837e-05
1.82246e-05
1.82091e-05
1.82733e-05
7.93042e-06
1.82716e-05
3.13964e-06
8.61689e-06
1.82665e-05
1.83172e-05
1.74597e-05
1.7534e-05
1.49201e-05
1.82338e-05
1.78547e-05
1.82319e-05
1.83882e-05
1.80851e-05
1.85382e-05
1.827e-05
1.826e-05
3.05531e-06
1.8212e-05
1.82343e-05
1.82454e-05
1.8181e-05
1.96404e-06
9.27997e-06
1.81847e-05
1.81945e-05
3.7812e-06
9.30588e-06
1.85387e-05
2.25413e-06
1.46173e-05
1.81223e-05
1.88325e-05
2.72982e-06
1.31136e-05
1.83452e-05
1.82373e-05
1.531e-05
1.82503e-05
2.10318e-06
1.83763e-05
1.33042e-05
1.85114e-05
1.78642e-05
2.20755e-06
1.82381e-05
1.77313e-05
1.84551e-05
1.82334e-05
1.8121e-05
1.83535e-05
1.82584e-05
9.22938e-06
4.59195e-06
8.89895e-06
1.18132e-05
4.45245e-06
1.81903e-05
1.82865e-05
2.29873e-06
4.04416e-06
1.79314e-05
1.84734e-05
1.31913e-06
1.1423e-05
1.82281e-05
1.83236e-05
1.79644e-05
1.82223e-05
4.73068e-06
1.81203e-05
1.82039e-05