/*--------------------------------*- C++ -*----------------------------------*\
  =========                 |
  \\      /  F ield         | OpenFOAM: The Open Source CFD Toolbox
   \\    /   O peration     | Website:  https://openfoam.org
    \\  /    A nd           | Version:  8
     \\/     M anipulation  |
\*---------------------------------------------------------------------------*/
FoamFile
{
    version     2.0;
    format      ascii;
    class       volScalarField;
    location    "1";
    object      p;
}
// * * * * * * * * * * * * * * * * * * * * * * * * * * * * * * * * * * * * * //

dimensions      [0 2 -2 0 0 0 0];

internalField   nonuniform List<scalar> 
4280
(
8.62092e-06
2.31802e-06
8.60155e-06
8.50748e-06
5.0087e-06
5.95834e-06
4.72494e-06
2.57544e-06
5.64702e-06
9.32465e-07
8.5992e-06
1.41643e-06
8.55831e-06
8.39271e-06
4.9034e-06
2.86503e-06
7.14643e-06
7.16272e-06
7.80739e-06
2.65295e-06
8.59038e-06
1.75425e-06
8.52042e-06
3.94411e-06
3.77604e-06
1.24662e-06
1.89552e-06
4.27967e-06
3.02141e-06
7.07968e-06
4.93205e-06
7.01723e-07
6.1052e-06
5.88356e-06
8.48156e-06
2.89381e-06
6.10669e-06
7.32462e-06
1.47288e-06
5.63336e-06
8.31458e-06
7.12896e-06
7.96398e-06
3.30767e-06
1.05649e-06
7.28145e-06
7.53788e-06
3.02623e-06
4.16772e-06
6.61505e-06
6.35718e-06
2.97687e-06
3.07043e-06
8.08579e-06
8.63492e-06
2.75439e-06
7.44733e-06
5.55971e-06
4.63425e-06
2.90469e-06
2.83075e-06
2.34829e-06
6.78734e-06
5.83073e-06
4.42549e-06
2.31484e-06
8.01271e-06
8.3239e-06
2.59342e-06
2.68482e-06
1.53517e-06
3.35193e-06
1.88206e-06
5.92968e-06
8.3728e-06
7.88247e-06
4.57515e-06
7.38488e-07
3.20246e-06
7.70615e-06
1.14359e-06
2.03498e-06
8.59694e-06
2.87209e-06
4.9179e-06
8.00635e-06
1.47227e-06
1.45641e-06
7.59865e-06
1.03626e-07
2.30486e-06
7.50956e-06
5.37183e-07
1.18073e-06
6.78227e-06
2.61649e-06
6.44108e-06
2.71341e-06
4.85915e-06
3.27635e-06
5.73485e-06
6.92371e-06
4.16379e-06
4.29508e-06
2.79458e-06
5.84217e-06
6.18287e-06
6.48439e-06
3.81792e-06
7.97604e-06
7.88893e-06
5.93446e-06
5.01995e-06
7.88094e-06
8.58031e-06
3.63021e-06
8.34359e-06
6.82624e-06
8.06278e-06
8.55993e-06
7.3494e-06
1.81662e-06
2.28489e-06
1.78014e-06
4.82747e-06
7.47628e-06
8.09e-06
1.49371e-06
8.68009e-06
6.45696e-06
5.06765e-06
2.67919e-06
2.12023e-06
4.61638e-06
6.94671e-06
2.19615e-08
4.41083e-06
2.91766e-06
2.79809e-06
2.68336e-06
5.70227e-06
8.61781e-07
8.26602e-06
5.94804e-06
5.23728e-06
5.74414e-06
8.48222e-06
1.14524e-06
8.20078e-06
5.46841e-06
7.56886e-06
8.43363e-06
1.92074e-06
8.21076e-06
7.03282e-06
2.5671e-06
7.95819e-06
3.29232e-06
5.28079e-06
3.9841e-06
5.68999e-06
6.54536e-06
8.73023e-06
7.41714e-06
7.01206e-06
7.72717e-06
2.68575e-06
4.04094e-06
3.09222e-06
1.17463e-06
4.26558e-06
1.723e-06
5.12773e-06
2.0076e-07
8.44708e-06
1.05043e-06
8.25526e-06
6.33885e-06
1.57537e-06
3.47404e-06
8.162e-06
8.13993e-06
7.97233e-06
6.71542e-06
6.49374e-06
6.57046e-06
7.06442e-06
8.73528e-06
3.29587e-06
6.0678e-07
8.01018e-06
6.95621e-06
3.09743e-06
3.18166e-06
1.43441e-06
6.82058e-06
4.00233e-06
5.25525e-06
3.52949e-06
6.59427e-06
8.12134e-06
7.87591e-06
3.44135e-06
1.27411e-06
3.8566e-06
6.63545e-06
4.74584e-06
1.99627e-06
3.13232e-06
4.36071e-06
4.4852e-06
8.24406e-06
4.81682e-06
8.1664e-06
2.01567e-06
6.92027e-06
8.48615e-06
4.76256e-06
1.89381e-06
7.94506e-06
2.74487e-06
8.60129e-06
7.39841e-06
7.88169e-06
6.97804e-06
8.00693e-06
8.51898e-06
4.69881e-06
6.17902e-06
6.6708e-06
8.36456e-06
2.98416e-06
8.88252e-06
7.28464e-06
3.32854e-06
8.56558e-06
7.1731e-06
4.97938e-06
7.66546e-06
1.65417e-06
2.46302e-06
6.36928e-06
6.02801e-06
7.65853e-06
2.64404e-06
1.90692e-06
1.62715e-06
2.4554e-06
2.05258e-06
1.92728e-06
6.95871e-06
4.04777e-06
6.38295e-06
1.34757e-06
1.05354e-06
2.76717e-06
8.45312e-06
3.68289e-06
8.50512e-06
7.26253e-06
7.07699e-06
8.44494e-06
7.9288e-06
1.29554e-06
8.69028e-06
4.15691e-06
5.69686e-06
5.84745e-06
5.97136e-06
7.95596e-06
1.01404e-07
4.0318e-06
2.90889e-06
4.03425e-06
4.36306e-06
3.02517e-06
8.30561e-06
2.57489e-06
4.6278e-06
8.62871e-06
4.90019e-06
6.68182e-06
2.51425e-06
8.46777e-06
3.91482e-06
8.62656e-06
6.77618e-06
2.60484e-06
3.67578e-06
1.62437e-06
1.20896e-06
8.39227e-07
5.71233e-07
6.83328e-06
5.69429e-06
7.35312e-06
7.49113e-07
7.10356e-06
2.13888e-06
5.01335e-06
7.18577e-06
8.89466e-06
6.36437e-06
8.22973e-06
1.61682e-06
2.1729e-06
8.12571e-06
8.51124e-06
6.61411e-06
1.16332e-06
3.21335e-06
8.65128e-06
2.94936e-06
7.18409e-06
7.51342e-06
1.1194e-06
8.57092e-06
7.85939e-06
2.07832e-06
1.79882e-06
7.79634e-06
7.77501e-06
5.91753e-08
4.03101e-06
1.06619e-06
7.75432e-06
8.37185e-07
7.8465e-06
3.13058e-06
3.9256e-06
8.35293e-06
1.52839e-06
6.32358e-06
7.77645e-06
6.55541e-06
9.80021e-07
2.78869e-06
5.39793e-06
6.71411e-06
3.13998e-06
8.4211e-06
2.87724e-06
7.21085e-06
4.51217e-06
1.27095e-06
3.24246e-06
7.52127e-06
8.0702e-06
1.38964e-06
4.40401e-06
7.47471e-06
7.80443e-06
7.03129e-06
1.30879e-06
8.54459e-06
6.96839e-06
5.76532e-06
7.77408e-06
2.38856e-06
4.50674e-06
8.40062e-06
7.5841e-06
7.20628e-06
3.44617e-06
4.27549e-06
6.17664e-06
5.19596e-06
6.88085e-06
4.28829e-06
6.07177e-06
1.31347e-06
4.94442e-06
2.51872e-06
8.17501e-06
5.35158e-06
6.8037e-06
4.62894e-06
8.58593e-06
8.68855e-07
6.69869e-06
8.66901e-06
7.43061e-06
8.59267e-06
7.67706e-06
9.07414e-07
6.50939e-06
7.73742e-06
1.03928e-06
7.01583e-06
8.2283e-06
7.29493e-06
1.16841e-06
7.54383e-06
8.32739e-06
6.19502e-06
5.00009e-06
1.40635e-06
8.4538e-06
8.25644e-06
5.22519e-06
7.55164e-06
2.64159e-06
1.52013e-06
1.52438e-06
5.21994e-06
7.3623e-06
5.65077e-06
4.06509e-06
1.84801e-06
6.80178e-06
2.76604e-06
8.60537e-06
6.62329e-06
4.15061e-06
3.41364e-06
9.67452e-07
8.5635e-06
3.54815e-06
7.18544e-06
7.98647e-06
1.01015e-06
7.63684e-06
4.5325e-06
7.61412e-06
4.27507e-06
6.64786e-06
4.89975e-06
6.77701e-06
6.27535e-06
6.55399e-06
3.05372e-06
6.00759e-06
7.74418e-06
7.1124e-06
8.54804e-06
8.5013e-06
8.85088e-06
2.74897e-06
8.19538e-06
8.52466e-06
5.64969e-06
3.52267e-06
7.7232e-06
2.36041e-07
3.4657e-06
6.90891e-06
8.29334e-06
7.3123e-06
8.1689e-06
7.21914e-06
8.40972e-06
8.14377e-06
6.75089e-06
7.38611e-06
7.47105e-07
7.58725e-06
7.0023e-06
7.23607e-06
8.04191e-06
8.43388e-06
7.3352e-06
9.45808e-06
7.7283e-06
8.60098e-06
2.0661e-06
7.06153e-06
7.28829e-06
7.04812e-06
7.39145e-06
9.4606e-07
1.23989e-06
8.19241e-06
8.20029e-06
9.28795e-07
5.85308e-07
8.17574e-06
3.31562e-06
6.81173e-06
2.99765e-06
6.04687e-06
1.04124e-05
8.08455e-06
5.38133e-06
3.33206e-06
2.41962e-06
1.12294e-06
5.89463e-06
8.52953e-06
7.66979e-06
8.24321e-06
5.52957e-06
7.89914e-06
8.15385e-06
1.32177e-06
8.57768e-06
7.59824e-06
6.8641e-06
6.87214e-06
2.87118e-06
6.30089e-06
6.4361e-06
8.65337e-06
7.03457e-06
8.07979e-06
7.32401e-06
7.30788e-06
4.29452e-06
4.05069e-06
3.77851e-06
8.52957e-06
4.63005e-06
8.10058e-06
8.15512e-06
8.57109e-06
6.40767e-06
2.74374e-06
7.64047e-06
8.68822e-06
1.22157e-06
7.36843e-06
6.62771e-06
7.22567e-06
9.23696e-07
7.50509e-06
8.20014e-06
8.03429e-06
6.95772e-06
3.88056e-06
8.62476e-06
7.85045e-06
3.7485e-06
7.13908e-06
7.52338e-06
7.22136e-06
8.36113e-06
6.06279e-06
1.32682e-06
5.99414e-06
7.01459e-06
6.61685e-06
1.59545e-06
8.87875e-06
8.46709e-06
8.60775e-06
7.10662e-06
9.47395e-06
1.67499e-06
1.2337e-06
8.51541e-06
6.69138e-06
7.28446e-06
6.78799e-06
6.25317e-06
8.51065e-06
7.8475e-06
8.66247e-06
7.33272e-06
2.2815e-06
7.47948e-06
5.19146e-06
8.82305e-06
6.87282e-06
1.64339e-06
5.20986e-06
8.35865e-06
1.58192e-06
6.7266e-06
1.15141e-06
7.40505e-06
3.97119e-06
6.49123e-06
8.0768e-06
8.48744e-06
8.33843e-06
1.47106e-06
8.91281e-07
8.35303e-06
1.36815e-06
7.01978e-06
6.96614e-06
1.39823e-06
1.04115e-06
7.03499e-06
6.65241e-06
7.38675e-06
6.8711e-06
8.63844e-06
6.92301e-06
7.75317e-06
8.38393e-06
5.96299e-06
5.09104e-06
7.96641e-06
8.42193e-06
7.79401e-06
1.76648e-06
6.08276e-06
6.45338e-06
7.67316e-06
6.04794e-06
8.66286e-06
8.59791e-06
8.73869e-06
2.45646e-06
7.68972e-06
8.68563e-06
7.14232e-06
5.94429e-06
4.91624e-06
7.79398e-06
8.3931e-06
6.57343e-06
1.02073e-06
3.37195e-06
1.14145e-06
4.40896e-06
8.72032e-06
7.14944e-06
3.34841e-06
7.15238e-06
8.61029e-06
8.75396e-06
2.56299e-06
6.20632e-06
1.24279e-06
8.60387e-06
5.59426e-06
7.66465e-06
8.9501e-06
8.56839e-06
1.19431e-06
8.20153e-07
5.32531e-06
6.94659e-06
8.60808e-06
5.71906e-06
9.14535e-06
5.50251e-06
6.61321e-06
7.02471e-06
4.15212e-06
8.61811e-06
6.37902e-06
9.63746e-06
1.08914e-06
8.12829e-06
6.36888e-06
8.42764e-06
9.85479e-06
5.11699e-06
6.23274e-06
7.22856e-06
1.28955e-06
8.66737e-06
5.29612e-06
8.49197e-06
1.28303e-06
8.24327e-06
7.80654e-06
6.60841e-06
8.60582e-06
5.63478e-06
5.91426e-07
7.11085e-06
6.77731e-06
5.74864e-06
6.28712e-06
6.25022e-06
7.0431e-06
5.14055e-06
8.15629e-06
8.28589e-06
8.53893e-07
5.4776e-06
6.25164e-06
6.26747e-06
6.87144e-06
8.15803e-06
7.09461e-06
8.63108e-06
1.07008e-06
8.59253e-06
8.26893e-06
7.31937e-06
7.52518e-06
7.52029e-06
6.92476e-06
7.16688e-06
8.46664e-06
5.81712e-06
6.66729e-06
6.15054e-06
6.34247e-06
7.03839e-06
7.0199e-06
5.10685e-06
5.18939e-06
9.88193e-06
6.01088e-06
4.91062e-06
6.95176e-06
6.46117e-06
1.41531e-06
7.26522e-06
5.84557e-06
4.85461e-06
8.45982e-06
6.34656e-06
6.14247e-06
8.14625e-06
6.04197e-06
3.03485e-06
8.61474e-06
6.65152e-06
6.96093e-06
5.79949e-06
7.26043e-06
7.0027e-06
7.71578e-06
6.12809e-06
8.60863e-06
7.03376e-06
6.21951e-06
8.54009e-06
5.95875e-06
9.48589e-06
9.0951e-06
8.60909e-06
6.08067e-06
8.60031e-06
5.90976e-06
1.55794e-06
1.26999e-06
1.41828e-06
6.79836e-06
8.61797e-06
6.82699e-06
4.75369e-06
8.60608e-06
6.34637e-06
8.59455e-06
5.01e-06
8.57325e-06
8.59922e-06
6.28369e-06
6.31928e-06
8.16707e-06
6.13963e-06
5.03699e-06
5.64053e-06
8.69498e-06
9.55675e-06
6.33865e-06
7.00658e-06
5.33842e-06
5.70812e-06
4.95253e-06
5.32735e-06
6.56074e-06
5.38386e-06
1.4058e-06
8.52183e-06
7.91373e-06
5.79033e-06
6.74487e-06
5.61508e-06
6.04747e-06
6.10906e-06
5.64359e-06
8.33645e-06
1.02228e-06
5.5469e-06
7.05286e-06
8.59754e-06
8.62856e-06
5.96223e-06
6.12013e-06
8.02706e-06
5.4552e-06
1.19023e-06
1.79891e-06
6.53652e-06
8.5786e-06
6.71294e-06
6.48502e-06
5.88098e-06
8.58299e-06
7.07827e-06
6.00083e-06
5.7972e-06
8.52778e-06
7.00135e-06
8.60076e-06
6.26164e-06
7.13228e-06
5.53641e-06
6.39505e-06
1.66148e-06
5.31556e-06
6.40064e-06
5.05401e-06
8.60012e-06
6.20656e-06
6.09869e-06
8.60651e-06
8.60096e-06
5.71439e-06
6.96366e-06
6.18202e-06
3.24697e-06
1.02874e-06
6.16865e-06
6.24e-06
6.63973e-08
5.842e-06
5.73025e-06
8.61068e-06
8.57933e-06
3.49593e-06
9.31026e-06
5.70392e-06
6.37148e-06
6.4988e-06
5.76855e-06
6.91557e-06
3.90902e-06
6.30618e-06
8.62729e-06
6.76367e-06
8.6114e-06
6.27294e-06
6.54769e-06
5.46348e-06
6.43899e-06
6.00193e-06
6.46282e-06
6.32341e-06
8.59911e-06
6.47206e-06
6.99986e-06
5.10308e-06
6.27319e-06
6.82423e-06
5.62023e-06
5.04474e-06
6.48225e-06
5.88578e-06
6.1484e-06
8.5961e-06
5.78911e-06
8.65078e-06
5.19533e-06
6.26935e-06
6.15349e-06
7.31199e-06
6.43443e-06
1.53045e-06
5.50568e-06
6.84056e-06
6.11271e-06
5.62649e-06
5.6368e-06
9.03382e-06
6.68588e-06
8.51414e-06
5.76634e-06
6.14067e-06
8.38965e-06
6.92296e-06
6.1987e-06
6.57991e-06
6.65023e-06
6.50261e-06
5.82204e-06
5.76847e-06
6.36874e-06
8.10768e-06
7.41524e-06
6.19996e-06
6.47744e-06
6.02352e-06
6.0369e-06
1.73693e-06
8.59786e-06
6.25433e-06
5.44051e-06
6.33585e-06
5.55701e-06
6.35967e-06
6.20857e-06
6.52668e-06
5.9621e-06
4.55743e-06
6.43459e-06
8.58777e-06
1.95598e-06
5.73092e-06
6.34581e-06
6.07429e-06
4.77071e-06
8.69808e-06
6.70821e-06
6.38173e-06
5.52897e-06
6.08139e-06
6.16842e-06
4.90332e-06
5.64833e-06
4.66589e-06
5.49724e-06
5.89732e-06
6.26003e-06
5.74848e-06
8.59932e-06
5.75547e-06
8.58482e-06
6.0909e-06
6.26866e-06
1.76193e-06
5.42331e-06
4.52615e-06
5.91628e-06
5.6571e-06
5.95427e-06
1.65164e-06
5.73484e-06
4.33566e-06
5.61502e-06
6.18133e-06
5.75599e-06
8.81235e-06
4.42277e-06
6.13597e-06
5.43718e-06
4.7148e-06
4.61076e-06
5.77271e-06
5.9059e-06
5.93624e-06
6.03385e-06
8.20101e-06
5.26522e-06
6.27375e-06
5.76794e-06
5.96119e-06
5.83114e-06
5.77838e-06
5.59483e-06
5.32666e-06
6.09726e-06
4.76022e-06
5.65464e-06
5.91878e-06
5.52861e-06
5.07866e-06
5.63552e-06
8.58258e-06
5.99873e-06
5.64122e-06
5.83183e-06
5.21776e-06
5.08928e-06
5.6522e-06
5.63866e-06
6.2138e-06
2.12097e-06
5.88347e-06
5.66628e-06
5.44868e-06
5.5571e-06
5.7153e-06
5.28782e-06
5.52886e-06
4.90818e-06
6.07496e-06
5.76863e-06
4.60357e-06
5.18998e-06
6.39208e-06
5.15079e-06
6.33109e-06
5.13656e-06
3.98719e-06
5.863e-06
5.56403e-06
5.43417e-06
6.08081e-06
5.77271e-06
5.50627e-06
5.1079e-06
3.2965e-06
4.92186e-06
5.59313e-06
5.29494e-06
5.65233e-06
5.10189e-06
5.52878e-06
5.03299e-06
5.51313e-06
7.98413e-06
4.85002e-06
4.928e-06
4.80806e-06
2.14001e-06
5.61542e-06
5.74345e-06
4.71861e-06
5.87944e-06
5.69216e-06
5.37187e-06
6.24216e-06
5.32273e-06
5.18722e-06
5.77103e-06
4.71446e-06
5.22041e-06
5.01e-06
5.42865e-06
4.75985e-06
5.91057e-06
5.14356e-06
8.59517e-06
5.43786e-06
5.07474e-06
5.21699e-06
4.34783e-06
4.91185e-06
5.55916e-06
5.51826e-06
5.31986e-06
4.88545e-06
5.46554e-06
4.98025e-06
4.2299e-06
5.25674e-06
5.23489e-06
4.56398e-06
4.68567e-06
5.52005e-06
5.78054e-06
5.2976e-06
4.95282e-06
5.53444e-06
5.82468e-06
5.40378e-06
4.58437e-06
5.78479e-06
5.33444e-06
5.51093e-06
5.92353e-06
4.77423e-06
5.69484e-06
5.28549e-06
5.4047e-06
5.43446e-06
4.32993e-06
4.79555e-06
3.88353e-06
3.85467e-06
4.02049e-06
5.03103e-06
5.0957e-06
5.2061e-06
2.27153e-06
5.09574e-06
4.13873e-06
4.13749e-06
5.20385e-06
4.47308e-06
6.07298e-06
3.96096e-06
5.68039e-06
5.29841e-06
5.31919e-06
5.12847e-06
4.88529e-06
4.67873e-06
4.63523e-06
4.83205e-06
4.9576e-06
5.57521e-06
4.50916e-06
4.42918e-06
4.37477e-06
4.99871e-06
4.55583e-06
5.11061e-06
4.3044e-06
5.08447e-06
4.2992e-06
5.01234e-06
5.08583e-06
5.5607e-06
4.34063e-06
5.18038e-06
4.44007e-06
4.6201e-06
4.98902e-06
4.26218e-06
4.07638e-06
4.26383e-06
4.48431e-06
5.08114e-06
5.07133e-06
4.25707e-06
5.20451e-06
5.10211e-06
4.49104e-06
4.80272e-06
5.40795e-06
4.61072e-06
5.1855e-06
5.2888e-06
6.03203e-06
5.41211e-06
5.28272e-06
4.82873e-06
5.19848e-06
4.4486e-06
4.555e-06
4.34421e-06
4.9381e-06
4.73244e-06
5.40419e-06
5.06105e-06
5.38538e-06
4.40141e-06
4.6984e-06
4.18701e-06
5.07946e-06
4.834e-06
4.62728e-06
5.00077e-06
4.46756e-06
4.40365e-06
2.36778e-06
4.88e-06
3.7626e-06
4.84878e-06
4.41042e-06
4.47218e-06
2.48349e-06
4.99872e-06
5.24133e-06
4.84033e-06
5.10207e-06
4.89636e-06
4.8446e-06
2.49386e-06
5.12872e-06
4.89784e-06
4.0153e-06
4.24719e-06
4.00657e-06
4.78829e-06
4.96709e-06
4.27525e-06
4.98105e-06
4.99597e-06
4.71776e-06
4.56247e-06
4.15536e-06
3.31167e-06
1.65618e-06
4.28839e-06
2.42795e-06
4.43182e-06
4.97666e-06
4.2453e-06
5.19447e-06
4.34055e-06
4.17384e-06
4.2053e-06
4.59109e-06
4.42014e-06
4.75321e-06
4.93982e-06
2.62996e-06
3.78286e-06
3.66152e-06
4.61228e-06
4.28605e-06
3.90489e-06
3.66328e-06
4.76357e-06
4.75697e-06
3.90575e-06
4.68448e-06
4.85699e-06
4.64912e-06
4.17309e-06
4.12401e-06
4.15506e-06
3.89401e-06
4.82198e-06
4.49651e-06
3.41402e-06
3.68978e-06
4.6373e-06
4.4701e-06
3.63171e-06
3.53869e-06
4.02747e-06
4.77141e-06
3.49365e-06
4.76132e-06
4.28195e-06
3.21185e-06
3.95935e-06
4.30031e-06
4.53435e-06
5.04807e-06
3.98941e-06
4.28368e-06
4.4795e-06
3.8907e-06
2.59081e-06
3.49481e-06
4.98662e-06
3.51958e-06
3.77491e-06
4.57925e-06
5.02033e-06
4.14735e-06
4.00019e-06
4.63449e-06
4.55291e-06
4.56426e-06
4.20664e-06
4.80688e-06
4.38525e-06
4.09348e-06
2.74403e-06
4.8114e-06
4.34233e-06
4.76233e-06
4.85616e-06
4.5187e-06
4.64775e-06
3.9717e-06
4.47557e-06
4.44456e-06
3.79196e-06
3.20573e-06
2.7455e-06
3.30598e-06
4.78858e-06
3.83681e-06
4.40054e-06
4.2486e-06
2.85169e-06
4.63486e-06
4.68654e-06
3.62143e-06
3.8082e-06
4.18211e-06
4.27078e-06
3.61528e-06
4.32549e-06
4.33999e-06
4.21853e-06
4.12802e-06
3.05765e-06
3.76956e-06
4.05966e-06
3.57701e-06
4.08561e-06
4.41368e-06
3.6358e-06
3.71735e-06
3.62573e-06
4.05205e-06
2.67397e-06
4.30125e-06
4.00832e-06
3.5143e-06
4.29743e-06
3.53508e-06
3.14062e-06
3.39491e-06
4.0825e-06
5.0296e-06
4.89942e-06
3.9628e-06
3.67727e-06
3.19746e-06
4.11415e-06
3.40144e-06
4.27127e-06
4.03432e-06
3.88537e-06
3.01622e-06
4.42507e-06
3.69183e-06
4.30166e-06
3.41642e-06
3.32407e-06
2.88429e-06
3.88727e-06
3.93416e-06
2.86023e-06
2.90201e-06
3.428e-06
4.02811e-06
4.23479e-06
3.45718e-06
4.17401e-06
3.73485e-06
3.18668e-06
4.21242e-06
4.19211e-06
4.22933e-06
2.78051e-06
2.86406e-06
3.56426e-06
3.78882e-06
3.49762e-06
4.77085e-06
3.40968e-06
3.95849e-06
3.40123e-06
3.53245e-06
2.79598e-06
3.83971e-06
4.148e-06
3.80136e-06
2.79206e-06
3.96041e-06
3.86101e-06
4.42341e-06
3.62365e-06
3.92528e-06
4.1809e-06
4.07897e-06
3.28652e-06
3.76277e-06
4.07288e-06
4.25718e-06
3.15631e-06
3.83262e-06
3.21815e-06
3.92672e-06
4.11743e-06
3.96574e-06
2.86442e-06
3.34313e-06
3.95081e-06
4.10611e-06
2.97646e-06
3.00113e-06
3.47195e-06
3.52678e-06
3.77346e-06
3.63543e-06
3.24539e-06
4.15786e-06
3.78338e-06
2.10619e-06
4.1822e-06
4.08533e-06
3.1492e-06
3.74506e-06
3.99247e-06
2.11435e-06
1.97451e-06
3.71527e-06
4.03865e-06
3.08271e-06
2.22636e-06
3.00898e-06
3.35907e-06
2.96943e-06
3.32826e-06
2.70733e-06
4.06286e-06
3.71649e-06
3.93748e-06
3.2027e-06
3.50669e-06
4.89101e-06
3.09864e-06
2.91546e-06
4.70378e-06
3.7685e-06
2.09873e-06
3.96357e-06
3.04141e-06
3.05412e-06
2.82269e-06
3.09962e-06
2.93568e-06
3.81692e-06
4.04581e-06
2.952e-06
3.43563e-06
3.22709e-06
3.08804e-06
3.82942e-06
3.64437e-06
3.60028e-06
4.00477e-06
3.59159e-06
2.88544e-06
3.11472e-06
3.92126e-06
3.59498e-06
2.88562e-06
3.99796e-06
3.8331e-06
2.95406e-06
2.48539e-06
3.37867e-06
2.97983e-06
2.91549e-06
3.5441e-06
2.95191e-06
3.14655e-06
3.7118e-06
3.89006e-06
3.3585e-06
3.06965e-06
2.81451e-06
2.97546e-06
3.77838e-06
3.21095e-06
5.00983e-06
2.65177e-06
3.8457e-06
3.70322e-06
3.48556e-06
2.21363e-06
3.01085e-06
2.70427e-06
3.25866e-06
3.48056e-06
3.19867e-06
3.0851e-06
2.68522e-06
3.80802e-06
2.86883e-06
3.31928e-06
2.93872e-06
3.54879e-06
3.16792e-06
2.76104e-06
3.86673e-06
2.53182e-06
2.63536e-06
3.6592e-06
3.6308e-06
3.00252e-06
3.14906e-06
3.52869e-06
3.42881e-06
3.41606e-06
2.3523e-06
4.27479e-06
3.31652e-06
2.49384e-06
3.02398e-06
3.03586e-06
3.1952e-06
2.66001e-06
3.42212e-06
2.66467e-06
3.57177e-06
3.66025e-06
2.46981e-06
3.08687e-06
3.38323e-06
3.29749e-06
2.80566e-06
2.36868e-06
2.9259e-06
2.51496e-06
3.18565e-06
3.50442e-06
2.23153e-06
2.24033e-06
3.10578e-06
3.53297e-06
3.37493e-06
2.5755e-06
3.31948e-06
1.73482e-06
3.30419e-06
2.80655e-06
2.89503e-06
2.87557e-06
3.41802e-06
3.3174e-06
2.34943e-06
2.45448e-06
4.13325e-06
2.32397e-06
3.40487e-06
2.9978e-06
3.23153e-06
2.33349e-06
3.18976e-06
3.07319e-06
2.19907e-06
2.78319e-06
2.21463e-06
2.07062e-06
2.39362e-06
3.18115e-06
2.96159e-06
3.28931e-06
3.34053e-06
2.20175e-06
2.2139e-06
1.65648e-06
2.34446e-06
2.86448e-06
2.44578e-06
2.55163e-06
2.08654e-06
2.77192e-06
3.05082e-06
2.77917e-06
3.06851e-06
3.25318e-06
3.10458e-06
2.84999e-06
2.87878e-06
2.79971e-06
3.15443e-06
1.94185e-06
2.7469e-06
3.4925e-06
2.72791e-06
2.80205e-06
2.66694e-06
3.1956e-06
2.93118e-06
2.209e-06
2.6775e-06
2.78004e-06
3.06413e-06
2.99859e-06
2.83691e-06
2.95588e-06
3.14203e-06
3.36968e-06
1.9659e-06
2.04876e-06
2.7423e-06
2.5435e-06
2.28059e-06
1.81931e-06
1.97782e-06
1.96871e-06
1.82087e-06
2.75963e-06
3.32075e-06
2.68039e-06
2.68685e-06
1.70539e-06
2.05112e-06
2.43202e-06
1.91585e-06
3.20612e-06
3.51239e-06
3.65964e-06
2.40982e-06
2.6654e-06
2.84171e-06
1.77188e-06
2.35788e-06
1.90517e-06
2.75491e-06
2.70412e-06
1.81346e-06
2.5149e-06
2.30758e-06
2.18148e-06
1.87889e-06
1.90018e-06
1.66947e-06
2.55279e-06
1.55779e-06
2.90853e-06
2.72608e-06
2.12946e-06
2.80877e-06
2.34978e-06
2.34945e-06
1.68634e-06
2.43087e-06
3.00573e-06
2.27108e-06
2.02087e-06
2.33097e-06
2.60585e-06
2.46136e-06
2.55645e-06
1.98781e-06
2.39188e-06
2.95335e-06
2.46617e-06
2.27187e-06
1.69082e-06
1.75802e-06
2.47665e-06
2.14426e-06
2.60868e-06
2.37903e-06
2.32727e-06
1.61077e-06
2.67311e-06
2.17627e-06
2.56597e-06
2.23885e-06
2.24834e-06
2.58076e-06
2.44749e-06
2.30428e-06
1.53592e-06
2.68069e-06
2.97813e-06
2.70939e-06
2.49175e-06
2.3992e-06
2.11811e-06
2.49769e-06
2.08702e-06
2.06792e-06
2.21682e-06
2.04341e-06
2.36712e-06
2.5654e-06
1.9685e-06
2.11045e-06
1.92871e-06
1.8525e-06
1.96321e-06
1.86765e-06
2.00088e-06
1.93273e-06
2.24074e-06
2.09559e-06
2.80824e-06
1.77519e-06
1.74018e-06
2.0518e-06
2.11601e-06
1.87784e-06
2.2358e-06
1.81942e-06
1.65375e-06
1.7593e-06
1.82156e-06
2.17589e-06
2.57448e-06
2.11718e-06
1.55328e-06
1.62536e-06
2.18166e-06
1.62619e-06
1.78996e-06
2.01696e-06
2.23249e-06
1.91323e-06
1.99513e-06
1.68357e-06
1.50288e-06
1.83529e-06
1.69595e-06
1.98861e-06
2.07092e-06
1.80336e-06
1.38801e-06
1.89313e-06
1.75186e-06
1.87451e-06
1.95534e-06
1.54113e-06
1.92151e-06
2.00781e-06
1.75259e-06
1.65251e-06
2.20443e-06
6.91223e-06
6.31866e-06
3.48613e-06
4.65343e-06
1.51501e-06
6.8087e-06
6.45266e-06
4.92645e-06
6.91084e-06
2.0963e-06
5.16277e-06
3.39349e-06
6.0535e-06
1.94199e-06
6.5782e-06
1.38901e-06
5.92099e-06
6.41104e-06
2.98903e-06
6.15503e-06
2.22834e-06
5.80538e-06
6.71328e-06
5.38803e-06
4.17388e-06
6.76664e-06
5.33186e-06
5.34161e-06
5.53685e-06
2.05496e-06
5.54699e-06
2.21587e-06
5.24598e-06
1.74589e-06
1.29305e-06
1.98672e-06
6.60023e-06
5.78775e-06
4.74201e-06
2.41294e-06
5.92469e-06
5.15985e-06
4.90979e-06
5.27387e-06
4.82558e-06
3.8381e-06
6.45359e-06
1.73974e-06
3.9232e-06
1.31817e-06
2.30485e-06
5.55635e-06
2.36075e-06
5.17352e-06
2.92398e-06
1.22489e-06
1.81046e-06
4.0228e-06
3.67909e-06
4.49578e-06
1.15447e-06
4.50878e-06
6.19297e-07
3.30028e-06
8.17149e-07
1.68158e-06
5.44225e-06
1.08051e-06
6.33487e-06
3.76993e-06
1.63028e-06
5.53972e-06
3.8599e-06
5.2619e-06
5.99502e-06
5.62002e-06
5.81846e-06
6.18637e-06
3.21316e-06
9.46904e-07
8.09404e-07
5.73703e-06
1.67723e-06
5.65285e-06
2.77822e-06
4.85877e-06
1.45765e-06
1.62122e-06
4.71017e-06
3.42992e-06
3.58102e-06
1.11446e-06
5.09918e-06
2.68213e-06
4.61668e-06
3.85738e-06
1.94403e-06
3.53762e-06
4.39651e-06
1.3987e-06
4.71637e-06
5.18357e-06
4.53269e-06
4.79627e-06
5.98731e-06
4.8246e-06
1.06008e-06
5.51461e-06
5.04181e-06
1.30064e-06
1.55033e-06
6.83737e-06
5.88945e-06
1.8602e-06
5.35903e-06
2.2126e-06
5.43492e-06
5.19785e-06
2.04998e-06
1.62602e-06
1.51573e-06
2.12206e-06
1.92748e-06
2.30238e-06
1.89868e-06
2.55127e-06
2.25986e-06
1.87064e-06
2.30517e-06
1.8988e-06
2.16692e-06
1.46877e-06
1.78154e-06
1.9103e-06
1.99858e-06
2.63485e-06
2.36443e-06
2.19935e-06
3.63856e-06
1.83668e-06
1.95573e-06
2.38476e-06
1.93024e-06
1.71232e-06
2.21208e-06
2.4662e-06
2.01997e-06
2.00037e-06
2.17181e-06
1.94984e-06
2.55279e-06
2.03217e-06
3.52199e-06
2.98879e-06
2.30414e-06
2.18824e-06
3.08289e-06
2.09288e-06
3.24585e-06
2.43327e-06
2.17977e-06
2.05275e-06
3.00388e-06
2.19545e-06
2.17615e-06
4.59713e-06
2.41116e-06
2.23829e-06
3.65706e-06
1.97763e-06
3.27223e-06
4.48801e-06
2.94102e-06
2.93917e-06
2.49336e-06
3.11977e-06
3.09404e-06
2.43729e-06
3.13169e-06
2.87199e-06
3.12239e-06
2.61154e-06
2.47939e-06
2.63442e-06
2.72922e-06
2.31537e-06
2.59722e-06
2.93769e-06
2.69638e-06
2.83561e-06
2.29058e-06
2.5091e-06
2.73544e-06
2.61872e-06
3.76361e-06
2.33966e-06
2.20006e-06
3.67879e-06
4.35079e-06
2.60705e-06
2.40288e-06
3.55525e-06
4.7327e-06
3.82617e-06
2.75234e-06
2.57752e-06
2.77379e-06
3.16865e-06
2.46766e-06
3.45692e-06
2.31144e-06
3.09403e-06
2.62814e-06
5.51344e-06
2.45494e-06
4.54803e-06
2.81468e-06
2.54507e-06
3.56664e-06
4.13898e-06
3.2331e-06
3.46766e-06
2.69572e-06
3.37937e-06
3.86856e-06
4.96211e-06
3.21239e-06
3.84972e-06
4.30272e-06
4.3212e-06
3.60305e-06
3.41601e-06
4.13824e-06
4.05396e-06
3.55764e-06
3.37054e-06
3.96981e-06
3.2194e-06
3.47274e-06
4.37291e-06
3.63743e-06
3.2941e-06
4.65945e-06
4.21303e-06
4.2796e-06
4.73809e-06
4.18658e-06
3.33986e-06
4.16712e-06
3.90272e-06
4.09918e-06
5.17305e-06
3.28338e-06
4.57021e-06
4.08672e-06
7.41749e-06
3.5022e-06
3.35917e-06
4.06572e-06
3.67805e-06
4.43068e-06
3.34252e-06
4.97821e-06
3.35397e-06
3.81436e-06
4.28577e-06
4.08251e-06
4.40376e-06
3.30084e-06
4.21048e-06
4.12775e-06
4.20468e-06
3.89086e-06
3.26142e-06
3.47052e-06
4.67551e-06
5.22993e-06
4.5449e-06
4.68562e-06
4.37027e-06
3.87037e-06
3.65656e-06
3.35331e-06
3.50481e-06
3.29922e-06
4.52298e-06
4.8857e-06
4.42012e-06
5.48692e-06
3.72529e-06
4.45694e-06
4.40954e-06
4.37089e-06
4.92155e-06
3.81153e-06
5.03625e-06
3.97839e-06
4.55471e-06
4.91926e-06
4.40097e-06
4.14539e-06
5.07205e-06
4.09253e-06
5.46652e-06
4.31544e-06
3.80484e-06
5.14996e-06
3.92655e-06
4.30769e-06
3.74578e-06
5.14132e-06
5.75497e-06
4.95436e-06
3.92539e-06
3.66821e-06
5.41213e-06
4.7623e-06
3.74928e-06
6.28572e-06
3.99246e-06
3.93811e-06
5.35319e-06
5.55161e-06
4.86846e-06
4.45224e-06
4.10963e-06
4.61031e-06
4.2052e-06
5.58549e-06
5.08591e-06
4.36549e-06
4.50529e-06
4.08251e-06
4.96149e-06
4.77221e-06
4.16194e-06
4.98556e-06
4.52007e-06
4.05948e-06
5.00214e-06
4.92039e-06
4.58985e-06
2.22177e-06
5.32716e-06
5.21439e-06
3.84818e-06
4.68999e-06
4.8528e-06
4.99093e-06
4.00552e-06
4.85819e-06
4.61817e-06
5.34621e-06
5.39115e-06
5.05602e-06
3.89237e-06
4.60923e-06
1.70648e-06
1.64907e-06
4.53641e-06
1.94083e-06
4.68411e-06
3.97361e-06
5.20967e-06
4.85315e-06
4.16676e-06
5.11193e-06
4.56128e-06
5.23907e-06
5.78927e-06
3.94583e-06
5.22277e-06
4.86362e-06
5.02213e-06
5.19898e-06
5.41247e-06
1.4393e-06
4.4738e-06
4.78484e-06
4.72328e-06
5.33592e-06
2.68844e-06
5.08593e-06
5.1484e-06
5.69553e-06
5.62645e-06
5.72481e-06
5.6239e-06
5.32107e-06
4.65139e-06
4.58784e-06
5.20109e-06
1.93647e-06
4.35232e-06
5.39994e-06
4.68224e-06
5.26668e-06
4.40814e-06
5.95305e-06
1.74357e-06
4.52227e-06
5.4327e-06
6.7375e-06
4.54477e-06
2.7996e-06
1.09101e-06
5.08771e-06
5.39822e-06
4.72252e-06
5.27977e-06
1.742e-06
1.27074e-06
1.69578e-06
1.68557e-06
1.1099e-06
5.91487e-06
5.07434e-06
5.40067e-06
4.82304e-06
5.46077e-06
1.50768e-06
1.84474e-06
5.16102e-06
5.87367e-06
1.42851e-06
6.15495e-06
2.49359e-06
5.73565e-06
8.6873e-06
5.12233e-06
5.9676e-06
5.55506e-06
5.91705e-06
3.44008e-06
8.85053e-06
5.86191e-06
5.43772e-06
1.58593e-06
2.495e-06
5.3498e-06
5.2599e-06
6.16869e-06
5.90259e-06
6.20502e-06
1.6448e-06
1.59982e-06
6.06612e-06
7.30684e-06
8.60909e-06
6.23256e-06
9.38136e-06
1.54527e-06
8.6224e-06
1.68694e-06
5.07215e-06
7.43609e-06
5.08905e-06
1.44494e-06
1.35733e-06
8.61025e-06
1.46408e-06
8.0649e-06
8.58272e-06
8.57585e-06
3.18679e-06
1.50123e-06
7.69044e-06
7.22334e-06
1.62412e-06
6.09887e-06
5.84271e-06
5.5851e-06
5.69211e-06
8.82715e-06
2.84481e-06
8.5887e-06
2.66826e-06
6.54047e-06
8.60917e-06
5.87184e-06
6.02818e-06
6.00372e-06
6.49656e-06
6.02487e-06
4.45239e-06
6.05385e-06
7.92454e-06
6.53956e-06
1.81979e-06
3.45048e-06
6.71448e-06
1.55513e-06
1.69693e-06
1.69541e-06
6.3694e-06
8.69849e-06
6.27436e-06
3.49171e-06
6.04251e-06
1.44948e-06
7.87674e-06
6.57673e-06
5.21698e-06
5.89611e-06
7.00138e-06
5.83582e-06
1.40838e-06
6.9307e-06
6.53444e-06
6.3689e-06
1.4183e-06
5.13086e-06
8.6e-06
6.00518e-06
2.73528e-06
8.58136e-06
7.98505e-06
2.23562e-06
8.62502e-06
6.40419e-06
1.45423e-06
6.29395e-06
5.77189e-06
8.57439e-06
8.60529e-06
8.61174e-06
1.4526e-06
5.93644e-06
7.48214e-06
5.84644e-06
8.62931e-06
2.55085e-06
6.50451e-06
1.56958e-06
3.21671e-06
4.56008e-06
2.76257e-06
8.57408e-06
2.53126e-06
8.58546e-06
3.21917e-06
4.39339e-06
4.66757e-07
6.52612e-06
6.13895e-06
8.54561e-06
8.50379e-06
8.03563e-06
1.5815e-06
5.9312e-06
7.56661e-06
3.30688e-06
1.80908e-06
8.62225e-06
1.5574e-06
8.63115e-06
6.87883e-06
8.58667e-06
8.51728e-06
1.59204e-06
8.59545e-06
1.44348e-06
1.25292e-06
8.61219e-06
8.58712e-06
4.37535e-06
8.62597e-06
6.60588e-06
1.19053e-06
6.30757e-06
8.64999e-06
6.37765e-06
8.64656e-06
5.23452e-06
1.31135e-06
5.40897e-06
1.54192e-06
8.64962e-06
7.34261e-06
4.80791e-06
1.53557e-06
1.04559e-06
8.1632e-06
5.27464e-06
4.30461e-06
7.02822e-06
8.60726e-06
6.30267e-06
1.45956e-06
8.64401e-06
6.36196e-06
1.13865e-06
6.47206e-06
1.90049e-06
8.53007e-06
7.50142e-06
5.70341e-06
8.6227e-06
2.61721e-06
6.04201e-06
2.63347e-06
6.08515e-06
6.43816e-06
8.59719e-06
4.54837e-06
8.57423e-06
8.62337e-06
6.20196e-06
2.89914e-06
8.60661e-06
5.32785e-06
6.63504e-06
8.29447e-06
8.7361e-06
1.41915e-06
6.40128e-06
3.93483e-06
1.30611e-06
8.66792e-06
8.66854e-07
3.46606e-06
7.91477e-06
8.58875e-06
6.382e-06
8.63359e-06
9.52679e-06
1.95414e-06
2.10385e-06
5.5855e-06
8.4573e-06
5.31747e-06
1.33231e-06
6.69736e-06
8.30178e-06
8.67434e-06
3.74397e-06
5.23483e-06
6.46788e-06
3.09988e-06
8.57148e-06
4.69344e-06
6.93123e-07
8.58015e-06
2.8855e-06
4.17804e-06
2.54461e-06
1.35068e-06
8.59981e-06
1.36544e-06
1.37228e-06
6.46491e-06
8.76764e-06
8.70508e-06
8.67261e-06
8.54064e-06
1.0449e-06
8.58376e-06
8.73157e-06
4.40834e-07
6.49381e-06
8.58902e-06
9.3996e-06
8.52041e-06
1.15747e-06
1.28428e-06
7.6947e-06
8.6008e-06
8.5135e-06
3.46195e-06
4.96481e-06
3.30887e-06
4.90558e-06
6.85162e-06
8.6332e-06
5.84017e-06
1.04048e-06
2.57001e-06
8.63261e-06
6.1775e-06
8.64364e-06
6.50206e-06
7.36212e-06
5.66748e-06
2.91293e-06
3.56367e-06
1.48607e-06
7.01407e-06
4.25563e-06
8.79267e-06
1.90188e-06
8.66179e-06
5.97354e-06
9.85072e-07
8.60434e-06
7.34599e-06
1.01833e-05
3.36005e-06
8.62203e-06
8.6193e-06
6.04601e-06
2.69988e-06
5.68109e-06
5.25518e-06
8.09215e-06
1.76154e-06
6.50697e-06
1.98061e-06
8.71591e-06
8.66076e-06
8.64023e-06
8.5543e-06
7.93523e-06
8.60696e-06
4.92704e-06
7.74393e-06
8.5538e-06
6.89978e-06
1.26164e-06
1.61425e-06
5.15413e-06
8.5593e-06
8.64053e-06
6.62783e-06
2.71575e-06
6.89938e-06
7.01331e-07
8.5664e-06
2.20217e-06
6.37791e-06
1.46713e-06
6.44394e-06
5.85029e-06
7.78533e-06
6.92761e-06
8.82955e-06
8.61051e-06
1.164e-06
6.61334e-06
7.12917e-06
7.50892e-06
2.53203e-06
1.24983e-06
1.39523e-06
6.07936e-06
7.49568e-06
8.27446e-07
7.64422e-07
3.00797e-06
8.15491e-06
1.41559e-06
1.09803e-06
1.50456e-06
8.59495e-06
8.54069e-06
8.50239e-06
9.10067e-06
4.66617e-06
6.47783e-06
2.93706e-06
4.58142e-06
6.25997e-06
8.56088e-06
3.52506e-06
8.50308e-06
8.53629e-06
1.79931e-06
5.23808e-06
1.67506e-06
6.24487e-06
6.09896e-06
1.28073e-06
5.32655e-06
6.82713e-06
7.96686e-06
6.49845e-06
8.82833e-06
5.657e-06
2.47458e-06
8.67117e-06
8.57582e-06
8.46137e-06
2.65125e-06
3.19911e-06