/*--------------------------------*- C++ -*----------------------------------*\
  =========                 |
  \\      /  F ield         | OpenFOAM: The Open Source CFD Toolbox
   \\    /   O peration     | Website:  https://openfoam.org
    \\  /    A nd           | Version:  8
     \\/     M anipulation  |
\*---------------------------------------------------------------------------*/
FoamFile
{
    version     2.0;
    format      ascii;
    class       volScalarField;
    location    "1";
    object      p;
}
// * * * * * * * * * * * * * * * * * * * * * * * * * * * * * * * * * * * * * //

dimensions      [0 2 -2 0 0 0 0];

internalField   nonuniform List<scalar> 
1642
(
0.000109167
9.53858e-05
9.44352e-05
9.71387e-05
0.000109654
0.00010923
0.000109364
0.000109218
0.00010915
0.000109064
9.85455e-05
0.00010842
0.000108634
0.000109979
0.000109391
0.000109133
0.000109047
0.000109085
0.000109157
0.000109147
0.000109497
0.000108571
0.000109907
0.000110851
0.000108994
0.000108844
0.00010939
0.000103916
2.88644e-06
2.68324e-06
2.6986e-06
0.000108436
0.000106738
0.000109128
0.000109186
0.000108928
0.00010852
0.000109176
0.000109113
0.000109934
0.000110001
0.000109165
0.000109162
8.72587e-05
0.000112512
0.000108914
0.000109347
0.00010937
0.000109266
0.000109284
0.00010921
0.000109279
0.000109172
9.77565e-05
9.94661e-05
0.00010911
0.000108503
0.000109129
0.000109106
0.000110168
0.000109181
0.000109078
0.000109154
0.000109521
0.000108986
0.000109147
0.000109186
0.000109142
0.000109177
0.000109155
0.000109214
0.000109279
0.000109266
0.000110495
0.000109155
0.000108988
9.06663e-07
8.61506e-07
9.6365e-07
0.000108993
0.000109146
0.000109159
0.000108018
0.000109353
0.000113405
0.000108859
0.000108844
0.000109134
0.000108944
0.000109158
0.00010879
0.000109057
0.000108954
0.000109256
0.000109093
0.000108877
0.000109252
0.000109205
0.000109323
0.000108967
0.000108916
0.000108512
0.000109261
4.19114e-05
4.3358e-05
4.71262e-05
4.64611e-05
5.70922e-05
3.72027e-05
3.25673e-05
5.73644e-05
3.66793e-05
5.70029e-05
1.66988e-05
1.67509e-05
1.31221e-05
1.30913e-05
8.84204e-06
7.51951e-05
8.2032e-05
1.28484e-05
7.82709e-05
7.61126e-05
0.000108867
0.000109688
0.000109322
0.000109805
0.000109151
0.000109229
0.000109152
0.000109369
0.000108975
0.000109157
0.000109074
0.000109152
0.000109154
0.000109118
0.000109071
0.000109362
0.000108723
0.000109266
0.000109162
0.000109144
0.000109129
0.000109242
0.000109147
0.00011028
0.000109239
0.000110067
0.000109197
0.00010918
0.000109331
0.000109156
0.00010926
0.000108405
0.000110442
0.000110358
0.000109151
0.00010916
0.00010926
0.000109176
0.000109162
0.00010914
0.00011013
0.000109165
0.000109367
0.000110054
0.000109153
0.000109648
0.000108841
0.000108929
0.000109122
0.000109144
0.000109148
0.000109348
0.000109128
0.000109572
0.000109044
0.000109223
0.000110665
0.000109282
0.000109167
0.000108437
0.000109162
0.000109152
0.000109142
0.000109538
0.000109172
0.000108803
0.00010948
0.000108987
0.000109234
0.000109156
0.000109204
0.000109245
0.00010873
0.000108738
0.000109167
0.000108996
0.000109265
0.000109161
0.00010915
0.00010867
0.00010902
0.000109492
0.000109148
0.000109222
4.44059e-05
3.85856e-05
3.55107e-05
3.65383e-05
3.89665e-05
4.53967e-05
4.65976e-05
3.99333e-05
5.9999e-05
4.46173e-05
6.12103e-05
3.67461e-05
4.3011e-05
5.04013e-05
3.52925e-05
5.28008e-05
2.53533e-05
4.79997e-05
3.59292e-05
3.72199e-05
7.32349e-05
4.01013e-05
3.42551e-05
6.22294e-05
4.56773e-05
5.14047e-05
3.77079e-05
4.90024e-05
4.18049e-05
4.32323e-05
5.38076e-05
6.60197e-05
3.18723e-05
7.44427e-05
4.70575e-05
6.36402e-05
7.68992e-05
3.29048e-05
1.36611e-05
6.46359e-05
7.55879e-05
7.62061e-05
1.36332e-05
1.35792e-05
5.51896e-05
7.88267e-05
7.46032e-05
1.96774e-05
1.84927e-05
2.26626e-05
7.00246e-05
4.98206e-05
1.97425e-05
7.09457e-05
6.63456e-05
6.7544e-05
1.36088e-05
7.48516e-05
6.51557e-05
3.4608e-05
5.19125e-05
7.83462e-05
6.03653e-05
6.70496e-05
1.84329e-05
2.26572e-05
6.56758e-05
7.08253e-05
8.4097e-05
6.26252e-05
5.67508e-05
5.63937e-05
5.77763e-05
3.40842e-05
2.0905e-05
5.74289e-05
8.10159e-05
1.12371e-05
2.46043e-05
4.8089e-05
7.35827e-05
2.45485e-05
5.3596e-05
2.45021e-05
3.19477e-05
6.03987e-05
3.04906e-05
2.08287e-05
5.05062e-05
1.11788e-05
8.5672e-05
8.96628e-05
5.43206e-05
1.87158e-05
1.47733e-05
1.72792e-05
2.79632e-05
1.48117e-05
4.8506e-05
5.19411e-06
3.19152e-05
1.59812e-05
1.72276e-05
1.60264e-05
3.30333e-05
7.06523e-05
8.00089e-05
6.01982e-05
2.44472e-05
2.92712e-05
1.8682e-05
3.72529e-05
8.79524e-06
8.62982e-05
3.89049e-05
7.57139e-06
4.77927e-05
7.85606e-05
8.48952e-05
4.68845e-05
7.33086e-05
5.21848e-06
5.64272e-05
6.34313e-05
6.81009e-05
1.4768e-05
2.21153e-05
4.68014e-05
2.32634e-05
1.73692e-05
1.47218e-05
4.12033e-05
3.32407e-05
3.06394e-05
4.16068e-05
8.01314e-05
4.39579e-05
2.20303e-05
8.13425e-05
8.32215e-05
8.20862e-05
3.16779e-05
2.20348e-05
5.8983e-05
7.33708e-05
1.73794e-05
8.69789e-05
2.33589e-05
7.59837e-06
2.21204e-05
7.60621e-06
8.47508e-05
2.94432e-05
4.25207e-05
3.91213e-05
3.7747e-05
4.03684e-05
3.91403e-05
3.06021e-05
4.38915e-05
5.86278e-05
4.25426e-05
8.43722e-05
5.53429e-06
5.62489e-05
5.5548e-05
2.69789e-05
3.79099e-05
7.96401e-05
5.50847e-05
6.94524e-05
6.94292e-05
6.15795e-05
5.75623e-05
6.01947e-05
2.53095e-05
4.03272e-05
2.81997e-05
2.68659e-05
4.32002e-05
1.24227e-05
4.56067e-05
4.0188e-05
5.98254e-05
7.99953e-05
4.3831e-05
1.24366e-05
7.36438e-05
8.76711e-06
8.4134e-05
3.28756e-05
4.94675e-05
2.80832e-05
7.4698e-05
5.24632e-05
6.17258e-05
1.343e-05
9.98394e-06
2.13364e-05
1.20827e-05
5.02047e-05
6.69975e-05
2.68634e-05
5.29274e-05
6.10255e-05
7.07414e-05
2.79536e-05
7.6011e-05
7.48934e-05
7.26125e-05
1.2376e-05
7.86564e-05
4.58509e-05
1.23975e-05
5.09653e-05
1.72359e-05
1.21373e-05
2.39974e-05
8.77665e-06
5.16009e-05
2.13519e-05
5.31127e-05
3.5895e-05
6.30435e-05
6.39811e-05
6.27885e-05
2.81747e-05
2.80545e-05
5.77461e-05
7.62045e-05
5.49275e-05
7.20324e-05
3.85412e-05
5.53522e-05
7.69159e-05
5.26075e-05
3.45705e-05
2.39709e-05
2.9387e-05
2.08379e-05
3.1816e-05
7.01109e-05
2.09148e-05
4.91988e-05
8.27769e-05
5.79506e-05
5.88768e-05
5.62257e-05
6.82534e-05
8.17654e-06
2.69769e-05
6.87357e-05
2.92848e-05
4.92994e-05
7.57213e-06
5.11431e-05
7.73307e-05
6.84236e-05
7.58628e-05
8.01685e-05
5.39958e-05
6.96289e-05
5.17102e-05
8.20664e-05
7.13933e-05
8.74476e-05
6.547e-05
8.14575e-05
7.20554e-05
6.67852e-05
1.604e-05
9.4475e-06
3.65035e-05
4.78023e-05
5.7594e-05
2.00129e-05
6.42719e-06
3.54679e-05
3.41337e-05
2.84561e-05
1.60358e-05
4.12199e-05
7.81923e-05
4.43507e-05
6.14152e-05
6.38398e-05
3.04704e-05
6.89031e-05
5.22788e-05
6.63357e-05
4.15398e-05
5.50198e-05
9.07253e-05
6.39947e-06
6.24374e-05
6.76316e-05
9.97876e-06
8.8241e-05
4.91115e-05
6.96188e-05
2.57633e-05
2.56558e-05
4.49154e-05
7.4318e-05
5.41394e-05
5.65633e-05
1.84614e-05
7.68165e-05
2.92665e-05
4.51484e-05
3.79239e-05
2.24883e-05
7.76459e-05
3.30881e-05
2.33209e-05
2.32335e-05
8.27146e-05
7.92089e-05
8.54361e-05
6.35724e-06
3.90523e-05
6.43584e-05
1.59872e-05
6.79969e-06
6.58432e-05
6.41586e-05
6.15109e-05
9.22085e-05
1.12523e-05
6.28347e-05
3.93868e-05
1.00151e-05
7.18652e-05
3.06645e-05
3.95902e-05
7.22671e-05
1.33929e-05
6.36511e-06
4.25083e-05
1.71832e-05
8.52828e-05
3.98792e-05
6.50602e-05
6.72265e-05
1.83995e-05
6.88676e-06
3.32687e-05
8.15236e-05
7.30784e-05
4.51721e-05
2.56769e-05
4.61183e-05
8.80357e-06
2.61035e-05
6.57285e-05
4.08045e-05
6.48266e-05
4.52341e-05
1.96207e-05
1.60579e-05
1.11867e-05
2.1278e-05
4.44601e-05
5.90654e-05
4.37046e-05
7.75192e-05
5.00293e-05
4.56714e-05
2.25778e-05
7.71617e-05
6.83128e-05
2.92986e-05
7.17903e-05
4.13064e-05
4.20195e-05
4.64719e-05
3.16992e-05
5.07008e-05
4.82524e-05
4.73283e-05
4.83278e-05
4.42024e-05
5.91537e-05
4.69963e-05
4.05945e-05
7.56585e-05
4.17025e-05
1.4796e-05
4.27472e-05
6.0548e-05
1.07692e-05
1.89261e-05
1.9689e-05
1.48372e-05
5.37695e-05
3.83692e-05
2.73129e-05
3.53397e-05
5.48875e-05
4.30297e-05
5.87919e-05
7.80511e-05
1.0018e-05
3.05995e-05
5.24557e-05
7.13756e-05
2.00471e-05
5.44129e-05
3.11124e-05
1.03977e-05
2.57897e-05
5.36689e-05
2.05153e-05
3.66965e-05
2.97861e-05
1.88604e-05
7.25766e-05
2.85234e-05
7.15403e-05
7.3771e-05
4.0376e-05
6.0989e-05
1.04023e-05
7.71629e-05
4.85331e-05
2.37952e-05
6.65683e-05
2.62231e-05
6.23086e-05
6.33756e-05
3.42996e-05
2.31619e-05
6.49458e-05
3.21493e-05
2.86581e-05
2.97297e-05
2.9868e-05
7.96087e-06
7.95963e-06
6.29568e-05
6.0935e-05
6.64232e-06
6.17512e-05
2.36931e-05
5.12331e-05
2.13577e-05
2.74413e-05
2.49002e-05
2.50101e-05
6.21492e-05
6.75839e-05
6.53717e-05
6.45733e-05
6.93669e-05
5.57461e-05
5.5714e-05
5.6088e-05
2.01434e-05
7.32284e-05
1.08075e-05
3.33554e-05
7.49206e-05
3.45543e-05
6.62676e-05
8.58964e-05
3.37524e-05
2.00722e-05
3.09359e-05
7.03572e-05
5.45622e-05
6.36335e-05
7.81339e-05
6.63864e-06
5.33507e-05
4.9737e-05
5.21479e-05
8.07452e-05
8.11922e-06
6.41656e-05
5.0939e-05
4.96478e-05
7.94469e-05
7.54917e-05
2.66325e-05
7.20016e-05
7.02196e-05
2.18361e-05
6.69598e-05
2.66544e-05
6.83032e-05
9.18536e-06
9.18609e-06
6.89056e-05
7.28541e-05
1.91944e-05
3.24365e-05
2.44886e-05
2.7133e-05
2.58146e-05
9.49144e-06
7.41759e-05
0.000109156
0.000109175
0.000109182
0.000109195
0.000108699
0.000109194
0.000109182
0.000109081
0.000109095
0.000109155
0.000109409
4.84394e-05
4.58208e-05
4.42995e-05
3.86062e-05
4.19592e-05
4.2167e-05
4.31011e-05
4.18553e-05
3.85192e-05
5.0604e-05
5.44319e-05
4.93656e-05
5.57561e-05
4.05192e-05
4.79167e-05
5.30402e-05
6.02952e-05
5.1829e-05
4.6715e-05
4.55099e-05
5.42514e-05
5.03202e-05
2.85966e-05
3.38756e-05
2.86386e-05
3.10659e-05
2.99761e-05
2.99244e-05
2.87836e-05
3.46801e-05
4.91268e-05
3.34835e-05
3.25709e-05
3.22766e-05
2.98486e-05
4.07367e-05
3.12602e-05
2.75623e-05
5.57849e-05
6.16349e-05
6.0313e-05
2.62416e-05
6.29606e-05
2.74383e-05
6.4286e-05
5.15247e-05
6.06184e-05
2.63417e-05
5.45798e-05
2.38936e-05
2.37992e-05
6.5603e-05
6.824e-05
2.59509e-05
2.51098e-05
2.50109e-05
7.08676e-05
6.69227e-05
2.72834e-05
2.26199e-05
6.15445e-05
2.27037e-05
6.52796e-05
6.27745e-05
2.06402e-05
6.11157e-05
6.95541e-05
6.40293e-05
7.21907e-05
2.33011e-05
2.14978e-05
2.14198e-05
7.35065e-05
6.65595e-05
2.01957e-05
2.02691e-05
1.93302e-05
6.59582e-05
7.03974e-05
7.61322e-05
6.79598e-05
6.35408e-05
2.19843e-05
6.23341e-05
6.92814e-05
7.07533e-05
6.47537e-05
7.30085e-05
7.94354e-05
7.4818e-05
2.46201e-05
7.40638e-05
7.19604e-05
1.05341e-05
8.07362e-05
1.05362e-05
8.17478e-06
9.36259e-06
9.3786e-06
7.49467e-05
8.19668e-06
7.04299e-06
8.55522e-05
7.01573e-06
8.69143e-05
7.92793e-05
0.000108935
0.000107827
0.000109167
0.000109173
0.00010912
0.000109148
0.000109158
0.000108916
5.30852e-05
4.81466e-05
5.9667e-05
3.47155e-05
3.57576e-05
3.10745e-05
5.93434e-05
3.50734e-05
5.97208e-05
1.52379e-05
1.52782e-05
7.01756e-05
1.17485e-05
1.13962e-05
1.52208e-05
1.17439e-05
8.44014e-05
7.13581e-06
7.66602e-05
7.76208e-05
7.80981e-05
0.00010915
5.31012e-05
4.76564e-05
5.97157e-05
3.01193e-05
3.37769e-05
3.4804e-05
5.93909e-05
3.40289e-05
5.97396e-05
1.42975e-05
1.43348e-05
7.02012e-05
1.1887e-05
8.44535e-05
1.18601e-05
1.41777e-05
7.73858e-05
1.15172e-05
7.81785e-05
7.87876e-05
0.000109152
0.000109118
0.000109162
0.000109151
0.000109147
0.000109225
0.000109316
0.000109817
0.000109172
0.000109152
0.000109303
0.000109321
0.000109333
0.000109143
0.000109197
0.000109219
0.000109153
0.000108935
0.000108912
0.000109156
0.000109323
0.000109156
0.000109119
0.000108392
0.000106675
0.000109085
0.000109507
0.000109047
0.000109251
0.000109002
0.000109137
0.000109478
0.000108951
0.000109525
0.000109319
0.000109072
0.000109128
0.000109238
0.000109144
0.000109151
0.000109144
0.000109156
0.000109071
0.000109118
0.000107482
0.00010922
0.000109153
0.000109096
0.000109167
0.000109361
0.000109161
0.000109167
0.00010916
0.000109356
0.00010914
0.000109173
0.000109284
0.000109091
0.0001089
0.000108395
0.000109153
0.000109191
0.000108834
0.000109052
0.00010908
0.000109154
7.69711e-05
8.32879e-05
6.89752e-05
5.85065e-05
5.81397e-05
5.83472e-05
5.17646e-05
6.19714e-06
0.000108948
0.000109
0.000109008
0.00010948
0.000109184
0.000109144
0.000109144
4.88138e-05
0.0001091
1.29459e-05
1.29638e-05
4.13824e-05
7.54515e-05
7.92046e-05
1.27221e-05
8.27498e-05
7.75813e-05
1.39027e-05
9.90697e-06
8.80591e-06
7.4417e-05
1.40776e-05
1.40449e-05
7.67872e-05
1.76537e-05
1.78658e-05
1.77087e-05
1.65721e-05
1.66198e-05
4.34287e-05
5.78533e-05
5.76317e-05
5.74882e-05
3.34989e-05
3.24225e-05
4.20075e-05
3.77261e-05
4.6542e-05
4.722e-05
3.65552e-05
4.27999e-05
3.71515e-05
4.69435e-05
3.81721e-05
3.71124e-05
0.000109176
0.000109035
0.00010953
0.000109148
0.000109424
0.000109013
0.000109145
0.000108039
0.000108545
3.6006e-05
3.53551e-05
3.49782e-05
5.17853e-05
3.13366e-05
5.83901e-05
1.54861e-05
4.88612e-05
5.81746e-05
1.01781e-05
1.55441e-05
5.85247e-05
7.6314e-05
7.50395e-06
1.54993e-05
6.89965e-05
8.32866e-05
7.72057e-05
1.0661e-05
1.06476e-05
7.8741e-05
0.00010918
0.000109121
0.000109116
0.000109062
0.000109343
0.000109686
0.000109221
5.05126e-05
3.62049e-05
6.78431e-05
1.67927e-05
0.00010981
0.000107368
0.000109898
0.00010923
0.000109209
0.000108869
0.000108965
0.00010922
0.000109163
0.00010928
0.00010964
0.000109159
0.000108519
0.000108688
0.000109268
0.000109164
0.000109884
0.000109153
0.000109163
0.000109159
0.000109174
0.000110361
0.000109161
0.000109161
0.000109567
0.000109269
0.000109154
0.000109158
0.00010904
0.000109155
0.000109265
0.000109072
0.000109143
0.000109165
0.000109018
0.000109311
0.000109376
5.58388e-06
5.25171e-06
5.21565e-06
1.80119e-05
6.71446e-05
3.72879e-05
4.97409e-05
8.04732e-05
7.37766e-05
7.74526e-05
1.79635e-05
1.79055e-05
3.80021e-05
5.61514e-05
5.33948e-05
3.84154e-05
4.52355e-05
4.32841e-05
3.98211e-05
0.000109162
0.000108468
0.000109559
0.000108998
0.00010894
0.00010931
0.000109255
0.000109164
0.00010903
0.000109154
0.000109741
0.000109001
0.000109201
0.000109117
0.000108792
0.000109251
0.000109145
0.000109207
0.000109426
8.41512e-05
7.66814e-05
1.12395e-05
8.05323e-05
1.53439e-05
7.80308e-05
7.53138e-06
1.16158e-05
1.16355e-05
1.53901e-05
1.535e-05
6.95396e-05
5.86947e-05
3.52044e-05
5.90768e-05
3.1185e-05
5.89526e-05
3.48497e-05
5.23567e-05
3.58825e-05
4.75942e-05
8.20187e-05
7.81325e-05
7.79257e-05
8.54646e-05
6.97415e-06
1.41417e-05
8.19909e-06
6.9571e-06
8.20148e-06
1.41741e-05
7.60251e-05
1.25702e-05
7.4185e-05
7.55936e-05
9.42809e-06
8.20409e-05
8.01274e-05
1.28341e-05
7.28928e-05
7.55761e-05
2.07697e-05
9.43341e-06
1.28597e-05
8.14095e-05
8.54274e-06
1.40296e-05
1.00982e-05
6.97612e-05
7.14077e-05
1.9445e-05
2.20825e-05
7.55428e-05
6.89647e-05
3.00228e-05
1.65397e-05
2.34028e-05
1.6491e-05
6.79168e-05
1.6441e-05
6.77811e-05
5.9909e-05
6.54135e-05
6.67231e-05
7.42388e-05
2.40281e-05
2.03182e-05
2.03898e-05
6.56517e-05
2.15085e-05
2.15888e-05
7.29206e-05
2.39303e-05
3.13542e-05
6.4219e-05
2.60691e-05
2.87015e-05
2.27167e-05
6.45295e-05
7.16097e-05
2.4741e-05
6.30309e-05
3.26915e-05
6.33558e-05
2.28042e-05
7.02868e-05
2.52474e-05
2.51351e-05
6.21667e-05
2.73877e-05
6.18237e-05
6.09697e-05
6.76492e-05
2.63321e-05
2.6461e-05
2.89026e-05
5.69543e-05
6.89763e-05
2.87578e-05
5.63053e-05
6.63351e-05
2.76787e-05
6.10678e-05
5.73091e-05
6.50116e-05
6.37069e-05
2.75446e-05
6.23768e-05
5.70396e-05
5.3712e-05
3.22878e-05
2.99618e-05
3.11703e-05
5.6326e-05
5.25193e-05
3.36394e-05
5.37208e-05
5.50352e-05
3.6399e-05
5.51129e-05
3.23845e-05
4.59215e-05
5.12989e-05
4.78557e-05
5.00804e-05
3.35958e-05
4.63906e-05
3.59347e-05
5.1007e-05
5.04486e-05
4.98055e-05
4.25948e-05
4.06391e-05
4.73971e-05
4.86022e-05
3.69643e-05
4.37898e-05
4.61954e-05
4.22384e-05
4.5004e-05
4.08102e-05
0.000108773
0.000110699
1.66952e-05
6.83302e-05
3.60704e-05
5.10434e-05
0.000109172
0.000109393
0.000109046
0.000109115
0.000108417
0.000108756
0.000109183
0.000109317
0.000109114
0.000109275
0.000109
0.000109088
0.000110447
0.000109951
0.000109394
0.000109082
0.000109167
4.0944e-05
4.45001e-05
4.45585e-05
7.19426e-05
5.54518e-05
7.81483e-05
7.31855e-05
5.27161e-05
3.95309e-05
1.89767e-05
1.90404e-05
3.9205e-05
7.88829e-05
0.000108626
0.000108954
0.000109415
0.000109146
0.000109144
0.000109222
0.000109134
0.000109051
9.50914e-05
0.000109174
0.000109454
0.000109069
0.000109129
0.000109165
0.000108613
0.000110083
0.000108888
0.000108597
1.81141e-05
6.66293e-05
3.74085e-05
4.91864e-05
7.88077e-05
7.441e-05
7.6849e-05
7.10863e-05
1.78424e-05
1.77864e-05
5.66609e-05
5.39221e-05
3.78948e-05
3.83221e-05
4.5745e-05
4.31833e-05
3.97307e-05
0.000109025
0.000110345
0.000109403
0.000107832
0.000109268
8.1806e-05
7.25958e-05
7.16226e-05
7.88094e-05
1.9121e-05
1.91874e-05
5.49218e-05
5.22046e-05
4.10387e-05
4.46101e-05
3.93243e-05
4.39995e-05
3.96173e-05
0.000108733
0.000109191
3.86889e-06
5.49736e-06
3.55927e-06
3.55682e-06
5.05983e-06
5.07093e-06
0.000109168
0.000109188
0.000108584
0.000109155
0.000109034
0.000109169
0.000108296
0.000109151
0.000109258
0.000109159
0.000109151
0.000109149
0.000108744
0.000109292
0.000111101
0.000109468
0.000109995
0.000108963
0.000109046
0.000109132
0.000109266
0.000109185
5.93847e-06
5.9112e-06
0.000109343
9.63213e-05
0.000109148
0.00010934
9.452e-05
0.000109162
0.000109157
5.77032e-06
5.74482e-06
0.000108057
0.000109168
0.000108425
0.000109128
0.000109555
0.000110063
0.000109014
0.000109151
0.000108896
0.000108111
0.000109163
0.00010915
0.000109151
0.000109123
6.30533e-06
0.000109309
0.000109221
0.000109258
0.000109206
0.000109375
0.000109302
0.000108341
0.000109124
0.000109349
0.000109128
0.000109314
0.000109173
0.000109413
0.000109047
0.000109134
0.00010925
0.000108821
0.000108932
0.000109536
0.000109241
4.42373e-06
4.20572e-06
4.27067e-06
0.000109173
0.000109565
8.90701e-05
0.000110286
0.000108979
0.000107236
0.000109344
0.000109055
0.000109201
0.000109152
0.00010908
0.000109144
8.65652e-05
0.000109196
0.000109091
0.000110108
0.000106891
0.000109187
0.000108091
0.000109187
0.000108136
0.000108761
0.000109194
0.000109004
0.000113459
0.000109162
0.000107421
0.000108978
0.00010918
0.000106839
0.000109241
8.5626e-05
0.000109249
0.000109143
0.000109069
0.00010796
0.000112362
0.00010882
0.000109148
0.000110121
0.000109101
0.000108941
0.000109457
0.000107098
0.000109531
8.96086e-05
0.000109231
0.000109243
0.000109085
0.000111351
0.00010905
0.000108957
9.53038e-05
0.000108745
7.68516e-05
0.000109291
9.27306e-05
0.000106433
0.000104306
0.000109027
0.000109159
0.000108614
0.000109279
0.000108677
0.000109078
3.33954e-06
3.28443e-06
3.52086e-06
0.000109211
0.000109151
0.000109075
0.000110774
0.000109127
8.82609e-05
0.000109079
0.000109171
0.000109161
0.000108697
0.000100881
8.97742e-05
0.000109856
0.000108573
0.000102766
0.000109194
0.000110138
0.000109258
0.000109162
0.000109131
0.000110463
0.000108723
0.000109231
0.000109158
0.000109074
0.000109164
0.000109504
0.000109394
0.000109178
0.000109176
0.000109076
8.73972e-05
0.000109143
0.00010898
0.000109093
0.000109222
0.000108516
0.000109102
0.000109158
0.000108044
0.000108361
0.000108472
0.00011006
0.000108988
0.000108929
0.000108508
0.00011001
0.000108953
0.000109232
0.000109749
0.000108504
0.000109212
5.09847e-06
9.67205e-05
0.000113041
0.000109262
0.00010892
0.00010919
0.000110725
0.000109451
0.000109448
0.00010931
4.73471e-06
4.7721e-06
0.000108041
0.000108968
0.00010963
0.000110459
0.000109279
0.00010087
0.000109164
0.000109158
5.28933e-06
0.000109213
0.000108752
5.03715e-06
5.07807e-06
0.000108389
0.000107282
0.000108128
0.000109159
9.19434e-05
0.000104314
2.87882e-06
2.92241e-06
3.02535e-06
0.000105961
0.000109155
0.000109439
9.80979e-05
0.000102114
9.82685e-05
9.67383e-05
0.000102483
0.00010829
0.000109243
8.3439e-05
0.000108435
0.000109092
0.00011278
0.000109176
0.000100288
0.000107427
8.86794e-05
0.000108037
0.000108526
3.87757e-06
3.83912e-06
0.000109088
0.000107986
0.000108274
7.98242e-05
8.06709e-05
0.000109084
4.09675e-06
0.000101061
0.000100097
0.000109164
0.000109135
0.000106777
0.000109005
9.82856e-05
0.000108599
0.000104854
8.47793e-05
8.48216e-05
2.34919e-06
2.42321e-06
2.42862e-06
0.000109169
0.000109208
9.34946e-05
9.69466e-05
9.49892e-05
9.36576e-05
6.69397e-05
6.78073e-05
0.000107327
8.80182e-07
8.40983e-07
8.46999e-07
-4.45063e-07
-5.1354e-07
-5.86787e-07
0.000102487
2.17891e-06
1.98938e-06
0.000107723
1.95687e-06
-7.6317e-07
1.27621e-06
-8.4868e-07
1.22968e-06
-9.34968e-07
1.25035e-06
)
;

boundaryField
{
    back
    {
        type            empty;
    }
    front
    {
        type            empty;
    }
    ingreso
    {
        type            zeroGradient;
    }
    salida
    {
        type            fixedValue;
        value           uniform 0;
    }
    defaultFaces
    {
        type            zeroGradient;
    }
}


// ************************************************************************* //
