/*--------------------------------*- C++ -*----------------------------------*\
  =========                 |
  \\      /  F ield         | OpenFOAM: The Open Source CFD Toolbox
   \\    /   O peration     | Website:  https://openfoam.org
    \\  /    A nd           | Version:  8
     \\/     M anipulation  |
\*---------------------------------------------------------------------------*/
FoamFile
{
    version     2.0;
    format      ascii;
    class       volScalarField;
    location    "1";
    object      p;
}
// * * * * * * * * * * * * * * * * * * * * * * * * * * * * * * * * * * * * * //

dimensions      [0 2 -2 0 0 0 0];

internalField   nonuniform List<scalar> 
3080
(
5.81946e-05
5.50416e-05
5.84061e-05
5.82247e-05
5.74898e-05
5.80113e-05
5.80482e-05
3.98596e-05
5.83491e-05
5.87357e-05
5.82378e-05
5.88028e-05
5.33687e-05
5.69549e-05
5.82442e-05
5.60978e-05
5.83711e-05
5.80978e-05
5.8231e-05
5.82314e-05
4.18199e-05
5.74422e-05
5.7489e-05
3.73378e-05
5.74165e-05
5.57867e-05
5.78814e-05
5.6661e-05
5.8215e-05
5.65358e-05
5.03155e-05
4.31943e-05
5.49703e-05
4.15441e-05
4.6593e-05
5.81297e-05
5.78391e-05
4.85525e-05
5.81712e-05
5.6138e-05
5.81905e-05
5.81789e-05
5.89319e-05
5.82116e-05
5.66108e-05
5.82504e-05
5.82072e-05
5.82027e-05
5.81544e-05
5.5623e-05
5.8202e-05
4.84282e-05
5.75659e-05
5.82533e-05
5.68528e-05
5.8338e-05
5.83247e-05
5.91674e-06
4.70168e-05
5.82982e-05
7.03313e-06
7.15885e-06
8.17858e-06
5.84018e-05
8.486e-06
8.6507e-06
5.8054e-05
5.80664e-05
5.08545e-06
1.04722e-05
5.79988e-05
7.26339e-06
4.42456e-05
1.27696e-05
5.81767e-05
4.32208e-05
5.81594e-05
9.53731e-06
5.81036e-05
5.81715e-05
5.6373e-05
5.81262e-05
1.50642e-05
5.04144e-05
5.79924e-05
1.18266e-05
5.80446e-05
1.83642e-05
1.88363e-05
5.8142e-05
1.41218e-05
1.7363e-05
3.57103e-06
1.69483e-05
1.73793e-05
5.83868e-05
1.64188e-05
2.06527e-05
2.11927e-05
5.81528e-05
5.80577e-05
6.24423e-06
6.33921e-06
4.28018e-05
5.7893e-05
5.68267e-05
5.81288e-05
1.87174e-05
1.9236e-05
1.97371e-05
2.29435e-05
2.35517e-05
5.81043e-05
9.99021e-06
1.02032e-05
4.06998e-05
5.79066e-05
4.68575e-06
4.71996e-06
2.15261e-05
2.20957e-05
5.84556e-05
5.83871e-05
1.15087e-05
1.1769e-05
5.82534e-05
5.81309e-05
2.67551e-05
2.74778e-05
5.6378e-05
1.30339e-05
1.33409e-05
5.81565e-05
1.45584e-05
1.49121e-05
5.82076e-05
5.81649e-05
5.81895e-05
2.90417e-05
2.98329e-05
2.71337e-05
2.57851e-05
5.81699e-05
1.60829e-05
1.64851e-05
5.57381e-05
5.81627e-05
2.53453e-05
2.60294e-05
7.79724e-06
7.94591e-06
5.81937e-05
5.82836e-05
5.78975e-05
5.8171e-05
3.13419e-05
3.21924e-05
4.54055e-05
6.65618e-06
5.81145e-05
2.94296e-05
3.36771e-05
3.46715e-05
5.6617e-05
4.37012e-06
2.80817e-05
5.81987e-05
5.81984e-05
8.94089e-06
2.76355e-05
2.83889e-05
5.81817e-05
3.73082e-05
3.17477e-05
4.56847e-05
1.12342e-05
3.70155e-05
3.60142e-05
5.81976e-05
9.54421e-07
9.13997e-07
8.23958e-07
2.02469e-05
3.03712e-05
4.31639e-05
5.81678e-05
3.40751e-05
1.35314e-05
2.99139e-05
3.07441e-05
5.80279e-05
2.17795e-05
5.77428e-05
4.14424e-05
5.81423e-05
2.44666e-05
2.51212e-05
5.80707e-05
3.43951e-05
3.54556e-05
5.46404e-06
5.55003e-06
1.58291e-05
3.92933e-05
2.33133e-05
3.5349e-05
3.61273e-05
3.26529e-05
3.64917e-05
5.81437e-05
1.77127e-05
1.81673e-05
5.79154e-05
5.81752e-05
5.58176e-05
5.81669e-05
2.48407e-05
3.7785e-05
3.68652e-05
1.81285e-05
9.32549e-06
9.52101e-06
3.8452e-05
2.00059e-05
2.05296e-05
5.7886e-05
5.79732e-05
5.79087e-05
1.08504e-05
1.10934e-05
4.14156e-05
5.77636e-05
4.00029e-05
3.49131e-05
5.79464e-05
4.07056e-05
3.97433e-05
1.23772e-05
1.26676e-05
5.8213e-05
2.22936e-05
2.28858e-05
5.79805e-05
3.67902e-05
2.3848e-06
2.46121e-06
2.44209e-06
3.81361e-05
5.86338e-05
1.39006e-05
1.42377e-05
5.28163e-05
3.62491e-05
3.83764e-06
3.88682e-06
5.47923e-05
3.54764e-05
1.5423e-05
1.5807e-05
4.05415e-05
5.82026e-05
3.28979e-05
3.37659e-05
3.4935e-05
3.39726e-05
3.576e-05
3.47405e-05
5.81472e-05
3.33707e-05
3.24653e-05
5.82562e-05
2.61109e-05
2.68192e-05
2.65494e-05
3.43234e-05
5.7878e-05
3.17967e-05
3.0944e-05
5.82014e-05
3.02272e-05
2.94189e-05
3.89026e-05
2.86574e-05
2.78953e-05
4.08812e-05
3.41716e-05
3.32407e-05
3.41031e-05
1.96609e-05
2.62778e-05
2.55819e-05
3.33421e-05
2.83993e-05
2.91771e-05
2.88412e-05
2.47201e-05
2.40715e-05
4.46871e-05
1.43992e-06
1.63909e-06
1.6071e-06
3.25779e-05
3.10536e-05
2.31467e-05
2.25438e-05
2.11906e-05
2.15746e-05
2.10173e-05
3.26046e-05
3.17361e-05
2.8768e-05
5.82374e-05
1.99942e-05
1.94826e-05
3.81195e-05
2.64719e-05
4.09688e-05
3.18168e-05
1.76166e-05
1.7173e-05
3.02928e-05
3.06762e-05
3.15335e-05
5.80885e-05
3.11287e-05
2.27183e-05
2.41663e-05
1.52756e-05
1.4901e-05
2.78993e-05
2.7163e-05
3.10377e-05
3.02099e-05
1.37297e-05
1.34069e-05
2.18669e-05
1.21326e-05
1.18551e-05
2.03352e-05
2.42463e-05
2.80015e-05
2.38207e-05
2.44584e-05
9.76134e-06
9.55263e-06
5.82492e-05
1.80334e-05
3.34065e-05
8.19779e-06
8.0386e-06
4.86539e-05
2.94677e-05
2.86854e-05
2.95323e-05
5.81932e-05
1.57344e-05
5.80839e-05
5.76967e-06
5.85973e-06
5.52446e-05
5.82216e-05
2.57027e-05
1.34381e-05
1.1139e-05
3.56603e-05
8.82901e-06
5.75724e-05
6.48978e-06
2.71119e-05
2.6399e-05
5.81922e-05
2.72383e-05
5.49627e-05
4.34202e-05
2.26293e-05
5.78784e-05
4.22306e-05
2.55251e-05
2.48552e-05
5.83114e-05
5.6101e-05
5.81562e-05
5.82285e-05
1.84164e-05
1.79521e-05
2.49376e-05
4.35726e-06
1.88006e-05
2.39605e-05
2.33373e-05
5.81569e-05
3.21763e-05
3.3102e-05
4.21767e-05
1.60705e-05
1.56739e-05
5.80811e-05
2.33938e-05
3.65547e-05
4.27885e-05
5.80759e-05
1.65025e-05
3.51328e-05
5.81407e-05
2.23875e-05
2.18097e-05
5.65745e-05
1.42047e-05
2.11034e-05
2.08143e-05
2.02825e-05
5.8077e-05
4.03687e-05
1.05569e-05
1.03275e-05
5.65999e-05
1.19072e-05
1.95657e-05
1.92304e-05
1.87449e-05
5.81299e-05
5.79673e-05
9.60386e-06
2.27206e-06
2.22334e-06
2.02872e-06
5.81272e-05
3.89023e-06
3.8756e-06
5.81905e-05
1.72673e-05
1.6873e-05
1.64559e-05
6.62763e-06
6.51552e-06
5.82053e-05
5.68839e-05
5.8447e-05
5.7809e-05
5.73633e-05
5.54024e-06
5.4757e-06
5.8238e-05
7.27779e-06
9.23293e-06
9.42221e-06
3.02929e-06
3.04967e-06
2.77003e-06
5.8129e-05
1.07473e-05
1.09842e-05
1.227e-05
1.25537e-05
1.37957e-05
1.41262e-05
1.53198e-05
1.56972e-05
1.49691e-05
5.81238e-05
1.45239e-05
1.41777e-05
3.75716e-06
3.78543e-06
2.26441e-06
2.47792e-06
2.47957e-06
5.20696e-05
2.37017e-05
2.43333e-05
5.55542e-05
5.81109e-05
5.81999e-05
1.2954e-05
1.26537e-05
5.815e-05
5.48019e-05
5.35036e-05
5.82498e-05
3.21137e-05
3.29763e-05
1.26729e-05
5.81757e-05
5.81957e-05
5.81703e-05
4.01911e-06
4.04734e-06
1.94812e-05
2.10132e-05
5.78117e-05
1.13704e-05
1.11195e-05
2.25454e-05
4.2463e-05
2.40776e-05
5.81761e-05
5.33406e-05
5.81541e-05
5.81934e-05
5.81907e-05
5.5944e-05
5.81611e-05
5.79928e-05
1.03729e-05
3.38868e-06
5.82146e-05
5.75262e-05
5.53901e-05
5.81483e-05
3.85958e-05
5.8154e-05
9.00103e-06
8.81849e-06
5.83249e-05
5.05611e-05
5.79679e-05
4.90111e-06
5.81163e-05
5.81178e-05
5.80855e-05
4.2768e-05
5.8203e-05
7.73659e-06
7.87653e-06
8.05591e-06
5.70322e-05
5.8135e-05
7.4254e-06
7.2903e-06
5.81252e-05
5.82589e-05
5.81165e-05
8.7725e-06
5.78783e-05
6.5195e-06
5.74355e-05
5.82084e-05
1.10574e-05
1.75998e-05
1.80485e-05
5.73584e-05
5.81924e-05
2.04044e-05
1.98875e-05
1.33512e-05
2.27614e-05
2.21756e-05
5.80877e-05
2.66878e-05
2.59875e-05
2.90444e-05
2.82754e-05
3.14009e-05
3.05698e-05
1.56482e-05
5.81374e-05
4.22936e-05
5.81523e-05
5.7398e-05
1.79448e-05
5.82188e-05
5.81861e-05
4.08354e-06
3.63059e-05
4.78067e-06
4.83503e-06
5.78491e-05
5.82762e-05
5.53138e-05
5.8144e-05
2.63648e-05
2.86568e-05
3.09653e-05
5.82105e-05
3.56736e-05
3.32898e-05
5.64248e-05
4.25099e-05
5.73043e-05
5.81472e-05
5.82543e-05
5.67399e-05
5.81354e-05
5.80778e-05
5.818e-05
5.82726e-05
5.82066e-05
5.26451e-05
5.81009e-05
4.43857e-05
5.81378e-05
5.81775e-05
5.71525e-05
5.68508e-05
5.69097e-05
5.81473e-05
5.56805e-05
5.79089e-05
5.83902e-05
5.79074e-05
5.83104e-05
5.81397e-05
5.82573e-05
4.13037e-05
5.81391e-05
5.81135e-05
5.54017e-05
5.80367e-05
5.81874e-05
3.76149e-05
5.83042e-05
5.81466e-05
5.814e-05
5.81551e-05
5.8088e-05
4.83355e-06
5.81508e-05
5.70116e-06
5.81723e-05
5.65131e-05
4.34445e-05
3.73308e-05
5.73531e-05
5.81398e-05
5.83218e-05
5.81859e-05
5.81485e-05
5.81689e-05
5.81499e-05
5.81811e-05
5.8193e-05
5.8149e-05
5.78666e-05
5.81552e-05
5.81229e-05
5.80882e-05
5.78871e-05
3.95771e-05
5.83004e-05
5.81386e-05
5.14378e-05
5.83686e-05
5.8094e-05
5.5947e-05
5.73553e-05
5.13627e-05
5.82242e-05
5.8152e-05
5.7366e-05
5.81718e-05
5.8335e-05
5.79638e-05
5.7284e-05
5.81676e-05
5.72079e-05
5.83042e-05
5.78497e-05
5.82391e-05
5.82074e-05
5.8083e-05
5.59582e-06
5.5172e-06
5.80333e-05
5.70613e-05
5.83022e-05
5.69804e-05
5.81744e-05
5.81624e-05
5.81469e-05
5.84489e-05
3.89166e-05
5.81751e-05
5.83251e-05
5.8168e-05
5.82092e-05
5.79592e-05
5.82137e-05
5.82138e-05
5.81091e-05
5.81548e-05
5.81457e-05
5.83404e-05
5.8259e-05
5.82098e-05
5.81534e-05
5.82348e-05
5.82057e-05
5.82982e-05
5.80556e-05
5.80909e-05
5.81553e-05
5.80965e-05
5.811e-05
5.80592e-05
5.8308e-05
5.8188e-05
5.82647e-05
5.81087e-05
5.63018e-05
5.81842e-05
5.75531e-05
5.81503e-05
5.82103e-05
5.7467e-05
5.72747e-05
5.81132e-05
4.36813e-05
5.89034e-05
5.73233e-05
5.82505e-05
5.8164e-05
5.84692e-05
5.82126e-05
5.80414e-05
5.82101e-05
5.81228e-05
5.82087e-05
5.83406e-05
5.81766e-05
5.70965e-05
5.7888e-05
5.81824e-05
5.81892e-05
5.80731e-05
5.74365e-05
5.82733e-05
5.81199e-05
5.81962e-05
5.69138e-05
5.78909e-05
5.8875e-05
5.8111e-05
5.83422e-05
5.80494e-05
5.8381e-05
5.82536e-05
5.82077e-05
5.81613e-05
5.79797e-05
5.81649e-05
5.83967e-05
5.81388e-05
5.82017e-05
5.75533e-05
5.2022e-06
5.81456e-05
5.75495e-05
5.79689e-05
5.80987e-05
5.8398e-05
5.81468e-05
5.81665e-05
5.79288e-05
5.8846e-05
5.81169e-05
5.80882e-05
5.63628e-05
5.82093e-05
5.81703e-05
5.81619e-05
5.78244e-05
5.8154e-05
5.8353e-05
5.82017e-05
5.81833e-05
5.8225e-05
5.78289e-05
5.81796e-05
5.84246e-05
5.81693e-05
5.81784e-05
5.70775e-05
5.59623e-06
5.80243e-05
5.83537e-05
5.72003e-05
5.78931e-05
5.81349e-05
5.72486e-05
5.89467e-05
5.78913e-05
5.81391e-05
5.82163e-05
5.83203e-05
5.82087e-05
5.80141e-05
5.76647e-05
4.08221e-05
5.80221e-05
5.75879e-05
5.8444e-05
5.81317e-05
5.81912e-05
5.82525e-05
5.81561e-05
5.82831e-05
5.89285e-05
5.81941e-05
5.75411e-05
5.8221e-05
5.75385e-05
5.8194e-05
5.82116e-05
5.90812e-05
5.80969e-05
5.82837e-05
5.82027e-05
5.81719e-05
5.81709e-05
5.82367e-05
5.81092e-05
5.83106e-05
5.80061e-05
5.81997e-05
5.81877e-05
5.81494e-05
5.81997e-05
5.81562e-05
5.80919e-05
3.91976e-05
5.82022e-05
5.79738e-05
5.78839e-05
5.81719e-05
5.81542e-05
5.82016e-05
5.82001e-05
5.78124e-05
5.82136e-05
5.83712e-05
5.83397e-05
5.82347e-05
5.81807e-05
5.92054e-05
5.81213e-05
5.81721e-05
5.81454e-05
5.82111e-05
5.80627e-05
5.80861e-05
5.81906e-05
5.76987e-05
5.79677e-05
5.89092e-05
5.80017e-05
5.82247e-05
5.81741e-05
5.80767e-05
5.83394e-05
5.81796e-05
5.81458e-05
5.8129e-05
5.82156e-05
5.82942e-05
5.83208e-05
5.8165e-05
5.81602e-05
5.83967e-05
5.81407e-05
5.83698e-05
5.82159e-05
5.82104e-05
5.82068e-05
5.76592e-05
5.82415e-05
5.83406e-05
6.34931e-06
6.252e-06
5.81537e-05
5.82154e-05
5.81295e-05
5.77312e-05
5.79053e-05
6.37539e-06
5.80627e-05
5.80494e-05
5.81853e-05
5.83211e-05
5.81357e-05
5.80768e-05
5.82483e-05
5.78063e-05
5.88445e-05
5.76321e-05
5.77894e-05
5.7712e-05
5.81995e-05
5.82057e-05
5.7772e-05
5.82339e-05
5.81649e-05
5.82513e-05
5.8217e-05
5.76893e-05
5.73461e-05
5.81577e-05
5.81698e-05
5.82711e-05
5.09942e-05
5.8228e-05
5.79003e-05
5.83004e-05
5.77659e-05
5.81835e-05
5.76288e-05
5.7815e-05
5.82167e-05
5.75632e-05
5.77345e-05
5.79777e-05
5.81555e-05
5.84029e-05
5.69001e-05
5.75239e-05
5.78112e-05
5.78545e-05
5.81891e-05
5.81222e-05
5.83188e-05
5.78937e-05
5.72865e-05
5.81471e-05
5.80101e-05
5.81859e-05
5.80237e-05
5.77568e-05
5.79756e-05
5.75996e-05
7.1598e-06
5.81819e-05
5.83233e-05
5.83365e-05
7.11568e-06
6.99156e-06
5.80528e-05
6.67778e-06
6.5771e-06
5.82556e-05
5.7054e-05
5.82e-05
5.81836e-05
5.80686e-05
5.8176e-05
5.80483e-05
5.80916e-05
5.82199e-05
5.81526e-05
5.80571e-05
5.81904e-05
5.80861e-05
5.81477e-05
5.80224e-05
5.80222e-05
7.75779e-06
7.9067e-06
3.90488e-05
5.79095e-05
5.78097e-05
5.83539e-05
5.80289e-05
5.80972e-05
5.82234e-05
5.82129e-05
5.81462e-05
5.65969e-05
5.79389e-05
5.65123e-05
5.80853e-05
5.87756e-05
5.79653e-05
5.81866e-05
5.84266e-05
7.46931e-06
5.81e-05
5.66613e-05
5.78212e-05
5.79054e-05
5.81166e-05
5.80508e-05
7.92575e-06
5.84008e-05
5.82847e-05
5.72761e-05
5.81917e-05
8.70166e-06
8.52783e-06
5.76734e-05
5.80017e-05
5.2902e-06
5.23115e-06
3.84249e-05
5.81757e-05
5.80155e-05
5.79789e-05
8.69746e-06
5.72238e-05
5.81749e-05
5.76779e-05
5.81297e-05
5.82918e-05
9.29509e-06
9.49371e-06
5.8102e-05
9.47481e-06
5.79546e-05
5.81072e-05
5.74038e-05
5.79513e-05
9.7539e-06
1.02441e-05
5.82853e-05
1.03006e-05
1.00797e-05
5.81547e-05
1.10067e-05
1.08328e-05
1.10782e-05
1.03916e-05
1.06165e-05
5.71417e-05
1.17782e-05
5.81691e-05
1.16029e-05
1.18714e-05
1.20432e-05
1.2544e-05
3.59581e-05
1.23727e-05
1.26644e-05
1.33043e-05
4.05397e-05
1.34529e-05
1.31374e-05
1.40737e-05
1.42299e-05
1.389e-05
1.43372e-05
1.48392e-05
1.50134e-05
1.46509e-05
1.56008e-05
1.637e-05
1.54118e-05
1.57958e-05
1.66357e-05
1.61625e-05
1.65726e-05
1.71361e-05
1.57312e-05
1.61225e-05
1.78985e-05
1.73629e-05
1.69296e-05
1.86672e-05
1.77038e-05
1.81599e-05
1.94335e-05
1.89329e-05
1.89421e-05
1.84625e-05
1.84711e-05
1.80101e-05
2.02036e-05
1.92319e-05
1.97345e-05
2.05257e-05
2.00004e-05
2.0966e-05
2.13124e-05
2.07639e-05
2.17328e-05
2.21e-05
2.15288e-05
2.24943e-05
2.22911e-05
2.28851e-05
2.04276e-05
1.19998e-05
3.87532e-05
4.16663e-05
3.85085e-05
3.54022e-05
3.63463e-05
6.34811e-06
6.24269e-06
2.07646e-05
2.13113e-05
1.18787e-05
1.16118e-05
2.27639e-05
3.71528e-05
3.61746e-05
1.6592e-05
3.27488e-05
2.30553e-05
3.73457e-05
2.3672e-05
7.40754e-06
3.83687e-05
2.81509e-05
2.58555e-05
3.07345e-06
3.04479e-06
3.69457e-05
5.1346e-06
1.88971e-05
1.89492e-05
1.84711e-05
3.38841e-05
3.29246e-05
3.77344e-05
2.32607e-05
2.99575e-05
2.91547e-05
4.52208e-05
3.23172e-05
3.14303e-05
1.31371e-05
1.42936e-05
1.65911e-05
1.61838e-05
1.34511e-05
2.3674e-05
2.30592e-05
3.79511e-05
8.73358e-06
8.5617e-06
3.50827e-05
9.70357e-06
4.08364e-05
4.22057e-05
1.0306e-05
1.00868e-05
3.96369e-05
4.72126e-06
4.65631e-06
4.04141e-05
1.50206e-05
1.46601e-05
4.41541e-05
3.54669e-05
3.14397e-05
3.04488e-05
3.23172e-05
3.15345e-05
3.0682e-05
4.25784e-05
2.76853e-05
2.69564e-05
3.30953e-05
3.16659e-05
2.19561e-05
3.46706e-05
3.38785e-05
4.16598e-05
3.09076e-05
3.21906e-05
2.86255e-05
2.38157e-05
2.5014e-05
4.01431e-05
3.36819e-05
2.3485e-05
2.84031e-05
3.29377e-05
3.39372e-05
2.78648e-05
2.7098e-05
3.46717e-05
3.43999e-05
2.45796e-05
2.60311e-05
2.52422e-05
3.01551e-05
2.68227e-05
2.76103e-05
2.44556e-05
2.76437e-05
3.18853e-05
2.99245e-05
2.6115e-05
2.93932e-05
3.31844e-05
2.55659e-05
4.06551e-05
3.85481e-05
2.53454e-05
4.0172e-05
3.24258e-05
3.41578e-05
2.83984e-05
2.73115e-05
2.52416e-05
2.45808e-05
2.91804e-05
3.62471e-05
2.63275e-05
2.96019e-05
3.85859e-05
3.07504e-05
2.76036e-05
2.68752e-05
2.68794e-05
3.93647e-05
2.40256e-05
2.91622e-05
3.78108e-05
2.47976e-05
3.62366e-05
3.51487e-05
4.15379e-05
3.70286e-05
3.57659e-05
2.99634e-05
3.97329e-05
4.10494e-05
4.11847e-05
3.81363e-05
3.53833e-05
3.5142e-05
5.79545e-05
3.66249e-05
3.66362e-05
3.58529e-05
3.77499e-05
5.79497e-05
5.81204e-05
5.81348e-05
3.64236e-05
5.8308e-05
5.81811e-05
5.80747e-05
3.48543e-05
5.80128e-05
5.80518e-05
5.81296e-05
5.81217e-05
5.81197e-05
3.79411e-05
5.77224e-05
3.42982e-05
5.80722e-05
5.81427e-05
5.79066e-05
5.75148e-05
5.77179e-05
5.64788e-05
3.57103e-05
3.71681e-05
5.80965e-05
5.7793e-05
3.69305e-05
5.81284e-05
5.80906e-05
3.35206e-05
5.82739e-05
5.79785e-05
5.81689e-05
5.81765e-05
5.81712e-05
5.80437e-05
5.80475e-05
5.8152e-05
5.8156e-05
5.62997e-05
5.8053e-05
5.79966e-05
5.83176e-05
5.70545e-05
3.06127e-05
2.98003e-05
5.83322e-05
5.81571e-05
5.80912e-05
5.81355e-05
3.60483e-05
5.73263e-05
5.80722e-05
5.78069e-05
5.7461e-05
5.81769e-05
5.72464e-05
5.83137e-05
5.78455e-05
5.81098e-05
5.8041e-05
5.77904e-05
5.82721e-05
5.76107e-05
5.81516e-05
5.8182e-05
5.85451e-05
5.80262e-05
5.8015e-05
5.76303e-05
5.81431e-05
5.82209e-05
5.80787e-05
5.83282e-05
5.83503e-05
5.82597e-05
5.81123e-05
5.82959e-05
5.83029e-05
5.74776e-05
5.81314e-05
5.83282e-05
5.80473e-05
3.47417e-05
3.38419e-05
5.83084e-05
5.80487e-05
5.77312e-05
5.81367e-05
5.80298e-05
5.80896e-05
5.81213e-05
5.81432e-05
5.7984e-05
5.83151e-05
3.35314e-05
5.80014e-05
5.81507e-05
5.79728e-05
5.80742e-05
5.73655e-05
5.81725e-05
5.72301e-05
5.78818e-05
5.83289e-05
5.7611e-05
5.80619e-05
5.81459e-05
5.78447e-05
5.76556e-05
5.81873e-05
5.81473e-05
5.80822e-05
5.8074e-05
5.81916e-05
5.81813e-05
4.13748e-05
5.81472e-05
5.82163e-05
5.82031e-05
5.81243e-05
5.81696e-05
5.81947e-05
5.82833e-05
5.79608e-05
5.82076e-05
5.81613e-05
5.85272e-05
5.80866e-05
5.81649e-05
5.82236e-05
5.82045e-05
5.81881e-05
5.8175e-05
5.81624e-05
5.81852e-05
5.82005e-05
5.81849e-05
5.7945e-05
5.74918e-05
5.82723e-05
5.84023e-05
2.82544e-05
2.75076e-05
5.81421e-05
5.81975e-05
5.82568e-05
5.8101e-05
5.77609e-05
5.81401e-05
3.41942e-05
3.33018e-05
5.84543e-05
5.70336e-05
5.80577e-05
4.09053e-05
5.81647e-05
5.8192e-05
3.55565e-05
3.46353e-05
3.06011e-06
5.84105e-05
5.81713e-05
5.80713e-05
5.82018e-05
5.81939e-05
5.83336e-05
5.83937e-05
5.81688e-05
5.81284e-05
5.81438e-05
5.80669e-05
5.85993e-05
5.83961e-05
5.72908e-05
5.81823e-05
5.83103e-05
5.81143e-05
5.8159e-05
5.81785e-05
5.80317e-05
5.8149e-05
5.8085e-05
5.84296e-05
5.8272e-05
5.81949e-05
5.81926e-05
5.81812e-05
5.75759e-05
5.81827e-05
5.76665e-05
5.82125e-05
5.81479e-05
5.72731e-05
5.71904e-05
5.81456e-05
5.82013e-05
5.83289e-05
5.83511e-05
5.84958e-05
5.80025e-05
5.81902e-05
5.74988e-05
5.89294e-05
5.80133e-05
5.7888e-05
5.76626e-05
5.81678e-05
5.82428e-05
5.81987e-05
5.79796e-05
3.31755e-05
3.23082e-05
5.80153e-05
5.82956e-05
5.8084e-05
2.58971e-05
2.52186e-05
5.68648e-05
3.19834e-05
5.82033e-05
5.83377e-05
5.82037e-05
5.81099e-05
5.84548e-05
5.81933e-05
5.81541e-05
5.80416e-05
5.80994e-05
5.79734e-05
5.8184e-05
5.84279e-05
5.84163e-05
3.27484e-05
5.83315e-05
5.8151e-05
5.79685e-05
5.82025e-05
5.74347e-05
5.8642e-05
5.83652e-05
5.82083e-05
5.8253e-05
5.70809e-05
5.81368e-05
5.62787e-05
5.78741e-05
5.79781e-05
5.80788e-05
5.81319e-05
5.84086e-05
5.81345e-05
5.81322e-05
5.84262e-05
5.77387e-05
5.83524e-05
5.7848e-05
5.80976e-05
5.81785e-05
5.81975e-05
5.79837e-05
5.8191e-05
5.81985e-05
5.80818e-05
5.80137e-05
5.82268e-05
5.81673e-05
5.8408e-05
5.81906e-05
5.8041e-05
5.78058e-05
3.48692e-05
5.81767e-05
5.81623e-05
5.81108e-05
5.8199e-05
5.8139e-05
5.78116e-05
5.78418e-05
5.77944e-05
5.818e-05
5.81065e-05
5.81861e-05
5.77042e-05
5.81792e-05
5.76645e-05
5.81459e-05
5.7979e-05
5.81684e-05
5.81945e-05
5.81576e-05
5.81401e-05
5.81689e-05
5.81589e-05
5.81747e-05
5.81706e-05
5.81465e-05
5.75735e-05
5.76079e-05
5.81606e-05
5.81198e-05
5.81489e-05
5.81282e-05
5.77805e-05
5.72604e-05
3.26072e-05
3.17502e-05
5.83034e-05
5.80821e-05
3.11963e-05
5.83297e-05
5.79104e-05
5.82166e-05
5.82875e-05
5.82035e-05
5.83254e-05
5.83918e-05
5.82209e-05
3.4974e-05
3.40686e-05
5.81695e-05
5.81803e-05
5.80993e-05
5.81796e-05
5.81981e-05
5.83874e-05
5.83455e-05
5.81784e-05
5.83318e-05
5.83694e-05
5.80093e-05
3.19733e-05
5.83009e-05
5.83844e-05
5.83645e-05
5.81796e-05
5.81769e-05
5.8205e-05
5.69513e-05
5.81983e-05
5.82414e-05
4.4561e-05
5.81975e-05
5.83062e-05
5.82045e-05
5.84669e-05
5.81555e-05
5.73838e-05
5.821e-05
5.82067e-05
5.82735e-05
5.82111e-05
5.75455e-05
5.81662e-05
5.84396e-05
5.83206e-05
5.83535e-05
5.81945e-05
5.81976e-05
5.81488e-05
5.81734e-05
5.79576e-05
5.83627e-05
5.81723e-05
5.82071e-05
5.82766e-05
5.70575e-05
5.8104e-05
5.8222e-05
5.81253e-05
5.77127e-05
5.83903e-05
5.81889e-05
5.82115e-05
5.82491e-05
5.82162e-05
5.81215e-05
5.8256e-05
5.83708e-05
5.81869e-05
5.85522e-05
5.81936e-05
5.82297e-05
5.81888e-05
5.82085e-05
5.80261e-05
5.81891e-05
5.82034e-05
5.82441e-05
5.82051e-05
5.81045e-05
5.80928e-05
5.84025e-05
5.80055e-05
5.81988e-05
5.82285e-05
5.81694e-05
5.81851e-05
5.83669e-05
5.79014e-05
5.80584e-05
5.83168e-05
5.77424e-05
5.84565e-05
3.1607e-05
3.0772e-05
5.81836e-05
5.81786e-05
5.83905e-05
3.25169e-05
5.80281e-05
5.81543e-05
2.19724e-05
2.14089e-05
5.81935e-05
5.81831e-05
5.81802e-05
5.81902e-05
5.81513e-05
5.80786e-05
5.78941e-05
5.81659e-05
5.81488e-05
5.79753e-05
5.78748e-05
5.82176e-05
5.80978e-05
5.8389e-05
5.79119e-05
5.78029e-05
5.82025e-05
5.74029e-05
5.80798e-05
5.77995e-05
5.76219e-05
5.70219e-05
5.7851e-05
5.77065e-05
5.81506e-05
5.78695e-05
5.77652e-05
5.75685e-05
5.83284e-05
5.8408e-05
5.8177e-05
5.81676e-05
5.80886e-05
5.74311e-05
5.8064e-05
5.83427e-05
5.81995e-05
5.81794e-05
5.82142e-05
5.816e-05
5.81993e-05
5.81035e-05
5.81522e-05
5.80026e-05
5.80941e-05
5.8154e-05
5.68808e-05
5.81709e-05
5.82225e-05
5.77813e-05
5.72049e-05
5.78339e-05
8.01366e-06
5.74147e-05
5.82042e-05
5.81597e-05
3.10345e-05
3.02143e-05
5.82148e-05
2.9682e-05
5.81232e-05
5.73895e-05
5.83328e-05
5.80453e-05
5.82069e-05
5.83342e-05
5.83441e-05
3.39648e-05
3.30823e-05
5.80535e-05
5.82138e-05
1.96137e-05
1.91186e-05
5.82046e-05
5.81847e-05
5.83627e-05
5.68027e-05
5.83208e-05
5.81542e-05
5.702e-05
5.81517e-05
5.82828e-05
3.12172e-05
5.71302e-05
5.83362e-05
5.81367e-05
5.81872e-05
3.01901e-05
5.81494e-05
1.02912e-05
5.8213e-05
5.75673e-05
5.78899e-05
5.81808e-05
5.80672e-05
5.79308e-05
5.79417e-05
5.81935e-05
5.81724e-05
5.81479e-05
5.81499e-05
5.78769e-05
5.81112e-05
5.81434e-05
5.8189e-05
5.81007e-05
5.7956e-05
5.82033e-05
5.88926e-05
1.25834e-05
5.81064e-05
5.80648e-05
5.82015e-05
5.80899e-05
5.82104e-05
3.00348e-05
2.92401e-05
2.88863e-05
5.81659e-05
5.81321e-05
5.80758e-05
5.80442e-06
5.79169e-05
5.81881e-05
5.81873e-05
5.82656e-05
1.72617e-05
1.68361e-05
5.82131e-05
5.81768e-05
1.48794e-05
5.81441e-05
5.8152e-05
5.8175e-05
-1.64068e-07
-1.64558e-07
-1.56456e-07
5.80565e-05
5.82294e-05
5.81512e-05
5.73796e-05
5.83518e-05
5.8103e-05
5.8179e-05
5.75624e-05
4.16465e-05
5.81857e-05
5.78365e-05
2.78898e-05
5.79547e-05
5.69907e-05
5.81728e-05
5.81736e-05
5.82376e-05
5.81794e-05
5.76052e-05
5.84193e-05
3.38406e-06
3.37175e-06
1.71765e-05
5.8327e-05
5.84806e-05
4.22832e-05
5.81238e-05
5.83936e-05
5.81326e-05
5.81774e-05
5.81221e-05
2.94654e-05
2.86878e-05
5.8185e-05
5.81011e-05
5.80853e-05
5.81407e-05
5.80669e-05
5.8332e-05
5.81128e-05
3.33886e-05
3.25077e-05
5.78663e-05
5.85219e-05
5.81319e-05
5.82333e-05
5.81534e-05
5.82232e-05
5.81808e-05
5.81505e-05
5.85069e-05
5.74295e-05
5.81957e-05
5.81641e-05
5.79065e-05
5.83596e-05
5.83572e-05
5.81068e-05
5.81845e-05
2.55975e-05
5.82146e-05
6.99653e-06
7.11212e-06
5.81665e-05
2.73871e-05
2.84721e-05
2.77209e-05
5.80693e-05
5.81002e-05
5.77553e-05
5.81408e-05
5.81132e-05
5.80922e-05
5.81092e-05
5.81007e-05
5.81148e-05
5.82063e-05
5.76833e-05
5.8201e-05
5.79359e-05
5.81367e-05
3.04179e-05
5.79605e-05
5.75167e-05
5.81484e-05
5.76063e-05
5.81992e-05
5.83907e-05
5.7788e-05
5.81142e-05
5.81677e-05
4.67372e-06
4.62858e-06
5.72775e-05
2.65941e-05
5.77818e-05
5.8118e-05
5.822e-05
5.80591e-05
5.85113e-05
5.80463e-05
5.81645e-05
5.82106e-05
3.23994e-05
3.1547e-05
2.96524e-05
5.80392e-05
5.81538e-05
5.81212e-05
5.82187e-05
5.7203e-05
5.81549e-05
5.81258e-05
5.82165e-05
5.84341e-05
5.82913e-05
5.80616e-05
5.72485e-05
2.71082e-05
2.6398e-05
5.82078e-05
5.8199e-05
5.81588e-05
5.80337e-05
5.83654e-05
5.82097e-05
5.81275e-05
5.82302e-05
5.81776e-05
5.8133e-05
5.79546e-05
5.81761e-05
5.8228e-05
2.50914e-05
5.81225e-05
2.61033e-05
2.54197e-05
5.82704e-05
5.74806e-05
5.8103e-05
5.81006e-05
5.82349e-05
5.82111e-05
5.84797e-05
3.18063e-05
3.09665e-05
2.89157e-05
5.81505e-05
5.81455e-05
2.42963e-05
2.55432e-05
2.4878e-05
5.75811e-05
5.80784e-05
5.81294e-05
5.81933e-05
5.81158e-05
5.8143e-05
5.81675e-05
5.80251e-05
5.8139e-05
5.68731e-05
2.35635e-05
5.80434e-05
5.82152e-05
5.81587e-05
2.45371e-05
2.38996e-05
5.82936e-05
5.8108e-05
5.81608e-05
3.08279e-05
3.0013e-05
5.62654e-05
5.79953e-05
5.64927e-05
5.83638e-05
5.68119e-05
5.68851e-05
5.73358e-05
5.8199e-05
2.3971e-05
2.33518e-05
4.23741e-05
2.81175e-05
5.65724e-05
5.82119e-05
2.19989e-05
2.29642e-05
2.23721e-05
3.36905e-05
3.45431e-05
3.62388e-05
3.69019e-05
2.73579e-05
3.02347e-05
2.94347e-05
5.82071e-05
5.76368e-05
5.81256e-05
3.9209e-05
5.82641e-05
5.8184e-05
2.12648e-05
2.2398e-05
2.18245e-05
5.82172e-05
5.81429e-05
5.81221e-05
5.4145e-05
4.57573e-05
5.82442e-05
5.81935e-05
5.82172e-05
4.11596e-06
2.0463e-05
5.81682e-05
2.13948e-05
2.08486e-05
5.81196e-05
5.68145e-05
5.81518e-05
2.66218e-05
2.92583e-05
2.84852e-05
1.97352e-05
5.58558e-05
2.08288e-05
2.0301e-05
5.79858e-05
5.81312e-05
5.83609e-05
5.83672e-05
5.72463e-05
5.80632e-05
5.81985e-05
5.8106e-05
5.81613e-05
1.98251e-05
1.93252e-05
5.80044e-05
5.83939e-05
4.64215e-05
5.82178e-05
2.86628e-05
2.79057e-05
5.7756e-05
5.57036e-05
1.81686e-05
1.92596e-05
1.87773e-05
5.82256e-05
5.81894e-05
5.82499e-05
5.81739e-05
5.82299e-05
5.83563e-05
5.66897e-05
5.81502e-05
5.81986e-05
2.58258e-05
5.83704e-05
5.8211e-05
1.74384e-05
5.81971e-05
5.81323e-05
3.59381e-06
5.83928e-05
5.79356e-05
5.83038e-05
5.83797e-05
5.84175e-05
5.85116e-05
3.80907e-05
2.50629e-05
5.8197e-05
5.81425e-05
2.78851e-05
2.71518e-05
5.68179e-05
5.81622e-05
5.81359e-05
5.82049e-05
1.7471e-05
1.70397e-05
5.81246e-05
5.81096e-05
5.81956e-05
5.81761e-05
5.83987e-05
5.83421e-05
5.80767e-05
5.8053e-05
5.82159e-05
1.58712e-05
5.77913e-05
4.48625e-05
1.69164e-05
1.65043e-05
4.28024e-05
5.84023e-05
4.7709e-05
5.85266e-05
5.72441e-05
5.68919e-05
2.43268e-05
1.51378e-05
2.68993e-05
2.61923e-05
5.56188e-05
5.82051e-05
5.76163e-05
5.8172e-05
5.81351e-05
5.81524e-05
1.51074e-05
1.47467e-05
5.80246e-05
5.75217e-05
5.83405e-05
5.82132e-05
5.84367e-05
1.35736e-05
5.82688e-05
2.35289e-05
1.45569e-05
1.42159e-05
2.63078e-05
2.56179e-05
5.82022e-05
5.81537e-05
5.82388e-05
5.81081e-05
1.28417e-05
5.81401e-05
1.35407e-05
1.32277e-05
5.84115e-05
5.82155e-05
5.81908e-05
5.83721e-05
5.83944e-05
1.29759e-05
1.26807e-05
2.53278e-05
2.46677e-05
5.89099e-05
5.82586e-05
5.8133e-05
5.82269e-05
1.12798e-05
5.81342e-05
1.19665e-05
1.17017e-05
5.80794e-05
2.27974e-05
5.89326e-05
5.81568e-05
5.81616e-05
5.85904e-05
5.80897e-05
5.82203e-05
1.0545e-05
1.14094e-05
1.11623e-05
5.81679e-05
2.20289e-05
5.80803e-05
5.81777e-05
2.47426e-05
2.40995e-05
5.82132e-05
5.82672e-05
5.81889e-05
8.9942e-06
5.79128e-05
9.61016e-06
9.41639e-06
2.12301e-05
2.37568e-05
2.3142e-05
3.45047e-05
3.53325e-05
5.80429e-05
9.07228e-06
8.89581e-06
5.76616e-05
8.24521e-06
5.7388e-05
5.81645e-05
3.72083e-05
3.7681e-05
5.81031e-05
4.06916e-05
5.58367e-05
5.71259e-05
8.03814e-06
7.89231e-06
3.99637e-05
5.25554e-05
5.81441e-05
5.82706e-05
5.8139e-05
5.84106e-05
2.0499e-05
5.03462e-06
4.96876e-06
5.84809e-05
2.31697e-05
2.25722e-05
7.48237e-06
7.35399e-06
5.81966e-05
5.82424e-05
5.83909e-05
5.81251e-05
5.81475e-05
6.7156e-06
1.96963e-05
5.8199e-05
5.84541e-05
2.21872e-05
2.16182e-05
5.82167e-05
5.81759e-05
5.81418e-05
5.81059e-05
5.58693e-06
5.5072e-06
5.78517e-05
5.83127e-05
5.81336e-05
5.80585e-05
5.80652e-05
5.81445e-05
5.79824e-05
2.15978e-05
2.10459e-05
5.74687e-05
5.81818e-05
5.81509e-05
5.61828e-05
5.74825e-05
1.89698e-05
5.81779e-05
5.82014e-05
1.82022e-05
3.8705e-05
5.89878e-06
3.93938e-05
2.06153e-05
2.00921e-05
5.80917e-05
2.75882e-06
5.81695e-05
5.54457e-05
5.82613e-05
5.64636e-05
5.82392e-05
1.73975e-05
5.79685e-05
2.0027e-05
1.95207e-05
5.81943e-05
3.66169e-05
5.84664e-05
1.90391e-05
1.85614e-05
5.70903e-05
5.45511e-05
5.84173e-05
1.66737e-05
5.84725e-05
1.59041e-05
3.28203e-06
3.21208e-06
5.79168e-05
5.8023e-05
1.82609e-05
1.78066e-05
5.81414e-05
5.84336e-05
5.83478e-05
5.82286e-05
5.84603e-05
5.82527e-05
1.50985e-05
5.81374e-05
1.76867e-05
1.72497e-05
5.62889e-05
5.82279e-05
5.81484e-05
5.81858e-05
5.81479e-05
5.81372e-05
5.81461e-05
1.66815e-05
1.62742e-05
5.7942e-05
1.43736e-05
5.8398e-05
5.81826e-05
3.71214e-06
1.36076e-05
5.76914e-05
1.59011e-05
1.55164e-05
5.75238e-05
5.71608e-05
5.82133e-05
5.81939e-05
5.81776e-05
5.81504e-05
5.82818e-05
1.28034e-05
5.82338e-05
5.74661e-05
1.53276e-05
1.49607e-05
5.60102e-05
6.04509e-05
5.78147e-05
5.88776e-05
5.78135e-05
5.80973e-05
1.43301e-05
1.39934e-05
5.81259e-05
5.79089e-05
1.20777e-05
5.81018e-05
5.7667e-05
5.77082e-05
1.13097e-05
1.37568e-05
1.34385e-05
3.75852e-05
5.80146e-05
5.82828e-05
5.89714e-05
5.77456e-05
5.81507e-05
3.7317e-05
4.72579e-05
5.81669e-05
5.80489e-05
1.05105e-05
1.27594e-05
1.24704e-05
5.88454e-05
5.80328e-05
5.81954e-05
5.82093e-05
5.83787e-05
5.82185e-05
5.8211e-05
1.21784e-05
1.19064e-05
5.56311e-05
5.22512e-05
9.78252e-06
5.67993e-05
5.8182e-05
5.77358e-05
5.81685e-05
4.75651e-05
9.01398e-06
5.80958e-05
1.1179e-05
1.0937e-05
5.79874e-05
5.81751e-05
8.22709e-06
1.04018e-05
1.01841e-05
5.83621e-05
4.70874e-05
5.47977e-05
5.82262e-05
5.82496e-05
5.81876e-05
9.83775e-06
9.63772e-06
3.87851e-05
5.80983e-05
5.76297e-05
5.8769e-05
5.80305e-05
7.47426e-06
5.7952e-05
8.82855e-06
8.65818e-06
5.81864e-05
5.8139e-05
6.6978e-06
5.79456e-05
5.81871e-05
4.06684e-05
8.26984e-06
8.11846e-06
5.81573e-05
5.8873e-05
5.7857e-05
5.9547e-06
5.77252e-05
2.6672e-06
2.92152e-06
2.91891e-06
5.76201e-05
7.25604e-06
7.13474e-06
3.77616e-05
5.80882e-05
5.82689e-05
5.84235e-05
5.78668e-05
5.79892e-05
5.82461e-05
5.80035e-05
6.45906e-06
6.36165e-06
5.79659e-05
5.685e-05
5.82477e-05
4.79759e-05
5.8281e-06
5.74339e-06
5.80758e-05
5.81563e-05
3.93208e-05
5.81329e-05
5.80865e-05
5.79992e-05
5.80246e-05
4.32548e-05
5.82674e-05
5.60025e-05
5.81431e-05
3.93703e-05
5.81718e-05
5.81339e-05
5.81908e-05
5.82171e-05
5.64774e-05
5.35005e-05
5.58596e-05
5.14044e-05
5.77816e-05
5.81783e-05
5.0662e-06
5.7986e-05
5.82131e-05
4.68807e-06
4.62004e-06
4.26478e-05
3.23254e-06
5.798e-05
5.34368e-05
5.8406e-05
5.7671e-05
5.84378e-05
5.80325e-05
5.54353e-05
3.98213e-05
5.82208e-05
5.81862e-05
5.7888e-05
5.75284e-05
5.81477e-05
5.81836e-05
5.81942e-05
4.06992e-05
4.15591e-06
3.95525e-05
5.63426e-05
5.82328e-05
3.36198e-06
2.9245e-06
2.97783e-06
5.81334e-05
5.81961e-05
5.79906e-05
5.81995e-05
5.78554e-05
4.13508e-05
2.79701e-06
2.77866e-06
2.5543e-06
5.82684e-05
5.81793e-05