/*--------------------------------*- C++ -*----------------------------------*\
  =========                 |
  \\      /  F ield         | OpenFOAM: The Open Source CFD Toolbox
   \\    /   O peration     | Website:  https://openfoam.org
    \\  /    A nd           | Version:  8
     \\/     M anipulation  |
\*---------------------------------------------------------------------------*/
FoamFile
{
    version     2.0;
    format      ascii;
    class       volScalarField;
    location    "1";
    object      p;
}
// * * * * * * * * * * * * * * * * * * * * * * * * * * * * * * * * * * * * * //

dimensions      [0 2 -2 0 0 0 0];

internalField   nonuniform List<scalar> 
5101
(
1.25348e-05
1.39817e-05
1.28801e-05
5.20035e-06
1.37577e-05
4.39965e-06
2.44199e-06
1.69123e-05
1.87633e-06
4.79523e-06
1.28565e-05
3.88469e-06
1.3718e-06
2.94149e-06
1.01814e-05
9.63316e-06
8.0188e-06
6.06139e-06
1.13118e-05
1.59634e-05
1.14394e-05
4.91877e-06
8.99729e-06
5.68216e-06
1.09879e-05
7.14492e-06
1.05514e-05
1.05506e-05
1.30284e-05
1.2593e-05
1.17824e-05
9.31035e-06
8.74593e-06
1.62837e-05
1.16385e-05
1.15459e-05
1.25319e-05
1.20717e-05
1.33109e-05
1.74008e-05
1.73557e-05
2.60633e-06
1.10238e-05
9.35367e-06
1.32675e-05
9.27257e-06
1.35267e-05
5.31899e-06
1.20461e-05
1.08276e-05
1.47933e-05
1.22262e-05
1.17268e-05
1.60705e-06
1.71911e-05
1.30926e-05
1.2227e-05
1.63626e-05
1.66229e-05
7.89882e-06
2.14114e-06
1.06321e-05
1.70551e-05
1.31529e-05
1.02847e-05
1.41146e-05
2.74635e-06
7.76506e-06
1.14607e-05
1.73137e-05
4.6511e-06
1.59967e-05
1.69391e-05
9.87795e-06
8.44816e-06
1.65306e-05
5.46744e-06
1.61877e-05
1.66832e-05
4.13557e-06
1.70111e-05
3.00545e-06
5.6886e-06
1.1168e-05
1.70829e-05
1.24942e-05
1.37986e-05
5.00535e-06
1.4367e-05
9.09885e-06
1.61146e-05
9.79046e-07
1.22108e-05
1.17114e-05
1.27794e-05
1.27889e-05
1.61905e-05
1.40649e-05
1.68134e-05
1.49867e-05
1.11098e-05
1.74801e-05
3.4858e-06
1.46844e-05
8.9402e-06
1.61613e-05
1.21743e-05
1.43406e-05
1.68436e-05
6.70646e-06
3.35484e-06
3.64222e-06
1.26101e-05
1.38217e-05
6.6145e-06
1.62015e-05
1.6286e-05
6.62167e-06
9.34332e-06
8.23258e-06
3.76709e-06
6.12593e-06
1.59335e-05
1.4532e-05
8.01413e-06
1.70587e-05
9.73007e-06
1.33443e-05
1.69258e-05
4.34607e-06
1.30367e-05
1.23379e-05
1.41463e-05
1.70909e-05
1.30786e-05
1.40666e-05
1.73389e-05
1.20944e-05
1.8947e-06
1.66845e-05
1.60872e-05
1.48165e-05
1.69933e-05
1.15613e-05
7.50647e-06
7.80008e-06
1.66733e-05
1.10682e-05
1.451e-05
1.63193e-05
1.15499e-05
1.77138e-05
1.03101e-05
6.29304e-06
1.43892e-05
1.22548e-05
5.69767e-06
1.64653e-05
1.12583e-05
1.15673e-05
1.02236e-06
1.60511e-05
6.3133e-06
1.33251e-05
1.43592e-05
1.35046e-05
1.01185e-05
1.23795e-05
5.26929e-06
1.65077e-05
6.51471e-06
1.04927e-05
1.08539e-05
1.35603e-05
1.43496e-05
6.13293e-06
4.03776e-06
1.74841e-05
8.82993e-06
1.3471e-05
1.37555e-05
7.13321e-06
1.04124e-05
1.63364e-05
1.62342e-05
1.28223e-05
1.70492e-05
9.92242e-06
1.14049e-05
1.24679e-05
1.48368e-05
1.13591e-05
1.64889e-05
1.66245e-05
7.67468e-06
1.37865e-05
1.74077e-05
1.45979e-05
3.06008e-06
3.34046e-06
9.60568e-06
1.41982e-05
1.50392e-05
1.65134e-05
1.70907e-05
1.29179e-05
1.61247e-05
5.92401e-06
1.66848e-05
4.30221e-06
1.44945e-05
1.11517e-06
8.85169e-06
1.68321e-05
3.18205e-06
2.18113e-06
1.31327e-05
1.2447e-05
3.62886e-06
6.41791e-06
1.74439e-06
6.19849e-06
1.5155e-05
1.44898e-05
1.49042e-05
1.75532e-05
6.22398e-06
1.38961e-05
4.56325e-06
1.70545e-05
1.60028e-05
1.53792e-05
1.42784e-05
1.07399e-05
1.56107e-05
1.69961e-05
1.70444e-05
6.43019e-06
1.18719e-05
1.36968e-05
4.82151e-06
1.70512e-05
1.70083e-05
1.38145e-05
1.09652e-05
1.37619e-05
1.14794e-05
1.61289e-05
1.39773e-05
1.20133e-05
1.34838e-05
4.04155e-06
3.37543e-06
1.16476e-05
6.54642e-06
8.79516e-06
8.79473e-06
1.04749e-05
6.79892e-06
1.72614e-05
8.57692e-06
7.90739e-06
9.19184e-06
6.14182e-06
6.14482e-06
1.63758e-05
1.3392e-05
5.17097e-06
2.78027e-06
1.62264e-05
7.69531e-06
7.65693e-06
1.65723e-05
8.25734e-06
1.67703e-05
1.62916e-05
1.65741e-05
1.62639e-05
5.07727e-06
5.33053e-06
1.01986e-05
1.17777e-05
9.32906e-06
1.49472e-05
1.61234e-05
1.11689e-05
1.17765e-05
1.06189e-05
1.44171e-05
1.52572e-05
7.6906e-06
1.60091e-05
1.11998e-05
1.67017e-05
9.08187e-06
1.70455e-05
4.8296e-06
1.21503e-05
1.61233e-05
1.23404e-05
1.71943e-05
1.57984e-05
1.3303e-05
8.46475e-07
4.05174e-07
1.45319e-05
1.06285e-05
1.58665e-05
4.94714e-06
1.33741e-05
5.93536e-06
1.42094e-06
1.36276e-05
1.3029e-05
1.03718e-05
1.70506e-05
6.71538e-06
1.56115e-05
1.08551e-05
1.67746e-05
1.45705e-05
1.55272e-05
1.63221e-05
8.25978e-06
4.74918e-06
1.395e-05
1.68416e-05
1.46118e-05
1.55859e-05
5.58176e-06
1.39867e-05
4.06462e-06
1.71792e-05
1.44606e-05
6.22821e-06
1.70012e-05
1.27736e-05
1.30768e-05
1.265e-05
1.30848e-05
1.42888e-05
4.58703e-06
6.40326e-06
1.60231e-06
3.90185e-06
1.1732e-05
1.11666e-05
1.10683e-05
1.04041e-05
1.68382e-05
1.68494e-05
9.14541e-06
1.08525e-05
6.31085e-06
1.76337e-06
1.6295e-05
1.49688e-05
5.98583e-06
1.49827e-05
1.03179e-06
1.69124e-05
5.1478e-06
1.74103e-05
1.30822e-05
1.20208e-05
1.11513e-05
1.46501e-05
2.64687e-06
1.62446e-05
1.32085e-05
1.62795e-05
1.55848e-05
1.44515e-05
1.29112e-05
1.36293e-05
1.33725e-05
1.56983e-05
2.4842e-06
7.52333e-06
6.54015e-06
1.23167e-05
1.06564e-05
1.34303e-05
1.06576e-05
4.88027e-06
2.97394e-06
7.02772e-06
6.04837e-06
1.28149e-05
4.3652e-06
1.11393e-05
1.11646e-05
3.40532e-06
5.55393e-06
3.86737e-06
5.05456e-06
4.54674e-06
1.20372e-05
1.70222e-05
6.84255e-06
1.11394e-05
6.92404e-06
1.20196e-05
6.49285e-06
1.35198e-05
1.15105e-05
1.06865e-05
1.64719e-05
9.98467e-06
1.71461e-05
1.05741e-05
1.17495e-05
1.72425e-05
1.03545e-05
1.35423e-05
1.14102e-05
1.40109e-05
1.07338e-05
1.70274e-05
6.23334e-06
6.23427e-06
9.86176e-06
3.65453e-06
3.67037e-07
1.27507e-05
5.35813e-06
1.70776e-05
7.22303e-06
1.41683e-05
1.28987e-05
8.59908e-06
1.41115e-05
6.70433e-07
1.59595e-05
1.66371e-05
6.20712e-06
1.71226e-05
6.69444e-06
6.69733e-06
1.23215e-06
6.55613e-06
6.55948e-06
1.12786e-05
7.03965e-06
7.36291e-06
8.04127e-06
1.10564e-05
1.3889e-05
5.42355e-06
1.17816e-05
1.29174e-05
1.01215e-05
1.01255e-05
9.90767e-06
9.78381e-06
2.25197e-06
1.65888e-05
1.4941e-05
1.68851e-05
4.16826e-06
1.3893e-05
1.25696e-05
1.52536e-05
7.24229e-06
1.6811e-05
9.71243e-06
1.14109e-05
3.52546e-06
1.29009e-05
1.37259e-05
8.22783e-06
8.2283e-06
1.65199e-05
1.34982e-05
1.22943e-05
1.67451e-05
1.7245e-05
1.67213e-05
1.37597e-05
1.1085e-05
3.3425e-06
4.43023e-06
1.74861e-05
1.6566e-05
1.24052e-05
1.43033e-05
1.16542e-05
1.56329e-05
7.73894e-06
9.45572e-06
1.15776e-05
1.60662e-05
5.88417e-06
7.09635e-07
1.09186e-05
1.29181e-05
7.44063e-06
8.69044e-06
1.5756e-05
4.56064e-06
1.69052e-05
1.01251e-05
1.42317e-05
1.42897e-05
1.40717e-05
6.34842e-06
1.72949e-05
1.36113e-05
6.21935e-06
6.76544e-06
1.62261e-05
5.58952e-06
1.86046e-06
1.36677e-05
3.62423e-06
4.32266e-06
5.04726e-06
2.63566e-06
5.80141e-06
8.48872e-06
8.51771e-06
1.46414e-05
1.30135e-05
8.85948e-06
1.38058e-06
1.33858e-05
1.36463e-05
1.12084e-05
1.70773e-05
1.59916e-05
9.98979e-06
1.07576e-05
4.68998e-06
1.92866e-06
8.58708e-06
7.08116e-06
7.10186e-06
1.64196e-05
7.60953e-06
1.71011e-05
3.63579e-06
7.80846e-06
1.26285e-05
3.04161e-06
3.84308e-06
4.59724e-06
5.33507e-06
6.08827e-06
1.27351e-05
1.11879e-05
1.19871e-05
1.04455e-05
9.62695e-06
5.30055e-06
6.0643e-06
1.05874e-05
1.09787e-05
6.64945e-06
6.75991e-06
8.00223e-06
1.03081e-05
1.56416e-05
1.69941e-05
8.78797e-06
1.48864e-05
9.30941e-06
8.70976e-06
1.65509e-05
6.98418e-06
8.2604e-06
1.12562e-05
1.06226e-06
1.06204e-05
1.20719e-05
1.57298e-05
1.34144e-05
5.10291e-06
1.61067e-06
1.62571e-05
1.47962e-05
1.67626e-05
1.38984e-05
7.05778e-06
1.42672e-05
8.31956e-06
1.56558e-05
1.73976e-05
1.40529e-05
1.47522e-05
2.56785e-06
6.57875e-06
1.06912e-05
9.02227e-06
9.0248e-06
1.1839e-05
3.84943e-06
8.72335e-06
8.70496e-06
3.32095e-06
1.61424e-05
5.75751e-06
1.63091e-05
1.20182e-05
1.64702e-05
4.94741e-06
1.00451e-05
1.28775e-05
1.03212e-05
9.67314e-06
6.15246e-06
6.1793e-06
1.31272e-05
1.36755e-05
1.70874e-05
1.70255e-05
1.55573e-05
1.68767e-05
1.70068e-05
1.11718e-05
1.4185e-05
8.54176e-06
1.70419e-05
1.18236e-05
1.65197e-05
6.58816e-06
1.26241e-05
1.54652e-05
1.07984e-05
1.56011e-05
1.00376e-05
1.32653e-05
1.29203e-05
1.35807e-05
9.26914e-06
1.37981e-05
1.65253e-05
7.90997e-06
7.91342e-06
6.30517e-06
3.16267e-06
5.5484e-06
4.80949e-06
4.07666e-06
2.39831e-06
1.6253e-05
7.9946e-06
1.02101e-05
1.43199e-05
1.00526e-05
5.81945e-06
1.42932e-05
1.71032e-05
1.09566e-05
5.45652e-06
1.70528e-05
1.16498e-05
1.36618e-05
1.206e-06
1.36178e-05
1.71278e-05
1.6391e-05
5.20414e-06
8.21767e-06
8.25141e-06
8.85727e-06
6.05166e-06
2.88593e-06
9.84486e-06
8.87881e-06
1.11762e-05
1.4905e-05
1.43562e-05
9.19656e-06
1.07623e-05
8.87408e-06
2.11408e-06
5.29667e-06
4.55892e-06
3.86008e-06
1.02519e-05
1.38925e-05
1.32626e-05
1.15554e-05
1.64796e-05
1.6499e-05
3.89594e-06
1.68575e-05
1.70296e-05
1.02345e-05
5.46001e-06
7.57907e-06
8.98065e-06
9.45294e-06
1.46576e-05
4.83366e-06
1.23083e-05
1.91029e-06
1.39132e-05
1.61267e-06
4.30424e-06
1.48735e-05
7.02425e-06
4.34533e-06
1.64959e-05
1.22047e-05
9.57792e-06
2.02108e-06
6.48964e-07
1.03143e-05
4.28636e-06
1.30671e-05
1.70404e-05
1.39193e-05
9.03066e-06
1.31411e-05
1.56868e-05
1.2134e-05
1.22213e-05
1.97348e-06
6.40064e-06
1.1082e-05
9.01483e-06
9.0415e-06
3.0726e-06
1.06668e-05
1.60264e-05
2.26651e-06
6.2711e-06
1.09908e-05
1.21177e-05
3.55821e-06
9.3211e-06
9.31862e-06
9.90987e-06
4.19955e-06
1.09577e-05
1.26255e-05
1.06596e-05
1.34369e-05
1.03391e-05
1.74694e-05
1.66708e-05
8.75011e-06
1.13304e-05
1.1778e-05
2.21605e-06
1.25635e-05
1.59183e-05
1.23406e-05
8.97826e-06
1.20257e-05
1.71022e-05
1.06974e-05
1.62975e-06
9.50607e-06
1.25425e-05
1.05833e-05
9.81602e-06
1.581e-05
9.46977e-06
1.28209e-05
1.36362e-05
1.6547e-05
9.11893e-06
1.34611e-05
1.55615e-05
1.26505e-05
1.20205e-05
1.62775e-05
1.33804e-05
1.45327e-05
6.05974e-06
1.50812e-05
9.14355e-06
1.32023e-05
6.14111e-06
1.49518e-05
2.77659e-06
1.65911e-05
6.46515e-06
1.64113e-05
1.07473e-06
1.68583e-05
6.97357e-06
9.86069e-06
1.33043e-05
7.10947e-06
1.69102e-05
1.70316e-05
1.5201e-05
1.53695e-05
1.09342e-05
2.21246e-06
1.05542e-05
7.29402e-06
1.14231e-05
1.16718e-05
6.68756e-06
8.6066e-06
1.14967e-05
1.11721e-05
1.47179e-05
1.06176e-05
1.69302e-05
1.64245e-05
2.01388e-06
6.00845e-06
1.12515e-05
1.23646e-05
3.30278e-06
9.5753e-06
9.57452e-06
9.30782e-06
9.28229e-06
2.80267e-06
1.33018e-05
1.70496e-05
1.68739e-05
7.46271e-06
1.23187e-05
1.70579e-05
1.67431e-05
1.70608e-05
1.44829e-05
6.04804e-06
1.39498e-06
1.43465e-06
1.08634e-05
1.21749e-06
1.25128e-06
5.09882e-06
1.40239e-06
1.18644e-05
1.67899e-06
3.04822e-06
1.09583e-05
6.849e-06
9.00163e-06
2.21137e-06
3.55069e-06
3.40238e-06
2.28249e-06
3.57778e-06
1.20921e-05
8.8356e-06
2.31116e-06
8.95919e-06
6.29274e-06
6.84194e-06
3.595e-06
9.29894e-06
9.29606e-06
8.21692e-06
8.02975e-06
1.68033e-05
2.48759e-06
2.54512e-06
3.55625e-06
2.7629e-06
2.80833e-06
6.56504e-06
9.75641e-06
1.41129e-05
1.36688e-05
4.80931e-06
9.31444e-06
3.60118e-06
1.24062e-05
1.94164e-06
1.16168e-05
1.80379e-06
1.32994e-05
1.39649e-05
1.67219e-05
1.70698e-05
7.52548e-06
2.68431e-06
1.34081e-05
1.09578e-05
1.73045e-05
1.17063e-05
4.53366e-06
1.24291e-05
1.02013e-05
1.61333e-05
1.89738e-06
1.52703e-05
8.37953e-06
7.25835e-06
1.47626e-05
1.3428e-05
6.4321e-06
8.00222e-06
1.6705e-05
1.31627e-05
5.7213e-06
1.73919e-05
7.64281e-06
7.64323e-06
1.61582e-05
3.80828e-06
3.82509e-06
3.66644e-06
1.19214e-05
1.55655e-05
8.42907e-06
1.32008e-05
4.55456e-06
1.00084e-05
1.37083e-05
1.13815e-05
1.30567e-05
1.67389e-05
1.62206e-05
1.23922e-05
1.05869e-05
1.40686e-05
4.49283e-06
1.3457e-05
2.64548e-06
1.56369e-05
4.79923e-06
1.32066e-05
1.0188e-05
5.54553e-06
2.07629e-06
1.58516e-05
3.83456e-06
1.81209e-05
1.44741e-05
1.86951e-06
1.36715e-05
1.70235e-05
5.58114e-06
4.84252e-06
4.09864e-06
3.31461e-06
9.34737e-06
6.33248e-06
6.34494e-06
1.02907e-05
9.24693e-06
1.70724e-05
1.7324e-05
6.1846e-06
1.57953e-05
1.01275e-05
1.63445e-05
3.74302e-06
3.97014e-06
1.7775e-06
1.42492e-05
6.3485e-06
6.35568e-06
1.52911e-05
1.30293e-05
5.12705e-06
2.55213e-06
2.5088e-06
1.31376e-05
1.44159e-06
1.40575e-06
1.66709e-05
1.0244e-05
1.34261e-05
1.45055e-05
9.24195e-06
2.48836e-06
3.74227e-06
1.15201e-05
3.85969e-06
3.80463e-06
1.49506e-05
1.60575e-05
1.3936e-05
1.15558e-05
1.47523e-05
1.61327e-05
1.6512e-05
5.77975e-06
2.48419e-06
1.00051e-05
1.66359e-06
1.72079e-06
3.02593e-06
3.0702e-06
2.89533e-06
1.36794e-05
1.30447e-05
1.13497e-05
1.67212e-05
4.57747e-06
7.29976e-06
1.46483e-05
1.70845e-05
1.04318e-05
7.47892e-06
3.27522e-07
8.96885e-06
1.24187e-05
1.71583e-05
8.25182e-06
1.70795e-05
1.31646e-05
1.40606e-05
9.40439e-06
1.72573e-05
7.32267e-06
7.50539e-06
7.67953e-06
1.67539e-05
1.12999e-05
5.74837e-06
3.91629e-06
8.30696e-06
7.3722e-06
7.40576e-06
1.25738e-05
1.13908e-05
1.67549e-05
1.02058e-05
1.71276e-06
1.46104e-05
3.80031e-06
1.5405e-05
1.34068e-05
1.14242e-05
1.70644e-05
9.02286e-06
1.70478e-05
4.55991e-06
2.81691e-06
2.76913e-06
7.22111e-06
6.71049e-06
1.13744e-05
8.44131e-06
1.58727e-06
1.49568e-05
1.18346e-05
1.65625e-05
9.48315e-06
1.1801e-05
1.76029e-05
7.10199e-06
7.10037e-06
3.33689e-06
1.21693e-05
1.64804e-05
8.57712e-06
4.75967e-06
3.23708e-06
3.03228e-06
3.07918e-06
1.58098e-05
1.69653e-06
1.75629e-06
7.49385e-06
1.69142e-05
1.25716e-05
1.70797e-05
1.70292e-05
1.06857e-05
1.2666e-05
1.60191e-05
2.5146e-06
2.12733e-06
2.66744e-06
3.13858e-06
4.13595e-06
4.62988e-06
1.08734e-05
5.14994e-06
1.31547e-05
4.06097e-06
4.06441e-06
5.70956e-06
3.93365e-06
1.03582e-05
8.32601e-06
1.26149e-05
7.79696e-06
9.84617e-06
1.08632e-05
1.2505e-05
1.19834e-05
9.84302e-06
1.14785e-05
1.03668e-05
9.57419e-06
7.28514e-06
9.47696e-06
7.70748e-06
7.92493e-06
7.92506e-06
4.84433e-06
5.33035e-06
5.81748e-06
6.31578e-06
6.84063e-06
7.42792e-06
4.47747e-06
1.31861e-05
1.31969e-05
1.46764e-05
1.24352e-05
7.60226e-07
7.40703e-07
1.10718e-05
8.58415e-06
7.96793e-06
7.74215e-06
2.78672e-06
9.28548e-06
9.21983e-06
9.57018e-06
9.57364e-06
6.00135e-06
1.12202e-05
1.23512e-05
2.04274e-06
1.70441e-05
2.96557e-06
6.73167e-06
4.01674e-06
1.65866e-05
1.72272e-05
4.10947e-06
1.50737e-05
4.05331e-06
1.33335e-05
5.71158e-06
1.15167e-05
1.26472e-05
3.04124e-06
9.85667e-06
9.85433e-06
9.61603e-06
9.54092e-06
2.52303e-06
1.40302e-05
1.2599e-05
2.41811e-06
1.63216e-05
1.1073e-05
1.61984e-05
1.46709e-05
1.13714e-06
1.59463e-05
1.70634e-05
1.28278e-05
3.61735e-06
1.03189e-05
7.27777e-06
1.62702e-05
1.30302e-05
8.77987e-06
1.53573e-05
9.42762e-06
1.66446e-05
1.70529e-05
1.63994e-05
1.48888e-05
1.37226e-05
2.38143e-06
1.20779e-05
4.21109e-06
1.276e-05
9.05389e-06
1.39444e-05
1.62448e-05
1.60056e-05
1.60661e-05
1.39888e-05
1.71814e-05
2.92591e-06
4.49932e-06
1.68081e-05
1.40395e-05
1.22749e-05
1.71168e-05
1.65801e-05
1.68104e-05
3.41618e-06
1.60896e-05
1.57524e-05
1.06275e-05
1.41995e-05
1.27372e-05
6.78513e-06
7.07541e-06
7.78027e-06
5.14914e-06
1.20504e-05
1.31837e-05
1.03931e-05
1.03917e-05
1.0196e-05
2.03168e-06
6.29349e-06
7.27225e-06
1.25762e-05
4.61926e-06
1.09142e-05
1.08994e-05
5.80082e-06
6.78517e-06
1.14101e-05
4.11484e-06
5.30559e-06
3.61988e-06
4.80158e-06
4.2917e-06
3.19918e-06
8.51561e-06
8.51622e-06
2.73503e-06
1.48755e-05
7.62336e-06
1.40814e-05
1.62133e-05
5.20208e-06
1.75047e-05
1.70376e-05
3.27556e-06
1.70512e-05
1.64019e-05
1.63505e-05
1.24133e-05
3.35716e-06
1.70508e-05
1.70755e-05
1.40658e-05
1.409e-05
1.65112e-05
1.70397e-05
9.35097e-06
6.33028e-06
1.68776e-05
1.7073e-05
1.1952e-05
1.99953e-06
1.63009e-05
6.35883e-06
5.60186e-06
4.85228e-06
4.09663e-06
1.68579e-05
3.30118e-06
4.83385e-06
1.42231e-05
1.48353e-05
1.70598e-05
1.69324e-05
8.01725e-06
8.40301e-06
1.68196e-05
7.93054e-06
7.93118e-06
1.39811e-05
9.43259e-06
1.14956e-05
1.69728e-05
1.63817e-05
1.27533e-06
1.05314e-05
2.75712e-06
1.15896e-05
7.17729e-06
1.68158e-05
1.26399e-05
3.99658e-06
8.00004e-06
1.10743e-05
1.36911e-05
4.32254e-06
1.28182e-05
1.70482e-05
1.36458e-05
4.78587e-06
1.70553e-05
1.70561e-05
2.2075e-06
1.7044e-05
1.37649e-06
1.61379e-05
8.78769e-06
1.37957e-05
6.98169e-06
1.6303e-05
7.39288e-07
1.08085e-06
1.24591e-05
1.15348e-06
9.60286e-07
9.50847e-06
1.30672e-05
5.28137e-06
1.49943e-06
8.79395e-06
1.70275e-05
3.75595e-06
5.92605e-06
1.69894e-05
1.35504e-06
1.64089e-05
4.36771e-06
1.23454e-05
5.98288e-06
1.15335e-05
8.91206e-06
1.11141e-05
1.53778e-05
1.70488e-05
1.23122e-05
1.5318e-05
1.38855e-05
6.51593e-06
1.60461e-05
1.67731e-05
3.17263e-06
1.34677e-05
1.70341e-05
1.70908e-05
1.23974e-05
1.14658e-05
1.72817e-05
7.35373e-06
7.35127e-06
1.72479e-05
6.69365e-07
1.4161e-05
1.25296e-05
4.3035e-06
9.46615e-06
1.48951e-05
5.50886e-06
1.0407e-05
1.29029e-05
1.71964e-05
1.36356e-06
1.20412e-05
1.08064e-05
1.40068e-05
1.00277e-05
1.08337e-05
7.95507e-06
1.55415e-05
1.70549e-05
1.39534e-05
1.40949e-05
1.70467e-05
8.19847e-06
8.19693e-06
4.5983e-06
3.89226e-06
1.11062e-05
7.03687e-06
9.86155e-06
7.42867e-06
6.26001e-06
1.21017e-05
1.58985e-05
1.50772e-05
6.4258e-06
1.70846e-05
8.35187e-06
1.0782e-05
1.59131e-05
9.55959e-06
1.24309e-05
1.00789e-05
1.74717e-05
1.70227e-05
1.55077e-05
1.62451e-05
1.10911e-05
1.7298e-05
1.19192e-05
1.6281e-05
1.71352e-05
1.65824e-05
4.54987e-06
8.14783e-06
8.347e-06
1.45283e-05
1.63727e-05
1.00484e-05
1.66912e-05
1.70927e-05
1.40399e-05
1.33178e-05
1.15619e-05
8.58817e-06
1.7736e-06
1.09625e-05
1.64373e-05
1.70569e-05
1.36216e-05
1.52705e-05
7.50084e-06
1.62206e-05
1.22127e-05
7.37647e-06
9.91145e-06
5.78222e-06
1.72147e-05
7.38363e-06
2.25336e-06
8.71098e-06
1.20516e-05
1.18545e-05
9.83976e-06
7.87576e-06
1.59711e-05
1.70521e-05
1.66564e-05
1.23212e-05
9.70174e-06
1.395e-05
1.17546e-05
1.52345e-05
1.70434e-05
1.39629e-05
1.1753e-05
1.6709e-05
1.63696e-05
1.13208e-05
1.27787e-05
1.11302e-05
1.34325e-05
9.74279e-06
4.29885e-06
2.02313e-06
1.95276e-06
3.20864e-06
3.34242e-06
3.27595e-06
7.65049e-06
7.64965e-06
9.21028e-06
8.49629e-06
1.09794e-05
1.30516e-05
1.44577e-05
1.62714e-06
2.37506e-06
1.93969e-07
1.70011e-05
8.34307e-06
7.78665e-07
1.65943e-05
1.67604e-05
1.3371e-05
6.90432e-06
6.90697e-06
8.6755e-06
1.53614e-05
6.07142e-06
8.8035e-06
1.16111e-05
1.42404e-05
8.9516e-06
1.26712e-05
4.99252e-06
1.64086e-05
1.45672e-05
1.69094e-05
1.71781e-05
1.47897e-06
1.62795e-05
7.98224e-06
8.71613e-06
1.70495e-05
9.98055e-06
3.01314e-06
1.6322e-05
1.48043e-06
7.29245e-06
1.32057e-05
1.13651e-05
1.28173e-05
5.07751e-06
1.10471e-06
2.98625e-06
1.29955e-05
1.18142e-05
1.71403e-05
1.70509e-05
1.03755e-05
1.21691e-05
2.15334e-06
8.55081e-06
8.38587e-06
1.35504e-05
1.70918e-05
1.7335e-05
1.45062e-05
1.31504e-06
1.50893e-05
7.82261e-06
7.6514e-06
1.06446e-05
9.10757e-06
6.58105e-06
1.01711e-05
1.3221e-05
1.53045e-05
7.04126e-06
7.0411e-06
6.58849e-06
5.85058e-06
5.10237e-06
4.35008e-06
1.62981e-05
3.57215e-06
1.35528e-05
8.49081e-06
1.70503e-05
1.69707e-05
1.63676e-05
1.26257e-05
1.42914e-05
1.19896e-05
1.45684e-05
1.18963e-05
1.50719e-05
9.60042e-06
1.68151e-05
1.06465e-05
7.7187e-06
1.76268e-05
1.11231e-05
1.29887e-05
3.83285e-06
2.91639e-06
4.56546e-06
5.2999e-06
8.17773e-06
6.05195e-06
8.18257e-06
2.13096e-06
1.63207e-05
1.71333e-05
1.58284e-05
1.53574e-05
8.51061e-07
8.68199e-07
9.01839e-06
7.06724e-06
1.18308e-05
1.6662e-05
1.59286e-05
1.70424e-05
1.70199e-05
1.7072e-05
1.51186e-05
1.6225e-05
1.62115e-05
4.02692e-06
1.69602e-05
9.59429e-06
1.23519e-05
1.50428e-05
1.69723e-05
1.54371e-05
4.09185e-06
1.30976e-05
5.97999e-06
1.64204e-05
1.43149e-05
1.36611e-05
1.61145e-05
1.65242e-05
1.82225e-06
1.72854e-05
2.40834e-06
2.91287e-06
5.08707e-06
5.57225e-06
4.38048e-06
6.0638e-06
1.22426e-05
1.0619e-05
1.061e-05
4.88443e-06
7.53723e-06
6.57182e-06
1.01107e-05
1.0111e-05
1.17336e-05
1.28852e-05
5.42279e-06
8.0598e-06
7.12586e-06
1.64474e-05
3.89198e-06
1.42481e-05
1.61156e-05
1.65988e-05
8.57334e-06
1.48982e-05
5.82115e-06
1.18735e-05
1.72769e-05
3.97879e-06
1.62691e-05
1.70484e-05
1.48479e-05
1.09707e-05
1.64429e-05
1.16092e-05
2.11282e-06
1.63793e-05
1.34758e-05
1.37073e-05
8.86091e-06
1.25899e-05
4.11808e-06
5.6555e-06
1.35898e-05
1.72335e-05
6.74887e-06
1.69279e-05
6.75429e-06
1.70942e-05
1.63173e-05
1.70068e-05
1.20656e-05
1.60836e-05
9.54323e-06
1.49281e-06
5.05206e-06
1.63753e-05
8.23465e-06
1.70842e-05
1.063e-06
1.95997e-06
1.29182e-05
1.38595e-05
1.21045e-05
1.65854e-05
1.27343e-05
8.88558e-06
6.81689e-06
1.39538e-06
6.82771e-06
3.65015e-06
1.01402e-05
7.37004e-06
6.79408e-06
1.13448e-05
3.08121e-06
7.36276e-06
7.1448e-06
8.47e-06
8.46881e-06
4.35029e-06
8.03331e-06
1.21926e-05
3.5736e-06
3.79913e-06
1.556e-05
8.83742e-06
1.66486e-05
1.56861e-05
1.54856e-06
1.48824e-06
1.03683e-05
1.66004e-05
4.26169e-06
4.25607e-06
2.48059e-06
9.32522e-06
9.28429e-06
1.62408e-05
1.63521e-05
1.61074e-05
1.42845e-05
1.08836e-05
1.70486e-05
1.74059e-05
1.45614e-05
1.06392e-05
1.15128e-05
1.70587e-05
7.80725e-06
7.50924e-06
1.38783e-05
1.74429e-05
1.56711e-05
1.50929e-05
2.49292e-06
4.27815e-06
8.10523e-06
1.37745e-05
1.66711e-05
5.53607e-06
2.09529e-06
3.75308e-06
1.72966e-05
1.70296e-05
1.73191e-05
1.38049e-05
1.73216e-05
1.39441e-05
4.81925e-06
1.70032e-05
1.6089e-05
6.77723e-06
1.51153e-05
1.28546e-05
1.13458e-05
6.44776e-06
1.74391e-05
1.70321e-05
1.70008e-05
1.70473e-05
1.47714e-05
1.4796e-05
1.6456e-05
9.35884e-06
6.29049e-06
3.30628e-06
1.76828e-05
4.0995e-06
4.83251e-06
5.54964e-06
6.27494e-06
1.61336e-05
1.63955e-05
1.03862e-05
1.75261e-05
2.74043e-06
1.70208e-05
4.2489e-06
1.30939e-05
9.85918e-06
1.67435e-05
7.85216e-06
1.46785e-06
1.52844e-06
1.47891e-05
1.32759e-05
2.65101e-06
2.78397e-06
1.628e-05
4.01869e-06
8.21414e-06
1.71105e-05
4.04799e-06
1.13932e-05
1.21894e-05
1.44104e-05
1.63515e-05
3.86653e-06
1.69642e-05
9.86143e-06
9.94327e-06
5.79802e-06
4.35266e-06
1.07578e-05
7.98339e-06
1.72547e-05
7.44608e-06
7.4462e-06
1.24984e-05
1.31099e-05
1.7047e-05
2.58871e-06
1.46334e-05
8.27659e-07
1.3456e-06
1.35152e-05
4.72953e-06
1.73297e-05
4.15493e-06
1.65424e-06
2.3696e-06
1.64264e-05
1.70132e-05
1.5544e-05
1.73413e-06
1.68479e-06
2.84774e-06
3.04968e-06
2.97378e-06
9.71578e-06
6.02701e-06
5.99123e-06
1.64324e-05
1.55571e-05
1.65222e-05
5.42975e-06
1.69765e-05
2.54621e-06
2.40517e-06
1.25873e-05
1.62802e-05
6.25814e-06
1.73545e-05
1.77357e-05
1.64621e-05
1.42589e-05
4.63568e-06
1.70007e-05
5.42293e-06
2.72463e-06
8.58382e-06
2.75775e-06
9.17745e-06
9.21589e-06
3.3942e-06
1.23048e-05
1.11913e-05
6.07105e-06
9.52685e-06
9.54105e-06
2.11559e-06
1.69268e-05
1.08836e-05
1.42617e-05
1.67962e-05
1.56775e-05
3.60466e-06
1.70399e-05
1.6587e-05
1.32826e-05
3.81578e-06
9.12438e-06
6.50948e-06
1.67296e-05
4.83358e-06
1.55396e-05
3.81559e-06
3.58525e-06
4.34703e-06
5.07144e-06
5.78913e-06
6.48897e-06
1.6082e-05
1.36281e-05
1.41947e-05
8.26721e-06
1.26614e-05
5.01374e-06
1.64058e-05
1.32139e-05
1.53328e-05
1.65119e-05
1.71711e-05
1.5824e-05
1.11138e-05
1.66738e-05
1.69437e-05
1.51275e-05
1.65498e-05
9.91191e-06
5.79962e-06
1.43076e-05
1.6438e-05
1.7651e-05
9.34858e-06
8.35141e-06
1.18563e-05
1.68231e-05
1.60393e-05
1.13608e-05
1.25115e-05
1.38305e-05
1.55257e-05
1.08948e-05
9.72959e-06
1.704e-05
1.69411e-05
1.17064e-05
1.04374e-05
7.53553e-06
7.5342e-06
1.64872e-05
3.49973e-06
1.54502e-05
5.83045e-06
5.08848e-06
4.34898e-06
3.58117e-06
7.61656e-06
1.69733e-05
3.21094e-06
1.09481e-05
1.70967e-05
1.71946e-05
2.22561e-06
1.07971e-05
1.37826e-06
1.48419e-05
9.0863e-06
1.51004e-05
8.26068e-07
8.08919e-07
1.77176e-05
8.3646e-06
1.73291e-05
1.69387e-05
1.59778e-05
7.16244e-06
1.83761e-06
1.76337e-06
1.65104e-05
1.70589e-05
1.70409e-05
1.44498e-05
8.64247e-06
1.68892e-05
1.94073e-06
1.4376e-05
1.70607e-05
9.09243e-06
6.59121e-06
1.49257e-05
6.59794e-06
1.61366e-05
1.70244e-05
1.42652e-05
1.09242e-05
1.6741e-05
1.4601e-05
1.66776e-05
1.70492e-05
1.62463e-05
6.94661e-07
1.65558e-05
1.61793e-05
1.70398e-05
1.70363e-05
1.34121e-05
1.487e-05
1.70648e-05
1.70598e-05
1.68064e-05
8.28006e-06
1.77056e-05
1.6773e-05
1.00586e-05
1.70357e-05
1.48266e-05
1.07083e-05
3.17986e-06
1.48496e-05
1.50676e-05
1.15903e-05
3.99371e-06
1.23644e-05
8.49029e-06
1.66582e-05
1.65039e-06
1.64391e-05
1.6506e-05
6.8292e-07
1.71071e-05
2.0088e-06
1.93709e-06
3.14636e-06
3.32712e-06
3.28938e-06
1.47887e-05
1.60075e-05
2.76289e-06
1.9441e-06
1.17393e-05
8.40339e-06
8.34029e-06
5.82746e-06
2.74186e-06
5.06521e-06
4.35741e-06
3.60179e-06
8.97521e-07
1.11711e-05
8.91655e-06
8.89461e-06
3.06748e-06
2.36285e-06
6.40789e-06
1.09014e-05
1.20036e-05
3.69379e-06
9.21495e-06
9.22748e-06
1.53746e-05
1.05547e-05
1.6338e-05
1.35614e-05
1.70759e-05
1.69295e-05
1.70856e-05
8.6212e-07
7.90491e-06
1.70301e-05
1.70661e-05
1.69176e-05
7.42651e-06
7.42631e-06
1.55436e-05
1.58323e-06
1.39024e-05
1.52503e-05
1.22489e-05
1.00504e-05
9.19949e-06
2.19418e-06
5.30865e-06
4.59233e-06
3.86195e-06
1.73244e-05
1.49536e-05
8.13393e-06
8.10401e-06
6.10849e-06
2.9919e-06
1.52387e-05
1.68322e-05
5.10533e-06
8.31327e-06
1.61717e-05
1.73374e-05
7.29588e-06
1.39112e-05
2.67412e-06
1.68243e-05
1.71073e-05
1.61626e-05
1.73371e-05
4.36108e-07
1.7022e-05
1.64903e-05
4.32649e-06
1.33376e-05
9.62069e-06
6.057e-06
2.53597e-06
2.36936e-06
1.70726e-05
3.78255e-06
3.88324e-06
1.70512e-05
1.70637e-05
4.84742e-06
4.36089e-06
2.07354e-06
1.73123e-05
1.05274e-05
1.71967e-05
8.22785e-06
3.54961e-06
1.63183e-05
3.83781e-06
4.60225e-06
5.35216e-06
6.10192e-06
1.69821e-05
1.71457e-05
1.70531e-05
9.86527e-06
5.88359e-06
1.46225e-05
1.47344e-05
1.57047e-05
1.76379e-05
1.59237e-05
3.8449e-06
1.70556e-05
1.4575e-05
1.60389e-05
9.74419e-07
9.9698e-07
1.55343e-05
1.70935e-05
1.63231e-05
9.73811e-06
5.98116e-06
1.29331e-05
1.49818e-05
1.04659e-05
7.01046e-06
1.71437e-05
1.45095e-05
1.65377e-05
1.67634e-05
4.21815e-06
1.25915e-05
4.06236e-06
1.55653e-06
8.14455e-06
1.59472e-05
3.02914e-06
4.13152e-06
1.92423e-06
1.984e-06
1.03671e-05
1.70134e-05
3.2542e-06
3.32709e-06
3.05406e-06
1.12189e-05
1.63095e-05
1.70187e-05
1.63666e-05
1.64469e-05
1.70745e-05
9.7719e-06
9.77548e-06
1.2523e-05
9.54746e-06
1.7051e-05
1.15411e-05
2.63661e-06
9.4999e-06
5.82533e-06
3.01736e-06
1.15026e-05
1.7038e-05
1.68067e-05
3.02733e-06
3.05372e-06
9.3317e-06
1.28459e-05
1.36455e-05
1.70532e-05
1.7522e-05
2.78082e-06
2.79441e-06
1.34137e-05
1.62801e-05
4.03276e-06
8.38297e-06
1.672e-05
4.36452e-06
1.62582e-05
2.92414e-06
1.13474e-05
1.7347e-05
1.59854e-05
1.74191e-06
2.44271e-06
6.52136e-06
1.21062e-05
1.28253e-05
8.93377e-06
1.03939e-05
9.49038e-06
1.56785e-05
1.67366e-05
1.40137e-05
6.45481e-06
3.41761e-06
5.09805e-06
5.84992e-06
1.07122e-05
1.70392e-05
1.71795e-05
1.25868e-06
1.696e-05
7.17844e-06
4.61034e-06
2.75017e-06
7.51164e-06
1.3892e-05
9.11052e-06
3.85795e-06
8.09318e-06
7.75699e-06
1.75689e-05
1.73831e-05
5.83553e-06
1.3412e-05
1.52297e-05
5.34389e-06
6.09443e-06
9.12312e-06
1.27841e-06
1.70074e-05
4.57173e-06
4.48164e-06
9.18841e-07
4.55706e-06
5.42954e-06
1.17147e-05
1.28672e-05
1.01031e-05
1.0128e-05
9.80761e-06
9.72393e-06
2.24741e-06
1.68256e-05
3.43306e-06
3.6179e-06
2.28829e-06
2.08987e-06
5.97879e-06
3.20081e-06
3.83413e-06
1.16568e-05
5.34125e-06
8.36954e-07
1.69808e-05
1.8277e-06
6.60605e-06
7.55241e-06
4.87246e-06
1.21959e-05
1.0617e-05
1.06012e-05
1.33636e-05
3.50893e-06
4.08023e-06
2.19929e-06
4.79029e-06
2.36453e-06
1.59815e-05
6.08486e-06
7.05969e-06
1.10889e-05
4.37984e-06
1.10539e-05
1.26576e-05
5.59143e-06
3.91124e-06
5.11626e-06
4.65242e-06
3.31731e-06
1.31767e-05
2.88309e-06
5.5305e-06
8.72412e-06
8.08426e-06
8.08309e-06
3.90201e-06
2.17061e-06
2.27791e-06
1.70621e-05
2.22794e-06
2.28766e-06
1.74764e-06
6.69678e-06
1.75358e-05
6.70963e-06
3.5428e-06
2.99658e-06
1.62429e-05
3.60435e-06
3.54621e-06
3.46916e-06
1.57901e-05
3.57679e-06
3.33175e-06
2.40928e-06
1.51122e-05
1.64126e-05
7.68321e-06
1.70755e-05
1.34511e-05
8.72477e-06
5.31866e-06
5.99139e-06
1.98351e-06
8.00114e-06
1.09906e-05
1.33693e-05
2.83258e-06
2.7116e-06
1.57663e-05
6.73051e-07
1.44252e-06
1.39491e-05
7.59947e-06
7.59978e-06
1.37828e-05
1.70139e-05
3.26604e-06
9.66875e-06
9.66744e-06
5.93802e-06
1.04731e-05
1.37203e-05
2.72785e-06
9.37641e-06
9.28205e-06
1.70479e-05
1.88759e-06
1.40378e-05
8.4104e-06
1.05308e-05
1.13105e-05
1.24291e-05
7.39428e-06
7.32894e-06
2.86621e-06
1.83531e-06
4.79188e-06
1.26714e-05
8.50049e-06
1.0783e-05
1.19251e-05
2.66664e-06
3.20579e-06
3.41214e-06
1.69876e-05
4.30299e-06
6.06797e-06
1.70361e-05
5.03444e-06
4.31084e-06
3.68599e-06
4.30934e-06
5.77471e-06
7.28597e-06
2.67685e-06
1.37087e-05
1.24218e-05
1.0238e-05
3.03901e-06
3.02315e-06
1.56452e-05
6.94818e-06
1.03422e-05
6.58638e-06
1.14882e-05
3.45092e-06
4.19335e-06
8.66139e-06
8.66705e-06
8.3502e-06
2.25639e-06
3.66604e-06
1.11362e-05
1.0892e-05
4.57618e-06
4.12833e-06
8.39622e-06
4.80706e-06
1.22268e-05
1.26927e-05
1.14036e-05
1.70428e-05
9.36755e-06
1.16902e-05
1.59846e-05
2.92122e-06
2.47516e-06
8.56551e-06
3.5857e-06
7.39543e-06
5.07464e-06
6.85394e-06
1.29526e-05
1.92897e-06
4.84398e-06
7.30628e-06
7.30534e-06
1.0079e-05
1.00904e-05
1.28287e-05
1.34585e-05
7.30064e-06
7.30275e-06
8.20604e-06
8.39424e-06
4.37358e-06
5.08196e-06
5.78404e-06
6.50559e-06
6.32245e-06
1.17329e-05
1.03601e-05
9.08015e-06
6.52467e-06
9.65638e-06
3.24748e-06
1.94175e-06
9.79164e-06
1.89746e-06
1.6092e-05
1.29401e-05
1.70555e-05
6.83394e-06
4.17315e-06
1.21755e-05
4.26405e-06
1.12766e-05
9.74754e-06
6.5754e-06
3.44601e-06
1.1406e-05
5.10048e-06
4.35094e-06
2.17374e-06
5.45621e-06
1.19875e-05
1.3196e-05
6.42158e-06
9.72759e-06
1.06776e-06
1.09109e-06
1.0144e-05
1.58529e-05
7.5322e-06
7.91598e-06
7.88008e-06
7.30755e-06
7.30941e-06
7.0704e-06
8.41026e-06
4.31003e-06
7.58003e-06
4.05047e-06
1.62156e-06
3.2669e-06
4.21222e-06
5.33919e-06
5.82547e-06
1.10894e-05
1.14458e-05
7.78319e-06
7.50901e-06
1.05174e-05
1.31439e-05
1.04344e-05
1.04138e-05
7.62783e-06
8.2837e-06
8.27955e-06
2.70931e-06
1.00811e-05
3.78731e-06
4.13847e-06
4.12193e-06
4.86582e-06
1.86957e-06
3.90598e-06
1.34529e-05
1.0681e-05
1.06751e-05
1.24583e-05
1.12365e-05
4.63697e-06
3.89249e-06
1.09656e-05
4.60766e-06
3.6313e-06
7.10267e-06
2.95188e-06
1.54871e-05
6.28671e-06
9.87765e-06
5.55394e-06
6.1977e-06
7.69939e-06
7.66951e-06
9.07496e-06
6.0724e-06
7.73911e-06
1.00834e-05