/*--------------------------------*- C++ -*----------------------------------*\
  =========                 |
  \\      /  F ield         | OpenFOAM: The Open Source CFD Toolbox
   \\    /   O peration     | Website:  https://openfoam.org
    \\  /    A nd           | Version:  8
     \\/     M anipulation  |
\*---------------------------------------------------------------------------*/
FoamFile
{
    version     2.0;
    format      ascii;
    class       surfaceScalarField;
    location    "1";
    object      phi;
}
// * * * * * * * * * * * * * * * * * * * * * * * * * * * * * * * * * * * * * //

dimensions      [0 3 -1 0 0 0 0];

internalField   nonuniform List<scalar> 
8224
(
3.98827e-10
3.69455e-10
-5.80459e-10
-1.87823e-10
2.21102e-11
3.95798e-09
-1.79982e-10
-3.80011e-09
-4.31063e-10
-1.64077e-10
-1.90707e-10
7.85847e-10
-7.54356e-09
2.81627e-09
-2.50478e-09
7.23208e-09
4.04946e-09
-7.08399e-11
1.88546e-10
-4.16716e-09
4.21905e-09
-2.74749e-10
1.69418e-10
-4.11372e-09
-4.04227e-09
-5.17228e-10
-1.50505e-10
4.71e-09
-4.50181e-09
5.08753e-10
-1.07356e-10
4.10042e-09
3.57201e-09
-3.85492e-09
2.82914e-10
-2.76133e-09
-2.99018e-09
5.48316e-09
2.68353e-10
-6.88468e-10
-1.02667e-13
6.87207e-10
1.36371e-12
-7.0112e-10
-3.58952e-09
4.92994e-09
-6.39297e-10
-9.79245e-10
-1.63309e-10
1.95751e-09
-8.14957e-10
1.86856e-09
-9.03503e-10
-8.48277e-09
7.51771e-09
4.24077e-09
-3.95726e-09
-2.83504e-10
-4.62446e-09
4.64309e-09
2.31623e-11
-4.17875e-11
-4.16205e-09
5.56256e-10
1.11529e-10
3.49427e-09
5.325e-09
-4.37916e-09
4.59869e-09
-5.54453e-09
2.4463e-09
-2.11372e-09
-4.03718e-09
3.7046e-09
-4.63537e-09
2.08899e-10
-7.53383e-11
-5.1388e-10
4.5529e-10
-4.88652e-10
5.47242e-10
-4.78546e-09
4.75282e-09
8.89718e-10
-8.57075e-10
-1.45416e-09
2.66641e-10
1.45133e-09
-2.63805e-10
-5.53863e-09
2.43478e-10
-8.90562e-11
5.38421e-09
4.77682e-09
-4.6646e-09
-9.0816e-10
7.9594e-10
-3.71224e-09
4.17865e-10
-1.51338e-10
3.44571e-09
-4.67747e-09
-6.17458e-10
5.09467e-10
-4.14416e-09
-1.6401e-10
7.41009e-11
4.23407e-09
1.52791e-10
4.00926e-09
-4.61057e-10
-3.701e-09
2.72182e-09
-7.76572e-10
-5.98368e-09
4.03844e-09
-4.42641e-11
5.14553e-11
-5.10312e-09
7.62447e-09
-6.0367e-10
-1.91767e-09
3.84293e-09
8.38531e-11
-2.10089e-10
-3.71669e-09
1.10418e-11
2.92706e-09
-3.44822e-09
5.10119e-10
2.36299e-10
4.6596e-10
-6.68391e-09
5.98165e-09
4.39637e-09
5.29682e-11
-5.59961e-11
-4.39334e-09
2.42358e-11
-2.12874e-10
-5.40926e-09
5.5979e-09
4.4323e-09
-6.67408e-11
1.73382e-10
-4.53894e-09
5.06775e-09
1.32587e-10
-5.90512e-09
7.04778e-10
-4.20101e-09
4.30612e-09
-2.1209e-10
1.06981e-10
-7.48066e-09
-4.09609e-09
6.68972e-09
4.88703e-09
4.6745e-09
3.23476e-10
-4.6348e-09
-3.63176e-10
-4.54838e-10
-5.24104e-09
4.4705e-09
1.22538e-09
3.84869e-09
-4.05758e-09
1.21766e-10
8.71201e-11
3.87946e-09
-4.29869e-09
-9.52207e-10
1.37143e-09
-3.95605e-09
3.94041e-09
8.48058e-11
-6.91673e-11
4.50653e-09
6.27669e-09
-5.19047e-09
-5.59275e-09
4.65138e-09
-4.61416e-09
-1.50143e-10
1.12921e-10
-4.20946e-09
5.18179e-09
2.77076e-10
-1.24941e-09
-1.04045e-08
-1.19055e-09
4.23258e-09
7.36251e-09
5.41576e-09
-5.57024e-09
1.54489e-10
-4.57882e-09
-8.58261e-11
4.01852e-11
3.99291e-09
-3.8678e-09
1.17485e-10
-2.42599e-10
-3.85479e-09
-8.52101e-09
2.43263e-09
9.94317e-09
-1.07738e-08
7.64436e-09
3.55231e-09
-4.22859e-10
2.47627e-11
-1.70499e-11
5.77069e-09
-7.02036e-09
1.24966e-09
5.66982e-11
-5.26285e-09
-2.26774e-10
5.43292e-09
-3.94165e-09
2.92356e-10
-1.34914e-10
3.7842e-09
4.67584e-09
4.48359e-11
-6.92879e-11
4.21469e-09
-4.11213e-09
1.07655e-10
-2.10216e-10
-4.43718e-09
4.42115e-09
-9.09384e-11
1.06974e-10
-4.59993e-09
2.16537e-10
5.75539e-10
3.80785e-09
-2.05152e-11
-3.32496e-11
4.27282e-09
-2.00117e-11
-2.97775e-10
-3.82637e-09
-5.20361e-10
4.87681e-09
1.71274e-09
-6.06918e-09
-4.75776e-09
4.36207e-09
4.81705e-09
-4.42136e-09
-5.67468e-09
7.85902e-09
2.74795e-09
-4.93229e-09
-4.2597e-09
4.28298e-09
-1.55885e-11
-7.69466e-12
-4.63434e-09
4.58323e-09
-9.52245e-11
1.46335e-10
3.66533e-09
-1.38324e-11
1.35518e-11
-3.66505e-09
-5.80753e-10
-4.08686e-09
7.33083e-10
3.93453e-09
5.78273e-09
-3.16375e-10
1.46044e-10
-5.6124e-09
8.14357e-12
5.21848e-09
2.72839e-12
-5.22935e-09
-9.46807e-09
6.67434e-09
-7.47968e-09
1.02734e-08
-2.51669e-09
2.68625e-09
-6.36195e-09
6.19239e-09
-2.30986e-10
-4.43811e-09
4.66909e-09
4.22952e-09
-6.56827e-10
-3.76071e-09
1.88016e-10
4.53399e-09
-4.46846e-09
1.06923e-11
-7.6223e-11
5.17588e-09
-5.01688e-09
1.72391e-10
-3.31395e-10
3.85168e-09
-3.46751e-09
-3.14549e-09
6.48885e-10
4.64018e-09
-4.69558e-09
-5.93486e-10
-3.13803e-09
5.03963e-09
3.53083e-09
-5.43243e-09
-4.10883e-09
-8.86771e-11
4.15391e-09
4.35958e-11
-4.0579e-09
4.13463e-09
-1.83075e-10
1.06342e-10
-8.86958e-09
4.27398e-10
2.3263e-09
6.11588e-09
-4.79464e-09
-1.0778e-09
5.17133e-09
3.64255e-09
9.99338e-12
-3.55659e-09
-9.59546e-11
-4.42694e-10
5.79447e-09
-1.75895e-10
5.09442e-09
-3.38352e-09
-7.07574e-09
5.36484e-09
-2.7575e-10
4.94767e-09
-5.19228e-09
-1.75412e-09
-4.948e-09
3.37491e-09
3.32721e-09
-4.50049e-09
4.30989e-09
4.31539e-10
-2.40943e-10
-3.64288e-09
3.55739e-09
1.11636e-10
-2.61436e-11
1.36662e-09
-1.73904e-10
3.36866e-09
-4.56138e-09
-4.37448e-09
8.4182e-10
-2.14271e-10
3.74693e-09
2.95563e-09
-7.28162e-09
-1.44321e-09
5.7692e-09
-1.23028e-10
7.80218e-11
-6.07483e-09
-7.44207e-11
1.22242e-09
4.92683e-09
3.86949e-09
-5.10765e-10
2.17961e-10
-3.57669e-09
-4.12196e-09
-1.79549e-10
1.00495e-10
8.53102e-10
-3.92894e-10
4.21429e-09
5.60045e-09
9.91472e-11
-1.58399e-10
-5.54119e-09
-3.72781e-09
-6.69915e-10
1.88273e-10
1.2418e-10
-8.26826e-11
-4.03681e-09
-1.70921e-10
8.5774e-11
-4.03091e-09
1.97504e-10
-6.01748e-11
3.89358e-09
-5.41983e-09
3.68648e-09
-2.1547e-09
3.88805e-09
-5.12687e-09
3.54929e-09
1.57758e-09
-3.00271e-09
3.83389e-09
-6.5243e-09
5.69311e-09
-4.78476e-09
4.9709e-09
4.2709e-09
-4.45705e-09
3.60986e-09
8.06916e-11
-1.12783e-10
-3.57777e-09
-4.00746e-09
-1.54803e-10
1.04362e-10
-1.57081e-09
4.04373e-09
-6.02781e-09
3.55489e-09
-6.48064e-10
-1.07784e-10
6.73793e-11
3.8346e-09
3.58676e-10
-4.34936e-09
1.56085e-10
2.68883e-09
2.48837e-09
-1.03012e-09
-4.14707e-09
-3.9129e-09
3.90137e-09
6.66275e-13
1.08601e-11
1.01954e-09
9.96178e-10
-6.31929e-09
4.30357e-09
-8.32432e-09
2.71217e-09
7.48072e-09
-2.44938e-09
2.69988e-09
-4.6737e-09
4.4232e-09
-3.75997e-09
3.6117e-09
1.55742e-10
-7.46478e-12
-5.50299e-09
1.48279e-10
-2.003e-10
5.55501e-09
1.53264e-10
-3.83324e-11
-3.88239e-09
3.76745e-09
-2.60751e-09
2.44194e-09
-2.10157e-09
2.26714e-09
1.09946e-10
-4.31863e-09
-2.93556e-10
4.50224e-09
-7.34109e-09
4.57829e-09
-2.3992e-10
1.75621e-10
-3.48907e-10
-3.79206e-09
3.96535e-09
-3.27828e-09
8.54275e-10
3.68834e-09
-1.26433e-09
-5.84446e-09
3.94116e-09
4.85893e-09
6.17673e-11
-3.39135e-09
3.32958e-09
-7.3687e-10
-4.19267e-09
1.19105e-09
3.73849e-09
-4.34143e-09
4.4699e-09
6.04661e-11
-1.88936e-10
-8.23336e-10
3.57522e-09
-2.74078e-09
-1.11013e-11
-3.86213e-09
-8.12436e-12
-4.26512e-11
3.46965e-10
-8.58457e-09
-5.82288e-11
1.41643e-10
-5.57051e-09
5.48709e-09
-5.2355e-09
4.88739e-09
-1.84364e-09
2.19176e-09
-3.16503e-11
3.31438e-09
-3.28273e-09
4.93711e-09
-1.66749e-10
4.77967e-11
-4.81816e-09
3.72035e-09
7.94931e-11
-1.28807e-10
-3.67103e-09
-1.52885e-09
8.67155e-10
4.24282e-09
-3.58112e-09
4.61969e-09
-8.71343e-09
7.14568e-09
-3.05194e-09
-3.99563e-09
5.58497e-11
-9.70302e-11
3.94009e-09
-3.88511e-09
7.35169e-11
-1.28499e-10
4.46836e-09
-4.78419e-09
6.24895e-10
-3.09064e-10
-6.00825e-09
3.0787e-09
-3.20098e-09
6.13053e-09
-4.4217e-09
5.19074e-11
4.69046e-09
-3.20668e-10
-6.97272e-09
2.88216e-09
6.45341e-09
-2.36285e-09
3.84207e-09
-3.78416e-09
7.61447e-11
-1.34058e-10
7.65936e-10
-1.94136e-09
4.04295e-09
-2.86752e-09
-1.99337e-08
1.4734e-10
1.97864e-08
2.50175e-11
-3.89533e-09
3.86662e-09
3.68572e-12
1.47581e-09
-6.84794e-09
-1.13447e-09
6.5066e-09
4.11799e-09
5.50504e-09
-4.29803e-09
5.11022e-09
-2.0801e-10
3.48971e-11
-1.68641e-10
-6.37941e-09
-1.10291e-09
7.65096e-09
-3.44694e-09
3.63573e-09
-1.05505e-10
-8.3289e-11
3.68267e-09
-1.30311e-10
-1.26371e-10
-3.42598e-09
4.1022e-11
-3.18329e-09
3.14226e-09
-2.57011e-10
4.71476e-10
4.2539e-09
-1.24702e-09
3.73977e-10
-4.54679e-09
-4.81885e-09
-5.81637e-09
4.62698e-09
-5.26007e-09
1.99835e-09
-7.179e-11
3.33351e-09
7.33298e-11
4.97268e-09
-4.72253e-09
-5.72251e-09
-1.0859e-09
6.72204e-09
8.63669e-11
-2.16261e-10
-4.81044e-09
4.85996e-09
-4.33457e-09
4.47009e-09
-3.19153e-10
1.83633e-10
-1.01946e-10
5.7114e-11
5.37741e-09
-2.2127e-09
2.09011e-09
-5.25482e-09
-3.65402e-09
3.61743e-09
-8.13499e-11
1.17945e-10
4.72315e-09
-7.05198e-10
-4.0882e-09
7.02515e-11
-1.50763e-10
8.34003e-11
-4.60784e-09
-1.29938e-08
-1.23492e-09
8.20511e-09
-9.95481e-09
-9.86727e-09
1.1617e-08
2.29546e-09
5.23637e-09
-3.68016e-09
-8.50319e-09
6.94496e-09
9.76334e-09
-4.47302e-09
5.77761e-10
3.89526e-09
3.44112e-09
-1.83501e-09
6.60048e-10
-2.26616e-09
4.6123e-09
-3.74443e-09
-1.6629e-09
7.95027e-10
-7.01499e-09
-9.99859e-10
1.00702e-09
7.00782e-09
-4.26652e-09
4.48866e-09
6.26227e-09
-6.4844e-09
-7.62855e-09
-2.22581e-09
7.33767e-09
9.6174e-11
3.50768e-10
-6.23659e-09
5.78965e-09
-7.54725e-09
-4.61636e-09
1.75906e-09
-3.90068e-09
3.80084e-09
1.2321e-10
-2.33732e-11
-3.87208e-09
3.88694e-11
-2.89185e-11
1.99746e-09
-1.22136e-08
1.13583e-08
-1.14207e-09
-5.19326e-09
4.98008e-09
-1.282e-10
3.41377e-10
-3.15372e-10
4.44052e-11
-3.0315e-09
-8.42515e-09
8.31963e-09
3.13701e-09
3.67941e-09
4.30623e-09
-5.26383e-09
4.04504e-09
-3.9669e-09
-1.54787e-10
7.66385e-11
3.41776e-09
3.78635e-09
-3.35542e-09
3.77032e-09
6.88911e-10
-1.0181e-09
-4.63211e-09
3.53146e-09
-1.46371e-10
4.06604e-09
-3.90231e-09
2.34733e-10
-3.98458e-10
-4.24174e-09
4.1669e-09
-1.44639e-10
2.19473e-10
5.65937e-09
-3.54764e-10
-5.45676e-09
1.52153e-10
-8.08232e-09
5.80152e-09
-3.56366e-09
-5.3642e-09
-3.47629e-09
2.70884e-09
6.13165e-09
-6.36063e-09
1.10892e-09
5.47128e-09
-2.19565e-10
-3.87672e-09
-1.37722e-10
-4.31401e-11
-4.2299e-09
-3.16482e-10
1.24689e-10
8.07924e-10
-4.53555e-09
4.17695e-09
-4.49331e-10
-4.91482e-09
-1.87686e-09
2.30569e-09
4.486e-09
-4.48115e-09
5.06827e-10
3.2681e-11
4.62962e-10
-4.49155e-09
4.42996e-09
-5.97704e-10
3.72335e-11
-3.90481e-09
3.87794e-09
-4.21559e-09
4.24246e-09
-2.83218e-10
1.01221e-09
-4.6338e-09
-7.93446e-09
-3.0546e-09
7.95757e-09
4.20959e-09
-4.36685e-09
1.57257e-10
2.92862e-09
-7.50917e-09
-2.39217e-09
3.92642e-09
-2.42859e-10
-3.65854e-09
-4.08782e-09
-1.24369e-10
4.10505e-09
1.07136e-10
1.29419e-08
-1.57111e-08
-8.43522e-09
1.12044e-08
-4.84592e-09
-1.26907e-09
5.88401e-09
-1.4794e-09
5.50212e-09
-5.76631e-10
-5.15259e-09
-8.86337e-10
6.61555e-09
-1.27107e-09
2.68806e-10
-3.37221e-09
-4.44064e-10
-1.38621e-10
6.88048e-11
-3.98341e-09
5.4965e-11
-2.76081e-11
2.74627e-09
-4.27355e-09
-4.98362e-09
6.5109e-09
6.81371e-11
-4.05975e-09
3.99162e-09
-7.79604e-09
3.68146e-09
5.13412e-09
-5.85507e-09
-1.54652e-08
6.72954e-09
1.45907e-08
1.40771e-10
4.06882e-09
3.88134e-09
-3.54241e-09
2.09976e-10
-5.48902e-10
4.06618e-09
-4.04773e-09
-3.07987e-09
3.06141e-09
1.31081e-08
-1.41279e-08
7.05248e-09
-6.03266e-09
-1.29492e-10
6.57121e-11
1.27151e-09
1.28607e-08
-1.35251e-08
-6.07133e-10
-1.11515e-09
-3.27518e-09
2.28276e-10
3.90366e-09
-3.8256e-09
-1.44741e-10
6.66742e-11
6.59711e-09
-5.61337e-09
-4.27509e-09
3.29136e-09
1.06402e-10
-3.80654e-11
-1.57948e-09
4.08636e-10
-4.90399e-09
-3.97847e-09
6.55614e-10
4.08879e-09
-5.73103e-09
4.55324e-10
-1.46374e-10
5.42208e-09
-4.50335e-09
1.4974e-10
-8.35708e-11
4.17228e-09
-4.68491e-09
-2.36273e-10
7.48901e-10
-4.14375e-09
-1.73882e-09
4.16692e-09
1.71565e-09
-8.4943e-10
-4.64345e-09
4.62627e-09
8.66615e-10
5.78161e-09
3.59745e-10
-1.01805e-09
-5.12331e-09
-4.56877e-09
1.03463e-09
-1.2044e-09
4.73854e-09
-4.73979e-09
5.9298e-09
-1.19e-09
-5.13033e-09
-4.04459e-09
3.33915e-09
5.83577e-09
-3.92659e-09
5.17239e-10
-4.85977e-10
2.30289e-10
-3.92222e-09
-6.80413e-11
1.58049e-09
-5.54791e-09
-6.64689e-10
3.53564e-09
-1.26886e-10
-3.46173e-09
5.29758e-11
-4.18732e-09
-7.03271e-10
1.24443e-09
3.64616e-09
-6.53523e-11
-4.33308e-12
4.60551e-09
-3.98822e-09
2.78546e-09
-3.40275e-09
3.79312e-10
-1.19041e-10
4.1361e-09
-1.04959e-08
2.98916e-09
7.71715e-09
-2.10389e-10
3.71788e-09
-1.13735e-10
-3.65762e-09
5.34741e-11
1.0319e-09
-9.86442e-09
7.92902e-09
5.20579e-09
3.40535e-10
-6.31346e-10
-4.91498e-09
-4.76269e-09
-3.30814e-10
5.57165e-10
4.53634e-09
-3.25668e-09
-5.52028e-09
6.42236e-09
2.3546e-09
-7.35283e-09
-9.09566e-09
-3.67759e-09
-2.46272e-11
5.93354e-11
-1.90043e-08
1.61189e-08
-2.96968e-09
-4.23403e-09
-2.39003e-10
1.38471e-10
3.40072e-09
-3.55014e-09
1.57773e-09
-1.42831e-09
7.96675e-10
-1.09519e-09
6.13103e-09
-5.83252e-09
4.62883e-11
-9.11055e-11
3.88775e-09
2.32441e-09
-4.57243e-09
-6.62156e-09
-9.13731e-09
-3.57371e-09
8.10318e-09
-3.5982e-09
3.54722e-10
3.24347e-09
-4.72622e-09
4.76241e-09
1.84212e-10
-2.20398e-10
-1.8102e-10
1.33617e-09
4.02664e-09
-5.49232e-11
-3.65117e-09
5.20711e-11
-4.69932e-09
-2.33496e-10
2.06589e-10
-5.83568e-09
5.99747e-09
-7.64245e-09
1.6346e-10
-8.3583e-11
-1.20837e-10
1.23385e-10
5.14344e-09
-5.14599e-09
-8.22937e-09
-6.56889e-09
5.3302e-09
-3.44611e-10
-5.54471e-09
9.02314e-10
4.98701e-09
2.74967e-09
-4.50047e-09
3.11742e-09
-2.6983e-10
-3.88838e-09
6.25401e-10
3.53281e-09
-3.84583e-09
5.83277e-09
-5.24361e-09
-3.21566e-10
-4.00937e-09
4.33093e-09
-2.36868e-10
1.00304e-10
-3.07501e-10
8.26326e-09
1.60571e-09
-1.10595e-08
3.86129e-09
-2.53977e-09
-6.45184e-09
3.04709e-09
-1.74457e-09
3.4743e-09
-9.34983e-10
3.82312e-09
-5.16851e-09
4.16665e-09
3.67952e-10
6.33912e-10
6.12243e-09
4.47416e-09
-5.99109e-09
2.17958e-09
-5.6324e-10
-4.70979e-09
3.09344e-09
7.2972e-09
9.99232e-11
8.66136e-10
-3.89023e-09
3.86971e-09
-3.89988e-09
2.27122e-09
-8.20722e-10
2.09542e-09
-4.59791e-09
3.98484e-09
-1.48235e-09
-4.90831e-09
-3.35933e-10
4.87856e-09
3.65684e-10
-3.87921e-09
-4.5436e-11
6.24366e-11
3.86221e-09
4.60656e-09
-4.68098e-09
-4.25824e-09
1.62723e-09
5.33089e-09
-1.39054e-08
-8.52464e-09
8.45449e-09
1.39755e-08
-5.40078e-09
5.39207e-09
4.14377e-11
-3.27254e-11
-4.42937e-09
7.25721e-09
4.32675e-09
-7.1546e-09
1.36496e-09
-1.40679e-09
7.52822e-10
-5.71589e-10
-1.67092e-08
1.81605e-08
-6.74384e-09
5.29261e-09
-5.8733e-10
4.70868e-11
-1.29145e-08
1.34547e-08
2.22785e-09
6.11899e-09
-5.35069e-09
-2.99615e-09
4.07652e-09
-1.05023e-09
7.7051e-10
-3.7968e-09
8.17201e-11
-1.44953e-10
-6.81986e-09
-7.71303e-09
6.75912e-09
7.77377e-09
-2.28901e-10
1.09679e-10
2.12474e-09
-1.18807e-09
2.65252e-09
-3.5892e-09
-3.87428e-09
7.64157e-11
-1.8554e-10
-2.32519e-09
6.19165e-09
1.51094e-09
-3.93846e-10
3.69839e-10
-2.28399e-10
2.52406e-10
4.02798e-09
-5.10731e-09
3.82559e-09
-2.73766e-10
-4.67881e-09
4.35909e-09
-8.60883e-10
-3.93576e-09
4.09145e-09
-3.46378e-10
-4.47845e-09
-1.92049e-10
-1.80012e-08
-5.76725e-10
1.81088e-11
1.85598e-08
-2.87346e-10
-5.48816e-09
-4.93416e-09
-3.5674e-09
3.52429e-09
-8.62063e-11
1.29321e-10
1.60058e-10
3.45685e-09
-5.95156e-11
-2.62459e-09
2.00777e-09
1.81831e-08
-1.75663e-08
-1.49884e-10
-3.48263e-09
1.03434e-09
2.59817e-09
1.82226e-09
-3.51284e-09
5.05316e-09
-3.36258e-09
-1.12946e-09
2.31962e-09
-5.51049e-09
4.32033e-09
-5.16081e-10
1.56683e-09
6.71871e-09
-2.39551e-09
-5.89003e-09
-5.1232e-09
2.89864e-09
-3.80019e-09
3.74147e-09
-4.90405e-11
1.07762e-10
-1.12634e-09
-4.19328e-09
4.40525e-10
4.87909e-09
4.23159e-09
2.58427e-09
-4.14313e-10
4.91546e-09
2.85547e-10
-4.78669e-09
3.84914e-09
-3.79617e-09
-2.66186e-10
-4.17025e-09
2.95393e-10
4.14105e-09
1.44273e-09
-4.63917e-09
2.09119e-10
-2.69264e-10
3.03603e-09
-6.47485e-10
3.00277e-10
3.42789e-09
-3.37963e-09
-4.8259e-11
1.50677e-10
5.15144e-09
-9.63238e-11
3.60784e-09
-3.55352e-09
1.22893e-11
-6.66082e-11
-5.0462e-09
4.22503e-09
-2.32365e-10
1.05354e-09
1.64805e-10
-3.27426e-10
-4.47655e-09
2.71189e-09
-1.29771e-09
-6.08788e-09
-4.56784e-09
-5.5379e-09
5.01064e-09
5.0951e-09
-4.20351e-09
1.01021e-10
-9.43711e-10
-4.56776e-09
4.4729e-09
2.06962e-10
-1.121e-10
-1.25253e-08
1.36236e-08
-1.09837e-09
5.42115e-09
-6.65379e-09
8.86265e-10
-2.41017e-08
1.60685e-08
-1.19005e-08
7.19775e-10
-5.00851e-09
-7.10702e-11
4.3598e-09
1.23905e-08
-1.20366e-08
2.21638e-09
-2.57027e-09
-2.33645e-10
-4.96825e-09
3.05745e-10
4.89615e-09
3.99568e-09
-1.50918e-09
-3.90607e-09
1.41956e-09
4.34048e-09
-8.7051e-10
-5.41133e-09
9.42509e-10
-6.40952e-09
-3.59799e-11
2.36238e-10
-4.66323e-09
5.47924e-10
-8.56044e-10
-2.97016e-09
-4.67361e-09
-7.15531e-10
4.53971e-09
-4.22429e-10
-4.91125e-09
4.25363e-10
-1.30344e-10
-3.76081e-09
6.55549e-11
2.74573e-09
2.84236e-09
-1.71015e-09
3.95167e-09
-4.60612e-09
-4.93754e-12
6.59391e-10
-1.36897e-10
3.79822e-09
2.13443e-11
-4.50167e-09
3.96055e-09
4.10605e-10
1.30514e-10
3.90063e-09
-3.92064e-09
-5.06374e-09
1.9148e-09
-5.95626e-10
3.74456e-09
3.22984e-09
-3.64144e-09
1.70228e-10
2.4137e-10
6.29821e-09
-1.09156e-09
-5.20665e-09
5.11795e-09
3.48478e-09
-4.74145e-09
3.34292e-09
-2.75288e-09
1.85626e-09
-1.08496e-10
6.54595e-11
3.7614e-09
-4.12972e-09
-9.3222e-10
1.48624e-09
3.02812e-09
-3.58214e-09
-1.57229e-09
2.10902e-09
-2.52013e-09
1.9834e-09
8.53434e-10
-1.13416e-09
5.63239e-09
-5.35167e-09
3.87006e-11
-3.80073e-11
5.66406e-09
-5.99499e-09
-6.48892e-09
-1.36095e-09
4.33036e-09
1.07355e-09
-6.3596e-10
2.25744e-10
-5.37154e-11
4.63931e-10
-3.99783e-09
2.35012e-09
-1.06412e-10
-2.39615e-10
-4.45092e-09
-1.08792e-11
4.70142e-09
1.79825e-09
-3.82743e-09
6.26176e-09
3.85669e-09
-2.87545e-09
2.79039e-09
-3.77162e-09
3.95966e-09
7.10262e-11
-1.41173e-09
-2.61896e-09
-2.56797e-09
1.91048e-10
-2.53781e-09
-3.93204e-09
5.89198e-09
5.77864e-10
-5.50642e-10
5.53252e-09
2.75689e-10
-5.25757e-09
7.92919e-10
-5.5064e-09
5.65047e-09
-9.36984e-10
3.27267e-09
-2.93143e-10
-5.75479e-09
-7.69633e-09
2.9552e-09
-4.85313e-10
-1.02073e-12
-4.5774e-09
4.66824e-09
-4.55768e-09
-2.30748e-10
1.20196e-10
-2.49077e-10
-4.10525e-09
1.24422e-10
-4.64036e-09
-1.33637e-09
-6.74621e-09
-2.17137e-09
3.1628e-09
-5.43992e-10
4.23748e-09
2.87331e-10
-3.98082e-09
-3.90794e-10
4.3818e-09
-3.991e-09
-3.89087e-09
3.76973e-09
5.19394e-10
-3.9825e-10
-5.84968e-10
-4.15618e-09
4.42467e-09
-3.99072e-09
-4.01442e-10
1.88649e-10
-3.54397e-10
5.4438e-09
-5.53537e-09
4.45968e-10
-5.92551e-09
4.22476e-09
-4.26614e-09
2.41876e-10
-2.00491e-10
-4.3308e-09
1.48637e-10
-4.92472e-11
4.23141e-09
-5.09806e-10
2.50399e-10
-3.82879e-09
-6.00278e-09
5.92822e-09
1.70741e-10
4.65646e-13
3.42742e-09
-7.77897e-10
-1.30092e-11
7.90803e-10
-8.39923e-10
5.29159e-09
2.1659e-09
-6.61756e-09
1.26487e-10
-7.64615e-11
5.71898e-09
-6.17105e-11
2.0955e-12
-7.99991e-09
2.2057e-09
-5.82301e-10
6.37651e-09
3.80998e-10
-2.67108e-10
-5.07735e-10
5.742e-10
2.43512e-09
-3.01301e-09
3.6932e-12
4.16319e-10
-3.36446e-10
-4.84256e-09
-4.70394e-09
-1.70701e-09
3.43732e-09
2.97363e-09
-5.8052e-10
2.93113e-09
-3.65404e-09
-3.19195e-09
-4.95445e-09
4.55646e-10
3.85376e-09
-3.21869e-09
3.87146e-09
-2.17418e-10
-4.1347e-09
1.18081e-10
-5.96681e-09
1.8828e-09
4.43478e-09
-4.07951e-10
2.30264e-10
-3.2741e-09
2.66372e-10
-1.25006e-10
4.81268e-09
-2.78386e-09
1.0326e-09
9.08529e-10
5.96529e-09
-8.87619e-10
-5.9862e-09
-5.31294e-09
4.72303e-09
-2.17566e-10
3.8733e-09
8.97136e-09
-4.29391e-09
-9.14044e-09
8.43124e-09
1.7411e-09
-1.69157e-08
-3.45955e-09
6.4419e-09
1.39334e-08
-4.21596e-10
5.82025e-10
-4.0513e-09
6.93854e-09
-7.01767e-09
3.00775e-09
7.20006e-09
5.78332e-09
-6.30905e-09
8.32135e-10
-1.00841e-09
4.17196e-09
-7.59124e-11
3.37955e-11
-1.32204e-09
-4.44775e-09
-3.64218e-09
2.40287e-09
4.1761e-09
-2.93678e-09
5.33526e-09
-2.25742e-09
3.46948e-11
-3.11254e-09
-1.11632e-10
-4.81911e-09
6.85008e-09
-5.28004e-09
-1.2201e-11
-1.55784e-09
3.39598e-09
-1.22644e-09
-3.28469e-09
6.26467e-09
-6.69481e-09
5.31701e-10
-1.01555e-10
2.85553e-09
-2.02753e-09
-8.2473e-09
3.72729e-09
-1.15898e-09
9.9407e-10
-5.62657e-10
3.32499e-09
-8.72914e-09
1.4669e-10
4.15514e-09
-4.24687e-09
-7.01763e-09
8.69221e-10
5.1948e-09
9.53614e-10
5.66143e-10
-4.75674e-09
-7.57408e-10
-4.75911e-09
-1.05288e-10
1.9776e-10
4.66664e-09
3.4536e-09
-6.36352e-09
1.72186e-09
5.72161e-09
3.74419e-10
-5.7663e-09
5.69499e-09
4.691e-09
5.33816e-09
-1.57057e-09
-4.15838e-09
2.71786e-09
-2.55841e-09
-1.59452e-10
7.19542e-10
-5.86756e-10
-4.00707e-09
-3.40865e-10
-3.29979e-10
2.39782e-10
4.75446e-09
-4.83768e-09
8.32173e-11
-4.89609e-09
-9.66698e-11
-4.01889e-09
4.04358e-09
-1.50618e-10
1.25923e-10
-2.95441e-10
4.67724e-09
-3.19985e-10
2.29718e-09
-3.20363e-09
7.12116e-09
2.59624e-09
-6.40876e-09
-3.30864e-09
-1.09392e-09
6.31629e-09
-2.92428e-10
-1.45166e-08
1.99136e-09
1.96566e-10
-8.55191e-09
1.66053e-09
-2.60433e-10
3.56434e-10
4.3416e-09
-4.4376e-09
1.17461e-09
-7.07949e-09
1.20273e-08
-7.06633e-09
6.59817e-09
4.30934e-10
3.7129e-09
-4.15399e-09
1.01512e-11
-1.61254e-10
-4.08983e-09
3.47422e-10
3.90366e-09
7.27219e-11
3.91171e-09
-3.83164e-09
3.16521e-11
-7.5615e-11
2.7685e-09
-3.28516e-09
5.16658e-10
-4.92459e-09
4.65267e-09
-4.51283e-09
2.3511e-10
-4.32645e-09
-1.50403e-10
4.10342e-11
4.01031e-09
-4.23722e-09
1.85875e-10
3.82343e-09
-2.08113e-12
-3.79924e-09
-3.01529e-10
3.32806e-10
4.19375e-09
-3.71959e-09
6.01242e-10
-1.55706e-09
4.6754e-09
-1.1168e-08
1.59019e-09
-2.48848e-11
9.60268e-09
-1.08166e-09
-4.914e-09
5.33093e-09
4.12347e-09
-2.99014e-09
-6.46426e-09
4.19368e-09
-6.60878e-09
-2.55173e-10
1.14144e-09
-5.52413e-09
-1.50218e-08
1.54168e-09
7.83798e-10
-1.05716e-09
4.04368e-09
-1.64956e-09
-8.55518e-10
2.19586e-09
3.09218e-10
-6.776e-10
4.86007e-09
-5.26412e-09
4.48553e-09
-4.33485e-09
2.14403e-10
-7.01365e-09
-4.3254e-09
7.60291e-13
4.23596e-09
-1.75906e-09
5.26377e-09
7.73952e-10
-4.27866e-09
4.7263e-09
-2.31146e-09
2.96252e-09
-5.37736e-09
-5.92747e-09
-1.14961e-08
9.19416e-09
1.53453e-09
4.57158e-09
-7.24489e-09
2.87686e-09
-1.07875e-10
-1.6496e-09
-4.60605e-09
-3.73902e-09
-9.78606e-09
5.97783e-09
1.69792e-10
4.38791e-09
-8.47971e-11
7.98686e-11
-1.80543e-11
-3.44116e-09
3.2923e-09
-1.20082e-10
2.68939e-10
1.14948e-08
4.10922e-10
-9.43507e-09
-2.47063e-09
3.3336e-09
-4.31813e-09
-2.84544e-10
-8.21981e-10
-6.95357e-09
5.30667e-10
-6.84025e-09
-3.01013e-10
-5.34836e-10
-3.35954e-10
7.3217e-10
7.19391e-11
2.98169e-09
-4.36218e-09
3.90894e-09
-3.74003e-09
3.32452e-09
-3.23853e-09
1.3783e-09
-1.17854e-08
-7.60878e-10
-4.94912e-09
2.21138e-10
3.63406e-09
3.31954e-09
-3.7474e-09
4.78797e-09
4.33853e-09
3.60284e-09
-4.48008e-10
-4.60275e-09
4.63645e-09
-4.58398e-09
6.80079e-09
5.7077e-09
-5.88336e-09
5.89727e-09
4.26584e-09
-4.46985e-09
1.73854e-09
-5.64516e-10
4.25167e-09
3.78887e-10
-1.23833e-09
4.40878e-09
-5.71496e-09
4.54347e-09
8.55981e-11
4.75662e-09
-4.85063e-09
9.40107e-11
-4.87114e-09
4.86049e-09
2.76991e-10
-2.66336e-10
4.06849e-09
-4.24087e-09
3.19073e-10
-4.3544e-09
-1.00763e-08
-2.40683e-09
6.02049e-10
4.32267e-09
-4.10562e-09
-2.35231e-09
2.13526e-09
1.15689e-10
-5.50706e-09
5.08839e-09
3.02976e-10
4.28976e-10
-6.21736e-09
4.13635e-09
2.53443e-09
-4.84183e-09
6.08351e-10
-3.35255e-09
2.71931e-09
-6.75336e-09
-8.04803e-09
2.9417e-10
8.18848e-09
-4.34628e-10
2.48186e-10
-5.03685e-09
-1.07425e-10
1.33177e-08
4.06851e-09
-4.27809e-09
-1.49648e-10
-3.89737e-09
3.95337e-09
9.36459e-11
4.52543e-09
2.86318e-10
-5.07219e-09
-5.46459e-09
-4.32576e-10
-4.57124e-09
-8.03381e-10
5.7486e-09
-4.79682e-09
4.75151e-09
-3.80765e-10
4.26075e-10
-8.92354e-10
4.15234e-09
1.00585e-09
-2.07995e-09
-5.70332e-09
4.95326e-09
2.83001e-09
-5.34014e-09
2.8865e-09
4.50375e-09
-2.05012e-09
-4.95049e-09
4.59535e-09
-9.96982e-11
-3.25143e-09
-7.9018e-09
3.8004e-09
-2.23275e-09
6.64344e-09
1.86599e-09
-4.98599e-11
-5.92426e-12
4.89793e-09
-4.58039e-10
-5.1175e-09
-3.68424e-10
4.33617e-10
4.03429e-09
-4.09948e-09
7.12387e-09
-5.78769e-09
7.63518e-09
1.98334e-10
-7.48475e-09
1.44942e-10
-2.83408e-10
-3.85225e-09
-3.29354e-10
4.02909e-09
-4.06816e-09
1.0601e-08
-8.13053e-09
-2.47042e-09
-7.17511e-10
4.24129e-09
-3.92522e-09
3.83125e-09
-3.19513e-11
4.22278e-09
-4.18866e-09
8.69202e-11
-1.21039e-10
-1.40652e-10
1.90251e-10
7.79525e-10
-3.64481e-09
-6.82278e-10
3.54756e-09
2.91112e-09
1.39241e-09
4.31468e-09
-3.31092e-09
9.03548e-09
-1.13172e-08
-3.03258e-09
5.31426e-09
-1.00317e-09
-8.71793e-09
3.82132e-09
-3.42802e-09
2.95609e-10
4.65815e-09
1.54939e-10
-2.2098e-09
7.74421e-09
-9.6305e-09
3.47238e-10
4.25788e-09
3.37271e-10
-7.15259e-09
-2.68978e-09
4.316e-09
-3.01821e-11
-5.06991e-09
3.49845e-10
4.41473e-09
3.60482e-09
-2.36662e-09
-5.65294e-09
-4.2784e-10
5.28957e-10
-5.42612e-10
8.68454e-10
4.11655e-09
-4.44239e-09
-2.42782e-09
-6.05035e-09
-4.81877e-09
1.44466e-10
-1.31735e-10
4.80603e-09
4.28764e-09
-1.57767e-09
-2.96137e-09
2.51393e-10
-4.71406e-09
-3.78586e-09
4.65409e-09
-4.05147e-09
3.16837e-10
4.11111e-09
-3.7647e-10
3.00432e-09
6.41561e-10
-3.90358e-09
2.577e-10
4.7139e-09
-3.18336e-09
3.28041e-09
-4.81095e-09
-1.87295e-08
1.98861e-08
-1.15666e-09
3.29519e-09
-3.90815e-09
3.39112e-09
-2.77816e-09
1.08222e-10
-5.65193e-11
-3.99235e-09
-4.29941e-10
3.70816e-10
3.00115e-09
2.32563e-09
-2.7425e-09
1.96052e-11
-4.45168e-09
1.91201e-10
4.79856e-09
-6.04333e-09
1.9324e-09
-6.87633e-10
-7.99255e-09
-3.21586e-09
5.8321e-09
5.37631e-09
-8.27989e-09
-5.74727e-09
6.0346e-09
-7.91216e-09
-6.83873e-09
6.471e-09
2.5094e-09
-4.80586e-09
-1.74813e-09
3.47308e-10
-8.16405e-10
-8.10461e-09
6.95157e-09
4.75924e-09
4.08587e-10
1.3461e-09
3.56815e-09
-4.86863e-09
3.05555e-09
9.09636e-10
9.03438e-10
-1.13662e-09
-4.05352e-09
1.9905e-09
3.19964e-09
-3.70247e-09
4.95659e-09
1.09515e-10
3.73489e-09
-1.31576e-11
-2.92484e-10
4.06725e-09
4.07258e-09
-3.94982e-09
3.82641e-09
-1.78119e-10
-2.10928e-10
9.09495e-11
6.59492e-09
1.63794e-10
-4.92025e-11
8.05852e-10
4.53428e-09
-4.87473e-12
7.62386e-09
-8.2509e-09
-9.82521e-09
-1.43867e-09
-4.10099e-09
2.46563e-09
-4.33047e-09
-4.02917e-10
3.99652e-09
-7.39417e-10
-3.77079e-09
5.17858e-10
2.28723e-09
-2.5249e-09
2.62881e-10
-2.0492e-10
-4.1326e-09
2.77103e-10
4.17646e-09
-3.20957e-10
-2.31989e-09
2.23837e-09
3.42444e-09
7.69519e-10
-1.16549e-08
-4.31774e-10
8.05892e-09
3.09864e-09
-3.42918e-09
4.65322e-09
8.14562e-10
3.64785e-09
-1.46407e-10
-4.7092e-09
4.7485e-09
-3.92975e-11
-4.43632e-09
4.3289e-09
1.26556e-10
-1.14296e-09
1.20677e-09
-1.9037e-10
-3.05333e-10
-4.11724e-09
2.89974e-10
1.77162e-08
2.4706e-09
-1.47346e-09
-4.17819e-09
2.36253e-10
4.21904e-09
3.99558e-09
5.04181e-10
3.68794e-09
4.54142e-11
-1.51445e-09
-5.13195e-09
1.02256e-09
5.62384e-09
4.24824e-10
3.86167e-10
-3.01931e-09
2.20831e-09
4.76134e-09
3.71027e-09
-4.33527e-09
6.86104e-09
-4.85689e-09
1.95844e-10
4.12566e-09
-3.96507e-09
-3.48217e-09
-7.75926e-09
7.76513e-09
4.12486e-09
1.13322e-10
-3.97181e-09
-2.38699e-09
1.46024e-08
2.97076e-09
5.75239e-10
3.96378e-09
-4.1054e-09
4.49586e-09
2.82595e-10
-4.90133e-09
-4.12277e-09
-1.39806e-11
-2.06041e-09
-1.22081e-08
2.10037e-09
1.21681e-08
-1.6971e-09
5.09753e-09
-3.946e-09
5.45574e-10
6.33545e-09
-6.05051e-09
-2.84937e-10
-6.09237e-09
5.42182e-09
-4.71744e-10
1.14229e-09
6.83169e-09
-4.19937e-09
-6.3348e-09
-1.07271e-08
4.11917e-09
-3.14163e-09
-7.51357e-09
1.49254e-10
-4.4007e-09
-1.12505e-10
4.36395e-09
-8.35144e-10
-3.39234e-09
6.3229e-09
2.48415e-10
-5.15453e-09
2.65748e-10
-3.23205e-09
3.75022e-09
1.66119e-10
-3.74609e-09
-1.70251e-10
6.02941e-09
-1.38438e-09
-3.92559e-09
-7.19444e-10
4.97108e-09
-5.45687e-09
-1.59417e-09
-4.05953e-09
-1.40865e-11
-1.41977e-11
3.50321e-09
-1.27589e-09
-3.7271e-09
1.49978e-09
1.02543e-09
-6.85866e-09
-6.51224e-09
7.99499e-09
1.68006e-09
-3.80714e-09
3.86487e-09
-5.99026e-10
5.41288e-10
3.73277e-09
-3.71334e-09
1.9846e-10
-2.17896e-10
2.37801e-09
3.94445e-09
-2.93049e-10
2.87089e-10
4.03528e-09
1.6403e-10
-4.03916e-09
3.75076e-09
9.07438e-09
-3.71714e-09
1.2359e-08
-4.6773e-09
-2.59372e-09
-8.90285e-10
2.86231e-09
6.21687e-10
-5.69236e-09
3.73714e-09
1.3747e-09
2.9467e-10
2.41937e-09
-5.80851e-10
-2.13319e-09
3.5237e-09
-7.3332e-09
-4.97391e-09
5.18174e-09
-1.81934e-10
2.25856e-10
-5.22566e-09
-4.72416e-10
4.86012e-09
-4.84574e-09
-3.00142e-09
-1.30408e-09
-7.62198e-11
6.02698e-11
6.91365e-09
-5.78203e-10
5.03819e-09
-3.74017e-09
-6.96774e-10
1.48375e-10
3.86481e-09
2.35426e-09
-3.4265e-09
4.3193e-09
-5.26128e-09
4.01773e-09
-4.05508e-09
4.88162e-09
4.34785e-10
-4.46942e-09
1.01256e-10
-1.89522e-10
3.95061e-09
-3.78887e-09
2.85518e-10
-4.47257e-10
-9.3199e-09
1.43077e-10
3.78115e-09
-3.78442e-09
-1.39804e-10
-3.94043e-09
3.56069e-09
4.28795e-10
-4.90555e-11
-4.2296e-09
3.85102e-09
3.91461e-09
2.29351e-10
-1.58237e-11
3.56312e-12
4.0993e-09
4.13641e-09
-4.0712e-09
2.51633e-10
-2.80262e-09
-1.82941e-09
1.50875e-10
-1.49229e-08
-1.04971e-08
4.02878e-09
1.20939e-09
-1.11434e-09
-4.12384e-09
-4.32784e-09
4.61391e-09
-8.02874e-09
4.50259e-09
-4.57329e-09
-3.29788e-10
4.00492e-10
-2.33391e-10
-4.74656e-09
4.74646e-09
-4.29e-10
-9.8599e-09
-4.51464e-09
1.38418e-09
4.27743e-09
-1.14697e-09
6.98736e-11
-4.12963e-09
-1.76016e-10
-3.77962e-09
3.79532e-09
1.60312e-10
-3.26604e-09
-2.96743e-09
-5.22224e-09
4.67001e-10
-3.71874e-09
1.44339e-09
-3.75669e-10
2.65102e-09
-2.49865e-10
5.70905e-11
-5.03756e-09
-3.77639e-09
-7.36547e-10
4.02592e-09
-6.74412e-09
-3.86055e-09
4.15928e-10
2.65587e-09
7.88755e-10
-1.31278e-08
2.35349e-09
6.6811e-09
4.09321e-09
1.62545e-08
-9.79276e-10
1.05564e-09
5.01891e-11
3.96833e-11
4.87651e-10
-1.83065e-10
-3.04586e-10
4.35316e-09
-4.18211e-11
1.91249e-10
-2.70955e-09
-5.84212e-11
-4.09104e-09
-9.11408e-11
-4.02868e-09
3.0594e-11
-4.44957e-09
1.02454e-10
-5.12062e-11
5.74258e-09
-1.26117e-09
4.00218e-10
-1.2245e-09
-3.95285e-09
3.69038e-10
4.80831e-09
5.00144e-09
2.92469e-09
2.61758e-10
-4.06521e-09
1.48682e-10
-2.0579e-10
8.76794e-10
-8.19686e-10
2.57435e-10
-4.09135e-09
3.98375e-09
-1.49835e-10
8.70145e-10
4.40255e-10
-1.3104e-09
-7.36998e-10
1.58972e-09
-4.11104e-09
3.97262e-09
-1.4513e-09
1.2558e-10
3.87567e-09
-8.66428e-11
2.96572e-09
6.85498e-09
4.42959e-09
-4.74202e-09
5.95028e-10
2.8701e-10
-2.76823e-10
3.21681e-10
-2.36272e-10
4.24616e-09
-4.33157e-09
4.28394e-09
-3.42966e-09
-2.6445e-11
7.38436e-10
1.49391e-09
4.06308e-09
-5.17868e-09
-3.78306e-10
5.4717e-09
-3.24855e-10