/*--------------------------------*- C++ -*----------------------------------*\
  =========                 |
  \\      /  F ield         | OpenFOAM: The Open Source CFD Toolbox
   \\    /   O peration     | Website:  https://openfoam.org
    \\  /    A nd           | Version:  8
     \\/     M anipulation  |
\*---------------------------------------------------------------------------*/
FoamFile
{
    version     2.0;
    format      ascii;
    class       surfaceScalarField;
    location    "1";
    object      phi;
}
// * * * * * * * * * * * * * * * * * * * * * * * * * * * * * * * * * * * * * //

dimensions      [0 3 -1 0 0 0 0];

internalField   nonuniform List<scalar> 
3021
(
2.09457e-10
-2.09457e-10
-1.94564e-08
-2.18406e-08
3.04839e-08
1.08132e-08
-1.90159e-08
-5.70273e-09
2.13316e-08
3.38709e-09
-3.4154e-08
-2.44443e-09
1.75825e-08
8.8013e-10
-1.34501e-08
1.257e-08
8.91201e-09
-6.92121e-09
7.17717e-09
-9.16797e-09
1.84502e-10
-1.58381e-08
1.55494e-08
1.04147e-10
-7.94557e-10
3.30575e-10
-1.8843e-08
1.9307e-08
1.0771e-08
-9.54158e-09
-6.78413e-09
5.55472e-09
-1.47439e-08
-3.34403e-09
1.09661e-08
7.12187e-09
-1.23731e-08
-1.83478e-08
1.12646e-08
6.42431e-09
-6.04052e-09
1.14714e-08
-1.18552e-08
1.73379e-08
3.56045e-09
-1.1689e-08
-9.20936e-09
-5.26583e-09
-1.73523e-08
7.87423e-09
6.37516e-09
-7.51161e-09
-6.24957e-09
7.38602e-09
-7.56913e-09
5.20637e-09
8.43655e-09
-6.07379e-09
-4.20827e-09
-2.20929e-09
6.41756e-09
-3.28006e-09
-9.28202e-10
2.71445e-10
3.43957e-10
-2.26557e-10
-3.88845e-10
5.10814e-11
-3.59677e-10
-5.72436e-11
3.6584e-10
-1.044e-08
-2.81624e-09
1.59506e-08
-2.6944e-09
-2.32913e-08
1.72309e-08
1.8531e-08
3.43119e-09
-3.24914e-09
-2.38075e-08
5.23612e-09
1.85714e-08
-6.66701e-09
1.55795e-09
8.31922e-09
-3.21017e-09
3.30402e-10
-8.91966e-09
6.83977e-09
1.74948e-09
2.27787e-09
-1.2636e-08
-5.71672e-10
1.09298e-08
9.80928e-09
-2.57381e-09
-1.77989e-09
-5.45559e-09
2.58026e-08
-2.13898e-08
-1.98742e-08
1.54615e-08
2.69633e-08
-2.22416e-08
-2.04741e-08
1.57525e-08
2.84543e-08
-2.34337e-08
-2.15588e-08
1.65382e-08
-5.14294e-09
6.18662e-09
-1.67774e-08
1.57338e-08
-2.18506e-08
-1.49325e-08
6.73538e-09
3.00477e-08
6.66929e-10
-7.44942e-10
7.37857e-10
-6.59844e-10
-5.66986e-09
2.48537e-09
-3.48252e-09
7.4556e-09
3.5768e-09
-4.65724e-09
2.69329e-09
1.00407e-08
4.60394e-09
1.38213e-08
1.09613e-09
-1.43957e-08
-5.21745e-10
9.23347e-09
-5.87372e-09
3.13754e-09
-6.49729e-09
-1.47263e-08
1.17e-08
7.86772e-09
-4.84145e-09
-7.95725e-09
3.37937e-09
1.93849e-10
8.40509e-10
-3.99585e-10
-6.34774e-10
-5.65774e-11
5.54835e-10
9.09282e-11
-5.89186e-10
-3.8178e-08
1.67175e-08
1.57577e-08
-2.52509e-09
-4.33831e-09
6.8634e-09
1.36166e-08
1.39798e-09
-1.27367e-08
9.34717e-10
1.32591e-08
-3.72484e-10
-2.3599e-09
6.68443e-09
4.85357e-09
-9.17811e-09
2.50576e-09
-5.38876e-09
-2.78686e-09
8.53858e-10
4.18171e-09
5.73542e-09
-6.15892e-10
3.36929e-10
-1.23822e-09
1.51719e-09
-6.17581e-09
-9.92506e-09
6.55929e-09
4.28843e-10
-2.19386e-10
-1.44558e-08
-2.81886e-08
2.08038e-08
1.67731e-08
1.94907e-08
-2.90648e-08
-7.19905e-09
7.83264e-09
6.06781e-09
-6.85976e-09
-7.04069e-09
1.90461e-08
-3.67313e-09
-7.35708e-11
-3.58669e-10
4.10537e-09
-1.11239e-08
3.3544e-09
2.21749e-08
-1.44054e-08
-4.0074e-09
5.01841e-09
-6.16001e-09
5.149e-09
-5.52152e-09
6.15971e-09
1.86756e-09
1.35852e-08
1.65613e-09
-1.41452e-08
-1.30157e-09
-2.08944e-09
1.41202e-09
1.97899e-09
-1.90184e-08
-2.05529e-08
2.84474e-08
-5.7532e-09
5.56667e-09
-2.14777e-09
2.3343e-09
8.93027e-10
-9.2982e-10
2.33792e-10
-1.96999e-10
-2.76032e-09
1.17503e-09
-9.648e-10
2.55009e-09
4.22839e-10
9.40652e-10
-4.70464e-10
8.69995e-09
1.5884e-09
-5.56127e-09
-4.72708e-09
-9.42098e-10
-2.72002e-10
1.2141e-09
1.76098e-09
-3.76762e-09
-3.51488e-09
5.74847e-10
-8.28841e-10
-5.75103e-09
6.00502e-09
2.58072e-09
3.88195e-09
-4.70169e-09
1.83965e-09
-9.09903e-10
-1.53254e-08
-1.03858e-08
-4.79213e-09
6.98255e-09
8.19538e-09
-1.19003e-08
-1.37842e-08
2.01499e-08
5.53459e-09
-6.68254e-09
4.81682e-09
3.032e-08
-6.37851e-09
4.46296e-09
2.88788e-08
-6.37413e-09
4.22903e-09
2.79477e-08
6.48702e-09
-3.9418e-09
-6.3145e-09
3.76928e-09
-9.35639e-10
3.57596e-13
5.46076e-12
3.01363e-10
6.59115e-10
-8.46563e-10
-1.13915e-10
-1.49534e-08
1.76467e-08
1.03312e-08
-1.09795e-08
8.93719e-09
-8.28883e-09
-4.64657e-09
2.49373e-10
-7.17516e-09
-2.81272e-09
9.73851e-09
-4.89409e-09
3.20824e-09
1.40865e-09
-2.03487e-09
6.26221e-10
9.36373e-09
-5.77968e-09
-8.47814e-09
-5.23439e-10
5.37068e-10
6.533e-10
-1.76495e-08
1.05316e-08
-7.98712e-09
1.51051e-08
7.53293e-09
-5.74537e-09
-1.21272e-09
5.58502e-09
-8.51749e-09
9.19498e-09
-6.26251e-09
9.56079e-09
-8.1142e-09
1.41814e-10
-1.08545e-08
-7.24975e-10
-1.44213e-09
1.30216e-08
-1.01106e-09
2.42061e-09
1.64865e-09
-3.0582e-09
6.45004e-09
-5.2115e-09
9.88774e-09
-1.11263e-08
-9.53801e-09
-1.38504e-09
6.85973e-11
-2.38187e-09
8.52414e-09
3.09119e-09
6.18122e-10
1.21509e-08
-7.07877e-09
-2.11014e-09
9.43828e-09
-1.00221e-08
2.10807e-09
-4.72857e-09
1.26426e-08
3.80281e-09
-5.40141e-09
1.5986e-09
-1.96095e-08
1.96202e-08
6.86457e-11
-7.93895e-11
1.86155e-08
-8.4165e-11
5.50781e-11
-1.85864e-08
-1.79295e-08
1.79513e-08
4.28215e-11
-6.45999e-11
-1.81027e-08
-7.66781e-11
1.8142e-08
3.73859e-11
1.74976e-08
-4.03809e-11
-1.74879e-08
3.06824e-11
-5.51783e-13
4.0551e-12
1.88168e-08
-1.88203e-08
-1.79084e-08
-1.12308e-11
5.97776e-12
1.79136e-08
-1.92689e-11
-1.81248e-08
1.81344e-08
9.6972e-12
6.49131e-13
7.19512e-12
1.7232e-08
-1.72398e-08
1.9122e-08
-2.93775e-11
-1.91245e-08
3.19253e-11
3.49573e-12
1.5335e-11
1.87782e-08
-1.8797e-08
3.08479e-12
2.09406e-11
1.78254e-08
-1.78494e-08
-1.78577e-08
1.78446e-08
2.47161e-11
-1.15998e-11
-1.88088e-08
1.88113e-08
2.46478e-11
-2.71144e-11
5.33763e-11
-6.76527e-11
-1.73273e-08
1.73415e-08
1.78452e-08
-2.03998e-10
6.91498e-11
-1.77104e-08
1.75008e-08
-7.02768e-11
-1.74882e-08
5.77024e-11
-1.72342e-08
1.72446e-08
-1.01095e-11
-2.97966e-13
1.72913e-08
-7.80106e-10
2.96702e-10
-1.68079e-08
1.90925e-08
-1.42716e-10
-1.90821e-08
1.32361e-10
-3.8323e-09
-1.04216e-08
-1.09463e-08
8.07358e-09
5.99691e-11
2.0035e-09
4.6918e-09
-1.51721e-09
-5.17808e-09
-1.31736e-08
9.97728e-09
-7.24362e-09
4.4848e-10
9.6017e-10
2.45029e-09
-1.14272e-08
1.06028e-08
-1.62586e-09
2.674e-09
-9.76172e-09
-2.05036e-10
5.26091e-09
-6.49501e-09
1.43914e-09
-3.25141e-09
1.73089e-09
3.52402e-09
-8.45324e-10
-2.97941e-10
6.19826e-10
-1.1393e-08
-2.35007e-10
-8.75857e-10
1.75226e-10
-1.14179e-09
-5.56415e-09
-9.50873e-09
3.64565e-09
6.38799e-10
4.69859e-09
-5.54243e-09
8.04184e-09
-1.50092e-09
2.37109e-09
-2.46194e-09
-8.93106e-09
8.18018e-09
1.03966e-10
-8.28415e-09
9.76997e-10
-1.05551e-09
5.01356e-10
2.3623e-09
-1.18559e-09
-2.00827e-09
8.31561e-10
1.9543e-09
-4.61015e-10
4.92947e-09
-1.01747e-08
6.09908e-09
3.06401e-09
-2.97706e-09
-2.29624e-09
-9.23825e-09
1.99944e-08
4.70317e-10
-7.36107e-10
-1.79018e-09
2.05597e-09
6.30631e-09
8.7424e-09
-9.21357e-09
5.34069e-09
3.30439e-09
1.22215e-09
1.32978e-08
-3.05379e-10
1.08863e-09
-1.01826e-09
1.95961e-09
4.93904e-09
-1.75469e-08
-1.47152e-09
-8.17537e-09
5.98143e-10
-3.26698e-10
6.62229e-10
5.58872e-09
1.87e-09
1.79055e-10
3.1324e-10
1.11228e-09
1.0963e-09
-8.66943e-10
-1.34164e-09
-8.07112e-10
7.20208e-10
2.29409e-09
-2.20718e-09
1.1932e-08
1.30874e-08
2.42657e-10
4.19572e-10
-1.35224e-08
1.33335e-08
1.41099e-09
1.73081e-08
-6.77008e-09
3.36456e-10
-4.37197e-10
-7.75116e-10
1.50321e-09
2.79176e-09
-5.68824e-11
5.6456e-09
-2.74201e-09
-5.38056e-10
-7.48248e-10
-2.27169e-09
8.34241e-10
-9.64293e-09
-1.81057e-10
8.98975e-09
7.56887e-10
-4.31727e-09
-1.30345e-08
1.21403e-08
2.04111e-09
-5.47557e-09
6.62537e-09
2.29171e-09
-8.75234e-10
-6.9493e-09
7.05042e-09
-7.47227e-09
7.37115e-09
-1.5907e-08
7.84173e-09
-6.01724e-09
1.40825e-08
4.98894e-10
7.43121e-10
-9.05788e-09
1.11705e-08
8.2265e-09
-1.03391e-08
-1.50105e-10
-1.86919e-09
-4.02498e-10
1.08841e-08
-1.66631e-09
2.54225e-09
8.92354e-09
-1.06191e-08
-8.46678e-10
7.89691e-10
-7.27676e-10
1.13211e-10
2.70876e-09
-3.25326e-09
-2.70691e-09
1.22608e-08
-1.23309e-08
7.23723e-09
-7.16713e-09
-6.21988e-09
4.65351e-09
-5.39925e-09
6.74847e-10
8.01045e-10
-1.4435e-09
7.38086e-09
2.90451e-09
-2.84412e-09
1.67049e-09
-1.12604e-08
3.79432e-09
8.30028e-09
-7.31329e-09
1.06954e-08
-7.21445e-09
7.98003e-10
-7.95481e-12
-4.72286e-09
-9.21372e-09
7.32504e-09
6.61155e-09
-5.02074e-09
1.0461e-08
1.18515e-09
-1.10125e-09
2.79531e-10
-1.31621e-09
7.16082e-12
1.30672e-09
2.33453e-12
-5.45051e-09
-1.06657e-08
8.51238e-09
7.0828e-09
1.16831e-08
5.92574e-10
-1.40889e-08
1.81327e-09
-6.99916e-10
4.00247e-10
-1.70795e-10
7.65801e-09
-1.45965e-11
1.8986e-08
-1.90232e-08
5.17921e-11
-1.74516e-08
1.74845e-08
-1.41758e-11
-1.87379e-11
-1.80991e-08
-1.72483e-11
1.81103e-08
6.03758e-12
-1.91375e-08
1.07875e-11
1.91235e-08
3.21785e-12
3.5664e-11
1.91779e-08
-1.91797e-08
-3.38451e-11
-1.71677e-08
1.71531e-08
5.78486e-12
-1.71735e-08
-1.74715e-08
1.3653e-11
6.20247e-12
-1.89866e-08
-2.61788e-11
1.8975e-08
3.78148e-11
1.13103e-12
-1.80262e-08
1.7957e-08
6.80726e-11
-2.84534e-11
-1.90187e-08
6.04737e-11
-1.81279e-08
1.86097e-11
1.02441e-11
1.71154e-08
-1.71274e-08
1.19575e-11
1.57098e-11
-1.90016e-08
1.90107e-08
-2.48315e-11
1.67745e-08
-1.67703e-08
-4.27237e-12
1.79371e-11
1.89858e-08
-1.89934e-08
-1.03602e-11
1.62421e-11
1.75006e-08
-1.75277e-08
1.08685e-11
7.91396e-12
1.90229e-08
-1.90229e-08
-7.93832e-12
1.74914e-08
-1.74805e-08
-7.00635e-12
-3.9008e-12
4.75731e-13
1.53502e-08
-1.53506e-08
-1.90044e-08
1.899e-08
-1.80849e-11
3.24427e-11
1.66991e-08
-3.05406e-11
-1.66685e-08
1.59236e-08
-1.59388e-08
1.52796e-11
-1.71373e-08
1.71089e-08
-1.62692e-08
1.62703e-08
1.71729e-08
-1.71572e-08
-1.67347e-08
-2.47282e-11
1.67595e-08
-1.71783e-08
1.71862e-08
1.70814e-08
3.40829e-11
-1.62557e-08
1.62292e-08
2.65692e-11
1.71442e-08
-1.71262e-08
1.23472e-11
-1.90353e-08
1.90226e-08
4.05248e-13
7.70826e-13
-1.81555e-08
1.81599e-08
-5.17268e-12
-4.01759e-11
-1.90221e-08
5.79197e-11
-1.43594e-11
1.80335e-08
-1.80354e-08
1.62597e-11
-1.30692e-11
1.90226e-08
-1.90237e-08
1.4261e-11
-7.77765e-11
-1.90607e-08
1.90302e-08
1.0831e-10
1.30549e-11
-1.91757e-08
1.91931e-08
-3.03916e-11
2.72602e-11
1.81361e-08
-1.81388e-08
-2.45975e-11
1.71637e-08
-1.71768e-08
-1.72024e-08
1.71622e-08
1.73907e-08
2.54548e-12
-1.73953e-08
2.00431e-12
2.93017e-11
1.90865e-08
-1.90921e-08
-2.36363e-11
-1.67778e-08
1.68071e-08
-1.89982e-08
1.88144e-11
1.89929e-08
-1.35284e-11
-1.74068e-08
2.48935e-12
1.73975e-08
6.8852e-12
-2.98102e-11
1.82222e-08
-1.81166e-08
-7.586e-11
1.90803e-08
-1.91107e-08
5.11091e-12
2.52838e-11
-1.81183e-08
1.81434e-08
-2.40414e-11
-1.1155e-12
9.86134e-12
-1.75226e-08
1.75177e-08
-4.90094e-12
1.96561e-08
-1.34212e-10
-2.36007e-08
4.07883e-09
1.73672e-08
6.93985e-12
-1.73807e-08
6.60282e-12
-1.81468e-08
4.61384e-12
2.39372e-11
1.74202e-08
-4.47232e-12
-1.74176e-08
1.8562e-12
-1.83525e-08
1.82134e-08
-3.41454e-11
1.73325e-10
-1.87458e-08
-7.69702e-11
4.70277e-10
-1.59358e-08
1.59631e-08
1.59676e-08
-1.59974e-08
1.81288e-08
9.06586e-12
7.54997e-11
-3.28921e-12
1.75267e-08
-3.20186e-11
-8.95513e-12
-1.80424e-08
1.80667e-08
-1.5296e-11
-1.73327e-08
1.72549e-08
-1.80545e-08
-5.61272e-12
1.80282e-08
3.18698e-11
-1.71713e-08
1.71837e-08
1.91053e-08
-2.42104e-11
-7.06557e-13
1.54171e-08
-1.54073e-08
-1.74303e-08
-4.07201e-12
1.74338e-08
5.86333e-13
-1.89962e-08
1.89983e-08
-3.62329e-12
1.58651e-12
-1.108e-10
1.74099e-08
-1.75334e-08
2.34284e-10
8.52108e-12
1.62595e-08
-1.6268e-08
1.38399e-11
1.80672e-08
-1.80433e-08
-3.7693e-11
8.68849e-12
-1.89862e-08
-2.06461e-11
-1.62521e-08
1.62659e-08
1.67811e-08
-6.53341e-12
-1.59537e-08
-6.44042e-12
1.59602e-08
-1.70802e-08
1.70889e-08
-1.666e-08
2.84779e-10
1.63752e-08
-2.91643e-12
-1.91263e-08
1.91395e-08
-1.03343e-11
6.54944e-12
1.8165e-08
-1.81762e-08
4.58878e-12
1.62911e-08
-1.63055e-08
-1.09777e-11
-1.73867e-08
1.7394e-08
3.7103e-12
-1.59686e-08
1.59752e-08
-1.57899e-11
-1.56737e-08
1.56894e-08
4.17383e-12
1.91226e-08
-1.91343e-08
7.53707e-12
2.7334e-11
1.7541e-08
-1.75435e-08
-2.48536e-11
-1.73726e-08
-3.01665e-11
1.73655e-08
3.72906e-11
2.19149e-12
1.91738e-08
-1.91763e-08
3.182e-13
-1.68016e-08
-5.33007e-12
1.68069e-08
2.09818e-12
1.63146e-08
-1.63167e-08
1.68095e-08
-1.68124e-08
1.58029e-08
-1.59137e-08
2.85485e-10
1.60807e-08
-1.63662e-08
-1.80788e-08
1.80633e-08
1.35544e-11
1.94951e-12
-1.60003e-11
1.75212e-08
-1.75135e-08
8.36255e-12
-1.67583e-08
-1.94793e-11
-3.15798e-11
1.81542e-08
2.07792e-11
-1.53888e-08
-2.9091e-12
1.53917e-08
-1.59142e-08
-2.16064e-11
1.16524e-11
4.15172e-11
1.7314e-08
-1.59252e-08
-3.82573e-10
1.63078e-08
-1.53564e-08
1.53837e-08
-4.53986e-12
-1.67538e-08
1.91189e-08
-3.40729e-11
2.04014e-11
-1.59092e-08
-5.02972e-12
1.59125e-08
1.10402e-11
1.71386e-08
-1.29173e-11
-1.71257e-08
-1.74144e-08
8.17026e-11
1.62558e-08
-1.62539e-08
-1.8868e-12
-1.68245e-08
1.68287e-08
2.15889e-11
-1.54103e-08
1.53879e-08
-1.54039e-08
4.52783e-12
1.92042e-08
-4.70851e-11
-1.91853e-08
2.81848e-11
1.80863e-10
1.70375e-08
-1.72183e-08
4.75353e-11
-1.58713e-08
1.58238e-08
-1.52455e-08
1.52499e-08
-4.411e-12
-1.83626e-08
-1.74452e-10
1.82335e-08
3.03557e-10
1.92528e-08
1.36739e-09
-2.04393e-08
2.19341e-11
5.39485e-10
1.8776e-08
-1.09327e-09
-1.67726e-08
-4.21076e-10
1.71937e-08
1.73991e-08
4.65892e-12
-1.73954e-08
-8.32703e-12
2.63713e-11
-1.56967e-08
-9.92166e-12
1.57066e-08
6.29622e-12
1.74602e-08
-1.7485e-08
1.85041e-11
-1.81787e-08
1.16855e-12
1.81651e-08
1.24601e-11
1.90314e-08
-1.26821e-11
4.185e-12
1.91396e-08
-2.62669e-11
9.2588e-12
-1.96716e-12
1.53899e-08
-1.53903e-08
1.53966e-08
-1.53215e-08
-2.96512e-11
1.53512e-08
-1.53399e-08
-1.65173e-11
1.75052e-08
2.66345e-11
9.15187e-12
1.8224e-08
1.84444e-11
-1.9674e-11
-1.82228e-08
-1.33773e-11
-1.74307e-08
3.7281e-11
-1.58154e-08
1.58346e-08
-1.91639e-11
-8.24486e-13
1.9128e-08
1.24274e-11
1.5688e-08
-1.57014e-08
3.77476e-10
-1.74314e-08
1.70077e-11
-1.67941e-08
1.68123e-08
-1.81937e-11
-1.68024e-08
3.72395e-12
-1.56967e-08
1.57053e-08
-8.54665e-12
1.75053e-08
1.38444e-11
1.79433e-08
9.69984e-10
-1.86277e-08
-2.26199e-11
8.89046e-12
-4.77105e-11
1.92387e-08
1.32586e-11
-1.59526e-08
1.82515e-08
-1.82182e-08
1.41718e-11
-1.73631e-08
-6.83033e-11
1.82161e-08
4.25883e-12
-1.81901e-08
-3.02998e-11
-2.51869e-11
-1.52963e-08
-2.36798e-11
1.59072e-08
-1.58835e-08
1.56277e-11
1.82e-08
1.49961e-11
9.03591e-12
1.81534e-08
2.28555e-11
1.59165e-08
-1.59133e-08
-3.22215e-12
1.75462e-08
2.02556e-11
-1.7554e-08
-1.25173e-11
-1.70839e-08
3.70948e-12
1.74989e-08
2.20994e-11
4.34674e-10
2.00282e-08
4.78099e-10
-2.0941e-08
-1.53573e-08
-3.90558e-10
1.57479e-08
-1.38232e-11
-1.56445e-08
1.56583e-08
2.38927e-11
-3.55047e-11
-1.82154e-08
2.06374e-11
1.81952e-08
-4.37974e-13
-3.02504e-11
1.59375e-08
1.9228e-08
-1.95402e-08
3.29278e-10
1.73665e-08
1.87751e-11
1.71513e-08
-1.26358e-11
-1.57023e-08
5.61324e-12
-1.80862e-08
4.0281e-11
-1.56399e-08
1.5644e-08
-1.5662e-08
1.80097e-11
1.5421e-08
-1.54048e-08
-1.58685e-08
1.47709e-11
-1.39946e-11
-1.91634e-08
8.62512e-12
1.91498e-08
5.02231e-12
-2.57538e-11
7.09432e-11
1.89408e-08
5.29084e-12
-4.51086e-11
1.39866e-11
-4.33494e-11
-1.91669e-08
-1.70827e-08
-1.18787e-12
1.56905e-08
-1.52761e-08
-3.21178e-12
1.81778e-08
-3.84892e-11
1.65071e-08
-1.59219e-08
5.06015e-11
7.23951e-11
1.57305e-08
-1.80801e-08
1.80609e-08
2.12441e-11
-4.14971e-12
-1.91653e-08
5.9769e-12
-1.57077e-08
1.73564e-08
-1.73431e-08
-2.90093e-11
-1.73936e-08
-6.98736e-12
2.79993e-11
1.74832e-08
-8.06127e-12
-1.49248e-11
1.67634e-08
4.60714e-11
-2.98442e-12
1.54201e-08
1.52694e-12
-1.53885e-08
1.5387e-08
-5.40607e-12
-1.74091e-08
-3.11041e-11
-1.68136e-08
1.68222e-08
1.62978e-08
-1.63068e-08
-1.52631e-12
-1.57008e-08
-1.75392e-08
1.75339e-08
2.37264e-12
-3.953e-12
-1.57038e-08
4.2433e-14
1.69864e-08
-4.79355e-10
1.57012e-08
-1.07399e-11
2.91794e-11
1.59598e-08
-1.56973e-08
1.57042e-08
-1.59407e-08
1.74738e-08
1.09017e-11
-1.37727e-11
-8.2705e-12
1.67163e-08
1.29996e-11
-2.8812e-11
1.75025e-08
1.21354e-11
3.40389e-12
1.74493e-11
1.53431e-08
-1.74166e-08
-1.51601e-11
3.81131e-11
1.8104e-08
1.19356e-11
1.29042e-11
-8.05916e-12
2.57689e-11
-1.59208e-08
1.59355e-08
-1.68178e-08
-4.11025e-12
-1.73644e-08
-2.69043e-11
1.05274e-10
-1.61027e-08
-1.53032e-11
-1.48171e-11
8.62109e-12
-1.53648e-08
1.63033e-08
-1.62898e-08
5.24769e-11
1.19469e-11
4.86019e-10
-1.68522e-08
1.63662e-08
1.18398e-11
-1.75929e-11
1.74313e-08
5.09621e-11
-1.80163e-08
-2.32712e-11
1.71077e-08
-2.00383e-11
1.75426e-08
-5.1115e-11
-1.75276e-08
3.60684e-11
1.59562e-08
1.39627e-09
-1.2432e-11
9.15605e-12
1.66686e-08
7.83826e-12
-3.21921e-11
-1.90014e-08
1.90311e-08
-4.23848e-11
-1.81446e-08
1.33292e-10
-1.86347e-08
5.56823e-10
1.85556e-11
-1.90375e-11
1.74109e-08
7.83736e-12
-1.89212e-11
9.95617e-10
1.67004e-10
-1.57026e-08
-1.17328e-11
1.57143e-08
-2.91364e-11
2.97219e-11
-3.90758e-13
-1.53557e-08
1.5271e-08
8.46955e-11
-1.89606e-08
-2.1885e-11
1.61846e-11
1.04061e-10
-2.12256e-10
1.93469e-08
-1.59561e-08
-1.91476e-08
-3.46068e-11
-1.55646e-08
1.55611e-08
3.44336e-12
1.81363e-08
1.29555e-11
-2.19059e-12
2.48924e-10
-1.56578e-08
1.56239e-08
3.39085e-11
-1.62761e-08
1.68145e-08
1.62892e-08
-1.62551e-08
1.62642e-08
-1.58501e-08
-1.5414e-08
-1.80426e-09
1.0141e-10
-2.21418e-10
1.83715e-08
3.02625e-11
3.90141e-11
-1.5961e-08
-1.69284e-08
-1.52434e-08
-2.01252e-12
-1.60346e-11
-1.24595e-11
-2.27841e-12
-1.65717e-08
1.65795e-08
-7.79984e-12
1.71442e-08
-1.59648e-08
-1.52317e-08
1.52159e-08
1.58736e-11
-3.25158e-12
-1.48846e-11
-1.52612e-08
-4.73757e-12
1.70232e-08
-1.70202e-08
-3.07457e-12
-1.62007e-08
9.80636e-11
-1.81454e-08
9.93558e-13
5.76878e-10
-1.56125e-08
1.55954e-08
1.71553e-11
5.43809e-12
1.90979e-08
1.6453e-11
-1.37391e-10
-1.52199e-08
6.86962e-12
1.56991e-08
-1.56922e-08
-1.67239e-08
3.57733e-10
1.81773e-08
1.10658e-12
-5.95099e-13
-1.70432e-08
1.70057e-08
3.74936e-11
1.82014e-08
1.49635e-11
-1.71293e-08
-3.34241e-11
-1.61866e-08
1.61813e-08
5.30932e-12
-3.22011e-11
-1.66082e-08
1.664e-08
-3.18663e-11
-1.67878e-08
-1.41205e-08
1.47667e-08
-6.46177e-10
-2.42302e-11
-1.6812e-08
1.765e-08
-2.44697e-10
-3.32799e-11
4.19686e-10
-3.90532e-11
-1.57764e-08
1.31939e-11
-1.65627e-08
-8.94266e-12
3.38071e-11
-1.69866e-08
1.69987e-08
-1.21571e-11
1.57285e-08
-1.55914e-08
-1.37079e-10
-1.62166e-08
2.9952e-11
5.69419e-12
-3.91601e-11
-1.75297e-08
1.99675e-11
1.70301e-08
-6.84943e-12
1.45758e-11
1.91454e-11
-2.87066e-11
-8.53178e-12
-1.57088e-08
1.56865e-08
2.22487e-11
-1.56867e-08
2.88881e-11
-1.61629e-08
1.6166e-08
-3.06781e-12
1.87008e-10
7.39624e-12
5.22736e-12
-5.30404e-09
-2.85029e-11
1.25917e-11
-1.13037e-11
-1.3982e-12
-3.23071e-11
3.47089e-11
-1.65707e-08
7.92921e-12
1.57142e-08
-1.57159e-08
1.71617e-12
1.00212e-11
2.74429e-11
3.81319e-11
6.05491e-11
-1.56171e-08
1.56172e-08
-6.93321e-14
-1.36614e-11
-1.5501e-11
-1.65953e-08
1.26297e-11
1.65827e-08
3.12499e-11
-1.61825e-08
1.6181e-08
1.52004e-12
-2.41496e-11
8.00655e-12
1.61645e-08
1.67986e-11
-1.69782e-08
-8.33174e-12
-2.84281e-11
1.57616e-08
-1.57821e-08
2.04763e-11
6.79876e-12
1.32046e-11
-1.46587e-08
1.55315e-08
-8.72873e-10
2.58419e-13
-1.57357e-08
1.57113e-08
2.43685e-11
-1.66059e-08
1.65876e-08
1.82867e-11
5.21619e-12
-1.52693e-08
1.58233e-11
1.52535e-08
1.55585e-08
-1.55411e-08
-1.74799e-11
1.69929e-08
-1.69534e-08
-3.95228e-11
6.542e-12
2.59359e-11
-1.55612e-08
1.55763e-08
-1.50999e-11
-6.01573e-12
-1.70403e-08
1.7043e-08
-2.65455e-12
-1.65975e-08
-8.41609e-12
-1.69797e-08
1.48607e-12
1.52037e-08
-1.521e-08
6.29801e-12
-1.65846e-08
-1.28028e-11
4.67461e-12
-1.51794e-08
1.5174e-08
5.42e-12
1.61456e-08
-1.60967e-08
-4.89385e-11
-6.96426e-10
-1.39622e-08
-1.6582e-08
1.1364e-11
-1.61579e-08
-5.05742e-12
1.65792e-08
-1.65987e-08
1.94467e-11
-1.61243e-08
1.61406e-08
-1.63074e-11
-1.51803e-08
8.60552e-13
1.57563e-08
-1.57604e-08
4.07056e-12
-1.98907e-11
1.55532e-08
-1.55456e-08
-7.6137e-12
-1.51963e-08
1.51937e-08
2.53859e-12
-1.69447e-08
1.69511e-08
-6.44186e-12
-1.61107e-08
1.61107e-08
-5.3649e-14
-1.69643e-08
-1.54051e-11
-1.6106e-08
-4.61504e-12
1.72205e-08
-1.70932e-08
-1.27259e-10
1.63704e-08
-1.62506e-08
-1.1981e-10
1.65828e-08
-1.65766e-08
-6.21683e-12
-1.57576e-08
1.57391e-08
1.84103e-11
1.76281e-08
-4.07647e-10
-1.25003e-11
-1.70144e-08
-5.74464e-12
2.54104e-12
1.61727e-08
-6.66376e-12
-1.35388e-11
-1.57117e-11
-1.73025e-11
-1.25201e-12
1.51964e-08
-1.51949e-08
-1.50212e-12
1.65674e-08
1.17699e-11
-3.18624e-11
1.46364e-08
-1.4795e-08
1.58607e-10
1.66752e-08
-1.08738e-11
-1.66644e-08
-1.36742e-11
-1.52556e-08
-5.15669e-12
-1.5777e-08
-9.83818e-12
1.65402e-08
-2.363e-10
-1.63039e-08
1.74855e-08
1.95657e-11
-1.69513e-08
6.59866e-12
-6.61143e-11
-1.65185e-08
-1.69542e-08
2.87119e-12
1.29507e-13
-1.29462e-09
-1.28259e-08
1.55381e-08
-1.55487e-08
1.05888e-11
-1.02379e-11
-1.31764e-11
-1.71259e-08
2.06526e-08
-3.5267e-09
1.66738e-08
1.45558e-12
1.34537e-11
-1.52387e-08
7.01128e-12
1.67684e-08
-3.98066e-10
1.6651e-08
2.28173e-11
-1.66061e-08
2.4048e-11
1.66266e-08
2.43217e-11
1.52225e-08
-3.41451e-11
-1.51883e-08
-9.14748e-12
2.05824e-11
-1.62464e-11
1.52152e-08
6.46398e-13
-1.31225e-11
-5.85716e-10
1.52015e-08
2.17674e-12
-7.94455e-12
-1.52658e-08
-3.25642e-10
-6.89172e-12
-6.29388e-10
-1.00296e-10
-1.04958e-10
6.59759e-12
-1.52119e-08
1.88366e-12
1.55631e-08
1.31866e-11
-2.9121e-12
-1.55567e-08
1.10707e-11
1.55488e-08
1.23126e-11
-7.89247e-12
4.25744e-11
3.35038e-12
3.96606e-10
5.02044e-10
-2.39534e-10
2.43559e-10
-6.34779e-10
-1.39932e-09
2.20513e-09
1.06419e-09
-8.43826e-10
2.94123e-09
1.97772e-09
-1.27499e-09
-1.60208e-09
8.99351e-10
-9.62414e-09
-3.21413e-09
1.21133e-08
-1.13222e-09
-2.03027e-09
1.0447e-09
2.11779e-09
-9.92939e-10
-4.21117e-10
-1.20048e-09
8.2185e-09
-1.7911e-08
2.30018e-11
-7.24977e-11
1.79846e-08
1.96076e-08
-1.96051e-08
4.93072e-11
-3.5229e-12
-1.78318e-08
1.78406e-08
-1.90454e-11
-1.71948e-08
1.72207e-08
-7.51058e-11
1.8671e-08
6.90872e-11
1.8047e-08
-1.80683e-08
1.87442e-08
-1.87525e-08
1.86513e-08
-1.8651e-08
-3.2523e-11
-1.75116e-08
1.75014e-08
2.61033e-11
1.86817e-08
-9.17027e-12
-2.77485e-11
2.8007e-11
1.80252e-08
1.96224e-08
-1.9615e-08
-1.52957e-11
1.86459e-08
-1.85997e-08
-2.87519e-11
-1.7977e-08
-6.48333e-13
1.8015e-08
-2.03974e-11
1.96122e-08
1.43624e-11
2.10688e-11
-1.9674e-11
-1.85781e-08
1.96226e-08
-1.96128e-08
-3.47071e-11
-1.79936e-08
1.80211e-08
-2.50914e-11
1.80098e-08
-2.30222e-11
-1.80201e-08
-1.96872e-08
1.96874e-08
5.79827e-12
-1.96683e-08
1.96764e-08
-7.7685e-12
1.86618e-08
-2.15276e-11
-1.86705e-08
-1.80016e-08
-4.43125e-12
1.86726e-08
-2.48628e-11
1.96597e-08
-1.16651e-11
-1.96826e-08
-9.97649e-12
1.96503e-08
-2.09521e-11
1.80034e-08
-1.84561e-11
-1.94719e-11
-5.52813e-12
-8.41414e-11
1.9661e-08
1.0929e-11
1.87039e-08
-3.17488e-11
1.91259e-08
-1.47721e-11
-1.79545e-08
5.46917e-12
-1.86311e-08
-1.4955e-11
1.8678e-08
-1.97166e-08
1.97247e-08
5.07761e-12
-1.7925e-08
8.62502e-12
-2.41949e-11
-1.79223e-08
2.76334e-12
-2.80756e-11
-1.96135e-08
-1.39131e-11
1.91215e-08
-1.9095e-08
1.87115e-08
-9.80165e-13
1.91044e-08
2.29585e-11
-1.86973e-08
1.86929e-08
1.33452e-11
-1.97069e-08
1.96954e-08
2.07602e-11
-1.7925e-08
3.23963e-12
1.79509e-08
-1.79417e-08
-1.77518e-12
-1.8028e-08
1.80209e-08
1.80318e-11
1.87375e-11
2.53755e-11
1.79327e-08
-1.79326e-08
1.7291e-12
-5.17025e-12
-1.38149e-11
1.97187e-08
-1.09591e-11
-1.85837e-08
-7.17947e-12
1.87195e-08
-1.41976e-11
1.85786e-08
-1.85779e-08
7.48237e-11
-1.85793e-08
2.13955e-11
1.80256e-08
-1.8031e-08
1.05844e-11
-1.95982e-08
1.96447e-08
-1.17655e-12
1.21815e-11
-1.79557e-08
-9.05929e-12
1.8022e-08
-1.80105e-08
-1.63852e-11
1.87279e-08
3.48931e-12
1.97271e-08
3.54793e-12
-1.79452e-08
-6.86563e-12
-1.85737e-08
1.69081e-10
4.36769e-11
1.97087e-08
4.19656e-11
1.87098e-08
1.80456e-08
-1.16341e-11
1.95923e-08
-1.95718e-08
-2.00416e-11
1.85519e-08
4.66393e-09
-1.9137e-08
1.79332e-08
-1.7927e-08
-4.18921e-12
-1.85778e-08
4.74415e-10
1.95983e-08
-1.95934e-08
9.43297e-12
3.1162e-12
3.03332e-11
1.37033e-09
-1.9639e-08
-2.62559e-11
1.96668e-08
4.55463e-12
-1.77359e-08
2.00703e-10
1.69495e-08
-1.75169e-08
4.96728e-12
1.74957e-08
-1.18958e-11
2.09015e-12
-1.26992e-10
-2.27513e-11
-1.96076e-08
1.86535e-08
-1.86914e-08
5.28401e-11
-5.0301e-11
1.96216e-08
-1.96695e-08
4.81296e-11
-1.86338e-08
1.8557e-08
9.10201e-11
5.34358e-11
1.96048e-08
4.4989e-11
1.91157e-08
-8.93656e-11
1.95354e-08
8.26292e-11
-8.23513e-11
1.94055e-08
-1.76964e-08
4.35405e-10
1.78379e-08
-7.28933e-11
1.84085e-08
1.13238e-09
-1.78588e-08
3.88234e-10
-1.96952e-08
1.96362e-08
-7.82419e-09
9.09748e-09
-1.54263e-08
5.88697e-10
5.51029e-10
-9.89115e-11
-3.5286e-09
8.41585e-10
5.81811e-10
1.81551e-09
-1.67712e-09
7.0757e-09
-7.67612e-09
-6.25748e-09
6.8579e-09
2.01911e-11
1.52333e-08
6.7315e-11
1.86491e-08
-1.65267e-11
1.51905e-08
2.26759e-11
1.61557e-08
-1.61783e-08
3.66137e-11
-1.69908e-08
3.13536e-11
-1.61374e-08
-1.42589e-11
1.65969e-08
3.19396e-11
-1.55807e-08
-1.94965e-12
1.57411e-08
4.8441e-11
1.6983e-08
-1.70314e-08
5.31092e-11
1.61108e-08
-1.61639e-08
1.19497e-12
1.65864e-08
5.81787e-11
-1.87501e-08
7.1823e-11
-1.80487e-08
1.79964e-08
2.46626e-11
1.55537e-08
-1.55784e-08
5.88718e-11
-1.97387e-08
-2.33515e-10
1.50002e-08
-3.27908e-10
-1.57823e-08
1.61102e-08
-1.05526e-10
-1.60438e-08
1.61493e-08
-5.54261e-10
1.60858e-08
-1.4455e-09
1.49587e-08
-1.35132e-08
-3.6441e-10
4.38098e-10
-1.53534e-09
1.46165e-09
1.74776e-08
4.39423e-11
-1.80778e-08
4.24361e-11
1.74745e-08
-1.74916e-08
-1.7917e-08
1.79268e-08
-1.78962e-08
1.04827e-11
-1.88489e-08
1.88738e-08
1.91155e-08
-8.21318e-12
-1.72401e-08
1.72491e-08
1.81304e-08
-1.81473e-08
-1.87833e-08
2.29369e-11
-1.78291e-08
2.44762e-11
1.90673e-08
-1.90924e-08
1.79026e-08
1.15506e-13
1.74223e-08
-1.72204e-08
1.88674e-08
2.73447e-12
-1.72046e-08
-4.90617e-12
1.75678e-08
-3.82054e-10
1.72987e-08
1.77013e-11
1.90801e-08
-1.92462e-08
1.59514e-08
-3.07791e-09
-1.4319e-08
1.22184e-09
1.87592e-09
2.32394e-09
3.52188e-09
-2.09112e-09
-3.75469e-09
-5.21877e-10
-2.22977e-09
6.5276e-10
2.09889e-09
-5.71746e-10
-8.83711e-10
7.57453e-10
4.27146e-09
-1.86809e-09
7.48437e-09
-8.16935e-10
-1.25575e-08
1.33745e-08
8.25058e-10
-9.87766e-10
-1.82123e-09
1.73745e-09
-1.00382e-08
1.17676e-08
3.85568e-09
-1.52669e-08
-2.96671e-09
1.0121e-08
8.11253e-09
4.18119e-09
2.93155e-09
-3.80835e-09
-1.69137e-09
-1.31835e-09
-2.64859e-09
2.1317e-09
1.83524e-09
-6.90482e-09
-2.65073e-09
1.07714e-09
6.46055e-10
9.40195e-09
-9.7708e-09
9.86974e-10
1.41022e-09
6.78439e-10
-2.46188e-09
-9.02765e-10
2.04629e-09
4.33766e-09
8.85044e-10
1.33676e-09
5.3982e-10
-1.05153e-09
-1.11106e-08
-1.87941e-09
1.09774e-09
1.18923e-08
8.69302e-09
-8.43344e-10
-7.84968e-09
-1.05946e-08
9.6558e-10
1.45579e-08
-6.71103e-10
9.04536e-09
-8.33881e-09
-6.15707e-09
-2.56492e-09
2.82825e-09
2.31739e-09
-5.91493e-09
-7.96491e-09
4.96091e-11
1.47059e-11
8.29319e-09
3.80222e-09
-9.72432e-09
-2.52531e-09
6.17185e-10
-1.93677e-08
1.19778e-08
6.77278e-09
-6.91429e-09
5.06921e-09
-5.72405e-09
3.06844e-09
3.07237e-09
1.62022e-09
-1.38226e-08
-1.52401e-09
-8.99481e-12
4.38888e-09
1.36064e-09
1.36036e-09
7.66066e-10
5.4907e-09
-2.07805e-08
7.227e-10
-3.7212e-09
1.19611e-09
2.03652e-09
2.72133e-09
-2.43391e-09
-1.36331e-09
4.27624e-10
4.34858e-10
9.69495e-09
-8.59847e-10
7.74611e-10
6.15132e-10
6.71888e-10
2.91726e-09
-1.52565e-08
2.78743e-09
1.22161e-08
2.53018e-10
6.56397e-09
3.54506e-09
-9.25157e-09
3.28954e-09
1.67377e-09
-4.45107e-09
5.84967e-09
3.1395e-09
1.55824e-08
-3.23644e-09
-1.74889e-08
-4.561e-09
7.16254e-10
5.51852e-09
5.04345e-09
8.36773e-09
-2.67248e-09
-1.07387e-08
6.50644e-09
3.33746e-09
-2.46304e-09
-7.82511e-10
-9.89711e-10
-3.00383e-10
1.63862e-08
-1.30466e-10
1.51306e-08
-1.89471e-11
1.66053e-08
-2.61673e-11
1.57673e-08
-3.55143e-11
1.66324e-08
-3.43915e-11
1.52249e-08
-1.36403e-11
1.52469e-08
-1.71348e-08
4.20701e-10
1.63862e-08
-1.16182e-09
2.94155e-09
6.02685e-09
-4.24328e-09
4.22696e-09
6.14777e-09
-4.34787e-09
1.07977e-08
-1.43283e-08
2.46204e-09
7.03369e-10
-7.1105e-10
-2.73382e-13
-1.42588e-09
-1.00147e-11
1.56966e-08
2.18275e-09
-3.70227e-09
-1.97591e-08
-1.87639e-08
-1.91267e-08
-1.86391e-08
1.85684e-08
-1.89819e-08
1.87586e-08
-1.80479e-08
-1.78758e-08
1.78565e-08
-1.57471e-08
1.55534e-08
-1.5597e-08
1.56504e-08
1.7953e-08
-1.79845e-08
-1.62348e-08
1.60992e-08
1.69559e-08
-1.95828e-08
1.95484e-08
1.70465e-08
-1.14831e-11
1.55746e-08
1.61841e-08
1.97636e-08
-1.97318e-08
1.87717e-08
-1.87378e-08
1.78874e-08
-1.86674e-08
1.86248e-08
-1.79863e-08
1.7919e-08
-1.9643e-08
1.95917e-08
1.61444e-08
1.87003e-08
-1.86995e-08
1.88734e-08
1.5596e-08
-1.74982e-08
1.72511e-08
1.80449e-08
-1.80416e-08
-1.81832e-08
-1.37901e-11
1.61783e-08
1.85886e-08
1.70052e-08
1.97287e-08
-1.97215e-08
-1.41323e-10
-6.87645e-09
-2.64788e-09
1.08922e-08
-8.38561e-09
-7.25161e-09
-1.23222e-08
1.10814e-09
-3.88605e-10
9.47923e-09
-3.86698e-11
6.43127e-10
1.90286e-08
-1.48073e-08
7.21183e-09
-1.76572e-11
-1.44067e-11
7.17501e-12
-1.53324e-11
-1.78817e-08
-1.45136e-11
4.72033e-14
1.74548e-08
9.15361e-12
3.65444e-12
-7.03654e-12
-4.77785e-11
-1.71635e-08
-4.49171e-11
3.77835e-12
-1.8097e-08
-4.45796e-11
2.58928e-11
-5.44568e-11
1.65002e-11
-2.01958e-11
-2.05973e-11
-2.2796e-10
8.54177e-11
7.48289e-11
1.31944e-10
9.94603e-12
-1.50479e-11
1.90614e-08
-1.30343e-11
-1.96368e-10
-3.02353e-10
-2.60309e-12
1.79581e-08
-5.23795e-12
1.89208e-08
-1.64496e-09
7.88456e-10
-8.33962e-09
-3.19406e-09
-1.20211e-09
-9.43715e-10
-1.20654e-08
-3.78579e-09
-1.43444e-08
5.40964e-09
1.16086e-08
-1.42308e-08
-7.31808e-10
1.14363e-09
-3.45398e-12
-5.23981e-12
1.74635e-08
-1.94859e-11
-1.7876e-08
-6.67897e-12
-7.33201e-12
1.90754e-08
-6.08419e-12
-1.71689e-08
-6.92189e-09
-1.69404e-08
-2.87584e-09
-3.07664e-09
2.28928e-08
4.02707e-10
1.95353e-09
-6.63146e-09
4.77184e-09
1.05948e-08
-1.17631e-08
6.57795e-09
2.19325e-09
-8.72926e-09
-1.90799e-08
1.69854e-08
9.93625e-09
-3.79381e-11
4.13887e-09
2.10115e-10
9.78643e-09
-5.36742e-09
2.02108e-08
-1.36758e-08
5.14808e-09
-5.02893e-10
-1.27414e-08
1.99086e-09
1.8984e-09
8.85212e-09
1.19363e-08
-9.56006e-09
-1.82983e-10
-2.60257e-09