/*--------------------------------*- C++ -*----------------------------------*\
  =========                 |
  \\      /  F ield         | OpenFOAM: The Open Source CFD Toolbox
   \\    /   O peration     | Website:  https://openfoam.org
    \\  /    A nd           | Version:  8
     \\/     M anipulation  |
\*---------------------------------------------------------------------------*/
FoamFile
{
    version     2.0;
    format      ascii;
    class       surfaceScalarField;
    location    "1";
    object      phi;
}
// * * * * * * * * * * * * * * * * * * * * * * * * * * * * * * * * * * * * * //

dimensions      [0 3 -1 0 0 0 0];

internalField   nonuniform List<scalar> 
9048
(
6.57845e-09
-5.96394e-09
-2.89271e-09
2.2782e-09
-1.56597e-09
-1.36238e-09
1.73296e-09
1.19539e-09
8.31264e-09
-2.09596e-09
-6.64389e-09
4.27213e-10
-2.19411e-09
4.95328e-09
1.29336e-09
-4.05253e-09
-4.5917e-09
-3.07042e-09
1.97944e-09
5.68269e-09
2.97463e-09
-1.91471e-09
6.19351e-09
-7.25343e-09
-2.51654e-09
1.8786e-09
1.94673e-09
-1.3088e-09
3.39321e-10
-2.94323e-10
-6.34958e-11
1.84979e-11
4.4821e-09
-3.81508e-09
4.01615e-09
-4.68317e-09
7.34035e-09
-3.23038e-09
-6.75015e-09
2.64018e-09
1.31306e-09
-5.41927e-09
4.10042e-09
5.78835e-12
5.31464e-09
-4.56287e-09
-2.18601e-09
1.43424e-09
-5.27735e-09
1.93018e-09
4.84216e-09
-1.49499e-09
4.75728e-09
4.29778e-09
-2.81716e-09
-6.2379e-09
6.30595e-09
-5.72376e-09
-2.49484e-09
1.91265e-09
-5.84094e-09
4.59814e-09
1.77205e-09
-5.29251e-10
-7.53962e-09
5.91916e-09
2.29674e-09
-6.76279e-10
7.35373e-09
-6.07997e-09
-2.26615e-09
9.92386e-10
7.49863e-09
-6.69589e-09
-2.88634e-09
2.08361e-09
5.76312e-09
-5.13253e-09
-2.28175e-09
1.65117e-09
-5.65779e-09
5.08154e-09
2.20452e-09
-1.62827e-09
-4.97187e-09
4.54757e-09
1.96284e-09
-1.53854e-09
5.04903e-09
-4.51786e-09
-1.92846e-09
1.39729e-09
5.91272e-09
-5.45112e-09
-2.60458e-09
2.14298e-09
-5.40319e-09
4.95782e-09
2.26446e-09
-1.81909e-09
-7.08512e-09
6.69652e-09
3.11836e-09
-2.72976e-09
4.92348e-09
-4.62982e-09
-2.13294e-09
1.83928e-09
5.01066e-09
-4.71688e-09
-2.22583e-09
1.93204e-09
5.14768e-09
-4.84385e-09
-2.29012e-09
1.98629e-09
5.74354e-09
-4.7906e-09
-1.72783e-09
7.7489e-10
6.50022e-09
-5.4342e-09
-2.078e-09
1.01198e-09
5.34322e-09
-4.95164e-09
-2.31949e-09
1.92791e-09
-5.03991e-09
4.62334e-09
2.13848e-09
-1.7219e-09
6.04887e-09
-5.51296e-09
-2.53568e-09
1.99977e-09
7.27731e-09
-6.77608e-09
-3.27179e-09
2.77057e-09
6.13934e-09
-5.11004e-09
-1.89053e-09
8.61232e-10
5.86101e-09
-4.88035e-09
-1.80327e-09
8.22616e-10
5.97553e-09
-4.97499e-09
-1.83892e-09
8.38376e-10
-5.29205e-09
5.17209e-09
1.73872e-09
-1.61876e-09
-4.91811e-09
2.12711e-09
4.54527e-09
-1.75428e-09
-4.03893e-09
3.66994e-09
-3.42127e-09
3.79027e-09
6.97674e-09
-7.11603e-09
2.58054e-09
-2.44126e-09
2.98856e-09
-3.02143e-09
4.54981e-09
-4.51694e-09
2.69959e-09
-2.7697e-09
4.10276e-09
-4.03266e-09
2.63227e-09
-2.6907e-09
4.00651e-09
-3.94808e-09
-3.83758e-09
-4.25887e-09
4.05752e-09
3.218e-09
-3.35519e-09
4.90396e-09
-4.76677e-09
2.68076e-09
-2.74587e-09
4.00775e-09
-3.94265e-09
3.02621e-09
-3.0315e-09
4.55694e-09
-4.55165e-09
-2.9116e-09
2.77459e-09
4.64741e-09
-4.5104e-09
-1.66625e-09
1.59725e-09
-5.41914e-09
5.48815e-09
1.438e-09
-1.60596e-09
-5.24616e-09
5.41412e-09
-7.857e-09
2.96198e-09
-2.24565e-09
7.14067e-09
3.35749e-09
-3.30554e-09
-4.60544e-09
4.55349e-09
-2.87627e-09
3.21807e-09
3.41788e-09
-3.75969e-09
3.27789e-09
3.22682e-09
-3.19772e-09
-3.30699e-09
5.21e-09
-6.36278e-09
1.18559e-10
1.03422e-09
-3.56124e-10
3.41618e-10
1.79936e-12
1.27069e-11
-3.90019e-09
-3.84866e-09
3.77808e-09
3.97077e-09
3.88417e-09
-4.95026e-09
-5.10114e-09
6.16723e-09
3.95245e-09
3.12709e-09
-4.04052e-09
-3.03902e-09
3.37237e-09
3.53848e-09
-3.53161e-09
-3.37924e-09
2.94136e-09
-3.6791e-09
-3.82938e-09
4.56713e-09
4.11513e-09
4.37434e-09
-4.34079e-09
-4.14868e-09
-2.27619e-09
2.31552e-09
3.58739e-09
-3.62672e-09
-4.63933e-09
-4.09781e-09
3.79247e-09
4.94467e-09
5.46452e-09
2.38522e-09
-2.39757e-09
-5.45217e-09
4.78728e-09
4.93431e-09
-4.16986e-09
-5.55174e-09
3.39443e-09
-4.34312e-09
-4.38137e-09
5.33006e-09
-2.33261e-09
2.85372e-09
4.23617e-09
-2.19137e-09
2.24855e-09
2.45355e-09
-2.51073e-09
1.12828e-09
1.8406e-09
-1.56802e-09
-1.40087e-09
-1.05165e-09
6.263e-09
2.71377e-09
-7.92512e-09
-4.02124e-09
-3.30676e-09
3.17133e-09
4.15667e-09
3.53368e-09
3.54508e-09
-3.64778e-09
-3.43097e-09
4.5762e-09
4.57512e-09
-4.69931e-09
-4.45201e-09
2.54995e-09
-1.20467e-09
7.19311e-10
-2.0646e-09
-4.81362e-09
4.15664e-09
4.32692e-09
4.73223e-09
-4.78849e-09
3.91777e-09
-3.86151e-09
4.17749e-09
-4.18804e-09
3.43962e-09
-3.42906e-09
3.80439e-09
6.72296e-09
-4.22496e-09
-6.30239e-09
1.98487e-09
5.98607e-09
-2.59815e-09
-5.37278e-09
6.57926e-09
-4.36486e-09
4.88392e-09
-7.09832e-09
-4.90863e-09
-3.88568e-09
3.83777e-09
4.95655e-09
4.08536e-09
-4.56546e-09
-4.12641e-09
-3.81345e-09
4.1114e-09
3.82846e-09
7.23987e-09
-4.82783e-09
-3.85653e-09
1.44449e-09
-4.55719e-09
3.14413e-09
-3.94852e-09
5.36158e-09
-3.91293e-09
-3.09802e-09
3.03538e-09
3.97557e-09
-4.09785e-09
-3.24322e-09
3.18186e-09
4.15922e-09
-3.98902e-09
-3.15773e-09
3.09557e-09
4.05118e-09
-3.84541e-09
-3.04746e-09
2.98289e-09
3.90998e-09
-6.21074e-12
-1.05919e-11
-4.50645e-09
-3.28715e-10
-2.51645e-10
5.08681e-09
3.50758e-09
-3.57292e-09
2.91666e-09
-2.85132e-09
4.00136e-09
1.76048e-09
-7.73372e-10
-4.98847e-09
-3.95037e-10
-7.10075e-09
6.87491e-09
6.20878e-10
-4.18175e-09
3.73073e-09
4.07433e-09
-3.62331e-09
-1.27204e-09
6.02682e-09
4.55222e-10
-3.94269e-09
4.59842e-09
3.50671e-09
-4.16243e-09
-5.07937e-09
3.42266e-09
-4.14683e-09
5.80354e-09
-3.94003e-09
2.7563e-09
-3.56854e-09
4.75228e-09
4.44869e-09
8.21361e-09
-9.27395e-10
-1.17349e-08
-5.9876e-09
4.22937e-09
-5.10848e-09
6.8667e-09
6.70193e-10
3.39729e-09
-1.51753e-09
-3.62612e-10
2.46829e-11
3.41168e-10
-3.23863e-12
-3.96666e-09
-4.05954e-09
3.53424e-09
4.49196e-09
-4.64859e-09
-1.50276e-09
1.9321e-09
4.21924e-09
-4.16544e-09
5.92906e-09
3.02366e-09
-2.72112e-09
3.96754e-09
-4.55196e-09
4.1805e-09
4.98041e-09
-4.67881e-09
3.92114e-10
-3.49283e-10
-2.45276e-12
-4.03784e-11
-2.80454e-09
2.35898e-09
7.64133e-10
-3.18569e-10
5.10088e-09
4.57047e-09
-3.9167e-09
-5.75465e-09
2.73145e-09
-3.24304e-09
-1.1019e-09
1.6135e-09
2.55561e-09
-2.27039e-09
4.60991e-09
-4.89513e-09
-2.98615e-09
3.16813e-09
3.86962e-09
-4.05159e-09
5.9733e-12
-3.82963e-10
1.43775e-11
-4.16901e-09
-5.77396e-12
4.32118e-09
-1.46398e-10
5.68403e-09
-3.76754e-09
3.75153e-09
-5.66802e-09
-5.11733e-09
5.13945e-09
2.07359e-09
-2.09571e-09
5.19051e-09
-3.9111e-09
4.33195e-09
-5.61135e-09
-4.22871e-09
1.07068e-09
-3.14507e-10
3.47253e-09
-4.45367e-09
4.07476e-09
-4.1494e-09
4.52831e-09
-5.70777e-09
3.95642e-09
-4.5144e-09
6.26574e-09
6.00342e-09
-5.34337e-09
5.87165e-09
-6.5317e-09
-4.7616e-09
4.33161e-09
-4.50073e-09
4.93071e-09
-6.42835e-09
4.44884e-09
-4.72284e-09
6.70235e-09
5.15873e-09
-4.05768e-09
4.95096e-09
-6.05201e-09
4.41611e-09
-3.99151e-09
3.95198e-09
-4.37658e-09
-4.91372e-09
4.23245e-09
-4.47963e-09
5.1609e-09
4.60494e-09
-4.00058e-09
4.01035e-09
-4.61471e-09
5.64033e-09
-4.3083e-09
5.11278e-09
-6.44482e-09
4.58018e-09
-3.73013e-09
4.70355e-09
-5.5536e-09
4.63213e-09
-4.27883e-09
4.21738e-09
-4.57068e-09
1.58486e-09
-3.79978e-09
3.70517e-09
-1.49024e-09
5.18809e-09
-3.78258e-09
3.40322e-09
-4.80873e-09
4.82462e-09
4.49809e-09
-4.28791e-09
-5.0348e-09
-7.08505e-10
1.19365e-09
-3.22583e-09
2.74069e-09
5.15999e-09
4.61119e-09
-4.20533e-09
-5.56585e-09
-4.43541e-09
-4.16364e-09
3.47351e-09
5.12554e-09
-4.35954e-09
-4.07951e-09
3.49742e-09
4.94163e-09
-4.14636e-09
-2.90062e-09
4.05806e-09
2.98892e-09
3.97543e-09
3.06058e-09
-4.01813e-09
-3.01788e-09
4.68706e-09
4.06266e-09
-4.11578e-09
-4.63394e-09
4.55676e-09
3.94557e-09
-3.98741e-09
-4.51492e-09
4.69981e-09
4.162e-09
-4.06718e-09
-4.79463e-09
4.92091e-09
4.35979e-09
-4.26624e-09
-5.01447e-09
4.79295e-09
4.24228e-09
-4.1605e-09
-4.87473e-09
4.07278e-09
-4.46267e-09
-2.34997e-09
2.73986e-09
-4.84981e-09
3.84574e-09
-3.42816e-09
4.43224e-09
7.4268e-09
-4.68324e-10
2.59136e-12
-6.96107e-09
-2.88326e-09
2.79783e-09
3.75139e-09
-3.66595e-09
5.45034e-09
-4.86103e-09
-9.55237e-10
3.65934e-10
3.69138e-09
1.27025e-09
-3.58877e-09
-1.37287e-09
6.45837e-09
-4.27557e-09
4.28418e-09
-6.46698e-09
-4.09291e-09
2.08112e-09
-8.93117e-10
2.90491e-09
5.95819e-09
-7.72415e-09
7.21844e-09
-5.45248e-09
-1.40719e-09
-2.2535e-09
2.41913e-09
1.24156e-09
2.47637e-09
-4.79407e-09
-2.12266e-09
4.44036e-09
-4.42746e-09
3.95667e-09
-4.66904e-09
5.13984e-09
4.2104e-11
4.62477e-11
-8.83518e-11
-2.56819e-09
-3.15198e-10
2.36378e-10
2.64701e-09
-1.51766e-09
2.61699e-09
-5.96932e-09
4.86999e-09
3.09109e-10
8.8979e-11
-7.36044e-09
-4.93973e-09
8.6862e-09
3.61397e-09
-8.87207e-10
1.61779e-09
1.07458e-09
-1.80516e-09
1.23758e-09
1.30323e-09
-1.41253e-09
-8.99159e-11
9.93861e-11
-2.60503e-10
2.51033e-10
-3.70637e-09
3.33575e-09
4.36498e-09
-3.99437e-09
-3.01427e-09
-8.66317e-10
3.18567e-09
6.94912e-10
-1.77971e-09
3.01684e-09
-6.78288e-09
5.54574e-09
5.29353e-10
4.3712e-09
-4.65199e-09
-2.48567e-10
3.03167e-09
-3.29965e-09
3.97937e-09
-3.7114e-09
4.56263e-09
-9.397e-10
-3.55115e-09
-7.17774e-11
5.27408e-09
6.97354e-10
-1.90624e-09
-4.06519e-09
2.46722e-09
-1.52252e-09
2.5558e-09
-3.5005e-09
4.81961e-09
-5.01303e-09
6.25164e-09
-6.05822e-09
-3.8767e-10
-5.17554e-11
4.10209e-10
2.92157e-11
5.41617e-09
-4.94013e-09
-4.81516e-09
4.33911e-09
-6.18382e-09
-3.86411e-09
4.93061e-09
-2.23715e-09
-5.56446e-09
4.94133e-09
2.86027e-09
-1.4563e-09
2.3128e-09
-4.98274e-09
4.12624e-09
3.87726e-09
-3.89041e-09
-4.77532e-09
4.78847e-09
1.92708e-09
-9.23015e-10
-1.88164e-09
8.77571e-10
1.96847e-09
4.0306e-09
-1.99772e-09
3.6101e-09
-5.69211e-10
-4.18041e-09
1.13952e-09
-1.36261e-09
-2.51445e-09
1.19383e-09
2.68324e-09
-1.80721e-09
5.04468e-09
-4.90373e-09
-5.54653e-10
1.02561e-09
-2.98749e-09
2.7372e-09
-4.97534e-09
4.7145e-09
3.20329e-09
-3.12381e-09
-4.92929e-09
4.33499e-09
4.42953e-09
-3.73448e-09
-5.03004e-09
6.3217e-10
4.65147e-09
-5.15451e-09
-1.29132e-10
2.78844e-10
5.225e-11
-2.1643e-10
-1.14664e-10
-2.53425e-09
-4.02101e-09
2.71459e-09
3.84067e-09
4.77405e-09
-3.27442e-09
-4.22076e-09
-2.84146e-09
1.25434e-09
-5.00216e-09
6.58928e-09
-3.0638e-09
3.15446e-09
2.01038e-09
-2.10104e-09
4.15237e-09
-3.26338e-09
-7.59327e-09
6.70428e-09
8.31446e-10
-5.67487e-10
9.7362e-10
-5.83221e-09
6.75109e-09
-9.05757e-09
8.13869e-09
-1.23457e-10
4.56122e-11
-2.71438e-10
-4.37307e-09
4.35762e-09
-5.29655e-09
5.312e-09
-3.50038e-09
3.75639e-09
-4.83572e-09
4.57971e-09
-3.48787e-09
2.99918e-09
-4.25532e-09
4.744e-09
3.36928e-09
-3.46592e-09
4.33532e-09
-4.23868e-09
-7.38754e-09
4.28156e-10
5.31064e-09
1.64874e-09
-3.16016e-09
-1.23846e-09
1.04215e-09
3.35646e-09
-4.78845e-10
7.45963e-10
-6.20593e-09
5.93881e-09
-2.57277e-09
-1.07195e-10
1.11773e-10
5.89097e-09
-2.45136e-09
-3.43962e-09
-1.79887e-09
8.85832e-09
-8.1111e-09
6.71659e-09
-2.79882e-09
-3.91777e-09
-1.61056e-09
-4.94567e-09
1.90764e-09
-3.27336e-09
1.42263e-09
-2.01735e-09
3.86807e-09
-8.00585e-10
2.88331e-09
-2.79123e-09
5.05794e-09
-2.14128e-09
-2.91666e-09
2.14533e-10
1.39656e-11
4.33413e-09
-2.44262e-09
-1.45158e-09
2.53159e-09
-5.84548e-09
6.04951e-09
-6.38231e-09
6.17828e-09
-2.49373e-09
2.59468e-09
3.71618e-09
-3.81713e-09
-2.52769e-10
3.19505e-10
1.37587e-10
-2.04322e-10
4.98786e-09
-5.51195e-09
8.44379e-10
-3.20283e-10
4.26822e-09
-4.20634e-09
3.17291e-09
-3.3548e-09
4.35222e-09
-4.17033e-09
-5.45255e-10
2.07485e-09
3.97489e-10
-2.62613e-09
-5.62424e-09
5.16293e-09
3.08745e-09
-5.05675e-09
5.05527e-09
4.72825e-09
-4.72676e-09
-3.72647e-09
-4.86557e-09
3.83839e-09
4.75365e-09
1.48519e-10
-1.77796e-10
3.69014e-10
-3.39737e-10
5.19432e-09
-4.09658e-09
4.9582e-09
-6.05594e-09
-4.1724e-09
-2.83207e-09
4.02868e-09
2.97579e-09
-4.98525e-09
4.28821e-09
-5.00069e-09
5.69773e-09
-4.34746e-09
5.76672e-09
-6.31383e-09
4.89457e-09
-1.03573e-09
-3.04826e-09
3.15626e-09
9.27731e-10
3.93047e-09
4.10568e-09
-3.4154e-09
-4.62074e-09
3.08676e-09
-3.22855e-09
4.27342e-09
-4.13162e-09
-2.13776e-10
-2.0403e-10
3.67953e-09
-3.26172e-09
-2.60378e-09
4.00738e-09
2.20411e-09
-3.6077e-09
-4.16788e-09
-3.41571e-10
4.33191e-09
1.77547e-10
2.23369e-09
-2.60519e-09
5.6301e-11
2.76907e-09
-4.05751e-09
-2.33483e-09
3.62326e-09
-9.48197e-09
4.80374e-09
-4.58654e-09
9.26477e-09
-4.34388e-09
-5.33819e-09
4.64433e-09
5.03773e-09
6.16972e-09
6.02051e-09
-6.73063e-09
-5.4596e-09
3.35358e-09
4.63684e-09
-3.19653e-09
-4.79388e-09
-3.06487e-09
-1.13101e-09
3.43286e-09
3.58654e-09
-2.99826e-09
-4.02114e-09
-3.15624e-09
-4.31514e-09
3.06852e-09
4.40286e-09
3.33139e-09
4.14444e-09
-3.54193e-09
-3.9339e-09
4.47386e-09
4.9376e-09
-5.02338e-09
-4.38809e-09
3.58436e-09
4.59782e-09
-3.66061e-09
-4.52157e-09
-3.89627e-09
-5.10584e-09
4.03024e-09
4.97187e-09
-3.08619e-09
-3.48983e-09
3.52925e-09
3.04676e-09
3.231e-09
4.33348e-09
-3.06402e-09
-4.50046e-09
-3.17016e-09
-3.58535e-09
3.626e-09
3.12951e-09
-2.87494e-09
-3.59049e-09
2.23188e-09
4.23355e-09
-4.5197e-09
-5.7914e-09
4.87424e-09
5.43686e-09
4.75941e-09
-4.26879e-09
-5.75678e-09
5.26616e-09
-2.4207e-09
-1.37831e-09
2.58364e-09
1.21537e-09
-2.24714e-10
2.21357e-09
-2.28792e-09
2.99063e-10
3.6464e-09
-3.16053e-09
6.98956e-09
-7.47542e-09
-4.55929e-09
-3.42492e-09
4.6274e-09
3.35681e-09
3.27093e-09
-3.36159e-09
4.55087e-09
-4.46021e-09
3.36955e-09
-3.14414e-09
4.47312e-09
-4.69853e-09
-3.21617e-09
3.78369e-09
-5.25101e-09
4.68348e-09
-4.02067e-09
3.42262e-09
-4.08843e-09
4.68647e-09
1.36305e-09
-2.62165e-09
2.45224e-09
-6.15887e-09
5.70723e-09
-6.31767e-09
6.76931e-09
-4.33521e-09
-2.00491e-09
4.53292e-09
7.49106e-11
1.50363e-10
-1.54501e-10
-7.0773e-11
5.57199e-09
-5.03618e-09
5.89172e-09
-6.42753e-09
-4.94577e-09
3.38756e-09
-4.26299e-09
5.82119e-09
8.65844e-09
4.91699e-09
-7.40571e-09
3.69902e-09
-3.97755e-09
5.5214e-09
-5.24287e-09
-1.08655e-08
5.48486e-09
1.20526e-09
-5.13961e-09
-1.55051e-09
-4.53739e-09
6.70577e-09
3.61717e-09
-5.78555e-09
5.55288e-09
-8.04729e-09
6.96827e-09
4.57014e-09
-6.41757e-09
5.43179e-09
-3.96813e-09
5.78652e-09
-4.98855e-09
-3.86453e-09
5.63367e-09
-4.85533e-09
4.34812e-09
-6.1984e-09
5.08128e-09
-3.94153e-09
5.87335e-09
-4.80676e-09
-4.98008e-09
7.06401e-09
-5.9802e-09
-5.75268e-09
8.31674e-09
-7.08376e-09
4.3089e-09
-6.14586e-09
5.16835e-09
-5.62753e-09
8.26939e-09
4.53065e-09
-7.17251e-09
-4.79355e-09
6.7451e-09
-5.67802e-09
4.58299e-09
-6.24615e-09
5.59363e-09
-4.29384e-09
6.11397e-09
-4.97636e-09
4.00262e-09
-5.47259e-09
4.90283e-09
-3.17748e-10
-2.16219e-09
-9.28325e-11
-5.51331e-09
7.74418e-09
-6.57475e-09
-6.25266e-09
-6.92022e-10
6.14533e-09
7.99354e-10
-4.30496e-09
-4.87458e-09
3.61701e-09
5.56253e-09
3.92653e-09
4.20335e-09
-5.0982e-09
6.85216e-10
-7.26786e-10
4.33547e-10
-3.91977e-10
4.3517e-09
2.14992e-09
-2.21295e-09
-4.28867e-09
4.43028e-09
-7.67255e-09
7.91749e-09
-4.67522e-09
4.95312e-09
-6.82953e-09
5.22999e-09
2.38762e-09
-3.20987e-09
-3.37554e-09
4.19778e-09
-2.64261e-09
5.8049e-09
-5.1607e-09
1.9984e-09
-5.32013e-09
1.6816e-09
-3.80526e-09
3.49931e-09
-7.05449e-09
-5.82889e-09
-5.69308e-09
4.35512e-09
7.16685e-09
-4.37333e-09
4.14934e-09
5.40017e-09
-5.17618e-09
2.05839e-09
4.3445e-09
-2.13468e-09
-6.32945e-10
-3.65983e-10
-6.41561e-09
7.41454e-09
3.79796e-09
7.04702e-09
-5.7441e-09
3.05482e-09
-2.7294e-09
3.58363e-09
-3.90905e-09
5.66963e-09
3.81351e-10
-5.43697e-09
-6.14007e-10
-6.02711e-09
6.00765e-09
6.45999e-11
-4.51454e-11
-4.79658e-09
-6.75116e-09
6.49099e-09
-6.80672e-09
-7.70651e-10
6.35481e-09
1.22257e-09
-2.44253e-09
2.14862e-09
-6.29112e-10
1.87693e-09
6.3477e-09
8.8008e-11
-5.84402e-09
-3.78119e-09
5.48983e-09
4.13538e-09
5.01087e-09
4.59934e-09
-4.15597e-09
-5.45424e-09
-2.13768e-09
1.95724e-09
3.86304e-09
-3.68261e-09
-4.33606e-09
4.36203e-09
3.85129e-09
3.8397e-09
7.0279e-09
-5.67709e-09
2.17151e-09
7.05982e-09
-1.01506e-09
-8.21626e-09
-2.80624e-10
1.22451e-09
5.0564e-09
-4.11704e-09
3.24113e-09
-5.20885e-09
5.96138e-10
6.45529e-09
-1.84258e-09
5.05702e-09
5.23181e-09
-5.46922e-09
-4.54851e-09
-5.67014e-09
4.29647e-09
5.92218e-09
3.32148e-09
3.52845e-09
-3.40905e-09
-3.44087e-09
4.10188e-09
4.75595e-09
-3.72635e-09
-5.13148e-09
-5.84842e-09
6.30819e-09
6.59569e-09
-7.05545e-09
-6.17331e-09
1.91143e-09
3.90227e-09
3.59618e-10
-2.86159e-09
7.35717e-10
-8.88396e-10
-6.04736e-09
7.59383e-09
4.86488e-09
-6.41135e-09
4.33614e-09
7.7652e-09
-6.68516e-09
-3.02138e-09
-6.17495e-09
4.74266e-09
-3.85645e-09
-7.91214e-09
6.06083e-09
4.1971e-09
7.84824e-09
-6.40501e-09
4.55351e-09
8.25303e-09
-6.80312e-09
-3.4352e-09
-6.4342e-09
5.10781e-09
3.67247e-09
6.42579e-09
-5.51808e-09
2.66102e-09
3.28753e-09
-3.15428e-09
-2.79427e-09
-4.76671e-09
-8.66643e-09
7.0048e-09
-3.6596e-09
-6.3903e-09
5.13618e-09
3.30423e-09
5.81608e-09
-4.7042e-09
4.1614e-09
6.99182e-09
-5.99449e-09
3.21583e-09
6.1425e-09
-4.75339e-09
-5.10744e-09
-6.09112e-10
7.69392e-10
4.94716e-09
1.24762e-09
4.83138e-09
6.18278e-09
-8.18582e-10
-5.19769e-09
-1.66503e-10
4.99382e-09
-6.04953e-11
-5.06187e-09
1.2854e-10
5.85355e-09
-6.04048e-11
-5.92304e-09
1.29888e-10
6.48687e-09
-6.9554e-11
-7.12205e-09
7.0473e-10
-5.56381e-09
4.02133e-09
1.10108e-09
4.41397e-10
4.55504e-09
-5.1214e-09
1.49695e-10
4.16667e-10
-5.88699e-09
5.97129e-09
-7.42324e-11
-1.00652e-11
-6.18035e-09
6.09207e-09
2.09568e-11
6.7318e-11
-5.87422e-09
5.64463e-09
-1.2084e-10
3.50433e-10
-7.20879e-09
6.47175e-09
1.60844e-09
-8.71398e-10
-7.57372e-09
7.54909e-09
-6.64383e-11
9.10658e-11
-5.47304e-09
5.49683e-09
-1.28302e-10
1.04507e-10
-4.75666e-09
5.46408e-09
2.91185e-11
-7.36535e-10
-5.22064e-09
4.45395e-09
1.09963e-09
-3.32934e-10
-5.23305e-09
4.35874e-09
-4.07995e-10
1.28231e-09
-4.88737e-09
5.6131e-09
2.76514e-11
-7.53376e-10
-7.17705e-09
7.01391e-09
-3.05192e-11
1.93659e-10
-4.65865e-09
5.26331e-09
8.10661e-11
-6.85723e-10
-5.42297e-09
5.47119e-09
-1.05709e-11
-3.76425e-11
-5.54846e-09
5.63859e-09
-7.70405e-12
-8.24288e-11
-5.3728e-09
5.40408e-09
-4.20625e-11
1.07849e-11
-7.06265e-09
7.1598e-09
-4.47373e-11
-5.24123e-11
6.74077e-09
-7.96575e-09
-9.61089e-11
1.32108e-09
7.90757e-09
-7.59935e-09
1.49092e-10
-4.57304e-10
-4.17023e-09
-1.63512e-09
4.46371e-09
1.34163e-09
6.05593e-09
-6.44295e-09
-9.18227e-11
5.69522e-09
1.44175e-09
-5.53972e-09
-4.53665e-09
9.99815e-10
5.42547e-09
-5.65771e-09
-4.78079e-09
-7.41099e-09
7.14471e-09
3.96531e-09
1.91186e-09
4.62272e-09
-4.13412e-09
-2.40045e-09
-1.57046e-09
-2.25743e-09
-5.58973e-09
7.88294e-09
-8.13869e-09
4.7438e-09
-6.25164e-09
6.56487e-09
-1.78885e-09
5.0954e-09
1.04515e-09
-3.62625e-09
5.28161e-09
-4.85732e-09
3.20196e-09
2.05266e-10
-1.5672e-11
-1.89594e-10
3.67473e-09
6.30702e-09
-5.15713e-09
3.96829e-09
6.96205e-09
-5.77035e-09
-3.51616e-09
-5.99391e-09
5.07466e-09
-6.28317e-09
8.03096e-09
-6.68752e-09
2.4068e-10
-4.6227e-10
7.64839e-09
-5.85989e-09
6.21784e-09
-3.9842e-09
4.59185e-09
-4.73941e-09
-1.463e-09
-5.84877e-09
-3.46141e-09
4.95064e-09
-2.89108e-09
-5.68938e-09
4.4341e-09
2.88157e-09
5.52668e-09
-4.43282e-09
3.50439e-09
6.16526e-09
-4.98259e-09
3.40803e-09
5.99733e-09
-4.8486e-09
-2.03843e-09
5.2658e-09
-4.75512e-09
-4.47876e-09
3.74483e-09
5.48905e-09
1.51019e-09
-2.36419e-09
-1.58862e-09
-1.88126e-10
-1.05422e-10
6.14459e-11
2.32102e-10
-3.515e-09
3.44574e-09
5.25734e-09
4.65952e-09
4.0333e-09
-5.1567e-09
-3.53612e-09
6.26825e-09
-7.07949e-09
-2.8609e-09
3.67214e-09
1.3456e-09
-6.00747e-09
4.33164e-10
-3.98344e-10
3.5357e-11
-2.97572e-09
-3.58878e-09
2.85814e-09
-4.51224e-09
-8.18819e-10
4.83522e-09
4.9584e-10
5.94877e-09
-6.98219e-10
-2.6269e-10
5.50407e-09
-4.32546e-09
5.29316e-09
-6.47177e-09
4.77908e-09
-3.47707e-09
3.98091e-09
-5.28292e-09
3.48286e-09
6.57354e-09
-5.13549e-09
3.32845e-09
6.28081e-09
-4.90945e-09
3.38899e-09
6.40091e-09
-4.99695e-09
-1.83505e-09
2.65085e-09
-3.87959e-09
-4.11039e-09
-3.5194e-09
4.50127e-09
3.12852e-09
4.62837e-09
4.84393e-09
-4.0046e-09
-5.4677e-09
2.43069e-09
-6.19887e-09
-2.17199e-09
5.94017e-09
-1.12833e-09
4.21742e-09
-4.29534e-09
3.04501e-09
-3.46474e-09
4.71506e-09
-2.32341e-10
4.26197e-09
1.36442e-09
-4.11477e-09
-2.9448e-09
-9.69779e-10
4.29929e-09
1.63167e-09
-1.53148e-09
-4.39948e-09
-6.14975e-09
-4.14122e-09
5.65636e-09
4.63461e-09
-4.51876e-09
3.91403e-09
-3.93037e-09
4.53511e-09
6.20261e-09
2.36184e-09
-3.12776e-09
-5.43669e-09
-7.51095e-09
6.76483e-09
-1.96748e-09
2.71361e-09
-5.15125e-09
7.46643e-09
-5.83019e-09
4.08449e-10
-1.88052e-09
5.80502e-09
2.69889e-09
-6.23673e-09
-2.26718e-09
-7.41773e-09
3.74077e-09
-3.34678e-09
7.02374e-09
-5.0299e-09
-2.35711e-10
1.58177e-10
5.06479e-09
2.02002e-09
-3.52459e-09
-3.56021e-09
-4.75239e-09
5.86337e-09
-3.89922e-09
2.78824e-09
-4.98962e-09
4.12938e-09
4.70598e-09
3.29108e-09
-7.30154e-09
6.18197e-09
-2.39719e-09
1.55454e-09
-1.81613e-09
2.65878e-09
-5.52157e-09
7.64555e-10
5.00436e-09
-2.47349e-10
-1.69276e-09
8.28854e-09
-8.39466e-09
-3.60841e-09
-3.43126e-09
4.50542e-09
-2.71801e-09
3.91982e-09
-5.04723e-09
-2.81836e-09
4.06626e-09
-5.23692e-09
-2.89474e-09
4.17957e-09
-5.38269e-09
-2.76493e-09
3.98714e-09
-5.13514e-09
-2.38257e-09
-4.78685e-09
2.82617e-09
-3.26171e-09
5.2224e-09
-4.17989e-09
5.66595e-09
4.31895e-09
-5.21306e-09
-7.1699e-09
8.40282e-09
3.98014e-09
-9.42803e-11
-6.27202e-10
-7.85695e-13
7.22268e-10
-4.6697e-09
5.98535e-09
-7.16408e-09
5.05393e-09
1.10467e-09
-5.50788e-09
-6.50723e-10
-6.49824e-09
-1.55695e-09
6.99441e-09
1.06078e-09
-6.68731e-09
-8.60161e-10
-2.62448e-11
-5.14787e-09
-8.70225e-10
5.45061e-10
-5.07113e-09
-1.08508e-09
9.23155e-10
-4.02612e-09
-6.78089e-10
-5.24545e-11
-4.13516e-09
-6.99048e-10
-5.31658e-11
5.20243e-09
1.22705e-09
-9.4462e-10
5.72047e-09
1.01184e-09
8.46525e-12
4.06671e-09
4.49985e-09
-4.49347e-09
-4.07308e-09
4.72793e-09
-5.0907e-09
2.15974e-09
-1.79697e-09
-3.11925e-09
-1.39257e-09
4.49159e-10
4.95714e-09
-5.23079e-09
-1.75508e-10
-4.75013e-09
-5.91852e-09
5.72853e-09
-3.01153e-09
4.83713e-09
-5.95202e-09
-9.732e-11
9.97488e-11
-3.56566e-10
4.84045e-09
5.09939e-10
-6.25215e-12
-2.71871e-11
-6.08578e-10
5.98786e-09
1.10759e-09
5.51264e-10
-5.27455e-09
-8.40523e-10
3.49687e-10
-4.93357e-09
-5.37513e-10
-4.7235e-10
5.64955e-09
7.94086e-10
-1.12161e-10
3.30012e-10
-4.49927e-10
5.52635e-09
5.68206e-10
9.91193e-10
-6.56896e-09
-1.63103e-09
-1.33239e-10
5.05281e-10
1.00248e-10
-5.91456e-11
-6.37376e-11
1.87766e-10
1.07809e-10
-4.31699e-11
6.23347e-10
-4.97905e-09
-8.64941e-10
-7.09791e-11
-2.28935e-10
-2.87054e-11
-2.00374e-11
-2.3168e-10
5.13403e-09
3.60957e-10
-3.71836e-10
5.55413e-09
4.56302e-10
-3.62447e-10
5.40085e-09
4.32781e-10
-3.74425e-10
5.29535e-09
4.83154e-10
-5.30247e-10
6.92715e-09
7.62897e-10
-1.58917e-10
1.00736e-10
6.95594e-10
-7.28203e-09
-1.01292e-09
9.6176e-10
-1.14911e-09
-1.37862e-09
5.95819e-09
-3.61593e-10
1.27695e-09
-6.87355e-09
-4.15819e-09
1.71949e-09
-1.05747e-09
3.49616e-09
-2.46484e-09
6.08469e-09
1.66176e-09
-4.02922e-09
5.99361e-09
-5.93105e-09
8.2017e-10
-3.59919e-09
-9.07492e-11
2.86977e-09
-6.52507e-09
-1.4661e-09
4.80217e-10
3.89496e-09
-3.91298e-09
-3.28163e-09
-3.56924e-09
-6.92417e-09
6.76789e-09
3.72551e-09
3.76932e-10
5.43057e-09
-5.17058e-09
-6.36919e-10
-3.21109e-09
-5.72273e-09
2.09339e-09
3.49673e-09
-2.95273e-09
-2.63739e-09
-3.82467e-09
-4.99832e-09
2.67323e-09
-3.46372e-09
5.05188e-09
-6.49679e-09
-1.17705e-09
1.79454e-09
3.52706e-09
-4.14455e-09
-5.18783e-09
-6.31249e-09
6.68516e-09
-2.5147e-09
-7.45459e-09
4.89424e-09
5.07504e-09
1.00646e-09
4.12247e-09
-5.12893e-09
1.19062e-09
4.01616e-09
-5.20677e-09
1.61809e-09
5.56241e-09
-7.1805e-09
-3.45958e-09
3.27056e-09
-4.07767e-09
4.26668e-09
-4.09792e-09
4.12924e-09
-5.00148e-09
4.97016e-09
2.60352e-09
-2.60402e-09
4.45446e-09
3.91283e-09
-3.43956e-09
4.22923e-09
-4.7025e-09
-3.69743e-09
4.78083e-09
1.64209e-10
-3.3919e-09
4.38058e-09
2.93785e-09
-2.4095e-09
3.05976e-09
-9.68009e-10
4.47974e-09
-1.19671e-10
-2.81661e-11
-5.71284e-09
5.41463e-09
6.6064e-09
3.32552e-09
5.99886e-09
-5.25767e-09
1.58588e-10
-2.93748e-10
3.82548e-10
-2.47388e-10
8.50667e-10
-5.57756e-09
-7.85058e-10
4.76828e-09
2.98647e-09
-5.01754e-09
-5.75823e-09
-4.25128e-09
5.45446e-09
4.55505e-09
3.62825e-09
-3.49827e-09
6.34176e-09
-5.81003e-09
-1.68963e-09
6.92943e-10
7.23529e-09
-7.34483e-09
-3.58786e-10
-5.61901e-09
3.79095e-09
8.7689e-09
-6.94084e-09
-8.21208e-09
-4.67217e-09
6.72538e-09
7.62423e-09
4.27215e-09
-6.32439e-09
-7.34184e-09
4.81402e-09
5.93105e-09
-5.67465e-09
-3.21069e-09
4.86467e-09
-6.9763e-09
-3.84888e-09
5.87941e-09
4.76795e-10
-2.49256e-09
-3.93732e-10
-5.81238e-09
3.90098e-09
-3.30178e-09
5.21318e-09
5.33147e-09
1.08065e-09
-5.56145e-09
-4.44806e-09
1.20624e-10
-2.03534e-09
7.07634e-09
-5.97994e-09
-6.01105e-09
4.44217e-09
-6.99811e-09
5.92569e-09
5.96511e-09
3.93872e-09
-3.62406e-09
5.37402e-09
-5.68867e-09
-6.51165e-10
-7.09191e-09
7.85203e-09
-1.08956e-10
9.94042e-11
5.25965e-09
6.48597e-10
2.22553e-10
5.03121e-09
4.15864e-10
-6.4918e-09
4.46455e-09
-4.49878e-09
6.52603e-09
3.59036e-09
2.33523e-09
-1.46818e-09
-4.45741e-09
3.853e-09
4.64638e-09
-3.26805e-09
-5.23133e-09
-5.6684e-09
1.2423e-09
-1.91063e-09
6.33672e-09
-6.82493e-09
4.81154e-09
1.15022e-09
8.63171e-10
7.32632e-10
3.70626e-09
-5.94281e-09
1.50392e-09
4.37404e-10
1.36299e-09
-1.3244e-09
-4.75999e-10
-6.16973e-09
-5.93095e-10
-3.49509e-10
7.11233e-09
-6.30622e-09
-3.28722e-09
5.03415e-09
-4.17201e-09
4.31348e-09
-5.39854e-09
5.25708e-09
-4.30363e-09
-5.34588e-09
5.34454e-09
4.13431e-09
-3.72375e-09
3.12879e-09
-3.53935e-09
4.37717e-09
-3.67566e-09
4.32816e-09
-5.02967e-09
1.75703e-10
1.18444e-10
-4.80639e-09
4.55779e-10
-4.19473e-10
-5.3303e-10
4.96724e-10
-3.27777e-09
3.7819e-09
-3.49029e-09
3.668e-09
-4.00296e-09
6.17789e-09
-5.84292e-09
5.18509e-09
3.72055e-09
-5.12785e-09
-3.7778e-09
-9.30884e-11
3.82501e-10
5.6418e-09
1.53848e-09
-1.8829e-09
-5.29738e-09
5.22867e-09
-5.48832e-09
5.00344e-09
-9.9802e-10
-2.66415e-09
5.44467e-09
-8.21572e-09
1.35203e-08
-1.07492e-08
4.0133e-09
-3.96179e-09
-1.20006e-09
1.14855e-09
3.24072e-09
4.77726e-09
-3.99665e-09
2.16224e-10
6.44008e-11
-7.25707e-09
6.97645e-09
5.1669e-09
-6.96536e-09
5.08954e-09
4.54528e-10
7.67336e-09
-1.86489e-09
-4.07592e-09
5.41322e-09
-6.19462e-09
2.27142e-09
-2.36033e-09
-3.51949e-09
4.74607e-09
1.26213e-09
-5.27556e-09
7.18268e-09
3.27839e-10
-7.50793e-09
1.26287e-10
-2.39502e-10
-5.04253e-09
4.66769e-09
1.3813e-09
-4.85375e-09
4.32134e-09
1.72303e-09
-6.71017e-09
6.02396e-09
2.30429e-09
7.27347e-09
-6.10459e-09
5.79013e-09
1.06043e-09
7.24485e-11
-4.73021e-09
7.11593e-09
-8.34327e-09
6.39548e-11
1.16338e-09
-3.99516e-09
3.75477e-09
4.87252e-09
3.69552e-09
-3.55252e-09
-4.19027e-09
4.04727e-09
5.12655e-09
8.70618e-09
-7.23704e-09
-4.16404e-10
-5.05861e-10
4.02679e-10
5.19586e-10
-4.28354e-09
-1.14179e-09
6.88228e-10
4.7371e-09
-2.55374e-10
4.41051e-12
3.2088e-10
-6.99166e-11
4.59332e-09
-5.41322e-09
4.02186e-09
-1.19531e-09
6.53198e-09
3.0512e-10
3.06594e-09
5.53091e-10
-5.84498e-09
5.25651e-09
6.30894e-09
-3.02179e-09
3.60825e-09
4.61597e-09
4.22859e-09
-3.87357e-09
-4.49018e-09
4.11496e-09
-3.77035e-09
-4.37072e-09
-3.6457e-09
2.71725e-09
-4.21942e-09
3.271e-09
-5.29362e-09
-4.47562e-09
-2.11093e-09
3.79393e-09
3.37093e-09
2.41058e-09
-4.86971e-09
-4.22819e-09
2.9697e-09
-3.47273e-09
-4.5681e-09
4.89696e-09
-2.70519e-09
-5.07504e-09
6.51189e-09
-5.79443e-09
-3.903e-09
4.3824e-09
1.614e-09
-2.55406e-09
8.68667e-10
7.81061e-10
9.30915e-11
-9.6457e-10
9.04176e-11
-6.20241e-10
-5.21703e-09
-4.15392e-10
7.3782e-09
4.51655e-11
4.72383e-09
4.23328e-09
-4.77605e-09
-4.18106e-09
-4.86643e-09
4.27849e-09
-3.71499e-09
4.30293e-09
-8.25493e-09
5.3255e-09
6.59743e-09
-1.51595e-10
6.92461e-09
6.31781e-09
7.55475e-10
-1.79921e-09
-1.09977e-10
-5.44407e-10
5.60104e-10
-5.03824e-09
4.55318e-09
6.90338e-09
-6.41832e-09
-1.4761e-09
2.21939e-09
-1.75259e-09
1.00931e-09
1.69122e-09
-1.52738e-09
-5.10951e-09
-2.77945e-09
-1.05374e-09
3.86211e-09
-4.11459e-09
-3.02529e-09
1.53673e-09
4.34594e-09
-1.16001e-09
-4.72266e-09
-8.35725e-09
6.14148e-09
-3.69646e-09
3.1318e-09
5.51778e-09
-5.56061e-09
-5.14063e-09
5.48818e-09
8.75173e-11
-4.77971e-10
-1.3535e-10
5.25804e-10
-5.37971e-09
3.51203e-09
-5.34122e-09
5.30762e-09
1.72482e-09
7.99379e-10
6.79504e-09
3.71507e-09
-3.54488e-09
4.02785e-09
-4.19804e-09
-6.94876e-09
5.16242e-09
4.31882e-09
-3.72722e-09
3.66156e-09
-4.25316e-09
-4.60723e-09
4.37217e-09
-4.50779e-09
4.74284e-09
2.15134e-09
-2.02604e-09
6.49415e-09
-6.61945e-09
4.14031e-09
-3.0225e-09
-4.24162e-09
6.14543e-09
-6.17707e-09
-5.59589e-09
-3.75917e-09
4.07527e-09
3.99281e-09
4.93192e-09
-4.9549e-09
-4.51441e-09
-5.31001e-09
5.19797e-09
5.66492e-09
3.678e-09
-3.61569e-09
-3.92683e-09
3.77832e-09
-3.71218e-09
-4.03427e-09
-4.36529e-09
4.8382e-09
4.09723e-09
-3.9894e-09
4.52346e-09
3.81406e-09
4.80727e-09
-5.29232e-09
-4.49503e-09
3.47357e-09
-3.61524e-09
-3.79986e-09
5.19271e-09
-5.31745e-09
-5.62794e-09
3.89262e-09
-3.30515e-09
-6.03941e-09
-9.36782e-10
5.75412e-09
1.22207e-09
1.15983e-09
-3.587e-09
6.88614e-09
-6.44779e-09
6.02001e-09
-4.87475e-09
4.96538e-09
-4.52048e-09
4.42985e-09
9.64423e-11
-7.73831e-09
7.70627e-09
-3.99189e-09
3.99308e-09
1.15864e-09
-1.3463e-09
1.45475e-09
-1.99009e-09
-8.74765e-10
-1.21174e-09
7.4813e-10
1.33837e-09
6.03003e-09
-5.63282e-09
5.28682e-09
-4.99344e-09
-4.33533e-09
4.84606e-09
4.48271e-09
3.52773e-10
-4.69027e-11
2.72166e-09
-4.31058e-09
5.54137e-09
-5.02925e-09
-3.95131e-09
-4.36203e-09
-2.9527e-10
5.76435e-09
-1.10705e-09
-4.70019e-09
4.13453e-09
5.67749e-09
-5.11183e-09
3.68481e-09
3.32557e-09
-3.22722e-09
-3.78316e-09
6.72258e-09
-4.55261e-09
-6.59743e-09
2.28633e-09
-3.4652e-09
-1.59131e-09
2.77017e-09
1.41314e-09
-1.27593e-09
1.14924e-09
-1.28645e-09
4.40456e-09
-4.76041e-09
-3.63269e-09
3.98854e-09
6.02922e-09
-6.95421e-09
7.50425e-09
-4.67461e-09
-4.71947e-09
5.45138e-09
8.94878e-09
-7.64571e-09
3.88203e-09
2.54718e-09
-1.69899e-09
6.47576e-10
-1.49577e-09
-9.07961e-10
-5.02827e-10
5.42408e-09
-2.26856e-09
2.634e-09
-5.34078e-09
-4.78357e-09
-3.31515e-09
4.14005e-09
3.95867e-09
-4.29135e-09
-5.44709e-09
-2.60001e-09
2.54054e-09
2.52669e-09
7.90921e-10