/*--------------------------------*- C++ -*----------------------------------*\
  =========                 |
  \\      /  F ield         | OpenFOAM: The Open Source CFD Toolbox
   \\    /   O peration     | Website:  https://openfoam.org
    \\  /    A nd           | Version:  8
     \\/     M anipulation  |
\*---------------------------------------------------------------------------*/
FoamFile
{
    version     2.0;
    format      ascii;
    class       surfaceScalarField;
    location    "1";
    object      phi;
}
// * * * * * * * * * * * * * * * * * * * * * * * * * * * * * * * * * * * * * //

dimensions      [0 3 -1 0 0 0 0];

internalField   nonuniform List<scalar> 
8330
(
-7.37213e-09
2.2086e-10
-5.62468e-11
7.20751e-09
8.76433e-09
-7.22234e-09
-1.54199e-09
-6.78546e-09
7.47395e-09
-6.88496e-10
-3.43446e-10
4.75149e-12
5.19624e-10
-1.80929e-10
-3.4893e-09
4.09986e-09
7.24784e-09
-7.85841e-09
5.63215e-09
4.81661e-09
-6.23707e-09
-4.21168e-09
-9.57482e-09
1.12523e-09
-3.65405e-10
8.815e-09
-9.96732e-10
-7.97353e-09
8.72292e-09
2.47349e-10
-1.2872e-08
-4.75425e-10
-7.55385e-10
1.41028e-08
-7.19592e-09
7.12172e-10
-1.8665e-10
6.6704e-09
8.5585e-09
-8.3446e-09
-5.66211e-11
-1.57283e-10
8.65359e-09
1.93926e-09
-6.95746e-09
-3.63539e-09
-1.94371e-10
8.06475e-09
6.88118e-10
7.22378e-09
-7.13806e-10
3.60645e-10
-6.87062e-09
7.90656e-10
9.99188e-11
-1.00948e-08
9.20419e-09
-7.6966e-09
7.769e-09
-8.14375e-11
9.0316e-12
-3.88048e-10
6.9383e-09
-6.55025e-09
-3.68896e-09
4.6296e-09
-3.58451e-09
2.64387e-09
-8.08165e-09
-3.56196e-10
9.32479e-11
7.85639e-09
-7.80441e-09
-1.00979e-10
4.89937e-11
7.95119e-09
-7.90933e-09
-1.37174e-10
9.53107e-11
3.18152e-10
-8.44346e-09
-1.42973e-10
8.26828e-09
7.3719e-09
2.09137e-10
-2.1504e-12
-7.57888e-09
-7.9606e-09
8.09484e-09
-1.78172e-11
-1.16421e-10
7.44249e-09
-5.5752e-10
2.31131e-10
-7.1161e-09
-8.12434e-09
4.74127e-10
-2.33071e-10
7.88328e-09
-7.79681e-09
-4.86622e-10
-5.40005e-11
8.33743e-09
3.28934e-10
-8.21851e-09
8.55909e-09
-6.69514e-10
-7.91151e-09
-1.20495e-10
7.14122e-11
-2.28628e-09
5.00916e-09
-5.44503e-09
2.72214e-09
7.82651e-09
-7.43139e-09
8.18312e-11
-4.76947e-10
8.64936e-09
4.77529e-10
2.95453e-11
-9.15644e-09
5.4613e-11
-8.3265e-09
-1.58513e-12
8.27347e-09
7.28753e-09
-1.30515e-09
6.63458e-10
-6.64584e-09
7.4437e-09
-9.11838e-09
1.67467e-09
8.3106e-09
-9.69363e-09
1.95165e-09
-5.68618e-10
1.13343e-10
-2.43796e-10
5.97058e-10
7.59918e-09
2.17823e-09
-1.03745e-08
8.05965e-11
1.28138e-08
6.04595e-10
-1.3499e-08
-7.50585e-09
7.68223e-09
-1.76374e-10
-7.06519e-09
2.12666e-09
-2.41012e-09
7.34865e-09
1.78297e-10
-4.99296e-10
8.1475e-09
4.0407e-09
5.05116e-09
-4.37192e-09
-4.71994e-09
7.72497e-09
-7.16467e-09
-5.28537e-10
-3.17677e-11
-8.20101e-09
-3.39409e-10
-5.10335e-10
9.05076e-09
1.05762e-09
-4.20169e-10
7.68659e-09
-8.32404e-09
-1.41901e-08
-1.50859e-08
-8.28453e-09
1.27423e-09
-2.40506e-10
7.25081e-09
1.10516e-08
2.21475e-10
-4.50946e-10
-1.08222e-08
7.63488e-09
-7.58259e-09
-9.95624e-11
4.72679e-11
-8.47024e-09
-3.51306e-10
1.04356e-08
-1.61408e-09
2.13316e-09
-2.45164e-09
-7.02788e-09
7.34636e-09
9.028e-09
-9.43925e-09
5.10129e-09
-4.69003e-09
-1.25126e-08
-1.66212e-09
1.41747e-08
-1.67044e-08
1.087e-08
5.83445e-09
-9.2008e-09
1.93325e-09
-4.13054e-10
7.68061e-09
-2.84405e-11
-7.16387e-09
-3.61557e-12
1.41995e-09
-1.69678e-09
7.56436e-09
8.77917e-09
-9.31674e-09
-2.91341e-09
3.45098e-09
-3.78787e-10
-3.95247e-09
4.51415e-09
-1.82891e-10
7.89863e-11
-1.31924e-10
-7.80001e-09
1.20028e-10
-3.62744e-10
8.04273e-09
-7.3626e-09
7.62359e-09
6.21214e-11
-3.23115e-10
-7.66713e-09
-6.59712e-11
3.65073e-11
-3.47206e-09
1.44159e-08
-1.36642e-08
2.72033e-09
-4.4522e-10
6.98131e-11
-4.46668e-09
7.03631e-09
1.47107e-09
-4.49133e-10
1.91484e-10
7.45169e-09
-7.19404e-09
6.30115e-09
-3.76358e-09
-1.08891e-08
8.35154e-09
-9.16464e-09
-5.54145e-09
3.7101e-09
1.0996e-08
1.51352e-09
7.58605e-09
-9.09958e-09
7.92565e-10
-8.81297e-09
7.29308e-11
7.94747e-09
-7.54813e-09
-1.04916e-09
-2.71087e-11
8.6244e-09
-8.39453e-09
1.98967e-09
-5.68492e-10
6.97336e-09
7.54069e-09
-7.47442e-09
-1.29991e-10
6.37225e-11
8.04442e-09
1.32972e-09
-7.86061e-09
-1.34286e-09
9.25245e-09
-7.90959e-09
3.66103e-09
5.86753e-09
-6.70805e-09
-2.82052e-09
-3.32223e-09
3.67377e-09
-1.51413e-09
1.16258e-09
3.15104e-09
-9.73458e-09
-2.51413e-09
9.09767e-09
7.85455e-09
-7.49341e-09
-5.99026e-11
-3.01233e-10
7.5815e-09
-7.47579e-09
-1.05714e-10
-7.47702e-09
-1.84979e-10
7.66199e-09
8.3933e-09
-8.50321e-09
2.17948e-10
-1.08038e-10
-3.02377e-09
1.1133e-09
-1.41177e-09
2.60695e-10
7.18301e-09
1.21933e-09
-2.59051e-09
-1.50296e-09
2.87415e-09
-7.47209e-09
7.34473e-09
2.32233e-10
-1.04872e-10
-8.69781e-09
1.36834e-08
-1.06491e-08
5.66354e-09
8.47569e-09
3.15093e-10
-1.41419e-10
-2.27707e-09
-1.26582e-08
1.14633e-08
-9.00936e-09
9.33699e-10
-3.77804e-10
8.45346e-09
-6.47262e-09
5.93277e-10
-7.61628e-09
1.34956e-08
2.85417e-09
1.04158e-09
-1.08066e-09
-2.81509e-09
-7.19098e-09
7.30309e-09
-1.5971e-10
4.76032e-11
-6.33936e-10
-6.67912e-09
-4.95408e-11
-7.17488e-09
-3.02137e-10
7.14058e-11
-1.06811e-10
8.65526e-09
2.47407e-10
-1.74292e-10
-8.72838e-09
9.1194e-09
-8.93907e-09
6.10329e-10
-2.45202e-09
2.73413e-09
9.37212e-10
-7.34343e-09
7.44e-09
-1.08344e-10
1.17743e-11
-4.63351e-12
-1.27567e-10
8.63902e-09
-8.50682e-09
7.79822e-09
-7.93801e-09
1.39791e-10
-7.19679e-09
9.38812e-09
8.27566e-09
-1.0467e-08
1.77648e-10
7.63046e-09
-7.80811e-09
1.94672e-10
-7.4718e-09
7.27713e-09
-4.19728e-09
-5.42812e-09
5.59891e-09
4.02649e-09
-1.2536e-08
1.13524e-08
1.18364e-09
5.24543e-10
-7.59601e-09
7.07147e-09
-4.8403e-10
9.75266e-09
-1.42147e-08
4.94608e-09
7.82827e-10
-3.56588e-10
-8.96682e-09
8.54058e-09
-8.2251e-09
8.2864e-09
-1.47821e-10
8.6527e-11
-5.78877e-10
8.84153e-09
-6.45606e-11
-8.19809e-09
-5.28304e-11
2.29669e-10
1.18221e-09
-7.64789e-09
-1.2695e-09
7.73518e-09
1.0812e-09
-1.08789e-08
6.80582e-10
9.11709e-09
-3.15856e-10
6.79434e-09
1.61605e-09
-8.09453e-09
-2.11287e-10
2.33006e-10
-1.42052e-09
1.3988e-09
-7.86898e-09
7.05655e-09
-6.38436e-09
-1.26497e-09
-7.06065e-09
7.58858e-09
7.3705e-10
7.89698e-09
-7.56805e-09
8.58866e-09
5.29408e-10
-7.93586e-09
-7.54089e-09
4.74038e-09
1.02406e-08
-7.44005e-09
8.66215e-09
-8.7206e-09
2.06657e-10
-1.48212e-10
-8.9845e-09
1.14056e-09
8.46183e-09
-6.17884e-10
-1.77412e-09
9.1155e-09
8.56125e-10
-8.19751e-09
-7.29698e-09
-3.16168e-11
-1.4825e-11
-7.80492e-09
-6.67975e-10
2.5439e-10
-7.48279e-09
-1.94338e-09
2.25372e-10
1.72861e-10
4.04659e-10
-8.80262e-09
5.04561e-10
8.30368e-09
1.08332e-11
-8.81907e-09
-1.14587e-10
-8.18667e-09
8.30126e-09
-9.45573e-09
9.40204e-10
-3.73395e-10
8.88892e-09
-7.45178e-09
4.44023e-10
-1.19325e-09
4.0247e-10
-3.23267e-09
-1.13212e-10
2.94341e-09
9.13957e-09
-1.28234e-09
-7.85723e-09
-4.50729e-10
2.75479e-09
5.50105e-10
6.757e-09
-8.46502e-09
2.43586e-09
-7.27829e-10
6.98407e-09
-2.98559e-09
-6.28476e-09
-6.89663e-09
5.53923e-10
6.3427e-09
2.11835e-10
7.19168e-09
-7.34622e-09
-5.7295e-11
5.80748e-09
-1.7009e-08
-9.03244e-09
4.07596e-10
4.45968e-10
-1.02626e-09
-6.87149e-09
-4.04824e-10
3.72765e-10
-7.39933e-09
-8.50778e-09
5.49112e-09
3.27795e-09
-2.61295e-10
-1.04417e-10
9.73563e-11
2.06712e-10
-1.99652e-10
1.95237e-09
5.01596e-09
-2.11328e-10
-1.36494e-08
-4.03389e-09
5.88733e-11
-9.11259e-11
-7.20701e-09
3.95908e-09
1.42079e-08
-1.096e-08
5.81503e-09
-1.00636e-08
4.95134e-09
-7.02758e-10
-7.62484e-09
5.89898e-09
-8.21975e-10
-7.67545e-09
1.66919e-09
6.82824e-09
1.05701e-09
-2.30852e-09
8.5846e-09
-7.33309e-09
-1.07058e-08
1.26996e-08
2.39118e-09
-4.38506e-09
-1.39071e-09
9.387e-10
1.15036e-08
1.15504e-09
-1.57131e-09
4.09005e-09
-2.01189e-10
2.47698e-11
2.21594e-09
-1.99686e-09
-1.00042e-09
7.81346e-10
-2.21078e-10
-7.66703e-09
7.88811e-09
-6.23222e-10
1.41473e-10
7.72667e-09
-7.24492e-09
1.16914e-08
-2.20858e-11
-3.08065e-09
-3.9194e-09
-6.24906e-09
6.73334e-10
9.49513e-09
1.95332e-09
7.83961e-09
-2.53543e-09
-7.2575e-09
-3.55218e-09
1.06394e-08
7.44729e-10
-7.83195e-09
-9.15406e-09
6.56615e-09
3.66911e-09
1.12152e-08
-1.37243e-09
6.10209e-09
-1.59448e-08
-2.95375e-09
2.15922e-09
-6.40115e-09
7.19569e-09
-2.01431e-11
-1.2211e-09
5.87232e-10
-1.36459e-09
8.59067e-09
-7.81331e-09
8.63464e-09
-1.45743e-10
-8.4889e-09
-8.37746e-09
-3.62795e-09
9.87247e-09
2.13294e-09
-4.34346e-09
-5.94875e-09
6.09494e-09
-8.21777e-09
9.27113e-09
2.12786e-09
-3.18122e-09
-8.6223e-10
-7.88501e-09
8.18466e-10
7.92877e-09
3.00481e-09
-8.06772e-09
5.5043e-09
-4.41397e-10
-8.19176e-09
-1.22694e-09
8.15373e-09
-7.32655e-11
8.2541e-09
-8.18084e-09
3.78033e-09
-9.41009e-09
-3.6053e-09
9.23505e-09
-8.78463e-09
1.60879e-10
9.52069e-10
7.67168e-09
8.69436e-09
-4.48788e-09
-5.25227e-09
1.04579e-09
-1.58289e-09
4.94069e-09
-1.20556e-08
4.79918e-09
-4.91263e-09
-1.0931e-08
1.10444e-08
-6.80926e-09
5.76732e-09
-2.64702e-09
1.7975e-09
-1.55502e-09
-8.48052e-10
6.05568e-10
6.31268e-09
-9.76162e-09
-1.17473e-08
1.51962e-08
6.73725e-09
-2.2143e-09
-7.40306e-09
2.8801e-09
8.2981e-09
-1.78844e-09
-5.48524e-11
-7.52071e-09
7.83626e-09
-7.65772e-09
-7.96297e-10
4.64941e-10
7.98907e-09
-8.78215e-09
-9.68991e-09
1.26863e-08
5.78577e-09
-2.02539e-09
-7.54167e-09
7.64105e-09
1.92601e-09
2.77899e-11
-1.13504e-08
-7.26127e-10
1.20487e-08
8.02949e-09
-8.18915e-09
-1.37324e-10
2.96981e-10
2.27706e-10
-1.82495e-10
-8.05274e-09
8.00753e-09
-8.12833e-09
1.1592e-09
6.31054e-09
6.58593e-10
7.38777e-09
-7.75682e-09
9.20489e-10
-5.51446e-10
8.6242e-11
-1.28135e-10
-3.7745e-09
1.76311e-09
1.25878e-10
-6.87175e-11
-7.24814e-09
-6.30857e-10
2.76541e-10
-1.39358e-09
-2.85074e-11
-7.0857e-09
-1.98956e-09
1.13273e-08
-1.24209e-08
3.08319e-09
-6.73187e-09
-7.18545e-09
6.75265e-09
1.0444e-08
-4.39071e-09
-7.64441e-09
1.59113e-09
8.51924e-10
-1.08801e-09
8.90381e-10
4.35882e-10
-1.01109e-08
1.48785e-08
-1.27584e-08
1.21045e-09
-3.33057e-09
-8.99714e-09
-8.42875e-11
7.54699e-09
1.53444e-09
3.58767e-09
-3.56399e-09
1.63775e-09
-7.60301e-09
-2.25251e-09
7.27519e-10
-9.26878e-10
2.47999e-10
-1.91484e-10
-1.1548e-10
5.89652e-11
1.34633e-09
-1.16701e-09
-3.90608e-10
-4.84006e-11
-1.19872e-10
8.32498e-11
8.5023e-11
-6.83443e-10
4.74755e-10
-5.45091e-09
-9.31282e-09
5.18966e-09
9.57406e-09
9.29539e-11
-8.7302e-09
-1.42637e-09
4.23928e-09
-4.42787e-09
5.61468e-09
-5.42609e-09
7.88875e-09
-7.49233e-09
1.75519e-10
-5.7194e-10
-3.52865e-10
-3.33053e-09
-1.12613e-08
-2.45018e-09
3.19812e-09
1.05134e-08
-8.10883e-09
2.122e-10
7.07927e-09
-7.92985e-09
4.14488e-10
4.36094e-10
4.73228e-09
-8.28451e-09
8.29262e-09
-1.63547e-09
-1.32038e-09
7.58545e-09
3.81051e-09
-8.26543e-09
8.23525e-09
-9.37602e-09
4.32395e-09
1.08435e-08
-5.79146e-09
-8.55324e-09
2.67961e-09
-2.31814e-09
1.14977e-08
-1.29743e-08
6.27579e-09
-6.87582e-12
7.70405e-09
-7.69717e-09
2.35822e-10
-3.02923e-09
8.39328e-09
-7.44507e-11
-3.24375e-11
-3.12395e-09
2.68502e-09
2.97889e-09
-2.53995e-09
-2.76028e-10
-8.26983e-09
9.54822e-09
-1.00236e-09
-3.17229e-10
2.08249e-11
-7.17569e-09
6.34761e-09
-2.00117e-09
3.09687e-10
-4.65613e-09
5.10671e-09
-4.40769e-09
4.96134e-09
-5.66036e-09
-1.37021e-08
1.54364e-08
-8.20687e-09
-5.60636e-09
5.84357e-09
1.12605e-08
-1.20275e-09
-1.20481e-08
-8.91764e-09
1.05571e-09
-3.89648e-10
8.25158e-09
8.50132e-09
-6.6832e-10
1.72891e-11
-7.85029e-09
-2.95308e-09
-1.12314e-08
4.26489e-09
-4.90424e-09
3.31506e-09
-2.67572e-09
-4.82694e-09
4.03681e-09
-3.03234e-09
3.82247e-09
-3.11721e-10
-8.00139e-09
8.22748e-09
8.56252e-11
-4.95526e-10
-7.01033e-09
8.06937e-09
-2.69333e-09
-3.33107e-10
-5.04294e-09
7.14445e-09
-4.6487e-09
-3.84865e-09
1.3529e-09
9.40475e-09
1.6702e-09
-2.59926e-09
1.09145e-08
3.23805e-09
-6.44132e-09
-7.71118e-09
8.15917e-10
8.61295e-09
1.48558e-09
-5.59511e-09
-2.56753e-10
-1.15099e-09
7.00286e-09
4.49939e-10
-3.79196e-10
-1.43859e-10
7.31166e-11
3.74502e-10
8.23297e-09
-8.03183e-09
-5.75648e-10
9.43624e-11
7.01711e-09
-7.11148e-09
-4.27222e-09
-6.23528e-09
5.78986e-09
-2.38681e-09
4.15955e-09
-7.5626e-09
-1.55192e-09
-1.11047e-08
7.744e-09
-3.98659e-09
9.08507e-09
1.20268e-09
-9.56206e-09
-1.61513e-09
1.72145e-09
-7.26013e-09
3.12635e-09
3.9855e-09
1.48281e-10
1.02027e-10
-1.36457e-10
1.10789e-08
-1.22559e-08
-1.10005e-09
7.61328e-09
-7.23878e-09
-1.08668e-08
3.21676e-10
1.0645e-08
-9.77038e-10
1.44051e-09
4.54569e-09
7.0362e-09
-6.9383e-09
-1.78286e-10
8.0389e-11
-6.20341e-10
7.11552e-10
-1.91354e-10
1.00143e-10
-1.13756e-10
8.58974e-09
-9.94657e-09
-3.65718e-09
4.92376e-09
8.67999e-09
-9.11383e-10
-1.26408e-08
8.93928e-10
7.8928e-09
-8.01556e-09
1.51749e-10
-2.89842e-11
-3.50629e-09
3.50437e-09
-3.12203e-09
2.93327e-10
-7.10951e-09
6.81618e-09
-5.02162e-10
5.88897e-10
-4.20772e-10
3.34037e-10
-8.51159e-10
1.00387e-09
-2.76743e-10
1.24027e-10
1.18009e-09
2.29777e-09
-2.24542e-09
-7.8599e-09
7.80755e-09
6.27335e-09
3.71087e-09
-9.36173e-11
-9.8906e-09
-8.60074e-09
-5.81186e-09
7.30311e-09
7.10949e-09
-7.37692e-09
3.40986e-10
-6.21787e-10
3.99411e-09
6.50866e-09
-1.51423e-10
-1.03514e-08
-2.96374e-10
1.43196e-10
-7.65174e-09
-1.41959e-09
1.29761e-09
-2.21617e-09
2.33815e-09
-8.49225e-09
4.79517e-09
-1.53728e-09
5.23436e-09
5.02413e-09
4.35182e-09
-2.19934e-09
-7.17661e-09
7.76096e-09
3.82691e-10
-8.36722e-10
-7.30693e-09
-3.41103e-09
-8.05397e-09
5.90712e-10
1.08743e-08
3.10202e-10
-1.23808e-10
6.16054e-11
-5.6628e-09
-3.19038e-09
4.79955e-09
4.05363e-09
-1.71273e-09
-9.6747e-09
6.68326e-09
4.70417e-09
2.15298e-09
1.62675e-10
8.4038e-09
-8.28646e-09
-1.22372e-10
5.03295e-12
7.20138e-09
-1.48757e-09
-5.31725e-09
-3.96557e-10
1.31367e-09
-1.00859e-08
-1.09797e-09
9.87016e-09
-7.28764e-09
-4.80771e-10
7.94127e-09
5.27898e-10
-1.55149e-10
7.71902e-11
6.65863e-09
-9.65154e-11
-6.6009e-09
3.87839e-11
8.511e-09
2.05671e-10
-5.45172e-11
-7.05035e-09
-6.14865e-10
7.34522e-09
3.19995e-10
1.08689e-10
-6.98605e-11
8.04821e-09
-8.08703e-09
2.56857e-09
8.45689e-09
-1.25774e-08
-7.84605e-09
4.04086e-09
-2.22954e-09
6.03473e-09
8.67425e-09
-1.01475e-10
4.37052e-11
-8.61648e-09
-9.38262e-09
-1.73817e-09
2.13628e-09
6.77763e-09
1.22878e-10
7.60733e-09
-7.53612e-09
-1.94092e-10
7.71263e-09
-9.84e-11
1.46722e-10
-5.54189e-09
6.25217e-09
-5.4186e-09
4.70832e-09
-2.21132e-09
9.40515e-09
1.10427e-09
6.93226e-09
-6.82554e-09
-1.76341e-10
6.96228e-11
2.48227e-09
7.80629e-09
-7.09422e-09
-3.19434e-09
-4.47307e-09
-1.37127e-09
1.53201e-09
4.31233e-09
-7.70122e-09
7.67458e-09
6.73205e-11
-4.06861e-11
-1.03022e-08
-1.52448e-09
1.0436e-08
5.38363e-11
8.07896e-09
-8.02718e-09
-1.38822e-09
1.33644e-09
8.28697e-11
-1.75313e-10
4.0635e-09
-4.71625e-09
-1.7799e-09
2.43265e-09
1.1149e-10
-2.51097e-10
-1.39845e-08
1.52531e-08
1.89088e-10
-1.23155e-09
1.27547e-09
-6.72256e-09
1.38728e-09
7.63304e-09
-7.93312e-09
-6.73613e-09
2.13324e-09
-1.38043e-08
6.45167e-10
-1.51503e-09
1.46742e-08
8.38033e-09
-3.1205e-09
-9.53205e-09
-7.0883e-09
1.41044e-10
-4.30629e-10
7.37789e-09
5.22725e-10
-7.32269e-10
8.38213e-09
-8.17258e-09
-1.74908e-09
-7.78518e-09
7.7275e-10
8.76151e-09
6.52894e-11
-1.34284e-10
-5.76441e-09
4.33447e-09
-9.50104e-09
-1.2895e-08
-2.75432e-09
7.09606e-09
-5.51573e-09
2.4655e-09
-5.1086e-09
8.15883e-09
-2.44018e-09
-2.0319e-09
3.05248e-09
7.80467e-09
-3.49836e-09
9.16606e-11
7.81106e-10
2.62559e-09
9.12963e-09
-1.95669e-09
7.93131e-10
-7.96607e-09
-8.42313e-09
8.12482e-09
4.59185e-10
7.4516e-09
-7.56011e-09
1.493e-10
-4.07956e-11
5.23649e-09
-5.50113e-09
6.56569e-09
-6.30105e-09
-6.38822e-09
4.85171e-09
-3.68983e-09
5.22634e-09
1.11578e-09
7.71845e-11
-1.66127e-09
3.55923e-09
2.16554e-09
-1.15342e-08
8.17516e-09
1.64632e-09
-1.72049e-09
-1.14906e-08
3.8997e-09
-1.87861e-09
-3.53522e-09
-2.47516e-09
-8.39849e-09
1.03085e-08
5.65149e-10
-8.50558e-10
-8.58654e-09
1.50406e-09
7.93303e-09
-1.1182e-10
2.7534e-09
-1.02079e-08
1.53286e-09
-1.87537e-09
1.05504e-08
-7.56239e-10
4.54026e-10
-7.18058e-09
-3.15431e-09
1.09509e-08
1.47456e-09
1.94338e-09
7.28402e-09
-8.16978e-09
8.82194e-09
4.32873e-09
-1.22603e-08
-8.38682e-09
2.02908e-09
9.59579e-09
-5.11619e-09
4.63831e-09
-5.43273e-09
5.91061e-09
6.61601e-09
-6.18635e-09
-9.58372e-09
-3.03419e-09
8.63799e-09
6.4007e-09
-2.85906e-10
-6.16601e-09
5.12137e-11
7.58392e-09
-6.78763e-09
1.27143e-09
-2.06773e-09
-1.36443e-09
-1.02169e-08
8.43846e-09
4.20764e-10
-7.80221e-09
-1.37646e-10
5.25089e-11
-1.06346e-10
3.10599e-09
1.38835e-08
-1.69895e-08
-3.52539e-09
-4.21976e-09
1.74234e-09
6.00281e-09
-7.37774e-09
6.32003e-11
7.1718e-12
7.30737e-09
-5.82907e-11
6.46591e-11
-7.30335e-09
-9.93066e-09
-3.55327e-09
1.03296e-08
7.61747e-09
-6.8666e-09
-1.63204e-09
8.81171e-10
-8.0536e-09
1.28437e-09
8.40698e-09
-9.1699e-09
-2.15902e-10
8.69493e-09
6.90879e-10
2.99427e-09
-1.76048e-09
1.86986e-09
-3.10364e-09
2.14877e-09
-9.52673e-09
-1.37023e-09
8.74819e-09
6.80662e-09
-1.79814e-10
3.1821e-11
-9.27256e-10
1.47089e-09
3.04404e-09
-1.00893e-08
2.7811e-09
7.48583e-09
4.84817e-11
-9.33882e-11
-9.27398e-11
1.36416e-09
1.13285e-08
-1.7993e-09
-1.08933e-08
-7.58207e-09
9.61785e-09
8.15654e-09
-1.01923e-08
-3.98364e-09
-4.03769e-09
1.29878e-09
2.51558e-10
7.27368e-09
7.52859e-09
-4.73725e-11
1.08016e-09
-1.03279e-09
-5.34632e-09
4.34143e-09
-4.42323e-09
1.8398e-10
9.03322e-09
-5.42955e-10
-6.06876e-10
5.74148e-10
-1.04082e-09
1.07355e-09
-1.56166e-09
1.02187e-09
-9.35797e-09
9.89776e-09
-4.89353e-09
7.5923e-09
3.73336e-09
-6.43213e-09
-2.93923e-11
-3.63094e-10
4.90536e-11
3.43433e-10
8.95281e-11
-1.71922e-09
1.98161e-09
-3.51926e-10
-2.05759e-09
9.42696e-09
-5.95826e-09
-1.4111e-09
-3.6574e-09
4.32963e-09
4.92797e-09
-5.60019e-09
4.41973e-09
-6.12545e-09
-3.81498e-09
5.52071e-09
3.8736e-09
1.06343e-08
-6.92402e-09
-9.01168e-09
1.02444e-09
-1.55799e-11
2.6998e-11
-4.75744e-09
4.84599e-09
-3.86399e-09
3.77544e-09
-7.05669e-09
-4.87342e-09
-1.15739e-08
-9.9186e-09
8.49254e-09
7.45426e-09
-6.02821e-09
-1.16169e-09
1.09548e-09
-5.40661e-10
-1.04727e-08
-2.08643e-09
-3.12915e-10
-7.51482e-09
7.60663e-09
1.09553e-10
-4.16055e-11
1.96666e-09
7.88614e-09
-1.5422e-09
8.69641e-09
2.2144e-10
-1.03637e-08
9.993e-09
-2.0795e-09
-5.5713e-09
6.95033e-09
-8.73417e-09
7.35514e-09
3.25825e-09
-6.21697e-09
-3.44529e-09
6.404e-09
-3.77594e-09
-4.25631e-09
4.52596e-09
-5.15486e-09
7.73823e-10
-1.48054e-09
1.2971e-09
2.72968e-10
-7.60412e-09
7.6937e-10
7.12808e-09
-4.55421e-10
-1.44411e-08
9.45376e-09
5.44277e-09
-1.1906e-08
1.03816e-08
2.8885e-09
4.591e-09
-1.37954e-08
1.1773e-08
-1.8639e-09
2.51554e-10
8.7568e-09
3.89811e-09
1.71806e-09
-2.11181e-09
-7.63228e-09
7.52198e-09
5.45415e-09
-5.34386e-09
1.75375e-09
-1.89336e-09
3.13387e-09
-2.38281e-09
5.92727e-09
-1.25298e-08
-4.33936e-09
-1.11243e-08
-4.42158e-10
4.90349e-09
7.92243e-09
-8.09364e-09
1.22377e-09
-8.32132e-10
1.82514e-10
1.01625e-09
-1.19169e-08
-4.40451e-09
1.53052e-08
6.16888e-09
-5.5285e-09
3.052e-09
-3.69239e-09
-7.3879e-09
1.248e-09
-9.7424e-10
7.11414e-09
-4.59778e-10
1.01671e-09
3.86689e-10
-9.43619e-10
-7.67358e-10
-6.93724e-09
7.46576e-09
2.38843e-10
7.13758e-09
-7.80318e-09
-4.85012e-09
4.36906e-10
-5.81705e-10
-1.47253e-09
1.61732e-09
-1.15081e-08
8.02382e-09
-4.14798e-09
4.70957e-09
1.1995e-09
5.78233e-09
-1.27493e-09
-7.39156e-09
1.27859e-09
1.2954e-08
3.83537e-09
6.17187e-09
4.58709e-09
-6.29818e-09
-4.46078e-09
1.03547e-09
-4.12707e-10
6.03926e-10
-1.22669e-09
-5.90401e-10
-5.15468e-09
-1.90677e-09
7.65185e-09
-7.37675e-10
6.84591e-10
3.39333e-10
-2.8625e-10
3.01731e-09
-8.82977e-11
1.60417e-10
3.08608e-10
-3.80727e-10
4.94678e-10
-7.61975e-09
-1.20411e-10
7.24549e-09
1.2988e-10
7.65905e-09
-8.79361e-09
1.00467e-09
-1.92768e-10
2.08597e-09
5.63538e-09
-8.24777e-09
1.36858e-08
9.54591e-09
-9.92075e-09
-2.37947e-09
-3.89548e-09
4.48765e-09
-1.02669e-08
-7.92921e-10
9.27081e-10
-5.93938e-10
-3.68279e-09
-7.43121e-09
2.62233e-09
8.49167e-09
6.36687e-09
-6.23825e-09
6.48739e-09
-1.25864e-09
1.1332e-10
-2.16923e-11
6.97183e-09
-9.0493e-09
-5.21017e-09
-2.3029e-09
5.76209e-10
-1.22142e-08
1.26543e-08
4.36518e-10
-8.66573e-10
-8.28583e-10
1.45506e-09
-1.72835e-09
2.02704e-09
7.0404e-09
-4.87275e-09
-2.75805e-09
-6.4863e-09
4.05315e-09
-3.7532e-09
-9.19863e-09
8.61455e-09
-6.42867e-10
6.575e-09
-6.09698e-09
-1.47272e-09
9.94699e-10
-9.36366e-09
-2.0549e-09
3.01626e-09
8.4023e-09
7.56945e-09
-5.54611e-09
-4.08094e-09
7.6375e-09
6.75349e-09
-7.83129e-09
-6.5597e-09
-8.01655e-10
8.5836e-10
3.79813e-10
7.93348e-09
-7.98223e-09
-2.76694e-10
3.25442e-10
9.16006e-09
-6.01044e-09
1.09786e-08
-6.22096e-09
-1.09279e-08
6.17027e-09
9.42676e-09
-6.25134e-09
8.31193e-09
-1.71635e-09
-7.58387e-09
3.0308e-10
6.59156e-09
-2.07002e-10
1.61411e-11
1.28136e-08
-6.35837e-09
5.14768e-09
-1.16029e-08
-5.31936e-10
7.36147e-10
-3.34395e-09
4.78023e-10
-1.19207e-09
4.058e-09
8.30205e-09
9.53573e-10
-6.96534e-10
-2.20911e-10
-8.2697e-10
3.10206e-10
-3.10699e-09
9.9352e-10
-2.13427e-09
2.32453e-09
-1.19068e-09
2.64652e-09
1.11275e-08
2.40908e-09
-8.58134e-09
-4.95524e-09
-1.59027e-09
1.91421e-10
9.52367e-09
-1.97086e-09
1.58716e-09
-1.23488e-08
1.13379e-08
7.26706e-09
1.6244e-09
-7.11036e-09
-1.7811e-09
-1.30849e-09
5.62666e-09
-8.46284e-11
-4.58356e-10
1.99538e-10
4.29641e-09
-4.0695e-09
7.29507e-09
7.91868e-09
-1.98759e-09
1.1093e-09
-1.50236e-09
1.22479e-09
-2.31102e-09
2.5886e-09
-3.29768e-09
-1.2132e-08
-8.02338e-09
1.28859e-11
-5.07287e-12
-6.84633e-09
-1.34022e-08
1.69508e-08
-1.07516e-08
6.95301e-09
-6.12003e-09
-9.54703e-09
4.29508e-09
6.70235e-09
-1.45041e-09
9.35409e-09
-8.26986e-09
3.76748e-09
-1.5237e-10
9.39884e-09
-1.14482e-08
2.20177e-09
6.91339e-09
-6.81789e-09
-9.54988e-11
-7.3266e-09
-6.06527e-10
-7.96002e-09
2.88939e-09
4.92997e-09
-4.9989e-09
-4.39626e-09
4.4652e-09
2.54972e-10
-4.57211e-10
-7.17468e-09
2.2539e-10
2.1847e-10
7.48962e-09
6.41755e-09
-7.40978e-09
-6.85382e-09
4.65347e-09
-4.87931e-09
6.88597e-09
-6.66014e-09
2.29612e-09
9.65003e-09
-3.15704e-09
-8.78911e-09
8.42305e-09
-8.95362e-09
-1.68074e-09
7.75669e-09
-7.72605e-09
9.73081e-10
-1.00372e-09
-1.27035e-08
1.23477e-10
7.74398e-09
-7.76179e-09
2.16181e-09
6.58629e-09
-8.65637e-09
-9.17318e-11
7.91826e-09
4.08831e-09
-7.297e-09
-2.78105e-10
-8.25275e-09
1.04975e-08
1.92387e-09
8.77913e-09
-1.0703e-08
-1.31539e-09
-6.7178e-09
3.02712e-09
5.00607e-09
-7.70034e-10
-8.26767e-09
9.51183e-09
-1.18119e-09
1.58741e-09
2.25957e-10
-6.32176e-10
-2.70774e-10
8.4535e-09
6.89591e-11
-1.01009e-10
5.04104e-10
-4.72054e-10
8.61271e-09
-7.08617e-09
3.37694e-09
6.88347e-09
-1.19366e-09
9.93346e-10
-6.68315e-09
-1.55328e-09
-7.08658e-09
-1.07423e-08
1.42005e-09
1.08426e-08
-5.60412e-09
-9.88719e-09
-8.82803e-09
4.65064e-09
-4.10713e-09
-2.33078e-10
7.74265e-09
-7.82145e-09
3.11879e-10
6.4155e-09
-5.56314e-09
1.02751e-08
4.29411e-10
-5.95591e-10
6.94347e-10
-5.28167e-10
5.88864e-09
7.90895e-09
2.97321e-10
2.81417e-10
-8.48769e-09
8.2607e-10
8.05397e-09
-2.65489e-10
-1.61613e-08
-3.08925e-09
1.15526e-08
7.69795e-09
4.17184e-10
-1.11992e-09
-5.10866e-09
8.77299e-09
-9.52623e-10
7.87856e-09
6.62636e-10
1.57592e-09
-1.38595e-09
2.39512e-10
-4.29479e-10
-7.24527e-09
-2.02366e-09
5.58614e-09
-8.90931e-09
-3.37472e-09
7.52659e-09
1.1223e-09
-5.38935e-11
-7.50074e-09
-9.61517e-10
7.25497e-09
1.20729e-09
9.18304e-09
-1.16441e-09
4.19824e-10
1.49117e-09
8.83901e-09
-1.0973e-08
6.8685e-10
5.84086e-09
2.87744e-09
4.17389e-09
-3.62647e-09
4.10605e-09
1.15576e-09
-8.07192e-09
-7.86717e-09
9.69321e-10
-6.61812e-10
7.16167e-10
3.75057e-10
-1.5639e-09
-6.4144e-09
1.03874e-08
-1.42326e-09
1.23903e-09
1.63929e-09
-8.13576e-09
8.82585e-09
-2.60911e-09
1.24506e-08
7.89464e-09
3.88473e-09
-7.48295e-09
9.59843e-11
7.39618e-09
-4.05634e-11
4.61064e-09
6.08247e-09
-7.16482e-09
-3.5283e-09
-7.96874e-09
7.67319e-10
-4.20417e-10
7.62184e-09
4.24287e-09
7.82961e-09
-9.98764e-09
-2.08484e-09
-1.64111e-09
1.95681e-09
-1.16375e-09
6.93562e-10
7.86756e-09
-3.70246e-09
-7.79825e-09
-6.24765e-10
1.03373e-09
-7.90496e-09
7.49599e-09
1.08019e-08
-7.32223e-09
-7.43113e-09
6.78274e-09
7.97062e-09
9.80306e-10
-1.06265e-09
-1.0944e-09
1.17675e-09
7.27635e-09
3.04151e-10
-1.07157e-09
-2.57653e-09
-8.29149e-09
-5.08816e-09
6.58938e-09
-2.14229e-09
-6.23573e-09
1.44077e-09
-8.11889e-09
-1.77948e-09
1.99666e-09
1.96441e-10
-4.13625e-10
5.85336e-09
-6.36927e-09
-4.3634e-09
1.01853e-09
8.06065e-10
-1.54145e-08
1.35899e-08
5.88048e-09
-5.92324e-09
8.62321e-09
-8.58045e-09
8.0891e-09
1.80442e-09
-3.17597e-09
-3.72231e-09
2.87609e-09
4.02219e-09
-7.29096e-09
-3.56388e-11
-5.29035e-10
-2.22254e-11
3.10987e-10
2.40273e-10
-4.42786e-09
-4.7959e-09
7.65985e-09
-4.98942e-09
-8.54144e-09
6.4979e-09
7.03296e-09
1.68711e-09
7.53297e-09
-7.63846e-09
-1.58163e-09
-3.50352e-09
7.73486e-09
-1.08462e-08
1.37802e-08
-1.06689e-08
7.61111e-09
-9.45358e-10
-2.6106e-09
3.03835e-09
-7.62448e-09
7.19673e-09
7.48267e-09
-7.53929e-09
-2.11009e-10
6.4594e-10
-6.39857e-10
2.04925e-10
7.79709e-09
-1.94504e-11
-5.13824e-09
7.97712e-09
6.8298e-09
-7.40094e-09
-3.34826e-09
4.60939e-09
-2.2e-09
7.68668e-09
-1.00961e-08
8.29682e-09
1.78585e-10
-3.82143e-10
-2.33154e-09
5.74561e-09
6.20378e-09
-7.93316e-09
2.58316e-09
-1.7181e-09
7.0681e-09
-4.14695e-09
-5.69509e-09
-9.08213e-10
6.60331e-09
-6.83379e-09
-2.40984e-09
4.25421e-09
-6.71995e-09
-9.56819e-09
7.6874e-09
-6.4319e-10
4.95556e-10
7.0311e-09
1.27954e-09
-5.14671e-10
4.58893e-10
1.57227e-08
-1.01625e-08
-6.01563e-09
5.29544e-09
3.9511e-09
-5.50135e-10
9.89905e-10
6.03245e-09
-9.14179e-09
6.29559e-09
-3.18625e-09
7.57594e-11
-5.26658e-11
-8.04647e-09
7.74951e-10
-6.6615e-10
-5.23087e-09
3.6646e-09
5.2624e-09
-3.69613e-09
3.86037e-09
-4.26538e-09
-9.1972e-09
9.60221e-09
2.95979e-10
-3.46674e-10
2.83795e-10
-2.331e-10
1.03993e-08
1.2391e-08
-1.40607e-08
-8.7296e-09
2.0384e-10
8.03415e-11
-1.77201e-10
-1.0698e-10
-5.60896e-09
4.50192e-09
-1.79827e-08
1.62622e-08
5.68887e-09
-4.72134e-09
-2.61915e-10
-7.05613e-10
-2.12596e-10
-6.76801e-10
6.68486e-10
4.00024e-09
-1.29673e-09
6.92365e-09
-9.62717e-09
-2.41003e-09
1.04788e-08
-7.90231e-09
-1.66422e-10
2.41506e-09
-9.78581e-09
-8.79057e-09
-2.21902e-09
2.47585e-09
2.35953e-10
-4.92779e-10
-8.27611e-09
6.93161e-09
7.59657e-09
-8.29052e-10
4.18206e-10
-7.18573e-09
5.409e-09
4.23785e-09
-6.0736e-09
-3.57325e-09
-4.76548e-10
9.16845e-10
8.26065e-11
-1.00415e-09
-4.64406e-10
8.47171e-09
-5.06978e-09
3.01357e-09
-6.41951e-09
8.62343e-09
5.7857e-09
-7.98961e-09
-5.56185e-09
-8.48033e-09
-3.61357e-09
3.06927e-09
3.31416e-09
-2.76987e-09
-5.37244e-10
-1.49214e-10
-1.40512e-10
-9.99042e-09
-1.97501e-09
-8.58442e-09
-1.68697e-09
7.24364e-10
7.01519e-09
-2.43828e-09
-9.32818e-10
-3.38847e-09
1.44183e-08
-1.0097e-08
-7.6348e-09
8.93624e-09
-3.97612e-09
1.07625e-08
8.31438e-10
-9.13946e-10
1.06281e-09
1.98389e-09
8.47441e-09
-3.41612e-10
-1.01167e-08
8.71828e-09
-9.98716e-10
9.67496e-09
-2.52076e-09
-7.79739e-09
-4.89977e-10
9.81968e-11
1.322e-08
5.5499e-09
-1.41789e-08
4.65437e-10
-4.05919e-10
2.3646e-10
7.95311e-09
-9.22129e-09
8.18943e-09
6.45598e-09
-5.42411e-09
-6.17885e-10
5.01271e-10
-1.06458e-09
7.52014e-09
-1.03258e-09
5.30098e-10
-7.01766e-09
4.90036e-09
-1.63955e-09
5.04125e-09
-5.8854e-10
5.70008e-09
-1.5274e-08
-1.07253e-09
8.17358e-09
-3.15476e-09
2.8264e-09
-3.28521e-09
-2.83699e-09
-7.59882e-09
1.96843e-09
8.46737e-09
-3.29399e-09
2.2413e-09
-6.34611e-10
6.95472e-10
-2.7187e-10
3.89701e-09
-6.69894e-09
7.05356e-09
7.53299e-09
-7.88761e-09
-9.6985e-09
1.05869e-08
6.06462e-09
7.14046e-09
-7.12757e-09
1.57152e-08
-1.38824e-08
-1.83277e-09
-2.02191e-09
1.1432e-09
2.17632e-09
-1.05532e-09
1.81019e-09
-4.03924e-09
3.28437e-09
4.21888e-09
-1.09453e-08
8.31362e-09
-6.65226e-09
-4.68093e-09
-7.29729e-09
2.30115e-10
7.94569e-09
-8.48288e-10
-7.32752e-09
2.79493e-09
-2.43592e-09
-2.1661e-09
1.80709e-09
-4.08506e-09
1.04397e-08
-8.07197e-10
4.42866e-10
-2.97481e-10
-8.37832e-09
5.73696e-09
3.59673e-09
-9.55361e-10
3.44252e-09
-5.45955e-09
-3.51147e-09
1.91248e-09
-8.42742e-09
8.70347e-09
4.34702e-09
-5.15585e-09
4.48057e-09
6.63509e-09
-4.10047e-09
-8.24896e-09
8.45579e-09
8.72941e-09
7.49158e-09
-3.73986e-09
3.73728e-09
1.62186e-11
1.44618e-10
-2.76981e-09
4.56948e-09
-5.5756e-09
-2.04129e-09
1.33767e-10
6.08141e-09
3.59713e-09
-9.15177e-10
2.15574e-10
-4.37929e-10
-7.21677e-09
-5.33475e-10
-6.95259e-09
-2.88011e-09
2.44776e-09
-1.32813e-09
8.16516e-10
7.24807e-09
-6.93508e-10
2.79953e-09
1.18155e-09
-9.26553e-10
-6.45601e-10
1.99558e-09
2.40751e-09
-3.62237e-09
1.81943e-09
4.87221e-09
9.80762e-09
-9.7933e-09
-8.26328e-09
9.87321e-09
-7.56994e-09
-1.13897e-10
5.24555e-09
-1.23952e-08
1.27386e-08
-3.43471e-10
5.39743e-09
-1.33276e-09
6.21884e-09
-5.57872e-09
4.75731e-09
6.35071e-09
-4.47533e-09
-6.31029e-09
6.65623e-09
-3.33153e-09
3.69334e-09
-3.65293e-09
6.08925e-09
-6.6766e-09
5.87354e-10
-1.3892e-10
5.72265e-10
-6.90111e-09
-2.66711e-10
-1.21284e-08
-6.16803e-09
5.00467e-09
-1.51508e-09
2.67844e-09
2.60046e-09
4.1114e-09
-3.3977e-09
6.11555e-09
-7.83338e-09
-8.75484e-09
-2.70835e-10
1.01601e-09
-1.82966e-09
-1.20826e-09
6.24001e-09
-1.00377e-08
6.8025e-09
-2.80834e-09
-8.61411e-09
3.72545e-09
-4.93007e-09
-3.96367e-09
5.16829e-09
3.57702e-09
-5.96331e-09
5.93781e-09
-3.55153e-09
7.28912e-09
-1.41152e-09
2.84068e-09
2.43073e-09
5.99082e-09
-8.29167e-09
-8.1615e-09
9.1804e-09
-1.28967e-09
-1.42536e-10
1.06576e-09
-3.60229e-09
2.67907e-09
7.01027e-09
-2.46367e-10
-8.29287e-09
4.12325e-09
8.3885e-09
-4.84047e-09
-8.54629e-10
1.14043e-09
-7.17454e-09
7.2821e-09
7.04839e-09
-5.17284e-09
-5.79496e-09
2.61123e-09
1.56037e-10
-2.03571e-10
4.75336e-11
9.65914e-09
-6.73565e-09
6.88413e-09
6.97126e-10
2.89164e-09
-1.59319e-09
1.54583e-08
2.58049e-09
-1.20159e-08
-6.02284e-09
1.01449e-08
8.06431e-09
6.1356e-09
-6.01048e-09
9.79341e-10
-1.35723e-09
-1.23805e-08
-1.98374e-09
1.63831e-09
-1.38293e-09
-8.02508e-09
5.26493e-10
-1.7414e-10
7.67273e-09
-7.81379e-09
7.46248e-09
5.98159e-09
-3.32441e-09
-1.36025e-08
1.02064e-08
-8.00975e-09
8.20269e-09
-2.2675e-09
-6.8552e-09
-7.11733e-10
4.72994e-09
2.88354e-09
-3.60284e-09
2.52949e-09
-3.4936e-10
-2.71166e-10
2.73852e-10
4.76467e-09
-3.71908e-09
6.87684e-09
2.66712e-09
-1.12804e-08
-1.10044e-10
8.72328e-09
1.07637e-10
3.49167e-09
2.79758e-10
-3.2622e-09
-5.09232e-10
8.87659e-11
-9.10566e-09
7.53372e-12
-8.80525e-11