/*--------------------------------*- C++ -*----------------------------------*\
  =========                 |
  \\      /  F ield         | OpenFOAM: The Open Source CFD Toolbox
   \\    /   O peration     | Website:  https://openfoam.org
    \\  /    A nd           | Version:  8
     \\/     M anipulation  |
\*---------------------------------------------------------------------------*/
FoamFile
{
    version     2.0;
    format      ascii;
    class       surfaceScalarField;
    location    "1";
    object      phi;
}
// * * * * * * * * * * * * * * * * * * * * * * * * * * * * * * * * * * * * * //

dimensions      [0 3 -1 0 0 0 0];

internalField   nonuniform List<scalar> 
33977
(
3.12139e-09
-1.65619e-10
-3.31797e-09
3.62198e-10
-8.14921e-10
-1.64091e-09
1.66649e-09
7.89339e-10
4.31676e-09
-2.64795e-10
1.84029e-10
-4.23599e-09
4.03518e-09
-4.0381e-09
-3.08635e-10
3.11558e-10
5.20453e-11
-2.57173e-10
-5.28721e-10
7.33848e-10
-1.92443e-09
1.55843e-09
-4.4892e-10
-2.83985e-09
3.6276e-09
-1.97492e-09
1.18716e-09
-1.76577e-09
-2.08244e-09
1.33555e-09
2.51267e-09
4.3025e-09
-4.39692e-09
1.79554e-10
-8.51404e-11
-9.23345e-10
1.9383e-09
-3.04725e-09
2.03229e-09
3.50811e-09
2.25517e-10
-3.75438e-09
2.07579e-11
-1.31757e-09
1.36663e-09
-7.08256e-10
6.59197e-10
-5.9185e-09
-4.56592e-09
5.05122e-09
5.43321e-09
-3.36342e-09
-3.85311e-09
4.46563e-09
2.75089e-09
2.14081e-09
-2.47355e-09
-2.0405e-09
2.37324e-09
-2.52405e-09
2.81834e-09
-2.94294e-10
7.39271e-10
-8.09083e-10
-1.24775e-09
-2.57308e-09
7.44399e-11
1.71608e-09
7.82556e-10
5.40433e-09
-1.16519e-09
-5.80817e-09
1.56903e-09
2.66939e-09
-1.50606e-09
-2.58844e-09
1.42511e-09
2.23361e-09
2.25069e-09
-2.3435e-09
-9.62707e-10
4.51584e-09
-3.8271e-09
2.73964e-10
-3.43294e-09
3.45873e-09
3.69851e-13
-2.61543e-11
2.49909e-09
-1.36969e-09
1.07469e-09
-2.20409e-09
-2.05751e-09
9.11971e-10
-8.78413e-10
2.02396e-09
2.22136e-09
-2.17347e-09
2.18572e-09
3.39784e-09
-3.39932e-09
-2.28871e-11
2.43681e-11
4.12684e-09
-3.80611e-09
2.08381e-10
-5.29107e-10
-1.1887e-10
-1.38026e-09
6.65733e-09
-5.1582e-09
3.41662e-09
-3.41292e-09
-2.62276e-11
2.25358e-11
4.39344e-09
-4.39773e-09
-2.91638e-12
7.19926e-12
8.82739e-10
-8.40296e-10
-3.22701e-11
-1.01734e-11
-3.43338e-09
-2.27993e-11
2.32336e-11
2.2845e-09
2.15139e-09
-2.21453e-09
-3.06554e-09
1.68482e-09
-1.39363e-09
2.77435e-09
1.47927e-09
2.37678e-09
-3.04198e-09
-8.14077e-10
2.13024e-09
2.28594e-09
-2.13168e-09
1.0073e-09
-9.87845e-10
1.49202e-09
-1.51147e-09
-3.38065e-09
-2.33204e-11
-1.09151e-10
3.51312e-09
-2.31952e-09
-2.56272e-09
2.54357e-09
2.33867e-09
3.38742e-09
-3.3908e-09
-3.86762e-11
4.20569e-11
4.20809e-09
1.75397e-10
-2.30777e-10
-4.15271e-09
-6.30714e-10
5.12023e-11
4.70635e-09
2.31339e-09
-2.66223e-09
2.34069e-09
-1.99185e-09
1.12189e-10
-6.53214e-11
3.36215e-09
-3.40902e-09
3.49087e-09
-1.06943e-11
-2.14505e-11
-1.2099e-09
-2.91427e-10
2.85565e-10
1.21577e-09
-2.63086e-09
3.62001e-09
-9.89152e-10
2.25983e-09
2.1849e-09
-2.31449e-09
-3.38678e-09
3.3991e-09
-2.9895e-11
1.75721e-11
-1.7106e-09
7.78802e-10
1.14543e-09
-2.13629e-10
-2.61793e-09
-2.17999e-09
2.32438e-09
3.48925e-09
1.09135e-11
-1.3611e-11
-3.48655e-09
4.41875e-09
-8.2289e-11
-1.96971e-11
-2.27577e-09
4.48573e-10
-7.45881e-10
-4.46038e-10
3.32287e-10
1.33033e-09
-1.21658e-09
2.23687e-09
-2.21957e-09
2.24253e-09
-1.95047e-11
6.45731e-10
-4.65982e-09
4.03359e-09
4.38142e-09
-4.37271e-09
-2.22119e-11
1.35067e-11
2.28396e-09
-1.74462e-09
-1.44355e-09
9.04211e-10
-3.25399e-09
4.4476e-11
-1.41952e-10
3.35147e-09
-1.83655e-09
1.88849e-09
1.79474e-09
-1.84668e-09
2.16717e-11
-3.84351e-11
3.2577e-09
-3.35578e-09
-9.514e-10
1.04948e-09
-4.58731e-10
1.31287e-10
-3.47867e-09
2.56202e-09
1.46338e-09
-1.74144e-09
7.58735e-11
-3.42371e-09
-3.12065e-11
3.37905e-09
1.4085e-10
-1.67572e-09
3.78731e-09
-2.25244e-09
1.37862e-09
-2.14429e-09
6.52002e-09
-5.75435e-09
-1.06278e-09
1.12008e-09
-1.60025e-09
1.54295e-09
2.25062e-09
-2.2e-10
2.04795e-09
-4.07857e-09
3.20243e-09
-3.47698e-09
2.74552e-10
-3.78132e-09
1.03535e-09
-1.07067e-09
3.81663e-09
1.74344e-11
-3.44107e-09
4.63723e-11
3.37726e-09
2.58728e-09
-2.75292e-09
-2.15387e-09
2.73392e-10
3.53278e-09
-3.69399e-09
3.78949e-09
-7.37637e-11
3.09335e-11
-3.74666e-09
-3.82972e-09
3.68155e-09
4.2157e-10
-4.74744e-09
-1.72247e-09
4.08034e-09
2.38957e-09
3.0812e-09
-1.77034e-09
1.75223e-09
-3.06309e-09
1.39685e-09
-3.91594e-11
4.18431e-11
-1.39954e-09
-3.22511e-09
3.23617e-09
-5.99182e-11
4.88584e-11
3.40458e-09
3.63766e-11
1.17728e-10
-3.55869e-09
-6.06586e-10
5.5542e-10
-4.8021e-10
5.31376e-10
-1.27685e-12
1.37062e-09
2.75082e-11
-3.73305e-09
-2.67672e-10
2.53806e-10
3.74691e-09
-3.40464e-09
-1.02192e-11
2.80737e-11
1.51515e-09
-1.36476e-09
3.10731e-09
2.29955e-09
2.31616e-09
-2.37884e-09
-2.38591e-09
2.43569e-09
-1.28907e-10
7.91222e-11
8.96783e-10
-3.80147e-09
4.61819e-09
-1.7135e-09
2.20366e-09
-2.38335e-09
2.54019e-09
-2.3605e-09
2.25277e-10
3.37754e-09
-6.81216e-10
-2.9216e-09
3.10618e-09
5.4463e-10
-2.50654e-09
-1.14427e-09
-3.64557e-09
3.43346e-11
1.00731e-09
2.60392e-09
3.38219e-09
-3.37398e-09
-4.26074e-11
3.4395e-11
5.05464e-09
-5.13337e-09
7.87342e-11
2.99801e-10
-1.19439e-09
-3.15316e-10
7.14459e-10
-7.38538e-10
-2.25169e-09
-2.56103e-09
-1.53508e-09
7.06668e-10
3.38945e-09
-1.00828e-10
5.15142e-09
-4.51146e-09
-5.39129e-10
-3.21459e-09
3.20917e-09
-3.19419e-11
3.73591e-11
-1.58508e-09
1.5296e-09
-1.70808e-09
-4.52709e-10
8.67133e-10
1.29366e-09
4.35351e-09
-4.34472e-09
-2.64846e-11
1.76969e-11
2.14873e-09
-2.35173e-09
-2.22277e-09
2.42577e-09
-2.67641e-10
4.65405e-09
-4.51931e-09
1.32901e-10
1.17309e-09
-5.82301e-09
5.12974e-09
-4.79817e-10
-5.24555e-10
1.02904e-09
-1.33178e-09
8.27303e-10
-3.2424e-09
3.23158e-09
-2.48254e-11
3.56432e-11
8.045e-09
-6.99577e-09
8.12209e-10
-1.86144e-09
-1.98824e-09
1.94156e-09
7.74767e-10
-7.28088e-10
-3.27056e-09
3.25437e-09
-2.1076e-11
3.72635e-11
3.3879e-09
-3.40442e-09
3.03988e-11
-1.38804e-11
-2.39571e-10
4.96644e-10
4.04543e-09
3.26568e-09
-6.71096e-12
-3.32102e-09
6.2046e-11
-3.30493e-09
3.2828e-09
-2.08466e-11
4.29699e-11
-2.32851e-09
2.0108e-09
2.46644e-09
-3.85306e-10
4.26932e-11
-4.32221e-09
4.66482e-09
-3.34151e-09
3.31758e-09
-1.9495e-11
4.34269e-11
-2.49625e-11
2.14896e-11
-3.37457e-09
3.34931e-09
-2.04154e-11
4.56699e-11
1.35424e-11
-2.98523e-11
-1.67628e-09
-2.57151e-09
2.6696e-10
3.98083e-09
1.21962e-09
-1.58827e-09
1.48873e-09
1.67863e-11
-3.59875e-11
4.03399e-09
-4.0287e-09
-4.11304e-11
3.58362e-11
-2.53169e-09
-2.02022e-09
1.42633e-09
3.12558e-09
-2.14858e-10
4.95312e-10
-4.35416e-10
1.54962e-10
3.37706e-09
-2.21115e-11
3.29548e-11
-4.31983e-09
1.81081e-11
-4.29982e-11
3.99945e-09
-4.00242e-09
-1.84553e-11
2.14292e-11
1.65757e-11
-3.16638e-11
1.38209e-11
-1.9133e-11
4.06829e-09
-4.0557e-09
-3.66954e-11
2.41128e-11
-2.2507e-09
2.8656e-09
1.10271e-10
-7.25166e-10
-3.77517e-09
3.16373e-09
4.134e-10
1.98046e-10
4.09928e-09
-4.08699e-09
-3.28248e-11
2.05336e-11
1.63498e-09
-5.34879e-10
-3.95553e-09
2.85542e-09
8.2436e-10
-8.27734e-10
-1.02494e-09
1.02832e-09
-3.29387e-09
2.29561e-09
-1.60747e-09
2.60573e-09
4.15472e-09
-4.13208e-09
-5.69025e-11
3.42576e-11
4.25364e-09
-4.271e-09
-1.69312e-11
3.42981e-11
4.31029e-09
-4.28899e-09
-4.82292e-11
2.69351e-11
6.17122e-10
-1.47035e-09
-2.70169e-09
3.55492e-09
4.23724e-09
-4.25086e-09
-3.59586e-12
1.72134e-11
4.26292e-09
-4.25005e-09
-3.25281e-11
1.96537e-11
-1.50865e-09
-6.17976e-09
5.68611e-09
2.0023e-09
-3.85596e-09
8.05672e-12
3.2212e-09
6.267e-10
1.23157e-11
4.06474e-09
-4.18752e-11
4.01402e-09
-4.00745e-09
-6.57315e-12
7.34705e-10
3.42308e-09
-4.10179e-09
-5.60022e-11
5.06353e-09
3.13445e-11
-2.88046e-10
-4.80683e-09
-3.74207e-09
-6.87695e-11
-3.66766e-11
3.84752e-09
2.4707e-10
-2.38045e-10
-1.96536e-09
1.95633e-09
3.46854e-09
-1.87399e-11
2.00874e-11
-3.46989e-09
-6.80646e-09
-1.83468e-09
6.54963e-09
2.0915e-09
-7.0348e-11
-5.48656e-10
7.16371e-11
5.47367e-10
-1.37375e-09
-2.69182e-09
1.20379e-09
2.86177e-09
-3.18505e-09
3.19242e-09
-2.16619e-11
1.42936e-11
-3.34635e-11
2.39192e-11
9.94331e-10
7.50547e-10
-9.20517e-10
3.62576e-09
-1.01516e-09
-2.83873e-09
2.28135e-10
-1.48316e-09
2.41757e-09
1.85868e-09
-2.79309e-09
3.3628e-09
-3.34358e-09
-3.89109e-11
1.96874e-11
3.15767e-09
-2.47321e-10
7.07899e-10
-3.61824e-09
-3.12507e-10
4.47046e-09
-4.29025e-09
1.32295e-10
-2.9061e-09
2.84469e-09
2.05245e-09
-1.99104e-09
3.46262e-12
4.01056e-09
1.32069e-09
2.4887e-09
-3.45667e-09
-3.52728e-10
2.99082e-09
-3.22502e-09
-1.14056e-09
1.37476e-09
3.33397e-09
1.17304e-10
-3.18583e-09
-2.6544e-10
-6.60845e-11
-4.25578e-09
3.77578e-09
5.46079e-10
-1.8476e-09
1.90009e-09
9.21502e-10
-9.7399e-10
3.97744e-09
-3.97092e-09
-3.10934e-11
2.45754e-11
-5.03402e-11
-3.49894e-09
1.4849e-10
3.40079e-09
-3.74604e-09
3.7439e-09
-8.27102e-11
8.48542e-11
9.20179e-10
-3.41455e-09
2.79255e-09
-2.98186e-10
-2.12862e-09
2.01622e-09
-1.72416e-09
-9.95037e-10
9.40035e-10
-8.16785e-10
8.71787e-10
-3.17503e-09
1.13967e-10
9.79964e-10
2.0811e-09
-3.90131e-09
4.15916e-11
8.45504e-11
6.58928e-11
-1.68092e-10
-2.28371e-09
-3.19764e-09
3.04362e-09
1.54025e-10
3.46944e-09
-3.47002e-09
-1.80292e-11
1.86109e-11
-4.34691e-09
4.34208e-09
9.05577e-11
-8.57257e-11
-4.59718e-10
4.08071e-09
-4.0063e-09
-9.96944e-10
2.57757e-10
-4.17812e-10
1.157e-09
1.38939e-09
-4.019e-09
6.70553e-09
-4.07593e-09
-8.59926e-11
2.71128e-10
-2.01856e-10
1.67202e-11
4.57295e-10
-3.80878e-09
-1.62973e-10
3.51446e-09
3.88452e-09
-3.16515e-09
-7.19367e-10
-1.18858e-10
-1.02749e-10
3.48259e-09
-3.26098e-09
-1.84674e-09
-7.74549e-10
1.62857e-09
9.92713e-10
2.54707e-11
-2.29806e-11
2.47199e-10
7.84814e-10
-2.90036e-10
-7.41977e-10
3.49469e-09
-7.09724e-10
-2.81984e-09
3.48709e-11
-1.83613e-10
9.28373e-10
-4.63676e-09
3.892e-09
1.43301e-09
-6.67388e-10
7.06069e-10
-1.47169e-09
-3.71311e-09
4.26232e-09
-3.88737e-09
3.33817e-09
-7.98347e-10
8.25362e-10
2.20183e-10
1.5671e-09
2.37179e-09
-2.42878e-09
-1.51011e-09
2.57338e-09
-1.23906e-09
1.17882e-09
-2.51315e-09
-1.76901e-09
-2.64176e-09
9.79058e-10
3.43171e-09
-2.81845e-10
-2.24769e-12
3.18117e-09
-2.89707e-09
6.20576e-10
5.07211e-11
-3.35803e-11
-6.37717e-10
-4.09259e-09
2.9291e-10
-1.0164e-10
4.3557e-09
-1.87275e-09
-3.62862e-09
1.14567e-09
3.82764e-09
-3.80243e-09
1.60534e-11
-4.12621e-11
4.27424e-09
-2.85922e-11
1.72747e-11
3.69294e-09
-3.6669e-09
-4.49927e-11
1.8954e-11
3.14404e-11
-4.33335e-11
-3.79718e-09
3.96076e-09
-3.18582e-10
1.55002e-10
3.73783e-09
-3.71233e-09
-4.64515e-11
2.0955e-11
-8.2499e-10
4.52013e-10
8.93627e-10
-5.20649e-10
-1.44219e-09
8.54845e-10
3.41048e-09
-2.82313e-09
-8.55336e-10
1.22194e-09
-3.25277e-09
2.88617e-09
-1.77691e-09
2.4778e-09
1.88639e-09
-2.10636e-10
4.60218e-09
-4.48591e-09
9.43651e-11
4.76476e-09
-2.97106e-09
-1.40807e-09
-3.85634e-10
-1.34132e-10
3.84802e-09
-8.59365e-11
-3.62796e-09
-2.22521e-09
2.93474e-09
1.85249e-09
8.84605e-10
-8.37686e-10
3.30595e-10
-3.77513e-10
2.32205e-09
-5.06242e-09
-1.50625e-09
4.24661e-09
2.18532e-11
-3.66056e-11
1.99873e-09
-1.42766e-09
2.00232e-09
3.06469e-09
1.2829e-09
-2.35203e-09
-1.99556e-09
-3.24525e-09
3.01243e-09
8.29682e-10
-5.96861e-10
-1.18103e-09
-1.0048e-09
2.25173e-09
-6.58968e-11
-3.17379e-09
3.18176e-09
-1.81808e-11
1.02174e-11
-1.34852e-09
1.39374e-09
-1.03307e-09
-4.82959e-09
7.79384e-10
-4.23757e-11
2.73834e-09
-2.68276e-09
-8.80047e-10
8.24464e-10
9.05431e-10
-3.99538e-09
-6.97668e-10
3.78761e-09
3.7952e-09
-3.84471e-09
9.54941e-10
-4.56399e-09
-1.58948e-09
6.3952e-09
-2.41731e-10
1.57437e-09
-1.40291e-09
-2.55011e-09
2.37865e-09
3.40722e-09
-2.73454e-10
-3.13376e-09
3.41741e-10
-3.93354e-09
4.98119e-09
-1.3044e-09
3.19387e-09
-2.4987e-09
6.09234e-10
3.65295e-09
2.79373e-10
-4.12575e-09
1.93423e-10
-3.70526e-11
-4.03053e-09
4.02458e-09
4.3005e-11
5.69337e-10
-5.39831e-11
-5.85702e-10
-2.6477e-09
1.07624e-09
-5.60928e-10
2.13239e-09
4.76064e-09
1.52882e-09
-3.35781e-09
-2.93165e-09
-3.3129e-09
3.32828e-09
2.38252e-11
-3.92051e-11
4.72354e-09
-4.4169e-09
-3.67006e-09
8.69752e-12
3.47669e-09
3.85733e-12
1.9177e-10
3.14112e-09
1.72706e-11
-3.35016e-09
4.42599e-10
-4.41288e-10
1.04076e-10
-1.05387e-10
2.61083e-10
-5.27676e-10
-2.15235e-10
4.81828e-10
2.72421e-09
1.96332e-09
-4.46854e-09
-2.18984e-10
6.33287e-09
-4.89119e-09
-6.30573e-11
2.73957e-09
1.19444e-09
-1.73035e-09
5.04836e-10
-9.61878e-11
-5.14797e-10
1.06149e-10
-1.62359e-09
-2.66644e-09
-5.39651e-11
4.34399e-09
3.9247e-09
-3.94672e-09
-4.50549e-12
2.65235e-11
-1.17207e-09
1.11854e-09
-2.74231e-10
3.27761e-10
1.25427e-10
-2.45713e-10
-3.11807e-09
1.29562e-09
3.32365e-09
-1.5012e-09
4.0741e-09
7.82916e-10
-3.96023e-09
4.25098e-09
-5.90896e-11
1.61991e-11
-7.01093e-10
-3.43564e-09
2.65357e-09
1.90429e-09
-1.32614e-09
1.42058e-09
4.34463e-11
3.24175e-10
-5.37432e-10
1.6981e-10
-1.12567e-09
9.2371e-10
-9.17936e-10
1.11989e-09
-4.59174e-09
4.56958e-09
-3.82231e-10
4.04395e-10
4.24047e-10
-2.22127e-09
-3.68965e-10
2.16618e-09
1.51567e-10
-1.42525e-10
-3.49404e-09
3.485e-09
-6.52621e-10
1.633e-10
-1.81713e-10
6.71033e-10
3.31405e-09
7.67847e-11
-2.29824e-10
-3.16101e-09
-3.29943e-09
-3.72819e-11
2.38109e-11
-1.42501e-09
2.7544e-09
-2.70314e-09
-6.0145e-09
-2.30554e-09
2.04732e-09
6.27273e-09
2.25078e-09
-2.1292e-09
-2.31663e-09
2.19505e-09
8.57438e-11
9.816e-11
-3.42062e-09
3.23672e-09
3.09919e-11
-2.31886e-11
-5.83481e-09
5.90415e-09
-1.47728e-10
7.8395e-11
-3.61838e-09
2.30048e-09
1.16313e-09
1.5476e-10
-2.29575e-09
2.15416e-09
1.71596e-09
-2.24706e-09
2.33133e-09
2.16651e-09
1.98803e-10
5.17578e-10
-5.96327e-10
-1.20053e-10
1.35545e-09
-4.59031e-09
4.26615e-09
-1.03129e-09
6.20654e-10
-5.98297e-10
2.5784e-10
-2.80196e-10
4.13991e-11
-5.00142e-11
3.21966e-09
-5.81678e-09
5.63713e-09
-3.04002e-09
-1.54087e-09
-2.42682e-09
8.0321e-10
3.16448e-09
6.13481e-11
-3.13448e-09
-4.6752e-11
3.11988e-09
-1.36125e-09
-2.35874e-09
7.08027e-10
3.01197e-09
2.55809e-09
-1.83192e-09
1.21028e-09
-1.93645e-09
-2.66662e-09
-2.17496e-10
2.88412e-09
3.44455e-10
-3.41953e-09
4.87572e-09
-1.80065e-09
-3.15608e-09
3.13713e-09
-2.82367e-11
4.71853e-11
1.0525e-09
-8.23864e-10
-3.51701e-09
3.28837e-09
1.59675e-10
-2.52282e-09
2.79119e-09
-4.28044e-10
-3.72854e-09
3.68939e-09
-3.81642e-11
7.73182e-11
-1.15884e-09
-2.54457e-09
3.65326e-09
5.01564e-11
5.22124e-09
-4.33612e-09
-1.35365e-09
4.68529e-10
-3.00449e-09
-3.77832e-09
2.03537e-09
4.3226e-09
-5.59807e-11
-4.27386e-09
7.23708e-12
4.1517e-09
-4.22368e-10
-4.25176e-09
5.22431e-10
5.68737e-10
-5.41758e-10
2.55724e-10
-2.82703e-10
-3.83604e-09
4.69183e-09
-9.51481e-10
9.56901e-11
1.13688e-10
-7.55109e-10
-1.56926e-10
-1.76814e-10
-3.29186e-10
1.63335e-10
3.42664e-10
2.03967e-09
3.02401e-09
-2.7503e-09
-3.53435e-10
4.53618e-10
-4.4595e-09
4.35932e-09
3.79863e-09
6.10427e-10
6.87391e-12
-4.41594e-09
-1.8943e-10
-2.37588e-09
2.56531e-09
-7.78808e-10
1.88989e-09
8.95328e-10
-2.0064e-09
1.94663e-09
-1.14738e-09
2.28195e-09
-4.48415e-09
-4.0232e-09
3.55135e-09
4.956e-09
-3.75595e-09
-1.12596e-10
7.13684e-11
5.16278e-10
-4.95691e-10
2.3357e-10
-2.54157e-10
-2.36049e-09
2.77961e-10
-1.95261e-10
2.27779e-09
-1.66043e-09
-3.28944e-09
1.31172e-09
3.63816e-09
-3.27778e-09
3.28944e-09
2.98401e-11
-4.1494e-11
-3.58043e-10
8.36335e-10
-1.9869e-09
1.50861e-09
1.17014e-09
-1.1924e-09
-2.03317e-09
2.05543e-09
2.18857e-09
-2.35672e-09
-2.2152e-09
-1.38636e-09
6.32768e-09
-4.94131e-09
-3.58731e-09
2.6202e-09
3.86295e-09
-2.89583e-09
1.00147e-11
-2.28192e-11
1.82239e-10
-5.8997e-09
-2.36605e-10
5.95407e-09
-9.78163e-10
-4.16577e-09
4.79049e-09
-8.54843e-10
-4.24971e-10
1.27981e-09
1.74726e-10
-3.17669e-09
-6.43606e-10
4.79241e-10
-4.32856e-10
2.21889e-10
-2.68275e-10
2.47425e-10
-6.83141e-10
-2.17459e-09
2.6103e-09
-3.46764e-09
-2.67655e-11
1.91211e-10
3.3032e-09
4.21534e-09
-9.50907e-11
3.44726e-11
1.35473e-09
-5.32713e-09
5.1455e-09
1.07641e-09
-6.93256e-10
-1.13266e-09
7.49505e-10
7.6264e-11
-1.97545e-10
3.66547e-09
-3.54419e-09
4.0425e-09
-4.81085e-09
8.18081e-10
-4.97306e-11
-3.91014e-09
6.46667e-11
3.92113e-09
-7.56594e-11
3.92835e-10
-3.6782e-10
2.04506e-10
-2.2952e-10
3.70172e-09
-3.96504e-09
-9.00583e-10
1.1639e-09
-4.27468e-09
4.24715e-09
9.68301e-11
-6.93058e-11
1.91039e-09
8.55769e-10
-2.76616e-09
-2.65539e-11
9.83906e-11
-2.41121e-09
2.17466e-09
-4.67182e-10
7.03736e-10
-1.17968e-09
1.19734e-09
2.86328e-09
-2.88094e-09
2.21785e-10
-1.09062e-09
2.29625e-10
3.54377e-09
-3.52549e-09
-2.47907e-10
-3.85591e-09
3.08486e-10
3.67923e-09
-1.31807e-10
5.87903e-10
-3.14789e-10
-3.22678e-10
4.95641e-11
3.87989e-09
-1.4898e-09
-3.3528e-09
1.1082e-10
-9.86461e-11
3.46769e-09
-3.47986e-09
1.30072e-10
-2.42754e-10
3.19764e-09
-3.08495e-09
3.42536e-10
-3.25697e-10
1.85333e-10
-2.02171e-10
-2.95884e-09
3.60608e-09
-1.4815e-09
8.34254e-10
2.72064e-10
-3.84404e-10
4.81632e-09
5.37594e-10
-2.69767e-09
-2.65624e-09
-4.21262e-09
4.16791e-09
8.51106e-11
-4.03992e-11
-5.1797e-11
4.23423e-11
4.52053e-10
9.78116e-10
2.61145e-09
-4.33262e-11
-3.98733e-09
3.97643e-09
5.42246e-11
3.04264e-10
-2.91788e-10
1.66634e-10
-1.7911e-10
-4.0688e-09
3.97704e-09
1.94279e-10
-1.0252e-10
1.94007e-09
2.5949e-10
-1.6914e-09
-5.08164e-10
2.84164e-10
-2.98234e-10
1.50234e-10
-1.36164e-10
-5.67576e-11
1.24158e-10
-4.14482e-09
4.1147e-09
7.14594e-11
-4.13401e-11
-4.1864e-09
4.27749e-09
-3.63036e-11
-5.47913e-11
2.27226e-10
-2.05273e-10
1.52037e-10
-1.7399e-10
-2.69777e-10
2.87716e-10
1.859e-10
-2.03838e-10
-1.66356e-09
1.22797e-09
-2.85828e-09
-4.09795e-09
4.12678e-09
-1.84918e-12
-2.69781e-11
-5.74902e-09
9.15019e-11
-1.773e-10
1.6874e-09
-1.67833e-09
-2.9648e-09
2.95572e-09
1.02708e-09
-1.01145e-09
-1.1413e-09
-8.40192e-10
9.02976e-10
1.01362e-09
-4.4314e-09
-2.08187e-09
1.86103e-09
4.65224e-09
2.39321e-09
-2.60901e-09
3.2115e-09
-2.9957e-09
1.82409e-10
1.18071e-10
-1.3051e-10
-1.6997e-10
9.51686e-12
-3.53995e-09
-2.63114e-11
3.55674e-09
1.02379e-09
-3.83496e-09
2.80441e-09
6.76122e-12
-5.91735e-09
5.7801e-09
1.3725e-10
3.99843e-10
1.76459e-10
-1.54395e-10
-4.21907e-10
2.959e-10
-3.48773e-10
-3.09098e-09
3.09864e-09
-2.81592e-11
2.04996e-11
-1.97811e-09
2.13035e-09
1.45071e-09
-1.60295e-09
3.31644e-11
-2.05159e-11
-2.03996e-12
-2.28316e-12
1.0055e-10
-9.62266e-11
-3.31474e-09
5.8638e-10
-3.54451e-10
3.08281e-09
-2.17692e-09
-3.71197e-09
3.13619e-09
2.7527e-09
3.50664e-09
3.88615e-11
-3.5776e-09
3.21032e-11
-2.66225e-09
-1.16402e-09
2.42337e-09
-3.4868e-09
3.20554e-09
1.95373e-09
-1.67246e-09
-6.76335e-10
-2.49838e-09
1.71797e-10
3.00292e-09
6.88556e-10
3.90335e-11
-6.65687e-10
-6.19028e-11
3.59015e-11
-4.70751e-11
-5.64907e-09
4.40444e-09
4.46429e-09
6.458e-10
-5.71962e-10
5.76359e-10
-6.50198e-10
4.8332e-09
-4.72927e-09
-5.75989e-10
4.72051e-10
-3.62173e-11
2.73854e-09
-2.96578e-09
2.63463e-10
1.50539e-11
-1.60506e-11
-1.96243e-11
2.0621e-11
3.57012e-10
-1.84909e-10
-3.48916e-10
-2.48734e-09
3.30564e-09
8.83843e-10
-1.70214e-09
3.88625e-09
-3.84944e-09
1.70828e-10
-2.07632e-10
-3.93047e-09
-3.55345e-09
2.70231e-09
4.78161e-09
2.32959e-09
-5.4846e-10
5.08066e-10
-2.28919e-09
-3.32452e-09
3.27659e-09
2.05698e-10
-1.5777e-10
8.70828e-10
-3.87068e-09
3.89301e-09
-8.93158e-10
8.26398e-11
-6.72788e-11
-2.9757e-09
3.01639e-09
-3.628e-09
-2.96746e-09
-1.54651e-09
1.29907e-09
3.2149e-09
1.49075e-09
-6.60099e-10
5.35974e-10
-1.50695e-09
-3.86956e-09
1.38113e-09
5.73163e-11
-5.11604e-11
5.63181e-10
1.65559e-09
-2.30876e-09
-1.00215e-09
1.65532e-09
2.07906e-09
-3.49981e-09
-2.59825e-09
3.09264e-11
3.44649e-09
-7.97333e-12
3.56549e-12
-7.91311e-13
4.038e-10
-3.48226e-10
-2.70432e-10
-3.27432e-09
-4.68642e-11
4.33992e-11
1.37958e-10
-5.10286e-10
7.60323e-10
-3.87994e-10
4.16178e-09
-7.69411e-10
8.39288e-11
-3.4763e-09
-3.90636e-09
7.25363e-10
-5.52053e-10
2.98111e-09
-2.31463e-09
-1.43836e-09
7.71887e-10
3.31966e-09
-6.7104e-09
-2.18136e-09
5.5721e-09
-4.3986e-11
3.51147e-09
1.42829e-10
-3.61031e-09
5.97719e-09
1.092e-10
8.12867e-11
-4.67557e-11
-3.85789e-09
-1.38135e-09
4.21206e-09
1.02718e-09
-8.55347e-10
2.60039e-09
6.01521e-10
-2.34656e-09
-3.90213e-09
-1.59641e-10
4.29211e-10
3.63256e-09
-3.67938e-09
3.87124e-09
3.73935e-09
-3.93121e-09
1.98355e-09
-2.26492e-10
-2.62136e-09
8.64308e-10
-2.6534e-09
1.55043e-09
-1.67261e-09
2.77558e-09
3.95586e-09
1.93057e-09
-4.86264e-09
-1.23596e-09
-2.4613e-09
3.1438e-09
5.53465e-10
7.71942e-10
-4.13062e-09
3.20154e-09
1.57134e-10
-4.77462e-09
5.66474e-11
7.15094e-10
4.00288e-09
-3.83797e-09
4.10692e-09
1.19827e-09
-1.46722e-09
1.56161e-09
-1.40885e-09
-2.27845e-09
2.12569e-09
3.29274e-09
-3.63449e-09
4.77138e-10
-1.35385e-10
2.00237e-09
-2.21034e-09
4.12672e-09
-3.91875e-09
-1.65587e-09
7.28502e-10
-3.26315e-10
1.25369e-09
-1.93783e-09
2.10482e-09
2.55261e-10
-3.41743e-10
2.98142e-10
-2.11659e-10
-1.71834e-10
9.87967e-10
-2.66175e-09
1.84561e-09
3.18486e-10
-2.16665e-09
2.27221e-09
-1.65302e-10
2.97265e-10
-2.83507e-10
1.51544e-10
-2.07355e-09
-1.39011e-09
2.03269e-09
1.43098e-09
1.73898e-10
7.63543e-10
-1.25978e-10
-8.11462e-10
3.15606e-09
-4.20605e-09
1.96566e-09
-9.15673e-10
-8.48352e-10
1.49014e-09
-3.47194e-09
2.83015e-09
2.07686e-09
-3.12042e-09
-3.81449e-10
-1.90393e-12
3.16614e-12
-9.79937e-11
9.67315e-11
1.63559e-09
-8.16688e-10
1.08539e-09
-1.54745e-09
-2.26625e-09
9.73853e-10
-3.67289e-09
3.62593e-09
-2.87974e-11
7.57567e-11
8.31557e-11
-7.51162e-11
3.45512e-09
-3.46316e-09
6.96485e-12
1.4073e-10
9.82581e-13
-1.48677e-10
2.16158e-10
-2.48125e-10
-1.93456e-09
-1.82072e-09
1.98951e-09
-3.21909e-09
3.51573e-09
-3.97602e-09
2.17974e-09
7.9076e-10
-3.40305e-09
4.32553e-10
2.93752e-09
-1.14831e-09
-2.46554e-09
-4.69137e-09
-9.93906e-10
1.09353e-09
-3.48075e-09
-1.92828e-09
3.39092e-09
2.01811e-09
3.79578e-09
-3.80038e-09
3.91255e-11
-3.45207e-11
1.07504e-09
5.86938e-09
-1.98947e-09
-4.95495e-09
-3.78595e-09
1.18061e-10
3.7352e-09
-6.73094e-11
-2.46678e-09
-2.84184e-09
2.9543e-09
2.35431e-09
3.05743e-09
-2.60392e-09
-1.61236e-09
-1.97927e-09
1.65738e-09
-1.09832e-09
1.42021e-09
-2.41275e-10
-4.04752e-09
4.28879e-09
3.1068e-09
-2.09713e-09
1.54012e-09
-5.60917e-09
3.32012e-09
7.4893e-10
8.22178e-12
7.43706e-12
-1.56588e-11
2.73935e-09
-3.62016e-09
-2.02529e-09
-2.01987e-09
-1.1789e-09
2.359e-09
8.39771e-10
-1.10422e-09
9.8769e-10
-4.21717e-10
5.38246e-10
2.77788e-10
-3.86703e-09
3.77805e-09
-1.88811e-10
8.81465e-10
-5.69609e-10
2.9583e-09
-2.16155e-09
-2.77167e-09
2.57802e-10
-2.87363e-10
-4.17589e-11
-3.94046e-09
3.92545e-09
5.67722e-11
3.72842e-10
-4.20579e-09
-3.05756e-10
4.1387e-09
1.81726e-09
-2.31161e-09
2.0452e-09
-1.55086e-09
2.53778e-09
-3.72036e-09
1.60538e-09
-4.2281e-10
1.62796e-09
8.38794e-10
-2.90163e-10
-2.17659e-09
2.53568e-09
8.48881e-11
-1.84874e-10
-2.22871e-09
2.17653e-09
-7.02388e-10
5.73894e-10
-5.0189e-10
6.30384e-10
6.32076e-10
-1.72154e-09
1.80826e-09
-7.18796e-10
-3.58718e-09
3.64247e-09
1.74337e-10
3.56352e-09
-3.5512e-09
1.92735e-09
-2.88958e-09
-1.33138e-09
2.2936e-09
-4.07586e-09
1.1903e-10
-2.17446e-10
4.17428e-09
1.4163e-11
-6.98256e-11
-5.16031e-10
4.90662e-09
7.25971e-11
-4.46319e-09
3.27981e-10
-3.47214e-10
2.72278e-10
-2.53045e-10
3.20108e-11
-1.97694e-11
-3.0463e-11
3.83279e-11
6.12712e-10
3.44739e-09
-4.73923e-09
8.51962e-10
4.3988e-10
-1.58859e-09
2.023e-09
1.45408e-09
1.87749e-11
-3.40705e-11
2.50729e-09
-2.24251e-09
-2.71311e-09
2.44833e-09
7.68672e-10
3.34917e-10
-2.2085e-10
2.13735e-09
-3.86999e-10
-3.70337e-09
1.95302e-09
2.45494e-10
-2.70975e-10
4.06243e-10
4.80097e-09
-3.90895e-10
7.14169e-12
-1.43695e-11
-3.02781e-11
3.7506e-11
-4.05831e-09
4.93531e-09
-3.34378e-09
1.23999e-10
-3.5409e-09
3.56846e-09
-2.23824e-09
2.04492e-09
-3.46749e-09
3.6608e-09
1.54014e-10
-3.21566e-09
4.5501e-11
3.01615e-09
-1.44142e-10
3.74596e-09
-3.72864e-09
1.26829e-10
-3.22864e-09
4.12379e-09
2.75811e-11
-9.22731e-10
-1.15941e-09
2.89142e-09
7.69772e-10
-2.50178e-09
4.33038e-09
-4.30605e-09
1.16887e-11
-3.60216e-11
3.74766e-09
-2.96034e-09
-1.24704e-09
2.62809e-09
-3.27984e-10
-2.04265e-09
-2.5745e-10
2.14882e-09
-1.26105e-09
-3.36326e-09
3.34841e-09
5.1054e-11
-3.62012e-11
3.70828e-09
-3.71295e-09
3.63422e-11
-3.16675e-11
-4.94049e-10
-1.32467e-09
7.14506e-10
-1.95754e-09
2.83249e-09
-3.44397e-09
1.77191e-11
3.4263e-09
-4.66679e-14
2.3102e-10
-2.47469e-10
-5.78626e-10
5.3046e-10
-5.99608e-10
5.78209e-10
-7.01858e-10
7.23257e-10
3.76395e-09
-3.76934e-09
3.56142e-11
-3.02212e-11
3.47173e-09
3.61755e-11
-3.48312e-11
-3.47308e-09
3.53562e-09
3.24945e-09
-2.86966e-09
-3.9154e-09
-2.76781e-09
3.31969e-09
-2.21544e-09
3.73266e-09
-3.70602e-09
-3.36201e-11
6.97899e-12
1.52445e-09
5.8203e-09
7.00255e-10
1.57614e-09
1.9892e-09
-1.14778e-09
-3.4249e-09
3.39763e-09
1.0758e-10
-8.03016e-11
-2.90557e-09
4.76496e-10
2.61255e-09
-2.34668e-09
-1.57027e-09
-1.28578e-10
3.91462e-09
-3.78604e-09
2.1379e-10
-2.53811e-10
3.94556e-11
-5.75739e-11
-3.97389e-09
-1.22644e-09
2.22463e-09
-3.56648e-09
3.97272e-09
3.7004e-09
-3.67277e-09
-4.41281e-11
1.64983e-11
5.33762e-10
-5.70502e-09
5.49609e-09
-3.24833e-10
-1.97171e-09
-5.54663e-10
8.18287e-10
-3.44298e-09
9.09274e-10
2.87816e-09
7.7105e-10
-1.05115e-09
-1.69918e-09
-2.45838e-10
-2.19729e-09
2.29385e-09
1.49279e-10
-4.50367e-09
-1.97892e-10
4.58037e-09
1.21192e-10
-5.31272e-09
-3.75431e-10
5.18668e-09
5.01479e-10
3.66379e-09
-3.64649e-09
-3.49787e-11
1.76779e-11
3.36784e-09
-4.06348e-11
-3.36654e-09
3.93321e-11
1.70605e-11
-3.95131e-09
-5.1161e-11
3.98542e-09
5.02734e-11
-5.32189e-11
3.74338e-12
-7.97925e-13
-1.7651e-10
8.79407e-11
4.41117e-09
-3.55212e-09
-2.779e-10
5.05498e-10
3.87892e-09
4.52527e-09
-4.98898e-09
-3.41521e-09
5.98127e-11
-7.10261e-11
5.16049e-10
1.09287e-09
1.67124e-09
-1.3386e-09
-1.42551e-09
1.88545e-10
-2.1383e-10
3.64836e-09
-3.65652e-09
-7.83589e-12
1.60007e-11
3.33156e-11
1.2881e-10
-3.30127e-09
3.13915e-09
-1.74586e-09
-2.33907e-09
2.89349e-09
1.19144e-09
4.40614e-11
3.02742e-09
-1.08497e-11
-3.06063e-09
-3.43153e-09
-8.82481e-10
4.22808e-09
8.59317e-11
-5.07797e-09
5.36887e-09
-8.06928e-10
9.59543e-10
-1.1432e-09
-2.36795e-09
2.5516e-09
7.13168e-11
-5.4819e-11
2.6098e-11
-2.87864e-11
1.33213e-10
-1.30525e-10
3.6332e-09
-3.61737e-09
-4.9355e-11
3.35256e-11
-4.05634e-12
-3.59881e-09
3.60287e-09
6.64889e-11
-6.18884e-11
3.44055e-09
-3.44515e-09
1.34522e-09
2.91956e-09
-3.85157e-09
-4.13203e-10
-2.00057e-11
-2.39271e-09
4.84806e-11
2.36423e-09
-6.96083e-11
1.83253e-11
-2.71764e-11
7.84593e-11
3.56565e-09
-3.53559e-09
-6.11851e-11
3.1129e-11
4.16735e-09
-2.34806e-09
1.27335e-10
1.70358e-10
-1.91791e-10
-3.58243e-09
3.62728e-09
6.81101e-11
-1.12967e-10
-3.74547e-09
4.03279e-09
-7.47723e-10
4.60405e-10
3.99945e-09
5.00594e-09
-5.12646e-09
3.50319e-09
-3.48984e-09
-1.01072e-11
-3.2369e-12
1.84426e-10
-3.21145e-09
3.08837e-09
-3.21661e-09
-5.9261e-11
-9.36888e-11
3.36956e-09
2.34769e-09
-2.97535e-11
-6.53908e-09
4.22114e-09
-3.44686e-09
-1.02243e-10
3.56682e-09
-1.77113e-11
1.117e-08
-8.76863e-09
-2.40139e-09
9.51907e-10
-4.94744e-09
5.35026e-09
-3.74686e-09
2.38383e-09
-1.94234e-09
-2.42888e-09
2.16578e-09
2.20544e-09
-4.16678e-09
-5.63484e-09
2.99517e-09
-2.65466e-09
2.56514e-09
1.33423e-09
-1.46763e-09
4.76775e-10
-3.43379e-10
-2.59953e-09
3.30175e-09
-7.02216e-10
1.23851e-09
-3.98578e-09
-4.97986e-10
1.77734e-09
-2.11622e-10
-1.31865e-09
3.72754e-09
-3.73704e-09
3.79699e-11
-2.84681e-11
8.15212e-11
-9.12454e-11
1.9199e-11
-9.47482e-12
1.51657e-10
-1.59281e-10
-3.51366e-09
8.87252e-11
3.53576e-09
4.57665e-09
-4.54967e-09
7.55031e-12
-3.45343e-11
3.53623e-09
-3.57328e-09
-3.23479e-09
3.10905e-09
-2.04685e-10
3.30426e-10
1.24583e-09
-1.17571e-09
-5.32779e-09
5.25766e-09
4.32748e-09
-4.29082e-09
2.86188e-11
-6.52785e-11
-2.3354e-09
2.24417e-09
2.48445e-09
-5.40726e-09
9.7791e-10
4.40878e-09
2.05703e-11
-6.63861e-11
6.96164e-11
-7.19131e-12
3.96106e-12
-3.20377e-10
1.77124e-10
-1.85933e-10
7.20278e-11
-3.70748e-09
3.64268e-09
-7.23151e-12
-3.9953e-09
4.13873e-09
-2.09648e-10
6.62131e-11
-4.15737e-09
2.79535e-10
3.7741e-09
1.03736e-10
-1.39986e-09
-1.31867e-09
9.79705e-10
1.73882e-09
-3.07078e-09
1.17537e-09
-1.17013e-09
1.57942e-10
-2.2895e-10
-4.32256e-09
3.83626e-09
-1.01794e-09
1.50424e-09
1.75495e-09
-1.66092e-09
2.58611e-09
-2.68014e-09
-4.83184e-11
3.61245e-09
-3.60681e-09
3.55519e-09
-2.7984e-11
7.9608e-11
-3.81603e-11
-3.89154e-09
3.87342e-09
5.62769e-11
-3.3189e-09
2.72539e-09
3.10569e-09
-2.51218e-09
3.00387e-11
-1.80629e-11
4.33623e-09
-4.35223e-09
9.68037e-11
-8.0804e-11
3.44397e-09
2.52841e-10
-3.60781e-09
-8.90021e-11
-3.53779e-09
-1.15956e-10
3.65375e-09
-3.48939e-09
3.40796e-09
-3.45637e-09
1.28738e-10
-2.16473e-10
-2.2609e-09
2.02048e-09
1.11703e-09
-8.76605e-10
-1.03813e-10
-3.59729e-09
1.76353e-10
3.52475e-09
2.7202e-09
-4.63477e-09
2.88701e-09
-9.72435e-10
-3.18462e-09
2.34748e-09
-1.1052e-09
1.47236e-09
-1.45912e-09
-1.9502e-09
1.93696e-09
-2.26747e-09
-1.82318e-09
2.15608e-09
-1.52157e-10
3.57781e-10
-3.35645e-09
3.15082e-09
2.43531e-09
2.17367e-09
-1.5028e-09
-1.04805e-10
1.52799e-10
-4.12386e-09
-2.00941e-10
-3.6732e-09
8.81945e-11
-2.19305e-10
-3.5045e-09
4.09073e-10
1.4996e-09
-2.1167e-09
-2.7018e-09
1.9412e-09
-2.79261e-09
2.36623e-09
-1.51482e-09
1.02793e-11
-4.30809e-11
-1.01736e-09
4.3565e-10
-1.9737e-09
2.5554e-09
-5.73846e-09
9.69788e-10
-8.61777e-10
3.39829e-09
5.90059e-11
-2.59552e-09
3.33618e-09
-1.28035e-09
4.98791e-10
-2.55462e-09
-1.84649e-11
-9.72481e-11
-8.68892e-12
1.24402e-10
-2.04796e-09
-1.40948e-09
1.38389e-09
3.40984e-09
-3.43347e-09
2.09916e-11
2.64388e-12
4.34454e-09
8.24975e-11
-9.08109e-11
9.04689e-09
-1.58833e-09
-6.38352e-09
9.96348e-10
1.38288e-09
-9.46221e-10
-3.80652e-09
1.3015e-09
-7.16286e-10
3.22131e-09
-6.085e-09
1.08164e-09
5.72701e-09
-7.2365e-10
2.8302e-09
-1.22721e-09
3.50163e-10
-1.95316e-09
-6.15627e-11
3.93552e-09
-3.97876e-09
4.32153e-09
7.90883e-11
-5.60747e-11
-4.31538e-09
9.05183e-11
-1.27364e-10
3.26583e-09
2.78644e-11
-1.65758e-11
-3.27712e-09
-2.5787e-09
1.12586e-10
-4.10198e-10
2.87631e-09
2.93318e-09
-2.04879e-09
1.55092e-09
-4.01811e-09
6.33767e-10
-4.05601e-11
1.22365e-10
-1.34019e-10
2.25996e-11
-1.09454e-11
-3.60036e-09
-3.8531e-10
6.38542e-10
3.34713e-09
-8.00571e-10
8.94527e-10
1.2773e-10
-9.20822e-11
-4.35103e-09
-1.23122e-10
9.75412e-12
-1.97438e-11
1.33111e-10
-1.11595e-09