/*--------------------------------*- C++ -*----------------------------------*\
  =========                 |
  \\      /  F ield         | OpenFOAM: The Open Source CFD Toolbox
   \\    /   O peration     | Website:  https://openfoam.org
    \\  /    A nd           | Version:  8
     \\/     M anipulation  |
\*---------------------------------------------------------------------------*/
FoamFile
{
    version     2.0;
    format      ascii;
    class       surfaceScalarField;
    location    "1";
    object      phi;
}
// * * * * * * * * * * * * * * * * * * * * * * * * * * * * * * * * * * * * * //

dimensions      [0 3 -1 0 0 0 0];

internalField   nonuniform List<scalar> 
10659
(
-8.4356e-09
8.70007e-09
2.13856e-10
-4.7832e-10
4.53079e-10
-6.66927e-10
8.38614e-09
-8.1723e-09
8.25702e-09
-7.61022e-09
5.80818e-10
-1.22761e-09
-8.18786e-09
-4.09386e-10
1.61642e-10
-1.18273e-08
2.96766e-09
9.55351e-09
-6.93873e-10
-3.22717e-10
5.74707e-09
-6.29607e-09
8.71713e-10
1.13877e-10
4.9312e-11
-8.32792e-11
-7.99096e-11
-1.5307e-09
-2.49844e-09
2.43294e-09
1.5962e-09
8.74323e-09
-8.6447e-09
8.47136e-11
-1.83242e-10
-2.45781e-09
2.10619e-09
-4.07653e-09
4.42815e-09
-9.02525e-09
-1.49638e-10
1.38922e-10
9.03596e-09
-3.68347e-10
7.04368e-09
-6.67533e-09
-8.40984e-09
8.70664e-09
2.32534e-10
-5.29335e-10
1.05811e-10
7.89643e-09
-2.5539e-10
-7.74685e-09
-8.11899e-11
3.20196e-10
8.50422e-09
-1.92518e-09
-3.8096e-09
3.27698e-09
-2.54993e-10
2.61296e-10
-6.30343e-12
-2.28918e-09
-5.86183e-09
4.32452e-09
3.82649e-09
-7.086e-09
-3.31719e-10
8.78654e-10
6.53906e-09
-8.2202e-09
-5.12022e-10
8.75217e-11
-6.50645e-09
6.91983e-09
-4.13385e-10
9.53949e-11
-1.23859e-10
1.42341e-10
5.16666e-09
2.97082e-09
-7.4586e-09
-6.78876e-10
-1.59598e-10
8.07712e-09
-7.56753e-09
-5.0959e-10
-9.43262e-09
-2.69194e-10
6.99042e-10
9.00277e-09
-8.2091e-09
-3.70002e-10
1.69267e-10
8.96807e-09
1.14614e-10
-3.82618e-10
5.51042e-09
-2.61796e-09
-6.36151e-09
3.46904e-09
8.63055e-09
-8.46807e-09
2.70452e-11
-1.8952e-10
-9.16016e-09
9.49314e-09
4.82278e-10
-8.15255e-10
2.38863e-10
1.19787e-10
-2.25708e-10
-1.32942e-10
-7.55388e-09
6.40298e-09
2.54552e-09
-1.39463e-09
-1.04167e-08
2.30648e-09
8.46748e-09
-3.57213e-10
-9.4457e-09
-1.54884e-10
4.77413e-10
9.12317e-09
6.68883e-09
5.90493e-10
-7.06385e-09
-2.15466e-10
6.20747e-09
-5.59092e-09
-1.29139e-10
-4.87414e-10
7.30056e-09
-5.25032e-10
2.11824e-10
-6.98735e-09
-9.29394e-09
2.38193e-10
-7.28462e-11
9.1286e-09
5.26473e-12
7.58163e-09
9.6159e-10
-8.54848e-09
-7.80627e-09
1.12919e-09
8.3909e-09
-1.71381e-09
4.31861e-09
-1.04612e-09
2.93498e-09
8.84447e-09
2.50823e-10
-8.38274e-10
5.3871e-09
3.02678e-09
-3.73811e-09
-4.67577e-09
-2.72322e-09
2.64905e-09
9.34935e-09
-9.27518e-09
-2.91508e-10
-7.35493e-09
1.57843e-10
7.4886e-09
-6.02876e-11
-1.30772e-11
8.70391e-09
-8.70946e-09
2.85415e-10
-8.69904e-10
-1.62211e-09
-8.27564e-09
1.63983e-09
8.25792e-09
-7.5831e-09
5.58758e-09
-5.8719e-09
7.86742e-09
1.07705e-09
4.96152e-09
-5.27139e-09
-7.67181e-10
-8.41314e-09
-7.05991e-11
1.56661e-11
-7.20694e-10
-8.85591e-09
1.30903e-10
-8.93711e-09
-2.85656e-11
-5.81013e-11
9.02378e-09
9.12331e-09
1.51648e-10
-5.68316e-10
8.56867e-10
-8.76469e-09
-3.89613e-10
8.29743e-09
-1.21337e-08
1.5482e-10
-6.47544e-10
1.26264e-08
-2.67574e-09
6.25506e-09
-1.05683e-08
6.98894e-09
8.32785e-09
-8.97229e-10
-7.74194e-09
3.11316e-10
-8.62507e-09
8.69419e-09
-2.98249e-09
2.91338e-09
-2.19303e-09
4.71327e-09
2.99018e-09
9.76214e-09
-1.9856e-09
7.68011e-10
-8.54455e-09
-8.30481e-09
-1.59225e-09
6.78074e-09
3.11633e-09
1.27169e-09
-2.36789e-09
2.24767e-09
-1.15147e-09
1.51252e-12
7.36339e-11
1.98901e-10
-2.74047e-10
-6.66988e-10
1.40053e-09
-5.62974e-09
4.89619e-09
-5.53557e-10
2.3531e-09
-3.72472e-09
-8.25863e-09
-1.21051e-09
9.46914e-09
-5.00294e-10
7.92856e-09
1.687e-10
-7.59696e-09
-5.18732e-10
9.30639e-09
3.3419e-10
-9.12185e-09
8.8405e-09
6.83489e-11
-8.67066e-09
-8.19623e-09
-4.64947e-10
1.42096e-09
7.24022e-09
2.87007e-11
3.48441e-09
-1.29669e-10
-3.38344e-09
-2.78267e-09
-7.5276e-10
3.48774e-09
4.76901e-11
4.49008e-09
-4.4308e-09
1.01777e-09
-8.05045e-09
-1.99932e-10
7.73821e-10
7.47656e-09
3.62862e-09
3.677e-09
-1.81534e-09
-5.49028e-09
-6.46612e-10
-9.09764e-09
2.82949e-10
9.4613e-09
7.28248e-09
-1.5043e-09
1.15019e-09
-6.92838e-09
8.76808e-09
-1.55889e-09
-7.85581e-09
6.4662e-10
2.64143e-09
-1.11807e-09
2.79525e-09
6.6311e-09
-4.55605e-09
4.15947e-09
-6.23452e-09
-4.37115e-09
5.25607e-09
-4.93569e-09
4.05077e-09
-7.28973e-09
3.96269e-10
-1.92536e-10
1.06581e-08
5.58431e-10
-3.14158e-09
-8.07496e-09
-5.00935e-10
8.27264e-09
2.57798e-10
-8.02951e-09
-1.14516e-09
4.58371e-09
-3.43855e-09
2.55387e-09
-7.75101e-10
8.7832e-10
-2.65709e-09
1.06382e-08
-3.63391e-09
-7.94023e-09
9.35924e-10
-5.0966e-09
-1.24298e-10
-3.70016e-10
-4.86647e-09
4.5021e-09
2.06423e-09
-1.69986e-09
5.39296e-10
-1.75838e-09
7.79765e-09
-6.57856e-09
-7.97529e-09
1.45479e-09
-6.25432e-10
7.14593e-09
-8.40109e-09
-2.00302e-11
4.39493e-10
7.98163e-09
2.54181e-09
9.14072e-09
-5.42217e-09
-6.26036e-09
-3.96938e-09
3.97074e-09
1.9194e-09
-1.92076e-09
-8.59432e-09
-7.20951e-10
1.75298e-09
7.56228e-09
5.41368e-09
4.18999e-09
-5.98857e-09
-3.6151e-09
-4.47482e-09
1.11499e-08
2.947e-09
-9.6221e-09
6.59249e-09
-2.37075e-09
-7.58568e-09
3.36394e-09
-7.09585e-09
7.24963e-09
-1.53778e-10
7.49324e-09
-2.84809e-10
-7.6273e-11
-7.13216e-09
1.98787e-09
-5.46938e-09
4.87061e-09
-1.3891e-09
-3.88692e-09
-2.14523e-09
2.06277e-09
-8.9498e-09
2.92123e-10
-1.75906e-09
2.36366e-10
3.34622e-10
8.01955e-09
-8.59054e-09
-4.96856e-09
-6.81369e-09
3.51842e-09
8.26383e-09
-2.25659e-10
-5.16484e-09
1.1029e-08
-5.6385e-09
-2.71294e-09
-5.97836e-10
7.97517e-10
2.51326e-09
-1.51407e-10
-2.99142e-10
2.35077e-10
2.15471e-10
3.35786e-09
-2.9523e-09
2.76548e-09
-3.17104e-09
3.12338e-09
1.3439e-10
-3.03053e-09
-2.2724e-10
7.63476e-09
-8.36904e-09
1.22192e-09
-4.8764e-10
7.59027e-09
3.85367e-11
-2.30302e-10
-7.3985e-09
-8.78058e-09
-6.38043e-10
1.77967e-09
7.63895e-09
-1.20535e-09
7.28453e-09
-7.58555e-09
1.50638e-09
1.10889e-08
-6.39909e-11
-6.70594e-09
-4.31901e-09
7.9057e-09
-1.14197e-10
-1.56749e-10
-1.16428e-10
4.35156e-10
8.4218e-09
-8.74052e-09
-3.18968e-09
3.11844e-09
-8.55383e-09
-5.47397e-10
-8.64487e-09
2.45089e-10
8.94718e-09
6.45447e-09
-7.62275e-09
-7.13949e-09
8.30777e-09
-6.09603e-09
2.54026e-09
6.52149e-09
-2.96572e-09
3.87424e-10
-3.94673e-10
4.89726e-09
-1.31889e-10
1.19589e-09
-5.96126e-09
4.34073e-09
2.76531e-10
-3.88241e-09
-7.34846e-10
-7.38754e-09
7.49335e-09
1.95018e-10
-9.48949e-09
-9.72722e-10
1.02672e-08
3.67944e-09
2.38906e-09
-2.71064e-09
8.33748e-09
-8.0807e-09
-4.37226e-10
1.8045e-10
-6.70372e-10
-8.7898e-09
8.94144e-09
-1.56017e-09
-2.388e-10
6.73586e-09
-4.93689e-09
-6.7535e-09
6.13585e-09
6.37554e-10
-1.99014e-11
-3.39092e-10
-7.29257e-09
9.61395e-11
7.53552e-09
-5.80348e-10
1.92832e-10
-8.32194e-09
-2.75647e-09
2.9569e-09
-2.00432e-10
8.687e-09
-1.89245e-11
2.41348e-10
-8.90943e-09
-3.22272e-09
3.20602e-09
4.53997e-11
-1.81875e-09
-3.4256e-09
3.17169e-09
2.07266e-09
-8.0471e-09
-9.19885e-11
7.69277e-09
4.46326e-10
-2.4134e-09
-4.00185e-09
3.46294e-09
-7.88422e-10
8.61168e-10
-7.27462e-11
-8.65897e-09
1.24671e-09
-7.83962e-10
6.51456e-09
6.84126e-10
-2.13077e-09
-5.06792e-09
5.43296e-12
-8.96817e-11
1.93271e-10
-1.09022e-10
7.43978e-09
3.72261e-09
-9.82823e-09
-1.33416e-09
-2.53476e-09
1.3265e-10
-1.07675e-08
-1.26925e-09
2.21903e-09
6.48999e-09
-7.27675e-09
2.37281e-09
-3.95533e-09
8.85927e-09
-4.0675e-09
4.25041e-09
5.23077e-09
-1.49356e-10
1.97073e-10
-1.82007e-11
-2.95165e-11
-3.63042e-10
4.63933e-10
-2.20514e-09
2.10425e-09
-1.67502e-10
-6.92835e-09
-1.31234e-09
1.42847e-09
-1.16131e-10
2.29034e-09
5.44844e-09
-5.73788e-09
-2.00091e-09
3.5939e-11
3.44539e-10
-6.801e-11
-3.12468e-10
-7.99956e-11
5.38559e-11
1.98161e-09
-1.95547e-09
-1.20031e-09
5.95642e-09
3.00584e-09
-7.76195e-09
-1.40961e-09
5.04393e-09
-6.28134e-09
2.64702e-09
-7.84029e-09
5.4041e-10
8.65914e-09
-1.35927e-09
-6.96762e-09
6.80057e-09
2.84496e-10
-1.17447e-10
7.66552e-09
-2.06213e-09
2.73881e-10
-5.87727e-09
-2.01098e-09
1.77577e-09
6.74977e-09
7.72902e-10
-5.04441e-09
-7.30824e-10
5.00233e-09
-2.34093e-09
2.08192e-09
3.94669e-09
4.30505e-09
-4.84217e-09
-3.40957e-09
3.93905e-10
5.33587e-12
-2.11755e-12
-3.97123e-10
-1.57782e-09
3.12526e-10
1.10274e-08
-8.86981e-09
1.07218e-10
-1.30375e-09
1.00663e-08
9.8042e-09
-3.20928e-09
1.50361e-09
-8.09852e-09
1.91659e-09
-1.00509e-09
-9.71497e-09
8.80347e-09
8.70764e-09
8.90013e-10
-3.1696e-10
-9.28069e-09
3.20005e-11
-3.17086e-10
-6.46842e-09
2.55125e-10
-1.67669e-10
-8.62984e-09
8.45629e-10
-8.10108e-10
-3.37143e-10
-7.0435e-10
-9.45345e-09
1.04949e-08
-1.54015e-09
-8.32104e-09
1.93854e-09
7.92265e-09
1.03538e-10
-1.09662e-09
1.20007e-09
-2.06989e-10
-1.93095e-09
-8.038e-09
2.1646e-09
7.80436e-09
-8.0517e-10
-8.27291e-09
1.702e-09
7.37608e-09
-9.20652e-09
-9.61799e-10
9.43879e-09
7.29526e-10
2.50144e-09
-1.6685e-09
1.22672e-09
-2.05966e-09
-6.48677e-10
-8.20798e-09
1.39758e-09
7.45907e-09
7.33672e-12
5.09078e-11
7.24231e-09
-2.62809e-10
3.09807e-10
-4.69978e-11
4.26672e-10
-7.66686e-09
7.69787e-09
-4.57688e-10
6.87124e-09
5.39467e-10
-2.68249e-10
-7.14246e-09
3.48472e-10
-9.7467e-09
-2.42907e-09
-1.56043e-09
-1.32336e-10
1.5726e-09
1.20172e-10
4.17476e-09
-1.16354e-09
-4.82997e-09
-6.20497e-11
6.69315e-09
7.03426e-09
-6.60759e-09
8.57692e-09
3.72815e-09
-1.21612e-09
7.56521e-10
2.13658e-10
-7.68038e-10
-2.02141e-10
-8.1264e-10
3.55373e-09
-3.45779e-09
7.16702e-10
-9.3194e-09
1.11574e-09
-5.76932e-10
8.36515e-09
1.16972e-09
-8.678e-09
5.1041e-10
-4.61545e-10
-1.56913e-10
1.08048e-10
5.18165e-09
-2.55095e-09
-4.53417e-09
1.90346e-09
3.60015e-10
-2.03544e-10
-8.56961e-09
-2.46974e-09
2.17216e-09
8.35599e-10
-5.3801e-10
-1.6922e-09
-6.68481e-10
-6.02537e-09
8.38606e-09
-4.5118e-11
-4.28435e-10
4.73553e-10
-2.39521e-09
2.18773e-09
-7.70198e-09
6.69103e-09
-6.13411e-09
7.14507e-09
-1.0112e-09
9.35065e-09
1.73682e-09
3.19413e-10
-8.21017e-10
-3.44317e-10
8.45921e-10
-5.24873e-10
-2.7726e-09
8.27732e-10
-6.57519e-09
-1.01709e-09
7.50469e-09
8.75871e-11
3.02597e-09
-9.07665e-09
9.93706e-09
-3.88637e-09
-3.43245e-09
-6.63478e-09
1.67626e-10
9.89961e-09
-5.07221e-10
-2.35933e-09
2.64701e-09
2.19542e-10
-4.13253e-10
2.21167e-10
1.00008e-08
-1.8793e-09
1.37166e-09
-1.45702e-09
5.03198e-10
-6.6564e-09
-9.47779e-11
-8.0375e-09
8.51735e-11
-2.79279e-10
7.59165e-09
-5.42112e-11
-7.25816e-09
-2.6367e-10
8.28919e-11
9.45648e-10
-9.63287e-09
-6.83039e-10
9.37027e-09
8.89913e-11
4.13709e-10
-3.67729e-10
-1.34971e-10
2.81174e-09
-3.01642e-09
-6.1871e-09
6.39178e-09
8.0411e-11
-6.73265e-11
-1.57352e-09
5.75477e-09
7.60994e-09
-9.20405e-09
-4.16065e-09
-2.79193e-10
-3.01175e-11
2.02442e-09
-8.47494e-09
-9.7789e-11
6.54831e-09
-8.45258e-09
8.59101e-09
2.82923e-09
-9.02655e-11
1.25623e-10
7.45789e-09
2.40285e-09
-2.05408e-09
-8.18663e-09
7.83785e-09
-1.76236e-11
-7.89878e-11
-3.44381e-10
-1.97745e-09
2.1528e-09
1.69038e-10
3.79011e-10
-7.3932e-09
7.01419e-09
3.85286e-09
-7.51542e-10
-6.51284e-09
3.41152e-09
-2.33993e-10
5.46386e-11
-3.32684e-09
1.29924e-09
-1.40643e-09
3.43403e-09
3.90669e-10
-6.75009e-09
6.35942e-09
-8.00957e-09
5.37302e-09
-2.7545e-09
5.39105e-09
-5.03769e-10
7.77422e-10
1.8985e-09
-1.87961e-10
2.17858e-09
-2.07062e-09
-2.77128e-10
-1.6841e-09
1.82032e-09
1.40907e-10
6.76642e-11
-8.27304e-09
-3.72685e-12
5.65425e-10
-1.77244e-10
1.2223e-10
-1.58703e-09
2.23422e-09
-7.71412e-09
7.06693e-09
1.33807e-08
-1.18575e-08
1.74033e-09
-3.26353e-09
3.06954e-09
6.28902e-09
-6.2311e-09
-3.12745e-09
-2.39289e-10
1.54811e-09
1.22969e-10
-1.43179e-09
2.59989e-09
-6.26971e-09
6.48157e-09
-5.28973e-09
5.37514e-09
4.06793e-09
-4.15334e-09
-4.60949e-09
2.44721e-09
5.57919e-09
-3.41691e-09
-6.76699e-09
-2.54622e-09
6.64235e-09
2.67086e-09
-8.14737e-10
2.15951e-09
1.15667e-09
-3.83155e-10
4.27028e-10
7.82043e-09
5.94076e-09
-5.89479e-09
-7.86641e-09
-8.37464e-09
8.52505e-09
1.8163e-10
-3.3204e-10
-5.79291e-09
5.09105e-09
9.81812e-10
-2.79952e-10
-6.58467e-09
-2.73759e-10
6.14109e-10
6.24432e-09
7.16934e-11
-7.52958e-09
7.88869e-09
-4.30802e-10
-8.88302e-09
4.08538e-09
-3.4693e-09
8.26694e-09
-8.69487e-09
-6.80716e-10
1.32513e-09
6.98731e-10
-8.78873e-09
-1.30201e-10
5.63522e-09
2.52773e-10
-1.54726e-09
1.38819e-08
-1.03266e-08
-8.03018e-09
-2.00876e-11
-8.21915e-09
5.13731e-11
7.85134e-09
-7.39826e-09
4.146e-09
-5.31753e-09
6.37932e-09
-5.20779e-09
1.07047e-10
-1.51659e-09
1.48996e-09
4.77896e-09
-9.93797e-10
-6.7077e-09
2.92253e-09
-1.34802e-09
1.37487e-09
-8.54586e-09
8.51901e-09
1.12705e-08
-1.37884e-09
-9.36113e-09
-5.3051e-10
-1.80886e-09
4.20706e-11
1.82064e-09
1.43587e-10
-6.38331e-10
-6.85977e-11
5.63342e-10
7.49442e-10
-3.21675e-10
2.78045e-10
-7.05812e-10
7.78876e-09
-2.48937e-09
-6.7564e-09
7.53405e-10
-1.02775e-10
1.05891e-10
5.51077e-09
-8.17605e-10
-6.20121e-09
1.50805e-09
4.33491e-09
-8.569e-09
9.58889e-09
-5.35481e-09
2.70475e-10
-1.24235e-09
-2.47952e-10
1.21983e-09
-1.98173e-09
2.61664e-09
-2.42858e-09
1.79367e-09
7.87967e-09
-7.65458e-09
1.88618e-10
-4.13706e-10
-2.89374e-11
8.6421e-09
3.94486e-11
-8.65262e-09
-8.72993e-09
8.4794e-09
-1.09749e-09
-3.49357e-10
3.85296e-10
-1.82131e-10
9.11879e-10
-9.33072e-10
2.03324e-10
-7.74094e-10
-3.52123e-10
9.11762e-10
2.14454e-10
6.18129e-09
-3.09675e-09
-4.76639e-09
1.68185e-09
-8.50666e-09
8.35702e-09
3.48283e-09
-3.01792e-09
-1.32326e-09
8.58356e-10
2.87609e-09
5.5435e-09
-4.83722e-09
-3.58237e-09
-8.22728e-10
2.55589e-11
-1.9855e-09
-8.93037e-09
1.061e-09
-1.66015e-09
9.52952e-09
-3.29673e-10
8.26037e-09
-1.33213e-10
-7.79748e-09
-7.18026e-09
2.61067e-09
7.42937e-09
-2.85979e-09
-7.48228e-09
-1.87437e-09
2.58967e-09
2.60127e-09
-2.24181e-09
-4.73061e-09
-7.71087e-09
-9.63871e-11
7.80725e-09
-8.13517e-09
8.05398e-09
2.91414e-09
1.17847e-08
-6.45967e-09
-8.23917e-09
7.22488e-09
-7.99733e-10
-7.69439e-09
-1.50909e-10
7.23319e-10
-3.28535e-09
-5.65691e-09
6.39327e-09
-8.97424e-10
1.61057e-10
1.75056e-09
-5.12802e-09
-4.72201e-09
8.09947e-09
-1.91953e-10
8.47463e-09
8.33789e-11
-8.36605e-09
1.8602e-09
-2.60632e-10
-2.10334e-09
-8.08681e-09
8.57302e-09
-8.956e-10
-6.21748e-09
5.64467e-09
5.82888e-09
4.8111e-09
1.05843e-09
-6.01876e-09
1.49226e-10
-6.9403e-10
-7.53937e-09
7.43881e-09
7.94588e-10
3.36848e-11
-8.33929e-09
9.25125e-09
1.02009e-09
-1.15211e-09
-3.75812e-10
5.0783e-10
8.25134e-09
-5.97668e-10
2.32004e-10
-7.88568e-09
-4.59619e-10
-7.45437e-09
7.50155e-09
4.12435e-10
-8.48717e-09
8.21798e-09
-3.5974e-09
-6.15679e-09
6.73777e-09
-4.77946e-09
-4.09891e-09
4.81087e-09
1.30442e-09
8.77215e-09
-1.81803e-09
-8.25855e-09
6.94128e-09
3.42277e-10
-7.62829e-09
3.44733e-10
1.12581e-09
8.00837e-09
-7.6902e-10
3.88859e-09
-9.07843e-10
-8.70268e-09
5.72193e-09
-9.05703e-09
-8.1986e-10
-1.15622e-08
-5.96231e-09
9.82253e-09
-7.91859e-11
-7.09236e-10
8.78792e-11
-1.87218e-10
8.54624e-09
-8.70113e-09
-4.37912e-11
9.46236e-09
-1.08109e-09
-3.09965e-09
3.77587e-10
3.271e-09
-5.48945e-10
8.07699e-09
3.65789e-10
-7.93906e-09
-5.03722e-10
-1.78055e-10
8.5273e-09
-8.95431e-09
6.05073e-10
2.25665e-09
1.00364e-08
-2.83083e-09
-9.46217e-09
-2.6365e-09
5.29987e-10
1.03733e-08
-8.26675e-09
3.4847e-09
3.03375e-09
-3.87703e-09
8.51604e-09
-8.40142e-09
-2.60204e-10
-9.49347e-09
8.06147e-09
1.05477e-10
3.65621e-10
-1.38976e-10
-3.32123e-10
-1.64812e-10
2.12053e-10
-3.36765e-10
2.89524e-10
-5.63851e-09
-2.48284e-09
5.9804e-09
2.14095e-09
9.21948e-09
-8.7372e-09
-8.12676e-09
8.06647e-09
-6.58792e-10
-1.71702e-10
7.51308e-10
-6.44101e-09
1.01294e-08
-4.20041e-09
6.40757e-10
-6.25236e-11
-5.78234e-10
9.11432e-10
-9.95154e-09
5.35043e-10
8.50507e-09
-1.15789e-09
-8.91539e-09
1.46259e-09
8.61069e-09
-8.21497e-10
7.29492e-10
-2.67668e-10
3.59673e-10
-8.13106e-09
2.9471e-09
-1.5847e-09
6.76866e-09
-7.00969e-09
7.08138e-09
-7.30829e-09
-3.56222e-10
7.49701e-09
8.99298e-10
-5.21351e-10
8.38523e-09
-8.76318e-09
-8.40129e-09
1.3253e-09
2.51203e-09
-2.25264e-09
-4.47348e-10
-6.83095e-09
-1.2457e-10
6.624e-09
3.31515e-10
1.01596e-08
-8.24161e-09
-1.53897e-09
-1.20656e-09
-1.05786e-10
-6.27447e-09
-2.7833e-09
6.71381e-09
2.34397e-09
9.94995e-10
-7.71803e-09
7.25752e-09
-5.34477e-10
1.10211e-08
-9.41645e-09
-1.75017e-09
1.45569e-10
5.51051e-10
-6.16073e-10
-7.77526e-09
-1.50598e-10
-2.73404e-10
2.5919e-10
-8.17295e-09
8.42377e-09
-7.54739e-10
-7.28107e-09
7.16201e-09
8.73794e-10
6.82953e-09
-5.7346e-09
2.64562e-09
-3.74054e-09
-2.01669e-09
3.02219e-09
7.57142e-09
8.10763e-09
-8.20824e-09
1.49153e-10
-4.85471e-11
-8.03384e-09
8.5848e-09
-9.20958e-10
4.4192e-10
7.18195e-09
3.26266e-10
-7.95014e-09
-8.24514e-09
8.21658e-09
-3.096e-10
-7.88692e-09
8.19652e-09
-9.03405e-09
-1.19068e-09
9.5739e-09
6.50834e-10
-1.4006e-09
-7.43351e-09
1.65385e-09
3.29807e-09
-1.73588e-09
-2.55036e-09
9.88169e-10
5.61953e-09
6.79753e-09
-5.58754e-09
-9.68053e-09
9.22145e-09
-3.84059e-10
8.43139e-10
8.04458e-09
-8.22264e-09
9.30369e-09
-5.99955e-09
-6.68e-09
3.37586e-09
-5.51227e-10
2.71261e-09
8.85967e-09
-1.45769e-12
-1.21826e-11
4.07545e-10
5.59357e-09
-7.4219e-09
2.99973e-10
7.68882e-10
-2.19419e-10
1.36943e-10
-6.91617e-10
8.77123e-09
-8.88648e-09
2.47326e-10
-1.32072e-10
-1.25595e-10
4.0033e-10
3.20968e-09
2.28142e-09
-2.22561e-09
-6.15184e-09
-8.41045e-09
1.97785e-10
8.29715e-09
-8.44832e-11
-6.75853e-09
6.66826e-09
-3.94288e-09
6.84884e-09
-4.37292e-09
1.46697e-09
-2.16711e-09
7.5962e-09
2.03684e-09
-7.46593e-09
6.13141e-09
4.5895e-09
-2.90047e-09
-6.04778e-11
-7.89169e-09
7.95217e-09
-8.53631e-09
-1.62012e-09
2.32025e-09
7.83617e-09
-9.63973e-09
8.50532e-09
-1.15725e-09
2.29166e-09
-8.36564e-09
8.51729e-09
-9.72262e-11
3.5293e-10
-2.52826e-10
-2.87831e-12
-6.48958e-09
-6.62477e-10
7.83618e-09
8.67792e-09
-8.50793e-09
-3.15004e-10
1.45011e-10
-1.94405e-09
-2.11624e-09
2.24049e-09
1.81981e-09
-9.03543e-09
8.68103e-10
-4.71521e-10
8.63885e-09
4.28734e-10
-1.72288e-10
8.51478e-09
8.24359e-10
8.65551e-09
-9.05113e-09
-9.16461e-09
1.32999e-09
-2.85959e-09
-1.10351e-09
1.28104e-09
2.68206e-09
-8.16022e-09
-1.16087e-09
9.01149e-09
-8.61959e-09
8.06836e-09
5.95378e-10
-8.96176e-09
-6.90647e-10
3.57441e-09
-5.61603e-09
-5.74763e-09
7.78925e-09
-1.56169e-09
6.06438e-09
-6.14647e-09
-2.13895e-09
2.44453e-09
5.84089e-09
-8.80087e-09
8.86645e-09
5.17417e-11
-1.17327e-10
-2.30939e-09
9.39345e-10
-7.17527e-10
2.08757e-09
-3.63494e-10
-1.38747e-09
1.51168e-09
1.82438e-09
-5.59746e-11
7.19157e-11
-1.84032e-09
4.75521e-11
-7.80961e-11
-2.14506e-10
2.4505e-10
-8.36891e-09
8.90094e-09
-6.02622e-10
1.43009e-09
-8.80884e-09
8.78023e-09
-1.40149e-09
-4.18054e-10
-1.63981e-09
1.78073e-09
7.55954e-09
-1.34099e-09
-8.23525e-09
-6.18955e-09
4.2612e-09
7.51592e-09
8.96824e-09
-9.11564e-09
1.78061e-10
-3.06651e-11
7.68085e-09
-7.85313e-09
-4.83578e-10
8.47402e-09
-7.99044e-09
-5.10211e-10
-1.92834e-09
2.09417e-09
6.84791e-11
-1.41522e-10
-5.85749e-10
2.0277e-09
-8.75382e-09
8.9667e-09
-2.24058e-09
8.82662e-09
-1.03248e-08
1.14283e-09
-4.98515e-10
1.74734e-09
3.24387e-10
-1.08524e-08
8.78065e-09
-6.98566e-09
1.82428e-09
-1.53229e-09
6.69367e-09
-5.03387e-09
3.9372e-09
4.94953e-09
8.14554e-10
5.98699e-09
-9.72051e-10
-5.82949e-09
-3.33023e-10
1.48752e-10
4.07176e-10
6.86554e-11
-4.70496e-10
-6.18292e-10
2.56347e-10
-7.94268e-10
-2.29517e-09
2.58222e-09
5.52827e-10
-1.64252e-10
8.57967e-09
8.58355e-10
8.67258e-09
-8.97811e-09
-8.39632e-09
6.24836e-10
-9.03196e-09
1.00565e-08
-1.67114e-09
1.96458e-09
5.32488e-09
-2.21245e-09
-5.07701e-09
-1.01156e-09
1.01667e-09
-1.8724e-10
1.6504e-09
-2.22824e-10
4.32624e-10
3.01462e-09
-6.36278e-09
1.92693e-11
7.98521e-09
-8.00448e-09
-7.46389e-09
-3.10597e-10
1.1991e-10
-8.18699e-09
1.11493e-09
8.50215e-09
8.58138e-09
-8.6202e-09
1.00408e-10
-6.15884e-11
-8.19442e-09
8.26277e-09
-5.00466e-09
2.19432e-10
3.73911e-09
7.83572e-12
-7.89743e-09
7.88959e-09
9.13514e-10
-3.36087e-10
4.42665e-10
7.71747e-09
1.5059e-10
-2.77794e-10
5.37222e-10
-3.39096e-10
-1.83966e-10
-1.41603e-11
1.2775e-09
-1.44369e-09
1.46264e-09
-1.29645e-09
-1.01318e-08
-1.72878e-09
1.11786e-08
6.82009e-10
2.00322e-10
-1.09086e-10
8.49014e-09
3.00046e-09
-6.15181e-09
8.96923e-09
-5.81788e-09
-7.90221e-09
7.73796e-09
-1.86513e-10
7.74668e-09
-7.56017e-09
2.37555e-10
8.70349e-09
-8.74073e-09
-9.01902e-09
-6.28192e-11
3.17917e-09
-3.09129e-09
-3.171e-10
-1.92833e-10
2.84225e-10
1.64049e-09
5.74322e-09
-7.34055e-09
-4.31665e-11
-8.69304e-09
8.68576e-09
-4.37347e-12
1.1654e-11
8.64087e-09
-8.56228e-09
-6.91522e-11
-9.43291e-12
7.13685e-09
-6.94823e-09
1.95872e-10
-3.92262e-10
7.91386e-09
-2.55894e-09
-7.09254e-09
7.42131e-09
2.23017e-09
-5.53226e-09
1.1452e-09
6.35164e-09
-7.03699e-09
-8.0947e-11
4.95083e-09
-7.00502e-09
3.50552e-11
2.3489e-12
-4.97282e-09
-4.45341e-09
3.30518e-09
6.12105e-09
-8.76045e-09
1.07881e-08
-7.98755e-09
-6.05812e-09
6.68191e-09
7.36376e-09
-7.36267e-09
-8.55569e-10
1.18125e-09
-7.73773e-09
7.62864e-09
-1.7054e-10
7.93287e-09
-7.76233e-09
-7.20026e-09
-1.1155e-09
1.33009e-09
3.13765e-09
-7.05106e-09
-1.07096e-08
3.43679e-09
6.6693e-09
-8.61613e-09
-1.48996e-09
5.20706e-10
-8.41163e-09
-9.78886e-10
-8.43535e-09
-1.06184e-09
-7.57698e-09
-5.50899e-10
7.37314e-09
-4.97909e-11
3.27467e-10
-3.61919e-10
8.42426e-11
-1.37604e-09
1.62542e-09
-2.59031e-09
-7.2572e-09
7.16521e-09
-6.69638e-09
8.17395e-09
-2.07549e-09
5.97915e-10
6.86795e-09
8.46002e-09
-7.11617e-09
-8.2118e-09
-7.83362e-09
3.42987e-11
7.79932e-09
-6.24737e-10
-7.38449e-09
7.3152e-09
-9.5282e-09
-6.23025e-10
8.99333e-09
8.31479e-10
-3.74717e-10
1.71407e-09
9.95145e-09
-1.16655e-08
9.3597e-09
-5.91757e-09
-4.00539e-09
5.63254e-10
-2.39713e-09
-6.31309e-09
3.47161e-09
5.23861e-09
-1.0494e-08
5.6854e-09
7.06524e-09
8.28091e-09
4.85679e-10
-8.57804e-09
-1.88545e-10
1.30712e-09
2.19086e-09
-1.3496e-09
-2.14838e-09
-1.91801e-09
4.29546e-09
-3.80756e-09
1.43011e-09
-4.2589e-10
2.68321e-11
3.49267e-10
2.40691e-10
6.5332e-10
-1.58837e-10
-7.35174e-10
-9.78679e-11
-2.32516e-10
2.4134e-10
8.90443e-11
-7.40036e-09
-4.93571e-10
7.43431e-09
-7.02964e-09
-9.63565e-10
6.5926e-09
1.85849e-10
-7.73351e-11
-7.59294e-09
7.48443e-09
3.54012e-10
-7.72721e-09
7.55904e-09
-3.95954e-10
2.00525e-09
-1.97234e-09
-2.03332e-10
-2.55314e-09
4.64902e-09
4.06448e-09
-4.66736e-09
-4.04614e-09
-7.95872e-09
5.18603e-11
7.90686e-09
1.89312e-09
-1.39473e-09
-9.19326e-09
-1.71125e-09
-7.50534e-09
1.23393e-09
7.98266e-09
6.59796e-09
-2.48086e-09
2.02278e-09
-6.13989e-09
4.487e-09
-5.7896e-09
5.49259e-09
3.58362e-09
-1.00313e-09
2.91063e-09
-5.49112e-09
6.45031e-09
2.28463e-10
2.32305e-11
-2.04142e-10
-3.4785e-10
3.04989e-10
-8.60393e-11
1.289e-10
9.59528e-11
-3.96243e-10
4.3132e-10
-1.31029e-10
2.58569e-11
-1.86567e-10
-1.88696e-11
1.7958e-10
2.00218e-09
-3.14735e-09
-7.01751e-09
6.9237e-09
9.38037e-11
-2.42869e-10
8.35527e-09
1.38946e-10
2.804e-09
-3.65848e-09
4.50028e-09
-3.64579e-09
-6.0003e-09
3.15453e-10
6.22414e-09
-7.20923e-10
1.94413e-09
-2.03794e-09
-2.4632e-11
-9.14067e-09
8.6253e-09
5.40005e-10
-4.63704e-10
-3.94946e-09
-6.83436e-10
2.44329e-09
-8.2175e-11
-4.51475e-10
2.98665e-09
7.62891e-10
7.36384e-09
2.27003e-10
-3.006e-10
-7.29025e-09
5.50162e-09
2.45306e-09
-2.62979e-09
1.27369e-09
-2.12662e-09
2.16005e-09
8.53965e-09
6.23593e-10
-8.47724e-09
-6.85998e-10
4.31391e-11
-8.17551e-11
3.26246e-10
-4.12604e-10
-7.36801e-09
9.59238e-09
1.58181e-09
-9.41505e-09
-1.75914e-09
8.97713e-09
-1.67557e-09
2.03362e-09
-9.33517e-09
-2.28897e-10
8.17693e-09
-7.94803e-09
1.12709e-08
-1.3941e-08
2.67017e-09
4.77974e-10
-3.73954e-10
-2.22841e-09
-8.75458e-09
8.43677e-09
-1.97613e-10
2.3336e-09
-2.13598e-09
7.77877e-09
-7.82256e-09
5.27268e-09
-3.84961e-09
-6.60274e-09
5.17967e-09
-1.99302e-10
-5.92739e-09
6.43033e-09
-3.03628e-10
5.16104e-10
5.02101e-09
-4.84701e-09
-6.90095e-10
8.0093e-09
5.47926e-09
-5.1642e-09
-8.32437e-09
1.67565e-10
-1.9445e-10
4.34413e-10
-4.07528e-10
-1.68402e-09
1.32734e-09
-1.28479e-09
1.64147e-09
4.14508e-09
-6.3364e-09
3.012e-09
-8.2068e-10
7.01575e-09
1.62394e-09
-7.46055e-09
-1.17914e-09
3.40481e-09
-3.76698e-09
5.33601e-09
-4.97384e-09
-1.24605e-09
1.3053e-09
1.20001e-09
-1.25926e-09
-2.48927e-10
7.2669e-10
-7.89656e-09
7.4188e-09
8.77045e-09
6.33959e-09
-9.16928e-09
8.00428e-10
-8.65123e-11
7.99372e-09
2.05072e-10
-5.01026e-09
6.02479e-10
4.20271e-09
1.66517e-09
-1.31502e-09
-3.25875e-09
2.9086e-09
-4.15517e-09
-4.48187e-09
9.70188e-10
5.96384e-10
-9.5264e-09
1.00553e-08
-1.12532e-09
1.95137e-09
-2.36171e-09
-8.74193e-09
-4.61502e-10
1.05793e-10
1.29044e-10
-2.19977e-10
2.58581e-10
-1.67648e-10
-1.01569e-09
1.10302e-09
-8.73305e-11
4.54497e-10
9.92845e-12
-3.68473e-10
-1.17858e-09
8.14169e-09
1.11388e-09
4.3375e-09
-1.56395e-09
7.16012e-09
-9.93367e-09
8.57456e-09
-4.58733e-09
4.78322e-09
-4.33809e-09
4.92963e-09
3.9953e-09
7.90476e-09
-3.3255e-09
1.67155e-09
8.54331e-09
-2.90889e-09
-7.30598e-09
8.80587e-09
-9.26953e-09
1.54231e-09
-1.07865e-09
-7.07117e-09
6.50309e-09
3.96658e-09
-3.3985e-09
-1.95362e-09
7.37153e-09
5.85257e-09
-2.55494e-11
4.58157e-11
-1.39146e-10
1.1888e-10
-4.38198e-10
3.51914e-10
4.5422e-09
-4.45592e-09
-1.23892e-09
1.56577e-09
-1.04777e-09
-1.49605e-10
1.96694e-09
-1.81734e-09
-5.48957e-10
-7.84407e-09
1.00963e-09
7.38339e-09
-1.41142e-10
-7.56972e-09
-5.71786e-09
7.4559e-09
-1.22208e-09
-9.61547e-09
1.68593e-09
9.15162e-09
-2.56194e-10
2.57632e-10
-9.93059e-11
4.38076e-10
1.11695e-08
-1.16577e-08
5.01365e-11
-9.38575e-11
5.50224e-09
-3.9606e-09
-1.44778e-09
-7.09484e-09
-3.05219e-09
4.94225e-09
-8.4345e-09
6.54443e-09
4.8014e-10
-8.42071e-10
8.5376e-09
-8.17567e-09
-7.06567e-09
5.25735e-09
-3.52252e-10
1.23574e-10
-4.31895e-10
5.6603e-10
-1.28624e-09
7.35814e-11
4.93849e-10
-3.02082e-11
-9.49884e-09
2.87958e-09
9.5334e-09
4.6238e-09
-4.40111e-09
5.04999e-09
-1.18613e-10
1.69508e-09
-1.7088e-09
-4.03192e-09
9.04109e-11
4.38102e-10
-9.7193e-11
4.77703e-09
-2.70945e-09
-4.48097e-09
9.54204e-09
1.39881e-09
-2.13498e-09
7.28227e-11
-9.24867e-10
9.99188e-10
-1.47144e-10
-2.41442e-09
-3.89823e-09
4.16742e-09
-3.02048e-10
3.94064e-10
-7.9507e-09
2.4871e-09
6.91839e-09
3.59969e-09
-2.08049e-09
-6.48777e-09
-1.88876e-09
4.20929e-10
4.93186e-09
-3.46403e-09
-1.24991e-10
-1.55144e-09
1.67643e-09
-6.45836e-09
6.4657e-09
-7.77488e-09
2.14989e-09
-1.78661e-09
7.4116e-09
-7.02043e-09
-1.49756e-09
1.31773e-09
-9.48758e-09
-1.94428e-09
1.80814e-09
9.62373e-09
-2.5652e-10
1.02229e-10
-7.3096e-09
6.81354e-09
-2.56244e-10
-6.5573e-09
-2.80216e-10
-9.37296e-11
4.36582e-11
3.30288e-10
-1.12264e-09
1.03533e-09
-1.17389e-09
1.26119e-09
1.48437e-09
1.49886e-08
-6.85764e-09
-9.61536e-09
-7.11074e-09
-3.5569e-10
1.5814e-10
-3.18295e-09
6.78987e-09
6.39385e-09
5.52625e-10
-5.90447e-10
2.89676e-09
7.56827e-10
5.88846e-09
-1.71561e-09
5.24461e-09
-5.97681e-09
2.4478e-09
-2.02273e-10
-8.75717e-10
7.93056e-09
-7.91082e-09
8.55975e-10
8.49478e-09
9.66427e-10
-9.13737e-09
-3.23833e-10
-9.56102e-11
-8.45546e-09
1.40615e-10
-7.41265e-09
4.90994e-10
7.32887e-09
-4.07209e-10
2.93967e-09
-8.20501e-09
8.38379e-09
4.88787e-09
-2.94148e-09
-9.06876e-09
7.12236e-09
4.14715e-10
-1.53956e-10
1.04862e-10
6.54603e-10
3.1558e-10
1.39565e-12
-3.1759e-10
9.90139e-09
5.60898e-10
-1.26799e-09
-9.1943e-09
-3.25902e-09
7.30586e-09
-9.80038e-11
9.84665e-11
-7.18649e-11
7.14021e-11
-4.86861e-09
2.36597e-09
3.72651e-09
-1.22388e-09
-7.08001e-09
7.92739e-09
2.15309e-09
6.55166e-09
-3.1467e-09
3.05109e-09
-6.45606e-09
2.93584e-09
-5.50917e-09
-1.81929e-09
4.39261e-09
2.43137e-09
-4.97418e-09
1.1237e-08
9.27302e-09
-7.83666e-09
7.43357e-09
-5.30751e-09
4.37476e-09
-3.93586e-09
-7.95873e-12
1.67208e-11
8.8549e-09
-8.86366e-09
1.05628e-10
-9.14687e-09
-3.32758e-10
9.374e-09
5.50071e-09
-5.69694e-09
-1.37606e-09
1.57229e-09
9.10828e-10
6.87049e-11
-6.76544e-11
-2.87352e-09
2.45188e-09
5.73885e-10
-1.52239e-10
-5.25488e-09
2.57903e-09
-3.09807e-09
5.77391e-09
1.05967e-09
-1.05437e-09
1.17172e-09
-9.53928e-09
7.62248e-09
7.45079e-10
7.94655e-10
-6.77598e-09
-5.13998e-09
1.11213e-08
-5.96852e-09
-5.30451e-09
7.67564e-09
1.84491e-09
8.43372e-09
-9.03192e-09
-3.76582e-09
3.57288e-09
6.7446e-09
-1.1335e-08
1.17731e-08
3.16547e-09
4.791e-09
-5.96861e-09
-9.42866e-10
-8.83059e-09
1.10913e-09
-1.54807e-09
-4.37546e-09
-4.75334e-09
2.98233e-09
4.74162e-11
-1.73635e-11
-1.4229e-09
1.39285e-09
-1.1287e-08
-4.80441e-11
6.74254e-09
-2.78224e-09
-6.09107e-09
-1.82005e-09
-6.41518e-09
-6.26738e-09
5.91203e-09
1.56041e-10
-2.08997e-09
-8.51786e-09
1.79899e-09
-4.68529e-09
6.29274e-09
4.57385e-09
-2.10702e-10
-4.54752e-10
4.71004e-10
-7.90016e-09
6.80151e-11
7.83215e-09
2.36696e-10
-6.73894e-11
8.5177e-09
-2.07784e-09
-8.55349e-10
-5.19787e-09
3.3512e-09
-7.89931e-09
-1.70017e-09
-7.8262e-09
2.04409e-09
3.31799e-09
4.73584e-09
5.80435e-10
2.16472e-10
-9.54676e-09
-6.82e-10
1.51099e-09
8.71776e-09
-8.3065e-09
8.04267e-10
7.50224e-09
-4.70509e-09
4.783e-09
-2.66775e-09
-5.96634e-09
2.54501e-09
6.08908e-09
-3.94559e-09
5.24003e-09
-6.40251e-10
1.00594e-08
-8.57348e-09
-4.94301e-09
5.22482e-09
-2.77924e-09
2.49742e-09
9.04901e-09
-1.16291e-09
-9.83973e-09
-1.21724e-09
1.42195e-09
-8.88721e-10
8.86644e-09
-7.97772e-09
-4.919e-09
-3.13405e-09
7.38457e-09
-5.50822e-10
-8.38567e-09
2.91621e-10
9.72646e-09
-3.29904e-09
3.57851e-09
-1.00059e-08
9.28147e-09
2.46284e-10
-2.1189e-10
-1.12491e-10
3.9222e-09
-2.33102e-10
8.90635e-10
-4.57973e-09
-1.03091e-10
6.05845e-11
4.43445e-11
-4.32965e-09
-3.64561e-09
7.43048e-11
1.51617e-09
-1.54306e-09
-1.83429e-10
-1.12843e-09
1.17873e-09
-6.47201e-09
5.77364e-09
-8.79471e-10
1.57785e-09
1.06965e-09
-4.99275e-09
-2.29675e-10
4.15277e-09
-5.83647e-09
-3.51177e-09
7.11983e-09
-4.0028e-10
-8.7082e-11
-9.19087e-10
-8.1614e-09
8.20477e-09
6.44253e-09
-1.71098e-09
-5.20543e-10
1.02942e-09
-8.92189e-09
8.37794e-09
-4.85463e-10
7.78201e-09
-6.13527e-10
-7.45215e-09
2.8367e-10
-5.53208e-09
-2.92019e-09
6.86814e-09
1.58412e-09
3.40572e-09
9.04857e-09
-1.13385e-08
1.04444e-09
2.20404e-10
-1.14551e-09
-1.19334e-10
-8.3716e-09
-8.85064e-11
8.56733e-09
4.19681e-10
-4.78934e-10
-5.68787e-09
4.25652e-09
6.79814e-10
-4.32871e-10
-6.14527e-09
6.89337e-09
-3.15229e-10
-6.15045e-09
5.38257e-09
-6.29084e-09