/*--------------------------------*- C++ -*----------------------------------*\
  =========                 |
  \\      /  F ield         | OpenFOAM: The Open Source CFD Toolbox
   \\    /   O peration     | Website:  https://openfoam.org
    \\  /    A nd           | Version:  8
     \\/     M anipulation  |
\*---------------------------------------------------------------------------*/
FoamFile
{
    version     2.0;
    format      ascii;
    class       surfaceScalarField;
    location    "1";
    object      phi;
}
// * * * * * * * * * * * * * * * * * * * * * * * * * * * * * * * * * * * * * //

dimensions      [0 3 -1 0 0 0 0];

internalField   nonuniform List<scalar> 
11624
(
-7.64242e-09
7.93629e-09
-4.30081e-11
-2.50857e-10
-6.97347e-09
-1.83113e-10
-4.85836e-10
-2.11558e-09
1.51498e-10
1.86633e-09
9.77486e-11
8.58533e-09
-7.51148e-09
1.98717e-09
-3.06102e-09
-5.75292e-09
5.51438e-09
-1.45818e-10
3.84361e-10
-5.08642e-09
3.92637e-09
9.76976e-10
1.83071e-10
-1.25576e-09
-3.32432e-10
-2.96433e-09
4.55252e-09
-1.18925e-09
2.50204e-09
3.03962e-09
-4.35242e-09
2.93045e-09
-2.27127e-09
-3.2744e-09
2.61522e-09
-3.13858e-09
-1.60124e-09
2.52486e-09
2.21495e-09
4.60924e-09
-4.48856e-09
8.03974e-11
-2.01076e-10
1.90946e-09
4.69761e-09
-2.05808e-09
-4.54899e-09
-2.74174e-09
-4.17307e-09
2.33831e-09
4.5765e-09
-3.77145e-09
4.69698e-09
-9.50829e-10
2.52985e-11
-1.64782e-09
4.29039e-09
-3.78545e-09
1.14288e-09
-3.84847e-09
2.65535e-09
-2.64518e-09
3.8383e-09
4.09731e-09
-4.05025e-09
9.98923e-12
-5.70495e-11
-3.45021e-09
4.33938e-09
-9.74686e-10
8.55096e-11
-2.74187e-09
3.73409e-09
-4.37995e-09
3.38773e-09
-3.15024e-09
-1.55068e-09
1.90967e-09
2.79125e-09
3.28065e-09
-3.66958e-09
3.50954e-10
3.79725e-11
-3.5744e-09
4.36432e-09
-4.25871e-10
-3.64048e-10
4.79281e-09
-4.9257e-09
1.59765e-10
-2.68732e-11
5.83382e-09
-1.84155e-09
1.13709e-09
-5.12936e-09
4.62273e-09
-4.34187e-09
-2.3021e-10
-5.06538e-11
-4.70674e-09
1.29725e-09
4.18992e-09
-7.80427e-10
2.35444e-09
-3.83263e-09
-3.38814e-09
4.86632e-09
2.47016e-09
-2.32672e-09
-3.08026e-09
2.93682e-09
-2.76694e-09
3.44777e-09
-4.187e-09
3.50618e-09
-5.65674e-09
4.4262e-09
-3.96124e-09
5.19177e-09
4.78338e-09
-2.67183e-10
1.0654e-10
4.69732e-09
-1.47701e-10
2.4319e-10
-4.77846e-09
4.54859e-09
3.09912e-10
-8.00486e-11
-5.22607e-09
4.39665e-09
8.01749e-10
2.76749e-11
4.85728e-09
-1.24243e-10
5.03407e-11
-2.12527e-10
4.33087e-11
-4.61838e-09
5.24152e-10
-2.47645e-10
-5.5717e-10
4.69811e-09
-5.27449e-09
1.13355e-09
-3.64567e-09
3.25838e-09
-4.40961e-10
2.11819e-10
-3.85793e-09
1.74644e-09
-1.19651e-09
3.308e-09
2.57334e-09
-4.08116e-09
-2.49473e-09
4.00255e-09
-3.8161e-11
-3.50059e-11
8.00945e-09
2.52509e-10
-4.6512e-09
-5.27011e-10
5.29105e-09
-4.19914e-10
-6.03017e-09
1.15904e-09
2.00251e-09
-1.78428e-09
-2.8988e-09
2.68057e-09
-9.01368e-09
-2.43037e-10
2.28324e-09
3.13999e-09
9.10141e-10
-1.67542e-09
-2.37471e-09
8.36761e-09
-6.4903e-09
4.75453e-09
-6.63184e-09
4.18402e-09
-3.4778e-09
2.98573e-09
-3.69196e-09
-1.87889e-09
-5.18668e-10
2.81976e-10
3.94036e-09
-4.12744e-09
-4.97955e-09
5.16662e-09
1.03513e-09
-9.96371e-10
3.50883e-09
-3.54758e-09
-3.58054e-09
-1.04218e-09
4.54642e-09
7.62898e-11
3.14644e-09
4.87536e-09
-5.22162e-09
-2.80017e-09
6.65644e-10
-4.54774e-10
2.62239e-10
-4.73109e-10
1.8173e-09
-7.85407e-10
5.03582e-09
-6.06771e-09
-2.2441e-09
2.49222e-09
8.33721e-09
-5.21465e-09
1.51723e-09
-2.15839e-10
3.91327e-09
3.3488e-09
-3.62166e-09
7.81236e-10
-5.08384e-10
-3.02401e-09
3.83925e-09
2.6215e-09
-3.43674e-09
4.5349e-09
-4.1124e-09
-2.66352e-09
2.24102e-09
-6.7946e-10
1.41686e-09
-4.88891e-09
4.15151e-09
-7.0361e-09
5.95045e-09
-3.15122e-09
4.23687e-09
1.3837e-09
-6.39665e-10
-3.71494e-09
2.9709e-09
-2.24166e-10
2.44445e-10
-2.39595e-10
2.19316e-10
-1.76853e-09
4.21439e-09
-3.63511e-09
2.3606e-09
-3.92912e-09
3.44748e-09
-1.87896e-09
-4.47143e-09
4.4854e-11
3.8694e-09
2.21042e-10
2.31312e-10
-2.27857e-10
-2.24497e-10
2.8977e-09
7.01746e-09
-1.04574e-08
5.42265e-10
2.7964e-09
-2.84911e-09
-3.07354e-09
3.12625e-09
1.447e-09
4.31696e-09
-1.07295e-09
-4.691e-09
3.31803e-09
-3.21401e-09
-3.30655e-09
3.20253e-09
-1.04258e-09
7.97727e-11
1.49814e-09
-5.3534e-10
-4.60789e-09
-2.61602e-09
3.1759e-09
4.04802e-09
-2.78134e-09
-3.06764e-09
3.01598e-09
2.83299e-09
-4.72266e-09
4.60194e-09
-7.65975e-10
8.867e-10
-5.0754e-09
-7.67744e-09
5.24135e-09
-2.90078e-09
2.79261e-09
3.17694e-09
-3.06878e-09
-1.43107e-09
3.21094e-09
-4.15951e-09
2.37964e-09
-2.20081e-09
3.73209e-10
-5.18845e-09
-1.66283e-09
2.69005e-10
-4.00607e-09
-1.62156e-09
2.61164e-10
-3.91469e-09
-1.58589e-09
2.5464e-10
-3.8338e-09
-1.90516e-09
3.1489e-10
-4.54568e-09
4.91579e-09
-5.07261e-09
4.08497e-10
-2.51685e-10
-2.34903e-09
4.05095e-10
-5.75096e-09
-1.65226e-09
2.68074e-10
-4.16999e-09
-1.74365e-09
2.82622e-10
-4.33131e-09
-1.97504e-09
3.26979e-10
-4.85948e-09
-1.50613e-09
2.38197e-10
-3.7871e-09
-2.25035e-10
2.62573e-10
1.97126e-10
-2.34663e-10
5.23344e-09
5.5668e-09
-8.0988e-09
-2.70145e-09
-3.99138e-09
2.61874e-09
3.73324e-09
-5.69654e-09
-5.07725e-09
4.29169e-09
6.4821e-09
-2.33739e-10
2.45021e-10
-2.40578e-10
2.29296e-10
9.32085e-10
-9.49852e-10
3.98551e-09
-3.96774e-09
4.70869e-09
6.423e-09
-6.89821e-09
-4.23348e-09
6.31152e-09
7.77804e-09
-9.79772e-09
-4.29185e-09
-1.01439e-09
3.11702e-10
-4.15798e-09
4.86067e-09
2.46422e-09
2.60276e-09
-2.46626e-09
-2.60073e-09
-4.21082e-09
8.94358e-11
3.93326e-09
1.88123e-10
-3.66942e-09
2.20399e-09
-2.9479e-09
4.41333e-09
-3.43857e-09
-3.02021e-09
2.78936e-09
-2.5301e-09
1.99206e-09
4.73369e-09
-4.19564e-09
-2.32305e-09
2.99506e-09
-2.58479e-09
1.91278e-09
7.4077e-11
3.65299e-09
3.70244e-10
2.37181e-09
3.1684e-09
-4.64256e-09
-8.97647e-10
-3.93589e-10
1.45465e-09
-1.57555e-09
5.14489e-10
3.81955e-09
4.9424e-10
-3.58723e-09
-7.26563e-10
-1.26828e-10
-3.96976e-09
-5.21789e-10
3.27534e-09
-3.59904e-09
4.00474e-09
-3.68104e-09
-2.7107e-09
5.35527e-10
4.64519e-09
-2.47002e-09
2.4347e-09
8.5471e-09
-1.39967e-09
-9.58214e-09
3.40605e-09
7.93336e-09
-8.9047e-09
5.29101e-09
7.70445e-10
-1.14567e-09
-2.68155e-10
3.6078e-10
8.45447e-09
-3.39005e-09
-2.96869e-09
2.52612e-09
-1.09552e-09
6.77082e-10
1.40619e-09
-9.87759e-10
4.41022e-10
-8.516e-11
4.34286e-09
-4.69872e-09
-4.12254e-10
6.6925e-10
-2.21675e-09
1.95975e-09
1.38627e-09
-3.80915e-09
3.67747e-09
-1.25458e-09
1.41602e-09
-1.19834e-09
2.71278e-09
2.82015e-09
-3.08464e-09
3.25205e-09
-2.98756e-09
4.44949e-09
9.18866e-09
-2.87456e-09
-1.07636e-08
-1.98641e-09
-2.46259e-09
3.01219e-09
1.43681e-09
1.07307e-09
4.1942e-09
-2.8413e-09
-2.42597e-09
1.11504e-10
-2.06809e-10
-1.86414e-09
1.95945e-09
2.95159e-09
3.40615e-09
-3.78439e-09
4.10505e-10
-7.37421e-10
4.69732e-09
-4.37041e-09
1.06892e-10
3.03248e-09
3.96369e-10
-3.53574e-09
2.95359e-09
-2.62444e-09
-2.6522e-09
-5.96604e-09
-5.70506e-09
5.97457e-09
9.08843e-11
1.54369e-10
-5.16712e-11
-1.93582e-10
6.86836e-09
-1.13365e-09
-3.40699e-10
-5.39401e-09
-5.03285e-09
-9.87832e-10
5.83769e-10
5.43691e-09
3.65848e-09
-4.74265e-09
-3.68156e-09
4.76573e-09
2.1628e-09
-4.05424e-09
-2.83123e-09
3.70761e-09
-3.91228e-09
-1.2264e-09
3.4869e-09
3.29436e-09
-3.50592e-09
4.43214e-09
-3.54581e-09
-5.82098e-09
4.93466e-09
1.72041e-09
-3.8409e-09
3.50676e-09
-4.78484e-09
-3.14773e-09
2.27583e-09
-2.15134e-09
7.73606e-10
1.46129e-09
-8.35553e-11
-3.72008e-09
-2.41558e-09
4.16456e-09
1.9711e-09
2.35122e-09
-3.19675e-09
3.41498e-09
-2.56945e-09
2.44547e-10
-2.50614e-10
2.29426e-10
-2.2336e-10
-3.99545e-09
3.96002e-09
-3.7718e-09
3.80723e-09
7.54883e-09
1.5117e-09
-2.78847e-09
-6.27206e-09
-3.15103e-09
2.30385e-09
-3.40766e-09
4.25484e-09
3.26398e-09
-7.60063e-09
9.04534e-09
3.39816e-10
-7.20631e-10
-2.4238e-09
2.80461e-09
-2.21421e-10
3.93813e-09
-3.89313e-09
1.76417e-10
5.22028e-09
-4.22907e-09
-7.17309e-10
-2.73904e-10
-1.5712e-09
-3.93742e-09
2.02024e-09
3.48837e-09
-6.61125e-09
-5.92655e-10
7.20391e-09
-1.62122e-09
2.77772e-10
1.48602e-09
-1.42564e-10
-6.68681e-10
-3.67545e-09
6.00965e-10
3.74316e-09
-4.24676e-09
-4.15569e-09
4.45317e-09
3.94927e-09
-4.20726e-09
-4.39888e-09
2.84201e-09
5.76412e-09
5.40407e-09
-6.61925e-09
7.89617e-09
-6.681e-09
9.76731e-10
-4.25528e-09
4.21064e-09
4.60517e-09
-3.78482e-09
3.87776e-09
-2.41921e-10
-2.27228e-10
2.38053e-10
2.31096e-10
-4.19293e-09
3.96407e-09
2.41331e-10
-1.24683e-11
4.81402e-09
-4.50621e-09
3.82987e-10
-6.90794e-10
4.91002e-09
-4.58598e-09
4.43303e-10
-7.67346e-10
4.71736e-09
-4.4148e-09
3.74284e-10
-6.76848e-10
3.08582e-09
-3.56129e-09
-7.79748e-10
1.25521e-09
-4.53432e-09
4.55874e-09
-2.70544e-11
2.63179e-12
2.89896e-09
-3.05269e-09
3.00995e-09
-2.85622e-09
-4.7482e-10
3.93087e-09
7.72628e-10
-4.22868e-09
2.30464e-10
-2.66082e-10
2.39662e-10
-2.04044e-10
-1.44838e-08
1.58902e-08
-6.98013e-09
5.57378e-09
4.5236e-09
-4.96586e-09
-5.66493e-11
4.9891e-10
-2.7826e-09
-2.9439e-09
2.16298e-09
3.56351e-09
2.45502e-09
-2.15803e-09
3.16217e-09
-3.45916e-09
-8.09538e-09
-8.50021e-09
8.71089e-09
7.8847e-09
2.83596e-09
-3.08803e-09
7.67939e-09
-8.55545e-09
-6.7875e-09
7.66356e-09
-2.38686e-09
2.13855e-09
-2.85529e-09
3.10361e-09
-1.09582e-10
9.88565e-11
-5.63486e-09
4.66988e-09
-2.39194e-10
1.20418e-09
3.83905e-09
-2.14833e-09
1.88637e-09
-3.57709e-09
-2.63823e-09
3.86242e-09
2.2033e-09
-3.42748e-09
-3.03968e-09
-6.56935e-11
5.14778e-10
2.59059e-09
4.00827e-09
-6.66879e-10
-4.01007e-09
4.38497e-09
-4.07371e-09
-3.35615e-09
3.04488e-09
-3.94655e-09
4.40359e-09
5.19471e-11
-5.08984e-10
-4.02018e-09
4.49401e-09
5.38163e-11
-5.2764e-10
-3.23515e-09
3.99893e-09
7.08093e-10
-1.47188e-09
-2.9341e-09
3.23914e-09
-2.82045e-09
2.51542e-09
-2.6805e-10
8.07634e-09
-7.80829e-09
-3.55545e-11
-3.73885e-09
-2.75842e-10
-3.11501e-10
2.81239e-09
7.90522e-10
-3.29141e-09
2.85754e-10
-3.06633e-10
2.39681e-09
-4.45481e-10
5.92977e-10
-2.54431e-09
4.56101e-09
-2.4209e-11
2.19463e-11
4.57211e-09
-4.50498e-09
-3.47227e-12
-6.36591e-11
4.01885e-09
-3.94587e-09
-1.14226e-11
-6.15619e-11
3.72728e-09
-3.57231e-09
-4.44259e-09
4.28762e-09
2.14285e-10
-1.6636e-10
-2.14363e-10
1.66439e-10
3.63207e-09
1.24959e-09
-1.64297e-10
3.79015e-09
1.28739e-09
-1.6752e-10
3.70593e-09
1.27543e-09
-1.67347e-10
-4.47694e-09
5.40285e-09
-1.10365e-09
1.7774e-10
4.98089e-09
-4.92445e-09
-2.44703e-10
1.88266e-10
-1.27082e-09
1.33132e-09
7.75306e-10
-8.35812e-10
-2.25009e-09
-4.50804e-09
3.59258e-09
3.16555e-09
-4.96805e-09
4.42925e-09
8.44773e-10
-3.05975e-10
6.01861e-09
6.31021e-11
-1.10081e-09
3.75529e-09
4.29323e-09
-3.64463e-09
-4.40389e-09
-4.01203e-09
2.85983e-10
3.76453e-09
-3.84872e-11
4.53306e-09
-4.52346e-09
-1.27933e-11
3.19962e-12
-3.9198e-09
3.92868e-09
-3.06986e-12
-5.8138e-12
-4.00782e-09
4.0169e-09
-3.20626e-12
-5.87296e-12
-3.84131e-09
3.84996e-09
-2.95202e-12
-5.70076e-12
1.27057e-09
-2.20013e-10
3.64239e-09
3.46881e-09
-5.2289e-09
-1.8823e-09
5.00066e-09
-4.58999e-09
-2.31071e-10
-1.79593e-10
-4.35659e-09
3.86821e-09
2.65118e-09
-5.83134e-09
5.58154e-09
-2.27579e-10
4.77386e-10
-4.44167e-09
-8.7042e-10
3.46231e-10
-1.55852e-09
-8.68556e-10
1.15626e-09
4.60928e-09
-3.32891e-10
-2.57537e-10
4.85758e-09
-4.85388e-09
1.56636e-11
-1.93659e-11
-4.49091e-09
4.51465e-09
-4.04754e-11
1.67412e-11
-3.87786e-09
3.90018e-09
-1.21632e-10
9.93105e-11
-3.96523e-09
3.98757e-09
-1.24476e-10
1.02129e-10
-3.79999e-09
3.8222e-09
-1.19118e-10
9.69133e-11
3.45627e-09
-3.53734e-09
-5.91085e-10
6.72151e-10
5.5717e-09
2.42918e-10
-1.24251e-09
2.7314e-09
-3.38777e-09
3.00759e-09
-2.99895e-09
2.36225e-09
2.94055e-09
5.65842e-09
-4.78547e-09
-9.06387e-11
-7.82307e-10
4.19915e-09
2.76605e-10
-1.01949e-09
6.64125e-09
-6.58402e-09
-6.69385e-10
6.12154e-10
4.02564e-09
-4.0997e-09
-5.85307e-11
1.32583e-10
1.31301e-11
-6.08187e-11
3.39788e-09
-3.43102e-09
-1.61651e-10
1.94782e-10
3.47432e-09
-3.50743e-09
-1.67568e-10
2.00676e-10
3.32972e-09
-3.3629e-09
-1.57053e-10
1.90233e-10
4.06852e-10
5.8176e-10
-6.06122e-09
-3.982e-09
4.49181e-09
-5.74037e-10
6.42335e-11
-4.07292e-09
4.59342e-09
-5.85966e-10
6.54596e-11
-3.90192e-09
4.4018e-09
-5.62344e-10
6.24604e-11
-4.66605e-09
5.75859e-11
-1.0264e-09
4.36608e-09
-1.22798e-09
-4.08795e-09
-3.00578e-09
-2.91172e-09
3.2151e-09
2.7024e-09
4.2728e-10
-1.49255e-10
-6.15323e-10
3.37298e-10
2.91682e-09
-4.0046e-09
4.81506e-09
1.03785e-09
-1.39983e-10
3.64819e-09
-1.06179e-10
1.63921e-10
3.73069e-09
-1.08154e-10
1.67619e-10
3.57498e-09
-1.03786e-10
1.60872e-10
4.61734e-09
-7.94692e-11
2.31407e-11
-2.32395e-10
1.8368e-10
8.95442e-10
-8.55299e-11
-4.02236e-09
-1.25103e-11
-5.5111e-10
4.5279e-09
-4.51807e-09
8.26602e-12
-1.81023e-11
-3.99996e-09
2.16272e-10
-6.3111e-10
-4.08211e-09
2.20112e-10
-6.44211e-10
5.91445e-09
-5.1895e-09
1.43798e-11
-7.39327e-10
-4.52436e-09
4.53087e-09
1.19135e-11
-1.84282e-11
-5.24617e-10
1.9768e-10
-5.4614e-10
2.03915e-10
-5.35195e-10
2.01382e-10
-3.92017e-09
3.93245e-09
-1.91227e-12
-1.03742e-11
-4.00818e-09
4.02066e-09
-1.98347e-12
-1.05028e-11
-3.8416e-09
3.85367e-09
-1.84593e-12
-1.02241e-11
-5.11162e-09
5.14044e-09
-1.57588e-10
1.28769e-10
-3.74396e-09
4.01334e-09
-4.13336e-10
1.43953e-10
5.32559e-09
3.86259e-09
-5.43289e-09
2.69811e-09
3.34607e-09
-3.4645e-09
-2.57968e-09
-4.28229e-09
4.30685e-09
-2.25029e-11
-2.04908e-12
-3.73773e-10
2.35833e-09
-3.54304e-09
3.78509e-09
2.85997e-11
-2.70653e-10
4.70832e-09
-4.25577e-09
-3.85563e-11
-4.13996e-10
-3.75796e-09
3.77713e-09
-1.99678e-11
8.0022e-13
5.06981e-09
6.89775e-10
-1.78051e-10
4.08189e-09
-4.04516e-09
-1.16387e-10
7.96583e-11
4.95261e-09
-4.35737e-09
5.73466e-11
-6.52589e-10
3.02987e-09
-4.10093e-09
3.62043e-09
-2.54938e-09
-3.76479e-09
4.32487e-09
1.12106e-10
-6.72189e-10
6.17498e-09
1.93988e-09
-4.31742e-09
-3.79744e-09
-4.14554e-09
4.16917e-09
-6.88211e-12
-1.67476e-11
-4.84204e-09
4.72626e-09
-6.25894e-11
1.78369e-10
-6.85907e-10
4.02957e-09
4.9129e-10
-3.83496e-09
-9.43275e-10
5.1204e-09
-1.91613e-10
3.88411e-09
-2.91704e-09
3.18389e-09
-4.15097e-09
2.76655e-09
-4.17382e-09
3.41678e-09
-2.00951e-09
-3.72744e-09
-1.69424e-10
-5.73826e-10
4.41907e-10
3.95147e-09
4.65408e-09
-3.95115e-09
-2.79698e-11
-6.74958e-10
-5.0306e-09
4.93654e-09
-1.10102e-10
2.04158e-10
-3.06403e-10
2.47939e-10
5.84645e-11
3.27602e-09
-3.28254e-09
-8.7358e-11
9.38826e-11
4.06695e-09
-3.9179e-09
2.25309e-10
-3.74364e-10
-3.57915e-09
-3.06241e-09
2.6461e-09
5.72898e-09
-5.90914e-09
1.97547e-10
-1.73917e-11
-3.90365e-09
-8.81224e-11
4.52192e-11
-1.52248e-10
9.19345e-11
1.48582e-10
-8.8268e-11
6.16557e-09
-5.08647e-09
2.06523e-10
-1.28562e-09
4.37571e-09
1.67462e-10
-5.1753e-10
-4.50952e-09
4.89426e-09
3.48027e-12
-3.88218e-10
4.0819e-09
-6.78923e-10
-7.3256e-11
4.26265e-09
-7.08964e-10
-7.93711e-11
4.16674e-09
-6.92806e-10
-7.60488e-11
5.22817e-09
-5.34762e-09
3.95663e-10
-2.7622e-10
-4.76003e-10
9.21965e-11
-1.79102e-10
5.62908e-10
-3.96125e-09
-1.17442e-10
5.85116e-11
6.2468e-10
-1.91662e-09
-5.90471e-10
1.88241e-09
-3.1223e-09
3.62955e-09
2.97368e-10
-8.04617e-10
4.35447e-09
-1.73298e-09
-2.6215e-09
-4.27426e-10
4.22183e-09
8.16565e-10
-4.61097e-09
5.66197e-09
-5.69458e-09
8.51262e-12
2.41049e-11
-5.88049e-09
5.82445e-09
-1.23968e-10
1.80008e-10
-3.82075e-09
3.91049e-09
4.04495e-10
-4.38549e-09
-3.34483e-10
2.10456e-10
4.16157e-09
1.93722e-10
-3.91427e-09
-2.37238e-09
2.34948e-09
3.01796e-09
-5.92288e-09
-9.74666e-10
3.13523e-10
1.94614e-10
-7.35306e-11
-5.70356e-09
6.59092e-09
1.9019e-10
-1.07755e-09
3.25875e-09
-3.65388e-09
-1.02876e-10
-4.14274e-10
-3.02019e-09
4.45997e-10
4.0931e-09
1.79234e-11
-8.47988e-11
3.76623e-09
-3.76424e-09
9.65056e-12
-1.16315e-11
5.12545e-09
-3.84077e-10
-4.60285e-09
-1.38519e-10
4.33139e-09
-3.32631e-10
-3.90193e-09
-9.68322e-11
4.42179e-09
-3.38799e-10
-3.98187e-09
-1.01127e-10
4.52373e-09
-3.45613e-10
-4.07151e-09
-1.06609e-10
5.83805e-09
-4.30653e-10
-5.22494e-09
-1.82458e-10
5.61541e-09
-9.60478e-10
3.45726e-10
4.14346e-09
-4.09763e-09
-6.42703e-11
1.84438e-11
3.73347e-09
-9.73475e-11
8.57888e-10
3.65859e-09
-9.67148e-11
8.41715e-10
-1.20575e-10
2.81289e-10
-4.35365e-09
-6.97637e-09
8.54913e-10
-2.84722e-11
6.14993e-09
4.53541e-09
-3.83704e-12
1.48451e-12
-3.7669e-09
3.77457e-09
7.79325e-12
-1.54553e-11
2.80272e-09
-3.13678e-09
3.68335e-09
-3.34929e-09
4.85093e-09
-4.81124e-09
-3.39295e-11
-5.7667e-12
-4.15259e-09
-4.09707e-12
1.1144e-11
-3.69847e-10
4.13987e-09
-4.21217e-10
4.3388e-09
-4.30575e-09
-1.99949e-11
-1.30519e-11
-2.10119e-10
9.49159e-11
-2.02314e-10
4.84226e-10
-2.09163e-10
5.06589e-10
-2.05769e-10
4.94645e-10
-5.17541e-10
-3.34696e-11
4.2096e-09
-5.28654e-10
-3.42952e-11
4.29642e-09
-4.7484e-09
4.77644e-09
-1.64007e-10
1.35963e-10
5.08633e-09
4.67027e-11
-6.32173e-11
4.59557e-11
-1.51571e-10
-3.78751e-09
3.53428e-10
7.14997e-10
-4.15345e-09
-1.76198e-11
6.28034e-10
8.53509e-10
-2.83325e-10
9.12425e-10
1.26471e-10
9.53426e-10
1.32571e-10
9.31462e-10
1.2933e-10
3.56645e-09
-3.55139e-09
-3.4009e-09
3.11388e-09
-2.96093e-09
3.24794e-09
-6.01482e-09
-5.78128e-10
5.61365e-09
9.79299e-10
-5.0893e-09
5.11821e-09
-4.04155e-11
1.15013e-11
-1.81426e-11
9.32706e-12
-2.26098e-10
-4.45955e-09
-4.66363e-11
2.75236e-11
-4.88009e-11
2.85577e-11
-4.76224e-11
2.80065e-11
5.5474e-09
-5.54348e-09
-2.91735e-11
2.52553e-11
3.36318e-09
-3.0889e-09
-3.13417e-09
2.8599e-09
-3.79118e-09
-3.35335e-10
-5.75456e-12
4.13227e-09
-9.66167e-10
3.48932e-10
3.79026e-09
-3.11046e-09
-4.98438e-09
5.37462e-09
-7.69803e-10
3.79562e-10
4.03825e-09
-6.01499e-10
-1.60735e-10
4.20493e-09
2.69362e-11
-6.26996e-11
3.17106e-09
-3.55319e-09
-3.01877e-09
-1.01565e-10
1.41979e-10
-1.14575e-10
7.41604e-11
-3.93321e-09
3.99343e-09
-6.4456e-11
4.23645e-12
-4.02142e-09
4.08289e-09
-6.59729e-11
4.50152e-12
-3.85444e-09
3.91348e-09
-6.31338e-11
4.10022e-12
-3.38506e-09
3.92932e-09
2.82988e-09
-3.37414e-09
-3.16508e-09
-1.98851e-09
4.07034e-09
-3.89417e-11
6.22685e-10
-3.15707e-10
5.8917e-10
-2.21629e-10
3.90665e-09
7.51367e-10
-4.43638e-09
1.46832e-09
-8.82221e-11
7.99319e-10
5.2742e-10
3.82779e-09
-2.44227e-10
1.12476e-09
3.57692e-09
-1.1615e-10
8.64105e-10
-4.55152e-11
1.04581e-10
2.91731e-10
-3.50798e-10
-5.66851e-09
-5.32079e-10
-6.5631e-12
6.20716e-09
-1.2874e-10
7.79067e-11
-4.84095e-09
4.83854e-09
2.44534e-11
-2.20437e-11
4.07184e-09
-1.49271e-10
1.03004e-09
-4.27806e-10
1.40777e-10
-5.08399e-10
3.8074e-09
-4.53386e-09
1.23486e-09
-3.82018e-09
3.91922e-09
-6.72864e-10
-9.65094e-11
4.11681e-09
4.16231e-09
-5.20499e-09
4.41875e-09
-3.37607e-09
5.09224e-09
-8.20473e-10
-1.89873e-10
1.04852e-09
-1.05415e-10
5.77616e-10
-3.65144e-11
3.79429e-09
-4.96424e-09
1.95187e-09
-7.81915e-10
-2.52507e-09
-5.99301e-09
5.90791e-09
2.61017e-09
-4.51634e-09
4.50755e-09
-7.20075e-13
9.50294e-12
-5.15735e-09
1.7619e-09
5.30492e-09
1.70669e-10
-8.09956e-11
8.16282e-11
-1.71302e-10
-5.94744e-09
-2.96828e-09
6.39065e-09
-4.0173e-09
3.57957e-09
6.53027e-10
-2.15302e-10
-3.85096e-09
3.43139e-09
6.25903e-10
-2.06329e-10
-3.92939e-09
3.5012e-09
6.38708e-10
-2.10519e-10
-3.79418e-09
-1.84864e-11
-6.75894e-10
-2.45093e-09
-2.31808e-09
-2.00226e-09
-5.06417e-09
2.70984e-09
5.42322e-09
-1.34141e-09
1.14637e-09
-3.21774e-09
-3.42699e-09
3.90286e-09
1.24373e-10
2.21731e-10
-1.75435e-10
-3.77055e-09
-2.08115e-12
5.7291e-12
-1.72831e-10
-8.21158e-12
-7.55297e-09
5.89056e-09
-4.30364e-09
-3.75299e-09
4.09163e-09
-3.22639e-10
-1.59944e-11
-4.2396e-09
4.69541e-09
-4.3504e-10
-2.0769e-11
-4.17742e-09
4.35754e-09
3.47837e-09
2.72765e-09
-2.14644e-09
1.22658e-10
-2.81588e-11
1.81418e-10
2.88783e-10
-2.55916e-10
-4.95679e-09
5.57801e-09
-6.20041e-10
-1.17933e-12
4.08293e-09
-5.1832e-09
-1.0099e-10
1.84816e-10
3.19594e-09
-5.34444e-09
4.8111e-09
-2.6626e-09
-4.43703e-09
4.98973e-09
-5.50134e-10
-2.56541e-12
-6.51581e-09
6.88528e-09
-7.92243e-09
-4.27509e-12
1.0849e-11
4.82333e-09
-1.65365e-10
1.25649e-09
-1.88537e-10
-2.19155e-11
1.08371e-11
-2.47435e-12
1.11953e-11
-2.47692e-12
1.10016e-11
-2.48484e-12
-4.68249e-09
-8.37938e-10
2.94354e-10
5.87054e-10
-8.32658e-11
7.9083e-10
-8.0406e-11
-3.31988e-11
-2.32767e-10
6.00851e-12
5.55999e-12
3.37916e-09
3.17099e-09
-2.31007e-09
-4.24009e-09
-5.531e-09
6.08989e-09
-5.57834e-10
-1.06189e-12
3.81683e-09
2.23308e-09
-2.21087e-09
3.78294e-09
6.58365e-11
-6.36847e-11
4.21688e-10
2.59413e-10
-7.90191e-11
7.24702e-11
3.51227e-09
3.44497e-09
-3.16698e-09
5.34492e-12
5.70657e-12
-2.09998e-09
1.73267e-09
3.09871e-09
3.65205e-09
1.6976e-10
-3.82181e-09
-3.99116e-09
3.49726e-09
7.22878e-10
-2.28977e-10
1.67467e-11
-1.75209e-11
1.74154e-11
-1.81682e-11
1.7067e-11
-1.7829e-11
1.38468e-10
-1.87532e-10
-4.31426e-09
3.84509e-09
6.97825e-10
-2.28654e-10
-4.45118e-09
7.77076e-10
-1.76856e-10
-4.64495e-09
8.12242e-10
-1.84593e-10
-4.54247e-09
7.93599e-10
-1.80516e-10
4.1739e-09
-6.80024e-11
3.75687e-11
3.63495e-09
-7.17046e-10
-4.83204e-09
1.91414e-09
-4.81788e-09
4.29304e-09
7.7795e-10
-2.53113e-10
2.5705e-11
4.5113e-10
-2.00545e-10
-2.21731e-10
2.55916e-10
4.36175e-09
-6.14768e-11
3.85229e-11
1.0989e-09
-3.68712e-09
-9.92314e-10
6.23056e-12
6.57526e-12
7.23019e-11
-3.79042e-11
4.28653e-09
-4.69517e-09
5.75178e-10
-1.66544e-10
-8.27778e-09
4.52477e-09
7.15907e-09
4.8732e-09
-7.06346e-11
4.83684e-11
-4.38153e-09
-3.18551e-11
-2.82789e-11
-4.57722e-09
-1.97087e-10
-6.66413e-11
6.2228e-10
-2.7844e-10
6.74742e-11
-1.33176e-10
8.22488e-11
-1.6654e-10
3.75188e-09
-3.97301e-12
1.83222e-11
1.24943e-11
-1.14003e-11
8.30492e-11
-1.5833e-10
3.38168e-10
-3.34084e-10
3.51725e-09
4.65426e-09
-4.2874e-09
9.60359e-11
-1.79625e-10
1.1746e-11
4.74525e-10
-4.35305e-10
-5.09665e-11
4.85359e-11
-4.96522e-11
9.43882e-10
-2.39641e-10
5.52773e-09
1.45613e-11
5.10872e-12
4.03226e-09
-4.28642e-09
4.21417e-09
8.71847e-10
-1.96373e-10
4.94515e-09
3.38568e-10
1.58465e-09
5.73711e-10
-1.34879e-10
3.42068e-11
-6.90052e-11
-1.77348e-12
-1.35634e-11
3.02955e-09
2.74626e-09
-2.77755e-09
-2.99827e-09
-7.44605e-09
8.32996e-09
7.77239e-09
-8.6563e-09
4.28888e-10
-3.96547e-10
-2.05953e-11
8.70626e-12
1.61636e-12
-5.5156e-09
5.35973e-09
1.45801e-10
1.00705e-11
6.86145e-11
-7.18838e-11
9.76836e-10
-2.16705e-10
2.33535e-10
3.42686e-10
-3.38168e-10
-5.59101e-09
5.99031e-09
-5.59743e-10
1.60447e-10
-6.16617e-09
-1.0357e-09
1.6431e-09
5.55877e-09
1.25423e-10
-2.94278e-10
-3.95913e-09
2.48362e-09
4.07399e-09
-2.59848e-09
3.25553e-09
-1.37677e-10
9.73775e-10
-2.32752e-09
2.68765e-09
-6.35314e-09
1.94639e-09
4.6625e-09
-2.64973e-09
-3.95916e-09
-6.26242e-11
5.43812e-11
3.89574e-09
-4.22875e-09
-3.03197e-09
3.36498e-09
4.08359e-09
-1.85879e-10
4.95291e-09
-1.66356e-10
1.30334e-09
-4.56521e-09
2.78652e-09
2.86581e-09
-1.08712e-09
3.546e-09
-8.7926e-12
-2.81685e-10
3.09852e-09
-2.9922e-09
2.5138e-09
-2.62012e-09
-5.06513e-09
4.32724e-10
-9.58603e-10
3.60789e-09
-3.68852e-09
1.73858e-09
-2.64375e-10
-1.72481e-09
2.50604e-10
3.27691e-09
2.96023e-09
-2.4052e-09
-3.83194e-09
-7.1612e-09
2.70039e-09
-2.57528e-09
-4.06737e-09
-2.96423e-09
3.90135e-09
3.13025e-09
4.67929e-09
-3.43544e-09
2.13531e-09
3.83953e-09
3.53515e-09
-2.61114e-09
-2.30381e-09
1.97105e-09
5.47785e-09
4.71662e-11
-5.72105e-10
-4.02883e-09
4.781e-10
-4.40916e-09
4.11016e-11
4.31294e-09
5.51194e-11
-3.48305e-09
2.85952e-09
-2.42915e-09
2.42077e-10
-3.34903e-10
3.23922e-10
2.02299e-09
-2.87026e-09
-8.76643e-11
-4.31003e-09
3.85665e-10
4.03301e-10
-3.75448e-09
-5.65612e-09
4.78408e-09
-2.25228e-09
3.12433e-09
3.51949e-09
-3.47354e-09
-2.73701e-09
-5.90687e-09
7.06709e-09
1.5768e-09
2.30121e-09
-8.53595e-12
-3.76744e-11
4.75099e-10
-2.40974e-09
-6.10973e-09
5.67624e-09
2.84322e-09
8.2425e-10
3.49398e-09
-3.48224e-09
-8.35987e-10
-5.6882e-09
-2.58675e-09
-1.08799e-09
-7.09265e-09
5.9509e-09
2.22975e-09
-1.78326e-09
1.5705e-09
1.14952e-09
-3.79987e-09
4.97333e-09
-2.32299e-09
1.43118e-09
-1.35047e-09
-3.23095e-09
-1.79007e-11
-5.31732e-09
9.48633e-10
4.38659e-09
-4.06878e-09
5.69154e-09
-5.86951e-09
-4.44848e-09
1.74442e-09
3.85358e-09
3.90177e-09
5.35152e-09
-6.24279e-09
-3.01049e-09
5.78291e-10
-3.34127e-09
2.47429e-10
-6.60186e-10
-2.6989e-09
2.7744e-09
-3.24582e-09
3.17031e-09
2.16818e-09
-2.94372e-09
-1.68705e-09
-3.83875e-09
-2.7159e-09
4.30457e-09
-1.87333e-10
5.81128e-09
7.3805e-10
-6.362e-09
3.55139e-09
-3.60789e-09
-3.61231e-09
-3.36767e-09
3.58743e-09
-5.63893e-09
5.41916e-09
5.28362e-09
-4.10411e-09
-5.3352e-09
-3.33461e-09
3.29233e-09
3.8818e-09
-4.04156e-09
6.57963e-11
4.0709e-09
-9.51371e-11
3.22801e-09
2.57441e-10
-3.53262e-09
4.71689e-11
5.99792e-09
-2.82702e-09
-2.53219e-09
2.80332e-09
-1.82511e-09
-4.98276e-09
7.93049e-10
4.09157e-10
4.76601e-09
-1.05277e-09
5.01949e-09
-4.08829e-09
2.16192e-09
-3.09313e-09
7.49047e-11
6.26788e-12
-9.20351e-09
2.2843e-09
-1.75327e-09
8.67248e-09
-2.54649e-09
2.82502e-09
6.14749e-12
-1.05653e-09
-5.43613e-09
6.48651e-09
4.94223e-12
-4.79184e-09
-9.22173e-10
5.70908e-09
-1.57845e-13
-7.73363e-10
-4.06184e-09
4.83536e-09
4.19121e-13
-8.09158e-10
-4.23806e-09
5.0468e-09
7.80613e-14
-7.90093e-10
-4.14498e-09
4.935e-09
3.78494e-09
-3.70437e-09
8.93739e-11
-1.69938e-10
3.9494e-09
-3.86619e-09
9.41161e-11
-1.77327e-10
3.86241e-09
-3.78056e-09
9.15746e-11
-1.7342e-10
2.32301e-09
-2.33931e-09
3.66246e-09
-3.64615e-09
-2.71317e-09
-3.39264e-09
3.57362e-09
3.17763e-10
-3.53104e-09
9.09788e-11
-3.447e-09
7.85198e-10
-1.00083e-09
3.66263e-09
4.12387e-10
3.94001e-09
-3.42388e-09
3.4724e-09
-2.67111e-10
4.41844e-09
-4.37296e-09
3.30105e-09
-3.35208e-09
3.53793e-09
-6.19622e-10
-2.81332e-09
2.81418e-09
6.18759e-10
-3.7208e-09
3.88972e-09
-5.96346e-10
2.83346e-09
-5.8958e-09
7.4518e-09
-4.38946e-09
4.14964e-10
-4.90929e-09
-2.14977e-11
3.68964e-09
5.31011e-10
7.87755e-09
-7.06424e-09
-2.53103e-09
-2.58734e-09
-6.06667e-09
2.76997e-09
8.22623e-09
-1.47872e-10
-8.42233e-09
3.43978e-10
-9.01223e-10
-4.06299e-09
1.24341e-09
9.59409e-11
-1.7297e-10
-9.00231e-11
1.67052e-10
2.53452e-10
5.13518e-09
1.13611e-09
-6.52474e-09
-1.81757e-09
-2.67128e-10
2.3021e-09
-2.17402e-10
-1.86331e-09
2.81261e-09
4.48648e-09
-4.00474e-09
-3.73883e-09
-4.39137e-10
-2.91343e-12
4.18088e-09
-2.40396e-10
-3.30754e-10
3.3741e-10
-1.22164e-09
-3.88493e-09
1.29742e-09
7.00452e-09
-2.61377e-09
-6.5566e-09
2.16584e-09
5.19383e-09
2.95335e-10
-6.50063e-09
1.01147e-09
3.83933e-09
4.64427e-10
-4.30375e-09
-3.03986e-09
5.83509e-09
2.56297e-09
-5.3582e-09
-2.38294e-10
1.62121e-10
3.71133e-09
3.01891e-09
-3.25353e-09
-3.4767e-09
5.28477e-09
-7.10988e-09
-2.33953e-09
5.39616e-10
2.7316e-09
-9.31688e-10
3.94748e-09
-3.7371e-09
1.32628e-10
-3.43014e-10
-2.55442e-09
3.66345e-09
3.82577e-09
-4.93479e-09
-2.3752e-09
3.53835e-09
3.60326e-09
-4.76641e-09
-2.86445e-09
4.07287e-09
4.29819e-09
-5.50662e-09
-2.22701e-09
3.23459e-09
3.33473e-09
-4.3423e-09
2.9201e-10
-4.21522e-09
4.42839e-09
-5.05177e-10
-3.27429e-09
4.75051e-09
4.99613e-09
-6.47235e-09
3.84279e-09
5.27553e-09
-4.29744e-09
-4.82088e-09
-3.08292e-09
6.94358e-09
3.14386e-09
-4.28762e-09
4.2874e-09
-3.11362e-10
3.32217e-10
2.55927e-11
-5.00016e-09
4.96703e-09
7.53226e-12
1.5267e-09
-3.56868e-09
-1.88083e-09
3.92282e-09
6.3431e-09
-2.52425e-09
-6.43262e-09
4.23282e-09
-4.14898e-09
1.01148e-10
-1.84989e-10
2.9036e-10
5.10611e-10
-2.25258e-09
-3.1937e-09
2.98095e-09
2.46533e-09
3.69942e-09
-5.54656e-09
-3.83358e-09
5.68071e-09
-1.34794e-10
6.00783e-10
-7.33226e-12
-3.62432e-11
3.45904e-10
-3.02328e-10
-3.70457e-09
3.70507e-09
1.24089e-11
-1.29089e-11
-3.37121e-09
3.89792e-09
-4.12575e-09
5.32129e-09
2.48692e-09
-5.51678e-09
-2.29143e-09
3.35508e-09
5.809e-09
-3.0527e-09
-3.09529e-09
3.6015e-09
-4.30294e-09
-7.94803e-10
1.46836e-09
3.62939e-09
-5.50171e-09
-1.0067e-09
1.84565e-09
4.66276e-09
-4.75851e-09
-9.00836e-10
1.65203e-09
4.00732e-09
-4.91129e-09
-9.02561e-10
1.66009e-09
4.15376e-09
-6.52694e-09
-1.22381e-09
2.2156e-09
5.53516e-09
2.36453e-10
1.91317e-10
-5.94337e-09
-2.90386e-09
2.84053e-09
-3.71733e-09
3.78066e-09
-3.6162e-09
-1.28391e-09
-2.28275e-09
4.98708e-09
3.99602e-09
-6.70035e-09
3.85717e-09
-4.21545e-09
-2.85945e-09
6.06283e-10
4.17402e-10
-8.33276e-10
-1.90408e-10
3.71875e-09
4.61324e-09
-3.81265e-09
-4.17181e-09
-5.74482e-09
5.68602e-09
-3.02103e-11
8.90063e-11
5.6267e-09
-3.92611e-09
2.75258e-09
-3.8716e-09
-4.99975e-11
3.98013e-09
-5.85333e-11
3.37005e-09
-5.60299e-10
-2.91263e-09
-2.6237e-09
2.7271e-09
5.98677e-09
1.57106e-09
-3.16231e-09
-4.39552e-09
6.41221e-09
1.34865e-09
-2.66914e-09
-5.09171e-09
2.56505e-09
-5.94407e-09
2.72173e-09
-1.78483e-09
-3.21744e-09
2.28054e-09
-2.7604e-09
-3.37154e-09
3.50824e-09
-4.56025e-11
-5.89879e-09
4.48624e-09
1.45816e-09
1.45379e-09
2.78631e-10
3.91388e-09
2.6124e-10
-2.57712e-09
7.65649e-09
-4.65736e-09
-5.96741e-09
-2.52037e-09
-1.96458e-10
3.05665e-09
-9.5503e-10
1.75271e-09
5.04037e-09
-8.43679e-10
1.55714e-09
4.41198e-09
-7.48643e-10
1.38687e-09
3.8855e-09
-7.1805e-10
1.33191e-09
3.71753e-09
-7.3255e-10
1.35804e-09
3.7963e-09
-7.60712e-10
-7.41559e-10
-5.63284e-09
7.13511e-09
-2.76797e-09
2.70764e-09
2.08434e-10
-1.481e-10
-3.62809e-09
6.97702e-10
3.15216e-09
-2.2177e-10
-3.41132e-09
4.39202e-09
4.73886e-09
-5.71956e-09
-2.51411e-09
3.32557e-09
3.4965e-09
-4.30796e-09
-2.56749e-09
3.39106e-09
3.57048e-09
-4.39406e-09
-2.62798e-09
3.46373e-09
3.65433e-09
-4.49008e-09
-2.98448e-09
3.89291e-09
4.14855e-09
-5.05698e-09
3.06025e-09
2.48589e-09
-9.32894e-10
2.80719e-09
-3.60139e-09
3.89272e-09
5.61533e-09
-5.45639e-10
3.30999e-10
-5.40069e-09
4.13843e-09
1.76297e-10
-3.89976e-09
-3.74695e-09
-8.71073e-10
4.09215e-09
-5.91043e-09
-4.41868e-09
6.23696e-09
9.37907e-10
-6.43046e-09
4.27418e-10
1.40986e-09
-7.53165e-10
-5.39369e-09
4.737e-09
-1.60479e-10
-3.39144e-09
3.55192e-09
-2.62287e-09
-1.68913e-09
6.16589e-09
-5.56474e-09
-1.85721e-09
-3.01467e-09
3.49632e-09
1.37556e-09
3.40112e-09
-3.29009e-09
3.00285e-09
-5.25372e-09
7.87343e-10
4.62846e-09
-1.62082e-10
-2.43028e-09
9.82667e-10
-5.81826e-09
5.08905e-09
2.35216e-10
-1.18227e-08
-6.73274e-09
1.11094e-08
3.14318e-09
-2.79276e-09
3.50675e-09
1.08643e-09
3.20364e-09
3.42698e-09
-2.50105e-09
3.61924e-09
-4.54517e-09
3.38526e-09
1.1905e-08
-1.42198e-09
-1.38683e-08
-5.48304e-09
3.6201e-09
5.00938e-09
-1.46077e-09
1.53491e-09
3.21142e-09
-3.28557e-09
1.83398e-09
-2.95707e-09
5.5493e-09
7.77895e-10
9.69303e-10
-9.5787e-10
-7.89328e-10
-5.31627e-09
-7.83767e-09
5.57737e-09
7.57657e-09