/*--------------------------------*- C++ -*----------------------------------*\
  =========                 |
  \\      /  F ield         | OpenFOAM: The Open Source CFD Toolbox
   \\    /   O peration     | Website:  https://openfoam.org
    \\  /    A nd           | Version:  8
     \\/     M anipulation  |
\*---------------------------------------------------------------------------*/
FoamFile
{
    version     2.0;
    format      ascii;
    class       volVectorField;
    location    "1";
    object      U;
}
// * * * * * * * * * * * * * * * * * * * * * * * * * * * * * * * * * * * * * //

dimensions      [0 1 -1 0 0 0 0];

internalField   nonuniform List<vector> 
17372
(
(0.000544545 0.00100468 2.70449e-21)
(8.6237e-05 0.000218931 9.22346e-21)
(0.000734276 0.00121409 1.03088e-23)
(0.000601373 0.00111738 3.72506e-21)
(0.000116595 1.47382e-05 -5.44211e-22)
(5.35793e-05 0.000257262 -4.26756e-21)
(0.00056448 0.000909911 2.60152e-22)
(0.000231397 0.000522555 -1.03504e-21)
(0.000723576 0.00122135 -5.90078e-22)
(0.000452412 0.000631989 1.10236e-21)
(0.000755514 0.0010493 -2.71893e-21)
(0.00013144 0.000185826 2.23369e-21)
(0.00120776 7.67186e-05 3.28336e-21)
(0.000953382 6.51624e-05 2.42055e-21)
(0.000557839 0.000962631 -2.89817e-22)
(0.000494289 0.000847544 -1.23887e-21)
(0.000130386 0.000174417 -3.40522e-21)
(0.000374192 0.000163744 2.37751e-21)
(0.000969811 0.000112199 -6.95167e-24)
(0.000185506 0.000584253 0)
(0.000553098 0.000961589 -1.35859e-22)
(0.000446352 0.000974945 -4.15924e-22)
(0.000586851 0.000995535 -3.53999e-21)
(0.000204576 0.000576111 -7.12296e-21)
(0.000415924 0.000129154 -6.5964e-21)
(0.000536055 0.000963403 1.3621e-22)
(0.000585073 0.000991116 -2.18269e-24)
(0.000667467 0.00111505 1.03959e-21)
(0.000958076 -4.7344e-05 1.83228e-21)
(0.000585868 0.000991844 -1.78164e-21)
(0.0007261 0.00122331 -6.13344e-22)
(9.05108e-05 8.6175e-05 3.00551e-21)
(0.000586957 0.000993105 -2.74161e-24)
(0.000546038 0.000964846 -6.43403e-22)
(0.000169062 0.00069535 1.18975e-21)
(0.000556611 0.000959257 -1.12629e-23)
(0.000562696 0.000959053 0)
(0.000258054 0.000177292 -6.58699e-23)
(0.000553987 0.00104953 7.14759e-22)
(0.000538028 0.000882466 8.24968e-23)
(0.000584862 0.000991256 2.3171e-23)
(0.000634474 0.00115147 6.94572e-22)
(0.000631034 0.00111486 8.28651e-22)
(0.000634223 0.000574031 6.11517e-23)
(0.00052427 0.000945404 0)
(0.00058852 0.000999938 1.73858e-21)
(4.66785e-05 0.00019781 8.75166e-22)
(0.000447929 0.000842594 -2.18898e-22)
(0.000557329 0.000962427 -4.66289e-22)
(0.000589555 0.000961813 1.05394e-21)
(2.02845e-05 0.000269383 2.11559e-21)
(0.000544819 0.00096352 8.08595e-22)
(0.000573236 0.000980047 -1.02611e-23)
(0.00073333 0.00121792 1.96259e-21)
(0.000406807 0.000171538 -1.90218e-21)
(0.000215158 0.000125738 -5.9957e-22)
(0.000548208 0.000967984 -5.37387e-22)
(0.000609444 0.00116107 6.59322e-23)
(0.000729439 0.00122277 -6.75976e-22)
(0.000210423 0.000481593 -1.73389e-21)
(0.000523829 0.000971146 2.17953e-23)
(0.000469402 0.000567226 -8.97649e-22)
(0.000585152 0.000992745 1.76644e-21)
(0.000601619 0.00105026 1.462e-21)
(0.000665407 0.00112628 -2.32457e-24)
(0.000201663 0.000481042 2.14741e-21)
(0.000530057 0.000948578 -6.83575e-22)
(0.000528029 0.000927554 -9.31326e-23)
(0.000225124 0.00106475 -5.39101e-24)
(0.000268327 0.000196189 4.55104e-22)
(0.000710002 0.000413933 0)
(0.000564509 0.000967006 4.28907e-22)
(0.000645776 0.00114142 -8.08721e-22)
(0.000582912 0.000931341 2.22531e-21)
(0.000502409 0.000854392 -2.2156e-21)
(0.000560415 0.000953384 -2.4025e-21)
(0.000671368 0.00109691 -8.65314e-22)
(0.00053235 0.00095725 0)
(0.000502817 0.000998302 1.1162e-21)
(0.000573091 0.00101184 -5.96139e-21)
(1.51196e-05 0.00023393 0)
(0.000523403 0.000980073 8.50036e-22)
(0.000576442 0.00103744 -1.89481e-21)
(0.000118331 3.57754e-05 -2.90132e-21)
(1.57504e-05 0.000241439 -2.76141e-22)
(0.000542266 0.000962636 0)
(0.00058444 0.000956235 -2.15681e-21)
(0.000589447 0.00104683 -4.71801e-24)
(0.000550678 0.000963415 4.19917e-22)
(4.58531e-06 0.000432155 0)
(0.000662541 0.00118934 -2.08741e-22)
(0.000534995 0.000962597 1.75222e-22)
(0.000431391 0.000484848 0)
(0.000501484 -6.38511e-05 -2.0552e-21)
(-1.15801e-05 0.000497879 -1.3992e-21)
(0.000584482 0.000992271 1.9694e-21)
(0.00140095 0.000292339 0)
(5.04209e-05 0.000190549 4.03376e-22)
(0.000418619 0.00015933 -2.09138e-21)
(0.000223568 0.00056569 4.67359e-24)
(0.000837231 0.000272457 -1.23644e-21)
(0.000589817 0.000972988 1.84748e-21)
(0.000263811 0.000186247 -2.60007e-22)
(0.000151814 0.000381493 -2.27774e-21)
(0.000730373 0.001223 0)
(0.000539809 0.000959359 1.7518e-23)
(0.0007058 0.00123442 4.89499e-24)
(0.000931888 0.000782971 -9.74104e-21)
(0.000131783 0.000124972 0)
(0.000590348 0.000973681 -3.29277e-21)
(0.000655589 0.00146279 0)
(0.000295617 0.000293553 2.21998e-21)
(0.000591166 0.000973516 1.91904e-21)
(0.000590102 0.000971746 -2.05346e-21)
(0.000717811 0.00122261 0)
(0.000524216 0.000887429 -2.68949e-22)
(0.000591687 0.000973894 -1.95586e-21)
(0.000556938 0.000959194 -3.9916e-22)
(0.000523882 0.00103047 0)
(0.000592019 0.000974381 0)
(0.000726761 0.00122097 6.10641e-22)
(0.000591584 0.00097449 -5.00848e-22)
(0.000730007 0.00122148 6.58529e-22)
(0.000540923 0.00111297 2.54295e-22)
(0.000274937 0.000206304 -2.68658e-22)
(0.00073222 0.00122147 6.89847e-22)
(0.000732035 0.00122093 1.88849e-21)
(0.000485915 0.000523663 7.79295e-22)
(6.63136e-05 -6.89798e-06 -1.40273e-21)
(0.000593276 0.000971699 -1.01027e-21)
(0.000731173 0.00122189 -7.39621e-22)
(0.000730897 0.00122101 0)
(0.000584201 0.000992091 1.83375e-21)
(0.000589562 0.000967626 1.04672e-21)
(0.000731262 0.00122115 6.0378e-22)
(0.000484169 0.000497902 1.05786e-21)
(0.000511103 0.00113234 -1.35721e-21)
(0.000730314 0.00122112 -5.55087e-22)
(0.000527721 0.00107485 -1.37934e-21)
(0.000134385 0.00013957 -1.81377e-21)
(0.000484243 0.000603025 1.92633e-21)
(0.000729359 0.00122219 5.37679e-22)
(0.000729636 0.00121747 0)
(0.000731152 0.0012211 -7.93148e-22)
(7.09175e-05 0.000486217 1.81885e-22)
(0.000730649 0.00121912 0)
(0.000731165 0.00122212 8.66749e-24)
(0.00108112 8.28709e-05 -1.80921e-21)
(0.000716733 0.000584206 -1.84672e-21)
(0.000604166 0.00111996 -1.35942e-23)
(0.000607865 0.00108135 -3.04706e-22)
(0.000575079 0.000912472 -1.89721e-21)
(0.00043787 0.00120844 -1.80451e-23)
(0.000651758 0.00112348 7.33615e-22)
(4.17313e-05 0.000321818 1.67909e-21)
(0.000626836 0.00101836 8.11931e-22)
(0.00106736 0.00149159 1.81754e-21)
(8.32428e-05 1.97217e-05 -1.02721e-22)
(8.65852e-05 0.000498097 -3.84413e-21)
(0.000590785 0.000972998 2.28197e-21)
(0.000728881 0.00122306 -1.5429e-21)
(0.000127449 0.000141 -9.46655e-22)
(0.000610718 0.00111712 1.74524e-21)
(0.000573639 9.5561e-05 4.54189e-21)
(0.000584366 0.000992347 -2.0698e-24)
(0.000663837 0.000444026 1.81152e-21)
(0.000669193 0.00125105 -3.15378e-21)
(0.000600735 0.000228808 -2.19336e-21)
(0.000611402 0.00109286 6.07717e-22)
(0.000549453 0.000940764 -1.24459e-21)
(0.000230111 0.0007515 -1.03976e-22)
(0.000522008 0.000972437 4.14464e-22)
(0.000486986 0.000957274 4.39095e-21)
(0.000276106 0.000313495 2.1944e-21)
(0.000730395 0.00122033 -2.76186e-21)
(0.000496726 0.000983302 9.67139e-22)
(0.000669454 0.00110538 -4.52527e-22)
(0.000188667 0.00055179 2.14293e-21)
(0.000502039 0.000583169 5.60215e-22)
(0.00013362 0.000155627 -1.22808e-22)
(0.000218371 0.000695426 2.36259e-21)
(0.000615893 0.00113112 3.40912e-21)
(-1.11483e-06 0.000417547 0)
(0.000436367 0.000906993 1.25177e-22)
(0.000575765 0.000982715 -9.67034e-22)
(0.000731033 0.00122099 -4.40932e-24)
(0.000547702 0.00104373 -1.29538e-22)
(5.38549e-05 0.000140908 6.21416e-22)
(0.000256275 0.00109087 -4.9198e-23)
(4.40098e-05 2.95751e-05 7.88198e-22)
(0.000498844 0.000940799 1.42173e-22)
(0.000493349 0.000968959 -1.61642e-21)
(0.000672198 0.00105049 -6.29806e-22)
(0.000242289 0.000460298 0)
(0.000593073 0.000972576 3.04494e-21)
(5.62649e-05 0.000121551 0)
(0.000544487 0.00115129 0)
(0.000577461 0.00112633 3.71708e-22)
(0.000234089 0.000244752 -1.18772e-21)
(0.00112328 0.000782892 0)
(4.90381e-05 0.000118878 -8.42646e-22)
(0.00043242 0.000643045 -1.47192e-22)
(0.00040002 -2.70748e-05 8.86697e-25)
(0.000593845 0.00106581 -1.30287e-21)
(0.000431134 0.000784611 -3.14668e-23)
(9.72292e-05 2.35315e-05 2.15607e-21)
(0.000618038 0.00111858 0)
(0.000787452 0.000372483 3.20427e-22)
(0.000552552 0.000960855 -6.08836e-24)
(0.000721502 0.0012287 8.5685e-22)
(0.00062888 0.00111947 -1.94289e-21)
(0.000583731 0.00099156 1.86465e-21)
(0.000642042 0.00113361 -5.26988e-21)
(0.000629748 0.00112211 1.86547e-21)
(5.90881e-05 0.000164075 0)
(0.000518264 0.000980448 0)
(0.000583195 0.000968019 2.50993e-21)
(0.000530393 0.000869008 4.37896e-21)
(0.000869521 0.000243193 1.26264e-21)
(0.000436641 0.00117973 -2.19112e-22)
(0.000553782 0.00104252 -9.90611e-22)
(0.000191487 0.000537772 0)
(5.90811e-05 0.000131949 2.10192e-22)
(0.000949233 0.000145771 -6.674e-21)
(0.000726188 0.00122484 -8.23571e-22)
(0.000400192 5.04893e-06 5.46428e-21)
(0.000597984 0.00102472 8.24843e-23)
(0.000271454 0.000724518 6.72237e-21)
(-0.000498798 0.000371073 -3.31886e-23)
(0.000593029 0.000974313 0)
(0.000254019 0.000168524 5.52517e-22)
(0.000612386 0.00112512 2.55979e-21)
(0.000461618 0.00045573 -3.16729e-21)
(0.000629548 0.00112504 2.57025e-21)
(0.000634382 0.00111829 5.24472e-21)
(0.0009774 -3.7108e-05 2.73453e-22)
(0.000388704 0.00052253 -1.73809e-21)
(0.000533532 0.000942353 0)
(0.000207801 0.000945289 1.20153e-23)
(0.000509525 0.000961079 -1.43041e-21)
(0.000597621 0.000968127 -9.15264e-22)
(0.000607748 0.00113429 2.08336e-21)
(8.80136e-05 2.14962e-05 0)
(0.000446433 0.000204797 2.31113e-21)
(0.000851846 0.00053888 2.31177e-21)
(0.000580542 0.000993623 0)
(0.000934881 9.25037e-05 -2.0188e-21)
(0.000573828 0.000981543 -1.02772e-21)
(0.000446519 0.000882382 6.81501e-23)
(6.71158e-05 1.38452e-05 -4.23409e-22)
(7.36662e-05 8.91906e-07 5.17295e-21)
(0.000623725 0.00105922 -1.30998e-21)
(0.000220849 0.000943459 2.24671e-24)
(0.000530877 0.000952081 4.53424e-22)
(7.52121e-05 1.60522e-05 2.86912e-21)
(0.000550463 0.00108844 -9.04603e-25)
(0.000732392 0.00122149 2.21591e-21)
(4.01788e-05 0.00021074 -5.04031e-22)
(0.000649067 0.00111083 -4.92778e-22)
(0.000584581 0.000132846 2.22837e-22)
(0.000616254 0.00122524 2.20127e-22)
(0.000645138 0.00115403 -6.92432e-24)
(0.000574466 0.00013513 -2.60216e-21)
(0.000385124 4.45902e-07 -6.85517e-21)
(6.95188e-05 6.525e-07 2.06621e-21)
(0.000184562 0.000149931 -9.74463e-22)
(0.000721041 0.00127657 -2.20885e-21)
(0.000359756 0.000270431 7.56949e-21)
(0.000544872 0.000999467 0)
(4.77086e-05 0.000103139 -1.02061e-21)
(0.000572503 0.00094611 -3.30487e-21)
(0.000583456 0.000991078 -2.21932e-23)
(5.98307e-05 0.000490278 1.10566e-20)
(0.00115489 -0.000192455 -4.67645e-22)
(0.000636013 0.000103503 0)
(0.000516109 0.000981041 0)
(0.000593007 0.000973449 -1.48999e-21)
(0.00107535 -3.9644e-05 -9.40494e-22)
(0.000603765 2.18995e-06 1.70754e-21)
(0.000390453 0.000537365 4.84148e-22)
(0.000632742 7.09522e-05 0)
(5.77931e-05 6.96474e-05 -3.85784e-21)
(0.000562668 0.00105948 0)
(4.47622e-05 9.39088e-05 1.5735e-21)
(0.000583708 0.000992273 -1.91854e-21)
(0.00125525 0.00111115 -5.39154e-21)
(0.000598131 0.00107982 0)
(0.000541519 0.0009491 1.78795e-24)
(0.000560611 0.000995423 0)
(0.000332588 0.000448132 0)
(0.000465894 0.000794718 0)
(0.000847981 0.000556377 -1.81747e-21)
(0.000595249 0.00097173 -1.31484e-21)
(0.000524131 0.000943488 -2.59612e-22)
(0.000331975 0.000457644 4.81919e-21)
(0.000668187 0.00110076 -4.21745e-22)
(0.000564522 0.00096066 1.59469e-21)
(0.000861683 0.000190057 -1.89665e-25)
(0.000467571 0.000983363 1.45571e-21)
(0.000654781 0.00118214 -2.35603e-24)
(0.000509599 0.00110817 -5.08536e-24)
(4.13167e-05 8.43076e-05 1.74171e-21)
(0.00070951 0.00124758 -4.87381e-22)
(4.55802e-05 0.000114403 8.85911e-22)
(5.0303e-05 -2.45434e-06 2.32474e-21)
(0.000675774 0.000608444 -5.56386e-22)
(0.000749729 0.00105773 -2.38714e-21)
(0.000648526 0.00103132 0)
(0.000515958 0.000696941 0)
(0.000310404 0.000255681 2.36236e-21)
(0.000555718 0.000974769 7.82996e-24)
(0.000925621 9.53268e-05 9.45786e-21)
(0.000635954 0.00112396 1.82689e-21)
(3.80207e-05 7.51659e-05 1.19291e-22)
(0.000273167 0.000569367 -2.12824e-21)
(0.000200045 0.000565462 1.62565e-21)
(0.000579884 0.000991659 -2.16737e-21)
(0.000208427 0.000326158 -7.86864e-23)
(0.00044971 -7.92242e-05 -4.4158e-21)
(0.000561927 0.000934241 -3.55713e-22)
(0.000114271 0.0012331 -2.40776e-22)
(0.000852704 0.000386029 0)
(0.000730181 0.00122108 0)
(0.00107889 7.27205e-05 2.55444e-22)
(0.000621658 0.00101844 0)
(0.000230913 7.31814e-05 1.28809e-21)
(3.10564e-05 0.000482027 0)
(3.44184e-05 6.75185e-05 9.77547e-23)
(0.000404012 0.000323967 1.43381e-21)
(0.000557159 0.00104519 0)
(0.000725318 0.00122544 0)
(0.000910609 0.000746417 -1.03914e-23)
(0.000174345 0.000112207 7.12034e-22)
(0.00068975 0.00106506 -1.95626e-22)
(0.000726633 0.00121694 -1.88488e-21)
(0.000724335 0.0012239 0)
(3.1808e-05 6.00361e-05 -8.35266e-22)
(0.00064722 0.00113976 8.6368e-22)
(0.000733095 0.00122077 -9.29675e-22)
(0.000702876 0.000129627 0)
(0.000733561 0.00121778 9.20077e-22)
(0.000267544 0.00031492 5.7182e-21)
(0.000480484 0.000702725 -2.49854e-21)
(0.000658818 0.00110888 2.80272e-21)
(0.000522929 0.00100064 -1.40969e-22)
(0.000496584 0.000990157 -8.70939e-22)
(6.01705e-05 5.21697e-05 -9.71892e-22)
(0.000511937 0.00100338 1.07668e-22)
(0.000558518 0.000998774 -9.49203e-22)
(0.000459038 0.000882735 2.67911e-21)
(2.9135e-05 5.35304e-05 8.5641e-22)
(9.39505e-05 0.000583742 -8.4659e-22)
(6.06723e-05 0.000138984 -2.17751e-21)
(0.000704717 0.00129873 -2.8176e-22)
(0.000729709 0.00122431 -8.82549e-22)
(6.71636e-05 1.71565e-05 -1.65666e-21)
(0.00017598 0.000580913 3.07606e-21)
(0.000609381 0.00113259 -2.08533e-21)
(2.66734e-05 4.76713e-05 -8.36602e-22)
(0.000720075 0.00122364 -6.89585e-22)
(0.000305212 0.000281148 2.97634e-21)
(2.155e-05 4.03688e-05 1.20132e-21)
(0.000732526 0.00122052 8.91234e-22)
(0.00073368 0.00122159 0)
(0.00073389 0.00122603 -6.95585e-22)
(2.2361e-05 3.66196e-05 -1.96786e-22)
(4.39291e-05 -8.31174e-06 4.14056e-22)
(0.000526517 0.000577958 -1.51041e-21)
(0.000731776 0.0012227 -7.91134e-22)
(0.00106543 -4.00583e-05 1.00742e-21)
(0.000417272 0.00076036 -1.84262e-21)
(0.00018327 0.000126858 -2.15236e-21)
(0.000170131 0.000118582 2.28538e-22)
(0.000971489 0.000134472 0)
(0.000706532 0.000820203 0)
(1.98967e-05 3.25818e-05 -3.93831e-22)
(0.000530887 0.00101465 -3.28092e-22)
(0.000659296 0.00106329 -1.70302e-23)
(0.0011048 5.90037e-05 -2.62398e-22)
(5.89502e-05 -3.57513e-06 0)
(5.74058e-05 0.000125899 1.56565e-21)
(0.000601007 0.000965846 -2.1504e-21)
(0.000193482 0.00057933 0)
(0.000593067 0.000973319 0)
(1.84907e-05 2.03009e-06 1.01606e-21)
(0.000529603 0.000483748 -3.3235e-21)
(0.00066432 0.00104947 1.10018e-21)
(0.000525726 0.000970072 -1.14192e-23)
(0.000375859 0.000504313 -7.34492e-26)
(0.000646131 0.000525811 -1.67529e-24)
(0.000223079 0.00045734 1.11582e-21)
(0.000107172 6.39189e-05 5.01971e-26)
(0.000583339 0.000993228 2.58526e-23)
(0.00115128 0.00101981 3.50573e-21)
(0.000118278 3.9866e-05 3.96811e-21)
(0.000516085 0.00128891 4.66621e-24)
(4.96623e-05 0.00110914 6.53572e-24)
(2.78722e-06 -3.93953e-06 0)
(5.35776e-05 -2.78264e-06 -3.44629e-21)
(0.000457266 -0.000153306 -3.89083e-21)
(0.000748668 0.00123125 8.22647e-22)
(0.000794809 -0.000319364 0)
(0.00038653 0.000462566 2.09111e-21)
(0.000579442 0.000986994 0)
(0.000656127 0.00112705 0)
(0.000672786 0.00109795 4.43815e-22)
(0.000837092 0.000368026 -2.75648e-21)
(0.000286567 0.00077975 0)
(0.000121996 0.000184403 0)
(0.000632803 0.0011363 -2.52773e-21)
(8.70788e-05 2.64957e-05 -2.10839e-22)
(0.000142359 0.000923966 -2.3913e-21)
(0.000279823 0.00109216 -2.98531e-23)
(0.000576508 0.000983699 1.93287e-21)
(0.000727565 0.0012195 -9.38968e-22)
(8.06407e-05 -1.45519e-05 0)
(0.000583061 0.000988628 -4.42395e-21)
(0.000103334 5.84101e-05 1.90072e-21)
(0.000596063 0.00117849 -5.08194e-21)
(0.000541367 0.000966359 1.19681e-21)
(0.000539174 0.00035777 2.68826e-21)
(0.00103323 -1.65706e-05 -3.47906e-21)
(0.000624709 0.00102046 -9.51773e-22)
(0.00108619 -2.33651e-05 9.84789e-22)
(0.000724712 0.00122668 8.6249e-22)
(0.000433272 0.00090611 1.93443e-21)
(4.5607e-05 0.00041108 3.15145e-21)
(0.000654623 0.00114541 -6.30396e-22)
(0.00111183 0.000649472 -1.60654e-21)
(0.000236804 0.000654255 1.31074e-21)
(0.000645419 0.000565608 3.0886e-21)
(0.000616811 0.0011013 0)
(0.000507419 0.000971658 -4.40814e-22)
(0.000750183 0.00125893 -3.25395e-23)
(0.00066592 0.00113007 4.35632e-22)
(0.00085136 0.00100932 5.31792e-21)
(0.000221394 0.000502614 0)
(0.000613187 0.00100419 0)
(0.000954739 1.01761e-05 -2.55455e-21)
(0.000247623 0.000135923 -3.10382e-21)
(0.000481256 0.000600965 -1.50608e-21)
(4.47432e-05 4.0485e-05 -9.29882e-23)
(3.37908e-05 0.000687835 2.8366e-21)
(0.00034515 0.000275074 2.49834e-21)
(4.50159e-05 -4.88131e-06 0)
(0.000127713 0.000509381 2.29324e-21)
(0.000116188 7.66604e-05 3.57892e-21)
(0.000352796 0.000922672 -2.04569e-23)
(0.000637999 0.00106198 -6.27038e-23)
(8.68495e-05 0.00044333 9.7217e-22)
(1.42222e-05 -1.51682e-06 -7.89606e-22)
(0.00037275 8.67041e-06 0)
(0.000566301 0.000926532 -5.43858e-22)
(0.000665652 0.0011019 -4.07409e-22)
(0.000566814 0.00099829 5.90071e-24)
(2.507e-05 2.38187e-08 0)
(4.74142e-05 9.96788e-05 -1.4359e-21)
(0.000262394 0.000540088 4.33231e-21)
(0.00107383 0.000584534 -2.90652e-24)
(0.000536169 0.000737665 -3.61904e-21)
(0.00018941 0.000467759 0)
(0.000714673 0.00125669 4.26401e-22)
(0.000770479 0.000421529 0)
(0.000738478 0.00122058 0)
(0.000320501 0.00102946 5.46494e-23)
(0.000571653 0.00104581 -1.41536e-21)
(0.000968149 0.000138465 4.28311e-21)
(0.000509082 0.000896255 1.60809e-21)
(0.000167048 0.000259144 -3.68011e-22)
(0.000613243 0.00104399 -1.75473e-21)
(0.000560351 0.000963659 4.4026e-22)
(0.000464607 0.000977656 2.14455e-21)
(5.71014e-07 -2.0064e-06 -4.35068e-22)
(0.000626141 0.000240156 -1.05103e-21)
(0.000105399 0.000528384 7.14251e-22)
(6.93055e-05 -0.000195864 0)
(0.0005251 0.00107429 3.42765e-22)
(0.000107658 8.55737e-05 -4.46957e-21)
(0.000546218 0.000969443 2.86783e-22)
(4.29296e-05 8.89131e-05 -1.09162e-22)
(0.000609785 0.00113316 2.36561e-23)
(0.000824114 0.0012825 1.53561e-21)
(0.000303277 0.000608351 -2.12304e-21)
(0.000584718 0.00105193 1.85889e-23)
(0.000326056 0.000401474 4.61564e-21)
(-5.69756e-06 0.000447487 -9.98781e-22)
(0.000542813 0.000955569 -5.0331e-22)
(0.000107986 0.000101782 -2.17059e-21)
(0.000345063 5.21856e-05 -2.17502e-21)
(0.000520413 0.00100992 2.64672e-22)
(0.000578455 0.000917756 -4.12932e-21)
(0.000111612 0.000582357 0)
(0.000623385 0.00114459 6.59804e-22)
(0.000731027 0.00121944 0)
(0.000491559 0.000978502 1.00727e-22)
(5.07782e-05 4.56211e-05 0)
(0.000592654 0.000972817 0)
(9.46175e-05 3.38836e-05 0)
(0.000627624 0.000264811 0)
(0.000432664 0.000556902 3.8282e-23)
(0.000583216 0.000992275 0)
(0.000521164 0.000983409 0)
(7.76344e-05 0.000103499 3.6227e-21)
(0.000451222 -0.000259826 4.31857e-21)
(3.96798e-05 7.97855e-05 -1.72106e-21)
(0.000746692 0.00125252 -6.13385e-22)
(2.47419e-06 8.16453e-06 0)
(0.000929783 0.00012261 -4.01936e-21)
(0.000541533 0.00100725 0)
(0.000698801 0.000363074 2.57262e-21)
(0.000520728 0.000951952 0)
(0.000643688 0.00113477 2.12455e-21)
(0.000614847 0.000957215 2.30191e-21)
(0.000345219 0.000511943 -5.75198e-21)
(0.00076284 0.00121707 -3.41348e-21)
(0.000612104 0.0010858 -1.61109e-22)
(-0.000407338 0.000545401 -6.43763e-21)
(0.000588978 0.00102675 -1.31019e-21)
(0.000652372 0.00112005 2.96319e-21)
(0.00065219 0.00110642 -2.13766e-21)
(8.12175e-05 -0.000215048 7.77757e-22)
(0.000785094 0.000425209 -3.07284e-22)
(0.000576982 0.000982957 0)
(3.83835e-05 7.10439e-05 2.01689e-22)
(0.000299034 0.000290011 -7.09758e-21)
(0.000105382 0.000107862 3.40075e-24)
(0.000734314 0.00121798 8.98816e-22)
(0.000563036 0.0010408 0)
(0.00071612 -0.000251079 -2.17344e-21)
(0.000509037 0.000621938 1.41822e-21)
(0.000653684 0.00110582 4.35138e-21)
(0.000435418 0.00161343 -2.72958e-23)
(0.000609263 0.000159857 1.944e-21)
(0.000641324 0.00111057 -2.99593e-21)
(0.000558828 0.00106399 -8.03763e-23)
(0.000532898 0.000925086 -1.82044e-22)
(0.000619127 0.00104186 1.92782e-21)
(3.34051e-05 6.35754e-05 -2.02972e-22)
(0.000631362 0.00112287 -9.2627e-24)
(0.000830636 0.00031049 1.99754e-21)
(0.000578385 0.00108359 5.47975e-22)
(0.000654509 0.00110412 0)
(0.000929807 8.56098e-05 -9.62381e-22)
(0.000147051 0.000431795 4.26974e-22)
(0.000849205 0.000567621 3.05233e-21)
(0.000154462 0.000245556 -1.45927e-21)
(4.45543e-05 0.000396109 -1.76472e-21)
(0.000883615 8.46655e-05 1.47448e-22)
(0.000965582 0.000171609 1.09285e-21)
(0.000654178 0.00110279 1.62001e-23)
(0.000653487 0.00110989 0)
(-6.52907e-06 0.000806523 9.22007e-22)
(8.39026e-06 2.99043e-06 1.88325e-21)
(0.000660356 0.00120292 0)
(0.000582207 0.000988711 0)
(0.00100166 2.43649e-05 -2.10581e-21)
(7.53548e-05 2.06029e-05 -5.9836e-21)
(0.0001882 0.000234169 8.11937e-22)
(3.04554e-05 5.67053e-05 -5.38254e-23)
(0.000651301 0.00110281 -2.40049e-24)
(0.000598536 0.000945424 5.98002e-22)
(0.000588808 0.000989503 0)
(0.000637566 0.000875869 1.07076e-21)
(0.000469224 0.000964228 -5.43067e-22)
(0.00048376 0.000987389 9.19154e-23)
(0.000547945 0.000485624 -4.30055e-21)
(0.000669507 0.00110013 1.2727e-23)
(2.2206e-05 -1.5027e-06 -3.5992e-21)
(0.000655355 0.00110296 -3.57876e-21)
(0.000569325 0.000969932 -3.24095e-25)
(0.000571633 0.000997998 -2.3409e-22)
(0.000611289 0.00106059 2.08234e-21)
(0.000309187 0.000458323 -3.25832e-21)
(2.12024e-06 1.55651e-05 -1.193e-22)
(0.000655176 0.00110592 1.26824e-21)
(0.000624369 0.00099301 1.76436e-21)
(2.78915e-05 5.04863e-05 8.71082e-22)
(0.000622769 0.00111893 -2.02398e-21)
(0.000601003 0.00102673 7.50356e-24)
(0.000910256 8.3529e-05 6.14751e-21)
(0.000652616 0.0011081 1.32169e-21)
(0.000569149 0.000968666 1.34223e-21)
(0.000513746 0.000985143 1.49554e-21)
(0.00137958 0.000359741 0)
(0.000515035 0.000962485 2.4278e-21)
(0.0022285 0.00055345 0)
(0.000823504 0.000709603 -2.71448e-21)
(0.000603265 0.000998739 6.45827e-22)
(0.000170052 0.00050138 -9.67222e-21)
(0.00131693 0.00136087 1.60977e-21)
(0.000454217 0.000820739 -5.15621e-21)
(0.000204916 0.000155708 4.37023e-21)
(0.000556012 8.29557e-05 0)
(0.000256429 0.000691244 7.61267e-24)
(4.41488e-05 0.00036713 0)
(0.000732793 0.00121711 -1.86914e-21)
(1.53787e-06 -1.47909e-05 1.76868e-21)
(2.56166e-05 4.5972e-05 4.29458e-22)
(0.00055414 0.00100465 3.73867e-22)
(0.00067203 0.0013016 1.4989e-22)
(0.000577593 0.000911929 -2.05571e-21)
(0.00057822 0.000981648 1.47484e-21)
(0.00101096 -0.000131184 -4.99452e-22)
(0.000753795 0.00121579 0)
(0.000680537 0.000876887 3.58517e-21)
(0.0010334 8.99993e-05 1.46598e-21)
(1.63346e-06 -9.35233e-06 -1.03384e-21)
(4.91067e-05 -5.02508e-06 -3.57349e-21)
(0.000524991 0.000972098 0)
(0.000627771 0.00114632 1.27935e-21)
(0.000622509 0.00118202 -9.6175e-24)
(0.000316623 0.000222136 2.47567e-21)
(0.00013068 0.000658416 -5.23584e-22)
(2.42979e-05 3.87389e-05 0)
(0.000887893 0.000118472 -1.01646e-21)
(0.000582241 0.000302699 -2.9565e-21)
(0.000646759 0.00110231 -2.16206e-21)
(0.000663676 0.00110035 -1.16574e-21)
(0.000609308 0.00113349 2.0484e-21)
(0.000590087 0.00107277 -1.53379e-23)
(0.000592027 0.000972903 -4.74911e-22)
(0.000758971 0.00124442 2.64558e-21)
(0.000630995 0.00103469 2.76377e-22)
(0.000577786 0.000965607 0)
(0.000702032 0.00119678 0)
(0.000602998 0.00114346 0)
(0.000264103 0.000373351 0)
(0.000534179 0.000976919 -8.56193e-22)
(0.000740935 0.000140105 -1.08474e-24)
(0.000174971 0.000534256 4.20143e-21)
(0.000483862 0.000181691 1.40346e-24)
(0.000269079 0.000520306 1.25326e-21)
(0.000447761 0.000892912 1.34162e-24)
(0.000566973 -2.14893e-05 5.82027e-21)
(0.000631801 0.00114046 -3.63694e-22)
(0.000567022 0.00103951 1.41674e-21)
(0.00054604 0.000471305 2.93492e-21)
(0.000597486 0.00102215 0)
(0.000190464 0.000582609 0)
(0.000729098 0.00122155 -1.64725e-21)
(0.000396801 0.000472187 -4.18188e-21)
(0.00105641 -0.000118216 -4.83982e-22)
(0.000446207 -0.000394784 -3.01476e-24)
(0.000618416 0.00107792 0)
(2.35423e-05 2.17281e-06 -7.84335e-22)
(0.00012834 0.000498455 1.16882e-21)
(0.000575547 0.000983318 1.78872e-21)
(0.00075747 0.00124275 0)
(0.000248748 0.00121706 -5.20741e-23)
(0.000224964 0.000255832 1.16374e-21)
(0.000440434 0.00106641 -1.42873e-21)
(0.00110634 -5.99863e-07 9.77967e-22)
(0.000429063 0.000577229 0)
(0.000631035 0.0011393 3.76038e-22)
(0.000754536 0.00124114 0)
(0.000762347 0.00124397 2.54751e-21)
(0.000514273 0.000954251 2.64359e-21)
(0.000274565 0.000519895 2.06214e-21)
(0.000588663 1.281e-05 7.19962e-21)
(0.000637319 0.00110053 2.62224e-21)
(1.34409e-06 -2.24662e-05 -1.40302e-23)
(0.000233916 0.000677335 0)
(0.000283117 0.000305298 2.23009e-21)
(0.000764649 0.00124358 -2.42017e-21)
(4.31359e-06 2.71532e-05 -3.78042e-21)
(0.000177861 0.000624274 -5.05908e-25)
(0.000730817 0.00121704 -2.90046e-21)
(0.00023913 0.00116178 0)
(0.000724755 0.00122455 -2.19119e-21)
(0.000575146 0.00100081 1.02004e-21)
(0.000567574 0.00103007 5.28856e-24)
(0.000541624 0.000959985 2.89766e-22)
(0.000551002 0.000398565 1.70362e-21)
(0.000406226 0.000832148 -1.66819e-21)
(0.000350702 0.000257114 -6.23661e-21)
(0.000626502 0.00111852 4.37766e-21)
(1.27873e-06 -2.69212e-05 -1.77134e-21)
(0.000549833 0.000958642 1.69552e-22)
(0.000740712 0.000573526 -4.22883e-21)
(0.000650618 0.00112174 -4.66825e-24)
(0.000576218 0.00100991 -4.66549e-22)
(0.000607785 0.00101573 6.28962e-22)
(1.43885e-06 -1.8483e-05 0)
(0.000773424 0.00123605 7.09963e-22)
(0.000481247 0.000972803 7.05852e-22)
(0.00104305 0.00014594 -4.19664e-21)
(0.000554326 0.000134611 -4.8431e-23)
(0.000649009 0.00114652 0)
(0.000211381 0.000900841 -3.00682e-23)
(0.000600499 0.00102259 1.07321e-21)
(0.000521374 0.000964282 0)
(0.000582644 0.000990562 2.13683e-21)
(0.000755744 0.0012383 -2.62768e-21)
(6.0667e-05 -3.40134e-07 -3.26081e-21)
(0.000143204 0.000386284 -2.85879e-21)
(0.00054451 0.00147999 3.99463e-23)
(1.23571e-05 4.38176e-05 -2.07133e-21)
(0.000364944 0.000223201 1.14987e-25)
(0.00074557 0.00126872 6.08069e-22)
(1.71343e-06 -1.12554e-05 1.4875e-21)
(0.0007318 0.00122326 0)
(0.000127685 0.000630467 0)
(1.3955e-06 -3.42008e-05 3.61656e-21)
(0.0010901 7.99045e-05 -4.50896e-22)
(0.000108433 0.000615986 2.84297e-23)
(0.000640464 0.00101623 -1.66368e-23)
(0.000384266 0.000138947 1.99525e-21)
(0.000760193 0.000805284 0)
(0.000611969 0.0011379 0)
(0.000579404 0.000976819 0)
(0.00065116 0.00112262 1.11719e-23)
(0.000479068 0.00079293 1.42437e-21)
(0.000755434 0.00123513 2.37035e-23)
(5.47143e-05 -3.27928e-07 0)
(0.000630124 0.00112084 0)
(0.000751105 0.00121338 1.19316e-21)
(0.000519138 0.0012338 -1.17711e-22)
(0.000391919 0.000838911 -4.13866e-21)
(0.000561915 0.00100272 -5.31707e-22)
(1.65089e-06 -4.29017e-05 1.82612e-21)
(0.000515495 0.000975688 9.74805e-22)
(0.000543495 0.00103397 0)
(0.000810043 0.000153945 -3.36795e-21)
(0.000318389 0.000648874 3.6499e-21)
(0.000585509 0.000959345 -8.79313e-22)
(0.000574571 0.000997749 -2.70547e-22)
(7.85546e-05 6.99302e-05 -1.81203e-21)
(0.000399186 0.000140221 0)
(0.000390514 0.00105789 -3.59406e-21)
(-0.000132704 0.00111532 -5.23875e-21)
(0.000301076 0.000485209 3.31841e-21)
(0.00054567 0.00102007 1.9218e-21)
(0.000647895 0.00112308 -2.38862e-21)
(0.000512623 0.000950083 -5.63981e-22)
(1.72255e-06 -5.32301e-05 -3.6368e-21)
(2.71559e-05 0.000374105 0)
(0.000627584 0.00116362 0)
(0.00057639 0.000909316 -2.03972e-23)
(6.39478e-05 5.1584e-05 -7.24803e-23)
(0.000729747 0.00121707 -1.00486e-21)
(0.000625945 0.00111995 -2.94692e-21)
(0.000224223 0.000501172 0)
(1.89042e-05 0.000335486 0)
(1.99973e-06 -6.14741e-05 1.43692e-23)
(0.00087247 0.00137855 -2.84074e-21)
(7.45479e-05 6.75601e-05 0)
(0.000186107 9.95803e-05 8.67574e-22)
(0.000991047 8.61352e-05 0)
(0.000158531 0.000277541 -4.70589e-21)
(0.000607473 0.00101114 -1.17607e-21)
(0.000729776 0.00122182 -5.79326e-22)
(7.41821e-05 6.57522e-05 0)
(0.000606507 0.00101672 -1.35867e-21)
(0.00026299 0.000415211 0)
(0.000171662 0.000595531 2.11658e-21)
(2.35132e-06 -7.07487e-05 1.84298e-21)
(0.000512256 0.000935195 3.01621e-21)
(0.000692697 0.00126061 2.71373e-21)
(0.00033108 4.74543e-05 -3.04024e-25)
(0.000398834 -0.000542542 0)
(0.000651854 0.00110789 0)
(0.000659203 0.00112452 1.37002e-21)
(0.000111798 0.000389087 0)
(0.000601259 0.00098757 -1.34106e-21)
(9.07408e-05 0.000388196 1.97115e-21)
(0.000582141 0.0011642 -2.58488e-22)
(0.000727231 0.00121965 -7.50035e-22)
(0.000635627 0.00112484 -1.63762e-22)
(0.000553049 0.000963756 -1.38806e-21)
(0.000558331 0.00104082 4.44326e-21)
(0.000583914 0.000664092 3.04841e-21)
(2.87972e-06 -8.74273e-05 0)
(0.000725854 0.00124981 -3.99508e-21)
(0.000543383 0.000602637 3.02335e-21)
(0.000511794 0.000986504 -9.10813e-22)
(9.90817e-05 0.000413864 1.33229e-22)
(0.000591319 0.00097297 -1.86514e-21)
(0.000362311 0.000325731 0)
(0.000579985 0.00107328 2.5496e-22)
(0.000691349 0.00108333 -1.72627e-22)
(7.51198e-05 5.31168e-05 -1.11846e-21)
(0.000504949 0.000949455 -1.16162e-21)
(0.000547549 0.000957149 2.55083e-21)
(0.000609551 0.0011335 2.04562e-21)
(0.000392519 0.000439827 0)
(0.00063657 0.00114919 2.80634e-21)
(2.37643e-05 -2.35537e-06 -1.20919e-22)
(0.000667257 0.00109972 0)
(0.000218424 0.000268469 -2.53997e-26)
(0.000705371 0.0012753 0)
(0.000736249 0.00124206 1.97215e-21)
(0.000618418 0.00105062 1.21881e-21)
(0.000246518 0.000411601 -3.91929e-21)
(0.000575077 0.000984138 -1.02803e-23)
(3.3483e-05 -0.000159136 -1.83879e-21)
(0.000561374 0.000517825 1.79781e-21)
(0.000511092 0.000883249 1.78758e-23)
(0.000143641 0.00039207 1.9896e-21)
(0.000643594 0.00102415 4.96617e-22)
(0.000268197 0.00038901 -4.10873e-21)
(2.32396e-05 -0.000117285 3.63788e-21)
(0.00144303 5.44365e-05 6.06885e-22)
(0.000715436 0.00126862 -1.43833e-23)
(2.77677e-05 -0.000136247 0)
(0.000359032 0.000471475 -2.12433e-21)
(0.000982879 0.000429152 2.88566e-22)
(0.000568008 0.000871 -3.07399e-21)
(0.00120597 0.000370568 -1.21737e-21)
(0.000471488 0.0011088 1.8788e-21)
(0.000588209 0.00107684 -1.12537e-21)
(0.000574092 0.000979816 -3.88714e-23)