/*--------------------------------*- C++ -*----------------------------------*\
  =========                 |
  \\      /  F ield         | OpenFOAM: The Open Source CFD Toolbox
   \\    /   O peration     | Website:  https://openfoam.org
    \\  /    A nd           | Version:  8
     \\/     M anipulation  |
\*---------------------------------------------------------------------------*/
FoamFile
{
    version     2.0;
    format      ascii;
    class       volVectorField;
    location    "1";
    object      U;
}
// * * * * * * * * * * * * * * * * * * * * * * * * * * * * * * * * * * * * * //

dimensions      [0 1 -1 0 0 0 0];

internalField   nonuniform List<vector> 
5756
(
(0.00323545 0.00698828 0)
(0.00487425 0.00861278 2.82431e-23)
(0.00503439 0.00880653 -2.69013e-21)
(0.00501018 0.00879104 -1.31953e-21)
(0.00505865 0.00881879 0)
(0.00497474 0.00869951 -1.34511e-21)
(0.00504422 0.00881045 2.92646e-21)
(0.00500808 0.00873007 1.45292e-21)
(0.005073 0.008826 7.90483e-23)
(0.00506492 0.00882137 0)
(0.00502711 0.00874481 7.85642e-23)
(0.00508084 0.00882975 0)
(0.00507645 0.00882695 -1.8772e-21)
(0.00503772 0.00875341 5.51556e-23)
(0.00508404 0.00883089 2.17433e-21)
(0.00486011 0.00862406 1.68608e-21)
(0.00504686 0.00875923 4.39825e-21)
(0.00508994 0.0088358 2.62435e-23)
(0.000763895 -3.06661e-05 1.96402e-20)
(0.00489904 0.00918334 -2.76602e-23)
(0.00509386 0.00883813 8.15468e-23)
(0.00505577 0.00876519 0)
(0.00509875 0.00884371 2.51741e-21)
(0.00510101 0.00884503 0)
(0.0050604 0.00877225 2.60286e-21)
(0.00510147 0.00884455 0)
(0.000651187 -4.35812e-05 2.2292e-20)
(0.000770285 -4.64616e-05 -2.96237e-20)
(0.00505923 0.00877493 2.91501e-21)
(0.00510152 0.00884587 2.67027e-21)
(0.000772438 1.32735e-05 4.79212e-21)
(0.00509871 0.00883984 -3.09371e-21)
(0.00332443 0.0056513 0)
(0.00505942 0.00877315 -3.2274e-21)
(0.0052967 0.00916971 2.91971e-21)
(0.000783055 2.6243e-05 0)
(0.000591067 1.40785e-06 -9.02367e-21)
(0.00509845 0.00884169 3.128e-21)
(0.000434666 -0.000314764 2.63071e-20)
(0.0051008 0.00883816 -6.64306e-21)
(0.000838415 4.44452e-05 -3.48359e-20)
(0.00506345 0.00877421 3.45235e-21)
(0.000756225 -2.10487e-05 6.73001e-20)
(7.10941e-05 0.000168382 -3.40938e-20)
(0.00509996 0.00883846 2.71848e-23)
(0.000543531 -4.27132e-05 8.10899e-21)
(0.000641302 0.00101972 0)
(0.00510456 0.00884412 8.02599e-21)
(0.00482931 0.00863493 2.83277e-23)
(0.00528641 0.00902417 7.77673e-21)
(0.00510849 0.00915284 1.33856e-20)
(0.00506925 0.00878088 0)
(0.00510306 0.00884343 -7.98077e-21)
(0.00510749 0.00884588 -4.22686e-21)
(0.00506517 0.00877736 -3.62688e-21)
(0.00431411 0.00883284 -1.26271e-20)
(0.00507057 0.00878247 0)
(0.000850997 0.000108173 7.12327e-21)
(0.00463506 0.00976026 2.32718e-20)
(0.000206323 -0.000232139 2.44704e-20)
(0.00506604 0.00877973 3.83158e-21)
(0.000203922 0.000627758 -1.41179e-21)
(0.000753528 6.7046e-05 -8.35857e-21)
(0.00418746 0.00904661 0)
(0.00510648 0.00884258 0)
(0.00510641 0.00884613 8.25352e-21)
(0.00206514 0.000474624 0)
(0.00466964 0.00882534 3.61435e-22)
(0.00456831 0.00799617 -1.91177e-20)
(0.00506704 0.00877959 -8.64815e-23)
(0.0012465 0.000301385 -3.32901e-20)
(0.000723826 3.80138e-05 0)
(0.0036896 0.00643584 9.00093e-22)
(0.00510078 0.00884038 0)
(0.00474919 0.00873855 5.16696e-20)
(0.00487568 0.00872041 6.95923e-22)
(0.0051073 0.00884427 4.50274e-21)
(0.00506296 0.00877747 -9.4472e-21)
(0.000124546 0.000411394 -5.60009e-20)
(0.00478395 0.00893769 0)
(0.00546882 0.00903218 4.84558e-21)
(4.15551e-05 7.21066e-05 8.60683e-21)
(0.0053129 0.00906856 -1.0672e-20)
(0.00509982 0.00883863 -4.97172e-21)
(0.00510222 0.00884122 0)
(0.00484387 0.00861941 -7.1185e-22)
(0.00506458 0.00877972 2.21381e-23)
(0.000681721 -1.36784e-05 4.42608e-21)
(2.09896e-05 -2.53657e-05 2.32455e-20)
(0.00398922 0.00622926 -3.51306e-20)
(0.0039816 0.00824244 5.1017e-23)
(0.00509902 0.00883993 5.06549e-21)
(0.00506843 0.00878099 5.19447e-21)
(0.00150109 0.0026028 5.97733e-22)
(0.00506419 0.00877494 0)
(0.00506516 0.00877798 0)
(0.00361702 0.00637928 -2.17037e-21)
(0.00507018 0.00878097 5.4339e-21)
(0.00526235 0.000652999 0)
(0.00506661 0.00878017 -5.40472e-21)
(0.00506937 0.00878061 0)
(0.00507027 0.00878032 -5.65305e-21)
(0.00507044 0.00878054 -1.13848e-20)
(0.00510157 0.00883917 3.49995e-21)
(0.000669824 2.55466e-05 -1.12069e-20)
(0.0047493 0.00897844 -1.19363e-21)
(0.00443593 0.00788547 -2.69322e-22)
(0.00506932 0.00878159 0)
(0.00506845 0.00878112 0)
(0.00470485 0.00888441 0)
(0.00510182 0.00884083 -3.79927e-21)
(0.000470209 3.69034e-05 1.16684e-20)
(0.000648085 3.6114e-05 -5.54171e-21)
(0.000751247 -0.000100213 0)
(0.00492878 0.00863812 1.7853e-20)
(7.02349e-05 1.97608e-06 -1.08748e-20)
(0.0047606 0.00938463 -2.23794e-23)
(4.94916e-05 -5.59978e-05 2.04509e-24)
(4.84879e-05 -4.28432e-06 0)
(0.00527845 0.00901231 -1.28762e-22)
(0.00458666 0.00794615 -1.83163e-20)
(0.00490112 0.00946975 0)
(5.66239e-05 -8.56062e-06 0)
(0.00346969 0.00599033 0)
(0.00504318 0.00870217 0)
(6.08004e-05 -1.66533e-05 1.18582e-20)
(0.00472589 0.00892233 2.15089e-21)
(0.00346208 0.00597896 -8.21576e-21)
(0.00441049 0.0079704 6.12283e-22)
(0.00202391 0.00355938 -9.98344e-24)
(0.0010504 0.000140403 8.85024e-21)
(4.09351e-05 -8.43415e-06 4.30492e-21)
(0.00472228 0.00853661 0)
(0.000768471 -1.38483e-05 -2.02648e-20)
(0.00521081 0.00896636 -3.70457e-23)
(0.0034273 0.00592696 4.9299e-21)
(3.8926e-05 5.2735e-05 0)
(9.0874e-05 -0.000143563 -2.74978e-20)
(0.000432769 -8.65513e-05 -6.25265e-21)
(3.55651e-05 -1.05704e-05 -5.82794e-21)
(0.00341173 0.00589876 -2.32353e-21)
(0.000713312 -4.77024e-05 0)
(0.000712003 -2.62323e-05 2.20882e-20)
(0.00527966 0.00898763 -7.21394e-23)
(0.00500684 0.00872788 1.38004e-20)
(2.59295e-05 -1.35649e-05 8.74822e-21)
(0.00485246 0.00864061 6.56047e-20)
(0.00475692 0.0085332 6.29912e-23)
(0.00340271 0.00587913 2.29746e-21)
(6.28205e-05 1.21484e-05 -1.0949e-25)
(0.000684525 3.58484e-05 1.00208e-20)
(0.00452184 0.00940824 0)
(0.00339286 0.0058608 2.14467e-21)
(0.00494582 0.00775906 -2.60201e-20)
(0.00463363 0.00824436 -7.8111e-22)
(0.000771334 0.00348875 0)
(0.00339128 0.00586061 6.16181e-21)
(8.42908e-05 2.49416e-05 0)
(0.000828081 3.69305e-05 -4.13828e-20)
(0.00503778 0.00867507 1.77965e-20)
(0.000331563 -9.79429e-05 6.6081e-20)
(0.00528244 0.00895028 1.72661e-20)
(0.00397022 0.00754537 0)
(0.000353486 0.000242283 9.19218e-21)
(0.00448944 0.00806872 -2.46309e-20)
(0.00498664 0.00925911 3.40083e-23)
(0.000345739 6.91769e-05 -1.59702e-20)
(0.000703283 -3.14497e-05 0)
(0.00446735 0.00860957 -7.36008e-22)
(0.000404378 0.000273221 -1.98258e-20)
(7.36299e-05 3.8555e-05 1.11658e-20)
(0.000312709 3.79034e-05 0)
(0.00494614 0.00855998 0)
(0.00522341 0.00895022 0)
(7.13727e-05 1.70706e-05 -5.58142e-21)
(0.000748228 1.25917e-05 4.03084e-20)
(0.00480205 0.0092007 1.61593e-22)
(0.000551905 9.94797e-06 0)
(0.00482884 0.008714 -1.01117e-21)
(0.000669194 3.7444e-05 8.30054e-20)
(0.000703045 0.000541912 2.01149e-20)
(0.000615578 0.000215513 -3.9313e-22)
(0.00527552 0.00896915 0)
(0.00507713 0.00795152 -2.75789e-23)
(0.00162143 0.000537215 1.04104e-21)
(0.000657902 1.18599e-05 -1.74864e-23)
(0.00466332 0.00826375 0)
(0.000634306 5.1257e-05 0)
(0.00452041 0.0078489 -1.11148e-20)
(9.71263e-05 6.70317e-06 1.70147e-20)
(0.0051939 0.00897178 1.80285e-20)
(0.000730237 -7.28807e-06 3.68503e-20)
(0.000700223 -2.16584e-06 3.11932e-20)
(0.000677536 -1.61044e-05 4.27351e-20)
(4.43136e-05 2.06973e-05 5.93283e-21)
(0.00473596 0.00785851 3.27636e-20)
(0.00070019 4.4637e-05 0)
(0.000266132 0.000249695 1.88062e-21)
(0.00451923 0.00784712 1.1088e-20)
(0.00503968 0.00867511 -1.80713e-20)
(0.00469234 0.008323 2.39926e-23)
(5.23135e-05 -2.10297e-05 1.72993e-20)
(5.25045e-05 -7.57967e-06 0)
(4.03005e-05 -5.65017e-05 1.73768e-20)
(0.000682959 3.90319e-05 -1.57946e-20)
(0.000332184 0.00242858 -2.96132e-22)
(5.1141e-05 1.48055e-05 5.6252e-21)
(0.000703708 4.84785e-05 -9.31411e-21)
(0.00067319 0.000260283 0)
(0.000875359 5.20335e-05 8.98177e-21)
(0.00510165 0.00883728 -5.20335e-21)
(4.93749e-05 2.85482e-05 2.96119e-25)
(0.00450699 0.00779784 6.37769e-21)
(0.00503782 0.0090264 9.74379e-22)
(8.88189e-06 -5.25654e-05 0)
(0.000394099 0.00019456 1.09503e-20)
(0.00537186 0.00823953 3.08817e-20)
(2.28525e-06 4.18949e-05 -2.23066e-20)
(0.00527395 0.00903859 1.78767e-20)
(0.000489778 -9.58225e-05 2.46319e-20)
(7.60784e-05 3.27917e-06 1.12134e-20)
(0.00494285 0.00879821 -4.78591e-22)
(0.00504003 0.00777498 3.09204e-20)
(0.00504792 0.00868253 1.76411e-20)
(6.6813e-06 -6.80067e-05 0)
(6.6216e-06 -3.38444e-05 0)
(0.00505378 0.00868213 1.72147e-20)
(0.00470098 0.00831862 -1.80297e-21)
(0.000357386 0.000323116 5.09204e-21)
(0.00047269 9.52976e-05 -5.64237e-21)
(0.000712396 3.54582e-05 -1.91799e-20)
(4.0821e-06 2.8768e-05 2.15547e-20)
(0.000399211 9.20145e-06 0)
(0.00492749 0.0085421 3.88515e-21)
(0.00450605 0.00779569 8.95777e-21)
(0.00493041 0.00854019 0)
(0.00502858 0.00907526 -4.65155e-23)
(0.000920333 6.96606e-05 1.06972e-20)
(0.00101285 3.46998e-05 1.33886e-21)
(0.000628166 0.000593884 -1.81907e-20)
(4.53456e-06 7.4264e-05 1.67159e-20)
(-1.50979e-05 0.000553456 2.44428e-20)
(0.00489831 0.00872725 2.5374e-23)
(1.44091e-05 -0.000142777 2.98505e-20)
(0.00517984 0.00897065 -1.06002e-22)
(6.47392e-06 -0.000261097 0)
(4.34079e-06 0.000117431 2.30645e-21)
(0.000773274 3.30169e-06 1.2284e-21)
(1.46852e-05 0.000149348 1.61993e-20)
(0.00068723 -9.11186e-05 0)
(0.000700326 3.44285e-05 -6.44351e-20)
(0.000358146 -2.02103e-05 0)
(7.15449e-05 0.000220069 2.31319e-20)
(1.77314e-05 0.000233515 0)
(2.91382e-05 0.000465739 -2.93775e-20)
(0.00471109 0.00831283 2.05207e-21)
(0.000249802 0.000128832 3.32231e-21)
(0.000243071 7.22053e-06 -3.40004e-20)
(3.90257e-06 5.5375e-05 0)
(-3.12778e-06 0.000337435 -3.24773e-20)
(0.000308508 0.000289216 -6.35074e-22)
(0.00493945 0.00884855 -3.3779e-22)
(1.28299e-05 -0.00010391 -9.32401e-21)
(0.00510368 0.00883684 -1.08669e-20)
(0.00073245 0.000252659 0)
(0.000807744 5.36646e-05 0)
(0.00492244 0.00872427 -9.86446e-22)
(0.000541455 1.75458e-05 0)
(1.24623e-05 -0.000195589 -1.45075e-20)
(0.000684414 1.36559e-06 0)
(0.000295815 -3.15207e-05 -6.01762e-20)
(0.00234859 0.00079078 -1.1378e-20)
(0.00501806 0.00912085 0)
(2.78731e-06 0.000175892 1.56778e-20)
(2.24969e-05 0.000284101 1.16367e-20)
(0.00472375 0.00831068 1.2374e-21)
(0.00505541 0.00867721 -1.27361e-22)
(0.000887654 3.41648e-05 -1.26354e-21)
(7.25405e-05 -1.50023e-06 0)
(0.000695621 2.00958e-05 1.91971e-20)
(0.000947159 4.17346e-05 0)
(1.90023e-05 0.000401609 6.33625e-20)
(0.000427761 7.74339e-05 -5.22772e-21)
(6.01551e-05 -2.37348e-06 0)
(0.000804643 -4.19436e-05 -3.2652e-20)
(0.00140565 0.000180522 0)
(-8.22614e-07 8.54637e-05 0)
(0.00539109 0.00821261 -2.88617e-20)
(0.00492254 0.00896424 2.47537e-22)
(0.00476645 0.00836442 -1.32889e-21)
(0.00505312 0.00866581 -7.69015e-23)
(0.00522678 0.00893002 0)
(0.000301998 0.000383743 2.22856e-20)
(0.000771509 0.000501734 -2.44242e-21)
(0.00051238 4.85318e-05 0)
(0.000234886 6.71533e-05 0)
(0.00268177 0.0096406 7.22032e-21)
(6.9889e-05 6.38574e-05 1.38953e-21)
(0.000668317 0.000868142 -6.2094e-20)
(3.71604e-05 2.51864e-05 -6.22476e-21)
(0.00481505 0.00836534 -1.97008e-21)
(0.00452881 0.00786596 0)
(0.0047617 0.00831792 -1.52626e-21)
(0.00480955 0.00838864 2.94755e-21)
(0.00501516 0.00887319 1.22134e-21)
(0.00481984 0.00840253 -2.922e-21)
(0.00483962 0.00842822 3.85063e-23)
(0.00484753 0.00843788 7.82498e-23)
(0.00485674 0.0084473 -3.27693e-21)
(0.00486253 0.00845436 1.74305e-21)
(0.00511368 0.00885346 0)
(0.00511147 0.00885805 9.02721e-23)
(0.00511112 0.00885772 -1.02079e-20)
(0.00511191 0.00885571 -1.04052e-20)
(0.00511169 0.008855 0)
(0.00511335 0.00885565 1.08105e-20)
(0.00511424 0.00885616 1.12367e-20)
(0.00511185 0.00885455 -1.21238e-20)
(0.00511144 0.0088533 -1.24798e-20)
(0.00511044 0.00885365 1.21753e-20)
(0.00511158 0.00885506 -2.67555e-20)
(0.0051119 0.00885748 1.95404e-20)
(0.00511109 0.00885801 2.04395e-20)
(0.005111 0.00885606 2.60909e-20)
(0.00511184 0.00885636 2.09158e-20)
(0.0051117 0.00885503 0)
(0.00511057 0.00885303 0)
(0.00511254 0.00885527 -1.0977e-20)
(0.00511433 0.00885606 -2.16636e-20)
(0.0051108 0.00884982 0)
(0.0051134 0.0088544 -4.14869e-23)
(0.00511346 0.00885524 -9.5464e-21)
(0.00511349 0.00885631 -8.72297e-23)
(0.00511213 0.00885134 -1.40392e-20)
(0.0051121 0.00885533 3.66541e-20)
(0.00511175 0.00885339 2.49544e-20)
(0.00511204 0.00885196 -8.48513e-23)
(0.00511058 0.00885355 3.78692e-23)
(0.00511169 0.00885432 1.34041e-20)
(0.00511122 0.00885604 -1.27227e-20)
(0.00511255 0.00885391 9.37535e-21)
(0.00511252 0.008856 0)
(0.00511435 0.00885217 -1.53327e-20)
(0.00511221 0.00885455 9.58113e-21)
(0.00511071 0.0088545 -1.38824e-20)
(0.005112 0.00885666 3.41752e-20)
(0.00511246 0.00885571 9.76698e-21)
(0.00511175 0.00885641 2.36436e-20)
(0.00511062 0.00885021 -1.3965e-20)
(0.00511174 0.00885507 2.40975e-20)
(0.00511755 0.00885237 0)
(0.00511188 0.00885038 4.13407e-23)
(0.00511372 0.00885408 -9.20327e-21)
(0.00511213 0.008852 -2.75814e-20)
(0.00512289 0.00885248 -3.17111e-20)
(0.00511216 0.00885412 1.2897e-20)
(0.00511383 0.00885203 -1.53058e-20)
(0.00511256 0.00885406 1.31307e-20)
(0.00511234 0.00885835 -9.31051e-21)
(0.00511623 0.00885224 1.55457e-20)
(0.00511236 0.00885793 2.05471e-20)
(0.00511326 0.00885645 1.14896e-20)
(0.00512084 0.00885244 1.58351e-20)
(0.00511194 0.00885762 -1.08207e-20)
(0.00511248 0.00885572 -4.47386e-23)
(0.00511181 0.00885752 1.18108e-20)
(0.00511361 0.00885556 -4.22884e-23)
(0.00511221 0.00885661 -1.20944e-20)
(0.0051151 0.00885568 -4.38406e-23)
(0.00486863 0.00846025 1.86171e-21)
(0.00511393 0.00885547 1.13107e-20)
(0.00511316 0.00885102 1.48478e-20)
(0.00513217 0.00885242 -1.61711e-20)
(0.00511065 0.00885348 0)
(0.00511423 0.00885117 -3.02155e-20)
(0.0051112 0.00885345 1.32214e-20)
(0.00514703 0.00885442 1.6421e-20)
(0.00511184 0.00885333 2.40249e-20)
(0.00531726 0.00889252 0)
(0.00511192 0.00885306 9.77732e-25)
(0.00534355 0.00891807 1.75465e-20)
(0.0051703 0.0088577 3.33703e-20)
(0.0051116 0.00885422 1.24107e-20)
(0.00505328 0.00889156 -1.16489e-21)
(0.00520518 0.00886432 -1.68646e-20)
(0.0051286 0.00885228 0)
(0.00511238 0.00885517 1.33442e-20)
(0.0051415 0.00885336 -1.63235e-20)
(0.00511092 0.00885592 -5.46417e-20)
(0.00511211 0.00885171 -2.98147e-20)
(0.00511284 0.00885163 -3.02547e-20)
(0.00511045 0.00885189 -1.38774e-20)
(0.00516131 0.00885669 0)
(0.00523207 0.008853 -1.71219e-20)
(0.0051123 0.00884887 -1.42371e-20)
(0.00506563 0.00877112 9.48106e-21)
(0.00506532 0.00877139 -2.88279e-20)
(0.0051928 0.00886105 1.69093e-20)
(0.00506511 0.00877147 -9.8427e-21)
(0.00506463 0.00877116 -9.58515e-21)
(0.00511298 0.00885027 2.89573e-20)
(0.00506463 0.00877113 -9.56382e-21)
(0.0051124 0.00884809 1.72306e-20)
(0.00506463 0.00877082 7.96519e-24)
(0.00511232 0.00885125 1.39676e-20)
(0.00487241 0.00846481 -3.75523e-21)
(0.00506633 0.00877065 -4.43728e-23)
(0.00506686 0.00877014 0)
(0.00506611 0.00876938 1.08161e-20)
(0.00536755 0.00894139 1.74862e-20)
(0.00512794 0.00884725 8.8179e-23)
(0.00513658 0.00884671 -4.24294e-23)
(0.00514207 0.00884713 1.63162e-20)
(0.0050672 0.0087687 1.12449e-20)
(0.00511642 0.00885172 -1.53621e-20)
(0.00516231 0.00884981 0)
(0.00515453 0.0088491 -4.40649e-23)
(0.00519164 0.00884905 1.68892e-20)
(0.0050659 0.00877016 -2.31351e-20)
(0.00506513 0.00877035 -4.12906e-23)
(0.00511953 0.00885113 -4.16209e-23)
(0.00506491 0.00877103 0)
(0.00518089 0.00884974 1.65893e-20)
(0.00506455 0.00877132 1.17015e-20)
(0.00506473 0.0087718 -1.19872e-20)
(0.00506557 0.00877179 2.43014e-20)
(0.00506688 0.00877171 0)
(0.00521277 0.00884886 1.6931e-20)
(0.00512469 0.00884823 4.75194e-20)
(0.00506786 0.00877137 -1.23613e-20)
(0.00506848 0.0087708 -1.23099e-20)
(0.00523032 0.00887492 0)
(0.00506828 0.00876967 1.22947e-20)
(0.00524093 0.00885756 -1.70891e-20)
(0.00506628 0.00876847 1.24916e-20)
(0.00506487 0.00876899 1.29897e-20)
(0.00506432 0.00876904 0)
(0.00506428 0.00876908 1.3292e-20)
(0.0050638 0.00876914 4.9969e-23)
(0.00506381 0.00876944 -1.34415e-20)
(0.00506434 0.0087709 9.79595e-21)
(0.00509752 0.00883665 9.25204e-21)
(0.00487738 0.00847065 0)
(0.00511358 0.00885567 -9.80819e-21)
(0.00511336 0.00885481 4.24341e-23)
(0.00511348 0.00885419 -1.88914e-20)
(0.00511311 0.00885544 0)
(0.0051123 0.00885647 1.15404e-20)
(0.00511168 0.00885572 -2.41327e-20)
(0.00511184 0.00885666 -9.02955e-25)
(0.0051124 0.00885399 -1.31556e-20)
(0.00511185 0.00885432 -1.29338e-20)
(0.00511256 0.00885121 1.48231e-20)
(0.00511371 0.00885095 0)
(0.00530618 0.00892818 -1.72141e-20)
(0.00506522 0.00877072 -1.0488e-20)
(0.00509807 0.00883665 0)
(0.00506394 0.00877 -1.36597e-20)
(0.00506694 0.0087704 9.86374e-21)
(0.00522298 0.00885005 -3.4278e-20)
(0.00509965 0.00883654 -2.03e-20)
(0.00506611 0.00876965 0)
(0.00509908 0.0088363 -9.88364e-21)
(0.00506709 0.00877087 0)
(0.00506649 0.00876852 -4.65389e-23)
(0.00509968 0.00883613 -1.08962e-20)
(0.00506644 0.00876972 0)
(0.00510067 0.00883618 8.77437e-23)
(0.00506888 0.00877107 1.41409e-20)
(0.00531128 0.00888882 1.73213e-20)
(0.00506863 0.00877037 1.36731e-20)
(0.00506859 0.00876993 -1.2347e-20)
(0.00538407 0.00896148 -1.74222e-20)
(0.00510099 0.00883655 -1.24735e-20)
(0.00506865 0.0087699 -1.40392e-20)
(0.00506688 0.00876877 1.24854e-20)
(0.00509978 0.00883462 -1.26827e-20)
(0.00506507 0.00876863 -1.30942e-20)
(0.00509762 0.0088331 -2.40348e-20)
(0.00506855 0.00877122 1.42462e-20)
(0.00534566 0.00892789 0)
(0.0050686 0.00877129 0)
(0.00506358 0.00876965 1.30536e-20)
(0.00506922 0.00877141 0)
(0.00509722 0.00883513 -8.75087e-23)
(0.00506976 0.00877183 0)
(0.00511388 0.00885369 0)
(0.00506544 0.00877053 -4.13908e-23)
(0.00509848 0.00883574 2.76497e-20)
(0.00507039 0.00877258 -3.07377e-20)
(0.00506821 0.00877124 -1.39625e-20)
(0.00510096 0.00883585 1.34762e-20)
(0.0050686 0.0087706 -3.64527e-23)
(0.00533931 0.00891522 -1.73214e-20)
(0.00510094 0.00883603 -1.35284e-20)
(0.00507179 0.0087754 0)
(0.00506882 0.00876995 -3.81322e-23)
(0.00510102 0.00883526 -2.87438e-20)
(0.00506835 0.00877052 -8.79426e-23)
(0.00510064 0.00883449 1.35264e-20)
(0.00507697 0.00877961 -1.58089e-20)
(0.00488065 0.00847438 0)
(0.00532795 0.00893145 -3.21505e-20)
(0.00532216 0.00890718 1.70231e-20)
(0.00507083 0.00877429 1.56326e-20)
(0.00510286 0.00883599 3.10042e-20)
(0.00512485 0.00884757 -1.6305e-20)
(0.00531711 0.00896568 1.6805e-20)
(0.00507432 0.00877823 3.18766e-20)
(0.00510591 0.00883914 3.15625e-20)
(0.00488416 0.00847765 -2.14639e-21)
(0.00528986 0.00899224 1.73133e-20)
(0.00528559 0.00893965 -3.48323e-20)
(0.00508252 0.0087825 4.85323e-20)
(0.00511339 0.00884374 -1.60361e-20)
(0.00512068 0.00884608 1.6029e-20)
(0.00513972 0.00885421 4.97369e-20)
(0.00529032 0.00897422 -3.48953e-20)
(0.00528963 0.00902646 0)
(0.00509401 0.00878827 -3.28729e-20)
(0.00527851 0.0089176 4.7853e-23)
(0.00525865 0.00885683 1.7212e-20)
(0.00488821 0.0084818 2.28259e-21)
(0.00526333 0.00887162 -1.74235e-20)
(0.00513396 0.00885143 0)
(0.00511245 0.00884758 -2.67035e-20)
(0.00526979 0.00890482 0)
(0.00511242 0.00885074 -8.78643e-21)
(0.005288 0.00896665 -2.03442e-23)
(0.00510651 0.00884781 9.285e-21)
(0.00510695 0.00884709 -9.68355e-21)
(0.00510946 0.00879897 1.66881e-20)
(0.00511113 0.00884802 -9.26225e-21)
(0.00527554 0.00886433 -1.72919e-20)
(0.00526039 0.00889662 -4.31266e-23)
(0.00530122 0.0088899 1.73882e-20)
(0.00510982 0.00885211 -1.06147e-20)
(0.00510994 0.00885044 -1.10516e-20)
(0.00511059 0.00885245 4.37572e-23)
(0.00497581 0.00858255 0)
(0.00534342 0.00894647 3.18044e-20)
(0.00510926 0.00885163 -1.93325e-20)
(0.00510731 0.00884753 5.8224e-24)
(0.00510743 0.00884836 -2.3011e-20)
(0.00511213 0.00884811 -1.12936e-20)
(0.00525099 0.00886367 1.73688e-20)
(0.00513882 0.00882914 1.68696e-20)
(0.00525104 0.00888935 -1.72337e-20)
(0.00510909 0.00884829 0)
(0.00511265 0.00884722 8.48489e-21)
(0.00510926 0.00885007 0)
(0.00511084 0.00884898 0)
(0.00510878 0.00884722 -1.78711e-20)
(0.00514827 0.00884205 0)
(0.00511159 0.00885026 -2.28452e-20)
(0.0051082 0.00884888 0)
(0.00511108 0.00885073 9.42203e-21)
(0.00510953 0.00884865 -9.50037e-21)
(0.00527382 0.00893968 -3.48888e-20)
(0.00520241 0.0088486 -1.68628e-20)
(0.00510984 0.00884815 5.32463e-23)
(0.00516036 0.00885625 -1.69745e-20)
(0.00511086 0.00885136 1.15943e-20)
(0.00511004 0.00884932 1.01046e-20)
(0.00524128 0.00888197 1.70502e-20)
(0.00510833 0.00884809 -9.72139e-21)
(0.00511088 0.00884826 0)
(0.00510999 0.00885034 0)
(0.00511074 0.00885135 0)
(0.00510913 0.00885087 1.17079e-20)
(0.00511609 0.0088037 1.65449e-20)
(0.005111 0.00884807 -4.90948e-23)
(0.00510827 0.00885291 2.08121e-20)
(0.00489143 0.00848427 -2.28115e-21)
(0.0051085 0.00885335 4.21607e-23)
(0.00510958 0.00885389 1.0202e-20)
(0.0051109 0.0088536 -2.1866e-20)
(0.00517554 0.00886963 1.74477e-20)
(0.00510836 0.00884878 -1.25877e-20)
(0.00510784 0.00884866 -8.06644e-23)
(0.00510567 0.00884865 -1.01193e-20)
(0.00510845 0.00884568 0)
(0.0052486 0.00891912 1.71694e-20)
(0.00510889 0.00884839 4.03075e-23)
(0.00510947 0.00884804 -2.23609e-20)
(0.00511008 0.00885015 1.17878e-20)
(0.00510926 0.00884893 1.21077e-20)
(0.00511021 0.00884833 0)
(0.00510747 0.00884667 0)
(0.00140198 0.00246014 8.97877e-21)
(0.00511059 0.0088497 0)
(0.00501627 0.00863127 -1.09388e-22)
(0.00510826 0.008846 0)
(0.00510659 0.00885204 -1.34996e-20)
(0.00511086 0.00885127 -1.25093e-20)
(0.00511136 0.00885028 2.44765e-20)
(0.0052311 0.00892935 -3.47893e-20)
(0.00140527 0.00246418 6.2357e-21)
(0.00510976 0.00884838 2.96273e-23)
(0.00523378 0.00890665 0)
(0.00510737 0.0088425 2.85996e-20)
(0.00510714 0.00885158 1.30568e-20)
(0.00521835 0.00889413 0)
(0.0051084 0.00885209 2.66514e-20)
(0.00489437 0.00848597 2.44988e-21)
(0.00510803 0.00884167 -2.89867e-20)
(0.00510622 0.00885166 0)
(0.00496934 0.00857497 0)
(0.00140616 0.00246555 1.29986e-20)
(0.00510698 0.00884787 -2.79001e-23)
(0.0051074 0.00885084 2.71369e-20)
(0.00511034 0.00885674 6.25032e-21)
(0.00510631 0.0088523 0)
(0.0051088 0.00884153 -4.92431e-23)
(0.00510803 0.00885576 7.49506e-21)
(0.00510677 0.008849 -1.37466e-20)
(0.00510834 0.00884611 -4.17769e-23)
(0.00350052 0.00604241 0)
(0.00139758 0.00245527 -1.46897e-21)
(0.00348804 0.0060212 -5.85032e-21)
(0.00349631 0.00603318 6.90303e-21)
(0.00510809 0.00885767 8.0839e-21)
(0.00140615 0.00246139 1.65075e-20)
(0.00519725 0.00889865 1.71881e-20)
(0.00521685 0.00883914 -2.09833e-23)
(0.00349612 0.00603438 2.8989e-23)
(0.00510737 0.00884631 1.38411e-20)
(0.00511168 0.0088434 1.52468e-20)
(0.00510689 0.00884949 3.05815e-23)
(0.00510775 0.00884553 1.40118e-20)
(0.00520385 0.00888333 -1.68446e-20)
(0.00515393 0.00886133 -1.64766e-20)
(0.0051079 0.00884753 -2.77034e-20)
(0.00510934 0.00884523 2.88938e-20)
(0.00521813 0.00886878 0)
(0.00510772 0.00884428 -1.40387e-20)
(0.00520389 0.00882272 3.3343e-20)
(0.00140843 0.00246503 6.2518e-21)
(0.00511117 0.00885845 0)
(0.00510956 0.00884576 -4.91835e-23)
(0.00510971 0.00884422 -4.26259e-23)
(0.00349734 0.00603649 6.26745e-21)
(0.00140882 0.00246406 8.13667e-21)
(0.00511331 0.00884353 1.49417e-20)
(0.00140601 0.002466 3.51919e-21)
(0.00511096 0.00884553 0)
(0.00489789 0.00848959 -2.39908e-21)
(0.00349886 0.0060362 0)
(0.0051124 0.00884239 1.43795e-20)
(0.00510848 0.00885521 -3.39218e-21)
(0.00510877 0.0088552 3.14562e-21)
(0.00511527 0.00884147 1.57218e-20)
(0.00519068 0.00887506 3.37007e-20)
(0.00510884 0.00885491 -3.25268e-21)
(0.00510901 0.00885513 -3.17414e-21)
(0.00510909 0.00884065 -1.52584e-20)
(0.00516085 0.00882857 -3.25967e-20)
(0.00511175 0.00885796 -3.08049e-21)
(0.00510833 0.00885518 -3.57671e-21)
(0.00511159 0.00885575 6.11068e-21)
(0.00511547 0.00885846 4.3059e-21)
(0.00516269 0.00886666 9.49251e-23)
(0.00350082 0.00604125 7.61666e-21)
(0.00500276 0.00862162 -1.71481e-20)
(0.00510837 0.00885485 3.45543e-21)
(0.00510613 0.00884967 0)
(0.00511214 0.00884245 2.80184e-20)
(0.00511242 0.0088429 3.1072e-20)
(0.00514055 0.00883575 -1.60091e-20)
(0.0051079 0.00885707 3.85802e-21)
(0.0051074 0.00885495 -3.95223e-21)
(0.00517915 0.0088691 -1.67919e-20)
(0.00140957 0.00246986 -5.18892e-21)
(0.00517237 0.00887423 5.30523e-23)
(0.00515309 0.00883087 3.53364e-23)
(0.00349434 0.0060309 0)
(0.00498071 0.00859111 0)
(0.00349668 0.00603206 1.49691e-20)
(0.00511668 0.00884117 0)
(0.00512537 0.00883052 0)
(0.00513042 0.00881815 -3.42643e-20)
(0.0051052 0.00884438 -5.87693e-21)
(0.00510586 0.00884664 -5.91906e-21)
(0.00140934 0.00246572 3.52303e-21)
(0.00453004 0.00786708 8.84182e-21)
(0.00514623 0.00883331 5.13426e-23)
(0.00510757 0.00885477 -4.099e-21)
(0.00510788 0.00884847 5.67653e-21)
(0.00510964 0.0088582 0)
(0.00349844 0.00603621 0)
(0.00511246 0.00885088 -7.55197e-21)
(0.0035019 0.00604205 0)
(0.00513514 0.00883855 5.2736e-23)
(0.00517852 0.00882479 -3.29482e-20)
(0.00499338 0.00861237 1.70637e-20)
(0.00511264 0.00885316 -5.51613e-23)
(0.0051302 0.00884132 -1.60151e-20)
(0.00510524 0.00884478 -5.86828e-21)
(0.00510813 0.00884599 -2.78002e-20)
(0.00513073 0.00880991 0)
(0.00516907 0.0088651 -4.72157e-23)
(0.0051179 0.00883922 -1.55587e-20)
(0.00498598 0.0086016 -1.71703e-20)
(0.00349567 0.00602907 -3.87896e-21)
(0.00510964 0.00884947 -1.62654e-20)
(0.00511342 0.00885843 4.78659e-21)
(0.00512611 0.00884347 1.58519e-20)
(0.00511061 0.0088463 -1.47473e-20)
(0.00511307 0.00884241 -1.50406e-20)
(0.00511003 0.00885019 0)
(0.00511287 0.00885245 -6.78395e-21)
(0.00511357 0.008853 1.44283e-20)
(0.00513706 0.00880386 -2.55887e-23)
(0.00510749 0.00884749 1.29981e-20)
(0.0051221 0.00884499 -2.38917e-20)
(0.00512109 0.00883596 -1.57428e-20)
(0.00512169 0.00883974 -1.61387e-20)
(0.00511474 0.00885831 0)
(0.00511254 0.008843 -1.51023e-20)
(0.0051811 0.00885886 -1.6593e-20)
(0.00350131 0.00604042 -7.99707e-21)
(0.00511009 0.00885071 9.94198e-21)
(0.00511439 0.0088516 1.52186e-20)
(0.00516037 0.00886239 -9.17155e-23)
(0.00512672 0.00883717 -1.61286e-20)
(0.00511348 0.0088539 6.62223e-21)
(0.00511369 0.00884899 7.67903e-21)
(0.00510516 0.0088448 6.27193e-21)
(0.00511225 0.00885144 0)
(0.00511225 0.00885154 6.89802e-21)
(0.00511232 0.00885507 0)
(0.00510718 0.00884818 5.12623e-23)
(0.00510552 0.0088454 -1.17173e-20)
(0.00510899 0.00884906 1.66772e-20)
(0.00516913 0.00882666 5.00714e-20)
(0.00510492 0.0088445 5.98288e-21)
(0.00490008 0.00849107 -5.15121e-21)
(0.0051261 0.00882133 -3.31201e-20)
(0.00511335 0.00885319 6.95168e-21)
(0.00511015 0.00885192 6.87154e-21)
(0.00512344 0.00880976 0)
(0.00510894 0.0088519 -2.05617e-20)
(0.00514466 0.00879649 0)
(0.00510943 0.00885478 2.73123e-23)
(0.0034935 0.00602788 -7.87332e-21)
(0.00511466 0.00884419 0)
(0.00510497 0.00884404 2.66756e-24)
(0.00515322 0.00886015 -3.29633e-20)
(0.00511902 0.00884553 -7.94918e-21)
(0.00511379 0.00885564 4.40375e-21)
(0.00511608 0.00885161 -7.53206e-21)
(0.00496333 0.0085697 -1.66627e-20)
(0.00511111 0.00884637 5.53413e-23)
(0.00511307 0.00884543 -8.22136e-21)
(0.00515375 0.00885551 -1.6322e-20)
(0.00510779 0.00885118 0)
(0.00510891 0.00884893 -2.92692e-21)
(0.00510885 0.00885205 -6.53827e-21)
(0.00510876 0.00885213 0)
(0.00511501 0.00885855 -4.69807e-21)
(0.00512485 0.00881565 3.24641e-20)
(0.00510748 0.00884635 3.50368e-23)
(0.00510693 0.00884459 6.00808e-21)
(0.00520021 0.00879083 4.31998e-23)
(0.00510532 0.00884438 1.33322e-20)
(0.00514733 0.00885822 -1.63174e-20)
(0.00511268 0.00885074 -8.69178e-21)
(0.00511716 0.00884549 3.10973e-20)
(0.00514657 0.00885732 -1.66002e-20)
(0.00511044 0.00885052 -5.5597e-21)
(0.00510477 0.00884396 -8.16525e-23)
(0.00511665 0.00884009 1.58984e-20)
(0.00349709 0.00603794 2.02285e-20)
(0.00510489 0.00884363 0)
(0.0051103 0.00885069 -5.04109e-21)
(0.00518589 0.00880472 0)
(0.00511003 0.00884651 7.78996e-21)
(0.00490232 0.00849358 5.32703e-21)
(0.00510777 0.00885211 -9.44355e-21)
(0.00514219 0.00885668 4.52515e-23)
(0.00510883 0.00884855 -1.13698e-20)
(0.00510776 0.00884637 -6.27906e-24)
(0.00511487 0.00884774 -1.54522e-20)
(0.00510789 0.00885169 9.69814e-21)
(0.0049581 0.00856512 1.6611e-20)
(0.00510643 0.00884777 -5.4191e-24)
(0.00511567 0.00884538 -1.58452e-20)
(0.00517014 0.00880355 3.36822e-20)
(0.00510807 0.00885248 -5.77688e-21)
(0.005108 0.00884699 0)
(0.00511044 0.00884565 -3.01895e-23)
(0.00510675 0.00884742 0)
(0.00511045 0.00885634 0)
(0.00349029 0.00602559 -3.96666e-21)
(0.00510668 0.00884674 0)
(0.00506724 0.00878325 1.06038e-20)
(0.00525764 0.00878194 1.55477e-23)
(0.00510853 0.00885145 9.83618e-21)
(0.00530349 0.00871514 0)
(0.00506552 0.00877259 3.29382e-20)
(0.0052206 0.00877976 1.69769e-20)
(0.00513764 0.00885553 1.61963e-20)
(0.00510085 0.00885906 2.54363e-21)
(0.00513669 0.0088526 1.6065e-20)
(0.00514641 0.00883704 -3.25338e-20)
(0.00511059 0.00884566 0)
(0.00515844 0.00880864 -3.18083e-20)
(0.00511031 0.00884605 -3.2523e-20)
(0.00510829 0.00885125 -5.09968e-21)
(0.00510934 0.00884551 8.25188e-21)
(0.00495036 0.00856178 0)
(0.00510672 0.00884809 1.38257e-20)
(0.00511219 0.00884694 -7.84943e-21)
(0.00492709 0.00853977 -7.84311e-21)
(0.00494934 0.00856191 -1.03707e-20)
(0.00533159 0.00869598 -1.73872e-20)
(0.00510855 0.00885317 1.17257e-20)
(0.00495082 0.00855795 1.48015e-20)
(0.00510906 0.00885321 0)
(0.00524586 0.00876247 4.35781e-23)
(0.00511088 0.0088461 -1.14405e-20)
(0.00495329 0.00856149 -5.25678e-23)
(0.0051294 0.00884914 3.28838e-20)
(0.0051335 0.00885457 -1.60927e-20)
(0.00522739 0.0087373 -1.68879e-20)
(0.00494957 0.00855961 0)
(0.00490387 0.00849707 8.55312e-23)
(0.00494878 0.00855756 -1.64473e-20)
(0.00506377 0.00878063 1.01546e-20)
(0.00510309 0.00886218 0)
(0.00506473 0.00878001 9.99451e-21)
(0.00510823 0.00885122 1.01607e-20)
(0.00506771 0.00878278 -1.07321e-20)
(0.00507386 0.00885346 3.61809e-21)
(0.00510857 0.00885522 3.43438e-21)
(0.00511005 0.0088513 -5.53141e-21)
(0.00494873 0.00856045 -3.76493e-23)
(0.00510913 0.00885156 0)
(0.00510911 0.0088436 1.41951e-20)
(0.00506661 0.0088587 3.30474e-21)
(0.00511011 0.00884927 2.62242e-23)
(0.0051097 0.00885115 1.03267e-20)
(0.00518389 0.00879797 3.36769e-20)
(0.0051297 0.00885376 0)
(0.00494566 0.00855488 4.26939e-23)
(0.00506778 0.00885282 0)
(0.00527389 0.00873978 1.6744e-20)
(0.00511002 0.00885579 -6.12433e-21)
(0.00535424 0.0086909 -1.68349e-20)