/*--------------------------------*- C++ -*----------------------------------*\
  =========                 |
  \\      /  F ield         | OpenFOAM: The Open Source CFD Toolbox
   \\    /   O peration     | Website:  https://openfoam.org
    \\  /    A nd           | Version:  8
     \\/     M anipulation  |
\*---------------------------------------------------------------------------*/
FoamFile
{
    version     2.0;
    format      ascii;
    class       volVectorField;
    location    "1";
    object      U;
}
// * * * * * * * * * * * * * * * * * * * * * * * * * * * * * * * * * * * * * //

dimensions      [0 1 -1 0 0 0 0];

internalField   nonuniform List<vector> 
4280
(
(3.16855e-05 1.55431e-05 -1.22895e-22)
(0.000627734 0.00103253 4.41511e-22)
(1.93217e-05 3.56374e-05 -1.78114e-21)
(0.00031291 0.000395703 -1.23086e-21)
(0.000612625 0.000915561 6.80714e-22)
(0.000536119 0.00103848 0)
(0.000606995 0.000871221 0)
(0.000688781 0.0011113 4.51839e-22)
(0.000555764 0.000963794 -8.53511e-22)
(0.000544077 0.00101783 2.47781e-22)
(4.11608e-05 3.9971e-07 7.90673e-24)
(0.000562594 0.00120415 -7.87996e-22)
(3.7556e-05 8.31928e-05 -1.81581e-21)
(0.000597867 0.000448688 -2.37155e-21)
(0.000531706 0.000916021 -6.77426e-22)
(0.000668857 0.0011131 -4.14124e-22)
(0.000488206 0.000832775 8.0433e-22)
(0.000305371 0.000963462 -1.16619e-21)
(0.000174235 0.000761227 2.89088e-22)
(0.000678583 0.00110934 0)
(3.90133e-05 -2.2961e-06 -1.90742e-24)
(0.000636018 0.00113217 0)
(5.12695e-05 -7.09248e-05 1.01095e-21)
(0.000689838 0.00130442 0)
(0.000517542 0.00103412 -1.06783e-21)
(0.000534534 0.000877019 -1.7338e-22)
(0.000612101 0.00113695 0)
(0.000543814 0.00103473 -6.60266e-22)
(0.000563441 0.000971371 -4.83015e-22)
(0.00045025 0.000894376 5.55932e-22)
(0.000606658 0.000958443 -1.39873e-21)
(0.000304839 0.000988852 0)
(0.000477687 0.000948668 -8.79621e-22)
(0.000439422 0.000903248 -1.71224e-21)
(3.32268e-05 0.000309754 1.44681e-21)
(0.000543676 0.00105355 1.15871e-21)
(0.00077918 0.00125211 -2.2353e-23)
(0.000419529 0.000801669 1.19781e-21)
(0.000617279 0.00122318 -3.74573e-22)
(0.000559161 0.00103898 1.05065e-23)
(0.000648866 0.000563468 4.35118e-22)
(0.000639792 0.00115722 -8.70631e-22)
(0.000506107 0.000809207 0)
(0.000617372 0.000847466 0)
(0.000458548 0.000917372 -3.42397e-22)
(0.000512821 0.000971932 0)
(0.000898127 0.00101336 -3.60457e-22)
(0.000602852 0.00112956 -4.35636e-22)
(0.000521628 0.000925497 1.88766e-23)
(0.000902345 0.00131465 8.09267e-22)
(0.000685136 0.00122901 0)
(0.000665923 0.00111437 0)
(0.000554516 0.00104676 -4.83153e-22)
(8.04979e-05 0.000666912 -1.40797e-21)
(0.00020933 0.00057809 -5.70392e-22)
(0.000679355 0.00110806 3.97839e-22)
(8.26276e-05 -0.000487175 -4.48869e-22)
(0.000677862 0.00131944 -8.31114e-22)
(0.000539666 0.000916205 -1.20298e-23)
(0.000609922 0.00113477 4.3141e-22)
(0.000559407 0.00103788 2.02969e-24)
(0.000614187 0.00116309 7.17977e-22)
(0.000691988 0.00102943 1.68561e-21)
(0.000542565 0.00103597 -1.64355e-21)
(0.000520315 0.00104064 1.39887e-21)
(0.000663729 0.00111526 0)
(0.000793237 0.000807529 0)
(0.000166996 0.000545922 -8.43098e-22)
(0.000560596 0.00101225 -3.54961e-22)
(0.000615565 0.00115297 -4.02649e-22)
(0.00054303 0.000929588 -2.26885e-22)
(0.00055463 0.000973217 -4.91631e-22)
(0.000757982 0.00124127 -5.18367e-22)
(0.000721958 0.00129087 9.20648e-22)
(0.000866417 0.000475291 -4.68199e-24)
(0.000184712 0.000735986 -1.55745e-21)
(0.000494872 0.00103068 0)
(0.000522997 0.000896304 0)
(0.000668141 0.00110624 1.37866e-23)
(0.000228715 0.000833953 -4.15178e-22)
(0.000450772 0.000929384 1.08867e-22)
(0.000642201 0.0011453 1.37826e-22)
(0.000352541 3.6709e-05 -3.05427e-21)
(0.000535303 0.000959938 -8.19813e-24)
(0.000521748 0.000970914 1.40838e-21)
(0.000932259 0.000711152 -1.67209e-21)
(0.000607638 0.00113631 3.35896e-22)
(0.000538097 0.000875212 2.16193e-22)
(0.000255618 0.00082407 -7.89267e-22)
(0.000190802 0.000775135 0)
(0.000642003 0.00114608 5.87533e-22)
(0.000325227 0.000976056 2.74963e-21)
(0.000409299 0.000872709 2.88121e-23)
(0.000522564 0.000898824 -3.36943e-22)
(0.000477998 0.000887578 0)
(0.000543333 0.000877831 6.5869e-22)
(0.00077199 0.00130202 0)
(0.000558856 0.00103058 -3.81502e-22)
(0.000730042 0.00108122 -5.0404e-24)
(0.000550511 0.000928776 -1.50635e-21)
(0.000561351 0.00104454 -8.71842e-22)
(0.000554531 0.00110736 1.52971e-23)
(0.000698331 0.00131108 0)
(0.000550847 0.000911655 -6.04125e-22)
(0.000614673 0.00114642 3.98863e-22)
(0.000571315 0.00104567 -1.34175e-23)
(0.000514833 0.000970541 -9.1124e-22)
(0.000589629 0.00109697 -1.55364e-21)
(0.000566645 0.000898783 0)
(0.000387376 0.000679305 0)
(0.000263711 0.000696708 9.52446e-22)
(0.000526688 0.00100468 9.86581e-22)
(0.00052272 0.000975437 -1.41877e-21)
(0.000472523 0.000808591 -9.65923e-22)
(4.39728e-05 -1.94745e-06 -7.98404e-24)
(0.000534303 0.000905935 0)
(0.000114346 -0.000191505 -1.93998e-21)
(0.000532173 0.00101056 0)
(0.000563529 0.000697073 1.11735e-21)
(0.000551577 0.000441718 0)
(0.00042246 0.000881999 -5.515e-22)
(0.00050489 0.000943122 2.68037e-22)
(0.000711858 0.00129236 6.78883e-22)
(0.000542489 0.000913182 5.42833e-22)
(0.000527962 0.000941613 0)
(0.000477318 0.000942895 7.81938e-22)
(0.000308262 0.000680923 0)
(0.000489573 0.000984955 -4.3572e-22)
(2.80077e-05 0.000235633 2.50153e-22)
(0.000813609 0.00133053 -7.58205e-23)
(0.000424266 0.000839966 -7.20578e-22)
(0.000574162 0.00104608 4.42984e-22)
(0.000605079 0.00118303 3.17393e-22)
(0.000552797 0.000960044 -5.65579e-22)
(0.000528317 0.000997252 2.02865e-21)
(5.76254e-05 0.00108938 0)
(0.000696294 0.00133262 0)
(0.000769491 0.0012996 3.07824e-24)
(0.000428586 0.000826591 -3.9966e-22)
(0.000648935 0.00114409 -1.21344e-23)
(0.000526486 0.000989116 -1.99234e-23)
(0.000456767 0.000842069 0)
(0.000262177 0.000456652 2.73735e-22)
(0.000558676 0.0010639 0)
(0.000523818 0.000979321 -7.6073e-22)
(0.000647117 0.00110736 2.52668e-21)
(0.000513365 0.00010752 9.07038e-22)
(0.000523805 0.00104791 1.63614e-23)
(0.000416562 0.000605199 0)
(0.000528446 0.000984302 0)
(0.000290004 0.000842862 0)
(0.00166319 0.000205303 0)
(0.000509003 0.000947263 -5.92345e-22)
(0.000475869 0.000568537 0)
(0.000365341 0.00105128 -8.15334e-24)
(0.000650329 0.00114308 -1.59647e-23)
(0.000610138 0.000789426 0)
(0.000529491 0.0010217 5.80501e-22)
(0.000477915 0.000924654 8.42706e-22)
(0.000426948 0.000816258 0)
(0.000654954 0.0011554 0)
(0.000599137 0.00106087 1.62324e-21)
(0.000481589 0.000117212 1.39624e-21)
(0.000490535 0.000982727 -1.78187e-21)
(0.000598247 0.00118984 0)
(0.000629342 0.000951163 1.74498e-23)
(0.000659081 0.00112872 3.65112e-22)
(0.000588756 0.00102864 1.23955e-23)
(0.000673538 0.00110846 4.56607e-22)
(0.000670589 0.00125568 7.41784e-23)
(0.000592157 0.000928666 0)
(0.000485612 0.000924014 2.00095e-22)
(0.000528415 0.000974133 2.37034e-24)
(0.000102765 0.00152421 -7.84528e-23)
(0.000983936 0.000426289 -1.58018e-21)
(0.000520899 0.000990628 1.32275e-23)
(0.000901868 0.000403866 0)
(0.000470998 0.000893279 1.48288e-21)
(0.000461852 0.000901553 -1.4217e-22)
(0.000593388 0.000949488 -4.35967e-22)
(0.000586255 0.000694914 -1.15196e-21)
(0.000778504 0.000739078 6.28803e-22)
(0.000152298 0.000721226 -1.16526e-21)
(0.000774667 0.00123927 -8.84573e-22)
(0.000926838 0.00143796 9.69673e-22)
(0.000539376 0.00101402 0)
(0.000524925 0.00098872 1.63945e-23)
(0.000804357 8.01855e-05 -1.61761e-22)
(0.000678326 0.00134276 6.25123e-22)
(0.000483116 0.000867813 -5.11359e-23)
(0.000181817 0.000589079 1.89885e-22)
(0.000403177 0.000874247 0)
(0.000550254 0.000961543 -1.63346e-23)
(0.000554426 0.000944364 -5.18352e-23)
(0.000484553 0.000938344 -1.01778e-22)
(0.000707584 0.00106132 -1.40712e-21)
(0.00069438 0.00110818 0)
(0.000629483 0.00100755 -7.98807e-22)
(0.000783706 0.00124877 0)
(0.000842453 0.00133579 -1.09259e-21)
(0.000479039 0.000660972 -1.15341e-23)
(0.000835904 0.000932039 -1.20862e-21)
(0.000553468 0.000923502 0)
(0.000534163 0.00104028 0)
(0.000567178 0.00103005 -1.12096e-21)
(0.000629769 0.00112049 -3.78205e-22)
(0.000531824 0.000912105 1.6664e-21)
(0.000615301 0.00112949 -5.59895e-22)
(0.000528775 0.000912835 -7.39197e-22)
(0.00069632 0.00122181 6.82201e-22)
(0.000695545 0.00104388 -1.47182e-21)
(0.00029071 0.000601772 -1.10995e-22)
(0.00052721 0.00101722 1.00291e-21)
(0.000426424 0.000584944 2.20394e-21)
(0.000547886 0.000930595 0)
(0.000522041 0.00103006 9.54221e-22)
(0.00107024 0.000163469 -1.25516e-21)
(0.000728954 0.00108904 -2.72453e-22)
(0.000651677 0.00113351 4.64132e-22)
(0.000372365 0.000709295 1.00837e-21)
(0.000595491 0.000856612 9.29438e-23)
(2.97205e-05 -1.55275e-05 -4.67932e-24)
(0.000512615 0.000960257 1.98957e-21)
(0.000857204 0.000868151 5.4027e-22)
(0.000525232 0.00102608 -1.01032e-21)
(0.000522526 0.000735225 0)
(0.000989856 0.000416926 1.23359e-21)
(0.000517059 0.00101186 -6.74663e-22)
(0.000541881 0.000902374 0)
(0.000441219 0.000890296 -1.07284e-21)
(0.000983777 3.53136e-05 5.09989e-22)
(0.000546157 0.000959223 -4.2285e-22)
(0.000875528 3.38367e-05 -2.92315e-22)
(0.000446685 0.000827379 -8.02415e-22)
(0.000542935 0.000968419 -1.49366e-21)
(0.000510552 0.000259015 -1.00554e-21)
(0.00051639 0.00098127 -1.01214e-21)
(0.000688754 0.00111287 -5.98658e-22)
(0.000267495 0.000846866 -1.52608e-21)
(0.000758013 0.00123355 -2.28301e-22)
(0.000616178 0.00116006 -3.64577e-22)
(0.000540689 0.00101544 8.24111e-22)
(0.000661076 0.00113048 -2.52185e-22)
(0.000509489 0.0010274 -1.61175e-21)
(0.000784686 0.00127321 -3.85742e-22)
(0.000621459 0.00123657 0)
(0.000735857 0.0011669 5.45317e-23)
(0.000779494 0.00130699 3.63916e-23)
(0.000499231 0.000972275 3.24055e-22)
(0.000514666 0.000931321 2.71279e-22)
(0.00060528 0.00108083 9.61985e-22)
(0.00053862 0.000963529 0)
(0.00055429 0.00107851 1.00281e-21)
(0.000541253 0.000865409 -3.7627e-22)
(0.000700133 0.00145942 7.33182e-23)
(0.000548319 0.00104665 -1.73321e-23)
(0.000473333 0.000487797 1.71497e-21)
(0.000543437 0.000967174 0)
(0.000590556 0.000469349 1.13483e-21)
(0.000761057 0.00121421 3.01039e-21)
(0.00062952 0.00111769 0)
(0.000363718 0.000237399 -1.06545e-21)
(3.03948e-05 0.000643682 0)
(0.00053577 0.000910471 2.02402e-22)
(0.00111681 0.000336307 -2.46267e-21)
(0.000588441 0.00102661 1.00147e-23)
(0.000471167 0.000846913 7.78333e-22)
(0.000743908 0.00128023 -7.38309e-22)
(0.000483962 0.000952714 0)
(0.000949195 0.000950444 1.76468e-21)
(0.000286472 0.0011035 3.24278e-23)
(0.000442937 0.000816729 5.7412e-22)
(0.000650193 0.00114195 -4.3529e-22)
(0.000569158 0.000898723 5.583e-24)
(0.000598201 0.000932635 -7.15092e-22)
(0.000651617 0.00113964 -4.60407e-22)
(0.000722602 0.000602179 2.13201e-23)
(0.000616007 0.00115718 -7.70848e-22)
(0.000759056 0.00126436 -7.02971e-22)
(0.000670991 0.000308482 2.47055e-21)
(0.00067143 0.00134514 -2.38431e-21)
(0.000467622 0.000917091 -3.0568e-22)
(0.000535463 0.000955935 -4.15304e-22)
(0.000404219 0.00026051 0)
(0.000543283 0.000886061 1.47808e-21)
(2.2772e-05 -1.26084e-05 3.93543e-24)
(0.000977499 0.00130119 -2.42496e-21)
(0.00077682 0.00132503 0)
(0.000622286 0.00102759 2.55384e-22)
(0.000540293 0.000923218 4.49201e-22)
(0.000478543 0.00101997 -4.20634e-22)
(0.00054015 0.00137555 -7.29077e-23)
(0.000372098 0.000846864 0)
(0.000892364 0.00127992 -1.18611e-21)
(0.000559022 0.000868426 8.04636e-22)
(0.000349132 0.000726114 3.75599e-22)
(0.000299046 0.000803735 -7.89353e-23)
(0.000682699 0.00108687 1.74602e-21)
(0.000555121 0.00104957 3.28616e-22)
(0.000496003 0.00104855 3.23712e-22)
(0.000366715 0.000792339 1.7767e-21)
(0.000869429 0.000101716 -1.93465e-21)
(0.000743638 0.00124327 -1.90546e-21)
(0.000451087 0.000279996 7.17193e-22)
(0.00063033 0.00114073 5.68263e-23)
(0.000650298 0.00113157 4.30023e-22)
(0.00102602 5.74935e-05 0)
(0.000894827 0.000147479 4.50339e-23)
(0.000925194 0.00136598 2.55001e-22)
(0.000526566 0.00107861 1.96226e-22)
(0.000543431 0.000967782 -2.27126e-24)
(0.000675868 0.000100161 -3.01049e-21)
(0.000555344 0.00104269 4.77263e-22)
(0.000404919 0.000801293 1.59615e-21)
(0.000522553 0.000950792 1.00506e-21)
(0.000638217 0.00121995 -1.18609e-22)
(1.82195e-05 -2.09741e-05 1.47093e-23)
(0.000821925 0.000941366 7.9908e-22)
(0.000624392 0.00115614 -3.31135e-22)
(0.000527894 0.000928501 -1.04321e-22)
(0.000164441 0.000764454 2.44619e-24)
(0.00112615 0.000136051 0)
(0.000191131 0.000866632 1.85331e-23)
(0.000586798 0.000935558 0)
(0.000497912 0.000885744 3.29677e-22)
(0.00103299 0.000169167 0)
(0.000369523 0.000923977 -2.78421e-22)
(0.000290009 0.000652569 -1.36272e-21)
(0.000699921 0.00118416 8.21602e-22)
(0.000586032 0.00103959 1.00807e-21)
(0.000256964 0.000318319 3.44232e-21)
(0.000645758 0.00116261 -1.27776e-22)
(0.000543263 0.00102015 -1.03041e-21)
(0.000451196 0.000927046 1.14775e-21)
(0.000481954 0.000957843 7.06256e-22)
(0.000528121 0.00107698 0)
(0.000562913 0.000874555 -4.04716e-22)
(0.000611043 0.00101674 7.71494e-22)
(0.000800707 0.00126471 1.63637e-21)
(0.000652028 0.0011377 0)
(0.000114612 -8.81716e-05 2.35459e-21)
(0.000482832 0.000831439 0)
(0.000688693 0.00118786 1.89653e-21)
(0.000560515 0.000901654 7.46306e-22)
(0.000458364 0.000985476 1.24207e-22)
(0.000641891 0.00115145 -5.33647e-22)
(0.000266141 0.000859419 7.01051e-22)
(0.000323421 0.000692269 -4.31277e-22)
(0.000525072 0.000950822 0)
(0.000708446 0.00110475 3.2641e-22)
(9.00327e-06 0.000831194 0)
(0.000278729 0.000779156 -6.14964e-22)
(0.00146778 0.000283704 0)
(0.0006308 0.00116053 -5.25661e-22)
(0.000733958 8.58389e-05 6.37033e-23)
(0.000708586 0.00109574 9.29648e-22)
(0.000682616 0.00113235 -2.67342e-22)
(0.000280017 0.000781028 7.79187e-22)
(0.000716343 0.00129919 -2.93696e-22)
(0.00071332 0.00110467 -3.24649e-22)
(3.96777e-05 0.000184147 8.17575e-22)
(0.000562097 0.00101936 1.03171e-23)
(0.000702264 0.00106863 -8.4371e-22)
(0.000548999 0.000964166 -5.45429e-22)
(0.000656201 0.00116918 0)
(0.000523397 0.00108461 0)
(0.000523379 0.000926512 -1.607e-21)
(0.000496999 0.000881798 0)
(0.00058374 0.000872471 -1.2362e-21)
(0.000537826 0.000927721 -3.4579e-22)
(0.000457365 0.000983397 -6.41387e-23)
(0.000657035 0.00116749 5.5838e-22)
(0.000712115 0.00125959 -1.12069e-22)
(0.000331222 0.000640118 1.44771e-21)
(0.000524232 0.000983424 0)
(0.000457799 0.000954776 -5.51744e-22)
(0.000570193 0.000888773 6.09898e-23)
(0.00013495 0.000165083 0)
(0.00044387 0.00106303 1.64985e-22)
(0.000531783 0.00101563 3.20107e-24)
(0.000750873 3.97965e-05 7.13319e-24)
(0.000302621 0.000863791 4.60021e-24)
(3.39239e-05 -9.8397e-08 1.55802e-21)
(0.000348372 0.000903451 6.38454e-22)
(0.000559333 0.00110214 -4.47177e-22)
(0.000835736 0.00122858 -1.36971e-21)
(0.000439871 0.000807257 -1.13601e-21)
(0.000585019 0.000937359 -8.28189e-23)
(0.000475516 0.000910965 0)
(0.00102752 0.000808195 9.89018e-22)
(-0.000126751 0.00104936 -7.51664e-22)
(0.000521788 0.00116055 0)
(0.000350378 0.0008428 -1.57804e-21)
(0.000460096 0.000561019 1.19113e-21)
(0.000501643 0.000935368 0)
(0.000695974 0.00111729 7.18141e-22)
(0.000539813 0.00104443 -1.08571e-22)
(0.000307897 0.000345404 -3.63295e-21)
(0.000367414 0.000402983 -2.51134e-22)
(0.000504056 0.000954048 -6.58349e-22)
(0.000649275 0.000972617 6.77005e-22)
(0.000506462 0.000934531 -3.79286e-22)
(0.000575652 0.00102684 -2.93254e-22)
(0.000514467 0.000977993 0)
(0.000786105 0.00129115 -1.35941e-23)
(0.000293494 0.000893838 0)
(0.000545644 0.00105148 -1.5086e-24)
(0.000698599 0.00110214 3.2019e-22)
(0.000515799 0.000936984 -4.9993e-22)
(0.000760795 0.00125428 8.80041e-22)
(0.00047984 0.000834811 3.91887e-22)
(4.64667e-05 -5.5563e-07 5.92587e-23)
(0.000565239 0.00105243 -9.50841e-22)
(0.000587313 0.000933331 6.70004e-22)
(0.000790552 0.00125384 3.32949e-24)
(0.000657818 0.00164012 0)
(2.1227e-05 -3.40515e-05 -9.97442e-22)
(0.000609549 0.000912301 -1.42723e-21)
(0.0006262 0.00110286 0)
(0.000509503 0.000813152 -7.81851e-22)
(0.000344912 0.000825661 0)
(0.000346693 0.000859822 1.3143e-21)
(0.000592445 0.00113055 7.28266e-22)
(0.000907997 0.00107923 -8.17065e-22)
(0.00059306 0.00102362 0)
(0.000765671 0.00135069 1.25475e-21)
(0.000705947 0.00112399 3.38725e-22)
(0.000475028 0.000908397 5.11582e-22)
(0.000526353 0.000987687 -8.96741e-22)
(0.000464578 0.000929131 -4.10382e-22)
(0.000756976 0.00128819 3.76925e-22)
(0.000348789 0.00113011 -2.6977e-21)
(0.000236704 0.000840838 -7.23931e-22)
(0.000440001 0.000878307 -7.66668e-22)
(0.000729824 0.00012575 -6.10523e-22)
(0.000635255 0.000467559 3.00889e-21)
(0.000911898 0.000249667 -2.63488e-22)
(0.000481963 0.000930398 -6.75312e-24)
(0.000375254 0.000545933 -1.28712e-21)
(0.000835535 0.000480448 2.29057e-21)
(0.000658221 0.00114298 -7.52436e-22)
(0.000532232 0.00090577 0)
(0.000563898 0.000954362 1.17011e-21)
(0.000213367 0.000777085 0)
(0.000639721 0.00115798 -6.21821e-22)
(0.000673711 0.00111661 -1.85185e-23)
(0.000657593 0.000606355 -1.62584e-21)
(0.000429894 0.00082187 8.58391e-22)
(0.000642987 0.000726972 -1.49714e-21)
(0.000463697 0.000942851 -5.60476e-22)
(0.000381013 0.000472499 3.62669e-22)
(0.000612068 0.000655537 1.15045e-21)
(0.000810179 0.00127854 2.36737e-23)
(0.000573338 0.000905022 1.40328e-23)
(0.000592727 0.00112436 0)
(0.000388984 0.000879658 1.08737e-21)
(0.000611856 0.00115883 -1.96346e-21)
(0.000352194 0.00092014 -1.23997e-21)
(0.000650027 0.000660675 1.75542e-21)
(0.000218558 0.000466157 7.3797e-22)
(0.000602436 0.00119726 -5.53091e-22)
(0.00053645 0.000345094 0)
(0.000526162 0.000952607 -4.64633e-21)
(2.35416e-05 2.71215e-05 -7.46881e-22)
(0.000706676 0.00110681 -2.92695e-22)
(0.000626828 0.00116219 -2.90078e-21)
(0.000502075 0.000965113 3.82084e-21)
(0.000688649 0.00107951 0)
(0.000405512 0.000829678 -2.04877e-21)
(0.000358899 0.00127478 -1.49111e-22)
(0.000492534 0.00113958 1.29755e-23)
(5.49053e-05 0.000738638 0)
(0.000655723 0.000635382 -4.29099e-21)
(0.000622394 0.00106969 -2.82425e-22)
(0.000725712 0.00159106 4.31043e-24)
(0.000624376 0.000704708 -1.23207e-21)
(0.000527758 0.00104566 -1.53363e-21)
(0.000443225 0.000958851 -8.44639e-22)
(0.00054622 0.000964621 -6.3714e-24)
(0.000545376 0.00108396 -9.5165e-25)
(0.000954993 0.000232622 -2.9591e-22)
(0.00025116 0.000740465 -1.95143e-21)
(0.000638655 0.00100292 -8.17964e-22)
(0.000583234 0.000936113 -1.44324e-23)
(0.000534573 0.00104778 -3.89754e-22)
(0.000464313 0.000999584 -1.39577e-22)
(0.000484866 0.000930048 0)
(0.000757386 0.000228857 1.72657e-21)
(0.000569196 0.000978042 -7.38641e-22)
(0.000571238 0.000388463 9.69318e-22)
(0.00055816 0.00104814 2.3839e-21)
(0.000685681 0.000898501 0)
(0.00108703 0.000354766 1.16519e-21)
(0.000478904 0.000943318 -3.6545e-24)
(5.09701e-05 9.87613e-05 -9.54238e-22)
(0.000635061 0.000984418 0)
(0.000655891 0.000991863 9.71538e-22)
(0.000775208 0.00125593 -1.5075e-21)
(0.000576244 0.000961842 0)
(0.000547928 0.000929399 0)
(0.000729905 0.00120398 0)
(0.000962643 0.000350122 -1.07904e-21)
(0.000491227 0.000960958 0)
(0.00050881 0.000710547 -3.02084e-21)
(0.00035823 0.000880411 -3.64452e-21)
(0.000995716 0.00108415 -1.49809e-21)
(0.000692023 0.00111027 -3.17721e-22)
(0.000709899 0.00129532 9.4778e-25)
(0.00058377 0.000930687 9.71278e-22)
(0.000543991 0.000353669 -7.22558e-22)
(0.000552778 0.00108577 0)
(0.000471255 0.00068157 -9.69825e-22)
(0.00054179 0.000707254 1.30974e-21)
(3.43532e-05 -1.30522e-05 0)
(0.000382003 0.000901593 -3.74521e-22)
(0.00057135 0.000894041 3.29912e-22)
(0.000301252 0.000749342 0)
(0.00080778 0.000194853 7.3412e-22)
(0.00063256 0.000963698 0)
(0.000313958 0.000865026 4.79652e-22)
(0.000795412 0.00121073 1.93698e-21)
(0.000381101 0.000859841 -1.65085e-21)
(0.000495833 0.00103586 -1.19062e-22)
(0.00036817 0.000945037 -2.40695e-21)
(0.000476003 0.000587664 -2.64511e-21)
(0.000655535 0.000824877 5.6612e-25)
(0.000415038 0.000968989 1.87342e-22)
(0.000693581 0.00114067 1.56154e-22)
(0.00058511 0.000349405 1.44903e-21)
(0.000678605 0.000772132 -3.8769e-21)
(0.000711187 0.00110768 0)
(0.000625948 0.0011398 9.58698e-22)
(0.000488856 0.000932779 -3.52262e-21)
(0.000283367 0.000875003 0)
(0.00085559 0.000302883 2.39676e-21)
(0.00048272 0.000911472 0)
(0.000674488 0.00119777 -2.32585e-22)
(0.000754539 0.0013057 -1.06351e-21)
(0.000784067 0.00122321 8.44836e-22)
(0.000789617 0.00125414 -1.3783e-21)
(0.000522968 0.00111998 -3.71359e-22)
(0.000442205 0.000225371 6.1241e-24)
(0.00050701 0.000451568 -1.95282e-21)
(0.000580121 0.000246271 0)
(0.000641192 0.00117057 1.86616e-21)
(0.00086189 0.000101527 -6.69765e-22)
(0.000602423 0.00100453 0)
(0.000560069 0.00107263 0)
(0.000174881 0.000389903 7.57604e-22)
(0.000518098 0.00107912 0)
(0.000626844 0.0010771 -4.16398e-21)
(0.000473346 0.00096926 8.19281e-22)
(0.000741771 0.00125814 1.27576e-21)
(0.000256039 -4.85919e-06 -7.78693e-22)
(0.000529174 0.00079767 -1.32138e-21)
(0.000146494 0.000467148 -1.03455e-21)
(0.000878947 0.00110489 -3.28474e-21)
(0.000550705 0.00104958 -3.38995e-22)
(0.000643168 0.00100791 2.33383e-21)
(0.000588635 0.00103223 -1.90028e-22)
(0.000640373 0.000170765 -1.04761e-23)
(0.000874199 0.00119378 1.03003e-21)
(0.00051689 0.000980196 3.70485e-22)
(0.00059929 0.00102653 9.31617e-23)
(7.72198e-05 0.000514285 0)
(0.000529332 0.000986838 0)
(0.000498032 0.000917835 -2.13002e-21)
(0.000552234 0.00100193 8.14452e-23)
(0.000492757 0.000949518 -1.83876e-21)
(0.000508863 0.000932011 -3.3344e-24)
(0.000546122 0.000848086 0)
(0.000561567 0.000776369 -9.64544e-22)
(0.000765903 -8.69836e-05 -2.85401e-21)
(0.000564312 0.000411402 0)
(0.000530966 0.000920835 1.1908e-22)
(0.000583243 0.000937784 -7.81388e-23)
(0.000636739 0.000581202 2.67313e-21)
(0.000512054 0.000919049 2.21364e-24)
(0.000772678 0.00124318 -1.04261e-23)
(0.000405116 0.000936578 -6.88974e-22)
(0.000567541 0.0010775 -2.06899e-22)
(0.000569506 0.00114943 -1.23878e-22)
(0.000723486 0.00108633 0)
(0.000470568 0.00126542 2.16115e-21)
(0.000629667 0.00103868 1.61668e-21)
(0.000527984 0.00103557 -1.13538e-21)
(0.000345189 -4.07215e-05 5.62057e-25)
(0.0006466 0.00117049 -9.15493e-22)
(0.000449849 0.000818614 2.0052e-21)
(0.000354014 0.000150608 1.08475e-21)
(0.000593963 0.00103813 0)
(0.000551595 0.000950229 1.62225e-21)
(0.000331446 0.000736623 -3.23802e-22)
(0.00120323 -7.30323e-05 9.97661e-22)
(0.000297978 0.000779497 1.04583e-21)
(0.000760604 0.00123884 2.40524e-22)
(0.000590075 0.00104284 -9.45442e-22)
(0.000551458 0.000933879 -1.22367e-21)
(0.000482542 0.000920552 3.15664e-21)
(0.000754504 0.00127612 8.08445e-22)
(0.00063421 0.00021335 -2.20336e-21)
(0.00055363 0.000176418 2.53644e-21)
(0.000610916 0.000115591 -2.63118e-21)
(0.000715235 0.00123148 5.42195e-23)
(0.000421898 0.000873081 -3.9617e-21)
(0.000639817 5.1236e-05 1.38318e-21)
(0.000630864 0.00110853 0)
(0.000746421 0.00132774 -8.26038e-22)
(0.000607272 0.000871661 1.49415e-21)
(0.000334832 0.000794171 -3.52505e-22)
(0.000254426 0.000414234 -1.78064e-22)
(0.00051434 0.00093424 9.92971e-24)
(0.000544047 0.00101466 3.76515e-22)
(0.000529725 0.000960585 -8.01013e-22)
(0.00049346 0.000936076 0)
(0.000547474 0.000904223 -1.42952e-21)
(0.00066259 -8.24083e-06 1.43418e-21)
(0.000667075 0.00117757 -9.6884e-22)
(0.000600563 0.00115629 9.56245e-22)
(0.000960475 0.00118137 -4.61788e-23)
(0.00056429 0.000241313 0)
(0.000405036 0.000135226 -1.04797e-21)
(0.000645046 0.00102535 -2.02716e-23)
(0.000587716 0.00104607 -9.95366e-22)
(0.000551948 0.000998124 5.75181e-23)
(1.99274e-05 1.71356e-05 2.11846e-22)
(0.000587396 0.00103245 1.98958e-22)
(0.000384661 0.000801256 -1.60658e-21)
(0.000809229 3.82061e-05 1.37734e-21)
(0.00065987 0.000134885 1.31744e-21)
(0.000637992 0.00129021 -3.64538e-23)
(0.000462581 0.00119049 0)
(0.000715812 0.00110811 -1.59609e-21)
(0.000619429 0.000957609 0)
(7.35412e-05 -3.5323e-06 1.11966e-21)
(0.00058315 0.00103499 -6.22354e-22)
(0.000555415 9.91077e-05 -1.65492e-21)
(0.000574977 0.00102533 -8.0291e-22)
(0.000484108 0.000966699 8.60513e-22)
(0.000418346 0.000915444 9.41153e-22)
(0.000746582 0.00128208 -8.89014e-22)
(4.82499e-05 0.000141432 3.59523e-21)
(0.000742021 0.00124302 3.42204e-22)
(0.000794968 0.000110281 0)
(0.000532637 0.00112998 1.49975e-22)
(0.000432729 0.000730085 1.27159e-23)
(0.000533779 0.000947001 0)
(0.000618729 0.00040228 -3.84091e-21)
(0.000823789 -8.49836e-06 0)
(0.000591918 0.0010243 1.79519e-22)
(0.000479936 0.000925817 1.15244e-21)
(0.000636464 0.00113148 -2.72822e-21)
(0.000577059 0.000996556 -2.53412e-22)
(0.000814064 0.000150469 -1.57854e-22)
(0.000486163 0.00095491 0)
(4.6001e-05 0.000356785 -2.27057e-22)
(0.000733925 0.00133928 0)
(0.000179825 0.000374031 0)
(3.80932e-06 0.000805211 -5.66929e-22)
(0.000467212 0.00100725 -1.59994e-21)
(0.000654609 0.000185608 -1.19704e-21)
(0.000621296 0.000995814 1.59516e-21)
(0.000371444 0.000860505 2.86592e-22)
(0.000749551 0.00108351 -1.82512e-21)
(0.000593855 0.00116979 0)
(0.000524665 0.000981142 6.51755e-22)
(0.000726831 0.00137305 0)
(0.000730955 0.00134209 -1.65544e-23)
(0.000521256 0.00100909 1.91656e-21)
(0.00050251 0.000905097 1.67784e-22)
(0.000545626 0.000658843 3.26395e-21)
(0.000492736 0.000377255 2.02071e-21)
(0.000383232 0.000919318 0)
(0.000529904 0.000982801 -2.06184e-22)
(0.000841532 0.00134023 0)
(0.000535715 0.000955302 0)
(0.000568542 0.000988652 -2.06049e-21)
(0.00108717 0.000200664 1.10896e-21)
(0.000648096 0.00118004 0)
(0.000193357 9.36791e-06 1.48782e-21)
(0.00048306 0.000823029 -1.44482e-22)
(2.57147e-05 0.000120356 1.72287e-21)
(0.000672947 0.000474126 -1.65847e-22)
(0.000659354 0.00112182 8.95431e-22)
(0.000733425 0.00109081 1.71888e-21)
(0.000664753 0.00102767 -8.57513e-22)
(0.000521332 0.00112569 0)
(0.000513184 0.000986101 9.70129e-22)
(3.30871e-05 0.000404247 5.84711e-23)
(0.000532953 0.000918124 -7.49879e-22)
(0.000475359 0.000964011 -4.54925e-22)
(0.000726933 0.00132135 -7.19057e-22)
(0.0007477 0.00129082 -6.39649e-24)
(0.000564307 0.000959886 0)
(0.000647357 0.00116521 8.86072e-22)
(0.000711511 0.0011008 -1.4835e-21)
(0.000548802 0.000984746 3.67617e-22)
(0.000790113 0.000319744 8.34209e-22)
(0.000517955 0.000979738 1.34634e-21)
(0.000554822 0.000978777 0)
(0.000517591 0.00102651 0)
(0.000500145 0.000966515 8.89823e-22)
(0.0005336 0.000924709 -1.93376e-22)
(0.000567805 0.000929246 1.92301e-21)
(0.000576203 0.00104412 0)
(0.000613029 0.000885847 7.91838e-22)
(0.00104936 0.000392845 2.71067e-23)
(0.000572717 0.00104218 4.60942e-22)
(0.000529243 0.000927542 -1.40437e-21)
(0.000562078 0.000684836 9.63407e-22)
(0.000573962 0.00101005 -1.40596e-21)
(0.000662912 0.00113861 -3.17113e-24)
(0.000723867 2.44638e-05 -2.37505e-21)
(0.000525915 0.00105542 3.29402e-22)
(0.000432975 0.0011731 0)
(0.000530697 0.000994405 -1.84673e-21)
(0.00043542 0.000962211 1.36003e-24)
(0.000503954 0.0012249 0)
(0.000339297 0.000862991 1.19979e-21)
(0.000536619 0.000974791 -1.76403e-21)
(3.46894e-05 -8.74222e-07 2.40972e-21)
(0.000351483 0.00125092 -1.51574e-21)
(0.000571455 0.00104008 -9.28013e-22)
(0.000691173 0.000407772 7.58578e-22)
(0.000536007 0.000938929 6.80099e-22)
(0.000568125 -0.000380215 -1.62357e-22)
(0.000733537 0.000128182 0)
(5.99137e-05 -3.63784e-07 0)
(0.000507344 0.000952519 -2.41041e-21)
(3.35092e-06 2.32716e-05 1.15304e-22)
(0.000565625 0.00103823 1.5442e-21)
(0.000570092 0.00091877 1.85279e-22)
(0.000528037 0.000940717 1.71966e-22)
(0.000590484 0.000998978 2.99619e-22)
(0.000504254 0.00105065 1.00331e-21)
(4.36312e-05 2.12375e-06 -2.59634e-22)
(0.000604191 0.00112153 -1.55602e-21)
(0.00057473 0.000954529 -2.72561e-22)
(0.000295459 5.79821e-05 0)
(0.000498003 0.00096894 7.90574e-22)
(5.11226e-05 -7.4169e-06 0)
(0.000632396 0.00099624 -1.60624e-21)
(3.60059e-06 -6.33233e-05 0)
(4.58095e-05 -6.30021e-06 0)
(0.00065074 0.00112883 5.30698e-22)
(0.000517467 0.000967959 7.93056e-22)
(0.000376478 0.000586978 -3.02421e-22)
(0.000538742 0.000901913 -1.2689e-21)
(0.000570721 0.000968897 -1.1152e-21)
(0.00062487 0.00101896 -7.75823e-22)
(4.27682e-05 0.000226102 -4.51974e-22)
(0.000782545 0.000124554 0)
(0.000732396 0.00135837 0)
(0.000690666 0.00123012 -9.55536e-22)
(0.000539864 0.000980576 1.0023e-21)
(0.000591876 0.00102983 0)
(0.000544255 0.00100768 -2.77888e-21)
(0.000534307 0.000835426 -3.02743e-21)
(0.000572854 0.00106627 0)
(0.000488892 0.000943891 0)
(0.000522582 0.000953292 -3.74899e-22)
(0.00040882 0.000309065 7.78382e-22)
(0.000548239 0.000767476 1.8706e-24)
(0.000559682 0.000960031 -2.24914e-22)
(0.000656677 0.00112829 3.73843e-22)
(0.000526716 0.000983999 1.08527e-21)
(0.000547378 0.000965819 -1.11843e-21)
(0.000803667 0.00128983 -2.32962e-21)
(0.00048997 0.00092956 7.38978e-23)
(0.000611618 0.000350429 -4.02251e-21)
(0.000506137 0.00110361 -1.81581e-23)
(0.00056533 0.00095762 -3.08995e-22)
(0.000624955 0.00116116 -1.54006e-23)
(5.04135e-05 7.64361e-06 -5.2374e-23)
(2.24146e-05 0.000101418 -1.69986e-21)
(0.000513569 0.000940537 1.26853e-21)
(0.00055157 0.000985107 -1.14958e-21)
(0.000801672 0.000806231 0)
(0.000560201 0.00093954 1.37078e-21)
(0.000516363 0.00110158 -6.54022e-23)
(0.000600934 0.00116685 -1.24602e-22)
(0.000587834 0.0010775 -2.36734e-21)
(1.44341e-05 8.24954e-05 -6.68953e-22)
(0.000635828 0.00112742 0)
(0.000569285 0.00102515 0)
(0.000521056 0.000982741 8.88658e-22)
(-6.28896e-06 3.68062e-05 5.85097e-24)
(0.00049985 0.00101156 0)
(0.000796266 0.00129597 9.70301e-22)
(0.000558945 0.000942752 1.47011e-21)
(7.31307e-05 0.000244095 0)
(0.000667422 0.00109898 0)
(4.83966e-05 1.18976e-05 5.09767e-23)
(0.000528539 0.000969622 2.61363e-21)
(0.000344523 0.000920579 1.2474e-21)
(0.000800017 0.00126868 6.31607e-22)
(0.000558532 0.0010292 -4.42351e-22)
(0.00051802 0.000982084 -3.26385e-22)
(0.000567361 0.000954176 0)
(0.000511137 0.000980784 -9.45961e-22)
(0.000589259 0.00102994 0)
(5.48891e-05 -2.21216e-05 -9.67619e-22)
(0.000764799 0.00125724 -2.99145e-21)
(0.000751035 0.00130809 1.63155e-21)
(2.16845e-05 0.000126216 2.75871e-21)
(5.85515e-05 -1.17288e-05 0)
(0.000728293 0.00130344 7.97783e-22)
(0.000607529 0.00113848 2.91723e-24)
(0.000531988 0.000969166 1.13012e-22)
(0.000562465 0.000974212 -4.9787e-22)
(0.000529147 0.00103101 1.26669e-22)
(0.000556902 0.000940622 -1.89618e-21)
(0.000553535 0.00099032 -9.47862e-22)
(0.000461956 0.00140535 -1.1722e-23)
(0.000592072 0.00103538 8.54875e-22)
(0.000486496 0.000899628 -1.904e-22)
(7.01983e-05 0.000288253 0)