/*--------------------------------*- C++ -*----------------------------------*\
  =========                 |
  \\      /  F ield         | OpenFOAM: The Open Source CFD Toolbox
   \\    /   O peration     | Website:  https://openfoam.org
    \\  /    A nd           | Version:  8
     \\/     M anipulation  |
\*---------------------------------------------------------------------------*/
FoamFile
{
    version     2.0;
    format      ascii;
    class       volVectorField;
    location    "1";
    object      U;
}
// * * * * * * * * * * * * * * * * * * * * * * * * * * * * * * * * * * * * * //

dimensions      [0 1 -1 0 0 0 0];

internalField   nonuniform List<vector> 
7843
(
(0.000694714 0.00121923 -3.93536e-22)
(0.000512604 0.000953699 1.66931e-21)
(0.000503736 0.000985246 0)
(0.000917315 6.17903e-05 1.04469e-21)
(0.000640694 0.00112044 -5.15442e-22)
(0.00107493 1.21651e-05 -1.22951e-22)
(0.000606927 0.000488079 -3.47774e-21)
(0.000512177 0.000951982 0)
(0.000215207 9.52896e-05 4.77726e-21)
(0.00055781 0.000957092 0)
(0.000550986 0.000994166 1.37585e-21)
(0.000680865 0.00121349 0)
(0.000306738 5.39504e-05 0)
(0.000559227 0.00102624 0)
(0.000573403 0.000942749 2.2628e-21)
(0.000549217 0.000888427 1.41658e-21)
(0.000547893 0.000987682 -1.63825e-24)
(0.00057624 0.000963067 0)
(1.42753e-05 0.000100963 1.42208e-21)
(0.000255148 0.000411474 0)
(0.000204648 0.000143583 4.10545e-21)
(0.000402617 0.000440162 -6.88225e-22)
(0.00055639 0.000997251 -3.27878e-24)
(8.67686e-05 0.000829974 -1.95109e-22)
(0.000739244 0.00115723 -9.48134e-22)
(1.79958e-05 -5.52908e-06 0)
(0.000368023 0.00141274 -9.81035e-23)
(4.65321e-05 0.000407831 4.13585e-21)
(0.000602537 0.0011512 -2.0397e-22)
(0.00104307 2.9384e-05 -1.18551e-21)
(0.000887784 0.000189434 -1.49026e-21)
(0.000449714 0.000962082 4.82645e-22)
(0.000789067 -7.14974e-05 1.38279e-21)
(0.000557799 0.00096136 2.19721e-22)
(0.000511622 0.000938802 1.3033e-21)
(0.000899851 0.00118948 -3.33097e-21)
(0.000568923 0.000938352 -9.7879e-22)
(0.000923716 0.000339369 -6.11044e-25)
(0.00108419 6.11109e-05 -1.59202e-22)
(0.000515333 0.000899372 1.39721e-21)
(0.00056394 0.000940399 -2.11172e-23)
(0.00055904 0.00100683 -1.58392e-21)
(0.00073428 0.00122443 0)
(0.000522603 0.000957737 -3.36689e-21)
(0.000221172 8.32542e-05 -1.44664e-21)
(0.00019125 0.000450623 9.52239e-22)
(0.000553464 0.0010123 1.45148e-21)
(0.000187265 0.000599567 1.91973e-21)
(0.000567221 0.000950476 1.73274e-21)
(1.09465e-05 3.36105e-05 3.7601e-23)
(0.00035265 4.91297e-05 -1.36573e-21)
(0.000525861 0.000963279 2.26352e-23)
(0.0004977 0.000958559 0)
(0.000748198 0.000507707 1.24041e-21)
(0.000676638 0.00109811 -3.6888e-22)
(8.17535e-06 8.58404e-05 0)
(0.000356553 0.000465275 3.63761e-21)
(0.00050539 0.000139513 1.40423e-21)
(0.000764155 0.00128986 -8.87944e-25)
(9.07699e-05 0.000166328 -1.8681e-21)
(0.000734554 0.00123085 6.45306e-22)
(0.00101152 0.000438358 1.33356e-22)
(6.89838e-05 0.000545874 -6.4448e-21)
(0.000851434 0.000133582 -2.56112e-21)
(0.000599139 0.00129671 1.48724e-23)
(0.000661945 0.0012676 -9.96761e-22)
(0.00076689 0.0012061 0)
(1.06613e-05 6.70032e-05 0)
(0.000575876 0.000505199 0)
(0.000740894 0.00123241 0)
(0.000360845 -0.000124232 -1.34353e-21)
(0.000549889 0.000940644 1.47483e-21)
(0.000243741 0.00102079 4.56343e-23)
(0.000100288 0.00016514 1.22096e-21)
(0.000335736 -8.05371e-05 -1.21876e-21)
(0.000575538 0.0011362 1.26059e-21)
(0.000733323 0.00122447 5.0143e-22)
(0.000731527 0.00123054 -2.14641e-22)
(0.000573653 0.000994211 0)
(0.000737579 0.000173687 0)
(0.000459743 -1.8073e-05 -1.92407e-21)
(0.000663018 0.00120551 0)
(0.000548363 0.00102428 -1.69176e-21)
(0.00066425 0.000306712 3.02115e-21)
(0.000603939 0.00100724 -1.0022e-21)
(0.0006011 0.000990697 -9.84949e-22)
(0.000446547 0.000363794 0)
(0.000747433 0.00124635 -1.57042e-22)
(0.000824272 0.000318008 -2.34863e-21)
(0.00021698 0.000443706 1.38987e-21)
(0.000186065 0.000182746 -7.79894e-21)
(0.000591929 0.000978514 -8.01016e-22)
(1.54609e-05 5.05925e-05 -3.83023e-25)
(0.000818727 0.000130426 4.45057e-21)
(0.00051179 0.000346276 0)
(0.000738497 0.00137526 1.48797e-21)
(2.66319e-05 6.88839e-05 -3.03517e-21)
(0.000237318 0.000891411 -4.40356e-23)
(0.000396794 3.49783e-05 2.07607e-21)
(0.00059327 0.00116106 -1.27177e-21)
(0.000317261 0.00100198 0)
(0.000418724 0.00109722 2.99687e-22)
(0.000344353 0.000392381 0)
(0.000563304 0.00148745 0)
(0.000209347 0.000197639 -1.98337e-21)
(0.000157341 0.00112917 -1.75704e-21)
(8.44401e-06 4.89513e-05 2.75748e-22)
(0.000355038 -0.000165564 -1.36465e-21)
(0.00041885 0.000880217 -1.11852e-21)
(0.000525177 0.000962885 0)
(0.000702579 0.00121758 1.95485e-23)
(0.00055404 0.000567602 -1.24834e-21)
(0.00104121 0.000424676 1.24496e-22)
(0.000582918 0.000965986 -1.12168e-21)
(0.000157115 0.000316348 -3.77697e-21)
(0.000771257 0.00112912 -9.80467e-22)
(0.000820325 0.000279046 -4.70806e-25)
(0.000694755 0.00125805 1.75274e-22)
(0.000182327 0.000207582 0)
(0.000595011 0.000977211 2.55531e-21)
(0.000629732 0.00113206 9.49418e-22)
(0.000573394 0.00113148 1.96095e-22)
(0.000498557 0.000971471 -1.40061e-21)
(0.000658996 0.00109967 4.22107e-22)
(0.000493349 3.5302e-06 -1.75729e-21)
(0.000363757 0.000497592 0)
(0.000605185 0.000938891 0)
(0.000213759 0.000838277 -3.12786e-21)
(0.000412971 0.000859002 -1.27105e-22)
(0.00107471 1.24178e-05 0)
(0.000589758 0.000979903 8.08807e-22)
(0.000176982 0.000382394 7.15755e-22)
(0.000357709 0.000175373 2.52023e-21)
(0.000624491 0.001124 -1.02356e-21)
(0.00047988 0.000961651 -3.6401e-21)
(0.000564818 0.000942113 -1.46433e-21)
(0.000956343 2.23177e-05 8.14797e-23)
(0.000316527 0.000703123 -2.75992e-23)
(0.000567203 0.000936635 -5.37848e-24)
(0.000746642 0.00123398 4.99367e-22)
(0.000476242 0.000108187 -1.4936e-21)
(0.000520791 0.000751766 1.82842e-21)
(0.000702049 0.000275842 9.31666e-23)
(0.000934495 -0.000204213 1.88019e-21)
(1.37258e-05 5.29304e-05 2.55741e-25)
(0.000747664 -2.82706e-05 1.10124e-21)
(0.000545006 0.00102055 -1.67622e-21)
(0.000464046 0.000944788 -2.47312e-23)
(0.000661682 0.000826578 2.31757e-21)
(0.000106435 0.000832748 1.76502e-21)
(0.000586273 0.000968079 9.75383e-24)
(0.000504631 0.000543311 -1.44333e-21)
(0.000731778 0.000150587 1.42354e-21)
(0.000593914 0.00098012 0)
(0.000766396 0.00120276 1.38658e-21)
(0.000542591 0.00100486 -1.47392e-21)
(6.25792e-05 0.000307705 -2.45514e-21)
(0.000206839 0.000382134 -1.00622e-21)
(0.000521301 0.000994915 3.49484e-21)
(0.000564008 0.000960463 0)
(0.000336161 9.64618e-05 2.98769e-21)
(0.000545666 0.00100024 -2.96569e-21)
(0.00129922 0.000436123 9.51827e-23)
(0.000544234 0.000998933 -2.28365e-23)
(0.000536295 0.00100136 -1.72897e-21)
(0.00051148 0.000963799 -7.14951e-22)
(0.000697221 0.000306541 -1.77876e-21)
(0.000160093 0.00113271 0)
(0.000555982 0.000961485 -3.74578e-22)
(0.000542828 0.00100133 1.52748e-21)
(0.000511846 0.000992932 0)
(0.000537509 0.00100379 1.68185e-21)
(0.000541064 0.00100225 -1.5923e-23)
(0.000129322 0.000309875 -3.87498e-21)
(0.000539898 0.00100404 -1.6275e-21)
(0.000312145 0.000101048 -4.01601e-25)
(0.000574519 0.00110146 0)
(0.000233392 2.83337e-05 1.62106e-22)
(0.000596572 0.00115974 1.44141e-21)
(0.000681886 0.00122544 -5.82273e-22)
(0.000606683 0.00101614 4.44245e-22)
(0.000564991 0.000954337 -8.92748e-23)
(4.32542e-05 0.000222555 -8.98085e-26)
(0.000512341 0.00099144 0)
(0.000526036 0.000969527 1.40807e-21)
(0.000415282 0.000558059 -6.09538e-23)
(8.78517e-06 4.52962e-05 3.50428e-23)
(0.000499695 0.000584119 1.35624e-21)
(0.000613464 0.00100632 0)
(0.000204472 0.000448823 0)
(0.000552849 0.000941625 -7.03228e-22)
(0.000499826 0.000882571 1.65008e-21)
(0.000800929 1.6291e-05 1.33218e-21)
(0.000323044 4.97845e-05 0)
(0.000498726 0.000979049 -1.52274e-21)
(9.96129e-05 0.000111642 4.43245e-22)
(2.36154e-05 -9.93991e-07 0)
(0.000247565 0.000332691 4.28929e-21)
(0.000741326 0.00123123 -1.79984e-22)
(0.000452919 0.000925803 1.84675e-21)
(0.000526151 0.000964697 3.38955e-21)
(0.000757056 0.00126197 2.97332e-22)
(0.00058866 0.000978745 1.56492e-21)
(0.000660455 0.00110719 6.18337e-22)
(0.000582699 0.00117927 1.81657e-22)
(9.43459e-05 0.000102907 -6.06857e-22)
(0.000768704 0.00134365 2.43981e-22)
(1.1507e-05 0.000170275 4.80532e-22)
(1.5375e-05 -8.31111e-06 -9.06507e-22)
(0.000590359 0.000979566 -8.64211e-22)
(0.000821166 0.000741983 0)
(0.000524859 0.000965071 -1.72855e-21)
(0.000490809 0.000724141 1.13049e-21)
(0.000681916 0.00124371 6.17188e-22)
(0.000767114 0.00120282 3.76961e-22)
(0.000446265 0.000901249 3.74446e-21)
(0.000708331 0.000232221 -3.17418e-22)
(0.000623123 0.00112165 0)
(3.11745e-06 9.35009e-07 0)
(0.000731723 0.000476404 0)
(0.000472464 0.00034413 6.39712e-22)
(5.94069e-05 0.000496513 4.77846e-22)
(0.000146253 0.000843918 0)
(0.0005359 0.000998602 1.72146e-21)
(0.00068415 0.000700431 3.09591e-22)
(0.00083157 0.000124552 0)
(0.00127395 0.000317387 0)
(0.000767443 0.00120647 0)
(0.000526193 0.000998972 4.54351e-24)
(0.000957208 0.000454314 0)
(0.000161357 0.000598128 0)
(6.94234e-06 4.17822e-05 -6.80957e-23)
(4.79455e-06 2.47937e-05 -5.9362e-22)
(0.000569222 0.000989595 2.54211e-22)
(0.000536615 0.000450376 -9.67707e-22)
(0.000768055 0.00120393 -7.41808e-22)
(0.000572009 0.00100108 0)
(0.000385312 0.000795847 -2.82024e-22)
(0.000767333 0.00120372 1.35717e-21)
(0.000320285 0.00115141 0)
(0.000629905 0.001124 -1.19037e-21)
(0.00056622 0.000939176 5.0089e-22)
(0.000636449 0.00112536 1.13802e-21)
(0.000544047 0.000998873 -1.15541e-21)
(0.000237903 0.0005571 0)
(0.000597161 0.00116022 3.49562e-22)
(0.00111131 0.000106772 1.51827e-22)
(0.000861544 0.000310016 -4.6026e-21)
(0.000518908 0.000963743 0)
(0.000567574 0.00094744 -2.34469e-23)
(0.000885614 9.8196e-05 4.14581e-22)
(4.23564e-06 1.92177e-05 -4.40429e-26)
(0.000609847 0.00100903 -1.92943e-21)
(0.000768289 0.00120444 0)
(0.000563567 0.00113893 9.64678e-23)
(0.000719859 0.00121323 -7.56212e-22)
(0.000367833 0.000708814 0)
(0.000768759 0.00120317 3.75403e-22)
(0.000394035 0.00148494 -8.65414e-23)
(0.000633939 0.000123516 -2.12727e-21)
(0.000833278 7.10614e-05 -8.63436e-22)
(0.000338368 0.000460813 -2.90078e-21)
(0.000404773 0.0010717 2.8538e-22)
(0.000766422 0.0012051 1.62513e-21)
(0.000723331 0.00122035 -6.33605e-22)
(0.000783184 0.000564047 5.4367e-21)
(8.6506e-05 9.45864e-05 1.54952e-22)
(0.000538951 0.00100259 0)
(4.51452e-06 2.19263e-05 5.91728e-22)
(0.000279277 0.000841714 -3.60398e-24)
(0.000455365 -5.5956e-05 -1.1962e-21)
(2.94758e-07 2.82245e-05 0)
(0.000347262 -0.000211324 1.33264e-21)
(0.000339244 0.00107497 0)
(0.000766589 0.00120487 1.91861e-21)
(0.000447496 0.000338243 -2.59962e-24)
(0.000668761 0.00110462 7.2247e-22)
(0.000571309 0.000998608 5.03967e-22)
(0.000468374 0.000522502 3.39707e-24)
(0.000560624 0.000845675 -1.50589e-21)
(0.000705755 0.00124387 3.63515e-22)
(0.000767598 0.00120471 -1.56561e-21)
(0.00059094 0.000979545 8.31044e-22)
(0.00048249 0.00035796 -2.45136e-21)
(0.000864861 8.51768e-05 -3.38155e-24)
(0.000106001 0.000121541 -2.72276e-22)
(0.0004459 0.000451924 1.26899e-21)
(0.000511767 0.000958035 1.46802e-21)
(0.00068121 0.00123921 6.09801e-22)
(0.000588745 0.000984619 4.76137e-24)
(3.98954e-06 1.66004e-05 -5.94131e-22)
(0.000754036 0.000171804 0)
(0.00100513 7.17903e-05 -5.76294e-21)
(0.000578377 0.000991815 -2.54617e-22)
(0.000318892 0.000521637 3.96954e-21)
(0.000778415 0.00115791 -1.84258e-21)
(0.000548909 0.000999477 0)
(0.00109006 0.000190133 -4.61071e-21)
(0.000529154 0.000783234 -4.13242e-22)
(0.000762208 0.00119756 2.11566e-21)
(0.00037517 0.000749201 -3.83615e-22)
(0.000191686 0.000403671 1.39675e-21)
(0.000554193 0.000939019 0)
(0.000617852 0.0011274 -7.83295e-22)
(0.000172864 0.000299551 0)
(0.000361682 0.000565312 -1.29361e-21)
(3.80311e-06 1.40835e-05 5.7631e-22)
(0.000430933 0.000863018 -1.60154e-21)
(0.000305444 0.000529431 -2.01611e-21)
(0.000175944 0.000558848 3.15569e-24)
(0.000327257 0.00053294 1.10369e-21)
(0.000432449 0.000809301 3.25581e-22)
(0.000817341 0.00026048 -1.80011e-21)
(0.000375354 5.55746e-05 -3.30067e-21)
(0.000249034 1.53763e-05 -1.29256e-21)
(0.000589093 0.000369323 -4.15456e-22)
(0.000535583 0.00100414 3.41359e-21)
(0.00054696 0.000853435 0)
(0.000452635 -0.00031038 0)
(0.000610693 0.00100214 9.21596e-22)
(0.000191178 4.1628e-06 8.60006e-22)
(0.000205286 6.23985e-06 0)
(0.000542079 0.00100286 -1.65475e-21)
(0.000765574 0.00120497 -2.17023e-22)
(0.000339327 0.000372582 -1.7292e-21)
(0.000198842 0.000693769 0)
(-0.00036037 -6.3035e-05 0)
(0.000288403 0.000270897 3.57151e-21)
(0.000159746 0.00057655 -1.11429e-21)
(0.000159683 1.85424e-05 0)
(0.000482154 0.000875647 0)
(0.000768091 0.00120431 1.58789e-21)
(0.000859734 -1.21128e-05 -4.65273e-22)
(0.000778465 0.000128064 2.74439e-21)
(-0.000114454 0.00123962 0)
(0.000239203 0.000462216 9.53601e-21)
(0.000360331 0.00094757 -1.09216e-22)
(0.000539236 0.00100852 -2.54257e-21)
(0.000724814 0.00118362 -4.09905e-21)
(0.000349622 0.000443681 -4.23762e-25)
(0.00021794 0.000458278 -1.16336e-21)
(0.000618259 0.00112567 -1.48731e-21)
(0.00024635 7.82914e-05 5.63712e-22)
(0.00055099 0.000870806 2.21917e-22)
(0.000329557 0.000659518 2.64892e-23)
(0.000357718 0.00109349 -8.93202e-23)
(0.000494576 0.00092804 7.47052e-22)
(0.000970274 0.000206466 1.42452e-21)
(0.000298834 0.000527427 2.1252e-24)
(0.000390051 0.00140691 0)
(0.00101678 7.63081e-05 1.06905e-21)
(0.000671027 0.00110189 8.20115e-22)
(0.000175354 2.99103e-05 2.55682e-22)
(0.000343404 2.66654e-05 -1.31693e-21)
(0.00059993 0.000856714 5.59549e-22)
(8.64573e-05 4.06929e-05 -2.94666e-22)
(0.000532083 0.000558648 1.26986e-21)
(0.00037386 0.000518395 3.71239e-21)
(0.00054214 0.00100276 -1.04386e-23)
(0.00059051 0.00098062 -1.7697e-21)
(-0.000191807 0.000160352 -2.25774e-22)
(0.000764953 0.00120641 -1.94782e-21)
(0.00118615 0.000224727 -9.71149e-22)
(0.000160678 0.000119789 -8.3434e-22)
(0.00093754 9.06273e-06 1.86429e-21)
(0.000610786 0.000976287 8.9621e-22)
(0.000551655 0.00106018 0)
(0.00100501 0.000237697 -1.6969e-21)
(0.000365454 0.00030732 -2.74701e-21)
(0.000546181 0.00104617 -2.33287e-22)
(0.00043676 0.0012506 0)
(0.000796941 0.000202009 1.83328e-21)
(0.000569739 0.000906185 6.21892e-22)
(0.000652499 0.000502128 5.41893e-21)
(0.000569793 0.000991755 6.72474e-22)
(-0.000428312 0.00016721 4.55845e-22)
(0.000542021 0.00100209 1.58766e-21)
(0.000514751 0.000989682 -1.50322e-21)
(0.000570191 0.000930098 0)
(0.000745042 4.06949e-05 0)
(0.000507043 0.000977495 -2.10636e-23)
(0.000219748 0.000350234 -1.25926e-21)
(0.000908709 0.000353132 -1.01451e-22)
(0.000407939 0.000522615 -2.37442e-21)
(0.000751147 0.00138232 4.56991e-23)
(0.000597609 0.00100002 0)
(0.000522671 0.000970971 1.35009e-21)
(9.16107e-05 0.000163448 -1.06915e-21)
(0.000354783 0.000641646 -1.23009e-22)
(0.000524148 0.00119233 8.7842e-22)
(0.00052653 0.000977109 2.09785e-23)
(0.000156545 0.000255023 -1.52764e-21)
(-2.2668e-05 0.000267509 1.88311e-21)
(2.04161e-05 3.35728e-07 0)
(0.000791939 0.000573177 -1.24164e-24)
(0.000619112 0.00112878 -3.59085e-24)
(6.20138e-07 1.20199e-05 -5.75332e-22)
(0.00157973 0.000427401 1.28094e-21)
(0.000546665 9.90121e-05 0)
(0.000570448 0.000996537 4.36076e-22)
(0.000576915 0.000996029 -7.59089e-22)
(0.000214429 4.75484e-05 -4.18913e-22)
(2.65053e-05 1.34928e-06 1.45809e-21)
(0.000125457 0.000982009 -2.5892e-23)
(0.000547131 0.00107054 1.81429e-21)
(0.000688191 0.00109857 4.41724e-22)
(0.000763445 0.00120452 1.78568e-21)
(0.000761677 0.00117759 1.96029e-21)
(0.000218415 -5.30293e-06 -1.19531e-21)
(0.000188235 0.00059765 -7.79384e-22)
(0.00115228 0.000163148 -7.24671e-22)
(0.000620559 0.00112514 -1.40765e-21)
(0.000420616 0.000873982 -3.75185e-21)
(0.000517783 0.000212362 -6.56819e-22)
(0.000480976 0.000889884 0)
(0.000489371 -6.30465e-06 1.96608e-21)
(3.20863e-06 7.12609e-06 -5.182e-22)
(0.000666349 0.00124497 4.8806e-22)
(0.000767311 0.00120403 -1.4606e-21)
(0.00053751 0.00100534 -1.67089e-21)
(0.000900398 0.000319022 0)
(0.000222887 0.000531402 -8.79621e-22)
(2.54495e-05 1.55243e-06 2.02809e-23)
(0.00050531 0.000967191 -3.8516e-22)
(0.000169312 0.0015806 -7.13677e-23)
(0.000118481 0.00126033 0)
(0.000316314 0.000498789 -1.349e-24)
(0.00020211 0.0010922 -1.60993e-22)
(0.000899564 0.000449629 4.28336e-22)
(0.000531124 0.000548548 -5.98095e-25)
(9.34955e-06 9.47206e-05 -7.23571e-23)
(6.50412e-05 4.05695e-05 0)
(0.000670299 0.00110485 1.55564e-21)
(6.53528e-06 3.78255e-05 -2.25728e-24)
(0.00182164 0.000781316 -2.84913e-21)
(0.000108993 0.000709262 0)
(0.000150643 0.000262415 -2.63107e-21)
(0.000539462 0.0010065 -5.58069e-21)
(0.000621852 0.00112659 0)
(5.1859e-05 4.45244e-05 2.12457e-21)
(0.000599759 0.000899331 0)
(0.000227797 0.000260344 -1.77747e-21)
(0.00091003 0.000172909 -1.38532e-21)
(0.000326905 -7.86607e-05 -2.155e-21)
(0.000675216 0.00112697 -1.37532e-21)
(0.00109467 0.000171282 0)
(0.000433844 0.000308426 0)
(3.10964e-05 0.00079387 -1.20781e-21)
(0.000643365 -0.000208741 -4.38366e-21)
(0.000584618 0.00115273 4.63367e-22)
(0.000569764 0.00100725 -1.07726e-23)
(0.000511483 0.000978082 0)
(0.000791912 0.000432849 0)
(0.00116366 0.000143136 1.60597e-21)
(0.00070456 0.000312678 -1.9518e-22)
(0.000566577 0.000948641 4.1295e-22)
(0.000753174 0.00118785 0)
(0.000324533 0.000288683 0)
(0.000434791 0.000990206 -2.41202e-21)
(8.04968e-05 3.61849e-05 -1.06854e-21)
(0.000512389 0.000420048 -1.46923e-21)
(0.000681814 0.00113283 -1.80432e-22)
(0.000320389 0.00124885 -2.48817e-22)
(0.000377168 0.00139349 -3.71703e-23)
(0.000545993 0.000418936 1.0505e-21)
(0.000397793 0.00137757 -1.19629e-23)
(0.000411211 0.000447383 -1.95814e-21)
(0.000330429 0.000478541 3.06749e-21)
(1.55159e-05 -4.40588e-06 0)
(0.000897594 0.000688606 -1.36098e-21)
(0.000481711 0.000877945 -4.47888e-22)
(0.000566889 0.0010236 4.4903e-22)
(0.000147564 -2.13267e-05 0)
(7.69515e-06 8.36171e-05 0)
(0.000109159 0.000449847 2.45602e-21)
(0.000563537 0.00101545 5.75113e-22)
(0.000474762 0.00095031 0)
(6.34962e-05 2.67065e-05 -1.86527e-21)
(0.00016599 0.000623407 -7.27394e-22)
(0.000588921 0.000987942 9.37526e-22)
(0.00125714 0.000226106 -1.58966e-21)
(0.000377088 0.000370655 0)
(0.000857522 0.00016851 -3.24332e-21)
(0.000183507 0.000224725 -1.92682e-21)
(0.000916029 0.000629649 1.97287e-21)
(0.00071973 0.000432319 -2.6869e-22)
(0.000611171 0.00100564 -1.62998e-23)
(0.000402589 0.000922421 2.39031e-21)
(0.000109956 0.00069427 -5.7241e-24)
(0.000609531 0.00100441 -1.74067e-23)
(0.000497723 0.000980281 -2.60579e-23)
(0.000413135 0.00119537 -1.89638e-22)
(9.32173e-05 4.50512e-05 1.38135e-21)
(0.000540979 0.00101568 -5.33696e-22)
(0.000266262 0.000347741 -2.22338e-21)
(0.000923491 3.43192e-05 -8.93096e-22)
(0.000115675 0.00104221 -3.42397e-23)
(0.000163771 0.000808881 -3.62895e-24)
(0.000478307 0.000341318 -1.39943e-21)
(1.7803e-05 2.60774e-06 -3.05961e-22)
(0.000568488 0.000940425 -9.74986e-22)
(0.00014954 -8.59221e-06 -1.12859e-21)
(0.000571675 0.000997468 1.76261e-22)
(-0.000309276 0.00130576 -1.64257e-21)
(0.000551286 0.000947461 7.11535e-22)
(0.00057018 0.000989459 4.67754e-22)
(0.000568325 0.00100282 -1.77503e-22)
(0.000225925 0.00011668 -2.09133e-21)
(0.000567722 0.000947592 7.46721e-22)
(0.000491679 0.000769589 0)
(0.000251048 3.29533e-05 7.86733e-22)
(0.00093258 4.14715e-05 0)
(0.000621057 0.00112675 -9.87021e-22)
(0.00061 0.00100456 8.93595e-22)
(0.000653716 0.000578407 1.57386e-21)
(0.000544011 0.00104838 -1.53703e-21)
(0.000204669 0.000648313 1.95405e-21)
(0.00137035 0.000341343 0)
(0.000275313 0.000199995 0)
(0.00106255 0.000509538 -1.10089e-22)
(0.000376099 0.000798458 2.27232e-21)
(0.000421654 0.000761376 -5.18356e-21)
(0.00065464 0.000955968 -4.74838e-22)
(0.000765037 0.0012058 -1.75798e-21)
(0.000791848 0.000550904 1.44063e-21)
(0.000492958 0.000972892 0)
(0.00068804 0.00109001 0)
(0.000320908 0.000270375 -1.46173e-21)
(0.000219799 0.000695649 -1.16431e-21)
(0.000782583 0.000334857 2.79218e-21)
(1.58858e-05 -6.94012e-06 3.61732e-22)
(7.13212e-05 3.47973e-05 1.02996e-21)
(0.000519529 0.000964347 -3.0862e-23)
(0.000134639 -2.23819e-05 6.52308e-22)
(0.000385332 0.000329836 1.33139e-21)
(-0.00014166 0.000225453 0)
(1.34927e-05 0.000322213 1.60132e-22)
(5.73232e-05 4.67944e-05 0)
(0.000683405 0.00109051 0)
(0.000644561 0.000509093 5.40785e-22)
(0.000552168 0.000949464 -6.90037e-22)
(0.000205723 0.000174549 -4.45883e-21)
(0.000688175 0.00108764 1.63287e-21)
(0.000663642 0.00123675 -1.37231e-22)
(0.000590789 0.0010126 1.00416e-21)
(0.000569854 0.000373959 0)
(0.000521087 0.0011847 2.39508e-22)
(0.000527763 0.000936972 0)
(0.000660258 0.00126499 -6.38776e-22)
(0.000537691 0.0010057 3.24868e-21)
(9.74332e-05 0.00025775 -2.51309e-24)
(0.000685175 0.00127679 1.91084e-21)
(0.000940196 9.94214e-05 0)
(4.38988e-05 0.000388553 -5.87467e-22)
(0.000484315 0.000573469 7.40925e-22)
(0.00052235 0.000962305 1.72134e-21)
(0.000260542 0.000870468 -8.7823e-21)
(-0.000551434 0.00096695 3.14753e-22)
(3.87442e-05 6.04851e-05 -2.19261e-21)
(0.000571116 0.000991039 -2.66692e-22)
(0.000475751 0.00085905 4.87274e-21)
(0.000604824 0.00114272 -4.14737e-22)
(0.00071179 0.00129664 -1.88463e-21)
(0.000515551 0.00097696 1.32196e-21)
(0.000928389 8.40037e-05 -1.15677e-21)
(0.000571892 0.000995492 1.97235e-22)
(0.00020855 0.000140244 3.42277e-21)
(0.000604418 0.00113999 7.07668e-22)
(0.000610063 0.000997137 2.2298e-21)
(0.000135735 0.000560518 1.519e-21)
(0.000675037 0.00126776 1.861e-21)
(0.000707123 0.00123025 -5.86234e-23)
(0.000517156 0.00095301 1.50593e-22)
(0.000911362 0.000170035 0)
(5.75464e-05 0.00060349 -5.56485e-22)
(0.000535539 0.00113524 1.94356e-21)
(0.000606038 0.000935089 1.09734e-23)
(0.00055047 0.000345697 -6.13863e-21)
(0.00114588 9.30316e-05 0)
(0.00057238 0.00117755 -6.06866e-22)
(0.0001791 -0.000122697 1.68992e-21)
(0.00095658 5.05563e-05 0)
(0.000636583 0.00113774 -8.12045e-22)
(0.000997014 -0.000177723 -3.11136e-21)
(0.000100032 5.00793e-05 -5.44562e-22)
(0.00107008 0.000355521 3.22687e-25)
(4.22158e-05 0.000418255 1.89148e-22)
(0.000671478 0.00126326 0)
(0.000957325 0.000334847 1.08373e-21)
(0.000681066 0.000241374 0)
(0.000328513 0.000450832 0)
(0.00040358 0.000364614 0)
(9.27576e-05 -3.99213e-05 -2.55716e-21)
(0.000618685 0.00112666 -1.05001e-21)
(0.00131608 0.000549801 -5.06449e-21)
(0.000739464 0.00125582 5.78352e-22)
(0.000289322 0.00013649 -6.12081e-22)
(0.000368581 0.000899366 -1.67535e-21)
(0.000119077 -4.07603e-05 0)
(0.00103144 0.000158132 8.46395e-22)
(0.000836344 0.000528414 3.88542e-22)
(3.38299e-05 5.12641e-05 1.21991e-21)
(0.000653111 0.00104423 4.33434e-22)
(9.09637e-05 0.00101285 0)
(0.000234047 0.00126598 1.35466e-22)
(0.000838834 0.00136976 -1.78879e-21)
(0.000670208 0.00126044 1.81755e-21)
(0.000591758 0.000957558 0)
(0.000479755 0.000877827 1.37856e-21)
(2.19262e-05 0.000312496 7.18219e-22)
(0.00018042 -9.85899e-05 2.14085e-21)
(0.000506453 0.000978777 -1.5926e-21)
(0.00080289 0.00106201 1.1336e-21)
(0.000623256 0.000694362 -3.81349e-22)
(0.000668526 0.00110183 9.96489e-22)
(0.000668857 0.00126186 -1.79135e-21)
(9.81847e-05 -4.55942e-05 2.53192e-21)
(0.000622794 0.0011273 -1.06143e-23)
(0.000541646 0.00104315 0)
(0.000673123 0.000431335 7.25543e-22)
(5.70969e-05 4.95406e-05 0)
(0.00112418 1.65487e-05 9.78929e-22)
(0.000544182 0.000845977 1.55616e-21)
(0.000208762 0.000430986 1.39367e-22)
(0.000667662 8.3815e-05 -2.86554e-23)
(0.00036049 0.000508662 -4.42171e-21)
(0.00133934 0.000320895 3.31244e-22)
(0.000974236 0.00022873 -1.27818e-22)
(0.000528503 0.000504723 3.8444e-21)
(0.0005189 0.000967385 0)
(0.000369288 0.000609242 -5.81698e-22)
(0.000405686 0.000819686 0)
(0.000376836 0.00109163 1.35239e-21)
(0.000769901 0.00121383 1.30031e-21)
(0.000782103 0.00059218 1.56884e-21)
(0.000344308 0.00115714 -1.04222e-22)
(0.000422279 0.000338353 0)
(0.000230895 0.000243924 0)
(0.000145751 -9.48418e-05 -2.09736e-22)
(0.000183147 0.000362812 7.87837e-22)
(0.000265558 0.000612041 -4.24094e-22)
(0.000155869 0.000564568 0)
(0.000741707 0.00131297 1.63059e-23)
(0.000568979 0.000937028 0)
(0.000513521 0.000964474 -1.3142e-21)
(0.000611225 0.00102649 8.65261e-22)
(0.00024308 0.000582061 -1.03529e-21)
(0.000621176 0.0011279 -1.20297e-21)
(0.000439966 0.000772731 1.82723e-21)
(0.000922528 6.34255e-05 1.44403e-21)
(0.000193219 4.76414e-05 2.3606e-22)
(2.22212e-05 2.56115e-06 -5.47752e-22)
(0.000131169 -0.00018815 0)
(0.000312953 0.000515303 1.31774e-21)
(0.000113778 0.000616953 2.18199e-21)
(0.000649448 0.000211011 3.0459e-21)
(0.000418454 0.000301532 0)
(0.00017186 0.000308266 3.54444e-21)
(0.00068716 0.00108917 -2.06077e-22)
(0.000607548 0.00100291 3.08831e-21)
(0.000769366 0.00134479 -1.4562e-23)
(0.000331261 0.00020619 0)
(0.000219584 1.65387e-05 2.95447e-22)
(0.000553625 0.000326098 0)
(0.000568627 0.00101439 -3.24478e-22)
(0.000195891 4.37711e-05 0)
(0.000412623 0.00052319 2.54976e-22)
(0.00100297 0.000381065 1.24847e-22)
(0.000564154 0.000952732 -8.11466e-22)
(0.000638164 0.00117062 1.27526e-22)
(0.000356799 0.000549131 -1.51708e-21)
(0.000442423 0.000816153 1.26697e-21)
(0.000476232 0.00089157 -1.09551e-21)
(0.000218807 0.000546122 -1.49464e-21)
(0.000171719 2.98409e-06 0)
(0.000128706 0.000662617 2.01824e-21)
(0.000446122 0.000864871 0)
(0.000843635 0.000282535 2.28723e-21)
(0.000347899 0.000457427 1.78987e-21)
(0.000765657 0.00120022 -1.84169e-21)
(2.32663e-05 3.19653e-05 1.52875e-22)
(0.000597185 0.00116031 -3.42338e-22)
(0.000130903 -3.87905e-05 -1.24826e-22)
(0.000537935 0.00103987 -1.97974e-22)
(0.000759517 0.000594354 0)
(0.000952371 -4.7767e-05 -1.35804e-22)
(0.000646695 0.00111259 -4.06267e-22)
(0.00076118 -0.000368504 -3.73923e-24)
(0.00081603 1.53806e-05 2.87674e-21)
(0.00117221 0.000615069 -2.94797e-21)
(0.000481118 0.000978301 0)
(0.000487269 0.000881503 -1.50805e-21)
(0.000766018 0.0011989 -2.10646e-21)
(0.000601867 0.00100162 1.60149e-23)
(0.000441639 0.000692048 1.64041e-21)
(6.76625e-05 0.00060456 6.68217e-21)
(0.000943579 0.000275959 4.75224e-22)
(0.000189958 0.000239871 0)
(0.000684085 0.00131757 -1.90585e-21)
(0.000373364 0.000135532 0)
(0.000194418 0.000483301 7.80851e-22)
(0.00068132 0.00110014 4.28606e-22)
(0.00109345 6.522e-05 -6.12243e-22)
(0.000415942 0.000863344 2.97792e-21)
(0.000595815 0.000982953 3.2622e-22)
(0.000393269 -7.10398e-05 -1.06634e-21)
(0.000175402 0.000103366 6.58488e-22)
(4.20192e-05 0.000256401 -1.85533e-21)
(9.97586e-05 0.00104196 1.85844e-21)
(0.000148696 1.89815e-06 -1.05596e-21)
(0.000608834 0.000999935 -1.07982e-21)
(0.000142923 7.74057e-05 -6.12103e-22)
(0.000614167 0.00107924 -1.14481e-22)
(0.000280183 0.000338605 -8.47451e-22)
(0.000401113 0.00114059 0)
(0.000210861 -5.00292e-05 -2.52883e-21)
(0.000945127 -1.11006e-05 6.59102e-22)
(0.000540891 0.00100363 3.12297e-21)
(0.000161198 6.18993e-05 -3.06379e-21)
(0.000688559 0.00128882 -1.89576e-21)
(0.00110199 5.575e-05 -1.32511e-21)
(0.00027205 0.000163868 3.06825e-22)
(0.000462547 8.51813e-05 0)
(0.000555759 0.000964013 1.59625e-21)
(0.000638678 0.00114645 4.94133e-22)
(0.000116196 0.000643191 5.43796e-22)
(0.00081547 0.000587826 0)
(0.000709133 0.00059035 3.89265e-21)
(0.000102571 -1.11316e-05 -1.15549e-21)
(0.001377 0.000358185 -3.81252e-22)
(0.000694612 -8.00462e-05 -2.06987e-21)
(0.00117645 0.000260996 7.57636e-22)
(0.000607185 0.0011375 0)
(0.000255177 0.000550431 0)
(0.00059235 0.00106537 1.48575e-22)
(0.000618707 0.00112883 8.40769e-22)
(0.000585167 0.00124152 -4.32835e-22)
(0.000984783 0.00120411 1.64959e-21)
(0.000614739 0.00117283 1.68793e-21)
(0.000636883 0.000340182 9.46376e-22)
(0.00049594 0.000980419 0)
(0.000525996 0.00100405 -5.13022e-23)
(0.000487054 2.15631e-05 7.4019e-22)
(0.000763956 0.000537326 -2.74799e-22)
(0.000182458 6.76566e-05 -4.14933e-26)
(0.000240927 -0.00017819 2.241e-21)
(0.000196626 0.000589128 7.74563e-22)
(0.000189871 0.00044645 1.32309e-21)
(0.000265826 0.000465214 3.21142e-21)
(0.000367237 0.000565448 -2.04619e-21)
(0.000329589 0.000561127 -7.08383e-22)
(0.000198115 0.000660854 -1.28915e-21)
(9.55882e-05 -1.69859e-05 -3.75446e-24)
(6.24509e-05 0.000675691 -3.60881e-21)
(0.000318205 0.00110152 0)
(0.000656236 0.00104208 0)
(0.000712028 0.000570517 0)
(0.00058559 0.000491957 2.73805e-21)
(0.000644139 0.00111201 6.69671e-22)
(0.000846308 0.000473896 4.26101e-21)
(0.00103033 0.000338888 0)
(0.000295739 0.000334322 4.26477e-22)
(0.00019073 0.000633218 9.74506e-22)
(0.000552827 0.000949358 1.35452e-21)
(4.49517e-05 3.47705e-05 0)
(0.000890545 2.05481e-05 -1.98505e-21)
(0.000152973 0.000407305 1.08894e-21)
(0.0007307 0.000514963 -5.37632e-22)
(0.000298231 0.000522785 4.86643e-22)
(0.000341156 0.000329557 2.14372e-21)
(0.000554176 0.00101609 0)
(6.33341e-05 2.92232e-05 2.88948e-22)
(0.000146239 -7.84864e-05 -2.61226e-22)
(0.000628483 0.00124186 5.1239e-22)
(0.000602207 0.0010524 -9.15046e-22)
(0.000577641 0.000912629 6.06213e-22)
(0.000583373 0.00104425 7.10555e-22)
(0.000970656 3.55744e-05 -3.89965e-22)
(0.000221613 0.000602034 0)
(0.000383068 0.000100849 -2.43151e-21)
(0.00076125 0.00118384 0)
(0.00098105 0.000109605 0)
(0.000631543 0.00115247 -3.00963e-22)
(0.000330727 0.000812453 -1.88506e-21)
(0.000668553 0.00127533 -1.23983e-22)
(6.60759e-07 9.70169e-06 -5.73783e-22)
(0.000360256 0.000475254 -2.26676e-21)
(9.98832e-05 2.46832e-07 -3.09567e-21)
(0.00059029 0.00107358 2.80322e-22)
(0.000175368 0.000477754 -8.12903e-22)
(0.000127752 0.00050341 1.12718e-21)
(0.000740878 -6.96119e-06 2.06871e-21)
(0.000552606 0.000976807 0)
(0.000995013 0.000319349 7.35054e-22)
(0.000728636 0.000934347 1.43569e-22)
(0.000300623 0.000470762 1.55861e-21)
(0.000117155 -4.84244e-05 -3.58631e-23)
(0.000452315 6.08699e-05 1.10611e-23)
(0.000319098 0.000359191 -4.12366e-21)
(0.000310127 0.000452859 1.84549e-21)
(9.40357e-05 9.73724e-06 -1.41956e-21)
(0.000235139 0.000429446 -3.93599e-21)
(0.000773716 0.00115407 -2.47475e-21)
(0.000619519 0.00112674 2.0813e-21)
(0.000348883 0.000534334 -1.47967e-21)
(0.000617703 0.00112843 -8.39438e-22)
(0.000710136 0.000200521 -8.96836e-22)
(0.000286813 -0.000151105 -3.84098e-21)
(0.000296888 0.00055137 -2.81439e-21)
(0.000682551 0.00109174 1.55921e-21)
(0.00121962 0.000229715 -1.57056e-22)
(0.000666845 0.00110394 6.75452e-22)
(0.000175008 0.000138815 -1.45153e-21)
(0.000564793 0.000896439 8.75777e-22)