/*--------------------------------*- C++ -*----------------------------------*\
  =========                 |
  \\      /  F ield         | OpenFOAM: The Open Source CFD Toolbox
   \\    /   O peration     | Website:  https://openfoam.org
    \\  /    A nd           | Version:  8
     \\/     M anipulation  |
\*---------------------------------------------------------------------------*/
FoamFile
{
    version     2.0;
    format      ascii;
    class       volVectorField;
    location    "1";
    object      U;
}
// * * * * * * * * * * * * * * * * * * * * * * * * * * * * * * * * * * * * * //

dimensions      [0 1 -1 0 0 0 0];

internalField   nonuniform List<vector> 
5119
(
(0.000766335 0.00125772 1.38974e-22)
(0.00021144 7.14603e-05 6.09592e-21)
(0.000837746 1.80429e-05 -3.6197e-21)
(0.000583957 0.000770204 -5.7361e-24)
(0.000805498 0.00117101 2.88912e-22)
(0.000870332 0.000143114 1.88508e-21)
(0.000272855 0.000202074 -1.86677e-21)
(3.43231e-05 -4.59339e-06 -9.08349e-23)
(0.000293682 0.000986155 -1.52992e-21)
(0.000835539 0.00136453 1.26037e-22)
(0.000624849 0.00079494 4.70844e-24)
(0.000600095 0.00100315 -4.65628e-22)
(0.00061034 0.000997391 -3.13088e-22)
(0.000688694 0.000470367 1.43417e-21)
(0.000696345 0.00117691 -1.10086e-22)
(0.000608149 0.000951132 0)
(0.000776795 0.00122464 4.17626e-22)
(0.000730194 0.00117175 -1.90873e-22)
(0.000803448 0.00138884 4.39214e-22)
(0.00062008 0.00106225 9.10575e-23)
(0.000628414 0.00104662 4.05602e-22)
(0.000556967 0.000919337 1.09438e-21)
(0.000545543 0.000926437 -2.31768e-22)
(0.000667147 0.00110025 1.69001e-22)
(0.00061229 0.000992205 0)
(0.000838382 0.00135577 1.02216e-21)
(0.000557976 0.000926209 0)
(0.000574603 0.000947036 1.22377e-22)
(0.000590952 0.000973216 4.73315e-22)
(0.000574266 0.00091705 1.47997e-22)
(0.000660146 0.00104047 -5.15669e-22)
(0.000604144 0.000992405 -1.13302e-23)
(0.000572246 0.000925878 7.68884e-22)
(0.000660431 0.00111066 0)
(0.000820195 0.00136701 -1.45389e-22)
(0.000612168 0.000977595 4.69592e-22)
(0.000585169 0.000933317 4.59402e-22)
(0.000596246 0.000951539 6.17401e-23)
(0.000485207 0.000912825 -7.43428e-25)
(0.000557792 0.000916347 1.30433e-21)
(0.000549104 0.000151334 -1.33529e-23)
(0.000687347 0.0012468 -5.91489e-22)
(0.000667772 0.00113035 3.19995e-22)
(0.000585437 0.00101531 0)
(0.000570949 0.000987859 -3.27666e-22)
(0.00057887 0.000166768 -2.84637e-21)
(0.000696863 0.00120965 -1.0715e-21)
(0.000590091 0.00100291 0)
(0.000669896 0.00112954 1.36441e-23)
(0.000664415 0.00114669 -2.98991e-22)
(0.000581671 0.000403286 -2.22488e-21)
(0.00013053 0.000630957 -1.46494e-21)
(0.000924438 6.5804e-05 -7.69917e-22)
(0.000606825 9.42491e-05 3.0685e-21)
(1.80891e-05 0.000428463 -4.36563e-21)
(0.00057322 0.000925272 1.18159e-21)
(0.000668019 0.000775153 5.45828e-24)
(3.72648e-05 -1.08769e-06 1.27732e-21)
(0.000661392 0.00115581 0)
(0.000765899 0.00134908 0)
(0.000480206 0.000917305 -1.98851e-21)
(0.000553858 0.000966961 3.12732e-21)
(0.000585714 0.00102793 0)
(0.000681847 0.00118666 1.74691e-21)
(0.000445888 7.46192e-05 1.66998e-21)
(0.000684032 0.00118346 1.22912e-21)
(0.000720924 0.000348693 5.02994e-24)
(0.000852238 0.000577869 1.48805e-21)
(0.000675633 0.00118249 0)
(0.000701214 0.000509415 -4.35857e-22)
(0.000194947 0.00036257 1.90446e-24)
(0.000184271 -1.93467e-05 -6.60572e-21)
(0.000877992 0.000332501 2.03379e-21)
(0.000565152 0.000990037 5.75267e-22)
(0.000600535 0.000977173 -1.97946e-21)
(0.000774804 0.00125443 0)
(0.000313587 0.000110599 1.36079e-21)
(0.00062207 0.00024417 8.41962e-22)
(0.000744502 0.0013205 0)
(0.000655835 0.00116899 -1.09886e-21)
(8.55921e-06 0.000718112 0)
(0.000945213 0.000536251 0)
(0.000813587 0.00136092 0)
(0.000576007 0.00123767 4.25538e-23)
(0.000572894 0.000113961 0)
(0.000596955 0.00108143 2.57128e-22)
(0.000746558 -5.68747e-05 3.23937e-21)
(0.000597273 0.00103605 2.74303e-21)
(0.000454754 0.000986662 7.39753e-23)
(0.00047738 0.00103358 0)
(0.000464041 0.00100596 0)
(0.00044648 0.000969956 0)
(3.65891e-05 -1.00641e-06 -2.06467e-21)
(0.000413954 0.000776038 -2.002e-21)
(0.000568578 0.00101209 0)
(0.000395847 0.000668102 3.39591e-21)
(0.000891634 -3.7482e-05 0)
(0.00055623 0.000981343 2.19624e-21)
(0.000663935 0.000778045 2.0494e-21)
(0.000552959 0.000972653 -2.08888e-22)
(0.00067691 0.00122277 9.61294e-22)
(0.00056321 0.000985693 0)
(0.00141788 0.000987418 -3.53876e-21)
(0.00081254 0.00140188 -6.51412e-22)
(0.000308902 0.000117789 2.95192e-21)
(3.7976e-05 4.89506e-06 1.51979e-21)
(0.00069731 0.00117453 -2.86019e-21)
(0.000552222 0.000304924 6.3972e-22)
(0.000806546 0.000574863 1.8742e-22)
(0.000609271 2.75973e-05 0)
(0.000436742 0.00112146 -3.57158e-21)
(3.58967e-05 1.99936e-06 -9.50591e-26)
(0.000239642 -2.76595e-05 1.18041e-21)
(0.000644999 0.00110711 -2.96392e-22)
(0.000315604 0.000166834 6.02485e-21)
(0.000428889 0.000606958 -3.21942e-22)
(0.000502177 0.000794417 -2.55193e-21)
(4.01739e-05 5.46814e-06 -2.85202e-21)
(0.000469638 0.000565665 -5.60316e-21)
(0.000620949 0.00111981 1.8183e-22)
(0.000734869 0.00035043 0)
(0.000671747 0.00114873 -9.66632e-22)
(0.00014242 0.000828775 -6.35964e-22)
(0.000556608 0.000944929 1.81804e-21)
(0.000707 0.00124779 -2.44574e-21)
(0.000794278 0.00134564 6.9513e-22)
(0.000592433 0.00102056 -6.03924e-24)
(0.000806795 0.00143362 -3.98962e-22)
(0.000680592 0.0011576 6.71843e-22)
(0.000533285 0.000907607 -4.59881e-22)
(0.000579679 0.00101374 -1.909e-21)
(0.000528798 0.000922089 -3.43519e-22)
(0.000713321 0.00123371 -7.18225e-22)
(0.000628435 0.00109361 -6.29735e-22)
(0.00074654 1.33336e-05 -2.1436e-21)
(0.000559531 0.000324301 2.05771e-24)
(0.000593397 0.00111791 0)
(0.000577524 0.000995224 0)
(0.000240392 0.000323749 1.79117e-21)
(0.000675015 0.00115274 0)
(0.000562134 0.000989414 -1.45088e-21)
(0.000544311 0.000973799 5.00948e-22)
(0.000555292 0.00098221 3.97602e-22)
(0.000564878 0.000967757 1.67567e-22)
(0.00060522 0.00104129 5.3027e-22)
(0.000587849 0.00101219 2.29361e-22)
(0.000540566 0.000936654 -1.57034e-22)
(0.000566751 0.000981852 0)
(0.000551377 0.000956038 -1.57558e-22)
(0.000801258 0.000840942 -4.88286e-22)
(0.000529912 0.0010039 0)
(0.000888177 0.000163061 0)
(0.000605662 0.00103387 0)
(0.000372255 0.000768007 3.27235e-21)
(0.000325013 0.000561214 3.03599e-21)
(0.000704119 0.00127539 5.47335e-23)
(0.000370508 0.000647213 4.07938e-21)
(0.000841343 3.21928e-05 0)
(0.000271846 0.000262712 1.45859e-21)
(0.000158685 0.000689001 2.96239e-22)
(0.000808168 0.00132191 -1.48314e-21)
(7.10102e-06 1.95786e-06 0)
(0.000138455 0.000263452 -3.18331e-21)
(0.000673621 0.00113971 -1.38017e-21)
(3.82033e-05 3.29518e-06 7.09282e-22)
(0.000938858 0.000253489 3.48417e-21)
(3.47745e-05 0.000194811 -8.736e-21)
(0.000150999 -1.35129e-05 -2.09725e-21)
(4.15453e-05 -1.36727e-06 2.51344e-21)
(0.000144133 0.000574771 0)
(0.000256888 0.000348316 2.35075e-22)
(0.000765292 0.00129757 6.59336e-22)
(0.000450945 0.000542681 3.19829e-21)
(0.000453405 0.000450813 -3.20329e-22)
(0.000383691 0.000592882 3.29064e-21)
(0.000534113 0.00048313 -3.10408e-21)
(0.000141883 0.000316858 3.24132e-24)
(0.000714961 0.00124495 1.68706e-22)
(3.72096e-05 7.35302e-06 -2.39207e-21)
(0.000720563 0.00128693 3.40366e-22)
(0.000816096 0.00033987 -4.37963e-21)
(0.00070599 0.000379651 0)
(0.000589137 0.00098903 0)
(0.000576125 0.0010166 -2.00306e-21)
(0.000258296 7.41271e-05 -3.88106e-21)
(0.000423061 0.000707669 -5.38029e-22)
(0.000449734 9.98127e-05 1.59477e-21)
(0.000310763 0.000300014 -1.52923e-21)
(0.000556875 0.000372799 -2.42905e-21)
(0.000256189 0.000183344 -1.56155e-21)
(0.000140908 0.000689714 0)
(0.000540675 0.00104063 -6.27737e-22)
(0.000637177 0.00115804 1.41043e-21)
(0.000504291 0.00052905 2.83838e-21)
(2.62071e-05 -5.31265e-06 0)
(0.000282591 0.000691693 0)
(0.00069479 3.90197e-05 -2.02489e-21)
(0.000668769 0.000386675 7.44018e-21)
(0.000289682 0.000783653 1.48225e-21)
(0.000933677 0.00023199 3.03986e-22)
(0.000134844 -1.32863e-05 -5.56428e-21)
(0.000893012 0.00152842 0)
(4.32322e-05 2.9146e-06 -2.55186e-22)
(0.000685299 0.00120664 -4.53757e-22)
(0.000607698 0.00106897 0)
(0.000643974 0.00113119 3.50134e-22)
(0.000566722 0.000954699 1.60508e-21)
(0.000511952 0.000999191 -4.66665e-21)
(0.000306562 0.000408301 1.12531e-21)
(0.000771439 0.000549075 -6.28431e-21)
(0.000163084 0.000246571 3.17535e-21)
(0.000501284 0.000980612 6.58393e-23)
(0.000925697 0.00026521 -3.40512e-24)
(0.000572267 0.00111912 -2.1088e-21)
(0.000584555 0.000302905 5.94185e-22)
(0.000327712 0.000402129 -1.44473e-21)
(0.000240555 0.00031308 3.7378e-25)
(0.000434296 0.000847133 -1.6963e-21)
(0.000281914 0.000615632 -2.88353e-24)
(0.000328996 0.000289155 1.06033e-21)
(0.000873113 0.00142584 1.54363e-21)
(0.000400725 0.000631639 0)
(3.29145e-05 7.78722e-06 0)
(0.000488843 0.000990201 -1.05845e-21)
(0.000432536 0.000601784 -1.61194e-22)
(0.000518251 0.000802317 0)
(0.000240179 0.000103919 -1.77325e-24)
(0.000659869 0.000193423 0)
(0.000732788 0.00128431 0)
(0.000600352 0.00108004 3.23281e-22)
(3.42457e-05 1.79755e-05 -5.6404e-21)
(0.000678001 0.00116058 -7.04884e-22)
(0.000558209 0.00098261 1.07451e-21)
(0.000686568 0.00119856 2.42029e-21)
(0.000782103 0.00135147 0)
(0.000272133 0.000370362 1.2806e-22)
(0.00061784 0.0010753 2.30558e-21)
(0.00054153 0.000921925 0)
(3.62296e-05 0.000389909 4.78481e-22)
(0.000324282 0.000847791 -3.00613e-22)
(0.000425801 0.000577801 -3.56223e-21)
(0.000126253 0.000246708 5.70587e-24)
(0.000393869 0.000712719 6.22736e-23)
(0.001174 0.00129638 0)
(0.000720227 0.00134893 -1.65748e-21)
(0.000775387 0.00139499 -4.00694e-22)
(0.000691481 0.00115865 -5.52865e-22)
(0.000300492 0.000370263 2.09009e-21)
(0.000541001 0.000942009 5.12354e-22)
(0.000529825 0.000962152 2.26847e-22)
(0.000593244 0.00102679 0)
(0.000842815 0.00141884 0)
(0.000579925 0.00101044 0)
(0.000626852 0.00113045 4.12056e-22)
(0.000595 0.00102621 -5.82039e-22)
(0.000544974 0.000958698 -1.42814e-21)
(0.000611013 0.00105425 0)
(0.000539215 0.000961586 -2.84372e-22)
(0.000777958 0.00145705 6.53613e-22)
(0.000824918 0.000490749 -1.11313e-21)
(0.000291487 0.000281318 0)
(9.48762e-05 -0.000174954 -1.02204e-21)
(0.00114123 0.000876843 0)
(0.000630447 0.0011178 6.16006e-22)
(0.000558304 0.000971204 5.8945e-22)
(0.000572914 0.000989452 3.17847e-22)
(0.000663998 0.00114498 -7.80209e-22)
(0.000554807 0.000976752 0)
(0.000177318 0.000315281 2.40865e-22)
(0.000790241 0.00136679 -8.58071e-22)
(0.000539922 0.000350136 6.64345e-22)
(1.45455e-05 -9.31552e-06 0)
(0.000727976 0.00124089 6.39536e-22)
(0.000684941 0.0012249 2.88729e-21)
(0.000812077 0.00133012 1.1441e-22)
(0.000885317 7.35361e-05 4.38972e-21)
(0.0014666 0.00130782 2.92723e-21)
(0.000573542 0.000911902 0)
(0.000645333 0.00112497 6.77918e-23)
(0.000787408 0.00143964 1.65182e-21)
(0.00059874 0.00105578 1.55997e-21)
(0.000542821 0.00101881 -5.7098e-22)
(0.000528513 0.00099281 -7.50915e-22)
(0.000554827 0.00100493 5.22148e-22)
(0.000537305 0.000972544 0)
(0.000649557 0.00112532 -9.23628e-22)
(0.000781941 0.00141519 4.53413e-22)
(0.000580572 0.00108456 0)
(0.000791251 0.00136638 3.07753e-22)
(0.000618846 0.00108038 6.51327e-23)
(0.000624742 0.00111366 -1.53162e-21)
(0.000542072 0.000970614 -5.03253e-22)
(0.000548158 0.000975897 6.80798e-22)
(0.000155249 0.00023728 7.0452e-21)
(0.000724137 0.00130522 1.76245e-22)
(0.000530385 0.00109548 -1.78878e-21)
(0.000610833 0.00104611 0)
(0.00050128 0.000522763 2.96604e-22)
(2.28623e-05 0.000103385 1.88227e-21)
(0.000569432 0.00100767 0)
(0.00135473 0.000269869 0)
(0.000682761 0.0011924 6.8604e-22)
(0.000259615 0.000534103 0)
(0.000865075 8.7651e-05 3.77493e-21)
(0.000467125 0.000534774 0)
(0.000987822 0.000249178 0)
(0.000901697 0.000244057 0)
(0.00061583 0.00106782 1.56858e-22)
(0.000446382 0.000655763 3.77906e-22)
(0.000654658 0.000971326 3.35917e-24)
(0.000620627 0.00105531 -2.3556e-22)
(0.000585494 0.000947399 0)
(0.000564011 0.000928333 1.01029e-21)
(0.000606914 0.000957471 -4.21077e-22)
(0.000782797 0.00133408 0)
(0.000650967 0.00110954 5.30203e-22)
(0.000249408 7.79004e-05 8.08251e-21)
(0.00078853 -0.000185918 2.62567e-21)
(0.000754248 0.00134414 -5.10158e-22)
(0.000751971 0.00128664 -1.01018e-21)
(0.000667765 0.000808308 2.06573e-22)
(0.000525515 0.000927801 2.6954e-24)
(0.000673398 0.00109271 -1.01151e-21)
(0.000880724 0.000125589 0)
(0.000392516 0.000743591 -1.70361e-21)
(0.000564347 0.00100217 -4.5174e-22)
(0.000757237 0.000667147 -3.76173e-21)
(0.000680842 0.00120226 -7.87168e-22)
(0.000645088 0.0011491 1.6451e-24)
(6.56514e-05 0.000563315 -3.36012e-21)
(0.000558529 0.000995038 1.05431e-21)
(0.000803951 0.00135947 -1.41505e-21)
(0.000563147 0.0011241 2.18894e-22)
(0.000260154 0.000330472 1.42948e-21)
(0.000884397 1.93696e-05 0)
(0.000754658 0.00122243 2.18586e-22)
(0.000516323 0.000966559 -5.02295e-22)
(0.000663273 0.0012327 1.81168e-21)
(0.00069255 0.00117513 -3.6065e-22)
(0.000802205 0.00126584 -2.7392e-22)
(0.000575089 0.0010227 1.59951e-21)
(0.000623993 0.000990747 4.19121e-22)
(0.000653976 0.000801275 5.62257e-23)
(0.000764698 0.00134171 -5.49031e-22)
(0.000561897 0.00098023 -1.34076e-21)
(0.000541364 0.000881195 -1.69603e-22)
(0.000662397 0.00105204 -7.06517e-22)
(0.000527189 0.00091746 0)
(0.000323229 0.000566639 1.89293e-21)
(0.000275206 0.000648866 0)
(0.000607175 0.00105495 -5.78755e-22)
(0.000577095 0.000909444 -1.59695e-21)
(0.000653428 0.00103445 5.22257e-22)
(0.000734959 0.00111202 -1.37425e-21)
(0.000550259 0.00109205 -9.42679e-22)
(0.000597224 0.000948524 -3.00712e-21)
(0.000640653 0.00100366 0)
(0.00063393 0.000994175 0)
(0.000617499 0.000971724 -3.8096e-22)
(0.000754749 0.00125919 1.70535e-21)
(0.000770566 0.00125893 6.10321e-22)
(0.000573219 0.000930893 -2.64558e-23)
(0.000578426 0.000946873 0)
(0.000547625 0.000924647 9.32391e-22)
(0.000604688 0.000900711 -3.18917e-22)
(0.00059392 0.000973023 -3.99968e-23)
(0.000791319 0.00122175 0)
(0.000560242 0.000900637 4.81577e-22)
(0.000578665 0.000931723 -1.19867e-21)
(0.000594809 0.000956289 7.04575e-22)
(0.000572885 0.000910945 0)
(0.000769209 0.0012239 -4.47529e-22)
(0.000838665 0.00135799 1.81383e-21)
(0.000837678 0.00131528 1.70573e-21)
(0.000508835 0.000694489 -4.83287e-24)
(0.00076931 0.000620363 3.14074e-21)
(0.000600182 0.000425242 2.23992e-21)
(0.000509964 0.000539842 -1.74718e-21)
(0.000660261 0.00118141 3.73554e-22)
(0.000924107 2.34401e-05 1.89748e-21)
(0.000158791 0.000662926 0)
(0.000288981 0.000255179 -1.91231e-21)
(0.000928278 0.00148395 -5.25494e-22)
(0.000730053 0.00125036 3.1853e-22)
(0.000516169 0.000972008 0)
(0.000691149 0.00123194 1.59064e-21)
(2.39672e-05 2.59064e-07 -4.75586e-26)
(0.000586724 0.000946862 3.53449e-22)
(0.000655763 0.00104685 3.10424e-22)
(0.000538032 0.000911119 9.9262e-22)
(0.00105516 0.000234689 -3.96828e-21)
(0.000875899 0.000192241 -2.65338e-21)
(0.000664476 0.0012048 -1.20476e-21)
(0.000568165 0.000287926 -5.78549e-22)
(0.000525546 0.000895438 0)
(0.000520176 0.000885916 5.09458e-22)
(0.000540709 0.000864024 9.15586e-23)
(0.000582487 0.000941623 -3.59084e-22)
(0.000566042 0.000915717 -1.76251e-22)
(0.000743734 0.000393588 -2.93724e-21)
(0.000600119 0.00106181 4.80184e-22)
(0.000361114 0.000273872 5.68023e-22)
(1.97126e-05 -7.55373e-06 -6.94768e-25)
(0.000600081 0.00114342 7.41404e-22)
(0.000676077 0.00114114 -1.91849e-21)
(0.00103755 0.000589406 1.45259e-24)
(5.60376e-05 0.000778485 0)
(3.90558e-05 9.63955e-06 1.32347e-21)
(9.09082e-05 0.000513344 0)
(0.000527142 0.000870449 -1.24069e-21)
(0.000442033 0.000963342 0)
(0.000723877 0.00123197 0)
(0.000608912 0.00101573 8.81658e-22)
(0.000567361 0.000977571 0)
(0.000541512 0.000934236 -1.18882e-22)
(0.000551994 0.000952063 1.83343e-22)
(0.000245919 0.000786105 -2.84052e-21)
(0.000569387 0.00103057 -1.53e-21)
(0.000652418 0.00109236 0)
(0.000748703 0.00028527 4.34549e-21)
(0.000563267 0.000272909 4.94931e-21)
(0.000529172 0.000904061 0)
(0.000446099 0.000550461 3.45801e-21)
(0.000568966 0.000352388 1.59561e-21)
(0.000279465 0.00034609 -4.92377e-22)
(0.000496798 0.000637731 4.15685e-22)
(0.000862804 0.00027512 3.4122e-21)
(0.000558537 0.000994819 6.28142e-22)
(0.00049563 0.00123463 0)
(0.000810031 5.95921e-05 1.44904e-21)
(0.000632498 0.0011185 4.55722e-22)
(0.00067469 0.000938805 3.02092e-22)
(0.000707339 0.00116568 -2.96977e-23)
(0.00100888 0.000219628 -4.56371e-21)
(0.000280161 0.000504931 0)
(0.000635107 0.000424426 0)
(0.000541571 0.00105423 -1.24669e-21)
(0.000566981 0.00106014 -2.31133e-21)
(0.000864741 0.000113462 3.7768e-21)
(0.00037953 0.000310908 2.28499e-21)
(-1.73547e-05 0.000693794 2.46152e-22)
(0.000815924 0.000358685 0)
(0.000348898 0.000757962 9.09181e-22)
(0.000499809 0.000920461 0)
(0.000518744 0.000954272 9.64925e-23)
(0.000533167 0.000980311 0)
(0.000508675 0.00093607 0)
(0.000310877 0.000275347 5.42994e-25)
(0.000723595 0.00098622 3.15234e-22)
(0.000709411 0.00124429 2.57793e-22)
(0.00127793 0.000804004 -1.72985e-21)
(3.66805e-05 5.64925e-05 0)
(0.000812201 0.0013818 -1.20198e-21)
(0.000541495 0.000975516 0)
(0.000753177 0.00134574 0)
(0.000733999 0.0012922 -7.15463e-22)
(0.000534859 0.000943891 -2.05656e-23)
(0.000518016 0.000914107 3.3596e-22)
(0.000523882 0.000975458 2.36484e-22)
(0.00053882 0.00100285 -9.65343e-22)
(0.00053329 0.000929482 -1.47178e-21)
(0.000752448 0.00137788 -6.20736e-22)
(0.000555267 0.000990215 -6.51421e-24)
(0.000577422 0.000950573 0)
(0.000320168 0.000383717 -5.25833e-22)
(0.000485305 -0.000129008 2.57478e-21)
(0.000752811 0.00125823 -1.45394e-21)
(0.0006055 0.00104725 -2.4136e-22)
(0.000633335 0.00102207 -4.41271e-22)
(0.00053664 0.00090388 5.298e-22)
(0.00063777 0.00102756 9.8802e-22)
(0.000703045 0.00112409 4.99553e-22)
(0.000589205 0.000970747 1.31308e-21)
(0.000582278 0.000935482 1.29046e-21)
(0.000612132 0.00101218 0)
(0.000637962 0.000980893 -1.09696e-21)
(0.000586445 0.000971554 0)
(0.000760077 0.00119854 -7.4766e-22)
(0.000794896 0.0012332 5.52841e-22)
(0.000568428 0.000927209 2.31045e-22)
(0.000581575 0.000920416 -5.19137e-22)
(0.00058275 0.000953123 -1.24019e-21)
(0.000547176 0.000888312 7.99073e-22)
(0.000592631 0.000916117 -1.3209e-21)
(0.000783429 0.00122746 -1.43497e-21)
(0.000513931 0.000903686 -8.85471e-24)
(0.000568315 0.000967474 -1.10639e-21)
(0.00055243 0.000942052 -4.34087e-22)
(0.000545275 0.000921165 -6.43963e-22)
(0.000735473 0.00122411 0)
(0.000816437 0.00133313 0)
(0.00082176 0.00130302 0)
(0.000184167 4.68982e-05 4.83151e-24)
(0.00109517 0.000617489 9.84315e-24)
(0.000444586 3.62726e-05 -8.33367e-22)
(0.000645286 0.00116782 -5.9297e-22)
(0.00060662 0.00114454 -1.84117e-23)
(0.000332851 0.000138881 5.0933e-21)
(0.000884806 4.90795e-05 0)
(0.000454441 0.000440954 1.16896e-24)
(0.00117251 0.000369679 3.29702e-21)
(0.000609781 0.000241064 1.87904e-21)
(0.000628204 0.00114179 2.96788e-21)
(3.5642e-05 0.00067767 -3.20152e-21)
(0.000807535 0.000233993 -4.02244e-21)
(0.000640413 0.00117402 0)
(2.28798e-05 0.000544768 0)
(0.000789751 0.00132319 1.37596e-21)
(0.000436512 0.00115448 -1.81563e-21)
(0.000485755 0.000800293 -2.36969e-22)
(0.000461528 0.000785435 -2.17869e-22)
(0.000634885 0.00107789 -7.91641e-23)
(0.000457114 0.000787154 -5.23256e-22)
(0.000646306 0.00113489 0)
(0.00054141 0.00096597 3.83489e-22)
(0.000680441 0.00118158 5.39701e-22)
(0.000311742 0.000605961 2.76621e-21)
(0.000421078 0.000470841 0)
(0.000192879 0.000231842 2.9482e-21)
(0.000397738 0.00055581 6.18556e-21)
(0.000815797 0.00140881 6.21263e-22)
(0.000595958 0.000966062 4.3782e-22)
(2.7518e-05 2.39272e-05 1.12391e-21)
(0.000416681 0.0010014 1.89965e-21)
(0.000129733 0.000712843 2.10532e-21)
(0.000813856 0.00146986 -5.21085e-22)
(0.000762228 0.00132519 2.88186e-22)
(0.000672365 0.00114153 1.25618e-23)
(0.000849621 0.00016042 8.86303e-22)
(0.000775541 0.00133213 2.26084e-21)
(0.0007566 0.00137142 -1.67851e-21)
(0.000736061 0.00124188 -1.88383e-22)
(0.000628218 0.00118623 0)
(0.000534475 0.000945243 0)
(0.000650789 0.0011623 3.31442e-22)
(0.000178481 0.00023164 -6.89695e-21)
(0.000838752 1.09428e-05 -4.47384e-21)
(0.00065362 0.000990228 4.54737e-22)
(0.00067034 0.000713238 -1.95758e-21)
(0.000656554 0.00110351 -2.39502e-22)
(0.000510667 0.000905688 -1.83376e-21)
(0.00065003 0.0011605 -6.07637e-22)
(0.000968643 0.00139499 6.74426e-22)
(0.000805518 0.00138685 5.28922e-22)
(0.000824791 0.00137733 0)
(0.000603447 0.00100349 1.6967e-21)
(0.000573958 0.000962163 -2.34856e-21)
(0.00111881 0.000398823 2.52832e-21)
(0.000654803 0.00074037 -1.76488e-21)
(0.000690696 0.00118118 1.34508e-22)
(0.000862961 0.000514507 1.26135e-23)
(0.000480752 0.00101896 0)
(0.000634137 0.00017905 0)
(7.82779e-05 -0.000131462 -1.81052e-22)
(0.000838865 5.56339e-06 0)
(0.000585074 0.00104154 -1.91587e-21)
(0.000672958 0.00120144 -4.98764e-23)
(0.000590046 0.00102247 0)
(0.000399356 0.000664875 7.73851e-22)
(0.000526235 0.000878169 0)
(0.000387338 0.000781719 0)
(8.14412e-05 4.39497e-05 0)
(0.000478589 0.000766573 1.93621e-21)
(0.00075791 0.00126165 -7.82035e-25)
(0.000882208 2.09084e-05 -4.44172e-21)
(3.5612e-05 1.06528e-05 -2.70264e-21)
(0.00077513 0.000473576 3.39978e-21)
(0.000669945 0.00121799 -9.22869e-23)
(0.000265239 0.000307087 -1.92036e-21)
(0.00174543 0.000180485 -2.60502e-21)
(9.87266e-05 0.000845416 -9.93376e-22)
(0.000673561 0.00115201 0)
(0.000845653 0.000204232 0)
(0.000867888 7.2192e-05 -3.63781e-21)
(0.000886937 0.000357668 -2.20748e-21)
(0.000727235 0.00122995 -6.07223e-22)
(0.000323472 0.000713168 -1.08766e-21)
(0.000607959 0.000250517 0)
(0.000813187 0.000212837 0)
(2.13945e-05 -1.11522e-05 -2.92326e-21)
(0.000269731 0.000989573 -1.11875e-22)
(0.000255229 0.000942833 3.23302e-23)
(0.000362595 0.00130309 0)
(0.00114791 0.000998639 2.1971e-21)
(0.00074118 0.000554347 -8.55417e-24)
(0.000479957 0.000509258 -1.51139e-21)
(0.000998463 0.000157396 -5.49046e-24)
(0.000785684 -2.65919e-05 -2.13759e-21)
(0.000527981 0.000867455 -7.23851e-24)
(0.000820746 0.00129759 3.89167e-22)
(5.32152e-05 4.66297e-05 6.03384e-25)
(0.000501208 8.00346e-05 -1.24629e-21)
(3.68295e-06 2.88722e-05 -3.17496e-22)
(0.000710299 0.00122902 -3.67232e-22)
(0.000706614 0.000525895 2.67664e-21)
(0.000248057 0.000331308 -1.87356e-21)
(0.000822254 0.00148456 3.11089e-21)
(0.000556306 0.00102255 -5.05715e-22)
(0.000599245 0.00111241 -5.01183e-22)
(0.00058348 0.00108373 -7.24797e-22)
(0.000568669 0.00100287 -8.8007e-22)
(0.000866382 0.00142709 1.86131e-22)
(0.000592546 0.00107227 0)
(0.000797826 0.00135039 -7.72084e-22)
(0.000565173 0.000999525 2.07577e-22)
(0.000516185 0.000975199 0)
(0.000823115 8.39529e-05 4.89483e-21)
(0.000165013 0.000879068 -1.98046e-21)
(0.00017492 0.000205334 4.7972e-21)
(3.1109e-05 -9.72436e-05 3.03535e-21)
(0.000524581 0.00114209 -1.02108e-21)
(0.00084557 0.00020458 0)
(0.000910853 0.000532042 -4.37503e-22)
(0.000621291 0.00115727 1.91351e-21)
(0.000703366 0.00123771 5.34761e-22)
(0.000806092 0.000166859 -2.04639e-24)
(0.000515626 0.000449853 1.91323e-21)
(3.12409e-05 4.90932e-05 0)
(0.000739338 0.00124765 0)
(0.000253894 0.00023749 -3.95725e-21)
(0.000601741 0.000291342 8.93699e-25)
(0.00028449 0.000325349 4.86062e-22)
(0.000472512 0.000736565 -5.54759e-22)
(0.000452058 0.000150778 1.54854e-21)
(0.000698191 0.00124274 0)
(0.000655529 0.0012334 -4.39588e-22)
(0.00131401 0.000782529 0)
(2.64693e-05 5.42888e-05 -1.00849e-20)
(0.000589992 0.000350439 -4.40253e-21)
(0.000625014 0.000312899 5.76217e-22)
(0.000819734 0.000198972 -1.84941e-21)
(3.54594e-05 0.000484361 4.18145e-21)
(0.000531657 0.00104799 4.23014e-22)
(0.000640517 0.00111694 1.52527e-23)
(0.000593904 0.00103734 -3.67571e-22)
(0.00098005 0.000417689 8.06198e-21)
(0.000484916 0.000999805 -1.42012e-21)
(0.000760604 0.0013598 -2.13355e-22)
(0.000550587 0.000995227 0)
(0.000605886 0.0010982 0)
(0.00076823 0.0013626 8.63575e-22)
(0.00052583 0.000942799 -4.33985e-22)
(0.000540752 0.000968983 -4.3926e-22)
(0.000551537 0.00100931 0)
(0.000513507 0.000939137 1.85708e-22)
(0.000610069 0.00111849 0)
(0.000514509 0.000925824 0)
(0.000769252 0.00136419 -1.02175e-21)
(0.000439042 0.000464157 -1.18043e-21)
(0.000611547 0.00108516 1.88111e-21)
(0.000297024 0.000670864 -1.87644e-21)
(0.000729811 0.0013999 1.1325e-22)
(0.000752001 5.05334e-05 1.89341e-21)
(0.000844006 0.000215844 1.69002e-21)
(0.000360625 0.000604556 3.16028e-21)
(0.000245851 4.91349e-05 0)
(1.66905e-06 0.000159518 -6.51415e-21)
(0.000640034 0.00123539 1.34843e-23)
(0.00082787 0.000285097 -2.06177e-21)
(3.45473e-05 6.97145e-06 -3.03051e-21)
(0.000562921 0.00101736 1.74536e-21)
(0.000562535 0.00100618 2.59533e-22)
(0.000476353 0.000976822 0)
(0.000655297 0.00117843 -2.73761e-21)
(0.000580311 -9.26057e-05 -7.00124e-21)
(0.000687994 0.00126349 5.20446e-22)
(0.000202369 0.000757631 0)
(1.09617e-05 0.000197094 -4.30571e-25)
(0.000767971 0.000685929 -2.3848e-22)
(0.000845088 0.0014754 0)
(0.000601171 0.00106764 2.12498e-22)
(0.000896205 4.42102e-05 0)
(5.63514e-06 0.000222665 2.47509e-21)
(2.66183e-05 0.00100982 -2.06712e-21)
(0.000115484 0.000640136 2.24235e-21)
(0.000626376 -0.000102047 2.90798e-21)
(0.000699546 0.00118164 -1.36406e-21)
(0.000152727 0.00030967 0)
(0.000552692 0.000153794 -9.64273e-22)
(0.000886323 0.000626658 -1.86109e-21)
(0.000791622 0.00133277 0)
(0.000698103 0.00117437 4.06591e-22)
(0.000607943 0.00103351 -9.95981e-22)
(0.000644295 0.00106943 0)
(0.000532632 0.00094107 -1.30991e-23)
(0.000496802 0.000194466 9.0201e-22)
(0.00034532 0.000646135 7.93152e-23)
(0.000331242 0.000618221 1.31593e-23)
(0.000465831 0.000862597 1.00297e-22)
(0.000679678 0.00122696 1.43515e-21)
(0.00088557 0.000191232 0)
(0.00084866 6.10817e-05 2.0622e-21)
(0.000555382 0.000972416 -9.68221e-22)
(0.000204941 0.000284875 -3.26365e-21)
(0.000514988 0.000927252 0)
(0.000394718 0.000650562 1.86449e-23)
(0.000450771 0.000744773 2.10888e-23)
(0.000690517 7.8128e-05 4.93146e-24)
(0.000620494 0.00112143 -2.60639e-22)
(0.000581197 0.00107289 5.01701e-22)
(0.00058316 0.00106007 -1.46371e-21)
(0.000506349 0.000934544 0)
(0.000512383 0.00092359 6.42739e-22)
(0.000568771 0.000961152 0)
(0.000521052 0.00065952 -8.47464e-25)
(0.000540791 0.00092511 0)
(2.76516e-05 0.00017558 -4.96998e-25)
(0.000596436 0.000177861 4.68166e-22)
(0.000459231 0.00052577 -1.62305e-21)
(9.81989e-05 4.91688e-05 0)
(0.000886419 0.000284824 0)
(0.000431669 5.66484e-05 -8.58776e-24)
(0.000606792 0.000744307 2.26701e-21)
(0.000956957 0.000572523 8.82679e-22)
(0.000603232 0.00102089 -2.76433e-22)
(0.000413519 0.000453941 9.96169e-22)
(0.000601843 0.00115792 -3.40624e-21)
(0.000671996 0.00120827 -3.3672e-22)
(0.000600288 0.00116169 2.38311e-21)
(0.000517874 0.00018156 0)
(0.000827402 0.000434641 -6.79347e-22)
(0.00062194 0.0010165 1.38771e-23)
(0.000286612 0.000302577 0)
(0.000572236 0.00101108 -7.14382e-22)
(0.000465617 0.000557876 -6.9345e-21)
(0.000164366 0.000189758 2.54395e-21)
(0.000809556 0.00142657 1.78748e-22)
(0.000783506 0.000649429 -2.64044e-21)
(0.000447496 0.00101114 8.02449e-22)
(0.00105824 1.00857e-05 -2.43182e-21)
(0.000658169 0.000535873 1.56277e-21)
(0.000813156 0.00132257 -1.10753e-22)
(0.000484269 0.000575659 1.50991e-24)
(0.00115443 0.000384435 -7.22156e-22)
(0.000397736 0.00032451 1.83808e-21)
(0.000298826 0.000531826 1.22261e-23)
(0.000304859 0.0005425 1.24555e-23)
(0.000313505 0.000557792 1.28058e-23)
(0.000377834 0.000671298 -8.75445e-23)
(0.000293599 0.000522607 4.43192e-23)
(0.000177437 0.000181922 0)
(0.000721492 0.000515791 0)
(0.000570223 0.00103487 -2.6261e-21)
(0.000832541 2.55962e-05 0)
(0.000170811 3.14573e-05 2.61561e-21)
(2.11909e-05 6.28916e-05 4.72572e-21)
(0.000496203 0.000380448 -1.89622e-21)
(0.000406942 0.000626585 3.09989e-21)
(0.00111104 0.000673882 4.82694e-21)
(0.00057423 0.00104309 6.37173e-22)
(0.000580625 0.00100101 -1.30587e-21)
(0.000589935 0.00107022 3.23658e-22)
(0.000676559 0.00111717 -1.43488e-21)
(0.000836568 0.00149746 0)
(0.000608971 0.0010387 3.60147e-22)
(7.1549e-05 5.02882e-05 2.69015e-21)
(0.000869019 0.000296273 2.23497e-21)
(0.000479932 0.00096955 -1.30716e-21)
(0.000518328 0.00102111 -1.00145e-21)
(0.000588825 0.00113901 -4.58696e-22)
(0.000528275 0.000947417 5.09698e-22)
(0.000489216 0.000931402 5.58619e-22)
(0.000485404 0.000942644 1.25537e-21)
(0.000530278 0.00110119 1.2875e-23)
(0.000425166 0.000907853 0)
(0.000552522 0.00108926 -9.53166e-22)
(0.000496977 0.00097799 8.12849e-22)
(0.000528737 0.00115588 -6.10726e-22)
(0.000596834 0.00119293 -9.67659e-22)
(0.000442274 0.000887337 -2.86719e-22)
(0.000419261 0.000884952 6.0247e-22)
(0.000607656 0.00120448 0)
(0.00038569 0.00084492 -1.3086e-21)
(0.000468543 0.000884113 3.2751e-22)
(0.000481424 0.000908058 6.18214e-22)
(0.000556606 0.00112076 -2.7005e-22)
(0.000456927 0.000911636 -2.55287e-22)
(0.000477422 0.00094849 0)
(0.000464594 0.000923176 5.16932e-22)
(0.000476015 0.000930408 0)
(0.000452823 0.000872595 2.64435e-23)
(0.000617497 0.00122074 -1.89433e-23)
(0.000652192 0.00127518 1.94024e-23)
(0.000664126 0.00130778 0)
(0.000455253 0.000955646 4.53591e-21)
(0.000676273 0.00133359 9.20722e-22)
(0.000729064 0.0013612 -2.92093e-21)
(0.000440434 0.000904003 -1.12156e-21)
(0.000458351 0.000889508 0)
(0.00051605 0.00100164 -1.04728e-21)
(0.000561353 0.00114935 5.54791e-22)
(0.000508422 0.000936889 0)
(0.000863872 0.000137497 -1.66056e-21)
(0.000737536 0.00121117 3.15703e-22)
(2.6893e-05 7.90607e-06 1.54578e-21)
(0.000706504 0.00126561 -2.30197e-22)
(0.000906547 -1.58337e-05 -1.94555e-21)
(4.52336e-05 2.36546e-06 3.2749e-21)
(4.10633e-05 -3.00153e-06 0)
(0.000120918 0.00029078 1.719e-21)
(0.000549023 0.000964128 -5.54389e-22)
(0.000571222 0.00103557 0)
(0.000641425 0.00109877 -2.65007e-21)
(1.51635e-05 5.33991e-05 -2.96136e-21)
(0.00022704 0.000479307 0)
(8.38712e-06 -1.00618e-05 -2.63273e-21)
(0.00074093 0.00014108 2.31314e-21)
(0.000820758 2.71804e-05 -8.5426e-22)
(0.000606438 0.0010176 2.12342e-21)
(0.000361625 0.000978739 -8.48056e-22)
(0.000270832 0.000395335 -1.44258e-22)
(0.000432175 0.000859844 2.34456e-21)
(0.000199219 0.000560315 -2.35604e-21)
(0.00105878 0.000428213 1.07141e-22)
(0.000159866 0.000802586 2.3609e-21)
(0.000804435 0.000333672 1.1123e-21)
(7.3955e-05 4.18514e-05 4.82162e-21)
(0.00100246 0.000168671 5.39945e-21)
(0.000585304 0.001048 -1.98873e-23)
(0.000585734 0.000256278 -2.98246e-21)
(0.00105123 0.000252035 5.06569e-24)