/*--------------------------------*- C++ -*----------------------------------*\
  =========                 |
  \\      /  F ield         | OpenFOAM: The Open Source CFD Toolbox
   \\    /   O peration     | Website:  https://openfoam.org
    \\  /    A nd           | Version:  8
     \\/     M anipulation  |
\*---------------------------------------------------------------------------*/
FoamFile
{
    version     2.0;
    format      ascii;
    class       volVectorField;
    location    "1";
    object      U;
}
// * * * * * * * * * * * * * * * * * * * * * * * * * * * * * * * * * * * * * //

dimensions      [0 1 -1 0 0 0 0];

internalField   nonuniform List<vector> 
4320
(
(0.000644868 0.00168808 6.12573e-22)
(0.000591815 0.00145794 2.15865e-22)
(0.000609902 0.00168516 0)
(3.56757e-05 -3.57219e-07 9.85815e-22)
(0.000651923 -1.25422e-05 0)
(0.000733917 0.00177134 0)
(0.000711228 0.0018302 1.89917e-22)
(0.000633578 0.00189382 5.97015e-24)
(7.23774e-05 0.00145569 -1.39505e-21)
(0.000526176 0.00162933 -4.03262e-22)
(0.00065841 0.00174941 -4.1917e-22)
(0.000695639 0.0017023 -6.0434e-24)
(0.000682941 0.00176071 4.16965e-22)
(0.000582981 0.0017219 1.70116e-21)
(0.000850869 0.000810019 2.30346e-21)
(0.000684981 0.0017367 8.90763e-22)
(0.000485972 0.00155718 -3.84056e-21)
(0.000435861 0.000646572 -4.95463e-21)
(0.000671914 0.00173016 -6.93875e-25)
(0.000686065 0.00173937 0)
(0.000681784 0.00173907 1.22089e-21)
(0.000637165 0.00188053 9.37304e-22)
(0.000417997 0.000504305 5.40935e-21)
(0.000566553 0.00176403 -4.69513e-22)
(0.000659736 0.0016444 1.3158e-21)
(0.000675134 0.00178061 2.82903e-21)
(0.000714354 0.00158379 3.19429e-21)
(0.000645686 0.00173366 -3.09236e-22)
(0.000565828 0.0017484 -9.90144e-22)
(0.000478544 4.03872e-05 1.97306e-21)
(0.000651351 0.00169415 -7.81602e-22)
(0.000642696 0.00191702 0)
(0.000642083 0.0018702 4.82874e-24)
(0.000579798 0.0017356 -3.73319e-21)
(0.000568201 0.00155854 -4.99981e-23)
(0.000528263 0.00174162 3.71282e-23)
(0.000681915 0.00173332 -1.15674e-21)
(0.000788478 0.0016561 -3.63326e-22)
(0.00110953 1.20303e-05 2.48642e-22)
(0.000482916 0.00154979 1.68935e-21)
(0.000617914 0.0017431 -3.50936e-22)
(0.000651818 0.00168262 7.1839e-22)
(0.000441617 0.000171421 0)
(0.000749879 0.00162613 3.02407e-21)
(7.69725e-05 0.000713677 1.05708e-21)
(0.000555347 0.00169209 6.98442e-22)
(0.000161019 0.00235894 4.77522e-23)
(0.000600926 0.00167856 -1.92321e-22)
(6.5652e-05 0.000863477 -4.67081e-22)
(0.000691947 0.00173735 0)
(0.000552676 0.00176827 0)
(0.000609503 0.00169776 4.88541e-22)
(0.000732174 -7.49367e-05 9.58772e-22)
(0.000174702 0.000996012 0)
(7.00753e-05 0.00178959 -2.58172e-21)
(0.000667912 0.00163205 -4.40437e-22)
(0.000533872 0.00163078 4.42871e-22)
(0.000598083 0.00163517 -4.09156e-21)
(9.7103e-05 0.00128828 6.83232e-24)
(0.000258035 6.42695e-05 6.75316e-22)
(0.000689366 0.00173752 -5.13284e-22)
(0.000562166 0.00180968 -5.78838e-22)
(0.000563561 0.00178418 3.29874e-22)
(0.00068687 0.00173745 -7.85239e-22)
(0.000868929 -0.000400323 1.87408e-22)
(0.000576148 0.00179982 0)
(0.000444186 0.000156563 6.70263e-21)
(0.000613436 0.00168029 1.22184e-21)
(0.000697838 0.0018854 4.63135e-22)
(0.000669226 0.00180629 -1.51053e-22)
(0.000465906 0.00145427 1.42391e-24)
(0.000606421 0.00189685 2.60486e-21)
(0.000729922 0.0015346 1.12402e-21)
(0.000764749 0.00174499 1.00659e-22)
(0.000689793 0.00173727 0)
(0.000655264 0.00172736 -4.66916e-22)
(0.000466021 0.00169203 -1.73487e-22)
(0.000403832 0.000863627 -2.70306e-21)
(9.87651e-05 0.000236127 1.41716e-23)
(0.000802453 -0.000100825 0)
(0.000689545 0.00169393 -2.23987e-22)
(0.000457739 0.00156141 2.50629e-21)
(0.000584404 0.00159091 -1.27508e-21)
(0.000679628 0.00174828 -1.12222e-21)
(9.10396e-05 0.000213127 -3.62669e-21)
(0.000518014 0.00155104 6.11034e-23)
(9.64092e-05 0.000173513 -3.52332e-21)
(0.000664074 0.0017033 1.37875e-21)
(0.00115238 6.99274e-05 0)
(0.00063836 0.0019279 2.43516e-21)
(0.000838193 -0.000235384 -3.13554e-22)
(0.000744076 0.00183594 0)
(0.00122934 9.62158e-05 6.00617e-21)
(0.000195476 6.02958e-07 -3.36467e-21)
(0.000637406 0.00164726 -3.05943e-22)
(0.000512864 0.00177269 1.34804e-23)
(0.000576194 0.00158534 1.03413e-23)
(0.000692452 0.00173622 2.71133e-22)
(0.000689295 0.00174985 4.0619e-24)
(0.001014 0.000918592 -1.76349e-21)
(7.75802e-05 0.000172241 0)
(0.000686509 0.00173784 0)
(0.000579479 0.00193011 7.37375e-22)
(0.000688231 0.00169822 -2.45297e-21)
(0.000245642 0.00150102 -5.45816e-24)
(0.000547384 0.00180163 3.24122e-21)
(0.000533613 0.00159463 1.39894e-21)
(0.000477747 -8.57654e-05 1.08099e-24)
(7.20326e-05 0.000723045 1.49003e-21)
(0.00050501 0.00163345 7.97453e-24)
(0.000973711 -0.000133125 0)
(0.000628056 0.00189925 5.3426e-22)
(0.000683526 0.00174742 -2.77478e-21)
(0.000554222 0.00187738 0)
(0.000715769 0.00169531 -1.36616e-21)
(0.000587706 0.00167944 -1.51333e-22)
(0.000159722 0.000856578 -1.08783e-21)
(0.000677988 0.000990857 2.78985e-21)
(3.75348e-05 7.64191e-05 3.92527e-21)
(0.000409305 0.001684 -3.04153e-23)
(0.000619472 0.00174947 -1.93958e-21)
(0.000475438 0.00153871 0)
(0.000523554 0.00169187 1.85185e-22)
(0.000623668 0.000840418 0)
(0.00066471 0.00184882 7.3674e-22)
(0.000655492 0.00188039 -2.12206e-21)
(0.000670924 0.00189777 -2.16137e-22)
(0.000686987 0.00173779 7.91336e-22)
(0.000673267 0.00166944 -1.29822e-21)
(0.000703028 0.00164147 8.89865e-22)
(0.000684231 0.0017009 -5.94989e-24)
(0.00062298 0.00193379 4.07303e-21)
(0.000612076 0.00176502 1.90839e-23)
(0.000657273 0.00191687 8.13524e-22)
(9.5022e-05 0.000670927 -1.04746e-21)
(0.000212113 5.29695e-05 -1.06395e-21)
(0.000672624 0.00139699 7.51336e-22)
(0.000193192 2.51789e-05 -6.37022e-22)
(0.000582273 0.00165666 0)
(0.00052118 1.79881e-05 -4.78808e-21)
(0.000638636 0.00148422 -7.64335e-22)
(0.000604632 0.00172182 3.5829e-22)
(7.19026e-05 0.00158334 6.81427e-23)
(0.000168829 0.00147624 -1.29336e-23)
(0.00010276 0.000620164 0)
(0.000639808 0.00169587 -1.72166e-21)
(0.000577994 0.001727 0)
(1.28951e-05 -1.07893e-05 7.65903e-22)
(0.000479703 0.00172285 0)
(0.00035213 0.00184131 -7.85588e-23)
(0.000698091 0.00173565 -4.81306e-22)
(0.000362804 0.00175788 2.59397e-22)
(0.000576873 0.000780178 2.31232e-21)
(0.000534691 0.000712209 0)
(0.000611518 0.00168767 0)
(0.000651464 0.00193322 -3.89506e-23)
(0.000905496 0.000406203 -8.20834e-21)
(7.78231e-05 0.000942449 1.15775e-21)
(0.000106089 0.000260951 0)
(0.000564889 0.00179175 -3.05538e-22)
(6.5131e-05 0.000137893 0)
(0.00052554 0.00160639 3.5339e-21)
(0.000563701 0.00160696 1.45801e-22)
(0.000497305 0.00164973 -2.24417e-22)
(0.000710264 0.00192663 1.74002e-21)
(0.000657968 0.00162787 -7.44417e-22)
(0.000672819 0.00174992 2.11382e-21)
(0.000232991 0.000866044 2.51668e-21)
(0.00124858 0.00145011 0)
(0.000519272 0.00164211 5.58692e-21)
(0.00052084 0.00166993 0)
(0.000608589 0.00167177 0)
(0.000295876 0.00183724 -2.32866e-22)
(0.000544466 0.00194972 5.64806e-23)
(0.000525707 -6.23158e-05 -3.49203e-21)
(0.000391612 0.000723306 -1.35268e-21)
(0.000383488 0.000539176 2.41712e-21)
(0.000826326 0.00182711 8.55815e-21)
(0.000591298 0.00176616 2.71591e-21)
(0.00072059 0.00172851 -7.55569e-22)
(0.000720955 0.000420407 0)
(0.000556634 0.00169429 -2.24523e-21)
(0.000830949 0.000333895 2.22251e-21)
(0.000899625 0.000149799 -1.19415e-21)
(0.00112742 0.000640126 -7.38754e-21)
(7.75379e-05 0.000948227 1.2743e-22)
(5.28672e-05 0.000108508 -2.08095e-22)
(0.000480061 0.00190332 3.12447e-22)
(0.000395366 0.00167032 5.44933e-22)
(0.00042151 0.000547343 -5.26882e-21)
(0.000615986 0.00173263 -3.59372e-22)
(0.00068114 0.00168928 -4.56294e-22)
(0.00104868 6.86366e-05 3.34753e-21)
(0.000614253 0.00175084 1.16066e-23)
(0.000937244 -7.88214e-05 -1.90239e-21)
(0.000643828 0.00166525 1.37108e-21)
(0.000617313 0.00176521 -1.24001e-21)
(0.000656077 0.0018343 6.60737e-23)
(0.000603222 0.00168679 7.19932e-22)
(0.000694353 0.00173583 -6.91889e-22)
(0.000889176 0.000351919 -2.72251e-21)
(0.000630102 0.00166096 6.29852e-22)
(0.000660846 0.00164926 0)
(0.000699556 0.00163255 8.4884e-22)
(0.000906671 0.00167579 -3.41761e-21)
(0.000582761 0.00173442 0)
(0.000532071 0.00181044 0)
(7.08313e-05 0.000154213 -2.76673e-23)
(0.000526606 0.00165618 0)
(0.00099878 3.05604e-05 0)
(0.000537345 0.00175294 3.71909e-22)
(0.000237432 6.97027e-05 2.01074e-21)
(0.000372259 0.00066042 -3.07214e-21)
(5.91103e-05 0.00012277 0)
(6.51634e-06 1.83434e-05 5.0374e-22)
(4.06226e-05 8.41961e-05 6.97872e-21)
(8.68401e-06 6.22477e-06 4.68794e-22)
(4.54684e-05 9.55246e-05 -3.29878e-21)
(0.000966354 7.01239e-05 -4.0597e-21)
(0.000661176 0.000581403 -6.82658e-21)
(0.000588467 -0.000222306 -2.92579e-21)
(0.000543771 0.00172327 -7.01931e-22)
(0.000217045 3.13871e-05 -3.97089e-22)
(0.000676338 0.00167295 -3.20046e-23)
(0.000704546 0.00176021 1.29389e-21)
(4.77415e-05 0.000540107 0)
(0.000528593 0.000846776 0)
(0.00087398 0.000336898 -1.26146e-21)
(0.000746673 0.000425143 2.81696e-21)
(0.000976452 0.00010412 3.30205e-23)
(0.00059854 0.00174863 3.2983e-22)
(0.00104763 0.000657668 2.93625e-21)
(0.000548014 0.0016108 -1.16069e-21)
(0.0007299 0.00161596 -2.55904e-22)
(0.000668331 0.00174775 0)
(0.000284943 -0.000115406 1.24935e-25)
(0.000560508 0.00174357 1.18849e-21)
(0.000699579 0.0017058 0)
(0.000593156 0.00165475 -1.96796e-22)
(0.000602474 0.00165477 0)
(0.00121325 0.000231577 -3.62054e-21)
(0.00108142 0.000776999 -5.6692e-21)
(0.000805051 0.00155203 -3.44619e-21)
(0.000735313 0.00186803 -2.97195e-22)
(0.000539777 0.00187973 4.66586e-22)
(0.000148961 0.00181382 0)
(0.000320375 0.000352068 -3.78223e-22)
(0.000516219 0.000115095 2.89856e-21)
(0.000706262 0.00184202 0)
(0.000503086 0.00153153 -6.17861e-22)
(0.00055899 0.00166029 2.76979e-21)
(0.000502206 0.00140598 -9.75091e-23)
(0.000656812 0.00187908 -3.92661e-23)
(0.000663408 0.00188265 -3.7503e-21)
(0.000724463 0.00182467 0)
(0.000747896 0.00169665 1.79952e-21)
(8.31843e-06 3.3801e-05 1.3679e-23)
(0.000662788 0.00172107 -1.98575e-22)
(0.000539458 0.00158145 0)
(0.000700612 0.00175848 2.22848e-22)
(0.000666878 0.00162847 1.08914e-21)
(0.00116647 0.000618002 5.08437e-21)
(0.000821946 0.00177362 -1.09989e-21)
(0.000703194 0.00190428 1.3979e-21)
(0.000432878 0.000303911 5.98614e-21)
(0.000693889 0.00173642 0)
(0.000879267 -0.000146124 -2.32616e-22)
(0.000490232 0.00158058 -2.86666e-22)
(0.000659805 0.00100954 -3.84143e-21)
(0.000468073 4.91748e-06 -2.76474e-21)
(0.000700221 0.00172576 -9.99267e-22)
(1.04809e-05 5.34807e-05 0)
(0.000594676 0.0016636 0)
(0.00072957 0.00208856 0)
(0.000932532 -0.000148916 0)
(0.00067623 0.00174734 -2.53903e-21)
(0.000317401 -0.000131919 -8.79758e-22)
(0.000404741 0.00153474 -9.52608e-22)
(5.16222e-05 1.73882e-07 3.88459e-21)
(1.16488e-05 6.97663e-05 -5.04823e-22)
(0.000471969 0.000141999 -6.16392e-24)
(0.000534015 0.0017089 6.43218e-22)
(0.000670977 0.00191612 -7.85736e-22)
(0.000668037 0.000184468 -6.18459e-21)
(0.000673378 0.00167644 -4.93679e-22)
(0.000908956 0.00190612 7.7291e-22)
(0.000673439 0.00166595 -1.37771e-21)
(0.000163327 -2.50139e-05 -3.31163e-21)
(0.000590444 0.00181197 -3.52866e-22)
(0.000618156 0.000830451 -1.59949e-21)
(0.000713786 0.001783 1.01405e-21)
(0.000710145 0.00191742 -1.67518e-21)
(6.93126e-06 2.31047e-05 0)
(0.000582389 0.00192589 2.25512e-22)
(0.000952236 0.000390291 -6.23194e-21)
(0.000608726 0.0017867 0)
(0.000642117 0.00175367 -4.87127e-21)
(0.000703079 0.00186355 4.11975e-23)
(0.000659913 0.00186785 3.28488e-23)
(0.000517902 0.00173473 1.59479e-21)
(8.80741e-06 3.97776e-05 -4.36968e-22)
(0.000697648 0.00172968 -2.95043e-22)
(0.00062605 0.00187551 -1.46166e-21)
(0.000669751 0.00163998 -5.80841e-22)
(0.000753263 0.00183093 1.40115e-21)
(0.00135619 0.000489752 2.74644e-21)
(0.000697086 0.00197108 -1.95526e-21)
(0.000686326 0.00188887 0)
(0.000696415 0.00189438 -5.63941e-23)
(0.000619946 0.00169824 -3.59635e-22)
(0.000602823 0.00169815 2.87377e-22)
(0.000702214 0.00173595 1.85343e-23)
(0.000394113 0.00100068 -5.32607e-21)
(0.000464603 0.000561401 -2.23395e-21)
(0.000697577 0.00173248 1.05969e-21)
(0.000554933 0.00172397 -9.17655e-23)
(0.000335298 0.000121485 7.01951e-21)
(0.000708741 0.0017355 0)
(0.000190812 0.000908781 -2.77034e-22)
(0.000649113 0.0016444 2.7957e-22)
(0.000591494 0.00177668 0)
(9.71622e-06 4.63891e-05 -1.53897e-23)
(0.000270521 -0.000209533 0)
(1.17195e-05 6.11189e-05 3.7004e-22)
(0.00152928 0.00206269 -1.47348e-21)
(2.00204e-05 8.04421e-05 1.26723e-21)
(0.000571623 0.00169324 0)
(1.21946e-05 0.000801411 0)
(0.00135486 0.000155806 -6.24429e-22)
(0.000551642 0.00179942 -2.4978e-22)
(0.000711879 0.00170598 -1.12599e-22)
(0.000611948 0.00196525 1.37902e-21)
(0.000583243 0.00191916 1.11775e-21)
(7.62855e-06 2.82347e-05 4.41091e-22)
(0.00112867 0.000529137 6.88421e-21)
(0.000527664 0.00179916 1.80996e-21)
(0.000787324 0.000828971 -2.13377e-21)
(0.000203195 -6.8822e-05 -3.52255e-21)
(0.000662962 0.00174171 -1.27986e-21)
(4.11827e-05 0.000326596 -2.71017e-21)
(0.000760532 0.00184937 0)
(0.000616831 0.00169904 -1.16073e-21)
(0.000704821 0.00173083 0)
(0.000739737 0.000922295 0)
(0.000331216 0.00081932 2.17793e-21)
(1.68093e-05 8.24247e-05 -2.10236e-22)
(0.000241705 -0.000180847 6.59861e-21)
(0.00105624 0.000304702 1.88331e-21)
(0.00122506 0.000160562 1.57507e-21)
(0.000124559 0.000238248 -1.21907e-23)
(0.000696658 0.00172768 -9.89559e-22)
(0.000703251 0.00190384 -1.53224e-21)
(0.000190148 4.50485e-05 -6.479e-22)
(0.00047034 0.00133995 2.7776e-21)
(0.000686067 0.00166209 -6.64674e-24)
(0.000437037 0.00071401 2.24329e-21)
(0.000616988 0.00171617 -1.55628e-21)
(0.000568651 0.00167216 4.41809e-24)
(0.000611211 0.0019878 4.92675e-21)
(0.000592709 0.00164597 8.89817e-22)
(0.000277743 0.000857259 0)
(0.000556502 0.00170581 1.0576e-21)
(0.000694555 0.00171596 -3.42643e-22)
(0.000638706 0.000851867 -2.58119e-21)
(0.000373069 0.00167339 -7.85648e-22)
(0.000738669 0.00185529 -4.23144e-22)
(6.15297e-06 1.3877e-05 -9.13703e-22)
(0.000973945 3.59351e-05 0)
(0.000369624 -0.000226995 -1.09424e-21)
(0.000697718 0.00173001 -2.25306e-21)
(0.00071495 0.0017298 -2.01615e-22)
(0.000372317 0.000709109 -1.94297e-21)
(0.000608613 0.0017024 1.38137e-21)
(0.0003413 0.000649626 6.56832e-21)
(0.000511088 0.00152423 4.77718e-22)
(0.000174724 -0.000127193 -1.441e-21)
(0.000310266 0.00131307 8.10353e-23)
(0.000697307 0.00172983 0)
(0.000228567 8.82232e-05 0)
(0.000767385 0.00186985 -1.23041e-21)
(5.82796e-06 9.40598e-06 2.29301e-22)
(0.000887689 0.00123246 -1.37316e-23)
(0.00102523 0.000463504 2.642e-21)
(0.000577517 0.00166783 2.26805e-21)
(7.13782e-05 0.00060062 2.35542e-22)
(0.000594788 0.00166564 2.56779e-21)
(-8.58991e-06 8.12806e-05 2.22064e-21)
(0.000476775 -0.000138585 0)
(0.000693442 0.00193007 0)
(7.07469e-05 6.62406e-05 -2.35638e-21)
(0.000654762 0.00200809 -5.78683e-22)
(0.000694491 0.000261152 -2.51211e-21)
(2.71916e-05 4.6276e-06 -4.30815e-22)
(0.000115534 9.00932e-07 2.08855e-21)
(0.000747372 0.00192669 6.1406e-21)
(0.000433226 -2.75841e-05 2.54391e-21)
(0.000670884 0.00175469 4.09168e-22)
(0.00132984 0.000853155 2.14987e-21)
(0.000635635 0.00164509 3.04907e-21)
(0.000714952 0.00172913 -1.86372e-23)
(0.000280364 0.00117254 -3.21095e-21)
(0.000418376 0.000883398 3.51706e-21)
(9.25074e-05 0.000925248 0)
(0.000674209 -0.000161615 4.44394e-21)
(6.34453e-05 4.95485e-05 -1.33257e-21)
(0.000159264 0.00131202 -2.71578e-21)
(0.000514929 0.00160813 -9.70264e-22)
(0.000692162 0.00173889 -1.32344e-21)
(0.000563433 0.0016682 1.28147e-21)
(0.000724054 0.00169572 -1.0317e-21)
(0.000580207 0.00152638 -2.51833e-23)
(0.000826528 0.000515876 0)
(0.000589252 0.000823192 4.23389e-21)
(0.000366827 -0.000138344 -1.50523e-21)
(0.000560573 0.00172743 -2.15072e-21)
(0.00010456 6.15319e-06 -1.64761e-25)
(0.00069764 0.00166464 9.32942e-22)
(0.000987053 -3.83556e-05 1.53806e-22)
(0.000843092 0.0011106 -4.20659e-24)
(0.00138038 0.000499909 0)
(0.000548573 0.00144097 -3.3514e-23)
(0.000324075 -8.49626e-05 1.01707e-21)
(0.000747431 0.00177232 -1.23831e-21)
(0.000156128 -0.000126886 4.19571e-21)
(0.000600395 0.00167537 0)
(0.0010645 0.000495068 -4.94793e-21)
(0.000632904 0.00146185 -1.78458e-21)
(0.000536077 0.000840491 -9.50076e-22)
(8.19977e-05 6.39216e-05 1.341e-21)
(0.000962487 5.68545e-05 -8.3822e-22)
(0.000332109 0.000392691 -5.7693e-22)
(0.000636157 0.00167191 0)
(0.000100862 2.07592e-05 1.42961e-21)
(0.000298119 0.000451102 -1.98302e-21)
(0.00101476 0.000965431 5.20804e-22)
(9.42714e-05 6.61458e-05 -3.44989e-21)
(0.000774785 0.0017883 -8.64662e-21)
(0.000470826 0.00163572 6.28825e-23)
(0.000628747 0.00168423 1.18862e-21)
(0.000987621 2.9402e-05 0)
(0.000604814 0.00177595 0)
(2.70274e-05 -0.000103725 1.75231e-21)
(0.000623248 0.000534475 9.65086e-21)
(4.69064e-05 3.90919e-05 3.34053e-21)
(0.000829903 0.0016585 1.38302e-20)
(1.24464e-05 -3.48612e-05 2.85044e-23)
(0.000659945 0.00164835 -5.94108e-22)
(0.000769569 0.000254697 -7.74579e-21)
(0.000512529 0.00165629 0)
(0.00128102 0.000709557 3.56673e-21)
(0.000589972 0.00174452 5.25013e-22)
(0.000960632 0.000322642 2.4879e-21)
(7.28726e-05 2.26243e-06 2.00585e-21)
(0.000832256 0.00188338 1.20798e-21)
(0.000319204 0.000826465 -2.46107e-21)
(3.88502e-05 7.03667e-05 -2.92528e-21)
(0.00067478 0.00182342 1.30785e-21)
(0.000822202 0.00108114 1.75044e-21)
(0.000956393 8.90785e-06 1.0052e-21)
(4.89705e-05 6.41912e-05 -7.16852e-22)
(0.000127573 -0.000108658 -4.1488e-22)
(0.000605119 0.000452063 -2.72212e-22)
(0.000223988 0.000742947 3.0183e-21)
(0.000617328 0.00174681 6.05847e-22)
(0.000126702 0.0011414 0)
(0.000687866 0.00187475 -3.64275e-21)
(0.000651788 0.00179806 0)
(0.000893085 0.000272231 -5.2519e-21)
(9.39875e-05 0.000853466 -1.2549e-21)
(4.33279e-05 6.78911e-05 3.82451e-21)
(0.00064286 0.00170071 -2.85768e-24)
(0.000910895 0.000272796 7.05639e-24)
(0.000831643 0.000761345 0)
(0.000883781 0.000877614 -1.03177e-21)
(0.000685748 0.00173817 0)
(0.000578687 0.00174272 -3.40606e-22)
(0.000696486 0.001718 0)
(0.00105467 0.000200115 -7.25691e-21)
(0.000839855 0.00131972 5.94082e-23)
(0.000309392 6.54703e-05 2.17416e-21)
(0.000605793 0.00169364 -1.1766e-21)
(4.9525e-05 3.41699e-05 0)
(0.000594901 0.00195729 -1.04506e-23)
(7.99441e-05 0.000137655 3.43416e-21)
(0.0008907 -0.000144789 8.26343e-22)
(0.000726067 0.000639847 -2.98679e-21)
(0.000540697 0.00167348 5.00477e-22)
(0.000576871 0.00175562 -2.76685e-22)
(0.000958004 8.62812e-06 3.43291e-22)
(0.000616545 0.00166041 1.14606e-21)
(0.000820266 0.000743022 3.06254e-21)
(3.73483e-05 5.28782e-06 -2.37308e-21)
(0.000740474 0.00186916 -7.68487e-22)
(0.000575878 0.000519105 0)
(-4.88023e-05 0.000518357 5.11559e-21)
(0.00101539 0.000288793 0)
(0.000669589 0.00175523 -1.30938e-21)
(0.00109347 0.00021239 0)
(0.000650464 -0.00020201 3.22603e-22)
(0.000346579 0.000738307 1.60229e-21)
(0.000535545 0.000915763 1.69037e-21)
(0.00077219 0.00138421 -3.07201e-21)
(0.000481785 0.00155977 -1.8552e-21)
(-7.62081e-05 0.000580025 1.16395e-21)
(0.00072738 0.000941577 2.59095e-21)
(0.000662728 0.00184461 -1.05494e-21)
(0.000677202 0.00167729 -5.19326e-22)
(0.000628937 0.0017493 1.50734e-21)
(0.000739522 0.00196319 -6.88406e-21)
(0.000585706 0.000228945 -9.63177e-24)
(0.000714496 0.00182759 0)
(0.000408358 0.000556089 0)
(0.000645626 0.00165864 0)
(0.000915178 0.00147073 8.98227e-21)
(0.000671343 0.00157986 9.60027e-24)
(0.000576366 0.00169876 4.68708e-22)
(0.000503687 0.00159942 -1.12174e-22)
(0.000545862 0.00172717 -3.273e-22)
(4.2252e-05 -0.000932868 1.04293e-21)
(0.000479389 0.000441661 -3.40207e-21)
(0.000652459 0.00170739 -2.26305e-21)
(7.92887e-05 -9.21408e-06 -7.11214e-22)
(0.000702327 0.00177423 -2.34189e-21)
(3.5648e-05 -1.95667e-06 0)
(0.000391831 0.000839685 3.83246e-22)
(0.000615986 0.000322279 -5.9432e-21)
(0.000937356 0.000676375 2.15612e-21)
(0.000501533 0.00139053 -1.79171e-21)
(0.000514065 0.00162908 6.35411e-23)
(0.000512286 0.000789169 -3.73514e-21)
(0.000335894 0.000500673 -1.28963e-23)
(0.000804328 0.000720104 4.1112e-21)
(3.61592e-05 5.00461e-05 4.74786e-22)
(0.000638873 0.00158193 0)
(0.000395281 0.000440438 -8.61687e-24)
(0.000621645 0.00174156 -6.60352e-22)
(0.000913366 -2.17833e-05 1.40492e-21)
(0.000624165 0.0016508 5.12638e-22)
(0.000763439 -0.000315041 -4.30516e-21)
(0.000643121 0.00175865 6.94777e-22)
(1.50879e-05 0.000123873 -4.66902e-22)
(0.00069771 0.00178228 -4.16034e-22)
(0.000420973 0.00118077 8.10402e-23)
(2.82062e-05 8.19046e-05 0)
(0.00028746 0.000566558 -1.27457e-21)
(0.0007284 0.0018254 1.2429e-22)
(0.000548708 0.00172589 -1.00169e-21)
(0.000386691 0.000672409 7.25873e-21)
(0.000580987 0.000280885 -4.26668e-21)
(0.000375439 0.000618436 -5.24652e-24)
(0.00032326 0.000615918 -5.19494e-21)
(2.97346e-05 5.18448e-05 8.83375e-22)
(0.000758364 0.000654963 4.73112e-21)
(0.000106043 -9.52594e-05 8.67095e-22)
(0.000654695 0.00157771 2.99783e-22)
(3.05785e-05 0.000939199 -8.51983e-22)
(0.000710786 0.00189867 0)
(0.00069496 0.00173255 -2.29138e-21)
(0.000381129 0.000511165 -4.53507e-21)
(0.000533262 0.000121746 1.8654e-21)
(0.000576217 0.00172396 -4.25161e-21)
(0.000644908 0.00172529 -6.32897e-22)
(6.71033e-05 0.000106408 2.19085e-22)
(0.000338743 0.000534677 -4.57756e-21)
(0.000798919 0.00193463 -5.99872e-22)
(0.000620363 0.00195144 -1.29127e-21)
(0.000625901 0.00117647 -5.11077e-21)
(0.000771908 0.000175279 3.58597e-21)
(7.84315e-05 -7.33821e-05 -2.72855e-23)
(0.000590851 0.00176683 0)
(0.00109065 0.000466876 0)
(0.000319834 1.94684e-05 3.65405e-21)
(0.000317206 0.000453178 8.60591e-21)
(0.000913833 0.000304258 8.02938e-24)
(0.000290072 0.000422764 2.08254e-21)
(0.00062882 0.00176419 -1.38186e-21)
(1.7396e-05 0.000149959 -1.80087e-21)
(0.000556836 0.000211151 -2.23822e-21)
(0.00106506 2.04625e-05 0)
(0.000583458 0.00041992 0)
(0.00056438 0.00171955 1.33445e-21)
(0.000102287 0.000434254 7.1861e-24)
(-3.08546e-05 0.000678013 -9.89454e-22)
(0.000697638 0.00162537 2.90513e-21)
(3.6157e-05 2.58456e-05 2.82556e-21)
(0.000737762 0.000642823 -1.54531e-21)
(0.00059011 0.000660805 -4.1483e-22)
(0.000584991 0.0016748 9.89919e-22)
(0.000468551 -1.99484e-05 1.3516e-24)
(0.00118233 0.000142877 -3.36348e-21)
(0.000614919 0.00175565 -1.42514e-21)
(0.000631052 0.00170724 -1.32349e-21)
(0.000361748 0.000426533 0)
(0.000558313 0.00160113 2.03008e-22)
(4.30144e-05 1.96521e-05 -2.07539e-22)
(0.000296891 0.00049228 2.00223e-21)
(0.000516633 0.00190746 4.01795e-22)
(0.000640382 0.00170809 -3.53032e-21)
(0.000620716 0.00061914 0)
(0.00058938 0.00178433 0)
(1.47766e-05 0.000132125 0)
(0.000856221 0.000362141 3.81898e-21)
(0.000665336 5.40984e-05 1.19152e-21)
(0.000687189 0.000503891 4.74431e-21)
(-1.19698e-05 0.000515113 0)
(0.000640364 0.000596356 6.10785e-22)
(0.000771718 0.000191701 3.15338e-21)
(0.000623067 0.000280638 1.03741e-20)
(8.77204e-05 7.85037e-05 0)
(0.000982496 -0.000106854 -1.34417e-22)
(0.000659799 0.00178538 4.18636e-22)
(0.000293695 0.000543941 2.21821e-21)
(0.000645412 0.00179385 -3.52453e-22)
(0.000666688 0.00175634 -4.68955e-24)
(0.000624454 0.00165645 5.49139e-23)
(0.000325757 0.00031787 5.65622e-22)
(0.000777756 2.03716e-05 0)
(2.04948e-05 3.01227e-05 1.77032e-25)
(0.000969141 -8.37649e-05 2.59821e-21)
(1.63232e-05 1.08532e-05 -5.92832e-22)
(0.000470104 -0.00020559 -1.97378e-21)
(0.00124113 0.000127189 0)
(0.00101223 0.000238716 2.93065e-21)
(0.000760132 0.00164426 -1.94464e-23)
(4.51488e-05 2.78012e-05 0)
(0.00077802 0.00189521 6.20933e-22)
(0.000701439 0.000119856 9.99477e-22)
(0.00098294 4.43633e-05 -4.41472e-22)
(2.10437e-05 0.0001867 0)
(0.00107778 0.000478233 -6.54193e-21)
(0.0006652 0.00166633 -6.72534e-22)
(0.000696179 0.0019785 -4.8623e-21)
(0.000590662 0.00173838 -4.84925e-25)
(0.000681589 0.00170537 0)
(-3.83908e-06 0.000101162 -1.40006e-22)
(0.000632521 0.00068346 -1.0547e-21)
(0.000947102 5.58799e-05 -4.31574e-21)
(0.000839986 0.000250815 -4.89057e-21)
(0.00036961 6.72895e-05 1.103e-20)
(5.18286e-05 2.1684e-05 -1.36197e-21)
(0.000634823 0.00155807 -1.57595e-20)
(0.000252675 0.000702196 6.93469e-24)
(0.000659123 0.00175817 -4.75464e-23)
(0.000550386 0.00182828 -1.21739e-22)
(0.000627109 0.00163892 0)
(0.000960911 9.65439e-05 0)
(6.78247e-05 -6.39357e-05 0)
(0.000794365 0.00177679 -3.80008e-22)
(0.000514324 0.00167505 -3.02377e-21)
(0.000589809 0.000392173 -6.35814e-21)
(0.000713346 0.00182759 0)
(0.00155549 0.000617459 6.29127e-22)
(1.94269e-05 3.63322e-05 -7.14067e-22)
(0.00131483 0.000687093 -1.54489e-22)
(0.000694697 0.00183446 2.09937e-21)
(7.72454e-05 -1.57504e-05 3.38361e-21)
(0.000531256 0.00169422 -2.25261e-21)
(0.000640661 0.00177691 -1.73169e-21)
(0.00102294 8.89139e-05 -1.31749e-22)
(0.000656456 0.00166665 6.37974e-22)
(0.000400628 5.65814e-05 -3.68856e-21)
(0.000621907 0.00167674 0)
(0.000532096 0.00167501 -5.44759e-22)
(3.71082e-05 1.77988e-05 0)
(0.000430083 2.28689e-05 -9.53203e-24)
(0.000739513 0.00191918 2.5348e-23)
(0.000638386 -0.000342906 1.55194e-21)
(0.000541371 0.00158361 1.4215e-23)
(0.00117481 9.3204e-05 2.18353e-22)
(0.000158625 -4.91086e-05 3.63965e-21)
(0.000340392 -5.82551e-06 -2.18798e-21)
(0.00102503 3.85506e-05 2.50796e-21)
(0.000604812 0.000545177 7.65733e-22)
(0.0007044 0.000176816 3.76532e-21)
(0.00063666 0.00173014 -1.52475e-21)
(0.000138428 0.000171575 -1.97015e-21)
(0.000764574 -0.000196445 9.32314e-22)
(2.77921e-05 4.0426e-05 2.90661e-21)
(0.000666403 0.00198858 -4.0124e-21)
(0.000309259 0.000356264 0)
(0.000765793 0.000954957 4.28373e-21)
(0.000692054 0.00181684 0)
(0.000658637 0.00181065 0)
(0.00088202 1.83365e-05 0)
(0.000673836 0.000389993 -3.07937e-24)
(0.000315691 -5.20225e-05 4.32293e-26)
(0.000311787 -0.000190841 -2.65063e-21)
(0.000549604 0.000294488 -9.05399e-21)
(0.000306333 -1.38821e-05 2.07683e-21)
(1.89285e-05 0.00016751 1.81014e-21)
(0.000697213 0.00189941 0)
(0.00032779 -0.000226198 9.19351e-21)
(0.000152021 -0.000152803 1.85401e-21)
(0.000647189 0.0017604 -3.16977e-22)
(0.000336762 0.000941248 0)
(6.35617e-05 8.95801e-05 -2.69603e-21)
(0.000315425 -0.000105052 3.3403e-21)
(0.000353218 8.60741e-05 -6.34666e-21)
(0.000957093 4.01816e-05 5.8299e-21)
(0.000925296 0.000363147 5.20815e-21)
(0.000569327 0.00178414 -1.07653e-21)
(0.00096733 -0.000129531 0)
(0.000516301 -0.000186541 2.25247e-21)
(0.000580319 -9.98451e-05 5.87933e-21)
(0.000564744 -5.30839e-05 -7.44885e-21)
(0.000524773 6.28011e-05 3.30345e-21)
(0.000568546 3.66359e-06 -1.81804e-21)
(-1.34419e-05 -0.000443479 1.26862e-21)
(4.05136e-05 2.62157e-05 4.03716e-22)
(0.000822024 0.000824601 -7.01226e-21)
(0.000903713 -8.84752e-05 0)
(0.000670074 0.00170768 -3.09122e-22)
(0.000437303 0.000137505 -1.42072e-21)
(0.000234793 0.00132872 -2.76851e-21)
(0.000617917 0.00176559 -1.64959e-21)
(0.000146909 -5.81987e-05 3.07706e-23)
(0.000723261 0.00186219 -1.48292e-21)
(0.000691607 4.68368e-06 1.05156e-21)
(0.00034683 0.000283688 5.38219e-22)
(0.000544641 0.000106845 0)
(0.000615626 0.00166663 0)
(0.000693071 0.000399575 5.74673e-21)
(0.000571014 0.00176339 -1.10477e-21)
(0.000221312 -9.80592e-05 -3.18269e-21)
(0.000562887 0.00169748 1.17075e-21)
(0.000907196 6.6353e-06 -1.84716e-24)
(-6.04005e-07 0.000475134 0)
(0.000599527 0.00168603 3.13574e-22)
(0.000637226 -9.54505e-05 3.76069e-21)
(0.000286975 0.000386843 -4.26197e-21)
(1.41771e-05 1.23313e-06 1.7195e-21)
(0.000957708 3.03731e-05 -6.71549e-21)
(0.000256246 -8.11599e-05 7.9218e-21)
(0.000986118 -4.19503e-05 -3.47525e-21)
(0.000807449 -0.000150747 2.16659e-21)
(0.000700557 0.00190959 -2.57824e-21)
(0.000978406 3.02864e-05 4.60978e-22)
(0.000109855 -0.000122267 -2.57168e-21)
(0.00061858 0.00169391 4.96815e-24)
(0.000675781 0.00162061 -1.24008e-21)
(0.00092948 -2.15532e-05 -1.7116e-21)
(0.00087784 3.40335e-05 5.96935e-21)
(0.00115273 0.000228556 0)
(0.000578041 0.00158665 -8.97656e-22)
(0.0003566 8.82208e-06 2.16426e-21)
(1.97404e-05 2.86239e-05 2.94415e-21)
(0.000508158 0.000903587 -5.40026e-22)
(0.000943992 0.00193645 -2.58736e-21)
(1.0572e-05 1.18692e-06 -1.71347e-21)
(2.84019e-05 0.000277374 -1.20973e-22)
(0.000742242 0.00184455 0)
(0.000703934 0.00173458 1.43445e-22)
(0.000684946 0.000231447 -1.76087e-21)
(0.00100063 -3.76421e-05 -8.16972e-21)
(2.95702e-05 0.000305182 0)
(0.000601282 0.00166197 8.31233e-23)
(0.000619077 0.00166312 -1.35495e-21)
(0.000714678 0.0019258 2.57783e-23)
(0.000656144 0.00189929 0)
(0.000624985 0.000565742 -2.8874e-21)
(0.000178633 -0.000192 0)
(0.000619488 -3.48924e-05 1.97361e-21)
(0.000784342 0.00188326 6.37209e-21)
(0.000696734 0.00155244 7.78984e-21)
(0.000598393 0.0018001 0)
(0.000629358 0.00169091 -2.92995e-24)
(0.000946606 4.98318e-05 0)
(0.00027791 5.19279e-05 2.27303e-21)
(0.000351636 5.62265e-05 -3.92588e-21)
(0.000424071 -0.000144215 0)
(0.000720348 0.00171874 3.8777e-22)
(-3.42767e-06 -0.000280336 3.24845e-21)
(0.000706722 0.00188936 2.64699e-21)
(0.000819384 0.0019037 -1.64098e-21)
(0.000579666 0.00162422 -7.70054e-22)
(0.00107856 6.21744e-05 0)
(0.000964594 1.26556e-05 2.19615e-22)
(0.000217488 -5.98627e-05 -5.53885e-22)
(0.000721117 0.00190159 1.96989e-21)
(2.02491e-05 -2.08982e-07 0)
(0.00069421 0.00186664 0)
(0.000623634 0.00178885 1.52166e-21)
(0.000847468 -0.000107765 0)
(0.000136415 -3.54475e-05 -1.10684e-22)
(0.000942322 -3.94097e-06 -8.1831e-22)
(2.10418e-05 0.000274573 1.05573e-21)
(0.000129644 -0.000143734 1.31514e-21)
(0.000816089 7.23862e-05 1.98527e-21)
(0.00103765 0.00134366 -5.74096e-21)
(2.28959e-05 4.2829e-05 -3.0827e-21)
(0.000677037 0.00194966 4.69253e-21)
(0.000711061 0.00179624 -3.63014e-21)
(0.00100434 3.97065e-05 0)
(0.000830874 9.80944e-05 -1.69699e-23)
(0.000581385 0.00180667 2.49737e-21)
(0.000128546 -5.07576e-05 -1.7757e-21)
(0.000620964 0.00169509 -1.79481e-22)
(0.000698972 0.00184467 1.28287e-21)
(0.000735141 0.00187307 -4.04986e-21)
(3.07816e-05 5.73186e-05 -9.25044e-22)
(7.9117e-05 0.000255458 1.14507e-22)
(5.0636e-05 8.40109e-06 1.93321e-21)
(1.59838e-05 2.64515e-05 7.73275e-22)
(0.000515961 0.00169674 0)
(0.000173388 -5.45893e-05 -5.14132e-25)
(0.00073726 -5.18426e-06 0)
(2.00861e-05 4.38438e-05 3.82203e-22)
(0.000656716 0.00174097 1.35489e-21)
(9.98677e-05 -4.23104e-05 0)
(0.000282039 0.000688415 -2.43254e-21)
(0.000937656 -2.06831e-05 0)
(1.62936e-05 -1.89933e-05 8.85481e-22)
(0.000728747 -0.000179775 0)
(0.000990311 0.000109677 0)
(0.000724082 5.36619e-05 1.06867e-21)
(2.07052e-05 -0.000326705 0)