/*--------------------------------*- C++ -*----------------------------------*\
  =========                 |
  \\      /  F ield         | OpenFOAM: The Open Source CFD Toolbox
   \\    /   O peration     | Website:  https://openfoam.org
    \\  /    A nd           | Version:  8
     \\/     M anipulation  |
\*---------------------------------------------------------------------------*/
FoamFile
{
    version     2.0;
    format      ascii;
    class       volVectorField;
    location    "1";
    object      U;
}
// * * * * * * * * * * * * * * * * * * * * * * * * * * * * * * * * * * * * * //

dimensions      [0 1 -1 0 0 0 0];

internalField   nonuniform List<vector> 
6388
(
(0.000934779 -6.77023e-06 1.84773e-21)
(0.000910124 -1.72657e-05 0)
(0.000157394 -1.44168e-05 0)
(0.000838704 0.000290806 -7.39075e-22)
(0.000696769 0.0013012 5.22164e-21)
(0.000581944 0.000953722 -4.73545e-23)
(0.000451655 0.000418751 3.44697e-21)
(0.000573299 0.000812301 3.37798e-21)
(0.000355857 0.000274073 -1.47154e-21)
(0.000115996 0.000583529 0)
(0.000538957 0.00109383 0)
(7.55104e-05 0.000637138 0)
(0.000578992 0.000590649 -1.70079e-24)
(0.000618823 0.00111958 3.7147e-21)
(0.000437297 0.000563349 5.03688e-21)
(0.000615248 0.00071389 0)
(0.000522047 0.000874954 3.87183e-21)
(0.000572434 0.00103092 -4.73114e-23)
(0.000254203 0.000569694 0)
(0.000127951 0.000454523 9.18373e-24)
(0.000496216 0.000677238 -1.79611e-21)
(0.000666108 0.00078642 0)
(0.0005742 0.00110033 -1.54574e-21)
(0.000873942 0.00120056 1.55088e-21)
(0.000627994 0.00106094 -3.75966e-21)
(0.000216351 0.00057582 -3.08005e-22)
(0.000652262 0.000608585 0)
(0.000446364 0.000747022 9.03034e-22)
(0.000318584 0.000640265 1.49516e-21)
(0.000719983 0.000261992 -3.65132e-21)
(0.000564389 0.00108845 0)
(0.000567952 0.00108916 1.48203e-21)
(0.000636653 0.000902531 -4.00125e-21)
(0.000618569 0.00116105 2.165e-21)
(0.0005633 0.00107541 2.74876e-21)
(0.000460041 0.00102971 0)
(0.000660485 0.00103131 9.28165e-22)
(0.000118441 0.00080191 1.23666e-21)
(0.000598048 0.000625202 9.07543e-22)
(0.000454693 0.00100444 2.09993e-21)
(0.000165259 0.000504771 4.25812e-21)
(0.00017439 0.000511115 -1.93237e-21)
(0.000925536 -8.23344e-05 -1.82804e-21)
(0.000575432 0.00114067 -1.13941e-24)
(0.000567756 0.000226916 -4.30181e-21)
(0.00026354 0.000741628 -8.73763e-22)
(0.000922815 2.90771e-05 -1.82843e-21)
(0.000276241 0.000379595 7.99962e-22)
(0.00103079 0.000280319 -1.05356e-24)
(0.000822197 0.00070244 -2.03332e-21)
(0.000167967 -5.93305e-05 1.02407e-21)
(0.000890134 -2.33355e-05 7.23618e-21)
(0.000327198 0.000431143 -5.25479e-21)
(0.000215495 0.000480037 1.9591e-21)
(0.000102419 0.000654762 2.04835e-21)
(3.12968e-05 6.58298e-05 0)
(0.000779236 0.000811563 3.05248e-21)
(0.000835438 0.000336174 0)
(6.38928e-05 0.000439715 -2.36187e-21)
(0.000339628 0.00046422 -2.9828e-21)
(0.000622522 0.00109443 1.44578e-21)
(0.000629475 0.000330501 0)
(0.000349125 0.000665814 -5.79798e-24)
(0.00103967 0.000330941 6.34194e-22)
(0.000463217 0.00101955 3.15334e-21)
(3.68203e-05 2.44014e-06 2.15638e-21)
(0.000484277 0.000894371 2.0735e-21)
(0.000591148 0.000729991 1.65415e-21)
(0.000124068 0.000770313 2.54861e-22)
(3.65735e-05 -3.03605e-06 0)
(0.001351 0.00103147 -2.34558e-21)
(0.000595241 0.00104683 -1.77576e-21)
(0.00071192 0.000925571 7.16995e-22)
(0.000572504 0.00121702 3.056e-21)
(6.76696e-06 0.000116072 -2.95797e-22)
(0.000493049 0.000411509 1.32555e-24)
(0.000604419 0.00107497 1.14811e-23)
(0.000535582 0.00034153 -2.40343e-21)
(0.000923213 0.000341561 1.54687e-21)
(0.000595996 0.00104051 -1.17272e-21)
(0.000249774 0.000671341 4.63428e-22)
(0.000210134 0.0011083 -3.9757e-23)
(0.00015195 0.00085258 0)
(0.000147568 0.000832824 -3.39085e-23)
(0.000143912 0.00081544 0)
(0.000177602 0.000968974 -3.80251e-23)
(0.000728904 0.00133231 -2.40984e-21)
(0.000238176 0.00121616 4.07577e-23)
(0.000158409 0.000877304 -1.13967e-24)
(0.000166096 0.00091473 -2.46921e-23)
(0.000191708 0.00102785 -2.77419e-23)
(0.000140379 0.000798139 -2.26542e-23)
(3.6683e-05 3.02651e-06 -6.44206e-21)
(0.000935304 0.000133711 2.28419e-21)
(0.00051915 0.000657364 0)
(0.000877251 0.000206534 0)
(3.7557e-05 7.80675e-07 -4.37681e-21)
(0.000617821 0.00109689 1.095e-21)
(0.00094638 0.000231722 -3.74725e-21)
(0.00121918 0.000536656 -2.45307e-21)
(0.000265188 0.000575834 -2.63139e-21)
(0.000491734 0.00116587 -4.02786e-24)
(0.000585388 0.000813825 0)
(0.000127165 0.00063164 4.17568e-21)
(0.000137187 0.00068643 -3.0672e-21)
(0.0007021 0.00120904 4.1869e-21)
(0.000307914 0.000304102 -3.70025e-21)
(0.000479327 0.000906015 0)
(0.000380843 0.00064866 2.5299e-21)
(0.000206053 2.14086e-05 -4.18292e-21)
(0.000359268 0.000497896 -2.28014e-21)
(0.000628688 0.00101702 -1.95914e-21)
(0.000638799 0.00107562 0)
(4.80109e-05 0.000463805 4.44258e-22)
(0.00110679 9.86591e-05 9.43199e-22)
(0.0010847 0.000132377 -3.21565e-21)
(0.000878278 0.00121231 0)
(0.000888305 9.78003e-05 -7.97375e-22)
(0.000615768 0.000537286 2.30746e-22)
(8.45683e-06 0.000159517 0)
(0.000455307 0.00102456 0)
(0.000201606 -0.000130964 0)
(0.000429411 0.000658211 -2.84649e-22)
(0.000309235 0.000252193 -5.86093e-22)
(0.00059882 0.00103674 -6.08389e-22)
(0.000973059 0.000216406 2.42112e-21)
(0.000409166 0.000298166 -4.40303e-21)
(0.000509982 0.000595859 -3.41023e-21)
(3.73312e-05 0.000206504 -6.73265e-22)
(0.000168697 0.000587324 -2.52658e-21)
(0.00046146 0.00104248 1.49608e-21)
(0.000414536 0.000769523 2.38057e-21)
(0.000284686 0.000301739 -1.92433e-21)
(0.000926847 0.00015462 0)
(2.23213e-05 8.59838e-06 3.96019e-21)
(0.0007818 0.00123296 -1.40052e-21)
(0.000851614 0.00125851 2.03765e-21)
(0.000646779 0.00136172 2.08619e-21)
(0.000625368 0.000284055 -2.67833e-21)
(0.000287837 0.000656687 0)
(0.000617185 0.00107995 5.20901e-22)
(0.000858268 1.50679e-05 -1.64223e-24)
(0.000421532 0.000646694 5.31718e-23)
(0.000626516 0.000212556 3.20729e-21)
(0.000126521 0.000165645 1.69749e-21)
(0.000870242 0.000897065 0)
(0.000271162 0.000351585 2.03115e-21)
(3.49071e-05 -3.06156e-06 4.01295e-21)
(0.000771817 0.00071182 3.85258e-23)
(0.00081285 -5.33552e-05 0)
(0.000391957 0.000798688 -4.56841e-21)
(0.000942961 0.000249062 3.07211e-21)
(0.000220757 0.000755607 -2.41498e-21)
(0.000634912 0.000973544 9.40696e-22)
(0.000141047 0.000673103 3.86392e-22)
(0.000491026 0.000559901 0)
(-5.88047e-05 0.000757439 -1.88058e-22)
(0.000173311 3.02204e-06 1.52646e-21)
(0.000577674 0.00102475 -1.18315e-21)
(0.000843162 0.00132836 3.64235e-21)
(0.000601032 0.000148301 -3.10891e-21)
(0.00107784 0.000120404 -2.93493e-21)
(0.000628574 0.00100274 -3.48918e-21)
(0.000239072 0.000813046 2.94645e-21)
(3.75982e-05 -1.56156e-06 -2.28181e-21)
(0.00060788 0.00102179 0)
(0.000402769 0.000995648 -1.9371e-21)
(0.000414844 0.00101273 3.2287e-23)
(0.000394132 0.00097567 -5.71054e-21)
(0.000202779 -0.000278254 2.84198e-21)
(0.000578728 0.0011607 3.07251e-21)
(0.000406565 0.000750703 -1.73162e-21)
(0.000586419 0.00082317 7.69388e-21)
(3.39046e-05 -3.75952e-06 0)
(0.00159283 0.000143804 1.65833e-21)
(0.000509691 0.00114145 6.88505e-21)
(0.000399256 0.000286881 -8.77956e-22)
(0.000195653 -0.000352668 1.40348e-21)
(0.00110884 5.20474e-05 -4.41433e-21)
(0.000396769 0.000756172 0)
(0.00121369 0.000837572 6.27455e-22)
(0.000229899 0.000746522 0)
(0.000553652 0.00116806 -1.55599e-21)
(0.000584422 0.00112325 1.07343e-21)
(0.000659472 0.000842089 -2.2079e-21)
(0.000619462 0.00113505 -4.48582e-21)
(0.000298399 -9.39882e-05 5.20225e-21)
(0.000552513 0.00101658 3.69245e-21)
(0.000787906 0.000928087 -2.35511e-22)
(0.000459738 0.000990815 -6.32259e-24)
(0.000470172 0.0010102 -7.84946e-21)
(0.000396825 0.00084018 -4.01775e-24)
(0.000573782 0.0010358 1.27965e-21)
(0.00102435 -6.51945e-06 0)
(0.000541351 0.000864896 -4.34359e-21)
(0.000305519 -0.000129713 3.18994e-21)
(4.38502e-05 -1.23061e-06 0)
(0.000245995 -0.000140724 1.86056e-21)
(0.000576618 0.00116149 -4.56327e-21)
(0.000677009 0.00122383 1.67036e-21)
(0.000546669 0.000954018 2.60272e-21)
(0.000753249 0.00130226 1.38615e-21)
(2.76722e-05 -5.46529e-06 7.98737e-21)
(0.000512121 0.000958807 2.46578e-21)
(0.000534887 0.00099984 -5.13209e-24)
(0.000522198 0.000978504 0)
(0.00057073 0.00124901 -1.46822e-21)
(0.000618515 0.0012482 -1.70582e-21)
(0.000120532 -5.81444e-05 2.14806e-24)
(0.000610642 0.000530552 1.59187e-21)
(0.000670173 0.00120684 0)
(0.000580664 0.00123897 1.31851e-21)
(0.000757861 0.00131414 0)
(0.000566929 0.000962818 2.09498e-21)
(0.000582513 0.00115109 -2.26238e-21)
(0.000503556 0.000999187 0)
(0.000514885 0.00102163 1.05554e-21)
(0.000493486 0.00097916 1.05756e-21)
(0.000625546 0.00119415 -1.30823e-21)
(0.00059955 0.00100119 -3.17052e-21)
(0.000733576 0.00136837 -1.41034e-21)
(0.000550911 0.000283991 0)
(0.000738204 0.00142788 -1.4359e-21)
(0.000711498 0.00105467 -3.11618e-21)
(0.000140269 -6.54288e-05 -2.37445e-21)
(0.00053417 0.000871364 -6.88741e-23)
(0.000611079 0.00123225 1.7982e-21)
(0.000581707 0.00114579 1.18774e-21)
(0.000488378 0.00100881 0)
(0.000499082 0.00103136 -1.08806e-21)
(0.000478821 0.000988682 -1.08993e-21)
(0.000319889 0.000892875 -1.73517e-21)
(0.000582936 0.00126451 2.59205e-21)
(0.000282727 0.000371429 -1.12887e-21)
(0.000392711 0.000732957 3.52779e-21)
(0.000663685 0.00130733 -2.41154e-21)
(0.000376918 0.000958795 8.26874e-21)
(0.000619655 0.00142397 2.15104e-21)
(0.000626642 0.00114855 -1.61721e-21)
(0.000661265 0.00123155 -3.69034e-21)
(0.000585505 0.00104111 0)
(0.00059878 0.00106419 0)
(0.000573803 0.00102048 0)
(0.000686704 0.00132796 2.08124e-21)
(0.000476127 0.00100416 2.79058e-23)
(0.000487287 0.00102685 2.71657e-23)
(0.000466513 0.000983889 2.69902e-23)
(0.000545855 0.00116431 2.2341e-21)
(0.000612994 0.00108088 6.48262e-22)
(0.000575106 0.00100954 0)
(6.51963e-06 -6.44135e-05 0)
(0.000774462 0.00131667 -5.45516e-22)
(0.000666217 0.00119227 0)
(0.000540908 0.00100431 5.66853e-24)
(0.000554148 0.00102645 -1.59452e-21)
(0.000529998 0.000984296 -1.55592e-21)
(0.000581184 0.00116159 -1.47527e-21)
(0.000583265 0.00117296 -6.98551e-24)
(0.000720989 0.00141872 1.16219e-21)
(0.000643546 0.000956964 -2.61961e-21)
(0.000582236 0.00115339 2.82049e-23)
(0.000605583 0.00091657 3.82971e-21)
(0.000617856 0.00093563 1.34374e-21)
(0.000625132 0.00132181 1.57344e-21)
(0.000584025 0.00115196 -1.04159e-21)
(0.000485306 0.00101367 1.48208e-21)
(0.000507531 0.00105702 -2.87696e-21)
(0.000495556 0.00103419 1.53313e-21)
(0.000503562 0.000999823 -3.04776e-21)
(0.000514876 0.00102227 -9.78936e-22)
(0.000493501 0.000979791 -9.80606e-22)
(0.000632996 0.00132833 -9.81274e-22)
(0.000520653 0.00107794 -1.16937e-21)
(0.000739833 0.00128881 -6.06107e-22)
(0.000323594 0.000735523 -1.38333e-21)
(0.000550685 0.001099 1.03088e-21)
(0.000216693 -0.000114265 0)
(0.000465548 0.000969129 0)
(0.000504386 0.00104726 9.59e-22)
(0.000481913 0.000965081 -6.54645e-24)
(0.000765463 0.00142343 2.70886e-23)
(0.000714568 0.00127247 0)
(0.000520448 0.00110866 -9.96896e-22)
(0.000839543 0.00072503 3.29917e-21)
(0.000443107 0.000984409 1.95325e-21)
(0.000847022 0.000441472 2.17812e-21)
(0.000531266 0.00105353 1.23162e-21)
(0.000632262 0.00122163 1.40658e-23)
(0.000377461 0.000620435 3.9043e-21)
(0.000560509 0.00107062 -4.23845e-22)
(0.000752344 0.00131711 -1.1837e-21)
(0.000353501 0.000713267 -6.29219e-22)
(0.000510202 0.0010316 -2.25062e-21)
(0.00034684 0.000522389 2.17447e-21)
(0.00054826 0.00109574 1.24463e-21)
(0.000641967 0.00121615 2.61634e-21)
(3.1906e-05 -5.01725e-08 0)
(0.000550874 0.00100603 1.72338e-21)
(0.000570878 0.000960592 1.60719e-21)
(0.000802923 0.000704815 -5.09297e-23)
(0.000727399 0.00145032 -1.83177e-21)
(0.000492564 0.000988883 -3.47832e-21)
(7.24747e-06 1.24573e-05 -6.82588e-21)
(0.000623269 0.00130797 1.04211e-21)
(0.000557012 0.00117961 1.44004e-21)
(0.000525175 0.00109908 2.18656e-21)
(0.00060058 0.000920383 -1.2799e-21)
(0.000626478 0.000961322 -1.27777e-21)
(0.000612782 0.000939634 -1.32412e-21)
(0.000779058 0.00147313 -7.37846e-22)
(2.31254e-05 5.22478e-05 -2.5943e-21)
(0.000503645 0.00100729 -1.84705e-21)
(0.000155187 0.000199476 5.13902e-22)
(0.00041611 0.000956521 -2.13713e-21)
(0.000549918 0.000984667 4.9985e-21)
(0.000481014 0.000177118 -7.66929e-21)
(0.000719266 0.00144772 1.78366e-21)
(0.000752586 0.00142629 0)
(0.000325465 0.000511011 -7.12708e-22)
(0.000558673 0.00111062 -2.44667e-21)
(0.000684952 0.000989798 3.18093e-21)
(0.000275794 0.000324357 1.03091e-21)
(0.00088176 0.00135001 -1.25819e-21)
(0.000544177 0.000947808 1.41735e-21)
(0.000694635 0.00144609 4.31543e-21)
(0.000407063 0.000710701 1.86198e-25)
(0.000441546 0.000749357 -1.95448e-21)
(0.000558379 0.000971693 -3.37954e-21)
(0.000615976 0.00123433 -4.74244e-24)
(0.000484029 0.000964196 0)
(0.00051973 0.00106212 -6.69666e-23)
(0.000438719 0.000899588 2.74955e-22)
(0.000447935 0.000918118 2.84239e-22)
(0.000458278 0.000938985 2.79423e-22)
(0.00059261 0.00120738 3.17161e-22)
(0.000800874 0.00121798 -9.8336e-22)
(0.000528405 0.00105137 5.21366e-24)
(0.000520164 0.000985627 0)
(0.000509649 0.000965897 -3.2263e-21)
(0.000574229 0.00102329 0)
(-1.84403e-05 0.000664062 1.33316e-21)
(0.000575609 0.00115709 1.09827e-21)
(0.000488443 0.000958756 -9.51269e-22)
(0.000524797 0.000368032 -1.28476e-21)
(0.000617469 0.00123007 1.01486e-21)
(0.000527133 0.00105565 1.27064e-21)
(0.000299251 0.000463165 -2.67253e-21)
(0.000552232 0.00109909 -9.68585e-22)
(0.000569366 0.00115829 -2.55745e-21)
(0.000421594 0.000968088 4.89102e-21)
(0.000441291 0.0010101 4.88035e-21)
(0.000430772 0.000987929 1.99862e-21)
(0.000460367 0.00100044 -1.65997e-21)
(0.000470102 0.00102072 0)
(0.000593297 0.00123904 -3.15971e-21)
(0.000775773 0.00143602 1.67745e-21)
(0.000650348 0.000979666 -1.05004e-21)
(0.000693929 0.0013486 9.85817e-24)
(0.000477591 0.000945908 3.6226e-21)
(0.000628021 0.00113812 1.5082e-21)
(0.000535248 0.000981906 0)
(0.000557702 0.00102461 0)
(0.00054584 0.00100204 0)
(0.000606751 0.00104513 -1.69893e-21)
(0.000424555 0.000775718 -3.96988e-21)
(0.000673005 0.00112037 -7.0767e-22)
(0.000659199 0.00131069 8.21714e-22)
(0.000577103 0.00115151 1.15476e-21)
(0.000606848 0.000804912 -7.05303e-21)
(0.000488102 0.000983877 5.57904e-24)
(0.000509274 0.0010266 5.48476e-24)
(0.000498066 0.00100402 0)
(0.000723591 0.00142786 9.55912e-22)
(0.000599366 0.00103515 5.81201e-22)
(0.000453859 0.000973919 -1.6242e-21)
(0.000714679 0.00147252 -2.97241e-21)
(0.000615411 0.00116641 1.49441e-21)
(0.000683709 0.00147707 0)
(0.000583952 0.000917903 0)
(0.000525181 0.00105964 0)
(0.000438428 0.000754914 1.39657e-21)
(7.38485e-06 -1.69349e-05 -1.65698e-21)
(0.000505163 0.00100209 -9.18821e-22)
(0.000516505 0.00102455 0)
(0.000495085 0.000982031 0)
(0.000490255 0.000828932 0)
(0.000421371 0.000708383 -1.67496e-21)
(0.000577885 0.00109574 1.22799e-21)
(0.000419033 0.000966313 -2.08133e-21)
(0.000433024 0.000314476 2.12981e-21)
(0.000667364 0.00127415 2.23573e-21)
(0.000467936 0.000932142 -2.44844e-21)
(0.000575825 0.00102392 0)
(0.000495301 0.000943574 -1.01856e-21)
(1.02753e-05 -3.1713e-05 -1.34536e-21)
(0.000686341 0.00145311 0)
(0.000533494 0.00106029 -2.28717e-21)
(0.000607097 0.00123182 5.70337e-21)
(0.000568247 0.00107294 -9.95738e-22)
(0.000554269 0.0011289 -1.29768e-21)
(0.00030688 0.000693433 1.82055e-21)
(0.000362815 0.000520851 -2.94159e-21)
(0.00059141 0.000838858 -4.08747e-21)
(0.000797061 0.000277642 0)
(0.000746888 0.00115641 0)
(0.000577649 0.00107818 -1.23341e-21)
(0.0006473 0.00120501 -2.33785e-21)
(0.000528578 0.000609684 7.27827e-21)
(0.000742379 -1.21897e-05 2.68293e-24)
(0.0005872 0.00114975 9.03044e-22)
(6.94571e-05 0.000655481 1.81203e-21)
(1.93916e-05 -7.82142e-06 -8.16886e-21)
(0.000808859 -2.59821e-05 -1.86024e-21)
(0.000568243 0.00100174 8.89925e-22)
(0.000544892 0.000960288 8.90848e-22)
(0.000555909 0.000979821 9.21778e-22)
(0.000494453 0.00116247 0)
(0.000411248 0.000279535 6.51824e-22)
(0.000588529 0.000255386 -2.18871e-21)
(0.000935027 0.00130449 -6.03158e-22)
(0.00026735 0.000546048 4.72159e-21)
(2.35938e-05 -3.34159e-06 3.10807e-21)
(0.000489044 0.000958195 -1.03077e-21)
(0.000473655 0.000974591 1.19749e-21)
(0.000839326 0.000168143 0)
(0.000465191 0.000970067 -1.47416e-21)
(0.000515483 0.00104945 -7.29714e-22)
(0.000721497 0.00129188 1.19492e-21)
(0.00025874 0.000294508 9.42021e-22)
(0.000625114 0.0012254 0)
(3.29442e-05 -3.03633e-06 -1.55311e-25)
(0.000599085 0.00122591 6.88714e-22)
(0.000683906 0.00123811 -1.02311e-21)
(0.000574182 0.00105123 8.38932e-24)
(0.000609621 0.00106654 2.06806e-22)
(0.000535416 0.00109661 -1.42324e-21)
(0.000954153 0.000172133 0)
(0.000478639 0.000964423 -3.2862e-23)
(0.000681277 0.00128294 7.55547e-22)
(0.000542408 0.00110675 2.34863e-21)
(0.000489987 0.000981637 1.15323e-23)
(0.000511299 0.00102416 1.1521e-23)
(0.000500012 0.00100169 1.03813e-21)
(0.00056159 0.00115123 -1.79775e-21)
(0.000582931 0.0012973 1.74788e-21)
(0.000749819 0.00140673 -4.24533e-21)
(0.000660698 0.00131461 -9.55985e-22)
(0.000578248 0.00115623 -1.80283e-21)
(0.000691367 0.000720018 7.30364e-22)
(0.000709418 0.0014431 8.05937e-22)
(0.00064213 0.000849448 -2.12111e-21)
(0.000473459 0.000966831 1.83438e-21)
(0.000643011 0.00124859 4.1275e-23)
(0.000726498 0.00145269 -3.64369e-21)
(0.000644104 0.00117074 -1.36806e-21)
(0.000579375 0.00115573 1.04468e-21)
(0.000260677 0.000389316 -2.77054e-21)
(0.000406546 0.000805087 3.46898e-21)
(0.000578423 0.00104014 -1.03042e-21)
(0.000490676 0.000982765 0)
(0.000511982 0.00102531 0)
(0.000500698 0.00100283 0)
(0.000659727 0.00133361 0)
(0.000609306 0.00107602 0)
(0.000513899 0.00095521 2.08341e-21)
(0.000535851 0.000996841 2.08086e-21)
(0.000524281 0.000974825 2.15587e-21)
(0.000528336 0.00105612 9.66058e-22)
(0.000521819 0.00032802 5.20085e-21)
(0.000678773 0.00120207 -3.6275e-23)
(0.000718783 0.00148223 0)
(2.83201e-05 -3.49664e-06 -3.0391e-21)
(0.000551112 0.00110347 9.05263e-22)
(0.000219819 0.000498099 4.79202e-21)
(0.000578429 0.00115544 -1.95119e-21)
(0.000726326 0.00144222 1.80607e-21)
(0.000576383 0.000928153 -1.82459e-21)
(0.00102749 0.000103494 2.45868e-21)
(0.000616202 0.00123393 2.88802e-21)
(0.000635452 0.00121162 0)
(0.000607798 0.00123267 -6.14271e-21)
(0.000536277 0.00121503 9.54416e-22)
(0.000543062 0.00105223 8.81832e-22)
(0.000520276 0.00106076 -1.03572e-21)
(0.00048136 0.000969371 0)
(0.000547116 0.00109953 -3.018e-21)
(0.000565065 0.00109861 -8.89568e-22)
(4.28675e-05 -8.6009e-07 0)
(0.00074059 0.00130895 -2.49993e-21)
(0.000630837 0.00122837 8.90366e-22)
(3.9376e-05 4.02878e-05 3.68604e-21)
(0.000493952 0.000970405 0)
(0.000561935 0.00102743 7.4251e-22)
(0.000723271 0.0014347 -9.77683e-22)
(0.000780753 0.000751486 -6.12786e-22)
(0.000575185 0.00107093 -1.39996e-21)
(0.000644963 0.00125583 -1.21844e-21)
(0.000692066 0.0014141 -9.95384e-22)
(0.000610206 0.00123459 0)
(0.000616639 0.00122487 -2.92711e-23)
(0.0007268 0.0012664 -2.0616e-21)
(0.00112164 9.10354e-05 -3.2856e-21)
(2.85724e-05 3.8264e-05 3.46878e-21)
(0.000480445 0.00096488 1.49388e-23)
(0.000759021 0.00119161 1.14001e-20)
(0.000742363 0.00143729 9.71157e-22)
(0.000641505 0.00119771 -7.81122e-22)
(4.38523e-05 -2.04162e-07 5.18603e-21)
(0.000751197 0.00144398 0)
(0.000764476 0.000522425 5.33859e-21)
(0.000704683 0.00144611 0)
(0.000441738 0.000997273 4.17488e-22)
(0.000492493 0.000940217 1.64851e-21)
(0.000778614 3.78642e-05 -1.74216e-21)
(0.000608119 0.000957159 -6.88229e-22)
(0.000485889 0.0009706 1.79621e-21)
(0.00081008 0.00066091 -1.231e-21)
(0.000574535 0.000846107 -2.05731e-21)
(0.000742436 0.00140882 8.31948e-22)
(0.000723185 0.00122728 0)
(0.000484979 0.000952625 1.77483e-21)
(0.000604868 0.00107576 -1.61495e-23)
(0.00073234 0.00146165 -4.28676e-21)
(0.000604212 0.00104766 -1.47457e-21)
(0.000123435 0.000139268 -3.1546e-21)
(0.000586988 0.00102127 1.20888e-21)
(0.000918918 0.000216216 7.75158e-22)
(0.000570874 0.000742306 1.38548e-21)
(0.00068688 0.000704998 -2.52394e-21)
(0.000641755 0.00116279 1.24307e-21)
(0.000417644 0.000269122 -2.03458e-24)
(0.000721804 0.00143469 -1.82378e-21)
(0.000591209 0.000821094 2.12867e-21)
(0.000666548 0.000981545 1.34962e-21)
(0.000403003 0.000730483 -1.676e-21)
(4.50377e-05 9.83038e-08 1.87896e-21)
(0.000295068 0.000336539 2.3346e-21)
(0.000536643 0.000956819 0)
(0.000323296 -0.000152139 -4.64126e-21)
(0.000727214 0.000803521 -5.08794e-21)
(0.000423477 0.000883452 0)
(0.000662543 -4.79291e-06 1.17345e-23)
(0.000284703 -0.000109435 -7.61373e-21)
(2.93799e-05 4.45926e-05 -3.31651e-21)
(0.000831955 0.000233031 -2.73379e-21)
(0.000360675 0.000487126 1.71586e-21)
(0.000733468 -3.71776e-05 -3.43237e-21)
(0.000947823 0.000788504 2.3476e-21)
(0.000378217 0.000803092 1.38714e-21)
(0.000429587 0.000203672 -4.62549e-22)
(0.000165574 0.000391225 0)
(0.00065182 0.000699399 -4.01066e-24)
(0.000760566 0.00123317 2.16384e-23)
(0.000471263 0.000180353 1.53227e-21)
(0.000724438 0.00124146 -4.00478e-22)
(0.000383366 0.000484538 -1.70381e-21)
(0.000122563 0.000143765 2.5468e-21)
(0.000501639 0.00100198 -2.36009e-21)
(0.000379205 0.000241636 0)
(0.000616403 0.000550903 0)
(-1.34386e-05 0.000620202 5.95775e-22)
(0.000603489 0.00104871 -2.46914e-21)
(0.000358804 0.000478545 -1.44488e-21)
(0.000971285 0.000337005 3.04158e-21)
(0.000880387 0.00123019 1.00538e-21)
(0.00064508 0.0011422 -1.25635e-21)
(0.000311818 0.000226495 -2.51863e-21)
(0.00044007 0.000820287 0)
(0.000688008 -3.09198e-05 6.04896e-21)
(0.000568719 0.00103183 -2.61861e-21)
(0.000638558 0.00114284 1.03386e-22)
(0.000350451 0.000309313 0)
(0.000393374 0.000509573 1.6226e-21)
(0.000612079 0.000280409 2.66544e-24)
(0.00074577 0.0014528 3.50338e-21)
(0.000982525 0.000178692 2.92514e-21)
(0.00060012 0.00102831 0)
(0.000764144 0.00120748 5.51461e-23)
(0.000672654 0.00106319 -9.08713e-25)
(0.0005705 0.00090039 4.86513e-23)
(0.000595316 0.000939718 -9.03721e-23)
(0.00058225 0.000918927 5.02574e-23)
(0.000491268 0.000977832 -6.97018e-22)
(0.00051245 0.00102056 -6.96378e-22)
(0.000501242 0.000997949 -1.23782e-23)
(0.000343545 0.000756764 1.25756e-21)
(0.00056802 0.00103903 3.18105e-21)
(0.000415564 0.000888331 -1.77738e-23)
(0.000311453 0.000692222 2.44535e-21)
(0.000347815 0.000530371 7.52607e-22)
(0.00058025 0.000996066 0)
(0.000453333 0.00033177 2.28744e-21)
(0.000618594 0.00107736 -2.16298e-21)
(0.000382489 -4.9939e-05 -9.67723e-26)
(0.00047999 0.000120358 0)
(0.000952087 -1.04878e-05 3.70046e-21)
(0.00067267 0.000928366 0)
(0.000465924 0.000937958 -3.50082e-21)
(0.000932654 0.000180097 0)
(0.000534493 0.0010054 -1.5013e-21)
(0.000771089 3.54159e-05 -1.68027e-21)
(0.00107388 0.000637054 3.13986e-21)
(0.000524746 0.000132782 1.0218e-23)
(1.73179e-05 7.51756e-06 -3.1862e-21)
(0.000755343 0.00038182 2.93115e-21)
(0.000328586 0.000221867 0)
(0.000173318 -2.74645e-05 -4.20043e-21)
(0.000597203 0.00103336 4.41661e-22)
(0.000215169 0.000729713 0)
(4.52127e-05 1.46014e-06 -1.81652e-21)
(0.000433518 0.000641345 1.27331e-22)
(0.000956526 0.00056312 1.82095e-21)
(0.000696794 0.00024917 3.38361e-21)
(0.000558893 0.0009019 4.87754e-21)
(0.000684079 0.00130439 1.72535e-21)
(2.35291e-05 -7.04765e-06 3.35247e-21)
(0.000592955 0.00104661 1.53521e-21)
(0.000548788 0.000986952 0)
(4.5132e-05 0.000277065 -1.47454e-21)
(0.000524153 0.00104922 -1.54282e-21)
(0.000434491 0.00120519 -1.62386e-22)
(0.000414777 0.00116112 4.79823e-23)
(0.000491946 0.001343 -1.79292e-22)
(0.000374419 0.00106158 -1.10649e-22)
(0.000659169 0.000999122 -8.46694e-21)
(0.000589838 0.00156978 0)
(0.0013024 0.00087812 9.68611e-22)
(0.000930886 0.000580495 1.59568e-21)
(0.000739394 0.00127915 0)
(4.37413e-05 2.4635e-06 -5.42885e-21)
(0.000622992 0.00123038 0)
(0.000459742 0.0006621 8.94788e-22)
(0.000899825 0.000528814 8.55601e-22)
(0.000550262 0.00109447 5.56678e-24)
(0.000786077 0.00124503 -4.90558e-21)
(0.000462113 0.00030776 0)
(0.000731727 0.00127238 -2.78068e-21)
(4.37021e-05 3.74658e-05 0)
(3.43488e-05 3.84338e-06 2.32678e-21)
(0.000492266 0.000956428 0)
(0.000637292 0.00104658 -1.59236e-21)
(0.00106071 0.000913647 -1.9253e-21)
(0.00108256 0.000928153 1.71111e-21)
(0.000601099 0.00105548 -3.60011e-21)
(0.000326581 0.000821678 -8.87576e-23)
(0.000421722 0.00105135 -1.06924e-22)
(0.000366321 0.00090388 1.13875e-22)
(0.000374914 0.000938277 -9.55853e-23)
(0.000509722 0.00124184 -1.38568e-22)
(0.000887738 0.00111714 3.6337e-21)
(0.00057504 0.00100184 0)
(0.00018861 0.000484477 0)
(0.000352072 0.00116214 2.11725e-21)
(0.0002562 0.000514822 -5.34366e-21)
(4.27431e-05 -7.09058e-05 0)
(0.000433844 0.000861656 0)
(0.000628748 0.00109197 -1.35732e-21)
(0.000747693 0.0014262 6.72924e-22)
(0.000771171 0.00122737 -1.95413e-21)
(0.000654343 0.00100425 -1.12183e-21)
(0.000313567 0.000844604 8.31874e-25)
(0.000587927 0.00104124 1.14054e-23)
(0.000551589 0.00021712 -5.77847e-21)
(0.000848593 1.01635e-05 0)
(0.000723637 4.65145e-05 4.89627e-21)
(0.000122986 0.000334971 -1.53603e-21)
(0.000595384 0.00104444 5.74347e-22)
(0.000719253 -4.02472e-05 0)
(0.000188197 1.50976e-05 1.92884e-21)
(0.000281303 0.000470056 9.30226e-25)
(0.000594077 0.00103159 -6.17852e-22)
(0.000813555 -2.62993e-05 0)
(0.000457901 0.000453892 -4.91073e-21)
(0.000474657 0.00113676 0)
(0.000413211 0.000996944 0)
(0.00036222 0.000879249 0)
(0.000346015 0.000841623 0)
(0.000353584 0.000859283 0)
(0.000729389 0.000332055 1.16408e-21)
(8.87421e-05 0.000202931 -3.55955e-21)
(0.000313534 0.000247077 4.10352e-21)
(0.00052739 0.00140692 -1.66112e-22)
(0.000377224 0.00105176 -2.1898e-22)
(0.000385883 0.00107327 -2.26619e-22)
(0.000395942 0.00109736 -2.21866e-22)
(0.000454939 0.00123958 -2.4804e-22)
(0.000619794 0.00103578 4.92326e-21)
(0.0006346 0.00110496 0)
(0.000780269 0.000744536 2.70201e-21)
(0.000491132 0.00109183 1.59636e-21)
(0.000333659 0.000438406 2.54487e-21)
(0.000897575 0.000324418 1.98202e-21)
(0.000766916 0.00143377 1.84792e-21)
(0.000374438 0.000493116 -1.00717e-21)
(0.000519473 0.000782867 1.84224e-21)
(0.000589229 0.00102074 0)
(0.000954198 0.000852245 -3.20318e-21)
(0.000406359 0.000841881 -9.94016e-22)
(0.000401028 0.000784026 7.47527e-22)
(0.00010805 0.000506028 -1.44976e-21)
(0.000600436 0.00102716 1.13561e-21)
(0.000702997 0.000454152 -3.11069e-21)
(3.77269e-05 -2.58986e-07 2.21632e-21)
(0.00121924 2.05794e-05 0)
(0.00023231 0.0005112 5.22231e-24)
(0.000325404 0.000476138 1.52949e-21)
(0.000750974 0.000778992 -4.38947e-22)
(0.00175672 0.000305264 1.19103e-21)
(0.000170663 0.000758713 1.2454e-21)
(0.000452461 -6.24981e-05 0)
(0.000671657 0.000223095 0)
(7.77768e-05 -0.00011564 -6.24149e-22)
(0.000994964 0.000198584 3.31789e-21)
(4.13354e-05 4.28441e-06 2.58017e-25)
(0.000466894 0.00037932 2.17685e-24)
(0.000727395 0.00128964 -1.0923e-21)
(0.000482945 0.000978453 5.15339e-21)
(0.000522448 0.000997145 0)
(0.000509149 0.000777154 0)
(0.00038386 0.000739592 -3.62448e-21)
(0.000544705 -0.000144813 3.76979e-21)
(0.000605036 0.00107062 -1.21622e-21)
(0.000694883 0.000707453 -8.57134e-22)
(0.000524806 0.000786377 1.8208e-21)
(0.00128975 0.000109099 -5.83586e-21)
(0.000781089 0.000750713 -8.59754e-24)
(3.9091e-05 -3.57109e-06 -2.20947e-21)
(0.00065609 0.000990247 3.97309e-21)
(0.000491618 0.000993804 3.65268e-21)
(0.000856832 0.000218295 1.40996e-21)
(0.000824567 0.000268473 -1.83196e-21)
(0.000559895 0.000289542 4.68273e-21)
(0.000818946 0.00121184 5.10572e-22)
(0.000364924 0.000635528 0)
(0.00080275 0.00068758 -1.43624e-21)
(0.000634307 0.0011971 -5.3475e-21)
(0.000492945 0.000948349 -1.57151e-23)
(3.92403e-06 2.09129e-05 -2.34832e-21)
(0.000167024 0.000237482 -1.95957e-21)
(0.000444673 0.000680949 -9.95754e-21)
(1.06945e-05 8.37613e-06 0)
(0.000585052 0.00114957 8.34892e-22)
(0.000352473 0.00046136 2.78053e-21)
(0.000614084 0.00101805 3.64968e-21)
(0.000524872 0.00106006 -1.37423e-21)
(0.000927463 0.000826367 -7.73918e-21)
(0.000209983 -1.6442e-05 -1.21269e-24)
(0.000952385 0.000828324 9.83182e-24)
(0.00056061 0.000473674 -3.57237e-22)
(0.000601294 0.00108107 2.51241e-22)
(0.000737852 0.00143319 3.88031e-23)
(4.85484e-05 0.0010078 -1.9953e-21)
(0.000745892 0.001306 -1.61024e-21)
(0.000579611 0.000901751 -1.7058e-21)
(0.000607854 0.0010561 3.78241e-21)
(0.000586941 0.00105207 -5.85466e-22)
(0.000667627 0.000989494 0)
(0.000376667 0.000240563 -2.02566e-21)
(0.00147639 0.00140994 -1.46829e-21)
(0.000382121 0.00082494 0)
(0.000968654 0.000296358 0)
(0.000785299 0.00050525 7.12348e-21)
(1.63301e-05 -2.77635e-05 6.70432e-21)
(0.000575574 0.00102713 0)
(0.000711609 0.000613766 7.18574e-22)
(0.000634465 0.000921344 1.32668e-21)
(0.000648913 0.000940934 6.46928e-22)
(0.000621684 0.000902762 0)
(0.000658629 0.00134188 -1.79507e-22)
(0.00047429 0.000108019 -2.17153e-21)
(0.000152363 1.93993e-05 4.62785e-22)
(0.000671344 0.00058909 -2.83127e-21)
(1.83381e-05 -4.25643e-06 -6.74895e-21)
(0.000593044 0.00111059 -2.0051e-21)
(0.000415648 0.000885645 4.4761e-23)
(0.000539503 0.00113044 -1.60804e-22)
(0.000471769 0.000982323 7.66113e-23)
(0.000478542 0.00100985 -1.46064e-22)
(0.000839683 0.00112033 6.47253e-21)
(0.00120025 0.00113557 2.61747e-23)
(0.000719665 0.000622161 -1.0715e-23)
(0.00064811 0.000998051 -9.82212e-21)
(0.000512388 0.000356004 -7.93538e-24)
(0.000154214 0.000132993 6.6262e-21)
(0.000492923 0.000508359 -1.29177e-20)
(0.000110005 0.000511652 9.22217e-22)
(7.91393e-05 0.000196272 5.46851e-21)
(0.000524451 0.000911973 -1.23683e-24)
(0.00026339 4.68963e-05 -1.46682e-21)
(0.000580557 0.000281594 8.71483e-21)
(0.000480403 8.26718e-05 -7.42449e-24)
(0.000335048 0.000909971 1.14878e-21)
(5.21263e-05 0.000381053 -3.38548e-21)
(0.000571597 2.55777e-05 -1.01986e-23)
(0.00125917 0.000258683 -2.39677e-21)
(4.34774e-05 -1.19836e-06 -1.27327e-21)
(0.000871428 0.000221599 4.41136e-21)
(0.000662174 0.000959757 -2.03346e-21)
(0.000745889 0.00129625 8.03501e-22)
(0.000190287 0.000574533 -1.19901e-21)
(0.000540646 0.000418412 7.69856e-22)
(0.000639939 0.00122731 1.93703e-21)
(0.000528357 0.00105271 2.71313e-21)
(0.000640142 -0.000359707 0)
(0.000556684 0.00130573 -9.6502e-22)
(0.00105632 0.000914152 0)
(-0.00014372 0.00113567 1.73718e-21)
(0.000866541 0.000527156 1.55567e-21)
(0.000354601 0.000742746 0)
(0.000465486 0.00103216 0)
(0.000634885 0.000817836 0)
(0.000453401 0.0009638 7.06754e-21)
(0.000195314 0.000711946 -2.2148e-21)
(3.66189e-05 -3.65687e-06 -3.64014e-21)