/*--------------------------------*- C++ -*----------------------------------*\
  =========                 |
  \\      /  F ield         | OpenFOAM: The Open Source CFD Toolbox
   \\    /   O peration     | Website:  https://openfoam.org
    \\  /    A nd           | Version:  7
     \\/     M anipulation  |
\*---------------------------------------------------------------------------*/
FoamFile
{
    version     2.0;
    format      ascii;
    class       volVectorField;
    location    "78";
    object      U;
}
// * * * * * * * * * * * * * * * * * * * * * * * * * * * * * * * * * * * * * //

dimensions      [0 1 -1 0 0 0 0];

internalField   nonuniform List<vector> 
591
(
(0.000831925 -1.90929e-05 1.21759e-18)
(0.000823531 -1.80894e-05 -6.63617e-19)
(0.000856944 9.91102e-07 5.71258e-20)
(0.000862153 -1.50244e-05 -1.49095e-19)
(0.000847142 -1.22968e-06 2.25557e-19)
(0.000802878 -4.03179e-05 -1.39618e-19)
(0.000564023 -0.000270862 8.06311e-19)
(0.000803752 4.4581e-06 2.09383e-18)
(0.00573258 0.00250527 9.87925e-19)
(0.000804094 -1.02863e-05 2.45272e-18)
(4.80243e-05 0.000166873 1.21825e-18)
(0.000934684 0.00138248 9.40806e-21)
(0.000800077 4.48418e-06 1.32519e-18)
(0.00159964 0.00239717 -7.87546e-19)
(0.000803416 2.0146e-06 -4.45124e-19)
(5.68315e-05 -0.000186949 2.28378e-22)
(0.000138171 0.000675893 7.04947e-19)
(0.000818228 7.14428e-05 -4.97864e-19)
(0.00191725 0.000393759 4.73922e-19)
(0.00135951 0.000252806 -2.47101e-19)
(0.0008331 -6.89403e-06 3.73213e-19)
(0.00340003 0.00655944 -8.15088e-20)
(2.59798e-05 6.8167e-05 2.70941e-19)
(0.000835797 -1.95386e-05 -4.51319e-19)
(9.57858e-06 -1.44335e-05 3.5892e-19)
(0.00077922 3.5784e-05 0)
(9.36666e-05 0.000472083 1.59965e-19)
(0.00055311 6.54306e-06 -1.78836e-19)
(0.000756928 4.69658e-05 1.14948e-18)
(0.000809787 5.81158e-05 5.87683e-19)
(5.48681e-05 -4.28279e-06 -4.66849e-24)
(2.9096e-05 -4.41235e-05 3.52167e-19)
(3.38962e-05 -2.89558e-06 -4.64213e-20)
(4.29257e-05 -1.20589e-05 0)
(5.19707e-05 -1.30419e-05 1.13143e-18)
(0.00117398 0.000134297 1.79922e-19)
(2.8773e-05 -4.97497e-06 4.47133e-20)
(0.000825802 2.62708e-06 3.11947e-23)
(2.58548e-05 4.19823e-05 2.66023e-19)
(6.15878e-06 -8.83414e-05 -8.54786e-19)
(0.000646356 -0.000202472 9.59676e-19)
(2.28538e-05 -6.13751e-06 4.54813e-20)
(0.000805514 6.17122e-06 -1.58086e-18)
(0.000831796 4.54867e-05 -6.91136e-19)
(1.53275e-05 -7.12624e-06 0)
(5.27734e-05 5.93573e-06 8.51849e-20)
(0.00134695 0.00450182 8.92981e-19)
(7.35121e-05 1.42398e-05 8.63602e-20)
(0.000801284 1.62587e-05 0)
(0.000386532 -0.0002164 6.77422e-19)
(0.000384347 0.00027127 5.11904e-21)
(0.000397019 4.40078e-05 -1.00377e-18)
(0.00634815 0.0109413 -7.68606e-19)
(0.00622483 0.0107965 1.52789e-20)
(0.00561433 0.0103792 1.45594e-18)
(0.000807883 3.4684e-05 0)
(6.51502e-05 2.91572e-05 0)
(0.000317942 7.97819e-06 1.80543e-23)
(6.06855e-05 9.2731e-06 -3.46449e-19)
(0.000813929 -7.8405e-06 0)
(0.000644784 2.88846e-05 3.17555e-19)
(0.000837764 1.52263e-05 2.20749e-18)
(0.000804151 3.32346e-05 -5.39623e-19)
(0.000799862 1.36668e-05 -3.15744e-19)
(0.00171215 0.000488661 5.42789e-19)
(0.000802555 2.03811e-05 -1.15158e-18)
(0.000831589 2.49461e-05 -5.24252e-19)
(7.73779e-05 -4.04134e-06 -1.73407e-19)
(0.000688834 0.0022616 0)
(0.000840065 4.20453e-05 0)
(0.000782767 1.878e-05 -1.39281e-18)
(3.66105e-05 1.51264e-05 0)
(0.000290145 0.000268311 3.26839e-19)
(3.77325e-05 -1.66599e-05 0)
(3.92809e-05 -5.76534e-06 1.59468e-19)
(1.22759e-05 -4.14614e-05 -3.36661e-20)
(0.000794661 7.76523e-05 2.46904e-19)
(4.25731e-05 9.90125e-06 0)
(0.00080426 5.58884e-05 4.47451e-19)
(0.000775608 0.000293581 2.10722e-19)
(0.000963515 6.41474e-05 -3.97909e-20)
(4.14329e-05 2.18576e-05 -4.51851e-20)
(4.98378e-06 -1.90695e-05 0)
(0.000436528 0.000214745 1.70182e-19)
(2.82149e-06 2.04986e-05 0)
(0.000797482 4.03978e-05 -6.06699e-19)
(0.000620533 -0.000119564 0)
(6.21706e-05 -2.69331e-06 -1.74475e-19)
(2.49595e-06 -2.61842e-05 0)
(0.000830919 0.000240872 -3.41253e-19)
(3.18189e-06 -1.11957e-05 0)
(0.000426043 0.000322304 -1.31567e-23)
(0.000534505 0.000110612 0)
(0.000810075 4.36973e-05 -3.0461e-24)
(2.53741e-06 1.27616e-05 -4.21702e-20)
(0.000459967 -1.78362e-05 1.76349e-18)
(0.0010222 7.22795e-05 4.16012e-20)
(0.000815792 4.53888e-05 6.41309e-22)
(0.000741682 0.000658173 2.69494e-19)
(6.83897e-06 4.53588e-05 0)
(-1.98902e-06 -3.69127e-05 -3.12092e-19)
(-2.76642e-05 -6.108e-05 -1.10128e-18)
(4.46724e-06 7.31951e-05 -5.96351e-19)
(0.000610604 -2.35167e-05 0)
(8.57011e-06 9.74738e-05 0)
(0.000814611 2.8366e-05 2.1821e-18)
(0.00079184 2.7705e-05 1.53425e-18)
(0.000433147 -9.10203e-05 0)
(4.10971e-05 0.000214881 -8.95356e-19)
(1.97707e-07 0.000162664 4.96733e-19)
(5.96509e-05 0.000403547 6.25223e-19)
(0.00030738 7.72243e-05 -9.37123e-19)
(0.000802476 2.01505e-05 1.37368e-19)
(0.000260006 -5.10776e-05 5.31209e-19)
(4.23943e-06 2.96974e-05 0)
(2.04798e-05 0.00028049 -1.09397e-18)
(0.000322175 0.00032221 -1.617e-19)
(2.55561e-08 -3.00783e-05 1.46535e-19)
(0.000670157 0.000812102 0)
(0.000370197 0.0003858 5.74402e-20)
(0.000818752 2.03188e-05 1.07026e-18)
(0.000799609 1.65292e-06 -2.72276e-18)
(5.46832e-06 -2.42724e-05 0)
(0.00066756 -3.59851e-05 -1.12311e-19)
(0.000321749 -0.000125462 1.24319e-18)
(0.00263822 0.000809344 -3.36419e-19)
(6.50181e-06 0.000127332 -6.13179e-19)
(6.24941e-06 0.000155876 1.61947e-18)
(0.000691508 2.34717e-05 -3.89882e-20)
(6.03468e-05 -1.45745e-05 -7.50145e-19)
(0.000808242 3.22317e-05 -3.86885e-19)
(0.000740663 2.65723e-05 -4.10445e-20)
(3.47371e-05 0.000326609 -5.97038e-19)
(0.000491484 6.15354e-05 -4.93921e-19)
(4.61222e-05 -3.6903e-06 1.56148e-19)
(0.000836318 3.28101e-05 -1.09279e-18)
(0.00154828 0.000236432 -1.1371e-18)
(4.61237e-06 5.89147e-05 4.96418e-19)
(0.000810807 3.16464e-05 -4.98195e-19)
(0.00091656 0.000546356 -7.85085e-20)
(0.000147453 0.0007862 0)
(0.00058784 6.41064e-05 0)
(0.000276411 4.9522e-05 -1.6096e-18)
(6.16391e-05 5.62695e-05 -1.37406e-18)
(2.94145e-05 1.94505e-05 0)
(0.00424709 0.00740006 -1.01965e-20)
(0.00422541 0.00737199 3.16531e-20)
(0.00442762 0.00757478 -4.96894e-21)
(0.00420647 0.00773445 0)
(0.00419889 0.00760028 5.77262e-19)
(0.00424422 0.00740141 -9.20089e-20)
(0.00421017 0.00804202 4.84481e-19)
(0.00428957 0.00742213 0)
(0.00420841 0.00853511 6.16795e-19)
(0.00432605 0.00745061 2.2392e-19)
(0.000827487 1.17352e-05 -1.37367e-18)
(0.00077398 5.5843e-05 0)
(0.000212528 4.79643e-05 1.27695e-19)
(4.82799e-05 1.45354e-05 8.71822e-20)
(7.58564e-05 4.22832e-05 6.80002e-19)
(0.000103186 3.80535e-05 -3.4166e-19)
(9.67289e-05 2.61463e-06 0)
(4.58373e-05 4.09739e-06 8.1835e-20)
(0.000206719 0.000128525 0)
(0.000163584 3.72105e-05 -5.24291e-20)
(0.000344921 0.000219768 -5.09246e-21)
(5.41078e-05 4.0885e-05 -4.37643e-19)
(8.80011e-05 2.44989e-05 -8.5245e-20)
(8.84048e-05 5.89505e-05 1.31192e-21)
(0.000257691 0.000364008 -6.66162e-19)
(0.00010816 0.000997244 0)
(4.06699e-05 5.05684e-05 3.43053e-19)
(0.000198598 0.00174839 0)
(0.000208078 0.000250861 7.04648e-19)
(3.52981e-05 -3.45555e-06 1.11492e-19)
(0.000486878 0.000162484 -1.72298e-19)
(0.00076572 2.40976e-05 -1.92409e-18)
(4.04544e-05 -1.45838e-06 4.62738e-24)
(0.000145214 2.03892e-05 2.24585e-19)
(0.000244925 8.78796e-05 -8.9931e-20)
(0.000881694 0.000701101 3.34935e-19)
(0.000725222 0.00163449 -9.23552e-21)
(0.000399364 0.00142167 -9.3935e-21)
(0.00102634 0.000546502 0)
(9.80165e-05 -1.75542e-05 1.11868e-18)
(0.000112404 1.18062e-05 -4.43077e-20)
(0.000461611 -0.000284189 -1.13613e-18)
(0.000818147 4.09531e-05 0)
(0.000179485 -4.68253e-06 3.63296e-19)
(0.00030155 0.00130523 0)
(0.00108398 0.000775089 -7.30185e-20)
(0.000827061 3.18564e-05 -1.86552e-19)
(7.29201e-05 -2.22522e-05 -2.99971e-19)
(0.000833447 0.000317767 -2.08043e-20)
(5.21985e-05 -2.13348e-05 -5.99479e-19)
(0.000226734 0.000172102 8.63863e-20)
(0.000230521 0.000307406 -3.45005e-19)
(0.000889924 0.000249688 0)
(0.000819174 5.3643e-05 0)
(0.000264615 0.000131441 1.76844e-19)
(0.000233452 -4.86616e-06 4.80245e-24)
(0.000184587 0.000203103 0)
(0.00029958 0.000650895 -5.55692e-21)
(0.000352481 -1.36815e-05 0)
(0.000376769 0.000599073 0)
(0.000106906 7.8952e-05 -1.34667e-21)
(0.000810398 3.02753e-05 -9.51261e-19)
(0.00080687 1.95629e-05 7.97924e-19)
(0.000126715 5.35995e-05 -1.49853e-19)
(0.000963318 0.000148114 8.50454e-20)
(0.000838758 4.15356e-05 3.33314e-19)
(0.000819003 2.9863e-05 -2.9411e-19)
(0.00102494 0.000416673 0)
(0.000441735 0.000115898 6.24422e-19)
(0.00090334 0.000321631 2.09134e-20)
(0.000582549 0.00015401 0)
(0.000272571 0.000446524 4.09635e-19)
(0.000262085 0.000214018 -8.44162e-20)
(0.00109788 0.000380232 -7.82118e-19)
(0.00062957 0.000103476 -1.79287e-19)
(0.000814068 7.37587e-05 -7.45756e-21)
(0.000842783 2.76202e-05 9.40036e-20)
(6.88842e-05 -8.68908e-05 -1.98133e-18)
(0.000741598 0.000380825 2.19231e-19)
(0.000674364 6.53161e-05 2.3063e-20)
(0.000710346 0.000279382 1.60807e-23)
(0.000733457 0.000460508 -4.09682e-19)
(0.000848487 2.47833e-05 9.06941e-20)
(7.03688e-05 7.68327e-05 0)
(0.000659096 0.000421499 -4.6591e-20)
(0.000182908 9.10254e-05 0)
(0.000374571 0.00050174 -2.64834e-19)
(0.000310536 0.000164186 0)
(0.000678324 0.000205122 3.55218e-19)
(0.000653193 0.000259639 -4.37242e-20)
(8.0626e-05 0.000101568 6.19142e-19)
(0.000878648 9.4815e-05 -1.63071e-18)
(5.55489e-05 2.03965e-05 2.57185e-19)
(0.000890586 7.12988e-05 -1.68598e-18)
(0.000843399 8.95974e-05 1.63005e-19)
(0.000811436 3.42527e-05 1.90921e-18)
(0.000818648 3.36682e-05 -1.32847e-19)
(0.000739909 7.17152e-05 0)
(0.000805857 2.31448e-05 8.9559e-19)
(0.000964531 0.000232445 -4.27089e-19)
(0.00077849 9.63398e-05 -4.83724e-19)
(0.000780315 0.000233807 -8.81199e-20)
(0.000206913 -0.00017594 -2.0774e-18)
(0.000752501 8.01132e-05 8.87515e-19)
(0.000641455 0.000594629 0)
(7.89342e-05 -0.000119208 0)
(0.00122482 0.000472849 4.97271e-19)
(0.000599261 -6.026e-05 -3.26833e-18)
(0.00134829 0.000415005 5.76478e-19)
(0.00124675 0.000717804 -6.38895e-20)
(0.0008139 3.17122e-05 -2.12382e-19)
(0.000838673 6.69757e-05 -1.42623e-18)
(0.000815007 2.69793e-05 1.58775e-18)
(0.000816958 2.53757e-05 9.78196e-20)
(0.000671518 0.000352974 -4.40393e-20)
(0.000100592 0.000119687 6.66633e-24)
(0.000756128 -3.61879e-05 2.65055e-19)
(0.000213692 -0.000263467 -7.31981e-19)
(0.000628705 0.000185026 0)
(0.000714577 4.79288e-05 9.90368e-20)
(0.00070278 9.69707e-06 -3.80799e-19)
(0.000391638 0.000168307 3.93354e-20)
(0.000808931 0.000507857 -1.65472e-19)
(0.000147367 7.16367e-05 3.45002e-25)
(0.000814165 0.000412808 0)
(0.000982929 0.000317111 4.15759e-20)
(0.000761244 -7.1299e-05 -6.1611e-19)
(0.000350498 0.000101614 4.978e-19)
(0.000904309 0.000426791 0)
(4.74917e-05 2.96896e-05 1.33707e-19)
(0.000487323 0.00026564 2.13945e-19)
(0.000521666 -0.000158554 -7.09464e-19)
(0.00011856 -0.000167058 -1.05607e-18)
(0.000825327 3.52752e-05 -4.86769e-19)
(0.000770637 -7.93585e-05 -1.94323e-19)
(0.000547575 0.000729689 -1.17436e-18)
(0.000850275 4.71877e-05 -6.74446e-20)
(0.000606985 -1.88027e-05 1.27968e-18)
(0.000708742 9.95882e-05 2.27773e-20)
(0.000535737 0.000207585 -1.6568e-19)
(2.86632e-05 -2.07286e-05 -8.75813e-20)
(0.000161846 -4.95402e-05 2.40598e-18)
(1.6149e-05 6.59766e-07 -1.94839e-19)
(0.000832967 0.000115569 3.63733e-19)
(0.000669495 0.000135762 0)
(0.000181256 -9.44886e-05 -1.04812e-18)
(0.000117932 -2.14846e-05 3.1286e-19)
(0.00010312 -3.78234e-05 1.30463e-23)
(0.000802033 0.000105546 -3.19252e-19)
(0.000150372 -1.61919e-05 0)
(0.000588399 0.000240815 0)
(0.000111309 0.00032733 -3.62843e-19)
(0.000863627 0.000100789 2.10253e-18)
(1.31536e-05 9.65783e-07 0)
(0.00088209 5.32143e-05 0)
(4.07015e-05 -2.56e-05 0)
(0.000815426 4.72488e-05 -4.46795e-21)
(0.000787893 -4.04783e-05 0)
(0.00426004 0.00740647 8.07025e-20)
(0.0043619 0.00748648 1.43357e-19)
(0.000843762 -9.3636e-06 0)
(0.000790573 -4.38683e-05 8.12164e-19)
(0.000152313 0.000121619 1.49205e-19)
(0.000855911 6.76383e-05 8.07714e-19)
(0.000128763 9.85877e-05 2.34388e-20)
(0.000783481 -2.65621e-05 6.24356e-19)
(3.33791e-05 9.03142e-06 0)
(2.62949e-05 -1.28346e-05 -4.48464e-20)
(0.000900244 4.87577e-05 -4.86536e-19)
(3.03249e-05 -3.08289e-05 -6.69779e-19)
(0.000760326 0.000123076 -4.23224e-20)
(0.00016863 0.000159411 -1.88094e-19)
(0.000814629 2.9409e-05 0)
(0.00468248 0.00815357 9.00626e-22)
(0.00018446 0.000789323 3.33479e-19)
(0.00011097 -6.16578e-05 -9.14495e-19)
(5.72521e-05 -3.50333e-05 -1.16872e-18)
(0.000625773 1.35273e-05 1.89838e-20)
(0.000582321 0.000406881 0)
(0.000420772 0.000443835 -2.56325e-19)
(7.80032e-05 -6.15843e-05 1.18366e-18)
(0.000584425 -4.31434e-08 7.69737e-20)
(4.02554e-05 1.58656e-06 4.0708e-19)
(0.000708095 -4.93385e-05 1.17158e-18)
(0.000811675 3.2711e-05 -6.01691e-19)
(5.97812e-05 -5.49423e-05 1.70928e-18)
(0.000842267 -2.96973e-05 -5.84582e-24)
(0.000602287 6.72332e-06 -3.76255e-20)
(0.000870132 7.05197e-05 0)
(0.000841679 4.26919e-05 0)
(0.00591738 0.00724161 2.5969e-19)
(1.67635e-05 -2.51644e-06 -1.19582e-19)
(0.000116316 -0.000106322 7.72972e-19)
(0.000728339 0.000116843 -6.96412e-19)
(1.96615e-05 6.62325e-08 2.01516e-19)
(0.00063051 -3.59628e-05 -7.23785e-19)
(0.000746575 3.66077e-05 1.55798e-18)
(0.000707262 0.000159192 -3.55425e-19)
(0.000807649 -1.24115e-05 3.60787e-19)
(7.20226e-05 -3.49985e-05 1.11595e-18)
(0.000800444 6.72864e-06 -3.22677e-19)
(0.00086861 4.03318e-05 0)
(0.000543751 0.000302985 4.21004e-20)
(0.000860176 5.09328e-05 -9.46867e-19)
(1.74001e-05 2.58286e-06 9.11299e-19)
(0.000855588 4.5367e-05 9.65624e-19)
(0.000858851 1.36618e-05 -9.64593e-19)
(0.000754784 -1.8773e-06 -5.69153e-19)
(0.000528443 -7.57382e-05 -5.25627e-19)
(0.00432902 0.00745282 2.47053e-19)
(0.00422347 0.00752905 -2.53625e-19)
(0.00422127 0.00758697 2.66878e-19)
(0.00425584 0.00741058 1.97973e-19)
(0.000844878 -3.07033e-05 1.44191e-19)
(0.00447597 0.00751275 0)
(0.00440345 0.00751707 -3.86875e-19)
(2.71933e-05 -1.26454e-07 -9.98098e-19)
(0.00417055 0.00746927 -6.3366e-20)
(0.00414591 0.00743239 -2.21514e-19)
(0.00602954 0.0106059 0)
(0.00654048 0.0111875 3.71434e-20)
(0.00600948 0.0105756 0)
(0.00655618 0.011211 1.30872e-19)
(0.00599682 0.0105996 2.69695e-19)
(0.00659287 0.0112279 1.246e-20)
(0.00593552 0.0106124 -7.76795e-19)
(0.00662313 0.0111468 8.15023e-21)
(0.0039037 0.00919904 -1.90844e-19)
(0.00418683 0.00748831 3.89954e-21)
(0.00423803 0.00755243 7.9359e-20)
(0.00415039 0.00743469 4.12038e-20)
(0.000883298 0.000193173 4.46725e-20)
(9.26305e-06 1.31274e-06 0)
(0.000709464 -0.000116479 0)
(0.000661554 5.27736e-05 0)
(0.00244379 0.00111172 4.23326e-21)
(0.00075617 -3.14447e-05 1.72575e-19)
(3.8807e-05 5.29517e-06 4.54042e-20)
(8.88126e-06 -2.57059e-05 1.65306e-18)
(0.000853687 1.20928e-05 0)
(2.67415e-05 1.19936e-05 -1.91722e-19)
(0.00013979 0.000221271 0)
(1.59482e-05 -9.6283e-07 0)
(1.28196e-05 -1.22381e-06 0)
(0.000826701 0.000142046 1.13742e-20)
(0.000810916 -1.79188e-05 1.79453e-19)
(3.70992e-05 0.000269048 -1.40044e-23)
(0.000157336 0.000271371 -1.84189e-18)
(0.000604984 0.000328302 -8.56981e-20)
(0.00089769 0.000109983 6.01041e-19)
(0.000643698 -0.000198075 6.73667e-19)
(0.000362011 0.00111067 0)
(0.000474792 0.000575315 2.71523e-18)
(8.97471e-05 0.00014389 -1.80309e-18)
(2.00791e-05 -3.46816e-08 0)
(0.000821879 -5.98979e-05 3.63744e-20)
(1.56714e-05 3.48453e-05 1.64445e-18)
(0.000898186 3.32202e-05 2.71163e-19)
(-2.254e-05 2.67462e-05 3.80903e-18)
(0.000929163 4.02549e-05 -2.6903e-19)
(0.00134495 0.000150929 7.47184e-19)
(3.34727e-05 -1.03893e-05 8.25688e-20)
(3.50206e-05 3.35266e-06 -8.59078e-19)
(5.0762e-05 0.000140499 0)
(0.00091229 8.24197e-05 5.98523e-19)
(0.000494987 0.000367818 2.3714e-19)
(0.000649945 1.77293e-05 -3.89124e-20)
(0.000780305 -2.1242e-06 2.57351e-19)
(0.000734925 -0.000170437 0)
(0.00632131 0.0108963 -1.68071e-19)
(0.00637907 0.0109739 4.05858e-19)
(0.00616031 0.0107311 -6.18473e-19)
(0.00650152 0.0111328 -8.09859e-20)
(3.37026e-05 0.000117295 8.00522e-19)
(0.000922643 6.02703e-05 1.45357e-22)
(0.00641163 0.0110064 -3.86485e-19)
(0.00628226 0.010846 5.48498e-19)
(0.00608043 0.0106728 -4.16867e-19)
(0.00652202 0.0111652 -6.81458e-20)
(7.98984e-05 0.000502473 -2.01812e-20)
(7.30858e-05 -0.000200857 -7.92968e-19)
(0.00066386 -2.07294e-05 -7.65345e-19)
(0.000725684 0.000220053 0)
(0.000800177 3.31205e-07 0)
(0.000186845 0.00038959 3.36294e-19)
(0.000599114 0.000513422 -5.41863e-19)
(8.6748e-06 -1.48573e-06 1.78393e-19)
(0.000200672 0.000467295 -7.38387e-19)
(0.00101303 0.000974494 -1.12686e-19)
(0.000745658 0.000165901 0)
(0.000789525 0.000184212 1.3102e-19)
(0.00635372 0.00588099 1.13148e-18)
(0.00073915 0.00112864 8.26597e-20)
(3.794e-05 3.72135e-05 -7.4468e-20)
(0.000809494 1.21693e-05 0)
(0.00087386 2.54948e-05 -3.56905e-20)
(3.33499e-05 2.9677e-06 -1.96713e-19)
(2.8898e-05 4.36137e-06 1.92993e-19)
(0.000833551 1.73354e-05 5.37215e-19)
(0.000974866 0.000110618 6.58264e-19)
(0.000558808 4.02658e-05 0)
(0.000222815 -0.000293899 -3.98093e-19)
(0.000916391 0.000145916 3.89595e-19)
(1.00524e-05 -5.80074e-05 2.03116e-19)
(0.0014517 0.00044295 -2.58179e-18)
(0.000587392 -8.97509e-06 0)
(0.000793292 0.000143553 3.75467e-19)
(9.47664e-05 0.000393468 0)
(0.00118813 0.00816124 4.6216e-19)
(0.00049184 0.000499333 -1.22454e-18)
(0.000541111 0.00101154 -1.83753e-19)
(0.000882659 1.73062e-05 -1.46055e-19)
(1.26024e-05 2.46579e-05 0)
(0.000950114 7.74341e-05 6.11683e-19)
(0.00410634 0.00739549 8.14322e-20)
(0.0041714 0.00747374 4.73053e-20)
(0.00449977 0.00751547 4.54094e-19)
(0.00444494 0.00754131 -3.29431e-19)
(0.00647546 0.0111098 8.10634e-20)
(0.00391483 0.00714607 -9.63186e-22)
(0.00550803 0.00779808 -5.6478e-19)
(0.00409786 0.00737169 5.2191e-21)
(0.0051887 0.00785777 5.1171e-19)
(0.00407967 0.00734014 -4.87232e-20)
(0.00495375 0.00771714 0)
(0.00408497 0.00736455 -8.56628e-20)
(0.0047424 0.00758822 4.92547e-19)
(0.00409824 0.00737615 8.752e-20)
(0.00457498 0.00752783 0)
(0.0042836 0.00742069 1.39757e-19)
(0.00423948 0.00759857 5.80519e-19)
(0.00446737 0.00752675 -5.55433e-19)
(0.00438765 0.00750464 3.71413e-19)
(0.00422804 0.00752497 2.8785e-19)
(0.00643082 0.0110431 -4.97705e-21)
(0.0041178 0.00740161 3.11617e-20)
(0.00645892 0.011073 0)
(2.33291e-05 5.55671e-06 -1.89859e-19)
(0.002 0.00654424 2.28257e-19)
(0.000838586 -5.15351e-05 1.09814e-19)
(0.000855717 7.51489e-06 0)
(1.39376e-06 1.15801e-06 -3.9911e-19)
(-1.32875e-05 -0.000122229 6.91922e-19)
(2.41549e-05 5.58887e-05 2.08899e-18)
(0.000829742 0.000181428 -9.00716e-20)
(0.000800671 8.93668e-06 7.0639e-19)
(1.12088e-06 -8.88679e-07 3.09988e-19)
(1.75522e-05 -3.28703e-05 -1.84564e-18)
(0.00076299 2.72536e-05 1.63152e-19)
(0.000868678 0.000123947 -3.07987e-20)
(0.000800625 -8.42301e-06 1.48135e-19)
(0.000418535 0.000680062 0)
(3.59931e-05 -0.000144398 1.15145e-18)
(0.000866123 6.54513e-06 1.52518e-19)
(1.95688e-05 2.32996e-05 0)
(0.00011629 0.000558954 -6.31245e-19)
(0.000609216 0.000591757 1.31794e-18)
(0.000326922 0.000753202 0)
(0.000801518 -1.63224e-05 0)
(0.00080123 2.93066e-06 1.17531e-18)
(1.70509e-05 4.83125e-05 -3.51494e-18)
(1.61434e-05 6.87388e-06 3.73621e-19)
(0.000116305 0.000143587 0)
(4.29703e-05 -4.05231e-05 0)
(6.12704e-05 0.000111354 2.00998e-19)
(0.0009377 0.000188838 3.50432e-19)
(0.000800092 1.52787e-05 -1.3979e-18)
(2.24234e-05 3.2481e-05 0)
(0.000447576 7.89774e-06 -6.04223e-20)
(0.000800945 3.78545e-05 -1.56346e-19)
(0.000843676 3.8447e-05 1.06404e-18)
(0.000257205 0.000542067 6.3223e-19)
(0.00087776 0.000156716 0)
(1.76953e-05 -2.28786e-05 5.38633e-19)
(2.29187e-06 -5.01936e-06 -3.19965e-19)
(0.000970124 3.2211e-05 0)
(0.00103749 0.00226656 0)
(0.000929536 -3.35645e-06 0)
(0.00100281 0.000207509 4.27178e-19)
(0.000817763 -3.50861e-05 -2.84146e-19)
(0.000933144 0.000109395 -6.84774e-19)
(0.000800811 3.37727e-06 0)
(4.16494e-05 6.77757e-05 -1.71566e-19)
(0.000174455 0.000326291 1.08114e-18)
(0.000799591 1.43911e-05 -2.04386e-23)
(0.00109391 0.000209821 -6.68897e-19)
(0.00108991 0.000126535 0)
(2.38947e-06 5.75131e-06 2.51029e-19)
(1.75901e-05 -1.47726e-05 -1.94313e-19)
(0.000569222 4.13306e-05 6.95011e-21)
(6.18909e-06 -7.61261e-05 0)
(0.00106469 0.000254948 9.50039e-19)
(0.00502873 0.00974869 -2.83043e-19)
(0.00312133 0.0096178 1.27267e-18)
(3.63109e-05 -0.000103218 -1.91337e-19)
(5.15092e-05 -7.44949e-05 1.85949e-18)
(0.0011906 0.000249001 1.67345e-19)
(0.00132811 0.00107884 2.34088e-19)
(0.000811129 9.13879e-07 -7.33272e-19)
(0.00019726 0.000951101 -2.38239e-19)
(0.00081631 0.000938792 -2.18585e-19)
(0.00080012 -2.5401e-06 0)
(8.37298e-05 0.000621588 0)
(9.52534e-05 0.000281397 -3.8907e-23)
(0.000718931 -4.40346e-05 -1.67787e-23)
(0.000823713 6.70687e-05 1.52608e-19)
(0.00263077 0.0020627 -1.23128e-18)
(0.0017598 0.0092379 -1.17225e-19)
(0.000834802 5.81484e-05 4.92255e-19)
(0.00632649 0.00404956 -1.76005e-19)
(0.0067211 0.0115577 -1.36478e-20)
(0.00473412 0.00784387 4.92971e-21)
(0.000802714 1.36216e-05 -2.19133e-18)
(0.000838532 6.39094e-06 5.8962e-24)
(8.05909e-06 -7.12576e-06 -3.48018e-19)
(4.62104e-05 8.86007e-05 -3.49279e-19)
(6.53998e-05 0.000268412 8.75242e-19)
(1.05846e-05 1.56736e-05 4.90408e-19)
(8.96511e-05 0.000229007 3.69767e-19)
(0.000822079 2.1512e-05 0)
(0.00534812 0.00949245 1.95042e-20)
(0.00153626 0.000636495 -2.61237e-20)
(0.000819811 3.65439e-05 3.60178e-19)
(3.05185e-05 -8.05515e-05 0)
(0.00184778 0.000745444 5.45994e-19)
(9.02022e-06 7.22384e-06 -2.70156e-19)
(3.32744e-05 2.78043e-05 9.71827e-20)
(0.00133004 0.00139691 6.36617e-19)
(0.000736893 4.87242e-05 1.83104e-19)
(4.2934e-06 -1.45276e-06 -1.70204e-19)
(0.00206172 0.00156038 -1.05587e-18)
(0.000126512 0.000177636 -8.18758e-19)
(0.00392127 0.00848715 -1.0909e-18)
(5.00626e-06 1.45097e-06 8.81432e-20)
(0.00012544 -0.000100129 -1.25722e-18)
(4.58343e-05 -5.6872e-05 4.05647e-20)
(0.00152577 0.00098431 0)
(0.00104018 0.000138576 -4.0426e-22)
(0.000453499 0.000848632 -4.02039e-20)
(0.000802924 2.75801e-05 -2.3408e-19)
(8.70823e-05 0.000183828 7.36071e-19)
(2.92083e-05 -6.0177e-05 4.0401e-19)
(1.79975e-05 1.48197e-05 -9.47108e-20)
(3.09858e-05 9.11155e-05 -3.20292e-19)
(0.000208757 -0.000236971 -5.45237e-19)
(0.00325012 0.00346165 2.88852e-21)
)
;

boundaryField
{
    back
    {
        type            empty;
    }
    ingreso
    {
        type            fixedValue;
        value           uniform (0.0008 0 0);
    }
    salida
    {
        type            zeroGradient;
    }
    front
    {
        type            empty;
    }
    defaultFaces
    {
        type            noSlip;
    }
}


// ************************************************************************* //
