/*--------------------------------*- C++ -*----------------------------------*\
  =========                 |
  \\      /  F ield         | OpenFOAM: The Open Source CFD Toolbox
   \\    /   O peration     | Website:  https://openfoam.org
    \\  /    A nd           | Version:  7
     \\/     M anipulation  |
\*---------------------------------------------------------------------------*/
FoamFile
{
    version     2.0;
    format      ascii;
    class       surfaceScalarField;
    location    "118";
    object      phi;
}
// * * * * * * * * * * * * * * * * * * * * * * * * * * * * * * * * * * * * * //

dimensions      [0 3 -1 0 0 0 0];

internalField   nonuniform List<scalar> 
1111
(
7.27529e-09
1.27959e-08
-1.60686e-08
-4.00263e-09
7.19014e-09
-1.17472e-08
1.18324e-08
-1.47196e-08
5.99518e-09
8.67248e-09
5.19176e-11
1.06401e-09
-1.24143e-09
-1.44123e-08
1.45897e-08
-1.43796e-08
1.42358e-08
1.20777e-09
-1.59762e-09
1.49162e-08
2.10994e-09
-2.30404e-09
9.13177e-09
-8.8882e-09
2.06046e-09
-6.72414e-09
-1.2609e-08
1.25945e-08
6.73858e-09
-5.01563e-08
-2.61282e-08
7.62846e-08
-8.06883e-09
7.74088e-09
7.51809e-09
3.16892e-09
3.89422e-10
-3.24306e-09
-3.15278e-10
1.58626e-08
-1.62824e-08
-2.32714e-08
2.36912e-08
-9.66706e-09
-7.90155e-09
8.80299e-09
8.76562e-09
-3.56091e-08
1.77451e-08
-3.23959e-08
5.02599e-08
9.48887e-09
-1.95722e-09
-1.42558e-08
-1.05947e-10
1.08934e-09
-2.30534e-09
1.32195e-09
-3.97564e-09
1.32484e-08
1.97277e-09
-1.12456e-08
8.80594e-09
-2.71606e-09
-1.50665e-08
8.9766e-09
3.71246e-08
-2.97871e-08
-7.33751e-09
-1.93882e-08
2.35835e-10
1.72159e-08
1.93648e-09
-1.08848e-09
4.22825e-09
-1.78267e-08
1.46869e-08
-6.123e-08
-3.961e-09
6.5191e-08
1.32895e-10
-1.04872e-09
-3.14718e-10
1.23054e-09
-1.83087e-09
-1.36372e-08
-4.24658e-11
-1.82803e-10
1.23066e-10
1.02202e-10
-1.04312e-08
-8.72853e-09
1.33606e-08
5.79913e-09
6.88443e-10
-2.15444e-09
-8.1636e-09
9.6296e-09
8.98284e-09
7.04116e-10
-1.0061e-08
3.74018e-10
-2.85356e-09
-8.18276e-09
1.12615e-08
-2.25222e-10
1.1418e-08
-1.11866e-09
-1.4934e-09
-7.00529e-10
7.17912e-10
-5.38543e-11
3.64717e-11
1.24009e-11
5.64847e-10
9.5459e-11
-6.72706e-10
-3.35605e-10
-4.13661e-11
3.66251e-10
1.07201e-11
-8.03576e-11
-6.4462e-10
1.18918e-10
6.06059e-10
-1.29243e-10
-6.51644e-10
1.04812e-09
-1.83385e-08
-2.09786e-09
-2.6398e-10
3.21616e-11
-1.03786e-10
1.33773e-08
-1.32488e-08
4.09971e-09
-3.16398e-10
4.92418e-10
2.83376e-10
-4.59396e-10
2.02084e-10
-8.69481e-10
7.77947e-10
-1.10551e-10
-1.69866e-09
1.07361e-08
-1.13415e-08
-1.77122e-10
-1.20119e-10
3.32603e-11
-8.68898e-09
1.07402e-08
-1.01201e-08
1.23018e-08
-1.71234e-08
4.46882e-09
3.52792e-10
3.48842e-11
-1.11632e-10
-1.00375e-10
1.0191e-10
6.74973e-10
-5.89708e-11
-5.94867e-08
7.42215e-08
-1.47348e-08
9.31137e-10
-1.51898e-10
-1.01658e-09
2.37342e-10
1.12704e-09
1.03097e-08
-1.37138e-08
2.27707e-09
-2.01545e-09
7.99153e-09
-8.89612e-09
2.92004e-09
-6.8461e-09
5.50969e-09
5.77354e-09
-4.43713e-09
-8.04367e-09
-1.31191e-09
1.4607e-09
7.89489e-09
-1.8068e-10
-9.09133e-08
9.12988e-08
-2.0478e-10
-2.55939e-10
-8.97483e-08
9.01579e-08
-1.5375e-10
8.30791e-08
-1.49107e-09
1.09776e-10
-8.16978e-08
-2.6518e-09
-6.49777e-10
5.2758e-10
7.62077e-10
-3.5852e-10
3.85196e-09
-6.82213e-10
3.63536e-09
-6.80511e-09
-8.3188e-10
7.81892e-10
-1.4904e-08
6.56612e-09
1.01452e-08
1.088e-09
-1.09233e-08
-3.0988e-10
-6.00588e-09
1.37253e-08
8.11185e-10
-8.53063e-09
1.44052e-08
-4.64983e-09
3.89073e-09
-1.36461e-08
1.53817e-08
1.67198e-09
-1.62493e-09
-1.61244e-10
-2.00932e-08
-7.45497e-09
2.77094e-08
1.4687e-08
-8.97074e-09
-1.79795e-09
8.12587e-09
-1.23338e-08
8.39418e-11
-5.6442e-11
-1.04408e-09
-3.60724e-08
-2.34143e-08
8.39421e-09
3.43587e-10
3.56404e-09
-6.9369e-09
1.14573e-08
6.21983e-09
-5.1054e-10
2.55906e-10
4.12808e-10
-1.58174e-10
5.61347e-09
-4.8708e-09
3.71976e-09
-4.46243e-09
-3.20278e-10
-5.49468e-10
2.25127e-10
5.26849e-10
-4.49297e-10
7.11999e-11
-5.66612e-10
5.07813e-10
-1.83572e-08
2.36184e-09
1.63234e-09
1.4363e-08
1.63558e-10
-5.88471e-10
-8.5627e-11
-4.32085e-09
-1.5245e-08
1.20864e-09
5.63539e-09
1.21515e-08
-5.24757e-09
-1.25394e-08
1.6345e-08
7.80663e-10
-1.58062e-08
-1.31948e-09
-5.89279e-10
3.71499e-10
4.73687e-10
-1.53192e-10
6.2384e-11
9.08075e-11
-7.5849e-09
-3.41529e-09
4.15408e-09
-1.47295e-10
2.4253e-10
-9.52353e-11
9.78433e-10
-1.57304e-08
-6.76424e-10
1.0333e-08
-1.13553e-08
-8.01792e-10
-8.19923e-11
1.30401e-08
4.51857e-09
-4.23144e-09
-1.33272e-08
1.99174e-11
7.28704e-09
-8.08797e-09
6.31062e-09
-1.50161e-09
-9.26075e-09
8.40989e-09
2.35247e-09
-2.00432e-09
7.1587e-10
-1.39565e-08
-7.23863e-11
-7.49083e-11
5.48308e-10
4.87891e-10
-9.07987e-09
8.09611e-10
1.72473e-08
-1.71185e-09
-1.16628e-08
1.30725e-08
-1.40977e-09
1.23367e-08
1.3909e-08
-1.5501e-08
-1.07446e-08
-4.0233e-10
7.81e-10
-3.7867e-10
-1.04279e-11
2.80296e-10
-2.69868e-10
-4.8238e-10
1.15163e-09
-6.69247e-10
1.15779e-09
-9.13894e-10
-2.43899e-10
-1.0464e-08
1.06856e-09
9.39541e-09
1.74607e-09
-5.88281e-10
8.98683e-09
-1.54346e-08
8.17655e-09
-9.64368e-09
7.47163e-11
3.5175e-09
-4.23294e-10
-2.1355e-09
2.21021e-09
-6.2804e-09
7.6176e-09
-1.3372e-09
-3.23787e-10
4.34119e-09
-1.6544e-10
1.72408e-08
-1.44768e-08
-1.63697e-09
-6.32133e-09
5.5108e-09
1.2832e-10
-1.598e-10
5.59196e-09
-5.54521e-09
-4.67507e-11
6.76871e-09
4.61831e-09
-9.24203e-11
-1.58343e-08
1.05225e-08
1.76485e-08
5.87338e-09
8.18237e-09
8.14196e-09
-6.84721e-09
1.48469e-09
-1.19487e-08
-5.95239e-11
1.72972e-09
-1.30317e-08
2.62874e-09
-4.18526e-10
1.08532e-08
-1.00725e-08
-3.23988e-10
-6.07046e-10
-1.3844e-08
7.96912e-09
6.23611e-10
1.89203e-11
-8.86817e-09
4.92858e-09
-2.99483e-08
-1.2525e-08
-2.87816e-09
1.55911e-09
1.41544e-08
1.11505e-08
-1.08778e-08
-1.44271e-08
1.53314e-08
-3.21514e-09
-1.21162e-08
1.58859e-09
4.05624e-09
-7.44671e-10
-8.50187e-10
-7.47681e-10
1.02523e-09
5.72639e-10
-1.91576e-10
3.06518e-10
2.97866e-10
6.21484e-08
-6.21746e-08
2.62193e-11
6.20676e-08
-6.2372e-08
3.04378e-10
8.37655e-10
6.47298e-08
-6.55571e-08
8.27307e-10
6.41216e-08
6.08192e-10
-2.23623e-10
-6.65022e-08
9.45132e-10
-6.20643e-08
6.19295e-08
1.34763e-10
1.31412e-09
-6.78163e-08
-6.22242e-08
1.59861e-10
1.28689e-08
-4.28379e-10
1.05168e-09
-3.69508e-09
3.07178e-09
2.49252e-10
-1.10927e-09
7.86659e-10
-4.26818e-10
1.32227e-09
-1.52548e-09
6.30025e-10
1.29874e-09
-1.34467e-09
-1.05178e-11
-2.38302e-11
-3.49181e-09
2.54943e-09
-1.76901e-09
2.71139e-09
-2.124e-10
-2.6421e-09
2.42612e-09
-3.37381e-09
-5.93412e-09
5.40803e-10
-5.26407e-10
1.04376e-09
1.06517e-09
-6.37425e-09
7.81172e-09
3.18083e-09
1.97123e-08
-4.38092e-09
-6.21231e-10
2.6958e-10
8.92455e-10
-1.00526e-08
-2.60198e-08
5.18282e-09
-4.12333e-09
-3.22504e-09
2.16555e-09
7.68852e-11
2.66073e-11
2.62759e-10
-2.41191e-09
3.2369e-09
9.07366e-09
6.22654e-10
-3.86469e-11
2.00602e-09
-2.17977e-09
1.61611e-09
1.46986e-08
1.33648e-08
-2.69184e-08
3.27284e-08
6.3075e-09
-2.28699e-08
-1.03559e-08
1.85995e-08
-1.80936e-08
1.06446e-08
4.33532e-11
-2.95208e-10
-1.09281e-09
-1.57465e-09
-2.71963e-09
2.95527e-09
1.52426e-08
-6.63569e-10
-1.38632e-08
-1.07105e-09
-2.03488e-09
4.63829e-10
1.55007e-08
1.77974e-08
1.36829e-08
7.92304e-10
-1.76466e-09
-1.27105e-08
-1.32472e-09
5.99308e-09
1.26824e-08
-3.35519e-10
-9.23171e-10
-3.7139e-09
2.84341e-09
3.41992e-09
2.52832e-09
1.4651e-08
4.36966e-09
-1.45021e-08
1.82207e-08
-1.76943e-09
2.2434e-09
-3.22216e-09
1.94224e-09
-4.97468e-09
1.29043e-08
-1.19052e-08
-1.40584e-08
2.8784e-10
8.79589e-09
-1.73936e-09
1.45168e-09
1.33143e-09
-8.67111e-09
6.78538e-10
-4.53242e-09
-5.98989e-09
1.2165e-08
-1.48463e-08
8.96685e-10
1.70096e-09
-2.20417e-09
1.69387e-08
-1.64355e-08
-1.19041e-09
1.42097e-08
3.15966e-09
-4.54486e-09
-1.40494e-08
7.62246e-09
-1.75362e-08
-8.17981e-09
7.01791e-09
5.9025e-09
1.47415e-08
-1.02291e-08
2.9762e-09
9.60533e-09
9.76597e-09
3.91914e-09
-4.26755e-09
2.18867e-08
-1.93707e-08
5.10649e-09
-1.081e-08
2.16951e-09
5.75306e-09
1.41e-08
-4.45286e-10
1.28431e-08
-1.35882e-08
-1.94638e-09
1.39516e-09
-3.89407e-10
9.40625e-10
1.1138e-08
-6.35395e-09
7.36751e-09
-1.12027e-08
1.48073e-09
-4.73713e-09
1.15923e-08
-1.21027e-08
-7.60128e-09
9.30141e-09
9.43786e-09
1.30181e-08
4.55788e-10
-1.39191e-08
1.33084e-09
7.59567e-10
-1.12257e-08
-6.7188e-09
1.03433e-08
-1.2019e-09
2.50467e-09
-9.04161e-09
4.74916e-09
-5.39796e-09
1.17463e-08
-3.44959e-09
-1.19776e-08
3.68084e-09
-4.44293e-09
1.14521e-08
1.69456e-09
1.08796e-09
-5.10461e-09
-1.79723e-08
1.06192e-08
1.24577e-08
6.72625e-10
-1.11724e-08
-1.01096e-08
1.61773e-08
1.27515e-08
2.90099e-09
-9.89939e-09
-1.33646e-08
-3.17923e-10
-1.2753e-08
1.83632e-10
-7.72584e-10
1.18505e-08
1.25556e-08
-8.23575e-09
1.68058e-08
-1.61501e-08
3.71399e-09
-5.4598e-10
1.83752e-09
1.30715e-08
-3.94598e-09
-1.28248e-08
-4.86969e-09
2.04649e-09
4.55292e-09
1.25065e-08
-7.23731e-09
1.03768e-09
-1.70585e-09
2.01486e-10
-4.42023e-10
6.02058e-09
2.65106e-08
1.25168e-10
-8.82776e-09
8.7026e-09
2.87295e-08
-2.2473e-08
2.21388e-08
1.98725e-08
-1.27153e-08
-2.75826e-09
1.51985e-08
1.28256e-10
-1.21492e-08
-4.75541e-10
-5.98739e-09
-1.80884e-09
2.10945e-09
1.39395e-09
-6.31973e-10
-1.12448e-08
1.17258e-08
1.50973e-10
2.86109e-09
-4.81073e-09
-1.13275e-08
1.08541e-08
-9.51218e-10
-1.10241e-08
-3.33969e-10
-1.15406e-08
-2.33149e-09
-1.21845e-08
2.1209e-09
7.86534e-09
5.17206e-09
-6.83511e-10
-1.1827e-08
1.18786e-08
5.17716e-10
-9.00249e-09
5.06859e-09
-1.62719e-09
1.98194e-09
-1.6413e-09
-1.30694e-08
-1.22723e-08
1.17139e-08
-1.01223e-08
-1.58531e-08
1.01411e-08
9.31995e-09
7.64904e-10
2.80225e-09
-1.163e-08
1.16676e-08
1.66365e-09
3.83975e-09
2.39852e-10
-4.11956e-10
-1.48174e-10
-4.16714e-09
2.42459e-09
-2.92331e-10
1.17334e-10
-1.38836e-10
2.1502e-11
-2.74653e-09
1.32331e-08
2.26489e-09
2.50956e-09
5.14098e-10
-1.16121e-09
-7.08645e-10
-2.15408e-09
-9.99429e-11
1.3191e-08
1.02509e-08
-2.62739e-10
6.66039e-09
-1.2611e-09
-5.13654e-09
-9.88953e-09
-5.18178e-09
8.72159e-11
3.01185e-11
4.83225e-09
1.38438e-09
-1.7389e-08
-2.23743e-10
-6.61244e-10
-2.77265e-09
1.03095e-09
3.3259e-09
6.1951e-08
-8.57131e-11
-6.18653e-08
6.23751e-08
1.8884e-10
-6.2564e-08
-1.40898e-08
-4.20695e-10
1.44101e-08
1.00446e-10
3.33125e-09
-1.64349e-09
2.3479e-09
1.80026e-09
-4.59037e-09
-1.72659e-10
-4.48445e-10
3.64646e-10
-7.4375e-11
3.27957e-10
-2.08224e-10
1.98466e-08
9.79241e-10
-1.59936e-08
-7.08525e-11
-1.95848e-09
1.27167e-08
2.31325e-09
1.83713e-09
5.34146e-09
-2.15005e-09
-7.7231e-08
-2.41786e-08
-5.1099e-09
1.58325e-08
2.52587e-09
2.5112e-10
-2.69753e-09
-9.07286e-10
1.3382e-10
-1.49705e-10
-9.35235e-09
-3.73944e-10
9.7263e-09
-1.09786e-08
-6.53429e-09
1.07941e-08
-9.58202e-09
8.72278e-09
3.55446e-10
1.29084e-09
8.94809e-09
-8.97472e-09
2.66254e-11
5.10978e-10
8.78459e-11
1.10473e-08
3.44537e-10
-5.7717e-10
2.53297e-11
-1.42627e-08
-4.04262e-10
-1.3907e-08
1.28643e-08
-1.1952e-08
-6.60366e-08
6.49949e-08
1.04178e-09
1.59377e-10
-1.3277e-10
1.22117e-08
-1.4315e-10
4.31359e-12
-2.17564e-09
2.74364e-09
-3.39633e-09
-1.34649e-08
-1.62805e-09
2.58005e-09
-4.60557e-09
-1.42419e-08
1.4585e-09
5.51385e-09
9.80569e-09
-9.1774e-09
-1.62824e-10
1.96742e-11
-9.26221e-09
-1.35653e-08
1.50949e-10
-6.26935e-08
2.36388e-10
6.24571e-08
6.95392e-10
6.34261e-08
-2.23559e-10
-1.72583e-09
-1.45173e-08
1.07945e-10
-6.34103e-08
6.33024e-08
1.83301e-10
-6.2952e-08
6.27687e-08
2.59313e-10
6.17965e-08
1.50367e-10
-6.19468e-08
6.16277e-08
1.6882e-10
-8.78885e-08
8.84976e-08
-9.20371e-13
9.33919e-08
-9.30984e-08
-2.67282e-10
-8.66282e-08
-4.33059e-10
9.33509e-08
-1.82654e-10
-8.49156e-08
-7.67415e-10
9.34815e-08
1.7378e-10
-5.22445e-10
1.96173e-09
9.23575e-08
-6.93074e-08
6.21373e-08
-6.2318e-08
-6.29494e-08
6.14852e-08
1.42413e-10
-3.19823e-09
2.97844e-09
-1.42823e-08
3.49421e-11
5.22739e-11
8.6782e-10
8.67668e-09
-1.13927e-08
3.8352e-08
-3.45857e-08
-1.6798e-08
1.38309e-08
-2.30932e-11
-1.83758e-10
9.17616e-11
4.49674e-10
-1.00003e-10
2.73073e-10
4.34069e-09
1.06921e-09
-3.46767e-09
-8.98878e-11
1.22049e-10
-5.66277e-11
-2.62973e-09
1.33833e-08
2.47953e-09
-1.4416e-08
-2.6175e-09
-3.17921e-09
5.44643e-09
1.05982e-09
-2.59146e-09
1.44293e-08
-1.21864e-09
-1.24026e-09
1.05465e-09
-8.15859e-09
-1.90923e-08
-1.35502e-08
8.09522e-09
5.74286e-09
-1.53199e-10
-5.87536e-10
2.85019e-09
1.45038e-08
2.29468e-09
-1.88228e-09
-3.31866e-10
3.82017e-10
-2.09951e-10
1.58606e-08
-6.18177e-10
-1.56164e-08
7.21515e-10
3.24165e-10
3.4621e-10
-2.91802e-10
3.32473e-09
-1.60571e-08
3.66833e-10
-1.40976e-09
-1.98651e-09
-2.26873e-09
1.58546e-08
-9.05909e-08
-1.39039e-10
9.16781e-08
-1.90419e-10
-8.91635e-08
-4.76778e-10
9.31011e-08
-2.75224e-10
-9.29116e-08
-5.18343e-10
-1.4797e-09
1.69597e-08
9.19794e-08
-1.96637e-10
2.95421e-11
-2.20897e-10
9.59037e-09
2.30913e-09
-6.96017e-09
-1.23679e-08
-5.67468e-09
8.34453e-09
1.54996e-09
-6.71365e-09
-5.96663e-09
9.07258e-09
-2.17438e-11
1.01092e-08
1.94942e-08
-1.79791e-08
3.09244e-09
-1.28745e-08
3.14213e-09
-6.99574e-08
3.92079e-09
-2.05932e-08
-1.30341e-08
-4.19913e-10
-5.91184e-09
-1.53237e-08
9.08634e-09
-1.50414e-08
3.48054e-10
2.95181e-10
-1.97557e-09
-1.68417e-08
1.72231e-08
6.90825e-09
-7.55803e-09
-4.1608e-09
1.53758e-08
-1.70122e-09
7.54682e-10
-6.3536e-10
-2.36727e-11
1.1961e-08
3.31134e-09
7.09102e-08
-1.82293e-08
6.04707e-10
-1.51398e-08
-1.99869e-10
-2.27233e-10
-1.73742e-10
6.09478e-08
-6.1223e-08
-6.33808e-08
-6.31486e-08
-6.41735e-11
-2.62215e-10
-9.25852e-08
-6.04507e-08
6.24125e-08
6.51046e-08
-6.0277e-08
6.45822e-08
-6.04596e-08
6.38148e-08
-6.07269e-08
6.33817e-08
9.2308e-08
2.25297e-10
-6.32716e-09
7.51324e-08
-6.54939e-08
1.62312e-11
-1.62312e-11
-2.16781e-10
-2.86722e-10
1.54727e-08
7.17262e-12
-7.17262e-12
2.53203e-10
1.51184e-09
1.3917e-08
1.35039e-08
-2.69835e-09
3.71098e-09
6.76886e-09
1.65032e-09
3.17708e-10
-2.11058e-10
-2.95316e-09
1.45632e-08
1.48402e-08
-4.2942e-09
1.18215e-08
1.43188e-10
1.1705e-10
2.60668e-09
-7.15491e-10
-1.41689e-09
-5.86277e-09
-1.80513e-10
-3.5164e-10
1.53149e-08
1.9679e-10
2.70898e-11
1.41207e-08
-2.6295e-08
1.79227e-08
2.73001e-09
1.15038e-09
2.50098e-09
-3.7241e-09
1.94644e-08
-1.82413e-08
-5.61551e-11
-1.27281e-10
-1.44112e-09
-7.92149e-08
-7.07485e-08
1.15037e-09
-2.15221e-10
5.78676e-10
2.30161e-08
1.86168e-08
-6.47496e-09
8.02378e-11
-4.15697e-09
-2.52422e-09
2.99688e-08
1.61649e-10
1.48185e-08
7.35779e-08
2.89167e-11
4.93054e-10
-1.23076e-10
-1.79065e-10
-3.51105e-09
2.43785e-08
-1.48667e-08
8.07865e-10
-1.42137e-08
-3.60427e-11
2.04123e-08
-2.87816e-08
9.76142e-10
1.77617e-09
-1.11485e-10
)
;

boundaryField
{
    back
    {
        type            empty;
        value           nonuniform 0();
    }
    ingreso
    {
        type            calculated;
        value           nonuniform List<scalar> 
14
(
-1.54286e-08
-1.54288e-08
-1.54288e-08
-1.54288e-08
-1.54286e-08
-1.54283e-08
-1.54288e-08
-1.54288e-08
-1.54286e-08
-1.54286e-08
-1.54288e-08
-1.5428e-08
-1.5428e-08
-1.54286e-08
)
;
    }
    salida
    {
        type            calculated;
        value           nonuniform List<scalar> 2(1.0141e-07 1.1459e-07);
    }
    front
    {
        type            empty;
        value           nonuniform 0();
    }
    defaultFaces
    {
        type            calculated;
        value           uniform 0;
    }
}


// ************************************************************************* //
