/*--------------------------------*- C++ -*----------------------------------*\
  =========                 |
  \\      /  F ield         | OpenFOAM: The Open Source CFD Toolbox
   \\    /   O peration     | Website:  https://openfoam.org
    \\  /    A nd           | Version:  7
     \\/     M anipulation  |
\*---------------------------------------------------------------------------*/
FoamFile
{
    version     2.0;
    format      ascii;
    class       volScalarField;
    location    "105.5";
    object      p;
}
// * * * * * * * * * * * * * * * * * * * * * * * * * * * * * * * * * * * * * //

dimensions      [0 2 -2 0 0 0 0];

internalField   nonuniform List<scalar> 
591
(
0.000123829
0.000123846
0.00012385
0.000123796
0.000123799
0.00012387
0.000123856
0.000123834
0.000116959
0.000123854
0.000124042
0.000122795
0.00012384
0.000119684
0.000123834
0.000123875
0.000123836
0.000123884
0.000121911
0.000123217
0.000123817
-3.52277e-06
0.000124036
0.000123817
0.000123991
0.000123841
0.000123958
0.00012395
0.000123854
0.000123864
0.000124011
0.000123985
0.000124005
0.000124004
0.000124006
0.000123328
0.000124001
0.000123819
0.00012403
0.000123943
0.000123894
0.000123998
0.000123849
0.000123875
0.000123995
0.000124016
0.00011919
0.00012402
0.000123853
0.000123964
0.000123974
0.000124003
2.39474e-05
3.05922e-05
4.78397e-05
0.000123848
0.000124025
0.000124019
0.000124018
0.000123827
0.000123914
0.000123847
0.000123842
0.000123894
0.000122522
0.000123845
0.000123849
0.000124014
0.00012069
0.000123862
0.000123852
0.000124022
0.000124
0.000123999
0.000124005
0.000123981
0.000123821
0.000124018
0.000123824
0.000123764
0.000123596
0.000124023
0.000123982
0.000123971
0.000124031
0.000123835
0.000123918
0.000124013
0.000123976
0.000123728
0.000123987
0.000123943
0.000123953
0.000123826
0.000124028
0.000123984
0.000123528
0.000123426
0.000123603
0.000124035
0.000123943
0.000123877
0.000124041
0.00012379
0.000124043
0.000123847
0.000123843
0.000123984
0.000124037
0.00012404
0.000123933
0.000124014
0.00012386
0.000124016
0.000124033
0.000124022
0.000123977
0.000123967
0.000123539
0.000123944
0.000123847
0.000123838
0.000123923
0.000123823
0.000123997
0.000120151
0.000124043
0.000124022
0.000123593
0.000124007
0.000123836
0.00012352
0.000123984
0.000123972
0.00012401
0.000123852
0.000122585
0.000124039
0.000123838
0.000123529
0.000123603
0.000123936
0.000124025
0.000124032
0.000124024
7.61974e-06
3.68107e-06
2.07367e-06
3.81638e-05
3.67033e-05
5.66405e-06
3.83168e-05
1.57444e-05
3.73007e-05
1.78114e-05
0.000123847
0.000123837
0.000124031
0.00012402
0.000124028
0.000124028
0.00012402
0.000124014
0.000124032
0.000124028
0.000123997
0.000124028
0.000124024
0.000124032
0.000123979
0.000123352
0.000124031
0.000122089
0.000124019
0.000124009
0.000123964
0.000123855
0.000124009
0.000124027
0.000124029
0.000123448
0.000122434
0.000123008
0.000123397
0.000124014
0.000124022
0.000123911
0.000123815
0.000124018
0.000122929
0.000123255
0.000123815
0.000124007
0.000123705
0.000124001
0.000124027
0.000124003
0.000123672
0.000123806
0.000124024
0.000124027
0.000124029
0.000123832
0.000124008
0.000123828
0.000124035
0.00012384
0.000123839
0.000124031
0.00012363
0.000123806
0.00012385
0.000123491
0.000123986
0.000123636
0.000123925
0.000123946
0.000124017
0.000123402
0.000123912
0.0001238
0.000123799
0.000123981
0.000123747
0.000123895
0.000123814
0.000123729
0.000123791
0.000124035
0.000123794
0.000124034
0.000123891
0.000124015
0.000123855
0.000123858
0.000124038
0.00012374
0.000124022
0.000123729
0.000123779
0.000123844
0.000123822
0.000123861
0.000123848
0.000123617
0.00012382
0.000123775
0.000123984
0.000123839
0.0001237
0.000123975
0.000123246
0.000123817
0.000123136
0.000123025
0.00012383
0.000123793
0.000123833
0.000123829
0.000123806
0.000124038
0.000123875
0.000123945
0.000123892
0.000123879
0.000123892
0.000123993
0.000123642
0.000124033
0.000123677
0.000123563
0.000123864
0.000124013
0.000123589
0.000124026
0.00012394
0.000123943
0.000123974
0.000123856
0.000123833
0.000123673
0.000123787
0.000123831
0.000123871
0.000123935
0.000123994
0.000124013
0.000124019
0.000123772
0.000123882
0.000124005
0.000124013
0.000124007
0.000123797
0.000124021
0.000123898
0.000124012
0.000123758
0.000124021
0.000123744
0.000123997
0.000123888
0.000123832
1.16446e-05
2.19159e-05
0.000123765
0.000123852
0.000124037
0.000123778
0.000124036
0.000123862
0.00012402
0.000123996
0.000123726
0.000123991
0.000123819
0.000124035
0.000123855
-2.09443e-07
0.000123735
0.000124001
0.000123997
0.000123684
0.000123851
0.000123896
0.000123991
0.000123738
0.000124014
0.000123895
0.000123847
0.000123989
0.00012379
0.000123713
0.000123754
0.000123858
4.74968e-05
0.000124008
0.000123986
0.000123845
0.000124016
0.000123922
0.000123867
0.000123851
0.000123834
0.000124
0.000123862
0.000123764
0.000123902
0.00012377
0.000124014
0.000123777
0.000123841
0.000123873
0.000123955
1.98766e-05
2.73378e-05
3.4299e-05
9.64169e-06
0.000123818
3.30583e-05
2.60051e-05
0.000124011
1.90775e-05
1.7033e-05
3.81882e-05
7.57848e-06
3.99391e-05
5.60696e-06
4.08326e-05
3.69067e-06
4.28143e-05
1.87789e-06
3.64136e-05
2.32017e-05
2.94541e-05
1.49952e-05
0.000123703
0.000124023
0.000123885
0.000123901
0.000120849
0.000123937
0.000124017
0.000123987
0.000123782
0.000124023
0.000124031
0.000124002
0.000123999
0.000123761
0.000123834
0.000124016
0.000124022
0.000123856
0.000123716
0.00012381
0.000123367
0.000123818
0.000124041
0.000124006
0.000123846
0.00012403
0.000123685
0.000123862
0.000123645
0.000122805
0.000124001
0.000124013
0.000124039
0.000123702
0.000123902
0.000123643
0.000123861
0.000123853
2.60468e-05
2.18811e-05
3.30395e-05
1.16207e-05
0.000124042
0.000123694
1.98233e-05
2.82586e-05
3.56058e-05
9.59044e-06
0.000123868
0.00012394
0.00012381
0.000123817
0.000123836
0.000123984
0.000123773
0.000123996
0.00012395
0.000123061
0.000123819
0.000123785
5.93885e-05
0.000123187
0.000124028
0.00012383
0.000123717
0.000124017
0.000124019
0.000123809
0.000123608
0.000123843
0.000123882
0.000123693
0.000123973
0.000122855
0.000123763
0.000123792
0.000123993
0.000100856
0.000123839
0.000123448
0.000123753
0.000124028
0.000123656
1.08984e-05
2.11184e-05
3.53715e-05
2.81951e-05
1.36646e-05
5.66256e-08
4.20897e-05
2.69203e-06
4.01622e-05
4.76417e-06
3.94198e-05
6.817e-06
3.86275e-05
8.85977e-06
3.7294e-05
1.36763e-05
3.17318e-05
3.05881e-05
2.39408e-05
2.52811e-05
1.77684e-05
1.29409e-05
1.57105e-05
0.000124022
0.000102366
0.000123817
0.000123742
0.000124026
0.000123916
0.000124033
0.000123747
0.000123875
0.000123992
0.000123987
0.000123996
0.000123745
0.00012384
0.000123762
0.000123949
0.000123775
0.000124026
0.000123908
0.000123736
0.000123745
0.000123851
0.000123845
0.000124033
0.000124024
0.000124038
0.000123991
0.000124039
0.000123661
0.000123841
0.000124028
0.000123786
0.000123919
0.000123849
0.000123903
0.000123728
0.000123991
0.00012399
0.000123303
0.000121331
0.00012303
0.000123575
0.000123839
0.000123669
0.000123853
0.000124034
0.000124006
0.000123847
0.000123461
0.000123438
0.000124027
0.000123993
0.000123867
0.000123958
0.000123502
5.83068e-05
4.01191e-05
0.000123961
0.00012398
0.000123344
0.000122706
0.000123827
0.000123589
0.000123335
0.000123836
0.000123763
0.000124025
0.000123869
0.000123903
0.000118962
5.44614e-05
0.000123873
8.12553e-05
1.86285e-06
-3.80186e-07
0.000123836
0.000123804
0.000123992
0.000124037
0.000124031
0.000124027
0.000124034
0.000123823
-2.30626e-06
0.000122781
0.000123865
0.000123967
0.000121967
0.000124025
0.000124026
0.00012225
0.000123943
0.000123994
0.000121649
0.000124037
7.63198e-05
0.000124024
0.000123762
0.000123985
0.000122332
0.000123547
0.000123627
0.000123873
0.000124039
0.000123977
0.000124025
0.000124039
0.000123824
0.000116131
)
;

boundaryField
{
    back
    {
        type            empty;
    }
    ingreso
    {
        type            zeroGradient;
    }
    salida
    {
        type            fixedValue;
        value           uniform 0;
    }
    front
    {
        type            empty;
    }
    defaultFaces
    {
        type            zeroGradient;
    }
}


// ************************************************************************* //
