/*--------------------------------*- C++ -*----------------------------------*\
  =========                 |
  \\      /  F ield         | OpenFOAM: The Open Source CFD Toolbox
   \\    /   O peration     | Website:  https://openfoam.org
    \\  /    A nd           | Version:  7
     \\/     M anipulation  |
\*---------------------------------------------------------------------------*/
FoamFile
{
    version     2.0;
    format      ascii;
    class       surfaceScalarField;
    location    "105.5";
    object      phi;
}
// * * * * * * * * * * * * * * * * * * * * * * * * * * * * * * * * * * * * * //

dimensions      [0 3 -1 0 0 0 0];

internalField   nonuniform List<scalar> 
1111
(
7.11482e-09
1.28881e-08
-1.60574e-08
-3.94558e-09
7.04815e-09
-1.1775e-08
1.18417e-08
-1.47356e-08
5.84668e-09
8.77835e-09
1.10621e-10
9.71819e-10
-1.12744e-09
-1.43921e-08
1.45477e-08
-1.43583e-08
1.41756e-08
1.15457e-09
-1.61146e-09
1.49156e-08
2.12443e-09
-2.6248e-09
9.34532e-09
-9.28443e-09
2.56391e-09
-6.72376e-09
-1.26111e-08
1.25963e-08
6.73853e-09
-5.0191e-08
-2.61066e-08
7.62976e-08
-8.0982e-09
7.72723e-09
7.41912e-09
3.25003e-09
3.77525e-10
-3.32866e-09
-2.98895e-10
1.5874e-08
-1.62686e-08
-2.32668e-08
2.36615e-08
-9.66668e-09
-7.9002e-09
8.80279e-09
8.76409e-09
-3.55914e-08
1.77331e-08
-3.2375e-08
5.02332e-08
9.49304e-09
-1.96112e-09
-1.42557e-08
-3.23715e-10
1.3197e-09
-2.67938e-09
1.6834e-09
-3.96555e-09
1.32997e-08
1.9734e-09
-1.13076e-08
8.8092e-09
-2.69085e-09
-1.50586e-08
8.94028e-09
3.71743e-08
-2.98436e-08
-7.33068e-09
-1.9424e-08
2.92434e-10
1.72306e-08
1.90096e-09
-1.07983e-09
4.23618e-09
-1.78376e-08
1.46812e-08
-6.12275e-08
-3.96139e-09
6.51888e-08
1.3586e-10
-1.10387e-09
-3.23628e-10
1.29164e-09
-1.7984e-09
-1.36398e-08
-6.5181e-11
-2.12472e-10
1.53634e-10
1.2402e-10
-1.04073e-08
-8.63045e-09
1.32179e-08
5.81987e-09
6.83397e-10
-2.13512e-09
-8.22647e-09
9.67819e-09
8.78262e-09
7.41997e-10
-9.85021e-09
3.25591e-10
-2.87185e-09
-8.08911e-09
1.11619e-08
-2.00915e-10
1.14132e-08
-1.06384e-09
-1.54015e-09
-7.61362e-10
7.71221e-10
-2.8659e-11
1.88001e-11
-4.28037e-11
6.2921e-10
1.60736e-10
-7.47143e-10
-3.87395e-10
-4.02387e-11
4.18653e-10
8.98039e-12
-6.10842e-11
-7.18746e-10
1.15957e-10
6.63873e-10
-1.15222e-10
-7.07226e-10
1.01155e-09
-1.83753e-08
-2.06021e-09
-3.11571e-10
3.59075e-11
-1.11732e-10
1.33791e-08
-1.32464e-08
4.10343e-09
-3.35821e-10
5.21772e-10
3.04387e-10
-4.90338e-10
4.13793e-11
-1.13008e-09
9.97773e-10
9.09281e-11
-1.85524e-09
1.0682e-08
-1.14516e-08
-2.15872e-10
-1.3522e-10
3.9521e-11
-8.71345e-09
1.06088e-08
-9.99356e-09
1.22845e-08
-1.7138e-08
4.52132e-09
3.32132e-10
4.38263e-11
-1.30005e-10
-1.29694e-10
1.32512e-10
7.19261e-10
-8.05521e-11
-5.95126e-08
7.42309e-08
-1.47182e-08
9.74008e-10
-1.9181e-10
-1.07499e-09
2.92795e-10
1.14062e-09
1.0306e-08
-1.37128e-08
2.26617e-09
-1.91224e-09
7.88044e-09
-8.94288e-09
2.97468e-09
-6.7822e-09
5.56763e-09
5.72309e-09
-4.50852e-09
-7.85206e-09
-1.49325e-09
1.59073e-09
7.75458e-09
-1.82914e-10
-9.0913e-08
9.12991e-08
-2.03232e-10
-2.5766e-10
-8.97491e-08
9.01594e-08
-1.52629e-10
8.30784e-08
-1.49214e-09
1.10264e-10
-8.16965e-08
-2.7522e-09
-5.70247e-10
5.81864e-10
7.9284e-10
-4.00697e-10
3.88923e-09
-8.87887e-10
3.55067e-09
-6.55201e-09
-8.85273e-10
8.25974e-10
-1.49181e-08
6.57355e-09
9.97405e-09
1.07443e-09
-1.07597e-08
-2.88747e-10
-6.05612e-09
1.36009e-08
9.18291e-10
-8.46308e-09
1.43881e-08
-4.59123e-09
3.82211e-09
-1.3619e-08
1.5388e-08
1.6724e-09
-1.63159e-09
-1.94539e-10
-2.00724e-08
-7.42898e-09
2.76959e-08
1.45481e-08
-8.87348e-09
-1.85007e-09
8.06015e-09
-1.22662e-08
4.79516e-11
-7.07934e-13
-1.12224e-09
-3.61154e-08
-2.33973e-08
8.35972e-09
3.13486e-10
3.6113e-09
-6.9712e-09
1.12919e-08
6.28811e-09
-5.44854e-10
2.81284e-10
4.39901e-10
-1.76331e-10
5.67949e-09
-4.82809e-09
3.69145e-09
-4.54286e-09
-3.7593e-10
-5.81929e-10
2.39113e-10
5.80156e-10
-5.04438e-10
3.72991e-11
-6.76427e-10
5.96324e-10
-1.82522e-08
2.39102e-09
1.60185e-09
1.42593e-08
1.87522e-10
-6.31413e-10
-1.00963e-10
-4.23284e-09
-1.51957e-08
1.17634e-09
5.61669e-09
1.2115e-08
-5.23762e-09
-1.2494e-08
1.63824e-08
7.47838e-10
-1.58443e-08
-1.28597e-09
-6.24754e-10
4.04635e-10
5.01402e-10
-2.51136e-10
1.16617e-10
1.3452e-10
-7.50373e-09
-3.48573e-09
4.20727e-09
-1.77691e-10
2.83484e-10
-1.05793e-10
1.05353e-09
-1.56937e-08
-7.48246e-10
1.01129e-08
-1.12199e-08
-8.65982e-10
-2.13838e-10
1.29887e-08
4.46933e-09
-4.20279e-09
-1.32553e-08
5.14351e-11
7.22492e-09
-8.01297e-09
6.35568e-09
-1.57595e-09
-9.11556e-09
8.30091e-09
2.3906e-09
-1.95695e-09
6.98801e-10
-1.39375e-08
-9.25532e-11
-8.51383e-11
3.98222e-10
6.01973e-10
-8.85226e-09
7.79076e-10
1.72646e-08
-1.66125e-09
-1.18954e-08
1.32853e-08
-1.38995e-09
1.22797e-08
1.39165e-08
-1.54939e-08
-1.07023e-08
-4.5736e-10
8.65507e-10
-4.08147e-10
1.57373e-10
5.58033e-11
-2.13176e-10
-9.71821e-11
6.4566e-10
-5.48478e-10
1.2529e-09
-1.00136e-09
-2.51533e-10
-1.05047e-08
9.80499e-10
9.52425e-09
1.86195e-09
-6.09056e-10
8.98101e-09
-1.54223e-08
7.91112e-09
-9.42514e-09
6.57575e-11
3.59509e-09
-4.10816e-10
-2.23948e-09
2.30523e-09
-6.3948e-09
7.73156e-09
-1.33676e-09
-4.32791e-10
4.29656e-09
2.54615e-11
1.72548e-08
-1.44771e-08
-1.63708e-09
-6.19736e-09
5.46185e-09
-1.52375e-10
-1.73877e-10
5.7114e-09
-5.68389e-09
-2.75183e-11
6.82661e-09
4.57598e-09
-5.6465e-11
-1.59052e-08
1.04826e-08
1.77023e-08
5.8259e-09
8.22562e-09
8.16768e-09
-6.84894e-09
1.44084e-09
-1.19456e-08
1.34147e-10
1.54893e-09
-1.30168e-08
2.72556e-09
-4.20324e-10
1.11163e-08
-1.03685e-08
-2.91963e-10
-6.89241e-10
-1.38286e-08
7.80864e-09
6.7449e-10
8.18184e-12
-8.88142e-09
4.97493e-09
-3.00381e-08
-1.25198e-08
-2.85059e-09
1.54187e-09
1.41263e-08
1.1096e-08
-1.08458e-08
-1.43765e-08
1.53643e-08
-3.17268e-09
-1.21916e-08
1.60049e-09
4.01569e-09
-8.97818e-10
-8.73159e-10
-7.98845e-10
1.08514e-09
5.86864e-10
-2.09906e-10
3.27401e-10
3.22406e-10
6.21456e-08
-6.21718e-08
2.62268e-11
6.2065e-08
-6.23693e-08
3.043e-10
8.37528e-10
6.47307e-08
-6.5558e-08
8.27319e-10
6.41226e-08
6.08074e-10
-2.23696e-10
-6.65035e-08
9.45526e-10
-6.20617e-08
6.19269e-08
1.34804e-10
1.31495e-09
-6.78184e-08
-6.22216e-08
1.5987e-10
1.27371e-08
-5.6259e-10
1.1817e-09
-3.69719e-09
3.07808e-09
2.82027e-10
-1.14423e-09
8.52934e-10
-4.98069e-10
1.35389e-09
-1.57358e-09
7.1776e-10
1.34951e-09
-1.42097e-09
7.07554e-11
-3.74758e-11
-3.4618e-09
2.65283e-09
-1.87745e-09
2.68642e-09
-3.33393e-10
-2.69123e-09
2.46203e-09
-3.46639e-09
-5.87022e-09
5.61188e-10
-5.67194e-10
1.12031e-09
1.08651e-09
-6.42786e-09
7.86523e-09
3.1386e-09
1.9723e-08
-4.35879e-09
-6.59899e-10
2.77038e-10
9.44048e-10
-1.00787e-08
-2.60367e-08
5.24761e-09
-4.19785e-09
-3.19855e-09
2.1488e-09
8.92457e-11
2.54103e-11
3.03997e-10
-2.48773e-09
3.2849e-09
9.02265e-09
6.77582e-10
-1.35454e-10
2.05001e-09
-2.24795e-09
1.7356e-09
1.47049e-08
1.3338e-08
-2.69235e-08
3.27188e-08
6.31364e-09
-2.28479e-08
-1.03892e-08
1.85521e-08
-1.80408e-08
1.05846e-08
-1.49857e-11
-2.47566e-10
-1.15842e-09
-1.63828e-09
-2.84316e-09
3.2456e-09
1.5185e-08
-6.37178e-10
-1.38491e-08
-8.66839e-10
-2.18981e-09
3.65423e-10
1.54781e-08
1.77789e-08
1.36952e-08
7.64387e-10
-1.73897e-09
-1.27206e-08
-1.42919e-09
5.97835e-09
1.26271e-08
-4.11593e-10
-9.84873e-10
-3.67117e-09
2.81291e-09
3.51108e-09
2.51121e-09
1.45698e-08
4.31914e-09
-1.44196e-08
1.81223e-08
-1.76097e-09
2.36099e-09
-3.30585e-09
1.92091e-09
-4.96249e-09
1.29246e-08
-1.19277e-08
-1.40553e-08
3.00191e-10
8.7926e-09
-1.77222e-09
1.47926e-09
1.41327e-09
-8.66526e-09
6.97748e-10
-4.55231e-09
-5.98739e-09
1.21722e-08
-1.48501e-08
9.95549e-10
1.68327e-09
-2.19993e-09
1.6865e-08
-1.63484e-08
-1.1443e-09
1.42023e-08
3.12089e-09
-4.49614e-09
-1.4047e-08
7.60083e-09
-1.74622e-08
-8.1794e-09
6.91164e-09
5.88084e-09
1.46673e-08
-1.01193e-08
3.00006e-09
9.50983e-09
9.8123e-09
3.87883e-09
-4.23033e-09
2.18198e-08
-1.92885e-08
5.06952e-09
-1.0688e-08
2.16921e-09
5.7113e-09
1.40129e-08
-3.85769e-10
1.28279e-08
-1.35864e-08
-1.93975e-09
1.60144e-09
-5.95989e-10
9.34291e-10
1.1097e-08
-6.36291e-09
7.38086e-09
-1.10829e-08
1.46935e-09
-4.74272e-09
1.15353e-08
-1.20302e-08
-7.5902e-09
9.25848e-09
9.42875e-09
1.29699e-08
5.33846e-10
-1.38895e-08
1.39826e-09
7.73391e-10
-1.11752e-08
-6.7255e-09
1.03106e-08
-1.30908e-09
2.50971e-09
-9.00823e-09
4.76525e-09
-5.33574e-09
1.16633e-08
-3.46849e-09
-1.18849e-08
3.69004e-09
-4.4609e-09
1.13815e-08
1.77337e-09
1.10415e-09
-5.06703e-09
-1.78897e-08
1.05591e-08
1.23977e-08
7.07304e-10
-1.10955e-08
-1.00682e-08
1.60967e-08
1.26776e-08
2.88526e-09
-9.85152e-09
-1.33487e-08
-3.25271e-10
-1.27594e-08
1.66071e-10
-7.68743e-10
1.17645e-08
1.25563e-08
-8.23766e-09
1.67368e-08
-1.60966e-08
3.67898e-09
-5.1081e-10
1.80574e-09
1.29644e-08
-3.93829e-09
-1.27585e-08
-4.9773e-09
1.93191e-09
4.59432e-09
1.23924e-08
-7.23777e-09
1.00236e-09
-1.68783e-09
4.32732e-10
-6.84648e-10
5.95908e-09
2.64454e-08
6.16858e-12
-9.26415e-09
9.25798e-09
2.86522e-08
-2.24007e-08
2.21246e-08
1.97989e-08
-1.27209e-08
-2.72058e-09
1.51619e-08
1.48999e-10
-1.21461e-08
-4.64272e-10
-6.00281e-09
-1.83485e-09
2.15826e-09
1.44996e-09
-5.17654e-10
-1.11789e-08
1.16313e-08
6.52716e-11
2.98656e-09
-4.98918e-09
-1.12161e-08
1.07477e-08
-9.30439e-10
-1.09212e-08
-2.68189e-10
-1.1422e-08
-2.44431e-09
-1.21194e-08
2.1485e-09
7.88856e-09
5.15543e-09
-5.35127e-10
-1.18287e-08
1.18462e-08
5.44745e-10
-8.91876e-09
5.11306e-09
-1.58628e-09
2.12397e-09
-1.87989e-09
-1.30641e-08
-1.2442e-08
1.1913e-08
-1.01567e-08
-1.58232e-08
1.00747e-08
9.30523e-09
8.021e-10
2.74149e-09
-1.20056e-08
1.15725e-08
1.66136e-09
3.87597e-09
2.64775e-10
-4.5308e-10
-1.87626e-10
-4.16277e-09
2.48598e-09
-5.13015e-10
1.46909e-10
-1.73365e-10
2.64554e-11
-2.71735e-09
1.31474e-08
2.24754e-09
2.52561e-09
2.79172e-10
-1.28239e-09
-6.03454e-10
-2.24482e-09
-1.95988e-10
1.31013e-08
1.01628e-08
-2.92054e-10
6.73699e-09
-1.24997e-09
-5.19497e-09
-9.85412e-09
-5.15036e-09
1.10673e-10
3.62354e-11
4.86304e-09
1.34908e-09
-1.73076e-08
-2.83001e-10
-7.10522e-10
-2.7794e-09
1.02944e-09
3.18763e-09
6.19483e-08
-8.56184e-11
-6.18627e-08
6.23726e-08
1.88732e-10
-6.25613e-08
-1.41054e-08
-3.28806e-10
1.44421e-08
-7.90901e-12
3.20064e-09
-1.72691e-09
2.43585e-09
1.80077e-09
-4.54375e-09
-2.51016e-10
-4.83124e-10
3.92391e-10
-8.55979e-11
3.77057e-10
-2.47502e-10
1.97706e-08
1.02431e-09
-1.59319e-08
-1.06871e-10
-1.94257e-09
1.26151e-08
2.29184e-09
1.81642e-09
5.34471e-09
-2.13692e-09
-7.72323e-08
-2.41782e-08
-5.03471e-09
1.58478e-08
2.48661e-09
7.80437e-11
-2.83588e-09
-9.94615e-10
2.30107e-10
-2.20365e-10
-9.66116e-09
-3.70515e-10
1.00317e-08
-1.09175e-08
-6.56633e-09
1.07583e-08
-9.52644e-09
8.74384e-09
2.8442e-10
1.39507e-09
9.21938e-09
-9.19544e-09
-2.3935e-11
5.52733e-10
8.73739e-11
1.08872e-08
4.75887e-10
-6.76518e-10
-3.36781e-11
-1.42523e-08
-4.41778e-10
-1.38695e-08
1.27805e-08
-1.19214e-08
-6.60353e-08
6.49929e-08
1.04248e-09
1.99404e-10
-1.73994e-10
1.21112e-08
-1.79815e-10
6.45016e-12
-2.0995e-09
2.75187e-09
-3.41175e-09
-1.34674e-08
-1.6247e-09
2.57636e-09
-4.664e-09
-1.41695e-08
1.52589e-09
5.53876e-09
9.73709e-09
-9.10797e-09
-2.0177e-10
2.19543e-11
-9.29239e-09
-1.34562e-08
1.5101e-10
-6.26918e-08
2.35516e-10
6.24563e-08
6.95384e-10
6.34272e-08
-2.23527e-10
-1.68249e-09
-1.4508e-08
1.07412e-10
-6.34087e-08
6.33013e-08
1.85392e-10
-6.295e-08
6.27646e-08
3.01631e-10
6.17981e-08
1.50461e-10
-6.19485e-08
6.16293e-08
1.68811e-10
-8.7889e-08
8.84981e-08
-1.07064e-12
9.33929e-08
-9.30994e-08
-2.67261e-10
-8.66284e-08
-4.33299e-10
9.33519e-08
-1.82742e-10
-8.49155e-08
-7.67358e-10
9.34826e-08
1.73617e-10
-5.22169e-10
1.96151e-09
9.23586e-08
-6.93106e-08
6.21394e-08
-6.23223e-08
-6.29495e-08
6.14869e-08
1.4234e-10
-3.16072e-09
2.9645e-09
-1.42234e-08
4.14695e-11
6.92037e-11
1.10211e-09
8.69634e-09
-1.13872e-08
3.833e-08
-3.45638e-08
-1.6783e-08
1.38171e-08
-3.13555e-11
-1.98353e-10
1.204e-10
5.39934e-10
-1.12434e-10
2.94918e-10
4.40412e-09
1.05248e-09
-3.53569e-09
-1.29107e-10
1.65015e-10
-8.95867e-11
-2.60165e-09
1.32946e-08
2.45443e-09
-1.44232e-08
-2.62835e-09
-3.25038e-09
5.50202e-09
1.0509e-09
-2.61095e-09
1.43644e-08
-1.19442e-09
-1.56355e-09
1.53711e-09
-8.123e-09
-1.90837e-08
-1.35216e-08
8.05421e-09
5.76762e-09
-1.87203e-10
-5.74232e-10
2.91969e-09
1.4494e-08
2.29313e-09
-1.87152e-09
-3.5854e-10
4.08825e-10
-2.24161e-10
1.59105e-08
-6.06475e-10
-1.56745e-08
3.37336e-10
-1.53917e-11
3.36812e-10
-2.70639e-10
3.39032e-09
-1.61979e-08
4.10958e-10
-1.46686e-09
-2.04901e-09
-2.27898e-09
1.57647e-08
-9.05936e-08
-1.33963e-10
9.16787e-08
-1.90881e-10
-8.9164e-08
-4.77706e-10
9.3102e-08
-2.75166e-10
-9.29125e-08
-5.3238e-10
-1.54354e-09
1.68851e-08
9.19802e-08
-1.98716e-10
2.95375e-11
-2.20856e-10
9.70496e-09
2.42637e-09
-7.17288e-09
-1.22785e-08
-5.67631e-09
8.38485e-09
1.51699e-09
-6.76325e-09
-5.98049e-09
9.05327e-09
-4.57606e-11
1.01286e-08
1.95003e-08
-1.79901e-08
3.08848e-09
-1.27915e-08
3.12143e-09
-6.99609e-08
3.92551e-09
-2.06058e-08
-1.30502e-08
-4.50976e-10
-5.92349e-09
-1.5304e-08
9.08141e-09
-1.5092e-08
3.86053e-10
3.26909e-10
-1.9463e-09
-1.6745e-08
1.71423e-08
7.06225e-09
-7.6325e-09
-4.42296e-09
1.53321e-08
-1.68185e-09
7.14221e-10
-7.85634e-10
5.27426e-11
1.19701e-08
3.31814e-09
7.09127e-08
-1.82462e-08
6.73809e-10
-1.50798e-08
-2.15626e-10
-2.48709e-10
-1.3055e-10
6.09496e-08
-6.12248e-08
-6.33792e-08
-6.31487e-08
-6.42689e-11
-2.62176e-10
-9.25861e-08
-6.04524e-08
6.24139e-08
6.51031e-08
-6.02787e-08
6.45809e-08
-6.04615e-08
6.38136e-08
-6.07287e-08
6.33803e-08
9.23089e-08
2.5071e-10
-6.33678e-09
7.51264e-08
-6.54715e-08
2.60634e-11
-2.60634e-11
4.83957e-12
-3.05063e-10
1.54765e-08
-7.26581e-12
7.26581e-12
2.911e-10
1.51635e-09
1.39124e-08
1.34508e-08
-2.70973e-09
3.71519e-09
6.69009e-09
1.74656e-09
3.4167e-10
-2.29896e-10
-2.96612e-09
1.458e-08
1.48433e-08
-4.29156e-09
1.18202e-08
1.61532e-10
1.30648e-10
2.6765e-09
-7.70152e-10
-1.47724e-09
-5.84868e-09
-1.98589e-10
-3.72831e-10
1.53128e-08
2.23874e-10
4.41692e-11
1.42969e-08
-2.62699e-08
1.78545e-08
2.68946e-09
1.20728e-09
2.50065e-09
-3.72146e-09
1.93914e-08
-1.81706e-08
-6.64906e-11
-1.03759e-12
-1.44133e-09
-7.92127e-08
-7.07519e-08
1.24149e-09
-3.52178e-10
6.09951e-10
2.30136e-08
1.86114e-08
-6.40858e-09
7.56175e-11
-4.21969e-09
-2.52526e-09
2.99565e-08
1.6079e-10
1.48184e-08
7.35788e-08
3.84949e-11
5.03431e-10
-1.3818e-10
-1.95668e-10
-3.57803e-09
2.434e-08
-1.48689e-08
8.88279e-10
-1.41986e-08
-4.31395e-11
2.04051e-08
-2.87528e-08
9.5723e-10
1.87444e-09
-1.93879e-10
)
;

boundaryField
{
    back
    {
        type            empty;
        value           nonuniform 0();
    }
    ingreso
    {
        type            calculated;
        value           nonuniform List<scalar> 
14
(
-1.54286e-08
-1.54288e-08
-1.54288e-08
-1.54288e-08
-1.54286e-08
-1.54283e-08
-1.54288e-08
-1.54288e-08
-1.54286e-08
-1.54286e-08
-1.54288e-08
-1.5428e-08
-1.5428e-08
-1.54286e-08
)
;
    }
    salida
    {
        type            calculated;
        value           nonuniform List<scalar> 2(1.0141e-07 1.14589e-07);
    }
    front
    {
        type            empty;
        value           nonuniform 0();
    }
    defaultFaces
    {
        type            calculated;
        value           uniform 0;
    }
}


// ************************************************************************* //
