/*--------------------------------*- C++ -*----------------------------------*\
  =========                 |
  \\      /  F ield         | OpenFOAM: The Open Source CFD Toolbox
   \\    /   O peration     | Website:  https://openfoam.org
    \\  /    A nd           | Version:  8
     \\/     M anipulation  |
\*---------------------------------------------------------------------------*/
FoamFile
{
    version     2.0;
    format      ascii;
    class       surfaceScalarField;
    location    "4.6";
    object      phi;
}
// * * * * * * * * * * * * * * * * * * * * * * * * * * * * * * * * * * * * * //

dimensions      [0 3 -1 0 0 0 0];

internalField   nonuniform List<scalar> 
9107
(
4.48066e-09
-1.1447e-09
1.17905e-09
-4.51502e-09
-4.78018e-09
5.02504e-09
-2.18156e-09
1.93671e-09
-1.95457e-09
4.78436e-09
-4.28861e-09
1.45882e-09
5.42436e-09
-1.25082e-09
-5.55268e-09
1.37914e-09
-1.95277e-09
-4.30035e-09
5.37651e-09
8.76614e-10
-5.61159e-09
5.44312e-09
8.39104e-11
8.456e-11
5.79679e-09
-4.53341e-09
4.17691e-10
-1.68107e-09
-3.25423e-09
1.96168e-09
8.41934e-09
-7.1268e-09
5.56572e-09
-5.77979e-09
9.13073e-11
1.22763e-10
4.08885e-09
-4.55978e-09
2.29462e-11
4.47983e-10
5.51212e-09
-5.32729e-09
-1.33979e-10
-5.08459e-11
-5.63228e-09
5.47705e-09
9.21234e-11
6.3109e-11
-5.23126e-09
4.08332e-09
1.28467e-09
-1.36731e-10
5.78784e-09
-5.67418e-09
-7.54599e-10
6.4093e-10
-7.54423e-09
6.75079e-10
1.57098e-09
5.29818e-09
3.54866e-09
3.28798e-09
-3.5908e-09
-3.24584e-09
6.77219e-09
-8.60621e-09
-5.26368e-10
2.36038e-09
-6.67951e-09
7.51434e-09
-1.00806e-09
1.73232e-10
6.33605e-09
-6.01609e-09
1.56824e-10
-4.76786e-10
2.12887e-09
-1.82104e-09
-2.57404e-09
2.26621e-09
-4.71856e-09
-8.24416e-10
2.8147e-10
5.26151e-09
5.44422e-09
-5.61398e-09
6.67628e-11
1.02996e-10
-5.20747e-09
-2.27192e-09
1.72064e-09
5.75874e-09
5.28299e-09
-1.00006e-09
-4.5341e-09
2.5117e-10
9.40982e-10
-5.2883e-09
-3.90977e-10
4.73829e-09
4.4049e-09
-2.00315e-09
-4.03958e-09
1.63783e-09
-6.31312e-09
-2.07014e-09
8.39022e-10
3.60521e-09
-3.44075e-09
2.96124e-09
-3.1257e-09
-2.59821e-09
-3.12907e-09
3.20541e-09
2.52187e-09
1.48849e-09
4.46229e-09
-4.3866e-10
-4.96899e-09
5.82409e-09
-9.8541e-10
1.30308e-10
-1.84532e-09
-3.95738e-09
4.96394e-09
8.38756e-10
-4.82537e-09
3.38498e-09
-7.7955e-11
1.51834e-09
4.33243e-09
-4.83816e-09
3.72748e-10
1.32975e-10
5.48192e-09
-1.54969e-09
2.11186e-09
-6.04408e-09
1.60696e-09
3.22915e-09
-4.83612e-09
6.00809e-09
-4.31946e-11
-5.4359e-09
-5.28992e-10
-6.56067e-09
5.79964e-09
5.85098e-10
1.75923e-10
4.97838e-09
-9.10239e-10
-4.30392e-09
2.35774e-10
-1.46433e-08
-2.69605e-09
7.31302e-09
1.00264e-08
-1.40517e-08
4.48352e-10
-1.04511e-10
1.37079e-08
-2.47207e-09
2.89199e-09
3.03513e-09
-3.45505e-09
6.71999e-09
-1.41984e-10
-2.41953e-10
3.43587e-09
-3.88474e-09
-3.22137e-09
3.67024e-09
2.60895e-09
-3.20022e-09
3.35317e-09
-2.7619e-09
1.19385e-09
-5.63679e-09
-7.6452e-10
-3.29627e-09
3.55268e-09
-2.9251e-09
2.66869e-09
-4.84577e-09
4.54134e-09
4.39475e-11
2.60483e-10
-1.24971e-09
5.82173e-10
-4.92016e-09
5.58769e-09
3.6848e-09
-3.56834e-09
-3.19795e-09
3.0815e-09
-5.37447e-09
-7.56984e-10
-1.14046e-09
7.27192e-09
-5.99314e-10
4.67388e-11
1.45251e-10
9.3583e-10
2.24231e-10
1.10226e-10
3.40118e-09
-3.21518e-09
-1.00853e-08
9.89933e-09
-3.18999e-10
-2.99099e-11
-1.99766e-09
2.93024e-09
1.43768e-09
-2.37026e-09
-7.94012e-09
5.82007e-09
-7.78803e-10
2.89886e-09
7.32933e-09
-2.10368e-09
1.84716e-10
-5.41036e-09
-2.12208e-09
-2.14731e-09
1.88018e-09
2.3892e-09
1.17708e-10
-1.00705e-10
-7.15418e-10
1.12229e-09
-5.13345e-10
1.45997e-10
-4.22397e-11
4.09589e-10
-3.61095e-09
-3.29994e-09
3.29245e-09
3.61844e-09
-3.32613e-09
2.93406e-09
-3.04291e-09
3.43498e-09
-4.99241e-09
5.25538e-09
-4.84138e-10
2.21158e-10
5.50448e-10
7.03982e-10
5.92628e-09
-5.0794e-10
1.35385e-09
4.62594e-09
3.37803e-10
5.18179e-10
-1.1848e-08
-6.69175e-10
-1.53457e-09
-9.28735e-11
-7.44939e-11
3.91576e-09
-3.64929e-09
-2.28176e-10
-3.82937e-11
2.43722e-09
2.24455e-09
-1.74654e-09
-2.93522e-09
-2.82329e-09
-3.31555e-09
3.0668e-09
3.07204e-09
-2.62908e-09
3.46251e-09
-3.13978e-09
2.30635e-09
6.81574e-09
2.95817e-09
-5.33282e-09
-4.44109e-09
5.78391e-10
-4.82876e-09
-5.95403e-10
-4.8802e-09
3.94314e-09
-4.41585e-10
1.37864e-09
-5.1221e-09
-5.21215e-09
5.14858e-09
5.18566e-09
-7.99746e-11
-1.09188e-10
2.40279e-09
-1.79562e-09
1.83005e-09
4.58003e-09
-7.32316e-10
2.80653e-10
-4.12836e-09
-3.27858e-09
-1.92159e-09
6.91457e-10
4.50871e-09
1.91233e-09
-4.56886e-09
-9.31772e-10
3.58831e-09
-1.98421e-09
2.5541e-09
-9.64887e-09
9.07897e-09
3.20591e-09
-3.36915e-09
4.06885e-09
-3.90561e-09
-3.59998e-09
3.70197e-09
2.82466e-09
-2.92665e-09
8.92592e-11
5.81142e-09
-4.76325e-10
-4.69653e-09
-1.55981e-10
-1.399e-10
-5.10263e-09
4.29673e-09
-3.32354e-09
4.12944e-09
-3.5235e-09
-1.23754e-09
1.09554e-09
3.66549e-09
-3.06349e-10
-1.70832e-09
6.49711e-09
-4.48244e-09
-3.17678e-09
-3.89787e-09
3.86126e-09
3.21339e-09
3.2054e-09
-3.28463e-09
-3.58716e-09
3.66639e-09
-3.53281e-09
3.25731e-09
-4.07805e-09
4.35355e-09
-3.18333e-09
2.76526e-09
3.70034e-09
-3.28228e-09
6.68586e-10
-4.08559e-09
-1.06493e-10
-3.53895e-09
3.58766e-09
2.86958e-09
-2.91829e-09
-2.29886e-09
-4.96019e-09
5.2544e-09
2.00465e-09
3.84823e-09
3.75757e-09
-3.70211e-09
-3.90369e-09
-3.1891e-09
-3.66619e-09
3.69138e-09
3.16391e-09
1.32829e-08
3.10758e-09
-1.70585e-08
6.68051e-10
3.05077e-09
-3.12891e-09
-3.78765e-09
3.86578e-09
5.10324e-09
3.69973e-11
-2.35756e-10
-4.90449e-09
2.54633e-09
-2.83121e-09
-3.31328e-09
3.59816e-09
1.98793e-09
-4.68624e-09
-1.64304e-09
4.34135e-09
3.47224e-09
-3.28204e-09
3.29459e-09
-3.48479e-09
5.4822e-09
-6.36557e-10
2.57597e-10
3.64277e-09
-4.84143e-09
-4.90007e-09
6.09873e-09
2.1146e-09
-1.51777e-09
1.24323e-09
-1.84006e-09
3.10936e-09
-3.14629e-09
3.0877e-09
-3.06771e-09
-3.20749e-09
3.14629e-09
3.6116e-09
-3.42948e-09
-4.02159e-09
3.83947e-09
-4.77426e-09
4.14953e-09
8.63194e-11
5.38414e-10
3.11213e-09
-2.48286e-09
-3.30924e-09
2.67996e-09
-2.43139e-09
-3.37419e-09
2.5145e-09
3.29107e-09
-1.65423e-09
3.55528e-09
3.06567e-09
-2.43729e-09
-3.24728e-09
2.61891e-09
2.79379e-09
-2.77103e-09
2.78648e-09
-2.80924e-09
-2.35689e-09
-2.48149e-09
2.09937e-09
2.739e-09
3.90569e-09
-3.83005e-09
-3.14334e-09
7.13179e-10
2.50993e-09
-3.2231e-09
9.6117e-10
6.52101e-09
-4.72643e-09
-2.75575e-09
4.84652e-09
-1.23833e-09
1.91729e-09
-5.52548e-09
2.39045e-09
-2.58343e-09
2.98147e-09
-2.78849e-09
-5.24527e-10
9.28255e-11
-8.16435e-11
2.78718e-09
-2.8569e-09
-3.55492e-09
3.62464e-09
-3.25304e-09
3.1328e-09
4.05738e-09
-3.93713e-09
2.80771e-09
-2.63099e-09
2.06783e-09
-5.52605e-09
1.3332e-09
-4.39886e-10
4.63273e-09
3.40618e-09
4.37204e-09
-4.25424e-09
-3.52398e-09
-4.80406e-09
-1.07531e-09
4.62966e-09
5.01177e-10
2.06767e-10
2.72975e-09
6.11008e-09
-7.36062e-09
-1.47921e-09
3.61344e-09
-3.36909e-09
3.49828e-09
-3.74263e-09
4.81634e-09
-5.34318e-09
-3.74695e-09
4.2738e-09
-1.12059e-08
7.20046e-09
-1.19836e-08
1.59889e-08
-4.48437e-09
4.76979e-09
2.96748e-10
2.9851e-09
-3.09807e-09
3.11808e-09
-3.0051e-09
5.75208e-09
1.30722e-09
-3.05502e-10
-6.7538e-09
6.79415e-10
3.00221e-09
-3.80718e-09
1.25562e-10
3.64904e-09
-9.03959e-10
-3.07259e-09
3.27508e-10
-1.9279e-09
2.37538e-09
-1.50908e-08
2.7592e-09
-2.97178e-09
3.00795e-09
-2.79537e-09
2.41467e-09
-2.53153e-09
1.1459e-09
-1.02904e-09
5.47088e-09
-5.33459e-09
6.13258e-10
-7.49548e-10
4.6169e-09
4.47939e-09
-3.5349e-09
-5.56138e-09
-4.47263e-09
1.18795e-09
5.19701e-09
3.96252e-09
-6.02171e-10
2.88685e-10
2.42472e-09
6.28448e-09
-2.17441e-09
-6.5348e-09
3.9383e-09
-4.60527e-09
1.15058e-09
-4.83615e-10
4.57606e-09
9.51225e-09
-4.00818e-09
-1.00801e-08
6.19233e-09
-5.43227e-09
6.25645e-11
-8.22626e-10
-2.81106e-09
3.65164e-09
3.31535e-09
-4.15594e-09
-6.98618e-10
4.34956e-09
-3.81444e-09
1.63497e-10
5.66371e-09
-1.08498e-10
-5.8168e-09
2.61584e-10
1.3357e-09
-4.16545e-09
-5.4298e-10
3.37272e-09
2.07531e-09
-7.69081e-10
5.50951e-09
-3.22382e-09
3.18286e-09
-3.14814e-09
3.21426e-09
3.14814e-09
-3.157e-09
6.45602e-10
4.70746e-09
-5.67102e-10
-4.78596e-09
-1.9706e-09
9.29554e-10
-1.99014e-09
3.03119e-09
-2.73423e-09
3.52392e-09
3.29335e-09
-4.08305e-09
-4.20425e-09
4.65607e-09
1.60411e-10
-6.12227e-10
4.16606e-09
3.94468e-10
2.85992e-10
3.70937e-09
-3.90036e-09
4.97841e-09
-4.78741e-09
2.7504e-09
-2.79033e-09
2.84109e-09
-2.80116e-09
5.64531e-10
-5.68238e-10
-1.12191e-10
5.71564e-09
-7.38678e-09
1.78333e-09
5.49611e-09
-2.62434e-09
-5.00575e-09
2.13398e-09
3.4141e-09
-3.34849e-09
3.03993e-09
-3.10555e-09
-2.73995e-09
2.71564e-09
-3.29822e-09
3.32254e-09
4.7337e-09
-4.69036e-09
-1.97527e-10
1.54181e-10
2.01159e-11
-7.48407e-11
3.58387e-09
-3.54559e-09
2.87549e-09
-2.91378e-09
-2.38981e-09
3.60586e-09
2.54054e-09
-3.7566e-09
3.89134e-09
-3.84595e-09
3.09365e-09
-3.13903e-09
6.80093e-09
8.09226e-09
-1.05582e-08
-4.33497e-09
2.66668e-09
2.58801e-09
-2.70836e-09
1.25627e-09
-4.9215e-09
4.65708e-09
-9.91851e-10
-3.11436e-10
-4.51342e-09
4.68131e-09
1.43548e-10
-1.80483e-09
3.06847e-09
1.91553e-09
-3.17916e-09
4.63775e-09
-4.75185e-09
-1.02231e-10
2.16333e-10
2.22586e-09
1.7552e-09
3.99261e-09
-7.97367e-09
-5.56986e-09
-2.76736e-10
4.94134e-09
9.05261e-10
-3.80029e-09
4.10873e-09
2.53658e-09
-2.84502e-09
3.27125e-09
-1.04996e-08
-2.60048e-09
9.82883e-09
-3.40409e-09
3.73312e-09
3.73075e-09
-4.05978e-09
1.63068e-09
-4.59258e-09
3.58453e-09
3.48479e-09
-3.45772e-09
-3.21284e-09
2.52037e-09
4.5407e-09
2.24578e-09
-5.08773e-09
4.96536e-09
-5.70589e-09
2.60135e-11
7.14508e-10
4.31076e-10
4.82113e-10
4.37366e-09
-5.28685e-09
-2.97817e-09
3.38468e-09
3.56987e-09
-3.97639e-09
5.27719e-09
-4.89354e-09
3.85632e-09
-4.23997e-09
-8.39971e-09
-2.60646e-09
6.53604e-09
4.47013e-09
-3.97415e-09
-2.61455e-10
-4.60918e-10
-3.02499e-09
3.18808e-09
2.92462e-09
-3.0877e-09
-5.66053e-09
-2.25762e-10
2.12119e-10
2.84262e-09
2.80924e-09
-2.86468e-09
4.35093e-09
1.84039e-10
-5.72444e-10
4.64558e-09
4.71139e-10
-5.86132e-09
7.44601e-10
6.31432e-09
1.32971e-09
-4.68586e-09
-1.74772e-09
8.33336e-09
2.66868e-09
-9.25433e-09
-3.71973e-09
3.77587e-09
-3.32279e-09
3.26665e-09
-4.70977e-09
-6.54767e-09
6.4074e-09
4.85004e-09
-2.9655e-09
-2.5557e-09
2.24263e-09
-1.29537e-08
-7.40063e-09
1.35589e-08
6.79544e-09
3.89091e-09
-3.86739e-09
3.12405e-09
-3.14758e-09
-2.38223e-09
4.15364e-09
-5.97984e-09
4.20843e-09
1.0266e-10
4.62464e-10
-4.79938e-09
4.23426e-09
-5.39102e-09
4.9846e-09
-3.81775e-09
4.22417e-09
-2.08204e-09
-9.73567e-09
6.37227e-09
5.44545e-09
-3.85652e-09
3.94089e-09
2.92286e-09
-3.05361e-09
3.0051e-09
-2.87435e-09
-4.93921e-09
4.95881e-09
1.38438e-10
-1.58042e-10
-4.3454e-09
1.22835e-09
3.11704e-09
3.4655e-09
-3.34747e-09
-2.80658e-09
3.10765e-09
3.76014e-09
3.08618e-09
-3.86123e-09
4.58538e-10
4.12921e-09
-4.55435e-09
-3.33994e-11
-1.50698e-09
-3.46174e-09
3.81895e-09
1.14977e-09
3.38197e-09
-2.52037e-09
-3.24384e-09
-4.72621e-09
-3.20098e-09
4.33395e-09
3.59324e-09
-1.19075e-08
3.54878e-10
-2.95341e-10
4.80466e-09
-4.41844e-09
-1.79501e-10
-2.06715e-10
4.67344e-09
1.25844e-10
-4.48351e-10
3.87795e-09
-3.869e-09
3.12635e-09
-3.1353e-09
-5.66856e-10
-5.19664e-11
9.42955e-11
-4.02138e-09
5.04125e-09
3.66005e-10
-1.38587e-09
-5.42367e-09
4.82756e-10
4.97927e-09
-3.83527e-11
3.51379e-09
-2.67943e-09
3.55223e-09
-4.38659e-09
1.82923e-09
5.09109e-09
-9.24964e-10
-5.99537e-09
3.14705e-09
3.81832e-09
-3.78245e-09
-3.18292e-09
7.97585e-09
1.90274e-09
-7.62121e-09
-2.25738e-09
5.60025e-11
-5.83974e-10
5.27971e-10
-2.75746e-09
3.08891e-09
-3.14704e-09
-3.29459e-09
3.157e-09
4.71888e-09
-9.12768e-11
-4.93904e-09
3.87849e-09
-3.88034e-09
-3.13923e-09
3.14108e-09
-6.3443e-10
1.23576e-10
1.96713e-09
-3.07015e-10
-1.66217e-09
2.05546e-12
-5.34173e-09
4.85332e-09
-3.99408e-09
4.48249e-09
2.68282e-09
3.38221e-09
-3.24251e-09
-2.82252e-09
3.23117e-09
-3.17064e-09
3.32243e-09
-3.38296e-09
3.34816e-09
3.13661e-09
-3.72557e-09
-3.30021e-09
-3.44043e-09
3.55237e-09
3.18828e-09
3.83222e-09
-3.80783e-09
3.96345e-09
-3.98784e-09
-3.45654e-09
3.78174e-09
-3.21798e-09
-3.32243e-09
3.28737e-09
-5.69117e-09
1.4098e-11
1.6704e-11
5.66037e-09
-5.3951e-09
2.10203e-11
-1.5922e-12
5.37567e-09
4.46723e-09
-2.0806e-11
-1.19971e-11
-4.43443e-09
-4.35752e-09
6.34464e-12
-1.88841e-11
4.37006e-09
4.65039e-09
6.61197e-12
-8.23374e-11
-4.57466e-09
4.57986e-09
9.60491e-12
-7.49943e-11
-4.51447e-09
4.75271e-09
-1.19427e-11
-1.8012e-11
-4.72276e-09
-5.44363e-09
-1.59902e-12
6.11756e-11
5.38405e-09
-1.43989e-08
1.15267e-08
9.44363e-10
-2.61324e-09
2.57217e-09
-2.58801e-09
3.33951e-09
4.13689e-09
-5.08595e-09
-3.45703e-09
2.75309e-09
3.49773e-09
-2.92504e-09
-3.77549e-09
3.28981e-09
3.41073e-09
-2.8372e-09
-3.67307e-09
3.12402e-09
3.38625e-09
4.10096e-09
-3.8603e-09
4.03554e-09
-4.27619e-09
3.88913e-09
-4.0055e-09
3.70143e-09
-3.58506e-09
-5.58483e-09
-1.06566e-10
7.74089e-11
-5.75408e-09
1.41246e-11
2.14525e-11
5.71851e-09
1.93411e-09
-9.57135e-09
8.87276e-09
-1.23552e-09
4.88475e-09
5.60239e-11
-1.29437e-10
-4.81134e-09
5.00778e-09
4.07329e-11
-1.05706e-10
-4.94281e-09
2.87833e-09
-3.72129e-09
-6.5015e-09
7.34446e-09
-2.07919e-09
-4.73529e-10
-6.05348e-09
1.60526e-09
-9.49369e-09
5.38915e-11
7.83454e-09
3.74459e-09
-4.38923e-09
-5.17773e-09
5.82238e-09
-9.98065e-09
3.91134e-09
-2.33041e-09
1.94957e-09
4.27533e-09
-6.03904e-09
-1.8586e-10
3.85805e-09
-3.85994e-09
-3.1268e-09
3.1287e-09
-3.82445e-09
3.87112e-09
3.12509e-09
-3.17177e-09
-2.64919e-10
4.3233e-09
5.79367e-10
3.75409e-09
-4.44796e-09
3.8664e-09
-3.17253e-09
-2.93414e-09
-3.45431e-09
2.93142e-09
-1.10591e-09
3.77019e-10
4.33913e-09
7.93253e-10
-4.49877e-09
-6.33616e-10
-4.52743e-10
1.7926e-10
4.89942e-09
5.15276e-09
4.45007e-11
-4.27463e-10
-2.67352e-09
-2.86443e-09
2.798e-09
-3.88463e-09
3.85018e-09
4.93948e-09
-4.90503e-09
-3.47944e-09
-2.12987e-09
2.4325e-09
3.17681e-09
3.34282e-09
-2.98147e-09
6.83122e-09
-6.25038e-10
-1.86705e-09
3.53076e-09
-3.283e-09
2.72231e-09
-2.97007e-09
-5.10153e-09
1.71147e-09
6.15228e-09
-2.76222e-09
-2.78648e-09
2.70836e-09
-6.0982e-10
2.5847e-11
-2.25209e-09
3.85102e-09
2.79012e-09
-4.38905e-09
-4.82451e-09
-3.53026e-09
4.89824e-09
-3.28856e-09
3.20559e-09
4.95448e-09
-4.87151e-09
3.39243e-09
-3.3633e-09
-6.81756e-09
-1.33052e-08
5.7238e-09
-7.36326e-09
3.90843e-09
6.85177e-09
-3.39694e-09
-4.10778e-09
-3.56052e-09
4.20487e-09
3.46343e-09
1.12908e-09
-8.88573e-10
4.31381e-09
-4.55431e-09
-4.36042e-09
-1.87449e-09
6.23491e-09
4.08624e-09
4.25514e-11
-4.7576e-09
6.28812e-10
-9.66025e-11
7.84547e-11
2.89341e-09
1.92077e-09
-1.93887e-09
-2.87531e-09
-2.85889e-09
-3.32925e-09
3.93605e-09
3.89486e-09
3.74263e-09
-3.92812e-09
-9.91614e-10
-4.65931e-10
6.2622e-09
-3.45361e-09
3.7329e-09
4.38409e-09
-4.66337e-09
4.44469e-09
-4.79284e-09
5.62534e-09
3.57548e-09
-4.90481e-09
-3.53847e-09
4.86779e-09
2.71248e-09
2.80116e-09
-2.798e-09
-5.97897e-10
-1.19232e-11
-6.29953e-11
2.0435e-10
3.93488e-09
-4.07624e-09
-4.67141e-09
3.58477e-09
2.76303e-09
-1.67639e-09
2.74054e-09
2.86443e-09
-2.92216e-09
9.11298e-09
2.57632e-09
-1.71282e-09
-9.97648e-09
4.47202e-09
-4.51536e-09
-1.22903e-10
1.6624e-10
-8.05821e-10
1.83607e-09
5.80097e-09
3.62057e-09
-3.7683e-09
-3.03865e-09
3.18638e-09
-3.31758e-09
-3.14019e-09
3.87434e-09
7.1155e-09
-6.15769e-09
-1.01873e-09
6.09137e-11
-4.04562e-09
4.76452e-09
-4.65134e-09
3.93244e-09
-4.9643e-09
3.55073e-09
5.05635e-09
-3.91314e-09
-4.00786e-09
4.03637e-09
1.71213e-09
-2.04452e-09
3.95068e-09
-3.77665e-09
-3.29015e-09
3.11611e-09
4.98164e-09
-5.50703e-09
3.37055e-09
-3.41089e-09
-4.4272e-09
4.46753e-09
1.14978e-08
-2.6672e-09
-3.00072e-09
3.47186e-09
3.87565e-09
-3.72387e-09
4.71191e-09
-4.8637e-09
2.6388e-09
-5.62252e-09
5.71347e-09
-3.38892e-09
-3.49828e-09
3.45772e-09
-3.13789e-09
-3.76517e-09
-5.08029e-09
7.82694e-10
-6.784e-10
4.976e-09
-4.36313e-09
5.21955e-09
-3.70143e-09
2.84502e-09
7.38537e-10
5.44627e-09
-1.82431e-09
-4.3605e-09
3.38097e-09
-3.38465e-09
-4.42254e-09
4.42622e-09
2.50548e-09
-3.78348e-09
4.6921e-09
3.73218e-09
-3.42564e-09
3.43184e-09
-2.54458e-09
3.40269e-09
-3.82988e-09
2.25999e-09
4.09612e-09
-3.00795e-09
-3.87288e-09
-1.08189e-09
2.64417e-10
-4.77092e-09
5.05e-09
-5.4003e-09
-3.56144e-09
4.12031e-09
-8.56134e-09
5.96451e-09
2.3205e-10
2.36478e-09
3.53163e-09
-1.36607e-10
-3.39502e-09
3.28149e-09
-2.7762e-09
2.87693e-09
3.98076e-09
-4.69399e-09
-4.98017e-09
5.6934e-09
-3.82534e-09
-9.12161e-12
4.90984e-09
-1.07538e-09
3.94913e-09
3.09448e-09
-2.0475e-09
-4.99611e-09
-4.3055e-09
1.00427e-09
3.30123e-09
3.82115e-09
3.88937e-09
-3.83486e-09
3.24989e-09
7.91894e-10
-4.04179e-09
-5.11212e-09
4.65791e-09
3.87006e-09
-3.41585e-09
2.11505e-09
-1.67309e-09
-2.18851e-09
-1.80467e-11
6.35344e-09
-6.24614e-09
-5.95801e-09
7.33362e-09
1.15812e-08
-1.29568e-08
5.11778e-09
-3.50293e-12
9.73017e-11
-5.21158e-09
-2.56916e-09
-2.77079e-09
2.79537e-09
-7.82125e-09
7.22497e-09
7.55518e-10
-1.59239e-10
-3.65073e-09
3.59169e-09
2.899e-09
-2.83995e-09
7.91356e-10
-5.21301e-10
-4.18911e-09
3.91906e-09
-2.06712e-09
2.32832e-09
-5.29698e-09
5.03578e-09
3.28228e-09
-3.28737e-09
3.012e-09
-3.164e-09
5.349e-09
-5.19699e-09
-1.90984e-09
4.97604e-09
1.10916e-10
-3.17711e-09
-6.0845e-10
4.50996e-09
-4.60013e-09
3.8e-09
4.82088e-09
1.21845e-10
-2.69291e-10
4.60958e-11
-1.64421e-10
8.63635e-10
4.23967e-09
-3.74785e-09
-1.35546e-09
1.18925e-10
-6.19105e-09
6.30918e-09
-2.37054e-10
-9.15637e-12
-4.4132e-09
4.37651e-09
4.58487e-11
-3.4682e-11
-5.77842e-09
5.74195e-09
7.11466e-11
2.67598e-11
4.72237e-09
-4.66008e-09
-8.90422e-11
2.85335e-11
4.52904e-09
-4.42338e-09
-1.34188e-10
-3.74135e-09
5.17728e-11
4.28366e-09
-5.94087e-10
-3.93167e-12
4.52191e-09
-4.49778e-09
-2.02008e-11
2.31903e-12
-5.4702e-09
5.43591e-09
3.19724e-11
1.37042e-11
-6.0769e-09
6.13792e-09
-7.4719e-11
2.59901e-12
-4.36941e-09
4.34577e-09
2.10451e-11
3.67875e-12
-5.74612e-09
5.72442e-09
1.80212e-11
-3.96784e-09
5.1721e-11
4.53538e-09
-6.19256e-10
6.16798e-12
-5.43447e-09
5.40746e-09
2.08447e-11
-3.7673e-09
4.44755e-11
4.27941e-09
-5.56589e-10
-3.40649e-12
4.50175e-09
-4.47351e-09
-2.48397e-11
-6.01589e-09
-2.78681e-12
6.05872e-09
-4.00482e-11
1.37106e-11
-5.73734e-09
5.71837e-09
5.26285e-12
1.24625e-11
-5.4147e-09
5.39266e-09
9.57567e-12
1.58506e-11
-5.7283e-09
5.70846e-09
3.98297e-12
1.42107e-11
-5.71536e-09
5.68743e-09
1.37185e-11
7.13037e-09
-6.64059e-09
-6.39585e-10
1.49804e-10
-2.43633e-09
-7.79463e-09
8.48324e-09
3.73597e-09
-3.19143e-09
-3.6483e-09
3.10376e-09
-1.66142e-09
5.31186e-09
2.87861e-10
2.48316e-09
-2.54616e-09
5.44651e-09
-5.17727e-09
-7.35349e-10
4.66108e-10
-3.9751e-09
-3.41168e-11
-4.0923e-10
3.42179e-09
-3.72964e-09
3.96865e-09
-3.6608e-09
2.79423e-09
-3.83114e-09
-4.24888e-09
5.28579e-09
-4.87354e-09
5.11758e-09
6.20541e-09
-7.05045e-09
-1.94185e-09
2.78689e-09
2.8805e-09
-3.5586e-09
3.42851e-09
2.41981e-09
-7.57931e-09
4.90998e-09
2.49524e-10
2.61787e-09
-2.7201e-09
-7.93334e-10
1.53317e-09
4.70667e-09
-5.74517e-09
1.57195e-08
3.85261e-09
-1.38269e-08
-2.35295e-09
-2.63522e-10
2.61647e-09
3.3717e-09
-4.08981e-09
5.1628e-09
3.83627e-09
-5.4929e-09
4.45086e-09
2.21564e-10
-5.68923e-10
3.34851e-09
3.50024e-10
-3.13239e-10
-5.62869e-10
5.26084e-10
-3.21901e-09
3.23554e-09
-2.94157e-09
-3.17166e-09
3.24085e-09
-2.90639e-09
-2.84109e-09
2.86468e-09
-3.10105e-09
2.77246e-09
-2.64106e-09
2.96965e-09
-5.03108e-09
-2.76834e-09
7.79942e-09
3.44678e-09
3.09435e-09
-3.38086e-09
3.33473e-09
-4.32205e-09
4.36818e-09
2.1765e-10
1.10895e-09
-1.34594e-09
1.93376e-11
-3.92668e-12
4.25877e-09
-4.19431e-09
-6.05385e-11
-3.4804e-09
4.29538e-09
3.23605e-09
-4.05103e-09
1.60977e-10
-2.8246e-10
-5.67932e-09
-4.20653e-09
3.11852e-09
6.76733e-09
4.77575e-09
7.43858e-11
-5.00577e-10
-4.18394e-09
1.40696e-09
4.41646e-09
-1.63948e-09
-1.86396e-09
-1.31923e-08
1.03465e-08
5.97703e-09
-5.42281e-09
-4.94149e-09
4.38728e-09
3.15561e-09
-3.03993e-09
9.62582e-10
-1.25478e-09
1.46246e-08
-1.43324e-08
2.66808e-09
2.94157e-09
-3.06569e-09
-2.54395e-09
2.61708e-09
2.90639e-09
-3.01958e-09
-2.50389e-09
-3.96469e-09
2.29619e-10
4.38067e-09
4.11976e-09
-4.6707e-09
4.03632e-09
-4.59091e-09
-6.04536e-09
-1.02097e-09
5.14853e-09
1.9178e-09
-5.99089e-09
-1.52741e-10
5.84005e-09
3.03587e-10
-5.55275e-09
-5.47888e-11
5.47817e-09
1.29373e-10
-4.52516e-09
-5.99512e-11
4.44794e-09
1.37173e-10
2.8167e-09
-3.01423e-09
5.4346e-09
-5.3465e-09
1.46892e-11
-5.49237e-09
5.47367e-09
4.01195e-12
-9.00126e-12
4.76171e-09
-4.72466e-09
-2.8048e-11
2.49299e-11
4.4832e-09
-4.41369e-09
-9.44423e-11
-2.75871e-12
4.56993e-09
-4.53264e-09
-3.45336e-11
-5.08641e-12
4.55498e-09
-4.52703e-09
-2.28677e-11
-2.4961e-12
4.80076e-09
-4.7654e-09
-3.28704e-11
-4.02982e-09
1.19682e-10
4.67616e-09
-7.66023e-10
-9.12995e-11
-4.21444e-09
3.72362e-09
5.82124e-10
-5.22809e-09
6.93757e-09
-7.48135e-09
5.77187e-09
3.41433e-09
-3.56698e-09
-4.42939e-09
4.58204e-09
-1.3541e-09
1.6744e-08
-1.44273e-08
-3.36593e-09
3.24833e-09
-4.18726e-09
-2.71305e-09
3.65198e-09
-5.08586e-09
5.09105e-09
3.69338e-12
-8.88887e-12
-2.77179e-09
-3.7533e-10
3.14712e-09
-5.30737e-09
4.95134e-09
1.02026e-09
-6.64232e-10
3.85627e-09
-5.08264e-09
-3.67371e-09
-6.77933e-12
3.34065e-09
-3.33387e-09
3.6476e-09
-3.65716e-09
3.40268e-09
-4.51682e-09
4.57964e-09
-3.60178e-09
3.47514e-09
5.49508e-09
3.63528e-11
-4.7782e-09
4.85202e-09
-1.10178e-10
3.78046e-11
-4.70149e-09
4.77043e-09
-1.06748e-10
-7.81218e-10
8.14194e-09
-1.60864e-09
5.06461e-09
2.87797e-11
-4.12085e-10
1.19802e-09
4.86669e-09
-1.40961e-09
-4.65511e-09
3.06927e-09
-3.34673e-09
-5.69911e-09
5.97657e-09
8.15478e-09
-1.04564e-08
5.70282e-09
5.78123e-09
2.62155e-09
-1.05607e-09
-7.34671e-09
3.92913e-09
-3.97778e-09
3.29698e-09
2.36219e-11
-5.15905e-09
5.20829e-09
-7.28664e-11
3.41194e-09
3.39153e-09
-1.33136e-08
1.52828e-08
-7.92721e-09
2.43783e-09
-6.24384e-09
5.87271e-09
-2.0667e-09
-3.5627e-09
4.42802e-09
-5.1951e-09
4.15639e-09
-3.38931e-09
3.80974e-09
3.00605e-09
-3.08207e-09
-3.73373e-09
-2.15707e-10
-5.63484e-09
4.26874e-10
2.0462e-10
-1.24583e-10
4.08756e-09
-4.16759e-09
5.36494e-09
-5.33531e-09
-3.64153e-11
-5.11684e-09
5.15381e-09
1.51267e-11
-5.20999e-11
4.67711e-10
-7.66368e-09
3.17459e-09
4.30031e-09
-3.85726e-09
-3.69314e-09
3.25009e-09
-4.7623e-09
4.87387e-09
-4.3818e-09
4.27023e-09
-3.51035e-09
3.53397e-09
7.21621e-09
-6.40271e-09
-1.41925e-09
6.05756e-10
2.5887e-09
-2.59263e-09
2.88682e-09
-2.83338e-09
3.93184e-09
-5.41497e-09
-3.18829e-09
-1.48832e-09
5.11219e-11
1.49303e-09
-2.97142e-09
3.88117e-09
2.86207e-09
-3.12519e-09
-3.29547e-09
4.28527e-09
5.39508e-10
3.89871e-09
3.98784e-09
-4.03637e-09
-4.90092e-09
-3.4017e-09
4.257e-09
-4.30754e-09
3.83486e-09
-3.25119e-09
1.47821e-08
-4.02722e-09
-1.65001e-08
3.94231e-09
-4.0058e-09
-2.49131e-10
4.07543e-09
-4.51914e-09
4.51068e-09
-3.34002e-09
-5.50601e-09
-3.76182e-10
1.002e-09
-4.88621e-09
1.31375e-09
4.90816e-09
-5.32463e-09
-7.83915e-12
9.70358e-11
5.23543e-09
-3.86503e-09
-3.96345e-09
3.92812e-09
-4.33369e-09
1.6058e-11
-4.67006e-11
4.36433e-09
-4.3617e-09
1.65056e-11
7.29283e-12
4.3379e-09
-4.40306e-09
7.20927e-12
1.5682e-11
4.38016e-09
-5.40836e-09
2.41927e-11
-1.89147e-11
5.40308e-09
-4.43401e-09
1.44296e-11
1.8944e-12
4.41768e-09
4.90523e-09
-1.74723e-11
1.09538e-11
-4.89871e-09
4.75283e-09
-1.43442e-11
-2.07923e-11
-4.7177e-09
-4.93318e-09
3.16573e-10
-8.32712e-10
5.44932e-09
-4.08652e-09
-2.89218e-09
3.65591e-09
-5.57464e-09
-4.54526e-09
5.60593e-09
4.51398e-09
5.62582e-09
-1.63631e-09
8.2555e-10
-4.81506e-09
-3.09534e-09
3.21719e-09
-2.9695e-09
2.14404e-09
-3.75693e-09
7.85483e-09
-2.3153e-09
-9.6401e-11
1.86822e-10
3.80404e-09
-3.89446e-09
3.13372e-09
-3.02294e-09
4.31735e-09
-4.79069e-09
3.22354e-09
-2.7502e-09
-3.37517e-09
-5.12181e-09
9.23107e-11
5.77266e-09
-7.43163e-10
2.47707e-11
4.72313e-09
-5.27241e-09
5.2451e-10
-7.51755e-12
-5.15738e-09
5.75971e-09
-5.9482e-10
-2.22626e-11
-5.03338e-09
5.59775e-09
-5.42109e-10
5.05758e-09
-7.39323e-09
-2.49042e-09
4.82607e-09
-3.21889e-10
6.41732e-09
-7.554e-09
1.45857e-09
-9.54825e-09
3.65637e-09
-3.30415e-09
-4.35954e-09
3.30135e-09
4.36234e-09
3.82978e-09
-4.28014e-09
6.54979e-10
3.3633e-09
-3.47514e-09
-3.11172e-09
-1.08525e-11
3.12257e-09
-3.08072e-09
1.9734e-12
3.07875e-09
-3.07875e-09
9.64127e-12
3.06911e-09
-3.08683e-09
9.62065e-12
3.07721e-09
-3.03226e-09
-3.91279e-12
3.03617e-09
3.31977e-10
2.30554e-09
-2.63752e-09
3.7231e-10
3.08881e-09
-3.46112e-09
8.10739e-10
2.52628e-09
-3.33702e-09
6.89629e-11
3.15329e-09
-3.22226e-09
2.88372e-09
6.35235e-11
-2.94725e-09
-7.91463e-12
-3.43741e-09
3.44532e-09
-3.1805e-09
-5.32113e-11
3.23371e-09
8.97854e-10
3.02024e-09
-3.91809e-09
-2.89119e-09
3.56862e-09
-3.45364e-09
2.15409e-09
5.54518e-09
-3.96331e-09
-4.10891e-09
3.38161e-10
1.73913e-11
5.78503e-09
-6.50574e-09
7.03318e-10
4.927e-09
-4.70797e-09
-2.89637e-09
8.43098e-09
2.94863e-09
-5.072e-09
5.88318e-10
4.65017e-09
-1.66489e-10
-4.58126e-09
4.01249e-10
-7.53169e-10
-3.24642e-10
-6.68235e-09
1.56679e-09
5.44021e-09
-3.46491e-09
3.54368e-09
-4.13211e-09
4.05334e-09
4.24624e-10
-6.3071e-09
-7.12367e-10
6.59484e-09
-3.87443e-09
-3.90589e-09
4.58889e-09
-1.14187e-09
1.04828e-09
-4.42471e-09
4.51829e-09
-5.39609e-09
5.3775e-09
9.15175e-10
-2.06924e-09
5.47625e-09
-4.32219e-09
1.44607e-10
5.67144e-09
-7.3725e-10
-5.07879e-09
5.11368e-09
-5.08783e-09
1.08165e-11
-3.66666e-11
4.66593e-09
1.08359e-10
-3.98103e-09
-3.25172e-09
-8.87551e-11
3.34047e-09
3.38492e-09
-3.34591e-09
4.40658e-09
-4.44559e-09
2.92438e-09
3.27988e-09
-3.11808e-09
-3.07917e-09
3.72808e-09
-3.4733e-09
3.23689e-09
3.96851e-09
-5.07654e-09
-3.77882e-09
-3.36959e-09
7.41617e-09
-1.99704e-09
-5.63249e-09
2.13361e-10
4.92713e-09
-5.84229e-09
-2.28121e-09
3.38683e-09
4.15011e-09
1.5505e-10
-3.44153e-09
9.30873e-09
-8.51948e-09
6.01167e-09
3.04316e-09
4.49245e-09
-3.38197e-09
-4.19867e-09
-3.80541e-09
4.09093e-09
2.8004e-11
3.67855e-09
-3.70655e-09
-6.76142e-12
3.51983e-09
-3.51307e-09
1.3071e-11
-3.12474e-09
3.11167e-09
8.2218e-12
-2.95903e-09
2.9508e-09
1.19059e-11
-3.02998e-09
3.01807e-09
2.3072e-11
-2.96318e-09
2.94011e-09
-1.48228e-11
3.69771e-09
-3.68289e-09
1.70241e-11
-3.12045e-09
3.10343e-09
-7.6453e-12
-3.25021e-09
3.25785e-09
-9.57375e-12
2.92918e-09
-2.9196e-09
8.47977e-11
-4.83008e-09
-1.49071e-10
4.89435e-09
4.60006e-09
2.1614e-09
-3.15561e-09
-3.6741e-09
3.88298e-09
-3.13917e-09
2.93029e-09
5.95019e-10
9.97101e-11
-3.83336e-09
-3.55692e-09
3.83049e-09
3.55979e-09
3.36262e-09
-8.02247e-11
5.39025e-09
-5.58086e-09
2.70828e-10
-3.26329e-09
3.40172e-09
3.3436e-09
-3.42383e-09
6.82976e-10
3.89735e-09
-4.58033e-09
-4.03973e-09
4.03657e-09
3.6548e-09
-3.97116e-09
3.40654e-09
4.08855e-09
-1.37763e-10
-3.11396e-09
-1.29271e-09
-2.67152e-09
2.02746e-09
1.93677e-09
-5.91455e-10
-1.96842e-10
2.75543e-09
-3.8765e-09
2.99143e-09
-3.65454e-09
4.5396e-09
-5.79987e-09
7.3581e-09
-4.78463e-09
3.2264e-09
-9.84834e-11
1.33942e-09
-1.36651e-09
1.25574e-10
-5.52656e-11
-3.45509e-09
-3.1203e-09
3.16522e-09
4.09658e-09
-4.34954e-09
-5.8971e-10
3.73667e-10
3.6204e-10
4.05986e-11
-4.37573e-11
4.3263e-09
-2.09943e-09
3.97854e-09
-1.77627e-09
1.55137e-09
-3.16414e-09
3.38904e-09
3.62062e-09
1.05696e-09
-4.37912e-10
-3.59929e-09
-4.92655e-10
3.89862e-09
1.93317e-10
3.80616e-09
-4.34819e-09
4.64158e-09
-5.11558e-09
4.57062e-09
-4.27663e-09
4.67191e-09
3.49765e-09
-3.72409e-09
-4.44546e-09
3.16801e-09
-4.83477e-09
4.73171e-09
-1.38045e-09
-1.32907e-09
4.62186e-10
2.24733e-09
2.52062e-12
-3.24368e-09
3.24116e-09
-2.20449e-11
-3.09901e-09
3.12106e-09
-1.37639e-11
2.87801e-09
-2.86425e-09
-1.6044e-11
3.5311e-09
-3.51505e-09
8.51205e-13
2.87588e-09
-2.87673e-09
-5.31602e-12
2.87478e-09
-2.86947e-09
-3.62887e-12
2.88871e-09
-2.88508e-09
1.99133e-11
3.51599e-09
-3.53591e-09
-3.10248e-09
2.85614e-09
-3.57686e-09
3.82321e-09
2.5756e-09
-2.70019e-09
-7.64208e-09
5.43085e-09
5.76453e-10
1.63478e-09
-3.46558e-09
-3.53131e-09
3.5165e-09
-8.02975e-11
4.98039e-09
1.29223e-09
2.9354e-09
-4.57698e-09
-2.19791e-09
3.83949e-09
-2.66157e-09
2.70412e-09
8.33047e-09
4.33784e-09
-5.21826e-09
5.3413e-09
-3.25462e-09
-2.88115e-11
-5.69086e-10
-4.64831e-09
-7.50296e-10
4.44106e-09
-9.07292e-10
1.3985e-09
-4.93227e-09
-6.04352e-10
-4.94224e-09
3.81022e-10
5.16557e-09
4.80232e-09
-5.05695e-09
-3.75086e-09
2.06313e-09
-2.63563e-09
-1.67137e-09
2.24388e-09
-2.67578e-09
3.62183e-09
-8.88617e-09
-1.76642e-11
4.92542e-09
-5.37412e-11
4.78453e-09
-3.19168e-09
-3.40515e-09
2.54684e-09
4.04999e-09
-3.08839e-11
-4.41689e-09
-3.19686e-11
-5.39243e-09
-3.82457e-09
3.74428e-09
3.36202e-09
1.69608e-10
-4.22306e-09
4.80742e-09
-3.20941e-09
4.16495e-09
3.37104e-09
-4.32658e-09
-3.1721e-09
-4.09212e-09
4.14392e-09
4.98593e-09
5.43739e-11
2.84673e-09
3.753e-09
-3.72281e-09
2.80858e-09
-2.51284e-09
-3.76065e-09
1.00653e-10
-5.40537e-09
1.89315e-11
-4.42114e-09
1.40614e-11
-4.38108e-09
1.14179e-12
-4.33846e-09
-4.45529e-09
-1.36869e-11
3.98694e-09
4.82034e-10
-1.82153e-10
3.79163e-09
1.16627e-09
-1.99127e-10
4.02102e-09
1.24273e-09
-2.05955e-10
3.94356e-09
1.41516e-09
-1.15074e-09
7.93194e-09
-7.78043e-09
9.99229e-10
-3.96441e-09
8.40369e-09
-1.0987e-08
2.31646e-09
-2.37194e-09
2.64106e-09
-2.58558e-09
6.53535e-09
-5.18686e-09
-5.22722e-09
3.87873e-09
-8.07203e-10
-7.59902e-10
1.19656e-09
3.70547e-10
4.89688e-09
7.16193e-10
-5.54411e-09
-5.33125e-09
-4.80506e-10
5.80384e-09
1.23774e-10
4.68633e-09
-9.80326e-10
6.25461e-09
-1.40529e-09
-3.6899e-09
-2.56874e-09
3.3245e-09
3.79897e-09
-5.55562e-09
-3.43844e-09
2.82681e-10
4.31693e-09
-8.14486e-10
-3.78513e-09
-4.52202e-09
3.41372e-09
-5.18419e-09
3.74824e-09
-1.97777e-09
4.07076e-09
2.68212e-09
-3.23909e-09
2.17667e-10
-4.95524e-09
6.20781e-09
-1.47024e-09
-4.26976e-09
-1.68301e-12
4.20339e-09
6.80514e-11
-5.2842e-09
-3.87758e-09
4.96311e-09
-2.25078e-10
-5.25594e-09
1.37211e-09
-4.24586e-09
5.35097e-11
4.40017e-09
-2.07823e-10
4.61985e-09
-6.65544e-09
4.38674e-09
-2.35114e-09
-4.80857e-09
5.08754e-09
-3.4515e-09
3.17253e-09
4.40531e-09
-3.30069e-09
-4.33395e-09
3.22934e-09
3.72013e-09
-3.89534e-09
-5.01796e-09
-2.28029e-09
5.15309e-09
2.14515e-09
-5.85378e-09
-6.59477e-10
-1.12883e-09
-4.51983e-09
9.09933e-11
4.75599e-09
-3.27155e-10
4.35014e-09
-3.83369e-09