/*--------------------------------*- C++ -*----------------------------------*\
  =========                 |
  \\      /  F ield         | OpenFOAM: The Open Source CFD Toolbox
   \\    /   O peration     | Website:  https://openfoam.org
    \\  /    A nd           | Version:  8
     \\/     M anipulation  |
\*---------------------------------------------------------------------------*/
FoamFile
{
    version     2.0;
    format      ascii;
    class       volVectorField;
    location    "4.6";
    object      U;
}
// * * * * * * * * * * * * * * * * * * * * * * * * * * * * * * * * * * * * * //

dimensions      [0 1 -1 0 0 0 0];

internalField   nonuniform List<vector> 
5101
(
(0.000669473 0.0010216 0)
(0.000857701 0.00131069 0)
(0.000751925 0.00116811 -9.66157e-24)
(0.00086008 0.00141781 -1.43252e-24)
(0.000728215 0.00112233 -1.46347e-21)
(0.000688932 0.00122879 7.76797e-22)
(0.000731903 0.00118134 1.01447e-22)
(0.000478314 -3.1989e-05 -5.15482e-24)
(0.000712448 0.00121262 1.68186e-24)
(0.000654396 0.00107027 0)
(0.00061225 0.00111366 -9.37906e-22)
(0.000688286 0.00122941 9.42991e-22)
(0.000691259 0.00121288 -1.4645e-23)
(0.000624465 0.00124686 -4.1669e-22)
(0.000781567 0.00149185 9.66555e-22)
(0.000874445 0.00146279 1.26821e-21)
(0.000851653 0.00152186 0)
(0.000919019 0.00141076 0)
(0.000860056 0.0014379 3.03949e-21)
(0.000340533 0.000779846 0)
(0.000768603 0.00123986 0)
(0.000689254 0.00123572 4.16752e-22)
(0.000872275 0.00131527 9.04562e-24)
(0.000691593 0.00121787 6.58857e-22)
(0.000761291 0.00134808 7.34287e-22)
(0.000626012 0.00125396 1.77647e-21)
(0.000836945 0.00147028 1.44173e-21)
(0.000776513 0.00136806 0)
(0.000614749 0.00110739 -1.55098e-21)
(0.000600918 0.00111833 3.046e-21)
(0.00086633 0.00143708 1.39002e-21)
(0.000644941 0.00101306 -1.00241e-23)
(0.000693557 0.00118547 -5.73193e-22)
(0.000510784 0.000790832 -2.02671e-21)
(0.000803419 0.0012213 -1.54788e-21)
(0.00046088 0.000772759 1.78074e-21)
(0.000696531 0.00133224 1.13213e-21)
(0.000758483 0.00126296 0)
(0.000618437 0.00108404 1.45705e-21)
(0.00103324 0.000403815 7.51104e-22)
(0.000892762 4.78324e-05 2.00108e-22)
(0.000710602 0.00121884 -2.05038e-22)
(0.000871029 0.00145826 0)
(0.000858612 0.00147078 1.13351e-21)
(0.000637341 0.00109525 -9.84413e-22)
(0.000836548 0.00128081 8.32261e-22)
(0.000651694 0.00110902 9.29933e-24)
(0.000635335 0.00103736 4.81615e-22)
(0.000667358 0.00117083 1.36605e-23)
(0.00078534 0.00137969 -8.43866e-22)
(0.00083643 0.00144459 0)
(0.000664294 0.00132349 -1.7701e-21)
(0.000766057 0.00123285 0)
(0.000720379 0.00120682 1.28744e-22)
(0.00071843 0.000148289 -1.60553e-24)
(0.000612219 0.00110574 0)
(0.000487237 0.000883477 2.48483e-22)
(0.000200273 0.000619053 3.36976e-22)
(7.83405e-05 0.000346091 3.18065e-22)
(0.000569644 0.00102236 3.81755e-22)
(0.000730343 0.00119407 -2.95836e-22)
(0.00090099 0.00139389 0)
(2.80678e-05 8.01783e-06 0)
(0.000798121 0.00146015 0)
(0.000786347 0.00135455 -1.54217e-21)
(0.000558399 0.00109197 -2.21062e-21)
(0.000708724 0.00117299 4.04767e-22)
(0.000815074 0.0015041 0)
(0.000711518 0.00126325 1.122e-21)
(0.00096469 5.96969e-05 1.24848e-21)
(0.000689059 0.00122889 -7.81852e-22)
(0.000295218 0.000781054 2.17248e-21)
(5.385e-05 0.000206878 -1.69205e-21)
(0.000757177 0.00134445 -2.26132e-21)
(0.00060268 0.0010634 5.68906e-22)
(0.000833232 0.00080108 1.27446e-21)
(0.000664452 0.00102735 4.52413e-22)
(0.000401134 0.000766858 0)
(0.000247678 0.000530112 -7.62305e-22)
(0.00068962 0.00122599 -3.53372e-22)
(4.08709e-05 0.000202378 2.05716e-21)
(0.000595967 0.00109446 3.27123e-22)
(0.000591852 0.00105653 0)
(0.000632421 0.00113771 -2.49685e-21)
(0.000624662 0.00020409 3.98186e-21)
(0.000744051 0.00130375 4.30084e-22)
(0.000653732 0.00111855 -4.55401e-22)
(0.000859375 0.00141632 5.35832e-22)
(0.000600201 0.00114032 2.70359e-21)
(0.000870649 0.00149783 5.93907e-22)
(0.000535907 0.000769734 -6.7505e-22)
(0.000693014 0.00119252 0)
(0.000734371 0.00132051 -2.17766e-21)
(0.000795248 0.00138408 -4.4429e-22)
(0.000752729 0.00130565 -2.08194e-21)
(0.00050283 0.000954433 0)
(0.000467346 0.000743988 -3.54924e-21)
(0.000646916 0.00112262 -9.62151e-22)
(6.61415e-05 0.000277757 0)
(0.000755032 0.00140357 -7.89255e-22)
(0.000795298 0.00138589 1.7169e-21)
(0.00101012 0.000235263 -2.55207e-21)
(0.000710131 0.00123624 -4.27566e-22)
(0.000706148 0.00117806 0)
(0.000612245 0.00107528 1.19061e-21)
(0.000281704 0.000714224 -2.32318e-21)
(0.000637655 0.00111029 7.1395e-22)
(0.000733829 0.00114018 -1.11777e-21)
(0.000573522 0.000486482 0)
(0.000398734 0.000748626 -2.75076e-23)
(0.000573398 0.000998661 0)
(0.000575386 0.000999946 0)
(0.00080538 0.00140294 0)
(0.000634247 0.0011865 0)
(0.000669866 0.00112424 3.56608e-22)
(0.000540077 0.000807528 1.48393e-21)
(0.00051733 0.000749244 5.58173e-22)
(0.000659019 0.00110252 2.26741e-22)
(0.000506531 0.000876607 2.33222e-21)
(0.000596226 0.00103595 3.09978e-22)
(0.00071084 0.00123511 2.44373e-22)
(0.000349325 0.000624488 5.937e-22)
(0.00012108 0.000719924 1.34115e-21)
(0.000647241 0.00104233 1.18428e-21)
(0.000553287 0.000985283 5.21038e-22)
(3.03727e-05 6.53699e-06 1.8277e-22)
(0.000625155 0.00107614 -6.17361e-22)
(0.00069927 0.00119725 4.28052e-22)
(8.0396e-05 0.000190881 -1.47127e-21)
(0.000699716 0.0010416 0)
(0.00075001 0.00130359 2.51772e-21)
(0.00065924 0.00114501 0)
(0.000643351 0.00118955 3.3913e-21)
(0.000347031 0.000140345 -2.68157e-21)
(0.000647351 0.00113038 2.23831e-21)
(0.000850823 0.00153948 0)
(0.00109847 0.00013874 2.9999e-21)
(0.000586414 0.00110363 5.48648e-21)
(0.00056915 0.00100237 1.00626e-22)
(0.000442595 0.00057174 0)
(0.00045252 0.000898847 5.03568e-21)
(0.000448166 0.000978365 1.7322e-21)
(0.00100824 0.000364464 0)
(0.000531487 0.000895739 -1.13565e-21)
(0.000413388 0.000731497 -3.64981e-23)
(0.000655534 0.00123103 -6.66543e-22)
(0.000278675 0.000478381 0)
(0.000706364 0.00122912 1.88824e-23)
(0.000501679 0.00103192 -3.09556e-21)
(0.000281096 0.000660788 -2.53193e-21)
(0.000645875 0.00116629 3.85736e-21)
(0.000811211 1.95994e-05 -2.84933e-21)
(0.000750198 0.00120434 0)
(0.00066332 0.00114607 -3.5061e-22)
(0.000555068 0.00106672 0)
(0.000851918 0.00139811 -3.51311e-21)
(0.000572535 0.00102919 6.59984e-22)
(0.000835237 0.000821882 -1.65309e-21)
(0.000624299 0.00108521 0)
(0.000625119 0.00108562 7.12537e-22)
(0.000652905 0.00115617 5.07062e-23)
(0.000337439 0.000730458 0)
(0.000653215 0.00112265 -5.29236e-22)
(0.000649113 0.00120161 -1.54122e-21)
(0.000580818 0.00110059 -1.32138e-21)
(0.000818333 0.00141731 0)
(0.000508969 0.00087374 -5.67094e-22)
(0.000589435 0.00109124 0)
(0.000867074 0.0014417 4.24878e-22)
(0.000638632 0.000729988 4.67319e-21)
(0.000586851 0.000998362 7.0987e-24)
(0.000617328 0.0010571 -7.12897e-22)
(0.000626933 0.00103591 0)
(0.000641043 0.00118436 1.62765e-21)
(0.000628614 0.00112246 4.70193e-22)
(0.000747867 0.00122959 9.66019e-22)
(0.000710722 0.00123449 5.01261e-22)
(0.000803767 7.14065e-05 -1.02242e-21)
(0.000490436 0.000857869 -7.70783e-22)
(0.000804099 0.00125827 0)
(0.000606828 0.00112615 2.72489e-21)
(0.000620745 0.00103615 5.4693e-23)
(0.000630549 0.00102155 1.86776e-21)
(0.000597182 0.000848315 4.02168e-21)
(0.000391899 0.000720258 -5.63207e-21)
(0.000621975 0.00106467 -1.5382e-21)
(0.000740291 0.000334982 2.89953e-21)
(0.00065452 0.00109607 8.74191e-22)
(0.000676569 0.0011794 -2.28088e-21)
(0.00064788 0.00112348 1.39177e-21)
(0.000577116 0.00110288 1.38782e-21)
(0.000721056 0.00124221 0)
(0.000623584 0.000774788 3.80017e-24)
(0.000862654 0.000879035 -4.8265e-21)
(0.000733423 0.00124171 4.98439e-22)
(0.000864079 0.00150689 -2.01874e-22)
(0.000322059 -0.000333774 7.6926e-22)
(0.000518236 0.0012049 9.0449e-22)
(0.000575077 0.000994961 1.53322e-22)
(0.000682672 0.00124463 -5.44136e-23)
(0.00050767 0.000877285 -1.30763e-21)
(0.00054292 0.00106393 -1.40247e-21)
(0.000794589 0.00150614 -3.02703e-21)
(0.000799891 0.000810337 -1.63057e-21)
(0.000622993 0.000347621 4.35597e-21)
(0.000711601 0.00123753 8.75923e-22)
(0.000964195 0.00106199 1.40975e-21)
(0.000632842 0.00115156 4.51156e-22)
(0.000964797 0.000142439 -6.20057e-21)
(0.000710339 0.00123442 -4.02536e-22)
(0.000765567 0.00141675 8.49359e-22)
(0.000641165 0.00116845 2.04184e-22)
(0.000871389 0.00150608 0)
(0.000819527 0.000606645 -2.99228e-21)
(0.00071206 0.00124067 0)
(0.000565995 0.000990269 2.2791e-22)
(0.000582221 0.00107647 3.38529e-21)
(0.000520565 0.000755658 0)
(0.000739912 0.00129114 -2.39124e-22)
(0.000556915 0.000935553 8.70383e-23)
(0.000705134 0.0012494 -1.96503e-22)
(0.000634241 0.00103857 -5.91079e-22)
(0.000616119 0.00101915 -4.41997e-22)
(0.0005931 0.00105641 1.42557e-21)
(0.000456875 0.00129138 -1.20404e-21)
(0.000979778 4.05745e-05 5.05216e-22)
(0.000649382 0.00111318 1.17766e-21)
(0.000576204 0.00106705 -5.13564e-21)
(0.000708933 0.00123385 -5.89526e-22)
(3.31188e-05 2.54915e-06 1.45393e-21)
(0.000118694 0.000757211 1.28763e-21)
(0.000691733 0.00126627 -3.78115e-22)
(0.000686412 0.00121626 7.80049e-22)
(0.000713495 0.00123886 8.79053e-22)
(0.00049029 0.001003 7.4475e-22)
(0.000643583 0.000277031 -2.05884e-22)
(3.33511e-05 3.73298e-06 -2.16751e-23)
(0.000545072 0.000918772 -6.28593e-22)
(0.000625851 0.0010896 0)
(0.000680397 0.0011744 0)
(0.000707082 0.0012332 0)
(3.7466e-05 2.30222e-06 -2.97921e-21)
(7.10498e-05 0.000119233 3.54279e-25)
(0.000858049 0.00153726 0)
(0.000606119 0.00105821 -1.53258e-21)
(0.000570904 0.00099103 3.83028e-22)
(0.000613096 0.00108963 -4.54764e-23)
(0.000607956 0.000938068 -1.21328e-21)
(0.000671263 0.00116461 -3.33392e-21)
(0.000792264 0.00138286 0)
(0.000570764 0.000991209 3.29464e-21)
(0.000767784 0.00135257 -5.04075e-23)
(0.000730406 0.0012726 5.12836e-23)
(0.000607645 0.00105391 -1.11611e-21)
(0.000584407 0.00103796 -1.83687e-21)
(0.000621982 0.00108757 -1.66163e-21)
(0.000615341 0.00106941 -1.65653e-21)
(0.000642102 0.00112643 0)
(0.000728823 0.00129522 -6.75133e-22)
(0.000991308 0.000335928 -7.24081e-25)
(0.000486941 0.000851819 0)
(0.000717653 0.00125879 9.84135e-22)
(0.000615056 0.00107661 -3.03734e-22)
(0.00063372 0.00109608 -5.20154e-24)
(0.000626099 0.00107492 -3.32239e-25)
(0.000377532 0.000647714 -1.80908e-21)
(0.000647095 0.00112948 3.24433e-22)
(0.000692095 0.00123835 -9.21318e-22)
(0.000773545 0.00135397 0)
(6.48937e-05 0.000663384 0)
(0.000641435 0.00114154 -2.89456e-21)
(0.000663998 0.00117723 -7.02134e-22)
(0.00107541 0.000830024 3.34844e-21)
(0.00085171 0.00147282 0)
(0.000266761 0.00040418 -3.14507e-21)
(0.000855676 0.00109597 -2.15593e-21)
(0.000528257 -0.000489926 -1.61195e-21)
(0.000525922 0.000784176 0)
(0.000704598 0.00123114 -8.34489e-22)
(0.000704907 0.00122738 -1.80162e-22)
(0.000596008 0.000999887 -9.64873e-22)
(0.00069669 0.00103615 0)
(0.000635382 0.00111702 0)
(0.000739996 0.0014966 -2.07865e-21)
(0.00056495 0.000978992 -4.70103e-21)
(0.000689006 0.00126323 1.27385e-21)
(0.000597182 0.00111016 -4.8847e-21)
(0.000502582 0.000867092 6.05048e-22)
(0.000813905 0.00142505 6.49274e-22)
(0.00045362 0.00109364 -2.55476e-21)
(0.000585188 0.00101867 -2.09356e-21)
(0.000522713 0.00113166 -2.97251e-22)
(0.000608314 0.00106726 2.09704e-21)
(0.000674696 0.000630488 4.54771e-21)
(0.000500986 0.000874791 1.27205e-22)
(3.63003e-05 3.17216e-06 -4.28136e-23)
(0.000687643 0.00113709 -2.58051e-23)
(0.000840666 0.00146327 -5.19948e-22)
(0.000713302 0.00122162 9.74654e-22)
(0.000608007 0.00105531 3.54548e-21)
(0.000996575 0.00036076 -5.4816e-22)
(0.000118206 0.000777675 8.50075e-22)
(0.000746599 0.00130549 -2.62382e-21)
(0.000691129 0.00122481 -1.8501e-24)
(0.00048909 0.000940104 6.6691e-23)
(0.000583728 0.00114139 8.76554e-22)
(0.000624596 0.00103316 -9.5271e-22)
(0.000268868 0.000729499 1.55029e-21)
(0.0006725 0.00113554 1.97187e-23)
(0.000663995 0.00115218 -2.48902e-21)
(0.000671452 0.00110983 -7.94917e-22)
(0.000718644 0.00129017 -4.68142e-23)
(0.000893952 0.00157178 0)
(0.000841473 0.00146722 6.88907e-22)
(0.000504659 0.000868373 2.98619e-22)
(3.66233e-05 1.75054e-06 0)
(0.000624699 0.0010182 -1.01448e-23)
(0.000259881 0.000885394 -2.18644e-22)
(0.000502175 0.000871765 2.72462e-21)
(0.000917529 0.000561379 2.47364e-21)
(0.000687787 0.00122626 -2.62299e-21)
(0.000623919 0.00129829 -1.06609e-21)
(0.000555887 0.000770189 8.39536e-22)
(0.000712712 0.00124215 -1.09457e-21)
(0.000867521 0.00144326 3.67944e-22)
(0.000832058 0.00145828 0)
(0.000536396 0.000497347 0)
(0.000673767 0.00117549 2.65073e-21)
(0.000407437 0.00104946 -2.48156e-21)
(0.000712269 0.0012236 3.60907e-22)
(0.000897527 0.00159774 -9.82045e-23)
(0.000749426 0.00129697 0)
(0.000964369 0.000396235 -1.57395e-21)
(0.000292975 0.000766051 2.5651e-23)
(0.000883236 0.0014657 3.32531e-22)
(0.000317962 0.000114369 -2.62559e-21)
(0.000641564 0.00111642 0)
(0.000717401 0.00119569 0)
(0.000595164 0.00107152 6.1898e-21)
(0.000652535 0.0011335 -3.14736e-21)
(0.000665429 0.00122773 5.7493e-22)
(0.000747997 0.00129566 0)
(0.000735898 0.00123181 3.14992e-22)
(0.000725081 0.00129734 9.57749e-24)
(0.000740461 0.00128892 -5.19886e-22)
(0.000636215 0.00107021 2.0456e-21)
(0.000532044 0.000867857 -7.80176e-22)
(0.000615875 0.00102799 6.60121e-22)
(0.000820295 0.00145054 1.33234e-21)
(0.000548878 0.000454803 -9.37497e-22)
(0.000648409 0.000543443 -1.32487e-21)
(0.00046499 0.000858796 -8.86184e-22)
(0.000634299 0.00109522 0)
(0.000936958 0.00156537 -1.64439e-22)
(0.00056727 0.00104798 -2.65169e-22)
(0.000624913 0.000839772 -1.5553e-22)
(0.000523608 0.000803097 0)
(0.00065761 0.00121684 3.13085e-23)
(0.00071233 0.000817002 0)
(0.000860088 0.00155591 -7.46934e-23)
(3.64341e-05 0.000170248 3.49084e-21)
(0.000877681 0.00150654 5.17317e-22)
(0.000893701 0.000173675 1.84743e-21)
(0.000728317 0.00119222 0)
(0.000468702 0.000860357 -5.95242e-22)
(0.00083924 0.00147793 -7.97915e-22)
(0.000593136 0.00111584 -1.4361e-21)
(0.000566282 0.00110566 2.94546e-22)
(0.00028273 0.000689899 -1.83684e-21)
(0.000571722 0.000981926 -7.38853e-22)
(0.000749151 0.000947266 -1.15779e-21)
(0.000450907 0.000907046 2.6209e-21)
(0.000617015 0.00111897 1.37419e-21)
(0.000796338 0.00139374 -9.95366e-22)
(0.000580777 0.00106848 1.22373e-21)
(0.000580667 0.00107047 -3.45668e-21)
(0.000483648 0.000914675 1.44181e-21)
(0.000820264 0.00147845 3.78581e-22)
(0.000587411 0.00104513 7.12837e-22)
(0.000770239 0.00136748 2.46971e-21)
(0.00062641 0.00112817 1.33113e-23)
(0.000599934 0.00109222 3.06893e-21)
(0.000593227 0.00105913 -1.55308e-21)
(0.00060744 0.00106689 0)
(0.000735149 0.00128997 -4.35062e-22)
(0.000813379 0.00145849 -1.32121e-23)
(0.000583675 0.00103927 0)
(0.00077529 0.001354 0)
(0.000631571 0.00111487 2.92923e-21)
(0.000732825 0.00127969 -4.07168e-22)
(0.000599358 0.00107815 -2.57767e-21)
(0.000605268 0.00106336 -2.09294e-21)
(0.000804409 0.00145147 -2.84244e-22)
(0.000777177 0.0013485 -1.06425e-21)
(0.000732113 0.0012738 -7.0231e-22)
(0.000775453 0.0013469 9.63506e-22)
(0.000770743 0.00134784 8.67429e-22)
(0.000839745 0.00145709 2.15373e-21)
(0.000617346 0.000305975 -2.34845e-21)
(0.000609135 0.00103659 1.4323e-21)
(0.000663746 0.00119349 -3.57755e-21)
(0.000351733 0.000637761 8.46425e-22)
(0.000722274 0.00122866 -5.61092e-22)
(0.000648481 0.00111506 1.11508e-21)
(0.000690054 0.00123125 -1.11215e-21)
(0.00089417 0.00154297 0)
(0.00082516 0.00146064 0)
(0.000711289 0.00077578 2.37467e-21)
(0.000626355 0.00107216 2.2733e-21)
(0.000515656 0.000194502 -5.4475e-21)
(0.000369735 0.000675778 0)
(0.000715243 0.00123347 5.44689e-22)
(0.00098272 0.00031371 -3.88342e-24)
(0.000442868 0.000713306 -2.0841e-21)
(0.000856877 0.00148863 1.95968e-22)
(0.000882734 0.00154114 -1.81153e-22)
(0.000596179 0.00112069 2.76197e-23)
(0.00061213 0.00105551 -7.36004e-22)
(2.16329e-05 -2.86666e-05 0)
(0.000459016 0.000895361 2.62807e-22)
(0.000450826 0.000881794 -2.969e-22)
(0.000511386 0.000881369 -2.68948e-21)
(0.000504085 0.000909936 2.86892e-22)
(0.000611739 0.00118633 -2.97461e-23)
(0.000660835 0.00116166 -1.31147e-21)
(0.000747039 0.00129571 -1.6404e-22)
(5.52451e-05 -3.38027e-05 5.91513e-25)
(0.00062682 0.00103336 0)
(0.000688985 0.00120839 0)
(0.000587889 0.00108005 -2.17521e-21)
(0.000864942 0.00149028 4.59227e-22)
(0.000572998 0.00107893 2.84156e-23)
(0.00061733 0.001176 0)
(0.00125352 0.00128007 -1.24624e-21)
(7.55118e-05 0.00046105 7.4394e-24)
(0.000574148 0.000978275 7.73381e-22)
(0.00125338 0.00050306 0)
(0.000552435 0.000894683 0)
(0.000545485 0.000880088 -1.06021e-21)
(0.000610051 0.00104628 -1.30829e-22)
(0.000675297 0.00112299 -3.40018e-22)
(0.000666991 0.00110296 0)
(0.000809301 0.0015337 6.43452e-23)
(0.000772407 0.00138698 -1.92588e-21)
(0.000728521 0.00129638 -6.91809e-22)
(0.000590376 0.00105384 -1.4698e-21)
(0.00039319 0.000675662 0)
(0.00090143 0.00158544 9.571e-23)
(0.00074181 0.00129344 -2.04831e-21)
(0.000634895 0.00112454 0)
(0.00059064 0.00107688 -1.22711e-21)
(0.000602083 0.00109383 -9.41258e-22)
(0.000611672 0.00107271 -1.8803e-21)
(0.000642 0.00113623 0)
(0.000636814 0.00116431 -1.14157e-21)
(0.000552776 0.0010438 -2.32973e-22)
(8.99963e-05 0.000521037 -9.37475e-24)
(0.000502922 0.00125744 6.68871e-22)
(0.00157801 0.000478491 1.07515e-21)
(0.000740022 0.00128777 5.64333e-22)
(0.000702209 0.00123842 -1.04598e-21)
(0.000727278 0.0011858 1.18495e-21)
(0.000345648 0.000807984 -2.63453e-21)
(0.000736669 0.00144864 2.94502e-23)
(0.000567602 0.000479632 0)
(0.000455135 0.000840127 -9.58275e-22)
(0.000795064 0.00138365 0)
(0.000748583 0.00130412 5.99533e-22)
(0.000617376 0.00106414 -3.54257e-22)
(0.000895102 0.00158466 -9.41307e-23)
(0.000620659 0.00110415 -4.88148e-23)
(0.000610965 0.00108546 -2.13059e-21)
(0.000401978 0.000591377 -1.11072e-21)
(0.000615882 0.00113432 2.44216e-21)
(0.000689385 0.00114924 0)
(0.00013694 0.000366938 -1.09561e-21)
(0.00071145 9.86168e-05 3.06351e-24)
(0.000606659 0.000513878 -5.15133e-21)
(0.000712765 0.00123788 9.76948e-22)
(0.00073412 0.00118908 0)
(0.000738825 0.0012951 2.12668e-22)
(0.000739362 0.00128724 6.04638e-22)
(0.000984463 0.000169966 -1.7644e-21)
(0.00046173 0.000557702 -2.54498e-21)
(0.000444168 0.000742202 -2.70729e-21)
(0.000832532 0.00153593 8.97959e-22)
(0.000616382 0.00107582 -1.81754e-22)
(0.000692773 0.00126482 -1.75468e-21)
(0.000627517 0.00103468 -1.97544e-21)
(0.000801394 0.00133771 9.81607e-22)
(0.000730572 0.00118576 -5.30276e-22)
(0.00015456 0.000729624 0)
(0.000723415 0.00124146 -1.6821e-23)
(0.000614633 0.00127681 -3.96609e-23)
(0.000422579 0.000806019 -9.85247e-22)
(0.000842731 0.00145597 -1.80898e-21)
(0.000353415 0.000653394 1.85439e-22)
(0.000604156 0.0010617 3.28046e-22)
(0.000169715 0.000853107 0)
(0.000646668 0.00107715 -4.24359e-22)
(3.79307e-05 0.000232558 0)
(0.000651582 0.00110675 -1.01836e-21)
(0.000676696 0.00113847 -9.75175e-22)
(0.00067377 0.00116842 -7.53529e-22)
(0.000823273 0.00144601 1.24761e-22)
(0.000714308 0.00117865 5.89803e-22)
(0.00107567 0.000170214 -1.43109e-23)
(0.00069111 0.00119941 0)
(0.000622782 0.000997385 -5.94234e-22)
(0.000748515 0.00124685 0)
(0.000414674 0.000740067 2.51089e-21)
(0.0006465 0.00111113 2.35854e-21)
(0.000709539 0.00128314 -3.61456e-22)
(0.000668527 0.00116166 2.13001e-21)
(0.000575473 0.00103565 3.28495e-22)
(0.000586503 0.00102993 1.15408e-21)
(0.000593147 0.00103583 9.55866e-22)
(0.000726029 0.00127956 -5.16542e-23)
(0.000599852 0.00104122 -5.502e-22)
(0.000658377 0.00116757 8.62563e-22)
(0.000646567 0.00112063 0)
(0.00051009 0.00119339 2.04614e-24)
(0.000700479 0.00123811 1.83296e-21)
(0.00091234 0.00155916 -4.78866e-22)
(0.00072023 0.00125259 0)
(0.000427944 0.000688033 1.23774e-21)
(0.000422028 0.000674841 0)
(0.000593714 0.00107418 -7.70092e-22)
(0.000576955 0.000270397 1.40637e-21)
(0.000168935 0.000724089 1.89572e-21)
(0.000519159 0.00104066 5.73702e-22)
(0.000639115 0.00106597 1.24815e-22)
(0.000737292 0.00128696 0)
(0.000625603 0.00117312 2.51131e-22)
(0.000602627 0.00106712 1.36332e-21)
(0.00065518 0.00119998 -1.6725e-21)
(0.000649013 0.00115671 -2.30832e-21)
(0.000315847 0.000621775 4.62705e-22)
(0.000815512 0.00139795 -1.09648e-21)
(0.000650752 0.000315007 0)
(0.000681418 0.00118549 1.77397e-22)
(0.00062682 0.001114 6.92375e-22)
(0.000611143 0.00105737 2.50946e-21)
(0.000423457 0.000724818 -1.10508e-21)
(0.000417781 0.000718408 -6.84452e-22)
(0.000419775 0.000713077 0)
(0.00042662 0.000706886 5.08786e-22)
(0.000423758 0.000701954 -5.96488e-22)
(0.000383369 0.000625327 0)
(0.000410771 0.000701823 8.52548e-22)
(0.000408595 0.000679618 1.06873e-21)
(0.000420571 0.000684252 2.62932e-21)
(0.000410384 0.000661777 3.67627e-21)
(0.000469316 0.000748867 -9.19767e-22)
(0.000446603 0.000731294 -4.16853e-23)
(0.000462912 0.000826719 2.1566e-21)
(0.000633951 0.0011044 8.16503e-22)
(0.000730421 0.00125391 -7.86657e-22)
(0.000648884 0.00111528 -9.80171e-22)
(0.000737579 0.00132432 1.17476e-21)
(0.000322437 0.000608043 0)
(0.000324997 0.000882299 1.81227e-21)
(0.000578132 0.000337451 -1.99708e-21)
(0.000704769 0.00127838 1.01768e-21)
(0.000366433 0.00121482 -1.29999e-21)
(0.00083205 0.00144936 -2.26664e-22)
(0.00072766 0.00131464 -2.96136e-22)
(0.000319105 0.000541491 4.27997e-21)
(0.000747622 0.0012665 8.28003e-22)
(0.000618403 0.00104463 -6.0629e-22)
(0.000845796 0.00146968 -3.58578e-22)
(0.000567581 0.00100407 1.62214e-23)
(0.000759811 0.00131105 1.20709e-21)
(0.00072885 0.00118462 1.13344e-21)
(0.000327361 0.00109691 -8.55386e-22)
(0.000425255 0.000781987 -3.21562e-22)
(0.000745185 0.00129546 -1.58827e-22)
(0.000570144 0.00101995 0)
(0.000596868 0.000872257 -2.07353e-21)
(0.000569915 0.00118096 -9.09637e-22)
(0.000527743 0.000436019 0)
(0.000690317 0.0012014 4.63928e-22)
(0.000864682 0.0015724 6.08264e-22)
(0.000896776 0.00160933 -7.1786e-22)
(0.000619467 0.00110526 0)
(0.000384295 0.000982667 9.2828e-22)
(0.000803322 9.96437e-05 2.00191e-21)
(0.000661092 0.00104219 -1.0128e-21)
(0.000801926 0.00142852 -4.8696e-22)
(0.000509315 0.000849336 0)
(0.00047958 0.000810943 -5.14497e-23)
(0.000424859 0.000717254 3.04254e-21)
(0.000400177 0.000684117 -5.08545e-21)
(0.000415494 0.000690984 1.68217e-21)
(0.000407423 0.00067253 -1.15889e-23)
(0.000502045 0.000850646 3.25308e-22)
(0.00042403 0.000717139 3.3673e-21)
(0.000450699 0.000737806 -3.72432e-23)
(0.000408187 0.000656101 5.58903e-22)
(0.000296056 0.000741297 1.41668e-24)
(0.000558966 0.00100496 5.66428e-22)
(0.00051189 0.000767382 -9.98317e-22)
(0.000868074 0.001398 4.39977e-21)
(0.000354119 0.000701769 2.80235e-24)
(0.000735517 0.0012863 8.57119e-22)
(0.000800984 0.0013487 1.00947e-21)
(0.00043698 0.000700421 3.42773e-21)
(0.000464428 0.000845942 -1.26011e-21)
(0.000529986 0.000873769 0)
(0.000686666 0.00118892 3.22771e-22)
(0.000681757 0.00115618 2.53673e-22)
(0.00042885 0.000687832 -3.5675e-21)
(0.000427449 0.000769851 3.3075e-22)
(9.54072e-05 -9.54838e-05 -3.7168e-22)
(7.69598e-05 0.000114875 1.50999e-21)
(0.000700276 0.00147488 -1.16744e-21)
(0.000649722 0.000486561 0)
(1.57205e-05 6.45308e-05 0)
(0.000419417 0.000800791 5.14198e-22)
(0.000667094 0.00117503 -1.98726e-21)
(0.000632374 0.0011234 0)
(2.65779e-05 1.37564e-05 0)
(0.000729639 0.00118633 9.22727e-24)
(0.000678183 0.000786587 2.2881e-22)
(0.00064639 0.00108703 0)
(0.000430246 0.000696561 1.08304e-21)
(0.000472491 0.00100573 -1.81598e-21)
(0.000367188 0.000665297 0)
(2.00784e-05 0.00110176 -1.61185e-21)
(0.000660127 0.00110806 1.14862e-21)
(0.000813861 0.00141327 5.52947e-22)
(0.000786617 0.00136971 -1.57278e-21)
(0.000748281 0.00132591 1.54661e-21)
(0.000911019 0.00154641 3.45853e-22)
(0.000808499 0.00141055 8.57984e-22)
(-0.00028711 0.000462732 0)
(0.000443842 0.000742106 -2.3265e-21)
(0.000419256 0.000720324 -1.48078e-21)
(0.000390237 0.000661369 1.18882e-21)
(0.000482753 0.000805891 -5.76002e-22)
(0.000388675 0.00066616 0)
(0.000390587 0.000660711 0)
(0.000399735 0.000652034 -6.95337e-22)
(0.000489092 0.000804246 -6.13229e-22)
(0.000671216 0.00102574 0)
(0.000357237 0.000659828 1.55874e-21)
(0.00085781 0.00143572 -1.5578e-21)
(0.000583566 0.00101366 -1.48956e-21)
(0.000733226 0.00121291 8.69251e-22)
(0.000770591 0.00127894 -4.58827e-22)
(0.000297737 0.000701096 0)
(0.000794099 5.07308e-05 -2.33263e-21)
(0.00083396 0.00147045 2.12284e-21)
(0.000739145 0.00128114 -1.8823e-22)
(3.471e-05 5.37537e-07 -1.31421e-21)
(0.000739943 0.00109327 -2.88151e-21)
(0.000619082 0.00106726 -3.5105e-23)
(0.000645089 0.00122992 2.78033e-22)
(0.000798463 0.00141575 0)
(9.46717e-05 -0.000160782 0)
(0.000202156 0.000588424 -8.01756e-22)
(0.000734327 0.00128511 1.8271e-22)
(0.000661434 0.00117 3.98498e-21)
(0.000641456 0.00112792 -7.79777e-22)
(0.000452178 0.000911742 -1.15575e-21)
(0.000599466 0.00103897 -5.89945e-22)
(0.000726757 0.00127503 1.01771e-21)
(0.000447534 0.00083865 -8.67145e-22)
(0.000445571 0.00084238 -1.34619e-21)
(0.000715198 0.00123147 1.08327e-21)
(0.000564874 0.00117092 3.23304e-21)
(0.000664014 0.00118676 -1.83857e-21)
(0.000795378 0.00131884 -1.03867e-21)
(0.000641649 0.00110504 -7.50558e-22)
(0.000729685 0.00128835 0)
(0.000715683 0.00128532 -3.62393e-23)
(0.000594424 0.00103951 5.37385e-22)
(0.00058912 0.00103105 0)
(0.000573695 0.00103325 -1.05093e-21)
(0.000619532 0.00115048 0)
(0.000586339 0.00105548 2.85923e-21)
(0.00062746 0.00111276 -1.36475e-21)
(0.000609831 0.00108766 0)
(0.000169832 0.000544513 -5.88462e-21)
(0.00126035 0.000909523 -1.46662e-21)
(0.00048975 0.000902712 -5.68998e-22)
(0.000406575 0.000415885 0)
(2.7372e-05 5.17118e-05 0)
(0.000605095 0.00106612 -2.86825e-21)
(0.000653764 0.00119177 -1.57923e-21)
(0.000629664 0.00111711 -8.06968e-22)
(0.000792095 0.00134712 -4.64132e-22)
(0.000625553 0.0011225 -6.78634e-22)
(0.000883496 0.0015835 -3.41659e-22)
(0.000550778 0.00103294 -1.47977e-21)
(0.000807178 0.00140776 -7.91667e-22)
(0.00065233 0.0011499 2.24425e-22)
(0.000605532 0.000928026 0)
(0.000754957 0.00135268 -2.85362e-22)
(0.00057122 0.00105172 -4.09957e-22)
(0.000814767 0.00149162 -8.22788e-22)
(0.000640421 0.0011184 -1.56671e-22)
(0.000600311 0.00106284 -4.17056e-22)
(0.000559603 0.000690568 5.45298e-23)
(0.000656883 0.00115473 -2.24694e-21)
(0.00055057 0.00100851 0)
(0.00071424 0.00124539 -9.72774e-24)
(0.000527976 0.00117749 -2.1027e-23)
(0.000780741 0.0014816 1.55067e-21)
(0.0006489 0.00116668 -4.14211e-22)
(0.000517206 0.000934524 -8.58108e-22)
(3.44147e-05 7.75282e-06 1.2655e-21)
(0.000681277 0.00117251 -4.67716e-22)
(0.000881285 0.00152557 -2.16976e-22)
(0.000512559 0.000888711 -1.20877e-21)
(0.000402493 0.00110521 -2.26423e-21)
(0.000635592 0.00103798 -6.39037e-22)
(0.000709363 0.00124049 1.10207e-21)
(0.000751745 0.00130195 -1.14971e-22)
(0.000664481 0.00111144 6.27716e-22)
(0.000623894 0.00109878 1.94268e-22)
(0.000648509 0.00116844 2.58663e-21)
(0.000647432 0.0011246 -1.73242e-21)
(0.000583233 0.00104745 -5.70111e-22)
(0.000801461 0.00147166 -2.20217e-21)
(0.000232857 0.000749336 1.51377e-21)
(0.000761621 0.00134886 -4.18372e-22)
(0.000728725 0.00128204 0)
(0.000643785 0.00112671 1.03819e-21)
(0.000603823 0.00105911 1.14934e-21)
(0.000771786 0.00134834 3.80554e-22)
(0.000615011 0.00106785 2.64334e-21)
(0.000616392 0.00108549 -2.60535e-21)
(0.000827722 0.00145361 8.83047e-22)
(0.000915216 0.00155261 -4.69206e-22)
(0.000613376 0.0010364 -2.98358e-21)
(0.000639742 0.00108522 2.39267e-21)
(0.00042928 0.000809811 0)
(0.000773959 0.00136027 -1.81936e-21)
(0.000722741 0.00128052 3.07166e-23)
(0.00107342 1.05713e-05 1.11074e-21)
(0.00100578 0.0006912 1.45944e-21)
(0.000834313 0.00142926 1.99048e-22)
(0.000732394 0.00118855 -5.31002e-22)
(0.000603902 0.00102906 -8.83275e-22)
(0.000634729 0.00115283 3.86766e-22)
(0.000586078 0.00103447 0)
(0.000635011 0.00137769 -3.11161e-21)
(0.000776433 0.00137061 8.55577e-22)
(0.000907271 0.00156055 -8.37034e-24)
(0.00051638 0.00088174 1.32433e-21)
(0.000266062 9.75794e-05 0)
(0.000838235 0.0014115 1.96442e-21)
(0.000489325 0.000802104 2.40754e-22)
(0.000911491 0.0015417 -6.86138e-22)
(0.000782214 0.00138117 1.16519e-21)
(0.000737676 0.00119578 0)
(0.000732391 0.00120913 0)
(0.000428267 0.000849094 -1.88213e-21)
(0.000623329 0.00108027 -3.19302e-22)
(0.000726813 0.00118942 0)
(0.000693151 0.0011657 -1.73828e-21)
(0.000543254 0.000630803 1.75029e-21)
(0.000903542 0.00156528 1.03881e-21)
(0.000698275 0.00113374 3.06804e-21)
(0.000227836 0.00115918 -2.31004e-21)
(0.000775462 0.00135881 1.29505e-21)
(0.000711519 0.00115169 -6.21244e-22)
(0.000669764 0.000880187 3.39874e-22)
(0.000677316 0.00113792 1.51817e-21)
(0.000503862 0.000956761 -2.12566e-21)
(0.000574963 0.000935541 1.02888e-21)
(0.000780268 0.00147544 9.11165e-22)
(0.000775983 0.00133013 1.01068e-21)
(0.00061301 0.00108315 -1.41613e-22)
(0.000550905 0.000936053 1.47217e-22)
(0.000672752 0.00119447 0)
(0.000549586 0.000955056 1.62564e-22)
(0.000255994 0.000489732 -2.72384e-24)
(0.000626257 0.00101078 -1.33792e-21)
(0.000725147 0.000841848 -1.0518e-21)
(0.000731202 0.00124282 -1.55976e-22)
(0.000506767 0.000486983 -4.26469e-22)
(0.000626548 0.00102967 -6.88803e-22)
(0.00065593 0.00111681 -2.91647e-22)
(0.000576369 0.00117211 1.62809e-21)
(0.00076175 0.00130583 1.43771e-21)
(0.00105674 8.47286e-05 0)
(0.000653874 0.00034156 -5.50266e-21)
(0.000556847 0.00112732 -4.04317e-21)
(0.000443632 0.00129873 -1.98804e-21)
(0.000779492 0.00129206 6.69982e-24)
(0.000433069 0.000730447 -2.18636e-22)
(0.000640209 0.00117154 8.80007e-22)
(0.000571235 0.00106211 1.94141e-23)
(0.000419005 0.0007984 1.56268e-21)
(0.000415323 0.000793194 2.21116e-21)
(0.000351179 0.000631951 9.99981e-22)
(0.000447822 0.000668638 3.40783e-22)
(0.000855629 0.00146801 -4.76078e-22)
(0.000617494 0.0011063 1.35385e-21)
(0.000804179 0.00144659 0)
(0.000641505 0.00109608 0)
(9.99827e-05 0.000153934 -1.01413e-21)
(0.000243505 0.000543543 1.70595e-21)
(0.000754914 0.00134831 -3.48008e-22)
(0.000733281 0.00128226 -1.68929e-21)
(0.000643271 0.00112762 0)
(0.000602969 0.00106728 1.17147e-21)
(0.000776578 0.00134972 9.14231e-22)
(0.000617389 0.00107218 -8.87334e-22)
(0.000614827 0.00109021 0)
(0.000649554 0.001132 0)
(0.000643562 0.00117359 -8.58134e-22)
(0.000571582 0.00104917 4.83655e-22)
(0.000771581 0.00136004 -2.70848e-22)
(1.42916e-05 1.5768e-05 -9.07509e-22)
(0.000765557 -0.000204443 8.41032e-22)
(0.000789394 0.00148539 -1.84774e-21)
(0.000727808 0.00118599 1.18166e-21)
(3.51555e-05 -5.45513e-06 1.24404e-21)