/*--------------------------------*- C++ -*----------------------------------*\
  =========                 |
  \\      /  F ield         | OpenFOAM: The Open Source CFD Toolbox
   \\    /   O peration     | Website:  https://openfoam.org
    \\  /    A nd           | Version:  7
     \\/     M anipulation  |
\*---------------------------------------------------------------------------*/
FoamFile
{
    version     2.0;
    format      ascii;
    class       surfaceScalarField;
    location    "28";
    object      phi;
}
// * * * * * * * * * * * * * * * * * * * * * * * * * * * * * * * * * * * * * //

dimensions      [0 3 -1 0 0 0 0];

internalField   nonuniform List<scalar> 
1111
(
6.11792e-09
1.33636e-08
-1.54418e-08
-4.03968e-09
6.27663e-09
-1.15868e-08
1.14281e-08
-1.45779e-08
4.55056e-09
9.69563e-09
3.31749e-10
2.33022e-10
-2.79713e-10
-1.40196e-08
1.40663e-08
-1.39177e-08
1.37253e-08
4.25464e-10
-1.45038e-09
1.48571e-08
2.02186e-09
-4.06704e-09
9.62688e-09
-1.11717e-08
5.61181e-09
-6.57696e-09
-1.25387e-08
1.25009e-08
6.61477e-09
-5.10726e-08
-2.5586e-08
7.66586e-08
-8.06995e-09
7.47769e-09
6.86889e-09
3.71224e-09
3.57214e-10
-3.78424e-09
-2.85219e-10
1.5777e-08
-1.58036e-08
-2.27471e-08
2.27736e-08
-9.62524e-09
-8.18557e-09
8.8936e-09
8.91721e-09
-3.49372e-08
1.73001e-08
-3.18577e-08
4.94948e-08
9.56754e-09
-1.8866e-09
-1.42579e-08
-3.11235e-09
3.35757e-09
-3.67027e-09
3.42506e-09
-3.7027e-09
1.31175e-08
1.97876e-09
-1.13936e-08
8.88842e-09
-2.12923e-09
-1.50354e-08
8.2762e-09
3.84238e-08
-3.12519e-08
-7.17196e-09
-1.91569e-08
-1.24249e-10
1.75838e-08
1.69741e-09
-4.41926e-10
3.844e-09
-1.79813e-08
1.45792e-08
-6.10754e-08
-3.97254e-09
6.5048e-08
1.96326e-10
-1.38019e-09
-4.01208e-10
1.58507e-09
-1.04734e-09
-1.33123e-08
-2.43367e-10
-3.57773e-10
3.42719e-10
2.58422e-10
-9.94992e-09
-8.05419e-09
1.23064e-08
5.69768e-09
8.27464e-10
-2.2005e-09
-8.51988e-09
9.89291e-09
7.73442e-09
1.06066e-09
-8.51108e-09
-2.84e-10
-2.77902e-09
-7.75957e-09
1.07058e-08
-1.672e-10
1.12843e-08
-3.16252e-10
-2.07967e-09
-1.09407e-09
1.06122e-09
1.26583e-10
-9.37262e-11
-4.02306e-10
9.63714e-10
5.73499e-10
-1.13491e-09
-6.84538e-10
-4.5799e-11
7.2835e-10
1.98705e-12
3.72133e-11
-1.12794e-09
8.73365e-11
1.00339e-09
-2.9531e-11
-1.02733e-09
6.25017e-10
-1.81606e-08
-1.62134e-09
-5.92621e-10
6.88322e-11
-1.60749e-10
1.33296e-08
-1.33162e-08
3.83065e-09
-4.77507e-10
6.8969e-10
4.61463e-10
-6.73645e-10
-7.46125e-10
-2.62634e-09
1.9981e-09
1.37437e-09
-2.0445e-09
8.75119e-09
-1.07737e-08
-4.54885e-10
-2.27631e-10
8.98944e-11
-8.79137e-09
1.00226e-08
-9.30117e-09
1.17101e-08
-1.67617e-08
5.14908e-09
-9.75195e-11
1.1316e-10
-2.43718e-10
-3.24327e-10
3.0986e-10
9.66046e-10
-2.1469e-10
-5.98874e-08
7.43565e-08
-1.44691e-08
1.20939e-09
-4.17771e-10
-1.40692e-09
6.15294e-10
9.88071e-10
1.02803e-08
-1.3659e-08
2.39065e-09
-4.00441e-10
6.65048e-09
-8.03261e-09
1.78256e-09
-6.36928e-09
5.83158e-09
5.41852e-09
-4.88083e-09
-6.8941e-09
-2.414e-09
2.26541e-09
7.04268e-09
-2.13175e-10
-9.08817e-08
9.12938e-08
-1.98998e-10
-2.35396e-10
-8.97442e-08
9.0134e-08
-1.54319e-10
8.3063e-08
-1.49786e-09
1.0389e-10
-8.1669e-08
-3.28599e-09
-7.61665e-12
8.79873e-10
9.65425e-10
-6.35905e-10
4.10572e-09
-1.88317e-09
3.25518e-09
-5.47773e-09
-1.18164e-09
1.07373e-09
-1.49897e-08
6.57597e-09
9.07394e-09
1.01923e-09
-9.76325e-09
-3.29914e-10
-6.26708e-09
1.26866e-08
1.52781e-09
-7.94729e-09
1.41858e-08
-3.89449e-09
3.17301e-09
-1.34644e-08
1.53917e-08
1.69765e-09
-1.66059e-09
-2.84424e-10
-1.9918e-08
-7.48448e-09
2.76869e-08
1.35519e-08
-8.15744e-09
-2.30166e-09
7.53476e-09
-1.15002e-08
-1.59621e-10
3.2147e-10
-1.56877e-09
-3.72442e-08
-2.26431e-08
7.88315e-09
-8.50498e-11
3.91203e-09
-6.81694e-09
1.06162e-08
6.22328e-09
-7.40127e-10
4.30093e-10
5.99232e-10
-2.89198e-10
5.97647e-09
-4.57002e-09
3.51761e-09
-4.92407e-09
-7.10186e-10
-7.5033e-10
3.32576e-10
8.75897e-10
-8.3436e-10
-2.32888e-10
-1.25055e-09
1.08113e-09
-1.73285e-08
2.4746e-09
1.41956e-09
1.34343e-08
3.30212e-10
-8.71247e-10
-1.99092e-10
-3.67866e-09
-1.46686e-08
1.01881e-09
5.66884e-09
1.16265e-08
-5.24716e-09
-1.20482e-08
1.63797e-08
5.49e-10
-1.58507e-08
-1.07802e-09
-8.27309e-10
5.92401e-10
6.65e-10
-1.04934e-09
5.72354e-10
4.76982e-10
-7.0029e-09
-3.85754e-09
4.49116e-09
-4.46861e-10
6.38662e-10
-1.91801e-10
1.31923e-09
-1.49478e-08
-6.91984e-10
8.63766e-09
-9.99017e-09
-1.21468e-09
-1.28223e-09
1.2456e-08
4.40282e-09
-4.16763e-09
-1.26912e-08
3.28986e-10
6.91098e-09
-7.59122e-09
6.51182e-09
-2.0206e-09
-8.33246e-09
7.68483e-09
2.66822e-09
-1.79167e-09
5.93348e-10
-1.34703e-08
-2.77418e-10
-1.69443e-10
-5.86938e-10
1.33043e-09
-7.63759e-09
7.96869e-10
1.71905e-08
-1.60764e-09
-1.47961e-08
1.59743e-08
-1.17827e-09
1.18345e-08
1.40136e-08
-1.55985e-08
-1.02496e-08
-9.12982e-10
1.51851e-09
-6.05533e-10
1.60716e-09
-2.08107e-09
4.73913e-10
2.8272e-09
-4.16157e-09
1.33437e-09
2.04294e-09
-1.71484e-09
-3.28099e-10
-1.21434e-08
2.41474e-10
1.19019e-08
2.79897e-09
-7.56034e-10
8.82413e-09
-1.50203e-08
6.41595e-09
-7.40333e-09
1.10757e-10
4.04969e-09
-4.48204e-10
-3.15619e-09
3.26694e-09
-7.80029e-09
9.17213e-09
-1.37183e-09
-9.54831e-10
4.06587e-09
9.94679e-10
1.70286e-08
-1.45196e-08
-1.52098e-09
-5.31267e-09
5.09416e-09
-1.66466e-09
-2.74321e-10
6.97283e-09
-6.95578e-09
-1.70474e-11
7.08134e-09
4.31366e-09
3.24932e-10
-1.56033e-08
1.02805e-08
1.71573e-08
5.67361e-09
8.31871e-09
8.20145e-09
-6.73514e-09
6.43499e-10
-1.27869e-08
1.47578e-09
-1.37966e-10
-1.26488e-08
3.70754e-09
-4.40592e-10
1.39992e-08
-1.34502e-08
-8.47426e-11
-1.15946e-09
-1.35665e-08
7.04425e-09
9.69949e-10
-6.02868e-11
-8.95612e-09
5.33909e-09
-3.15363e-08
-1.25626e-08
-2.28945e-09
1.28561e-09
1.36308e-08
1.10049e-08
-1.06768e-08
-1.39589e-08
1.66017e-08
-3.11044e-09
-1.34913e-08
1.80214e-09
3.81452e-09
-1.51417e-09
-1.01016e-09
-1.07543e-09
1.40916e-09
6.76425e-10
-3.22139e-10
4.56378e-10
4.64993e-10
6.2215e-08
-6.23089e-08
9.38134e-11
6.19732e-08
-6.23488e-08
3.75595e-10
8.97759e-10
6.47836e-08
-6.5609e-08
8.25422e-10
6.41795e-08
6.04018e-10
-1.3374e-10
-6.65471e-08
9.38111e-10
-6.20957e-08
6.20316e-08
6.41472e-11
1.32127e-09
-6.78684e-08
-6.21974e-08
1.01649e-10
1.2002e-08
-1.22564e-09
1.85582e-09
-3.75173e-09
3.12155e-09
4.68948e-10
-1.33518e-09
1.20489e-09
-8.79454e-10
1.53441e-09
-1.82171e-09
1.16676e-09
1.59934e-09
-1.77439e-09
4.96521e-10
-1.15988e-10
-3.30083e-09
3.14673e-09
-2.42578e-09
2.57987e-09
-9.5416e-10
-2.92878e-09
2.6573e-09
-3.94603e-09
-5.50482e-09
6.81277e-10
-7.9128e-10
1.51511e-09
1.22419e-09
-6.6239e-09
8.0128e-09
2.92477e-09
2.08884e-08
-4.28667e-09
-8.55864e-10
3.0584e-10
1.2313e-09
-1.02412e-08
-2.7003e-08
5.50725e-09
-4.52963e-09
-3.07998e-09
2.10236e-09
1.41068e-10
5.49075e-12
5.8179e-10
-2.88624e-09
3.56817e-09
8.55435e-09
9.56678e-10
-6.5049e-10
2.26516e-09
-2.56883e-09
2.36951e-09
1.46024e-08
1.3042e-08
-2.65631e-08
3.20989e-08
6.11459e-09
-2.25222e-08
-1.01555e-08
1.78555e-08
-1.75044e-08
1.06538e-08
-3.14759e-10
3.81465e-11
-1.49778e-09
-1.97568e-09
-2.06393e-09
3.65821e-09
1.45469e-08
-5.60106e-10
-1.33934e-08
1.71742e-10
-2.95156e-09
-1.48961e-10
1.51457e-08
1.73122e-08
1.34832e-08
7.56551e-10
-1.52995e-09
-1.27098e-08
-1.96827e-09
5.9679e-09
1.21569e-08
-8.80041e-10
-1.30675e-09
-3.50158e-09
2.73044e-09
3.91786e-09
2.40096e-09
1.40314e-08
4.1352e-09
-1.37638e-08
1.72189e-08
-1.6532e-09
2.9338e-09
-3.69253e-09
1.89335e-09
-4.47495e-09
1.27343e-08
-1.1962e-08
-1.37391e-08
6.15586e-10
8.64852e-09
-1.94731e-09
1.64843e-09
1.81399e-09
-8.84134e-09
4.78004e-10
-4.19929e-09
-5.95617e-09
1.2069e-08
-1.49542e-08
1.48461e-09
1.6414e-09
-2.10503e-09
1.62295e-08
-1.57659e-08
-9.68441e-10
1.38916e-08
2.58195e-09
-3.83623e-09
-1.3766e-08
7.24236e-09
-1.68174e-08
-7.92944e-09
6.42342e-09
5.82305e-09
1.41762e-08
-9.39183e-09
3.18664e-09
8.87341e-09
9.78771e-09
3.89869e-09
-4.08619e-09
2.13336e-08
-1.86808e-08
4.58961e-09
-9.88755e-09
2.29786e-09
5.23953e-09
1.33989e-08
-8.02853e-11
1.23737e-08
-1.32618e-08
-1.62436e-09
2.6371e-09
-1.82219e-09
8.09446e-10
1.06924e-08
-6.32714e-09
7.26127e-09
-1.02789e-08
1.4106e-09
-4.75569e-09
1.11132e-08
-1.16046e-08
-7.40397e-09
8.876e-09
9.22034e-09
1.24796e-08
9.82609e-10
-1.35425e-08
1.76317e-09
8.70185e-10
-1.07925e-08
-6.73082e-09
1.01193e-08
-1.82962e-09
2.52539e-09
-8.63174e-09
4.68039e-09
-5.09842e-09
1.11723e-08
-3.49171e-09
-1.13308e-08
3.65029e-09
-4.54118e-09
1.09577e-08
2.17988e-09
1.23172e-09
-4.96567e-09
-1.74641e-08
1.04065e-08
1.20232e-08
9.06768e-10
-1.06392e-08
-9.61699e-09
1.52905e-08
1.20507e-08
2.69114e-09
-9.50227e-09
-1.31719e-08
-2.57152e-10
-1.23797e-08
3.20922e-10
-6.08368e-10
1.09932e-08
1.23579e-08
-8.03375e-09
1.60512e-08
-1.53545e-08
3.43856e-09
-4.93007e-10
1.63892e-09
1.22884e-08
-3.85657e-09
-1.23592e-08
-5.12464e-09
5.00606e-10
4.48606e-09
1.18299e-08
-7.50582e-09
7.83289e-10
-1.10696e-09
1.831e-09
-2.3484e-09
5.97837e-09
2.60091e-08
-7.60188e-10
-1.29873e-08
1.37475e-08
2.77184e-08
-2.18643e-08
2.19567e-08
1.91981e-08
-1.24418e-08
-2.53717e-09
1.47755e-08
1.05181e-10
-1.1944e-08
-3.30516e-10
-6.00643e-09
-2.00494e-09
2.44376e-09
1.74106e-09
2.05836e-10
-1.06493e-08
1.06809e-08
-2.37369e-10
2.17536e-09
-5.51743e-09
-1.04791e-08
1.0174e-08
-6.27981e-10
-1.02593e-08
-8.29349e-12
-1.03829e-08
-2.93894e-09
-1.17061e-08
2.31229e-09
7.71212e-09
5.05685e-09
2.96813e-10
-1.14005e-08
1.13095e-08
7.07888e-10
-8.3821e-09
5.28204e-09
-7.16071e-10
2.7834e-09
-3.38975e-09
-1.28774e-08
-1.33939e-08
1.29305e-08
-9.86722e-09
-1.57737e-08
1.00376e-08
8.99756e-09
8.38937e-10
2.57465e-09
-1.5562e-08
1.07183e-08
1.68555e-09
4.05947e-09
4.03723e-10
-6.51027e-10
-4.62882e-10
-4.00781e-09
2.7467e-09
-1.69045e-09
4.14639e-10
-4.83952e-10
6.93126e-11
-2.46039e-09
1.24477e-08
2.06332e-09
2.53704e-09
-1.1864e-09
-1.90862e-09
-2.89083e-11
-2.6273e-09
-7.79101e-10
1.25774e-08
9.69233e-09
-5.48231e-10
7.15349e-09
-1.18358e-09
-5.42169e-09
-9.68507e-09
-5.08786e-09
3.24906e-10
8.97331e-11
4.49879e-09
1.42377e-09
-1.65618e-08
-6.62696e-10
-9.67676e-10
-2.13344e-09
7.63485e-10
2.54433e-09
6.21248e-08
-9.78736e-11
-6.20269e-08
6.23378e-08
1.82382e-10
-6.25202e-08
-1.41409e-08
1.36965e-10
1.44898e-08
-4.85783e-10
2.57194e-09
-2.12133e-09
2.8612e-09
1.78552e-09
-4.41182e-09
-5.99711e-10
-6.79332e-10
5.51143e-10
-1.61009e-10
6.62534e-10
-4.86444e-10
1.8768e-08
1.11832e-09
-1.53876e-08
-3.5001e-10
-1.96142e-09
1.20606e-08
2.18917e-09
1.74854e-09
5.01329e-09
-1.75064e-09
-7.73745e-08
-2.41529e-08
-4.82735e-09
1.56045e-08
2.34041e-09
-8.89757e-10
-3.428e-09
-1.4322e-09
7.78566e-10
-6.53122e-10
-1.28525e-08
-3.10033e-10
1.31625e-08
-1.05689e-08
-6.67264e-09
1.05107e-08
-9.19596e-09
8.88294e-09
-2.21461e-10
1.9688e-09
1.23322e-08
-1.20389e-08
-2.93328e-10
7.86109e-10
5.45802e-11
9.53298e-09
1.13961e-09
-1.24526e-09
-4.08394e-10
-1.41792e-08
-5.20265e-10
-1.32811e-08
1.19717e-08
-1.13456e-08
-6.60368e-08
6.49644e-08
1.07245e-09
5.4244e-10
-5.3695e-10
1.1554e-08
-5.06835e-10
2.2883e-11
-1.87215e-09
2.76024e-09
-3.36434e-09
-1.3512e-08
-1.64339e-09
2.5526e-09
-4.6232e-09
-1.37408e-08
1.80223e-09
5.61759e-09
9.35679e-09
-8.69533e-09
-5.35737e-10
2.89009e-11
-9.36346e-09
-1.24925e-08
1.404e-10
-6.27813e-08
2.29306e-10
6.2552e-08
6.89857e-10
6.34897e-08
-1.84076e-10
-7.95828e-10
-1.42711e-08
1.22567e-10
-6.33613e-08
6.32388e-08
1.79688e-10
-6.28989e-08
6.27192e-08
5.88492e-10
6.17904e-08
1.77098e-10
-6.19675e-08
6.15923e-08
1.98111e-10
-8.78666e-08
8.84778e-08
-7.14403e-12
9.34264e-08
-9.31052e-08
-2.27442e-10
-8.6612e-08
-4.29169e-10
9.34313e-08
-1.38609e-10
-8.49028e-08
-7.71119e-10
9.35673e-08
2.39593e-10
-5.18452e-10
2.00924e-09
9.24558e-08
-6.93662e-08
6.21857e-08
-6.23989e-08
-6.30167e-08
6.13984e-08
1.93889e-10
-2.99312e-09
2.66349e-09
-1.34341e-08
9.57866e-11
2.29119e-10
2.45897e-09
9.89815e-09
-1.20274e-08
3.82447e-08
-3.44724e-08
-1.64211e-08
1.39782e-08
-9.23161e-11
-2.15373e-10
3.3458e-10
9.67061e-10
-1.9646e-10
4.25464e-10
4.68947e-09
1.06253e-09
-3.85865e-09
-4.66132e-10
5.34964e-10
-3.76238e-10
-2.39345e-09
1.26604e-08
2.18076e-09
-1.44264e-08
-2.25026e-09
-3.79648e-09
5.69722e-09
1.09461e-09
-2.38786e-09
1.40293e-08
-1.23499e-09
-4.61576e-09
7.19162e-09
-7.84566e-09
-1.89633e-08
-1.28991e-08
7.63233e-09
5.88237e-09
-3.2512e-10
-5.15837e-10
3.28471e-09
1.43315e-08
1.71685e-09
-1.19129e-09
-4.92083e-10
5.28736e-10
-3.10974e-10
1.59e-08
-4.53322e-10
-1.57567e-08
-4.59957e-09
-2.67436e-09
2.877e-10
-2.38441e-10
4.34423e-09
-1.82968e-08
6.71973e-10
-1.74015e-09
-2.3692e-09
-2.25998e-09
1.51627e-08
-9.05489e-08
-1.53107e-10
9.16944e-08
-2.18159e-10
-8.91487e-08
-4.73016e-10
9.30713e-08
-2.96381e-10
-9.28728e-08
-6.6082e-10
-1.83537e-09
1.60547e-08
9.20119e-08
-1.85602e-10
1.89536e-11
-2.17939e-10
1.11509e-08
2.14317e-09
-9.90602e-09
-1.18109e-08
-5.56472e-09
8.45594e-09
1.38343e-09
-6.91461e-09
-6.49454e-09
9.10803e-09
-2.63078e-10
1.01541e-08
1.91291e-08
-1.76205e-08
3.00997e-09
-1.23732e-08
3.02388e-09
-7.00885e-08
4.0517e-09
-2.03238e-08
-1.25788e-08
-6.25484e-10
-5.76063e-09
-1.53931e-08
9.20969e-09
-1.51586e-08
6.0254e-10
5.10843e-10
-1.46219e-09
-1.60446e-08
1.66079e-08
9.57428e-09
-9.58189e-09
-5.5295e-09
1.47961e-08
-1.59821e-09
8.31476e-10
-1.53438e-09
6.08766e-10
1.21446e-08
3.41827e-09
7.09382e-08
-1.78889e-08
9.62198e-10
-1.45476e-08
-3.20043e-10
-3.63843e-10
-2.28263e-10
6.08036e-08
-6.11e-08
-6.33424e-08
-6.30845e-08
-4.6691e-12
-2.9845e-10
-9.25697e-08
-6.04592e-08
6.24684e-08
6.50683e-08
-6.02196e-08
6.45498e-08
-6.03582e-08
6.37787e-08
-6.05856e-08
6.33495e-08
9.23117e-08
4.04115e-10
-6.5701e-09
7.49729e-08
-6.49845e-08
1.29553e-10
-1.29553e-10
2.13309e-09
-3.84664e-10
1.54831e-08
-1.5013e-10
1.5013e-10
5.15747e-10
1.43047e-09
1.39983e-08
1.28516e-08
-2.6459e-09
3.64816e-09
6.41363e-09
1.92785e-09
4.80112e-10
-3.43778e-10
-2.8725e-09
1.43206e-08
1.48045e-08
-4.32157e-09
1.15648e-08
2.79456e-10
2.20446e-10
3.01074e-09
-1.0473e-09
-1.79831e-09
-5.9217e-09
-1.38899e-10
-5.04508e-10
1.51979e-08
3.87445e-10
1.78855e-10
1.65994e-08
-2.54814e-08
1.71226e-08
2.54544e-09
1.50652e-09
2.14836e-09
-3.49864e-09
1.8896e-08
-1.75457e-08
-1.47865e-10
9.37625e-10
-1.4435e-09
-7.91531e-08
-7.08097e-08
1.48003e-09
-1.17426e-09
7.38439e-10
2.28115e-08
1.82743e-08
-6.46924e-09
1.87384e-10
-4.51446e-09
-1.97095e-09
2.99589e-08
1.28531e-10
1.49061e-08
7.35772e-08
1.12949e-10
5.78396e-10
-2.31156e-10
-3.0213e-10
-3.90013e-09
2.38583e-08
-1.47256e-08
1.2434e-09
-1.39575e-08
-9.9565e-11
2.01037e-08
-2.81751e-08
9.00635e-10
2.59205e-09
-7.17255e-10
)
;

boundaryField
{
    back
    {
        type            empty;
        value           nonuniform 0();
    }
    ingreso
    {
        type            calculated;
        value           nonuniform List<scalar> 
14
(
-1.54286e-08
-1.54288e-08
-1.54288e-08
-1.54288e-08
-1.54286e-08
-1.54283e-08
-1.54288e-08
-1.54288e-08
-1.54286e-08
-1.54286e-08
-1.54288e-08
-1.5428e-08
-1.5428e-08
-1.54286e-08
)
;
    }
    salida
    {
        type            calculated;
        value           nonuniform List<scalar> 2(1.01527e-07 1.14472e-07);
    }
    front
    {
        type            empty;
        value           nonuniform 0();
    }
    defaultFaces
    {
        type            calculated;
        value           uniform 0;
    }
}


// ************************************************************************* //
