/*--------------------------------*- C++ -*----------------------------------*\
  =========                 |
  \\      /  F ield         | OpenFOAM: The Open Source CFD Toolbox
   \\    /   O peration     | Website:  https://openfoam.org
    \\  /    A nd           | Version:  7
     \\/     M anipulation  |
\*---------------------------------------------------------------------------*/
FoamFile
{
    version     2.0;
    format      ascii;
    class       volVectorField;
    location    "28";
    object      U;
}
// * * * * * * * * * * * * * * * * * * * * * * * * * * * * * * * * * * * * * //

dimensions      [0 1 -1 0 0 0 0];

internalField   nonuniform List<vector> 
591
(
(0.000807406 -4.57455e-05 1.22727e-18)
(0.000781744 -3.62673e-05 -6.62616e-19)
(0.000849529 -6.19742e-05 5.73874e-20)
(0.000835173 8.01773e-06 -1.4787e-19)
(0.000820057 1.81806e-05 2.23925e-19)
(0.000772041 -3.22019e-05 -1.38475e-19)
(0.000537703 -0.000382854 8.002e-19)
(0.000795439 -5.51262e-06 2.08112e-18)
(0.0057715 0.00248887 9.87857e-19)
(0.000781396 -2.08046e-05 2.41196e-18)
(5.96865e-05 0.00017866 1.21866e-18)
(0.000891119 0.00130067 9.40945e-21)
(0.000788122 1.15345e-05 1.28953e-18)
(0.00156048 0.00236131 -7.87837e-19)
(0.000797342 2.03837e-05 -4.38415e-19)
(0.000128323 -0.00025369 2.5431e-22)
(0.000131489 0.000667222 7.05737e-19)
(0.0008322 2.22942e-05 -4.92834e-19)
(0.00198878 0.00037639 4.73799e-19)
(0.00134334 0.000282324 -2.4726e-19)
(0.000829154 1.16184e-05 3.69162e-19)
(0.00335387 0.00656628 -8.3283e-20)
(3.61867e-05 7.65191e-05 2.71152e-19)
(0.000821512 6.78887e-06 -4.51635e-19)
(1.80889e-05 -2.29524e-05 3.59227e-19)
(0.000756503 2.48483e-05 0)
(8.97082e-05 0.000480264 1.60092e-19)
(0.000514168 3.07293e-05 -1.79039e-19)
(0.000744152 5.4945e-05 1.13801e-18)
(0.000822038 1.01546e-05 5.8544e-19)
(6.73427e-05 -8.19855e-07 -2.81547e-24)
(4.62221e-05 -5.40451e-05 3.52549e-19)
(4.63221e-05 -4.24129e-06 -4.64402e-20)
(5.49956e-05 -9.91271e-06 0)
(6.30369e-05 -1.47762e-05 1.13179e-18)
(0.0011634 0.000129279 1.8014e-19)
(4.01197e-05 -7.29216e-06 4.47617e-20)
(0.000821061 1.67933e-05 3.87451e-23)
(3.46535e-05 5.12913e-05 2.66305e-19)
(5.91428e-05 -0.000147157 -8.55728e-19)
(0.000553364 -0.000185612 9.58204e-19)
(3.3276e-05 -9.54557e-06 4.55302e-20)
(0.00079178 -6.94448e-06 -1.55914e-18)
(0.000820022 1.80694e-05 -6.80844e-19)
(2.39879e-05 -1.14941e-05 0)
(6.31614e-05 1.09914e-05 8.52751e-20)
(0.00132508 0.00451514 8.9361e-19)
(8.54779e-05 2.30274e-05 8.64504e-20)
(0.000790491 2.96124e-05 0)
(0.00036534 -0.000144271 6.78611e-19)
(0.000369725 0.000280712 5.12395e-21)
(0.000384071 7.37456e-05 -1.00485e-18)
(0.00634407 0.0109427 -7.67644e-19)
(0.00622499 0.0107935 1.53895e-20)
(0.0056117 0.0103761 1.45625e-18)
(0.000806692 -1.6635e-05 0)
(7.44252e-05 3.79443e-05 0)
(0.000324667 3.31891e-05 9.11754e-24)
(7.18042e-05 1.54156e-05 -3.46814e-19)
(0.000832583 -5.14109e-06 0)
(0.000608353 2.64584e-05 3.17928e-19)
(0.00081072 4.54917e-07 2.17686e-18)
(0.000772404 2.01904e-06 -5.42679e-19)
(0.000778665 1.8628e-05 -3.12731e-19)
(0.00171344 0.000510569 5.43943e-19)
(0.000784647 -1.86399e-06 -1.14074e-18)
(0.000812206 -2.94726e-06 -5.13803e-19)
(9.38069e-05 3.76816e-06 -1.73588e-19)
(0.000676774 0.00230142 0)
(0.000814376 1.37883e-05 0)
(0.000748172 1.81656e-05 -1.37593e-18)
(4.3984e-05 1.9799e-05 0)
(0.000280954 0.000277081 3.27147e-19)
(5.0758e-05 -2.05391e-05 0)
(5.05473e-05 -7.02736e-06 1.59637e-19)
(3.22711e-05 -5.6354e-05 -3.37015e-20)
(0.000764859 6.16972e-05 2.47383e-19)
(5.09424e-05 1.4067e-05 0)
(0.000781186 5.82448e-05 4.43899e-19)
(0.000748127 0.000300181 2.10947e-19)
(0.000961212 5.9664e-05 -3.98425e-20)
(4.91375e-05 2.79864e-05 -4.52327e-20)
(7.36215e-06 -4.21537e-05 0)
(0.00041938 0.000224759 1.7035e-19)
(2.21217e-06 3.40737e-05 0)
(0.000754991 1.74897e-05 -5.98527e-19)
(0.000556038 -0.000113295 0)
(7.49074e-05 2.51769e-06 -1.74656e-19)
(5.61397e-06 -5.6362e-05 0)
(0.00080771 0.000247752 -3.41642e-19)
(5.22683e-06 -2.62e-05 0)
(0.000413203 0.000324303 -1.23248e-23)
(0.000508732 0.000117324 0)
(0.000792094 4.8093e-05 3.9897e-26)
(3.07791e-06 2.28796e-05 -4.22149e-20)
(0.000433058 7.84506e-06 1.76547e-18)
(0.00101794 7.45448e-05 4.16536e-20)
(0.000951057 3.73816e-05 6.41162e-22)
(0.000722953 0.000652403 2.69761e-19)
(4.74183e-06 6.54921e-05 0)
(8.40509e-06 -0.000106332 -3.12699e-19)
(1.58302e-05 -0.000194982 -1.10198e-18)
(1.4917e-06 0.000101467 -5.96469e-19)
(0.000707168 -6.34271e-06 0)
(4.66306e-06 0.000128763 0)
(0.000789931 6.76435e-06 2.19961e-18)
(0.000760353 2.43036e-05 1.51185e-18)
(0.000399226 -3.60748e-05 0)
(5.33226e-05 0.000232192 -8.95508e-19)
(-1.54235e-06 0.000205453 4.96471e-19)
(8.10839e-05 0.00046507 6.25768e-19)
(0.000293738 0.000111078 -9.37521e-19)
(0.000806591 1.27823e-05 1.36353e-19)
(0.000266728 -7.08372e-06 5.31763e-19)
(3.02126e-06 4.63087e-05 0)
(3.84698e-05 0.000316556 -1.09431e-18)
(0.000312478 0.000329571 -1.61851e-19)
(8.03148e-06 -8.01416e-05 1.46747e-19)
(0.000652219 0.000789845 0)
(0.000357752 0.000392215 5.74944e-20)
(0.000801625 7.57748e-08 1.07214e-18)
(0.000775346 -1.51302e-05 -2.68809e-18)
(9.26198e-06 -0.000138638 0)
(0.000740174 -1.72247e-05 -1.11441e-19)
(0.000318451 -6.14111e-05 1.24458e-18)
(0.00270899 0.000799233 -3.35981e-19)
(-1.2725e-06 0.000160661 -6.13305e-19)
(-9.57056e-06 0.000198302 1.61973e-18)
(0.000826291 1.83791e-05 -3.89305e-20)
(7.35253e-05 -7.60119e-06 -7.50945e-19)
(0.000781357 2.9279e-05 -3.87598e-19)
(0.000875655 2.80809e-05 -4.10202e-20)
(5.94876e-05 0.000372111 -5.97121e-19)
(0.0004673 8.33837e-05 -4.9443e-19)
(5.79888e-05 -2.03256e-06 1.56315e-19)
(0.000816602 -3.96853e-06 -1.05807e-18)
(0.00162583 0.000208989 -1.13797e-18)
(1.11822e-06 7.96008e-05 4.96564e-19)
(0.000796048 1.28483e-06 -4.99475e-19)
(0.000880637 0.000539577 -7.85878e-20)
(0.000131295 0.000846547 0)
(0.000555312 6.82262e-05 0)
(0.000269752 6.43247e-05 -1.61119e-18)
(6.88686e-05 6.57601e-05 -1.37549e-18)
(3.56263e-05 2.4514e-05 0)
(0.00425786 0.00741806 -1.02341e-20)
(0.00421643 0.00736839 3.2124e-20)
(0.0044122 0.00756903 -4.26117e-21)
(0.0042081 0.00773782 0)
(0.00420143 0.00760127 5.7749e-19)
(0.00424417 0.00740542 -9.43371e-20)
(0.00421264 0.00804536 4.84435e-19)
(0.00428471 0.00743999 0)
(0.0042076 0.00854217 6.16827e-19)
(0.00431427 0.00745583 2.24327e-19)
(0.000803414 -3.71101e-06 -1.37088e-18)
(0.000748414 5.22727e-05 0)
(0.000218978 7.08611e-05 1.27813e-19)
(5.71756e-05 2.02872e-05 8.72741e-20)
(8.44986e-05 5.24423e-05 6.8071e-19)
(0.000113735 5.01539e-05 -3.42012e-19)
(0.000109279 1.42889e-05 0)
(5.58253e-05 7.73739e-06 8.19149e-20)
(0.000204323 0.000146146 0)
(0.000172224 5.85279e-05 -5.24773e-20)
(0.000335041 0.000231574 -5.0973e-21)
(6.13089e-05 4.95141e-05 -4.38102e-19)
(9.83867e-05 3.56172e-05 -8.5334e-20)
(9.64321e-05 7.02546e-05 1.31326e-21)
(0.000247185 0.00037203 -6.6678e-19)
(0.00013873 0.00106559 0)
(4.68314e-05 5.86902e-05 3.4341e-19)
(0.000186131 0.00181252 0)
(0.000206113 0.000260818 7.05319e-19)
(4.5447e-05 -5.95112e-06 1.11438e-19)
(0.000465832 0.000170621 -1.72469e-19)
(0.000746419 2.87193e-05 -1.88582e-18)
(4.99582e-05 4.31209e-09 4.1151e-24)
(0.00015706 3.7689e-05 2.2481e-19)
(0.000239223 0.000108672 -9.00223e-20)
(0.000871365 0.000705769 3.35242e-19)
(0.000757832 0.00161888 -9.22001e-21)
(0.000389012 0.00138943 -9.44102e-21)
(0.00101048 0.000559702 0)
(0.000114082 -1.0367e-05 1.1199e-18)
(0.000126354 2.74412e-05 -4.43608e-20)
(0.000420801 -0.000251596 -1.13698e-18)
(0.000800009 3.14012e-05 0)
(0.00018525 2.74968e-05 3.63622e-19)
(0.000289321 0.00135017 0)
(0.00103303 0.000748466 -7.30878e-20)
(0.000817127 4.23363e-05 -1.84597e-19)
(9.08269e-05 -1.81608e-05 -3.00302e-19)
(0.000805044 0.000311627 -2.08268e-20)
(7.48441e-05 -2.22463e-05 -6.00006e-19)
(0.000226299 0.000184455 8.64695e-20)
(0.000225811 0.000313022 -3.45334e-19)
(0.000867831 0.000237812 0)
(0.000790998 4.52302e-05 0)
(0.000258833 0.000152392 1.77018e-19)
(0.000235038 2.06544e-05 1.72706e-24)
(0.000184893 0.000214189 0)
(0.000281937 0.000646478 -5.56009e-21)
(0.000330025 1.93804e-05 0)
(0.000338693 0.000597521 0)
(0.000115242 9.23855e-05 -1.34806e-21)
(0.000808513 -1.31568e-06 -9.38197e-19)
(0.000814828 -5.61957e-06 7.82072e-19)
(0.000134741 6.92956e-05 -1.50005e-19)
(0.000936809 0.000151778 8.51785e-20)
(0.000821342 4.91248e-05 3.32519e-19)
(0.000793938 1.5798e-05 -2.92446e-19)
(0.00098955 0.000403098 0)
(0.000425686 0.000128399 6.25078e-19)
(0.000878974 0.00031568 2.0936e-20)
(0.00055291 0.000165492 0)
(0.000273437 0.000440548 4.10006e-19)
(0.000258059 0.000227045 -8.44974e-20)
(0.00109071 0.000379707 -7.83046e-19)
(0.000595575 0.000116087 -1.79487e-19)
(0.000787934 8.04563e-05 -7.41164e-21)
(0.00082 2.62478e-05 9.34616e-20)
(0.000106674 -9.19112e-05 -1.98337e-18)
(0.000723855 0.000379339 2.19449e-19)
(0.000640221 6.64957e-05 2.30793e-20)
(0.00068806 0.000274247 1.54039e-23)
(0.000711096 0.000448563 -4.09895e-19)
(0.000829553 3.95576e-05 8.86516e-20)
(7.70269e-05 8.96617e-05 0)
(0.000638078 0.000417322 -4.66108e-20)
(0.000185249 0.000109748 0)
(0.000366648 0.000506197 -2.65062e-19)
(0.000309373 0.000179496 0)
(0.000657405 0.000203413 3.5561e-19)
(0.000630111 0.000267469 -4.37707e-20)
(8.34218e-05 0.000110124 6.19744e-19)
(0.000869255 0.000113116 -1.63598e-18)
(6.48344e-05 2.72555e-05 2.57455e-19)
(0.000868451 5.03621e-05 -1.6569e-18)
(0.000810217 6.72526e-05 1.61288e-19)
(0.000792439 1.32117e-05 1.92888e-18)
(0.000789732 9.87879e-06 -1.31507e-19)
(0.000703405 7.46854e-05 0)
(0.000813718 3.36181e-05 8.75982e-19)
(0.000929017 0.000235185 -4.27582e-19)
(0.000748036 7.79912e-05 -4.83211e-19)
(0.000762322 0.000227432 -8.82085e-20)
(0.000240169 -0.000113077 -2.08136e-18)
(0.000716419 9.17283e-05 8.88193e-19)
(0.00062892 0.000593828 0)
(0.000127668 -9.95314e-05 0)
(0.00118394 0.000467035 4.97553e-19)
(0.000771306 -0.00010628 -3.23368e-18)
(0.00129615 0.000421873 5.76074e-19)
(0.0012604 0.000712033 -6.39709e-20)
(0.000787931 5.05657e-05 -2.10841e-19)
(0.000816817 7.40972e-05 -1.41609e-18)
(0.000803845 2.43035e-05 1.57227e-18)
(0.00079918 1.70575e-05 9.68432e-20)
(0.000660602 0.000343974 -4.40849e-20)
(0.000106988 0.000139143 1.05513e-23)
(0.000714932 -6.32512e-05 2.65368e-19)
(0.000248041 -0.000199413 -7.37203e-19)
(0.000602335 0.000191396 0)
(0.000677298 2.38792e-05 9.91404e-20)
(0.000655434 8.94501e-06 -3.81238e-19)
(0.000377534 0.000180099 3.93569e-20)
(0.000778673 0.000497848 -1.65632e-19)
(0.000155279 8.84303e-05 2.4276e-25)
(0.000799623 0.000392937 0)
(0.000957576 0.000321982 4.16231e-20)
(0.000726141 -9.95342e-05 -6.16953e-19)
(0.00033786 0.000115529 4.98073e-19)
(0.000888229 0.000418544 0)
(5.55177e-05 3.6729e-05 1.33848e-19)
(0.000467145 0.000273315 2.14157e-19)
(0.000445455 -9.46558e-05 -7.09887e-19)
(0.000180841 -0.000133433 -1.06011e-18)
(0.000802911 8.76892e-06 -4.74887e-19)
(0.000801687 -0.000113391 -1.93266e-19)
(0.00056563 0.000719872 -1.17488e-18)
(0.000828537 4.87417e-05 -6.62377e-20)
(0.000745461 -4.13867e-05 1.26023e-18)
(0.000665607 9.85186e-05 2.28036e-20)
(0.000511215 0.000218714 -1.65844e-19)
(4.18131e-05 -2.53634e-05 -8.76718e-20)
(0.000194668 -2.49244e-05 2.40832e-18)
(3.01894e-05 9.6933e-07 -1.95003e-19)
(0.000784746 8.92003e-05 3.61148e-19)
(0.000633833 0.000140524 0)
(0.000203954 -5.27354e-05 -1.04908e-18)
(0.000131515 -9.16998e-07 3.13044e-19)
(0.000132265 -3.14039e-05 -1.03037e-24)
(0.000780029 0.000115745 -3.188e-19)
(0.000160268 -3.79748e-06 0)
(0.000568261 0.000244097 0)
(0.000111344 0.000339522 -3.63187e-19)
(0.000843636 0.000104319 2.09919e-18)
(2.45805e-05 1.71831e-06 0)
(0.000844765 3.66292e-05 0)
(5.40537e-05 -2.67799e-05 0)
(0.000811859 2.74575e-05 -4.43571e-21)
(0.000807613 -6.57471e-05 0)
(0.00426582 0.00743422 6.53955e-20)
(0.00435878 0.00748382 1.43744e-19)
(0.000838834 6.86904e-06 0)
(0.000753734 -5.88459e-05 8.13639e-19)
(0.000154205 0.000136386 1.49352e-19)
(0.000845723 7.5508e-05 7.92702e-19)
(0.000134744 0.000113084 2.34628e-20)
(0.000752171 -4.98367e-05 6.27424e-19)
(4.06716e-05 1.23836e-05 0)
(3.70231e-05 -1.71953e-05 -4.48942e-20)
(0.000868927 5.49797e-05 -4.85512e-19)
(4.62098e-05 -3.61257e-05 -6.70357e-19)
(0.000737342 0.000120881 -4.23169e-20)
(0.000167831 0.000173272 -1.88279e-19)
(0.000807137 1.28551e-05 0)
(0.0046771 0.0081625 9.32987e-22)
(0.000164596 0.000781248 3.34039e-19)
(0.000136723 -4.74405e-05 -9.15377e-19)
(7.47682e-05 -3.52733e-05 -1.16989e-18)
(0.000762369 1.89914e-05 1.89857e-20)
(0.000568687 0.000414669 0)
(0.000399763 0.000433942 -2.56565e-19)
(0.000111183 -5.11885e-05 1.18478e-18)
(0.000720714 3.54616e-06 7.68486e-20)
(4.88329e-05 2.56312e-06 4.07468e-19)
(0.000647901 -5.95192e-05 1.173e-18)
(0.000803461 2.56189e-05 -5.98232e-19)
(8.89232e-05 -5.48306e-05 1.71073e-18)
(0.000834476 1.27205e-06 -2.67986e-24)
(0.000737908 1.10552e-05 -3.76979e-20)
(0.000852609 5.68731e-05 0)
(0.000803322 3.62133e-05 0)
(0.00592962 0.00723867 2.5859e-19)
(3.15979e-05 1.12774e-06 -1.19673e-19)
(0.000175208 -7.72206e-05 7.73626e-19)
(0.000707135 0.000120567 -6.97236e-19)
(3.59573e-05 -8.38028e-07 2.01639e-19)
(0.000571164 -2.21926e-05 -7.24638e-19)
(0.000718573 2.01492e-05 1.54754e-18)
(0.00068534 0.000154366 -3.55815e-19)
(0.000802102 -2.34171e-05 3.54457e-19)
(9.63963e-05 -2.88113e-05 1.11718e-18)
(0.000775535 9.1516e-06 -3.19427e-19)
(0.000849308 5.15164e-05 0)
(0.000525982 0.000302715 4.21433e-20)
(0.000839447 4.17452e-05 -9.26319e-19)
(3.13886e-05 -5.97991e-07 9.11749e-19)
(0.000824647 3.68569e-05 9.41167e-19)
(0.000833893 -1.95999e-05 -9.65295e-19)
(0.00070335 9.97969e-06 -5.69292e-19)
(0.000484393 -4.97697e-05 -5.2623e-19)
(0.00432813 0.00744978 2.48053e-19)
(0.00423195 0.00753564 -2.34224e-19)
(0.00422353 0.00759068 2.7013e-19)
(0.0042633 0.0074305 1.66054e-19)
(0.000842589 -3.9508e-06 1.42906e-19)
(0.00447412 0.00750314 0)
(0.00440062 0.00751579 -3.83998e-19)
(4.63754e-05 -3.32729e-07 -9.97464e-19)
(0.00416492 0.00746894 -6.33898e-20)
(0.00413241 0.00742769 -2.21752e-19)
(0.00602717 0.0106025 0)
(0.00655565 0.0111836 3.6708e-20)
(0.0060077 0.0105719 0)
(0.00657473 0.0112122 1.31841e-19)
(0.00599532 0.0105955 2.69849e-19)
(0.00661996 0.01123 1.22279e-20)
(0.00593267 0.0106089 -7.77018e-19)
(0.00665206 0.0111473 7.51585e-21)
(0.00390192 0.00920505 -1.91038e-19)
(0.00418588 0.00749488 3.73436e-21)
(0.0042447 0.00756097 7.92948e-20)
(0.00413365 0.00742855 4.11603e-20)
(0.000849354 0.000177816 4.46731e-20)
(1.79323e-05 2.43164e-06 0)
(0.000652928 -0.000152217 0)
(0.000732278 3.3033e-05 0)
(0.00244477 0.00109973 4.18803e-21)
(0.000729915 -2.4384e-05 1.71243e-19)
(4.73922e-05 7.9908e-06 4.54532e-20)
(2.04551e-05 -3.33191e-05 1.6541e-18)
(0.000837483 2.39534e-05 0)
(3.28079e-05 1.58762e-05 -1.91924e-19)
(0.00014529 0.00023177 0)
(3.22957e-05 -1.31129e-06 0)
(2.67822e-05 -2.01996e-06 0)
(0.000796081 0.000124899 1.13105e-20)
(0.000814841 6.26271e-07 1.77764e-19)
(3.37853e-05 0.00031453 -5.37381e-24)
(0.000161526 0.000278475 -1.84366e-18)
(0.000590825 0.000338741 -8.57836e-20)
(0.000885971 0.000128752 6.03328e-19)
(0.00070918 -0.000403598 6.68794e-19)
(0.000324853 0.00111391 0)
(0.000454789 0.000556242 2.71711e-18)
(9.70714e-05 0.000154128 -1.80235e-18)
(3.83342e-05 4.89468e-07 0)
(0.000825052 -2.62229e-05 3.6108e-20)
(2.08268e-05 4.35855e-05 1.64617e-18)
(0.000895399 2.59233e-05 2.71589e-19)
(5.94637e-05 -0.000182701 3.78913e-18)
(0.000923492 4.11694e-05 -2.69388e-19)
(0.00140584 0.000123561 7.47741e-19)
(4.52034e-05 -1.26541e-05 8.26573e-20)
(4.48908e-05 7.78748e-06 -8.59255e-19)
(4.79571e-05 0.000156747 0)
(0.000887879 8.74838e-05 5.98393e-19)
(0.000483936 0.000370924 2.37363e-19)
(0.000786498 1.71359e-05 -3.88574e-20)
(0.000749279 -1.61765e-05 2.55828e-19)
(0.000707954 -0.00023057 0)
(0.00632092 0.0108975 -1.68026e-19)
(0.00637726 0.010973 4.05894e-19)
(0.00615811 0.0107259 -6.18406e-19)
(0.00650393 0.0111287 -8.07348e-20)
(4.13003e-05 0.000124045 8.01344e-19)
(0.000888479 5.65016e-05 1.56451e-22)
(0.00640432 0.0109998 -3.86867e-19)
(0.00628072 0.0108452 5.47741e-19)
(0.00608019 0.0106693 -4.15106e-19)
(0.00653081 0.0111641 -6.80163e-20)
(9.18509e-05 0.000562132 -2.02103e-20)
(0.000164406 -0.00018648 -7.9311e-19)
(0.00077229 -6.33334e-06 -7.59482e-19)
(0.000709153 0.000219654 0)
(0.000780122 1.5002e-06 0)
(0.000184393 0.000393374 3.36608e-19)
(0.000598084 0.000554908 -5.41948e-19)
(1.97825e-05 -2.90481e-06 1.78586e-19)
(0.000209758 0.000463684 -7.39069e-19)
(0.00100371 0.000974428 -1.12813e-19)
(0.000725067 0.000171922 0)
(0.000772449 0.000169334 1.31151e-19)
(0.0063747 0.00587595 1.12869e-18)
(0.000710516 0.00114363 8.28696e-20)
(4.45319e-05 4.40745e-05 -7.45472e-20)
(0.00081508 4.53004e-05 0)
(0.000871894 2.07513e-05 -3.5736e-20)
(4.33795e-05 5.97726e-06 -1.96843e-19)
(3.73308e-05 7.41204e-06 1.93151e-19)
(0.000818741 2.00793e-05 5.36313e-19)
(0.000957676 0.000104676 6.592e-19)
(0.000680629 4.34896e-05 0)
(0.000224122 -0.000300185 -3.98788e-19)
(0.000890289 0.00014313 3.90082e-19)
(3.63578e-05 -8.23528e-05 2.03332e-19)
(0.00144994 0.000369143 -2.58541e-18)
(0.000708413 -6.34465e-07 0)
(0.000776713 0.00014009 3.75907e-19)
(9.078e-05 0.000408088 0)
(0.00118081 0.00816782 4.62165e-19)
(0.000464544 0.000508571 -1.22516e-18)
(0.000538514 0.000970571 -1.83916e-19)
(0.000862889 2.54018e-05 -1.45624e-19)
(1.86709e-05 3.06334e-05 0)
(0.000912665 7.31574e-05 6.12379e-19)
(0.00408499 0.00737971 8.08769e-20)
(0.0041677 0.00748053 4.73559e-20)
(0.00449524 0.0075079 4.54399e-19)
(0.00444239 0.00754157 -3.21464e-19)
(0.00647573 0.0111108 8.0812e-20)
(0.00390334 0.00715082 -1.34461e-21)
(0.00551271 0.00779222 -5.64772e-19)
(0.00408755 0.00737182 5.20778e-21)
(0.00518949 0.0078528 5.11621e-19)
(0.00406833 0.00733042 -4.80167e-20)
(0.00495217 0.00771061 0)
(0.00407112 0.00734345 -8.49305e-20)
(0.00473833 0.00758333 4.92663e-19)
(0.00408121 0.00736209 8.67785e-20)
(0.00457196 0.00752042 0)
(0.00428119 0.00744399 1.7164e-19)
(0.00424193 0.00760289 5.87397e-19)
(0.00446667 0.00752399 -5.45589e-19)
(0.00438611 0.00750062 3.71051e-19)
(0.00423715 0.00753448 2.61785e-19)
(0.00642626 0.0110385 -5.08259e-21)
(0.00409823 0.00739037 3.10079e-20)
(0.00645216 0.0110683 0)
(3.03437e-05 9.03318e-06 -1.90059e-19)
(0.00198112 0.00652631 2.2854e-19)
(0.000843638 -9.60841e-06 1.09062e-19)
(0.000854994 1.89434e-05 0)
(3.69413e-06 3.7859e-06 -3.99532e-19)
(7.43981e-05 -0.000200061 6.92721e-19)
(2.43854e-05 6.52092e-05 2.09038e-18)
(0.000807768 0.000186817 -9.01825e-20)
(0.000773366 1.03972e-05 6.98608e-19)
(4.18137e-06 -4.33599e-06 3.10323e-19)
(2.71946e-05 -4.42572e-05 -1.84728e-18)
(0.000742897 2.37525e-05 1.61589e-19)
(0.000847873 0.00012706 -3.07565e-20)
(0.00077023 -6.95788e-06 1.46798e-19)
(0.000405996 0.000655484 0)
(0.00012023 -0.000152724 1.15278e-18)
(0.000840995 1.83592e-05 1.52373e-19)
(2.36582e-05 2.87939e-05 0)
(0.000103683 0.000565995 -6.31755e-19)
(0.000606387 0.000600715 1.3181e-18)
(0.000340832 0.000727161 0)
(0.000768344 -1.45483e-05 0)
(0.000775781 2.91899e-05 1.15816e-18)
(2.40246e-05 5.41045e-05 -3.51789e-18)
(2.16724e-05 1.0688e-05 3.74014e-19)
(0.000113449 0.000156129 0)
(6.27976e-05 -4.48202e-05 0)
(7.06227e-05 0.000122465 2.01167e-19)
(0.000906593 0.000173059 3.50841e-19)
(0.000795552 -3.58131e-06 -1.38483e-18)
(2.68193e-05 3.9567e-05 0)
(0.000578394 5.83871e-05 -6.022e-20)
(0.00078204 3.23452e-05 -1.54812e-19)
(0.000826353 1.40508e-05 1.02912e-18)
(0.000254322 0.000546826 6.32808e-19)
(0.00083613 0.000146543 0)
(3.1343e-05 -3.18784e-05 5.39244e-19)
(4.509e-06 -1.43821e-05 -3.20288e-19)
(0.00109323 1.16742e-05 0)
(0.000995272 0.00221274 0)
(0.00103758 -5.58832e-05 0)
(0.000979447 0.000193105 4.27689e-19)
(0.000821052 -1.67278e-05 -2.81977e-19)
(0.000897641 0.000122396 -6.85577e-19)
(0.000777352 7.10476e-06 0)
(4.45653e-05 7.81441e-05 -1.71745e-19)
(0.000172963 0.000331332 1.08217e-18)
(0.000783434 3.64223e-05 1.30856e-23)
(0.00106502 0.000187888 -6.69118e-19)
(0.00108034 0.000117026 0)
(3.70512e-06 1.25742e-05 2.51294e-19)
(2.60952e-05 -2.11188e-05 -1.94519e-19)
(0.000671484 3.09143e-05 6.88903e-21)
(4.65779e-05 -0.000110772 0)
(0.0010262 0.000249443 9.51516e-19)
(0.00502695 0.00974348 -2.83695e-19)
(0.00311684 0.00962371 1.27342e-18)
(8.54681e-05 -0.000121541 -1.91556e-19)
(8.47085e-05 -8.35631e-05 1.8616e-18)
(0.00118822 0.000221942 1.67077e-19)
(0.00131721 0.00105929 2.34296e-19)
(0.000825219 8.42693e-06 -7.31143e-19)
(0.000216789 0.000937414 -2.39113e-19)
(0.000782227 0.000883319 -2.18778e-19)
(0.000780937 -9.51691e-06 0)
(0.000101419 0.000690352 0)
(9.85767e-05 0.000287619 -4.87356e-23)
(0.000754168 -2.11063e-05 -1.96979e-23)
(0.000808156 2.20011e-05 1.51424e-19)
(0.00261766 0.00203106 -1.23133e-18)
(0.00175434 0.00924222 -1.17294e-19)
(0.000818852 2.79391e-05 4.84685e-19)
(0.00636244 0.00403802 -1.75264e-19)
(0.00675849 0.0115593 -1.28578e-20)
(0.00473244 0.00785944 4.58736e-21)
(0.000798785 3.97671e-05 -2.17621e-18)
(0.000819776 3.58187e-05 -7.08068e-24)
(1.56805e-05 -1.21785e-05 -3.48365e-19)
(4.895e-05 0.000100001 -3.49643e-19)
(8.17853e-05 0.000284053 8.76708e-19)
(1.58777e-05 2.06977e-05 4.90928e-19)
(9.11915e-05 0.000241545 3.7013e-19)
(0.000818772 3.77021e-05 0)
(0.00535022 0.00948606 1.98285e-20)
(0.00151541 0.000615475 -2.62005e-20)
(0.000821888 2.20123e-05 3.5589e-19)
(6.44324e-05 -9.59259e-05 0)
(0.00184805 0.000751143 5.46045e-19)
(1.3966e-05 1.12678e-05 -2.70442e-19)
(3.95462e-05 3.43816e-05 9.72855e-20)
(0.00131873 0.00137616 6.37088e-19)
(0.00075799 3.18662e-05 1.81086e-19)
(1.24471e-05 -3.42027e-06 -1.70388e-19)
(0.00203304 0.00154503 -1.05676e-18)
(0.000128508 0.000189153 -8.19547e-19)
(0.00392278 0.00847547 -1.09109e-18)
(1.12026e-05 3.0158e-06 8.82362e-20)
(0.000206965 -0.000322829 -1.24642e-18)
(6.73645e-05 -6.11223e-05 4.0609e-20)
(0.00149424 0.000961585 0)
(0.00101552 0.000143349 -4.24884e-22)
(0.000441379 0.000855999 -4.02557e-20)
(0.000804616 2.01056e-05 -2.3164e-19)
(8.68122e-05 0.000196079 7.36126e-19)
(5.3492e-05 -7.26732e-05 4.04472e-19)
(2.24516e-05 1.92806e-05 -9.48109e-20)
(3.90719e-05 0.000105159 -3.20602e-19)
(0.000195091 -0.000356913 -5.39989e-19)
(0.00323363 0.00342858 2.94888e-21)
)
;

boundaryField
{
    back
    {
        type            empty;
    }
    ingreso
    {
        type            fixedValue;
        value           uniform (0.0008 0 0);
    }
    salida
    {
        type            zeroGradient;
    }
    front
    {
        type            empty;
    }
    defaultFaces
    {
        type            noSlip;
    }
}


// ************************************************************************* //
