/*--------------------------------*- C++ -*----------------------------------*\
  =========                 |
  \\      /  F ield         | OpenFOAM: The Open Source CFD Toolbox
   \\    /   O peration     | Website:  https://openfoam.org
    \\  /    A nd           | Version:  7
     \\/     M anipulation  |
\*---------------------------------------------------------------------------*/
FoamFile
{
    version     2.0;
    format      ascii;
    class       volVectorField;
    location    "55";
    object      U;
}
// * * * * * * * * * * * * * * * * * * * * * * * * * * * * * * * * * * * * * //

dimensions      [0 1 -1 0 0 0 0];

internalField   nonuniform List<vector> 
591
(
(0.000822948 -3.16107e-05 1.21829e-18)
(0.000808834 -2.78155e-05 -6.6357e-19)
(0.000855981 -2.34797e-05 5.69119e-20)
(0.00085215 -4.07415e-06 -1.4917e-19)
(0.000835064 8.96397e-06 2.25361e-19)
(0.000800222 -4.04523e-05 -1.39663e-19)
(0.000551617 -0.000325778 8.06422e-19)
(0.000801582 3.0064e-06 2.06522e-18)
(0.00573607 0.00249472 9.87734e-19)
(0.000793377 -1.52336e-05 2.45073e-18)
(5.15956e-05 0.000172955 1.21846e-18)
(0.000921172 0.00136867 9.41171e-21)
(0.000797288 6.60728e-06 1.31755e-18)
(0.00160223 0.00238105 -7.87846e-19)
(0.00080281 4.48472e-06 -4.38442e-19)
(8.13658e-05 -0.000221187 2.50788e-22)
(0.000134582 0.000676665 7.05138e-19)
(0.000819473 5.29919e-05 -4.89921e-19)
(0.00193947 0.000386774 4.73211e-19)
(0.00135522 0.000258773 -2.47181e-19)
(0.000833185 -1.26469e-06 3.7201e-19)
(0.00340005 0.0065589 -8.15266e-20)
(2.97441e-05 7.23367e-05 2.71002e-19)
(0.000833411 -8.28e-06 -4.50238e-19)
(1.35161e-05 -1.81854e-05 3.59015e-19)
(0.000765273 2.99045e-05 0)
(9.2159e-05 0.000477051 1.59991e-19)
(0.000533045 1.75085e-05 -1.78886e-19)
(0.000750798 4.95525e-05 1.14982e-18)
(0.000814916 3.63646e-05 5.91928e-19)
(6.08508e-05 -2.81319e-06 -3.96326e-24)
(3.71659e-05 -4.90713e-05 3.52262e-19)
(3.99161e-05 -3.39732e-06 -4.64338e-20)
(4.85687e-05 -1.14548e-05 0)
(5.76635e-05 -1.34566e-05 1.13174e-18)
(0.00117301 0.000129216 1.79937e-19)
(3.42177e-05 -5.95826e-06 4.47254e-20)
(0.000827039 9.75901e-06 3.12489e-23)
(2.9341e-05 4.60244e-05 2.66091e-19)
(2.68773e-05 -0.000117387 -8.54838e-19)
(0.000616683 -0.000202809 9.59802e-19)
(2.78162e-05 -7.60565e-06 4.54933e-20)
(0.000796495 -2.48348e-06 -1.57809e-18)
(0.000828166 3.5382e-05 -6.88761e-19)
(1.93418e-05 -9.03245e-06 0)
(5.77368e-05 8.27505e-06 8.52069e-20)
(0.00134097 0.00450747 8.93094e-19)
(7.92804e-05 1.84273e-05 8.63818e-20)
(0.000798332 1.83795e-05 0)
(0.000376331 -0.000188764 6.77897e-19)
(0.000377607 0.00027633 5.12012e-21)
(0.00039025 5.695e-05 -1.00403e-18)
(0.00634823 0.010942 -7.68327e-19)
(0.00622506 0.0107973 1.52781e-20)
(0.00561453 0.0103807 1.45559e-18)
(0.000810854 2.05042e-05 0)
(6.95388e-05 3.33598e-05 0)
(0.000318237 2.17052e-05 1.19707e-23)
(6.59811e-05 1.21934e-05 -3.46537e-19)
(0.000817659 -8.10231e-06 0)
(0.000626701 2.83606e-05 3.17648e-19)
(0.000827676 1.81925e-06 2.21076e-18)
(0.000791889 2.10372e-05 -5.44309e-19)
(0.000798054 1.72165e-05 -3.1583e-19)
(0.00171604 0.000471256 5.42286e-19)
(0.000793031 7.28045e-06 -1.15503e-18)
(0.000823534 1.02493e-05 -5.24195e-19)
(8.51714e-05 -3.71774e-07 -1.73451e-19)
(0.000687334 0.00226859 0)
(0.000829601 3.05328e-05 0)
(0.000771036 1.52215e-05 -1.38988e-18)
(4.00387e-05 1.72894e-05 0)
(0.000286177 0.000273235 3.26906e-19)
(4.38202e-05 -1.82483e-05 0)
(4.46903e-05 -6.1939e-06 1.59509e-19)
(2.08814e-05 -4.87233e-05 -3.36754e-20)
(0.000783185 7.34063e-05 2.47076e-19)
(4.65745e-05 1.18285e-05 0)
(0.000794699 5.70287e-05 4.47436e-19)
(0.000764929 0.000294781 2.10774e-19)
(0.00096513 6.06521e-05 -3.98038e-20)
(4.50178e-05 2.47188e-05 -4.51966e-20)
(6.44197e-06 -2.88619e-05 0)
(0.000428783 0.000219455 1.7022e-19)
(2.81098e-06 2.60128e-05 0)
(0.000779928 3.31549e-05 -6.08303e-19)
(0.000590655 -0.000120587 0)
(6.83319e-05 -2.25998e-07 -1.74519e-19)
(4.31185e-06 -3.93696e-05 0)
(0.000822111 0.000244516 -3.41347e-19)
(4.45747e-06 -1.74287e-05 0)
(0.00041954 0.000324285 -1.28345e-23)
(0.000522893 0.000113841 0)
(0.000800586 4.76394e-05 -3.85797e-24)
(2.92568e-06 1.68482e-05 -4.2181e-20)
(0.000446762 -6.11443e-06 1.76398e-18)
(0.00102394 7.25275e-05 4.16137e-20)
(0.000864722 4.32905e-05 6.4096e-22)
(0.000733616 0.000657204 2.69553e-19)
(6.37249e-06 5.37104e-05 0)
(3.46176e-06 -6.41978e-05 -3.1239e-19)
(-9.55377e-06 -0.000119366 -1.09991e-18)
(3.46984e-06 8.47054e-05 -5.96341e-19)
(0.000643914 -1.59776e-05 0)
(7.41163e-06 0.000110215 0)
(0.000802498 1.89063e-05 2.19965e-18)
(0.000779846 2.08029e-05 1.52893e-18)
(0.000415333 -6.4789e-05 0)
(4.51768e-05 0.000223077 -8.95511e-19)
(-8.99525e-07 0.000179256 4.96583e-19)
(6.63547e-05 0.000424839 6.25126e-19)
(0.000302147 9.1042e-05 -9.37286e-19)
(0.000803422 1.88558e-05 1.37374e-19)
(0.000262967 -2.92749e-05 5.31345e-19)
(4.00591e-06 3.6551e-05 0)
(2.51401e-05 0.000295918 -1.09395e-18)
(0.000317506 0.000326217 -1.61733e-19)
(3.77931e-06 -5.13528e-05 1.46584e-19)
(0.000668845 0.000811929 0)
(0.00036503 0.000390334 5.7452e-20)
(0.000811184 8.72177e-06 1.07038e-18)
(0.000797859 5.45554e-07 -2.6886e-18)
(7.22477e-06 -7.25041e-05 0)
(0.000689478 -2.82802e-05 -1.12348e-19)
(0.000319794 -9.55155e-05 1.24353e-18)
(0.0026516 0.000798449 -3.35998e-19)
(3.9363e-06 0.000140977 -6.13167e-19)
(1.64164e-06 0.000171863 1.6193e-18)
(0.000742435 2.05192e-05 -3.89863e-20)
(6.69781e-05 -1.18817e-05 -7.50341e-19)
(0.000801511 2.4319e-05 -3.88475e-19)
(0.000790385 2.61158e-05 -4.1035e-20)
(4.1904e-05 0.000342541 -5.96815e-19)
(0.000479204 7.27667e-05 -4.94038e-19)
(5.17001e-05 -2.86198e-06 1.5619e-19)
(0.000827023 2.11702e-05 -1.08865e-18)
(0.00158023 0.000234692 -1.13659e-18)
(3.50992e-06 6.78298e-05 4.96429e-19)
(0.000806987 2.05049e-05 -4.95161e-19)
(0.000901403 0.000540114 -7.8527e-20)
(0.000139903 0.000802203 0)
(0.000573116 6.58209e-05 0)
(0.000274021 5.83547e-05 -1.61003e-18)
(6.50203e-05 6.08962e-05 -1.3744e-18)
(3.23084e-05 2.17954e-05 0)
(0.00424716 0.00740011 -1.01959e-20)
(0.0042255 0.00737161 3.16314e-20)
(0.00442765 0.00757437 -4.95804e-21)
(0.00420668 0.00773598 0)
(0.00419908 0.00760151 5.77081e-19)
(0.00424435 0.00740111 -9.19527e-20)
(0.00421026 0.00804399 4.84296e-19)
(0.00428954 0.00742172 0)
(0.00420838 0.00853762 6.16572e-19)
(0.00432614 0.00745019 2.23852e-19)
(0.000817277 6.88652e-07 -1.37271e-18)
(0.0007623 5.10371e-05 0)
(0.000215435 5.86332e-05 1.27716e-19)
(5.24845e-05 1.72029e-05 8.72045e-20)
(7.9864e-05 4.72724e-05 6.80171e-19)
(0.000108098 4.42104e-05 -3.41744e-19)
(0.000103117 8.1874e-06 0)
(5.06157e-05 5.74466e-06 8.1855e-20)
(0.000205368 0.000137381 0)
(0.000167404 4.7597e-05 -5.24377e-20)
(0.000340752 0.000225752 -5.09352e-21)
(5.75191e-05 4.49691e-05 -4.37753e-19)
(9.29447e-05 2.99707e-05 -8.52663e-20)
(9.20798e-05 6.4567e-05 1.31223e-21)
(0.000252489 0.000368902 -6.66295e-19)
(0.000107271 0.00101429 0)
(4.33731e-05 5.4601e-05 3.43138e-19)
(0.000205058 0.00175783 0)
(0.000207111 0.000256294 7.04795e-19)
(4.05058e-05 -4.28007e-06 1.11521e-19)
(0.000477597 0.00016626 -1.72337e-19)
(0.000754279 2.58871e-05 -1.92459e-18)
(4.50708e-05 -9.47182e-07 4.3287e-24)
(0.000151136 2.87515e-05 2.24637e-19)
(0.000242592 9.76202e-05 -8.99519e-20)
(0.000880539 0.000709159 3.35006e-19)
(0.000718272 0.00163123 -9.23785e-21)
(0.000385855 0.00142814 -9.39135e-21)
(0.00102114 0.000551779 0)
(0.000106319 -1.35755e-05 1.11897e-18)
(0.000118915 1.95048e-05 -4.43248e-20)
(0.000445146 -0.000285225 -1.13599e-18)
(0.000808309 3.44908e-05 0)
(0.000183365 9.56436e-06 3.63374e-19)
(0.000300971 0.00132155 0)
(0.00106512 0.000768342 -7.30347e-20)
(0.0008249 3.5827e-05 -1.86394e-19)
(8.14638e-05 -2.01346e-05 -3.00053e-19)
(0.000820502 0.000320267 -2.08095e-20)
(6.19559e-05 -2.15789e-05 -5.99646e-19)
(0.000226032 0.000178861 8.64045e-20)
(0.000228393 0.000310794 -3.45077e-19)
(0.000879431 0.000244695 0)
(0.000808863 4.85394e-05 0)
(0.000261473 0.00014205 1.76883e-19)
(0.000234413 8.24442e-06 1.76456e-24)
(0.000184399 0.000208955 0)
(0.000288327 0.000654702 -5.55801e-21)
(0.000341581 4.09905e-06 0)
(0.000361653 0.000601259 0)
(0.000110632 8.55425e-05 -1.347e-21)
(0.000809884 2.20834e-05 -9.39875e-19)
(0.00080958 1.76539e-05 7.93524e-19)
(0.000130551 6.12565e-05 -1.49889e-19)
(0.000951337 0.000152473 8.50833e-20)
(0.000832775 4.50231e-05 3.32965e-19)
(0.000812043 2.32286e-05 -2.92947e-19)
(0.00101016 0.000409507 0)
(0.000434141 0.000123225 6.24576e-19)
(0.000892306 0.000318503 2.09186e-20)
(0.000569289 0.000159283 0)
(0.000271551 0.000446447 4.09714e-19)
(0.0002607 0.000220439 -8.4434e-20)
(0.00109345 0.000375893 -7.82243e-19)
(0.000615054 0.000107742 -1.79336e-19)
(0.000802545 7.36606e-05 -7.4529e-21)
(0.000835426 2.96755e-05 9.38898e-20)
(8.71898e-05 -8.8368e-05 -1.98182e-18)
(0.000734027 0.000382387 2.1928e-19)
(0.000659668 6.19437e-05 2.30667e-20)
(0.000701176 0.000278594 1.59146e-23)
(0.000724195 0.000457742 -4.09714e-19)
(0.000841148 3.50507e-05 9.0659e-20)
(7.34367e-05 8.29845e-05 0)
(0.000650881 0.000417445 -4.65902e-20)
(0.000184268 0.000100005 0)
(0.000373323 0.000502245 -2.64882e-19)
(0.000309371 0.000171714 0)
(0.000669498 0.000203164 3.55311e-19)
(0.000643527 0.000261365 -4.37351e-20)
(8.21705e-05 0.000106266 6.19294e-19)
(0.000874148 9.14461e-05 -1.61929e-18)
(5.99394e-05 2.36414e-05 2.5725e-19)
(0.000879377 6.19373e-05 -1.68286e-18)
(0.000834257 8.51803e-05 1.63112e-19)
(0.000806214 2.94087e-05 1.89772e-18)
(0.000808199 2.98463e-05 -1.30021e-19)
(0.000729148 7.35552e-05 0)
(0.000806224 2.90672e-05 8.95855e-19)
(0.000949905 0.00022917 -4.27208e-19)
(0.000764211 8.8766e-05 -4.83791e-19)
(0.000774705 0.000228528 -8.81439e-20)
(0.00022212 -0.000147942 -2.07992e-18)
(0.0007373 8.25818e-05 8.87355e-19)
(0.000638402 0.000596964 0)
(0.000103702 -0.000111594 0)
(0.0012098 0.000470577 4.97231e-19)
(0.00066973 -6.57169e-05 -3.23491e-18)
(0.00133283 0.000426447 5.76157e-19)
(0.00123239 0.000719146 -6.38398e-20)
(0.000804948 3.2464e-05 -2.10829e-19)
(0.000829309 6.81485e-05 -1.42426e-18)
(0.000813776 2.14633e-05 1.57059e-18)
(0.000815124 2.98228e-05 9.6725e-20)
(0.000666768 0.000350008 -4.40496e-20)
(0.000103001 0.000127773 5.27553e-24)
(0.000740789 -4.73625e-05 2.6516e-19)
(0.000225106 -0.000245649 -7.33104e-19)
(0.000615444 0.000188195 0)
(0.00069912 3.84075e-05 9.90656e-20)
(0.000679822 1.03612e-05 -3.80907e-19)
(0.000385237 0.000174116 3.93442e-20)
(0.000800214 0.00050224 -1.65508e-19)
(0.000150713 7.97927e-05 2.88611e-25)
(0.000807849 0.000406859 0)
(0.000972954 0.000320598 4.15869e-20)
(0.000746446 -8.22393e-05 -6.16476e-19)
(0.000344523 0.000109895 4.97895e-19)
(0.000901489 0.000422867 0)
(5.12239e-05 3.30184e-05 1.33741e-19)
(0.000477748 0.000270211 2.13993e-19)
(0.000484271 -0.000134599 -7.09585e-19)
(0.000149922 -0.000151073 -1.05892e-18)
(0.000820449 2.70261e-05 -4.78966e-19)
(0.000785599 -0.000100252 -1.94244e-19)
(0.000554059 0.000726836 -1.1746e-18)
(0.000840416 4.56579e-05 -6.73363e-20)
(0.000667624 -2.70564e-05 1.26201e-18)
(0.000691259 9.93056e-05 2.27838e-20)
(0.000524419 0.000212817 -1.65717e-19)
(3.47941e-05 -2.3002e-05 -8.76029e-20)
(0.000176344 -3.69951e-05 2.40663e-18)
(2.17782e-05 8.35504e-07 -1.94872e-19)
(0.000816387 0.000106803 3.63699e-19)
(0.000652328 0.000137555 0)
(0.000192706 -7.41999e-05 -1.04832e-18)
(0.00012514 -1.31815e-05 3.12977e-19)
(0.000116316 -3.3991e-05 8.33642e-24)
(0.000791271 0.000108809 -3.19337e-19)
(0.000155966 -8.54677e-06 0)
(0.000578947 0.000243102 0)
(0.000111166 0.000333378 -3.62918e-19)
(0.000853181 9.97689e-05 2.09748e-18)
(1.77595e-05 1.33513e-06 0)
(0.000871153 5.11919e-05 0)
(4.72851e-05 -2.63499e-05 0)
(0.00081446 4.12401e-05 -4.45603e-21)
(0.000793745 -5.28498e-05 0)
(0.00425992 0.00740624 8.06812e-20)
(0.00436169 0.00748594 1.43256e-19)
(0.000843467 -7.74054e-07 0)
(0.000777019 -5.30292e-05 8.11031e-19)
(0.00015319 0.000128905 1.49238e-19)
(0.00084721 7.14488e-05 8.07897e-19)
(0.000131476 0.000105537 2.34444e-20)
(0.000771838 -3.23977e-05 6.25171e-19)
(3.68223e-05 1.05565e-05 0)
(3.13217e-05 -1.47621e-05 -4.4858e-20)
(0.000888005 5.01335e-05 -4.86694e-19)
(3.75709e-05 -3.36455e-05 -6.69944e-19)
(0.000749232 0.0001195 -4.23342e-20)
(0.000168047 0.000166596 -1.88135e-19)
(0.000812994 2.32499e-05 0)
(0.00468262 0.00815386 9.01502e-22)
(0.000172824 0.000785745 3.33611e-19)
(0.000124764 -5.40618e-05 -9.14724e-19)
(6.59492e-05 -3.51808e-05 -1.169e-18)
(0.000679253 1.53606e-05 1.89903e-20)
(0.000577865 0.000410902 0)
(0.000413306 0.000440243 -2.56378e-19)
(9.33206e-05 -5.74162e-05 1.18391e-18)
(0.000636706 1.17052e-06 7.70439e-20)
(4.44178e-05 2.2402e-06 4.0718e-19)
(0.000683447 -5.68158e-05 1.17195e-18)
(0.000808691 3.11918e-05 -5.96145e-19)
(7.3454e-05 -5.54521e-05 1.70956e-18)
(0.000841753 -1.42871e-05 -5.2505e-24)
(0.000655695 7.58673e-06 -3.76603e-20)
(0.000861715 6.59383e-05 0)
(0.000831276 3.43314e-05 0)
(0.00591702 0.00723687 2.59426e-19)
(2.28039e-05 -1.47156e-06 -1.19598e-19)
(0.000142865 -9.3146e-05 7.731e-19)
(0.000717019 0.00012071 -6.96613e-19)
(2.62167e-05 -2.92692e-07 2.01532e-19)
(0.000602576 -3.20036e-05 -7.24004e-19)
(0.000735207 3.60008e-05 1.55846e-18)
(0.000697607 0.000158635 -3.55518e-19)
(0.00080737 -1.34135e-05 3.60272e-19)
(8.32916e-05 -3.2182e-05 1.11628e-18)
(0.00079748 8.08963e-06 -3.2278e-19)
(0.000861365 4.43019e-05 0)
(0.000535476 0.000303272 4.21102e-20)
(0.000848924 4.9248e-05 -9.45326e-19)
(2.31771e-05 1.74752e-06 9.11313e-19)
(0.000845892 4.65754e-05 9.6572e-19)
(0.000851077 -1.51812e-06 -9.59967e-19)
(0.000735598 -1.95358e-07 -5.69336e-19)
(0.000506229 -6.41439e-05 -5.25777e-19)
(0.00432893 0.00745242 2.46876e-19)
(0.00422367 0.00752954 -2.54385e-19)
(0.00422155 0.00758786 2.66615e-19)
(0.00425582 0.0074105 1.97902e-19)
(0.00084575 -1.87308e-05 1.43898e-19)
(0.00447491 0.00751122 0)
(0.0044029 0.0075165 -3.86588e-19)
(3.50689e-05 -1.66915e-07 -9.9822e-19)
(0.00417066 0.00746927 -6.33446e-20)
(0.00414602 0.00743228 -2.2145e-19)
(0.0060299 0.010607 0)
(0.00654035 0.0111875 3.7116e-20)
(0.00600991 0.0105768 0)
(0.00655605 0.0112111 1.30828e-19)
(0.00599729 0.010601 2.69634e-19)
(0.00659263 0.0112277 1.24553e-20)
(0.00593592 0.0106138 -7.76568e-19)
(0.00662283 0.0111466 8.14678e-21)
(0.00390328 0.00920219 -1.90879e-19)
(0.00418706 0.00748844 3.89621e-21)
(0.00423826 0.007553 7.93305e-20)
(0.00415042 0.0074345 4.11918e-20)
(0.000866445 0.000187727 4.46853e-20)
(1.27332e-05 1.82521e-06 0)
(0.000685071 -0.000134042 0)
(0.000679219 4.46051e-05 0)
(0.00244266 0.00111125 4.25209e-21)
(0.000749549 -3.10398e-05 1.72632e-19)
(4.28983e-05 6.52694e-06 4.54157e-20)
(1.36618e-05 -3.0044e-05 1.65364e-18)
(0.000844526 1.82949e-05 0)
(2.96058e-05 1.37487e-05 -1.91771e-19)
(0.000141598 0.000226734 0)
(2.25799e-05 -1.15498e-06 0)
(1.85721e-05 -1.6217e-06 0)
(0.00081277 0.000132374 1.13644e-20)
(0.000808639 -1.37411e-05 1.78947e-19)
(3.49271e-05 0.000286309 -1.95412e-23)
(0.000159071 0.000275562 -1.84228e-18)
(0.000597432 0.00033234 -8.57175e-20)
(0.00089468 0.000115891 5.99206e-19)
(0.000685479 -0.000275028 6.73349e-19)
(0.000359218 0.00110875 0)
(0.000462546 0.000572796 2.71572e-18)
(9.22142e-05 0.000149747 -1.80333e-18)
(2.75533e-05 2.51558e-07 0)
(0.000818465 -4.98236e-05 3.63317e-20)
(1.79502e-05 3.89319e-05 1.64486e-18)
(0.000900332 2.91773e-05 2.71306e-19)
(5.06625e-06 -5.22723e-05 3.79646e-18)
(0.000929676 3.92848e-05 -2.69125e-19)
(0.00137227 0.000151364 7.47569e-19)
(3.89795e-05 -1.14262e-05 8.25906e-20)
(4.00668e-05 5.00419e-06 -8.5922e-19)
(5.01665e-05 0.00014741 0)
(0.00090155 7.65123e-05 5.98319e-19)
(0.000490599 0.000368796 2.3719e-19)
(0.000703248 1.79501e-05 -3.89165e-20)
(0.000769715 -8.33655e-06 2.56963e-19)
(0.000733443 -0.000202023 0)
(0.00632133 0.010897 -1.68008e-19)
(0.00637905 0.0109744 4.0571e-19)
(0.00616062 0.010732 -6.18273e-19)
(0.00650125 0.0111326 -8.09728e-20)
(3.66325e-05 0.000122065 8.00712e-19)
(0.000909546 5.87149e-05 1.48757e-22)
(0.00641159 0.0110068 -3.8635e-19)
(0.00628238 0.0108468 5.48298e-19)
(0.00608081 0.0106737 -4.16762e-19)
(0.0065218 0.0111651 -6.81284e-20)
(8.24352e-05 0.000521309 -2.01867e-20)
(0.000111602 -0.000203196 -7.92842e-19)
(0.00070395 -1.88884e-05 -7.60218e-19)
(0.00071894 0.000220985 0)
(0.000798675 1.15262e-06 0)
(0.000184514 0.000392719 3.36362e-19)
(0.000595373 0.000525074 -5.41799e-19)
(1.32193e-05 -2.15703e-06 1.78441e-19)
(0.00020398 0.000465919 -7.38534e-19)
(0.00100107 0.000969144 -1.12738e-19)
(0.000736136 0.000167316 0)
(0.000782645 0.000179628 1.31055e-19)
(0.00635552 0.00587447 1.13127e-18)
(0.000739419 0.00112817 8.2675e-20)
(4.10232e-05 4.05506e-05 -7.44872e-20)
(0.000814119 2.3397e-05 0)
(0.000875782 2.61142e-05 -3.57011e-20)
(3.82392e-05 4.22741e-06 -1.96736e-19)
(3.29729e-05 5.67447e-06 1.93031e-19)
(0.000829649 2.27638e-05 5.37072e-19)
(0.000965802 0.000105976 6.58682e-19)
(0.000601928 3.6402e-05 0)
(0.000220481 -0.000311377 -3.98079e-19)
(0.00090881 0.000150678 3.89714e-19)
(2.16611e-05 -7.01926e-05 2.03169e-19)
(0.00143975 0.000428023 -2.58011e-18)
(0.000632983 -4.03236e-06 0)
(0.000785378 0.000144842 3.75573e-19)
(9.3007e-05 0.000401003 0)
(0.00118522 0.00816652 4.62133e-19)
(0.00048129 0.000502401 -1.2248e-18)
(0.000543849 0.00099393 -1.8379e-19)
(0.00087453 2.08004e-05 -1.4601e-19)
(1.51163e-05 2.75285e-05 0)
(0.000932703 7.61721e-05 6.11889e-19)
(0.00410692 0.00739542 8.14045e-20)
(0.00417164 0.00747382 4.7292e-20)
(0.00449837 0.00751377 4.53958e-19)
(0.00444411 0.00754061 -3.28687e-19)
(0.00647513 0.0111096 8.10506e-20)
(0.00391531 0.00714654 -9.66399e-22)
(0.00550656 0.0077944 -5.64635e-19)
(0.0040984 0.00737216 5.21613e-21)
(0.00518678 0.00785455 5.11549e-19)
(0.00408027 0.00734059 -4.86846e-20)
(0.00495188 0.00771417 0)
(0.00408576 0.00736478 -8.56091e-20)
(0.00474057 0.00758566 4.92409e-19)
(0.00409888 0.00737617 8.7484e-20)
(0.00457335 0.00752552 0)
(0.00428356 0.00742027 1.39723e-19)
(0.0042397 0.00759937 5.79926e-19)
(0.00446647 0.00752589 -5.54405e-19)
(0.00438719 0.00750416 3.71291e-19)
(0.00422836 0.00752534 2.88917e-19)
(0.00643062 0.0110433 -4.97307e-21)
(0.00411819 0.00740146 3.11521e-20)
(0.00645865 0.011073 0)
(2.66695e-05 7.04926e-06 -1.89907e-19)
(0.00199733 0.00654251 2.28389e-19)
(0.000842359 -3.40292e-05 1.09673e-19)
(0.000857926 1.35808e-05 0)
(2.36011e-06 2.18293e-06 -3.99212e-19)
(2.04508e-05 -0.000165344 6.9182e-19)
(2.47928e-05 6.01249e-05 2.08948e-18)
(0.000819743 0.00017908 -9.01007e-20)
(0.000797227 1.07769e-05 7.06613e-19)
(2.47664e-06 -2.29052e-06 3.1007e-19)
(2.24486e-05 -3.80539e-05 -1.84615e-18)
(0.000758617 2.79325e-05 1.63202e-19)
(0.000861663 0.000125896 -3.07927e-20)
(0.000798714 -9.88819e-06 1.47912e-19)
(0.000403681 0.000675364 0)
(7.38445e-05 -0.000151628 1.15124e-18)
(0.00085547 1.27962e-05 1.52486e-19)
(2.14099e-05 2.58639e-05 0)
(0.000110551 0.000565035 -6.31336e-19)
(0.000604576 0.000600118 1.31819e-18)
(0.000329223 0.000741528 0)
(0.000798651 -1.79249e-05 0)
(0.000797867 5.01519e-06 1.17482e-18)
(1.98026e-05 5.18696e-05 -3.51579e-18)
(1.86601e-05 8.54858e-06 3.73716e-19)
(0.000115476 0.000150197 0)
(5.23751e-05 -4.26431e-05 0)
(6.4705e-05 0.000116635 2.01047e-19)
(0.000927139 0.000181798 3.5053e-19)
(0.00079944 1.57365e-05 -1.39091e-18)
(2.43978e-05 3.57657e-05 0)
(0.000500113 2.03376e-05 -6.03431e-20)
(0.00080074 4.04475e-05 -1.56389e-19)
(0.000833619 2.88875e-05 1.05869e-18)
(0.000258115 0.000543916 6.32356e-19)
(0.000862541 0.00015452 0)
(2.34871e-05 -2.68726e-05 5.38816e-19)
(3.42992e-06 -8.85892e-06 -3.2005e-19)
(0.00101303 2.79993e-05 0)
(0.00103267 0.00225221 0)
(0.000972674 -1.44843e-05 0)
(0.000994948 0.000203325 4.27302e-19)
(0.000814422 -2.86647e-05 -2.83655e-19)
(0.000919045 0.000112518 -6.84971e-19)
(0.000798405 3.37941e-06 0)
(4.30954e-05 7.27987e-05 -1.71608e-19)
(0.000173773 0.000329413 1.08136e-18)
(0.000796419 2.22588e-05 -5.74927e-24)
(0.00107934 0.000205168 -6.69184e-19)
(0.00108987 0.000121839 0)
(3.0511e-06 8.45992e-06 2.51093e-19)
(2.15645e-05 -1.75977e-05 -1.94363e-19)
(0.000603523 3.52343e-05 6.95215e-21)
(2.40659e-05 -9.29564e-05 0)
(0.00104729 0.000251076 9.50206e-19)
(0.00502878 0.00974975 -2.83016e-19)
(0.00312032 0.00962172 1.27202e-18)
(5.93252e-05 -0.000113221 -1.91347e-19)
(6.73613e-05 -7.86121e-05 1.86004e-18)
(0.00119273 0.000236511 1.67215e-19)
(0.00133209 0.0010796 2.34137e-19)
(0.00081521 4.33994e-07 -7.31694e-19)
(0.000206055 0.00095213 -2.38584e-19)
(0.000804296 0.000915172 -2.18629e-19)
(0.000799087 -4.10169e-06 0)
(8.91725e-05 0.000643086 0)
(9.65749e-05 0.000285251 -4.25827e-23)
(0.0007245 -3.57809e-05 -1.68529e-23)
(0.000818017 5.51967e-05 1.50704e-19)
(0.00262799 0.00206637 -1.23171e-18)
(0.00175841 0.00924273 -1.17146e-19)
(0.000832068 4.06102e-05 4.923e-19)
(0.00632949 0.00404124 -1.75869e-19)
(0.00672084 0.0115576 -1.36451e-20)
(0.00473451 0.00784437 4.92941e-21)
(0.000800255 1.57851e-05 -2.1877e-18)
(0.000831038 1.80611e-05 1.73248e-24)
(1.15363e-05 -9.33902e-06 -3.4811e-19)
(4.73261e-05 9.42008e-05 -3.49365e-19)
(7.1318e-05 0.000276634 8.75583e-19)
(1.28453e-05 1.7994e-05 4.90534e-19)
(8.98461e-05 0.000235413 3.69849e-19)
(0.000822131 2.99827e-05 0)
(0.00534788 0.00949211 1.9507e-20)
(0.00153537 0.000622437 -2.61007e-20)
(0.000820164 2.96597e-05 3.55327e-19)
(4.66679e-05 -8.83178e-05 0)
(0.00184697 0.00073932 5.46198e-19)
(1.12026e-05 8.98101e-06 -2.70225e-19)
(3.62037e-05 3.08748e-05 9.72076e-20)
(0.001318 0.00138768 6.36608e-19)
(0.000737034 4.38251e-05 1.83161e-19)
(7.70585e-06 -2.33897e-06 -1.7025e-19)
(0.00206571 0.00155009 -1.0563e-18)
(0.000126737 0.000183588 -8.1893e-19)
(0.00392112 0.00848762 -1.09113e-18)
(7.51069e-06 2.10637e-06 8.81656e-20)
(0.000161323 -0.000182199 -1.25339e-18)
(5.68864e-05 -5.94125e-05 4.05759e-20)
(0.00153208 0.00097073 0)
(0.00103347 0.000140028 -4.13076e-22)
(0.000454147 0.000851444 -4.02289e-20)
(0.000801998 2.52976e-05 -2.33757e-19)
(8.71743e-05 0.000189865 7.36234e-19)
(4.03888e-05 -6.65672e-05 4.04132e-19)
(1.99983e-05 1.68803e-05 -9.47351e-20)
(3.42082e-05 9.78014e-05 -3.20369e-19)
(0.000201198 -0.000305738 -5.44721e-19)
(0.00325177 0.00345179 2.77621e-21)
)
;

boundaryField
{
    back
    {
        type            empty;
    }
    ingreso
    {
        type            fixedValue;
        value           uniform (0.0008 0 0);
    }
    salida
    {
        type            zeroGradient;
    }
    front
    {
        type            empty;
    }
    defaultFaces
    {
        type            noSlip;
    }
}


// ************************************************************************* //
