/*--------------------------------*- C++ -*----------------------------------*\
  =========                 |
  \\      /  F ield         | OpenFOAM: The Open Source CFD Toolbox
   \\    /   O peration     | Website:  https://openfoam.org
    \\  /    A nd           | Version:  8
     \\/     M anipulation  |
\*---------------------------------------------------------------------------*/
FoamFile
{
    version     2.0;
    format      ascii;
    class       volScalarField;
    location    "7";
    object      p;
}
// * * * * * * * * * * * * * * * * * * * * * * * * * * * * * * * * * * * * * //

dimensions      [0 2 -2 0 0 0 0];

internalField   nonuniform List<scalar> 
4320
(
2.68803e-06
7.15588e-07
2.61506e-06
1.12203e-05
1.11763e-05
1.83188e-06
9.09607e-07
5.61107e-06
9.58339e-06
9.21011e-07
2.20991e-06
6.1008e-06
2.09528e-06
4.18587e-06
1.03164e-05
3.00592e-06
6.7377e-06
1.14263e-05
2.32051e-06
2.77785e-06
2.5487e-06
4.76115e-06
1.10129e-05
2.40662e-06
6.72059e-06
7.04819e-06
6.50123e-06
7.20226e-06
2.51212e-06
1.12076e-05
7.95391e-06
5.93887e-06
3.90133e-06
5.78751e-06
1.20356e-06
8.3785e-07
2.43372e-06
5.22517e-07
1.09025e-05
3.31701e-06
3.64766e-06
7.87543e-06
1.11741e-05
7.32147e-06
1.08873e-05
7.61717e-06
-5.19439e-08
4.25247e-06
1.06771e-05
3.34433e-06
2.16979e-06
2.54758e-06
1.11656e-05
1.05403e-05
9.22123e-06
5.72993e-06
1.00013e-06
5.66998e-06
-1.26927e-08
1.12208e-05
2.66303e-06
1.38267e-06
1.61366e-06
3.11879e-06
1.11152e-05
2.29528e-06
1.11832e-05
1.94624e-06
4.6285e-06
4.35795e-07
5.46931e-06
6.49071e-06
7.21367e-06
8.25885e-06
3.56799e-06
5.19929e-06
7.86524e-07
1.06483e-05
1.12261e-05
1.1119e-05
1.88928e-06
4.90713e-06
7.30332e-06
6.49614e-06
1.12311e-05
1.14598e-06
1.1234e-05
3.38392e-06
1.10053e-05
5.84603e-06
1.10264e-05
1.7394e-06
1.06168e-05
1.1219e-05
2.87731e-06
1.73322e-06
7.40941e-06
2.89231e-06
6.71856e-06
1.06066e-05
1.12376e-05
3.79742e-06
1.61797e-06
4.15625e-06
2.3613e-07
7.38627e-06
7.91434e-06
1.12068e-05
1.08819e-05
6.38896e-06
1.13241e-05
2.66186e-06
8.09761e-06
2.89304e-06
7.30962e-06
1.03751e-06
1.06663e-05
1.03986e-05
1.12442e-05
3.22499e-07
7.97539e-06
7.08505e-06
1.00565e-06
1.06176e-05
3.69604e-06
3.50492e-06
2.01328e-06
3.9162e-06
7.3032e-06
5.84108e-06
8.17583e-06
5.09156e-06
2.75066e-06
4.32652e-06
1.0961e-05
1.12223e-05
2.38404e-06
1.12229e-05
3.92012e-06
1.12096e-05
1.69056e-06
1.6371e-06
1.01193e-07
7.29723e-08
1.09856e-05
8.04161e-06
4.44036e-06
1.12034e-05
3.97807e-06
1.061e-07
3.23205e-06
3.58967e-07
1.07211e-05
1.0591e-05
1.63528e-06
1.20104e-06
1.08627e-05
1.05932e-05
1.12177e-05
1.49345e-06
1.12409e-05
7.03964e-06
4.86384e-07
8.85445e-07
7.40596e-06
1.32859e-06
6.82285e-06
1.0672e-05
8.71733e-06
8.6723e-06
4.0617e-06
1.7679e-06
8.97714e-07
5.53149e-07
1.12004e-05
1.08368e-05
1.09977e-05
7.92692e-06
8.10223e-06
1.85803e-06
1.09264e-05
8.36535e-06
1.09497e-05
1.10993e-05
1.04507e-05
1.03329e-05
1.12428e-05
3.13537e-07
2.72701e-06
1.09873e-05
1.03506e-06
5.03154e-06
1.09646e-05
1.20527e-06
1.11179e-05
7.70684e-06
7.14726e-06
8.34624e-07
1.74905e-06
3.45611e-06
1.09182e-05
2.99277e-06
6.59505e-06
4.57818e-06
8.66878e-06
7.44573e-06
1.00523e-06
1.12392e-05
8.57977e-06
1.10956e-05
4.26984e-06
1.12257e-05
1.08882e-05
1.12412e-05
1.12339e-05
1.12417e-05
1.12307e-05
1.12389e-05
1.10344e-05
1.07623e-05
1.11952e-05
1.87098e-06
1.12188e-05
8.93926e-06
7.1608e-06
1.10632e-05
1.06255e-05
1.00691e-05
1.09528e-05
1.1259e-05
8.25912e-06
1.05622e-05
6.5985e-06
4.36208e-06
7.99623e-06
1.11928e-05
7.8757e-06
3.50356e-06
1.37094e-06
4.56642e-06
1.07164e-05
1.04361e-05
9.21902e-06
2.59427e-06
2.03795e-06
5.63381e-08
1.11012e-05
1.11908e-05
4.06193e-06
3.40166e-06
7.06213e-06
4.08279e-07
5.76557e-06
6.57039e-06
6.4638e-06
2.26722e-06
1.12372e-05
7.96768e-07
7.12278e-06
3.66479e-07
1.94454e-06
1.04438e-05
4.51637e-06
4.37713e-06
1.11568e-05
3.68165e-06
1.11467e-05
8.21392e-07
1.03031e-05
1.12011e-05
4.70705e-06
1.12407e-05
1.76032e-06
6.26008e-06
1.10578e-05
7.25948e-06
1.11879e-05
5.0901e-06
1.12187e-05
1.12436e-05
1.11911e-05
8.22324e-06
6.71871e-06
1.11018e-05
5.14101e-06
7.43818e-06
7.40663e-06
1.12034e-05
6.3512e-06
1.04708e-05
6.56981e-06
5.08834e-06
1.1235e-05
1.19154e-06
1.08303e-05
9.11345e-07
7.1985e-06
7.25609e-07
8.29549e-06
8.21617e-06
1.12384e-05
5.25267e-06
3.60222e-06
1.2137e-06
4.26648e-06
1.04097e-05
5.21202e-06
7.24095e-07
3.54524e-06
1.6416e-06
2.75516e-06
6.44074e-06
1.05053e-05
1.0947e-05
4.92602e-06
9.70223e-07
1.12098e-05
6.22e-06
1.06145e-05
2.77197e-06
7.83285e-06
1.12401e-05
1.11422e-05
1.12444e-05
7.58809e-06
1.12466e-05
8.10683e-06
1.08213e-05
1.043e-05
6.96602e-07
4.48901e-06
3.19493e-06
4.94284e-06
1.1236e-05
1.05774e-05
8.3829e-06
1.04137e-05
1.12161e-05
7.14579e-06
1.12031e-05
6.78252e-06
8.35644e-06
5.87318e-06
1.04858e-05
1.05359e-05
1.1247e-05
1.115e-05
1.08152e-05
1.04919e-05
1.12204e-05
7.64493e-06
6.41856e-06
1.12253e-05
9.78079e-06
5.94858e-06
1.07834e-05
7.65718e-06
8.51323e-06
6.60637e-06
4.78922e-06
1.07112e-05
7.71601e-06
5.58156e-06
1.03658e-05
8.63335e-06
1.19453e-06
1.12329e-05
1.10899e-05
1.1127e-05
5.52575e-06
4.03588e-06
1.07777e-05
6.85576e-06
1.09062e-05
9.2622e-06
1.11686e-05
2.90362e-07
5.14369e-06
1.12233e-05
7.33903e-06
1.12324e-05
9.96807e-06
1.08023e-05
8.22292e-06
1.10117e-05
8.3114e-06
1.1243e-05
1.11841e-05
6.26681e-07
1.1234e-05
5.58723e-07
1.10741e-05
1.12247e-05
1.12205e-05
7.6249e-06
1.12139e-05
3.1251e-06
9.72955e-06
8.53706e-06
6.33058e-06
1.02395e-05
1.05599e-05
1.06392e-05
1.11777e-05
1.12349e-05
9.86124e-06
8.41737e-06
6.1058e-06
7.31092e-07
6.39804e-06
9.29958e-06
1.07486e-05
1.06922e-05
1.11893e-05
8.06264e-06
1.12187e-05
4.94686e-06
1.11526e-05
1.03015e-05
1.01507e-05
4.38514e-07
1.12013e-05
8.02738e-06
1.11823e-05
2.5944e-06
1.06002e-05
9.54271e-06
1.06336e-05
1.12351e-05
1.12103e-05
1.1123e-05
6.54087e-06
1.122e-05
1.10874e-05
1.03701e-05
1.1232e-05
8.31541e-06
7.88767e-07
6.65198e-06
1.09504e-05
4.31533e-06
1.11742e-05
1.0938e-05
1.12339e-05
8.47201e-06
1.11946e-05
6.60065e-06
1.09979e-05
8.17227e-06
1.02929e-05
8.58949e-06
1.0881e-05
1.12224e-05
7.62439e-06
1.06781e-05
1.12404e-05
8.2879e-06
1.02877e-05
1.12101e-05
1.12377e-05
1.11803e-05
1.09639e-05
1.07629e-05
8.19832e-06
1.02169e-05
5.48558e-06
7.61902e-06
1.09792e-05
1.07482e-05
1.12399e-05
8.12056e-06
1.09334e-05
1.05536e-05
1.04658e-05
7.88089e-06
4.38844e-06
5.46347e-06
1.08781e-05
9.7601e-06
1.12241e-05
7.09437e-06
1.12284e-05
6.68603e-06
1.12373e-05
1.10603e-05
1.07457e-05
8.19886e-06
8.37653e-06
1.12091e-05
7.77232e-06
1.04899e-05
1.1217e-05
7.79865e-06
1.09416e-05
1.17578e-05
1.08602e-05
7.37046e-06
1.08104e-05
1.1131e-05
1.08273e-05
1.0538e-05
9.51756e-06
6.49982e-06
1.08419e-05
1.04132e-05
6.21308e-06
5.25128e-06
7.98927e-06
5.32897e-06
1.11349e-05
6.06869e-06
1.09122e-05
1.259e-06
9.42551e-06
2.33887e-06
2.30621e-06
7.25257e-07
7.0835e-07
9.64934e-06
1.09924e-05
7.02995e-06
1.12162e-05
7.09363e-06
1.1213e-05
1.06337e-05
1.10777e-05
1.06166e-05
9.65364e-06
5.87373e-07
1.0707e-05
1.10421e-05
1.06871e-05
1.1236e-05
8.20084e-06
1.1066e-05
8.04609e-06
1.11479e-05
1.30456e-06
1.10529e-05
7.86518e-06
1.12406e-05
7.58244e-06
1.01995e-05
1.12499e-05
1.10023e-05
1.09234e-06
8.27117e-06
1.09095e-05
1.11365e-05
1.09326e-05
1.09454e-05
1.12358e-05
1.07495e-05
1.11849e-05
8.97977e-07
1.04773e-05
7.80421e-06
5.75711e-06
1.10287e-05
1.11657e-05
7.43577e-06
1.76683e-06
1.12404e-05
1.10176e-05
7.73173e-06
6.127e-06
1.0159e-05
1.1044e-05
1.11909e-05
7.95673e-06
1.0786e-05
1.12232e-05
1.107e-05
1.09787e-05
1.11139e-05
8.00136e-06
1.12414e-05
1.11476e-05
1.10283e-05
1.10172e-05
8.07833e-06
1.11409e-05
1.09842e-05
8.24931e-06
1.12302e-05
1.08091e-05
1.07981e-05
7.85398e-06
1.11966e-05
1.08198e-05
7.91595e-06
7.52624e-06
1.11006e-05
2.17979e-06
1.12273e-05
1.10616e-05
5.82535e-07
7.4568e-06
1.08802e-05
8.1073e-06
1.12465e-05
1.08269e-05
1.11636e-05
1.09672e-05
1.10914e-05
1.08472e-05
1.11064e-05
1.107e-05
1.12393e-05
1.1136e-05
6.25894e-06
1.10333e-05
7.87554e-06
7.47443e-06
1.14704e-06
1.1157e-05
1.1145e-05
1.12352e-05
1.12796e-05
1.12294e-05
1.1163e-05
1.07378e-05
1.07964e-05
5.91349e-06
1.12307e-05
5.30231e-06
1.11241e-05
1.11587e-05
1.12403e-05
1.06757e-05
3.55686e-06
7.09902e-06
8.11977e-06
5.06432e-06
1.12439e-05
1.0698e-05
1.10728e-05
1.10701e-05
1.12092e-05
1.12302e-05
8.89327e-06
1.08672e-05
7.80647e-06
4.34091e-07
1.00558e-06
1.11269e-05
1.11937e-05
2.40082e-06
7.77742e-06
1.10404e-05
1.0018e-06
9.99133e-06
1.12359e-05
1.02837e-05
7.49112e-06
1.12129e-05
6.0863e-06
7.00051e-06
1.11828e-05
3.44572e-06
1.12123e-05
7.21596e-06
7.95537e-06
1.12272e-05
1.12107e-05
7.47898e-06
1.12404e-05
7.34097e-06
1.08396e-05
1.12049e-05
1.12169e-05
1.12086e-05
1.08556e-05
1.10865e-05
7.5366e-06
1.1229e-05
1.10957e-05
1.12379e-05
6.94917e-06
1.11431e-05
1.03786e-05
7.6613e-06
7.71717e-06
1.11003e-05
1.1034e-05
1.1201e-05
1.11722e-05
1.11112e-05
1.12112e-05
1.12423e-05
7.5673e-06
1.1134e-05
1.11566e-05
7.75686e-06
1.04843e-05
1.12407e-05
1.12045e-05
1.12154e-05
1.11381e-05
1.08905e-05
7.87727e-06
1.12293e-05
1.11413e-05
1.11769e-05
1.11901e-05
1.11829e-05
1.11894e-05
1.07387e-05
1.12294e-05
1.0415e-05
1.13095e-05
3.6088e-06
1.1202e-05
1.00583e-05
7.53528e-06
1.12018e-05
7.79034e-06
1.11686e-05
1.11671e-05
1.11753e-05
7.66798e-06
1.10067e-05
7.09343e-06
1.12072e-05
5.97953e-06
1.12058e-05
1.11199e-05
6.49546e-06
1.11809e-05
1.11335e-05
1.12291e-05
1.11112e-05
1.11995e-05
1.12355e-05
1.11575e-05
7.39888e-06
1.11162e-05
1.11677e-05
1.85629e-06
2.25578e-06
1.12251e-05
1.12537e-05
1.08052e-05
7.24468e-06
1.12159e-05
1.12333e-05
1.05694e-05
7.14751e-06
1.12298e-05
1.12201e-05
1.83322e-06
5.98879e-06
1.11142e-05
1.12087e-05
1.12119e-05
7.44856e-06
7.5551e-06
7.30858e-06
7.36433e-06
1.0927e-05
1.11414e-05
1.11904e-05
7.02169e-06
7.75057e-06
9.16324e-07
7.45829e-06
1.12334e-05
1.12203e-05
1.12165e-05
1.11946e-05
1.78212e-06
1.10177e-05
7.33536e-06
7.64058e-06
2.63291e-06
1.09013e-05
1.11279e-05
1.11915e-05
7.40536e-06
1.12267e-05
7.18508e-06
7.97524e-06
1.11466e-05
1.121e-05
1.12302e-05
1.12289e-05
1.11564e-05
1.11158e-05
9.68102e-06
1.12334e-05
7.11519e-06
7.50239e-06
1.12271e-05
1.12508e-05
7.63256e-06
1.12053e-05
7.33764e-06
7.5431e-06
7.19618e-06
1.12384e-05
1.12202e-05
1.12236e-05
1.12341e-05
1.11584e-06
1.11873e-05
1.11523e-05
1.12372e-05
7.03159e-06
1.12043e-05
1.0915e-05
1.11967e-05
1.12008e-05
1.11568e-05
1.10442e-05
1.11549e-05
1.10229e-05
1.12333e-05
8.38472e-07
1.12051e-05
1.12214e-05
7.35225e-06
1.11964e-05
1.12267e-05
7.50794e-06
7.31571e-06
7.62676e-06
6.58712e-06
1.12258e-05
1.08139e-05
1.11061e-05
1.12348e-05
7.26663e-06
1.11963e-05
1.11709e-05
7.57765e-06
7.18296e-06
1.12292e-05
1.12339e-05
5.89392e-06
7.50434e-06
7.40595e-06
1.12218e-05
7.10871e-06
1.12284e-05
1.12315e-05
1.12347e-05
7.4385e-06
1.12283e-05
1.11748e-05
1.12153e-05
7.38399e-06
1.12316e-05
1.98241e-06
1.1205e-05
1.1106e-05
1.114e-05
1.12232e-05
1.12323e-05
1.12314e-05
1.11926e-05
1.12288e-05
1.12135e-05
1.11251e-05
1.12307e-05
1.10879e-05
1.11393e-05
1.11809e-05
1.12312e-05
1.12191e-05
6.85494e-06
1.11897e-05
1.09906e-05
1.12266e-05
7.40198e-06
7.04134e-06
1.1219e-05
1.11848e-05
1.12238e-05
1.12145e-05
1.12302e-05
1.12326e-05
1.11322e-05
7.39737e-06
1.12261e-05
1.12275e-05
1.12175e-05
1.11412e-05
7.26411e-06
1.12241e-05
1.12267e-05
7.46083e-06
1.03362e-05
1.11495e-05
6.93411e-06
1.11522e-05
1.11869e-05
7.02718e-06
7.46409e-06
1.11965e-05
1.10885e-05
1.12199e-05
1.12374e-05
7.64675e-06
1.10983e-05
1.11953e-05
1.12009e-05
1.12058e-05
7.25235e-06
1.12014e-05
1.11993e-05
7.27174e-06
1.12385e-05
1.12223e-05
6.91509e-06
1.11623e-05
1.12002e-05
7.45536e-06
1.12125e-05
7.3372e-06
1.10901e-05
7.08021e-06
1.12348e-05
1.10245e-05
1.12352e-05
1.12407e-05
6.6756e-06
1.12052e-05
1.12249e-05
1.12018e-05
1.12372e-05
7.15109e-06
7.31593e-06
1.12071e-05
7.31148e-06
1.1237e-05
6.9148e-06
6.86625e-06
7.15836e-06
1.12421e-05
1.12336e-05
1.11547e-05
1.12091e-05
1.12173e-05
1.1208e-05
7.20266e-06
7.00423e-06
1.11762e-05
7.26612e-06
7.22445e-06
7.044e-06
6.80934e-06
1.12123e-05
1.11283e-05
7.4131e-06
1.12511e-05
1.12043e-05
1.12087e-05
1.12233e-05
7.10615e-06
1.12064e-05
1.11858e-05
7.4153e-06
1.12286e-05
6.198e-06
1.12085e-05
1.12206e-05
2.06674e-06
1.11686e-05
1.11808e-05
1.12071e-05
1.12294e-05
1.12107e-05
6.77925e-06
7.04915e-06
1.11753e-05
7.31215e-06
1.12214e-05
1.12192e-05
1.12143e-05
1.11896e-05
1.0672e-05
6.55694e-06
1.1132e-05
1.11434e-05
7.20383e-06
6.95673e-06
7.0371e-06
1.05721e-05
1.12022e-05
1.12165e-05
6.96873e-06
6.86156e-06
1.12374e-05
6.8834e-06
6.70242e-06
6.62737e-06
1.12249e-05
1.12138e-05
1.11459e-05
7.09712e-06
6.25459e-06
4.6667e-06
1.1218e-05
1.11638e-05
1.11683e-05
6.77756e-06
1.11886e-05
6.80637e-06
1.12132e-05
3.07887e-06
3.1639e-06
1.12085e-05
6.71401e-06
6.74155e-06
1.1232e-05
6.81451e-06
6.62965e-06
6.62216e-06
6.41703e-06
1.12095e-05
6.59553e-06
1.12948e-05
6.68998e-06
6.88612e-06
1.1171e-05
1.12176e-05
6.60759e-06
6.46902e-06
6.69655e-06
6.78702e-06
6.52766e-06
7.72538e-06
6.70591e-06
6.75848e-06
6.466e-06
6.57174e-06
1.11971e-05
6.48588e-06
6.62372e-06
6.66045e-06
6.68088e-06
6.30038e-06
6.7725e-06
6.56882e-06
1.12157e-05
1.11988e-05
1.12963e-05
7.25416e-06
6.42413e-06
6.27021e-06
6.74891e-06
7.59572e-06
6.29576e-06
6.53569e-06
6.4007e-06
6.48274e-06
6.45694e-06
6.60617e-06
6.5342e-06
6.60859e-06
6.60154e-06
5.74266e-06
6.81069e-06
6.42822e-06
6.53865e-06
6.17358e-06
2.58896e-06
6.34894e-06
1.08919e-05
5.81752e-06
6.16502e-06
1.11646e-05
6.04032e-06
6.31575e-06
1.12923e-05
6.27239e-06
6.53076e-06
7.08889e-06
6.0519e-06
6.38649e-06
6.4137e-06
5.93348e-06
6.32404e-06
6.31598e-06
6.24491e-06
6.49236e-06
6.19272e-06
5.83347e-06
5.59134e-06
5.66972e-06
1.12156e-05
5.94825e-06
5.55454e-06
6.08273e-06
6.243e-06
6.5156e-06
5.91282e-06
6.17326e-06
5.95575e-06
4.57672e-06
5.59247e-06
5.76942e-06
6.38184e-06
5.92797e-06
6.45379e-06
5.08728e-06
5.99191e-06
5.68983e-06
5.99433e-06
6.72596e-06
5.77215e-06
2.98131e-06
5.93347e-06
5.40269e-06
5.88508e-06
5.83982e-06
5.9823e-06
6.13989e-06
5.50396e-06
5.71844e-06
5.22596e-06
5.88592e-06
5.06722e-06
5.86254e-06
5.33248e-06
5.86823e-06
5.67e-06
4.99404e-06
5.45118e-06
5.81383e-06
5.77061e-06
5.39791e-06
5.6953e-06
5.6684e-06
5.57861e-06
5.79456e-06
5.89855e-06
5.72832e-06
5.80182e-06
5.47907e-06
5.74705e-06
6.09591e-06
5.77565e-06
5.69402e-06
6.05679e-06
5.65453e-06
5.46544e-06
5.96023e-06
5.70578e-06
5.63286e-06
5.68516e-06
5.53474e-06
5.53953e-06
6.18195e-06
5.47538e-06
5.79978e-06
5.41666e-06
5.54296e-06
6.3079e-06
5.55072e-06
5.58308e-06
5.50586e-06
5.74682e-06
5.64811e-06
5.46349e-06
5.33875e-06
5.42616e-06
5.20648e-06
5.41574e-06
5.531e-06
5.57881e-06
5.62335e-06
5.90924e-06
5.23708e-06
5.25726e-06
5.88177e-06
5.41504e-06
5.3136e-06
5.00394e-06
5.35336e-06
5.14454e-06
5.68692e-06
5.03373e-06
5.30077e-06
5.4663e-06
5.8491e-06
5.39792e-06
5.47818e-06
5.61954e-06
5.14577e-06
5.20191e-06
5.26971e-06
5.30657e-06
5.00415e-06
5.07848e-06
5.13163e-06
5.91816e-06
4.99122e-06
5.09077e-06
5.18067e-06
5.05917e-06
5.22643e-06
4.94189e-06
4.65036e-06
4.9533e-06
5.12472e-06
4.92415e-06
4.91661e-06
4.97974e-06
5.01863e-06
5.52378e-06
5.0785e-06
5.20504e-06
4.47518e-06
5.10876e-06
4.96914e-06
4.86459e-06
4.83075e-06
5.11501e-06
5.02571e-06
1.26938e-06
1.33448e-06
5.04958e-06
4.69577e-06
4.85537e-06
4.92724e-06
4.7717e-06
5.25305e-06
4.87493e-06
4.83581e-06
4.28735e-06
4.7899e-06
4.84026e-06
4.70015e-06
4.68157e-06
5.17468e-06
5.06776e-06
4.89348e-06
4.70168e-06
4.97199e-06
3.99757e-06
4.82707e-06
4.22745e-06
4.85976e-06
4.58812e-06
4.60014e-06
5.06625e-06
4.48353e-06
5.34939e-06
4.06897e-06
4.75987e-06
4.59173e-06
4.67107e-06
4.59316e-06
4.72327e-06
4.73904e-06
4.65649e-06
4.16642e-06
4.07678e-06
4.46264e-06
4.5736e-06
4.73875e-06
4.1756e-06
4.34642e-06
4.35072e-06
4.57504e-06
4.25695e-06
4.46605e-06
4.47084e-06
4.3811e-06
4.25902e-06
4.58046e-06
4.46673e-06
4.38018e-06
4.42403e-06
4.50511e-06
4.31851e-06
5.24159e-06
4.7826e-06
4.56187e-06
4.33845e-06
4.28856e-06
4.73696e-06
4.27323e-06
4.38853e-06
4.28608e-06
4.42074e-06
3.86184e-06
4.26086e-06
4.49289e-06
4.27631e-06
4.26962e-06
3.98582e-06
4.21798e-06
3.98347e-06
4.09632e-06
4.56054e-06
3.91927e-06
4.36498e-06
4.16265e-06
3.90699e-06
4.20787e-06
4.20376e-06
4.40313e-06
4.1517e-06
4.06277e-06
4.19391e-06
4.14497e-06
4.34087e-06
4.08133e-06
4.14411e-06
4.28868e-06
4.07566e-06
4.08395e-06
4.0496e-06
3.91398e-06
4.77551e-06
3.52242e-06
4.20921e-06
3.40574e-06
3.24557e-06
4.34128e-06
4.47162e-06
4.08516e-06
2.5897e-06
4.00991e-06
3.23343e-06
3.34503e-06
3.57773e-06
3.61137e-06
3.96541e-06
2.33674e-06
3.67894e-06
4.11236e-06
3.7896e-06
2.96528e-06
3.51876e-06
3.74195e-06
3.93286e-06
3.89544e-06
2.48382e-06
4.54831e-06
2.3758e-06
4.09715e-06
3.90887e-06
3.91352e-06
2.23918e-06
4.80816e-06
3.33622e-06
3.16731e-06
3.79885e-06
3.81729e-06
3.9562e-06
3.82207e-06
2.69113e-06
2.72934e-06
3.58862e-06
3.36208e-06
3.71252e-06
3.85267e-06
2.79676e-06
3.60196e-06
3.97569e-06
3.87037e-06
3.07042e-06
3.7909e-06
3.71367e-06
2.61503e-06
3.72702e-06
3.80446e-06
4.16687e-06
3.98004e-06
3.88643e-06
3.37119e-06
3.83895e-06
3.68935e-06
3.72382e-06
3.48069e-06
3.71524e-06
3.00669e-06
3.71288e-06
3.69165e-06
3.38908e-06
3.49268e-06
3.64338e-06
3.02737e-06
3.80213e-06
3.6252e-06
3.70174e-06
3.59714e-06
3.91497e-06
3.51006e-06
3.73117e-06
3.60991e-06
3.6053e-06
3.92832e-06
3.51977e-06
3.81617e-06
3.58441e-06
3.69397e-06
3.46172e-06
3.43521e-06
3.48415e-06
3.63101e-06
3.78699e-06
3.94453e-06
3.18843e-06
3.65316e-06
3.47669e-06
3.76555e-06
3.35018e-06
3.49549e-06
3.583e-06
3.17615e-06
3.84099e-06
3.82881e-06
3.95149e-06
3.37672e-06
3.42179e-06
3.6213e-06
3.12014e-06
3.33381e-06
3.47597e-06
2.79835e-06
3.38823e-06
3.23285e-06
3.38095e-06
3.34226e-06
3.2148e-06
3.44756e-06
3.24561e-06
3.39536e-06
3.31693e-06
3.43904e-06
2.84818e-06
3.51082e-06
2.39854e-06
3.16271e-06
4.03104e-06
3.26395e-06
3.23921e-06
3.63819e-06
2.7745e-06
3.29684e-06
3.10387e-06
3.0918e-06
3.2576e-06
3.14378e-06
3.10599e-06
3.08559e-06
3.13711e-06
3.07417e-06
3.12893e-06
3.29006e-06
2.96786e-06
3.39457e-06
3.57314e-06
2.88323e-06
2.91276e-06
2.39229e-06
2.43912e-06
3.00956e-06
3.26118e-06
4.50337e-06
3.01119e-06
2.92106e-06
2.92257e-06
2.6248e-06
3.14322e-06
3.15754e-06
2.74586e-06
2.83877e-06
2.98481e-06
3.12696e-06
3.25201e-06
2.74876e-06
3.27951e-06
2.88516e-06
2.8669e-06
3.91754e-06
2.68331e-06
2.83691e-06
2.24909e-06
2.63594e-06
2.88947e-06
3.00023e-06
2.74456e-06
2.90945e-06
2.76976e-06
2.5671e-06
2.82171e-06
2.84482e-06
2.30266e-06
2.65969e-06
2.66988e-06
2.67851e-06
2.65596e-06
2.52812e-06
3.01226e-06
2.76106e-06
2.63923e-06
2.656e-06
2.20638e-06
2.28034e-06
2.69338e-06
2.37938e-06
2.45558e-06
2.56709e-06
2.51522e-06
2.66041e-06
2.75872e-06
2.55335e-06
2.54172e-06
2.60622e-06
2.72978e-06
2.59059e-06
2.84484e-06
2.4605e-06
2.68593e-06
2.64546e-06
2.64547e-06
2.74408e-06
2.5409e-06
2.42804e-06
2.52778e-06
2.50461e-06
2.43721e-06
2.37202e-06
2.29564e-06
2.36481e-06
2.30133e-06
2.32317e-06
2.03262e-06
1.75277e-06
2.4182e-06
2.31904e-06
2.68666e-06
2.21623e-06
2.20887e-06
2.29798e-06
2.4956e-06
2.23299e-06
2.3524e-06
2.1957e-06
2.33362e-06
2.22126e-06
2.34704e-06
2.12728e-06
1.97895e-06
2.27266e-06
2.22063e-06
2.28737e-06
1.96865e-06
2.15488e-06
2.12512e-06
2.08525e-06
2.19616e-06
2.09994e-06
2.28592e-06
2.31767e-06
2.57185e-06
1.69834e-06
2.13319e-06
2.05925e-06
2.2205e-06
1.82328e-06
1.85413e-06
1.48067e-06
1.96868e-06
1.94351e-06
2.11018e-06
1.90725e-06
3.01243e-06
1.93049e-06
2.06044e-06
1.94549e-06
1.83059e-06
1.8995e-06
2.02996e-06
1.86005e-06
1.91499e-06
1.54784e-06
1.99069e-06
1.84274e-06
1.71747e-06
1.71933e-06
1.15519e-06
1.66594e-06
1.83356e-06
1.61507e-06
1.79143e-06
1.80117e-06
2.12615e-06
1.68054e-06
1.56918e-06
1.66668e-06
1.94949e-06
1.81807e-06
1.89974e-06
2.12025e-06
1.71375e-06
1.43809e-06
2.19485e-06
1.71505e-06
1.56408e-06
1.74295e-06
1.79169e-06
1.60427e-06
1.28855e-06
1.70091e-06
1.71295e-06
1.50734e-06
8.52876e-07
1.59452e-06
1.02412e-06
1.38252e-06
1.59615e-06
1.16982e-06
1.4138e-06
1.81361e-06
1.62737e-06
1.58189e-06
1.44563e-06
1.54496e-06
1.93139e-06
1.49083e-06
1.45113e-06
7.10201e-06
4.49908e-06
1.4829e-06
1.3685e-06
3.82118e-06
1.54172e-06
1.34891e-06
1.40573e-06
4.49658e-06
6.43789e-06
1.34532e-06
8.03008e-06
6.34612e-06
9.39958e-07
1.30121e-06
7.52533e-06
1.37965e-06
1.05356e-06
1.05526e-06
1.30522e-06
9.61331e-07
6.35763e-06
1.28333e-06
1.20305e-06
1.25236e-06
4.70555e-06
1.26715e-06
5.57923e-06
2.0679e-06
5.15381e-06
6.24927e-06
6.47592e-07
8.12102e-06
1.96796e-06
1.20807e-06
7.48222e-06
6.08993e-06
8.23863e-07
5.23048e-06
3.20885e-06
1.01221e-06
8.48534e-07
1.35376e-06
1.49788e-06
1.18971e-06
8.27801e-06
6.8142e-06
1.83084e-06
6.21804e-06
5.15236e-06
3.40928e-07
6.81134e-07
7.22273e-06
1.28514e-06
5.04466e-06
1.46358e-06
4.93314e-06
7.37413e-07
1.36499e-06
3.91457e-06
4.81957e-06
1.26843e-06
3.81016e-06
1.13427e-06
1.80586e-06
5.26331e-06
7.8257e-07
8.62972e-07
1.46821e-06
5.11915e-07
3.94829e-06
1.47132e-06
6.63139e-06
8.35253e-06
6.0103e-07
4.43852e-07
4.79548e-06
7.53606e-06
1.49292e-06
1.26358e-06
9.13148e-07
7.00626e-06
8.18462e-06
5.56793e-06
7.34548e-06
7.07785e-06
6.32814e-06
1.70096e-06
9.50751e-07
1.73394e-06
9.58319e-07
7.62057e-06
7.23382e-06
7.19581e-06
5.96581e-06
6.49904e-06
2.21068e-06
6.49011e-06
9.90655e-07
3.1539e-06
3.64478e-06
6.81877e-06
9.68226e-07
9.22034e-07
1.61829e-06
1.1971e-06
3.71874e-06
8.35674e-07
1.31839e-06
1.08678e-06
5.43806e-06
2.06048e-06
1.03959e-06
1.9721e-06
1.24233e-06
1.47349e-06
1.10069e-06
1.925e-06
1.48775e-06
1.4554e-06
1.35077e-06
1.1469e-06
1.29522e-06
1.10099e-06
5.3064e-06
5.19155e-06
1.35881e-06
1.36781e-06
1.31624e-06
2.48285e-06
2.20868e-06
1.38114e-06
1.54901e-06
1.61165e-06
1.62072e-06
1.93681e-06
3.2655e-06
2.27642e-06
2.56332e-06
2.0667e-06
1.9237e-06
2.13311e-06
2.17902e-06
2.01475e-06
2.37009e-06
2.28604e-06
2.22089e-06
2.05069e-06
2.29519e-06
2.31844e-06
2.15693e-06
2.93344e-06
2.17728e-06
2.43307e-06
3.05019e-06
2.47639e-06
3.2055e-06
3.14414e-06
2.44928e-06
2.54684e-06
2.78917e-06
3.04943e-06
2.75603e-06
2.99773e-06
2.43337e-06
3.04986e-06
2.90707e-06
3.08829e-06
2.93737e-06
3.65838e-06
4.31007e-06
3.53129e-06
3.46825e-06
3.74849e-06
4.08641e-06
4.17692e-06
4.61151e-06
3.76119e-06
4.07608e-06
3.69623e-06
4.19997e-06
4.03278e-06
3.80599e-06
4.07855e-06
4.20313e-06
4.41753e-06
4.40914e-06
4.06729e-06
4.22665e-06
4.53987e-06
4.69686e-06
4.16461e-06
4.65785e-06
4.05032e-06
4.04533e-06
4.77803e-06
4.60749e-06
4.00655e-06
4.48868e-06
4.49692e-06
4.59356e-06
4.18251e-06
4.2928e-06
4.26944e-06
4.18206e-06
4.99236e-06
4.74473e-06
5.07379e-06
4.84403e-06
3.83903e-06
3.83546e-06
4.76836e-06
4.96068e-06
4.77458e-06
5.34924e-06
4.9213e-06
4.64765e-06
5.2994e-06
5.23622e-06
5.42059e-06
5.27984e-06
4.90138e-06
5.20474e-06
5.18686e-06
5.12525e-06
5.68918e-06
5.13271e-06
4.92199e-06
5.29232e-06
5.18932e-06
5.28633e-06
6.06752e-06
5.17921e-06
6.08797e-06
5.68469e-06
6.34571e-06
6.4533e-06
5.00813e-06
5.79408e-06
5.64499e-06
5.75375e-06
5.03394e-06
5.29673e-06
5.48118e-06
5.87108e-06
1.13957e-05
6.35345e-06
5.81816e-06
1.1182e-05
5.13784e-06
4.91918e-06
1.13828e-05
5.87459e-06
6.22209e-06
5.3385e-06
1.11894e-05
5.8437e-06
1.1304e-05
6.01188e-06
4.85436e-06
1.1161e-05
5.91294e-06
5.98174e-06
5.5969e-06
1.13675e-05
5.36838e-06
1.531e-06
5.7613e-06
5.75637e-06
5.81284e-06
5.72894e-06
1.41721e-06
1.55678e-06
5.56593e-06
6.04896e-06
6.10396e-06
6.85838e-06
6.42603e-06
6.01206e-06
1.66059e-06
6.95013e-06
1.12319e-05
6.41873e-06
6.56325e-06
6.6322e-06
6.65569e-06
1.11862e-05
1.09832e-05
1.46578e-06
6.1908e-06
1.1197e-05
5.99966e-06
7.36458e-06
6.11542e-06
7.25722e-06
1.12411e-05
1.11511e-05
1.05189e-05
1.12243e-05
1.25051e-06
1.46256e-06
1.12392e-05
7.17272e-06
1.12237e-05
6.85314e-06
6.9518e-06
6.70378e-06
1.36033e-06
1.12663e-06
1.11686e-05
1.12101e-05
7.2195e-06
1.12372e-05
1.12019e-05
9.49677e-07
6.65613e-06
7.29314e-06
1.12179e-05
1.12223e-05
1.1177e-05
7.72164e-06
1.1254e-05
7.19616e-06
1.12332e-05
1.08615e-05
1.12228e-05
6.78508e-06
1.12405e-05
1.13833e-06
1.1202e-05
1.12107e-05
1.12262e-05
1.12377e-05
7.10208e-06
1.12063e-05
1.11918e-05
1.1245e-05
1.12579e-05
1.12135e-05
7.12395e-06
1.1193e-05
1.12299e-05
1.11862e-05
1.11473e-05
1.11896e-05
1.12287e-05
7.00097e-06
7.4704e-06
1.12408e-05
1.12413e-05
7.75758e-06
1.1209e-05
7.18744e-06
7.94194e-06
1.12079e-05
1.12424e-05
1.12235e-05
1.12099e-05
1.12057e-05
1.11952e-05
7.36194e-06
1.71057e-06
6.95863e-06
1.10951e-05
1.1207e-05
1.11944e-05
1.12e-05
1.12059e-05
1.11086e-05
7.08287e-07
1.12386e-05
4.59798e-06
1.1172e-05
1.11938e-05
7.33946e-06
1.12032e-05
1.12393e-05
6.89526e-06
1.12316e-05
1.12365e-05
1.12413e-05
1.09033e-05
1.12002e-05
1.12042e-05
1.04734e-05
1.12281e-05
1.1199e-05
1.12353e-05
1.11928e-05
1.11592e-05
1.12009e-05
1.12003e-05
1.1199e-05
1.12135e-05
1.12038e-05
1.11738e-06
1.1217e-05
1.12486e-05
1.12375e-05
1.1204e-05
1.11853e-05
1.12089e-05
1.11969e-05
1.12383e-05
1.11972e-05
1.11373e-05
1.11179e-05
1.12049e-05
1.15857e-06
1.11728e-05
1.12376e-05
1.12269e-05
1.23492e-06
1.14138e-06
1.09764e-05
1.11959e-05
7.28089e-06
1.11546e-05
1.11623e-05
1.12322e-05
1.11532e-05
1.12218e-05
1.12351e-05
7.55517e-06
1.12339e-05
1.11716e-05
8.17513e-06
1.11413e-05
1.12003e-05
1.1235e-05
1.11825e-05
1.11632e-05
1.12396e-05
1.11812e-05
1.12376e-05
1.11982e-05
1.12182e-05
1.12094e-05
1.11389e-05
1.11762e-05
1.7773e-06
1.11983e-05
1.12371e-05
1.12076e-05
7.77107e-06
1.12247e-05
1.12328e-05
1.12067e-05
1.11762e-05
1.12076e-05
1.1226e-05
1.11707e-05
1.12139e-05
1.10904e-05
1.12581e-05
1.11547e-05
1.10908e-05
1.12107e-05
1.11965e-05
1.12327e-05
1.12134e-05
1.12356e-05
7.69277e-06
1.1236e-05
1.12117e-05
1.12173e-05
1.12053e-05
1.12219e-05
1.12132e-05
7.61646e-06
1.12245e-05
1.12371e-05
1.12079e-05
1.1209e-05
1.12304e-05
1.1216e-05
1.12176e-05
1.1212e-05
1.11303e-05
1.12352e-05
1.10797e-05
1.11749e-05
1.12284e-05
1.12123e-05
1.12219e-05
1.12262e-05
1.12155e-05
1.12159e-05
1.12021e-05
1.12255e-05
7.60212e-06
1.1232e-05
1.10305e-05
8.06055e-06
1.11996e-05
1.12357e-05
1.09935e-05
1.12347e-05
7.23396e-06
1.12212e-05
1.12139e-05
1.12163e-05
1.12146e-05
1.11553e-05
1.12277e-05
1.12299e-05
1.12316e-05
1.12313e-05
2.12484e-06
1.10008e-05
1.12417e-05
1.12232e-05
1.12307e-05
1.12103e-05
1.12093e-05
1.12264e-05
1.11454e-05
1.1235e-05
1.12319e-05
1.12287e-05
1.1224e-05
1.12335e-05
1.12238e-05
3.21165e-06
1.10835e-05
1.1229e-05
1.12323e-05
1.11829e-05
1.12088e-05
1.11902e-05
1.1226e-05
1.12284e-05
1.12523e-05
1.11435e-05
1.12189e-05
1.12205e-05
1.12225e-05
1.12349e-05
1.11482e-05
7.67738e-06
1.12309e-05
1.11999e-05
1.1223e-05
1.11292e-05
4.85107e-06
1.09371e-05
1.12052e-05
1.11471e-05
1.12312e-05
1.09673e-05
1.12129e-05
1.11485e-05
1.12481e-05
1.11463e-05
1.12062e-05
1.12269e-05
6.09111e-06
1.12166e-05
2.28387e-06
1.12481e-05
1.12122e-05
1.12153e-05
1.12115e-05
1.12117e-05
1.12208e-05
1.12144e-05
1.11175e-05
7.94245e-06
1.12097e-05
7.27915e-06
1.10601e-05
1.12275e-05
2.67413e-06
1.11857e-05
1.11377e-05
1.11475e-05
3.47904e-06
1.12231e-05
1.12213e-05
1.12031e-05
8.45392e-06
1.12154e-05
6.64794e-06
1.11948e-05
1.12285e-05
5.05659e-06
1.12125e-05
1.11947e-05
1.11082e-05
1.12416e-05
1.11974e-05
1.10561e-05
1.11415e-05
1.1195e-05
1.12208e-05
1.06287e-05
1.05482e-06
1.11252e-05
1.12153e-05
1.12206e-05
1.11646e-05
1.1228e-05
1.12316e-05
1.12232e-05
1.12024e-05
1.08456e-05
1.11485e-05
1.12274e-05
1.12117e-05
4.93622e-07
1.12198e-05
1.12095e-05
1.12248e-05
1.10301e-05
1.11944e-05
1.12422e-05
1.12221e-05
1.11858e-05
1.12219e-05
1.10991e-05
1.12257e-05
6.13154e-06
1.12078e-05
1.12297e-05
1.11672e-05
9.33619e-07
1.12066e-05
1.12239e-05
1.12305e-05
2.94092e-06
1.12107e-05
1.11848e-05
1.12169e-05
1.12153e-05
1.07378e-05
1.1141e-05
1.04247e-05
1.12392e-05
1.12088e-05
1.12282e-05
7.00227e-06
1.11943e-05
1.12467e-05
1.1229e-05
1.12118e-05
1.11041e-05
1.12126e-05
1.12086e-05
1.08135e-06
1.11882e-05
1.06596e-05
1.11525e-05
1.12262e-05
7.14081e-06
1.10973e-05
1.12338e-05
1.12101e-05
2.02073e-06
1.09848e-05
1.12441e-05
1.11165e-05
4.99642e-06
1.12078e-05
1.12296e-05
7.31736e-06
1.12235e-05
1.10922e-05
5.17179e-06
1.11958e-05
8.21275e-06
1.12263e-05
1.12182e-05
1.12471e-05
1.11708e-05
1.11269e-05
4.98647e-06
1.11727e-05
1.1204e-05
1.1226e-05
6.4227e-07
1.12241e-05
1.12289e-05
1.11886e-05
1.09988e-05
4.96996e-06
7.58667e-06
7.55193e-06
1.12313e-05
1.11967e-05
1.12138e-05
1.0126e-05
1.12438e-05
1.09667e-05
1.11358e-05
1.11729e-05
1.11953e-05
1.11375e-05
4.26103e-07
1.1185e-05
9.45841e-07
1.12299e-05
1.11766e-05
1.09641e-05
1.122e-05
1.1107e-05
1.12421e-05
1.10775e-05
1.05647e-05
1.12109e-05
7.60722e-06
1.10864e-05
1.12069e-05
1.1223e-05
1.1081e-05
2.38936e-06
2.10775e-08
1.11872e-05
1.10956e-05
1.10737e-05
1.11403e-05
1.12025e-05
1.11917e-05
1.11811e-05
1.07469e-05
1.11707e-05
3.53223e-06
1.12384e-05
1.11163e-05
1.12271e-05
1.11187e-05
1.11267e-05
8.42916e-06
1.11716e-05
1.1206e-05
1.11934e-05
1.12025e-05
1.09721e-05
1.10971e-05
1.12752e-05
1.09597e-05
1.12397e-05
1.1132e-05
6.66581e-06
1.12153e-05
1.11107e-05
1.10829e-05
1.11818e-05
1.11668e-05
1.121e-05
2.55004e-06
1.11575e-05
7.44934e-07
1.11602e-05
1.10917e-05
1.1072e-05
1.11094e-05
1.12112e-05
9.93973e-07
1.10748e-05
1.1214e-05
1.10991e-05
1.10566e-05
6.4392e-06
1.12044e-05
7.46395e-06
6.37746e-06
1.12017e-05
1.10671e-05
1.12459e-05
4.42378e-06
1.1244e-05
1.51942e-06
4.7196e-06
1.12362e-05
1.1251e-05
1.05659e-05
1.05872e-05
8.44429e-06
1.12111e-05
1.08058e-05
1.12076e-05
1.10855e-05
1.09699e-05
1.11433e-05
1.12411e-05
1.105e-05
1.53013e-06
1.11805e-05
1.12058e-05
1.11393e-05
1.11583e-05
9.69244e-07
5.08719e-06
1.12037e-05
1.08884e-05
1.81858e-06
5.10452e-06
1.11697e-05
1.13873e-06
8.14442e-06
1.1127e-05
1.10238e-05
1.36352e-06
7.42554e-06
1.1113e-05
1.12399e-05
8.68823e-06
1.12311e-05
9.83997e-07
1.11489e-05
7.44242e-06
1.11219e-05
1.07954e-05
1.06914e-06
1.12078e-05
1.082e-05
1.11163e-05
1.12049e-05
1.11877e-05
1.10661e-05
1.12331e-05
4.93532e-06
2.47753e-06
4.84721e-06
6.5161e-06
2.23819e-06
1.10898e-05
1.09232e-05
1.06737e-06
2.01263e-06
1.10728e-05
1.08968e-05
6.17043e-07
6.21536e-06
1.12009e-05
1.11273e-05
1.08494e-05
1.11712e-05
2.49704e-06