/*--------------------------------*- C++ -*----------------------------------*\
  =========                 |
  \\      /  F ield         | OpenFOAM: The Open Source CFD Toolbox
   \\    /   O peration     | Website:  https://openfoam.org
    \\  /    A nd           | Version:  8
     \\/     M anipulation  |
\*---------------------------------------------------------------------------*/
FoamFile
{
    version     2.0;
    format      ascii;
    class       volScalarField;
    location    "7";
    object      p;
}
// * * * * * * * * * * * * * * * * * * * * * * * * * * * * * * * * * * * * * //

dimensions      [0 2 -2 0 0 0 0];

internalField   nonuniform List<scalar> 
5490
(
5.06397e-06
5.42333e-06
4.24341e-06
5.15567e-06
7.62863e-07
9.50352e-06
9.8927e-06
9.86212e-06
3.55819e-06
9.83129e-06
3.96812e-06
3.93416e-06
3.06862e-06
3.64538e-06
3.45192e-06
9.83482e-06
9.89535e-06
9.60232e-06
5.18255e-06
3.66286e-06
2.90857e-06
9.89346e-06
9.58287e-06
9.89354e-06
2.7869e-06
2.79659e-06
3.16306e-06
4.96592e-06
9.31338e-06
1.75145e-06
4.77854e-06
9.88163e-06
7.45185e-06
6.26356e-06
2.14472e-06
4.86484e-06
9.22372e-06
5.1773e-06
1.15657e-06
2.53645e-06
4.99311e-06
9.26526e-06
4.14821e-06
9.28336e-06
9.71431e-06
6.42742e-06
1.65009e-06
1.25999e-06
5.16803e-06
8.36302e-06
9.80843e-06
1.85327e-06
2.24097e-06
9.50264e-07
2.97424e-06
6.24699e-06
8.77495e-06
9.93229e-06
3.54276e-06
1.84159e-06
9.29219e-06
3.47426e-07
6.07403e-06
9.87234e-06
9.89409e-06
9.72908e-06
9.82184e-06
9.16456e-06
1.5224e-06
9.74608e-06
1.15357e-06
2.53428e-06
9.84683e-06
9.87337e-06
9.80084e-06
2.2469e-06
9.50852e-06
3.31707e-07
5.49032e-06
4.23939e-06
9.26613e-06
8.5067e-06
9.4496e-06
5.28582e-06
7.82731e-07
5.92518e-06
9.61111e-06
9.54587e-06
2.34747e-06
9.2015e-06
9.83565e-06
9.4615e-06
1.00872e-06
9.81442e-06
4.98425e-06
9.84286e-06
3.7297e-06
9.41357e-06
9.16793e-06
3.0235e-06
3.77006e-06
2.33911e-06
6.60924e-06
9.8518e-06
6.38949e-06
6.10986e-06
2.31046e-06
9.11042e-06
9.87974e-06
9.88374e-06
9.85577e-06
9.8692e-06
9.71656e-06
6.46084e-06
4.42014e-06
9.24026e-06
5.4465e-06
9.70205e-06
9.63562e-06
1.93208e-06
6.48939e-06
7.41404e-06
9.37948e-06
5.38795e-06
9.82182e-06
9.79978e-06
3.57363e-06
5.45592e-07
9.85724e-06
3.43922e-06
9.71079e-06
9.22835e-06
2.91356e-06
4.23222e-06
1.36106e-06
9.88654e-06
9.96338e-06
9.84822e-06
9.80664e-06
6.39139e-06
9.85191e-06
9.90664e-06
2.62793e-06
9.16776e-06
9.86721e-06
9.79575e-06
-1.1308e-08
9.80566e-06
2.04878e-06
9.37187e-06
9.88518e-06
9.88328e-06
3.86717e-06
9.90997e-06
9.13106e-06
9.89722e-06
9.88463e-06
9.71321e-06
9.78892e-06
3.49583e-06
4.53424e-06
8.90607e-06
9.13929e-06
9.76527e-06
9.86958e-06
9.67304e-06
9.87644e-06
2.9408e-07
9.41511e-06
1.74586e-07
9.92765e-06
6.28393e-07
2.84329e-06
9.88239e-06
3.82503e-06
1.59928e-06
2.07899e-06
9.90774e-06
2.70419e-06
3.37465e-06
9.71179e-06
9.88065e-06
5.36301e-06
5.0761e-06
9.89753e-06
1.40962e-06
2.01215e-06
8.79699e-07
9.88131e-06
9.82884e-06
9.87663e-06
1.33064e-06
5.34887e-06
9.88105e-06
9.81766e-06
4.51729e-06
6.26844e-06
9.89972e-06
9.42414e-06
1.9528e-06
9.76893e-06
6.28097e-06
9.90091e-06
9.85454e-06
8.24483e-06
1.01407e-05
9.87715e-06
9.74945e-06
4.2282e-06
9.30258e-06
9.83253e-06
9.89223e-06
4.87445e-06
4.68028e-06
4.35193e-06
6.4847e-06
4.44029e-06
4.06092e-06
1.00127e-05
9.89777e-06
9.59793e-06
9.87893e-06
8.69932e-06
2.88525e-06
2.80419e-06
7.22058e-07
2.23302e-06
2.20118e-06
1.05311e-06
9.8998e-06
9.72393e-07
9.22023e-06
9.88256e-06
9.82617e-06
6.24744e-06
9.06586e-06
9.78332e-06
9.88297e-06
9.90454e-06
3.25995e-06
9.90065e-06
4.60798e-06
2.01028e-07
1.90457e-06
9.90701e-06
9.60795e-06
9.32752e-06
7.23689e-06
9.20104e-06
9.878e-06
9.89967e-06
7.86284e-06
9.7569e-06
9.21649e-06
1.78877e-06
6.34143e-06
7.37508e-06
2.34727e-06
3.76191e-06
9.78976e-06
9.10586e-06
5.24733e-06
5.37129e-06
9.9755e-06
9.87868e-06
9.46323e-06
6.44244e-06
9.09499e-06
9.88396e-06
9.84604e-06
9.87491e-06
4.37452e-06
9.88339e-06
9.70347e-06
7.82398e-06
9.87988e-06
9.86811e-06
1.13186e-06
4.93112e-06
6.39245e-06
9.89891e-06
9.88153e-06
9.90374e-06
9.11027e-06
3.91026e-06
9.84936e-06
9.11852e-06
9.88047e-06
8.94788e-06
3.70472e-06
7.36874e-07
9.2535e-06
9.4825e-06
6.54916e-06
3.39559e-06
9.44237e-06
9.79341e-06
9.88002e-06
7.78457e-07
9.35916e-06
5.55941e-06
9.77772e-06
5.1478e-06
9.4199e-06
3.16512e-06
1.06638e-06
9.998e-06
9.82957e-06
5.75307e-06
1.27857e-06
2.72189e-06
9.58352e-06
9.37453e-06
6.08076e-06
3.84964e-06
6.23457e-06
1.5059e-07
9.73545e-06
8.42105e-06
9.90586e-06
9.86492e-06
2.11278e-06
3.33813e-06
9.83715e-06
9.75894e-06
1.18076e-06
6.05307e-07
3.18638e-06
9.62155e-06
4.88217e-06
6.23646e-06
9.87726e-06
9.88032e-06
9.07333e-06
4.65309e-06
1.58413e-06
9.90466e-06
3.65711e-06
9.90387e-06
9.68357e-06
9.84336e-06
9.84217e-06
5.6341e-06
6.25784e-06
3.94278e-06
1.07224e-06
1.10151e-06
9.88334e-06
5.67537e-06
9.24927e-07
9.90987e-06
5.86944e-06
2.12036e-06
2.14077e-06
3.59749e-06
9.87857e-06
4.07576e-06
6.75318e-06
9.81908e-06
5.23337e-06
5.72561e-06
3.16244e-06
9.77827e-06
8.89276e-07
1.30192e-06
5.19071e-07
8.46124e-07
9.85713e-06
9.80256e-06
6.09491e-06
1.12887e-06
2.07028e-06
2.03152e-06
9.87726e-06
8.65952e-06
9.87735e-06
9.90532e-06
2.8431e-06
9.8433e-06
9.40911e-06
1.13006e-06
2.20406e-06
6.09542e-06
6.42717e-06
7.67302e-06
3.22601e-06
3.87763e-06
2.54926e-06
2.91013e-06
9.8804e-06
9.19094e-06
3.34274e-06
9.85508e-06
5.80822e-07
2.74007e-06
2.73373e-06
2.73121e-06
9.87817e-06
1.37462e-06
2.06997e-06
9.75878e-06
8.71382e-06
7.79573e-07
9.52873e-06
3.14825e-06
9.88456e-06
9.90491e-06
9.87952e-06
9.86863e-06
1.85351e-06
6.4604e-06
9.90244e-06
5.245e-06
8.36303e-06
4.03554e-06
2.73746e-06
2.23265e-06
9.89774e-06
9.9037e-06
5.90827e-06
1.97976e-06
5.84882e-06
6.81542e-06
3.702e-06
9.18005e-06
9.65669e-06
3.5449e-06
9.87602e-06
1.01575e-06
9.8905e-06
3.93441e-06
3.92944e-06
3.92251e-06
3.46798e-07
9.65217e-06
9.88183e-06
9.79113e-06
9.13635e-06
2.93893e-06
1.23552e-06
6.61041e-06
4.72935e-06
1.08354e-06
9.51637e-06
5.21037e-06
9.8343e-06
6.36137e-06
9.87111e-06
9.88832e-06
9.42282e-06
4.6273e-06
9.68943e-06
3.93323e-06
3.40921e-06
4.62542e-06
4.62469e-06
9.87511e-06
9.88086e-06
5.4944e-06
5.13021e-06
5.32829e-06
1.08381e-06
6.26687e-06
7.03009e-06
9.65604e-06
6.48309e-06
4.64559e-06
9.60882e-06
5.84989e-06
8.08195e-06
6.57091e-06
4.62231e-06
4.1204e-06
3.79154e-06
7.28447e-08
9.30072e-06
9.45645e-06
6.54235e-06
6.80074e-06
9.86949e-06
9.87132e-06
6.4613e-06
5.73092e-06
1.03422e-07
4.82095e-06
1.08347e-06
9.85109e-06
6.20927e-06
4.67653e-06
1.95541e-07
3.36702e-06
5.72428e-07
5.5574e-06
9.84286e-06
9.28008e-06
9.86981e-06
9.84344e-06
9.88478e-06
1.28927e-06
8.81009e-07
1.21659e-06
1.21115e-06
9.88726e-06
9.89013e-06
9.72527e-06
5.41276e-06
2.41321e-06
5.91912e-06
8.98373e-06
9.41137e-06
9.65444e-06
9.2545e-06
9.87022e-06
9.85766e-06
9.86955e-06
9.88602e-06
9.29764e-06
1.05744e-06
5.65393e-06
9.64357e-06
9.50745e-06
9.87945e-06
9.14694e-06
9.19583e-06
9.88415e-06
9.853e-06
1.45043e-06
9.6247e-06
9.84456e-06
5.28974e-07
9.8989e-06
1.38326e-06
9.93434e-06
9.91381e-06
6.014e-06
8.17347e-06
9.87703e-06
9.22367e-06
9.89866e-06
3.29863e-06
9.75203e-06
9.23991e-06
9.759e-06
8.5172e-06
9.86656e-06
9.84523e-06
9.06899e-06
9.10079e-06
9.69287e-06
9.89021e-06
4.97868e-06
7.67797e-06
5.25516e-07
9.72465e-06
9.86292e-06
1.51119e-06
9.46595e-06
9.84571e-06
4.5103e-07
9.86814e-06
9.90933e-06
9.86913e-06
9.88444e-06
9.75145e-06
8.94482e-06
7.44093e-06
9.63915e-06
7.20012e-06
1.48783e-06
9.7107e-06
4.55062e-07
8.97689e-06
9.88812e-06
9.78328e-06
9.88681e-06
9.90505e-06
9.54786e-06
6.69395e-06
8.46911e-06
1.8904e-06
9.88428e-06
9.15686e-06
9.24633e-06
1.16225e-06
6.66759e-06
8.57063e-07
8.69938e-06
9.86847e-06
9.82413e-06
9.87337e-06
9.42226e-06
9.72442e-06
9.88228e-06
9.53647e-06
9.87074e-06
9.84842e-06
9.68959e-06
9.90667e-06
9.8437e-06
9.83847e-06
9.81987e-07
2.37545e-06
9.46399e-06
9.90866e-06
5.09553e-06
1.16105e-06
3.88022e-06
9.57688e-06
1.33885e-06
6.44656e-06
9.8662e-06
9.85054e-06
9.01486e-06
4.04211e-06
4.58482e-06
1.17333e-06
9.6797e-06
9.23736e-06
9.87935e-06
7.14204e-06
9.92316e-06
1.22598e-06
1.13306e-06
1.8899e-06
1.41381e-07
9.87813e-06
9.84543e-06
4.75868e-06
9.5474e-06
8.88589e-06
9.86589e-06
9.18814e-06
9.70034e-06
8.21221e-06
9.27189e-06
1.7282e-06
7.12342e-06
1.34722e-06
9.18012e-06
9.86329e-06
9.88266e-06
9.29778e-06
9.88363e-06
9.87941e-06
9.39758e-06
9.57319e-07
6.89902e-06
9.84703e-06
9.56514e-06
2.60015e-06
7.90438e-06
9.30547e-06
6.59747e-06
9.90816e-06
9.72985e-06
9.56443e-06
9.88577e-06
9.41535e-06
9.14983e-06
9.14225e-06
9.24567e-06
6.49986e-06
9.06531e-06
9.86702e-06
1.68187e-06
9.93741e-06
5.71552e-06
7.82424e-06
9.29448e-06
9.70527e-06
9.84657e-06
9.94435e-06
9.44084e-06
9.76541e-06
9.561e-06
9.16725e-06
9.61999e-06
3.80555e-06
9.46116e-06
9.19082e-06
9.84741e-06
9.10507e-06
6.27828e-06
6.65076e-06
6.05517e-06
9.90429e-06
9.86934e-06
9.81475e-06
9.88187e-06
1.31519e-06
9.16861e-06
9.88561e-06
3.24564e-06
6.43391e-06
9.78423e-06
9.84809e-06
9.21767e-06
9.87912e-06
7.05158e-06
9.10371e-06
9.2698e-06
2.96778e-06
7.00622e-06
9.20549e-06
4.49598e-06
9.87387e-06
9.47386e-06
9.21436e-06
9.22474e-06
6.97388e-06
9.41206e-06
9.2229e-06
9.47649e-06
9.83922e-06
9.8838e-06
9.85365e-06
9.88091e-06
7.19366e-06
6.90141e-06
9.083e-06
9.82677e-06
6.71428e-06
3.65076e-06
9.75586e-06
1.51977e-06
9.51708e-06
9.88227e-06
6.43905e-06
6.33688e-06
5.95054e-06
9.8559e-06
9.05925e-06
9.02038e-06
9.22e-06
9.35632e-06
9.86404e-06
9.50396e-06
9.23437e-06
6.35141e-06
9.88381e-06
9.24767e-06
8.22053e-06
5.22932e-06
8.43668e-06
3.77798e-06
9.72404e-06
9.32605e-06
9.88296e-06
9.23344e-06
9.96389e-06
9.61942e-06
6.9224e-07
9.6354e-06
9.82551e-06
9.78769e-06
6.88241e-06
9.51282e-06
9.88217e-06
9.21053e-06
9.1791e-06
9.47147e-06
9.8702e-06
6.95403e-06
9.87484e-06
3.12297e-06
9.88647e-06
9.80435e-06
6.81827e-06
3.55681e-06
3.95452e-06
9.82186e-06
6.66554e-06
9.43312e-06
6.91223e-06
9.52769e-06
9.33263e-06
9.73325e-06
1.23379e-06
9.44879e-06
9.88445e-06
3.65258e-06
9.65112e-06
8.20633e-06
9.13764e-06
5.43578e-06
6.8782e-06
9.02145e-06
9.88309e-06
9.85932e-06
9.47845e-06
9.61148e-06
9.71716e-06
7.06398e-06
6.12543e-06
9.23941e-06
9.44987e-06
5.32892e-06
9.58826e-06
9.86094e-06
9.74426e-06
4.2888e-07
9.40057e-06
9.47817e-06
5.32115e-06
9.66394e-06
9.86372e-06
9.89142e-06
9.49395e-06
6.03945e-06
9.7845e-06
9.61863e-06
9.81588e-06
6.97061e-06
9.79014e-06
7.48635e-06
9.50548e-06
9.49417e-06
9.88811e-06
2.51828e-06
6.84325e-06
5.57359e-07
3.86636e-06
9.63469e-06
6.12079e-06
9.74793e-06
8.9693e-06
3.82361e-06
1.64128e-06
9.92022e-06
9.5421e-06
9.8913e-06
9.70235e-06
3.34993e-06
7.23633e-06
8.03658e-06
9.8942e-06
9.89291e-06
9.59432e-06
9.88614e-06
9.86208e-06
2.65626e-06
9.55379e-06
2.2439e-06
7.45825e-06
9.26193e-06
6.71695e-06
9.26571e-06
9.86219e-06
9.59416e-06
9.06086e-06
2.13136e-06
2.05623e-06
9.4367e-06
9.58094e-06
9.80629e-06
9.86076e-06
9.73844e-06
9.86778e-06
9.74013e-06
6.77763e-06
9.82566e-06
9.88092e-06
1.55862e-06
2.94744e-06
9.38919e-06
9.54387e-06
8.13382e-07
9.89228e-06
9.76307e-06
6.28749e-06
9.84045e-06
7.73066e-06
9.32324e-06
7.99566e-06
9.73359e-06
9.8622e-06
3.22729e-06
7.2934e-06
9.51575e-06
3.4386e-06
9.69178e-06
8.42151e-06
6.95171e-06
6.94397e-06
9.7849e-06
9.75295e-06
9.19393e-06
9.73253e-06
9.62361e-06
6.10925e-06
9.88567e-06
9.87649e-06
9.4435e-06
8.46763e-07
4.13654e-06
6.23625e-06
5.80685e-07
9.65723e-06
9.80086e-06
7.35491e-06
7.0812e-06
9.57228e-06
8.97993e-06
9.75001e-06
9.84008e-06
9.45359e-06
9.57213e-06
7.54023e-06
1.08286e-06
9.8641e-06
6.63899e-06
9.86238e-06
6.67629e-06
6.71742e-06
9.8049e-06
9.62401e-06
9.64853e-06
9.90541e-06
9.53792e-06
9.8739e-06
9.76401e-06
9.75372e-06
9.27926e-06
6.81071e-07
9.86055e-06
9.88331e-06
9.88093e-06
8.63453e-06
9.83982e-06
6.34915e-06
6.01193e-06
9.80893e-06
9.58639e-06
9.59512e-06
9.60608e-06
9.79221e-06
8.06617e-06
9.85135e-06
9.82219e-06
9.86563e-06
9.77279e-06
9.77669e-06
9.86373e-06
9.4234e-06
9.73211e-06
9.88916e-06
9.82481e-06
7.30348e-06
6.84334e-06
9.75572e-06
9.93819e-06
9.89589e-06
9.79577e-06
9.85245e-06
9.85653e-06
9.73501e-06
9.92442e-06
9.9008e-06
7.2983e-06
9.88025e-06
7.04464e-06
9.84187e-06
9.906e-06
9.72487e-06
9.80941e-06
9.29209e-06
9.80508e-06
6.72498e-06
9.67975e-06
9.50774e-06
9.74238e-06
9.1924e-06
9.88119e-06
9.86244e-06
9.84498e-06
6.76927e-06
7.1899e-06
9.48362e-06
9.31881e-06
9.89062e-06
9.49927e-06
7.77608e-06
6.59887e-06
9.79936e-06
9.83858e-06
1.38389e-06
8.37793e-06
9.75603e-06
9.85755e-06
7.54706e-06
9.67141e-06
6.50526e-06
9.82327e-06
9.84016e-06
9.8611e-06
6.89031e-06
9.77702e-06
9.83554e-06
9.80277e-06
9.60313e-06
6.70817e-06
9.75034e-06
9.85826e-06
5.54585e-07
7.05817e-06
2.18671e-06
9.89439e-06
9.90246e-06
9.86201e-06
9.83856e-06
9.82981e-06
9.86414e-06
9.26857e-06
9.49101e-06
9.85064e-06
9.7223e-06
6.65289e-06
9.63323e-06
9.7276e-06
9.85582e-06
9.26099e-07
9.82283e-06
9.86148e-06
9.84155e-06
9.89427e-06
9.76653e-06
9.86501e-06
9.72563e-06
1.47419e-06
9.86193e-06
1.00436e-05
9.76295e-06
9.88354e-06
9.88107e-06
9.8701e-06
3.04778e-06
9.81454e-06
9.41567e-06
7.0529e-06
9.95207e-06
9.85135e-06
9.89601e-06
9.78464e-06
9.68588e-06
9.85561e-06
9.88313e-06
9.86493e-06
9.89555e-06
9.70199e-06
7.31582e-06
9.86459e-06
9.86167e-06
9.84845e-06
9.60108e-06
9.74395e-06
9.86475e-06
9.87219e-06
9.87099e-06
9.78203e-06
9.87001e-06
9.27633e-06
7.37287e-06
9.86591e-06
9.87627e-06
9.80185e-06
6.63582e-06
9.8355e-06
9.8747e-06
9.86603e-06
9.88594e-06
9.8735e-06
9.71261e-06
9.86321e-06
9.76861e-06
9.74169e-06
5.23529e-06
9.97072e-06
9.84454e-06
6.49381e-06
9.80771e-06
9.3021e-06
9.87164e-06
9.72473e-06
9.85401e-06
8.13321e-06
9.88559e-06
9.88243e-06
9.78511e-06
5.46427e-06
9.8686e-06
9.88499e-06
6.83329e-06
9.82038e-06
9.86653e-06
9.86091e-06
9.85786e-06
9.84205e-06
9.88333e-06
9.76955e-06
9.87422e-06
9.72968e-06
3.76175e-06
6.45382e-06
9.85169e-06
9.76586e-06
9.86306e-06
9.88057e-06
3.25228e-06
9.54391e-06
9.78137e-06
9.51313e-06
9.84497e-06
6.22393e-06
9.84611e-06
9.84443e-06
9.78385e-06
9.89066e-06
9.25287e-06
9.86665e-06
9.63543e-06
5.8036e-06
2.54262e-06
9.87259e-06
9.76657e-06
9.83315e-06
9.83131e-06
9.89559e-06
5.03176e-06
9.77725e-06
9.81535e-06
6.53227e-06
9.71861e-06
9.85384e-06
9.80901e-06
9.72779e-06
9.86975e-06
9.8554e-06
1.95275e-06
9.87109e-06
9.97366e-06
7.23938e-06
9.1772e-06
6.50987e-06
6.1864e-06
9.89044e-06
9.86337e-06
9.86584e-06
9.89202e-06
9.85346e-06
7.09388e-06
5.64254e-06
9.82101e-06
9.85937e-06
9.88659e-06
6.61996e-06
9.83771e-06
9.87094e-06
9.82654e-06
9.85925e-06
9.88427e-06
9.87726e-06
9.8629e-06
9.88793e-06
9.99659e-06
6.93566e-06
9.88655e-06
9.86631e-06
6.83847e-06
9.864e-06
9.85494e-06
9.89803e-06
9.8837e-06
9.86628e-06
4.9642e-06
9.83027e-06
9.89062e-06
9.86715e-06
9.83155e-06
9.86674e-06
6.27226e-06
9.86553e-06
9.7878e-06
9.85049e-06
9.97861e-06
9.86795e-06
9.88684e-06
9.88084e-06
9.77816e-06
9.86769e-06
9.88918e-06
9.88641e-06
6.52451e-06
7.39604e-06
9.88824e-06
7.12278e-06
9.81364e-06
9.85912e-06
9.86701e-06
9.88963e-06
7.18042e-06
4.14112e-06
9.86143e-06
9.86273e-06
9.85775e-06
9.85131e-06
9.76426e-06
9.88531e-06
9.80982e-06
6.27023e-06
9.82729e-06
9.86431e-06
9.78145e-06
6.8834e-06
9.87335e-06
6.83831e-06
9.79592e-06
9.85905e-06
9.86513e-06
9.85869e-06
9.89107e-06
9.75156e-06
9.87696e-06
9.84894e-06
9.82918e-06
9.85736e-06
9.8641e-06
9.82601e-06
9.86716e-06
7.04722e-06
9.86956e-06
9.88285e-06
9.85428e-06
9.74405e-06
9.86262e-06
9.86811e-06
9.79274e-06
9.79127e-06
1.94241e-06
9.85837e-06
9.86621e-06
9.84551e-06
9.85593e-06
9.89321e-06
9.81858e-06
9.84707e-06
6.39368e-06
9.88251e-06
9.86039e-06
9.76256e-06
6.8323e-06
9.86983e-06
9.83979e-06
-1.52287e-07
9.87991e-06
9.83977e-06
9.81824e-06
9.8402e-06
9.89711e-06
2.63702e-06
4.9177e-06
9.89489e-06
9.79113e-06
9.90688e-06
6.34996e-06
9.82348e-06
3.53333e-06
9.86456e-06
9.80795e-06
9.87017e-06
9.89923e-06
6.41182e-06
9.8518e-06
6.77164e-06
9.82026e-06
6.88523e-06
9.87256e-06
9.84107e-06
9.85655e-06
9.83365e-06
9.88721e-06
9.87268e-06
9.5331e-06
9.83125e-06
9.85806e-06
9.87497e-06
9.30595e-06
9.88838e-06
9.97006e-06
9.89107e-06
9.79812e-06
9.85204e-06
6.35957e-06
9.8657e-06
9.88804e-06
9.86378e-06
9.2598e-06
9.82871e-06
9.87397e-06
6.67059e-06
6.74213e-06
3.83379e-06
9.87397e-06
9.89529e-06
6.7295e-06
9.8392e-06
9.87333e-06
9.68842e-06
9.87144e-06
9.86556e-06
9.87211e-06
9.88633e-06
9.88361e-06
9.88364e-06
9.84284e-06
9.86271e-06
9.87542e-06
9.86325e-06
9.82412e-06
9.77589e-06
9.87047e-06
9.88761e-06
6.90901e-06
9.58642e-06
9.83983e-06
9.79382e-06
9.85215e-06
5.56259e-06
4.52589e-06
9.89252e-06
9.86647e-06
9.82905e-06
9.82096e-06
9.8549e-06
6.6497e-06
9.86705e-06
9.85225e-06
6.73973e-06
9.70991e-06
9.86084e-06
9.89121e-06
9.77015e-06
9.89618e-06
9.80794e-06
3.24708e-06
3.26336e-06
1.00893e-05
9.85078e-06
9.88693e-06
9.88527e-06
6.6565e-06
9.8343e-06
9.85756e-06
9.82081e-06
9.89967e-06
9.94864e-06
9.88191e-06
9.88716e-06
3.04867e-06
6.69706e-06
1.03752e-06
9.88505e-06
9.86806e-06
2.02526e-06
9.8541e-06
6.83432e-06
9.89556e-06
5.53714e-06
9.8632e-06
9.88394e-06
9.61336e-06
9.86624e-06
6.94288e-06
6.77076e-06
6.35891e-06
9.84989e-06
9.89511e-06
9.89768e-06
9.87578e-06
9.86083e-06
9.86277e-06
6.93151e-06
9.8888e-06
9.86375e-06
9.87783e-06
9.83683e-06
9.86442e-06
3.45973e-06
9.85948e-06
9.88603e-06
9.87154e-06
9.87902e-06
9.87943e-06
6.33612e-06
9.9646e-06
1.00015e-05
9.83803e-06
9.79844e-06
9.89718e-06
9.88661e-06
9.88299e-06
5.65315e-06
9.69333e-06
9.75725e-06
9.87341e-06
9.88881e-06
9.87719e-06
9.86246e-06
9.55624e-06
9.79361e-06
5.42259e-06
6.08053e-06
9.87712e-06
9.89337e-06
9.67341e-06
9.86028e-06
9.8624e-06
9.80246e-06
9.83241e-06
2.45852e-06
9.8796e-06
9.88934e-06
6.1294e-06
9.86694e-06
6.03835e-06
9.86693e-06
9.38564e-06
9.86359e-06
9.87953e-06
9.88732e-06
6.57021e-06
9.77587e-06
9.8441e-06
9.86693e-06
9.89537e-06
9.89825e-06
9.86809e-06
9.90003e-06
9.88065e-06
6.19014e-06
9.89429e-06
9.87598e-06
9.87706e-06
9.80685e-06
9.86492e-06
9.86357e-06
3.75183e-06
5.83935e-06
9.85951e-06
6.18927e-06
9.89116e-06
9.79023e-06
9.88876e-06
9.87715e-06
9.87762e-06
9.83584e-06
9.89381e-06
9.83334e-06
9.87955e-06
9.88368e-06
9.84514e-06
9.81843e-06
7.43436e-06
9.9022e-06
9.83318e-06
9.83217e-06
9.84991e-06
9.88108e-06
9.87803e-06
9.89152e-06
9.82232e-06
6.02083e-06
9.78204e-06
9.88404e-06
6.11232e-06
9.87184e-06
6.2065e-06
9.90129e-06
9.8845e-06
9.86502e-06
9.87672e-06
9.85274e-06
9.89209e-06
4.86082e-06
9.8887e-06
9.89735e-06
9.84072e-06
9.86192e-06
9.82141e-06
9.88074e-06
9.7914e-06
9.88434e-06
9.86319e-06
9.88785e-06
5.72202e-06
9.88384e-06
9.83237e-06
9.73815e-06
9.89576e-06
6.27018e-06
9.8957e-06
9.8504e-06
9.83282e-06
9.80746e-06
9.74219e-06
6.27091e-06
9.88753e-06
9.89733e-06
9.75113e-06
9.87871e-06
9.88131e-06
9.88631e-06
6.48961e-06
9.87984e-06
9.86153e-06
6.04589e-06
9.84826e-06
9.886e-06
9.87236e-06
9.79842e-06
9.84736e-06
9.82246e-06
9.85397e-06
5.93431e-06
6.02599e-06
9.71506e-06
9.76474e-07
9.99774e-06
9.87806e-06
9.8608e-06
9.90954e-06
6.10789e-06
9.80697e-06
9.79324e-06
9.88062e-06
9.86507e-06
9.87505e-06
6.33096e-06
6.52508e-06
5.96223e-06
5.99934e-06
5.95409e-06
1.14317e-06
2.63185e-06
9.88547e-06
9.88752e-06
5.74466e-06
5.87105e-06
5.82265e-06
9.89e-06
9.83312e-06
9.89757e-06
9.86281e-06
9.88032e-06
9.88448e-06
9.88397e-06
9.89124e-06
9.87522e-06
9.88282e-06
9.87742e-06
9.8842e-06
3.82868e-06
9.88004e-06
9.88782e-06
9.88283e-06
9.88513e-06
9.88235e-06
9.87978e-06
6.1073e-06
9.21397e-06
9.88585e-06
9.93776e-06
9.94252e-06
9.90721e-06
5.75874e-06
9.81841e-06
9.88422e-06
4.52358e-06
9.83575e-06
9.89612e-06
6.01328e-06
6.05869e-06
6.26889e-06
6.35369e-06
5.81011e-06
9.80811e-06
9.87171e-06
9.89258e-06
9.84574e-06
9.88455e-06
9.88166e-06
9.80614e-06
5.86046e-06
5.75808e-06
9.83812e-06
9.89635e-06
9.87688e-06
9.88587e-06
9.89478e-06
6.40666e-06
5.91517e-06
5.90668e-06
9.8843e-06
9.87967e-06
9.93319e-06
9.88491e-06
9.89717e-06
9.86146e-06
6.77523e-06
9.79321e-06
9.892e-06
5.23494e-06
5.85007e-06
5.98756e-06
9.86554e-06
9.31769e-06
9.87697e-06
1.23736e-06
5.46335e-06
6.43445e-06
9.89745e-06
9.81962e-06
5.95021e-06
9.86776e-06
5.9033e-06
9.88091e-06
9.78339e-06
9.88545e-06
5.70891e-06
9.81729e-06
9.79643e-06
9.88987e-06
9.90072e-06
9.8944e-06
5.24976e-06
9.88591e-06
5.94115e-06
9.88673e-06
9.85824e-06
9.85713e-06
6.01284e-06
9.88336e-06
5.74929e-06
9.86754e-06
9.8273e-06
5.87188e-06
9.87288e-06
5.63811e-06
9.90054e-06
5.54884e-06
6.18244e-06
9.85975e-06
9.88808e-06
5.7981e-06
6.09698e-06
6.17354e-06
6.14015e-06
9.88713e-06
9.83101e-06
9.87987e-06
5.54182e-06
9.86304e-06
1.24541e-06
9.89849e-06
5.92283e-06
9.85647e-06
5.76453e-06
5.64823e-06
1.88601e-06
5.65042e-06
5.60389e-06
9.87083e-06
5.95319e-06
6.03344e-06
2.32934e-06
5.56192e-06
5.69372e-06
5.66654e-06
6.10583e-06
9.87186e-06
6.11823e-06
9.89202e-06
6.01338e-06
6.14415e-06
5.8597e-06
4.42293e-06
9.90232e-06
4.5062e-06
5.52789e-06
5.76431e-06
5.07507e-06
6.03802e-06
9.88867e-06
4.96719e-06
5.49851e-06
4.83952e-06
9.83733e-06
5.92913e-06
5.57228e-06
6.02778e-06
5.59634e-06
5.67214e-06
3.35752e-06
3.40895e-06
5.17018e-06
6.16546e-06
5.5252e-06
4.963e-06
5.45801e-06
5.7899e-06
6.2341e-06
5.39196e-06
5.17287e-06
4.9513e-06
4.73197e-06
5.79946e-06
5.49527e-06
5.67397e-06
9.89889e-06
5.6248e-06
5.84065e-06
5.35504e-06
5.59681e-06
5.86844e-06
5.21645e-06
5.35789e-06
5.93081e-06
6.00276e-06
5.72817e-06
5.43019e-06
5.283e-06
5.3922e-06
4.99621e-06
5.06181e-06
9.87857e-06
5.47077e-06
2.53574e-06
5.4149e-06
5.4173e-06
5.3069e-06
4.89316e-06
4.64179e-06
9.88785e-06
5.19005e-06
3.73036e-06
5.14227e-06
5.2859e-06
5.39582e-06
5.43796e-06
4.42594e-06
5.25078e-06
5.43967e-06
5.19369e-06
5.62569e-06
5.54882e-06
5.61323e-06
6.231e-06
5.1039e-06
5.63309e-06
5.43782e-06
4.91966e-06
5.43109e-06
5.18924e-06
5.03824e-06
5.59593e-06
5.32369e-06
5.12838e-06
5.14361e-06
5.3189e-06
5.06626e-06
5.34431e-06
5.32767e-06
4.73761e-06
5.51325e-06
4.93826e-06
4.9372e-06
6.12272e-06
4.66005e-06
5.01333e-06
4.82378e-06
5.33596e-06
5.10228e-06
5.28925e-06
5.07099e-06
9.87598e-06
5.23876e-06
5.03758e-06
5.07883e-06
4.9311e-06
4.93632e-06
5.05074e-06
4.8432e-06
5.39124e-06
5.41986e-06
5.03552e-06
4.88167e-06
5.02021e-06
9.90274e-06
4.93507e-06
5.9127e-06
4.96437e-06
4.8353e-06
4.75346e-06
4.66302e-06
5.13951e-06
5.03822e-06
4.70074e-06
4.91684e-06
4.97588e-06
5.21225e-06
4.87255e-06
5.00261e-06
4.82256e-06
4.7315e-06
4.7934e-06
5.02803e-06
4.83225e-06
5.15682e-06
4.61182e-06
4.98721e-06
4.97051e-06
4.97056e-06
4.47231e-06
4.55883e-06
4.73296e-06
4.51807e-06
4.65603e-06
4.94611e-06
4.77985e-06
4.83067e-06
4.83022e-06
4.73573e-06
4.93157e-06
5.75343e-06
4.50078e-06
4.90345e-06
4.87685e-06
4.578e-06
4.7996e-06
4.39794e-06
4.78215e-06
4.62741e-06
4.56691e-06
5.12901e-06
4.42102e-06
4.41027e-06
4.71612e-06
4.70855e-06
3.18708e-06
4.50298e-06
4.68337e-06
4.32242e-06
4.39001e-06
4.4673e-06
4.77568e-06
4.4536e-06
4.62972e-06
4.53846e-06
4.72807e-06
4.70889e-06
4.09938e-06
4.22524e-06
4.50586e-06
4.58185e-06
4.64141e-06
4.94638e-06
4.13653e-06
4.18351e-06
4.35369e-06
3.79748e-06
4.39459e-06
4.54732e-06
4.3916e-06
4.37819e-06
3.60664e-06
3.91167e-06
3.96418e-06
4.18377e-06
4.45213e-06
4.13384e-06
4.02562e-06
4.29158e-06
4.09395e-06
4.46659e-06
4.1737e-06
4.47535e-06
4.32878e-06
4.00881e-06
4.25762e-06
3.90927e-06
3.91575e-06
3.81482e-06
4.1709e-06
4.30597e-06
4.01799e-06
4.24275e-06
4.27859e-06
4.17107e-06
4.04847e-06
4.36748e-06
3.92575e-06
3.99959e-06
4.35584e-06
3.94104e-06
4.07699e-06
4.24699e-06
4.05514e-06
4.38102e-06
3.69678e-06
4.10706e-06
4.56069e-06
4.10271e-06
4.24243e-06
4.0686e-06
3.83358e-06
4.19979e-06
3.75362e-06
3.90065e-06
4.02228e-06
4.10568e-06
4.30739e-06
3.98321e-06
3.92657e-06
3.85348e-06
4.05164e-06
3.91114e-06
4.03295e-06
5.65715e-06
3.73365e-06
4.01017e-06
1.16708e-06
1.22074e-06
3.90731e-06
3.92555e-06
3.80347e-06
3.71992e-06
4.04068e-06
3.93586e-06
3.09711e-06
3.80524e-06
4.0054e-06
3.99834e-06
3.63087e-06
3.94483e-06
4.41314e-06
3.65507e-06
3.87103e-06
4.22313e-06
3.81414e-06
3.53802e-06
3.73122e-06
3.70283e-06
3.96895e-06
3.91103e-06
3.48133e-06
3.97909e-06
3.79386e-06
3.22383e-06
3.83584e-06
3.40099e-06
3.66195e-06
3.70826e-06
3.63277e-06
3.78801e-06
3.13043e-06
5.25421e-06
3.73237e-06
3.38556e-06
3.54644e-06
3.43949e-06
3.64477e-06
3.16211e-06
3.27583e-06
3.49223e-06
3.26635e-06
3.30353e-06
3.57474e-06
3.47866e-06
3.50563e-06
3.32498e-06
3.57073e-06
3.3697e-06
3.21866e-06
3.75066e-06
3.54464e-06
3.60302e-06
3.4492e-06
3.17239e-06
3.45808e-06
3.51487e-06
3.41095e-06
3.38184e-06
3.64917e-06
3.31534e-06
3.05899e-06
3.47283e-06
3.28142e-06
3.30255e-06
3.46823e-06
2.24245e-06
3.11385e-06
3.21209e-06
3.34811e-06
3.31418e-06
3.3857e-06
3.83078e-06
2.63138e-06
3.2049e-06
2.94576e-06
2.9404e-06
3.37336e-06
3.34272e-06
3.28601e-06
3.14228e-06
3.21636e-06
3.16311e-06
2.95692e-06
3.11926e-06
2.99439e-06
2.55895e-06
2.21693e-06
2.73139e-06
2.33044e-06
3.98639e-06
2.83696e-06
3.11823e-06
2.47011e-06
3.05645e-06
3.03429e-06
2.94495e-06
2.62167e-06
2.37326e-06
3.04269e-06
3.19587e-06
2.95913e-06
2.8966e-06
2.57707e-06
3.05802e-06
2.02377e-06
2.76135e-06
2.13347e-06
3.05253e-06
2.78079e-06
2.4466e-06
2.96593e-06
3.034e-06
2.83823e-06
2.9763e-06
3.01032e-06
2.78198e-06
2.67722e-06
3.13691e-06
2.793e-06
1.92022e-06
2.26134e-06
2.8561e-06
2.94779e-06
2.87188e-06
2.87111e-06
2.88027e-06
2.70157e-06
2.41869e-06
2.72646e-06
2.32119e-06
2.57691e-06
2.49429e-06
2.66228e-06
2.81595e-06
2.52222e-06
2.6657e-06
2.72016e-06
2.73225e-06
3.69572e-06
2.87712e-06
2.79409e-06
2.48546e-06
2.83818e-06
3.21483e-06
2.82798e-06
2.92263e-06
2.75981e-06
2.59159e-06
2.53941e-06
2.39827e-06
2.74409e-06
2.56011e-06
2.51666e-06
2.78748e-06
2.94388e-06
2.64789e-06
2.47558e-06
2.14691e-06
2.59576e-06
2.8294e-06
2.66818e-06
2.24813e-06
2.57582e-06
2.49147e-06
2.56693e-06
2.76634e-06
2.48958e-06
2.39322e-06
2.31283e-06
2.20099e-06
2.50844e-06
1.89791e-06
1.98377e-06
2.41635e-06
2.33362e-06
2.31075e-06
2.66815e-06
2.08627e-06
2.1389e-06
2.47304e-06
2.50799e-06
2.37882e-06
2.26947e-06
2.11281e-06
2.24395e-06
2.3427e-06
2.05696e-06
2.12401e-06
2.14932e-06
2.39247e-06
2.26297e-06
2.40671e-06
1.78482e-06
2.12559e-06
2.1514e-06
2.03171e-06
1.95825e-06
3.27259e-06
2.27397e-06
2.19176e-06
2.18133e-06
2.30842e-06
2.41034e-06
1.91475e-06
2.33598e-06
2.15265e-06
2.17656e-06
1.855e-06
1.8774e-06
2.00712e-06
2.0656e-06
2.18899e-06
2.15135e-06
2.00022e-06
2.29714e-06
1.81236e-06
2.26605e-06
1.74911e-06
2.1635e-06
1.49863e-06
1.90835e-06
1.91657e-06
1.65594e-06
1.74076e-06
2.04102e-06
1.61159e-06
1.6273e-06
2.79397e-06
1.84282e-06
1.97455e-06
1.76709e-06
1.7535e-06
1.52201e-06
1.5781e-06
1.60373e-06
1.72178e-06
1.59349e-06
1.8156e-06
1.63676e-06
1.62374e-06
1.57831e-06
1.67111e-06
1.76213e-06
1.41742e-06
1.42431e-06
1.58333e-06
1.41751e-06
1.70946e-06
1.44113e-06
1.53245e-06
1.80141e-06
1.66664e-06
1.39373e-06
1.3136e-06
1.65679e-06
1.38294e-06
1.48803e-06
1.67161e-06
1.36606e-06
1.21124e-06
1.48277e-06
1.31761e-06
1.36322e-06
1.31714e-06
1.43239e-06
1.10974e-06
1.30546e-06
1.17548e-06
1.30184e-06
1.56359e-06
1.186e-06
1.51065e-06
1.46747e-06
1.08722e-06
1.64051e-06
1.20072e-06
3.597e-06
1.34973e-06
1.93516e-06
1.29427e-06
1.2265e-06
1.22292e-06
4.26205e-06
3.31838e-06
3.09219e-06
2.21942e-06
1.47293e-06
1.78802e-06
9.45274e-07
1.14589e-06
1.11005e-06
1.99428e-06
1.00212e-06
1.38234e-06
5.37821e-06
2.3277e-06
2.84437e-06
2.08123e-06
1.39943e-06
3.19984e-06
3.48547e-06
3.25652e-06
2.33844e-06
1.75364e-06
4.67674e-06
1.69744e-06
4.15166e-06
1.25448e-06
1.05243e-06
1.27542e-06
4.85458e-06
1.27991e-06
6.08796e-06
2.62857e-06
2.76414e-06
2.95117e-06
2.83971e-06
4.80401e-06
2.99763e-06
2.20567e-06
2.16076e-06
2.97124e-06
3.09426e-06
3.10265e-06
1.02595e-06
4.02947e-06
3.99908e-06
1.96613e-06
5.11043e-06
3.10461e-06
5.2601e-07
2.4367e-06
1.17259e-06
3.45429e-06
6.16588e-06
6.5585e-06
1.95991e-06
1.45082e-06
1.37299e-06
4.45471e-06
1.48069e-06
4.4618e-06
1.27967e-06
4.78757e-06
5.02514e-06
1.86221e-06
6.61968e-06
1.17623e-06
1.21089e-06
3.37178e-06
5.15256e-06
3.83058e-06
4.26403e-06
4.51619e-06
5.28246e-06
2.32201e-06
7.21446e-06
1.22065e-06
3.49517e-06
1.36441e-06
5.99911e-06
6.358e-06
1.17886e-06
6.21575e-07
6.22676e-06
4.98472e-06
5.1903e-06
5.43231e-06
6.35173e-06
7.14526e-07
7.78861e-07
4.36228e-06
4.72247e-06
6.37873e-06
5.08591e-06
1.27446e-06
3.67268e-06
6.4034e-06
4.6908e-06
1.27388e-06
4.51862e-06
6.7025e-06
5.30903e-06
6.83939e-06
2.82471e-06
1.81146e-06
1.68349e-06
1.20031e-06
6.15151e-06
5.86467e-06
5.2341e-06
9.8794e-07
1.07676e-06
1.59068e-06
6.26179e-06
1.06676e-06
1.25453e-06
1.26002e-06
1.76617e-06
2.10921e-06
1.26968e-06
1.16061e-06
2.14945e-06
1.26031e-06
1.39174e-06
1.76775e-06
1.54688e-06
2.02165e-06
1.40073e-06
1.7694e-06
2.05788e-06
1.55098e-06
1.8391e-06
1.69257e-06
2.21444e-06
2.08834e-06
1.71103e-06
1.73282e-06
1.70786e-06
1.83464e-06
2.59179e-06
1.80307e-06
2.69875e-06
1.67267e-06
1.791e-06
1.85938e-06
1.65975e-06
2.78866e-06
1.81429e-06
2.43733e-06
1.94488e-06
1.95322e-06
2.6954e-06
1.97806e-06
2.90977e-06
3.29283e-06
2.56206e-06
2.04259e-06
3.207e-06
2.93708e-06
2.98323e-06
3.00152e-06
2.79286e-06
2.69572e-06
2.87038e-06
2.10269e-06
2.8923e-06
2.68997e-06
2.83708e-06
2.05832e-06
2.88859e-06
3.62972e-06
2.96661e-06
3.06447e-06
3.1106e-06
2.82917e-06
3.7011e-06
2.88558e-06
3.04814e-06
3.13528e-06
3.41684e-06
3.04908e-06
2.92854e-06
3.50222e-06
3.90494e-06
3.40877e-06
3.66556e-06
3.63474e-06
4.30175e-06
3.5179e-06
3.72936e-06
2.93676e-06
4.27122e-06
3.59614e-06
3.83714e-06
3.95342e-06
3.57001e-06
3.87539e-06
4.16376e-06
4.49923e-06
3.97927e-06
4.07269e-06
4.16162e-06
4.72402e-06
4.21892e-06
4.08019e-06
4.4368e-06
4.79072e-06
4.47625e-06
4.13135e-06
4.07768e-06
4.02682e-06
4.60986e-06
4.56214e-06
4.17893e-06
4.13229e-06
4.20604e-06
4.54872e-06
4.27878e-06
4.62563e-06
4.23136e-06
4.72544e-06
4.32672e-06
4.89382e-06
4.7123e-06
4.63077e-06
5.31648e-06
4.8125e-06
4.86808e-06
4.82708e-06
5.19973e-06
4.86991e-06
4.32747e-06
5.50239e-06
4.79619e-06
9.90329e-06
5.09467e-06
5.75792e-06
5.12785e-06
5.62226e-06
5.69738e-06
9.86595e-06
5.30152e-06
5.83011e-06
5.90147e-06
1.13394e-06
5.32342e-06
5.51108e-06
9.88637e-06
5.94167e-06
5.85691e-06
6.14128e-06