/*--------------------------------*- C++ -*----------------------------------*\
  =========                 |
  \\      /  F ield         | OpenFOAM: The Open Source CFD Toolbox
   \\    /   O peration     | Website:  https://openfoam.org
    \\  /    A nd           | Version:  8
     \\/     M anipulation  |
\*---------------------------------------------------------------------------*/
FoamFile
{
    version     2.0;
    format      ascii;
    class       volScalarField;
    location    "7";
    object      p;
}
// * * * * * * * * * * * * * * * * * * * * * * * * * * * * * * * * * * * * * //

dimensions      [0 2 -2 0 0 0 0];

internalField   nonuniform List<scalar> 
3080
(
4.20421e-05
3.96292e-05
4.18463e-05
4.20467e-05
4.08745e-05
4.18608e-05
4.1903e-05
2.38172e-05
4.18026e-05
4.19379e-05
4.20583e-05
4.1965e-05
3.86662e-05
4.06618e-05
4.20634e-05
4.00916e-05
4.19162e-05
4.19698e-05
4.20522e-05
4.15349e-05
2.82451e-05
4.16166e-05
4.13316e-05
2.52976e-05
4.10368e-05
4.03398e-05
4.18398e-05
4.02526e-05
4.20473e-05
4.04653e-05
3.61104e-05
2.58365e-05
4.03735e-05
2.7094e-05
3.18605e-05
4.20951e-05
4.16659e-05
3.26577e-05
4.19342e-05
4.04719e-05
4.20237e-05
4.19538e-05
4.20319e-05
4.19691e-05
4.01638e-05
4.20601e-05
4.17773e-05
4.20408e-05
4.20037e-05
3.97236e-05
4.19658e-05
3.44587e-05
4.14172e-05
4.18814e-05
4.04142e-05
4.18735e-05
4.18404e-05
3.02785e-06
3.24528e-05
4.18767e-05
3.30833e-06
3.65787e-06
4.56925e-06
4.19161e-05
4.17916e-06
4.60358e-06
4.19339e-05
4.1918e-05
2.38548e-06
6.15317e-06
4.19081e-05
3.90585e-06
2.98221e-05
7.75255e-06
4.1995e-05
2.8939e-05
4.19903e-05
5.48583e-06
4.19387e-05
4.2002e-05
3.97406e-05
4.19232e-05
9.35456e-06
3.57799e-05
4.15778e-05
7.08069e-06
4.17082e-05
1.06171e-05
1.15842e-05
4.17278e-05
8.68186e-06
1.09596e-05
1.43807e-06
9.7173e-06
1.06092e-05
4.1823e-05
1.02851e-05
1.21099e-05
1.32018e-05
4.19313e-05
4.18993e-05
2.73506e-06
3.03202e-06
2.9087e-05
4.16699e-05
4.0723e-05
4.1982e-05
1.18891e-05
1.12085e-05
1.22255e-05
1.36027e-05
1.48197e-05
4.19571e-05
5.15951e-06
5.66789e-06
2.49847e-05
4.16255e-05
1.83341e-06
2.04395e-06
1.27018e-05
1.38439e-05
4.19009e-05
4.16262e-05
6.14698e-06
6.73891e-06
4.20083e-05
4.20055e-05
1.6084e-05
1.75089e-05
4.0234e-05
7.13911e-06
7.81447e-06
4.1875e-05
8.13477e-06
8.89375e-06
4.20612e-05
4.17939e-05
4.20284e-05
1.75809e-05
1.91288e-05
1.77694e-05
1.68394e-05
4.19794e-05
9.12875e-06
9.97083e-06
4.00031e-05
4.19979e-05
1.51866e-05
1.65374e-05
3.79077e-06
4.18188e-06
4.20149e-05
4.18145e-05
4.18488e-05
4.20055e-05
1.90961e-05
2.07511e-05
3.08344e-05
3.53272e-06
4.18586e-05
1.93703e-05
2.07344e-05
2.25042e-05
4.05005e-05
2.03772e-06
1.84385e-05
4.20338e-05
4.1831e-05
5.09743e-06
1.66744e-05
1.81523e-05
4.17613e-05
2.49469e-05
2.0978e-05
3.21084e-05
6.68738e-06
2.42357e-05
2.21919e-05
4.20113e-05
3.67857e-07
3.7838e-07
3.13201e-07
1.29584e-05
2.00383e-05
2.89063e-05
4.17954e-05
2.26243e-05
8.28819e-06
1.81704e-05
1.97702e-05
4.19349e-05
1.4029e-05
4.16632e-05
2.60195e-05
4.19867e-05
1.4595e-05
1.58948e-05
4.19852e-05
2.12487e-05
2.30769e-05
2.37168e-06
2.63857e-06
9.89191e-06
2.54822e-05
1.50965e-05
2.16596e-05
2.35126e-05
2.16486e-05
2.44076e-05
4.19934e-05
1.02169e-05
1.11505e-05
4.1489e-05
4.2016e-05
4.0251e-05
4.18666e-05
1.61656e-05
2.47765e-05
2.25547e-05
1.14951e-05
4.76265e-06
5.23747e-06
2.50705e-05
1.17093e-05
1.27681e-05
4.16533e-05
4.12954e-05
4.17856e-05
5.74676e-06
6.30514e-06
2.7322e-05
4.17085e-05
2.55381e-05
2.34071e-05
4.16441e-05
2.58126e-05
2.59151e-05
6.73666e-06
7.37841e-06
4.20448e-05
1.32023e-05
1.43861e-05
4.17153e-05
2.44095e-05
5.91673e-07
5.8569e-07
6.67408e-07
2.47715e-05
4.19368e-05
7.72894e-06
8.45412e-06
3.81881e-05
2.2441e-05
1.50847e-06
1.69637e-06
3.90932e-05
2.19008e-05
8.72417e-06
9.53263e-06
2.65707e-05
4.20341e-05
2.01361e-05
2.18371e-05
2.26498e-05
2.08838e-05
2.31838e-05
2.13829e-05
4.19897e-05
2.1579e-05
1.98897e-05
4.18723e-05
1.56836e-05
1.7077e-05
1.73727e-05
2.27124e-05
4.17027e-05
2.05083e-05
1.88711e-05
4.20425e-05
1.94314e-05
1.78657e-05
2.53193e-05
1.83541e-05
1.68651e-05
2.67639e-05
2.21142e-05
2.03884e-05
2.25808e-05
1.25637e-05
1.67385e-05
1.53728e-05
2.20868e-05
1.71712e-05
1.8693e-05
1.89707e-05
1.56568e-05
1.43741e-05
2.94505e-05
4.42912e-07
3.35269e-07
3.97352e-07
2.15847e-05
2.05297e-05
1.45806e-05
1.33813e-05
1.36333e-05
1.35035e-05
1.23878e-05
2.10449e-05
1.93824e-05
1.89283e-05
4.18718e-05
1.24225e-05
1.13905e-05
2.54135e-05
1.73248e-05
2.76168e-05
2.10629e-05
1.07969e-05
9.89036e-06
1.99942e-05
1.86788e-05
2.0313e-05
4.20141e-05
2.05713e-05
1.47021e-05
1.57161e-05
9.18071e-06
8.39857e-06
1.7822e-05
1.63723e-05
1.99712e-05
1.83728e-05
8.11004e-06
7.41098e-06
1.41089e-05
7.03078e-06
6.41616e-06
1.30412e-05
1.57684e-05
1.83932e-05
1.41954e-05
1.54625e-05
5.40321e-06
4.91303e-06
4.17684e-05
1.14344e-05
2.22047e-05
4.31645e-06
3.90878e-06
3.43348e-05
1.88948e-05
1.73703e-05
1.94625e-05
4.20295e-05
9.83002e-06
4.19788e-05
2.41958e-06
2.70076e-06
3.92057e-05
4.18619e-05
1.6788e-05
8.22582e-06
6.61882e-06
2.40247e-05
5.00609e-06
4.17583e-05
3.37254e-06
1.72788e-05
1.58715e-05
4.18628e-05
1.78604e-05
3.94697e-05
2.66423e-05
1.46443e-05
4.17438e-05
2.87044e-05
1.61978e-05
1.48736e-05
4.18299e-05
4.03059e-05
4.20005e-05
4.20593e-05
1.13354e-05
1.03872e-05
1.62542e-05
1.89207e-06
1.19716e-05
1.51201e-05
1.3879e-05
4.20024e-05
1.97015e-05
2.13932e-05
2.651e-05
9.71611e-06
8.8927e-06
4.1935e-05
1.51778e-05
2.37031e-05
2.59591e-05
4.19199e-05
1.03668e-05
2.3262e-05
4.19847e-05
1.40431e-05
1.28856e-05
4.06009e-05
8.76169e-06
1.35766e-05
1.29649e-05
1.18911e-05
4.17427e-05
2.64015e-05
5.94428e-06
5.4127e-06
4.06273e-05
7.15644e-06
1.25054e-05
1.18842e-05
1.08942e-05
4.19927e-05
4.16587e-05
5.54708e-06
2.8638e-07
3.6499e-07
2.92792e-07
4.19738e-05
1.57633e-06
1.40934e-06
4.20597e-05
1.08996e-05
1.02625e-05
9.39777e-06
3.22916e-06
2.90574e-06
4.20343e-05
4.08998e-05
4.17043e-05
4.16643e-05
4.12124e-05
2.52213e-06
2.26832e-06
4.18588e-05
3.92183e-06
4.67037e-06
5.13677e-06
1.15277e-06
1.2826e-06
1.1981e-06
4.19717e-05
5.65513e-06
6.20526e-06
6.64478e-06
7.27839e-06
7.63895e-06
8.35609e-06
8.63397e-06
9.43453e-06
9.29474e-06
4.19459e-05
8.64739e-06
7.90669e-06
1.48241e-06
1.62742e-06
8.43101e-07
8.22366e-07
9.09431e-07
3.63915e-05
1.40996e-05
1.53581e-05
3.9732e-05
4.18847e-05
4.20197e-05
7.57364e-06
6.91569e-06
4.19934e-05
3.95617e-05
3.8508e-05
4.20631e-05
1.96183e-05
2.12944e-05
7.69064e-06
4.18759e-05
4.18658e-05
4.18972e-05
1.61632e-06
1.78556e-06
1.24246e-05
1.34956e-05
4.13425e-05
6.49509e-06
5.92184e-06
1.45649e-05
2.76666e-05
1.56324e-05
4.20181e-05
3.88275e-05
4.19861e-05
4.20242e-05
4.20224e-05
4.00701e-05
4.1863e-05
4.17449e-05
6.08308e-06
1.53049e-06
4.19872e-05
4.14055e-05
3.85187e-05
4.19954e-05
2.57053e-05
4.17406e-05
4.86191e-06
4.41286e-06
4.18719e-05
3.61392e-05
4.18555e-05
2.2799e-06
4.18655e-05
4.1968e-05
4.19551e-05
2.73476e-05
4.18796e-05
3.68878e-06
4.07117e-06
4.46496e-06
4.09154e-05
4.1853e-05
3.77277e-06
3.40713e-06
4.19736e-05
4.18205e-05
4.18418e-05
4.94873e-06
4.17113e-05
3.38055e-06
4.10096e-05
4.18826e-05
6.54041e-06
1.01181e-05
1.10434e-05
4.10652e-05
4.20281e-05
1.26592e-05
1.16089e-05
8.14113e-06
1.42777e-05
1.31025e-05
4.19394e-05
1.69667e-05
1.55831e-05
1.85852e-05
1.70812e-05
2.02067e-05
1.85829e-05
9.7443e-06
4.18298e-05
2.81165e-05
4.19999e-05
4.12783e-05
1.13474e-05
4.20494e-05
4.19937e-05
1.92692e-06
2.42852e-05
1.98986e-06
2.20965e-06
4.15566e-05
4.1872e-05
3.97253e-05
4.199e-05
1.72275e-05
1.88285e-05
2.04383e-05
4.20419e-05
2.38156e-05
2.20503e-05
4.07128e-05
2.54854e-05
4.11486e-05
4.19982e-05
4.18775e-05
4.09588e-05
4.17562e-05
4.19555e-05
4.20095e-05
4.18539e-05
4.1977e-05
3.77701e-05
4.18179e-05
2.95756e-05
4.19921e-05
4.19837e-05
4.11672e-05
4.09979e-05
4.08262e-05
4.19938e-05
3.96361e-05
4.13971e-05
4.19598e-05
4.1495e-05
4.18661e-05
4.1987e-05
4.18589e-05
2.71897e-05
4.18307e-05
4.19762e-05
3.98942e-05
4.1916e-05
4.20368e-05
2.30968e-05
4.18955e-05
4.19267e-05
4.19614e-05
4.19836e-05
4.15409e-05
2.37608e-06
4.1999e-05
2.82373e-06
4.19888e-05
4.06032e-05
2.85978e-05
2.42256e-05
4.12707e-05
4.19856e-05
4.18836e-05
4.20376e-05
4.1934e-05
4.20071e-05
4.19954e-05
4.2014e-05
4.20365e-05
4.19669e-05
4.14667e-05
4.20111e-05
4.17416e-05
4.19442e-05
4.14867e-05
2.57455e-05
4.18778e-05
4.19729e-05
3.70022e-05
4.1889e-05
4.19653e-05
3.98035e-05
4.1062e-05
3.65699e-05
4.18739e-05
4.19973e-05
4.15485e-05
4.20127e-05
4.19363e-05
4.18677e-05
4.13443e-05
4.20096e-05
4.10561e-05
4.18753e-05
4.16842e-05
4.20427e-05
4.18874e-05
4.19524e-05
2.66896e-06
2.40355e-06
4.19085e-05
4.09498e-05
4.18954e-05
4.08808e-05
4.2027e-05
4.20233e-05
4.18496e-05
4.19333e-05
2.52565e-05
4.2015e-05
4.1872e-05
4.20156e-05
4.20338e-05
4.18244e-05
4.20393e-05
4.19893e-05
4.19665e-05
4.19917e-05
4.19815e-05
4.18535e-05
4.18682e-05
4.2023e-05
4.19846e-05
4.1995e-05
4.20322e-05
4.18799e-05
4.18914e-05
4.19456e-05
4.19932e-05
4.19624e-05
4.19286e-05
4.19137e-05
4.1888e-05
4.20302e-05
4.18342e-05
4.1936e-05
4.05528e-05
4.20419e-05
4.13583e-05
4.19811e-05
4.18414e-05
4.13497e-05
4.14e-05
4.19774e-05
2.86665e-05
4.20405e-05
4.12459e-05
4.18716e-05
4.19959e-05
4.18548e-05
4.20432e-05
4.19234e-05
4.20063e-05
4.19722e-05
4.2026e-05
4.18449e-05
4.20169e-05
4.10454e-05
4.15161e-05
4.2014e-05
4.20102e-05
4.19336e-05
4.1427e-05
4.18894e-05
4.18792e-05
4.20279e-05
4.0733e-05
4.17531e-05
4.20857e-05
4.19617e-05
4.19481e-05
4.19216e-05
4.18561e-05
4.18768e-05
4.20465e-05
4.19977e-05
4.18675e-05
4.20067e-05
4.18547e-05
4.1896e-05
4.20403e-05
4.12516e-05
2.41524e-06
4.19931e-05
4.13476e-05
4.18787e-05
4.19926e-05
4.18656e-05
4.19994e-05
4.19934e-05
4.20282e-05
4.19727e-05
4.17931e-05
4.19079e-05
4.04844e-05
4.20479e-05
4.20046e-05
4.20135e-05
4.17469e-05
4.19766e-05
4.18893e-05
4.20374e-05
4.20159e-05
4.2068e-05
4.17981e-05
4.20264e-05
4.18662e-05
4.19004e-05
4.2021e-05
4.10447e-05
2.86088e-06
4.19165e-05
4.19606e-05
4.11635e-05
4.16092e-05
4.19836e-05
4.10337e-05
4.20035e-05
4.18459e-05
4.18544e-05
4.20393e-05
4.18588e-05
4.20375e-05
4.19254e-05
4.16613e-05
2.51281e-05
4.15215e-05
4.15064e-05
4.19042e-05
4.19757e-05
4.20367e-05
4.20448e-05
4.20388e-05
4.18836e-05
4.20247e-05
4.20548e-05
4.14691e-05
4.20662e-05
4.15133e-05
4.20278e-05
4.20619e-05
4.20088e-05
4.19546e-05
4.18615e-05
4.20319e-05
4.20161e-05
4.19839e-05
4.20657e-05
4.18256e-05
4.19064e-05
4.18727e-05
4.20402e-05
4.20242e-05
4.18807e-05
4.19824e-05
4.20118e-05
4.19571e-05
2.3765e-05
4.20399e-05
4.17638e-05
4.17286e-05
4.19703e-05
4.19936e-05
4.20153e-05
4.20377e-05
4.15666e-05
4.20526e-05
4.18815e-05
4.18406e-05
4.18885e-05
4.19094e-05
4.2002e-05
4.19324e-05
4.20155e-05
4.18331e-05
4.20559e-05
4.19572e-05
4.19501e-05
4.20346e-05
4.17222e-05
4.18932e-05
4.1989e-05
4.19728e-05
4.20673e-05
4.20465e-05
4.19108e-05
4.18463e-05
4.19967e-05
4.18651e-05
4.19807e-05
4.20637e-05
4.18505e-05
4.18383e-05
4.19535e-05
4.18809e-05
4.17729e-05
4.18104e-05
4.18964e-05
4.20676e-05
4.20207e-05
4.1976e-05
4.13838e-05
4.17881e-05
4.18807e-05
3.15383e-06
2.84554e-06
4.19785e-05
4.20372e-05
4.1832e-05
4.15139e-05
4.14296e-05
3.36693e-06
4.19437e-05
4.1928e-05
4.2044e-05
4.1898e-05
4.18436e-05
4.19428e-05
4.17518e-05
4.13518e-05
4.19825e-05
4.13193e-05
4.13813e-05
4.14881e-05
4.20416e-05
4.20431e-05
4.13481e-05
4.18233e-05
4.1811e-05
4.17536e-05
4.20552e-05
4.14509e-05
4.11991e-05
4.20328e-05
4.20102e-05
4.18454e-05
3.64368e-05
4.20279e-05
4.16378e-05
4.19195e-05
4.13802e-05
4.20194e-05
4.12771e-05
4.15672e-05
4.20452e-05
4.12561e-05
4.15195e-05
4.18552e-05
4.1996e-05
4.19713e-05
4.06464e-05
4.12449e-05
4.14357e-05
4.14792e-05
4.20471e-05
4.18213e-05
4.18954e-05
4.15858e-05
4.14961e-05
4.18381e-05
4.17816e-05
4.17675e-05
4.17748e-05
4.13625e-05
4.15548e-05
4.11649e-05
3.88417e-06
4.20162e-05
4.18576e-05
4.19636e-05
3.65915e-06
3.30837e-06
4.15762e-05
3.22102e-06
2.90085e-06
4.1766e-05
4.07135e-05
4.20184e-05
4.20212e-05
4.18039e-05
4.20158e-05
4.16323e-05
4.17947e-05
4.19124e-05
4.19977e-05
4.16107e-05
4.20382e-05
4.17931e-05
4.1821e-05
4.16461e-05
4.16883e-05
3.78491e-06
4.17759e-06
2.3728e-05
4.16828e-05
4.14488e-05
4.19107e-05
4.16065e-05
4.17163e-05
4.17192e-05
4.2034e-05
4.19015e-05
4.05174e-05
4.15311e-05
4.07881e-05
4.16576e-05
4.21885e-05
4.15599e-05
4.19523e-05
4.17739e-05
4.00777e-06
4.18046e-05
4.06992e-05
4.1613e-05
4.14954e-05
4.16853e-05
4.15749e-05
4.40755e-06
4.18546e-05
4.2012e-05
4.10612e-05
4.16752e-05
4.70552e-06
4.27128e-06
4.11706e-05
4.16603e-05
2.26258e-06
2.02361e-06
2.35478e-05
4.20216e-05
4.13539e-05
4.16728e-05
4.93736e-06
4.11286e-05
4.20183e-05
4.13184e-05
4.1823e-05
4.17761e-05
4.76256e-06
5.23853e-06
4.1885e-05
5.47034e-06
4.15694e-05
4.15914e-05
4.1174e-05
4.15846e-05
5.61907e-06
6.00318e-06
4.18591e-05
5.77612e-06
5.25833e-06
4.19902e-05
6.53767e-06
5.75606e-06
6.31543e-06
5.41334e-06
5.94405e-06
4.08369e-05
7.0729e-06
4.20056e-05
6.25286e-06
6.85394e-06
7.22229e-06
7.6066e-06
2.38219e-05
6.75127e-06
7.39429e-06
8.14046e-06
2.63004e-05
7.93103e-06
7.2463e-06
8.67533e-06
8.46775e-06
7.74155e-06
8.82456e-06
9.21016e-06
9.00235e-06
8.23452e-06
9.74426e-06
1.02793e-05
8.7304e-06
9.53968e-06
1.04298e-05
9.22741e-06
1.00782e-05
1.08143e-05
8.89599e-06
9.71853e-06
1.13485e-05
1.06175e-05
9.72485e-06
1.18836e-05
1.0225e-05
1.11595e-05
1.24191e-05
1.20336e-05
1.17013e-05
1.07251e-05
1.13304e-05
1.03829e-05
1.29539e-05
1.12242e-05
1.22422e-05
1.27829e-05
1.17231e-05
1.34881e-05
1.33209e-05
1.22194e-05
1.40193e-05
1.38593e-05
1.27161e-05
1.45557e-05
1.32131e-05
1.4398e-05
1.30982e-05
7.22203e-06
2.51359e-05
2.58811e-05
2.40583e-05
2.17379e-05
2.35325e-05
3.14494e-06
2.83706e-06
1.22082e-05
1.33084e-05
6.84364e-06
6.24377e-06
1.47097e-05
2.40518e-05
2.22597e-05
1.04276e-05
2.16565e-05
1.37106e-05
2.49703e-05
1.49374e-05
4.04939e-06
2.58431e-05
1.84865e-05
1.6881e-05
1.1553e-06
1.00492e-06
2.28056e-05
2.53031e-06
1.20295e-05
1.16902e-05
1.0715e-05
2.19437e-05
2.02183e-05
2.33851e-05
1.50884e-05
1.92321e-05
1.76687e-05
3.06622e-05
2.08526e-05
1.91888e-05
7.23546e-06
8.82269e-06
1.00738e-05
9.22391e-06
7.91863e-06
1.49272e-05
1.37018e-05
2.4583e-05
4.71141e-06
4.27877e-06
2.31565e-05
5.62673e-06
2.57165e-05
2.80297e-05
5.77383e-06
5.25752e-06
2.78302e-05
2.14409e-06
1.91593e-06
2.64172e-05
8.99444e-06
8.22776e-06
2.97663e-05
2.30393e-05
1.92069e-05
2.00908e-05
2.08629e-05
2.03244e-05
1.8697e-05
2.32243e-05
1.7665e-05
1.62292e-05
2.1401e-05
2.09645e-05
1.41678e-05
2.24938e-05
2.19465e-05
2.62945e-05
2.0431e-05
1.97136e-05
1.88333e-05
1.42076e-05
1.63031e-05
2.59692e-05
2.07244e-05
1.52345e-05
1.71907e-05
2.02229e-05
2.25904e-05
1.82993e-05
1.77647e-05
2.3139e-05
2.12166e-05
1.47054e-05
1.6555e-05
1.60153e-05
1.98997e-05
1.70953e-05
1.76347e-05
1.54759e-05
1.66956e-05
2.11084e-05
1.81907e-05
1.57022e-05
1.93667e-05
2.20509e-05
1.66975e-05
2.54756e-05
2.52038e-05
1.52036e-05
2.37421e-05
2.15023e-05
2.27932e-05
1.81733e-05
1.79064e-05
1.60019e-05
1.46934e-05
1.87109e-05
2.35831e-05
1.72309e-05
1.95047e-05
2.51253e-05
1.97858e-05
1.76164e-05
1.61814e-05
1.61994e-05
2.55827e-05
1.5625e-05
1.76886e-05
2.46421e-05
1.61607e-05
2.36573e-05
2.17481e-05
2.62752e-05
2.41215e-05
2.31831e-05
1.92474e-05
2.57707e-05
2.40625e-05
2.56013e-05
2.47397e-05
2.37214e-05
2.17032e-05
4.15428e-05
2.2384e-05
2.26617e-05
2.21827e-05
2.29558e-05
4.17264e-05
4.18463e-05
4.17036e-05
2.4586e-05
4.18624e-05
4.20158e-05
4.16572e-05
2.13745e-05
4.16856e-05
4.16341e-05
4.1983e-05
4.18195e-05
4.18804e-05
2.54559e-05
4.13835e-05
2.26435e-05
4.16259e-05
4.17508e-05
4.16627e-05
4.13086e-05
4.14785e-05
4.0225e-05
2.188e-05
2.50566e-05
4.16779e-05
4.14968e-05
2.48995e-05
4.17284e-05
4.16083e-05
2.21521e-05
4.17733e-05
4.15294e-05
4.20175e-05
4.20139e-05
4.20213e-05
4.18014e-05
4.15952e-05
4.18491e-05
4.18368e-05
3.98837e-05
4.15984e-05
4.15634e-05
4.1852e-05
4.06803e-05
1.96693e-05
1.80836e-05
4.17832e-05
4.18642e-05
4.20971e-05
4.19891e-05
2.42831e-05
4.15096e-05
4.19454e-05
4.15045e-05
4.14252e-05
4.20337e-05
4.08513e-05
4.18172e-05
4.14265e-05
4.1742e-05
4.17384e-05
4.14598e-05
4.17601e-05
4.11613e-05
4.19952e-05
4.17808e-05
4.19375e-05
4.17107e-05
4.15509e-05
4.14248e-05
4.17161e-05
4.18146e-05
4.17065e-05
4.1873e-05
4.19487e-05
4.18408e-05
4.18801e-05
4.1909e-05
4.18335e-05
4.1162e-05
4.17072e-05
4.18658e-05
4.1788e-05
2.24849e-05
2.07287e-05
4.19038e-05
4.17725e-05
4.1404e-05
4.17262e-05
4.175e-05
4.18578e-05
4.18816e-05
4.19388e-05
4.17258e-05
4.19024e-05
2.21736e-05
4.17038e-05
4.19902e-05
4.16641e-05
4.19107e-05
4.10649e-05
4.2022e-05
4.10929e-05
4.17349e-05
4.18475e-05
4.15375e-05
4.16493e-05
4.20059e-05
4.1435e-05
4.1425e-05
4.1851e-05
4.19986e-05
4.17252e-05
4.19709e-05
4.20005e-05
4.20363e-05
2.68952e-05
4.1977e-05
4.20494e-05
4.2038e-05
4.19213e-05
4.18243e-05
4.18012e-05
4.18617e-05
4.18529e-05
4.20425e-05
4.19987e-05
4.19188e-05
4.17745e-05
4.18316e-05
4.20542e-05
4.2029e-05
4.20178e-05
4.20003e-05
4.17359e-05
4.20328e-05
4.19977e-05
4.2024e-05
4.17087e-05
4.14073e-05
4.18361e-05
4.18621e-05
1.80478e-05
1.65835e-05
4.19894e-05
4.20348e-05
4.18406e-05
4.18032e-05
4.1659e-05
4.18681e-05
2.21045e-05
2.03666e-05
4.18989e-05
4.07979e-05
4.17581e-05
2.63622e-05
4.19988e-05
4.17653e-05
2.30214e-05
2.12427e-05
1.12416e-06
4.18729e-05
4.17515e-05
4.1777e-05
4.2043e-05
4.20316e-05
4.18586e-05
4.18642e-05
4.20225e-05
4.18834e-05
4.199e-05
4.1768e-05
4.19611e-05
4.20186e-05
4.12967e-05
4.1865e-05
4.18953e-05
4.18507e-05
4.17987e-05
4.20323e-05
4.18579e-05
4.18491e-05
4.19337e-05
4.19784e-05
4.18759e-05
4.20146e-05
4.20309e-05
4.20285e-05
4.1495e-05
4.20263e-05
4.14332e-05
4.20381e-05
4.19968e-05
4.11772e-05
4.09469e-05
4.1999e-05
4.20418e-05
4.18598e-05
4.18752e-05
4.19839e-05
4.17404e-05
4.20342e-05
4.1355e-05
4.19366e-05
4.18856e-05
4.17588e-05
4.14624e-05
4.19997e-05
4.18725e-05
4.20392e-05
4.18891e-05
2.14251e-05
1.97285e-05
4.17688e-05
4.18837e-05
4.19644e-05
1.64328e-05
1.50912e-05
4.12012e-05
2.11443e-05
4.17779e-05
4.19644e-05
4.20369e-05
4.18251e-05
4.19079e-05
4.20297e-05
4.19699e-05
4.17373e-05
4.19605e-05
4.17517e-05
4.20135e-05
4.19237e-05
4.19206e-05
2.16471e-05
4.18906e-05
4.19847e-05
4.1823e-05
4.20428e-05
4.12354e-05
4.19115e-05
4.18978e-05
4.20542e-05
4.18157e-05
4.08403e-05
4.18109e-05
4.05812e-05
4.1701e-05
4.18331e-05
4.19011e-05
4.19175e-05
4.19448e-05
4.19898e-05
4.19238e-05
4.19636e-05
4.16049e-05
4.18876e-05
4.16568e-05
4.19843e-05
4.20284e-05
4.20453e-05
4.18169e-05
4.20378e-05
4.20309e-05
4.19106e-05
4.1857e-05
4.20574e-05
4.19437e-05
4.18738e-05
4.204e-05
4.18124e-05
4.17631e-05
2.32229e-05
4.20185e-05
4.20065e-05
4.19637e-05
4.20344e-05
4.20042e-05
4.17278e-05
4.18138e-05
4.17692e-05
4.20225e-05
4.19589e-05
4.20043e-05
4.15132e-05
4.20245e-05
4.16729e-05
4.19852e-05
4.18843e-05
4.20188e-05
4.20051e-05
4.20034e-05
4.18488e-05
4.18486e-05
4.18555e-05
4.20225e-05
4.18631e-05
4.18651e-05
4.16085e-05
4.13292e-05
4.20107e-05
4.19848e-05
4.18721e-05
4.19581e-05
4.17335e-05
4.0958e-05
2.10261e-05
1.9356e-05
4.19312e-05
4.1934e-05
2.05939e-05
4.19336e-05
4.16692e-05
4.20481e-05
4.18255e-05
4.20403e-05
4.19211e-05
4.19753e-05
4.18877e-05
2.26468e-05
2.08678e-05
4.20514e-05
4.20237e-05
4.19526e-05
4.18919e-05
4.20277e-05
4.19959e-05
4.19081e-05
4.19383e-05
4.19041e-05
4.19274e-05
4.18751e-05
2.11236e-05
4.1888e-05
4.19351e-05
4.19192e-05
4.20211e-05
4.18187e-05
4.20433e-05
4.10668e-05
4.20205e-05
4.19306e-05
2.96654e-05
4.20395e-05
4.18377e-05
4.20438e-05
4.19183e-05
4.18602e-05
4.14434e-05
4.20474e-05
4.2034e-05
4.18093e-05
4.20552e-05
4.12405e-05
4.20193e-05
4.1922e-05
4.18514e-05
4.19239e-05
4.18427e-05
4.20262e-05
4.20139e-05
4.19699e-05
4.16687e-05
4.18608e-05
4.20099e-05
4.20455e-05
4.19e-05
4.11986e-05
4.17957e-05
4.20586e-05
4.18997e-05
4.15536e-05
4.18876e-05
4.20354e-05
4.20488e-05
4.2031e-05
4.20515e-05
4.20057e-05
4.17925e-05
4.18996e-05
4.2028e-05
4.19129e-05
4.20474e-05
4.20531e-05
4.2017e-05
4.1837e-05
4.19192e-05
4.20265e-05
4.20426e-05
4.20529e-05
4.20531e-05
4.1878e-05
4.18425e-05
4.18862e-05
4.17643e-05
4.20382e-05
4.19874e-05
4.20173e-05
4.20206e-05
4.19484e-05
4.17837e-05
4.18952e-05
4.19952e-05
4.17276e-05
4.19585e-05
2.03582e-05
1.8726e-05
4.2015e-05
4.20034e-05
4.18928e-05
2.15158e-05
4.18122e-05
4.19955e-05
1.37412e-05
1.26077e-05
4.20092e-05
4.18672e-05
4.20236e-05
4.19475e-05
4.19354e-05
4.2006e-05
4.18132e-05
4.19173e-05
4.19014e-05
4.18745e-05
4.18075e-05
4.1917e-05
4.19816e-05
4.19054e-05
4.17795e-05
4.18023e-05
4.2045e-05
4.1319e-05
4.19279e-05
4.16067e-05
4.15532e-05
4.11298e-05
4.18341e-05
4.15776e-05
4.20033e-05
4.18476e-05
4.15962e-05
4.11873e-05
4.19138e-05
4.18812e-05
4.20402e-05
4.20051e-05
4.19465e-05
4.13498e-05
4.18412e-05
4.19241e-05
4.20489e-05
4.20129e-05
4.1873e-05
4.20064e-05
4.19035e-05
4.19796e-05
4.20038e-05
4.17217e-05
4.17175e-05
4.20028e-05
4.1075e-05
4.1888e-05
4.19415e-05
4.15707e-05
4.09696e-05
4.17155e-05
4.43029e-06
4.13888e-05
4.20557e-05
4.20069e-05
1.99476e-05
1.83459e-05
4.20453e-05
1.95563e-05
4.19705e-05
4.10919e-05
4.19505e-05
4.19473e-05
4.20441e-05
4.19068e-05
4.18897e-05
2.19576e-05
2.02281e-05
4.19083e-05
4.18828e-05
1.21226e-05
1.11139e-05
4.19804e-05
4.20215e-05
4.18962e-05
4.09073e-05
4.20119e-05
4.19585e-05
4.12106e-05
4.19838e-05
4.20524e-05
2.06212e-05
4.11657e-05
4.19145e-05
4.19729e-05
4.20268e-05
1.99067e-05
4.19802e-05
6.01544e-06
4.20469e-05
4.13588e-05
4.17629e-05
4.20186e-05
4.19157e-05
4.17308e-05
4.1813e-05
4.20117e-05
4.20013e-05
4.19924e-05
4.19856e-05
4.15844e-05
4.19701e-05
4.19891e-05
4.20247e-05
4.19721e-05
4.18504e-05
4.20256e-05
4.19662e-05
7.61379e-06
4.19313e-05
4.18154e-05
4.20376e-05
4.18732e-05
4.20454e-05
1.92798e-05
1.77246e-05
1.89888e-05
4.19987e-05
4.19731e-05
4.19236e-05
2.88369e-06
4.18344e-05
4.20381e-05
4.2033e-05
4.19272e-05
1.05099e-05
9.62622e-06
4.20452e-05
4.20212e-05
9.2154e-06
4.19829e-05
4.18572e-05
4.20258e-05
-9.6144e-08
-1.28927e-07
-1.06915e-07
4.18967e-05
4.20384e-05
4.20048e-05
4.12738e-05
4.19129e-05
4.18295e-05
4.1999e-05
4.14031e-05
2.68955e-05
4.18191e-05
4.17598e-05
1.83025e-05
4.17944e-05
4.08603e-05
4.18631e-05
4.20184e-05
4.1996e-05
4.20222e-05
4.15124e-05
4.18803e-05
1.2951e-06
1.18073e-06
1.08189e-05
4.19202e-05
4.18818e-05
2.76014e-05
4.19341e-05
4.18789e-05
4.19862e-05
4.20207e-05
4.19788e-05
1.88678e-05
1.73422e-05
4.19556e-05
4.20041e-05
4.19353e-05
4.19899e-05
4.1958e-05
4.19148e-05
4.19624e-05
2.15646e-05
1.98635e-05
4.18042e-05
4.19563e-05
4.19803e-05
4.20441e-05
4.19452e-05
4.2048e-05
4.20176e-05
4.19946e-05
4.18903e-05
4.14329e-05
4.20379e-05
4.2014e-05
4.17734e-05
4.18692e-05
4.18579e-05
4.19518e-05
4.18418e-05
1.67013e-05
4.20491e-05
3.21111e-06
3.55112e-06
4.19327e-05
1.79518e-05
1.82045e-05
1.67273e-05
4.17818e-05
4.19894e-05
4.15833e-05
4.19212e-05
4.2e-05
4.19481e-05
4.18121e-05
4.19706e-05
4.19629e-05
4.20572e-05
4.16437e-05
4.20398e-05
4.18365e-05
4.19944e-05
2.00606e-05
4.19057e-05
4.12706e-05
4.20002e-05
4.16504e-05
4.20398e-05
4.18686e-05
4.17139e-05
4.19588e-05
4.20113e-05
1.7801e-06
1.57914e-06
4.13388e-05
1.73861e-05
4.15134e-05
4.19657e-05
4.20528e-05
4.18243e-05
4.19229e-05
4.18975e-05
4.2007e-05
4.20474e-05
2.08981e-05
1.92319e-05
1.9524e-05
4.18392e-05
4.20464e-05
4.19697e-05
4.20504e-05
4.124e-05
4.20073e-05
4.1974e-05
4.20479e-05
4.19137e-05
4.19032e-05
4.18752e-05
4.12261e-05
1.72521e-05
1.58469e-05
4.20434e-05
4.20008e-05
4.2002e-05
4.19518e-05
4.1919e-05
4.18719e-05
4.19662e-05
4.20573e-05
4.20092e-05
4.2002e-05
4.18081e-05
4.20055e-05
4.18999e-05
1.63459e-05
4.19817e-05
1.65828e-05
1.52292e-05
4.18605e-05
4.11636e-05
4.18656e-05
4.19941e-05
4.2062e-05
4.20474e-05
4.19167e-05
2.04874e-05
1.88509e-05
1.90203e-05
4.19958e-05
4.19897e-05
1.57797e-05
1.61726e-05
1.48504e-05
4.14883e-05
4.18897e-05
4.18543e-05
4.186e-05
4.18688e-05
4.19523e-05
4.2e-05
4.19212e-05
4.19936e-05
4.07988e-05
1.5278e-05
4.18125e-05
4.20485e-05
4.20016e-05
1.55037e-05
1.4233e-05
4.20342e-05
4.20038e-05
4.20028e-05
1.9822e-05
1.82265e-05
4.07228e-05
4.18782e-05
4.06424e-05
4.1865e-05
4.08384e-05
4.09186e-05
4.14422e-05
4.20543e-05
1.50964e-05
1.38579e-05
2.58277e-05
1.8454e-05
4.08847e-05
4.20396e-05
1.41779e-05
1.44272e-05
1.324e-05
2.06568e-05
2.23919e-05
2.21513e-05
2.40656e-05
1.792e-05
1.9408e-05
1.78423e-05
4.20438e-05
4.14593e-05
4.18923e-05
2.54391e-05
4.18685e-05
4.20165e-05
1.36743e-05
1.4019e-05
1.28639e-05
4.20498e-05
4.19808e-05
4.19746e-05
3.85365e-05
3.10089e-05
4.20557e-05
4.18541e-05
4.20496e-05
1.74735e-06
1.31037e-05
4.18796e-05
1.33519e-05
1.22482e-05
4.19747e-05
4.09637e-05
4.20012e-05
1.74158e-05
1.87427e-05
1.72257e-05
1.26056e-05
3.96715e-05
1.29406e-05
1.18687e-05
4.16926e-05
4.18654e-05
4.19336e-05
4.18744e-05
4.11246e-05
4.18757e-05
4.20453e-05
4.1985e-05
4.20071e-05
1.22737e-05
1.12534e-05
4.17691e-05
4.19006e-05
3.17135e-05
4.20538e-05
1.8327e-05
1.68408e-05
4.16451e-05
3.91643e-05
1.15002e-05
1.18631e-05
1.08746e-05
4.18329e-05
4.20288e-05
4.20578e-05
4.20268e-05
4.2055e-05
4.18214e-05
4.07712e-05
4.17249e-05
4.1898e-05
1.68503e-05
4.1926e-05
4.20503e-05
1.10013e-05
4.20556e-05
4.19912e-05
1.57861e-06
4.18963e-05
4.19197e-05
4.18664e-05
4.19423e-05
4.19121e-05
4.191e-05
2.5792e-05
1.63142e-05
4.20361e-05
4.19885e-05
1.77839e-05
1.63375e-05
4.06807e-05
4.20135e-05
4.19606e-05
4.2032e-05
1.06515e-05
9.7562e-06
4.19644e-05
4.18602e-05
4.20349e-05
4.20105e-05
4.18829e-05
4.19285e-05
4.19281e-05
4.18967e-05
4.20464e-05
9.89732e-06
4.15462e-05
2.88978e-05
1.02514e-05
9.38768e-06
2.58406e-05
4.19117e-05
3.41375e-05
4.18753e-05
4.10922e-05
4.10896e-05
1.58104e-05
9.39608e-06
1.71347e-05
1.57407e-05
3.94092e-05
4.20539e-05
4.15808e-05
4.20098e-05
4.18677e-05
4.2003e-05
9.03227e-06
8.26204e-06
4.1867e-05
4.14851e-05
4.19374e-05
4.205e-05
4.18953e-05
8.29264e-06
4.1853e-05
1.52435e-05
8.63287e-06
7.89412e-06
1.67141e-05
1.53501e-05
4.18684e-05
4.20423e-05
4.20363e-05
4.19383e-05
7.79257e-06
4.19891e-05
7.95891e-06
7.27201e-06
4.19077e-05
4.18688e-05
4.20322e-05
4.19317e-05
4.18961e-05
7.55406e-06
6.89859e-06
1.6044e-05
1.47314e-05
4.19647e-05
4.18808e-05
4.18571e-05
4.20535e-05
6.68943e-06
4.19834e-05
6.88088e-06
6.27752e-06
4.19574e-05
1.47422e-05
4.1976e-05
4.20027e-05
4.20056e-05
4.18997e-05
4.19399e-05
4.20501e-05
6.18325e-06
6.47657e-06
5.90507e-06
4.20121e-05
1.42057e-05
4.17958e-05
4.20191e-05
1.56338e-05
1.43535e-05
4.19309e-05
4.1891e-05
4.18725e-05
5.08507e-06
4.1694e-05
5.24495e-06
4.76619e-06
1.36396e-05
1.49703e-05
1.37412e-05
2.11622e-05
2.29494e-05
4.19111e-05
4.85228e-06
4.40544e-06
4.16558e-05
4.56335e-06
4.1325e-05
4.2008e-05
2.26389e-05
2.45908e-05
4.19428e-05
2.76174e-05
4.0104e-05
4.10652e-05
4.14705e-06
3.75075e-06
2.56743e-05
3.72841e-05
4.2e-05
4.18525e-05
4.19083e-05
4.18914e-05
1.31382e-05
2.19932e-06
1.96443e-06
4.1936e-05
1.45571e-05
1.33601e-05
3.76069e-06
3.39852e-06
4.2008e-05
4.18458e-05
4.18849e-05
4.18687e-05
4.20039e-05
3.46881e-06
1.25676e-05
4.19072e-05
4.1937e-05
1.38931e-05
1.27476e-05
4.20564e-05
4.19184e-05
4.19903e-05
4.19759e-05
2.38649e-06
2.11497e-06
4.18048e-05
4.19468e-05
4.19671e-05
4.19316e-05
4.19295e-05
4.19911e-05
4.18447e-05
1.34803e-05
1.23667e-05
4.15273e-05
4.20109e-05
4.19114e-05
4.0268e-05
4.13452e-05
1.207e-05
4.20151e-05
4.20585e-05
1.15322e-05
2.57233e-05
2.88251e-06
2.46854e-05
1.28145e-05
1.17524e-05
4.19726e-05
1.02506e-06
4.20368e-05
3.91172e-05
4.17819e-05
4.00921e-05
4.20607e-05
1.09636e-05
4.19049e-05
1.24013e-05
1.1371e-05
4.18957e-05
2.43855e-05
4.19055e-05
1.17332e-05
1.07543e-05
4.09948e-05
3.69737e-05
4.19108e-05
1.04667e-05
4.193e-05
9.92841e-06
7.53906e-07
5.55391e-07
4.17843e-05
4.18704e-05
1.12009e-05
1.02645e-05
4.19695e-05
4.1911e-05
4.19357e-05
4.18861e-05
4.19023e-05
4.2046e-05
9.35909e-06
4.19508e-05
1.07912e-05
9.88552e-06
4.05095e-05
4.20482e-05
4.2012e-05
4.20142e-05
4.19963e-05
4.19876e-05
4.19933e-05
1.01109e-05
9.25682e-06
4.19732e-05
8.86137e-06
4.19266e-05
4.20199e-05
1.48034e-06
8.32423e-06
4.15967e-05
9.58418e-06
8.77285e-06
4.15445e-05
4.09955e-05
4.17241e-05
4.20188e-05
4.20127e-05
4.19904e-05
4.19145e-05
7.75693e-06
4.17777e-05
4.1291e-05
9.17571e-06
8.39504e-06
3.91777e-05
4.51971e-05
4.16856e-05
4.20599e-05
4.15526e-05
4.19257e-05
8.49789e-06
7.76887e-06
4.19522e-05
4.15432e-05
7.2564e-06
4.18865e-05
4.16394e-05
4.16546e-05
6.71619e-06
8.09293e-06
7.39604e-06
2.54618e-05
4.17797e-05
4.17605e-05
4.19742e-05
4.16409e-05
4.1998e-05
2.42351e-05
3.29985e-05
4.20093e-05
4.19045e-05
6.15317e-06
7.42392e-06
6.77907e-06
4.19763e-05
4.19059e-05
4.20398e-05
4.20535e-05
4.19437e-05
4.18533e-05
4.19232e-05
7.01481e-06
6.40181e-06
4.00892e-05
3.71255e-05
5.64705e-06
4.08959e-05
4.17974e-05
4.16985e-05
4.20113e-05
3.28819e-05
5.10209e-06
4.196e-05
6.33943e-06
5.77741e-06
4.1689e-05
4.20161e-05
4.54583e-06
5.80669e-06
5.2873e-06
4.18502e-05
3.20106e-05
3.94956e-05
4.18963e-05
4.19198e-05
4.20318e-05
5.40036e-06
4.91136e-06
2.33569e-05
4.19515e-05
4.16945e-05
4.19694e-05
4.18761e-05
4.01301e-06
4.16421e-05
4.69987e-06
4.26174e-06
4.20206e-05
4.18982e-05
3.45209e-06
4.17297e-05
4.19692e-05
2.77367e-05
4.30634e-06
3.90148e-06
4.19554e-05
4.19606e-05
4.16907e-05
2.93387e-06
4.16362e-05
9.94068e-07
9.52153e-07
1.07343e-06
4.15777e-05
3.59066e-06
3.23622e-06
2.26657e-05
4.19032e-05
4.18006e-05
4.19613e-05
4.16175e-05
4.19256e-05
4.19292e-05
4.18603e-05
3.02308e-06
2.71154e-06
4.18506e-05
4.04912e-05
4.18307e-05
3.38473e-05
2.69061e-06
2.41234e-06
4.18163e-05
4.19032e-05
2.59091e-05
4.1876e-05
4.18596e-05
4.18581e-05
4.16734e-05
2.97048e-05
4.17232e-05
3.70224e-05
4.18858e-05
2.4242e-05
4.20089e-05
4.18912e-05
4.17453e-05
4.2058e-05
4.00293e-05
3.86958e-05
3.9571e-05
3.67e-05
4.16381e-05
4.20144e-05
2.30194e-06
4.18459e-05
4.18733e-05
1.81839e-06
1.59068e-06
2.57693e-05
1.03471e-06
4.19397e-05
3.8587e-05
4.20062e-05
4.16029e-05
4.20225e-05
4.17939e-05
3.9966e-05
2.4719e-05
4.20525e-05
4.17858e-05
4.14299e-05
4.12302e-05
4.18868e-05
4.20011e-05
4.2037e-05
2.78193e-05
1.62702e-06
2.69166e-05
4.03655e-05
4.17944e-05
1.26387e-06
5.76989e-07
7.23568e-07
4.19849e-05
4.20298e-05
4.17901e-05
4.20362e-05
4.16262e-05
2.56376e-05
1.42602e-06
1.49359e-06
1.35159e-06