/*--------------------------------*- C++ -*----------------------------------*\
  =========                 |
  \\      /  F ield         | OpenFOAM: The Open Source CFD Toolbox
   \\    /   O peration     | Website:  https://openfoam.org
    \\  /    A nd           | Version:  8
     \\/     M anipulation  |
\*---------------------------------------------------------------------------*/
FoamFile
{
    version     2.0;
    format      ascii;
    class       volScalarField;
    location    "7";
    object      p;
}
// * * * * * * * * * * * * * * * * * * * * * * * * * * * * * * * * * * * * * //

dimensions      [0 2 -2 0 0 0 0];

internalField   nonuniform List<scalar> 
1642
(
8.29221e-05
6.93991e-05
6.81559e-05
7.21814e-05
8.29822e-05
8.29235e-05
8.27776e-05
8.28226e-05
8.26699e-05
8.28679e-05
7.42563e-05
8.2159e-05
8.28945e-05
8.28401e-05
8.27776e-05
8.23159e-05
8.28717e-05
8.2903e-05
8.29389e-05
8.2932e-05
8.28759e-05
8.27272e-05
8.28954e-05
8.22268e-05
8.28698e-05
8.26772e-05
8.29495e-05
7.99505e-05
1.73741e-06
1.59613e-06
1.54464e-06
8.29027e-05
8.09384e-05
8.2919e-05
8.28983e-05
8.27621e-05
8.21404e-05
8.29314e-05
8.28266e-05
8.28316e-05
8.29762e-05
8.29376e-05
8.29351e-05
6.2382e-05
8.57321e-05
8.2898e-05
8.29609e-05
8.29348e-05
8.29344e-05
8.28599e-05
8.29385e-05
8.29381e-05
8.29257e-05
7.22748e-05
7.32904e-05
8.2739e-05
8.27191e-05
8.29042e-05
8.21221e-05
8.30725e-05
8.29051e-05
8.29115e-05
8.29404e-05
8.24958e-05
8.27626e-05
8.29323e-05
8.29239e-05
8.29326e-05
8.27263e-05
8.29407e-05
8.29516e-05
8.28673e-05
8.29549e-05
8.30235e-05
8.28308e-05
8.25359e-05
6.8585e-07
7.27585e-07
7.7282e-07
8.28918e-05
8.29307e-05
8.29311e-05
8.18962e-05
8.28379e-05
8.41785e-05
8.24678e-05
8.26471e-05
8.28639e-05
8.26242e-05
8.29135e-05
8.28691e-05
8.28392e-05
8.26608e-05
8.27165e-05
8.27943e-05
8.28194e-05
8.28838e-05
8.28295e-05
8.28321e-05
8.26696e-05
8.26777e-05
8.23073e-05
8.28984e-05
2.74001e-05
2.90303e-05
3.11903e-05
3.12697e-05
3.82339e-05
2.40759e-05
2.12833e-05
3.91233e-05
2.38455e-05
3.813e-05
9.52725e-06
9.9154e-06
7.28976e-06
6.95588e-06
4.1955e-06
5.14153e-05
5.54191e-05
7.0333e-06
5.0902e-05
4.99262e-05
8.24586e-05
8.27925e-05
8.29999e-05
8.29319e-05
8.29225e-05
8.28625e-05
8.28398e-05
8.29775e-05
8.28581e-05
8.29108e-05
8.3727e-05
8.29286e-05
8.29348e-05
8.28763e-05
8.29446e-05
8.28999e-05
8.19838e-05
8.28232e-05
8.29345e-05
8.29297e-05
8.29604e-05
8.2796e-05
8.28962e-05
8.30065e-05
8.29336e-05
8.29761e-05
8.28885e-05
8.28993e-05
8.29507e-05
8.29284e-05
8.2905e-05
8.24155e-05
8.30184e-05
8.30085e-05
8.29382e-05
8.29034e-05
8.2871e-05
8.29347e-05
8.29322e-05
8.28967e-05
8.28162e-05
8.29213e-05
8.29599e-05
8.29985e-05
8.29244e-05
8.29465e-05
8.27423e-05
8.28079e-05
8.29128e-05
8.29381e-05
8.29275e-05
8.29127e-05
8.29293e-05
8.28673e-05
8.28824e-05
8.29068e-05
8.41986e-05
8.26856e-05
8.29351e-05
8.23704e-05
8.29395e-05
8.29322e-05
8.28452e-05
8.29553e-05
8.29301e-05
8.28215e-05
8.27574e-05
8.2734e-05
8.29339e-05
8.29316e-05
8.28428e-05
8.2993e-05
8.2817e-05
8.24432e-05
8.29283e-05
8.27545e-05
8.28963e-05
8.29317e-05
8.29393e-05
8.25438e-05
8.27749e-05
8.2758e-05
8.29333e-05
8.28991e-05
2.91921e-05
2.5192e-05
2.34119e-05
2.36047e-05
2.53156e-05
2.98882e-05
3.07447e-05
2.61247e-05
4.02795e-05
2.99642e-05
4.11447e-05
2.42871e-05
2.81778e-05
3.34455e-05
2.27084e-05
3.5154e-05
1.58452e-05
3.17422e-05
2.33276e-05
2.42182e-05
4.896e-05
2.61279e-05
2.25015e-05
4.18617e-05
3.06939e-05
3.41569e-05
2.44224e-05
3.2451e-05
2.73181e-05
2.89416e-05
3.58647e-05
4.45803e-05
2.07954e-05
4.96558e-05
3.17093e-05
4.28627e-05
5.10317e-05
2.10257e-05
7.71262e-06
4.35699e-05
5.04596e-05
5.16692e-05
7.37212e-06
7.33347e-06
3.68535e-05
5.34674e-05
5.09189e-05
1.16303e-05
1.11804e-05
1.39656e-05
4.8659e-05
3.31196e-05
1.20583e-05
4.80509e-05
4.60563e-05
4.69748e-05
7.67219e-06
5.10275e-05
4.50988e-05
2.23962e-05
3.51975e-05
5.27315e-05
4.13185e-05
4.52169e-05
1.07697e-05
1.39545e-05
4.43176e-05
4.7656e-05
5.73839e-05
4.30195e-05
3.86703e-05
3.77013e-05
3.94093e-05
2.18567e-05
1.28965e-05
3.84335e-05
5.63298e-05
5.71183e-06
1.55392e-05
3.24411e-05
4.98855e-05
1.55121e-05
3.57613e-05
1.50436e-05
2.05038e-05
4.05838e-05
1.93135e-05
1.24507e-05
3.41793e-05
5.66561e-06
5.89173e-05
6.29003e-05
3.69316e-05
1.11808e-05
8.17829e-06
1.02993e-05
1.76892e-05
8.53536e-06
3.21984e-05
1.82542e-06
2.04801e-05
9.03257e-06
9.90528e-06
9.40725e-06
2.16269e-05
4.73956e-05
5.44603e-05
4.11788e-05
1.50116e-05
1.8613e-05
1.11542e-05
2.42589e-05
4.09282e-06
6.20018e-05
2.52769e-05
3.52577e-06
3.16692e-05
5.3339e-05
6.02135e-05
3.15681e-05
5.02114e-05
1.6381e-06
3.77643e-05
4.27192e-05
4.6025e-05
8.41047e-06
1.37827e-05
3.08898e-05
1.41792e-05
1.02299e-05
8.37202e-06
2.70211e-05
2.14188e-05
1.95755e-05
2.77705e-05
5.43734e-05
2.94776e-05
1.33208e-05
5.52204e-05
5.88174e-05
5.71076e-05
2.01473e-05
1.33132e-05
4.02875e-05
4.9695e-05
1.02485e-05
6.03977e-05
1.46574e-05
3.34511e-06
1.37756e-05
3.58951e-06
6.0247e-05
1.90345e-05
2.79551e-05
2.59962e-05
2.44586e-05
2.68894e-05
2.60132e-05
1.98682e-05
2.89146e-05
3.92893e-05
2.79742e-05
6.00009e-05
2.07517e-06
3.76349e-05
3.78024e-05
1.72714e-05
2.5122e-05
5.37587e-05
3.68337e-05
4.67234e-05
4.69613e-05
4.22343e-05
3.8564e-05
4.04248e-05
1.58165e-05
2.68631e-05
1.8149e-05
1.67387e-05
2.83375e-05
6.53432e-06
3.00435e-05
2.61784e-05
4.01439e-05
5.42205e-05
2.88808e-05
6.85343e-06
5.02752e-05
4.32702e-06
5.74946e-05
2.10023e-05
3.34489e-05
1.75944e-05
5.05891e-05
3.49799e-05
4.15219e-05
7.49041e-06
4.85833e-06
1.30197e-05
6.54404e-06
3.33045e-05
4.5261e-05
1.67291e-05
3.59229e-05
4.10052e-05
4.78872e-05
1.76951e-05
5.14725e-05
5.07782e-05
4.96949e-05
6.49967e-06
5.32698e-05
3.08361e-05
6.81981e-06
3.39055e-05
1.02738e-05
6.58749e-06
1.49017e-05
4.068e-06
3.42992e-05
1.30437e-05
3.60655e-05
2.32846e-05
4.24557e-05
4.41308e-05
4.31666e-05
1.81296e-05
1.75779e-05
3.87022e-05
5.19357e-05
3.67006e-05
4.83251e-05
2.51515e-05
3.76621e-05
5.1532e-05
3.50112e-05
2.23473e-05
1.48831e-05
1.89982e-05
1.24747e-05
2.07525e-05
4.83846e-05
1.29203e-05
3.25907e-05
5.62694e-05
3.95373e-05
3.94925e-05
3.75757e-05
4.59941e-05
3.96771e-06
1.72628e-05
4.78261e-05
1.86348e-05
3.33113e-05
3.28865e-06
3.40438e-05
5.23599e-05
4.61958e-05
5.15727e-05
5.49051e-05
3.60045e-05
4.71237e-05
3.50468e-05
5.71408e-05
4.91059e-05
6.07263e-05
4.41654e-05
5.52892e-05
4.8797e-05
4.50959e-05
9.29709e-06
4.77022e-06
2.35675e-05
3.15993e-05
3.85546e-05
1.20855e-05
2.66497e-06
2.33761e-05
2.18865e-05
1.80382e-05
9.418e-06
2.70465e-05
5.20467e-05
2.92407e-05
4.20935e-05
4.39607e-05
1.92904e-05
4.7604e-05
3.48352e-05
4.58616e-05
2.77322e-05
3.67205e-05
6.59831e-05
2.8704e-06
4.20019e-05
4.67647e-05
5.14371e-06
6.38621e-05
3.25996e-05
4.69471e-05
1.63864e-05
1.58683e-05
2.95418e-05
4.95105e-05
3.67951e-05
3.85314e-05
1.11473e-05
5.24467e-05
1.84334e-05
2.98094e-05
2.51486e-05
1.36329e-05
5.30155e-05
2.16664e-05
1.46415e-05
1.41603e-05
5.63024e-05
5.4392e-05
5.8714e-05
2.80849e-06
2.55147e-05
4.33858e-05
9.04144e-06
3.12153e-06
4.44077e-05
4.32292e-05
4.1361e-05
6.53522e-05
6.00992e-06
4.22933e-05
2.5603e-05
5.15939e-06
4.80554e-05
1.99271e-05
2.63251e-05
4.89766e-05
7.45277e-06
2.59621e-06
2.7829e-05
9.8808e-06
5.72629e-05
2.60858e-05
4.49158e-05
4.54115e-05
1.07369e-05
3.2098e-06
2.14404e-05
5.63375e-05
4.87307e-05
3.03492e-05
1.58932e-05
3.03985e-05
4.35813e-06
1.61928e-05
4.54765e-05
2.71941e-05
4.37235e-05
2.98586e-05
1.15924e-05
9.32532e-06
5.96876e-06
1.27773e-05
2.98193e-05
3.9645e-05
2.86841e-05
5.25669e-05
3.38296e-05
3.01753e-05
1.41006e-05
5.23283e-05
4.61917e-05
1.84531e-05
4.94569e-05
2.69762e-05
2.80681e-05
3.0738e-05
2.01727e-05
3.43278e-05
3.2579e-05
3.12537e-05
3.20403e-05
2.90346e-05
4.04214e-05
3.1108e-05
2.64604e-05
5.03386e-05
2.73786e-05
8.21077e-06
2.86029e-05
4.06459e-05
5.64861e-06
1.14818e-05
1.20208e-05
8.57056e-06
3.59065e-05
2.54538e-05
1.7045e-05
2.27564e-05
3.7332e-05
2.83107e-05
3.94159e-05
5.0226e-05
4.88233e-06
1.95435e-05
3.55812e-05
4.89943e-05
1.21178e-05
3.63411e-05
1.99066e-05
4.97487e-06
1.64064e-05
3.64575e-05
1.24382e-05
2.42477e-05
1.89715e-05
1.10636e-05
4.99052e-05
1.78981e-05
4.84695e-05
5.04517e-05
2.64474e-05
4.09881e-05
5.27509e-06
5.09003e-05
3.21078e-05
1.49715e-05
4.49678e-05
1.67161e-05
4.19212e-05
4.34439e-05
2.25467e-05
1.43067e-05
4.37874e-05
2.04744e-05
1.84637e-05
1.87555e-05
1.93375e-05
3.1578e-06
3.42875e-06
4.23493e-05
4.16459e-05
2.25971e-06
4.14955e-05
1.44873e-05
3.47056e-05
1.32289e-05
1.75902e-05
1.53414e-05
1.58437e-05
4.25156e-05
4.56513e-05
4.4076e-05
4.44534e-05
5.0397e-05
3.72534e-05
3.72739e-05
3.82019e-05
1.23565e-05
5.11837e-05
5.69949e-06
2.13329e-05
5.05203e-05
2.21871e-05
4.47194e-05
5.81908e-05
2.17715e-05
1.1921e-05
1.96138e-05
4.89565e-05
3.63994e-05
4.28548e-05
5.34098e-05
2.51316e-06
3.55396e-05
3.2963e-05
3.46797e-05
5.49216e-05
3.91795e-06
4.32065e-05
3.38204e-05
3.29715e-05
5.42516e-05
5.14292e-05
1.67526e-05
5.0395e-05
4.75233e-05
1.33729e-05
4.64167e-05
1.67709e-05
4.77748e-05
4.07543e-06
4.36155e-06
4.65853e-05
4.94311e-05
1.15023e-05
2.08393e-05
1.52417e-05
1.7107e-05
1.6181e-05
4.82613e-06
5.04168e-05
8.29372e-05
8.29264e-05
8.29277e-05
8.29711e-05
8.28137e-05
8.29364e-05
8.28119e-05
8.29167e-05
8.28957e-05
8.29374e-05
8.29161e-05
3.21143e-05
3.02701e-05
2.90993e-05
2.56314e-05
2.75636e-05
2.81686e-05
2.82461e-05
2.7476e-05
2.55468e-05
3.42474e-05
3.63677e-05
3.33494e-05
3.72995e-05
2.6546e-05
3.1674e-05
3.60004e-05
4.04937e-05
3.51281e-05
3.08156e-05
2.99602e-05
3.68727e-05
3.33801e-05
1.81333e-05
2.18618e-05
1.79897e-05
1.97096e-05
1.94243e-05
1.90701e-05
1.85553e-05
2.22721e-05
3.25311e-05
2.14217e-05
2.09323e-05
2.05675e-05
1.88482e-05
2.65545e-05
2.00055e-05
1.76782e-05
3.72768e-05
4.14386e-05
4.12345e-05
1.62742e-05
4.23761e-05
1.7132e-05
4.33138e-05
3.42337e-05
4.07027e-05
1.68044e-05
3.64286e-05
1.50523e-05
1.45633e-05
4.42425e-05
4.61132e-05
1.6269e-05
1.59257e-05
1.54169e-05
4.797e-05
4.51772e-05
1.72012e-05
1.37117e-05
4.21318e-05
1.41817e-05
4.4988e-05
4.30433e-05
1.25325e-05
4.10644e-05
4.70428e-05
4.3998e-05
4.89073e-05
1.43984e-05
1.33079e-05
1.28549e-05
4.9847e-05
4.59703e-05
1.20039e-05
1.24405e-05
1.15992e-05
4.44724e-05
4.89293e-05
5.17174e-05
4.69441e-05
4.27812e-05
1.34688e-05
4.19264e-05
4.79211e-05
4.79024e-05
4.36262e-05
5.09765e-05
5.41924e-05
5.07839e-05
1.53294e-05
5.13485e-05
4.87251e-05
5.44467e-06
5.48692e-05
5.15648e-06
3.794e-06
4.59771e-06
4.32757e-06
5.01833e-05
3.54291e-06
2.84049e-06
5.81262e-05
3.06397e-06
5.94093e-05
5.19533e-05
8.24097e-05
8.18258e-05
8.29381e-05
8.29334e-05
8.28827e-05
8.29542e-05
8.29245e-05
8.24022e-05
3.54057e-05
3.24618e-05
4.00586e-05
2.28342e-05
2.30353e-05
2.02074e-05
3.98032e-05
2.27018e-05
4.07937e-05
8.47931e-06
8.8449e-06
4.79189e-05
6.3065e-06
5.99969e-06
8.68646e-06
5.99559e-06
5.65052e-05
2.87146e-06
5.14193e-05
4.98275e-05
5.17106e-05
8.29266e-05
3.54329e-05
3.21449e-05
4.01071e-05
1.95281e-05
2.21582e-05
2.23663e-05
3.984e-05
2.19696e-05
4.08647e-05
7.81981e-06
8.17078e-06
4.78854e-05
6.40968e-06
5.66398e-05
6.09341e-06
7.96759e-06
5.08854e-05
6.0941e-06
5.02758e-05
5.27256e-05
8.2937e-05
8.29643e-05
8.29078e-05
8.29213e-05
8.29194e-05
8.29411e-05
8.28793e-05
8.28582e-05
8.29397e-05
8.29422e-05
8.28682e-05
8.29177e-05
8.28976e-05
8.29337e-05
8.29286e-05
8.28277e-05
8.29364e-05
8.26218e-05
8.25849e-05
8.29376e-05
8.29832e-05
8.29332e-05
8.29313e-05
8.2286e-05
8.17441e-05
8.2705e-05
8.28767e-05
8.27726e-05
8.29398e-05
8.27795e-05
8.29067e-05
8.28883e-05
8.2406e-05
8.28648e-05
8.35052e-05
8.2874e-05
8.29346e-05
8.29488e-05
8.29151e-05
8.29242e-05
8.28887e-05
8.29322e-05
8.27233e-05
8.28664e-05
8.14292e-05
8.291e-05
8.29152e-05
8.28826e-05
8.29263e-05
8.28707e-05
8.29381e-05
8.29401e-05
8.29614e-05
8.28215e-05
8.28542e-05
8.28697e-05
8.2906e-05
8.28777e-05
8.26912e-05
8.2909e-05
8.29511e-05
8.28748e-05
8.28682e-05
8.28148e-05
8.29588e-05
8.29318e-05
4.98783e-05
5.59501e-05
4.68562e-05
3.9933e-05
3.89466e-05
3.9122e-05
3.4468e-05
2.55309e-06
8.27974e-05
8.27927e-05
8.27666e-05
8.27732e-05
8.29096e-05
8.29281e-05
8.28804e-05
3.29588e-05
8.28859e-05
6.84836e-06
7.1791e-06
2.70404e-05
5.14479e-05
5.30939e-05
6.92186e-06
5.5992e-05
5.13002e-05
7.74625e-06
4.84691e-06
4.21482e-06
5.16069e-05
7.96735e-06
7.61847e-06
5.05452e-05
1.02053e-05
1.05674e-05
1.06062e-05
9.4328e-06
9.81526e-06
2.91005e-05
3.94552e-05
3.86123e-05
3.84807e-05
2.19614e-05
2.11743e-05
2.749e-05
2.45799e-05
3.07958e-05
3.12791e-05
2.37404e-05
2.86484e-05
2.45837e-05
3.16061e-05
2.47477e-05
2.39853e-05
8.2769e-05
8.27651e-05
8.28575e-05
8.29466e-05
8.2722e-05
8.28047e-05
8.2932e-05
8.13847e-05
8.17354e-05
2.32244e-05
2.29092e-05
2.30318e-05
3.45156e-05
2.0408e-05
3.91729e-05
8.90647e-06
3.30064e-05
3.89867e-05
5.13998e-06
9.04632e-06
4.00011e-05
5.11532e-05
3.29209e-06
8.67586e-06
4.68973e-05
5.59553e-05
4.97393e-05
5.52546e-06
5.22498e-06
5.14664e-05
8.27845e-05
8.29031e-05
8.27961e-05
8.29344e-05
8.27837e-05
8.28595e-05
8.28945e-05
3.35862e-05
2.39e-05
4.59464e-05
9.8367e-06
8.32641e-05
8.15069e-05
8.29469e-05
8.28603e-05
8.27156e-05
8.26208e-05
8.26873e-05
8.28713e-05
8.29169e-05
8.28986e-05
8.27136e-05
8.29348e-05
8.24115e-05
8.25731e-05
8.27055e-05
8.29186e-05
8.26583e-05
8.29291e-05
8.29412e-05
8.29306e-05
8.27443e-05
8.30015e-05
8.29266e-05
8.29063e-05
8.29077e-05
8.28064e-05
8.29202e-05
8.29352e-05
8.27516e-05
8.29196e-05
8.28666e-05
8.28289e-05
8.2925e-05
8.29318e-05
8.28957e-05
8.28058e-05
8.29705e-05
2.5392e-06
2.10447e-06
2.26642e-06
1.06626e-05
4.53282e-05
2.46803e-05
3.30404e-05
5.33953e-05
5.01706e-05
5.26508e-05
1.07899e-05
1.03855e-05
2.47811e-05
3.82513e-05
3.5582e-05
2.49295e-05
3.03985e-05
2.84976e-05
2.64998e-05
8.28379e-05
8.28626e-05
8.2784e-05
8.27925e-05
8.24905e-05
8.2853e-05
8.29448e-05
8.29334e-05
8.25212e-05
8.2928e-05
8.28275e-05
8.28611e-05
8.28365e-05
8.28527e-05
8.25945e-05
8.28305e-05
8.2863e-05
8.28595e-05
8.28251e-05
5.69142e-05
5.17074e-05
5.8231e-06
5.44243e-05
8.78289e-06
5.09307e-05
3.4136e-06
5.86058e-06
6.17535e-06
8.92916e-06
8.56472e-06
4.70289e-05
3.93301e-05
2.27954e-05
4.03285e-05
2.02938e-05
3.95396e-05
2.29267e-05
3.48815e-05
2.31234e-05
3.20834e-05
5.60438e-05
5.13768e-05
5.2157e-05
5.77149e-05
2.6456e-06
7.70882e-06
3.75131e-06
2.89496e-06
3.48366e-06
8.0577e-06
5.02417e-05
6.78718e-06
5.10437e-05
5.03769e-05
4.35131e-06
5.54601e-05
5.44184e-05
6.74344e-06
5.04622e-05
5.16159e-05
1.26285e-05
4.63649e-06
7.07516e-06
5.52098e-05
3.84614e-06
7.85398e-06
5.09241e-06
4.88372e-05
4.88807e-05
1.16991e-05
1.35588e-05
5.14568e-05
4.81514e-05
1.91531e-05
9.62696e-06
1.44914e-05
9.72459e-06
4.76732e-05
9.34095e-06
4.5888e-05
4.01993e-05
4.41464e-05
4.67163e-05
5.04743e-05
1.51496e-05
1.20964e-05
1.25342e-05
4.5616e-05
1.2951e-05
1.34049e-05
4.94963e-05
1.46607e-05
2.00889e-05
4.32745e-05
1.63599e-05
1.82235e-05
1.38057e-05
4.45424e-05
4.8539e-05
1.54273e-05
4.24154e-05
2.10299e-05
4.3534e-05
1.4277e-05
4.75951e-05
1.60202e-05
1.55133e-05
4.25996e-05
1.7291e-05
4.156e-05
4.1722e-05
4.5716e-05
1.63658e-05
1.68915e-05
1.86464e-05
3.81e-05
4.66538e-05
1.80691e-05
3.76419e-05
4.47812e-05
1.77665e-05
4.10455e-05
3.90676e-05
4.38494e-05
4.29187e-05
1.72171e-05
4.1983e-05
3.81977e-05
3.58339e-05
2.10827e-05
1.89212e-05
1.97808e-05
3.76966e-05
3.56307e-05
2.20534e-05
3.6507e-05
3.67801e-05
2.36392e-05
3.67942e-05
2.06456e-05
3.03597e-05
3.47531e-05
3.17254e-05
3.38796e-05
2.15068e-05
3.12158e-05
2.37081e-05
3.38746e-05
3.35319e-05
3.30177e-05
2.78979e-05
2.66368e-05
3.13097e-05
3.21628e-05
2.38885e-05
2.87551e-05
3.04591e-05
2.82357e-05
2.96107e-05
2.66368e-05
8.27116e-05
8.28502e-05
9.71922e-06
4.61775e-05
2.38088e-05
3.39622e-05
8.29265e-05
8.29258e-05
8.26483e-05
8.26169e-05
8.23096e-05
8.26317e-05
8.27965e-05
8.29332e-05
8.29193e-05
8.2757e-05
8.25235e-05
8.28243e-05
8.30372e-05
8.28638e-05
8.29523e-05
8.27896e-05
8.29335e-05
2.72979e-05
2.93467e-05
2.98933e-05
5.01164e-05
3.77463e-05
5.33668e-05
4.94619e-05
3.50832e-05
2.57026e-05
1.11531e-05
1.1572e-05
2.56166e-05
5.27527e-05
8.22053e-05
8.28816e-05
8.29371e-05
8.29338e-05
8.2928e-05
8.28311e-05
8.29294e-05
8.27478e-05
6.67703e-05
8.29285e-05
8.28896e-05
8.24422e-05
8.29177e-05
8.29295e-05
8.26041e-05
8.30235e-05
8.25679e-05
8.22422e-05
1.07677e-05
4.50375e-05
2.47657e-05
3.26557e-05
5.13288e-05
5.00291e-05
5.24358e-05
4.9672e-05
1.07032e-05
1.03029e-05
3.86061e-05
3.59396e-05
2.46819e-05
2.48483e-05
3.07552e-05
2.84143e-05
2.64242e-05
8.26725e-05
8.30111e-05
8.29443e-05
8.17419e-05
8.27274e-05
5.52743e-05
4.97277e-05
4.98993e-05
5.35625e-05
1.1242e-05
1.16631e-05
3.73799e-05
3.47301e-05
2.73675e-05
2.9432e-05
2.57111e-05
2.95247e-05
2.57829e-05
8.21427e-05
8.28964e-05
4.92328e-07
1.08952e-06
3.77251e-08
2.79824e-07
4.94141e-07
7.79138e-07
8.29298e-05
8.29332e-05
8.2398e-05
8.29343e-05
8.27716e-05
8.28208e-05
8.20429e-05
8.29291e-05
8.24959e-05
8.29374e-05
8.29371e-05
8.28749e-05
8.25158e-05
8.2856e-05
8.4125e-05
8.31826e-05
8.27488e-05
8.27263e-05
8.28449e-05
8.29273e-05
8.29309e-05
8.29412e-05
2.2995e-06
2.48729e-06
8.29336e-05
7.01148e-05
8.29242e-05
8.29129e-05
6.78165e-05
8.29252e-05
8.29019e-05
2.00465e-06
2.2287e-06
8.19667e-05
8.29308e-05
8.23544e-05
8.29277e-05
8.22778e-05
8.3077e-05
8.26941e-05
8.29324e-05
8.26679e-05
8.25305e-05
8.28717e-05
8.29326e-05
8.29635e-05
8.28712e-05
2.77053e-06
8.28177e-05
8.26351e-05
8.29311e-05
8.28147e-05
8.28165e-05
8.26409e-05
8.24215e-05
8.29132e-05
8.29604e-05
8.29332e-05
8.29181e-05
8.29269e-05
8.29487e-05
8.27158e-05
8.29289e-05
8.29193e-05
8.26573e-05
8.23701e-05
8.29361e-05
8.26808e-05
2.68373e-06
2.49458e-06
2.42445e-06
8.29057e-05
8.2909e-05
6.26752e-05
8.29951e-05
8.27811e-05
8.04847e-05
8.28687e-05
8.2658e-05
8.27883e-05
8.29363e-05
8.29507e-05
8.29207e-05
5.92894e-05
8.29396e-05
8.26123e-05
8.31735e-05
8.11758e-05
8.29314e-05
8.20701e-05
8.29416e-05
8.19798e-05
8.25809e-05
8.29264e-05
8.27021e-05
8.6311e-05
8.2935e-05
8.19565e-05
8.25287e-05
8.27355e-05
7.99201e-05
8.29028e-05
5.79694e-05
8.28577e-05
8.29335e-05
8.2843e-05
8.23143e-05
8.37588e-05
8.2693e-05
8.2935e-05
8.30724e-05
8.28418e-05
8.30645e-05
8.29474e-05
8.08163e-05
8.28995e-05
6.19632e-05
8.29371e-05
8.29235e-05
8.2716e-05
8.29366e-05
8.27619e-05
8.2895e-05
7.00906e-05
8.23001e-05
5.30271e-05
8.26338e-05
6.8036e-05
8.1624e-05
7.82023e-05
8.28904e-05
8.29212e-05
8.28911e-05
8.28505e-05
8.22385e-05
8.28386e-05
1.57984e-06
1.67636e-06
1.89549e-06
8.27815e-05
8.29373e-05
8.29266e-05
8.3431e-05
8.29004e-05
6.06667e-05
8.28784e-05
8.29236e-05
8.28615e-05
8.23159e-05
7.64707e-05
6.44229e-05
8.29585e-05
8.24364e-05
7.56511e-05
8.2714e-05
8.29777e-05
8.27442e-05
8.2891e-05
8.29364e-05
8.29396e-05
8.22592e-05
8.27846e-05
8.29259e-05
8.28834e-05
8.29231e-05
8.30229e-05
8.29017e-05
8.29273e-05
8.27603e-05
8.27598e-05
6.12858e-05
8.29227e-05
8.27189e-05
8.28706e-05
8.28834e-05
8.19324e-05
8.28151e-05
8.29382e-05
8.21163e-05
8.26576e-05
8.29336e-05
8.29032e-05
8.27818e-05
8.28999e-05
8.24086e-05
8.30377e-05
8.29881e-05
8.27612e-05
8.28825e-05
8.2362e-05
8.28885e-05
1.69995e-06
6.96945e-05
8.35347e-05
8.29222e-05
8.27729e-05
8.2671e-05
8.47531e-05
8.27624e-05
8.28519e-05
8.29529e-05
1.44768e-06
1.24028e-06
8.2157e-05
8.29154e-05
8.29185e-05
8.2769e-05
8.28727e-05
7.449e-05
8.29213e-05
8.29357e-05
2.33411e-06
8.28264e-05
8.26641e-05
2.10952e-06
1.96553e-06
8.29535e-05
8.11847e-05
8.18981e-05
8.29357e-05
6.55909e-05
7.80115e-05
2.90668e-07
1.4259e-07
4.53809e-07
8.10073e-05
8.29368e-05
8.2881e-05
7.19848e-05
7.78189e-05
7.03037e-05
7.15068e-05
7.61765e-05
8.25645e-05
8.29052e-05
5.54693e-05
8.2216e-05
8.27946e-05
8.41529e-05
8.2928e-05
7.35934e-05
8.15567e-05
6.49281e-05
8.19059e-05
8.27829e-05
1.77356e-06
1.87624e-06
8.27003e-05
8.16916e-05
8.21285e-05
5.60507e-05
5.48389e-05
8.29091e-05
2.04529e-06
7.77164e-05
7.33476e-05
8.29025e-05
8.28998e-05
8.13311e-05
8.27994e-05
7.30338e-05
8.26268e-05
7.82274e-05
5.88262e-05
5.89437e-05
1.07523e-06
1.03929e-06
1.16583e-06
8.24777e-05
8.26244e-05
6.66222e-05
7.21739e-05
6.9873e-05
6.98715e-05
4.42028e-05
4.33565e-05
8.15447e-05
1.1112e-07
6.75049e-08
3.33002e-08
-9.27289e-07
-9.56778e-07
-1.02542e-06
7.61666e-05
6.09197e-08
-6.13567e-08
8.23856e-05
-2.19079e-07
-1.17327e-06
5.01041e-07
-1.20644e-06
4.7025e-07
-1.28216e-06
4.54951e-07
)
;

boundaryField
{
    back
    {
        type            empty;
    }
    front
    {
        type            empty;
    }
    ingreso
    {
        type            zeroGradient;
    }
    salida
    {
        type            fixedValue;
        value           uniform 0;
    }
    defaultFaces
    {
        type            zeroGradient;
    }
}


// ************************************************************************* //
