/*--------------------------------*- C++ -*----------------------------------*\
  =========                 |
  \\      /  F ield         | OpenFOAM: The Open Source CFD Toolbox
   \\    /   O peration     | Website:  https://openfoam.org
    \\  /    A nd           | Version:  8
     \\/     M anipulation  |
\*---------------------------------------------------------------------------*/
FoamFile
{
    version     2.0;
    format      ascii;
    class       volScalarField;
    location    "7";
    object      p;
}
// * * * * * * * * * * * * * * * * * * * * * * * * * * * * * * * * * * * * * //

dimensions      [0 2 -2 0 0 0 0];

internalField   nonuniform List<scalar> 
7843
(
1.85605e-06
5.78765e-06
6.19094e-06
7.75504e-06
1.37418e-06
7.84527e-06
7.4294e-06
1.06072e-06
7.67485e-06
1.73807e-06
4.39705e-06
1.79482e-06
7.67381e-06
4.62972e-06
3.46733e-06
4.18151e-06
4.31603e-06
3.53598e-06
7.69966e-06
7.55399e-06
7.66384e-06
7.50048e-06
4.47547e-06
6.92641e-06
3.45115e-06
7.65999e-06
2.32256e-07
7.55692e-06
7.23395e-07
7.7223e-06
7.59624e-06
2.33054e-06
7.62999e-06
1.20515e-06
4.16058e-06
3.86229e-06
3.2314e-06
7.44588e-06
7.70878e-06
6.38243e-06
3.39295e-06
4.91993e-06
1.3918e-06
5.69924e-06
7.67491e-06
7.47606e-06
4.55235e-06
7.32291e-06
6.19361e-06
7.68479e-06
7.67511e-06
5.61271e-06
2.61189e-06
7.38695e-06
1.57123e-06
7.69377e-06
7.43133e-06
7.65713e-06
5.63296e-07
7.67023e-06
1.23129e-06
7.31915e-06
7.37324e-06
7.62891e-06
3.36611e-07
4.06286e-06
4.05903e-06
7.69089e-06
7.44e-06
1.14921e-06
7.65971e-06
2.43461e-06
6.50089e-06
7.67251e-06
7.66665e-06
3.82571e-06
1.46943e-06
1.31176e-06
2.05308e-06
7.85369e-06
7.67927e-06
5.32605e-07
4.70559e-06
7.55112e-06
1.73247e-06
1.88013e-06
7.55371e-06
7.39103e-07
7.52611e-06
7.47288e-06
7.66338e-06
5.17586e-06
7.68805e-06
7.60331e-06
7.56075e-06
2.17529e-06
7.69009e-06
2.18047e-07
7.66734e-06
3.91942e-06
2.78372e-07
2.66956e-07
7.52848e-06
3.84409e-07
7.65133e-06
6.74436e-06
7.68804e-06
7.64628e-06
6.79059e-06
5.35924e-06
7.03225e-07
7.35588e-06
7.32302e-06
2.09115e-06
7.59752e-06
6.39133e-06
7.53474e-06
1.07067e-06
7.64597e-06
5.4198e-06
1.45258e-06
1.1281e-06
4.79673e-06
1.22002e-06
7.6703e-06
7.36484e-06
5.00335e-06
7.03742e-06
6.83409e-06
7.82352e-06
5.25775e-06
7.54517e-06
7.64613e-06
1.47101e-06
6.40424e-06
3.14857e-06
7.68007e-06
7.26197e-06
3.31339e-06
8.22361e-07
7.66519e-06
6.959e-06
7.58852e-06
7.55629e-06
7.68893e-06
7.65001e-06
4.82856e-06
6.50631e-06
7.09361e-06
7.09158e-06
1.88142e-06
7.41046e-06
7.60763e-06
5.65507e-06
4.29615e-06
4.29469e-06
7.63176e-06
7.53649e-06
5.98837e-06
2.70092e-06
7.66863e-06
4.46033e-06
7.10106e-06
4.62537e-06
5.71284e-06
9.77504e-07
7.56316e-06
1.20963e-07
2.53763e-06
4.79146e-06
8.06361e-07
5.45642e-06
4.95762e-06
7.58649e-06
5.20677e-06
7.6684e-06
6.23003e-07
7.67496e-06
4.4755e-06
1.71676e-06
1.6641e-06
1.43501e-06
7.66264e-06
6.08786e-06
4.39091e-06
7.39387e-06
7.68723e-06
7.33409e-06
2.1495e-06
7.4623e-06
2.35282e-06
2.51717e-06
7.63919e-06
7.67779e-06
5.0941e-06
7.67904e-06
7.66471e-06
7.56427e-06
9.03503e-07
6.59744e-06
5.52763e-06
6.53176e-07
5.0941e-06
1.93389e-06
4.37702e-07
7.68039e-06
4.64106e-07
7.68139e-06
7.6586e-06
5.49941e-06
7.15948e-06
5.44334e-06
6.74854e-06
3.37624e-06
4.53522e-06
6.67534e-06
7.59181e-06
1.94966e-06
7.6779e-06
7.4032e-06
7.56296e-06
7.45226e-06
1.46441e-07
5.80163e-06
7.25162e-06
7.61237e-06
7.1925e-06
3.98331e-06
5.89319e-06
7.32129e-06
7.2977e-06
7.68692e-06
7.68384e-06
1.61329e-06
7.48455e-06
4.61528e-06
1.7528e-06
7.11135e-06
4.21663e-06
2.57437e-07
1.91944e-06
2.98481e-06
1.83787e-06
3.24478e-06
7.36121e-06
4.39536e-06
7.65008e-06
7.46857e-06
5.11054e-06
4.31469e-06
7.8138e-06
7.68239e-06
2.06514e-06
4.77562e-06
6.022e-06
2.01771e-06
7.24034e-06
4.69513e-06
2.74739e-07
7.65505e-06
7.64206e-06
7.48208e-06
2.84892e-07
5.01631e-06
1.78434e-06
7.32016e-06
7.68128e-06
5.54047e-06
7.68309e-06
7.12134e-06
7.67176e-06
7.68536e-06
7.62962e-06
7.10019e-06
5.25841e-06
7.56352e-06
2.26331e-06
1.59354e-06
7.39585e-06
5.15945e-06
8.36791e-07
4.85578e-06
5.33896e-06
7.56836e-06
7.64355e-06
7.67749e-06
7.46559e-06
5.1141e-06
6.82929e-07
5.72924e-06
7.68172e-06
7.59857e-06
7.64769e-06
1.79502e-06
7.37505e-06
2.62838e-06
2.98745e-06
7.35626e-06
7.07495e-06
5.83921e-06
7.18239e-06
7.5101e-06
2.90797e-06
2.58415e-06
7.61194e-06
7.39459e-06
7.68109e-06
6.58711e-06
7.41191e-06
7.34517e-06
7.39259e-06
7.07663e-06
7.54948e-06
7.67342e-06
7.67423e-06
7.5568e-06
5.62583e-06
4.73786e-06
7.6098e-06
2.98496e-06
7.67172e-06
7.67385e-06
5.28971e-06
5.09659e-06
7.44113e-06
7.2e-06
7.72687e-06
7.61143e-06
7.2664e-06
7.67318e-06
2.77128e-06
4.93598e-06
7.65477e-06
7.66789e-06
7.03685e-06
7.47607e-06
3.07715e-07
2.73852e-06
6.47876e-06
7.49002e-06
7.44213e-06
2.41756e-06
7.67327e-06
3.37323e-07
7.30056e-06
3.01161e-07
2.66429e-06
7.49015e-06
7.40149e-06
1.95401e-07
7.73442e-06
2.59598e-06
7.67436e-06
7.67544e-06
2.21781e-06
7.67791e-06
7.41435e-06
7.40439e-06
2.2092e-06
5.57798e-06
7.99549e-06
5.33984e-06
7.26978e-06
8.24057e-06
7.71954e-06
2.53035e-06
6.01411e-06
7.46719e-06
7.58886e-06
5.82343e-06
5.72463e-06
7.63546e-06
2.01206e-06
7.43495e-06
1.36695e-06
7.79298e-06
5.04051e-06
4.54854e-06
4.5549e-06
7.85699e-06
5.25351e-06
7.55497e-06
7.75102e-06
7.44011e-06
3.58802e-07
2.52624e-06
4.55054e-06
7.66781e-06
2.13823e-07
3.3162e-06
4.4701e-06
7.62926e-06
7.6229e-06
7.66349e-06
7.34674e-06
2.83337e-06
7.68114e-06
7.04843e-06
7.62579e-06
1.34739e-06
1.7091e-06
7.67575e-06
7.66744e-06
5.54641e-08
6.00895e-06
5.96097e-06
5.50331e-06
6.1061e-06
7.67188e-06
7.27936e-06
7.39357e-06
2.251e-06
6.48934e-06
7.60946e-06
6.35478e-06
7.67955e-06
7.67941e-06
6.05763e-06
5.17728e-06
5.37294e-06
7.52099e-06
7.36448e-06
7.66952e-06
2.2923e-06
1.94198e-07
1.56861e-07
7.47318e-06
2.05145e-07
7.65148e-06
7.38178e-06
7.69309e-06
7.67982e-06
2.42938e-06
7.68704e-06
6.51842e-06
7.18386e-06
7.62831e-06
5.88542e-06
3.0836e-06
7.68035e-06
1.98188e-06
7.62462e-06
7.52186e-06
7.66994e-06
6.17995e-06
7.42729e-06
7.37545e-06
6.80986e-06
7.6151e-06
6.14853e-06
9.54111e-07
8.92432e-07
7.41837e-06
7.39469e-06
7.44399e-06
2.86875e-06
2.43077e-06
7.60071e-06
6.49186e-06
7.67761e-06
7.51258e-06
6.29044e-07
1.77313e-07
1.66167e-07
7.51077e-06
2.43795e-07
7.47529e-06
7.42814e-06
7.65955e-06
7.1762e-06
2.92781e-06
7.853e-07
7.66688e-06
7.69076e-06
7.50467e-06
2.13821e-06
6.24317e-06
7.67738e-06
7.28426e-06
5.80012e-06
7.20738e-06
7.54627e-06
7.59658e-06
7.63773e-06
7.21519e-06
7.43919e-06
2.73638e-06
6.43018e-06
7.71328e-08
5.50431e-07
4.93207e-06
6.36893e-06
7.67807e-06
2.2297e-06
7.59055e-06
7.79302e-06
6.73249e-08
7.70047e-08
7.58156e-06
7.67423e-06
3.06554e-06
7.67009e-06
1.11958e-06
6.88661e-06
2.27332e-06
1.44904e-06
1.03716e-06
7.67045e-06
2.40701e-06
6.51108e-06
7.67558e-06
7.71432e-06
3.16745e-06
2.90247e-06
7.31386e-06
5.89868e-06
7.23012e-06
7.59002e-06
7.64465e-06
7.25095e-06
6.75418e-06
7.0506e-06
2.2988e-06
5.42146e-06
7.44392e-06
6.42945e-06
5.72897e-06
7.61047e-06
7.12704e-06
7.50478e-06
7.65837e-06
7.67714e-06
5.19263e-06
7.66691e-06
7.56342e-06
7.46454e-06
7.59877e-06
7.67775e-06
5.48259e-06
7.539e-06
2.19173e-06
7.65918e-06
5.3993e-06
4.29495e-07
5.95493e-06
7.51093e-06
6.20708e-07
2.29469e-06
3.89253e-06
5.12372e-06
7.63922e-06
5.90869e-06
7.62557e-06
7.5532e-06
7.39831e-06
5.27521e-06
6.62345e-06
7.23856e-06
7.68512e-06
1.69461e-06
6.62992e-06
5.49156e-06
5.97774e-06
4.46762e-06
7.68248e-06
1.20207e-06
7.66439e-06
1.66436e-06
3.56965e-06
7.30533e-06
5.78456e-06
2.44489e-06
7.15901e-07
7.69226e-06
7.29386e-06
6.14001e-06
5.07975e-06
7.53367e-06
7.42276e-06
5.64628e-07
7.64229e-06
7.64363e-06
1.21925e-06
7.5395e-06
7.67841e-06
7.33614e-06
7.52084e-06
5.63757e-06
7.4421e-06
7.58437e-06
7.48203e-06
7.56635e-06
7.66004e-06
3.41757e-06
7.02744e-06
1.67414e-06
7.65288e-06
6.35827e-06
7.66105e-06
7.48799e-06
7.35987e-06
7.68433e-06
1.68642e-06
8.1155e-08
1.23848e-07
5.75419e-06
5.48271e-06
4.05768e-06
3.00783e-06
7.60508e-06
7.6463e-06
5.33363e-06
6.63037e-06
7.27481e-06
3.18055e-06
5.51617e-06
7.6572e-06
3.66885e-06
5.66294e-06
7.51894e-06
7.68187e-06
7.7292e-06
4.99703e-06
7.33504e-06
7.52908e-06
7.43975e-06
7.01082e-06
7.52984e-06
7.40828e-06
6.26333e-06
7.34132e-06
7.18551e-06
6.86616e-06
3.95813e-06
7.34156e-06
2.38768e-07
7.57692e-06
7.64774e-06
7.64259e-06
7.55674e-06
7.35129e-06
7.23577e-06
5.96816e-06
4.71447e-06
4.71616e-06
7.77865e-07
7.35848e-06
3.83653e-06
7.2645e-06
7.6388e-06
7.67502e-06
7.67204e-06
7.61045e-06
7.38729e-06
7.25675e-06
7.54382e-06
7.58805e-06
7.58875e-06
5.23286e-06
3.31967e-06
5.90198e-06
7.64094e-06
7.67297e-06
7.524e-06
8.70253e-07
7.67697e-06
7.41468e-06
7.36669e-06
2.78596e-06
1.63914e-06
7.30515e-06
6.51679e-06
3.49963e-06
7.3638e-06
7.67425e-06
7.27052e-06
6.19665e-06
7.52623e-06
7.4542e-06
5.66872e-06
7.68216e-06
4.23523e-06
7.66123e-06
5.16584e-06
7.33546e-06
7.60203e-06
1.20685e-06
7.40349e-06
7.64083e-06
7.05351e-06
4.62726e-06
2.62624e-06
5.75313e-06
3.73737e-06
7.16565e-06
7.37279e-06
7.46969e-06
7.63006e-06
3.63024e-06
7.49929e-06
7.30737e-06
1.13317e-06
7.69691e-06
6.63834e-06
1.82436e-06
7.67374e-06
7.67769e-06
7.663e-06
7.33906e-06
7.67124e-06
3.48669e-06
7.67719e-06
6.02944e-07
7.56029e-06
3.51383e-07
7.66239e-06
7.76804e-06
4.87475e-06
7.67625e-06
5.95366e-06
7.55284e-06
7.65683e-06
7.64542e-06
3.92013e-06
1.43304e-06
7.23721e-06
7.38676e-06
7.35057e-06
7.66698e-06
6.98719e-06
7.56265e-06
7.30242e-06
5.24275e-06
7.38259e-06
8.60871e-07
2.75069e-06
4.92434e-07
5.9832e-06
6.5935e-06
7.54825e-06
6.13814e-06
4.71487e-07
7.68172e-06
7.39602e-06
7.67603e-06
7.62533e-06
7.29126e-06
7.52125e-06
7.48327e-06
7.39505e-06
7.37979e-06
7.2584e-06
7.66589e-06
7.21879e-06
2.5668e-07
6.58436e-06
7.44392e-06
7.36487e-06
1.79346e-06
7.38901e-06
7.3752e-06
7.57544e-06
7.30263e-06
2.1094e-06
7.68001e-06
7.66937e-06
7.54006e-06
7.37538e-06
7.4065e-06
7.54547e-06
5.45512e-07
7.67692e-06
7.65013e-06
3.69983e-06
1.0304e-06
2.61149e-06
1.00452e-06
7.83042e-06
7.2804e-06
7.67035e-06
6.03001e-06
7.56365e-06
8.07109e-07
6.76261e-06
5.62554e-07
7.68061e-06
7.47363e-06
7.66867e-06
7.74472e-07
7.46191e-06
7.40348e-06
7.6554e-06
6.87816e-06
7.41164e-06
6.96688e-06
7.42449e-06
7.65781e-06
7.6627e-06
7.5373e-06
7.49428e-06
7.66966e-06
7.55948e-06
6.23458e-06
3.33428e-06
7.41857e-06
2.6672e-06
7.6069e-06
7.64522e-06
7.38166e-06
5.06576e-06
7.23871e-06
2.09709e-06
7.6695e-06
6.98504e-06
1.25706e-06
5.05656e-07
7.42409e-06
7.36288e-06
2.27548e-06
7.51706e-06
7.31058e-06
7.78365e-06
7.49657e-06
7.44254e-06
4.85825e-06
7.50765e-06
7.08269e-06
7.50996e-06
7.40684e-06
7.66781e-06
7.41432e-06
7.16326e-06
7.41918e-06
3.91984e-06
2.50049e-06
7.41502e-06
7.68382e-06
7.59193e-06
3.31903e-07
7.61495e-06
2.51268e-06
7.58935e-06
7.67144e-06
9.92044e-07
7.66923e-06
7.64882e-06
7.36142e-06
7.6717e-06
1.28411e-06
6.16317e-06
7.6735e-06
7.55025e-06
7.42099e-06
7.42294e-06
7.62256e-06
1.3688e-06
7.01876e-06
7.10542e-06
7.66544e-06
6.75567e-06
7.65516e-06
7.52206e-06
7.33862e-06
6.04455e-06
7.46971e-06
7.62269e-06
7.53827e-06
4.36702e-07
7.68842e-06
6.86921e-06
7.57184e-06
7.2344e-06
7.58577e-06
7.67579e-06
7.41569e-06
6.64656e-06
7.55139e-06
7.25664e-06
7.686e-06
7.66354e-06
7.58911e-06
7.4939e-06
6.88861e-06
7.68083e-06
7.08521e-06
7.65658e-06
5.33235e-06
1.2743e-06
6.91486e-06
5.01315e-06
7.37479e-06
6.99559e-06
7.65963e-06
7.67662e-06
7.45802e-06
7.42698e-06
7.44291e-06
5.85101e-06
6.12902e-06
7.5289e-06
7.66798e-06
7.32488e-06
6.46906e-06
7.66558e-06
7.37165e-06
7.37966e-06
7.36097e-06
7.64983e-06
7.43758e-06
2.03105e-06
7.67005e-06
6.4784e-06
1.61999e-06
7.73008e-06
1.5384e-06
7.59004e-06
7.48329e-06
7.44423e-06
7.61847e-06
7.41376e-06
4.98174e-06
7.55602e-06
5.64757e-06
7.60256e-06
7.64561e-06
7.58938e-06
1.45365e-06
7.552e-06
4.30498e-06
7.59071e-06
7.56216e-06
5.88625e-06
7.48047e-06
3.78859e-06
6.752e-06
7.44591e-06
7.52732e-06
7.6131e-06
6.9875e-07
7.95234e-07
7.50294e-06
7.4316e-06
7.56406e-06
7.45562e-06
4.00335e-06
7.35934e-06
1.328e-07
4.78436e-07
7.5208e-06
7.67457e-06
7.52459e-06
6.61836e-06
7.58077e-06
7.67045e-06
1.96462e-06
7.52272e-06
7.68588e-06
7.67971e-06
1.07011e-06
7.52922e-06
7.4296e-06
1.17235e-06
7.63879e-06
7.60687e-06
7.41875e-06
6.66747e-06
7.58121e-06
4.4267e-07
7.57187e-06
7.68106e-06
7.61903e-06
7.66469e-06
2.21942e-06
2.08475e-06
7.28577e-06
7.52964e-06
7.67167e-06
7.5858e-06
7.68057e-06
7.42826e-06
6.55128e-06
7.60991e-06
7.60113e-06
7.51527e-06
7.57679e-06
6.70271e-06
7.6504e-06
7.26518e-06
7.51895e-06
1.54574e-06
7.6591e-06
7.58709e-06
7.54598e-06
7.63872e-06
7.60156e-06
7.64535e-06
7.53756e-06
4.63404e-06
2.21466e-06
7.67266e-06
7.67137e-06
6.48182e-06
6.3499e-06
7.65577e-06
7.65278e-06
7.59686e-06
7.39186e-06
7.57082e-06
7.42758e-06
7.62031e-06
7.54155e-06
7.58302e-06
6.8872e-06
6.22734e-06
7.40877e-06
7.54613e-06
7.6643e-06
5.93304e-06
7.55465e-06
7.633e-06
7.36696e-06
7.53686e-06
7.61132e-06
7.62924e-06
7.64626e-06
7.65171e-06
6.39179e-06
7.43583e-06
7.66373e-06
7.67511e-06
7.60645e-06
1.87456e-06
7.58621e-06
7.57818e-06
7.56916e-06
7.56112e-06
7.68525e-06
7.61615e-06
6.35221e-06
7.59695e-06
6.51345e-06
7.38383e-06
7.44544e-06
6.25953e-06
4.78978e-07
7.62562e-06
7.58469e-06
7.36115e-06
7.66783e-06
7.64868e-06
7.71984e-06
6.27981e-06
7.64659e-06
7.61328e-06
7.33616e-06
6.03015e-06
2.46477e-06
7.68014e-06
7.69411e-07
7.64793e-06
7.68091e-06
7.67359e-06
7.66172e-06
6.42295e-06
7.66621e-06
7.65706e-06
7.65313e-06
6.28194e-06
7.64776e-06
6.98289e-06
7.67697e-06
5.98286e-06
7.10235e-06
7.51209e-06
7.22253e-06
5.96255e-06
7.53519e-06
5.86478e-06
7.72706e-06
7.60675e-06
7.61766e-06
7.68735e-06
6.46446e-06
7.73284e-06
7.67162e-06
5.31621e-06
7.51514e-06
7.72839e-06
7.67899e-06
7.66443e-06
7.64562e-06
7.35559e-06
7.61183e-06
7.58209e-06
7.32995e-06
5.88753e-06
7.64458e-06
7.65224e-06
5.9294e-06
7.65426e-06
7.58258e-06
6.35549e-06
4.70845e-06
7.59907e-06
2.71481e-06
7.65102e-06
7.68205e-06
7.67483e-06
7.5683e-06
7.65427e-06
7.68189e-06
7.60572e-06
7.67507e-06
5.8548e-06
5.97749e-06
3.25077e-06
7.61955e-06
6.97921e-06
5.6376e-06
7.6538e-06
7.56767e-06
7.55048e-06
7.6731e-06
7.63667e-06
6.69513e-06
7.67551e-06
7.65367e-06
7.6346e-06
7.6732e-06
5.99836e-07
7.4137e-06
7.67398e-06
1.79047e-06
4.81465e-06
6.35548e-06
3.45387e-07
7.59987e-06
7.54746e-06
7.65708e-06
6.20039e-06
7.67439e-06
7.6768e-06
1.54462e-06
3.75258e-06
6.64604e-06
7.67369e-06
7.63906e-06
7.64129e-06
6.25712e-06
7.41703e-06
7.64409e-06
7.51235e-06
7.67649e-06
5.95978e-06
7.62897e-06
6.25097e-06
4.89786e-06
7.4881e-06
7.41737e-06
1.14857e-06
7.61584e-06
5.47538e-06
7.67659e-06
6.30517e-06
7.61656e-06
7.66731e-06
2.12754e-06
7.66282e-06
5.81865e-06
7.65497e-06
7.65458e-06
7.48675e-06
7.67825e-06
3.80458e-06
7.67566e-06
7.65849e-06
7.66979e-06
5.41133e-07
7.42207e-06
7.64198e-06
7.63423e-06
7.38495e-06
7.57634e-06
5.56522e-06
6.43729e-07
7.67896e-06
7.54824e-06
7.65667e-06
7.65883e-06
7.64543e-06
7.62791e-06
7.48625e-06
6.41004e-06
7.59086e-06
6.60433e-06
7.66567e-06
3.73078e-06
7.61708e-06
7.55442e-06
5.71653e-06
7.3396e-06
7.63405e-06
7.40668e-06
7.53132e-06
7.67014e-06
7.6772e-06
7.66052e-06
5.79275e-06
7.68628e-06
7.67096e-06
7.66887e-06
3.13139e-06
7.44722e-06
6.19984e-06
7.6502e-06
4.08707e-06
7.68384e-06
7.66375e-06
7.27839e-06
6.30722e-06
5.94419e-06
7.64428e-06
6.03536e-06
5.79131e-06
7.59969e-06
7.64667e-06
5.79866e-06
6.21721e-06
7.67208e-06
7.6266e-06
6.10131e-06
5.22782e-06
7.67641e-06
2.13117e-06
7.65252e-06
7.40733e-06
7.65798e-06
7.40282e-06
7.60679e-06
7.67639e-06
7.34824e-06
7.67682e-06
5.50731e-07
7.66447e-06
7.39995e-06
7.67342e-06
6.24333e-06
6.09936e-06
6.16764e-06
6.16526e-06
7.65904e-06
7.73021e-06
7.60138e-06
7.67067e-06
7.39932e-06
7.67323e-06
5.40406e-06
7.67619e-06
7.68368e-06
7.50896e-06
7.68226e-06
7.59051e-06
5.96855e-06
6.21892e-06
7.67609e-06
7.66424e-06
7.62014e-06
1.88105e-06
7.65955e-06
6.36827e-06
7.68017e-06
7.63548e-06
7.66203e-06
7.68238e-06
7.74057e-06
6.35306e-06
7.67893e-06
6.1124e-06
7.65306e-06
7.67869e-06
7.6674e-06
6.53835e-06
7.67531e-06
1.7064e-06
7.67174e-06
6.08923e-06
6.64541e-06
7.66467e-06
7.67541e-06
7.38796e-06
5.91092e-06
7.64219e-06
6.36738e-06
7.67527e-06
7.67569e-06
7.66644e-06
7.6539e-06
7.65977e-06
6.34647e-06
6.26581e-06
3.92614e-07
7.68575e-06
5.16313e-07
7.61196e-06
7.57853e-06
7.65273e-06
7.68496e-06
7.16244e-06
7.32695e-06
7.62554e-06
7.67286e-06
7.62391e-06
7.16158e-06
6.24615e-06
6.49869e-06
5.72295e-06
7.6659e-06
7.65183e-06
7.67991e-06
7.63612e-06
7.6523e-06
7.73428e-06
6.15569e-06
7.64042e-06
7.68181e-06
7.67697e-06
7.67588e-06
7.58104e-06
7.5934e-06
7.54643e-06
7.6493e-06
6.8364e-06
6.21995e-06
7.57021e-06
6.10626e-06
7.6576e-06
7.63152e-06
7.6529e-06
7.67236e-06
3.97915e-06
7.61774e-06
5.72794e-06
7.38647e-06
6.08184e-06
7.68215e-06
7.68305e-06
5.99759e-06
7.15318e-06
7.43598e-06
6.21931e-06
7.5446e-06
7.6749e-06
7.69053e-06
5.86137e-06
6.14277e-06
7.71615e-06
7.62557e-06
6.3501e-06
7.65407e-06
7.64496e-06
7.83976e-06
6.74746e-06
7.65106e-06
7.65691e-06
7.68136e-06
7.62647e-06
7.65943e-06
7.46603e-06
7.66438e-06
7.68074e-06
7.65464e-06
7.66134e-06
7.66097e-06
7.65437e-06
2.33438e-06
7.68301e-06
6.12992e-06
7.66843e-06
6.20585e-06
7.65709e-06
7.67964e-06
7.75748e-06
7.67723e-06
7.67206e-06
7.68224e-06
7.65485e-06
7.77853e-06
7.65366e-06
7.65614e-06
7.69434e-06
7.6774e-06
7.64577e-06
7.35892e-06
5.97911e-06
7.67283e-06
7.68128e-06
7.67638e-06
7.62891e-06
7.20598e-07
5.74122e-06
7.68071e-06
7.67161e-06
7.67729e-06
7.67765e-06
7.68007e-06
7.68002e-06
6.05022e-06
5.9966e-06
7.6882e-06
7.05468e-06
4.81088e-06
7.68265e-06
5.64305e-06
7.63882e-06
7.65204e-06
6.01054e-06
7.71697e-06
7.68851e-06
7.65013e-06
7.67795e-06
7.65583e-06
7.68233e-06
7.67733e-06
7.68122e-06
7.68779e-06
7.39165e-06
7.60578e-06
6.09182e-06
6.1554e-06
7.67307e-06
7.67651e-06
7.65529e-06
5.59507e-06
6.0195e-06
7.61961e-06
7.68046e-06
7.67705e-06
5.67009e-06
7.64639e-06
7.71526e-06
7.67588e-06
6.16046e-06
7.1855e-06
7.6897e-06
7.68636e-06
5.58793e-07
7.67428e-06
7.68799e-06
7.67855e-06
7.67808e-06
7.67788e-06
5.66645e-06
7.67935e-06
6.06124e-06
7.73978e-06
7.67005e-06
7.70193e-06
7.66931e-06
7.61484e-06
7.68406e-06
7.69482e-06
7.67659e-06
7.4991e-06
7.6724e-06
7.6873e-06
7.65553e-06
6.1306e-06
6.26855e-06
7.68172e-06
7.70097e-06
7.65357e-06
7.67448e-06
7.67971e-06
7.67772e-06
7.68311e-06
7.68e-06
7.46187e-06
7.68114e-06
7.52984e-06
7.11235e-06
7.6827e-06
7.42384e-06
7.65942e-06
7.65818e-06
5.56231e-06
7.64661e-06
6.03887e-06
7.67251e-06
7.65506e-06
7.68396e-06
5.47596e-06
7.66586e-06
7.67961e-06
7.68333e-06
7.65636e-06
7.66331e-06
7.66879e-06
7.68118e-06
7.65594e-06
7.65586e-06
7.53528e-06
5.55928e-06
7.68537e-06
7.67942e-06
7.67743e-06
5.9145e-06
1.77461e-06
7.68238e-06
7.66346e-06
7.71605e-06
7.6849e-06
7.66802e-06
7.62186e-06
7.80046e-06
7.6601e-06
7.65154e-06
7.64715e-06
7.67568e-06
7.68302e-06
7.66258e-06
7.62373e-06
6.2269e-06
7.65544e-06
7.66344e-06
5.96267e-06
7.66527e-06
7.68039e-06
7.68253e-06
6.34357e-06
2.38115e-06
6.11946e-06
7.67481e-06
6.1456e-06
7.67469e-06
6.14458e-06
7.6558e-06
5.50824e-06
6.32564e-06
7.64158e-06
5.90885e-06
7.65753e-06
7.62726e-06
7.61888e-06
6.49411e-07
5.39312e-06
7.6619e-06
4.63908e-07
7.65445e-06
7.68453e-06
6.11966e-06
7.65353e-06
6.06279e-06
7.67235e-06
7.70508e-06
7.66955e-06
7.67232e-06
7.64932e-06
7.65517e-06
7.66478e-06
7.67944e-06
7.67368e-06
6.35236e-06
5.9184e-06
7.67285e-06
7.6862e-06
5.92072e-06
7.64793e-06
7.67892e-06
7.68187e-06
7.13192e-06
7.68278e-06
5.82618e-06
7.67034e-06
7.68981e-06
7.67108e-06
2.05328e-06
6.11809e-06
7.65445e-06
5.48151e-06
7.65398e-06
3.63242e-06
7.65159e-06
7.61484e-06
7.67804e-06
7.67096e-06
7.66095e-06
5.89089e-06
7.65756e-06
7.6567e-06
7.66642e-06
7.68228e-06
7.68235e-06
7.65757e-06
7.65599e-06
6.02953e-06
5.51808e-06
7.67785e-06
7.67016e-06
7.62898e-06
5.83335e-06
7.65094e-06
7.84137e-06
7.69712e-06
7.66264e-06
7.66284e-06
7.65283e-06
7.58539e-06
5.8776e-06
6.04769e-06
7.65445e-06
7.42778e-06
7.64784e-06
7.6489e-06
7.68115e-06
7.66518e-06
7.66518e-06
7.67388e-06
7.66578e-06
5.58793e-06
7.67251e-06
7.64314e-06
5.8718e-06
7.6435e-06
7.68375e-06
7.65586e-06
7.6719e-06
7.67015e-06
5.86995e-06
7.67286e-06
7.64581e-06
5.43921e-06
7.6681e-06
7.66435e-06
5.97265e-06
7.64517e-06
5.92511e-06
7.66963e-06
7.68162e-06
7.66067e-06
5.97691e-06
7.68099e-06
7.67418e-06
7.65417e-06
7.62295e-06
5.64284e-06
5.89856e-06
7.66233e-06
7.6486e-06
7.68405e-06
7.6657e-06
7.6634e-06
7.69013e-06
7.69812e-06
7.65406e-06
7.64086e-06
5.94798e-06
7.65663e-06
7.65542e-06
7.68505e-06
7.62036e-06
7.65773e-06
5.90007e-06
5.82269e-06
7.60978e-06
6.02944e-06
7.6455e-06
7.67356e-06
7.6515e-06
7.6278e-06
7.65781e-06
5.79351e-06
7.68429e-06
6.0646e-06
7.67782e-06
5.36644e-06
7.6565e-06
7.41872e-06
7.65441e-06
7.65853e-06
7.65502e-06
7.65419e-06
7.67753e-06
7.6582e-06
7.64678e-06
7.66187e-06
5.83383e-06
7.83596e-06
7.68357e-06
7.64276e-06
7.68985e-06
7.65684e-06
7.66138e-06
7.63677e-06
7.66647e-06
7.66388e-06
7.68906e-06
7.65358e-06
5.73953e-06
5.75293e-06
5.65647e-06
2.52625e-06
7.66191e-06
7.66051e-06
7.64404e-06
5.88665e-06
7.64681e-06
7.6258e-06
5.39967e-06
6.02586e-06
5.95707e-06
5.82287e-06
7.67379e-06
5.99995e-06
7.65501e-06
2.04811e-06
7.6561e-06
7.65546e-06
7.62744e-06
7.66358e-06
1.22727e-06
7.65734e-06
7.63464e-06
7.63031e-06
7.65849e-06
7.66177e-06
7.66016e-06
5.81946e-06
7.62964e-06
7.64882e-06
4.73419e-07
7.66032e-06
7.6544e-06
7.6771e-06
7.67671e-06
7.67457e-06
7.63495e-06
7.66724e-06
7.67493e-06
7.62597e-06
7.6724e-06
7.65095e-06
7.67812e-06
7.66452e-06
7.61835e-06
5.83457e-06
7.63917e-06
7.65853e-06
7.66628e-06
7.66543e-06
7.66406e-06
7.66413e-06
7.64993e-06
7.67459e-06
5.74759e-06
7.63716e-06
7.605e-06
7.65513e-06
5.66212e-06
7.68411e-06
7.63344e-06
5.70999e-06
5.7038e-06
7.66055e-06
5.67264e-06
7.65149e-06
5.95473e-06
7.19204e-06
5.3178e-06
5.7491e-06
7.64718e-06
1.37472e-06
7.65288e-06
7.68432e-06
5.73834e-06
7.66274e-06
5.57794e-06
7.62993e-06
7.68417e-06
7.67135e-06
7.63376e-06
5.78658e-06
5.86755e-06
7.68373e-06
7.65253e-06
5.72568e-06
5.67295e-06
5.78711e-06
5.76388e-06
7.66324e-06
5.80589e-06
7.65941e-06
5.74552e-06
7.6579e-06
7.66176e-06
5.53747e-06
5.78684e-06
5.80251e-06
5.74522e-06
7.66094e-06
7.66294e-06
7.6664e-06
5.42737e-06
7.66087e-06
7.63775e-06
2.05501e-06
7.57993e-06
7.64593e-06
5.31094e-06
5.23647e-06
7.66352e-06
5.557e-06
5.66567e-06
7.19787e-06
7.6536e-06
7.66812e-06
7.6923e-06
5.74999e-06
5.77712e-06
5.66707e-06
5.72497e-06
7.65192e-06
7.649e-06
7.88519e-06
5.65746e-06
5.62666e-06
7.64669e-06
7.668e-06
7.66951e-06
7.67084e-06
7.6668e-06
5.59305e-06
7.65205e-06
5.84964e-06
7.66622e-06
5.75248e-06
5.71918e-06
7.67244e-06
7.37376e-06
7.67295e-06
7.92448e-06
7.65429e-06
7.67248e-06
7.66258e-06
7.66462e-06
5.70598e-06
5.86485e-06
7.65993e-06
7.67223e-06
5.69062e-06
5.80803e-06
7.67061e-06
5.54921e-06
5.54339e-06
7.66997e-06
5.58304e-06
5.57434e-06
5.51532e-06
7.64857e-06
7.65752e-06
7.65626e-06
5.55367e-06
5.93658e-06
7.64943e-06
5.62056e-06
5.53448e-06
5.51316e-06
7.6805e-06
7.64614e-06
5.63606e-06
7.6528e-06
5.16098e-06
7.64832e-06
7.70021e-06
7.66729e-06
5.49437e-06
5.46008e-06
5.54187e-06
7.678e-06
5.50067e-06
5.62409e-06
5.63754e-06
5.18378e-06
5.61819e-06
5.17362e-06
5.07344e-06
5.55306e-06
5.59427e-06
5.10089e-06
5.67899e-06
5.50824e-06
5.72154e-06
7.64176e-06
5.43311e-06
5.4271e-06
5.45092e-06
5.41842e-06
5.0082e-06
7.65314e-06
5.34277e-06
5.81211e-06
5.47006e-06
5.37671e-06
7.6756e-06
5.51063e-06
5.50853e-06
7.62682e-06
5.35635e-06
7.63573e-06
7.66649e-06
5.07608e-06
4.99654e-06
5.42657e-06
5.49534e-06
5.35214e-06
5.46999e-06
5.35302e-06
7.67028e-06
4.91038e-06
5.2934e-06
5.3362e-06
7.66128e-06
5.43593e-06
4.80568e-06
5.67095e-06
5.38697e-06
5.27271e-06
5.45907e-06
4.8313e-06
5.15629e-06
5.24661e-06
5.16358e-06
5.25363e-06
5.08037e-06
5.20999e-06
4.79267e-06
4.76625e-06
5.05093e-06
7.67098e-06
5.30383e-06
5.1919e-06
5.28717e-06
5.27663e-06
5.13445e-06
4.73819e-06
4.70729e-06
5.38591e-06
5.2931e-06
4.72285e-06
5.17985e-06
5.26356e-06
5.17046e-06
5.15457e-06
5.22061e-06
5.24087e-06
7.67873e-06
5.12648e-06
5.4361e-06
4.909e-06
5.12026e-06
5.11493e-06
5.17558e-06
5.2186e-06
5.1956e-06
4.65161e-06
5.25492e-06
4.86011e-06
5.26831e-06
5.04296e-06
5.2994e-06
5.23505e-06
5.19964e-06
5.05005e-06
5.11206e-06
4.95293e-06
4.78561e-06
4.6388e-06
5.11556e-06
5.08639e-06
5.12624e-06
5.1373e-06
5.3024e-06
5.25903e-06
5.03198e-06
5.20964e-06
5.07682e-06
5.26244e-06
5.09638e-06
4.56965e-06
5.14912e-06
5.07426e-06
7.67874e-06
4.99624e-06
4.9594e-06
5.00081e-06
5.01697e-06
5.03643e-06
5.05396e-06
4.66993e-06
5.11238e-06
4.70206e-06
4.56282e-06
4.48488e-06
7.6288e-06
7.67149e-06
4.48702e-06
5.00973e-06
5.01748e-06
4.99406e-06
4.87593e-06
4.91338e-06
4.91394e-06
4.79448e-06
5.1184e-06
4.99276e-06
4.86952e-06
5.00819e-06
4.93686e-06
4.96729e-06
4.97061e-06
4.93398e-06
5.42663e-06
4.5422e-06
4.79244e-06
4.95919e-06
4.46558e-06
4.40581e-06
4.82458e-06
4.87126e-06
4.8565e-06
5.09179e-06
5.00824e-06
5.04264e-06
4.83377e-06
4.63276e-06
4.40442e-06
4.70901e-06
4.88721e-06
4.87584e-06
4.32518e-06
4.73566e-06
4.58314e-06
4.77622e-06
4.8038e-06
4.71394e-06
4.71317e-06
4.73743e-06
4.78198e-06
4.65843e-06
4.69821e-06
4.92455e-06
4.79335e-06
4.7165e-06
4.6255e-06
4.25624e-06
4.82651e-06
4.65009e-06
4.87326e-06
4.60109e-06
4.79225e-06
4.70884e-06
4.67355e-06
4.75362e-06
4.61447e-06
4.69575e-06
4.69804e-06
4.74175e-06
4.59085e-06
7.66512e-07
4.24583e-06
4.75781e-06
4.72046e-06
4.63355e-06
4.33634e-06
4.62644e-06
4.10344e-06
4.82641e-06
4.17933e-06
8.30446e-07
4.54194e-06
4.6299e-06
4.17049e-06
4.6743e-06
4.56588e-06
4.53458e-06
4.61512e-06
4.87478e-06
4.63712e-06
4.62542e-06
3.5636e-06
4.63305e-06
4.49421e-06
4.549e-06
4.1054e-06
4.55376e-06
4.61828e-06
4.65749e-06
4.45837e-06
4.48265e-06
4.51774e-06
3.58834e-06
4.45117e-06
4.24405e-06
3.68125e-06
3.80135e-06
4.57708e-06
4.53432e-06
4.5936e-06
4.37479e-06
4.54174e-06
4.22843e-06
4.45827e-06
4.47036e-06
4.50735e-06
4.23482e-06
4.40003e-06
4.68443e-06
3.3946e-06
3.85097e-06
4.04551e-06
4.31744e-06
4.45342e-06
4.54922e-06
4.29813e-06
4.39283e-06
4.36726e-06
4.2838e-06
4.43428e-06
4.41112e-06
4.31135e-06
4.29132e-06
4.80044e-06
3.89821e-06
4.28034e-06
4.32722e-06
4.22657e-06
3.42937e-06
4.38685e-06
4.37484e-06
4.43408e-06
3.93469e-06
4.39222e-06
4.3725e-06
3.89353e-06
4.3817e-06
4.01233e-06
4.30522e-06
4.30329e-06
3.97209e-06
4.08643e-06
4.3876e-06
4.32145e-06
4.40555e-06
4.20783e-06
4.05908e-06
4.29147e-06
3.83305e-06
4.20043e-06
4.38732e-06
4.22793e-06
4.11526e-06
4.27444e-06
4.48607e-06
3.97696e-06
4.30697e-06
4.36379e-06
4.10063e-06
4.29115e-06
4.2077e-06
3.81632e-06
4.24283e-06
4.1243e-06
4.08974e-06
4.21983e-06
4.25683e-06
4.3545e-06
3.77129e-06
4.23619e-06
4.22999e-06
4.15942e-06
4.21015e-06
4.30971e-06
3.73307e-06
4.21436e-06
3.85728e-06
4.21973e-06
3.55855e-06
3.73127e-06
3.47905e-06
4.00551e-06
4.17319e-06
4.0329e-06
4.0408e-06
4.11648e-06
3.91992e-06
4.14917e-06
3.83451e-06
4.03692e-06
4.13646e-06
4.23523e-06
4.12432e-06
4.14545e-06
4.15302e-06
4.12837e-06
4.05308e-06
4.1946e-06
4.23057e-06
3.58876e-06
3.39545e-06
4.0171e-06
3.56509e-06
3.96329e-06
3.95738e-06
3.85424e-06
4.06271e-06
4.26752e-06
4.04647e-06
3.67075e-06
4.0407e-06
3.95725e-06
3.64761e-06
4.1267e-06
3.50256e-06
3.96968e-06
4.00627e-06
4.18415e-06
3.50026e-06
3.94619e-06
4.04693e-06
3.69777e-06
3.9814e-06
3.48352e-06
3.8739e-06
3.96472e-06
4.13071e-06
3.86544e-06
3.48406e-06
3.93905e-06
4.13879e-06
3.78592e-06
3.82278e-06
4.35058e-06
4.03687e-06
3.36201e-06
3.42394e-06
3.90689e-06
3.88617e-06
3.79044e-06
3.87393e-06
3.63504e-06
3.93342e-06
3.38645e-06
3.94926e-06
3.9461e-06
3.92803e-06
3.90733e-06
4.01686e-06
3.94863e-06
3.65417e-06
3.40216e-06
3.80261e-06
3.88349e-06
3.84321e-06
3.87688e-06
3.90452e-06
3.78863e-06
3.80341e-06
3.29958e-06
3.70689e-06
3.82119e-06
3.79036e-06
3.69789e-06
3.70699e-06
3.31045e-06
3.58864e-06
3.73893e-06
3.87958e-06
3.71918e-06
3.75584e-06
3.71741e-06
3.59973e-06
3.72092e-06
3.78167e-06
3.89209e-06
3.72528e-06
3.22088e-06
3.7794e-06
3.67219e-06
3.62334e-06
3.61486e-06
3.20338e-06
3.65784e-06
3.63584e-06
3.6237e-06
3.20737e-06
3.53964e-06
3.67633e-06
3.37117e-06
3.27894e-06
3.18162e-06
3.72544e-06
3.36456e-06
3.55242e-06
3.28794e-06
3.64445e-06
3.73923e-06
3.581e-06
3.61203e-06
3.27233e-06
3.45539e-06
3.14055e-06
3.53138e-06
3.60317e-06
3.41567e-06
3.36156e-06
3.76685e-06
2.97803e-06
3.51624e-06
3.56299e-06
3.45204e-06
3.51595e-06
3.53556e-06
3.54012e-06
3.45668e-06
3.05948e-06
3.35381e-06
3.60386e-06
3.46892e-06
3.68339e-06
3.44737e-06
3.43671e-06
3.12666e-06
3.48628e-06
3.37875e-06
2.97923e-06
3.05802e-06
3.71212e-06
3.84995e-06
3.38537e-06
3.51491e-06
3.43809e-06
3.79601e-06
2.89882e-06
3.34736e-06
3.43763e-06
3.46563e-06
3.46213e-06
3.50515e-06
3.52627e-06
3.44517e-06
2.90616e-06
3.3627e-06
3.29515e-06
2.96927e-06
3.32597e-06
3.43656e-06
3.4146e-06
2.8992e-06
3.33905e-06
3.30166e-06
3.19538e-06
3.33857e-06
3.29004e-06
3.49124e-06
3.34386e-06
3.27842e-06
3.02988e-06
3.31015e-06
3.25535e-06
2.82149e-06
3.38242e-06
3.43098e-06
3.21129e-06
3.37935e-06
3.44817e-06
3.29731e-06
2.78934e-06
3.37332e-06
3.26401e-06
2.88898e-06
3.26317e-06
3.27806e-06
3.20442e-06
3.24529e-06
3.21796e-06
3.24335e-06
3.20716e-06
3.26506e-06
2.87347e-06
2.80747e-06
3.1343e-06
2.71657e-06
3.34048e-06
2.96714e-06
2.88394e-06
2.87153e-06
3.12762e-06
2.80219e-06
3.1184e-06
3.1523e-06
3.17626e-06
3.24435e-06
2.72298e-06
3.05067e-06
3.12401e-06
2.8849e-06
3.27515e-06
3.27964e-06
3.15436e-06
2.81758e-06
3.12037e-06
3.0441e-06
3.06518e-06
3.08952e-06
3.111e-06
3.06493e-06
3.10479e-06
2.91119e-06
2.63363e-06
3.21894e-06
2.77668e-06
3.04061e-06
2.70464e-06
2.89946e-06
2.96066e-06
2.98553e-06
2.95349e-06
3.03025e-06
3.05778e-06
2.94345e-06
2.62896e-06
3.15319e-06
2.97913e-06
2.95691e-06
2.64141e-06
2.95267e-06
2.27738e-06
3.00659e-06
2.71748e-06
2.85984e-06
2.82865e-06
2.54127e-06
3.09876e-06
3.06949e-06
2.87715e-06
2.70673e-06
2.94527e-06
2.92352e-06
3.01559e-06
2.95323e-06
2.91977e-06
2.36294e-06
2.89338e-06
2.93228e-06
2.76225e-06
2.45357e-06
2.44824e-06
2.79365e-06
2.92878e-06
2.77695e-06
2.77697e-06
2.84914e-06
2.91628e-06
2.78625e-06
2.86105e-06
3.00222e-06
2.80722e-06