/*--------------------------------*- C++ -*----------------------------------*\
  =========                 |
  \\      /  F ield         | OpenFOAM: The Open Source CFD Toolbox
   \\    /   O peration     | Website:  https://openfoam.org
    \\  /    A nd           | Version:  8
     \\/     M anipulation  |
\*---------------------------------------------------------------------------*/
FoamFile
{
    version     2.0;
    format      ascii;
    class       surfaceScalarField;
    location    "7";
    object      phi;
}
// * * * * * * * * * * * * * * * * * * * * * * * * * * * * * * * * * * * * * //

dimensions      [0 3 -1 0 0 0 0];

internalField   nonuniform List<scalar> 
33977
(
3.48458e-09
-1.51995e-10
-3.74737e-09
4.14788e-10
-8.12658e-10
-1.65159e-09
1.71476e-09
7.49485e-10
3.90587e-09
-2.80023e-10
1.61328e-10
-3.78717e-09
3.76014e-09
-3.70725e-09
-3.19374e-10
2.66485e-10
2.32732e-11
-2.33223e-10
-5.08901e-10
7.18851e-10
-1.9178e-09
1.5431e-09
-4.37962e-10
-3.17637e-09
4.09929e-09
-2.21658e-09
1.29365e-09
-1.79903e-09
-2.09194e-09
1.34294e-09
2.54803e-09
3.85381e-09
-3.96779e-09
1.87966e-10
-7.39927e-11
-9.90469e-10
2.06481e-09
-3.13757e-09
2.06323e-09
2.79448e-09
3.58766e-10
-3.28406e-09
1.30814e-10
-1.32735e-09
1.37513e-09
-7.05751e-10
6.57971e-10
-5.92323e-09
-4.50562e-09
4.93586e-09
5.49298e-09
-3.39912e-09
-3.96444e-09
4.47407e-09
2.88949e-09
2.37383e-09
-2.77207e-09
-2.26774e-09
2.66599e-09
-1.25296e-09
1.42351e-09
-1.70555e-10
7.41509e-10
-8.168e-10
-1.25206e-09
-2.68807e-09
1.04675e-10
1.70961e-09
8.73789e-10
5.40954e-09
-9.76276e-10
-5.76813e-09
1.33486e-09
2.72411e-09
-1.49778e-09
-2.66464e-09
1.43831e-09
2.50169e-09
2.49594e-09
-2.6238e-09
-1.21034e-09
5.12772e-09
-4.31486e-09
3.97482e-10
-3.81674e-09
3.8326e-09
7.66575e-12
-2.3524e-11
2.59077e-09
-1.36046e-09
1.08878e-09
-2.31909e-09
-2.08159e-09
9.57692e-10
-9.24077e-10
2.04798e-09
2.46038e-09
-2.43156e-09
2.47286e-09
3.7865e-09
-3.78936e-09
-2.68258e-11
2.96859e-11
3.78871e-09
-3.36721e-09
9.35273e-11
-5.15032e-10
-3.29625e-10
-1.1906e-09
6.90683e-09
-5.38661e-09
3.80483e-09
-3.80181e-09
-3.04683e-11
2.74448e-11
3.96866e-09
-3.97135e-09
5.6482e-13
2.11687e-12
8.98882e-10
-8.2536e-10
-4.41463e-11
-2.93749e-11
-3.82159e-09
-2.46563e-11
2.95028e-11
2.54677e-09
2.39046e-09
-2.47685e-09
-3.18289e-09
1.81257e-09
-1.43076e-09
2.80108e-09
1.42817e-09
2.15466e-09
-2.96838e-09
-6.1445e-10
2.3732e-09
2.56971e-09
-2.39613e-09
1.01089e-09
-9.88449e-10
1.51502e-09
-1.53746e-09
-3.09289e-09
-2.73676e-11
-8.10544e-11
3.20132e-09
-2.40634e-09
-2.2938e-09
2.50755e-09
2.19259e-09
3.77586e-09
-3.77833e-09
-4.48186e-11
4.72876e-11
3.88221e-09
1.37014e-10
-2.3245e-10
-3.78677e-09
-6.1993e-10
2.48018e-12
4.40616e-09
2.33738e-09
-2.68535e-09
2.42561e-09
-2.07764e-09
1.27878e-10
-6.20185e-11
3.14156e-09
-3.20742e-09
3.85232e-09
-1.2594e-12
-1.846e-11
-1.2259e-09
-2.83839e-10
2.8006e-10
1.22968e-09
-1.3975e-09
2.17795e-09
-7.80446e-10
2.51052e-09
2.42392e-09
-2.56124e-09
-3.12561e-09
3.1293e-09
-9.19121e-12
5.50749e-12
-1.74483e-09
7.94072e-10
1.13194e-09
-1.81186e-10
-2.93427e-09
-2.41376e-09
2.57595e-09
3.19685e-09
2.71532e-11
-2.70847e-11
-3.19691e-09
4.00149e-09
-1.02813e-10
7.1857e-12
-2.30616e-09
4.77671e-10
-8.59587e-10
-3.98427e-10
3.14374e-10
1.33398e-09
-1.24993e-09
2.48635e-09
-2.47791e-09
2.50207e-09
-3.20538e-11
7.60632e-10
-4.17053e-09
3.44196e-09
3.95054e-09
-3.93846e-09
-2.37567e-11
1.16788e-11
2.37243e-09
-1.8186e-09
-1.43665e-09
8.82813e-10
-3.03181e-09
3.61745e-11
-8.34604e-11
3.0791e-09
-1.83846e-09
1.89247e-09
1.79043e-09
-1.84444e-09
2.41304e-11
-4.08846e-11
3.237e-09
-3.44279e-09
-9.44628e-10
1.15042e-09
-3.93437e-10
-1.00961e-11
-2.96367e-09
2.66008e-09
1.47834e-09
-1.76599e-09
6.35614e-11
-3.19591e-09
-2.69634e-11
3.15931e-09
1.67061e-10
-1.83553e-09
3.69651e-09
-2.02805e-09
2.29875e-09
-3.34844e-09
7.43962e-09
-6.38992e-09
-1.06782e-09
1.13002e-09
-1.62751e-09
1.56531e-09
2.19205e-09
-1.74671e-10
2.16671e-09
-4.18409e-09
1.5626e-09
-1.7392e-09
1.76605e-10
-4.15564e-09
1.15798e-09
-1.1707e-09
4.16835e-09
7.34008e-12
-3.22218e-09
6.19708e-11
3.15287e-09
2.75091e-09
-2.86966e-09
-2.28759e-09
3.1612e-10
3.78249e-09
-3.97073e-09
3.36792e-09
-6.22711e-11
5.45444e-12
-3.3111e-09
-4.2771e-09
4.11103e-09
4.82195e-10
-5.35689e-09
-1.90775e-09
4.76669e-09
2.49795e-09
3.17079e-09
-1.79108e-09
1.43583e-09
-2.81555e-09
1.39022e-09
-3.57964e-11
2.63754e-11
-1.3808e-09
-2.92051e-09
2.97162e-09
-6.10964e-11
9.98605e-12
3.0951e-09
1.48702e-11
9.15194e-11
-3.20149e-09
-6.13706e-10
5.44105e-10
-4.7516e-10
5.44761e-10
-9.48831e-12
1.35617e-09
4.35365e-11
-4.18924e-09
-3.09486e-10
2.90466e-10
4.20826e-09
-3.13405e-09
-2.45779e-11
3.30161e-11
1.4965e-09
-1.02822e-09
2.76873e-09
2.58139e-09
2.57491e-09
-2.66995e-09
-2.36634e-09
2.42661e-09
-1.26538e-10
6.62659e-11
8.78441e-10
-4.10716e-09
5.00117e-09
-1.77245e-09
2.46035e-09
-2.70853e-09
2.87077e-09
-2.62258e-09
1.96495e-10
3.49347e-09
-7.02948e-10
-2.98701e-09
3.32592e-09
5.06969e-10
-2.5172e-09
-1.3157e-09
-3.75902e-09
-1.72818e-11
1.09332e-09
2.68299e-09
3.7671e-09
-3.757e-09
-4.81244e-11
3.80189e-11
2.92613e-09
-3.53153e-09
6.05403e-10
2.90754e-10
-1.19952e-09
-3.17138e-10
7.35313e-10
-7.85773e-10
-2.2557e-09
-2.56745e-09
-1.61298e-09
6.8906e-10
3.49137e-09
9.89281e-11
5.1927e-09
-4.70095e-09
-5.90683e-10
-2.87854e-09
2.86438e-09
-2.3032e-11
3.71886e-11
-1.60961e-09
1.55268e-09
-1.58468e-09
-4.47512e-10
8.15546e-10
1.21665e-09
3.91366e-09
-3.90087e-09
-2.89843e-11
1.61977e-11
2.41308e-09
-2.60949e-09
-2.49987e-09
2.69628e-09
-3.07269e-10
4.26232e-09
-4.06127e-09
1.06217e-10
1.07083e-09
-6.04632e-09
5.3314e-09
-3.55907e-10
-5.20591e-10
1.02682e-09
-1.33539e-09
8.29165e-10
-2.91899e-09
2.90148e-09
-1.74487e-11
3.49588e-11
8.08586e-09
-7.28209e-09
1.50718e-09
-2.31096e-09
-2.00891e-09
1.98001e-09
7.5763e-10
-7.28731e-10
-2.95842e-09
2.93672e-09
-1.48837e-11
3.65769e-11
3.11374e-09
-3.13076e-09
1.97791e-11
-2.76191e-12
-1.73421e-10
4.831e-10
3.54414e-09
3.12941e-09
1.00356e-11
-3.16638e-09
2.6938e-11
-3.00318e-09
2.97639e-09
-1.52755e-11
4.20639e-11
-2.60204e-09
2.27282e-09
2.74229e-09
-5.23195e-10
9.77787e-11
-4.81256e-09
5.23798e-09
-3.04921e-09
3.02124e-09
-1.42831e-11
4.22558e-11
-2.9367e-11
3.02436e-11
-3.09168e-09
3.06297e-09
-1.35584e-11
4.22675e-11
6.34022e-12
-2.71489e-11
-1.57614e-09
-2.21984e-09
1.5251e-10
3.64347e-09
1.23239e-09
-1.61491e-09
1.51254e-09
1.09685e-11
-3.57707e-11
3.49804e-09
-3.48188e-09
-4.1441e-11
2.52744e-11
-2.65209e-09
-2.00308e-09
1.46648e-09
3.18868e-09
-2.05187e-10
4.91176e-10
-4.38573e-10
1.52584e-10
3.09932e-09
-1.36977e-11
2.81207e-11
-3.87241e-09
1.37532e-11
-4.22121e-11
3.45147e-09
-3.44804e-09
-1.80409e-11
1.46011e-11
1.86801e-11
-3.39884e-11
3.44903e-12
-4.90657e-12
3.54738e-09
-3.52615e-09
-3.90672e-11
1.78384e-11
-2.27294e-09
2.85815e-09
1.98962e-10
-7.84175e-10
-3.46976e-09
2.95923e-09
3.89234e-10
1.21294e-10
3.59115e-09
-3.57129e-09
-3.5184e-11
1.53206e-11
1.62099e-09
-4.10272e-10
-4.51037e-09
3.29965e-09
8.2714e-10
-8.33494e-10
-1.02619e-09
1.03254e-09
-3.35909e-09
2.34912e-09
-1.71117e-09
2.72114e-09
3.65373e-09
-3.62563e-09
-5.35116e-11
2.54133e-11
3.78125e-09
-3.79247e-09
-1.3825e-11
2.50474e-11
3.85704e-09
-3.8294e-09
-4.58331e-11
1.81958e-11
5.67186e-10
-1.49382e-09
-2.73106e-09
3.6577e-09
3.7606e-09
-3.77408e-09
3.20832e-12
1.02725e-11
3.78547e-09
-3.77019e-09
-2.93378e-11
1.40655e-11
-1.19846e-09
-6.17888e-09
5.62937e-09
1.74798e-09
-3.87783e-09
-8.64295e-11
3.12207e-09
8.4218e-10
5.14811e-11
3.78847e-09
-7.98188e-11
2.14426e-09
-2.13859e-09
-5.66565e-12
7.32893e-10
3.26654e-09
-3.98882e-09
-1.06106e-11
5.67077e-09
-3.36626e-10
3.49674e-11
-5.36911e-09
-4.1434e-09
-8.20773e-11
-1.71102e-11
4.24259e-09
3.14392e-10
-2.90523e-10
-1.97938e-09
1.95551e-09
3.15728e-09
-1.30994e-11
4.73721e-11
-3.19155e-09
-5.58306e-09
-1.71092e-09
4.83555e-09
2.45844e-09
-7.23906e-11
-5.46373e-10
7.55116e-11
5.43252e-10
-1.4378e-09
-2.75542e-09
1.24926e-09
2.94396e-09
-2.8365e-09
2.83573e-09
-1.5382e-11
1.615e-11
-3.52796e-11
1.99092e-11
9.98321e-10
7.43415e-10
-9.14596e-10
3.27138e-09
-8.20996e-10
-2.69412e-09
2.43736e-10
-1.56567e-09
2.41977e-09
1.92501e-09
-2.77911e-09
3.74347e-09
-3.72327e-09
-4.27988e-11
2.25954e-11
3.17084e-09
-2.56363e-10
7.96926e-10
-3.7114e-09
-3.91963e-10
3.91307e-09
-3.57026e-09
4.91473e-11
-2.99564e-09
2.91263e-09
2.02096e-09
-1.93795e-09
2.34097e-11
2.12085e-09
1.28789e-09
2.28476e-09
-3.34003e-09
-2.3262e-10
3.7591e-09
-3.99141e-09
-1.13977e-09
1.37209e-09
3.063e-09
7.22305e-11
-2.8998e-09
-2.35427e-10
-1.11649e-11
-4.24766e-09
3.68369e-09
5.75139e-10
-1.87494e-09
1.92312e-09
9.40317e-10
-9.88502e-10
3.42542e-09
-3.41302e-09
-2.76069e-11
1.52127e-11
-4.6167e-11
-3.33164e-09
1.62347e-10
3.21546e-09
-3.34783e-09
3.32589e-09
-8.97754e-11
1.11715e-10
9.41109e-10
-3.51563e-09
2.85449e-09
-2.79969e-10
-2.11209e-09
2.00844e-09
-1.73481e-09
-1.00701e-09
9.33086e-10
-8.37447e-10
9.11368e-10
-3.23741e-09
2.1352e-10
9.44724e-10
2.07916e-09
-3.593e-09
7.65275e-12
1.15589e-10
5.34791e-11
-1.47566e-10
-2.27226e-09
-1.73598e-09
1.59725e-09
1.38731e-10
3.18225e-09
-3.1872e-09
-8.89455e-12
1.38535e-11
-3.92556e-09
3.8992e-09
8.24888e-11
-5.6133e-11
-4.88334e-10
4.53133e-09
-4.56619e-09
-9.98058e-10
2.4264e-10
-4.14802e-10
1.17022e-09
2.18522e-09
-5.18734e-09
7.42294e-09
-4.42082e-09
-9.42906e-11
2.72438e-10
-1.95587e-10
1.74395e-11
2.8565e-10
-3.69457e-09
-9.39614e-11
3.50288e-09
2.216e-09
-1.67073e-09
-5.45276e-10
-1.18963e-10
-6.50239e-11
3.15457e-09
-2.97058e-09
-1.84536e-09
-7.28972e-10
1.61106e-09
9.63272e-10
2.54093e-11
-1.77742e-11
2.38804e-10
7.84985e-10
-2.86586e-10
-7.37203e-10
2.80193e-09
-7.23945e-10
-2.00369e-09
-7.42886e-11
-2.07611e-10
1.16575e-09
-5.02777e-09
4.06963e-09
1.44759e-09
-6.75001e-10
7.3486e-10
-1.50745e-09
-3.97398e-09
4.43131e-09
-4.10244e-09
3.64512e-09
-8.02033e-10
8.25801e-10
2.15036e-10
1.56249e-09
2.34072e-09
-2.43368e-09
-1.46953e-09
2.70784e-09
-1.23644e-09
1.07545e-09
-2.54685e-09
-1.7297e-09
-2.29329e-09
7.82137e-10
3.24086e-09
-3.77416e-10
6.48193e-11
3.19783e-09
-2.88523e-09
6.21333e-10
5.14779e-11
-3.7487e-11
-6.35324e-10
-3.82451e-09
3.32147e-10
-1.00639e-10
4.53663e-09
-1.95652e-09
-3.69459e-09
1.11448e-09
4.27418e-09
-4.24101e-09
-4.81219e-12
-2.83626e-11
3.80756e-09
-3.39425e-11
1.1847e-11
3.2433e-09
-3.19895e-09
-6.22304e-11
1.78756e-11
3.39187e-11
-4.7417e-11
-3.38764e-09
3.58439e-09
-3.23605e-10
1.26849e-10
3.31204e-09
-3.2772e-09
-5.74168e-11
2.25741e-11
-8.5205e-10
4.599e-10
9.02243e-10
-5.10094e-10
-1.51828e-09
7.83022e-10
3.33744e-09
-2.60219e-09
-9.04069e-10
1.19496e-09
-3.1163e-09
2.8254e-09
-1.98854e-09
2.73272e-09
2.00672e-09
-1.44937e-10
4.65361e-09
-4.60181e-09
9.3142e-11
4.95778e-09
-3.04217e-09
-1.15242e-09
-7.63187e-10
-1.20792e-10
3.64999e-09
-6.44004e-11
-3.4648e-09
-2.25468e-09
3.06893e-09
1.84584e-09
8.85337e-10
-8.38334e-10
3.24866e-10
-3.71869e-10
2.30178e-09
-5.07968e-09
-1.53321e-09
4.3111e-09
1.81655e-11
-4.00084e-11
2.04661e-09
-1.4074e-09
2.06863e-09
3.2914e-09
1.26975e-09
-2.37983e-09
-2.18133e-09
-3.37931e-09
3.13386e-09
8.9996e-10
-6.5451e-10
-1.25454e-09
-1.0281e-09
2.069e-09
2.13644e-10
-2.81555e-09
2.81806e-09
-1.17382e-11
9.23427e-12
-1.37275e-09
1.4133e-09
-1.029e-09
-4.59807e-09
8.14436e-10
-4.08776e-11
2.77343e-09
-2.72295e-09
-8.58137e-10
8.07657e-10
1.02531e-09
-4.38797e-09
-8.14314e-10
4.17697e-09
4.17456e-09
-4.23081e-09
1.08157e-09
-4.51431e-09
-1.48174e-09
6.61112e-09
-6.15081e-10
1.59094e-09
-1.43257e-09
-2.59391e-09
2.43553e-09
1.7812e-09
-1.97327e-10
-1.58387e-09
9.12593e-10
-4.49394e-09
5.76656e-09
-1.31418e-09
3.11989e-09
-2.30399e-09
4.98284e-10
3.91824e-09
3.54591e-10
-4.46802e-09
1.95191e-10
-2.44317e-11
-3.77033e-09
3.76864e-09
2.61214e-11
5.64862e-10
-5.8035e-11
-5.79218e-10
-2.71989e-09
1.19348e-09
-6.56528e-10
2.18293e-09
4.97164e-09
1.36569e-09
-3.29273e-09
-3.0446e-09
-3.69415e-09
3.70925e-09
2.10933e-11
-3.61951e-11
4.7615e-09
-4.45185e-09
-3.70877e-09
-6.90409e-12
3.19136e-09
1.23914e-11
5.28515e-11
2.96788e-09
6.13626e-11
-3.0821e-09
4.36624e-10
-4.3496e-10
1.04478e-10
-1.06142e-10
2.64507e-10
-5.2337e-10
-2.14993e-10
4.73856e-10
2.40741e-09
1.88702e-09
-4.15678e-09
-1.37657e-10
7.48782e-09
-5.66181e-09
4.72736e-10
3.10046e-09
1.25819e-09
-1.8983e-09
4.97718e-10
-9.55977e-11
-5.07717e-10
1.05596e-10
-1.54982e-09
-2.32894e-09
-1.69017e-11
3.89567e-09
3.35558e-09
-3.37235e-09
5.85704e-12
1.09114e-11
-1.18735e-09
1.15013e-09
-2.76584e-10
3.13806e-10
1.49355e-10
-2.25805e-10
-3.20646e-09
1.25194e-09
3.47041e-09
-1.51589e-09
4.58038e-09
7.62384e-10
-4.46432e-09
3.9128e-09
-4.84755e-11
1.78845e-11
-8.14536e-10
-3.55373e-09
2.8026e-09
1.93639e-09
-1.30256e-09
1.41278e-09
5.65639e-11
3.08964e-10
-5.27416e-10
1.61888e-10
-1.12579e-09
9.14986e-10
-9.20535e-10
1.13134e-09
-4.65467e-09
4.69206e-09
-4.34753e-10
3.97357e-10
4.50003e-10
-2.2474e-09
-3.90734e-10
2.18813e-09
1.1663e-10
-1.09395e-10
-3.90355e-09
3.89632e-09
-6.47554e-10
1.42279e-10
-1.76445e-10
6.8172e-10
2.92781e-09
5.32657e-11
-2.86322e-10
-2.69475e-09
-3.68251e-09
-3.42441e-11
2.26042e-11
-1.57448e-09
2.87391e-09
-2.73724e-09
-5.90246e-09
-2.23098e-09
1.84464e-09
6.2888e-09
2.29506e-09
-2.0053e-09
-2.45555e-09
2.1658e-09
1.00703e-10
1.10208e-10
-3.22877e-09
3.01786e-09
3.30298e-11
-1.92656e-11
-5.7467e-09
5.80212e-09
-1.04747e-10
4.93192e-11
-3.65482e-09
2.23289e-09
1.23522e-09
1.86713e-10
-2.3351e-09
2.20911e-09
1.71693e-09
-2.24642e-09
2.38208e-09
2.15939e-09
2.06788e-10
5.07767e-10
-5.94537e-10
-1.20018e-10
1.49326e-09
-4.49381e-09
4.00657e-09
-1.00603e-09
6.18753e-10
-5.96697e-10
2.52601e-10
-2.74657e-10
4.32235e-11
-5.44522e-11
3.6394e-09
-6.18446e-09
6.06915e-09
-3.52409e-09
-1.50832e-09
-2.10887e-09
7.95709e-10
2.82148e-09
7.06796e-11
-2.81999e-09
-4.85801e-11
2.79789e-09
-1.28044e-09
-1.99821e-09
5.2075e-10
2.75789e-09
2.67044e-09
-1.92355e-09
1.18781e-09
-1.93469e-09
-1.37009e-09
-1.52524e-10
1.52261e-09
2.91686e-10
-3.33964e-09
4.99633e-09
-1.94838e-09
-2.79569e-09
2.77947e-09
-1.8652e-11
3.48775e-11
8.02054e-10
-6.78731e-10
-2.09168e-09
1.96836e-09
1.8991e-10
-2.5713e-09
2.81425e-09
-4.32859e-10
-3.29354e-09
3.24358e-09
-3.81675e-11
8.81268e-11
-1.08114e-09
-2.16447e-09
3.27828e-09
-3.26746e-11
5.3852e-09
-4.45034e-09
-1.40722e-09
4.72359e-10
-3.42823e-09
-4.32143e-09
2.39277e-09
3.93135e-09
-2.66249e-11
-3.90965e-09
4.91935e-12
4.7206e-09
-3.41811e-10
-4.726e-09
3.47212e-10
5.66741e-10
-5.39162e-10
2.49855e-10
-2.77434e-10
-3.23258e-09
4.13723e-09
-9.5516e-10
5.05087e-11
1.04962e-10
-7.54066e-10
-1.52929e-10
-1.74708e-10
-3.21241e-10
1.60079e-10
3.3587e-10
2.04759e-09
3.04659e-09
-2.7568e-09
-6.42561e-10
7.78502e-10
-4.58993e-09
4.45399e-09
3.53247e-09
5.42778e-10
-4.98727e-11
-4.02538e-09
-2.06022e-10
-1.12602e-09
1.33204e-09
-7.92194e-10
1.93303e-09
8.8932e-10
-2.03016e-09
1.95244e-09
-1.23169e-09
2.45005e-09
-4.63321e-09
-3.89103e-09
3.53859e-09
4.98566e-09
-3.33943e-09
-1.14991e-10
6.67866e-11
5.13222e-10
-4.93653e-10
2.27137e-10
-2.46706e-10
-2.37941e-09
2.56093e-10
-1.56299e-10
2.27962e-09
-1.75862e-09
-3.44673e-09
1.45579e-09
3.74956e-09
-3.66972e-09
3.677e-09
1.91685e-11
-2.644e-11
-3.30219e-10
8.43609e-10
-2.02866e-09
1.51526e-09
1.15978e-09
-1.17791e-09
-2.10255e-09
2.12067e-09
2.36815e-09
-2.59323e-09
-2.48345e-09
-1.2195e-09
4.92067e-09
-3.70117e-09
-3.64489e-09
2.69998e-09
3.89212e-09
-2.94721e-09
8.89297e-12
-1.8487e-11
1.46474e-10
-5.9716e-09
-1.70952e-10
5.99608e-09
-1.43169e-09
-4.27469e-09
5.06382e-09
-7.01541e-10
-3.04816e-10
1.00636e-09
1.05991e-10
-3.13421e-09
-7.30805e-10
4.7474e-10
-4.31817e-10
2.16547e-10
-2.5947e-10
2.43816e-10
-7.34101e-10
-2.20799e-09
2.69827e-09
-3.16551e-09
2.44496e-12
1.98532e-10
2.96454e-09
3.7206e-09
-8.83967e-11
2.15279e-11
1.32771e-09
-5.45276e-09
5.19588e-09
1.08512e-09
-6.63565e-10
-1.15984e-09
7.38286e-10
2.67277e-11
-1.67817e-10
3.31121e-09
-3.17012e-09
3.53283e-09
-4.31802e-09
8.05527e-10
-2.0337e-11
-3.32165e-09
6.91223e-11
3.30473e-09
-5.22097e-11
3.90606e-10
-3.65276e-10
1.9934e-10
-2.2467e-10
4.0925e-09
-4.35535e-09
-9.95768e-10
1.25861e-09
-3.81791e-09
3.77422e-09
9.89218e-11
-5.5234e-11
1.14201e-09
7.82274e-10
-1.92429e-09
-4.67371e-12
8.06093e-11
-2.48601e-09
2.15245e-09
-3.72421e-10
7.0598e-10
-1.20415e-09
1.20784e-09
3.01347e-09
-3.01716e-09
1.45476e-10
-1.15915e-09
1.75256e-10
3.96166e-09
-3.94015e-09
-1.96768e-10
-3.75807e-09
3.26271e-10
3.53569e-09
-1.03883e-10
5.84205e-10
-3.18147e-10
-3.0897e-10
4.29123e-11
4.24898e-09
-1.76297e-09
-3.69635e-09
8.96384e-11
-7.82949e-11
3.87386e-09
-3.8852e-09
8.97787e-11
-2.44294e-10
2.99961e-09
-2.8451e-09
3.40141e-10
-3.23201e-10
1.80434e-10
-1.97374e-10
-3.04539e-09
3.82521e-09
-1.55001e-09
7.70189e-10
2.6485e-10
-3.77571e-10
4.22425e-09
3.5791e-10
-2.179e-09
-2.40316e-09
-3.72101e-09
3.66372e-09
8.90274e-11
-3.17422e-11
-5.29618e-11
4.30676e-11
4.46518e-10
9.78382e-10
2.68684e-09
-3.70218e-11
-3.73391e-09
3.714e-09
5.69363e-11
3.01946e-10
-2.88414e-10
1.61702e-10
-1.75235e-10
-3.52287e-09
3.40644e-09
1.87944e-10
-7.15151e-11
1.98575e-09
2.49385e-10
-1.72299e-09
-5.12149e-10
2.78169e-10
-3.01075e-10
1.46566e-10
-1.23659e-10
-3.97693e-11
1.21059e-10
-3.62822e-09
3.58776e-09
6.91737e-11
-2.8708e-11
-3.65422e-09
3.71121e-09
-2.46072e-11
-3.23812e-11
2.23665e-10
-2.02523e-10
1.48621e-10
-1.69764e-10
-2.64785e-10
2.82786e-10
1.83111e-10
-2.01111e-10
-1.65571e-09
1.1975e-09
-2.90089e-09
-3.56477e-09
3.5915e-09
-1.12368e-11
-1.54944e-11
-5.6628e-09
4.5472e-11
-1.29372e-10
1.86273e-09
-1.79385e-09
-3.35612e-09
3.28724e-09
1.03386e-09
-1.01325e-09
-1.1464e-09
-8.45383e-10
9.06353e-10
1.02415e-09
-4.48987e-09
-2.12306e-09
1.88057e-09
4.73236e-09
2.48828e-09
-2.79929e-09
3.4663e-09
-3.15529e-09
1.7994e-10
1.15272e-10
-1.30261e-10
-1.64951e-10
2.4219e-11
-3.26817e-09
-1.44639e-11
3.25841e-09
1.2953e-09
-4.1537e-09
2.97658e-09
-1.18175e-10
-4.13049e-09
3.9553e-09
1.75188e-10
3.9213e-10
1.76259e-10
-1.53315e-10
-4.15073e-10
2.90618e-10
-3.43966e-10
-2.73394e-09
2.72438e-09
-1.83021e-11
2.78577e-11
-1.99907e-09
2.18133e-09
1.46133e-09
-1.64359e-09
3.58831e-11
-1.78242e-11
-1.69535e-12
-2.12422e-12
9.56062e-11
-9.17867e-11
-3.36515e-09
5.51573e-10
-3.67795e-10
3.18137e-09
-2.22872e-09
-3.61702e-09
3.25522e-09
2.59053e-09
3.25491e-09
3.51352e-11
-3.34933e-09
5.92912e-11
-2.72883e-09
-1.20794e-09
2.50421e-09
-3.46264e-09
3.21853e-09
2.00281e-09
-1.75871e-09
-7.00774e-10
-2.55234e-09
1.1217e-10
3.14094e-09
6.86128e-10
4.29276e-11
-6.61818e-10
-6.72376e-11
3.63289e-11
-4.98527e-11
-6.24038e-09
4.8874e-09
4.99238e-09
6.52019e-10
-5.66836e-10
5.65084e-10
-6.50267e-10
5.39382e-09
-5.26479e-09
-3.14147e-10
1.85124e-10
4.41825e-10
2.23472e-09
-2.77988e-09
1.03335e-10
1.22909e-11
-1.29028e-11
-1.85844e-11
1.91963e-11
3.49803e-10
-1.83733e-10
-3.40778e-10
-2.45443e-09
3.45791e-09
7.55944e-10
-1.75943e-09
3.3241e-09
-3.2248e-09
1.15129e-10
-2.14431e-10
-3.97745e-09
-3.86639e-09
2.70922e-09
5.13462e-09
2.35307e-09
-4.63603e-10
4.75216e-10
-2.36468e-09
-3.74677e-09
3.68512e-09
2.32966e-10
-1.71307e-10
9.30121e-10
-4.2558e-09
4.26904e-09
-9.43365e-10
9.21418e-11
-5.97899e-11
-3.04831e-09
3.10783e-09
-3.70441e-09
-3.39033e-09
-1.50414e-09
1.21299e-09
3.68148e-09
1.48055e-09
-6.6012e-10
5.54701e-10
-1.70389e-09
-4.20106e-09
1.51697e-09
5.91971e-11
-5.36123e-11
5.59277e-10
1.86697e-09
-2.49661e-09
-8.52478e-10
1.48212e-09
1.53212e-09
-3.99379e-09
-2.72567e-09
2.90706e-11
3.15856e-09
-5.38258e-12
6.43497e-12
7.3307e-13
3.80198e-10
-3.31811e-10
-2.53574e-10
-3.67278e-09
-3.34442e-11
3.65021e-11
1.34649e-10
-4.8747e-10
7.50367e-10
-3.97546e-10
3.3726e-09
-1.06234e-09
2.13127e-10
-2.52339e-09
-4.37519e-09
8.24149e-10
-6.38199e-10
2.98226e-09
-2.18812e-09
-1.21481e-09
4.20673e-10
3.4317e-09
-6.98132e-09
-1.93215e-09
5.48177e-09
-4.67486e-11
3.20994e-09
1.63164e-10
-3.32635e-09
5.89938e-09
4.92194e-11
9.06285e-11
-3.74111e-11
-4.36338e-09
-1.52376e-09
4.70998e-09
1.17715e-09
-8.66134e-10
2.68725e-09
5.83332e-10
-2.40445e-09
-4.2401e-09
-1.8505e-10
4.46013e-10
3.97914e-09
-3.76989e-09
3.973e-09
3.87679e-09
-4.0799e-09
1.95544e-09
-2.24648e-10
-2.60511e-09
8.74321e-10
-2.58951e-09
1.52728e-09
-1.74477e-09
2.80701e-09
4.2721e-09
2.38433e-09
-5.36113e-09
-1.23338e-09
-2.28593e-09
3.07137e-09
4.47939e-10
7.24459e-10
-3.65775e-09
2.79238e-09
1.40915e-10
-5.29183e-09
1.06711e-10
8.54793e-10
4.33033e-09
-3.15187e-09
3.59835e-09
4.68301e-10
-9.14778e-10
1.5861e-09
-1.43453e-09
-2.30022e-09
2.14865e-09
3.04242e-09
-3.34116e-09
3.89276e-10
-9.05358e-11
1.8106e-09
-2.18463e-09
4.23848e-09
-3.86445e-09
-1.65431e-09
7.18868e-10
-3.04985e-10
1.24043e-09
-1.85378e-09
2.09081e-09
2.51825e-10
-3.24985e-10
2.93141e-10
-2.19981e-10
-8.65549e-11
1.02118e-09
-2.79341e-09
1.85879e-09
3.18559e-10
-2.1831e-09
2.31455e-09
-1.62167e-10
2.89777e-10
-2.76866e-10
1.49256e-10
-2.12516e-09
-1.43052e-09
2.07957e-09
1.47611e-09
2.08361e-10
7.50609e-10
-1.42954e-10
-8.16017e-10
3.42035e-09
-5.14211e-09
2.40936e-09
-6.8759e-10
-8.72889e-10
1.4202e-09
-3.26065e-09
2.71334e-09
2.04511e-09
-3.18516e-09
-4.34431e-10
-2.89213e-12
4.42839e-12
-9.27479e-11
9.12116e-11
1.65692e-09
-8.09029e-10
1.0885e-09
-1.65307e-09
-2.59544e-09
1.07214e-09
-3.21047e-09
3.1571e-09
-2.52472e-11
7.86226e-11
7.09707e-11
-6.3413e-11
3.85735e-09
-3.86491e-09
6.85874e-12
1.40026e-10
-3.44648e-12
-1.43438e-10
2.12047e-10
-2.40848e-10
-1.97054e-09
-1.83781e-09
2.00932e-09
-3.28758e-09
3.65432e-09
-4.13663e-09
2.18434e-09
8.0414e-10
-3.436e-09
4.47519e-10
3.01613e-09
-1.20683e-09
-2.51008e-09
-4.55909e-09
-1.07764e-09
9.82064e-10
-3.53076e-09
-1.92211e-09
3.42976e-09
2.0231e-09
3.1776e-09
-3.17757e-09
2.66265e-11
-2.66557e-11
5.7209e-10
7.47294e-09
-1.99729e-09
-6.04774e-09
-3.51473e-09
1.12598e-10
3.44233e-09
-4.01994e-11
-2.35841e-09
-2.84759e-09
2.88723e-09
2.31877e-09
3.34411e-09
-2.93386e-09
-1.49139e-09
-2.0513e-09
1.63286e-09
-1.09261e-09
1.51105e-09
-1.90435e-10
-2.22824e-09
2.41868e-09
3.50128e-09
-2.33625e-09
1.65439e-09
-6.1506e-09
3.58507e-09
9.11133e-10
4.22976e-12
5.5637e-12
-9.79346e-12
2.80886e-09
-3.83137e-09
-1.97313e-09
-2.0797e-09
-1.19429e-09
2.39741e-09
8.76577e-10
-1.09382e-09
9.83582e-10
-3.78156e-10
4.88396e-10
2.27071e-10
-4.15447e-09
4.07822e-09
-1.50823e-10
8.86593e-10
-5.43583e-10
3.29374e-09
-2.37576e-09
-3.13455e-09
2.52049e-10
-2.82005e-10
-3.61124e-11
-3.67233e-09
3.6466e-09
6.18456e-11
2.61031e-10
-3.38084e-09
-2.08111e-10
3.32792e-09
1.79234e-09
-2.33504e-09
2.08077e-09
-1.53807e-09
2.20487e-09
-3.47026e-09
1.52341e-09
-2.58016e-10
1.60807e-09
9.20806e-10
-3.15437e-10
-2.21344e-09
2.52318e-09
8.13319e-11
-1.77895e-10
-2.49184e-09
2.46374e-09
-6.8873e-10
5.51281e-10
-4.86626e-10
6.24076e-10
6.69008e-10
-1.73777e-09
1.82457e-09
-7.5581e-10
-4.00151e-09
4.06745e-09
1.09315e-10
1.89623e-09
-1.84475e-09
1.83649e-09
-3.57756e-09
-1.28105e-09
3.02212e-09
-4.50885e-09
8.75881e-11
-1.83803e-10
4.60506e-09
1.15952e-11
-8.3468e-11
-7.52799e-10
5.46135e-09
1.36346e-10
-4.84489e-09
3.23867e-10
-3.50172e-10
2.69089e-10
-2.42784e-10
3.48895e-11
-1.69187e-11
-3.50483e-11
4.43873e-11
6.11994e-10
3.4866e-09
-5.00516e-09
9.63465e-10
5.55091e-10
-1.59929e-09
1.98291e-09
1.50884e-09
1.90202e-11
-3.30392e-11
2.7322e-09
-2.45039e-09
-3.05509e-09
2.77328e-09
7.51289e-10
3.43985e-10
-1.96392e-10
2.22769e-09
-2.90928e-10
-3.91345e-09
1.97669e-09
2.39247e-10
-2.65187e-10
3.09559e-10
4.33041e-09
-4.15711e-10
4.53694e-12
-1.16073e-11
-2.99487e-11
3.7019e-11
-4.08702e-09
5.06633e-09
-3.33772e-09
8.58002e-11
-3.94637e-09
3.9772e-09
-2.17911e-09
2.04731e-09
-3.5966e-09
3.7284e-09
1.4292e-10
-2.96056e-09
1.50343e-11
2.80261e-09
-1.46286e-10
3.8802e-09
-3.88874e-09
1.5482e-10
-2.91266e-09
3.83731e-09
2.79255e-11
-9.52571e-10
-1.18366e-09
3.00971e-09
7.57887e-10
-2.58394e-09
3.88891e-09
-3.88796e-09
2.66165e-11
-2.75633e-11
4.07372e-09
-3.19853e-09
-1.36352e-09
2.0503e-09
-9.97862e-11
-1.86236e-09
-8.81534e-11
2.36113e-09
-1.29845e-09
-2.78437e-09
2.76927e-09
2.76359e-11
-1.25329e-11
3.26537e-09
-3.27982e-09
4.172e-11
-2.72699e-11
-4.40192e-10
-1.29927e-09
6.45638e-10
-1.94062e-09
2.94649e-09
-3.15425e-09
1.83318e-11
3.13765e-09
-1.73321e-12
2.24742e-10
-2.43655e-10
-5.81309e-10
5.58154e-10
-5.88423e-10
5.70787e-10
-7.20482e-10
7.38119e-10
3.14438e-09
-3.13948e-09
2.15526e-11
-2.64455e-11
3.16917e-09
6.44461e-11
-4.62833e-11
-3.18733e-09
3.6805e-09
3.43977e-09
-3.10227e-09
-4.018e-09
-2.82907e-09
3.38925e-09
-2.21588e-09
3.29841e-09
-3.27177e-09
-3.12271e-11
4.58865e-12
2.57812e-09
5.19953e-09
3.08201e-10
1.51743e-09
1.98151e-09
-1.07917e-09
-2.91446e-09
2.85827e-09
1.04172e-10
-4.79816e-11
-2.72292e-09
3.75652e-10
2.84599e-09
-2.62139e-09
-1.53879e-09
-6.65069e-11
2.12202e-09
-2.05552e-09
2.08913e-10
-2.50124e-10
3.69092e-11
-6.43007e-11
-4.09018e-09
-1.21095e-09
2.25282e-09
-1.77851e-09
2.08806e-09
3.26041e-09
-3.22902e-09
-4.26959e-11
1.1304e-11
5.39791e-10
-5.70339e-09
5.55403e-09
-3.90423e-10
-1.93439e-09
-5.58882e-10
9.08588e-10
-3.49439e-09
9.26674e-10
2.85941e-09
7.23599e-10
-1.07505e-09
-1.69984e-09
-2.32822e-10
-2.2135e-09
2.31044e-09
1.35882e-10
-4.57574e-09
-2.03105e-10
4.66556e-09
1.13277e-10
-5.36526e-09
-4.40215e-10
5.24256e-09
5.62915e-10
3.21508e-09
-3.19627e-09
-2.98943e-11
1.10798e-11
2.80908e-09
-4.16424e-11
-2.79382e-09
2.63859e-11
6.09298e-12
-4.06634e-09
-2.40392e-11
4.08429e-09
4.56483e-11
-4.54175e-11
1.302e-12
-1.53283e-12
-1.15021e-10
5.50051e-11
3.99137e-09
-3.98769e-09
-3.29888e-10
5.70806e-10
3.76946e-09
4.51031e-09
-5.03902e-09
-3.24075e-09
6.06499e-11
-7.17059e-11
5.08774e-10
1.1256e-09
1.7056e-09
-1.36905e-09
-1.46215e-09
1.83605e-10
-2.0874e-10
3.19752e-09
-3.20424e-09
-4.4683e-12
1.11894e-11
4.77969e-11
1.44464e-10
-3.05192e-09
2.85965e-09
-1.69663e-09
-2.53254e-09
3.12095e-09
1.10821e-09
1.23412e-10
2.54201e-09
1.20922e-10
-2.78635e-09
-3.21003e-09
-9.01534e-10
4.04903e-09
6.25332e-11
-5.80771e-09
6.16006e-09
-1.10515e-09
1.07247e-09
-1.2299e-09
-2.34107e-09
2.4985e-09
7.25289e-11
-3.94219e-11
2.54747e-11
-2.82141e-11
1.30086e-10
-1.27347e-10
3.18208e-09
-3.14005e-09
-6.6628e-11
2.46003e-11
-6.83394e-12
-1.9361e-09
1.94293e-09
6.01273e-11
-5.59946e-11
3.83939e-09
-3.84352e-09
1.44222e-09
3.01493e-09
-4.1044e-09
-3.52749e-10
-5.22169e-11
-2.42785e-09
4.80627e-11
2.432e-09
-6.62937e-11
1.53564e-11
-2.39323e-11
7.48696e-11
3.08213e-09
-3.0445e-09
-5.88872e-11
2.1264e-11
3.74628e-09
-1.80463e-09
1.07812e-11
1.65701e-10
-1.86956e-10
-3.02489e-09
3.1331e-09
1.78497e-11
-1.26058e-10
-3.49809e-09
3.87573e-09
-7.64257e-10
3.86618e-10
3.98219e-09
4.97911e-09
-5.19184e-09
3.00295e-09
-2.99043e-09
-1.13861e-11
-1.13348e-12
1.69751e-10
-3.38747e-09
3.2884e-09
-3.00491e-09
-7.04426e-11
-5.86578e-11
3.13401e-09
2.38629e-09
2.76219e-11
-6.61523e-09
4.20133e-09
-3.23564e-09
-7.74241e-11
3.35945e-09
-4.63918e-11
7.98979e-09
-6.66746e-09
-1.32234e-09
7.80609e-10
-5.03471e-09
5.58182e-09
-4.03726e-09
2.55394e-09
-1.97531e-09
-2.50698e-09
2.22894e-09
2.25334e-09
-4.27072e-09
-4.96825e-09
3.65591e-09
-2.99627e-09
2.87046e-09
1.33504e-09
-1.48676e-09
4.69754e-10
-3.1804e-10
-1.95574e-09
2.43645e-09
-4.80714e-10
1.32733e-09
-4.2079e-09
-4.98741e-10
1.80116e-09
-1.97167e-10
-1.28961e-09
3.09975e-09
-3.09662e-09
2.22387e-11
-2.53617e-11
7.51493e-11
-8.46246e-11
1.57535e-11
-6.27824e-12
1.44832e-10
-1.55076e-10
-3.91604e-09
6.58552e-11
3.93982e-09
4.95965e-09
-4.92841e-09
-8.1001e-11
4.97588e-11
1.90182e-09
-1.92625e-09
-2.88436e-09
2.67898e-09
-1.39392e-10
3.44779e-10
1.22263e-09
-1.14559e-09
-5.40987e-09
5.33284e-09
3.91045e-09
-3.8754e-09
2.15832e-11
-5.66268e-11
-2.41493e-09
2.31578e-09
2.58743e-09
-5.36455e-09
1.37673e-09
3.98426e-09
3.55378e-12
-6.06115e-11
6.31619e-11
-4.70379e-12
2.15341e-12
-3.12732e-10
1.73877e-10
-1.82386e-10
1.0085e-10
-3.57163e-09
3.49717e-09
-2.63853e-11
-4.43035e-09
4.55829e-09
-2.32127e-10
1.04191e-10
-4.54848e-09
2.25022e-10
4.14487e-09
1.78585e-10
-1.37235e-09
-1.31546e-09
9.67925e-10
1.71989e-09
-3.21069e-09
1.27351e-09
-1.24571e-09
1.52094e-10
-2.29504e-10
-4.3626e-09
3.84024e-09
-9.94664e-10
1.51702e-09
1.80668e-09
-1.73058e-09
2.65976e-09
-2.73586e-09
-3.57281e-11
3.15481e-09
-3.12407e-09
3.06715e-09
-2.35407e-11
8.0463e-11
-3.24471e-11
-3.60672e-09
3.57914e-09
6.0034e-11
-3.72669e-09
3.02602e-09
3.44513e-09
-2.74446e-09
3.29093e-11
-1.51755e-11
4.66709e-09
-4.66739e-09
-4.76501e-12
5.05896e-12
3.08471e-09
2.53166e-10
-3.29469e-09
-4.31908e-11
-2.02988e-09
2.3507e-11
2.00637e-09
-2.69245e-09
2.52289e-09
-1.86032e-09
4.18922e-11
-2.64857e-10
-2.35979e-09
2.01523e-09
1.12597e-09
-7.81419e-10
-1.00289e-10
-3.84332e-09
1.94617e-10
3.74899e-09
2.94226e-09
-4.73073e-09
2.82622e-09
-1.03775e-09
-3.30171e-09
2.37693e-09
-1.05053e-09
1.56498e-09
-1.55839e-09
-1.94663e-09
1.94003e-09
-2.37952e-09
-1.84012e-09
2.2491e-09
-8.63188e-11
1.73756e-10
-3.28279e-09
3.19535e-09
2.44173e-09
2.27186e-09
-1.38767e-09
-8.21767e-11
1.36199e-10
-4.56287e-09
-1.7318e-10
-3.40408e-09
6.25322e-11
-2.20171e-10
-3.57399e-09
4.29009e-10
1.6105e-09
-2.31588e-09
-3.0213e-09
1.94692e-09
-2.93605e-09
2.53244e-09
-1.54331e-09
1.13171e-11
-4.57978e-11
-1.10908e-09
4.56587e-10
-1.96641e-09
2.6189e-09
-5.6147e-09
9.34865e-10
-8.13889e-10
3.56625e-09
-6.87131e-11
-2.68365e-09
3.49727e-09
-1.33907e-09
4.92846e-10
-2.65105e-09
-2.32652e-11
-9.43282e-11
-4.99779e-12
1.22591e-10
-2.09486e-09
-1.43865e-09
1.40835e-09
3.1197e-09
-3.14298e-09
2.23808e-11
9.03354e-13
4.68277e-09
3.76443e-12
-1.9441e-11
1.04748e-08
-2.68225e-09
-7.22042e-09
1.02128e-09
1.37372e-09
-9.4741e-10
-4.12825e-09
2.05795e-09
-1.14282e-09
3.21312e-09
-6.07633e-09
1.30452e-09
5.7949e-09
-1.02308e-09
2.83471e-09
-1.19207e-09
2.74141e-10
-1.91678e-09
-2.2252e-11
4.34085e-09
-4.40078e-09
4.66841e-09
2.24306e-11
-8.07494e-12
-4.62273e-09
-4.62541e-11
1.60001e-12
3.03339e-09
6.63577e-12
5.86214e-12
-3.04588e-09
-2.61324e-09
1.60313e-10
-5.10497e-10
2.96343e-09
2.90919e-09
-1.93646e-09
1.46901e-09
-3.5327e-09
6.36923e-10
-1.86829e-11
1.14725e-10
-1.25961e-10
1.85972e-11
-7.36076e-12
-3.87575e-09
-2.37105e-10
5.76348e-10
3.53651e-09
-8.07539e-10
9.12613e-10
-5.64034e-11
7.56912e-11
-4.64202e-09
-1.21153e-10
6.32356e-12
-1.59731e-11
1.30803e-10