/*--------------------------------*- C++ -*----------------------------------*\
  =========                 |
  \\      /  F ield         | OpenFOAM: The Open Source CFD Toolbox
   \\    /   O peration     | Website:  https://openfoam.org
    \\  /    A nd           | Version:  8
     \\/     M anipulation  |
\*---------------------------------------------------------------------------*/
FoamFile
{
    version     2.0;
    format      ascii;
    class       surfaceScalarField;
    location    "7";
    object      phi;
}
// * * * * * * * * * * * * * * * * * * * * * * * * * * * * * * * * * * * * * //

dimensions      [0 3 -1 0 0 0 0];

internalField   nonuniform List<scalar> 
11624
(
-7.8834e-09
8.08928e-09
1.38439e-10
-3.4431e-10
-7.29125e-09
-2.46019e-10
-3.46134e-10
-2.11061e-09
1.45367e-10
1.85619e-09
1.09052e-10
8.72573e-09
-7.63801e-09
1.85989e-09
-2.94761e-09
-6.10986e-09
5.7617e-09
1.57362e-11
3.32426e-10
-6.10844e-09
4.31222e-09
1.45734e-09
3.38878e-10
-1.44495e-09
-2.88438e-10
-2.96269e-09
4.69608e-09
-8.81212e-10
2.32992e-09
3.16376e-09
-4.61247e-09
3.02037e-09
-2.35318e-09
-3.33111e-09
2.66392e-09
-3.37043e-09
-1.60159e-09
2.63562e-09
2.3364e-09
5.05504e-09
-4.63603e-09
-1.78299e-10
-2.40713e-10
2.00475e-09
4.78218e-09
-2.00056e-09
-4.78637e-09
-2.81319e-09
-4.28806e-09
2.27233e-09
4.82892e-09
-4.02069e-09
5.17455e-09
-1.19694e-09
4.30798e-11
-1.56901e-09
4.42247e-09
-3.94248e-09
1.08902e-09
-3.97447e-09
2.83374e-09
-2.72576e-09
3.86648e-09
4.17621e-09
-4.15498e-09
-6.63284e-11
4.50963e-11
-3.71658e-09
4.81727e-09
-1.18331e-09
8.26279e-11
-2.75121e-09
3.87168e-09
-4.53939e-09
3.41892e-09
-3.22225e-09
-1.57963e-09
1.94032e-09
2.86156e-09
3.34106e-09
-3.79207e-09
2.38954e-10
2.12053e-10
-3.62569e-09
4.44255e-09
-3.57344e-10
-4.59519e-10
5.37902e-09
-5.40737e-09
5.8899e-11
-3.05478e-11
6.24476e-09
-2.06254e-09
9.19849e-10
-5.10207e-09
5.06566e-09
-4.76429e-09
-3.03479e-10
2.11034e-12
-4.8621e-09
1.44594e-09
4.28779e-09
-8.71624e-10
2.47692e-09
-4.01272e-09
-3.39353e-09
4.92933e-09
2.5704e-09
-2.3985e-09
-3.13593e-09
2.96403e-09
-2.75084e-09
3.35754e-09
-4.27907e-09
3.67237e-09
-5.90086e-09
4.58475e-09
-3.95843e-09
5.27453e-09
5.35349e-09
-3.51667e-10
6.38379e-11
5.27088e-09
-1.86454e-10
2.94588e-10
-5.5296e-09
5.11884e-09
5.34441e-10
-1.23682e-10
-5.45088e-09
4.64241e-09
1.04586e-09
-2.3739e-10
5.58715e-09
-2.45173e-10
1.15098e-11
-4.4185e-10
-3.2711e-11
-5.0891e-09
6.0615e-10
-2.81346e-10
-8.32865e-10
4.94519e-09
-5.5119e-09
1.39957e-09
-3.59677e-09
3.2605e-09
-7.26911e-10
2.05626e-10
-3.94136e-09
1.74878e-09
-1.22538e-09
3.41796e-09
2.61809e-09
-4.18056e-09
-2.40415e-09
3.96662e-09
2.3423e-10
7.86671e-11
7.77638e-09
6.93631e-11
-4.84383e-09
-6.32897e-10
5.45387e-09
-3.09766e-10
-6.20071e-09
1.0566e-09
2.09776e-09
-1.82814e-09
-2.87874e-09
2.60912e-09
-9.22337e-09
-2.8847e-10
2.22059e-09
3.21495e-09
9.14448e-10
-1.74647e-09
-2.38293e-09
8.68588e-09
-7.26611e-09
4.85124e-09
-6.27102e-09
4.20547e-09
-3.92728e-09
3.06379e-09
-3.34199e-09
-1.83778e-09
-6.00091e-10
3.27257e-10
3.85251e-09
-4.22569e-09
-4.95248e-09
5.32566e-09
1.08836e-09
-1.05476e-09
3.56889e-09
-3.60249e-09
-3.60688e-09
-1.09372e-09
4.73573e-09
-3.51429e-11
3.26514e-09
5.1301e-09
-5.4719e-09
-2.92334e-09
6.70601e-10
-4.51709e-10
2.3721e-10
-4.56102e-10
2.00379e-09
-8.94424e-10
5.096e-09
-6.20536e-09
-2.07791e-09
2.59254e-09
8.2111e-09
-5.38326e-09
1.6704e-09
-1.13232e-10
3.8261e-09
3.4094e-09
-3.72567e-09
8.35981e-10
-5.19708e-10
-2.8635e-09
3.71384e-09
1.55777e-09
-2.40812e-09
4.62061e-09
-3.96562e-09
-2.87335e-09
2.21836e-09
-6.0596e-10
1.54321e-09
-5.15225e-09
4.21501e-09
-7.04933e-09
5.97389e-09
-3.14869e-09
4.22413e-09
1.63471e-09
-7.50485e-10
-3.83635e-09
2.95213e-09
-2.21121e-10
2.38257e-10
-2.34525e-10
2.17389e-10
-1.62488e-09
4.35235e-09
-3.60868e-09
2.40667e-09
-3.82843e-09
3.36133e-09
-1.93958e-09
-4.77667e-09
-4.45997e-11
3.98841e-09
2.17463e-10
2.26732e-10
-2.24196e-10
-2.19999e-10
2.54965e-09
7.3421e-09
-1.06839e-08
7.92171e-10
2.73932e-09
-2.80623e-09
-3.51014e-09
3.57705e-09
1.71279e-09
4.85358e-09
-1.32791e-09
-5.23847e-09
4.03863e-09
-3.57301e-09
-3.55336e-09
3.08773e-09
-1.02055e-09
6.15983e-11
1.47912e-09
-5.20174e-10
-4.71433e-09
-2.63925e-09
3.0085e-09
4.34507e-09
-2.68375e-09
-3.46684e-09
3.42202e-09
2.72857e-09
-4.89784e-09
4.61567e-09
-6.08024e-10
8.90191e-10
-5.09744e-09
-7.85279e-09
5.31221e-09
-2.88071e-09
2.74131e-09
3.6654e-09
-3.526e-09
-1.53861e-09
3.23417e-09
-4.16761e-09
2.47205e-09
-3.67026e-09
8.94858e-10
-5.7955e-09
-2.81578e-09
6.35614e-10
-4.67106e-09
-2.76034e-09
6.19382e-10
-4.5987e-09
-2.68983e-09
6.00118e-10
-4.49682e-09
-3.22927e-09
7.56117e-10
-5.23411e-09
4.94982e-09
-5.08729e-09
2.76081e-10
-1.38605e-10
-3.92514e-09
9.88689e-10
-6.36068e-09
-2.81761e-09
6.4254e-10
-4.86736e-09
-2.96832e-09
6.83353e-10
-5.01952e-09
-3.36367e-09
8.02444e-10
-5.56217e-09
-2.57465e-09
5.70839e-10
-4.4665e-09
-2.27117e-10
2.58799e-10
1.93331e-10
-2.25014e-10
5.17067e-09
5.7454e-09
-8.30922e-09
-2.60686e-09
-4.11811e-09
2.74256e-09
3.78223e-09
-5.70647e-09
-5.17298e-09
4.32113e-09
6.55832e-09
-2.30595e-10
2.40763e-10
-2.35838e-10
2.2567e-10
1.01467e-09
-1.10957e-09
4.83777e-09
-4.74286e-09
4.63826e-09
6.51451e-09
-6.9351e-09
-4.21767e-09
6.32268e-09
7.70046e-09
-9.72151e-09
-4.30162e-09
-1.08464e-09
4.58043e-10
-4.22671e-09
4.85331e-09
2.26035e-09
3.07416e-09
-2.43137e-09
-2.90314e-09
-4.35555e-09
-2.79134e-11
4.10868e-09
2.74791e-10
-3.70355e-09
2.37847e-09
-3.15054e-09
4.47562e-09
-3.53605e-09
-3.04769e-09
2.88019e-09
-2.09429e-09
1.6858e-09
2.77189e-09
-2.3634e-09
-2.36585e-09
3.0714e-09
-2.61682e-09
1.91127e-09
1.02577e-10
3.70622e-09
3.67417e-10
2.36474e-09
3.26646e-09
-4.84282e-09
-7.88379e-10
-3.56695e-10
1.48429e-09
-1.58617e-09
4.58572e-10
3.9021e-09
5.6361e-10
-3.71669e-09
-7.4902e-10
-5.02609e-11
-4.41643e-09
-6.22408e-10
3.24007e-09
-3.87212e-09
3.07645e-09
-2.44439e-09
-2.73099e-09
4.13207e-10
4.73299e-09
-2.41521e-09
2.18576e-09
8.54692e-09
-1.3059e-09
-9.42679e-09
3.22787e-09
7.91603e-09
-8.95814e-09
5.49026e-09
6.90158e-10
-1.2306e-09
-2.55577e-10
5.50882e-10
8.25162e-09
-3.40597e-09
-3.10729e-09
2.50055e-09
-1.0838e-09
6.80919e-10
1.16856e-09
-7.6568e-10
5.8116e-10
-1.31102e-10
5.33296e-09
-5.78302e-09
-4.81792e-10
7.27797e-10
-2.17287e-09
1.92686e-09
1.47056e-09
-3.84432e-09
3.72517e-09
-1.3514e-09
1.43377e-09
-1.21928e-09
2.80588e-09
2.78824e-09
-3.57147e-09
3.76727e-09
-2.98404e-09
4.59956e-09
8.99887e-09
-2.77829e-09
-1.08201e-08
-2.06219e-09
-2.43084e-09
2.97614e-09
1.51689e-09
1.20459e-09
4.22067e-09
-2.8549e-09
-2.57037e-09
1.05928e-10
-1.87887e-10
-1.87892e-09
1.96088e-09
3.03291e-09
3.59379e-09
-4.00862e-09
3.47597e-10
-9.16371e-10
5.3718e-09
-4.80303e-09
3.20715e-10
3.00378e-09
3.58146e-10
-3.68264e-09
2.99333e-09
-2.72158e-09
-2.63761e-09
-6.17587e-09
-5.67255e-09
6.14196e-09
8.86112e-11
1.51154e-10
-5.08129e-11
-1.88953e-10
7.59046e-09
-1.46442e-09
-6.26538e-10
-5.4995e-09
-5.24499e-09
-1.11976e-09
7.10018e-10
5.65474e-09
4.27838e-09
-4.73856e-09
-3.93627e-09
4.39645e-09
2.23331e-09
-4.04677e-09
-3.08438e-09
3.86497e-09
-4.1059e-09
-1.29768e-09
4.09088e-09
3.30889e-09
-4.1597e-09
4.41486e-09
-3.55486e-09
-6.15958e-09
5.29958e-09
1.73863e-09
-3.90515e-09
3.63709e-09
-5.08781e-09
-3.06177e-09
2.24873e-09
-2.20411e-09
7.90525e-10
1.48845e-09
-7.48685e-11
-3.64754e-09
-2.56429e-09
4.30595e-09
1.90588e-09
2.38608e-09
-3.27442e-09
3.494e-09
-2.60566e-09
2.4643e-10
-2.495e-10
2.21977e-10
-2.18906e-10
-4.11803e-09
4.06982e-09
-3.7709e-09
3.8191e-09
7.71831e-09
1.4853e-09
-2.82875e-09
-6.37487e-09
-3.25911e-09
2.28023e-09
-3.38831e-09
4.36718e-09
3.187e-09
-7.63545e-09
9.08672e-09
1.29239e-10
-5.39494e-10
-2.47029e-09
2.88055e-09
-3.47391e-10
4.36595e-09
-4.26547e-09
2.46918e-10
5.39982e-09
-4.36186e-09
-7.10688e-10
-3.27272e-10
-1.61665e-09
-4.03373e-09
2.20355e-09
3.44683e-09
-6.14185e-09
-6.86273e-10
6.82812e-09
-1.62707e-09
2.62919e-10
1.48202e-09
-1.17869e-10
-8.75164e-10
-4.36694e-09
7.32596e-10
4.50951e-09
-3.68464e-09
-4.08521e-09
4.42914e-09
3.34071e-09
-4.24035e-09
-4.46957e-09
2.78315e-09
5.92677e-09
5.12448e-09
-5.50107e-09
7.55266e-09
-7.17607e-09
1.00268e-09
-4.82048e-09
4.83247e-09
4.67181e-09
-4.43455e-09
4.70793e-09
-2.36647e-10
-2.24196e-10
2.33608e-10
2.27235e-10
-4.43277e-09
4.32752e-09
1.00638e-10
4.60454e-12
5.68008e-09
-5.25686e-09
4.78686e-10
-9.01911e-10
5.74188e-09
-5.25567e-09
5.25859e-10
-1.01207e-09
5.5602e-09
-5.14645e-09
4.69722e-10
-8.83475e-10
3.03536e-09
-3.77937e-09
-7.60548e-13
7.44769e-10
-4.9623e-09
4.96276e-09
-8.13249e-11
8.08657e-11
2.94918e-09
-3.15671e-09
3.10475e-09
-2.89722e-09
-4.17959e-10
4.12106e-09
6.7111e-10
-4.37421e-09
2.27066e-10
-2.60844e-10
2.32857e-10
-1.99079e-10
-1.27894e-08
1.4255e-08
-6.87638e-09
5.41082e-09
5.01816e-09
-5.54651e-09
-2.45415e-12
5.30802e-10
-2.78427e-09
-3.06269e-09
2.31531e-09
3.53166e-09
2.43376e-09
-1.52264e-09
2.66767e-09
-3.57879e-09
-7.88518e-09
-8.31328e-09
8.4187e-09
7.77977e-09
2.90891e-09
-3.21884e-09
7.74105e-09
-9.16944e-09
-6.46888e-09
7.89727e-09
-2.44682e-09
2.32581e-09
-3.08914e-09
3.21014e-09
-1.18526e-10
1.74381e-10
-6.43504e-09
5.11161e-09
-1.84007e-10
1.50744e-09
3.95612e-09
-2.13328e-09
1.92604e-09
-3.74888e-09
-3.30098e-09
4.44235e-09
2.72843e-09
-3.8698e-09
-3.13559e-09
8.28078e-11
3.69951e-10
2.68283e-09
4.8572e-09
-8.38857e-10
-4.89351e-09
4.56363e-09
-4.15381e-09
-3.36818e-09
2.95837e-09
-4.498e-09
5.13136e-09
2.36023e-11
-6.56967e-10
-4.57578e-09
5.24179e-09
2.89776e-11
-6.9499e-10
-3.33404e-09
4.14686e-09
8.1896e-10
-1.63177e-09
-3.39561e-09
3.78779e-09
-2.84518e-09
2.453e-09
6.04609e-10
7.38654e-09
-7.99115e-09
-2.00688e-10
-3.74724e-09
-2.07054e-10
-5.4697e-10
2.82685e-09
9.35747e-10
-3.21563e-09
2.87194e-10
-3.06377e-10
2.37307e-09
-5.95659e-10
6.65025e-10
-2.44243e-09
4.97158e-09
-6.19388e-11
5.31205e-11
4.81995e-09
-4.78615e-09
1.93054e-11
-5.31083e-11
4.50971e-09
-4.38253e-09
1.08947e-11
-1.38075e-10
3.53065e-09
-3.42906e-09
-3.16951e-09
3.06792e-09
2.04445e-10
-1.6354e-10
-2.04152e-10
1.63247e-10
4.00318e-09
1.5817e-09
-2.46797e-11
4.14415e-09
1.61885e-09
-2.11235e-11
4.08865e-09
1.61711e-09
-2.56802e-11
-4.74574e-09
5.95295e-09
-1.29287e-09
8.56619e-11
5.44631e-09
-5.33247e-09
-2.87442e-10
1.73599e-10
-1.23592e-09
1.323e-09
7.30316e-10
-8.17399e-10
-2.27173e-09
-4.64159e-09
3.63898e-09
3.27434e-09
-5.39995e-09
4.66428e-09
9.86342e-10
-2.50672e-10
6.79897e-09
6.53305e-11
-1.41799e-09
3.56808e-09
3.03129e-09
-2.54014e-09
-4.05923e-09
-4.41109e-09
2.44201e-10
4.2261e-09
-5.92149e-11
4.97161e-09
-4.97223e-09
-2.35565e-12
2.98031e-12
-4.37239e-09
4.38473e-09
-4.44387e-11
3.20999e-11
-4.43518e-09
4.44759e-09
-4.53264e-11
3.29178e-11
-4.28095e-09
4.29318e-09
-4.33848e-11
3.11551e-11
1.56855e-09
-1.69526e-10
4.07102e-09
3.35995e-09
-5.37704e-09
-2.05394e-09
5.06483e-09
-4.63658e-09
-2.80352e-10
-1.47896e-10
-4.42398e-09
4.03274e-09
2.62456e-09
-6.08649e-09
5.70173e-09
-1.5388e-10
5.3864e-10
-4.67196e-09
-1.12459e-09
2.50042e-10
-1.57045e-09
-7.97776e-10
1.13231e-09
5.40855e-09
-5.92617e-10
-3.06224e-10
5.2872e-09
-5.29306e-09
8.73547e-12
-2.87752e-12
-4.95781e-09
4.97017e-09
-5.18284e-11
3.94672e-11
-4.41288e-09
4.36795e-09
-1.41689e-10
1.86619e-10
-4.47657e-09
4.43106e-09
-1.43383e-10
1.88896e-10
-4.32003e-09
4.27614e-09
-1.39335e-10
1.83227e-10
3.89309e-09
-3.98504e-09
-5.9124e-10
6.83187e-10
6.14492e-09
1.64119e-10
-1.48909e-09
2.83338e-09
-3.46281e-09
3.01551e-09
-3.13976e-09
2.43813e-09
2.98186e-09
5.96934e-09
-5.11543e-09
-5.68715e-11
-7.97032e-10
4.85873e-09
3.73733e-10
-1.33938e-09
7.2409e-09
-7.11149e-09
-7.68721e-10
6.39315e-10
4.27324e-09
-4.35408e-09
-6.69491e-11
1.47794e-10
-1.39424e-11
-6.7514e-11
3.56085e-09
-3.66456e-09
-1.99033e-10
3.02747e-10
3.61035e-09
-3.71575e-09
-2.00999e-10
3.06406e-10
3.4868e-09
-3.58804e-09
-1.95395e-10
2.96633e-10
5.72235e-10
3.79115e-10
-6.03864e-09
-4.4492e-09
5.08797e-09
-7.20294e-10
8.15184e-11
-4.51004e-09
5.15981e-09
-7.33514e-10
8.37512e-11
-4.35635e-09
4.98139e-09
-7.04551e-10
7.95099e-11
-5.14889e-09
5.49256e-11
-1.34108e-09
5.28737e-09
-1.4177e-09
-4.97924e-09
-3.53479e-09
-2.99021e-09
3.79008e-09
2.73492e-09
4.0951e-10
-1.57704e-10
-4.97459e-10
2.45654e-10
2.66451e-09
-4.40336e-09
5.2695e-09
1.22875e-09
-6.19565e-11
3.93328e-09
-5.56725e-11
2.11049e-10
3.98515e-09
-5.29196e-11
2.11918e-10
3.85146e-09
-5.43434e-11
2.06063e-10
5.03006e-09
-1.12978e-10
5.44944e-11
-2.9039e-10
1.71568e-10
1.09398e-09
6.04231e-11
-4.24136e-09
-1.6543e-10
-8.48873e-10
4.95384e-09
-4.94984e-09
6.19352e-12
-1.01881e-11
-4.34324e-09
1.66533e-10
-9.69747e-10
-4.43585e-09
1.68572e-10
-9.89577e-10
6.43862e-09
-5.49134e-09
5.8851e-11
-1.00614e-09
-4.95754e-09
4.96082e-09
5.90639e-12
-9.18973e-12
-6.50889e-10
1.46006e-10
-6.77182e-10
1.52294e-10
-6.65221e-10
1.49301e-10
-4.38644e-09
4.40061e-09
-1.41448e-11
-2.53151e-14
-4.4494e-09
4.46384e-09
-1.45018e-11
6.96571e-14
-4.29483e-09
4.30863e-09
-1.37062e-11
-9.43242e-14
-5.50582e-09
5.4316e-09
-1.43242e-10
2.17459e-10
-3.993e-09
4.41611e-09
-4.89155e-10
6.60472e-11
6.22699e-09
3.50293e-09
-6.16184e-09
2.79236e-09
3.40257e-09
-3.52274e-09
-2.67219e-09
-4.73328e-09
4.76136e-09
-2.59544e-11
-2.12663e-12
-4.65121e-10
2.3564e-09
-4.01325e-09
4.34497e-09
-1.33435e-11
-3.18381e-10
5.31699e-09
-4.75438e-09
-3.00298e-11
-5.32579e-10
-4.22272e-09
4.25607e-09
-4.55974e-11
1.22458e-11
5.07091e-09
7.6198e-10
-1.3116e-10
4.10764e-09
-4.12597e-09
-1.00246e-10
1.18574e-10
5.64654e-09
-4.79693e-09
5.80542e-11
-9.0767e-10
3.20502e-09
-4.00715e-09
3.60105e-09
-2.79893e-09
-4.30427e-09
5.00741e-09
2.15401e-10
-9.18541e-10
6.39954e-09
1.78307e-09
-4.41657e-09
-3.76603e-09
-4.60292e-09
4.62129e-09
3.85974e-12
-2.22319e-11
-5.18849e-09
4.99851e-09
-5.61464e-11
2.46131e-10
-8.08343e-10
4.15933e-09
5.16457e-10
-3.86745e-09
-1.15541e-09
6.14875e-09
-1.5557e-10
3.70854e-09
-2.71437e-09
3.48757e-09
-4.48173e-09
2.91494e-09
-4.30297e-09
3.49823e-09
-2.11021e-09
-4.51863e-09
-1.957e-10
-6.30945e-10
4.60762e-10
4.07229e-09
5.13192e-09
-4.3382e-09
-4.7993e-11
-7.45724e-10
-5.44295e-09
5.29656e-09
-1.02776e-10
2.49172e-10
-2.60127e-10
2.12795e-10
4.73321e-11
3.39171e-09
-3.55376e-09
4.2135e-12
1.57838e-10
4.48022e-09
-4.24026e-09
1.86509e-10
-4.2647e-10
-3.66315e-09
-3.09598e-09
2.6411e-09
5.86292e-09
-5.90062e-09
-3.88883e-11
7.65897e-11
-4.47341e-09
-4.69906e-11
2.24045e-11
-1.49023e-10
9.04354e-11
1.43664e-10
-8.5076e-11
6.82223e-09
-5.44033e-09
1.97629e-10
-1.57953e-09
4.78598e-09
7.1356e-11
-5.84098e-10
-5.0182e-09
5.50688e-09
3.20806e-11
-5.20765e-10
4.62247e-09
-9.69433e-10
-1.66238e-10
4.78846e-09
-1.0029e-09
-1.75212e-10
4.72113e-09
-9.89138e-10
-1.71143e-10
5.22239e-09
-5.40341e-09
4.52258e-10
-2.7124e-10
-4.76712e-10
1.07942e-10
-1.77419e-10
5.46189e-10
-4.5239e-09
-9.21263e-11
4.02461e-11
6.35341e-10
-1.92076e-09
-6.32858e-10
1.91827e-09
-3.64314e-09
4.28069e-09
2.55959e-10
-8.93513e-10
2.96506e-09
-1.40728e-09
-1.55777e-09
-4.01195e-10
4.23874e-09
7.60561e-10
-4.59811e-09
5.88213e-09
-5.89027e-09
-1.25671e-11
2.07045e-11
-6.14097e-09
5.97584e-09
-9.01333e-11
2.55261e-10
-3.87785e-09
3.9904e-09
4.51067e-10
-4.78891e-09
-4.40864e-10
2.11578e-10
4.62638e-09
1.58058e-10
-4.20328e-09
-2.43191e-09
2.40403e-09
3.09928e-09
-5.96731e-09
-1.33847e-09
1.94288e-10
2.37049e-10
-1.39351e-10
-5.94423e-09
7.06476e-09
1.90827e-10
-1.31136e-09
3.25027e-09
-3.63637e-09
7.8651e-11
-8.41699e-10
-3.22199e-09
4.77e-10
4.62154e-09
3.96027e-11
-8.48671e-11
4.22048e-09
-4.23137e-09
1.8162e-11
-7.27411e-12
5.98305e-09
-2.5248e-10
-5.23607e-09
-4.94501e-10
5.15867e-09
-2.36543e-10
-4.52653e-09
-3.95597e-10
5.27239e-09
-2.39598e-10
-4.62476e-09
-4.08025e-10
5.35289e-09
-2.40824e-10
-4.69356e-09
-4.18506e-10
6.6152e-09
-2.61377e-10
-5.77503e-09
-5.78798e-10
6.06176e-09
-1.26744e-09
2.70506e-10
4.59095e-09
-4.55184e-09
-7.75375e-11
3.84293e-11
4.18731e-09
-7.91492e-11
1.13362e-09
4.09841e-09
-7.9111e-11
1.11206e-09
-2.05308e-10
1.98842e-10
-4.4263e-09
-7.28174e-09
1.04112e-09
1.83693e-10
6.05693e-09
4.96754e-09
-1.80068e-12
5.87134e-12
-4.24222e-09
4.24392e-09
5.7639e-12
-7.46764e-12
2.88896e-09
-3.25615e-09
3.73462e-09
-3.36743e-09
5.21576e-09
-5.17771e-09
-8.64001e-11
4.83531e-11
-4.60619e-09
-5.765e-12
9.03472e-12
-4.15218e-10
4.32915e-09
-5.04538e-10
4.77218e-09
-4.7539e-09
-1.96549e-11
1.37873e-12
-2.48621e-10
7.67905e-11
-1.79146e-10
4.81581e-10
-1.84446e-10
4.96329e-10
-1.82296e-10
4.90543e-10
-7.14566e-10
-6.4508e-11
4.87749e-09
-7.30647e-10
-6.61455e-11
4.98411e-09
-5.21369e-09
5.17059e-09
-1.78604e-10
2.21706e-10
5.09799e-09
5.63095e-11
-8.33854e-11
9.87674e-11
-3.03296e-10
-4.06095e-09
4.15844e-10
9.16915e-10
-4.79095e-09
3.79968e-11
7.397e-10
1.01411e-09
-2.56588e-10
1.1265e-09
2.66854e-10
1.16722e-09
2.76831e-10
1.15112e-09
2.7229e-10
2.70283e-09
-2.64726e-09
-3.52346e-09
3.16972e-09
-2.99961e-09
3.35335e-09
-6.77385e-09
-8.09505e-10
6.32509e-09
1.25826e-09
-5.39919e-09
5.45451e-09
-5.78391e-11
2.5205e-12
-1.19767e-11
9.91254e-12
-2.45288e-10
-4.52822e-09
-7.97385e-11
7.4925e-11
-8.19133e-11
7.77937e-11
-8.09876e-11
7.65504e-11
5.76568e-09
-5.77257e-09
-8.75519e-11
9.4434e-11
3.90752e-09
-3.6162e-09
-3.14767e-09
2.85635e-09
-4.32713e-09
-4.72798e-10
-2.47212e-11
4.82465e-09
-1.09778e-09
2.51539e-10
4.17778e-09
-3.44013e-09
-5.06777e-09
5.56999e-09
-8.3697e-10
3.3475e-10
4.53195e-09
-8.37517e-10
-3.02723e-10
4.6596e-09
3.21538e-11
-7.0465e-11
3.18527e-09
-3.63204e-09
-3.07669e-09
-1.01587e-10
1.32403e-10
-9.8594e-11
6.7778e-11
-4.40434e-09
4.46434e-09
-8.26026e-11
2.2601e-11
-4.46767e-09
4.52852e-09
-8.38237e-11
2.29768e-11
-4.31225e-09
4.37099e-09
-8.08504e-11
2.21055e-11
-3.75605e-09
4.1441e-09
2.97882e-09
-3.36686e-09
-3.31006e-09
-2.07087e-09
4.37367e-09
-1.74215e-11
7.7567e-10
-3.75898e-10
6.03584e-10
-2.12875e-10
3.90365e-09
8.80979e-10
-4.57176e-09
1.73647e-09
-2.96687e-11
1.1551e-09
6.99683e-10
4.12143e-09
-1.73949e-10
1.36951e-09
3.96831e-09
-2.12925e-11
1.06039e-09
-3.28439e-11
1.10074e-10
2.69967e-10
-3.47197e-10
-5.91538e-09
-7.27182e-10
-4.91119e-12
6.64747e-09
-1.61684e-10
6.69059e-11
-5.26963e-09
5.29179e-09
-5.9882e-12
-1.61673e-11
4.46331e-09
-9.77327e-11
1.28097e-09
-5.13027e-10
8.97743e-11
-4.83868e-10
3.92656e-09
-4.72605e-09
1.28336e-09
-3.92961e-09
4.00098e-09
-7.02312e-10
-2.25212e-10
4.31836e-09
4.24386e-09
-5.25797e-09
4.39646e-09
-3.38235e-09
5.53827e-09
-1.10947e-09
-3.21163e-10
1.23844e-09
-6.97665e-11
6.98923e-10
3.04867e-12
3.84476e-09
-5.03821e-09
1.8388e-09
-6.45347e-10
-2.48985e-09
-6.25778e-09
6.15541e-09
2.59222e-09
-4.9424e-09
4.93644e-09
-1.93806e-12
7.89658e-12
-5.3343e-09
1.90881e-09
5.43024e-09
1.61468e-10
-7.71019e-11
8.13187e-11
-1.65685e-10
-6.07068e-09
-2.99723e-09
6.57805e-09
-4.41148e-09
3.82653e-09
7.81176e-10
-1.96232e-10
-4.25784e-09
3.69429e-09
7.52984e-10
-1.89432e-10
-4.34889e-09
3.77298e-09
7.6945e-10
-1.93531e-10
-3.80974e-09
-3.05732e-10
-5.20551e-10
-2.52381e-09
-2.32265e-09
-2.12737e-09
-5.15441e-09
2.8578e-09
5.55355e-09
-1.48395e-09
1.15278e-09
-3.2636e-09
-3.47133e-09
3.98373e-09
1.21374e-10
1.81273e-10
-1.41178e-10
-4.24981e-09
-1.42572e-12
9.0129e-12
-2.37087e-10
-1.73247e-11
-7.8749e-09
5.96633e-09
-4.2673e-09
-4.20077e-09
4.69825e-09
-4.86629e-10
-1.08528e-11
-4.71653e-09
5.29551e-09
-5.60491e-10
-1.84919e-11
-4.37952e-09
4.15964e-09
4.49826e-09
2.77273e-09
-2.2113e-09
1.67757e-10
-5.96893e-11
1.75276e-10
2.38383e-10
-2.09214e-10
-5.3963e-09
6.18299e-09
-7.8458e-10
-2.10815e-12
4.87846e-09
-5.54601e-09
-1.10232e-10
2.38661e-10
3.23368e-09
-4.29799e-09
3.93032e-09
-2.866e-09
-4.91072e-09
5.61591e-09
-7.02226e-10
-2.96339e-12
-6.55956e-09
6.76724e-09
-8.08258e-09
-1.37602e-12
7.63869e-12
5.06425e-09
-9.75736e-11
1.47195e-09
-2.1368e-10
-5.62938e-11
1.59101e-11
-1.75578e-11
1.68601e-11
-1.86759e-11
1.64583e-11
-1.81689e-11
-4.77182e-09
-1.09282e-09
4.13758e-10
5.45245e-10
1.0696e-11
9.32294e-10
-8.49954e-12
-6.37522e-11
-2.71192e-10
1.15094e-11
-6.98308e-14
3.48903e-09
3.13756e-09
-2.42206e-09
-4.20454e-09
-5.74792e-09
6.47071e-09
-7.38718e-10
1.59332e-11
3.9141e-09
2.18999e-09
-2.14797e-09
4.33871e-09
2.15287e-11
-1.52629e-11
5.49955e-10
3.22583e-10
-9.64391e-11
6.31907e-11
4.15534e-09
3.41961e-09
-3.39716e-09
-9.10408e-13
1.09087e-11
-2.13722e-09
1.76341e-09
3.20718e-09
2.6432e-09
4.97249e-10
-3.14044e-09
-4.31401e-09
3.68578e-09
8.47105e-10
-2.18875e-10
1.5217e-11
-1.88334e-11
1.57316e-11
-1.95641e-11
1.55424e-11
-1.92766e-11
1.94955e-10
-2.5469e-10
-4.68406e-09
4.06177e-09
8.29203e-10
-2.06914e-10
-5.10389e-09
9.8647e-10
-1.40418e-10
-5.28882e-09
1.02253e-09
-1.45192e-10
-5.21318e-09
1.0076e-09
-1.43315e-10
4.61656e-09
-7.28478e-11
4.72379e-11
3.67446e-09
-7.48164e-10
-4.93254e-09
2.00624e-09
-5.15859e-09
4.47099e-09
9.14846e-10
-2.27242e-10
1.28795e-10
4.43635e-10
-1.91481e-10
-1.81273e-10
2.09214e-10
4.79136e-09
-6.61643e-11
4.69792e-11
1.13042e-09
-3.75312e-09
-9.84172e-10
-5.62796e-13
1.15425e-11
-3.04721e-11
3.12981e-12
4.6624e-09
-4.97402e-09
3.80986e-10
-6.93665e-11
-8.56004e-09
4.36918e-09
7.41874e-09
5.25321e-09
-1.1053e-10
7.30756e-11
-4.63358e-09
-1.00478e-10
6.20962e-11
-4.94456e-09
-2.3241e-10
-9.26639e-11
5.81998e-10
-2.5742e-10
6.8139e-11
-1.68111e-10
6.64146e-11
-2.02145e-10
4.19136e-09
1.71902e-11
1.19302e-11
5.19173e-12
2.26691e-12
8.07104e-11
-2.00064e-10
2.77716e-10
-2.75179e-10
3.35599e-09
3.3706e-09
-3.01806e-09
9.31011e-11
-2.3619e-10
1.20686e-11
4.69871e-10
-4.17377e-10
-6.45627e-11
4.07571e-11
-5.01664e-11
1.17454e-09
-1.93039e-10
5.73271e-09
-5.23842e-12
3.82152e-11
4.1607e-09
-4.3376e-09
4.24672e-09
1.08523e-09
-1.53382e-10
5.26379e-09
4.0408e-10
1.92259e-09
4.98324e-10
-1.25458e-11
9.70104e-11
-1.04132e-10
7.72992e-12
-9.00167e-12
2.62929e-09
1.50161e-09
-2.15494e-09
-1.97596e-09
-7.28215e-09
8.51481e-09
7.46306e-09
-8.69573e-09
4.26186e-10
-3.91827e-10
-2.22901e-11
-1.43639e-12
1.39885e-11
-5.71511e-09
5.43518e-09
5.51766e-10
-2.71831e-10
7.27768e-11
-8.79894e-11
1.19008e-09
-1.65678e-10
2.29904e-10
2.81419e-10
-2.77716e-10
-5.0521e-09
5.69152e-09
-1.18396e-09
5.44552e-10
-6.31149e-09
-9.67429e-10
1.58474e-09
5.69418e-09
1.78587e-10
-3.8116e-10
-4.72762e-09
2.75576e-09
4.99814e-09
-3.02628e-09
3.6516e-09
-1.22172e-10
1.16883e-09
-2.45354e-09
2.73532e-09
-6.53955e-09
2.24502e-09
4.60655e-09
-2.91435e-09
-3.93723e-09
-2.07728e-11
3.23501e-11
3.93139e-09
-4.21719e-09
-3.22635e-09
3.51215e-09
4.28031e-09
-3.72322e-10
5.16905e-09
-1.20048e-10
1.4217e-09
-5.40401e-09
3.3811e-09
3.24248e-09
-1.21957e-09
3.98866e-09
-3.43287e-11
-3.02729e-10
3.71397e-09
-3.42609e-09
2.7991e-09
-3.08698e-09
-4.20424e-09
7.89087e-10
-1.63695e-09
2.71218e-09
-2.80464e-09
1.7221e-09
-2.57213e-10
-1.72498e-09
2.60094e-10
3.91732e-09
3.08986e-09
-2.84453e-09
-4.16265e-09
-7.20521e-09
2.57465e-09
-2.41877e-09
-4.15761e-09
-2.96492e-09
4.04349e-09
3.07904e-09
4.87066e-09
-3.45425e-09
2.07262e-09
4.39198e-09
4.20571e-09
-2.6615e-09
-2.39937e-09
1.99818e-09
5.75434e-09
-3.35686e-12
-5.81938e-10
-4.01933e-09
5.4688e-10
-5.38093e-09
1.09587e-10
5.20733e-09
6.40168e-11
-3.61608e-09
2.917e-09
-2.45763e-09
2.37676e-10
-3.34009e-10
3.23568e-10
2.01223e-09
-2.88263e-09
-1.66173e-10
-4.60459e-09
3.59675e-10
3.07106e-10
-3.98966e-09
-5.74601e-09
4.8769e-09
-2.18975e-09
3.05886e-09
2.36771e-09
-2.26895e-09
-2.7702e-09
-5.95586e-09
7.02594e-09
1.70012e-09
2.314e-09
4.12178e-12
-3.58923e-11
4.57956e-10
-2.44044e-09
-6.17145e-09
5.85207e-09
2.75982e-09
9.20224e-10
3.55196e-09
-3.46412e-09
-1.00806e-09
-5.83072e-09
-2.6935e-09
-1.17317e-09
-7.24763e-09
5.94451e-09
2.4763e-09
-1.91513e-09
1.33881e-09
1.12989e-09
-3.80751e-09
5.08297e-09
-2.40535e-09
1.48282e-09
-1.48923e-09
-3.21584e-09
1.29856e-10
-5.49363e-09
9.50458e-10
4.41332e-09
-3.06833e-09
3.86308e-09
-4.47939e-09
-4.55842e-09
1.74692e-09
3.94138e-09
3.77263e-09
4.0045e-09
-4.7292e-09
-3.04793e-09
5.98365e-10
-3.39483e-09
2.32489e-10
-7.14497e-10
-3.41379e-09
3.40321e-09
-3.83325e-09
3.84383e-09
2.26956e-09
-3.01808e-09
-1.68232e-09
-3.8177e-09
-2.89515e-09
4.44113e-09
-2.64646e-10
6.01539e-09
7.09176e-10
-6.45992e-09
2.64726e-09
-2.71218e-09
-3.69471e-09
-3.32921e-09
3.57868e-09
-5.78275e-09
5.53328e-09
5.8674e-09
-4.22272e-09
-5.72988e-09
-3.42641e-09
3.27564e-09
4.54275e-09
-4.12437e-09
9.84108e-11
4.17546e-09
-1.49508e-10
3.25714e-09
7.47237e-10
-3.60936e-09
-3.95017e-10
6.22252e-09
-2.83731e-09
-3.06762e-09
3.45015e-09
-1.98034e-09
-5.70865e-09
9.15142e-10
3.80923e-10
4.91052e-09
-1.12668e-09
5.12392e-09
-4.19619e-09
2.11914e-09
-3.04687e-09
-4.58002e-10
2.48894e-10
-9.67731e-09
2.73791e-09
-1.70431e-09
8.64371e-09
-3.07856e-09
3.41461e-09
8.72234e-11
-1.46216e-09
-5.91977e-09
7.29471e-09
7.68442e-11
-5.37619e-09
-1.31963e-09
6.61897e-09
6.20074e-11
-1.13229e-09
-4.6604e-09
5.73068e-09
6.51444e-11
-1.17594e-09
-4.82965e-09
5.94044e-09
6.36654e-11
-1.15742e-09
-4.76027e-09
5.85402e-09
4.25503e-09
-4.12693e-09
8.4156e-11
-2.12257e-10
4.40883e-09
-4.27534e-09
8.73359e-11
-2.20831e-10
4.34614e-09
-4.21503e-09
8.60886e-11
-2.172e-10
2.44094e-09
-2.45923e-09
3.74721e-09
-3.72893e-09
-3.33486e-09
-4.20418e-09
4.47142e-09
3.44535e-10
-3.95443e-09
-3.32408e-11
-3.48855e-09
6.79926e-10
-9.4946e-10
3.75809e-09
4.92593e-10
3.95856e-09
-2.57323e-09
2.67288e-09
-2.98178e-10
4.50677e-09
-4.42146e-09
3.81599e-09
-4.01592e-09
4.29082e-09
-5.48219e-10
-2.94038e-09
2.83283e-09
6.55768e-10
-3.79418e-09
4.04944e-09
-6.56451e-10
2.06408e-09
-5.60652e-09
7.89882e-09
-4.35639e-09
4.91071e-10
-6.00311e-09
4.52551e-11
4.21293e-09
6.00541e-10
7.96493e-09
-7.17158e-09
-3.18912e-09
-2.99028e-09
-6.09293e-09
2.72929e-09
8.22739e-09
-1.79942e-10
-8.46326e-09
4.1582e-10
-9.12005e-10
-4.04565e-09
1.16347e-09
9.00466e-11
-1.6675e-10
-8.21794e-11
1.58883e-10
3.06604e-10
5.21074e-09
1.09645e-09
-6.6138e-09
-2.08264e-09
4.6304e-11
2.39271e-09
-3.56369e-10
-1.8384e-09
2.78058e-09
3.60475e-09
-3.07645e-09
-3.76133e-09
-6.60815e-10
6.85655e-11
4.35358e-09
-2.36473e-10
-3.30837e-10
3.36715e-10
-1.30686e-09
-3.92009e-09
1.38263e-09
7.0396e-09
-2.53803e-09
-6.49424e-09
1.99266e-09
5.2433e-09
4.01413e-10
-6.64138e-09
9.96668e-10
2.59479e-09
7.07956e-10
-3.30274e-09
-3.57049e-09
7.0322e-09
2.84852e-09
-6.31023e-09
-2.29276e-10
1.59169e-10
4.33572e-09
3.03939e-09
-3.29585e-09
-4.07926e-09
4.30366e-09
-6.28399e-09
-2.33459e-09
5.24297e-10
2.80395e-09
-9.93658e-10
4.43414e-09
-4.13756e-09
1.33064e-10
-4.2965e-10
-3.10762e-09
3.69318e-09
5.06672e-09
-5.65228e-09
-2.90123e-09
3.60739e-09
4.7984e-09
-5.50456e-09
-3.42907e-09
4.01639e-09
5.61997e-09
-6.20729e-09
-2.7804e-09
3.35624e-09
4.50386e-09
-5.0797e-09
6.73682e-10
-4.41115e-09
4.61315e-09
-8.7568e-10
-3.74805e-09
4.48303e-09
6.28835e-09
-7.02333e-09
3.9498e-09
4.60319e-09
-4.07586e-09
-4.47713e-09
-3.04193e-09
7.05201e-09
3.02952e-09
-3.06792e-09
3.01806e-09
-3.11938e-10
3.31581e-10
1.69833e-10
-5.1505e-09
5.22088e-09
-2.40211e-10
1.6548e-09
-3.57043e-09
-1.95097e-09
3.8666e-09
6.50929e-09
-2.55877e-09
-6.48855e-09
4.67671e-09
-4.53618e-09
9.15849e-11
-2.32118e-10
3.25986e-10
6.73781e-10
-2.26432e-09
-3.32075e-09
3.01149e-09
2.57358e-09
4.26893e-09
-6.59206e-09
-4.35135e-09
6.67448e-09
-1.14584e-10
5.88577e-10
-1.01776e-11
-4.41463e-11
3.37988e-10
-2.83664e-10
-4.17404e-09
4.19801e-09
1.77347e-11
-4.17073e-11
-4.03137e-09
4.6324e-09
-4.47315e-09
5.24271e-09
2.60332e-09
-5.46719e-09
-2.37885e-09
3.59698e-09
5.59553e-09
-3.68863e-09
-3.76211e-09
4.37218e-09
-5.22453e-09
-5.81264e-10
1.31564e-09
4.49015e-09
-6.47358e-09
-6.77067e-10
1.49289e-09
5.65775e-09
-5.68231e-09
-6.89056e-10
1.46908e-09
4.90229e-09
-5.85306e-09
-6.31405e-10
1.4083e-09
5.07617e-09
-7.39598e-09
-8.32231e-10
1.7196e-09
6.50861e-09
9.38399e-10
-4.87154e-10
-6.16636e-09
-3.56624e-09
3.45298e-09
-4.59341e-09
4.70668e-09
-3.75141e-09
-1.28367e-09
-2.17954e-09
4.32799e-09
4.57802e-09
-6.72646e-09
3.97621e-09
-4.29535e-09
-2.94446e-09
5.8858e-10
4.11625e-10
-8.31234e-10
-1.68971e-10
2.38948e-09
5.66995e-09
-4.69445e-09
-5.00687e-09
-6.06551e-09
5.99001e-09
-1.79165e-11
9.34206e-11
6.02889e-09
-4.42184e-09
2.82209e-09
-4.29045e-09
-2.62637e-11
4.36367e-09
-4.696e-11
3.7399e-09
-4.78454e-10
-3.18279e-09
-3.13756e-09
3.29281e-09
6.18604e-09
1.54172e-09
-3.17572e-09
-4.55204e-09
6.4976e-09
1.37872e-09
-2.8293e-09
-5.04702e-09
2.67425e-09
-6.03186e-09
2.73291e-09
-1.81968e-09
-3.30457e-09
2.39134e-09
-3.34569e-09
-4.09755e-09
4.30568e-09
3.03518e-10
-6.10647e-09
4.15612e-09
1.64683e-09
1.44578e-09
3.0143e-10
4.00417e-09
2.99136e-10
-3.10442e-09
7.9443e-09
-4.82595e-09
-6.11558e-09
-2.53654e-09
-1.73083e-10
2.83886e-09
-6.60285e-10
1.3291e-09
5.94639e-09
-6.17405e-10
1.26413e-09
5.33633e-09
-5.68384e-10
1.18577e-09
4.7355e-09
-5.52843e-10
1.16075e-09
4.55076e-09
-5.62834e-10
1.1773e-09
4.65792e-09
-8.84597e-10
-9.3974e-10
-5.5956e-09
7.41994e-09
-2.83817e-09
2.69617e-09
2.01982e-10
-5.99873e-11
-3.67667e-09
7.29555e-10
3.20665e-09
-2.5953e-10
-4.04558e-09
4.27039e-09
6.08129e-09
-6.3061e-09
-3.17644e-09
3.47071e-09
4.71601e-09
-5.01028e-09
-3.24479e-09
3.53703e-09
4.82137e-09
-5.1136e-09
-3.29343e-09
3.58063e-09
4.89816e-09
-5.18537e-09
-3.67052e-09
3.93277e-09
5.48677e-09
-5.74902e-09
3.7463e-09
2.935e-09
-1.01135e-09
3.3205e-09
-4.32917e-09
4.72264e-09
5.73475e-09
-6.15483e-10
4.09078e-10
-5.52834e-09
4.59781e-09
1.55485e-10
-4.26223e-09
-3.8281e-09
-9.52337e-10
4.04136e-09
-6.03847e-09
-4.39977e-09
6.39688e-09
9.27305e-10
-5.10871e-09
-2.28416e-11
1.5642e-09
-6.13562e-10
-5.45621e-09
4.50558e-09
-1.27888e-10
-2.49681e-09
2.6247e-09
-3.17177e-09
-1.78571e-09
6.29731e-09
-5.68477e-09
-2.15484e-09
-3.08707e-09
3.77357e-09
1.46834e-09
3.48266e-09
-3.40478e-09
3.09184e-09
-5.46225e-09
8.83427e-10
4.77503e-09
-1.96201e-10
-2.96911e-09
1.11826e-09
-6.03558e-09
5.22392e-09
2.31107e-10
-1.0556e-08
-6.58297e-09
9.85686e-09
3.23813e-09
-2.84207e-09
3.58015e-09
1.11205e-09
3.29283e-09
3.5051e-09
-2.47067e-09
3.62137e-09
-4.6558e-09
3.04928e-09
1.13633e-08
-1.13394e-09
-1.32786e-08
-5.62262e-09
3.90053e-09
4.98722e-09
-1.42764e-09
1.52513e-09
3.38467e-09
-3.48217e-09
1.7372e-09
-2.9241e-09
5.77166e-09
7.40995e-10
9.57868e-10
-9.56363e-10
-7.425e-10
-5.44402e-09
-7.58615e-09
5.32777e-09
7.70241e-09