/*--------------------------------*- C++ -*----------------------------------*\
  =========                 |
  \\      /  F ield         | OpenFOAM: The Open Source CFD Toolbox
   \\    /   O peration     | Website:  https://openfoam.org
    \\  /    A nd           | Version:  8
     \\/     M anipulation  |
\*---------------------------------------------------------------------------*/
FoamFile
{
    version     2.0;
    format      ascii;
    class       surfaceScalarField;
    location    "7";
    object      phi;
}
// * * * * * * * * * * * * * * * * * * * * * * * * * * * * * * * * * * * * * //

dimensions      [0 3 -1 0 0 0 0];

internalField   nonuniform List<scalar> 
9048
(
7.01502e-09
-6.47789e-09
-3.31151e-09
2.77437e-09
-1.54592e-09
-1.37038e-09
1.73154e-09
1.18476e-09
8.66558e-09
-2.52688e-09
-6.5863e-09
4.47603e-10
-2.30077e-09
5.183e-09
1.19881e-09
-4.08105e-09
-4.66216e-09
-3.35605e-09
1.88186e-09
6.13635e-09
3.10604e-09
-2.20402e-09
6.32148e-09
-7.2235e-09
-2.54166e-09
1.93914e-09
1.96313e-09
-1.36061e-09
3.24139e-10
-2.7913e-10
-5.98359e-11
1.48275e-11
5.28952e-09
-3.85825e-09
3.36272e-09
-4.79399e-09
7.60931e-09
-3.61497e-09
-7.07642e-09
3.08208e-09
1.4499e-09
-5.59064e-09
4.09421e-09
4.65266e-11
5.73609e-09
-4.93692e-09
-2.55237e-09
1.75321e-09
-5.7644e-09
2.10563e-09
5.4635e-09
-1.80473e-09
4.82789e-09
4.31422e-09
-2.65223e-09
-6.48989e-09
6.71248e-09
-6.13457e-09
-2.85448e-09
2.27657e-09
-6.93554e-09
5.27713e-09
2.14792e-09
-4.89509e-10
-8.55142e-09
6.52552e-09
2.60172e-09
-5.75812e-10
8.47401e-09
-6.62827e-09
-3.0379e-09
1.19216e-09
7.69652e-09
-6.8228e-09
-3.29024e-09
2.41653e-09
6.27714e-09
-5.56493e-09
-2.7156e-09
2.00339e-09
-6.2175e-09
5.71026e-09
2.37168e-09
-1.86444e-09
-5.53464e-09
5.15074e-09
2.19092e-09
-1.80702e-09
5.64739e-09
-5.07066e-09
-2.31173e-09
1.73499e-09
6.41578e-09
-5.98125e-09
-3.07591e-09
2.64138e-09
-5.93935e-09
5.60925e-09
2.47018e-09
-2.14008e-09
-7.31494e-09
7.21477e-09
3.25091e-09
-3.15074e-09
5.48602e-09
-5.25503e-09
-2.57388e-09
2.34289e-09
5.56963e-09
-5.34156e-09
-2.67509e-09
2.44702e-09
5.69735e-09
-5.46324e-09
-2.73961e-09
2.5055e-09
6.84606e-09
-5.42485e-09
-2.40637e-09
9.85157e-10
7.66282e-09
-6.04706e-09
-2.83681e-09
1.22105e-09
5.89762e-09
-5.52738e-09
-2.74562e-09
2.37538e-09
-5.61782e-09
5.2782e-09
2.38898e-09
-2.04937e-09
6.59693e-09
-6.06274e-09
-2.99609e-09
2.46191e-09
7.48168e-09
-7.10407e-09
-3.70641e-09
3.3288e-09
7.29328e-09
-5.76618e-09
-2.61178e-09
1.08468e-09
7.00379e-09
-5.54075e-09
-2.50829e-09
1.04525e-09
7.12758e-09
-5.6381e-09
-2.55135e-09
1.06187e-09
-6.32885e-09
6.12023e-09
2.01541e-09
-1.8068e-09
-5.3838e-09
2.38552e-09
5.1385e-09
-2.14022e-09
-4.12779e-09
3.66089e-09
-3.47857e-09
3.94547e-09
7.91231e-09
-8.12683e-09
2.83833e-09
-2.62382e-09
3.00855e-09
-3.41908e-09
5.39153e-09
-4.981e-09
2.79293e-09
-3.21451e-09
4.94742e-09
-4.52584e-09
2.73573e-09
-3.15953e-09
4.86445e-09
-4.44065e-09
-3.89025e-09
-4.34808e-09
4.11055e-09
3.25873e-09
-3.80404e-09
5.71611e-09
-5.17081e-09
2.77963e-09
-3.19742e-09
4.83554e-09
-4.41774e-09
3.06976e-09
-3.47138e-09
5.39943e-09
-4.9978e-09
-3.29568e-09
2.79294e-09
5.44622e-09
-4.94348e-09
-1.65162e-09
1.56197e-09
-5.52672e-09
5.61637e-09
1.52413e-09
-1.80484e-09
-5.32836e-09
5.60907e-09
-8.31031e-09
3.07416e-09
-2.07813e-09
7.31428e-09
3.42715e-09
-3.36602e-09
-4.59501e-09
4.53388e-09
-2.82297e-09
3.28559e-09
2.73803e-09
-3.20065e-09
3.68326e-09
4.00931e-09
-3.65889e-09
-4.03368e-09
5.15789e-09
-6.5616e-09
2.75838e-10
1.12788e-09
-3.43604e-10
3.28666e-10
5.49499e-13
1.43887e-11
-3.9844e-09
-4.52384e-09
4.00343e-09
4.5048e-09
3.99937e-09
-5.2133e-09
-5.82594e-09
7.03988e-09
4.88067e-09
3.4322e-09
-4.65413e-09
-3.65874e-09
4.03058e-09
3.88563e-09
-4.19283e-09
-3.72339e-09
3.13609e-09
-3.98607e-09
-4.61088e-09
5.46087e-09
4.75642e-09
4.6501e-09
-4.9757e-09
-4.43082e-09
-2.31711e-09
2.35242e-09
3.61552e-09
-3.65083e-09
-4.70396e-09
-4.73568e-09
3.76193e-09
5.67772e-09
5.66791e-09
2.45749e-09
-2.44019e-09
-5.68521e-09
4.90857e-09
4.94889e-09
-4.33447e-09
-5.523e-09
3.52383e-09
-4.65333e-09
-5.10662e-09
6.23612e-09
-2.34104e-09
2.87116e-09
4.29777e-09
-2.20783e-09
2.28148e-09
2.49162e-09
-2.56527e-09
1.14342e-09
1.79249e-09
-1.60454e-09
-1.33137e-09
-1.00803e-09
6.16612e-09
2.78952e-09
-7.94761e-09
-4.18776e-09
-3.96232e-09
3.22945e-09
4.92063e-09
4.1877e-09
3.89003e-09
-4.28997e-09
-3.78776e-09
5.16429e-09
4.84627e-09
-5.30561e-09
-4.70496e-09
2.55422e-09
-1.15284e-09
7.37623e-10
-2.139e-09
-4.97765e-09
4.27167e-09
4.36688e-09
4.663e-09
-4.54042e-09
2.40379e-09
-2.52637e-09
4.18229e-09
-4.0891e-09
2.15451e-09
-2.24769e-09
3.75728e-09
6.1358e-09
-4.29151e-09
-5.60157e-09
2.11951e-09
6.00644e-09
-2.72209e-09
-5.40387e-09
6.79454e-09
-4.74209e-09
5.50589e-09
-7.55834e-09
-5.67021e-09
-3.88548e-09
4.64333e-09
4.91236e-09
4.16253e-09
-4.62563e-09
-4.91144e-09
-3.84269e-09
4.7961e-09
3.95802e-09
7.5642e-09
-4.8748e-09
-4.18047e-09
1.49106e-09
-5.13927e-09
3.59858e-09
-4.53902e-09
6.0797e-09
-4.72027e-09
-3.19372e-09
3.80535e-09
4.10865e-09
-4.90802e-09
-3.32647e-09
3.96556e-09
4.26893e-09
-4.80042e-09
-3.25074e-09
3.87368e-09
4.17748e-09
-4.62984e-09
-3.13079e-09
3.72999e-09
4.03064e-09
-1.2834e-11
-6.63157e-12
-4.57387e-09
-1.7931e-10
-2.80759e-10
5.03394e-09
3.47733e-09
-3.56856e-09
1.81352e-09
-1.72229e-09
4.01573e-09
1.9043e-09
-7.90762e-10
-5.12927e-09
-2.89395e-10
-7.26782e-09
6.65842e-09
8.98795e-10
-4.5795e-09
4.34214e-09
4.35605e-09
-4.11869e-09
-1.25485e-09
6.24929e-09
1.63453e-10
-4.55911e-09
4.9227e-09
4.14782e-09
-4.51141e-09
-5.45937e-09
3.81632e-09
-4.69895e-09
6.342e-09
-4.45731e-09
3.18747e-09
-4.10345e-09
5.37328e-09
3.88767e-09
8.49225e-09
-6.42964e-10
-1.1737e-08
-6.98408e-09
4.84449e-09
-5.06288e-09
7.20248e-09
7.0245e-10
3.41118e-09
-1.5594e-09
-3.55015e-10
2.33159e-11
3.32028e-10
-3.28493e-13
-4.22703e-09
-4.35798e-09
3.91822e-09
4.66679e-09
-4.73589e-09
-1.52972e-09
1.89911e-09
4.36651e-09
-4.05278e-09
6.06459e-09
2.89676e-09
-2.76536e-09
4.03708e-09
-4.63773e-09
5.06408e-09
5.48262e-09
-5.25718e-09
3.88372e-10
-3.46892e-10
-6.01842e-12
-3.5462e-11
-2.80664e-09
2.37532e-09
8.28517e-10
-3.97201e-10
5.48632e-09
5.44587e-09
-4.42466e-09
-6.50753e-09
2.73902e-09
-3.21914e-09
-1.16964e-09
1.64976e-09
2.68347e-09
-2.44258e-09
4.6378e-09
-4.87869e-09
-2.98617e-09
3.18119e-09
3.94725e-09
-4.14227e-09
5.96766e-12
-3.68784e-10
7.8007e-12
-4.22029e-09
1.28636e-11
4.48539e-09
-2.77968e-10
5.9913e-09
-4.22083e-09
4.51882e-09
-6.28929e-09
-5.19508e-09
5.22893e-09
2.17768e-09
-2.21154e-09
5.63954e-09
-4.35896e-09
5.02248e-09
-6.30305e-09
-4.45225e-09
1.26463e-09
-3.88005e-10
3.57563e-09
-5.04829e-09
4.78718e-09
-5.08999e-09
5.3511e-09
-6.07398e-09
4.31767e-09
-5.22766e-09
6.98397e-09
6.47551e-09
-5.90274e-09
6.59041e-09
-7.16319e-09
-5.38614e-09
4.96504e-09
-5.33087e-09
5.75196e-09
-6.72557e-09
4.7742e-09
-5.14545e-09
7.09682e-09
5.59422e-09
-4.56574e-09
5.77638e-09
-6.80486e-09
5.11493e-09
-4.77631e-09
4.87884e-09
-5.21746e-09
-5.51716e-09
4.87308e-09
-5.31355e-09
5.95763e-09
5.19482e-09
-4.68183e-09
4.96912e-09
-5.48211e-09
5.94685e-09
-4.75851e-09
5.97965e-09
-7.168e-09
5.00124e-09
-4.23152e-09
5.46721e-09
-6.23693e-09
4.88555e-09
-4.5251e-09
4.50078e-09
-4.86122e-09
1.57449e-09
-3.8314e-09
3.77193e-09
-1.51502e-09
6.08208e-09
-4.14066e-09
3.54021e-09
-5.48163e-09
5.45097e-09
5.43261e-09
-4.97871e-09
-5.90487e-09
-7.05413e-10
1.25483e-09
-3.28597e-09
2.73655e-09
5.59941e-09
5.42641e-09
-4.85783e-09
-6.168e-09
-4.96871e-09
-5.00463e-09
4.03139e-09
5.94195e-09
-4.85284e-09
-4.90874e-09
4.03044e-09
5.73114e-09
-4.60229e-09
-3.40667e-09
4.5583e-09
3.45066e-09
4.30787e-09
3.56756e-09
-4.46536e-09
-3.41007e-09
5.1588e-09
4.82752e-09
-4.79021e-09
-5.19611e-09
5.03081e-09
4.72872e-09
-4.65512e-09
-5.10442e-09
5.31242e-09
5.1834e-09
-4.77395e-09
-5.72186e-09
5.53747e-09
5.3877e-09
-4.99539e-09
-5.92978e-09
5.41326e-09
5.26543e-09
-4.8899e-09
-5.78879e-09
4.2573e-09
-4.67543e-09
-2.37295e-09
2.79108e-09
-5.9523e-09
4.57156e-09
-3.6545e-09
5.03524e-09
7.53389e-09
-5.54474e-10
-1.73183e-11
-6.9621e-09
-2.99332e-09
3.19959e-09
4.06856e-09
-4.27483e-09
5.73013e-09
-4.9715e-09
-9.79922e-10
2.21296e-10
3.83164e-09
1.23306e-09
-3.59601e-09
-1.46869e-09
6.62567e-09
-4.67464e-09
5.0356e-09
-6.98663e-09
-4.26235e-09
2.08463e-09
-8.72601e-10
3.05031e-09
5.72604e-09
-7.68662e-09
7.67355e-09
-5.71297e-09
-1.43968e-09
-2.28838e-09
2.45375e-09
1.27431e-09
2.58372e-09
-4.94594e-09
-2.24886e-09
4.61108e-09
-4.93207e-09
4.45513e-09
-4.67519e-09
5.15213e-09
3.57859e-11
3.53824e-11
-7.11683e-11
-2.62479e-09
-3.49173e-10
2.41766e-10
2.7322e-09
-1.72042e-09
2.9877e-09
-7.04027e-09
5.773e-09
3.03027e-10
9.1313e-11
-7.50816e-09
-4.97342e-09
8.80272e-09
3.67886e-09
-8.59924e-10
1.59112e-09
1.0522e-09
-1.7834e-09
1.26559e-09
1.26682e-09
-1.389e-09
-8.6051e-11
9.2081e-11
-2.64961e-10
2.58931e-10
-3.79005e-09
3.31283e-09
4.65589e-09
-4.17867e-09
-3.06573e-09
-8.994e-10
3.24181e-09
7.23326e-10
-1.9465e-09
3.36735e-09
-7.85341e-09
6.43256e-09
5.43248e-10
4.50599e-09
-4.75928e-09
-2.89954e-10
2.9832e-09
-3.34051e-09
4.12785e-09
-3.77054e-09
4.77617e-09
-1.11594e-09
-3.55386e-09
-1.06375e-10
5.3401e-09
6.65269e-10
-1.95546e-09
-4.0499e-09
2.53619e-09
-1.54581e-09
2.62149e-09
-3.61188e-09
4.97267e-09
-5.28612e-09
5.38351e-09
-5.07006e-09
-3.76248e-10
-4.78446e-11
3.97528e-10
2.6565e-11
5.57208e-09
-5.45382e-09
-4.81854e-09
4.70028e-09
-6.25706e-09
-3.95385e-09
5.01583e-09
-2.30036e-09
-5.64116e-09
4.98462e-09
2.9569e-09
-1.77374e-09
2.79195e-09
-5.9949e-09
4.97669e-09
4.0948e-09
-4.21731e-09
-4.03149e-09
4.154e-09
1.91542e-09
-9.62512e-10
-1.84958e-09
8.96672e-10
2.11866e-09
4.02036e-09
-2.12329e-09
3.67742e-09
-5.22528e-10
-4.24696e-09
1.09207e-09
-1.42379e-09
-2.53308e-09
1.23057e-09
2.7263e-09
-1.82576e-09
5.1802e-09
-5.00606e-09
-5.62799e-10
1.0416e-09
-3.02046e-09
2.86426e-09
-5.11683e-09
4.83628e-09
3.14399e-09
-3.38506e-09
-5.71123e-09
4.68695e-09
4.98329e-09
-4.05966e-09
-5.61058e-09
7.00449e-10
4.83281e-09
-5.35849e-09
-1.74769e-10
2.65406e-10
4.42047e-11
-1.99689e-10
-1.09921e-10
-2.63295e-09
-4.14283e-09
2.88901e-09
3.88677e-09
4.95271e-09
-3.36866e-09
-4.34941e-09
-2.89004e-09
1.28048e-09
-4.98954e-09
6.5991e-09
-3.28932e-09
3.2629e-09
2.43712e-09
-2.4107e-09
4.33744e-09
-3.20044e-09
-7.64871e-09
6.51171e-09
8.22707e-10
-5.43891e-10
9.86778e-10
-4.43338e-09
5.6617e-09
-6.23724e-09
5.00892e-09
-1.22195e-10
3.98159e-11
-2.64513e-10
-4.45185e-09
4.78651e-09
-5.99151e-09
5.65685e-09
-3.54657e-09
4.26586e-09
-5.67851e-09
4.95921e-09
-3.53806e-09
3.29229e-09
-4.75932e-09
5.00508e-09
3.64431e-09
-3.99724e-09
5.21231e-09
-4.85938e-09
-8.68549e-09
3.24038e-10
6.26962e-09
2.09184e-09
-3.19451e-09
-1.2653e-09
1.08713e-09
3.37268e-09
-6.10821e-10
7.89589e-10
-6.29589e-09
6.11712e-09
-2.5888e-09
-1.20797e-10
8.48012e-11
4.67116e-09
-2.51665e-09
-2.15451e-09
-1.87156e-09
9.04504e-09
-8.18151e-09
5.22083e-09
-2.81704e-09
-2.40379e-09
-1.58768e-09
-5.0662e-09
1.91799e-09
-3.3282e-09
1.48132e-09
-2.08164e-09
3.92851e-09
-8.29913e-10
2.956e-09
-2.8315e-09
4.09672e-09
-2.28321e-09
-1.81352e-09
3.63251e-10
1.52618e-10
4.2603e-09
-2.50537e-09
-1.51537e-09
2.59695e-09
-4.73844e-09
5.88273e-09
-7.1308e-09
5.98651e-09
-2.62848e-09
2.73227e-09
3.75602e-09
-3.85981e-09
-2.42538e-10
3.07148e-10
1.35765e-10
-2.00374e-10
6.26291e-09
-6.90924e-09
1.14948e-09
-5.03145e-10
4.34686e-09
-4.29187e-09
3.14248e-09
-3.32618e-09
4.51319e-09
-4.32949e-09
-5.75657e-10
2.07535e-09
4.15735e-10
-2.7622e-09
-5.76215e-09
5.3663e-09
3.15804e-09
-5.13511e-09
5.0718e-09
5.21364e-09
-5.15033e-09
-3.85716e-09
-5.65866e-09
4.32268e-09
5.19315e-09
1.43002e-10
-1.77676e-10
3.63968e-10
-3.29293e-10
5.59343e-09
-4.61441e-09
5.77953e-09
-6.75855e-09
-4.72775e-09
-3.26353e-09
4.53083e-09
3.46045e-09
-5.33453e-09
4.84694e-09
-5.8812e-09
6.36879e-09
-4.38854e-09
4.84381e-09
-5.36615e-09
4.91088e-09
-1.08653e-09
-3.10833e-09
3.23806e-09
9.56805e-10
4.25558e-09
4.80384e-09
-3.83394e-09
-5.22548e-09
3.37386e-09
-3.74385e-09
5.07433e-09
-4.70435e-09
-2.51704e-10
-2.84666e-10
3.73911e-09
-3.20274e-09
-2.82443e-09
4.34164e-09
2.60692e-09
-4.12414e-09
-4.17214e-09
-4.0801e-10
4.43607e-09
1.44085e-10
2.22847e-09
-2.69256e-09
1.1491e-10
2.84227e-09
-4.11788e-09
-2.38582e-09
3.66144e-09
-1.00126e-08
5.00076e-09
-5.14235e-09
1.01542e-08
-4.35992e-09
-5.87264e-09
4.87994e-09
5.35262e-09
6.37873e-09
6.61394e-09
-7.56875e-09
-5.42392e-09
3.48373e-09
5.32562e-09
-3.42358e-09
-5.38577e-09
-3.10624e-09
-1.1748e-09
3.78366e-09
4.29768e-09
-3.46391e-09
-4.61742e-09
-3.34173e-09
-5.15379e-09
3.4654e-09
5.03013e-09
3.55579e-09
4.8331e-09
-3.95725e-09
-4.43164e-09
4.49781e-09
5.42746e-09
-5.19778e-09
-4.72749e-09
3.93897e-09
5.47864e-09
-4.23059e-09
-5.18702e-09
-3.98951e-09
-5.87933e-09
4.47301e-09
5.39583e-09
-3.18991e-09
-4.03901e-09
3.80665e-09
3.42227e-09
3.58215e-09
5.23524e-09
-3.59936e-09
-5.21802e-09
-3.26221e-09
-4.13134e-09
3.89213e-09
3.50142e-09
-3.02713e-09
-4.26117e-09
2.49307e-09
4.79524e-09
-4.39819e-09
-6.2321e-09
4.94138e-09
5.6889e-09
4.83306e-09
-4.19978e-09
-5.9571e-09
5.32382e-09
-2.45094e-09
-1.41799e-09
2.6193e-09
1.24962e-09
-2.06785e-10
2.09723e-09
-2.23041e-09
3.3997e-10
3.9426e-09
-3.15306e-09
7.13786e-09
-7.9274e-09
-4.94127e-09
-3.94646e-09
5.10629e-09
3.78143e-09
3.3963e-09
-3.49492e-09
5.48199e-09
-5.38337e-09
3.46643e-09
-3.22936e-09
5.40988e-09
-5.64695e-09
-3.27883e-09
3.84667e-09
-5.98241e-09
5.41456e-09
-4.49059e-09
4.0048e-09
-5.01591e-09
5.5017e-09
1.35629e-09
-2.65091e-09
2.54945e-09
-6.57957e-09
6.28784e-09
-7.09773e-09
7.38946e-09
-4.48176e-09
-1.98732e-09
4.64333e-09
6.96604e-11
1.35846e-10
-1.37448e-10
-6.80586e-11
6.00298e-09
-5.65225e-09
6.84346e-09
-7.19419e-09
-5.21754e-09
3.70842e-09
-4.85505e-09
6.36417e-09
7.59417e-09
4.92341e-09
-6.13886e-09
3.57112e-09
-4.17267e-09
5.63051e-09
-5.02896e-09
-1.05583e-08
6.42496e-09
1.27757e-09
-5.7602e-09
-1.94234e-09
-4.75991e-09
6.0006e-09
3.75223e-09
-4.99293e-09
5.54308e-09
-6.74485e-09
5.69958e-09
4.87796e-09
-5.73207e-09
4.79308e-09
-4.23619e-09
5.30567e-09
-4.3317e-09
-4.14539e-09
5.18714e-09
-4.23166e-09
4.74556e-09
-5.73591e-09
4.5725e-09
-4.27108e-09
5.45363e-09
-4.20968e-09
-5.3037e-09
6.56833e-09
-5.25414e-09
-5.68577e-09
7.07515e-09
-5.78756e-09
4.49929e-09
-5.3988e-09
4.45531e-09
-5.70432e-09
7.19569e-09
4.49703e-09
-5.9884e-09
-5.12866e-09
6.26727e-09
-4.99578e-09
4.75018e-09
-5.34743e-09
4.85284e-09
-4.70642e-09
5.81121e-09
-4.44652e-09
4.23067e-09
-4.75866e-09
4.31165e-09
-3.17404e-10
-2.1949e-09
-7.64979e-11
-5.69906e-09
6.98062e-09
-5.64148e-09
-7.49386e-09
-9.14033e-10
7.27452e-09
1.13337e-09
-4.79436e-09
-5.69466e-09
4.10877e-09
6.38024e-09
4.0093e-09
4.23622e-09
-5.26232e-09
6.96261e-10
-7.44203e-10
4.24844e-10
-3.76902e-10
5.08093e-09
2.31445e-09
-2.52657e-09
-4.86882e-09
4.43932e-09
-7.80614e-09
8.07569e-09
-4.70887e-09
4.96324e-09
-5.69034e-09
4.21082e-09
2.40136e-09
-3.1233e-09
-3.4897e-09
4.21164e-09
-2.72008e-09
6.0294e-09
-5.41826e-09
2.10894e-09
-5.39214e-09
1.76324e-09
-3.81711e-09
3.41265e-09
-7.10369e-09
-5.92878e-09
-5.30894e-09
4.63497e-09
6.60276e-09
-4.79269e-09
4.45086e-09
4.76974e-09
-4.4279e-09
2.18278e-09
4.37629e-09
-2.21221e-09
-1.19325e-09
-6.74192e-10
-7.21563e-09
9.08307e-09
4.09477e-09
6.34445e-09
-4.95289e-09
3.28979e-09
-3.00861e-09
4.21324e-09
-4.49442e-09
6.70693e-09
4.58057e-10
-6.46719e-09
-6.97791e-10
-7.19249e-09
7.02735e-09
2.3397e-10
-6.88289e-11
-5.09085e-09
-5.64898e-09
5.60473e-09
-7.77236e-09
-9.78613e-10
7.30872e-09
1.44225e-09
-2.51354e-09
2.17999e-09
-6.28958e-10
2.03672e-09
6.06414e-09
5.64721e-10
-6.21116e-09
-4.15097e-09
5.82835e-09
4.53378e-09
5.71039e-09
4.7735e-09
-4.5701e-09
-5.91379e-09
-2.27465e-09
2.07332e-09
3.83126e-09
-3.62993e-09
-5.2607e-09
5.27211e-09
4.08339e-09
3.81021e-09
6.13256e-09
-4.30324e-09
2.13263e-09
7.07306e-09
-1.05546e-09
-8.15023e-09
-2.44152e-11
1.18067e-09
6.25313e-09
-4.87232e-09
3.68327e-09
-5.34257e-09
6.81403e-10
6.56219e-09
-1.90103e-09
5.34756e-09
5.92339e-09
-6.29827e-09
-5.2569e-09
-6.53923e-09
4.90704e-09
6.88909e-09
3.57972e-09
3.49023e-09
-3.38922e-09
-3.68073e-09
4.83867e-09
5.76357e-09
-4.42011e-09
-6.18214e-09
-6.52816e-09
7.20667e-09
7.13377e-09
-7.81228e-09
-6.98047e-09
2.14927e-09
4.19823e-09
6.32971e-10
-2.90475e-09
7.55138e-10
-9.16118e-10
-6.0926e-09
7.75e-09
5.0126e-09
-6.67e-09
4.46721e-09
6.90895e-09
-5.80408e-09
-3.33143e-09
-5.40531e-09
3.68846e-09
-3.96185e-09
-6.62008e-09
4.50795e-09
4.43885e-09
6.945e-09
-5.437e-09
4.45023e-09
7.1565e-09
-5.13122e-09
-3.75625e-09
-5.62369e-09
3.99381e-09
3.83134e-09
5.85495e-09
-4.68506e-09
2.62889e-09
3.29968e-09
-3.13748e-09
-2.79109e-09
-4.96979e-09
-7.26653e-09
5.51075e-09
-3.99755e-09
-5.67779e-09
4.15818e-09
3.52854e-09
5.34515e-09
-3.75876e-09
4.3887e-09
6.37619e-09
-5.17067e-09
3.44502e-09
5.55793e-09
-3.80813e-09
-5.30542e-09
-6.76153e-10
1.14478e-09
4.83679e-09
1.22009e-09
5.0129e-09
7.08233e-09
-1.0996e-09
-5.81844e-09
-1.64298e-10
5.82777e-09
-1.79865e-10
-5.83745e-09
1.89538e-10
6.73395e-09
-1.27178e-10
-6.78478e-09
1.7801e-10
7.45484e-09
-2.00181e-10
-8.24864e-09
9.93985e-10
-6.37624e-09
4.17619e-09
1.55907e-09
6.40978e-10
5.32402e-09
-5.88746e-09
2.3673e-10
3.26705e-10
-6.87548e-09
6.99971e-09
-1.18889e-10
-5.33987e-12
-7.2363e-09
7.21625e-09
2.81319e-13
1.97658e-11
-6.92511e-09
6.65621e-09
-1.92792e-10
4.61689e-10
-8.00725e-09
6.94963e-09
2.0862e-09
-1.02859e-09
-8.34084e-09
8.50387e-09
-2.44325e-10
8.13008e-11
-6.35546e-09
6.48853e-09
-2.27579e-10
9.45022e-11
-5.42801e-09
6.48384e-09
-9.76279e-12
-1.04607e-09
-6.11069e-09
5.02961e-09
1.49742e-09
-4.16347e-10
-6.16797e-09
5.02899e-09
-4.90276e-10
1.62926e-09
-5.55178e-09
6.63414e-09
-1.42697e-11
-1.06809e-09
-8.09173e-09
7.83038e-09
-8.74362e-11
3.48792e-10
-5.36427e-09
6.27543e-09
1.24421e-11
-9.23609e-10
-6.38097e-09
6.42873e-09
-8.41556e-11
3.63956e-11
-6.50726e-09
6.60517e-09
-8.01221e-11
-1.77925e-11
-6.38346e-09
6.3751e-09
-1.31005e-10
1.39366e-10
-7.8802e-09
8.05577e-09
-1.13161e-10
-6.24034e-11
7.18826e-09
-8.70121e-09
3.23927e-11
1.48055e-09
8.72406e-09
-8.44402e-09
2.18537e-10
-4.98577e-10
-4.22655e-09
-1.70976e-09
4.49056e-09
1.44575e-09
6.14077e-09
-6.61067e-09
-1.4093e-10
5.7943e-09
1.42351e-09
-5.65585e-09
-4.54286e-09
1.02301e-09
6.25555e-09
-6.62118e-09
-4.92049e-09
-6.36427e-09
5.92918e-09
4.00621e-09
1.98081e-09
4.76785e-09
-4.19754e-09
-2.55113e-09
-1.61229e-09
-2.27833e-09
-4.91127e-09
5.18175e-09
-5.00892e-09
4.86834e-09
-5.38351e-09
5.86273e-09
-2.19385e-09
5.96289e-09
1.31188e-09
-3.81309e-09
5.91194e-09
-5.11209e-09
3.01324e-09
1.66887e-10
-2.39194e-11
-1.42968e-10
3.84388e-09
5.74024e-09
-4.13314e-09
4.16113e-09
6.32836e-09
-4.89008e-09
-3.90062e-09
-5.41992e-09
4.35183e-09
-6.17974e-09
7.92075e-09
-6.71444e-09
2.39824e-10
-4.15816e-10
7.70989e-09
-6.94783e-09
7.09237e-09
-3.95763e-09
4.71787e-09
-4.80617e-09
-1.49938e-09
-5.23912e-09
-3.82706e-09
4.21334e-09
-3.17943e-09
-5.09816e-09
3.6753e-09
2.99711e-09
5.03595e-09
-3.72519e-09
3.69618e-09
5.6477e-09
-4.18509e-09
3.61743e-09
5.51411e-09
-4.10073e-09
-2.05946e-09
5.42701e-09
-5.26324e-09
-5.31311e-09
4.31287e-09
6.26349e-09
1.52624e-09
-2.39168e-09
-1.63993e-09
-1.76259e-10
-1.05214e-10
5.78645e-11
2.23609e-10
-3.49547e-09
3.71226e-09
5.86529e-09
5.17326e-09
4.79497e-09
-5.91753e-09
-4.0507e-09
6.4009e-09
-7.25873e-09
-2.79617e-09
3.654e-09
1.44616e-09
-6.44797e-09
5.49564e-10
-3.8969e-10
3.67574e-11
-3.07339e-09
-3.66803e-09
2.95137e-09
-4.7634e-09
-1.04914e-09
5.19098e-09
6.21569e-10
7.21575e-09
-5.80165e-10
-3.72681e-10
5.83635e-09
-4.79923e-09
6.1036e-09
-7.14073e-09
5.3641e-09
-4.00254e-09
4.72685e-09
-6.08841e-09
3.73633e-09
5.95674e-09
-4.15559e-09
3.59426e-09
5.71933e-09
-4.00118e-09
3.65073e-09
5.82068e-09
-4.05815e-09
-2.09184e-09
2.93888e-09
-4.13636e-09
-4.56165e-09
-4.17421e-09
5.15269e-09
3.58317e-09
4.81772e-09
5.69109e-09
-3.98496e-09
-6.52385e-09
2.48771e-09
-6.4016e-09
-2.22976e-09
6.14365e-09
-1.04528e-09
4.23342e-09
-4.88755e-09
3.50154e-09
-4.09685e-09
5.48286e-09
-2.75091e-10
4.37307e-09
1.35758e-09
-4.26486e-09
-2.99543e-09
-1.01231e-09
4.35895e-09
1.70689e-09
-1.61192e-09
-4.45393e-09
-6.32394e-09
-4.15135e-09
5.74356e-09
4.73173e-09
-5.06639e-09
4.53323e-09
-4.72779e-09
5.26095e-09
7.34826e-09
2.35913e-09
-3.57415e-09
-6.13324e-09
-7.68115e-09
7.01928e-09
-2.08434e-09
2.74622e-09
-5.57517e-09
6.87025e-09
-4.79055e-09
4.38724e-10
-2.30719e-09
6.38451e-09
2.98571e-09
-6.60485e-09
-2.76538e-09
-7.29143e-09
3.74684e-09
-3.39442e-09
6.93902e-09
-5.32939e-09
-2.76165e-10
3.00134e-10
5.22928e-09
1.94917e-09
-3.60499e-09
-3.57346e-09
-5.47204e-09
6.67234e-09
-4.13177e-09
2.93147e-09
-5.60063e-09
4.87896e-09
5.29323e-09
3.18691e-09
-7.53343e-09
6.47914e-09
-2.46461e-09
1.55705e-09
-1.78928e-09
2.69684e-09
-5.75789e-09
1.08112e-09
5.07844e-09
-4.01666e-10
-1.81676e-09
8.30185e-09
-8.35665e-09
-3.71676e-09
-3.60368e-09
4.68749e-09
-2.99894e-09
4.70552e-09
-6.33643e-09
-3.10774e-09
4.88587e-09
-6.57855e-09
-3.17661e-09
5.00187e-09
-6.73328e-09
-3.05637e-09
4.79969e-09
-6.4636e-09
-2.42483e-09
-4.91231e-09
3.00438e-09
-3.62592e-09
5.53386e-09
-4.72179e-09
6.45434e-09
4.65196e-09
-5.67188e-09
-7.16357e-09
8.57036e-09
4.26508e-09
-1.06894e-10
-6.09748e-10
-5.00645e-12
7.21648e-10
-4.45867e-09
6.09951e-09
-8.16899e-09
5.74097e-09
1.15809e-09
-6.24779e-09
-6.51264e-10
-6.88304e-09
-1.54148e-09
7.34096e-09
1.08356e-09
-7.18475e-09
-1.15683e-09
7.38755e-13
-5.91411e-09
-1.07281e-09
6.31468e-10
-5.80586e-09
-1.35867e-09
9.96555e-10
-4.41659e-09
-8.97618e-10
-1.138e-10
-4.51539e-09
-9.22052e-10
-1.14334e-10
6.06328e-09
1.46122e-09
-1.09955e-09
5.93831e-09
1.07129e-09
1.78658e-10
4.41316e-09
5.23396e-09
-5.31544e-09
-4.33168e-09
5.43525e-09
-5.60876e-09
2.45084e-09
-2.27734e-09
-3.16953e-09
-1.42397e-09
5.13926e-10
5.25684e-09
-5.42208e-09
-3.48685e-10
-4.85781e-09
-6.67766e-09
6.08166e-09
-3.29221e-09
5.69946e-09
-7.31868e-09
-2.59639e-10
1.05674e-10
-3.09168e-10
5.62075e-09
5.16189e-10
-5.56062e-11
-8.59227e-11
-5.02631e-10
6.55145e-09
1.40601e-09
6.15628e-10
-6.14995e-09
-8.41916e-10
3.87428e-10
-5.79786e-09
-4.77023e-10
-3.81566e-10
6.39805e-09
9.83224e-10
-1.17084e-10
4.08228e-10
-3.85181e-10
6.31458e-09
7.26809e-10
1.03119e-09
-7.25056e-09
-1.78788e-09
-1.82458e-10
5.94593e-10
2.65461e-11
7.63196e-11
-9.50145e-11
2.00087e-10
3.02576e-11
9.66301e-11
6.93449e-10
-5.78181e-09
-1.02232e-09
-1.20348e-10
-2.14932e-10
-6.02901e-11
1.04622e-11
-2.30042e-10
5.89632e-09
6.09151e-10
-3.06964e-10
6.39913e-09
5.13e-10
-3.02538e-10
6.24718e-09
4.84089e-10
-3.35093e-10
6.14516e-09
5.65034e-10
-3.79291e-10
7.63482e-09
8.00236e-10
-5.76961e-11
8.05465e-11
6.62788e-10
-8.04737e-09
-1.05944e-09
9.52007e-10
-1.19841e-09
-1.29951e-09
5.98811e-09
-3.14348e-10
1.39802e-09
-7.07178e-09
-4.22043e-09
1.68341e-09
-1.01393e-09
3.55094e-09
-2.74344e-09
6.95356e-09
1.70182e-09
-4.05549e-09
5.12915e-09
-5.30068e-09
8.11038e-10
-3.6794e-09
-6.77923e-11
2.93615e-09
-6.49131e-09
-1.66168e-09
4.71839e-10
4.00366e-09
-4.06174e-09
-3.28243e-09
-3.4743e-09
-7.00828e-09
6.94792e-09
3.53466e-09
3.15214e-10
5.5102e-09
-5.14687e-09
-6.78538e-10
-3.70431e-09
-6.01152e-09
2.14471e-09
3.7802e-09
-3.11421e-09
-2.8107e-09
-3.88852e-09
-4.8507e-09
2.41528e-09
-3.66081e-09
5.86498e-09
-7.87438e-09
-1.27057e-09
1.82752e-09
3.66432e-09
-4.22127e-09
-5.38209e-09
-5.24053e-09
5.80408e-09
-2.38487e-09
-7.49332e-09
5.55949e-09
4.3187e-09
8.77232e-10
3.79786e-09
-4.67509e-09
1.16699e-09
3.77414e-09
-4.94113e-09
1.4554e-09
5.04431e-09
-6.49971e-09
-3.59438e-09
3.25911e-09
-4.14056e-09
4.47583e-09
-4.1983e-09
4.56924e-09
-5.74573e-09
5.37479e-09
2.80113e-09
-3.02886e-09
5.25734e-09
4.11834e-09
-3.81878e-09
4.7731e-09
-5.07265e-09
-3.81531e-09
5.06799e-09
-3.25881e-11
-3.48738e-09
4.52239e-09
2.97429e-09
-2.39345e-09
3.1413e-09
-1.06525e-09
4.67688e-09
-1.94884e-10
-4.59257e-11
-5.68136e-09
5.64875e-09
7.23928e-09
3.57484e-09
5.39888e-09
-4.56056e-09
1.44453e-10
-2.78454e-10
3.78991e-10
-2.4499e-10
5.34406e-10
-6.63724e-09
-8.0641e-10
4.87736e-09
3.11011e-09
-5.12321e-09
-5.87813e-09
-4.68283e-09
5.60557e-09
4.95539e-09
3.7891e-09
-3.86998e-09
7.03052e-09
-6.5555e-09
-1.98776e-09
7.70898e-10
7.29372e-09
-7.44739e-09
-4.00801e-10
-5.43075e-09
3.26255e-09
7.06965e-09
-4.90144e-09
-7.03903e-09
-4.62177e-09
5.08123e-09
6.70354e-09
4.18776e-09
-4.88832e-09
-6.93572e-09
5.17524e-09
5.30068e-09
-4.99281e-09
-3.53349e-09
4.03571e-09
-5.90558e-09
-3.94395e-09
4.632e-09
4.85552e-10
-2.51338e-09
-3.65618e-10
-6.09237e-09
3.95804e-09
-3.32366e-09
5.45799e-09
6.25937e-09
7.68482e-10
-6.49344e-09
-4.48588e-09
1.99412e-10
-2.27514e-09
6.60074e-09
-5.20561e-09
-5.61836e-09
3.69174e-09
-5.92351e-09
4.70732e-09
5.75119e-09
3.85658e-09
-3.78522e-09
5.92638e-09
-5.99774e-09
-7.2101e-10
-7.66413e-09
8.42669e-09
-4.15461e-11
2.41885e-10
5.96289e-09
8.22572e-10
3.68099e-10
5.75531e-09
5.83515e-10
-6.69536e-09
4.45015e-09
-4.43533e-09
6.68054e-09
3.73433e-09
2.33759e-09
-1.40386e-09
-4.66806e-09
3.95753e-09
5.36688e-09
-3.47985e-09
-5.84456e-09
-5.73969e-09
1.31476e-09
-2.08651e-09
6.51145e-09
-8.45773e-09
5.7699e-09
1.4026e-09
1.28523e-09
9.00024e-10
3.66228e-09
-6.08987e-09
1.52757e-09
3.26825e-10
1.32288e-09
-1.28726e-09
-3.62437e-10
-6.32532e-09
-6.44485e-10
-4.37937e-10
7.40774e-09
-5.48952e-09
-3.52682e-09
4.07508e-09
-4.23702e-09
4.70797e-09
-6.09606e-09
5.62511e-09
-4.61598e-09
-4.68969e-09
4.51131e-09
4.1906e-09
-3.97169e-09
3.25068e-09
-3.4696e-09
4.99087e-09
-4.36456e-09
5.44639e-09
-6.07271e-09
3.20692e-10
-1.71262e-10
-4.91283e-09
4.41704e-10
-4.20496e-10
-5.16292e-10
4.95084e-10
-3.29992e-09
3.96693e-09
-3.65318e-09
3.61348e-09
-4.02217e-09
6.9151e-09
-6.50642e-09
5.13358e-09
3.92012e-09
-5.18175e-09
-3.87195e-09
-9.20141e-11
3.76197e-10
5.67198e-09
1.60401e-09
-1.87789e-09
-5.39809e-09
5.45355e-09
-6.20149e-09
5.61628e-09
-1.02978e-09
-2.70488e-09
5.1228e-09
-7.81759e-09
1.16243e-08
-8.92949e-09
4.09277e-09
-4.11838e-09
-1.08435e-09
1.10996e-09
3.35104e-09
5.28525e-09
-4.4601e-09
1.96319e-10
1.15195e-10
-7.44944e-09
7.13793e-09
5.16435e-09
-7.22502e-09
5.24758e-09
4.25967e-10
7.93547e-09
-2.19532e-09
-4.02023e-09
4.50373e-09
-5.59559e-09
2.39451e-09
-2.40671e-09
-3.70455e-09
4.9849e-09
1.2836e-09
-5.36848e-09
7.30634e-09
3.53769e-10
-7.67743e-09
1.22653e-10
-2.29252e-10
-6.44574e-09
6.41669e-09
9.06289e-10
-6.20194e-09
6.00538e-09
1.36355e-09
-8.24206e-09
8.23912e-09
1.45834e-09
7.2925e-09
-6.19651e-09
5.91831e-09
1.06779e-09
4.17587e-11
-4.78818e-09
6.98139e-09
-8.63918e-09
-4.83504e-12
1.66263e-09
-4.14792e-09
3.84586e-09
5.1876e-09
4.26119e-09
-3.90556e-09
-5.00764e-09
4.652e-09
5.07182e-09
7.59276e-09
-5.53081e-09
-4.04342e-10
-5.01706e-10
3.97152e-10
5.08897e-10
-4.416e-09
-1.08898e-09
6.24321e-10
4.88066e-09
-2.40338e-10
-1.7753e-11
3.20165e-10
-6.20744e-11
3.5191e-09
-4.50373e-09
3.99788e-09
-1.38606e-09
6.73133e-09
3.26713e-10
3.11677e-09
5.94367e-10
-6.4277e-09
5.59199e-09
6.77402e-09
-3.63001e-09
4.19708e-09
5.49621e-09
4.90294e-09
-4.21842e-09
-5.19992e-09
4.79259e-09
-4.12651e-09
-5.08267e-09
-4.30448e-09
3.19986e-09
-4.80948e-09
3.44814e-09
-5.5216e-09
-4.80957e-09
-2.40712e-09
4.32995e-09
3.81814e-09
2.62995e-09
-5.18908e-09
-4.62562e-09
3.45955e-09
-4.00488e-09
-5.26052e-09
3.88787e-09
-2.56249e-09
-4.3187e-09
6.80314e-09
-5.87646e-09
-3.97453e-09
4.39833e-09
1.7209e-09
-2.57585e-09
8.66502e-10
7.74724e-10
6.52024e-11
-9.90307e-10
1.5038e-10
-8.96217e-10
-5.74959e-09
-8.48054e-10
7.42665e-09
1.19509e-10
4.923e-09
4.16896e-09
-4.77886e-09
-4.31309e-09
-5.19921e-09
3.37053e-09
-2.69543e-09
4.52412e-09
-9.03252e-09
6.34445e-09
6.30155e-09
-2.51516e-10
7.12942e-09
6.50756e-09
7.87304e-10
-1.95477e-09
-1.10842e-10
-5.27525e-10
5.31473e-10
-5.09327e-09
4.23589e-09
5.72059e-09
-4.86321e-09
-1.51996e-09
2.25257e-09
-1.78407e-09
1.05146e-09
1.66954e-09
-1.49e-09
-5.24575e-09
-2.82009e-09
-1.09146e-09
4.011e-09
-4.18527e-09
-3.12565e-09
1.54836e-09
4.41137e-09
-1.08019e-09
-4.87954e-09
-7.35875e-09
4.93669e-09
-4.1866e-09
2.91919e-09
6.23065e-09
-5.59765e-09
-5.31186e-09
5.23763e-09
1.08755e-10
-4.64539e-10
-1.37896e-10
4.93679e-10
-5.51605e-09
3.58376e-09
-5.49025e-09
5.43535e-09
1.72443e-09
7.57033e-10
6.86594e-09
3.65137e-09
-3.58831e-09
4.19675e-09
-4.25982e-09
-6.55821e-09
4.10157e-09
4.88047e-09
-4.29481e-09
4.25802e-09
-4.84368e-09
-5.4514e-09
4.71529e-09
-4.85232e-09
5.58843e-09
2.27766e-09
-1.95129e-09
6.53993e-09
-6.86631e-09
4.63896e-09
-3.03352e-09
-4.9905e-09
6.72766e-09
-6.83186e-09
-5.60012e-09
-4.45149e-09
4.75421e-09
4.19657e-09
5.71298e-09
-5.74976e-09
-4.72313e-09
-5.83524e-09
5.74733e-09
5.63099e-09
4.30254e-09
-4.27094e-09
-4.17699e-09
4.402e-09
-4.36445e-09
-4.27374e-09
-5.192e-09
5.71608e-09
4.35388e-09
-4.77623e-09
5.44553e-09
4.07626e-09
5.5539e-09
-6.18254e-09
-4.67506e-09
4.05022e-09
-4.27369e-09
-4.04761e-09
5.71841e-09
-5.82371e-09
-5.58047e-09
4.00541e-09
-3.36493e-09
-7.1408e-09
-1.15021e-09
6.90312e-09
1.38789e-09
1.11271e-09
-3.69496e-09
7.43806e-09
-5.06842e-09
4.25603e-09
-5.10501e-09
5.23171e-09
-4.65436e-09
4.52767e-09
5.20947e-11
-7.83128e-09
7.89438e-09
-4.14186e-09
4.18899e-09
1.06559e-09
-1.37526e-09
1.49147e-09
-1.96579e-09
-8.18493e-10
-1.0272e-09
7.01032e-10
1.14467e-09
6.69345e-09
-4.54737e-09
3.84521e-09
-5.13898e-09
-4.36547e-09
4.87114e-09
4.63332e-09
3.49685e-10
-4.69868e-11
3.06986e-09
-4.96388e-09
6.77468e-09
-6.08941e-09
-4.15469e-09
-5.0377e-09
-4.53989e-10
6.92543e-09
-1.43375e-09
-4.81952e-09
4.02914e-09
6.67302e-09
-5.88264e-09
3.70556e-09
3.38994e-09
-3.34888e-09
-3.74661e-09
5.78412e-09
-4.41465e-09
-6.30155e-09
2.26736e-09
-3.65962e-09
-1.52664e-09
2.9189e-09
1.15322e-09
-1.02589e-09
1.16891e-09
-1.29624e-09
4.51916e-09
-4.94713e-09
-3.57932e-09
4.0073e-09
4.65716e-09
-5.40927e-09
7.54665e-09
-5.21791e-09
-5.53665e-09
6.19546e-09
7.78903e-09
-6.17469e-09
3.51924e-09
2.2409e-09
-1.66485e-09
6.00433e-10
-1.17648e-09
-8.93903e-10
-4.34846e-10
5.42152e-09
-2.39633e-09
2.83806e-09
-5.55856e-09
-5.06237e-09
-3.33259e-09
4.29966e-09
4.0953e-09
-3.97792e-09
-5.93487e-09
-2.61885e-09
2.62106e-09
2.53398e-09
7.85023e-10
-3.79746e-09