/*--------------------------------*- C++ -*----------------------------------*\
  =========                 |
  \\      /  F ield         | OpenFOAM: The Open Source CFD Toolbox
   \\    /   O peration     | Website:  https://openfoam.org
    \\  /    A nd           | Version:  8
     \\/     M anipulation  |
\*---------------------------------------------------------------------------*/
FoamFile
{
    version     2.0;
    format      ascii;
    class       surfaceScalarField;
    location    "7";
    object      phi;
}
// * * * * * * * * * * * * * * * * * * * * * * * * * * * * * * * * * * * * * //

dimensions      [0 3 -1 0 0 0 0];

internalField   nonuniform List<scalar> 
10659
(
-8.64461e-09
8.83421e-09
2.17469e-10
-4.07062e-10
3.61094e-10
-7.39489e-10
8.56563e-09
-8.18724e-09
8.52166e-09
-7.8034e-09
5.10711e-10
-1.22897e-09
-8.39088e-09
-3.92678e-10
1.38948e-10
-1.28385e-08
3.34685e-09
1.02008e-08
-7.09208e-10
-3.34094e-10
5.9996e-09
-6.29571e-09
6.30203e-10
1.1085e-10
4.55648e-11
-7.88266e-11
-7.75884e-11
-1.5158e-09
-2.44419e-09
2.39514e-09
1.56485e-09
8.92158e-09
-8.76407e-09
2.66496e-11
-1.84158e-10
-2.48269e-09
2.17518e-09
-4.08966e-09
4.39716e-09
-9.27498e-09
-6.09263e-11
1.12501e-10
9.22341e-09
-3.97355e-10
4.85773e-09
-4.46037e-09
-8.65184e-09
8.93026e-09
2.15201e-10
-4.93624e-10
1.39014e-10
8.13758e-09
-2.978e-10
-7.9788e-09
-6.57237e-11
2.93938e-10
8.69337e-09
-2.02634e-09
-3.79663e-09
3.34028e-09
-2.31071e-10
2.28789e-10
2.28228e-12
-2.05749e-09
-5.93539e-09
4.27681e-09
3.71607e-09
-7.18726e-09
-3.52283e-10
1.01186e-09
6.52768e-09
-8.49805e-09
-2.54441e-10
-1.15815e-11
-4.57585e-09
4.70585e-09
-1.29997e-10
9.15365e-11
-1.16891e-10
1.36204e-10
5.03792e-09
3.03983e-09
-7.5633e-09
-5.14441e-10
-1.39534e-10
5.63337e-09
-5.40284e-09
-2.3053e-10
-9.53906e-09
-2.02424e-10
6.8107e-10
9.06041e-09
-8.42505e-09
-3.33656e-10
1.06863e-10
9.02481e-09
1.85246e-10
-3.75846e-10
5.53548e-09
-2.46299e-09
-6.55169e-09
3.4792e-09
8.80156e-09
-8.68221e-09
-3.77989e-12
-1.15566e-10
-9.18064e-09
9.49277e-09
6.32561e-10
-9.4469e-10
2.36194e-10
1.11788e-10
-2.24233e-10
-1.23749e-10
-7.55157e-09
6.2441e-09
3.53598e-09
-2.22851e-09
-1.15746e-08
2.83791e-09
9.09898e-09
-3.62276e-10
-9.51309e-09
-1.11762e-10
4.07899e-10
9.21695e-09
6.80269e-09
3.83839e-10
-7.0367e-09
-1.49822e-10
6.51865e-09
-5.80557e-09
-2.55229e-10
-4.57857e-10
7.37609e-09
-6.21557e-10
1.83791e-10
-6.93833e-09
-9.77199e-09
1.9544e-10
-1.98204e-10
9.77475e-09
1.36466e-10
7.6626e-09
9.01853e-10
-8.70092e-09
-7.72688e-09
1.11296e-09
8.37952e-09
-1.7656e-09
4.48277e-09
-1.0007e-09
3.03659e-09
9.09568e-09
3.11571e-10
-8.8559e-10
5.42546e-09
3.03349e-09
-3.75261e-09
-4.70634e-09
-2.58577e-09
2.49668e-09
9.32036e-09
-9.23127e-09
-3.18135e-10
-7.43003e-09
1.80631e-10
7.56753e-09
-3.66969e-11
3.01126e-11
8.80814e-09
-9.22542e-09
2.95075e-10
-8.41642e-10
-1.59067e-09
-8.39058e-09
1.66487e-09
8.31639e-09
-7.91286e-09
6.01271e-09
-6.42243e-09
8.32258e-09
1.21302e-09
4.95047e-09
-5.34147e-09
-8.22021e-10
-8.59509e-09
-2.73255e-11
-5.97956e-11
-6.79851e-10
-8.97032e-09
1.37078e-10
-9.05713e-09
-2.93936e-11
-2.99235e-11
9.11645e-09
9.35061e-09
1.73083e-10
-5.93432e-10
4.96717e-10
-8.38894e-09
-9.65633e-11
7.98878e-09
-1.21176e-08
-1.85091e-10
-3.54272e-10
1.26569e-08
-2.74866e-09
5.93797e-09
-1.06843e-08
7.49497e-09
8.84626e-09
-8.22237e-10
-8.3223e-09
2.98278e-10
-9.30672e-09
9.40701e-09
-3.25458e-09
3.15428e-09
-2.17447e-09
4.68114e-09
3.02881e-09
9.63258e-09
-1.69316e-09
6.78925e-10
-8.61834e-09
-8.29279e-09
-1.49937e-09
6.75075e-09
3.04141e-09
1.2682e-09
-2.34569e-09
2.26441e-09
-1.18692e-09
5.78444e-12
7.15061e-11
1.90479e-10
-2.67769e-10
-5.79583e-10
1.50454e-09
-5.83804e-09
4.91309e-09
-5.65199e-10
2.33403e-09
-3.79517e-09
-7.22864e-09
-1.10708e-09
8.33572e-09
-4.25576e-10
8.18473e-09
7.55061e-11
-7.83466e-09
-4.94919e-10
9.2802e-09
3.12715e-10
-9.098e-09
9.0164e-09
8.07051e-11
-8.90166e-09
-8.82293e-09
-4.95782e-10
1.51689e-09
7.80183e-09
2.66432e-11
3.47298e-09
-9.9914e-11
-3.39971e-09
-2.78949e-09
-7.4086e-10
3.53296e-09
-2.60559e-12
4.50077e-09
-4.34074e-09
1.05299e-09
-8.20935e-09
-2.6876e-10
7.70206e-10
7.7079e-09
3.71469e-09
3.77796e-09
-1.81877e-09
-5.67389e-09
-4.46242e-10
-9.22531e-09
1.18783e-10
9.55277e-09
7.18602e-09
-1.48355e-09
1.27578e-09
-6.97826e-09
9.25294e-09
-1.49794e-09
-8.42786e-09
6.72855e-10
2.35505e-09
-6.87022e-10
2.81474e-09
5.34986e-09
-4.41718e-09
4.74629e-09
-5.67897e-09
-4.39261e-09
5.33867e-09
-4.91732e-09
3.97127e-09
-7.28688e-09
4.14409e-10
-3.1479e-10
1.15312e-08
4.78361e-10
-3.38473e-09
-8.62485e-09
-5.60131e-10
8.56541e-09
1.06664e-10
-8.11194e-09
-1.44537e-09
4.87472e-09
-3.42935e-09
2.49085e-09
-6.51837e-10
8.08534e-10
-2.64755e-09
1.15602e-08
-3.8714e-09
-8.53857e-09
8.49768e-10
-5.19796e-09
-1.85845e-10
-4.2176e-10
-5.0506e-09
4.66521e-09
1.94937e-09
-1.56398e-09
3.73452e-10
-1.84622e-09
8.04115e-09
-6.56839e-09
-8.55005e-09
1.48928e-09
-5.83823e-10
7.64459e-09
-8.46975e-09
-6.10266e-11
3.00755e-10
8.23002e-09
2.16122e-09
7.04851e-09
-4.93417e-09
-4.27555e-09
-3.99634e-09
3.98302e-09
2.01606e-09
-2.00274e-09
-9.22909e-09
-8.17582e-10
1.92424e-09
8.12243e-09
5.43699e-09
4.30336e-09
-6.22158e-09
-3.51877e-09
-4.63327e-09
1.11751e-08
3.089e-09
-9.6308e-09
7.20796e-09
-2.5747e-09
-8.40989e-09
3.77663e-09
-4.84018e-09
5.01502e-09
-1.74843e-10
7.55512e-09
-1.57988e-10
-7.51928e-11
-7.32194e-09
1.93634e-09
-5.89243e-09
5.16444e-09
-1.20835e-09
-3.88978e-09
-2.22309e-09
2.11653e-09
-9.96235e-09
1.39956e-10
-1.75222e-09
1.32482e-10
4.23214e-10
8.83009e-09
-9.38579e-09
-5.4856e-09
-7.42945e-09
3.78287e-09
9.13218e-09
-4.98657e-10
-5.58405e-09
1.16621e-08
-5.57944e-09
-2.70487e-09
-5.94453e-10
7.86554e-10
2.51277e-09
-1.50034e-10
-2.93652e-10
2.31716e-10
2.1197e-10
3.32952e-09
-2.86852e-09
2.8817e-09
-3.34271e-09
3.12441e-09
1.0171e-10
-3.05127e-09
-1.74843e-10
7.59222e-09
-8.70905e-09
1.31137e-09
-1.94543e-10
7.79002e-09
1.2661e-11
-2.68672e-10
-7.53401e-09
-9.43779e-09
-6.83813e-10
1.95141e-09
8.17019e-09
-1.23914e-09
7.113e-09
-7.54005e-09
1.6662e-09
1.18615e-08
-3.03675e-10
-7.09509e-09
-4.46276e-09
8.11971e-09
-2.99722e-10
-2.27773e-10
-1.20112e-10
3.29706e-10
8.584e-09
-8.79359e-09
-3.48071e-09
3.32116e-09
-9.14717e-09
-4.22402e-10
-9.4415e-09
1.32667e-10
9.73124e-09
7.12763e-09
-7.25369e-09
-7.29029e-09
7.41635e-09
-6.21755e-09
2.54807e-09
6.61762e-09
-2.94815e-09
4.42377e-10
-5.43238e-10
5.11661e-09
4.33566e-11
1.07439e-09
-6.23435e-09
4.3369e-09
2.80376e-10
-3.903e-09
-7.14273e-10
-5.18271e-09
5.32172e-09
-1.14839e-11
-1.01592e-08
-1.02843e-09
1.11991e-08
3.68279e-09
2.46089e-09
-2.81415e-09
8.71235e-09
-8.33673e-09
-5.81007e-10
2.0538e-10
-6.43197e-10
-8.94073e-09
9.08901e-09
-1.51171e-09
-2.9187e-10
6.78449e-09
-4.98091e-09
-6.71198e-09
5.43963e-09
1.21112e-09
6.1223e-11
-1.97466e-10
-7.50501e-09
8.08482e-11
7.62163e-09
-3.96666e-10
1.29992e-10
-8.95875e-09
-2.47589e-09
2.64362e-09
-1.67728e-10
8.83984e-09
-7.56865e-11
3.12556e-10
-9.0767e-09
-3.23111e-09
3.23113e-09
2.66226e-11
-1.7615e-09
-3.45694e-09
3.16718e-09
2.05126e-09
-8.18721e-09
-1.99639e-10
7.98302e-09
4.03829e-10
-2.36534e-09
-4.05014e-09
3.54696e-09
-6.96657e-10
7.63964e-10
-6.73069e-11
-9.32608e-09
1.37493e-09
-8.7178e-10
6.42511e-09
5.91353e-10
-2.00268e-09
-5.01379e-09
4.11548e-12
-8.38181e-11
1.86503e-10
-1.068e-10
7.6422e-09
3.70045e-09
-1.00894e-08
-1.25329e-09
-2.75427e-09
-9.98473e-11
-1.18813e-08
-1.35502e-09
2.26888e-09
6.72834e-09
-8.06121e-09
2.54087e-09
-4.26832e-09
9.78866e-09
-4.17978e-09
4.34765e-09
5.26912e-09
-1.43451e-10
1.92272e-10
-1.04343e-11
-3.83865e-11
-3.57473e-10
4.49405e-10
-2.20275e-09
2.11082e-09
-1.88834e-10
-4.65134e-09
-1.16136e-09
1.26503e-09
-1.03676e-10
2.22522e-09
5.2129e-09
-5.49214e-09
-1.94599e-09
2.83261e-11
3.39352e-10
-6.28532e-11
-3.04825e-10
-9.71163e-11
6.77896e-11
1.97637e-09
-1.94704e-09
-8.96481e-10
5.82455e-09
2.90323e-09
-7.8313e-09
-1.32954e-09
5.00621e-09
-6.30584e-09
2.62917e-09
-8.49997e-09
6.44825e-10
9.46486e-09
-1.60972e-09
-6.92403e-09
6.74464e-09
2.83769e-10
-1.04377e-10
8.09603e-09
-2.28557e-09
1.64738e-10
-5.9752e-09
-2.13169e-09
1.50808e-09
7.04873e-09
7.67897e-10
-5.08128e-09
-7.51091e-10
5.06447e-09
-2.3635e-09
2.11589e-09
3.95788e-09
4.42096e-09
-4.94553e-09
-3.43331e-09
3.85751e-10
5.43029e-12
2.99018e-12
-3.94171e-10
-1.37333e-09
4.71619e-10
1.05343e-08
-8.99361e-09
1.74504e-11
-1.30469e-09
1.02809e-08
1.03123e-08
-3.98094e-09
2.05324e-09
-8.38465e-09
1.88186e-09
-1.04964e-09
-9.77011e-09
8.93788e-09
9.29453e-09
1.03764e-09
-4.44042e-10
-9.88812e-09
8.63999e-11
-2.47423e-10
-6.55096e-09
2.51741e-10
-1.65581e-10
-9.31104e-09
9.38223e-10
-8.56275e-10
-3.9441e-10
-7.2319e-10
-1.00595e-08
1.11771e-08
-1.66484e-09
-9.16637e-09
2.40216e-09
8.42906e-09
9.28581e-11
-1.08837e-09
1.19159e-09
-1.96076e-10
-2.10277e-09
-8.73013e-09
2.66511e-09
8.16779e-09
-8.27567e-10
-8.87361e-09
1.79969e-09
7.90149e-09
-9.25921e-09
-9.32924e-10
9.49653e-09
6.95603e-10
2.53575e-09
-1.70005e-09
1.22134e-09
-2.05704e-09
-6.18881e-10
-8.82251e-09
1.51578e-09
7.92561e-09
2.85327e-11
-4.30107e-12
7.35186e-09
-2.34573e-10
2.70748e-10
-3.61752e-11
5.44365e-10
-7.86183e-09
7.83913e-09
-5.21659e-10
6.88044e-09
5.74417e-10
-2.63449e-10
-7.19141e-09
1.89355e-10
-1.04303e-08
-2.59753e-09
-1.54703e-09
-1.44517e-10
1.56008e-09
1.31472e-10
4.23046e-09
-1.12683e-09
-4.86512e-09
1.12048e-09
4.22938e-09
4.64535e-09
-4.10098e-09
9.17513e-09
4.02163e-09
-1.33524e-09
7.48372e-10
2.08955e-10
-7.54148e-10
-2.03178e-10
-8.40876e-10
3.58019e-09
-3.48572e-09
7.46405e-10
-9.94968e-09
1.15716e-09
-6.45264e-10
8.66707e-09
8.53301e-10
-9.02365e-09
5.04171e-10
-4.55723e-10
-1.50565e-10
1.02117e-10
5.25694e-09
-2.50044e-09
-4.51825e-09
1.76175e-09
2.96803e-10
-1.87255e-10
-8.70464e-09
-2.39778e-09
2.12107e-09
7.48343e-10
-4.7163e-10
-2.14616e-09
-6.86609e-10
-6.43261e-09
9.26538e-09
-3.89246e-11
-3.73491e-10
4.12416e-10
-2.48036e-09
2.27337e-09
-8.1757e-09
7.06843e-09
-6.60988e-09
7.71714e-09
-1.4644e-09
9.3921e-09
2.14858e-09
3.14601e-10
-8.05561e-10
-3.42495e-10
8.33455e-10
-4.53882e-10
-2.66877e-09
7.24868e-10
-6.45625e-09
-1.17386e-09
7.59153e-09
3.85888e-11
2.88612e-09
-9.11475e-09
1.04826e-08
-4.25393e-09
-3.17726e-09
-6.58481e-09
-1.37023e-10
9.8991e-09
-5.05714e-10
-2.35299e-09
2.65213e-09
2.0658e-10
-4.54412e-10
2.98581e-10
1.02154e-08
-2.07896e-09
1.35636e-09
-1.34178e-09
2.51085e-10
-6.7127e-09
-2.06691e-10
-8.03764e-09
5.71241e-11
-1.41774e-10
7.53917e-09
-1.28215e-10
-7.26918e-09
-3.51939e-10
1.72632e-10
1.21664e-09
-9.70393e-09
-9.52784e-10
9.44007e-09
8.30435e-11
4.08825e-10
-3.63432e-10
-1.28436e-10
2.87518e-09
-3.11291e-09
-6.25674e-09
6.49447e-09
9.0177e-11
-7.90929e-11
-1.55812e-09
6.32805e-09
7.61697e-09
-9.43458e-09
-4.51044e-09
-2.14479e-10
2.60331e-11
2.52418e-09
-8.36594e-09
-1.66418e-11
5.85841e-09
-9.13172e-09
9.17141e-09
3.30717e-09
-1.23673e-10
1.41091e-10
7.5377e-09
2.48758e-09
-1.88773e-09
-8.49165e-09
7.8918e-09
1.30202e-11
-5.37568e-11
-3.3142e-10
-1.97037e-09
2.14716e-09
1.5463e-10
3.94533e-10
-5.27146e-09
4.87693e-09
4.00653e-09
-7.2716e-10
-6.60513e-09
3.32576e-09
-2.22005e-10
4.01407e-11
-3.38613e-09
1.24692e-09
-1.39073e-09
3.52994e-09
3.3157e-10
-4.57633e-09
4.24476e-09
-8.16484e-09
5.2362e-09
-2.43514e-09
5.36378e-09
-4.48179e-10
7.12107e-10
1.85714e-09
-2.06055e-10
2.17551e-09
-2.06657e-09
-2.63798e-10
-1.67527e-09
1.81253e-09
1.26539e-10
3.79835e-11
-8.48352e-09
2.04924e-11
5.58899e-10
-1.70959e-10
1.1623e-10
-1.48502e-09
2.13827e-09
-7.76122e-09
7.10797e-09
1.4369e-08
-1.27202e-08
1.2299e-09
-2.87867e-09
3.23653e-09
7.06809e-09
-6.93738e-09
-3.36724e-09
-2.26432e-10
1.5388e-09
1.09627e-10
-1.42199e-09
2.6727e-09
-6.38897e-09
6.59145e-09
-5.32457e-09
5.36931e-09
4.18682e-09
-4.23156e-09
-4.34855e-09
1.6508e-09
5.87521e-09
-3.17745e-09
-6.87887e-09
-2.64841e-09
6.82462e-09
2.70265e-09
-7.68664e-10
2.13708e-09
1.16734e-09
-3.78781e-10
4.229e-10
8.14498e-09
6.26645e-09
-5.92087e-09
-8.49056e-09
-8.52022e-09
8.66088e-09
1.6269e-10
-3.03351e-10
-5.85498e-09
5.05323e-09
1.0238e-09
-2.22053e-10
-6.55759e-09
-3.02131e-10
7.0373e-10
6.15599e-09
1.48925e-10
-7.77322e-09
8.06816e-09
-4.43869e-10
-1.00685e-08
4.6309e-09
-4.01669e-09
9.45431e-09
-8.85927e-09
-6.93928e-10
1.34385e-09
4.35252e-10
-8.79418e-09
-1.39124e-10
5.73814e-09
2.52372e-10
-1.65361e-09
1.41358e-08
-1.03068e-08
-8.46228e-09
-1.0529e-10
-8.44115e-09
1.55552e-10
5.06275e-09
-4.70166e-09
4.15555e-09
-5.21033e-09
6.15574e-09
-5.10096e-09
1.12884e-10
-1.50312e-09
1.48041e-09
4.86427e-09
-8.39528e-10
-6.9266e-09
2.90186e-09
-9.42766e-10
1.14212e-09
-9.436e-09
9.23665e-09
1.15464e-08
-1.5185e-09
-9.72481e-09
-3.03089e-10
-1.79928e-09
5.53449e-11
1.81172e-09
1.31576e-10
-6.20457e-10
-5.88325e-11
5.47714e-10
7.36941e-10
-3.23681e-10
2.76103e-10
-6.89364e-10
8.27473e-09
-2.52634e-09
-7.09017e-09
7.37907e-10
-1.01049e-10
1.11514e-10
5.66462e-09
-1.36043e-09
-6.48286e-09
2.17867e-09
5.61902e-09
-8.94304e-09
1.00502e-08
-6.72621e-09
2.69128e-10
-1.2242e-09
-2.50994e-10
1.20607e-09
-1.98411e-09
2.62577e-09
-2.46237e-09
1.82071e-09
7.98264e-09
-7.72492e-09
2.19448e-10
-4.77162e-10
-2.7161e-11
8.69322e-09
4.62984e-11
-8.71236e-09
-9.58267e-09
9.22169e-09
-5.81778e-10
-3.07075e-10
3.35401e-10
-1.84273e-10
8.99145e-10
-9.19193e-10
2.04321e-10
-7.70748e-10
-3.53592e-10
9.15263e-10
2.09078e-10
6.29866e-09
-3.09799e-09
-4.73263e-09
1.53196e-09
-5.86271e-09
5.80179e-09
3.46097e-09
-3.03563e-09
-1.27729e-09
8.51955e-10
2.93383e-09
5.50907e-09
-4.86309e-09
-3.57981e-09
-8.54558e-10
-3.15667e-12
-1.93178e-09
-9.20214e-09
1.05946e-09
-1.83465e-09
9.97733e-09
-2.85426e-10
8.29243e-09
-1.77978e-10
-7.82903e-09
-7.74323e-09
2.93044e-09
8.0605e-09
-3.24771e-09
-7.51876e-09
-1.79893e-09
2.43882e-09
2.54796e-09
-2.12961e-09
-4.81096e-09
-5.35047e-09
-7.3976e-11
5.42445e-09
-5.51574e-09
5.45002e-09
2.93585e-09
1.16233e-08
-6.36948e-09
-8.18968e-09
7.41958e-09
-7.152e-10
-8.05941e-09
-1.01482e-10
7.04657e-10
-3.30804e-09
-5.49537e-09
6.34223e-09
-7.83847e-10
-6.30085e-11
1.73422e-09
-5.01843e-09
-4.77181e-09
8.05602e-09
-2.44099e-10
8.59406e-09
2.03925e-10
-8.55388e-09
1.79686e-09
-2.16886e-10
-2.02816e-09
-8.59605e-09
9.02697e-09
-8.236e-10
-6.34413e-09
5.69671e-09
5.98608e-09
5.00511e-09
1.2858e-09
-6.52475e-09
2.33836e-10
-8.01938e-10
-8.19324e-09
8.11238e-09
8.82796e-10
7.12849e-10
-8.77744e-09
9.28124e-09
1.00099e-09
-1.13033e-09
-3.50577e-10
4.79917e-10
8.56555e-09
-5.94557e-10
1.49335e-10
-8.12033e-09
-5.25939e-10
-8.08436e-09
8.14094e-09
4.69362e-10
-5.92687e-09
5.72444e-09
-3.62958e-09
-6.30005e-09
6.81673e-09
-4.83729e-09
-4.21789e-09
4.8754e-09
1.24881e-09
9.17033e-09
-1.94151e-09
-8.47763e-09
7.10292e-09
2.56371e-10
-7.75963e-09
4.00342e-10
9.24269e-10
8.33488e-09
-5.92076e-10
3.70065e-09
-3.46413e-10
-9.19953e-09
5.84529e-09
-9.109e-09
-7.93414e-10
-1.21681e-08
-6.19341e-09
1.01858e-08
-7.30155e-11
-6.23642e-10
4.99782e-11
-1.56679e-10
5.9914e-09
-6.10317e-09
-1.51952e-11
9.9718e-09
-1.24425e-09
-3.13438e-09
3.57189e-10
3.30778e-09
-5.30592e-10
8.17386e-09
3.83224e-10
-8.08508e-09
-4.72009e-10
-1.3189e-10
8.71864e-09
-9.14474e-09
5.57989e-10
2.48678e-09
1.10089e-08
-3.1738e-09
-1.03219e-08
-3.00369e-09
4.61905e-10
1.09243e-08
-8.38248e-09
3.43741e-09
2.84505e-09
-3.92741e-09
5.95054e-09
-5.7653e-09
-2.47923e-10
-1.04522e-08
8.554e-09
1.06891e-10
3.60882e-10
-1.39127e-10
-3.28646e-10
-1.59235e-10
2.05848e-10
-3.26948e-10
2.80335e-10
-5.53002e-09
-2.54983e-09
5.88357e-09
2.19628e-09
6.88169e-09
-6.24913e-09
-5.51335e-09
5.47665e-09
-6.5436e-10
-1.68045e-10
7.4939e-10
-6.60799e-09
1.06593e-08
-4.30572e-09
5.60971e-10
-5.62352e-11
-5.04735e-10
9.06208e-10
-9.87176e-09
9.25912e-11
8.87296e-09
-1.13318e-09
-8.85077e-09
1.15518e-09
8.82878e-09
-8.05369e-10
7.14937e-10
-2.5068e-10
3.41112e-10
-8.6458e-09
3.56589e-09
-2.06105e-09
7.14095e-09
-4.71375e-09
4.86268e-09
-7.48214e-09
-3.87879e-10
7.68118e-09
9.49388e-10
-5.12522e-10
8.76942e-09
-9.20629e-09
-9.01823e-09
1.41757e-09
2.49483e-09
-2.25761e-09
-4.43274e-10
-6.78273e-09
-1.27096e-10
6.54679e-09
3.63035e-10
1.03736e-08
-8.44826e-09
-1.53082e-09
-1.06843e-09
-9.29276e-11
-6.75793e-09
-2.97523e-09
7.16194e-09
2.57122e-09
1.06751e-09
-8.26742e-09
7.75416e-09
-5.54252e-10
1.14538e-08
-9.43687e-09
-2.08819e-09
7.12983e-11
6.02196e-10
-6.7983e-10
-8.42233e-09
-1.44591e-10
-2.72398e-10
2.57753e-10
-5.37851e-09
5.69008e-09
-7.00437e-10
-8.21815e-09
7.98287e-09
9.35714e-10
6.8795e-09
-5.72498e-09
2.55052e-09
-3.70503e-09
-2.20681e-09
3.2045e-09
8.17744e-09
8.40323e-09
-8.5486e-09
1.74075e-10
-2.87076e-11
-8.52731e-09
9.00243e-09
-8.08778e-10
3.70752e-10
7.10468e-09
5.88398e-10
-8.06383e-09
-5.66726e-09
5.63786e-09
-4.16428e-10
-5.07385e-09
5.49027e-09
-9.53769e-09
-1.4548e-09
1.00956e-08
8.96903e-10
-1.57097e-09
-8.00457e-09
1.83231e-09
3.33913e-09
-1.77635e-09
-2.6089e-09
1.04612e-09
5.67614e-09
6.96978e-09
-5.76642e-09
-9.13588e-09
8.74709e-09
4.67193e-10
-7.84066e-11
5.47055e-09
-5.60244e-09
9.8011e-09
-6.27961e-09
-7.03362e-09
3.51212e-09
-5.2343e-10
3.00193e-09
8.97526e-09
-6.7589e-14
-1.24766e-11
3.98295e-10
5.89535e-09
-7.48017e-09
2.97757e-10
7.53786e-10
-2.04491e-10
1.07695e-10
-6.73952e-10
8.86272e-09
-9.01143e-09
2.70742e-10
-1.22031e-10
-1.8678e-10
3.76799e-10
3.28296e-09
2.21499e-09
-2.18188e-09
-6.25066e-09
-8.71275e-09
1.52831e-10
8.60917e-09
-4.92547e-11
-4.60709e-09
4.48341e-09
-4.11068e-09
7.35067e-09
-4.67233e-09
1.43234e-09
-2.35585e-09
7.99649e-09
2.3827e-09
-8.02334e-09
6.69004e-09
4.30567e-09
-2.85072e-09
-9.08844e-11
-5.35653e-09
5.44741e-09
-8.83234e-09
-1.5012e-09
2.34447e-09
7.98907e-09
-1.05028e-08
9.08266e-09
-1.14429e-09
2.56446e-09
-5.72775e-09
5.90084e-09
-9.03277e-11
3.45237e-10
-2.42296e-10
-1.26126e-11
-6.73798e-09
-6.23181e-10
7.95252e-09
8.70728e-09
-8.54749e-09
-3.2052e-10
1.6073e-10
-1.95446e-09
-2.03541e-09
2.19655e-09
1.79332e-09
-9.74268e-09
8.79211e-10
-3.92335e-10
9.2558e-09
4.66629e-10
-1.6719e-10
8.56328e-09
9.18729e-10
9.22659e-09
-9.67869e-09
-9.92692e-09
1.51957e-09
-2.85963e-09
-1.09295e-09
1.25769e-09
2.69489e-09
-8.4421e-09
-1.17061e-09
9.19628e-09
-6.0703e-09
5.54687e-09
5.69047e-10
-9.01302e-09
-6.65025e-10
4.14091e-09
-5.47296e-09
-5.80657e-09
7.13861e-09
-1.23403e-09
6.11228e-09
-6.32728e-09
-2.11295e-09
2.52216e-09
5.91807e-09
-8.82871e-09
8.92724e-09
6.50092e-11
-1.63545e-10
-2.3113e-09
9.26342e-10
-6.99768e-10
2.08473e-09
-3.51381e-10
-1.3849e-09
1.50985e-09
1.81325e-09
-7.16481e-11
8.53916e-11
-1.82699e-09
4.50885e-11
-7.43296e-11
-2.10443e-10
2.39684e-10
-8.82742e-09
9.29875e-09
-4.98649e-10
5.91681e-10
-1.00024e-08
9.81431e-09
-4.03616e-10
-4.05842e-10
-1.63906e-09
1.78111e-09
8.05464e-09
-1.39809e-09
-8.86337e-09
-6.46928e-09
4.48425e-09
7.99774e-09
9.05022e-09
-9.18459e-09
1.62082e-10
-2.77152e-11
5.21491e-09
-5.3821e-09
-4.51998e-10
5.999e-09
-5.547e-09
-4.9782e-10
-1.92979e-09
2.09619e-09
6.26713e-11
-1.34142e-10
-5.8289e-10
2.0893e-09
-8.69342e-09
9.09714e-09
-2.49302e-09
9.32232e-09
-9.60429e-09
-7.24623e-11
5.40875e-10
2.71108e-09
-7.05241e-10
-9.77379e-09
7.76796e-09
-7.53812e-09
2.02344e-09
-1.77535e-09
7.29003e-09
-4.87058e-09
3.98054e-09
4.89658e-09
8.11767e-10
6.03268e-09
-1.0522e-09
-5.79225e-09
-3.84375e-10
1.85233e-10
4.00318e-10
6.26585e-11
-4.57546e-10
-6.70561e-10
2.04935e-10
-7.86414e-10
-2.29704e-09
2.57774e-09
5.7657e-10
-1.5401e-10
8.62766e-09
1.01433e-09
9.23294e-09
-9.6707e-09
-9.00337e-09
7.06669e-10
-9.64694e-09
1.04987e-08
-1.298e-09
1.98581e-09
5.38079e-09
-2.25479e-09
-5.11182e-09
-9.99088e-10
1.00474e-09
-1.89926e-10
1.59855e-09
-1.86841e-10
3.85153e-10
3.04515e-09
-6.34995e-09
2.09355e-11
5.50413e-09
-5.52507e-09
-7.52964e-09
-3.66494e-10
1.71211e-10
-9.60108e-09
5.71132e-10
9.62163e-09
8.60809e-09
-8.66675e-09
1.31197e-10
-7.25356e-11
-5.57353e-09
5.65424e-09
-4.86491e-09
4.20168e-10
3.44404e-09
9.52957e-12
-5.41013e-09
5.4006e-09
8.96146e-10
-3.14294e-10
4.19143e-10
7.92768e-09
1.29527e-10
-2.6719e-10
5.25987e-10
-3.24102e-10
-1.79382e-10
-2.25026e-11
1.29434e-09
-1.45254e-09
1.4588e-09
-1.3006e-09
-1.03137e-08
-1.84004e-09
1.13412e-08
8.12503e-10
2.44444e-10
-1.13819e-10
8.47746e-09
2.80347e-09
-6.01335e-09
8.80724e-09
-5.59735e-09
-5.39967e-09
5.24566e-09
-1.61071e-10
5.1958e-09
-5.03473e-09
2.65005e-10
9.30121e-09
-9.32177e-09
-9.74902e-09
6.43403e-11
2.79531e-09
-2.74533e-09
-3.11147e-10
-1.89928e-10
2.76842e-10
1.94369e-09
5.28478e-09
-7.35241e-09
1.23951e-10
-8.74148e-09
8.7438e-09
-8.63868e-12
6.31416e-12
8.70705e-09
-8.64689e-09
-3.40528e-11
-2.61075e-11
5.06653e-09
-4.84708e-09
2.33072e-10
-3.97856e-10
8.09246e-09
-2.64533e-09
-7.99933e-09
8.37834e-09
2.26632e-09
-5.60701e-09
1.02064e-09
6.57218e-09
-7.63163e-09
-3.92447e-11
5.31502e-09
-6.89598e-09
1.64232e-11
-4.4469e-11
-5.08643e-09
-4.47075e-09
3.37613e-09
6.18106e-09
-6.56064e-09
8.64993e-09
-8.47854e-09
-6.59777e-09
6.98956e-09
8.08675e-09
-8.08897e-09
-8.35162e-10
1.2925e-09
-5.23001e-09
5.11619e-09
-1.93413e-10
5.42739e-09
-5.23398e-09
-7.78716e-09
-1.21247e-09
1.46151e-09
2.57134e-09
-6.99685e-09
-1.1589e-08
3.92212e-09
6.71383e-09
-9.15644e-09
-1.47951e-09
5.66061e-10
-8.54842e-09
-1.01126e-09
-9.43925e-09
-9.45506e-10
-8.29735e-09
-4.45707e-10
8.04263e-09
-4.51114e-11
3.15675e-10
-3.52762e-10
8.21991e-11
-1.36254e-09
1.61353e-09
-2.61448e-09
-5.08569e-09
4.88605e-09
-6.88779e-09
8.44406e-09
-2.24584e-09
6.8957e-10
8.2907e-09
8.30038e-09
-7.22726e-09
-9.36382e-09
-5.34445e-09
4.19003e-11
5.30255e-09
-7.21524e-10
-8.04976e-09
7.96934e-09
-9.60099e-09
-6.23067e-10
9.09087e-09
2.15951e-10
1.42203e-10
3.11764e-09
3.40923e-09
-6.52687e-09
9.69541e-09
-5.98102e-09
-3.91896e-09
2.04561e-10
-2.55348e-09
-6.70747e-09
3.70022e-09
5.56073e-09
-1.06962e-08
6.02013e-09
7.16285e-09
9.07048e-09
2.85599e-10
-9.22355e-09
-1.32525e-10
1.33047e-09
2.14378e-09
-1.38052e-09
-2.09373e-09
-1.98143e-09
4.73598e-09
-4.03829e-09
1.28374e-09
-4.14804e-10
3.18794e-11
3.37814e-10
2.25801e-10
6.39096e-10
-1.45584e-10
-7.19312e-10
-9.72401e-11
-2.27623e-10
2.36195e-10
8.86679e-11
-8.06186e-09
-5.64977e-10
8.1009e-09
-7.68875e-09
-1.08962e-09
7.20741e-09
1.52912e-10
-4.98522e-11
-7.70937e-09
7.60631e-09
3.25848e-10
-8.2529e-09
8.07996e-09
-3.82433e-10
1.9949e-09
-1.96993e-09
-1.85864e-10
-2.29003e-09
4.67582e-09
4.09935e-09
-4.68512e-09
-4.09005e-09
-5.52355e-09
8.73142e-11
5.43624e-09
1.98876e-09
-1.34227e-09
-9.50576e-09
-1.79208e-09
-7.53432e-09
1.2764e-09
8.05001e-09
6.85234e-09
-2.50304e-09
1.98105e-09
-6.33036e-09
4.4722e-09
-5.75897e-09
5.59013e-09
3.59968e-09
-1.09056e-09
2.9874e-09
-5.49652e-09
6.10048e-09
2.22158e-10
1.98151e-11
-1.96884e-10
-3.39174e-10
2.96718e-10
-7.85517e-11
1.21007e-10
9.63896e-11
-3.88875e-10
4.2223e-10
-1.29746e-10
2.49137e-11
-1.84248e-10
-1.76656e-11
1.77e-10
1.92632e-09
-3.3717e-09
-4.76057e-09
4.65459e-09
1.0598e-10
-2.58311e-10
8.68993e-09
1.33931e-10
2.91384e-09
-3.69373e-09
4.58043e-09
-3.80053e-09
-6.24716e-09
3.30492e-10
6.29012e-09
-7.03387e-10
1.94349e-09
-2.00877e-09
-2.48686e-11
-9.35666e-09
8.77275e-09
6.08773e-10
-5.80776e-10
-3.9209e-09
-6.96287e-10
2.45635e-09
-6.30053e-11
-3.78985e-10
2.96813e-09
7.49983e-10
7.93587e-09
2.51268e-10
-3.5767e-10
-7.82946e-09
5.60025e-09
2.47268e-09
-2.69214e-09
1.27732e-09
-2.06858e-09
2.12173e-09
9.29034e-09
5.15822e-10
-9.22914e-09
-5.77015e-10
3.80896e-11
-7.75183e-11
3.87589e-10
-4.84786e-10
-7.98717e-09
9.55171e-09
1.68821e-09
-9.41496e-09
-1.82496e-09
9.00105e-09
-1.78621e-09
2.14805e-09
-9.36288e-09
-2.61775e-10
5.80395e-09
-5.54217e-09
1.02832e-08
-1.32906e-08
3.00745e-09
4.72688e-10
-3.65864e-10
-2.0946e-09
-9.1199e-09
8.56609e-09
-1.8072e-10
2.08345e-09
-1.90273e-09
5.69714e-09
-5.71234e-09
5.31937e-09
-3.92542e-09
-6.78116e-09
5.38722e-09
-1.6926e-10
-6.07964e-09
6.44992e-09
-2.01015e-10
4.97504e-10
5.07722e-09
-4.88789e-09
-6.86834e-10
8.22759e-09
5.93825e-09
-5.71347e-09
-8.45237e-09
1.65995e-10
-1.91411e-10
4.24788e-10
-3.99373e-10
-1.7023e-09
1.32085e-09
-1.21161e-09
1.59306e-09
4.14972e-09
-6.51652e-09
3.04436e-09
-6.77558e-10
7.06921e-09
1.93598e-09
-7.48288e-09
-1.52231e-09
3.48876e-09
-3.85164e-09
5.39495e-09
-5.03207e-09
-1.24472e-09
1.30854e-09
1.18808e-09
-1.2519e-09
-3.34255e-10
7.054e-10
-8.00696e-09
7.63582e-09
9.68713e-09
6.91789e-09
-1.03386e-08
1.03977e-09
-2.35276e-10
8.49004e-09
2.12201e-10
-5.02312e-09
5.59549e-10
4.25137e-09
1.6882e-09
-1.31025e-09
-3.30003e-09
2.92208e-09
-4.27894e-09
-4.31729e-09
7.34398e-10
6.4172e-10
-9.8299e-09
1.00658e-08
-8.77642e-10
1.89345e-09
-2.31843e-09
-8.89455e-09
-3.97653e-10
6.68943e-11
1.25961e-10
-2.1459e-10
2.53286e-10
-1.64657e-10
-8.97516e-10
9.75573e-10
-7.80575e-11
4.41346e-10
1.33517e-11
-3.58309e-10
-1.1376e-09
8.17981e-09
1.13166e-09
4.57262e-09
-1.93014e-09
7.56578e-09
-1.02083e-08
9.59922e-09
-5.12771e-09
5.21562e-09
-4.33304e-09
4.99209e-09
4.34698e-09
8.79231e-09
-3.54007e-09
1.75957e-09
8.94661e-09
-2.95426e-09
-7.75192e-09
8.85555e-09
-9.30614e-09
1.49101e-09
-1.04042e-09
-8.32605e-09
7.26684e-09
4.18053e-09
-3.12132e-09
-1.42908e-09
7.30996e-09
5.66551e-09
-2.14558e-11
4.29172e-11
-1.35924e-10
1.14463e-10
-3.99146e-10
3.59341e-10
4.54506e-09
-4.50526e-09
-1.26569e-09
1.58421e-09
-1.02191e-09
-1.35408e-10
1.7481e-09
-1.61269e-09
-5.60146e-10
-7.75708e-09
1.00229e-09
7.31494e-09
-1.42918e-10
-5.20756e-09
-6.15432e-09
7.34886e-09
-1.23482e-09
-9.88383e-09
1.76492e-09
9.35372e-09
-2.51096e-10
2.52766e-10
-9.89101e-11
3.52322e-10
1.16953e-08
-1.16294e-08
-4.18234e-10
-2.37746e-10
5.58075e-09
-3.90701e-09
-1.43599e-09
-4.81043e-09
-3.40429e-09
4.85574e-09
-7.56475e-09
6.11331e-09
5.3877e-10
-8.71534e-10
8.70317e-09
-8.37041e-09
-6.40192e-09
5.27376e-09
-3.47354e-10
1.24475e-10
-4.02145e-10
5.34285e-10
-1.26247e-09
7.10875e-11
4.82476e-10
-2.75766e-11
-9.1996e-09
2.59787e-09
9.53758e-09
4.68927e-09
-4.50483e-09
5.13493e-09
-1.31508e-10
1.68402e-09
-1.69703e-09
-3.55688e-09
8.36151e-11
4.34844e-10
-9.6229e-11
4.89282e-09
-2.71186e-09
-4.5463e-09
9.77489e-09
1.3451e-09
-2.26444e-09
6.19645e-11
-9.23378e-10
9.91502e-10
-1.30089e-10
-2.51332e-09
-3.92166e-09
4.21188e-09
-2.82584e-10
3.7336e-10
-8.61534e-09
2.60013e-09
7.50449e-09
3.83952e-09
-2.147e-09
-7.17812e-09
-1.32322e-09
-1.29932e-10
4.70787e-09
-3.25471e-09
-1.11487e-10
-1.37466e-09
1.48615e-09
-4.22639e-09
4.25493e-09
-8.33895e-09
2.02595e-09
-1.82728e-09
8.14029e-09
-7.53498e-09
-1.69549e-09
1.4433e-09
-9.59951e-09
-1.83244e-09
1.8378e-09
9.59414e-09
-2.87401e-10
1.4804e-10
-7.39028e-09
4.45975e-09
-3.18803e-10
-4.14095e-09
-2.68398e-10
-9.54652e-11
3.83149e-11
3.25548e-10
-1.11796e-09
1.03188e-09
-1.14188e-09
1.22796e-09
8.56554e-10
1.48e-08
-6.46085e-09
-9.19574e-09
-7.26526e-09
-3.99132e-10
1.82254e-10
-3.43363e-09
7.1067e-09
6.54231e-09
6.16629e-10
-6.68926e-10
3.20373e-09
8.19971e-10
5.75119e-09
-1.79058e-09
5.24602e-09
-6.0113e-09
2.55586e-09
-1.95627e-10
-4.88693e-10
9.18133e-09
-9.25176e-09
5.59123e-10
8.79419e-09
8.17116e-10
-9.21635e-09
-3.94958e-10
-1.00807e-10
-8.74943e-09
1.37493e-10
-8.03471e-09
5.23511e-10
7.9341e-09
-4.22902e-10
3.21123e-09
-8.9397e-09
9.04963e-09
4.91027e-09
-2.64283e-09
-1.02168e-08
7.94937e-09
4.09051e-10
-1.43122e-10
9.49523e-11
6.41167e-10
2.99571e-10
-5.11125e-11
-4.21824e-11
1.02019e-08
3.78168e-10
-1.20614e-09
-9.37391e-09
-3.17527e-09
7.34195e-09
-9.18653e-11
9.75026e-11
-7.11009e-11
6.54636e-11
-5.04302e-09
2.37141e-09
3.77224e-09
-1.10063e-09
-7.28629e-09
8.17226e-09
1.9175e-09
6.94403e-09
-3.66185e-09
3.43219e-09
-6.71436e-09
3.16416e-09
-5.60848e-09
-1.82427e-09
4.26859e-09
2.61973e-09
-5.53008e-09
1.23174e-08
1.06185e-08
-8.91683e-09
8.03605e-09
-5.56973e-09
4.42836e-09
-3.90165e-09
5.19102e-11
-8.81524e-11
9.01161e-09
-8.97537e-09
4.59151e-11
-9.19456e-09
-3.18448e-10
9.46709e-09
5.7374e-09
-5.76777e-09
-1.4463e-09
1.47667e-09
9.00702e-10
7.07392e-11
-7.22967e-11
-2.89729e-09
2.41092e-09
5.74373e-10
-8.79994e-11
-5.56211e-09
2.50269e-09
-2.94026e-09
5.99968e-09
1.27554e-09
-1.16774e-09
1.01051e-09
-1.06041e-08
8.39391e-09
1.1997e-09
5.48391e-10
-6.5925e-09
-5.15606e-09
1.12002e-08
-5.92005e-09
-5.61732e-09
7.9078e-09
1.93707e-09
9.03586e-09
-9.59801e-09
-4.73891e-09
4.47521e-09
7.20772e-09
-9.80401e-09
1.01563e-08
3.58815e-09
4.92038e-09
-6.57219e-09
-8.35551e-10
-8.92712e-09
1.12448e-09
-1.50351e-09
-4.45979e-09
-4.94541e-09
3.07793e-09
3.69373e-11
-8.15704e-12
-1.41108e-09
1.3823e-09
-1.00482e-08
2.442e-10
7.12878e-09
-2.69921e-09
-6.43224e-09
-2.2219e-09
-6.4416e-09
-6.45091e-09
6.19555e-09
8.6099e-11
-1.36898e-09
-9.86585e-09
1.23245e-09
-4.56521e-09
6.24049e-09
4.62337e-09
-2.10065e-10
-4.40783e-10
4.59438e-10
-5.65994e-09
1.29861e-10
5.53008e-09
2.81217e-10
-1.13743e-10
8.67236e-09
-2.37231e-09
-9.60284e-10
-5.3132e-09
4.25052e-09
-8.70002e-09
-1.70133e-09
-8.02558e-09
2.20816e-09
3.3168e-09
4.84778e-09
5.67469e-10
2.03203e-10
-9.50355e-09
-7.71009e-10
1.41061e-09
8.86395e-09
-7.61822e-09
9.20876e-10
6.69734e-09
-4.7583e-09
4.85665e-09
-2.51547e-09
-5.90288e-09
2.46958e-09
5.94877e-09
-3.88627e-09
5.42846e-09
-9.5688e-10
1.12076e-08
-9.31252e-09
-4.9967e-09
5.46439e-09
-2.86301e-09
2.39532e-09
9.40312e-09
-8.04162e-10
-1.0028e-08
-1.18235e-09
1.38524e-09
-8.94012e-10
7.90927e-09
-7.01525e-09
-5.01666e-09
-3.70528e-09
8.03533e-09
-3.92504e-10
-9.23596e-09
1.86961e-10
1.07778e-08
-4.19888e-09
4.0725e-09
-1.06514e-08
9.3945e-09
2.41254e-10
-2.0683e-10
-1.08754e-10
3.98521e-09
-1.70232e-10
7.93993e-10
-4.60897e-09
-1.17539e-10
1.6508e-10
-3.53212e-11
-4.52748e-09
-3.55772e-09
6.21739e-11
1.50802e-09
-1.53326e-09
-2.12307e-10
-3.29281e-10
5.60918e-10
-6.43817e-09
5.97297e-09
-1.13401e-09
1.59921e-09
1.22549e-09
-5.00198e-09
-3.88473e-10
4.16496e-09
-5.80504e-09
-3.55602e-09
7.26647e-09
-3.95724e-10
-7.58142e-11
-3.87659e-10
-9.17792e-09
9.07689e-09
6.46866e-09
-1.47158e-09
-5.79989e-10
1.18177e-09
-9.36029e-09
8.62933e-09
-4.50815e-10
8.39622e-09
-4.62553e-10
-8.21282e-09
2.79154e-10
-5.5775e-09
-2.81459e-09
7.09511e-09
1.29698e-09
3.77035e-09
9.7726e-09
-1.23858e-08
1.04511e-09
2.04993e-10
-1.13893e-09
-1.11173e-10
-8.48559e-09
-9.26362e-12
8.51231e-09
5.94227e-11
-3.47487e-10
-5.63692e-09
4.11423e-09
7.95527e-10
-1.10866e-09
-6.54541e-09
7.73426e-09