/*--------------------------------*- C++ -*----------------------------------*\
  =========                 |
  \\      /  F ield         | OpenFOAM: The Open Source CFD Toolbox
   \\    /   O peration     | Website:  https://openfoam.org
    \\  /    A nd           | Version:  8
     \\/     M anipulation  |
\*---------------------------------------------------------------------------*/
FoamFile
{
    version     2.0;
    format      ascii;
    class       volVectorField;
    location    "7";
    object      U;
}
// * * * * * * * * * * * * * * * * * * * * * * * * * * * * * * * * * * * * * //

dimensions      [0 1 -1 0 0 0 0];

internalField   nonuniform List<vector> 
3080
(
(0.000107985 6.35496e-05 -1.07945e-20)
(0.00107884 0.00174706 -2.52782e-21)
(0.00102285 -6.0478e-06 4.89238e-22)
(9.58977e-05 8.28972e-05 0)
(0.00144796 0.000181389 -4.85669e-21)
(0.000684686 -0.000377457 0)
(9.03721e-05 0.000574538 2.17776e-21)
(0.00238967 0.00413798 0)
(0.00104052 -7.89536e-06 -3.74193e-21)
(0.000980741 6.79162e-06 5.23645e-21)
(1.69201e-05 6.85451e-05 0)
(0.000938934 1.31224e-05 0)
(0.000946944 0.00236506 7.10153e-21)
(0.00155418 0.000199034 -6.63203e-23)
(2.88589e-05 0.000166895 -2.06891e-21)
(0.0015315 0.00107754 0)
(0.000991672 -8.22987e-06 7.88683e-21)
(1.66736e-05 -7.58094e-05 2.17551e-21)
(1.29561e-05 5.05815e-05 0)
(0.00107876 4.62641e-05 -3.98792e-21)
(0.00216033 0.00409753 1.09664e-20)
(0.000943595 -0.00047336 1.18077e-21)
(0.00118023 -2.8175e-05 -7.13794e-21)
(0.00257604 0.00414346 -3.61017e-21)
(0.00132162 0.000120946 -1.87776e-20)
(0.00024094 0.00170054 -2.16816e-23)
(7.58304e-05 -0.000310471 -4.48035e-21)
(0.00167372 0.000693298 2.4769e-21)
(9.60427e-06 2.76825e-05 -2.61471e-22)
(0.00138844 0.000989011 1.20657e-20)
(0.00126494 0.00280429 1.7238e-20)
(0.00208757 0.00459937 -6.74676e-21)
(0.000411348 0.00213955 -9.09116e-21)
(0.00188557 0.00404731 3.18341e-21)
(0.00153014 0.00437058 4.66744e-21)
(0.000935764 -2.10289e-05 1.58973e-21)
(0.000217213 -0.000672433 -1.42974e-21)
(0.000557577 0.00416684 0)
(0.000615697 -0.000124374 1.8989e-21)
(0.00065134 0.00152846 9.16155e-21)
(0.000232005 6.84104e-05 0)
(0.000587794 -6.14361e-05 -3.86864e-21)
(0.000911123 -1.8936e-06 6.59296e-21)
(0.000451409 -5.91522e-05 0)
(0.00182646 0.000292916 0)
(3.96981e-05 0.000225255 -5.61052e-22)
(0.00096373 0.000100581 -6.34364e-21)
(7.62999e-06 2.51862e-06 -2.07338e-21)
(4.18303e-05 -6.75042e-06 4.9103e-21)
(0.000294403 0.00200783 5.37632e-21)
(0.000520154 -5.96845e-05 -4.05058e-22)
(0.000790491 0.00355629 -1.71423e-22)
(0.000197706 0.00108035 5.86174e-21)
(0.000728314 -0.000313223 1.03228e-21)
(0.00169278 0.000258838 6.5349e-23)
(0.000868657 -4.47004e-07 0)
(0.000868647 6.00683e-06 -1.07609e-21)
(0.00123048 0.00219926 -6.4068e-22)
(0.00169257 0.00332684 4.38962e-21)
(0.00102905 1.39804e-05 -6.55795e-21)
(0.00125091 0.00231361 5.16329e-22)
(0.00122507 0.00226962 0)
(0.00123774 0.00220574 -4.70099e-22)
(0.000896775 -2.9758e-05 0)
(0.00240066 0.00403203 -1.30342e-21)
(0.0023419 0.00392967 -1.26636e-21)
(2.57787e-05 -0.000145868 1.38709e-21)
(0.000683058 -0.000147644 4.03264e-21)
(0.00223091 0.0038464 -1.82782e-22)
(0.0012379 0.00220552 8.59277e-22)
(3.92393e-05 -0.000192046 1.00818e-24)
(0.00225237 0.00386072 -5.17436e-22)
(0.00188137 0.00385586 4.25744e-21)
(0.00123616 0.00220297 1.34564e-21)
(0.00035751 -9.2605e-05 -7.78197e-21)
(0.00203254 0.00398899 0)
(0.000325601 -7.78081e-05 -2.18095e-22)
(0.00226082 0.00386208 -3.36018e-22)
(0.000524623 0.000153105 -1.54544e-20)
(0.000348341 6.82806e-05 -9.91921e-21)
(0.00205565 0.00042117 0)
(6.71206e-05 -0.000188718 -1.12921e-21)
(0.00123289 0.00220006 -1.62492e-21)
(0.00142265 0.00289015 3.02896e-21)
(0.00105447 0.000193443 1.91697e-21)
(0.00226337 0.00386103 5.11561e-22)
(0.000967215 0.000175367 4.03824e-21)
(0.00240473 0.00402525 -7.47152e-22)
(0.00234604 0.00392308 -4.1719e-22)
(0.000959642 0.000129409 5.38848e-24)
(0.00226378 0.00385885 0)
(0.00122953 0.00219577 3.74153e-22)
(0.00222566 0.00384586 -1.15524e-22)
(0.00124957 0.00230637 1.35314e-21)
(0.00122405 0.0022628 -1.51805e-21)
(0.00103504 -9.01665e-06 1.01207e-21)
(0.0022636 0.00385589 6.99237e-22)
(0.00240301 0.00402263 2.15163e-21)
(0.00234444 0.00392053 2.34589e-21)
(0.000556476 0.000181511 1.89876e-21)
(0.000598072 0.000232473 0)
(0.00239132 0.00402839 -3.70902e-22)
(0.00233197 0.00392601 -5.25704e-22)
(0.00203893 0.00390878 4.3871e-21)
(0.000906636 0.000269974 1.24739e-21)
(0.00133504 0.000830578 2.4585e-23)
(1.23092e-05 -4.62796e-05 -6.15515e-22)
(0.00226318 0.00385238 -1.63486e-21)
(0.00124678 0.0023019 1.60717e-21)
(0.00122127 0.0022585 1.53284e-21)
(0.00240205 0.00402044 0)
(0.00234352 0.00391819 0)
(0.000497666 -0.000154285 0)
(0.00240357 0.0040292 -1.90161e-22)
(0.002345 0.00392694 7.85983e-22)
(0.00198531 0.00392254 2.14526e-21)
(0.00100803 0.00021144 -7.11528e-21)
(0.00239004 0.00403353 6.81936e-23)
(0.00232956 0.00393089 7.59135e-23)
(0.00124477 0.00229808 -1.79214e-21)
(0.00121922 0.0022548 -1.9534e-21)
(0.00101225 1.44045e-05 -2.0439e-21)
(0.00108023 4.96787e-05 -1.86281e-24)
(0.00240405 0.00402789 6.65361e-22)
(0.0023455 0.00392567 9.57072e-22)
(4.22354e-05 0.000423819 -5.8741e-22)
(0.000252513 -1.41774e-05 6.16119e-21)
(0.00239989 0.00401773 -2.24851e-21)
(0.00234133 0.00391418 -2.44834e-21)
(0.00169817 0.000388125 -4.18673e-21)
(0.00240298 0.00402693 -9.7841e-22)
(0.00234435 0.00392481 -1.3564e-21)
(0.000575326 0.00026629 6.62031e-21)
(0.00240304 0.00402597 0)
(0.00234427 0.00392381 0)
(1.77082e-05 0.000110102 2.17126e-20)
(0.00101276 -0.000144006 9.39565e-21)
(0.000102463 1.74771e-05 2.73083e-21)
(0.00239664 0.00402528 6.1784e-22)
(0.00233905 0.00391341 3.35042e-21)
(0.00225636 0.00384647 -1.23172e-21)
(0.00122416 0.00217981 5.86245e-22)
(0.00046367 8.68783e-05 -1.05345e-20)
(0.00240348 0.00402521 -1.26138e-21)
(0.00234473 0.0039231 -1.37802e-21)
(0.000951583 0.00170291 -2.60506e-21)
(0.000348579 9.34314e-07 -1.17476e-21)
(0.00124099 0.00228912 2.72351e-22)
(0.00121483 0.00224643 0)
(0.00125381 0.00231955 5.53159e-22)
(0.00122775 0.00227544 6.09797e-22)
(0.000218756 -1.26687e-05 7.00623e-21)
(0.000994305 5.96327e-05 2.92365e-21)
(0.000575324 0.000334009 0)
(0.000312669 -9.0621e-06 -1.09481e-21)
(0.00239719 0.00404887 -2.72032e-21)
(0.00233831 0.00391421 -2.20573e-21)
(0.00175423 0.00362934 0)
(0.00123091 0.00220268 5.12165e-22)
(0.000618554 0.000308292 -6.68265e-21)
(0.0022542 0.00384792 -1.3843e-21)
(0.00128853 0.00230362 -3.65196e-22)
(0.00121205 0.00225101 1.00909e-23)
(0.00163223 0.000275928 1.84168e-21)
(0.0012113 0.00217836 2.7925e-22)
(0.00122303 0.00217392 -6.62814e-22)
(8.85657e-05 3.85344e-05 0)
(0.000932261 -0.000125329 -5.54351e-21)
(0.0012364 0.00220865 1.79067e-21)
(0.0012411 0.00228324 -3.00018e-22)
(0.00121273 0.0022423 0)
(0.00096306 0.000124126 3.81907e-21)
(0.00227568 0.00372762 -1.83536e-21)
(0.00225107 0.00385397 2.97195e-21)
(0.00171507 0.00353099 1.95183e-21)
(0.00123674 0.00220755 0)
(0.00121003 0.00224043 4.11857e-22)
(0.00132237 0.00224796 2.4266e-21)
(0.000191012 -5.60762e-06 1.22829e-25)
(0.00220527 0.00415547 1.73038e-23)
(0.00212165 0.00404785 1.68871e-23)
(0.00205843 0.00395315 0)
(0.00226019 0.00384794 8.92705e-22)
(0.001225 0.0021707 -3.56525e-21)
(0.0014258 0.00231578 8.1202e-21)
(0.000985213 6.77874e-05 3.17648e-21)
(0.00224231 0.00388143 -1.53331e-21)
(0.00123441 0.00220392 -2.97068e-22)
(0.00124402 0.00228655 3.27962e-22)
(0.00121187 0.00224209 -2.83712e-21)
(8.20062e-05 -0.000167068 1.03926e-20)
(0.00225859 0.00384603 3.92618e-21)
(0.000731124 0.000532744 -3.47009e-21)
(0.00222912 0.00401526 -9.63092e-22)
(2.76914e-05 -4.30053e-05 1.25457e-21)
(0.00240071 0.004017 -1.77026e-23)
(0.00234228 0.00391456 -2.80177e-21)
(5.70571e-05 0.0004621 3.74746e-22)
(0.00129788 0.00229727 -3.01739e-21)
(0.00121014 0.00225594 -3.26045e-21)
(0.00124439 0.00230885 -3.25879e-22)
(0.00121749 0.00226403 -3.62596e-22)
(0.0012313 0.00220055 0)
(0.00124903 0.00197632 0)
(0.00225837 0.00384504 -1.01759e-21)
(0.00238137 0.00404812 -7.59352e-22)
(0.00233567 0.00390549 0)
(0.0012326 0.00217754 3.86088e-21)
(0.00226185 0.00380783 -1.71158e-21)
(9.48082e-06 -1.15566e-05 2.57633e-21)
(0.00124897 0.00230672 1.74326e-22)
(0.00122338 0.00226318 1.56091e-21)
(0.00109705 1.96077e-05 9.54631e-21)
(0.00017713 1.95326e-06 -3.07359e-20)
(0.000787159 0.00158749 4.84533e-21)
(0.000896175 6.76932e-06 -1.33913e-20)
(0.00225707 0.00384416 -2.21692e-21)
(0.00121967 0.00219727 -4.35751e-22)
(0.00129324 0.00217651 8.25907e-22)
(0.00122832 0.00219597 2.03454e-21)
(0.00125515 0.00231775 8.24968e-22)
(0.00122919 0.00227387 1.81536e-22)
(0.00238445 0.00380604 0)
(0.0012461 0.00230285 0)
(0.0012205 0.00225944 2.19705e-22)
(0.000636688 0.000591103 -6.03138e-21)
(0.00124117 4.36542e-05 2.51986e-21)
(0.000452983 0.000552141 -9.56628e-21)
(0.00125529 0.00231599 6.93567e-22)
(0.00122944 0.00227217 -1.14096e-22)
(0.00228455 0.00407288 -3.88045e-21)
(0.000605364 0.000515216 3.57533e-21)
(0.00124255 0.00182761 -4.5732e-22)
(0.00124363 0.00220696 4.15569e-21)
(0.00103191 0.000181927 3.70738e-21)
(0.00236653 0.00384838 0)
(0.00232043 0.00402078 -3.68437e-21)
(0.00125426 0.00231353 9.6455e-22)
(0.00122854 0.00226972 1.05624e-21)
(0.000110652 0.000107721 -1.10625e-20)
(0.00124418 0.00229931 0)
(0.00121847 0.00225604 0)
(0.000979534 0.000155244 2.77994e-21)
(0.00253117 0.00421613 3.56415e-21)
(0.00228253 0.004115 -7.44123e-23)
(0.00240191 0.00435419 0)
(0.00233459 0.00424015 -3.64654e-23)
(0.00225782 0.00397007 -3.61536e-21)
(0.000960484 1.7822e-05 0)
(0.00125336 0.00231136 0)
(0.00122774 0.00226761 1.17668e-21)
(0.00104101 0.00279916 0)
(0.0023283 0.0040571 -3.23493e-21)
(0.00126054 0.00234058 1.33787e-23)
(0.00122946 0.00229245 2.41705e-22)
(0.00149677 0.00176556 -1.98216e-22)
(0.00231754 0.00405996 -6.12875e-21)
(0.00125151 0.0023097 1.09971e-21)
(0.00122594 0.00226603 2.53386e-21)
(0.00233688 0.00405753 3.82337e-21)
(3.82364e-05 3.62733e-06 8.85741e-21)
(0.00239181 0.00405104 3.54699e-21)
(0.00233614 0.00391412 0)
(0.00221086 0.00395324 3.24996e-21)
(0.00230433 0.00406345 1.01692e-23)
(0.0022075 0.00394788 -3.41188e-21)
(0.00230737 0.00405658 3.10622e-21)
(2.93972e-05 -3.77906e-05 -7.1131e-23)
(0.00220796 0.00395773 5.00557e-23)
(0.00228828 0.00407169 2.86409e-21)
(0.000886813 -1.91894e-05 1.47185e-20)
(0.00124068 0.00228822 2.24845e-21)
(0.00121403 0.00224581 2.74426e-21)
(0.00122149 0.00217778 6.18133e-22)
(0.00245819 0.00427069 3.26708e-21)
(0.000575103 0.000589611 5.67074e-21)
(0.00220834 0.00395647 -2.8064e-23)
(0.0022772 0.00406656 0)
(0.000124907 0.000111456 -5.69728e-21)
(0.00220979 0.00395471 0)
(0.00227041 0.00405891 0)
(0.00229929 0.00399439 3.72317e-21)
(0.00220853 0.00395222 -2.71441e-21)
(0.00226795 0.00405346 -7.36379e-21)
(0.00207318 0.00404324 5.18543e-22)
(0.00220392 0.00395314 -9.57932e-21)
(0.00229065 0.00406428 0)
(0.0021802 0.00379863 6.63138e-21)
(0.0012281 0.00219255 0)
(0.00220988 0.0039493 0)
(0.0022679 0.00404932 0)
(0.00217547 0.00382044 1.53651e-24)
(0.00124232 0.00228409 2.98615e-22)
(0.00121234 0.00224353 -2.67831e-21)
(0.00122117 0.00217279 -1.88768e-23)
(0.00220846 0.00394917 -2.33176e-21)
(0.00226637 0.00404919 -7.25634e-23)
(0.0029809 0.00339859 1.39902e-20)
(0.00214172 0.00423583 -5.58159e-23)
(0.00224579 0.00433069 -8.12828e-23)
(0.00218191 0.00422553 -4.4424e-24)
(0.00217831 0.00383548 4.24281e-23)
(0.00218731 0.00384748 3.00843e-21)
(0.00220718 0.00394754 0)
(0.00226517 0.00404776 0)
(0.00122768 0.00219014 -1.93524e-21)
(0.00220686 0.00394561 -1.97941e-21)
(0.00226483 0.0040459 -1.85381e-21)
(0.0022026 0.00395482 0)
(0.00227731 0.00406681 -3.85704e-23)
(0.00219266 0.00384579 5.45518e-21)
(0.000909821 1.24505e-05 4.52765e-21)
(0.00220561 0.00394339 -1.85862e-21)
(0.00226361 0.0040435 0)
(0.0022738 0.00367392 1.80061e-21)
(0.00219364 0.00384283 -3.21982e-23)
(0.00225522 0.00420826 -1.39145e-20)
(0.00218308 0.00384454 -2.99321e-21)
(0.00220606 0.00393875 -1.62347e-21)
(0.0022638 0.00403857 -7.25479e-23)
(0.00219068 0.00384792 -5.77788e-21)
(0.00124732 0.00229338 -2.63751e-21)
(0.00121177 0.00224395 -2.86878e-21)
(5.50746e-05 0.000387226 5.3934e-22)
(0.00122346 0.00217066 2.87237e-21)
(0.00122688 0.0021868 2.593e-21)
(0.00219237 0.00383993 -2.27081e-21)
(0.00220647 0.00393929 1.35348e-21)
(0.00226427 0.00403947 1.23812e-21)
(0.00220661 0.003953 2.50351e-21)
(0.00226461 0.00405397 4.72249e-21)
(0.00220352 0.00395281 -5.82677e-21)
(0.00226888 0.00405946 -2.64569e-21)
(0.00220424 0.00393772 0)
(0.00226211 0.00403798 1.09084e-21)
(0.00219042 0.00383795 -3.40264e-23)
(0.00220261 0.00393411 1.03146e-21)
(0.00226077 0.00403402 9.42938e-22)
(0.00218975 0.0038363 0)
(0.00122516 0.00218406 8.97457e-24)
(0.00219368 0.00384484 -5.35716e-21)
(0.00124259 0.00229371 0)
(0.00121681 0.00225064 2.20545e-21)
(0.00220294 0.00393485 0)
(0.00226086 0.00403434 -7.14374e-22)
(0.00103142 4.78935e-05 -2.87464e-24)
(0.00218866 0.00383304 1.69465e-21)
(0.00123267 0.00218437 2.37791e-21)
(0.00219775 0.00393974 1.22091e-21)
(0.00225538 0.0040397 1.10457e-21)
(0.00140764 0.00314131 -7.43424e-21)
(0.00220559 0.00395299 5.43919e-21)
(0.00226594 0.00405451 -2.62249e-23)
(0.00219204 0.00384721 5.7213e-21)
(0.000100342 3.54263e-05 -6.05842e-21)
(0.00218699 0.00382989 1.51627e-21)
(0.000398868 -9.15478e-05 0)
(0.00222766 0.00405146 -7.45264e-22)
(0.00217061 0.00395178 -8.3286e-22)
(0.00173752 0.0014725 1.28845e-20)
(0.000927093 3.84903e-05 0)
(0.00219356 0.00384224 2.39219e-21)
(0.00218599 0.00382738 2.3417e-24)
(0.00218489 0.00382571 9.7514e-22)
(0.00124241 0.00220051 3.39183e-21)
(0.00218319 0.00382642 1.5105e-21)
(0.00010618 0.000737265 4.85776e-21)
(0.00217851 0.00383537 0)
(0.00220506 0.00394863 -2.57415e-21)
(0.00226317 0.00404872 0)
(0.000921201 2.4004e-05 0)
(0.0021937 0.0038447 5.21681e-21)
(0.00104568 0.00191724 3.65697e-21)
(0.00220579 0.00487395 7.19e-21)
(0.00219206 0.0038393 6.45591e-21)
(0.000632658 0.000446438 -1.52074e-20)
(0.00208979 0.00442228 -1.24415e-21)
(0.00220433 0.0039473 2.30505e-21)
(0.00226229 0.00404699 4.27608e-21)
(0.000989682 4.9321e-05 -8.96602e-21)
(0.00105877 0.00140298 -1.61865e-20)
(3.16786e-05 -9.05343e-06 -7.04704e-26)
(1.18449e-05 9.63962e-05 5.23334e-21)
(0.00220372 0.00393962 1.6248e-21)
(0.00226156 0.00403953 3.05011e-21)
(0.00219357 0.00384219 -2.40956e-21)
(0.00222111 0.0038451 1.16186e-22)
(0.0021902 0.00383556 7.84469e-23)
(0.00220293 0.00394665 0)
(0.00226091 0.00404665 -2.05568e-21)
(4.27996e-05 -1.03685e-05 3.80361e-21)
(0.00126173 0.00230225 -3.0913e-23)
(0.00121173 0.00224407 3.02302e-21)
(0.00203415 0.00422596 -2.98189e-21)
(0.00220337 0.00393783 7.92205e-23)
(0.00226109 0.00403775 7.31588e-23)
(7.36664e-05 0.000539791 -2.59855e-21)
(0.00219261 0.00383968 -2.16647e-21)
(0.00258264 0.00430779 0)
(0.00164292 0.00335245 2.29609e-21)
(0.000419501 0.000352894 4.22536e-24)
(0.00218869 0.00383199 1.57981e-21)
(0.00246686 0.00426137 -3.37017e-21)
(1.84148e-05 -4.66787e-05 -6.16328e-22)
(0.00220196 0.00394499 -9.15694e-24)
(0.0022599 0.00404509 3.70724e-21)
(0.00129313 0.00099171 -6.51461e-21)
(0.00218744 0.00382927 0)
(0.0021912 0.00383925 0)
(0.00220196 0.00394314 1.84777e-21)
(0.00225999 0.00404313 0)
(0.000971506 0.000130365 1.0202e-21)
(0.00215742 0.00392847 0)
(0.00219993 0.00393208 -4.03517e-23)
(0.00225782 0.00403163 1.58892e-21)
(0.00112633 0.00115902 -1.39795e-20)
(0.00218647 0.00382769 1.06554e-21)
(0.00219029 0.00383606 -1.78425e-21)
(0.00220173 0.00394106 0)
(0.00225975 0.00404092 3.54736e-23)
(3.39321e-05 -3.38159e-05 -3.60561e-21)
(0.000968528 0.000262418 5.40951e-22)
(0.00218443 0.00382748 -8.10638e-22)
(0.00221716 0.00374274 2.41068e-23)
(0.00214539 0.00362741 4.36029e-23)
(0.00207581 0.00350782 6.32277e-23)
(8.25647e-05 -9.36878e-05 2.47613e-20)
(0.00233589 0.0039568 0)
(0.00240156 0.00406117 0)
(2.99235e-05 0.000139193 -9.06782e-26)
(0.00218876 0.00383286 0)
(0.00220132 0.003939 -1.44534e-21)
(0.00225921 0.00403882 -2.71867e-21)
(0.0021882 0.00394509 1.44655e-21)
(0.00224545 0.00404486 1.30194e-21)
(0.000167412 8.80148e-05 -8.85143e-21)
(0.00143634 0.000147731 1.31341e-20)
(0.00107127 -0.000210088 -6.7932e-21)
(0.000963537 0.00017711 1.16195e-20)
(0.00104624 0.000680213 -9.77314e-21)
(0.00233083 0.0039229 1.69384e-23)
(0.00239066 0.00402533 1.5455e-23)
(0.000942308 3.46466e-05 -2.09703e-21)
(0.00218141 0.00383273 5.86487e-22)
(0.00240604 0.00403509 1.5708e-22)
(0.00234718 0.0039326 -1.91696e-22)
(0.00248884 0.00447692 -1.10855e-23)
(0.00241594 0.00436345 2.32011e-22)
(0.00232763 0.00424382 2.48476e-23)
(9.25943e-05 -0.000107105 -1.58172e-20)
(0.00240671 0.00403428 4.01714e-22)
(0.00234797 0.00393188 2.10949e-22)
(0.00240603 0.00403302 0)
(0.00234731 0.00393067 -1.04345e-21)
(0.00240534 0.00403207 0)
(0.00234644 0.00392973 2.88069e-22)
(0.00240553 0.00403101 1.23794e-21)
(0.00234665 0.0039287 1.314e-21)
(0.00218752 0.00383001 2.77274e-21)
(0.000548886 -7.73242e-05 0)
(0.00220124 0.00393716 -2.55895e-21)
(0.00225913 0.00403717 -2.33999e-21)
(0.00233758 0.0043703 -2.19109e-22)
(0.00227473 0.00426399 -5.27873e-23)
(0.00230826 0.00428141 6.84629e-23)
(0.00241607 0.0045111 8.86663e-23)
(0.00234298 0.00439851 1.70411e-22)
(0.00353258 0.00092507 9.29392e-21)
(0.00240268 0.00402125 -2.54424e-21)
(0.00234411 0.00391882 0)
(0.00135097 0.00157226 0)
(0.000792382 1.40804e-05 0)
(0.000161991 5.4478e-06 -4.78762e-21)
(0.00220086 0.00393491 0)
(0.00225884 0.00403488 0)
(4.4976e-05 -3.0791e-05 0)
(-0.000112402 0.00192167 8.87042e-21)
(-0.000219678 0.00169536 -9.12466e-21)
(3.06894e-05 0.00018476 -2.00516e-22)
(0.00239733 0.0040554 -3.50716e-21)
(0.00233873 0.00391657 5.34963e-21)
(0.00218682 0.00382797 1.13495e-21)
(0.000840185 1.61747e-05 8.08753e-21)
(0.000948373 3.59039e-05 0)
(0.000771364 -4.84062e-06 -4.98674e-21)
(0.0024952 0.00448113 2.70162e-22)
(0.00242586 0.004366 0)
(0.00226237 0.00385307 -2.7046e-21)
(0.00225996 0.00385294 -1.91961e-21)
(0.00108475 3.26943e-05 -1.49988e-23)
(0.00219799 0.00393354 2.76503e-21)
(0.00225612 0.00403311 1.69768e-21)
(0.00225935 0.00385244 0)
(0.00208937 0.00450672 1.85667e-21)
(0.00225848 0.00385151 3.81786e-23)
(0.000269033 0.000114288 0)
(0.00105749 0.0024641 8.16775e-21)
(9.19537e-05 -7.04569e-05 -1.6309e-26)
(7.40132e-05 9.1478e-06 4.49827e-25)
(0.000246062 0.000138847 8.41243e-21)
(0.00121242 0.0014975 1.95542e-20)
(0.000846479 4.27398e-05 -2.03023e-24)
(0.000967173 0.0001127 -6.98993e-21)
(0.0021848 0.00382702 8.53587e-22)
(0.00235764 0.00424957 1.31805e-22)
(0.000340852 0.000247115 0)
(0.000909399 0.000635101 -9.30909e-21)
(0.00228097 0.000207761 1.28925e-20)
(3.37311e-05 -2.81579e-05 -4.21752e-21)
(0.00254231 0.00419755 0)
(0.000993585 0.000114585 -1.86571e-21)
(0.00219523 0.00393587 -2.11254e-21)
(0.00225314 0.00403531 -1.27093e-21)
(0.000969876 4.08403e-05 0)
(0.000868493 0.00402956 -6.41868e-21)
(0.000448815 0.00047347 -1.98848e-20)
(0.00216541 0.00385448 3.42049e-22)
(0.000914737 -4.39722e-05 -7.04863e-21)
(0.00011906 -0.000129475 1.11537e-20)
(0.000108784 -0.000131956 -7.45912e-21)
(0.00189639 0.00442482 -3.96826e-21)
(0.000930332 7.56022e-06 0)
(0.00239799 0.00403027 5.23565e-22)
(0.00233913 0.00392793 0)
(0.00218234 0.00383031 0)
(0.00122722 0.000773603 -2.00969e-20)
(0.000867639 6.01257e-05 -2.78607e-25)
(0.00219088 0.00393991 -1.64525e-21)
(0.0022486 0.00403983 -1.48534e-21)
(0.000123282 -0.000103655 2.12083e-20)
(0.000987665 4.65052e-05 1.03535e-21)
(0.000884453 6.19503e-05 0)
(0.00225811 0.00386001 1.02046e-21)
(0.000655502 0.000478874 -1.496e-20)
(0.00224675 0.0038564 6.67496e-22)
(0.0013822 0.000217085 0)
(0.000941319 4.92134e-05 0)
(0.00226188 0.00385944 -4.39793e-22)
(0.00240394 0.00402391 3.65436e-22)
(0.00234526 0.00392182 1.52682e-21)
(0.001347 0.000272933 -3.77139e-21)
(0.000226789 0.000138354 8.02081e-21)
(0.00234398 0.00391955 -1.75853e-21)
(0.00240254 0.0040216 -1.61221e-21)
(0.00226263 0.00385772 0)
(0.00234275 0.00391734 2.02909e-21)
(0.00240127 0.00401945 1.86182e-21)
(0.000380069 0.000343473 0)
(0.00234103 0.00391308 -2.41837e-21)
(0.0023996 0.00401615 0)
(0.00233874 0.00391237 -6.70382e-22)
(0.0023968 0.00401874 -6.19321e-22)
(0.00233754 0.00391277 5.72739e-21)
(0.00239459 0.00403976 -6.5372e-22)
(0.00226264 0.00385488 0)
(0.000909156 7.58964e-05 -5.26315e-21)
(0.00218337 0.00406228 4.12698e-21)
(5.29093e-05 -2.52418e-05 1.50929e-20)
(0.000972327 0.000688199 4.62194e-21)
(0.00226199 0.00385152 -7.80683e-22)
(1.12497e-05 3.50417e-05 0)
(0.000293814 0.000234675 -1.28686e-20)
(0.00237506 0.00426213 0)
(0.0022553 0.00366539 3.59986e-21)
(0.00247547 0.00448433 -4.01317e-22)
(0.00240682 0.0043684 3.07062e-22)
(0.000973334 0.00035025 1.02605e-20)
(0.000925532 3.42575e-05 -2.68665e-21)
(0.000713753 0.00193116 -1.29914e-20)
(1.90689e-05 -3.08367e-05 6.07997e-22)
(0.00225577 0.00384502 2.44417e-21)
(0.00225409 0.00384646 0)
(0.00225058 0.00384914 0)
(0.000164214 0.000133537 0)
(0.00224162 0.00386115 1.72554e-21)
(0.00224551 0.00387102 3.13049e-21)
(0.000802998 0.00130529 1.55665e-20)
(0.00224025 0.00477547 9.57347e-21)
(0.00111694 0.000649308 0)
(4.5206e-05 -3.18344e-05 -8.13551e-21)
(0.000941444 1.54925e-05 -5.73226e-25)
(0.000467915 0.00130263 8.57306e-21)
(0.000993325 0.000107157 -5.67728e-22)
(2.40586e-05 -0.000105375 -5.13796e-22)
(0.000302262 0.000133921 0)
(0.000962937 4.82864e-05 1.14644e-20)
(0.00023144 0.000372415 5.77803e-25)
(8.93222e-05 0.00222779 0)
(0.00092927 8.28893e-05 0)
(0.00212866 0.00437451 -4.13453e-21)
(2.53124e-05 -2.78406e-05 3.10941e-21)
(0.000456997 0.000149067 1.50684e-20)
(0.000976584 -0.000725303 1.14328e-21)
(0.000713874 0.00115554 1.66408e-20)
(0.00118951 0.000919989 -8.23256e-21)
(2.27031e-05 -2.44491e-05 -1.2997e-20)
(0.00171621 0.00122068 1.43187e-20)
(0.00118532 0.000155882 -2.88397e-21)
(0.000960179 1.72899e-05 -9.69729e-22)
(0.00117127 9.12553e-05 9.97986e-21)
(0.00095821 4.07399e-05 -1.4332e-22)
(1.83591e-05 -3.85671e-05 0)
(0.000958825 -4.25054e-05 -1.66641e-20)
(0.00148187 0.00231458 3.83755e-21)
(0.000930814 7.24677e-05 1.22571e-20)
(3.71653e-05 -7.15495e-05 0)
(6.45737e-06 0.00177192 -3.39168e-21)
(0.000245211 -0.000277267 0)
(0.000168409 0.000167749 9.33288e-21)
(0.00253313 0.00437337 6.82397e-21)
(0.000948705 2.04225e-05 -1.30316e-21)
(0.000488098 -0.000363035 0)
(0.000509917 0.000129599 9.21487e-21)
(0.000301953 0.000274534 2.54203e-24)
(0.00114308 6.88971e-05 0)
(0.00239616 0.00426701 3.199e-23)
(1.92664e-05 -2.78098e-08 0)
(0.00217372 0.00384506 0)
(0.000267896 0.000302344 0)
(0.000198169 0.0015577 0)
(0.00185188 0.00447669 5.84607e-21)
(0.00260051 0.00430997 6.96278e-21)
(0.000908467 0.000781739 8.23184e-21)
(5.04953e-05 -7.41477e-05 4.9468e-21)
(0.000969223 2.98343e-05 0)
(0.000154737 0.000189641 0)
(0.000503905 0.00022607 -2.19487e-21)
(2.69071e-05 -1.88131e-06 0)
(4.07739e-05 -2.07868e-05 4.95161e-21)
(0.000295338 0.000109803 6.77745e-25)
(0.000174187 0.00014969 0)
(0.000428479 0.000196303 1.15396e-20)
(0.0011529 0.000155669 -3.7444e-21)
(7.45865e-05 -8.4656e-06 -6.16327e-21)
(0.00099753 7.47501e-05 1.41245e-22)
(0.000117373 -0.000164734 2.43871e-24)
(0.00116878 0.000157812 2.36898e-21)
(0.00140819 0.00221655 1.09779e-20)
(0.000961528 4.16561e-05 1.39961e-22)
(4.09297e-05 -7.97524e-05 0)
(0.00124542 0.00314895 0)
(0.000957095 1.8409e-05 -6.16639e-22)
(3.8813e-05 -9.69164e-05 2.74954e-21)
(0.00117179 0.00158928 3.09913e-21)
(0.00127905 0.000440092 2.73771e-21)
(0.000166262 0.00287713 0)
(0.000768385 5.89911e-05 -2.37294e-21)
(1.27123e-05 -1.48572e-06 0)
(-3.2788e-05 0.00075243 6.87524e-21)
(0.00012332 -1.57877e-05 9.59242e-21)
(0.000967509 7.23882e-06 -4.18057e-24)
(0.000253834 -0.000430888 -6.12445e-21)
(0.000565084 0.000996292 -1.54273e-20)
(0.000111684 -2.10771e-05 0)
(0.00115726 0.000703472 -2.78347e-23)
(0.000904674 1.75316e-06 0)
(0.000818591 4.23666e-05 7.10965e-21)
(0.000143955 0.000121101 -5.40116e-21)
(0.000942603 1.41813e-05 2.39661e-21)
(0.000141041 -0.000155276 3.12041e-24)
(0.00242211 0.0043803 3.81531e-22)
(0.00248998 0.00449724 0)
(0.000541447 0.000263776 1.01039e-20)
(0.00106651 0.000900008 -1.77405e-24)
(0.000953016 1.85535e-05 1.19916e-21)
(0.00130515 0.000628395 5.56223e-21)
(7.72823e-05 2.52337e-05 1.28726e-20)
(0.000216509 0.000168718 5.7989e-21)
(0.000851595 8.91558e-05 2.72758e-20)
(0.00101465 -5.85965e-06 -2.87976e-20)
(0.00266543 0.00433192 1.08078e-20)
(0.000132597 -8.4603e-06 2.12779e-20)
(0.000951168 4.07465e-05 0)
(0.000278239 0.000141825 -8.88729e-21)
(0.000202632 0.000130838 8.39187e-21)
(0.000172922 -0.000357954 2.46645e-21)
(0.000155568 0.000122386 1.63489e-20)
(0.000395466 0.00012772 1.00846e-20)
(0.000138183 -0.000127073 2.67868e-24)
(0.000386457 0.000162 4.59451e-25)
(3.75594e-05 -5.89567e-05 0)
(0.000965868 4.52983e-05 0)
(0.000947208 2.64903e-05 2.04787e-21)
(0.000236974 0.000189856 1.19072e-20)
(0.00038885 0.000149367 0)
(0.000383418 -4.59823e-05 6.53926e-21)
(0.000195229 0.0001072 0)
(0.00094964 2.81161e-05 -2.16948e-21)
(0.000331001 -0.000336046 5.01401e-21)
(0.000174274 -0.000189707 1.43047e-20)
(7.53544e-05 -5.72204e-05 1.58043e-21)
(0.000466011 0.000190534 -1.93339e-24)
(0.000523958 0.000222987 0)
(0.000368286 0.000396531 0)
(0.000955025 2.50543e-05 0)
(0.000195014 0.000180512 -3.39741e-21)
(0.000980122 4.60523e-05 -8.82636e-21)
(0.00013042 -0.000176059 -7.30438e-21)
(0.000287911 0.00154156 5.43818e-21)
(0.000131594 0.000139811 0)
(0.000816628 0.000747851 0)
(0.000414483 -3.88047e-06 0)
(0.000955841 -7.46502e-05 1.82838e-20)
(0.000910839 0.000692876 -1.25342e-20)
(9.4032e-05 0.00103928 5.27525e-21)
(4.85264e-05 -7.48074e-05 0)
(0.00185571 0.00451295 5.41724e-22)
(0.000947028 -1.64911e-05 2.3008e-21)
(0.000859997 0.000822481 1.69147e-20)
(0.000930338 -3.39688e-05 -2.78527e-25)
(0.000270198 0.000265446 -8.44925e-21)
(0.00102585 2.05013e-05 0)
(8.17237e-05 6.43364e-05 4.53193e-21)
(0.000192788 -0.000219861 -5.15231e-21)
(0.000315772 0.000169314 9.39956e-21)
(5.13502e-05 -9.46428e-05 -1.02248e-20)
(9.59778e-05 1.45215e-05 -3.88998e-21)
(0.000989602 4.80671e-05 5.23379e-21)
(0.000198491 1.68588e-05 4.31405e-21)
(0.000919086 0.000996889 0)
(0.00111285 0.000172947 1.64145e-20)
(0.000248066 1.19827e-05 0)
(7.93579e-05 -1.57426e-05 -5.89549e-21)
(0.000234626 -0.000231087 -9.08126e-21)
(0.000424927 0.000944387 -6.1355e-21)
(0.00094568 3.83666e-05 9.52431e-21)
(0.000568867 0.000300146 -7.76474e-21)
(8.06679e-05 2.75249e-05 -1.08915e-20)
(0.00141673 0.000645969 -1.33239e-20)
(0.000321101 0.000677106 -2.24142e-20)
(0.000953076 -2.58404e-05 0)
(5.24729e-05 -0.000108806 0)
(0.000967242 1.89112e-05 -1.34423e-22)
(0.00032127 -0.000266265 -9.09665e-21)
(0.00101947 3.70434e-05 4.71428e-21)
(0.000955065 1.66527e-05 -8.4196e-21)
(2.47902e-06 1.34894e-05 -1.0486e-21)
(2.96486e-05 -2.09924e-05 -5.70505e-21)
(0.000268132 -0.000327326 -6.28454e-21)
(0.000120172 -3.06332e-05 0)
(0.00100323 2.88524e-05 0)
(0.000681598 0.000146223 -2.74682e-22)
(2.91039e-05 1.88328e-05 7.60328e-21)
(0.00112014 0.000472394 -1.71922e-21)
(0.00243332 0.0042518 3.53262e-22)
(0.000114348 -5.93736e-05 -3.21105e-25)
(0.00112277 0.00040346 6.84754e-21)
(0.000231119 0.000565578 2.79189e-25)
(8.86154e-05 -5.07993e-05 -4.3458e-21)
(0.00100466 2.91579e-05 0)
(2.2761e-05 -9.16858e-07 -8.48642e-21)
(7.0145e-05 -4.90922e-05 0)
(0.00100644 -2.264e-05 0)
(0.000939351 9.81554e-06 -2.78109e-22)
(0.000721009 0.000283416 -1.47346e-20)
(0.000491413 0.000280641 -5.72336e-21)
(0.00111255 0.0013036 9.99056e-21)
(2.48956e-06 1.9778e-05 0)
(0.000247469 0.000261615 8.82663e-21)
(4.42175e-05 3.05807e-06 -4.95949e-21)
(0.000508816 0.000562349 7.89892e-21)
(0.00031212 0.000312017 8.93618e-21)
(0.000965191 2.74506e-05 -2.77107e-22)
(3.30621e-05 1.33235e-05 0)
(0.000225224 1.09933e-05 0)
(4.7067e-06 0.000134544 1.06186e-21)
(-7.93589e-06 0.000628213 -8.50566e-21)
(0.000125315 0.000296959 -8.61602e-25)
(0.00101887 8.78184e-06 -5.06885e-22)
(0.000643257 -0.000265776 -6.13282e-21)
(0.000176787 2.03997e-05 4.47403e-21)
(0.000975622 0.000919608 -9.70578e-21)
(0.00240957 0.0042688 7.11476e-23)
(0.000513428 -0.000252319 -1.49792e-20)
(0.000964314 2.56866e-05 -9.31e-22)
(0.000921224 0.000841911 -2.62688e-20)
(1.27283e-05 0.00084948 0)
(0.000132616 -9.13586e-05 0)
(0.00125589 0.000589597 0)
(0.000936911 4.69265e-06 0)
(1.41599e-06 0.000572705 0)
(0.000842202 9.26256e-05 -4.23393e-21)
(-6.21147e-06 0.000301876 -6.72383e-21)
(0.000965378 5.62208e-05 -1.3184e-21)
(0.000176843 0.000194897 0)
(6.74375e-06 0.000484148 -4.44457e-21)
(-3.08802e-05 0.000755939 -7.90672e-21)
(0.00233841 0.00466009 1.43908e-23)
(0.00115985 8.37903e-05 -1.63479e-20)
(0.000735191 0.000644066 -4.27754e-21)
(0.000986851 2.20799e-05 0)
(0.000135273 -0.000106814 -1.02714e-20)
(6.82458e-05 4.2373e-05 4.43954e-21)
(0.000134607 0.000160472 7.52918e-21)
(1.15611e-05 0.000275868 3.32146e-21)
(0.000924934 5.04952e-07 0)
(0.000914237 3.93109e-05 0)
(-6.36943e-06 0.000224538 0)
(0.000852508 0.000636265 6.9475e-21)
(3.64257e-06 0.000169988 2.04091e-21)
(0.000466184 0.000876116 -1.61177e-20)
(0.000219973 0.000111216 9.05474e-21)
(1.7827e-07 0.000206768 -4.00226e-21)
(0.000912582 -4.10699e-05 0)
(8.45435e-05 -0.000161194 0)
(0.00101672 8.68569e-06 2.33963e-21)
(7.42635e-05 2.4428e-05 -1.72308e-20)
(4.62164e-05 4.10523e-06 7.30969e-21)
(0.000345433 -4.36346e-05 -9.32501e-22)
(-7.3384e-07 0.000108078 -2.69642e-21)
(0.00097409 -6.88792e-05 9.56835e-21)
(0.000952035 3.58106e-06 -1.10627e-21)
(0.000151682 -0.000313905 3.68607e-21)
(3.85126e-05 3.26286e-05 -4.04087e-22)
(0.000242677 0.000113981 1.65121e-25)
(0.00076447 4.84634e-05 0)
(0.000461823 -1.73129e-05 -9.48566e-25)
(0.000290398 0.000173107 -8.51267e-21)
(0.000170675 -0.000158206 0)
(0.00245296 0.00421959 3.9358e-21)
(7.40379e-05 5.16066e-05 5.12641e-21)
(0.000768699 0.000304202 8.95876e-21)
(0.000347927 -0.000580192 1.11394e-20)
(0.000477614 0.000166447 -9.88032e-21)
(0.000379679 8.76022e-05 -9.16901e-21)
(0.000245883 0.000232192 -1.58505e-20)
(0.000150648 0.000159154 -5.81627e-21)
(0.0009031 0.000399527 0)
(1.29458e-06 3.91518e-05 -4.24766e-21)
(0.00101016 -2.80828e-06 2.32472e-21)
(0.00101743 1.89947e-05 0)
(0.000923658 1.64289e-05 1.65718e-21)
(0.000652809 0.000123658 5.20177e-21)
(0.000934128 5.76432e-05 0)