/*--------------------------------*- C++ -*----------------------------------*\
  =========                 |
  \\      /  F ield         | OpenFOAM: The Open Source CFD Toolbox
   \\    /   O peration     | Website:  https://openfoam.org
    \\  /    A nd           | Version:  8
     \\/     M anipulation  |
\*---------------------------------------------------------------------------*/
FoamFile
{
    version     2.0;
    format      ascii;
    class       volVectorField;
    location    "7";
    object      U;
}
// * * * * * * * * * * * * * * * * * * * * * * * * * * * * * * * * * * * * * //

dimensions      [0 1 -1 0 0 0 0];

internalField   nonuniform List<vector> 
6388
(
(0.000943785 2.51043e-05 1.15642e-21)
(0.000932112 1.4095e-05 0)
(0.000154825 -2.06632e-05 0)
(0.000871685 0.000324966 -4.64822e-22)
(0.000749209 0.00133037 3.18848e-21)
(0.000653543 0.00113271 -2.21274e-23)
(0.00044497 0.000476368 2.22206e-21)
(0.000623223 0.000781762 2.18564e-21)
(0.000349379 0.00026313 -9.53262e-22)
(0.000124151 0.000659593 0)
(0.000597619 0.00115172 0)
(9.03925e-05 0.00067511 0)
(0.000591949 0.000599962 2.0132e-25)
(0.000667784 0.00122106 2.40665e-21)
(0.000491947 0.000565907 3.24955e-21)
(0.000611926 0.000700284 0)
(0.000554475 0.000887061 2.48815e-21)
(0.000627814 0.00113336 -2.95961e-23)
(0.000285528 0.000573574 0)
(0.000144031 0.000452956 2.36688e-24)
(0.000512718 0.000694824 -1.15846e-21)
(0.000664506 0.000810369 0)
(0.000660481 0.00121194 -9.88611e-22)
(0.000772576 0.00132678 9.5998e-22)
(0.000692481 0.00116004 -2.39639e-21)
(0.000214726 0.000595819 -1.99881e-22)
(0.000651057 0.000594525 0)
(0.000474184 0.00074735 5.85719e-22)
(0.000351248 0.000686833 9.72272e-22)
(0.000720031 0.000251987 -2.31709e-21)
(0.000653705 0.0011812 0)
(0.000669898 0.00121476 9.47508e-22)
(0.000671957 0.00109633 -2.54427e-21)
(0.000603595 0.00123601 1.36049e-21)
(0.000655304 0.00118635 1.74465e-21)
(0.000594702 0.00112208 0)
(0.000697319 0.00114526 5.89325e-22)
(0.000186791 0.000877305 7.98028e-22)
(0.000627513 0.000607687 5.81351e-22)
(0.000603921 0.00118267 1.33512e-21)
(0.000180649 0.000515641 2.76216e-21)
(0.000181201 0.000535246 -1.26017e-21)
(0.000938062 -2.65686e-05 -1.14389e-21)
(0.000646049 0.00121109 5.44101e-24)
(0.000598034 0.000201987 -2.74893e-21)
(0.000308412 0.000744102 -5.67943e-22)
(0.000972349 2.77483e-05 -1.15271e-21)
(0.00029862 0.000421124 5.18161e-22)
(0.0009784 0.000224484 7.60747e-26)
(0.000890584 0.00072155 -1.27518e-21)
(0.000164879 -5.69111e-05 6.61416e-22)
(0.000860988 7.36322e-06 4.60051e-21)
(0.000332686 0.000443054 -3.40007e-21)
(0.000209594 0.000505744 1.26814e-21)
(0.000147085 0.000717194 1.33374e-21)
(2.80022e-05 6.7207e-05 0)
(0.000763365 0.000841742 1.94945e-21)
(0.000849689 0.00035185 0)
(5.72801e-05 0.000442974 -1.52986e-21)
(0.000345289 0.000471043 -1.92753e-21)
(0.000524259 0.000869431 9.33198e-22)
(0.000699822 0.000334226 0)
(0.000395203 0.000656511 1.54281e-24)
(0.00098473 0.000292965 4.00116e-22)
(0.00043557 0.00108215 2.01101e-21)
(3.79281e-05 2.13487e-06 1.39496e-21)
(0.000560074 0.000826435 1.34292e-21)
(0.000592025 0.000688114 1.06088e-21)
(0.000156119 0.000792017 1.64724e-22)
(3.75533e-05 -2.59909e-06 0)
(0.0014119 0.00105158 -1.40379e-21)
(0.000661816 0.00115529 -1.13477e-21)
(0.000706327 0.00107508 4.58215e-22)
(0.000538719 0.00140326 1.92242e-21)
(1.0412e-05 0.000113713 -1.91756e-22)
(0.000524688 0.000454254 4.99132e-25)
(0.000645958 0.00117081 7.70841e-24)
(0.000588991 0.00032113 -1.53011e-21)
(0.000903141 0.000314322 9.6769e-22)
(0.000668652 0.00115346 -7.48883e-22)
(0.00027488 0.000691502 3.0246e-22)
(0.000510137 0.00136925 -1.57751e-23)
(0.000372552 0.00109442 0)
(0.000363678 0.00107654 -1.52161e-23)
(0.000353014 0.00105203 0)
(0.000437677 0.00123135 -1.59295e-23)
(0.000710555 0.00134572 -1.47746e-21)
(0.000569122 0.00148623 1.67291e-23)
(0.000384604 0.0011259 -9.88762e-25)
(0.000405369 0.00116745 -1.21562e-23)
(0.000469538 0.00129828 -1.27811e-23)
(0.00034306 0.00103397 -1.14638e-23)
(3.71721e-05 1.92629e-06 -4.16728e-21)
(0.000943144 0.000153327 1.43067e-21)
(0.000556322 0.000674345 0)
(0.000907126 0.000186899 0)
(3.8765e-05 7.71027e-07 -2.83057e-21)
(0.000728225 0.00131834 6.98097e-22)
(0.000964772 0.000261932 -2.33858e-21)
(0.0011572 0.000527547 -1.50748e-21)
(0.000306367 0.000603146 -1.70748e-21)
(0.000410589 0.00128929 -8.81143e-24)
(0.000630662 0.000825814 0)
(0.000162036 0.000679988 2.71375e-21)
(0.000156248 0.000677255 -1.99145e-21)
(0.000513616 0.000876764 2.56937e-21)
(0.000311554 0.000319178 -2.39604e-21)
(0.000483112 0.000914864 0)
(0.000395758 0.000668128 1.6337e-21)
(0.000202263 9.26124e-06 -2.70336e-21)
(0.000376892 0.000512656 -1.47313e-21)
(0.000669836 0.00112825 -1.25607e-21)
(0.00051065 0.000990711 0)
(3.24404e-05 0.000453314 2.898e-22)
(0.000987131 9.06248e-05 6.00594e-22)
(0.000988384 0.000118953 -2.04909e-21)
(0.00080112 0.00126107 0)
(0.000959966 0.000106121 -4.95745e-22)
(0.000660189 0.000588927 1.47453e-22)
(8.18196e-06 0.00015088 0)
(0.000720744 0.00124873 0)
(0.000191297 -0.00013831 0)
(0.000455807 0.000661749 -1.84456e-22)
(0.000324822 0.000265371 -3.78564e-22)
(0.000672671 0.00115807 -3.90015e-22)
(0.000961219 0.00022616 1.50332e-21)
(0.00041013 0.000285741 -2.84383e-21)
(0.000517463 0.000588608 -2.20056e-21)
(3.45097e-05 0.000207637 -4.36221e-22)
(0.000161299 0.000570223 -1.6434e-21)
(0.000606585 0.00113263 9.58166e-22)
(0.000437595 0.000770765 1.54401e-21)
(0.000291951 0.000303967 -1.24635e-21)
(0.000921219 0.000173194 0)
(2.12511e-05 7.58768e-06 2.5629e-21)
(0.000838506 0.0013039 -8.54305e-22)
(0.000830116 0.00132884 1.27773e-21)
(0.000537573 0.0014228 1.21616e-21)
(0.000617328 0.00029366 -1.71328e-21)
(0.00028869 0.000687238 0)
(0.000672628 0.00125099 3.31811e-22)
(0.000874915 3.57333e-05 -1.26182e-23)
(0.000440151 0.00066379 3.44472e-23)
(0.000712247 0.000226936 2.03475e-21)
(0.000127728 0.000165479 1.09906e-21)
(0.000848683 0.000912587 0)
(0.000279672 0.000361294 1.31624e-21)
(3.53599e-05 -2.89165e-06 2.59359e-21)
(0.000803663 0.000722102 2.44207e-23)
(0.000872202 -1.07155e-05 0)
(0.000418263 0.000772262 -2.96797e-21)
(0.00095798 0.000256493 1.91585e-21)
(0.000289369 0.000708027 -1.5822e-21)
(0.000658096 0.00107823 6.02294e-22)
(0.000153938 0.000703504 2.51842e-22)
(0.000549058 0.00054936 0)
(-1.72349e-05 0.000696718 -1.21788e-22)
(0.000171936 -7.4117e-07 9.87035e-22)
(0.000692999 0.00121992 -7.61091e-22)
(0.000826905 0.00123309 2.21843e-21)
(0.000626964 0.000161873 -1.98428e-21)
(0.000975584 0.000133389 -1.81083e-21)
(0.000666592 0.00116385 -2.24006e-21)
(0.000343234 0.000881993 1.9002e-21)
(3.88447e-05 -1.21323e-06 -1.47536e-21)
(0.000582018 0.00110944 0)
(0.000612733 0.00111628 -1.23303e-21)
(0.000624127 0.0011273 9.95879e-24)
(0.000599274 0.00109292 -3.67068e-21)
(0.000148642 -0.000304687 1.83151e-21)
(0.000663661 0.0012263 1.94782e-21)
(0.000418572 0.000761983 -1.12488e-21)
(0.000627521 0.000836109 4.94056e-21)
(3.39535e-05 -3.59422e-06 0)
(0.00141798 0.000133172 1.01412e-21)
(0.000675411 0.00121907 4.33182e-21)
(0.000414934 0.000294876 -5.6576e-22)
(0.000126065 -0.000425246 8.93893e-22)
(0.000984253 5.09222e-05 -2.79315e-21)
(0.000426465 0.000772455 0)
(0.00131026 0.000799236 3.84595e-22)
(0.000268018 0.000810451 0)
(0.000666284 0.00122628 -9.8051e-22)
(0.000701729 0.0012471 6.78956e-22)
(0.000687307 0.000866974 -1.41876e-21)
(0.000671027 0.0013782 -2.8154e-21)
(0.000300822 -0.000113571 3.35738e-21)
(0.00070047 0.0012203 2.37403e-21)
(0.000825826 0.000987943 -1.47915e-22)
(0.000605972 0.0010889 -1.00591e-23)
(0.000618195 0.00111189 -5.01151e-21)
(0.000422189 0.000851284 -2.26893e-24)
(0.000657499 0.00114157 8.1818e-22)
(0.000885134 2.58592e-05 0)
(0.000582879 0.000840185 -2.7931e-21)
(0.000289666 -0.00016999 2.05725e-21)
(4.08676e-05 -1.91759e-06 0)
(0.000235651 -0.000154649 1.20006e-21)
(0.000665005 0.00122593 -2.89795e-21)
(0.000716839 0.00126257 1.02246e-21)
(0.000616368 0.00104039 1.63825e-21)
(0.000599934 0.00107472 8.68226e-22)
(2.76387e-05 -4.98447e-06 5.16188e-21)
(0.000596006 0.00107877 1.58414e-21)
(0.000618801 0.00111527 -6.07852e-24)
(0.000609089 0.00110169 0)
(0.000727244 0.00129538 -8.97068e-22)
(0.000713804 0.00129293 -1.04667e-21)
(0.000119644 -5.83446e-05 -4.28606e-26)
(0.000602218 0.000529302 1.02027e-21)
(0.000721401 0.00126846 0)
(0.000733017 0.00132178 8.096e-22)
(0.000616511 0.00104765 0)
(0.0005831 0.00107705 1.34001e-21)
(0.000680718 0.00122043 -1.42144e-21)
(0.00059056 0.0010843 0)
(0.000599092 0.00109975 6.99345e-22)
(0.000578275 0.00106163 6.92982e-22)
(0.00073906 0.00131331 -8.01676e-22)
(0.000560268 0.00106854 -1.99146e-21)
(0.000766301 0.00134946 -8.90362e-22)
(0.000581559 0.000280017 0)
(0.000805874 0.0014468 -8.43274e-22)
(0.000735455 0.00117015 -1.95294e-21)
(0.000133863 -6.63145e-05 -1.5333e-21)
(0.000641089 0.00101593 -3.47734e-23)
(0.000719248 0.00128923 1.10852e-21)
(0.00068359 0.00122283 7.48555e-22)
(0.000591281 0.00108726 0)
(0.000600274 0.00110264 -7.13719e-22)
(0.000578525 0.00106462 -7.07354e-22)
(0.000435276 0.000931397 -1.12135e-21)
(0.000726427 0.00130261 1.58799e-21)
(0.000288354 0.000370767 -7.31807e-22)
(0.000426718 0.000765545 2.28818e-21)
(0.000767541 0.00134656 -1.52844e-21)
(0.000479268 0.00104141 5.35283e-21)
(0.000833672 0.00148404 1.25215e-21)
(0.000680322 0.00118488 -1.0206e-21)
(0.000713469 0.0012504 -2.25077e-21)
(0.000614003 0.00107421 0)
(0.000622214 0.00108931 0)
(0.000601428 0.00105168 0)
(0.00066993 0.00134193 1.26594e-21)
(0.000615374 0.00110078 1.50079e-23)
(0.000623916 0.00111621 1.47845e-23)
(0.000602489 0.00107781 1.47276e-23)
(0.00069536 0.00125515 1.41341e-21)
(0.000732739 0.00132835 4.1822e-22)
(0.000653431 0.00116328 0)
(6.49897e-06 -5.89528e-05 0)
(0.000794785 0.00138783 -3.41876e-22)
(0.000728095 0.00128794 0)
(0.00059174 0.00106845 6.22325e-24)
(0.000599829 0.00108233 -1.03782e-21)
(0.000579336 0.00104626 -1.005e-21)
(0.000671554 0.00122762 -9.36932e-22)
(0.000674932 0.00122755 -2.52042e-24)
(0.000822945 0.00147403 6.85925e-22)
(0.000686283 0.00104968 -1.6929e-21)
(0.000679995 0.00121909 1.84077e-23)
(0.000662577 0.00102899 2.4489e-21)
(0.000676194 0.00105121 8.4662e-22)
(0.000747898 0.00137525 1.00541e-21)
(0.000680331 0.0012199 -6.52148e-22)
(0.000580362 0.0010532 9.59833e-22)
(0.000600594 0.00109013 -1.8852e-21)
(0.000592719 0.00107556 9.78084e-22)
(0.000599344 0.00108254 -1.96574e-21)
(0.000608058 0.00109799 -6.48046e-22)
(0.000586854 0.00105989 -6.42057e-22)
(0.000739911 0.00134916 -6.20713e-22)
(0.000625706 0.00110964 -7.54758e-22)
(0.000850011 0.00142419 -3.84851e-22)
(0.000347662 0.000744976 -9.02888e-22)
(0.000656004 0.00116418 6.74534e-22)
(0.000216523 -0.00011734 0)
(0.000580682 0.0010595 0)
(0.000634872 0.00114884 6.20192e-22)
(0.000581006 0.00104512 -5.17231e-24)
(0.000788232 0.00141184 1.62174e-23)
(0.00071612 0.00126265 0)
(0.000663923 0.00119129 -6.58115e-22)
(0.000878863 0.00070038 2.0823e-21)
(0.000574265 0.00107347 1.258e-21)
(0.000913412 0.000464826 1.37098e-21)
(0.000627655 0.00112936 7.98049e-22)
(0.000726896 0.00127165 9.57869e-24)
(0.000393961 0.000641444 2.53762e-21)
(0.000724297 0.00131127 -2.72434e-22)
(0.000792271 0.00138365 -7.44881e-22)
(0.000396353 0.000746026 -4.09271e-22)
(0.000696228 0.00121263 -1.44164e-21)
(0.000361753 0.000533703 1.40461e-21)
(0.000658319 0.00116852 8.36265e-22)
(0.000730574 0.00128537 1.60192e-21)
(2.76633e-05 -6.18267e-07 0)
(0.000572557 0.00103503 1.09129e-21)
(0.000618806 0.00104933 1.0156e-21)
(0.00083433 0.000731651 -3.22763e-23)
(0.00076318 0.00143847 -1.09817e-21)
(0.000602137 0.00107241 -2.24881e-21)
(7.07877e-06 1.24224e-05 -4.41694e-21)
(0.00077396 0.00136994 6.69647e-22)
(0.000678976 0.00120411 9.06628e-22)
(0.000659827 0.00119732 1.45222e-21)
(0.000652939 0.000995699 -8.31687e-22)
(0.000675269 0.00103149 -8.39431e-22)
(0.000666338 0.00101705 -8.47523e-22)
(0.000825212 0.00145663 -4.2732e-22)
(2.25577e-05 5.31165e-05 -1.6805e-21)
(0.000611844 0.00109317 -1.18142e-21)
(0.000153966 0.000201668 3.33289e-22)
(0.000539587 0.00105607 -1.39952e-21)
(0.000364625 0.000641537 3.24408e-21)
(0.000506535 0.000158217 -4.93182e-21)
(0.000800456 0.00144585 1.05991e-21)
(0.000826586 0.0014449 0)
(0.000345476 0.000515557 -4.60929e-22)
(0.000652856 0.00116807 -1.62637e-21)
(0.000670306 0.00110331 2.0632e-21)
(0.000283141 0.000327696 6.67862e-22)
(0.000893098 0.00141205 -7.30352e-22)
(0.000616135 0.00104449 8.99487e-22)
(0.000823278 0.00147559 2.54097e-21)
(0.000375644 0.000695621 1.07931e-24)
(0.000511714 0.000822593 -1.27004e-21)
(0.000639775 0.00109583 -2.16771e-21)
(0.000716621 0.00129243 -5.23093e-24)
(0.00058098 0.00104321 0)
(0.000630701 0.00120458 -3.42503e-23)
(0.000538376 0.0010431 1.40662e-22)
(0.000550956 0.00106553 1.43494e-22)
(0.000560031 0.0010812 1.42244e-22)
(0.000703228 0.00132709 1.41319e-22)
(0.000822587 0.00128173 -6.20629e-22)
(0.000627768 0.00112779 5.14794e-24)
(0.000617677 0.0010914 0)
(0.000604788 0.00106786 -2.07913e-21)
(0.000557403 0.00106019 0)
(2.42835e-05 0.000698106 8.64922e-22)
(0.000679068 0.00122057 6.90864e-22)
(0.000583004 0.00104384 -6.03319e-22)
(0.000545741 0.000383372 -8.28375e-22)
(0.000699355 0.00128575 6.21824e-22)
(0.000626401 0.00112875 8.25224e-22)
(0.000329772 0.000481525 -1.73589e-21)
(0.000651335 0.00116813 -6.33172e-22)
(0.000682493 0.00121767 -1.60956e-21)
(0.000589367 0.00105447 3.18199e-21)
(0.0006118 0.00109187 3.2102e-21)
(0.00060248 0.00107678 1.28248e-21)
(0.000600259 0.00107349 -1.07228e-21)
(0.000613434 0.00109688 0)
(0.000704296 0.00128721 -1.92753e-21)
(0.000789089 0.00140416 9.84154e-22)
(0.000653523 0.0010674 -6.70949e-22)
(0.000757312 0.00135495 8.10153e-24)
(0.000550666 0.00105743 2.32188e-21)
(0.00068412 0.00119981 9.49915e-22)
(0.000591141 0.00108225 0)
(0.000612292 0.00112095 0)
(0.00060389 0.00110534 0)
(0.000502434 0.000876252 -1.08502e-21)
(0.000443916 0.000785793 -2.57956e-21)
(0.000785243 0.00125135 -4.41457e-22)
(0.00075459 0.00133669 5.23122e-22)
(0.000680465 0.0012208 7.26162e-22)
(0.000633417 0.000814153 -4.53913e-21)
(0.000575027 0.00106206 5.36609e-24)
(0.00059616 0.00110004 5.43172e-24)
(0.000587472 0.00108466 0)
(0.000792554 0.00144655 5.64305e-22)
(0.000674838 0.00116732 3.72563e-22)
(0.000595594 0.00106999 -1.04293e-21)
(0.000799113 0.00143618 -1.74686e-21)
(0.000634738 0.001425 9.33239e-22)
(0.000787951 0.00142424 0)
(0.000621288 0.000987035 0)
(0.000626429 0.00113104 0)
(0.000470697 0.000784613 9.08924e-22)
(6.86237e-06 -1.70785e-05 -1.07017e-21)
(0.000601072 0.00108505 -5.87777e-22)
(0.000609845 0.00110053 0)
(0.000588509 0.00106235 0)
(0.000510403 0.000842733 0)
(0.000526505 0.000811331 -1.08376e-21)
(0.000655567 0.00116106 8.07751e-22)
(0.000565642 0.00104427 -1.32355e-21)
(0.000440235 0.000319878 1.37026e-21)
(0.000763821 0.00134847 1.42161e-21)
(0.000584216 0.00105218 -1.54482e-21)
(0.000637211 0.00112513 0)
(0.000577093 0.00105426 -6.53077e-22)
(8.31578e-06 -3.09245e-05 -8.69282e-22)
(0.000817436 0.00147452 0)
(0.000627782 0.00113069 -1.47527e-21)
(0.000720862 0.00128125 3.52947e-21)
(0.000666246 0.0011748 -6.52209e-22)
(0.000650214 0.00116197 -8.53644e-22)
(0.000334607 0.000691263 1.18816e-21)
(0.000380329 0.000532505 -1.90066e-21)
(0.000642284 0.000849711 -2.6109e-21)
(0.000801035 0.000293788 0)
(0.000776185 0.00120551 0)
(0.000657218 0.00116561 -8.16956e-22)
(0.000736413 0.00130298 -1.43773e-21)
(0.000568781 0.000584276 4.66563e-21)
(0.000772703 -1.5859e-05 2.25699e-24)
(0.000679825 0.00121777 5.60671e-22)
(7.27566e-05 0.000694493 1.18156e-21)
(1.8856e-05 -7.04386e-06 -5.27945e-21)
(0.000806046 -3.8605e-05 -1.1783e-21)
(0.000612882 0.00106927 5.81135e-22)
(0.000591703 0.0010321 5.75849e-22)
(0.000604269 0.00105419 5.86792e-22)
(0.000488065 0.00121834 0)
(0.000427683 0.000275614 4.21125e-22)
(0.00058347 0.000246 -1.39857e-21)
(0.000877112 0.00134508 -3.44592e-22)
(0.00027806 0.000560169 3.0659e-21)
(2.16008e-05 -2.82637e-06 2.00883e-21)
(0.00058281 0.00104426 -6.56267e-22)
(0.000571316 0.00104026 7.67218e-22)
(0.000908628 0.000178031 0)
(0.000585796 0.0010598 -9.16553e-22)
(0.000635653 0.00114416 -4.65325e-22)
(0.0006751 0.00156069 7.28958e-22)
(0.000264812 0.000308316 6.11452e-22)
(0.000723583 0.00127342 0)
(3.03361e-05 -2.65849e-06 3.34768e-26)
(0.000726134 0.00130701 4.18555e-22)
(0.000673822 0.00139862 -6.26865e-22)
(0.000624931 0.00109434 6.8202e-24)
(0.000563642 0.000922902 1.32039e-22)
(0.000659866 0.00118715 -9.24797e-22)
(0.00093492 0.000170867 0)
(0.000581848 0.00104579 -2.30537e-23)
(0.000753549 0.00134744 4.81519e-22)
(0.000652449 0.0011581 1.54004e-21)
(0.000582624 0.00105936 7.07154e-24)
(0.000603585 0.00109743 7.12358e-24)
(0.000594979 0.001082 6.69449e-22)
(0.000604889 0.00117603 -1.13427e-21)
(0.000759368 0.00133587 1.10357e-21)
(0.00082842 0.00147065 -2.49929e-21)
(0.000747748 0.00132815 -6.09434e-22)
(0.000678693 0.00121849 -1.12014e-21)
(0.000735201 0.000701042 4.6665e-22)
(0.000814366 0.00147116 4.73765e-22)
(0.000658808 0.000854135 -1.36168e-21)
(0.000594399 0.00105929 1.17244e-21)
(0.000704958 0.00127553 2.84849e-23)
(0.000802937 0.00144376 -2.16765e-21)
(0.000660503 0.001357 -8.52341e-22)
(0.000678954 0.00121964 6.54097e-22)
(0.000272079 0.000394462 -1.79354e-21)
(0.000460408 0.000582583 2.23732e-21)
(0.000623531 0.00108544 -6.53379e-22)
(0.000587147 0.00105978 0)
(0.000608432 0.00109784 0)
(0.000599676 0.00108242 0)
(0.000728068 0.00134479 0)
(0.00065056 0.00113471 0)
(0.000602981 0.00106981 1.35183e-21)
(0.000624805 0.00110852 1.36447e-21)
(0.000615818 0.00109277 1.37759e-21)
(0.000626069 0.00112862 6.17489e-22)
(0.000534907 0.000346325 3.3537e-21)
(0.00071585 0.00124972 -2.6402e-23)
(0.0008124 0.00145495 0)
(2.60793e-05 -3.10726e-06 -1.96414e-21)
(0.000648487 0.00116954 5.87682e-22)
(0.000221859 0.000499685 3.10918e-21)
(0.000678693 0.00121891 -1.21966e-21)
(0.000789904 0.00144191 1.07836e-21)
(0.00057233 0.00100146 -1.16407e-21)
(0.000971801 0.000113521 1.5614e-21)
(0.000703442 0.00128721 1.76694e-21)
(0.000679025 0.0012493 0)
(0.000716986 0.00127743 -3.80545e-21)
(0.000716395 0.00127334 5.78087e-22)
(0.000628251 0.00112773 5.6171e-22)
(0.000627353 0.00112272 -6.65912e-22)
(0.000578746 0.00104294 0)
(0.000653331 0.00116674 -1.97519e-21)
(0.000651174 0.00116919 -5.77441e-22)
(3.95035e-05 -6.8983e-07 0)
(0.000609192 0.00105861 -1.57554e-21)
(0.00071335 0.0012863 5.42592e-22)
(3.80425e-05 3.99627e-05 2.3851e-21)
(0.000578648 0.00103974 0)
(0.00064019 0.00112856 4.65846e-22)
(0.000795744 0.00144419 -5.72266e-22)
(0.000776677 0.000723961 -3.90926e-22)
(0.000664384 0.00117623 -9.04881e-22)
(0.000780122 0.00135017 -7.6747e-22)
(0.000799326 0.00139538 -5.99804e-22)
(0.00069765 0.00128485 0)
(0.000723429 0.00128837 -1.9794e-23)
(0.000542562 0.000843375 -1.29559e-21)
(0.0011551 7.65538e-05 -2.02308e-21)
(2.89457e-05 3.71002e-05 2.2453e-21)
(0.000580557 0.0010428 1.02302e-23)
(0.000888345 0.00110701 7.12134e-21)
(0.000796966 0.00143724 5.69528e-22)
(0.000731325 0.00129586 -4.7706e-22)
(4.04249e-05 -1.73342e-07 3.35326e-21)
(0.000640423 0.00141315 0)
(0.000770482 0.000517872 3.38617e-21)
(0.000787933 0.00143987 0)
(0.000488578 0.00121122 2.67106e-22)
(0.00058603 0.00103196 1.02524e-21)
(0.000793908 2.21198e-05 -1.11498e-21)
(0.000688775 0.000960874 -4.41904e-22)
(0.000594841 0.00105589 1.14579e-21)
(0.000834723 0.000658923 -7.7897e-22)
(0.000622087 0.000858966 -1.32291e-21)
(0.000810818 0.00143522 4.81602e-22)
(0.000849542 0.00150626 0)
(0.000578414 0.00102131 1.10396e-21)
(0.000732542 0.00126718 -8.20155e-24)
(0.000577433 0.00133583 -2.48245e-21)
(0.000511889 0.000879405 -9.43759e-22)
(0.000126525 0.000136388 -2.04335e-21)
(0.000688608 0.00114442 7.72323e-22)
(0.00098155 0.000273437 4.82178e-22)
(0.000588372 0.000747039 8.91432e-22)
(0.000704878 0.000702746 -1.617e-21)
(0.000714148 0.00139217 7.74758e-22)
(0.000438145 0.000281847 -2.65913e-25)
(0.000807961 0.001434 -1.05699e-21)
(0.000593762 0.000811363 1.36648e-21)
(0.000726937 0.00123819 8.79523e-22)
(0.000425331 0.000759039 -1.08924e-21)
(4.18059e-05 -4.43846e-07 1.21497e-21)
(0.000300438 0.000347859 1.51329e-21)
(0.000542009 0.0010498 0)
(0.000339492 -0.000160739 -2.98258e-21)
(0.000760746 0.000796434 -3.24207e-21)
(0.000333327 0.000579773 0)
(0.000699639 -7.59209e-06 2.17846e-24)
(0.000274334 -0.000125397 -4.91113e-21)
(2.90447e-05 4.27207e-05 -2.14665e-21)
(0.000838365 0.000239593 -1.73025e-21)
(0.000402759 0.000497394 1.10773e-21)
(0.000799314 -6.35488e-06 -2.16964e-21)
(0.000955133 0.000804005 1.47729e-21)
(0.000285522 0.000847215 9.0017e-22)
(0.00044637 0.000186664 -2.97783e-22)
(0.000159565 0.000422572 0)
(0.000675053 0.000679221 -2.31475e-24)
(0.000578886 0.000881309 2.33484e-23)
(0.000480472 0.000192557 9.83754e-22)
(0.000607665 0.00102895 -2.48012e-22)
(0.000392327 0.00049547 -1.09935e-21)
(0.000122143 0.000146771 1.65137e-21)
(0.000604706 0.00125663 -1.51504e-21)
(0.000397686 0.000244996 0)
(0.000629784 0.000537292 0)
(2.0654e-05 0.000661698 3.86336e-22)
(0.000505922 0.000873858 -1.58055e-21)
(0.000364963 0.000490876 -9.36135e-22)
(0.000957621 0.000313656 1.90485e-21)
(0.00103773 0.00131228 6.25035e-22)
(0.000706196 0.00130871 -7.82562e-22)
(0.000324506 0.000230211 -1.62615e-21)
(0.000539053 0.000797365 0)
(0.00072244 -4.41063e-05 3.85175e-21)
(0.000716356 0.00123939 -1.66278e-21)
(0.000749965 0.00130298 6.45093e-23)
(0.000378587 0.000303406 0)
(0.000391717 0.000521679 1.04927e-21)
(0.000651573 0.000303843 4.76653e-26)
(0.000714633 0.00143543 2.10937e-21)
(0.000968183 0.000133896 1.85781e-21)
(0.000718015 0.00124136 0)
(0.000797504 0.00136869 2.36587e-23)
(0.000723531 0.00124173 -4.02375e-24)
(0.000626177 0.00107503 2.39166e-23)
(0.000649152 0.0011144 -5.29797e-23)
(0.000639739 0.00109815 2.43886e-23)
(0.000589501 0.00105312 -4.4911e-22)
(0.000610947 0.00109085 -4.53193e-22)
(0.000602134 0.00107558 -8.42207e-24)
(0.000368676 0.000774174 8.18404e-22)
(0.000701253 0.00127269 2.01905e-21)
(0.000493912 0.000985873 -1.3415e-23)
(0.000356729 0.000664225 1.58979e-21)
(0.000346975 0.000537328 4.8684e-22)
(0.000480348 0.000906494 0)
(0.000459884 0.000343238 1.47289e-21)
(0.000747223 0.00130405 -1.37853e-21)
(0.000389541 -5.3813e-05 1.71135e-25)
(0.000497502 0.000134545 0)
(0.00097443 5.60848e-05 2.31252e-21)
(0.000731941 0.00125573 0)
(0.000548635 0.00106675 -2.26499e-21)
(0.000911757 0.000180159 0)
(0.000639072 0.00125639 -9.56434e-22)
(0.000756095 1.89183e-05 -1.06831e-21)
(0.00105213 0.000687658 1.9646e-21)
(0.000530967 0.000133845 6.56817e-24)
(1.60871e-05 7.02357e-06 -2.06171e-21)
(0.000756963 0.000426029 1.85447e-21)
(0.000402812 0.000232377 0)
(0.000178341 -2.40521e-05 -2.71511e-21)
(0.000532052 0.000859375 2.82314e-22)
(0.000240834 0.000751286 0)
(4.20154e-05 9.2404e-07 -1.17483e-21)
(0.000456303 0.000638486 8.24322e-23)
(0.000961343 0.000542359 1.13899e-21)
(0.000717319 0.00021501 2.15143e-21)
(0.000510047 0.00064087 3.1534e-21)
(0.000837167 0.00152978 1.06961e-21)
(2.33922e-05 -6.37014e-06 2.16665e-21)
(0.00068029 0.00119766 9.82813e-22)
(0.000497047 0.000833122 0)
(4.49004e-05 0.000277037 -9.58078e-22)
(0.000624234 0.00111867 -9.64849e-22)
(0.0006431 0.00134001 -6.42744e-23)
(0.000616206 0.00129897 1.63772e-23)
(0.000715927 0.00146907 -6.3462e-23)
(0.000569574 0.00120689 -4.41996e-23)
(0.000774558 0.000929453 -5.36355e-21)
(0.000816776 0.00164918 0)
(0.0012545 0.00076706 6.09104e-22)
(0.000933958 0.000572206 1.00572e-21)
(0.000580564 0.00101334 0)
(4.0885e-05 2.00551e-06 -3.51088e-21)
(0.000654288 0.00127428 0)
(0.000498275 0.000669357 5.78229e-22)
(0.000922766 0.000520844 5.38615e-22)
(0.000648893 0.00115732 5.0314e-24)
(0.000774705 0.00133645 -3.05116e-21)
(0.000470959 0.00031425 0)
(0.00086969 0.00152327 -1.76455e-21)
(4.08048e-05 4.05688e-05 0)
(3.2869e-05 4.31515e-06 1.50544e-21)
(0.00058363 0.00104211 0)
(0.000756784 0.00124215 -1.01582e-21)
(0.00108531 0.000867746 -1.19879e-21)
(0.00113841 0.000912556 1.06739e-21)
(0.000725476 0.00126496 -2.31097e-21)
(0.000468888 0.00102764 -4.65969e-23)
(0.000603318 0.0012757 -4.95127e-23)
(0.000511969 0.00111597 6.25181e-23)
(0.000535949 0.00115262 -4.83101e-23)
(0.000699131 0.00145423 -6.1332e-23)
(0.00102844 0.000970273 2.31482e-21)
(0.000734519 0.0012509 0)
(0.000195967 0.000492139 0)
(0.000257728 0.00117958 1.35109e-21)
(0.000258534 0.000531048 -3.46386e-21)
(4.21164e-05 -7.13629e-05 0)
(0.000353988 0.000534976 0)
(0.000766836 0.00131417 -8.71671e-22)
(0.000826873 0.00145989 3.90634e-22)
(0.000789037 0.00140118 -1.1971e-21)
(0.000646244 0.00112738 -7.16519e-22)
(0.000402478 0.000891536 -5.67595e-24)
(0.000712498 0.00123653 8.19758e-24)
(0.000615968 0.000224736 -3.68599e-21)
(0.000861783 1.89285e-05 0)
(0.000753349 4.12428e-05 3.09792e-21)
(0.00011761 0.000335831 -9.95384e-22)
(0.000727138 0.00125725 3.66763e-22)
(0.000718728 6.38979e-05 0)
(0.000190432 1.36647e-05 1.24673e-21)
(0.00029795 0.000453085 -1.65468e-24)
(0.000717378 0.00123616 -3.95128e-22)
(0.000850369 -2.16585e-05 0)
(0.000437468 0.000405629 -3.21686e-21)
(0.000632969 0.00134079 0)
(0.00056203 0.00121172 0)
(0.000493904 0.00108307 0)
(0.000473065 0.00104333 0)
(0.000484935 0.0010665 0)
(0.000738306 0.000331556 7.34492e-22)
(8.72853e-05 0.000212492 -2.30838e-21)
(0.000299562 0.000266525 2.65577e-21)
(0.000743777 0.00153442 -5.95826e-23)
(0.000573831 0.00122179 -1.02015e-22)
(0.000586857 0.00124687 -1.03916e-22)
(0.000596429 0.00126423 -1.02446e-22)
(0.000669594 0.00140054 -1.03207e-22)
(0.000762287 0.00129513 3.14868e-21)
(0.000756314 0.00131765 0)
(0.000795648 0.000764644 1.7198e-21)
(0.000620524 0.00112699 1.0241e-21)
(0.000346739 0.000451625 1.64572e-21)
(0.000898367 0.000286055 1.24746e-21)
(0.000631559 0.0012075 1.05591e-21)
(0.000438777 0.000498937 -6.4855e-22)
(0.000368378 0.00060547 1.20129e-21)
(0.000711352 0.00124273 0)
(0.00098989 0.000838673 -1.99942e-21)
(0.000470621 0.000922242 -6.46111e-22)
(0.000427951 0.000820147 4.86686e-22)
(9.32493e-05 0.000532436 -9.41461e-22)
(0.000719467 0.00124813 7.29123e-22)
(0.000742826 0.000425755 -1.96748e-21)
(3.90293e-05 -1.09963e-07 1.43329e-21)
(0.00110176 2.22527e-05 0)
(0.000242794 0.000547296 2.36563e-24)
(0.0003316 0.000472469 9.89415e-22)
(0.000759802 0.00075018 -2.80084e-22)
(0.00162094 0.00043062 7.02833e-22)
(0.000140798 0.000741579 8.09305e-22)
(0.000469271 -6.50558e-05 0)
(0.000718724 0.00026047 0)
(7.14501e-05 -0.000111015 -4.02729e-22)
(0.00100141 0.000175011 2.08278e-21)
(3.90586e-05 3.95577e-06 8.78711e-26)
(0.000483246 0.000372224 -3.09399e-25)
(0.000857735 0.00150356 -6.92085e-22)
(0.000604241 0.0010778 3.33205e-21)
(0.000676096 0.00121215 0)
(0.000366026 0.000605187 0)
(0.000481889 0.000762714 -2.34748e-21)
(0.000548014 -0.000181456 2.42165e-21)
(0.000659179 0.00116522 -7.74781e-22)
(0.000729562 0.000722025 -5.48376e-22)
(0.000375482 0.000611087 1.17117e-21)
(0.00119763 6.21603e-05 -3.53739e-21)
(0.000785395 0.00078483 -2.1282e-24)
(3.82712e-05 -3.75391e-06 -1.4281e-21)
(0.000387632 0.000681401 2.48747e-21)
(0.000610111 0.00109508 2.3318e-21)
(0.000901473 0.000191563 8.79535e-22)
(0.000880401 0.000290904 -1.14852e-21)
(0.000558867 0.000259173 3.00155e-21)
(0.000811402 0.00136454 3.30156e-22)
(0.000377505 0.000632156 0)
(0.000834512 0.000698335 -9.07673e-22)
(0.000718592 0.00129013 -3.32253e-21)
(0.000583414 0.00103101 -1.40382e-23)
(2.74534e-06 1.76511e-05 -1.52e-21)
(0.000168376 0.000236442 -1.27116e-21)
(0.000509075 0.000711225 -6.40032e-21)
(1.06049e-05 7.9837e-06 0)
(0.000680537 0.00121794 5.1679e-22)
(0.000362345 0.000466215 1.79652e-21)
(0.000658358 0.00115393 2.31297e-21)
(0.00062077 0.00113381 -8.92488e-22)
(0.000985704 0.00076613 -4.85838e-21)
(0.000213368 -2.41417e-05 7.25674e-26)
(0.000938027 0.000846417 7.63343e-24)
(0.000549865 0.000461003 -2.267e-22)
(0.000716429 0.00127788 1.59689e-22)
(0.000821446 0.00145355 1.94983e-23)
(-9.08731e-05 0.00110457 -1.30389e-21)
(0.000867593 0.00154189 -9.92499e-22)
(0.000671123 0.00113543 -1.08765e-21)
(0.000523322 0.000908522 2.43298e-21)
(0.000706733 0.0012431 -3.74323e-22)
(0.000421689 0.000706226 0)
(0.000376951 0.000275654 -1.30958e-21)
(0.00150508 0.00124371 -8.54618e-22)
(0.000341098 0.000567668 0)
(0.000950214 0.000293913 0)
(0.000814087 0.000507034 4.50131e-21)
(1.42487e-05 -2.60413e-05 4.33188e-21)
(0.000711178 0.00123293 0)
(0.000694218 0.000587586 4.58895e-22)
(0.000658 0.00109564 8.45925e-22)
(0.000668361 0.00111072 4.24237e-22)
(0.000644336 0.00107277 0)
(0.000793152 0.00146443 -7.72813e-23)
(0.000495156 0.000102379 -1.39772e-21)
(0.000151973 1.40845e-05 2.99327e-22)
(0.00071262 0.000579911 -1.79385e-21)
(1.65854e-05 -3.45043e-06 -4.36114e-21)
(0.000620675 0.00109667 -1.27584e-21)
(0.000544358 0.00104278 2.2843e-23)
(0.000681571 0.00128201 -7.0149e-23)
(0.000597168 0.00113775 3.43306e-23)
(0.000613133 0.00116349 -6.99061e-23)
(0.000896557 0.00144921 3.92007e-21)
(0.00122386 0.00133106 7.38605e-24)
(0.000713457 0.000665595 -1.44395e-24)
(0.000348883 0.000663387 -6.13604e-21)
(0.00052738 0.00040621 -7.53901e-25)
(0.000148827 0.000138258 4.29657e-21)
(0.000499808 0.00053635 -8.31687e-21)
(0.000115952 0.000527455 5.9815e-22)
(8.43474e-05 0.000195791 3.54343e-21)
(0.000415814 0.000813224 -1.60185e-24)
(0.000271752 3.27672e-05 -9.47019e-22)
(0.000615281 0.00026448 5.56371e-21)
(0.000501508 5.69744e-05 -5.53053e-25)
(0.000459106 0.00101252 7.41134e-22)
(6.68742e-05 0.000382572 -2.19613e-21)
(0.000587676 4.15942e-05 -6.49855e-24)
(0.00122187 0.000225767 -1.46441e-21)
(4.23326e-05 -1.65495e-06 -8.23336e-22)
(0.000887872 0.000210973 2.75392e-21)
(0.00072794 0.00103169 -1.27937e-21)
(0.000865937 0.00150193 5.0376e-22)
(0.000234961 0.00061485 -7.77999e-22)
(0.000591664 0.000434707 4.94669e-22)
(0.00064701 0.00125424 1.20879e-21)
(0.000621868 0.00113381 1.75818e-21)
(0.000712826 -0.000367994 0)
(0.000430501 0.00131032 -6.09348e-22)
(0.00105468 0.000908476 0)
(-0.000144712 0.00108278 1.11408e-21)
(0.000893725 0.000535276 9.77498e-22)
(0.000352201 0.000738993 0)
(0.000708187 0.00122183 0)
(0.000361301 0.000632741 0)
(0.000587369 0.00108415 4.59028e-21)
(0.000207647 0.000725065 -1.45028e-21)
(3.58825e-05 -3.73206e-06 -2.3528e-21)
(2.21435e-05 -9.83546e-06 2.07093e-21)
(0.000518523 0.000890742 2.82767e-21)