/*--------------------------------*- C++ -*----------------------------------*\
  =========                 |
  \\      /  F ield         | OpenFOAM: The Open Source CFD Toolbox
   \\    /   O peration     | Website:  https://openfoam.org
    \\  /    A nd           | Version:  8
     \\/     M anipulation  |
\*---------------------------------------------------------------------------*/
FoamFile
{
    version     2.0;
    format      ascii;
    class       volVectorField;
    location    "7";
    object      U;
}
// * * * * * * * * * * * * * * * * * * * * * * * * * * * * * * * * * * * * * //

dimensions      [0 1 -1 0 0 0 0];

internalField   nonuniform List<vector> 
17372
(
(0.00064078 0.00111046 1.27918e-21)
(7.90413e-05 0.000241878 4.61684e-21)
(0.000635509 0.00111332 1.35788e-23)
(0.0005742 0.00103419 1.74585e-21)
(0.000110248 2.55782e-05 -2.71712e-22)
(6.71179e-05 0.00025137 -2.13489e-21)
(0.000622851 0.00106611 1.1329e-22)
(0.00025327 0.000542065 -5.15987e-22)
(0.000637698 0.00111282 -2.36987e-22)
(0.000470499 0.000631316 5.46345e-22)
(0.000609132 0.000983122 -1.26388e-21)
(0.000131257 0.000185155 1.11698e-21)
(0.00119782 6.48239e-05 1.54731e-21)
(0.00095326 8.70443e-05 1.16448e-21)
(0.000618406 0.0010721 -1.24202e-22)
(0.000230446 0.00044233 -6.01888e-22)
(0.000129401 0.000175478 -1.70311e-21)
(0.000397719 0.000189057 1.18274e-21)
(0.00098237 5.59513e-05 4.78442e-25)
(0.000191274 0.000595671 0)
(0.00061576 0.00107137 -5.80355e-23)
(0.000565681 0.00108161 -1.69121e-22)
(0.000642847 0.00111246 -1.67238e-21)
(0.000209054 0.000589777 -3.55146e-21)
(0.000424313 0.000127087 -3.27947e-21)
(0.00061427 0.00107175 5.82662e-23)
(0.000642288 0.00111243 4.76831e-24)
(0.000591783 0.00100418 4.70427e-22)
(0.00100574 5.93205e-05 9.07972e-22)
(0.000642514 0.00111259 -8.46989e-22)
(0.000644805 0.00111525 -2.48216e-22)
(8.99006e-05 8.84663e-05 1.5035e-21)
(0.000642745 0.00111255 -6.20781e-24)
(0.000613952 0.00107258 -2.73731e-22)
(0.000168345 0.000715165 5.88941e-22)
(0.000505243 0.000880174 -5.28851e-24)
(0.000614789 0.00107182 0)
(0.000261439 0.000176877 -3.28815e-23)
(0.000534711 0.000932837 3.22595e-22)
(0.000463189 0.000858064 4.02384e-23)
(0.000642164 0.00111225 5.34545e-24)
(0.000590009 0.00105476 2.84781e-22)
(0.00061185 0.00106473 3.76777e-22)
(0.000654157 0.000580931 3.04036e-23)
(0.00050536 0.000876323 0)
(0.00064303 0.00111243 8.21331e-22)
(4.5564e-05 0.000200221 4.38076e-22)
(0.000285209 0.000493107 -1.03107e-22)
(0.000615286 0.00107241 -1.96484e-22)
(0.000522892 0.000891836 5.061e-22)
(3.2349e-05 0.000261615 1.06018e-21)
(0.000618562 0.00106872 3.46766e-22)
(0.00052542 0.000893742 -5.87349e-24)
(0.000644213 0.00112105 8.69227e-22)
(0.000409313 0.000182774 -9.46609e-22)
(0.000219553 0.000123117 -2.99383e-22)
(0.000613673 0.00107032 -2.26155e-22)
(0.000547533 0.00102143 1.99514e-23)
(0.000645365 0.00111252 -2.76763e-22)
(0.000219378 0.000506386 -8.67355e-22)
(0.000506436 0.00087931 1.10859e-23)
(0.000465352 0.000566383 -4.44646e-22)
(0.00064259 0.00111263 8.38885e-22)
(0.000627356 0.00106747 6.97753e-22)
(0.000592993 0.000966698 -5.04321e-24)
(0.000209569 0.000510825 1.07199e-21)
(0.000502039 0.00087918 -2.96128e-22)
(0.000482184 0.000896961 -5.39396e-23)
(0.000408703 0.0012136 -2.12122e-24)
(0.000271812 0.000196956 2.2713e-22)
(0.000708948 0.000407093 0)
(0.000275784 0.000482869 1.98899e-22)
(0.000718966 0.00124291 -3.52221e-22)
(0.000512639 0.000880245 1.04692e-21)
(0.000547449 0.000928153 -1.07536e-21)
(0.000594436 0.00102563 -1.14233e-21)
(0.000572396 0.000987297 -3.8313e-22)
(0.000603825 0.00106032 0)
(0.000537207 0.00115959 5.25404e-22)
(0.000532125 0.000990429 -2.86187e-21)
(1.04985e-05 0.000231637 0)
(0.000488942 0.0008719 3.7252e-22)
(0.000541453 0.000929599 -8.68045e-22)
(0.000113212 3.36633e-05 -1.44858e-21)
(9.57845e-06 0.000239004 -1.38255e-22)
(0.00061165 0.00107983 0)
(0.000520665 0.000888863 -1.03263e-21)
(0.000563458 0.000989457 -1.04047e-24)
(0.000616826 0.00107308 1.7682e-22)
(1.09147e-05 0.000427362 0)
(0.000706447 0.00128494 -8.3417e-23)
(0.000612814 0.0010785 7.18858e-23)
(0.000463513 0.000487183 0)
(0.000580872 -4.32983e-05 -1.01889e-21)
(5.12483e-06 0.000502469 -7.00234e-22)
(0.000642236 0.00111195 9.33862e-22)
(0.000999095 -2.55672e-05 0)
(4.62225e-05 0.000192574 2.01942e-22)
(0.000417284 0.000168052 -1.04036e-21)
(0.000237469 0.000557307 3.32838e-25)
(0.000867471 0.000269502 -5.97782e-22)
(0.000506323 0.000873517 8.7637e-22)
(0.000266703 0.000186664 -1.29763e-22)
(0.000153524 0.000347321 -1.13785e-21)
(0.000644196 0.00110919 0)
(0.000613859 0.00107404 7.71697e-24)
(0.000653201 0.0011151 1.73177e-24)
(0.000960907 0.000855802 -4.59753e-21)
(0.000126328 0.000123373 0)
(0.000509634 0.000879146 -1.56617e-21)
(0.000730083 0.00150507 0)
(0.00029839 0.000300972 1.10698e-21)
(0.000512271 0.000883432 9.12402e-22)
(0.000523188 0.000896743 -9.8352e-22)
(0.000625904 0.00109361 0)
(0.000492575 0.000856749 -1.10658e-22)
(0.000514939 0.000888038 -9.33413e-22)
(0.000611419 0.00107371 -1.64951e-22)
(0.000630426 0.00114927 0)
(0.000517672 0.000892442 0)
(0.000641351 0.00111248 2.48097e-22)
(0.000520241 0.000896011 -2.38372e-22)
(0.000644206 0.00111107 2.69951e-22)
(0.000530003 0.000940096 1.20713e-22)
(0.000278957 0.000207408 -1.34013e-22)
(0.000643763 0.00110827 2.83902e-22)
(0.000618669 0.00106441 8.21053e-22)
(0.000492587 0.000507443 3.8611e-22)
(6.75648e-05 -8.95542e-06 -6.99843e-22)
(0.000522561 0.000897331 -4.82375e-22)
(0.000641987 0.00110465 -3.11107e-22)
(0.000615221 0.00105996 0)
(0.000642353 0.00111256 8.66885e-22)
(0.000523035 0.000893833 4.99453e-22)
(0.000622317 0.00107059 2.61879e-22)
(0.000483488 0.000520894 5.23646e-22)
(0.000536001 0.000992343 -6.19281e-22)
(0.000624845 0.00107556 -2.41658e-22)
(0.000594183 0.00127617 -6.48881e-22)
(0.000134661 0.000139418 -9.06569e-22)
(0.000498198 0.000601051 9.52062e-22)
(0.000627664 0.00108002 2.3257e-22)
(0.000633258 0.00109057 0)
(0.000639252 0.00109992 -3.3473e-22)
(4.44179e-05 0.000483615 9.1223e-23)
(0.000633183 0.00109081 0)
(0.000635527 0.00109267 5.37378e-24)
(0.000977929 4.95216e-05 -8.76456e-22)
(0.000675418 0.00064413 -8.94982e-22)
(0.000575804 0.00103892 -1.96484e-24)
(0.000327955 0.000576549 -1.10536e-22)
(0.000526013 0.000903446 -8.94264e-22)
(0.000569091 0.00129003 -5.6638e-24)
(0.000719183 0.0012429 3.19144e-22)
(2.44147e-05 0.000343808 8.4007e-22)
(0.000545027 0.000938019 3.82079e-22)
(0.00104884 0.00107509 7.32211e-22)
(8.27589e-05 1.9004e-05 -5.12866e-23)
(8.21474e-05 0.000511987 -1.92203e-21)
(0.000504309 0.000868932 1.0832e-21)
(0.000641916 0.00110511 -6.51499e-22)
(0.000127934 0.000141028 -4.73135e-22)
(0.000592659 0.00102531 7.76556e-22)
(0.000602936 0.000123754 2.2429e-21)
(0.000642504 0.00111149 4.87118e-24)
(0.000688541 0.000514741 8.87673e-22)
(0.000611596 0.00105025 -1.38116e-21)
(0.000643083 0.000239904 -1.08062e-21)
(0.000331937 0.000579025 2.17712e-22)
(0.00050668 0.000869945 -5.84315e-22)
(0.000351428 0.000891924 -5.71894e-23)
(0.000500856 0.000874644 1.6386e-22)
(0.000529083 0.000930879 2.07644e-21)
(0.000281188 0.000319227 1.09437e-21)
(0.000613327 0.00105761 -1.1996e-21)
(0.000507972 0.000894083 4.3022e-22)
(0.0005884 0.000984366 -1.99996e-22)
(0.000187438 0.000583988 1.06697e-21)
(0.000485632 0.000572227 2.77219e-22)
(0.000135151 0.000154679 -6.13776e-23)
(0.000171909 0.000711902 1.17799e-21)
(0.000586087 0.00101188 1.55253e-21)
(7.21822e-06 0.000412082 0)
(0.000248035 0.000466467 5.50345e-23)
(0.000524832 0.000904382 -4.57737e-22)
(0.000645931 0.00110973 -4.92598e-24)
(0.000632864 0.00116898 -5.93737e-23)
(5.71141e-05 0.000143454 3.11092e-22)
(0.00041555 0.00119429 -2.25139e-23)
(4.37195e-05 3.34835e-05 3.93669e-22)
(0.000503479 0.000922329 6.77765e-23)
(0.000309572 0.000576204 -7.71294e-22)
(0.000545837 0.000970807 -2.71345e-22)
(0.000251844 0.000434644 0)
(0.000521215 0.00089635 1.45504e-21)
(5.49302e-05 0.000121229 0)
(0.000464214 0.000918358 0)
(0.000674321 0.00118982 1.58218e-22)
(0.000234866 0.000248665 -5.93275e-22)
(0.00116542 0.00082174 0)
(4.8321e-05 0.000119644 -4.21592e-22)
(0.000437057 0.000629368 -7.29381e-23)
(0.000425065 -1.5703e-05 -1.81401e-25)
(0.000544028 0.000954879 -6.25694e-22)
(0.000434241 0.000787262 -1.30808e-23)
(9.67056e-05 2.38224e-05 1.07611e-21)
(0.000583666 0.00102265 0)
(0.000818758 0.000398334 1.55836e-22)
(0.000614255 0.00107366 -5.78262e-24)
(0.000635968 0.00109629 3.65456e-22)
(0.000564023 0.000970748 -8.96194e-22)
(0.000642171 0.00111239 8.87732e-22)
(0.000583005 0.000996091 -2.41763e-21)
(0.00057038 0.000981969 8.58102e-22)
(5.90342e-05 0.000162127 0)
(0.000544838 0.000939753 0)
(0.000554654 0.000968631 1.16962e-21)
(0.000536409 0.000956958 2.14271e-21)
(0.000880638 0.000250085 6.12679e-22)
(0.000594005 0.00116199 -7.80849e-23)
(0.000562486 0.000956525 -4.6802e-22)
(0.000199599 0.000525263 0)
(5.7991e-05 0.000132032 1.05169e-22)
(0.000958138 0.000137707 -3.22019e-21)
(0.000638879 0.00109989 -3.49558e-22)
(0.000406691 -5.63657e-06 2.71769e-21)
(0.000633535 0.00110524 3.97278e-23)
(0.0002776 0.000756632 3.33461e-21)
(-0.000464094 0.000372732 -1.56703e-23)
(0.000503796 0.000867134 0)
(0.000256225 0.000167319 2.75909e-22)
(0.00060643 0.00105464 1.16865e-21)
(0.00047015 0.000458694 -1.5719e-21)
(0.000691753 0.0012528 1.20868e-21)
(0.000691971 0.00124321 2.46852e-21)
(0.000973468 4.89587e-05 1.32084e-22)
(0.000390332 0.000527995 -8.65109e-22)
(0.000269148 0.000488483 0)
(0.000354407 0.00109547 6.62223e-24)
(0.000496234 0.000878737 -6.55846e-22)
(0.000623493 0.00107056 -4.34222e-22)
(0.000586473 0.00103447 9.7781e-22)
(8.72249e-05 2.06004e-05 0)
(0.000439029 0.000228808 1.14945e-21)
(0.000874462 0.000489406 1.11458e-21)
(0.000643222 0.00111109 0)
(0.000950357 9.02641e-05 -9.73258e-22)
(0.000526415 0.000900222 -4.89336e-22)
(0.000458016 0.000826317 3.06817e-23)
(6.62765e-05 1.34319e-05 -2.11365e-22)
(7.46897e-05 -1.37394e-06 2.581e-21)
(0.000541988 0.00093855 -6.16424e-22)
(0.00038691 0.00109798 8.94406e-25)
(0.000612639 0.00108436 1.83003e-22)
(7.40517e-05 1.56414e-05 1.43238e-21)
(0.000535398 0.00093194 -5.05973e-25)
(0.000607898 0.00105196 9.65708e-22)
(3.90874e-05 0.000210389 -2.52345e-22)
(0.000589498 0.000982807 -2.1929e-22)
(0.000621942 0.000150501 1.09832e-22)
(0.000726934 0.00133768 8.70966e-23)
(0.000597263 0.00106224 -4.30393e-24)
(0.000602019 0.000114102 -1.2856e-21)
(0.000391629 -1.44161e-06 -3.41214e-21)
(6.56171e-05 -4.09096e-06 1.03115e-21)
(0.00018508 0.000142274 -4.86657e-22)
(0.000763207 0.00130232 -9.74291e-22)
(0.000366853 0.000272324 3.76727e-21)
(0.00061926 0.00111459 0)
(4.75216e-05 0.000104093 -5.1056e-22)
(0.000461907 0.000829285 -1.60045e-21)
(0.000644289 0.00111079 -5.47164e-24)
(6.50504e-05 0.000504068 5.52497e-21)
(0.00112891 -0.000180246 -2.25639e-22)
(0.000644774 8.78986e-05 0)
(0.000498295 0.000892859 0)
(0.000518696 0.000893532 -7.13472e-22)
(0.00105033 -1.27909e-05 -4.50247e-22)
(0.000584937 3.32313e-06 8.44641e-22)
(0.000397285 0.000540213 2.41093e-22)
(0.000635062 8.08278e-05 0)
(6.30163e-05 6.38146e-05 -1.92856e-21)
(0.000465052 0.00106743 0)
(4.38559e-05 9.37723e-05 7.86886e-22)
(0.000642129 0.00111216 -9.08468e-22)
(0.00142983 0.0011535 -2.3788e-21)
(0.000576416 0.00100411 0)
(0.000493558 0.000845296 -1.20859e-24)
(0.000496079 0.000856314 0)
(0.000343973 0.000438967 0)
(0.000235908 0.000417106 0)
(0.000856019 0.000556589 -8.8019e-22)
(0.000501811 0.000864409 -6.21521e-22)
(0.000357402 0.00060682 -1.2454e-22)
(0.000333008 0.000490045 2.40264e-21)
(0.000577049 0.000980556 -1.85464e-22)
(0.000477328 0.000856388 7.53378e-22)
(0.000889539 0.000170442 2.1965e-25)
(0.000491932 0.00116478 6.96078e-22)
(0.000602925 0.00107202 -1.84364e-24)
(0.000620992 0.00122741 -4.63526e-24)
(4.04394e-05 8.41483e-05 8.70881e-22)
(0.00062201 0.00108346 -1.94445e-22)
(4.6111e-05 0.000114189 4.43038e-22)
(4.92923e-05 -2.79246e-06 1.16005e-21)
(0.000670959 0.000609281 -2.72668e-22)
(0.000698622 0.0011671 -1.10265e-21)
(0.000580721 0.000964189 0)
(0.000216928 0.000400224 0)
(0.000330087 0.00026434 1.17682e-21)
(0.000595487 0.00107901 4.22769e-24)
(0.000966536 0.000100716 4.52834e-21)
(0.000578748 0.000991414 8.39164e-22)
(3.70591e-05 7.51312e-05 5.96462e-23)
(0.000330786 0.000554968 -1.06209e-21)
(0.000183348 0.000581616 8.10419e-22)
(0.000647499 0.00111074 -1.03764e-21)
(0.00020808 0.000335602 -3.93186e-23)
(0.000460169 -8.78217e-05 -2.19159e-21)
(0.000614538 0.00107499 -1.47947e-22)
(9.73493e-05 0.000972042 -1.18068e-22)
(0.000874257 0.000375728 0)
(0.000635073 0.00109376 0)
(0.00109238 4.64851e-05 1.2086e-22)
(0.000627239 0.00109479 0)
(0.000185528 8.3578e-05 6.49889e-22)
(1.8337e-05 0.000490968 0)
(3.39241e-05 6.73247e-05 4.88786e-23)
(0.000423678 0.00031609 7.12876e-22)
(0.00052193 0.000929359 0)
(0.000629509 0.00108541 0)
(0.000899657 0.000777799 -1.00581e-23)
(0.000176628 0.000112484 3.55954e-22)
(0.000567054 0.000976578 -8.43044e-23)
(0.000633287 0.00109364 -8.20056e-22)
(0.000603144 0.00103896 0)
(3.08806e-05 5.97548e-05 -4.17527e-22)
(0.000717156 0.00124164 3.80624e-22)
(0.000641264 0.00109598 -4.03402e-22)
(0.000471884 3.38515e-05 0)
(0.000646166 0.00111484 4.0364e-22)
(0.000260707 0.000336278 2.85072e-21)
(0.000512361 0.000730909 -1.23308e-21)
(0.00060959 0.00104537 1.286e-21)
(0.000603251 0.00111447 -5.91288e-23)
(0.000523481 0.000920529 -3.9053e-22)
(5.8804e-05 5.2044e-05 -4.85756e-22)
(0.000578052 0.00109295 4.31322e-23)
(0.000628679 0.0011143 -4.08203e-22)
(0.000442054 0.000810232 1.29336e-21)
(2.82778e-05 5.32333e-05 4.28074e-22)
(7.54002e-05 0.00060485 -4.22436e-22)
(5.93898e-05 0.000139079 -1.08961e-21)
(0.000601633 0.0010918 -1.11621e-22)
(0.000632647 0.0010847 -3.78162e-22)
(6.66525e-05 1.68169e-05 -8.27129e-22)
(0.000189968 0.000591283 1.53248e-21)
(0.000589755 0.00102941 -9.78201e-22)
(2.59341e-05 4.71881e-05 -4.18124e-22)
(0.000614867 0.00105504 -2.81759e-22)
(0.000313187 0.000284606 1.48509e-21)
(2.3002e-05 4.05674e-05 6.00241e-22)
(0.000643409 0.00110153 3.86643e-22)
(0.000626356 0.00107597 0)
(0.000625197 0.00107615 -2.881e-22)
(2.16652e-05 3.63502e-05 -9.83287e-23)
(4.30066e-05 -8.28608e-06 2.06576e-22)
(0.000515064 0.000618928 -7.45517e-22)
(0.000622033 0.00107058 -3.3327e-22)
(0.00104233 -1.34891e-05 4.8438e-22)
(0.000482057 0.000860006 -9.08169e-22)
(0.000181703 0.000128516 -1.07588e-21)
(0.000170259 0.0001174 1.14166e-22)
(0.000976625 0.000146893 0)
(0.000747517 0.000875254 0)
(1.97701e-05 3.21342e-05 -1.96786e-22)
(0.000509381 0.000913874 -1.18238e-22)
(0.000646788 0.00121408 -1.00183e-23)
(0.000766033 2.06318e-05 -1.24193e-22)
(5.7854e-05 -3.71365e-06 0)
(5.62963e-05 0.00012596 7.8329e-22)
(0.000498367 0.00085611 -1.01292e-21)
(0.000200765 0.000586695 0)
(0.000516107 0.000889566 0)
(1.69349e-05 1.36474e-06 5.07318e-22)
(0.000540404 0.00049681 -1.64078e-21)
(0.000616371 0.00107226 5.3049e-22)
(0.000516691 0.000887581 -5.86246e-24)
(0.000384254 0.000519347 -8.87627e-25)
(0.000678747 0.000539557 -1.48719e-24)
(0.000217168 0.00048738 5.57174e-22)
(0.000106327 5.94736e-05 -6.79847e-26)
(0.000642279 0.00111177 1.33722e-23)
(0.00125093 0.00111483 1.57402e-21)
(0.000123003 4.08786e-05 1.98278e-21)
(0.000647823 0.00141265 4.19816e-24)
(-5.7659e-05 0.00100404 2.98979e-24)
(2.63496e-06 -4.17698e-06 0)
(5.24363e-05 -2.92935e-06 -1.71979e-21)
(0.000459338 -0.000184661 -1.93018e-21)
(0.000606482 0.00103347 3.56639e-22)
(0.000887735 -0.000318298 0)
(0.000438253 0.000438957 1.04005e-21)
(0.000650039 0.00111496 0)
(0.000716418 0.00123981 0)
(0.000581093 0.000981677 1.96042e-22)
(0.000867343 0.0003564 -1.33485e-21)
(0.000392226 0.000847638 0)
(0.000130582 0.000191119 0)
(0.000686286 0.00124611 -1.18886e-21)
(8.66433e-05 2.56874e-05 -1.05349e-22)
(5.73541e-05 0.000998696 -1.17437e-21)
(0.000446204 0.00122521 -1.40941e-23)
(0.000524136 0.000905686 9.12909e-22)
(0.00063462 0.00109367 -4.05211e-22)
(7.45394e-05 -1.12865e-05 0)
(0.000649444 0.001111 -2.11128e-21)
(0.000110248 7.08934e-05 9.50131e-22)
(0.000492774 0.000924116 -2.36572e-21)
(0.000609156 0.00108069 5.66792e-22)
(0.000563683 0.000277415 1.32604e-21)
(0.00103722 -2.12261e-06 -1.67669e-21)
(0.000546636 0.000946304 -4.48966e-22)
(0.00106416 -3.93582e-06 4.71256e-22)
(0.000636658 0.00109176 3.68634e-22)
(0.000461064 0.00102187 9.35051e-22)
(5.31359e-05 0.000434566 1.57616e-21)
(0.000705825 0.00124521 -2.61445e-22)
(0.00112825 0.000666997 -7.55323e-22)
(0.000229437 0.000649126 6.52527e-22)
(0.000652827 0.00055103 1.516e-21)
(0.000659334 0.00122008 0)
(0.000495724 0.000886745 -2.04123e-22)
(0.000679142 0.00107909 -1.46937e-23)
(0.000712364 0.00123964 1.87e-22)
(0.000838518 0.000675326 2.50059e-21)
(0.000232777 0.00049756 0)
(0.000540724 0.000933901 0)
(0.00094929 -1.41268e-05 -1.24652e-21)
(0.000242004 0.000132944 -1.54946e-21)
(0.000487306 0.000588827 -7.45214e-22)
(4.60201e-05 4.21007e-05 -4.64634e-23)
(5.16481e-05 0.000723187 1.40903e-21)
(0.000355147 0.000273091 1.24376e-21)
(4.39031e-05 -4.73987e-06 0)
(0.000133256 0.000523881 1.14378e-21)
(0.000121921 7.58567e-05 1.78751e-21)
(0.000497463 0.00108847 -1.32262e-23)
(0.000591138 0.00103558 -2.96495e-23)
(5.49576e-05 0.000488392 4.86902e-22)
(1.35567e-05 -1.30499e-06 -3.93843e-22)
(0.000375499 2.60619e-06 0)
(0.000625048 0.00107036 -2.3711e-22)
(0.000568223 0.000971739 -1.76254e-22)
(0.000634235 0.00111398 2.81656e-24)
(2.47189e-05 4.6548e-07 0)
(4.59977e-05 9.92478e-05 -7.18064e-22)
(0.000266568 0.000530909 2.16069e-21)
(0.00111118 0.000602486 -2.1699e-24)
(0.000556302 0.000731244 -1.77801e-21)
(0.00021687 0.000487523 0)
(0.000750053 0.00126853 1.87077e-22)
(0.000782586 0.000416285 0)
(0.000598589 0.00102744 0)
(0.000481461 0.00125612 2.68537e-23)
(0.000545532 0.000955868 -6.69371e-22)
(0.00093131 0.000146446 2.07056e-21)
(0.000580845 0.000993804 7.56393e-22)
(0.000176731 0.00026163 -1.83985e-22)
(0.000338952 0.000587381 -7.70276e-22)
(0.00062214 0.00106804 1.88832e-22)
(0.000461842 0.00108235 1.03494e-21)
(3.96478e-07 -1.10413e-06 -2.16948e-22)
(0.000645331 0.000225183 -5.18132e-22)
(0.000110154 0.00053772 3.56342e-22)
(6.20923e-05 -0.00019314 0)
(0.000615244 0.00114629 1.419e-22)
(0.000113219 7.87019e-05 -2.2342e-21)
(0.000621196 0.00106572 1.24165e-22)
(4.20605e-05 8.88449e-05 -5.45888e-23)
(0.000587528 0.00102357 1.0163e-23)
(0.000619652 0.0010346 6.87473e-22)
(0.000299914 0.000579068 -1.0588e-21)
(0.000526296 0.000920982 8.41021e-24)
(0.000361773 0.000403261 2.29933e-21)
(8.08762e-06 0.000442881 -5.00277e-22)
(0.000614582 0.00107244 -2.0933e-22)
(9.87354e-05 9.61657e-05 -1.08557e-21)
(0.000348777 4.96382e-05 -1.08357e-21)
(0.00060642 0.00112327 1.10748e-22)
(0.00029176 0.000505306 -1.9532e-21)
(0.000208407 0.000750331 0)
(0.000700751 0.00125571 2.68171e-22)
(0.000633332 0.00109018 0)
(0.000586017 0.00108264 4.79196e-23)
(5.09611e-05 4.49124e-05 0)
(0.000513324 0.000884997 0)
(9.52858e-05 3.11702e-05 0)
(0.00065197 0.000265302 0)
(0.000433127 0.000556565 1.89516e-23)
(0.000642757 0.00111126 0)
(0.000601089 0.00108021 0)
(8.46033e-05 9.59508e-05 1.81269e-21)
(0.000467718 -0.000267239 2.13427e-21)
(3.87695e-05 7.95617e-05 -8.60559e-22)
(0.000644848 0.0011573 -2.38504e-22)
(1.41965e-06 7.49499e-06 0)
(0.000920965 0.000143898 -1.94561e-21)
(0.000621223 0.00112001 0)
(0.000696034 0.000347009 1.26316e-21)
(0.000502614 0.000854582 0)
(0.00067231 0.00117726 9.81411e-22)
(0.000532491 0.000906509 1.09049e-21)
(0.000363562 0.000530166 -2.86146e-21)
(0.000651716 0.00110558 -1.51015e-21)
(0.000637629 0.00117655 -7.08248e-23)
(-0.000411197 0.000445117 -3.18621e-21)
(0.000650559 0.0011363 -6.28893e-22)
(0.000536931 0.000928173 1.37635e-21)
(0.000566465 0.000981927 -9.93692e-22)
(7.13376e-05 -0.000210203 3.86044e-22)
(0.000801451 0.000404219 -1.49605e-22)
(0.000522827 0.000904896 0)
(3.63023e-05 7.08804e-05 1.00828e-22)
(0.000305399 0.000291752 -3.53987e-21)
(0.000104008 0.00010267 1.70047e-24)
(0.000594241 0.00102192 3.93433e-22)
(0.000542893 0.000927789 0)
(0.000755154 -0.00025357 -1.06688e-21)
(0.000525845 0.000594672 7.00134e-22)
(0.000569135 0.000981943 2.02906e-21)
(0.00067387 0.00154546 -6.84286e-24)
(0.000589807 0.000130055 9.62538e-22)
(0.000542965 0.00093706 -1.40671e-21)
(0.00054856 0.00096797 -3.8655e-23)
(0.000580599 0.00100532 -8.25177e-23)
(0.000308281 0.000570341 8.49699e-22)
(3.2542e-05 6.3438e-05 -1.01475e-22)
(0.000573406 0.000986491 -4.59646e-24)
(0.000861942 0.000339094 9.66725e-22)
(0.000307272 0.000556337 2.14666e-22)
(0.000567206 0.000977164 0)
(0.000981267 7.30079e-05 -4.58908e-22)
(0.000176975 0.00040795 2.13694e-22)
(0.000827635 0.00058564 1.47642e-21)
(0.000173847 0.000251788 -7.30393e-22)
(3.20838e-05 0.000402113 -8.81236e-22)
(0.000899414 9.07232e-05 7.17324e-23)
(0.000983316 0.000162096 5.2434e-22)
(0.000564253 0.000972594 7.04339e-24)
(0.000537445 0.000926347 0)
(2.83885e-05 0.000814996 4.53456e-22)
(7.85226e-06 2.06919e-06 9.40355e-22)
(0.0006051 0.00108594 0)
(0.000649442 0.00111778 0)
(0.000963886 8.29346e-05 -1.00725e-21)
(7.45439e-05 2.01175e-05 -2.98761e-21)
(0.000199327 0.000250457 4.05769e-22)
(2.95399e-05 5.64324e-05 -2.68829e-23)
(0.00056289 0.000971513 -1.11865e-24)
(0.000515885 0.000871378 2.80133e-22)
(0.00062134 0.00107062 0)
(0.00053731 0.000867836 5.0492e-22)
(0.000512535 0.000890719 -2.49394e-22)
(0.000587835 0.0011351 4.08878e-23)
(0.000554321 0.000462275 -2.13319e-21)
(0.000570385 0.000972974 6.04136e-24)
(2.16376e-05 -1.5293e-06 -1.79566e-21)
(0.00056193 0.000967785 -1.67525e-21)
(0.000301194 0.00052524 -7.54104e-26)
(0.000637502 0.00111367 -1.03671e-22)
(0.000619984 0.0011088 9.91107e-22)
(0.000325505 0.000461604 -1.62325e-21)
(2.36143e-06 1.50442e-05 -5.96309e-23)
(0.000556061 0.000958947 5.91532e-22)
(0.000547335 0.000874575 8.52655e-22)
(2.70598e-05 5.01867e-05 4.35359e-22)
(0.000542504 0.000943203 -9.36835e-22)
(0.000562392 0.000982675 6.51081e-24)
(0.000956057 8.05266e-05 2.94895e-21)
(0.000552585 0.000953452 6.17844e-22)
(0.000598229 0.00102288 5.83606e-22)
(0.000515776 0.00087263 6.92942e-22)
(0.00136608 0.000406049 0)
(0.000509412 0.000885045 1.15911e-21)
(0.00181076 0.000234128 0)
(0.000871245 0.000728541 -1.30082e-21)
(0.000626538 0.0010719 2.82657e-22)
(0.000185159 0.000534112 -4.82063e-21)
(0.00141266 0.00100014 6.86665e-22)
(0.000518375 0.00091077 -2.51805e-21)
(0.000203642 0.000156883 2.18372e-21)
(0.000397753 1.09891e-05 0)
(0.000290095 0.000714159 6.01209e-24)
(3.51941e-05 0.00036755 0)
(0.000590247 0.00101602 -8.15772e-22)
(1.46292e-06 -1.36403e-05 8.81719e-22)
(2.46226e-05 4.49615e-05 2.14655e-22)
(0.000629737 0.00111772 1.60924e-22)
(0.000765176 0.00139246 5.65578e-23)
(0.000301967 0.000506198 -9.68523e-22)
(0.000494424 0.000861022 7.00195e-22)
(0.00102407 -0.000125061 -2.4034e-22)
(0.000647887 0.00110663 0)
(0.000694597 0.000881763 1.74382e-21)
(0.00102411 1.35697e-06 7.12511e-22)
(1.64675e-06 -8.72419e-06 -5.15493e-22)
(4.81645e-05 -5.23483e-06 -1.78324e-21)
(0.000525387 0.000914709 0)
(0.000711975 0.00125457 5.35216e-22)
(0.00069096 0.00127267 -3.96709e-24)
(0.000293943 0.000224957 1.23526e-21)
(0.000141595 0.000686619 -2.60238e-22)
(2.29112e-05 3.81572e-05 0)
(0.00088449 0.000124876 -4.92582e-22)
(0.000609839 0.000299637 -1.4586e-21)
(0.000564501 0.000978572 -1.00414e-21)
(0.000561518 0.000961624 -5.05691e-22)
(0.000584183 0.00101747 9.56606e-22)
(0.000657272 0.00117069 -7.80351e-24)
(0.000510727 0.000880723 -2.25218e-22)
(0.000779887 0.001366 1.18121e-21)
(0.000547579 0.000945405 1.31559e-22)
(0.000215661 0.000574422 0)
(0.000473448 0.000739905 0)
(0.000526483 0.000922543 0)
(0.000269893 0.000397609 0)
(0.00059283 0.00103297 -3.6393e-22)
(0.000821537 8.89412e-05 -1.31448e-25)
(0.000181729 0.000525087 2.09413e-21)
(0.000468322 0.000191293 -1.9526e-25)
(0.000275123 0.000520783 6.23627e-22)
(0.000463058 0.000873332 7.2414e-26)
(0.000566121 -3.982e-05 2.87851e-21)
(0.000705149 0.00125414 -1.50564e-22)
(0.000545008 0.000954786 6.73392e-22)
(0.000546362 0.000485264 1.44724e-21)
(0.000657288 0.00116527 0)
(0.000193522 0.000602879 0)
(0.000626926 0.00107915 -7.14059e-22)
(0.000447697 0.000493172 -2.07383e-21)
(0.00102361 -0.000113773 -2.32063e-22)
(0.000472306 -0.000410427 -3.11764e-24)
(0.000629425 0.0011172 0)
(2.3524e-05 9.60713e-07 -3.91479e-22)
(0.000129884 0.000513923 5.82933e-22)
(0.000522133 0.000904168 8.35613e-22)
(0.000781686 0.00136606 0)
(0.000462431 0.00134331 -2.53661e-23)
(0.00022882 0.00025616 5.8177e-22)
(0.000353841 0.00126436 -6.80176e-22)
(0.00101636 -4.8465e-05 4.84928e-22)
(0.00038469 0.000587669 0)
(0.000707536 0.00125044 1.55243e-22)
(0.000783255 0.00136542 0)
(0.000778 0.00136467 1.1427e-21)
(0.000499317 0.000869314 1.24841e-21)
(0.000308464 0.000532271 1.02839e-21)
(0.000554654 -2.77059e-05 3.57143e-21)
(0.000556643 0.000953346 1.23209e-21)
(1.53124e-06 -2.09282e-05 -6.99373e-24)
(0.000258096 0.000728486 0)
(0.000288456 0.000309871 1.11201e-21)
(0.000774881 0.00136236 -1.08901e-21)
(2.35584e-06 2.56371e-05 -1.88831e-21)
(0.000186676 0.000603769 -3.18549e-25)
(0.000586433 0.00101097 -1.26919e-21)
(0.000438679 0.00130986 0)
(0.000609723 0.00105438 -9.54288e-22)
(0.000622182 0.00106286 4.83058e-22)
(0.000526976 0.000921865 5.74607e-24)
(0.00061892 0.00106767 1.24817e-22)
(0.000558185 0.000398324 8.41933e-22)
(0.000457163 0.000920484 -8.05526e-22)
(0.000345488 0.000268241 -3.10757e-21)
(0.00053693 0.000928273 2.05191e-21)
(1.61793e-06 -2.5097e-05 -8.8268e-22)
(0.000617463 0.00107741 7.08127e-23)
(0.000778778 0.000580861 -2.04892e-21)
(0.000713923 0.0012405 -5.21251e-24)
(0.000540605 0.000915351 -2.08771e-22)
(0.000538707 0.000953354 2.91399e-22)
(1.50017e-06 -1.71519e-05 0)
(0.000604916 0.00104386 3.17361e-22)
(0.000525788 0.000927971 3.19809e-22)
(0.000986673 0.000122809 -2.01538e-21)
(0.00056925 0.000122017 -2.39659e-23)
(0.00067141 0.00117907 0)
(0.000328037 0.00105042 -1.36777e-23)
(0.000562297 0.000992947 5.02299e-22)
(0.000587445 0.00107969 0)
(0.000645655 0.00111065 1.01561e-21)
(0.000784682 0.00136447 -1.17857e-21)
(5.95808e-05 -6.46624e-07 -1.62735e-21)
(0.000143776 0.000389622 -1.42917e-21)
(0.000524818 0.0011529 6.46911e-24)
(1.14138e-05 5.51536e-05 -1.03653e-21)
(0.000370117 0.000225816 1.11273e-25)
(0.00065274 0.00116645 2.28539e-22)
(1.40091e-06 -1.03248e-05 7.41581e-22)
(0.000630793 0.00108284 0)
(0.000238851 0.000812077 0)
(1.80141e-06 -3.19978e-05 1.80186e-21)
(0.000986943 4.6364e-05 -2.19413e-22)
(0.000214944 0.000778469 1.78194e-23)
(0.000571238 0.000959112 -6.19975e-24)
(0.000393486 0.000136249 9.92715e-22)
(0.000819971 0.000856207 0)
(0.000713384 0.00124295 0)
(0.000477338 0.000833369 0)
(0.000714999 0.00124153 7.38887e-24)
(0.000248703 0.000417659 6.57356e-22)
(0.000786008 0.00136336 1.09991e-23)
(5.36912e-05 -4.89678e-07 0)
(0.000568082 0.000977504 0)
(0.000644628 0.00110248 5.30941e-22)
(0.000611836 0.0014477 -4.02534e-23)
(0.000452504 0.00099377 -2.00457e-21)
(0.000634743 0.00111617 -2.32254e-22)
(2.13933e-06 -4.01949e-05 9.09626e-22)
(0.000490429 0.00087437 4.33955e-22)
(0.000525898 0.000916839 0)
(0.000842945 0.000114181 -1.64224e-21)
(0.000373372 0.000644463 1.81829e-21)
(0.000628413 0.00106083 -4.23221e-22)
(0.000639395 0.00111337 -1.19819e-22)
(7.77493e-05 7.00631e-05 -9.05786e-22)
(0.000406606 0.000139143 0)
(0.000321636 0.00113552 -1.74168e-21)
(-0.000345106 0.00105954 -2.48891e-21)
(0.000306012 0.000487827 1.65437e-21)
(0.000644456 0.00112483 9.17146e-22)
(0.000720062 0.00124483 -1.11391e-21)
(0.000501045 0.000848498 -2.54292e-22)
(2.44202e-06 -4.9932e-05 -1.81086e-21)
(3.10041e-05 0.000382119 0)
(0.000692624 0.00126496 0)
(0.000299559 0.000499637 -1.14429e-23)
(6.7697e-05 6.11848e-05 -3.62109e-23)
(0.000585533 0.00100835 -4.37075e-22)
(0.000537669 0.000929208 -1.38356e-21)
(0.000219797 0.000499701 0)
(1.15078e-05 0.000329315 0)
(2.77685e-06 -5.76222e-05 7.28249e-24)
(0.000576722 0.000993309 -1.20468e-21)
(7.47159e-05 6.6655e-05 0)
(0.000176523 8.17643e-05 4.33354e-22)
(0.000999171 0.000114529 0)
(0.000158878 0.000272418 -2.35077e-21)
(0.000535549 0.000923234 -5.54036e-22)
(0.000624478 0.00107472 -2.51024e-22)
(6.75335e-05 6.57756e-05 0)
(0.000545558 0.000938615 -6.4511e-22)
(0.000262176 0.000420824 0)
(0.000183094 0.000586072 1.05784e-21)
(3.23607e-06 -6.63463e-05 9.17083e-22)
(0.000372077 0.000585326 1.45526e-21)
(0.000780263 0.00136189 1.20457e-21)
(0.000335755 4.23897e-05 -2.1248e-26)
(0.000404147 -0.000547075 0)
(0.000569807 0.000985869 0)
(0.000721893 0.00124509 6.3959e-22)
(0.000110784 0.000393508 0)
(0.000602125 0.0010483 -6.47127e-22)
(9.0073e-05 0.000392876 9.85969e-22)
(0.000691395 0.00125749 -1.06002e-22)
(0.000613585 0.00106249 -3.26715e-22)
(0.000577009 0.0010113 -7.05741e-23)
(0.000535239 0.000924236 -6.08525e-22)
(0.000615135 0.00105069 2.1062e-21)
(0.000616158 0.000683745 1.49289e-21)
(4.03026e-06 -8.1972e-05 0)
(0.000773102 0.00130744 -1.75387e-21)
(0.000557433 0.000597524 1.49035e-21)
(0.000497883 0.000897716 -3.98521e-22)
(9.92949e-05 0.000421153 6.65971e-23)
(0.000507845 0.000876222 -8.85226e-22)
(0.000409281 0.000323777 0)
(0.00065115 0.0011734 1.11515e-22)
(0.000574132 0.000975037 -7.37413e-23)
(7.45393e-05 5.84256e-05 -5.58554e-22)
(0.00050112 0.000841579 -5.45161e-22)
(0.000605014 0.00104791 1.20233e-21)
(0.000580823 0.00101155 9.47988e-22)
(0.000367213 0.0004128 0)
(0.000686342 0.00122301 1.32224e-21)
(2.33335e-05 -1.54205e-06 -6.03334e-23)
(0.000562891 0.0009637 0)
(0.000217259 0.000265639 -3.49422e-25)
(0.000777864 0.00137768 0)
(0.000779751 0.00130627 8.66531e-22)
(0.000648499 0.00112377 5.76326e-22)
(0.000235934 0.00043951 -1.95854e-21)
(0.000519881 0.0009016 -5.11875e-24)
(2.47381e-05 -0.000155382 -9.14129e-22)
(0.00052614 0.000496093 8.87878e-22)
(0.000480886 0.000842975 5.40835e-24)
(0.000146311 0.000398644 9.94023e-22)
(0.000542259 0.00092085 2.33638e-22)
(0.000277477 0.000389418 -2.05006e-21)
(1.73012e-05 -0.000114733 1.81041e-21)
(0.00135848 9.38004e-05 2.82061e-22)
(0.000777682 0.00137927 -5.87582e-24)
(2.05739e-05 -0.000133196 0)
(0.000333312 0.000501671 -1.05582e-21)
(0.000996618 0.000409404 1.38543e-22)
(0.000601926 0.000823866 -1.47026e-21)
(0.00121789 0.000377278 -5.73209e-22)
(0.000425102 0.00124535 8.94241e-22)
(0.000491447 0.000881768 -5.03403e-22)
(0.000554124 0.000958725 -1.69306e-23)