/*--------------------------------*- C++ -*----------------------------------*\
  =========                 |
  \\      /  F ield         | OpenFOAM: The Open Source CFD Toolbox
   \\    /   O peration     | Website:  https://openfoam.org
    \\  /    A nd           | Version:  8
     \\/     M anipulation  |
\*---------------------------------------------------------------------------*/
FoamFile
{
    version     2.0;
    format      ascii;
    class       volVectorField;
    location    "7";
    object      U;
}
// * * * * * * * * * * * * * * * * * * * * * * * * * * * * * * * * * * * * * //

dimensions      [0 1 -1 0 0 0 0];

internalField   nonuniform List<vector> 
7843
(
(0.000738703 0.00133158 -2.21457e-22)
(0.000551359 0.000986779 1.04009e-21)
(0.000556622 0.00100923 0)
(0.000983923 1.21743e-05 6.37171e-22)
(0.000701914 0.00123087 -2.77475e-22)
(0.0010018 3.03188e-05 -7.58425e-23)
(0.000574098 0.000538528 -2.22612e-21)
(0.000597308 0.00104505 0)
(0.00021734 9.58118e-05 3.06298e-21)
(0.000551105 0.000974108 0)
(0.000577153 0.0010223 8.2589e-22)
(0.0007466 0.00132597 0)
(0.000317812 5.39468e-05 0)
(0.000572482 0.00103065 0)
(0.000578101 0.000984588 1.39043e-21)
(0.000347889 0.000605041 8.4195e-22)
(0.000574991 0.00102018 2.57778e-24)
(0.000580658 0.000973534 0)
(8.31912e-06 8.80411e-05 9.13822e-22)
(0.000253032 0.000380405 0)
(0.00020582 0.000142288 2.63442e-21)
(0.00041194 0.000445925 -4.40045e-22)
(0.00057851 0.00102611 2.32037e-24)
(8.38039e-05 0.000871874 -1.22666e-22)
(0.000751144 0.0012244 -5.1789e-22)
(1.73917e-05 -5.42552e-06 0)
(0.000584378 0.00136854 -3.74087e-23)
(5.87694e-05 0.000378532 2.65554e-21)
(0.000657774 0.00120262 -1.07447e-22)
(0.00101267 9.44549e-06 -7.23697e-22)
(0.000885804 0.000158346 -9.35522e-22)
(0.000561125 0.00103616 3.0099e-22)
(0.000816086 -9.51342e-05 8.73007e-22)
(0.00060859 0.00105449 1.17365e-22)
(0.000546551 0.000972752 8.03532e-22)
(0.000798201 0.00125214 -1.86561e-21)
(0.000577901 0.000976194 -5.99231e-22)
(0.000931875 0.000346357 7.79642e-25)
(0.000994831 4.83399e-05 -9.80709e-23)
(0.00050961 0.000939894 8.77359e-22)
(0.000578122 0.000985381 -1.58763e-23)
(0.000615591 0.00109055 -9.64856e-22)
(0.000731063 0.00124832 0)
(0.000555689 0.000985212 -2.09483e-21)
(0.000224194 7.81068e-05 -9.27547e-22)
(0.000189464 0.000462116 6.11269e-22)
(0.000577115 0.00102919 8.83063e-22)
(0.000208494 0.000586993 1.23146e-21)
(0.000598157 0.00106067 1.0967e-21)
(1.06546e-05 3.29936e-05 2.41387e-23)
(0.000354464 4.33331e-05 -8.76623e-22)
(0.000558641 0.000982036 1.13326e-23)
(0.000593363 0.00105324 0)
(0.000772396 0.000532991 7.83119e-22)
(0.000676856 0.00117382 -2.0793e-22)
(7.2819e-06 8.3962e-05 0)
(0.000368618 0.000447068 2.34533e-21)
(0.000560868 9.27624e-05 8.97026e-22)
(0.000731056 0.0012839 -3.4598e-24)
(9.85559e-05 0.000170878 -1.20139e-21)
(0.000728951 0.0012499 3.43328e-22)
(0.001039 0.000450709 8.23936e-23)
(7.06276e-05 0.000556528 -4.1242e-21)
(0.00082458 0.000118385 -1.6002e-21)
(0.000661274 0.00127924 7.21852e-24)
(0.00074777 0.0013412 -5.62252e-22)
(0.000741398 0.0012416 0)
(1.01249e-05 6.69442e-05 0)
(0.000571405 0.000528812 0)
(0.000728844 0.00124971 0)
(0.000360719 -0.00013753 -8.574e-22)
(0.000571122 0.00099281 8.82305e-22)
(0.000215786 0.00117061 1.68833e-23)
(9.95569e-05 0.000164435 7.85159e-22)
(0.000344121 -9.66891e-05 -7.78686e-22)
(0.000425894 0.000775999 7.02732e-22)
(0.000732777 0.00124693 2.75131e-22)
(0.000729125 0.00124945 -1.16454e-22)
(0.000616891 0.00109052 0)
(0.000923856 6.85e-05 0)
(0.000470638 -2.4389e-05 -1.22243e-21)
(0.000668932 0.00122146 0)
(0.000569695 0.00103322 -1.03157e-21)
(0.000700121 0.000321771 1.91702e-21)
(0.000445912 0.000770194 -5.63882e-22)
(0.000607009 0.00105021 -5.77597e-22)
(0.000458119 0.000357284 0)
(0.000729148 0.00125993 -7.34459e-23)
(0.000834789 0.000305347 -1.4727e-21)
(0.000217237 0.000461994 8.91406e-22)
(0.000191737 0.000172142 -5.00606e-21)
(0.000591228 0.00100618 -4.93063e-22)
(1.44288e-05 4.99901e-05 8.79206e-26)
(0.00086149 0.000131405 2.78406e-21)
(0.000522914 0.000344311 0)
(0.000770808 0.00134506 8.59794e-22)
(2.28435e-05 6.89074e-05 -1.9494e-21)
(0.000405884 0.00100636 -2.09271e-23)
(0.000414865 3.22084e-05 1.33171e-21)
(0.000433769 0.000800911 -7.11266e-22)
(0.000444565 0.00110653 0)
(0.000559387 0.00122174 1.49982e-22)
(0.000377022 0.000403129 0)
(0.000710323 0.00145592 0)
(0.00020092 0.000204451 -1.27629e-21)
(0.000141533 0.00109422 -1.08263e-21)
(8.4674e-06 4.82823e-05 1.77167e-22)
(0.000352448 -0.000184188 -8.70674e-22)
(0.000453651 0.000890117 -7.11553e-22)
(0.000559612 0.000970707 0)
(0.000689078 0.00125193 1.2948e-23)
(0.000592288 0.000575983 -7.93499e-22)
(0.0010684 0.000408031 7.66191e-23)
(0.000617135 0.00104841 -6.54001e-22)
(0.000169737 0.000313908 -2.42196e-21)
(0.000716821 0.00131941 -5.92703e-22)
(0.00083257 0.000273409 1.94591e-24)
(0.000761304 0.00133431 9.2883e-23)
(0.000190561 0.000210891 0)
(0.000590883 0.00100152 1.58161e-21)
(0.000701697 0.00123107 5.17085e-22)
(0.000692513 0.00121912 9.84083e-23)
(0.000552755 0.00100001 -8.64072e-22)
(0.000673316 0.00114146 2.21113e-22)
(0.000496209 3.41331e-05 -1.1186e-21)
(0.000377213 0.000504301 0)
(0.000620806 0.0010433 0)
(0.000182131 0.000879918 -1.99039e-21)
(0.000537123 0.000730777 -9.27634e-23)
(0.000995308 3.84281e-05 0)
(0.0005916 0.00100516 4.97811e-22)
(0.000178935 0.000379365 4.64425e-22)
(0.000355635 0.000181052 1.60868e-21)
(0.000691308 0.00119919 -5.56754e-22)
(0.000520094 0.000984535 -2.29164e-21)
(0.000574455 0.000972259 -8.95521e-22)
(0.000991191 3.8215e-05 4.78525e-23)
(0.000309951 0.000727684 -1.77173e-23)
(0.000578425 0.000981077 -5.43854e-24)
(0.000729849 0.00125513 2.32911e-22)
(0.000477512 7.05708e-05 -9.53619e-22)
(0.000584016 0.000843532 1.14375e-21)
(0.000712555 0.000242568 5.89952e-23)
(0.000964159 -0.000235067 1.18411e-21)
(1.40333e-05 5.25402e-05 9.82815e-26)
(0.000781005 -3.08969e-05 6.94929e-22)
(0.000618305 0.0011021 -1.02563e-21)
(0.000495445 0.000965208 -1.72168e-23)
(0.000707086 0.000861108 1.46633e-21)
(8.33595e-05 0.000857493 1.12291e-21)
(0.000599627 0.00104134 8.49254e-24)
(0.000541065 0.000566395 -9.19027e-22)
(0.000782549 0.000176247 8.89556e-22)
(0.000588731 0.000997416 0)
(0.000742577 0.00124107 7.89806e-22)
(0.000570018 0.00100424 -8.80218e-22)
(4.6095e-05 0.000300006 -1.57171e-21)
(0.000196244 0.000389593 -6.43872e-22)
(0.000571195 0.0010187 2.18373e-21)
(0.000576633 0.000995596 0)
(0.000343816 0.00011167 1.91137e-21)
(0.000571156 0.00100326 -1.78491e-21)
(0.00132672 0.000385991 5.74891e-23)
(0.000572111 0.00100504 -7.61776e-24)
(0.000577317 0.00102051 -1.07061e-21)
(0.000594327 0.00104868 -3.65115e-22)
(0.000707667 0.000299709 -1.12268e-21)
(0.000309133 0.00131531 0)
(0.000612609 0.00105789 -2.26117e-22)
(0.000573021 0.00100912 9.28024e-22)
(0.000593017 0.00106285 0)
(0.000576141 0.00101791 1.03813e-21)
(0.000573329 0.00101148 -3.79073e-24)
(0.000129975 0.000321203 -2.48243e-21)
(0.000574913 0.00101441 -9.95785e-22)
(0.000328104 9.80427e-05 -6.18206e-26)
(0.000446513 0.0008134 0)
(0.000233651 2.40698e-05 1.03817e-22)
(0.000432416 0.000792638 8.25353e-22)
(0.000753197 0.00132341 -3.26171e-22)
(0.000457218 0.000784875 2.46627e-22)
(0.000611424 0.00105448 -5.07124e-23)
(3.79508e-05 0.000238203 8.74788e-27)
(0.00056524 0.00101563 0)
(0.000555437 0.000977982 8.77857e-22)
(0.000416065 0.000565984 -3.9083e-23)
(8.50035e-06 4.47552e-05 2.25094e-23)
(0.000556933 0.000584527 8.68773e-22)
(0.00042889 0.000721427 0)
(0.000220313 0.000467382 0)
(0.000572377 0.000988411 -4.17795e-22)
(0.000347987 0.0006131 9.86392e-22)
(0.000885849 8.61477e-05 8.25825e-22)
(0.000326588 7.15447e-05 0)
(0.000556857 0.000998277 -9.46821e-22)
(9.95137e-05 0.000111727 2.84864e-22)
(2.31061e-05 -1.26776e-06 0)
(0.000257314 0.000348711 2.7516e-21)
(0.000729407 0.00125418 -8.49588e-23)
(0.00047099 0.00094334 1.16251e-21)
(0.000560324 0.000978348 2.10655e-21)
(0.00073065 0.00126815 1.21761e-22)
(0.000589713 0.00100774 9.578e-22)
(0.000705866 0.00120842 3.47227e-22)
(0.000454591 0.000864084 7.74665e-23)
(9.41286e-05 0.000102954 -3.90023e-22)
(0.000736644 0.00130887 8.57625e-23)
(1.384e-05 0.000167425 3.09095e-22)
(1.488e-05 -7.724e-06 -5.81262e-22)
(0.000589724 0.00100064 -5.35124e-22)
(0.00080083 0.000754232 0)
(0.000560006 0.000974658 -1.0719e-21)
(0.000220372 0.00044187 7.2438e-22)
(0.000734704 0.00124794 3.40703e-22)
(0.000743188 0.00123969 2.17707e-22)
(0.000453687 0.000923235 2.37558e-21)
(0.00072439 0.000224436 -2.00814e-22)
(0.00069416 0.00122284 0)
(2.42555e-06 7.95026e-07 0)
(0.000764992 0.000498916 0)
(0.000479672 0.000349682 4.09465e-22)
(4.35446e-05 0.00050297 3.06365e-22)
(0.000284547 0.00103558 0)
(0.000575843 0.00102088 1.06824e-21)
(0.000697812 0.000708989 1.97173e-22)
(0.000871257 0.00012301 0)
(0.0012447 0.000301006 0)
(0.000739108 0.00124302 0)
(0.000572959 0.00102076 5.25802e-24)
(0.000993929 0.000469121 0)
(0.000196058 0.000613238 0)
(6.91472e-06 4.13182e-05 -4.37317e-23)
(4.01204e-06 2.41492e-05 -3.8101e-22)
(0.000623106 0.0010793 1.49333e-22)
(0.000541222 0.000459358 -6.177e-22)
(0.000743032 0.00123896 -4.26639e-22)
(0.000634219 0.00109356 0)
(0.00038176 0.000855419 -1.79739e-22)
(0.000742447 0.00124128 7.68105e-22)
(0.000483265 0.00122968 0)
(0.000649884 0.0011565 -6.75131e-22)
(0.000566873 0.000964329 3.06068e-22)
(0.000650852 0.00116069 6.43397e-22)
(0.000568647 0.000989157 -6.94825e-22)
(0.000252181 0.000552779 0)
(0.000432921 0.000793857 1.99163e-22)
(0.00101579 8.20686e-05 9.29258e-23)
(0.000909609 0.000317039 -2.8752e-21)
(0.000550228 0.000965906 0)
(0.000604083 0.00104223 -1.56299e-23)
(0.000950944 5.5973e-05 2.53135e-22)
(3.55399e-06 1.86411e-05 -3.29565e-26)
(0.00042997 0.000724893 -1.10304e-21)
(0.000741314 0.00123713 0)
(0.000405082 0.000753638 6.11448e-23)
(0.000785822 0.0013477 -4.22713e-22)
(0.000370712 0.000732015 0)
(0.000742268 0.00123767 2.15913e-22)
(0.000638498 0.00145589 -2.37168e-23)
(0.000614944 8.92844e-05 -1.35387e-21)
(0.000821294 7.54506e-05 -5.40984e-22)
(0.000346272 0.000464139 -1.85648e-21)
(0.00050927 0.00116708 1.04635e-22)
(0.000738528 0.00123458 9.46804e-22)
(0.000769481 0.00133266 -3.53769e-22)
(0.000836328 0.000560544 3.42168e-21)
(8.70243e-05 9.45695e-05 9.95618e-23)
(0.000576653 0.00101884 0)
(3.77714e-06 2.13121e-05 3.79786e-22)
(0.000267513 0.000879852 -2.32146e-24)
(0.000465965 -6.58829e-05 -7.69525e-22)
(5.78191e-07 2.39907e-05 0)
(0.000341086 -0.000230936 8.51211e-22)
(0.000208392 0.00119485 0)
(0.000735575 0.00123337 1.12497e-21)
(0.000437483 0.000351014 -9.87067e-25)
(0.000709071 0.00120849 4.09862e-22)
(0.000629574 0.0010939 3.04681e-22)
(0.000517212 0.00054045 1.41618e-24)
(0.000376044 0.000614125 -9.35929e-22)
(0.000759537 0.00133698 1.57802e-22)
(0.000740414 0.00123587 -9.09077e-22)
(0.000591433 0.00100298 5.12113e-22)
(0.000491607 0.000339766 -1.56783e-21)
(0.000874223 9.559e-05 1.40596e-25)
(0.000106589 0.000121882 -1.75016e-22)
(0.000483845 0.000481245 8.11766e-22)
(0.000601969 0.00105547 9.13448e-22)
(0.000747157 0.00133669 2.59733e-22)
(0.000588179 0.000996338 2.45222e-24)
(3.37974e-06 1.60656e-05 -3.81323e-22)
(0.000803206 0.000173721 0)
(0.000931421 0.000109948 -3.57971e-21)
(0.000598195 0.001023 -1.56308e-22)
(0.000317169 0.000538375 2.54989e-21)
(0.000670467 0.0011624 -1.0175e-21)
(0.000564807 0.000983666 0)
(0.0011493 0.000194771 -2.83117e-21)
(0.000562888 0.00084014 -2.63705e-22)
(0.00073411 0.00123884 1.2495e-21)
(0.000377679 0.000783126 -2.45207e-22)
(0.00017837 0.000422958 8.92698e-22)
(0.000559211 0.00096284 0)
(0.000650129 0.00115067 -4.63433e-22)
(0.000156102 0.000295481 0)
(0.000366579 0.000569522 -8.33626e-22)
(3.22731e-06 1.35878e-05 3.69878e-22)
(0.000449155 0.000909803 -1.00625e-21)
(0.000322246 0.000528129 -1.28844e-21)
(0.000202423 0.000566656 1.61756e-24)
(0.000328885 0.000550635 7.06011e-22)
(0.000455463 0.000863355 2.07755e-22)
(0.000839401 0.000256342 -1.12993e-21)
(0.00039124 6.52888e-05 -2.11037e-21)
(0.000249571 1.03089e-05 -8.28221e-22)
(0.000572121 0.000347468 -2.64905e-22)
(0.000576771 0.00101973 2.11741e-21)
(0.000359203 0.000614326 0)
(0.000464142 -0.00035815 0)
(0.00042205 0.000709091 5.49608e-22)
(0.00018605 -6.63404e-07 5.52139e-22)
(0.00020446 4.30036e-06 0)
(0.000575162 0.00101572 -1.02078e-21)
(0.000737889 0.00123381 -1.28511e-22)
(0.000371422 0.000323762 -1.11256e-21)
(0.000193998 0.000721935 0)
(-0.000280608 -9.35281e-06 0)
(0.000264104 0.000276546 2.29272e-21)
(0.000189274 0.000601765 -7.09834e-22)
(0.000159384 1.7355e-05 0)
(0.000357647 0.000628692 0)
(0.000739466 0.00123516 9.21327e-22)
(0.000973705 4.23883e-05 -2.82617e-22)
(0.000759425 8.34251e-05 1.72439e-21)
(-0.000184215 0.00116435 0)
(0.000240111 0.000459048 6.10779e-21)
(0.000491168 0.00107835 -5.79106e-23)
(0.000559189 0.00098147 -1.53974e-21)
(0.000676553 0.00115491 -2.52602e-21)
(0.000357288 0.000449018 1.48259e-25)
(0.000223601 0.000487515 -7.45542e-22)
(0.000650549 0.0011509 -8.65076e-22)
(0.000236838 6.19502e-05 3.61574e-22)
(0.000557083 0.00100926 1.05195e-22)
(0.000329166 0.000678837 1.70044e-23)
(0.000545437 0.00130457 -3.89065e-23)
(0.000594363 0.00105126 4.51923e-22)
(0.00100841 0.000206759 8.78851e-22)
(0.000310226 0.000535089 1.00021e-24)
(0.000568474 0.00128733 0)
(0.000968458 4.13382e-05 6.78163e-22)
(0.000709872 0.00120687 4.81015e-22)
(0.000174823 2.47602e-05 1.63961e-22)
(0.000349748 2.18407e-05 -8.43337e-22)
(0.000407823 0.000652225 3.6297e-22)
(8.57113e-05 4.00025e-05 -1.89115e-22)
(0.000576889 0.000562773 8.16653e-22)
(0.000353713 0.000541404 2.37842e-21)
(0.000613554 0.00108645 -4.66756e-24)
(0.000589148 0.000998936 -1.09945e-21)
(-0.000186947 0.000172497 -1.43857e-22)
(0.000734943 0.00123275 -1.14426e-21)
(0.00121919 0.000260593 -5.89721e-22)
(6.2842e-05 0.000141785 -5.31205e-22)
(0.000962983 -8.77464e-06 1.15622e-21)
(0.000606674 0.00105703 5.35502e-22)
(0.000415321 0.000703593 0)
(0.00106537 0.000198908 -1.04394e-21)
(0.000371119 0.000308749 -1.7593e-21)
(0.000402391 0.000724346 -1.39779e-22)
(0.000167629 0.00103072 0)
(0.000554419 7.82646e-05 1.14678e-21)
(0.000619148 0.00104595 3.63936e-22)
(0.00072515 0.000484574 3.42304e-21)
(0.000625924 0.00108173 3.91684e-22)
(-0.000353849 0.000165439 2.89154e-22)
(0.000573649 0.00101268 9.68229e-22)
(0.000550588 0.000975482 -9.333e-22)
(0.000610053 0.00103896 0)
(0.000925123 2.15387e-05 0)
(0.00056149 0.000994429 -6.16273e-24)
(0.000223168 0.000360875 -8.10435e-22)
(0.000685482 0.000131643 -5.99889e-23)
(0.000431468 0.000511888 -1.52394e-21)
(0.000727665 0.00136147 1.1398e-23)
(0.000601974 0.00103342 0)
(0.000561405 0.000991683 8.32431e-22)
(9.51867e-05 0.000180753 -6.86423e-22)
(0.00037499 0.000741582 -5.02207e-23)
(0.000477719 0.000833677 4.97727e-22)
(0.000552326 0.000976587 8.26979e-24)
(0.000159738 0.000261659 -9.81148e-22)
(-5.30998e-06 0.000287363 1.20749e-21)
(2.11244e-05 -9.30716e-07 0)
(0.000815183 0.000572772 -1.60225e-24)
(0.000649276 0.00115094 6.58248e-24)
(6.39282e-07 1.00629e-05 -3.69311e-22)
(0.00158496 0.000354774 7.55384e-22)
(0.000644863 0.000108559 0)
(0.000629089 0.00109177 2.54731e-22)
(0.000596857 0.001019 -4.65877e-22)
(0.000216904 4.76082e-05 -2.68763e-22)
(2.5173e-05 1.39122e-06 9.35416e-22)
(0.000281552 0.00112024 -1.15808e-23)
(0.000400949 0.000713758 1.09904e-21)
(0.000682836 0.00114719 2.66365e-22)
(0.000734491 0.00123226 1.05412e-21)
(0.000767468 0.00134238 1.16732e-21)
(0.0002174 -9.89857e-06 -7.67113e-22)
(0.00018705 0.000608086 -5.00323e-22)
(0.00116366 0.000135962 -4.41801e-22)
(0.000651132 0.00115202 -8.23445e-22)
(0.000473787 0.000938455 -2.38307e-21)
(0.000514282 0.000256669 -4.20167e-22)
(0.000504446 0.00102703 0)
(0.000501341 2.59341e-05 1.25196e-21)
(2.76608e-06 6.76475e-06 -3.32576e-22)
(0.000734723 0.00135866 2.93283e-22)
(0.00073694 0.00123352 -8.53387e-22)
(0.000575105 0.00101689 -1.02922e-21)
(0.000913464 0.000279094 0)
(0.000216248 0.000556672 -5.63389e-22)
(2.46471e-05 9.44639e-07 1.30091e-23)
(0.000618955 0.00108484 -2.38798e-22)
(0.000469208 0.00164008 -2.40345e-23)
(0.000353845 0.00135498 0)
(0.000334124 0.000482289 -2.822e-25)
(0.000436218 0.00121997 -5.04391e-23)
(0.000835828 0.00032217 2.68061e-22)
(0.000511596 0.000569891 3.03891e-25)
(8.68838e-06 9.35496e-05 -4.64895e-23)
(6.2875e-05 4.23727e-05 0)
(0.000709431 0.00120786 8.98988e-22)
(5.50468e-06 3.70801e-05 -1.44927e-24)
(0.0017821 0.00058933 -1.67546e-21)
(9.20214e-05 0.000705505 0)
(0.000151706 0.000265973 -1.69357e-21)
(0.000433854 0.000754457 -3.46921e-21)
(0.00064902 0.00114857 0)
(5.35661e-05 4.3498e-05 1.36411e-21)
(0.000628327 0.00106772 0)
(0.000228478 0.000262127 -1.14269e-21)
(0.00096617 0.000194124 -8.53733e-22)
(0.000317042 -6.12796e-05 -1.3813e-21)
(0.000671288 0.00121587 -8.477e-22)
(0.00111174 0.000181285 0)
(0.000477065 0.000263045 0)
(0.000106798 0.000916024 -7.67234e-22)
(0.000678649 -0.000215834 -2.76912e-21)
(0.000672224 0.00126646 2.87612e-22)
(0.00062427 0.00108905 -7.98889e-24)
(0.000593329 0.0010557 0)
(0.000774218 0.000489166 0)
(0.00116675 0.00013275 9.84019e-22)
(0.000620116 0.000275775 -1.21973e-22)
(0.000578687 0.000984198 2.47476e-22)
(0.000751853 0.00124905 0)
(0.000329383 0.00029108 0)
(0.000424164 0.00101094 -1.51473e-21)
(7.99387e-05 3.56483e-05 -6.85897e-22)
(0.000522647 0.000415958 -9.38596e-22)
(0.000669554 0.00121122 -8.26162e-23)
(0.000489385 0.00132582 -9.5244e-23)
(0.000537179 0.00144253 -1.43981e-23)
(0.000553487 0.000420536 6.71092e-22)
(0.000578995 0.00142129 -5.26379e-24)
(0.000436596 0.000468993 -1.25359e-21)
(0.000344198 0.000510428 1.9695e-21)
(1.50493e-05 -4.04576e-06 0)
(0.000927563 0.000719562 -8.4947e-22)
(0.00035214 0.000615407 -2.73581e-22)
(0.000623279 0.00109874 2.29458e-22)
(0.000145816 -2.30732e-05 0)
(7.9915e-06 8.13703e-05 0)
(0.000114366 0.000449772 1.57684e-21)
(0.000573993 0.00102988 3.64231e-22)
(0.000539714 0.00105567 0)
(6.47332e-05 2.79377e-05 -1.19802e-21)
(0.000168109 0.00063034 -4.64973e-22)
(0.000589304 0.000993943 5.83387e-22)
(0.00127981 0.000235258 -9.61895e-22)
(0.000386354 0.000379801 0)
(0.000845011 0.000165682 -2.02355e-21)
(0.000193331 0.000233153 -1.23466e-21)
(0.000947027 0.000649223 1.23096e-21)
(0.000766417 0.000460532 -1.70092e-22)
(0.000426365 0.000715179 -6.22509e-24)
(0.000426865 0.00106413 1.50282e-21)
(0.000234155 0.000901526 -2.60472e-23)
(0.000576993 0.000996898 -7.75015e-24)
(0.000548793 0.000993763 -1.58065e-23)
(0.00025497 0.00134441 -1.19216e-22)
(9.25868e-05 4.43522e-05 8.86549e-22)
(0.000564939 0.00103032 -3.37288e-22)
(0.000239381 0.000333943 -1.42709e-21)
(0.000951216 3.61324e-05 -5.49465e-22)
(0.000295726 0.00122581 -1.32734e-23)
(0.000239868 0.000959205 -2.54037e-24)
(0.000458953 0.000324938 -8.96197e-22)
(1.71688e-05 2.09243e-06 -1.96337e-22)
(0.000570608 0.000967589 -5.92432e-22)
(0.000149175 -1.10298e-05 -7.23316e-22)
(0.000625557 0.00108497 1.00909e-22)
(-0.000356303 0.0011593 -1.03308e-21)
(0.000572852 0.000982501 4.22757e-22)
(0.000625736 0.00108112 2.79375e-22)
(0.000624775 0.00108654 -1.01356e-22)
(0.00022804 0.000119227 -1.34162e-21)
(0.000359299 0.000631452 4.97448e-22)
(0.000309746 0.000577926 0)
(0.000252464 3.16686e-05 5.04288e-22)
(0.000951984 3.40115e-05 0)
(0.000647794 0.00114757 -5.86725e-22)
(0.000424811 0.000713279 5.2671e-22)
(0.000770468 0.000597431 9.93386e-22)
(0.000405944 0.00072276 -9.4322e-22)
(0.000218225 0.000633335 1.24518e-21)
(0.0011392 2.09763e-05 0)
(0.00030801 0.000196062 0)
(0.0010763 0.000486111 -6.81221e-23)
(0.000408677 0.000913856 1.42843e-21)
(0.000496282 0.000796477 -3.2851e-21)
(0.00063784 0.00108224 -2.91727e-22)
(0.000734641 0.00123216 -1.0326e-21)
(0.000769419 0.000478213 9.02762e-22)
(0.000496097 0.000998609 0)
(0.000673198 0.00113756 0)
(0.000327728 0.000273318 -9.37411e-22)
(0.00022966 0.000707575 -7.43311e-22)
(0.000813822 0.000346775 1.75061e-21)
(1.42436e-05 -6.42119e-06 2.31959e-22)
(7.02741e-05 3.29913e-05 6.61201e-22)
(0.000553317 0.000965112 -7.80361e-24)
(0.000133058 -2.38326e-05 4.18164e-22)
(0.000408621 0.000340042 8.50984e-22)
(-0.000137004 0.000156172 0)
(1.58609e-05 0.000275778 1.03126e-22)
(5.95614e-05 4.26391e-05 0)
(0.000670705 0.00113347 0)
(0.000629008 0.000486495 3.41876e-22)
(0.000572586 0.000980096 -4.06782e-22)
(0.000197542 0.00017382 -2.85826e-21)
(0.00067021 0.00113226 1.00637e-21)
(0.000675243 0.00124835 -5.54142e-23)
(0.000617537 0.00098564 6.2335e-22)
(0.000694286 0.00036769 0)
(0.000674433 0.00125433 1.09439e-22)
(0.000559211 0.000968797 0)
(0.000744273 0.00134442 -3.56291e-22)
(0.000573713 0.00101353 1.9907e-21)
(9.95366e-05 0.000263968 1.35917e-24)
(0.000691359 0.00124317 1.13048e-21)
(0.000947775 0.00011566 0)
(3.78425e-05 0.000389401 -3.78062e-22)
(0.000507498 0.00056153 4.72586e-22)
(0.00055688 0.000966539 1.06225e-21)
(0.00035144 0.00095446 -5.57439e-21)
(-0.000498026 0.000805961 1.94767e-22)
(3.78453e-05 6.01133e-05 -1.40799e-21)
(0.000620821 0.0010775 -1.61478e-22)
(0.000469384 0.000940771 3.09659e-21)
(0.000686826 0.00122111 -2.57572e-22)
(0.000678456 0.00124157 -1.12047e-21)
(0.000561793 0.00098788 8.1672e-22)
(0.000968693 7.7956e-05 -7.01488e-22)
(0.000625329 0.00108381 1.09911e-22)
(0.000211712 0.000138464 2.19576e-21)
(0.000668473 0.00118084 3.94933e-22)
(0.000414486 0.000696833 1.3384e-21)
(0.000169911 0.00058334 9.74233e-22)
(0.00069572 0.00124504 1.10373e-21)
(0.000532672 0.000915545 -3.33018e-23)
(0.000588053 0.00105189 7.12319e-23)
(0.000961153 7.08494e-05 0)
(3.55214e-05 0.000537204 -3.55471e-22)
(0.000348279 0.000765591 1.15469e-21)
(0.000621973 0.00104282 5.54988e-24)
(0.000622031 0.00035816 -3.89754e-21)
(0.001133 9.28186e-05 0)
(0.000663452 0.00124928 -2.88098e-22)
(0.000175427 -0.000124213 1.08803e-21)
(0.000941056 8.66488e-05 0)
(0.000699976 0.00121747 -4.22804e-22)
(0.00100665 -0.000138513 -1.93767e-21)
(9.95876e-05 4.9412e-05 -3.49501e-22)
(0.00109871 0.000343831 1.4932e-25)
(4.09966e-05 0.000431598 1.21535e-22)
(0.000697677 0.00124487 0)
(0.000971686 0.000331389 6.72604e-22)
(0.000698534 0.000243161 0)
(0.000325737 0.000467344 0)
(0.000434706 0.000345337 0)
(9.2694e-05 -3.84119e-05 -1.63962e-21)
(0.000646487 0.00114662 -6.33785e-22)
(0.00128836 0.000540618 -3.0919e-21)
(0.000783143 0.001345 3.23978e-22)
(0.000305017 0.000167474 -3.92088e-22)
(0.000502254 0.00100877 -1.05625e-21)
(0.000117018 -4.1986e-05 0)
(0.00105702 0.000186051 5.18793e-22)
(0.00083149 0.000541731 2.44031e-22)
(3.29452e-05 5.07055e-05 7.83261e-22)
(0.000705653 0.00120302 2.43419e-22)
(0.000259969 0.00116705 0)
(0.000410631 0.00143355 4.4668e-23)
(0.000657431 0.00129779 -1.00404e-21)
(0.000698337 0.0012439 1.07079e-21)
(0.000628696 0.0010765 0)
(0.000347277 0.000608324 8.42052e-22)
(1.90921e-05 0.000317482 4.62342e-22)
(0.000174867 -0.000105333 1.37366e-21)
(0.000560865 0.0009914 -1.00081e-21)
(0.000851143 0.00111215 7.13695e-22)
(0.000639493 0.000715914 -2.42732e-22)
(0.000708685 0.00120715 5.92885e-22)
(0.000750531 0.00133698 -1.05674e-21)
(9.6508e-05 -4.67512e-05 1.62307e-21)
(0.000647312 0.00114418 -2.77788e-24)
(0.00039802 0.00072333 0)
(0.000653784 0.000384666 4.62695e-22)
(5.65866e-05 4.96629e-05 0)
(0.00102294 -5.31356e-06 6.30457e-22)
(0.000362256 0.000606404 9.64185e-22)
(0.000228769 0.000420236 8.96972e-23)
(0.000534148 9.84337e-05 -1.8226e-23)
(0.000369207 0.000512624 -2.83182e-21)
(0.00134658 0.000264696 1.9997e-22)
(0.000977531 0.000192345 -7.914e-23)
(0.000514361 0.000555944 2.45947e-21)
(0.000498311 0.00109124 0)
(0.000378325 0.00062348 -3.73398e-22)
(0.000339591 0.00091074 0)
(0.000330351 0.00116534 8.6009e-22)
(0.000792291 0.00132826 7.26729e-22)
(0.000787529 0.00060161 9.8568e-22)
(0.000511219 0.00127845 -4.98048e-23)
(0.000421279 0.000322983 0)
(0.000194792 0.000184569 0)
(0.000147151 -9.94841e-05 -1.34228e-22)
(0.000177379 0.000365108 5.06642e-22)
(0.000265876 0.000615505 -2.72381e-22)
(0.000169016 0.000626901 0)
(0.000662665 0.00124817 -1.18448e-23)
(0.00055281 0.000976626 0)
(0.000555318 0.001002 -8.11535e-22)
(0.00040934 0.000744285 4.23189e-22)
(0.000206818 0.000566197 -6.63719e-22)
(0.000644952 0.00114251 -7.33619e-22)
(0.000412561 0.000844956 1.16491e-21)
(0.000937687 9.05355e-05 8.94656e-22)
(0.000194018 4.25139e-05 1.51474e-22)
(2.13234e-05 1.97227e-06 -3.51474e-22)
(0.000121335 -0.000187254 0)
(0.000317777 0.000550115 8.45241e-22)
(6.93876e-05 0.000575398 1.39122e-21)
(0.000437885 9.54484e-05 1.90749e-21)
(0.000439475 0.000299718 0)
(0.000169188 0.000325518 2.27879e-21)
(0.000670363 0.00113034 -1.2608e-22)
(0.000418864 0.000703091 1.84113e-21)
(0.000649361 0.00126443 4.529e-24)
(0.00033485 0.000199981 0)
(0.000218442 1.36372e-05 1.89426e-22)
(0.000573889 0.000385358 0)
(0.000624054 0.001093 -1.67356e-22)
(0.000194292 4.70598e-05 0)
(0.000432846 0.000535865 1.59552e-22)
(0.00102457 0.000376291 7.73336e-23)
(0.000578066 0.000987486 -4.8839e-22)
(0.000706191 0.00122604 6.89084e-23)
(0.000375693 0.000569821 -9.74224e-22)
(0.00048145 0.000959111 8.01638e-22)
(0.000350996 0.000620657 -6.72185e-22)
(0.000222693 0.000559789 -9.60705e-22)
(0.00017268 3.92589e-06 0)
(9.92527e-05 0.000652588 1.28983e-21)
(0.000544397 0.00102774 0)
(0.000858398 0.00028021 1.43291e-21)
(0.000327729 0.000484573 1.14685e-21)
(0.000733678 0.00123402 -1.08932e-21)
(2.24974e-05 3.13744e-05 9.81462e-23)
(0.000433727 0.00079656 -1.94756e-22)
(0.000129237 -4.04307e-05 -8.00374e-23)
(0.000389018 0.000711084 -1.21878e-22)
(0.000772639 0.000572207 0)
(0.000975421 -5.24658e-05 -8.44236e-23)
(0.000706177 0.00122452 -2.18491e-22)
(0.000857484 -0.000358823 9.62361e-24)
(0.000763877 9.58126e-05 1.81033e-21)
(0.00120052 0.000629869 -1.80519e-21)
(0.000553746 0.000987273 0)
(0.000354309 0.00063507 -9.06486e-22)
(0.000733404 0.0012356 -1.247e-21)
(0.000412494 0.000695025 6.36122e-24)
(0.000508779 0.000680666 1.03918e-21)
(5.77904e-05 0.000562463 4.26944e-21)
(0.000960561 0.000275378 2.9474e-22)
(0.000192853 0.000245776 0)
(0.000617173 0.00100228 -1.04057e-21)
(0.000296046 0.000140682 0)
(0.000207065 0.000474187 5.00777e-22)
(0.00066921 0.00113373 2.22642e-22)
(0.000996717 6.13994e-05 -3.90859e-22)
(0.000432169 0.000945848 1.8852e-21)
(0.000636221 0.00109493 2.00645e-22)
(0.000393497 -7.55948e-05 -6.82358e-22)
(0.000166919 9.21983e-05 4.23186e-22)
(8.70149e-06 0.000221825 -1.19057e-21)
(2.02654e-05 0.00104163 1.17328e-21)
(0.000148587 7.46993e-07 -6.76976e-22)
(0.000417158 0.000700155 -6.46082e-22)
(0.00014498 7.68427e-05 -3.9323e-22)
(0.000618871 0.0010961 -5.18646e-23)
(0.000295442 0.000356934 -5.42933e-22)
(0.000527151 0.00120075 0)
(0.000242252 -6.05053e-05 -1.62349e-21)
(0.000880221 -1.286e-05 4.08713e-22)
(0.00057273 0.00101037 1.90401e-21)
(0.000172992 5.54467e-05 -1.96418e-21)
(0.000685078 0.0012418 -1.12155e-21)
(0.00107673 4.86097e-06 -8.1e-22)
(0.000283012 0.000162066 1.96002e-22)
(0.000516214 9.57718e-05 0)
(0.000629551 0.00107852 9.50615e-22)
(0.000452327 0.000794794 2.65853e-22)
(0.000174464 0.00064669 3.4666e-22)
(0.000816603 0.000537144 0)
(0.000733026 0.00058826 2.4616e-21)
(9.86701e-05 -1.23359e-05 -7.42973e-22)
(0.00138883 0.000329192 -2.30238e-22)
(0.00056382 9.15103e-06 -1.30004e-21)
(0.00120242 0.000243134 4.59625e-22)
(0.000686197 0.00121994 0)
(0.000278819 0.000558605 0)
(0.000653602 0.00114658 7.88422e-23)
(0.00064967 0.00115086 4.9729e-22)
(0.00065025 0.00122536 -2.00017e-22)
(0.000861642 0.00138877 9.87595e-22)
(0.000455266 0.00127462 1.04946e-21)
(0.000643273 0.000337284 6.00761e-22)
(0.000551735 0.00109306 0)
(0.000598075 0.00112905 -2.33101e-23)
(0.000417213 3.07432e-05 4.69109e-22)
(0.00076035 0.000524042 -1.72906e-22)
(0.000179769 6.727e-05 3.72162e-26)
(0.000236255 -0.000193471 1.43655e-21)
(0.000238749 0.000625454 4.96141e-22)
(0.000173366 0.000423239 8.5131e-22)
(0.000293048 0.000464898 2.06469e-21)
(0.000339277 0.000553206 -1.31219e-21)
(0.000311449 0.000571717 -4.53819e-22)
(0.000183741 0.000646514 -8.22511e-22)
(0.000100444 -1.78972e-05 3.09767e-25)
(4.84875e-05 0.000626407 -2.29494e-21)
(0.000452607 0.00120407 0)
(0.000629366 0.00116561 0)
(0.000701628 0.000548596 0)
(0.000572169 0.000458047 1.7528e-21)
(0.000698184 0.0012192 3.79914e-22)
(0.000803315 0.000538775 2.68294e-21)
(0.00104948 0.000336577 0)
(0.00030217 0.000336982 2.72912e-22)
(0.000167313 0.000612914 6.26248e-22)
(0.000571448 0.000977689 7.94279e-22)
(4.49034e-05 3.46894e-05 0)
(0.000908592 3.07876e-05 -1.23729e-21)
(0.000135588 0.000401629 7.02407e-22)
(0.000799674 0.00054491 -3.37703e-22)
(0.00033141 0.000536916 3.11587e-22)
(0.000352211 0.00037188 1.37263e-21)
(0.000615561 0.00113291 0)
(6.28789e-05 2.81577e-05 1.85402e-22)
(0.000143419 -8.21069e-05 -1.67206e-22)
(0.000723411 0.0013547 2.95746e-22)
(0.000656023 0.00113917 -4.88927e-22)
(0.000577857 0.000995051 3.63723e-22)
(0.000651389 0.0011487 3.82811e-22)
(0.00097367 -1.38249e-07 -2.39816e-22)
(0.000219374 0.000627037 0)
(0.000388523 6.70962e-05 -1.55735e-21)
(0.000735096 0.00125409 0)
(0.000991968 0.000115679 0)
(0.00065068 0.00116588 -1.43835e-22)
(0.000368644 0.000884631 -1.1809e-21)
(0.000745409 0.00136878 -5.57497e-23)
(6.55542e-07 8.07524e-06 -3.68295e-22)
(0.000313572 0.000477462 -1.45258e-21)
(0.00010033 -2.45059e-06 -1.98471e-21)
(0.000652086 0.00115262 1.43257e-22)
(0.000176215 0.000482222 -5.21568e-22)
(0.000179994 0.000529301 7.19047e-22)
(0.000736305 3.58967e-05 1.30021e-21)
(0.000502937 0.00108394 0)
(0.0010125 0.000311996 4.56117e-22)
(0.000711348 0.00101636 8.9153e-23)
(0.000313285 0.000507655 9.95521e-22)
(0.000115415 -5.01248e-05 -2.29788e-23)
(0.000524191 4.21606e-05 9.81736e-25)
(0.000338192 0.000384815 -2.64106e-21)
(0.000318224 0.000453443 1.1821e-21)
(9.90065e-05 6.55268e-06 -9.11081e-22)
(0.000246436 0.000373852 -2.52094e-21)
(0.000748409 0.00133899 -1.47748e-21)
(0.000646748 0.00114654 1.24791e-21)
(0.000342097 0.000527069 -9.49952e-22)
(0.000649926 0.00115063 -5e-22)
(0.000704803 0.000212804 -5.65268e-22)
(0.000273267 -0.000160094 -2.45944e-21)
(0.000332215 0.000517198 -1.80905e-21)
(0.000667821 0.00113022 9.54815e-22)
(0.00123126 0.000180484 -8.7504e-23)
(0.000708468 0.00120839 3.87707e-22)
(0.000177748 0.000135592 -9.31069e-22)
(0.000565003 0.000978368 5.43283e-22)
(0.000653135 0.00114693 -1.22112e-22)
(0.000583741 0.00109772 -1.29344e-23)