/*--------------------------------*- C++ -*----------------------------------*\
  =========                 |
  \\      /  F ield         | OpenFOAM: The Open Source CFD Toolbox
   \\    /   O peration     | Website:  https://openfoam.org
    \\  /    A nd           | Version:  8
     \\/     M anipulation  |
\*---------------------------------------------------------------------------*/
FoamFile
{
    version     2.0;
    format      ascii;
    class       volVectorField;
    location    "7";
    object      U;
}
// * * * * * * * * * * * * * * * * * * * * * * * * * * * * * * * * * * * * * //

dimensions      [0 1 -1 0 0 0 0];

internalField   nonuniform List<vector> 
1642
(
(4.3429e-06 -5.11205e-06 1.27694e-26)
(0.00202349 0.00508329 9.68756e-21)
(0.00232503 0.00484589 5.62372e-21)
(0.00221306 0.00368642 3.06092e-20)
(0.000871456 1.37839e-05 1.40916e-21)
(0.000707069 0.00013578 3.60224e-20)
(0.00106108 0.000161215 8.78198e-21)
(0.00105273 0.000236667 -3.46521e-24)
(0.000690609 0.000474676 8.54949e-21)
(0.000850439 0.000242506 2.27247e-20)
(0.00263008 0.00313739 -1.68298e-20)
(0.000336018 0.000936147 -1.84609e-20)
(0.000772734 0.000373858 2.24039e-20)
(0.000885708 0.000192773 -1.52459e-20)
(0.000484604 0.000397957 0)
(0.000700177 0.000514398 0)
(2.3109e-05 0.000244449 -1.20234e-20)
(4.03278e-07 0.000207186 1.99185e-20)
(1.4881e-05 1.95541e-05 4.42795e-25)
(2.73145e-05 1.12037e-05 4.11438e-21)
(0.000901907 0.00014298 -5.82838e-21)
(0.000968821 0.000247844 6.68857e-21)
(0.000878772 0.000179205 0)
(0.00228789 6.47488e-05 -1.98359e-20)
(0.0003429 0.000240887 -3.32612e-20)
(3.75788e-05 0.000512629 -4.2673e-21)
(0.00082947 -9.2107e-05 1.30715e-20)
(0.000115934 0.00023069 0)
(0.00419916 0.00438837 4.7692e-22)
(0.00424847 0.00443016 1.78207e-22)
(0.00440326 0.00458638 -2.10372e-22)
(0.00101428 8.88569e-05 -1.01897e-20)
(0.000325143 0.00121136 0)
(4.15755e-05 -4.51835e-05 -4.34804e-21)
(0.000363228 0.000217994 1.01131e-20)
(0.000398585 0.000436328 -1.89524e-21)
(0.000895777 0.00041385 -3.31295e-20)
(0.000935645 3.02105e-05 3.15903e-22)
(0.000413255 0.000322299 -8.65315e-25)
(0.000906466 0.000251511 -9.97979e-21)
(0.000833902 0.000183498 0)
(1.86343e-05 4.51999e-05 -2.34065e-21)
(3.43635e-05 8.422e-06 0)
(0.000841842 0.0050209 -2.05676e-20)
(-0.0016303 -1.86153e-06 -1.94369e-21)
(0.000756895 3.60563e-05 -2.1932e-21)
(0.000859884 1.74603e-05 6.52277e-22)
(0.000487689 0.000108024 -4.55094e-21)
(0.000357253 0.000123347 -1.28084e-20)
(0.000674655 0.000393451 -1.96101e-20)
(3.32182e-05 8.56174e-05 -4.81506e-21)
(0.000747698 0.000407436 -6.25139e-21)
(1.54987e-05 -5.96755e-06 3.41286e-21)
(0.000164392 0.00468249 0)
(0.00252424 0.0037587 -1.50511e-20)
(0.000567627 0.000486074 9.86651e-22)
(0.00105683 0.000193215 -4.43951e-21)
(0.000195525 1.04867e-05 -6.63379e-21)
(0.00121505 0.000403922 -2.65691e-20)
(0.000356752 -0.000343111 0)
(0.000270083 0.000143228 0)
(0.000928282 5.75183e-05 -1.24621e-21)
(9.08685e-05 -7.16065e-05 3.65644e-21)
(0.00139197 0.000171328 -1.86414e-20)
(7.55216e-05 0.00042306 1.53414e-20)
(5.5777e-05 9.74135e-06 1.13998e-21)
(0.000110272 0.000125782 0)
(4.89279e-05 1.75445e-05 -4.6398e-21)
(0.000444207 0.000531216 5.14822e-21)
(6.19057e-06 6.0953e-05 -4.33054e-21)
(0.000315221 9.56754e-05 -1.23609e-20)
(7.38196e-05 0.000280374 -1.36271e-20)
(0.000250717 7.18019e-05 1.63874e-20)
(0.000884785 3.67681e-05 1.2717e-21)
(0.000474919 0.00062236 8.08567e-21)
(0.00130483 0.00156377 -2.10439e-21)
(0.00427584 0.00444684 6.51163e-25)
(0.00411727 0.0042961 0)
(0.00405902 0.00425265 -2.47429e-22)
(0.000432178 0.000182001 5.81406e-21)
(5.79511e-05 -7.63959e-08 2.33629e-21)
(3.45605e-05 2.03151e-05 1.61192e-20)
(0.00110404 0.000373714 -1.72406e-20)
(0.000969341 0.000453265 1.0698e-20)
(-0.00206233 0.000376654 0)
(0.000452226 0.000637288 -3.88797e-21)
(0.000418727 0.000531993 -1.48666e-20)
(8.29573e-06 -9.47281e-05 0)
(0.000558756 0.00059298 3.79434e-21)
(3.30161e-05 -3.24486e-05 -1.7542e-21)
(0.0010327 0.00012337 -6.9858e-21)
(0.000123677 0.000329213 2.8226e-20)
(0.000749959 0.000565212 -1.7809e-20)
(0.000456664 0.000468043 -7.70405e-21)
(0.000543497 0.000397258 -3.04342e-20)
(6.8707e-05 -0.000186534 -1.01829e-21)
(0.000791383 0.000163704 -2.4667e-20)
(0.000576622 0.000336906 2.61523e-20)
(0.000354892 0.000319586 1.54245e-20)
(0.000456449 0.000527352 -1.02548e-20)
(0.000416366 0.000617469 1.90902e-20)
(0.000509131 0.000769422 0)
(2.24006e-05 -0.000181523 8.5383e-21)
(0.00481365 0.00472063 -1.26316e-22)
(0.00464061 0.00455498 1.73788e-20)
(0.00458366 0.00450329 4.76253e-21)
(0.00430547 0.00408004 1.88729e-20)
(0.00426293 0.00404023 2.02644e-22)
(0.00446799 0.00422277 3.54897e-21)
(0.00431605 0.00406718 -1.17141e-22)
(0.00429415 0.00407564 5.89829e-21)
(0.00427241 0.00402183 -7.26892e-21)
(0.00446417 0.00423273 0)
(0.00447459 0.00421785 5.83181e-21)
(0.00432078 0.00407045 1.65957e-21)
(0.00432004 0.00406981 3.43231e-21)
(0.00447354 0.00421797 -1.09138e-21)
(0.00426478 0.00405825 0)
(0.00422344 0.00325142 0)
(0.00405777 0.00362265 8.3012e-21)
(0.00427212 0.00403045 -9.64804e-22)
(0.00347889 0.00309042 -2.31551e-20)
(0.00406254 0.00327569 0)
(0.000404557 0.000626827 3.77245e-21)
(0.000539013 0.000591918 0)
(0.000316426 -8.62031e-05 2.45506e-21)
(0.00095123 0.000222466 1.41781e-20)
(7.4403e-06 -5.87417e-05 0)
(0.000556594 0.000280404 4.81789e-21)
(0.000607266 0.000325673 -1.41938e-20)
(0.000417707 2.066e-05 0)
(0.000212266 -0.000109617 -2.39636e-21)
(2.22323e-05 -4.30388e-05 -1.02823e-21)
(0.000773746 0.000103062 8.84042e-21)
(5.69535e-05 -1.03717e-05 -9.09696e-26)
(3.31472e-05 -5.66428e-05 1.07727e-21)
(0.00061897 0.000275477 -2.65467e-21)
(0.000315786 -5.46636e-06 2.64097e-21)
(0.000623379 0.000212957 0)
(0.000711983 0.000403813 0)
(2.32557e-05 0.000386835 8.21352e-21)
(5.8437e-05 1.97498e-05 -1.54926e-21)
(9.67589e-05 7.48346e-05 0)
(0.000335888 6.00208e-05 1.1181e-20)
(0.00060685 0.000450102 3.86027e-20)
(6.61993e-05 0.0002216 1.44698e-20)
(0.000826838 0.00010177 0)
(4.78948e-05 0.000131229 1.99428e-20)
(0.000843264 0.000145117 -2.52003e-21)
(0.000707004 0.000179582 4.1701e-20)
(0.000281185 0.000185953 1.67561e-20)
(0.000853029 4.70909e-05 3.79062e-21)
(6.57538e-05 -1.64619e-05 -2.191e-21)
(0.000319541 0.000236649 0)
(0.00104701 -9.06317e-05 1.2035e-20)
(0.000853667 0.000143156 0)
(0.000891595 0.000110962 -2.07038e-21)
(4.71557e-06 2.21522e-05 -1.378e-20)
(6.15669e-06 -4.47023e-05 -6.53668e-23)
(-1.31676e-05 0.000295376 0)
(8.80129e-05 7.56557e-05 3.77741e-20)
(6.55713e-05 5.03052e-05 -4.0178e-21)
(0.00013704 -4.59517e-05 1.08983e-21)
(0.00090891 0.000207386 0)
(5.18567e-06 -2.89029e-05 0)
(0.000853418 6.59581e-05 0)
(0.0008973 7.28245e-05 0)
(5.2442e-05 -1.90778e-05 -2.42343e-21)
(0.000870149 9.49194e-06 -5.49874e-21)
(1.66427e-05 -0.000186122 -2.02306e-21)
(-1.31101e-05 0.000300172 -2.03589e-20)
(-1.90325e-06 0.000173087 -1.75963e-20)
(5.26177e-06 4.7321e-05 4.26638e-21)
(2.54542e-06 0.000145432 1.7874e-20)
(0.000678307 -1.33916e-05 -6.45653e-21)
(1.9917e-05 -0.000104219 1.9316e-21)
(0.000797513 0.000231939 1.02419e-20)
(0.000355932 0.000140847 1.50431e-20)
(0.000604343 0.000223958 0)
(0.000551828 0.000443995 -3.89159e-21)
(0.000976831 0.000364923 8.93854e-21)
(3.95096e-05 2.02545e-05 1.44193e-20)
(0.000762983 0.000814797 3.87489e-21)
(4.21527e-06 3.2108e-05 6.9005e-21)
(4.79049e-06 0.000119929 0)
(0.000548114 0.000311861 1.06179e-20)
(0.000624661 8.26364e-05 9.42672e-22)
(4.9601e-05 -9.7007e-06 -9.57594e-21)
(0.000199046 -0.000193052 1.30592e-21)
(0.000923354 0.000344723 1.7996e-24)
(0.000469774 0.000482656 1.71022e-25)
(0.000379129 0.000127199 -1.22331e-20)
(4.87032e-05 3.15354e-05 1.83529e-21)
(0.000305868 0.000278142 -8.06631e-21)
(0.000188152 -8.18113e-05 -2.30156e-21)
(0.000720079 -3.69794e-05 1.67825e-24)
(0.000402735 0.000624103 -9.10378e-22)
(5.03041e-05 -2.45558e-06 7.60497e-21)
(0.000299673 0.000427408 -1.91546e-20)
(0.000599992 0.000214436 3.26045e-20)
(6.31627e-05 1.01451e-05 -4.3538e-21)
(8.06203e-05 1.29243e-06 -2.72871e-22)
(0.000531032 0.00067975 -3.96451e-21)
(0.000626889 0.000436778 1.18587e-20)
(0.00103455 0.000131391 0)
(4.21587e-05 8.19184e-06 1.20574e-20)
(0.00040072 0.000218596 -9.08065e-21)
(0.00447653 0.0042368 -1.74635e-20)
(0.00427677 0.00404019 -7.67597e-21)
(0.00432371 0.00408616 -7.02138e-21)
(0.00447363 0.004239 -1.06002e-20)
(0.00447089 0.00424087 0)
(0.00239139 0.00239922 4.26942e-21)
(0.00239082 0.00239727 -2.27206e-23)
(0.00427391 0.00403803 -7.77872e-21)
(0.00447505 0.00423863 6.13083e-21)
(0.00432007 0.00408503 -8.88807e-21)
(0.00447529 0.00423916 -6.00323e-21)
(0.00432265 0.00408436 7.23474e-21)
(0.0023788 0.00239019 0)
(0.00447543 0.00424054 0)
(0.00238872 0.00238402 -3.42814e-21)
(0.00447394 0.00423647 -5.41108e-21)
(0.00428375 0.00403599 -4.69096e-21)
(0.0044761 0.00424255 -1.40265e-20)
(0.00427943 0.00404251 0)
(0.00230832 0.00231338 -3.50647e-21)
(0.00501231 0.00429521 -2.95212e-20)
(0.00239651 0.00237809 1.54727e-20)
(0.00231108 0.00231903 -6.68557e-21)
(0.00239097 0.00239655 -1.24223e-20)
(0.00230928 0.00232075 -9.03035e-21)
(0.00238973 0.00239664 1.01289e-20)
(0.00239542 0.0023837 -1.07816e-20)
(0.00239386 0.00239907 -1.05455e-22)
(0.00237796 0.00238885 8.06389e-21)
(0.00230208 0.00231418 1.27734e-20)
(0.00238614 0.00239383 2.12285e-20)
(0.00445245 0.00423909 -6.67838e-21)
(0.00432498 0.00408915 -3.18768e-21)
(0.00530039 0.0043991 2.23777e-20)
(0.00432382 0.00408848 -1.24816e-22)
(0.00447048 0.0042437 6.32244e-21)
(0.00560549 0.00475522 -1.55129e-20)
(0.00447971 0.00424108 3.15425e-21)
(0.00431874 0.00408013 1.07558e-21)
(0.0023858 0.00239325 6.49938e-21)
(0.00287908 0.00272343 -1.51922e-20)
(0.0043464 0.00404268 0)
(0.00447273 0.0042263 -1.02782e-21)
(0.00238532 0.00240013 2.15935e-21)
(0.00447233 0.00423492 -1.11625e-20)
(0.00450919 0.00409562 0)
(0.00502284 0.00430786 7.3108e-21)
(0.00447901 0.00422869 1.66692e-21)
(0.00432529 0.00408409 1.75245e-21)
(0.00428355 0.00403993 -2.0403e-21)
(0.00451414 0.00426981 1.64614e-20)
(0.00427266 0.00404278 9.9366e-21)
(0.00432448 0.00408189 -1.72934e-21)
(0.00426636 0.00404805 0)
(0.00433361 0.00417473 0)
(0.00433611 0.00417867 -1.37971e-20)
(0.00231446 0.00232964 2.25778e-21)
(0.00262762 0.00251109 -1.49223e-20)
(0.00434352 0.00417615 6.68036e-21)
(0.0042807 0.00404272 0)
(0.00432325 0.00409416 -1.05607e-20)
(0.00356677 0.00331255 -2.5263e-22)
(0.00435371 0.00411702 6.22027e-21)
(0.00236582 0.00238421 -6.77643e-21)
(0.00447941 0.00423095 -1.6892e-21)
(0.00231144 0.00232682 4.11926e-21)
(0.00427469 0.00404958 6.67014e-21)
(0.00458272 0.00421736 7.09496e-21)
(0.0046804 0.00432813 0)
(0.00235871 0.00234215 -2.54593e-20)
(0.00432744 0.00409572 1.176e-20)
(0.004473 0.00423599 5.71806e-21)
(0.00231486 0.00231813 1.31336e-22)
(0.00240187 0.00239484 -6.45566e-21)
(0.00230345 0.00231686 2.02271e-21)
(0.00238146 0.00238722 -5.7004e-21)
(0.00343079 0.00329609 -1.66742e-20)
(0.00446717 0.00422878 -1.694e-21)
(0.00432823 0.00408446 0)
(0.0023163 0.00232699 4.6307e-21)
(0.00427423 0.0040402 0)
(0.00231919 0.00233328 -2.33632e-21)
(0.00230171 0.00231028 1.57775e-20)
(0.00448305 0.00423326 0)
(0.00428538 0.00404424 6.2502e-21)
(0.00427513 0.00404489 6.07167e-21)
(0.00448431 0.00424275 5.88758e-21)
(0.00237551 0.00238927 1.95376e-21)
(0.00232067 0.00232784 0)
(0.00236848 0.00238804 4.1127e-21)
(0.00287019 0.00276925 1.74856e-20)
(0.00286655 0.0028177 0)
(0.00432303 0.00409574 1.11701e-20)
(0.00428191 0.00403907 3.35999e-21)
(0.00237016 0.00238787 -1.29812e-21)
(0.00432452 0.00408329 -3.00973e-21)
(0.00231268 0.00232638 5.07662e-21)
(0.00229882 0.00231626 -3.93316e-21)
(0.00427245 0.00404197 -9.78011e-21)
(0.00225977 0.00215066 0)
(0.00229341 0.00230875 -1.24088e-20)
(0.00238467 0.00239798 1.28386e-21)
(0.00447885 0.00423033 -2.89384e-21)
(0.00231237 0.002326 1.33854e-21)
(0.00231891 0.00232389 0)
(0.00234022 0.00235837 6.94643e-21)
(0.00369094 0.00349215 0)
(0.00233155 0.00232755 -1.82315e-20)
(0.00239349 0.00240569 -2.26173e-21)
(0.00229889 0.00231334 3.5945e-25)
(0.0022989 0.0023155 -6.67601e-21)
(0.00427645 0.00403979 -7.17136e-21)
(0.00444614 0.00423167 -1.22592e-21)
(0.00305097 0.00327563 -8.84404e-21)
(0.00238578 0.00237203 -3.87461e-21)
(0.00227946 0.00228915 0)
(0.00230416 0.00229315 1.40975e-20)
(0.00529242 0.00471474 -1.59029e-20)
(0.00440458 0.00473765 8.62845e-21)
(0.00230835 0.00232093 0)
(0.0047588 0.00415359 7.08843e-21)
(0.0023307 0.00221581 2.90475e-22)
(0.00427244 0.00404373 0)
(0.00238502 0.00239208 -1.26887e-20)
(0.0023109 0.00231658 -2.7082e-20)
(0.00427385 0.00403714 -1.30843e-21)
(0.00432606 0.00408644 6.05194e-21)
(0.0044768 0.00424149 4.66144e-21)
(0.00448288 0.00423474 4.26616e-21)
(0.00230937 0.00232545 -1.44092e-21)
(0.0023061 0.00232341 2.46621e-21)
(0.00229264 0.00229572 0)
(0.00231204 0.00232079 3.23482e-21)
(0.00428489 0.00403943 0)
(0.00431267 0.00409282 -5.39427e-24)
(0.00460038 0.00414369 0)
(0.00231889 0.00230146 1.30882e-20)
(0.00448074 0.00423395 5.84742e-21)
(0.00254111 0.0024786 0)
(0.00331954 0.00338122 8.93435e-21)
(0.0037113 0.00356274 -2.56181e-20)
(0.00240285 0.00240171 0)
(0.00239556 0.00240514 0)
(0.00232687 0.0023262 -5.94201e-21)
(0.0022975 0.00230848 -7.25025e-21)
(0.00427931 0.00403896 3.06248e-21)
(0.00436074 0.00437366 0)
(0.00432817 0.0040866 4.41058e-21)
(0.00441737 0.00421811 4.38143e-22)
(0.00232238 0.0023322 0)
(0.00426436 0.00406925 -1.64939e-21)
(0.0035254 0.00358503 3.48824e-23)
(0.00432753 0.00408909 5.57319e-21)
(0.00231323 0.00230771 -4.21193e-21)
(0.00232313 0.00231809 7.70309e-21)
(0.0044718 0.00423977 7.24295e-21)
(0.00431823 0.00409142 1.31156e-22)
(0.00431847 0.00408968 -3.77551e-21)
(0.00231043 0.00232024 2.99994e-21)
(0.00426966 0.00404482 4.35603e-21)
(0.00238796 0.00239162 1.16712e-20)
(0.00427018 0.00404485 -8.3188e-21)
(0.00416293 0.00498375 0)
(0.0022498 0.00214055 -5.6194e-22)
(0.00230295 0.00230879 -5.52508e-21)
(0.004324 0.00409617 -5.53931e-21)
(0.0043285 0.00408849 7.70275e-21)
(0.00230481 0.00230789 0)
(0.00519023 0.00500967 -1.61096e-20)
(0.00427265 0.00404281 -1.09087e-20)
(0.00234221 0.00236275 1.37043e-20)
(0.00230142 0.00230884 -7.10996e-21)
(0.0043671 0.0041351 1.27023e-20)
(0.00230024 0.00230683 0)
(0.00230225 0.00230991 1.19733e-20)
(0.0023092 0.00232739 9.27365e-21)
(0.00231078 0.002303 0)
(0.00432841 0.00408923 5.52141e-21)
(0.0044841 0.00423858 -9.79671e-21)
(0.00447536 0.00423513 -4.20158e-21)
(0.00447512 0.00423021 1.05312e-21)
(0.00447591 0.00424095 9.09238e-21)
(0.00446493 0.00423864 -1.15658e-20)
(0.00238768 0.00239148 0)
(0.00243076 0.00240342 -1.63109e-20)
(0.00229985 0.00229186 4.26986e-21)
(0.00432203 0.00408348 -1.10075e-21)
(0.00246112 0.0024215 -2.12834e-20)
(0.00228251 0.00229864 1.30395e-21)
(0.00280051 0.00268668 -8.59079e-21)
(0.002388 0.00238439 -6.32006e-21)
(0.00432287 0.00409425 4.86267e-21)
(0.00448583 0.00424135 2.5831e-21)
(0.00228834 0.00230021 -7.52296e-21)
(0.0042722 0.00404312 0)
(0.00427571 0.00404549 3.66731e-20)
(0.00427353 0.00403724 2.24765e-21)
(0.00237288 0.00238988 -1.43026e-21)
(0.0022976 0.00231512 -2.03289e-21)
(0.00229716 0.00231519 1.92827e-21)
(0.00238812 0.00239492 2.46306e-20)
(0.00427401 0.00404976 1.35249e-20)
(0.00239829 0.00240677 4.93714e-21)
(0.0023133 0.00232113 5.33161e-21)
(0.00238305 0.00239009 -2.44652e-20)
(0.00230562 0.00231335 6.93124e-21)
(0.0042839 0.00404081 2.51288e-21)
(0.0023033 0.00231058 2.29598e-20)
(0.0043006 0.00403923 -1.53291e-20)
(0.00241308 0.00240338 -6.66421e-21)
(0.00237116 0.00238903 0)
(0.00236773 0.00235774 2.3501e-20)
(0.0043218 0.00408484 -4.712e-21)
(0.00229947 0.00231679 0)
(0.00229724 0.00230794 -5.00858e-21)
(0.00231087 0.00232471 3.75901e-24)
(0.00426445 0.00403552 0)
(0.00428404 0.0040393 -2.16438e-21)
(0.0023564 0.00237096 3.10088e-21)
(0.00447453 0.0042391 5.20471e-21)
(0.00428314 0.0040386 -4.03291e-21)
(0.00432359 0.00409423 5.3995e-21)
(0.00230175 0.00230892 -6.87285e-21)
(0.00427516 0.00404685 -1.27097e-20)
(0.00436325 0.00417018 -2.5971e-20)
(0.00437024 0.00415525 1.29357e-20)
(0.00231025 0.00231911 2.65084e-21)
(0.00238626 0.00239454 0)
(0.0042736 0.00404464 -2.29206e-20)
(0.00292693 0.00269057 0)
(0.00229636 0.00230501 5.58892e-21)
(0.00475592 0.0042337 7.21357e-21)
(0.00229723 0.00230289 3.86122e-21)
(0.00231701 0.00232228 5.54417e-21)
(0.00321632 0.00297498 7.63974e-21)
(0.00238325 0.00239218 1.06572e-22)
(0.00230302 0.00231263 -6.45204e-21)
(0.00230017 0.00231567 -4.45273e-21)
(0.00232149 0.00232874 -5.61353e-21)
(0.00448119 0.00423211 -1.95722e-21)
(0.00231188 0.0023206 3.19069e-21)
(0.00234659 0.00233808 -6.80153e-21)
(0.00432669 0.00408474 -2.02664e-21)
(0.00447572 0.00424247 -9.81087e-21)
(0.00471229 0.0042675 0)
(0.00433338 0.00409875 1.18876e-20)
(0.00230541 0.00231082 1.15971e-20)
(0.00238608 0.00239117 2.79667e-20)
(0.00234637 0.00236912 -2.7433e-20)
(0.00421657 0.0040253 -2.33838e-21)
(0.00232414 0.00233349 -7.71176e-21)
(0.0043807 0.00420483 6.61077e-21)
(0.00428532 0.00404174 0)
(0.00231532 0.00232539 1.47637e-20)
(0.0023502 0.00235867 -4.28548e-22)
(0.00427289 0.00404325 0)
(0.00231916 0.00232215 -1.47282e-24)
(0.00445047 0.00422678 -2.07963e-20)
(0.00521836 0.00439333 -7.75164e-21)
(0.00511348 0.00479501 7.95254e-21)
(0.00447288 0.00423656 0)
(0.00427083 0.0040492 6.82852e-21)
(0.00232107 0.00232781 5.23187e-21)
(0.0048104 0.00479868 0)
(0.00237714 0.00237354 0)
(0.00290208 0.00280841 -2.6819e-20)
(0.00231166 0.00231571 0)
(0.00467343 0.00420362 0)
(0.00229785 0.00230845 0)
(0.00230881 0.0023138 0)
(0.00228936 0.00230822 -1.33603e-21)
(0.00228294 0.00229859 1.40078e-21)
(0.00238973 0.0023827 1.421e-20)
(0.00239267 0.00239796 1.88317e-20)
(0.00447386 0.00423609 -5.68888e-21)
(0.00230846 0.00232624 1.70786e-21)
(0.00439677 0.0042058 -1.25095e-22)
(0.00231192 0.00231798 7.05596e-21)
(0.00447449 0.00423949 3.27141e-21)
(0.0022705 0.00229689 -1.07703e-20)
(0.00432337 0.00408301 2.83556e-21)
(0.00427583 0.00404246 0)
(0.00549581 0.00493978 -7.91566e-21)
(0.00228949 0.00230572 0)
(0.00233788 0.00233061 6.23662e-21)
(0.00236981 0.00234398 -6.59149e-21)
(0.00238699 0.00239117 0)
(0.00234895 0.0023313 -1.17818e-22)
(0.00230226 0.00231071 5.10907e-21)
(0.00236733 0.00233814 6.77065e-21)
(0.00232252 0.00231012 -8.20765e-21)
(0.0023814 0.00238888 1.10082e-20)
(0.00262397 0.0029743 3.85561e-20)
(0.00424525 0.00405948 -3.74662e-23)
(0.00447329 0.00424347 -6.34616e-21)
(0.00236206 0.00233716 -2.06317e-20)
(0.00230324 0.00232004 6.97376e-22)
(0.00314797 0.00333441 -9.18203e-21)
(0.00229166 0.00228277 1.47636e-20)
(0.00448868 0.00422199 6.91273e-21)
(0.00230404 0.00231825 7.37866e-21)
(0.00237763 0.00239035 7.14454e-21)
(0.00237927 0.00236545 4.48184e-21)
(0.00260643 0.00254041 -7.59554e-21)
(0.00232045 0.00232571 0)
(0.00232145 0.00232397 1.14186e-20)
(0.00230651 0.00232012 3.35557e-21)
(0.00231973 0.00229174 2.3386e-20)
(0.00239792 0.00240461 0)
(0.00230963 0.0022992 -1.33076e-20)
(0.00432404 0.00408804 0)
(0.00235151 0.00238041 -4.00717e-21)
(0.00321421 0.00293822 8.0873e-21)
(0.00432383 0.00408733 0)
(0.00231048 0.00232177 -2.39239e-24)
(0.0023839 0.00239417 -2.83193e-24)
(0.00266369 0.0025666 0)
(0.00340055 0.00315738 -8.00277e-21)
(0.00456404 0.00436238 -1.74249e-20)
(0.00230162 0.00229756 -9.06921e-24)
(0.00228312 0.00230736 0)
(0.00427612 0.00404834 6.36983e-21)
(0.00447779 0.00423014 -2.72282e-21)
(0.002293 0.00228906 9.30486e-22)
(0.0023737 0.00238711 -6.56539e-21)
(0.00230428 0.00231183 0)
(0.00230319 0.00231132 -1.22109e-20)
(0.00270427 0.00273027 1.78755e-20)
(0.00431283 0.00408253 -2.60143e-21)
(0.00230988 0.00231618 -1.24173e-20)
(0.00237174 0.00238308 0)
(0.00430317 0.0040831 -6.8783e-22)
(0.00236082 0.0023713 -2.14676e-20)
(0.0043266 0.0040884 -2.97311e-21)
(0.00229426 0.00230947 -7.79664e-21)
(0.00426612 0.00404519 0)
(0.00228583 0.00230399 -4.51404e-21)
(0.00237513 0.00236757 1.08458e-22)
(0.00238816 0.0023688 4.07902e-21)
(0.00238282 0.00239661 2.90597e-21)
(0.00186167 0.00196373 0)
(0.00230873 0.00231418 3.91619e-21)
(0.00237858 0.0023469 -1.33567e-20)
(0.00444657 0.00423527 2.73134e-20)
(0.00237848 0.0023923 3.23205e-21)
(0.00420071 0.0040152 5.73559e-22)
(0.00428177 0.00404566 -6.31644e-21)
(0.00472912 0.00501569 8.09977e-21)
(0.00244935 0.00243483 -7.16329e-21)
(0.00230598 0.00228866 -4.66969e-21)
(0.00448368 0.00423623 7.36433e-21)
(0.00236807 0.00235709 4.68115e-21)
(0.00429298 0.0040842 6.08115e-22)
(0.00235205 0.00237822 -2.62817e-23)
(0.00241362 0.00248692 -2.04056e-20)
(0.00229799 0.00231118 0)
(0.00446278 0.0042439 0)
(0.0042647 0.00404405 1.3075e-20)
(0.00239002 0.00240398 1.76877e-21)
(0.00427999 0.00403709 1.34051e-21)
(0.0023003 0.00231832 4.31884e-21)
(0.00235503 0.00238338 0)
(0.00230204 0.00231438 -8.84567e-21)
(0.00427359 0.00404422 0)
(0.00237355 0.00235762 -8.70018e-21)
(0.00441982 0.00406079 -1.56977e-20)
(0.00229824 0.00228973 4.98602e-21)
(0.00228948 0.00230615 -4.58318e-21)
(0.00228075 0.0023088 -4.14609e-21)
(0.00533048 0.00458289 1.59165e-20)
(0.00427273 0.00404908 -1.39266e-20)
(0.00448539 0.00424164 0)
(0.00461721 0.00425029 1.15949e-20)
(0.00238104 0.00236158 -4.6517e-25)
(0.00229813 0.00231137 -4.27014e-21)
(0.0022967 0.00228563 4.57847e-21)
(0.00448054 0.0042415 0)
(0.00432206 0.00409467 0)
(0.00432272 0.00409104 -4.92764e-21)
(0.00237588 0.00236508 9.34703e-21)
(0.0022935 0.00230765 -9.52067e-21)
(0.00238513 0.00239541 0)
(0.00434069 0.0041064 2.39198e-20)
(0.00229427 0.00230915 1.37707e-20)
(0.0023716 0.00238325 0)
(0.00551737 0.00454651 0)
(0.00228736 0.0023049 -8.06588e-21)
(0.00447872 0.00422906 -2.5291e-21)
(0.00231102 0.00229557 4.25598e-21)
(0.00237874 0.00236279 0)
(0.00227973 0.00229611 -1.70399e-21)
(0.00228643 0.00231499 5.10295e-21)
(0.00231755 0.00233137 1.83306e-21)
(0.00432475 0.00408191 2.57799e-21)
(0.00427224 0.00404288 1.0609e-20)
(0.00229537 0.00231112 -7.51751e-21)
(0.00234973 0.00237498 -1.28384e-22)
(0.00447509 0.0042384 3.39405e-21)
(0.00230592 0.002294 0)
(0.0022864 0.00230372 0)
(0.00447431 0.00423805 0)
(0.0012412 0.00143311 0)
(0.00445776 0.00422896 0)
(0.00230887 0.00232443 -2.80169e-21)
(0.00230233 0.00229275 1.06369e-20)
(0.00242911 0.00238228 -7.37864e-21)
(0.00428117 0.00403875 3.62137e-21)
(0.00230171 0.00229196 2.16043e-20)
(0.00227043 0.00229719 -3.07433e-21)
(0.00235642 0.00240374 0)
(0.00432871 0.00408644 -2.48903e-21)
(0.00229671 0.00228675 0)
(0.00226781 0.00230053 1.11514e-22)
(0.00231922 0.0023233 -7.14587e-21)
(0.0022736 0.00229835 8.36764e-21)
(0.00235859 0.00238621 3.32049e-21)
(0.00237104 0.00223724 -1.51115e-20)
(0.00235295 0.00237519 -2.66583e-23)
(0.0023034 0.00229696 -1.44561e-20)
(0.00223698 0.0019975 7.54022e-21)
(0.0022831 0.00230475 0)
(0.00229466 0.00228383 0)
(0.00228287 0.00233206 0)
(0.00109214 0.00199139 2.3671e-20)
(0.00236717 0.00235666 -8.35606e-24)
(0.00228359 0.00230934 4.49554e-21)
(0.00238448 0.00237938 -2.04115e-20)
(0.00228387 0.00230712 -2.70392e-23)
(0.00228699 0.00227942 -2.53926e-20)
(0.0023156 0.0023376 0)
(0.00432404 0.00408622 6.59639e-21)
(0.00226773 0.00229749 0)
(0.00228612 0.00227901 -1.32936e-20)
(0.00235311 0.00237359 0)
(0.00228322 0.00230743 8.21196e-21)
(0.00235176 0.00237317 2.76769e-21)
(0.00228207 0.00230724 5.69469e-21)
(0.00235952 0.00245831 5.47394e-22)
(0.00228585 0.00238538 -4.49821e-22)
(0.00237774 0.00236387 -6.39977e-21)
(0.00230619 0.00227586 -6.26603e-21)
(0.00239119 0.00260955 6.90561e-22)
(0.00237019 0.00235673 -1.25788e-20)
(0.00235354 0.00238094 4.35017e-21)
(0.00229314 0.00228558 5.20212e-21)
(0.00228352 0.00231186 0)
(0.0022811 0.00230512 5.07002e-21)
(0.00235014 0.00237794 -2.37933e-21)
(0.00228127 0.00230646 -2.45672e-21)
(0.00230133 0.00228929 -6.50492e-21)
(0.00228747 0.00227928 -1.38424e-20)
(0.00238584 0.002375 -1.97181e-20)
(0.00233725 0.00239244 -6.66781e-21)
(0.00245645 0.00268187 4.76891e-21)
(0.00237614 0.00236561 -5.57215e-21)
(0.00229683 0.00228614 1.12729e-20)
(0.00229784 0.00228439 -1.16112e-20)
(0.00228167 0.00231137 0)
(0.00217957 0.00210449 -2.26604e-20)
(0.00425779 0.0040356 0)
(0.00235755 0.00237641 -6.3017e-21)
(0.00198835 0.00167854 -2.29857e-20)
(0.00235852 0.00237546 -3.40525e-21)
(0.00229512 0.00228714 1.33689e-20)
(0.0019058 0.00220389 2.83856e-20)
(0.00227132 0.00229961 9.72243e-21)
(0.00235319 0.00238242 0)
(0.00235438 0.00237421 -5.79305e-21)
(0.00235309 0.00230491 6.78912e-21)
(0.00238634 0.00237565 2.17086e-20)
(0.00229379 0.0022859 -1.28092e-20)
(0.00229484 0.00222749 0)
(0.00231627 0.00253197 1.22221e-21)
(0.00237613 0.00236497 2.15391e-20)
(0.00237744 0.0023658 0)
(0.00238325 0.0023712 -7.51136e-24)
(0.0021531 0.00198598 -7.9475e-24)
(0.00226271 0.00227323 7.39858e-24)
(0.00237251 0.00235947 -6.63793e-21)
(0.00237143 0.00235983 -8.24025e-24)
(0.00230012 0.00231067 1.46993e-20)
(0.00225362 0.00213215 -1.61936e-20)
(0.0023115 0.00230236 -7.87271e-21)
(0.00229299 0.00231112 -7.68007e-21)
(0.00242085 0.00243703 1.32383e-23)
(0.00229171 0.00228378 -1.44079e-20)
(0.00227008 0.00230005 -4.02311e-21)
(0.00249699 0.00260015 -7.0952e-21)
(0.00428489 0.00403918 -2.60784e-21)
(0.00253253 0.00269976 -2.321e-20)
(0.00236351 0.00242871 -6.30933e-22)
(0.00229023 0.00235653 -9.15277e-23)
(0.00229798 0.00228898 0)
(0.00229942 0.00229513 0)
(0.0022706 0.0023031 -1.79985e-21)
(0.00227208 0.00229982 -1.39703e-22)
(0.0022703 0.00229821 -2.21929e-21)
(0.00227135 0.00229798 -4.9997e-21)
(0.00226857 0.00229673 5.02424e-21)
(0.00423906 0.00403455 2.08049e-21)
(0.00231498 0.00231028 -1.5068e-20)
(3.03996e-05 2.26634e-05 -9.89451e-21)
(4.51199e-05 -1.64157e-05 4.8864e-21)
(9.22018e-05 0.000119756 1.37083e-21)
(0.000187311 -3.65286e-05 2.1375e-21)
(0.000981832 9.40861e-05 0)
(6.89047e-05 7.21787e-05 -8.83718e-22)
(0.000624047 0.000373345 3.67351e-20)
(5.91494e-05 0.000147046 0)
(0.000213664 -4.66854e-05 0)
(7.97705e-05 -1.6825e-05 -1.4349e-22)
(0.000631736 0.000109558 -1.4085e-20)
(0.00458463 0.00450549 -9.39468e-21)
(0.0045812 0.00450301 4.47099e-21)
(0.00481287 0.00472221 6.49287e-23)
(0.00431472 0.00407641 1.15111e-20)
(0.00427025 0.00403173 1.2233e-20)
(0.00463883 0.00455693 0)
(0.00481388 0.00472136 -4.28835e-21)
(0.00457585 0.00450669 -8.13063e-21)
(0.00463345 0.00456168 0)
(0.0046445 0.00455991 0)
(0.00426247 0.00404542 -1.07997e-20)
(0.00464488 0.00455933 -9.69471e-21)
(0.00426593 0.0040442 5.80284e-21)
(0.00457586 0.00450764 4.08113e-21)
(0.00481251 0.00472413 0)
(0.00464486 0.00455801 5.45977e-21)
(0.00458732 0.00450408 1.75596e-20)
(0.00464357 0.00455961 1.03898e-20)
(0.00481187 0.00472377 0)
(0.00481207 0.00472331 0)
(0.00464638 0.00455692 -1.66061e-20)
(0.00481327 0.00472579 4.83941e-21)
(0.00457168 0.0045144 0)
(0.00457274 0.00451278 0)
(0.00480231 0.00473471 0)
(0.00480507 0.00472782 -5.82606e-21)
(0.00462939 0.00456853 0)
(0.00457112 0.00451496 -2.90156e-21)
(0.00462854 0.00456849 -5.43103e-21)
(0.00480788 0.00472656 3.38836e-21)
(0.00481281 0.00472577 -4.92094e-21)
(0.00480689 0.0047255 1.27257e-20)
(0.00456892 0.0045149 0)
(0.00480643 0.00472583 -6.10849e-21)
(0.00480305 0.00473246 0)
(0.0048122 0.00472119 -7.833e-21)
(0.00456911 0.00451562 2.93044e-21)
(0.00462876 0.00456829 -7.63803e-21)
(0.00446623 0.00423566 0)
(0.0045868 0.00450415 -1.23178e-20)
(0.00468446 0.00452731 -6.09763e-21)
(0.00479985 0.00473627 -9.71285e-21)
(0.00458674 0.00450331 -1.25533e-20)
(0.00480144 0.00473608 0)
(0.00458627 0.00450354 0)
(0.00481324 0.00472604 1.0247e-20)
(0.00445825 0.00423324 1.20374e-20)
(0.00462875 0.00456862 2.50297e-21)
(0.00446261 0.0042368 -5.49158e-21)
(0.00463077 0.00456769 4.54864e-21)
(0.00480008 0.00473479 4.39389e-21)
(0.00458531 0.00450294 -6.73717e-21)
(0.00458112 0.0045036 6.99378e-21)
(0.00457079 0.00451572 4.89742e-21)
(0.0046298 0.00456889 -4.7428e-21)
(0.00479982 0.004736 -4.56131e-21)
(0.00457891 0.00450552 0)
(0.00458393 0.00450332 6.67473e-21)
(0.00457124 0.00451473 -5.1419e-21)
(0.00479955 0.0047343 -4.01415e-21)
(0.0046889 0.00452097 -1.27511e-20)
(0.00463038 0.00456714 -4.15247e-21)
(0.00460571 0.004498 0)
(0.00468073 0.00451362 -6.47014e-21)
(0.00457114 0.00451471 -5.55231e-21)
(0.00481419 0.00472546 -1.21362e-20)
(0.00457927 0.00450439 -2.09472e-20)
(0.00464976 0.00450773 1.31364e-20)
(0.00457962 0.00450532 -7.37467e-21)
(0.00457086 0.00451467 8.47318e-21)
(0.00462911 0.00456708 0)
(0.00479848 0.00473459 0)
(0.00458543 0.00449735 1.50188e-20)
(0.00457408 0.00447471 0)
(0.00479855 0.00473578 1.7386e-21)
(0.0046281 0.0045682 1.80548e-21)
(0.00457123 0.00451479 3.45268e-21)
(0.00480093 0.0047328 0)
(0.00462859 0.00428541 -1.29044e-20)
(0.00463308 0.00444072 0)
(0.00456384 0.00443233 1.40967e-20)
(0.00480688 0.0047271 -6.31311e-21)
(0.00457048 0.00451492 3.83892e-21)
(0.00481132 0.00472693 0)
(0.00458099 0.00437036 7.11056e-21)
(0.00488773 0.00463485 1.41582e-20)
(0.00480287 0.00472946 6.58124e-21)
(0.00433779 0.00371733 1.62191e-20)
(0.00418255 0.00373974 8.20356e-21)
(0.00460268 0.00447595 -7.58554e-21)
(0.00457136 0.00451514 -6.74015e-21)
(0.0042854 0.00339094 7.63378e-21)
(0.00498554 0.00454114 0)
(0.00461598 0.00458015 1.63128e-21)
(0.00413883 0.00365615 -1.67413e-20)
(0.0047865 0.00474808 1.54234e-21)
(0.00458659 0.00459141 1.72549e-21)
(0.00460363 0.00458395 7.56118e-22)
(0.00477457 0.00475122 -7.07426e-22)
(0.00430886 0.00338659 1.53551e-20)
(0.00475669 0.0047586 0)
(0.00472591 0.00475392 8.29745e-22)
(0.00460489 0.00451208 8.65463e-21)
(0.00455546 0.00458724 1.37488e-21)
(0.00439218 0.00453189 1.7578e-20)
(0.0047511 0.00473641 3.10096e-20)
(0.000800962 0.000581448 -8.00517e-21)
(-3.86687e-05 0.00113951 4.15796e-24)
(3.55774e-05 2.8327e-05 -8.22372e-21)
(5.09718e-05 4.49329e-06 -1.93017e-21)
(6.33324e-05 0.000260353 0)
(0.000118443 -2.53496e-05 -6.69627e-21)
(6.72046e-05 -2.76786e-06 2.82039e-22)
(0.000711101 0.000629219 -8.30906e-24)
(0.00230189 0.00229174 -1.59563e-20)
(0.00464307 0.00455941 4.72186e-21)
(0.00229555 0.00228365 0)
(0.00229441 0.00231474 3.38268e-21)
(0.0023657 0.00237862 6.89856e-21)
(0.00228613 0.00231171 -2.98836e-21)
(0.00237991 0.00236427 1.78252e-20)
(0.00227563 0.00230329 0)
(0.00230854 0.00227344 6.08775e-21)
(0.00235887 0.00238684 -3.76303e-21)
(0.00228537 0.00231565 -1.31667e-22)
(0.00242728 0.00242172 -7.30486e-21)
(0.00462106 0.00457731 1.92986e-21)