/*--------------------------------*- C++ -*----------------------------------*\
  =========                 |
  \\      /  F ield         | OpenFOAM: The Open Source CFD Toolbox
   \\    /   O peration     | Website:  https://openfoam.org
    \\  /    A nd           | Version:  8
     \\/     M anipulation  |
\*---------------------------------------------------------------------------*/
FoamFile
{
    version     2.0;
    format      ascii;
    class       volVectorField;
    location    "7";
    object      U;
}
// * * * * * * * * * * * * * * * * * * * * * * * * * * * * * * * * * * * * * //

dimensions      [0 1 -1 0 0 0 0];

internalField   nonuniform List<vector> 
5490
(
(0.000307661 0.00191973 9.87179e-22)
(0.000302287 0.00191074 1.57359e-21)
(0.000321063 0.00189595 -1.49394e-23)
(0.000304954 0.00191587 -1.01642e-21)
(0.000340551 0.00205959 -1.04879e-22)
(0.000427352 0.000671665 -4.24224e-21)
(4.62469e-06 1.24114e-05 2.52021e-21)
(0.000235883 0.000221191 4.47545e-22)
(0.000325345 0.0019232 1.93271e-23)
(0.000436198 0.000172815 1.36246e-21)
(0.000308952 0.00192998 -3.42949e-22)
(0.000160778 0.0010465 0)
(0.00031698 0.00192171 -5.97401e-22)
(0.000331784 0.0016945 3.31249e-22)
(0.000322264 0.00192576 6.42649e-22)
(0.000491801 0.000154253 -6.5763e-21)
(-1.50178e-07 1.83945e-05 0)
(0.000106607 0.000655921 0)
(0.000261206 0.00166329 -1.08419e-21)
(0.000323805 0.00191263 -6.84808e-22)
(8.55957e-05 0.0010368 8.13039e-23)
(5.27119e-06 1.47744e-05 -1.27265e-21)
(0.00080504 0.000426253 0)
(1.50164e-06 1.46832e-05 0)
(0.000299766 0.00117409 4.79486e-22)
(0.000311175 0.00193041 9.83895e-22)
(0.000318786 0.00191507 1.25529e-21)
(0.000304507 0.0019257 0)
(0.000459326 0.000791537 2.56827e-21)
(0.000324882 0.00191377 0)
(0.000296821 0.0019518 -4.12744e-22)
(2.87257e-05 2.29926e-06 0)
(0.000110295 0.00183664 2.5231e-21)
(0.000382023 0.00205223 9.74997e-22)
(0.000312105 0.00189544 -8.29419e-23)
(0.000302985 0.00165471 1.27592e-22)
(0.000643095 0.000808734 1.98468e-21)
(0.000291368 0.00167027 2.65846e-22)
(0.000377073 0.00204729 8.93325e-23)
(0.00027281 0.00169466 4.34812e-22)
(0.000289096 0.00178462 4.65365e-22)
(0.000563077 0.000733984 9.55789e-22)
(0.000307577 0.00191974 -1.16126e-21)
(0.000569244 0.000834359 1.21629e-21)
(0.00110463 -6.72417e-05 2.81488e-21)
(0.000305456 0.00173732 -5.07959e-22)
(0.000320594 0.00191891 2.99674e-22)
(0.00037807 0.00204706 2.45243e-22)
(0.000335662 0.00177778 -6.84414e-23)
(0.000714873 0.0014416 -4.56033e-22)
(0.000429416 0.000273686 0)
(0.000326047 0.00190298 -1.82001e-22)
(0.000309236 0.00187243 1.91768e-22)
(0.000319406 0.00193386 1.57721e-22)
(0.000314327 0.00192758 -1.05113e-21)
(0.000299413 0.00189606 3.20834e-22)
(0.00150713 7.74186e-05 -9.98796e-22)
(0.000961287 -1.27331e-05 -1.11604e-21)
(0.000353746 0.00204035 0)
(0.000363134 0.00205221 6.44133e-22)
(0.000444818 0.000828402 -9.8724e-22)
(0.000276953 0.00198196 1.04435e-22)
(0.000306195 0.00179472 0)
(0.000199651 0.000189557 -8.71372e-22)
(3.70158e-06 2.40849e-05 0)
(0.000424425 0.000393943 0)
(0.000510686 0.000151858 0)
(0.00133875 0.000268101 1.14344e-22)
(0.000306287 0.00175813 0)
(0.0010183 4.70618e-05 1.12643e-22)
(0.000316119 0.00193089 2.00259e-22)
(0.000366191 0.00204544 -3.05643e-22)
(4.86646e-05 0.000363655 4.35901e-22)
(0.000260689 0.000125095 -3.38116e-22)
(0.000381443 0.000277529 1.657e-21)
(0.000327939 0.00176624 1.23357e-22)
(0.00068153 0.00056935 2.98043e-21)
(0.00030783 0.0018585 0)
(0.000258086 0.00168 -6.53197e-22)
(0.000356747 0.00204044 -5.7365e-23)
(0.000527033 0.000572047 5.50326e-22)
(0.00062086 0.000259535 -1.6953e-21)
(0.000217589 0.000763727 2.00688e-21)
(0.000265131 0.00168164 1.05246e-21)
(0.000334422 0.00204791 -3.2911e-23)
(0.00031887 0.00178436 -3.79139e-23)
(-0.00052765 0.00042112 -4.27208e-22)
(0.00029513 0.00049836 1.22174e-21)
(0.000361444 0.00204244 -1.26789e-23)
(0.00067182 0.000881054 -1.40657e-21)
(0.000502531 -0.000202293 -1.77327e-21)
(0.000133395 0.000761095 -2.07896e-21)
(0.000374682 0.00203715 6.59391e-23)
(0.000923493 -3.71554e-05 -9.6189e-23)
(0.000282907 0.00135272 -1.14123e-21)
(0.000491545 9.34728e-05 1.74768e-21)
(0.000368477 0.00205207 3.9827e-22)
(0.000559293 0.000701812 6.39902e-22)
(0.001251 0.000445785 4.38588e-21)
(0.000323713 0.00182419 5.56326e-22)
(0.000172604 0.00106156 -7.03955e-22)
(0.000293876 0.00167817 -4.88451e-22)
(0.000315547 0.00179933 1.00229e-21)
(0.000494103 6.73641e-05 -1.6277e-25)
(0.000385133 0.00205232 0)
(0.000340375 0.00203734 2.62367e-24)
(0.000314617 0.00181012 -3.82056e-22)
(0.00023904 0.000991996 -1.06549e-21)
(0.00022354 0.000106735 5.20533e-22)
(3.05056e-05 2.64485e-06 3.02755e-21)
(0.000503591 -5.4282e-05 3.79034e-21)
(2.84811e-05 0.000309252 1.98215e-22)
(0.000760488 0.000195814 4.03562e-22)
(0.000291127 0.00175656 3.50346e-22)
(0.000366622 0.00204614 3.4955e-24)
(0.000748128 0.000792898 -9.50053e-22)
(0.000328387 0.00190886 0)
(0.000758145 0.000235074 8.7981e-22)
(0.000930987 0.000185057 -2.4346e-22)
(0.000360455 0.00205598 3.45137e-22)
(0.000345177 0.00204269 5.52234e-22)
(0.00117999 0.00172684 3.94637e-22)
(0.00037641 0.000774549 3.2659e-21)
(0.000259842 0.00167503 -1.14853e-21)
(0.000511202 -0.000326873 0)
(0.000328435 0.000335581 -2.22222e-21)
(0.00017355 0.00109065 3.16221e-22)
(0.000307952 0.00192214 1.42722e-22)
(0.000496199 -8.18582e-06 1.78539e-21)
(0.000328797 0.00170656 -2.85244e-22)
(0.00101131 2.31103e-06 -2.23443e-22)
(0.000606854 0.000864676 2.20543e-21)
(0.000378182 0.00173958 3.45818e-22)
(0.000317323 0.00176472 1.0998e-22)
(0.000378163 0.00204465 -2.72239e-22)
(6.41776e-06 0.000254179 0)
(0.000986357 -1.63064e-05 0)
(3.20717e-05 0.000351722 2.2528e-22)
(0.000473176 0.000249918 -4.3195e-22)
(0.000303355 0.00170264 -4.17714e-22)
(0.000491816 -0.000100428 1.87835e-21)
(4.93066e-07 7.20639e-05 7.69492e-22)
(0.000364984 0.00204301 4.70707e-24)
(0.000372934 0.000956554 -1.23882e-21)
(1.70232e-05 -5.07592e-06 -1.32578e-21)
(0.000820582 -0.000149437 -4.16101e-21)
(0.000143673 0.00178473 -1.32342e-23)
(0.000782271 -0.000167813 0)
(0.000329786 0.00190077 8.15827e-23)
(0.000587686 0.000745088 -4.78426e-22)
(2.33118e-05 4.21627e-06 0)
(0.000192703 8.47012e-05 -2.91365e-26)
(0.000169064 0.00104339 3.69416e-22)
(3.17902e-06 0.000123871 0)
(0.000785612 0.000684777 2.70485e-21)
(6.33162e-06 3.46977e-05 -7.28925e-22)
(0.000186388 4.48462e-05 -2.12143e-22)
(0.000834108 0.000194297 -2.44692e-22)
(0.000886288 1.05929e-05 9.36285e-22)
(0.000337094 0.00180135 1.62692e-22)
(0.000298533 0.00165286 4.50917e-22)
(0.000671953 0.00108325 0)
(0.00034099 0.000967483 7.98791e-22)
(0.000278206 0.000408816 -1.65859e-24)
(0.000207161 0.000208565 2.02886e-25)
(0.000379942 0.000502571 0)
(3.76414e-05 -3.22701e-06 -1.12725e-22)
(0.000262854 0.00198437 6.31748e-23)
(0.000991795 0.000421616 -1.94705e-21)
(0.000337112 0.00186425 -1.45077e-23)
(0.000974996 -7.55658e-06 2.57765e-21)
(0.000366166 0.00204468 6.17671e-23)
(0.000269212 0.00162785 5.00801e-22)
(3.03802e-05 3.93612e-06 0)
(0.000365197 0.00205429 3.67922e-22)
(0.000342252 0.00206151 0)
(0.000353731 0.00203495 9.90982e-23)
(1.53299e-05 0.000118318 0)
(0.000360844 0.00203727 -1.8223e-22)
(0.000336866 0.00204392 0)
(0.00102119 6.15072e-05 -1.00232e-21)
(0.000162548 0.000189553 1.43199e-21)
(0.000331734 0.00203627 0)
(0.000294169 0.00167526 4.9397e-24)
(5.35337e-07 2.41291e-05 0)
(0.000265555 0.00168592 1.05539e-22)
(0.00029544 0.00166347 -3.1313e-22)
(0.000343824 0.00205767 1.00829e-22)
(0.000145197 1.6229e-05 -1.0427e-22)
(0.000447218 0.000213294 1.1923e-21)
(0.00115444 0.000219626 1.84051e-21)
(0.000170768 0.00102011 -3.82155e-22)
(0.000319852 0.00191499 -3.52682e-22)
(7.15562e-05 7.57782e-06 -1.48784e-21)
(0.000288449 0.000310215 0)
(0.000365109 0.00204569 3.98617e-22)
(0.000342741 0.00203332 1.60441e-22)
(1.0477e-05 5.23183e-05 0)
(0.000330359 0.000773181 2.95147e-21)
(0.000319985 0.00189848 9.52297e-23)
(6.15275e-05 -0.00022512 0)
(0.000335563 0.00180002 1.16112e-21)
(4.96459e-07 3.99646e-05 8.01684e-22)
(0.000500882 1.82047e-05 -1.68131e-21)
(0.000318153 0.00151447 -8.55752e-22)
(0.000960953 -3.68021e-05 4.56475e-22)
(7.61141e-05 -3.08646e-06 2.00363e-22)
(7.50535e-05 -0.000254415 8.41076e-22)
(0.00028429 0.00167322 0)
(0.00120338 0.000175988 2.47424e-22)
(0.00094929 2.5928e-05 0)
(2.68289e-05 0.000248447 2.38252e-22)
(0.000303801 0.00193331 4.44095e-22)
(0.000321743 0.00195784 7.21554e-22)
(0.000343797 0.00184078 1.59693e-21)
(0.000299566 0.00170837 -1.43291e-22)
(0.000328082 0.0017571 -5.00907e-22)
(0.000307252 0.00192968 3.54718e-22)
(0.00100838 2.03153e-05 -5.06622e-22)
(9.30837e-06 4.23897e-05 -5.26133e-23)
(0.000662446 0.000463515 -3.60265e-21)
(0.000145524 5.04947e-06 1.06034e-22)
(0.000807521 0.00117259 -9.2178e-22)
(0.000321437 0.00193618 -2.29404e-22)
(0.000292523 0.0020044 -6.34918e-22)
(0.000353438 0.00204357 1.5926e-23)
(0.000297095 0.00167947 6.69504e-24)
(0.000307253 0.0017831 3.8621e-22)
(0.000317201 0.00193271 -1.97953e-22)
(2.20926e-05 0.000212424 -2.53098e-23)
(0.000164234 0.00110249 -1.37465e-23)
(0.000686192 0.000806143 0)
(3.0733e-05 1.55847e-06 1.5191e-21)
(0.00036772 0.000259177 1.18782e-21)
(0.000167797 0.00101996 6.40562e-22)
(0.000286859 0.00101882 -3.48533e-22)
(5.46287e-05 -0.000198892 0)
(0.000202459 4.92439e-05 8.47989e-22)
(1.93848e-05 0.000181016 0)
(0.000317636 0.00191634 0)
(1.13048e-05 5.78586e-05 -5.1307e-23)
(0.000319509 0.00179069 1.14932e-22)
(0.000250077 0.00208959 -7.16981e-24)
(0.000331629 0.00188912 4.88346e-22)
(1.71712e-05 0.000153439 -2.0084e-22)
(0.000637475 0.000484961 -2.29256e-21)
(0.00057444 0.000796365 2.075e-25)
(0.000134575 0.00163979 3.42473e-21)
(0.000327669 0.000880383 5.71066e-21)
(0.000156839 0.000198079 1.56584e-21)
(7.58474e-06 4.31484e-05 -7.66055e-22)
(0.000187658 0.00164053 5.21395e-21)
(0.000999004 -1.99905e-05 0)
(0.00069953 0.000818297 0)
(0.000291723 0.00162459 9.92151e-23)
(0.000336834 0.00168441 -5.33708e-22)
(0.000435415 0.00181773 -1.11912e-23)
(0.000326235 0.00178479 0)
(0.000320838 0.00191293 -3.54772e-22)
(0.00030625 0.00035946 0)
(0.00129968 0.000358821 -1.59098e-21)
(0.000300204 0.0019165 -1.05346e-21)
(0.000190508 0.00113378 -1.61675e-21)
(0.00102811 -2.93323e-05 8.43556e-22)
(0.000133888 3.03833e-06 3.93993e-22)
(0.000840929 0.000499408 0)
(0.0003727 0.00206523 2.94508e-22)
(0.00122031 0.000580909 1.23666e-21)
(0.000171381 3.84932e-05 0)
(8.02819e-06 -6.13686e-05 4.08709e-22)
(6.81148e-05 -9.57424e-06 -4.19292e-22)
(0.000378655 0.00201044 5.39797e-22)
(7.38729e-05 1.14956e-05 3.6893e-26)
(0.000421883 -0.000536913 1.82509e-21)
(0.000851739 0.00163792 6.8265e-22)
(0.000111722 8.4245e-06 -1.45093e-21)
(0.000257589 0.000162355 1.81929e-22)
(0.000319433 0.00168956 -5.08374e-23)
(0.000342394 0.0019133 -6.93507e-22)
(0.000345063 0.00209566 -3.04894e-22)
(6.59611e-07 3.17869e-05 7.824e-22)
(8.58946e-05 1.02957e-05 0)
(2.82631e-05 9.61453e-05 -1.05342e-22)
(0.000535274 0.000976174 2.45625e-21)
(0.000241257 0.00121733 -7.15608e-22)
(0.000100344 0.000340068 5.03461e-23)
(0.000395451 0.000905105 0)
(0.000278371 0.000107814 -6.27693e-22)
(9.33212e-05 0.00109191 1.1528e-22)
(0.000331128 0.00177492 -3.74175e-22)
(0.00028298 0.00180189 -8.93318e-23)
(0.000310034 0.000868466 -4.11801e-21)
(0.000244498 0.000722815 -1.72262e-21)
(0.000182387 0.00119181 1.23784e-21)
(0.000229781 0.00118603 -6.26516e-22)
(0.00117804 6.58103e-05 0)
(0.000775214 -0.000243074 0)
(0.00023283 8.7771e-05 1.42956e-22)
(0.000266043 0.00159664 1.45141e-22)
(0.00010387 0.000856584 -3.53476e-21)
(0.000330503 0.00189689 5.38081e-22)
(3.0252e-05 -0.000198387 -4.09946e-22)
(0.00037639 0.00204187 0)
(0.000175013 0.000804391 2.51205e-21)
(0.000320729 0.00181963 0)
(0.000317475 0.00180663 -4.60311e-23)
(0.000979575 1.08936e-05 0)
(3.78743e-05 -0.000109005 -4.30654e-22)
(0.000302078 0.00178141 2.94244e-22)
(0.000329003 0.00181124 2.70451e-23)
(0.000229718 0.00119814 -4.97692e-22)
(0.000708654 0.000468059 3.61343e-21)
(0.000625174 0.000734995 4.1287e-22)
(0.000299488 0.00180119 2.44595e-22)
(0.000280295 0.00167915 0)
(0.000354576 0.00202578 -1.61351e-25)
(0.000254018 0.00157683 -1.39314e-24)
(0.00101188 5.66053e-05 1.01623e-21)
(0.000180172 0.00139726 2.00313e-21)
(-5.54449e-09 6.59486e-05 -7.75368e-22)
(2.79723e-05 0.000335786 0)
(0.000254646 0.00124352 6.64724e-24)
(0.000329183 0.0017255 1.22237e-22)
(0.000281095 0.000263765 -2.2142e-21)
(0.000851778 8.08516e-05 0)
(0.000360042 0.00191274 0)
(0.000305997 0.00187041 -4.63313e-23)
(0.000313516 0.00181677 1.23134e-22)
(0.000630247 0.000502343 -6.57952e-24)
(0.000225931 0.00122404 1.33288e-21)
(0.000300073 0.00179675 -4.53604e-22)
(3.44442e-05 -2.70496e-06 -1.33531e-21)
(3.60357e-05 -1.03614e-06 0)
(0.00092545 0.000740219 2.44788e-21)
(0.000223448 0.00124898 -1.17843e-21)
(0.000230068 0.00118824 -5.98766e-22)
(1.14844e-05 7.26181e-05 -9.45339e-22)
(0.000368501 0.00203128 1.93133e-23)
(5.45501e-08 5.43995e-05 1.61041e-21)
(0.000918092 0.000148607 -4.11592e-22)
(0.000954722 7.18167e-06 8.90512e-22)
(2.67717e-05 -7.74669e-05 -6.43437e-24)
(0.000283283 0.00182159 0)
(0.000161136 0.00104884 -1.16603e-21)
(0.000329099 0.00167818 -1.1034e-24)
(0.000331595 0.00202175 -9.59517e-23)
(0.000368841 0.00203475 5.89662e-23)
(0.000219452 5.96319e-05 0)
(0.000304077 0.00164105 -5.51857e-22)
(0.000313193 0.00173382 0)
(2.4323e-06 0.000113636 0)
(0.000317901 0.00180426 3.5031e-22)
(0.000325858 0.00179311 1.01332e-22)
(0.000357387 0.00195158 2.32083e-22)
(0.000338655 0.00180215 0)
(3.12913e-05 7.55264e-07 -1.79882e-21)
(0.000213479 0.00119982 3.85247e-22)
(0.000327276 0.00182639 -3.02952e-22)
(0.000922909 -4.79707e-05 -2.27792e-21)
(0.000322964 0.00191689 9.21442e-22)
(0.00032245 0.00178429 -2.72167e-22)
(0.000380261 0.0020391 3.38551e-22)
(0.000909039 5.36031e-05 0)
(0.000232705 0.00120338 -1.53879e-22)
(0.000209211 0.00118376 -2.51864e-22)
(0.000331809 0.00205177 6.81486e-24)
(0.000295821 0.0018079 -1.36025e-22)
(0.000243063 0.000222754 -4.2461e-22)
(0.000879329 -5.98033e-05 -1.5414e-21)
(0.000213542 0.00196109 5.72322e-22)
(0.000185056 0.00119966 0)
(0.00035424 0.00204668 -4.60367e-22)
(0.000341332 0.0019438 1.36773e-22)
(3.93409e-05 -1.72939e-06 -1.15352e-26)
(0.000687913 0.00126372 -1.25718e-21)
(6.8698e-05 -3.30223e-06 2.04433e-22)
(3.04305e-05 8.22279e-05 2.61746e-22)
(0.000344743 0.00192094 3.8526e-22)
(3.68672e-05 0.0003989 -1.26706e-21)
(0.000394799 0.000761258 -2.90819e-21)
(0.000331215 0.00177399 0)
(0.000195945 0.00102207 -2.18661e-22)
(0.000332375 0.00179955 -2.95385e-21)
(0.000338161 0.00181055 -1.35128e-22)
(0.000145664 0.00164413 -2.94244e-23)
(0.00020702 0.00118146 0)
(0.000322874 0.00182055 0)
(0.000356579 0.00204556 4.86521e-22)
(0.00022545 0.00121758 -5.30969e-22)
(3.28091e-05 -2.77553e-06 7.14315e-22)
(0.000338239 0.000922298 0)
(0.000349752 0.00190549 -2.37888e-22)
(0.00031548 0.000203071 1.99938e-21)
(0.000326191 0.00202467 5.20868e-23)
(0.000340592 0.00191239 -5.14083e-22)
(0.000347013 0.0020336 -2.55567e-22)
(0.000363874 0.00204288 4.83609e-24)
(0.000235632 0.000138541 6.68551e-22)
(0.000362777 0.00190899 9.6171e-23)
(0.000197939 0.00123001 1.80377e-22)
(0.00100663 4.84251e-05 -9.0222e-22)
(-0.000160064 0.00129188 -1.16133e-21)
(0.000279874 0.00166705 -2.3909e-22)
(0.00026267 0.000665044 0)
(0.000348676 0.0019165 3.61265e-22)
(0.000199564 0.000109539 -1.93461e-22)
(2.70211e-05 0.000152141 -1.76893e-22)
(0.000174137 1.12689e-05 -2.75859e-23)
(2.25538e-05 -7.25539e-06 2.36909e-22)
(0.000373296 0.00203651 -2.0432e-22)
(0.000371923 0.0021892 1.46903e-22)
(3.09497e-05 0.000179754 2.05551e-22)
(0.00032393 0.0018967 -5.40473e-22)
(0.000640834 0.00147515 -7.49935e-22)
(0.000345098 0.00192031 0)
(0.00019325 0.00117937 5.1924e-24)
(0.000220883 0.00121658 1.82921e-24)
(3.53928e-05 0.000211164 2.56271e-22)
(1.05336e-05 6.56679e-05 7.98955e-22)
(0.000374473 0.0019457 4.33097e-22)
(0.000352565 0.00203388 0)
(0.000208781 0.00201917 -2.40508e-22)
(0.000571096 0.00161248 -1.15908e-22)
(0.000322131 0.00180516 2.99849e-22)
(0.000711857 0.000831056 -6.0501e-22)
(2.85748e-05 0.000570797 -8.5024e-23)
(0.000332384 0.00170074 0)
(4.13915e-05 -2.67659e-06 1.30881e-21)
(0.000312345 0.00169413 0)
(4.23892e-05 0.000249112 1.90246e-22)
(0.0003424 0.00191349 -3.61741e-22)
(0.000353195 0.00203663 -3.57601e-22)
(0.00036164 0.00205669 -3.84981e-22)
(0.000283662 0.001948 2.45749e-23)
(0.000329315 0.000549243 1.67462e-21)
(9.37859e-05 1.22815e-05 3.2565e-24)
(2.51797e-05 -0.000176048 -1.60187e-24)
(0.000795794 0.000805937 -2.22156e-21)
(0.000200148 0.00119678 -6.91536e-23)
(0.000321094 0.00168241 1.68644e-22)
(0.000404937 0.00214032 -6.09982e-22)
(0.000337815 0.00190944 0)
(0.000230215 0.00120162 -9.99721e-23)
(0.000352701 0.000681953 0)
(0.000195079 0.00118649 -6.16862e-22)
(3.32184e-05 -9.73342e-05 4.16952e-22)
(0.000301001 0.00176692 0)
(4.025e-05 -8.44847e-06 2.24784e-22)
(0.000133704 0.000175884 4.7822e-22)
(0.00106395 0.000306346 -6.68573e-24)
(0.000336982 0.00190472 -1.10299e-21)
(0.000980759 0.000111653 2.47782e-21)
(0.000198054 0.00117744 1.89078e-22)
(0.000203856 0.00115275 -8.40465e-23)
(0.000353603 0.00203227 8.54319e-22)
(0.000363717 0.00204553 -3.93497e-22)
(8.81145e-06 0.000295409 0)
(3.29706e-05 2.37128e-06 -2.64139e-21)
(0.000285422 0.00180589 0)
(0.000343866 0.00191299 5.97354e-22)
(0.000344275 0.00190809 0)
(0.000173588 0.00105566 5.05152e-23)
(0.000310195 0.00176649 0)
(0.000276303 0.00183838 0)
(0.000271787 0.000555795 0)
(0.000313272 0.00179732 4.64493e-22)
(0.000302066 0.00165565 -1.18554e-22)
(0.000424606 0.000554441 -9.89005e-22)
(0.000247021 0.00140046 5.6184e-22)
(0.00106434 0.00149645 8.90979e-22)
(0.000308577 0.00180727 -6.1692e-22)
(0.000196008 0.00116342 8.95497e-22)
(0.000207382 0.00117702 -4.8713e-22)
(0.000320669 0.00180797 1.95004e-22)
(0.000163298 0.00192579 -1.23097e-23)
(0.000814371 0.000706954 -1.4077e-21)
(0.000967904 0.000396485 -1.13009e-21)
(0.000385601 0.00205626 0)
(0.000286227 0.00181276 3.06917e-22)
(2.78796e-05 -9.25712e-06 -3.30259e-22)
(0.000219241 0.0002019 5.92821e-22)
(0.000185427 0.00106174 -5.86026e-22)
(0.000339777 0.0019246 -1.28279e-21)
(0.000203964 0.00195076 1.87548e-23)
(0.000197402 0.00117642 -4.58775e-22)
(0.000304624 0.00180481 -9.91406e-25)
(0.000956277 -6.11111e-06 0)
(0.000258882 0.00192701 0)
(0.000593004 0.000420335 -9.55064e-22)
(0.000256632 0.00186964 0)
(0.000318805 0.00180204 0)
(0.00033247 0.00185887 1.20622e-22)
(0.000341555 0.00190306 5.53197e-22)
(0.000206465 -0.000126588 4.61328e-22)
(0.000201981 0.000768204 -1.17547e-21)
(3.13399e-05 -1.3069e-05 0)
(1.73976e-05 -6.96562e-05 8.21572e-22)
(2.72751e-05 5.04749e-06 0)
(0.000309467 0.00181209 5.97503e-23)
(0.000295867 0.00180279 -3.23833e-23)
(0.000272463 0.00168976 -2.1647e-22)
(0.000316673 0.00179869 5.76963e-23)
(0.000178767 7.66096e-05 -1.9307e-22)
(7.23014e-06 0.000235371 1.20423e-22)
(0.000598363 0.000328506 -2.46862e-21)
(0.000177288 0.00120362 1.03164e-21)
(0.000313775 0.00183343 0)
(0.000331825 0.00170085 -5.13055e-22)
(0.000415579 0.00110121 6.98221e-23)
(0.000541031 0.000729381 2.8341e-22)
(0.000148993 0.000593003 1.04484e-21)
(0.000995247 0.000674283 9.20739e-22)
(2.09338e-05 -5.51385e-06 -2.30137e-22)
(9.91605e-06 -3.22979e-05 0)
(3.97906e-05 -1.86494e-05 -3.40817e-22)
(2.14397e-05 3.68934e-06 -1.31769e-21)
(0.000150822 0.000360808 4.49467e-22)
(0.000203717 0.00103535 -2.94951e-22)
(0.000304822 0.00179194 8.04938e-22)
(0.000377902 0.000528827 4.63562e-22)
(9.32272e-05 0.000737539 1.01843e-21)
(0.000135009 0.000211221 1.15788e-21)
(0.000960517 0.000770901 -1.4424e-21)
(0.00070474 0.000893589 3.34725e-21)
(0.000217626 7.66598e-05 0)
(0.000245092 0.000234421 -1.74134e-21)
(0.000304249 0.00179448 -1.52569e-24)
(0.000337941 0.000591782 -1.37995e-21)
(0.000185716 -0.000119805 -6.39278e-22)
(0.000341898 0.00202795 2.12801e-23)
(7.19163e-06 3.81977e-05 1.6346e-21)
(0.000333286 0.00181245 -3.33487e-23)
(0.000969503 -8.89169e-07 -5.58125e-23)
(0.000957563 -6.78789e-06 -8.99074e-22)
(0.000202989 0.00122885 -8.4281e-22)
(-2.76461e-05 0.00118779 4.253e-23)
(3.64961e-05 2.43815e-07 0)
(0.000285142 0.00088312 1.68662e-24)
(5.36569e-06 0.000201868 9.957e-23)
(0.000168762 0.00113266 0)
(0.000645714 0.000241352 1.74483e-21)
(0.00039722 0.000892594 5.70784e-24)
(0.000250734 0.000425356 3.65e-21)
(0.000511009 0.00128271 -1.52219e-21)
(3.98417e-05 -2.23631e-05 2.22757e-22)
(0.000143628 -9.92229e-05 -2.11304e-21)
(0.000489006 0.000887148 2.17148e-21)
(0.000385331 0.000962587 0)
(0.000632398 0.00034615 0)
(0.000113591 0.000165865 8.90104e-22)
(0.000336192 0.00175943 1.31132e-22)
(0.00033703 0.00169529 -1.5982e-21)
(0.00035861 0.00205093 0)
(0.000402636 0.000419889 2.68107e-21)
(0.000117117 0.000273052 0)
(0.000260588 0.00164824 0)
(0.00108127 0.000245968 -1.00915e-21)
(0.00015654 -0.000107514 1.32848e-21)
(0.000319555 0.00183752 0)
(2.26695e-05 -1.34645e-05 0)
(1.29573e-06 9.4754e-05 0)
(3.50231e-05 -1.46717e-05 4.93616e-23)
(0.000208679 9.6536e-05 -5.49991e-22)
(0.000861542 8.84764e-05 -9.44446e-22)
(0.000938502 0.00102313 2.51925e-23)
(0.000315557 0.00176334 -2.70518e-23)
(0.000352516 0.000552467 -6.39985e-22)
(0.000279715 0.00179433 -8.26922e-22)
(0.000348438 0.00201585 6.69902e-23)
(0.000992001 7.11535e-05 -4.20965e-22)
(0.00028297 0.00185007 0)
(0.0011986 0.000696841 4.29469e-22)
(1.4517e-05 3.67089e-06 3.56e-22)
(0.000199789 0.000420973 -9.50974e-22)
(0.000128759 0.000188207 4.13801e-25)
(4.7022e-06 0.000172565 -2.02473e-22)
(0.000870333 0.000376263 2.49887e-21)
(0.000186356 0.00117955 5.89371e-24)
(0.000950609 0.00132464 0)
(0.000320447 0.00184158 -1.58778e-22)
(2.85825e-05 6.698e-06 0)
(0.00133792 7.6483e-05 0)
(0.000425304 0.000904223 -2.48385e-21)
(0.000198501 0.00104093 1.17513e-22)
(0.000272426 0.00174371 1.82947e-21)
(0.000349952 0.00176267 -1.1818e-22)
(0.000964064 0.000375859 -1.8307e-21)
(3.65976e-05 -2.09038e-05 -1.49592e-22)
(4.27339e-05 -0.000121988 4.19351e-22)
(3.82841e-05 -9.04938e-06 2.95972e-22)
(0.00116661 0.00013232 4.14496e-21)
(0.000667877 0.000279107 0)
(0.000158487 2.04313e-05 8.77127e-22)
(0.000784107 1.52145e-05 8.04655e-22)
(3.99724e-05 -1.50101e-05 -5.35852e-26)
(0.000481117 -0.000113519 -1.53484e-21)
(0.000968793 0.000113167 -6.14861e-22)
(1.30535e-05 9.78931e-05 0)
(0.000524151 5.99043e-05 -1.73579e-21)
(2.98841e-05 -8.68741e-05 0)
(0.000358769 0.00205285 -9.82784e-24)
(0.000309436 0.00179691 4.18506e-22)
(8.84753e-05 -0.000515111 2.32451e-21)
(4.11533e-06 0.000146642 0)
(0.000166294 0.000991104 -6.37127e-22)
(0.000317395 0.00188997 -9.56178e-23)
(0.000322255 0.00181335 -1.92935e-22)
(0.000941208 0.000238853 -9.47675e-23)
(0.000322276 0.00167516 6.16641e-23)
(0.000158913 0.00099835 -2.24516e-21)
(2.15511e-05 -1.71486e-05 -1.3703e-21)
(0.000114472 -8.56641e-05 8.65615e-22)
(0.00134708 0.000302757 -5.11053e-22)
(0.000326471 0.00167073 1.9455e-22)
(0.000346368 0.00201182 8.53487e-22)
(0.000324057 0.0018089 5.16637e-23)
(0.000973645 0.000117911 1.20345e-21)
(0.000661969 0.000816343 -1.77485e-21)
(2.96702e-05 2.05653e-06 7.54211e-22)
(0.000410381 0.00202012 1.22677e-21)
(0.000993941 -3.36517e-05 5.58199e-22)
(0.000329987 0.00177698 -5.52497e-23)
(0.000299726 0.00180679 5.32022e-23)
(0.000363831 0.0020615 -1.25051e-23)
(0.000200324 0.00182764 -1.41488e-24)
(3.28532e-05 9.94868e-07 1.51561e-21)
(2.38887e-05 -6.89907e-05 6.47823e-24)
(0.000303656 0.00165249 -3.75175e-22)
(0.00103069 0.000216002 0)
(0.00129803 0.000519431 5.4162e-22)
(9.96679e-06 -9.19905e-06 -2.58309e-22)
(0.000321488 0.000808835 -2.51352e-21)
(0.000967149 0.000123108 -2.3696e-21)
(0.000166304 0.00158843 5.6275e-21)
(0.000760749 0.00074909 1.2174e-21)
(0.000352 0.0020441 -4.92515e-22)
(0.000266507 0.00181269 -7.70408e-24)
(0.000303999 0.00179396 0)
(0.000353761 0.000870827 8.10878e-22)
(0.00101204 1.31917e-05 0)
(0.00098117 3.77264e-06 -4.19316e-22)
(0.000402493 0.000870277 1.99596e-21)
(8.63919e-05 1.70114e-05 0)
(0.000105149 0.000236752 -2.77332e-22)
(0.000450041 0.000733543 -1.90442e-21)
(0.000307394 0.00180303 -2.0661e-23)
(0.000310316 0.0018201 -8.33348e-24)
(0.00101304 -7.44657e-06 0)
(0.000751536 0.000453706 -1.05388e-21)
(0.000359425 0.00204106 4.86339e-22)
(2.24105e-05 0.00186028 -1.55952e-21)
(0.00110719 8.40925e-05 1.73726e-21)
(0.000301339 0.00181523 -2.08055e-21)
(8.82727e-08 8.69723e-05 0)
(0.000979077 5.08945e-05 8.25674e-22)
(0.000271506 0.000644241 -4.696e-22)
(0.000131505 3.51216e-05 -1.69152e-21)
(0.00104711 6.35487e-05 0)
(0.000385278 0.000942332 -2.14507e-21)
(0.000250352 0.000987118 1.32315e-21)
(0.000375464 0.000873296 9.0698e-22)
(0.000491342 0.00224452 0)
(0.000475884 0.00102246 0)
(4.26859e-05 -2.58927e-05 -2.72376e-22)
(0.000187773 0.001171 -3.76653e-23)
(0.000988636 -1.96871e-05 8.36681e-22)
(0.000302853 0.00179455 3.88222e-22)
(0.000613661 0.00169415 -9.51383e-22)
(0.000288292 0.000841436 8.44916e-22)
(0.000608871 0.000349982 2.82983e-21)
(1.56658e-05 -6.18714e-05 -1.63575e-21)
(0.00101461 -4.71921e-06 -5.0564e-22)
(5.38151e-05 0.000717373 0)
(0.000215619 0.000428214 -1.84882e-21)
(0.000618317 7.61464e-05 1.53018e-21)
(0.00031886 0.000907147 -3.03445e-21)
(0.000159057 0.000621297 -6.31557e-22)
(0.000364589 0.00206543 1.39634e-22)
(0.000567177 0.000656526 0)
(0.00108372 0.000656528 -1.368e-21)
(0.000129568 -9.42014e-05 -9.07848e-22)
(7.76721e-05 0.000869463 -3.42879e-22)
(0.000319494 0.00180797 0)
(0.000344231 0.00203858 0)
(0.000927667 0.00221328 -6.42525e-23)
(0.000993724 -4.09042e-05 0)
(2.28065e-05 -9.6261e-06 0)
(0.00013811 0.000388506 -7.5719e-22)
(0.000172638 2.46209e-05 -8.68331e-22)
(0.000267804 0.00168958 -2.4923e-24)
(0.000336639 0.000872325 1.62298e-21)
(0.000143025 3.99575e-05 8.36936e-22)
(0.000350673 0.00191057 -1.50816e-22)
(0.000342835 0.00213381 -1.50414e-22)
(0.000766759 8.84829e-05 2.9347e-22)
(0.000419829 -0.000113626 -1.89668e-22)
(0.000299042 0.000930251 7.03656e-22)
(3.3934e-05 3.51743e-06 -1.52561e-21)
(0.000435508 0.00201359 -2.99671e-22)
(0.000367398 0.000986464 4.05101e-22)
(0.000395508 0.000879282 -1.02323e-21)
(0.000327931 0.00179708 6.3914e-23)
(0.000375512 0.00189679 6.74009e-22)
(0.000519072 0.000904392 -3.7565e-21)
(0.000360116 0.00204707 -1.7921e-21)
(0.000115916 -2.36537e-05 0)
(0.000932002 0.000429346 1.14933e-21)
(0.000378667 0.000918531 1.77675e-21)
(0.000712609 0.000798422 1.82062e-21)
(0.000295106 0.00180773 1.49465e-21)
(0.000499116 0.000728463 4.8137e-22)
(0.000709941 0.000819006 1.20183e-21)
(0.00060071 0.000638064 9.15421e-22)
(0.000985298 -6.16936e-05 -9.56741e-23)
(9.96812e-05 0.000234734 1.56185e-22)
(9.10585e-05 -7.03666e-05 -1.61256e-21)
(3.38999e-05 3.73206e-06 1.48143e-21)
(0.000244655 0.00182143 5.93068e-22)
(0.000398125 0.0020442 -1.19873e-21)
(0.00104011 0.000847054 3.28624e-21)
(0.000413694 -0.000263385 -2.70439e-22)
(0.000234655 0.00169056 8.30361e-22)
(0.000306799 0.00180915 -5.22868e-22)
(0.000431818 0.000358345 -2.30082e-21)
(0.000339551 0.00177781 1.14785e-24)
(3.97988e-05 0.000626312 0)
(3.23126e-05 4.23005e-06 -1.1984e-21)
(0.00033686 0.00166886 1.16311e-21)
(0.000350814 0.00207309 -1.59073e-22)
(0.00049022 0.00225975 0)
(1.07197e-05 -3.72128e-05 2.58333e-23)
(0.000438935 0.000937324 6.97969e-22)
(0.000355721 0.00105021 1.2889e-21)
(0.000713046 0.000832104 0)
(0.000704986 0.000751366 1.79803e-21)
(2.2743e-05 -1.97196e-05 3.0581e-22)
(0.000917185 0.000381771 0)
(0.000672376 0.00080213 -1.67683e-21)
(0.000332893 0.00181417 0)
(3.87289e-05 9.79858e-06 -1.00965e-21)
(0.000567452 0.000871957 -2.57786e-21)
(0.000372764 -0.00069406 0)
(0.000344543 0.00190977 -4.91229e-22)
(9.81272e-06 0.00147677 -1.3358e-21)
(0.000317678 0.00166946 -6.71946e-22)
(4.82064e-05 -0.00029028 1.29011e-21)
(0.000420423 0.000842363 1.73855e-25)
(3.1847e-05 6.70797e-06 0)
(0.000677212 0.000855144 -2.61218e-21)
(0.000998047 3.99814e-06 9.23597e-22)
(0.000603779 0.000475609 -1.29831e-21)
(0.000301377 0.00178582 5.1209e-23)
(0.000626282 0.000444378 2.34146e-21)
(0.000580276 0.000112438 5.73532e-22)
(0.000156087 0.000420132 -2.53713e-21)
(0.000304847 0.00183467 4.92755e-22)
(0.00102283 0.000247586 -1.7251e-21)
(3.77619e-05 7.12727e-06 1.73279e-21)
(0.000700814 0.000862638 0)
(0.00039258 0.000939508 1.01777e-21)
(0.000719909 0.000597683 -9.2749e-22)
(2.60366e-05 -9.52011e-06 0)
(0.000269062 0.00181133 -1.42733e-21)
(7.13181e-05 -8.3282e-06 5.33119e-22)
(0.000286093 0.00167513 -1.9775e-25)
(2.60466e-05 1.00061e-05 1.59382e-21)
(0.000767213 -0.000116383 1.31832e-21)
(0.000378247 0.00190404 -1.87426e-21)
(0.000302616 0.00179338 3.1446e-22)
(0.000304337 0.00179579 -1.81675e-22)
(0.000982668 2.04051e-05 -3.3527e-21)
(0.000373252 0.00205685 8.71038e-22)
(0.000283149 0.000750139 -1.22297e-21)
(0.00060962 0.00218362 5.48465e-22)
(0.000408793 0.000650571 2.17098e-21)
(0.000820642 0.00066773 -1.17853e-21)
(0.000556415 0.000344984 -1.14946e-21)
(0.00029996 0.00180583 -1.17302e-22)
(0.000267325 0.000754565 3.18584e-21)
(0.00015731 3.31668e-05 -2.62376e-23)
(0.000313371 0.00177345 4.58778e-22)
(1.84123e-05 0.00053684 4.77853e-23)
(0.00037982 0.00159482 4.4584e-21)
(0.00118864 0.000121546 -2.72757e-21)
(0.000941637 0.00207475 -4.82237e-22)
(0.000109584 0.00179387 7.13072e-22)
(0.00141194 6.77818e-05 0)
(3.82055e-05 6.24967e-06 2.336e-21)
(9.33804e-06 -2.78181e-05 -6.13194e-22)
(8.69359e-05 0.000667079 -7.35757e-22)
(0.000232699 0.000621948 1.13805e-21)
(0.000552774 0.000374417 -1.83023e-21)
(0.000288984 0.00181757 8.58767e-24)
(0.000363442 0.00205073 0)
(0.000691523 0.000817351 -1.79885e-24)
(0.000551473 0.00068281 -5.16132e-22)
(0.000365843 0.00204229 5.21047e-22)
(3.42448e-05 0.000641742 1.18968e-21)
(9.23773e-06 -2.38361e-05 4.03243e-22)
(0.000572151 0.00030575 2.81263e-21)
(0.000340487 0.0020212 0)
(0.000681105 0.000673187 1.36244e-21)
(0.000135307 0.000762133 -2.3696e-21)
(0.00036228 0.00215579 9.55616e-22)
(0.000354106 0.000524529 9.31256e-22)
(2.35095e-05 -2.55857e-05 -3.07482e-22)
(5.59226e-05 3.97978e-05 4.16518e-22)
(0.000555615 0.000637812 -1.80596e-21)
(5.99836e-05 0.000966785 -2.25585e-21)
(0.000771707 7.65833e-05 -1.75849e-22)
(0.000262669 0.000591378 -1.94885e-21)
(0.000359497 -0.000262431 0)
(0.00034265 0.0019389 -6.63886e-22)
(0.000780934 7.17216e-05 3.12193e-23)
(0.000374789 0.0018013 1.61135e-22)