/*--------------------------------*- C++ -*----------------------------------*\
  =========                 |
  \\      /  F ield         | OpenFOAM: The Open Source CFD Toolbox
   \\    /   O peration     | Website:  https://openfoam.org
    \\  /    A nd           | Version:  8
     \\/     M anipulation  |
\*---------------------------------------------------------------------------*/
FoamFile
{
    version     2.0;
    format      ascii;
    class       volVectorField;
    location    "7";
    object      U;
}
// * * * * * * * * * * * * * * * * * * * * * * * * * * * * * * * * * * * * * //

dimensions      [0 1 -1 0 0 0 0];

internalField   nonuniform List<vector> 
5119
(
(0.000899505 0.00141237 9.639e-23)
(0.00020547 6.67133e-05 4.33359e-21)
(0.000837368 1.43451e-05 -2.52695e-21)
(0.00060023 0.00080291 -8.77801e-25)
(0.000779346 0.00125716 1.92789e-22)
(0.000871292 7.3191e-05 1.30018e-21)
(0.000270003 0.000203315 -1.32368e-21)
(3.28496e-05 -4.31611e-06 -6.43933e-23)
(0.000220958 0.00108271 -1.1072e-21)
(0.000960646 0.00148253 7.81914e-23)
(0.000633177 0.000803309 1.25535e-24)
(0.000727886 0.00112606 -3.24756e-22)
(0.000720361 0.00116095 -2.23313e-22)
(0.000707779 0.000489712 1.00903e-21)
(0.000818645 0.0013081 -7.4226e-23)
(0.000660843 0.00113463 0)
(0.00080623 0.00140129 2.88582e-22)
(0.00081415 0.00128586 -1.02186e-22)
(0.000922393 0.00146836 2.86089e-22)
(0.00075491 0.00119946 6.40337e-23)
(0.000732146 0.00120856 2.83512e-22)
(0.000665177 0.00106708 7.5609e-22)
(0.000672868 0.001082 -1.57301e-22)
(0.000811778 0.00125279 1.11906e-22)
(0.00071675 0.00114736 0)
(0.000941385 0.00147969 6.58568e-22)
(0.000700985 0.00109237 0)
(0.000720853 0.00111539 8.58303e-23)
(0.000737752 0.00114101 3.28643e-22)
(0.000663479 0.00104347 8.92698e-23)
(0.00075218 0.00116442 -2.98068e-22)
(0.000741027 0.00114792 -8.34976e-24)
(0.00068354 0.00108348 5.54782e-22)
(0.000802521 0.00126735 0)
(0.000961851 0.00147965 -9.52915e-23)
(0.000704781 0.00110798 2.83749e-22)
(0.000678115 0.00106453 2.77713e-22)
(0.000689504 0.00108317 3.73712e-23)
(0.000663876 0.00112287 -5.49487e-25)
(0.000673618 0.00106079 9.15285e-22)
(0.000593842 0.00015909 -1.26773e-24)
(0.00087378 0.00147303 -4.05121e-22)
(0.000732627 0.00126547 2.20521e-22)
(0.000664079 0.00114618 0)
(0.00065444 0.00111905 -2.35487e-22)
(0.000609429 0.000150043 -2.00932e-21)
(0.000776825 0.00132713 -7.38897e-22)
(0.000670747 0.00114326 0)
(0.000745549 0.00126183 7.74477e-24)
(0.000728509 0.00126229 -2.04796e-22)
(0.00059817 0.000403224 -1.56854e-21)
(9.68696e-05 0.000629126 -1.04702e-21)
(0.000938358 3.84636e-05 -5.35126e-22)
(0.00063939 7.38929e-05 2.16934e-21)
(1.4926e-05 0.00042712 -3.10393e-21)
(0.000673773 0.00111104 8.52844e-22)
(0.000688659 0.000757691 1.4213e-24)
(3.62151e-05 -1.59155e-06 9.05695e-22)
(0.000724234 0.00122829 0)
(0.000861676 0.00144468 0)
(0.000620619 0.00114938 -1.45867e-21)
(0.000661607 0.00111603 2.25383e-21)
(0.00068985 0.0011436 0)
(0.000788461 0.00132691 1.20759e-21)
(0.000482557 0.00010683 1.17813e-21)
(0.000778009 0.00133213 8.46265e-22)
(0.000753304 0.000366274 2.24748e-24)
(0.000885855 0.000577699 1.03895e-21)
(0.000771308 0.00129399 0)
(0.000694693 0.000508581 -3.06666e-22)
(0.000198456 0.000355515 -1.42596e-24)
(0.000175672 -2.36296e-05 -4.68989e-21)
(0.000895378 0.000319357 1.40657e-21)
(0.000665378 0.00114616 4.04282e-22)
(0.000709262 0.00112525 -1.39044e-21)
(0.000886949 0.00138601 0)
(0.000317041 9.68664e-05 9.65941e-22)
(0.000607804 0.000207226 5.93033e-22)
(0.000580685 0.00108419 0)
(0.000524548 0.000969275 -7.69845e-22)
(2.34833e-05 0.000699232 0)
(0.000951581 0.000525945 0)
(0.000935831 0.00151839 0)
(0.000670372 0.0013548 1.64834e-23)
(0.000616757 9.84173e-05 0)
(0.000670586 0.00121028 1.38882e-22)
(0.000768655 -4.29657e-05 2.27678e-21)
(0.000712811 0.00121471 1.92904e-21)
(0.000549907 0.00112835 3.63536e-23)
(0.000573391 0.00117315 0)
(0.000559935 0.00114751 0)
(0.000538733 0.00110703 0)
(3.51595e-05 -1.16099e-06 -1.46394e-21)
(0.00042009 0.00077031 -1.43545e-21)
(0.000459731 0.000814631 0)
(0.000455486 0.000675757 2.42074e-21)
(0.000879212 -7.67948e-06 0)
(0.000685455 0.00118974 1.59215e-21)
(0.000678751 0.00078031 1.44808e-21)
(0.000684534 0.00118626 -1.35431e-22)
(0.00075069 0.00137708 6.35983e-22)
(0.000640526 0.00113951 0)
(0.00149473 0.000966439 -2.36991e-21)
(0.000788084 0.00160091 -4.25093e-22)
(0.000314574 0.000117115 2.09467e-21)
(3.69979e-05 5.23805e-06 1.07838e-21)
(0.000689284 0.00127339 -1.98269e-21)
(0.000572155 0.00031064 4.52089e-22)
(0.000838545 0.000588561 1.31199e-22)
(0.00065898 2.9785e-05 0)
(0.000411408 0.0012633 -2.55607e-21)
(3.62455e-05 2.09507e-06 -2.10174e-26)
(0.000240944 -3.28385e-05 8.37607e-22)
(0.000773136 0.00127009 -2.05461e-22)
(0.000299977 0.000164158 4.27561e-21)
(0.000466345 0.000634467 -2.28989e-22)
(0.000506741 0.000790375 -1.81991e-21)
(3.90449e-05 4.34747e-06 -2.02366e-21)
(0.000497866 0.000566279 -3.96752e-21)
(0.000784163 0.00130216 1.03113e-22)
(0.000778856 0.000359306 0)
(0.000815801 0.00135571 -6.63829e-22)
(0.000165883 0.000849559 -4.52585e-22)
(0.000685582 0.00120972 1.26996e-21)
(0.000840328 0.00145078 -1.67498e-21)
(0.000919221 0.00156539 4.35708e-22)
(0.000710615 0.00127897 -3.45746e-24)
(0.000866545 0.00154756 -2.42166e-22)
(0.000803672 0.00132299 4.4637e-22)
(0.000675136 0.00115753 -3.29084e-22)
(0.000696001 0.00122074 -1.34396e-21)
(0.000675457 0.00114544 -2.19726e-22)
(0.000843337 0.00138927 -4.41214e-22)
(0.000749479 0.00125629 -4.20141e-22)
(0.000795929 1.54544e-05 -1.50081e-21)
(0.000574578 0.000332895 3.57575e-25)
(0.000645252 0.00129504 0)
(0.000723756 0.00122027 0)
(0.000233947 0.000323365 1.27277e-21)
(0.000795296 0.00132164 0)
(0.00066228 0.00115256 -1.02995e-21)
(0.000647533 0.00112595 3.45408e-22)
(0.000632043 0.00111354 2.66538e-22)
(0.000667764 0.00108874 1.1521e-22)
(0.000719338 0.00121072 3.66121e-22)
(0.000706403 0.00118074 1.45874e-22)
(0.000697458 0.00116767 -9.49183e-23)
(0.000724084 0.00121784 0)
(0.000707717 0.00119035 -9.62939e-23)
(0.000855555 0.000907369 -3.42624e-22)
(0.000628979 0.00124001 0)
(0.000889126 0.000188616 0)
(0.00064267 0.00115691 0)
(0.00043766 0.00075832 2.34411e-21)
(0.00033272 0.000618402 2.15649e-21)
(0.000866265 0.00144701 3.36297e-23)
(0.000396177 0.000633721 2.90313e-21)
(0.000955174 8.95355e-05 0)
(0.000278282 0.000267278 1.03452e-21)
(0.000177526 0.000705634 2.13445e-22)
(0.000737118 0.00144586 -1.00354e-21)
(5.65626e-06 1.72876e-06 0)
(0.000145004 0.000268319 -2.2637e-21)
(0.000762156 0.00135596 -9.61459e-22)
(3.74941e-05 4.14927e-06 5.03283e-22)
(0.000989275 0.000245503 2.37885e-21)
(3.40418e-05 0.000188528 -6.20683e-21)
(0.000149817 -1.6653e-05 -1.48705e-21)
(4.09559e-05 -8.01421e-07 1.78191e-21)
(0.000128032 0.000567892 0)
(0.000264796 0.000354814 1.67005e-22)
(0.000851724 0.00151232 4.44356e-22)
(0.000473234 0.000550032 2.26571e-21)
(0.000475693 0.000464102 -2.26667e-22)
(0.000396572 0.000603329 2.33282e-21)
(0.000532171 0.000473691 -2.1997e-21)
(0.000149192 0.000315656 -1.70535e-24)
(0.000651896 0.0011693 1.12146e-22)
(3.60508e-05 8.50932e-06 -1.69735e-21)
(0.000790858 0.00142243 2.35654e-22)
(0.000790351 0.000336444 -3.08074e-21)
(0.000731781 0.000377686 0)
(0.000701278 0.00118608 0)
(0.000562644 0.000972969 -1.40048e-21)
(0.000256307 7.33175e-05 -2.75346e-21)
(0.000459203 0.000702719 -3.84019e-22)
(0.000460569 0.00010798 1.12953e-21)
(0.000317679 0.000303026 -1.08489e-21)
(0.000575968 0.00037494 -1.71281e-21)
(0.000261456 0.000180458 -1.10809e-21)
(0.000149407 0.000702836 0)
(0.000563075 0.00121829 -4.49236e-22)
(0.000741735 0.00125837 1.00646e-21)
(0.000527569 0.000553006 2.01491e-21)
(2.49041e-05 -4.79387e-06 0)
(0.000331459 0.000750295 0)
(0.000691299 1.50888e-05 -1.41911e-21)
(0.000703361 0.000393246 5.22709e-21)
(0.000418153 0.000879464 1.06734e-21)
(0.000936435 0.000192214 1.94552e-22)
(0.000136663 -1.3192e-05 -3.94403e-21)
(0.000589347 0.00108176 0)
(4.13651e-05 1.5351e-06 -1.81078e-22)
(0.000741063 0.00131191 -2.73775e-22)
(0.000655661 0.00119988 0)
(0.000683579 0.00122685 2.49647e-22)
(0.000644778 0.00110092 1.15874e-21)
(0.000520005 0.00117788 -3.28682e-21)
(0.000310249 0.000407512 8.00256e-22)
(0.000789838 0.000559639 -4.40882e-21)
(0.000161649 0.000253476 2.25976e-21)
(0.000446923 0.000649661 4.6463e-23)
(0.000919869 0.000312739 -1.49129e-24)
(0.000499509 0.000722378 -1.44666e-21)
(0.000600431 0.000300657 4.19518e-22)
(0.000328906 0.00041018 -1.02795e-21)
(0.000247622 0.000317946 8.54202e-26)
(0.000396926 0.000570746 -1.21811e-21)
(0.000358303 0.000618724 -1.8739e-24)
(0.000342025 0.00029566 7.52155e-22)
(0.000721787 0.00152106 1.01208e-21)
(0.000425338 0.000645982 0)
(3.17273e-05 7.53276e-06 0)
(0.000655821 0.00122181 -7.60098e-22)
(0.000449101 0.000634372 -1.14458e-22)
(0.000553588 0.000802973 0)
(0.000246467 9.73746e-05 -3.25172e-25)
(0.000673597 0.000189471 0)
(0.00080028 0.00140759 0)
(0.000669888 0.0012013 2.0745e-22)
(3.08548e-05 1.80835e-05 -4.0035e-21)
(0.000783733 0.00133434 -5.06053e-22)
(0.000623225 0.00112123 7.37844e-22)
(0.00077312 0.00139165 1.60953e-21)
(0.00070696 0.00119807 0)
(0.000279374 0.000377384 9.03027e-23)
(0.000718447 0.00120315 1.61737e-21)
(0.000624152 0.0010841 0)
(5.49139e-05 0.000400168 3.41106e-22)
(0.000430761 0.00103628 -2.17892e-22)
(0.000445332 0.000572328 -2.5251e-21)
(0.000125202 0.000257423 5.1602e-25)
(0.000441646 0.000724613 4.45504e-23)
(0.00130449 0.00140079 0)
(0.000764868 0.00139783 -1.12482e-21)
(0.000862132 0.00158859 -2.43956e-22)
(0.000751658 0.00131129 -3.74497e-22)
(0.000308443 0.00037325 1.48438e-21)
(0.000640134 0.00107591 3.54541e-22)
(0.000597821 0.00109033 1.50991e-22)
(0.000675554 0.0011498 0)
(0.000878999 0.00149894 0)
(0.000681586 0.00117302 0)
(0.000687512 0.00125029 2.87646e-22)
(0.000623873 0.0011076 -4.01338e-22)
(0.000646656 0.00111911 -1.04348e-21)
(0.000638102 0.00113264 0)
(0.000594448 0.00109267 -1.97436e-22)
(0.000826478 0.00146972 4.19144e-22)
(0.000812792 0.000476328 -7.75679e-22)
(0.000297919 0.000285088 0)
(6.70292e-05 -0.000174919 -7.20172e-22)
(0.00118153 0.000948947 0)
(0.000702876 0.00124142 4.28348e-22)
(0.000647217 0.00114375 4.1521e-22)
(0.000667795 0.00116621 2.24415e-22)
(0.000736991 0.00126458 -5.56964e-22)
(0.000663691 0.00117413 0)
(0.000195695 0.00032728 1.71341e-22)
(0.000881713 0.00159851 -5.45279e-22)
(0.000561979 0.000357215 4.69613e-22)
(1.41975e-05 -7.74259e-06 0)
(0.000871941 0.00148938 4.03303e-22)
(0.000764222 0.00135807 1.91533e-21)
(0.000750029 0.00123507 6.90605e-23)
(0.000915472 1.49492e-05 3.02364e-21)
(0.0015923 0.00116237 1.94396e-21)
(0.000678585 0.0011006 0)
(0.000609181 0.00101288 4.06024e-23)
(0.000756241 0.00124515 1.08416e-21)
(0.000618255 0.000973912 1.13065e-21)
(0.000542947 0.000935461 -3.97751e-22)
(0.000531026 0.000915485 -5.24825e-22)
(0.000573111 0.000952351 3.82484e-22)
(0.000523612 0.000904402 0)
(0.000615504 0.00104819 -6.47008e-22)
(0.000707833 0.00120087 2.82389e-22)
(0.000585504 0.000974146 0)
(0.000717647 0.00120422 1.72966e-22)
(0.000590887 0.00100417 4.10399e-23)
(0.000647005 0.000991187 -1.08584e-21)
(0.000531077 0.000929025 -3.35672e-22)
(0.000577108 0.000882875 4.76131e-22)
(0.000162246 0.000236667 5.00276e-21)
(0.000689995 0.00118522 1.20387e-22)
(0.000759461 0.00129474 -1.24084e-21)
(0.000706788 0.00119366 0)
(0.000486713 0.000486195 2.09889e-22)
(2.08977e-05 0.000107946 1.33713e-21)
(0.000654191 0.00113629 0)
(0.00140784 0.000273216 0)
(0.000654145 0.00103684 4.77239e-22)
(0.000290446 0.000601081 0)
(0.00090232 0.000132541 2.60429e-21)
(0.000453984 0.00054102 0)
(0.000983065 0.000238276 0)
(0.00093742 7.47079e-05 0)
(0.000577166 0.00103342 1.05394e-22)
(0.000451791 0.000657567 2.69419e-22)
(0.000765384 0.00121724 -3.97134e-25)
(0.000627058 0.00102363 -1.40069e-22)
(0.000644996 0.00111185 0)
(0.000663965 0.00111437 7.12687e-22)
(0.000708415 0.00114125 -2.95519e-22)
(0.000730576 0.00124762 0)
(0.000777116 0.0012744 3.79539e-22)
(0.000262227 7.11032e-05 5.73329e-21)
(0.000850458 -0.00011873 1.83464e-21)
(0.000800956 0.00144329 -3.51886e-22)
(0.000830841 0.00139881 -7.03174e-22)
(0.000675307 0.000813059 1.46625e-22)
(0.000631846 0.00112665 3.20213e-24)
(0.000632971 0.00106228 -6.4447e-22)
(0.000906898 0.000141877 0)
(0.000427068 0.000764226 -1.22016e-21)
(0.000619684 0.0012319 -3.24177e-22)
(0.00075657 0.000695867 -2.64927e-21)
(0.000769708 0.0013788 -5.18098e-22)
(0.000773524 0.00130131 -2.73303e-24)
(3.815e-05 0.00057732 -2.40446e-21)
(0.000714155 0.00115499 7.43843e-22)
(0.000943972 0.00159163 -9.08998e-22)
(0.000576629 0.0012316 1.5183e-22)
(0.000267497 0.000336684 1.01487e-21)
(0.00086689 5.20906e-05 0)
(0.000730499 0.00114311 1.48412e-22)
(0.000530651 0.000946971 -3.51221e-22)
(0.000648492 0.00116636 1.27434e-21)
(0.000684081 0.00111775 -1.81149e-22)
(0.00073076 0.00122205 -1.69044e-22)
(0.000568945 0.00101794 1.12578e-21)
(0.000602879 0.000995288 2.76224e-22)
(0.000661069 0.000808445 4.0013e-23)
(0.000729136 0.00130343 -3.48209e-22)
(0.000565233 0.00100135 -9.74732e-22)
(0.00054086 0.000901928 -1.171e-22)
(0.000651268 0.00105367 -4.42611e-22)
(0.000534579 0.000910563 0)
(0.000311362 0.000563639 1.34465e-21)
(0.000306381 0.000631614 0)
(0.000682069 0.00117682 -4.10485e-22)
(0.000658988 0.00106744 -1.11339e-21)
(0.00072257 0.00119092 3.55998e-22)
(0.000823598 0.00132255 -9.31847e-22)
(0.000715878 0.00114341 -6.60196e-22)
(0.000667693 0.00109107 -2.12986e-21)
(0.000718577 0.00119338 0)
(0.000700769 0.00119355 0)
(0.000713567 0.00115384 -2.66096e-22)
(0.00087597 0.00135898 1.19154e-21)
(0.000839402 0.00141554 4.10848e-22)
(0.000644811 0.00109426 -1.71614e-23)
(0.000650382 0.00110481 0)
(0.000665431 0.0010495 6.46814e-22)
(0.000654413 0.00106131 -2.08878e-22)
(0.000665586 0.00113058 -2.86291e-23)
(0.00084046 0.00138695 0)
(0.000654934 0.00106241 3.09946e-22)
(0.000659323 0.00110426 -8.06609e-22)
(0.000674207 0.00113038 4.73279e-22)
(0.000659011 0.00108854 0)
(0.00082821 0.00138465 -2.78896e-22)
(0.00087326 0.00146211 1.16942e-21)
(0.000878231 0.00147214 1.10862e-21)
(0.000522752 0.000693234 -1.29495e-24)
(0.000812497 0.000605764 2.20181e-21)
(0.000617929 0.000426986 1.5805e-21)
(0.000520142 0.000537376 -1.23556e-21)
(0.000774794 0.0014023 2.4325e-22)
(0.000797436 4.39165e-05 1.30141e-21)
(0.000183328 0.000681932 0)
(0.000296064 0.000259774 -1.35634e-21)
(0.000664791 0.00112004 -3.3875e-22)
(0.000668083 0.00118535 2.06824e-22)
(0.000682239 0.00116424 0)
(0.000710115 0.00135378 1.09558e-21)
(1.98662e-05 -1.26458e-06 -3.40808e-26)
(0.000577658 0.000959839 2.38488e-22)
(0.000635745 0.001046 2.02382e-22)
(0.000546584 0.000944382 7.14616e-22)
(0.00100667 0.000215544 -2.71148e-21)
(0.000873298 0.00019099 -1.84269e-21)
(0.000692232 0.00141346 -8.30906e-22)
(0.000581869 0.000280617 -4.09768e-22)
(0.000531005 0.0009233 0)
(0.000514105 0.000911417 3.48877e-22)
(0.000525897 0.00086618 6.12128e-23)
(0.000563836 0.000951032 -2.47769e-22)
(0.000553086 0.000928843 -1.23674e-22)
(0.000755765 0.000390686 -2.05963e-21)
(0.000687883 0.00122786 3.4386e-22)
(0.000351814 0.000280524 4.03321e-22)
(1.9344e-05 -6.8239e-06 -2.89608e-25)
(0.000621425 0.00128822 5.14806e-22)
(0.0007909 0.00134154 -1.36985e-21)
(0.00108851 0.000571294 1.49993e-25)
(0.000131081 0.000811461 0)
(3.80425e-05 8.63608e-06 9.39033e-22)
(0.00011147 0.000545856 0)
(0.000546704 0.000903007 -8.86413e-22)
(0.000649157 0.00121652 0)
(0.000828115 0.0013964 0)
(0.00073154 0.00126774 5.97973e-22)
(0.000577016 0.000968904 0)
(0.000555385 0.00093085 -5.61626e-23)
(0.0005638 0.000947104 1.10558e-22)
(0.000277426 0.000833076 -2.04831e-21)
(0.000668768 0.00117162 -1.07085e-21)
(0.000790579 0.00127602 0)
(0.000757618 0.000286726 3.04051e-21)
(0.000567078 0.000285865 3.49685e-21)
(0.00063105 0.00113109 0)
(0.000459817 0.00056751 2.44983e-21)
(0.00057861 0.000350238 1.12719e-21)
(0.000287718 0.000353927 -3.49507e-22)
(0.000514475 0.000644504 2.92181e-22)
(0.000867816 0.000289315 2.36959e-21)
(0.000640091 0.00117675 4.40183e-22)
(0.00067937 0.0012901 0)
(0.000859131 7.5479e-05 1.00995e-21)
(0.000557069 0.00107324 3.05279e-22)
(0.000717535 0.00113118 2.15308e-22)
(0.000843081 0.00134344 -2.03525e-23)
(0.000972639 0.000192489 -3.11258e-21)
(0.000306676 0.000537007 0)
(0.00067144 0.000416851 0)
(0.000568824 0.00119097 -8.68689e-22)
(0.00063555 0.00124741 -1.60572e-21)
(0.00088681 0.000136116 2.62259e-21)
(0.000370827 0.000319048 1.61972e-21)
(8.42885e-05 0.000743729 1.7562e-22)
(0.00090817 0.000331693 0)
(0.000342282 0.000760918 6.52017e-22)
(0.00059507 0.00111834 0)
(0.000618934 0.00115979 5.58805e-23)
(0.000633876 0.00118644 0)
(0.000607812 0.00113997 0)
(0.000322119 0.000278869 4.10783e-25)
(0.000799599 0.00101993 2.22064e-22)
(0.000799741 0.00137356 1.77799e-22)
(0.00134163 0.000772899 -1.17075e-21)
(3.57319e-05 5.62571e-05 0)
(0.000920101 0.00151627 -7.74231e-22)
(0.00064602 0.0011161 0)
(0.000822553 0.00143752 0)
(0.000830689 0.00141451 -4.86689e-22)
(0.000633031 0.00110956 -1.41134e-23)
(0.000636808 0.0010896 2.17263e-22)
(0.000641214 0.00111022 1.63335e-22)
(0.000656161 0.00113556 -6.55138e-22)
(0.000651741 0.00109892 -1.07544e-21)
(0.000836629 0.00146751 -4.01394e-22)
(0.000671096 0.00120858 -7.58918e-24)
(0.00070931 0.0011432 0)
(0.000326167 0.000392183 -3.7334e-22)
(0.000505759 -0.000142802 1.80507e-21)
(0.000808316 0.00139489 -1.01207e-21)
(0.000703909 0.00125561 -1.30235e-22)
(0.000697826 0.00119747 -3.12802e-22)
(0.000620939 0.00105118 3.70319e-22)
(0.000711362 0.00119615 6.72855e-22)
(0.00076562 0.00127546 3.40292e-22)
(0.00068209 0.00114516 9.33852e-22)
(0.000660314 0.0010808 9.1984e-22)
(0.000690948 0.00117495 0)
(0.000707558 0.00117366 -7.7196e-22)
(0.000673063 0.00112961 0)
(0.00082519 0.00134608 -5.2546e-22)
(0.000840517 0.00141289 3.70718e-22)
(0.00065297 0.00111242 1.57368e-22)
(0.000644912 0.00110666 -3.55451e-22)
(0.000667804 0.00113867 -8.37788e-22)
(0.000630399 0.00104275 5.53731e-22)
(0.000649883 0.00105466 -8.60243e-22)
(0.000824424 0.00138557 -9.47173e-22)
(0.000625069 0.00105582 -1.68816e-23)
(0.000652197 0.00112553 -7.28415e-22)
(0.000637293 0.00109932 -2.83665e-22)
(0.000634917 0.00107873 -4.16324e-22)
(0.000794673 0.00137924 0)
(0.000873028 0.00148904 0)
(0.000859775 0.00144764 0)
(0.000200433 4.22366e-05 -2.62521e-26)
(0.0011074 0.000630315 8.72889e-24)
(0.000465938 5.06438e-05 -5.91932e-22)
(0.000768557 0.00136347 -4.0943e-22)
(0.0005233 0.00112427 -1.28998e-23)
(0.000337192 0.000144736 3.61521e-21)
(0.000903547 8.40532e-05 0)
(0.000470103 0.00044631 8.26537e-25)
(0.00118855 0.000366566 2.25559e-21)
(0.000640619 0.000180673 1.31658e-21)
(0.000658211 0.00129127 2.10411e-21)
(7.65646e-05 0.00075974 -2.28721e-21)
(0.000875401 0.000275276 -2.78128e-21)
(0.000741765 0.00137507 0)
(1.23076e-05 0.000545647 0)
(0.000696494 0.00123222 9.4636e-22)
(0.000294365 0.00120801 -1.24767e-21)
(0.000422585 0.000736075 -1.3934e-22)
(0.000406934 0.000739525 -1.30998e-22)
(0.000527313 0.000977156 -4.20443e-23)
(0.000471554 0.000763369 -3.73908e-22)
(0.000700599 0.00125203 0)
(0.000627139 0.00112207 2.7028e-22)
(0.000770076 0.0012922 3.68508e-22)
(0.000321401 0.000655286 1.96916e-21)
(0.000456663 0.000490265 0)
(0.000185778 0.000241474 2.09569e-21)
(0.000426546 0.000580112 4.38645e-21)
(0.000933492 0.00157261 4.02358e-22)
(0.000588573 0.000924315 3.05746e-22)
(2.56747e-05 2.28642e-05 7.97738e-22)
(0.000554951 0.0012334 1.35902e-21)
(0.000142214 0.000719792 1.50695e-21)
(0.000859296 0.00155032 -3.26446e-22)
(0.000834331 0.00145312 2.02967e-22)
(0.000767539 0.00127685 7.65003e-24)
(0.000857387 0.000160261 6.16004e-22)
(0.00061544 0.00109439 1.5296e-21)
(0.000680426 0.00128822 -1.09556e-21)
(0.000656201 0.00114538 -1.01705e-22)
(0.000606747 0.00112724 0)
(0.000515524 0.000930904 0)
(0.000600514 0.00108433 2.30713e-22)
(0.000183983 0.000228578 -4.89926e-21)
(0.000858665 6.77442e-07 -3.09997e-21)
(0.000529856 0.00124712 3.2233e-22)
(0.000697854 0.00073914 -1.38543e-21)
(0.000616342 0.00105565 -1.59867e-22)
(0.00049295 0.000944712 -1.28781e-21)
(0.000611157 0.00107899 -4.10307e-22)
(0.000911312 0.00140391 4.33347e-22)
(0.000840736 0.00149438 3.48043e-22)
(0.000876908 0.00148782 0)
(0.000689117 0.00115544 1.1921e-21)
(0.000658886 0.00112045 -1.65537e-21)
(0.0011502 0.000388859 1.73711e-21)
(0.00067383 0.000792557 -1.2522e-21)
(0.000740536 0.0013314 9.95182e-23)
(0.000862597 0.000541003 4.78503e-24)
(0.000688592 0.00124523 0)
(0.000619981 0.000224729 0)
(6.17467e-05 -0.000132768 -1.28116e-22)
(0.000880982 4.57652e-05 0)
(0.000553602 0.00101914 -1.3729e-21)
(0.000727125 0.00130831 -3.25823e-23)
(0.000550032 0.00104338 0)
(0.000474072 0.000716023 5.52383e-22)
(0.000699479 0.00112267 0)
(0.000437548 0.000817803 0)
(7.87892e-05 4.27267e-05 0)
(0.000509124 0.000773646 1.38035e-21)
(0.000755674 0.00144073 4.25503e-24)
(0.000888508 -4.04299e-06 -3.08148e-21)
(3.52085e-05 8.56878e-06 -1.9178e-21)
(0.00077086 0.000482914 2.38398e-21)
(0.000744317 0.00138845 -5.89266e-23)
(0.000272467 0.000312366 -1.36372e-21)
(0.00150733 0.000191982 -1.75756e-21)
(5.45691e-05 0.000855277 -7.18524e-22)
(0.00070771 0.00123164 0)
(0.00087681 0.00021111 0)
(0.000875362 0.000106603 -2.52877e-21)
(0.000898995 0.000342047 -1.53232e-21)
(0.000636461 0.00116976 -4.15093e-22)
(0.000338634 0.000743879 -7.80416e-22)
(0.000631563 0.000254617 0)
(0.000869754 0.000192311 0)
(1.91804e-05 -1.10983e-05 -2.07231e-21)
(0.000484835 0.00120054 -6.28325e-23)
(0.000443989 0.00116541 3.36773e-23)
(0.000634643 0.00153226 0)
(0.00117312 0.00110312 1.48966e-21)
(0.000756461 0.000554582 -4.14693e-24)
(0.000484165 0.00053848 -1.07234e-21)
(0.000978808 7.13763e-05 -1.24322e-24)
(0.000808262 -1.54042e-05 -1.48665e-21)
(0.000628759 0.00107901 -5.21686e-24)
(0.000755176 0.00125721 2.46328e-22)
(5.55369e-05 4.61776e-05 3.31711e-26)
(0.000521706 8.24699e-05 -8.83622e-22)
(2.57479e-06 2.88529e-05 -2.25375e-22)
(0.000588904 0.00106108 -2.5249e-22)
(0.000746834 0.000514933 1.88368e-21)
(0.000250079 0.000339614 -1.33031e-21)
(0.000896251 0.00155326 2.01231e-21)
(0.000684677 0.00116168 -3.67519e-22)
(0.000684056 0.00119006 -3.48915e-22)
(0.000669427 0.0011642 -4.96987e-22)
(0.000660015 0.00113899 -6.16182e-22)
(0.0008864 0.00148555 1.18045e-22)
(0.000690746 0.00118306 0)
(0.000839636 0.00142684 -5.33186e-22)
(0.000661652 0.00111815 1.36134e-22)
(0.000452039 0.000850062 0)
(0.000853769 7.68401e-05 3.40758e-21)
(0.000158765 0.00089133 -1.42631e-21)
(0.000170712 0.000209837 3.40554e-21)
(3.22281e-05 -9.72246e-05 2.14662e-21)
(0.000722351 0.00132265 -7.10606e-22)
(0.000848615 0.000206522 0)
(0.000970574 0.000555801 -3.04842e-22)
(0.000599179 0.00102735 1.34174e-21)
(0.000624823 0.00139423 3.71811e-22)
(0.000832966 0.000160549 3.51677e-25)
(0.000518691 0.000481867 1.35575e-21)
(3.00787e-05 5.0828e-05 0)
(0.000598382 0.00111538 0)
(0.000258172 0.000248881 -2.80733e-21)
(0.000619818 0.000286313 3.71209e-25)
(0.000292495 0.000331552 3.45024e-22)
(0.000512401 0.000747598 -3.95138e-22)
(0.000468007 0.000158959 1.09871e-21)
(0.000653951 0.00122332 0)
(0.000742813 0.00136633 -2.935e-22)
(0.00141374 0.000754269 0)
(2.29759e-05 5.7057e-05 -7.16109e-21)
(0.000595185 0.000330964 -3.11162e-21)
(0.0006433 0.000311265 4.05938e-22)
(0.000833308 0.000212803 -1.29039e-21)
(4.39691e-05 0.00049081 2.97858e-21)
(0.000431944 0.00102531 3.02197e-22)
(0.000730358 0.00121416 7.88631e-24)
(0.000693988 0.00121843 -2.444e-22)
(0.00100615 0.000379627 5.52619e-21)
(0.000506396 0.00121179 -1.01372e-21)
(0.000854941 0.00155976 -1.27809e-22)
(0.000674461 0.00120164 0)
(0.000720279 0.00132171 0)
(0.000873798 0.00155993 5.5762e-22)
(0.000621124 0.00116717 -2.97164e-22)
(0.00063573 0.00119318 -2.98749e-22)
(0.000674698 0.00123211 0)
(0.000628708 0.00116615 1.34985e-22)
(0.000706961 0.00134136 0)
(0.000605235 0.00114598 0)
(0.000831892 0.00154606 -6.34649e-22)
(0.000454862 0.000468079 -8.35145e-22)
(0.000715506 0.00131911 1.30938e-21)
(0.000332663 0.000648786 -1.3376e-21)
(0.0007207 0.00126351 4.65511e-23)
(0.00082098 2.84064e-05 1.31649e-21)
(0.000873723 0.000237011 1.17175e-21)
(0.000356152 0.000644642 2.24836e-21)
(0.000249637 4.44985e-05 0)
(6.23184e-06 0.000140928 -4.63075e-21)
(0.000650626 0.00114767 -1.44046e-23)
(0.000851379 0.000280674 -1.44017e-21)
(3.41876e-05 5.78248e-06 -2.15044e-21)
(0.00064468 0.00118665 1.28261e-21)
(0.000671297 0.00124285 1.72678e-22)
(0.000676641 0.00114894 0)
(0.000635525 0.00140285 -1.90766e-21)
(0.000534942 -7.9317e-05 -4.96789e-21)
(0.000584716 0.00127283 3.47367e-22)
(0.000231873 0.000762295 0)
(1.32443e-05 0.000175225 2.35599e-25)
(0.000812628 0.000730521 -1.68083e-22)
(0.000748495 0.00132852 0)
(0.000695845 0.00121297 1.36939e-22)
(0.000769221 1.30533e-06 0)
(4.30485e-06 0.00020208 1.7643e-21)
(-1.43658e-06 0.00103036 -1.48743e-21)
(0.00014173 0.000680059 1.60236e-21)
(0.000608545 -8.16006e-05 2.05171e-21)
(0.000701229 0.00129097 -9.57182e-22)
(0.000158708 0.000323824 0)
(0.000556259 0.000158977 -6.85802e-22)
(0.000912292 0.000624522 -1.29739e-21)
(0.000701727 0.00122641 0)
(0.000653427 0.00110777 2.41258e-22)
(0.000558257 0.000989266 -6.39058e-22)
(0.000600726 0.00102928 0)
(0.00053315 0.000931881 -9.94492e-24)
(0.000503606 0.000193665 6.38528e-22)
(0.000327438 0.00068793 4.34759e-23)
(0.000311962 0.00067256 1.00169e-23)
(0.000431634 0.000914852 4.03917e-23)
(0.000566299 0.00130671 9.99618e-22)
(0.000890566 0.000210118 0)
(0.000896451 0.000107765 1.42767e-21)
(0.000501637 0.00102086 -6.91398e-22)
(0.000210094 0.000291626 -2.32234e-21)
(0.000508929 0.000918246 0)
(0.000324907 0.000719418 9.95801e-24)
(0.000368436 0.000818977 1.06894e-23)
(0.000713945 5.99495e-05 2.76577e-25)
(0.000595589 0.00102902 -1.65904e-22)
(0.000686375 0.00129908 3.25884e-22)
(0.000732028 0.00128987 -1.0273e-21)
(0.000614552 0.00115803 0)
(0.000650261 0.00114876 4.4548e-22)
(0.0006048 0.000945613 0)
(0.000542542 0.000668876 -2.67868e-25)
(0.000528371 0.000925391 0)
(2.41617e-05 0.000177969 -3.933e-25)
(0.000625431 0.000187403 3.28859e-22)
(0.000431716 0.000547098 -1.14686e-21)
(9.72915e-05 4.8968e-05 0)
(0.000871953 0.000314721 0)
(0.000440011 5.36381e-05 -6.08675e-24)
(0.000633339 0.000763683 1.61107e-21)
(0.00106111 0.000476458 6.09469e-22)
(0.00068813 0.00117301 -2.00358e-22)
(0.000429932 0.000469569 7.04625e-22)
(0.000603022 0.00133167 -2.39021e-21)
(0.000676529 0.0014534 -2.3362e-22)
(0.000550489 0.00101561 1.71246e-21)
(0.000547641 0.000170812 0)
(0.000830452 0.000428364 -4.75894e-22)
(0.000708132 0.00112938 4.73094e-24)
(0.000294675 0.000307586 0)
(0.000560723 0.0010128 -5.21871e-22)
(0.00048349 0.000576199 -4.91117e-21)
(0.000163795 0.000193213 1.80633e-21)
(0.000842413 0.00149142 1.08388e-22)
(0.000799677 0.000665187 -1.85107e-21)
(0.000532433 0.00116968 5.64947e-22)
(0.000992661 8.5577e-05 -1.6517e-21)
(0.000671751 0.000533416 1.10487e-21)
(0.000801278 0.00140896 -7.55433e-23)
(0.000508462 0.000573458 -9.62281e-25)
(0.00116083 0.000348506 -4.94338e-22)
(0.000409787 0.000327973 1.30399e-21)
(0.000276586 0.00060085 9.05882e-24)
(0.000282101 0.000613079 9.1876e-24)
(0.00028947 0.00062969 9.33348e-24)
(0.000342848 0.000750839 -8.1675e-23)
(0.000270351 0.000587465 3.61079e-23)
(0.000184301 0.000181675 0)
(0.00076235 0.000521161 0)
(0.000559228 0.00085991 -1.85731e-21)
(0.000854967 1.60653e-05 0)
(0.000172731 2.64728e-05 1.85549e-21)
(2.22409e-05 6.12369e-05 3.35381e-21)
(0.0005051 0.0004039 -1.34227e-21)
(0.000413043 0.000651385 2.21227e-21)
(0.00117741 0.000646743 3.32737e-21)
(0.000528203 0.000935106 4.4675e-22)
(0.000556078 0.000959275 -8.89944e-22)
(0.000538128 0.000945188 2.2601e-22)
(0.000578904 0.00101099 -1.02243e-21)
(0.000738662 0.00127917 0)
(0.00067698 0.00120052 2.52159e-22)
(7.08429e-05 5.03399e-05 1.90995e-21)
(0.000874797 0.000277492 1.54882e-21)
(0.000434284 0.000795964 -9.23193e-22)
(0.00045494 0.000828513 -6.83838e-22)
(0.000598226 0.000991328 -3.12653e-22)
(0.000498378 0.000805122 3.53699e-22)
(0.000472274 0.000741138 3.91848e-22)
(0.000417693 0.000738243 8.90717e-22)
(0.000570734 0.000810543 2.44016e-23)
(0.000489015 0.000698577 0)
(0.000532215 0.000891685 -6.5386e-22)
(0.000437988 0.000809444 5.71781e-22)
(0.000571078 0.000892324 -4.35597e-22)
(0.000547682 0.000945019 -6.49199e-22)
(0.000421687 0.000742261 -1.93773e-22)
(0.000411874 0.000730017 3.98333e-22)
(0.00051957 0.0009334 0)
(0.000433674 0.000699843 -9.03213e-22)
(0.000417226 0.000729898 2.22136e-22)
(0.000426574 0.000745965 4.24137e-22)
(0.000712248 0.00100335 -1.71772e-22)
(0.000422592 0.000765305 -1.63683e-22)
(0.000427744 0.000780443 0)
(0.000418094 0.000763414 3.49018e-22)
(0.000449876 0.000725291 0)
(0.000398584 0.000726782 2.27361e-23)
(0.000521935 0.00094852 -9.14608e-24)
(0.000536293 0.000934331 1.15956e-23)
(0.000623865 0.00103437 0)
(0.000501158 0.000745678 3.30241e-21)
(0.000556392 0.00098515 6.0178e-22)
(0.000591533 0.000971644 -1.85892e-21)
(0.000404838 0.000740622 -7.85868e-22)
(0.000509274 0.000760035 0)
(0.00045629 0.000813518 -7.21396e-22)
(0.000504302 0.000909913 3.72081e-22)
(0.000481843 0.000793775 0)
(0.000866184 0.000153294 -1.1556e-21)
(0.000755294 0.00133486 2.18511e-22)
(2.53921e-05 8.67508e-06 1.09705e-21)
(0.000799127 0.00148232 -1.58181e-22)
(0.000913273 2.56265e-05 -1.31583e-21)
(4.20969e-05 6.97417e-07 2.3219e-21)
(4.05286e-05 -2.50783e-06 0)
(0.000121213 0.000285819 1.22686e-21)
(0.000658146 0.00114436 -3.9411e-22)
(0.00067348 0.00118305 0)
(0.000753848 0.00128133 -1.89927e-21)
(1.45976e-05 5.09111e-05 -2.10195e-21)
(0.000206865 0.00052406 0)
(7.34139e-06 -8.28645e-06 -1.86596e-21)
(0.000738556 0.0001502 1.61268e-21)
(0.000860348 2.7488e-05 -5.91746e-22)
(0.000721761 0.00120723 1.54731e-21)
(0.000410649 0.00111055 -6.0642e-22)
(0.00027924 0.000405198 -1.02474e-22)
(0.000415118 0.000813666 1.68341e-21)
(0.000208505 0.000566691 -1.6753e-21)
(0.00108276 0.000470916 7.37293e-23)
(0.000159042 0.000826675 1.69964e-21)
(0.000823459 0.000342426 7.78139e-22)
(7.00285e-05 4.11785e-05 3.42236e-21)
(0.00100741 -3.63754e-06 3.61621e-21)
(0.000744038 0.00125954 -1.40291e-23)
(0.000608834 0.000262311 -2.10235e-21)
(0.00102171 0.000257457 1.49358e-24)
(5.21855e-05 0.000330018 -1.35289e-21)
(0.000610873 0.0012154 -8.7997e-24)
(0.000580689 0.00121203 0)